/*--------------------------------*- C++ -*----------------------------------*\
  =========                 |
  \\      /  F ield         | OpenFOAM: The Open Source CFD Toolbox
   \\    /   O peration     | Website:  https://openfoam.org
    \\  /    A nd           | Version:  6.0
     \\/     M anipulation  |
\*---------------------------------------------------------------------------*/
FoamFile
{
    version     2.0;
    format      ascii;
    class       surfaceScalarField;
    location    "1.67";
    object      phi;
}
// * * * * * * * * * * * * * * * * * * * * * * * * * * * * * * * * * * * * * //

dimensions      [0 3 -1 0 0 0 0];

internalField   nonuniform List<scalar> 
26699
(
2.0051e-05
0.005201
4.0863e-10
4.0126e-05
0.0051116
5.9639e-05
0.0049351
7.8186e-05
0.0046741
9.5416e-05
0.0043332
0.00011102
0.0039182
0.00012472
0.0034362
0.00013626
0.0028953
0.00014546
0.002305
0.00015182
0.0016755
0.00015718
0.0010154
0.00046489
3.45e-05
2.0051e-05
0.0051809
1.2727e-09
4.0127e-05
0.0050916
5.9641e-05
0.0049155
7.8189e-05
0.0046556
9.5419e-05
0.004316
0.00011102
0.0039026
0.00012471
0.0034225
0.00013624
0.0028838
0.00014544
0.0022958
0.00015107
0.0016699
0.00015895
0.0010075
0.00055861
6.5232e-05
2.0052e-05
0.0051609
2.2056e-09
4.0128e-05
0.0050715
5.9643e-05
0.004896
7.8192e-05
0.004637
9.5421e-05
0.0042988
0.00011102
0.003887
0.00012471
0.0034088
0.00013622
0.0028723
0.00014545
0.0022865
0.00015032
0.001665
0.00016026
0.00099758
0.00062838
9.0485e-05
2.0052e-05
0.0051408
3.1456e-09
4.013e-05
0.0050514
5.9646e-05
0.0048765
7.8195e-05
0.0046185
9.5424e-05
0.0042815
0.00011102
0.0038714
0.0001247
0.0033951
0.00013619
0.0028608
0.00014549
0.0022772
0.00014959
0.0016609
0.00016103
0.00098615
0.00067865
0.00011077
2.0052e-05
0.0051208
4.0862e-09
4.0131e-05
0.0050313
5.9648e-05
0.004857
7.8198e-05
0.0045999
9.5427e-05
0.0042643
0.00011102
0.0038558
0.0001247
0.0033814
0.00013617
0.0028493
0.00014555
0.0022678
0.00014892
0.0016575
0.00016129
0.00097377
0.00071307
0.00012687
2.0052e-05
0.0051007
5.0275e-09
4.0133e-05
0.0050112
5.965e-05
0.0048375
7.8201e-05
0.0045814
9.543e-05
0.0042471
0.00011103
0.0038402
0.0001247
0.0033678
0.00013614
0.0028379
0.00014562
0.0022584
0.00014831
0.0016548
0.00016111
0.00096097
0.0007347
0.00013948
2.0053e-05
0.0050807
5.9694e-09
4.0134e-05
0.0049912
5.9653e-05
0.004818
7.8204e-05
0.0045628
9.5433e-05
0.0042299
0.00011103
0.0038246
0.0001247
0.0033541
0.0001361
0.0028265
0.00014572
0.0022487
0.00014779
0.0016528
0.00016057
0.0009482
0.00074611
0.00014916
2.0053e-05
0.0050606
6.9121e-09
4.0135e-05
0.0049711
5.9655e-05
0.0047984
7.8207e-05
0.0045443
9.5436e-05
0.0042126
0.00011103
0.003809
0.0001247
0.0033404
0.00013607
0.0028151
0.00014582
0.002239
0.00014738
0.0016512
0.00015977
0.0009358
0.00074948
0.00015641
2.0053e-05
0.0050405
7.8555e-09
4.0137e-05
0.004951
5.9657e-05
0.0047789
7.821e-05
0.0045257
9.5439e-05
0.0041954
0.00011103
0.0037934
0.0001247
0.0033268
0.00013603
0.0028038
0.00014593
0.0022291
0.00014707
0.0016501
0.00015881
0.00092406
0.00074662
0.00016166
2.0053e-05
0.0050205
8.7999e-09
4.0138e-05
0.0049309
5.966e-05
0.0047594
7.8213e-05
0.0045072
9.5442e-05
0.0041782
0.00011103
0.0037778
0.0001247
0.0033131
0.00013599
0.0027925
0.00014604
0.0022191
0.00014687
0.0016492
0.00015774
0.00091319
0.00073906
0.00016531
2.0053e-05
0.0050004
9.7453e-09
4.0139e-05
0.0049108
5.9662e-05
0.0047399
7.8216e-05
0.0044886
9.5445e-05
0.0041609
0.00011104
0.0037622
0.0001247
0.0032994
0.00013595
0.0027813
0.00014614
0.0022089
0.00014677
0.0016486
0.00015664
0.00090332
0.00072803
0.00016767
2.0054e-05
0.0049804
1.0692e-08
4.0141e-05
0.0048907
5.9664e-05
0.0047204
7.8219e-05
0.00447
9.5448e-05
0.0041437
0.00011104
0.0037467
0.00012471
0.0032858
0.00013591
0.00277
0.00014624
0.0021985
0.00014677
0.0016481
0.00015556
0.00089452
0.00071457
0.00016903
2.0054e-05
0.0049603
1.1639e-08
4.0142e-05
0.0048707
5.9666e-05
0.0047008
7.8222e-05
0.0044515
9.5451e-05
0.0041265
0.00011104
0.0037311
0.00012471
0.0032721
0.00013587
0.0027589
0.00014633
0.0021881
0.00014686
0.0016475
0.00015455
0.00088684
0.0006995
0.00016961
2.0054e-05
0.0049402
1.2588e-08
4.0144e-05
0.0048506
5.9669e-05
0.0046813
7.8226e-05
0.0044329
9.5454e-05
0.0041093
0.00011104
0.0037155
0.00012472
0.0032584
0.00013582
0.0027478
0.00014641
0.0021775
0.00014704
0.0016469
0.00015362
0.00088026
0.0006835
0.00016963
2.0054e-05
0.0049202
1.3537e-08
4.0145e-05
0.0048305
5.9671e-05
0.0046618
7.8229e-05
0.0044144
9.5457e-05
0.004092
0.00011104
0.0036999
0.00012472
0.0032447
0.00013578
0.0027367
0.00014647
0.0021668
0.00014727
0.0016461
0.0001528
0.00087473
0.00066707
0.00016922
2.0054e-05
0.0049001
1.4488e-08
4.0146e-05
0.0048104
5.9673e-05
0.0046423
7.8232e-05
0.0043958
9.5461e-05
0.0040748
0.00011105
0.0036843
0.00012473
0.003231
0.00013573
0.0027257
0.00014652
0.002156
0.00014757
0.0016451
0.0001521
0.0008702
0.00065064
0.00016854
2.0055e-05
0.00488
1.5441e-08
4.0148e-05
0.0047903
5.9676e-05
0.0046227
7.8235e-05
0.0043773
9.5464e-05
0.0040576
0.00011105
0.0036687
0.00012474
0.0032174
0.00013569
0.0027148
0.00014655
0.0021451
0.0001479
0.0016437
0.00015153
0.00086657
0.00063451
0.00016767
2.0055e-05
0.0048599
1.6394e-08
4.0149e-05
0.0047702
5.9678e-05
0.0046032
7.8238e-05
0.0043587
9.5467e-05
0.0040403
0.00011105
0.0036532
0.00012475
0.0032037
0.00013565
0.0027039
0.00014657
0.0021342
0.00014827
0.001642
0.00015109
0.00086375
0.0006189
0.0001667
2.0055e-05
0.0048399
1.7349e-08
4.015e-05
0.0047501
5.968e-05
0.0045837
7.8241e-05
0.0043401
9.5471e-05
0.0040231
0.00011105
0.0036376
0.00012476
0.0031899
0.00013561
0.002693
0.00014656
0.0021233
0.00014865
0.0016399
0.00015076
0.00086164
0.00060397
0.00016569
2.0055e-05
0.0048198
1.8306e-08
4.0152e-05
0.00473
5.9683e-05
0.0045641
7.8244e-05
0.0043216
9.5474e-05
0.0040059
0.00011105
0.003622
0.00012477
0.0031762
0.00013558
0.0026822
0.00014654
0.0021123
0.00014904
0.0016374
0.00015055
0.00086013
0.00058982
0.0001647
2.0056e-05
0.0047997
1.9264e-08
4.0153e-05
0.0047099
5.9685e-05
0.0045446
7.8248e-05
0.004303
9.5478e-05
0.0039886
0.00011105
0.0036064
0.00012478
0.0031625
0.00013555
0.0026714
0.00014651
0.0021013
0.00014943
0.0016345
0.00015044
0.00085912
0.00057651
0.00016375
2.0056e-05
0.0047796
2.0223e-08
4.0155e-05
0.0046898
5.9688e-05
0.0045251
7.8251e-05
0.0042845
9.5482e-05
0.0039714
0.00011106
0.0035908
0.00012479
0.0031488
0.00013552
0.0026607
0.00014646
0.0020904
0.00014981
0.0016312
0.00015042
0.00085852
0.00056406
0.00016287
2.0056e-05
0.0047596
2.1185e-08
4.0156e-05
0.0046697
5.969e-05
0.0045055
7.8254e-05
0.0042659
9.5485e-05
0.0039542
0.00011106
0.0035753
0.0001248
0.003135
0.0001355
0.00265
0.0001464
0.0020795
0.00015018
0.0016274
0.00015048
0.00085822
0.00055247
0.00016207
2.0056e-05
0.0047395
2.2147e-08
4.0157e-05
0.0046496
5.9692e-05
0.004486
7.8257e-05
0.0042473
9.5489e-05
0.003937
0.00011106
0.0035597
0.00012482
0.0031213
0.00013548
0.0026393
0.00014633
0.0020687
0.00015053
0.0016232
0.0001506
0.00085815
0.0005417
0.00016137
2.0056e-05
0.0047194
2.3112e-08
4.0159e-05
0.0046295
5.9695e-05
0.0044665
7.8261e-05
0.0042288
9.5493e-05
0.0039197
0.00011106
0.0035441
0.00012483
0.0031075
0.00013547
0.0026287
0.00014624
0.0020579
0.00015085
0.0016186
0.00015078
0.00085822
0.00053172
0.00016076
2.0057e-05
0.0046993
2.4079e-08
4.016e-05
0.0046094
5.9697e-05
0.0044469
7.8264e-05
0.0042102
9.5497e-05
0.0039025
0.00011106
0.0035286
0.00012484
0.0030937
0.00013546
0.0026181
0.00014616
0.0020472
0.00015114
0.0016136
0.00015099
0.00085836
0.00052248
0.00016024
2.0057e-05
0.0046792
2.5047e-08
4.0161e-05
0.0045893
5.97e-05
0.0044274
7.8267e-05
0.0041916
9.5501e-05
0.0038853
0.00011107
0.003513
0.00012486
0.0030799
0.00013546
0.0026075
0.00014606
0.0020366
0.00015141
0.0016082
0.00015124
0.00085853
0.00051391
0.00015981
2.0057e-05
0.0046592
2.6018e-08
4.0163e-05
0.0045692
5.9702e-05
0.0044079
7.8271e-05
0.0041731
9.5505e-05
0.003868
0.00011107
0.0034974
0.00012487
0.0030661
0.00013546
0.0025969
0.00014596
0.0020261
0.00015164
0.0016026
0.00015151
0.00085866
0.00050595
0.00015946
2.0057e-05
0.0046391
2.699e-08
4.0164e-05
0.0045491
5.9704e-05
0.0043883
7.8274e-05
0.0041545
9.5509e-05
0.0038508
0.00011107
0.0034819
0.00012488
0.0030523
0.00013547
0.0025863
0.00014587
0.0020157
0.00015185
0.0015966
0.00015179
0.00085872
0.00049856
0.00015919
2.0057e-05
0.004619
2.7965e-08
4.0166e-05
0.004529
5.9707e-05
0.0043688
7.8277e-05
0.0041359
9.5514e-05
0.0038335
0.00011107
0.0034663
0.0001249
0.0030385
0.00013548
0.0025757
0.00014577
0.0020054
0.00015203
0.0015903
0.00015208
0.00085867
0.00049165
0.00015898
2.0058e-05
0.0045989
2.8941e-08
4.0167e-05
0.0045089
5.9709e-05
0.0043492
7.8281e-05
0.0041173
9.5518e-05
0.0038163
0.00011107
0.0034508
0.00012491
0.0030246
0.0001355
0.0025651
0.00014567
0.0019952
0.00015219
0.0015838
0.00015237
0.00085849
0.00048518
0.00015883
2.0058e-05
0.0045788
2.992e-08
4.0168e-05
0.0044888
5.9712e-05
0.0043297
7.8284e-05
0.0040988
9.5523e-05
0.0037991
0.00011107
0.0034352
0.00012492
0.0030108
0.00013552
0.0025545
0.00014558
0.0019852
0.00015231
0.0015771
0.00015265
0.00085816
0.0004791
0.00015873
2.0058e-05
0.0045587
3.0901e-08
4.017e-05
0.0044686
5.9714e-05
0.0043101
7.8287e-05
0.0040802
9.5528e-05
0.0037818
0.00011107
0.0034197
0.00012493
0.0029969
0.00013554
0.0025439
0.00014549
0.0019752
0.00015242
0.0015701
0.00015292
0.00085766
0.00047335
0.00015867
2.0058e-05
0.0045386
3.1885e-08
4.0171e-05
0.0044485
5.9717e-05
0.0042906
7.8291e-05
0.0040616
9.5532e-05
0.0037646
0.00011108
0.0034041
0.00012494
0.0029831
0.00013556
0.0025333
0.0001454
0.0019654
0.00015251
0.001563
0.00015318
0.00085699
0.0004679
0.00015864
2.0058e-05
0.0045186
3.2871e-08
4.0173e-05
0.0044284
5.9719e-05
0.004271
7.8294e-05
0.004043
9.5537e-05
0.0037473
0.00011108
0.0033886
0.00012496
0.0029692
0.00013559
0.0025227
0.00014533
0.0019557
0.00015258
0.0015558
0.00015343
0.00085613
0.00046269
0.00015864
2.0059e-05
0.0044985
3.386e-08
4.0174e-05
0.0044083
5.9722e-05
0.0042515
7.8298e-05
0.0040245
9.5542e-05
0.0037301
0.00011108
0.003373
0.00012497
0.0029553
0.00013562
0.002512
0.00014525
0.001946
0.00015263
0.0015484
0.00015367
0.0008551
0.0004577
0.00015866
2.0059e-05
0.0044784
3.4851e-08
4.0175e-05
0.0043882
5.9725e-05
0.004232
7.8301e-05
0.0040059
9.5548e-05
0.0037129
0.00011108
0.0033575
0.00012498
0.0029414
0.00013566
0.0025013
0.00014519
0.0019365
0.00015268
0.0015409
0.00015389
0.00085389
0.00045289
0.0001587
2.0059e-05
0.0044583
3.5845e-08
4.0177e-05
0.0043681
5.9727e-05
0.0042124
7.8305e-05
0.0039873
9.5553e-05
0.0036956
0.00011108
0.003342
0.00012499
0.0029275
0.00013569
0.0024906
0.00014513
0.0019271
0.00015271
0.0015333
0.00015409
0.00085251
0.00044823
0.00015874
2.0059e-05
0.0044382
3.6841e-08
4.0178e-05
0.0043479
5.973e-05
0.0041928
7.8308e-05
0.0039687
9.5558e-05
0.0036784
0.00011109
0.0033265
0.000125
0.0029136
0.00013573
0.0024799
0.00014508
0.0019177
0.00015273
0.0015257
0.00015428
0.00085095
0.00044372
0.0001588
2.006e-05
0.0044181
3.7841e-08
4.018e-05
0.0043278
5.9732e-05
0.0041733
7.8312e-05
0.0039502
9.5564e-05
0.0036611
0.00011109
0.0033109
0.00012501
0.0028997
0.00013577
0.0024691
0.00014504
0.0019084
0.00015275
0.001518
0.00015446
0.00084924
0.00043932
0.00015886
2.006e-05
0.004398
3.8843e-08
4.0181e-05
0.0043077
5.9735e-05
0.0041537
7.8315e-05
0.0039316
9.557e-05
0.0036438
0.00011109
0.0032954
0.00012501
0.0028858
0.0001358
0.0024583
0.00014501
0.0018992
0.00015277
0.0015102
0.00015463
0.00084738
0.00043502
0.00015893
2.006e-05
0.0043779
3.9849e-08
4.0183e-05
0.0042876
5.9738e-05
0.0041342
7.8319e-05
0.003913
9.5576e-05
0.0036266
0.00011109
0.0032799
0.00012502
0.0028718
0.00013584
0.0024475
0.00014498
0.0018901
0.00015278
0.0015024
0.00015478
0.00084538
0.0004308
0.000159
2.006e-05
0.0043578
4.0857e-08
4.0184e-05
0.0042675
5.9741e-05
0.0041146
7.8322e-05
0.0038944
9.5582e-05
0.0036093
0.00011109
0.0032644
0.00012503
0.0028579
0.00013588
0.0024367
0.00014496
0.001881
0.00015279
0.0014946
0.00015493
0.00084323
0.00042666
0.00015907
2.0061e-05
0.0043377
4.1869e-08
4.0185e-05
0.0042473
5.9743e-05
0.0040951
7.8326e-05
0.0038758
9.5588e-05
0.0035921
0.0001111
0.0032489
0.00012504
0.0028439
0.00013592
0.0024258
0.00014494
0.001872
0.0001528
0.0014867
0.00015507
0.00084097
0.00042259
0.00015914
2.0061e-05
0.0043176
4.2884e-08
4.0187e-05
0.0042272
5.9746e-05
0.0040755
7.8329e-05
0.0038573
9.5595e-05
0.0035748
0.0001111
0.0032334
0.00012505
0.00283
0.00013596
0.0024149
0.00014493
0.001863
0.00015281
0.0014788
0.00015519
0.00083859
0.00041858
0.0001592
2.0061e-05
0.0042975
4.3902e-08
4.0188e-05
0.0042071
5.9749e-05
0.004056
7.8333e-05
0.0038387
9.5601e-05
0.0035575
0.0001111
0.0032179
0.00012505
0.002816
0.000136
0.0024039
0.00014493
0.0018541
0.00015282
0.001471
0.00015531
0.00083609
0.00041462
0.00015927
2.0061e-05
0.0042774
4.4923e-08
4.019e-05
0.004187
5.9752e-05
0.0040364
7.8336e-05
0.0038201
9.5608e-05
0.0035403
0.00011111
0.0032024
0.00012506
0.0028021
0.00013604
0.0023929
0.00014493
0.0018452
0.00015283
0.0014631
0.00015543
0.0008335
0.00041071
0.00015933
2.0062e-05
0.0042573
4.5949e-08
4.0191e-05
0.0041668
5.9755e-05
0.0040168
7.834e-05
0.0038015
9.5615e-05
0.003523
0.00011111
0.0031869
0.00012507
0.0027881
0.00013608
0.0023819
0.00014494
0.0018364
0.00015285
0.0014551
0.00015553
0.00083081
0.00040685
0.0001594
2.0062e-05
0.0042371
4.6977e-08
4.0193e-05
0.0041467
5.9758e-05
0.0039973
7.8343e-05
0.0037829
9.5622e-05
0.0035057
0.00011111
0.0031714
0.00012507
0.0027742
0.00013612
0.0023709
0.00014495
0.0018275
0.00015286
0.0014472
0.00015564
0.00082803
0.00040303
0.00015946
2.0062e-05
0.004217
4.801e-08
4.0194e-05
0.0041266
5.9761e-05
0.0039777
7.8347e-05
0.0037643
9.563e-05
0.0034884
0.00011112
0.0031559
0.00012508
0.0027602
0.00013616
0.0023598
0.00014496
0.0018187
0.00015288
0.0014393
0.00015574
0.00082517
0.00039925
0.00015951
2.0062e-05
0.0041969
4.9046e-08
4.0196e-05
0.0041064
5.9764e-05
0.0039581
7.8351e-05
0.0037457
9.5637e-05
0.0034711
0.00011112
0.0031404
0.00012508
0.0027462
0.0001362
0.0023487
0.00014498
0.00181
0.0001529
0.0014314
0.00015583
0.00082224
0.00039552
0.00015957
2.0063e-05
0.0041768
5.0086e-08
4.0197e-05
0.0040863
5.9767e-05
0.0039386
7.8354e-05
0.0037272
9.5645e-05
0.0034538
0.00011112
0.0031249
0.00012509
0.0027323
0.00013624
0.0023375
0.000145
0.0018012
0.00015292
0.0014235
0.00015592
0.00081923
0.00039182
0.00015962
2.0063e-05
0.0041567
5.113e-08
4.0199e-05
0.0040662
5.977e-05
0.003919
7.8358e-05
0.0037086
9.5653e-05
0.0034366
0.00011113
0.0031095
0.0001251
0.0027183
0.00013628
0.0023263
0.00014502
0.0017925
0.00015294
0.0014156
0.00015601
0.00081616
0.00038816
0.00015967
2.0063e-05
0.0041366
5.2178e-08
4.02e-05
0.004046
5.9773e-05
0.0038994
7.8361e-05
0.00369
9.566e-05
0.0034193
0.00011113
0.003094
0.0001251
0.0027043
0.00013632
0.0023151
0.00014505
0.0017837
0.00015296
0.0014076
0.0001561
0.00081303
0.00038454
0.00015972
2.0064e-05
0.0041165
5.3231e-08
4.0202e-05
0.0040259
5.9776e-05
0.0038798
7.8365e-05
0.0036714
9.5668e-05
0.003402
0.00011114
0.0030785
0.00012511
0.0026904
0.00013635
0.0023039
0.00014508
0.001775
0.00015299
0.0013997
0.00015618
0.00080984
0.00038095
0.00015977
2.0064e-05
0.0040963
5.4287e-08
4.0203e-05
0.0040057
5.978e-05
0.0038603
7.8369e-05
0.0036528
9.5677e-05
0.0033846
0.00011115
0.003063
0.00012511
0.0026764
0.00013639
0.0022926
0.00014511
0.0017663
0.00015302
0.0013918
0.00015626
0.00080659
0.0003774
0.00015981
2.0064e-05
0.0040762
5.5348e-08
4.0205e-05
0.0039856
5.9783e-05
0.0038407
7.8372e-05
0.0036342
9.5685e-05
0.0033673
0.00011115
0.0030476
0.00012512
0.0026625
0.00013643
0.0022813
0.00014514
0.0017576
0.00015304
0.0013839
0.00015634
0.00080329
0.00037388
0.00015986
2.0064e-05
0.0040561
5.6414e-08
4.0206e-05
0.0039655
5.9786e-05
0.0038211
7.8376e-05
0.0036156
9.5693e-05
0.00335
0.00011116
0.0030321
0.00012512
0.0026485
0.00013647
0.0022699
0.00014517
0.0017489
0.00015307
0.001376
0.00015642
0.00079994
0.0003704
0.0001599
2.0065e-05
0.004036
5.7484e-08
4.0208e-05
0.0039453
5.979e-05
0.0038015
7.838e-05
0.003597
9.5702e-05
0.0033327
0.00011117
0.0030166
0.00012513
0.0026345
0.0001365
0.0022586
0.0001452
0.0017402
0.0001531
0.0013681
0.0001565
0.00079654
0.00036696
0.00015994
2.0065e-05
0.0040159
5.8558e-08
4.021e-05
0.0039252
5.9793e-05
0.0037819
7.8383e-05
0.0035784
9.571e-05
0.0033154
0.00011118
0.0030012
0.00012514
0.0026206
0.00013654
0.0022472
0.00014523
0.0017315
0.00015313
0.0013602
0.00015657
0.00079309
0.00036354
0.00015998
2.0066e-05
0.0039957
5.9638e-08
4.0211e-05
0.003905
5.9797e-05
0.0037624
7.8387e-05
0.0035599
9.5719e-05
0.003298
0.00011119
0.0029857
0.00012514
0.0026066
0.00013657
0.0022357
0.00014527
0.0017228
0.00015316
0.0013523
0.00015664
0.00078961
0.00036017
0.00016002
2.0066e-05
0.0039756
6.0722e-08
4.0213e-05
0.0038849
5.98e-05
0.0037428
7.8391e-05
0.0035413
9.5727e-05
0.0032807
0.0001112
0.0029702
0.00012515
0.0025927
0.00013661
0.0022243
0.0001453
0.0017141
0.00015319
0.0013444
0.00015672
0.00078608
0.00035682
0.00016006
2.0066e-05
0.0039555
6.1811e-08
4.0214e-05
0.0038647
5.9804e-05
0.0037232
7.8395e-05
0.0035227
9.5736e-05
0.0032634
0.00011121
0.0029548
0.00012516
0.0025787
0.00013665
0.0022128
0.00014534
0.0017054
0.00015322
0.0013366
0.00015679
0.00078251
0.00035351
0.0001601
2.0067e-05
0.0039353
6.2906e-08
4.0216e-05
0.0038446
5.9808e-05
0.0037036
7.8399e-05
0.0035041
9.5745e-05
0.003246
0.00011122
0.0029393
0.00012517
0.0025648
0.00013668
0.0022013
0.00014537
0.0016967
0.00015325
0.0013287
0.00015685
0.00077891
0.00035022
0.00016014
2.0067e-05
0.0039152
6.4005e-08
4.0218e-05
0.0038244
5.9811e-05
0.003684
7.8403e-05
0.0034855
9.5754e-05
0.0032287
0.00011123
0.0029238
0.00012517
0.0025508
0.00013672
0.0021897
0.00014541
0.001688
0.00015328
0.0013208
0.00015692
0.00077527
0.00034697
0.00016017
2.0067e-05
0.0038951
6.511e-08
4.0219e-05
0.0038043
5.9815e-05
0.0036644
7.8407e-05
0.0034669
9.5763e-05
0.0032113
0.00011124
0.0029083
0.00012518
0.0025369
0.00013675
0.0021782
0.00014545
0.0016793
0.00015331
0.001313
0.00015699
0.00077159
0.00034376
0.00016021
2.0068e-05
0.003875
6.6221e-08
4.0221e-05
0.0037841
5.9819e-05
0.0036448
7.8412e-05
0.0034483
9.5772e-05
0.0031939
0.00011125
0.0028929
0.00012519
0.0025229
0.00013678
0.0021666
0.00014548
0.0016706
0.00015334
0.0013051
0.00015705
0.00076788
0.00034057
0.00016024
2.0068e-05
0.0038548
6.7336e-08
4.0223e-05
0.003764
5.9823e-05
0.0036252
7.8416e-05
0.0034297
9.5781e-05
0.0031766
0.00011127
0.0028774
0.0001252
0.002509
0.00013682
0.002155
0.00014552
0.0016619
0.00015337
0.0012973
0.00015711
0.00076413
0.00033741
0.00016027
2.0069e-05
0.0038347
6.8458e-08
4.0224e-05
0.0037438
5.9827e-05
0.0036056
7.8421e-05
0.0034111
9.579e-05
0.0031592
0.00011128
0.0028619
0.00012521
0.0024951
0.00013685
0.0021433
0.00014555
0.0016532
0.0001534
0.0012894
0.00015718
0.00076035
0.00033428
0.00016031
2.0069e-05
0.0038145
6.9585e-08
4.0226e-05
0.0037237
5.9831e-05
0.003586
7.8425e-05
0.0033925
9.5799e-05
0.0031418
0.0001113
0.0028464
0.00012522
0.0024811
0.00013688
0.0021317
0.00014559
0.0016445
0.00015343
0.0012816
0.00015724
0.00075654
0.00033117
0.00016034
2.007e-05
0.0037944
7.0718e-08
4.0228e-05
0.0037035
5.9836e-05
0.0035664
7.843e-05
0.0033739
9.5808e-05
0.0031245
0.00011131
0.0028309
0.00012524
0.0024672
0.00013692
0.00212
0.00014563
0.0016358
0.00015346
0.0012737
0.0001573
0.0007527
0.0003281
0.00016037
2.007e-05
0.0037743
7.1857e-08
4.023e-05
0.0036833
5.984e-05
0.0035468
7.8435e-05
0.0033553
9.5817e-05
0.0031071
0.00011133
0.0028154
0.00012525
0.0024533
0.00013695
0.0021083
0.00014566
0.0016271
0.00015349
0.0012659
0.00015735
0.00074884
0.00032505
0.0001604
2.007e-05
0.0037541
7.3002e-08
4.0232e-05
0.0036632
5.9844e-05
0.0035272
7.844e-05
0.0033367
9.5827e-05
0.0030897
0.00011134
0.0027999
0.00012526
0.0024394
0.00013698
0.0020966
0.0001457
0.0016184
0.00015352
0.0012581
0.00015741
0.00074494
0.00032203
0.00016043
2.0071e-05
0.003734
7.4153e-08
4.0234e-05
0.003643
5.9849e-05
0.0035075
7.8446e-05
0.0033181
9.5836e-05
0.0030723
0.00011136
0.0027843
0.00012527
0.0024254
0.00013701
0.0020848
0.00014573
0.0016096
0.00015354
0.0012503
0.00015747
0.00074102
0.00031904
0.00016046
2.0071e-05
0.0037138
7.5311e-08
4.0235e-05
0.0036229
5.9853e-05
0.0034879
7.8451e-05
0.0032995
9.5846e-05
0.0030549
0.00011138
0.0027688
0.00012529
0.0024115
0.00013704
0.0020731
0.00014577
0.0016009
0.00015357
0.0012425
0.00015752
0.00073706
0.00031607
0.00016049
2.0072e-05
0.0036937
7.6474e-08
4.0237e-05
0.0036027
5.9858e-05
0.0034683
7.8457e-05
0.0032809
9.5856e-05
0.0030375
0.00011139
0.0027533
0.0001253
0.0023976
0.00013707
0.0020613
0.0001458
0.0015922
0.0001536
0.0012347
0.00015758
0.00073309
0.00031313
0.00016052
2.0073e-05
0.0036735
7.7644e-08
4.0239e-05
0.0035825
5.9862e-05
0.0034487
7.8463e-05
0.0032623
9.5866e-05
0.0030201
0.00011141
0.0027377
0.00012532
0.0023837
0.0001371
0.0020495
0.00014584
0.0015835
0.00015363
0.0012269
0.00015763
0.00072909
0.00031021
0.00016055
2.0073e-05
0.0036534
7.882e-08
4.0242e-05
0.0035624
5.9867e-05
0.0034291
7.847e-05
0.0032437
9.5876e-05
0.0030027
0.00011143
0.0027222
0.00012533
0.0023698
0.00013713
0.0020377
0.00014588
0.0015747
0.00015366
0.0012191
0.00015768
0.00072506
0.00030731
0.00016058
2.0074e-05
0.0036332
8.0002e-08
4.0244e-05
0.0035422
5.9872e-05
0.0034094
7.8476e-05
0.0032251
9.5886e-05
0.0029853
0.00011145
0.0027066
0.00012535
0.0023559
0.00013716
0.0020259
0.00014591
0.001566
0.00015369
0.0012113
0.00015774
0.00072101
0.00030444
0.00016061
2.0074e-05
0.0036131
8.1191e-08
4.0246e-05
0.003522
5.9877e-05
0.0033898
7.8483e-05
0.0032065
9.5897e-05
0.0029679
0.00011147
0.002691
0.00012536
0.002342
0.00013719
0.0020141
0.00014595
0.0015572
0.00015371
0.0012036
0.00015779
0.00071694
0.00030159
0.00016064
2.0075e-05
0.0035929
8.2386e-08
4.0248e-05
0.0035018
5.9882e-05
0.0033702
7.849e-05
0.0031879
9.5907e-05
0.0029505
0.00011149
0.0026755
0.00012538
0.0023281
0.00013722
0.0020022
0.00014598
0.0015484
0.00015374
0.0011958
0.00015784
0.00071285
0.00029877
0.00016066
2.0076e-05
0.0035727
8.3587e-08
4.025e-05
0.0034817
5.9887e-05
0.0033505
7.8498e-05
0.0031693
9.5918e-05
0.002933
0.00011151
0.0026599
0.00012539
0.0023143
0.00013725
0.0019904
0.00014602
0.0015397
0.00015377
0.0011881
0.00015789
0.00070873
0.00029596
0.00016069
2.0076e-05
0.0035526
8.4794e-08
4.0253e-05
0.0034615
5.9892e-05
0.0033309
7.8505e-05
0.0031507
9.5929e-05
0.0029156
0.00011153
0.0026443
0.00012541
0.0023004
0.00013728
0.0019785
0.00014605
0.0015309
0.0001538
0.0011803
0.00015793
0.00070459
0.00029318
0.00016072
2.0077e-05
0.0035324
8.6007e-08
4.0255e-05
0.0034413
5.9898e-05
0.0033112
7.8513e-05
0.0031321
9.594e-05
0.0028982
0.00011155
0.0026287
0.00012542
0.0022865
0.0001373
0.0019666
0.00014609
0.0015221
0.00015383
0.0011726
0.00015798
0.00070044
0.00029042
0.00016074
2.0078e-05
0.0035123
8.7227e-08
4.0258e-05
0.0034211
5.9903e-05
0.0032916
7.8521e-05
0.0031135
9.5951e-05
0.0028808
0.00011157
0.002613
0.00012544
0.0022726
0.00013733
0.0019547
0.00014612
0.0015133
0.00015385
0.0011648
0.00015803
0.00069626
0.00028767
0.00016077
2.0079e-05
0.0034921
8.8452e-08
4.026e-05
0.0034009
5.9909e-05
0.003272
7.853e-05
0.0030948
9.5963e-05
0.0028633
0.00011159
0.0025974
0.00012546
0.0022588
0.00013736
0.0019428
0.00014616
0.0015045
0.00015388
0.0011571
0.00015807
0.00069207
0.00028495
0.0001608
2.0079e-05
0.0034719
8.9682e-08
4.0263e-05
0.0033808
5.9914e-05
0.0032523
7.8538e-05
0.0030762
9.5974e-05
0.0028459
0.00011161
0.0025818
0.00012547
0.0022449
0.00013738
0.0019309
0.00014619
0.0014957
0.00015391
0.0011494
0.00015812
0.00068786
0.00028225
0.00016082
2.008e-05
0.0034517
9.0918e-08
4.0266e-05
0.0033606
5.992e-05
0.0032326
7.8547e-05
0.0030576
9.5986e-05
0.0028284
0.00011163
0.0025661
0.00012549
0.002231
0.00013741
0.001919
0.00014622
0.0014869
0.00015394
0.0011417
0.00015816
0.00068363
0.00027956
0.00016085
2.0081e-05
0.0034316
9.2159e-08
4.0269e-05
0.0033404
5.9926e-05
0.003213
7.8557e-05
0.003039
9.5998e-05
0.002811
0.00011165
0.0025505
0.0001255
0.0022172
0.00013744
0.0019071
0.00014626
0.0014781
0.00015396
0.001134
0.00015821
0.00067938
0.00027689
0.00016088
2.0082e-05
0.0034114
9.3404e-08
4.0272e-05
0.0033202
5.9932e-05
0.0031933
7.8566e-05
0.0030203
9.601e-05
0.0027936
0.00011167
0.0025348
0.00012552
0.0022033
0.00013746
0.0018951
0.00014629
0.0014693
0.00015399
0.0011263
0.00015825
0.00067512
0.00027425
0.0001609
2.0083e-05
0.0033912
9.4654e-08
4.0275e-05
0.0033
5.9938e-05
0.0031737
7.8576e-05
0.0030017
9.6022e-05
0.0027761
0.00011169
0.0025192
0.00012554
0.0021895
0.00013749
0.0018832
0.00014633
0.0014604
0.00015402
0.0011186
0.0001583
0.00067084
0.00027161
0.00016093
2.0084e-05
0.003371
9.5908e-08
4.0278e-05
0.0032798
5.9945e-05
0.003154
7.8585e-05
0.002983
9.6034e-05
0.0027587
0.00011171
0.0025035
0.00012555
0.0021756
0.00013751
0.0018712
0.00014636
0.0014516
0.00015405
0.0011109
0.00015834
0.00066655
0.000269
0.00016095
2.0085e-05
0.0033509
9.7166e-08
4.0282e-05
0.0032596
5.9951e-05
0.0031343
7.8596e-05
0.0029644
9.6047e-05
0.0027412
0.00011173
0.0024878
0.00012557
0.0021618
0.00013754
0.0018593
0.0001464
0.0014427
0.00015407
0.0011032
0.00015838
0.00066224
0.0002664
0.00016098
2.0086e-05
0.0033307
9.8427e-08
4.0285e-05
0.0032394
5.9958e-05
0.0031147
7.8606e-05
0.0029458
9.6059e-05
0.0027238
0.00011175
0.0024721
0.00012559
0.002148
0.00013756
0.0018473
0.00014643
0.0014338
0.0001541
0.0010956
0.00015842
0.00065792
0.00026382
0.000161
2.0087e-05
0.0033105
9.9691e-08
4.0289e-05
0.0032192
5.9964e-05
0.003095
7.8616e-05
0.0029271
9.6071e-05
0.0027063
0.00011177
0.0024564
0.0001256
0.0021341
0.00013759
0.0018353
0.00014647
0.0014249
0.00015413
0.0010879
0.00015847
0.00065358
0.00026126
0.00016103
2.0088e-05
0.0032903
1.0096e-07
4.0292e-05
0.003199
5.9971e-05
0.0030753
7.8627e-05
0.0029084
9.6084e-05
0.0026889
0.00011179
0.0024407
0.00012562
0.0021203
0.00013761
0.0018233
0.0001465
0.001416
0.00015416
0.0010803
0.00015851
0.00064924
0.00025871
0.00016106
2.009e-05
0.0032701
1.0222e-07
4.0296e-05
0.0031788
5.9978e-05
0.0030556
7.8637e-05
0.0028898
9.6096e-05
0.0026714
0.00011181
0.002425
0.00012563
0.0021065
0.00013763
0.0018113
0.00014654
0.0014071
0.00015419
0.0010726
0.00015855
0.00064488
0.00025618
0.00016108
2.0091e-05
0.0032499
1.0349e-07
4.03e-05
0.0031586
5.9985e-05
0.0030359
7.8648e-05
0.0028711
9.6109e-05
0.0026539
0.00011183
0.0024093
0.00012565
0.0020926
0.00013766
0.0017993
0.00014657
0.0013982
0.00015421
0.001065
0.00015859
0.0006405
0.00025366
0.00016111
2.0092e-05
0.0032297
1.0476e-07
4.0304e-05
0.0031384
5.9992e-05
0.0030162
7.8659e-05
0.0028525
9.6121e-05
0.0026365
0.00011184
0.0023936
0.00012567
0.0020788
0.00013768
0.0017873
0.00014661
0.0013893
0.00015424
0.0010573
0.00015863
0.00063612
0.00025115
0.00016113
2.0094e-05
0.0032095
1.0603e-07
4.0308e-05
0.0031182
5.9999e-05
0.0029966
7.867e-05
0.0028338
9.6133e-05
0.002619
0.00011186
0.0023779
0.00012568
0.002065
0.00013771
0.0017753
0.00014664
0.0013804
0.00015427
0.0010497
0.00015867
0.00063172
0.00024866
0.00016116
2.0095e-05
0.0031893
1.073e-07
4.0312e-05
0.003098
6.0006e-05
0.0029769
7.8681e-05
0.0028151
9.6146e-05
0.0026015
0.00011188
0.0023621
0.0001257
0.0020512
0.00013773
0.0017632
0.00014668
0.0013714
0.0001543
0.0010421
0.00015871
0.00062732
0.00024619
0.00016118
2.0096e-05
0.0031691
1.0857e-07
4.0316e-05
0.0030777
6.0013e-05
0.0029572
7.8692e-05
0.0027964
9.6158e-05
0.0025841
0.0001119
0.0023464
0.00012571
0.0020374
0.00013775
0.0017512
0.00014671
0.0013624
0.00015433
0.0010345
0.00015874
0.0006229
0.00024372
0.00016121
2.0098e-05
0.0031489
1.0984e-07
4.032e-05
0.0030575
6.0021e-05
0.0029375
7.8702e-05
0.0027778
9.617e-05
0.0025666
0.00011192
0.0023306
0.00012573
0.0020236
0.00013778
0.0017391
0.00014675
0.0013535
0.00015436
0.0010269
0.00015878
0.00061848
0.00024127
0.00016123
2.0099e-05
0.0031287
1.1111e-07
4.0325e-05
0.0030373
6.0028e-05
0.0029178
7.8713e-05
0.0027591
9.6182e-05
0.0025491
0.00011194
0.0023149
0.00012575
0.0020097
0.0001378
0.0017271
0.00014679
0.0013445
0.00015439
0.0010193
0.00015882
0.00061404
0.00023884
0.00016126
2.0101e-05
0.0031085
1.1238e-07
4.0329e-05
0.0030171
6.0035e-05
0.0028981
7.8724e-05
0.0027404
9.6194e-05
0.0025317
0.00011196
0.0022991
0.00012576
0.0019959
0.00013782
0.001715
0.00014682
0.0013355
0.00015442
0.0010117
0.00015886
0.0006096
0.00023641
0.00016128
2.0102e-05
0.0030883
1.1364e-07
4.0333e-05
0.0029968
6.0042e-05
0.0028783
7.8735e-05
0.0027217
9.6206e-05
0.0025142
0.00011197
0.0022833
0.00012578
0.0019821
0.00013785
0.001703
0.00014686
0.0013265
0.00015444
0.0010041
0.0001589
0.00060514
0.000234
0.00016131
2.0104e-05
0.003068
1.149e-07
4.0338e-05
0.0029766
6.005e-05
0.0028586
7.8746e-05
0.002703
9.6218e-05
0.0024967
0.00011199
0.0022676
0.0001258
0.0019683
0.00013787
0.0016909
0.00014689
0.0013174
0.00015447
0.0009965
0.00015894
0.00060068
0.0002316
0.00016134
2.0105e-05
0.0030478
1.1616e-07
4.0342e-05
0.0029564
6.0057e-05
0.0028389
7.8757e-05
0.0026843
9.6229e-05
0.0024793
0.00011201
0.0022518
0.00012582
0.0019545
0.00013789
0.0016788
0.00014693
0.0013084
0.0001545
0.00098892
0.00015897
0.00059621
0.00022921
0.00016136
2.0107e-05
0.0030276
1.1741e-07
4.0347e-05
0.0029361
6.0064e-05
0.0028192
7.8768e-05
0.0026656
9.6241e-05
0.0024618
0.00011203
0.002236
0.00012583
0.0019407
0.00013792
0.0016667
0.00014696
0.0012994
0.00015453
0.00098136
0.00015901
0.00059173
0.00022684
0.00016139
2.0109e-05
0.0030074
1.1866e-07
4.0351e-05
0.0029159
6.0072e-05
0.0027995
7.8779e-05
0.0026469
9.6253e-05
0.0024443
0.00011205
0.0022202
0.00012585
0.0019269
0.00013794
0.0016546
0.000147
0.0012903
0.00015456
0.00097379
0.00015905
0.00058725
0.00022447
0.00016141
2.011e-05
0.0029871
1.1991e-07
4.0356e-05
0.0028956
6.0079e-05
0.0027798
7.879e-05
0.0026282
9.6264e-05
0.0024268
0.00011207
0.0022044
0.00012587
0.0019131
0.00013796
0.0016426
0.00014704
0.0012812
0.00015459
0.00096623
0.00015909
0.00058276
0.00022211
0.00016144
2.0112e-05
0.0029669
1.2116e-07
4.036e-05
0.0028754
6.0086e-05
0.00276
7.88e-05
0.0026095
9.6276e-05
0.0024094
0.00011208
0.0021886
0.00012589
0.0018993
0.00013799
0.0016304
0.00014707