/*--------------------------------*- C++ -*----------------------------------*\
  =========                 |
  \\      /  F ield         | OpenFOAM: The Open Source CFD Toolbox
   \\    /   O peration     | Website:  https://openfoam.org
    \\  /    A nd           | Version:  6.0
     \\/     M anipulation  |
\*---------------------------------------------------------------------------*/
FoamFile
{
    version     2.0;
    format      ascii;
    class       volVectorField;
    location    "1.67";
    object      U;
}
// * * * * * * * * * * * * * * * * * * * * * * * * * * * * * * * * * * * * * //

dimensions      [0 1 -1 0 0 0 0];

internalField   nonuniform List<vector> 
13500
(
(1 1.4768e-06 -4.332e-18)
(1 -3.2231e-06 2.9307e-18)
(1 -6.2972e-06 -1.2609e-17)
(1 -8.806e-06 -8.7179e-18)
(1 -9.3363e-06 1.6447e-17)
(1 -6.5009e-06 3.0531e-17)
(1 -3.0929e-07 2.6352e-17)
(0.99998 1.5764e-05 -4.2263e-18)
(0.99991 4.5554e-05 1.5648e-17)
(0.9998 7.386e-05 3.3515e-18)
(0.99575 0.00074784 2.9013e-17)
(1.0192 0.010825 7.9318e-18)
(1 4.8038e-06 2.6838e-18)
(1 -9.5138e-06 -8.9003e-18)
(1 -1.7445e-05 6.0214e-18)
(1 -2.5257e-05 -3.438e-19)
(1 -2.5915e-05 -4.3858e-19)
(1 -1.7236e-05 -3.6712e-17)
(1 1.4845e-06 -4.5514e-17)
(0.99993 4.991e-05 -2.4182e-17)
(0.9997 0.00014552 -1.5617e-17)
(0.99982 0.00018637 -1.6573e-18)
(0.98632 0.0021543 -1.3739e-17)
(1.054 0.030576 -4.8025e-18)
(1 8.098e-06 -3.4664e-18)
(1 -1.5879e-05 1.7683e-17)
(1 -2.8699e-05 3.132e-18)
(1 -4.1982e-05 1.0052e-17)
(1 -4.2622e-05 -3.7925e-18)
(1 -2.8316e-05 2.9407e-17)
(1 3.3371e-06 -6.4072e-18)
(0.99989 8.4045e-05 5.493e-18)
(0.99948 0.00025184 -1.8946e-17)
(1.0003 0.00032144 2.5178e-17)
(0.9763 0.0031928 -7.1842e-18)
(1.0829 0.045043 1.688e-18)
(1 1.1309e-05 9.062e-18)
(1 -2.2325e-05 -1.7144e-17)
(1 -4.028e-05 -1.4846e-17)
(1 -5.9052e-05 -7.0522e-19)
(1 -5.9729e-05 5.8547e-18)
(1 -3.9853e-05 -8.1631e-19)
(1 4.9653e-06 6.3126e-17)
(0.99986 0.0001177 9.8962e-18)
(0.99923 0.00036297 2.2403e-17)
(1.0011 0.00048545 -9.1198e-18)
(0.96608 0.0038861 3.4986e-17)
(1.1045 0.055513 -7.6835e-18)
(1 1.4518e-05 -6.3674e-18)
(1 -2.8804e-05 1.4817e-17)
(1 -5.1909e-05 1.2638e-17)
(1 -7.6193e-05 1.2864e-17)
(1.0001 -7.6895e-05 2.8708e-18)
(1 -5.1447e-05 2.1613e-17)
(1 6.5785e-06 -2.819e-17)
(0.99983 0.00015092 2.0098e-18)
(0.99895 0.000477 -1.3737e-17)
(1.0024 0.00068202 -2.176e-18)
(0.95607 0.0042823 -9.0724e-18)
(1.1188 0.063125 2.129e-18)
(1 1.7734e-05 6.4439e-18)
(1 -3.5324e-05 -6.1425e-18)
(1 -6.3577e-05 3.8597e-18)
(1 -9.3414e-05 -2.5483e-17)
(1.0001 -9.4119e-05 -8.4054e-20)
(1.0001 -6.3113e-05 -4.2787e-17)
(1 8.1496e-06 1.0818e-18)
(0.99982 0.00018365 -1.6134e-17)
(0.99861 0.00059191 5.2309e-18)
(1.0039 0.00091914 -2.1927e-17)
(0.94663 0.0044219 -2.1847e-17)
(1.1265 0.068494 2.0605e-18)
(0.99999 2.0966e-05 -1.0667e-18)
(1 -4.1896e-05 -7.3465e-18)
(1 -7.5279e-05 -3.1368e-18)
(1.0001 -0.00011073 1.9234e-17)
(1.0001 -0.0001114 -2.6589e-17)
(1.0001 -7.4866e-05 1.6371e-17)
(1 9.6772e-06 1.8855e-17)
(0.99982 0.00021595 5.6763e-18)
(0.99823 0.00070567 1.1694e-17)
(1.0058 0.0012044 1.1804e-17)
(0.93804 0.0043415 9.4132e-18)
(1.1287 0.072049 3.3129e-18)
(0.99999 2.4218e-05 -2.2016e-18)
(1 -4.853e-05 -1.4452e-18)
(1 -8.7012e-05 -2.7022e-17)
(1.0001 -0.00012815 -9.1846e-18)
(1.0001 -0.00012875 7.4421e-18)
(1.0001 -8.6719e-05 2.6829e-17)
(1 1.1153e-05 1.2001e-17)
(0.99983 0.00024788 5.0671e-18)
(0.99779 0.00081616 -7.644e-18)
(1.0078 0.0015428 1.6535e-17)
(0.93052 0.0040767 7.603e-18)
(1.1262 0.074153 -1.0542e-17)
(0.99999 2.7496e-05 -6.8345e-18)
(1 -5.5232e-05 6.2132e-18)
(1 -9.8773e-05 4.5435e-17)
(1.0001 -0.00014569 -1.1016e-17)
(1.0001 -0.00014616 2.787e-17)
(1.0001 -9.8689e-05 -5.297e-17)
(1 1.2561e-05 -3.9979e-17)
(0.99985 0.00027957 9.8457e-18)
(0.9973 0.00092125 -5.7413e-18)
(1.01 0.0019368 -9.1193e-18)
(0.92423 0.0036616 -1.4047e-17)
(1.1202 0.075111 1.3797e-17)
(0.99999 3.0803e-05 4.5028e-18)
(1 -6.2008e-05 2.3387e-18)
(1 -0.00011056 -3.8486e-17)
(1.0001 -0.00016335 1.5678e-17)
(1.0001 -0.00016364 -1.2153e-17)
(1.0001 -0.00011079 2.2591e-17)
(1 1.3882e-05 1.4207e-17)
(0.99989 0.00031115 2.4886e-18)
(0.99675 0.0010188 5.4191e-19)
(1.0123 0.0023867 1.445e-18)
(0.91926 0.0031287 4.4695e-18)
(1.1114 0.075177 -7.1998e-19)
(0.99999 3.4143e-05 -2.4722e-18)
(1 -6.8864e-05 -7.67e-18)
(1 -0.00012238 9.4341e-18)
(1.0001 -0.00018114 -2.7663e-18)
(1.0001 -0.00018119 1.876e-18)
(1.0001 -0.00012305 -2.4758e-17)
(1.0001 1.5094e-05 -3.2723e-17)
(0.99995 0.00034283 -3.1611e-17)
(0.99616 0.0011067 1.6048e-17)
(1.0146 0.0028913 1.877e-18)
(0.91564 0.0025082 -1.1337e-17)
(1.1008 0.074558 -5.9517e-18)
(0.99998 3.7519e-05 3.4123e-18)
(1 -7.5803e-05 2.8971e-18)
(1 -0.00013422 4.5466e-18)
(1.0001 -0.00019908 -2.2045e-18)
(1.0001 -0.00019881 -5.6235e-18)
(1.0001 -0.00013547 9.364e-18)
(1.0001 1.617e-05 1.8942e-17)
(1 0.00037483 1.9528e-17)
(0.99552 0.0011831 1.0312e-17)
(1.0169 0.0034478 -2.37e-17)
(0.91335 0.0018282 1.1904e-19)
(1.0891 0.073424 -6.8977e-18)
(0.99998 4.0933e-05 -3.4117e-18)
(1 -8.283e-05 5.6971e-18)
(1 -0.00014608 8.2431e-18)
(1.0001 -0.00021716 5.7565e-18)
(1.0002 -0.00021652 -5.2158e-18)
(1.0002 -0.00014808 4.6034e-18)
(1.0001 1.708e-05 4.3194e-18)
(1.0001 0.0004074 -1.7439e-18)
(0.99483 0.0012461 -1.6667e-17)
(1.0191 0.0040523 2.1979e-17)
(0.91232 0.0011137 1.0612e-19)
(1.0768 0.071913 1.4735e-18)
(0.99998 4.4387e-05 5.1881e-18)
(1 -8.995e-05 -4.4471e-18)
(1 -0.00015797 7.2159e-19)
(1.0001 -0.0002354 -4.802e-18)
(1.0002 -0.0002343 1.1845e-17)
(1.0002 -0.0001609 5.6165e-18)
(1.0001 1.7787e-05 1.7381e-17)
(1.0002 0.00044084 -6.476e-18)
(0.99412 0.0012941 -2.0361e-19)
(1.0211 0.0047 5.3986e-18)
(0.91246 0.00038743 1.7206e-17)
(1.0644 0.070138 9.3979e-19)
(0.99997 4.7882e-05 1.2513e-18)
(0.99999 -9.7167e-05 9.8696e-18)
(1 -0.00016989 1.3784e-17)
(1.0001 -0.0002538 -4.7877e-18)
(1.0002 -0.00025216 8.5773e-18)
(1.0002 -0.00017395 -2.6219e-18)
(1.0001 1.8251e-05 -3.0441e-17)
(1.0003 0.00047545 2.0498e-17)
(0.99338 0.0013256 -1.8798e-17)
(1.023 0.0053853 -3.1138e-17)
(0.91367 -0.00033087 -3.7776e-18)
(1.0523 0.06819 8.7139e-19)
(0.99997 5.1422e-05 -3.1923e-18)
(0.99999 -0.00010448 -1.0496e-17)
(1 -0.00018183 -3.3084e-17)
(1.0001 -0.00027238 8.0664e-18)
(1.0002 -0.00027011 -1.3016e-17)
(1.0002 -0.00018725 8.4062e-18)
(1.0001 1.8425e-05 -2.8484e-18)
(1.0005 0.00051154 -1.2339e-17)
(0.99262 0.0013395 4.1267e-18)
(1.0248 0.0061025 1.8594e-17)
(0.9158 -0.0010243 -7.9265e-18)
(1.0409 0.066141 1.2146e-17)
(0.99997 5.5006e-05 3.3587e-19)
(0.99999 -0.00011191 7.8502e-18)
(1 -0.00019381 2.2841e-17)
(1.0001 -0.00029114 -1.8166e-18)
(1.0002 -0.00028815 -1.2931e-17)
(1.0002 -0.00020082 -1.5665e-17)
(1.0001 1.8259e-05 1.088e-17)
(1.0006 0.00054942 7.0759e-18)
(0.99186 0.0013346 2.3859e-17)
(1.0262 0.0068453 -2.6037e-18)
(0.91873 -0.0016787 1.9693e-18)
(1.0303 0.06405 -4.8454e-18)
(0.99996 5.8638e-05 -1.8844e-18)
(0.99999 -0.00011944 -9.5119e-18)
(1 -0.00020581 -1.0307e-17)
(1.0001 -0.0003101 6.0707e-18)
(1.0002 -0.00030627 -7.2623e-18)
(1.0002 -0.00021469 -1.2565e-17)
(1.0001 1.7701e-05 1.0577e-17)
(1.0008 0.00058942 -4.8005e-18)
(0.9911 0.0013104 -2.9528e-17)
(1.0275 0.0076076 -1.4593e-17)
(0.9223 -0.0022828 8.5459e-18)
(1.0207 0.061961 -5.2602e-18)
(0.99996 6.2317e-05 -2.6983e-18)
(0.99998 -0.00012708 -3.595e-18)
(1 -0.00021784 -7.638e-19)
(1.0001 -0.00032926 -2.6583e-17)
(1.0002 -0.00032449 6.0935e-18)
(1.0003 -0.00022886 5.4716e-18)
(1.0001 1.6693e-05 -2.0098e-17)
(1.001 0.00063181 -1.6388e-17)
(0.99035 0.0012663 4.3179e-18)
(1.0285 0.0083831 -1.0974e-18)
(0.92639 -0.0028278 -9.8686e-18)
(1.0121 0.059909 9.9458e-19)
(0.99995 6.6045e-05 3.5097e-18)
(0.99998 -0.00013483 1.648e-17)
(1 -0.00022989 1.9668e-17)
(1.0001 -0.00034863 2.5037e-18)
(1.0002 -0.0003428 1.6845e-17)
(1.0003 -0.00024337 9.588e-18)
(1.0001 1.5177e-05 2.9009e-18)
(1.0012 0.00067688 1.7936e-17)
(0.98963 0.0012024 2.1461e-17)
(1.0293 0.0091656 1.7426e-17)
(0.93086 -0.0033073 7.3637e-18)
(1.0046 0.057918 1.1812e-18)
(0.99995 6.9824e-05 -1.6728e-18)
(0.99998 -0.00014271 -3.9543e-18)
(1 -0.00024199 -2.0954e-17)
(1.0001 -0.00036822 -2.3701e-18)
(1.0003 -0.0003612 -1.2766e-17)
(1.0003 -0.00025825 -5.1873e-18)
(1.0001 1.3096e-05 -1.862e-18)
(1.0014 0.00072484 -1.6218e-17)
(0.98894 0.0011187 -2.0523e-17)
(1.0298 0.0099492 8.9324e-18)
(0.93558 -0.0037173 5.0447e-19)
(0.99813 0.056007 6.785e-19)
(0.99994 7.3655e-05 4.4341e-18)
(0.99997 -0.00015071 -5.1661e-18)
(1 -0.00025411 -1.9652e-17)
(1.0002 -0.00038804 4.5064e-17)
(1.0003 -0.0003797 1.8519e-17)
(1.0003 -0.0002735 -1.2693e-17)
(1.0001 1.0391e-05 2.5032e-17)
(1.0017 0.00077589 2.1917e-17)
(0.98828 0.0010157 3.3305e-17)
(1.03 0.010728 -3.274e-17)
(0.94045 -0.0040557 -1.3523e-17)
(0.99272 0.054188 1.7925e-19)
(0.99993 7.7538e-05 -3.2456e-18)
(0.99997 -0.00015884 -1.0367e-18)
(1 -0.00026626 3.3551e-17)
(1.0002 -0.0004081 -3.4065e-17)
(1.0003 -0.0003983 -1.7827e-18)
(1.0003 -0.00028916 4.2057e-17)
(1.0001 7.0071e-06 7.7575e-18)
(1.0019 0.00083018 -3.3858e-18)
(0.98767 0.0008943 -2.0656e-17)
(1.03 0.011497 3.8583e-17)
(0.94537 -0.0043221 -5.7272e-18)
(0.98829 0.052468 -2.8451e-19)
(0.99993 8.1474e-05 -1.6545e-18)
(0.99996 -0.00016709 -2.0656e-18)
(1 -0.00027846 1.747e-18)
(1.0002 -0.00042842 3.5439e-17)
(1.0003 -0.00041699 -1.0051e-17)
(1.0004 -0.00030526 -3.1085e-17)
(1.0001 2.8939e-06 -1.9779e-17)
(1.0022 0.00088777 -3.6454e-18)
(0.98711 0.00075548 6.5327e-18)
(1.0299 0.01225 -3.255e-17)
(0.95024 -0.0045177 9.5934e-18)
(0.98476 0.050851 3.0864e-18)
(0.99992 8.5466e-05 2.7342e-18)
(0.99996 -0.00017548 1.4377e-17)
(1 -0.00029068 -1.2885e-17)
(1.0002 -0.000449 -3.7108e-18)
(1.0003 -0.00043579 -1.9289e-17)
(1.0004 -0.00032182 3.3818e-17)
(1.0001 -1.9946e-06 -1.7363e-17)
(1.0025 0.00094871 1.5109e-17)
(0.98661 0.00060058 -2.0133e-18)
(1.0295 0.012983 3.0518e-17)
(0.955 -0.0046449 -9.3598e-18)
(0.98204 0.049336 -5.1502e-18)
(0.99992 8.9513e-05 -5.2441e-19)
(0.99995 -0.00018401 -8.2687e-18)
(1 -0.00030295 -1.8042e-17)
(1.0002 -0.00046985 -1.0168e-17)
(1.0003 -0.00045469 1.8709e-17)
(1.0004 -0.00033886 -4.3123e-17)
(1 -7.6972e-06 -2.6793e-18)
(1.0027 0.0010129 -2.0414e-17)
(0.98616 0.00043114 3.2534e-18)
(1.0289 0.013692 -8.8024e-18)
(0.95958 -0.0047072 9.9629e-18)
(0.98004 0.047921 2.1854e-18)
(0.99991 9.3617e-05 2.7471e-18)
(0.99995 -0.00019269 -8.857e-18)
(1 -0.00031525 -1.7822e-18)
(1.0002 -0.00049099 2.4705e-18)
(1.0003 -0.00047369 5.9214e-18)
(1.0004 -0.00035643 1.246e-17)
(1 -1.4245e-05 4.3926e-17)
(1.003 0.0010804 2.4394e-18)
(0.98578 0.00024888 5.3025e-18)
(1.0282 0.014371 9.7022e-18)
(0.96395 -0.0047089 -8.5195e-18)
(0.97867 0.046602 1.6796e-18)
(0.9999 9.7779e-05 -1.5752e-18)
(0.99994 -0.00020151 8.8488e-18)
(1 -0.00032759 2.5645e-17)
(1.0002 -0.00051243 -2.4892e-17)
(1.0003 -0.00049279 -9.2105e-18)
(1.0005 -0.00037455 -2.1923e-18)
(0.99999 -2.166e-05 -1.4479e-17)
(1.0033 0.0011508 1.8924e-18)
(0.98546 5.5689e-05 -9.1863e-18)
(1.0274 0.015019 -3.5658e-18)
(0.96806 -0.004655 -2.4048e-19)
(0.97783 0.045375 -2.052e-18)
(0.99989 0.000102 -1.693e-18)
(0.99994 -0.00021048 5.2965e-18)
(1 -0.00033998 -6.2031e-19)
(1.0002 -0.00053418 8.2541e-18)
(1.0004 -0.000512 -1.6995e-17)
(1.0005 -0.00039325 2.4807e-17)
(0.99996 -2.9954e-05 7.2217e-18)
(1.0036 0.0012241 -1.8053e-17)
(0.9852 -0.00014646 -1.1783e-17)
(1.0265 0.01563 -1.4118e-17)
(0.9719 -0.0045508 1.3506e-18)
(0.97746 0.044233 -3.7627e-18)
(0.99989 0.00010628 5.8832e-19)
(0.99993 -0.0002196 -1.2649e-17)
(1 -0.00035241 1.588e-17)
(1.0002 -0.00055625 2.2829e-17)
(1.0004 -0.0005313 3.331e-17)
(1.0005 -0.00041258 -1.8218e-17)
(0.99993 -3.913e-05 -1.7955e-17)
(1.0039 0.0012999 3.6639e-18)
(0.985 -0.00035555 1.104e-17)
(1.0255 0.016204 1.1051e-17)
(0.97545 -0.004402 6.2853e-18)
(0.97745 0.04317 3.7399e-18)
(0.99988 0.00011062 1.1275e-18)
(0.99992 -0.00022888 1.0058e-17)
(1 -0.00036488 -3.6484e-17)
(1.0002 -0.00057865 -3.3078e-18)
(1.0004 -0.0005507 -2.767e-17)
(1.0006 -0.00043257 -1.1475e-17)
(0.9999 -4.9182e-05 2.5222e-20)
(1.0041 0.0013779 -4.19e-18)
(0.98486 -0.00056954 -2.1759e-17)
(1.0244 0.016737 -1.7645e-17)
(0.97871 -0.0042143 -8.5837e-18)
(0.97776 0.042178 -1.8446e-18)
(0.99987 0.00011502 -7.3076e-19)
(0.99992 -0.00023833 -6.5414e-18)
(1 -0.0003774 2.8706e-17)
(1.0002 -0.00060141 -3.1561e-17)
(1.0004 -0.0005702 -2.081e-18)
(1.0006 -0.00045327 2.4436e-17)
(0.99987 -6.0093e-05 7.1839e-19)
(1.0044 0.0014578 3.9963e-18)
(0.98478 -0.00078645 1.9048e-17)
(1.0233 0.017228 2.2936e-17)
(0.98167 -0.0039934 4.9109e-18)
(0.9783 0.041252 -1.0312e-18)
(0.99986 0.00011948 -1.9023e-18)
(0.99991 -0.00024794 -2.4123e-18)
(1 -0.00038997 -1.2726e-17)
(1.0002 -0.00062452 1.5723e-17)
(1.0004 -0.00058979 3.041e-17)
(1.0006 -0.00047471 -1.08e-17)
(0.99983 -7.1838e-05 2.2362e-17)
(1.0047 0.0015391 2.9953e-18)
(0.98475 -0.0010044 -2.1588e-18)
(1.0222 0.017677 1.0376e-17)
(0.98435 -0.003745 -5.4875e-18)
(0.97903 0.040384 -7.1944e-19)
(0.99985 0.00012401 4.7577e-19)
(0.9999 -0.00025773 -6.3793e-18)
(1 -0.00040259 4.7636e-18)
(1.0002 -0.00064802 -1.6023e-17)
(1.0004 -0.00060947 -3.2165e-17)
(1.0007 -0.00049695 6.8055e-18)
(0.99979 -8.4386e-05 -3.2261e-17)
(1.005 0.0016214 -6.8472e-18)
(0.98477 -0.0012215 7.0019e-18)
(1.0211 0.018081 -3.2566e-17)
(0.98676 -0.0034745 3.7574e-18)
(0.97989 0.039569 2.0277e-18)
(0.99984 0.0001286 8.3547e-19)
(0.9999 -0.00026769 1.7283e-17)
(1 -0.00041526 7.9759e-18)
(1.0002 -0.0006719 6.5272e-18)
(1.0004 -0.00062923 2.572e-17)
(1.0007 -0.00052003 2.029e-18)
(0.99974 -9.77e-05 2.2277e-17)
(1.0053 0.0017043 4.9116e-18)
(0.98484 -0.0014363 -2.1286e-17)
(1.02 0.018442 1.1212e-17)
(0.98891 -0.0031869 2.5409e-18)
(0.98085 0.0388 2.1042e-18)
(0.99983 0.00013325 -2.9172e-18)
(0.99989 -0.00027783 -5.6891e-18)
(1 -0.00042799 -7.0077e-18)
(1.0002 -0.00069619 1.0719e-17)
(1.0004 -0.00064908 1.2425e-17)
(1.0008 -0.000544 -4.0409e-18)
(0.99969 -0.00011174 -1.8712e-17)
(1.0055 0.0017875 2.2361e-17)
(0.98495 -0.0016473 3.9398e-18)
(1.019 0.01876 -3.3869e-18)
(0.99083 -0.0028869 1.0511e-17)
(0.98187 0.038071 -1.4632e-18)
(0.99982 0.00013797 5.9943e-18)
(0.99988 -0.00028815 6.8129e-18)
(1 -0.00044077 -7.4489e-18)
(1.0002 -0.00072091 -6.677e-18)
(1.0004 -0.000669 -1.7829e-17)
(1.0008 -0.00056893 -6.9401e-18)
(0.99964 -0.00012647 9.226e-18)
(1.0058 0.0018703 -3.5866e-17)
(0.9851 -0.0018532 9.6499e-18)
(1.018 0.019034 -4.0036e-18)
(0.99254 -0.0025789 -1.113e-17)
(0.98293 0.037379 4.2522e-18)
(0.99981 0.00014276 -2.6456e-18)
(0.99987 -0.00029867 -1.197e-17)
(1 -0.00045361 -7.2191e-18)
(1.0002 -0.00074606 -1.267e-17)
(1.0004 -0.000689 -5.4436e-18)
(1.0009 -0.00059485 2.0406e-17)
(0.99959 -0.00014186 -9.0632e-18)
(1.0061 0.0019525 3.9899e-17)
(0.98528 -0.002053 9.1015e-18)
(1.0171 0.019267 1.2149e-17)
(0.99405 -0.0022667 4.6917e-18)
(0.98401 0.036719 -6.898e-18)
(0.9998 0.00014761 -1.4032e-18)
(0.99986 -0.00030938 8.9018e-18)
(1 -0.00046651 1.4303e-17)
(1.0002 -0.00077166 3.4161e-17)
(1.0005 -0.00070905 7.2158e-18)
(1.0009 -0.00062182 -1.3997e-17)
(0.99954 -0.00015786 4.3736e-18)
(1.0063 0.0020337 -4.2924e-17)
(0.98549 -0.002246 -1.1041e-17)
(1.0162 0.01946 -6.7549e-18)
(0.99539 -0.0019537 4.6036e-18)
(0.98508 0.036085 6.9398e-18)
(0.99979 0.00015252 1.0739e-18)
(0.99985 -0.00032029 2.1072e-18)
(0.99999 -0.00047947 -1.4047e-17)
(1.0002 -0.00079774 -5.6903e-18)
(1.0005 -0.00072917 9.1617e-18)
(1.001 -0.00064989 1.6752e-17)
(0.99948 -0.00017446 1.5209e-17)
(1.0066 0.0021134 4.2488e-18)
(0.98572 -0.0024315 1.2353e-17)
(1.0153 0.019614 -3.1299e-18)
(0.99657 -0.0016429 -8.2178e-18)
(0.98614 0.035476 -1.7891e-18)
(0.99977 0.0001575 -4.398e-20)
(0.99984 -0.0003314 2.4015e-18)
(0.99999 -0.00049249 3.1394e-18)
(1.0002 -0.00082431 -7.3869e-18)
(1.0005 -0.00074933 8.5139e-20)
(1.001 -0.00067912 -1.5189e-17)
(0.99942 -0.00019165 -1.0287e-17)
(1.0068 0.0021914 3.1433e-17)
(0.98598 -0.0026091 -1.867e-17)
(1.0146 0.019731 1.2154e-17)
(0.99762 -0.0013368 4.3406e-18)
(0.98718 0.034888 -5.06e-18)
(0.99976 0.00016255 -3.3261e-18)
(0.99983 -0.00034272 -1.1263e-17)
(0.99998 -0.00050559 8.0147e-18)
(1.0002 -0.00085138 -2.0174e-17)
(1.0005 -0.00076954 -2.3169e-17)
(1.0011 -0.00070955 -2.0982e-17)
(0.99936 -0.00020944 -2.0966e-17)
(1.0071 0.0022673 -3.2189e-18)
(0.98625 -0.0027787 1.6317e-17)
(1.0139 0.019814 -1.0425e-17)
(0.99856 -0.0010376 4.3176e-19)
(0.98819 0.034318 4.7676e-18)
(0.99975 0.00016767 6.4198e-18)
(0.99982 -0.00035425 1.1771e-17)
(0.99997 -0.00051875 -1.2925e-17)
(1.0003 -0.00087898 1.6563e-17)
(1.0005 -0.00078978 -2.7167e-18)
(1.0011 -0.00074123 1.3753e-17)
(0.99929 -0.00022784 2.5201e-17)
(1.0073 0.002341 -2.4383e-17)
(0.98655 -0.0029402 -8.2747e-18)
(1.0133 0.019864 1.1009e-17)
(0.9994 -0.00074679 3.7526e-18)
(0.98917 0.033764 -2.2565e-18)
(0.99974 0.00017285 -4.817e-18)
(0.99981 -0.000366 -3.4788e-18)
(0.99997 -0.00053198 -2.7023e-18)
(1.0003 -0.00090712 1.8951e-17)
(1.0005 -0.00081006 -5.8159e-18)
(1.0012 -0.0007742 -1.7428e-19)
(0.99922 -0.0002469 -4.9313e-18)
(1.0075 0.0024121 1.9531e-17)
(0.98685 -0.0030937 -7.8573e-18)
(1.0127 0.019885 -7.5595e-18)
(1.0002 -0.00046582 -1.1093e-17)
(0.99011 0.033224 2.6247e-18)
(0.99972 0.00017809 3.2743e-18)
(0.9998 -0.00037797 -4.4109e-18)
(0.99996 -0.00054528 6.1867e-18)
(1.0003 -0.00093583 -2.8755e-17)
(1.0005 -0.00083037 3.9403e-17)
(1.0012 -0.00080848 5.6979e-18)
(0.99916 -0.00026669 1.9456e-17)
(1.0078 0.0024805 -1.2086e-17)
(0.98717 -0.0032396 1.035e-19)
(1.0122 0.019877 5.6216e-18)
(1.0008 -0.00019565 -2.1594e-18)
(0.99101 0.032697 -9.8735e-19)
(0.99971 0.00018341 -9.367e-19)
(0.99979 -0.00039016 8.6217e-19)
(0.99995 -0.00055867 1.5074e-17)
(1.0003 -0.00096512 7.839e-18)
(1.0005 -0.0008507 -1.9699e-17)
(1.0013 -0.00084412 -1.116e-17)
(0.99909 -0.00028729 3.397e-18)
(1.008 0.002546 -5.8756e-18)
(0.9875 -0.0033781 1.3146e-17)
(1.0118 0.019844 -3.6903e-18)
(1.0015 6.3033e-05 1.0389e-17)
(0.99188 0.03218 -3.6075e-18)
(0.99969 0.00018878 -1.6304e-18)
(0.99978 -0.00040259 -8.311e-18)
(0.99994 -0.00057213 -4.4818e-18)
(1.0003 -0.00099501 3.1478e-17)
(1.0005 -0.00087106 -1.7549e-17)
(1.0014 -0.00088112 -9.4529e-19)
(0.99901 -0.00030882 -5.0804e-17)
(1.0082 0.0026085 5.7755e-18)
(0.98783 -0.0035096 -2.4585e-17)
(1.0114 0.019788 -7.9692e-18)
(1.0021 0.00030978 -1.0391e-17)
(0.99271 0.031674 2.1422e-18)
(0.99968 0.00019423 -7.0382e-19)
(0.99977 -0.00041525 5.149e-18)
(0.99994 -0.00058567 -1.8501e-18)
(1.0003 -0.0010255 -1.8329e-17)
(1.0005 -0.00089145 2.5219e-17)
(1.0014 -0.0009195 -2.3237e-18)
(0.99894 -0.00033143 2.6911e-17)
(1.0084 0.0026678 -3.5504e-18)
(0.98817 -0.0036347 1.1936e-17)
(1.0111 0.019711 9.967e-18)
(1.0026 0.00054439 8.5717e-18)
(0.99352 0.031177 -5.1873e-19)
(0.99966 0.00019973 3.9898e-18)
(0.99975 -0.00042815 -3.0806e-18)
(0.99993 -0.00059931 -6.4719e-18)
(1.0003 -0.0010567 2.0004e-17)
(1.0005 -0.00091187 1.8506e-18)
(1.0015 -0.00095927 2.8809e-17)
(0.99887 -0.00035528 4.6421e-18)
(1.0086 0.0027238 1.6963e-17)
(0.98852 -0.0037539 4.4782e-18)
(1.0108 0.019614 -3.2249e-18)
(1.0031 0.0007668 1.1158e-18)
(0.99429 0.030688 4.6922e-19)
(0.99965 0.0002053 1.1376e-18)
(0.99974 -0.0004413 1.2596e-18)
(0.99992 -0.00061303 -5.8683e-18)
(1.0003 -0.0010885 -3.9837e-17)
(1.0005 -0.00093233 5.6043e-18)
(1.0016 -0.0010004 2.4985e-18)
(0.9988 -0.00038055 -2.0129e-17)
(1.0088 0.0027765 2.3866e-19)
(0.98887 -0.0038676 1.3195e-17)
(1.0106 0.019501 -2.0733e-18)
(1.0036 0.00097713 -5.4318e-18)
(0.99503 0.030208 2.7687e-18)
(0.99963 0.00021093 -4.8714e-18)
(0.99973 -0.00045469 5.3386e-18)
(0.99991 -0.00062686 9.6753e-19)
(1.0003 -0.001121 2.2121e-17)
(1.0005 -0.00095286 -2.5566e-17)
(1.0017 -0.0010429 -1.1036e-17)
(0.99872 -0.00040748 2.0587e-17)
(1.009 0.0028258 -1.149e-17)
(0.98923 -0.0039764 -2.0859e-17)
(1.0104 0.019373 -1.0245e-17)
(1.0041 0.0011756 6.9188e-18)
(0.99574 0.029734 9.2423e-19)
(0.99962 0.00021662 -5.1545e-19)
(0.99971 -0.00046834 -5.3721e-18)
(0.9999 -0.00064078 1.0303e-17)
(1.0003 -0.0011542 9.8082e-18)
(1.0005 -0.00097346 3.1576e-17)
(1.0018 -0.0010867 4.2395e-18)
(0.99865 -0.00043628 1.8286e-17)
(1.0091 0.0028716 2.913e-17)
(0.98958 -0.0040808 -9.211e-19)
(1.0102 0.019231 1.8021e-17)
(1.0045 0.0013625 -7.3187e-19)
(0.99643 0.029268 -2.6951e-18)
(0.9996 0.00022237 4.9961e-18)
(0.9997 -0.00048224 -7.8211e-18)
(0.99988 -0.00065481 -1.5638e-17)
(1.0003 -0.0011881 -2.607e-18)
(1.0005 -0.00099417 -3.427e-17)
(1.0018 -0.0011318 -1.2614e-17)
(0.99858 -0.00046722 -6.3472e-18)
(1.0093 0.0029138 2.1776e-19)
(0.98994 -0.0041812 2.7145e-17)
(1.0101 0.019077 4.1528e-18)
(1.0049 0.0015382 -9.4991e-18)
(0.99709 0.028809 1.6177e-18)
(0.99958 0.00022818 -5.6011e-18)
(0.99969 -0.0004964 9.77e-18)
(0.99987 -0.00066895 8.1856e-18)
(1.0003 -0.0012227 -5.1949e-18)
(1.0005 -0.001015 2.7559e-17)
(1.0019 -0.0011781 1.5091e-17)
(0.99851 -0.00050057 -5.0173e-18)
(1.0095 0.0029524 -2.9355e-17)
(0.99031 -0.0042781 -9.2305e-19)
(1.0099 0.018913 -1.1867e-17)
(1.0054 0.0017031 1.1247e-17)
(0.99774 0.028356 -2.1186e-18)
(0.99956 0.00023403 3.3656e-18)
(0.99967 -0.00051083 -1.8695e-18)
(0.99986 -0.00068321 1.0838e-17)
(1.0003 -0.0012581 -2.1855e-17)
(1.0005 -0.001036 8.9982e-18)
(1.002 -0.0012256 -5.4212e-18)
(0.99844 -0.00053659 -1.081e-17)
(1.0096 0.0029873 -2.3562e-18)
(0.99067 -0.0043717 -3.2755e-17)
(1.0099 0.018739 7.8294e-18)
(1.0058 0.0018577 -1.03e-17)
(0.99836 0.027909 7.072e-19)
(0.99954 0.00023994 2.6609e-19)
(0.99966 -0.00052553 -5.881e-18)
(0.99985 -0.0006976 6.1544e-18)
(1.0003 -0.0012943 2.8765e-17)
(1.0005 -0.0010573 -2.1433e-17)
(1.0021 -0.0012743 1.7439e-17)
(0.99838 -0.00057559 -6.2506e-18)
(1.0098 0.0030184 5.4565e-18)
(0.99104 -0.0044626 3.8914e-17)
(1.0098 0.018558 -1.4535e-17)
(1.0062 0.0020023 1.5747e-17)
(0.99896 0.027468 2.0014e-18)
(0.99953 0.0002459 4.7758e-19)
(0.99964 -0.00054049 -1.217e-18)
(0.99984 -0.00071213 -8.8542e-18)
(1.0003 -0.0013312 -4.3305e-18)
(1.0005 -0.0010788 1.8678e-17)
(1.0022 -0.0013239 1.3869e-19)
(0.99832 -0.00061783 -1.2286e-17)
(1.0099 0.0030457 -1.3026e-17)
(0.9914 -0.0045508 -1.6289e-17)
(1.0097 0.01837 -1.3724e-18)
(1.0066 0.0021374 2.8856e-18)
(0.99955 0.027033 2.1042e-19)
(0.99951 0.0002519 -7.6856e-19)
(0.99962 -0.00055574 1.4484e-17)
(0.99982 -0.0007268 -5.9053e-18)
(1.0003 -0.0013689 -2.4472e-17)
(1.0005 -0.0011006 8.6104e-18)
(1.0023 -0.0013746 -4.4431e-17)
(0.99826 -0.00066361 6.1288e-18)
(1.0101 0.003069 8.2021e-18)
(0.99177 -0.0046367 7.5668e-19)
(1.0097 0.018176 1.4763e-17)
(1.0069 0.0022633 -9.6135e-19)
(1.0001 0.026605 -5.5941e-18)
(0.99949 0.00025794 -2.0291e-19)
(0.99961 -0.00057126 -2.8427e-19)
(0.99981 -0.00074164 7.9494e-18)
(1.0003 -0.0014075 1.5108e-17)
(1.0004 -0.0011229 -3.4214e-17)
(1.0024 -0.0014262 1.9193e-18)
(0.99821 -0.0007132 1.0977e-17)
(1.0102 0.0030884 1.2846e-17)
(0.99214 -0.0047204 -1.03e-17)
(1.0097 0.017976 -1.4374e-17)
(1.0073 0.0023806 -1.5627e-17)
(1.0007 0.026182 5.909e-18)
(0.99946 0.00026402 -1.3277e-18)
(0.99959 -0.00058707 4.0473e-19)
(0.99979 -0.00075664 -3.8329e-18)
(1.0003 -0.0014468 -1.0087e-17)
(1.0004 -0.0011456 1.8965e-17)
(1.0025 -0.0014786 2.3849e-17)
(0.99816 -0.00076686 3.2013e-18)
(1.0103 0.0031038 6.5091e-18)
(0.9925 -0.0048022 1.6428e-17)
(1.0097 0.017772 2.419e-18)
(1.0077 0.0024896 1.1557e-17)
(1.0012 0.025764 -3.587e-18)
(0.99944 0.00027014 2.4436e-18)
(0.99957 -0.00060316 7.462e-19)
(0.99978 -0.00077183 -5.4774e-18)
(1.0003 -0.001487 1.4902e-18)
(1.0004 -0.001169 -1.0283e-17)
(1.0026 -0.0015318 -5.7206e-18)
(0.99811 -0.00082482 -1.1833e-18)
(1.0105 0.0031151 -2.9392e-17)
(0.99287 -0.004882 3.2242e-18)
(1.0096 0.017565 -4.9056e-18)
(1.008 0.0025905 -4.7001e-18)
(1.0017 0.025352 -4.3253e-18)
(0.99942 0.00027628 -4.9869e-18)
(0.99956 -0.00061954 9.7489e-19)
(0.99976 -0.00078722 2.9054e-18)
(1.0004 -0.0015281 -1.8725e-17)
(1.0004 -0.001193 -1.1722e-17)
(1.0027 -0.0015857 -2.6557e-17)
(0.99807 -0.00088729 5.7099e-18)
(1.0106 0.0031222 1.2002e-17)
(0.99324 -0.0049599 -3.4577e-17)
(1.0097 0.017354 2.262e-17)
(1.0084 0.0026838 -5.0847e-18)
(1.0022 0.024946 2.789e-18)
(0.9994 0.00028244 4.5777e-18)
(0.99954 -0.00063621 2.1817e-18)
(0.99974 -0.00080283 1.1172e-18)
(1.0004 -0.0015699 5.9389e-18)
(1.0004 -0.0012178 -2.5888e-18)
(1.0028 -0.0016403 5.1473e-17)
(0.99804 -0.00095448 2.05e-17)
(1.0107 0.0031252 -1.8666e-17)
(0.9936 -0.0050362 3.3279e-17)
(1.0097 0.01714 -8.4394e-18)
(1.0087 0.0027697 -3.3545e-18)
(1.0027 0.024545 -1.3923e-18)
(0.99938 0.00028863 1.1228e-18)
(0.99952 -0.00065317 -1.3816e-17)
(0.99972 -0.00081868 2.236e-18)
(1.0004 -0.0016126 2.667e-17)
(1.0004 -0.0012435 2.0036e-17)
(1.0029 -0.0016955 -8.3108e-19)
(0.99801 -0.0010265 -2.8401e-17)
(1.0108 0.0031241 5.6526e-18)
(0.99397 -0.0051106 -7.5047e-18)
(1.0097 0.016924 -1.1682e-17)
(1.0091 0.0028485 8.5332e-18)
(1.0032 0.024149 1.2974e-18)
(0.99935 0.00029482 -4.4409e-18)
(0.9995 -0.00067043 -4.6056e-18)
(0.99971 -0.00083479 -1.2112e-17)
(1.0004 -0.0016562 -2.2367e-17)
(1.0003 -0.0012703 -2.016e-17)
(1.003 -0.0017512 -2.3391e-17)
(0.99798 -0.0011036 5.2444e-18)
(1.0109 0.0031187 4.394e-17)
(0.99433 -0.0051834 3.2705e-18)
(1.0097 0.016705 -1.0208e-18)
(1.0094 0.0029204 -3.0132e-18)
(1.0037 0.023758 -3.4885e-18)
(0.99933 0.00030102 3.2954e-18)
(0.99948 -0.00068799 4.2785e-18)
(0.99969 -0.00085119 1.8665e-17)
(1.0004 -0.0017006 1.5491e-17)
(1.0003 -0.0012982 1.9613e-17)
(1.0031 -0.0018075 -8.6944e-19)
(0.99796 -0.0011856 -2.922e-17)
(1.011 0.0031093 -2.375e-17)
(0.99469 -0.0052544 8.116e-18)
(1.0097 0.016485 4.0434e-18)
(1.0098 0.0029857 6.7962e-18)
(1.0042 0.023372 2.6954e-18)
(0.9993 0.00030721 -2.3272e-18)
(0.99946 -0.00070586 6.7116e-18)
(0.99967 -0.0008679 -1.2349e-17)
(1.0004 -0.0017459 2.242e-18)
(1.0003 -0.0013274 9.1183e-18)
(1.0032 -0.0018644 -2.2867e-18)
(0.99795 -0.0012728 6.5608e-18)
(1.0111 0.0030957 6.5947e-18)
(0.99505 -0.0053237 2.6708e-18)
(1.0097 0.016263 9.9969e-18)
(1.0101 0.0030445 -8.1742e-18)
(1.0046 0.022991 5.4429e-19)
(0.99928 0.0003134 3.5135e-18)
(0.99944 -0.00072403 4.1594e-19)
(0.99965 -0.00088495 -5.7804e-18)
(1.0004 -0.0017921 8.9231e-19)
(1.0003 -0.0013581 -1.4987e-18)
(1.0033 -0.0019218 -2.2588e-17)
(0.99795 -0.0013651 1.8317e-17)
(1.0112 0.003078 2.3405e-17)
(0.9954 -0.0053914 -1.3298e-17)
(1.0098 0.016039 -1.3911e-17)
(1.0104 0.003097 -2.3906e-18)
(1.0051 0.022615 4.6384e-18)
(0.99925 0.00031957 -2.5524e-18)
(0.99942 -0.0007425 -3.2035e-19)
(0.99962 -0.00090238 7.187e-18)
(1.0004 -0.0018391 -1.7141e-17)
(1.0002 -0.0013903 -1.3545e-17)
(1.0034 -0.0019797 2.8517e-17)
(0.99795 -0.0014625 -2.8012e-18)
(1.0112 0.0030563 -2.4782e-17)
(0.99575 -0.0054574 3.3876e-18)
(1.0098 0.015814 1.3099e-17)
(1.0107 0.0031433 8.1026e-18)
(1.0055 0.022244 -1.6726e-18)
(0.99922 0.00032572 2.5362e-19)
(0.99939 -0.00076129 2.3463e-18)
(0.9996 -0.00092022 3.9268e-18)
(1.0004 -0.001887 8.8613e-18)
(1.0002 -0.0014243 2.6548e-17)
(1.0035 -0.0020382 6.6488e-18)
(0.99796 -0.0015648 -2.439e-17)
(1.0113 0.0030307 2.322e-18)
(0.9961 -0.0055217 8.7261e-18)
(1.0098 0.015588 -1.1803e-17)
(1.011 0.0031837 -5.4794e-18)
(1.0059 0.021877 -1.9354e-18)
(0.9992 0.00033183 7.201e-19)
(0.99937 -0.0007804 -4.0817e-19)
(0.99958 -0.0009385 -1.0361e-17)
(1.0004 -0.0019357 -1.9054e-19)
(1.0002 -0.0014602 -5.2488e-17)
(1.0036 -0.0020973 8.1977e-18)
(0.99797 -0.001672 2.3959e-17)
(1.0114 0.0030013 -6.6718e-18)
(0.99645 -0.0055843 -9.138e-18)
(1.0099 0.015361 1.96e-17)
(1.0113 0.0032183 6.5582e-18)
(1.0063 0.021515 5.0171e-18)
(0.99917 0.0003379 7.735e-19)
(0.99935 -0.00079983 -8.4694e-19)
(0.99956 -0.00095728 1.8737e-17)
(1.0004 -0.0019854 4.087e-18)
(1.0002 -0.0014982 4.6512e-17)
(1.0037 -0.0021571 -2.8892e-17)
(0.99799 -0.0017839 -8.0229e-18)
(1.0115 0.0029682 6.2792e-18)
(0.9968 -0.0056453 3.1484e-18)
(1.0099 0.015132 -1.1029e-17)
(1.0116 0.0032471 -1.0611e-18)
(1.0068 0.021157 -3.6997e-18)
(0.99914 0.00034391 -3.0229e-18)
(0.99933 -0.00081958 1.4219e-18)
(0.99953 -0.00097659 -1.1013e-17)
(1.0004 -0.0020359 5.374e-18)
(1.0001 -0.0015383 -1.7673e-17)
(1.0038 -0.0022176 3.9181e-18)
(0.99801 -0.0019003 3.2123e-17)
(1.0115 0.0029315 -2.3501e-17)
(0.99714 -0.0057047 -1.1572e-17)
(1.0099 0.014903 -1.0911e-17)
(1.0119 0.0032703 -5.2165e-18)
(1.0072 0.020803 -1.0161e-18)
(0.99911 0.00034986 3.7654e-18)
(0.9993 -0.00083966 -3.377e-18)
(0.99951 -0.00099648 -1.0687e-17)
(1.0004 -0.0020874 -8.5695e-18)
(1.0001 -0.0015808 -2.8893e-17)
(1.0039 -0.0022789 -1.8172e-17)
(0.99804 -0.002021 -1.9697e-17)
(1.0116 0.0028913 2.1851e-17)
(0.99747 -0.0057626 1.1218e-17)
(1.01 0.014672 1.6524e-17)
(1.0122 0.003288 -2.0432e-18)
(1.0076 0.020453 4.9055e-18)
(0.99908 0.00035574 -6.0516e-18)
(0.99928 -0.00086008 5.4715e-18)
(0.99948 -0.001017 2.6167e-17)
(1.0005 -0.0021397 -2.0212e-18)
(1.0001 -0.0016257 3.1966e-17)
(1.004 -0.002341 1.3703e-18)
(0.99807 -0.0021457 -1.8864e-17)
(1.0117 0.0028478 8.5516e-18)
(0.99781 -0.005819 -4.0457e-18)
(1.01 0.014441 -3.46e-18)
(1.0124 0.0033003 6.6282e-18)
(1.0079 0.020107 -3.3173e-18)
(0.99905 0.00036153 4.9591e-18)
(0.99925 -0.00088085 -7.4359e-18)
(0.99945 -0.0010382 -3.0508e-17)
(1.0005 -0.0021929 1.3222e-17)
(1.0001 -0.0016733 -2.2773e-17)
(1.0041 -0.002404 2.512e-17)
(0.99811 -0.0022742 6.1488e-18)
(1.0117 0.0028011 -8.141e-18)
(0.99814 -0.005874 -1.9417e-18)
(1.0101 0.014208 -8.667e-18)
(1.0127 0.0033073 -1.0809e-17)
(1.0083 0.019765 4.5865e-18)
(0.99902 0.00036722 -3.6527e-18)
(0.99922 -0.00090196 2.4726e-18)
(0.99942 -0.0010601 1.8537e-17)
(1.0005 -0.0022471 -1.743e-17)
(1 -0.0017236 3.6641e-17)
(1.0042 -0.002468 -1.9497e-17)
(0.99816 -0.0024062 3.5844e-18)
(1.0118 0.0027513 -1.2866e-17)
(0.99847 -0.0059276 6.3376e-18)
(1.0101 0.013975 -1.2131e-18)
(1.013 0.003309 4.6259e-18)
(1.0087 0.019427 -2.0392e-18)
(0.99898 0.00037281 4.4799e-18)
(0.9992 -0.00092344 1.9249e-18)
(0.99939 -0.0010829 -1.2358e-17)
(1.0005 -0.0023022 -3.5433e-19)
(1 -0.0017767 -1.6183e-18)
(1.0043 -0.0025329 4.7152e-18)
(0.99821 -0.0025413 3.4033e-17)
(1.0118 0.0026985 8.8007e-18)
(0.99879 -0.0059799 -1.8784e-17)
(1.0102 0.01374 -6.2871e-18)
(1.0132 0.0033056 -4.3541e-18)
(1.0091 0.019092 2.1438e-18)
(0.99895 0.00037827 -5.1348e-18)
(0.99917 -0.00094529 -7.1332e-18)
(0.99936 -0.0011065 5.1848e-18)
(1.0005 -0.0023583 1.5081e-17)
(0.99998 -0.0018328 -3.3236e-17)
(1.0044 -0.002599 1.5842e-17)