/*--------------------------------*- C++ -*----------------------------------*\
  =========                 |
  \\      /  F ield         | OpenFOAM: The Open Source CFD Toolbox
   \\    /   O peration     | Website:  https://openfoam.org
    \\  /    A nd           | Version:  6.0
     \\/     M anipulation  |
\*---------------------------------------------------------------------------*/
FoamFile
{
    version     2.0;
    format      ascii;
    class       volVectorField;
    location    "3.47";
    object      U;
}
// * * * * * * * * * * * * * * * * * * * * * * * * * * * * * * * * * * * * * //

dimensions      [0 1 -1 0 0 0 0];

internalField   nonuniform List<vector> 
13500
(
(1 2.6032e-06 -4.2586e-18)
(1 -3.083e-06 2.8829e-18)
(1 -5.8446e-06 -1.2394e-17)
(1 -1.0276e-05 -8.5793e-18)
(1 -9.3049e-06 1.6115e-17)
(1 -9.2779e-06 3.0029e-17)
(1 -1.3598e-06 2.5671e-17)
(0.99998 1.4823e-05 -4.1456e-18)
(0.99992 3.6407e-05 1.5194e-17)
(0.9998 7.5289e-05 3.2383e-18)
(0.99571 0.00075728 2.8547e-17)
(1.019 0.010845 7.7066e-18)
(1 8.1407e-06 2.6383e-18)
(1 -8.2646e-06 -8.7551e-18)
(1 -1.5559e-05 5.9186e-18)
(1 -2.7973e-05 -3.3843e-19)
(1 -2.4082e-05 -4.2976e-19)
(1 -2.419e-05 -3.6108e-17)
(1 1.569e-06 -4.4338e-17)
(0.99993 4.7758e-05 -2.372e-17)
(0.99975 0.00012162 -1.5164e-17)
(0.99982 0.00018726 -1.6014e-18)
(0.98616 0.002193 -1.3519e-17)
(1.0534 0.03066 -4.6662e-18)
(1 1.3637e-05 -3.4077e-18)
(1 -1.3586e-05 1.7395e-17)
(1 -2.5362e-05 3.0785e-18)
(1 -4.6206e-05 9.8917e-18)
(1 -3.8905e-05 -3.716e-18)
(1 -4.0031e-05 2.8924e-17)
(1 4.9109e-06 -6.241e-18)
(0.99989 7.9572e-05 5.3881e-18)
(0.99956 0.0002149 -1.8396e-17)
(1.0003 0.00031507 2.4329e-17)
(0.97595 0.0032777 -7.0681e-18)
(1.0819 0.045219 1.6358e-18)
(1 1.906e-05 8.9084e-18)
(1 -1.916e-05 -1.6864e-17)
(1 -3.5573e-05 -1.4593e-17)
(1 -6.519e-05 -6.9406e-19)
(1 -5.4323e-05 5.7364e-18)
(1.0001 -5.6858e-05 -8.0261e-19)
(1 7.9476e-06 6.1493e-17)
(0.99986 0.00010999 9.7076e-18)
(0.99933 0.0003152 2.1753e-17)
(1.0013 0.00046282 -8.8124e-18)
(0.96548 0.0040379 3.4418e-17)
(1.1032 0.055794 -7.4456e-18)
(1 2.4483e-05 -6.2595e-18)
(1 -2.4764e-05 1.4575e-17)
(1 -4.5852e-05 1.2422e-17)
(1 -8.4257e-05 1.266e-17)
(1 -6.9837e-05 2.8127e-18)
(1.0001 -7.381e-05 2.1259e-17)
(1 1.1088e-05 -2.746e-17)
(0.99984 0.00013939 1.9718e-18)
(0.99905 0.00042143 -1.3338e-17)
(1.0026 0.00063255 -2.1027e-18)
(0.95513 0.0045236 -8.927e-18)
(1.1172 0.063516 2.0648e-18)
(0.99999 2.9903e-05 6.3347e-18)
(1 -3.0395e-05 -6.0424e-18)
(1 -5.6197e-05 3.7938e-18)
(1 -0.00010341 -2.5079e-17)
(1.0001 -8.5444e-05 -8.2405e-20)
(1.0001 -9.0908e-05 -4.2086e-17)
(1 1.4337e-05 1.0536e-18)
(0.99983 0.00016759 -1.5828e-17)
(0.99871 0.0005322 5.0792e-18)
(1.0043 0.00083084 -2.1186e-17)
(0.94527 0.0047771 -2.1489e-17)
(1.1246 0.068998 1.9952e-18)
(0.99999 3.532e-05 -1.0486e-18)
(1 -3.6058e-05 -7.2268e-18)
(1 -6.6608e-05 -3.0832e-18)
(1.0001 -0.00012266 1.893e-17)
(1.0001 -0.00010114 -2.6051e-17)
(1.0001 -0.00010819 1.6104e-17)
(1 1.774e-05 1.8366e-17)
(0.99983 0.00019449 5.5685e-18)
(0.99831 0.0006462 1.1355e-17)
(1.0064 0.0010641 1.1405e-17)
(0.93617 0.0048362 9.2574e-18)
(1.1264 0.072664 3.2018e-18)
(0.99999 4.0733e-05 -2.1643e-18)
(1 -4.1756e-05 -1.4217e-18)
(1 -7.7088e-05 -2.6561e-17)
(1.0001 -0.00014203 -9.0391e-18)
(1.0001 -0.00011692 7.2917e-18)
(1.0001 -0.00012568 2.6391e-17)
(1 2.1315e-05 1.169e-17)
(0.99984 0.00022001 4.9713e-18)
(0.99784 0.00076208 -7.4216e-18)
(1.0088 0.001336 1.5975e-17)
(0.92807 0.0047373 7.476e-18)
(1.1235 0.074876 -1.018e-17)
(0.99999 4.6141e-05 -6.7188e-18)
(1 -4.7488e-05 6.1121e-18)
(1 -8.7639e-05 4.4659e-17)
(1.0001 -0.0001615 -1.0842e-17)
(1.0001 -0.00013279 2.7306e-17)
(1.0001 -0.00014338 -5.2106e-17)
(1 2.5064e-05 -3.8941e-17)
(0.99988 0.0002441 9.6603e-18)
(0.99728 0.0008785 -5.574e-18)
(1.0114 0.001648 -8.8108e-18)
(0.92113 0.0045151 -1.3814e-17)
(1.117 0.075939 1.3317e-17)
(0.99999 5.1545e-05 4.4266e-18)
(1 -5.3257e-05 2.3006e-18)
(1 -9.8265e-05 -3.7829e-17)
(1.0001 -0.0001811 1.543e-17)
(1.0001 -0.00014877 -1.1908e-17)
(1.0001 -0.00016132 2.2223e-17)
(1 2.8987e-05 1.3838e-17)
(0.99993 0.00026673 2.4423e-18)
(0.99665 0.00099416 5.2643e-19)
(1.0141 0.0019996 1.3955e-18)
(0.91544 0.0042018 4.3945e-18)
(1.1077 0.076105 -6.9828e-19)
(0.99998 5.6944e-05 -2.4304e-18)
(1 -5.9064e-05 -7.5454e-18)
(1 -0.00010897 9.273e-18)
(1.0001 -0.00020081 -2.7227e-18)
(1.0001 -0.00016486 1.8381e-18)
(1.0002 -0.00017951 -2.4356e-17)
(1 3.3085e-05 -3.1872e-17)
(1 0.0002879 -3.1018e-17)
(0.99593 0.0011079 1.558e-17)
(1.017 0.0023889 1.8126e-18)
(0.91107 0.0038269 -1.1147e-17)
(1.0965 0.075582 -5.737e-18)
(0.99998 6.2338e-05 3.3546e-18)
(0.99999 -6.491e-05 2.85e-18)
(1 -0.00011976 4.469e-18)
(1.0001 -0.00022065 -2.1699e-18)
(1.0001 -0.00018106 -5.5099e-18)
(1.0002 -0.00019796 9.2118e-18)
(1.0001 3.7355e-05 1.845e-17)
(1.0001 0.00030764 1.9162e-17)
(0.99512 0.0012185 1.001e-17)
(1.0199 0.0028127 -2.2893e-17)
(0.908 0.0034165 1.169e-19)
(1.0841 0.074541 -6.6396e-18)
(0.99998 6.7725e-05 -3.3541e-18)
(0.99999 -7.0796e-05 5.6046e-18)
(1 -0.00013063 8.1027e-18)
(1.0001 -0.00024062 5.6657e-18)
(1.0001 -0.00019739 -5.1104e-18)
(1.0002 -0.0002167 4.5287e-18)
(1.0001 4.1793e-05 4.2071e-18)
(1.0002 0.000326 -1.7112e-18)
(0.99423 0.001325 -1.6179e-17)
(1.0228 0.0032669 2.1228e-17)
(0.90619 0.002994 1.04e-19)
(1.0711 0.073119 1.4226e-18)
(0.99997 7.3106e-05 5.1006e-18)
(0.99999 -7.6724e-05 -4.375e-18)
(1 -0.00014159 7.0938e-19)
(1.0001 -0.00026073 -4.7265e-18)
(1.0002 -0.00021385 1.1606e-17)
(1.0002 -0.00023573 5.5258e-18)
(1.0001 4.6393e-05 1.6928e-17)
(1.0004 0.00034305 -6.3557e-18)
(0.99326 0.0014265 -1.9769e-19)
(1.0257 0.0037466 5.2128e-18)
(0.9056 0.0025791 1.692e-17)
(1.058 0.07143 9.074e-19)
(0.99997 7.848e-05 1.2302e-18)
(0.99999 -8.2694e-05 9.7099e-18)
(1 -0.00015264 1.355e-17)
(1.0001 -0.00028097 -4.7127e-18)
(1.0002 -0.00023045 8.404e-18)
(1.0002 -0.00025508 -2.5796e-18)
(1.0001 5.1141e-05 -2.9647e-17)
(1.0005 0.0003589 2.0118e-17)
(0.99222 0.0015222 -1.8244e-17)
(1.0285 0.0042468 -3.0069e-17)
(0.90612 0.0021887 -3.7139e-18)
(1.0452 0.069567 8.4052e-19)
(0.99996 8.3846e-05 -3.1384e-18)
(0.99999 -8.8709e-05 -1.0327e-17)
(1 -0.00016378 -3.2522e-17)
(1.0001 -0.00030136 7.9397e-18)
(1.0002 -0.00024719 -1.2753e-17)
(1.0003 -0.00027477 8.2713e-18)
(1.0001 5.6024e-05 -2.7739e-18)
(1.0007 0.00037365 -1.2111e-17)
(0.99111 0.0016115 4.0065e-18)
(1.0311 0.004762 1.7955e-17)
(0.90764 0.0018362 -7.7956e-18)
(1.033 0.067603 1.1665e-17)
(0.99996 8.9205e-05 3.3024e-19)
(0.99998 -9.4769e-05 7.7234e-18)
(1 -0.00017503 2.2453e-17)
(1.0001 -0.0003219 -1.7883e-18)
(1.0002 -0.00026409 -1.267e-17)
(1.0003 -0.0002948 -1.5414e-17)
(1.0001 6.102e-05 1.0596e-17)
(1.001 0.00038746 6.9462e-18)
(0.98993 0.0016936 2.3153e-17)
(1.0337 0.005287 -2.5137e-18)
(0.91007 0.0015322 1.9373e-18)
(1.0216 0.065596 -4.6542e-18)
(0.99996 9.4555e-05 -1.8528e-18)
(0.99998 -0.00010088 -9.3585e-18)
(1 -0.00018638 -1.0132e-17)
(1.0001 -0.00034259 5.9758e-18)
(1.0002 -0.00028115 -7.1159e-18)
(1.0003 -0.00031519 -1.2364e-17)
(1.0001 6.6105e-05 1.03e-17)
(1.0013 0.00040047 -4.7121e-18)
(0.98869 0.001768 -2.8651e-17)
(1.036 0.0058167 -1.4086e-17)
(0.91328 0.0012842 8.409e-18)
(1.0112 0.063594 -5.0466e-18)
(0.99995 9.9897e-05 -2.653e-18)
(0.99997 -0.00010703 -3.5373e-18)
(1 -0.00019783 -7.5086e-19)
(1.0001 -0.00036344 -2.6169e-17)
(1.0002 -0.00029839 5.9704e-18)
(1.0003 -0.00033597 5.3836e-18)
(1 7.125e-05 -1.9573e-17)
(1.0016 0.00041286 -1.6089e-17)
(0.9874 0.0018344 4.1915e-18)
(1.0381 0.0063463 -1.0572e-18)
(0.91714 0.0010975 -9.7101e-18)
(1.002 0.06163 9.5455e-19)
(0.99994 0.00010523 3.4508e-18)
(0.99997 -0.00011324 1.6215e-17)
(1 -0.00020939 1.9335e-17)
(1.0002 -0.00038445 2.464e-18)
(1.0002 -0.0003158 1.6505e-17)
(1.0004 -0.00035714 9.435e-18)
(1 7.6417e-05 2.8253e-18)
(1.0019 0.00042482 1.761e-17)
(0.98608 0.0018923 2.0819e-17)
(1.0399 0.0068714 1.6819e-17)
(0.92155 0.00097479 7.2486e-18)
(0.99391 0.059732 1.1323e-18)
(0.99994 0.00011055 -1.6448e-18)
(0.99997 -0.0001195 -3.8907e-18)
(1 -0.00022107 -2.0599e-17)
(1.0002 -0.00040563 -2.3339e-18)
(1.0002 -0.0003334 -1.2509e-17)
(1.0004 -0.00037873 -5.1053e-18)
(0.99999 8.1567e-05 -1.813e-18)
(1.0023 0.00043656 -1.5925e-17)
(0.98472 0.0019414 -1.9905e-17)
(1.0416 0.007388 8.6193e-18)
(0.92639 0.00091687 4.9859e-19)
(0.98702 0.057918 6.4977e-19)
(0.99993 0.00011587 4.36e-18)
(0.99996 -0.00012581 -5.0832e-18)
(1 -0.00023287 -1.9321e-17)
(1.0002 -0.00042698 4.4364e-17)
(1.0002 -0.00035119 1.8147e-17)
(1.0004 -0.00040074 -1.2493e-17)
(0.99996 8.6651e-05 2.4376e-17)
(1.0027 0.00044829 2.1523e-17)
(0.98335 0.0019815 3.2297e-17)
(1.0429 0.0078924 -3.1589e-17)
(0.93156 0.00092283 -1.3315e-17)
(0.9813 0.056202 1.7121e-19)
(0.99993 0.00012117 -3.1914e-18)
(0.99996 -0.00013218 -1.0201e-18)
(1 -0.00024479 3.2986e-17)
(1.0002 -0.00044852 -3.3537e-17)
(1.0002 -0.00036919 -1.7467e-18)
(1.0004 -0.00042319 4.1393e-17)
(0.99992 9.1615e-05 7.5541e-18)
(1.0032 0.00046024 -3.3243e-18)
(0.98196 0.0020122 -2.0029e-17)
(1.044 0.0083815 3.7224e-17)
(0.93695 0.00099036 -5.6421e-18)
(0.9767 0.054592 -2.7231e-19)
(0.99992 0.00012646 -1.627e-18)
(0.99995 -0.0001386 -2.0327e-18)
(1 -0.00025683 1.7179e-18)
(1.0002 -0.00047023 3.4891e-17)
(1.0003 -0.00038741 -9.849e-18)
(1.0005 -0.00044609 -3.0596e-17)
(0.99987 9.6401e-05 -1.926e-17)
(1.0037 0.00047265 -3.5797e-18)
(0.98057 0.0020335 6.333e-18)
(1.0449 0.0088528 -3.1399e-17)
(0.94248 0.001116 9.4493e-18)
(0.97317 0.053093 2.9503e-18)
(0.99991 0.00013175 2.6887e-18)
(0.99995 -0.00014508 1.4148e-17)
(1 -0.000269 -1.2668e-17)
(1.0002 -0.00049213 -3.6529e-18)
(1.0003 -0.00040585 -1.8902e-17)
(1.0005 -0.00046947 3.3288e-17)
(0.99981 0.00010094 -1.6907e-17)
(1.0042 0.00048577 1.4843e-17)
(0.97919 0.0020451 -1.9518e-18)
(1.0454 0.0093038 2.9436e-17)
(0.94806 0.0012956 -9.2239e-18)
(0.97062 0.051704 -4.9229e-18)
(0.9999 0.00013702 -5.1568e-19)
(0.99994 -0.00015163 -8.1368e-18)
(1 -0.00028131 -1.774e-17)
(1.0002 -0.00051423 -1.0011e-17)
(1.0003 -0.00042453 1.8334e-17)
(1.0005 -0.00049331 -4.2449e-17)
(0.99975 0.00010516 -2.6087e-18)
(1.0048 0.00049985 -2.0053e-17)
(0.97783 0.002047 3.152e-18)
(1.0457 0.0097328 -8.4902e-18)
(0.95362 0.0015241 9.8179e-18)
(0.96896 0.050424 2.0878e-18)
(0.9999 0.00014227 2.7016e-18)
(0.99993 -0.00015823 -8.7163e-18)
(1 -0.00029376 -1.753e-18)
(1.0002 -0.00053653 2.4329e-18)
(1.0003 -0.00044345 5.8029e-18)
(1.0006 -0.00051765 1.2265e-17)
(0.99967 0.00010897 4.2772e-17)
(1.0054 0.00051514 2.3967e-18)
(0.97651 0.0020392 5.1355e-18)
(1.0457 0.010138 9.3561e-18)
(0.95911 0.0017963 -8.3992e-18)
(0.96811 0.04925 1.6027e-18)
(0.99989 0.00014752 -1.5491e-18)
(0.99993 -0.0001649 8.7083e-18)
(1 -0.00030635 2.5217e-17)
(1.0002 -0.00055903 -2.4511e-17)
(1.0003 -0.00046262 -9.0267e-18)
(1.0006 -0.00054248 -2.1588e-18)
(0.99958 0.0001123 -1.4098e-17)
(1.006 0.00053191 1.8595e-18)
(0.97522 0.0020214 -8.8989e-18)
(1.0455 0.010519 -3.4392e-18)
(0.96445 0.0021066 -2.3874e-19)
(0.96797 0.048177 -1.9587e-18)
(0.99988 0.00015275 -1.665e-18)
(0.99992 -0.00017163 5.2127e-18)
(1 -0.00031909 -6.0972e-19)
(1.0002 -0.00058174 8.1275e-18)
(1.0003 -0.00048206 -1.6656e-17)
(1.0007 -0.00056782 2.4423e-17)
(0.99948 0.00011504 7.0317e-18)
(1.0067 0.00055041 -1.7739e-17)
(0.97399 0.0019939 -1.1409e-17)
(1.045 0.010875 -1.3614e-17)
(0.96962 0.0024494 1.3305e-18)
(0.96844 0.047199 -3.5876e-18)
(0.99987 0.00015797 5.7863e-19)
(0.99991 -0.00017843 -1.2449e-17)
(1 -0.00033198 1.5616e-17)
(1.0002 -0.00060466 2.2481e-17)
(1.0003 -0.00050178 3.2646e-17)
(1.0007 -0.00059367 -1.7937e-17)
(0.99937 0.00011709 -1.7483e-17)
(1.0074 0.0005709 3.5996e-18)
(0.97281 0.0019565 1.069e-17)
(1.0443 0.011204 1.0656e-17)
(0.97456 0.002819 6.1982e-18)
(0.96943 0.046309 3.5657e-18)
(0.99986 0.00016318 1.109e-18)
(0.99991 -0.0001853 9.8998e-18)
(1 -0.00034503 -3.5879e-17)
(1.0002 -0.00062781 -3.2569e-18)
(1.0003 -0.00052179 -2.712e-17)
(1.0008 -0.00062003 -1.13e-17)
(0.99924 0.00011834 2.4616e-20)
(1.0081 0.00059364 -4.1182e-18)
(0.97171 0.0019093 -2.1058e-17)
(1.0434 0.011507 -1.7013e-17)
(0.97924 0.0032101 -8.4669e-18)
(0.97085 0.045499 -1.7564e-18)
(0.99985 0.00016837 -7.1873e-19)
(0.9999 -0.00019225 -6.4385e-18)
(1 -0.00035824 2.8231e-17)
(1.0002 -0.00065118 -3.1082e-17)
(1.0003 -0.0005421 -2.0403e-18)
(1.0008 -0.00064691 2.4062e-17)
(0.9991 0.00011867 6.9951e-19)
(1.0089 0.00061888 3.9267e-18)
(0.97068 0.0018525 1.8435e-17)
(1.0423 0.011783 2.2115e-17)
(0.98364 0.0036173 4.8435e-18)
(0.97262 0.044763 -9.8053e-19)
(0.99984 0.00017355 -1.8712e-18)
(0.99989 -0.00019926 -2.3746e-18)
(1 -0.00037162 -1.2515e-17)
(1.0002 -0.00067478 1.5484e-17)
(1.0003 -0.00056272 2.9808e-17)
(1.0009 -0.0006743 -1.0635e-17)
(0.99895 0.00011795 2.1773e-17)
(1.0096 0.00064685 2.9434e-18)
(0.96974 0.0017862 -2.0877e-18)
(1.041 0.012033 1.0004e-17)
(0.98774 0.0040357 -5.414e-18)
(0.97466 0.044093 -6.8273e-19)
(0.99983 0.00017871 4.6796e-19)
(0.99988 -0.00020635 -6.2798e-18)
(0.99999 -0.00038517 4.6854e-18)
(1.0002 -0.00069863 -1.5782e-17)
(1.0004 -0.00058368 -3.1529e-17)
(1.0009 -0.00070221 6.7025e-18)
(0.99879 0.00011605 -3.1411e-17)
(1.0104 0.0006778 -6.7305e-18)
(0.96889 0.0017105 6.7726e-18)
(1.0395 0.012257 -3.1401e-17)
(0.99153 0.0044605 3.7062e-18)
(0.9769 0.043483 1.9294e-18)
(0.99982 0.00018386 8.2185e-19)
(0.99987 -0.00021351 1.7014e-17)
(0.99999 -0.0003989 7.8455e-18)
(1.0002 -0.00072271 6.4284e-18)
(1.0004 -0.00060497 2.5212e-17)
(1.001 -0.00073063 1.9988e-18)
(0.99861 0.00011282 2.1689e-17)
(1.0112 0.00071194 4.8272e-18)
(0.96813 0.0016258 -2.0582e-17)
(1.0378 0.012454 1.0811e-17)
(0.99499 0.0048875 2.5065e-18)
(0.97927 0.042924 1.9997e-18)
(0.99981 0.00018899 -2.8699e-18)
(0.99986 -0.00022076 -5.6004e-18)
(0.99998 -0.00041281 -6.8924e-18)
(1.0002 -0.00074704 1.0558e-17)
(1.0004 -0.00062662 1.2181e-17)
(1.0011 -0.00075956 -3.9797e-18)
(0.99841 0.00010811 -1.8219e-17)
(1.0121 0.0007495 2.198e-17)
(0.96749 0.0015321 3.8123e-18)
(1.0361 0.012626 -3.2659e-18)
(0.99813 0.0053126 1.0369e-17)
(0.98171 0.04241 -1.3896e-18)
(0.9998 0.0001941 5.8972e-18)
(0.99985 -0.00022808 6.7072e-18)
(0.99997 -0.00042691 -7.3271e-18)
(1.0002 -0.00077163 -6.5774e-18)
(1.0004 -0.00064864 -1.7479e-17)
(1.0011 -0.00078898 -6.8363e-18)
(0.9982 0.00010177 8.9825e-18)
(1.0129 0.00079066 -3.5256e-17)
(0.96695 0.00143 9.3297e-18)
(1.0342 0.012774 -3.8607e-18)
(1.0009 0.0057321 -1.098e-17)
(0.98419 0.041935 4.0348e-18)
(0.99979 0.0001992 -2.6028e-18)
(0.99984 -0.00023549 -1.1785e-17)
(0.99997 -0.0004412 -7.1018e-18)
(1.0002 -0.00079648 -1.2482e-17)
(1.0004 -0.00067105 -5.3371e-18)
(1.0012 -0.00081888 2.0102e-17)
(0.99798 9.3624e-05 -8.8238e-18)
(1.0137 0.00083562 3.9221e-17)
(0.96653 0.0013197 8.796e-18)
(1.0322 0.012896 1.1715e-17)
(1.0034 0.0061429 4.6281e-18)
(0.98664 0.041493 -6.5423e-18)
(0.99977 0.00020428 -1.3807e-18)
(0.99983 -0.00024299 8.7644e-18)
(0.99996 -0.00045569 1.4071e-17)
(1.0003 -0.00082159 3.3654e-17)
(1.0004 -0.00069387 7.0744e-18)
(1.0013 -0.00084925 -1.3788e-17)
(0.99774 8.3492e-05 4.2582e-18)
(1.0146 0.00088454 -4.2196e-17)
(0.96622 0.0012016 -1.0668e-17)
(1.0302 0.012995 -6.514e-18)
(1.0056 0.0065419 4.5401e-18)
(0.98904 0.041078 6.5774e-18)
(0.99976 0.00020934 1.0566e-18)
(0.99982 -0.00025057 2.075e-18)
(0.99995 -0.00047039 -1.382e-17)
(1.0003 -0.00084697 -5.6056e-18)
(1.0004 -0.0007171 8.9832e-18)
(1.0014 -0.00088006 1.6506e-17)
(0.99749 7.1193e-05 1.4807e-17)
(1.0154 0.00093758 4.1764e-18)
(0.96604 0.0010763 1.1935e-17)
(1.028 0.013071 -3.0185e-18)
(1.0075 0.0069265 -8.1049e-18)
(0.99135 0.040686 -1.6964e-18)
(0.99975 0.00021438 -4.3271e-20)
(0.99981 -0.00025824 2.365e-18)
(0.99995 -0.00048529 3.0885e-18)
(1.0003 -0.00087263 -7.2778e-18)
(1.0004 -0.00074078 8.3946e-20)
(1.0015 -0.00091129 -1.4965e-17)
(0.99722 5.6532e-05 -1.0015e-17)
(1.0163 0.00099487 3.09e-17)
(0.96597 0.0009442 -1.8035e-17)
(1.0259 0.013124 1.1721e-17)
(1.0091 0.0072945 4.2802e-18)
(0.99356 0.040312 -4.7891e-18)
(0.99974 0.00021941 -3.2732e-18)
(0.9998 -0.000266 -1.1091e-17)
(0.99994 -0.00050041 7.8861e-18)
(1.0003 -0.00089858 -1.9878e-17)
(1.0004 -0.00076492 -2.2719e-17)
(1.0016 -0.00094293 -2.0676e-17)
(0.99694 3.9308e-05 -2.0411e-17)
(1.0171 0.0010565 -3.1644e-18)
(0.96603 0.00080592 1.5761e-17)
(1.0237 0.013156 -1.0055e-17)
(1.0104 0.0076439 4.2515e-19)
(0.99563 0.039951 4.5103e-18)
(0.99972 0.00022441 6.3177e-18)
(0.99979 -0.00027386 1.1592e-17)
(0.99993 -0.00051576 -1.2719e-17)
(1.0003 -0.00092481 1.632e-17)
(1.0004 -0.00078954 -2.6649e-18)
(1.0017 -0.00097492 1.3552e-17)
(0.99665 1.9313e-05 2.4534e-17)
(1.0179 0.0011226 -2.397e-17)
(0.9662 0.00066205 -7.9916e-18)
(1.0215 0.013167 1.0618e-17)
(1.0114 0.0079731 3.6985e-18)
(0.99756 0.039599 -2.1334e-18)
(0.99971 0.0002294 -4.7407e-18)
(0.99978 -0.00028182 -3.4256e-18)
(0.99992 -0.00053133 -2.6598e-18)
(1.0003 -0.00095133 1.8675e-17)
(1.0004 -0.00081466 -5.7048e-18)
(1.0018 -0.0010073 -1.7192e-19)
(0.99634 -3.6707e-06 -4.8008e-18)
(1.0187 0.0011933 1.92e-17)
(0.9665 0.00051325 -7.5875e-18)
(1.0194 0.013158 -7.291e-18)
(1.0122 0.0082807 -1.0934e-17)
(0.99933 0.039254 2.479e-18)
(0.99969 0.00023436 3.2227e-18)
(0.99976 -0.00028987 -4.344e-18)
(0.99991 -0.00054713 6.088e-18)
(1.0003 -0.00097816 -2.8337e-17)
(1.0004 -0.00084031 3.8645e-17)
(1.0019 -0.0010399 5.6157e-18)
(0.99602 -2.9866e-05 1.8941e-17)
(1.0195 0.0012685 -1.1881e-17)
(0.96691 0.00036022 1.0034e-19)
(1.0172 0.013129 5.422e-18)
(1.0128 0.0085655 -2.1263e-18)
(1.0009 0.038912 -9.3278e-19)
(0.99968 0.0002393 -9.2191e-19)
(0.99975 -0.00029803 8.4921e-19)
(0.99991 -0.00056318 1.4835e-17)
(1.0003 -0.0010053 7.7251e-18)
(1.0004 -0.00086651 -1.9321e-17)
(1.002 -0.0010727 -1.1e-17)
(0.99569 -5.9501e-05 3.3067e-18)
(1.0203 0.0013483 -5.7762e-18)
(0.96744 0.00020369 1.2695e-17)
(1.0151 0.013082 -3.5593e-18)
(1.0131 0.0088267 1.0235e-17)
(1.0024 0.038571 -3.4032e-18)
(0.99966 0.00024422 -1.6048e-18)
(0.99974 -0.00030628 -8.1862e-18)
(0.9999 -0.00057948 -4.4107e-18)
(1.0003 -0.0010327 3.1025e-17)
(1.0004 -0.00089328 -1.7215e-17)
(1.0021 -0.0011058 -9.324e-19)
(0.99535 -9.2813e-05 -4.9457e-17)
(1.021 0.0014327 5.6777e-18)
(0.96808 4.4433e-05 -2.374e-17)
(1.0131 0.013018 -7.6866e-18)
(1.0133 0.0090636 -1.0234e-17)
(1.0037 0.038228 2.0207e-18)
(0.99964 0.00024912 -6.9292e-19)
(0.99972 -0.00031465 5.0717e-18)
(0.99989 -0.00059602 -1.8207e-18)
(1.0003 -0.0010605 -1.8065e-17)
(1.0004 -0.00092066 2.4738e-17)
(1.0023 -0.001139 -2.2914e-18)
(0.995 -0.00013004 2.6197e-17)
(1.0217 0.0015217 -3.4906e-18)
(0.96883 -0.00011676 1.1526e-17)
(1.0112 0.012937 9.6136e-18)
(1.0134 0.0092758 8.4415e-18)
(1.0048 0.037882 -4.8844e-19)
(0.99963 0.000254 3.9278e-18)
(0.99971 -0.00032313 -3.0349e-18)
(0.99987 -0.00061283 -6.3708e-18)
(1.0003 -0.0010886 1.9719e-17)
(1.0004 -0.00094867 1.8159e-18)
(1.0024 -0.0011723 2.8402e-17)
(0.99464 -0.00017142 4.5188e-18)
(1.0224 0.0016152 1.6676e-17)
(0.96968 -0.00027906 4.324e-18)
(1.0093 0.012839 -3.1105e-18)
(1.0132 0.0094631 1.0981e-18)
(1.0058 0.03753 4.4219e-19)
(0.99961 0.00025885 1.1201e-18)
(0.99969 -0.00033171 1.2406e-18)
(0.99986 -0.00062991 -5.7775e-18)
(1.0003 -0.001117 -3.927e-17)
(1.0004 -0.00097735 5.499e-18)
(1.0026 -0.0012056 2.4646e-18)
(0.99428 -0.00021721 -1.9594e-17)
(1.023 0.0017131 2.3463e-19)
(0.97062 -0.00044166 1.2742e-17)
(1.0075 0.012727 -1.9998e-18)
(1.013 0.0096254 -5.346e-18)
(1.0066 0.037171 2.6057e-18)
(0.99959 0.00026368 -4.7963e-18)
(0.99968 -0.00034042 5.2595e-18)
(0.99985 -0.00064726 9.5202e-19)
(1.0003 -0.0011457 2.1808e-17)
(1.0003 -0.0010067 -2.5084e-17)
(1.0027 -0.0012389 -1.088e-17)
(0.99391 -0.00026765 2.004e-17)
(1.0236 0.0018153 -1.1296e-17)
(0.97166 -0.00060369 -2.0145e-17)
(1.0058 0.012602 -9.8817e-18)
(1.0126 0.0097629 6.8082e-18)
(1.0073 0.036804 8.6803e-19)
(0.99957 0.00026849 -5.0764e-19)
(0.99966 -0.00034924 -5.2929e-18)
(0.99984 -0.00066489 1.0144e-17)
(1.0003 -0.0011748 9.6708e-18)
(1.0003 -0.0010368 3.0983e-17)
(1.0029 -0.001272 4.1812e-18)
(0.99353 -0.00032298 1.7799e-17)
(1.0241 0.0019216 2.8639e-17)
(0.97278 -0.00076433 -8.9081e-19)
(1.0042 0.012463 1.7381e-17)
(1.0122 0.0098759 -7.2052e-19)
(1.0078 0.036428 -2.5348e-18)
(0.99956 0.00027327 4.9198e-18)
(0.99965 -0.00035818 -7.7067e-18)
(0.99983 -0.00068282 -1.5398e-17)
(1.0003 -0.0012042 -2.5692e-18)
(1.0003 -0.0010677 -3.3629e-17)
(1.003 -0.001305 -1.2439e-17)
(0.99316 -0.00038344 -6.1787e-18)
(1.0246 0.002032 2.148e-19)
(0.97397 -0.00092275 2.6218e-17)
(1.0028 0.012311 4.0051e-18)
(1.0117 0.0099647 -9.342e-18)
(1.0083 0.036043 1.5195e-18)
(0.99954 0.00027802 -5.5159e-18)
(0.99963 -0.00036724 9.6267e-18)
(0.99982 -0.00070104 8.0602e-18)
(1.0003 -0.001234 -5.1212e-18)
(1.0003 -0.0010993 2.7046e-17)
(1.0032 -0.0013377 1.4884e-17)
(0.99278 -0.00044928 -4.8841e-18)
(1.025 0.002146 -2.8862e-17)
(0.97524 -0.0010781 -8.9091e-19)
(1.0014 0.012149 -1.1445e-17)
(1.0111 0.01003 1.1059e-17)
(1.0086 0.035648 -1.9907e-18)
(0.99952 0.00028275 3.3146e-18)
(0.99961 -0.00037643 -1.8424e-18)
(0.9998 -0.00071956 1.0674e-17)
(1.0003 -0.0012641 -2.1551e-17)
(1.0003 -0.0011318 8.8327e-18)
(1.0034 -0.00137 -5.3461e-18)
(0.9924 -0.00052072 -1.0522e-17)
(1.0254 0.0022636 -2.3174e-18)
(0.97656 -0.0012296 -3.1643e-17)
(1.0002 0.011977 7.5506e-18)
(1.0105 0.010072 -1.0125e-17)
(1.0089 0.035242 6.6373e-19)
(0.9995 0.00028746 2.6215e-19)
(0.99959 -0.00038575 -5.7961e-18)
(0.99979 -0.0007384 6.0623e-18)
(1.0003 -0.0012945 2.8367e-17)
(1.0003 -0.0011652 -2.1036e-17)
(1.0036 -0.0014019 1.7203e-17)
(0.99202 -0.000598 -6.0838e-18)
(1.0257 0.0023844 5.3649e-18)
(0.97794 -0.0013766 3.7595e-17)
(0.99915 0.011796 -1.4017e-17)
(1.0099 0.010093 1.5475e-17)
(1.009 0.034825 1.8778e-18)
(0.99947 0.00029213 4.7051e-19)
(0.99958 -0.0003952 -1.2001e-18)
(0.99977 -0.00075756 -8.7206e-18)
(1.0003 -0.0013254 -4.2696e-18)
(1.0002 -0.0011995 1.8336e-17)
(1.0038 -0.0014332 1.3891e-19)
(0.99164 -0.0006813 -1.1958e-17)
(1.026 0.0025081 -1.281e-17)
(0.97936 -0.0015181 -1.5738e-17)
(0.99819 0.011608 -1.3231e-18)
(1.0093 0.010092 2.8324e-18)
(1.0091 0.034398 1.9607e-19)
(0.99945 0.00029678 -7.5698e-19)
(0.99956 -0.00040478 1.4276e-17)
(0.99976 -0.00077704 -5.8171e-18)
(1.0003 -0.0013565 -2.4136e-17)
(1.0002 -0.0012348 8.4548e-18)
(1.004 -0.0014639 -4.3832e-17)
(0.99127 -0.00077085 5.9652e-18)
(1.0263 0.0026343 8.0652e-18)
(0.98083 -0.0016537 7.31e-19)
(0.99736 0.011412 1.4235e-17)
(1.0087 0.010071 -9.4729e-19)
(1.0092 0.033961 -5.2454e-18)
(0.99943 0.0003014 -1.9984e-19)
(0.99954 -0.00041451 -2.7997e-19)
(0.99974 -0.00079686 7.8316e-18)
(1.0003 -0.0013881 1.4902e-17)
(1.0002 -0.0012711 -3.359e-17)
(1.0042 -0.0014938 1.8925e-18)
(0.99091 -0.00086681 1.0684e-17)
(1.0264 0.0027626 1.2634e-17)
(0.98231 -0.0017826 -9.9556e-18)
(0.99667 0.011211 -1.386e-17)
(1.0081 0.01003 -1.5348e-17)
(1.0092 0.033514 5.5381e-18)
(0.99941 0.000306 -1.308e-18)
(0.99952 -0.00042437 3.992e-19)
(0.99973 -0.00081703 -3.776e-18)
(1.0003 -0.00142 -9.9503e-18)
(1.0001 -0.0013084 1.8622e-17)
(1.0044 -0.001523 2.3531e-17)
(0.99055 -0.00096934 3.1157e-18)
(1.0265 0.0028926 6.4033e-18)
(0.98382 -0.0019043 1.5878e-17)
(0.99609 0.011005 2.3327e-18)
(1.0075 0.0099719 1.1346e-17)
(1.0091 0.033057 -3.3614e-18)
(0.99938 0.00031056 2.4077e-18)
(0.9995 -0.00043438 7.3591e-19)
(0.99971 -0.00083755 -5.3971e-18)
(1.0003 -0.0014523 1.4698e-18)
(1.0001 -0.0013469 -1.0097e-17)
(1.0046 -0.0015512 -5.6443e-18)
(0.99021 -0.0010786 -1.1516e-18)
(1.0266 0.0030239 -2.8915e-17)
(0.98535 -0.0020183 3.1174e-18)
(0.99564 0.010795 -4.729e-18)
(1.007 0.0098967 -4.6148e-18)
(1.009 0.03259 -4.0505e-18)
(0.99936 0.0003151 -4.9139e-18)
(0.99947 -0.00044454 9.6149e-19)
(0.99969 -0.00085844 2.8628e-18)
(1.0003 -0.001485 -1.8474e-17)
(1.0001 -0.0013865 -1.1512e-17)
(1.0048 -0.0015783 -2.6208e-17)
(0.98987 -0.0011947 5.557e-18)
(1.0266 0.0031559 1.1807e-17)
(0.98687 -0.0021241 -3.343e-17)
(0.99531 0.010583 2.1806e-17)
(1.0065 0.0098058 -4.9896e-18)
(1.0089 0.032116 2.6125e-18)
(0.99934 0.0003196 4.5109e-18)
(0.99945 -0.00045486 2.1515e-18)
(0.99968 -0.00087969 1.1011e-18)
(1.0003 -0.0015181 5.8583e-18)
(1 -0.0014274 -2.5436e-18)
(1.0051 -0.0016044 5.08e-17)
(0.98955 -0.0013177 1.9951e-17)
(1.0265 0.0032881 -1.837e-17)
(0.9884 -0.0022214 3.2176e-17)
(0.99509 0.01037 -8.1358e-18)
(1.006 0.0097006 -3.2903e-18)
(1.0088 0.031633 -1.3027e-18)
(0.99931 0.00032407 1.1067e-18)
(0.99943 -0.00046532 -1.3623e-17)
(0.99966 -0.00090133 2.204e-18)
(1.0003 -0.0015516 2.6315e-17)
(0.99999 -0.0014695 1.968e-17)
(1.0053 -0.0016292 -8.1837e-19)
(0.98924 -0.0014477 -2.764e-17)
(1.0264 0.00342 5.5593e-18)
(0.98991 -0.0023099 -7.2568e-18)
(0.99497 0.010156 -1.126e-17)
(1.0057 0.0095822 8.3705e-18)
(1.0088 0.031143 1.2149e-18)
(0.99929 0.00032852 -4.3769e-18)
(0.99941 -0.00047595 -4.5423e-18)
(0.99964 -0.00092335 -1.1939e-17)
(1.0003 -0.0015854 -2.2071e-17)
(0.99994 -0.001513 -1.9805e-17)
(1.0055 -0.0016528 -2.3087e-17)
(0.98895 -0.0015847 5.104e-18)
(1.0263 0.0035509 4.3249e-17)
(0.99141 -0.0023894 3.163e-18)
(0.99496 0.0099434 -9.8333e-19)
(1.0053 0.0094519 -2.9553e-18)
(1.0087 0.030647 -3.2628e-18)
(0.99926 0.00033293 3.2481e-18)
(0.99938 -0.00048674 4.2187e-18)
(0.99962 -0.00094578 1.84e-17)
(1.0003 -0.0016196 1.5287e-17)
(0.9999 -0.0015578 1.9268e-17)
(1.0058 -0.0016749 -8.5796e-19)
(0.98868 -0.0017287 -2.8437e-17)
(1.0261 0.0036802 -2.3379e-17)
(0.99288 -0.0024598 7.851e-18)
(0.99505 0.009732 3.8972e-18)
(1.005 0.009311 6.6622e-18)
(1.0086 0.030145 2.5218e-18)
(0.99923 0.0003373 -2.294e-18)
(0.99936 -0.00049769 6.6191e-18)
(0.9996 -0.00096861 -1.2175e-17)
(1.0003 -0.0016543 2.213e-18)
(0.99985 -0.0016041 8.9604e-18)
(1.006 -0.0016955 -2.2571e-18)
(0.98842 -0.0018796 6.385e-18)
(1.0258 0.0038073 6.4935e-18)
(0.99433 -0.002521 2.5847e-18)
(0.99522 0.0095232 9.6337e-18)
(1.0048 0.0091607 -8.0123e-18)
(1.0085 0.029638 5.0962e-19)
(0.9992 0.00034165 3.4639e-18)
(0.99933 -0.00050882 4.1028e-19)
(0.99958 -0.00099186 -5.6998e-18)
(1.0003 -0.0016893 8.8128e-19)
(0.99979 -0.0016519 -1.4711e-18)
(1.0063 -0.0017146 -2.2302e-17)
(0.98818 -0.0020375 1.7827e-17)
(1.0255 0.0039316 2.3052e-17)
(0.99574 -0.0025732 -1.2865e-17)
(0.99547 0.0093177 -1.3405e-17)
(1.0047 0.0090024 -2.342e-18)
(1.0085 0.029127 4.3362e-18)
(0.99918 0.00034596 -2.5163e-18)
(0.99931 -0.00052012 -3.1597e-19)
(0.99956 -0.0010155 7.0864e-18)
(1.0003 -0.0017247 -1.692e-17)
(0.99974 -0.0017013 -1.3311e-17)
(1.0065 -0.0017321 2.8156e-17)
(0.98797 -0.0022021 -2.7261e-18)
(1.0252 0.0040523 -2.4406e-17)
(0.99711 -0.0026164 3.2779e-18)
(0.9958 0.0091163 1.2621e-17)
(1.0046 0.008837 7.9384e-18)
(1.0084 0.028614 -1.5635e-18)
(0.99915 0.00035024 2.5008e-19)
(0.99928 -0.0005316 2.3147e-18)
(0.99953 -0.0010397 3.8725e-18)
(1.0003 -0.0017606 8.7471e-18)
(0.99968 -0.0017522 2.6095e-17)
(1.0068 -0.0017479 6.566e-18)
(0.98778 -0.0023733 -2.3737e-17)
(1.0248 0.0041687 2.2885e-18)
(0.99843 -0.0026509 8.4444e-18)
(0.9962 0.0089198 -1.1371e-17)
(1.0045 0.008666 -5.3673e-18)
(1.0084 0.028098 -1.8088e-18)
(0.99912 0.00035448 7.1013e-19)
(0.99926 -0.00054327 -4.025e-19)
(0.99951 -0.0010642 -1.0219e-17)
(1.0003 -0.0017968 -1.882e-19)
(0.99962 -0.0018049 -5.1595e-17)
(1.007 -0.001762 8.0966e-18)
(0.9876 -0.002551 2.3317e-17)
(1.0243 0.0042803 -6.5735e-18)
(0.99971 -0.0026769 -8.8426e-18)
(0.99665 0.0087287 1.8883e-17)
(1.0045 0.0084902 6.4215e-18)
(1.0085 0.02758 4.6876e-18)
(0.99909 0.00035869 7.6292e-19)
(0.99923 -0.00055512 -8.3548e-19)
(0.99949 -0.0010893 1.8482e-17)
(1.0004 -0.0018335 4.0352e-18)
(0.99955 -0.0018594 4.5725e-17)
(1.0073 -0.0017743 -2.8532e-17)
(0.98746 -0.0027348 -7.8084e-18)
(1.0239 0.0043863 6.1889e-18)
(1.0009 -0.0026949 3.0474e-18)
(0.99715 0.0085435 -1.0625e-17)
(1.0046 0.0083108 -1.0397e-18)
(1.0085 0.027062 -3.4565e-18)
(0.99905 0.00036287 -2.9813e-18)
(0.9992 -0.00056716 1.4031e-18)
(0.99946 -0.0011147 -1.0863e-17)
(1.0004 -0.0018705 5.3066e-18)
(0.99948 -0.0019156 -1.7375e-17)
(1.0075 -0.0017848 3.8694e-18)
(0.98734 -0.0029246 3.1265e-17)
(1.0234 0.004486 -2.3168e-17)
(1.0021 -0.0027053 -1.1201e-17)
(0.9977 0.0083648 -1.051e-17)
(1.0047 0.0081288 -5.1061e-18)
(1.0086 0.026545 -9.4926e-19)
(0.99902 0.00036701 3.714e-18)
(0.99917 -0.0005794 -3.3323e-18)
(0.99944 -0.0011407 -1.0544e-17)
(1.0004 -0.001908 -8.4617e-18)
(0.99941 -0.0019737 -2.8412e-17)
(1.0078 -0.0017936 -1.795e-17)
(0.98724 -0.00312 -1.917e-17)
(1.0228 0.0045787 2.1543e-17)
(1.0032 -0.0027086 1.0859e-17)
(0.99829 0.0081929 1.5916e-17)
(1.0049 0.0079451 -1.9985e-18)
(1.0087 0.026028 4.5817e-18)
(0.99899 0.00037111 -5.9695e-18)
(0.99914 -0.00059184 5.3997e-18)
(0.99941 -0.0011672 2.5818e-17)
(1.0004 -0.0019459 -1.9961e-18)
(0.99934 -0.0020337 3.1436e-17)
(1.008 -0.0018005 1.3522e-18)
(0.98716 -0.0033206 -1.8361e-17)
(1.0223 0.0046639 8.4351e-18)
(1.0043 -0.0027054 -3.9163e-18)
(0.9989 0.008028 -3.3328e-18)
(1.0051 0.0077604 6.484e-18)
(1.0089 0.025513 -3.0984e-18)
(0.99896 0.00037518 4.8921e-18)
(0.99911 -0.00060449 -7.3387e-18)
(0.99938 -0.0011941 -3.0104e-17)
(1.0004 -0.0019843 1.3059e-17)
(0.99926 -0.0020957 -2.2399e-17)
(1.0082 -0.0018056 2.4815e-17)
(0.98712 -0.0035262 5.9845e-18)
(1.0217 0.0047408 -8.0284e-18)
(1.0053 -0.0026964 -1.8799e-18)
(0.99954 0.0078703 -8.347e-18)
(1.0054 0.0075756 -1.0571e-17)
(1.009 0.025 4.2824e-18)
(0.99892 0.0003792 -3.6038e-18)
(0.99908 -0.00061735 2.4404e-18)
(0.99936 -0.0012216 1.8293e-17)
(1.0004 -0.002023 -1.7215e-17)
(0.99919 -0.0021598 3.6043e-17)
(1.0085 -0.001809 -1.9263e-17)
(0.9871 -0.0037362 3.4887e-18)
(1.0211 0.0048089 -1.2694e-17)
(1.0062 -0.0026823 6.1365e-18)
(1.0002 0.0077198 -1.168e-18)
(1.0057 0.0073913 4.5248e-18)
(1.0092 0.02449 -1.9042e-18)
(0.99889 0.0003832 4.4203e-18)
(0.99904 -0.00063043 1.9001e-18)
(0.99933 -0.0012496 -1.2197e-17)
(1.0004 -0.0020622 -3.5053e-19)
(0.9991 -0.0022259 -1.5897e-18)
(1.0087 -0.0018107 4.658e-18)
(0.9871 -0.0039503 3.3131e-17)
(1.0205 0.0048676 8.6839e-18)
(1.0071 -0.0026636 -1.819e-17)
(1.0009 0.0075766 -6.054e-18)
(1.006 0.0072082 -4.2552e-18)
(1.0094 0.023984 2.0011e-18)
(0.99885 0.00038715 -5.0669e-18)
(0.99901 -0.00064373 -7.0418e-18)
(0.9993 -0.0012782 5.117e-18)
(1.0004 -0.0021019 1.4898e-17)
(0.99902 -0.0022942 -3.2701e-17)
(1.0089 -0.0018107 1.5654e-17)