/*--------------------------------*- C++ -*----------------------------------*\
  =========                 |
  \\      /  F ield         | OpenFOAM: The Open Source CFD Toolbox
   \\    /   O peration     | Website:  https://openfoam.org
    \\  /    A nd           | Version:  6.0
     \\/     M anipulation  |
\*---------------------------------------------------------------------------*/
FoamFile
{
    version     2.0;
    format      ascii;
    class       volScalarField;
    location    "8";
    object      p;
}
// * * * * * * * * * * * * * * * * * * * * * * * * * * * * * * * * * * * * * //

dimensions      [0 2 -2 0 0 0 0];

internalField   nonuniform List<scalar> 
62000
(
0.0345531
0.0353055
0.0360445
0.0367694
0.0374865
0.0381937
0.0388981
0.0395987
0.0403032
0.0410116
0.0417329
0.0424684
0.0432277
0.0440125
0.0448339
0.0456943
0.0466053
0.0475696
0.048599
0.0496962
0.0508725
0.0521306
0.0534804
0.0549246
0.0564703
0.0581196
0.0598762
0.0617404
0.0637112
0.0657857
0.0679559
0.0702084
0.0725216
0.0748655
0.0772056
0.0794992
0.0816959
0.0837308
0.0855137
0.086927
0.087834
0.08809
0.0875584
0.0861408
0.0838188
0.0807067
0.0771164
0.073564
0.0707773
0.0694933
0.070218
0.073092
0.0773635
0.0819906
0.0852194
0.0856981
0.0827894
0.0765906
0.0707723
0.0666741
0.0354
0.0360635
0.0367242
0.0373816
0.0380434
0.0387068
0.0393779
0.0400553
0.0407441
0.0414436
0.0421601
0.0428942
0.0436531
0.0444387
0.0452602
0.046121
0.0470315
0.0479963
0.0490257
0.0501243
0.0513018
0.0525619
0.053913
0.0553579
0.0569022
0.0585477
0.0602971
0.0621497
0.0641042
0.0661566
0.0683022
0.0705287
0.0728154
0.0751301
0.0774354
0.0796979
0.0818768
0.0839136
0.0857221
0.087188
0.0881793
0.0885531
0.0881709
0.086926
0.0847849
0.0818398
0.0783803
0.0749112
0.0721818
0.0710052
0.0720164
0.0755562
0.0810599
0.0875853
0.0933163
0.096557
0.0963081
0.092108
0.0892298
0.0833062
0.0370847
0.0374646
0.0378794
0.0383223
0.0388007
0.0393101
0.0398549
0.0404314
0.0410434
0.0416875
0.0423677
0.0430818
0.0438338
0.0446229
0.0454546
0.0463304
0.0472575
0.0482392
0.0492837
0.0503958
0.051584
0.0528529
0.0542105
0.0556609
0.0572095
0.0588593
0.0606129
0.0624702
0.0644294
0.0664866
0.068637
0.0708709
0.0731683
0.0754934
0.0778105
0.0800875
0.0822865
0.0843505
0.0861913
0.0876932
0.0887208
0.0891228
0.0887456
0.0874562
0.0851815
0.0819568
0.0780018
0.0737473
0.0698848
0.0672255
0.0664625
0.0681158
0.0718933
0.0771117
0.0822153
0.0855273
0.0861292
0.0832795
0.0829148
0.0749707
0.0389991
0.0392228
0.0394971
0.0398127
0.040178
0.0405885
0.041049
0.0415558
0.042112
0.0427138
0.0433641
0.0440594
0.0448021
0.0455899
0.0464257
0.0473091
0.0482447
0.0492341
0.0502832
0.0513955
0.0525783
0.0538359
0.0551758
0.0566032
0.0581238
0.059742
0.0614616
0.0632839
0.0652077
0.0672296
0.0693449
0.071547
0.073818
0.0761276
0.0784409
0.0807278
0.0829496
0.0850504
0.0869443
0.0885195
0.0896434
0.0901622
0.0899133
0.0887427
0.0865412
0.0832864
0.0791198
0.0743787
0.0696648
0.0657398
0.06331
0.0630136
0.0647907
0.0682323
0.0721446
0.0750438
0.0762255
0.0748869
0.0767866
0.0700518
0.0402507
0.0404869
0.0407714
0.0410961
0.0414686
0.0418857
0.0423523
0.0428657
0.0434298
0.0440419
0.0447054
0.0454178
0.0461811
0.0469931
0.0478556
0.0487678
0.0497319
0.0507482
0.05182
0.0529494
0.054141
0.0553985
0.0567278
0.0581337
0.059622
0.0611981
0.0628666
0.0646305
0.0664895
0.0684413
0.0704824
0.0726101
0.0748135
0.0770676
0.0793472
0.081623
0.0838582
0.086002
0.0879772
0.0896846
0.0910039
0.0917908
0.091887
0.0911325
0.0893978
0.0866182
0.0828688
0.0783971
0.0737033
0.0694707
0.0663688
0.0650795
0.0656874
0.0679962
0.0711003
0.0737753
0.0755019
0.0755449
0.0791704
0.0752359
0.0412709
0.0415672
0.041904
0.0422751
0.0426884
0.0431415
0.0436403
0.0441829
0.0447739
0.0454115
0.0460997
0.046837
0.047626
0.0484654
0.0493571
0.0503004
0.0512972
0.0523468
0.0534513
0.0546112
0.0558292
0.0571067
0.0584476
0.0598553
0.0613337
0.0628879
0.064522
0.0662397
0.0680413
0.0699252
0.0718894
0.0739359
0.07606
0.0782494
0.0804838
0.0827411
0.0849893
0.087186
0.0892674
0.0911522
0.0927393
0.0939018
0.0944949
0.0943651
0.0933764
0.0914381
0.0885744
0.0849548
0.080981
0.0772408
0.0743376
0.0729333
0.0731694
0.0749834
0.0777027
0.080329
0.0824673
0.0834948
0.0882486
0.086768
0.0422461
0.0426095
0.0430072
0.0434332
0.043895
0.0443904
0.0449252
0.0454982
0.0461147
0.0467737
0.0474802
0.0482339
0.0490386
0.0498939
0.0508028
0.0517653
0.0527836
0.0538575
0.054988
0.0561757
0.0574212
0.0587249
0.0600886
0.0615138
0.0630022
0.0645576
0.0661826
0.0678802
0.0696504
0.0714913
0.073402
0.075388
0.0774529
0.0795905
0.0817925
0.0840416
0.086314
0.0885771
0.0907821
0.0928681
0.0947546
0.0963349
0.0974822
0.0980556
0.097922
0.0969763
0.0952059
0.092716
0.0898185
0.0870063
0.0847982
0.0838056
0.084178
0.085928
0.0885364
0.0911907
0.0935692
0.0951827
0.100584
0.10057
0.0433218
0.0437394
0.0441864
0.0446576
0.0451603
0.0456924
0.0462597
0.0468612
0.0475017
0.0481806
0.0489026
0.049668
0.0504808
0.0513419
0.0522547
0.0532206
0.0542427
0.0553219
0.0564599
0.0576577
0.0589161
0.0602349
0.061615
0.0630565
0.0645597
0.0661266
0.0677581
0.0694559
0.0712188
0.0730439
0.0749307
0.0768872
0.078921
0.0810363
0.0832286
0.0854894
0.087803
0.0901459
0.0924841
0.0947764
0.0969616
0.0989523
0.10064
0.101899
0.102604
0.102643
0.10198
0.100669
0.098948
0.0972204
0.0959237
0.0955985
0.0963692
0.0982799
0.100937
0.103658
0.106154
0.108086
0.113852
0.114458
0.0443139
0.0447871
0.045288
0.0458111
0.0463627
0.0469403
0.047549
0.0481873
0.04886
0.0495661
0.0503106
0.0510937
0.0519198
0.0527897
0.0537077
0.0546758
0.0556978
0.0567756
0.0579119
0.0591088
0.0603676
0.0616892
0.0630745
0.0645237
0.0660363
0.0676138
0.0692559
0.0709633
0.0727334
0.0745624
0.0764492
0.0784029
0.0804361
0.0825546
0.0847632
0.0870572
0.0894289
0.0918629
0.0943383
0.0968314
0.0992973
0.101665
0.103844
0.105722
0.107184
0.108118
0.108472
0.108263
0.107666
0.10701
0.106653
0.107068
0.108342
0.110531
0.11332
0.11613
0.118684
0.120807
0.1268
0.127504
0.0453899
0.0459062
0.0464479
0.0470104
0.0475996
0.0482134
0.0488565
0.0495276
0.0502304
0.0509639
0.0517321
0.0525351
0.0533766
0.0542578
0.0551825
0.0561533
0.0571742
0.0582482
0.0593785
0.0605686
0.0618207
0.0631367
0.0645184
0.0659669
0.0674819
0.069065
0.0707159
0.0724348
0.0742186
0.0760622
0.0779646
0.0799352
0.0819877
0.0841341
0.0863791
0.0887246
0.0911684
0.0937011
0.0963131
0.0989952
0.101716
0.104418
0.107024
0.109436
0.11155
0.113258
0.114496
0.115257
0.115668
0.115992
0.116525
0.117667
0.119464
0.121971
0.124944
0.127878
0.130491
0.132781
0.13897
0.13953
0.0464293
0.0469889
0.0475724
0.048175
0.0488023
0.0494523
0.050129
0.0508313
0.0515629
0.052323
0.0531155
0.0539403
0.0548011
0.0556986
0.0566364
0.057617
0.0586444
0.0597213
0.0608515
0.0620389
0.0632864
0.0645972
0.0659739
0.0674187
0.0689325
0.070518
0.0721752
0.0739049
0.075704
0.0775675
0.0794937
0.0814928
0.0835806
0.0857681
0.0880654
0.0904757
0.0930012
0.0956372
0.098383
0.101241
0.10419
0.107184
0.110157
0.113023
0.115688
0.118049
0.120038
0.121629
0.122912
0.124098
0.125425
0.127237
0.129537
0.132382
0.135569
0.138661
0.141366
0.143857
0.150254
0.150598
0.047498
0.0480914
0.0487068
0.0493404
0.0499975
0.0506767
0.051382
0.0521126
0.0528717
0.0536583
0.0544757
0.055324
0.0562057
0.0571224
0.0580764
0.0590706
0.0601084
0.061193
0.0623278
0.0635175
0.0647649
0.0660742
0.0674487
0.0688917
0.070405
0.0719927
0.0736558
0.0753962
0.0772115
0.0790971
0.0810518
0.0830861
0.085216
0.0874562
0.0898144
0.0922981
0.0949112
0.097652
0.100527
0.103548
0.106703
0.109951
0.113238
0.116488
0.119617
0.122526
0.125149
0.127444
0.129477
0.131412
0.133447
0.135868
0.138643
0.141824
0.145254
0.148549
0.151399
0.154151
0.160795
0.160947
0.0484184
0.0490512
0.0497064
0.0503798
0.0510762
0.0517938
0.0525362
0.0533022
0.0540951
0.054914
0.0557622
0.0566395
0.057549
0.0584912
0.059469
0.0604845
0.0615411
0.0626418
0.0637897
0.0649896
0.0662447
0.0675594
0.0689378
0.070384
0.071901
0.0734939
0.0751652
0.0769181
0.078751
0.0806606
0.0826462
0.0847193
0.0868976
0.0891936
0.091619
0.0941806
0.0968843
0.0997299
0.10273
0.105904
0.109246
0.112721
0.116282
0.119863
0.123388
0.126765
0.129927
0.132826
0.135504
0.138092
0.14075
0.143721
0.146943
0.150463
0.15416
0.157694
0.160744
0.163816
0.170738
0.170756
0.0493921
0.0500548
0.0507389
0.051441
0.0521659
0.0529123
0.0536835
0.0544789
0.0553009
0.0561488
0.0570251
0.05793
0.0588655
0.0598329
0.0608341
0.0618718
0.0629487
0.0640681
0.0652328
0.0664478
0.0677161
0.0690424
0.070431
0.0718868
0.0734131
0.0750165
0.0767003
0.0784691
0.0803228
0.0822588
0.084278
0.0863925
0.0886203
0.0909771
0.0934716
0.0961136
0.0989089
0.101858
0.104979
0.108298
0.111813
0.115494
0.1193
0.123172
0.127043
0.130827
0.134459
0.137884
0.141131
0.1443
0.147523
0.151004
0.15465
0.158512
0.162501
0.166317
0.169618
0.173064
0.180296
0.180247
0.0503131
0.0510081
0.0517239
0.0524571
0.053212
0.0539875
0.0547867
0.055609
0.0564574
0.0573313
0.0582335
0.0591642
0.0601257
0.0611189
0.0621459
0.063209
0.0643107
0.065454
0.0666413
0.0678775
0.0691656
0.0705102
0.0719159
0.073388
0.0749303
0.0765503
0.0782521
0.0800418
0.0819201
0.0838862
0.0859415
0.0880998
0.0903809
0.0927982
0.0953643
0.0980877
0.100975
0.104027
0.107267
0.110725
0.114404
0.118278
0.12231
0.126449
0.130632
0.134782
0.138836
0.142733
0.14649
0.150183
0.153923
0.157878
0.161937
0.166151
0.170452
0.174578
0.178171
0.182028
0.189587
0.18953
0.0512595
0.0519791
0.052718
0.0534738
0.054251
0.0550489
0.0558708
0.0567166
0.0575886
0.0584868
0.059413
0.0603682
0.0613538
0.0623716
0.0634227
0.0645102
0.065636
0.0668036
0.0680148
0.069275
0.0705864
0.0719539
0.0733822
0.0748764
0.0764409
0.0780836
0.0798095
0.0816254
0.0835334
0.0855335
0.0876288
0.0898338
0.0921688
0.0946506
0.0972887
0.100094
0.103074
0.106228
0.109584
0.113178
0.117016
0.121075
0.125322
0.12971
0.134185
0.138674
0.143117
0.147449
0.151679
0.155861
0.160091
0.164504
0.16897
0.173544
0.178182
0.182651
0.18657
0.190868
0.198765
0.198751
0.0520471
0.0527987
0.0535704
0.0543595
0.0551698
0.0560004
0.0568542
0.0577308
0.058633
0.0595604
0.0605157
0.0614993
0.0625136
0.0635595
0.0646392
0.0657548
0.0669091
0.0681047
0.0693439
0.0706317
0.0719706
0.0733655
0.074821
0.0763425
0.0779346
0.0796057
0.0813612
0.0832089
0.0851515
0.0871905
0.0893293
0.0915844
0.0939776
0.0965237
0.0992363
0.102125
0.105197
0.108455
0.111927
0.115657
0.119652
0.123893
0.128349
0.13298
0.137735
0.142548
0.14736
0.152104
0.15678
0.161427
0.166122
0.17098
0.175854
0.180801
0.185794
0.190624
0.194893
0.199645
0.207883
0.207946
0.0528803
0.0536555
0.0544502
0.0552622
0.0560955
0.0569497
0.0578277
0.0587293
0.0596567
0.06061
0.0615909
0.0626005
0.0636402
0.0647122
0.0658174
0.0669594
0.06814
0.0693629
0.0706297
0.0719461
0.0733143
0.074739
0.0762252
0.077778
0.0794023
0.0811067
0.0828971
0.0847818
0.0867642
0.0888465
0.0910337
0.0933424
0.0957954
0.0984106
0.101199
0.104173
0.107339
0.1107
0.114291
0.118156
0.122309
0.126731
0.131395
0.136264
0.141295
0.146423
0.151594
0.156737
0.161846
0.166943
0.172099
0.1774
0.182686
0.18802
0.193389
0.198603
0.203242
0.20846
0.21704
0.21721
0.0536441
0.0544465
0.0552678
0.0561061
0.056965
0.0578442
0.0587462
0.0596714
0.0606222
0.0615988
0.0626036
0.0636376
0.0647028
0.0658009
0.0669335
0.0681034
0.0693132
0.0705658
0.0718632
0.0732109
0.0746111
0.0760688
0.0775888
0.0791766
0.0808369
0.082579
0.0844087
0.0863351
0.0883619
0.0904924
0.0927317
0.0950984
0.0976161
0.100301
0.103169
0.10623
0.109492
0.11296
0.11667
0.120674
0.124988
0.129594
0.134468
0.139578
0.144885
0.150327
0.155852
0.161387
0.16692
0.172459
0.178067
0.183808
0.189514
0.195249
0.20101
0.206619
0.21164
0.217324
0.226242
0.226535
0.0544197
0.0552418
0.0560817
0.0569383
0.0578153
0.0587132
0.0596344
0.0605802
0.061552
0.0625508
0.0635779
0.0646354
0.0657241
0.0668472
0.0680047
0.0692013
0.0704382
0.0717197
0.073047
0.0744264
0.0758596
0.0773518
0.0789078
0.0805333
0.0822329
0.0840161
0.0858891
0.0878613
0.089937
0.0921198
0.0944161
0.0968445
0.0994294
0.10219
0.105139
0.108291
0.111651
0.115229
0.119063
0.123208
0.127686
0.132479
0.137567
0.142921
0.148505
0.154262
0.160141
0.166067
0.172022
0.178002
0.184066
0.190255
0.196391
0.202541
0.208714
0.214736
0.220149
0.226301
0.235555
0.235988
0.0550149
0.0558654
0.0567349
0.0576217
0.0585292
0.0594573
0.0604084
0.0613831
0.0623837
0.0634105
0.064466
0.0655515
0.0666691
0.0678206
0.069008
0.0702344
0.0715025
0.0728154
0.0741755
0.0755883
0.0770566
0.0785851
0.0801792
0.0818445
0.0835859
0.0854133
0.0873329
0.0893546
0.0914828
0.0937222
0.096079
0.0985734
0.101231
0.104069
0.107104
0.110349
0.113812
0.117503
0.121464
0.125756
0.130403
0.135388
0.140696
0.146299
0.152166
0.158243
0.164479
0.170796
0.177174
0.183594
0.190113
0.196753
0.20333
0.20991
0.216506
0.222947
0.22876
0.235375
0.244959
0.245539
0.0556443
0.0565155
0.0574051
0.0583122
0.0592403
0.06019
0.0611633
0.0621615
0.063186
0.0642378
0.0653183
0.0664295
0.0675725
0.0687508
0.0699646
0.071219
0.0725156
0.0738589
0.0752504
0.0766969
0.0782005
0.0797664
0.0814
0.083107
0.0848925
0.0867666
0.0887357
0.0908099
0.0929944
0.0952937
0.0977156
0.10028
0.103012
0.105934
0.109058
0.1124
0.11597
0.119778
0.123871
0.128314
0.133134
0.138318
0.14385
0.149708
0.155864
0.162265
0.168863
0.175576
0.18238
0.189245
0.196229
0.203331
0.21036
0.217385
0.224421
0.231297
0.237516
0.244594
0.254503
0.255244
0.0561921
0.0570878
0.0580019
0.0589333
0.0598852
0.0608583
0.0618545
0.0628752
0.0639223
0.0649969
0.066101
0.0672367
0.0684057
0.0696107
0.0708531
0.0721369
0.0734648
0.0748403
0.0762657
0.0777475
0.0792881
0.0808929
0.0825677
0.0843182
0.0861498
0.0880729
0.090094
0.0922238
0.0944674
0.0968304
0.0993201
0.101958
0.104771
0.107777
0.110995
0.114439
0.11812
0.122051
0.126281
0.13088
0.135879
0.141268
0.147031
0.153153
0.159604
0.166337
0.173301
0.180416
0.18765
0.194964
0.202413
0.209984
0.217478
0.224962
0.232449
0.239763
0.246392
0.253926
0.264158
0.265062
0.0567445
0.0576577
0.0585879
0.0595356
0.0605037
0.0614939
0.0625081
0.0635483
0.0646157
0.0657122
0.0668384
0.0679978
0.0691906
0.0704213
0.0716897
0.0730016
0.0743584
0.0757654
0.0772236
0.0787407
0.0803188
0.0819635
0.0836807
0.0854763
0.0873557
0.0893298
0.0914053
0.0935931
0.0958988
0.0983281
0.10089
0.103604
0.1065
0.109598
0.112913
0.116463
0.120259
0.124316
0.128688
0.133448
0.138633
0.144232
0.150234
0.156624
0.163377
0.170448
0.177787
0.185309
0.192981
0.20075
0.208677
0.21673
0.224701
0.23266
0.240614
0.24838
0.255424
0.263415
0.273964
0.275043
0.0571016
0.0580416
0.0590002
0.0599769
0.0609747
0.0619944
0.0630379
0.0641066
0.0652026
0.0663269
0.0674819
0.0686694
0.069892
0.071152
0.0724516
0.0737947
0.0751847
0.0766254
0.0781193
0.0796733
0.0812906
0.0829765
0.0847375
0.0865796
0.0885086
0.0905356
0.0926674
0.0949156
0.0972858
0.0997846
0.10242
0.105216
0.108199
0.111389
0.114806
0.118466
0.122381
0.126571
0.13109
0.136018
0.141393
0.14721
0.153457
0.160124
0.167188
0.174605
0.182325
0.190263
0.198378
0.20661
0.215013
0.223559
0.232023
0.240469
0.248899
0.25712
0.264582
0.273021
0.283885
0.28514
0.0574803
0.0584395
0.0594169
0.0604129
0.0614304
0.0624708
0.0635359
0.0646278
0.0657476
0.0668971
0.0680773
0.0692914
0.0705402
0.0718283
0.0731559
0.0745292
0.0759501
0.0774242
0.0789529
0.0805445
0.0822016
0.0839299
0.0857362
0.0876264
0.0896067
0.0916884
0.0938787
0.0961893
0.0986266
0.101197
0.10391
0.106789
0.109861
0.11315
0.116671
0.120444
0.124484
0.128811
0.133481
0.138582
0.144155
0.150194
0.156694
0.163645
0.171025
0.178797
0.186905
0.195268
0.203834
0.212539
0.221433
0.230484
0.239453
0.248402
0.257324
0.266011
0.273897
0.282786
0.293962
0.295405
0.0577573
0.0587399
0.0597409
0.0607604
0.0618013
0.062865
0.0639532
0.065068
0.0662111
0.0673844
0.0685897
0.0698297
0.0711066
0.0724236
0.0737824
0.0751879
0.0766435
0.0781532
0.0797198
0.0813511
0.0830501
0.0848225
0.0866758
0.0886159
0.0906491
0.0927874
0.095038
0.0974131
0.0999192
0.102564
0.105356
0.108321
0.111486
0.114874
0.118504
0.122395
0.126563
0.131031
0.135859
0.141138
0.146915
0.153184
0.159944
0.167187
0.174894
0.183028
0.191533
0.200329
0.209353
0.21854
0.227926
0.237496
0.246984
0.256448
0.26587
0.275026
0.283337
0.292669
0.304153
0.305786
0.0580193
0.0590181
0.0600343
0.0610695
0.0621264
0.0632075
0.0643142
0.0654497
0.0666146
0.0678117
0.0690414
0.0703079
0.0716115
0.0729577
0.0743461
0.0757838
0.0772726
0.0788184
0.0804227
0.0820946
0.0838364
0.0856545
0.0875562
0.0895476
0.0916354
0.0938319
0.0961445
0.0985857
0.101163
0.103883
0.106757
0.109809
0.113069
0.11656
0.120302
0.124313
0.128614
0.133228
0.138219
0.143681
0.149667
0.156173
0.1632
0.170741
0.178782
0.187287
0.196199
0.205438
0.21493
0.22461
0.234504
0.244602
0.254625
0.264621
0.274557
0.284193
0.292933
0.30271
0.314498
0.316334
0.0580618
0.0590873
0.0601325
0.0611977
0.0622859
0.0633984
0.0645369
0.0657035
0.0669001
0.0681283
0.0693904
0.0706889
0.0720266
0.0734063
0.0748306
0.0763041
0.0778311
0.0794156
0.0810608
0.0827749
0.0845615
0.0864264
0.0883779
0.090422
0.0925657
0.0948217
0.0971977
0.0997066
0.102356
0.105153
0.108111
0.111252
0.11461
0.118205
0.12206
0.126196
0.130632
0.135398
0.140556
0.146209
0.15241
0.15916
0.166461
0.17431
0.182694
0.191579
0.200907
0.210598
0.220569
0.230752
0.241155
0.2518
0.262369
0.272907
0.283364
0.293481
0.302652
0.312865
0.324956
0.326995
0.0581232
0.0591679
0.0602323
0.0613177
0.062427
0.063562
0.0647245
0.065917
0.0671405
0.0683974
0.0696885
0.0710176
0.0723858
0.0737982
0.0752553
0.0767639
0.078327
0.0799502
0.0816358
0.083393
0.0852251
0.0871381
0.0891407
0.0912388
0.0934398
0.0957567
0.0981974
0.100775
0.103498
0.106374
0.109416
0.112648
0.116103
0.119805
0.123777
0.12804
0.132617
0.137537
0.142869
0.148717
0.155139
0.162139
0.169721
0.177885
0.186621
0.195895
0.205649
0.215804
0.226264
0.236965
0.247898
0.259092
0.270224
0.281321
0.292312
0.30292
0.312525
0.323176
0.335566
0.337822
0.0580874
0.0591559
0.0602446
0.0613549
0.0624892
0.0636497
0.0648375
0.0660558
0.0673057
0.0685897
0.0699096
0.0712685
0.072669
0.0741146
0.0756076
0.077153
0.0787556
0.0804194
0.0821479
0.0839496
0.0858289
0.0877912
0.0898461
0.0919994
0.0942587
0.0966377
0.099144
0.101792
0.104589
0.107544
0.110671
0.113995
0.117551
0.12136
0.125451
0.129844
0.134565
0.139645
0.145154
0.151203
0.157853
0.16511
0.172981
0.18147
0.190566
0.200239
0.210431
0.22106
0.232021
0.243252
0.254718
0.266483
0.278187
0.289851
0.30138
0.312479
0.322518
0.333598
0.346283
0.348757
0.0580523
0.0591371
0.0602416
0.0613684
0.0625199
0.0636992
0.0649076
0.0661487
0.067423
0.0687338
0.0700812
0.07147
0.0729007
0.0743792
0.0759055
0.0774872
0.079127
0.0808311
0.0826015
0.0844484
0.086375
0.0883877
0.0904957
0.0927052
0.0950239
0.0974659
0.100039
0.102757
0.105629
0.108665
0.111878
0.115294
0.11895
0.122871
0.127081
0.131607
0.136475
0.141719
0.147411
0.153665
0.160549
0.16807
0.176237
0.185058
0.194524
0.204607
0.215245
0.226361
0.237837
0.249617
0.261635
0.273973
0.286264
0.29851
0.310588
0.322187
0.332662
0.344173
0.35715
0.359856
0.0578046
0.0589172
0.0600522
0.0612107
0.0623956
0.0636085
0.0648511
0.0661258
0.0674346
0.0687791
0.0701619
0.0715855
0.0730535
0.0745686
0.0761342
0.077755
0.0794368
0.081183
0.0829983
0.0848913
0.0868668
0.0889304
0.0910926
0.093359
0.0957378
0.0982435
0.100884
0.103673
0.106621
0.109737
0.113036
0.116547
0.120305
0.124336
0.12867
0.133331
0.138349
0.14376
0.149639
0.156105
0.163228
0.17102
0.179491
0.188653
0.198499
0.209003
0.220101
0.231716
0.24372
0.25606
0.268639
0.281571
0.294456
0.307288
0.319917
0.332013
0.342921
0.354853
0.368118
0.371055
0.0575998
0.0587324
0.0598874
0.061067
0.0622739
0.0635105
0.0647782
0.0660801
0.0674172
0.068792
0.0702053
0.0716615
0.073162
0.0747123
0.0763131
0.077972
0.0796929
0.0814814
0.0833405
0.0852806
0.0873056
0.0894215
0.0916389
0.0939634
0.0964033
0.0989734
0.101681
0.104543
0.107566
0.110763
0.11415
0.117755
0.121616
0.12576
0.130218
0.135016
0.140187
0.145769
0.151838
0.15852
0.165888
0.173957
0.182741
0.192253
0.202489
0.213423
0.224993
0.237119
0.249668
0.262587
0.275749
0.289273
0.302766
0.316198
0.329386
0.341985
0.353329
0.365682
0.379231
0.382416
0.0573019
0.0584578
0.0596368
0.0608411
0.0620732
0.0633357
0.0646298
0.0659588
0.0673241
0.0687282
0.0701731
0.0716622
0.0731986
0.0747857
0.0764267
0.0781266
0.0798915
0.081725
0.0836317
0.0856209
0.0876974
0.0898668
0.0921404
0.0945235
0.0970249
0.0996595
0.102435
0.105368
0.108468
0.111747
0.115221
0.118921
0.122886
0.127143
0.131726
0.136663
0.141989
0.147745
0.15401
0.160912
0.168532
0.176886
0.185991
0.195862
0.2065
0.217876
0.22993
0.242581
0.255688
0.269198
0.282954
0.297091
0.311199
0.32523
0.338976
0.352073
0.363847
0.37661
0.390439
0.393871
0.0569675
0.0581405
0.0593372
0.0605614
0.0618151
0.063102
0.0644226
0.0657811
0.0671775
0.0686153
0.0700945
0.0716204
0.0731935
0.0748202
0.0765006
0.078243
0.0800509
0.0819304
0.0838841
0.085923
0.0880511
0.0902743
0.092604
0.0950455
0.0976078
0.100306
0.103149
0.106154
0.109329
0.112688
0.11625
0.120044
0.124113
0.128486
0.133195
0.138274
0.143758
0.14969
0.156153
0.163281
0.171158
0.179804
0.189238
0.199479
0.210527
0.222358
0.234909
0.248098
0.26178
0.275897
0.290268
0.30502
0.319753
0.334396
0.348706
0.362305
0.37451
0.387683
0.401787
0.405481
0.0563754
0.0575878
0.0588303
0.0601029
0.0614071
0.0627432
0.0641126
0.0655172
0.0669598
0.0684413
0.0699652
0.0715333
0.073151
0.0748203
0.0765461
0.0783322
0.0801867
0.0821117
0.0841134
0.0862005
0.0883792
0.0906542
0.0930382
0.0955361
0.0981573
0.100918
0.103826
0.1069
0.110149
0.113588
0.117236
0.121125
0.125299
0.129786
0.134625
0.139846
0.145491
0.151604
0.158269
0.165628
0.173769
0.182716
0.192488
0.203109
0.214581
0.226877
0.239939
0.25368
0.267949
0.282688
0.297684
0.313071
0.328436
0.343686
0.358555
0.37265
0.385279
0.398848
0.413222
0.417177
0.0563519
0.0575638
0.058799
0.0600631
0.0613586
0.0626903
0.0640578
0.0654664
0.0669157
0.0684097
0.0699478
0.0715358
0.0731745
0.0748699
0.0766231
0.0784414
0.08033
0.0822933
0.0843353
0.0864661
0.0886906
0.0910138
0.0934486
0.0959996
0.0986766
0.101496
0.104467
0.107607
0.110928
0.114445
0.118178
0.12216
0.126438
0.131043
0.136012
0.14138
0.147188
0.153484
0.160356
0.167951
0.176364
0.185618
0.195738
0.206749
0.218655
0.23143
0.245015
0.259322
0.274194
0.28957
0.30521
0.321235
0.337241
0.35311
0.368543
0.383134
0.396186
0.410154
0.424791
0.429023
0.0558272
0.0570768
0.0583572
0.0596691
0.0610147
0.0623942
0.0638095
0.065262
0.066755
0.068289
0.0698679
0.071493
0.0731705
0.0749021
0.0766934
0.0785479
0.0804747
0.0824753
0.0845563
0.0867267
0.0889928
0.0913592
0.0938396
0.0964388
0.0991667
0.102041
0.10507
0.108274
0.111663
0.115255
0.119071
0.123148
0.127531
0.132252
0.137355
0.142871
0.148846
0.15533
0.162414
0.170252
0.178944
0.188515
0.198993
0.210406
0.222758
0.236026
0.250148
0.265034
0.280522
0.296546
0.31284
0.329523
0.346175
0.362658
0.378648
0.393728
0.407194
0.421545
0.436439
0.440944
0.0559791
0.0572297
0.0585022
0.0598027
0.0611346
0.062503
0.063908
0.0653552
0.0668445
0.06838
0.0699615
0.0715947
0.073281
0.0750263
0.076832
0.0787058
0.0806534
0.0826792
0.0847874
0.0869886
0.089288
0.0916907
0.0942104
0.0968519
0.0996255
0.102549
0.105633
0.108896
0.112351
0.116016
0.119915
0.124083
0.12857
0.133412
0.138648
0.144316
0.150461
0.157138
0.16444
0.172527
0.181505
0.191403
0.202248
0.214073
0.226884
0.240657
0.255329
0.270808
0.286926
0.303613
0.320578
0.337921
0.355231
0.372338
0.388888
0.404457
0.418335
0.43307
0.448216
0.453009
0.055585
0.0568797
0.0582034
0.0595558
0.0609404
0.0623566
0.0638073
0.0652938
0.0668202
0.0683871
0.069999
0.0716579
0.0733703
0.0751385
0.0769685
0.0788645
0.0808359
0.0828847
0.0850176
0.0872444
0.0895717
0.0920043
0.094557
0.0972348
0.100048
0.103017
0.10615
0.109469
0.112987
0.116723
0.120701
0.124961
0.129554
0.134514
0.139888
0.14571
0.152031
0.158906
0.166432
0.174776
0.184049
0.194283
0.205508
0.217758
0.231041
0.245333
0.260568
0.276654
0.293414
0.310775
0.328421
0.346442
0.364414
0.38214
0.399244
0.415291
0.42957
0.444674
0.460063
0.46514
0.0559292
0.0572249
0.0585379
0.0598738
0.0612372
0.0626331
0.064063
0.0655328
0.0670432
0.0685991
0.0702005
0.0718541
0.0735615
0.0753298
0.0771601
0.0790615
0.0810394
0.0830993
0.0852452
0.0874892
0.0898362
0.0922922
0.0948716
0.0975801
0.100429
0.103437
0.106616
0.109987
0.113565
0.117369
0.121427
0.125777
0.130474
0.135556
0.141069
0.147049
0.153549
0.160629
0.168385
0.176994
0.186571
0.197151
0.208766
0.221453
0.23522
0.250043
0.265857
0.282563
0.299979
0.318026
0.336366
0.35507
0.373714
0.39207
0.40973
0.426254
0.440933
0.456407
0.472034
0.477413
0.0557089
0.0570349
0.0583818
0.0597515
0.0611495
0.0625771
0.0640379
0.0655348
0.0670717
0.0686502
0.0702743
0.0719465
0.0736733
0.0754576
0.0773047
0.0792201
0.0812129
0.0832861
0.0854463
0.087705
0.0900686
0.0925434
0.0951449
0.0978792
0.100758
0.103803
0.107023
0.110443
0.114078
0.11795
0.122084
0.126525
0.131328
0.136531
0.142186
0.148328
0.155012
0.162302
0.170297
0.17918
0.189072
0.200009
0.212026
0.225163
0.239428
0.254798
0.271203
0.288543
0.306627
0.325372
0.344415
0.363818
0.383138
0.402119
0.420326
0.437316
0.452383
0.468212
0.48407
0.489748
0.0556594
0.0570124
0.0583844
0.0597767
0.0611955
0.0626422
0.0641201
0.0656325
0.0671824
0.0687724
0.0704045
0.0720845
0.0738154
0.0756043
0.0774535
0.0793727
0.0813684
0.0834473
0.0856136
0.0878816
0.0902565
0.0927458
0.0953652
0.0981215
0.101027
0.104104
0.107363
0.11083
0.11452
0.118457
0.122669
0.127199
0.132108
0.137435
0.143233
0.14954
0.156414
0.163921
0.172163
0.181328
0.191544
0.202849
0.21528
0.228878
0.243656
0.259585
0.276597
0.294584
0.313348
0.332803
0.352562
0.372667
0.392675
0.41229
0.431049
0.448502
0.463955
0.480142
0.496227
0.502223
0.0555757
0.0569493
0.0583403
0.0597508
0.0611854
0.0626459
0.0641354
0.0656579
0.067217
0.0688151
0.0704557
0.0721427
0.0738822
0.0756782
0.0775359
0.0794618
0.0814653
0.0835508
0.0857246
0.0880005
0.0903851
0.0928862
0.0955206
0.0982959
0.101225
0.104332
0.107627
0.111139
0.114883
0.118884
0.123171
0.127793
0.132809
0.13826
0.144205
0.150681
0.15775
0.165481
0.173979
0.183437
0.193988
0.205673
0.218531
0.232606
0.24791
0.264414
0.282046
0.300696
0.320152
0.340326
0.36081
0.381634
0.402333
0.422576
0.441876
0.459781
0.475606
0.492137
0.508444
0.514758
0.0555819
0.0569669
0.0583675
0.0597858
0.0612276
0.062695
0.0641906
0.0657187
0.0672813
0.0688824
0.0705226
0.0722095
0.0739452
0.0757384
0.0775906
0.0795134
0.081513
0.0835977
0.0857714
0.0880506
0.0904406
0.0929505
0.0955972
0.0983893
0.10134
0.104475
0.107805
0.11136
0.115156
0.119221
0.123586
0.128298
0.133422
0.139002
0.145097
0.151747
0.159016
0.166978
0.175739
0.185501
0.196396
0.208473
0.22177
0.236335
0.252178
0.269273
0.28754
0.306865
0.327025
0.347932
0.369152
0.390698
0.412099
0.432981
0.452824
0.471178
0.487375
0.504253
0.520782
0.527434
0.055476
0.0568705
0.0582785
0.0597033
0.0611494
0.0626196
0.0641168
0.0656456
0.0672095
0.0688112
0.070454
0.0721421
0.0738815
0.0756771
0.0775335
0.0794586
0.0814618
0.0835488
0.0857257
0.0880086
0.090404
0.0929218
0.0955796
0.098387
0.101358
0.104519
0.107884
0.111481
0.115331
0.11946
0.123902
0.128708
0.133943
0.139652
0.145902
0.152731
0.160207
0.168408
0.177443
0.187517
0.19877
0.211251
0.225002
0.24007
0.25647
0.27417
0.293087
0.313102
0.33398
0.355626
0.377592
0.399878
0.421983
0.443496
0.463871
0.482661
0.499216
0.516428
0.533179
0.540167
0.0553875
0.0567888
0.0582014
0.0596283
0.0610755
0.0625458
0.0640419
0.065569
0.0671291
0.0687265
0.0703618
0.0720433
0.0737729
0.0755603
0.0774065
0.0793243
0.0813198
0.0834027
0.0855765
0.08786
0.0902584
0.0927827
0.0954508
0.0982732
0.101264
0.104453
0.107852
0.111493
0.115396
0.11959
0.124113
0.129014
0.134362
0.140208
0.146615
0.153628
0.161317
0.169765
0.179083
0.18948
0.201101
0.213997
0.228215
0.243802
0.260772
0.279092
0.298675
0.319395
0.341001
0.363399
0.38612
0.409151
0.431971
0.454125
0.475033
0.494257
0.511171
0.528721
0.545696
0.553038
0.055119
0.0565279
0.0579454
0.0593758
0.0608237
0.0622928
0.063786
0.065309
0.066865
0.0684579
0.0700904
0.0717681
0.0734965
0.0752816
0.0771277
0.0790442
0.08104
0.0831224
0.0852971
0.0875825
0.0899851
0.0925164
0.0951954
0.0980333
0.101045
0.104262
0.107696
0.111383
0.115341
0.119605
0.124209
0.12921
0.134677
0.14066
0.147232
0.154435
0.162344
0.171047
0.180657
0.19139
0.20339
0.216717
0.231415
0.247536
0.265093
0.28405
0.304316
0.325753
0.348101
0.371256
0.394747
0.418538
0.442074
0.464858
0.486287
0.50593
0.523191
0.541068
0.558269
0.565962
0.0547814
0.0561952
0.0576156
0.0590465
0.0604941
0.0619619
0.0634526
0.0649726
0.0665235
0.0681109
0.0697346
0.0714045
0.0731216
0.0748976
0.0767322
0.0786406
0.0806279
0.0827058
0.0848773
0.0871636
0.0895696
0.0921085
0.0947992
0.097654
0.100689
0.103935
0.107408
0.111141
0.115159
0.119493
0.124185
0.129287
0.134876
0.141006
0.147746
0.155146
0.163282
0.172248
0.182161
0.193238
0.205629
0.219398
0.234591
0.25126
0.269421
0.28903
0.309994
0.332162
0.355268
0.379187
0.403458
0.428015
0.452279
0.475702
0.497653
0.517713
0.535322
0.55353
0.570963
0.579021
0.0541839
0.0556048
0.0570304
0.058466
0.059916
0.0613847
0.0628749
0.0643933
0.0659429
0.0675281
0.0691515
0.0708194
0.0725373
0.0743124
0.0761485
0.0780564
0.0800452
0.0821236
0.0842974
0.086587
0.0889993
0.0915474
0.0942518
0.0971253
0.100185
0.103463
0.106976
0.11076
0.11484
0.11925
0.124031
0.129242
0.134959
0.141237
0.148154
0.155757
0.164128
0.173366
0.183592
0.195025
0.20782
0.222045
0.237748
0.254983
0.273763
0.294042
0.315722
0.338635
0.362512
0.387201
0.412267
0.437606
0.462596
0.486645
0.509104
0.529568
0.547513
0.566042
0.583711
0.592129
0.0534914
0.0549169
0.0563457
0.0577825
0.0592332
0.060702
0.0621913
0.0637084
0.0652546
0.0668361
0.0684523
0.0701144
0.0718229
0.0735909
0.0754176
0.0773198
0.0793026
0.0813792
0.0835526
0.0858461
0.0882653
0.0908245
0.0935447
0.0964394
0.0995259
0.102839
0.106396
0.110234
0.114379
0.118867
0.123745
0.129067
0.134917
0.141352
0.14845
0.156264
0.164877
0.174396
0.184943
0.196742
0.209952
0.224647
0.240874
0.25869
0.278106