/*--------------------------------*- C++ -*----------------------------------*\
  =========                 |
  \\      /  F ield         | OpenFOAM: The Open Source CFD Toolbox
   \\    /   O peration     | Website:  https://openfoam.org
    \\  /    A nd           | Version:  6.0
     \\/     M anipulation  |
\*---------------------------------------------------------------------------*/
FoamFile
{
    version     2.0;
    format      ascii;
    class       volVectorField;
    location    "8";
    object      U;
}
// * * * * * * * * * * * * * * * * * * * * * * * * * * * * * * * * * * * * * //

dimensions      [0 1 -1 0 0 0 0];

internalField   nonuniform List<vector> 
62000
(
(0.965829 0.25983 -4.71262e-21)
(0.965844 0.259948 3.96162e-21)
(0.965846 0.259998 4.29668e-21)
(0.965833 0.260064 -1.95135e-20)
(0.965805 0.260137 -2.34718e-20)
(0.965766 0.260213 8.20469e-20)
(0.965718 0.260294 -9.34522e-20)
(0.965663 0.260376 5.57543e-20)
(0.965605 0.260459 -2.74165e-20)
(0.965545 0.260541 -1.45614e-19)
(0.965487 0.260621 -2.20854e-20)
(0.965431 0.260696 2.14475e-19)
(0.96538 0.260766 4.6452e-20)
(0.965335 0.260828 -1.65284e-19)
(0.965297 0.260883 2.68044e-19)
(0.965264 0.26093 -1.45597e-19)
(0.965239 0.260967 1.59514e-19)
(0.965219 0.260995 -1.90267e-19)
(0.965205 0.261014 9.92895e-20)
(0.965196 0.261023 -3.16727e-19)
(0.965192 0.261023 4.25984e-19)
(0.965192 0.261013 1.36529e-19)
(0.965196 0.260995 2.05331e-19)
(0.965203 0.260968 -9.25534e-19)
(0.965215 0.260933 3.48737e-19)
(0.96523 0.26089 -2.31812e-19)
(0.96525 0.260839 -9.6983e-21)
(0.965274 0.260779 -2.06675e-19)
(0.965302 0.260712 6.3714e-19)
(0.965335 0.260637 -3.75081e-19)
(0.965373 0.260553 9.28592e-19)
(0.965414 0.260459 -1.98094e-18)
(0.965459 0.260353 1.84911e-19)
(0.965506 0.260236 -7.31176e-19)
(0.965555 0.26011 -2.46868e-19)
(0.965602 0.259974 -7.9481e-19)
(0.965644 0.259827 -2.53818e-19)
(0.965678 0.259657 -2.61329e-19)
(0.965705 0.259448 7.90646e-19)
(0.965724 0.259197 3.6464e-18)
(0.965733 0.258901 -8.60534e-19)
(0.965732 0.258558 -4.92744e-18)
(0.965716 0.258177 -7.59848e-18)
(0.965681 0.257772 3.99575e-18)
(0.965622 0.25737 1.10131e-18)
(0.965528 0.257007 -5.17244e-18)
(0.96538 0.256724 1.20134e-18)
(0.965151 0.256553 -1.92396e-18)
(0.964804 0.256488 -8.57925e-18)
(0.964298 0.256452 -1.89316e-18)
(0.96359 0.256291 -9.62894e-19)
(0.962658 0.255742 -1.39429e-17)
(0.961518 0.254498 1.62116e-18)
(0.960236 0.25223 1.87741e-17)
(0.958987 0.248662 5.47787e-18)
(0.958 0.243664 1.92282e-17)
(0.957544 0.237051 -2.47617e-18)
(0.957728 0.228674 -4.13085e-18)
(0.959412 0.214482 8.43589e-18)
(0.935791 0.188554 1.4425e-18)
(0.966439 0.256416 -1.30547e-21)
(0.966657 0.256757 1.28815e-20)
(0.966849 0.256986 5.73989e-21)
(0.96701 0.257224 -2.41848e-20)
(0.967134 0.257484 1.03949e-20)
(0.967216 0.257754 -7.49354e-20)
(0.967255 0.258039 6.98213e-20)
(0.967252 0.258337 4.25341e-20)
(0.967209 0.25865 -8.14664e-20)
(0.96713 0.258976 3.00908e-21)
(0.96702 0.259314 8.46556e-20)
(0.966883 0.259661 1.06813e-21)
(0.966728 0.260014 2.71106e-20)
(0.966559 0.260369 -2.31631e-19)
(0.966382 0.260723 4.82095e-19)
(0.966203 0.261071 -4.37641e-19)
(0.966025 0.261407 2.13364e-19)
(0.965851 0.261728 -4.55186e-20)
(0.965686 0.262029 -1.31897e-19)
(0.965529 0.262305 3.81557e-19)
(0.965384 0.262553 -6.20117e-19)
(0.96525 0.262769 3.72751e-19)
(0.965128 0.262953 -4.98377e-19)
(0.965018 0.263101 3.01458e-19)
(0.964922 0.263212 2.96559e-19)
(0.964839 0.263285 -2.01735e-19)
(0.964769 0.263318 -6.23435e-21)
(0.964715 0.263311 2.36299e-19)
(0.964675 0.263264 2.10632e-19)
(0.964652 0.263173 -4.6209e-19)
(0.964643 0.263035 9.63995e-19)
(0.96465 0.262842 2.1194e-19)
(0.964675 0.262585 6.77597e-19)
(0.964723 0.262265 5.60483e-20)
(0.964796 0.261886 2.10674e-19)
(0.964885 0.261455 -2.34621e-19)
(0.964985 0.26096 -7.48027e-19)
(0.965094 0.260384 -3.73049e-19)
(0.965213 0.25973 -2.10193e-18)
(0.965344 0.259015 -2.39941e-18)
(0.965482 0.258266 1.86791e-18)
(0.965618 0.257523 1.08713e-18)
(0.965739 0.256844 7.94966e-18)
(0.965824 0.256301 4.45635e-19)
(0.965844 0.255979 -1.13792e-17)
(0.965756 0.255957 4.29707e-18)
(0.965508 0.256277 3.35458e-18)
(0.965031 0.256912 3.72645e-18)
(0.964256 0.257709 8.61903e-19)
(0.963128 0.258344 2.13999e-19)
(0.961611 0.258389 5.97332e-18)
(0.959722 0.257275 1.71062e-17)
(0.957551 0.254461 -1.25375e-17)
(0.955303 0.249522 -3.25275e-17)
(0.953337 0.242216 -8.48187e-18)
(0.952084 0.232681 -6.62537e-18)
(0.951977 0.220969 -1.5153e-17)
(0.952589 0.207359 -7.70227e-18)
(0.95851 0.186286 1.22454e-17)
(0.923484 0.157368 4.30925e-18)
(0.966061 0.258253 -6.57948e-21)
(0.966317 0.258448 -1.02149e-21)
(0.966585 0.258589 9.87896e-22)
(0.966863 0.258702 4.95321e-21)
(0.967136 0.258828 1.45922e-20)
(0.967392 0.258953 -1.40867e-20)
(0.96762 0.259086 7.84674e-20)
(0.967811 0.259228 -3.75283e-20)
(0.967956 0.259385 -2.08013e-20)
(0.96805 0.259559 -1.35584e-19)
(0.96809 0.259756 1.16614e-19)
(0.968077 0.259975 9.05555e-21)
(0.968012 0.26022 -2.88513e-20)
(0.967899 0.26049 7.93141e-20)
(0.967744 0.260784 -1.40341e-19)
(0.967554 0.261098 -1.70433e-22)
(0.967336 0.261428 -7.05597e-20)
(0.967098 0.261768 -9.82108e-22)
(0.966847 0.262111 1.72049e-19)
(0.966588 0.26245 -2.74129e-19)
(0.966328 0.262777 1.75549e-19)
(0.966071 0.263086 7.23831e-19)
(0.965822 0.263369 -8.5224e-20)
(0.965583 0.263621 -1.07908e-18)
(0.965357 0.263834 5.71506e-19)
(0.965146 0.264006 -3.32384e-19)
(0.964951 0.26413 5.55995e-19)
(0.964774 0.264204 -3.43782e-19)
(0.964616 0.264225 -7.23698e-19)
(0.964479 0.26419 8.11362e-19)
(0.964358 0.264089 -5.92463e-19)
(0.964257 0.263911 8.25687e-19)
(0.964182 0.26364 -2.39443e-18)
(0.964145 0.263278 2.21381e-18)
(0.96415 0.262837 -1.22386e-18)
(0.964184 0.262327 5.14264e-19)
(0.964244 0.261734 4.06e-19)
(0.964341 0.261032 -3.26638e-20)
(0.964476 0.260268 -1.17491e-19)
(0.964649 0.259473 2.51068e-18)
(0.964855 0.258698 -9.65322e-19)
(0.965087 0.258008 1.47521e-18)
(0.965329 0.257488 -5.14883e-18)
(0.965559 0.257242 -2.44758e-18)
(0.965742 0.257373 2.43997e-18)
(0.965834 0.25797 -8.35461e-18)
(0.96578 0.259058 1.03495e-18)
(0.965517 0.260563 -6.30077e-18)
(0.96499 0.262255 8.39607e-18)
(0.964167 0.263708 2.1085e-18)
(0.963039 0.264418 9.09515e-19)
(0.961641 0.263768 -5.71842e-19)
(0.96003 0.261218 4.79168e-18)
(0.958413 0.256426 2.39698e-18)
(0.957095 0.249267 -1.08107e-17)
(0.956442 0.240103 -7.55493e-18)
(0.956838 0.22921 -4.31312e-18)
(0.957043 0.217225 -1.72912e-17)
(0.965093 0.200354 -1.47046e-18)
(0.937964 0.186649 1.57258e-18)
(0.964967 0.263909 -6.81348e-21)
(0.965021 0.263928 2.11796e-20)
(0.965123 0.263941 -3.20906e-21)
(0.96528 0.263905 -2.26398e-20)
(0.965481 0.263866 3.49064e-20)
(0.965719 0.263807 6.20372e-20)
(0.965982 0.263734 -8.17525e-20)
(0.966256 0.263651 9.198e-21)
(0.966527 0.263561 3.03148e-20)
(0.966783 0.263471 6.52324e-20)
(0.967011 0.263387 -1.21743e-19)
(0.967198 0.263316 -3.94108e-20)
(0.967338 0.263265 -4.58116e-20)
(0.967424 0.263239 2.10973e-19)
(0.967454 0.263243 -1.44811e-19)
(0.967427 0.263281 3.51825e-19)
(0.967347 0.263353 -4.3781e-19)
(0.967217 0.263457 -6.92123e-20)
(0.967044 0.263591 4.9574e-19)
(0.966836 0.263749 -1.76204e-19)
(0.966599 0.263926 -6.76112e-20)
(0.966342 0.264112 -7.51589e-20)
(0.966072 0.2643 -7.14319e-19)
(0.965796 0.264481 4.13555e-19)
(0.965518 0.264646 -2.04576e-19)
(0.965245 0.264789 3.27675e-19)
(0.96498 0.264899 1.62094e-19)
(0.964727 0.264971 8.31709e-19)
(0.964489 0.265 -5.33186e-19)
(0.964267 0.264981 -7.30611e-19)
(0.964057 0.264901 1.20605e-18)
(0.963867 0.264743 -1.01628e-18)
(0.963702 0.264487 1.95928e-18)
(0.963581 0.264136 -1.24147e-18)
(0.963507 0.263707 5.28327e-19)
(0.963465 0.263217 9.42863e-19)
(0.963453 0.262647 -4.22385e-19)
(0.963502 0.261967 5.24647e-19)
(0.96361 0.261261 -2.69261e-19)
(0.963771 0.260558 7.82533e-19)
(0.963978 0.259918 -2.17182e-18)
(0.964228 0.259414 5.85063e-19)
(0.964507 0.259136 1.22067e-18)
(0.9648 0.259189 2.98411e-18)
(0.965083 0.259676 3.58401e-18)
(0.965322 0.260679 5.92275e-19)
(0.965487 0.262206 5.15669e-18)
(0.965536 0.26417 5.20639e-18)
(0.965445 0.266315 5.7284e-18)
(0.965207 0.268205 -3.89796e-18)
(0.964823 0.269356 -4.97761e-18)
(0.964326 0.269191 3.15512e-18)
(0.963696 0.267229 4.21025e-18)
(0.96307 0.263199 1.26234e-17)
(0.962633 0.257024 9.25624e-18)
(0.962622 0.249137 1.38055e-17)
(0.963339 0.239872 2.77965e-17)
(0.962914 0.229756 -4.58137e-19)
(0.971116 0.216918 -1.56045e-17)
(0.954326 0.212057 -1.04622e-17)
(0.963963 0.269356 1.34809e-20)
(0.963795 0.269336 -4.50115e-21)
(0.963674 0.269311 7.87074e-21)
(0.963612 0.269238 -1.11065e-20)
(0.963609 0.269154 2.58084e-20)
(0.963668 0.269042 -1.27216e-20)
(0.963787 0.268904 7.37981e-21)
(0.963959 0.268738 -1.08985e-19)
(0.964177 0.268547 9.28696e-20)
(0.964427 0.268333 -1.92478e-19)
(0.964698 0.268101 2.15548e-19)
(0.964973 0.267857 -2.66872e-20)
(0.965238 0.267609 -6.14791e-20)
(0.965479 0.267363 -2.94116e-20)
(0.965684 0.26713 -7.30354e-21)
(0.965845 0.266916 -3.14087e-19)
(0.965953 0.266727 8.69679e-21)
(0.966006 0.266569 3.56769e-19)
(0.966003 0.266442 -1.21532e-19)
(0.965946 0.266349 -1.34002e-19)
(0.965839 0.266288 2.2546e-19)
(0.965689 0.266255 -1.19339e-19)
(0.965503 0.266244 5.12379e-19)
(0.965288 0.266249 2.98956e-19)
(0.965051 0.266262 2.40902e-19)
(0.964801 0.266276 -7.33719e-19)
(0.964542 0.266279 -1.07507e-19)
(0.964284 0.266266 -6.26933e-19)
(0.964028 0.266227 1.15674e-19)
(0.963778 0.266159 -2.29051e-19)
(0.963533 0.266047 -9.60518e-20)
(0.963301 0.265869 7.70223e-19)
(0.963091 0.2656 -1.97512e-18)
(0.962923 0.265244 -9.90708e-20)
(0.962798 0.264824 -1.0833e-18)
(0.962699 0.264359 -5.43456e-19)
(0.962627 0.263827 1.36689e-19)
(0.96263 0.263198 -1.83414e-18)
(0.962706 0.262575 2.78797e-18)
(0.962831 0.261978 4.95282e-19)
(0.962998 0.261465 3.00065e-18)
(0.963204 0.261103 -2.17516e-18)
(0.963439 0.260974 -1.46264e-18)
(0.963694 0.261172 -4.40736e-19)
(0.963956 0.261783 2.73101e-18)
(0.964208 0.262875 3.67958e-18)
(0.964442 0.264438 1.10365e-18)
(0.964643 0.266377 1.64101e-18)
(0.964818 0.26844 -1.49839e-18)
(0.964987 0.270207 1.03226e-17)
(0.965159 0.271243 2.53437e-18)
(0.965369 0.271034 -2.19062e-18)
(0.96554 0.269165 1.3316e-18)
(0.96574 0.26542 9.11213e-18)
(0.966059 0.259736 -5.98531e-19)
(0.966597 0.252507 -1.08789e-17)
(0.9676 0.244051 -2.68126e-17)
(0.966864 0.234451 2.57374e-17)
(0.974265 0.22317 -1.60648e-17)
(0.964109 0.219271 1.24414e-17)
(0.963319 0.273288 -5.22126e-21)
(0.96302 0.273293 2.14184e-20)
(0.962746 0.27329 -3.58933e-20)
(0.962508 0.273248 2.72755e-20)
(0.962314 0.273198 1.82956e-20)
(0.962174 0.273124 -1.94901e-20)
(0.962094 0.273024 1.74064e-21)
(0.962078 0.272893 -1.55057e-20)
(0.962128 0.27273 -5.39006e-20)
(0.96224 0.272533 1.05321e-19)
(0.962406 0.272303 -1.68646e-19)
(0.962618 0.272041 1.50658e-19)
(0.962863 0.271752 1.38775e-19)
(0.963126 0.271442 -2.18573e-19)
(0.963391 0.271119 -7.52994e-20)
(0.963645 0.270788 2.85977e-19)
(0.963874 0.270459 -3.57812e-19)
(0.964067 0.270139 5.11563e-19)
(0.964214 0.269835 -9.61556e-20)
(0.964312 0.269551 6.31661e-20)
(0.964356 0.269291 -9.4684e-20)
(0.964348 0.269058 -1.25286e-19)
(0.964291 0.26885 -2.43908e-19)
(0.964189 0.268667 4.39119e-19)
(0.964049 0.268502 -3.07668e-19)
(0.963877 0.268352 -3.16749e-19)
(0.963682 0.268208 6.66085e-19)
(0.963471 0.268065 -6.72237e-19)
(0.963248 0.267914 1.08757e-18)
(0.963019 0.267753 -5.95743e-19)
(0.962784 0.267566 4.72828e-19)
(0.962553 0.26733 -8.37171e-19)
(0.962338 0.267017 9.23927e-19)
(0.962158 0.266632 -7.97787e-20)
(0.962012 0.2662 -4.75809e-20)
(0.961884 0.265742 -2.65949e-20)
(0.961772 0.265231 -5.92586e-19)
(0.961742 0.264644 1.63728e-18)
(0.961789 0.264085 -1.23656e-18)
(0.961871 0.263563 -7.14664e-18)
(0.961978 0.263128 -2.98319e-18)
(0.962106 0.262833 2.03679e-18)
(0.962248 0.262745 -2.36209e-18)
(0.962397 0.26294 -2.36635e-18)
(0.962552 0.263481 -2.02974e-19)
(0.96271 0.264414 5.77921e-18)
(0.962882 0.265714 -7.98613e-18)
(0.96308 0.267281 -7.52726e-18)
(0.963336 0.268872 -4.2535e-18)
(0.963701 0.270099 -7.3226e-18)
(0.96419 0.270585 5.30225e-18)
(0.964858 0.269883 -1.58028e-18)
(0.965594 0.26765 -1.48202e-17)
(0.966413 0.263716 3.85201e-18)
(0.967335 0.258024 4.43137e-18)
(0.968357 0.250891 -1.02767e-17)
(0.969666 0.242611 6.36787e-18)
(0.968992 0.232757 8.41171e-18)
(0.975381 0.221561 2.63373e-17)
(0.967874 0.215951 5.88841e-19)
(0.963 0.276005 6.27832e-21)
(0.962646 0.276041 -2.87845e-20)
(0.962295 0.276065 1.41332e-20)
(0.961956 0.27606 2.72566e-20)
(0.961636 0.276054 -5.97547e-20)
(0.961348 0.276033 5.10099e-20)
(0.961101 0.275992 -3.50157e-20)
(0.960907 0.275929 3.027e-20)
(0.960772 0.275837 5.01851e-20)
(0.960702 0.275714 -1.22888e-19)
(0.960698 0.275557 1.82643e-19)
(0.960759 0.275362 8.16802e-20)
(0.96088 0.275132 -3.26013e-19)
(0.961051 0.274865 -6.56522e-20)
(0.961261 0.274566 1.8283e-19)
(0.961495 0.274239 1.23595e-19)
(0.96174 0.273891 -1.52617e-19)
(0.96198 0.273526 1.39392e-19)
(0.962202 0.273152 2.26374e-19)
(0.962395 0.272777 -1.06888e-19)
(0.96255 0.272406 -6.35442e-20)
(0.962661 0.272046 2.46418e-19)
(0.962724 0.271698 5.27387e-19)
(0.962739 0.271368 -3.7686e-19)
(0.962709 0.271053 -4.41839e-19)
(0.962638 0.270755 5.08365e-19)
(0.962531 0.270468 -3.99199e-19)
(0.962395 0.270189 -1.73159e-19)
(0.962236 0.269913 1.45279e-18)
(0.962057 0.269641 -6.58597e-19)
(0.961862 0.26936 -5.28762e-19)
(0.961661 0.269044 6.96314e-19)
(0.961468 0.268666 5.03663e-19)
(0.961302 0.268232 -4.7638e-19)
(0.961159 0.267768 -3.31444e-19)
(0.961022 0.267297 1.10161e-18)
(0.960892 0.266786 2.37593e-19)
(0.960842 0.266223 3.88697e-19)
(0.960867 0.265699 -2.08301e-18)
(0.960908 0.265215 -2.07555e-18)
(0.960953 0.264805 3.86053e-18)
(0.960995 0.264512 3.06917e-18)
(0.96103 0.264379 5.04032e-18)
(0.961056 0.264464 -4.71441e-18)
(0.961078 0.264805 -5.17914e-18)
(0.961104 0.26543 -3.11873e-18)
(0.961166 0.266296 7.54936e-18)
(0.96129 0.267302 7.30004e-18)
(0.961537 0.268222 -7.63356e-18)
(0.96198 0.268706 -1.15727e-17)
(0.962644 0.268434 -1.09897e-18)
(0.963602 0.26703 2.459e-18)
(0.964731 0.264221 -1.93803e-19)
(0.966008 0.259874 -5.76833e-18)
(0.967408 0.253941 6.0713e-18)
(0.968851 0.246665 3.21807e-18)
(0.970458 0.238331 4.93075e-18)
(0.970074 0.228087 -2.56966e-17)
(0.975605 0.21653 -1.3054e-18)
(0.968394 0.209498 1.45162e-18)
(0.962882 0.27796 -1.08149e-20)
(0.962515 0.278013 -8.91586e-21)
(0.962139 0.278054 1.20091e-20)
(0.961756 0.278074 4.40957e-20)
(0.961371 0.2781 -9.69378e-20)
(0.960996 0.278118 1.13303e-19)
(0.96064 0.278125 -4.63114e-21)
(0.960315 0.278119 -6.90701e-21)
(0.960031 0.278094 -4.33524e-20)
(0.959798 0.278045 1.09314e-19)
(0.959625 0.277968 -1.71735e-19)
(0.959517 0.277859 6.60306e-20)
(0.959475 0.277715 -2.47221e-21)
(0.959498 0.277534 1.10899e-19)
(0.959581 0.277313 5.57669e-20)
(0.959715 0.277055 -2.975e-19)
(0.95989 0.276761 2.65509e-19)
(0.960091 0.276433 1.09814e-19)
(0.960306 0.276077 -3.20039e-19)
(0.96052 0.275697 1.61097e-19)
(0.96072 0.275301 7.91328e-20)
(0.960896 0.274893 -4.9281e-20)
(0.961039 0.274479 7.31316e-20)
(0.961143 0.274066 -3.68776e-20)
(0.961206 0.273655 -4.9269e-19)
(0.961227 0.273252 3.34961e-19)
(0.961209 0.272853 -5.27606e-19)
(0.961156 0.272461 1.0054e-18)
(0.96107 0.272074 -1.83677e-19)
(0.960956 0.271696 -1.17631e-19)
(0.960815 0.271318 -3.02856e-20)
(0.960661 0.270915 1.19399e-18)
(0.960507 0.270463 -4.91473e-19)
(0.960369 0.269967 -3.21932e-19)
(0.960245 0.269457 8.38747e-19)
(0.960117 0.268954 7.49309e-19)
(0.959988 0.268422 -1.29192e-18)
(0.95993 0.267859 2.3451e-19)
(0.95994 0.267338 2.52364e-18)
(0.95995 0.266852 -2.75369e-19)
(0.959942 0.266421 1.64367e-18)
(0.959911 0.266071 -2.33951e-18)
(0.959853 0.26583 3.56714e-18)
(0.959771 0.265735 7.55448e-18)
(0.959678 0.265802 2.00605e-18)
(0.959588 0.266042 -2.99021e-18)
(0.959548 0.2664 -8.92047e-18)
(0.959599 0.266778 2.06346e-18)
(0.959816 0.266972 2.35895e-18)
(0.960295 0.266667 4.16105e-18)
(0.961065 0.265603 9.9632e-20)
(0.962218 0.263469 -9.96115e-18)
(0.963627 0.260052 8.90137e-18)
(0.965246 0.25526 -6.31684e-18)
(0.967014 0.249047 1.40916e-17)
(0.968808 0.241601 3.23862e-18)
(0.970672 0.233213 1.64427e-17)
(0.970659 0.222735 2.28739e-17)
(0.975595 0.21086 4.65453e-18)
(0.967799 0.203374 6.96245e-18)
(0.962859 0.279454 -5.35534e-21)
(0.9625 0.27952 4.64459e-21)
(0.962125 0.279568 2.40772e-20)
(0.961733 0.2796 3.92055e-20)
(0.961325 0.27964 -1.17031e-19)
(0.960911 0.279678 6.86643e-20)
(0.960497 0.279712 -1.26798e-19)
(0.960094 0.27974 2.02177e-19)
(0.959711 0.279758 -9.65985e-20)
(0.95936 0.279762 1.76222e-20)
(0.959052 0.279748 1.9894e-19)
(0.958796 0.279711 -4.61631e-19)
(0.9586 0.279646 3.21857e-19)
(0.958467 0.27955 4.81041e-20)
(0.9584 0.279418 8.02639e-20)
(0.958397 0.279248 -3.34103e-19)
(0.958452 0.279039 1.68651e-19)
(0.958556 0.278788 -2.16059e-19)
(0.958699 0.278498 4.40877e-19)
(0.958868 0.27817 -5.55905e-20)
(0.95905 0.277808 -5.90306e-19)
(0.959233 0.277416 2.37741e-19)
(0.959404 0.276999 -1.35901e-20)
(0.959553 0.276565 -9.46689e-19)
(0.959675 0.276115 7.11596e-19)
(0.959763 0.275658 5.56225e-19)
(0.959816 0.275192 3.9748e-19)
(0.959834 0.274723 -5.13138e-19)
(0.959817 0.274252 -5.86852e-19)
(0.959767 0.273788 2.77635e-19)
(0.959685 0.273326 4.33367e-19)
(0.959583 0.272844 -5.42078e-19)
(0.959475 0.272319 -8.43042e-19)
(0.959375 0.271757 1.75548e-18)
(0.959278 0.271192 1.95672e-19)
(0.959171 0.270642 -2.84321e-18)
(0.959057 0.270071 2.34258e-19)
(0.959001 0.269485 2.013e-18)
(0.959006 0.268934 1.96507e-19)
(0.958996 0.268409 2.64146e-18)
(0.958952 0.267916 -3.72398e-18)
(0.958868 0.267466 -2.69874e-19)
(0.958745 0.267071 -2.36582e-18)
(0.958588 0.266752 1.00601e-18)
(0.958416 0.266509 3.88902e-18)
(0.958251 0.266338 1.20716e-17)
(0.958147 0.266177 1.51437e-18)
(0.958155 0.265935 -7.44203e-18)
(0.958361 0.26543 5.86482e-18)
(0.958873 0.264385 2.00829e-17)
(0.959724 0.262592 -1.6199e-17)
(0.961018 0.259798 1.96365e-17)
(0.962631 0.255844 -1.21742e-17)
(0.964501 0.25067 -7.53184e-18)
(0.966547 0.244234 -2.91298e-17)
(0.968619 0.236684 -1.74878e-18)
(0.970677 0.228324 -1.02458e-17)
(0.971027 0.217828 -1.21467e-17)
(0.97561 0.205831 1.04838e-17)
(0.96715 0.198661 2.29192e-18)
(0.962871 0.280636 7.60836e-21)
(0.962528 0.280705 2.80014e-21)
(0.962166 0.280756 -2.86148e-20)
(0.961781 0.280792 2.77733e-20)
(0.961375 0.280839 -1.25571e-20)
(0.960952 0.280886 2.31707e-20)
(0.960517 0.280933 8.4135e-21)
(0.960076 0.280979 -1.21204e-19)
(0.95964 0.281021 5.29731e-20)
(0.959216 0.281057 -3.81965e-20)
(0.958816 0.281083 2.25863e-20)
(0.958451 0.281095 9.29088e-20)
(0.95813 0.281089 -1.77439e-20)
(0.957863 0.28106 6.04246e-20)
(0.957655 0.281004 -2.60854e-19)
(0.95751 0.280915 1.01216e-19)
(0.957429 0.28079 4.53521e-20)
(0.957409 0.280626 -1.31706e-19)
(0.957443 0.280418 2.6581e-19)
(0.957523 0.280167 9.15418e-20)
(0.957638 0.279873 -8.99445e-21)
(0.957777 0.279537 -1.04675e-19)
(0.957926 0.279162 4.27325e-19)
(0.958076 0.278753 -1.20769e-18)
(0.958214 0.278311 6.39424e-19)
(0.958334 0.277846 2.8235e-19)
(0.95843 0.277356 -4.81742e-19)
(0.958497 0.276849 8.78895e-19)
(0.958533 0.276329 -4.2704e-19)
(0.958537 0.275807 -2.35e-19)
(0.958508 0.275283 -4.7068e-19)
(0.958456 0.274736 -2.03355e-19)
(0.958393 0.274147 5.52358e-19)
(0.958332 0.273523 -1.73637e-18)
(0.958268 0.272899 3.36837e-18)
(0.958188 0.272295 -2.30837e-19)
(0.958099 0.271671 1.86338e-18)
(0.958054 0.271041 -4.81958e-18)
(0.95806 0.270433 -1.53215e-18)
(0.958042 0.26984 2.07515e-20)
(0.957978 0.269251 -1.17379e-18)
(0.957864 0.268668 -2.08947e-19)
(0.957706 0.26809 -4.22547e-18)
(0.95751 0.267526 1.47823e-18)
(0.9573 0.266961 2.0641e-18)
(0.957103 0.266385 -1.13283e-17)
(0.95698 0.265731 1.4609e-17)
(0.956984 0.264918 2.16285e-18)
(0.957208 0.263785 8.56523e-19)
(0.957766 0.262094 -1.42116e-17)
(0.958691 0.259677 4.86608e-18)
(0.960097 0.256335 -1.05474e-17)
(0.961862 0.251954 2.19725e-17)
(0.963917 0.2465 4.37648e-18)
(0.966163 0.239933 -2.09722e-17)
(0.968446 0.232371 8.17065e-18)
(0.970632 0.224131 -2.43275e-17)
(0.971291 0.213801 -5.65043e-18)
(0.975701 0.201878 -3.83855e-17)
(0.966807 0.19549 -8.58124e-18)
(0.96289 0.281601 -1.71969e-21)
(0.962563 0.281673 -6.90435e-21)
(0.962218 0.281722 -6.22547e-21)
(0.96185 0.281758 6.0162e-20)
(0.961457 0.281805 -3.36895e-20)
(0.961041 0.281854 -4.19554e-20)
(0.960606 0.281905 -1.65528e-20)
(0.960156 0.281958 -6.86091e-20)
(0.959696 0.282011 4.20463e-20)
(0.959235 0.282063 5.41952e-21)
(0.958782 0.282112 1.45883e-21)
(0.958345 0.282154 1.99796e-19)
(0.957937 0.282187 -1.44286e-19)
(0.957567 0.282205 -1.87096e-20)
(0.957243 0.282204 1.75489e-19)
(0.956973 0.282179 -9.82508e-20)
(0.956763 0.282126 -3.97796e-20)
(0.956615 0.282037 6.40265e-20)
(0.956527 0.281909 2.15901e-19)
(0.956495 0.281738 1.25437e-19)
(0.956514 0.281522 5.16846e-20)
(0.956573 0.281258 -3.18966e-19)
(0.956663 0.280946 1.69339e-19)
(0.956772 0.28059 3.34091e-19)
(0.95689 0.280188 -7.03289e-19)
(0.957006 0.279748 2.35731e-19)
(0.957112 0.27927 -9.47528e-19)
(0.957201 0.278759 7.90085e-19)
(0.957268 0.278221 7.1963e-19)
(0.957307 0.27767 -1.12161e-18)
(0.957318 0.277108 -5.58315e-19)
(0.957306 0.276515 7.56656e-19)
(0.957282 0.275876 2.60353e-19)
(0.957258 0.275198 -7.43396e-19)
(0.957225 0.27452 -9.76357e-19)
(0.957175 0.273857 -1.20042e-18)
(0.957115 0.273172 7.51728e-19)
(0.957086 0.272482 1.85409e-18)
(0.957098 0.271799 6.46705e-19)
(0.957082 0.271114 -6.04759e-19)
(0.957012 0.270406 6.60365e-18)
(0.956889 0.269669 -6.75009e-19)
(0.95672 0.268893 6.9751e-18)
(0.956516 0.268076 -1.2693e-17)
(0.956305 0.267197 2.0503e-18)
(0.956115 0.266239 3.39784e-19)
(0.956011 0.265136 -6.26713e-19)
(0.956047 0.263818 -1.03682e-17)
(0.956316 0.262146 -1.6671e-17)
(0.956936 0.259913 1.51784e-17)
(0.957936 0.25699 2.02586e-17)
(0.959435 0.253219 1.10536e-17)
(0.961315 0.248526 -2.16231e-17)
(0.963501 0.242896 1.21038e-17)
(0.965886 0.236286 3.06786e-17)
(0.968321 0.228794 1.35587e-17)
(0.970577 0.220745 2.37453e-17)
(0.971479 0.210704 1.23352e-17)
(0.975831 0.198999 3.70332e-17)
(0.966775 0.193603 -2.59057e-17)
(0.9629 0.282409 2.25839e-21)
(0.962589 0.282479 -6.88246e-21)
(0.962261 0.282526 2.5147e-20)
(0.96191 0.282561 6.97634e-21)
(0.961533 0.282607 -3.58605e-20)
(0.961132 0.282656 -4.27834e-20)
(0.960708 0.282708 1.02612e-19)
(0.960263 0.282763 -1.14792e-19)
(0.959801 0.28282 -2.98672e-20)
(0.959326 0.282879 7.34909e-20)
(0.958847 0.282938 7.06209e-20)
(0.95837 0.282995 2.21545e-19)
(0.957907 0.283049 -1.23875e-19)
(0.957465 0.283095 -2.2235e-19)
(0.957056 0.283129 4.97092e-20)
(0.956687 0.283148 -1.92419e-19)
(0.956368 0.283146 1.45479e-19)
(0.956104 0.283117 -2.56454e-19)
(0.955898 0.283054 3.87228e-20)
(0.955751 0.282954 -9.16603e-20)
(0.955661 0.28281 -6.15338e-20)
(0.955623 0.282618 -2.57632e-19)
(0.955628 0.282376 1.74991e-20)
(0.955669 0.282085 5.71219e-19)
(0.955735 0.281739 -2.02437e-19)
(0.955816 0.281346 6.17327e-20)
(0.955902 0.280901 1.90178e-19)
(0.955986 0.280411 -2.6366e-19)
(0.956058 0.279882 -5.87428e-20)
(0.956112 0.279326 3.93063e-19)
(0.956144 0.278748 4.41903e-19)
(0.956159 0.278128 -3.35451e-19)
(0.956164 0.277454 -1.10907e-18)
(0.956167 0.276734 -1.63318e-18)
(0.956162 0.276007 2.55776e-18)
(0.95614 0.275288 7.18338e-19)
(0.95611 0.274539 4.62341e-19)
(0.956098 0.273779 2.45091e-18)
(0.956118 0.273007 -2.24234e-18)
(0.95611 0.272215 1.39769e-18)
(0.956045 0.271374 5.50416e-20)
(0.955927 0.270473 9.22153e-20)
(0.955767 0.269493 -2.56014e-18)
(0.955578 0.268429 5.90997e-18)
(0.955393 0.267252 -7.93698e-18)
(0.955238 0.265946 4.85488e-18)
(0.955182 0.264446 -1.37617e-17)
(0.955275 0.262694 3.66359e-18)
(0.95561 0.26057 8.84535e-18)
(0.956303 0.257898 -1.54831e-17)
(0.957378 0.254578 -3.55218e-18)
(0.958957 0.250488 -6.30052e-19)
(0.960924 0.245582 -4.27367e-18)
(0.963202 0.239864 -1.31204e-17)
(0.965678 0.233285 8.13798e-19)
(0.968215 0.225923 1.34717e-17)
(0.970496 0.21811 -1.43383e-17)
(0.971582 0.208425 -4.05933e-18)
(0.975941 0.197023 -4.95702e-18)
(0.966933 0.192677 1.94832e-17)
(0.962899 0.283106 4.25653e-21)
(0.9626 0.28318 -3.61162e-21)
(0.962285 0.283226 3.45866e-21)
(0.961949 0.28326 2.25918e-20)
(0.961588 0.283303 3.38678e-20)
(0.961203 0.283349 -1.32895e-19)
(0.960793 0.283398 9.80803e-20)
(0.96036 0.28345 2.15146e-20)
(0.959906 0.283505 -5.85749e-21)
(0.959432 0.283564 -4.74053e-20)
(0.958945 0.283625 1.5086e-19)
(0.958451 0.283688 -4.82519e-20)
(0.957957 0.28375 -7.00009e-20)
(0.957472 0.28381 -2.18068e-19)
(0.957004 0.283864 4.45508e-19)
(0.956563 0.28391 -9.17404e-20)
(0.956159 0.283941 -7.94335e-20)
(0.9558 0.283953 -2.47807e-19)
(0.955491 0.283938 2.78398e-19)
(0.955238 0.283892 1.6032e-19)
(0.955041 0.283808 -7.28409e-20)
(0.954899 0.28368 1.3344e-19)
(0.954809 0.283503 -5.7348e-19)
(0.954764 0.283276 3.65411e-20)
(0.954757 0.28299 3.30078e-19)
(0.954779 0.282651 -6.39259e-20)
(0.954822 0.282253 -1.07972e-18)
(0.954874 0.281799 8.91341e-20)
(0.954929 0.281295 9.99767e-19)
(0.954976 0.280752 -2.75425e-19)
(0.955011 0.280175 -5.42765e-19)
(0.955036 0.279547 3.27617e-19)
(0.955056 0.278852 9.84787e-19)
(0.955076 0.278101 2.39187e-18)
(0.95509 0.277332 -3.7599e-19)
(0.95509 0.276561 5.54585e-19)
(0.955086 0.275748 -4.11151e-18)
(0.955091 0.274913 -1.2103e-18)
(0.955119 0.274046 7.80256e-19)
(0.955122 0.273139 -3.24319e-18)
(0.955067 0.27216 -6.97138e-19)
(0.954964 0.271092 1.52064e-18)
(0.954826 0.269912 1.27914e-18)
(0.954668 0.268613 3.56153e-18)
(0.954525 0.267163 1.18749e-17)
(0.954424 0.265545 -9.56216e-18)
(0.954433 0.263701 1.54777e-17)
(0.954599 0.261582 1.18e-17)
(0.955011 0.259087 -8.57915e-20)
(0.955781 0.256066 1.57541e-17)
(0.956931 0.252442 -2.14934e-17)
(0.958579 0.248122 -2.62374e-17)
(0.96061 0.243085 2.08386e-17)
(0.962949 0.237345 1.84227e-17)
(0.96548 0.230849 -8.05543e-18)
(0.968082 0.223653 -4.62179e-17)
(0.970356 0.216094 1.11211e-17)
(0.97158 0.206789 -1.20123e-17)
(0.975982 0.195726 -1.84378e-17)
(0.967145 0.192398 1.60639e-17)
(0.962888 0.283716 -4.6398e-21)
(0.962597 0.283789 5.12471e-21)
(0.962292 0.283834 3.61284e-20)
(0.961967 0.283866 -4.77621e-20)
(0.96162 0.283907 8.95295e-20)
(0.961249 0.283951 -1.33822e-19)
(0.960853 0.283997 3.82684e-20)
(0.960434 0.284046 -2.20811e-21)
(0.959991 0.284098 9.0591e-20)
(0.959526 0.284154 -4.825e-20)
(0.959042 0.284213 1.50588e-20)
(0.958544 0.284275 1.60182e-20)
(0.958037 0.284339 -2.49469e-19)
(0.957528 0.284403 7.41108e-20)
(0.957024 0.284465 1.80079e-19)
(0.956534 0.284524 6.49393e-21)
(0.956069 0.284574 -3.17007e-19)
(0.955636 0.284611 1.30056e-19)
(0.955243 0.284629 6.32751e-19)
(0.954897 0.284622 -4.16707e-19)
(0.954603 0.284583 -3.27537e-19)
(0.954363 0.284505 2.81948e-19)
(0.954175 0.284382 1.87732e-19)
(0.954039 0.284211 2.14329e-19)
(0.953947 0.283982 -4.16073e-19)
(0.953896 0.283697 -9.29244e-19)
(0.953875 0.283348 7.03831e-19)
(0.953878 0.282936 1.04137e-18)
(0.953895 0.282466 3.05187e-19)
(0.953916 0.281948 -5.85557e-19)
(0.953935 0.281385 2.79283e-19)
(0.953953 0.280759 4.8561e-19)
(0.953973 0.280055 -8.32524e-19)
(0.953998 0.279283 -1.19624e-19)
(0.95402 0.278482 -1.58898e-18)
(0.954034 0.277663 -4.49129e-19)
(0.95405 0.276789 -4.5888e-19)
(0.954067 0.275879 1.20525e-18)
(0.9541 0.274915 -1.68801e-18)
(0.954114 0.273892 4.91037e-19)
(0.954073 0.272775 8.22566e-19)
(0.953989 0.271544 2.23541e-19)
(0.953879 0.270175 -5.26025e-18)
(0.953761 0.268658 -7.43847e-18)
(0.953668 0.266961 -6.60883e-18)
(0.95363 0.26507 1.33397e-17)
(0.953712 0.26293 4.53883e-19)
(0.953957 0.260505 -5.5225e-18)
(0.95445 0.257709 2.98548e-18)
(0.955297 0.254415 -1.8796e-17)
(0.956515 0.250563 9.2357e-18)
(0.958221 0.246083 2.60861e-17)
(0.960301 0.240973 -1.56822e-18)
(0.962678 0.235259 -2.41111e-17)
(0.965237 0.228876 1.16835e-17)
(0.967879 0.221865 1.1344e-17)
(0.970126 0.214559 1.45068e-17)
(0.971457 0.20563 3.36941e-17)
(0.975921 0.194908 3.32059e-17)
(0.967308 0.192526 -3.66718e-17)
(0.962866 0.284258 -3.96872e-21)
(0.96258 0.284334 5.80613e-21)
(0.962283 0.284376 1.28565e-21)
(0.961967 0.284406 2.33185e-20)
(0.96163 0.284445 -3.57185e-20)
(0.961271 0.284486 -7.5801e-20)
(0.960888 0.284528 2.65586e-20)
(0.960482 0.284574 -3.84547e-20)
(0.960051 0.284622 8.27642e-20)
(0.959597 0.284674 -1.73948e-20)
(0.959121 0.28473 -5.85468e-20)
(0.958626 0.284789 4.84192e-20)
(0.958116 0.28485 8.16832e-20)
(0.957596 0.284914 2.32193e-19)
(0.957072 0.284978 -4.2673e-19)
(0.956551 0.285041 2.22701e-19)
(0.956044 0.2851 3.5673e-20)
(0.955557 0.28515 -2.29216e-19)
(0.955098 0.285186 -1.47831e-19)
(0.954677 0.285203 4.91125e-19)
(0.9543 0.285194 -5.25682e-19)
(0.95397 0.285152 1.58193e-19)
(0.953691 0.28507 -4.44112e-19)
(0.953463 0.284943 7.50893e-19)
(0.953284 0.284761 -1.55023e-19)
(0.953151 0.284523 -4.47613e-19)
(0.953057 0.28422 3.61816e-19)
(0.952996 0.283851 6.96873e-19)
(0.952959 0.283418 -6.69369e-19)
(0.952937 0.282928 4.17874e-19)
(0.952924 0.282386 -1.4534e-18)
(0.952919 0.28177 -1.67831e-19)
(0.952924 0.281066 6.48844e-19)
(0.952941 0.280281 -3.92301e-19)
(0.95296 0.279453 -8.35028e-19)
(0.952978 0.278594 -2.04699e-18)
(0.953004 0.277664 2.66791e-18)
(0.953027 0.27668 -1.09437e-18)
(0.953063 0.275622 8.30383e-19)
(0.953085 0.274485 1.72851e-18)
(0.953057 0.273235 1.39038e-18)
(0.952993 0.271851 -8.74627e-19)
(0.952914 0.270306 3.08025e-18)
(0.952837 0.268591 5.85322e-18)
(0.952797 0.266675 -5.89778e-19)
(0.952824 0.264546 -8.08824e-18)
(0.952979 0.262156 -1.10423e-17)
(0.953303 0.259477 -8.74399e-19)
(0.953874 0.256439 8.64896e-18)
(0.954793 0.252932 -1.73477e-18)
(0.956072 0.248911 1.64275e-17)
(0.957827 0.244322 -2.57686e-17)
(0.959941 0.239182 -1.40991e-17)
(0.96234 0.233521 -6.08212e-18)
(0.964909 0.227266 -1.28858e-17)
(0.967573 0.220442 8.38694e-18)
(0.969785 0.213379 -1.1085e-17)
(0.971206 0.204802 -4.46977e-17)
(0.975744 0.194402 -5.21022e-17)
(0.967354 0.192882 1.97116e-17)
(0.962829 0.284752 -6.03738e-21)
(0.962547 0.284826 4.88431e-21)
(0.962255 0.284866 3.98669e-21)
(0.961946 0.284895 -2.92391e-20)
(0.961617 0.284932 3.05022e-20)
(0.961266 0.284971 -1.55268e-20)
(0.960893 0.285012 5.16033e-20)
(0.960498 0.285055 -7.82976e-20)
(0.960078 0.285101 4.01253e-21)
(0.959635 0.28515 5.85971e-21)
(0.959168 0.285201 -6.29528e-20)