/*--------------------------------*- C++ -*----------------------------------*\
  =========                 |
  \\      /  F ield         | OpenFOAM: The Open Source CFD Toolbox
   \\    /   O peration     | Website:  https://openfoam.org
    \\  /    A nd           | Version:  6.0
     \\/     M anipulation  |
\*---------------------------------------------------------------------------*/
FoamFile
{
    version     2.0;
    format      ascii;
    class       volVectorField;
    location    "8";
    object      U;
}
// * * * * * * * * * * * * * * * * * * * * * * * * * * * * * * * * * * * * * //

dimensions      [0 1 -1 0 0 0 0];

internalField   nonuniform List<vector> 
62000
(
(0.965606 -0.261125 -3.54209e-21)
(0.965608 -0.261154 2.977e-21)
(0.965581 -0.261239 2.98503e-21)
(0.965555 -0.261269 -1.29833e-20)
(0.965538 -0.26124 -1.45546e-20)
(0.96553 -0.261163 5.08845e-20)
(0.965528 -0.261055 -5.56087e-20)
(0.965529 -0.260936 3.23747e-20)
(0.965532 -0.260818 -1.49317e-20)
(0.965535 -0.260711 -7.54793e-20)
(0.965537 -0.260615 -8.29291e-21)
(0.965539 -0.260533 1.05879e-19)
(0.965539 -0.26046 2.08847e-20)
(0.965539 -0.260396 -7.37223e-20)
(0.965539 -0.260339 1.13641e-19)
(0.965539 -0.260288 -6.06538e-20)
(0.965539 -0.260242 6.02634e-20)
(0.965539 -0.2602 -7.13163e-20)
(0.96554 -0.260161 3.37829e-20)
(0.965542 -0.260126 -1.02176e-19)
(0.965544 -0.260093 1.32229e-19)
(0.965547 -0.260062 3.55975e-20)
(0.965551 -0.260033 4.83027e-20)
(0.965557 -0.260003 -2.32932e-19)
(0.965563 -0.259974 8.34038e-20)
(0.965572 -0.259944 -4.67793e-20)
(0.965582 -0.259914 2.5497e-21)
(0.965594 -0.259881 -3.10275e-20)
(0.965607 -0.259847 1.04995e-19)
(0.965624 -0.259811 -5.03182e-20)
(0.965642 -0.259773 1.14659e-19)
(0.965665 -0.259733 -2.18024e-19)
(0.96569 -0.259689 2.36795e-20)
(0.965718 -0.259638 -4.78329e-20)
(0.965749 -0.259582 -9.35653e-21)
(0.965784 -0.259526 -3.8291e-20)
(0.965826 -0.259471 2.02641e-21)
(0.965874 -0.25942 6.76789e-21)
(0.965933 -0.259369 2.25354e-20)
(0.966004 -0.259321 1.2233e-20)
(0.966092 -0.259273 1.16062e-20)
(0.966205 -0.259222 1.15982e-19)
(0.966352 -0.259162 3.23403e-19)
(0.966543 -0.259081 -2.50081e-19)
(0.966795 -0.258961 -1.25682e-19)
(0.967122 -0.258778 6.22636e-19)
(0.967541 -0.258496 -8.70244e-20)
(0.968068 -0.258073 4.03952e-19)
(0.968713 -0.257454 2.19913e-18)
(0.969481 -0.256579 7.53967e-19)
(0.970366 -0.255373 4.4133e-19)
(0.971349 -0.253748 5.47281e-18)
(0.972401 -0.251585 -1.56146e-18)
(0.973466 -0.248739 -7.49769e-18)
(0.9745 -0.244957 -1.77901e-18)
(0.975488 -0.239729 -7.53261e-18)
(0.976228 -0.232007 5.34418e-19)
(0.980295 -0.216821 6.53985e-19)
(0.965458 -0.191563 -2.29356e-18)
(1.05423 -0.168166 -2.86394e-19)
(0.965974 -0.260009 -9.64138e-22)
(0.965823 -0.260074 9.14e-21)
(0.965613 -0.260366 3.59153e-21)
(0.965435 -0.260646 -1.60772e-20)
(0.965307 -0.260885 6.58772e-21)
(0.965216 -0.26105 -4.4689e-20)
(0.965152 -0.26113 4.1194e-20)
(0.965109 -0.261139 2.33422e-20)
(0.965082 -0.261106 -4.37477e-20)
(0.965067 -0.261057 2.16195e-21)
(0.965061 -0.261012 4.19139e-20)
(0.965062 -0.260979 -2.55505e-22)
(0.965068 -0.260961 1.15313e-20)
(0.965079 -0.260958 -1.01089e-19)
(0.965095 -0.260966 2.00873e-19)
(0.965115 -0.260982 -1.76929e-19)
(0.965138 -0.261004 8.17614e-20)
(0.965166 -0.261029 -1.75185e-20)
(0.965196 -0.261055 -4.51549e-20)
(0.965229 -0.261079 1.21731e-19)
(0.965264 -0.261101 -1.89811e-19)
(0.965301 -0.261117 1.08207e-19)
(0.965339 -0.261128 -1.31617e-19)
(0.965379 -0.261131 7.9288e-20)
(0.96542 -0.261126 6.74283e-20)
(0.965463 -0.261112 -4.39751e-20)
(0.965506 -0.261088 2.89243e-21)
(0.96555 -0.261055 4.79175e-20)
(0.965596 -0.261014 3.62093e-20)
(0.965643 -0.260964 -6.14853e-20)
(0.96569 -0.260909 1.22835e-19)
(0.96574 -0.260849 1.8044e-20)
(0.965792 -0.26078 5.53078e-20)
(0.965843 -0.260702 -6.62274e-22)
(0.965893 -0.260619 6.7344e-21)
(0.965944 -0.260542 -1.64283e-20)
(0.965998 -0.260481 -3.42438e-20)
(0.96606 -0.260438 -2.18124e-20)
(0.966134 -0.260413 -3.87577e-20)
(0.966227 -0.260405 -4.0609e-21)
(0.966348 -0.26041 -8.88458e-21)
(0.966512 -0.260421 -2.73948e-20)
(0.966736 -0.26042 -3.39435e-19)
(0.967043 -0.260382 -2.26088e-20)
(0.967459 -0.260268 9.83546e-19)
(0.968009 -0.260028 -5.24738e-19)
(0.968719 -0.259596 -6.27924e-19)
(0.969606 -0.258898 -7.58912e-19)
(0.970675 -0.25785 -3.63659e-19)
(0.971914 -0.256363 -1.00404e-19)
(0.973288 -0.254347 -2.1879e-18)
(0.974728 -0.251711 -6.795e-18)
(0.976127 -0.248365 5.19246e-18)
(0.977326 -0.24424 1.32712e-17)
(0.97813 -0.239293 3.38916e-18)
(0.978297 -0.233468 3.03694e-18)
(0.977266 -0.22687 5.79141e-18)
(0.975764 -0.218295 3.20746e-18)
(0.967479 -0.227548 -3.52773e-18)
(0.941055 -0.284519 -6.76577e-19)
(0.965687 -0.260575 -4.79343e-21)
(0.965447 -0.260715 -6.14443e-22)
(0.965167 -0.261038 8.06406e-22)
(0.964943 -0.261394 3.38393e-21)
(0.964791 -0.261773 9.28341e-21)
(0.964686 -0.26211 -8.8626e-21)
(0.964613 -0.262349 4.62297e-20)
(0.964563 -0.262476 -2.25394e-20)
(0.96453 -0.262507 -1.19142e-20)
(0.964512 -0.262473 -7.1601e-20)
(0.964507 -0.262404 6.07146e-20)
(0.964513 -0.262325 4.44677e-21)
(0.964529 -0.262248 -1.34306e-20)
(0.964557 -0.26218 3.55027e-20)
(0.964595 -0.262125 -6.06077e-20)
(0.964644 -0.262081 7.94959e-22)
(0.964704 -0.262048 -2.62092e-20)
(0.964772 -0.262024 1.89408e-21)
(0.96485 -0.262007 6.03019e-20)
(0.964934 -0.261995 -8.97892e-20)
(0.965024 -0.261987 5.59281e-20)
(0.965118 -0.26198 2.03937e-19)
(0.965215 -0.261973 -3.36053e-20)
(0.965314 -0.261963 -2.71372e-19)
(0.965414 -0.261949 1.38746e-19)
(0.965514 -0.26193 -6.74649e-20)
(0.965612 -0.261904 1.07998e-19)
(0.96571 -0.261871 -6.93188e-20)
(0.965805 -0.261832 -1.15414e-19)
(0.965897 -0.261787 1.14477e-19)
(0.965986 -0.261741 -7.38659e-20)
(0.966072 -0.261694 8.86689e-20)
(0.966153 -0.261643 -2.20188e-19)
(0.966227 -0.261586 1.6908e-19)
(0.96629 -0.26153 -7.78647e-20)
(0.966344 -0.261489 3.3266e-20)
(0.966387 -0.261475 2.43876e-20)
(0.966423 -0.261491 1.24897e-20)
(0.966456 -0.261541 1.12789e-20)
(0.966488 -0.261624 2.79676e-20)
(0.966527 -0.261738 1.3814e-20)
(0.966584 -0.261874 -4.44393e-20)
(0.966673 -0.262016 1.98636e-19)
(0.966814 -0.262139 1.39373e-19)
(0.967029 -0.262205 -3.1815e-19)
(0.967341 -0.262166 7.43846e-19)
(0.967769 -0.261962 -2.01352e-19)
(0.96833 -0.261528 1.09698e-18)
(0.969025 -0.260793 -1.88049e-18)
(0.969836 -0.259694 -6.37646e-19)
(0.970722 -0.258178 -7.58094e-20)
(0.97161 -0.256208 4.66806e-19)
(0.972379 -0.253775 -1.6706e-18)
(0.972859 -0.250931 -1.90031e-18)
(0.972846 -0.247845 3.29522e-18)
(0.972083 -0.244782 2.91362e-18)
(0.970323 -0.242118 1.09568e-18)
(0.967714 -0.239729 7.10483e-18)
(0.959469 -0.243301 -5.38729e-19)
(0.98082 -0.251067 -7.42707e-19)
(0.964541 -0.264368 -4.89935e-21)
(0.964414 -0.264547 1.49888e-20)
(0.964256 -0.264778 -2.36826e-21)
(0.964149 -0.265073 -1.52951e-20)
(0.964105 -0.265448 2.2831e-20)
(0.964102 -0.265831 3.86363e-20)
(0.964119 -0.266145 -5.0884e-20)
(0.964142 -0.266346 5.40079e-21)
(0.964166 -0.266428 1.71026e-20)
(0.964187 -0.266408 3.52348e-20)
(0.964204 -0.266314 -6.58745e-20)
(0.964218 -0.266173 -1.97694e-20)
(0.964232 -0.266005 -2.16435e-20)
(0.96425 -0.265824 1.00485e-19)
(0.964273 -0.265639 -6.63785e-20)
(0.964304 -0.265452 1.50765e-19)
(0.964346 -0.265269 -1.82521e-19)
(0.964401 -0.26509 -2.42473e-20)
(0.964468 -0.264918 1.83503e-19)
(0.964548 -0.264754 -6.45067e-20)
(0.964641 -0.264598 -2.37706e-20)
(0.964745 -0.264451 -2.32487e-20)
(0.964858 -0.264314 -1.98037e-19)
(0.96498 -0.264183 1.19891e-19)
(0.965108 -0.264061 -4.43252e-20)
(0.96524 -0.263944 7.70928e-20)
(0.965375 -0.263832 3.49706e-20)
(0.965512 -0.263725 1.48159e-19)
(0.965648 -0.263622 -9.57473e-20)
(0.965782 -0.263524 -1.07554e-19)
(0.965913 -0.263435 1.57529e-19)
(0.96604 -0.263356 -1.24742e-19)
(0.96616 -0.263281 2.01137e-19)
(0.966271 -0.263207 -9.99009e-20)
(0.966368 -0.263142 5.58467e-20)
(0.96645 -0.263098 7.08273e-20)
(0.966513 -0.26309 -2.45205e-20)
(0.966558 -0.26312 6.28025e-21)
(0.966586 -0.263191 -1.91739e-20)
(0.966597 -0.263303 1.43919e-20)
(0.966593 -0.263455 -1.17163e-20)
(0.966581 -0.263639 -8.80063e-21)
(0.966569 -0.263842 -3.41194e-20)
(0.966569 -0.264042 -9.57285e-20)
(0.966598 -0.264207 -2.51702e-19)
(0.966675 -0.264296 -1.65018e-19)
(0.966815 -0.26426 -4.85112e-19)
(0.967033 -0.264045 -6.75321e-19)
(0.967332 -0.263597 -7.5192e-19)
(0.967703 -0.262873 6.8857e-19)
(0.968117 -0.26184 1.33741e-18)
(0.96852 -0.260483 -7.05242e-19)
(0.968823 -0.258813 -1.03818e-18)
(0.9689 -0.256882 -4.37215e-18)
(0.968636 -0.254828 -3.19597e-18)
(0.967899 -0.252766 -4.77951e-18)
(0.966892 -0.250504 -1.01814e-17)
(0.966188 -0.246276 2.52684e-18)
(0.961077 -0.240443 6.76369e-18)
(0.978975 -0.254078 3.27106e-18)
(0.963454 -0.268906 9.55739e-21)
(0.963519 -0.269035 -3.23335e-21)
(0.963513 -0.269159 5.29049e-21)
(0.963535 -0.269356 -7.58455e-21)
(0.963609 -0.269662 1.66203e-20)
(0.96372 -0.270022 -8.41062e-21)
(0.963845 -0.270358 4.23425e-21)
(0.963971 -0.27061 -6.46564e-20)
(0.964087 -0.270754 5.41458e-20)
(0.964187 -0.270793 -1.06834e-19)
(0.964267 -0.270745 1.17908e-19)
(0.964327 -0.270631 -1.43358e-20)
(0.964369 -0.270469 -3.09252e-20)
(0.964395 -0.270274 -1.3518e-20)
(0.96441 -0.270053 -2.46219e-21)
(0.964419 -0.269812 -1.38038e-19)
(0.964425 -0.269557 9.76554e-21)
(0.964434 -0.269289 1.49165e-19)
(0.96445 -0.269012 -4.61486e-20)
(0.964476 -0.268731 -4.64277e-20)
(0.964514 -0.26845 8.05112e-20)
(0.964567 -0.268171 -3.67191e-20)
(0.964634 -0.267898 1.5595e-19)
(0.964717 -0.267633 7.75913e-20)
(0.964813 -0.267378 5.19901e-20)
(0.964922 -0.267134 -1.86925e-19)
(0.965042 -0.266902 -2.5093e-20)
(0.965171 -0.266682 -1.29399e-19)
(0.965308 -0.266475 2.56279e-20)
(0.965451 -0.266282 -3.30665e-20)
(0.965597 -0.266108 -1.41258e-20)
(0.965745 -0.265952 9.02726e-20)
(0.965892 -0.265808 -2.27865e-19)
(0.966035 -0.265672 -1.77137e-20)
(0.966169 -0.265549 -8.65894e-20)
(0.966293 -0.265453 -3.52581e-20)
(0.966401 -0.265394 -1.73694e-20)
(0.966494 -0.265376 -8.45506e-20)
(0.966568 -0.265399 9.0943e-20)
(0.966622 -0.265461 3.25339e-20)
(0.966657 -0.265561 3.69396e-20)
(0.966674 -0.26569 3.4565e-21)
(0.966678 -0.265835 1.24991e-20)
(0.966676 -0.265977 2.48639e-20)
(0.966679 -0.266086 -1.37573e-19)
(0.966701 -0.266125 -2.54362e-19)
(0.966757 -0.26605 -7.43378e-20)
(0.966857 -0.265815 -1.67128e-19)
(0.967009 -0.265372 2.81417e-19)
(0.967212 -0.264682 -1.8438e-18)
(0.967451 -0.263715 -5.46755e-19)
(0.967692 -0.262451 5.92522e-19)
(0.96788 -0.260879 -3.79844e-19)
(0.967938 -0.258996 -2.8593e-18)
(0.967826 -0.256838 4.17456e-19)
(0.967491 -0.254314 3.57165e-18)
(0.967335 -0.250883 1.20488e-17)
(0.968005 -0.244151 -1.41242e-17)
(0.963321 -0.237597 1.07236e-17)
(0.981467 -0.252908 -4.6418e-18)
(0.962944 -0.272703 -3.61013e-21)
(0.963143 -0.272768 1.45745e-20)
(0.963212 -0.272824 -2.39912e-20)
(0.963289 -0.272941 1.78958e-20)
(0.963414 -0.273172 1.14159e-20)
(0.963576 -0.273484 -1.22476e-20)
(0.963757 -0.273806 9.71425e-22)
(0.963944 -0.274075 -8.99589e-21)
(0.964128 -0.274261 -3.00097e-20)
(0.964298 -0.274358 5.77288e-20)
(0.964449 -0.274378 -8.91243e-20)
(0.964576 -0.274335 7.81495e-20)
(0.964677 -0.274244 6.81792e-20)
(0.964752 -0.274114 -1.05895e-19)
(0.964803 -0.273951 -3.38842e-20)
(0.964831 -0.273759 1.27907e-19)
(0.96484 -0.27354 -1.53255e-19)
(0.964836 -0.273294 2.09195e-19)
(0.964823 -0.273024 -4.17969e-20)
(0.964806 -0.272732 1.99102e-20)
(0.964791 -0.272424 -3.74376e-20)
(0.964783 -0.272102 -4.43388e-20)
(0.964786 -0.271773 -7.66786e-20)
(0.964802 -0.27144 1.29425e-19)
(0.964835 -0.271108 -8.84077e-20)
(0.964884 -0.27078 -8.01645e-20)
(0.964951 -0.27046 1.61073e-19)
(0.965035 -0.27015 -1.46649e-19)
(0.965135 -0.269853 2.18379e-19)
(0.965249 -0.269573 -1.17573e-19)
(0.965377 -0.269312 7.12141e-20)
(0.965517 -0.269074 -1.25567e-19)
(0.965666 -0.268851 1.12495e-19)
(0.96582 -0.268637 -2.42087e-20)
(0.965977 -0.268438 -8.83239e-21)
(0.966135 -0.268264 -8.77477e-21)
(0.966289 -0.268126 -5.54152e-20)
(0.966437 -0.268025 7.81479e-20)
(0.966577 -0.267959 -4.43193e-20)
(0.966706 -0.267924 -1.86961e-19)
(0.966823 -0.267916 -3.75302e-20)
(0.966927 -0.267926 -5.53401e-21)
(0.967021 -0.267939 2.8513e-20)
(0.967108 -0.267934 7.00376e-20)
(0.967195 -0.267884 1.58323e-20)
(0.967292 -0.267753 -3.5548e-19)
(0.967409 -0.267499 6.65931e-19)
(0.967556 -0.267079 8.02072e-19)
(0.96774 -0.266446 5.62222e-19)
(0.967965 -0.265562 1.28888e-18)
(0.968223 -0.264391 -1.18547e-18)
(0.968494 -0.262905 3.78538e-19)
(0.968743 -0.261069 4.32636e-18)
(0.968918 -0.25884 -1.436e-18)
(0.969014 -0.25619 -1.44753e-18)
(0.968986 -0.25296 4.39822e-18)
(0.969245 -0.248597 -2.39621e-18)
(0.970375 -0.24104 -6.26956e-18)
(0.96552 -0.235528 -1.68601e-17)
(0.982684 -0.253418 -2.94169e-19)
(0.962916 -0.275541 4.19394e-21)
(0.963158 -0.275572 -1.88917e-20)
(0.96323 -0.275608 9.25952e-21)
(0.963304 -0.275683 1.70685e-20)
(0.963425 -0.275863 -3.64081e-20)
(0.963586 -0.276134 3.04458e-20)
(0.963771 -0.27643 -2.00383e-20)
(0.963971 -0.276694 1.69626e-20)
(0.964176 -0.276892 2.66729e-20)
(0.964378 -0.277019 -6.43198e-20)
(0.964571 -0.277082 9.25742e-20)
(0.96475 -0.277095 3.87355e-20)
(0.96491 -0.27707 -1.56131e-19)
(0.965046 -0.277014 -2.84961e-20)
(0.965158 -0.276932 8.29017e-20)
(0.965243 -0.276825 5.25492e-20)
(0.965299 -0.276691 -6.40314e-20)
(0.96533 -0.276528 5.53466e-20)
(0.965339 -0.276335 8.3434e-20)
(0.965328 -0.276113 -4.28453e-20)
(0.965304 -0.275861 -2.41747e-20)
(0.965272 -0.275583 7.93448e-20)
(0.965239 -0.275283 1.58613e-19)
(0.96521 -0.274963 -1.20933e-19)
(0.96519 -0.27463 -1.25071e-19)
(0.965183 -0.274288 1.32105e-19)
(0.965193 -0.273942 -1.01236e-19)
(0.965221 -0.273597 -3.67566e-20)
(0.96527 -0.273255 3.03483e-19)
(0.96534 -0.272924 -1.3006e-19)
(0.965432 -0.272608 -8.36066e-20)
(0.965544 -0.272309 1.15513e-19)
(0.965675 -0.272024 7.04362e-20)
(0.965822 -0.271744 -6.21071e-20)
(0.965984 -0.271474 -3.71998e-20)
(0.966159 -0.271224 9.54764e-20)
(0.966345 -0.271002 4.93075e-21)
(0.966539 -0.270811 2.83393e-20)
(0.966738 -0.270644 -9.50778e-20)
(0.966941 -0.270496 -6.93562e-20)
(0.967145 -0.27036 8.54101e-20)
(0.967349 -0.270225 8.01576e-21)
(0.967553 -0.270076 -7.77085e-20)
(0.967758 -0.269891 1.3125e-19)
(0.967968 -0.269641 2.48981e-19)
(0.968188 -0.269292 1.89596e-19)
(0.968426 -0.268804 -6.80658e-19)
(0.968687 -0.268134 -8.84499e-19)
(0.968978 -0.267237 1.16067e-18)
(0.969301 -0.266074 2.26323e-18)
(0.969652 -0.264608 1.76866e-19)
(0.970015 -0.262805 -6.96724e-19)
(0.970363 -0.260621 1.09983e-19)
(0.970653 -0.257996 1.9409e-18)
(0.970885 -0.254889 -2.43292e-18)
(0.970989 -0.251164 -1.33988e-18)
(0.971343 -0.246379 -2.43831e-18)
(0.972554 -0.238797 1.84527e-17)
(0.9674 -0.234514 8.04133e-19)
(0.983653 -0.254273 -5.76228e-19)
(0.963099 -0.277635 -6.95065e-21)
(0.963327 -0.27766 -5.48323e-21)
(0.96337 -0.2777 7.57164e-21)
(0.963416 -0.277758 2.63403e-20)
(0.963512 -0.277913 -5.64349e-20)
(0.96365 -0.278158 6.41389e-20)
(0.963816 -0.278435 -3.20883e-21)
(0.964 -0.278687 -4.17803e-21)
(0.964196 -0.278883 -2.24192e-20)
(0.964398 -0.279017 5.36392e-20)
(0.964601 -0.279097 -8.28298e-20)
(0.964802 -0.279139 3.12886e-20)
(0.964994 -0.279152 -9.71704e-22)
(0.965176 -0.279146 4.84455e-20)
(0.965342 -0.279125 2.26072e-20)
(0.965487 -0.279088 -1.21726e-19)
(0.965607 -0.279035 1.05317e-19)
(0.965701 -0.27896 4.04479e-20)
(0.965767 -0.27886 -1.17321e-19)
(0.965805 -0.278731 5.73587e-20)
(0.965818 -0.278573 2.5612e-20)
(0.96581 -0.278382 -1.83529e-20)
(0.965787 -0.278162 1.91904e-20)
(0.965754 -0.277912 -1.37085e-20)
(0.965719 -0.277636 -1.33811e-19)
(0.965687 -0.277339 8.48196e-20)
(0.965664 -0.277025 -1.24946e-19)
(0.965656 -0.276699 2.23264e-19)
(0.965666 -0.276364 -4.62177e-20)
(0.965698 -0.276028 -2.54439e-20)
(0.965754 -0.275696 -7.89227e-21)
(0.965835 -0.275373 1.80642e-19)
(0.965943 -0.275053 -7.93719e-20)
(0.966075 -0.274731 -4.46367e-20)
(0.966231 -0.274411 8.92647e-20)
(0.966412 -0.274101 6.36676e-20)
(0.966616 -0.273809 -9.95985e-20)
(0.966843 -0.273535 1.98627e-20)
(0.967088 -0.273274 1.16744e-19)
(0.967352 -0.273017 -6.96427e-21)
(0.96763 -0.272756 2.71873e-20)
(0.967923 -0.272478 2.42798e-21)
(0.968228 -0.272166 -5.59496e-20)
(0.968546 -0.271799 -2.44671e-19)
(0.968876 -0.271348 -6.75559e-20)
(0.969222 -0.270779 2.28706e-19)
(0.969587 -0.270053 9.15817e-19)
(0.969974 -0.269129 -3.50968e-19)
(0.970384 -0.267965 -3.66701e-19)
(0.970819 -0.266521 -6.82374e-19)
(0.971273 -0.264763 -8.82325e-20)
(0.971729 -0.262656 2.8223e-18)
(0.972163 -0.260158 -2.9291e-18)
(0.97253 -0.257209 2.36737e-18)
(0.972822 -0.253781 -6.07477e-18)
(0.972945 -0.249785 -1.54075e-18)
(0.973258 -0.244881 -9.53163e-18)
(0.974442 -0.237481 -1.69204e-17)
(0.968984 -0.234222 -3.28839e-18)
(0.984497 -0.255349 -2.75214e-18)
(0.963308 -0.279209 -3.31304e-21)
(0.963501 -0.279239 2.8542e-21)
(0.963512 -0.279294 1.41093e-20)
(0.963528 -0.279353 2.19846e-20)
(0.963597 -0.279499 -6.52456e-20)
(0.963709 -0.279734 3.7273e-20)
(0.963851 -0.280002 -6.52531e-20)
(0.964013 -0.280246 1.01639e-19)
(0.964188 -0.280436 -4.74105e-20)
(0.964373 -0.280569 8.24083e-21)
(0.964565 -0.280652 8.91909e-20)
(0.964762 -0.280701 -2.02892e-19)
(0.964961 -0.280728 1.37988e-19)
(0.965161 -0.280745 1.8986e-20)
(0.965356 -0.280755 3.02506e-20)
(0.965544 -0.28076 -1.29104e-19)
(0.965717 -0.28076 6.31486e-20)
(0.965871 -0.28075 -7.73159e-20)
(0.966001 -0.280725 1.50405e-19)
(0.966105 -0.28068 -2.12197e-20)
(0.966181 -0.280611 -1.86646e-19)
(0.96623 -0.280514 7.46102e-20)
(0.966253 -0.280387 -4.35556e-21)
(0.966257 -0.280229 -2.55865e-19)
(0.966247 -0.28004 1.9316e-19)
(0.966228 -0.279822 1.3872e-19)
(0.966208 -0.279576 8.67959e-20)
(0.966194 -0.279308 -1.15371e-19)
(0.966191 -0.279019 -1.17911e-19)
(0.966206 -0.278717 5.47808e-20)
(0.966243 -0.278407 7.07547e-20)
(0.966306 -0.278093 -8.21822e-20)
(0.966398 -0.277772 -1.07603e-19)
(0.966518 -0.277436 2.31311e-19)
(0.966668 -0.277091 2.09986e-20)
(0.966852 -0.276743 -2.66612e-19)
(0.967068 -0.276401 3.04151e-20)
(0.967317 -0.276064 1.23833e-19)
(0.967598 -0.275724 5.49158e-21)
(0.967908 -0.275373 1.00456e-19)
(0.968246 -0.275002 -2.53161e-20)
(0.968611 -0.274595 2.89728e-20)
(0.969 -0.274137 3.11137e-20)
(0.969412 -0.273604 -9.27327e-20)
(0.969846 -0.27297 -2.25726e-19)
(0.970302 -0.2722 -1.06454e-18)
(0.970778 -0.271258 -1.17313e-19)
(0.971277 -0.270106 1.00172e-18)
(0.971795 -0.268702 -1.07322e-18)
(0.97233 -0.267012 -4.25543e-18)
(0.972872 -0.265 4.06023e-18)
(0.973405 -0.262639 -5.75218e-18)
(0.973901 -0.25989 4.0854e-18)
(0.974311 -0.256703 2.95287e-18)
(0.97462 -0.253068 1.25809e-17)
(0.974712 -0.248939 8.82712e-19)
(0.974951 -0.244035 6.00357e-18)
(0.97609 -0.236817 9.12787e-18)
(0.970347 -0.234337 -7.46347e-18)
(0.985328 -0.256474 -9.24956e-19)
(0.963472 -0.280437 4.53199e-21)
(0.963631 -0.280478 1.52209e-21)
(0.963614 -0.280549 -1.6198e-20)
(0.963607 -0.280612 1.53425e-20)
(0.963655 -0.280756 -6.7415e-21)
(0.963747 -0.280988 1.17604e-20)
(0.963868 -0.281252 3.79232e-21)
(0.964008 -0.281493 -5.73505e-20)
(0.964162 -0.281681 2.51306e-20)
(0.964326 -0.281812 -1.63324e-20)
(0.964498 -0.281893 1.03233e-20)
(0.964678 -0.281942 3.86159e-20)
(0.964866 -0.281971 -7.21852e-21)
(0.965061 -0.281993 2.30571e-20)
(0.965263 -0.282015 -9.71813e-20)
(0.965467 -0.282038 3.78627e-20)
(0.965669 -0.282064 1.67047e-20)
(0.965863 -0.28209 -4.31921e-20)
(0.966046 -0.282111 8.55986e-20)
(0.966209 -0.282123 2.70612e-20)
(0.966349 -0.282122 -3.56126e-21)
(0.966464 -0.2821 -2.83175e-20)
(0.966551 -0.282056 1.14117e-19)
(0.966615 -0.281985 -3.07265e-19)
(0.966656 -0.281884 1.58104e-19)
(0.966681 -0.281752 6.29355e-20)
(0.966695 -0.28159 -1.04597e-19)
(0.966706 -0.281398 1.76767e-19)
(0.96672 -0.281178 -8.8992e-20)
(0.966744 -0.280935 -4.10657e-20)
(0.966785 -0.280672 -7.31418e-20)
(0.96685 -0.280395 -2.1862e-20)
(0.96694 -0.280098 7.70096e-20)
(0.967061 -0.279774 -1.99877e-19)
(0.967214 -0.279429 3.51173e-19)
(0.967404 -0.279067 -2.75532e-20)
(0.967633 -0.278696 1.23785e-19)
(0.967902 -0.278317 -2.7484e-19)
(0.968211 -0.277919 -5.12739e-20)
(0.968559 -0.277495 2.43517e-21)
(0.968945 -0.277034 1.84521e-20)
(0.969367 -0.276521 3.96413e-20)
(0.969824 -0.275939 1.65281e-19)
(0.970312 -0.275265 -1.26736e-19)
(0.97083 -0.274474 -1.69605e-19)
(0.971375 -0.273533 1.06869e-18)
(0.971944 -0.272408 -1.80462e-18)
(0.972535 -0.271062 -3.40219e-19)
(0.973141 -0.269458 -2.36008e-19)
(0.973758 -0.267562 3.10137e-18)
(0.974371 -0.265344 -1.22046e-18)
(0.974961 -0.262783 3.10625e-18)
(0.975499 -0.259845 -7.6014e-18)
(0.975932 -0.256491 -1.62123e-18)
(0.976237 -0.252727 9.46149e-18)
(0.976286 -0.248537 -4.1799e-18)
(0.976455 -0.243669 1.47769e-17)
(0.977549 -0.236607 4.38114e-18)
(0.97154 -0.234715 2.7025e-17)
(0.986173 -0.257589 3.38054e-18)
(0.963576 -0.281424 -9.85323e-22)
(0.963707 -0.281474 -3.81823e-21)
(0.963671 -0.281558 -3.23498e-21)
(0.963648 -0.281627 3.15385e-20)
(0.963681 -0.281773 -1.75636e-20)
(0.963758 -0.282005 -2.03893e-20)
(0.963864 -0.28227 -7.23438e-21)
(0.963988 -0.282511 -2.99997e-20)
(0.964124 -0.282699 1.95535e-20)
(0.964268 -0.282828 3.15061e-21)
(0.96442 -0.282907 1.30299e-21)
(0.964579 -0.282953 7.77793e-20)
(0.964747 -0.28298 -5.50296e-20)
(0.964926 -0.283 -6.5929e-21)
(0.965117 -0.283022 6.14331e-20)
(0.965318 -0.283049 -3.38468e-20)
(0.965526 -0.283083 -1.24443e-20)
(0.965739 -0.283124 2.07649e-20)
(0.965951 -0.283168 6.4129e-20)
(0.966155 -0.283213 3.32853e-20)
(0.966345 -0.283253 1.01243e-20)
(0.966518 -0.283283 -8.64125e-20)
(0.966669 -0.283299 4.10372e-20)
(0.966797 -0.283296 7.78008e-20)
(0.966902 -0.283269 -1.62014e-19)
(0.966987 -0.283215 4.8331e-20)
(0.967055 -0.283132 -1.91885e-19)
(0.967113 -0.283019 1.50929e-19)
(0.967167 -0.282873 1.20472e-19)
(0.967224 -0.282699 -1.89351e-19)
(0.967291 -0.282498 -7.93184e-20)
(0.967377 -0.282272 9.9972e-20)
(0.967485 -0.282017 3.19725e-20)
(0.96762 -0.281725 -7.37017e-20)
(0.967788 -0.281398 -7.85976e-20)
(0.967994 -0.281043 -8.27417e-20)
(0.968241 -0.280664 5.6483e-20)
(0.968533 -0.280262 1.00605e-19)
(0.96887 -0.279828 3.96617e-20)
(0.969252 -0.279351 -6.3396e-21)
(0.969679 -0.278822 -6.14611e-21)
(0.970149 -0.278226 -4.10833e-21)
(0.970661 -0.277544 -2.54825e-19)
(0.971212 -0.276757 7.63541e-19)
(0.971798 -0.275838 -1.84529e-19)
(0.972415 -0.274757 -8.1125e-21)
(0.973059 -0.273481 1.59563e-20)
(0.973725 -0.271978 1.75403e-18)
(0.974403 -0.270211 3.26199e-18)
(0.975085 -0.268151 -3.5344e-18)
(0.975754 -0.265772 -5.47904e-18)
(0.976388 -0.263055 -3.46879e-18)
(0.976957 -0.259977 7.54029e-18)
(0.977403 -0.256504 -4.81079e-18)
(0.977699 -0.252656 -1.36494e-17)
(0.97771 -0.248434 -7.12737e-18)
(0.977827 -0.243597 -1.44183e-17)
(0.978884 -0.236638 -9.57713e-18)
(0.972627 -0.235179 -2.63782e-17)
(0.987065 -0.258629 1.03875e-17)
(0.963623 -0.282244 1.24945e-21)
(0.963734 -0.282303 -3.72001e-21)
(0.963685 -0.282396 1.3085e-20)
(0.963651 -0.282469 3.19871e-21)
(0.963674 -0.282616 -1.76286e-20)
(0.963742 -0.282848 -1.95691e-20)
(0.963837 -0.283114 4.62136e-20)
(0.963949 -0.283356 -4.94664e-20)
(0.964071 -0.283544 -1.13857e-20)
(0.9642 -0.283673 2.99838e-20)
(0.964333 -0.283752 2.69492e-20)
(0.964473 -0.283797 8.02547e-20)
(0.964621 -0.283822 -4.62678e-20)
(0.964781 -0.283839 -7.66343e-20)
(0.964953 -0.283858 1.68025e-20)
(0.96514 -0.283883 -6.01731e-20)
(0.965341 -0.283917 4.5644e-20)
(0.965553 -0.28396 -7.31029e-20)
(0.965774 -0.284011 1.34841e-20)
(0.965999 -0.284068 -2.11587e-20)
(0.966221 -0.284129 -1.18479e-20)
(0.966436 -0.284187 -5.9221e-20)
(0.966638 -0.284241 8.8274e-21)
(0.966823 -0.284283 1.28798e-19)
(0.966989 -0.28431 -4.08774e-20)
(0.967136 -0.284317 1.45601e-20)
(0.967266 -0.284299 3.69909e-20)
(0.967382 -0.284253 -4.45312e-20)
(0.96749 -0.284176 -7.23849e-21)
(0.967596 -0.284069 5.51029e-20)
(0.967707 -0.283931 6.04482e-20)
(0.96783 -0.283764 -4.43033e-20)
(0.967972 -0.283559 -1.20314e-19)
(0.968137 -0.283308 -1.4502e-19)
(0.968332 -0.283014 2.19132e-19)
(0.968565 -0.282679 5.19717e-20)
(0.968839 -0.282308 3.45246e-20)
(0.969159 -0.281901 8.18109e-20)
(0.969527 -0.281448 -5.47387e-20)
(0.969944 -0.280938 1.55303e-20)
(0.970409 -0.280362 -2.11873e-20)
(0.970923 -0.279704 9.18481e-21)
(0.971483 -0.278947 9.85325e-20)
(0.972087 -0.278071 -3.61965e-19)
(0.972731 -0.277051 7.15224e-19)
(0.973409 -0.275859 -5.96699e-19)
(0.974115 -0.274464 1.94826e-18)
(0.974842 -0.272836 -5.3102e-19)
(0.97558 -0.270941 -1.7432e-18)
(0.976315 -0.268752 3.66916e-18)
(0.97703 -0.266246 8.62356e-19)
(0.9777 -0.263411 1.01226e-19)
(0.978295 -0.260228 1.59511e-18)
(0.978753 -0.25667 5.32955e-18)
(0.979042 -0.252763 -3.37202e-19)
(0.979024 -0.24852 -7.33839e-18)
(0.979103 -0.243704 9.03643e-18)
(0.980124 -0.236824 3.21017e-18)
(0.973629 -0.235702 3.39188e-18)
(0.98799 -0.259597 -7.85361e-18)
(0.963623 -0.282934 2.27541e-21)
(0.963721 -0.282996 -1.93311e-21)
(0.963663 -0.283101 1.69568e-21)
(0.963622 -0.283179 1.07475e-20)
(0.963638 -0.283329 1.51583e-20)
(0.963699 -0.283564 -5.95816e-20)
(0.963787 -0.283832 4.24933e-20)
(0.963891 -0.284076 8.29829e-21)
(0.964003 -0.284266 -2.92037e-21)
(0.96412 -0.284396 -1.81998e-20)
(0.964239 -0.284474 5.40474e-20)
(0.964363 -0.284518 -1.82769e-20)
(0.964494 -0.284541 -2.42933e-20)
(0.964634 -0.284555 -6.97167e-20)
(0.964788 -0.28457 1.38327e-19)
(0.964957 -0.28459 -2.95961e-20)
(0.965141 -0.28462 -2.42393e-20)
(0.965343 -0.28466 -6.72344e-20)
(0.965561 -0.28471 7.37779e-20)
(0.96579 -0.284769 3.89848e-20)
(0.966027 -0.284836 -1.81294e-20)
(0.966266 -0.284906 2.91142e-20)
(0.966502 -0.284979 -1.2378e-19)
(0.96673 -0.285047 1.02383e-20)
(0.966947 -0.285107 6.65244e-20)
(0.96715 -0.285155 -1.25321e-20)
(0.967339 -0.285185 -1.79479e-19)
(0.967516 -0.285192 2.25105e-20)
(0.967683 -0.285171 1.50718e-19)
(0.967845 -0.285121 -3.51362e-20)
(0.96801 -0.285041 -6.9402e-20)
(0.968182 -0.284928 3.15708e-20)
(0.968369 -0.284775 9.7484e-20)
(0.968576 -0.284571 2.05712e-19)
(0.96881 -0.284314 -3.3043e-20)
(0.969079 -0.284008 1.03764e-20)
(0.969388 -0.283656 -1.8294e-19)
(0.969743 -0.283256 -4.22436e-20)
(0.970147 -0.282798 1.15812e-20)
(0.970601 -0.282272 4.86308e-21)
(0.971106 -0.281666 4.68838e-21)
(0.971663 -0.280966 -3.81974e-20)
(0.972269 -0.280154 -7.75236e-20)
(0.972921 -0.279211 -2.78928e-19)
(0.973616 -0.278115 -1.19476e-18)
(0.974348 -0.276837 1.21994e-18)
(0.975109 -0.275349 -2.39298e-18)
(0.97589 -0.273623 -2.13871e-18)
(0.97668 -0.271628 4.58853e-20)
(0.977464 -0.269339 -3.93813e-18)
(0.97822 -0.266735 6.09214e-18)
(0.978923 -0.263808 8.49767e-18)
(0.979542 -0.260543 -7.62552e-18)
(0.980014 -0.256919 -7.60741e-18)
(0.980302 -0.252967 3.8012e-18)
(0.980265 -0.248703 2.4628e-17)
(0.980318 -0.243891 -6.96019e-18)
(0.981308 -0.23705 9.79292e-18)
(0.974586 -0.236178 1.33799e-17)
(0.988963 -0.260455 -6.63217e-18)
(0.963594 -0.283533 -2.39826e-21)
(0.963683 -0.283603 2.62927e-21)
(0.963619 -0.283716 1.73318e-20)
(0.963572 -0.283799 -2.25605e-20)
(0.963584 -0.283953 3.97608e-20)
(0.963641 -0.284191 -5.7772e-20)
(0.963724 -0.284462 1.63469e-20)
(0.963822 -0.284709 -5.70613e-22)
(0.963927 -0.2849 3.38158e-20)
(0.964034 -0.285031 -1.78336e-20)
(0.964143 -0.28511 4.9162e-21)
(0.964254 -0.285153 4.94455e-21)
(0.964369 -0.285175 -7.87946e-20)
(0.964493 -0.285187 2.43348e-20)
(0.964629 -0.285199 5.32867e-20)
(0.96478 -0.285215 1.12033e-21)
(0.964947 -0.28524 -8.4802e-20)
(0.965134 -0.285274 3.46053e-20)
(0.96534 -0.285318 1.53442e-19)
(0.965563 -0.285373 -1.0071e-19)
(0.965801 -0.285437 -7.18936e-20)
(0.96605 -0.285508 6.07229e-20)
(0.966305 -0.285586 3.52311e-20)
(0.966562 -0.285665 3.7834e-20)
(0.966816 -0.285742 -7.49073e-20)
(0.967064 -0.285814 -1.48732e-19)
(0.967304 -0.285873 1.16597e-19)
(0.967535 -0.285917 1.49468e-19)
(0.967759 -0.285937 2.78878e-20)
(0.96798 -0.285933 -7.09076e-20)
(0.9682 -0.285899 2.94846e-20)
(0.968428 -0.285834 3.52704e-20)
(0.968667 -0.285727 -7.84985e-20)
(0.968924 -0.285566 -2.80272e-20)
(0.969205 -0.285349 -1.00235e-19)
(0.969518 -0.285076 -2.26975e-20)
(0.96987 -0.284749 7.33682e-21)
(0.970266 -0.284364 2.79665e-20)
(0.970711 -0.283912 -1.33716e-20)
(0.971207 -0.283381 -1.68278e-21)
(0.971754 -0.282759 -2.7085e-20)
(0.972354 -0.282032 -1.77166e-20)
(0.973005 -0.281183 3.41394e-19)
(0.973705 -0.280192 6.59897e-19)
(0.97445 -0.279039 7.07892e-19)
(0.975232 -0.277696 -1.80177e-18)
(0.976044 -0.276138 -1.92643e-19)
(0.976876 -0.274337 1.01554e-18)
(0.977714 -0.272264 -6.66915e-19)
(0.978543 -0.269898 4.80941e-18)
(0.979338 -0.267217 -2.68437e-18)
(0.980074 -0.264217 -8.62256e-18)
(0.98072 -0.260888 5.09794e-19)
(0.98121 -0.257209 1.01529e-17)
(0.981503 -0.253218 -5.49266e-18)
(0.981454 -0.248932 -6.10556e-18)
(0.981488 -0.244115 -9.44508e-18)
(0.982439 -0.237309 -2.77752e-17)
(0.975497 -0.236633 -2.46668e-17)
(0.989963 -0.261224 1.51614e-17)
(0.963543 -0.284064 -1.98339e-21)
(0.963627 -0.284138 2.84907e-21)
(0.963559 -0.28426 5.50432e-22)
(0.963509 -0.284348 1.02778e-20)
(0.963519 -0.284506 -1.55818e-20)
(0.963573 -0.284749 -3.05804e-20)
(0.963653 -0.285024 1.15215e-20)
(0.963747 -0.285273 -1.34123e-20)
(0.963846 -0.285466 3.03294e-20)
(0.963947 -0.285598 -5.81643e-21)
(0.964047 -0.285677 -1.86761e-20)
(0.964147 -0.28572 1.58256e-20)
(0.96425 -0.28574 2.45144e-20)
(0.964359 -0.285751 6.53146e-20)
(0.964479 -0.285759 -1.18371e-19)
(0.964613 -0.285772 5.9237e-20)
(0.964764 -0.285793 8.27518e-21)
(0.964933 -0.285822 -5.57195e-20)
(0.965125 -0.28586 -3.2693e-20)
(0.965337 -0.285909 1.0691e-19)
(0.965568 -0.285968 -1.08119e-19)
(0.965817 -0.286034 3.31928e-20)
(0.966079 -0.28611 -7.95313e-20)
(0.966352 -0.28619 1.30557e-19)
(0.966631 -0.286273 -2.55532e-20)
(0.966911 -0.286355 -6.45746e-20)
(0.967191 -0.28643 5.39334e-20)
(0.967468 -0.286496 9.11978e-20)
(0.967743 -0.286543 -8.24964e-20)
(0.968017 -0.28657 4.83659e-20)
(0.968293 -0.286572 -1.36095e-19)
(0.968576 -0.286544 -8.88601e-21)
(0.96887 -0.286476 5.20014e-20)
(0.96918 -0.286353 -2.69259e-20)
(0.969513 -0.286172 -3.73978e-20)
(0.969876 -0.285931 -6.53157e-20)
(0.970276 -0.28563 7.08652e-20)
(0.970719 -0.285266 -5.05996e-21)
(0.971209 -0.284825 8.40843e-21)
(0.97175 -0.284297 -3.0474e-20)
(0.972343 -0.28367 -5.86689e-20)
(0.972989 -0.282928 6.37684e-20)
(0.973687 -0.282055 -2.40706e-19)