/*--------------------------------*- C++ -*----------------------------------*\
  =========                 |
  \\      /  F ield         | OpenFOAM: The Open Source CFD Toolbox
   \\    /   O peration     | Website:  https://openfoam.org
    \\  /    A nd           | Version:  6.0
     \\/     M anipulation  |
\*---------------------------------------------------------------------------*/
FoamFile
{
    version     2.0;
    format      ascii;
    class       surfaceScalarField;
    location    "12";
    object      phi;
}
// * * * * * * * * * * * * * * * * * * * * * * * * * * * * * * * * * * * * * //

dimensions      [0 3 -1 0 0 0 0];

internalField   nonuniform List<scalar> 
30763
(
-5.29917e-05
4.48211e-05
5.45442e-05
-5.12018e-05
5.25463e-05
-4.90877e-05
6.16048e-05
-4.66242e-05
7.22271e-05
-4.37213e-05
8.46802e-05
-4.03262e-05
9.9285e-05
-3.63372e-05
0.000116415
-3.16438e-05
0.00013648
-2.61312e-05
0.00016003
-1.96309e-05
0.000187605
-1.19722e-05
0.00021994
-2.95152e-06
0.000257819
7.69166e-06
0.000302166
2.02503e-05
0.000354039
3.50534e-05
0.000414672
5.24845e-05
0.0004854
7.29968e-05
0.000567678
9.70841e-05
0.000663041
0.000125289
0.000772951
0.000158212
0.000898587
0.000196488
0.00104047
0.000240704
0.00119787
0.000291355
0.00136765
0.000348676
0.00154273
0.000412375
0.00170943
0.000481226
0.0018437
0.000552575
0.00190537
0.000621326
0.0018312
0.000678711
0.00152376
0.00084062
0.000696729
-5.14225e-05
4.33431e-05
5.29187e-05
-4.9694e-05
5.08135e-05
-4.7654e-05
5.95733e-05
-4.52744e-05
6.98455e-05
-4.24716e-05
8.18848e-05
-3.91925e-05
9.60051e-05
-3.53408e-05
0.000112569
-3.08088e-05
0.000131949
-2.54868e-05
0.000154713
-1.9211e-05
0.000181331
-1.18188e-05
0.000212551
-3.11004e-06
0.000249113
7.1622e-06
0.000291897
1.92842e-05
0.00034192
3.3568e-05
0.000400391
5.03872e-05
0.000468586
7.01775e-05
0.0005479
9.34119e-05
0.000639823
0.000120616
0.000745764
0.000152367
0.000866854
0.000189277
0.00100358
0.000231914
0.00115526
0.000280754
0.00131886
0.000336024
0.00148754
0.000397437
0.00164815
0.000463815
0.00177752
0.000532587
0.00183687
0.000598886
0.00176519
0.000651801
0.00147118
0.000820261
0.000672705
-4.99812e-05
4.19171e-05
5.14224e-05
-4.83114e-05
4.91412e-05
-4.63435e-05
5.76124e-05
-4.40461e-05
6.75463e-05
-4.13403e-05
7.91857e-05
-3.81745e-05
9.28382e-05
-3.44555e-05
0.000108857
-3.00802e-05
0.000127574
-2.49428e-05
0.00014958
-1.88859e-05
0.000175275
-1.17531e-05
0.000205422
-3.35189e-06
0.000240713
6.55558e-06
0.000281992
1.82448e-05
0.000330233
3.20162e-05
0.000386622
4.82322e-05
0.000452375
6.73116e-05
0.000528831
8.97137e-05
0.000617435
0.000115946
0.000719547
0.000146567
0.000836245
0.000182173
0.000967991
0.000223309
0.00111415
0.000270432
0.00127177
0.000323752
0.00143427
0.000382987
0.00158897
0.000447002
0.00171356
0.000513294
0.00177065
0.000577244
0.00170124
0.000629114
0.00141924
0.000796079
0.000652904
-4.85803e-05
4.05431e-05
4.99691e-05
-4.69722e-05
4.75295e-05
-4.50745e-05
5.57221e-05
-4.28588e-05
6.53294e-05
-4.02502e-05
7.65828e-05
-3.71959e-05
8.97836e-05
-3.36097e-05
0.000105275
-2.93888e-05
0.000123353
-2.44336e-05
0.000144629
-1.85908e-05
0.000169433
-1.17111e-05
0.000198546
-3.60803e-06
0.000232612
5.94609e-06
0.000272441
1.72178e-05
0.000318963
3.04967e-05
0.000373344
4.61329e-05
0.000436743
6.4532e-05
0.000510441
8.61363e-05
0.000595842
0.000111438
0.000694258
0.000140977
0.000806716
0.000175328
0.000933651
0.000215018
0.00107447
0.000260481
0.00122634
0.000311911
0.00138288
0.000369031
0.00153192
0.000430761
0.00165194
0.000494665
0.00170691
0.000556347
0.00163974
0.000607129
0.0013687
0.000772092
0.00063148
-4.71511e-05
3.92208e-05
4.84871e-05
-4.56015e-05
4.59785e-05
-4.37767e-05
5.39027e-05
-4.16445e-05
6.31956e-05
-3.91335e-05
7.40771e-05
-3.61936e-05
8.68425e-05
-3.27395e-05
0.000101826
-2.8674e-05
0.000119288
-2.38998e-05
0.000139859
-1.82696e-05
0.000163805
-1.16389e-05
0.000191918
-3.82842e-06
0.000224803
5.3823e-06
0.000263233
1.62496e-05
0.000308097
2.90537e-05
0.000360542
4.41321e-05
0.000421669
6.18747e-05
0.000492705
8.27121e-05
0.000575018
0.000107114
0.000669865
0.000135605
0.000778233
0.000168737
0.000900525
0.000207015
0.0010362
0.000250856
0.00118251
0.000300441
0.00133332
0.000355505
0.00147688
0.000415021
0.00159245
0.000476636
0.00164532
0.000536095
0.00158023
0.000585336
0.00131934
0.000747554
0.000609395
-4.5711e-05
3.79483e-05
4.69942e-05
-4.42217e-05
4.44863e-05
-4.24655e-05
5.21528e-05
-4.04135e-05
6.11432e-05
-3.79983e-05
7.16669e-05
-3.51689e-05
8.40134e-05
-3.18464e-05
9.85071e-05
-2.79338e-05
0.000115376
-2.33392e-05
0.000135267
-1.79184e-05
0.000158385
-1.15333e-05
0.000185535
-4.00884e-06
0.000217281
4.86597e-06
0.00025436
1.53399e-05
0.000297625
2.76822e-05
0.000348201
4.22176e-05
0.000407137
5.93255e-05
0.000475607
7.9415e-05
0.000554937
0.000102944
0.000646346
0.000130414
0.000750771
0.000162355
0.000868589
0.000199258
0.000999308
0.000241519
0.00114026
0.000289316
0.00128555
0.000342396
0.00142385
0.000399781
0.00153514
0.000459208
0.00158602
0.000516512
0.00152306
0.000564161
0.00127187
0.000723848
0.000588167
-4.43023e-05
3.67229e-05
4.55396e-05
-4.28673e-05
4.305e-05
-4.11791e-05
5.04687e-05
-3.92064e-05
5.91684e-05
-3.68837e-05
6.93481e-05
-3.41633e-05
8.12915e-05
-3.09669e-05
9.53143e-05
-2.72024e-05
0.000111612
-2.27805e-05
0.000130848
-1.75626e-05
0.000153169
-1.14149e-05
0.00017939
-4.16902e-06
0.000210037
4.38034e-06
0.000245813
1.44719e-05
0.000287535
2.63658e-05
0.000336308
4.03758e-05
0.000393131
5.6864e-05
0.000459124
7.62295e-05
0.000535582
9.89096e-05
0.000623675
0.000125387
0.000724299
0.000156175
0.000837804
0.000191742
0.000963741
0.000232477
0.00109953
0.000278552
0.00123948
0.000329728
0.00137268
0.000385072
0.0014798
0.000442409
0.00152868
0.000497658
0.00146775
0.000543829
0.00122556
0.000699072
0.000568114
-4.29945e-05
3.55397e-05
4.4185e-05
-4.16112e-05
4.16639e-05
-3.99813e-05
4.88444e-05
-3.80774e-05
5.72646e-05
-3.58384e-05
6.71137e-05
-3.32155e-05
7.86696e-05
-3.01371e-05
9.22394e-05
-2.65111e-05
0.000107987
-2.22536e-05
0.000126593
-1.72285e-05
0.000148145
-1.13084e-05
0.000173472
-4.32868e-06
0.000203059
3.90714e-06
0.000237579
1.36306e-05
0.000277813
2.5092e-05
0.000324848
3.8593e-05
0.000379633
5.44847e-05
0.000443241
7.31477e-05
0.000516926
9.50066e-05
0.000601825
0.000120525
0.000698785
0.000150198
0.000808136
0.000184478
0.000929467
0.000223743
0.00106028
0.000268164
0.00119508
0.000317518
0.00132337
0.000370909
0.00142648
0.000426249
0.00147345
0.000479552
0.00141456
0.000524325
0.00118095
0.000674772
0.000548906
-4.17772e-05
3.43964e-05
4.29314e-05
-4.04391e-05
4.03251e-05
-3.88679e-05
4.7276e-05
-3.70323e-05
5.5427e-05
-3.48738e-05
6.49575e-05
-3.23458e-05
7.614e-05
-2.93777e-05
8.92736e-05
-2.58822e-05
0.000104492
-2.1778e-05
0.000122491
-1.69344e-05
0.000143303
-1.12286e-05
0.000167768
-4.50263e-06
0.000196335
3.43451e-06
0.000229645
1.28053e-05
0.000268444
2.38516e-05
0.000313804
3.68643e-05
0.000366624
5.21785e-05
0.000427931
7.01674e-05
0.000498949
9.12344e-05
0.000580765
0.00011583
0.000674195
0.000144429
0.000779537
0.000177471
0.000896422
0.000215325
0.00102242
0.000258161
0.00115225
0.00030577
0.00127576
0.000357291
0.00137495
0.000410719
0.00142001
0.000462176
0.00136303
0.000505569
0.00113741
0.000649658
0.000530197
-4.06853e-05
3.32893e-05
4.17945e-05
-3.93923e-05
3.90288e-05
-3.78705e-05
4.57582e-05
-3.60931e-05
5.36495e-05
-3.40051e-05
6.2873e-05
-3.15603e-05
7.3696e-05
-2.86934e-05
8.64094e-05
-2.53182e-05
0.000101117
-2.13578e-05
0.000118533
-1.66848e-05
0.000138632
-1.11821e-05
0.000162267
-4.69556e-06
0.000189851
2.95684e-06
0.000221994
1.19913e-05
0.000259411
2.26402e-05
0.000303157
3.51827e-05
0.000354084
4.99468e-05
0.000413175
6.72844e-05
0.000481617
8.75917e-05
0.000560464
0.0001113
0.000650491
0.000138868
0.000751971
0.000170724
0.000864571
0.000207224
0.00098593
0.00024854
0.00111095
0.000294477
0.00122986
0.000344206
0.00132528
0.000395795
0.00136851
0.000445491
0.00131345
0.00048749
0.00109555
0.000625581
0.000511851
-3.96544e-05
3.22193e-05
4.07326e-05
-3.84025e-05
3.77758e-05
-3.69338e-05
4.42908e-05
-3.5218e-05
5.19309e-05
-3.32017e-05
6.08577e-05
-3.08412e-05
7.13333e-05
-2.80718e-05
8.36412e-05
-2.48117e-05
9.78572e-05
-2.09869e-05
0.000114709
-1.64752e-05
0.000134122
-1.1164e-05
0.000156957
-4.90605e-06
0.000183595
2.47585e-06
0.000214614
1.11888e-05
0.0002507
2.14572e-05
0.00029289
3.35518e-05
0.000341994
4.77842e-05
0.000398947
6.45006e-05
0.00046491
8.40787e-05
0.000540894
0.000106936
0.000627637
0.000133517
0.000725389
0.000164234
0.00083385
0.000199437
0.000950722
0.000239296
0.00107109
0.000283628
0.00118552
0.000331633
0.00127727
0.000381453
0.00131868
0.000429455
0.00126538
0.000470048
0.0010548
0.000601304
0.000493853
-3.87092e-05
3.11839e-05
3.97437e-05
-3.75e-05
3.6563e-05
-3.60765e-05
4.28705e-05
-3.44134e-05
5.02679e-05
-3.24611e-05
5.89082e-05
-3.01753e-05
6.90487e-05
-2.74974e-05
8.09652e-05
-2.43457e-05
9.47067e-05
-2.06507e-05
0.000111015
-1.62932e-05
0.000129766
-1.11659e-05
0.000151831
-5.12522e-06
0.000177556
1.99733e-06
0.000207494
1.04027e-05
0.000242296
2.03073e-05
0.000282987
3.19708e-05
0.000330333
4.56974e-05
0.000385228
6.18155e-05
0.000448797
8.06944e-05
0.000522021
0.000102736
0.000605599
0.00012837
0.000699757
0.000157996
0.000804226
0.000191955
0.000916772
0.000230415
0.00103265
0.000273204
0.00114277
0.000319549
0.00123098
0.00036766
0.00127066
0.000414027
0.00121911
0.000453212
0.00101576
0.000578531
0.000476269
-3.77709e-05
3.01851e-05
3.87767e-05
-3.66008e-05
3.53926e-05
-3.52294e-05
4.14992e-05
-3.36254e-05
4.86615e-05
-3.17418e-05
5.70245e-05
-2.95357e-05
6.68405e-05
-2.69491e-05
7.83787e-05
-2.39045e-05
9.16619e-05
-2.0335e-05
0.000107446
-1.6126e-05
0.000125558
-1.11746e-05
0.000146881
-5.34373e-06
0.000171727
1.53034e-06
0.000200622
9.64042e-06
0.000234187
1.91956e-05
0.000273434
3.04472e-05
0.000319085
4.36845e-05
0.000371994
5.92321e-05
0.000433259
7.74396e-05
0.000503819
9.86994e-05
0.000584342
0.000123425
0.000675029
0.000152005
0.00077564
0.00018477
0.000884
0.000221885
0.000995524
0.000263188
0.00110146
0.00030793
0.00118622
0.000354387
0.00122418
0.000399168
0.00117426
0.000436961
0.000977806
0.000555875
0.000459152
-3.68777e-05
2.92202e-05
3.78384e-05
-3.57502e-05
3.42615e-05
-3.44231e-05
4.01738e-05
-3.28706e-05
4.71089e-05
-3.10485e-05
5.5204e-05
-2.89142e-05
6.47069e-05
-2.64143e-05
7.58798e-05
-2.34722e-05
8.87208e-05
-2.00248e-05
0.000103999
-1.59599e-05
0.000121495
-1.11797e-05
0.000142101
-5.55041e-06
0.0001661
1.08351e-06
0.000193989
8.90937e-06
0.000226363
1.81284e-05
0.000264217
2.89817e-05
0.000308234
4.17538e-05
0.00035923
5.67492e-05
0.000418267
7.43136e-05
0.00048626
9.48224e-05
0.000563836
0.000118676
0.000651175
0.000146252
0.000748067
0.000177868
0.00085239
0.000213689
0.000959723
0.000253557
0.00106162
0.000296751
0.00114309
0.000341603
0.00117941
0.000384843
0.00113112
0.000421272
0.000941509
0.000534873
0.000442558
-3.5959e-05
2.82913e-05
3.68919e-05
-3.48703e-05
3.31721e-05
-3.35941e-05
3.88965e-05
-3.20999e-05
4.56119e-05
-3.03449e-05
5.34478e-05
-2.82879e-05
6.26477e-05
-2.58764e-05
7.34675e-05
-2.30369e-05
8.5881e-05
-1.97088e-05
0.000100671
-1.57846e-05
0.000117572
-1.11701e-05
0.000137487
-5.73739e-06
0.000160668
6.64815e-07
0.000187589
8.21574e-06
0.000218813
1.71101e-05
0.000255324
2.75824e-05
0.000297766
3.99019e-05
0.000346913
5.43701e-05
0.000403807
7.13155e-05
0.00046932
9.11021e-05
0.000544051
0.000114118
0.000628156
0.000140726
0.000721452
0.000171238
0.00082187
0.00020581
0.000925141
0.000244293
0.00102313
0.000285988
0.00110138
0.000329283
0.00113609
0.000371026
0.0010893
0.000406127
0.000906243
0.00051404
0.000426505
-3.50665e-05
2.73953e-05
3.59567e-05
-3.40188e-05
3.21211e-05
-3.27854e-05
3.76642e-05
-3.13409e-05
4.41675e-05
-2.96457e-05
5.17535e-05
-2.76581e-05
6.06611e-05
-2.53306e-05
7.11401e-05
-2.25897e-05
8.31413e-05
-1.93786e-05
9.74593e-05
-1.5592e-05
0.000113787
-1.11399e-05
0.000133034
-5.89743e-06
0.000155428
2.7931e-07
0.000181413
7.56426e-06
0.000211529
1.61455e-05
0.000246744
2.6248e-05
0.000287666
3.81353e-05
0.000335033
5.20925e-05
0.000389853
6.84418e-05
0.000452976
8.75332e-05
0.000524961
0.000109742
0.000605947
0.000135419
0.000695775
0.000164864
0.000792431
0.000198231
0.000891791
0.000235375
0.00098602
0.000275618
0.00106119
0.000317403
0.00109439
0.000357688
0.00104911
0.000391504
0.000872558
0.000494815
0.000411009
-3.41403e-05
2.65335e-05
3.50049e-05
-3.3129e-05
3.111e-05
-3.19448e-05
3.64782e-05
-3.0556e-05
4.27767e-05
-2.89257e-05
5.01212e-05
-2.70127e-05
5.87463e-05
-2.47704e-05
6.88961e-05
-2.21283e-05
8.04991e-05
-1.90317e-05
9.43617e-05
-1.53794e-05
0.000110135
-1.10846e-05
0.00012874
-6.02795e-06
0.000150372
-6.95059e-08
0.000175456
6.95765e-06
0.000204503
1.52359e-05
0.000238468
2.49829e-05
0.000277923
3.64488e-05
0.000323568
4.99165e-05
0.000376394
6.56899e-05
0.000437206
8.41116e-05
0.000506541
0.000105541
0.000584513
0.00013032
0.000670989
0.000158736
0.000764005
0.000190937
0.000859579
0.000226785
0.000950161
0.000265621
0.00102233
0.00030594
0.00105404
0.00034481
0.00101017
0.000377387
0.000839816
0.000475693
0.000396056
-3.32393e-05
2.57025e-05
3.40625e-05
-3.22672e-05
3.01349e-05
-3.1124e-05
3.53344e-05
-2.97829e-05
4.14356e-05
-2.82096e-05
4.85474e-05
-2.6363e-05
5.69005e-05
-2.42008e-05
6.67329e-05
-2.16528e-05
7.79519e-05
-1.86677e-05
9.13752e-05
-1.51458e-05
0.000106615
-1.10048e-05
0.000124598
-6.12751e-06
0.000145497
-3.81167e-07
0.000169711
6.39659e-06
0.000197726
1.43817e-05
0.000230484
2.37826e-05
0.000268524
3.48463e-05
0.000312512
4.78369e-05
0.000363406
6.30558e-05
0.000421991
8.08299e-05
0.000488769
0.000101508
0.000563834
0.000125418
0.00064708
0.000152839
0.000736588
0.000183914
0.000828521
0.000218506
0.0009156
0.000255979
0.000984916
0.000294877
0.00101522
0.000332374
0.000972764
0.000363754
0.000808558
0.000458089
0.000381641
-3.23131e-05
2.49034e-05
3.31123e-05
-3.13752e-05
2.91972e-05
-3.02778e-05
3.42343e-05
-2.89893e-05
4.01452e-05
-2.74769e-05
4.70324e-05
-2.57008e-05
5.51227e-05
-2.3619e-05
6.46488e-05
-2.11644e-05
7.54972e-05
-1.82875e-05
8.84967e-05
-1.48925e-05
0.000103221
-1.09001e-05
0.000120605
-6.19789e-06
0.000140795
-6.56425e-07
0.000164171
5.87965e-06
0.000191191
1.35806e-05
0.000222785
2.26495e-05
0.000259458
3.33195e-05
0.000301844
4.58527e-05
0.000350879
6.05351e-05
0.000407313
7.76831e-05
0.00047162
9.76346e-05
0.000543878
0.000120705
0.000624001
0.000147164
0.000710119
0.000177148
0.000798526
0.000210524
0.000882211
0.000246676
0.000948746
0.000284197
0.000977665
0.000320362
0.000936523
0.000350595
0.000778158
0.000440484
0.000367743
-3.14165e-05
2.41329e-05
3.21789e-05
-3.05149e-05
2.82931e-05
-2.94553e-05
3.31735e-05
-2.8211e-05
3.89012e-05
-2.67524e-05
4.55723e-05
-2.50383e-05
5.34097e-05
-2.30321e-05
6.26406e-05
-2.06659e-05
7.3132e-05
-1.78938e-05
8.57227e-05
-1.46217e-05
9.99498e-05
-1.07739e-05
0.000116756
-6.24045e-06
0.000136263
-8.97902e-07
0.000158829
5.40453e-06
0.000184889
1.28312e-05
0.00021536
2.15769e-05
0.000250715
3.18701e-05
0.000291557
4.39582e-05
0.000338793
5.81216e-05
0.000393153
7.46648e-05
0.000455078
9.39131e-05
0.000524629
0.000116171
0.000601742
0.000141699
0.000684596
0.000170627
0.000769613
0.000202827
0.000850045
0.0002377
0.000913925
0.000273887
0.000941554
0.000308762
0.000901734
0.00033789
0.000749151
0.000424302
0.000354353
-3.05059e-05
2.33918e-05
3.12464e-05
-2.96349e-05
2.74234e-05
-2.86178e-05
3.21532e-05
-2.74215e-05
3.77042e-05
-2.60195e-05
4.41668e-05
-2.43707e-05
5.17602e-05
-2.24396e-05
6.07064e-05
-2.01606e-05
7.08533e-05
-1.74901e-05
8.30498e-05
-1.43369e-05
9.67976e-05
-1.06283e-05
0.000113047
-6.25892e-06
0.000131895
-1.10826e-06
0.00015368
4.96819e-06
0.000178813
1.21295e-05
0.0002082
2.05643e-05
0.000242284
3.04894e-05
0.000281633
4.21501e-05
0.000327139
5.5811e-05
0.000379494
7.17694e-05
0.000439119
9.03373e-05
0.000506055
0.00011181
0.000580261
0.000136437
0.000659958
0.000164343
0.000741695
0.000195403
0.000818972
0.000229038
0.000880271
0.000263934
0.000906625
0.000297563
0.000868031
0.000325629
0.000720917
0.000408017
0.000341443
-2.96291e-05
2.26768e-05
3.03355e-05
-2.87919e-05
2.65844e-05
-2.78099e-05
3.11689e-05
-2.6655e-05
3.65499e-05
-2.53027e-05
4.28118e-05
-2.37117e-05
5.01704e-05
-2.18508e-05
5.88424e-05
-1.96541e-05
6.86576e-05
-1.70812e-05
8.0474e-05
-1.40423e-05
9.37599e-05
-1.04686e-05
0.000109471
-6.25648e-06
0.000127684
-1.29146e-06
0.000148715
4.56702e-06
0.000172956
1.14721e-05
0.000201296
1.96045e-05
0.000234153
2.91779e-05
0.000272065
4.04217e-05
0.000315897
5.35979e-05
0.00036632
6.89899e-05
0.000423728
8.68999e-05
0.000488143
0.000107612
0.000559548
0.000131367
0.000636207
0.000158284
0.000714794
0.000188241
0.000789045
0.000220679
0.000847886
0.000254328
0.000873046
0.000286751
0.000835692
0.000313795
0.000693983
0.000393081
0.000329005
-2.87504e-05
2.19887e-05
2.94358e-05
-2.79414e-05
2.57771e-05
-2.69982e-05
3.02217e-05
-2.58874e-05
3.54388e-05
-2.4587e-05
4.15073e-05
-2.30562e-05
4.86392e-05
-2.12645e-05
5.70468e-05
-1.91483e-05
6.65421e-05
-1.66694e-05
7.79921e-05
-1.37409e-05
9.08325e-05
-1.02967e-05
0.000106026
-6.23718e-06
0.000123625
-1.45076e-06
0.00014393
4.19701e-06
0.000167308
1.08543e-05
0.00019464
1.86967e-05
0.000226314
2.79264e-05
0.000262837
3.87703e-05
0.000305058
5.14772e-05
0.000353617
6.63216e-05
0.000408883
8.35955e-05
0.000470864
0.000103572
0.000539562
0.000126483
0.000613285
0.000152444
0.000688821
0.000181335
0.000760142
0.000212615
0.000816587
0.000245058
0.00084057
0.000276317
0.000804357
0.00030238
0.000667751
0.000377976
0.000317011
-2.79074e-05
2.13251e-05
2.85629e-05
-2.71293e-05
2.49984e-05
-2.62186e-05
2.93081e-05
-2.51457e-05
3.43673e-05
-2.38916e-05
4.02495e-05
-2.2414e-05
4.71633e-05
-2.06873e-05
5.53162e-05
-1.86472e-05
6.45033e-05
-1.62587e-05
7.56002e-05
-1.34362e-05
8.80111e-05
-1.0117e-05
0.000102704
-6.20382e-06
0.000119713
-1.59007e-06
0.000139317
3.85465e-06
0.000161864
1.02731e-05
0.000188223
1.7834e-05
0.000218755
2.67346e-05
0.000253942
3.719e-05
0.000294604
4.94433e-05
0.000341365
6.37586e-05
0.000394567
8.04172e-05
0.000454203
9.96823e-05
0.000520295
0.000121778
0.000591193
0.000146814
0.000663799
0.000174674
0.000732313
0.000204835
0.000786475
0.000236114
0.000809358
0.000266251
0.000774295
0.00029137
0.000642741
0.000364149
0.000305458
-2.70703e-05
2.0686e-05
2.7706e-05
-2.63177e-05
2.42486e-05
-2.54426e-05
2.84285e-05
-2.44099e-05
3.33355e-05
-2.32033e-05
3.90381e-05
-2.17808e-05
4.57415e-05
-2.01179e-05
5.36488e-05
-1.81522e-05
6.25387e-05
-1.58507e-05
7.32951e-05
-1.31305e-05
8.5292e-05
-9.93138e-06
9.95034e-05
-6.15984e-06
0.000115942
-1.71219e-06
0.00013487
3.53655e-06
0.000156615
9.72453e-06
0.000182037
1.70148e-05
0.000211468
2.55951e-05
0.000245363
3.56774e-05
0.000284526
4.7492e-05
0.000329552
6.12965e-05
0.000380762
7.73603e-05
0.000438133
9.59385e-05
0.000501708
0.000117246
0.000569874
0.000141388
0.000639646
0.000168252
0.000705437
0.000197333
0.000757376
0.000227489
0.000779168
0.000256543
0.000745167
0.000280755
0.00061836
0.00035011
0.000294321
-2.62688e-05
2.00695e-05
2.68771e-05
-2.55447e-05
2.35251e-05
-2.46998e-05
2.75797e-05
-2.37024e-05
3.234e-05
-2.25386e-05
3.78696e-05
-2.11656e-05
4.43704e-05
-1.95627e-05
5.20411e-05
-1.76673e-05
6.06448e-05
-1.54493e-05
7.1073e-05
-1.28272e-05
8.2671e-05
-9.74374e-06
9.64179e-05
-6.10781e-06
0.000112307
-1.82039e-06
0.000130583
3.23975e-06
0.000151555
9.20547e-06
0.000176072
1.62334e-05
0.000204442
2.45074e-05
0.000237093
3.4227e-05
0.000274808
4.56191e-05
0.000318161
5.89296e-05
0.000367451
7.44193e-05
0.00042264
9.23337e-05
0.000483792
0.00011288
0.000549331
0.000136159
0.000616381
0.000162062
0.000679564
0.0001901
0.000729387
0.000219172
0.000750157
0.000247182
0.000717227
0.000270522
0.00059512
0.000337288
0.000283597
-2.54795e-05
1.94756e-05
2.60683e-05
-2.47793e-05
2.28283e-05
-2.39669e-05
2.67622e-05
-2.30066e-05
3.13813e-05
-2.18862e-05
3.67439e-05
-2.05639e-05
4.30493e-05
-1.90196e-05
5.04918e-05
-1.71929e-05
5.88195e-05
-1.5055e-05
6.89313e-05
-1.25274e-05
8.01446e-05
-9.55502e-06
9.34436e-05
-6.05022e-06
0.000108802
-1.91678e-06
0.00012645
2.96131e-06
0.000146677
8.71275e-06
0.000170323
1.54888e-05
0.000197669
2.34649e-05
0.000229119
3.28365e-05
0.000265439
4.38206e-05
0.000307179
5.66545e-05
0.000354615
7.15904e-05
0.000407699
8.88638e-05
0.000466509
0.000108675
0.000529509
0.000131121
0.000593924
0.000156096
0.000654578
0.000183128
0.000702336
0.000211156
0.000722097
0.000238161
0.000690148
0.000260662
0.000572453
0.000324215
0.000273263
-2.47241e-05
1.89029e-05
2.52888e-05
-2.40502e-05
2.21561e-05
-2.32659e-05
2.59736e-05
-2.23383e-05
3.04562e-05
-2.12577e-05
3.56581e-05
-1.99812e-05
4.17752e-05
-1.84925e-05
4.89978e-05
-1.67307e-05
5.70595e-05
-1.46699e-05
6.68662e-05
-1.22329e-05
7.77088e-05
-9.36762e-06
9.05761e-05
-5.98847e-06
0.000105424
-2.00371e-06
0.000122466
2.69939e-06
0.000141975
8.24391e-06
0.000164779
1.47768e-05
0.000191138
2.2467e-05
0.000221431
3.15021e-05
0.000256404
4.20923e-05
0.000296589
5.44668e-05
0.000342239
6.88679e-05
0.000393295
8.55232e-05
0.000449851
0.000104626
0.00051041
0.000126268
0.000572295
0.000150348
0.000630529
0.00017641
0.00067632
0.000203431
0.000695133
0.000229468
0.000664172
0.000251163
0.000550855
0.000312304
0.000263314
-2.39839e-05
1.83508e-05
2.45298e-05
-2.33321e-05
2.15084e-05
-2.25776e-05
2.52137e-05
-2.1684e-05
2.9565e-05
-2.06432e-05
3.46118e-05
-1.94134e-05
4.05472e-05
-1.79786e-05
4.75577e-05
-1.62802e-05
5.53629e-05
-1.42936e-05
6.48755e-05
-1.19442e-05
7.53606e-05
-9.1817e-06
8.78116e-05
-5.92419e-06
0.000102167
-2.08218e-06
0.000118625
2.4516e-06
0.000137441
7.79763e-06
0.000159434
1.40958e-05
0.000184842
2.15089e-05
0.000214018
3.0221e-05
0.000247696
4.04316e-05
0.000286379
5.23633e-05
0.000330307
6.62488e-05
0.000379404
8.23083e-05
0.000433783
0.000100727
0.000491982
0.000121594
0.000551418
0.000144811
0.000607301
0.000169939
0.000651176
0.00019599
0.00066905
0.000221095
0.000638997
0.000242015
0.00052977
0.000300123
0.000253729
-2.32746e-05
1.78185e-05
2.3799e-05
-2.26471e-05
2.08835e-05
-2.19187e-05
2.44805e-05
-2.10556e-05
2.8705e-05
-2.00519e-05
3.36023e-05
-1.88647e-05
3.93627e-05
-1.74814e-05
4.61688e-05
-1.58433e-05
5.37268e-05
-1.39282e-05
6.29559e-05
-1.16626e-05
7.30965e-05
-8.99933e-06
8.51461e-05
-5.85827e-06
9.90265e-05
-2.15432e-06
0.000114921
2.21716e-06
0.000133069
7.37095e-06
0.000154282
1.3442e-05
0.000178772
2.05909e-05
0.000206874
2.89896e-05
0.000239297
3.88355e-05
0.000276535
5.034e-05
0.000318801
6.37287e-05
0.000366012
7.92136e-05
0.000418296
9.69731e-05
0.000474224
0.000117094
0.000531311
0.000139479
0.000584945
0.000163706
0.000626994
0.000188823
0.000643983
0.00021303
0.000614844
0.000233205
0.000509683
0.000289051
0.000244505
-2.2582e-05
1.73053e-05
2.30885e-05
-2.19755e-05
2.02814e-05
-2.12744e-05
2.3774e-05
-2.04428e-05
2.78763e-05
-1.94757e-05
3.26296e-05
-1.83316e-05
3.82211e-05
-1.69982e-05
4.48299e-05
-1.54189e-05
5.21496e-05
-1.35723e-05
6.11051e-05
-1.13882e-05
7.09135e-05
-8.82024e-06
8.25762e-05
-5.79215e-06
9.59986e-05
-2.22083e-06
0.00011135
1.99373e-06
0.000128855
6.96229e-06
0.000149314
1.28164e-05
0.00017292
1.97073e-05
0.000199984
2.78071e-05
0.000231202
3.73009e-05
0.000267043
4.83942e-05
0.000307707
6.13046e-05
0.000353097
7.6236e-05
0.000403356
9.33608e-05
0.000457091
0.000112761
0.000511901
0.000134345
0.000563352
0.000157705
0.000603619
0.000181923
0.000619736
0.000205266
0.000591431
0.000224724
0.000490064
0.000277694
0.000235619
-2.1918e-05
1.68105e-05
2.24063e-05
-2.13332e-05
1.97005e-05
-2.06563e-05
2.30924e-05
-1.98529e-05
2.70768e-05
-1.89203e-05
3.16912e-05
-1.78159e-05
3.712e-05
-1.65307e-05
4.35388e-05
-1.50075e-05
5.06288e-05
-1.32277e-05
5.93208e-05
-1.11216e-05
6.8809e-05
-8.6459e-06
8.00987e-05
-5.72618e-06
9.30796e-05
-2.28282e-06
0.000107908
1.78114e-06
0.000124791
6.57102e-06
0.000144523
1.22146e-05
0.000167277
1.88602e-05
0.000193341
2.66701e-05
0.000223394
3.58252e-05
0.00025789
4.65226e-05
0.000297008
5.89722e-05
0.000340645
7.33707e-05
0.000388955
8.98839e-05
0.000440581
0.000108591
0.000493207
0.000129404
0.000542568
0.000151928
0.000581137
0.000175279
0.00059643
0.000197791
0.000568963
0.00021656
0.000471379
0.000267396
0.000227069
-2.12709e-05
1.6333e-05
2.17424e-05
-2.07056e-05
1.91403e-05
-2.00537e-05
2.24353e-05
-1.92794e-05
2.63062e-05
-1.83811e-05
3.07868e-05
-1.73169e-05
3.60588e-05
-1.60784e-05
4.22944e-05
-1.46098e-05
4.91629e-05
-1.28941e-05
5.76007e-05
-1.08634e-05
6.67802e-05
-8.4762e-06
7.77101e-05
-5.66113e-06
9.0265e-05
-2.3403e-06
0.000104588
1.57745e-06
0.000120873
6.19653e-06
0.000139905
1.16381e-05
0.000161836
1.80454e-05
0.000186934
2.55776e-05
0.000215866
3.44062e-05
0.000249063
4.47229e-05
0.000286691
5.6729e-05
0.000328634
7.06148e-05
0.000375062
8.65392e-05
0.000424648
0.000104579
0.000475159
0.000124648
0.000522491
0.000146368
0.000559405
0.000168885
0.000573884
0.000190597
0.000547187
0.000208704
0.000453116
0.000256814
0.000218834
-2.06521e-05
1.58733e-05
2.11042e-05
-2.01089e-05
1.86004e-05
-1.9481e-05
2.18016e-05
-1.87346e-05
2.55628e-05
-1.78683e-05
2.99141e-05
-1.68413e-05
3.50346e-05
-1.56464e-05
4.10934e-05
-1.42294e-05
4.77484e-05
-1.25742e-05
5.5941e-05
-1.06151e-05
6.4823e-05
-8.31258e-06
7.54062e-05
-5.59729e-06
8.75507e-05
-2.39487e-06
0.000101387
1.38406e-06
0.000117094
5.83739e-06
0.00013545
1.10843e-05
0.000156588
1.7264e-05
0.000180757
2.45272e-05
0.000208605
3.30422e-05
0.00024055
4.29921e-05
0.00027674
5.45717e-05
0.000317051
6.79638e-05
0.000361667
8.33214e-05
0.000409292
0.000100719
0.000457775
0.000120073
0.000503165
0.000141017
0.000538499
0.000162732
0.000552206
0.000183674
0.000526281
0.000201143
0.000435723
0.000247243
0.000210912
-2.00509e-05
1.54292e-05
2.04867e-05
-1.95255e-05
1.80793e-05
-1.89211e-05
2.11901e-05
-1.8201e-05
2.48457e-05
-1.73665e-05
2.90724e-05
-1.63763e-05
3.4047e-05
-1.52246e-05
3.99353e-05
-1.38581e-05
4.63844e-05
-1.22622e-05
5.43407e-05
-1.03729e-05
6.29358e-05
-8.15239e-06
7.31845e-05
-5.53397e-06
8.49331e-05
-2.44527e-06
9.82999e-05
1.19861e-06
0.00011345
5.49353e-06
0.000131154
1.05538e-05
0.000151527
1.65128e-05
0.000174798
2.35184e-05
0.000201602
3.17312e-05
0.000232339
4.13286e-05
0.000267142
5.24979e-05
0.000305877
6.54149e-05
0.000348743
8.02273e-05
0.000394473
9.70059e-05
0.00044099
0.000115671
0.000484493
0.00013587
0.000518289
0.000156812
0.000531241
0.000177013
0.000506017
0.00019387
0.000418717
0.000237384
0.00020328
-1.94708e-05
1.50013e-05
1.98921e-05
-1.89641e-05
1.75768e-05
-1.83806e-05
2.06004e-05
-1.76858e-05
2.4154e-05
-1.6881e-05
2.82607e-05
-1.5926e-05
3.30947e-05
-1.48157e-05
3.88187e-05
-1.34982e-05
4.50695e-05
-1.19596e-05
5.27977e-05
-1.01379e-05
6.11161e-05
-7.99656e-06
7.10421e-05
-5.4713e-06
8.24088e-05
-2.4926e-06
9.53228e-05
1.02203e-06
0.000109937
5.16403e-06
0.000127011
1.00441e-05
0.000146646
1.5792e-05
0.000169051
2.25493e-05
0.000194847
3.04715e-05
0.000224419
3.97298e-05
0.000257883
5.05043e-05
0.0002951
6.29643e-05
0.00033628
7.72517e-05
0.000380189
9.34349e-05
0.000424819
0.000111437
0.000466518
0.000130918
0.000498842
0.000151116
0.000511073
0.000170604
0.000486555
0.000186871
0.000402524
0.000228495
0.000195941
-1.89123e-05
1.4589e-05
1.9317e-05
-1.84236e-05
1.70929e-05
-1.7863e-05
2.00325e-05
-1.71937e-05
2.34876e-05
-1.64184e-05
2.74784e-05
-1.54975e-05
3.21763e-05
-1.44264e-05
3.77414e-05
-1.3155e-05
4.38005e-05
-1.16702e-05
5.13086e-05
-9.91231e-06
5.93601e-05
-7.84628e-06
6.89751e-05
-5.41026e-06
7.99736e-05
-2.53675e-06
9.2451e-05
8.53151e-07
0.000106547
4.84829e-06
0.000123015
9.55565e-06
0.000141938
1.50999e-05
0.000163507
2.16185e-05
0.000188331
2.92615e-05
0.000216777
3.8194e-05
0.000248949
4.85888e-05
0.000284701
6.06094e-05
0.000324254
7.43917e-05
0.0003664
9.00018e-05
0.000409204
0.000107366
0.000449149
0.000126155
0.000480045
0.000145636
0.00049157
0.000164439
0.000467697
0.000180139
0.000386678
0.000219331
0.000188871
-1.83703e-05
1.4191e-05
1.87614e-05
-1.78984e-05
1.66254e-05
-1.73587e-05
1.94837e-05
-1.67123e-05
2.28438e-05
-1.5966e-05
2.67228e-05
-1.50772e-05
3.12897e-05
-1.40453e-05
3.67017e-05
-1.28189e-05
4.25761e-05
-1.13872e-05
4.9872e-05
-9.69163e-06
5.76663e-05
-7.69888e-06
6.69813e-05
-5.3491e-06
7.76247e-05
-2.57744e-06
8.96811e-05
6.92455e-07
0.000103278
4.54636e-06
0.000119161
9.08693e-06
0.000137396
1.44359e-05
0.00015816
2.07252e-05
0.000182044
2.80999e-05
0.000209404
3.67188e-05
0.000240329
4.67486e-05
0.000274667
5.83463e-05
0.000312654
7.16424e-05
0.000353107
8.6701e-05
0.000394159
0.000103451
0.000432425
0.000121575
0.000461952
0.000140366
0.000472799
0.000158508
0.000449574
0.000173663
0.000371591
0.000211089
0.000182071
-1.78495e-05
1.38072e-05
1.82261e-05
-1.73933e-05
1.61749e-05
-1.68723e-05
1.89549e-05
-1.62485e-05
2.22235e-05
-1.5528e-05
2.59946e-05
-1.46705e-05
3.04351e-05
-1.36749e-05
3.56994e-05
-1.24921e-05
4.13957e-05
-1.11114e-05
4.84868e-05
-9.4762e-06
5.60329e-05
-7.55432e-06
6.50584e-05
-5.28807e-06
7.53592e-05
-2.61454e-06
8.70093e-05
5.39781e-07
0.000100124
4.25716e-06
0.000115442
8.63821e-06
0.000133015
1.3799e-05
0.000152999
1.98678e-05
0.000175978
2.69849e-05
0.000202289
3.53027e-05
0.000232011
4.49818e-05
0.000264985
5.61727e-05
0.000301458
6.90012e-05
0.000340273
8.35287e-05
0.000379627
9.9687e-05
0.000416263
0.00011717
0.000444462
0.000135298
0.000454656
0.000152804
0.000432014
0.000167436
0.000356825
0.000202579
0.000175521
-1.73432e-05
1.3437e-05
1.7707e-05
-1.69034e-05
1.574e-05
-1.64018e-05
1.84444e-05
-1.57999e-05
2.16246e-05
-1.51062e-05
2.52918e-05
-1.42788e-05
2.96103e-05
-1.3319e-05
3.47322e-05
-1.21777e-05
4.02567e-05
-1.08458e-05
4.71503e-05
-9.26819e-06
5.44571e-05
-7.41406e-06
6.32034e-05
-5.22775e-06
7.31737e-05
-2.64853e-06
8.4432e-05
3.94347e-07
9.70817e-05
3.98147e-06
0.000111855
8.20816e-06
0.000128786
1.31884e-05
0.00014802
1.90461e-05
0.000170123
2.59153e-05
0.000195421
3.39439e-05
0.000223981
4.32855e-05
0.00025564
5.40851e-05
0.000290656
6.64635e-05
0.000327899
8.04801e-05
0.000365624