/*--------------------------------*- C++ -*----------------------------------*\
  =========                 |
  \\      /  F ield         | OpenFOAM: The Open Source CFD Toolbox
   \\    /   O peration     | Website:  https://openfoam.org
    \\  /    A nd           | Version:  6.0
     \\/     M anipulation  |
\*---------------------------------------------------------------------------*/
FoamFile
{
    version     2.0;
    format      ascii;
    class       volScalarField;
    location    "2.87";
    object      p;
}
// * * * * * * * * * * * * * * * * * * * * * * * * * * * * * * * * * * * * * //

dimensions      [0 2 -2 0 0 0 0];

internalField   nonuniform List<scalar> 
13500
(
0.097477
0.097498
0.097029
0.096583
0.09555
0.095198
0.094102
0.095057
0.095825
0.099804
0.12204
0.16424
0.097478
0.097499
0.097029
0.096584
0.09555
0.095198
0.094101
0.095057
0.095821
0.099865
0.12136
0.15918
0.097478
0.0975
0.097029
0.096585
0.095549
0.095199
0.094099
0.095057
0.095812
0.09991
0.12049
0.15469
0.097479
0.097501
0.097029
0.096586
0.095549
0.0952
0.094095
0.095056
0.095796
0.09993
0.11951
0.15118
0.09748
0.097503
0.09703
0.096588
0.095548
0.095201
0.094091
0.095053
0.095775
0.099937
0.11848
0.14821
0.097482
0.097505
0.097031
0.09659
0.095548
0.095201
0.094086
0.095049
0.09575
0.099931
0.1174
0.14557
0.097484
0.097507
0.097033
0.096592
0.095548
0.095202
0.09408
0.095045
0.095719
0.099912
0.11632
0.14317
0.097486
0.09751
0.097035
0.096594
0.095547
0.095202
0.094074
0.095039
0.095683
0.099879
0.11525
0.14097
0.097489
0.097513
0.097037
0.096597
0.095547
0.095202
0.094068
0.095032
0.095642
0.099833
0.1142
0.13893
0.097492
0.097517
0.097039
0.0966
0.095548
0.095202
0.09406
0.095024
0.095595
0.099774
0.11318
0.13703
0.097496
0.097521
0.097042
0.096603
0.095548
0.095202
0.094053
0.095016
0.095544
0.099702
0.1122
0.13525
0.0975
0.097525
0.097046
0.096606
0.095548
0.095201
0.094044
0.095006
0.095487
0.099618
0.11127
0.13357
0.097504
0.09753
0.097049
0.096609
0.095549
0.095201
0.094035
0.094994
0.095424
0.099524
0.11037
0.13197
0.097509
0.097535
0.097053
0.096613
0.09555
0.0952
0.094025
0.094982
0.095357
0.099422
0.10952
0.13046
0.097515
0.097541
0.097058
0.096617
0.095551
0.095199
0.094015
0.094969
0.095283
0.099311
0.1087
0.12902
0.097521
0.097547
0.097062
0.096621
0.095552
0.095198
0.094005
0.094954
0.095204
0.099195
0.10793
0.12764
0.097527
0.097553
0.097067
0.096626
0.095553
0.095197
0.093993
0.094938
0.09512
0.099074
0.10718
0.12632
0.097534
0.09756
0.097073
0.096631
0.095554
0.095196
0.093981
0.094921
0.09503
0.09895
0.10647
0.12506
0.097541
0.097567
0.097079
0.096636
0.095556
0.095195
0.093969
0.094903
0.094936
0.098823
0.10579
0.12384
0.097548
0.097574
0.097085
0.096641
0.095557
0.095193
0.093956
0.094883
0.094836
0.098696
0.10512
0.12266
0.097556
0.097582
0.097092
0.096646
0.095559
0.095191
0.093942
0.094862
0.094731
0.098568
0.10448
0.12153
0.097565
0.097591
0.097099
0.096652
0.095561
0.095189
0.093928
0.094839
0.094621
0.09844
0.10386
0.12043
0.097574
0.0976
0.097107
0.096658
0.095563
0.095187
0.093913
0.094815
0.094508
0.098314
0.10325
0.11936
0.097584
0.097609
0.097115
0.096664
0.095566
0.095185
0.093898
0.09479
0.09439
0.098188
0.10266
0.11833
0.097594
0.097619
0.097123
0.096671
0.095568
0.095182
0.093882
0.094763
0.094268
0.098064
0.10207
0.11732
0.097604
0.097629
0.097132
0.096678
0.095571
0.09518
0.093866
0.094734
0.094143
0.097942
0.1015
0.11634
0.097615
0.097639
0.097141
0.096685
0.095574
0.095177
0.093849
0.094704
0.094015
0.097822
0.10093
0.11538
0.097627
0.09765
0.097151
0.096692
0.095577
0.095174
0.093832
0.094673
0.093885
0.097703
0.10037
0.11444
0.097639
0.097662
0.097161
0.0967
0.09558
0.095171
0.093814
0.09464
0.093752
0.097585
0.099819
0.11353
0.097651
0.097674
0.097172
0.096708
0.095584
0.095168
0.093795
0.094605
0.093617
0.097469
0.099271
0.11263
0.097664
0.097686
0.097183
0.096716
0.095587
0.095164
0.093777
0.094569
0.09348
0.097354
0.098729
0.11175
0.097678
0.097699
0.097194
0.096725
0.095591
0.09516
0.093757
0.094531
0.093342
0.097239
0.098191
0.11089
0.097692
0.097713
0.097206
0.096734
0.095595
0.095157
0.093737
0.094492
0.093204
0.097125
0.097657
0.11004
0.097706
0.097726
0.097218
0.096743
0.0956
0.095153
0.093717
0.094451
0.093064
0.097011
0.097129
0.10922
0.097721
0.097741
0.097231
0.096753
0.095604
0.095148
0.093696
0.094409
0.092924
0.096897
0.096605
0.1084
0.097737
0.097756
0.097244
0.096762
0.095609
0.095144
0.093674
0.094366
0.092784
0.096782
0.096086
0.10761
0.097753
0.097771
0.097258
0.096773
0.095614
0.09514
0.093652
0.094321
0.092643
0.096667
0.095571
0.10682
0.09777
0.097787
0.097272
0.096783
0.095619
0.095135
0.09363
0.094275
0.092503
0.09655
0.095062
0.10606
0.097787
0.097803
0.097287
0.096794
0.095624
0.09513
0.093606
0.094228
0.092363
0.096432
0.094558
0.1053
0.097805
0.09782
0.097302
0.096805
0.09563
0.095125
0.093583
0.09418
0.092223
0.096313
0.094059
0.10456
0.097823
0.097837
0.097318
0.096816
0.095636
0.09512
0.093558
0.094132
0.092084
0.096192
0.093566
0.10384
0.097842
0.097855
0.097334
0.096828
0.095642
0.095115
0.093534
0.094082
0.091945
0.096069
0.093079
0.10312
0.097862
0.097874
0.097351
0.09684
0.095649
0.095109
0.093508
0.094032
0.091807
0.095944
0.092598
0.10242
0.097882
0.097893
0.097368
0.096853
0.095655
0.095103
0.093482
0.093982
0.091669
0.095817
0.092123
0.10174
0.097902
0.097912
0.097386
0.096865
0.095662
0.095098
0.093456
0.093931
0.091531
0.095688
0.091655
0.10106
0.097923
0.097932
0.097404
0.096878
0.09567
0.095092
0.093429
0.09388
0.091395
0.095556
0.091193
0.1004
0.097945
0.097953
0.097423
0.096892
0.095677
0.095086
0.093402
0.093828
0.091258
0.095423
0.090738
0.09975
0.097968
0.097974
0.097442
0.096906
0.095685
0.095079
0.093374
0.093777
0.091122
0.095287
0.09029
0.099112
0.097991
0.097996
0.097462
0.09692
0.095693
0.095073
0.093345
0.093726
0.090986
0.095149
0.089849
0.098487
0.098014
0.098018
0.097482
0.096935
0.095701
0.095067
0.093316
0.093674
0.090851
0.095008
0.089415
0.097873
0.098038
0.098041
0.097503
0.09695
0.09571
0.09506
0.093286
0.093623
0.090715
0.094865
0.088988
0.09727
0.098063
0.098064
0.097524
0.096965
0.095719
0.095053
0.093256
0.093573
0.09058
0.09472
0.088567
0.096678
0.098089
0.098088
0.097546
0.096981
0.095728
0.095047
0.093226
0.093522
0.090445
0.094573
0.088154
0.096096
0.098115
0.098112
0.097569
0.096997
0.095738
0.09504
0.093195
0.093472
0.090309
0.094423
0.087747
0.095526
0.098141
0.098138
0.097592
0.097013
0.095748
0.095033
0.093164
0.093423
0.090174
0.094272
0.087348
0.094965
0.098169
0.098163
0.097615
0.09703
0.095758
0.095026
0.093132
0.093374
0.090038
0.094118
0.086955
0.094414
0.098197
0.09819
0.097639
0.097047
0.095768
0.095019
0.0931
0.093325
0.089902
0.093962
0.086569
0.093873
0.098225
0.098216
0.097664
0.097065
0.095779
0.095012
0.093067
0.093277
0.089766
0.093805
0.08619
0.093342
0.098254
0.098244
0.097689
0.097083
0.09579
0.095005
0.093034
0.09323
0.08963
0.093645
0.085817
0.09282
0.098284
0.098272
0.097715
0.097101
0.095802
0.094998
0.093001
0.093183
0.089493
0.093484
0.085451
0.092306
0.098315
0.098301
0.097742
0.09712
0.095813
0.094991
0.092967
0.093136
0.089356
0.093321
0.085091
0.091802
0.098346
0.09833
0.097769
0.09714
0.095826
0.094985
0.092933
0.09309
0.089219
0.093156
0.084737
0.091305
0.098378
0.09836
0.097796
0.09716
0.095838
0.094978
0.092899
0.093045
0.089081
0.09299
0.084389
0.090817
0.09841
0.098391
0.097825
0.09718
0.095851
0.094971
0.092864
0.093
0.088943
0.092822
0.084047
0.090337
0.098443
0.098422
0.097853
0.0972
0.095864
0.094964
0.092829
0.092955
0.088805
0.092653
0.083711
0.089865
0.098477
0.098454
0.097883
0.097222
0.095877
0.094958
0.092794
0.092911
0.088666
0.092483
0.083381
0.0894
0.098512
0.098487
0.097913
0.097243
0.095891
0.094952
0.092759
0.092867
0.088527
0.092311
0.083056
0.088943
0.098547
0.09852
0.097943
0.097265
0.095905
0.094945
0.092723
0.092824
0.088388
0.092138
0.082736
0.088492
0.098583
0.098554
0.097975
0.097288
0.095919
0.094939
0.092687
0.09278
0.088249
0.091963
0.082422
0.088049
0.09862
0.098589
0.098006
0.097311
0.095934
0.094934
0.092651
0.092737
0.08811
0.091788
0.082113
0.087612
0.098657
0.098624
0.098039
0.097334
0.095949
0.094928
0.092614
0.092694
0.08797
0.091612
0.08181
0.087182
0.098695
0.09866
0.098072
0.097358
0.095964
0.094923
0.092578
0.092651
0.087831
0.091434
0.081511
0.086758
0.098734
0.098697
0.098106
0.097383
0.09598
0.094918
0.092541
0.092608
0.087691
0.091256
0.081217
0.08634
0.098773
0.098734
0.09814
0.097408
0.095996
0.094913
0.092504
0.092566
0.087552
0.091077
0.080927
0.085928
0.098813
0.098772
0.098175
0.097434
0.096013
0.094908
0.092467
0.092523
0.087413
0.090897
0.080642
0.085522
0.098854
0.098811
0.098211
0.09746
0.096029
0.094904
0.092429
0.09248
0.087274
0.090716
0.080362
0.085122
0.098896
0.098851
0.098247
0.097486
0.096046
0.0949
0.092392
0.092437
0.087135
0.090534
0.080086
0.084728
0.098939
0.098891
0.098284
0.097514
0.096064
0.094897
0.092354
0.092393
0.086997
0.090352
0.079815
0.084338
0.098982
0.098932
0.098322
0.097542
0.096081
0.094894
0.092316
0.09235
0.086859
0.09017
0.079547
0.083954
0.099026
0.098974
0.09836
0.09757
0.096099
0.094891
0.092278
0.092306
0.086721
0.089987
0.079284
0.083575
0.09907
0.099017
0.098399
0.097599
0.096118
0.094889
0.09224
0.092262
0.086584
0.089803
0.079025
0.083201
0.099116
0.09906
0.098439
0.097628
0.096136
0.094887
0.092201
0.092218
0.086448
0.089619
0.078769
0.082832
0.099162
0.099104
0.098479
0.097659
0.096155
0.094886
0.092163
0.092173
0.086312
0.089434
0.078518
0.082468
0.099209
0.099149
0.09852
0.097689
0.096175
0.094885
0.092124
0.092129
0.086176
0.089249
0.07827
0.082108
0.099257
0.099195
0.098562
0.097721
0.096195
0.094884
0.092086
0.092083
0.086041
0.089064
0.078025
0.081752
0.099306
0.099242
0.098604
0.097753
0.096215
0.094884
0.092047
0.092037
0.085907
0.088879
0.077785
0.081401
0.099356
0.099289
0.098648
0.097786
0.096235
0.094884
0.092008
0.091991
0.085774
0.088693
0.077547
0.081055
0.099406
0.099337
0.098692
0.097819
0.096256
0.094885
0.091969
0.091945
0.085641
0.088507
0.077313
0.080712
0.099457
0.099386
0.098736
0.097853
0.096277
0.094887
0.09193
0.091898
0.085509
0.088321
0.077083
0.080373
0.09951
0.099436
0.098782
0.097888
0.096298
0.094888
0.091891
0.09185
0.085378
0.088135
0.076856
0.080039
0.099563
0.099487
0.098828
0.097924
0.09632
0.094891
0.091852
0.091802
0.085248
0.087949
0.076631
0.079708
0.099616
0.099539
0.098875
0.09796
0.096342
0.094894
0.091813
0.091754
0.085119
0.087763
0.07641
0.07938
0.099671
0.099591
0.098923
0.097997
0.096365
0.094897
0.091773
0.091705
0.08499
0.087576
0.076192
0.079057
0.099727
0.099645
0.098971
0.098035
0.096388
0.094901
0.091734
0.091655
0.084862
0.08739
0.075977
0.078737
0.099783
0.0997
0.099021
0.098073
0.096411
0.094906
0.091695
0.091605
0.084736
0.087203
0.075764
0.07842
0.099841
0.099755
0.099071
0.098112
0.096435
0.094911
0.091656
0.091554
0.08461
0.087017
0.075555
0.078106
0.099899
0.099811
0.099122
0.098152
0.096459
0.094917
0.091617
0.091503
0.084485
0.086831
0.075348
0.077796
0.099959
0.099869
0.099174
0.098193
0.096483
0.094923
0.091579
0.091451
0.084361
0.086644
0.075143
0.077489
0.10002
0.099927
0.099226
0.098235
0.096508
0.09493
0.09154
0.091399
0.084238
0.086458
0.074941
0.077184
0.10008
0.099987
0.09928
0.098278
0.096534
0.094937
0.091501
0.091346
0.084115
0.086272
0.074742
0.076883
0.10014
0.10005
0.099334
0.098321
0.09656
0.094946
0.091463
0.091292
0.083994
0.086086
0.074545
0.076585
0.10021
0.10011
0.09939
0.098365
0.096586
0.094954
0.091425
0.091238
0.083874
0.0859
0.07435
0.076289
0.10027
0.10017
0.099446
0.098411
0.096613
0.094964
0.091387
0.091184
0.083755
0.085714
0.074158
0.075996
0.10034
0.10023
0.099503
0.098457
0.096641
0.094974
0.091349
0.091129
0.083636
0.085529
0.073968
0.075705
0.1004
0.1003
0.099562
0.098504
0.096669
0.094984
0.091311
0.091073
0.083519
0.085343
0.07378
0.075417
0.10047
0.10037
0.099621
0.098552
0.096697
0.094996
0.091274
0.091017
0.083402
0.085158
0.073594
0.075131
0.10054
0.10043
0.099681
0.098601
0.096726
0.095008
0.091237
0.09096
0.083287
0.084973
0.07341
0.074848
0.10061
0.1005
0.099743
0.098651
0.096756
0.09502
0.091201
0.090902
0.083172
0.084788
0.073227
0.074566
0.10068
0.10057
0.099805
0.098703
0.096786
0.095034
0.091164
0.090845
0.083058
0.084603
0.073047
0.074287
0.10075
0.10064
0.099869
0.098755
0.096817
0.095048
0.091128
0.090786
0.082945
0.084418
0.072868
0.07401
0.10083
0.10071
0.099933
0.098808
0.096849
0.095063
0.091093
0.090727
0.082834
0.084234
0.072692
0.073734
0.1009
0.10079
0.099999
0.098863
0.096881
0.095079
0.091057
0.090668
0.082723
0.084049
0.072516
0.073461
0.10098
0.10086
0.10007
0.098918
0.096914
0.095095
0.091023
0.090608
0.082613
0.083865
0.072343
0.073189
0.10106
0.10094
0.10013
0.098975
0.096948
0.095113
0.090989
0.090547
0.082503
0.083681
0.07217
0.072919
0.10114
0.10102
0.1002
0.099033
0.096983
0.095131
0.090955
0.090486
0.082395
0.083497
0.072
0.072651
0.10122
0.1011
0.10028
0.099093
0.097018
0.09515
0.090922
0.090425
0.082288
0.083313
0.07183
0.072384
0.1013
0.10118
0.10035
0.099153
0.097055
0.09517
0.090889
0.090363
0.082181
0.083129
0.071662
0.072118
0.10138
0.10126
0.10042
0.099216
0.097092
0.09519
0.090857
0.090301
0.082076
0.082946
0.071495
0.071854
0.10147
0.10134
0.1005
0.099279
0.09713
0.095212
0.090826
0.090239
0.081971
0.082763
0.071329
0.07159
0.10156
0.10143
0.10057
0.099344
0.09717
0.095235
0.090795
0.090176
0.081867
0.082579
0.071164
0.071328
0.10164
0.10152
0.10065
0.099411
0.09721
0.095259
0.090765
0.090113
0.081764
0.082396
0.071001
0.071068
0.10174
0.10161
0.10073
0.099479
0.097252
0.095283
0.090736
0.090049
0.081662
0.082213
0.070838
0.070808
0.10183
0.1017
0.10081
0.099548
0.097294
0.095309
0.090707
0.089985
0.08156
0.08203
0.070676
0.070549
0.10192
0.10179
0.1009
0.09962
0.097338
0.095336
0.09068
0.089921
0.08146
0.081847
0.070515
0.07029
0.10202
0.10189
0.10098
0.099693
0.097384
0.095364
0.090653
0.089857
0.08136
0.081664
0.070355
0.070033
0.10212
0.10199
0.10107
0.099768
0.09743
0.095394
0.090627
0.089793
0.081261
0.081482
0.070195
0.069776
0.10222
0.10209
0.10116
0.099845
0.097478
0.095424
0.090602
0.089728
0.081163
0.081299
0.070036
0.069519
0.10232
0.10219
0.10125
0.099924
0.097528
0.095456
0.090579
0.089664
0.081066
0.081117
0.069878
0.069263
0.10242
0.10229
0.10135
0.1
0.097579
0.095489
0.090556
0.089599
0.08097
0.080934
0.06972
0.069008
0.10253
0.1024
0.10144
0.10009
0.097632
0.095524
0.090535
0.089534
0.080874
0.080751
0.069562
0.068753
0.10264
0.10251
0.10154
0.10017
0.097686
0.09556
0.090515
0.08947
0.080779
0.080569
0.069405
0.068497
0.10275
0.10262
0.10164
0.10026
0.097743
0.095598
0.090496
0.089405
0.080685
0.080387
0.069248
0.068242
0.10287
0.10273
0.10174
0.10035
0.097801
0.095637
0.090479
0.089341
0.080592
0.080204
0.069091
0.067987
0.10298
0.10285
0.10185
0.10044
0.097861
0.095678
0.090463
0.089277
0.0805
0.080022
0.068935
0.067732
0.10311
0.10297
0.10196
0.10054
0.097924
0.095721
0.090449
0.089214
0.080409
0.079839
0.068778
0.067477
0.10323
0.10309
0.10207
0.10064
0.097989
0.095766
0.090436
0.08915
0.080318
0.079657
0.068622
0.067221
0.10335
0.10322
0.10218
0.10074
0.098056
0.095812
0.090425
0.089087
0.080229
0.079474
0.068465
0.066965
0.10348
0.10335
0.1023
0.10084
0.098125
0.095861
0.090416
0.089025
0.08014
0.079292
0.068308
0.066708
0.10362
0.10348
0.10242
0.10095
0.098197
0.095911
0.090409
0.088963
0.080052
0.079109
0.068152
0.066451
0.10375
0.10362
0.10255
0.10106
0.098272
0.095964
0.090404
0.088902
0.079965
0.078927
0.067995
0.066193
0.10389
0.10376
0.10268
0.10117
0.09835
0.09602
0.090401
0.088841
0.07988
0.078744
0.067837
0.065935
0.10404
0.1039
0.10281
0.10129
0.098431
0.096077
0.0904
0.088782
0.079795
0.078562
0.06768
0.065675
0.10418
0.10405
0.10294
0.10141
0.098515
0.096138
0.090402
0.088723
0.079711
0.078379
0.067521
0.065415
0.10434
0.1042
0.10308
0.10153
0.098602
0.096201
0.090406
0.088665
0.079628
0.078197
0.067363
0.065153
0.10449
0.10436
0.10323
0.10166
0.098693
0.096266
0.090413
0.088609
0.079547
0.078014
0.067203
0.06489
0.10465
0.10452
0.10337
0.1018
0.098787
0.096335
0.090423
0.088554
0.079466
0.077831
0.067043
0.064626
0.10482
0.10469
0.10353
0.10193
0.098885
0.096407
0.090435
0.0885
0.079387
0.077649
0.066883
0.064361
0.10499
0.10486
0.10369
0.10208
0.098988
0.096482
0.090451
0.088447
0.079309
0.077466
0.066721
0.064094
0.10516
0.10504
0.10385
0.10222
0.099094
0.096561
0.090469
0.088396
0.079232
0.077283
0.066559
0.063825
0.10534
0.10522
0.10402
0.10238
0.099205
0.096643
0.090491
0.088347
0.079157
0.077101
0.066396
0.063554
0.10553
0.1054
0.10419
0.10253
0.099321
0.096729
0.090517
0.088299
0.079083
0.076918
0.066232
0.063282
0.10572
0.1056
0.10437
0.1027
0.099441
0.096818
0.090546
0.088254
0.07901
0.076736
0.066066
0.063008
0.10591
0.10579
0.10455
0.10286
0.099567
0.096912
0.090579
0.08821
0.078939
0.076553
0.0659
0.062731
0.10612
0.106
0.10474
0.10304
0.099697
0.097011
0.090616
0.088169
0.078869
0.076371
0.065732
0.062452
0.10633
0.10621
0.10494
0.10322
0.099834
0.097113
0.090658
0.08813
0.078801
0.076188
0.065563
0.062171
0.10654
0.10643
0.10514
0.10341
0.099976
0.097221
0.090703
0.088094
0.078735
0.076006
0.065393
0.061887
0.10676
0.10665
0.10535
0.1036
0.10012
0.097333
0.090753
0.08806
0.07867
0.075823
0.065221
0.0616
0.10699
0.10689
0.10557
0.1038
0.10028
0.09745
0.090808
0.088029
0.078608
0.075641
0.065048
0.061311
0.10723
0.10713
0.1058
0.10401
0.10044
0.097573
0.090868
0.088
0.078547
0.075459
0.064873
0.061018
0.10747
0.10737
0.10603
0.10423
0.10061
0.097702
0.090933
0.087975
0.078488
0.075277
0.064696
0.060723
0.10772
0.10763
0.10627
0.10445
0.10078
0.097836
0.091003
0.087953
0.078431
0.075095
0.064517
0.060424
0.10798
0.10789
0.10652
0.10468
0.10096
0.097976
0.091079
0.087935
0.078376
0.074912
0.064337
0.060121
0.10825
0.10816
0.10678
0.10492
0.10115
0.098122
0.09116
0.087919
0.078323
0.07473
0.064154
0.059815
0.10853
0.10845
0.10704
0.10517
0.10135
0.098275
0.091248
0.087908
0.078272
0.074548
0.063969
0.059505
0.10881
0.10874
0.10732
0.10543
0.10156
0.098435
0.091341
0.0879
0.078223
0.074366
0.063782
0.05919
0.10911
0.10904
0.10761
0.10569
0.10177
0.098602
0.091441
0.087896
0.078177
0.074184
0.063592
0.058872
0.10941
0.10935
0.1079
0.10597
0.102
0.098776
0.091547
0.087897
0.078133
0.074002
0.0634
0.058549
0.10972
0.10967
0.10821
0.10626
0.10223
0.098957
0.09166
0.087901
0.078091
0.07382
0.063204
0.058221
0.11005
0.11
0.10852
0.10655
0.10247
0.099147
0.09178
0.08791
0.078052
0.073637
0.063006
0.057888
0.11038
0.11034
0.10885
0.10686
0.10273
0.099344
0.091906
0.087923
0.078015
0.073455
0.062805
0.057549
0.11072
0.11069
0.10919
0.10718
0.10299
0.099549
0.092041
0.08794
0.07798
0.073271
0.0626
0.057206
0.11108
0.11105
0.10953
0.10751
0.10326
0.099763
0.092182
0.087962
0.077948
0.073088
0.062392
0.056856
0.11144
0.11143
0.10989
0.10785
0.10355
0.099986
0.092331
0.087989
0.077918
0.072904
0.06218
0.0565
0.11182
0.11182
0.11027
0.1082
0.10384
0.10022
0.092488
0.088021
0.07789
0.072719
0.061964
0.056137
0.11221
0.11221
0.11065
0.10856
0.10415
0.10046
0.092653
0.088057
0.077864
0.072533
0.061743
0.055768
0.11261
0.11263
0.11105
0.10894
0.10447
0.10071
0.092826
0.088098
0.07784
0.072346
0.061518
0.055391
0.11303
0.11305
0.11146
0.10933
0.1048
0.10097
0.093007
0.088144
0.077819
0.072158
0.061288
0.055007
0.11345
0.11349
0.11189
0.10973
0.10514
0.10124
0.093196
0.088195
0.077799
0.071968
0.061052
0.054614
0.11389
0.11394
0.11233
0.11015
0.1055
0.10152
0.093394
0.088251
0.077781
0.071776
0.060811
0.054213
0.11434
0.11441
0.11278
0.11058
0.10586
0.10181
0.0936
0.088311
0.077764
0.071583
0.060564
0.053803
0.11481
0.11489
0.11325
0.11102
0.10625
0.10211
0.093815
0.088376
0.077749
0.071387
0.06031
0.053383
0.11529
0.11538
0.11373
0.11148
0.10664
0.10242
0.094039
0.088446
0.077735
0.071188
0.060049
0.052954
0.11578
0.11589
0.11423
0.11195
0.10705
0.10274
0.094271
0.08852
0.077721
0.070986
0.05978
0.052513
0.11629
0.11642
0.11474
0.11244
0.10748
0.10307
0.094512
0.088599
0.077708
0.070781
0.059504
0.052061
0.11681
0.11696
0.11527
0.11295
0.10792
0.10342
0.094762
0.088682
0.077696
0.070571
0.059218
0.051598
0.11735
0.11752
0.11582
0.11347
0.10837
0.10378
0.095021
0.088769
0.077683
0.070357
0.058924
0.051121
0.11791
0.11809
0.11639
0.114
0.10884
0.10414
0.095289
0.08886
0.07767
0.070139
0.058619
0.050632
0.11848
0.11868
0.11697
0.11456
0.10933
0.10452
0.095565
0.088955
0.077656
0.069914
0.058304
0.050128
0.11907
0.11929
0.11757
0.11513
0.10983
0.10491
0.095851
0.089053
0.07764
0.069683
0.057978
0.04961
0.11967
0.11992
0.11819
0.11572
0.11035
0.10532
0.096146
0.089155
0.077623
0.069446
0.057639
0.049075
0.1203
0.12056
0.11883
0.11632
0.11089
0.10574
0.09645
0.089259
0.077604
0.069201
0.057287
0.048525
0.12094
0.12123
0.11949
0.11695
0.11144
0.10617
0.096763
0.089367
0.077582
0.068948
0.056922
0.047956
0.1216
0.12192
0.12018
0.1176
0.11202
0.10661
0.097086
0.089477
0.077557
0.068686
0.056542
0.047369
0.12228
0.12263
0.12088
0.11827
0.11261
0.10707
0.097418
0.08959
0.077528
0.068415
0.056146
0.046763
0.12299
0.12336
0.12161
0.11896
0.11323
0.10754
0.09776
0.089705
0.077495
0.068133
0.055734
0.046136
0.12372
0.12412
0.12237
0.11968
0.11386
0.10803
0.098112
0.089822
0.077457
0.06784
0.055304
0.045488
0.12447
0.1249
0.12315
0.12042
0.11452
0.10854
0.098475
0.089941
0.077413
0.067535
0.054855
0.044816
0.12525
0.12571
0.12396
0.12119
0.11521
0.10906
0.098848
0.090062
0.077364
0.067217
0.054387
0.044121
0.12605
0.12655
0.12481
0.12198
0.11592
0.1096
0.099232
0.090185
0.077309
0.066886
0.053898
0.0434
0.12689
0.12742
0.12568
0.12281
0.11666
0.11016
0.099629
0.09031
0.077247
0.06654
0.053387
0.042652
0.12775
0.12832
0.12659
0.12367
0.11743
0.11075
0.10004
0.090436
0.077177
0.066178
0.052852
0.041876
0.12865
0.12926
0.12754
0.12457
0.11823
0.11135
0.10046
0.090565
0.077099
0.0658
0.052294
0.041071
0.12959
0.13024
0.12853
0.1255
0.11906
0.11198
0.10089
0.090695
0.077013
0.065404
0.051709
0.040234
0.13056
0.13126
0.12957
0.12648
0.11993
0.11263
0.10134
0.090827
0.076917
0.064989
0.051097
0.039364
0.13158
0.13233
0.13065
0.1275
0.12084
0.11332
0.10181
0.090961
0.076811
0.064555
0.050456
0.03846
0.13264
0.13345
0.13179
0.12858
0.12179
0.11403
0.10229
0.091097
0.076694
0.064099
0.049784
0.037519
0.13375
0.13462
0.13298
0.1297
0.12279
0.11478
0.10279
0.091234
0.076566
0.063621
0.04908
0.03654
0.13491
0.13584
0.13423
0.13088
0.12384
0.11555
0.10331
0.091373
0.076424
0.063118
0.048342
0.03552
0.13613
0.13713
0.13554
0.13212
0.12494
0.11637
0.10385
0.091514
0.076267
0.062588
0.047567
0.034457
0.13741
0.13848
0.13693
0.13343
0.1261
0.11723
0.10441
0.091654
0.076094
0.06203
0.046752
0.033348
0.13875
0.13991
0.13839
0.13482
0.12731
0.11813
0.10498
0.091794
0.075902
0.06144
0.045895
0.032191
0.14016
0.14141
0.13994
0.13628
0.12859
0.11907
0.10558
0.091932
0.075689
0.060814
0.044992
0.030983
0.14165
0.143
0.14157
0.13782
0.12994
0.12006
0.1062
0.092066
0.07545
0.060149
0.044039
0.029719
0.1432
0.14467
0.14329
0.13945
0.13136
0.12109
0.10683
0.092193
0.075183
0.059441
0.043032
0.028396
0.14484
0.14643
0.14511
0.14117
0.13286
0.12218
0.10748
0.09231
0.074881
0.058683
0.041964
0.027009
0.14655
0.14829
0.14703
0.14299
0.13443
0.12331
0.10815
0.092412
0.074539
0.057869
0.04083
0.025552
0.14835
0.15025
0.14906
0.14492
0.13608
0.1245
0.10883
0.092495
0.07415
0.056993
0.039623
0.024021
0.15024
0.15231
0.1512
0.14695
0.13782
0.12573
0.10951
0.09255
0.073706
0.056044
0.038334
0.022407
0.15221
0.15449
0.15347
0.1491
0.13964
0.127
0.1102
0.092572
0.073197
0.055015
0.036954
0.020703
0.15428
0.15678
0.15586
0.15137
0.14155
0.12833
0.11088
0.092551
0.072614
0.053895
0.035474
0.0189
0.15643
0.15919
0.15839
0.15376
0.14355
0.12969
0.11155
0.092477
0.071944
0.052671
0.033882
0.016989
0.15868
0.16173
0.16105
0.15628
0.14563
0.13109
0.1122
0.092337
0.071174
0.051332
0.032166
0.014957
0.16103
0.1644
0.16387
0.15894
0.14781
0.13252
0.11282
0.092119
0.070292
0.049865
0.030315
0.012795
0.16347
0.1672
0.16684
0.16174
0.15008
0.13397
0.11339
0.091806
0.069279
0.048254
0.028314
0.010489
0.16601
0.17016
0.16999
0.1647
0.15244
0.13544
0.1139
0.091382
0.06812
0.046484
0.026151
0.0080285
0.16865
0.17328
0.17333
0.16782
0.15489
0.1369
0.11434
0.090825
0.066794
0.044539
0.02381
0.0053995
0.1714
0.17657
0.17688
0.17112
0.15744
0.13836
0.11467
0.090111
0.065279
0.042399
0.021277
0.0025903
0.17427
0.18006
0.18067
0.17461
0.16008
0.1398
0.11488
0.089211
0.063549
0.040043
0.018534
-0.00041118
0.17725
0.18377
0.18473
0.17831
0.16282
0.14118
0.11493
0.088089
0.061572
0.037447
0.015565
-0.0036169
0.18036
0.18772
0.18908
0.18225
0.16563
0.14248
0.11478
0.0867
0.059308
0.03458
0.012347
-0.0070393
0.1836
0.19194
0.19378
0.18643
0.16852
0.14367
0.11438
0.084991
0.056711
0.031405
0.0088542
-0.010692
0.18695
0.19647
0.19885
0.19087
0.17145
0.14467
0.11366
0.082895
0.053723
0.027876
0.0050555
-0.014591
0.19042
0.20132
0.20433
0.19557
0.17438
0.14543
0.11253
0.08033
0.050276
0.023941
0.00091337
-0.018755
0.19395
0.20652
0.21023
0.20051
0.17724
0.14584
0.11088
0.077201
0.046292
0.019538
-0.0036147
-0.023205
0.19751
0.21207
0.21657
0.20565
0.17993
0.14578
0.1086
0.073402
0.041684
0.014603
-0.008573
-0.027964
0.201
0.21794
0.22332
0.2109
0.1823
0.14508
0.10554
0.068813
0.036367
0.0090745
-0.014001
-0.033049
0.20431
0.22408
0.2304
0.21611
0.18415
0.14353
0.10151
0.063312
0.03026
0.0029047
-0.019926
-0.038467
0.20729
0.23039
0.23766
0.22105
0.1852
0.14088
0.096338
0.056778
0.023299
-0.0039319
-0.026346
-0.044202
0.20974
0.23669
0.24481
0.22534
0.18507
0.13684
0.089815
0.049102
0.015444
-0.011427
-0.033225
-0.050206
0.21145
0.24266
0.25138
0.22843
0.18327
0.13104
0.081736
0.040196
0.006687
-0.019534
-0.040485
-0.056393
0.2122
0.24776
0.25652
0.22943
0.17912
0.12307
0.071907
0.030008
-0.0029365
-0.028166
-0.048008
-0.062642
0.21182
0.25113
0.25885
0.22705
0.17173
0.11249
0.060175
0.018549
-0.013339
-0.037199
-0.055649
-0.068811
0.21025
0.25134
0.25612
0.21931
0.15991
0.09878
0.046466
0.0059289
-0.024359
-0.046469
-0.063247
-0.074759
0.2077
0.24627
0.245
0.20348
0.14216
0.081452
0.03081
-0.0076238
-0.035739
-0.055762
-0.070635
-0.080366
0.20481
0.2331
0.22099
0.17602
0.11669
0.05996
0.013302
-0.021792
-0.047149
-0.064824
-0.077649
-0.085548
0.20278
0.2089
0.17939
0.13319
0.081583
0.033714
-0.006014
-0.036298
-0.058277
-0.073415
-0.084151
-0.090262
0.20268
0.17072
0.11687
0.072512
0.035426
0.0021046
-0.027289
-0.051075
-0.068981
-0.081412
-0.090086
-0.094542
0.20578
0.11293
0.029348
-0.0079489
-0.023265
-0.036039
-0.051306
-0.066614
-0.079576
-0.089051
-0.095674
-0.098649
0.22374
0.039146
-0.08076
-0.10554
-0.093741
-0.08162
-0.07948
-0.084279
-0.091246
-0.097322
-0.10175
-0.10334
0.2686
-0.031042
-0.19332
-0.2037
-0.1648
-0.12875
-0.10947
-0.10348
-0.10409
-0.1065
-0.10864
-0.10879
0.10277
0.063376
0.05326
0.047233
0.043083
0.039982
0.037515
0.035392
0.03359
0.031735
0.030291
0.027801
0.12208
0.078602
0.066033
0.058015
0.052553
0.048522
0.045345
0.042632
0.040356
0.038014
0.036251
0.033338
0.10941
0.073486
0.062111
0.054221
0.048828
0.044866
0.041763
0.039127
0.036943
0.034686
0.033056
0.030229
0.10434
0.073131
0.062086
0.054104
0.048574
0.044498
0.041309
0.038604
0.03638
0.034075
0.032449
0.029494
0.10367
0.075265
0.06406
0.055861
0.050086
0.045803
0.042447
0.039601
0.037267
0.034849
0.033156
0.030038
0.10299
0.077047
0.06577
0.057437
0.051462
0.047001
0.043497
0.040523
0.038089
0.035571
0.033812
0.030576
0.10184
0.078298
0.067096
0.058711
0.052589
0.047982
0.044351
0.041269
0.038748
0.036151
0.034333
0.031025
0.10063
0.079323
0.068285
0.0599
0.053663
0.048926
0.045179
0.041996
0.039393
0.03673
0.034855
0.031516
0.099494
0.080206
0.069402
0.061062
0.05474
0.049887
0.04603
0.042753
0.040071
0.037351
0.035423
0.032092
0.098411
0.08094
0.070433
0.062182
0.05581
0.05086
0.046903
0.043537
0.04078
0.038015
0.036038
0.032755
0.097363
0.081524
0.071367
0.063247
0.05686
0.051835
0.047791
0.044347
0.04152
0.03872
0.036701
0.033502
0.096346
0.08197
0.072201
0.064247
0.057881
0.052806
0.04869
0.045178
0.04229
0.039466
0.037412
0.03433
0.095363
0.082295
0.072935
0.065177
0.058864
0.053763
0.049594
0.046027
0.043085
0.040249
0.038168
0.035228
0.094416
0.082515
0.073573
0.066031
0.0598
0.054698
0.050492
0.046884
0.043899
0.041062
0.038961
0.036184
0.093504
0.082643
0.074117
0.066807
0.06068
0.055599
0.051376
0.047742
0.044724
0.041896
0.039782
0.03718
0.09263
0.082694
0.074575
0.067504
0.061501
0.056462
0.052238
0.048591
0.045551
0.04274
0.04062
0.038197
0.091793
0.08268
0.074953
0.068126
0.062259
0.057278
0.053069
0.049422
0.04637
0.043586
0.041463
0.039219
0.090994
0.082612
0.075259
0.068674
0.062954
0.058045
0.053864
0.05023
0.047175
0.044423
0.042301
0.040226
0.09023
0.0825
0.0755
0.069154
0.063587
0.05876
0.054618
0.051007
0.047958
0.045242
0.043124
0.041205
0.089502
0.082353
0.075684
0.06957
0.064158
0.059422
0.05533
0.05175
0.048713
0.046037
0.043924
0.042143
0.088807
0.082176
0.075818
0.069927
0.064672
0.060033
0.055997
0.052456
0.049436
0.046801
0.044694
0.04303
0.088143
0.081975
0.075907
0.070232
0.065132
0.060593
0.056618
0.053121
0.050124
0.04753
0.045429
0.04386
0.087509
0.081756
0.075958
0.070488
0.06554
0.061104
0.057195
0.053746
0.050776
0.04822
0.046127
0.044628
0.086903
0.081522
0.075974
0.070701
0.065901
0.061569
0.057729
0.054331
0.051389
0.04887
0.046784
0.045333
0.086323
0.081276
0.075962
0.070875
0.066219
0.06199
0.058221
0.054875
0.051965
0.049479
0.047399
0.045976
0.085766
0.081021
0.075924
0.071013
0.066497
0.06237
0.058672
0.05538
0.052503
0.050047
0.047974
0.046558
0.085232
0.080759
0.075864
0.07112
0.066738
0.062712
0.059086
0.055847
0.053004
0.050574
0.048508
0.047083
0.084719
0.080492
0.075785
0.071199
0.066947
0.063018
0.059464
0.056278
0.053469
0.051063
0.049004
0.047554
0.084224
0.080221
0.075689
0.071254
0.067124
0.063292
0.059808
0.056674
0.053901
0.051513
0.049462
0.047977
0.083747
0.079948
0.075579
0.071285
0.067275
0.063534
0.060121
0.057038
0.0543
0.051928
0.049885
0.048355
0.083287
0.079674
0.075458
0.071297
0.0674
0.063749
0.060405
0.057371
0.054668
0.05231
0.050274
0.048694
0.082842
0.079399
0.075326
0.071291
0.067502
0.063938
0.060661
0.057675
0.055008
0.05266