/*--------------------------------*- C++ -*----------------------------------*\
  =========                 |
  \\      /  F ield         | OpenFOAM: The Open Source CFD Toolbox
   \\    /   O peration     | Website:  https://openfoam.org
    \\  /    A nd           | Version:  6.0
     \\/     M anipulation  |
\*---------------------------------------------------------------------------*/
FoamFile
{
    version     2.0;
    format      ascii;
    class       volScalarField;
    location    "17";
    object      p;
}
// * * * * * * * * * * * * * * * * * * * * * * * * * * * * * * * * * * * * * //

dimensions      [0 2 -2 0 0 0 0];

internalField   nonuniform List<scalar> 
62000
(
0.0180824
0.0180811
0.0180793
0.018077
0.018074
0.0180703
0.0180657
0.0180601
0.0180533
0.018045
0.018035
0.018023
0.0180087
0.0179916
0.0179713
0.0179474
0.0179191
0.0178859
0.0178471
0.017802
0.0177495
0.0176889
0.0176191
0.0175391
0.0174478
0.0173441
0.0172268
0.0170951
0.016948
0.0167847
0.0166048
0.016408
0.0161946
0.0159652
0.0157209
0.0154636
0.0151954
0.0149192
0.014638
0.0143548
0.0140721
0.0137906
0.0135086
0.0132209
0.0129174
0.0125827
0.0121966
0.0117352
0.0111746
0.0104969
0.00969765
0.00878936
0.00780756
0.00680307
0.00582828
0.00491113
0.00408079
0.00320448
0.00250169
0.00250062
0.0181271
0.018126
0.0181244
0.0181224
0.0181197
0.0181162
0.0181117
0.0181061
0.0180991
0.0180906
0.0180803
0.018068
0.0180533
0.0180358
0.0180151
0.0179909
0.0179624
0.0179292
0.0178906
0.0178457
0.0177939
0.0177342
0.0176657
0.0175876
0.0174987
0.0173981
0.0172848
0.0171579
0.0170166
0.0168603
0.0166887
0.0165018
0.0162998
0.0160837
0.0158548
0.015615
0.0153667
0.015113
0.0148574
0.0146036
0.0143546
0.0141123
0.0138761
0.013642
0.0134008
0.0131376
0.0128313
0.0124551
0.0119791
0.011376
0.0106299
0.00974075
0.00873338
0.00765599
0.00656876
0.00550753
0.00451909
0.00344299
0.0026711
0.00222176
0.0182252
0.018224
0.0182221
0.0182194
0.0182159
0.0182113
0.0182056
0.0181985
0.0181899
0.0181796
0.0181672
0.0181526
0.0181354
0.0181153
0.0180919
0.0180647
0.0180331
0.0179965
0.0179544
0.0179058
0.01785
0.0177861
0.0177131
0.0176301
0.0175359
0.0174296
0.0173102
0.0171765
0.0170278
0.0168631
0.0166821
0.0164844
0.0162702
0.01604
0.0157947
0.0155359
0.0152652
0.0149852
0.014699
0.0144102
0.0141218
0.0138363
0.013554
0.0132726
0.0129853
0.0126802
0.0123391
0.0119377
0.0114466
0.0108357
0.0100821
0.00917593
0.00812825
0.00698254
0.00580525
0.004651
0.00359478
0.00252867
0.00182602
0.00139031
0.0183681
0.0183667
0.0183641
0.0183603
0.0183553
0.0183489
0.0183411
0.0183316
0.0183202
0.0183069
0.0182913
0.0182732
0.0182524
0.0182286
0.0182012
0.01817
0.0181343
0.0180934
0.0180468
0.0179936
0.017933
0.017864
0.0177857
0.017697
0.017597
0.0174846
0.0173586
0.0172181
0.0170618
0.0168891
0.016699
0.0164914
0.016266
0.0160232
0.0157635
0.0154878
0.0151973
0.0148939
0.0145803
0.0142597
0.0139354
0.0136101
0.0132854
0.012961
0.0126332
0.0122943
0.0119316
0.0115264
0.011054
0.0104856
0.00979495
0.0089624
0.00797961
0.00687306
0.00569976
0.00451775
0.00341659
0.00232849
0.00156851
0.00116436
0.0185465
0.0185446
0.0185409
0.0185356
0.0185287
0.01852
0.0185095
0.0184971
0.0184824
0.0184655
0.018446
0.0184239
0.0183988
0.0183705
0.0183385
0.0183025
0.0182619
0.0182161
0.0181644
0.018106
0.0180401
0.0179656
0.0178818
0.0177875
0.0176817
0.0175633
0.0174313
0.0172845
0.0171218
0.0169422
0.0167449
0.0165293
0.0162953
0.0160429
0.0157722
0.0154837
0.0151778
0.0148559
0.0145198
0.0141723
0.0138161
0.013454
0.0130882
0.0127195
0.0123467
0.011966
0.0115703
0.0111484
0.0106836
0.0101538
0.00953479
0.0088026
0.00793239
0.00692807
0.00582376
0.00466083
0.00352313
0.0023537
0.00143085
0.000820168
0.0187328
0.0187306
0.0187265
0.0187204
0.0187124
0.0187024
0.0186902
0.0186755
0.0186584
0.0186385
0.0186158
0.01859
0.018561
0.0185284
0.018492
0.0184513
0.0184058
0.0183548
0.0182978
0.0182338
0.0181621
0.0180816
0.0179915
0.0178908
0.0177785
0.0176533
0.0175144
0.0173604
0.0171903
0.0170028
0.016797
0.0165723
0.0163281
0.0160642
0.0157806
0.0154769
0.015153
0.0148089
0.0144456
0.0140645
0.0136674
0.013256
0.0128319
0.0123954
0.0119458
0.0114816
0.0109997
0.0104959
0.00996325
0.00939039
0.00876342
0.00806347
0.00726059
0.00634363
0.00532661
0.00422938
0.00312168
0.00194851
0.000939281
0.000208848
0.0189273
0.0189249
0.0189202
0.0189133
0.0189041
0.0188927
0.0188787
0.0188621
0.0188426
0.0188201
0.0187944
0.0187654
0.0187327
0.0186963
0.0186557
0.0186105
0.0185602
0.0185043
0.0184421
0.0183727
0.0182954
0.0182092
0.0181133
0.0180066
0.0178882
0.0177569
0.0176118
0.0174517
0.0172752
0.0170813
0.0168689
0.0166371
0.0163853
0.0161132
0.0158203
0.015506
0.0151692
0.014809
0.0144251
0.0140175
0.0135867
0.0131328
0.0126556
0.0121534
0.0116241
0.011065
0.0104744
0.00985217
0.00919883
0.00851454
0.0077992
0.00704737
0.00623611
0.00535296
0.00440267
0.00338985
0.0023691
0.00128587
0.000294457
-0.000407345
0.0191191
0.0191166
0.0191117
0.0191042
0.0190943
0.0190818
0.0190665
0.0190482
0.0190268
0.0190021
0.0189739
0.0189421
0.0189065
0.0188669
0.0188229
0.0187741
0.0187202
0.0186604
0.0185941
0.0185206
0.018439
0.0183486
0.0182484
0.0181375
0.0180152
0.0178802
0.0177318
0.0175687
0.0173898
0.0171941
0.0169804
0.016748
0.0164963
0.0162249
0.0159336
0.0156215
0.0152871
0.0149287
0.0145453
0.0141361
0.0137003
0.0132367
0.0127429
0.0122147
0.0116467
0.0110331
0.0103696
0.0096554
0.008894
0.00809251
0.0072626
0.00641333
0.00553456
0.00462185
0.00368181
0.00271292
0.00175737
0.00075857
-0.00021971
-0.000915737
0.0193179
0.0193149
0.0193091
0.0193004
0.019289
0.0192749
0.0192577
0.0192373
0.0192137
0.0191866
0.0191558
0.0191213
0.0190829
0.0190402
0.018993
0.0189411
0.0188838
0.0188206
0.018751
0.0186741
0.0185893
0.0184957
0.0183927
0.0182792
0.0181546
0.0180179
0.0178683
0.0177049
0.0175265
0.0173324
0.0171216
0.0168935
0.0166476
0.0163841
0.0161028
0.015803
0.0154834
0.0151422
0.014778
0.0143899
0.0139769
0.0135374
0.0130674
0.0125605
0.0120077
0.0113988
0.0107248
0.00998002
0.00916521
0.0082881
0.00736562
0.00641696
0.00544365
0.00445242
0.00345696
0.00245636
0.00148385
0.000478704
-0.000574206
-0.00137814
0.019505
0.0195017
0.0194955
0.0194862
0.0194741
0.0194589
0.0194406
0.0194188
0.0193935
0.0193645
0.0193317
0.019295
0.0192541
0.0192089
0.0191592
0.0191045
0.0190445
0.0189784
0.018906
0.0188262
0.0187385
0.0186421
0.0185363
0.0184202
0.0182933
0.0181547
0.0180036
0.0178392
0.0176605
0.017467
0.0172577
0.0170325
0.0167912
0.0165338
0.016261
0.0159722
0.0156664
0.0153422
0.0149984
0.014635
0.0142518
0.0138473
0.0134175
0.012955
0.0124484
0.0118837
0.0112464
0.0105243
0.00971165
0.00881108
0.0078382
0.00681522
0.00575023
0.00465862
0.00356244
0.00246545
0.00139764
0.000298258
-0.00090751
-0.00189372
0.0196919
0.019688
0.0196807
0.0196703
0.0196568
0.01964
0.0196199
0.0195963
0.0195691
0.019538
0.019503
0.0194638
0.0194204
0.0193726
0.01932
0.0192623
0.0191991
0.0191298
0.0190539
0.0189706
0.0188793
0.0187791
0.0186695
0.0185494
0.0184184
0.0182754
0.0181199
0.0179509
0.0177677
0.0175693
0.0173555
0.0171258
0.0168802
0.0166194
0.0163435
0.0160528
0.0157462
0.0154229
0.0150826
0.0147262
0.014355
0.013969
0.0135654
0.0131372
0.0126726
0.0121558
0.011568
0.0108913
0.0101123
0.00922587
0.00824148
0.00717874
0.00604642
0.00486463
0.00366168
0.00244769
0.00125433
2.71624e-05
-0.00134738
-0.00250826
0.0198623
0.019858
0.0198502
0.019839
0.0198245
0.0198066
0.0197853
0.0197602
0.0197312
0.0196983
0.0196613
0.01962
0.0195743
0.019524
0.0194688
0.0194083
0.0193421
0.0192695
0.01919
0.0191027
0.019007
0.018902
0.018787
0.018661
0.0185234
0.0183732
0.0182095
0.0180314
0.0178378
0.0176281
0.0174014
0.0171577
0.0168967
0.0166186
0.0163243
0.0160136
0.0156855
0.0153396
0.0149764
0.0145979
0.0142072
0.0138065
0.013395
0.0129676
0.0125143
0.0120196
0.0114634
0.0108241
0.0100822
0.00922505
0.00825421
0.00718318
0.00601724
0.00477685
0.00349405
0.00218535
0.000888139
-0.000439534
-0.00194169
-0.00321633
0.0200246
0.0200196
0.0200107
0.0199982
0.0199823
0.0199629
0.0199399
0.0199132
0.0198824
0.0198477
0.0198087
0.0197653
0.0197173
0.0196646
0.0196067
0.0195433
0.0194738
0.0193977
0.0193142
0.0192225
0.0191218
0.0190112
0.0188898
0.0187566
0.0186106
0.0184508
0.0182761
0.0180853
0.0178772
0.0176506
0.0174047
0.0171389
0.0168528
0.0165467
0.0162204
0.0158738
0.0155058
0.0151158
0.014705
0.0142763
0.0138345
0.0133838
0.0129263
0.0124598
0.0119773
0.011466
0.010907
0.0102783
0.00955712
0.00872522
0.00777711
0.00671958
0.00555213
0.0042929
0.00297478
0.00161939
0.000270271
-0.00110087
-0.00266467
-0.00397842
0.0201584
0.020153
0.0201438
0.020131
0.0201148
0.0200952
0.0200719
0.0200446
0.0200134
0.0199779
0.019938
0.0198936
0.0198444
0.0197902
0.0197307
0.0196653
0.0195935
0.0195146
0.0194279
0.0193323
0.0192271
0.0191111
0.0189834
0.0188427
0.0186881
0.0185181
0.0183315
0.0181267
0.0179023
0.0176566
0.0173885
0.0170971
0.0167814
0.0164409
0.0160756
0.0156843
0.0152656
0.0148186
0.0143445
0.013847
0.0133319
0.0128056
0.0122724
0.0117338
0.0111864
0.0106215
0.0100238
0.00937341
0.00864744
0.00782517
0.00689627
0.0058617
0.00471495
0.00347023
0.00215915
0.000806454
-0.00053929
-0.00189449
-0.00345987
-0.00475396
0.0202863
0.0202801
0.0202701
0.0202565
0.0202395
0.0202192
0.0201952
0.0201674
0.0201355
0.0200995
0.020059
0.0200139
0.0199639
0.0199087
0.0198479
0.0197811
0.0197075
0.0196264
0.019537
0.0194384
0.0193294
0.0192089
0.0190759
0.0189289
0.0187666
0.0185876
0.0183902
0.0181726
0.0179329
0.0176692
0.01738
0.0170636
0.0167187
0.0163445
0.0159397
0.015503
0.0150319
0.0145251
0.0139836
0.0134111
0.0128141
0.0122002
0.011576
0.0109459
0.0103106
0.00966586
0.00900127
0.00830106
0.00754481
0.00671221
0.0057906
0.00477734
0.00366065
0.00245062
0.00117604
-0.000137399
-0.00143933
-0.00273924
-0.00426783
-0.00550826
0.0204023
0.0203957
0.0203853
0.0203713
0.0203541
0.0203335
0.0203094
0.0202815
0.0202495
0.0202133
0.0201727
0.0201275
0.0200773
0.0200219
0.0199609
0.0198937
0.0198195
0.0197376
0.0196471
0.0195468
0.0194357
0.0193124
0.0191757
0.0190243
0.0188565
0.0186707
0.0184651
0.0182376
0.017986
0.017708
0.0174014
0.0170645
0.0166954
0.0162922
0.0158536
0.0153772
0.0148597
0.0142991
0.0136959
0.0130533
0.0123779
0.011678
0.0109615
0.0102353
0.00950329
0.00876588
0.00801775
0.00724826
0.0064412
0.00557878
0.00464858
0.00364628
0.00255644
0.00138531
0.000158109
-0.00110036
-0.00234052
-0.00356923
-0.00504763
-0.00622503
0.0205272
0.0205197
0.0205083
0.0204934
0.0204753
0.020454
0.0204293
0.020401
0.0203687
0.0203324
0.0202918
0.0202465
0.0201964
0.0201411
0.0200802
0.020013
0.0199387
0.0198567
0.0197658
0.019665
0.0195531
0.0194286
0.0192903
0.0191366
0.0189659
0.0187763
0.0185658
0.0183322
0.0180729
0.0177854
0.0174673
0.0171161
0.0167295
0.0163057
0.0158419
0.0153354
0.0147823
0.0141792
0.0135262
0.0128258
0.0120839
0.0113088
0.0105093
0.00969354
0.00886806
0.00803695
0.00719965
0.00635088
0.00547932
0.00457117
0.00361579
0.00260934
0.00153401
0.000393237
-0.000791455
-0.00199738
-0.00317827
-0.00434262
-0.0057765
-0.00689741
0.0206447
0.0206368
0.0206252
0.0206105
0.0205928
0.0205722
0.0205483
0.0205208
0.0204895
0.0204541
0.0204145
0.0203703
0.0203213
0.0202672
0.0202075
0.0201415
0.0200686
0.0199877
0.019898
0.0197981
0.019687
0.0195631
0.0194252
0.0192714
0.0191002
0.0189096
0.0186976
0.0184616
0.0181991
0.0179072
0.0175832
0.0172244
0.0168282
0.0163918
0.0159127
0.0153871
0.0148104
0.0141785
0.0134902
0.0127475
0.0119552
0.011121
0.0102536
0.00936168
0.00845349
0.0075358
0.00661202
0.00568163
0.00473827
0.00377262
0.00277702
0.00174927
0.000670791
-0.000456964
-0.00161587
-0.00278587
-0.00392479
-0.00504468
-0.00645142
-0.00753163
0.0207835
0.0207749
0.0207627
0.0207475
0.0207296
0.020709
0.0206853
0.0206583
0.0206277
0.0205932
0.0205546
0.0205116
0.0204639
0.0204111
0.0203528
0.0202883
0.0202169
0.0201377
0.0200497
0.0199516
0.0198422
0.0197201
0.0195839
0.0194319
0.0192623
0.0190731
0.0188623
0.0186272
0.0183652
0.0180732
0.0177485
0.0173879
0.0169885
0.0165477
0.0160619
0.0155272
0.0149383
0.01429
0.0135806
0.0128108
0.0119842
0.0111075
0.0101889
0.00923684
0.00826009
0.00726723
0.00626454
0.00525551
0.00423813
0.00320763
0.00215955
0.00109444
-6.29805e-06
-0.001142
-0.0022972
-0.00345434
-0.00457566
-0.00567804
-0.00707853
-0.00813531
0.0209347
0.0209259
0.0209137
0.0208987
0.0208812
0.0208612
0.0208383
0.0208121
0.0207825
0.0207491
0.0207117
0.0206701
0.020624
0.020573
0.0205168
0.0204545
0.0203854
0.0203087
0.0202232
0.0201278
0.0200212
0.0199019
0.0197686
0.0196195
0.0194529
0.0192669
0.0190592
0.0188273
0.0185685
0.0182797
0.0179578
0.0175998
0.0172026
0.0167628
0.0162773
0.0157414
0.0151493
0.0144951
0.0137761
0.012992
0.0121452
0.011241
0.0102866
0.0092895
0.00825846
0.00720282
0.00613074
0.00504865
0.00395819
0.00285864
0.00174886
0.000632334
-0.000508481
-0.00167306
-0.00284787
-0.00401727
-0.00514687
-0.00625788
-0.00767214
-0.00872145
0.0211181
0.0211088
0.0210961
0.0210806
0.0210628
0.0210427
0.0210199
0.0209941
0.020965
0.0209324
0.020896
0.0208557
0.0208109
0.0207616
0.020707
0.0206466
0.0205796
0.0205052
0.0204222
0.0203295
0.0202259
0.0201098
0.0199798
0.0198344
0.0196716
0.0194896
0.0192862
0.0190589
0.0188049
0.0185211
0.0182044
0.0178517
0.0174595
0.0170251
0.0165441
0.0160122
0.015423
0.01477
0.0140496
0.0132605
0.0124038
0.0114835
0.0105053
0.00947564
0.0084025
0.00729527
0.00616306
0.00501444
0.00385367
0.00268367
0.00150601
0.000327479
-0.00086837
-0.00208012
-0.00329524
-0.00449909
-0.0056597
-0.0068022
-0.00824554
-0.00929891
0.0213089
0.0212997
0.0212876
0.0212732
0.0212567
0.0212381
0.021217
0.0211929
0.0211656
0.0211348
0.0211004
0.021062
0.0210194
0.0209723
0.0209201
0.0208623
0.0207981
0.0207265
0.0206465
0.0205569
0.0204565
0.0203439
0.0202175
0.0200759
0.0199172
0.0197396
0.0195408
0.0193185
0.0190698
0.0187918
0.0184812
0.0181349
0.0177496
0.0173216
0.0168477
0.0163225
0.0157396
0.0150918
0.0143748
0.0135864
0.0127265
0.0117976
0.010804
0.0097508
0.0086447
0.0074947
0.00631011
0.00510077
0.00387288
0.00263225
0.00138281
0.000134394
-0.00112768
-0.00240088
-0.00367301
-0.00492951
-0.00613925
-0.00732994
-0.00881301
-0.00987825
0.021535
0.0215258
0.0215138
0.0214996
0.0214836
0.0214657
0.0214454
0.0214225
0.0213965
0.0213673
0.0213345
0.0212979
0.0212572
0.0212121
0.021162
0.0211064
0.0210444
0.0209752
0.0208978
0.020811
0.0207136
0.0206041
0.0204811
0.020343
0.0201883
0.0200147
0.0198204
0.0196029
0.0193594
0.0190869
0.0187823
0.0184423
0.0180634
0.0176428
0.0171759
0.0166581
0.0160823
0.015441
0.0147292
0.013944
0.0130839
0.0121503
0.011146
0.0100745
0.00894133
0.00775454
0.00652329
0.00525792
0.00396609
0.00265575
0.00133285
9.8066e-06
-0.00132649
-0.00267152
-0.00401269
-0.00533459
-0.00660575
-0.00785581
-0.00938381
-0.0104646
0.021781
0.0217725
0.0217613
0.0217482
0.0217333
0.0217167
0.0216979
0.0216764
0.0216519
0.0216242
0.0215931
0.0215583
0.0215195
0.0214765
0.0214287
0.0213755
0.021316
0.0212495
0.0211748
0.0210908
0.0209962
0.0208897
0.0207697
0.0206349
0.0204834
0.0203134
0.0201229
0.0199094
0.0196703
0.0194025
0.0191029
0.0187684
0.0183954
0.0179803
0.0175199
0.0170084
0.0164389
0.0158035
0.0150966
0.0143145
0.0134548
0.0125175
0.0115041
0.0104168
0.00925948
0.00803932
0.00676482
0.00544661
0.00409302
0.00271398
0.00131665
-8.40057e-05
-0.00149921
-0.00292249
-0.00434046
-0.00573612
-0.00707637
-0.00839167
-0.00996643
-0.011064
0.022067
0.0220585
0.0220474
0.0220343
0.0220196
0.0220033
0.0219849
0.0219641
0.0219404
0.0219137
0.0218837
0.0218502
0.0218128
0.0217713
0.021725
0.0216735
0.0216158
0.0215512
0.0214785
0.0213966
0.0213043
0.0212001
0.0210826
0.0209503
0.0208015
0.0206343
0.0204467
0.0202363
0.0200004
0.0197361
0.0194403
0.0191096
0.0187405
0.0183301
0.0178738
0.0173668
0.0168016
0.0161701
0.015466
0.0146852
0.0138243
0.0128821
0.0118591
0.0107557
0.00957495
0.00832256
0.00700655
0.00563714
0.00422359
0.00277676
0.00130556
-0.000173941
-0.00167093
-0.00317638
-0.00467558
-0.00614924
-0.00756184
-0.00894433
-0.0105643
-0.0116779
0.0223612
0.0223536
0.0223438
0.0223324
0.0223196
0.0223053
0.022289
0.0222702
0.0222485
0.0222238
0.0221957
0.0221642
0.0221288
0.0220892
0.0220451
0.0219956
0.0219401
0.0218775
0.0218069
0.021727
0.0216367
0.0215344
0.0214188
0.0212884
0.0211415
0.0209762
0.0207906
0.0205821
0.0203483
0.0200862
0.0197925
0.0194641
0.0190974
0.0186888
0.0182349
0.0177299
0.0171665
0.0165361
0.0158323
0.0150499
0.0141851
0.0132357
0.0122009
0.0110799
0.00987464
0.00858951
0.007232
0.00581179
0.00433882
0.00282474
0.00127967
-0.000279292
-0.00185891
-0.00344795
-0.0050301
-0.0065834
-0.00806916
-0.00951823
-0.0111807
-0.012309
0.0226945
0.0226873
0.0226779
0.0226671
0.022655
0.0226416
0.0226263
0.0226087
0.0225884
0.0225651
0.0225385
0.0225085
0.0224746
0.0224366
0.0223938
0.0223458
0.0222915
0.0222303
0.022161
0.0220824
0.0219933
0.0218923
0.0217779
0.0216487
0.0215029
0.0213386
0.0211539
0.0209463
0.0207134
0.0204519
0.020159
0.0198311
0.0194646
0.0190565
0.0186023
0.0180969
0.0175325
0.0169003
0.0161933
0.0154062
0.0145342
0.0135742
0.0125245
0.0113833
0.0101512
0.00883181
0.00743175
0.00596024
0.00442796
0.00284676
0.00122873
-0.000409658
-0.00207245
-0.00374573
-0.00541126
-0.00704388
-0.00860134
-0.0101144
-0.0118154
-0.0129566
0.0230484
0.0230423
0.0230341
0.0230246
0.0230139
0.023002
0.0229881
0.0229719
0.0229528
0.0229308
0.0229055
0.0228768
0.0228442
0.0228075
0.0227662
0.0227196
0.0226668
0.0226069
0.0225389
0.0224614
0.0223733
0.0222731
0.0221593
0.0220305
0.021885
0.0217209
0.0215362
0.0213285
0.0210952
0.0208333
0.0205396
0.0202107
0.0198431
0.0194329
0.0189766
0.0184684
0.0179004
0.0172635
0.0165505
0.0157554
0.0148727
0.0138988
0.0128309
0.0116664
0.0104047
0.00904868
0.00760416
0.00608009
0.00448751
0.00283896
0.00114759
-0.000570304
-0.00231589
-0.00407288
-0.00582094
-0.00753158
-0.00915877
-0.0107329
-0.0124689
-0.0136215
0.0234456
0.0234397
0.0234316
0.0234222
0.0234114
0.0233995
0.0233856
0.0233696
0.0233509
0.0233293
0.0233045
0.0232763
0.0232442
0.0232081
0.0231672
0.0231212
0.0230687
0.0230092
0.0229415
0.0228643
0.0227763
0.0226762
0.0225624
0.0224333
0.0222874
0.0221227
0.0219372
0.0217284
0.0214938
0.0212303
0.0209347
0.0206035
0.0202329
0.0198197
0.0193592
0.0188461
0.0182722
0.017628
0.016906
0.0160997
0.0152031
0.0142117
0.0131222
0.0119311
0.0106369
0.00924142
0.00775031
0.00617183
0.00451798
0.0028011
0.00103682
-0.000760699
-0.00258918
-0.00442975
-0.0062596
-0.00804655
-0.00974063
-0.0113721
-0.013139
-0.014302
0.0238487
0.0238439
0.0238373
0.0238296
0.0238208
0.0238108
0.0237988
0.0237845
0.0237673
0.0237471
0.0237234
0.0236963
0.0236652
0.02363
0.0235899
0.0235446
0.0234928
0.0234338
0.0233664
0.0232893
0.0232012
0.0231008
0.0229863
0.0228565
0.0227095
0.0225435
0.0223564
0.0221458
0.021909
0.0216431
0.0213445
0.02101
0.0206357
0.0202175
0.0197517
0.019232
0.0186502
0.0179966
0.0172632
0.0164431
0.0155296
0.0145179
0.0134037
0.0121827
0.0108529
0.00941535
0.00787501
0.00624008
0.00452301
0.00273681
0.000898358
-0.000979149
-0.00289038
-0.00481381
-0.00672413
-0.00858556
-0.0103443
-0.0120303
-0.0138253
-0.0149982
0.0242921
0.0242879
0.0242816
0.0242743
0.0242658
0.0242562
0.0242447
0.024231
0.0242144
0.0241948
0.0241717
0.0241451
0.0241143
0.0240793
0.0240393
0.0239939
0.0239417
0.0238823
0.0238143
0.0237365
0.0236476
0.0235461
0.0234305
0.0232993
0.0231507
0.0229827
0.0227935
0.0225804
0.0223408
0.0220716
0.0217696
0.0214309
0.0210516
0.0206282
0.0201556
0.0196281
0.0190369
0.018372
0.0176251
0.0167888
0.0158559
0.014821
0.0136791
0.0124256
0.0110573
0.00957478
0.00798274
0.00628903
0.00450705
0.00264967
0.000736585
-0.00122176
-0.00321614
-0.00522254
-0.00721282
-0.00914723
-0.010968
-0.0127052
-0.0145254
-0.0157083
0.024753
0.0247499
0.0247449
0.0247387
0.0247315
0.0247229
0.0247123
0.0246993
0.0246832
0.0246639
0.024641
0.0246146
0.0245839
0.0245489
0.0245089
0.0244633
0.024411
0.0243512
0.0242826
0.024204
0.024114
0.0240112
0.0238939
0.0237608
0.02361
0.0234397
0.0232477
0.0230316
0.0227888
0.022516
0.0222097
0.0218664
0.021482
0.021052
0.0205722
0.0200359
0.0194343
0.0187568
0.0179948
0.0171405
0.0161862
0.0151259
0.0139541
0.0126652
0.0112559
0.00972581
0.00807952
0.00632462
0.0044754
0.00254511
0.000555422
-0.00148489
-0.00356285
-0.00565194
-0.00772118
-0.00972719
-0.0116085
-0.0133949
-0.0152387
-0.016432
0.0252564
0.0252535
0.0252482
0.0252416
0.0252336
0.0252243
0.025213
0.0251992
0.0251824
0.0251625
0.0251389
0.0251116
0.0250801
0.0250442
0.0250031
0.0249564
0.0249027
0.0248415
0.0247714
0.0246911
0.0245993
0.0244945
0.0243751
0.0242396
0.0240863
0.0239132
0.0237181
0.0234987
0.0232522
0.0229754
0.0226648
0.0223165
0.0219262
0.02149
0.0210022
0.0204566
0.0198437
0.0191526
0.0183743
0.0175005
0.0165231
0.0154354
0.0142315
0.0129052
0.0114524
0.00987233
0.00816934
0.00635091
0.00443226
0.00242671
0.000358935
-0.00176476
-0.00392715
-0.00609952
-0.0082478
-0.0103246
-0.0122645
-0.0140975
-0.0159628
-0.0171678
0.0257563
0.0257545
0.0257508
0.0257458
0.0257395
0.0257317
0.0257217
0.0257091
0.0256931
0.0256735
0.0256501
0.0256228
0.025591
0.0255546
0.0255129
0.0254654
0.0254108
0.0253483
0.0252768
0.0251948
0.0251011
0.0249941
0.0248723
0.0247341
0.024578
0.0244018
0.0242035
0.0239805
0.0237302
0.0234493
0.0231341
0.0227808
0.0223849
0.0219416
0.021446
0.0208908
0.0202662
0.0195609
0.0187656
0.0178714
0.0168697
0.0157533
0.0145156
0.0131499
0.0116515
0.0100192
0.00825707
0.00637277
0.0043821
0.00229921
0.000150722
-0.00205794
-0.00430577
-0.00656157
-0.00878829
-0.010935
-0.0129327
-0.0148113
-0.0166975
-0.017915
0.0262917
0.0262904
0.0262869
0.0262819
0.0262756
0.0262677
0.0262576
0.0262448
0.0262286
0.0262087
0.0261848
0.0261567
0.0261238
0.0260861
0.0260428
0.0259935
0.0259368
0.0258722
0.0257982
0.0257139
0.0256175
0.0255079
0.0253833
0.0252423
0.0250831
0.0249037
0.0247021
0.0244756
0.0242215
0.0239364
0.0236169
0.0232586
0.0228568
0.0224074
0.0219036
0.0213388
0.0207023
0.0199824
0.0191694
0.0182541
0.0172272
0.0160808
0.0148079
0.0134011
0.0118551
0.0101685
0.00834508
0.0063926
0.00432754
0.00216466
-6.66586e-05
-0.00236209
-0.00469656
-0.00703673
-0.00934242
-0.0115587
-0.013613
-0.0155349
-0.0174408
-0.0186726
0.0268401
0.0268401
0.0268377
0.0268337
0.026828
0.0268204
0.0268102
0.0267969
0.0267797
0.0267586
0.0267331
0.0267033
0.0266686
0.026629
0.0265837
0.0265324
0.0264737
0.0264069
0.0263307
0.026244
0.0261451
0.0260329
0.0259055
0.0257616
0.0255994
0.025417
0.0252121
0.0249822
0.0247246
0.0244357
0.024112
0.023749
0.0233423
0.0228859
0.0223746
0.0218002
0.0211519
0.0204176
0.019587
0.0186503
0.0175975
0.0164203
0.015111
0.0136616
0.0120665
0.0103236
0.00843666
0.00641369
0.00427169
0.00202652
-0.000290454
-0.00267465
-0.00509714
-0.00752209
-0.00990642
-0.0121918
-0.0143022
-0.0162671
-0.0181924
-0.0194398
0.0274394
0.0274383
0.0274332
0.0274257
0.0274158
0.0274038
0.027389
0.0273713
0.0273499
0.0273249
0.0272957
0.0272626
0.0272247
0.0271822
0.0271341
0.0270802
0.0270188
0.0269495
0.0268708
0.0267816
0.0266802
0.0265655
0.0264355
0.026289
0.0261242
0.0259391
0.0257314
0.0254986
0.0252379
0.0249457
0.0246184
0.0242512
0.0238392
0.0233773
0.0228584
0.0222748
0.0216151
0.0208665
0.0200182
0.0190599
0.0179808
0.016772
0.0154252
0.0139319
0.012286
0.010485
0.00853256
0.00643687
0.00421556
0.00188536
-0.000519669
-0.00299463
-0.00550658
-0.00801749
-0.0104813
-0.0128358
-0.0150011
-0.017007
-0.0189509
-0.0202157
0.0279222
0.0279248
0.0279251
0.0279238
0.0279207
0.0279153
0.0279069
0.0278948
0.0278784
0.0278574
0.0278316
0.027801
0.0277651
0.0277239
0.0276767
0.027623
0.0275615
0.0274915
0.0274118
0.0273213
0.0272183
0.0271018
0.0269701
0.0268217
0.0266549
0.0264677
0.026258
0.026023
0.0257599
0.025465
0.0251345
0.0247637
0.0243476
0.0238799
0.0233545
0.0227623
0.0220917
0.0213293
0.0204637
0.0194838
0.0183783
0.0171374
0.0157523
0.0142139
0.0125157
0.0106548
0.00863488
0.00646425
0.0041612
0.00174367
-0.000752177
-0.00332008
-0.00592308
-0.00852051
-0.0110635
-0.0134867
-0.0157068
-0.0177535
-0.0197159
-0.0209995
0.0285354
0.0285355
0.0285312
0.0285238
0.0285138
0.0285015
0.0284863
0.0284682
0.0284462
0.0284206
0.0283906
0.0283567
0.0283177
0.0282741
0.0282245
0.0281689
0.0281054
0.0280339
0.0279527
0.0278608
0.0277566
0.027639
0.0275061
0.0273566
0.0271888
0.0270006
0.0267896
0.0265534
0.0262887
0.025992
0.0256594
0.0252858
0.024866
0.0243942
0.0238626
0.0232626
0.0225816
0.0218058
0.0209231
0.0199217
0.0187894
0.0175158
0.0160915
0.0145069
0.012755
0.0108326
0.00874327
0.00649557
0.00410849
0.00160098
-0.000988047
-0.00365091
-0.00634655
-0.00903191
-0.0116551
-0.0141469
-0.0164206
-0.0185062
-0.0204864
-0.0217905
0.0289996
0.0290035
0.0290047
0.0290039
0.029001
0.0289956
0.0289872
0.028975
0.0289584
0.0289373
0.0289112
0.0288803
0.0288441
0.0288024
0.0287547
0.0287003
0.028638
0.0285671
0.0284864
0.0283948
0.0282909
0.0281734
0.0280406
0.0278913
0.0277236
0.0275355
0.0273246
0.0270882
0.0268232
0.0265259
0.0261921
0.0258169
0.0253949
0.024919
0.0243825
0.0237754
0.0230849
0.0222963
0.021397
0.0203742
0.019215
0.0179084
0.0164442
0.0148125
0.0130055
0.0110198
0.00885923
0.00653237
0.00405897
0.00145931
-0.00122544
-0.00398551
-0.00677551
-0.00954951
-0.0122527
-0.0148127
-0.0171395
-0.0192641
-0.021262
-0.0225879
0.0295712
0.0295724
0.0295693
0.0295632
0.0295545
0.0295436
0.0295297
0.0295128
0.029492
0.0294676
0.0294387
0.0294059
0.0293681
0.0293258
0.0292775
0.0292233
0.0291612
0.0290911
0.0290113
0.0289209
0.0288183
0.0287023
0.028571
0.0284233
0.0282572
0.0280707
0.0278613
0.0276263
0.0273624
0.0270658
0.0267323
0.0263567
0.0259331
0.0254552
0.0249142
0.0243009
0.0236014
0.0228006
0.0218848
0.0208407
0.0196544
0.0183142
0.0168095
0.0151294
0.013266
0.0112156
0.00898186
0.0065738
0.00401192
0.00131764
-0.00146509
-0.00432432
-0.00721042
-0.0100746
-0.0128589
-0.0154869
-0.0178655
-0.0200269
-0.0220418
-0.0233911
0.0299848
0.0299889
0.0299906
0.0299907
0.0299891
0.0299854
0.0299789
0.0299691
0.0299552
0.029937
0.0299142
0.0298868
0.0298543
0.0298167
0.0297731
0.0297231
0.0296652
0.0295988
0.0295226
0.0294356
0.0293363
0.0292236
0.0290956
0.0289511
0.0287883
0.028605
0.0283988
0.0281668
0.0279056
0.0276113
0.0272795
0.0269048
0.0264815
0.0260016
0.0254578
0.024839
0.0241314
0.0233189
0.0223872
0.021322
0.0201086
0.0187345
0.0171885
0.0154592
0.0135381
0.0114213
0.00911253
0.00662129
0.00396878
0.00117791
-0.00170514
-0.00466571
-0.00764967
-0.0106048
-0.0134699
-0.0161653
-0.0185953
-0.0207936
-0.0228254
-0.0241993
0.0304837
0.0304859
0.0304851
0.0304823
0.0304777
0.0304714
0.0304628
0.0304516
0.0304367
0.0304183
0.0303956
0.0303692
0.0303378
0.0303021
0.0302605
0.0302132
0.0301582
0.0300953
0.0300229
0.02994
0.0298451
0.0297368
0.0296136
0.0294741
0.0293162
0.0291379
0.0289365
0.0287092
0.0284523
0.0281619
0.0278335
0.0274613
0.027039
0.0265596
0.0260134
0.0253902
0.0246751
0.0238513
0.0229038
0.0218175
0.0205768
0.0191684
0.0175804
0.0158008
0.0138206
0.0116357
0.00925019
0.00667375
0.00392862
0.00103882
-0.00194658
-0.00501035
-0.00809399
-0.0111418
-0.0140887
-0.0168512
-0.019331
-0.0215642
-0.0236122
-0.025012
0.0309277
0.0309296
0.0309289
0.0309267
0.0309229
0.0309176
0.03091
0.0309
0.0308866
0.03087
0.0308496
0.0308257
0.0307977
0.0307656
0.0307284
0.0306855
0.0306355
0.0305778
0.0305108
0.0304335
0.0303444
0.0302422
0.0301253
0.0299921
0.0298408
0.0296691
0.0294743
0.0292533
0.0290026
0.0287179
0.0283943
0.0280262
0.0276071
0.0271283
0.0265814
0.0259547
0.0252328
0.0243983
0.0234355
0.0223284
0.0210603
0.0196172
0.0179866
0.0161557
0.0141151
0.0118606
0.00939633
0.00673279
0.003893
0.00090246
-0.00218746
-0.00535652
-0.00854155
-0.0116828
-0.0147112
-0.01754
-0.0200693
-0.0223375
-0.0244018
-0.0258285
0.0313659
0.0313672
0.0313663
0.0313642
0.0313609
0.0313564
0.0313501
0.0313417
0.0313303
0.0313157
0.0312976
0.0312762
0.0312508
0.0312218
0.0311879
0.031149
0.0311033
0.0310506
0.0309891
0.030918
0.0308356
0.0307406
0.0306311
0.0305058
0.0303626
0.0301991
0.0300126
0.0297997
0.0295569
0.0292795
0.0289627
0.0286003
0.0281852
0.0277095
0.0271625
0.0265331
0.0258052
0.0249605
0.0239826
0.0228546
0.0215589
0.0200806
0.0184064
0.016523
0.0144206
0.0120946
0.00954992
0.00679721
0.00386093
0.000767502
-0.0024288
-0.00570496
-0.00899321
-0.0122295
-0.0153404
-0.0182353
-0.0208124
-0.0231135
-0.0251936
-0.0266485
0.0317805
0.0317812
0.0317796
0.0317771
0.0317736
0.0317692
0.0317635
0.0317562
0.0317464
0.0317342
0.0317191
0.0317014
0.0316805
0.0316564
0.0316283
0.0315955
0.0315566
0.0315109
0.0314569
0.0313935
0.0313193
0.0312328
0.0311323
0.0310163
0.0308826
0.0307289
0.0305523
0.0303492
0.030116
0.0298477
0.0295392
0.0291841
0.0287752
0.0283028
0.0277575
0.0271265
0.0263933
0.025539
0.0245464
0.0233976
0.0220741
0.0205602
0.0188416
0.0169046
0.0147389
0.0123399
0.00971272
0.00686896
0.00383422
0.000636158
-0.00266854
-0.0060537
-0.00944674
-0.0127788
-0.0159719
-0.0189321
-0.0215567
-0.0238911
-0.0259871
-0.027471
0.0321912
0.0321913
0.0321892
0.0321861
0.0321823
0.0321782
0.0321732
0.0321672
0.0321592
0.0321493
0.0321368
0.0321224
0.0321052
0.0320855
0.0320622
0.0320351
0.0320023
0.0319636
0.0319173
0.0318624
0.0317973
0.0317205
0.0316302
0.0315249
0.0314023
0.03126
0.0310948
0.0309033
0.0306812
0.0304237
0.0301253
0.0297791
0.0293772
0.0289108
0.0283678
0.0277362
0.0269984
0.0261349
0.0251276
0.023958
0.0226062
0.0210558
0.0192919
0.0172999
0.0150692
0.0125953
0.00988363
0.00694684
0.00381171
0.000507333
-0.00290754
-0.00640351
-0.00990311
-0.0133326
-0.0166088
-0.019634
-0.0223046
-0.0246705
-0.026782
-0.0282959
0.0325567
0.0325569
0.0325553
0.0325534
0.0325514
0.0325495
0.0325474
0.0325446
0.0325404
0.0325349
0.0325275
0.0325187
0.0325079
0.0324951
0.0324796
0.0324606
0.0324367
0.0324072
0.0323706
0.0323258
0.0322715
0.0322058
0.0321272
0.0320341
0.031924
0.0317946
0.0316425
0.0314639
0.0312547
0.0310096
0.0307228
0.0303871
0.0299944
0.029534
0.0289951
0.0283637
0.027622
0.0267498
0.0257282
0.0245376
0.0231573
0.0215697
0.0197594
0.0177111
0.0154138
0.0128629
0.0100649
0.00703296
0.00379568
0.000383096