/*--------------------------------*- C++ -*----------------------------------*\
  =========                 |
  \\      /  F ield         | OpenFOAM: The Open Source CFD Toolbox
   \\    /   O peration     | Website:  https://openfoam.org
    \\  /    A nd           | Version:  6.0
     \\/     M anipulation  |
\*---------------------------------------------------------------------------*/
FoamFile
{
    version     2.0;
    format      ascii;
    class       surfaceScalarField;
    location    "17";
    object      phi;
}
// * * * * * * * * * * * * * * * * * * * * * * * * * * * * * * * * * * * * * //

dimensions      [0 3 -1 0 0 0 0];

internalField   nonuniform List<scalar> 
123526
(
4.03233e-07
2.34116e-05
-1.31517e-09
8.34175e-07
2.53122e-05
1.30037e-06
2.7367e-05
1.80357e-06
2.95886e-05
2.3477e-06
3.19903e-05
2.93542e-06
3.45869e-05
3.57095e-06
3.7394e-05
4.25764e-06
4.04287e-05
5.00126e-06
4.37084e-05
5.8054e-06
4.72542e-05
6.67534e-06
5.1088e-05
7.61518e-06
5.52322e-05
8.63215e-06
5.97117e-05
9.73328e-06
6.45512e-05
1.0928e-05
6.97811e-05
1.2219e-05
7.54364e-05
1.36158e-05
8.1548e-05
1.51317e-05
8.81456e-05
1.67754e-05
9.52767e-05
1.85517e-05
0.000102984
2.04805e-05
0.000111303
2.25717e-05
0.000120287
2.48331e-05
0.000129995
2.72914e-05
0.00014046
2.99518e-05
0.000151766
3.28348e-05
0.000163958
3.59613e-05
0.000177104
3.93439e-05
0.000191281
4.30132e-05
0.000206545
4.69803e-05
0.00022299
5.12792e-05
0.000240673
5.59262e-05
0.00025969
6.09543e-05
0.000280104
6.63892e-05
0.000302001
7.22567e-05
0.000325456
7.8596e-05
0.000350522
8.54294e-05
0.000377274
9.27936e-05
0.000405741
0.000100724
0.000435945
0.00010925
0.000467883
0.000118404
0.000501501
0.000128221
0.000536694
0.000138726
0.000573299
0.000149944
0.000611052
0.00016189
0.000649579
0.000174573
0.000688355
0.000187989
0.000726677
0.000202112
0.000763605
0.000216899
0.000797921
0.000232273
0.000828054
0.00024812
0.000852013
0.000264276
0.000867301
0.000280523
0.000870809
0.000296564
0.000858727
0.000312024
0.000826396
0.000326414
0.000768252
0.000339143
0.000677659
0.000349555
0.000547169
0.000356498
0.000368347
0.000131955
0.00035426
3.99345e-07
2.30218e-05
-5.51397e-09
8.21982e-07
2.48908e-05
1.27926e-06
2.69114e-05
1.77288e-06
2.9096e-05
2.30669e-06
3.14578e-05
2.88332e-06
3.40111e-05
3.5069e-06
3.67714e-05
4.18072e-06
3.97553e-05
4.91043e-06
4.29794e-05
5.6996e-06
4.64652e-05
6.55336e-06
5.02348e-05
7.47584e-06
5.43095e-05
8.47402e-06
5.87141e-05
9.55496e-06
6.34701e-05
1.07277e-05
6.86088e-05
1.19952e-05
7.41688e-05
1.33664e-05
8.01773e-05
1.48548e-05
8.66572e-05
1.64683e-05
9.36636e-05
1.82125e-05
0.00010124
2.0106e-05
0.00010941
2.21592e-05
0.000118234
2.43792e-05
0.000127775
2.67927e-05
0.000138047
2.94042e-05
0.000149155
3.22345e-05
0.000161128
3.53033e-05
0.000174036
3.86237e-05
0.000187961
4.2225e-05
0.000202944
4.61188e-05
0.000219097
5.03378e-05
0.000236454
5.48987e-05
0.000255129
5.98332e-05
0.00027517
6.5167e-05
0.000296668
7.09253e-05
0.000319698
7.71471e-05
0.0003443
8.38544e-05
0.000370567
9.10834e-05
0.000398513
9.88698e-05
0.000428159
0.000107241
0.000459511
0.000116231
0.000492511
0.000125873
0.000527052
0.000136193
0.000562978
0.000147214
0.00060003
0.000158952
0.000637838
0.000171414
0.000675889
0.000184596
0.00071349
0.000198474
0.000749721
0.000213003
0.000783384
0.000228106
0.000812939
0.000243672
0.000836435
0.000259536
0.000851418
0.000275488
0.000854844
0.000291233
0.000842967
0.000306406
0.000811213
0.000320533
0.000754114
0.000333023
0.000665161
0.00034324
0.000536943
0.000349727
0.00036186
0.000130927
0.000350742
3.83893e-07
2.26402e-05
1.72637e-09
7.97705e-07
2.44782e-05
1.24539e-06
2.64654e-05
1.7287e-06
2.86137e-05
2.25138e-06
3.09363e-05
2.81602e-06
3.34472e-05
3.42668e-06
3.61616e-05
4.08662e-06
3.90959e-05
4.80138e-06
4.22653e-05
5.57448e-06
4.56923e-05
6.41093e-06
4.93989e-05
7.31484e-06
5.34056e-05
8.293e-06
5.77364e-05
9.35241e-06
6.24105e-05
1.0502e-05
6.74598e-05
1.17444e-05
7.29262e-05
1.30887e-05
7.88335e-05
1.45481e-05
8.51978e-05
1.61304e-05
9.20818e-05
1.7841e-05
9.95298e-05
1.96982e-05
0.000107553
2.17123e-05
0.00011622
2.38903e-05
0.000125598
2.62583e-05
0.000135679
2.88209e-05
0.000146593
3.15985e-05
0.000158351
3.46105e-05
0.000171024
3.78698e-05
0.000184702
4.14051e-05
0.000199409
4.52279e-05
0.000215274
4.93704e-05
0.000232311
5.38491e-05
0.00025065
5.86952e-05
0.000270325
6.3934e-05
0.00029143
6.95903e-05
0.000314043
7.57023e-05
0.000338189
8.22919e-05
0.000363978
8.93949e-05
0.00039141
9.70461e-05
0.000420508
0.000105273
0.000451285
0.000114108
0.000483676
0.000123585
0.000517575
0.000133728
0.000552835
0.000144559
0.000589199
0.000156095
0.000626302
0.000168343
0.000663641
0.000181296
0.000700536
0.000194932
0.000736084
0.000209205
0.00076911
0.000224039
0.000798105
0.000239324
0.000821152
0.000254898
0.000835845
0.000270554
0.000839194
0.000286007
0.00082752
0.000300899
0.000796333
0.000314769
0.000740255
0.000327025
0.000652923
0.000337007
0.00052698
0.000343665
0.00035523
0.00012962
0.000345022
3.66752e-07
2.2266e-05
1.07614e-08
7.72253e-07
2.40737e-05
1.21104e-06
2.6028e-05
1.68477e-06
2.81409e-05
2.19713e-06
3.04251e-05
2.75066e-06
3.28944e-05
3.34933e-06
3.55638e-05
3.99633e-06
3.84493e-05
4.69708e-06
4.15652e-05
5.45504e-06
4.49344e-05
6.27515e-06
4.85793e-05
7.16141e-06
5.25191e-05
8.12056e-06
5.67777e-05
9.15941e-06
6.13714e-05
1.02868e-05
6.63329e-05
1.15053e-05
7.17075e-05
1.28239e-05
7.75154e-05
1.42555e-05
8.37662e-05
1.58078e-05
9.053e-05
1.7486e-05
9.78517e-05
1.93083e-05
0.000105731
2.12849e-05
0.000114243
2.34223e-05
0.000123461
2.57467e-05
0.000133354
2.82622e-05
0.000144078
3.0989e-05
0.000155624
3.39462e-05
0.000168068
3.71466e-05
0.000181502
4.06184e-05
0.000195938
4.43729e-05
0.00021152
4.84417e-05
0.000228242
5.28411e-05
0.000246251
5.76018e-05
0.000265564
6.27488e-05
0.000286284
6.83063e-05
0.000308486
7.43119e-05
0.000332184
8.0787e-05
0.000357504
8.77667e-05
0.000384432
9.52853e-05
0.00041299
0.00010337
0.000443202
0.000112052
0.000474995
0.000121364
0.000508264
0.000131331
0.000542869
0.000141975
0.000578557
0.00015331
0.000614968
0.000165343
0.000651609
0.000178068
0.000687811
0.000191463
0.00072269
0.00020548
0.000755093
0.000220045
0.000783539
0.00023505
0.000806146
0.000250335
0.000820556
0.000265699
0.00082383
0.000280862
0.000812358
0.000295477
0.000781724
0.000309091
0.000726645
0.000321122
0.000640901
0.000330887
0.000517223
0.000337401
0.000348733
0.000128231
0.00033881
3.52994e-07
2.1899e-05
1.84181e-08
7.51261e-07
2.36769e-05
1.18193e-06
2.55991e-05
1.64698e-06
2.76771e-05
2.14972e-06
2.99236e-05
2.69296e-06
3.23521e-05
3.28032e-06
3.49773e-05
3.91525e-06
3.7815e-05
4.60278e-06
4.08783e-05
5.34663e-06
4.41908e-05
6.15132e-06
4.77751e-05
7.02113e-06
5.16494e-05
7.96231e-06
5.5837e-05
8.98191e-06
6.03517e-05
1.00882e-05
6.5227e-05
1.12842e-05
7.05114e-05
1.25784e-05
7.62218e-05
1.39835e-05
8.23611e-05
1.55071e-05
8.90068e-05
1.71545e-05
9.62044e-05
1.89434e-05
0.000103943
2.08838e-05
0.000112303
2.29823e-05
0.000121363
2.52643e-05
0.000131073
2.77343e-05
0.000141608
3.04119e-05
0.000152947
3.33159e-05
0.000165164
3.64589e-05
0.000178359
3.98686e-05
0.000192529
4.35562e-05
0.000207832
4.75528e-05
0.000224246
5.18743e-05
0.000241929
5.65509e-05
0.000260888
6.16072e-05
0.000281229
6.7067e-05
0.000303027
7.29671e-05
0.000326285
7.93287e-05
0.000351143
8.6186e-05
0.000377576
9.35728e-05
0.000405605
0.000101516
0.00043526
0.000110045
0.000466467
0.000119194
0.000499116
0.000128986
0.000533078
0.000139442
0.000568102
0.000150577
0.000603834
0.000162398
0.00063979
0.000174897
0.000675313
0.000188052
0.000709537
0.000201816
0.000741331
0.000216116
0.000769241
0.000230843
0.000791424
0.000245843
0.000805559
0.000260918
0.000808764
0.000275798
0.000797487
0.00029014
0.000767396
0.000303503
0.000713294
0.000315317
0.000629106
0.000324881
0.000507677
0.000331274
0.000342366
0.000126525
0.000333025
3.40702e-07
2.15384e-05
2.32554e-08
7.31657e-07
2.3287e-05
1.15455e-06
2.51776e-05
1.61124e-06
2.72214e-05
2.10499e-06
2.94309e-05
2.63856e-06
3.18194e-05
3.21546e-06
3.44012e-05
3.83905e-06
3.71919e-05
4.51428e-06
4.02035e-05
5.24476e-06
4.34605e-05
6.03499e-06
4.69852e-05
6.88906e-06
5.07951e-05
7.81329e-06
5.49131e-05
8.81441e-06
5.93503e-05
9.90076e-06
6.4141e-05
1.10751e-05
6.93369e-05
1.23458e-05
7.49515e-05
1.37255e-05
8.09813e-05
1.52216e-05
8.75112e-05
1.68392e-05
9.45868e-05
1.85957e-05
0.000102187
2.0501e-05
0.000110398
2.25616e-05
0.000119302
2.48025e-05
0.000128832
2.7228e-05
0.000139183
2.98574e-05
0.000150317
3.27092e-05
0.000162312
3.57959e-05
0.000175273
3.91446e-05
0.00018918
4.27663e-05
0.000204211
4.66916e-05
0.000220321
5.09361e-05
0.000237685
5.55297e-05
0.000256295
6.04962e-05
0.000276263
6.58592e-05
0.000297665
7.16549e-05
0.00032049
7.79041e-05
0.000344895
8.46402e-05
0.00037084
9.18966e-05
0.00039835
9.96991e-05
0.000427459
0.000108078
0.000458089
0.000117066
0.000490131
0.000126685
0.00052346
0.000136956
0.000557833
0.000147894
0.000592898
0.000159504
0.000628181
0.00017178
0.00066304
0.000184698
0.000696622
0.000198213
0.000727819
0.00021225
0.000755206
0.000226705
0.000776971
0.000241426
0.000790838
0.00025622
0.000793974
0.000270823
0.00078289
0.0002849
0.000753329
0.000298018
0.000700186
0.000309623
0.000617514
0.000319002
0.000498312
0.000325312
0.000336079
0.000124437
0.000327429
3.29411e-07
2.11843e-05
2.86789e-08
7.13671e-07
2.29042e-05
1.12915e-06
2.47636e-05
1.57784e-06
2.67739e-05
2.06288e-06
2.8947e-05
2.58701e-06
3.12961e-05
3.15366e-06
3.38353e-05
3.76623e-06
3.65799e-05
4.42948e-06
3.95409e-05
5.14708e-06
4.27432e-05
5.92328e-06
4.62095e-05
6.7623e-06
4.99562e-05
7.67007e-06
5.40058e-05
8.65348e-06
5.83668e-05
9.72043e-06
6.30745e-05
1.08739e-05
6.81834e-05
1.21218e-05
7.37039e-05
1.34768e-05
7.96263e-05
1.49461e-05
8.60424e-05
1.65347e-05
9.29983e-05
1.82598e-05
0.000100462
2.01309e-05
0.000108527
2.21545e-05
0.000117279
2.43552e-05
0.000126631
2.67371e-05
0.000136802
2.93194e-05
0.000147735
3.21201e-05
0.000159512
3.51515e-05
0.000172242
3.84402e-05
0.000185892
4.19972e-05
0.000200654
4.58523e-05
0.000216465
5.00211e-05
0.000233516
5.45327e-05
0.000251784
5.94108e-05
0.000271386
6.46784e-05
0.000292398
7.03711e-05
0.000314798
7.65093e-05
0.000338758
8.3126e-05
0.000364225
9.02538e-05
0.000391223
9.7918e-05
0.000419796
0.000106149
0.000449859
0.000114977
0.000481304
0.000124425
0.000514013
0.000134514
0.000547746
0.000145256
0.000582157
0.000156659
0.00061678
0.000168714
0.000650986
0.000181398
0.000683939
0.000194666
0.000714553
0.000208446
0.000741428
0.000222635
0.000762787
0.000237083
0.000776392
0.000251604
0.000779461
0.000265938
0.000768563
0.000279759
0.00073952
0.000292639
0.000687316
0.00030404
0.000606129
0.00031325
0.000489116
0.000319463
0.000329887
0.000122231
0.000321705
3.18421e-07
2.0836e-05
3.25057e-08
6.95776e-07
2.25276e-05
1.10397e-06
2.43566e-05
1.54482e-06
2.63338e-05
2.02145e-06
2.84712e-05
2.53653e-06
3.07817e-05
3.09343e-06
3.32791e-05
3.69537e-06
3.59784e-05
4.34712e-06
3.88896e-05
5.05215e-06
4.20383e-05
5.81479e-06
4.54472e-05
6.639e-06
4.91318e-05
7.53084e-06
5.31142e-05
8.49682e-06
5.74005e-05
9.54497e-06
6.20267e-05
1.06779e-05
6.70503e-05
1.19038e-05
7.24784e-05
1.32348e-05
7.82953e-05
1.4678e-05
8.45996e-05
1.62384e-05
9.1438e-05
1.79327e-05
9.87681e-05
1.97705e-05
0.000106689
2.1758e-05
0.000115292
2.39194e-05
0.00012447
2.62588e-05
0.000134463
2.87949e-05
0.000145199
3.15456e-05
0.000156762
3.45228e-05
0.000169265
3.77528e-05
0.000182662
4.12462e-05
0.000197161
4.50324e-05
0.000212679
4.91268e-05
0.000229422
5.3558e-05
0.000247354
5.8349e-05
0.000266596
6.35228e-05
0.000287226
6.91141e-05
0.000309208
7.51431e-05
0.00033273
8.16421e-05
0.000357727
8.8643e-05
0.000384223
9.61709e-05
0.000412269
0.000104255
0.000441776
0.000112926
0.000472635
0.000122205
0.000504735
0.000132113
0.00053784
0.000142663
0.000571609
0.000153859
0.000605586
0.000165696
0.000639152
0.000178148
0.00067149
0.000191173
0.000701532
0.000204699
0.000727905
0.000218626
0.000748863
0.000232808
0.000762211
0.000247063
0.000765212
0.000261137
0.000754496
0.000274708
0.000725959
0.000287358
0.000674677
0.00029856
0.00059494
0.000307614
0.000480076
0.000313718
0.000323807
0.000120073
0.000315907
3.10044e-07
2.04942e-05
3.62355e-08
6.81196e-07
2.21582e-05
1.08231e-06
2.39572e-05
1.51556e-06
2.5902e-05
1.9837e-06
2.80043e-05
2.4897e-06
3.02768e-05
3.03655e-06
3.27331e-05
3.62785e-06
3.53878e-05
4.26787e-06
3.82501e-05
4.96049e-06
4.1346e-05
5.70949e-06
4.46986e-05
6.51924e-06
4.83222e-05
7.39517e-06
5.22386e-05
8.3442e-06
5.64515e-05
9.37369e-06
6.09976e-05
1.04867e-05
6.59372e-05
1.16908e-05
7.12747e-05
1.29983e-05
7.69879e-05
1.44158e-05
8.31824e-05
1.59485e-05
8.99054e-05
1.76128e-05
9.71043e-05
1.94179e-05
0.000104884
2.13701e-05
0.00011334
2.34931e-05
0.000122347
2.57908e-05
0.000132165
2.82818e-05
0.000142709
3.09834e-05
0.00015406
3.39075e-05
0.000166341
3.70799e-05
0.00017949
4.05109e-05
0.00019373
4.42296e-05
0.00020896
4.82509e-05
0.0002254
5.26029e-05
0.000243002
5.73085e-05
0.000261891
6.23899e-05
0.000282145
6.78814e-05
0.000303717
7.38027e-05
0.000326809
8.01856e-05
0.000351345
8.70615e-05
0.000377348
9.44548e-05
0.000404877
0.000102394
0.000433838
0.000110909
0.000464121
0.000120022
0.000495624
0.00012975
0.000528112
0.000140109
0.000561252
0.000151101
0.000594594
0.000162721
0.000627533
0.000174944
0.000659267
0.000187729
0.000688748
0.000201005
0.000714629
0.000214676
0.000735196
0.000228598
0.00074829
0.000242593
0.000751222
0.000256414
0.000740681
0.000269744
0.000712637
0.000282169
0.000662259
0.000293177
0.000583944
0.000302085
0.000471179
0.00030809
0.000317817
0.000117989
0.000310199
3.01002e-07
2.01581e-05
3.7992e-08
6.65327e-07
2.17949e-05
1.05926e-06
2.35644e-05
1.48483e-06
2.54773e-05
1.94476e-06
2.75452e-05
2.44194e-06
2.97804e-05
2.9793e-06
3.21963e-05
3.56028e-06
3.48073e-05
4.18916e-06
3.76215e-05
4.86958e-06
4.06658e-05
5.60547e-06
4.39629e-05
6.40089e-06
4.75266e-05
7.26146e-06
5.13782e-05
8.19367e-06
5.5519e-05
9.20507e-06
5.99864e-05
1.02984e-05
6.48437e-05
1.14813e-05
7.0092e-05
1.27656e-05
7.57035e-05
1.41582e-05
8.17902e-05
1.56638e-05
8.83998e-05
1.72985e-05
9.54699e-05
1.90717e-05
0.000103111
2.09893e-05
0.000111423
2.30745e-05
0.000120262
2.53314e-05
0.000129909
2.7778e-05
0.000140262
3.04315e-05
0.000151407
3.33034e-05
0.000163469
3.64191e-05
0.000176375
3.9789e-05
0.00019036
4.34412e-05
0.000205308
4.73906e-05
0.000221451
5.16649e-05
0.000238729
5.62862e-05
0.000257271
6.12767e-05
0.000277155
6.66699e-05
0.000298325
7.24851e-05
0.000320995
7.87536e-05
0.000345077
8.55061e-05
0.000370597
9.27664e-05
0.000397618
0.000100563
0.000426043
0.000108924
0.000455761
0.000117871
0.000486678
0.000127423
0.000518563
0.000137592
0.000551085
0.000148383
0.000583805
0.000159789
0.00061613
0.000171786
0.000647272
0.000184334
0.000676204
0.000197366
0.000701601
0.000210784
0.000721781
0.000224453
0.000734622
0.000238195
0.000737485
0.00025177
0.000727114
0.000264865
0.000699552
0.000277074
0.000650061
0.000287891
0.000573138
0.000296656
0.000462427
0.000302582
0.000311913
0.00011593
0.00030467
2.92637e-07
1.98281e-05
4.10974e-08
6.50696e-07
2.14382e-05
1.03768e-06
2.31789e-05
1.4557e-06
2.50605e-05
1.90745e-06
2.70945e-05
2.39572e-06
2.9293e-05
2.92348e-06
3.16693e-05
3.49411e-06
3.42373e-05
4.1118e-06
3.70043e-05
4.78023e-06
3.99977e-05
5.50309e-06
4.32404e-05
6.28457e-06
4.67452e-05
7.12988e-06
5.05332e-05
8.04575e-06
5.46032e-05
9.0392e-06
5.89932e-05
1.01133e-05
6.37697e-05
1.12752e-05
6.89305e-05
1.25368e-05
7.4442e-05
1.39046e-05
8.04228e-05
1.53835e-05
8.6921e-05
1.69892e-05
9.38645e-05
1.87308e-05
0.00010137
2.06143e-05
0.00010954
2.26624e-05
0.000118214
2.48791e-05
0.000127692
2.72821e-05
0.000137859
2.98882e-05
0.000148801
3.27089e-05
0.000160649
3.5769e-05
0.000173315
3.90785e-05
0.000187051
4.26654e-05
0.000201721
4.65441e-05
0.000217572
5.07416e-05
0.000234531
5.52801e-05
0.000252733
6.0181e-05
0.000272255
6.54773e-05
0.000293029
7.11879e-05
0.000315285
7.73436e-05
0.000338922
8.39743e-05
0.000363967
9.11035e-05
0.000390489
9.87587e-05
0.000418388
0.000106968
0.000447552
0.000115753
0.000477894
0.00012513
0.000509186
0.000135112
0.000541103
0.000145705
0.000573214
0.000156899
0.000604936
0.000168675
0.000635497
0.000180991
0.000663888
0.000193783
0.00068881
0.000206957
0.000708609
0.000220378
0.0007212
0.000233875
0.000723991
0.00024721
0.000713783
0.000260077
0.000686691
0.000272074
0.000638069
0.000282705
0.000562515
0.000291328
0.000453812
0.000297186
0.000306064
0.000113809
0.000299323
2.83372e-07
1.95036e-05
4.31756e-08
6.34804e-07
2.10875e-05
1.01489e-06
2.27997e-05
1.4255e-06
2.46506e-05
1.86935e-06
2.66513e-05
2.34913e-06
2.88139e-05
2.86775e-06
3.11512e-05
3.42842e-06
3.36771e-05
4.03536e-06
3.63977e-05
4.69198e-06
3.93411e-05
5.40215e-06
4.25304e-05
6.16971e-06
4.59775e-05
7.00016e-06
4.9703e-05
7.89966e-06
5.37034e-05
8.87559e-06
5.80176e-05
9.93051e-06
6.27145e-05
1.10719e-05
6.77894e-05
1.2311e-05
7.32027e-05
1.36546e-05
7.90796e-05
1.51071e-05
8.54685e-05
1.66843e-05
9.22878e-05
1.83949e-05
9.96592e-05
2.02448e-05
0.00010769
2.22563e-05
0.000116203
2.44334e-05
0.000125516
2.67934e-05
0.000135499
2.93529e-05
0.000146242
3.21231e-05
0.000157879
3.51283e-05
0.00017031
3.83785e-05
0.000183801
4.19009e-05
0.000198199
4.57099e-05
0.000213763
4.9832e-05
0.00023041
5.42887e-05
0.000248277
5.91013e-05
0.000267443
6.43021e-05
0.000287829
6.99096e-05
0.000309678
7.5954e-05
0.000332879
8.24647e-05
0.000357457
8.94646e-05
0.00038349
9.69807e-05
0.000410873
0.000105041
0.000439493
0.000113665
0.000469272
0.00012287
0.000499982
0.000132669
0.000531306
0.000143067
0.000562819
0.000154055
0.00059395
0.000165614
0.000623941
0.000177704
0.000651801
0.000190262
0.000676255
0.000203197
0.000695677
0.000216378
0.000708021
0.000229635
0.000710738
0.000242737
0.000700688
0.000255382
0.000674056
0.000267172
0.000626288
0.000277622
0.000552076
0.000286102
0.000445344
0.000291896
0.000300289
0.000111613
0.000294118
2.76266e-07
1.91854e-05
4.64724e-08
6.22022e-07
2.07436e-05
9.955e-07
2.24279e-05
1.39902e-06
2.42486e-05
1.83486e-06
2.62166e-05
2.30606e-06
2.83438e-05
2.81515e-06
3.06428e-05
3.36575e-06
3.31273e-05
3.96155e-06
3.58024e-05
4.60645e-06
3.86967e-05
5.3037e-06
4.18335e-05
6.05764e-06
4.52238e-05
6.87301e-06
4.88878e-05
7.75658e-06
5.28199e-05
8.71487e-06
5.70595e-05
9.75103e-06
6.16784e-05
1.08718e-05
6.66689e-05
1.20889e-05
7.19858e-05
1.34083e-05
7.77605e-05
1.48349e-05
8.4042e-05
1.63838e-05
9.07392e-05
1.80637e-05
9.79793e-05
1.98805e-05
0.000105874
2.1856e-05
0.000114227
2.3994e-05
0.000123378
2.63116e-05
0.000133182
2.88252e-05
0.000143729
3.15455e-05
0.000155159
3.44967e-05
0.00016736
3.76883e-05
0.00018061
4.11473e-05
0.00019474
4.48876e-05
0.000210023
4.89352e-05
0.000226362
5.33115e-05
0.000243902
5.8037e-05
0.000262718
6.31437e-05
0.000282723
6.86496e-05
0.000304172
7.45844e-05
0.000326944
8.09768e-05
0.000351065
8.78494e-05
0.000376619
9.52287e-05
0.000403495
0.000103142
0.000431581
0.000111608
0.000460806
0.000120645
0.000490946
0.000130264
0.000521686
0.000140471
0.000552612
0.000151258
0.000583163
0.000162605
0.000612593
0.000174475
0.000639932
0.000186806
0.000663924
0.000199509
0.000682975
0.000212455
0.000695072
0.000225481
0.000697715
0.000238355
0.000687816
0.000250782
0.000661633
0.000262372
0.000614702
0.000272642
0.000541811
0.00028098
0.00043701
0.000286705
0.00029457
0.000109313
0.000289014
2.68314e-07
1.88725e-05
4.71237e-08
6.0753e-07
2.04053e-05
9.7423e-07
2.20622e-05
1.37048e-06
2.38533e-05
1.79861e-06
2.57893e-05
2.26152e-06
2.78818e-05
2.76171e-06
3.01432e-05
3.30259e-06
3.25869e-05
3.88792e-06
3.52173e-05
4.5213e-06
3.80635e-05
5.20619e-06
4.11487e-05
5.94654e-06
4.44833e-05
6.74744e-06
4.8087e-05
7.61505e-06
5.1952e-05
8.55627e-06
5.61184e-05
9.57377e-06
6.06607e-05
1.06746e-05
6.55683e-05
1.18698e-05
7.07905e-05
1.31655e-05
7.6465e-05
1.45665e-05
8.26411e-05
1.60876e-05
8.92185e-05
1.77374e-05
9.63296e-05
1.95214e-05
0.00010409
2.14614e-05
0.000112287
2.35609e-05
0.000121279
2.58367e-05
0.000130906
2.83049e-05
0.000141261
3.09762e-05
0.000152488
3.3874e-05
0.000164462
3.7008e-05
0.000177476
4.04044e-05
0.000191343
4.4077e-05
0.00020635
4.80514e-05
0.000222389
5.23483e-05
0.000239605
5.69881e-05
0.000258079
6.20021e-05
0.000277709
6.7408e-05
0.000298767
7.32349e-05
0.000321118
7.9511e-05
0.00034479
8.62584e-05
0.000369872
9.35031e-05
0.000396251
0.000101272
0.000423814
0.000109583
0.000452496
0.000118455
0.000482076
0.000127899
0.000512244
0.000137919
0.000542594
0.00014851
0.000572575
0.000159651
0.000601455
0.000171306
0.000628279
0.000183416
0.000651817
0.000195894
0.0006705
0.000208613
0.000682354
0.000221412
0.00068492
0.000234065
0.00067517
0.00024628
0.000649427
0.000257672
0.000603319
0.000267767
0.000531725
0.000275964
0.000428824
0.000281612
0.000288939
0.000106966
0.000283982
2.62144e-07
1.85655e-05
4.85093e-08
5.95458e-07
2.00735e-05
9.55553e-07
2.17035e-05
1.34464e-06
2.34654e-05
1.76497e-06
2.53699e-05
2.21939e-06
2.74283e-05
2.71042e-06
2.96528e-05
3.24145e-06
3.20565e-05
3.81613e-06
3.4643e-05
4.43814e-06
3.74419e-05
5.11065e-06
4.04765e-05
5.83781e-06
4.37563e-05
6.62421e-06
4.73009e-05
7.47636e-06
5.11e-05
8.40055e-06
5.51945e-05
9.39982e-06
5.96615e-05
1.04807e-05
6.44877e-05
1.16544e-05
6.9617e-05
1.29267e-05
7.51929e-05
1.43024e-05
8.12655e-05
1.5796e-05
8.77252e-05
1.7416e-05
9.47098e-05
1.91678e-05
0.000102339
2.10727e-05
0.000110383
2.31342e-05
0.000119218
2.53689e-05
0.000128672
2.77924e-05
0.000138838
3.04153e-05
0.000149865
3.32606e-05
0.000161617
3.63378e-05
0.000174399
3.96726e-05
0.000188008
4.32786e-05
0.000202745
4.71807e-05
0.000218487
5.13996e-05
0.000235387
5.59551e-05
0.000253524
6.08778e-05
0.000272787
6.61854e-05
0.00029346
7.19062e-05
0.000315398
7.8068e-05
0.000338629
8.46925e-05
0.000363248
9.18052e-05
0.000389139
9.94321e-05
0.000416188
0.000107592
0.000444336
0.000116303
0.000473366
0.000125575
0.000502973
0.000135413
0.000532756
0.000145812
0.000562176
0.000156753
0.000590513
0.0001682
0.000616832
0.000180095
0.000639921
0.000192354
0.000658242
0.000204852
0.000669853
0.00021743
0.000672342
0.000229866
0.000662735
0.000241872
0.000637424
0.000253071
0.000592123
0.000262994
0.000521805
0.000271053
0.000420767
0.000276615
0.000283379
0.000104573
0.00027901
2.55454e-07
1.82637e-05
4.79027e-08
5.82335e-07
1.97472e-05
9.3583e-07
2.13507e-05
1.31782e-06
2.3084e-05
1.73066e-06
2.49576e-05
2.17702e-06
2.69825e-05
2.65944e-06
2.91708e-05
3.18102e-06
3.15353e-05
3.74555e-06
3.40787e-05
4.35633e-06
3.68311e-05
5.01685e-06
3.98161e-05
5.73076e-06
4.30422e-05
6.50311e-06
4.65286e-05
7.33971e-06
5.0263e-05
8.24732e-06
5.4287e-05
9.22842e-06
5.86802e-05
1.02899e-05
6.34264e-05
1.14423e-05
6.84645e-05
1.26917e-05
7.39438e-05
1.40425e-05
7.99148e-05
1.5509e-05
8.6259e-05
1.70997e-05
9.31193e-05
1.88197e-05
0.000100619
2.06901e-05
0.000108512
2.27142e-05
0.000117194
2.49084e-05
0.000126478
2.72879e-05
0.000136458
2.98632e-05
0.00014729
3.26568e-05
0.000158824
3.56782e-05
0.000171378
3.89524e-05
0.000184734
4.24928e-05
0.000199204
4.63241e-05
0.000214656
5.04661e-05
0.000231245
5.49387e-05
0.000249052
5.97718e-05
0.000267954
6.49828e-05
0.000288249
7.05995e-05
0.000309782
7.66491e-05
0.00033258
8.31531e-05
0.000356745
9.01364e-05
0.000382157
9.76246e-05
0.000408701
0.000105637
0.000436325
0.000114189
0.000464815
0.000123293
0.00049387
0.000132955
0.000523097
0.000143167
0.000551965
0.000153913
0.00057977
0.000165157
0.00060559
0.000176843
0.000628237
0.000188888
0.0006462
0.000201171
0.000657572
0.000213533
0.000659984
0.000225757
0.000650518
0.000237559
0.00062563
0.000248566
0.000581123
0.00025832
0.00051206
0.000266242
0.000412855
0.000271712
0.000277924
0.000102208
0.000274096
2.51458e-07
1.79679e-05
4.87213e-08
5.73057e-07
1.94274e-05
9.20288e-07
2.1005e-05
1.29557e-06
2.27103e-05
1.70075e-06
2.45535e-05
2.13893e-06
2.65455e-05
2.61219e-06
2.86982e-05
3.12418e-06
3.10242e-05
3.67806e-06
3.35252e-05
4.27772e-06
3.6232e-05
4.92591e-06
3.91681e-05
5.62694e-06
4.23414e-05
6.38495e-06
4.57707e-05
7.20647e-06
4.94416e-05
8.09735e-06
5.33963e-05
9.06073e-06
5.77169e-05
1.01027e-05
6.23847e-05
1.12342e-05
6.73331e-05
1.24608e-05
7.27175e-05
1.37871e-05
7.85886e-05
1.52269e-05
8.48194e-05
1.67887e-05
9.15576e-05
1.84775e-05
9.89305e-05
2.03139e-05
0.000106676
2.23013e-05
0.000115207
2.44556e-05
0.000124323
2.67919e-05
0.000134122
2.93204e-05
0.000144762
3.20633e-05
0.000156081
3.50296e-05
0.000168411
3.82444e-05
0.000181519
4.17204e-05
0.000195728
4.54819e-05
0.000210894
4.95487e-05
0.000227179
5.39399e-05
0.000244662
5.86852e-05
0.000263209
6.38014e-05
0.000283134
6.9316e-05
0.000304268
7.52558e-05
0.000326641
8.16417e-05
0.00035036
8.84983e-05
0.000375301
9.58509e-05
0.000401348
0.000103718
0.000428458
0.000112116
0.000456417
0.000121057
0.000484929
0.000130545
0.000513609
0.000140576
0.000541934
0.000151131
0.000569214
0.000162178
0.000594542
0.00017366
0.000616754
0.000185497
0.000634363
0.000197568
0.000645498
0.000209719
0.000647833
0.000221734
0.000638503
0.000233335
0.000614032
0.000244155
0.000570304
0.000253742
0.000502474
0.000261528
0.000405068
0.000266901
0.000272549
9.98609e-05
0.000269245
2.46166e-07
1.76771e-05
4.66428e-08
5.61426e-07
1.9113e-05
9.02191e-07
2.06651e-05
1.27053e-06
2.23428e-05
1.66842e-06
2.41561e-05
2.09876e-06
2.61159e-05
2.56366e-06
2.82337e-05
3.06646e-06
3.05218e-05
3.6105e-06
3.29813e-05
4.19925e-06
3.56433e-05
4.83582e-06
3.85316e-05
5.52398e-06
4.1653e-05
6.26839e-06
4.50263e-05
7.07483e-06
4.86349e-05
7.94966e-06
5.25215e-05
8.89543e-06
5.67709e-05
9.91861e-06
6.13616e-05
1.10295e-05
6.62221e-05
1.22339e-05
7.15134e-05
1.35361e-05
7.72865e-05
1.49499e-05
8.3406e-05
1.64833e-05
9.00244e-05
1.81414e-05
9.72727e-05
1.99445e-05
0.000104873
2.18957e-05
0.000113256
2.40109e-05
0.000122208
2.63048e-05
0.000131829
2.87873e-05
0.000142279
3.14803e-05
0.000153388
3.43929e-05
0.000165499
3.75492e-05
0.000178363
4.09621e-05
0.000192315
4.46554e-05
0.000207201
4.86482e-05
0.000223187
5.29597e-05
0.00024035
5.76188e-05
0.000258551
6.26423e-05
0.00027811
6.80569e-05
0.000298854
7.38891e-05
0.000320809
8.01595e-05
0.00034409
8.68923e-05
0.000368569
9.41123e-05
0.000394129
0.000101838
0.000420733
0.000110085
0.000448171
0.000118866
0.00047615
0.000128186
0.000504291
0.000138039
0.000532083
0.000148409
0.000558846
0.000159263
0.000583691
0.000170546
0.000605473
0.000182178
0.000622733
0.000194042
0.000633634
0.000205985
0.000635893
0.000217796
0.000626698
0.000229198
0.000602637
0.000239832
0.000559677
0.000249254
0.000493061
0.000256906
0.000397424
0.00026218
0.000267287
9.75942e-05
0.000264462
2.42408e-07
1.7392e-05
4.60759e-08
5.5212e-07
1.88047e-05
8.86639e-07
2.03318e-05
1.24819e-06
2.19824e-05
1.6387e-06
2.37664e-05
2.06097e-06
2.56945e-05
2.5172e-06
2.7778e-05
3.01069e-06
3.0029e-05
3.54467e-06
3.24476e-05
4.12272e-06
3.50657e-05
4.74764e-06
3.79069e-05
5.42344e-06
4.09774e-05
6.15422e-06
4.42957e-05
6.94617e-06
4.7843e-05
7.80501e-06
5.16628e-05
8.73372e-06
5.58423e-05
9.7382e-06
6.03574e-05
1.0829e-05
6.51314e-05
1.20114e-05
7.03312e-05
1.329e-05
7.60081e-05
1.4678e-05
8.20182e-05
1.61836e-05
8.85189e-05
1.78116e-05
9.56449e-05
1.95819e-05
0.000103103
2.14978e-05
0.00011134
2.35746e-05
0.000120132
2.58268e-05
0.000129577
2.82644e-05
0.000139842
3.09086e-05
0.000150744
3.37683e-05
0.000162639
3.68674e-05
0.000175263
4.02185e-05
0.000188964
4.38448e-05
0.000203575
4.77654e-05
0.000219267
5.19988e-05
0.000236117
5.65737e-05
0.000253976
6.15063e-05
0.000273178
6.68231e-05
0.000293537
7.25501e-05
0.000315083
7.87075e-05
0.000337933
8.53193e-05
0.000361958
9.24098e-05
0.000387039
9.99973e-05
0.000413146
0.000108098
0.000440071
0.000116722
0.000467525
0.000125877
0.000495136
0.000135557
0.000522403
0.000145745
0.000548656
0.00015641
0.000573025
0.000167498
0.000594383
0.00017893
0.0006113
0.000190591
0.00062197
0.00020233
0.000624153
0.000213938
0.00061509
0.000225144
0.000591432
0.000235594
0.000549226
0.000244852
0.000483803
0.000252371
0.000389903
0.000257544
0.00026211
9.53773e-05
0.000259752
2.37016e-07
1.71115e-05
4.42599e-08
5.40586e-07
1.85015e-05
8.68911e-07
2.00039e-05
1.22378e-06
2.1628e-05
1.60732e-06
2.33833e-05
2.02207e-06
2.52803e-05
2.47031e-06
2.73301e-05
2.95497e-06
2.95446e-05
3.47953e-06
3.19232e-05
4.04709e-06
3.44981e-05
4.66086e-06
3.72931e-05
5.32426e-06
4.03138e-05
6.04198e-06
4.3578e-05
6.8194e-06
4.70653e-05
7.66283e-06
5.08195e-05
8.57458e-06
5.49303e-05
9.561e-06
5.93711e-05
1.0632e-05
6.40604e-05
1.17931e-05
6.91703e-05
1.30485e-05
7.47528e-05
1.44114e-05
8.06556e-05
1.58897e-05
8.70408e-05
1.74883e-05
9.40466e-05
1.92265e-05
0.000101365
2.11077e-05
0.000109459
2.31469e-05
0.000118093
2.53584e-05
0.000127365
2.77519e-05
0.000137448
3.03483e-05
0.000148148
3.31563e-05
0.000159831
3.61994e-05
0.00017222
3.949e-05
0.000185673
4.30509e-05
0.000200015
4.69006e-05
0.000215417
5.10578e-05
0.000231961
5.55502e-05
0.000249484
6.0394e-05
0.000268335
6.56152e-05
0.000288317
7.12393e-05
0.000309459
7.72864e-05
0.000331887
8.37798e-05
0.000355465
9.07437e-05
0.000380076
9.81961e-05
0.000405695
0.000106153
0.000432116
0.000114625
0.000459054
0.000123618
0.000486144
0.000133128
0.000512894
0.000143139
0.000538647
0.000153619
0.000562547
0.000164515
0.000583489
0.000175751
0.000600067
0.000187211
0.00061051
0.000198749
0.000612619
0.000210157
0.000603687
0.000221169
0.000580427
0.000231437
0.000538965
0.000240532
0.000474716
0.000247919
0.000382524
0.000252991
0.000257047
9.3261e-05
0.000255118
2.33621e-07
1.68369e-05
4.51918e-08
5.3242e-07
1.82045e-05
8.54963e-07
1.96828e-05
1.20365e-06
2.12808e-05
1.58004e-06
2.30079e-05
1.98718e-06
2.48743e-05
2.42685e-06
2.6891e-05
2.90258e-06
2.90697e-05
3.41718e-06
3.14089e-05
3.97442e-06
3.39414e-05
4.57669e-06
3.6691e-05
5.22816e-06
3.96626e-05
5.93252e-06
4.28737e-05
6.696e-06
4.63019e-05
7.52387e-06
4.99917e-05
8.41921e-06
5.40351e-05
9.38756e-06
5.84029e-05
1.04392e-05
6.30089e-05
1.15792e-05
6.80306e-05
1.28119e-05
7.35202e-05
1.41501e-05
7.93175e-05
1.56018e-05