/*--------------------------------*- C++ -*----------------------------------*\
  =========                 |
  \\      /  F ield         | OpenFOAM: The Open Source CFD Toolbox
   \\    /   O peration     | Website:  https://openfoam.org
    \\  /    A nd           | Version:  6.0
     \\/     M anipulation  |
\*---------------------------------------------------------------------------*/
FoamFile
{
    version     2.0;
    format      ascii;
    class       volVectorField;
    location    "17";
    object      U;
}
// * * * * * * * * * * * * * * * * * * * * * * * * * * * * * * * * * * * * * //

dimensions      [0 1 -1 0 0 0 0];

internalField   nonuniform List<vector> 
62000
(
(0.999984 -1.54208e-05 -9.85238e-21)
(0.999984 -2.11275e-05 7.77647e-21)
(0.999984 -2.56975e-05 7.58088e-21)
(0.999984 -3.01875e-05 -3.159e-20)
(0.999984 -3.4708e-05 -3.43378e-20)
(0.999984 -3.92868e-05 1.1318e-19)
(0.999985 -4.4026e-05 -1.18721e-19)
(0.999985 -4.89132e-05 6.59553e-20)
(0.999985 -5.40186e-05 -2.95345e-20)
(0.999985 -5.93396e-05 -1.44537e-19)
(0.999985 -6.49553e-05 -1.74878e-20)
(0.999986 -7.0842e-05 1.86605e-19)
(0.999986 -7.7032e-05 3.64868e-20)
(0.999986 -8.35037e-05 -1.23446e-19)
(0.999986 -9.02922e-05 1.85725e-19)
(0.999986 -9.73538e-05 -9.52813e-20)
(0.999986 -0.000104705 9.50572e-20)
(0.999986 -0.000112284 -1.08563e-19)
(0.999986 -0.000120089 5.16792e-20)
(0.999986 -0.00012806 -1.54424e-19)
(0.999985 -0.000136155 1.96167e-19)
(0.999984 -0.000144316 5.54181e-20)
(0.999983 -0.000152473 7.74725e-20)
(0.999981 -0.000160547 -3.47958e-19)
(0.999979 -0.000168439 1.24666e-19)
(0.999977 -0.000176038 -7.336e-20)
(0.999974 -0.000183228 3.6557e-22)
(0.99997 -0.000189865 -5.47808e-20)
(0.999965 -0.000195823 1.71809e-19)
(0.999959 -0.000200966 -9.14203e-20)
(0.999951 -0.00020522 2.15076e-19)
(0.999942 -0.000208496 -4.33744e-19)
(0.999932 -0.000210749 4.26212e-20)
(0.999919 -0.000211928 -1.33896e-19)
(0.999904 -0.00021203 -4.02456e-20)
(0.999886 -0.000211383 -1.32665e-19)
(0.999865 -0.000210356 -3.12712e-20)
(0.999841 -0.000209408 -3.30136e-20)
(0.999812 -0.000209252 1.22009e-19)
(0.999779 -0.000211 5.4117e-19)
(0.99974 -0.000216225 -1.28553e-19)
(0.999696 -0.000226998 -7.09617e-19)
(0.999645 -0.000245906 -1.09953e-18)
(0.999587 -0.000275961 5.81151e-19)
(0.999522 -0.000320504 1.84878e-19)
(0.999451 -0.000382944 -7.91383e-19)
(0.999375 -0.000466402 1.35061e-19)
(0.999296 -0.000573218 -3.21791e-19)
(0.99922 -0.000704157 -1.42223e-18)
(0.99915 -0.00085764 -3.40312e-19)
(0.999094 -0.00102951 -1.59775e-19)
(0.999058 -0.0012139 -1.92831e-18)
(0.999048 -0.00140319 3.25575e-19)
(0.999063 -0.00159447 1.8457e-18)
(0.999101 -0.00179623 4.15514e-19)
(0.99916 -0.00202714 1.35962e-18)
(0.999245 -0.00234749 -1.23318e-19)
(0.999353 -0.00274346 -1.73245e-19)
(1.00008 -0.00343803 3.84209e-19)
(0.993049 -0.00595287 7.54355e-20)
(0.99993 -2.81002e-05 -2.65442e-21)
(0.99993 -2.83535e-05 2.40923e-20)
(0.99993 -3.01352e-05 9.49227e-21)
(0.99993 -3.20458e-05 -3.87415e-20)
(0.99993 -3.45352e-05 1.53144e-20)
(0.99993 -3.73491e-05 -1.00786e-19)
(0.999931 -4.07389e-05 8.80966e-20)
(0.999931 -4.46059e-05 4.87043e-20)
(0.999932 -4.89836e-05 -8.71584e-20)
(0.999933 -5.3976e-05 3.6534e-21)
(0.999934 -5.94655e-05 7.76387e-20)
(0.999935 -6.56264e-05 1.30831e-22)
(0.999936 -7.22775e-05 2.06033e-20)
(0.999938 -7.95006e-05 -1.70405e-19)
(0.999939 -8.7206e-05 3.3008e-19)
(0.99994 -9.53218e-05 -2.81921e-19)
(0.999942 -0.000103893 1.27868e-19)
(0.999943 -0.00011271 -2.61857e-20)
(0.999944 -0.00012187 -6.87372e-20)
(0.999945 -0.000131172 1.84359e-19)
(0.999946 -0.000140634 -2.82875e-19)
(0.999946 -0.000150103 1.59892e-19)
(0.999946 -0.000159496 -1.97274e-19)
(0.999945 -0.000168655 1.15293e-19)
(0.999944 -0.000177412 1.0288e-19)
(0.999942 -0.000185505 -6.65457e-20)
(0.999938 -0.000192781 7.55907e-22)
(0.999934 -0.000198878 7.14757e-20)
(0.999927 -0.000203689 5.79593e-20)
(0.999919 -0.000207171 -1.12866e-19)
(0.999908 -0.00020958 2.26414e-19)
(0.999894 -0.000210874 4.31247e-20)
(0.999877 -0.000210657 1.336e-19)
(0.999856 -0.000208549 7.33467e-21)
(0.999829 -0.000205499 3.40216e-20)
(0.999797 -0.000203132 -4.26381e-20)
(0.999759 -0.00020305 -1.21612e-19)
(0.999714 -0.000206841 -6.26257e-20)
(0.999661 -0.000216571 -3.22336e-19)
(0.999598 -0.000235014 -3.57155e-19)
(0.999526 -0.000265621 2.7545e-19)
(0.999444 -0.000312431 1.64396e-19)
(0.999349 -0.000379957 1.16962e-18)
(0.999244 -0.000472969 6.43871e-20)
(0.999128 -0.000596344 -1.7316e-18)
(0.999003 -0.000754553 6.76067e-19)
(0.998873 -0.000950793 5.4991e-19)
(0.998745 -0.00118598 6.27562e-19)
(0.998629 -0.00145634 1.30397e-19)
(0.998535 -0.00175247 2.88218e-20)
(0.998477 -0.0020591 9.54366e-19)
(0.998463 -0.0023585 2.41862e-18)
(0.9985 -0.00262914 -1.51641e-18)
(0.99858 -0.00286754 -3.35771e-18)
(0.998696 -0.00309472 -7.30708e-19)
(0.998835 -0.00334438 -4.9584e-19)
(0.999044 -0.00371046 -9.0061e-19)
(0.999208 -0.0040984 -4.16938e-19)
(1.00026 -0.00462894 5.03088e-19)
(0.996544 -0.00598803 2.01015e-19)
(0.999898 -2.6154e-06 -1.30328e-20)
(0.999898 6.18104e-06 -1.74638e-21)
(0.999898 1.10061e-05 1.82571e-21)
(0.999898 1.49994e-05 7.89905e-21)
(0.999897 1.80629e-05 2.1261e-20)
(0.999897 2.0702e-05 -1.92101e-20)
(0.999898 2.25873e-05 9.77008e-20)
(0.999898 2.38e-05 -4.45465e-20)
(0.999899 2.43415e-05 -2.2855e-20)
(0.999899 2.40357e-05 -1.34365e-19)
(0.9999 2.32114e-05 1.08729e-19)
(0.999901 2.15482e-05 7.66829e-21)
(0.999903 1.94216e-05 -2.29077e-20)
(0.999904 1.66662e-05 5.85894e-20)
(0.999906 1.34815e-05 -9.6733e-20)
(0.999908 9.93776e-06 7.18678e-22)
(0.99991 5.9717e-06 -4.12388e-20)
(0.999912 1.82219e-06 1.04017e-21)
(0.999914 -2.72206e-06 9.02043e-20)
(0.999916 -7.45352e-06 -1.33065e-19)
(0.999918 -1.24985e-05 8.09185e-20)
(0.99992 -1.77342e-05 3.03647e-19)
(0.999922 -2.31782e-05 -4.13901e-20)
(0.999924 -2.87036e-05 -4.01389e-19)
(0.999925 -3.42462e-05 2.02148e-19)
(0.999926 -3.95822e-05 -1.05203e-19)
(0.999925 -4.46368e-05 1.68655e-19)
(0.999924 -4.91239e-05 -1.01723e-19)
(0.999921 -5.30111e-05 -1.93206e-19)
(0.999917 -5.64918e-05 1.9968e-19)
(0.999911 -6.01453e-05 -1.37991e-19)
(0.999902 -6.41068e-05 1.8002e-19)
(0.999891 -6.78357e-05 -4.8467e-19)
(0.999876 -7.10765e-05 4.21295e-19)
(0.999857 -7.48746e-05 -2.19937e-19)
(0.999832 -8.12243e-05 9.128e-20)
(0.999801 -9.2106e-05 6.7754e-20)
(0.999765 -0.000109448 2.45381e-21)
(0.999722 -0.000135546 -5.05642e-21)
(0.999672 -0.000173279 3.7115e-19)
(0.999613 -0.000226068 -1.42285e-19)
(0.999545 -0.000297748 2.2093e-19)
(0.999468 -0.000392443 -7.4884e-19)
(0.99938 -0.000514534 -3.59587e-19)
(0.999283 -0.00066849 4.02417e-19)
(0.999179 -0.0008585 -1.26448e-18)
(0.99907 -0.00108714 1.7693e-19)
(0.998965 -0.0013539 -1.04818e-18)
(0.998874 -0.00165186 1.44144e-18)
(0.998809 -0.00196535 3.62864e-19)
(0.998785 -0.0022713 1.65928e-19)
(0.998812 -0.00254072 -6.71003e-20)
(0.998896 -0.00274141 6.29331e-19)
(0.999027 -0.00286208 1.26967e-19)
(0.999192 -0.00292563 -1.0097e-18)
(0.999369 -0.00296555 -5.27594e-19)
(0.99963 -0.00307679 -2.17896e-19)
(0.99974 -0.00318517 -7.3887e-19)
(1.00054 -0.00319725 -1.33862e-19)
(0.998366 -0.00248893 2.36775e-20)
(0.999887 3.01102e-05 -1.31495e-20)
(0.999887 4.61475e-05 3.80906e-20)
(0.999886 5.57346e-05 -5.53106e-21)
(0.999886 6.33291e-05 -3.52281e-20)
(0.999885 6.98951e-05 5.03592e-20)
(0.999885 7.59424e-05 8.23839e-20)
(0.999885 8.10991e-05 -1.02292e-19)
(0.999885 8.54151e-05 1.05465e-20)
(0.999885 8.89627e-05 3.20546e-20)
(0.999885 9.15357e-05 6.35832e-20)
(0.999885 9.36001e-05 -1.12671e-19)
(0.999886 9.47567e-05 -3.3074e-20)
(0.999886 9.54355e-05 -3.53054e-20)
(0.999887 9.54421e-05 1.55398e-19)
(0.999888 9.50273e-05 -9.9638e-20)
(0.99989 9.42303e-05 2.23182e-19)
(0.999891 9.29684e-05 -2.61374e-19)
(0.999893 9.1471e-05 -3.62946e-20)
(0.999895 8.94463e-05 2.55968e-19)
(0.999897 8.70683e-05 -8.68948e-20)
(0.9999 8.41233e-05 -3.09158e-20)
(0.999902 8.0668e-05 -3.16708e-20)
(0.999905 7.65723e-05 -2.7708e-19)
(0.999908 7.18972e-05 1.57969e-19)
(0.99991 6.65765e-05 -6.67942e-20)
(0.999912 6.0744e-05 1.08062e-19)
(0.999914 5.43745e-05 4.87455e-20)
(0.999916 4.76279e-05 2.31455e-19)
(0.999916 4.04715e-05 -1.43861e-19)
(0.999915 3.24749e-05 -1.8003e-19)
(0.999913 2.28613e-05 2.74166e-19)
(0.99991 1.13557e-05 -2.21223e-19)
(0.999905 -1.37722e-06 3.95096e-19)
(0.999897 -1.49878e-05 -2.29917e-19)
(0.999885 -3.05402e-05 1.00246e-19)
(0.99987 -5.0019e-05 1.62477e-19)
(0.99985 -7.53322e-05 -6.47755e-20)
(0.999826 -0.00010831 7.17056e-20)
(0.999797 -0.00015105 -4.09124e-20)
(0.999762 -0.00020614 1.05456e-19)
(0.99972 -0.00027668 -3.09704e-19)
(0.999671 -0.00036618 8.40357e-20)
(0.999614 -0.000478481 1.74693e-19)
(0.999548 -0.000617952 4.08156e-19)
(0.999471 -0.000789346 5.41176e-19)
(0.999385 -0.000997606 1.3935e-19)
(0.999291 -0.0012463 7.6822e-19)
(0.999196 -0.00153592 8.20774e-19)
(0.999108 -0.00186006 8.88989e-19)
(0.99904 -0.00220189 -6.35621e-19)
(0.999007 -0.00253658 -8.33275e-19)
(0.999023 -0.00283061 4.94838e-19)
(0.999097 -0.00304556 6.0958e-19)
(0.999225 -0.0031625 1.40095e-18)
(0.999397 -0.0032019 7.91906e-19)
(0.999584 -0.00319778 1.08178e-18)
(0.99988 -0.00324125 1.62308e-18)
(0.999997 -0.00331691 -3.20026e-20)
(1.00058 -0.00316317 -5.01401e-19)
(0.998686 -0.00255599 -3.00916e-19)
(0.99988 5.57938e-05 2.57105e-20)
(0.99988 7.35761e-05 -8.13939e-21)
(0.999879 8.44559e-05 1.28657e-20)
(0.999878 9.27011e-05 -1.72376e-20)
(0.999878 0.000100229 3.65664e-20)
(0.999877 0.00010747 -1.72073e-20)
(0.999876 0.000113844 8.72485e-21)
(0.999876 0.000119263 -1.23785e-19)
(0.999875 0.000123791 9.87012e-20)
(0.999875 0.000127154 -1.87336e-19)
(0.999874 0.000129912 1.96949e-19)
(0.999874 0.000131589 -2.28021e-20)
(0.999874 0.000132709 -4.78202e-20)
(0.999874 0.000133028 -2.07262e-20)
(0.999875 0.000132835 -4.14644e-21)
(0.999875 0.000132189 -1.94409e-19)
(0.999876 0.000130973 9.78916e-21)
(0.999877 0.000129444 1.97034e-19)
(0.999879 0.000127203 -6.12015e-20)
(0.999881 0.000124432 -6.16953e-20)
(0.999883 0.000120826 1.01959e-19)
(0.999885 0.000116422 -4.81414e-20)
(0.999888 0.000110993 1.97491e-19)
(0.999891 0.000104582 1.03002e-19)
(0.999894 9.70176e-05 7.46166e-20)
(0.999897 8.83789e-05 -2.35735e-19)
(0.9999 7.8556e-05 -3.22071e-20)
(0.999903 6.76316e-05 -1.71995e-19)
(0.999905 5.54978e-05 3.26084e-20)
(0.999907 4.16084e-05 -5.26183e-20)
(0.999909 2.49821e-05 -2.01763e-20)
(0.999909 5.33848e-06 1.59419e-19)
(0.999909 -1.64874e-05 -3.98894e-19)
(0.999906 -4.01135e-05 -1.80965e-20)
(0.999902 -6.65391e-05 -1.91039e-19)
(0.999894 -9.76979e-05 -9.15898e-20)
(0.999884 -0.000135425 2.03623e-20)
(0.99987 -0.000181364 -2.72386e-19)
(0.999853 -0.000237354 4.00505e-19)
(0.999832 -0.000305627 6.36378e-20)
(0.999806 -0.000388914 4.17032e-19)
(0.999775 -0.000490374 -2.8685e-19)
(0.999737 -0.000613545 -1.89001e-19)
(0.999691 -0.000762673 -8.21566e-20)
(0.999635 -0.000942608 3.81141e-19)
(0.999568 -0.00115881 5.4755e-19)
(0.999488 -0.00141587 9.86958e-20)
(0.9994 -0.001716 1.75728e-19)
(0.99931 -0.00205537 -3.62141e-19)
(0.999227 -0.00242008 1.56239e-18)
(0.999166 -0.0027892 3.61359e-19)
(0.999143 -0.00313213 -3.90683e-19)
(0.999174 -0.00341082 1.36752e-20)
(0.999263 -0.00360121 1.04767e-18)
(0.999413 -0.00371715 -1.23418e-20)
(0.999597 -0.00378447 -8.66878e-19)
(0.999927 -0.00387101 -1.53537e-18)
(1.00013 -0.00397177 1.10004e-18)
(1.0006 -0.00370095 -3.15562e-19)
(0.999481 -0.0026958 2.3391e-19)
(0.999869 7.51205e-05 -9.85846e-21)
(0.999867 9.46632e-05 3.76418e-20)
(0.999866 0.000105777 -5.86949e-20)
(0.999865 0.000113316 4.15178e-20)
(0.999864 0.000120201 2.55159e-20)
(0.999863 0.000126731 -2.56958e-20)
(0.999862 0.000132239 2.02519e-21)
(0.999861 0.000136632 -1.74009e-20)
(0.99986 0.000140051 -5.56375e-20)
(0.999859 0.000142229 1.01845e-19)
(0.999859 0.000143797 -1.5047e-19)
(0.999858 0.000144244 1.25961e-19)
(0.999857 0.000144069 1.05761e-19)
(0.999857 0.000143021 -1.57242e-19)
(0.999857 0.000141392 -4.8838e-20)
(0.999857 0.000139204 1.76946e-19)
(0.999858 0.000136331 -2.05726e-19)
(0.999858 0.000133022 2.73255e-19)
(0.999859 0.00012885 -5.1129e-20)
(0.999861 0.000123986 2.64307e-20)
(0.999863 0.000118114 -4.38138e-20)
(0.999865 0.000111243 -5.25303e-20)
(0.999868 0.000103114 -9.27938e-20)
(0.999872 9.3752e-05 1.55231e-19)
(0.999875 8.29277e-05 -1.0425e-19)
(0.99988 7.06751e-05 -9.71607e-20)
(0.999884 5.68348e-05 1.95342e-19)
(0.999889 4.14044e-05 -1.7979e-19)
(0.999894 2.42593e-05 2.78386e-19)
(0.999898 4.70826e-06 -1.4656e-19)
(0.999903 -1.83059e-05 1.05313e-19)
(0.999908 -4.50696e-05 -1.74475e-19)
(0.999913 -7.47025e-05 1.8008e-19)
(0.999917 -0.000106638 -1.88454e-20)
(0.99992 -0.000141869 -1.00915e-20)
(0.999921 -0.000182341 -5.70354e-21)
(0.999922 -0.000229766 -8.71936e-20)
(0.999921 -0.000285642 2.38366e-19)
(0.999919 -0.000351506 -1.81364e-19)
(0.999916 -0.000429069 -9.82107e-19)
(0.999913 -0.000520361 -3.96301e-19)
(0.999907 -0.000627701 2.74742e-19)
(0.999899 -0.000753605 -2.82268e-19)
(0.999887 -0.000901157 -3.09666e-19)
(0.999869 -0.00107391 -2.05832e-20)
(0.999841 -0.00127609 7.15114e-19)
(0.999803 -0.00151154 -1.00051e-18)
(0.999752 -0.0017827 -9.80801e-19)
(0.99969 -0.00208783 -6.60243e-19)
(0.999623 -0.00241717 -1.00704e-18)
(0.999561 -0.00275678 5.46722e-19)
(0.999521 -0.00308425 -2.51756e-19)
(0.999519 -0.00336816 -1.7811e-18)
(0.999569 -0.00358432 2.24398e-19)
(0.999685 -0.00374043 4.67429e-19)
(0.999849 -0.00385053 -6.42432e-19)
(1.00018 -0.00394995 5.11237e-19)
(1.00047 -0.0040169 1.44802e-19)
(1.00082 -0.00357118 5.1982e-19)
(1.00042 -0.00203731 -9.15047e-20)
(0.999848 9.27462e-05 1.17256e-20)
(0.999844 0.000111622 -5.00053e-20)
(0.999843 0.000121462 2.30812e-20)
(0.999841 0.000127267 4.07712e-20)
(0.99984 0.000132524 -8.28901e-20)
(0.999839 0.000137493 6.59268e-20)
(0.999838 0.000141358 -4.17075e-20)
(0.999837 0.000143949 3.36207e-20)
(0.999836 0.00014542 5.09503e-20)
(0.999835 0.000145482 -1.16794e-19)
(0.999834 0.000144849 1.60729e-19)
(0.999833 0.000142978 6.45951e-20)
(0.999832 0.000140451 -2.4801e-19)
(0.999832 0.000136981 -4.39606e-20)
(0.999832 0.000132871 1.21044e-19)
(0.999832 0.000128155 7.43219e-20)
(0.999832 0.000122681 -8.71004e-20)
(0.999833 0.000116706 7.30773e-20)
(0.999834 0.000109729 1.08355e-19)
(0.999835 0.000101918 -5.20852e-20)
(0.999837 9.29323e-05 -2.87449e-20)
(0.99984 8.27658e-05 9.68487e-20)
(0.999843 7.11384e-05 1.91449e-19)
(0.999847 5.80824e-05 -1.37774e-19)
(0.999851 4.33261e-05 -1.45188e-19)
(0.999856 2.68761e-05 1.54712e-19)
(0.999861 8.5371e-06 -1.16964e-19)
(0.999867 -1.17684e-05 -4.46275e-20)
(0.999874 -3.42172e-05 3.66159e-19)
(0.99988 -5.96012e-05 -1.56592e-19)
(0.999888 -8.91016e-05 -1.13014e-19)
(0.999896 -0.00012302 1.50363e-19)
(0.999904 -0.00016033 9.99065e-20)
(0.999913 -0.000200535 -8.6957e-20)
(0.999921 -0.000244615 -5.71738e-20)
(0.99993 -0.00029448 1.75311e-19)
(0.999939 -0.000351918 3.58215e-20)
(0.999949 -0.000418346 5.75021e-20)
(0.999961 -0.000495055 -2.88398e-19)
(0.999974 -0.000583209 -2.69094e-19)
(0.999991 -0.000683963 5.13786e-19)
(1.00001 -0.000798429 3.86984e-19)
(1.00003 -0.00092754 6.20611e-19)
(1.00006 -0.00107234 -5.58024e-19)
(1.00009 -0.00123383 -5.87539e-19)
(1.00011 -0.00141333 -3.76016e-19)
(1.00013 -0.00161189 8.60377e-19)
(1.00014 -0.00183011 7.86089e-19)
(1.00013 -0.00206653 -8.25059e-19)
(1.00011 -0.00231471 -1.08427e-18)
(1.00009 -0.00256808 -2.53805e-19)
(1.00006 -0.00281503 1.71794e-19)
(1.00006 -0.00303526 5.68483e-20)
(1.00009 -0.00321095 -5.47201e-19)
(1.00018 -0.00334972 3.70052e-19)
(1.00031 -0.0034611 2.32065e-19)
(1.00061 -0.00355714 2.93827e-19)
(1.00095 -0.00361184 -5.11219e-19)
(1.00117 -0.00308424 -5.04037e-20)
(1.00092 -0.00150901 -8.68646e-20)
(0.999812 0.000109044 -1.99132e-20)
(0.999806 0.000127396 -1.50427e-20)
(0.999805 0.000135677 1.9353e-20)
(0.999804 0.00013926 6.48299e-20)
(0.999803 0.00014222 -1.32341e-19)
(0.999802 0.000144739 1.43602e-19)
(0.999801 0.000145997 -6.21171e-21)
(0.999801 0.000145871 -8.14615e-21)
(0.9998 0.000144581 -4.39606e-20)
(0.999799 0.00014187 1.0137e-19)
(0.999798 0.000138488 -1.491e-19)
(0.999798 0.00013389 5.37073e-20)
(0.999797 0.000128591 -1.67225e-21)
(0.999797 0.000122312 7.65216e-20)
(0.999797 0.000115331 3.45395e-20)
(0.999797 0.00010763 -1.78191e-19)
(0.999797 9.9039e-05 1.48659e-19)
(0.999798 8.97959e-05 5.56765e-20)
(0.999799 7.93916e-05 -1.5509e-19)
(0.9998 6.797e-05 7.36439e-20)
(0.999802 5.52221e-05 3.2442e-20)
(0.999805 4.11099e-05 -2.15761e-20)
(0.999807 2.53556e-05 2.45671e-20)
(0.999811 7.99086e-06 -1.48445e-20)
(0.999815 -1.12944e-05 -1.58919e-19)
(0.999819 -3.25264e-05 1.0043e-19)
(0.999824 -5.5934e-05 -1.4776e-19)
(0.99983 -8.17052e-05 2.64869e-19)
(0.999835 -0.000110045 -5.04479e-20)
(0.999841 -0.000141948 -2.88485e-20)
(0.999848 -0.000178654 -8.34585e-21)
(0.999855 -0.000220517 2.41046e-19)
(0.999863 -0.000266585 -9.91696e-20)
(0.999871 -0.000316292 -5.85352e-20)
(0.999879 -0.00037075 1.40841e-19)
(0.999888 -0.000432069 1.15771e-19)
(0.999897 -0.000502211 -1.90981e-19)
(0.999908 -0.000582753 3.45161e-20)
(0.999922 -0.000674954 3.45571e-19)
(0.99994 -0.000779693 -3.32322e-20)
(0.999963 -0.00089746 2.09556e-19)
(0.999993 -0.0010283 -2.87373e-19)
(1.00003 -0.00117167 4.26995e-19)
(1.00008 -0.00132653 8.78425e-19)
(1.00013 -0.001491 2.3966e-19)
(1.00019 -0.00166294 -3.21599e-19)
(1.00025 -0.00183955 -9.19909e-19)
(1.00031 -0.00201822 1.59466e-19)
(1.00036 -0.00219599 2.46079e-19)
(1.0004 -0.00236801 5.0074e-19)
(1.00042 -0.00253365 -6.09903e-20)
(1.00044 -0.00269171 -7.53125e-19)
(1.00046 -0.00283429 5.81171e-19)
(1.0005 -0.0029537 -3.43134e-19)
(1.00058 -0.00306284 5.38791e-19)
(1.0007 -0.00317516 1.27855e-19)
(1.00098 -0.00329146 3.64169e-19)
(1.00134 -0.00339243 2.59544e-19)
(1.00152 -0.00290084 -4.71881e-20)
(1.00113 -0.00150565 -1.79971e-19)
(0.999763 0.000124273 -9.74217e-21)
(0.999758 0.000137885 7.9214e-21)
(0.999757 0.000143228 3.76062e-20)
(0.999757 0.000144008 5.62745e-20)
(0.999756 0.000144381 -1.577e-19)
(0.999755 0.000144541 8.59831e-20)
(0.999754 0.00014353 -1.45655e-19)
(0.999754 0.000141149 2.16437e-19)
(0.999753 0.000137536 -9.64218e-20)
(0.999753 0.000132405 1.61555e-20)
(0.999752 0.000126502 1.67886e-19)
(0.999752 0.00011928 -3.64788e-19)
(0.999751 0.000111289 2.37432e-19)
(0.999751 0.000102224 3.14796e-20)
(0.999751 9.23385e-05 4.87143e-20)
(0.999751 8.16372e-05 -1.97678e-19)
(0.999752 6.99081e-05 9.31436e-20)
(0.999752 5.74065e-05 -1.10448e-19)
(0.999753 4.35537e-05 2.0918e-19)
(0.999754 2.84984e-05 -2.81767e-20)
(0.999756 1.19175e-05 -2.45677e-19)
(0.999758 -6.23561e-06 9.41478e-20)
(0.99976 -2.62492e-05 -5.46261e-21)
(0.999762 -4.80748e-05 -3.18506e-19)
(0.999765 -7.20573e-05 2.33211e-19)
(0.999768 -9.82485e-05 1.67733e-19)
(0.999771 -0.000126908 1.08384e-19)
(0.999774 -0.000158322 -1.37328e-19)
(0.999777 -0.000192764 -1.43837e-19)
(0.99978 -0.000231395 6.54665e-20)
(0.999783 -0.000275599 9.30133e-20)
(0.999787 -0.000325845 -1.0952e-19)
(0.999789 -0.000381078 -1.56195e-19)
(0.999792 -0.000440958 3.22793e-19)
(0.999793 -0.000506802 3.20165e-20)
(0.999795 -0.000580868 -4.52292e-19)
(0.999796 -0.00066562 3.98021e-20)
(0.999797 -0.000762971 2.85477e-19)
(0.999801 -0.000874408 2.62115e-20)
(0.999809 -0.00100089 3.56642e-19)
(0.999822 -0.00114269 -4.63862e-19)
(0.999843 -0.00129932 -2.46151e-20)
(0.999873 -0.00146933 -2.84291e-19)
(0.999915 -0.00165022 1.0574e-19)
(0.999969 -0.00183791 4.28625e-19)
(1.00003 -0.00202719 1.26637e-18)
(1.00011 -0.00221165 1.59209e-19)
(1.00019 -0.00238511 -7.23638e-19)
(1.00028 -0.00254212 5.15699e-19)
(1.00035 -0.00267767 1.67953e-18)
(1.00042 -0.00279461 -1.2395e-18)
(1.00048 -0.00289948 1.33362e-18)
(1.00054 -0.0029944 -7.22429e-19)
(1.00062 -0.00308113 -3.27743e-19)
(1.00073 -0.00317812 -1.12497e-18)
(1.00088 -0.00330476 -4.10397e-20)
(1.00117 -0.00345492 -1.91874e-19)
(1.0016 -0.00360842 -8.06222e-20)
(1.00182 -0.0031587 -1.24379e-19)
(1.00143 -0.00179275 -1.40697e-19)
(0.999704 0.000139614 1.36351e-20)
(0.999701 0.000151399 4.50154e-21)
(0.9997 0.000154138 -4.41849e-20)
(0.999699 0.000152057 3.98428e-20)
(0.999699 0.000149497 -1.67133e-20)
(0.999698 0.000146666 2.82622e-20)
(0.999697 0.000142627 9.13319e-21)
(0.999697 0.000137267 -1.26935e-19)
(0.999696 0.000130697 5.25535e-20)
(0.999696 0.000122696 -3.3711e-20)
(0.999696 0.000113969 1.97564e-20)
(0.999695 0.000104015 7.22825e-20)
(0.999695 9.32575e-05 -1.30731e-20)
(0.999695 8.1427e-05 4.00054e-20)
(0.999695 6.87242e-05 -1.62053e-19)
(0.999696 5.50956e-05 6.02724e-20)
(0.999696 4.03189e-05 2.51858e-20)
(0.999697 2.46013e-05 -6.55437e-20)
(0.999698 7.39673e-06 1.24962e-19)
(0.999699 -1.12029e-05 3.8749e-20)
(0.9997 -3.14585e-05 -4.78144e-21)
(0.999701 -5.34683e-05 -3.99223e-20)
(0.999703 -7.74947e-05 1.52239e-19)
(0.999704 -0.000103504 -4.03209e-19)
(0.999706 -0.000131854 2.04322e-19)
(0.999707 -0.000162634 8.25705e-20)
(0.999708 -0.000196116 -1.32655e-19)
(0.999709 -0.000232692 2.26419e-19)
(0.99971 -0.000272648 -1.08813e-19)
(0.999709 -0.000317361 -5.33949e-20)
(0.999708 -0.000368289 -9.83884e-20)
(0.999706 -0.000425975 -3.72479e-20)
(0.999703 -0.000489516 1.06503e-19)
(0.999699 -0.000558519 -3.06935e-19)
(0.999692 -0.000634526 5.67142e-19)
(0.999683 -0.000720175 -4.01966e-20)
(0.999673 -0.000818328 2.70771e-19)
(0.999661 -0.000931402 -6.78279e-19)
(0.99965 -0.00106128 -2.02094e-19)
(0.999641 -0.00120921 5.3642e-21)
(0.999635 -0.00137569 -1.40552e-19)
(0.999636 -0.00156021 -1.40735e-20)
(0.999645 -0.00176114 -4.86001e-19)
(0.999665 -0.0019754 1.59333e-19)
(0.999699 -0.0021977 2.20408e-19)
(0.999748 -0.0024209 -1.17605e-18)
(0.999814 -0.00263596 1.44685e-18)
(0.999894 -0.00283372 1.99541e-19)
(0.999984 -0.00300612 6.27023e-20)
(1.00008 -0.00314683 -1.16392e-18)
(1.00017 -0.0032597 3.64774e-19)
(1.00027 -0.00335548 -7.00961e-19)
(1.00038 -0.0034419 1.20872e-18)
(1.00051 -0.00352608 2.24186e-19)
(1.00068 -0.00362811 -6.80421e-19)
(1.0009 -0.00376962 1.8859e-19)
(1.00126 -0.00393613 -3.19448e-19)
(1.0018 -0.00409346 -6.71378e-21)
(1.00212 -0.00360698 3.93219e-19)
(1.00198 -0.00204406 1.44405e-19)
(0.999631 0.000156581 -3.03654e-21)
(0.999631 0.0001645 -1.12664e-20)
(0.999631 0.000163461 -9.25883e-21)
(0.999631 0.000157829 8.45933e-20)
(0.99963 0.000151959 -4.4465e-20)
(0.99963 0.000146117 -5.04605e-20)
(0.999629 0.000139306 -1.78524e-20)
(0.999629 0.00013128 -6.96948e-20)
(0.999629 0.000122073 4.17393e-20)
(0.999629 0.000111403 5.89885e-21)
(0.999629 0.000100009 2.14672e-21)
(0.999629 8.73757e-05 1.52135e-19)
(0.99963 7.39911e-05 -1.03054e-19)
(0.99963 5.95414e-05 -1.19819e-20)
(0.999631 4.42059e-05 1.07243e-19)
(0.999632 2.795e-05 -5.68346e-20)
(0.999633 1.04955e-05 -2.07663e-20)
(0.999634 -7.94746e-06 3.23222e-20)
(0.999635 -2.79973e-05 9.90282e-20)
(0.999636 -4.95582e-05 5.11667e-20)
(0.999638 -7.2924e-05 1.6633e-20)
(0.999639 -9.81874e-05 -1.22795e-19)
(0.999641 -0.000125617 5.89348e-20)
(0.999642 -0.000155169 1.08027e-19)
(0.999643 -0.000187199 -2.20249e-19)
(0.999644 -0.000221811 6.69695e-20)
(0.999645 -0.000259272 -2.5916e-19)
(0.999645 -0.000300019 2.03939e-19)
(0.999644 -0.000344362 1.69277e-19)
(0.999642 -0.000393758 -2.56772e-19)
(0.999639 -0.000449792 -1.17463e-19)
(0.999635 -0.000513081 1.49821e-19)
(0.999629 -0.000582589 4.91584e-20)
(0.99962 -0.000658079 -1.27122e-19)
(0.999608 -0.00074124 -1.5602e-19)
(0.999594 -0.000834842 -1.81568e-19)
(0.999576 -0.000942162 1.13836e-19)
(0.999555 -0.00106607 2.6049e-19)
(0.999533 -0.00120882 9.35085e-20)
(0.999511 -0.00137199 -7.57133e-20)
(0.999489 -0.00155646 8.18019e-19)
(0.999471 -0.00176214 -8.67255e-20)
(0.999458 -0.0019877 8.05145e-19)
(0.999455 -0.00223025 -1.39957e-18)
(0.999463 -0.00248433 2.10685e-19)
(0.999488 -0.00274211 4.3913e-20)
(0.99953 -0.00299324 -8.45878e-20)
(0.999592 -0.00322675 -9.26229e-19)
(0.999672 -0.00343257 -1.42537e-18)
(0.999767 -0.00360268 1.18565e-18)
(0.999876 -0.00374022 1.42982e-18)
(1 -0.00385701 6.69893e-19)
(1.00016 -0.00396201 -1.17073e-18)
(1.00035 -0.00406283 5.17367e-19)
(1.0006 -0.00417623 1.04489e-18)
(1.00091 -0.00432077 2.59696e-19)
(1.00137 -0.00447203 3.11053e-19)
(1.00203 -0.00457535 5.78452e-21)
(1.00247 -0.00397546 -5.3703e-19)
(1.00276 -0.00209561 8.52284e-19)
(0.999548 0.000173675 3.92805e-21)
(0.999551 0.00017896 -1.11385e-20)
(0.999552 0.000173713 3.75947e-20)
(0.999552 0.000163837 9.24729e-21)
(0.999552 0.000154051 -4.62159e-20)
(0.999552 0.000144584 -5.02797e-20)
(0.999553 0.000134412 1.12846e-19)
(0.999553 0.000123297 -1.16673e-19)
(0.999554 0.000111202 -2.6943e-20)
(0.999554 9.78666e-05 6.49953e-20)
(0.999555 8.39768e-05 5.69551e-20)
(0.999556 6.90416e-05 1.64244e-19)
(0.999558 5.34159e-05 -8.90595e-20)
(0.999559 3.67976e-05 -1.44538e-19)
(0.999561 1.9312e-05 3.05109e-20)
(0.999562 8.61945e-07 -1.06811e-19)
(0.999564 -1.88483e-05 7.76757e-20)
(0.999566 -3.96674e-05 -1.23104e-19)
(0.999568 -6.21708e-05 2.05472e-20)
(0.99957 -8.62998e-05 -3.57151e-20)
(0.999573 -0.00011231 -2.07037e-20)
(0.999575 -0.000140312 -9.18933e-20)
(0.999578 -0.000170547 1.0656e-20)
(0.99958 -0.000202988 1.88803e-19)
(0.999583 -0.000237957 -6.15005e-20)
(0.999585 -0.000275571 1.95111e-20)
(0.999587 -0.000316066 5.30184e-20)
(0.999588 -0.000359901 -6.52854e-20)
(0.999589 -0.000407334 -1.27923e-20)
(0.999589 -0.000459881 8.5228e-20)
(0.999587 -0.000519144 9.16185e-20)
(0.999584 -0.000585672 -6.63601e-20)
(0.99958 -0.00065857 -2.03041e-19)
(0.999573 -0.000737357 -2.76794e-19)
(0.999562 -0.000823721 4.17732e-19)
(0.999548 -0.000920701 1.10753e-19)
(0.999531 -0.00103157 7.06629e-20)
(0.99951 -0.00115956 3.23773e-19)
(0.999487 -0.00130718 -2.90027e-19)
(0.999461 -0.00147615 1.75553e-19)
(0.999435 -0.00166775 -4.3483e-21)
(0.999409 -0.00188243 1.88165e-20)
(0.999385 -0.00211945 -2.97681e-19)
(0.999368 -0.00237657 6.47766e-19)
(0.999359 -0.00264897 -8.06501e-19)
(0.999364 -0.00292922 4.55111e-19)
(0.999386 -0.00320694 -1.2782e-18)
(0.999429 -0.00347071 3.77069e-19)
(0.999495 -0.00370943 7.57969e-19)
(0.999583 -0.0039138 -1.17803e-18)
(0.999698 -0.0040855 -3.2099e-19)
(0.999849 -0.0042354 -1.07366e-19)
(1.00005 -0.0043706 -1.67325e-19)
(1.0003 -0.00449533 -5.00545e-19)
(1.00062 -0.00461927 4.52039e-20)
(1.00102 -0.0047541 1.20013e-19)
(1.00158 -0.0048662 -7.25267e-20)
(1.00236 -0.00488275 1.42195e-20)
(1.0029 -0.00414166 1.58319e-20)
(1.00365 -0.00195253 -7.17311e-19)
(0.999464 0.000189488 7.31308e-21)
(0.99947 0.000187774 -5.84476e-21)
(0.999472 0.000176738 5.05333e-21)
(0.999472 0.000161818 3.06274e-20)
(0.999472 0.000147854 4.20703e-20)
(0.999473 0.000135055 -1.55597e-19)
(0.999474 0.000122191 1.06626e-19)
(0.999475 0.000108781 2.09351e-20)
(0.999476 9.46209e-05 -6.15533e-21)
(0.999477 7.93242e-05 -4.10684e-20)
(0.999479 6.35532e-05 1.19148e-19)
(0.99948 4.67839e-05 -3.73901e-20)
(0.999482 2.94093e-05 -4.89246e-20)
(0.999485 1.10624e-05 -1.38128e-19)
(0.999487 -8.17095e-06 2.6405e-19)
(0.99949 -2.83489e-05 -5.32054e-20)
(0.999493 -4.98384e-05 -4.23859e-20)
(0.999496 -7.24754e-05 -1.18337e-19)
(0.999499 -9.69e-05 1.25694e-19)
(0.999503 -0.000123008 6.59356e-20)
(0.999507 -0.000151116 -2.98627e-20)
(0.999511 -0.000181289 4.73644e-20)
(0.999515 -0.000213765 -1.9669e-19)
(0.99952 -0.000248512 1.44663e-20)
(0.999525 -0.000285798 1.01381e-19)
(0.99953 -0.00032573 -1.84148e-20)
(0.999535 -0.000368505 -2.83221e-19)
(0.99954 -0.000414534 2.83576e-20)
(0.999544 -0.00046404 2.35887e-19)
(0.999548 -0.000518434 -5.99217e-20)
(0.999552 -0.00057937 -1.12831e-19)
(0.999555 -0.000647324 6.18154e-20)
(0.999557 -0.000721191 1.78366e-19)
(0.999556 -0.000800485 4.04978e-19)
(0.999553 -0.000886777 -6.22236e-20)
(0.999548 -0.000983005 7.16566e-20)
(0.999539 -0.00109236 -5.69533e-19)
(0.999528 -0.00121821 -1.60398e-19)
(0.999514 -0.00136314 9.7217e-20)
(0.999497 -0.00152874 -3.86356e-19)
(0.999478 -0.00171655 -8.57127e-20)
(0.999458 -0.00192757 1.74593e-19)
(0.999438 -0.00216165 1.22195e-19)
(0.999421 -0.00241747 3.43951e-19)
(0.999409 -0.0026913 1.1172e-18)
(0.999408 -0.0029769 -8.45492e-19)
(0.999421 -0.0032649 1.27828e-18)
(0.999453 -0.0035446 9.43061e-19)
(0.99951 -0.00380503 1.17195e-20)
(0.999594 -0.00403633 1.02492e-18)
(0.999713 -0.00423882 -1.30846e-18)
(0.999881 -0.00442159 -1.34959e-18)
(1.00011 -0.00458824 8.85036e-19)
(1.00042 -0.00473755 5.98748e-19)
(1.0008 -0.00487043 -1.48718e-19)
(1.00128 -0.00498999 -6.4856e-19)
(1.00193 -0.00505603 7.5436e-20)
(1.0028 -0.00498384 1.50108e-19)
(1.00339 -0.00411898 4.22693e-19)
(1.00454 -0.00170158 -7.98955e-19)
(0.999381 0.000202066 -7.85287e-21)
(0.999389 0.000197242 8.14003e-21)
(0.999392 0.000181587 5.23635e-20)
(0.999392 0.000162053 -6.46961e-20)
(0.999393 0.000143948 1.11108e-19)
(0.999394 0.000127487 -1.54555e-19)
(0.999395 0.000111338 4.14832e-20)
(0.999396 9.49964e-05 -1.84174e-21)
(0.999397 7.81673e-05 8.24426e-20)
(0.999399 6.04728e-05 -4.13774e-20)
(0.999401 4.2515e-05 1.14908e-20)
(0.999403 2.38052e-05 1.11686e-20)
(0.999406 4.5899e-06 -1.67629e-19)
(0.999409 -1.54935e-05 4.85331e-20)
(0.999412 -3.64067e-05 1.05686e-19)
(0.999416 -5.82722e-05 2.74701e-21)
(0.99942 -8.14632e-05 -1.60029e-19)
(0.999424 -0.000105904 6.3079e-20)
(0.999429 -0.000132155 2.77443e-19)
(0.999434 -0.00016015 -1.75435e-19)
(0.99944 -0.000190178 -1.25887e-19)
(0.999447 -0.000222313 1.02839e-19)
(0.999453 -0.000256744 6.20326e-20)
(0.999461 -0.000293485 6.56398e-20)
(0.999469 -0.000332725 -1.24792e-19)
(0.999477 -0.000374576 -2.54237e-19)
(0.999487 -0.000419182 1.89384e-19)
(0.999496 -0.000466909 2.53373e-19)
(0.999506 -0.000517883 6.22182e-20)
(0.999517 -0.000573426 -1.28288e-19)
(0.999528 -0.000635127 5.56293e-20)
(0.999539 -0.000703257 8.62722e-20)
(0.99955 -0.00077683 -1.52043e-19)
(0.99956 -0.000854979 -2.97207e-20)
(0.999569 -0.00093902 -2.47627e-19)
(0.999576 -0.00103198 -6.41892e-20)
(0.999582 -0.00113657 -4.97726e-20)
(0.999587 -0.00125616 1.52916e-19)
(0.99959 -0.00139324 -2.02586e-19)
(0.999591 -0.00154909 5.80255e-20)
(0.99959 -0.00172528 8.48972e-20)
(0.999588 -0.00192323 1.80446e-20)
(0.999584 -0.00214331 -5.15403e-19)
(0.999581 -0.00238511 -6.7485e-19)
(0.999581 -0.00264624 -5.96684e-19)
(0.999587 -0.00292207 1.07316e-18)
(0.999605 -0.0032049 -7.54155e-20)
(0.99964 -0.00348567 -4.17084e-19)