/*--------------------------------*- C++ -*----------------------------------*\
  =========                 |
  \\      /  F ield         | OpenFOAM: The Open Source CFD Toolbox
   \\    /   O peration     | Website:  https://openfoam.org
    \\  /    A nd           | Version:  6.0
     \\/     M anipulation  |
\*---------------------------------------------------------------------------*/
FoamFile
{
    version     2.0;
    format      ascii;
    class       volScalarField;
    location    "5";
    object      p;
}
// * * * * * * * * * * * * * * * * * * * * * * * * * * * * * * * * * * * * * //

dimensions      [0 2 -2 0 0 0 0];

internalField   nonuniform List<scalar> 
62000
(
0.02456
0.0244604
0.0243584
0.0242536
0.0241473
0.0240389
0.0239299
0.0238196
0.02371
0.0235998
0.0234917
0.0233838
0.0232798
0.0231768
0.0230795
0.0229842
0.0228965
0.0228121
0.0227377
0.0226684
0.0226118
0.022563
0.0225304
0.0225091
0.0225062
0.0225116
0.0225331
0.0225674
0.0226277
0.0227159
0.0228507
0.0230415
0.0233067
0.0236551
0.0240979
0.0246645
0.025396
0.0263372
0.0275328
0.0290244
0.0308457
0.0330125
0.0355112
0.038283
0.0412081
0.0441026
0.0467123
0.0487417
0.0498992
0.0499192
0.0487025
0.04621
0.0426805
0.0382948
0.0334464
0.028374
0.0233978
0.0186184
0.0141858
0.0120915
0.0245432
0.0244228
0.0243027
0.0241822
0.0240625
0.0239432
0.0238255
0.0237089
0.0235951
0.0234828
0.0233744
0.0232679
0.0231666
0.0230674
0.0229745
0.0228841
0.0228011
0.0227215
0.0226509
0.0225855
0.0225314
0.0224857
0.022455
0.0224371
0.0224363
0.0224444
0.0224642
0.0224961
0.0225498
0.0226326
0.0227592
0.0229451
0.0232057
0.0235466
0.0239795
0.024534
0.0252551
0.0261916
0.0273924
0.0289052
0.0307731
0.0330246
0.0356629
0.0386492
0.0418858
0.0452092
0.0483786
0.0511001
0.0530627
0.0539586
0.053627
0.0519429
0.0490799
0.0451217
0.040411
0.0351278
0.0295892
0.0238594
0.0183316
0.0140884
0.0243361
0.0242068
0.0240796
0.0239535
0.0238297
0.0237076
0.0235886
0.023472
0.0233594
0.0232497
0.0231452
0.0230438
0.0229487
0.0228566
0.0227715
0.0226893
0.0226148
0.0225436
0.022481
0.0224229
0.0223752
0.0223346
0.0223078
0.0222921
0.0222911
0.0222957
0.0223065
0.0223234
0.0223545
0.0224075
0.0224953
0.0226341
0.022835
0.0231011
0.0234371
0.0238711
0.0244465
0.0252107
0.0262106
0.0274934
0.0291034
0.0310749
0.033421
0.0361185
0.0390909
0.0422001
0.0452322
0.0479165
0.0499542
0.0510341
0.0509728
0.0496021
0.0470498
0.0433266
0.0387357
0.0334002
0.0276539
0.0215775
0.0157295
0.0103183
0.0240223
0.0238997
0.0237792
0.0236602
0.0235435
0.0234283
0.0233162
0.0232061
0.0230999
0.0229964
0.0228978
0.0228023
0.0227129
0.0226264
0.0225468
0.02247
0.0224006
0.0223341
0.0222757
0.0222209
0.0221753
0.0221353
0.0221071
0.0220877
0.0220795
0.0220733
0.022068
0.0220624
0.0220628
0.0220759
0.0221124
0.0221872
0.0223095
0.0224746
0.0226855
0.0229644
0.0233519
0.0238915
0.0246264
0.0256003
0.0268562
0.0284301
0.0303416
0.0325795
0.0350862
0.0377485
0.0403821
0.042747
0.0445681
0.0455492
0.045502
0.0442381
0.0418588
0.0383227
0.033887
0.0286476
0.0229538
0.0169484
0.0112017
0.00576212
0.0237014
0.0235901
0.02348
0.0233708
0.0232633
0.0231567
0.0230524
0.0229496
0.02285
0.0227523
0.0226588
0.0225676
0.0224817
0.0223979
0.0223202
0.0222446
0.0221755
0.0221085
0.0220485
0.021991
0.0219414
0.0218957
0.0218597
0.0218299
0.0218082
0.0217851
0.0217587
0.0217266
0.0216938
0.0216654
0.02165
0.0216615
0.0217043
0.0217735
0.0218645
0.0219974
0.0222083
0.0225365
0.0230207
0.0237003
0.0246156
0.0258023
0.0272835
0.0290567
0.0310794
0.0332598
0.0354408
0.0374123
0.0389262
0.0397067
0.0395701
0.0383215
0.0360394
0.0326514
0.0283796
0.0233021
0.0177824
0.0120285
0.00651827
0.00147293
0.0233834
0.0232829
0.0231827
0.0230825
0.0229831
0.0228838
0.0227859
0.0226888
0.0225939
0.0225002
0.0224099
0.022321
0.0222366
0.0221534
0.0220754
0.0219985
0.0219271
0.0218565
0.0217917
0.021728
0.0216704
0.0216148
0.0215666
0.0215219
0.0214821
0.021438
0.0213872
0.0213267
0.0212601
0.0211913
0.0211272
0.0210793
0.021052
0.0210339
0.0210207
0.0210271
0.0210861
0.0212328
0.0215013
0.0219268
0.0225459
0.0233927
0.0244915
0.0258452
0.0274224
0.0291482
0.0308885
0.0324605
0.0336414
0.0341795
0.0338994
0.032608
0.0303729
0.0271023
0.022978
0.0180768
0.0127622
0.00730282
0.00202007
-0.00259246
0.0230641
0.022973
0.0228812
0.0227886
0.0226961
0.0226028
0.0225103
0.0224176
0.0223264
0.0222354
0.022147
0.0220589
0.0219742
0.0218898
0.0218093
0.0217287
0.0216523
0.0215755
0.021503
0.0214299
0.0213613
0.0212926
0.0212292
0.0211666
0.021106
0.0210385
0.0209617
0.0208719
0.0207719
0.0206643
0.0205547
0.0204536
0.0203617
0.0202692
0.0201657
0.0200651
0.0199965
0.0199908
0.0200782
0.0202895
0.0206575
0.0212138
0.0219826
0.0229701
0.0241527
0.0254694
0.0268051
0.0280004
0.0288567
0.0291444
0.0286989
0.0273333
0.0251055
0.0219133
0.0179095
0.0131661
0.00804302
0.00285027
-0.00226179
-0.00651079
0.0227224
0.02264
0.0225562
0.0224709
0.0223847
0.022297
0.022209
0.02212
0.0220314
0.0219422
0.0218544
0.0217661
0.0216801
0.0215933
0.0215093
0.0214241
0.0213417
0.0212576
0.0211762
0.0210928
0.0210118
0.0209288
0.0208488
0.020767
0.0206844
0.0205924
0.0204887
0.0203695
0.0202367
0.020092
0.0199399
0.0197893
0.0196412
0.0194809
0.0193
0.0191079
0.0189311
0.0187974
0.0187327
0.0187641
0.0189206
0.0192308
0.0197177
0.0203889
0.0212266
0.0221797
0.0231489
0.0239951
0.0245401
0.0245769
0.0239511
0.0224854
0.0202343
0.0170914
0.0131751
0.00856107
0.00359434
-0.00138106
-0.0063881
-0.0103712
0.0223909
0.0223136
0.0222341
0.0221522
0.0220687
0.0219829
0.0218962
0.0218078
0.0217192
0.0216291
0.0215397
0.0214489
0.0213595
0.0212684
0.0211791
0.0210875
0.0209975
0.0209045
0.0208128
0.0207176
0.0206231
0.0205248
0.0204274
0.0203258
0.0202208
0.020104
0.0199735
0.0198252
0.0196603
0.0194798
0.0192874
0.0190911
0.0188894
0.0186699
0.0184194
0.0181473
0.017877
0.0176329
0.0174378
0.0173148
0.0172893
0.017387
0.0176292
0.0180239
0.0185573
0.0191865
0.0198249
0.0203506
0.0206042
0.0203977
0.0195877
0.0180074
0.0157071
0.0125802
0.00872076
0.00420236
-0.000645619
-0.00545907
-0.010415
-0.0142132
0.0220245
0.0219519
0.0218762
0.0217974
0.0217163
0.0216321
0.0215462
0.0214577
0.0213683
0.0212767
0.0211851
0.0210914
0.0209983
0.0209027
0.020808
0.0207101
0.0206126
0.0205111
0.0204093
0.0203026
0.0201948
0.0200814
0.0199667
0.0198456
0.0197184
0.0195773
0.0194203
0.0192432
0.0190468
0.0188315
0.0186002
0.0183597
0.0181094
0.0178328
0.0175191
0.0171745
0.0168203
0.0164783
0.0161681
0.0159094
0.0157243
0.0156355
0.015662
0.0158118
0.0160734
0.0164101
0.0167458
0.0169733
0.0169489
0.0165036
0.0155034
0.013793
0.011423
0.00828874
0.00445714
4.03031e-06
-0.00476199
-0.00946034
-0.0144078
-0.0180917
0.0216334
0.0215633
0.0214897
0.0214128
0.0213331
0.0212499
0.0211645
0.0210761
0.020986
0.0208931
0.0207993
0.0207026
0.0206057
0.0205053
0.0204047
0.0202998
0.0201943
0.0200833
0.019971
0.0198522
0.0197307
0.0196019
0.0194699
0.0193294
0.0191805
0.0190154
0.0188323
0.0186269
0.0183994
0.0181499
0.0178805
0.0175976
0.0172983
0.016969
0.0165948
0.0161823
0.0157503
0.015318
0.0149023
0.01452
0.0141897
0.0139314
0.0137621
0.013689
0.0137024
0.0137707
0.0138268
0.0137756
0.0134882
0.0128112
0.0116204
0.00977178
0.00731503
0.0041486
0.000321088
-0.00409415
-0.00880776
-0.0134309
-0.0183977
-0.0220154
0.0211991
0.021132
0.0210614
0.0209872
0.0209098
0.0208285
0.0207443
0.0206562
0.0205659
0.0204718
0.0203761
0.0202766
0.020176
0.0200709
0.0199648
0.0198533
0.01974
0.0196201
0.0194975
0.019367
0.0192322
0.0190884
0.0189395
0.01878
0.0186098
0.0184213
0.0182126
0.0179791
0.0177208
0.0174372
0.01713
0.0168044
0.0164587
0.0160757
0.0156432
0.015165
0.0146583
0.0141403
0.0136253
0.0131273
0.0126621
0.0122469
0.0118964
0.0116171
0.0114002
0.0112181
0.0110108
0.0106947
0.0101524
0.00924663
0.0078612
0.0058639
0.00330641
9.10973e-05
-0.00375343
-0.00815338
-0.0128401
-0.0174178
-0.0224241
-0.0260168
0.0207761
0.0207089
0.0206376
0.0205622
0.0204833
0.0204
0.0203136
0.020223
0.0201297
0.0200321
0.0199324
0.0198283
0.0197223
0.0196113
0.0194983
0.019379
0.019257
0.0191274
0.0189939
0.0188512
0.0187028
0.018544
0.0183783
0.0182002
0.0180092
0.0177977
0.0175637
0.0173024
0.0170132
0.0166955
0.0163503
0.0159825
0.0155885
0.0151537
0.0146625
0.0141194
0.0135394
0.0129376
0.0123262
0.0117165
0.0111216
0.0105564
0.0100336
0.00955855
0.00912352
0.00870391
0.00824652
0.00767694
0.00688954
0.0057598
0.00417992
0.00202923
-0.000640514
-0.00392202
-0.00780014
-0.0122034
-0.0168821
-0.0214377
-0.0264945
-0.030088
0.0203121
0.0202455
0.0201744
0.0200988
0.0200193
0.0199348
0.0198466
0.0197536
0.0196574
0.0195564
0.0194528
0.0193443
0.0192334
0.0191168
0.0189976
0.0188714
0.0187414
0.018603
0.0184594
0.0183054
0.0181442
0.0179709
0.017789
0.0175927
0.0173813
0.0171473
0.0168881
0.0165989
0.0162789
0.0159267
0.0155431
0.015132
0.0146907
0.0142017
0.013652
0.0130434
0.0123899
0.0117048
0.0109981
0.010279
0.0095582
0.00884807
0.00815949
0.00749667
0.00685243
0.00620482
0.00550614
0.00469069
0.00366221
0.0023096
0.000531962
-0.00177977
-0.00457149
-0.00793121
-0.0118578
-0.0162802
-0.020967
-0.0255177
-0.0306336
-0.0342518
0.0198239
0.0197565
0.0196845
0.019608
0.0195274
0.0194418
0.0193523
0.0192577
0.0191593
0.0190559
0.0189491
0.0188367
0.0187212
0.0185993
0.0184738
0.0183405
0.0182024
0.0180547
0.0179008
0.0177351
0.0175609
0.0173731
0.017175
0.0169606
0.0167292
0.0164727
0.0161885
0.0158713
0.01552
0.0151328
0.0147101
0.0142554
0.0137643
0.0132217
0.0126115
0.0119365
0.0112086
0.0104393
0.00963691
0.0088084
0.00796233
0.00710899
0.00625751
0.00541117
0.00456323
0.00369413
0.00276128
0.00170662
0.00044329
-0.001129
-0.0031041
-0.00557986
-0.00850144
-0.0119517
-0.0159383
-0.0203922
-0.0250987
-0.0296575
-0.0348357
-0.0384922
0.0192926
0.0192258
0.0191548
0.0190793
0.0189996
0.0189145
0.0188251
0.01873
0.0186307
0.0185255
0.0184164
0.018301
0.0181818
0.0180552
0.0179244
0.0177846
0.017639
0.0174828
0.0173191
0.0171423
0.0169554
0.0167535
0.0165393
0.0163071
0.0160556
0.0157768
0.0154674
0.0151219
0.0147388
0.014316
0.0138532
0.0133533
0.0128126
0.0122134
0.0115419
0.0107987
0.00999483
0.00913995
0.00824079
0.00730245
0.00633146
0.00533619
0.00432412
0.00329759
0.00225014
0.00116426
1.76912e-06
-0.00128814
-0.00278466
-0.00457665
-0.00675233
-0.00939808
-0.0124569
-0.0160067
-0.0200643
-0.0245612
-0.0292978
-0.0338751
-0.039119
-0.0428286
0.0187865
0.0187171
0.0186432
0.0185645
0.0184814
0.0183929
0.0182999
0.0182012
0.018098
0.0179888
0.0178752
0.017755
0.0176303
0.0174979
0.0173604
0.0172132
0.0170594
0.016894
0.01672
0.0165318
0.016332
0.0161157
0.0158854
0.0156353
0.0153637
0.0150623
0.0147275
0.0143533
0.0139377
0.0134784
0.0129746
0.0124287
0.0118355
0.0111796
0.0104444
0.00963125
0.00874933
0.00780682
0.0068089
0.00575888
0.00466148
0.00352338
0.00235063
0.00114482
-0.000100191
-0.0014
-0.00278844
-0.0043098
-0.00603534
-0.0080449
-0.0104208
-0.0132386
-0.0164407
-0.0200993
-0.0242364
-0.0287848
-0.0335588
-0.0381619
-0.0434715
-0.0472418
0.0182498
0.0181794
0.0181042
0.0180239
0.017939
0.0178481
0.0177525
0.0176506
0.0175439
0.0174308
0.0173131
0.0171883
0.0170588
0.0169209
0.0167775
0.0166237
0.0164624
0.0162884
0.0161048
0.0159055
0.0156932
0.0154627
0.0152164
0.0149483
0.0146566
0.0143324
0.0139716
0.013568
0.0131192
0.0126224
0.0120763
0.0114826
0.0108367
0.0101208
0.00932056
0.00843515
0.0074729
0.00644053
0.0053418
0.00417841
0.00295339
0.00167189
0.000338629
-0.00104555
-0.00248653
-0.00399817
-0.00561047
-0.00736137
-0.00931569
-0.0115435
-0.0141229
-0.0171181
-0.0204693
-0.0242443
-0.0284698
-0.0330786
-0.0378975
-0.0425331
-0.04791
-0.0517504
0.0177052
0.0176324
0.017555
0.0174725
0.0173855
0.0172926
0.0171948
0.0170907
0.0169814
0.0168654
0.0167442
0.0166154
0.0164812
0.0163379
0.0161883
0.0160274
0.0158579
0.0156749
0.0154809
0.01527
0.0150446
0.0147994
0.0145366
0.01425
0.0139376
0.0135901
0.0132027
0.0127689
0.0122859
0.0117504
0.0111608
0.0105181
0.00981645
0.00904003
0.00817202
0.0072122
0.00616721
0.00504239
0.00384017
0.00256072
0.00120556
-0.000221516
-0.0017169
-0.00328031
-0.00491729
-0.00663998
-0.00847448
-0.0104529
-0.0126332
-0.0150778
-0.0178604
-0.0210347
-0.0245403
-0.0284393
-0.0327598
-0.0374354
-0.042304
-0.0469762
-0.0524192
-0.0563339
0.0171337
0.0170606
0.0169835
0.0169014
0.0168147
0.0167218
0.0166237
0.0165187
0.0164081
0.01629
0.0161662
0.016034
0.0158957
0.0157475
0.0155921
0.0154244
0.0152471
0.015055
0.0148507
0.0146281
0.0143893
0.014129
0.0138492
0.0135437
0.0132099
0.0128384
0.0124237
0.0119587
0.0114404
0.0108649
0.0102302
0.00953653
0.00877855
0.00793824
0.00700073
0.00596398
0.00483367
0.00361381
0.00230561
0.000907856
-0.000579368
-0.00215349
-0.00381194
-0.00555496
-0.0073878
-0.00932094
-0.011377
-0.0135822
-0.0159893
-0.018652
-0.0216414
-0.0250001
-0.0286655
-0.0326952
-0.0371186
-0.0418684
-0.0467925
-0.051506
-0.0570158
-0.0610108
0.0166139
0.0165372
0.0164557
0.0163692
0.0162779
0.0161804
0.0160775
0.0159678
0.0158522
0.015729
0.0155998
0.0154619
0.0153173
0.0151623
0.0149994
0.0148236
0.0146371
0.0144349
0.0142193
0.0139841
0.0137313
0.0134553
0.0131578
0.0128327
0.0124769
0.0120805
0.0116374
0.0111402
0.0105853
0.0099684
0.00928709
0.00854092
0.00772349
0.00681844
0.00580864
0.00469259
0.00347436
0.00215666
0.00073953
-0.000779566
-0.00240184
-0.00412579
-0.0059497
-0.00787422
-0.00990416
-0.0120483
-0.0143256
-0.0167569
-0.019389
-0.0222691
-0.025465
-0.0290097
-0.0328404
-0.0370077
-0.0415395
-0.0463682
-0.0513511
-0.0561081
-0.0616825
-0.0657599
0.0160818
0.0160032
0.0159197
0.0158307
0.0157365
0.0156357
0.0155292
0.0154152
0.015295
0.0151668
0.0150323
0.0148887
0.0147381
0.0145766
0.0144066
0.0142228
0.0140275
0.0138154
0.0135886
0.0133408
0.0130736
0.0127814
0.0124658
0.0121203
0.0117416
0.0113194
0.0108469
0.0103161
0.00972317
0.0090634
0.00833366
0.00753295
0.00665507
0.00568184
0.00459784
0.00339985
0.00209101
0.000672796
-0.000855859
-0.00249874
-0.00425827
-0.00613397
-0.00812491
-0.0102321
-0.0124599
-0.0148154
-0.0173145
-0.0199721
-0.022831
-0.0259299
-0.0293371
-0.0330735
-0.0370745
-0.0413861
-0.0460337
-0.0509479
-0.0559941
-0.0607979
-0.0664369
-0.0706001
0.0155601
0.0154782
0.0153914
0.0152993
0.0152022
0.0150983
0.0149887
0.0148714
0.0147476
0.0146153
0.0144762
0.0143274
0.0141707
0.0140024
0.0138246
0.0136323
0.0134272
0.0132042
0.0129652
0.0127037
0.0124211
0.0121118
0.0117769
0.01141
0.0110073
0.0105582
0.0100549
0.00948917
0.0088567
0.00815226
0.00737243
0.00651536
0.00557397
0.00453147
0.00337044
0.00208811
0.00068607
-0.000835458
-0.00247861
-0.00424839
-0.00614835
-0.00817892
-0.0103398
-0.0126322
-0.01506
-0.0176286
-0.0203499
-0.0232347
-0.0263194
-0.0296379
-0.0332548
-0.0371855
-0.0413631
-0.0458255
-0.0505938
-0.055597
-0.0607087
-0.0655599
-0.0712605
-0.07551
0.0150271
0.0149445
0.0148575
0.0147652
0.0146678
0.0145634
0.0144527
0.0143336
0.0142075
0.014072
0.0139291
0.0137755
0.0136134
0.0134386
0.0132535
0.0130524
0.0128375
0.0126033
0.0123516
0.0120758
0.011777
0.0114496
0.0110944
0.0107049
0.0102771
0.00979959
0.00926406
0.0086619
0.0079882
0.00723743
0.00640547
0.00548996
0.00448386
0.00336878
0.00212876
0.000759506
-0.000738345
-0.00236579
-0.00412599
-0.00602514
-0.00806792
-0.0102555
-0.0125883
-0.0150677
-0.0176971
-0.0204798
-0.0234251
-0.0265379
-0.0298515
-0.0333911
-0.0372241
-0.0413546
-0.0457144
-0.0503347
-0.0552305
-0.0603286
-0.0655092
-0.0704103
-0.0761716
-0.0805086
0.0145692
0.0144818
0.0143894
0.0142914
0.014188
0.0140775
0.0139606
0.0138353
0.0137027
0.0135606
0.0134106
0.0132497
0.0130795
0.0128962
0.0127015
0.0124903
0.012264
0.0120173
0.0117517
0.0114604
0.0111444
0.0107978
0.0104211
0.0100078
0.0095534
0.00904618
0.00847694
0.00783664
0.00712005
0.00632101
0.00543523
0.00445936
0.00338566
0.00219683
0.000875172
-0.000583275
-0.00217939
-0.00391542
-0.0057956
-0.00782725
-0.0100162
-0.0123642
-0.0148723
-0.017542
-0.0203758
-0.0233755
-0.0265462
-0.0298894
-0.0334316
-0.0371948
-0.0412403
-0.0455755
-0.0501246
-0.054909
-0.0599366
-0.065132
-0.0703827
-0.0753323
-0.0811505
-0.0855742
0.0141166
0.0140267
0.0139314
0.01383
0.0137228
0.0136078
0.0134858
0.0133549
0.0132161
0.0130673
0.0129102
0.0127417
0.0125635
0.0123713
0.0121673
0.0119455
0.0117076
0.0114479
0.0111678
0.0108603
0.010526
0.0101591
0.0097597
0.00932119
0.00883885
0.00830035
0.00769573
0.00701561
0.00625427
0.00540527
0.00446354
0.00342541
0.00228288
0.00101736
-0.000387738
-0.00193778
-0.00363459
-0.00548173
-0.00748438
-0.00965119
-0.0119887
-0.0144999
-0.0171856
-0.0200481
-0.0230884
-0.0263073
-0.0297057
-0.0332819
-0.0370564
-0.0410454
-0.0453116
-0.049856
-0.0546008
-0.0595568
-0.0647229
-0.0700206
-0.0753437
-0.0803434
-0.0862163
-0.0907261
0.0136936
0.0135995
0.0135002
0.0133947
0.0132834
0.0131641
0.0130377
0.0129019
0.0127578
0.0126031
0.0124392
0.0122632
0.0120764
0.0118749
0.0116601
0.0114267
0.0111756
0.0109014
0.0106051
0.0102797
0.00992553
0.0095366
0.00911284
0.00864751
0.00813555
0.00756407
0.00692238
0.00620063
0.00539284
0.00449191
0.00349272
0.00239045
0.00117668
-0.000166567
-0.00165742
-0.00330106
-0.00510093
-0.00706176
-0.00918995
-0.0114951
-0.0139849
-0.0166628
-0.0195303
-0.0225893
-0.02584
-0.0292816
-0.0329108
-0.0367233
-0.0407312
-0.04495
-0.0494325
-0.0541929
-0.0591409
-0.0642743
-0.0695822
-0.0749837
-0.0803792
-0.085426
-0.0913487
-0.0959426
0.0132775
0.0131824
0.0130824
0.0129762
0.0128637
0.0127427
0.0126139
0.0124746
0.0123262
0.0121661
0.0119959
0.0118123
0.011617
0.0114055
0.0111797
0.0109335
0.0106685
0.0103784
0.0100648
0.00971998
0.00934437
0.00893182
0.00848207
0.00798825
0.00744498
0.00683886
0.00615835
0.00539329
0.00453722
0.00358284
0.00252418
0.0013563
7.01934e-05
-0.00135314
-0.00293132
-0.00467071
-0.00657605
-0.00865312
-0.0109096
-0.0133558
-0.016001
-0.0188485
-0.0219007
-0.0251592
-0.0286235
-0.0322908
-0.0361546
-0.0402067
-0.0444534
-0.0489051
-0.0536143
-0.0585938
-0.0637515
-0.0690696
-0.0745251
-0.0800345
-0.0855039
-0.090598
-0.0965674
-0.101243
0.0129613
0.0128604
0.0127535
0.0126397
0.0125191
0.0123897
0.0122519
0.0121037
0.0119456
0.0117756
0.0115947
0.0114001
0.0111927
0.0109686
0.0107289
0.0104682
0.0101868
0.0098795
0.00954668
0.00918116
0.00878262
0.00834511
0.00786788
0.00734411
0.00676801
0.00612565
0.00540473
0.00459468
0.00368881
0.00267917
0.00155991
0.00032475
-0.00103547
-0.00253988
-0.00420719
-0.00604444
-0.00805738
-0.0102537
-0.0126414
-0.0152325
-0.0180366
-0.0210581
-0.0242993
-0.027762
-0.0314442
-0.0353419
-0.0394441
-0.0437408
-0.0482286
-0.0529192
-0.0578513
-0.0630597
-0.0684333
-0.0739398
-0.0795451
-0.0851625
-0.0907041
-0.095841
-0.101851
-0.106605
0.0126578
0.0125537
0.0124428
0.0123241
0.0121979
0.0120618
0.0119165
0.0117596
0.0115922
0.011412
0.0112204
0.0110141
0.0107945
0.0105571
0.0103035
0.0100273
0.00972929
0.00940363
0.00905094
0.00866344
0.00824085
0.00777698
0.0072709
0.0067157
0.00610524
0.00542511
0.00466217
0.00380564
0.00284834
0.00178224
0.000600607
-0.000702793
-0.00213823
-0.00372549
-0.0054835
-0.00742057
-0.00954381
-0.011862
-0.014384
-0.0171229
-0.0200893
-0.0232881
-0.0267219
-0.0303923
-0.0342966
-0.0384285
-0.0427743
-0.0473201
-0.0520562
-0.0569902
-0.0621577
-0.0675961
-0.0731914
-0.0788928
-0.0846526
-0.0903811
-0.0959952
-0.101174
-0.10722
-0.112048
0.0123846
0.0122753
0.012159
0.0120347
0.0119025
0.01176
0.0116078
0.0114435
0.0112677
0.0110783
0.0108765
0.0106589
0.0104266
0.0101756
0.00990664
0.00961404
0.00929781
0.00895259
0.00857834
0.00816752
0.00771931
0.00722764
0.00669117
0.00610301
0.00545669
0.00473724
0.00393084
0.00302628
0.0020163
0.0008922
-0.000352546
-0.00172578
-0.0032378
-0.00490862
-0.00675936
-0.00879818
-0.0110344
-0.0134772
-0.016137
-0.0190272
-0.0221601
-0.0255404
-0.0291717
-0.0330547
-0.0371863
-0.0415579
-0.0461524
-0.0509531
-0.0559417
-0.0611268
-0.0665284
-0.0722075
-0.0780288
-0.0839265
-0.0898414
-0.0956798
-0.101363
-0.106577
-0.112652
-0.117551
0.0121103
0.0119994
0.0118817
0.0117556
0.0116211
0.0114754
0.0113189
0.0111488
0.0109663
0.0107685
0.0105572
0.0103286
0.0100842
0.00981907
0.00953501
0.00922518
0.00889034
0.00852434
0.00812767
0.0076921
0.00721702
0.00669607
0.0061278
0.00550521
0.00482157
0.0040614
0.0032101
0.00225628
0.00119226
9.31361e-06
-0.00130014
-0.00274394
-0.00433333
-0.00608997
-0.00803466
-0.0101779
-0.0125293
-0.0150998
-0.0178999
-0.0209449
-0.0242473
-0.0278131
-0.0316457
-0.0357459
-0.0401091
-0.0447257
-0.0495745
-0.0546367
-0.0598856
-0.0653292
-0.0709779
-0.0768974
-0.0829494
-0.0890483
-0.0951215
-0.101072
-0.106823
-0.112071
-0.118168
-0.123133
0.011936
0.0118178
0.0116913
0.0115556
0.0114106
0.011254
0.0110859
0.0109041
0.0107089
0.0104983
0.010273
0.0100301
0.00976996
0.00948879
0.00918689
0.0088586
0.00850322
0.00811563
0.00769516
0.0072341
0.00673099
0.00617981
0.00557857
0.00492038
0.0041982
0.00339606
0.00249871
0.00149443
0.000375499
-0.000867619
-0.00224236
-0.00375818
-0.00542663
-0.00726992
-0.00931096
-0.0115605
-0.0140296
-0.0167302
-0.0196738
-0.0228768
-0.026353
-0.0301088
-0.0341477
-0.0384705
-0.0430714
-0.0479388
-0.0530483
-0.0583783
-0.0638939
-0.0696041
-0.0755024
-0.0816734
-0.0879578
-0.0942569
-0.100487
-0.106546
-0.112361
-0.117634
-0.123747
-0.128773
0.0117594
0.0116372
0.0115058
0.0113641
0.011212
0.011047
0.0108696
0.010677
0.0104702
0.0102468
0.0100082
0.00975066
0.0094753
0.00917745
0.00885814
0.0085106
0.00813469
0.00772447
0.00727966
0.00679184
0.00625969
0.00567695
0.00504149
0.00434642
0.00358447
0.00273923
0.00179472
0.000739104
-0.000435848
-0.00173982
-0.00318139
-0.00477005
-0.00651877
-0.00845091
-0.0105899
-0.0129477
-0.0155365
-0.0183694
-0.021459
-0.0248231
-0.0284765
-0.0324263
-0.0366761
-0.0412263
-0.0460702
-0.0511944
-0.0565713
-0.0621762
-0.0679678
-0.073953
-0.0801139
-0.0865359
-0.0930561
-0.0995587
-0.105948
-0.112116
-0.117992
-0.123287
-0.129408
-0.134489
0.011601
0.0114732
0.0113358
0.0111878
0.011029
0.0108567
0.0106713
0.0104698
0.010253
0.0100184
0.00976707
0.00949558
0.00920439
0.00888951
0.0085511
0.00818318
0.0077846
0.00735025
0.00687902
0.00636288
0.00579993
0.00518418
0.00451312
0.00377997
0.00297723
0.00208796
0.00109555
-1.22467e-05
-0.00124383
-0.0026098
-0.00411868
-0.00578175
-0.00761211
-0.00963395
-0.0118726
-0.0143402
-0.0170506
-0.020018
-0.0232565
-0.0267851
-0.03062
-0.0347686
-0.0392348
-0.0440184
-0.0491117
-0.0544993
-0.0601505
-0.0660375
-0.0721124
-0.0783812
-0.0848099
-0.091493
-0.0982493
-0.104953
-0.111499
-0.117771
-0.123701
-0.129009
-0.13513
-0.140261
0.0114589
0.01133
0.0111913
0.0110407
0.0108779
0.0106996
0.0105064
0.0102951
0.0100667
0.00981864
0.00955242
0.00926417
0.00895513
0.00862037
0.00826105
0.00787004
0.00744706
0.00698618
0.00648695
0.00594064
0.00534561
0.00469566
0.00398815
0.00321629
0.00237228
0.0014387
0.000398053
-0.0007621
-0.00205085
-0.00347899
-0.00505625
-0.00679398
-0.00870664
-0.0108199
-0.0131591
-0.0157382
-0.018572
-0.0216762
-0.0250662
-0.0287626
-0.0327829
-0.0371348
-0.0418224
-0.0468449
-0.0521938
-0.0578514
-0.0637844
-0.0699611
-0.0763289
-0.0828898
-0.0895979
-0.096542
-0.103537
-0.110444
-0.117148
-0.123524
-0.129505
-0.134821
-0.140935
-0.14611
0.0114753
0.0113298
0.0111686
0.010993
0.0108038
0.0105999
0.0103815
0.0101467
0.00989544
0.00962598
0.00933846
0.00902985
0.0086995
0.00834377
0.00796181
0.00754801
0.00710014
0.00661375
0.00608686
0.00551157
0.00488523
0.00420217
0.00345911
0.00264947
0.00176503
0.000787848
-0.000300347
-0.00151243
-0.00285776
-0.00434818
-0.00599333
-0.00780645
-0.00980215
-0.012007
-0.0144486
-0.0171407
-0.0200999
-0.0233437
-0.0268884
-0.0307566
-0.0349669
-0.0395277
-0.0444427
-0.0497108
-0.0553222
-0.061257
-0.0674792
-0.0739532
-0.0806215
-0.0874831
-0.0944765
-0.101691
-0.108925
-0.116033
-0.12289
-0.129364
-0.135386
-0.1407
-0.146798
-0.152012
0.0111083
0.0109735
0.0108274
0.0106674
0.0104929
0.0103005
0.0100909
0.00986048
0.00961082
0.00933897
0.00904683
0.00873003
0.00838981
0.00802104
0.00762453
0.00719317
0.00672602
0.00621764
0.00566694
0.00506534
0.00441054
0.0036967
0.00292044
0.00207515
0.00115227
0.000133309
-0.00100085
-0.00226333
-0.00366428
-0.00521584
-0.00692901
-0.00881695
-0.010896
-0.0131941
-0.015739
-0.0185461
-0.0216331
-0.0250191
-0.0287221
-0.032766
-0.0371711
-0.0419459
-0.0470942
-0.0526142
-0.0584949
-0.0647142
-0.0712334
-0.0780128
-0.0849905
-0.0921608
-0.0994493
-0.106934
-0.114411
-0.121722
-0.128733
-0.135302
-0.141363
-0.14667
-0.152743
-0.157991
0.0109473
0.0107956
0.0106294
0.010449
0.0102543
0.0100437
0.00981699
0.0095719
0.00930829
0.00902418
0.00871963
0.00839134
0.00803848
0.00765715
0.00724629
0.00680003
0.00631575
0.00578916
0.00521801
0.00459424
0.00391479
0.00317413
0.00236835
0.00149087
0.000532735
-0.000525229
-0.00170282
-0.00301365
-0.00446832
-0.00608018
-0.00786006
-0.00982326
-0.0119861
-0.0143775
-0.0170276
-0.0199517
-0.0231692
-0.0267009
-0.0305663
-0.034791
-0.0393964
-0.0443915
-0.04978
-0.0555593
-0.061717
-0.0682288
-0.0750526
-0.0821454
-0.08944
-0.0969268
-0.104516
-0.11228
-0.12
-0.127513
-0.134672
-0.14133
-0.147418
-0.152706
-0.158746
-0.164021
0.010438
0.0102938
0.0101395
0.00997219
0.00979081
0.00959151
0.00937459
0.00913629
0.00887785
0.00859617
0.00829296
0.0079635
0.00760871
0.00722308
0.00680703
0.00635295
0.00585941
0.00532082
0.00473579
0.00409529
0.00339667
0.00263396
0.00180323
0.000897651
-9.20654e-05
-0.00118573
-0.00240394
-0.0037606
-0.0052673
-0.00693766
-0.00878403
-0.0108215
-0.0130683
-0.0155546
-0.018311
-0.0213545
-0.0247057
-0.0283869
-0.0324191
-0.0368295
-0.041641
-0.0468628
-0.0524982
-0.0585439
-0.0649862
-0.0717983
-0.078935
-0.0863491
-0.093969
-0.10178
-0.109678
-0.117722
-0.125689
-0.133406
-0.140715
-0.147457
-0.153569
-0.158832
-0.16483
-0.170128
0.0101922
0.0100256
0.00984514
0.00965196
0.00944525
0.00922376
0.00898675
0.00873202
0.00845906
0.00816588
0.00785224
0.00751458
0.00715164
0.00675909
0.00633544
0.00587408
0.0053719
0.00482408
0.00422803
0.00357485
0.00286106
0.00208069
0.00122919
0.000299503
-0.000718116
-0.00184426
-0.00310022
-0.00450041
-0.00605692
-0.0077847
-0.00969596
-0.0118081
-0.014139
-0.0167208
-0.0195857
-0.0227511
-0.0262395
-0.0300747
-0.0342789
-0.0388812
-0.0439054
-0.0493612
-0.0552513
-0.0615717
-0.068307
-0.0754278
-0.0828856
-0.0906291
-0.0985815
-0.106723
-0.114935
-0.123267
-0.131484
-0.139403
-0.146856
-0.153674
-0.159796
-0.165024
-0.170971
-0.176286
0.00953943
0.00937802
0.0092089
0.0090297
0.00883883
0.00863241
0.00841016
0.00816804
0.00790684
0.0076231
0.00731824
0.00698692
0.00662982
0.0062407
0.00581979
0.00535859
0.00485534
0.00430378
0.00370231
0.00304085
0.00231632
0.0015221
0.000653559
-0.000296834
-0.00133921
-0.00249501
-0.00378626
-0.00522761
-0.00683233
-0.00861578
-0.0105918
-0.0127776
-0.0151935
-0.0178723
-0.0208476
-0.0241382
-0.0277676
-0.0317615
-0.0361432
-0.0409434
-0.0461872
-0.0518841
-0.0580367
-0.0646398
-0.0716764
-0.0791144
-0.0869018
-0.0949827
-0.103276
-0.111755
-0.120288
-0.12891
-0.137381
-0.145505
-0.153101
-0.159992
-0.16612
-0.171307
-0.177194
-0.182522
0.00911559
0.00894139
0.00876079
0.00857216
0.00837289
0.00816023
0.00793229
0.00768599
0.00742036
0.00713321
0.00682425
0.00648989
0.00612883
0.00573667
0.00531184
0.00484736
0.00433977
0.00378386
0.00317668
0.00250829
0.00177463
0.000968898
8.56979e-05
-0.000882924
-0.00194768
-0.0031309
-0.00445522
-0.00593599
-0.00758723
-0.00942578
-0.0114654
-0.0137259
-0.0162273
-0.0190044
-0.0220928
-0.0255117
-0.0292866
-0.0334445
-0.03801
-0.0430152
-0.0484862
-0.0544328
-0.0608565
-0.0677514
-0.0750984
-0.0828627
-0.0909884
-0.0994151
-0.108055
-0.116879
-0.125739
-0.134658
-0.143385
-0.151713
-0.159446
-0.166399
-0.172521
-0.177655
-0.183473
-0.188809
0.00871948
0.00853198
0.00833647
0.00813305
0.00791936
0.00769333
0.00745345
0.00719687
0.00692312
0.0066296
0.00631667
0.00597937
0.00561742
0.00522459
0.00480034
0.00433563
0.00382792
0.00327038
0.00266072
0.00198766
0.00124731
0.000432055
-0.000463798
-0.00144883
-0.00253426
-0.00374321
-0.00509915
-0.00661796
-0.00831509
-0.0102078
-0.0123118
-0.0146467
-0.017235
-0.0201128
-0.0233169
-0.026868
-0.0307931
-0.0351207
-0.0398764
-0.0450937
-0.0507997
-0.057004
-0.0637075
-0.070903
-0.0785696
-0.0866692
-0.095142
-0.103923
-0.112918
-0.122092
-0.131285
-0.140503
-0.149492
-0.158027
-0.165898
-0.172909
-0.179019
-0.184093
-0.189836
-0.195176
0.00831354
0.00811905
0.0079167
0.00770632
0.00748628
0.00725413
0.00700862
0.00674667
0.00646769
0.00616938
0.00585166
0.00551056
0.00514462
0.00474895
0.00432166
0.00385487
0.00334458
0.00278474
0.00217185
0.00149454
0.000747992
-7.57463e-05
-0.000983158
-0.00198337
-0.00308829
-0.00432206
-0.00570881
-0.00726522
-0.00900763
-0.010955
-0.013123
-0.0155344
-0.0182112
-0.0211919
-0.0245154
-0.0282031
-0.0322837
-0.0367874
-0.0417405
-0.0471778
-0.0531275
-0.0595988
-0.0665917
-0.0740977
-0.0820937
-0.0905385
-0.0993676
-0.108511
-0.117868
-0.127399
-0.13693
-0.146456
-0.155709
-0.164449
-0.172449
-0.179507
-0.185593
-0.190597
-0.196256
-0.201595
0.00780674
0.00761207
0.00741131
0.00720371
0.00698699
0.00675845
0.0065168
0.00625863
0.00598386
0.00568956
0.00537665
0.00503962
0.00467864
0.00428685
0.00386399
0.00340004
0.00289238
0.00233331
0.00172025
0.00104045
0.000289378
-0.000541776
-0.00145977
-0.00247441
-0.00359821
-0.0048564
-0.00627388
-0.0078678
-0.00965617
-0.0116585
-0.0138928
-0.0163814
-0.0191498
-0.0222371
-0.0256839
-0.0295133
-0.0337552
-0.0384414
-0.0435992
-0.0492644
-0.0554664
-0.0622136
-0.0695053
-0.0773316
-0.0856667
-0.0944664
-0.103661
-0.113175
-0.122901
-0.132796
-0.142671
-0.152509
-0.162031
-0.170979
-0.179107
-0.186208
-0.192264
-0.197193
-0.20276
-0.208095
0.00735442
0.00715931
0.00695941
0.00675361
0.00654007
0.00631568
0.00607891
0.00582608
0.00555647
0.00526748
0.00495904
0.00462691
0.00426952
0.00388174
0.00346157
0.00300057
0.00249443
0.00193658
0.00132315
0.000641526
-0.000113762
-0.000951776
-0.00188004
-0.00290892
-0.00405157
-0.00533443
-0.00678307
-0.00841553
-0.0102509
-0.0123105
-0.0146124
-0.0171824
-0.0200454
-0.023243
-0.0268182
-0.0307945
-0.035204
-0.04008