/*--------------------------------*- C++ -*----------------------------------*\
  =========                 |
  \\      /  F ield         | OpenFOAM: The Open Source CFD Toolbox
   \\    /   O peration     | Website:  https://openfoam.org
    \\  /    A nd           | Version:  6.0
     \\/     M anipulation  |
\*---------------------------------------------------------------------------*/
FoamFile
{
    version     2.0;
    format      ascii;
    class       volScalarField;
    location    "3.72";
    object      p;
}
// * * * * * * * * * * * * * * * * * * * * * * * * * * * * * * * * * * * * * //

dimensions      [0 2 -2 0 0 0 0];

internalField   nonuniform List<scalar> 
13500
(
0.098247
0.098381
0.09776
0.097507
0.096178
0.096035
0.094631
0.095497
0.0964
0.0995
0.12256
0.16396
0.098247
0.098381
0.09776
0.097508
0.096178
0.096036
0.094629
0.095498
0.096396
0.099561
0.12188
0.1589
0.098247
0.098382
0.09776
0.097509
0.096177
0.096037
0.094627
0.095497
0.096388
0.099604
0.12101
0.15441
0.098248
0.098383
0.09776
0.097511
0.096176
0.096039
0.094622
0.095496
0.096374
0.099623
0.12003
0.1509
0.098249
0.098385
0.097761
0.097513
0.096175
0.096041
0.094618
0.095493
0.096354
0.099627
0.11899
0.14793
0.098251
0.098387
0.097762
0.097516
0.096174
0.096042
0.094612
0.09549
0.096329
0.099619
0.11792
0.14528
0.098253
0.09839
0.097764
0.097519
0.096173
0.096044
0.094607
0.095486
0.0963
0.099598
0.11684
0.14288
0.098256
0.098393
0.097766
0.097522
0.096173
0.096045
0.0946
0.09548
0.096265
0.099563
0.11577
0.14068
0.098259
0.098397
0.097768
0.097525
0.096172
0.096047
0.094593
0.095474
0.096226
0.099514
0.11471
0.13863
0.098263
0.0984
0.097771
0.097529
0.096172
0.096048
0.094585
0.095467
0.096181
0.099452
0.1137
0.13673
0.098267
0.098405
0.097774
0.097533
0.096172
0.09605
0.094577
0.095459
0.096131
0.099377
0.11272
0.13494
0.098272
0.09841
0.097778
0.097537
0.096172
0.096051
0.094568
0.09545
0.096075
0.09929
0.11178
0.13325
0.098277
0.098415
0.097782
0.097542
0.096173
0.096053
0.094559
0.09544
0.096015
0.099193
0.11088
0.13165
0.098282
0.098421
0.097786
0.097547
0.096173
0.096054
0.094549
0.095429
0.095948
0.099086
0.11002
0.13013
0.098288
0.098427
0.097791
0.097552
0.096174
0.096055
0.094538
0.095417
0.095877
0.098972
0.10921
0.12868
0.098295
0.098433
0.097796
0.097558
0.096175
0.096057
0.094527
0.095404
0.0958
0.098852
0.10843
0.1273
0.098302
0.098441
0.097802
0.097564
0.096176
0.096058
0.094515
0.09539
0.095717
0.098726
0.10769
0.12598
0.098309
0.098448
0.097808
0.09757
0.096177
0.096059
0.094503
0.095375
0.09563
0.098598
0.10698
0.12471
0.098317
0.098456
0.097814
0.097577
0.096179
0.096061
0.09449
0.095359
0.095537
0.098467
0.10629
0.12348
0.098326
0.098465
0.097822
0.097584
0.09618
0.096062
0.094476
0.095341
0.095439
0.098335
0.10563
0.1223
0.098335
0.098474
0.097829
0.097591
0.096182
0.096063
0.094462
0.095323
0.095336
0.098202
0.10499
0.12117
0.098345
0.098483
0.097837
0.097599
0.096184
0.096064
0.094448
0.095303
0.095228
0.09807
0.10437
0.12006
0.098355
0.098493
0.097845
0.097607
0.096186
0.096066
0.094432
0.095282
0.095117
0.097939
0.10376
0.119
0.098366
0.098503
0.097854
0.097615
0.096189
0.096067
0.094416
0.095259
0.095001
0.097809
0.10317
0.11796
0.098377
0.098514
0.097863
0.097624
0.096191
0.096068
0.0944
0.095236
0.094882
0.097681
0.10259
0.11695
0.098389
0.098526
0.097873
0.097633
0.096194
0.096069
0.094383
0.09521
0.094759
0.097555
0.10201
0.11596
0.098401
0.098538
0.097883
0.097642
0.096197
0.09607
0.094366
0.095184
0.094633
0.09743
0.10145
0.115
0.098414
0.09855
0.097894
0.097652
0.0962
0.096071
0.094348
0.095156
0.094505
0.097307
0.10089
0.11406
0.098427
0.098563
0.097905
0.097662
0.096204
0.096073
0.094329
0.095127
0.094375
0.097186
0.10034
0.11315
0.098441
0.098577
0.097917
0.097673
0.096208
0.096074
0.09431
0.095096
0.094242
0.097066
0.099798
0.11225
0.098456
0.098591
0.097929
0.097684
0.096211
0.096075
0.09429
0.095063
0.094109
0.096947
0.099258
0.11137
0.098471
0.098606
0.097942
0.097695
0.096216
0.096076
0.09427
0.09503
0.093974
0.096829
0.098723
0.1105
0.098487
0.098621
0.097955
0.097707
0.09622
0.096077
0.094249
0.094995
0.093838
0.096711
0.098193
0.10966
0.098503
0.098636
0.097969
0.097719
0.096225
0.096078
0.094228
0.094958
0.093701
0.096594
0.097666
0.10882
0.09852
0.098653
0.097983
0.097731
0.09623
0.096079
0.094206
0.09492
0.093564
0.096476
0.097145
0.10801
0.098537
0.098669
0.097998
0.097744
0.096235
0.09608
0.094183
0.094881
0.093428
0.096359
0.096628
0.10721
0.098555
0.098687
0.098013
0.097757
0.09624
0.096081
0.09416
0.094841
0.093291
0.09624
0.096115
0.10642
0.098574
0.098704
0.098029
0.097771
0.096246
0.096082
0.094136
0.094799
0.093155
0.096121
0.095607
0.10565
0.098593
0.098723
0.098045
0.097785
0.096252
0.096083
0.094112
0.094756
0.093019
0.096
0.095105
0.10489
0.098613
0.098742
0.098062
0.097799
0.096258
0.096084
0.094087
0.094713
0.092884
0.095878
0.094607
0.10415
0.098633
0.098761
0.09808
0.097814
0.096264
0.096085
0.094061
0.094668
0.092749
0.095754
0.094115
0.10341
0.098654
0.098781
0.098098
0.097829
0.096271
0.096086
0.094035
0.094622
0.092615
0.095629
0.093629
0.1027
0.098676
0.098802
0.098116
0.097845
0.096278
0.096087
0.094008
0.094576
0.092483
0.095501
0.093149
0.10199
0.098698
0.098823
0.098135
0.097861
0.096285
0.096088
0.09398
0.094529
0.092351
0.095372
0.092675
0.1013
0.098721
0.098845
0.098155
0.097877
0.096293
0.096089
0.093952
0.094482
0.09222
0.09524
0.092207
0.10062
0.098745
0.098868
0.098175
0.097894
0.0963
0.09609
0.093923
0.094434
0.09209
0.095106
0.091745
0.099951
0.098769
0.098891
0.098196
0.097912
0.096309
0.096091
0.093894
0.094386
0.09196
0.09497
0.09129
0.099296
0.098794
0.098914
0.098217
0.097929
0.096317
0.096092
0.093863
0.094338
0.091832
0.094832
0.090842
0.098653
0.098819
0.098939
0.098239
0.097948
0.096326
0.096093
0.093832
0.09429
0.091704
0.094691
0.090401
0.098022
0.098845
0.098964
0.098261
0.097966
0.096335
0.096094
0.093801
0.094242
0.091576
0.094548
0.089966
0.097403
0.098872
0.098989
0.098284
0.097985
0.096344
0.096095
0.093769
0.094194
0.09145
0.094403
0.089539
0.096795
0.098899
0.099015
0.098308
0.098005
0.096354
0.096096
0.093736
0.094146
0.091323
0.094255
0.089118
0.096198
0.098927
0.099042
0.098332
0.098024
0.096364
0.096097
0.093703
0.094099
0.091197
0.094106
0.088705
0.095613
0.098956
0.099069
0.098357
0.098045
0.096375
0.096098
0.093669
0.094052
0.091071
0.093954
0.088299
0.095038
0.098986
0.099097
0.098382
0.098065
0.096386
0.096098
0.093634
0.094006
0.090945
0.093801
0.087899
0.094474
0.099016
0.099125
0.098408
0.098087
0.096397
0.096099
0.093599
0.09396
0.09082
0.093645
0.087507
0.093921
0.099046
0.099155
0.098435
0.098108
0.096408
0.0961
0.093563
0.093915
0.090694
0.093488
0.087121
0.093377
0.099078
0.099184
0.098462
0.09813
0.09642
0.0961
0.093527
0.09387
0.090568
0.093329
0.086743
0.092843
0.09911
0.099215
0.09849
0.098153
0.096432
0.096101
0.093491
0.093826
0.090442
0.093168
0.086371
0.092319
0.099142
0.099246
0.098518
0.098176
0.096445
0.096102
0.093454
0.093783
0.090315
0.093006
0.086005
0.091805
0.099176
0.099278
0.098548
0.098199
0.096458
0.096102
0.093416
0.093741
0.090188
0.092842
0.085646
0.091299
0.09921
0.09931
0.098577
0.098223
0.096471
0.096103
0.093379
0.0937
0.090061
0.092677
0.085293
0.090802
0.099245
0.099343
0.098608
0.098247
0.096485
0.096103
0.093341
0.093659
0.089933
0.09251
0.084947
0.090314
0.09928
0.099377
0.098638
0.098272
0.096499
0.096103
0.093302
0.093619
0.089804
0.092343
0.084607
0.089834
0.099316
0.099411
0.09867
0.098297
0.096514
0.096104
0.093264
0.09358
0.089676
0.092174
0.084272
0.089362
0.099353
0.099446
0.098702
0.098322
0.096529
0.096104
0.093225
0.093541
0.089546
0.092004
0.083944
0.088898
0.099391
0.099482
0.098735
0.098348
0.096544
0.096104
0.093187
0.093503
0.089416
0.091833
0.083621
0.088442
0.099429
0.099518
0.098769
0.098375
0.09656
0.096105
0.093148
0.093466
0.089286
0.091661
0.083303
0.087993
0.099468
0.099555
0.098803
0.098402
0.096576
0.096105
0.093109
0.093429
0.089155
0.091489
0.082991
0.087551
0.099508
0.099593
0.098838
0.098429
0.096593
0.096105
0.09307
0.093393
0.089024
0.091316
0.082684
0.087116
0.099548
0.099631
0.098873
0.098457
0.09661
0.096106
0.093031
0.093357
0.088892
0.091142
0.082382
0.086687
0.099589
0.09967
0.098909
0.098485
0.096627
0.096106
0.092992
0.093322
0.08876
0.090967
0.082085
0.086265
0.099631
0.09971
0.098946
0.098514
0.096645
0.096107
0.092953
0.093287
0.088628
0.090792
0.081793
0.085849
0.099674
0.09975
0.098984
0.098544
0.096663
0.096107
0.092915
0.093252
0.088495
0.090617
0.081505
0.085439
0.099717
0.099791
0.099022
0.098573
0.096682
0.096108
0.092876
0.093217
0.088362
0.090441
0.081222
0.085035
0.099761
0.099833
0.099061
0.098603
0.096701
0.096108
0.092838
0.093182
0.088229
0.090265
0.080943
0.084637
0.099806
0.099876
0.0991
0.098634
0.096721
0.096109
0.0928
0.093147
0.088096
0.090088
0.080669
0.084244
0.099851
0.099919
0.099141
0.098665
0.096741
0.09611
0.092762
0.093112
0.087963
0.089911
0.080399
0.083857
0.099898
0.099963
0.099182
0.098697
0.096762
0.096112
0.092725
0.093077
0.08783
0.089734
0.080133
0.083474
0.099945
0.10001
0.099223
0.098729
0.096782
0.096113
0.092687
0.093042
0.087697
0.089557
0.07987
0.083097
0.099992
0.10005
0.099266
0.098762
0.096804
0.096115
0.09265
0.093007
0.087564
0.08938
0.079612
0.082725
0.10004
0.1001
0.099309
0.098795
0.096826
0.096117
0.092614
0.092971
0.087432
0.089203
0.079357
0.082357
0.10009
0.10015
0.099352
0.098829
0.096848
0.096119
0.092577
0.092935
0.087299
0.089026
0.079106
0.081994
0.10014
0.10019
0.099397
0.098863
0.09687
0.096121
0.092541
0.092898
0.087167
0.088849
0.078859
0.081636
0.10019
0.10024
0.099442
0.098898
0.096893
0.096124
0.092505
0.092861
0.087036
0.088672
0.078615
0.081282
0.10024
0.10029
0.099488
0.098933
0.096917
0.096128
0.092469
0.092823
0.086905
0.088495
0.078374
0.080932
0.10029
0.10034
0.099535
0.098969
0.096941
0.096131
0.092434
0.092785
0.086775
0.088318
0.078137
0.080586
0.10035
0.10039
0.099582
0.099005
0.096965
0.096135
0.092398
0.092746
0.086645
0.088141
0.077903
0.080244
0.1004
0.10044
0.09963
0.099042
0.09699
0.09614
0.092363
0.092706
0.086516
0.087965
0.077672
0.079907
0.10046
0.10049
0.099679
0.099079
0.097015
0.096145
0.092329
0.092666
0.086387
0.087789
0.077444
0.079573
0.10051
0.10055
0.099729
0.099118
0.09704
0.096151
0.092294
0.092625
0.086259
0.087613
0.077219
0.079243
0.10057
0.1006
0.099779
0.099156
0.097066
0.096157
0.09226
0.092583
0.086132
0.087437
0.076997
0.078916
0.10063
0.10066
0.09983
0.099195
0.097093
0.096164
0.092226
0.092541
0.086006
0.087262
0.076778
0.078594
0.10068
0.10071
0.099882
0.099235
0.09712
0.096171
0.092192
0.092497
0.08588
0.087087
0.076562
0.078274
0.10074
0.10077
0.099935
0.099276
0.097147
0.096179
0.092158
0.092453
0.085755
0.086912
0.076349
0.077959
0.1008
0.10083
0.099988
0.099317
0.097175
0.096188
0.092125
0.092408
0.085631
0.086737
0.076138
0.077646
0.10086
0.10088
0.10004
0.099359
0.097203
0.096197
0.092091
0.092363
0.085508
0.086563
0.07593
0.077337
0.10093
0.10094
0.1001
0.099401
0.097231
0.096207
0.092058
0.092316
0.085386
0.08639
0.075724
0.077031
0.10099
0.101
0.10015
0.099444
0.09726
0.096218
0.092025
0.092269
0.085265
0.086216
0.075521
0.076728
0.10105
0.10106
0.10021
0.099488
0.097289
0.096229
0.091992
0.09222
0.085144
0.086043
0.07532
0.076428
0.10112
0.10112
0.10027
0.099533
0.097319
0.096241
0.091959
0.092171
0.085025
0.085871
0.075122
0.076131
0.10118
0.10119
0.10033
0.099578
0.097349
0.096254
0.091926
0.092122
0.084906
0.085698
0.074926
0.075837
0.10125
0.10125
0.10039
0.099624
0.09738
0.096268
0.091894
0.092071
0.084789
0.085526
0.074732
0.075545
0.10131
0.10132
0.10045
0.099671
0.097411
0.096282
0.091862
0.092019
0.084672
0.085355
0.074541
0.075257
0.10138
0.10138
0.10051
0.099719
0.097443
0.096297
0.09183
0.091967
0.084556
0.085184
0.074351
0.074971
0.10145
0.10145
0.10057
0.099767
0.097475
0.096313
0.091798
0.091914
0.084441
0.085013
0.074164
0.074687
0.10152
0.10151
0.10063
0.099817
0.097507
0.09633
0.091766
0.09186
0.084326
0.084842
0.073979
0.074406
0.10159
0.10158
0.1007
0.099867
0.09754
0.096348
0.091735
0.091806
0.084213
0.084672
0.073795
0.074128
0.10166
0.10165
0.10076
0.099919
0.097574
0.096366
0.091703
0.091751
0.0841
0.084502
0.073614
0.073852
0.10174
0.10172
0.10083
0.099971
0.097608
0.096385
0.091672
0.091695
0.083989
0.084333
0.073434
0.073578
0.10181
0.1018
0.1009
0.10002
0.097642
0.096405
0.091642
0.091638
0.083878
0.084163
0.073256
0.073306
0.10189
0.10187
0.10096
0.10008
0.097678
0.096425
0.091612
0.091581
0.083768
0.083994
0.07308
0.073037
0.10197
0.10194
0.10103
0.10013
0.097713
0.096447
0.091582
0.091523
0.083658
0.083826
0.072905
0.072769
0.10204
0.10202
0.1011
0.10019
0.09775
0.096469
0.091552
0.091464
0.08355
0.083657
0.072732
0.072503
0.10212
0.1021
0.10118
0.10025
0.097787
0.096492
0.091523
0.091405
0.083442
0.083489
0.072561
0.072239
0.1022
0.10218
0.10125
0.10031
0.097824
0.096516
0.091495
0.091345
0.083335
0.083321
0.072391
0.071978
0.10229
0.10226
0.10132
0.10037
0.097863
0.096541
0.091466
0.091285
0.083229
0.083153
0.072222
0.071717
0.10237
0.10234
0.1014
0.10043
0.097902
0.096567
0.091439
0.091224
0.083123
0.082985
0.072055
0.071459
0.10245
0.10242
0.10147
0.10049
0.097942
0.096593
0.091412
0.091163
0.083018
0.082818
0.071889
0.071202
0.10254
0.10251
0.10155
0.10056
0.097983
0.096621
0.091386
0.091101
0.082914
0.08265
0.071724
0.070946
0.10263
0.10259
0.10163
0.10062
0.098025
0.096649
0.09136
0.091039
0.082811
0.082483
0.07156
0.070692
0.10272
0.10268
0.10171
0.10069
0.098067
0.096678
0.091336
0.090977
0.082708
0.082316
0.071398
0.070439
0.10281
0.10277
0.1018
0.10076
0.098111
0.096709
0.091312
0.090914
0.082606
0.082149
0.071236
0.070187
0.1029
0.10286
0.10188
0.10083
0.098156
0.09674
0.091289
0.090851
0.082505
0.081982
0.071076
0.069937
0.103
0.10295
0.10197
0.1009
0.098202
0.096772
0.091267
0.090788
0.082404
0.081815
0.070916
0.069688
0.10309
0.10305
0.10205
0.10097
0.098249
0.096805
0.091246
0.090724
0.082305
0.081648
0.070758
0.069439
0.10319
0.10315
0.10214
0.10105
0.098297
0.09684
0.091226
0.090661
0.082205
0.081481
0.0706
0.069192
0.10329
0.10325
0.10224
0.10113
0.098347
0.096875
0.091207
0.090597
0.082107
0.081314
0.070443
0.068945
0.1034
0.10335
0.10233
0.10121
0.098398
0.096912
0.091189
0.090534
0.082009
0.081147
0.070286
0.068699
0.1035
0.10345
0.10242
0.10129
0.09845
0.09695
0.091173
0.090471
0.081912
0.08098
0.07013
0.068454
0.10361
0.10356
0.10252
0.10137
0.098505
0.096989
0.091158
0.090407
0.081816
0.080813
0.069975
0.068209
0.10372
0.10367
0.10262
0.10146
0.098561
0.097029
0.091145
0.090344
0.081721
0.080646
0.06982
0.067965
0.10383
0.10378
0.10272
0.10155
0.098618
0.097071
0.091133
0.090281
0.081626
0.080479
0.069666
0.067722
0.10395
0.10389
0.10283
0.10164
0.098678
0.097115
0.091122
0.090219
0.081532
0.080312
0.069512
0.067478
0.10406
0.10401
0.10294
0.10174
0.09874
0.09716
0.091114
0.090157
0.081439
0.080145
0.069358
0.067235
0.10418
0.10413
0.10305
0.10183
0.098804
0.097206
0.091107
0.090095
0.081347
0.079978
0.069205
0.066992
0.10431
0.10426
0.10316
0.10193
0.098871
0.097255
0.091102
0.090034
0.081256
0.079811
0.069052
0.066749
0.10444
0.10438
0.10328
0.10204
0.098939
0.097305
0.091099
0.089974
0.081166
0.079643
0.068899
0.066506
0.10457
0.10451
0.1034
0.10214
0.099011
0.097357
0.091099
0.089914
0.081077
0.079476
0.068746
0.066263
0.1047
0.10465
0.10352
0.10225
0.099085
0.097411
0.0911
0.089856
0.080989
0.079309
0.068593
0.066019
0.10484
0.10478
0.10365
0.10237
0.099162
0.097468
0.091104
0.089798
0.080902
0.079141
0.068441
0.065776
0.10498
0.10493
0.10378
0.10248
0.099242
0.097527
0.09111
0.089742
0.080816
0.078974
0.068288
0.065532
0.10512
0.10507
0.10391
0.1026
0.099326
0.097588
0.091119
0.089686
0.080731
0.078807
0.068135
0.065287
0.10527
0.10522
0.10405
0.10273
0.099413
0.097652
0.091131
0.089632
0.080647
0.078639
0.067982
0.065042
0.10542
0.10538
0.10419
0.10286
0.099503
0.097718
0.091146
0.08958
0.080565
0.078472
0.067828
0.064796
0.10558
0.10553
0.10434
0.10299
0.099598
0.097788
0.091163
0.089529
0.080485
0.078305
0.067675
0.064549
0.10574
0.1057
0.10449
0.10313
0.099696
0.09786
0.091184
0.08948
0.080405
0.078138
0.067521
0.064301
0.10591
0.10587
0.10464
0.10327
0.099799
0.097936
0.091208
0.089432
0.080328
0.077971
0.067367
0.064053
0.10608
0.10604
0.1048
0.10342
0.099906
0.098015
0.091236
0.089387
0.080252
0.077804
0.067212
0.063803
0.10626
0.10622
0.10497
0.10357
0.10002
0.098098
0.091268
0.089343
0.080177
0.077638
0.067057
0.063552
0.10644
0.10641
0.10514
0.10373
0.10013
0.098184
0.091303
0.089302
0.080105
0.077471
0.066901
0.0633
0.10663
0.1066
0.10532
0.10389
0.10026
0.098275
0.091342
0.089264
0.080034
0.077305
0.066745
0.063046
0.10682
0.1068
0.1055
0.10406
0.10038
0.098369
0.091386
0.089228
0.079966
0.07714
0.066588
0.062791
0.10702
0.107
0.10569
0.10424
0.10052
0.098469
0.091433
0.089194
0.079899
0.076975
0.066431
0.062534
0.10723
0.10721
0.10589
0.10442
0.10066
0.098572
0.091486
0.089164
0.079835
0.07681
0.066273
0.062275
0.10744
0.10743
0.10609
0.10461
0.1008
0.098681
0.091543
0.089137
0.079773
0.076645
0.066114
0.062015
0.10766
0.10765
0.1063
0.10481
0.10095
0.098795
0.091606
0.089113
0.079714
0.076481
0.065954
0.061752
0.10789
0.10788
0.10652
0.10501
0.10111
0.098914
0.091673
0.089092
0.079657
0.076318
0.065793
0.061487
0.10812
0.10813
0.10674
0.10522
0.10128
0.099039
0.091746
0.089075
0.079602
0.076155
0.065631
0.06122
0.10836
0.10837
0.10698
0.10544
0.10145
0.09917
0.091825
0.089062
0.07955
0.075992
0.065469
0.06095
0.10861
0.10863
0.10722
0.10567
0.10163
0.099307
0.091909
0.089052
0.079501
0.075831
0.065305
0.060678
0.10887
0.10889
0.10747
0.10591
0.10182
0.09945
0.092
0.089047
0.079455
0.07567
0.06514
0.060403
0.10914
0.10917
0.10773
0.10615
0.10202
0.0996
0.092096
0.089046
0.079412
0.07551
0.064974
0.060125
0.10941
0.10945
0.108
0.10641
0.10222
0.099757
0.0922
0.08905
0.079372
0.07535
0.064806
0.059844
0.1097
0.10974
0.10827
0.10667
0.10244
0.099922
0.09231
0.089058
0.079335
0.075191
0.064637
0.05956
0.10999
0.11005
0.10856
0.10694
0.10266
0.10009
0.092427
0.08907
0.079302
0.075033
0.064466
0.059272
0.1103
0.11036
0.10886
0.10723
0.1029
0.10027
0.092551
0.089088
0.079271
0.074875
0.064294
0.058981
0.11061
0.11068
0.10917
0.10752
0.10314
0.10046
0.092682
0.089111
0.079244
0.074718
0.06412
0.058686
0.11093
0.11102
0.10949
0.10782
0.10339
0.10066
0.092821
0.089139
0.079221
0.074562
0.063944
0.058386
0.11127
0.11136
0.10982
0.10814
0.10366
0.10086
0.092968
0.089172
0.079201
0.074407
0.063765
0.058082
0.11161
0.11172
0.11016
0.10846
0.10393
0.10107
0.093123
0.089211
0.079184
0.074252
0.063585
0.057774
0.11196
0.11208
0.11051
0.1088
0.10422
0.1013
0.093286
0.089255
0.079171
0.074097
0.063401
0.057461
0.11233
0.11246
0.11088
0.10915
0.10452
0.10153
0.093457
0.089304
0.079161
0.073943
0.063215
0.057142
0.11271
0.11285
0.11126
0.10951
0.10483
0.10177
0.093636
0.089359
0.079154
0.073789
0.063026
0.056818
0.1131
0.11326
0.11165
0.10988
0.10515
0.10202
0.093824
0.08942
0.079151
0.073635
0.062834
0.056488
0.1135
0.11367
0.11205
0.11027
0.10548
0.10228
0.094021
0.089487
0.079151
0.07348
0.062638
0.056151
0.11391
0.1141
0.11247
0.11067
0.10583
0.10255
0.094226
0.089559
0.079154
0.073326
0.062439
0.055808
0.11434
0.11454
0.1129
0.11108
0.10619
0.10283
0.09444
0.089636
0.07916
0.073171
0.062235
0.055458
0.11477
0.115
0.11334
0.11151
0.10656
0.10312
0.094663
0.08972
0.079168
0.073015
0.062026
0.0551
0.11522
0.11547
0.1138
0.11195
0.10695
0.10343
0.094896
0.089808
0.079179
0.072858
0.061812
0.054735
0.11569
0.11595
0.11427
0.1124
0.10735
0.10374
0.095137
0.089902
0.079193
0.072699
0.061593
0.054361
0.11616
0.11644
0.11476
0.11287
0.10776
0.10406
0.095387
0.090001
0.079208
0.072539
0.061368
0.053977
0.11665
0.11695
0.11526
0.11335
0.10819
0.1044
0.095646
0.090105
0.079226
0.072376
0.061137
0.053584
0.11716
0.11748
0.11578
0.11385
0.10863
0.10475
0.095915
0.090214
0.079244
0.07221
0.060898
0.053181
0.11768
0.11802
0.11631
0.11436
0.10908
0.1051
0.096192
0.090328
0.079264
0.072042
0.060652
0.052767
0.11821
0.11857
0.11686
0.11489
0.10956
0.10547
0.096478
0.090446
0.079284
0.071869
0.060398
0.052341
0.11875
0.11914
0.11743
0.11543
0.11004
0.10585
0.096774
0.090568
0.079304
0.071692
0.060134
0.051903
0.11931
0.11973
0.11801
0.11599
0.11055
0.10625
0.097078
0.090694
0.079324
0.07151
0.059861
0.051452
0.11989
0.12033
0.11861
0.11656
0.11107
0.10665
0.097391
0.090823
0.079344
0.071323
0.059578
0.050987
0.12048
0.12095
0.11923
0.11716
0.1116
0.10707
0.097714
0.090956
0.079361
0.071129
0.059283
0.050507
0.12109
0.12158
0.11987
0.11777
0.11215
0.1075
0.098045
0.091092
0.079378
0.070928
0.058976
0.050011
0.12171
0.12223
0.12052
0.1184
0.11272
0.10794
0.098385
0.091231
0.079391
0.07072
0.058656
0.049499
0.12235
0.12291
0.1212
0.11904
0.11331
0.1084
0.098734
0.091372
0.079402
0.070503
0.058322
0.048969
0.12301
0.1236
0.1219
0.11971
0.11392
0.10887
0.099093
0.091515
0.07941
0.070277
0.057973
0.048421
0.12369
0.12431
0.12262
0.1204
0.11455
0.10935
0.099461
0.09166
0.079413
0.070041
0.057609
0.047853
0.12439
0.12505
0.12336
0.12111
0.11519
0.10985
0.099839
0.091807
0.079412
0.069794
0.057227
0.047264
0.12511
0.1258
0.12413
0.12184
0.11587
0.11036
0.10023
0.091956
0.079407
0.069535
0.056828
0.046654
0.12586
0.12658
0.12493
0.1226
0.11656
0.1109
0.10063
0.092107
0.079395
0.069264
0.05641
0.04602
0.12663
0.12739
0.12576
0.12339
0.11728
0.11145
0.10103
0.092259
0.079378
0.06898
0.055972
0.045362
0.12742
0.12823
0.12661
0.1242
0.11803
0.11201
0.10146
0.092413
0.079354
0.068682
0.055513
0.044678
0.12825
0.1291
0.1275
0.12505
0.1188
0.1126
0.10189
0.092569
0.079323
0.068368
0.055032
0.043967
0.1291
0.13
0.12843
0.12593
0.11961
0.11322
0.10234
0.092727
0.079286
0.068039
0.054528
0.043227
0.12999
0.13094
0.1294
0.12685
0.12045
0.11385
0.1028
0.092888
0.07924
0.067694
0.053999
0.042458
0.13092
0.13192
0.13041
0.12782
0.12133
0.11452
0.10328
0.093051
0.079187
0.067331
0.053444
0.041657
0.13188
0.13294
0.13147
0.12882
0.12225
0.11521
0.10377
0.093217
0.079125
0.066949
0.052862
0.040823
0.13289
0.13401
0.13257
0.12988
0.12321
0.11593
0.10428
0.093387
0.079053
0.066548
0.052251
0.039954
0.13394
0.13513
0.13374
0.13099
0.12422
0.11669
0.10482
0.09356
0.078972
0.066126
0.051611
0.039048
0.13505
0.13631
0.13496
0.13215
0.12528
0.11748
0.10537
0.093737
0.07888
0.065682
0.050938
0.038104
0.13621
0.13755
0.13625
0.13338
0.12639
0.11832
0.10594
0.093917
0.078776
0.065213
0.050231
0.037119
0.13742
0.13885
0.13761
0.13468
0.12757
0.1192
0.10654
0.094101
0.078659
0.064718
0.049487
0.03609
0.13869
0.14022
0.13905
0.13605
0.1288
0.12012
0.10716
0.094287
0.078525
0.064194
0.048703
0.035016
0.14003
0.14167
0.14057
0.13751
0.13011
0.12109
0.1078
0.094474
0.078374
0.063638
0.047877
0.033892
0.14144
0.1432
0.14218
0.13904
0.13148
0.12211
0.10847
0.094661
0.0782
0.063045
0.047004
0.032717
0.14291
0.14481
0.14387
0.14067
0.13293
0.12318
0.10916
0.094844
0.078001
0.062412
0.04608
0.031485
0.14446
0.14651
0.14567
0.14239
0.13445
0.1243
0.10986
0.095022
0.077772
0.061732
0.045098
0.030192
0.14608
0.1483
0.14756
0.14422
0.13606
0.12548
0.11059
0.095188
0.077505
0.061
0.044053
0.028833
0.14778
0.15019
0.14957
0.14615
0.13775
0.12671
0.11134
0.095339
0.077195
0.060207
0.042937
0.027402
0.14955
0.15217
0.15168
0.14819
0.13953
0.128
0.11209
0.095468
0.076833
0.059345
0.041743
0.025891
0.15139
0.15426
0.15392
0.15034
0.14139
0.12933
0.11285
0.095566
0.07641
0.058405
0.04046
0.024292
0.15331
0.15645
0.15627
0.15261
0.14334
0.13071
0.11361
0.095625
0.075915
0.057375
0.039078
0.022597
0.15529
0.15874
0.15874
0.155
0.14538
0.13214
0.11436
0.095635
0.075336
0.056245
0.037586
0.020795
0.15734
0.16114
0.16135
0.15753
0.14751
0.13361
0.11509
0.095584
0.074661
0.055002
0.035973
0.018874
0.15946
0.16366
0.1641
0.16018
0.14973
0.1351
0.1158
0.095459
0.073877
0.053633
0.034225
0.016823
0.16163
0.16629
0.16699
0.16297
0.15205
0.13663
0.11646
0.095246
0.072967
0.052125
0.032331
0.014631
0.16387
0.16904
0.17004
0.16591
0.15445
0.13817
0.11707
0.094927
0.071917
0.050463
0.030277
0.012284
0.16616
0.17191
0.17326
0.16902
0.15695
0.13972
0.11761
0.094484
0.070708
0.048632
0.02805
0.0097717
0.1685
0.17494
0.17669
0.17229
0.15955
0.14127
0.11805
0.093894
0.069319
0.046615
0.025638
0.0070824
0.17089
0.17811
0.18033
0.17576
0.16225
0.14281
0.11839
0.093129
0.067726
0.044393
0.023025
0.0042059
0.17334
0.18147
0.18423
0.17945
0.16505
0.1443
0.11858
0.092157
0.065899
0.041944
0.020195
0.0011324
0.17582
0.18502
0.18841
0.18337
0.16796
0.14574
0.11858
0.090933
0.0638
0.039237
0.017129
-0.0021484
0.17833
0.18879
0.19293
0.18756
0.17095
0.14707
0.11835
0.089405
0.061384
0.036237
0.013802
-0.0056482
0.18084
0.19279
0.19781
0.19202
0.17402
0.14826
0.11783
0.087507
0.058591
0.032897
0.010181
-0.0093816
0.18332
0.19705
0.20308
0.19676
0.17712
0.14922
0.11692
0.085158
0.055353
0.029163
0.0062292
-0.013367
0.18568
0.20155
0.20878
0.20177
0.18019
0.14988
0.11552
0.082264
0.051591
0.024971
0.0018999
-0.017629
0.18782
0.20628
0.21488
0.20701
0.18314
0.1501
0.11352
0.078719
0.047217
0.020253
-0.0028549
-0.022192
0.1896
0.21116
0.22135
0.2124
0.18582
0.14974
0.11077
0.074408
0.042147
0.014947
-0.0080784
-0.02708
0.19081
0.2161
0.2281
0.21778
0.18804
0.14859
0.10711
0.069215
0.036304
0.009006
-0.013798
-0.032302
0.19117
0.2209
0.23493
0.22292
0.18954
0.14642
0.10236
0.063029
0.029632
0.0024101
-0.020011
-0.037846
0.19036
0.22527
0.24151
0.22744
0.18995
0.14294
0.096339
0.055754
0.022099
-0.0048251
-0.026677
-0.043663
0.188
0.22877
0.24728
0.23076
0.18879
0.13782
0.088848
0.047312
0.013707
-0.012646
-0.033711
-0.049663
0.18366
0.23066
0.25128
0.23195
0.18537
0.13066
0.079707
0.037654
0.0044877
-0.020966
-0.040992
-0.055721
0.17696
0.2298
0.25189
0.22958
0.17876
0.12099
0.068756
0.026784
-0.0054833
-0.029673
-0.04838
-0.061696
0.16763
0.22444
0.24654
0.22145
0.16764
0.10824
0.055886
0.014782
-0.016069
-0.038626
-0.055731
-0.067453
0.15575
0.21204
0.23134
0.20438
0.15022
0.091759
0.041045
0.0018352
-0.027041
-0.047633
-0.062899
-0.072887
0.14205
0.18943
0.20109
0.17411
0.1242
0.070689
0.024166
-0.011813
-0.038099
-0.056458
-0.069732
-0.077923
0.12817
0.15359
0.15037
0.12596
0.086882
0.043938
0.0050159
-0.026014
-0.048976
-0.064872
-0.076097
-0.082528
0.11609
0.10201
0.075453
0.056486
0.03587
0.010208
-0.016954
-0.040896
-0.059605
-0.072768
-0.08194
-0.086733
0.10842
0.029746
-0.028193
-0.037377
-0.031495
-0.03253
-0.043018
-0.057191
-0.070407
-0.08042
-0.087491
-0.0908
0.11874
-0.056612
-0.15557
-0.1516
-0.11409
-0.085247
-0.074733
-0.076367
-0.082623
-0.088848
-0.093602
-0.095491
0.15956
-0.13522
-0.28184
-0.2644
-0.19676
-0.13979
-0.10871
-0.097423
-0.096222
-0.098298
-0.10058
-0.10098
0.10277
0.063379
0.053268
0.04724
0.043081
0.03997
0.037486
0.035356
0.033536
0.031704
0.030246
0.02786
0.12211
0.078627
0.066065
0.058048
0.052577
0.048536
0.045339
0.042621
0.04032
0.038008
0.036222
0.033437
0.10946
0.073531
0.062164
0.054276
0.048876
0.044908
0.041787
0.039148
0.03694
0.034713
0.033054
0.030351
0.1044
0.073192
0.062156
0.054178
0.048642
0.044562
0.041356
0.03865
0.036401
0.034127
0.032468
0.029641
0.10373
0.075336
0.064143
0.05595
0.050171
0.045885
0.042512
0.039666
0.037307
0.034921
0.033193
0.030208
0.10306
0.077124
0.065861
0.057536
0.05156
0.047098
0.043577
0.040604
0.038145
0.035661
0.033865
0.030768
0.10192
0.078377
0.06719
0.058817
0.052695
0.048089
0.044443
0.041363
0.038816
0.036255
0.034398
0.031233
0.10071
0.079399
0.068377
0.060007
0.053772
0.049038
0.045277
0.042098
0.03947
0.036844
0.03493
0.031734
0.099566
0.080277
0.069488
0.061164
0.054846
0.049999
0.04613
0.042859
0.040152
0.03747
0.035503
0.032314
0.098478
0.081001
0.070509
0.062275
0.055909
0.050967
0.047
0.043642
0.040861
0.038133
0.036119
0.032973
0.097422
0.081574
0.07143
0.063327
0.056948
0.051932
0.04788
0.044445
0.041596
0.038833
0.036777
0.033708
0.096396
0.082007
0.072249
0.064313
0.057954
0.052889
0.048768
0.045265
0.042356
0.039568
0.037478
0.034516
0.095403
0.082317
0.072966
0.065225
0.05892
0.05383
0.049655
0.046099
0.043137
0.040334
0.038219
0.035388
0.094445
0.082522
0.073585
0.06606
0.059835
0.054744
0.050535
0.046938
0.043934
0.041127
0.038993
0.036311
0.093522
0.082634
0.074111
0.066815
0.060695
0.055625
0.051399
0.047774
0.044739
0.041936
0.039791
0.037269
0.092638
0.08267
0.07455
0.067492
0.061494
0.056464
0.052237
0.048599
0.045542
0.042753
0.040603
0.038244
0.09179
0.082641
0.07491
0.068092
0.06223
0.057257
0.053045
0.049405
0.046337
0.043569
0.041417
0.039219
0.090981
0.082559
0.075199
0.06862
0.062903
0.058
0.053815
0.050186
0.047116
0.044373
0.042224
0.040177
0.090208
0.082434
0.075424
0.069081
0.063513
0.058691
0.054545
0.050937
0.047872
0.045159
0.043014
0.041105
0.089472
0.082274
0.075592
0.069478
0.064064
0.05933
0.055233
0.051652
0.0486
0.04592
0.043781
0.041991
0.088769
0.082085
0.075712
0.069819
0.064558
0.059919
0.055876
0.052331
0.049296
0.04665
0.044517
0.042826
0.088099
0.081875
0.075788
0.070107
0.064999
0.060457
0.056475
0.05297
0.049958
0.047344
0.045219
0.043604
0.087459
0.081646
0.075826
0.070348
0.06539
0.060948
0.05703
0.05357
0.050583
0.048002
0.045883
0.044323
0.086848
0.081404
0.075832
0.070547
0.065736
0.061394
0.057543
0.05413
0.051172
0.04862
0.046508
0.044979
0.086264
0.081151
0.07581
0.070708
0.066039
0.061798
0.058016
0.054651
0.051723
0.049198
0.047093
0.045576
0.085704
0.080889
0.075763
0.070836
0.066303
0.062161
0.058449
0.055134
0.052238
0.049736
0.047638
0.046115
0.085166
0.080622
0.075695
0.070933
0.066532
0.062488
0.058846
0.055581
0.052718
0.050237
0.048145
0.0466
0.08465
0.080351
0.07561
0.071003
0.066729
0.06278
0.059209
0.055993
0.053164
0.050699
0.048615
0.047035
0.084154
0.080076
0.075508
0.071049
0.066897
0.063041
0.059539
0.056372
0.053577
0.051127
0.049049
0.047425
0.083675
0.079799
0.075394
0.071074
0.067038
0.063272
0.059839
0.05672
0.053959
0.05152
0.04945
0.047775
0.083213
0.079522
0.075267
0.071079
0.067155
0.063477
0.06011
0.057038
0.054312
0.051883
0.04982
0.048089
0.082767
0.079244
0.075131
0.071067
0.067251
0.063656
0.060356
0.05733
0.054637
0.052216
0.050162
0.048372
0.082334
0.078967
0.074987
0.071041
0.067326
0.063813