/*--------------------------------*- C++ -*----------------------------------*\
  =========                 |
  \\      /  F ield         | OpenFOAM: The Open Source CFD Toolbox
   \\    /   O peration     | Website:  https://openfoam.org
    \\  /    A nd           | Version:  6.0
     \\/     M anipulation  |
\*---------------------------------------------------------------------------*/
FoamFile
{
    version     2.0;
    format      ascii;
    class       volScalarField;
    location    "1.84";
    object      p;
}
// * * * * * * * * * * * * * * * * * * * * * * * * * * * * * * * * * * * * * //

dimensions      [0 2 -2 0 0 0 0];

internalField   nonuniform List<scalar> 
13500
(
0.09908
0.099105
0.098627
0.098153
0.097338
0.096739
0.096279
0.096615
0.098322
0.10239
0.12378
0.16779
0.099081
0.099106
0.098627
0.098153
0.097338
0.096739
0.096279
0.096615
0.098318
0.10245
0.1231
0.16273
0.099081
0.099106
0.098628
0.098154
0.097338
0.096739
0.096278
0.096613
0.09831
0.10249
0.12221
0.15825
0.099082
0.099107
0.098628
0.098154
0.097338
0.096739
0.096276
0.096609
0.098295
0.10252
0.12123
0.15477
0.099083
0.099109
0.098629
0.098155
0.097338
0.096738
0.096273
0.096604
0.098275
0.10252
0.12019
0.15183
0.099084
0.09911
0.098631
0.098157
0.097339
0.096737
0.096269
0.096598
0.098251
0.10252
0.11911
0.14923
0.099086
0.099112
0.098632
0.098158
0.097339
0.096736
0.096265
0.09659
0.098222
0.1025
0.11803
0.14686
0.099088
0.099114
0.098634
0.098159
0.097339
0.096735
0.096261
0.096581
0.098188
0.10247
0.11695
0.14469
0.099091
0.099117
0.098636
0.098161
0.097339
0.096733
0.096256
0.096571
0.098149
0.10243
0.11589
0.14269
0.099094
0.09912
0.098638
0.098163
0.09734
0.096732
0.09625
0.09656
0.098105
0.10237
0.11486
0.14082
0.099097
0.099123
0.098641
0.098165
0.09734
0.09673
0.096244
0.096547
0.098056
0.1023
0.11388
0.13907
0.0991
0.099127
0.098644
0.098167
0.097341
0.096728
0.096236
0.096532
0.098002
0.10222
0.11293
0.13742
0.099104
0.099131
0.098647
0.09817
0.097341
0.096726
0.096229
0.096516
0.097944
0.10212
0.11202
0.13585
0.099109
0.099135
0.098651
0.098173
0.097342
0.096723
0.096221
0.096499
0.09788
0.10202
0.11115
0.13436
0.099113
0.099139
0.098654
0.098176
0.097342
0.096721
0.096212
0.09648
0.097811
0.10191
0.11031
0.13294
0.099119
0.099144
0.098659
0.098179
0.097343
0.096718
0.096202
0.09646
0.097738
0.1018
0.10952
0.13158
0.099124
0.09915
0.098663
0.098182
0.097344
0.096715
0.096192
0.096439
0.097659
0.10168
0.10875
0.13028
0.09913
0.099155
0.098668
0.098185
0.097344
0.096711
0.096182
0.096416
0.097577
0.10156
0.10802
0.12903
0.099136
0.099161
0.098673
0.098189
0.097345
0.096708
0.09617
0.096391
0.097489
0.10144
0.10731
0.12783
0.099143
0.099168
0.098678
0.098193
0.097346
0.096704
0.096159
0.096365
0.097398
0.10131
0.10662
0.12667
0.09915
0.099174
0.098684
0.098197
0.097347
0.0967
0.096146
0.096338
0.097303
0.10119
0.10595
0.12554
0.099157
0.099182
0.09869
0.098202
0.097348
0.096696
0.096133
0.096309
0.097203
0.10106
0.1053
0.12446
0.099165
0.099189
0.098696
0.098206
0.097349
0.096692
0.09612
0.096278
0.097101
0.10094
0.10467
0.1234
0.099174
0.099197
0.098703
0.098211
0.09735
0.096687
0.096106
0.096247
0.096995
0.10082
0.10405
0.12238
0.099182
0.099205
0.09871
0.098216
0.097352
0.096682
0.096091
0.096214
0.096887
0.10069
0.10344
0.12138
0.099191
0.099214
0.098717
0.098222
0.097353
0.096677
0.096076
0.096179
0.096776
0.10057
0.10284
0.12041
0.099201
0.099223
0.098725
0.098227
0.097354
0.096672
0.09606
0.096143
0.096663
0.10045
0.10225
0.11947
0.099211
0.099232
0.098733
0.098233
0.097356
0.096667
0.096043
0.096107
0.096547
0.10033
0.10167
0.11854
0.099221
0.099242
0.098741
0.098239
0.097357
0.096661
0.096026
0.096068
0.09643
0.10021
0.10109
0.11764
0.099232
0.099253
0.09875
0.098245
0.097359
0.096656
0.096009
0.096029
0.096311
0.10009
0.10053
0.11676
0.099243
0.099263
0.098759
0.098252
0.097361
0.09665
0.095991
0.095989
0.096191
0.099975
0.099971
0.1159
0.099255
0.099274
0.098768
0.098259
0.097363
0.096644
0.095972
0.095947
0.096069
0.099856
0.099419
0.11506
0.099267
0.099286
0.098778
0.098266
0.097364
0.096637
0.095953
0.095905
0.095947
0.099737
0.098875
0.11423
0.09928
0.099298
0.098788
0.098273
0.097366
0.096631
0.095933
0.095862
0.095823
0.099617
0.098337
0.11342
0.099293
0.09931
0.098799
0.098281
0.097369
0.096624
0.095913
0.095818
0.095698
0.099497
0.097807
0.11263
0.099307
0.099323
0.09881
0.098289
0.097371
0.096618
0.095892
0.095773
0.095572
0.099375
0.097283
0.11185
0.099321
0.099336
0.098821
0.098297
0.097373
0.096611
0.09587
0.095727
0.095446
0.099252
0.096765
0.11109
0.099335
0.09935
0.098832
0.098305
0.097375
0.096604
0.095848
0.095681
0.095318
0.099128
0.096255
0.11034
0.09935
0.099364
0.098844
0.098314
0.097378
0.096597
0.095825
0.095634
0.09519
0.099002
0.095752
0.10961
0.099366
0.099379
0.098857
0.098323
0.097381
0.096589
0.095802
0.095587
0.095061
0.098875
0.095256
0.10889
0.099382
0.099394
0.09887
0.098332
0.097383
0.096582
0.095778
0.095539
0.094931
0.098746
0.094767
0.10818
0.099398
0.09941
0.098883
0.098342
0.097386
0.096574
0.095753
0.095491
0.0948
0.098615
0.094285
0.10749
0.099415
0.099426
0.098897
0.098352
0.097389
0.096567
0.095728
0.095442
0.094669
0.098482
0.093811
0.10681
0.099433
0.099442
0.098911
0.098362
0.097392
0.096559
0.095703
0.095393
0.094537
0.098348
0.093344
0.10615
0.099451
0.099459
0.098925
0.098373
0.097395
0.096551
0.095677
0.095343
0.094403
0.098211
0.092884
0.10549
0.099469
0.099477
0.09894
0.098384
0.097399
0.096543
0.09565
0.095293
0.094269
0.098073
0.092432
0.10485
0.099488
0.099495
0.098955
0.098395
0.097402
0.096535
0.095622
0.095243
0.094135
0.097933
0.091987
0.10421
0.099508
0.099513
0.098971
0.098407
0.097406
0.096527
0.095594
0.095193
0.093999
0.09779
0.091549
0.10359
0.099528
0.099532
0.098987
0.098418
0.09741
0.096519
0.095566
0.095142
0.093863
0.097646
0.091119
0.10298
0.099548
0.099552
0.099004
0.098431
0.097413
0.096511
0.095537
0.095091
0.093725
0.097501
0.090696
0.10238
0.09957
0.099572
0.099021
0.098443
0.097417
0.096503
0.095507
0.09504
0.093587
0.097353
0.09028
0.10179
0.099591
0.099593
0.099038
0.098456
0.097422
0.096494
0.095477
0.094989
0.093448
0.097204
0.089871
0.10121
0.099613
0.099614
0.099056
0.098469
0.097426
0.096486
0.095446
0.094937
0.093309
0.097052
0.08947
0.10063
0.099636
0.099635
0.099075
0.098483
0.097431
0.096478
0.095415
0.094886
0.093168
0.0969
0.089075
0.10007
0.09966
0.099658
0.099094
0.098497
0.097435
0.096469
0.095383
0.094834
0.093027
0.096745
0.088688
0.099515
0.099684
0.09968
0.099113
0.098511
0.09744
0.096461
0.095351
0.094782
0.092886
0.096589
0.088307
0.098969
0.099708
0.099704
0.099133
0.098526
0.097445
0.096452
0.095318
0.094729
0.092743
0.096431
0.087933
0.098432
0.099733
0.099727
0.099153
0.098541
0.09745
0.096444
0.095285
0.094677
0.0926
0.096272
0.087565
0.097903
0.099759
0.099752
0.099174
0.098557
0.097456
0.096436
0.095251
0.094624
0.092457
0.096112
0.087204
0.097381
0.099785
0.099777
0.099195
0.098573
0.097461
0.096427
0.095216
0.094571
0.092313
0.09595
0.08685
0.096867
0.099812
0.099803
0.099217
0.098589
0.097467
0.096419
0.095182
0.094518
0.092168
0.095786
0.086501
0.096361
0.09984
0.099829
0.099239
0.098606
0.097473
0.096411
0.095146
0.094465
0.092023
0.095622
0.086159
0.095862
0.099868
0.099855
0.099262
0.098623
0.09748
0.096402
0.09511
0.094412
0.091878
0.095456
0.085823
0.09537
0.099897
0.099883
0.099285
0.09864
0.097486
0.096394
0.095074
0.094359
0.091733
0.095288
0.085493
0.094885
0.099926
0.099911
0.099309
0.098658
0.097493
0.096386
0.095037
0.094305
0.091587
0.09512
0.085169
0.094406
0.099956
0.099939
0.099334
0.098677
0.0975
0.096378
0.095
0.094251
0.091441
0.09495
0.08485
0.093934
0.099987
0.099969
0.099359
0.098695
0.097507
0.09637
0.094963
0.094198
0.091294
0.09478
0.084537
0.093469
0.10002
0.099999
0.099384
0.098715
0.097514
0.096361
0.094925
0.094144
0.091148
0.094608
0.08423
0.093009
0.10005
0.10003
0.09941
0.098734
0.097522
0.096354
0.094886
0.09409
0.091001
0.094435
0.083928
0.092556
0.10008
0.10006
0.099437
0.098754
0.09753
0.096346
0.094847
0.094035
0.090855
0.094261
0.083631
0.092108
0.10012
0.10009
0.099464
0.098775
0.097538
0.096338
0.094808
0.093981
0.090708
0.094086
0.083339
0.091667
0.10015
0.10012
0.099492
0.098796
0.097547
0.09633
0.094768
0.093926
0.090561
0.09391
0.083053
0.091231
0.10019
0.10016
0.099521
0.098817
0.097556
0.096323
0.094728
0.093872
0.090415
0.093734
0.082771
0.0908
0.10022
0.10019
0.09955
0.098839
0.097565
0.096315
0.094688
0.093817
0.090268
0.093556
0.082494
0.090375
0.10026
0.10023
0.099579
0.098862
0.097574
0.096308
0.094647
0.093762
0.090122
0.093378
0.082222
0.089955
0.10029
0.10026
0.09961
0.098885
0.097584
0.096301
0.094606
0.093707
0.089976
0.093198
0.081954
0.089541
0.10033
0.1003
0.099641
0.098908
0.097594
0.096294
0.094565
0.093652
0.08983
0.093019
0.081691
0.089131
0.10037
0.10033
0.099672
0.098932
0.097604
0.096287
0.094523
0.093596
0.089684
0.092838
0.081432
0.088726
0.10041
0.10037
0.099705
0.098956
0.097615
0.09628
0.094481
0.093541
0.089539
0.092656
0.081177
0.088326
0.10045
0.10041
0.099737
0.098981
0.097626
0.096274
0.094439
0.093485
0.089394
0.092474
0.080927
0.08793
0.10049
0.10045
0.099771
0.099006
0.097638
0.096268
0.094396
0.093429
0.089249
0.092291
0.080681
0.087539
0.10053
0.10049
0.099805
0.099032
0.097649
0.096262
0.094353
0.093373
0.089105
0.092108
0.080438
0.087153
0.10057
0.10053
0.09984
0.099059
0.097661
0.096256
0.09431
0.093317
0.088961
0.091924
0.0802
0.086771
0.10062
0.10057
0.099876
0.099086
0.097674
0.096251
0.094267
0.09326
0.088817
0.091739
0.079965
0.086393
0.10066
0.10061
0.099912
0.099113
0.097687
0.096245
0.094223
0.093204
0.088674
0.091554
0.079734
0.086019
0.1007
0.10065
0.09995
0.099142
0.0977
0.09624
0.09418
0.093147
0.088532
0.091369
0.079507
0.085649
0.10075
0.1007
0.099988
0.09917
0.097714
0.096236
0.094136
0.09309
0.08839
0.091182
0.079282
0.085283
0.1008
0.10074
0.10003
0.0992
0.097728
0.096231
0.094092
0.093033
0.088248
0.090996
0.079062
0.084921
0.10084
0.10079
0.10007
0.09923
0.097742
0.096227
0.094047
0.092975
0.088107
0.090809
0.078844
0.084563
0.10089
0.10083
0.10011
0.09926
0.097757
0.096224
0.094003
0.092918
0.087966
0.090621
0.07863
0.084208
0.10094
0.10088
0.10015
0.099291
0.097772
0.09622
0.093958
0.09286
0.087827
0.090433
0.078419
0.083857
0.10099
0.10093
0.10019
0.099323
0.097788
0.096217
0.093914
0.092802
0.087687
0.090245
0.078211
0.08351
0.10104
0.10098
0.10023
0.099356
0.097804
0.096215
0.093869
0.092744
0.087549
0.090056
0.078006
0.083165
0.10109
0.10103
0.10028
0.099389
0.097821
0.096212
0.093824
0.092685
0.087411
0.089867
0.077803
0.082824
0.10115
0.10108
0.10032
0.099423
0.097838
0.096211
0.093779
0.092627
0.087273
0.089677
0.077603
0.082487
0.1012
0.10113
0.10037
0.099458
0.097856
0.096209
0.093735
0.092568
0.087136
0.089487
0.077406
0.082152
0.10125
0.10118
0.10041
0.099493
0.097874
0.096208
0.09369
0.092509
0.087
0.089297
0.077212
0.08182
0.10131
0.10123
0.10046
0.099529
0.097892
0.096208
0.093645
0.092449
0.086865
0.089107
0.07702
0.081492
0.10137
0.10129
0.10051
0.099566
0.097912
0.096208
0.0936
0.09239
0.08673
0.088916
0.07683
0.081166
0.10142
0.10134
0.10056
0.099604
0.097931
0.096208
0.093555
0.09233
0.086596
0.088725
0.076643
0.080842
0.10148
0.1014
0.10061
0.099642
0.097952
0.096209
0.09351
0.09227
0.086463
0.088533
0.076457
0.080522
0.10154
0.10146
0.10066
0.099682
0.097972
0.09621
0.093466
0.09221
0.08633
0.088342
0.076274
0.080204
0.1016
0.10152
0.10071
0.099722
0.097994
0.096212
0.093421
0.092149
0.086199
0.08815
0.076093
0.079889
0.10167
0.10158
0.10076
0.099763
0.098016
0.096215
0.093377
0.092088
0.086067
0.087958
0.075914
0.079576
0.10173
0.10164
0.10082
0.099805
0.098038
0.096218
0.093333
0.092027
0.085937
0.087766
0.075737
0.079265
0.10179
0.1017
0.10087
0.099848
0.098062
0.096221
0.093289
0.091966
0.085807
0.087573
0.075561
0.078956
0.10186
0.10176
0.10093
0.099892
0.098086
0.096226
0.093245
0.091905
0.085679
0.08738
0.075387
0.07865
0.10193
0.10183
0.10099
0.099937
0.09811
0.096231
0.093201
0.091843
0.08555
0.087187
0.075215
0.078346
0.102
0.1019
0.10105
0.099983
0.098136
0.096236
0.093158
0.091781
0.085423
0.086994
0.075044
0.078044
0.10207
0.10196
0.10111
0.10003
0.098162
0.096242
0.093115
0.091719
0.085296
0.0868
0.074875
0.077743
0.10214
0.10203
0.10117
0.10008
0.098189
0.096249
0.093072
0.091656
0.085171
0.086607
0.074707
0.077445
0.10221
0.1021
0.10123
0.10013
0.098217
0.096257
0.09303
0.091594
0.085046
0.086413
0.07454
0.077148
0.10228
0.10217
0.10129
0.10018
0.098245
0.096265
0.092988
0.091531
0.084921
0.086219
0.074375
0.076853
0.10236
0.10225
0.10136
0.10023
0.098275
0.096274
0.092946
0.091468
0.084798
0.086024
0.074211
0.076559
0.10244
0.10232
0.10143
0.10028
0.098305
0.096284
0.092905
0.091405
0.084675
0.08583
0.074048
0.076267
0.10252
0.1024
0.10149
0.10034
0.098337
0.096294
0.092864
0.091341
0.084553
0.085635
0.073885
0.075976
0.1026
0.10247
0.10156
0.10039
0.098369
0.096306
0.092824
0.091278
0.084432
0.08544
0.073724
0.075687
0.10268
0.10255
0.10164
0.10045
0.098402
0.096318
0.092784
0.091214
0.084311
0.085245
0.073563
0.075399
0.10276
0.10263
0.10171
0.10051
0.098437
0.096331
0.092745
0.09115
0.084191
0.08505
0.073403
0.075112
0.10285
0.10272
0.10178
0.10057
0.098472
0.096346
0.092707
0.091086
0.084072
0.084854
0.073244
0.074826
0.10293
0.1028
0.10186
0.10063
0.098509
0.096361
0.092669
0.091022
0.083954
0.084659
0.073086
0.07454
0.10302
0.10289
0.10194
0.10069
0.098547
0.096377
0.092632
0.090957
0.083837
0.084463
0.072928
0.074256
0.10311
0.10298
0.10202
0.10076
0.098586
0.096394
0.092595
0.090893
0.08372
0.084266
0.07277
0.073973
0.10321
0.10307
0.1021
0.10083
0.098627
0.096412
0.09256
0.090829
0.083604
0.08407
0.072613
0.07369
0.1033
0.10316
0.10218
0.10089
0.098669
0.096432
0.092525
0.090764
0.083489
0.083873
0.072456
0.073407
0.1034
0.10325
0.10227
0.10096
0.098712
0.096452
0.092491
0.0907
0.083375
0.083676
0.072299
0.073126
0.1035
0.10335
0.10236
0.10104
0.098757
0.096474
0.092458
0.090635
0.083262
0.083479
0.072142
0.072844
0.1036
0.10345
0.10245
0.10111
0.098804
0.096497
0.092426
0.090571
0.083149
0.083282
0.071985
0.072563
0.1037
0.10355
0.10254
0.10119
0.098852
0.096522
0.092395
0.090506
0.083037
0.083084
0.071828
0.072282
0.10381
0.10365
0.10263
0.10127
0.098902
0.096548
0.092365
0.090442
0.082926
0.082886
0.071672
0.072001
0.10392
0.10376
0.10273
0.10135
0.098953
0.096575
0.092336
0.090377
0.082815
0.082688
0.071515
0.07172
0.10403
0.10387
0.10283
0.10143
0.099007
0.096604
0.092309
0.090313
0.082706
0.082489
0.071357
0.071439
0.10414
0.10398
0.10293
0.10152
0.099062
0.096634
0.092282
0.090249
0.082597
0.08229
0.071199
0.071158
0.10426
0.1041
0.10303
0.1016
0.09912
0.096666
0.092257
0.090185
0.082489
0.082091
0.071041
0.070877
0.10438
0.10421
0.10314
0.10169
0.099179
0.0967
0.092234
0.090122
0.082381
0.081892
0.070883
0.070595
0.1045
0.10433
0.10325
0.10179
0.099241
0.096736
0.092212
0.090059
0.082275
0.081692
0.070723
0.070312
0.10463
0.10446
0.10337
0.10188
0.099306
0.096774
0.092191
0.089996
0.082169
0.081492
0.070563
0.070029
0.10476
0.10459
0.10348
0.10198
0.099373
0.096813
0.092172
0.089933
0.082064
0.081292
0.070403
0.069746
0.10489
0.10472
0.1036
0.10209
0.099442
0.096855
0.092155
0.089871
0.08196
0.081091
0.070241
0.069461
0.10503
0.10485
0.10372
0.10219
0.099514
0.096898
0.09214
0.08981
0.081857
0.08089
0.070079
0.069175
0.10517
0.10499
0.10385
0.1023
0.099589
0.096945
0.092126
0.089749
0.081755
0.080688
0.069915
0.068888
0.10531
0.10513
0.10398
0.10241
0.099667
0.096993
0.092115
0.089688
0.081653
0.080487
0.069751
0.0686
0.10546
0.10527
0.10412
0.10253
0.099748
0.097044
0.092105
0.089629
0.081553
0.080285
0.069585
0.068311
0.10561
0.10542
0.10425
0.10265
0.099832
0.097097
0.092098
0.08957
0.081453
0.080082
0.069418
0.06802
0.10576
0.10558
0.1044
0.10277
0.099919
0.097154
0.092093
0.089511
0.081355
0.079879
0.06925
0.067728
0.10592
0.10574
0.10454
0.1029
0.10001
0.097213
0.092091
0.089454
0.081257
0.079676
0.069081
0.067434
0.10609
0.1059
0.10469
0.10303
0.1001
0.097275
0.092091
0.089398
0.08116
0.079472
0.068909
0.067138
0.10626
0.10607
0.10485
0.10317
0.1002
0.09734
0.092094
0.089343
0.081064
0.079268
0.068737
0.06684
0.10643
0.10624
0.10501
0.10331
0.10031
0.097409
0.092099
0.089288
0.080969
0.079063
0.068562
0.06654
0.10661
0.10642
0.10518
0.10345
0.10041
0.09748
0.092108
0.089235
0.080875
0.078858
0.068386
0.066237
0.10679
0.1066
0.10535
0.10361
0.10052
0.097556
0.092119
0.089184
0.080782
0.078653
0.068208
0.065933
0.10698
0.10679
0.10552
0.10376
0.10064
0.097635
0.092134
0.089134
0.080691
0.078447
0.068028
0.065625
0.10718
0.10698
0.1057
0.10392
0.10076
0.097718
0.092151
0.089085
0.0806
0.078241
0.067846
0.065315
0.10738
0.10719
0.10589
0.10409
0.10089
0.097805
0.092173
0.089038
0.08051
0.078034
0.067662
0.065002
0.10759
0.10739
0.10608
0.10426
0.10102
0.097896
0.092198
0.088992
0.080422
0.077827
0.067475
0.064686
0.1078
0.10761
0.10628
0.10444
0.10115
0.097992
0.092226
0.088948
0.080335
0.077619
0.067287
0.064367
0.10802
0.10783
0.10649
0.10463
0.10129
0.098092
0.092259
0.088906
0.080249
0.07741
0.067095
0.064044
0.10825
0.10805
0.1067
0.10482
0.10144
0.098197
0.092295
0.088867
0.080164
0.077201
0.066901
0.063718
0.10848
0.10829
0.10692
0.10502
0.1016
0.098307
0.092336
0.088829
0.080081
0.076992
0.066705
0.063388
0.10872
0.10853
0.10715
0.10522
0.10176
0.098422
0.092381
0.088793
0.079998
0.076782
0.066505
0.063054
0.10897
0.10878
0.10739
0.10544
0.10192
0.098543
0.092431
0.08876
0.079917
0.076571
0.066303
0.062716
0.10923
0.10904
0.10763
0.10566
0.1021
0.098669
0.092486
0.088729
0.079838
0.076359
0.066097
0.062374
0.10949
0.1093
0.10788
0.10588
0.10228
0.098801
0.092545
0.088701
0.079759
0.076147
0.065888
0.062027
0.10976
0.10958
0.10814
0.10612
0.10246
0.098939
0.092609
0.088675
0.079682
0.075934
0.065676
0.061675
0.11004
0.10986
0.10841
0.10636
0.10266
0.099083
0.092679
0.088653
0.079607
0.07572
0.06546
0.061318
0.11033
0.11015
0.10869
0.10662
0.10286
0.099233
0.092754
0.088633
0.079532
0.075505
0.065241
0.060956
0.11063
0.11045
0.10897
0.10688
0.10307
0.099391
0.092835
0.088616
0.079459
0.075289
0.065017
0.060588
0.11094
0.11076
0.10927
0.10715
0.10329
0.099555
0.092921
0.088602
0.079388
0.075072
0.06479
0.060215
0.11126
0.11109
0.10958
0.10743
0.10352
0.099726
0.093014
0.088591
0.079318
0.074854
0.064558
0.059835
0.11158
0.11142
0.10989
0.10773
0.10376
0.099905
0.093112
0.088583
0.079249
0.074635
0.064321
0.059449
0.11192
0.11176
0.11022
0.10803
0.10401
0.10009
0.093217
0.088579
0.079181
0.074415
0.06408
0.059056
0.11227
0.11211
0.11056
0.10834
0.10427
0.10029
0.093328
0.088578
0.079115
0.074192
0.063834
0.058656
0.11263
0.11248
0.11091
0.10866
0.10453
0.10049
0.093446
0.088581
0.079049
0.073969
0.063583
0.058249
0.113
0.11286
0.11127
0.109
0.10481
0.1007
0.093571
0.088587
0.078985
0.073743
0.063326
0.057834
0.11339
0.11325
0.11165
0.10934
0.1051
0.10092
0.093703
0.088597
0.078922
0.073515
0.063063
0.057411
0.11378
0.11365
0.11203
0.1097
0.1054
0.10115
0.093841
0.08861
0.07886
0.073286
0.062794
0.056979
0.11419
0.11406
0.11243
0.11007
0.10571
0.10138
0.093987
0.088627
0.078798
0.073053
0.062519
0.056539
0.11461
0.11449
0.11284
0.11046
0.10603
0.10163
0.094141
0.088648
0.078737
0.072818
0.062236
0.056088
0.11504
0.11493
0.11327
0.11085
0.10637
0.10189
0.094302
0.088672
0.078677
0.072581
0.061947
0.055628
0.11549
0.11539
0.11371
0.11126
0.10672
0.10215
0.09447
0.0887
0.078617
0.07234
0.061649
0.055158
0.11595
0.11586
0.11417
0.11169
0.10708
0.10243
0.094646
0.088732
0.078557
0.072095
0.061344
0.054677
0.11642
0.11634
0.11464
0.11213
0.10745
0.10271
0.09483
0.088767
0.078497
0.071847
0.06103
0.054184
0.11691
0.11684
0.11512
0.11258
0.10784
0.10301
0.095022
0.088805
0.078437
0.071594
0.060707
0.053679
0.11742
0.11736
0.11563
0.11305
0.10824
0.10332
0.095223
0.088848
0.078376
0.071336
0.060375
0.053161
0.11794
0.11789
0.11615
0.11353
0.10865
0.10364
0.095431
0.088893
0.078314
0.071074
0.060032
0.05263
0.11847
0.11844
0.11668
0.11403
0.10908
0.10397
0.095648
0.088942
0.078251
0.070806
0.059678
0.052084
0.11903
0.11901
0.11724
0.11455
0.10953
0.10431
0.095873
0.088994
0.078187
0.070532
0.059313
0.051524
0.1196
0.1196
0.11781
0.11509
0.10999
0.10466
0.096107
0.089048
0.07812
0.070251
0.058936
0.050949
0.12019
0.1202
0.1184
0.11564
0.11047
0.10503
0.096349
0.089106
0.078052
0.069964
0.058546
0.050357
0.1208
0.12083
0.11902
0.11621
0.11097
0.10541
0.0966
0.089166
0.077981
0.069668
0.058142
0.049747
0.12143
0.12147
0.11965
0.11681
0.11148
0.1058
0.09686
0.089229
0.077906
0.069364
0.057724
0.04912
0.12208
0.12214
0.12031
0.11742
0.11201
0.1062
0.097129
0.089295
0.077828
0.069051
0.057291
0.048473
0.12275
0.12283
0.12099
0.11805
0.11256
0.10662
0.097408
0.089362
0.077746
0.068728
0.056841
0.047807
0.12344
0.12355
0.12169
0.11871
0.11313
0.10705
0.097696
0.089432
0.07766
0.068395
0.056375
0.047119
0.12416
0.12428
0.12242
0.11939
0.11373
0.1075
0.097993
0.089503
0.077568
0.06805
0.05589
0.046409
0.1249
0.12505
0.12317
0.1201
0.11434
0.10797
0.098301
0.089577
0.077471
0.067694
0.055386
0.045676
0.12567
0.12584
0.12396
0.12083
0.11498
0.10845
0.098618
0.089652
0.077368
0.067324
0.054863
0.044918
0.12646
0.12667
0.12477
0.12159
0.11564
0.10895
0.098947
0.089728
0.077258
0.06694
0.054317
0.044134
0.12729
0.12752
0.12562
0.12238
0.11633
0.10947
0.099286
0.089806
0.077141
0.066542
0.053749
0.043323
0.12815
0.12841
0.1265
0.1232
0.11705
0.11001
0.099637
0.089885
0.077015
0.066128
0.053158
0.042483
0.12904
0.12933
0.12742
0.12406
0.1178
0.11057
0.1
0.089965
0.076881
0.065696
0.052541
0.041614
0.12997
0.13029
0.12838
0.12495
0.11858
0.11115
0.10038
0.090046
0.076738
0.065247
0.051898
0.040712
0.13093
0.13129
0.12938
0.12589
0.11939
0.11175
0.10076
0.090128
0.076585
0.064779
0.051227
0.039777
0.13194
0.13234
0.13042
0.12686
0.12024
0.11238
0.10117
0.090211
0.07642
0.06429
0.050526
0.038807
0.13299
0.13343
0.13152
0.12788
0.12113
0.11304
0.10158
0.090294
0.076244
0.06378
0.049794
0.037799
0.1341
0.13458
0.13266
0.12895
0.12206
0.11373
0.10201
0.090377
0.076055
0.063245
0.049029
0.036753
0.13525
0.13578
0.13387
0.13007
0.12304
0.11444
0.10246
0.09046
0.075851
0.062686
0.048228
0.035665
0.13645
0.13704
0.13513
0.13125
0.12406
0.11519
0.10293
0.090543
0.075631
0.062099
0.04739
0.034533
0.13772
0.13836
0.13646
0.13249
0.12513
0.11598
0.10341
0.090623
0.075394
0.061482
0.046511
0.033355
0.13904
0.13975
0.13786
0.1338
0.12626
0.1168
0.1039
0.090701
0.075137
0.060833
0.04559
0.032128
0.14043
0.14121
0.13933
0.13517
0.12744
0.11766
0.10442
0.090775
0.074857
0.060149
0.044622
0.030848
0.1419
0.14275
0.14088
0.13662
0.12869
0.11856
0.10495
0.090843
0.074552
0.059425
0.043604
0.029513
0.14343
0.14437
0.14252
0.13815
0.13
0.1195
0.10549
0.090903
0.074218
0.058659
0.042532
0.028119
0.14505
0.14608
0.14425
0.13977
0.13137
0.12048
0.10605
0.090952
0.073851
0.057844
0.0414
0.02666
0.14675
0.14788
0.14608
0.14147
0.13282
0.12151
0.10662
0.090986
0.073445
0.056976
0.040204
0.025133
0.14854
0.14979
0.14801
0.14328
0.13434
0.12259
0.10721
0.091001
0.072995
0.056047
0.038938
0.023533
0.15042
0.1518
0.15005
0.14518
0.13594
0.1237
0.1078
0.090991
0.072493
0.055052
0.037593
0.021852
0.1524
0.15392
0.15221
0.14719
0.13762
0.12487
0.10839
0.09095
0.071932
0.05398
0.036163
0.020084
0.15448
0.15616
0.15449
0.14932
0.13939
0.12607
0.10898
0.09087
0.071302
0.052824
0.034637
0.018221
0.15666
0.15852
0.1569
0.15156
0.14123
0.12731
0.10956
0.090742
0.070594
0.051573
0.033008
0.016255
0.15895
0.16102
0.15945
0.15393
0.14316
0.12859
0.11013
0.090555
0.069794
0.050214
0.031263
0.014175
0.16136
0.16365
0.16215
0.15643
0.14519
0.12991
0.11067
0.090299
0.068891
0.048736
0.02939
0.011973
0.16389
0.16644
0.165
0.15907
0.1473
0.13124
0.11117
0.089957
0.067869
0.047124
0.027378
0.0096348
0.16655
0.16938
0.16803
0.16185
0.14949
0.1326
0.11162
0.089515
0.066711
0.045364
0.025213
0.0071502
0.16934
0.1725
0.17125
0.1648
0.15179
0.13397
0.112
0.088953
0.0654
0.043438
0.022879
0.0045062
0.17228
0.17581
0.17467
0.16791
0.15417
0.13533
0.1123
0.08825
0.063914
0.041329
0.020362
0.0016897
0.17538
0.17933
0.17831
0.1712
0.15664
0.13667
0.11249
0.087379
0.062228
0.039015
0.017644
-0.0013126
0.17864
0.18308
0.18221
0.17469
0.1592
0.13798
0.11254
0.086309
0.060314
0.036474
0.014708
-0.0045143
0.18209
0.18709
0.18639
0.17839
0.16184
0.13923
0.11242
0.085001
0.058138
0.033677
0.011533
-0.0079294
0.18574
0.19138
0.19088
0.18231
0.16454
0.14038
0.11208
0.08341
0.055659
0.030593
0.0080939
-0.011573
0.1896
0.196
0.19571
0.18647
0.1673
0.14139
0.11147
0.08148
0.052828
0.027183
0.0043647
-0.01546
0.1937
0.20097
0.20094
0.19088
0.17008
0.1422
0.11051
0.079141
0.049588
0.023402
0.00031258
-0.01961
0.19802
0.20634
0.20657
0.19552
0.17282
0.14273
0.10912
0.076313
0.04587
0.019197
-0.0040993
-0.02404
0.20258
0.21214
0.21266
0.20037
0.17545
0.14287
0.10719
0.072898
0.041596
0.014508
-0.0089118
-0.028773
0.20737
0.2184
0.21919
0.2054
0.17787
0.14249
0.10458
0.068788
0.036682
0.0092744
-0.014166
-0.033827
0.21236
0.22513
0.22616
0.21049
0.17991
0.14143
0.10115
0.06386
0.03104
0.003436
-0.019899
-0.039216
0.21752
0.23233
0.23351
0.21552
0.18137
0.13945
0.096714
0.057986
0.024585
-0.0030565
-0.026135
-0.044944
0.22278
0.23996
0.24112
0.22023
0.18195
0.13631
0.091066
0.051034
0.017248
-0.010232
-0.032872
-0.050988
0.22808
0.24793
0.24876
0.22428
0.18127
0.13166
0.083992
0.042884
0.0089782
-0.018089
-0.040078
-0.057301
0.23337
0.25606
0.25599
0.2271
0.17882
0.12515
0.075269
0.033436
-0.00023832
-0.026586
-0.047679
-0.063796
0.23859
0.26398
0.2621
0.22787
0.17392
0.11635
0.064691
0.022634
-0.010368
-0.035639
-0.05556
-0.070353
0.24378
0.27105
0.26587
0.22537
0.1657
0.1048
0.05211
0.010496
-0.021312
-0.045113
-0.063568
-0.076826
0.24905
0.27615
0.26538
0.21784
0.1531
0.090074
0.037484
-0.0028409
-0.032882
-0.05482
-0.071527
-0.083067
0.25471
0.27748
0.25772
0.20293
0.13486
0.071799
0.02092
-0.017101
-0.044785
-0.064516
-0.079245
-0.088938
0.26135
0.27252
0.23901
0.1777
0.10963
0.049716
0.002666
-0.031891
-0.056653
-0.073922
-0.086536
-0.094339
0.26978
0.25841
0.20514
0.13924
0.076208
0.023689
-0.016984
-0.046817
-0.068128
-0.08278
-0.09325
-0.099218
0.28023
0.2318
0.15316
0.085937
0.034032
-0.0062724
-0.037819
-0.061635
-0.078999
-0.090946
-0.099328
-0.10361
0.29277
0.18638
0.07938
0.016887
-0.017306
-0.040572
-0.060181
-0.076617
-0.089492
-0.098628
-0.10498
-0.10776
0.31735
0.12313
-0.016009
-0.066436
-0.077373
-0.080049
-0.085362
-0.093041
-0.10074
-0.1068
-0.11106
-0.11246
0.36565
0.059782
-0.1171
-0.15208
-0.13844
-0.1208
-0.11194
-0.11068
-0.11296
-0.11576
-0.11786
-0.11787
0.10412
0.064922
0.054847
0.048808
0.044581
0.041311
0.038613
0.036126
0.033959
0.031504
0.029722
0.026253
0.12369
0.080417
0.067898
0.059872
0.054328
0.050105
0.046665
0.043525
0.04083
0.037764
0.035632
0.031458
0.11088
0.075131
0.063796
0.055902
0.050441
0.04631
0.042978
0.039955
0.037407
0.03447
0.032546
0.028453
0.10578
0.074748
0.063736
0.055749
0.050155
0.045916
0.04251
0.039423
0.036854
0.033861
0.031972
0.027683
0.10516
0.076922
0.065746
0.057539
0.0517
0.04725
0.043676
0.040437
0.037758
0.03462
0.032671
0.028128
0.10453
0.078742
0.067489
0.059143
0.053104
0.048473
0.04475
0.041373
0.038593
0.035328
0.033314
0.028579
0.10342
0.080026
0.068842
0.060439
0.054252
0.049472
0.045622
0.04213
0.039264
0.035898
0.033827
0.028964
0.10225
0.081081
0.070055
0.061647
0.055344
0.050432
0.046467
0.042871
0.039925
0.036475
0.034349
0.029418
0.10116
0.081994
0.071195
0.062827
0.056437
0.051409
0.047337
0.043644
0.040623
0.037108
0.03493
0.029986
0.10012
0.082757
0.07225
0.063964
0.057523
0.052399
0.048231
0.044451
0.041361
0.037797
0.035574
0.030676
0.099107
0.08337
0.073206
0.065046
0.05859
0.053392
0.049142
0.045289
0.042138
0.038545
0.036287
0.031488
0.098129
0.083844
0.074062
0.066064
0.059628
0.054382
0.050068
0.046156
0.042955
0.039352
0.037069
0.032418
0.097183
0.084197
0.07482
0.067011
0.060629
0.055362
0.051003
0.047048
0.043808
0.040214
0.037917
0.033458
0.096272
0.084445
0.07548
0.067885
0.061585
0.056322
0.051937
0.047956
0.044691
0.041124
0.038823
0.034591
0.095396
0.084602
0.07605
0.068683
0.062489
0.057254
0.052862
0.048873
0.045595
0.042071
0.039778
0.035798
0.094556
0.084682
0.076534
0.069406
0.063337
0.05815
0.05377
0.049788
0.046511
0.043045
0.040766
0.037058
0.093753
0.084699
0.076941
0.070055
0.064127
0.059006
0.054653
0.050694
0.047428
0.044034
0.041775
0.038347
0.092987
0.084663
0.077279
0.070635
0.064857
0.059817
0.055505
0.051584
0.048337
0.045026
0.042792
0.039644
0.092257
0.084585
0.077554
0.07115
0.065529
0.060581
0.056323
0.052449
0.049232
0.046011
0.043805
0.040929
0.091563
0.084472
0.077774
0.071605
0.066144
0.061298
0.057102
0.053287
0.050105
0.04698
0.044802
0.042187
0.090901
0.084331
0.077947
0.072005
0.066705
0.061968
0.057841
0.054092
0.050951
0.047924
0.045774
0.043401
0.090272
0.084168
0.078077
0.072355
0.067216
0.062591
0.05854
0.054862
0.051766
0.048838
0.046716
0.044564
0.089672
0.083987
0.07817
0.07266
0.067679
0.06317
0.059197
0.055596
0.052547
0.049717
0.047621
0.045666
0.089101
0.083793
0.078232
0.072924
0.068099
0.063706
0.059815
0.056292
0.053292
0.050557
0.048485
0.046703
0.088556
0.083589
0.078266
0.073151
0.068477
0.064201
0.060393
0.056951
0.054001
0.051356
0.049308
0.047673
0.088035
0.083376
0.078276
0.073346
0.068818
0.064657
0.060934
0.057572
0.054673
0.052114
0.050086
0.048575
0.087538
0.083158
0.078266
0.07351
0.069125
0.065078
0.061438
0.058157
0.055308
0.05283
0.050821
0.049411
0.087061
0.082935
0.078237
0.073648
0.0694
0.065464
0.061908
0.058706
0.055906
0.053503
0.051512
0.050183
0.086604
0.08271
0.078193
0.073762
0.069645
0.065819
0.062344
0.05922
0.05647
0.054135
0.052161
0.050894
0.086165
0.082483
0.078136
0.073854
0.069863
0.066143
0.06275
0.059701
0.056999
0.054727
0.052769
0.051548
0.085742
0.082254
0.078066
0.073927
0.070057
0.06644
0.063125
0.06015
0.057495
0.055281
0.053337
0.052149
0.085336
0.082025
0.077987
0.073982
0.070228
0.06671
0.063473
0.060568
0.05796
0.055797
0.053867
0.0527
0.084944
0.081797
0.077898
0.074021
0.070378
0.066956
0.063793
0.060957
0.058394
0.056278
0.054362
0.053206
0.084565
0.081569