/*--------------------------------*- C++ -*----------------------------------*\
  =========                 |
  \\      /  F ield         | OpenFOAM: The Open Source CFD Toolbox
   \\    /   O peration     | Website:  https://openfoam.org
    \\  /    A nd           | Version:  6.0
     \\/     M anipulation  |
\*---------------------------------------------------------------------------*/
FoamFile
{
    version     2.0;
    format      ascii;
    class       surfaceScalarField;
    location    "0.22";
    object      phi;
}
// * * * * * * * * * * * * * * * * * * * * * * * * * * * * * * * * * * * * * //

dimensions      [0 3 -1 0 0 0 0];

internalField   nonuniform List<scalar> 
26699
(
2.0052e-05
0.005201
3.9408e-10
4.0126e-05
0.0051116
5.9639e-05
0.0049351
7.8187e-05
0.0046741
9.5415e-05
0.0043332
0.00011103
0.0039182
0.00012471
0.0034362
0.00013628
0.0028953
0.00014544
0.002305
0.00015202
0.0016753
0.00015677
0.001016
0.00046055
3.8427e-05
2.0052e-05
0.0051809
1.1243e-09
4.0128e-05
0.0050916
5.9643e-05
0.0049155
7.8193e-05
0.0046556
9.542e-05
0.004316
0.00011103
0.0039026
0.00012471
0.0034225
0.00013628
0.0028837
0.00014541
0.0022959
0.00015169
0.001669
0.00015775
0.0010099
0.00054312
7.5175e-05
2.0053e-05
0.0051609
1.8089e-09
4.0131e-05
0.0050715
5.9647e-05
0.004896
7.8199e-05
0.004637
9.5429e-05
0.0042988
0.00011104
0.003887
0.00012472
0.0034088
0.00013627
0.0028722
0.00014543
0.0022867
0.0001514
0.001663
0.00015824
0.0010031
0.0005973
0.00010407
2.0055e-05
0.0051408
2.4953e-09
4.0134e-05
0.0050514
5.9652e-05
0.0048765
7.8205e-05
0.0046185
9.5438e-05
0.0042815
0.00011105
0.0038714
0.00012474
0.0033951
0.00013627
0.0028607
0.00014545
0.0022775
0.0001512
0.0016573
0.00015823
0.00099609
0.00062996
0.00012557
2.0056e-05
0.0051208
3.1794e-09
4.0137e-05
0.0050313
5.9658e-05
0.004857
7.8213e-05
0.0045999
9.545e-05
0.0042643
0.00011106
0.0038558
0.00012476
0.0033814
0.00013628
0.0028491
0.00014549
0.0022683
0.00015109
0.0016517
0.00015786
0.00098932
0.00064698
0.00014083
2.0057e-05
0.0051007
3.8596e-09
4.0141e-05
0.0050112
5.9665e-05
0.0048375
7.8222e-05
0.0045813
9.5464e-05
0.0042471
0.00011108
0.0038401
0.00012479
0.0033677
0.00013629
0.0028376
0.00014553
0.0022591
0.00015104
0.0016462
0.00015731
0.00098305
0.00065313
0.00015115
2.0059e-05
0.0050806
4.5339e-09
4.0146e-05
0.0049912
5.9673e-05
0.0048179
7.8234e-05
0.0045628
9.5481e-05
0.0042298
0.0001111
0.0038245
0.00012482
0.003354
0.00013631
0.0028261
0.00014557
0.0022498
0.00015105
0.0016407
0.00015675
0.00097736
0.00065211
0.00015777
2.0061e-05
0.0050606
5.199e-09
4.0151e-05
0.0049711
5.9682e-05
0.0047984
7.8247e-05
0.0045442
9.55e-05
0.0042126
0.00011112
0.0038089
0.00012485
0.0033403
0.00013634
0.0028147
0.00014561
0.0022406
0.00015109
0.0016352
0.00015625
0.00097219
0.00064659
0.00016178
2.0064e-05
0.0050405
5.8508e-09
4.0157e-05
0.004951
5.9693e-05
0.0047789
7.8262e-05
0.0045257
9.5522e-05
0.0041953
0.00011115
0.0037933
0.00012488
0.0033265
0.00013636
0.0028032
0.00014564
0.0022313
0.00015116
0.0016297
0.00015588
0.00096747
0.00063843
0.00016403
2.0067e-05
0.0050204
6.4843e-09
4.0164e-05
0.0049309
5.9704e-05
0.0047593
7.8279e-05
0.0045071
9.5545e-05
0.004178
0.00011117
0.0037776
0.00012491
0.0033128
0.00013639
0.0027917
0.00014567
0.002222
0.00015123
0.0016241
0.00015561
0.00096309
0.00062887
0.00016518
2.0071e-05
0.0050004
7.0938e-09
4.0172e-05
0.0049108
5.9717e-05
0.0047398
7.8298e-05
0.0044885
9.5568e-05
0.0041608
0.0001112
0.003762
0.00012495
0.003299
0.00013641
0.0027802
0.0001457
0.0022127
0.0001513
0.0016185
0.00015545
0.00095894
0.00061865
0.00016566
2.0075e-05
0.0049803
7.6734e-09
4.0181e-05
0.0048907
5.9731e-05
0.0047202
7.8316e-05
0.0044699
9.5592e-05
0.0041435
0.00011123
0.0037464
0.00012497
0.0032853
0.00013644
0.0027688
0.00014572
0.0022034
0.00015138
0.0016129
0.00015536
0.00095495
0.00060824
0.00016578
2.0079e-05
0.0049602
8.2175e-09
4.019e-05
0.0048706
5.9745e-05
0.0047007
7.8335e-05
0.0044513
9.5615e-05
0.0041262
0.00011125
0.0037307
0.000125
0.0032716
0.00013646
0.0027573
0.00014573
0.0021942
0.00015145
0.0016071
0.00015533
0.00095107
0.00059787
0.00016569
2.0083e-05
0.0049401
8.7213e-09
4.0199e-05
0.0048504
5.9759e-05
0.0046811
7.8353e-05
0.0044327
9.5636e-05
0.0041089
0.00011127
0.0037151
0.00012502
0.0032578
0.00013647
0.0027459
0.00014574
0.0021849
0.00015151
0.0016014
0.00015533
0.00094726
0.00058769
0.00016551
2.0087e-05
0.00492
9.1811e-09
4.0208e-05
0.0048303
5.9772e-05
0.0046616
7.8369e-05
0.0044141
9.5655e-05
0.0040916
0.00011129
0.0036995
0.00012504
0.0032441
0.00013649
0.0027344
0.00014575
0.0021756
0.00015157
0.0015956
0.00015535
0.00094348
0.00057774
0.00016529
2.0091e-05
0.0048999
9.5949e-09
4.0216e-05
0.0048102
5.9784e-05
0.004642
7.8384e-05
0.0043955
9.5671e-05
0.0040744
0.00011131
0.0036838
0.00012505
0.0032303
0.0001365
0.0027229
0.00014576
0.0021664
0.00015163
0.0015897
0.00015538
0.00093973
0.00056806
0.00016506
2.0095e-05
0.0048798
9.962e-09
4.0224e-05
0.0047901
5.9795e-05
0.0046224
7.8398e-05
0.0043769
9.5686e-05
0.0040571
0.00011132
0.0036682
0.00012506
0.0032166
0.00013651
0.0027115
0.00014576
0.0021571
0.00015169
0.0015837
0.00015542
0.000936
0.00055865
0.00016483
2.0098e-05
0.0048597
1.0283e-08
4.023e-05
0.0047699
5.9805e-05
0.0046028
7.8409e-05
0.0043583
9.5697e-05
0.0040398
0.00011133
0.0036526
0.00012507
0.0032028
0.00013652
0.0027001
0.00014577
0.0021479
0.00015174
0.0015778
0.00015546
0.00093227
0.0005495
0.00016461
2.0101e-05
0.0048396
1.0562e-08
4.0237e-05
0.0047498
5.9813e-05
0.0045833
7.8419e-05
0.0043397
9.5707e-05
0.0040225
0.00011134
0.0036369
0.00012508
0.0031891
0.00013653
0.0026886
0.00014577
0.0021386
0.00015179
0.0015718
0.00015551
0.00092856
0.00054061
0.0001644
2.0104e-05
0.0048195
1.0801e-08
4.0242e-05
0.0047297
5.982e-05
0.0045637
7.8427e-05
0.0043211
9.5715e-05
0.0040052
0.00011135
0.0036213
0.00012508
0.0031754
0.00013653
0.0026772
0.00014577
0.0021294
0.00015184
0.0015657
0.00015555
0.00092485
0.00053197
0.00016419
2.0106e-05
0.0047993
1.1004e-08
4.0246e-05
0.0047095
5.9826e-05
0.0045441
7.8434e-05
0.0043025
9.5722e-05
0.0039879
0.00011135
0.0036057
0.00012509
0.0031616
0.00013654
0.0026657
0.00014578
0.0021202
0.00015189
0.0015596
0.00015559
0.00092115
0.00052356
0.000164
2.0108e-05
0.0047792
1.1176e-08
4.025e-05
0.0046894
5.9831e-05
0.0045245
7.8439e-05
0.0042839
9.5727e-05
0.0039706
0.00011136
0.00359
0.00012509
0.0031479
0.00013655
0.0026543
0.00014578
0.0021109
0.00015194
0.0015534
0.00015563
0.00091745
0.00051538
0.00016382
2.011e-05
0.0047591
1.1323e-08
4.0253e-05
0.0046692
5.9835e-05
0.0045049
7.8443e-05
0.0042653
9.5731e-05
0.0039533
0.00011136
0.0035744
0.0001251
0.0031342
0.00013655
0.0026428
0.00014578
0.0021017
0.00015198
0.0015472
0.00015568
0.00091376
0.00050742
0.00016364
2.0111e-05
0.004739
1.1448e-08
4.0255e-05
0.0046491
5.9838e-05
0.0044854
7.8447e-05
0.0042467
9.5735e-05
0.003936
0.00011137
0.0035588
0.0001251
0.0031204
0.00013656
0.0026313
0.00014579
0.0020925
0.00015203
0.001541
0.00015572
0.00091007
0.00049966
0.00016347
2.0112e-05
0.0047189
1.1555e-08
4.0257e-05
0.0046289
5.9841e-05
0.0044658
7.845e-05
0.0042281
9.5737e-05
0.0039188
0.00011137
0.0035431
0.0001251
0.0031067
0.00013656
0.0026199
0.00014579
0.0020832
0.00015207
0.0015347
0.00015576
0.00090638
0.00049211
0.00016331
2.0113e-05
0.0046987
1.1649e-08
4.0259e-05
0.0046088
5.9843e-05
0.0044462
7.8452e-05
0.0042095
9.574e-05
0.0039015
0.00011137
0.0035275
0.0001251
0.003093
0.00013657
0.0026084
0.00014579
0.002074
0.00015211
0.0015284
0.0001558
0.00090269
0.00048476
0.00016315
2.0114e-05
0.0046786
1.1732e-08
4.026e-05
0.0045887
5.9845e-05
0.0044266
7.8454e-05
0.0041908
9.5742e-05
0.0038842
0.00011137
0.0035119
0.00012511
0.0030792
0.00013657
0.0025969
0.0001458
0.0020648
0.00015215
0.001522
0.00015584
0.00089901
0.00047759
0.000163
2.0114e-05
0.0046585
1.1807e-08
4.0262e-05
0.0045685
5.9846e-05
0.004407
7.8456e-05
0.0041722
9.5744e-05
0.0038669
0.00011138
0.0034962
0.00012511
0.0030655
0.00013658
0.0025855
0.0001458
0.0020556
0.00015219
0.0015156
0.00015587
0.00089532
0.00047061
0.00016286
2.0115e-05
0.0046384
1.1875e-08
4.0263e-05
0.0045484
5.9848e-05
0.0043874
7.8458e-05
0.0041536
9.5746e-05
0.0038496
0.00011138
0.0034806
0.00012511
0.0030518
0.00013659
0.002574
0.00014581
0.0020464
0.00015223
0.0015092
0.00015591
0.00089164
0.0004638
0.00016272
2.0115e-05
0.0046182
1.194e-08
4.0263e-05
0.0045282
5.9849e-05
0.0043679
7.8459e-05
0.004135
9.5748e-05
0.0038323
0.00011138
0.003465
0.00012512
0.003038
0.00013659
0.0025625
0.00014581
0.0020371
0.00015226
0.0015028
0.00015595
0.00088795
0.00045716
0.00016259
2.0116e-05
0.0045981
1.2002e-08
4.0264e-05
0.0045081
5.985e-05
0.0043483
7.8461e-05
0.0041164
9.575e-05
0.003815
0.00011138
0.0034493
0.00012512
0.0030243
0.0001366
0.002551
0.00014582
0.0020279
0.0001523
0.0014963
0.00015599
0.00088427
0.00045069
0.00016246
2.0116e-05
0.004578
1.2062e-08
4.0265e-05
0.0044879
5.9851e-05
0.0043287
7.8462e-05
0.0040978
9.5752e-05
0.0037977
0.00011139
0.0034337
0.00012512
0.0030106
0.00013661
0.0025396
0.00014582
0.0020187
0.00015233
0.0014898
0.00015602
0.00088058
0.00044438
0.00016233
2.0116e-05
0.0045578
1.2121e-08
4.0266e-05
0.0044678
5.9852e-05
0.0043091
7.8464e-05
0.0040792
9.5753e-05
0.0037805
0.00011139
0.0034181
0.00012512
0.0029968
0.00013661
0.0025281
0.00014583
0.0020095
0.00015237
0.0014832
0.00015606
0.00087688
0.00043823
0.00016222
2.0117e-05
0.0045377
1.2179e-08
4.0266e-05
0.0044476
5.9853e-05
0.0042895
7.8465e-05
0.0040606
9.5755e-05
0.0037632
0.00011139
0.0034024
0.00012513
0.0029831
0.00013662
0.0025166
0.00014583
0.0020003
0.0001524
0.0014767
0.0001561
0.00087319
0.00043222
0.0001621
2.0117e-05
0.0045176
1.2237e-08
4.0267e-05
0.0044275
5.9854e-05
0.0042699
7.8466e-05
0.004042
9.5757e-05
0.0037459
0.00011139
0.0033868
0.00012513
0.0029694
0.00013663
0.0025051
0.00014584
0.0019911
0.00015243
0.0014701
0.00015613
0.00086949
0.00042636
0.00016199
2.0117e-05
0.0044975
1.2295e-08
4.0268e-05
0.0044073
5.9855e-05
0.0042503
7.8468e-05
0.0040233
9.5759e-05
0.0037286
0.0001114
0.0033711
0.00012513
0.0029556
0.00013663
0.0024936
0.00014584
0.0019819
0.00015246
0.0014634
0.00015617
0.00086579
0.00042064
0.00016188
2.0117e-05
0.0044773
1.2354e-08
4.0268e-05
0.0043872
5.9856e-05
0.0042308
7.8469e-05
0.0040047
9.5761e-05
0.0037113
0.0001114
0.0033555
0.00012514
0.0029419
0.00013664
0.0024821
0.00014585
0.0019726
0.00015249
0.0014568
0.0001562
0.00086208
0.00041506
0.00016178
2.0118e-05
0.0044572
1.2413e-08
4.0269e-05
0.004367
5.9857e-05
0.0042112
7.8471e-05
0.0039861
9.5763e-05
0.003694
0.0001114
0.0033399
0.00012514
0.0029282
0.00013665
0.0024706
0.00014586
0.0019634
0.00015252
0.0014501
0.00015623
0.00085837
0.00040962
0.00016168
2.0118e-05
0.0044371
1.2472e-08
4.027e-05
0.0043469
5.9858e-05
0.0041916
7.8472e-05
0.0039675
9.5765e-05
0.0036767
0.00011141
0.0033242
0.00012514
0.0029144
0.00013666
0.0024591
0.00014586
0.0019542
0.00015255
0.0014434
0.00015627
0.00085465
0.0004043
0.00016159
2.0118e-05
0.0044169
1.2533e-08
4.027e-05
0.0043267
5.9859e-05
0.004172
7.8474e-05
0.0039489
9.5767e-05
0.0036594
0.00011141
0.0033086
0.00012515
0.0029007
0.00013666
0.0024475
0.00014587
0.001945
0.00015258
0.0014367
0.0001563
0.00085093
0.0003991
0.00016149
2.0119e-05
0.0043968
1.2594e-08
4.0271e-05
0.0043066
5.986e-05
0.0041524
7.8475e-05
0.0039303
9.5769e-05
0.0036421
0.00011141
0.0032929
0.00012515
0.002887
0.00013667
0.002436
0.00014588
0.0019358
0.0001526
0.00143
0.00015633
0.0008472
0.00039403
0.00016141
2.0119e-05
0.0043767
1.2655e-08
4.0272e-05
0.0042864
5.9862e-05
0.0041328
7.8477e-05
0.0039117
9.5771e-05
0.0036248
0.00011141
0.0032773
0.00012515
0.0028732
0.00013668
0.0024245
0.00014588
0.0019266
0.00015263
0.0014233
0.00015636
0.00084347
0.00038907
0.00016132
2.0119e-05
0.0043565
1.2718e-08
4.0272e-05
0.0042662
5.9863e-05
0.0041132
7.8479e-05
0.003893
9.5773e-05
0.0036075
0.00011142
0.0032617
0.00012516
0.0028595
0.00013669
0.002413
0.00014589
0.0019174
0.00015266
0.0014165
0.0001564
0.00083973
0.00038423
0.00016124
2.012e-05
0.0043364
1.2782e-08
4.0273e-05
0.0042461
5.9864e-05
0.0040936
7.848e-05
0.0038744
9.5775e-05
0.0035902
0.00011142
0.003246
0.00012516
0.0028457
0.00013669
0.0024014
0.0001459
0.0019082
0.00015268
0.0014097
0.00015643
0.00083598
0.0003795
0.00016116
2.012e-05
0.0043163
1.2846e-08
4.0274e-05
0.0042259
5.9865e-05
0.004074
7.8482e-05
0.0038558
9.5777e-05
0.0035729
0.00011142
0.0032304
0.00012516
0.002832
0.0001367
0.0023899
0.00014591
0.001899
0.00015271
0.0014029
0.00015646
0.00083223
0.00037487
0.00016108
2.012e-05
0.0042961
1.2911e-08
4.0275e-05
0.0042058
5.9866e-05
0.0040544
7.8484e-05
0.0038372
9.578e-05
0.0035556
0.00011143
0.0032147
0.00012517
0.0028182
0.00013671
0.0023784
0.00014591
0.0018898
0.00015273
0.0013961
0.00015649
0.00082847
0.00037035
0.00016101
2.0121e-05
0.004276
1.2977e-08
4.0275e-05
0.0041856
5.9867e-05
0.0040349
7.8485e-05
0.0038186
9.5782e-05
0.0035383
0.00011143
0.0031991
0.00012517
0.0028045
0.00013672
0.0023668
0.00014592
0.0018806
0.00015275
0.0013893
0.00015652
0.0008247
0.00036593
0.00016094
2.0121e-05
0.0042559
1.3044e-08
4.0276e-05
0.0041655
5.9869e-05
0.0040153
7.8487e-05
0.0038
9.5784e-05
0.003521
0.00011143
0.0031834
0.00012518
0.0027908
0.00013672
0.0023553
0.00014593
0.0018714
0.00015277
0.0013824
0.00015655
0.00082092
0.0003616
0.00016087
2.0121e-05
0.0042357
1.3112e-08
4.0277e-05
0.0041453
5.987e-05
0.0039957
7.8489e-05
0.0037813
9.5786e-05
0.0035038
0.00011144
0.0031678
0.00012518
0.002777
0.00013673
0.0023437
0.00014594
0.0018622
0.0001528
0.0013756
0.00015658
0.00081714
0.00035737
0.00016081
2.0122e-05
0.0042156
1.3181e-08
4.0278e-05
0.0041252
5.9871e-05
0.0039761
7.8491e-05
0.0037627
9.5789e-05
0.0034865
0.00011144
0.0031521
0.00012518
0.0027633
0.00013674
0.0023322
0.00014595
0.001853
0.00015282
0.0013687
0.00015661
0.00081335
0.00035324
0.00016075
2.0122e-05
0.0041955
1.3251e-08
4.0278e-05
0.004105
5.9872e-05
0.0039565
7.8492e-05
0.0037441
9.5791e-05
0.0034692
0.00011144
0.0031365
0.00012519
0.0027495
0.00013675
0.0023206
0.00014595
0.0018438
0.00015284
0.0013618
0.00015663
0.00080955
0.00034918
0.00016069
2.0122e-05
0.0041753
1.3322e-08
4.0279e-05
0.0040849
5.9874e-05
0.0039369
7.8494e-05
0.0037255
9.5794e-05
0.0034519
0.00011145
0.0031208
0.00012519
0.0027358
0.00013676
0.002309
0.00014596
0.0018346
0.00015286
0.0013549
0.00015666
0.00080575
0.00034522
0.00016063
2.0123e-05
0.0041552
1.3394e-08
4.028e-05
0.0040647
5.9875e-05
0.0039173
7.8496e-05
0.0037069
9.5796e-05
0.0034346
0.00011145
0.0031052
0.0001252
0.002722
0.00013677
0.0022975
0.00014597
0.0018254
0.00015288
0.001348
0.00015669
0.00080193
0.00034134
0.00016057
2.0123e-05
0.0041351
1.3467e-08
4.0281e-05
0.0040445
5.9876e-05
0.0038977
7.8498e-05
0.0036882
9.5799e-05
0.0034173
0.00011146
0.0030895
0.0001252
0.0027083
0.00013677
0.0022859
0.00014598
0.0018161
0.0001529
0.0013411
0.00015672
0.00079811
0.00033754
0.00016052
2.0123e-05
0.0041149
1.3541e-08
4.0282e-05
0.0040244
5.9878e-05
0.0038781
7.85e-05
0.0036696
9.5802e-05
0.0034
0.00011146
0.0030738
0.00012521
0.0026945
0.00013678
0.0022743
0.00014599
0.0018069
0.00015291
0.0013342
0.00015674
0.00079428
0.00033381
0.00016047
2.0124e-05
0.0040948
1.3616e-08
4.0283e-05
0.0040042
5.9879e-05
0.0038585
7.8502e-05
0.003651
9.5804e-05
0.0033826
0.00011146
0.0030582
0.00012521
0.0026808
0.00013679
0.0022627
0.000146
0.0017977
0.00015293
0.0013272
0.00015677
0.00079044
0.00033016
0.00016042
2.0124e-05
0.0040746
1.3692e-08
4.0283e-05
0.0039841
5.988e-05
0.0038389
7.8504e-05
0.0036324
9.5807e-05
0.0033653
0.00011147
0.0030425
0.00012522
0.002667
0.0001368
0.0022512
0.00014601
0.0017885
0.00015295
0.0013203
0.0001568
0.0007866
0.00032659
0.00016037
2.0125e-05
0.0040545
1.377e-08
4.0284e-05
0.0039639
5.9882e-05
0.0038193
7.8506e-05
0.0036137
9.581e-05
0.003348
0.00011147
0.0030269
0.00012522
0.0026533
0.00013681
0.0022396
0.00014602
0.0017793
0.00015297
0.0013134
0.00015682
0.00078274
0.00032308
0.00016033
2.0125e-05
0.0040344
1.3848e-08
4.0285e-05
0.0039437
5.9883e-05
0.0037997
7.8508e-05
0.0035951
9.5812e-05
0.0033307
0.00011147
0.0030112
0.00012523
0.0026395
0.00013682
0.002228
0.00014603
0.0017701
0.00015298
0.0013064
0.00015685
0.00077888
0.00031965
0.00016028
2.0125e-05
0.0040142
1.3928e-08
4.0286e-05
0.0039236
5.9885e-05
0.0037801
7.8511e-05
0.0035765
9.5815e-05
0.0033134
0.00011148
0.0029955
0.00012523
0.0026258
0.00013682
0.0022164
0.00014604
0.0017609
0.000153
0.0012994
0.00015687
0.00077501
0.00031628
0.00016024
2.0126e-05
0.0039941
1.4008e-08
4.0287e-05
0.0039034
5.9886e-05
0.0037605
7.8513e-05
0.0035579
9.5818e-05
0.0032961
0.00011148
0.0029799
0.00012524
0.002612
0.00013683
0.0022048
0.00014605
0.0017517
0.00015302
0.0012925
0.0001569
0.00077113
0.00031297
0.0001602
2.0126e-05
0.003974
1.409e-08
4.0288e-05
0.0038833
5.9888e-05
0.0037409
7.8515e-05
0.0035392
9.5821e-05
0.0032788
0.00011149
0.0029642
0.00012524
0.0025983
0.00013684
0.0021932
0.00014606
0.0017425
0.00015303
0.0012855
0.00015692
0.00076725
0.00030973
0.00016016
2.0127e-05
0.0039538
1.4173e-08
4.0289e-05
0.0038631
5.9889e-05
0.0037213
7.8517e-05
0.0035206
9.5824e-05
0.0032615
0.00011149
0.0029485
0.00012525
0.0025845
0.00013685
0.0021816
0.00014607
0.0017332
0.00015305
0.0012785
0.00015694
0.00076335
0.00030654
0.00016013
2.0127e-05
0.0039337
1.4258e-08
4.029e-05
0.0038429
5.9891e-05
0.0037017
7.852e-05
0.003502
9.5827e-05
0.0032442
0.0001115
0.0029329
0.00012525
0.0025708
0.00013686
0.00217
0.00014608
0.001724
0.00015306
0.0012715
0.00015697
0.00075945
0.00030342
0.00016009
2.0128e-05
0.0039135
1.4343e-08
4.0291e-05
0.0038228
5.9893e-05
0.0036821
7.8522e-05
0.0034834
9.583e-05
0.0032269
0.0001115
0.0029172
0.00012526
0.002557
0.00013687
0.0021584
0.00014609
0.0017148
0.00015308
0.0012645
0.00015699
0.00075554
0.00030035
0.00016006
2.0128e-05
0.0038934
1.443e-08
4.0292e-05
0.0038026
5.9894e-05
0.0036625
7.8524e-05
0.0034647
9.5834e-05
0.0032096
0.0001115
0.0029015
0.00012526
0.0025433
0.00013688
0.0021467
0.0001461
0.0017056
0.00015309
0.0012575
0.00015701
0.00075162
0.00029733
0.00016003
2.0129e-05
0.0038732
1.4519e-08
4.0293e-05
0.0037824
5.9896e-05
0.0036429
7.8527e-05
0.0034461
9.5837e-05
0.0031923
0.00011151
0.0028859
0.00012527
0.0025295
0.00013689
0.0021351
0.00014611
0.0016964
0.00015311
0.0012505
0.00015703
0.00074769
0.00029437
0.00016
2.0129e-05
0.0038531
1.4608e-08
4.0294e-05
0.0037623
5.9898e-05
0.0036233
7.8529e-05
0.0034275
9.584e-05
0.003175
0.00011151
0.0028702
0.00012527
0.0025157
0.0001369
0.0021235
0.00014612
0.0016872
0.00015312
0.0012435
0.00015706
0.00074376
0.00029146
0.00015997
2.0129e-05
0.003833
1.4699e-08
4.0295e-05
0.0037421
5.9899e-05
0.0036037
7.8532e-05
0.0034088
9.5843e-05
0.0031577
0.00011152
0.0028545
0.00012528
0.002502
0.0001369
0.0021119
0.00014613
0.0016779
0.00015314
0.0012365
0.00015708
0.00073982
0.0002886
0.00015994
2.013e-05
0.0038128
1.4792e-08
4.0296e-05
0.0037219
5.9901e-05
0.0035841
7.8534e-05
0.0033902
9.5847e-05
0.0031403
0.00011152
0.0028388
0.00012529
0.0024882
0.00013691
0.0021002
0.00014614
0.0016687
0.00015315
0.0012295
0.0001571
0.00073587
0.00028578
0.00015991
2.013e-05
0.0037927
1.4885e-08
4.0298e-05
0.0037018
5.9903e-05
0.0035645
7.8537e-05
0.0033716
9.585e-05
0.003123
0.00011153
0.0028232
0.00012529
0.0024745
0.00013692
0.0020886
0.00014615
0.0016595
0.00015316
0.0012225
0.00015712
0.00073192
0.00028302
0.00015989
2.0131e-05
0.0037725
1.4981e-08
4.0299e-05
0.0036816
5.9905e-05
0.0035449
7.854e-05
0.0033529
9.5854e-05
0.0031057
0.00011153
0.0028075
0.0001253
0.0024607
0.00013693
0.002077
0.00014616
0.0016503
0.00015318
0.0012155
0.00015714
0.00072795
0.00028029
0.00015986
2.0131e-05
0.0037524
1.5077e-08
4.03e-05
0.0036614
5.9907e-05
0.0035253
7.8542e-05
0.0033343
9.5857e-05
0.0030884
0.00011154
0.0027918
0.0001253
0.0024469
0.00013694
0.0020653
0.00014617
0.001641
0.00015319
0.0012084
0.00015716
0.00072398
0.00027761
0.00015984
2.0132e-05
0.0037322
1.5176e-08
4.0301e-05
0.0036413
5.9908e-05
0.0035057
7.8545e-05
0.0033157
9.5861e-05
0.0030711
0.00011154
0.0027761
0.00012531
0.0024332
0.00013695
0.0020537
0.00014618
0.0016318
0.0001532
0.0012014
0.00015718
0.00072
0.00027497
0.00015982
2.0133e-05
0.0037121
1.5275e-08
4.0302e-05
0.0036211
5.991e-05
0.0034861
7.8548e-05
0.003297
9.5865e-05
0.0030538
0.00011155
0.0027604
0.00012532
0.0024194
0.00013696
0.0020421
0.00014619
0.0016226
0.00015322
0.0011944
0.0001572
0.00071602
0.00027238
0.0001598
2.0133e-05
0.0036919
1.5377e-08
4.0303e-05
0.0036009
5.9912e-05
0.0034664
7.8551e-05
0.0032784
9.5868e-05
0.0030365
0.00011155
0.0027447
0.00012532
0.0024056
0.00013697
0.0020304
0.0001462
0.0016133
0.00015323
0.0011874
0.00015722
0.00071203
0.00026982
0.00015978
2.0134e-05
0.0036718
1.5479e-08
4.0305e-05
0.0035808
5.9914e-05
0.0034468
7.8553e-05
0.0032597
9.5872e-05
0.0030191
0.00011156
0.0027291
0.00012533
0.0023919
0.00013698
0.0020188
0.00014622
0.0016041
0.00015324
0.0011803
0.00015724
0.00070803
0.0002673
0.00015976
2.0134e-05
0.0036516
1.5584e-08
4.0306e-05
0.0035606
5.9916e-05
0.0034272
7.8556e-05
0.0032411
9.5876e-05
0.0030018
0.00011156
0.0027134
0.00012534
0.0023781
0.00013699
0.0020071
0.00014623
0.0015949
0.00015325
0.0011733
0.00015726
0.00070402
0.00026481
0.00015974
2.0135e-05
0.0036315
1.569e-08
4.0307e-05
0.0035404
5.9918e-05
0.0034076
7.8559e-05
0.0032225
9.588e-05
0.0029845
0.00011157
0.0026977
0.00012534
0.0023643
0.000137
0.0019955
0.00014624
0.0015856
0.00015327
0.0011663
0.00015728
0.00070001
0.00026236
0.00015973
2.0135e-05
0.0036113
1.5798e-08
4.0308e-05
0.0035202
5.992e-05
0.003388
7.8562e-05
0.0032038
9.5884e-05
0.0029672
0.00011157
0.002682
0.00012535
0.0023505
0.00013701
0.0019838
0.00014625
0.0015764
0.00015328
0.0011593
0.0001573
0.00069599
0.00025995
0.00015971
2.0136e-05
0.0035912
1.5907e-08
4.031e-05
0.0035001
5.9922e-05
0.0033684
7.8565e-05
0.0031852
9.5888e-05
0.0029498
0.00011158
0.0026663
0.00012536
0.0023368
0.00013702
0.0019721
0.00014626
0.0015671
0.00015329
0.0011522
0.00015731
0.00069197
0.00025757
0.0001597
2.0136e-05
0.003571
1.6019e-08
4.0311e-05
0.0034799
5.9925e-05
0.0033488
7.8568e-05
0.0031665
9.5892e-05
0.0029325
0.00011159
0.0026506
0.00012536
0.002323
0.00013703
0.0019605
0.00014627
0.0015579
0.0001533
0.0011452
0.00015733
0.00068794
0.00025522
0.00015968
2.0137e-05
0.0035509
1.6132e-08
4.0312e-05
0.0034597
5.9927e-05
0.0033292
7.8572e-05
0.0031479
9.5896e-05
0.0029152
0.00011159
0.0026349
0.00012537
0.0023092
0.00013704
0.0019488
0.00014628
0.0015486
0.00015331
0.0011382
0.00015735
0.0006839
0.0002529
0.00015967
2.0138e-05
0.0035307
1.6247e-08
4.0314e-05
0.0034395
5.9929e-05
0.0033096
7.8575e-05
0.0031292
9.5901e-05
0.0028979
0.0001116
0.0026192
0.00012538
0.0022954
0.00013705
0.0019371
0.0001463
0.0015394
0.00015333
0.0011311
0.00015737
0.00067986
0.00025061
0.00015966
2.0138e-05
0.0035106
1.6364e-08
4.0315e-05
0.0034194
5.9931e-05
0.0032899
7.8578e-05
0.0031106
9.5905e-05
0.0028805
0.0001116
0.0026035
0.00012538
0.0022817
0.00013706
0.0019255
0.00014631
0.0015301
0.00015334
0.0011241
0.00015739
0.00067581
0.00024835
0.00015965
2.0139e-05
0.0034904
1.6482e-08
4.0317e-05
0.0033992
5.9933e-05
0.0032703
7.8581e-05
0.0030919
9.5909e-05
0.0028632
0.00011161
0.0025878
0.00012539
0.0022679
0.00013707
0.0019138
0.00014632
0.0015209
0.00015335
0.0011171
0.0001574
0.00067175
0.00024612
0.00015964
2.014e-05
0.0034702
1.6603e-08
4.0318e-05
0.003379
5.9936e-05
0.0032507
7.8585e-05
0.0030733
9.5914e-05
0.0028459
0.00011162
0.0025721
0.0001254
0.0022541
0.00013708
0.0019021
0.00014633
0.0015116
0.00015336
0.0011101
0.00015742
0.00066769
0.00024392
0.00015963
2.014e-05
0.0034501
1.6726e-08
4.032e-05
0.0033588
5.9938e-05
0.0032311
7.8588e-05
0.0030546
9.5918e-05
0.0028286
0.00011162
0.0025564
0.00012541
0.0022403
0.00013709
0.0018904
0.00014635
0.0015024
0.00015337
0.001103
0.00015744
0.00066362
0.00024174
0.00015962
2.0141e-05
0.0034299
1.6851e-08
4.0321e-05
0.0033387
5.9941e-05
0.0032115
7.8592e-05
0.003036
9.5923e-05
0.0028112
0.00011163
0.0025407
0.00012541
0.0022265
0.0001371
0.0018787
0.00014636
0.0014931
0.00015338
0.001096
0.00015746
0.00065955
0.00023958
0.00015961
2.0142e-05
0.0034098
1.6977e-08
4.0323e-05
0.0033185
5.9943e-05
0.0031918
7.8595e-05
0.0030173
9.5928e-05
0.0027939
0.00011163
0.002525
0.00012542
0.0022127
0.00013711
0.0018671
0.00014637
0.0014838
0.00015339
0.001089
0.00015747
0.00065547
0.00023745
0.0001596
2.0142e-05
0.0033896
1.7106e-08
4.0324e-05
0.0032983
5.9946e-05
0.0031722
7.8599e-05
0.0029987
9.5932e-05
0.0027766
0.00011164
0.0025093
0.00012543
0.0021989
0.00013712
0.0018554
0.00014638
0.0014746
0.00015341
0.001082
0.00015749
0.00065139
0.00023535
0.00015959
2.0143e-05
0.0033695
1.7237e-08
4.0326e-05
0.0032781
5.9948e-05
0.0031526
7.8602e-05
0.00298
9.5937e-05
0.0027592
0.00011165
0.0024936
0.00012544
0.0021851
0.00013713
0.0018437
0.0001464
0.0014653
0.00015342
0.0010749
0.00015751
0.0006473
0.00023326
0.00015959
2.0144e-05
0.0033493
1.7371e-08
4.0327e-05
0.0032579
5.9951e-05
0.003133
7.8606e-05
0.0029614
9.5942e-05
0.0027419
0.00011165
0.0024779
0.00012545
0.0021714
0.00013714
0.001832
0.00014641
0.001456
0.00015343
0.0010679
0.00015752
0.00064321
0.0002312
0.00015958
2.0144e-05
0.0033291
1.7506e-08
4.0329e-05
0.0032377
5.9953e-05
0.0031134
7.861e-05
0.0029427
9.5947e-05
0.0027246
0.00011166
0.0024621
0.00012545
0.0021576
0.00013715
0.0018203
0.00014642
0.0014467
0.00015344
0.0010609
0.00015754
0.00063911
0.00022916
0.00015958
2.0145e-05
0.003309
1.7644e-08
4.0331e-05
0.0032176
5.9956e-05
0.0030937
7.8614e-05
0.0029241
9.5952e-05
0.0027072
0.00011167
0.0024464
0.00012546
0.0021438
0.00013716
0.0018086
0.00014643
0.0014375
0.00015345
0.0010539
0.00015755
0.00063501
0.00022714
0.00015957
2.0146e-05
0.0032888
1.7784e-08
4.0332e-05
0.0031974
5.9959e-05
0.0030741
7.8617e-05
0.0029054
9.5957e-05
0.0026899
0.00011167
0.0024307
0.00012547
0.00213
0.00013717
0.0017969
0.00014645
0.0014282
0.00015346
0.0010469
0.00015757
0.0006309
0.00022514
0.00015957
2.0147e-05
0.0032686
1.7927e-08
4.0334e-05
0.0031772
5.9961e-05
0.0030545
7.8621e-05
0.0028867
9.5963e-05
0.0026725
0.00011168
0.002415
0.00012548
0.0021162
0.00013718
0.0017852
0.00014646
0.0014189
0.00015348
0.0010398
0.00015759
0.00062679
0.00022316
0.00015957
2.0147e-05
0.0032485
1.8072e-08
4.0336e-05
0.003157
5.9964e-05
0.0030348
7.8625e-05
0.0028681
9.5968e-05
0.0026552
0.00011169
0.0023993
0.00012549
0.0021024
0.00013719
0.0017735
0.00014647
0.0014096
0.00015349
0.0010328
0.0001576
0.00062267
0.0002212
0.00015957
2.0148e-05
0.0032283
1.8219e-08
4.0338e-05
0.0031368
5.9967e-05
0.0030152
7.863e-05
0.0028494
9.5973e-05
0.0026378
0.00011169
0.0023836
0.0001255
0.0020886
0.0001372
0.0017618
0.00014649
0.0014003
0.0001535
0.0010258
0.00015762
0.00061855
0.00021926
0.00015956
2.0149e-05
0.0032081
1.8369e-08
4.0339e-05
0.0031166
5.997e-05
0.0029956
7.8634e-05
0.0028308
9.5979e-05
0.0026205
0.0001117
0.0023678
0.00012551
0.0020748
0.00013721
0.0017501
0.0001465
0.0013911
0.00015351
0.0010188
0.00015763
0.00061443
0.00021733
0.00015956
2.015e-05
0.003188
1.8522e-08
4.0341e-05
0.0030964
5.9973e-05
0.002976
7.8638e-05
0.0028121
9.5985e-05
0.0026032
0.00011171
0.0023521
0.00012552
0.002061
0.00013722
0.0017384
0.00014651
0.0013818
0.00015352
0.0010118
0.00015765
0.0006103
0.00021542
0.00015956
2.0151e-05
0.0031678
1.8678e-08
4.0343e-05
0.0030762
5.9976e-05
0.0029563
7.8642e-05
0.0027934
9.599e-05
0.0025858
0.00011172
0.0023364
0.00012552
0.0020472
0.00013723
0.0017267
0.00014653
0.0013725
0.00015353
0.0010048
0.00015767
0.00060617
0.00021352
0.00015956
2.0152e-05
0.0031476
1.8836e-08
4.0345e-05
0.003056
5.9979e-05
0.0029367
7.8647e-05
0.0027748
9.5996e-05
0.0025685
0.00011172
0.0023207
0.00012553
0.0020333
0.00013725
0.001715
0.00014654
0.0013632
0.00015355
0.00099779
0.00015768
0.00060203
0.00021164
0.00015956
2.0152e-05
0.0031275
1.8997e-08
4.0347e-05
0.0030358
5.9982e-05
0.002917
7.8651e-05
0.0027561
9.6002e-05
0.0025511
0.00011173
0.0023049
0.00012554
0.0020195
0.00013726
0.0017033
0.00014655
0.0013539
0.00015356
0.00099079
0.0001577
0.00059789
0.00020978
0.00015956
2.0153e-05
0.0031073
1.916e-08
4.0349e-05
0.0030156
5.9985e-05
0.0028974
7.8655e-05
0.0027374
9.6008e-05
0.0025338
0.00011174
0.0022892
0.00012555
0.0020057
0.00013727
0.0016915
0.00014657
0.0013446
0.00015357
0.00098379
0.00015771
0.00059374
0.00020793
0.00015956
2.0154e-05
0.0030871
1.9327e-08
4.0351e-05
0.0029954
5.9988e-05
0.0028778
7.866e-05
0.0027187
9.6014e-05
0.0025164
0.00011175
0.0022735
0.00012556
0.0019919
0.00013728
0.0016798
0.00014658
0.0013353
0.00015358
0.00097679
0.00015773
0.0005896
0.00020609
0.00015957
2.0155e-05
0.0030669
1.9497e-08
4.0353e-05
0.0029752
5.9991e-05
0.0028581
7.8665e-05
0.0027001
9.602e-05
0.002499
0.00011176
0.0022577
0.00012557
0.0019781
0.00013729
0.0016681
0.0001466
0.001326
0.00015359
0.00096979
0.00015775
0.00058544
0.00020426
0.00015957
2.0156e-05
0.0030468
1.967e-08
4.0355e-05
0.002955
5.9995e-05
0.0028385
7.8669e-05
0.0026814
9.6026e-05
0.0024817
0.00011176
0.002242
0.00012558
0.0019643
0.0001373
0.0016564
0.00014661
0.0013167
0.00015361
0.00096279
0.00015776
0.00058129
0.00020245
0.00015957
2.0157e-05
0.0030266
1.9846e-08
4.0357e-05
0.0029348
5.9998e-05
0.0028189
7.8674e-05
0.0026627
9.6033e-05
0.0024643
0.00011177
0.0022263
0.00012559
0.0019504
0.00013732
0.0016447
0.00014663
0.0013074
0.00015362
0.0009558
0.00015778
0.00057713
0.00020066
0.00015958
2.0158e-05
0.0030064
2.0025e-08
4.0359e-05
0.0029146
6.0002e-05
0.0027992
7.8679e-05
0.002644
9.6039e-05
0.002447
0.00011178
0.0022105
0.0001256
0.0019366
0.00013733
0.0016329
0.00014664
0.001298
0.00015363
0.00094881
0.00015779
0.00057297
0.00019887
0.00015958
2.0159e-05
0.0029862
2.0207e-08
4.0361e-05
0.0028944
6.0005e-05
0.0027796
7.8684e-05
0.0026254
9.6046e-05
0.0024296
0.00011179
0.0021948
0.00012561
0.0019228
0.00013734
0.0016212
0.00014665
0.0012887
0.00015364
0.00094182
0.00015781
0.0005688
0.00019709
0.00015958
2.016e-05
0.0029661
2.0393e-08
4.0364e-05
0.0028742
6.0009e-05
0.0027599
7.8689e-05
0.0026067
9.6053e-05
0.0024122
0.0001118
0.002179
0.00012562
0.001909
0.00013735