/*--------------------------------*- C++ -*----------------------------------*\
  =========                 |
  \\      /  F ield         | OpenFOAM: The Open Source CFD Toolbox
   \\    /   O peration     | Website:  https://openfoam.org
    \\  /    A nd           | Version:  6.0
     \\/     M anipulation  |
\*---------------------------------------------------------------------------*/
FoamFile
{
    version     2.0;
    format      ascii;
    class       volVectorField;
    location    "0.49";
    object      U;
}
// * * * * * * * * * * * * * * * * * * * * * * * * * * * * * * * * * * * * * //

dimensions      [0 1 -1 0 0 0 0];

internalField   nonuniform List<vector> 
13500
(
(1 1.9994e-06 -4.4954e-18)
(1 -5.2234e-06 3.0451e-18)
(1 -4.5846e-06 -1.305e-17)
(1 -1.1975e-05 -9.0866e-18)
(1 -5.5727e-06 1.6955e-17)
(1 -1.1836e-05 3.2034e-17)
(0.99999 5.2358e-06 2.6983e-17)
(0.99999 6.5857e-06 -4.4741e-18)
(0.99989 4.8607e-05 1.5843e-17)
(0.99977 8.6317e-05 3.5686e-18)
(0.99696 0.00051119 2.851e-17)
(1.0163 0.010982 8.3757e-18)
(1 5.988e-06 2.7851e-18)
(1 -1.5522e-05 -9.2478e-18)
(1 -1.3021e-05 6.2319e-18)
(1 -3.6161e-05 -3.5869e-19)
(1 -1.4272e-05 -4.5221e-19)
(1 -3.7932e-05 -3.852e-17)
(0.99997 2.1992e-05 -4.6603e-17)
(0.99999 1.1239e-05 -2.5602e-17)
(0.99968 0.00016149 -1.5812e-17)
(0.99957 0.00022741 -1.7639e-18)
(0.9908 0.0013547 -1.3502e-17)
(1.0443 0.030953 -5.0712e-18)
(1 9.8658e-06 -3.5972e-18)
(1 -2.5993e-05 1.8373e-17)
(1 -2.1516e-05 3.2413e-18)
(1 -6.1326e-05 1.0477e-17)
(1 -2.2298e-05 -3.9097e-18)
(1.0001 -6.6871e-05 3.0857e-17)
(0.99996 4.1818e-05 -6.5575e-18)
(0.99999 8.408e-06 5.8154e-18)
(0.99945 0.00028479 -1.9179e-17)
(0.99964 0.00038053 2.6798e-17)
(0.98491 0.0017877 -7.0655e-18)
(1.0652 0.045484 1.7881e-18)
(1 1.3619e-05 9.4038e-18)
(1 -3.6639e-05 -1.7813e-17)
(1 -3.0283e-05 -1.5365e-17)
(1 -8.7289e-05 -7.3523e-19)
(1 -3.0352e-05 6.035e-18)
(1.0001 -9.7896e-05 -8.5567e-19)
(0.99995 6.2875e-05 6.4627e-17)
(1 -6.5982e-07 1.0479e-17)
(0.99922 0.00041299 2.2679e-17)
(0.99992 0.00055063 -9.7072e-18)
(0.9796 0.0018497 3.4432e-17)
(1.0781 0.055939 -8.1387e-18)
(1 1.7251e-05 -6.6076e-18)
(1 -4.7363e-05 1.5396e-17)
(1 -3.9299e-05 1.3079e-17)
(1.0001 -0.00011373 1.3409e-17)
(1 -3.8587e-05 2.9589e-18)
(1.0001 -0.00013051 2.2683e-17)
(0.99993 8.4399e-05 -2.8859e-17)
(1.0001 -1.5905e-05 2.1293e-18)
(0.99898 0.00054207 -1.3904e-17)
(1.0004 0.00073642 -2.3162e-18)
(0.97514 0.0016169 -8.9111e-18)
(1.0836 0.063527 2.253e-18)
(1 2.0747e-05 6.6869e-18)
(1 -5.8165e-05 -6.3824e-18)
(1 -4.861e-05 3.9943e-18)
(1.0001 -0.00014065 -2.6564e-17)
(1 -4.7129e-05 -8.6906e-20)
(1.0001 -0.0001649 -4.4904e-17)
(0.99991 0.000106 1.1068e-18)
(1.0001 -3.8098e-05 -1.7089e-17)
(0.99873 0.00066907 5.2947e-18)
(1.001 0.00093754 -2.3335e-17)
(0.97167 0.0011679 -2.1522e-17)
(1.0828 0.06891 2.1843e-18)
(0.99999 2.4096e-05 -1.1069e-18)
(1 -6.9054e-05 -7.6334e-18)
(1 -5.8262e-05 -3.2464e-18)
(1.0001 -0.00016812 2.005e-17)
(1 -5.6106e-05 -2.7405e-17)
(1.0002 -0.0002013 1.7183e-17)
(0.9999 0.00012718 1.9298e-17)
(1.0002 -6.7895e-05 6.0122e-18)
(0.99847 0.00079096 1.1835e-17)
(1.0016 0.0011531 1.2563e-17)
(0.96924 0.00057662 9.294e-18)
(1.0776 0.072546 3.5218e-18)
(0.99999 2.7284e-05 -2.2847e-18)
(1 -8.0042e-05 -1.5017e-18)
(1 -6.8319e-05 -2.7965e-17)
(1.0001 -0.0001962 -9.5744e-18)
(1.0001 -6.5729e-05 7.671e-18)
(1.0002 -0.00023997 2.8162e-17)
(0.99988 0.00014716 1.2281e-17)
(1.0003 -0.00010569 5.3684e-18)
(0.99822 0.00090446 -7.7357e-18)
(1.0023 0.0013807 1.7599e-17)
(0.96778 -8.9831e-05 7.5294e-18)
(1.0694 0.074812 -1.1219e-17)
(0.99999 3.0298e-05 -7.0922e-18)
(1 -9.1143e-05 6.4559e-18)
(1 -7.8858e-05 4.7019e-17)
(1.0001 -0.00022493 -1.1485e-17)
(1.0001 -7.6287e-05 2.8723e-17)
(1.0002 -0.00028115 -5.56e-17)
(0.99987 0.00016491 -4.0915e-17)
(1.0004 -0.00015163 1.0432e-17)
(0.99797 0.0010063 -5.8098e-18)
(1.003 0.0016175 -9.7052e-18)
(0.96719 -0.00077441 -1.3885e-17)
(1.0597 0.076021 1.4696e-17)
(0.99999 3.3123e-05 4.6725e-18)
(1 -0.00010238 2.4301e-18)
(1 -8.9977e-05 -3.9827e-17)
(1.0001 -0.00025441 1.6344e-17)
(1.0001 -8.8138e-05 -1.2525e-17)
(1.0003 -0.00032516 2.3714e-17)
(0.99986 0.00017922 1.4539e-17)
(1.0005 -0.00020567 2.6382e-18)
(0.99774 0.0010937 5.4805e-19)
(1.0037 0.00186 1.5398e-18)
(0.9673 -0.0014323 4.4364e-18)
(1.0495 0.076424 -7.6015e-19)
(0.99999 3.5742e-05 -2.5654e-18)
(1 -0.00011379 -7.9697e-18)
(1 -0.00010179 9.7627e-18)
(1.0001 -0.00028477 -2.884e-18)
(1.0001 -0.00010171 1.9332e-18)
(1.0003 -0.00037236 -2.5991e-17)
(0.99985 0.00018877 -3.3483e-17)
(1.0007 -0.00026748 -3.3499e-17)
(0.99753 0.0011644 1.6239e-17)
(1.0043 0.0021053 2.001e-18)
(0.96794 -0.0020315 -1.125e-17)
(1.0398 0.076217 -6.3532e-18)
(0.99998 3.8135e-05 3.5409e-18)
(1 -0.00012542 3.0103e-18)
(1 -0.00011444 4.7049e-18)
(1.0001 -0.00031618 -2.2985e-18)
(1.0001 -0.00011752 -5.7954e-18)
(1.0004 -0.00042316 9.8301e-18)
(0.99985 0.00019221 1.9382e-17)
(1.0008 -0.00033647 2.0696e-17)
(0.99734 0.0012168 1.0435e-17)
(1.0049 0.0023509 -2.5244e-17)
(0.96897 -0.0025525 1.1157e-19)
(1.031 0.075557 -7.3822e-18)
(0.99998 4.0279e-05 -3.5402e-18)
(1 -0.00013733 5.9198e-18)
(1 -0.00012811 8.5298e-18)
(1.0002 -0.00034885 6.0013e-18)
(1.0001 -0.00013614 -5.3747e-18)
(1.0004 -0.00047802 4.8328e-18)
(0.99985 0.00018823 4.4197e-18)
(1.001 -0.00041172 -1.848e-18)
(0.99719 0.0012503 -1.6866e-17)
(1.0055 0.0025949 2.3415e-17)
(0.97023 -0.0029861 9.9655e-20)
(1.0235 0.074566 1.5681e-18)
(0.99998 4.2146e-05 5.3836e-18)
(1 -0.00014961 -4.6209e-18)
(1 -0.00014298 7.4653e-19)
(1.0002 -0.00038307 -5.0065e-18)
(1.0001 -0.0001582 1.2206e-17)
(1.0005 -0.00053736 5.8971e-18)
(0.99986 0.00017569 1.7781e-17)
(1.0012 -0.00049208 -6.8652e-18)
(0.99706 0.001265 -2.0666e-19)
(1.0059 0.0028359 5.7577e-18)
(0.97162 -0.0033317 1.7156e-17)
(1.0173 0.073341 9.9981e-19)
(0.99997 4.3703e-05 1.2984e-18)
(1 -0.00016237 1.0255e-17)
(1 -0.0001593 1.4263e-17)
(1.0002 -0.00041916 -4.9919e-18)
(1.0001 -0.00018435 8.8376e-18)
(1.0005 -0.0006016 -2.7529e-18)
(0.99988 0.00015371 -3.114e-17)
(1.0014 -0.00057611 2.1731e-17)
(0.99697 0.0012619 -1.9024e-17)
(1.0064 0.0030731 -3.3198e-17)
(0.97305 -0.0035944 -3.758e-18)
(1.0125 0.071954 9.288e-19)
(0.99997 4.491e-05 -3.3125e-18)
(1 -0.00017573 -1.0907e-17)
(1 -0.00017733 -3.4234e-17)
(1.0002 -0.00045749 8.41e-18)
(1.0001 -0.00021523 -1.3411e-17)
(1.0006 -0.00067103 8.8274e-18)
(0.99991 0.00012178 -2.9128e-18)
(1.0016 -0.00066219 -1.3082e-17)
(0.99691 0.0012426 4.1745e-18)
(1.0067 0.0033058 1.9828e-17)
(0.97446 -0.0037833 -7.914e-18)
(1.0088 0.070464 1.3057e-17)
(0.99996 4.5723e-05 3.4851e-19)
(1 -0.00018984 8.1571e-18)
(1 -0.00019735 2.3634e-17)
(1.0002 -0.00049844 -1.8942e-18)
(1.0002 -0.00025145 -1.3323e-17)
(1.0007 -0.00074581 -1.645e-17)
(0.99995 7.9798e-05 1.1129e-17)
(1.0018 -0.0007486 7.5032e-18)
(0.99688 0.0012091 2.4147e-17)
(1.007 0.0035337 -2.7785e-18)
(0.97581 -0.0039093 1.9718e-18)
(1.0062 0.068912 -5.2074e-18)
(0.99996 4.6091e-05 -1.9554e-18)
(1 -0.00020487 -9.8837e-18)
(1 -0.00021968 -1.0664e-17)
(1.0002 -0.0005424 6.3297e-18)
(1.0002 -0.00029349 -7.4817e-18)
(1.0008 -0.00082593 -1.3195e-17)
(0.99999 2.8118e-05 1.0817e-17)
(1.002 -0.00083356 -5.0901e-18)
(0.99687 0.001164 -2.9891e-17)
(1.0073 0.0037566 -1.5578e-17)
(0.97709 -0.0039836 8.5598e-18)
(1.0043 0.067331 -5.6658e-18)
(0.99995 4.596e-05 -2.7999e-18)
(1 -0.000221 -3.7356e-18)
(1 -0.00024459 -7.9037e-19)
(1.0003 -0.00058972 -2.7718e-17)
(1.0002 -0.00034168 6.2784e-18)
(1.0008 -0.00091111 5.7456e-18)
(1 -3.2473e-05 -2.0555e-17)
(1.0022 -0.00091536 -1.7381e-17)
(0.99689 0.0011098 4.3684e-18)
(1.0075 0.0039743 -1.1772e-18)
(0.97829 -0.004017 -9.8796e-18)
(1.0031 0.065742 1.0708e-18)
(0.99995 4.5273e-05 3.6418e-18)
(1 -0.00023841 1.7125e-17)
(1 -0.00027236 2.035e-17)
(1.0003 -0.00064069 2.6101e-18)
(1.0002 -0.00039616 1.7354e-17)
(1.0009 -0.0010009 1.0069e-17)
(1.0001 -0.0001008 2.9675e-18)
(1.0024 -0.00099242 1.9024e-17)
(0.99692 0.0010488 2.1728e-17)
(1.0077 0.0041865 1.8607e-17)
(0.97941 -0.0040191 7.3843e-18)
(1.0024 0.064162 1.2742e-18)
(0.99994 4.3977e-05 -1.7358e-18)
(0.99999 -0.00025727 -4.1089e-18)
(1.0001 -0.00030321 -2.1681e-17)
(1.0003 -0.00069548 -2.4717e-18)
(1.0003 -0.00045685 -1.3152e-17)
(1.001 -0.0010945 -5.4486e-18)
(1.0002 -0.00017539 -1.9034e-18)
(1.0026 -0.0010634 -1.7204e-17)
(0.99696 0.00098339 -2.0785e-17)
(1.0078 0.004393 9.5418e-18)
(0.98046 -0.0039979 5.1114e-19)
(1.002 0.062602 7.3317e-19)
(0.99994 4.2023e-05 4.601e-18)
(0.99999 -0.00027772 -5.368e-18)
(1.0001 -0.00033728 -2.0333e-17)
(1.0003 -0.00075415 4.6988e-17)
(1.0003 -0.00052341 1.9077e-17)
(1.0011 -0.0011909 -1.3333e-17)
(1.0002 -0.00025454 2.5597e-17)
(1.0028 -0.0011271 2.3252e-17)
(0.99702 0.00091542 3.3732e-17)
(1.008 0.0045934 -3.4981e-17)
(0.98144 -0.0039601 -1.3567e-17)
(1.0018 0.061069 1.946e-19)
(0.99993 3.9368e-05 -3.3677e-18)
(0.99999 -0.00029987 -1.0772e-18)
(1.0001 -0.00037464 3.4713e-17)
(1.0003 -0.00081661 -3.552e-17)
(1.0003 -0.00059527 -1.8367e-18)
(1.0012 -0.0012892 4.4176e-17)
(1.0003 -0.00033651 7.9319e-18)
(1.003 -0.001183 -3.5911e-18)
(0.99708 0.00084648 -2.0924e-17)
(1.0081 0.0047876 4.1229e-17)
(0.98237 -0.0039107 -5.7535e-18)
(1.0018 0.059567 -3.0778e-19)
(0.99992 3.5988e-05 -1.7168e-18)
(0.99998 -0.00032378 -2.1464e-18)
(1.0001 -0.00041524 1.8072e-18)
(1.0004 -0.00088258 3.6953e-17)
(1.0004 -0.00067164 -1.0354e-17)
(1.0013 -0.0013879 -3.2652e-17)
(1.0004 -0.00041952 -2.0224e-17)
(1.0031 -0.0012304 -3.8668e-18)
(0.99715 0.00077777 6.6191e-18)
(1.0082 0.004975 -3.4788e-17)
(0.98325 -0.0038537 9.6341e-18)
(1.0019 0.058099 3.3427e-18)
(0.99991 3.1871e-05 2.8371e-18)
(0.99998 -0.00034946 1.4939e-17)
(1.0001 -0.00045893 -1.3331e-17)
(1.0004 -0.00095164 -3.8693e-18)
(1.0004 -0.00075154 -1.9869e-17)
(1.0013 -0.0014858 3.5524e-17)
(1.0004 -0.00050198 -1.7752e-17)
(1.0033 -0.0012692 1.6036e-17)
(0.99722 0.00071012 -2.0403e-18)
(1.0083 0.0051553 3.2618e-17)
(0.9841 -0.0037919 -9.4072e-18)
(1.002 0.056666 -5.5777e-18)
(0.99991 2.7026e-05 -5.4413e-19)
(0.99998 -0.00037682 -8.5919e-18)
(1.0001 -0.00050541 -1.8666e-17)
(1.0004 -0.0010232 -1.0602e-17)
(1.0005 -0.00083386 1.9272e-17)
(1.0014 -0.0015817 -4.53e-17)
(1.0005 -0.00058244 -2.7386e-18)
(1.0034 -0.0012996 -2.1664e-17)
(0.99729 0.00064407 3.2977e-18)
(1.0083 0.0053283 -9.4087e-18)
(0.98491 -0.0037273 1.0014e-17)
(1.0022 0.055268 2.3682e-18)
(0.9999 2.1484e-05 2.8504e-18)
(0.99997 -0.00040574 -9.2031e-18)
(1.0001 -0.00055431 -1.8436e-18)
(1.0004 -0.0010966 2.5762e-18)
(1.0005 -0.00091741 6.0991e-18)
(1.0015 -0.0016744 1.3089e-17)
(1.0006 -0.00065977 4.4908e-17)
(1.0036 -0.0013221 2.5893e-18)
(0.99736 0.00057987 5.3769e-18)
(1.0084 0.0054937 1.037e-17)
(0.98569 -0.0036612 -8.57e-18)
(1.0024 0.053904 1.8221e-18)
(0.99989 1.5295e-05 -1.6345e-18)
(0.99997 -0.00043602 9.1947e-18)
(1.0001 -0.00060514 2.6532e-17)
(1.0005 -0.001171 -2.5956e-17)
(1.0005 -0.001001 -9.487e-18)
(1.0016 -0.0017629 -2.3035e-18)
(1.0006 -0.00073309 -1.4802e-17)
(1.0037 -0.0013371 2.0088e-18)
(0.99744 0.0005176 -9.3144e-18)
(1.0085 0.0056511 -3.8118e-18)
(0.98645 -0.0035947 -2.4559e-19)
(1.0025 0.052574 -2.225e-18)
(0.99988 8.5318e-06 -1.7566e-18)
(0.99996 -0.0004674 5.5034e-18)
(1.0001 -0.00065734 -6.4186e-19)
(1.0005 -0.0012455 8.6069e-18)
(1.0006 -0.0010835 -1.7504e-17)
(1.0017 -0.0018463 2.6062e-17)
(1.0007 -0.00080183 7.3824e-18)
(1.0038 -0.0013453 -1.9166e-17)
(0.99751 0.00045717 -1.1952e-17)
(1.0085 0.0058006 -1.5089e-17)
(0.98718 -0.0035282 1.3559e-18)
(1.0027 0.051277 -4.0831e-18)
(0.99986 1.2817e-06 6.1043e-19)
(0.99996 -0.00049957 -1.3143e-17)
(1.0001 -0.00071029 1.6428e-17)
(1.0005 -0.0013195 2.3805e-17)
(1.0006 -0.0011639 3.4307e-17)
(1.0017 -0.0019241 -1.914e-17)
(1.0007 -0.00086569 -1.8355e-17)
(1.0039 -0.0013477 3.8887e-18)
(0.99759 0.0003984 1.1198e-17)
(1.0086 0.0059419 1.181e-17)
(0.9879 -0.0034621 6.3288e-18)
(1.0029 0.050012 4.0586e-18)
(0.99985 -6.3523e-06 1.1698e-18)
(0.99995 -0.00053221 1.0451e-17)
(1.0001 -0.00076339 -3.7743e-17)
(1.0005 -0.0013919 -3.4494e-18)
(1.0006 -0.0012412 -2.8498e-17)
(1.0018 -0.0019959 -1.2057e-17)
(1.0008 -0.00092463 2.596e-20)
(1.004 -0.001345 -4.4495e-18)
(0.99766 0.00034107 -2.208e-17)
(1.0086 0.006075 -1.8853e-17)
(0.98859 -0.0033966 -8.6541e-18)
(1.0031 0.048778 -2.0032e-18)
(0.99984 -1.4259e-05 -7.5821e-19)
(0.99994 -0.00056496 -6.7969e-18)
(1.0001 -0.00081601 2.9696e-17)
(1.0006 -0.0014622 -3.2911e-17)
(1.0007 -0.0013149 -2.1426e-18)
(1.0018 -0.0020616 2.5675e-17)
(1.0008 -0.0009788 7.3445e-19)
(1.004 -0.001338 4.2424e-18)
(0.99774 0.00028493 1.9328e-17)
(1.0086 0.0061999 2.4503e-17)
(0.98927 -0.0033318 4.9485e-18)
(1.0032 0.047575 -1.1196e-18)
(0.99982 -2.2323e-05 -1.9737e-18)
(0.99994 -0.00059748 -2.5064e-18)
(1.0001 -0.00086758 -1.3165e-17)
(1.0006 -0.0015296 1.6395e-17)
(1.0007 -0.0013843 3.1318e-17)
(1.0019 -0.0021211 -1.1347e-17)
(1.0008 -0.0010285 2.2858e-17)
(1.0041 -0.0013276 3.1801e-18)
(0.99782 0.00022973 -2.1927e-18)
(1.0087 0.0063166 1.1078e-17)
(0.98993 -0.0032678 -5.5412e-18)
(1.0034 0.0464 -7.8149e-19)
(0.99981 -3.0429e-05 4.9364e-19)
(0.99993 -0.00062943 -6.6283e-18)
(1.0001 -0.0009176 4.9277e-18)
(1.0006 -0.0015937 -1.6709e-17)
(1.0007 -0.0014491 -3.3125e-17)
(1.0019 -0.0021747 7.151e-18)
(1.0009 -0.0010742 -3.2975e-17)
(1.0042 -0.0013145 -7.2728e-18)
(0.99789 0.00017523 7.1084e-18)
(1.0087 0.0064252 -3.4778e-17)
(0.99058 -0.0032046 3.789e-18)
(1.0035 0.045253 2.2026e-18)
(0.99979 -3.847e-05 8.6682e-19)
(0.99992 -0.00066051 1.7958e-17)
(1.0001 -0.00096562 8.2507e-18)
(1.0006 -0.0016542 6.8063e-18)
(1.0007 -0.0015093 2.6487e-17)
(1.002 -0.0022229 2.132e-18)
(1.0009 -0.0011164 2.277e-17)
(1.0043 -0.0012993 5.2155e-18)
(0.99797 0.00012125 -2.1618e-17)
(1.0087 0.0065258 1.1972e-17)
(0.9912 -0.0031421 2.5639e-18)
(1.0037 0.044134 2.2858e-18)
(0.99978 -4.6346e-05 -3.0266e-18)
(0.9999 -0.00069047 -5.9112e-18)
(1.0001 -0.0010113 -7.2492e-18)
(1.0006 -0.0017107 1.1177e-17)
(1.0007 -0.0015648 1.2795e-17)
(1.002 -0.0022659 -4.2459e-18)
(1.0009 -0.0011556 -1.9126e-17)
(1.0043 -0.0012827 2.3751e-17)
(0.99805 6.7602e-05 3.9976e-18)
(1.0088 0.0066186 -3.6147e-18)
(0.99182 -0.0030803 1.0627e-17)
(1.0038 0.043042 -1.5891e-18)
(0.99976 -5.3973e-05 6.2191e-18)
(0.99989 -0.0007191 7.0787e-18)
(1.0001 -0.0010544 -7.7055e-18)
(1.0006 -0.0017633 -6.9625e-18)
(1.0008 -0.0016158 -1.8361e-17)
(1.002 -0.0023044 -7.2927e-18)
(1.0009 -0.0011923 9.4299e-18)
(1.0044 -0.0012651 -3.8098e-17)
(0.99814 1.4153e-05 9.8014e-18)
(1.0088 0.0067036 -4.2708e-18)
(0.99242 -0.0030194 -1.1259e-17)
(1.004 0.041976 4.6183e-18)
(0.99974 -6.1281e-05 -2.7448e-18)
(0.99988 -0.00074626 -1.2437e-17)
(1.0001 -0.0010949 -7.4677e-18)
(1.0006 -0.0018119 -1.3212e-17)
(1.0008 -0.0016625 -5.6058e-18)
(1.0021 -0.0023389 2.1442e-17)
(1.0009 -0.001227 -9.2633e-18)
(1.0044 -0.0012471 4.2383e-17)
(0.99822 -3.921e-05 9.2474e-18)
(1.0088 0.006781 1.296e-17)
(0.993 -0.0029591 4.7485e-18)
(1.0041 0.040934 -7.4912e-18)
(0.99972 -6.8218e-05 -1.4558e-18)
(0.99986 -0.00077183 9.249e-18)
(1.0001 -0.0011325 1.4796e-17)
(1.0006 -0.0018567 3.5622e-17)
(1.0008 -0.0017054 7.4305e-18)
(1.0021 -0.00237 -1.4708e-17)
(1.001 -0.0012602 4.4704e-18)
(1.0045 -0.0012289 -4.56e-17)
(0.99831 -9.2572e-05 -1.1222e-17)
(1.0089 0.006851 -7.2042e-18)
(0.99357 -0.0028996 4.6667e-18)
(1.0042 0.039917 7.5364e-18)
(0.9997 -7.4745e-05 1.1141e-18)
(0.99985 -0.00079578 2.1894e-18)
(1.0001 -0.0011674 -1.453e-17)
(1.0006 -0.001898 -5.9337e-18)
(1.0008 -0.0017447 9.4341e-18)
(1.0021 -0.0023982 1.7604e-17)
(1.001 -0.0012924 1.5545e-17)
(1.0046 -0.0012109 4.5128e-18)
(0.9984 -0.000146 1.2558e-17)
(1.0089 0.0069137 -3.3357e-18)
(0.99412 -0.0028408 -8.3316e-18)
(1.0043 0.038924 -1.9428e-18)
(0.99968 -8.0845e-05 -4.5633e-20)
(0.99983 -0.00081812 2.4951e-18)
(1 -0.0011997 3.2473e-18)
(1.0006 -0.0019358 -7.7028e-18)
(1.0008 -0.0017811 8.7492e-20)
(1.0021 -0.002424 -1.5961e-17)
(1.001 -0.0013238 -1.0514e-17)
(1.0046 -0.0011933 3.3394e-17)
(0.99849 -0.00019954 -1.8986e-17)
(1.0089 0.0069693 1.2954e-17)
(0.99467 -0.0027828 4.4037e-18)
(1.0045 0.037955 -5.492e-18)
(0.99966 -8.651e-05 -3.4507e-18)
(0.99982 -0.00083887 -1.1702e-17)
(1 -0.0012295 8.2901e-18)
(1.0006 -0.0019707 -2.1036e-17)
(1.0008 -0.0018149 -2.3857e-17)
(1.0022 -0.002448 -2.2049e-17)
(1.001 -0.0013548 -2.1429e-17)
(1.0047 -0.0011763 -3.4198e-18)
(0.99858 -0.00025322 1.6595e-17)
(1.0089 0.0070181 -1.1109e-17)
(0.99519 -0.0027255 4.3994e-19)
(1.0046 0.037008 5.1745e-18)
(0.99964 -9.175e-05 6.6601e-18)
(0.9998 -0.00085813 1.2229e-17)
(1 -0.0012571 -1.3369e-17)
(1.0006 -0.002003 1.7271e-17)
(1.0008 -0.0018464 -2.797e-18)
(1.0022 -0.0024704 1.4453e-17)
(1.001 -0.0013857 2.5758e-17)
(1.0047 -0.00116 -2.5905e-17)
(0.99867 -0.00030708 -8.4181e-18)
(1.009 0.00706 1.1726e-17)
(0.99571 -0.002669 3.8166e-18)
(1.0047 0.036083 -2.4479e-18)
(0.99962 -9.6581e-05 -4.9973e-18)
(0.99978 -0.000876 -3.6144e-18)
(1 -0.0012825 -2.795e-18)
(1.0006 -0.0020329 1.9761e-17)
(1.0008 -0.0018763 -5.9883e-18)
(1.0022 -0.0024918 -1.8309e-19)
(1.001 -0.0014166 -5.0403e-18)
(1.0048 -0.0011447 2.0751e-17)
(0.99877 -0.00036111 -7.9977e-18)
(1.009 0.0070954 -8.0512e-18)
(0.99621 -0.0026133 -1.1285e-17)
(1.0049 0.03518 2.8468e-18)
(0.9996 -0.00010103 3.3968e-18)
(0.99976 -0.0008926 -4.5827e-18)
(0.99999 -0.0013062 6.3993e-18)
(1.0006 -0.0020609 -2.9983e-17)
(1.0008 -0.0019047 4.0573e-17)
(1.0022 -0.0025123 5.9877e-18)
(1.001 -0.0014478 1.9887e-17)
(1.0048 -0.0011303 -1.2841e-17)
(0.99887 -0.00041533 1.0167e-19)
(1.009 0.0071244 5.9832e-18)
(0.9967 -0.0025585 -2.2048e-18)
(1.005 0.034298 -1.0712e-18)
(0.99957 -0.00010513 -9.7175e-19)
(0.99974 -0.00090807 8.9569e-19)
(0.99998 -0.0013283 1.5591e-17)
(1.0006 -0.0020873 8.1739e-18)
(1.0008 -0.0019321 -2.0283e-17)
(1.0022 -0.0025323 -1.1728e-17)
(1.001 -0.0014794 3.4729e-18)
(1.0049 -0.001117 -6.2424e-18)
(0.99897 -0.00046974 1.3381e-17)
(1.009 0.0071471 -3.9289e-18)
(0.99718 -0.0025045 1.0583e-17)
(1.0051 0.033437 -3.9088e-18)
(0.99955 -0.00010892 -1.6913e-18)
(0.99972 -0.00092254 -8.6343e-18)
(0.99996 -0.0013491 -4.6358e-18)
(1.0006 -0.0021123 3.2822e-17)
(1.0008 -0.0019587 -1.807e-17)
(1.0023 -0.0025521 -9.9324e-19)
(1.0011 -0.0015115 -5.193e-17)
(1.0049 -0.0011049 6.1364e-18)
(0.99907 -0.00052436 -2.5037e-17)
(1.009 0.0071638 -8.4767e-18)
(0.99764 -0.0024514 -1.0599e-17)
(1.0052 0.032596 2.3218e-18)
(0.99953 -0.00011243 -7.3012e-19)
(0.9997 -0.00093616 5.3493e-18)
(0.99994 -0.0013687 -1.9137e-18)
(1.0006 -0.0021363 -1.9111e-17)
(1.0007 -0.0019848 2.5967e-17)
(1.0023 -0.0025717 -2.4417e-18)
(1.0011 -0.0015442 2.7507e-17)
(1.005 -0.001094 -3.772e-18)
(0.99917 -0.00057916 1.2153e-17)
(1.0091 0.0071745 1.06e-17)
(0.9981 -0.0023992 8.7458e-18)
(1.0054 0.031774 -5.6097e-19)
(0.9995 -0.0001157 4.1388e-18)
(0.99968 -0.00094906 -3.2004e-18)
(0.99992 -0.0013875 -6.6937e-18)
(1.0006 -0.0021594 2.0857e-17)
(1.0007 -0.0020106 1.9058e-18)
(1.0023 -0.0025913 3.0273e-17)
(1.0011 -0.0015775 4.7453e-18)
(1.005 -0.0010843 1.8021e-17)
(0.99927 -0.00063416 4.5591e-18)
(1.0091 0.0071794 -3.4295e-18)
(0.99854 -0.002348 1.1407e-18)
(1.0055 0.030972 5.0869e-19)
(0.99948 -0.00011877 1.18e-18)
(0.99965 -0.00096135 1.3086e-18)
(0.9999 -0.0014055 -6.0695e-18)
(1.0006 -0.002182 -4.1536e-17)
(1.0007 -0.0020363 5.7704e-18)
(1.0023 -0.0026111 2.625e-18)
(1.0011 -0.0016115 -2.0577e-17)
(1.005 -0.0010759 2.5335e-19)
(0.99938 -0.00068935 1.3446e-17)
(1.0091 0.0071788 -2.2033e-18)
(0.99897 -0.0022978 -5.5551e-18)
(1.0056 0.030188 2.9948e-18)
(0.99945 -0.00012168 -5.0534e-18)
(0.99963 -0.00097317 5.546e-18)
(0.99988 -0.001423 1.0009e-18)
(1.0006 -0.0022042 2.3064e-17)
(1.0007 -0.002062 -2.6323e-17)
(1.0023 -0.0026311 -1.1597e-17)
(1.0011 -0.0016463 2.1045e-17)
(1.0051 -0.0010688 -1.2205e-17)
(0.99949 -0.00074474 -2.1265e-17)
(1.0091 0.0071727 -1.088e-17)
(0.99939 -0.0022485 7.0801e-18)
(1.0057 0.029423 9.9794e-19)
(0.99942 -0.00012445 -5.3467e-19)
(0.99961 -0.00098462 -5.5807e-18)
(0.99986 -0.0014402 1.0656e-17)
(1.0006 -0.0022261 1.0226e-17)
(1.0007 -0.0020879 3.2511e-17)
(1.0023 -0.0026515 4.4543e-18)
(1.0011 -0.0016818 1.8694e-17)
(1.0051 -0.0010632 3.0941e-17)
(0.99959 -0.00080032 -9.4429e-19)
(1.0091 0.0071612 1.9137e-17)
(0.9998 -0.0022004 -7.4765e-19)
(1.0059 0.028675 -2.9131e-18)
(0.9994 -0.00012712 5.1826e-18)
(0.99958 -0.00099577 -8.1246e-18)
(0.99984 -0.0014571 -1.6173e-17)
(1.0006 -0.0022479 -2.7184e-18)
(1.0007 -0.0021141 -3.5285e-17)
(1.0023 -0.0026723 -1.3255e-17)
(1.0011 -0.0017181 -6.4884e-18)
(1.0052 -0.0010588 2.2976e-19)
(0.9997 -0.00085608 2.7685e-17)
(1.0092 0.0071447 4.4044e-18)
(1.0002 -0.0021533 -9.741e-18)
(1.006 0.027945 1.7464e-18)
(0.99937 -0.00012972 -5.8101e-18)
(0.99956 -0.0010067 1.0149e-17)
(0.99982 -0.0014738 8.4661e-18)
(1.0005 -0.0022697 -5.4163e-18)
(1.0007 -0.0021406 2.8376e-17)
(1.0023 -0.0026935 1.5857e-17)
(1.0012 -0.0017553 -5.1293e-18)
(1.0052 -0.001056 -3.1177e-17)
(0.99981 -0.00091205 -9.3919e-19)
(1.0092 0.007123 -1.2594e-17)
(1.0006 -0.0021073 1.1539e-17)
(1.0061 0.027233 -2.2868e-18)
(0.99934 -0.00013226 3.4911e-18)
(0.99954 -0.0010175 -1.9419e-18)
(0.9998 -0.0014905 1.1209e-17)
(1.0005 -0.0022915 -2.2785e-17)
(1.0007 -0.0021674 9.2651e-18)
(1.0024 -0.0027152 -5.6966e-18)
(1.0012 -0.0017932 -1.1053e-17)
(1.0053 -0.0010545 -2.5016e-18)
(0.99992 -0.0009682 -3.3432e-17)
(1.0092 0.0070965 8.3042e-18)
(1.001 -0.0020625 -1.058e-17)
(1.0062 0.026536 7.6286e-19)
(0.99932 -0.00013477 2.7599e-19)
(0.99951 -0.0010283 -6.1089e-18)
(0.99977 -0.0015072 6.3649e-18)
(1.0005 -0.0023135 2.9988e-17)
(1.0007 -0.0021948 -2.2068e-17)
(1.0024 -0.0027374 1.8324e-17)
(1.0012 -0.0018321 -6.3912e-18)
(1.0053 -0.0010545 5.7947e-18)
(1 -0.0010246 3.9727e-17)
(1.0092 0.0070653 -1.5412e-17)
(1.0013 -0.0020189 1.6188e-17)
(1.0064 0.025856 2.1561e-18)
(0.99929 -0.00013726 4.9536e-19)
(0.99948 -0.001039 -1.264e-18)
(0.99975 -0.0015241 -9.1573e-18)
(1.0005 -0.0023357 -4.5149e-18)
(1.0007 -0.0022226 1.9232e-17)
(1.0024 -0.0027602 1.4504e-19)
(1.0012 -0.0018717 -1.2564e-17)
(1.0054 -0.001056 -1.3829e-17)
(1.0001 -0.0010811 -1.6633e-17)
(1.0092 0.0070294 -1.4515e-18)
(1.0017 -0.0019765 2.9788e-18)
(1.0065 0.025192 2.2516e-19)
(0.99926 -0.00013975 -7.9721e-19)
(0.99946 -0.0010497 1.5045e-17)
(0.99973 -0.001541 -6.1074e-18)
(1.0005 -0.0023582 -2.5511e-17)
(1.0007 -0.002251 8.8659e-18)
(1.0024 -0.0027836 -4.6683e-17)
(1.0012 -0.0019122 6.2663e-18)
(1.0054 -0.001059 8.7095e-18)
(1.0003 -0.0011379 7.7254e-19)
(1.0092 0.0069891 1.5643e-17)
(1.0021 -0.0019353 -9.793e-19)
(1.0066 0.024544 -6.0223e-18)
(0.99923 -0.00014225 -2.1048e-19)
(0.99943 -0.0010605 -2.9532e-19)
(0.9997 -0.0015582 8.2214e-18)
(1.0005 -0.002381 1.575e-17)
(1.0006 -0.00228 -3.5229e-17)
(1.0024 -0.0028076 2.017e-18)
(1.0013 -0.0019536 1.1226e-17)
(1.0054 -0.0010636 1.3636e-17)
(1.0004 -0.0011948 -1.0529e-17)
(1.0093 0.0069444 -1.5224e-17)
(1.0024 -0.0018954 -1.6104e-17)
(1.0067 0.023911 6.3574e-18)
(0.9992 -0.00014477 -1.3771e-18)
(0.99941 -0.0010714 4.2033e-19)
(0.99968 -0.0015756 -3.964e-18)
(1.0005 -0.002404 -1.0515e-17)
(1.0006 -0.0023095 1.9528e-17)
(1.0024 -0.0028322 2.5056e-17)
(1.0013 -0.0019959 3.2744e-18)
(1.0055 -0.0010696 6.9085e-18)
(1.0005 -0.001252 1.6793e-17)
(1.0093 0.0068955 2.5637e-18)
(1.0027 -0.0018568 1.1923e-17)
(1.0069 0.023292 -3.8574e-18)
(0.99917 -0.00014732 2.5345e-18)
(0.99938 -0.0010824 7.7499e-19)
(0.99965 -0.0015932 -5.6647e-18)
(1.0004 -0.0024275 1.5533e-18)
(1.0006 -0.0023396 -1.0588e-17)
(1.0024 -0.0028575 -6.0102e-18)
(1.0013 -0.002039 -1.2098e-18)
(1.0055 -0.0010773 -3.1193e-17)
(1.0006 -0.0013094 3.2997e-18)
(1.0093 0.0068424 -5.1889e-18)
(1.0031 -0.0018195 -4.8488e-18)
(1.007 0.022688 -4.6453e-18)
(0.99914 -0.00014991 -5.1724e-18)
(0.99935 -0.0010934 1.0124e-18)
(0.99963 -0.0016112 3.0046e-18)
(1.0004 -0.0024513 -1.9518e-17)
(1.0006 -0.0023704 -1.2069e-17)
(1.0024 -0.0028834 -2.79e-17)
(1.0013 -0.002083 5.8413e-18)
(1.0056 -0.0010865 1.2738e-17)
(1.0007 -0.001367 -3.5377e-17)
(1.0093 0.0067854 2.3932e-17)
(1.0034 -0.0017836 -5.2552e-18)
(1.0071 0.022098 2.997e-18)
(0.99911 -0.00015254 4.7479e-18)
(0.99932 -0.0011047 2.2658e-18)
(0.9996 -0.0016294 1.1556e-18)
(1.0004 -0.0024755 6.191e-18)
(1.0006 -0.0024018 -2.6654e-18)
(1.0025 -0.00291 5.4075e-17)
(1.0013 -0.0021279 2.0974e-17)
(1.0056 -0.0010973 -1.9802e-17)
(1.0008 -0.0014249 3.4053e-17)
(1.0093 0.0067244 -8.9288e-18)
(1.0037 -0.0017491 -3.4737e-18)
(1.0072 0.021522 -1.4918e-18)
(0.99908 -0.00015521 1.1645e-18)
(0.99929 -0.001116 -1.4349e-17)
(0.99958 -0.0016479 2.3125e-18)
(1.0004 -0.0025001 2.7798e-17)
(1.0006 -0.0024338 2.0631e-17)
(1.0025 -0.0029373 -8.7456e-19)
(1.0014 -0.0021737 -2.9056e-17)
(1.0056 -0.0011098 6.0003e-18)
(1.001 -0.001483 -7.6816e-18)
(1.0094 0.0066597 -1.2349e-17)
(1.004 -0.001716 8.8322e-18)
(1.0074 0.02096 1.3931e-18)
(0.99905 -0.00015793 -4.606e-18)
(0.99926 -0.0011276 -4.7831e-18)
(0.99955 -0.0016668 -1.2526e-17)
(1.0004 -0.0025251 -2.3312e-17)
(1.0006 -0.0024665 -2.0759e-17)
(1.0025 -0.0029653 -2.4572e-17)
(1.0014 -0.0022204 5.3665e-18)
(1.0057 -0.0011239 4.6606e-17)
(1.0011 -0.0015414 3.3501e-18)
(1.0094 0.0065913 -1.0751e-18)
(1.0043 -0.0016843 -3.1213e-18)
(1.0075 0.02041 -3.7351e-18)
(0.99902 -0.00016071 3.4178e-18)
(0.99924 -0.0011393 4.4436e-18)
(0.99953 -0.001686 1.9303e-17)
(1.0004 -0.0025506 1.6145e-17)
(1.0006 -0.0024999 2.0196e-17)
(1.0025 -0.0029941 -9.1354e-19)
(1.0014 -0.002268 -2.9901e-17)
(1.0057 -0.0011396 -2.5189e-17)
(1.0012 -0.0016 8.3183e-18)
(1.0094 0.0065194 4.2748e-18)
(1.0046 -0.001654 7.0506e-18)
(1.0076 0.019874 2.8895e-18)
(0.99898 -0.00016355 -2.4136e-18)
(0.99921 -0.0011511 6.9703e-18)
(0.9995 -0.0017056 -1.2771e-17)
(1.0004 -0.0025765 2.3362e-18)
(1.0006 -0.002534 9.3897e-18)
(1.0025 -0.0030236 -2.4017e-18)
(1.0014 -0.0023166 6.7122e-18)
(1.0058 -0.001157 6.9923e-18)
(1.0013 -0.001659 2.7422e-18)
(1.0094 0.006444 1.0558e-17)
(1.0049 -0.0016253 -8.4827e-18)
(1.0078 0.019349 5.8431e-19)
(0.99895 -0.00016644 3.644e-18)
(0.99917 -0.0011632 4.3196e-19)
(0.99947 -0.0017255 -5.9779e-18)
(1.0003 -0.0026029 9.2981e-19)
(1.0006 -0.0025688 -1.543e-18)
(1.0025 -0.0030539 -2.3725e-17)
(1.0014 -0.002366 1.8747e-17)
(1.0058 -0.0011761 2.481e-17)
(1.0014 -0.0017182 -1.3632e-17)
(1.0094 0.0063653 -1.4686e-17)
(1.0051 -0.0015981 -2.4862e-18)
(1.0079 0.018837 4.9602e-18)
(0.99892 -0.00016939 -2.6471e-18)
(0.99914 -0.0011754 -3.3268e-19)
(0.99944 -0.0017459 7.4325e-18)
(1.0003 -0.0026298 -1.7864e-17)
(1.0005 -0.0026043 -1.3948e-17)
(1.0025 -0.0030849 2.9952e-17)
(1.0015 -0.0024164 -2.8672e-18)
(1.0058 -0.001197 -2.6271e-17)
(1.0015 -0.0017777 3.476e-18)
(1.0095 0.0062833 1.3824e-17)
(1.0054 -0.0015724 8.4238e-18)
(1.008 0.018337 -1.7884e-18)
(0.99888 -0.00017241 2.6302e-19)
(0.99911 -0.0011879 2.4366e-18)
(0.99942 -0.0017666 4.0611e-18)
(1.0003 -0.0026571 9.2346e-18)
(1.0005 -0.0026405 2.7339e-17)
(1.0025 -0.0031168 6.9824e-18)
(1.0015 -0.0024677 -2.497e-17)
(1.0059 -0.0012195 2.4598e-18)
(1.0017 -0.0018376 8.9574e-18)
(1.0095 0.0061982 -1.245e-17)
(1.0057 -0.0015482 -5.7009e-18)
(1.0081 0.017849 -2.0664e-18)
(0.99885 -0.00017549 7.4679e-19)
(0.99908 -0.0012005 -4.2394e-19)
(0.99939 -0.0017876 -1.0715e-17)
(1.0003 -0.002685 -1.986e-19)
(1.0005 -0.0026775 -5.4052e-17)
(1.0025 -0.0031495 8.6079e-18)
(1.0015 -0.00252 2.4528e-17)
(1.0059 -0.0012437 -7.07e-18)
(1.0018 -0.0018978 -9.3772e-18)
(1.0095 0.0061099 2.0669e-17)
(1.0059 -0.0015256 6.8313e-18)
(1.0083 0.017372 5.3533e-18)
(0.99881 -0.00017864 8.0216e-19)
(0.99905 -0.0012133 -8.7951e-19)
(0.99936 -0.0018091 1.9378e-17)
(1.0003 -0.0027133 4.2587e-18)
(1.0005 -0.0027152 4.7899e-17)
(1.0025 -0.003183 -3.034e-17)
(1.0015 -0.0025732 -8.2157e-18)
(1.0059 -0.0012698 6.6511e-18)
(1.0019 -0.0019583 3.2349e-18)
(1.0095 0.0060188 -1.1629e-17)
(1.0062 -0.0015046 -1.1025e-18)
(1.0084 0.016906 -3.9468e-18)
(0.99878 -0.00018186 -3.135e-18)
(0.99902 -0.0012264 1.4764e-18)
(0.99933 -0.001831 -1.1389e-17)
(1.0003 -0.0027422 5.5994e-18)
(1.0005 -0.0027537 -1.82e-17)
(1.0026 -0.0032174 4.1145e-18)
(1.0016 -0.0026274 3.2897e-17)
(1.006 -0.0012975 -2.489e-17)
(1.002 -0.0020193 -1.1888e-17)
(1.0096 0.0059247 -1.1496e-17)
(1.0064 -0.0014852 -5.4408e-18)
(1.0085 0.01645 -1.0824e-18)
(0.99874 -0.00018514 3.9049e-18)
(0.99898 -0.0012396 -3.5066e-18)
(0.9993 -0.0018533 -1.1052e-17)
(1.0002 -0.0027715 -8.9291e-18)
(1.0005 -0.0027929 -2.9756e-17)
(1.0026 -0.0032527 -1.908e-17)
(1.0016 -0.0026826 -2.0171e-17)
(1.006 -0.0013271 2.314e-17)
(1.0021 -0.0020806 1.153e-17)
(1.0096 0.0058278 1.7407e-17)
(1.0066 -0.0014674 -2.1354e-18)
(1.0087 0.016006 5.2235e-18)
(0.99871 -0.0001885 -6.2757e-18)
(0.99895 -0.0012531 5.6813e-18)
(0.99927 -0.0018761 2.7061e-17)
(1.0002 -0.0028014 -2.1061e-18)
(1.0005 -0.002833 3.2921e-17)
(1.0026 -0.0032889 1.4403e-18)
(1.0016 -0.0027388 -1.9324e-17)
(1.006 -0.0013585 9.0513e-18)
(1.0023 -0.0021423 -4.1581e-18)
(1.0096 0.0057282 -3.6454e-18)
(1.0069 -0.0014513 6.9252e-18)
(1.0088 0.015571 -3.5322e-18)
(0.99867 -0.00019193 5.1427e-18)
(0.99891 -0.0012668 -7.7209e-18)
(0.99924 -0.0018992 -3.155e-17)
(1.0002 -0.0028319 1.3776e-17)
(1.0005 -0.0028738 -2.3454e-17)
(1.0026 -0.003326 2.6373e-17)
(1.0016 -0.0027959 6.2973e-18)
(1.0061 -0.0013916 -8.6189e-18)
(1.0024 -0.0022045 -1.9965e-18)
(1.0096 0.0056259 -9.1228e-18)
(1.0071 -0.0014368 -1.1304e-17)
(1.0089 0.015146 4.8768e-18)
(0.99863 -0.00019544 -3.7879e-18)
(0.99888 -0.0012807 2.5673e-18)
(0.99921 -0.0019228 1.917e-17)
(1.0002 -0.0028629 -1.8159e-17)
(1.0005 -0.0029155 3.7738e-17)
(1.0026 -0.003364 -2.0468e-17)
(1.0017 -0.0028541 3.6713e-18)
(1.0061 -0.0014266 -1.3615e-17)
(1.0025 -0.0022671 6.5233e-18)
(1.0097 0.0055211 -1.2741e-18)
(1.0073 -0.001424 4.8364e-18)
(1.009 0.014732 -2.1706e-18)
(0.99859 -0.00019902 4.6457e-18)
(0.99884 -0.0012949 1.9986e-18)
(0.99918 -0.0019469 -1.278e-17)
(1.0002 -0.0028945 -3.6888e-19)
(1.0004 -0.0029579 -1.6663e-18)
(1.0026 -0.003403 4.9508e-18)
(1.0017 -0.0029132 3.4878e-17)
(1.0061 -0.0014635 9.3116e-18)
(1.0026 -0.0023302 -1.934e-17)
(1.0097 0.0054137 -6.6097e-18)
(1.0075 -0.0014128 -4.5646e-18)
(1.0092 0.014326 2.2747e-18)
(0.99855 -0.00020268 -5.3247e-18)
(0.99881 -0.0013093 -7.406e-18)
(0.99914 -0.0019714 5.3618e-18)
(1.0001 -0.0029267 1.571e-17)