/*--------------------------------*- C++ -*----------------------------------*\
  =========                 |
  \\      /  F ield         | OpenFOAM: The Open Source CFD Toolbox
   \\    /   O peration     | Website:  https://openfoam.org
    \\  /    A nd           | Version:  6.0
     \\/     M anipulation  |
\*---------------------------------------------------------------------------*/
FoamFile
{
    version     2.0;
    format      ascii;
    class       volScalarField;
    location    "3";
    object      p;
}
// * * * * * * * * * * * * * * * * * * * * * * * * * * * * * * * * * * * * * //

dimensions      [0 2 -2 0 0 0 0];

internalField   nonuniform List<scalar> 
17000
(
0.10006
0.099878
0.099126
0.098362
0.096961
0.096113
0.094601
0.094892
0.095247
0.09844
0.12049
0.16269
0.10006
0.099878
0.099127
0.098362
0.096961
0.096113
0.0946
0.094893
0.095243
0.098502
0.11981
0.15762
0.10006
0.099879
0.099127
0.098363
0.09696
0.096114
0.094598
0.094892
0.095234
0.098546
0.11893
0.15312
0.10006
0.09988
0.099128
0.098364
0.09696
0.096115
0.094594
0.094891
0.095219
0.098566
0.11796
0.14959
0.10006
0.099881
0.099129
0.098366
0.09696
0.096116
0.09459
0.094888
0.095198
0.098571
0.11692
0.14661
0.10007
0.099883
0.09913
0.098368
0.096959
0.096116
0.094585
0.094884
0.095171
0.098564
0.11584
0.14394
0.10007
0.099885
0.099132
0.09837
0.096959
0.096117
0.094579
0.09488
0.09514
0.098543
0.11475
0.14151
0.10007
0.099888
0.099133
0.098372
0.096959
0.096117
0.094573
0.094874
0.095103
0.098509
0.11367
0.13928
0.10007
0.09989
0.099135
0.098374
0.096959
0.096117
0.094566
0.094867
0.095061
0.098461
0.11262
0.13721
0.10008
0.099893
0.099138
0.098376
0.096959
0.096117
0.094558
0.094859
0.095014
0.098399
0.11159
0.13528
0.10008
0.099897
0.09914
0.098379
0.096958
0.096116
0.094549
0.09485
0.094961
0.098324
0.11061
0.13346
0.10008
0.0999
0.099143
0.098382
0.096958
0.096116
0.09454
0.094839
0.094903
0.098238
0.10966
0.13174
0.10009
0.099904
0.099146
0.098385
0.096958
0.096115
0.09453
0.094828
0.09484
0.098141
0.10876
0.13011
0.10009
0.099909
0.09915
0.098388
0.096958
0.096114
0.094519
0.094815
0.09477
0.098035
0.1079
0.12857
0.1001
0.099913
0.099154
0.098391
0.096958
0.096113
0.094508
0.094801
0.094695
0.097921
0.10708
0.12709
0.1001
0.099918
0.099158
0.098395
0.096959
0.096111
0.094496
0.094786
0.094614
0.097801
0.10629
0.12568
0.10011
0.099924
0.099162
0.098398
0.096959
0.09611
0.094483
0.094769
0.094528
0.097676
0.10554
0.12433
0.10011
0.09993
0.099166
0.098402
0.096959
0.096108
0.09447
0.094752
0.094436
0.097548
0.10482
0.12303
0.10012
0.099936
0.099171
0.098406
0.096959
0.096106
0.094456
0.094733
0.094339
0.097417
0.10413
0.12178
0.10012
0.099942
0.099177
0.098411
0.09696
0.096104
0.094441
0.094712
0.094236
0.097286
0.10346
0.12057
0.10013
0.099949
0.099182
0.098415
0.09696
0.096101
0.094425
0.09469
0.094129
0.097153
0.10281
0.11941
0.10014
0.099956
0.099188
0.09842
0.09696
0.096099
0.094409
0.094667
0.094016
0.097021
0.10218
0.11828
0.10015
0.099964
0.099194
0.098425
0.096961
0.096096
0.094392
0.094643
0.093899
0.09689
0.10156
0.11718
0.10015
0.099972
0.0992
0.09843
0.096961
0.096093
0.094375
0.094616
0.093778
0.09676
0.10096
0.11611
0.10016
0.09998
0.099207
0.098435
0.096962
0.09609
0.094357
0.094588
0.093653
0.096632
0.10037
0.11508
0.10017
0.099989
0.099214
0.098441
0.096963
0.096086
0.094338
0.094559
0.093525
0.096505
0.099784
0.11407
0.10018
0.099998
0.099222
0.098447
0.096964
0.096082
0.094319
0.094528
0.093393
0.09638
0.099209
0.11308
0.10019
0.10001
0.09923
0.098453
0.096965
0.096078
0.094299
0.094496
0.093258
0.096256
0.09864
0.11211
0.1002
0.10002
0.099238
0.098459
0.096966
0.096074
0.094278
0.094461
0.093121
0.096134
0.098078
0.11117
0.10021
0.10003
0.099246
0.098466
0.096967
0.09607
0.094257
0.094426
0.092982
0.096013
0.09752
0.11024
0.10022
0.10004
0.099255
0.098472
0.096968
0.096065
0.094235
0.094388
0.092841
0.095892
0.096968
0.10934
0.10023
0.10005
0.099264
0.098479
0.096969
0.09606
0.094212
0.094349
0.092699
0.095773
0.09642
0.10845
0.10025
0.10006
0.099274
0.098486
0.096971
0.096055
0.094189
0.094308
0.092555
0.095653
0.095877
0.10758
0.10026
0.10007
0.099283
0.098494
0.096972
0.09605
0.094165
0.094266
0.092411
0.095534
0.095338
0.10672
0.10027
0.10008
0.099294
0.098502
0.096974
0.096045
0.09414
0.094223
0.092266
0.095414
0.094803
0.10588
0.10028
0.1001
0.099304
0.098509
0.096975
0.096039
0.094115
0.094178
0.09212
0.095294
0.094273
0.10506
0.1003
0.10011
0.099315
0.098518
0.096977
0.096033
0.094089
0.094131
0.091975
0.095173
0.093747
0.10425
0.10031
0.10012
0.099327
0.098526
0.096979
0.096027
0.094063
0.094084
0.091829
0.09505
0.093227
0.10346
0.10033
0.10014
0.099338
0.098535
0.096981
0.09602
0.094035
0.094035
0.091684
0.094926
0.092711
0.10268
0.10034
0.10015
0.09935
0.098544
0.096984
0.096014
0.094007
0.093985
0.091539
0.094801
0.092201
0.10191
0.10036
0.10017
0.099363
0.098553
0.096986
0.096007
0.093979
0.093934
0.091394
0.094674
0.091696
0.10116
0.10037
0.10018
0.099376
0.098562
0.096989
0.096
0.09395
0.093883
0.09125
0.094545
0.091197
0.10042
0.10039
0.1002
0.099389
0.098572
0.096991
0.095992
0.093919
0.093831
0.091106
0.094414
0.090704
0.099693
0.10041
0.10021
0.099403
0.098582
0.096994
0.095985
0.093889
0.093778
0.090963
0.09428
0.090217
0.098982
0.10042
0.10023
0.099417
0.098592
0.096997
0.095977
0.093857
0.093724
0.09082
0.094145
0.089736
0.098283
0.10044
0.10025
0.099432
0.098602
0.097
0.095969
0.093825
0.09367
0.090677
0.094007
0.089262
0.097597
0.10046
0.10027
0.099446
0.098613
0.097004
0.095961
0.093793
0.093616
0.090535
0.093866
0.088794
0.096924
0.10048
0.10028
0.099462
0.098624
0.097007
0.095952
0.093759
0.093562
0.090393
0.093724
0.088333
0.096263
0.1005
0.1003
0.099478
0.098636
0.097011
0.095943
0.093725
0.093508
0.090251
0.093578
0.08788
0.095614
0.10052
0.10032
0.099494
0.098647
0.097015
0.095935
0.09369
0.093454
0.09011
0.093431
0.087433
0.094977
0.10054
0.10034
0.099511
0.098659
0.097019
0.095926
0.093655
0.0934
0.089969
0.093281
0.086992
0.094351
0.10056
0.10036
0.099528
0.098671
0.097023
0.095916
0.093619
0.093346
0.089828
0.093128
0.086559
0.093737
0.10058
0.10038
0.099545
0.098684
0.097028
0.095907
0.093582
0.093293
0.089686
0.092974
0.086133
0.093135
0.1006
0.1004
0.099563
0.098696
0.097033
0.095897
0.093545
0.09324
0.089545
0.092817
0.085714
0.092543
0.10062
0.10043
0.099582
0.09871
0.097037
0.095888
0.093507
0.093187
0.089403
0.092658
0.085301
0.091961
0.10065
0.10045
0.099601
0.098723
0.097043
0.095878
0.093469
0.093135
0.089262
0.092497
0.084896
0.09139
0.10067
0.10047
0.09962
0.098737
0.097048
0.095868
0.09343
0.093083
0.089119
0.092334
0.084497
0.09083
0.10069
0.10049
0.09964
0.098751
0.097054
0.095857
0.093391
0.093032
0.088977
0.092168
0.084105
0.090279
0.10072
0.10052
0.09966
0.098765
0.097059
0.095847
0.093351
0.092981
0.088834
0.092001
0.083719
0.089737
0.10074
0.10054
0.099681
0.09878
0.097065
0.095837
0.093311
0.092931
0.088691
0.091832
0.08334
0.089205
0.10077
0.10057
0.099703
0.098795
0.097072
0.095826
0.09327
0.092881
0.088547
0.091662
0.082967
0.088682
0.1008
0.10059
0.099725
0.09881
0.097078
0.095816
0.093229
0.092832
0.088403
0.09149
0.0826
0.088167
0.10082
0.10062
0.099747
0.098826
0.097085
0.095805
0.093188
0.092784
0.088259
0.091316
0.08224
0.087662
0.10085
0.10064
0.09977
0.098842
0.097092
0.095795
0.093146
0.092735
0.088114
0.09114
0.081885
0.087164
0.10088
0.10067
0.099793
0.098859
0.097099
0.095784
0.093103
0.092688
0.087968
0.090963
0.081536
0.086675
0.10091
0.1007
0.099817
0.098876
0.097107
0.095774
0.093061
0.09264
0.087823
0.090785
0.081193
0.086193
0.10094
0.10073
0.099842
0.098893
0.097115
0.095763
0.093018
0.092593
0.087677
0.090606
0.080856
0.085719
0.10097
0.10076
0.099867
0.098911
0.097123
0.095753
0.092975
0.092546
0.08753
0.090425
0.080524
0.085252
0.101
0.10079
0.099893
0.098929
0.097131
0.095743
0.092931
0.0925
0.087384
0.090243
0.080197
0.084793
0.10103
0.10082
0.099919
0.098947
0.09714
0.095732
0.092888
0.092453
0.087237
0.09006
0.079875
0.08434
0.10106
0.10085
0.099946
0.098966
0.097149
0.095722
0.092844
0.092407
0.08709
0.089876
0.079559
0.083894
0.1011
0.10088
0.099973
0.098986
0.097158
0.095713
0.092799
0.092361
0.086943
0.089691
0.079247
0.083455
0.10113
0.10091
0.1
0.099005
0.097168
0.095703
0.092755
0.092315
0.086796
0.089505
0.07894
0.083022
0.10116
0.10094
0.10003
0.099026
0.097177
0.095693
0.09271
0.092269
0.086648
0.089319
0.078638
0.082595
0.1012
0.10098
0.10006
0.099046
0.097187
0.095684
0.092665
0.092223
0.086501
0.089131
0.078341
0.082175
0.10123
0.10101
0.10009
0.099068
0.097198
0.095675
0.09262
0.092176
0.086354
0.088943
0.078048
0.08176
0.10127
0.10105
0.10012
0.099089
0.097208
0.095666
0.092575
0.09213
0.086208
0.088755
0.077759
0.081351
0.10131
0.10108
0.10015
0.099111
0.097219
0.095658
0.09253
0.092083
0.086061
0.088566
0.077475
0.080948
0.10134
0.10112
0.10018
0.099134
0.097231
0.09565
0.092484
0.092036
0.085915
0.088376
0.077195
0.08055
0.10138
0.10116
0.10021
0.099157
0.097242
0.095642
0.092438
0.091989
0.08577
0.088186
0.076919
0.080157
0.10142
0.10119
0.10025
0.099181
0.097254
0.095635
0.092393
0.091941
0.085624
0.087995
0.076647
0.079769
0.10146
0.10123
0.10028
0.099206
0.097266
0.095628
0.092347
0.091894
0.08548
0.087804
0.076379
0.079386
0.1015
0.10127
0.10031
0.099231
0.097279
0.095621
0.092301
0.091845
0.085336
0.087613
0.076115
0.079009
0.10155
0.10131
0.10035
0.099256
0.097292
0.095615
0.092254
0.091797
0.085192
0.087421
0.075855
0.078636
0.10159
0.10135
0.10039
0.099282
0.097305
0.095609
0.092208
0.091747
0.085049
0.087229
0.075598
0.078267
0.10163
0.10139
0.10042
0.099309
0.097319
0.095604
0.092162
0.091698
0.084907
0.087037
0.075345
0.077904
0.10168
0.10144
0.10046
0.099337
0.097333
0.095599
0.092115
0.091648
0.084766
0.086845
0.075096
0.077544
0.10172
0.10148
0.1005
0.099365
0.097347
0.095595
0.092069
0.091597
0.084625
0.086653
0.07485
0.077189
0.10177
0.10152
0.10054
0.099394
0.097362
0.095592
0.092023
0.091546
0.084486
0.086461
0.074607
0.076838
0.10181
0.10157
0.10058
0.099424
0.097377
0.095589
0.091976
0.091494
0.084347
0.086269
0.074368
0.076491
0.10186
0.10162
0.10062
0.099454
0.097392
0.095586
0.09193
0.091442
0.084209
0.086077
0.074132
0.076149
0.10191
0.10166
0.10066
0.099485
0.097408
0.095584
0.091884
0.09139
0.084072
0.085885
0.0739
0.07581
0.10196
0.10171
0.1007
0.099517
0.097425
0.095583
0.091838
0.091336
0.083936
0.085693
0.07367
0.075474
0.10201
0.10176
0.10074
0.09955
0.097442
0.095582
0.091792
0.091283
0.083801
0.085501
0.073444
0.075143
0.10206
0.10181
0.10079
0.099583
0.097459
0.095582
0.091746
0.091228
0.083667
0.085309
0.07322
0.074815
0.10212
0.10186
0.10083
0.099618
0.097477
0.095583
0.0917
0.091173
0.083535
0.085118
0.073
0.074491
0.10217
0.10192
0.10088
0.099653
0.097495
0.095584
0.091654
0.091118
0.083403
0.084927
0.072782
0.07417
0.10223
0.10197
0.10093
0.099689
0.097514
0.095586
0.091609
0.091062
0.083272
0.084736
0.072568
0.073852
0.10228
0.10202
0.10097
0.099726
0.097534
0.095589
0.091564
0.091006
0.083143
0.084545
0.072356
0.073538
0.10234
0.10208
0.10102
0.099765
0.097554
0.095592
0.091519
0.090949
0.083014
0.084355
0.072146
0.073227
0.1024
0.10214
0.10107
0.099804
0.097575
0.095597
0.091475
0.090891
0.082887
0.084165
0.07194
0.072919
0.10246
0.10219
0.10113
0.099844
0.097596
0.095602
0.091431
0.090833
0.082761
0.083975
0.071736
0.072614
0.10252
0.10225
0.10118
0.099886
0.097618
0.095608
0.091387
0.090775
0.082636
0.083786
0.071534
0.072312
0.10258
0.10231
0.10123
0.099928
0.097641
0.095615
0.091344
0.090716
0.082513
0.083597
0.071335
0.072012
0.10265
0.10238
0.10129
0.099972
0.097664
0.095622
0.091302
0.090657
0.08239
0.083408
0.071139
0.071716
0.10271
0.10244
0.10134
0.10002
0.097689
0.095631
0.09126
0.090597
0.082269
0.08322
0.070945
0.071422
0.10278
0.10251
0.1014
0.10006
0.097714
0.09564
0.091218
0.090537
0.082149
0.083033
0.070753
0.071131
0.10285
0.10257
0.10146
0.10011
0.09774
0.095651
0.091177
0.090477
0.082031
0.082846
0.070563
0.070842
0.10292
0.10264
0.10152
0.10016
0.097767
0.095662
0.091137
0.090416
0.081913
0.082659
0.070376
0.070556
0.10299
0.10271
0.10158
0.10021
0.097795
0.095675
0.091098
0.090355
0.081797
0.082473
0.070191
0.070272
0.10306
0.10278
0.10164
0.10026
0.097824
0.095688
0.091059
0.090294
0.081682
0.082287
0.070008
0.069991
0.10314
0.10285
0.10171
0.10031
0.097854
0.095703
0.091021
0.090232
0.081569
0.082102
0.069827
0.069712
0.10321
0.10293
0.10177
0.10037
0.097885
0.095718
0.090984
0.090171
0.081456
0.081918
0.069648
0.069434
0.10329
0.10301
0.10184
0.10042
0.097917
0.095735
0.090948
0.090109
0.081346
0.081734
0.069471
0.06916
0.10337
0.10308
0.10191
0.10048
0.097951
0.095753
0.090913
0.090047
0.081236
0.081551
0.069296
0.068887
0.10346
0.10316
0.10198
0.10054
0.097986
0.095773
0.090879
0.089985
0.081128
0.081368
0.069123
0.068616
0.10354
0.10325
0.10206
0.1006
0.098022
0.095794
0.090847
0.089923
0.081021
0.081186
0.068952
0.068347
0.10363
0.10333
0.10213
0.10067
0.098059
0.095816
0.090815
0.089861
0.080915
0.081005
0.068782
0.06808
0.10371
0.10342
0.10221
0.10073
0.098099
0.095839
0.090784
0.089799
0.080811
0.080824
0.068614
0.067814
0.1038
0.10351
0.10229
0.1008
0.098139
0.095864
0.090755
0.089737
0.080709
0.080644
0.068448
0.067551
0.1039
0.1036
0.10237
0.10087
0.098181
0.095891
0.090728
0.089675
0.080608
0.080465
0.068284
0.067289
0.10399
0.10369
0.10245
0.10094
0.098226
0.095919
0.090701
0.089614
0.080508
0.080286
0.068121
0.067028
0.10409
0.10379
0.10254
0.10101
0.098271
0.095949
0.090676
0.089553
0.08041
0.080108
0.06796
0.06677
0.10419
0.10388
0.10263
0.10109
0.098319
0.09598
0.090653
0.089492
0.080313
0.079931
0.067801
0.066512
0.10429
0.10398
0.10272
0.10117
0.098369
0.096013
0.090632
0.089432
0.080218
0.079754
0.067643
0.066256
0.1044
0.10409
0.10281
0.10125
0.098421
0.096048
0.090612
0.089372
0.080124
0.079579
0.067486
0.066002
0.10451
0.10419
0.10291
0.10133
0.098475
0.096085
0.090594
0.089313
0.080032
0.079404
0.067331
0.065749
0.10462
0.1043
0.10301
0.10141
0.098531
0.096124
0.090578
0.089255
0.079942
0.07923
0.067177
0.065497
0.10473
0.10442
0.10311
0.1015
0.098589
0.096166
0.090563
0.089197
0.079853
0.079057
0.067024
0.065246
0.10485
0.10453
0.10322
0.10159
0.09865
0.096209
0.090551
0.08914
0.079766
0.078884
0.066873
0.064996
0.10497
0.10465
0.10332
0.10169
0.098714
0.096254
0.090542
0.089084
0.079681
0.078713
0.066723
0.064747
0.10509
0.10477
0.10344
0.10179
0.09878
0.096302
0.090534
0.089029
0.079597
0.078542
0.066575
0.0645
0.10522
0.1049
0.10355
0.10189
0.09885
0.096353
0.090529
0.088975
0.079516
0.078373
0.066427
0.064253
0.10535
0.10503
0.10367
0.10199
0.098922
0.096406
0.090526
0.088922
0.079436
0.078204
0.066281
0.064007
0.10548
0.10516
0.10379
0.1021
0.098997
0.096461
0.090526
0.08887
0.079358
0.078036
0.066136
0.063762
0.10562
0.1053
0.10392
0.10221
0.099076
0.09652
0.090529
0.08882
0.079282
0.07787
0.065992
0.063518
0.10576
0.10544
0.10405
0.10232
0.099157
0.096581
0.090535
0.088771
0.079208
0.077704
0.065849
0.063274
0.10591
0.10558
0.10418
0.10244
0.099243
0.096645
0.090543
0.088724
0.079136
0.077539
0.065707
0.063031
0.10606
0.10573
0.10432
0.10257
0.099331
0.096712
0.090555
0.088678
0.079066
0.077376
0.065567
0.062789
0.10621
0.10588
0.10446
0.10269
0.099424
0.096783
0.09057
0.088634
0.078998
0.077213
0.065427
0.062547
0.10637
0.10604
0.1046
0.10282
0.099521
0.096856
0.090588
0.088592
0.078932
0.077052
0.065288
0.062305
0.10653
0.1062
0.10476
0.10296
0.099621
0.096934
0.09061
0.088553
0.078869
0.076891
0.06515
0.062064
0.1067
0.10637
0.10491
0.1031
0.099726
0.097014
0.090635
0.088515
0.078808
0.076732
0.065013
0.061824
0.10688
0.10654
0.10507
0.10325
0.099835
0.097099
0.090664
0.088479
0.078749
0.076575
0.064876
0.061583
0.10705
0.10672
0.10524
0.1034
0.099949
0.097187
0.090696
0.088446
0.078693
0.076418
0.064741
0.061343
0.10724
0.1069
0.10541
0.10355
0.10007
0.09728
0.090733
0.088415
0.078639
0.076263
0.064606
0.061103
0.10743
0.10709
0.10559
0.10371
0.10019
0.097376
0.090774
0.088387
0.078588
0.076109
0.064472
0.060863
0.10762
0.10729
0.10577
0.10388
0.10032
0.097477
0.090819
0.088361
0.078539
0.075956
0.064339
0.060623
0.10782
0.10749
0.10596
0.10405
0.10045
0.097582
0.090869
0.088338
0.078493
0.075804
0.064206
0.060383
0.10803
0.10769
0.10615
0.10423
0.10059
0.097692
0.090923
0.088318
0.07845
0.075654
0.064074
0.060143
0.10824
0.1079
0.10635
0.10441
0.10074
0.097807
0.090982
0.088302
0.078409
0.075506
0.063942
0.059903
0.10846
0.10812
0.10656
0.1046
0.10089
0.097926
0.091046
0.088288
0.078371
0.075358
0.063811
0.059662
0.10868
0.10835
0.10677
0.1048
0.10105
0.098051
0.091115
0.088278
0.078336
0.075212
0.063681
0.059421
0.10891
0.10858
0.10699
0.105
0.10121
0.098181
0.091189
0.088271
0.078304
0.075068
0.06355
0.059179
0.10915
0.10882
0.10722
0.10521
0.10138
0.098316
0.091268
0.088267
0.078275
0.074925
0.06342
0.058937
0.1094
0.10906
0.10746
0.10543
0.10155
0.098457
0.091353
0.088268
0.078249
0.074783
0.063291
0.058694
0.10965
0.10932
0.1077
0.10565
0.10174
0.098603
0.091443
0.088272
0.078226
0.074643
0.063161
0.05845
0.10991
0.10958
0.10795
0.10589
0.10193
0.098756
0.091539
0.08828
0.078207
0.074504
0.063032
0.058205
0.11017
0.10985
0.10821
0.10613
0.10212
0.098914
0.091641
0.088292
0.07819
0.074367
0.062903
0.05796
0.11045
0.11012
0.10847
0.10637
0.10233
0.099079
0.091749
0.088308
0.078177
0.074231
0.062773
0.057713
0.11073
0.11041
0.10874
0.10663
0.10254
0.09925
0.091863
0.088328
0.078166
0.074096
0.062644
0.057464
0.11102
0.1107
0.10903
0.10689
0.10276
0.099427
0.091984
0.088352
0.078159
0.073962
0.062514
0.057215
0.11132
0.111
0.10932
0.10717
0.10299
0.099612
0.09211
0.088381
0.078155
0.07383
0.062383
0.056963
0.11163
0.11132
0.10962
0.10745
0.10323
0.099803
0.092243
0.088414
0.078155
0.073699
0.062253
0.05671
0.11194
0.11163
0.10992
0.10774
0.10347
0.1
0.092383
0.088452
0.078157
0.07357
0.062121
0.056455
0.11227
0.11196
0.11024
0.10804
0.10372
0.10021
0.09253
0.088494
0.078163
0.073441
0.061989
0.056198
0.1126
0.1123
0.11057
0.10835
0.10399
0.10042
0.092683
0.08854
0.078171
0.073313
0.061855
0.055938
0.11295
0.11265
0.11091
0.10866
0.10426
0.10064
0.092843
0.088592
0.078183
0.073187
0.061721
0.055676
0.1133
0.11301
0.11125
0.10899
0.10454
0.10087
0.09301
0.088648
0.078198
0.073061
0.061585
0.055411
0.11366
0.11337
0.11161
0.10933
0.10483
0.1011
0.093184
0.088708
0.078216
0.072935
0.061447
0.055143
0.11403
0.11375
0.11198
0.10968
0.10513
0.10135
0.093365
0.088774
0.078237
0.07281
0.061308
0.054871
0.11441
0.11414
0.11236
0.11004
0.10544
0.1016
0.093553
0.088844
0.07826
0.072686
0.061166
0.054596
0.11481
0.11454
0.11274
0.11041
0.10576
0.10186
0.093749
0.088919
0.078286
0.072561
0.061022
0.054317
0.11521
0.11495
0.11314
0.11079
0.10608
0.10213
0.093952
0.088998
0.078314
0.072437
0.060876
0.054034
0.11562
0.11537
0.11355
0.11118
0.10642
0.1024
0.094162
0.089082
0.078345
0.072312
0.060727
0.053746
0.11604
0.1158
0.11398
0.11158
0.10678
0.10269
0.094379
0.089171
0.078378
0.072187
0.060574
0.053453
0.11648
0.11625
0.11441
0.112
0.10714
0.10298
0.094604
0.089264
0.078413
0.072061
0.060418
0.053154
0.11692
0.1167
0.11486
0.11242
0.10751
0.10329
0.094836
0.089362
0.07845
0.071934
0.060257
0.05285
0.11738
0.11717
0.11532
0.11286
0.10789
0.1036
0.095076
0.089464
0.078489
0.071806
0.060093
0.052539
0.11785
0.11765
0.11579
0.11331
0.10829
0.10392
0.095323
0.08957
0.078528
0.071676
0.059924
0.052222
0.11833
0.11815
0.11627
0.11378
0.1087
0.10425
0.095578
0.089681
0.078569
0.071545
0.059749
0.051897
0.11883
0.11866
0.11677
0.11426
0.10912
0.10459
0.095841
0.089796
0.078611
0.071411
0.059569
0.051564
0.11934
0.11918
0.11729
0.11475
0.10955
0.10494
0.096111
0.089914
0.078654
0.071275
0.059382
0.051224
0.11986
0.11972
0.11781
0.11526
0.11
0.10531
0.096389
0.090037
0.078697
0.071135
0.059189
0.050874
0.12039
0.12027
0.11836
0.11578
0.11046
0.10568
0.096675
0.090164
0.07874
0.070993
0.058989
0.050515
0.12094
0.12084
0.11892
0.11631
0.11093
0.10606
0.096968
0.090295
0.078783
0.070846
0.058781
0.050146
0.12151
0.12142
0.11949
0.11687
0.11142
0.10646
0.09727
0.09043
0.078825
0.070696
0.058565
0.049766
0.12209
0.12202
0.12008
0.11744
0.11193
0.10686
0.097581
0.090569
0.078867
0.070541
0.05834
0.049375
0.12268
0.12264
0.12069
0.11802
0.11245
0.10728
0.0979
0.090711
0.078908
0.070381
0.058106
0.048971
0.1233
0.12328
0.12132
0.11863
0.11299
0.10771
0.098227
0.090858
0.078948
0.070216
0.057861
0.048555
0.12393
0.12394
0.12198
0.11925
0.11354
0.10816
0.098565
0.091008
0.078987
0.070045
0.057606
0.048125
0.12459
0.12461
0.12265
0.1199
0.11412
0.10862
0.098911
0.091162
0.079023
0.069868
0.05734
0.047681
0.12526
0.12532
0.12334
0.12057
0.11471
0.10909
0.099268
0.091321
0.079058
0.069685
0.057061
0.047222
0.12596
0.12604
0.12406
0.12126
0.11533
0.10958
0.099636
0.091483
0.079091
0.069494
0.05677
0.046746
0.12668
0.12679
0.12481
0.12198
0.11596
0.11009
0.10001
0.091651
0.079122
0.069296
0.056465
0.046254
0.12742
0.12757
0.12558
0.12272
0.11663
0.11062
0.10041
0.091822
0.07915
0.069089
0.056146
0.045743
0.1282
0.12838
0.12639
0.12349
0.11731
0.11116
0.10081
0.091999
0.079175
0.068874
0.055811
0.045214
0.129
0.12922
0.12722
0.1243
0.11803
0.11173
0.10123
0.092181
0.079198
0.06865
0.055461
0.044664
0.12983
0.13009
0.12809
0.12513
0.11878
0.11232
0.10166
0.092368
0.079217
0.068416
0.055094
0.044094
0.13069
0.131
0.129
0.12601
0.11955
0.11293
0.1021
0.092561
0.079233
0.068172
0.054709
0.043501
0.13159
0.13194
0.12995
0.12691
0.12037
0.11357
0.10257
0.092759
0.079245
0.067917
0.054305
0.042885
0.13253
0.13293
0.13094
0.12786
0.12121
0.11423
0.10305
0.092964
0.079253
0.06765
0.053881
0.042244
0.1335
0.13396
0.13198
0.12886
0.1221
0.11493
0.10354
0.093175
0.079256
0.067369
0.053435
0.041577
0.13452
0.13503
0.13306
0.1299
0.12303
0.11565
0.10406
0.093392
0.079254
0.067075
0.052967
0.040882
0.13558
0.13616
0.1342
0.13099
0.124
0.1164
0.1046
0.093615
0.079245
0.066765
0.052474
0.040157
0.13669
0.13734
0.13539
0.13213
0.12502
0.11719
0.10516
0.093844
0.07923
0.066438
0.051954
0.039401
0.13785
0.13857
0.13665
0.13333
0.12609
0.11802
0.10573
0.094078
0.079205
0.066092
0.051406
0.038611
0.13907
0.13986
0.13796
0.13458
0.12721
0.11888
0.10633
0.094317
0.07917
0.065724
0.050826
0.037785
0.14034
0.14121
0.13934
0.1359
0.12839
0.11978
0.10696
0.094559
0.079123
0.065332
0.050213
0.03692
0.14166
0.14263
0.14079
0.13729
0.12963
0.12072
0.1076
0.094802
0.079061
0.064914
0.049562
0.036014
0.14304
0.14411
0.14232
0.13874
0.13092
0.12171
0.10827
0.095045
0.078981
0.064464
0.048869
0.035063
0.14449
0.14567
0.14392
0.14027
0.13228
0.12273
0.10895
0.095286
0.07888
0.06398
0.048132
0.034064
0.146
0.14729
0.1456
0.14187
0.1337
0.12379
0.10966
0.095521
0.078754
0.063457
0.047345
0.033011
0.14757
0.14899
0.14737
0.14356
0.13519
0.1249
0.11038
0.095747
0.078597
0.062889
0.046503
0.031901
0.14921
0.15077
0.14922
0.14532
0.13674
0.12605
0.11111
0.095959
0.078406
0.06227
0.0456
0.030727
0.15092
0.15264
0.15117
0.14717
0.13837
0.12724
0.11186
0.096154
0.078173
0.061594
0.04463
0.029485
0.15269
0.15458
0.15321
0.14911
0.14007
0.12847
0.11261
0.096324
0.077892
0.060855
0.043586
0.028167
0.15454
0.15661
0.15535
0.15114
0.14184
0.12974
0.11337
0.096465
0.077556
0.060044
0.04246
0.026767
0.15645
0.15874
0.15759
0.15328
0.14368
0.13105
0.11412
0.096568
0.077156
0.059153
0.041246
0.025278
0.15844
0.16096
0.15995
0.15551
0.1456
0.13239
0.11487
0.096627
0.076685
0.058174
0.039934
0.02369
0.16051
0.16328
0.16243
0.15786
0.14761
0.13377
0.1156
0.096632
0.076131
0.057098
0.038516
0.021996
0.16265
0.16571
0.16504
0.16034
0.14969
0.13518
0.11631
0.096573
0.075484
0.055913
0.036983
0.020187
0.16488
0.16827
0.16779
0.16294
0.15187
0.13661
0.11699
0.096439
0.074732
0.05461
0.035325
0.018254
0.1672
0.17095
0.1707
0.16569
0.15413
0.13807
0.11763
0.096215
0.07386
0.053174
0.033532
0.016189
0.16961
0.17378
0.17379
0.1686
0.15649
0.13956
0.11821
0.095885
0.07285
0.051593
0.031591
0.013983
0.17211
0.17678
0.17708
0.17168
0.15895
0.14105
0.11871
0.095427
0.071683
0.049847
0.029489
0.011624
0.17472
0.17996
0.18058
0.17496
0.16151
0.14254
0.11913
0.094818
0.070334
0.047917
0.027211
0.0091032
0.17744
0.18333
0.18433
0.17845
0.16418
0.14402
0.11941
0.094026
0.068771
0.045777
0.024735
0.0064071
0.18025
0.18693
0.18836
0.18218
0.16695
0.14546
0.11955
0.093011
0.066959
0.043396
0.022038
0.0035208
0.18317
0.19077
0.1927
0.18614
0.16982
0.14682
0.11948
0.091726
0.064853
0.040737
0.019093
0.00042604
0.18616
0.19486
0.19736
0.19036
0.17275
0.14807
0.11915
0.090116
0.062402
0.037758
0.015864
-0.0028991
0.18921
0.19922
0.20238
0.19483
0.17572
0.14915
0.11849
0.088114
0.059547
0.03441
0.012315
-0.0064798
0.19226
0.20384
0.20776
0.19954
0.17868
0.14997
0.11743
0.085642
0.056225
0.030641
0.0084044
-0.010343
0.19526
0.2087
0.21352
0.20446
0.18154
0.15043
0.11586
0.082615
0.052368
0.026402
0.0040952
-0.014513
0.1981
0.21379
0.21963
0.20952
0.18422
0.15042
0.11366
0.078938
0.047906
0.021643
-0.00064507
-0.01901
0.20067
0.21905
0.22605
0.21465
0.18655
0.14976
0.1107
0.074509
0.042772
0.016326
-0.0058367
-0.02384
0.20283
0.22441
0.23271
0.21968
0.18836
0.14828
0.10682
0.069216
0.036903
0.010422
-0.011483
-0.028988
0.20437
0.22973
0.23945
0.22442
0.18937
0.14572
0.10184
0.062945
0.030238
0.0039136
-0.017568
-0.034418
0.20506
0.23479
0.24599
0.22849
0.18925
0.14181
0.095554
0.05558
0.022728
-0.0031991
-0.024055
-0.040069
0.20461
0.23924
0.2518
0.23135
0.18749
0.1362
0.087764
0.047019
0.014343
-0.010899
-0.030887
-0.04586
0.20272
0.24244
0.25596
0.23209
0.18344
0.12848
0.07827
0.037199
0.0050926
-0.019139
-0.037989
-0.051698
0.19906
0.24333
0.25692
0.22928
0.17614
0.11819
0.066922
0.02614
-0.0049354
-0.027814
-0.045253
-0.057481
0.19343
0.24027
0.25223
0.22082
0.16437
0.10484
0.053664
0.01398
-0.015545
-0.036744
-0.05253
-0.063101
0.18589
0.23083
0.23822
0.20374
0.1465
0.087876
0.038524
0.00097189
-0.026438
-0.04567
-0.059631
-0.068445
0.17708
0.212
0.21014
0.17423
0.12053
0.066649
0.021522
-0.012619
-0.0373
-0.054318
-0.066361
-0.073414
0.16839
0.18085
0.16304
0.12824
0.084257
0.040318
0.002521
-0.026662
-0.047931
-0.062501
-0.072587
-0.077955
0.16132
0.13474
0.093513
0.062913
0.035837
0.0079549
-0.018834
-0.041244
-0.058319
-0.070185
-0.078293
-0.082104
0.1577
0.0685
-0.0025802
-0.024232
-0.026856
-0.032054
-0.043533
-0.056935
-0.068833
-0.077658
-0.083732
-0.08613
0.16985
-0.013056
-0.12151
-0.1298
-0.10294
-0.080716
-0.073067
-0.075093
-0.080622
-0.085894
-0.089746
-0.090791
0.21007
-0.08941
-0.24115
-0.23485
-0.17928
-0.13104
-0.10462
-0.094935
-0.093684
-0.095115
-0.09662
-0.096248
0.10149
0.06192
0.051697
0.045585
0.04136
0.03823
0.035739
0.033699
0.031936
0.030422
0.029014
0.027586
0.12059
0.076918
0.064224
0.056108
0.050559
0.046499
0.043294
0.040691
0.038454
0.036543
0.034782
0.033186
0.10806
0.071985
0.060505
0.052532
0.047064
0.043083
0.039956
0.037433
0.035276
0.033446
0.031767
0.030274
0.10301
0.071672
0.060533
0.052477
0.046878
0.042791
0.03958
0.036997
0.034795
0.032935
0.031231
0.0297
0.1023
0.073776
0.062483
0.054216
0.048376
0.044088
0.040712
0.037997
0.035683
0.033737
0.031954
0.030358
0.10158
0.075521
0.064162
0.055766
0.04973
0.04527
0.041747
0.038913
0.036498
0.034473
0.032616
0.030973
0.10039
0.076734
0.065454
0.057013
0.050833
0.046231
0.042584
0.039647
0.037143
0.035051
0.033129
0.031452
0.099126
0.077715
0.066602
0.058165
0.051874
0.047145
0.043382
0.040347
0.037757
0.035601
0.033619
0.031915
0.097935
0.078548
0.06767
0.059281
0.052906
0.048064
0.04419
0.041059
0.038385
0.036165
0.034122
0.032395
0.096795
0.079227
0.068648
0.060349
0.053923
0.048982
0.045006
0.041781
0.039024
0.03674
0.034637
0.032892
0.095689
0.079754
0.069523
0.061355
0.054912
0.049894
0.045825
0.042512
0.039675
0.037327
0.035165
0.033402
0.094614
0.080141
0.070296
0.062292
0.055867
0.050793
0.046645
0.043251
0.040336
0.037925
0.035706
0.033926
0.093572
0.080406
0.070967
0.063155
0.056778
0.051671
0.04746
0.043992
0.041007
0.038534
0.036261
0.03446
0.092565
0.080564
0.071539
0.06394
0.057639
0.052521
0.048262
0.044733
0.041683
0.039151
0.036825
0.035001
0.091595
0.080631
0.072018
0.064644
0.058441
0.053334
0.049045
0.045464
0.042358
0.039771
0.037397
0.035544
0.090664
0.080621
0.07241
0.06527
0.059183
0.054104
0.049801
0.04618
0.043028
0.040389
0.03797
0.036083
0.08977
0.080546
0.072722
0.065819
0.059861
0.054827
0.050524
0.046876
0.043686
0.040999
0.038541
0.036613
0.088915
0.080419
0.072964
0.066296
0.060475
0.0555
0.05121
0.047545
0.044326
0.041598
0.039104
0.03713
0.088097
0.080249
0.073141
0.066704
0.061028
0.056121
0.051856
0.048183
0.044945
0.04218
0.039656
0.037629
0.087316
0.080044
0.073263
0.06705
0.06152
0.056691
0.05246
0.048789
0.045539
0.042742
0.040193
0.03811
0.086569
0.07981
0.073335
0.067339
0.061957
0.05721
0.053021
0.04936
0.046105
0.043281
0.040712
0.03857
0.085855
0.079555
0.073363
0.067575
0.06234
0.05768
0.053539
0.049894
0.046642
0.043796
0.041211
0.039009
0.085172
0.079281
0.073355
0.067765
0.062674
0.058104
0.054016
0.050393
0.047149
0.044286
0.041688
0.039427
0.084517
0.078994
0.073314
0.067913
0.062963
0.058484
0.054453
0.050857
0.047625
0.044749
0.042144
0.039826
0.083889
0.078697
0.073245
0.068023
0.06321
0.058823
0.054852
0.051286
0.048071
0.045186
0.042578
0.040207
0.083287
0.078391
0.073152
0.0681
0.063419
0.059123
0.055214
0.051682
0.048488
0.045598
0.04299
0.040571
0.082707
0.07808
0.073038
0.068147
0.063594
0.059388
0.055543
0.052047
0.048877
0.045985
0.04338
0.04092
0.082149
0.077764
0.072906
0.068168
0.063738
0.059621
0.055839
0.052381
0.049238
0.046348
0.04375
0.041255
0.08161
0.077446
0.072759
0.068165
0.063854
0.059824
0.056106
0.052688
0.049573
0.046689
0.044099
0.041578
0.08109
0.077127
0.072599
0.068141
0.063943
0.059999
0.056345
0.052969
0.049883
0.047009
0.044429
0.041889
0.080588
0.076807
0.072428
0.068099
0.06401
0.060149
0.056558
0.053225
0.050171
0.047309
0.04474
0.042189
0.080101
0.076487
0.072248
0.068041
0.064056
0.060276
0.056748
0.053458
0.050436
0.04759
0.045034
0.042479
0.079629
0.076169
0.07206
0.067969
0.064084
0.060382
0.056916
0.05367
0.050681
0.047853
0.045312
0.042759
0.079172
0.075852
0.071866
0.067884
0.064094
0.060469
0.057064
0.053862
0.050907
0.048099
0.045573
0.043029