/*--------------------------------*- C++ -*----------------------------------*\
  =========                 |
  \\      /  F ield         | OpenFOAM: The Open Source CFD Toolbox
   \\    /   O peration     | Website:  https://openfoam.org
    \\  /    A nd           | Version:  6.0
     \\/     M anipulation  |
\*---------------------------------------------------------------------------*/
FoamFile
{
    version     2.0;
    format      ascii;
    class       surfaceScalarField;
    location    "3";
    object      phi;
}
// * * * * * * * * * * * * * * * * * * * * * * * * * * * * * * * * * * * * * //

dimensions      [0 3 -1 0 0 0 0];

internalField   nonuniform List<scalar> 
26699
(
2.0051e-05
0.005201
5.3397e-10
4.0126e-05
0.0051116
5.9639e-05
0.0049351
7.8186e-05
0.0046741
9.5416e-05
0.0043332
0.00011102
0.0039182
0.00012471
0.0034362
0.00013626
0.0028953
0.00014546
0.002305
0.00015181
0.0016755
0.00015717
0.0010154
0.00046501
3.4367e-05
2.0051e-05
0.0051809
1.6519e-09
4.0127e-05
0.0050916
5.9641e-05
0.0049155
7.819e-05
0.0046556
9.5418e-05
0.004316
0.00011102
0.0039026
0.00012471
0.0034225
0.00013625
0.0028838
0.00014545
0.0022958
0.00015106
0.0016699
0.0001589
0.0010076
0.00055898
6.4924e-05
2.0051e-05
0.0051609
2.84e-09
4.0128e-05
0.0050715
5.9643e-05
0.004896
7.8193e-05
0.004637
9.5421e-05
0.0042988
0.00011102
0.003887
0.00012471
0.0034088
0.00013622
0.0028723
0.00014546
0.0022865
0.0001503
0.0016651
0.00016016
0.0009977
0.00062909
9.0056e-05
2.0051e-05
0.0051408
4.0406e-09
4.013e-05
0.0050514
5.9646e-05
0.0048765
7.8196e-05
0.0046185
9.5424e-05
0.0042815
0.00011103
0.0038714
0.0001247
0.0033951
0.0001362
0.0028608
0.0001455
0.0022772
0.00014956
0.001661
0.00016088
0.00098638
0.00067971
0.00011025
2.0051e-05
0.0051208
5.2435e-09
4.0131e-05
0.0050313
5.9648e-05
0.004857
7.8199e-05
0.0045999
9.5428e-05
0.0042643
0.00011103
0.0038558
0.0001247
0.0033815
0.00013617
0.0028493
0.00014557
0.0022678
0.00014886
0.0016577
0.00016109
0.00097415
0.00071451
0.0001263
2.0051e-05
0.0051007
6.4484e-09
4.0132e-05
0.0050112
5.965e-05
0.0048375
7.8202e-05
0.0045814
9.5431e-05
0.0042471
0.00011103
0.0038402
0.0001247
0.0033678
0.00013615
0.0028379
0.00014566
0.0022583
0.00014824
0.0016551
0.00016084
0.00096155
0.00073649
0.00013885
2.0051e-05
0.0050807
7.6553e-09
4.0133e-05
0.0049912
5.9653e-05
0.004818
7.8205e-05
0.0045628
9.5434e-05
0.0042299
0.00011103
0.0038246
0.0001247
0.0033541
0.00013611
0.0028264
0.00014577
0.0022486
0.0001477
0.0016532
0.00016023
0.00094902
0.00074823
0.00014849
2.0051e-05
0.0050606
8.8643e-09
4.0135e-05
0.0049711
5.9655e-05
0.0047984
7.8208e-05
0.0045443
9.5437e-05
0.0042126
0.00011103
0.003809
0.0001247
0.0033405
0.00013607
0.0028151
0.0001459
0.0022388
0.00014726
0.0016518
0.00015935
0.00093694
0.00075189
0.00015569
2.0052e-05
0.0050405
1.0075e-08
4.0136e-05
0.004951
5.9658e-05
0.0047789
7.8211e-05
0.0045257
9.5441e-05
0.0041954
0.00011104
0.0037934
0.0001247
0.0033268
0.00013603
0.0028037
0.00014603
0.0022288
0.00014693
0.0016509
0.00015829
0.00092558
0.00074929
0.00016089
2.0052e-05
0.0050205
1.1289e-08
4.0137e-05
0.0049309
5.966e-05
0.0047594
7.8214e-05
0.0045072
9.5444e-05
0.0041782
0.00011104
0.0037778
0.0001247
0.0033131
0.00013599
0.0027924
0.00014617
0.0022186
0.00014671
0.0016504
0.00015712
0.00091517
0.00074194
0.00016447
2.0052e-05
0.0050004
1.2504e-08
4.0138e-05
0.0049108
5.9662e-05
0.0047399
7.8217e-05
0.0044886
9.5448e-05
0.0041609
0.00011104
0.0037622
0.00012471
0.0032995
0.00013594
0.0027812
0.00014631
0.0022083
0.00014659
0.0016501
0.00015591
0.00090586
0.00073109
0.00016676
2.0052e-05
0.0049803
1.3722e-08
4.014e-05
0.0048907
5.9665e-05
0.0047203
7.822e-05
0.00447
9.5451e-05
0.0041437
0.00011104
0.0037466
0.00012471
0.0032858
0.00013588
0.00277
0.00014644
0.0021977
0.00014658
0.00165
0.00015471
0.00089774
0.00071777
0.00016803
2.0052e-05
0.0049603
1.4942e-08
4.0141e-05
0.0048706
5.9667e-05
0.0047008
7.8223e-05
0.0044515
9.5455e-05
0.0041265
0.00011104
0.003731
0.00012472
0.0032721
0.00013583
0.0027589
0.00014657
0.002187
0.00014667
0.0016499
0.00015357
0.00089084
0.00070281
0.00016852
2.0052e-05
0.0049402
1.6164e-08
4.0142e-05
0.0048506
5.967e-05
0.0046813
7.8226e-05
0.0044329
9.5459e-05
0.0041092
0.00011104
0.0037155
0.00012473
0.0032584
0.00013577
0.0027479
0.00014669
0.002176
0.00014684
0.0016497
0.00015252
0.00088516
0.00068689
0.00016843
2.0052e-05
0.0049201
1.7389e-08
4.0143e-05
0.0048305
5.9672e-05
0.0046618
7.823e-05
0.0044144
9.5462e-05
0.004092
0.00011105
0.0036999
0.00012474
0.0032447
0.0001357
0.0027369
0.0001468
0.0021649
0.00014709
0.0016495
0.00015157
0.00088067
0.00067055
0.00016792
2.0052e-05
0.0049001
1.8616e-08
4.0145e-05
0.0048104
5.9674e-05
0.0046422
7.8233e-05
0.0043958
9.5466e-05
0.0040748
0.00011105
0.0036843
0.00012475
0.003231
0.00013564
0.002726
0.0001469
0.0021537
0.0001474
0.001649
0.00015076
0.00087731
0.00065419
0.00016712
2.0052e-05
0.00488
1.9846e-08
4.0146e-05
0.0047903
5.9677e-05
0.0046227
7.8236e-05
0.0043773
9.547e-05
0.0040575
0.00011105
0.0036687
0.00012476
0.0032173
0.00013557
0.0027152
0.00014697
0.0021423
0.00014777
0.0016482
0.00015008
0.000875
0.00063814
0.00016613
2.0052e-05
0.0048599
2.1078e-08
4.0147e-05
0.0047702
5.9679e-05
0.0046032
7.8239e-05
0.0043587
9.5474e-05
0.0040403
0.00011105
0.0036531
0.00012478
0.0032036
0.0001355
0.0027045
0.00014703
0.0021307
0.00014818
0.001647
0.00014954
0.00087364
0.00062264
0.00016504
2.0052e-05
0.0048399
2.2313e-08
4.0148e-05
0.0047501
5.9682e-05
0.0045836
7.8242e-05
0.0043401
9.5478e-05
0.0040231
0.00011105
0.0036376
0.0001248
0.0031899
0.00013543
0.0026939
0.00014707
0.0021191
0.00014862
0.0016455
0.00014914
0.00087312
0.00060786
0.00016393
2.0052e-05
0.0048198
2.355e-08
4.015e-05
0.00473
5.9684e-05
0.0045641
7.8246e-05
0.0043216
9.5482e-05
0.0040058
0.00011105
0.003622
0.00012482
0.0031761
0.00013536
0.0026833
0.00014709
0.0021074
0.00014909
0.0016435
0.00014887
0.00087333
0.0005939
0.00016283
2.0052e-05
0.0047997
2.4791e-08
4.0151e-05
0.0047099
5.9687e-05
0.0045446
7.8249e-05
0.004303
9.5486e-05
0.0039886
0.00011105
0.0036064
0.00012484
0.0031623
0.00013529
0.0026729
0.00014709
0.0020956
0.00014956
0.001641
0.00014873
0.00087417
0.00058083
0.00016179
2.0052e-05
0.0047796
2.6034e-08
4.0152e-05
0.0046898
5.9689e-05
0.004525
7.8252e-05
0.0042844
9.549e-05
0.0039714
0.00011105
0.0035909
0.00012486
0.0031485
0.00013523
0.0026625
0.00014708
0.0020837
0.00015004
0.001638
0.00014869
0.00087552
0.00056869
0.00016084
2.0052e-05
0.0047595
2.728e-08
4.0153e-05
0.0046697
5.9692e-05
0.0045055
7.8255e-05
0.0042659
9.5495e-05
0.0039541
0.00011106
0.0035753
0.00012489
0.0031347
0.00013516
0.0026522
0.00014704
0.0020718
0.00015052
0.0016346
0.00014877
0.00087727
0.00055748
0.00015998
2.0052e-05
0.0047395
2.8529e-08
4.0155e-05
0.0046496
5.9694e-05
0.004486
7.8259e-05
0.0042473
9.5499e-05
0.0039369
0.00011105
0.0035597
0.00012491
0.0031208
0.0001351
0.002642
0.00014698
0.00206
0.00015098
0.0016306
0.00014893
0.00087932
0.00054716
0.00015924
2.0052e-05
0.0047194
2.9781e-08
4.0156e-05
0.0046295
5.9696e-05
0.0044664
7.8262e-05
0.0042288
9.5504e-05
0.0039196
0.00011105
0.0035442
0.00012494
0.0031069
0.00013505
0.0026319
0.00014691
0.0020481
0.00015142
0.0016261
0.00014917
0.00088157
0.00053772
0.00015861
2.0052e-05
0.0046993
3.1036e-08
4.0157e-05
0.0046094
5.9699e-05
0.0044469
7.8265e-05
0.0042102
9.5508e-05
0.0039024
0.00011105
0.0035286
0.00012497
0.003093
0.000135
0.0026219
0.00014682
0.0020363
0.00015185
0.001621
0.00014947
0.00088395
0.00052909
0.0001581
2.0052e-05
0.0046792
3.2294e-08
4.0159e-05
0.0045893
5.9701e-05
0.0044273
7.8269e-05
0.0041916
9.5513e-05
0.0038852
0.00011105
0.0035131
0.000125
0.0030791
0.00013495
0.002612
0.00014672
0.0020245
0.00015224
0.0016155
0.00014984
0.00088635
0.00052123
0.0001577
2.0052e-05
0.0046591
3.3555e-08
4.016e-05
0.0045692
5.9704e-05
0.0044078
7.8272e-05
0.0041731
9.5518e-05
0.0038679
0.00011105
0.0034976
0.00012503
0.0030651
0.00013491
0.0026021
0.0001466
0.0020128
0.00015261
0.0016095
0.00015024
0.00088872
0.00051406
0.00015741
2.0052e-05
0.004639
3.482e-08
4.0161e-05
0.0045491
5.9706e-05
0.0043882
7.8275e-05
0.0041545
9.5523e-05
0.0038507
0.00011105
0.003482
0.00012507
0.0030511
0.00013488
0.0025923
0.00014647
0.0020012
0.00015294
0.001603
0.00015067
0.00089099
0.00050753
0.00015721
2.0052e-05
0.004619
3.6088e-08
4.0162e-05
0.0045289
5.9709e-05
0.0043687
7.8279e-05
0.0041359
9.5528e-05
0.0038334
0.00011105
0.0034665
0.0001251
0.003037
0.00013485
0.0025825
0.00014632
0.0019898
0.00015324
0.0015961
0.00015113
0.00089311
0.00050156
0.00015709
2.0052e-05
0.0045989
3.7359e-08
4.0164e-05
0.0045088
5.9712e-05
0.0043491
7.8282e-05
0.0041173
9.5534e-05
0.0038162
0.00011104
0.003451
0.00012513
0.0030229
0.00013483
0.0025728
0.00014617
0.0019784
0.0001535
0.0015888
0.00015159
0.00089502
0.00049609
0.00015706
2.0052e-05
0.0045788
3.8634e-08
4.0165e-05
0.0044887
5.9714e-05
0.0043296
7.8286e-05
0.0040988
9.5539e-05
0.0037989
0.00011104
0.0034355
0.00012517
0.0030088
0.00013482
0.0025632
0.00014602
0.0019672
0.00015373
0.0015811
0.00015206
0.00089668
0.00049106
0.00015709
2.0052e-05
0.0045587
3.9912e-08
4.0166e-05
0.0044686
5.9717e-05
0.00431
7.8289e-05
0.0040802
9.5545e-05
0.0037816
0.00011104
0.00342
0.0001252
0.0029946
0.00013481
0.0025536
0.00014585
0.0019562
0.00015392
0.001573
0.00015253
0.00089807
0.00048642
0.00015717
2.0052e-05
0.0045386
4.1194e-08
4.0168e-05
0.0044485
5.9719e-05
0.0042905
7.8292e-05
0.0040616
9.5551e-05
0.0037644
0.00011103
0.0034045
0.00012524
0.0029804
0.00013481
0.002544
0.00014569
0.0019453
0.00015407
0.0015646
0.00015298
0.00089916
0.0004821
0.0001573
2.0052e-05
0.0045185
4.248e-08
4.0169e-05
0.0044284
5.9722e-05
0.0042709
7.8296e-05
0.0040431
9.5557e-05
0.0037471
0.00011103
0.0033891
0.00012527
0.0029662
0.00013483
0.0025344
0.00014552
0.0019346
0.00015419
0.0015559
0.00015343
0.00089992
0.00047806
0.00015747
2.0053e-05
0.0044984
4.3769e-08
4.017e-05
0.0044083
5.9724e-05
0.0042514
7.8299e-05
0.0040245
9.5564e-05
0.0037299
0.00011103
0.0033736
0.00012531
0.0029519
0.00013485
0.0025249
0.00014535
0.0019241
0.00015428
0.001547
0.00015385
0.00090035
0.00047424
0.00015766
2.0053e-05
0.0044783
4.5062e-08
4.0172e-05
0.0043881
5.9727e-05
0.0042318
7.8303e-05
0.0040059
9.557e-05
0.0037126
0.00011102
0.0033582
0.00012534
0.0029376
0.00013487
0.0025154
0.00014519
0.0019138
0.00015433
0.0015379
0.00015425
0.00090044
0.00047061
0.00015788
2.0053e-05
0.0044582
4.636e-08
4.0173e-05
0.004368
5.973e-05
0.0042123
7.8306e-05
0.0039873
9.5577e-05
0.0036953
0.00011102
0.0033427
0.00012537
0.0029232
0.00013491
0.0025058
0.00014502
0.0019037
0.00015436
0.0015285
0.00015462
0.00090018
0.00046713
0.0001581
2.0053e-05
0.0044381
4.7661e-08
4.0174e-05
0.0043479
5.9732e-05
0.0041927
7.831e-05
0.0039687
9.5584e-05
0.003678
0.00011101
0.0033273
0.0001254
0.0029088
0.00013496
0.0024963
0.00014487
0.0018937
0.00015436
0.001519
0.00015496
0.00089958
0.00046376
0.00015833
2.0053e-05
0.004418
4.8966e-08
4.0175e-05
0.0043278
5.9735e-05
0.0041732
7.8314e-05
0.0039502
9.5591e-05
0.0036608
0.00011101
0.0033119
0.00012543
0.0028944
0.00013501
0.0024867
0.00014472
0.001884
0.00015433
0.0015094
0.00015528
0.00089863
0.00046048
0.00015856
2.0053e-05
0.0043979
5.0276e-08
4.0177e-05
0.0043077
5.9738e-05
0.0041536
7.8317e-05
0.0039316
9.5598e-05
0.0036435
0.000111
0.0032965
0.00012546
0.00288
0.00013507
0.0024771
0.00014457
0.0018745
0.00015428
0.0014997
0.00015557
0.00089735
0.00045725
0.00015879
2.0053e-05
0.0043778
5.1589e-08
4.0178e-05
0.0042875
5.974e-05
0.004134
7.8321e-05
0.003913
9.5606e-05
0.0036262
0.00011099
0.0032811
0.00012549
0.0028655
0.00013514
0.0024674
0.00014444
0.0018652
0.00015422
0.0014899
0.00015582
0.00089574
0.00045407
0.00015901
2.0053e-05
0.0043577
5.2907e-08
4.018e-05
0.0042674
5.9743e-05
0.0041145
7.8324e-05
0.0038944
9.5613e-05
0.0036089
0.00011099
0.0032657
0.00012551
0.0028509
0.00013521
0.0024577
0.00014432
0.0018561
0.00015413
0.0014801
0.00015605
0.00089382
0.0004509
0.00015922
2.0053e-05
0.0043376
5.423e-08
4.0181e-05
0.0042473
5.9746e-05
0.0040949
7.8328e-05
0.0038758
9.5621e-05
0.0035916
0.00011098
0.0032503
0.00012553
0.0028364
0.00013529
0.002448
0.0001442
0.0018472
0.00015403
0.0014703
0.00015625
0.0008916
0.00044773
0.00015942
2.0053e-05
0.0043175
5.5557e-08
4.0182e-05
0.0042271
5.9749e-05
0.0040753
7.8332e-05
0.0038573
9.5629e-05
0.0035743
0.00011098
0.003235
0.00012555
0.0028218
0.00013537
0.0024382
0.0001441
0.0018385
0.00015392
0.0014605
0.00015642
0.0008891
0.00044456
0.0001596
2.0053e-05
0.0042974
5.6889e-08
4.0184e-05
0.004207
5.9751e-05
0.0040558
7.8335e-05
0.0038387
9.5638e-05
0.003557
0.00011097
0.0032197
0.00012557
0.0028072
0.00013546
0.0024283
0.00014401
0.0018299
0.0001538
0.0014507
0.00015657
0.00088634
0.00044136
0.00015977
2.0053e-05
0.0042772
5.8225e-08
4.0185e-05
0.0041869
5.9754e-05
0.0040362
7.8339e-05
0.0038201
9.5646e-05
0.0035397
0.00011097
0.0032043
0.00012558
0.0027926
0.00013556
0.0024183
0.00014394
0.0018215
0.00015368
0.001441
0.0001567
0.00088332
0.00043814
0.00015992
2.0053e-05
0.0042571
5.9567e-08
4.0186e-05
0.0041667
5.9757e-05
0.0040166
7.8342e-05
0.0038015
9.5655e-05
0.0035224
0.00011096
0.003189
0.00012559
0.002778
0.00013566
0.0024082
0.00014388
0.0018133
0.00015355
0.0014313
0.0001568
0.00088007
0.00043488
0.00016006
2.0053e-05
0.004237
6.0913e-08
4.0188e-05
0.0041466
5.976e-05
0.0039971
7.8346e-05
0.0037829
9.5664e-05
0.0035051
0.00011096
0.0031737
0.0001256
0.0027633
0.00013576
0.0023981
0.00014383
0.0018053
0.00015342
0.0014217
0.00015688
0.00087661
0.00043158
0.00016018
2.0053e-05
0.0042169
6.2265e-08
4.0189e-05
0.0041265
5.9763e-05
0.0039775
7.835e-05
0.0037643
9.5673e-05
0.0034878
0.00011096
0.0031584
0.00012561
0.0027487
0.00013586
0.0023878
0.00014379
0.0017973
0.00015329
0.0014122
0.00015695
0.00087295
0.00042823
0.00016029
2.0053e-05
0.0041968
6.3621e-08
4.0191e-05
0.0041063
5.9766e-05
0.0039579
7.8354e-05
0.0037457
9.5683e-05
0.0034704
0.00011095
0.0031432
0.00012561
0.002734
0.00013596
0.0023775
0.00014377
0.0017895
0.00015316
0.0014028
0.000157
0.00086911
0.00042485
0.00016038
2.0053e-05
0.0041767
6.4983e-08
4.0192e-05
0.0040862
5.9768e-05
0.0039383
7.8357e-05
0.0037272
9.5692e-05
0.0034531
0.00011095
0.0031279
0.00012561
0.0027194
0.00013607
0.002367
0.00014376
0.0017818
0.00015303
0.0013935
0.00015703
0.00086511
0.00042142
0.00016046
2.0053e-05
0.0041566
6.635e-08
4.0194e-05
0.0040661
5.9771e-05
0.0039188
7.8361e-05
0.0037086
9.5702e-05
0.0034358
0.00011095
0.0031127
0.00012561
0.0027047
0.00013617
0.0023564
0.00014376
0.0017743
0.00015291
0.0013844
0.00015706
0.00086097
0.00041794
0.00016053
2.0053e-05
0.0041364
6.7723e-08
4.0195e-05
0.0040459
5.9774e-05
0.0038992
7.8365e-05
0.00369
9.5711e-05
0.0034184
0.00011095
0.0030974
0.00012561
0.0026901
0.00013628
0.0023458
0.00014377
0.0017668
0.0001528
0.0013753
0.00015707
0.00085669
0.00041443
0.00016059
2.0053e-05
0.0041163
6.9102e-08
4.0197e-05
0.0040258
5.9777e-05
0.0038796
7.8369e-05
0.0036714
9.5721e-05
0.0034011
0.00011095
0.0030822
0.0001256
0.0026754
0.00013638
0.002335
0.0001438
0.0017593
0.00015269
0.0013665
0.00015708
0.0008523
0.00041087
0.00016064
2.0053e-05
0.0040962
7.0486e-08
4.0198e-05
0.0040056
5.978e-05
0.00386
7.8372e-05
0.0036528
9.5731e-05
0.0033837
0.00011095
0.003067
0.00012559
0.0026608
0.00013648
0.0023241
0.00014383
0.001752
0.0001526
0.0013577
0.00015709
0.00084781
0.00040728
0.00016068
2.0053e-05
0.0040761
7.1876e-08
4.02e-05
0.0039855
5.9783e-05
0.0038404
7.8376e-05
0.0036342
9.5741e-05
0.0033663
0.00011095
0.0030518
0.00012558
0.0026461
0.00013658
0.0023131
0.00014388
0.0017447
0.00015251
0.0013491
0.00015708
0.00084323
0.00040365
0.00016071
2.0053e-05
0.0040559
7.3273e-08
4.0201e-05
0.0039653
5.9786e-05
0.0038208
7.838e-05
0.0036156
9.5752e-05
0.003349
0.00011096
0.0030366
0.00012557
0.0026315
0.00013668
0.002302
0.00014394
0.0017374
0.00015243
0.0013406
0.00015708
0.00083858
0.00039999
0.00016074
2.0053e-05
0.0040358
7.4675e-08
4.0203e-05
0.0039452
5.979e-05
0.0038013
7.8384e-05
0.003597
9.5762e-05
0.0033316
0.00011096
0.0030214
0.00012555
0.0026169
0.00013678
0.0022908
0.000144
0.0017302
0.00015236
0.0013322
0.00015707
0.00083387
0.00039631
0.00016076
2.0053e-05
0.0040157
7.6084e-08
4.0204e-05
0.003925
5.9793e-05
0.0037817
7.8388e-05
0.0035784
9.5772e-05
0.0033142
0.00011096
0.0030062
0.00012554
0.0026024
0.00013687
0.0022794
0.00014407
0.001723
0.0001523
0.001324
0.00015707
0.0008291
0.0003926
0.00016078
2.0053e-05
0.0039955
7.7499e-08
4.0206e-05
0.0039049
5.9796e-05
0.0037621
7.8392e-05
0.0035598
9.5782e-05
0.0032968
0.00011097
0.002991
0.00012552
0.0025878
0.00013695
0.002268
0.00014415
0.0017158
0.00015225
0.0013159
0.00015706
0.00082429
0.00038887
0.00016079
2.0053e-05
0.0039754
7.8921e-08
4.0207e-05
0.0038847
5.9799e-05
0.0037425
7.8396e-05
0.0035412
9.5793e-05
0.0032794
0.00011098
0.0029758
0.0001255
0.0025733
0.00013703
0.0022565
0.00014423
0.0017086
0.00015222
0.0013079
0.00015706
0.00081945
0.00038513
0.0001608
2.0053e-05
0.0039553
8.0349e-08
4.0209e-05
0.0038646
5.9802e-05
0.0037229
7.84e-05
0.0035226
9.5803e-05
0.003262
0.00011099
0.0029606
0.00012548
0.0025588
0.00013711
0.0022448
0.00014432
0.0017014
0.00015219
0.0013
0.00015706
0.00081458
0.00038138
0.00016081
2.0053e-05
0.0039351
8.1784e-08
4.021e-05
0.0038444
5.9805e-05
0.0037033
7.8404e-05
0.003504
9.5813e-05
0.0032446
0.00011099
0.0029454
0.00012545
0.0025443
0.00013718
0.0022331
0.00014441
0.0016942
0.00015217
0.0012923
0.00015706
0.00080969
0.00037762
0.00016082
2.0053e-05
0.003915
8.3227e-08
4.0212e-05
0.0038243
5.9809e-05
0.0036837
7.8408e-05
0.0034854
9.5824e-05
0.0032272
0.000111
0.0029303
0.00012543
0.0025299
0.00013725
0.0022213
0.0001445
0.0016869
0.00015216
0.0012846
0.00015706
0.00080478
0.00037386
0.00016083
2.0054e-05
0.0038949
8.4676e-08
4.0214e-05
0.0038041
5.9812e-05
0.0036641
7.8412e-05
0.0034668
9.5834e-05
0.0032098
0.00011102
0.0029151
0.00012541
0.0025155
0.00013732
0.0022094
0.0001446
0.0016797
0.00015216
0.001277
0.00015707
0.00079987
0.0003701
0.00016083
2.0054e-05
0.0038747
8.6133e-08
4.0215e-05
0.0037839
5.9815e-05
0.0036445
7.8416e-05
0.0034482
9.5844e-05
0.0031923
0.00011103
0.0028999
0.00012539
0.0025012
0.00013737
0.0021974
0.0001447
0.0016723
0.00015217
0.0012696
0.00015709
0.00079495
0.00036634
0.00016084
2.0054e-05
0.0038546
8.7597e-08
4.0217e-05
0.0037638
5.9819e-05
0.0036249
7.842e-05
0.0034296
9.5855e-05
0.0031749
0.00011104
0.0028847
0.00012536
0.0024868
0.00013743
0.0021853
0.0001448
0.001665
0.00015218
0.0012622
0.0001571
0.00079003
0.00036259
0.00016085
2.0054e-05
0.0038344
8.9069e-08
4.0219e-05
0.0037436
5.9822e-05
0.0036053
7.8424e-05
0.003411
9.5865e-05
0.0031575
0.00011106
0.0028695
0.00012534
0.0024726
0.00013748
0.0021732
0.0001449
0.0016575
0.00015221
0.0012549
0.00015712
0.00078512
0.00035885
0.00016086
2.0054e-05
0.0038143
9.0549e-08
4.022e-05
0.0037234
5.9825e-05
0.0035857
7.8429e-05
0.0033924
9.5875e-05
0.00314
0.00011107
0.0028543
0.00012532
0.0024583
0.00013752
0.002161
0.000145
0.0016501
0.00015224
0.0012476
0.00015715
0.00078021
0.00035513
0.00016087
2.0054e-05
0.0037942
9.2037e-08
4.0222e-05
0.0037033
5.9829e-05
0.0035661
7.8433e-05
0.0033738
9.5885e-05
0.0031226
0.00011109
0.0028391
0.00012529
0.0024441
0.00013756
0.0021487
0.0001451
0.0016425
0.00015227
0.0012405
0.00015717
0.00077531
0.00035142
0.00016088
2.0054e-05
0.003774
9.3532e-08
4.0224e-05
0.0036831
5.9832e-05
0.0035465
7.8437e-05
0.0033552
9.5895e-05
0.0031051
0.00011111
0.0028239
0.00012527
0.0024299
0.0001376
0.0021364
0.00014519
0.0016349
0.00015231
0.0012333
0.0001572
0.00077041
0.00034773
0.0001609
2.0054e-05
0.0037539
9.5036e-08
4.0226e-05
0.0036629
5.9836e-05
0.0035269
7.8442e-05
0.0033366
9.5905e-05
0.0030876
0.00011112
0.0028087
0.00012525
0.0024158
0.00013763
0.002124
0.00014529
0.0016273
0.00015236
0.0012263
0.00015724
0.00076553
0.00034406
0.00016091
2.0054e-05
0.0037337
9.6549e-08
4.0227e-05
0.0036428
5.984e-05
0.0035073
7.8446e-05
0.003318
9.5914e-05
0.0030702
0.00011114
0.0027935
0.00012523
0.0024017
0.00013766
0.0021116
0.00014538
0.0016196
0.00015241
0.0012192
0.00015728
0.00076066
0.00034041
0.00016093
2.0054e-05
0.0037136
9.807e-08
4.0229e-05
0.0036226
5.9843e-05
0.0034876
7.8451e-05
0.0032994
9.5924e-05
0.0030527
0.00011116
0.0027782
0.00012521
0.0023877
0.00013768
0.0020991
0.00014547
0.0016118
0.00015246
0.0012123
0.00015732
0.0007558
0.00033678
0.00016094
2.0054e-05
0.0036934
9.96e-08
4.0231e-05
0.0036024
5.9847e-05
0.003468
7.8456e-05
0.0032808
9.5933e-05
0.0030352
0.00011118
0.002763
0.00012519
0.0023737
0.00013771
0.0020866
0.00014556
0.0016039
0.00015251
0.0012053
0.00015736
0.00075095
0.00033318
0.00016096
2.0054e-05
0.0036732
1.0114e-07
4.0233e-05
0.0035822
5.9851e-05
0.0034484
7.846e-05
0.0032622
9.5943e-05
0.0030177
0.0001112
0.0027477
0.00012518
0.0023597
0.00013772
0.002074
0.00014565
0.001596
0.00015257
0.0011984
0.00015741
0.00074612
0.0003296
0.00016098
2.0054e-05
0.0036531
1.0269e-07
4.0235e-05
0.003562
5.9854e-05
0.0034288
7.8465e-05
0.0032436
9.5952e-05
0.0030002
0.00011122
0.0027324
0.00012516
0.0023458
0.00013774
0.0020615
0.00014573
0.001588
0.00015263
0.0011915
0.00015745
0.0007413
0.00032606
0.000161
2.0055e-05
0.0036329
1.0424e-07
4.0236e-05
0.0035419
5.9858e-05
0.0034092
7.847e-05
0.003225
9.5962e-05
0.0029828
0.00011125
0.0027172
0.00012515
0.0023319
0.00013775
0.0020489
0.00014581
0.0015799
0.00015269
0.0011846
0.0001575
0.00073649
0.00032254
0.00016102
2.0055e-05
0.0036128
1.0581e-07
4.0238e-05
0.0035217
5.9862e-05
0.0033895
7.8475e-05
0.0032063
9.5971e-05
0.0029653
0.00011127
0.0027019
0.00012514
0.002318
0.00013776
0.0020362
0.00014589
0.0015718
0.00015276
0.0011777
0.00015755
0.00073169
0.00031905
0.00016104
2.0055e-05
0.0035926
1.0739e-07
4.024e-05
0.0035015
5.9866e-05
0.0033699
7.848e-05
0.0031877
9.598e-05
0.0029478
0.00011129
0.0026865
0.00012512
0.0023042
0.00013777
0.0020236
0.00014596
0.0015636
0.00015282
0.0011709
0.00015761
0.0007269
0.00031559
0.00016107
2.0055e-05
0.0035724
1.0897e-07
4.0242e-05
0.0034813
5.987e-05
0.0033503
7.8485e-05
0.0031691
9.5989e-05
0.0029303
0.00011132
0.0026712
0.00012512
0.0022904
0.00013778
0.0020109
0.00014603
0.0015554
0.00015288
0.001164
0.00015766
0.00072213
0.00031216
0.00016109
2.0055e-05
0.0035523
1.1057e-07
4.0244e-05
0.0034611
5.9874e-05
0.0033307
7.849e-05
0.0031505
9.5998e-05
0.0029127
0.00011134
0.0026559
0.00012511
0.0022766
0.00013779
0.0019982
0.0001461
0.0015471
0.00015295
0.0011572
0.00015772
0.00071736
0.00030876
0.00016112
2.0055e-05
0.0035321
1.1218e-07
4.0246e-05
0.0034409
5.9878e-05
0.003311
7.8495e-05
0.0031319
9.6007e-05
0.0028952
0.00011136
0.0026405
0.0001251
0.0022629
0.00013779
0.0019855
0.00014617
0.0015387
0.00015301
0.0011503
0.00015777
0.0007126
0.00030539
0.00016114
2.0055e-05
0.0035119
1.1379e-07
4.0248e-05
0.0034207
5.9882e-05
0.0032914
7.85e-05
0.0031133
9.6016e-05
0.0028777
0.00011139
0.0026251
0.0001251
0.0022491
0.0001378
0.0019728
0.00014623
0.0015303
0.00015308
0.0011435
0.00015783
0.00070785
0.00030205
0.00016117
2.0055e-05
0.0034918
1.1542e-07
4.025e-05
0.0034005
5.9886e-05
0.0032718
7.8506e-05
0.0030946
9.6025e-05
0.0028602
0.00011141
0.0026098
0.00012509
0.0022355
0.0001378
0.0019601
0.00014629
0.0015218
0.00015314
0.0011366
0.00015788
0.00070311
0.00029874
0.00016119
2.0055e-05
0.0034716
1.1706e-07
4.0252e-05
0.0033803
5.989e-05
0.0032521
7.8511e-05
0.003076
9.6034e-05
0.0028427
0.00011144
0.0025943
0.00012509
0.0022218
0.0001378
0.0019474
0.00014635
0.0015132
0.00015321
0.0011298
0.00015794
0.00069838
0.00029547
0.00016122
2.0056e-05
0.0034514
1.1871e-07
4.0254e-05
0.0033601
5.9894e-05
0.0032325
7.8517e-05
0.0030574
9.6043e-05
0.0028252
0.00011146
0.0025789
0.00012509
0.0022082
0.0001378
0.0019347
0.00014641
0.0015046
0.00015327
0.0011229
0.000158
0.00069365
0.00029222
0.00016125
2.0056e-05
0.0034312
1.2037e-07
4.0256e-05
0.0033399
5.9899e-05
0.0032128
7.8522e-05
0.0030388
9.6052e-05
0.0028076
0.00011149
0.0025635
0.00012509
0.0021946
0.0001378
0.001922
0.00014646
0.0014959
0.00015334
0.0011161
0.00015806
0.00068893
0.000289
0.00016127
2.0056e-05
0.0034111
1.2205e-07
4.0258e-05
0.0033197
5.9903e-05
0.0031932
7.8528e-05
0.0030201
9.606e-05
0.0027901
0.00011151
0.002548
0.00012509
0.002181
0.00013781
0.0019093
0.00014652
0.0014872
0.0001534
0.0011092
0.00015811
0.00068422
0.00028581
0.0001613
2.0056e-05
0.0033909
1.2373e-07
4.026e-05
0.0032995
5.9907e-05
0.0031735
7.8533e-05
0.0030015
9.6069e-05
0.0027726
0.00011154
0.0025326
0.0001251
0.0021674
0.00013781
0.0018966
0.00014657
0.0014785
0.00015346
0.0011023
0.00015817
0.00067951
0.00028265
0.00016133
2.0056e-05
0.0033707
1.2543e-07
4.0263e-05
0.0032793
5.9912e-05
0.0031539
7.8539e-05
0.0029829
9.6078e-05
0.002755
0.00011157
0.0025171
0.0001251
0.0021539
0.00013781
0.0018839
0.00014662
0.0014697
0.00015352
0.0010954
0.00015823
0.00067481
0.00027952
0.00016136
2.0056e-05
0.0033505
1.2714e-07
4.0265e-05
0.0032591
5.9916e-05
0.0031342
7.8545e-05
0.0029643
9.6087e-05
0.0027375
0.00011159
0.0025016
0.00012511
0.0021404
0.00013781
0.0018712
0.00014666
0.0014608
0.00015358
0.0010885
0.00015828
0.00067011
0.00027642
0.00016139
2.0057e-05
0.0033303
1.2886e-07
4.0267e-05
0.0032389
5.9921e-05
0.0031146
7.8551e-05
0.0029456
9.6096e-05
0.0027199
0.00011162
0.002486
0.00012512
0.0021269
0.00013781
0.0018585
0.00014671
0.0014519
0.00015364
0.0010815
0.00015834
0.00066541
0.00027335
0.00016141
2.0057e-05
0.0033102
1.306e-07
4.0269e-05
0.0032187
5.9926e-05
0.0030949
7.8557e-05
0.002927
9.6104e-05
0.0027024
0.00011165
0.0024705
0.00012513
0.0021134
0.00013781
0.0018458
0.00014675
0.001443
0.0001537
0.0010746
0.0001584
0.00066071
0.0002703
0.00016144
2.0057e-05
0.00329
1.3235e-07
4.0271e-05
0.0031985
5.9931e-05
0.0030753
7.8563e-05
0.0029084
9.6113e-05
0.0026848
0.00011167
0.0024549
0.00012514
0.0020999
0.00013782
0.0018331
0.0001468
0.001434
0.00015376
0.0010676
0.00015845
0.00065602
0.00026728
0.00016147
2.0057e-05
0.0032698
1.3411e-07
4.0274e-05
0.0031783
5.9935e-05
0.0030556
7.8569e-05
0.0028897
9.6122e-05
0.0026673
0.0001117
0.0024394
0.00012515
0.0020865
0.00013782
0.0018204
0.00014684
0.001425
0.00015382
0.0010606
0.00015851
0.00065133
0.00026429
0.0001615
2.0057e-05
0.0032496
1.3589e-07
4.0276e-05
0.003158
5.994e-05
0.003036
7.8575e-05
0.0028711
9.6131e-05
0.0026497
0.00011172
0.0024238
0.00012516
0.0020731
0.00013782
0.0018078
0.00014688
0.0014159
0.00015388
0.0010536
0.00015856
0.00064665
0.00026133
0.00016153
2.0058e-05
0.0032294
1.3768e-07
4.0278e-05
0.0031378
5.9945e-05
0.0030163
7.8581e-05
0.0028525
9.6139e-05
0.0026322
0.00011175
0.0024082
0.00012517
0.0020596
0.00013783
0.0017951
0.00014692
0.0014068
0.00015393
0.0010466
0.00015862
0.00064196
0.00025839
0.00016156
2.0058e-05
0.0032092
1.3948e-07
4.0281e-05
0.0031176
5.995e-05
0.0029966
7.8587e-05
0.0028338
9.6148e-05
0.0026146
0.00011178
0.0023925
0.00012519
0.0020462
0.00013783
0.0017825
0.00014696
0.0013977
0.00015399
0.0010396
0.00015867
0.00063727
0.00025547
0.00016159
2.0058e-05
0.003189
1.413e-07
4.0283e-05
0.0030974
5.9956e-05
0.0029769
7.8594e-05
0.0028152
9.6157e-05
0.002597
0.00011181
0.0023769
0.0001252
0.0020328
0.00013783
0.0017699
0.000147
0.0013885
0.00015404
0.0010325
0.00015873
0.00063259
0.00025258
0.00016162
2.0058e-05
0.0031688
1.4314e-07
4.0285e-05
0.0030772
5.9961e-05
0.0029573
7.86e-05
0.0027966
9.6165e-05
0.0025795
0.00011183
0.0023612
0.00012522
0.0020194
0.00013784
0.0017572
0.00014704
0.0013793
0.0001541
0.0010255
0.00015878
0.00062791
0.00024972
0.00016165
2.0058e-05
0.0031486
1.4499e-07
4.0288e-05
0.0030569
5.9966e-05
0.0029376
7.8607e-05
0.0027779
9.6174e-05
0.0025619
0.00011186
0.0023455
0.00012524
0.0020061
0.00013785
0.0017446
0.00014707
0.0013701
0.00015415
0.0010184
0.00015884
0.00062322
0.00024687
0.00016168
2.0059e-05
0.0031284
1.4686e-07
4.029e-05
0.0030367
5.9972e-05
0.0029179
7.8613e-05
0.0027593
9.6182e-05
0.0025443
0.00011189
0.0023298
0.00012526
0.0019927
0.00013785
0.001732
0.00014711
0.0013608
0.00015421
0.0010113
0.00015889
0.00061854
0.00024406
0.00016171
2.0059e-05
0.0031082
1.4874e-07
4.0293e-05
0.0030165
5.9977e-05
0.0028982
7.862e-05
0.0027406
9.6191e-05
0.0025268
0.00011191
0.0023141
0.00012528
0.0019793
0.00013786
0.0017195
0.00014715
0.0013516
0.00015426
0.0010042
0.00015894
0.00061386
0.00024126
0.00016174
2.0059e-05
0.003088
1.5064e-07
4.0295e-05
0.0029962
5.9983e-05
0.0028785
7.8627e-05
0.002722
9.6199e-05
0.0025092
0.00011194
0.0022984
0.0001253
0.001966
0.00013787
0.0017069
0.00014718
0.0013422
0.00015431
0.00099706
0.00015899
0.00060918
0.00023849
0.00016177
2.0059e-05
0.0030677
1.5256e-07
4.0298e-05
0.002976
5.9988e-05
0.0028588
7.8634e-05
0.0027033
9.6208e-05
0.0024916
0.00011197
0.0022826
0.00012532
0.0019526
0.00013788
0.0016943
0.00014722
0.0013329
0.00015436
0.00098991
0.00015905
0.00060449
0.00023573
0.0001618
2.006e-05
0.0030475
1.5449e-07
4.03e-05
0.0029557
5.9994e-05
0.0028391
7.8641e-05
0.0026847
9.6216e-05
0.002474
0.000112
0.0022668
0.00012534
0.0019393
0.00013789
0.0016818
0.00014725
0.0013235
0.00015441
0.00098275
0.0001591
0.00059981
0.000233
0.00016183
2.006e-05
0.0030273
1.5644e-07
4.0303e-05
0.0029355
6e-05
0.0028195
7.8648e-05
0.002666
9.6225e-05
0.0024565
0.00011202
0.002251
0.00012537
0.0019259
0.0001379
0.0016693
0.00014729
0.0013141
0.00015446
0.00097557
0.00015915
0.00059513
0.00023029
0.00016186
2.006e-05
0.0030071
1.5841e-07
4.0305e-05
0.0029153
6.0006e-05
0.0027998
7.8655e-05
0.0026474
9.6233e-05
0.0024389
0.00011205
0.0022352
0.00012539
0.0019126
0.00013791
0.0016567
0.00014732
0.0013047
0.00015451
0.00096838
0.0001592
0.00059044
0.0002276
0.00016189
2.0061e-05
0.0029869
1.604e-07
4.0308e-05
0.002895
6.0012e-05
0.00278
7.8663e-05
0.0026287
9.6241e-05
0.0024213
0.00011208
0.0022194
0.00012542
0.0018992
0.00013792
0.0016442
0.00014736
0.0012953
0.00015456
0.00096118
0.00015925
0.00058576
0.00022493
0.00016192
2.0061e-05
0.0029667
1.6241e-07
4.031e-05
0.0028748
6.0018e-05
0.0027603
7.867e-05
0.0026101
9.6249e-05
0.0024037
0.00011211
0.0022035
0.00012544
0.0018859
0.00013793
0.0016317
0.00014739
0.0012858
0.00015461
0.00095395