/*--------------------------------*- C++ -*----------------------------------*\
  =========                 |
  \\      /  F ield         | OpenFOAM: The Open Source CFD Toolbox
   \\    /   O peration     | Website:  https://openfoam.org
    \\  /    A nd           | Version:  6.0
     \\/     M anipulation  |
\*---------------------------------------------------------------------------*/
FoamFile
{
    version     2.0;
    format      ascii;
    class       surfaceScalarField;
    location    "3";
    object      phi;
}
// * * * * * * * * * * * * * * * * * * * * * * * * * * * * * * * * * * * * * //

dimensions      [0 3 -1 0 0 0 0];

internalField   nonuniform List<scalar> 
38687
(
2.0052e-05
0.005201
1.0321e-10
4.0126e-05
0.0051116
5.964e-05
0.0049351
7.8187e-05
0.0046741
9.5417e-05
0.0043332
0.00011102
0.0039182
0.00012472
0.0034362
0.00013626
0.0028953
0.00014546
0.002305
0.0001518
0.0016755
0.00015714
0.0010154
0.0004653
3.4044e-05
2.0053e-05
0.0051809
2.804e-10
4.0129e-05
0.0050916
5.9643e-05
0.0049155
7.8192e-05
0.0046556
9.5421e-05
0.004316
0.00011103
0.0039026
0.00012471
0.0034225
0.00013625
0.0028838
0.00014545
0.0022958
0.00015103
0.0016699
0.00015881
0.0010077
0.00055992
6.4191e-05
2.0054e-05
0.0051609
4.6542e-10
4.0131e-05
0.0050715
5.9647e-05
0.004896
7.8197e-05
0.004637
9.5426e-05
0.0042988
0.00011103
0.003887
0.00012471
0.0034088
0.00013623
0.0028723
0.00014546
0.0022865
0.00015026
0.0016651
0.00016004
0.00099787
0.00063088
8.9071e-05
2.0055e-05
0.0051408
6.621e-10
4.0134e-05
0.0050514
5.9651e-05
0.0048765
7.8201e-05
0.0046185
9.5431e-05
0.0042815
0.00011103
0.0038714
0.00012471
0.0033951
0.0001362
0.0028608
0.0001455
0.0022772
0.0001495
0.0016611
0.00016074
0.00098663
0.00068248
0.00010914
2.0057e-05
0.0051208
8.5965e-10
4.0137e-05
0.0050313
5.9655e-05
0.004857
7.8206e-05
0.0045999
9.5436e-05
0.0042643
0.00011104
0.0038558
0.00012471
0.0033815
0.00013618
0.0028493
0.00014557
0.0022678
0.00014879
0.0016579
0.00016093
0.0009745
0.00071826
0.00012515
2.0058e-05
0.0051007
1.058e-09
4.0139e-05
0.0050112
5.9659e-05
0.0048375
7.8211e-05
0.0045814
9.5441e-05
0.0042471
0.00011104
0.0038402
0.00012471
0.0033678
0.00013615
0.0028379
0.00014566
0.0022583
0.00014815
0.0016554
0.00016067
0.00096198
0.0007412
0.00013773
2.0059e-05
0.0050807
1.2572e-09
4.0142e-05
0.0049912
5.9663e-05
0.004818
7.8215e-05
0.0045628
9.5446e-05
0.0042298
0.00011104
0.0038246
0.00012471
0.0033541
0.00013611
0.0028265
0.00014577
0.0022487
0.0001476
0.0016536
0.00016006
0.00094952
0.00075383
0.00014743
2.006e-05
0.0050606
1.4573e-09
4.0144e-05
0.0049711
5.9667e-05
0.0047984
7.822e-05
0.0045443
9.5451e-05
0.0042126
0.00011105
0.003809
0.00012471
0.0033405
0.00013608
0.0028151
0.0001459
0.0022389
0.00014716
0.0016523
0.00015917
0.0009375
0.00075827
0.00015473
2.0062e-05
0.0050405
1.6582e-09
4.0147e-05
0.004951
5.967e-05
0.0047789
7.8225e-05
0.0045257
9.5456e-05
0.0041954
0.00011105
0.0037934
0.00012471
0.0033268
0.00013604
0.0028038
0.00014603
0.0022289
0.00014681
0.0016515
0.00015811
0.00092621
0.00075635
0.00016003
2.0063e-05
0.0050205
1.86e-09
4.015e-05
0.0049309
5.9674e-05
0.0047594
7.8229e-05
0.0045071
9.5461e-05
0.0041782
0.00011105
0.0037778
0.00012472
0.0033131
0.00013599
0.0027925
0.00014617
0.0022187
0.00014658
0.0016511
0.00015693
0.00091586
0.00074956
0.00016372
2.0064e-05
0.0050004
2.0627e-09
4.0152e-05
0.0049108
5.9678e-05
0.0047399
7.8234e-05
0.0044886
9.5467e-05
0.0041609
0.00011106
0.0037622
0.00012472
0.0032995
0.00013594
0.0027813
0.00014631
0.0022083
0.00014646
0.001651
0.00015571
0.00090661
0.00073916
0.00016611
2.0065e-05
0.0049803
2.2662e-09
4.0155e-05
0.0048907
5.9682e-05
0.0047203
7.8239e-05
0.00447
9.5472e-05
0.0041437
0.00011106
0.0037466
0.00012473
0.0032858
0.00013589
0.0027701
0.00014645
0.0021977
0.00014645
0.001651
0.00015451
0.00089855
0.0007262
0.00016747
2.0067e-05
0.0049603
2.4707e-09
4.0157e-05
0.0048706
5.9686e-05
0.0047008
7.8244e-05
0.0044515
9.5477e-05
0.0041265
0.00011106
0.0037311
0.00012474
0.0032721
0.00013583
0.002759
0.00014658
0.002187
0.00014653
0.001651
0.00015336
0.00089173
0.00071152
0.00016804
2.0068e-05
0.0049402
2.676e-09
4.016e-05
0.0048505
5.969e-05
0.0046813
7.8248e-05
0.0044329
9.5483e-05
0.0041092
0.00011107
0.0037155
0.00012475
0.0032584
0.00013577
0.002748
0.00014671
0.0021761
0.0001467
0.001651
0.00015229
0.00088614
0.00069579
0.00016801
2.0069e-05
0.0049201
2.8823e-09
4.0163e-05
0.0048305
5.9694e-05
0.0046617
7.8253e-05
0.0044144
9.5488e-05
0.004092
0.00011107
0.0036999
0.00012476
0.0032447
0.00013571
0.0027371
0.00014682
0.0021649
0.00014695
0.0016509
0.00015134
0.00088175
0.00067958
0.00016755
2.007e-05
0.0049
3.0895e-09
4.0165e-05
0.0048104
5.9698e-05
0.0046422
7.8258e-05
0.0043958
9.5494e-05
0.0040747
0.00011108
0.0036843
0.00012478
0.003231
0.00013564
0.0027262
0.00014691
0.0021537
0.00014727
0.0016505
0.00015051
0.0008785
0.00066331
0.00016678
2.0071e-05
0.00488
3.2977e-09
4.0168e-05
0.0047903
5.9702e-05
0.0046227
7.8263e-05
0.0043772
9.55e-05
0.0040575
0.00011108
0.0036687
0.00012479
0.0032173
0.00013558
0.0027154
0.00014699
0.0021423
0.00014764
0.0016499
0.00014982
0.00087632
0.00064731
0.00016582
2.0073e-05
0.0048599
3.5068e-09
4.017e-05
0.0047702
5.9706e-05
0.0046031
7.8268e-05
0.0043587
9.5505e-05
0.0040403
0.00011108
0.0036532
0.00012481
0.0032036
0.00013551
0.0027047
0.00014705
0.0021307
0.00014806
0.0016489
0.00014927
0.0008751
0.00063183
0.00016476
2.0074e-05
0.0048398
3.7169e-09
4.0173e-05
0.0047501
5.971e-05
0.0045836
7.8273e-05
0.0043401
9.5511e-05
0.004023
0.00011109
0.0036376
0.00012483
0.0031898
0.00013544
0.0026941
0.00014709
0.0021191
0.00014851
0.0016475
0.00014886
0.00087474
0.00061705
0.00016365
2.0075e-05
0.0048197
3.9279e-09
4.0176e-05
0.00473
5.9714e-05
0.0045641
7.8277e-05
0.0043216
9.5517e-05
0.0040058
0.00011109
0.003622
0.00012485
0.0031761
0.00013537
0.0026836
0.00014712
0.0021073
0.00014898
0.0016456
0.00014859
0.00087513
0.00060308
0.00016255
2.0076e-05
0.0047997
4.14e-09
4.0178e-05
0.0047099
5.9718e-05
0.0045445
7.8282e-05
0.004303
9.5523e-05
0.0039886
0.00011109
0.0036064
0.00012488
0.0031623
0.00013531
0.0026732
0.00014712
0.0020955
0.00014946
0.0016433
0.00014844
0.00087616
0.00059001
0.00016151
2.0078e-05
0.0047796
4.3531e-09
4.0181e-05
0.0046898
5.9722e-05
0.004525
7.8287e-05
0.0042844
9.5529e-05
0.0039713
0.00011109
0.0035909
0.0001249
0.0031485
0.00013524
0.0026628
0.0001471
0.0020836
0.00014995
0.0016404
0.00014841
0.0008777
0.00057786
0.00016056
2.0079e-05
0.0047595
4.5671e-09
4.0183e-05
0.0046697
5.9726e-05
0.0045054
7.8292e-05
0.0042659
9.5535e-05
0.0039541
0.0001111
0.0035753
0.00012493
0.0031347
0.00013518
0.0026526
0.00014707
0.0020718
0.00015044
0.0016371
0.00014848
0.00087966
0.00056664
0.0001597
2.008e-05
0.0047394
4.7823e-09
4.0186e-05
0.0046495
5.973e-05
0.0044859
7.8297e-05
0.0042473
9.5542e-05
0.0039368
0.0001111
0.0035598
0.00012496
0.0031208
0.00013512
0.0026424
0.00014701
0.0020599
0.00015091
0.0016332
0.00014865
0.00088192
0.00055634
0.00015895
2.0081e-05
0.0047193
4.9984e-09
4.0189e-05
0.0046294
5.9734e-05
0.0044664
7.8302e-05
0.0042287
9.5548e-05
0.0039196
0.0001111
0.0035442
0.00012499
0.0031069
0.00013507
0.0026323
0.00014694
0.002048
0.00015137
0.0016287
0.00014889
0.0008844
0.00054691
0.00015832
2.0082e-05
0.0046992
5.2157e-09
4.0191e-05
0.0046093
5.9738e-05
0.0044468
7.8307e-05
0.0042101
9.5555e-05
0.0039023
0.0001111
0.0035287
0.00012502
0.003093
0.00013502
0.0026223
0.00014685
0.0020362
0.0001518
0.0016238
0.00014921
0.00088699
0.00053832
0.0001578
2.0084e-05
0.0046791
5.434e-09
4.0194e-05
0.0045892
5.9742e-05
0.0044273
7.8312e-05
0.0041916
9.5561e-05
0.0038851
0.0001111
0.0035131
0.00012505
0.003079
0.00013497
0.0026124
0.00014675
0.0020244
0.00015221
0.0016183
0.00014958
0.00088962
0.00053049
0.0001574
2.0085e-05
0.0046591
5.6534e-09
4.0197e-05
0.0045691
5.9746e-05
0.0044077
7.8317e-05
0.004173
9.5568e-05
0.0038678
0.0001111
0.0034976
0.00012509
0.003065
0.00013493
0.0026026
0.00014663
0.0020127
0.00015258
0.0016124
0.00014999
0.00089221
0.00052338
0.00015711
2.0086e-05
0.004639
5.8739e-09
4.0199e-05
0.004549
5.975e-05
0.0043882
7.8322e-05
0.0041544
9.5575e-05
0.0038506
0.0001111
0.0034821
0.00012512
0.003051
0.0001349
0.0025928
0.0001465
0.0020011
0.00015293
0.0016059
0.00015044
0.00089469
0.0005169
0.00015691
2.0087e-05
0.0046189
6.0956e-09
4.0202e-05
0.0045289
5.9754e-05
0.0043686
7.8328e-05
0.0041359
9.5583e-05
0.0038333
0.0001111
0.0034666
0.00012516
0.003037
0.00013488
0.0025831
0.00014636
0.0019896
0.00015323
0.0015991
0.00015091
0.00089702
0.00051101
0.00015681
2.0089e-05
0.0045988
6.3183e-09
4.0205e-05
0.0045088
5.9758e-05
0.0043491
7.8333e-05
0.0041173
9.559e-05
0.0038161
0.0001111
0.003451
0.0001252
0.0030229
0.00013486
0.0025734
0.00014621
0.0019783
0.0001535
0.0015918
0.00015139
0.00089913
0.00050562
0.00015678
2.009e-05
0.0045787
6.5423e-09
4.0207e-05
0.0044886
5.9762e-05
0.0043295
7.8338e-05
0.0040987
9.5597e-05
0.0037988
0.0001111
0.0034355
0.00012523
0.0030087
0.00013485
0.0025638
0.00014605
0.0019671
0.00015374
0.0015841
0.00015188
0.00090099
0.00050067
0.00015682
2.0091e-05
0.0045586
6.7674e-09
4.021e-05
0.0044685
5.9766e-05
0.0043099
7.8343e-05
0.0040801
9.5605e-05
0.0037815
0.0001111
0.00342
0.00012527
0.0029946
0.00013485
0.0025542
0.00014589
0.001956
0.00015394
0.001576
0.00015236
0.00090256
0.00049611
0.00015692
2.0092e-05
0.0045385
6.9937e-09
4.0213e-05
0.0044484
5.977e-05
0.0042904
7.8348e-05
0.0040616
9.5613e-05
0.0037643
0.0001111
0.0034046
0.00012531
0.0029803
0.00013485
0.0025447
0.00014572
0.0019452
0.0001541
0.0015677
0.00015284
0.00090382
0.00049188
0.00015707
2.0094e-05
0.0045184
7.2212e-09
4.0215e-05
0.0044283
5.9775e-05
0.0042708
7.8353e-05
0.004043
9.5621e-05
0.003747
0.00011109
0.0033891
0.00012535
0.0029661
0.00013487
0.0025352
0.00014555
0.0019345
0.00015423
0.001559
0.0001533
0.00090475
0.00048792
0.00015725
2.0095e-05
0.0044983
7.4499e-09
4.0218e-05
0.0044082
5.9779e-05
0.0042513
7.8359e-05
0.0040244
9.5629e-05
0.0037297
0.00011109
0.0033736
0.00012538
0.0029518
0.00013489
0.0025257
0.00014539
0.001924
0.00015432
0.00155
0.00015374
0.00090533
0.00048419
0.00015747
2.0096e-05
0.0044782
7.6799e-09
4.0221e-05
0.004388
5.9783e-05
0.0042317
7.8364e-05
0.0040058
9.5638e-05
0.0037125
0.00011109
0.0033582
0.00012542
0.0029375
0.00013493
0.0025161
0.00014522
0.0019137
0.00015438
0.0015409
0.00015415
0.00090556
0.00048065
0.0001577
2.0097e-05
0.0044581
7.9111e-09
4.0224e-05
0.0043679
5.9787e-05
0.0042121
7.8369e-05
0.0039872
9.5646e-05
0.0036952
0.00011109
0.0033427
0.00012545
0.0029231
0.00013497
0.0025066
0.00014506
0.0019036
0.00015441
0.0015315
0.00015454
0.00090543
0.00047724
0.00015795
2.0099e-05
0.004438
8.1436e-09
4.0226e-05
0.0043478
5.9791e-05
0.0041926
7.8375e-05
0.0039687
9.5655e-05
0.0036779
0.00011108
0.0033273
0.00012548
0.0029087
0.00013501
0.0024971
0.0001449
0.0018937
0.00015441
0.001522
0.0001549
0.00090494
0.00047395
0.0001582
2.01e-05
0.0044179
8.3774e-09
4.0229e-05
0.0043277
5.9796e-05
0.004173
7.838e-05
0.0039501
9.5664e-05
0.0036606
0.00011108
0.0033119
0.00012552
0.0028943
0.00013507
0.0024875
0.00014476
0.001884
0.00015439
0.0015124
0.00015524
0.00090409
0.00047073
0.00015845
2.0101e-05
0.0043977
8.6125e-09
4.0232e-05
0.0043075
5.98e-05
0.0041534
7.8385e-05
0.0039315
9.5674e-05
0.0036433
0.00011108
0.0032965
0.00012555
0.0028798
0.00013514
0.002478
0.00014461
0.0018745
0.00015435
0.0015027
0.00015554
0.0009029
0.00046757
0.0001587
2.0102e-05
0.0043776
8.8489e-09
4.0235e-05
0.0042874
5.9804e-05
0.0041339
7.8391e-05
0.0039129
9.5683e-05
0.003626
0.00011107
0.0032811
0.00012558
0.0028653
0.00013521
0.0024683
0.00014448
0.0018653
0.00015429
0.0014929
0.00015581
0.00090137
0.00046443
0.00015895
2.0104e-05
0.0043575
9.0867e-09
4.0237e-05
0.0042673
5.9809e-05
0.0041143
7.8396e-05
0.0038943
9.5693e-05
0.0036087
0.00011107
0.0032657
0.0001256
0.0028508
0.00013528
0.0024586
0.00014436
0.0018562
0.00015421
0.001483
0.00015606
0.00089952
0.00046131
0.00015918
2.0105e-05
0.0043374
9.3258e-09
4.024e-05
0.0042471
5.9813e-05
0.0040947
7.8401e-05
0.0038757
9.5703e-05
0.0035914
0.00011107
0.0032504
0.00012563
0.0028362
0.00013537
0.0024489
0.00014425
0.0018473
0.00015411
0.0014731
0.00015627
0.00089736
0.00045818
0.0001594
2.0106e-05
0.0043173
9.5664e-09
4.0243e-05
0.004227
5.9817e-05
0.0040752
7.8407e-05
0.0038571
9.5713e-05
0.0035741
0.00011106
0.003235
0.00012565
0.0028216
0.00013546
0.0024391
0.00014415
0.0018386
0.00015401
0.0014633
0.00015646
0.00089491
0.00045503
0.00015961
2.0108e-05
0.0042972
9.8083e-09
4.0246e-05
0.0042068
5.9822e-05
0.0040556
7.8412e-05
0.0038385
9.5724e-05
0.0035568
0.00011106
0.0032197
0.00012567
0.002807
0.00013555
0.0024292
0.00014407
0.0018301
0.00015389
0.0014535
0.00015662
0.00089217
0.00045185
0.0001598
2.0109e-05
0.0042771
1.0052e-08
4.0249e-05
0.0041867
5.9826e-05
0.004036
7.8418e-05
0.0038199
9.5734e-05
0.0035395
0.00011106
0.0032044
0.00012568
0.0027924
0.00013565
0.0024192
0.000144
0.0018217
0.00015377
0.0014437
0.00015676
0.00088918
0.00044863
0.00015998
2.011e-05
0.0042569
1.0297e-08
4.0252e-05
0.0041666
5.9831e-05
0.0040164
7.8423e-05
0.0038014
9.5745e-05
0.0035222
0.00011106
0.003189
0.0001257
0.0027777
0.00013575
0.0024092
0.00014394
0.0018136
0.00015364
0.001434
0.00015688
0.00088595
0.00044536
0.00016014
2.0111e-05
0.0042368
1.0543e-08
4.0254e-05
0.0041464
5.9835e-05
0.0039968
7.8429e-05
0.0037828
9.5756e-05
0.0035049
0.00011105
0.0031737
0.00012571
0.0027631
0.00013586
0.002399
0.00014389
0.0018055
0.00015352
0.0014244
0.00015697
0.00088249
0.00044205
0.00016028
2.0113e-05
0.0042167
1.0791e-08
4.0257e-05
0.0041263
5.984e-05
0.0039773
7.8434e-05
0.0037642
9.5768e-05
0.0034875
0.00011105
0.0031585
0.00012572
0.0027484
0.00013597
0.0023888
0.00014386
0.0017976
0.00015339
0.0014148
0.00015705
0.00087883
0.00043868
0.00016041
2.0114e-05
0.0041966
1.104e-08
4.026e-05
0.0041061
5.9844e-05
0.0039577
7.844e-05
0.0037456
9.5779e-05
0.0034702
0.00011105
0.0031432
0.00012572
0.0027338
0.00013608
0.0023784
0.00014384
0.0017899
0.00015326
0.0014054
0.00015711
0.00087498
0.00043527
0.00016053
2.0115e-05
0.0041764
1.1291e-08
4.0263e-05
0.004086
5.9849e-05
0.0039381
7.8446e-05
0.003727
9.5791e-05
0.0034528
0.00011105
0.0031279
0.00012573
0.0027191
0.00013619
0.002368
0.00014384
0.0017822
0.00015314
0.0013961
0.00015716
0.00087097
0.0004318
0.00016063
2.0117e-05
0.0041563
1.1543e-08
4.0266e-05
0.0040658
5.9853e-05
0.0039185
7.8451e-05
0.0037084
9.5802e-05
0.0034355
0.00011105
0.0031127
0.00012573
0.0027044
0.0001363
0.0023574
0.00014384
0.0017747
0.00015303
0.0013869
0.00015719
0.0008668
0.00042827
0.00016072
2.0118e-05
0.0041362
1.1797e-08
4.0269e-05
0.0040457
5.9858e-05
0.0038989
7.8457e-05
0.0036898
9.5814e-05
0.0034181
0.00011106
0.0030974
0.00012573
0.0026897
0.00013641
0.0023467
0.00014386
0.0017672
0.00015292
0.0013779
0.00015722
0.00086249
0.0004247
0.00016079
2.0119e-05
0.004116
1.2053e-08
4.0272e-05
0.0040255
5.9863e-05
0.0038793
7.8463e-05
0.0036712
9.5826e-05
0.0034008
0.00011106
0.0030822
0.00012572
0.0026751
0.00013651
0.0023359
0.00014389
0.0017598
0.00015281
0.001369
0.00015724
0.00085807
0.00042108
0.00016086
2.0121e-05
0.0040959
1.231e-08
4.0275e-05
0.0040054
5.9867e-05
0.0038597
7.8468e-05
0.0036526
9.5838e-05
0.0033834
0.00011106
0.003067
0.00012572
0.0026604
0.00013662
0.002325
0.00014393
0.0017525
0.00015272
0.0013602
0.00015725
0.00085353
0.00041741
0.00016092
2.0122e-05
0.0040758
1.2569e-08
4.0278e-05
0.0039852
5.9872e-05
0.0038401
7.8474e-05
0.003634
9.5851e-05
0.003366
0.00011107
0.0030518
0.00012571
0.0026458
0.00013672
0.002314
0.00014399
0.0017453
0.00015264
0.0013515
0.00015726
0.00084891
0.00041371
0.00016097
2.0123e-05
0.0040556
1.2829e-08
4.0281e-05
0.0039651
5.9877e-05
0.0038205
7.848e-05
0.0036154
9.5863e-05
0.0033486
0.00011107
0.0030365
0.0001257
0.0026312
0.00013683
0.0023029
0.00014405
0.001738
0.00015257
0.001343
0.00015727
0.00084421
0.00040996
0.00016101
2.0125e-05
0.0040355
1.3092e-08
4.0284e-05
0.0039449
5.9882e-05
0.0038009
7.8485e-05
0.0035968
9.5876e-05
0.0033313
0.00011108
0.0030213
0.00012568
0.0026166
0.00013692
0.0022916
0.00014412
0.0017309
0.0001525
0.0013346
0.00015727
0.00083944
0.00040619
0.00016105
2.0126e-05
0.0040154
1.3356e-08
4.0287e-05
0.0039247
5.9886e-05
0.0037813
7.8491e-05
0.0035782
9.5888e-05
0.0033139
0.00011109
0.0030061
0.00012567
0.002602
0.00013702
0.0022803
0.00014419
0.0017237
0.00015245
0.0013264
0.00015728
0.00083461
0.00040238
0.00016108
2.0127e-05
0.0039952
1.3621e-08
4.029e-05
0.0039046
5.9891e-05
0.0037617
7.8497e-05
0.0035596
9.5901e-05
0.0032965
0.00011109
0.002991
0.00012565
0.0025874
0.00013711
0.0022688
0.00014428
0.0017165
0.00015241
0.0013182
0.00015728
0.00082974
0.00039855
0.00016111
2.0129e-05
0.0039751
1.3889e-08
4.0293e-05
0.0038844
5.9896e-05
0.0037421
7.8503e-05
0.0035409
9.5913e-05
0.003279
0.0001111
0.0029758
0.00012563
0.0025729
0.00013719
0.0022573
0.00014437
0.0017093
0.00015238
0.0013102
0.00015729
0.00082483
0.0003947
0.00016114
2.013e-05
0.0039549
1.4158e-08
4.0296e-05
0.0038643
5.9901e-05
0.0037225
7.8509e-05
0.0035223
9.5926e-05
0.0032616
0.00011111
0.0029606
0.00012562
0.0025584
0.00013728
0.0022456
0.00014446
0.0017021
0.00015235
0.0013023
0.00015729
0.00081989
0.00039083
0.00016116
2.0132e-05
0.0039348
1.4429e-08
4.0299e-05
0.0038441
5.9906e-05
0.0037029
7.8515e-05
0.0035037
9.5938e-05
0.0032442
0.00011113
0.0029454
0.0001256
0.0025439
0.00013735
0.0022338
0.00014456
0.0016949
0.00015234
0.0012946
0.0001573
0.00081493
0.00038695
0.00016118
2.0133e-05
0.0039146
1.4702e-08
4.0303e-05
0.0038239
5.9911e-05
0.0036833
7.8521e-05
0.0034851
9.5951e-05
0.0032268
0.00011114
0.0029302
0.00012558
0.0025295
0.00013743
0.002222
0.00014466
0.0016877
0.00015234
0.0012869
0.00015732
0.00080995
0.00038306
0.00016121
2.0134e-05
0.0038945
1.4977e-08
4.0306e-05
0.0038037
5.9916e-05
0.0036637
7.8527e-05
0.0034665
9.5963e-05
0.0032093
0.00011115
0.002915
0.00012556
0.0025151
0.00013749
0.0022101
0.00014476
0.0016804
0.00015235
0.0012793
0.00015734
0.00080496
0.00037917
0.00016123
2.0136e-05
0.0038743
1.5254e-08
4.0309e-05
0.0037836
5.9921e-05
0.0036441
7.8533e-05
0.0034479
9.5976e-05
0.0031919
0.00011117
0.0028998
0.00012554
0.0025007
0.00013755
0.002198
0.00014487
0.0016731
0.00015236
0.0012718
0.00015736
0.00079996
0.00037528
0.00016125
2.0137e-05
0.0038542
1.5532e-08
4.0312e-05
0.0037634
5.9926e-05
0.0036245
7.854e-05
0.0034293
9.5989e-05
0.0031744
0.00011119
0.0028846
0.00012552
0.0024864
0.00013761
0.0021859
0.00014497
0.0016658
0.00015238
0.0012644
0.00015738
0.00079496
0.0003714
0.00016127
2.0139e-05
0.003834
1.5813e-08
4.0315e-05
0.0037432
5.9931e-05
0.0036049
7.8546e-05
0.0034107
9.6001e-05
0.003157
0.0001112
0.0028694
0.0001255
0.0024721
0.00013767
0.0021738
0.00014508
0.0016583
0.00015241
0.0012571
0.00015741
0.00078997
0.00036752
0.00016129
2.014e-05
0.0038139
1.6096e-08
4.0319e-05
0.003723
5.9937e-05
0.0035852
7.8552e-05
0.0033921
9.6013e-05
0.0031395
0.00011122
0.0028542
0.00012548
0.0024578
0.00013771
0.0021615
0.00014519
0.0016509
0.00015245
0.0012498
0.00015745
0.00078497
0.00036364
0.00016132
2.0142e-05
0.0037937
1.638e-08
4.0322e-05
0.0037029
5.9942e-05
0.0035656
7.8559e-05
0.0033734
9.6026e-05
0.0031221
0.00011124
0.002839
0.00012546
0.0024436
0.00013776
0.0021492
0.00014529
0.0016433
0.00015249
0.0012426
0.00015748
0.00077998
0.00035979
0.00016134
2.0143e-05
0.0037736
1.6667e-08
4.0325e-05
0.0036827
5.9947e-05
0.003546
7.8565e-05
0.0033548
9.6038e-05
0.0031046
0.00011126
0.0028238
0.00012544
0.0024294
0.0001378
0.0021369
0.0001454
0.0016357
0.00015254
0.0012354
0.00015752
0.000775
0.00035594
0.00016137
2.0144e-05
0.0037534
1.6956e-08
4.0329e-05
0.0036625
5.9953e-05
0.0035264
7.8572e-05
0.0033362
9.605e-05
0.0030871
0.00011128
0.0028085
0.00012542
0.0024153
0.00013783
0.0021245
0.0001455
0.0016281
0.00015259
0.0012283
0.00015757
0.00077003
0.00035212
0.00016139
2.0146e-05
0.0037332
1.7247e-08
4.0332e-05
0.0036423
5.9958e-05
0.0035068
7.8578e-05
0.0033176
9.6062e-05
0.0030696
0.0001113
0.0027933
0.0001254
0.0024012
0.00013787
0.002112
0.0001456
0.0016203
0.00015265
0.0012213
0.00015761
0.00076507
0.00034831
0.00016142
2.0147e-05
0.0037131
1.754e-08
4.0335e-05
0.0036221
5.9963e-05
0.0034871
7.8585e-05
0.003299
9.6074e-05
0.0030521
0.00011133
0.002778
0.00012539
0.0023871
0.00013789
0.0020995
0.00014569
0.0016125
0.00015271
0.0012143
0.00015766
0.00076012
0.00034453
0.00016145
2.0149e-05
0.0036929
1.7835e-08
4.0339e-05
0.0036019
5.9969e-05
0.0034675
7.8592e-05
0.0032803
9.6086e-05
0.0030346
0.00011135
0.0027628
0.00012537
0.0023731
0.00013792
0.0020869
0.00014579
0.0016047
0.00015277
0.0012073
0.00015771
0.00075518
0.00034076
0.00016148
2.015e-05
0.0036727
1.8133e-08
4.0342e-05
0.0035817
5.9974e-05
0.0034479
7.8598e-05
0.0032617
9.6098e-05
0.0030171
0.00011137
0.0027475
0.00012536
0.0023591
0.00013794
0.0020744
0.00014588
0.0015967
0.00015284
0.0012003
0.00015777
0.00075025
0.00033703
0.00016151
2.0152e-05
0.0036526
1.8432e-08
4.0346e-05
0.0035615
5.998e-05
0.0034282
7.8605e-05
0.0032431
9.611e-05
0.0029996
0.0001114
0.0027322
0.00012535
0.0023452
0.00013796
0.0020617
0.00014597
0.0015887
0.00015291
0.0011934
0.00015783
0.00074533
0.00033331
0.00016154
2.0153e-05
0.0036324
1.8735e-08
4.0349e-05
0.0035413
5.9986e-05
0.0034086
7.8612e-05
0.0032245
9.6121e-05
0.0029821
0.00011142
0.0027169
0.00012534
0.0023313
0.00013798
0.0020491
0.00014606
0.0015806
0.00015298
0.0011865
0.00015789
0.00074042
0.00032963
0.00016157
2.0155e-05
0.0036122
1.9039e-08
4.0353e-05
0.0035212
5.9991e-05
0.003389
7.8619e-05
0.0032058
9.6133e-05
0.0029646
0.00011145
0.0027016
0.00012533
0.0023174
0.00013799
0.0020364
0.00014614
0.0015725
0.00015305
0.0011796
0.00015795
0.00073553
0.00032597
0.0001616
2.0157e-05
0.003592
1.9346e-08
4.0356e-05
0.003501
5.9997e-05
0.0033693
7.8626e-05
0.0031872
9.6145e-05
0.0029471
0.00011148
0.0026863
0.00012532
0.0023036
0.00013801
0.0020238
0.00014622
0.0015643
0.00015312
0.0011727
0.00015801
0.00073064
0.00032234
0.00016164
2.0158e-05
0.0035719
1.9656e-08
4.036e-05
0.0034807
6.0003e-05
0.0033497
7.8634e-05
0.0031686
9.6156e-05
0.0029296
0.0001115
0.0026709
0.00012531
0.0022897
0.00013802
0.002011
0.0001463
0.001556
0.00015319
0.0011658
0.00015807
0.00072576
0.00031874
0.00016167
2.016e-05
0.0035517
1.9967e-08
4.0364e-05
0.0034605
6.0009e-05
0.00333
7.8641e-05
0.0031499
9.6168e-05
0.002912
0.00011153
0.0026556
0.00012531
0.002276
0.00013803
0.0019983
0.00014637
0.0015477
0.00015327
0.0011589
0.00015813
0.00072089
0.00031516
0.00016171
2.0161e-05
0.0035315
2.0282e-08
4.0367e-05
0.0034403
6.0015e-05
0.0033104
7.8648e-05
0.0031313
9.6179e-05
0.0028945
0.00011156
0.0026402
0.00012531
0.0022622
0.00013804
0.0019856
0.00014645
0.0015392
0.00015334
0.001152
0.0001582
0.00071603
0.00031162
0.00016174
2.0163e-05
0.0035113
2.0599e-08
4.0371e-05
0.0034201
6.0021e-05
0.0032907
7.8656e-05
0.0031127
9.619e-05
0.002877
0.00011158
0.0026248
0.0001253
0.0022485
0.00013804
0.0019729
0.00014652
0.0015308
0.00015341
0.0011451
0.00015826
0.00071118
0.0003081
0.00016178
2.0165e-05
0.0034911
2.0919e-08
4.0375e-05
0.0033999
6.0027e-05
0.0032711
7.8663e-05
0.003094
9.6202e-05
0.0028594
0.00011161
0.0026094
0.00012531
0.0022348
0.00013805
0.0019601
0.00014658
0.0015222
0.00015348
0.0011382
0.00015833
0.00070633
0.00030462
0.00016182
2.0166e-05
0.0034709
2.1241e-08
4.0379e-05
0.0033797
6.0033e-05
0.0032514
7.8671e-05
0.0030754
9.6213e-05
0.0028419
0.00011164
0.0025939
0.00012531
0.0022211
0.00013806
0.0019474
0.00014665
0.0015136
0.00015356
0.0011313
0.0001584
0.00070149
0.00030116
0.00016185
2.0168e-05
0.0034508
2.1566e-08
4.0382e-05
0.0033595
6.0039e-05
0.0032318
7.8679e-05
0.0030568
9.6224e-05
0.0028244
0.00011167
0.0025785
0.00012531
0.0022075
0.00013806
0.0019346
0.00014671
0.001505
0.00015363
0.0011244
0.00015846
0.00069666
0.00029773
0.00016189
2.0169e-05
0.0034306
2.1895e-08
4.0386e-05
0.0033393
6.0045e-05
0.0032121
7.8686e-05
0.0030381
9.6236e-05
0.0028068
0.0001117
0.002563
0.00012532
0.0021939
0.00013807
0.0019219
0.00014677
0.0014963
0.0001537
0.0011174
0.00015853
0.00069183
0.00029433
0.00016193
2.0171e-05
0.0034104
2.2225e-08
4.039e-05
0.0033191
6.0052e-05
0.0031924
7.8694e-05
0.0030195
9.6247e-05
0.0027893
0.00011173
0.0025476
0.00012532
0.0021803
0.00013807
0.0019091
0.00014683
0.0014875
0.00015377
0.0011105
0.00015859
0.00068701
0.00029096
0.00016196
2.0173e-05
0.0033902
2.2559e-08
4.0394e-05
0.0032988
6.0058e-05
0.0031728
7.8702e-05
0.0030008
9.6258e-05
0.0027717
0.00011176
0.0025321
0.00012533
0.0021667
0.00013808
0.0018964
0.00014688
0.0014787
0.00015384
0.0011035
0.00015866
0.00068218
0.00028762
0.000162
2.0175e-05
0.00337
2.2896e-08
4.0398e-05
0.0032786
6.0065e-05
0.0031531
7.871e-05
0.0029822
9.627e-05
0.0027541
0.00011178
0.0025166
0.00012534
0.0021532
0.00013808
0.0018836
0.00014694
0.0014699
0.00015391
0.0010966
0.00015872
0.00067737
0.0002843
0.00016204
2.0176e-05
0.0033498
2.3236e-08
4.0402e-05
0.0032584
6.0071e-05
0.0031334
7.8718e-05
0.0029635
9.6281e-05
0.0027366
0.00011181
0.002501
0.00012535
0.0021396
0.00013809
0.0018709
0.00014699
0.001461
0.00015398
0.0010896
0.00015879
0.00067255
0.00028102
0.00016208
2.0178e-05
0.0033296
2.3579e-08
4.0406e-05
0.0032382
6.0078e-05
0.0031138
7.8727e-05
0.0029449
9.6292e-05
0.002719
0.00011184
0.0024855
0.00012536
0.0021261
0.00013809
0.0018582
0.00014704
0.001452
0.00015404
0.0010826
0.00015885
0.00066774
0.00027776
0.00016211
2.018e-05
0.0033094
2.3925e-08
4.041e-05
0.0032179
6.0084e-05
0.0030941
7.8735e-05
0.0029262
9.6304e-05
0.0027014
0.00011187
0.0024699
0.00012537
0.0021126
0.0001381
0.0018454
0.00014709
0.001443
0.00015411
0.0010756
0.00015892
0.00066293
0.00027453
0.00016215
2.0181e-05
0.0032892
2.4274e-08
4.0414e-05
0.0031977
6.0091e-05
0.0030744
7.8743e-05
0.0029076
9.6315e-05
0.0026839
0.0001119
0.0024543
0.00012539
0.0020991
0.00013811
0.0018327
0.00014714
0.001434
0.00015417
0.0010685
0.00015898
0.00065812
0.00027132
0.00016219
2.0183e-05
0.003269
2.4627e-08
4.0418e-05
0.0031775
6.0098e-05
0.0030547
7.8752e-05
0.0028889
9.6326e-05
0.0026663
0.00011193
0.0024387
0.0001254
0.0020856
0.00013811
0.00182
0.00014719
0.0014249
0.00015424
0.0010615
0.00015905
0.00065332
0.00026814
0.00016223
2.0185e-05
0.0032488
2.4983e-08
4.0422e-05
0.0031572
6.0105e-05
0.0030351
7.876e-05
0.0028703
9.6338e-05
0.0026487
0.00011196
0.0024231
0.00012542
0.0020722
0.00013812
0.0018073
0.00014723
0.0014158
0.0001543
0.0010544
0.00015911
0.00064851
0.00026499
0.00016226
2.0187e-05
0.0032285
2.5343e-08
4.0426e-05
0.003137
6.0112e-05
0.0030154
7.8769e-05
0.0028516
9.6349e-05
0.0026311
0.00011199
0.0024074
0.00012544
0.0020587
0.00013813
0.0017946
0.00014728
0.0014067
0.00015437
0.0010473
0.00015917
0.00064371
0.00026186
0.0001623
2.0189e-05
0.0032083
2.5705e-08
4.043e-05
0.0031167
6.0119e-05
0.0029957
7.8777e-05
0.002833
9.636e-05
0.0026136
0.00011202
0.0023918
0.00012546
0.0020453
0.00013814
0.0017819
0.00014732
0.0013975
0.00015443
0.0010402
0.00015924
0.0006389
0.00025876
0.00016234
2.0191e-05
0.0031881
2.6072e-08
4.0435e-05
0.0030965
6.0127e-05
0.002976
7.8786e-05
0.0028143
9.6372e-05
0.002596
0.00011205
0.0023761
0.00012548
0.0020319
0.00013815
0.0017692
0.00014737
0.0013883
0.00015449
0.0010331
0.0001593
0.0006341
0.00025568
0.00016238
2.0193e-05
0.0031679
2.6442e-08
4.0439e-05
0.0030763
6.0134e-05
0.0029563
7.8795e-05
0.0027956
9.6383e-05
0.0025784
0.00011208
0.0023604
0.0001255
0.0020185
0.00013816
0.0017566
0.00014741
0.001379
0.00015455
0.0010259
0.00015936
0.00062929
0.00025263
0.00016241
2.0194e-05
0.0031477
2.6816e-08
4.0443e-05
0.003056
6.0141e-05
0.0029366
7.8804e-05
0.002777
9.6394e-05
0.0025608
0.00011211
0.0023447
0.00012552
0.0020051
0.00013817
0.0017439
0.00014746
0.0013697
0.00015461
0.0010188
0.00015942
0.00062449
0.0002496
0.00016245
2.0196e-05
0.0031274
2.7193e-08
4.0448e-05
0.0030358
6.0149e-05
0.0029169
7.8813e-05
0.0027583
9.6406e-05
0.0025432
0.00011214
0.002329
0.00012554
0.0019917
0.00013818
0.0017313
0.0001475
0.0013604
0.00015468
0.0010116
0.00015948
0.00061968
0.00024659
0.00016249
2.0198e-05
0.0031072
2.7574e-08
4.0452e-05
0.0030155
6.0157e-05
0.0028972
7.8822e-05
0.0027397
9.6417e-05
0.0025256
0.00011217
0.0023132
0.00012556
0.0019783
0.00013819
0.0017187
0.00014754
0.0013511
0.00015473
0.0010044
0.00015954
0.00061487
0.0002436
0.00016253
2.02e-05
0.003087
2.7959e-08
4.0456e-05
0.0029952
6.0164e-05
0.0028775
7.8831e-05
0.002721
9.6428e-05
0.002508
0.0001122
0.0022974
0.00012559
0.0019649
0.0001382
0.0017061
0.00014758
0.0013417
0.00015479
0.0009972
0.0001596
0.00061007
0.00024064
0.00016257
2.0202e-05
0.0030668
2.8348e-08
4.0461e-05
0.002975
6.0172e-05
0.0028578
7.8841e-05
0.0027023
9.6439e-05
0.0024904
0.00011223
0.0022816
0.00012561
0.0019515
0.00013822
0.0016935
0.00014762
0.0013323
0.00015485
0.00098997
0.00015966
0.00060526
0.0002377
0.0001626
2.0204e-05
0.0030465
2.8741e-08
4.0465e-05
0.0029547
6.018e-05
0.0028381
7.885e-05
0.0026836
9.645e-05
0.0024728
0.00011226
0.0022658
0.00012564
0.0019381
0.00013823
0.0016809
0.00014766
0.0013228
0.00015491
0.00098272
0.00015972
0.00060045
0.00023477
0.00016264
2.0206e-05
0.0030263
2.9139e-08
4.047e-05
0.0029345
6.0188e-05
0.0028183
7.886e-05
0.002665
9.6462e-05
0.0024552
0.0001123
0.00225
0.00012567
0.0019247
0.00013825
0.0016683
0.0001477
0.0013134
0.00015497
0.00097546
0.00015978
0.00059564
0.00023187
0.00016268
2.0208e-05
0.0030061
2.954e-08
4.0474e-05
0.0029142
6.0197e-05
0.0027986
7.887e-05
0.0026463
9.6473e-05
0.0024376
0.00011233
0.0022341
0.0001257
0.0019114
0.00013826
0.0016557
0.00014774
0.0013039
0.00015502
0.00096818
0.00015984
0.00059082
0.00022899
0.00016272
2.021e-05
0.0029858
2.9946e-08
4.0479e-05
0.0028939
6.0205e-05
0.0027789
7.888e-05
0.0026276
9.6484e-05
0.00242
0.00011236
0.0022183
0.00012573
0.001898
0.00013828
0.0016432
0.00014778
0.0012944
0.00015508
0.00096088
0.00015989
0.00058601
0.00022613
0.00016276
2.0213e-05
0.0029656
3.0355e-08
4.0483e-05
0.0028737
6.0213e-05
0.0027592
7.889e-05
0.0026089
9.6495e-05
0.0024024
0.00011239
0.0022024
0.00012576
0.0018846
0.0001383
0.0016306
0.00014782
0.0012849