/*--------------------------------*- C++ -*----------------------------------*\
  =========                 |
  \\      /  F ield         | OpenFOAM: The Open Source CFD Toolbox
   \\    /   O peration     | Website:  https://openfoam.org
    \\  /    A nd           | Version:  6.0
     \\/     M anipulation  |
\*---------------------------------------------------------------------------*/
FoamFile
{
    version     2.0;
    format      ascii;
    class       surfaceScalarField;
    location    "3";
    object      phi;
}
// * * * * * * * * * * * * * * * * * * * * * * * * * * * * * * * * * * * * * //

dimensions      [0 3 -1 0 0 0 0];

internalField   nonuniform List<scalar> 
33692
(
2.0052e-05
0.005201
3.0698e-10
4.0126e-05
0.0051116
5.964e-05
0.0049351
7.8187e-05
0.0046741
9.5417e-05
0.0043332
0.00011102
0.0039182
0.00012472
0.0034362
0.00013627
0.0028953
0.00014546
0.002305
0.00015181
0.0016755
0.00015717
0.0010154
0.00046506
3.4311e-05
2.0053e-05
0.0051809
8.7474e-10
4.0129e-05
0.0050916
5.9643e-05
0.0049155
7.8192e-05
0.0046556
9.5422e-05
0.004316
0.00011103
0.0039026
0.00012472
0.0034225
0.00013625
0.0028838
0.00014546
0.0022958
0.00015106
0.0016699
0.0001589
0.0010076
0.00055916
6.4801e-05
2.0053e-05
0.0051609
1.4413e-09
4.0131e-05
0.0050715
5.9647e-05
0.004896
7.8197e-05
0.004637
9.5427e-05
0.0042988
0.00011103
0.003887
0.00012471
0.0034088
0.00013623
0.0028723
0.00014547
0.0022865
0.00015031
0.0016651
0.00016016
0.00099772
0.00062942
8.9898e-05
2.0054e-05
0.0051408
2.021e-09
4.0133e-05
0.0050514
5.9651e-05
0.0048765
7.8202e-05
0.0046185
9.5432e-05
0.0042815
0.00011104
0.0038714
0.00012471
0.0033951
0.00013621
0.0028608
0.00014552
0.0022772
0.00014957
0.001661
0.00016089
0.0009864
0.00068023
0.00011008
2.0055e-05
0.0051208
2.6026e-09
4.0136e-05
0.0050313
5.9655e-05
0.004857
7.8206e-05
0.0045999
9.5438e-05
0.0042643
0.00011104
0.0038558
0.00012472
0.0033814
0.00013619
0.0028493
0.0001456
0.0022678
0.00014888
0.0016577
0.0001611
0.00097418
0.00071519
0.00012613
2.0056e-05
0.0051007
3.1862e-09
4.0138e-05
0.0050112
5.9658e-05
0.0048375
7.8211e-05
0.0045814
9.5443e-05
0.0042471
0.00011104
0.0038402
0.00012472
0.0033678
0.00013617
0.0028379
0.00014569
0.0022583
0.00014826
0.0016552
0.00016086
0.00096158
0.00073734
0.00013871
2.0057e-05
0.0050807
3.7717e-09
4.0141e-05
0.0049912
5.9662e-05
0.004818
7.8216e-05
0.0045628
9.5449e-05
0.0042298
0.00011105
0.0038246
0.00012472
0.0033541
0.00013614
0.0028264
0.00014581
0.0022486
0.00014772
0.0016533
0.00016025
0.00094904
0.00074923
0.00014837
2.0058e-05
0.0050606
4.3591e-09
4.0143e-05
0.0049711
5.9666e-05
0.0047984
7.8221e-05
0.0045443
9.5454e-05
0.0042126
0.00011105
0.003809
0.00012472
0.0033404
0.0001361
0.0028151
0.00014594
0.0022388
0.00014729
0.0016519
0.00015938
0.00093695
0.00075301
0.0001556
2.0059e-05
0.0050405
4.9484e-09
4.0145e-05
0.004951
5.967e-05
0.0047789
7.8226e-05
0.0045257
9.546e-05
0.0041954
0.00011106
0.0037934
0.00012473
0.0033268
0.00013607
0.0028037
0.00014608
0.0022288
0.00014696
0.001651
0.00015832
0.00092559
0.00075051
0.00016083
2.006e-05
0.0050205
5.5398e-09
4.0148e-05
0.0049309
5.9674e-05
0.0047594
7.823e-05
0.0045071
9.5465e-05
0.0041781
0.00011106
0.0037778
0.00012473
0.0033131
0.00013602
0.0027924
0.00014622
0.0022186
0.00014675
0.0016505
0.00015716
0.00091518
0.00074323
0.00016444
2.0061e-05
0.0050004
6.1331e-09
4.015e-05
0.0049108
5.9677e-05
0.0047399
7.8235e-05
0.0044886
9.5471e-05
0.0041609
0.00011107
0.0037622
0.00012474
0.0032994
0.00013598
0.0027812
0.00014636
0.0022082
0.00014664
0.0016502
0.00015596
0.00090585
0.00073243
0.00016676
2.0062e-05
0.0049803
6.7286e-09
4.0153e-05
0.0048907
5.9681e-05
0.0047203
7.824e-05
0.00447
9.5476e-05
0.0041437
0.00011107
0.0037466
0.00012475
0.0032857
0.00013593
0.00277
0.0001465
0.0021976
0.00014663
0.0016501
0.00015477
0.00089772
0.00071914
0.00016806
2.0063e-05
0.0049603
7.326e-09
4.0155e-05
0.0048706
5.9685e-05
0.0047008
7.8245e-05
0.0044515
9.5482e-05
0.0041264
0.00011108
0.003731
0.00012476
0.003272
0.00013587
0.0027589
0.00014664
0.0021868
0.00014672
0.00165
0.00015363
0.00089081
0.0007042
0.00016857
2.0064e-05
0.0049402
7.9256e-09
4.0157e-05
0.0048505
5.9689e-05
0.0046813
7.825e-05
0.0044329
9.5488e-05
0.0041092
0.00011108
0.0037154
0.00012477
0.0032584
0.00013582
0.0027479
0.00014676
0.0021759
0.0001469
0.0016499
0.00015258
0.00088513
0.00068828
0.0001685
2.0065e-05
0.0049201
8.5273e-09
4.016e-05
0.0048304
5.9693e-05
0.0046617
7.8255e-05
0.0044143
9.5494e-05
0.004092
0.00011108
0.0036998
0.00012478
0.0032447
0.00013576
0.0027369
0.00014688
0.0021648
0.00014716
0.0016496
0.00015165
0.00088064
0.00067192
0.00016801
2.0065e-05
0.0049
9.1311e-09
4.0162e-05
0.0048103
5.9697e-05
0.0046422
7.826e-05
0.0043958
9.55e-05
0.0040747
0.00011109
0.0036842
0.0001248
0.0032309
0.00013569
0.002726
0.00014697
0.0021535
0.00014748
0.0016491
0.00015084
0.00087727
0.00065554
0.00016722
2.0066e-05
0.00488
9.7371e-09
4.0164e-05
0.0047902
5.97e-05
0.0046227
7.8265e-05
0.0043772
9.5506e-05
0.0040575
0.00011109
0.0036687
0.00012482
0.0032172
0.00013563
0.0027152
0.00014706
0.0021421
0.00014785
0.0016483
0.00015017
0.00087496
0.00063946
0.00016625
2.0067e-05
0.0048599
1.0345e-08
4.0167e-05
0.0047701
5.9704e-05
0.0046031
7.827e-05
0.0043586
9.5512e-05
0.0040402
0.0001111
0.0036531
0.00012484
0.0032035
0.00013556
0.0027045
0.00014712
0.0021305
0.00014827
0.0016471
0.00014963
0.00087359
0.00062392
0.00016517
2.0068e-05
0.0048398
1.0956e-08
4.0169e-05
0.00475
5.9708e-05
0.0045836
7.8275e-05
0.0043401
9.5518e-05
0.004023
0.0001111
0.0036375
0.00012486
0.0031897
0.0001355
0.0026938
0.00014716
0.0021188
0.00014872
0.0016456
0.00014924
0.00087307
0.00060909
0.00016407
2.0069e-05
0.0048197
1.1568e-08
4.0172e-05
0.0047299
5.9712e-05
0.004564
7.828e-05
0.0043215
9.5524e-05
0.0040057
0.0001111
0.0036219
0.00012488
0.0031759
0.00013543
0.0026833
0.00014719
0.0021071
0.00014919
0.0016436
0.00014898
0.00087329
0.00059508
0.00016298
2.007e-05
0.0047996
1.2183e-08
4.0174e-05
0.0047098
5.9716e-05
0.0045445
7.8285e-05
0.0043029
9.553e-05
0.0039885
0.00011111
0.0036063
0.0001249
0.0031622
0.00013537
0.0026728
0.0001472
0.0020953
0.00014968
0.0016411
0.00014884
0.00087412
0.00058197
0.00016195
2.0071e-05
0.0047796
1.2801e-08
4.0176e-05
0.0046897
5.972e-05
0.004525
7.829e-05
0.0042844
9.5537e-05
0.0039712
0.00011111
0.0035908
0.00012493
0.0031483
0.00013531
0.0026624
0.00014718
0.0020834
0.00015016
0.0016381
0.00014882
0.00087547
0.00056978
0.00016101
2.0072e-05
0.0047595
1.342e-08
4.0179e-05
0.0046696
5.9724e-05
0.0045054
7.8295e-05
0.0042658
9.5543e-05
0.003954
0.00011111
0.0035752
0.00012496
0.0031345
0.00013525
0.0026521
0.00014715
0.0020715
0.00015065
0.0016346
0.0001489
0.00087722
0.00055851
0.00016016
2.0073e-05
0.0047394
1.4042e-08
4.0181e-05
0.0046495
5.9728e-05
0.0044859
7.83e-05
0.0042472
9.555e-05
0.0039368
0.00011112
0.0035596
0.00012499
0.0031206
0.00013519
0.0026419
0.0001471
0.0020596
0.00015112
0.0016306
0.00014907
0.00087927
0.00054815
0.00015943
2.0074e-05
0.0047193
1.4667e-08
4.0184e-05
0.0046294
5.9732e-05
0.0044663
7.8305e-05
0.0042287
9.5557e-05
0.0039195
0.00011112
0.0035441
0.00012502
0.0031067
0.00013514
0.0026318
0.00014703
0.0020477
0.00015157
0.0016261
0.00014932
0.00088152
0.00053865
0.00015881
2.0075e-05
0.0046992
1.5294e-08
4.0186e-05
0.0046093
5.9735e-05
0.0044468
7.831e-05
0.0042101
9.5563e-05
0.0039022
0.00011112
0.0035285
0.00012505
0.0030928
0.00013509
0.0026218
0.00014694
0.0020358
0.000152
0.001621
0.00014964
0.00088388
0.00052998
0.00015831
2.0075e-05
0.0046791
1.5923e-08
4.0188e-05
0.0045892
5.9739e-05
0.0044272
7.8315e-05
0.0041915
9.557e-05
0.003885
0.00011112
0.003513
0.00012509
0.0030788
0.00013505
0.0026118
0.00014684
0.002024
0.0001524
0.0016155
0.00015001
0.00088628
0.00052206
0.00015793
2.0076e-05
0.004659
1.6555e-08
4.0191e-05
0.0045691
5.9743e-05
0.0044077
7.832e-05
0.0041729
9.5577e-05
0.0038677
0.00011112
0.0034974
0.00012512
0.0030648
0.00013501
0.0026019
0.00014673
0.0020123
0.00015277
0.0016094
0.00015042
0.00088863
0.00051484
0.00015764
2.0077e-05
0.0046389
1.7189e-08
4.0193e-05
0.004549
5.9747e-05
0.0043881
7.8325e-05
0.0041544
9.5585e-05
0.0038505
0.00011112
0.0034819
0.00012516
0.0030508
0.00013498
0.0025921
0.0001466
0.0020007
0.00015311
0.0016029
0.00015086
0.00089088
0.00050824
0.00015745
2.0078e-05
0.0046188
1.7826e-08
4.0196e-05
0.0045288
5.9751e-05
0.0043686
7.833e-05
0.0041358
9.5592e-05
0.0038332
0.00011112
0.0034663
0.0001252
0.0030367
0.00013496
0.0025823
0.00014646
0.0019892
0.00015342
0.0015959
0.00015133
0.00089297
0.00050222
0.00015735
2.0079e-05
0.0045987
1.8465e-08
4.0198e-05
0.0045087
5.9755e-05
0.004349
7.8335e-05
0.0041172
9.56e-05
0.0038159
0.00011112
0.0034508
0.00012523
0.0030226
0.00013494
0.0025726
0.00014631
0.0019778
0.00015369
0.0015886
0.0001518
0.00089486
0.00049669
0.00015733
2.008e-05
0.0045786
1.9107e-08
4.0201e-05
0.0044886
5.9759e-05
0.0043294
7.8341e-05
0.0040986
9.5607e-05
0.0037987
0.00011112
0.0034353
0.00012527
0.0030084
0.00013493
0.002563
0.00014616
0.0019666
0.00015392
0.0015808
0.00015228
0.00089649
0.0004916
0.00015737
2.0081e-05
0.0045585
1.9752e-08
4.0203e-05
0.0044685
5.9763e-05
0.0043099
7.8346e-05
0.00408
9.5615e-05
0.0037814
0.00011112
0.0034198
0.00012531
0.0029943
0.00013493
0.0025533
0.000146
0.0019555
0.00015411
0.0015727
0.00015276
0.00089784
0.0004869
0.00015747
2.0082e-05
0.0045384
2.04e-08
4.0205e-05
0.0044484
5.9767e-05
0.0042903
7.8351e-05
0.0040614
9.5623e-05
0.0037641
0.00011112
0.0034043
0.00012535
0.00298
0.00013494
0.0025437
0.00014584
0.0019446
0.00015427
0.0015643
0.00015323
0.00089889
0.00048251
0.00015761
2.0083e-05
0.0045183
2.105e-08
4.0208e-05
0.0044282
5.9771e-05
0.0042708
7.8356e-05
0.0040429
9.5631e-05
0.0037469
0.00011112
0.0033888
0.00012538
0.0029658
0.00013496
0.0025342
0.00014567
0.0019339
0.0001544
0.0015555
0.00015368
0.00089961
0.0004784
0.00015779
2.0084e-05
0.0044982
2.1703e-08
4.021e-05
0.0044081
5.9775e-05
0.0042512
7.8361e-05
0.0040243
9.564e-05
0.0037296
0.00011112
0.0033733
0.00012542
0.0029515
0.00013498
0.0025246
0.00014551
0.0019234
0.00015449
0.0015466
0.00015411
0.0009
0.00047451
0.00015799
2.0085e-05
0.0044781
2.2358e-08
4.0213e-05
0.004388
5.9779e-05
0.0042316
7.8367e-05
0.0040057
9.5649e-05
0.0037123
0.00011111
0.0033579
0.00012546
0.0029371
0.00013501
0.002515
0.00014535
0.0019131
0.00015455
0.0015374
0.00015451
0.00090003
0.0004708
0.00015822
2.0085e-05
0.004458
2.3017e-08
4.0215e-05
0.0043678
5.9783e-05
0.0042121
7.8372e-05
0.0039871
9.5657e-05
0.003695
0.00011111
0.0033424
0.00012549
0.0029227
0.00013505
0.0025055
0.00014519
0.0019029
0.00015458
0.001528
0.00015489
0.00089972
0.00046724
0.00015845
2.0086e-05
0.0044379
2.3678e-08
4.0218e-05
0.0043477
5.9787e-05
0.0041925
7.8377e-05
0.0039685
9.5666e-05
0.0036777
0.00011111
0.003327
0.00012553
0.0029083
0.0001351
0.0024959
0.00014504
0.001893
0.00015458
0.0015184
0.00015525
0.00089906
0.00046379
0.0001587
2.0087e-05
0.0044178
2.4342e-08
4.022e-05
0.0043276
5.9792e-05
0.0041729
7.8383e-05
0.0039499
9.5676e-05
0.0036604
0.00011111
0.0033115
0.00012556
0.0028939
0.00013516
0.0024863
0.00014489
0.0018833
0.00015456
0.0015087
0.00015557
0.00089805
0.00046042
0.00015894
2.0088e-05
0.0043977
2.5009e-08
4.0223e-05
0.0043074
5.9796e-05
0.0041533
7.8388e-05
0.0039313
9.5685e-05
0.0036431
0.0001111
0.0032961
0.00012559
0.0028794
0.00013522
0.0024767
0.00014475
0.0018737
0.00015452
0.001499
0.00015586
0.0008967
0.00045711
0.00015918
2.0089e-05
0.0043776
2.568e-08
4.0225e-05
0.0042873
5.98e-05
0.0041338
7.8393e-05
0.0039127
9.5695e-05
0.0036258
0.0001111
0.0032807
0.00012562
0.0028649
0.0001353
0.002467
0.00014462
0.0018644
0.00015445
0.0014891
0.00015613
0.00089503
0.00045383
0.00015941
2.009e-05
0.0043574
2.6353e-08
4.0228e-05
0.0042672
5.9804e-05
0.0041142
7.8399e-05
0.0038941
9.5705e-05
0.0036085
0.0001111
0.0032653
0.00012564
0.0028503
0.00013537
0.0024573
0.0001445
0.0018553
0.00015437
0.0014793
0.00015636
0.00089304
0.00045057
0.00015963
2.0091e-05
0.0043373
2.7029e-08
4.023e-05
0.004247
5.9808e-05
0.0040946
7.8404e-05
0.0038755
9.5715e-05
0.0035912
0.0001111
0.0032499
0.00012567
0.0028358
0.00013546
0.0024475
0.0001444
0.0018463
0.00015428
0.0014694
0.00015657
0.00089075
0.0004473
0.00015983
2.0092e-05
0.0043172
2.7708e-08
4.0233e-05
0.0042269
5.9812e-05
0.004075
7.8409e-05
0.0038569
9.5725e-05
0.0035739
0.00011109
0.0032346
0.00012569
0.0028212
0.00013555
0.0024376
0.0001443
0.0018376
0.00015417
0.0014595
0.00015675
0.00088818
0.00044403
0.00016003
2.0093e-05
0.0042971
2.839e-08
4.0235e-05
0.0042067
5.9817e-05
0.0040555
7.8415e-05
0.0038383
9.5736e-05
0.0035566
0.00011109
0.0032192
0.00012571
0.0028065
0.00013564
0.0024277
0.00014422
0.001829
0.00015406
0.0014497
0.0001569
0.00088533
0.00044073
0.0001602
2.0094e-05
0.004277
2.9076e-08
4.0238e-05
0.0041866
5.9821e-05
0.0040359
7.842e-05
0.0038197
9.5746e-05
0.0035393
0.00011109
0.0032039
0.00012573
0.0027919
0.00013574
0.0024177
0.00014414
0.0018206
0.00015394
0.0014399
0.00015703
0.00088224
0.0004374
0.00016037
2.0095e-05
0.0042568
2.9764e-08
4.0241e-05
0.0041665
5.9825e-05
0.0040163
7.8426e-05
0.0038011
9.5757e-05
0.0035219
0.00011109
0.0031885
0.00012574
0.0027772
0.00013584
0.0024076
0.00014409
0.0018124
0.00015381
0.0014301
0.00015714
0.00087891
0.00043403
0.00016051
2.0096e-05
0.0042367
3.0456e-08
4.0243e-05
0.0041463
5.9829e-05
0.0039967
7.8431e-05
0.0037825
9.5768e-05
0.0035046
0.00011109
0.0031732
0.00012576
0.0027626
0.00013595
0.0023974
0.00014404
0.0018043
0.00015369
0.0014205
0.00015723
0.00087536
0.00043062
0.00016064
2.0096e-05
0.0042166
3.1152e-08
4.0246e-05
0.0041262
5.9834e-05
0.0039771
7.8437e-05
0.0037639
9.5779e-05
0.0034872
0.00011108
0.0031579
0.00012576
0.0027479
0.00013605
0.0023871
0.00014401
0.0017963
0.00015356
0.0014109
0.0001573
0.00087162
0.00042717
0.00016076
2.0097e-05
0.0041965
3.185e-08
4.0248e-05
0.004106
5.9838e-05
0.0039575
7.8442e-05
0.0037453
9.5791e-05
0.0034699
0.00011108
0.0031426
0.00012577
0.0027332
0.00013616
0.0023767
0.00014399
0.0017885
0.00015344
0.0014015
0.00015736
0.0008677
0.00042367
0.00016086
2.0098e-05
0.0041763
3.2552e-08
4.0251e-05
0.0040859
5.9842e-05
0.0039379
7.8448e-05
0.0037267
9.5802e-05
0.0034525
0.00011108
0.0031274
0.00012577
0.0027185
0.00013627
0.0023662
0.00014399
0.0017808
0.00015332
0.0013922
0.0001574
0.00086361
0.00042012
0.00016095
2.0099e-05
0.0041562
3.3257e-08
4.0254e-05
0.0040657
5.9847e-05
0.0039183
7.8453e-05
0.0037081
9.5814e-05
0.0034352
0.00011109
0.0031121
0.00012578
0.0027038
0.00013638
0.0023556
0.00014399
0.0017731
0.0001532
0.001383
0.00015743
0.00085938
0.00041654
0.00016102
2.01e-05
0.0041361
3.3966e-08
4.0256e-05
0.0040455
5.9851e-05
0.0038987
7.8459e-05
0.0036895
9.5826e-05
0.0034178
0.00011109
0.0030968
0.00012577
0.0026891
0.00013649
0.0023449
0.00014401
0.0017656
0.00015309
0.0013739
0.00015746
0.00085502
0.0004129
0.00016109
2.0101e-05
0.0041159
3.4678e-08
4.0259e-05
0.0040254
5.9855e-05
0.0038791
7.8464e-05
0.0036709
9.5838e-05
0.0034004
0.00011109
0.0030816
0.00012577
0.0026745
0.0001366
0.0023341
0.00014404
0.0017582
0.00015299
0.0013649
0.00015747
0.00085054
0.00040923
0.00016114
2.0102e-05
0.0040958
3.5394e-08
4.0261e-05
0.0040052
5.986e-05
0.0038595
7.847e-05
0.0036523
9.585e-05
0.0033831
0.00011109
0.0030663
0.00012576
0.0026598
0.0001367
0.0023231
0.00014408
0.0017508
0.0001529
0.0013561
0.00015748
0.00084596
0.00040552
0.00016119
2.0103e-05
0.0040756
3.6114e-08
4.0264e-05
0.0039851
5.9864e-05
0.0038399
7.8475e-05
0.0036337
9.5862e-05
0.0033657
0.0001111
0.0030511
0.00012576
0.0026451
0.0001368
0.0023121
0.00014413
0.0017435
0.00015282
0.0013474
0.00015748
0.0008413
0.00040177
0.00016123
2.0104e-05
0.0040555
3.6837e-08
4.0267e-05
0.0039649
5.9869e-05
0.0038203
7.8481e-05
0.0036151
9.5875e-05
0.0033483
0.0001111
0.0030359
0.00012575
0.0026305
0.00013691
0.0023009
0.00014419
0.0017362
0.00015274
0.0013389
0.00015748
0.00083656
0.000398
0.00016126
2.0105e-05
0.0040354
3.7564e-08
4.027e-05
0.0039447
5.9873e-05
0.0038007
7.8487e-05
0.0035965
9.5887e-05
0.0033309
0.00011111
0.0030206
0.00012573
0.0026159
0.000137
0.0022897
0.00014426
0.0017289
0.00015268
0.0013305
0.00015748
0.00083175
0.0003942
0.00016129
2.0106e-05
0.0040152
3.8294e-08
4.0272e-05
0.0039246
5.9878e-05
0.0037811
7.8492e-05
0.0035779
9.5899e-05
0.0033135
0.00011112
0.0030054
0.00012572
0.0026012
0.0001371
0.0022783
0.00014434
0.0017217
0.00015263
0.0013222
0.00015748
0.0008269
0.00039037
0.00016131
2.0107e-05
0.0039951
3.9029e-08
4.0275e-05
0.0039044
5.9883e-05
0.0037615
7.8498e-05
0.0035592
9.5912e-05
0.0032961
0.00011112
0.0029902
0.0001257
0.0025867
0.00013719
0.0022668
0.00014442
0.0017144
0.00015258
0.001314
0.00015748
0.000822
0.00038652
0.00016133
2.0108e-05
0.0039749
3.9767e-08
4.0278e-05
0.0038842
5.9887e-05
0.0037419
7.8504e-05
0.0035406
9.5924e-05
0.0032786
0.00011113
0.002975
0.00012569
0.0025721
0.00013727
0.0022552
0.00014451
0.0017072
0.00015255
0.001306
0.00015749
0.00081706
0.00038266
0.00016135
2.0109e-05
0.0039548
4.0509e-08
4.0281e-05
0.0038641
5.9892e-05
0.0037223
7.8509e-05
0.003522
9.5937e-05
0.0032612
0.00011115
0.0029598
0.00012567
0.0025576
0.00013735
0.0022435
0.0001446
0.0017
0.00015253
0.001298
0.00015749
0.0008121
0.00037879
0.00016136
2.011e-05
0.0039346
4.1255e-08
4.0283e-05
0.0038439
5.9897e-05
0.0037027
7.8515e-05
0.0035034
9.5949e-05
0.0032438
0.00011116
0.0029446
0.00012565
0.0025431
0.00013743
0.0022318
0.0001447
0.0016927
0.00015252
0.0012902
0.0001575
0.00080712
0.00037492
0.00016137
2.0111e-05
0.0039145
4.2005e-08
4.0286e-05
0.0038237
5.9901e-05
0.0036831
7.8521e-05
0.0034848
9.5962e-05
0.0032263
0.00011117
0.0029294
0.00012563
0.0025286
0.0001375
0.0022199
0.0001448
0.0016854
0.00015251
0.0012825
0.00015751
0.00080212
0.00037104
0.00016139
2.0112e-05
0.0038943
4.276e-08
4.0289e-05
0.0038035
5.9906e-05
0.0036635
7.8527e-05
0.0034661
9.5974e-05
0.0032089
0.00011118
0.0029142
0.00012561
0.0025142
0.00013757
0.0022079
0.0001449
0.0016781
0.00015252
0.0012749
0.00015752
0.00079712
0.00036716
0.0001614
2.0113e-05
0.0038742
4.3518e-08
4.0292e-05
0.0037834
5.9911e-05
0.0036438
7.8533e-05
0.0034475
9.5986e-05
0.0031914
0.0001112
0.002899
0.00012559
0.0024998
0.00013763
0.0021959
0.000145
0.0016707
0.00015253
0.0012674
0.00015754
0.00079211
0.00036329
0.00016141
2.0114e-05
0.003854
4.4281e-08
4.0295e-05
0.0037632
5.9916e-05
0.0036242
7.8539e-05
0.0034289
9.5999e-05
0.003174
0.00011121
0.0028837
0.00012557
0.0024855
0.00013769
0.0021838
0.00014511
0.0016633
0.00015255
0.0012599
0.00015756
0.0007871
0.00035942
0.00016143
2.0115e-05
0.0038338
4.5048e-08
4.0298e-05
0.003743
5.9921e-05
0.0036046
7.8545e-05
0.0034103
9.6011e-05
0.0031565
0.00011123
0.0028685
0.00012555
0.0024712
0.00013774
0.0021716
0.00014521
0.0016558
0.00015258
0.0012525
0.00015759
0.0007821
0.00035556
0.00016144
2.0116e-05
0.0038137
4.5819e-08
4.03e-05
0.0037228
5.9925e-05
0.003585
7.8551e-05
0.0033916
9.6023e-05
0.003139
0.00011125
0.0028533
0.00012553
0.0024569
0.00013779
0.0021593
0.00014531
0.0016483
0.00015261
0.0012452
0.00015761
0.0007771
0.00035172
0.00016146
2.0117e-05
0.0037935
4.6595e-08
4.0303e-05
0.0037026
5.993e-05
0.0035653
7.8557e-05
0.003373
9.6035e-05
0.0031216
0.00011127
0.0028381
0.00012551
0.0024426
0.00013783
0.002147
0.00014542
0.0016407
0.00015266
0.001238
0.00015765
0.0007721
0.0003479
0.00016147
2.0118e-05
0.0037734
4.7375e-08
4.0306e-05
0.0036824
5.9935e-05
0.0035457
7.8563e-05
0.0033544
9.6047e-05
0.0031041
0.00011129
0.0028228
0.00012549
0.0024284
0.00013787
0.0021346
0.00014552
0.001633
0.0001527
0.0012308
0.00015768
0.00076712
0.00034409
0.00016149
2.0119e-05
0.0037532
4.816e-08
4.0309e-05
0.0036622
5.994e-05
0.0035261
7.8569e-05
0.0033358
9.6059e-05
0.0030866
0.00011131
0.0028076
0.00012547
0.0024143
0.0001379
0.0021222
0.00014562
0.0016253
0.00015275
0.0012237
0.00015772
0.00076215
0.0003403
0.00016151
2.012e-05
0.003733
4.895e-08
4.0312e-05
0.003642
5.9945e-05
0.0035065
7.8576e-05
0.0033171
9.6071e-05
0.0030691
0.00011133
0.0027923
0.00012545
0.0024002
0.00013793
0.0021097
0.00014571
0.0016175
0.0001528
0.0012166
0.00015777
0.00075719
0.00033654
0.00016153
2.0121e-05
0.0037128
4.9744e-08
4.0315e-05
0.0036219
5.9951e-05
0.0034868
7.8582e-05
0.0032985
9.6083e-05
0.0030516
0.00011135
0.002777
0.00012544
0.0023861
0.00013796
0.0020972
0.00014581
0.0016097
0.00015286
0.0012095
0.00015781
0.00075224
0.0003328
0.00016155
2.0122e-05
0.0036927
5.0543e-08
4.0318e-05
0.0036017
5.9956e-05
0.0034672
7.8589e-05
0.0032799
9.6094e-05
0.0030341
0.00011138
0.0027618
0.00012542
0.002372
0.00013799
0.0020846
0.0001459
0.0016018
0.00015292
0.0012025
0.00015786
0.0007473
0.00032909
0.00016157
2.0123e-05
0.0036725
5.1347e-08
4.0321e-05
0.0035815
5.9961e-05
0.0034475
7.8595e-05
0.0032612
9.6106e-05
0.0030166
0.0001114
0.0027465
0.00012541
0.002358
0.00013801
0.002072
0.00014599
0.0015938
0.00015298
0.0011955
0.00015791
0.00074238
0.0003254
0.00016159
2.0124e-05
0.0036523
5.2155e-08
4.0324e-05
0.0035613
5.9966e-05
0.0034279
7.8602e-05
0.0032426
9.6118e-05
0.0029991
0.00011142
0.0027312
0.0001254
0.002344
0.00013803
0.0020594
0.00014608
0.0015857
0.00015305
0.0011886
0.00015796
0.00073747
0.00032174
0.00016162
2.0125e-05
0.0036321
5.2969e-08
4.0328e-05
0.0035411
5.9971e-05
0.0034083
7.8608e-05
0.003224
9.6129e-05
0.0029815
0.00011145
0.0027158
0.00012539
0.0023301
0.00013804
0.0020467
0.00014616
0.0015776
0.00015312
0.0011816
0.00015801
0.00073257
0.00031811
0.00016164
2.0126e-05
0.003612
5.3788e-08
4.0331e-05
0.0035209
5.9977e-05
0.0033886
7.8615e-05
0.0032053
9.614e-05
0.002964
0.00011147
0.0027005
0.00012538
0.0023162
0.00013806
0.002034
0.00014624
0.0015694
0.00015318
0.0011747
0.00015807
0.00072768
0.00031452
0.00016167
2.0127e-05
0.0035918
5.4612e-08
4.0334e-05
0.0035006
5.9982e-05
0.003369
7.8622e-05
0.0031867
9.6151e-05
0.0029465
0.0001115
0.0026852
0.00012537
0.0023023
0.00013807
0.0020213
0.00014632
0.0015612
0.00015325
0.0011677
0.00015813
0.00072281
0.00031095
0.0001617
2.0128e-05
0.0035716
5.5441e-08
4.0337e-05
0.0034804
5.9987e-05
0.0033493
7.8628e-05
0.003168
9.6163e-05
0.0029289
0.00011152
0.0026698
0.00012536
0.0022885
0.00013808
0.0020086
0.0001464
0.0015529
0.00015332
0.0011608
0.00015818
0.00071794
0.00030741
0.00016172
2.0129e-05
0.0035514
5.6276e-08
4.034e-05
0.0034602
5.9993e-05
0.0033297
7.8635e-05
0.0031494
9.6174e-05
0.0029114
0.00011155
0.0026544
0.00012536
0.0022747
0.00013809
0.0019959
0.00014647
0.0015445
0.00015339
0.0011539
0.00015824
0.00071309
0.0003039
0.00016175
2.0131e-05
0.0035312
5.7116e-08
4.0343e-05
0.00344
5.9998e-05
0.00331
7.8642e-05
0.0031308
9.6185e-05
0.0028939
0.00011158
0.002639
0.00012535
0.0022609
0.0001381
0.0019831
0.00014654
0.001536
0.00015346
0.001147
0.0001583
0.00070824
0.00030042
0.00016178
2.0132e-05
0.003511
5.7962e-08
4.0347e-05
0.0034198
6.0004e-05
0.0032903
7.8649e-05
0.0031121
9.6196e-05
0.0028763
0.0001116
0.0026236
0.00012535
0.0022472
0.0001381
0.0019704
0.00014661
0.0015275
0.00015353
0.0011401
0.00015836
0.00070341
0.00029698
0.00016181
2.0133e-05
0.0034908
5.8813e-08
4.035e-05
0.0033996
6.001e-05
0.0032707
7.8656e-05
0.0030935
9.6207e-05
0.0028588
0.00011163
0.0026082
0.00012535
0.0022334
0.00013811
0.0019576
0.00014667
0.001519
0.0001536
0.0011331
0.00015842
0.00069858
0.00029356
0.00016184
2.0134e-05
0.0034706
5.967e-08
4.0353e-05
0.0033794
6.0015e-05
0.003251
7.8664e-05
0.0030748
9.6218e-05
0.0028412
0.00011166
0.0025928
0.00012535
0.0022198
0.00013811
0.0019449
0.00014673
0.0015103
0.00015366
0.0011262
0.00015848
0.00069376
0.00029018
0.00016187
2.0135e-05
0.0034505
6.0533e-08
4.0356e-05
0.0033591
6.0021e-05
0.0032314
7.8671e-05
0.0030562
9.6229e-05
0.0028237
0.00011169
0.0025773
0.00012535
0.0022061
0.00013812
0.0019321
0.00014679
0.0015017
0.00015373
0.0011193
0.00015854
0.00068895
0.00028682
0.0001619
2.0136e-05
0.0034303
6.1402e-08
4.036e-05
0.0033389
6.0027e-05
0.0032117
7.8678e-05
0.0030375
9.6239e-05
0.0028061
0.00011171
0.0025618
0.00012536
0.0021924
0.00013812
0.0019193
0.00014685
0.0014929
0.0001538
0.0011123
0.0001586
0.00068414
0.0002835
0.00016193
2.0137e-05
0.0034101
6.2277e-08
4.0363e-05
0.0033187
6.0033e-05
0.003192
7.8686e-05
0.0030189
9.625e-05
0.0027885
0.00011174
0.0025463
0.00012536
0.0021788
0.00013813
0.0019066
0.00014691
0.0014842
0.00015386
0.0011054
0.00015866
0.00067935
0.00028021
0.00016196
2.0139e-05
0.0033899
6.3158e-08
4.0367e-05
0.0032985
6.0039e-05
0.0031724
7.8693e-05
0.0030002
9.6261e-05
0.002771
0.00011177
0.0025308
0.00012537
0.0021652
0.00013813
0.0018938
0.00014696
0.0014753
0.00015393
0.0010984
0.00015872
0.00067455
0.00027695
0.00016199
2.014e-05
0.0033697
6.4045e-08
4.037e-05
0.0032782
6.0044e-05
0.0031527
7.87e-05
0.0029816
9.6272e-05
0.0027534
0.0001118
0.0025153
0.00012538
0.0021517
0.00013814
0.0018811
0.00014701
0.0014665
0.000154
0.0010914
0.00015878
0.00066976
0.00027371
0.00016202
2.0141e-05
0.0033494
6.4939e-08
4.0373e-05
0.003258
6.0051e-05
0.003133
7.8708e-05
0.0029629
9.6283e-05
0.0027358
0.00011183
0.0024997
0.00012539
0.0021381
0.00013814
0.0018683
0.00014706
0.0014575
0.00015406
0.0010844
0.00015884
0.00066498
0.00027051
0.00016205
2.0142e-05
0.0033292
6.5839e-08
4.0377e-05
0.0032378
6.0057e-05
0.0031133
7.8716e-05
0.0029442
9.6293e-05
0.0027182
0.00011186
0.0024842
0.0001254
0.0021246
0.00013814
0.0018556
0.00014711
0.0014486
0.00015412
0.0010774
0.0001589
0.00066019
0.00026733
0.00016208
2.0143e-05
0.003309
6.6746e-08
4.038e-05
0.0032175
6.0063e-05
0.0030936
7.8723e-05
0.0029256
9.6304e-05
0.0027007
0.00011189
0.0024686
0.00012541
0.002111
0.00013815
0.0018428
0.00014716
0.0014396
0.00015418
0.0010704
0.00015896
0.00065542
0.00026419
0.00016211
2.0145e-05
0.0032888
6.7659e-08
4.0384e-05
0.0031973
6.0069e-05
0.003074
7.8731e-05
0.0029069
9.6315e-05
0.0026831
0.00011191
0.002453
0.00012542
0.0020975
0.00013815
0.0018301
0.0001472
0.0014305
0.00015425
0.0010633
0.00015902
0.00065064
0.00026107
0.00016214
2.0146e-05
0.0032686
6.858e-08
4.0387e-05
0.003177
6.0075e-05
0.0030543
7.8739e-05
0.0028882
9.6326e-05
0.0026655
0.00011194
0.0024374
0.00012543
0.002084
0.00013816
0.0018174
0.00014725
0.0014214
0.00015431
0.0010563
0.00015908
0.00064587
0.00025797
0.00016217
2.0147e-05
0.0032484
6.9507e-08
4.0391e-05
0.0031568
6.0082e-05
0.0030346
7.8747e-05
0.0028696
9.6336e-05
0.0026479
0.00011197
0.0024218
0.00012545
0.0020706
0.00013816
0.0018046
0.00014729
0.0014123
0.00015437
0.0010492
0.00015914
0.0006411
0.00025491
0.0001622
2.0148e-05
0.0032282
7.0442e-08
4.0395e-05
0.0031366
6.0088e-05
0.0030149
7.8755e-05
0.0028509
9.6347e-05
0.0026303
0.000112
0.0024061
0.00012547
0.0020571
0.00013817
0.0017919
0.00014734
0.0014031
0.00015443
0.0010421
0.0001592
0.00063633
0.00025187
0.00016223
2.015e-05
0.0032079
7.1383e-08
4.0398e-05
0.0031163
6.0095e-05
0.0029952
7.8763e-05
0.0028323
9.6358e-05
0.0026127
0.00011203
0.0023904
0.00012548
0.0020436
0.00013818
0.0017792
0.00014738
0.0013939
0.00015449
0.001035
0.00015925
0.00063156
0.00024885
0.00016227
2.0151e-05
0.0031877
7.2333e-08
4.0402e-05
0.0030961
6.0102e-05
0.0029755
7.8771e-05
0.0028136
9.6368e-05
0.0025951
0.00011206
0.0023747
0.0001255
0.0020302
0.00013818
0.0017666
0.00014742
0.0013847
0.00015454
0.0010279
0.00015931
0.0006268
0.00024586
0.0001623
2.0152e-05
0.0031675
7.3289e-08
4.0406e-05
0.0030758
6.0108e-05
0.0029558
7.8779e-05
0.0027949
9.6379e-05
0.0025775
0.00011209
0.002359
0.00012552
0.0020168
0.00013819
0.0017539
0.00014746
0.0013754
0.0001546
0.0010208
0.00015936
0.00062203
0.0002429
0.00016233
2.0154e-05
0.0031473
7.4254e-08
4.0409e-05
0.0030556
6.0115e-05
0.0029361
7.8787e-05
0.0027762
9.639e-05
0.0025599
0.00011212
0.0023433
0.00012554
0.0020033
0.0001382
0.0017412
0.0001475
0.0013661
0.00015466
0.0010136
0.00015942
0.00061727
0.00023996
0.00016236
2.0155e-05
0.003127
7.5226e-08
4.0413e-05
0.0030353
6.0122e-05
0.0029164
7.8796e-05
0.0027576
9.64e-05
0.0025423
0.00011215
0.0023276
0.00012556
0.0019899
0.00013821
0.0017286
0.00014754
0.0013568
0.00015471
0.0010064
0.00015948
0.00061251
0.00023704
0.00016239
2.0156e-05
0.0031068
7.6206e-08
4.0417e-05
0.003015
6.0129e-05
0.0028967
7.8804e-05
0.0027389
9.6411e-05
0.0025247
0.00011218
0.0023118
0.00012558
0.0019765
0.00013822
0.0017159
0.00014758
0.0013474
0.00015477
0.00099924
0.00015953
0.00060774
0.00023415
0.00016242
2.0158e-05
0.0030866
7.7195e-08
4.0421e-05
0.0029948
6.0136e-05
0.0028769
7.8813e-05
0.0027202
9.6421e-05
0.0025071
0.00011221
0.002296
0.00012561
0.0019631
0.00013823
0.0017033
0.00014762
0.001338
0.00015482
0.00099203
0.00015958
0.00060298
0.00023128
0.00016246
2.0159e-05
0.0030663
7.8192e-08
4.0424e-05
0.0029745
6.0144e-05
0.0028572
7.8821e-05
0.0027015
9.6431e-05
0.0024895
0.00011224
0.0022802
0.00012563
0.0019497
0.00013824
0.0016907
0.00014765
0.0013286
0.00015488
0.00098481
0.00015964
0.00059822
0.00022843
0.00016249
2.016e-05
0.0030461
7.9197e-08
4.0428e-05
0.0029542
6.0151e-05
0.0028375
7.883e-05
0.0026829
9.6442e-05
0.0024719
0.00011227
0.0022644
0.00012566
0.0019363
0.00013826
0.0016781
0.00014769
0.0013192
0.00015493
0.00097757
0.00015969
0.00059345
0.00022561
0.00016252
2.0162e-05
0.0030259
8.0211e-08
4.0432e-05
0.002934
6.0158e-05
0.0028178
7.8839e-05
0.0026642
9.6452e-05
0.0024543
0.00011229
0.0022485
0.00012568
0.0019229
0.00013827
0.0016655
0.00014773
0.0013097
0.00015498
0.00097032
0.00015975
0.00058869
0.0002228
0.00016255
2.0163e-05
0.0030056
8.1234e-08
4.0436e-05
0.0029137
6.0166e-05
0.002798
7.8848e-05
0.0026455
9.6462e-05
0.0024366
0.00011232
0.0022327
0.00012571
0.0019096
0.00013828
0.001653
0.00014777
0.0013003
0.00015503
0.00096305
0.0001598
0.00058392
0.00022001
0.00016258
2.0165e-05
0.0029854
8.2266e-08
4.044e-05
0.0028934
6.0174e-05
0.0027783
7.8857e-05
0.0026268
9.6472e-05
0.002419
0.00011235
0.0022168
0.00012574
0.0018962
0.0001383
0.0016404
0.0001478
0.0012907
0.00015509
0.00095577
0.00015985
0.00057916
0.00021725
0.00016262
2.0166e-05
0.0029651
8.3308e-08
4.0444e-05
0.0028731
6.0181e-05
0.0027586
7.8866e-05
0.0026081
9.6482e-05
0.0024014
0.00011238
0.0022009
0.00012577
0.0018828
0.00013831
0.0016278
0.00014784
0.0012812
0.00015514
0.00094848