/*--------------------------------*- C++ -*----------------------------------*\
  =========                 |
  \\      /  F ield         | OpenFOAM: The Open Source CFD Toolbox
   \\    /   O peration     | Website:  https://openfoam.org
    \\  /    A nd           | Version:  6.0
     \\/     M anipulation  |
\*---------------------------------------------------------------------------*/
FoamFile
{
    version     2.0;
    format      ascii;
    class       volVectorField;
    location    "3";
    object      U;
}
// * * * * * * * * * * * * * * * * * * * * * * * * * * * * * * * * * * * * * //

dimensions      [0 1 -1 0 0 0 0];

internalField   nonuniform List<vector> 
17000
(
(1 -2.8341e-07 -4.3536e-18)
(1 -6.3428e-06 2.9397e-18)
(1 -1.0312e-05 -1.2612e-17)
(1 -1.4687e-05 -8.6934e-18)
(1 -1.4952e-05 1.6303e-17)
(1 -1.5254e-05 3.0173e-17)
(1 -6.8171e-06 2.5754e-17)
(0.99999 7.0256e-06 -4.1294e-18)
(0.99993 3.2668e-05 1.5065e-17)
(0.99982 6.8626e-05 3.2061e-18)
(0.99572 0.00075565 2.8118e-17)
(1.019 0.010848 7.6483e-18)
(1 -1.0202e-06 2.6972e-18)
(1 -1.7879e-05 -8.9278e-18)
(1 -2.8864e-05 6.023e-18)
(1 -4.1497e-05 -3.4285e-19)
(1 -4.0538e-05 -4.3479e-19)
(1 -4.1897e-05 -3.6281e-17)
(1 -1.4458e-05 -4.4481e-17)
(0.99997 2.4977e-05 -2.3628e-17)
(0.99977 0.0001114 -1.5035e-17)
(0.99988 0.0001668 -1.5855e-18)
(0.98618 0.00219 -1.3315e-17)
(1.0534 0.030676 -4.6308e-18)
(1 -1.8155e-06 -3.4837e-18)
(1 -2.9502e-05 1.7738e-17)
(1 -4.7666e-05 3.1328e-18)
(1 -6.872e-05 1.0023e-17)
(1 -6.6498e-05 -3.7594e-18)
(1.0001 -6.936e-05 2.9062e-17)
(1 -2.205e-05 -6.2613e-18)
(0.99995 4.1606e-05 5.367e-18)
(0.99959 0.00019841 -1.824e-17)
(1.0004 0.00027988 2.4087e-17)
(0.97599 0.0032745 -6.9602e-18)
(1.0819 0.045253 1.6222e-18)
(1 -2.6102e-06 9.1072e-18)
(1 -4.1399e-05 -1.7197e-17)
(1 -6.6969e-05 -1.485e-17)
(1 -9.6608e-05 -7.0322e-19)
(1.0001 -9.3317e-05 5.8035e-18)
(1.0001 -9.7769e-05 -8.0652e-19)
(1 -3.0231e-05 6.1691e-17)
(0.99994 5.6665e-05 9.6698e-18)
(0.99937 0.00029256 2.1568e-17)
(1.0014 0.00041235 -8.7247e-18)
(0.96553 0.004035 3.3887e-17)
(1.1031 0.055846 -7.3833e-18)
(1 -3.4151e-06 -6.3992e-18)
(1 -5.3338e-05 1.4863e-17)
(1 -8.6361e-05 1.2641e-17)
(1.0001 -0.0001246 1.2828e-17)
(1.0001 -0.00012028 2.8456e-18)
(1.0001 -0.00012631 2.136e-17)
(1.0001 -3.839e-05 -2.7549e-17)
(0.99994 7.0606e-05 1.9641e-18)
(0.9991 0.00039281 -1.3224e-17)
(1.0028 0.00056638 -2.0818e-18)
(0.9552 0.0045213 -8.7924e-18)
(1.1172 0.063586 2.0482e-18)
(1 -4.2324e-06 6.4761e-18)
(1 -6.5313e-05 -6.1614e-18)
(1 -0.00010584 3.8608e-18)
(1.0001 -0.00015268 -2.5412e-17)
(1.0001 -0.0001474 -8.3357e-20)
(1.0001 -0.00015501 -4.2287e-17)
(1.0001 -4.6524e-05 1.0571e-18)
(0.99996 8.3252e-05 -1.5766e-17)
(0.99878 0.00049777 5.036e-18)
(1.0046 0.00074862 -2.0976e-17)
(0.94535 0.0047757 -2.1153e-17)
(1.1246 0.069082 1.978e-18)
(0.99999 -5.0637e-06 -1.072e-18)
(1 -7.7327e-05 -7.369e-18)
(1 -0.00012542 -3.1377e-18)
(1.0001 -0.00018087 1.9181e-17)
(1.0001 -0.00017466 -2.6356e-17)
(1.0002 -0.00018389 1.618e-17)
(1.0001 -5.4603e-05 1.8425e-17)
(0.99998 9.4498e-05 5.5466e-18)
(0.99838 0.00060609 1.1258e-17)
(1.0067 0.00096545 1.1292e-17)
(0.93627 0.004836 9.1096e-18)
(1.1264 0.072759 3.172e-18)
(0.99999 -5.9098e-06 -2.2126e-18)
(1 -8.9383e-05 -1.4496e-18)
(1 -0.0001451 -2.703e-17)
(1.0001 -0.00020918 -9.159e-18)
(1.0001 -0.00020208 7.377e-18)
(1.0002 -0.00021297 2.6516e-17)
(1.0001 -6.2623e-05 1.1727e-17)
(1 0.00010428 4.9518e-18)
(0.99792 0.00071637 -7.3579e-18)
(1.0091 0.0012207 1.5816e-17)
(0.92819 0.0047386 7.3533e-18)
(1.1236 0.074979 -1.0082e-17)
(0.99999 -6.7711e-06 -6.8687e-18)
(1 -0.00010148 6.2323e-18)
(1 -0.00016488 4.5448e-17)
(1.0001 -0.0002376 -1.0986e-17)
(1.0002 -0.00022968 2.7626e-17)
(1.0002 -0.00024227 -5.2352e-17)
(1.0001 -7.0587e-05 -3.9067e-17)
(1.0001 0.00011255 9.6222e-18)
(0.99737 0.00082724 -5.5259e-18)
(1.0117 0.0015159 -8.7234e-18)
(0.92127 0.0045184 -1.359e-17)
(1.117 0.076046 1.3185e-17)
(0.99999 -7.6478e-06 4.5253e-18)
(1 -0.00011363 2.3459e-18)
(1.0001 -0.00018477 -3.8497e-17)
(1.0001 -0.00026615 1.5635e-17)
(1.0002 -0.00025744 -1.2047e-17)
(1.0002 -0.00027178 2.2328e-17)
(1.0001 -7.8502e-05 1.3883e-17)
(1.0002 0.0001193 2.4325e-18)
(0.99674 0.00093732 5.2212e-19)
(1.0145 0.0018507 1.3817e-18)
(0.91561 0.0042075 4.3213e-18)
(1.1078 0.076212 -6.9285e-19)
(0.99998 -8.5405e-06 -2.4846e-18)
(1 -0.00012581 -7.6935e-18)
(1.0001 -0.00020477 9.4368e-18)
(1.0001 -0.00029483 -2.7585e-18)
(1.0002 -0.0002854 1.8596e-18)
(1.0003 -0.00030154 -2.447e-17)
(1.0002 -8.6376e-05 -3.1975e-17)
(1.0003 0.00012455 -3.0895e-17)
(0.99602 0.0010453 1.5445e-17)
(1.0174 0.0022232 1.7946e-18)
(0.91126 0.0038356 -1.0961e-17)
(1.0966 0.075686 -5.677e-18)
(0.99998 -9.4493e-06 3.4294e-18)
(1 -0.00013805 2.906e-18)
(1.0001 -0.00022488 4.5479e-18)
(1.0001 -0.00032363 -2.1985e-18)
(1.0002 -0.00031355 -5.5744e-18)
(1.0003 -0.00033155 9.2551e-18)
(1.0002 -9.422e-05 1.8509e-17)
(1.0004 0.00012835 1.9086e-17)
(0.99522 0.00115 9.9232e-18)
(1.0204 0.0026303 -2.2665e-17)
(0.90821 0.003429 1.1588e-19)
(1.0842 0.074638 -6.5656e-18)
(0.99998 -1.0375e-05 -3.4288e-18)
(1 -0.00015034 5.7146e-18)
(1.0001 -0.00024511 8.2457e-18)
(1.0002 -0.00035258 5.7405e-18)
(1.0002 -0.0003419 -5.1702e-18)
(1.0003 -0.00036182 4.5499e-18)
(1.0002 -0.00010205 4.2206e-18)
(1.0005 0.00013077 -1.7045e-18)
(0.99434 0.0012504 -1.6039e-17)
(1.0234 0.0030681 2.1017e-17)
(0.90643 0.003011 1.0319e-19)
(1.0712 0.073206 1.4089e-18)
(0.99997 -1.1317e-05 5.2142e-18)
(1 -0.00016268 -4.4608e-18)
(1.0001 -0.00026545 7.2186e-19)
(1.0002 -0.00038166 -4.7887e-18)
(1.0002 -0.00037046 1.1742e-17)
(1.0004 -0.00039237 5.5514e-18)
(1.0002 -0.00010988 1.6982e-17)
(1.0007 0.00013193 -6.3304e-18)
(0.99338 0.0013452 -1.9598e-19)
(1.0263 0.0035319 5.1608e-18)
(0.90586 0.0026016 1.6627e-17)
(1.058 0.071505 8.9887e-19)
(0.99997 -1.2276e-05 1.2576e-18)
(1 -0.00017507 9.9e-18)
(1.0001 -0.00028593 1.3788e-17)
(1.0002 -0.00041089 -4.7744e-18)
(1.0003 -0.00039925 8.5023e-18)
(1.0004 -0.00042321 -2.5915e-18)
(1.0002 -0.00011774 -2.9743e-17)
(1.0009 0.00013197 2.0037e-17)
(0.99234 0.0014337 -1.8083e-17)
(1.0291 0.0040167 -2.9768e-17)
(0.9064 0.0022175 -3.6511e-18)
(1.0452 0.069626 8.3216e-19)
(0.99996 -1.3253e-05 -3.2083e-18)
(1 -0.00018752 -1.0529e-17)
(1.0001 -0.00030653 -3.3095e-17)
(1.0002 -0.00044027 8.044e-18)
(1.0003 -0.00042827 -1.2902e-17)
(1.0004 -0.00045436 8.309e-18)
(1.0002 -0.00012566 -2.7826e-18)
(1.0011 0.00013105 -1.2062e-17)
(0.99123 0.0015148 3.9718e-18)
(1.0318 0.0045174 1.7776e-17)
(0.90795 0.0018724 -7.6588e-18)
(1.033 0.067643 1.1521e-17)
(0.99996 -1.4248e-05 3.3757e-19)
(1 -0.00020002 7.8744e-18)
(1.0001 -0.00032726 2.2849e-17)
(1.0002 -0.0004698 -1.8116e-18)
(1.0003 -0.00045753 -1.2818e-17)
(1.0005 -0.00048583 -1.5484e-17)
(1.0002 -0.00013366 1.063e-17)
(1.0014 0.00012938 6.9178e-18)
(0.99006 0.0015879 2.2948e-17)
(1.0343 0.0050289 -2.4885e-18)
(0.91039 0.0015768 1.9024e-18)
(1.0217 0.065616 -4.597e-18)
(0.99995 -1.5261e-05 -1.8939e-18)
(0.99999 -0.00021258 -9.5412e-18)
(1.0001 -0.00034813 -1.031e-17)
(1.0002 -0.0004995 6.0539e-18)
(1.0003 -0.00048704 -7.1989e-18)
(1.0005 -0.00051763 -1.242e-17)
(1.0002 -0.00014181 1.0333e-17)
(1.0017 0.00012718 -4.693e-18)
(0.98884 0.0016521 -2.8395e-17)
(1.0367 0.0055462 -1.3945e-17)
(0.91362 0.0013384 8.2559e-18)
(1.0113 0.063589 -4.9809e-18)
(0.99995 -1.6293e-05 -2.7119e-18)
(0.99999 -0.00022521 -3.6061e-18)
(1.0001 -0.00036914 -7.6402e-19)
(1.0002 -0.00052935 -2.651e-17)
(1.0003 -0.00051682 6.0403e-18)
(1.0005 -0.00054977 5.4083e-18)
(1.0002 -0.00015014 -1.9635e-17)
(1.002 0.00012469 -1.6023e-17)
(0.98757 0.0017067 4.1548e-18)
(1.0388 0.0060647 -1.0462e-18)
(0.91749 0.0011622 -9.5342e-18)
(1.0021 0.061599 9.4251e-19)
(0.99994 -1.7344e-05 3.5274e-18)
(0.99999 -0.0002379 1.6531e-17)
(1.0001 -0.00039029 1.9674e-17)
(1.0002 -0.00055938 2.4967e-18)
(1.0003 -0.00054687 1.6697e-17)
(1.0006 -0.00058226 9.4774e-18)
(1.0002 -0.00015872 2.8343e-18)
(1.0024 0.00012219 1.7537e-17)
(0.98626 0.0017512 2.0632e-17)
(1.0407 0.0065801 1.665e-17)
(0.9219 0.001051 7.1139e-18)
(0.99404 0.059671 1.1171e-18)
(0.99994 -1.8414e-05 -1.6813e-18)
(0.99998 -0.00025065 -3.9665e-18)
(1.0001 -0.00041159 -2.0961e-17)
(1.0002 -0.00058958 -2.3636e-18)
(1.0004 -0.00057721 -1.2655e-17)
(1.0006 -0.00061511 -5.1277e-18)
(1.0002 -0.0001676 -1.8186e-18)
(1.0028 0.00011999 -1.5858e-17)
(0.98493 0.0017848 -1.9724e-17)
(1.0424 0.0070887 8.5323e-18)
(0.92674 0.0010057 4.8745e-19)
(0.98718 0.057826 6.4064e-19)
(0.99993 -1.9504e-05 4.4565e-18)
(0.99998 -0.00026347 -5.182e-18)
(1.0001 -0.00043305 -1.9659e-17)
(1.0002 -0.00061996 4.4939e-17)
(1.0004 -0.00060784 1.8357e-17)
(1.0006 -0.00064834 -1.2547e-17)
(1.0002 -0.00017688 2.4453e-17)
(1.0032 0.00011841 2.1433e-17)
(0.98358 0.0018071 3.2003e-17)
(1.0437 0.007587 -3.127e-17)
(0.9319 0.0010252 -1.3065e-17)
(0.98149 0.056076 1.6861e-19)
(0.99992 -2.0615e-05 -3.262e-18)
(0.99997 -0.00027636 -1.0399e-18)
(1.0001 -0.00045466 3.3563e-17)
(1.0003 -0.00065053 -3.3971e-17)
(1.0004 -0.00063877 -1.7672e-18)
(1.0007 -0.00068195 4.1574e-17)
(1.0001 -0.00018662 7.5774e-18)
(1.0037 0.00011778 -3.3106e-18)
(0.98223 0.0018175 -1.9846e-17)
(1.0448 0.0080721 3.6847e-17)
(0.93728 0.0011071 -5.5332e-18)
(0.97693 0.05443 -2.6843e-19)
(0.99991 -2.1746e-05 -1.6629e-18)
(0.99997 -0.00028932 -2.072e-18)
(1.0001 -0.00047643 1.7477e-18)
(1.0003 -0.00068128 3.5341e-17)
(1.0004 -0.00067003 -9.9632e-18)
(1.0007 -0.00071595 -3.0729e-17)
(1.0001 -0.00019694 -1.932e-17)
(1.0042 0.00011849 -3.5647e-18)
(0.98088 0.0018154 6.2746e-18)
(1.0457 0.0085413 -3.1081e-17)
(0.94278 0.0012482 9.2683e-18)
(0.97343 0.052892 2.905e-18)
(0.99991 -2.2898e-05 2.748e-18)
(0.99996 -0.00030236 1.4422e-17)
(1.0001 -0.00049837 -1.289e-17)
(1.0003 -0.00071223 -3.7005e-18)
(1.0004 -0.00070161 -1.9121e-17)
(1.0008 -0.00075034 3.343e-17)
(1.0001 -0.00020792 -1.696e-17)
(1.0048 0.00012089 1.4778e-17)
(0.97955 0.0018005 -1.9338e-18)
(1.0462 0.0089926 2.9137e-17)
(0.94834 0.0014439 -9.043e-18)
(0.97091 0.051463 -4.8467e-18)
(0.9999 -2.4072e-05 -5.2706e-19)
(0.99996 -0.00031547 -8.2942e-18)
(1.0001 -0.00052048 -1.8049e-17)
(1.0003 -0.00074338 -1.014e-17)
(1.0004 -0.00073354 1.8546e-17)
(1.0008 -0.00078512 -4.2629e-17)
(1 -0.00021969 -2.6164e-18)
(1.0054 0.0001254 -1.9966e-17)
(0.97824 0.0017723 3.1222e-18)
(1.0465 0.0094241 -8.4038e-18)
(0.95387 0.0016895 9.6254e-18)
(0.96928 0.050141 2.0549e-18)
(0.99989 -2.5267e-05 2.761e-18)
(0.99995 -0.00032866 -8.8844e-18)
(1.0001 -0.00054276 -1.783e-18)
(1.0003 -0.00077474 2.4637e-18)
(1.0005 -0.00076583 5.8698e-18)
(1.0008 -0.00082031 1.2318e-17)
(0.99993 -0.00023238 4.2903e-17)
(1.006 0.00013241 2.386e-18)
(0.97698 0.0017303 5.0865e-18)
(1.0466 0.0098345 9.2603e-18)
(0.95932 0.0019794 -8.2308e-18)
(0.96844 0.048924 1.5763e-18)
(0.99988 -2.6486e-05 -1.5832e-18)
(0.99995 -0.00034193 8.8762e-18)
(1.0001 -0.00056522 2.5655e-17)
(1.0003 -0.00080631 -2.4824e-17)
(1.0005 -0.00079848 -9.1305e-18)
(1.0009 -0.00085589 -2.1673e-18)
(0.99985 -0.00024612 -1.4141e-17)
(1.0066 0.00014234 1.851e-18)
(0.97577 0.0016744 -8.8148e-18)
(1.0463 0.010223 -3.4043e-18)
(0.96462 0.0023082 -2.3195e-19)
(0.96831 0.047806 -1.9266e-18)
(0.99987 -2.7727e-05 -1.7016e-18)
(0.99994 -0.00035529 5.3129e-18)
(1.0001 -0.00058787 -6.205e-19)
(1.0003 -0.0008381 8.2315e-18)
(1.0005 -0.00083152 -1.6847e-17)
(1.0009 -0.00089187 2.4524e-17)
(0.99977 -0.00026107 7.0527e-18)
(1.0073 0.00015559 -1.7659e-17)
(0.97461 0.0016041 -1.1299e-17)
(1.0459 0.010588 -1.3474e-17)
(0.96973 0.0026701 1.3052e-18)
(0.96878 0.046781 -3.526e-18)
(0.99986 -2.8992e-05 5.9131e-19)
(0.99993 -0.00036873 -1.2688e-17)
(1.0001 -0.0006107 1.5886e-17)
(1.0003 -0.00087011 2.2767e-17)
(1.0005 -0.00086495 3.3021e-17)
(1.001 -0.00092823 -1.8011e-17)
(0.99967 -0.00027738 -1.7535e-17)
(1.008 0.0001726 3.5838e-18)
(0.97353 0.0015193 1.0587e-17)
(1.0452 0.010929 1.0546e-17)
(0.97462 0.0030594 6.0713e-18)
(0.96976 0.045844 3.5044e-18)
(0.99985 -3.0281e-05 1.1332e-18)
(0.99992 -0.00038226 1.009e-17)
(1.0001 -0.00063373 -3.6499e-17)
(1.0003 -0.00090235 -3.2988e-18)
(1.0005 -0.0008988 -2.743e-17)
(1.0011 -0.00096499 -1.1345e-17)
(0.99955 -0.00029523 2.4709e-20)
(1.0087 0.00019376 -4.0987e-18)
(0.97253 0.0014198 -2.0852e-17)
(1.0442 0.011246 -1.6837e-17)
(0.97925 0.0034707 -8.2889e-18)
(0.97116 0.044988 -1.725e-18)
(0.99984 -3.1595e-05 -7.3446e-19)
(0.99992 -0.00039588 -6.5617e-18)
(1.0001 -0.00065696 2.8718e-17)
(1.0003 -0.00093483 -3.1475e-17)
(1.0005 -0.00093307 -2.063e-18)
(1.0011 -0.0010021 2.4158e-17)
(0.99943 -0.0003148 7.0159e-19)
(1.0094 0.00021949 3.9091e-18)
(0.97161 0.0013056 1.8255e-17)
(1.0431 0.011539 2.1886e-17)
(0.9836 0.0038987 4.743e-18)
(0.9729 0.044205 -9.6194e-19)
(0.99983 -3.2933e-05 -1.912e-18)
(0.99991 -0.00040959 -2.4197e-18)
(1.0001 -0.0006804 -1.2731e-17)
(1.0003 -0.00096755 1.568e-17)
(1.0005 -0.00096778 3.0147e-17)
(1.0012 -0.0010396 -1.0677e-17)
(0.9993 -0.00033628 2.1837e-17)
(1.0102 0.00025017 2.93e-18)
(0.97079 0.0011767 -2.0667e-18)
(1.0418 0.011807 9.8993e-18)
(0.98765 0.0043381 -5.2964e-18)
(0.9749 0.043488 -6.6898e-19)
(0.99982 -3.4297e-05 4.7819e-19)
(0.9999 -0.0004234 -6.3991e-18)
(1.0001 -0.00070404 4.7657e-18)
(1.0003 -0.0010005 -1.598e-17)
(1.0006 -0.001003 -3.1887e-17)
(1.0012 -0.0010774 6.7283e-18)
(0.99915 -0.00035989 -3.1502e-17)
(1.011 0.00028618 -6.698e-18)
(0.97007 0.0010332 6.7052e-18)
(1.0403 0.01205 -3.1072e-17)
(0.99139 0.0047843 3.6283e-18)
(0.97709 0.042831 1.8939e-18)
(0.9998 -3.5687e-05 8.3972e-19)
(0.99989 -0.00043731 1.7337e-17)
(1.0001 -0.00072789 7.9796e-18)
(1.0004 -0.0010337 6.5094e-18)
(1.0006 -0.0010386 2.5497e-17)
(1.0013 -0.0011156 2.0061e-18)
(0.99899 -0.00038584 2.1752e-17)
(1.0117 0.00032788 4.8045e-18)
(0.96946 0.00087534 -2.0374e-17)
(1.0387 0.012269 1.0697e-17)
(0.99481 0.0052327 2.4531e-18)
(0.9794 0.042227 1.9615e-18)
(0.99979 -3.7104e-05 -2.9321e-18)
(0.99988 -0.00045133 -5.7068e-18)
(1.0001 -0.00075197 -7.0108e-18)
(1.0004 -0.0010672 1.069e-17)
(1.0006 -0.0010748 1.2318e-17)
(1.0014 -0.001154 -3.995e-18)
(0.99882 -0.00041435 -1.8271e-17)
(1.0125 0.0003756 2.1873e-17)
(0.96896 0.00070353 3.7751e-18)
(1.037 0.012464 -3.2314e-18)
(0.99791 0.0056794 1.0139e-17)
(0.98179 0.041669 -1.3623e-18)
(0.99978 -3.8548e-05 6.0248e-18)
(0.99987 -0.00046544 6.8341e-18)
(1 -0.00077627 -7.4524e-18)
(1.0004 -0.001101 -6.6589e-18)
(1.0006 -0.0011114 -1.7675e-17)
(1.0015 -0.0011928 -6.8616e-18)
(0.99864 -0.00044565 9.0079e-18)
(1.0133 0.00042962 -3.5082e-17)
(0.96858 0.00051819 9.2351e-18)
(1.0351 0.012634 -3.8195e-18)
(1.0007 0.0061203 -1.0734e-17)
(0.98419 0.041151 3.9539e-18)
(0.99977 -4.002e-05 -2.659e-18)
(0.99986 -0.00047967 -1.2007e-17)
(1 -0.0008008 -7.2226e-18)
(1.0004 -0.001135 -1.2636e-17)
(1.0006 -0.0011486 -5.3967e-18)
(1.0015 -0.0012318 2.0175e-17)
(0.99844 -0.00048 -8.8484e-18)
(1.0141 0.00049022 3.9025e-17)
(0.96832 0.00031992 8.7051e-18)
(1.0332 0.012781 1.159e-17)
(1.0032 0.0065523 4.5239e-18)
(0.98658 0.040668 -6.4094e-18)
(0.99975 -4.1519e-05 -1.4104e-18)
(0.99985 -0.00049401 8.9296e-18)
(1 -0.00082557 1.431e-17)
(1.0004 -0.0011693 3.4069e-17)
(1.0006 -0.0011864 7.1535e-18)
(1.0016 -0.001271 -1.3838e-17)
(0.99824 -0.00051763 4.2701e-18)
(1.0148 0.00055762 -4.1983e-17)
(0.96818 0.00010942 -1.0557e-17)
(1.0312 0.012904 -6.4444e-18)
(1.0053 0.0069721 4.4356e-18)
(0.98891 0.040213 6.4415e-18)
(0.99974 -4.3047e-05 1.0794e-18)
(0.99984 -0.00050846 2.1138e-18)
(1 -0.00085058 -1.4054e-17)
(1.0004 -0.0012039 -5.6749e-18)
(1.0006 -0.0012247 9.083e-18)
(1.0017 -0.0013103 1.6563e-17)
(0.99802 -0.00055881 1.4847e-17)
(1.0156 0.00063199 4.1564e-18)
(0.96816 -0.00011248 1.1809e-17)
(1.0292 0.013004 -2.9859e-18)
(1.0072 0.0073769 -7.9172e-18)
(0.99116 0.039783 -1.6615e-18)
(0.99972 -4.4605e-05 -4.4199e-20)
(0.99982 -0.00052302 2.4091e-18)
(1 -0.00087584 3.1409e-18)
(1.0004 -0.0012388 -7.3669e-18)
(1.0006 -0.0012636 8.4468e-20)
(1.0018 -0.0013498 -1.5018e-17)
(0.99779 -0.00060378 -1.0043e-17)
(1.0164 0.00071348 3.0741e-17)
(0.96827 -0.00034485 -1.7843e-17)
(1.0271 0.013082 1.1595e-17)
(1.0088 0.0077645 4.1804e-18)
(0.99331 0.039373 -4.6864e-18)
(0.99971 -4.6192e-05 -3.3431e-18)
(0.99981 -0.00053771 -1.1299e-17)
(1 -0.00090134 8.0188e-18)
(1.0004 -0.0012739 -2.0119e-17)
(1.0006 -0.0013031 -2.297e-17)
(1.0019 -0.0013894 -2.0745e-17)
(0.99756 -0.00065281 -2.0466e-17)
(1.0171 0.00080217 -3.1484e-18)
(0.96849 -0.00058663 1.5592e-17)
(1.025 0.013136 -9.9456e-18)
(1.0102 0.0081325 4.1496e-19)
(0.99534 0.038978 4.4126e-18)
(0.99969 -4.7809e-05 6.4526e-18)
(0.9998 -0.00055253 1.1808e-17)
(1 -0.00092711 -1.2932e-17)
(1.0004 -0.0013094 1.6519e-17)
(1.0006 -0.0013433 -2.6936e-18)
(1.002 -0.0014291 1.3598e-17)
(0.99732 -0.00070615 2.4599e-17)
(1.0178 0.00089809 -2.3843e-17)
(0.96884 -0.00083667 -7.9046e-18)
(1.023 0.013169 1.0502e-17)
(1.0113 0.0084793 3.6092e-18)
(0.99723 0.038595 -2.0863e-18)
(0.99967 -4.9456e-05 -4.8417e-18)
(0.99978 -0.00056747 -3.4897e-18)
(1 -0.00095315 -2.7038e-18)
(1.0004 -0.0013452 1.89e-17)
(1.0007 -0.0013841 -5.7664e-18)
(1.0021 -0.0014687 -1.7231e-19)
(0.99706 -0.00076407 -4.8134e-18)
(1.0185 0.0010012 1.9098e-17)
(0.9693 -0.0010937 -7.503e-18)
(1.0209 0.013181 -7.2112e-18)
(1.0122 0.0088032 -1.0669e-17)
(0.99898 0.038221 2.4233e-18)
(0.99966 -5.1134e-05 3.2911e-18)
(0.99977 -0.00058254 -4.4247e-18)
(1 -0.00097945 6.1899e-18)
(1.0004 -0.0013814 -2.8677e-17)
(1.0007 -0.0014257 3.9067e-17)
(1.0022 -0.0015082 5.6336e-18)
(0.99681 -0.00082681 1.8989e-17)
(1.0191 0.0011115 -1.1817e-17)
(0.96986 -0.0013565 1.0082e-19)
(1.0189 0.013171 5.362e-18)
(1.0128 0.0091031 -2.0722e-18)
(1.0006 0.037852 -9.1194e-19)
(0.99964 -5.2844e-05 -9.415e-19)
(0.99976 -0.00059775 8.6487e-19)
(0.99999 -0.001006 1.5082e-17)
(1.0004 -0.0014178 7.8179e-18)
(1.0007 -0.0014679 -1.9531e-17)
(1.0023 -0.0015477 -1.1034e-17)
(0.99654 -0.00089463 3.3144e-18)
(1.0198 0.0012287 -5.7439e-18)
(0.97054 -0.0016235 1.2553e-17)
(1.017 0.013142 -3.5201e-18)
(1.0133 0.0093778 9.9828e-18)
(1.0021 0.037486 -3.3241e-18)
(0.99962 -5.4586e-05 -1.6387e-18)
(0.99974 -0.00061309 -8.3371e-18)
(0.99998 -0.0010329 -4.4842e-18)
(1.0004 -0.0014546 3.1393e-17)
(1.0007 -0.001511 -1.74e-17)
(1.0024 -0.0015869 -9.3458e-19)
(0.99627 -0.00096775 -4.9581e-17)
(1.0203 0.0013526 5.6471e-18)
(0.97131 -0.0018935 -2.3468e-17)
(1.0151 0.013093 -7.6008e-18)
(1.0137 0.0096266 -9.9771e-18)
(1.0034 0.03712 1.9738e-18)
(0.9996 -5.636e-05 -7.0744e-19)
(0.99972 -0.00062858 5.1652e-18)
(0.99997 -0.00106 -1.8511e-18)
(1.0004 -0.0014917 -1.8279e-17)
(1.0007 -0.0015548 2.5005e-17)
(1.0026 -0.0016259 -2.2974e-18)
(0.996 -0.0010464 2.6262e-17)
(1.0209 0.0014831 -3.4705e-18)
(0.97218 -0.0021648 1.1396e-17)
(1.0133 0.013025 9.5057e-18)
(1.0139 0.0098489 8.2294e-18)
(1.0046 0.036752 -4.7648e-19)
(0.99958 -5.8166e-05 4.0102e-18)
(0.99971 -0.00064421 -3.0903e-18)
(0.99996 -0.0010875 -6.4756e-18)
(1.0004 -0.0015292 1.995e-17)
(1.0007 -0.0015994 1.835e-18)
(1.0027 -0.0016646 2.8483e-17)
(0.99573 -0.0011308 4.5297e-18)
(1.0214 0.0016197 1.6582e-17)
(0.97314 -0.002436 4.2752e-18)
(1.0116 0.012939 -3.0756e-18)
(1.0139 0.010045 1.0699e-18)
(1.0056 0.036381 4.3182e-19)
(0.99956 -6.0006e-05 1.1434e-18)
(0.99969 -0.00066 1.2636e-18)
(0.99995 -0.0011153 -5.8719e-18)
(1.0004 -0.001567 -3.9729e-17)
(1.0007 -0.0016448 5.5571e-18)
(1.0028 -0.001703 2.47e-18)
(0.99545 -0.0012211 -1.9641e-17)
(1.0219 0.0017621 2.3308e-19)
(0.97417 -0.0027057 1.2592e-17)
(1.01 0.012837 -1.9771e-18)
(1.0139 0.010213 -5.2076e-18)
(1.0065 0.036006 2.5415e-18)
(0.99954 -6.188e-05 -4.8965e-18)
(0.99967 -0.00067594 5.3554e-18)
(0.99994 -0.0011433 9.6799e-19)
(1.0004 -0.0016052 2.2061e-17)
(1.0007 -0.0016911 -2.535e-17)
(1.003 -0.0017408 -1.0911e-17)
(0.99518 -0.0013176 2.0087e-17)
(1.0223 0.0019098 -1.1231e-17)
(0.97527 -0.0029723 -1.9904e-17)
(1.0085 0.012717 -9.7681e-18)
(1.0138 0.010355 6.631e-18)
(1.0073 0.035624 8.4562e-19)
(0.99952 -6.3787e-05 -5.1811e-19)
(0.99966 -0.00069203 -5.389e-18)
(0.99993 -0.0011717 1.0309e-17)
(1.0004 -0.0016437 9.7818e-18)
(1.0007 -0.0017383 3.131e-17)
(1.0031 -0.0017782 4.1912e-18)
(0.99491 -0.0014203 1.784e-17)
(1.0227 0.0020622 2.8471e-17)
(0.97644 -0.0032345 -8.776e-19)
(1.0071 0.012583 1.7181e-17)
(1.0136 0.010471 -7.0208e-19)
(1.008 0.035234 -2.4714e-18)
(0.9995 -6.5729e-05 5.0218e-18)
(0.99964 -0.00070829 -7.8458e-18)
(0.99991 -0.0012004 -1.5647e-17)
(1.0004 -0.0016827 -2.6e-18)
(1.0006 -0.0017865 -3.3982e-17)
(1.0033 -0.001815 -1.2471e-17)
(0.99464 -0.0015294 -6.1936e-18)
(1.023 0.0022189 2.1222e-19)
(0.97766 -0.0034908 2.5898e-17)
(1.0058 0.012435 3.9579e-18)
(1.0133 0.01056 -9.0926e-18)
(1.0086 0.034837 1.4803e-18)
(0.99948 -6.7705e-05 -5.63e-18)
(0.99962 -0.00072472 9.8008e-18)
(0.9999 -0.0012294 8.1907e-18)
(1.0004 -0.001722 -5.1808e-18)
(1.0006 -0.0018357 2.7328e-17)
(1.0034 -0.0018512 1.492e-17)
(0.99437 -0.0016449 -4.8957e-18)
(1.0233 0.0023791 -2.869e-17)
(0.97892 -0.0037399 -8.8126e-19)
(1.0047 0.012273 -1.1312e-17)
(1.013 0.010623 1.0762e-17)
(1.0092 0.034432 -1.9394e-18)
(0.99946 -6.9716e-05 3.3829e-18)
(0.9996 -0.00074132 -1.8754e-18)
(0.99989 -0.0012588 1.0845e-17)
(1.0004 -0.0017617 -2.1796e-17)
(1.0006 -0.0018858 8.9233e-18)
(1.0036 -0.0018866 -5.3598e-18)
(0.99411 -0.001767 -1.0546e-17)
(1.0235 0.0025421 -2.3029e-18)
(0.98022 -0.0039807 -3.1246e-17)
(1.0036 0.012099 7.4615e-18)
(1.0127 0.010662 -9.8498e-18)
(1.0096 0.034017 6.4624e-19)
(0.99943 -7.1763e-05 2.6746e-19)
(0.99958 -0.00075809 -5.8996e-18)
(0.99987 -0.0012885 6.1586e-18)
(1.0004 -0.0018018 2.8687e-17)
(1.0006 -0.001937 -2.1253e-17)
(1.0037 -0.0019213 1.724e-17)
(0.99385 -0.0018957 -6.097e-18)
(1.0237 0.0027073 5.3327e-18)
(0.98155 -0.004212 3.7119e-17)
(1.0027 0.011915 -1.3851e-17)
(1.0124 0.010677 1.5051e-17)
(1.01 0.033594 1.8273e-18)
(0.99941 -7.3845e-05 4.8005e-19)
(0.99956 -0.00077505 -1.2209e-18)
(0.99986 -0.0013185 -8.86e-18)
(1.0004 -0.0018423 -4.3188e-18)
(1.0006 -0.0019893 1.8523e-17)
(1.0039 -0.0019552 1.3679e-19)
(0.99361 -0.002031 -1.1983e-17)
(1.0238 0.0028738 -1.2731e-17)
(0.9829 -0.0044327 -1.5537e-17)
(1.0019 0.011721 -1.3066e-18)
(1.012 0.010668 2.7511e-18)
(1.0103 0.033161 1.8992e-19)
(0.99938 -7.5964e-05 -7.7252e-19)
(0.99954 -0.00079219 1.453e-17)
(0.99985 -0.001349 -5.9094e-18)
(1.0004 -0.0018833 -2.4406e-17)
(1.0006 -0.0020427 8.5393e-18)
(1.0041 -0.0019883 -4.3925e-17)
(0.99337 -0.0021728 5.9782e-18)
(1.0239 0.0030409 8.016e-18)
(0.98426 -0.0046421 7.2166e-19)
(1.0012 0.011519 1.4064e-17)
(1.0117 0.010638 -9.2385e-19)
(1.0106 0.032719 -5.1022e-18)
(0.99936 -7.8118e-05 -2.0395e-19)
(0.99951 -0.00080952 -2.8515e-19)
(0.99983 -0.0013797 7.955e-18)
(1.0004 -0.0019246 1.5067e-17)
(1.0006 -0.0020973 -3.393e-17)
(1.0042 -0.0020204 1.8977e-18)
(0.99314 -0.0023211 1.0706e-17)
(1.024 0.0032076 1.2554e-17)
(0.98563 -0.0048393 -9.8234e-18)
(1.0006 0.01131 -1.3692e-17)
(1.0114 0.010586 -1.4915e-17)
(1.0109 0.032268 5.3849e-18)
(0.99933 -8.031e-05 -1.3345e-18)
(0.99949 -0.00082705 4.0603e-19)
(0.99981 -0.0014109 -3.8356e-18)
(1.0004 -0.0019664 -1.006e-17)
(1.0006 -0.002153 1.8809e-17)
(1.0044 -0.0020517 2.3576e-17)
(0.99293 -0.0024757 3.1218e-18)
(1.024 0.0033732 6.3622e-18)
(0.98699 -0.0050236 1.5667e-17)
(1.0001 0.011095 2.3049e-18)
(1.0111 0.010514 1.1022e-17)
(1.0111 0.031809 -3.2677e-18)
(0.99931 -8.2538e-05 2.4562e-18)
(0.99947 -0.00084478 7.4858e-19)
(0.9998 -0.0014424 -5.4813e-18)
(1.0004 -0.0020086 1.4861e-18)
(1.0005 -0.00221 -1.0198e-17)
(1.0046 -0.0020819 -5.6552e-18)
(0.99272 -0.0026365 -1.1541e-18)
(1.0239 0.0035366 -2.8729e-17)
(0.98834 -0.0051947 3.0741e-18)
(0.99975 0.010875 -4.6699e-18)
(1.0108 0.010424 -4.483e-18)
(1.0113 0.031342 -3.9348e-18)
(0.99928 -8.4804e-05 -5.0127e-18)
(0.99944 -0.00086271 9.7798e-19)
(0.99978 -0.0014743 2.9075e-18)
(1.0004 -0.0020513 -1.8674e-17)
(1.0005 -0.0022683 -1.1625e-17)
(1.0047 -0.0021112 -2.6253e-17)
(0.99253 -0.0028033 5.5675e-18)
(1.0238 0.0036971 1.1731e-17)
(0.98968 -0.0053522 -3.2971e-17)
(0.99947 0.010651 2.1535e-17)
(1.0106 0.010316 -4.8443e-18)
(1.0115 0.030867 2.5386e-18)
(0.99925 -8.7107e-05 4.6013e-18)
(0.99942 -0.00088086 2.1886e-18)
(0.99976 -0.0015067 1.118e-18)
(1.0004 -0.0020944 5.9228e-18)
(1.0005 -0.0023278 -2.5679e-18)
(1.0049 -0.0021396 5.0883e-17)
(0.99235 -0.002976 1.9988e-17)
(1.0237 0.0038536 -1.8247e-17)
(0.991 -0.0054958 3.1732e-17)
(0.99928 0.010425 -8.0347e-18)
(1.0104 0.010192 -3.1923e-18)
(1.0117 0.030384 -1.2639e-18)
(0.99922 -8.9447e-05 1.1286e-18)
(0.99939 -0.00089923 -1.386e-17)
(0.99974 -0.0015394 2.2377e-18)
(1.0004 -0.0021381 2.6597e-17)
(1.0005 -0.0023887 1.9872e-17)
(1.0051 -0.0021669 -8.2213e-19)
(0.99219 -0.0031542 -2.7692e-17)
(1.0235 0.0040054 5.5242e-18)
(0.99229 -0.0056255 -7.1556e-18)
(0.99917 0.010197 -1.1117e-17)
(1.0102 0.010053 8.1228e-18)
(1.0118 0.029896 1.18e-18)
(0.99919 -9.1826e-05 -4.4639e-18)
(0.99937 -0.00091781 -4.6203e-18)
(0.99972 -0.0015725 -1.2122e-17)
(1.0004 -0.0021821 -2.2306e-17)
(1.0004 -0.002451 -1.9996e-17)
(1.0053 -0.0021933 -2.3123e-17)
(0.99204 -0.0033376 5.1129e-18)
(1.0234 0.0041515 4.2956e-17)
(0.99355 -0.0057414 3.1179e-18)
(0.99915 0.0099689 -9.6978e-19)
(1.0101 0.0099 -2.8669e-18)
(1.012 0.029401 -3.1644e-18)
(0.99916 -9.4243e-05 3.3124e-18)
(0.99934 -0.00093663 4.2921e-18)
(0.9997 -0.001606 1.868e-17)
(1.0004 -0.0022267 1.5449e-17)
(1.0004 -0.0025146 1.9453e-17)
(1.0054 -0.0022188 -8.5951e-19)
(0.99191 -0.0035259 -2.8486e-17)
(1.0231 0.0042911 -2.3219e-17)
(0.99477 -0.0058436 7.7372e-18)
(0.99919 0.0097411 3.848e-18)
(1.01 0.0097347 6.4601e-18)
(1.0122 0.028901 2.4473e-18)
(0.99913 -9.6698e-05 -2.3392e-18)
(0.99931 -0.00095568 6.7329e-18)
(0.99968 -0.00164 -1.2359e-17)
(1.0004 -0.0022718 2.2358e-18)
(1.0004 -0.0025797 9.0447e-18)
(1.0056 -0.0022433 -2.2604e-18)
(0.99179 -0.0037188 6.3968e-18)
(1.0229 0.0044234 6.4481e-18)
(0.99595 -0.0059324 2.5451e-18)
(0.99931 0.0095145 9.5087e-18)
(1.0099 0.009558 -7.7684e-18)
(1.0124 0.028396 4.9499e-19)
(0.9991 -9.9191e-05 3.5317e-18)
(0.99928 -0.00097497 4.1727e-19)
(0.99966 -0.0016744 -5.7851e-18)
(1.0004 -0.0023174 8.899e-19)
(1.0004 -0.0026462 -1.4862e-18)
(1.0058 -0.0022671 -2.2328e-17)
(0.99168 -0.0039159 1.7856e-17)
(1.0226 0.0045474 2.2888e-17)
(0.99709 -0.0060084 -1.2677e-17)
(0.99948 0.0092898 -1.3229e-17)
(1.0099 0.0093712 -2.2689e-18)
(1.0125 0.027888 4.2026e-18)
(0.99907 -0.00010172 -2.5656e-18)
(0.99926 -0.00099451 -3.2136e-19)
(0.99964 -0.0017092 7.1929e-18)
(1.0004 -0.0023635 -1.7094e-17)
(1.0003 -0.0027142 -1.3436e-17)
(1.006 -0.00229 2.8188e-17)
(0.9916 -0.0041167 -2.7305e-18)
(1.0223 0.0046626 -2.4233e-17)
(0.99819 -0.006072 3.2288e-18)
(0.9997 0.0090675 1.2454e-17)
(1.01 0.0091753 7.6918e-18)
(1.0127 0.027376 -1.5152e-18)
(0.99903 -0.00010429 2.5493e-19)
(0.99923 -0.0010143 2.3538e-18)
(0.99962 -0.0017445 3.93e-18)
(1.0004 -0.0024101 8.837e-18)
(1.0003 -0.0027837 2.6335e-17)
(1.0061 -0.0023123 6.5718e-18)
(0.99153 -0.0043209 -2.3773e-17)
(1.022 0.0047682 2.2714e-18)
(0.99924 -0.0061239 8.3161e-18)
(0.99997 0.0088483 -1.1219e-17)
(1.01 0.0089714 -5.1991e-18)
(1.0129 0.026862 -1.7516e-18)
(0.999 -0.0001069 7.2383e-19)
(0.99919 -0.0010344 -4.0947e-19)
(0.99959 -0.0017803 -1.037e-17)
(1.0004 -0.0024573 -1.9005e-19)
(1.0002 -0.0028547 -5.2068e-17)
(1.0063 -0.0023339 8.1027e-18)
(0.99147 -0.0045281 2.3352e-17)
(1.0216 0.0048636 -6.5256e-18)
(1.0002 -0.0061647 -8.7095e-18)
(1.0003 0.0086326 1.8628e-17)
(1.0101 0.0087605 6.218e-18)
(1.0132 0.026346 4.5377e-18)
(0.99897 -0.00010955 7.7751e-19)
(0.99916 -0.0010547 -8.4964e-19)
(0.99957 -0.0018165 1.8753e-17)
(1.0004 -0.0025051 4.0757e-18)
(1.0002 -0.0029272 4.6141e-17)
(1.0065 -0.0023551 -2.8557e-17)
(0.99143 -0.0047377 -7.819e-18)
(1.0213 0.0049481 6.1424e-18)
(1.0012 -0.0061954 2.9997e-18)
(1.0006 0.0084206 -1.0481e-17)
(1.0103 0.0085435 -1.0075e-18)
(1.0134 0.025829 -3.3457e-18)
(0.99893 -0.00011224 -3.0386e-18)
(0.99913 -0.0010753 1.4264e-18)
(0.99954 -0.0018532 -1.1023e-17)
(1.0004 -0.0025534 5.3592e-18)
(1.0002 -0.0030013 -1.7532e-17)
(1.0067 -0.0023758 3.8728e-18)
(0.9914 -0.0049493 3.1306e-17)
(1.0209 0.0050213 -2.2992e-17)
(1.0021 -0.0062166 -1.1027e-17)
(1.001 0.0082127 -1.0365e-17)
(1.0105 0.0083213 -4.9419e-18)
(1.0136 0.025311 -9.1813e-19)
(0.99889 -0.00011497 3.7849e-18)
(0.9991 -0.0010962 -3.3878e-18)
(0.99952 -0.0018903 -1.0697e-17)
(1.0004 -0.0026023 -8.546e-18)
(1.0001 -0.0030769 -2.8664e-17)
(1.0068 -0.0023963 -1.7961e-17)
(0.99139 -0.0051625 -1.9195e-17)
(1.0205 0.0050828 2.1379e-17)
(1.003 -0.0062294 1.0689e-17)
(1.0014 0.008009 1.5695e-17)
(1.0106 0.0080947 -1.9328e-18)
(1.0139 0.024792 4.4303e-18)
(0.99886 -0.00011774 -6.083e-18)
(0.99906 -0.0011173 5.489e-18)
(0.99949 -0.001928 2.6191e-17)
(1.0004 -0.0026519 -2.0156e-18)
(1.0001 -0.0031542 3.1714e-17)
(1.007 -0.0024167 1.3546e-18)
(0.9914 -0.0053769 -1.8382e-17)
(1.0202 0.0051321 8.3686e-18)
(1.0038 -0.0062345 -3.8549e-18)
(1.0018 0.0078094 -3.2866e-18)
(1.0109 0.0078643 6.2718e-18)
(1.0141 0.024274 -2.9959e-18)
(0.99882 -0.00012055 4.9849e-18)
(0.99903 -0.0011388 -7.4597e-18)
(0.99946 -0.0019661 -3.0536e-17)
(1.0004 -0.002702 1.3186e-17)
(1 -0.003233 -2.2595e-17)
(1.0072 -0.002437 2.4828e-17)
(0.99142 -0.0055919 5.9922e-18)
(1.0198 0.0051689 -7.9661e-18)
(1.0046 -0.0062331 -1.8501e-18)
(1.0022 0.0076141 -8.2283e-18)
(1.0111 0.0076309 -1.0221e-17)
(1.0144 0.023757 4.1374e-18)
(0.99878 -0.00012339 -3.6717e-18)
(0.99899 -0.0011605 2.4805e-18)
(0.99944 -0.0020048 1.8554e-17)
(1.0004 -0.0027529 -1.7382e-17)
(0.99999 -0.0033133 3.6354e-17)
(1.0073 -0.0024576 -1.9271e-17)
(0.99145 -0.0058072 3.4929e-18)
(1.0194 0.005193 -1.2593e-17)
(1.0053 -0.006226 6.0367e-18)
(1.0027 0.007423 -1.1503e-18)
(1.0114 0.007395 4.3756e-18)
(1.0147 0.023241 -1.8408e-18)
(0.99874 -0.00012628 4.5032e-18)
(0.99895 -0.0011826 1.9311e-18)
(0.99941 -0.0020439 -1.237e-17)
(1.0004 -0.0028043 -3.5344e-19)
(0.99994 -0.0033953 -1.6052e-18)
(1.0075 -0.0024785 4.6606e-18)
(0.99149 -0.0060224 3.3161e-17)
(1.019 0.0052044 8.6138e-18)
(1.006 -0.0062142 -1.7893e-17)
(1.0031 0.0072357 -5.9645e-18)
(1.0117 0.0071571 -4.1107e-18)
(1.0149 0.022727 1.931e-18)
(0.9987 -0.00012921 -5.1615e-18)
(0.99892 -0.001205 -7.1561e-18)
(0.99938 -0.0020836 5.1896e-18)