/*--------------------------------*- C++ -*----------------------------------*\
  =========                 |
  \\      /  F ield         | OpenFOAM: The Open Source CFD Toolbox
   \\    /   O peration     | Website:  https://openfoam.org
    \\  /    A nd           | Version:  6.0
     \\/     M anipulation  |
\*---------------------------------------------------------------------------*/
FoamFile
{
    version     2.0;
    format      ascii;
    class       volVectorField;
    location    "3";
    object      U;
}
// * * * * * * * * * * * * * * * * * * * * * * * * * * * * * * * * * * * * * //

dimensions      [0 1 -1 0 0 0 0];

internalField   nonuniform List<vector> 
19500
(
(1 -1.4502e-06 -3.825e-18)
(1 -7.0965e-06 2.5801e-18)
(1 -1.0672e-05 -1.1054e-17)
(1 -1.4548e-05 -7.6097e-18)
(1 -1.4106e-05 1.4249e-17)
(1 -1.3694e-05 2.6366e-17)
(1 -3.9455e-06 2.2496e-17)
(0.99998 1.117e-05 -3.6207e-18)
(0.99992 3.98e-05 1.3272e-17)
(0.99979 7.8062e-05 2.8598e-18)
(0.99561 0.00077829 2.5842e-17)
(1.0187 0.010881 7.3269e-18)
(1 -4.4177e-06 2.3697e-18)
(1 -2.0413e-05 -7.8357e-18)
(1 -3.011e-05 5.2787e-18)
(1 -4.1464e-05 -3.0011e-19)
(1 -3.8386e-05 -3.8003e-19)
(1 -3.7663e-05 -3.1703e-17)
(1 -6.235e-06 -3.8853e-17)
(0.99995 3.6998e-05 -2.0717e-17)
(0.99973 0.00013278 -1.3246e-17)
(0.99981 0.00019453 -1.4148e-18)
(0.98586 0.0022603 -1.2237e-17)
(1.0526 0.030807 -4.4359e-18)
(1 -7.44e-06 -3.0607e-18)
(1 -3.3815e-05 1.5568e-17)
(1 -4.9776e-05 2.7457e-18)
(1 -6.8752e-05 8.7738e-18)
(1 -6.2985e-05 -3.2858e-18)
(1.0001 -6.2349e-05 2.5395e-17)
(1 -8.3279e-06 -5.4689e-18)
(0.99992 6.1696e-05 4.7059e-18)
(0.99952 0.00023454 -1.6069e-17)
(1.0003 0.00032675 2.149e-17)
(0.97547 0.0033964 -6.3889e-18)
(1.0809 0.045524 1.5477e-18)
(1 -1.0484e-05 8.0014e-18)
(1 -4.7443e-05 -1.5093e-17)
(1 -6.9908e-05 -1.3015e-17)
(1 -9.6622e-05 -6.1555e-19)
(1.0001 -8.8354e-05 5.0724e-18)
(1.0001 -8.7857e-05 -7.0479e-19)
(1 -1.0865e-05 5.3886e-17)
(0.9999 8.5009e-05 8.4784e-18)
(0.99928 0.00034378 1.9001e-17)
(1.0012 0.00047914 -7.7843e-18)
(0.96483 0.0042103 3.1078e-17)
(1.102 0.056278 -7.0426e-18)
(1 -1.3545e-05 -5.6222e-18)
(1 -6.1112e-05 1.3045e-17)
(1 -9.0129e-05 1.1079e-17)
(1.0001 -0.00012458 1.1229e-17)
(1.0001 -0.00011386 2.4871e-18)
(1.0001 -0.00011347 1.8665e-17)
(1 -1.3333e-05 -2.4063e-17)
(0.99989 0.00010728 1.722e-18)
(0.99898 0.00045932 -1.1649e-17)
(1.0026 0.00065375 -1.8577e-18)
(0.95432 0.0047503 -8.0791e-18)
(1.116 0.064181 1.957e-18)
(1 -1.6626e-05 5.6898e-18)
(1 -7.4819e-05 -5.4078e-18)
(1 -0.00011044 3.3837e-18)
(1.0001 -0.00015263 -2.2244e-17)
(1.0001 -0.00013949 -7.2881e-20)
(1.0001 -0.00013921 -3.6951e-17)
(1 -1.5728e-05 9.2324e-19)
(0.9999 0.00012833 -1.3823e-17)
(0.99863 0.00057975 4.4366e-18)
(1.0044 0.00085722 -1.8714e-17)
(0.94429 0.0050573 -1.938e-17)
(1.1234 0.069837 1.884e-18)
(1 -1.9728e-05 -9.4183e-19)
(1 -8.8566e-05 -6.4677e-18)
(1 -0.00013084 -2.7499e-18)
(1.0001 -0.00018077 1.679e-17)
(1.0001 -0.00016526 -2.3036e-17)
(1.0002 -0.00016511 1.4138e-17)
(1.0001 -1.8024e-05 1.6093e-17)
(0.99991 0.00014804 4.8632e-18)
(0.99821 0.00070369 9.9159e-18)
(1.0065 0.001096 1.0075e-17)
(0.93504 0.0051686 8.3309e-18)
(1.1253 0.073665 3.0117e-18)
(0.99999 -2.2851e-05 -1.944e-18)
(1 -0.00010236 -1.2723e-18)
(1 -0.00015135 -2.369e-17)
(1.0001 -0.00020903 -8.0172e-18)
(1.0001 -0.00019117 6.4476e-18)
(1.0002 -0.00019118 2.317e-17)
(1.0001 -2.0214e-05 1.0242e-17)
(0.99995 0.00016635 4.3415e-18)
(0.99771 0.00082973 -6.4804e-18)
(1.0089 0.0013741 1.4109e-17)
(0.92679 0.0051201 6.7093e-18)
(1.1225 0.076022 -9.5559e-18)
(0.99999 -2.5995e-05 -6.0348e-18)
(1 -0.00011619 5.47e-18)
(1.0001 -0.00017195 3.9832e-17)
(1.0001 -0.00023739 -9.6162e-18)
(1.0001 -0.00021724 2.4145e-17)
(1.0002 -0.00021743 -4.5746e-17)
(1.0001 -2.2306e-05 -3.4122e-17)
(0.99999 0.00018321 8.4358e-18)
(0.99714 0.00095644 -4.8659e-18)
(1.0115 0.0016929 -7.7822e-18)
(0.9197 0.0049463 -1.2416e-17)
(1.116 0.077213 1.2485e-17)
(0.99999 -2.9162e-05 3.9759e-18)
(1 -0.00013007 2.0589e-18)
(1.0001 -0.00019266 -3.374e-17)
(1.0001 -0.00026587 1.3686e-17)
(1.0002 -0.00024347 -1.0529e-17)
(1.0002 -0.00024389 1.951e-17)
(1.0001 -2.4308e-05 1.2125e-17)
(1.0001 0.00019861 2.1323e-18)
(0.99648 0.0010824 4.6068e-19)
(1.0143 0.0020523 1.2314e-18)
(0.91389 0.0046793 3.9376e-18)
(1.1068 0.077489 -6.6239e-19)
(0.99999 -3.235e-05 -2.1829e-18)
(1 -0.00014401 -6.7525e-18)
(1.0001 -0.00021348 8.2708e-18)
(1.0001 -0.00029448 -2.4146e-18)
(1.0002 -0.00026987 1.6253e-18)
(1.0003 -0.00027056 -2.1382e-17)
(1.0001 -2.623e-05 -2.7925e-17)
(1.0002 0.00021257 -2.7085e-17)
(0.99574 0.0012064 1.36e-17)
(1.0172 0.0024503 1.599e-18)
(0.9094 0.0043487 -9.9881e-18)
(1.0956 0.077058 -5.3605e-18)
(0.99998 -3.5562e-05 3.013e-18)
(1 -0.00015799 2.5505e-18)
(1.0001 -0.00023441 3.9859e-18)
(1.0001 -0.0003232 -1.9244e-18)
(1.0002 -0.00029646 -4.8719e-18)
(1.0003 -0.00029747 8.0871e-18)
(1.0001 -2.8085e-05 1.6165e-17)
(1.0003 0.00022513 1.6732e-17)
(0.99492 0.0013271 8.7352e-18)
(1.0202 0.0028838 -2.0207e-17)
(0.90623 0.0039812 1.0999e-19)
(1.0831 0.076092 -6.1803e-18)
(0.99998 -3.8797e-05 -3.0125e-18)
(1 -0.00017202 5.0156e-18)
(1.0001 -0.00025546 7.2268e-18)
(1.0002 -0.00035206 5.0249e-18)
(1.0002 -0.00032324 -4.5186e-18)
(1.0003 -0.00032461 3.9756e-18)
(1.0001 -2.989e-05 3.6859e-18)
(1.0004 0.00023638 -1.4942e-18)
(0.99401 0.0014433 -1.4119e-17)
(1.0231 0.0033489 1.8735e-17)
(0.90435 0.0036003 9.7953e-20)
(1.07 0.07473 1.3356e-18)
(0.99998 -4.2056e-05 4.5811e-18)
(1 -0.00018611 -3.9152e-18)
(1.0001 -0.00027663 6.3266e-19)
(1.0002 -0.00038106 -4.1917e-18)
(1.0002 -0.00035022 1.0262e-17)
(1.0003 -0.00035202 4.8506e-18)
(1.0001 -3.1665e-05 1.483e-17)
(1.0006 0.00024643 -5.5489e-18)
(0.99302 0.001554 -1.7241e-19)
(1.0261 0.0038407 4.5973e-18)
(0.9037 0.0032264 1.5102e-17)
(1.0568 0.073088 8.5264e-19)
(0.99997 -4.5339e-05 1.1049e-18)
(1 -0.00020026 8.6892e-18)
(1.0001 -0.00029792 1.2085e-17)
(1.0002 -0.00041019 -4.1792e-18)
(1.0003 -0.00037741 7.4306e-18)
(1.0004 -0.0003797 -2.2644e-18)
(1.0001 -3.3438e-05 -2.5973e-17)
(1.0008 0.00025541 1.7563e-17)
(0.99196 0.0016582 -1.5912e-17)
(1.0289 0.0043543 -2.6524e-17)
(0.90417 0.0028767 -3.3225e-18)
(1.0438 0.07126 7.8734e-19)
(0.99997 -4.8648e-05 -2.8188e-18)
(1 -0.00021446 -9.2408e-18)
(1.0001 -0.00031934 -2.9005e-17)
(1.0002 -0.00043947 7.0412e-18)
(1.0003 -0.00040482 -1.1276e-17)
(1.0004 -0.00040767 7.2598e-18)
(1.0002 -3.524e-05 -2.4294e-18)
(1.001 0.0002635 -1.0573e-17)
(0.99083 0.001755 3.4972e-18)
(1.0316 0.0048844 1.5837e-17)
(0.90567 0.002565 -6.9487e-18)
(1.0314 0.06932 1.0788e-17)
(0.99996 -5.1982e-05 2.966e-19)
(1 -0.00022873 6.9113e-18)
(1.0001 -0.00034089 2.0025e-17)
(1.0002 -0.0004689 -1.5857e-18)
(1.0003 -0.00043246 -1.1202e-17)
(1.0004 -0.00043594 -1.3529e-17)
(1.0002 -3.711e-05 9.282e-18)
(1.0013 0.0002709 6.0627e-18)
(0.98963 0.0018436 2.0188e-17)
(1.0341 0.0054257 -2.2161e-18)
(0.90808 0.0023024 1.7223e-18)
(1.0199 0.067329 -4.3053e-18)
(0.99996 -5.5342e-05 -1.664e-18)
(1 -0.00024306 -8.3742e-18)
(1.0001 -0.00036259 -9.036e-18)
(1.0002 -0.00049849 5.2991e-18)
(1.0003 -0.00046035 -6.2912e-18)
(1.0005 -0.00046452 -1.0851e-17)
(1.0001 -3.9094e-05 9.0223e-18)
(1.0016 0.00027783 -4.1133e-18)
(0.98838 0.0019231 -2.4974e-17)
(1.0365 0.0059733 -1.2413e-17)
(0.91129 0.0020968 7.4679e-18)
(1.0093 0.065335 -4.651e-18)
(0.99995 -5.8729e-05 -2.3827e-18)
(1 -0.00025745 -3.1651e-18)
(1.0001 -0.00038442 -6.696e-19)
(1.0002 -0.00052824 -2.3204e-17)
(1.0003 -0.00048849 5.2789e-18)
(1.0005 -0.00049344 4.7255e-18)
(1.0001 -4.1245e-05 -1.7143e-17)
(1.0019 0.00028454 -1.4041e-17)
(0.98709 0.0019929 3.6569e-18)
(1.0386 0.0065224 -9.2707e-19)
(0.91517 0.0019536 -8.6275e-18)
(0.99993 0.063374 8.8156e-19)
(0.99995 -6.2143e-05 3.0992e-18)
(1 -0.00027191 1.4509e-17)
(1.0001 -0.0004064 1.7243e-17)
(1.0002 -0.00055816 2.1855e-18)
(1.0003 -0.0005169 1.4592e-17)
(1.0005 -0.00052269 8.2803e-18)
(1.0001 -4.3624e-05 2.4751e-18)
(1.0023 0.00029132 1.5368e-17)
(0.98576 0.0020522 1.814e-17)
(1.0405 0.0070686 1.4818e-17)
(0.9196 0.0018759 6.4247e-18)
(0.9917 0.061474 1.0414e-18)
(0.99994 -6.5586e-05 -1.4772e-18)
(1 -0.00028644 -3.4814e-18)
(1.0001 -0.00042852 -1.8371e-17)
(1.0002 -0.00058825 -2.0688e-18)
(1.0004 -0.00054558 -1.1059e-17)
(1.0006 -0.0005523 -4.4797e-18)
(1.0001 -4.6302e-05 -1.5871e-18)
(1.0027 0.00029848 -1.3895e-17)
(0.9844 0.0021005 -1.7337e-17)
(1.0422 0.007608 7.589e-18)
(0.92447 0.0018644 4.3352e-19)
(0.98467 0.059654 5.9573e-19)
(0.99994 -6.9058e-05 3.9156e-18)
(0.99999 -0.00030104 -4.5483e-18)
(1.0001 -0.00045081 -1.723e-17)
(1.0003 -0.00061852 3.9336e-17)
(1.0004 -0.00057455 1.6042e-17)
(1.0006 -0.00058227 -1.0962e-17)
(1.0001 -4.9358e-05 2.1347e-17)
(1.0031 0.00030634 1.8778e-17)
(0.98303 0.0021372 2.8124e-17)
(1.0436 0.0081371 -2.7806e-17)
(0.92967 0.0019185 -1.1787e-17)
(0.97883 0.05793 1.5618e-19)
(0.99993 -7.256e-05 -2.8661e-18)
(0.99999 -0.00031572 -9.1269e-19)
(1.0001 -0.00047325 2.9416e-17)
(1.0003 -0.00064898 -2.9735e-17)
(1.0004 -0.00060383 -1.5444e-18)
(1.0006 -0.0006126 3.632e-17)
(1 -5.2881e-05 6.6138e-18)
(1.0036 0.00031524 -2.9011e-18)
(0.98165 0.0021617 -1.7438e-17)
(1.0447 0.0086528 3.276e-17)
(0.93509 0.0020359 -4.9823e-18)
(0.97413 0.056309 -2.4943e-19)
(0.99992 -7.6091e-05 -1.4611e-18)
(0.99998 -0.00033047 -1.8186e-18)
(1.0001 -0.00049586 1.5318e-18)
(1.0003 -0.00067962 3.0934e-17)
(1.0004 -0.00063341 -8.7065e-18)
(1.0007 -0.00064332 -2.6844e-17)
(1 -5.697e-05 -1.6865e-17)
(1.0041 0.00032556 -3.1232e-18)
(0.98028 0.0021734 5.5113e-18)
(1.0455 0.0091525 -2.7623e-17)
(0.94066 0.002213 8.3509e-18)
(0.9705 0.054797 2.6877e-18)
(0.99992 -7.9654e-05 2.4145e-18)
(0.99998 -0.0003453 1.2658e-17)
(1.0001 -0.00051863 -1.1297e-17)
(1.0003 -0.00071046 -3.2392e-18)
(1.0004 -0.00066332 -1.6709e-17)
(1.0007 -0.00067442 2.9203e-17)
(0.99995 -6.1734e-05 -1.4802e-17)
(1.0047 0.00033768 1.2944e-17)
(0.97893 0.002172 -1.6987e-18)
(1.0461 0.009634 2.5889e-17)
(0.94628 0.0024456 -8.1334e-18)
(0.96788 0.053395 -4.4821e-18)
(0.99991 -8.3248e-05 -4.6309e-19)
(0.99997 -0.00036021 -7.2799e-18)
(1.0001 -0.00054158 -1.5819e-17)
(1.0003 -0.0007415 -8.8753e-18)
(1.0004 -0.00069357 1.6207e-17)
(1.0008 -0.0007059 -3.7238e-17)
(0.99989 -6.7294e-05 -2.2825e-18)
(1.0052 0.000352 -1.7488e-17)
(0.97761 0.0021569 2.7403e-18)
(1.0463 0.010095 -7.4663e-18)
(0.95188 0.0027286 8.6574e-18)
(0.96617 0.052102 1.8983e-18)
(0.9999 -8.6873e-05 2.4259e-18)
(0.99997 -0.00037521 -7.798e-18)
(1.0001 -0.00056471 -1.5627e-18)
(1.0003 -0.00077275 2.1564e-18)
(1.0005 -0.00072418 5.1292e-18)
(1.0008 -0.00073778 1.076e-17)
(0.99982 -7.378e-05 3.7442e-17)
(1.0058 0.00036892 2.0894e-18)
(0.97633 0.0021278 4.4625e-18)
(1.0464 0.010535 8.2203e-18)
(0.9574 0.0030566 -7.3904e-18)
(0.96528 0.050915 1.4521e-18)
(0.99989 -9.0531e-05 -1.3911e-18)
(0.99996 -0.00039029 7.7908e-18)
(1.0001 -0.00058802 2.2485e-17)
(1.0003 -0.00080422 -2.1728e-17)
(1.0005 -0.00075515 -7.9783e-18)
(1.0009 -0.00077004 -1.8929e-18)
(0.99974 -8.1337e-05 -1.2342e-17)
(1.0065 0.00038887 1.6206e-18)
(0.9751 0.0020844 -7.7356e-18)
(1.0461 0.010952 -3.0248e-18)
(0.96278 0.0034239 -2.0167e-19)
(0.9651 0.049829 -1.7752e-18)
(0.99988 -9.4221e-05 -1.4951e-18)
(0.99996 -0.00040546 4.6632e-18)
(1.0001 -0.00061151 -5.4382e-19)
(1.0003 -0.0008359 7.2048e-18)
(1.0005 -0.00078651 -1.4721e-17)
(1.0009 -0.0008027 2.1421e-17)
(0.99965 -9.0117e-05 6.1534e-18)
(1.0072 0.00041225 -1.5462e-17)
(0.97393 0.0020263 -9.9098e-18)
(1.0456 0.011346 -1.1957e-17)
(0.96797 0.0038247 1.1766e-18)
(0.96555 0.048838 -3.2403e-18)
(0.99987 -9.7944e-05 5.1956e-19)
(0.99995 -0.00042073 -1.1137e-17)
(1.0001 -0.00063521 1.3923e-17)
(1.0003 -0.00086781 1.9927e-17)
(1.0005 -0.00081826 2.8853e-17)
(1.001 -0.00083573 -1.5731e-17)
(0.99954 -0.00010029 -1.5301e-17)
(1.0079 0.00043949 3.1386e-18)
(0.97283 0.0019533 9.2849e-18)
(1.0449 0.011715 9.355e-18)
(0.97294 0.0042532 5.4426e-18)
(0.96653 0.047936 3.2204e-18)
(0.99986 -0.0001017 9.9569e-19)
(0.99995 -0.00043609 8.8559e-18)
(1.0001 -0.0006591 -3.1989e-17)
(1.0003 -0.00089995 -2.8874e-18)
(1.0005 -0.00085043 -2.3967e-17)
(1.001 -0.00086915 -9.908e-18)
(0.99943 -0.00011202 2.1665e-20)
(1.0086 0.000471 -3.5867e-18)
(0.97182 0.0018654 -1.8277e-17)
(1.044 0.01206 -1.493e-17)
(0.97765 0.0047038 -7.4153e-18)
(0.96794 0.047116 -1.5811e-18)
(0.99985 -0.00010549 -6.4534e-19)
(0.99994 -0.00045155 -5.7593e-18)
(1.0001 -0.00068319 2.5169e-17)
(1.0004 -0.00093233 -2.7548e-17)
(1.0005 -0.00088303 -1.8022e-18)
(1.0011 -0.00090293 2.1099e-17)
(0.9993 -0.00012551 6.1216e-19)
(1.0093 0.00050718 3.4228e-18)
(0.97089 0.0017624 1.6001e-17)
(1.0428 0.012379 1.9401e-17)
(0.98207 0.0051709 4.2474e-18)
(0.9697 0.04637 -8.7816e-19)
(0.99984 -0.00010931 -1.68e-18)
(0.99993 -0.00046711 -2.1239e-18)
(1.0001 -0.0007075 -1.1158e-17)
(1.0004 -0.00096496 1.3724e-17)
(1.0005 -0.00091607 2.634e-17)
(1.0012 -0.00093707 -9.3245e-18)
(0.99917 -0.00014096 1.9048e-17)
(1.0101 0.00054843 2.5652e-18)
(0.97006 0.0016444 -1.8097e-18)
(1.0415 0.012673 8.7679e-18)
(0.98619 0.0056494 -4.7258e-18)
(0.97173 0.045692 -6.0806e-19)
(0.99983 -0.00011317 4.2017e-19)
(0.99992 -0.00048278 -5.6167e-18)
(1.0001 -0.00073201 4.1768e-18)
(1.0004 -0.00099784 -1.3986e-17)
(1.0006 -0.00094957 -2.786e-17)
(1.0012 -0.00097155 5.8756e-18)
(0.99902 -0.00015857 -2.7479e-17)
(1.0109 0.00059512 -5.8599e-18)
(0.96934 0.0015116 5.8728e-18)
(1.04 0.012942 -2.7529e-17)
(0.99 0.0061343 3.2456e-18)
(0.97396 0.045073 1.733e-18)
(0.99982 -0.00011707 7.3785e-19)
(0.99992 -0.00049855 1.5218e-17)
(1.0001 -0.00075675 6.9936e-18)
(1.0004 -0.001031 5.6973e-18)
(1.0006 -0.00098356 2.2277e-17)
(1.0013 -0.0010064 1.7516e-18)
(0.99886 -0.00017856 1.8972e-17)
(1.0116 0.0006476 4.205e-18)
(0.96873 0.0013642 -1.7836e-17)
(1.0384 0.013186 9.4749e-18)
(0.99349 0.0066211 2.192e-18)
(0.97633 0.044509 1.7898e-18)
(0.99981 -0.00012099 -2.5764e-18)
(0.99991 -0.00051444 -5.0091e-18)
(1.0001 -0.00078172 -6.1445e-18)
(1.0004 -0.0010644 9.3559e-18)
(1.0006 -0.0010181 1.0761e-17)
(1.0014 -0.0010415 -3.4887e-18)
(0.99868 -0.00020116 -1.5935e-17)
(1.0124 0.00070619 1.9135e-17)
(0.96823 0.0012025 3.3088e-18)
(1.0366 0.013405 -2.8605e-18)
(0.99666 0.0071056 9.032e-18)
(0.97878 0.043991 -1.2407e-18)
(0.9998 -0.00012496 5.294e-18)
(0.9999 -0.00053044 5.9986e-18)
(1.0001 -0.00080691 -6.5315e-18)
(1.0004 -0.001098 -5.8279e-18)
(1.0006 -0.0010531 -1.5442e-17)
(1.0014 -0.0010768 -5.9913e-18)
(0.9985 -0.00022662 7.8556e-18)
(1.0132 0.00077118 -3.0685e-17)
(0.96784 0.0010271 8.0831e-18)
(1.0347 0.013599 -3.3788e-18)
(0.9995 0.0075839 -9.5544e-18)
(0.98126 0.043513 3.5953e-18)
(0.99978 -0.00012896 -2.3365e-18)
(0.99989 -0.00054656 -1.0539e-17)
(1.0001 -0.00083234 -6.3301e-18)
(1.0004 -0.001132 -1.1059e-17)
(1.0006 -0.0010886 -4.7147e-18)
(1.0015 -0.0011124 1.7615e-17)
(0.9983 -0.00025517 -7.7154e-18)
(1.014 0.00084284 3.413e-17)
(0.96758 0.00083863 7.6142e-18)
(1.0328 0.013768 1.0254e-17)
(1.002 0.0080525 4.0244e-18)
(0.98372 0.04307 -5.8223e-18)
(0.99977 -0.00013299 -1.2393e-18)
(0.99988 -0.0005628 7.838e-18)
(1.0001 -0.00085802 1.2542e-17)
(1.0004 -0.0011662 2.9817e-17)
(1.0006 -0.0011247 6.2495e-18)
(1.0016 -0.0011483 -1.2082e-17)
(0.9981 -0.00028708 3.7234e-18)
(1.0148 0.00092137 -3.671e-17)
(0.96745 0.00063772 -9.2298e-18)
(1.0308 0.013913 -5.6997e-18)
(1.0043 0.0085081 3.938e-18)
(0.98613 0.042656 5.8438e-18)
(0.99976 -0.00013706 9.4845e-19)
(0.99987 -0.00057916 1.8554e-18)
(1.0001 -0.00088394 -1.2317e-17)
(1.0004 -0.0012008 -4.9667e-18)
(1.0006 -0.0011614 7.9347e-18)
(1.0017 -0.0011843 1.446e-17)
(0.99788 -0.00032259 1.2943e-17)
(1.0155 0.001007 3.6371e-18)
(0.96744 0.00042528 1.0322e-17)
(1.0287 0.014035 -2.6386e-18)
(1.0062 0.008948 -7.0254e-18)
(0.98846 0.042265 -1.5081e-18)
(0.99974 -0.00014117 -3.8835e-20)
(0.99986 -0.00059566 2.1146e-18)
(1.0001 -0.00091012 2.7528e-18)
(1.0004 -0.0012356 -6.4474e-18)
(1.0006 -0.0011987 7.3567e-20)
(1.0018 -0.0012204 -1.3111e-17)
(0.99765 -0.00036196 -8.7551e-18)
(1.0163 0.0010997 2.6873e-17)
(0.96755 0.00020227 -1.5589e-17)
(1.0266 0.014133 1.0245e-17)
(1.0078 0.0093697 3.707e-18)
(0.99069 0.041894 -4.2386e-18)
(0.99973 -0.00014532 -2.9377e-18)
(0.99985 -0.00061229 -9.9175e-18)
(1.0001 -0.00093656 7.028e-18)
(1.0004 -0.0012707 -1.7608e-17)
(1.0006 -0.0012366 -2.0065e-17)
(1.0019 -0.0012566 -1.8109e-17)
(0.99742 -0.00040547 -1.7838e-17)
(1.017 0.0011997 -2.7529e-18)
(0.96778 -3.0239e-05 1.3621e-17)
(1.0245 0.014208 -8.7862e-18)
(1.0092 0.0097711 3.6682e-19)
(0.9928 0.041537 3.9877e-18)
(0.99971 -0.00014951 5.6701e-18)
(0.99983 -0.00062905 1.0364e-17)
(1.0001 -0.00096326 -1.1334e-17)
(1.0004 -0.0013062 1.4457e-17)
(1.0007 -0.0012752 -2.3525e-18)
(1.002 -0.0012929 1.187e-17)
(0.99717 -0.00045336 2.144e-17)
(1.0177 0.001307 -2.0835e-17)
(0.96814 -0.00027106 -6.9013e-18)
(1.0224 0.01426 9.2722e-18)
(1.0104 0.01015 3.19e-18)
(0.99478 0.041192 -1.8824e-18)
(0.9997 -0.00015373 -4.2546e-18)
(0.99982 -0.00064596 -3.0632e-18)
(1 -0.00099024 -2.3697e-18)
(1.0004 -0.001342 1.654e-17)
(1.0007 -0.0013145 -5.0365e-18)
(1.0021 -0.0013292 -1.5028e-19)
(0.99692 -0.0005059 -4.1951e-18)
(1.0184 0.0014216 1.6687e-17)
(0.96861 -0.00051892 -6.5461e-18)
(1.0203 0.01429 -6.3666e-18)
(1.0113 0.010505 -9.4265e-18)
(0.99661 0.040854 2.1827e-18)
(0.99968 -0.000158 2.8921e-18)
(0.99981 -0.00066301 -3.8839e-18)
(1 -0.0010175 5.425e-18)
(1.0005 -0.0013781 -2.5096e-17)
(1.0007 -0.0013545 3.4124e-17)
(1.0022 -0.0013653 4.917e-18)
(0.99666 -0.00056335 1.6545e-17)
(1.0191 0.0015432 -1.0322e-17)
(0.96919 -0.00077249 9.2082e-20)
(1.0183 0.014299 4.7298e-18)
(1.012 0.010836 -1.8225e-18)
(0.9983 0.040521 -8.2194e-19)
(0.99967 -0.0001623 -8.2734e-19)
(0.9998 -0.0006802 7.5917e-19)
(1 -0.001045 1.3218e-17)
(1.0005 -0.0014145 6.8418e-18)
(1.0007 -0.0013952 -1.7059e-17)
(1.0023 -0.0014014 -9.6302e-18)
(0.9964 -0.00062596 2.8855e-18)
(1.0197 0.0016719 -5.0148e-18)
(0.96988 -0.0010303 1.0951e-17)
(1.0163 0.014287 -3.1062e-18)
(1.0125 0.01114 8.8056e-18)
(0.99984 0.040189 -2.9851e-18)
(0.99965 -0.00016664 -1.4401e-18)
(0.99978 -0.00069755 -7.3182e-18)
(1 -0.0010729 -3.9301e-18)
(1.0005 -0.0014513 2.7473e-17)
(1.0007 -0.0014367 -1.5197e-17)
(1.0025 -0.0014373 -8.1517e-19)
(0.99613 -0.00069395 -4.3193e-17)
(1.0203 0.0018073 4.9334e-18)
(0.97067 -0.001291 -2.0459e-17)
(1.0144 0.014255 -6.7001e-18)
(1.0129 0.011417 -8.7849e-18)
(1.0012 0.039857 1.773e-18)
(0.99963 -0.00017103 -6.2169e-19)
(0.99977 -0.00071506 4.534e-18)
(1 -0.001101 -1.6223e-18)
(1.0005 -0.0014885 -1.5997e-17)
(1.0007 -0.001479 2.1839e-17)
(1.0026 -0.0014729 -2.0043e-18)
(0.99586 -0.00076756 2.2877e-17)
(1.0208 0.0019492 -3.0281e-18)
(0.97155 -0.001553 9.9385e-18)
(1.0126 0.014204 8.3766e-18)
(1.0131 0.011667 7.2448e-18)
(1.0025 0.039521 -4.2572e-19)
(0.99962 -0.00017546 3.5242e-18)
(0.99975 -0.00073272 -2.7127e-18)
(1 -0.0011295 -5.6755e-18)
(1.0005 -0.001526 1.7458e-17)
(1.0007 -0.0015221 1.6025e-18)
(1.0027 -0.0015083 2.4854e-17)
(0.99558 -0.000847 3.9449e-18)
(1.0214 0.0020972 1.4476e-17)
(0.97252 -0.0018149 3.7283e-18)
(1.0109 0.014134 -2.7102e-18)
(1.0132 0.011888 9.3997e-19)
(1.0036 0.039181 3.8754e-19)
(0.9996 -0.00017993 1.0049e-18)
(0.99974 -0.00075055 1.1091e-18)
(1 -0.0011582 -5.1463e-18)
(1.0005 -0.0015638 -3.4767e-17)
(1.0007 -0.001566 4.853e-18)
(1.0029 -0.0015432 2.1541e-18)
(0.99531 -0.00093247 -1.7104e-17)
(1.0218 0.0022509 2.0297e-19)
(0.97357 -0.002075 1.0968e-17)
(1.0093 0.014047 -1.7409e-18)
(1.0131 0.012083 -4.5705e-18)
(1.0046 0.038835 2.2699e-18)
(0.99958 -0.00018444 -4.3031e-18)
(0.99972 -0.00076855 4.7011e-18)
(0.99999 -0.0011873 8.4836e-19)
(1.0005 -0.0016021 1.9305e-17)
(1.0007 -0.0016109 -2.2139e-17)
(1.003 -0.0015778 -9.5206e-18)
(0.99504 -0.0010241 1.7491e-17)
(1.0222 0.0024099 -9.7996e-18)
(0.97469 -0.002332 -1.7327e-17)
(1.0078 0.013943 -8.5941e-18)
(1.013 0.012249 5.8163e-18)
(1.0055 0.038481 7.5158e-19)
(0.99956 -0.00018899 -4.5534e-19)
(0.99971 -0.00078672 -4.7306e-18)
(0.99998 -0.0012167 9.0354e-18)
(1.0005 -0.0016407 8.5596e-18)
(1.0007 -0.0016567 2.7342e-17)
(1.0031 -0.0016118 3.6559e-18)
(0.99477 -0.0011221 1.553e-17)
(1.0226 0.0025735 2.4839e-17)
(0.97588 -0.0025845 -7.5837e-19)
(1.0064 0.013823 1.5114e-17)
(1.0128 0.012388 -6.1705e-19)
(1.0063 0.038119 -2.2037e-18)
(0.99954 -0.00019359 4.4134e-18)
(0.99969 -0.00080507 -6.8873e-18)
(0.99997 -0.0012464 -1.3714e-17)
(1.0005 -0.0016797 -2.2754e-18)
(1.0007 -0.0017035 -2.9675e-17)
(1.0033 -0.0016452 -1.088e-17)
(0.9945 -0.0012266 -5.3941e-18)
(1.023 0.0027413 1.8175e-19)
(0.97712 -0.0028309 2.2532e-17)
(1.0051 0.013688 3.4762e-18)
(1.0126 0.012499 -7.9541e-18)
(1.0069 0.037748 1.3157e-18)
(0.99952 -0.00019824 -4.9479e-18)
(0.99967 -0.00082361 8.6035e-18)
(0.99996 -0.0012765 7.1787e-18)
(1.0005 -0.0017191 -4.5336e-18)
(1.0007 -0.0017512 2.3863e-17)
(1.0035 -0.0016781 1.3014e-17)
(0.99423 -0.0013377 -4.263e-18)
(1.0232 0.0029126 -2.5022e-17)
(0.9784 -0.0030701 -7.6927e-19)
(1.0039 0.01354 -9.9432e-18)
(1.0123 0.012584 9.4094e-18)
(1.0075 0.037367 -1.7239e-18)
(0.9995 -0.00020293 2.9731e-18)
(0.99966 -0.00084232 -1.6463e-18)
(0.99995 -0.001307 9.5051e-18)
(1.0005 -0.0017589 -1.9072e-17)
(1.0007 -0.0018 7.7914e-18)
(1.0036 -0.0017102 -4.6759e-18)
(0.99397 -0.0014553 -9.1789e-18)
(1.0235 0.0030866 -2.0064e-18)
(0.97972 -0.0033007 -2.716e-17)
(1.0028 0.01338 6.5529e-18)
(1.012 0.012644 -8.599e-18)
(1.008 0.036976 5.7316e-19)
(0.99947 -0.00020766 2.3507e-19)
(0.99964 -0.00086124 -5.179e-18)
(0.99994 -0.0013378 5.3976e-18)
(1.0005 -0.0017991 2.5102e-17)
(1.0007 -0.0018499 -1.8558e-17)
(1.0038 -0.0017416 1.5036e-17)
(0.99372 -0.0015797 -5.3054e-18)
(1.0237 0.0032626 4.6502e-18)
(0.98107 -0.0035217 3.2257e-17)
(1.0019 0.013209 -1.2161e-17)
(1.0116 0.012678 1.3126e-17)
(1.0085 0.036574 1.617e-18)
(0.99945 -0.00021244 4.2192e-19)
(0.99962 -0.00088035 -1.0719e-18)
(0.99993 -0.0013689 -7.7653e-18)
(1.0005 -0.0018398 -3.7792e-18)
(1.0006 -0.0019009 1.6173e-17)
(1.0039 -0.0017722 1.175e-19)
(0.99348 -0.0017107 -1.0425e-17)
(1.0238 0.0034399 -1.1094e-17)
(0.98244 -0.0037321 -1.3498e-17)
(1.0011 0.013028 -1.1434e-18)
(1.0113 0.012689 2.3875e-18)
(1.0089 0.036162 1.651e-19)
(0.99943 -0.00021727 -6.7894e-19)
(0.9996 -0.00089966 1.2755e-17)
(0.99991 -0.0014004 -5.1792e-18)
(1.0005 -0.0018808 -2.1355e-17)
(1.0006 -0.001953 7.455e-18)
(1.0041 -0.0018019 -3.8306e-17)
(0.99325 -0.0018483 5.2022e-18)
(1.0239 0.0036175 6.9879e-18)
(0.98383 -0.003931 6.2704e-19)
(1.0004 0.012838 1.2336e-17)
(1.011 0.012676 -8.1441e-19)
(1.0092 0.035739 -4.5074e-18)
(0.99941 -0.00022215 -1.7924e-19)
(0.99958 -0.00091917 -2.5029e-19)
(0.9999 -0.0014323 6.9721e-18)
(1.0005 -0.0019223 1.3184e-17)
(1.0006 -0.0020063 -2.9624e-17)
(1.0043 -0.0018308 1.6558e-18)
(0.99302 -0.0019925 9.3126e-18)
(1.0239 0.0037946 1.0939e-17)
(0.98521 -0.0041175 -8.5241e-18)
(0.99983 0.01264 -1.2003e-17)
(1.0107 0.012641 -1.2969e-17)
(1.0095 0.035307 4.7505e-18)
(0.99938 -0.00022707 -1.1729e-18)
(0.99956 -0.0009389 3.5648e-19)
(0.99989 -0.0014646 -3.3616e-18)
(1.0005 -0.0019643 -8.8022e-18)
(1.0006 -0.0020609 1.6421e-17)
(1.0045 -0.0018588 2.0557e-17)
(0.99281 -0.0021431 2.7147e-18)
(1.0239 0.0039705 5.5412e-18)
(0.9866 -0.0042912 1.3593e-17)
(0.99935 0.012437 2.0225e-18)
(1.0104 0.012586 9.5701e-18)
(1.0098 0.034864 -2.8802e-18)
(0.99936 -0.00023205 2.1589e-18)
(0.99954 -0.00095885 6.5722e-19)
(0.99987 -0.0014973 -4.8041e-18)
(1.0005 -0.0020067 1.3003e-18)
(1.0006 -0.0021167 -8.9031e-18)
(1.0046 -0.0018858 -4.931e-18)
(0.99261 -0.0023 -1.0039e-18)
(1.0239 0.004144 -2.502e-17)
(0.98797 -0.0044515 2.6636e-18)
(0.99898 0.012228 -4.0862e-18)
(1.0101 0.012511 -3.8927e-18)
(1.01 0.034413 -3.4587e-18)
(0.99933 -0.00023707 -4.4059e-18)
(0.99952 -0.00097902 8.5861e-19)
(0.99986 -0.0015304 2.5483e-18)
(1.0005 -0.0020496 -1.6338e-17)
(1.0006 -0.0021737 -1.0149e-17)
(1.0048 -0.0019118 -2.2886e-17)
(0.99242 -0.002463 4.8398e-18)
(1.0238 0.0043144 1.0217e-17)
(0.98933 -0.004598 -2.8579e-17)
(0.99871 0.012016 1.8849e-17)
(1.0099 0.012418 -4.197e-18)
(1.0102 0.033952 2.2341e-18)
(0.9993 -0.00024214 4.0444e-18)
(0.99949 -0.00099942 1.9215e-18)
(0.99984 -0.001564 9.7988e-19)
(1.0005 -0.0020929 5.1822e-18)
(1.0006 -0.0022322 -2.2413e-18)
(1.005 -0.0019369 4.4355e-17)
(0.99225 -0.0026319 1.7373e-17)
(1.0237 0.0044807 -1.5883e-17)
(0.99067 -0.0047306 2.7499e-17)
(0.99853 0.011801 -7.0325e-18)
(1.0097 0.012308 -2.7586e-18)
(1.0105 0.033483 -1.1057e-18)
(0.99928 -0.00024727 9.9204e-19)
(0.99947 -0.00102 -1.2168e-17)
(0.99983 -0.0015979 1.9613e-18)
(1.0005 -0.0021368 2.327e-17)
(1.0005 -0.002292 1.7347e-17)
(1.0052 -0.0019611 -7.1866e-19)
(0.99209 -0.0028063 -2.4071e-17)
(1.0235 0.004642 4.8125e-18)
(0.99198 -0.0048492 -6.1989e-18)
(0.99844 0.011584 -9.7194e-18)
(1.0095 0.012183 7.0243e-18)
(1.0107 0.033007 1.0369e-18)
(0.99925 -0.00025244 -3.9237e-18)
(0.99945 -0.0010409 -4.0564e-18)
(0.99981 -0.0016323 -1.0624e-17)
(1.0005 -0.0021811 -1.9516e-17)
(1.0005 -0.0023531 -1.7454e-17)
(1.0053 -0.0019843 -2.0154e-17)
(0.99195 -0.0029861 4.4428e-18)
(1.0233 0.0047975 3.7382e-17)
(0.99325 -0.004954 2.6989e-18)
(0.99843 0.011367 -8.4346e-19)
(1.0094 0.012043 -2.4764e-18)
(1.0109 0.032523 -2.7641e-18)
(0.99922 -0.00025767 2.9116e-18)
(0.99942 -0.001062 3.7681e-18)
(0.99979 -0.0016671 1.6372e-17)
(1.0005 -0.002226 1.3516e-17)
(1.0005 -0.0024158 1.698e-17)
(1.0055 -0.0020066 -7.4938e-19)
(0.99182 -0.0031709 -2.475e-17)
(1.0231 0.0049462 -2.0204e-17)
(0.99449 -0.005045 6.6931e-18)
(0.99849 0.011149 3.3642e-18)
(1.0094 0.01189 5.5703e-18)
(1.0111 0.032034 2.1429e-18)
(0.99919 -0.00026296 -2.0562e-18)
(0.9994 -0.0010834 5.9112e-18)
(0.99977 -0.0017023 -1.0832e-17)
(1.0005 -0.0022713 1.956e-18)
(1.0005 -0.0024798 7.894e-18)
(1.0057 -0.002028 -1.97e-18)
(0.99171 -0.0033602 5.5599e-18)
(1.0229 0.0050874 5.6087e-18)
(0.9957 -0.0051227 2.197e-18)
(0.99862 0.010933 8.3004e-18)
(1.0093 0.011724 -6.6955e-18)
(1.0113 0.031538 4.348e-19)
(0.99916 -0.00026829 3.1046e-18)
(0.99937 -0.001105 3.6636e-19)
(0.99976 -0.001738 -5.0705e-18)
(1.0005 -0.0023172 7.7847e-19)
(1.0004 -0.0025454 -1.2976e-18)
(1.0059 -0.0020486 -1.9454e-17)
(0.99161 -0.0035539 1.5511e-17)
(1.0226 0.0052202 1.9902e-17)
(0.99686 -0.0051875 -1.0963e-17)
(0.99881 0.010718 -1.1541e-17)
(1.0093 0.011548 -1.9497e-18)
(1.0116 0.031038 3.6615e-18)
(0.99913 -0.00027369 -2.2553e-18)
(0.99934 -0.0011269 -2.8214e-19)
(0.99974 -0.0017742 6.3044e-18)
(1.0005 -0.0023636 -1.4955e-17)
(1.0004 -0.0026125 -1.1727e-17)
(1.0061 -0.0020684 2.456e-17)
(0.99153 -0.0037513 -2.3713e-18)
(1.0223 0.0053438 -2.1074e-17)
(0.99797 -0.0052399 2.7897e-18)
(0.99905 0.010506 1.0861e-17)
(1.0094 0.011363 6.6135e-18)
(1.0118 0.030534 -1.3198e-18)
(0.9991 -0.00027914 2.2411e-19)
(0.99932 -0.0011491 2.0667e-18)
(0.99972 -0.0018109 3.4446e-18)
(1.0005 -0.0024106 7.731e-18)
(1.0004 -0.0026811 2.2983e-17)
(1.0063 -0.0020876 5.7244e-18)
(0.99147 -0.0039522 -2.064e-17)
(1.022 0.0054577 1.9736e-18)
(0.99904 -0.0052806 7.1805e-18)
(0.99934 0.010297 -9.7757e-18)
(1.0095 0.011168 -4.4656e-18)
(1.012 0.030026 -1.5213e-18)
(0.99907 -0.00028464 6.3633e-19)
(0.99929 -0.0011715 -3.5949e-19)
(0.9997 -0.001848 -9.0889e-18)
(1.0005 -0.0024582 -1.6627e-19)
(1.0003 -0.0027513 -4.5439e-17)
(1.0064 -0.0021062 7.0569e-18)
(0.99142 -0.0041561 2.0276e-17)
(1.0216 0.005561 -5.6722e-18)
(1.0001 -0.0053104 -7.523e-18)
(0.99967 0.01009 1.6222e-17)
(1.0096 0.010967 5.3329e-18)
(1.0123 0.029515 3.9357e-18)
(0.99903 -0.00029021 6.8355e-19)
(0.99926 -0.0011942 -7.4597e-19)
(0.99967 -0.0018856 1.6437e-17)
(1.0005 -0.0025063 3.5654e-18)
(1.0003 -0.002823 4.0265e-17)
(1.0066 -0.0021244 -2.4875e-17)
(0.99139 -0.0043624 -6.7861e-18)
(1.0213 0.0056533 5.3369e-18)
(1.001 -0.0053299 2.5867e-18)
(1 0.009888 -9.1256e-18)
(1.0097 0.010758 -8.6697e-19)
(1.0126 0.029002 -2.9006e-18)
(0.999 -0.00029583 -2.6713e-18)
(0.99923 -0.0012172 1.2525e-18)
(0.99965 -0.0019238 -9.6612e-18)
(1.0006 -0.0025551 4.6881e-18)
(1.0003 -0.0028964 -1.5299e-17)
(1.0068 -0.0021422 3.3733e-18)
(0.99137 -0.0045709 2.7169e-17)
(1.0209 0.005734 -1.9974e-17)
(1.002 -0.0053402 -9.5126e-18)
(1.0004 0.0096894 -9.0141e-18)
(1.0099 0.010544 -4.2308e-18)
(1.0128 0.028488 -7.9368e-19)
(0.99897 -0.00030151 3.3275e-18)
(0.9992 -0.0012405 -2.9746e-18)
(0.99963 -0.0019624 -9.3756e-18)
(1.0006 -0.0026045 -7.476e-18)
(1.0002 -0.0029713 -2.5012e-17)
(1.007 -0.0021597 -1.5641e-17)
(0.99137 -0.0047809 -1.6658e-17)
(1.0205 0.0058027 1.857e-17)
(1.0028 -0.005342 9.2155e-18)
(1.0009 0.0094948 1.3646e-17)
(1.0101 0.010325 -1.6501e-18)
(1.0131 0.027973 3.8261e-18)
(0.99893 -0.00030726 -5.348e-18)
(0.99917 -0.0012641 4.8197e-18)
(0.99961 -0.0020015 2.2956e-17)
(1.0006 -0.0026545 -1.7632e-18)
(1.0002 -0.0030479 2.7672e-17)
(1.0071 -0.0021772 1.1812e-18)
(0.99139 -0.0049922 -1.5947e-17)
(1.0202 0.005859 7.2656e-18)
(1.0037 -0.0053364 -3.3239e-18)
(1.0013 0.0093042 -2.8579e-18)
(1.0104 0.010101 5.3568e-18)
(1.0134 0.027457 -2.5871e-18)
(0.99889 -0.00031306 4.3827e-18)
(0.99913 -0.001288 -6.5502e-18)
(0.99958 -0.0020412 -2.6765e-17)
(1.0005 -0.0027051 1.1534e-17)
(1.0001 -0.0031261 -1.9714e-17)
(1.0073 -0.0021947 2.1619e-17)
(0.99141 -0.0052041 5.1997e-18)
(1.0198 0.0059026 -6.9178e-18)
(1.0045 -0.0053243 -1.5941e-18)
(1.0017 0.0091178 -7.1441e-18)
(1.0106 0.0098745 -8.7169e-18)
(1.0137 0.026941 3.5616e-18)
(0.99886 -0.00031893 -3.2283e-18)
(0.9991 -0.0013123 2.1781e-18)
(0.99956 -0.0020814 1.6263e-17)
(1.0005 -0.0027565 -1.5205e-17)
(1.0001 -0.0032059 3.1718e-17)
(1.0075 -0.0022125 -1.6777e-17)
(0.99145 -0.0054164 3.0305e-18)
(1.0194 0.0059332 -1.093e-17)
(1.0052 -0.0053067 5.1958e-18)
(1.0022 0.0089352 -9.95e-19)
(1.0109 0.0096446 3.7337e-18)
(1.014 0.026426 -1.5882e-18)
(0.99882 -0.00032486 3.9594e-18)
(0.99907 -0.0013368 1.6957e-18)
(0.99953 -0.0021222 -1.0842e-17)
(1.0005 -0.0028085 -3.0912e-19)
(1.0001 -0.0032873 -1.4012e-18)
(1.0077 -0.0022306 4.0583e-18)
(0.99151 -0.0056285 2.8752e-17)
(1.019 0.0059507 7.4758e-18)
(1.0059 -0.0052846 -1.5396e-17)
(1.0027 0.0087565 -5.1675e-18)
(1.0112 0.0094122 -3.4939e-18)
(1.0144 0.025912 1.6545e-18)
(0.99878 -0.00033085 -4.5383e-18)
(0.99903 -0.0013618 -6.2839e-18)
(0.9995 -0.0021635 4.5488e-18)
(1.0005 -0.0028613 1.3155e-17)
(1 -0.0033703 -2.8769e-17)