/*--------------------------------*- C++ -*----------------------------------*\
  =========                 |
  \\      /  F ield         | OpenFOAM: The Open Source CFD Toolbox
   \\    /   O peration     | Website:  https://openfoam.org
    \\  /    A nd           | Version:  6.0
     \\/     M anipulation  |
\*---------------------------------------------------------------------------*/
FoamFile
{
    version     2.0;
    format      ascii;
    class       volScalarField;
    location    "2.85";
    object      p;
}
// * * * * * * * * * * * * * * * * * * * * * * * * * * * * * * * * * * * * * //

dimensions      [0 2 -2 0 0 0 0];

internalField   nonuniform List<scalar> 
13500
(
0.097479
0.097499
0.09703
0.096582
0.095555
0.095196
0.094113
0.095061
0.095835
0.099831
0.12204
0.16427
0.097479
0.097499
0.09703
0.096583
0.095555
0.095196
0.094112
0.095061
0.095831
0.099893
0.12136
0.15921
0.097479
0.0975
0.097031
0.096584
0.095554
0.095197
0.094109
0.095061
0.095821
0.099937
0.12049
0.15471
0.09748
0.097501
0.097031
0.096585
0.095554
0.095198
0.094105
0.095059
0.095806
0.099958
0.11951
0.15121
0.097481
0.097503
0.097032
0.096587
0.095553
0.095199
0.094101
0.095057
0.095785
0.099965
0.11848
0.14824
0.097483
0.097505
0.097033
0.096589
0.095553
0.095199
0.094096
0.095053
0.095759
0.099959
0.1174
0.1456
0.097485
0.097508
0.097034
0.096591
0.095553
0.0952
0.094091
0.095048
0.095728
0.09994
0.11632
0.1432
0.097487
0.09751
0.097036
0.096593
0.095553
0.0952
0.094085
0.095043
0.095692
0.099908
0.11525
0.141
0.09749
0.097514
0.097038
0.096595
0.095553
0.0952
0.094078
0.095036
0.095651
0.099861
0.1142
0.13896
0.097493
0.097517
0.097041
0.096598
0.095553
0.0952
0.094071
0.095028
0.095605
0.099802
0.11318
0.13706
0.097497
0.097521
0.097044
0.096601
0.095553
0.0952
0.094063
0.095019
0.095553
0.09973
0.1122
0.13528
0.097501
0.097526
0.097047
0.096604
0.095554
0.095199
0.094055
0.095009
0.095496
0.099647
0.11127
0.1336
0.097505
0.09753
0.097051
0.096608
0.095555
0.095199
0.094046
0.094998
0.095434
0.099553
0.11037
0.13201
0.09751
0.097535
0.097055
0.096612
0.095555
0.095198
0.094036
0.094985
0.095366
0.09945
0.10952
0.13049
0.097516
0.097541
0.097059
0.096616
0.095556
0.095197
0.094026
0.094972
0.095293
0.09934
0.1087
0.12905
0.097522
0.097547
0.097064
0.09662
0.095557
0.095196
0.094015
0.094957
0.095214
0.099224
0.10793
0.12767
0.097528
0.097553
0.097069
0.096624
0.095558
0.095195
0.094004
0.094941
0.09513
0.099103
0.10718
0.12635
0.097535
0.09756
0.097075
0.096629
0.09556
0.095193
0.093992
0.094924
0.09504
0.098979
0.10647
0.12509
0.097542
0.097567
0.097081
0.096634
0.095561
0.095192
0.09398
0.094905
0.094945
0.098853
0.10579
0.12387
0.097549
0.097574
0.097087
0.096639
0.095563
0.09519
0.093967
0.094886
0.094845
0.098725
0.10512
0.1227
0.097557
0.097582
0.097094
0.096644
0.095565
0.095188
0.093953
0.094864
0.09474
0.098597
0.10448
0.12156
0.097566
0.097591
0.097101
0.09665
0.095567
0.095186
0.093939
0.094842
0.094631
0.09847
0.10386
0.12046
0.097575
0.0976
0.097108
0.096656
0.095569
0.095184
0.093924
0.094818
0.094517
0.098343
0.10325
0.1194
0.097585
0.097609
0.097116
0.096662
0.095571
0.095182
0.093909
0.094792
0.094399
0.098218
0.10266
0.11836
0.097595
0.097618
0.097125
0.096669
0.095574
0.095179
0.093893
0.094765
0.094278
0.098095
0.10207
0.11735
0.097605
0.097629
0.097134
0.096676
0.095577
0.095176
0.093877
0.094736
0.094153
0.097972
0.1015
0.11637
0.097616
0.097639
0.097143
0.096683
0.095579
0.095174
0.09386
0.094706
0.094025
0.097852
0.10093
0.11541
0.097627
0.09765
0.097152
0.09669
0.095582
0.09517
0.093843
0.094674
0.093895
0.097733
0.10037
0.11448
0.097639
0.097662
0.097163
0.096698
0.095586
0.095167
0.093825
0.094641
0.093762
0.097616
0.099816
0.11356
0.097652
0.097674
0.097173
0.096706
0.095589
0.095164
0.093807
0.094606
0.093627
0.0975
0.099268
0.11266
0.097665
0.097686
0.097184
0.096714
0.095593
0.09516
0.093788
0.09457
0.09349
0.097385
0.098726
0.11178
0.097678
0.097699
0.097195
0.096723
0.095597
0.095156
0.093769
0.094532
0.093352
0.09727
0.098187
0.11092
0.097692
0.097712
0.097207
0.096731
0.095601
0.095153
0.093749
0.094492
0.093214
0.097156
0.097654
0.11008
0.097707
0.097726
0.09722
0.096741
0.095605
0.095148
0.093728
0.094452
0.093074
0.097042
0.097125
0.10925
0.097722
0.09774
0.097232
0.09675
0.09561
0.095144
0.093707
0.094409
0.092934
0.096928
0.096601
0.10844
0.097737
0.097755
0.097246
0.09676
0.095614
0.09514
0.093686
0.094366
0.092794
0.096813
0.096082
0.10764
0.097754
0.09777
0.097259
0.09677
0.095619
0.095135
0.093664
0.094321
0.092653
0.096697
0.095567
0.10686
0.09777
0.097786
0.097274
0.09678
0.095624
0.09513
0.093641
0.094275
0.092513
0.096581
0.095058
0.10609
0.097787
0.097802
0.097288
0.096791
0.09563
0.095125
0.093618
0.094228
0.092373
0.096463
0.094553
0.10534
0.097805
0.097819
0.097304
0.096802
0.095635
0.09512
0.093595
0.09418
0.092233
0.096344
0.094055
0.1046
0.097823
0.097837
0.097319
0.096813
0.095641
0.095115
0.093571
0.094131
0.092094
0.096223
0.093562
0.10387
0.097842
0.097854
0.097335
0.096825
0.095648
0.095109
0.093546
0.094082
0.091955
0.0961
0.093074
0.10316
0.097862
0.097873
0.097352
0.096837
0.095654
0.095104
0.093521
0.094032
0.091817
0.095975
0.092593
0.10246
0.097882
0.097892
0.097369
0.096849
0.095661
0.095098
0.093495
0.093981
0.091679
0.095848
0.092119
0.10177
0.097902
0.097911
0.097387
0.096862
0.095668
0.095092
0.093468
0.09393
0.091542
0.095719
0.09165
0.1011
0.097924
0.097931
0.097405
0.096875
0.095675
0.095086
0.093442
0.093879
0.091405
0.095588
0.091189
0.10044
0.097945
0.097952
0.097424
0.096888
0.095682
0.09508
0.093414
0.093827
0.091268
0.095454
0.090734
0.099787
0.097968
0.097973
0.097443
0.096902
0.09569
0.095073
0.093386
0.093776
0.091132
0.095318
0.090286
0.09915
0.097991
0.097994
0.097463
0.096916
0.095698
0.095067
0.093358
0.093725
0.090996
0.09518
0.089844
0.098524
0.098014
0.098016
0.097483
0.096931
0.095706
0.09506
0.093329
0.093673
0.090861
0.095039
0.08941
0.09791
0.098038
0.098039
0.097504
0.096946
0.095715
0.095054
0.093299
0.093622
0.090725
0.094896
0.088983
0.097307
0.098063
0.098062
0.097525
0.096961
0.095724
0.095047
0.093269
0.093571
0.09059
0.094751
0.088563
0.096715
0.098088
0.098086
0.097547
0.096977
0.095733
0.09504
0.093239
0.093521
0.090454
0.094604
0.088149
0.096134
0.098114
0.098111
0.097569
0.096993
0.095743
0.095033
0.093208
0.093471
0.090319
0.094455
0.087743
0.095563
0.098141
0.098136
0.097592
0.097009
0.095752
0.095026
0.093177
0.093421
0.090183
0.094303
0.087343
0.095003
0.098168
0.098161
0.097616
0.097026
0.095763
0.095019
0.093145
0.093372
0.090047
0.094149
0.086951
0.094452
0.098196
0.098188
0.09764
0.097043
0.095773
0.095012
0.093113
0.093324
0.089911
0.093994
0.086565
0.093912
0.098224
0.098215
0.097664
0.097061
0.095784
0.095005
0.093081
0.093275
0.089775
0.093836
0.086185
0.09338
0.098254
0.098242
0.097689
0.097079
0.095795
0.094998
0.093048
0.093228
0.089639
0.093677
0.085813
0.092858
0.098283
0.09827
0.097715
0.097097
0.095806
0.094991
0.093015
0.093181
0.089502
0.093515
0.085446
0.092344
0.098314
0.098299
0.097742
0.097116
0.095818
0.094984
0.092981
0.093134
0.089364
0.093352
0.085086
0.09184
0.098345
0.098328
0.097768
0.097135
0.09583
0.094977
0.092947
0.093088
0.089227
0.093188
0.084732
0.091343
0.098377
0.098358
0.097796
0.097155
0.095842
0.09497
0.092913
0.093043
0.089089
0.093021
0.084385
0.090855
0.098409
0.098389
0.097824
0.097175
0.095855
0.094963
0.092878
0.092997
0.088951
0.092853
0.084043
0.090375
0.098442
0.09842
0.097853
0.097196
0.095868
0.094956
0.092843
0.092953
0.088812
0.092684
0.083707
0.089903
0.098476
0.098452
0.097882
0.097217
0.095881
0.09495
0.092808
0.092908
0.088674
0.092514
0.083376
0.089438
0.09851
0.098484
0.097912
0.097238
0.095895
0.094943
0.092773
0.092864
0.088535
0.092342
0.083052
0.08898
0.098546
0.098517
0.097943
0.09726
0.095909
0.094937
0.092737
0.09282
0.088395
0.092168
0.082732
0.08853
0.098581
0.098551
0.097974
0.097283
0.095923
0.094931
0.092701
0.092777
0.088256
0.091994
0.082418
0.088086
0.098618
0.098586
0.098005
0.097306
0.095938
0.094925
0.092665
0.092733
0.088116
0.091819
0.082109
0.087649
0.098655
0.098621
0.098038
0.097329
0.095953
0.09492
0.092629
0.09269
0.087977
0.091642
0.081806
0.087219
0.098693
0.098657
0.098071
0.097353
0.095968
0.094914
0.092592
0.092647
0.087837
0.091464
0.081507
0.086795
0.098732
0.098694
0.098104
0.097377
0.095984
0.094909
0.092556
0.092604
0.087698
0.091286
0.081213
0.086377
0.098771
0.098731
0.098139
0.097402
0.095999
0.094904
0.092519
0.09256
0.087559
0.091107
0.080923
0.085965
0.098811
0.098769
0.098174
0.097428
0.096016
0.0949
0.092481
0.092517
0.087419
0.090927
0.080639
0.085559
0.098852
0.098808
0.098209
0.097454
0.096032
0.094896
0.092444
0.092474
0.08728
0.090746
0.080359
0.085159
0.098894
0.098847
0.098245
0.097481
0.096049
0.094892
0.092406
0.092431
0.087141
0.090564
0.080083
0.084764
0.098936
0.098888
0.098282
0.097508
0.096066
0.094888
0.092369
0.092387
0.087003
0.090382
0.079811
0.084375
0.098979
0.098929
0.09832
0.097536
0.096084
0.094885
0.092331
0.092343
0.086865
0.090199
0.079544
0.08399
0.099023
0.098971
0.098358
0.097564
0.096102
0.094882
0.092292
0.092299
0.086727
0.090016
0.079281
0.083611
0.099068
0.099013
0.098397
0.097593
0.09612
0.09488
0.092254
0.092255
0.08659
0.089832
0.079022
0.083237
0.099113
0.099056
0.098436
0.097622
0.096139
0.094878
0.092216
0.092211
0.086453
0.089648
0.078766
0.082868
0.09916
0.0991
0.098477
0.097653
0.096157
0.094876
0.092177
0.092166
0.086317
0.089463
0.078515
0.082503
0.099207
0.099145
0.098518
0.097683
0.096177
0.094875
0.092138
0.092121
0.086182
0.089278
0.078267
0.082143
0.099255
0.099191
0.098559
0.097715
0.096196
0.094875
0.0921
0.092075
0.086047
0.089092
0.078023
0.081788
0.099303
0.099238
0.098602
0.097747
0.096216
0.094875
0.092061
0.092029
0.085913
0.088907
0.077783
0.081437
0.099353
0.099285
0.098645
0.097779
0.096236
0.094875
0.092022
0.091983
0.085779
0.088721
0.077545
0.08109
0.099403
0.099333
0.098689
0.097813
0.096257
0.094876
0.091983
0.091936
0.085647
0.088535
0.077312
0.080747
0.099454
0.099382
0.098733
0.097847
0.096278
0.094877
0.091944
0.091888
0.085515
0.088349
0.077081
0.080408
0.099506
0.099432
0.098779
0.097882
0.096299
0.094879
0.091904
0.091841
0.085383
0.088162
0.076854
0.080073
0.099559
0.099483
0.098825
0.097917
0.096321
0.094881
0.091865
0.091792
0.085253
0.087976
0.07663
0.079742
0.099613
0.099534
0.098872
0.097953
0.096343
0.094884
0.091826
0.091744
0.085123
0.087789
0.076409
0.079415
0.099668
0.099587
0.098919
0.09799
0.096365
0.094887
0.091787
0.091694
0.084995
0.087603
0.076191
0.079091
0.099723
0.099641
0.098968
0.098028
0.096388
0.094891
0.091748
0.091645
0.084867
0.087416
0.075976
0.078771
0.09978
0.099695
0.099017
0.098066
0.096411
0.094896
0.091708
0.091594
0.08474
0.087229
0.075764
0.078454
0.099837
0.09975
0.099067
0.098106
0.096435
0.094901
0.091669
0.091543
0.084614
0.087043
0.075555
0.07814
0.099896
0.099807
0.099118
0.098146
0.096459
0.094906
0.09163
0.091492
0.084489
0.086856
0.075348
0.07783
0.099955
0.099864
0.09917
0.098186
0.096483
0.094912
0.091591
0.09144
0.084365
0.086669
0.075144
0.077522
0.10002
0.099922
0.099222
0.098228
0.096508
0.094919
0.091553
0.091388
0.084242
0.086483
0.074942
0.077218
0.10008
0.099982
0.099276
0.098271
0.096533
0.094927
0.091514
0.091335
0.084119
0.086297
0.074743
0.076916
0.10014
0.10004
0.09933
0.098314
0.096559
0.094935
0.091475
0.091281
0.083998
0.08611
0.074546
0.076618
0.1002
0.1001
0.099385
0.098358
0.096586
0.094943
0.091437
0.091227
0.083878
0.085924
0.074352
0.076322
0.10027
0.10017
0.099442
0.098404
0.096612
0.094952
0.091399
0.091172
0.083758
0.085738
0.07416
0.076028
0.10033
0.10023
0.099499
0.09845
0.09664
0.094962
0.091361
0.091117
0.08364
0.085552
0.07397
0.075738
0.1004
0.10029
0.099557
0.098497
0.096668
0.094973
0.091323
0.091061
0.083522
0.085366
0.073782
0.075449
0.10047
0.10036
0.099616
0.098545
0.096696
0.094984
0.091286
0.091005
0.083405
0.08518
0.073596
0.075163
0.10054
0.10043
0.099676
0.098594
0.096725
0.094996
0.091249
0.090948
0.08329
0.084995
0.073412
0.07488
0.10061
0.1005
0.099738
0.098644
0.096755
0.095009
0.091212
0.09089
0.083175
0.08481
0.07323
0.074598
0.10068
0.10057
0.0998
0.098695
0.096785
0.095022
0.091175
0.090832
0.083061
0.084624
0.07305
0.074319
0.10075
0.10064
0.099864
0.098747
0.096816
0.095036
0.091139
0.090774
0.082948
0.084439
0.072871
0.074041
0.10082
0.10071
0.099928
0.098801
0.096847
0.095051
0.091104
0.090715
0.082836
0.084254
0.072695
0.073766
0.1009
0.10078
0.099994
0.098855
0.096879
0.095066
0.091068
0.090656
0.082725
0.08407
0.07252
0.073492
0.10098
0.10086
0.10006
0.098911
0.096912
0.095083
0.091033
0.090596
0.082615
0.083885
0.072346
0.07322
0.10105
0.10093
0.10013
0.098967
0.096946
0.0951
0.090999
0.090535
0.082505
0.083701
0.072174
0.07295
0.10113
0.10101
0.1002
0.099026
0.096981
0.095118
0.090965
0.090474
0.082397
0.083516
0.072003
0.072681
0.10121
0.10109
0.10027
0.099085
0.097016
0.095137
0.090932
0.090413
0.08229
0.083332
0.071834
0.072414
0.1013
0.10117
0.10034
0.099146
0.097053
0.095156
0.090899
0.090351
0.082183
0.083148
0.071666
0.072148
0.10138
0.10126
0.10042
0.099208
0.09709
0.095177
0.090867
0.090289
0.082077
0.082964
0.071499
0.071883
0.10146
0.10134
0.10049
0.099271
0.097128
0.095199
0.090835
0.090227
0.081972
0.08278
0.071334
0.07162
0.10155
0.10143
0.10057
0.099336
0.097168
0.095221
0.090804
0.090164
0.081868
0.082597
0.071169
0.071358
0.10164
0.10151
0.10065
0.099402
0.097208
0.095245
0.090774
0.090101
0.081765
0.082413
0.071005
0.071097
0.10173
0.1016
0.10073
0.09947
0.09725
0.09527
0.090745
0.090037
0.081663
0.08223
0.070843
0.070837
0.10182
0.10169
0.10081
0.09954
0.097292
0.095295
0.090716
0.089973
0.081561
0.082047
0.070681
0.070577
0.10192
0.10179
0.10089
0.099611
0.097336
0.095322
0.090688
0.089909
0.081461
0.081863
0.07052
0.070319
0.10201
0.10188
0.10098
0.099684
0.097381
0.09535
0.090661
0.089845
0.081361
0.08168
0.07036
0.070061
0.10211
0.10198
0.10107
0.099759
0.097428
0.095379
0.090635
0.089781
0.081262
0.081497
0.0702
0.069804
0.10221
0.10208
0.10115
0.099836
0.097476
0.09541
0.09061
0.089716
0.081164
0.081314
0.070041
0.069547
0.10231
0.10218
0.10125
0.099915
0.097526
0.095442
0.090586
0.089652
0.081066
0.081131
0.069883
0.069291
0.10242
0.10229
0.10134
0.099996
0.097577
0.095475
0.090564
0.089587
0.08097
0.080948
0.069725
0.069035
0.10253
0.10239
0.10144
0.10008
0.09763
0.095509
0.090542
0.089523
0.080874
0.080765
0.069567
0.068779
0.10264
0.1025
0.10153
0.10016
0.097684
0.095545
0.090522
0.089458
0.080779
0.080582
0.06941
0.068524
0.10275
0.10261
0.10163
0.10025
0.097741
0.095583
0.090503
0.089394
0.080685
0.080399
0.069253
0.068269
0.10286
0.10273
0.10174
0.10034
0.097799
0.095622
0.090485
0.08933
0.080592
0.080217
0.069097
0.068013
0.10298
0.10284
0.10184
0.10043
0.097859
0.095663
0.090469
0.089266
0.0805
0.080034
0.06894
0.067758
0.1031
0.10296
0.10195
0.10053
0.097922
0.095706
0.090455
0.089202
0.080408
0.079851
0.068784
0.067502
0.10322
0.10309
0.10206
0.10063
0.097986
0.09575
0.090442
0.089139
0.080318
0.079668
0.068627
0.067246
0.10335
0.10321
0.10218
0.10073
0.098053
0.095797
0.090431
0.089076
0.080228
0.079485
0.068471
0.06699
0.10348
0.10334
0.1023
0.10083
0.098123
0.095845
0.090421
0.089014
0.080139
0.079302
0.068314
0.066733
0.10361
0.10348
0.10242
0.10094
0.098195
0.095896
0.090414
0.088952
0.080051
0.079119
0.068157
0.066475
0.10375
0.10361
0.10254
0.10105
0.09827
0.095949
0.090409
0.088891
0.079964
0.078936
0.068
0.066217
0.10389
0.10375
0.10267
0.10116
0.098348
0.096004
0.090405
0.088831
0.079879
0.078754
0.067843
0.065958
0.10403
0.1039
0.1028
0.10128
0.098429
0.096062
0.090405
0.088771
0.079794
0.078571
0.067685
0.065698
0.10418
0.10405
0.10294
0.1014
0.098512
0.096122
0.090406
0.088712
0.07971
0.078388
0.067526
0.065437
0.10433
0.1042
0.10308
0.10153
0.0986
0.096185
0.09041
0.088655
0.079627
0.078205
0.067368
0.065175
0.10449
0.10436
0.10322
0.10165
0.09869
0.09625
0.090417
0.088598
0.079545
0.078022
0.067208
0.064912
0.10465
0.10452
0.10337
0.10179
0.098785
0.096319
0.090426
0.088543
0.079465
0.077838
0.067048
0.064647
0.10481
0.10468
0.10352
0.10192
0.098883
0.096391
0.090438
0.088489
0.079385
0.077655
0.066887
0.064381
0.10498
0.10485
0.10368
0.10207
0.098985
0.096466
0.090453
0.088436
0.079307
0.077472
0.066726
0.064114
0.10516
0.10503
0.10384
0.10221
0.099092
0.096544
0.090472
0.088386
0.07923
0.077289
0.066563
0.063845
0.10534
0.10521
0.10401
0.10237
0.099202
0.096626
0.090494
0.088336
0.079154
0.077106
0.0664
0.063574
0.10552
0.1054
0.10418
0.10252
0.099318
0.096712
0.090519
0.088289
0.07908
0.076923
0.066236
0.063301
0.10571
0.10559
0.10436
0.10269
0.099438
0.096802
0.090548
0.088243
0.079007
0.07674
0.06607
0.063026
0.10591
0.10579
0.10455
0.10286
0.099564
0.096896
0.090581
0.0882
0.078936
0.076557
0.065903
0.062749
0.10611
0.10599
0.10474
0.10303
0.099694
0.096994
0.090617
0.088158
0.078866
0.076374
0.065736
0.062469
0.10632
0.10621
0.10494
0.10321
0.099831
0.097096
0.090658
0.088119
0.078798
0.076191
0.065566
0.062187
0.10654
0.10642
0.10514
0.1034
0.099973
0.097204
0.090704
0.088083
0.078732
0.076008
0.065396
0.061903
0.10676
0.10665
0.10535
0.10359
0.10012
0.097316
0.090753
0.088049
0.078667
0.075826
0.065224
0.061616
0.10699
0.10688
0.10557
0.10379
0.10027
0.097433
0.090808
0.088017
0.078604
0.075643
0.06505
0.061326
0.10722
0.10712
0.10579
0.104
0.10044
0.097556
0.090867
0.087989
0.078543
0.07546
0.064875
0.061033
0.10747
0.10737
0.10603
0.10422
0.1006
0.097684
0.090932
0.087964
0.078483
0.075277
0.064697
0.060736
0.10772
0.10762
0.10627
0.10444
0.10078
0.097818
0.091002
0.087942
0.078426
0.075095
0.064518
0.060437
0.10798
0.10789
0.10652
0.10467
0.10096
0.097958
0.091077
0.087923
0.078371
0.074912
0.064337
0.060134
0.10825
0.10816
0.10677
0.10491
0.10115
0.098105
0.091158
0.087907
0.078318
0.07473
0.064154
0.059827
0.10852
0.10844
0.10704
0.10516
0.10135
0.098258
0.091245
0.087896
0.078267
0.074547
0.063969
0.059516
0.10881
0.10873
0.10732
0.10542
0.10155
0.098417
0.091338
0.087888
0.078218
0.074364
0.063781
0.059201
0.1091
0.10903
0.1076
0.10568
0.10177
0.098584
0.091437
0.087884
0.078171
0.074182
0.063591
0.058881
0.10941
0.10934
0.1079
0.10596
0.10199
0.098758
0.091543
0.087883
0.078127
0.073999
0.063398
0.058558
0.10972
0.10966
0.1082
0.10624
0.10223
0.098939
0.091655
0.087888
0.078084
0.073816
0.063202
0.058229
0.11004
0.10999
0.10852
0.10654
0.10247
0.099128
0.091775
0.087896
0.078045
0.073633
0.063004
0.057895
0.11038
0.11033
0.10884
0.10685
0.10272
0.099325
0.091901
0.087909
0.078007
0.07345
0.062802
0.057556
0.11072
0.11068
0.10918
0.10717
0.10298
0.09953
0.092034
0.087926
0.077972
0.073266
0.062597
0.057211
0.11107
0.11105
0.10953
0.10749
0.10326
0.099744
0.092175
0.087947
0.077939
0.073081
0.062388
0.05686
0.11144
0.11142
0.10989
0.10783
0.10354
0.099966
0.092324
0.087974
0.077908
0.072896
0.062175
0.056504
0.11182
0.11181
0.11026
0.10819
0.10383
0.1002
0.09248
0.088005
0.07788
0.072711
0.061958
0.05614
0.11221
0.11221
0.11065
0.10855
0.10414
0.10044
0.092645
0.088041
0.077853
0.072524
0.061737
0.05577
0.11261
0.11262
0.11104
0.10893
0.10446
0.10069
0.092817
0.088081
0.077829
0.072336
0.061511
0.055392
0.11302
0.11304
0.11146
0.10932
0.10479
0.10095
0.092997
0.088127
0.077807
0.072147
0.06128
0.055007
0.11345
0.11348
0.11188
0.10972
0.10513
0.10122
0.093186
0.088177
0.077786
0.071957
0.061044
0.054613
0.11389
0.11393
0.11232
0.11013
0.10549
0.1015
0.093383
0.088232
0.077768
0.071765
0.060802
0.054211
0.11434
0.1144
0.11277
0.11056
0.10586
0.10179
0.093589
0.088292
0.07775
0.07157
0.060553
0.0538
0.1148
0.11488
0.11324
0.11101
0.10624
0.10209
0.093803
0.088356
0.077734
0.071373
0.060299
0.053379
0.11528
0.11537
0.11372
0.11147
0.10663
0.1024
0.094026
0.088425
0.077719
0.071173
0.060037
0.052948
0.11578
0.11588
0.11422
0.11194
0.10704
0.10272
0.094257
0.088499
0.077705
0.070971
0.059767
0.052507
0.11629
0.11641
0.11473
0.11243
0.10747
0.10305
0.094498
0.088577
0.077691
0.070764
0.05949
0.052054
0.11681
0.11695
0.11526
0.11293
0.1079
0.1034
0.094747
0.088659
0.077678
0.070554
0.059204
0.051589
0.11735
0.11751
0.11581
0.11345
0.10836
0.10375
0.095005
0.088746
0.077664
0.070339
0.058908
0.051111
0.1179
0.11808
0.11638
0.11399
0.10883
0.10412
0.095272
0.088836
0.07765
0.070119
0.058602
0.05062
0.11848
0.11867
0.11696
0.11454
0.10931
0.1045
0.095548
0.08893
0.077635
0.069894
0.058286
0.050115
0.11906
0.11928
0.11756
0.11511
0.10982
0.10489
0.095833
0.089028
0.077619
0.069662
0.057959
0.049596
0.11967
0.11991
0.11818
0.1157
0.11034
0.10529
0.096127
0.089128
0.077601
0.069423
0.057619
0.04906
0.12029
0.12056
0.11882
0.11631
0.11087
0.10571
0.09643
0.089232
0.077581
0.069178
0.057266
0.048508
0.12094
0.12122
0.11948
0.11693
0.11143
0.10614
0.096743
0.089339
0.077558
0.068923
0.0569
0.047938
0.1216
0.12191
0.12017
0.11758
0.112
0.10659
0.097065
0.089449
0.077532
0.068661
0.056519
0.04735
0.12228
0.12262
0.12087
0.11825
0.1126
0.10704
0.097396
0.089561
0.077502
0.068388
0.056122
0.046742
0.12299
0.12335
0.1216
0.11894
0.11321
0.10752
0.097737
0.089675
0.077468
0.068105
0.055708
0.046114
0.12372
0.12411
0.12236
0.11966
0.11385
0.10801
0.098089
0.089792
0.077429
0.067811
0.055277
0.045464
0.12447
0.12489
0.12314
0.1204
0.11451
0.10851
0.09845
0.08991
0.077384
0.067505
0.054827
0.044791
0.12525
0.1257
0.12396
0.12117
0.11519
0.10903
0.098823
0.09003
0.077334
0.067186
0.054358
0.044093
0.12605
0.12654
0.1248
0.12197
0.1159
0.10958
0.099207
0.090152
0.077278
0.066853
0.053867
0.043371
0.12689
0.12741
0.12568
0.12279
0.11664
0.11014
0.099602
0.090276
0.077215
0.066506
0.053355
0.042622
0.12775
0.12832
0.12659
0.12366
0.11741
0.11072
0.10001
0.090402
0.077144
0.066143
0.052819
0.041844
0.12865
0.12926
0.12754
0.12455
0.11821
0.11132
0.10043
0.090529
0.077065
0.065763
0.052258
0.041037
0.12959
0.13024
0.12853
0.12549
0.11904
0.11195
0.10087
0.090659
0.076977
0.065366
0.051672
0.040199
0.13057
0.13126
0.12956
0.12646
0.11991
0.1126
0.10132
0.09079
0.07688
0.06495
0.051059
0.039327
0.13158
0.13233
0.13065
0.12749
0.12082
0.11329
0.10178
0.090923
0.076773
0.064515
0.050416
0.038421
0.13265
0.13345
0.13178
0.12856
0.12177
0.114
0.10226
0.091058
0.076655
0.064058
0.049743
0.037479
0.13376
0.13462
0.13297
0.12968
0.12277
0.11474
0.10276
0.091195
0.076526
0.063578
0.049037
0.036497
0.13492
0.13584
0.13422
0.13086
0.12382
0.11552
0.10328
0.091333
0.076382
0.063073
0.048297
0.035476
0.13614
0.13713
0.13554
0.13211
0.12492
0.11634
0.10381
0.091472
0.076225
0.062542
0.04752
0.034411
0.13742
0.13849
0.13693
0.13342
0.12608
0.1172
0.10437
0.091612
0.07605
0.061982
0.046704
0.0333
0.13877
0.13992
0.13839
0.1348
0.12729
0.11809
0.10495
0.091751
0.075857
0.06139
0.045845
0.032141
0.14018
0.14142
0.13993
0.13626
0.12857
0.11904
0.10554
0.091887
0.075642
0.060763
0.04494
0.03093
0.14166
0.143
0.14156
0.1378
0.12992
0.12002
0.10616
0.09202
0.075402
0.060097
0.043986
0.029664
0.14322
0.14468
0.14328
0.13943
0.13134
0.12106
0.10679
0.092146
0.075132
0.059386
0.042976
0.028338
0.14485
0.14644
0.1451
0.14116
0.13283
0.12214
0.10744
0.092261
0.074829
0.058626
0.041906
0.026949
0.14657
0.1483
0.14703
0.14298
0.13441
0.12327
0.10811
0.092362
0.074485
0.057811
0.04077
0.02549
0.14837
0.15026
0.14906
0.1449
0.13606
0.12446
0.10878
0.092442
0.074094
0.056932
0.03956
0.023956
0.15026
0.15233
0.1512
0.14694
0.13779
0.12569
0.10947
0.092496
0.073647
0.055982
0.038269
0.02234
0.15224
0.1545
0.15347
0.14909
0.13962
0.12696
0.11015
0.092516
0.073137
0.05495
0.036886
0.020633
0.15431
0.1568
0.15586
0.15135
0.14152
0.12829
0.11084
0.092493
0.072551
0.053827
0.035403
0.018827
0.15647
0.15921
0.15839
0.15374
0.14352
0.12965
0.1115
0.092417
0.071879
0.052602
0.033809
0.016913
0.15872
0.16175
0.16105
0.15627
0.1456
0.13104
0.11215
0.092275
0.071107
0.05126
0.032091
0.014879
0.16107
0.16442
0.16387
0.15892
0.14778
0.13247
0.11277
0.092055
0.070222
0.04979
0.030237
0.012713
0.16351
0.16723
0.16685
0.16173
0.15005
0.13392
0.11333
0.09174
0.069207
0.048176
0.028233
0.010405
0.16606
0.17019
0.17
0.16468
0.1524
0.13538
0.11384
0.091313
0.068045
0.046404
0.026067
0.0079408
0.16871
0.17331
0.17334
0.1678
0.15486
0.13685
0.11427
0.090753
0.066717
0.044456
0.023723
0.0053087
0.17147
0.17661
0.1769
0.1711
0.1574
0.13831
0.11461
0.090036
0.065199
0.042313
0.021187
0.0024963
0.17434
0.18011
0.18069
0.17459
0.16004
0.13974
0.11481
0.089133
0.063465
0.039954
0.018441
-0.00050838
0.17734
0.18382
0.18475
0.1783
0.16278
0.14112
0.11486
0.088007
0.061484
0.037355
0.015468
-0.0037175
0.18046
0.18778
0.18911
0.18223
0.16559
0.14242
0.11471
0.086615
0.059217
0.034484
0.012246
-0.0071435
0.18371
0.19202
0.1938
0.18641
0.16848
0.1436
0.1143
0.084902
0.056615
0.031304
0.0087497
-0.0108
0.18709
0.19655
0.19888
0.19085
0.1714
0.1446
0.11357
0.0828
0.053623
0.027771
0.0049466
-0.014703
0.19057
0.20142
0.20436
0.19555
0.17433
0.14536
0.11244
0.08023
0.050171
0.023831
0.00079983
-0.018872
0.19413
0.20663
0.21027
0.20049
0.17718
0.14576
0.11079
0.077097
0.046181
0.019422
-0.0037332
-0.023327
0.19771
0.21219
0.21661
0.20563
0.17987
0.14569
0.1085
0.073291
0.041568
0.014482
-0.0086966
-0.02809
0.20124
0.21808
0.22337
0.21087
0.18223
0.14498
0.10543
0.068696
0.036245
0.0089483
-0.01413
-0.03318
0.2046
0.22425
0.23045
0.21608
0.18407
0.14342
0.10139
0.063188
0.030132
0.0027728
-0.02006
-0.038603
0.20762
0.23059
0.23772
0.22101
0.18511
0.14077
0.096213
0.056646
0.023163
-0.0040697
-0.026485
-0.044343
0.21014
0.23693
0.24489
0.2253
0.18497
0.13671
0.089679
0.048961
0.0153
-0.011571
-0.03337
-0.050353
0.21193
0.24294
0.25147
0.22838
0.18316
0.1309
0.081586
0.040044
0.0065352
-0.019685
-0.040635
-0.056545
0.21279
0.24811
0.25663
0.22938
0.17899
0.12292
0.071742
0.029844
-0.0030976
-0.028324
-0.048164
-0.062799
0.21254
0.25156
0.25899
0.227
0.17158
0.11231
0.059993
0.018372
-0.01351
-0.037365
-0.055811
-0.068972
0.21113
0.25189
0.25632
0.21927
0.15975
0.098581
0.046266
0.0057379
-0.02454
-0.046643
-0.063416
-0.074925
0.20876
0.24697
0.24527
0.20346
0.14199
0.081234
0.030591
-0.0078285
-0.03593
-0.055943
-0.07081
-0.080537
0.20609
0.23399
0.22139
0.17605
0.11653
0.059732
0.01307
-0.022008
-0.047348
-0.065011
-0.077828
-0.085722
0.2043
0.21002
0.17998
0.13333
0.081465
0.033494
-0.0062516
-0.036521
-0.058482
-0.073607
-0.084333
-0.090439
0.20444
0.17211
0.11771
0.072828
0.035405
0.001926
-0.027514
-0.051298
-0.069188
-0.081606
-0.090271
-0.094721
0.20776
0.11462
0.030505
-0.0073646
-0.023112
-0.036126
-0.05149
-0.066822
-0.07978
-0.089245
-0.095859
-0.098829
0.22588
0.041081
-0.079255
-0.10462
-0.093344
-0.081563
-0.079593
-0.084457
-0.091439
-0.097513
-0.10194
-0.10352
0.27082
-0.028941
-0.19154
-0.20249
-0.16417
-0.12854
-0.1095
-0.10362
-0.10427
-0.10669
-0.10882
-0.10897
0.10278
0.063388
0.053273
0.047247
0.043099
0.039999
0.037533
0.035409
0.033608
0.031748
0.030303
0.027803
0.1221
0.078615
0.066048
0.058031
0.052571
0.048541
0.045365
0.042652
0.040375
0.038029
0.036265
0.03334
0.10942
0.073497
0.062124
0.054235
0.048843
0.044882
0.041781
0.039144
0.03696
0.034699
0.033069
0.03023
0.10435
0.073142
0.062097
0.054117
0.048588
0.044513
0.041325
0.03862
0.036396
0.034088
0.032461
0.029494
0.10367
0.075276
0.064072
0.055874
0.0501
0.045818
0.042463
0.039616
0.037283
0.034861
0.033169
0.030038
0.103
0.077057
0.065781
0.057449
0.051476
0.047016
0.043513
0.040538
0.038105
0.035583
0.033825
0.030576
0.10185
0.078309
0.067108
0.058724
0.052603
0.047997
0.044367
0.041284
0.038764
0.036163
0.034345
0.031024
0.10064
0.079334
0.068297
0.059913
0.053677
0.048941
0.045195
0.042011
0.039409
0.036741
0.034867
0.031515
0.099504
0.080218
0.069414
0.061074
0.054754
0.049902
0.046046
0.042768
0.040087
0.037362
0.035435
0.032091
0.098422
0.080952
0.070446
0.062195
0.055824
0.050875
0.046919
0.043553
0.040796
0.038026
0.03605
0.032755
0.097375
0.081536
0.07138
0.06326
0.056874
0.05185
0.047807
0.044362
0.041537
0.038732
0.036714
0.033503
0.096359
0.081984
0.072215
0.064261
0.057896
0.052821
0.048707
0.045194
0.042306
0.039478
0.037425
0.034331
0.095376
0.08231
0.07295
0.065192
0.05888
0.053779
0.049611
0.046043
0.043102
0.040262
0.038182
0.035231
0.094429
0.08253
0.073588
0.066047
0.059816
0.054714
0.050509
0.046901
0.043916
0.041075
0.038976
0.036188
0.093519
0.082658
0.074133
0.066823
0.060697
0.055616
0.051394
0.047759
0.044742
0.04191
0.039797
0.037185
0.092645
0.08271
0.074591
0.067521
0.061518
0.056479
0.052256
0.048608
0.045569
0.042756
0.040636
0.038205
0.091809
0.082697
0.07497
0.068143
0.062277
0.057296
0.053088
0.049441
0.046389
0.043602
0.04148
0.039229
0.09101
0.08263
0.075277
0.068692
0.062973
0.058063
0.053883
0.050249
0.047195
0.04444
0.042319
0.040239
0.090247
0.082519
0.075519
0.069172
0.063606
0.058779
0.054638
0.051027
0.047978
0.045261
0.043143
0.04122
0.089519
0.082371
0.075704
0.069589
0.064178
0.059442
0.05535
0.051771
0.048734
0.046057
0.043945
0.04216
0.088824
0.082195
0.075838
0.069947
0.064693
0.060054
0.056018
0.052477
0.049458
0.046822
0.044716
0.04305
0.088161
0.081995
0.075928
0.070253
0.065153
0.060614
0.05664
0.053143
0.050147
0.047552
0.045453
0.043882
0.087528
0.081776
0.075979
0.070509
0.065562
0.061126
0.057218
0.053769
0.050799
0.048243
0.046151
0.044652
0.086922
0.081542
0.075996
0.070723
0.065924
0.061592
0.057752
0.054354
0.051414
0.048895
0.046809
0.045359
0.086342
0.081297
0.075984
0.070897
0.066242
0.062013
0.058245
0.054899
0.05199
0.049505
0.047426
0.046004
0.085786
0.081042
0.075946
0.071036
0.06652
0.062394
0.058697
0.055405
0.052529
0.050074
0.048002
0.046588
0.085252
0.080781
0.075886
0.071143
0.066762
0.062737
0.059111
0.055873
0.05303
0.050602
0.048538
0.047115
0.084739
0.080514
0.075807
0.071223
0.066971
0.063043
0.05949
0.056304
0.053497
0.051092
0.049034
0.047588
0.084244
0.080244
0.075712
0.071278
0.067149
0.063317
0.059835
0.056702
0.053929
0.051544
0.049493
0.048013
0.083768
0.079971
0.075603
0.07131
0.0673
0.06356
0.060148
0.057066
0.054329
0.05196
0.049917
0.048393
0.083308
0.079697
0.075482
0.071322
0.067426
0.063776
0.060432
0.0574
0.054698
0.052342
0.050308
0.048733
0.082863
0.079422
0.07535
0.071317
0.067528
0.063965
0.060689
0.057705