/*--------------------------------*- C++ -*----------------------------------*\
  =========                 |
  \\      /  F ield         | OpenFOAM: The Open Source CFD Toolbox
   \\    /   O peration     | Website:  https://openfoam.org
    \\  /    A nd           | Version:  6.0
     \\/     M anipulation  |
\*---------------------------------------------------------------------------*/
FoamFile
{
    version     2.0;
    format      ascii;
    class       volScalarField;
    location    "9";
    object      p;
}
// * * * * * * * * * * * * * * * * * * * * * * * * * * * * * * * * * * * * * //

dimensions      [0 2 -2 0 0 0 0];

internalField   nonuniform List<scalar> 
14500
(
0.07042
0.070281
0.069875
0.069336
0.06868
0.068098
0.067894
0.068027
0.070357
0.072961
0.093429
0.12506
0.07042
0.070281
0.069875
0.069336
0.06868
0.068097
0.067894
0.068025
0.070356
0.072981
0.092886
0.12187
0.07042
0.070282
0.069876
0.069336
0.06868
0.068097
0.067893
0.068021
0.070353
0.072985
0.092122
0.11853
0.070421
0.070282
0.069876
0.069337
0.068681
0.068096
0.067892
0.068015
0.070344
0.072968
0.091253
0.1156
0.070422
0.070284
0.069877
0.069337
0.068681
0.068095
0.067889
0.068008
0.07033
0.072935
0.090331
0.11307
0.070423
0.070285
0.069878
0.069338
0.06868
0.068094
0.067886
0.068
0.070312
0.07289
0.08939
0.1108
0.070425
0.070286
0.069879
0.069339
0.06868
0.068092
0.067882
0.067991
0.070289
0.072829
0.088453
0.10867
0.070426
0.070288
0.06988
0.06934
0.06868
0.06809
0.067878
0.06798
0.070261
0.072752
0.08754
0.10666
0.070428
0.07029
0.069881
0.069341
0.06868
0.068088
0.067872
0.067969
0.070228
0.07266
0.086666
0.10477
0.07043
0.070292
0.069883
0.069342
0.068679
0.068086
0.067866
0.067956
0.070189
0.072552
0.085836
0.10299
0.070433
0.070294
0.069885
0.069343
0.068679
0.068083
0.067859
0.067942
0.070146
0.07243
0.085054
0.10133
0.070435
0.070297
0.069886
0.069344
0.068678
0.06808
0.067852
0.067927
0.070096
0.072297
0.084319
0.099763
0.070438
0.070299
0.069888
0.069345
0.068677
0.068077
0.067843
0.067911
0.07004
0.072154
0.083629
0.098293
0.070441
0.070302
0.06989
0.069347
0.068676
0.068073
0.067834
0.067894
0.069979
0.072004
0.08298
0.096909
0.070444
0.070305
0.069893
0.069348
0.068675
0.06807
0.067824
0.067875
0.069911
0.071848
0.082367
0.095603
0.070448
0.070309
0.069895
0.06935
0.068674
0.068066
0.067813
0.067855
0.069836
0.07169
0.081785
0.094367
0.070451
0.070312
0.069898
0.069351
0.068673
0.068062
0.067802
0.067834
0.069756
0.07153
0.081229
0.093194
0.070455
0.070316
0.0699
0.069353
0.068672
0.068057
0.067789
0.067811
0.069669
0.07137
0.080694
0.092078
0.07046
0.07032
0.069903
0.069355
0.068671
0.068053
0.067776
0.067787
0.069576
0.071211
0.080176
0.09101
0.070464
0.070325
0.069906
0.069357
0.06867
0.068048
0.067762
0.067761
0.069478
0.071055
0.079671
0.089986
0.070469
0.070329
0.06991
0.069359
0.068668
0.068043
0.067748
0.067734
0.069374
0.070902
0.079176
0.089001
0.070474
0.070334
0.069913
0.069361
0.068667
0.068037
0.067732
0.067705
0.069266
0.070753
0.078688
0.088049
0.070479
0.070339
0.069917
0.069363
0.068665
0.068031
0.067716
0.067674
0.069153
0.070608
0.078206
0.087127
0.070485
0.070344
0.069921
0.069365
0.068663
0.068025
0.067699
0.067642
0.069036
0.070466
0.077727
0.086231
0.070491
0.07035
0.069925
0.069368
0.068661
0.068019
0.067681
0.067607
0.068915
0.070328
0.07725
0.085358
0.070497
0.070356
0.069929
0.06937
0.06866
0.068013
0.067663
0.067571
0.068791
0.070194
0.076775
0.084507
0.070503
0.070362
0.069933
0.069373
0.068658
0.068006
0.067644
0.067533
0.068665
0.070062
0.0763
0.083675
0.07051
0.070368
0.069938
0.069376
0.068656
0.067999
0.067624
0.067493
0.068537
0.069934
0.075826
0.082861
0.070517
0.070375
0.069943
0.069379
0.068653
0.067992
0.067603
0.067451
0.068407
0.069807
0.075351
0.082063
0.070524
0.070381
0.069948
0.069382
0.068651
0.067985
0.067581
0.067406
0.068277
0.069683
0.074877
0.08128
0.070531
0.070389
0.069953
0.069385
0.068649
0.067977
0.067559
0.06736
0.068145
0.069559
0.074404
0.080512
0.070539
0.070396
0.069958
0.069388
0.068647
0.067969
0.067535
0.067312
0.068014
0.069436
0.073931
0.079758
0.070547
0.070404
0.069964
0.069392
0.068644
0.067961
0.067511
0.067261
0.067882
0.069314
0.073459
0.079017
0.070556
0.070412
0.06997
0.069395
0.068642
0.067953
0.067486
0.067209
0.067752
0.069191
0.072988
0.078289
0.070565
0.07042
0.069976
0.069399
0.068639
0.067944
0.06746
0.067155
0.067622
0.069068
0.072519
0.077573
0.070574
0.070429
0.069982
0.069403
0.068637
0.067935
0.067433
0.067098
0.067493
0.068943
0.072052
0.076871
0.070583
0.070438
0.069989
0.069407
0.068634
0.067926
0.067405
0.06704
0.067366
0.068818
0.071588
0.07618
0.070593
0.070447
0.069996
0.069411
0.068632
0.067917
0.067377
0.066981
0.06724
0.06869
0.071127
0.075503
0.070603
0.070457
0.070003
0.069415
0.068629
0.067908
0.067347
0.06692
0.067116
0.068561
0.070669
0.074837
0.070614
0.070467
0.07001
0.06942
0.068626
0.067898
0.067316
0.066857
0.066993
0.06843
0.070216
0.074183
0.070625
0.070477
0.070017
0.069425
0.068623
0.067888
0.067284
0.066794
0.066872
0.068297
0.069767
0.073542
0.070636
0.070487
0.070025
0.069429
0.06862
0.067878
0.067251
0.066729
0.066752
0.068161
0.069322
0.072912
0.070647
0.070498
0.070033
0.069434
0.068618
0.067868
0.067218
0.066663
0.066635
0.068024
0.068883
0.072295
0.070659
0.07051
0.070042
0.06944
0.068615
0.067858
0.067182
0.066597
0.066518
0.067883
0.068449
0.071689
0.070672
0.070521
0.07005
0.069445
0.068612
0.067847
0.067146
0.06653
0.066403
0.067741
0.068021
0.071096
0.070684
0.070533
0.070059
0.069451
0.068609
0.067837
0.067109
0.066463
0.066289
0.067596
0.067598
0.070513
0.070697
0.070546
0.070068
0.069457
0.068606
0.067826
0.067071
0.066395
0.066177
0.067449
0.067182
0.069943
0.070711
0.070558
0.070078
0.069463
0.068603
0.067815
0.067031
0.066328
0.066065
0.0673
0.066771
0.069384
0.070725
0.070572
0.070087
0.069469
0.0686
0.067803
0.066991
0.06626
0.065954
0.067148
0.066367
0.068836
0.070739
0.070585
0.070098
0.069475
0.068597
0.067792
0.066949
0.066193
0.065843
0.066995
0.06597
0.068299
0.070754
0.070599
0.070108
0.069482
0.068594
0.06778
0.066906
0.066126
0.065733
0.06684
0.065579
0.067773
0.070769
0.070613
0.070119
0.069489
0.068592
0.067768
0.066862
0.06606
0.065623
0.066683
0.065194
0.067257
0.070784
0.070628
0.07013
0.069496
0.068589
0.067756
0.066817
0.065995
0.065512
0.066524
0.064815
0.066752
0.0708
0.070643
0.070141
0.069504
0.068586
0.067744
0.066771
0.06593
0.065402
0.066363
0.064443
0.066257
0.070817
0.070659
0.070153
0.069512
0.068583
0.067732
0.066723
0.065866
0.065291
0.066202
0.064078
0.065772
0.070833
0.070675
0.070165
0.06952
0.068581
0.067719
0.066675
0.065803
0.065179
0.066038
0.063718
0.065296
0.070851
0.070691
0.070177
0.069528
0.068578
0.067707
0.066626
0.065742
0.065067
0.065874
0.063365
0.06483
0.070869
0.070708
0.07019
0.069536
0.068575
0.067694
0.066576
0.065681
0.064954
0.065708
0.063018
0.064373
0.070887
0.070726
0.070203
0.069545
0.068573
0.067681
0.066525
0.065621
0.06484
0.065541
0.062677
0.063925
0.070906
0.070744
0.070217
0.069554
0.068571
0.067667
0.066474
0.065563
0.064724
0.065373
0.062341
0.063485
0.070925
0.070762
0.070231
0.069564
0.068568
0.067654
0.066422
0.065505
0.064608
0.065204
0.062011
0.063053
0.070945
0.070781
0.070245
0.069574
0.068566
0.06764
0.066369
0.065449
0.06449
0.065035
0.061686
0.06263
0.070965
0.0708
0.07026
0.069584
0.068564
0.067626
0.066315
0.065394
0.064371
0.064864
0.061367
0.062213
0.070986
0.07082
0.070275
0.069594
0.068562
0.067612
0.066261
0.065339
0.064251
0.064693
0.061053
0.061805
0.071007
0.070841
0.070291
0.069605
0.068561
0.067598
0.066207
0.065286
0.06413
0.064521
0.060744
0.061403
0.071029
0.070862
0.070307
0.069616
0.068559
0.067584
0.066152
0.065234
0.064007
0.064349
0.06044
0.061008
0.071052
0.070883
0.070324
0.069627
0.068558
0.067569
0.066097
0.065182
0.063883
0.064176
0.06014
0.060619
0.071075
0.070905
0.070341
0.069639
0.068556
0.067554
0.066042
0.065131
0.063758
0.064002
0.059845
0.060237
0.071099
0.070928
0.070358
0.069652
0.068555
0.067539
0.065987
0.065081
0.063632
0.063828
0.059554
0.05986
0.071123
0.070951
0.070376
0.069664
0.068555
0.067523
0.065932
0.065031
0.063505
0.063653
0.059267
0.059489
0.071148
0.070975
0.070394
0.069677
0.068554
0.067508
0.065877
0.064981
0.063377
0.063478
0.058984
0.059124
0.071173
0.070999
0.070413
0.069691
0.068553
0.067492
0.065823
0.064932
0.063248
0.063302
0.058705
0.058764
0.071199
0.071024
0.070433
0.069705
0.068553
0.067477
0.065768
0.064883
0.063117
0.063127
0.05843
0.058409
0.071226
0.07105
0.070453
0.069719
0.068553
0.067461
0.065714
0.064835
0.062987
0.062951
0.058158
0.058058
0.071253
0.071076
0.070474
0.069734
0.068553
0.067444
0.065661
0.064786
0.062855
0.062774
0.05789
0.057712
0.071282
0.071103
0.070495
0.069749
0.068554
0.067428
0.065607
0.064737
0.062723
0.062598
0.057625
0.057371
0.07131
0.071131
0.070516
0.069765
0.068555
0.067412
0.065555
0.064688
0.06259
0.062421
0.057363
0.057033
0.07134
0.071159
0.070539
0.069781
0.068556
0.067396
0.065503
0.064638
0.062457
0.062244
0.057104
0.0567
0.07137
0.071188
0.070562
0.069798
0.068557
0.067379
0.065452
0.064588
0.062324
0.062067
0.056849
0.05637
0.071401
0.071218
0.070585
0.069815
0.068559
0.067363
0.065401
0.064538
0.06219
0.06189
0.056596
0.056045
0.071433
0.071249
0.070609
0.069833
0.06856
0.067346
0.065352
0.064487
0.062056
0.061713
0.056346
0.055722
0.071465
0.07128
0.070634
0.069852
0.068563
0.06733
0.065303
0.064436
0.061923
0.061536
0.056098
0.055404
0.071498
0.071312
0.07066
0.069871
0.068565
0.067314
0.065255
0.064383
0.061789
0.061359
0.055854
0.055088
0.071532
0.071345
0.070686
0.069891
0.068568
0.067298
0.065208
0.064331
0.061655
0.061182
0.055612
0.054776
0.071567
0.071378
0.070713
0.069911
0.068571
0.067282
0.065161
0.064277
0.061521
0.061005
0.055372
0.054467
0.071603
0.071413
0.07074
0.069932
0.068575
0.067267
0.065116
0.064222
0.061388
0.060829
0.055135
0.054161
0.071639
0.071448
0.070769
0.069953
0.068579
0.067251
0.065072
0.064167
0.061255
0.060653
0.0549
0.053858
0.071677
0.071484
0.070798
0.069975
0.068583
0.067236
0.065028
0.064111
0.061122
0.060477
0.054668
0.053558
0.071715
0.071521
0.070828
0.069998
0.068587
0.067222
0.064985
0.064054
0.060989
0.060301
0.054438
0.05326
0.071754
0.071559
0.070858
0.070022
0.068592
0.067208
0.064944
0.063997
0.060857
0.060126
0.05421
0.052966
0.071794
0.071598
0.07089
0.070046
0.068598
0.067194
0.064903
0.063938
0.060726
0.059951
0.053984
0.052674
0.071836
0.071638
0.070922
0.070071
0.068604
0.067181
0.064863
0.063879
0.060595
0.059777
0.053761
0.052385
0.071878
0.071679
0.070955
0.070097
0.06861
0.067169
0.064824
0.063819
0.060464
0.059603
0.05354
0.052099
0.071921
0.07172
0.070989
0.070124
0.068616
0.067158
0.064785
0.063758
0.060334
0.059429
0.053321
0.051815
0.071965
0.071763
0.071024
0.070151
0.068624
0.067147
0.064748
0.063697
0.060205
0.059256
0.053104
0.051534
0.07201
0.071807
0.07106
0.07018
0.068631
0.067137
0.064711
0.063635
0.060076
0.059084
0.052889
0.051255
0.072056
0.071852
0.071097
0.070209
0.068639
0.067128
0.064674
0.063572
0.059949
0.058912
0.052677
0.050979
0.072103
0.071898
0.071135
0.070239
0.068648
0.06712
0.064639
0.063509
0.059821
0.058741
0.052466
0.050705
0.072152
0.071945
0.071174
0.07027
0.068657
0.067113
0.064604
0.063445
0.059695
0.05857
0.052258
0.050434
0.072201
0.071993
0.071214
0.070302
0.068667
0.067107
0.064569
0.063381
0.059569
0.0584
0.052051
0.050166
0.072252
0.072042
0.071255
0.070335
0.068677
0.067102
0.064536
0.063316
0.059444
0.058231
0.051847
0.049899
0.072304
0.072093
0.071297
0.070369
0.068688
0.067098
0.064502
0.063252
0.05932
0.058062
0.051645
0.049635
0.072357
0.072145
0.07134
0.070404
0.068699
0.067096
0.064469
0.063187
0.059196
0.057895
0.051444
0.049374
0.072411
0.072198
0.071384
0.07044
0.068711
0.067095
0.064437
0.063121
0.059074
0.057727
0.051246
0.049115
0.072467
0.072252
0.07143
0.070477
0.068724
0.067095
0.064405
0.063056
0.058952
0.057561
0.051049
0.048858
0.072524
0.072308
0.071476
0.070515
0.068737
0.067096
0.064373
0.062991
0.058831
0.057395
0.050855
0.048604
0.072582
0.072365
0.071524
0.070555
0.068752
0.067099
0.064342
0.062925
0.058711
0.05723
0.050662
0.048351
0.072642
0.072423
0.071574
0.070595
0.068767
0.067103
0.064311
0.06286
0.058592
0.057066
0.050471
0.048101
0.072703
0.072483
0.071624
0.070637
0.068783
0.067109
0.064281
0.062795
0.058474
0.056902
0.050282
0.047854
0.072766
0.072544
0.071676
0.07068
0.068799
0.067117
0.064251
0.06273
0.058356
0.056739
0.050095
0.047608
0.07283
0.072607
0.071729
0.070724
0.068817
0.067125
0.064221
0.062665
0.05824
0.056577
0.049909
0.047365
0.072895
0.072671
0.071784
0.070769
0.068836
0.067136
0.064192
0.0626
0.058124
0.056416
0.049726
0.047123
0.072963
0.072737
0.07184
0.070816
0.068855
0.067148
0.064163
0.062536
0.05801
0.056255
0.049544
0.046884
0.073031
0.072804
0.071898
0.070864
0.068876
0.067161
0.064134
0.062472
0.057896
0.056095
0.049363
0.046646
0.073102
0.072874
0.071957
0.070914
0.068898
0.067176
0.064106
0.062408
0.057783
0.055936
0.049185
0.046411
0.073174
0.072944
0.072018
0.070965
0.068921
0.067193
0.064079
0.062345
0.057671
0.055777
0.049007
0.046178
0.073248
0.073017
0.07208
0.071017
0.068945
0.067211
0.064052
0.062283
0.057561
0.055619
0.048832
0.045946
0.073323
0.073091
0.072144
0.071071
0.068971
0.06723
0.064026
0.062221
0.057451
0.055462
0.048658
0.045716
0.073401
0.073167
0.07221
0.071127
0.068997
0.067252
0.064
0.062159
0.057342
0.055305
0.048485
0.045488
0.07348
0.073245
0.072278
0.071184
0.069026
0.067275
0.063975
0.062098
0.057234
0.055149
0.048314
0.045261
0.073561
0.073325
0.072347
0.071243
0.069055
0.067299
0.063951
0.062038
0.057128
0.054994
0.048144
0.045036
0.073645
0.073407
0.072419
0.071303
0.069087
0.067325
0.063927
0.061978
0.057022
0.054839
0.047976
0.044813
0.07373
0.073491
0.072492
0.071365
0.06912
0.067352
0.063905
0.061919
0.056918
0.054685
0.047808
0.044591
0.073817
0.073577
0.072567
0.071429
0.069154
0.067381
0.063883
0.06186
0.056814
0.054531
0.047642
0.04437
0.073907
0.073666
0.072645
0.071495
0.069191
0.067412
0.063863
0.061803
0.056712
0.054378
0.047477
0.044151
0.073998
0.073756
0.072724
0.071563
0.069229
0.067444
0.063843
0.061746
0.05661
0.054226
0.047314
0.043933
0.074092
0.073849
0.072806
0.071632
0.069269
0.067477
0.063825
0.06169
0.05651
0.054074
0.047151
0.043716
0.074189
0.073944
0.07289
0.071704
0.069312
0.067512
0.063808
0.061634
0.056411
0.053923
0.046989
0.0435
0.074287
0.074041
0.072976
0.071778
0.069356
0.067549
0.063792
0.06158
0.056312
0.053772
0.046828
0.043285
0.074388
0.074141
0.073065
0.071854
0.069402
0.067587
0.063777
0.061527
0.056215
0.053621
0.046668
0.04307
0.074492
0.074243
0.073156
0.071932
0.069451
0.067626
0.063764
0.061474
0.05612
0.053471
0.046508
0.042857
0.074598
0.074348
0.073249
0.072012
0.069502
0.067667
0.063753
0.061422
0.056025
0.053322
0.04635
0.042644
0.074707
0.074456
0.073346
0.072094
0.069555
0.067709
0.063743
0.061372
0.055931
0.053173
0.046191
0.042432
0.074818
0.074566
0.073444
0.07218
0.069611
0.067753
0.063735
0.061322
0.055839
0.053024
0.046034
0.04222
0.074933
0.074679
0.073546
0.072267
0.069669
0.067798
0.063728
0.061274
0.055747
0.052876
0.045877
0.042008
0.07505
0.074795
0.07365
0.072357
0.06973
0.067845
0.063723
0.061227
0.055657
0.052728
0.04572
0.041797
0.07517
0.074914
0.073758
0.07245
0.069793
0.067893
0.063721
0.06118
0.055568
0.052581
0.045564
0.041586
0.075293
0.075037
0.073868
0.072545
0.06986
0.067943
0.06372
0.061136
0.05548
0.052434
0.045408
0.041375
0.07542
0.075162
0.073982
0.072644
0.069929
0.067994
0.06372
0.061092
0.055393
0.052287
0.045252
0.041164
0.075549
0.075291
0.074098
0.072745
0.070001
0.068047
0.063723
0.061049
0.055308
0.052141
0.045096
0.040952
0.075682
0.075423
0.074218
0.072849
0.070076
0.068102
0.063728
0.061008
0.055223
0.051995
0.044941
0.040741
0.075819
0.075558
0.074341
0.072957
0.070154
0.068158
0.063736
0.060968
0.05514
0.051849
0.044785
0.040529
0.075959
0.075697
0.074468
0.073068
0.070236
0.068217
0.063745
0.06093
0.055058
0.051703
0.044629
0.040317
0.076102
0.07584
0.074599
0.073182
0.07032
0.068277
0.063756
0.060893
0.054977
0.051558
0.044473
0.040104
0.07625
0.075986
0.074733
0.073299
0.070408
0.068339
0.06377
0.060858
0.054898
0.051414
0.044317
0.03989
0.076401
0.076137
0.074871
0.073421
0.0705
0.068402
0.063786
0.060824
0.054819
0.051269
0.044161
0.039676
0.076556
0.076291
0.075012
0.073546
0.070595
0.068468
0.063805
0.060791
0.054742
0.051125
0.044004
0.03946
0.076716
0.07645
0.075158
0.073675
0.070693
0.068537
0.063826
0.06076
0.054666
0.050981
0.043847
0.039244
0.076879
0.076613
0.075308
0.073808
0.070795
0.068607
0.063849
0.060731
0.054591
0.050837
0.043689
0.039027
0.077047
0.07678
0.075463
0.073945
0.070901
0.06868
0.063875
0.060703
0.054518
0.050693
0.043531
0.038808
0.07722
0.076952
0.075622
0.074086
0.071011
0.068755
0.063903
0.060677
0.054446
0.050549
0.043371
0.038588
0.077397
0.077129
0.075785
0.074232
0.071125
0.068833
0.063934
0.060653
0.054375
0.050406
0.043212
0.038366
0.077579
0.07731
0.075953
0.074383
0.071243
0.068914
0.063968
0.06063
0.054305
0.050263
0.043051
0.038143
0.077766
0.077497
0.076126
0.074538
0.071365
0.068997
0.064004
0.060609
0.054236
0.05012
0.042889
0.037919
0.077958
0.077688
0.076304
0.074699
0.071492
0.069084
0.064043
0.06059
0.054169
0.049977
0.042727
0.037692
0.078155
0.077885
0.076488
0.074864
0.071623
0.069173
0.064085
0.060573
0.054103
0.049834
0.042563
0.037464
0.078358
0.078088
0.076677
0.075035
0.071759
0.069266
0.06413
0.060557
0.054038
0.049691
0.042398
0.037233
0.078567
0.078297
0.076871
0.075212
0.071899
0.069362
0.064178
0.060544
0.053974
0.049548
0.042232
0.037001
0.078781
0.078511
0.077071
0.075394
0.072044
0.069462
0.064229
0.060532
0.053911
0.049405
0.042065
0.036766
0.079001
0.078732
0.077277
0.075582
0.072195
0.069566
0.064283
0.060522
0.05385
0.049262
0.041896
0.036528
0.079228
0.078958
0.07749
0.075777
0.07235
0.069673
0.06434
0.060514
0.05379
0.049119
0.041726
0.036288
0.079461
0.079192
0.077708
0.075978
0.072511
0.069785
0.064401
0.060508
0.053731
0.048975
0.041554
0.036046
0.079701
0.079432
0.077934
0.076185
0.072678
0.069901
0.064465
0.060504
0.053673
0.048832
0.04138
0.035801
0.079948
0.079679
0.078166
0.076399
0.07285
0.070022
0.064533
0.060502
0.053616
0.048688
0.041204
0.035552
0.080202
0.079934
0.078405
0.076621
0.073028
0.070147
0.064604
0.060502
0.05356
0.048543
0.041027
0.035301
0.080463
0.080196
0.078652
0.07685
0.073213
0.070277
0.064679
0.060504
0.053505
0.048398
0.040847
0.035046
0.080732
0.080466
0.078906
0.077086
0.073404
0.070412
0.064758
0.060508
0.053452
0.048253
0.040665
0.034788
0.081009
0.080745
0.079169
0.07733
0.073602
0.070553
0.06484
0.060515
0.053399
0.048107
0.040481
0.034527
0.081295
0.081031
0.079439
0.077582
0.073806
0.070699
0.064927
0.060523
0.053347
0.047961
0.040294
0.034261
0.081589
0.081326
0.079718
0.077843
0.074018
0.07085
0.065019
0.060534
0.053297
0.047814
0.040105
0.033992
0.081892
0.081631
0.080006
0.078113
0.074238
0.071008
0.065115
0.060548
0.053247
0.047666
0.039913
0.033718
0.082204
0.081945
0.080304
0.078391
0.074465
0.071172
0.065215
0.060563
0.053198
0.047516
0.039718
0.033441
0.082525
0.082268
0.08061
0.078679
0.074701
0.071343
0.06532
0.060582
0.05315
0.047366
0.03952
0.033158
0.082857
0.082602
0.080927
0.078976
0.074945
0.07152
0.065431
0.060602
0.053103
0.047215
0.039319
0.032871
0.083199
0.082946
0.081254
0.079284
0.075198
0.071705
0.065546
0.060626
0.053056
0.047063
0.039114
0.032579
0.083552
0.083302
0.081592
0.079602
0.075461
0.071897
0.065667
0.060651
0.05301
0.046909
0.038905
0.032282
0.083916
0.083668
0.081941
0.079931
0.075733
0.072097
0.065794
0.06068
0.052965
0.046753
0.038693
0.031979
0.084292
0.084047
0.082302
0.080271
0.076015
0.072305
0.065926
0.060712
0.052921
0.046596
0.038476
0.031671
0.08468
0.084438
0.082675
0.080622
0.076308
0.072521
0.066065
0.060746
0.052877
0.046437
0.038256
0.031356
0.08508
0.084842
0.083061
0.080986
0.076611
0.072746
0.06621
0.060784
0.052834
0.046276
0.03803
0.031035
0.085494
0.085259
0.08346
0.081362
0.076927
0.07298
0.066361
0.060824
0.052791
0.046113
0.0378
0.030707
0.085922
0.08569
0.083873
0.081751
0.077254
0.073223
0.066519
0.060868
0.052749
0.045947
0.037564
0.030371
0.086364
0.086136
0.0843
0.082154
0.077594
0.073477
0.066685
0.060915
0.052707
0.045779
0.037323
0.030029
0.086821
0.086597
0.084742
0.08257
0.077946
0.073741
0.066858
0.060966
0.052665
0.045607
0.037075
0.029678
0.087293
0.087074
0.0852
0.083002
0.078313
0.074015
0.067039
0.06102
0.052624
0.045433
0.036822
0.029318
0.087782
0.087567
0.085675
0.083448
0.078693
0.074301
0.067227
0.061078
0.052582
0.045256
0.036562
0.02895
0.088288
0.088078
0.086166
0.083911
0.079088
0.074598
0.067424
0.061139
0.052541
0.045074
0.036294
0.028572
0.088811
0.088607
0.086676
0.08439
0.079499
0.074908
0.06763
0.061205
0.052499
0.044889
0.03602
0.028185
0.089354
0.089155
0.087204
0.084886
0.079926
0.075231
0.067845
0.061274
0.052457
0.044699
0.035737
0.027786
0.089916
0.089722
0.087752
0.085401
0.080369
0.075567
0.068069
0.061348
0.052414
0.044505
0.035445
0.027376
0.090498
0.090311
0.08832
0.085934
0.08083
0.075916
0.068302
0.061426
0.052371
0.044306
0.035144
0.026955
0.091102
0.090921
0.08891
0.086487
0.081309
0.07628
0.068546
0.061508
0.052327
0.044101
0.034834
0.02652
0.091728
0.091555
0.089523
0.087061
0.081808
0.07666
0.0688
0.061595
0.052282
0.043891
0.034512
0.026072
0.092378
0.092212
0.090159
0.087656
0.082326
0.077054
0.069065
0.061686
0.052236
0.043673
0.03418
0.025609
0.093053
0.092895
0.090821
0.088275
0.082865
0.077465
0.069341
0.061782
0.052188
0.043449
0.033836
0.025131
0.093754
0.093604
0.091508
0.088917
0.083425
0.077893
0.069629
0.061882
0.052138
0.043217
0.033478
0.024637
0.094483
0.094342
0.092224
0.089584
0.084009
0.078339
0.069928
0.061986
0.052086
0.042977
0.033107
0.024125
0.09524
0.095108
0.092968
0.090277
0.084616
0.078803
0.07024
0.062096
0.052031
0.042728
0.032721
0.023595
0.096028
0.095906
0.093743
0.090998
0.085247
0.079286
0.070564
0.062209
0.051973
0.042468
0.032319
0.023045
0.096848
0.096737
0.09455
0.091748
0.085905
0.079789
0.070901
0.062328
0.05191
0.042198
0.0319
0.022473
0.097702
0.097603
0.095391
0.092529
0.08659
0.080313
0.071251
0.06245
0.051844
0.041916
0.031462
0.021879
0.098592
0.098505
0.096268
0.093342
0.087303
0.080858
0.071614
0.062576
0.051772
0.041621
0.031005
0.021261
0.09952
0.099446
0.097183
0.09419
0.088045
0.081426
0.071991
0.062706
0.051694
0.041312
0.030526
0.020617
0.10049
0.10043
0.098139
0.095074
0.088819
0.082016
0.072382
0.062839
0.051608
0.040987
0.030024
0.019946
0.1015
0.10145
0.099137
0.095996
0.089626
0.08263
0.072787
0.062974
0.051515
0.040646
0.029498
0.019245
0.10256
0.10253
0.10018
0.096958
0.090467
0.08327
0.073206
0.063112
0.051412
0.040285
0.028944
0.018512
0.10366
0.10365
0.10127
0.097964
0.091344
0.083935
0.073638
0.063251
0.051298
0.039903
0.028362
0.017745
0.10482
0.10482
0.10241
0.099015
0.092259
0.084626
0.074085
0.06339
0.051171
0.039499
0.027748
0.016943
0.10603
0.10605
0.10361
0.10011
0.093214
0.085346
0.074546
0.063529
0.05103
0.03907
0.0271
0.016101
0.10729
0.10734
0.10487
0.10127
0.094211
0.086093
0.07502
0.063665
0.050873
0.038613
0.026416
0.015218
0.10862
0.10869
0.10618
0.10247
0.095253
0.086871
0.075508
0.063798
0.050696
0.038125
0.025691
0.014289
0.11002
0.11012
0.10757
0.10374
0.096341
0.087678
0.076007
0.063925
0.050497
0.037603
0.024923
0.013313
0.11149
0.11161
0.10902
0.10506
0.097478
0.088517
0.076519
0.064044
0.050273
0.037043
0.024108
0.012285
0.11303
0.11318
0.11055
0.10646
0.098668
0.089388
0.077041
0.064153
0.05002
0.036441
0.023241
0.011201
0.11466
0.11484
0.11216
0.10792
0.099912
0.090291
0.077572
0.064248
0.049734
0.035793
0.022318
0.010057
0.11637
0.11659
0.11386
0.10947
0.10122
0.091228
0.07811
0.064326
0.04941
0.035094
0.021335
0.0088485
0.11818
0.11843
0.11566
0.11109
0.10258
0.092199
0.078653
0.064383
0.049043
0.034336
0.020284
0.0075697
0.12009
0.12039
0.11756
0.1128
0.10401
0.093205
0.079199
0.064413
0.048627
0.033514
0.01916
0.0062152
0.12211
0.12245
0.11957
0.11461
0.10551
0.094244
0.079743
0.064411
0.048153
0.032621
0.017956
0.0047786
0.12426
0.12464
0.12169
0.11652
0.10707
0.095317
0.080282
0.064369
0.047614
0.031647
0.016664
0.0032531
0.12653
0.12697
0.12395
0.11853
0.10872
0.096423
0.08081
0.06428
0.046999
0.030583
0.015274
0.0016309
0.12895
0.12944
0.12635
0.12067
0.11045
0.09756
0.081321
0.064133
0.046299
0.029418
0.013779
-9.6411e-05
0.13152
0.13208
0.12891
0.12294
0.11225
0.098726
0.081806
0.063916
0.045499
0.028139
0.012165
-0.0019383
0.13427
0.13489
0.13163
0.12534
0.11415
0.099916
0.082256
0.063617
0.044586
0.026733
0.010421
-0.0039052
0.1372
0.1379
0.13454
0.12789
0.11614
0.10113
0.082656
0.063217
0.04354
0.025182
0.0085331
-0.0060088
0.14034
0.14111
0.13764
0.1306
0.11821
0.10235
0.082993
0.062699
0.042343
0.023469
0.0064853
-0.0082619
0.1437
0.14457
0.14097
0.13348
0.12039
0.10357
0.083246
0.062037
0.040969
0.021571
0.0042598
-0.010679
0.14732
0.14828
0.14455
0.13655
0.12265
0.10477
0.083391
0.061203
0.039392
0.019465
0.0018366
-0.013276
0.15123
0.15229
0.14839
0.13982
0.125
0.10595
0.083397
0.060163
0.037578
0.017121
-0.00080695
-0.016071
0.15545
0.15662
0.15253
0.14329
0.12743
0.10706
0.083226
0.058875
0.035489
0.014509
-0.0036963
-0.019083
0.16002
0.16132
0.157
0.14699
0.12993
0.10807
0.082828
0.057289
0.033079
0.011591
-0.00686
-0.022334
0.16499
0.16642
0.16183
0.15092
0.13247
0.10894
0.082144
0.055344
0.030298
0.0083255
-0.01033
-0.025847
0.17041
0.17199
0.16706
0.15509
0.13502
0.1096
0.081095
0.052968
0.027081
0.004664
-0.014143
-0.02965
0.17636
0.17808
0.17273
0.15949
0.13752
0.10996
0.079587
0.050071
0.023359
0.0005527
-0.018338
-0.033768
0.18289
0.18477
0.17889
0.1641
0.1399
0.10991
0.077496
0.046548
0.019047
-0.0040691
-0.022959
-0.038232
0.19012
0.19215
0.18558
0.16889
0.14203
0.10929
0.074671
0.042273
0.01405
-0.0092684
-0.028052
-0.04307
0.19814
0.20032
0.19282
0.17377
0.14376
0.1079
0.070922
0.037095
0.0082616
-0.015118
-0.033665
-0.04831
0.20711
0.20941
0.20065
0.17862
0.14484
0.10547
0.066018
0.03084
0.0015623
-0.021694
-0.039846
-0.053975
0.21721
0.21957
0.20904
0.18322
0.14492
0.10165
0.059676
0.023314
-0.0061728
-0.029069
-0.046635
-0.060077
0.22867
0.23095
0.21791
0.18721
0.14354
0.096009
0.051566
0.014302
-0.015066
-0.037307
-0.054055
-0.066604
0.24181
0.24373
0.22703
0.19002
0.14002
0.087982
0.041316
0.0035952
-0.025218
-0.046437
-0.062095
-0.073512
0.25704
0.25805
0.23594
0.19078
0.13349
0.076921
0.02855
-0.0089753
-0.036666
-0.056429
-0.070682
-0.080701
0.27495
0.27392
0.24374
0.1882
0.12282
0.062131
0.012967
-0.023458
-0.049328
-0.067139
-0.079647
-0.088
0.29633
0.29097
0.24882
0.18044
0.10672
0.043038
-0.0055016
-0.03966
-0.06291
-0.078261
-0.088698
-0.095157
0.32219
0.30801
0.24849
0.16515
0.084058
0.019516
-0.026436
-0.056989
-0.076828
-0.089291
-0.097416
-0.10186
0.3535
0.32238
0.23899
0.14
0.054469
-0.0075991
-0.048659
-0.074355
-0.090202
-0.099567
-0.10531
-0.10779
0.38968
0.32889
0.21627
0.10427
0.019514
-0.036068
-0.070187
-0.090294
-0.10203
-0.10843
-0.11198
-0.11272
0.42626
0.31822
0.17641
0.060171
-0.016972
-0.062787
-0.08902
-0.10366
-0.1117
-0.1156
-0.11732
-0.11672
0.46133
0.28382
0.1171
0.010283
-0.052068
-0.086398
-0.10501
-0.11487
-0.11984
-0.12173
-0.12198
-0.12037
0.50255
0.23876
0.049213
-0.040948
-0.084714
-0.10722
-0.11897
-0.12477
-0.12719
-0.12741
-0.12642
-0.12399
0.12702
0.075617
0.058932
0.050733
0.044944
0.04081
0.037571
0.034981
0.032709
0.030803
0.028982
0.02733
0.10927
0.066164
0.052634
0.04542
0.040155
0.03641
0.033474
0.031132
0.029078
0.027361
0.025725
0.024319
0.086118
0.054324
0.04378
0.037756
0.033231
0.030026
0.02752
0.02553
0.023789
0.022347
0.020972
0.019776
0.082552
0.055197
0.044318
0.038132
0.03346
0.030144
0.027559
0.025516
0.023732
0.022264
0.020865
0.019662
0.083656
0.058317
0.04662
0.040069
0.035101
0.03155
0.028788
0.026614
0.024715
0.023166
0.021685
0.02043
0.083553
0.060208
0.048196
0.041443
0.036266
0.032527
0.029624
0.027344
0.025354
0.023742
0.022197
0.020905
0.082577
0.061423
0.049441
0.042572
0.037239
0.033336
0.030301
0.027924
0.02585
0.024183
0.02258
0.021268
0.081494
0.062461
0.05067
0.043721
0.03826
0.034201
0.031033
0.028553
0.026387
0.024662
0.022998
0.021672
0.080452
0.063337
0.051859
0.044875
0.039322
0.035124
0.031825
0.02924
0.02698
0.025191
0.023464
0.022125
0.079402
0.063995
0.052937
0.045976
0.040372
0.036064
0.032646
0.02996
0.027607
0.025754
0.023962
0.022611
0.078326
0.06444
0.05388
0.046994
0.041381
0.036994
0.033474
0.030697
0.028257
0.02634
0.024484
0.023121
0.077241
0.064704
0.054684
0.047915
0.04233
0.037895
0.034295
0.031439
0.028918
0.026942
0.025024
0.023649
0.076168
0.064817
0.055353
0.048734
0.043208
0.038753
0.035094
0.032172
0.029581
0.02755
0.025574
0.024184
0.075122
0.06481
0.055896
0.049451
0.044005
0.039557
0.035858
0.032884
0.030234
0.028156
0.026125
0.024717
0.074109
0.064705
0.056323
0.050067
0.04472
0.040299
0.036579
0.033567
0.030869
0.028749
0.02667
0.02524
0.073137
0.064525
0.056648
0.050589
0.045354
0.040976
0.03725
0.034214
0.031477
0.029324
0.0272
0.025747
0.072207
0.064287
0.056882
0.051026
0.04591
0.041589
0.03787
0.034821
0.032055
0.029873
0.027712
0.026234
0.07132
0.064005
0.057039
0.051384
0.046393
0.042138
0.038438
0.035385
0.032598
0.030395
0.028201
0.026697
0.070474
0.06369
0.057129
0.051673
0.04681
0.042628
0.038955
0.035906
0.033106
0.030886
0.028664
0.027136
0.069669
0.063351
0.057163
0.0519
0.047165
0.043061
0.039423
0.036385
0.033579
0.031347
0.029102
0.02755
0.068902
0.062995
0.057149
0.052073
0.047466
0.043443
0.039845
0.036824
0.034016
0.031777
0.029513
0.02794
0.068169
0.062628
0.057094
0.052198
0.047717
0.043777
0.040224
0.037224
0.03442
0.032176
0.029899
0.028307
0.067468
0.062252
0.057005
0.052282
0.047924
0.044068
0.040563
0.037588
0.034793
0.032547
0.030259
0.028651
0.066796
0.061871
0.056887
0.052329
0.048092
0.04432
0.040866
0.037918
0.035135
0.03289
0.030595
0.028974
0.066151
0.061487
0.056745
0.052344
0.048224
0.044536
0.041134
0.038217
0.035449
0.033208
0.030908
0.029277
0.06553
0.061102
0.056583
0.052331
0.048325
0.044719
0.041372
0.038486
0.035737