/*--------------------------------*- C++ -*----------------------------------*\
  =========                 |
  \\      /  F ield         | OpenFOAM: The Open Source CFD Toolbox
   \\    /   O peration     | Website:  https://openfoam.org
    \\  /    A nd           | Version:  6.0
     \\/     M anipulation  |
\*---------------------------------------------------------------------------*/
FoamFile
{
    version     2.0;
    format      ascii;
    class       surfaceScalarField;
    location    "9";
    object      phi;
}
// * * * * * * * * * * * * * * * * * * * * * * * * * * * * * * * * * * * * * //

dimensions      [0 3 -1 0 0 0 0];

internalField   nonuniform List<scalar> 
28697
(
2.0052e-05
0.005201
2.262e-10
4.0126e-05
0.0051116
5.9639e-05
0.0049351
7.8186e-05
0.0046741
9.5416e-05
0.0043332
0.00011102
0.0039182
0.00012472
0.0034362
0.00013626
0.0028953
0.00014546
0.002305
0.00015181
0.0016755
0.00015762
0.001015
0.00046364
3.6182e-05
2.0052e-05
0.0051809
6.816e-10
4.0127e-05
0.0050916
5.9642e-05
0.0049155
7.8189e-05
0.0046556
9.542e-05
0.004316
0.00011102
0.0039026
0.00012471
0.0034225
0.00013624
0.0028838
0.00014545
0.0022958
0.00015097
0.00167
0.00016012
0.0010058
0.00055272
7.1047e-05
2.0053e-05
0.0051609
1.1403e-09
4.0129e-05
0.0050715
5.9644e-05
0.004896
7.8192e-05
0.004637
9.5422e-05
0.0042988
0.00011102
0.003887
0.00012471
0.0034088
0.00013622
0.0028723
0.00014547
0.0022865
0.00015004
0.0016654
0.00016188
0.00099397
0.00061499
9.9608e-05
2.0053e-05
0.0051408
1.601e-09
4.0131e-05
0.0050514
5.9647e-05
0.0048765
7.8195e-05
0.0046185
9.5425e-05
0.0042815
0.00011102
0.0038714
0.00012471
0.0033951
0.0001362
0.0028608
0.00014552
0.0022772
0.00014909
0.0016618
0.00016273
0.00098033
0.00065598
0.00012174
2.0054e-05
0.0051208
2.0636e-09
4.0132e-05
0.0050313
5.9649e-05
0.004857
7.8198e-05
0.0045999
9.5428e-05
0.0042643
0.00011103
0.0038558
0.0001247
0.0033814
0.00013618
0.0028493
0.00014562
0.0022678
0.00014818
0.0016593
0.00016271
0.0009658
0.00068019
0.00013851
2.0055e-05
0.0051007
2.5282e-09
4.0134e-05
0.0050113
5.9652e-05
0.0048375
7.8202e-05
0.0045814
9.5431e-05
0.0042471
0.00011103
0.0038402
0.0001247
0.0033677
0.00013615
0.0028379
0.00014575
0.0022582
0.00014736
0.0016577
0.00016197
0.00095119
0.00069134
0.00015082
2.0055e-05
0.0050807
2.9947e-09
4.0136e-05
0.0049912
5.9654e-05
0.004818
7.8205e-05
0.0045628
9.5434e-05
0.0042298
0.00011103
0.0038246
0.0001247
0.0033541
0.00013612
0.0028265
0.00014591
0.0022484
0.00014666
0.0016569
0.00016069
0.00093716
0.00069259
0.00015944
2.0056e-05
0.0050606
3.4633e-09
4.0137e-05
0.0049711
5.9657e-05
0.0047984
7.8208e-05
0.0045443
9.5437e-05
0.0042126
0.00011103
0.003809
0.0001247
0.0033404
0.00013608
0.0028151
0.00014609
0.0022384
0.00014611
0.0016569
0.00015907
0.0009242
0.00068657
0.00016509
2.0056e-05
0.0050405
3.9338e-09
4.0139e-05
0.004951
5.9659e-05
0.0047789
7.8211e-05
0.0045257
9.5441e-05
0.0041954
0.00011103
0.0037934
0.0001247
0.0033267
0.00013604
0.0028037
0.00014628
0.0022281
0.00014573
0.0016574
0.00015726
0.00091267
0.00067543
0.0001684
2.0057e-05
0.0050205
4.4065e-09
4.014e-05
0.0049309
5.9662e-05
0.0047594
7.8214e-05
0.0045072
9.5444e-05
0.0041782
0.00011104
0.0037778
0.0001247
0.0033131
0.00013598
0.0027925
0.00014649
0.0022176
0.00014552
0.0016584
0.0001554
0.00090279
0.00066091
0.00016992
2.0058e-05
0.0050004
4.8812e-09
4.0142e-05
0.0049108
5.9664e-05
0.0047399
7.8218e-05
0.0044886
9.5447e-05
0.0041609
0.00011104
0.0037622
0.00012471
0.0032994
0.00013593
0.0027812
0.00014669
0.0022068
0.00014548
0.0016596
0.00015359
0.00089469
0.00064436
0.00017013
2.0058e-05
0.0049804
5.3581e-09
4.0144e-05
0.0048908
5.9667e-05
0.0047204
7.8221e-05
0.0044701
9.545e-05
0.0041437
0.00011104
0.0037467
0.00012471
0.0032857
0.00013586
0.0027701
0.00014689
0.0021958
0.0001456
0.0016609
0.00015191
0.00088838
0.00062684
0.00016942
2.0059e-05
0.0049603
5.8371e-09
4.0145e-05
0.0048707
5.9669e-05
0.0047008
7.8224e-05
0.0044515
9.5453e-05
0.0041265
0.00011104
0.0037311
0.00012472
0.0032721
0.00013579
0.002759
0.00014707
0.0021845
0.00014585
0.0016621
0.00015042
0.00088381
0.00060916
0.0001681
2.0059e-05
0.0049402
6.3183e-09
4.0147e-05
0.0048506
5.9672e-05
0.0046813
7.8227e-05
0.004433
9.5457e-05
0.0041092
0.00011105
0.0037155
0.00012473
0.0032584
0.00013572
0.002748
0.00014724
0.002173
0.00014623
0.0016631
0.00014915
0.00088089
0.0005919
0.00016641
2.006e-05
0.0049202
6.8017e-09
4.0149e-05
0.0048305
5.9675e-05
0.0046618
7.8231e-05
0.0044144
9.546e-05
0.004092
0.00011105
0.0036999
0.00012474
0.0032447
0.00013564
0.0027371
0.00014739
0.0021613
0.00014671
0.0016638
0.00014813
0.00087947
0.00057547
0.00016455
2.0061e-05
0.0049001
7.2874e-09
4.015e-05
0.0048104
5.9677e-05
0.0046423
7.8234e-05
0.0043958
9.5463e-05
0.0040748
0.00011105
0.0036843
0.00012475
0.003231
0.00013555
0.0027263
0.00014752
0.0021493
0.00014727
0.0016641
0.00014735
0.00087939
0.00056015
0.00016267
2.0061e-05
0.00488
7.7753e-09
4.0152e-05
0.0047903
5.968e-05
0.0046227
7.8237e-05
0.0043773
9.5467e-05
0.0040576
0.00011105
0.0036687
0.00012477
0.0032173
0.00013546
0.0027156
0.00014762
0.0021371
0.00014789
0.0016638
0.00014682
0.00088046
0.0005461
0.00016087
2.0062e-05
0.00486
8.2656e-09
4.0154e-05
0.0047702
5.9682e-05
0.0046032
7.8241e-05
0.0043587
9.5471e-05
0.0040403
0.00011105
0.0036531
0.00012478
0.0032035
0.00013537
0.002705
0.00014769
0.0021248
0.00014856
0.0016629
0.00014652
0.0008825
0.0005334
0.00015922
2.0062e-05
0.0048399
8.7583e-09
4.0155e-05
0.0047501
5.9685e-05
0.0045837
7.8244e-05
0.0043402
9.5474e-05
0.0040231
0.00011106
0.0036375
0.00012481
0.0031898
0.00013528
0.0026946
0.00014773
0.0021124
0.00014925
0.0016614
0.00014643
0.00088532
0.00052206
0.00015778
2.0063e-05
0.0048198
9.2533e-09
4.0157e-05
0.00473
5.9687e-05
0.0045641
7.8247e-05
0.0043216
9.5478e-05
0.0040059
0.00011106
0.003622
0.00012483
0.003176
0.00013519
0.0026842
0.00014774
0.0020998
0.00014996
0.0016592
0.00014654
0.00088874
0.00051204
0.00015656
2.0063e-05
0.0047997
9.7507e-09
4.0159e-05
0.0047099
5.969e-05
0.0045446
7.8251e-05
0.004303
9.5482e-05
0.0039886
0.00011106
0.0036064
0.00012485
0.0031622
0.0001351
0.002674
0.00014772
0.0020872
0.00015066
0.0016563
0.00014681
0.00089259
0.00050327
0.00015558
2.0064e-05
0.0047797
1.0251e-08
4.016e-05
0.0046898
5.9693e-05
0.0045251
7.8254e-05
0.0042845
9.5485e-05
0.0039714
0.00011106
0.0035908
0.00012488
0.0031484
0.00013501
0.0026638
0.00014768
0.0020745
0.00015134
0.0016526
0.00014723
0.0008967
0.00049565
0.00015485
2.0065e-05
0.0047596
1.0753e-08
4.0162e-05
0.0046697
5.9695e-05
0.0045055
7.8258e-05
0.0042659
9.5489e-05
0.0039542
0.00011106
0.0035752
0.00012491
0.0031346
0.00013492
0.0026538
0.0001476
0.0020619
0.000152
0.0016482
0.00014776
0.00090093
0.00048907
0.00015434
2.0065e-05
0.0047395
1.1258e-08
4.0164e-05
0.0046496
5.9698e-05
0.004486
7.8261e-05
0.0042474
9.5493e-05
0.0039369
0.00011106
0.0035597
0.00012494
0.0031207
0.00013484
0.0026439
0.0001475
0.0020492
0.00015262
0.0016431
0.00014839
0.00090516
0.00048342
0.00015404
2.0066e-05
0.0047194
1.1765e-08
4.0165e-05
0.0046295
5.97e-05
0.0044665
7.8265e-05
0.0042288
9.5498e-05
0.0039197
0.00011106
0.0035441
0.00012498
0.0031068
0.00013476
0.0026342
0.00014737
0.0020366
0.00015319
0.0016372
0.00014909
0.00090927
0.00047858
0.00015393
2.0066e-05
0.0046994
1.2275e-08
4.0167e-05
0.0046094
5.9703e-05
0.0044469
7.8268e-05
0.0042102
9.5502e-05
0.0039025
0.00011106
0.0035286
0.00012502
0.0030928
0.00013468
0.0026245
0.00014721
0.0020241
0.00015372
0.0016307
0.00014984
0.00091316
0.00047443
0.00015399
2.0067e-05
0.0046793
1.2788e-08
4.0169e-05
0.0045893
5.9706e-05
0.0044274
7.8272e-05
0.0041917
9.5506e-05
0.0038852
0.00011106
0.003513
0.00012506
0.0030788
0.00013461
0.0026149
0.00014703
0.0020116
0.0001542
0.0016236
0.00015061
0.00091674
0.00047086
0.00015419
2.0068e-05
0.0046592
1.3303e-08
4.017e-05
0.0045692
5.9708e-05
0.0044079
7.8275e-05
0.0041731
9.5511e-05
0.003868
0.00011105
0.0034975
0.0001251
0.0030647
0.00013455
0.0026055
0.00014684
0.0019994
0.00015462
0.0016158
0.00015141
0.00091995
0.00046776
0.0001545
2.0068e-05
0.0046391
1.3821e-08
4.0172e-05
0.0045491
5.9711e-05
0.0043883
7.8279e-05
0.0041545
9.5516e-05
0.0038508
0.00011105
0.0034819
0.00012514
0.0030507
0.0001345
0.0025961
0.00014662
0.0019872
0.00015498
0.0016074
0.0001522
0.00092273
0.00046504
0.00015492
2.0069e-05
0.004619
1.4342e-08
4.0174e-05
0.004529
5.9714e-05
0.0043688
7.8282e-05
0.004136
9.552e-05
0.0038335
0.00011105
0.0034664
0.00012519
0.0030365
0.00013446
0.0025868
0.00014639
0.0019753
0.00015528
0.0015985
0.00015298
0.00092504
0.00046262
0.0001554
2.0069e-05
0.0045989
1.4866e-08
4.0175e-05
0.0045089
5.9716e-05
0.0043492
7.8286e-05
0.0041174
9.5526e-05
0.0038163
0.00011104
0.0034509
0.00012523
0.0030223
0.00013443
0.0025776
0.00014615
0.0019636
0.00015552
0.0015892
0.00015373
0.00092684
0.00046041
0.00015594
2.007e-05
0.0045789
1.5392e-08
4.0177e-05
0.0044888
5.9719e-05
0.0043297
7.829e-05
0.0040988
9.5531e-05
0.003799
0.00011104
0.0034354
0.00012528
0.0030081
0.0001344
0.0025685
0.00014589
0.0019521
0.00015571
0.0015793
0.00015444
0.00092811
0.00045834
0.00015651
2.0071e-05
0.0045588
1.5921e-08
4.0179e-05
0.0044687
5.9722e-05
0.0043102
7.8293e-05
0.0040802
9.5536e-05
0.0037818
0.00011103
0.0034199
0.00012533
0.0029938
0.00013439
0.0025595
0.00014563
0.0019409
0.00015584
0.0015691
0.00015511
0.00092883
0.00045637
0.00015709
2.0071e-05
0.0045387
1.6453e-08
4.0181e-05
0.0044486
5.9725e-05
0.0042906
7.8297e-05
0.0040617
9.5542e-05
0.0037646
0.00011103
0.0034044
0.00012538
0.0029794
0.00013439
0.0025505
0.00014537
0.0019299
0.00015591
0.0015586
0.00015573
0.00092901
0.00045442
0.00015768
2.0072e-05
0.0045186
1.6988e-08
4.0182e-05
0.0044285
5.9727e-05
0.0042711
7.8301e-05
0.0040431
9.5548e-05
0.0037473
0.00011102
0.0033889
0.00012543
0.002965
0.0001344
0.0025415
0.0001451
0.0019192
0.00015593
0.0015478
0.0001563
0.00092864
0.00045247
0.00015826
2.0072e-05
0.0044985
1.7526e-08
4.0184e-05
0.0044084
5.973e-05
0.0042515
7.8304e-05
0.0040245
9.5554e-05
0.0037301
0.00011101
0.0033735
0.00012548
0.0029505
0.00013442
0.0025325
0.00014483
0.0019088
0.0001559
0.0015367
0.00015681
0.00092773
0.00045047
0.00015881
2.0073e-05
0.0044784
1.8067e-08
4.0186e-05
0.0043883
5.9733e-05
0.004232
7.8308e-05
0.0040059
9.5561e-05
0.0037128
0.000111
0.003358
0.00012553
0.002936
0.00013446
0.0025236
0.00014457
0.0018987
0.00015583
0.0015254
0.00015726
0.0009263
0.00044839
0.00015933
2.0073e-05
0.0044583
1.8611e-08
4.0188e-05
0.0043682
5.9736e-05
0.0042124
7.8312e-05
0.0039874
9.5567e-05
0.0036955
0.00011099
0.0033426
0.00012557
0.0029214
0.0001345
0.0025147
0.00014431
0.0018889
0.00015571
0.001514
0.00015765
0.00092436
0.00044622
0.00015982
2.0074e-05
0.0044382
1.9158e-08
4.0189e-05
0.004348
5.9738e-05
0.0041929
7.8316e-05
0.0039688
9.5574e-05
0.0036783
0.00011098
0.0033272
0.00012562
0.0029068
0.00013456
0.0025057
0.00014406
0.0018794
0.00015555
0.0015025
0.00015797
0.00092193
0.00044393
0.00016027
2.0075e-05
0.0044181
1.9709e-08
4.0191e-05
0.0043279
5.9741e-05
0.0041733
7.8319e-05
0.0039502
9.5582e-05
0.003661
0.00011097
0.0033118
0.00012567
0.0028921
0.00013463
0.0024968
0.00014382
0.0018702
0.00015536
0.001491
0.00015824
0.00091905
0.0004415
0.00016066
2.0075e-05
0.004398
2.0262e-08
4.0193e-05
0.0043078
5.9744e-05
0.0041538
7.8323e-05
0.0039316
9.559e-05
0.0036438
0.00011096
0.0032965
0.00012571
0.0028773
0.00013471
0.0024878
0.00014359
0.0018613
0.00015514
0.0014794
0.00015845
0.00091574
0.00043894
0.00016101
2.0076e-05
0.0043779
2.0818e-08
4.0195e-05
0.0042877
5.9747e-05
0.0041342
7.8327e-05
0.0039131
9.5598e-05
0.0036265
0.00011095
0.0032811
0.00012576
0.0028625
0.0001348
0.0024788
0.00014337
0.0018527
0.00015489
0.0014679
0.0001586
0.00091203
0.00043624
0.0001613
2.0076e-05
0.0043578
2.1378e-08
4.0196e-05
0.0042676
5.975e-05
0.0041147
7.8331e-05
0.0038945
9.5606e-05
0.0036092
0.00011093
0.0032658
0.0001258
0.0028477
0.0001349
0.0024697
0.00014317
0.0018444
0.00015462
0.0014565
0.0001587
0.00090796
0.00043339
0.00016155
2.0077e-05
0.0043377
2.1941e-08
4.0198e-05
0.0042474
5.9753e-05
0.0040951
7.8334e-05
0.0038759
9.5615e-05
0.0035919
0.00011092
0.0032505
0.00012584
0.0028328
0.00013501
0.0024605
0.00014299
0.0018365
0.00015434
0.0014451
0.00015875
0.00090355
0.0004304
0.00016174
2.0078e-05
0.0043176
2.2508e-08
4.02e-05
0.0042273
5.9756e-05
0.0040756
7.8338e-05
0.0038573
9.5624e-05
0.0035746
0.00011091
0.0032352
0.00012587
0.0028178
0.00013513
0.0024512
0.00014282
0.0018288
0.00015404
0.0014339
0.00015874
0.00089884
0.00042727
0.00016188
2.0078e-05
0.0042975
2.3078e-08
4.0202e-05
0.0042072
5.9759e-05
0.004056
7.8342e-05
0.0038387
9.5634e-05
0.0035574
0.00011089
0.0032199
0.0001259
0.0028028
0.00013526
0.0024419
0.00014267
0.0018214
0.00015373
0.0014228
0.0001587
0.00089386
0.000424
0.00016197
2.0079e-05
0.0042774
2.3651e-08
4.0204e-05
0.0041871
5.9762e-05
0.0040364
7.8345e-05
0.0038201
9.5644e-05
0.0035401
0.00011088
0.0032047
0.00012593
0.0027877
0.0001354
0.0024324
0.00014255
0.0018142
0.00015341
0.001412
0.00015862
0.00088866
0.00042061
0.00016201
2.0079e-05
0.0042573
2.4228e-08
4.0205e-05
0.0041669
5.9765e-05
0.0040169
7.8349e-05
0.0038016
9.5654e-05
0.0035228
0.00011086
0.0031895
0.00012596
0.0027726
0.00013554
0.0024228
0.00014245
0.0018073
0.00015309
0.0014013
0.0001585
0.00088325
0.0004171
0.00016201
2.008e-05
0.0042372
2.4808e-08
4.0207e-05
0.0041468
5.9768e-05
0.0039973
7.8353e-05
0.003783
9.5665e-05
0.0035054
0.00011085
0.0031743
0.00012598
0.0027575
0.00013569
0.0024131
0.00014236
0.0018006
0.00015278
0.0013909
0.00015835
0.00087768
0.00041348
0.00016197
2.0081e-05
0.0042171
2.5392e-08
4.0209e-05
0.0041267
5.9771e-05
0.0039778
7.8356e-05
0.0037644
9.5676e-05
0.0034881
0.00011083
0.0031592
0.000126
0.0027423
0.00013585
0.0024033
0.0001423
0.0017942
0.00015247
0.0013808
0.00015817
0.00087198
0.00040976
0.00016189
2.0081e-05
0.004197
2.5979e-08
4.0211e-05
0.0041066
5.9774e-05
0.0039582
7.836e-05
0.0037458
9.5688e-05
0.0034708
0.00011081
0.003144
0.00012602
0.0027271
0.00013601
0.0023933
0.00014227
0.0017879
0.00015217
0.0013709
0.00015798
0.00086617
0.00040596
0.00016178
2.0082e-05
0.0041769
2.657e-08
4.0213e-05
0.0040864
5.9777e-05
0.0039386
7.8363e-05
0.0037272
9.5701e-05
0.0034535
0.0001108
0.0031289
0.00012603
0.0027119
0.00013617
0.0023831
0.00014225
0.0017818
0.00015188
0.0013612
0.00015776
0.00086028
0.00040209
0.00016164
2.0083e-05
0.0041568
2.7165e-08
4.0215e-05
0.0040663
5.978e-05
0.0039191
7.8367e-05
0.0037086
9.5713e-05
0.0034361
0.00011078
0.0031139
0.00012603
0.0026966
0.00013634
0.0023728
0.00014226
0.0017759
0.00015161
0.0013519
0.00015754
0.00085435
0.00039815
0.00016147
2.0083e-05
0.0041367
2.7763e-08
4.0217e-05
0.0040462
5.9783e-05
0.0038995
7.837e-05
0.00369
9.5727e-05
0.0034188
0.00011077
0.0030988
0.00012604
0.0026814
0.00013651
0.0023624
0.00014229
0.0017701
0.00015135
0.0013428
0.0001573
0.0008484
0.00039417
0.00016129
2.0084e-05
0.0041166
2.8366e-08
4.0218e-05
0.004026
5.9787e-05
0.0038799
7.8374e-05
0.0036715
9.574e-05
0.0034014
0.00011075
0.0030838
0.00012603
0.0026661
0.00013668
0.0023517
0.00014234
0.0017645
0.00015111
0.001334
0.00015706
0.00084245
0.00039015
0.00016108
2.0084e-05
0.0040965
2.8972e-08
4.022e-05
0.0040059
5.979e-05
0.0038604
7.8377e-05
0.0036529
9.5755e-05
0.003384
0.00011074
0.0030688
0.00012603
0.0026508
0.00013685
0.0023409
0.00014241
0.0017589
0.00015089
0.0013256
0.00015682
0.00083652
0.0003861
0.00016087
2.0085e-05
0.0040764
2.9582e-08
4.0222e-05
0.0039858
5.9793e-05
0.0038408
7.8381e-05
0.0036343
9.5769e-05
0.0033666
0.00011072
0.0030539
0.00012601
0.0026355
0.00013702
0.0023299
0.0001425
0.0017534
0.0001507
0.0013174
0.00015658
0.00083064
0.00038204
0.00016064
2.0086e-05
0.0040562
3.0196e-08
4.0224e-05
0.0039656
5.9796e-05
0.0038212
7.8384e-05
0.0036157
9.5785e-05
0.0033492
0.00011071
0.003039
0.000126
0.0026202
0.00013719
0.0023187
0.00014262
0.001748
0.00015053
0.0013095
0.00015635
0.00082482
0.00037798
0.00016041
2.0086e-05
0.0040361
3.0814e-08
4.0226e-05
0.0039455
5.98e-05
0.0038016
7.8387e-05
0.0035971
9.58e-05
0.0033318
0.0001107
0.0030241
0.00012598
0.0026049
0.00013735
0.0023073
0.00014275
0.0017426
0.00015039
0.0013018
0.00015613
0.00081908
0.00037393
0.00016018
2.0087e-05
0.004016
3.1436e-08
4.0228e-05
0.0039253
5.9803e-05
0.0037821
7.839e-05
0.0035785
9.5817e-05
0.0033144
0.00011068
0.0030092
0.00012595
0.0025897
0.00013751
0.0022958
0.00014289
0.0017372
0.00015027
0.0012944
0.00015592
0.00081343
0.0003699
0.00015995
2.0088e-05
0.0039959
3.2062e-08
4.023e-05
0.0039052
5.9807e-05
0.0037625
7.8393e-05
0.0035599
9.5833e-05
0.0032969
0.00011067
0.0029943
0.00012592
0.0025744
0.00013767
0.002284
0.00014305
0.0017318
0.00015017
0.0012873
0.00015572
0.00080788
0.00036589
0.00015973
2.0088e-05
0.0039758
3.2692e-08
4.0232e-05
0.0038851
5.981e-05
0.0037429
7.8396e-05
0.0035414
9.585e-05
0.0032795
0.00011066
0.0029795
0.00012589
0.0025592
0.00013782
0.0022721
0.00014323
0.0017264
0.00015011
0.0012804
0.00015555
0.00080244
0.00036192
0.00015952
2.0089e-05
0.0039556
3.3327e-08
4.0234e-05
0.0038649
5.9814e-05
0.0037233
7.8399e-05
0.0035228
9.5868e-05
0.003262
0.00011065
0.0029648
0.00012585
0.002544
0.00013797
0.0022599
0.00014342
0.001721
0.00015007
0.0012738
0.00015539
0.00079712
0.00035799
0.00015932
2.009e-05
0.0039355
3.3966e-08
4.0236e-05
0.0038448
5.9817e-05
0.0037038
7.8402e-05
0.0035042
9.5886e-05
0.0032445
0.00011065
0.00295
0.0001258
0.0025288
0.00013811
0.0022476
0.00014362
0.0017155
0.00015006
0.0012674
0.00015525
0.00079192
0.00035412
0.00015913
2.009e-05
0.0039154
3.4609e-08
4.0238e-05
0.0038246
5.9821e-05
0.0036842
7.8404e-05
0.0034856
9.5905e-05
0.003227
0.00011064
0.0029353
0.00012576
0.0025137
0.00013824
0.0022351
0.00014383
0.0017099
0.00015007
0.0012611
0.00015514
0.00078685
0.0003503
0.00015896
2.0091e-05
0.0038953
3.5257e-08
4.024e-05
0.0038045
5.9825e-05
0.0036646
7.8407e-05
0.003467
9.5923e-05
0.0032095
0.00011063
0.0029205
0.00012571
0.0024987
0.00013837
0.0022225
0.00014405
0.0017042
0.00015011
0.0012551
0.00015505
0.00078192
0.00034654
0.0001588
2.0092e-05
0.0038751
3.5909e-08
4.0242e-05
0.0037843
5.9828e-05
0.003645
7.8409e-05
0.0034484
9.5943e-05
0.003192
0.00011063
0.0029059
0.00012565
0.0024836
0.00013849
0.0022097
0.00014428
0.0016984
0.00015017
0.0012492
0.00015498
0.00077711
0.00034284
0.00015867
2.0092e-05
0.003855
3.6566e-08
4.0244e-05
0.0037642
5.9832e-05
0.0036254
7.8411e-05
0.0034299
9.5962e-05
0.0031744
0.00011063
0.0028912
0.00012559
0.0024687
0.00013859
0.0021967
0.00014451
0.0016925
0.00015026
0.0012434
0.00015494
0.00077243
0.00033922
0.00015856
2.0093e-05
0.0038349
3.7227e-08
4.0246e-05
0.003744
5.9836e-05
0.0036058
7.8414e-05
0.0034113
9.5982e-05
0.0031569
0.00011063
0.0028765
0.00012553
0.0024538
0.00013869
0.0021835
0.00014475
0.0016864
0.00015037
0.0012378
0.00015492
0.00076787
0.00033567
0.00015847
2.0094e-05
0.0038147
3.7893e-08
4.0249e-05
0.0037239
5.984e-05
0.0035862
7.8416e-05
0.0033927
9.6002e-05
0.0031393
0.00011063
0.0028619
0.00012547
0.0024389
0.00013878
0.0021702
0.00014499
0.0016802
0.00015049
0.0012323
0.00015493
0.00076344
0.00033219
0.00015841
2.0094e-05
0.0037946
3.8563e-08
4.0251e-05
0.0037037
5.9844e-05
0.0035666
7.8418e-05
0.0033741
9.6023e-05
0.0031217
0.00011064
0.0028473
0.0001254
0.0024242
0.00013886
0.0021567
0.00014523
0.0016738
0.00015064
0.0012269
0.00015496
0.00075913
0.00032878
0.00015836
2.0095e-05
0.0037745
3.9239e-08
4.0253e-05
0.0036835
5.9848e-05
0.003547
7.8419e-05
0.0033556
9.6044e-05
0.003104
0.00011065
0.0028327
0.00012533
0.0024095
0.00013893
0.0021431
0.00014547
0.0016673
0.00015081
0.0012216
0.00015502
0.00075492
0.00032545
0.00015834
2.0096e-05
0.0037543
3.9919e-08
4.0255e-05
0.0036634
5.9852e-05
0.0035275
7.8421e-05
0.003337
9.6064e-05
0.0030864
0.00011065
0.0028181
0.00012526
0.0023949
0.00013899
0.0021294
0.00014571
0.0016606
0.00015099
0.0012163
0.00015509
0.00075081
0.0003222
0.00015835
2.0097e-05
0.0037342
4.0604e-08
4.0257e-05
0.0036432
5.9856e-05
0.0035079
7.8423e-05
0.0033184
9.6086e-05
0.0030687
0.00011067
0.0028035
0.00012519
0.0023804
0.00013903
0.0021156
0.00014594
0.0016537
0.00015119
0.0012111
0.0001552
0.00074681
0.00031902
0.00015838
2.0097e-05
0.0037141
4.1295e-08
4.0259e-05
0.0036231
5.9861e-05
0.0034883
7.8424e-05
0.0032999
9.6107e-05
0.0030511
0.00011068
0.0027889
0.00012511
0.0023659
0.00013907
0.0021016
0.00014617
0.0016466
0.00015139
0.0012058
0.00015532
0.00074288
0.00031591
0.00015843
2.0098e-05
0.0036939
4.199e-08
4.0262e-05
0.0036029
5.9865e-05
0.0034686
7.8425e-05
0.0032813
9.6128e-05
0.0030334
0.0001107
0.0027744
0.00012504
0.0023516
0.00013909
0.0020876
0.0001464
0.0016392
0.00015161
0.0012006
0.00015546
0.00073904
0.00031287
0.0001585
2.0099e-05
0.0036738
4.2691e-08
4.0264e-05
0.0035827
5.9869e-05
0.003449
7.8426e-05
0.0032627
9.6149e-05
0.0030156
0.00011072
0.0027598
0.00012496
0.0023373
0.00013911
0.0020734
0.00014661
0.0016317
0.00015184
0.0011954
0.00015562
0.00073526
0.00030989
0.00015859
2.0099e-05
0.0036536
4.3396e-08
4.0266e-05
0.0035626
5.9874e-05
0.0034294
7.8427e-05
0.0032442
9.6171e-05
0.0029979
0.00011074
0.0027452
0.00012489
0.0023232
0.00013911
0.0020592
0.00014682
0.001624
0.00015207
0.0011901
0.00015579
0.00073154
0.00030699
0.0001587
2.01e-05
0.0036335
4.4107e-08
4.0268e-05
0.0035424
5.9879e-05
0.0034098
7.8428e-05
0.0032256
9.6192e-05
0.0029801
0.00011076
0.0027307
0.00012481
0.0023091
0.00013911
0.0020449
0.00014702
0.0016161
0.00015231
0.0011848
0.00015599
0.00072786
0.00030414
0.00015883
2.0101e-05
0.0036134
4.4824e-08
4.0271e-05
0.0035222
5.9883e-05
0.0033902
7.8429e-05
0.0032071
9.6213e-05
0.0029623
0.00011079
0.0027161
0.00012474
0.0022952
0.00013909
0.0020305
0.00014721
0.001608
0.00015255
0.0011795
0.00015619
0.00072423
0.00030135
0.00015898
2.0102e-05
0.0035932
4.5546e-08
4.0273e-05
0.0035021
5.9888e-05
0.0033706
7.8429e-05
0.0031886
9.6234e-05
0.0029445
0.00011082
0.0027015
0.00012466
0.0022813
0.00013906
0.0020161
0.00014739
0.0015997
0.0001528
0.0011741
0.0001564
0.00072062
0.00029862
0.00015914
2.0103e-05
0.0035731
4.6273e-08
4.0275e-05
0.0034819
5.9893e-05
0.003351
7.843e-05
0.00317
9.6255e-05
0.0029267
0.00011085
0.0026869
0.00012459
0.0022676
0.00013903
0.0020017
0.00014756
0.0015911
0.00015304
0.0011686
0.00015663
0.00071703
0.00029593
0.00015931
2.0103e-05
0.0035529
4.7007e-08
4.0278e-05
0.0034617
5.9898e-05
0.0033314
7.843e-05
0.0031515
9.6275e-05
0.0029089
0.00011089
0.0026723
0.00012452
0.002254
0.00013898
0.0019872
0.00014771
0.0015824
0.00015328
0.001163
0.00015686
0.00071345
0.00029329
0.0001595
2.0104e-05
0.0035328
4.7745e-08
4.028e-05
0.0034415
5.9903e-05
0.0033117
7.843e-05
0.003133
9.6295e-05
0.002891
0.00011093
0.0026577
0.00012445
0.0022404
0.00013893
0.0019728
0.00014785
0.0015735
0.00015352
0.0011574
0.0001571
0.00070986
0.00029069
0.0001597
2.0105e-05
0.0035126
4.849e-08
4.0282e-05
0.0034214
5.9908e-05
0.0032921
7.843e-05
0.0031144
9.6315e-05
0.0028731
0.00011097
0.002643
0.00012438
0.002227
0.00013886
0.0019583
0.00014798
0.0015644
0.00015375
0.0011516
0.00015734
0.00070627
0.00028813
0.0001599
2.0106e-05
0.0034924
4.9241e-08
4.0285e-05
0.0034012
5.9914e-05
0.0032725
7.843e-05
0.0030959
9.6334e-05
0.0028552
0.00011101
0.0026283
0.00012432
0.0022137
0.00013879
0.0019438
0.00014809
0.0015551
0.00015397
0.0011457
0.00015758
0.00070266
0.00028561
0.00016011
2.0107e-05
0.0034723
4.9998e-08
4.0287e-05
0.003381
5.9919e-05
0.0032528
7.843e-05
0.0030774
9.6353e-05
0.0028373
0.00011106
0.0026136
0.00012426
0.0022005
0.00013871
0.0019293
0.00014819
0.0015456
0.00015419
0.0011397
0.00015782
0.00069902
0.00028311
0.00016032
2.0107e-05
0.0034521
5.076e-08
4.0289e-05
0.0033608
5.9925e-05
0.0032332
7.843e-05
0.0030589
9.6371e-05
0.0028193
0.00011111
0.0025989
0.0001242
0.0021874
0.00013863
0.0019149
0.00014828
0.001536
0.00015439
0.0011336
0.00015806
0.00069535
0.00028064
0.00016054
2.0108e-05
0.003432
5.1529e-08
4.0292e-05
0.0033406
5.993e-05
0.0032136
7.843e-05
0.0030404
9.6389e-05
0.0028014
0.00011116
0.0025841
0.00012415
0.0021744
0.00013854
0.0019005
0.00014835
0.0015261
0.00015459
0.0011274
0.0001583
0.00069164
0.00027818
0.00016075
2.0109e-05
0.0034118
5.2305e-08
4.0294e-05
0.0033204
5.9936e-05
0.0031939
7.8429e-05
0.0030219
9.6406e-05
0.0027834
0.00011121
0.0025693
0.0001241
0.0021615
0.00013844
0.0018862
0.0001484
0.0015162
0.00015477
0.001121
0.00015853
0.00068788
0.00027575
0.00016097
2.011e-05
0.0033916
5.3086e-08
4.0297e-05
0.0033003
5.9942e-05
0.0031743
7.8429e-05
0.0030034
9.6422e-05
0.0027654
0.00011127
0.0025545
0.00012405
0.0021488
0.00013834
0.0018719
0.00014844
0.0015061
0.00015494
0.0011145
0.00015875
0.00068406
0.00027333
0.00016118
2.0111e-05
0.0033715
5.3875e-08
4.0299e-05
0.0032801
5.9948e-05
0.0031546
7.8428e-05
0.0029849
9.6437e-05
0.0027474
0.00011133
0.0025396
0.00012401
0.0021361
0.00013823
0.0018577
0.00014847
0.0014958
0.0001551
0.0011079
0.00015897
0.00068019
0.00027092
0.00016138
2.0112e-05
0.0033513
5.4669e-08
4.0302e-05
0.0032599
5.9954e-05
0.003135
7.8428e-05
0.0029665
9.6452e-05
0.0027294
0.00011139
0.0025247
0.00012398
0.0021235
0.00013812
0.0018436
0.00014849
0.0014855
0.00015524
0.0011011
0.00015918
0.00067626
0.00026851
0.00016158
2.0113e-05
0.0033311
5.5471e-08
4.0304e-05
0.0032397
5.9961e-05
0.0031153
7.8427e-05
0.002948
9.6465e-05
0.0027113
0.00011145
0.0025097
0.00012395
0.002111
0.00013801
0.0018295
0.00014849
0.001475
0.00015537
0.0010942
0.00015937
0.00067226
0.00026611
0.00016178
2.0113e-05
0.003311
5.628e-08
4.0307e-05
0.0032195
5.9967e-05
0.0030957
7.8427e-05
0.0029295
9.6478e-05
0.0026933
0.00011151
0.0024946
0.00012393
0.0020986
0.00013789
0.0018155
0.00014847
0.0014644
0.00015549
0.0010872
0.00015956
0.00066819
0.00026371
0.00016196
2.0114e-05
0.0032908
5.7095e-08
4.0309e-05
0.0031993
5.9974e-05
0.003076
7.8426e-05
0.0029111
9.649e-05
0.0026752
0.00011158
0.0024796
0.00012391
0.0020862
0.00013777
0.0018017
0.00014845
0.0014537
0.00015559
0.0010801
0.00015973
0.00066404
0.0002613
0.00016213
2.0115e-05
0.0032706
5.7918e-08
4.0312e-05
0.0031791
5.9981e-05
0.0030563
7.8426e-05
0.0028926
9.65e-05
0.0026572
0.00011165
0.0024644
0.0001239
0.002074
0.00013766
0.0017879
0.00014841
0.001443
0.00015567
0.0010728
0.00015988
0.00065983
0.00025889
0.00016229
2.0116e-05
0.0032505
5.8747e-08
4.0315e-05
0.0031589
5.9988e-05
0.0030367
7.8425e-05
0.0028742
9.651e-05
0.0026391
0.00011172
0.0024492
0.00012389
0.0020618
0.00013754
0.0017743
0.00014836
0.0014321
0.00015574
0.0010655
0.00016003
0.00065554
0.00025648
0.00016244
2.0117e-05
0.0032303
5.9584e-08
4.0317e-05
0.0031387
5.9995e-05
0.003017
7.8424e-05
0.0028558
9.6518e-05
0.002621
0.00011179
0.0024339
0.0001239
0.0020497
0.00013743
0.0017607
0.00014831
0.0014213
0.00015579
0.001058
0.00016016
0.00065117
0.00025405
0.00016258
2.0118e-05
0.0032101
6.0429e-08
4.032e-05
0.0031185
6.0002e-05
0.0029973
7.8424e-05
0.0028374
9.6525e-05
0.0026029
0.00011186
0.0024186
0.0001239
0.0020377
0.00013731
0.0017473
0.00014824
0.0014103
0.00015583
0.0010504
0.00016027
0.00064673
0.00025162
0.0001627
2.0119e-05
0.0031899
6.1281e-08
4.0322e-05
0.0030983
6.0009e-05
0.0029776
7.8424e-05
0.0028189
9.6531e-05
0.0025848
0.00011194
0.0024032
0.00012392
0.0020257
0.0001372
0.001734
0.00014816
0.0013994
0.00015585
0.0010427
0.00016037
0.00064222
0.00024917
0.00016281
2.012e-05
0.0031697
6.2141e-08
4.0325e-05
0.0030781
6.0017e-05
0.0029579
7.8424e-05
0.0028005
9.6536e-05
0.0025667
0.00011201
0.0023877
0.00012394
0.0020137
0.0001371
0.0017209
0.00014808
0.0013884
0.00015586
0.0010349
0.00016045
0.00063763
0.00024672
0.0001629
2.0121e-05
0.0031496
6.3009e-08
4.0328e-05
0.0030579
6.0024e-05
0.0029382
7.8424e-05
0.0027821
9.6539e-05
0.0025485
0.00011208
0.0023722
0.00012397
0.0020019
0.00013699
0.0017079
0.00014799
0.0013774
0.00015585
0.0010271
0.00016051
0.00063297
0.00024425
0.00016298
2.0122e-05
0.0031294
6.3884e-08
4.033e-05
0.0030377
6.0032e-05
0.0029185
7.8424e-05
0.0027637
9.6541e-05
0.0025304
0.00011216
0.0023565
0.000124
0.00199
0.00013689
0.001695
0.00014789
0.0013664
0.00015583
0.0010191
0.00016056
0.00062824
0.00024176
0.00016305
2.0123e-05
0.0031092
6.4768e-08
4.0333e-05
0.0030175
6.004e-05
0.0028988
7.8424e-05
0.0027454
9.6542e-05
0.0025123
0.00011223
0.0023409
0.00012405
0.0019782
0.0001368
0.0016822
0.00014778
0.0013554
0.0001558
0.0010111
0.0001606
0.00062345
0.00023926
0.00016309
2.0124e-05
0.003089
6.5661e-08
4.0336e-05
0.0029973
6.0049e-05
0.0028791
7.8425e-05
0.002727
9.6541e-05
0.0024942
0.00011231
0.0023251
0.0001241
0.0019664
0.00013671
0.0016696
0.00014768
0.0013445
0.00015576
0.001003
0.00016061
0.00061859
0.00023675
0.00016313
2.0125e-05
0.0030688
6.6561e-08
4.0338e-05
0.002977
6.0057e-05
0.0028594
7.8425e-05
0.0027086
9.6539e-05
0.0024761
0.00011238
0.0023092
0.00012415
0.0019546
0.00013663
0.0016571
0.00014757
0.0013335
0.0001557
0.00099489
0.00016062
0.00061367
0.00023423
0.00016315
2.0126e-05
0.0030486
6.7471e-08
4.0341e-05
0.0029568
6.0066e-05
0.0028397
7.8427e-05
0.0026903
9.6535e-05
0.002458
0.00011246
0.0022933
0.00012421
0.0019429
0.00013656
0.0016448
0.00014746
0.0013226
0.00015563
0.00098671
0.00016061
0.00060869
0.00023169
0.00016315
2.0127e-05
0.0030284
6.8389e-08
4.0344e-05
0.0029366
6.0074e-05
0.0028199
7.8428e-05
0.0026719
9.653e-05
0.0024399
0.00011253
0.0022773
0.00012428
0.0019311
0.00013649
0.0016326
0.00014734
0.0013118
0.00015556
0.00097849
0.00016059
0.00060366
0.00022913
0.00016314
2.0128e-05
0.0030082
6.9316e-08
4.0347e-05
0.0029164
6.0083e-05
0.0028002
7.843e-05
0.0026536
9.6524e-05
0.0024218
0.0001126
0.0022612
0.00012435
0.0019194
0.00013644
0.0016205
0.00014723
0.001301
0.00015547
0.00097025
0.00016055
0.00059858
0.00022657
0.00016312
2.0129e-05
0.002988
7.0252e-08
4.0349e-05
0.0028962
6.0092e-05
0.0027805
7.8432e-05
0.0026352
9.6516e-05
0.0024037
0.00011267
0.0022451
0.00012443
0.0019076
0.00013639
0.0016085
0.00014712
0.0012903
0.00015538
0.00096199
0.0001605
0.00059347
0.00022399
0.00016308
2.0131e-05
0.0029678
7.1198e-08
4.0352e-05
0.0028759
6.0101e-05
0.0027607
7.8434e-05
0.0026169
9.6507e-05
0.0023856
0.00011274
0.0022289
0.00012452
0.0018959
0.00013635