/*--------------------------------*- C++ -*----------------------------------*\
  =========                 |
  \\      /  F ield         | OpenFOAM: The Open Source CFD Toolbox
   \\    /   O peration     | Website:  https://openfoam.org
    \\  /    A nd           | Version:  6.0
     \\/     M anipulation  |
\*---------------------------------------------------------------------------*/
FoamFile
{
    version     2.0;
    format      ascii;
    class       surfaceScalarField;
    location    "14";
    object      phi;
}
// * * * * * * * * * * * * * * * * * * * * * * * * * * * * * * * * * * * * * //

dimensions      [0 3 -1 0 0 0 0];

internalField   nonuniform List<scalar> 
93586
(
2.33685e-05
0.00154665
6.68829e-08
4.71272e-05
0.00154195
7.10413e-05
0.00153306
9.49224e-05
0.00152006
0.000118628
0.00150298
0.000142041
0.00148187
0.000165086
0.00145678
0.00018769
0.00142775
0.000209807
0.00139482
0.000231377
0.00135806
0.000252345
0.00131755
0.000272646
0.00127339
0.000292216
0.00122572
0.000310992
0.0011747
0.000328914
0.00112047
0.000345928
0.00106316
0.000361986
0.00100294
0.000377043
0.000939928
0.000391059
0.000874295
0.000403994
0.000806204
0.000415814
0.000735835
0.000426485
0.00066338
0.000435977
0.000589038
0.000444262
0.000513012
0.000451316
0.000435496
0.000457122
0.000356685
0.00046163
0.000276743
0.000465084
0.000195641
0.000466903
0.000113419
3.17911e-05
0.000461526
2.30675e-05
0.00152354
4.02003e-08
4.64821e-05
0.00151854
7.00284e-05
0.00150952
9.35191e-05
0.00149658
0.00011682
0.00147969
0.000139828
0.00145887
0.000162481
0.00143414
0.000184714
0.00140553
0.000206484
0.00137307
0.000227727
0.00133683
0.000248383
0.00129691
0.000268383
0.0012534
0.00028766
0.00120647
0.000306148
0.00115623
0.000323793
0.00110284
0.000340541
0.00104644
0.000356348
0.000987152
0.000371172
0.000925129
0.000384973
0.00086052
0.000397714
0.000793491
0.00040936
0.000724219
0.000419878
0.000652894
0.000429238
0.000579713
0.00043741
0.000504876
0.000444371
0.000428575
0.000450107
0.000350992
0.000454558
0.00027234
0.000457743
0.000192508
0.000459479
0.000111742
3.20633e-05
0.000459288
2.27377e-05
0.00150081
3.55436e-09
4.57713e-05
0.00149551
6.89243e-05
0.00148637
9.20175e-05
0.00147349
0.000114927
0.00145678
0.00013756
0.00143624
0.000159859
0.00141184
0.000181759
0.00138363
0.000203213
0.00135162
0.00022415
0.0013159
0.000244506
0.00127655
0.000264209
0.00123371
0.000283193
0.00118748
0.000301396
0.00113803
0.000318765
0.00108547
0.000335253
0.00102995
0.000350816
0.000971589
0.000365414
0.00091053
0.000379009
0.000846924
0.000391563
0.000780934
0.000403042
0.000712737
0.00041341
0.00064252
0.000422638
0.000570478
0.000430697
0.000496808
0.000437561
0.000421701
0.00044321
0.000345331
0.000447605
0.000267931
0.000450662
0.000189433
0.00045244
0.000109944
3.20087e-05
0.000452449
2.23821e-05
0.00147845
-2.31091e-08
4.50261e-05
0.00147286
6.77885e-05
0.00146362
9.04987e-05
0.00145078
0.000113041
0.00143425
0.000135326
0.00141396
0.000157295
0.00138988
0.00017888
0.00136205
0.000200027
0.00133048
0.000220661
0.00129527
0.000240715
0.00125651
0.000260117
0.00121431
0.000278806
0.00116881
0.000296723
0.00112013
0.00031382
0.00106839
0.00033005
0.00101374
0.000345374
0.000956283
0.00035975
0.000896172
0.000373143
0.000833552
0.000385512
0.000768587
0.000396823
0.00070145
0.000407041
0.000632327
0.000416136
0.000561411
0.000424078
0.000488896
0.00043084
0.000414972
0.000436395
0.00033981
0.000440715
0.000263652
0.000443713
0.000186479
0.000445414
0.000108291
3.18942e-05
0.000445599
2.20175e-05
0.00145647
-3.73731e-08
4.42807e-05
0.0014506
6.66666e-05
0.00144123
8.90118e-05
0.00142844
0.000111205
0.00141206
0.000133157
0.00139201
0.000154807
0.00136823
0.000176081
0.00134078
0.00019692
0.00130965
0.000217246
0.00127495
0.000236994
0.00123677
0.000256093
0.00119522
0.000274487
0.00115042
0.00029212
0.00110249
0.000308947
0.00105156
0.000324924
0.000997755
0.000340013
0.000941191
0.000354173
0.000882007
0.000367366
0.000820353
0.000379553
0.000756392
0.0003907
0.000690295
0.00040077
0.000622247
0.000409733
0.000552437
0.000417558
0.000481057
0.000424219
0.000408295
0.000429687
0.000334324
0.000433936
0.000259382
0.000436883
0.000183507
0.000438566
0.00010658
3.13075e-05
0.000439101
2.16555e-05
0.00143486
-4.0044e-08
4.35526e-05
0.00142871
6.5578e-05
0.00141921
8.75734e-05
0.00140645
0.00010943
0.00139021
0.000131057
0.00137039
0.00015239
0.00134691
0.000173351
0.00131982
0.000193878
0.00128913
0.000213894
0.00125494
0.000233334
0.00121734
0.000252131
0.00117643
0.000270232
0.00113233
0.000287586
0.00108515
0.000304151
0.00103501
0.000319882
0.000982037
0.000334742
0.000926346
0.00034869
0.000868075
0.000361689
0.000807372
0.000373699
0.000744401
0.000384684
0.000679331
0.000394608
0.000612344
0.000403442
0.000543628
0.000411153
0.000473372
0.000417717
0.000401761
0.000423103
0.00032897
0.00042729
0.000255231
0.000430199
0.000180637
0.000431854
0.00010497
3.0693e-05
0.000432534
2.13013e-05
0.0014136
-4.04038e-08
4.2847e-05
0.00140717
6.45257e-05
0.00139754
8.61827e-05
0.00138479
0.00010771
0.00136868
0.000129015
0.00134908
0.000150031
0.0013259
0.000170677
0.00129918
0.000190891
0.00126892
0.000210595
0.00123524
0.000229729
0.00119821
0.000248228
0.00115793
0.000266043
0.00111451
0.000283126
0.00106806
0.000299434
0.0010187
0.000314927
0.00096654
0.000329565
0.000911702
0.000343307
0.000854325
0.000356116
0.000794556
0.000367952
0.000732555
0.000378778
0.000668494
0.00038856
0.000602549
0.000397266
0.000534909
0.000404865
0.000465756
0.000411332
0.000395275
0.000416637
0.000323643
0.000420762
0.000251083
0.00042364
0.000177731
0.000425258
0.00010332
3.00035e-05
0.000425892
2.09564e-05
0.00139268
-3.23644e-08
4.21635e-05
0.00138596
6.35067e-05
0.0013762
8.48336e-05
0.00136347
0.000106037
0.00134749
0.000127022
0.0013281
0.00014772
0.00130521
0.00016805
0.00127885
0.000187951
0.00124902
0.000207345
0.00121585
0.000226176
0.00117938
0.000244383
0.00113973
0.000261919
0.00109698
0.000278738
0.00105126
0.000294798
0.00100265
0.000310059
0.000951292
0.000324481
0.000897294
0.000338022
0.000840798
0.000350645
0.000781949
0.000362309
0.000720908
0.00037298
0.000657843
0.000382619
0.00059293
0.000391198
0.000526353
0.000398685
0.000458293
0.000405055
0.000388933
0.000410278
0.000318449
0.000414338
0.000247057
0.000417184
0.000174921
0.000418774
0.000101772
2.95259e-05
0.000419314
2.06209e-05
0.00137208
-1.88238e-08
4.15001e-05
0.00136508
6.25163e-05
0.00135518
8.35191e-05
0.00134247
0.000104401
0.00132661
0.000125067
0.00130744
0.000145448
0.00128483
0.000165463
0.00125884
0.000185051
0.00122944
0.000204139
0.00119676
0.000222672
0.00116085
0.000240594
0.00112181
0.000257859
0.00107972
0.000274421
0.00103469
0.000290241
0.00098683
0.000305275
0.000936251
0.000319486
0.000883077
0.000332831
0.000827445
0.000345271
0.0007695
0.000356766
0.000709402
0.000367281
0.000647317
0.000376779
0.000583417
0.000385231
0.000517886
0.000392605
0.0004509
0.000398878
0.00038264
0.000404019
0.000313283
0.000408014
0.000243037
0.000410824
0.00017208
0.000412397
0.000100165
2.90047e-05
0.00041286
2.02945e-05
0.00135179
-3.10076e-09
4.08539e-05
0.00134453
6.15495e-05
0.00133449
8.22325e-05
0.00132179
0.000102796
0.00130605
0.000123144
0.00128709
0.000143209
0.00126477
0.00016291
0.00123914
0.000182189
0.00121017
0.000200975
0.00117798
0.000219218
0.00114262
0.000236861
0.00110417
0.000253863
0.00106273
0.000270175
0.00101839
0.000285761
0.000971256
0.000300575
0.000921448
0.000314579
0.000869086
0.00032773
0.000814307
0.00033999
0.000757256
0.000351318
0.00069809
0.000361678
0.000636975
0.000371036
0.000574079
0.000379361
0.000509583
0.000386623
0.000443661
0.000392798
0.000376492
0.000397858
0.000308251
0.000401787
0.000239141
0.000404556
0.000169345
0.000406118
9.8644e-05
2.86402e-05
0.000406542
1.99762e-05
0.00133181
1.0784e-08
4.02221e-05
0.00132428
6.06019e-05
0.00131411
8.09684e-05
0.00130142
0.000101215
0.0012858
0.000121248
0.00126706
0.000140999
0.00124502
0.00016039
0.00121975
0.000179365
0.00119119
0.000197856
0.00115949
0.000215816
0.00112466
0.000233188
0.00108679
0.000249933
0.00104598
0.000266003
0.00100231
0.000281359
0.000955896
0.000295957
0.000906844
0.000309759
0.000855279
0.000322719
0.000801338
0.0003348
0.000745165
0.000345961
0.000686917
0.000356169
0.000626755
0.000365386
0.000564846
0.000373585
0.000501368
0.000380734
0.000436492
0.000386812
0.000370393
0.000391791
0.000303247
0.000395654
0.00023525
0.00039838
0.000166588
0.00039993
9.70583e-05
2.81729e-05
0.000400338
1.96652e-05
0.00131213
2.01496e-08
3.9602e-05
0.00130435
5.96699e-05
0.00129405
7.97233e-05
0.00128137
9.96569e-05
0.00126588
0.000119377
0.00124734
0.000138819
0.00122558
0.000157904
0.00120067
0.000176582
0.00117252
0.000194785
0.00114129
0.000212468
0.00110699
0.000229577
0.00106969
0.000246071
0.0010295
0.000261904
0.000986489
0.000277037
0.000940774
0.000291423
0.000892468
0.000305024
0.000841691
0.000317795
0.000788579
0.000329699
0.000733276
0.000340695
0.000675936
0.00035075
0.000616718
0.000359827
0.000555786
0.0003679
0.000493316
0.000374937
0.000429476
0.000380918
0.000364438
0.000385815
0.000298377
0.000389614
0.000231483
0.000392293
0.000163941
0.000393829
9.55615e-05
2.78246e-05
0.000394236
1.93605e-05
0.00129274
2.52305e-08
3.89922e-05
0.00128472
5.87516e-05
0.00127429
7.84953e-05
0.00126162
9.81193e-05
0.00124625
0.000117532
0.00122793
0.000136668
0.00120645
0.000155455
0.00118188
0.000173842
0.00115414
0.000191764
0.00112336
0.000209178
0.00108957
0.00022603
0.00105284
0.00024228
0.00101324
0.000257881
0.000970883
0.000272793
0.000925858
0.00028697
0.000878284
0.000300373
0.000828281
0.000312956
0.000775986
0.000324685
0.000721538
0.000335516
0.000665092
0.000345419
0.000606802
0.000354356
0.000546832
0.000362304
0.000485352
0.000369229
0.00042253
0.000375113
0.000358532
0.000379928
0.000293534
0.000383662
0.000227722
0.000386295
0.000161275
0.000387813
9.40066e-05
2.73584e-05
0.000388218
1.90614e-05
0.00127366
2.55504e-08
3.83914e-05
0.00126539
5.7846e-05
0.00125484
7.72838e-05
0.00124219
9.66025e-05
0.00122694
0.000115712
0.00120882
0.00013455
0.00118762
0.000153045
0.00116339
0.000171147
0.00113604
0.000188796
0.00110572
0.000205947
0.00107243
0.000222549
0.00103624
0.00023856
0.000997242
0.000253932
0.000955519
0.000268627
0.000911175
0.000282597
0.000864324
0.000295803
0.000815087
0.000308201
0.0007636
0.000319754
0.00071
0.000330421
0.000654438
0.000340172
0.000597069
0.000348971
0.00053805
0.000356792
0.000477552
0.000363606
0.000415736
0.000369393
0.00035277
0.000374127
0.000288825
0.000377797
0.000224083
0.000380383
0.00015872
0.000381879
9.25481e-05
2.70095e-05
0.000382285
1.87675e-05
0.00125487
2.22135e-08
3.77992e-05
0.00124636
5.69529e-05
0.00123569
7.60891e-05
0.00122305
9.51076e-05
0.00120792
0.00011392
0.00119001
0.000132466
0.00116907
0.000150675
0.00114518
0.000168501
0.00111822
0.000185883
0.00108834
0.000202778
0.00105554
0.000219134
0.00101988
0.00023491
0.000981464
0.000250057
0.000940366
0.000264537
0.00089669
0.000278302
0.000850552
0.000291313
0.00080207
0.000303525
0.000751377
0.000314904
0.000698611
0.000325407
0.000643921
0.000335007
0.000587456
0.000343667
0.000529373
0.000351363
0.000469838
0.000358065
0.000409012
0.000363756
0.000347057
0.00036841
0.000284143
0.000372015
0.000220449
0.000374555
0.000156146
0.000376027
9.10381e-05
2.65484e-05
0.000376426
1.84782e-05
0.00123638
1.63386e-08
3.72156e-05
0.00122762
5.60727e-05
0.00121684
7.49121e-05
0.00120422
9.36359e-05
0.0011892
0.000112157
0.00117149
0.000130417
0.00115082
0.000148348
0.00112725
0.000165904
0.00110067
0.000183025
0.00107122
0.000199669
0.0010389
0.000215783
0.00100378
0.000231328
0.000965928
0.000246253
0.000925448
0.000260521
0.000882434
0.000274081
0.000837
0.000286898
0.000789265
0.000298925
0.00073936
0.00031013
0.000687421
0.000320471
0.000633593
0.00032992
0.000578024
0.000338441
0.000520868
0.000346013
0.000462287
0.000352605
0.000402439
0.0003582
0.000341486
0.000362774
0.000279593
0.000366316
0.000216937
0.00036881
0.000153683
0.000370255
8.96292e-05
2.62109e-05
0.000370648
1.81933e-05
0.00121818
9.98014e-09
3.66407e-05
0.00120918
5.52059e-05
0.00119827
7.37538e-05
0.00118567
9.21885e-05
0.00117077
0.000110425
0.00115325
0.000128406
0.00113284
0.000146064
0.00110959
0.000163356
0.00108338
0.000180221
0.00105435
0.000196619
0.0010225
0.000212496
0.000987896
0.000227812
0.00095061
0.000242517
0.000910737
0.000256573
0.000868374
0.000269931
0.000823635
0.000282554
0.000776635
0.000294398
0.000727506
0.000305429
0.000676379
0.000315608
0.0006234
0.000324907
0.000568712
0.000333291
0.000512465
0.000340739
0.000454821
0.000347222
0.000395934
0.000352722
0.000335962
0.000357218
0.000275069
0.000360697
0.000213427
0.000363146
0.000151198
0.000364564
8.81721e-05
2.57675e-05
0.000364944
1.79127e-05
0.00120026
4.6485e-09
3.60746e-05
0.00119102
5.4353e-05
0.00118
7.26149e-05
0.00116741
9.07664e-05
0.00115262
0.000108724
0.0011353
0.000126431
0.00111514
0.000143823
0.0010922
0.000160856
0.00106635
0.000177471
0.00103774
0.000193626
0.00100636
0.000209269
0.00097226
0.000224359
0.00093553
0.000238846
0.000896257
0.000252692
0.000854539
0.000265848
0.000810487
0.000278278
0.000764217
0.000289939
0.000715855
0.000300798
0.000665534
0.000310816
0.000613395
0.000319966
0.000559579
0.000328214
0.000504232
0.00033554
0.000447515
0.000341914
0.000389579
0.000347321
0.000330578
0.000351739
0.000270674
0.000355158
0.000210038
0.000357561
0.000148824
0.000358951
8.68175e-05
2.54511e-05
0.000359321
1.76363e-05
0.00118263
1.38586e-09
3.55177e-05
0.00117314
5.35147e-05
0.001162
7.14961e-05
0.00114942
8.937e-05
0.00113475
0.000107054
0.00111761
0.000124494
0.0010977
0.000141625
0.00107507
0.000158404
0.00104957
0.000174772
0.00102137
0.000190688
0.00099044
0.000206099
0.000956845
0.000220965
0.000920662
0.000235235
0.000881981
0.000248872
0.000840898
0.000261827
0.000797523
0.000274067
0.00075197
0.000285546
0.000704365
0.000296234
0.000654836
0.000306092
0.000603522
0.000315095
0.000550562
0.000323208
0.0004961
0.000330413
0.000440293
0.00033668
0.000383288
0.000341996
0.000325239
0.000346337
0.000266304
0.000349696
0.000206649
0.000352056
0.000146427
0.000353419
8.54152e-05
2.5031e-05
0.000353775
1.7364e-05
0.00116527
6.48237e-10
3.49702e-05
0.00115553
5.2691e-05
0.00114428
7.03974e-05
0.00113172
8.79994e-05
0.00111715
0.000105416
0.0011002
0.000122593
0.00108053
0.000139468
0.0010582
0.000155997
0.00103305
0.000172122
0.00100525
0.000187801
0.000974769
0.000202982
0.00094167
0.000217626
0.000906028
0.000231681
0.000867932
0.000245111
0.000827479
0.000257867
0.000784774
0.000269917
0.000739933
0.000281215
0.000693076
0.000291734
0.000644332
0.000301434
0.000593835
0.00031029
0.000541722
0.000318271
0.000488134
0.000325356
0.000433226
0.000331519
0.000377144
0.000336744
0.000320036
0.000341011
0.000262059
0.000344311
0.000203377
0.000346629
0.000144138
0.000347964
8.41142e-05
2.47372e-05
0.00034831
1.70959e-05
0.00114817
2.55307e-09
3.44321e-05
0.0011382
5.18822e-05
0.00112683
6.93189e-05
0.00111428
8.66541e-05
0.00109982
0.000103808
0.00108304
0.000120728
0.00106361
0.00013735
0.00104157
0.000153632
0.00101677
0.000169517
0.000989363
0.000184963
0.000959323
0.000199917
0.000926712
0.00021434
0.000891603
0.000228181
0.000854085
0.000241405
0.000814251
0.000253964
0.000772207
0.000265825
0.000728065
0.000276945
0.000681945
0.000287296
0.000633971
0.000296839
0.000584276
0.000305552
0.000532995
0.000313401
0.000480266
0.000320369
0.00042624
0.000326429
0.000371061
0.000331566
0.000314875
0.00033576
0.000257835
0.000339003
0.000200103
0.000341279
0.000141824
0.000342589
8.2764e-05
2.43389e-05
0.000342922
1.68321e-05
0.00113133
6.72704e-09
3.39034e-05
0.00112113
5.10878e-05
0.00110965
6.826e-05
0.00109711
8.53334e-05
0.00108275
0.000102229
0.00106615
0.000118895
0.00104695
0.000135269
0.0010252
0.000151308
0.00100074
0.000166955
0.00097372
0.00018217
0.000944117
0.000196898
0.000911989
0.000211103
0.000877408
0.000224732
0.000840461
0.000237752
0.000801241
0.000250115
0.000759852
0.00026179
0.000716402
0.000272733
0.000671011
0.000282918
0.000623799
0.000292307
0.000574899
0.000300878
0.00052444
0.000308598
0.000472559
0.000315451
0.000419406
0.000321409
0.00036512
0.000326461
0.000309846
0.000330583
0.000253734
0.000333771
0.000196943
0.000336007
0.000139615
0.000337291
8.15129e-05
2.40642e-05
0.000337617
1.65724e-05
0.00111475
1.26285e-08
3.33839e-05
0.00110431
5.03077e-05
0.00109273
6.72202e-05
0.0010802
8.40363e-05
0.00106594
0.000100678
0.0010495
0.000117095
0.00103053
0.000133223
0.00100907
0.000149022
0.000984939
0.000164435
0.000958305
0.00017942
0.000929132
0.000193925
0.00089748
0.000207912
0.000863419
0.000221332
0.000827036
0.00023415
0.000788419
0.000246319
0.000747674
0.000257809
0.000704905
0.000268578
0.00066023
0.000278599
0.000613768
0.000287836
0.000565647
0.000296268
0.000515995
0.000303861
0.000464946
0.000310601
0.000412648
0.00031646
0.000359237
0.000321427
0.000304855
0.00032548
0.000249651
0.000328613
0.000193778
0.000330811
0.000137379
0.000332072
8.02105e-05
2.36831e-05
0.000332388
1.6317e-05
0.00109841
1.94098e-08
3.28734e-05
0.00108776
4.95413e-05
0.00107607
6.61986e-05
0.00106354
8.27616e-05
0.00104938
9.91531e-05
0.00103311
0.000115324
0.00101436
0.00013121
0.000993187
0.000146772
0.000969383
0.000161952
0.000943128
0.00017671
0.000914382
0.000190994
0.000883201
0.000204766
0.000849655
0.000217978
0.000813829
0.000230596
0.000775812
0.000242574
0.000735703
0.000253882
0.000693609
0.000264478
0.000649642
0.000274339
0.000603921
0.000283426
0.00055657
0.00029172
0.000507717
0.000299189
0.00045749
0.000305818
0.000406037
0.00031158
0.000353491
0.000316465
0.000299993
0.00032045
0.000245686
0.000323531
0.000190724
0.000325691
0.000135245
0.00032693
7.90044e-05
2.34222e-05
0.000327241
1.60658e-05
0.00108232
2.64848e-08
3.23718e-05
0.00107145
4.87881e-05
0.00105965
6.51943e-05
0.00104713
8.15082e-05
0.00103306
9.76533e-05
0.00101696
0.000113581
0.000998438
0.000129228
0.000977537
0.000144555
0.000954057
0.000159505
0.000928176
0.000174039
0.000899849
0.000188104
0.000869133
0.000201663
0.000836094
0.000214669
0.000800817
0.00022709
0.000763388
0.000238878
0.000723906
0.000250006
0.000682474
0.000260433
0.000639204
0.000270135
0.000594209
0.000279075
0.000547615
0.000287235
0.000499543
0.000294582
0.000450123
0.000301103
0.000399498
0.00030677
0.0003478
0.000311574
0.000295164
0.000315493
0.000241736
0.000318523
0.000187663
0.000320647
0.000133082
0.000321865
7.77448e-05
2.3053e-05
0.000322169
1.58187e-05
0.00106647
3.32087e-08
3.18784e-05
0.0010554
4.80473e-05
0.00104348
6.42064e-05
0.00103097
8.02748e-05
0.001017
9.61769e-05
0.00100106
0.000111865
0.000982755
0.000127275
0.000962128
0.000142371
0.000938968
0.000157093
0.000913457
0.000171404
0.000885546
0.000185252
0.000855289
0.000198602
0.000822753
0.000211404
0.00078802
0.00022363
0.000751173
0.000235231
0.000712311
0.000246182
0.000671534
0.000256442
0.000628952
0.000265988
0.000584676
0.000274784
0.000538829
0.000282811
0.000491531
0.000290039
0.000442908
0.000296454
0.000393102
0.000302028
0.000342241
0.000306754
0.00029046
0.000310609
0.000237901
0.000313589
0.000184708
0.000315679
0.000131018
0.000316876
7.65791e-05
2.28013e-05
0.000317177
1.55756e-05
0.00105086
3.93028e-08
3.13932e-05
0.00103958
4.73184e-05
0.00102756
6.3234e-05
0.00101506
7.90604e-05
0.00100118
9.47226e-05
0.000985399
0.000110173
0.000967306
0.000125351
0.000946948
0.000140216
0.000924104
0.000154713
0.000898957
0.000168805
0.000871456
0.000182438
0.000841652
0.00019558
0.000809611
0.000208182
0.000775411
0.000220215
0.000739138
0.000231633
0.000700885
0.00024241
0.000660751
0.000252505
0.000618844
0.000261898
0.000575274
0.000270552
0.000530159
0.00027845
0.000483619
0.00028556
0.000435777
0.000291871
0.000386773
0.000297355
0.000336732
0.000302004
0.000285787
0.000305796
0.000234077
0.000308729
0.000181744
0.000310785
0.000128923
0.000311964
7.53579e-05
2.244e-05
0.000312259
1.53365e-05
0.00103548
4.4434e-08
3.09156e-05
0.001024
4.66008e-05
0.00101188
6.22763e-05
0.000999383
7.78639e-05
0.000985591
9.32893e-05
0.000969974
0.000108506
0.000952094
0.000123452
0.000932003
0.000138091
0.000909471
0.000152366
0.000884686
0.00016624
0.00085759
0.000179662
0.000828234
0.000192599
0.000796682
0.000205003
0.000763012
0.000216846
0.000727305
0.000228082
0.000689655
0.000238688
0.000650157
0.000248621
0.000608918
0.000257864
0.000566045
0.000266379
0.000521655
0.00027415
0.000475864
0.000281146
0.000428794
0.000287355
0.000380582
0.00029275
0.000331352
0.000297325
0.000281234
0.000301056
0.000230365
0.000303942
0.000178885
0.000305965
0.000126925
0.000307126
7.42285e-05
2.21939e-05
0.00030742
1.51011e-05
0.00102033
4.86298e-08
3.04453e-05
0.00100866
4.58938e-05
0.000996432
6.13326e-05
0.000983944
7.66845e-05
0.000970242
9.1876e-05
0.000954781
0.000106861
0.000937111
0.00012158
0.000917283
0.000135994
0.000895059
0.000150049
0.000870629
0.000163708
0.000843932
0.000176921
0.000815017
0.000189656
0.000783947
0.000201865
0.000750797
0.000213521
0.000715646
0.000224579
0.000678588
0.000235016
0.000639714
0.000244791
0.00059913
0.000253887
0.00055694
0.000262265
0.00051326
0.000269912
0.000468204
0.000276795
0.00042189
0.000282905
0.000374454
0.000288214
0.000326018
0.000292715
0.000276709
0.000296387
0.000226661
0.000299227
0.000176013
0.000301219
0.000124892
0.000302363
7.30421e-05
2.18374e-05
0.000302652
1.48694e-05
0.00100541
5.1863e-08
2.99819e-05
0.000993546
4.5197e-05
0.000981219
6.04022e-05
0.000968738
7.55213e-05
0.000955126
9.04818e-05
0.00093982
0.000105239
0.000922358
0.000119732
0.000902791
0.000133925
0.000880872
0.000147762
0.000856794
0.000161209
0.000830493
0.000174216
0.000802015
0.000186752
0.000771421
0.000198768
0.000738785
0.000210241
0.000704185
0.000221124
0.000667711
0.000231395
0.000629454
0.000241015
0.000589517
0.000249965
0.000548003
0.00025821
0.000505025
0.000265735
0.000460694
0.000272508
0.000415128
0.000278521
0.000368459
0.000283745
0.000320809
0.000288175
0.0002723
0.000291788
0.000223066
0.000294584
0.000173242
0.000296545
0.000122956
0.000297673
7.19458e-05
2.15946e-05
0.000297962
1.46412e-05
0.000990719
5.43514e-08
2.95253e-05
0.000978664
4.45101e-05
0.000966237
5.94846e-05
0.000953764
7.43739e-05
0.000940239
8.91063e-05
0.000925086
0.000103638
0.000907829
0.000117908
0.000888518
0.000131882
0.0008669
0.000145505
0.000843169
0.000158744
0.000817256
0.000171547
0.000789208
0.000183886
0.000759082
0.000195714
0.000726951
0.000207005
0.000692891
0.000217716
0.000656991
0.000227825
0.00061934
0.000237291
0.000580038
0.0002461
0.000539186
0.000254213
0.000496895
0.000261619
0.000453275
0.000268284
0.000408441
0.000274202
0.000362524
0.000279343
0.000315641
0.000283703
0.000267916
0.00028726
0.000219477
0.000290013
0.000170458
0.000291944
0.000120983
0.000293056
7.07914e-05
2.12412e-05
0.000293342
1.44163e-05
0.000976248
5.61635e-08
2.90751e-05
0.000964006
4.38325e-05
0.000951481
5.85793e-05
0.000939017
7.32418e-05
0.00092558
8.77488e-05
0.000910578
0.000102057
0.000893525
0.000116108
0.000874468
0.000129866
0.000853148
0.000143278
0.00082976
0.00015631
0.000804232
0.000168913
0.000776608
0.000181059
0.000746945
0.000192701
0.000715314
0.000203814
0.000681788
0.000214355
0.000646455
0.000224304
0.000609402
0.000233621
0.000570728
0.00024229
0.000530531
0.000250275
0.00048892
0.000257563
0.000446003
0.000264123
0.000401892
0.000269947
0.000356718
0.000275007
0.000310596
0.000279299
0.000263645
0.000282801
0.000215993
0.000285511
0.000167773
0.000287414
0.000119105
0.00028851
6.97257e-05
2.10003e-05
0.000288797
1.41946e-05
0.000961998
5.75316e-08
2.86312e-05
0.000949572
4.31642e-05
0.000936951
5.76862e-05
0.000924495
7.21246e-05
0.000911144
8.64092e-05
0.000896293
0.000100498
0.000879439
0.000114331
0.000860633
0.000127877
0.000839605
0.00014108
0.000816555
0.000153909
0.000791405
0.000166315
0.000764198
0.00017827
0.00073499
0.000189729
0.000703849
0.000200668
0.000670848
0.000211042
0.000636071
0.000220835
0.000599605
0.000230004
0.000561545
0.000238536
0.000521989
0.000246395
0.000481044
0.000253568
0.000438816
0.000260025
0.000395414
0.000265757
0.000350967
0.000270738
0.000305589
0.000274963
0.000259396
0.00027841
0.000212513
0.00028108
0.000165071
0.000282954
0.000117189
0.000284036
6.86011e-05
2.06492e-05
0.00028432
1.39761e-05
0.000947965
5.85308e-08
2.81933e-05
0.000935355
4.25048e-05
0.000922641
5.68048e-05
0.000910194
7.1022e-05
0.00089693
8.50871e-05
0.000882227
9.89585e-05
0.000865572
0.000112578
0.000847014
0.000125913
0.000826276
0.000138911
0.000803559
0.00015154
0.000778784
0.000163752
0.00075199
0.00017552
0.000723231
0.000186799
0.000692575
0.000197565
0.000660092
0.000207777
0.000625865
0.000217415
0.000589979
0.00022644
0.000552527
0.000234838
0.000513605
0.000242572
0.000473319
0.000249633
0.000431771
0.000255988
0.00038907
0.000261632
0.000345343
0.000266534
0.0003007
0.000270694
0.000255257
0.000274088
0.000209137
0.000276718
0.000162467
0.000278564
0.000115366
0.000279631
6.75642e-05
2.04097e-05
0.000279916
1.37607e-05
0.000934147
5.93438e-08
2.77613e-05
0.000921357
4.18541e-05
0.000908552
5.59351e-05
0.000896114
6.99341e-05
0.000882934
8.37825e-05
0.000868378
9.74397e-05
0.000851918
0.000110848
0.000833603
0.000123977
0.00081315
0.000136772
0.000790762
0.000149204
0.000766355
0.000161225
0.000739966
0.000172809
0.000711648
0.00018391
0.000681467
0.000194508
0.000649493
0.000204559
0.000615805
0.000214045
0.000580487
0.000222928
0.000543631
0.000231195
0.00050533
0.000238808
0.000465688
0.000245758
0.000424807
0.000252014
0.000382793
0.000257569
0.00033977
0.000262396
0.000295846
0.000266491
0.000251137
0.000269833
0.000205761
0.000272423
0.000159845
0.000274243
0.000113504
0.000275296
6.6468e-05
2.00604e-05
0.000275578
1.35483e-05
0.00092054
5.99877e-08
2.73352e-05
0.00090757
4.12122e-05
0.000894676
5.50769e-05
0.000882248
6.88605e-05
0.000869154
8.24951e-05
0.000854742
9.59411e-05
0.000838476
0.000109142
0.000820403
0.000122066
0.000800232
0.000134662
0.000778169
0.0001469
0.000754124
0.000158733
0.000728136
0.000170135
0.000700255
0.000181062
0.000670544
0.000191494
0.000639072
0.000201387
0.000605917
0.000210726
0.000571161
0.000219469
0.000534894
0.000227606
0.000497207
0.0002351
0.000458203
0.000241942
0.000417981
0.0002481
0.000376645
0.000253569
0.000334319
0.000258321
0.000291108
0.000262354
0.000247125
0.000265645
0.000202488
0.000268196
0.000157319
0.000269989
0.000111733
0.000271028
6.54585e-05
1.98222e-05
0.000271311
1.33388e-05
0.000907144
6.05713e-08
2.69148e-05
0.000893997
4.05789e-05
0.000881016
5.42302e-05
0.000868598
6.78013e-05
0.000855587
8.12251e-05
0.000841318
9.44628e-05
0.000825242
0.000107458
0.000807406
0.000120182
0.000787512
0.000132581
0.000765768
0.000144629
0.00074208
0.000156276
0.000716485
0.000167501
0.000689032
0.000178257
0.000659782
0.000188525
0.000628802
0.000198263
0.00059617
0.000207456
0.000561964
0.000216062
0.000526274
0.000224072
0.000489188
0.000231449
0.000450809
0.000238185
0.000411232
0.000244247
0.000370561
0.000249631
0.000328916
0.00025431
0.000286403
0.000258281
0.000243129
0.000261522
0.000199213
0.000264035
0.000154774
0.000265802
0.000109924
0.000266828
6.43895e-05
1.9475e-05
0.000267108
1.31322e-05
0.000893952
6.10745e-08
2.65002e-05
0.00088063
3.99541e-05
0.000867564
5.3395e-05
0.000855156
6.67564e-05
0.000842228
7.99724e-05
0.000828101
9.30048e-05
0.000812214
0.000105798
0.000794613
0.000118324
0.000774993
0.00013053
0.000753564
0.000142389
0.000730229
0.000153855
0.000705022
0.000164904
0.000677992
0.000175492
0.000649198
0.0001856
0.000618705
0.000195186
0.000586589
0.000204235
0.000552927
0.000212707
0.000517807
0.000220592
0.000481317
0.000227854
0.000443555
0.000234485
0.000404617
0.000240453
0.000364603
0.000245754
0.000323633
0.000250361
0.000281809
0.000254271
0.00023924
0.000257463
0.000196038
0.000259939
0.000152323
0.000261681
0.000108204
0.000262693
6.34067e-05
1.92384e-05
0.000262973
1.29286e-05
0.000880965
6.15564e-08
2.60912e-05
0.000867471
3.93379e-05
0.000854321
5.25712e-05
0.000841924
6.5726e-05
0.000829077
7.8737e-05
0.000815089
9.15672e-05
0.000799387
0.000104162
0.000782017
0.000116492
0.000762666
0.000128508
0.000741547
0.000140183
0.000718558
0.00015147
0.000693733
0.000162346
0.000667117
0.000172768
0.000638769
0.000182719
0.000608753
0.000192155
0.000577144
0.000201063
0.000544015
0.000209403
0.000509454
0.000217166
0.000473546
0.000224315
0.000436389
0.000230843
0.000398076
0.000236719
0.000358705
0.000241938
0.000318396
0.000246474
0.000277247
0.000250325
0.000235364
0.000253469
0.00019286
0.000255908
0.000149851
0.000257625
0.000106445
0.000258624
6.2364e-05
1.88935e-05
0.000258901
1.27279e-05
0.000868176
6.19752e-08
2.5688e-05
0.000854511
3.87302e-05
0.00084128
5.17587e-05
0.000828894
6.47098e-05
0.000816129
7.75189e-05
0.000802279
9.01498e-05
0.00078676
0.000102548
0.000769619
0.000114687
0.000750534
0.000126516
0.00072972
0.000138008
0.000707074
0.000149119
0.000682625
0.000159826
0.000656419
0.000170086
0.000628513
0.000179882
0.000598969
0.00018917
0.000567859
0.00019794
0.000535258
0.00020615
0.000501249
0.000213792
0.000465918
0.00022083
0.000429359
0.000227258
0.000391664
0.000233042
0.00035293
0.000238182
0.000313274
0.000242648
0.000272793
0.000246441
0.000231592
0.000249537
0.00018978
0.00025194
0.000147472
0.000253633
0.000104774
0.000254619
6.1407e-05
1.8659e-05
0.000254896
1.25301e-05
0.000855587
6.2359e-08
2.52904e-05
0.000841754
3.8131e-05
0.000828444
5.09577e-05
0.000816069
6.3708e-05
0.000803384
7.63181e-05
0.000789669
8.87527e-05
0.00077433
0.000100958
0.000757412
0.000112908
0.000738588
0.000124552
0.000718075
0.000135866
0.000695764
0.000146804
0.000671685
0.000157344
0.00064588
0.000167444
0.000618407
0.000177087
0.000589325
0.000186231
0.000558705
0.000194865
0.00052662
0.000202947
0.000493153
0.000210471
0.000458386
0.0002174
0.000422412
0.000223729
0.000385323
0.000229424
0.000347212
0.000234485
0.000308195
0.000238883
0.000268368
0.000242618
0.000227833
0.000245667
0.000186697