/*--------------------------------*- C++ -*----------------------------------*\
  =========                 |
  \\      /  F ield         | OpenFOAM: The Open Source CFD Toolbox
   \\    /   O peration     | Website:  https://openfoam.org
    \\  /    A nd           | Version:  6.0
     \\/     M anipulation  |
\*---------------------------------------------------------------------------*/
FoamFile
{
    version     2.0;
    format      ascii;
    class       volVectorField;
    location    "14";
    object      U;
}
// * * * * * * * * * * * * * * * * * * * * * * * * * * * * * * * * * * * * * //

dimensions      [0 1 -1 0 0 0 0];

internalField   nonuniform List<vector> 
47000
(
(0.999993 -5.04765e-06 3.44752e-20)
(0.999981 -0.000100339 6.26011e-20)
(0.999963 -0.000191297 -4.16353e-19)
(0.999946 -0.000262507 -6.70927e-19)
(0.999932 -0.000299659 4.37571e-19)
(0.999921 -0.00029744 -2.38568e-19)
(0.999911 -0.000263051 8.53383e-19)
(0.999895 -0.000213213 1.5648e-20)
(0.999872 -0.000168533 1.1926e-19)
(0.999842 -0.00014436 -1.03484e-18)
(0.999809 -0.000146931 7.10207e-19)
(0.999775 -0.000173042 2.64565e-19)
(0.999745 -0.000214627 4.25604e-19)
(0.999718 -0.000264245 5.52259e-19)
(0.999692 -0.000318511 -5.46862e-19)
(0.999664 -0.000379204 -3.00551e-19)
(0.999632 -0.000451529 -3.24596e-20)
(0.999597 -0.00054194 -4.14727e-19)
(0.99956 -0.000655577 -1.01946e-19)
(0.999526 -0.000795247 -1.09447e-19)
(0.999498 -0.000961036 -1.01755e-18)
(0.999481 -0.00115124 -4.26401e-19)
(0.999479 -0.00136399 -4.64651e-19)
(0.999492 -0.00159828 -6.25109e-20)
(0.999525 -0.00185931 3.30267e-19)
(0.99957 -0.00215221 -1.20928e-19)
(0.999683 -0.00252341 3.17606e-19)
(0.999493 -0.00296712 -2.00432e-19)
(1.00073 -0.00395174 3.91954e-20)
(0.993633 -0.00590872 -6.75845e-20)
(0.999948 -0.000119274 -7.35312e-20)
(0.999944 -0.000309401 -2.17053e-19)
(0.999948 -0.00044686 -1.12292e-20)
(0.999963 -0.000500227 8.73714e-19)
(0.999981 -0.000456728 -3.71532e-19)
(0.999994 -0.000338012 8.33253e-19)
(0.999992 -0.000188554 -5.66787e-19)
(0.999969 -5.72029e-05 1.29634e-19)
(0.999929 1.79759e-05 -7.75906e-19)
(0.999879 2.65778e-05 -3.4583e-20)
(0.999833 -1.93765e-05 -1.53456e-19)
(0.999797 -9.28722e-05 2.42592e-19)
(0.999772 -0.000168411 -5.64398e-19)
(0.999751 -0.000231955 1.98192e-20)
(0.999729 -0.00028414 2.37207e-19)
(0.999696 -0.000338496 -5.88903e-20)
(0.99965 -0.000413206 4.0596e-19)
(0.999593 -0.000525665 -1.94297e-19)
(0.999533 -0.000685993 -7.01132e-19)
(0.999477 -0.000897236 9.27254e-19)
(0.999437 -0.00115445 4.59907e-19)
(0.999421 -0.00144843 1.2708e-19)
(0.999435 -0.00176783 3.59824e-19)
(0.999483 -0.00210181 2.8309e-19)
(0.999569 -0.00244814 -1.65887e-19)
(0.999672 -0.00280213 -1.50711e-20)
(0.999884 -0.00317773 -1.3915e-19)
(0.999721 -0.00368916 -2.20411e-19)
(1.00025 -0.00448605 2.57564e-19)
(0.999251 -0.00460829 1.17142e-19)
(0.999892 -0.000211886 8.65702e-20)
(0.999904 -0.000388415 1.8399e-20)
(0.999939 -0.000479948 -2.36069e-20)
(0.999992 -0.00045745 -1.53168e-18)
(1.00005 -0.000322562 1.13486e-19)
(1.00009 -0.000121693 -7.38585e-19)
(1.00012 7.95896e-05 5.68641e-19)
(1.00012 0.000223468 -3.93275e-19)
(1.0001 0.000276956 7.40411e-19)
(1.00007 0.000247608 4.53437e-19)
(1.00006 0.000168329 -1.8621e-19)
(1.00007 8.45163e-05 -1.51221e-19)
(1.00009 3.10839e-05 8.47969e-19)
(1.00012 2.30708e-05 -2.59698e-19)
(1.00015 5.41009e-05 1.80216e-19)
(1.00016 0.000101363 1.13772e-19)
(1.00016 0.00013706 -4.0491e-19)
(1.00014 0.000135833 5.87915e-19)
(1.00011 8.26439e-05 3.627e-19)
(1.00008 -2.78712e-05 -1.27144e-19)
(1.00006 -0.000190684 5.90653e-19)
(1.00005 -0.000394963 5.32817e-19)
(1.00007 -0.000626695 4.2979e-19)
(1.00012 -0.000871726 6.58246e-20)
(1.0002 -0.00112398 -1.57073e-19)
(1.00028 -0.00138162 3.8285e-20)
(1.00043 -0.00162873 -2.75277e-19)
(1.00031 -0.00202359 2.89836e-19)
(1.00034 -0.0026468 -8.44626e-20)
(0.999653 -0.00170526 -1.64689e-19)
(0.999846 -0.000253798 -1.22639e-19)
(0.999866 -0.000369566 5.02073e-20)
(0.999916 -0.000393046 4.41854e-19)
(0.999987 -0.000304782 1.1637e-18)
(1.00006 -0.000119968 8.37826e-20)
(1.00012 0.000102366 8.38917e-20)
(1.00015 0.000291924 -6.48917e-19)
(1.00016 0.00039524 -1.57108e-20)
(1.00015 0.000390546 -3.8179e-19)
(1.00013 0.000300134 -1.46585e-19)
(1.00012 0.000169309 2.18688e-19)
(1.00013 5.21893e-05 -1.23538e-19)
(1.00016 -1.33563e-05 -3.46257e-19)
(1.00021 -1.29004e-05 2.26664e-19)
(1.00025 4.38873e-05 5.50906e-21)
(1.00029 0.000130193 5.4999e-19)
(1.00032 0.000213838 -1.56056e-19)
(1.00033 0.000265681 -2.60058e-19)
(1.00034 0.000267298 -3.48052e-19)
(1.00034 0.000210648 -8.92941e-19)
(1.00035 9.81781e-05 -1.51409e-19)
(1.00038 -6.15285e-05 -4.78157e-19)
(1.00041 -0.000256955 -4.35306e-19)
(1.00047 -0.000476927 -3.44813e-19)
(1.00054 -0.000717707 4.79118e-19)
(1.00061 -0.000986651 -2.95849e-19)
(1.00069 -0.001264 1.4103e-19)
(1.00057 -0.00169842 2.45134e-19)
(1.00048 -0.00239961 -2.74985e-19)
(0.999819 -0.00168035 9.3398e-20)
(0.999818 -0.000259629 2.23705e-20)
(0.999839 -0.000312232 -6.26566e-20)
(0.999894 -0.000281368 -3.57553e-20)
(0.99997 -0.000155711 -1.93191e-20)
(1.00005 4.16711e-05 -5.89879e-19)
(1.00011 0.000249268 1.0523e-19)
(1.00015 0.000401178 -2.39527e-19)
(1.00015 0.000452413 -2.98138e-19)
(1.00013 0.000390371 5.77496e-19)
(1.00009 0.000244486 -1.52244e-19)
(1.00006 6.30456e-05 5.86676e-19)
(1.00004 -9.94997e-05 5.83294e-19)
(1.00004 -0.000206974 -5.10916e-19)
(1.00005 -0.000246086 -5.03443e-19)
(1.00008 -0.000226808 -7.95603e-19)
(1.00011 -0.000174783 -5.582e-19)
(1.00014 -0.000120661 9.85129e-20)
(1.00018 -9.18653e-05 -2.65211e-19)
(1.00022 -0.000105813 1.03197e-18)
(1.00026 -0.000170104 1.30796e-19)
(1.00032 -0.000282792 -7.40378e-19)
(1.00039 -0.000436244 -2.47682e-19)
(1.00048 -0.000620216 1.19377e-19)
(1.00057 -0.00082505 1.85543e-19)
(1.00068 -0.00104662 -3.52601e-19)
(1.00077 -0.00129232 2.72421e-19)
(1.00085 -0.00153591 8.083e-20)
(1.00078 -0.00188778 -5.08829e-19)
(1.00065 -0.00251211 1.32897e-19)
(1.00034 -0.0016231 3.63858e-20)
(0.999805 -0.000247276 -2.70341e-20)
(0.999826 -0.000254943 9.72507e-20)
(0.999888 -0.000193738 -7.50507e-19)
(0.999975 -5.55586e-05 -2.70186e-19)
(1.00007 0.000134635 3.59914e-19)
(1.00015 0.000319814 9.44701e-19)
(1.0002 0.000442987 8.13942e-19)
(1.00023 0.000467967 3.63165e-20)
(1.00021 0.000387485 1.05504e-19)
(1.00018 0.000231188 5.23145e-19)
(1.00013 4.28116e-05 -4.39813e-19)
(1.00009 -0.000129338 -7.01393e-19)
(1.00006 -0.000254604 2.0527e-19)
(1.00004 -0.00032193 8.61693e-19)
(1.00004 -0.000340197 1.73294e-18)
(1.00005 -0.000330948 -7.38991e-21)
(1.00009 -0.000319524 2.71655e-19)
(1.00013 -0.000327877 9.42029e-19)
(1.0002 -0.000369029 -9.32816e-19)
(1.00028 -0.000447534 6.13978e-19)
(1.00039 -0.00055999 7.58615e-19)
(1.0005 -0.000698473 4.44978e-19)
(1.00064 -0.000853195 3.43175e-19)
(1.00078 -0.00101562 -1.81656e-20)
(1.00092 -0.00118186 -1.33028e-19)
(1.00104 -0.00135904 4.32672e-19)
(1.00113 -0.00151994 2.00475e-19)
(1.0011 -0.00174923 2.977e-19)
(1.00097 -0.00228139 1.82217e-19)
(1.00068 -0.00145294 -1.68074e-19)
(0.9998 -0.000228289 3.66915e-20)
(0.999825 -0.00021397 1.77903e-19)
(0.999899 -0.000145851 3.94732e-19)
(1.00001 -1.3977e-05 3.51081e-19)
(1.00013 0.000159486 9.8472e-19)
(1.00025 0.000326295 -5.56779e-19)
(1.00036 0.000440358 -6.58502e-19)
(1.00043 0.000473371 3.6089e-19)
(1.00046 0.000420067 -5.73733e-19)
(1.00046 0.000305329 -2.00651e-19)
(1.00043 0.000163319 -1.02538e-18)
(1.00039 3.17662e-05 6.79379e-19)
(1.00035 -6.71109e-05 3.42225e-19)
(1.00031 -0.000126088 2.20902e-20)
(1.0003 -0.000153238 -9.9991e-19)
(1.0003 -0.000165528 1.59378e-19)
(1.00032 -0.00018199 -3.1138e-19)
(1.00038 -0.000218035 -1.17037e-18)
(1.00045 -0.000281361 -1.59161e-20)
(1.00055 -0.00037294 -1.00566e-18)
(1.00068 -0.000487837 -9.40131e-19)
(1.00082 -0.000618375 -3.89702e-19)
(1.00097 -0.000756448 -2.94388e-19)
(1.00113 -0.000896561 -3.33881e-19)
(1.00128 -0.00103851 -2.18339e-19)
(1.0014 -0.00119362 -1.07613e-18)
(1.00147 -0.0013415 7.52496e-20)
(1.00144 -0.00155185 4.88475e-19)
(1.00133 -0.00211543 9.11851e-20)
(1.00082 -0.00159655 1.84368e-19)
(0.999799 -0.000209404 1.49093e-19)
(0.999826 -0.000193867 -3.55284e-19)
(0.999914 -0.000138606 -5.03543e-19)
(1.00005 -2.79129e-05 -2.8289e-19)
(1.0002 0.000121526 -2.648e-19)
(1.00037 0.000272121 -3.28428e-19)
(1.00053 0.000388893 5.08414e-19)
(1.00066 0.000450005 -9.68381e-19)
(1.00075 0.000449871 -3.31074e-19)
(1.0008 0.000405798 6.17876e-19)
(1.00081 0.000339957 8.45277e-19)
(1.0008 0.000277455 -3.64017e-19)
(1.00077 0.000230643 -9.47367e-19)
(1.00073 0.000201809 -4.05142e-19)
(1.00071 0.0001829 2.20541e-20)
(1.0007 0.000160856 3.18847e-20)
(1.00072 0.00012242 1.44963e-19)
(1.00077 5.82387e-05 -1.80422e-19)
(1.00084 -3.4474e-05 8.51528e-19)
(1.00094 -0.000153541 6.71837e-19)
(1.00107 -0.000292934 6.02769e-19)
(1.00121 -0.000445714 1.64327e-19)
(1.00136 -0.000605949 -3.89185e-19)
(1.0015 -0.000771439 -2.38149e-19)
(1.00163 -0.000945632 4.11274e-19)
(1.00173 -0.00114296 7.78031e-19)
(1.00177 -0.00134773 -8.75222e-19)
(1.00171 -0.00161023 -8.07281e-19)
(1.00164 -0.00224315 2.02565e-19)
(1.00098 -0.00198856 -1.07464e-19)
(0.999792 -0.000195137 6.55615e-21)
(0.999821 -0.000193582 1.38195e-19)
(0.999915 -0.000165615 5.99154e-19)
(1.00006 -8.73579e-05 -6.86448e-21)
(1.00024 3.09252e-05 -4.62526e-19)
(1.00044 0.000162166 -6.41223e-20)
(1.00064 0.000281401 -4.2091e-19)
(1.00082 0.000371673 5.31541e-19)
(1.00096 0.000425769 6.68976e-20)
(1.00106 0.000452555 -6.51006e-19)
(1.00111 0.000462124 -9.93428e-19)
(1.00113 0.000467182 -5.08328e-19)
(1.00112 0.000470546 8.06466e-19)
(1.0011 0.00046956 6.7848e-19)
(1.00107 0.000455847 -4.86226e-19)
(1.00107 0.00041956 -1.08445e-18)
(1.00108 0.000352387 1.51418e-19)
(1.00112 0.000250217 8.52372e-19)
(1.00119 0.00011455 -8.81812e-19)
(1.00128 -4.96008e-05 5.76507e-19)
(1.0014 -0.00023504 -5.67374e-19)
(1.00153 -0.000434992 -1.13808e-19)
(1.00167 -0.000644537 2.99889e-19)
(1.0018 -0.000862657 4.7302e-19)
(1.00191 -0.00109326 -1.29536e-19)
(1.00199 -0.001349 -6.38415e-19)
(1.002 -0.00161284 -2.69854e-19)
(1.00193 -0.00191254 -2.12128e-20)
(1.00192 -0.00255967 4.09775e-20)
(1.00121 -0.00241245 -7.31511e-20)
(0.999777 -0.000186971 -3.11022e-20)
(0.999804 -0.000208079 8.69788e-20)
(0.999893 -0.000215465 -2.134e-19)
(1.00003 -0.000176242 -9.55922e-20)
(1.00021 -9.46458e-05 -5.84704e-19)
(1.00042 1.13235e-05 -1.74773e-19)
(1.00063 0.000124915 5.91273e-20)
(1.00084 0.000232557 -5.19589e-19)
(1.00101 0.000324965 -2.19068e-19)
(1.00114 0.000403177 1.26206e-19)
(1.00123 0.000466799 1.86855e-19)
(1.00127 0.000518034 5.10648e-19)
(1.00129 0.000551854 5.44522e-20)
(1.00128 0.000561687 -1.4715e-18)
(1.00127 0.000539134 -4.03135e-19)
(1.00127 0.000477247 4.93246e-20)
(1.00129 0.000372015 7.88906e-19)
(1.00133 0.000223869 -3.23164e-19)
(1.00141 3.81179e-05 6.07647e-19)
(1.0015 -0.000177479 8.71747e-19)
(1.00162 -0.000414136 3.72096e-19)
(1.00175 -0.000664228 -3.15836e-19)
(1.00188 -0.000922218 -6.17284e-19)
(1.00201 -0.00118594 5.32841e-19)
(1.00212 -0.00145692 -5.73516e-19)
(1.0022 -0.0017429 1.39945e-18)
(1.00221 -0.00202294 -3.47623e-19)
(1.00214 -0.00230746 9.56482e-20)
(1.00217 -0.00290148 -4.93264e-19)
(1.00154 -0.00273662 6.85147e-20)
(0.99975 -0.000184656 -1.5552e-19)
(0.999774 -0.000231112 -6.60194e-20)
(0.999846 -0.000275532 -3.56807e-20)
(0.999966 -0.000276935 4.51651e-19)
(1.00012 -0.000234487 1.01189e-18)
(1.00032 -0.000159145 1.12185e-18)
(1.00052 -6.14755e-05 9.4043e-19)
(1.00072 4.70931e-05 -1.0484e-19)
(1.0009 0.000155383 9.57842e-19)
(1.00105 0.000258077 -2.33576e-19)
(1.00116 0.000346795 -9.43834e-20)
(1.00122 0.000415986 1.14901e-18)
(1.00126 0.000455196 1.30326e-18)
(1.00127 0.000455529 7.1888e-20)
(1.00129 0.00040928 6.01902e-19)
(1.00131 0.000312367 -1.2401e-20)
(1.00135 0.00016461 -3.39267e-19)
(1.00141 -2.96233e-05 7.75541e-19)
(1.0015 -0.000261687 4.12717e-19)
(1.00162 -0.000521251 -1.85761e-18)
(1.00175 -0.00079772 3.20751e-19)
(1.00189 -0.00108202 4.17707e-19)
(1.00204 -0.00136713 -4.57682e-20)
(1.00218 -0.00164873 -9.37669e-19)
(1.0023 -0.00192523 2.87131e-19)
(1.00239 -0.00219961 -1.30476e-18)
(1.00241 -0.00244843 6.65779e-19)
(1.00236 -0.00267331 -4.8841e-19)
(1.00243 -0.00317577 -1.87657e-19)
(1.00191 -0.00292925 8.75507e-21)
(0.999712 -0.000186936 1.14964e-19)
(0.999732 -0.000256647 -1.65194e-19)
(0.999782 -0.000334722 3.77883e-19)
(0.999871 -0.000374058 -2.95614e-19)
(0.999996 -0.000369846 -1.03613e-18)
(1.00015 -0.000328079 -4.35847e-19)
(1.00033 -0.000255018 -2.0279e-18)
(1.00051 -0.000160874 9.42955e-19)
(1.00068 -5.81854e-05 -1.17645e-20)
(1.00083 4.32066e-05 7.07907e-20)
(1.00094 0.000129672 1.62296e-19)
(1.00103 0.000190823 -1.63434e-18)
(1.00109 0.000213294 -9.72946e-19)
(1.00113 0.000187538 1.30177e-18)
(1.00118 0.000107346 1.29962e-19)
(1.00123 -2.84762e-05 4.49198e-19)
(1.0013 -0.000216711 -1.11975e-18)
(1.0014 -0.000449714 -8.19353e-19)
(1.00153 -0.000716107 8.68645e-19)
(1.00167 -0.00100345 6.55731e-19)
(1.00183 -0.0012996 -1.03297e-18)
(1.00201 -0.00159416 -5.91903e-19)
(1.00218 -0.00187873 7.43925e-19)
(1.00235 -0.00214721 2.95331e-19)
(1.00249 -0.00239587 5.16791e-19)
(1.0026 -0.00262488 2.42052e-19)
(1.00265 -0.00281091 2.09686e-19)
(1.0026 -0.00295374 1.12827e-18)
(1.0027 -0.00335487 -3.91642e-19)
(1.00229 -0.00300629 -1.74986e-19)
(0.999667 -0.000192403 -3.3914e-20)
(0.999682 -0.000280493 5.38156e-19)
(0.999707 -0.000385744 3.79065e-19)
(0.999761 -0.000457617 -3.39477e-20)
(0.999846 -0.000488214 -1.16321e-19)
(0.999964 -0.000480346 8.43897e-19)
(1.0001 -0.000437543 8.35213e-19)
(1.00026 -0.000369414 -8.07249e-19)
(1.00041 -0.000289199 -8.1371e-19)
(1.00055 -0.000209444 -3.43178e-19)
(1.00066 -0.00014651 -1.73637e-19)
(1.00076 -0.000113012 1.39334e-18)
(1.00085 -0.000123018 -2.46846e-18)
(1.00093 -0.000185294 -3.05253e-19)
(1.00101 -0.000303921 -4.50807e-19)
(1.00111 -0.000477275 5.55838e-19)
(1.00122 -0.000699247 1.25002e-18)
(1.00137 -0.000959651 2.16434e-18)
(1.00153 -0.00124515 -2.45712e-18)
(1.00172 -0.00154192 1.52033e-19)
(1.00193 -0.00183689 1.30724e-18)
(1.00214 -0.00211901 9.52847e-19)
(1.00234 -0.00237924 3.10227e-20)
(1.00254 -0.00261075 3.21719e-19)
(1.00271 -0.00280917 1.20857e-18)
(1.00284 -0.00297396 9.30627e-19)
(1.00291 -0.00308384 1.71943e-18)
(1.00288 -0.00314047 -8.20127e-20)
(1.00298 -0.00344776 6.19701e-19)
(1.00265 -0.00300058 1.50216e-19)
(0.999617 -0.00019904 -6.06985e-20)
(0.999628 -0.000299951 -3.08115e-19)
(0.999629 -0.000425001 -5.30309e-19)
(0.99965 -0.000522983 6.26215e-20)
(0.999698 -0.000583732 8.26022e-19)
(0.999777 -0.000608244 4.54302e-19)
(0.999879 -0.000598491 -1.1291e-19)
(1 -0.000563835 4.40547e-19)
(1.00013 -0.000517547 8.12911e-19)
(1.00026 -0.000473286 3.90185e-19)
(1.00038 -0.000448075 4.33341e-19)
(1.0005 -0.000454672 1.46188e-19)
(1.00061 -0.000506164 5.68237e-19)
(1.00072 -0.000609506 4.68176e-19)
(1.00085 -0.000766294 8.18207e-19)
(1.00099 -0.000972303 -5.37277e-19)
(1.00116 -0.00121912 9.97356e-20)
(1.00136 -0.0014948 -9.00425e-19)
(1.00157 -0.00178489 -7.08836e-19)
(1.00181 -0.00207499 -3.61322e-20)
(1.00205 -0.00235192 5.25344e-19)
(1.0023 -0.00260476 -1.04386e-18)
(1.00254 -0.00282477 -3.74502e-19)
(1.00277 -0.00300541 -5.65433e-19)
(1.00296 -0.00314292 -1.10323e-18)
(1.00311 -0.00323752 -4.29989e-19)
(1.00319 -0.00327071 -2.79371e-18)
(1.00316 -0.0032473 -1.20792e-18)
(1.00326 -0.00347475 -1.68864e-19)
(1.00298 -0.00294125 2.15831e-19)
(0.999566 -0.000205118 -5.01265e-20)
(0.999571 -0.000314298 -2.82794e-19)
(0.999554 -0.00045246 -4.3154e-20)
(0.999548 -0.000570594 -7.07565e-19)
(0.999565 -0.000656919 8.58935e-20)
(0.999611 -0.000711525 2.39851e-21)
(0.999683 -0.000735633 2.17271e-19)
(0.999778 -0.000738499 5.25545e-19)
(0.99989 -0.000732837 -8.24103e-19)
(1.00001 -0.000732149 4.23053e-19)
(1.00014 -0.000752573 8.46156e-19)
(1.00027 -0.000805528 -4.22764e-19)
(1.00041 -0.000901981 1.75885e-18)
(1.00057 -0.00104648 -1.19946e-19)
(1.00074 -0.00123804 -2.54668e-18)
(1.00093 -0.00147021 -1.52366e-18)
(1.00115 -0.00173287 -5.51819e-19)
(1.00139 -0.00201311 -5.4925e-19)
(1.00166 -0.00229611 1.71259e-18)
(1.00194 -0.00256769 -1.29362e-19)
(1.00222 -0.00281527 -1.94142e-18)
(1.00251 -0.00302879 1.62666e-18)
(1.00278 -0.00320051 1.61525e-18)
(1.00302 -0.00332497 5.92463e-19)
(1.00323 -0.00339973 -7.87771e-19)
(1.00339 -0.00342638 -3.29798e-20)
(1.00347 -0.00338914 2.36141e-18)
(1.00345 -0.0032958 1.68107e-18)
(1.00354 -0.00345817 -1.56451e-19)
(1.00327 -0.00285253 -2.19337e-19)
(0.999517 -0.000209344 6.4068e-20)
(0.999516 -0.000323774 5.0899e-19)
(0.999485 -0.000470226 -3.26537e-19)
(0.999461 -0.000603962 6.04464e-19)
(0.999456 -0.000712269 -2.07517e-19)
(0.999478 -0.000794849 -1.82747e-18)
(0.999528 -0.000852626 3.01137e-19)
(0.999606 -0.00089475 -1.73558e-18)
(0.999706 -0.000932883 -6.17965e-19)
(0.999827 -0.000979435 -9.45303e-19)
(0.999964 -0.00104861 -2.07104e-18)
(1.00012 -0.00114954 -4.24272e-19)
(1.00029 -0.00129046 4.83516e-19)
(1.00048 -0.00147326 -5.26797e-19)
(1.0007 -0.00169455 3.70184e-18)
(1.00094 -0.00194604 1.45925e-19)
(1.0012 -0.00221656 4.71596e-19)
(1.00149 -0.00249286 1.0898e-18)
(1.0018 -0.00276045 -2.68894e-19)
(1.00212 -0.00300593 1.65937e-18)
(1.00244 -0.00321789 6.7772e-19)
(1.00275 -0.00338763 8.36151e-19)
(1.00304 -0.00350883 -1.69867e-18)
(1.0033 -0.00357746 3.21774e-19)
(1.00352 -0.00359265 1.90729e-19)
(1.00369 -0.00355746 -1.30577e-18)
(1.00376 -0.00345825 -6.07324e-19)
(1.00373 -0.00330524 -3.3739e-19)
(1.0038 -0.00341475 3.38758e-19)
(1.00354 -0.00274876 -2.11136e-20)
(0.999471 -0.000211225 -9.43493e-20)
(0.999462 -0.000329735 -1.75623e-19)
(0.999424 -0.000481923 8.36023e-19)
(0.999389 -0.000628647 -9.75852e-19)
(0.999372 -0.00075684 -3.68615e-19)
(0.999382 -0.000866016 1.01996e-18)
(0.999419 -0.000957009 -1.18212e-18)
(0.999488 -0.00103875 1.57493e-18)
(0.999585 -0.00112148 2.04195e-18)
(0.999711 -0.00121589 1.41219e-19)
(0.999861 -0.00133362 1.55335e-18)
(1.00004 -0.00148105 -1.19889e-18)
(1.00024 -0.00166341 -1.6404e-18)
(1.00047 -0.00188002 -7.4819e-19)
(1.00072 -0.00212535 -5.47781e-19)
(1.00101 -0.00238979 2.03393e-18)
(1.00131 -0.0026616 -7.68274e-19)
(1.00164 -0.00292777 -1.95614e-18)
(1.00199 -0.00317459 4.72834e-19)
(1.00234 -0.00338989 -2.88297e-18)
(1.00268 -0.00356374 4.08355e-20)
(1.00302 -0.00368903 -2.57067e-18)
(1.00332 -0.00376104 2.14472e-18)
(1.00359 -0.00377722 -1.16508e-18)
(1.00381 -0.00373819 -4.20174e-19)
(1.00397 -0.00364828 5.99901e-19)
(1.00404 -0.00349538 -2.75117e-19)
(1.004 -0.00329136 -1.12415e-18)
(1.00405 -0.0033574 1.32931e-19)
(1.00377 -0.00264021 4.60003e-20)
(0.999427 -0.000210431 7.21954e-20)
(0.999411 -0.000333557 -2.43947e-19)
(0.99937 -0.000491381 1.73356e-20)
(0.999332 -0.000650416 1.62466e-18)
(0.999312 -0.000797948 1.06995e-18)
(0.999317 -0.000933309 -6.37424e-20)
(0.999352 -0.00105722 2.89401e-18)
(0.999421 -0.00117825 -9.74821e-19)
(0.999522 -0.00130494 -1.88408e-18)
(0.999658 -0.00144589 -6.78501e-19)
(0.999825 -0.00160989 -1.03907e-18)
(1.00002 -0.00180041 -1.25067e-18)
(1.00025 -0.00201976 1.36236e-18)
(1.00052 -0.00226491 2.31053e-18)
(1.00081 -0.00252858 -4.55566e-19)
(1.00113 -0.00280028 3.24306e-19)
(1.00147 -0.00306819 -5.82547e-19)
(1.00184 -0.0033199 1.41466e-18)
(1.00221 -0.00354282 -1.17483e-18)
(1.00259 -0.00372622 1.45806e-18)
(1.00295 -0.00386179 -4.41972e-19)
(1.0033 -0.00394406 -2.23292e-19)
(1.00361 -0.00396987 -5.78264e-19)
(1.00388 -0.00393804 8.55916e-19)
(1.00409 -0.00385041 6.48777e-19)
(1.00425 -0.0037123 6.4621e-19)
(1.00431 -0.00351255 -3.40326e-19)
(1.00425 -0.00326414 6.749e-19)
(1.00428 -0.00329302 2.57703e-19)
(1.00397 -0.00253067 6.00438e-20)
(0.999385 -0.000207159 -7.07708e-20)
(0.99936 -0.000337029 -1.96352e-19)
(0.999321 -0.000502389 -2.63031e-19)
(0.999287 -0.000674787 -8.9532e-19)
(0.999269 -0.000842494 -2.39744e-20)
(0.999279 -0.00100452 1.15435e-18)
(0.999319 -0.00116136 -2.11095e-18)
(0.999394 -0.00132101 5.43229e-19)
(0.999506 -0.0014902 1.29634e-18)
(0.999656 -0.00167522 1.19922e-18)
(0.999842 -0.001882 1.0208e-18)
(1.00007 -0.00211119 -1.32399e-19)
(1.00032 -0.0023624 3.66338e-19)
(1.00062 -0.00263064 -2.38334e-18)
(1.00094 -0.00290729 2.60103e-18)
(1.00129 -0.00318138 -1.01311e-18)
(1.00167 -0.00344134 -9.70283e-20)
(1.00206 -0.00367566 -7.72711e-19)
(1.00245 -0.00387305 1.06628e-18)
(1.00285 -0.00402429 -1.28358e-18)
(1.00322 -0.00412267 -1.14055e-18)
(1.00357 -0.0041643 7.53437e-19)
(1.00389 -0.00414741 -2.19083e-18)
(1.00416 -0.00407196 -1.46194e-18)
(1.00437 -0.00394078 6.05918e-19)
(1.00451 -0.00375983 -1.20315e-18)
(1.00455 -0.00351853 -4.7379e-19)
(1.00448 -0.00323048 1.31906e-19)
(1.00449 -0.00322656 -2.30493e-20)
(1.00415 -0.00242323 -2.79528e-19)
(0.999342 -0.000201898 2.03449e-20)
(0.999309 -0.000341502 3.89951e-19)
(0.999276 -0.00051788 -7.79091e-19)
(0.999248 -0.000705955 8.62892e-19)
(0.999239 -0.000895653 -2.32045e-19)
(0.999259 -0.0010855 -2.1777e-18)
(0.999309 -0.00127551 7.33093e-19)
(0.999398 -0.00147299 -4.92524e-19)
(0.999524 -0.00168272 -6.12033e-19)
(0.999691 -0.00190873 -5.28148e-19)
(0.999899 -0.00215417 5.84342e-19)
(1.00015 -0.00241715 2.34004e-18)
(1.00043 -0.00269494 -1.25396e-18)
(1.00075 -0.00298098 1.45688e-18)
(1.00111 -0.0032657 -2.58341e-18)
(1.00148 -0.00353801 -1.08057e-18)
(1.00188 -0.00378686 1.51042e-18)
(1.00229 -0.00400182 1.27309e-18)
(1.0027 -0.00417293 -7.09905e-19)
(1.00311 -0.00429247 3.18112e-18)
(1.00349 -0.00435525 3.09543e-18)
(1.00384 -0.00435877 -1.49119e-18)
(1.00416 -0.00430247 1.90238e-18)
(1.00442 -0.00418722 7.07577e-19)
(1.00462 -0.00401657 -1.40525e-18)
(1.00475 -0.00379689 9.60997e-19)
(1.00478 -0.00351788 1.87702e-18)
(1.00469 -0.00319352 3.94834e-19)
(1.00469 -0.00315943 -2.38289e-19)
(1.00431 -0.0023176 1.99161e-19)
(0.999296 -0.000195515 1.98086e-19)
(0.999257 -0.000348406 5.64815e-20)
(0.99923 -0.000540134 5.81763e-19)
(0.999213 -0.000747018 -7.96539e-19)
(0.999216 -0.000961111 5.35616e-19)
(0.999249 -0.00118027 -3.15344e-19)
(0.999315 -0.00140381 1.28469e-18)
(0.999419 -0.00163818 -4.61191e-19)
(0.999563 -0.00188625 -6.30011e-19)
(0.99975 -0.00214985 -7.33294e-19)
(0.99998 -0.00242962 -2.30487e-18)
(1.00025 -0.00272146 7.76601e-19)
(1.00056 -0.00302069 4.51886e-19)
(1.00091 -0.0033196 7.50961e-19)
(1.00128 -0.00360803 -3.4065e-19)
(1.00168 -0.00387508 9.98099e-19)
(1.0021 -0.00411037 -2.2393e-18)
(1.00253 -0.00430464 -2.3687e-18)
(1.00295 -0.00444927 4.17436e-20)
(1.00336 -0.00453793 -2.19982e-18)
(1.00374 -0.00456681 1.14194e-19)
(1.0041 -0.00453461 1.34836e-18)
(1.00441 -0.00444178 -9.4746e-19)
(1.00466 -0.00428987 6.40122e-20)
(1.00485 -0.00408295 6.14942e-19)
(1.00497 -0.00382764 -3.51349e-19)
(1.00498 -0.00351374 -2.04061e-18)
(1.00489 -0.00315539 -1.01084e-18)
(1.00486 -0.00309302 3.11544e-19)
(1.00444 -0.00221453 2.34924e-19)
(0.999244 -0.000188716 -1.43824e-19)
(0.999201 -0.000358507 1.64867e-19)
(0.999182 -0.000570339 -2.33286e-19)
(0.999176 -0.000799482 5.49081e-19)
(0.999194 -0.00104053 -6.5118e-19)
(0.999243 -0.00129056 -4.51191e-19)
(0.999325 -0.00154791 -1.71167e-18)
(0.999448 -0.00181809 1.97204e-18)
(0.999612 -0.00210212 2.72881e-18)
(0.99982 -0.00239981 6.28319e-19)
(1.00007 -0.00270959 4.08837e-19)
(1.00036 -0.00302551 -2.80537e-19)
(1.0007 -0.00334138 4.11407e-19)
(1.00107 -0.00364869 -1.01913e-19)
(1.00146 -0.00393704 1.86896e-18)
(1.00188 -0.0041959 7.18732e-19)
(1.00231 -0.00441574 8.84572e-19)
(1.00275 -0.00458844 1.18403e-19)
(1.00318 -0.00470667 1.97692e-18)
(1.00359 -0.00476538 1.13577e-18)
(1.00398 -0.00476195 -1.61207e-18)
(1.00433 -0.00469611 -1.21548e-18)
(1.00463 -0.00456912 8.18472e-19)
(1.00488 -0.00438305 1.52177e-19)
(1.00506 -0.00414232 1.32903e-19)
(1.00516 -0.00385369 -1.42659e-19)
(1.00517 -0.00350694 1.19011e-18)
(1.00506 -0.0031163 5.32066e-19)
(1.00502 -0.00302679 -1.44173e-18)
(1.00458 -0.00211284 -2.60062e-20)
(0.999185 -0.000182218 6.79564e-20)
(0.99914 -0.000372567 6.86635e-20)
(0.999128 -0.00060906 5.30218e-19)
(0.999135 -0.000863875 -2.57438e-19)
(0.999168 -0.00113429 -1.05945e-18)
(0.999234 -0.00141654 8.45267e-20)
(0.999335 -0.00170778 -1.88738e-18)
(0.999477 -0.00201251 5.04054e-19)
(0.999662 -0.00233001 -2.08253e-18)
(0.999891 -0.00265831 -6.83092e-19)
(1.00016 -0.00299394 -5.17387e-19)
(1.00048 -0.00332951 7.12601e-19)
(1.00083 -0.00365766 -4.6189e-19)
(1.00122 -0.00396948 1.03533e-19)
(1.00164 -0.00425454 -4.75049e-19)
(1.00207 -0.00450287 -1.89882e-18)
(1.00251 -0.00470582 -1.50065e-19)
(1.00296 -0.00485644 1.25451e-18)
(1.00339 -0.00494856 -1.34108e-18)
(1.00381 -0.0049783 1.01067e-18)
(1.0042 -0.00494405 -2.35525e-18)
(1.00454 -0.00484641 1.23603e-18)
(1.00484 -0.00468726 -1.7598e-18)
(1.00508 -0.00446908 5.72069e-19)
(1.00524 -0.00419651 -4.98356e-19)
(1.00534 -0.00387638 -1.56897e-21)
(1.00534 -0.00349839 -7.44269e-19)
(1.00522 -0.00307679 -7.4595e-19)
(1.00517 -0.00296122 7.15111e-19)
(1.00469 -0.00201296 8.39789e-20)
(0.999116 -0.000176543 -1.83554e-19)
(0.999073 -0.000390689 -6.84203e-19)
(0.999069 -0.000655979 -5.66725e-19)
(0.999088 -0.000939514 2.64205e-19)
(0.999135 -0.0012413 3.02298e-19)
(0.999218 -0.00155675 1.76233e-18)
(0.999338 -0.00188164 2.93918e-18)
(0.9995 -0.00221946 -3.41808e-18)
(0.999705 -0.00256789 5.11745e-19)
(0.999955 -0.00292341 -4.27335e-19)
(1.00025 -0.00328101 3.30112e-18)
(1.00058 -0.00363218 -1.20236e-18)
(1.00096 -0.00396879 -3.17805e-19)
(1.00136 -0.00428176 2.34946e-19)
(1.00179 -0.00456088 -2.5807e-18)
(1.00224 -0.00479684 7.1365e-19)
(1.0027 -0.0049819 5.40053e-19)
(1.00315 -0.00511022 3.7249e-19)
(1.00359 -0.0051767 5.64537e-19)
(1.00401 -0.00517845 -5.54544e-19)
(1.00439 -0.00511475 6.03666e-19)
(1.00473 -0.00498691 -1.17359e-18)
(1.00502 -0.00479731 1.57137e-18)
(1.00525 -0.0045487 1.40465e-18)
(1.00541 -0.0042459 1.82285e-18)
(1.0055 -0.00389574 -1.12268e-19)
(1.00549 -0.00348783 2.65663e-19)
(1.00536 -0.00303641 7.15026e-20)
(1.0053 -0.00289558 -2.87309e-19)
(1.0048 -0.00191404 -1.98325e-19)
(0.999036 -0.000172131 1.57317e-19)
(0.998998 -0.000413022 4.29361e-19)
(0.999 -0.000710446 -6.65681e-20)
(0.999031 -0.00102523 1.817e-19)
(0.999093 -0.00135985 -6.79234e-20)
(0.999192 -0.00170901 -1.17166e-18)
(0.99933 -0.00206697 -3.03182e-20)
(0.999512 -0.00243623 1.31175e-18)
(0.999737 -0.00281302 1.84658e-18)
(1.00001 -0.00319256 3.28933e-18)
(1.00032 -0.00356858 1.1473e-18)
(1.00068 -0.0039318 1.10714e-18)
(1.00107 -0.00427359 -9.90096e-19)
(1.00149 -0.00458497 -1.60191e-18)
(1.00194 -0.00485607 3.99476e-18)
(1.00239 -0.00507833 1.89718e-18)
(1.00286 -0.00524491 -3.44097e-18)
(1.00332 -0.00535099 -1.81221e-18)
(1.00376 -0.00539244 -3.14617e-18)
(1.00418 -0.00536726 -1.30686e-18)
(1.00456 -0.00527545 1.3988e-18)
(1.0049 -0.00511889 2.24481e-18)
(1.00519 -0.00490038 -3.19104e-18)
(1.00541 -0.00462284 -5.5898e-19)
(1.00556 -0.00429123 -1.59637e-18)
(1.00564 -0.00391234 4.99947e-19)
(1.00562 -0.00347568 -1.04099e-18)
(1.00549 -0.00299548 -9.92542e-19)
(1.00542 -0.00283033 3.48954e-19)
(1.0049 -0.00181666 -1.31717e-19)
(0.998946 -0.000169092 2.69981e-20)
(0.998915 -0.000439124 3.21474e-19)
(0.998923 -0.000771255 4.07558e-19)
(0.998964 -0.00111914 -7.11035e-19)
(0.999039 -0.00148745 4.39163e-19)
(0.999155 -0.00187034 6.71011e-19)
(0.99931 -0.00226045 -1.00975e-18)
(0.99951 -0.00265933 1.01901e-18)
(0.999755 -0.00306195 2.20882e-19)
(1.00005 -0.00346251 -3.71642e-18)
(1.00038 -0.00385379 -1.41185e-18)
(1.00075 -0.00422598 -1.71764e-18)
(1.00116 -0.00457024 2.42294e-19)
(1.0016 -0.00487784 1.26449e-18)
(1.00206 -0.00513937 -2.22843e-18)
(1.00252 -0.00534705 -9.86259e-19)
(1.003 -0.0054949 3.08016e-18)
(1.00346 -0.00557905 3.13469e-18)
(1.00391 -0.00559626 3.96206e-19)
(1.00433 -0.00554523 2.28938e-18)
(1.00471 -0.00542659 -1.21191e-18)
(1.00505 -0.0052427 1.25402e-19)
(1.00533 -0.00499668 4.70553e-18)
(1.00555 -0.00469157 -1.64685e-18)
(1.00569 -0.0043324 -3.88972e-19)
(1.00577 -0.00392596 -6.65396e-19)
(1.00575 -0.00346162 -1.92273e-19)
(1.00561 -0.00295365 2.55923e-18)
(1.00554 -0.00276495 4.63434e-19)
(1.005 -0.00172026 2.44353e-19)
(0.998844 -0.000167417 -4.70689e-20)
(0.998822 -0.000468698 -4.76591e-19)
(0.998835 -0.000837177 2.36826e-21)
(0.998886 -0.00121939 -2.65246e-19)
(0.998974 -0.00162165 -3.01852e-19)
(0.999104 -0.0020378 -8.84746e-19)
(0.999276 -0.00245884 -1.50544e-19)
(0.999494 -0.00288542 -1.58648e-18)
(0.999757 -0.00331143 -2.76134e-18)
(1.00007 -0.00373029 2.09368e-18)
(1.00042 -0.00413406 -4.24209e-18)
(1.00081 -0.00451268 5.23594e-19)
(1.00123 -0.00485723 4.44285e-19)
(1.00169 -0.00515941 1.10202e-18)
(1.00216 -0.00541034 -8.38188e-19)
(1.00263 -0.00560299 -3.38692e-19)
(1.00311 -0.00573221 3.85849e-19)
(1.00358 -0.00579502 -3.25723e-18)
(1.00403 -0.00578889 2.08663e-18)
(1.00446 -0.00571319 -1.93869e-19)
(1.00484 -0.00556905 7.90358e-19)
(1.00517 -0.00535919 2.11968e-18)
(1.00545 -0.005087 -3.14636e-18)
(1.00567 -0.0047556 1.14186e-19)
(1.00581 -0.00437007 5.18198e-19)
(1.00589 -0.00393718 -6.37196e-19)
(1.00586 -0.0034462 2.63323e-18)
(1.00572 -0.00291139 4.2741e-20)
(1.00565 -0.0027001 -4.32368e-19)
(1.00509 -0.00162558 -1.33222e-19)
(0.998732 -0.000166902 -1.18332e-19)
(0.99872 -0.000500979 6.22901e-21)
(0.998737 -0.000906714 2.77602e-19)
(0.998797 -0.0013238 -1.67959e-19)
(0.998896 -0.00175972 -6.43554e-20)
(0.999039 -0.00220826 -6.06986e-19)
(0.999227 -0.00265877 7.97182e-19)
(0.999462 -0.0031111 8.63538e-19)
(0.999743 -0.00355819 -1.0681e-18)
(1.00007 -0.00399292 8.13794e-19)
(1.00044 -0.00440683 5.9337e-18)
(1.00085 -0.00478979 1.36568e-18)
(1.00129 -0.00513298 -3.09825e-18)
(1.00175 -0.00542859 -8.21126e-19)
(1.00223 -0.00566831 1.78155e-18)
(1.00272 -0.00584586 5.89233e-19)
(1.00321 -0.00595684 1.82162e-18)
(1.00369 -0.00599906 2.31045e-18)
(1.00414 -0.00597065 1.78213e-18)
(1.00457 -0.0058715 -1.74667e-18)
(1.00495 -0.00570315 -2.20702e-18)
(1.00529 -0.00546865 -2.95971e-18)
(1.00557 -0.00517156 2.06696e-19)
(1.00578 -0.00481507 1.37884e-18)
(1.00592 -0.00440429 1.55624e-18)
(1.00599 -0.00394599 3.86392e-20)
(1.00597 -0.00342933 1.70398e-19)
(1.00583 -0.00286861 2.54122e-19)
(1.00575 -0.0026355 -1.01333e-19)
(1.00519 -0.00153237 7.22927e-20)
(0.99861 -0.000167319 1.79034e-19)