/*--------------------------------*- C++ -*----------------------------------*\
  =========                 |
  \\      /  F ield         | OpenFOAM: The Open Source CFD Toolbox
   \\    /   O peration     | Website:  https://openfoam.org
    \\  /    A nd           | Version:  6.0
     \\/     M anipulation  |
\*---------------------------------------------------------------------------*/
FoamFile
{
    version     2.0;
    format      ascii;
    class       volVectorField;
    location    "8";
    object      U;
}
// * * * * * * * * * * * * * * * * * * * * * * * * * * * * * * * * * * * * * //

dimensions      [0 1 -1 0 0 0 0];

internalField   nonuniform List<vector> 
4920
(
(0.996166 0.0879264 -7.48813e-20)
(0.996165 0.087945 1.20896e-19)
(0.996164 0.0879504 -3.40125e-19)
(0.996162 0.0879574 4.78745e-19)
(0.996158 0.0879525 1.56593e-19)
(0.996149 0.0879495 -1.9906e-19)
(0.99613 0.0879324 4.89404e-19)
(0.996098 0.0879138 -1.09371e-19)
(0.996037 0.0878778 2.47131e-19)
(0.995924 0.0877995 1.65686e-18)
(0.995724 0.0875936 -2.49813e-18)
(0.995362 0.0870948 3.30346e-18)
(0.994716 0.0859301 1.70113e-18)
(0.993946 0.0829585 7.4814e-19)
(0.988484 0.0754841 -7.43131e-18)
(0.996109 0.0889266 5.12291e-20)
(0.996103 0.0890252 -3.13021e-19)
(0.996095 0.0890835 1.53083e-19)
(0.996083 0.0891367 6.90179e-20)
(0.996063 0.0891645 3.30122e-19)
(0.99603 0.0891887 1.16234e-19)
(0.995967 0.089148 -9.64531e-19)
(0.995873 0.0890704 2.01206e-20)
(0.995718 0.0889525 3.10184e-19)
(0.995461 0.0887457 -3.08604e-18)
(0.995036 0.0882718 4.27133e-18)
(0.994348 0.0872225 -6.52564e-18)
(0.993192 0.0848267 6.36788e-19)
(0.992563 0.0791234 1.67319e-17)
(0.985716 0.0700393 2.29949e-17)
(0.996032 0.0899742 3.50911e-20)
(0.996036 0.0901165 -2.96008e-19)
(0.996016 0.0902171 9.82467e-20)
(0.995982 0.0902842 2.38073e-19)
(0.995926 0.0903293 -7.07482e-19)
(0.995841 0.0903594 1.81429e-19)
(0.995714 0.0902943 2.68873e-19)
(0.99555 0.0901488 -6.10041e-19)
(0.995336 0.0899423 8.28699e-19)
(0.995038 0.089624 -8.77016e-19)
(0.994638 0.089 2.13812e-18)
(0.994125 0.0877928 -2.96079e-18)
(0.993369 0.0852111 -2.83476e-18)
(0.994127 0.0795527 -7.04727e-18)
(0.990327 0.0763888 -1.18173e-17)
(0.995813 0.091614 1.12236e-20)
(0.995859 0.0916843 -9.44301e-20)
(0.995843 0.0917682 1.46211e-19)
(0.995789 0.0917978 -2.33346e-19)
(0.995692 0.0918069 8.87576e-20)
(0.995542 0.0917952 3.09516e-19)
(0.995333 0.091671 7.4981e-19)
(0.995081 0.0914257 -2.83786e-19)
(0.994794 0.0910861 3.95862e-19)
(0.99446 0.0905878 2.28193e-18)
(0.994118 0.089723 -4.03059e-18)
(0.993865 0.0882801 2.04932e-18)
(0.993712 0.0855348 4.53581e-18)
(0.995942 0.0802414 -1.66383e-17)
(0.99503 0.0808562 -1.78257e-18)
(0.995233 0.0938386 9.1537e-20)
(0.995359 0.0938357 -2.13088e-19)
(0.995379 0.0938588 -3.27081e-20)
(0.995334 0.0938067 -1.15033e-19)
(0.995217 0.0937149 -9.01055e-22)
(0.99502 0.0935898 3.73507e-19)
(0.994736 0.0933371 -1.80661e-19)
(0.994387 0.0929282 -1.15025e-18)
(0.994003 0.092374 5.0879e-20)
(0.993591 0.0915889 -1.929e-18)
(0.993244 0.0903208 9.02306e-21)
(0.993145 0.0883936 3.18e-18)
(0.993489 0.0851263 -2.64707e-18)
(0.996909 0.0796532 4.2974e-18)
(0.997614 0.0808944 -6.81812e-18)
(0.994188 0.0964649 3.61949e-20)
(0.994413 0.0963329 1.0658e-19)
(0.994502 0.0962395 -3.43669e-19)
(0.994495 0.0960772 2.75609e-19)
(0.994386 0.0958605 1.87954e-19)
(0.994168 0.0956025 -3.93899e-19)
(0.993827 0.0951881 3.01178e-19)
(0.993386 0.094573 1.15069e-18)
(0.992893 0.0937517 3.61079e-19)
(0.992374 0.0925993 8.05084e-19)
(0.991962 0.0908051 3.96062e-18)
(0.991919 0.0882124 -1.07866e-18)
(0.992666 0.0841338 -6.52338e-18)
(0.997064 0.0780294 -5.7848e-18)
(0.998572 0.0787294 -3.26439e-18)
(0.992672 0.0991416 -5.85713e-21)
(0.992983 0.0989811 1.07653e-19)
(0.993151 0.0988 -1.69927e-19)
(0.993203 0.09853 -8.5041e-20)
(0.99313 0.0981718 4.15051e-19)
(0.99292 0.0977495 -2.34347e-19)
(0.99255 0.097141 2.01788e-19)
(0.99203 0.0962914 -1.80794e-18)
(0.991426 0.0951689 1.33989e-18)
(0.990783 0.0936121 7.15265e-20)
(0.99028 0.0912305 -3.56646e-18)
(0.990254 0.0878605 -4.73522e-19)
(0.991382 0.0828044 5.32138e-18)
(0.996705 0.0758302 4.68172e-17)
(0.998676 0.0760266 1.57518e-17)
(0.990836 0.10172 -1.5091e-20)
(0.991196 0.10147 6.48584e-20)
(0.991423 0.1012 -1.57272e-19)
(0.991527 0.10085 4.15602e-19)
(0.99149 0.100394 9.04464e-20)
(0.991292 0.0998542 -2.53661e-19)
(0.990904 0.0990807 -6.4268e-20)
(0.990312 0.0980029 5.61485e-19)
(0.989597 0.0965823 -5.22269e-19)
(0.988825 0.0946062 2.30849e-19)
(0.98822 0.0916013 5.37672e-18)
(0.988199 0.0874056 1.75641e-19)
(0.989732 0.0813 1.61536e-17)
(0.996009 0.0733517 -6.58381e-17)
(0.998449 0.0734267 -1.53687e-17)
(0.988739 0.104121 3.83688e-20)
(0.989102 0.103934 -1.53529e-19)
(0.989361 0.103622 9.15136e-20)
(0.9895 0.103197 -8.50083e-20)
(0.989493 0.102626 -9.22805e-20)
(0.989308 0.101941 -1.11595e-19)
(0.988909 0.100987 5.58234e-19)
(0.988247 0.0996763 -4.12398e-19)
(0.98742 0.0979509 7.82809e-19)
(0.986509 0.0955568 -2.58135e-18)
(0.985804 0.0919237 -5.4571e-19)
(0.985799 0.0868665 -4.92391e-18)
(0.987783 0.0796771 -1.21391e-17)
(0.995108 0.0707125 2.45013e-18)
(0.998075 0.0710059 1.545e-17)
(0.986532 0.106328 -3.30057e-20)
(0.986858 0.106076 2.46626e-20)
(0.987108 0.105716 -8.79038e-20)
(0.987247 0.105252 -6.85887e-20)
(0.987239 0.104631 4.18722e-20)
(0.987041 0.103871 -4.8545e-20)
(0.98661 0.102791 3.38155e-19)
(0.985864 0.10127 -3.73594e-19)
(0.984907 0.0992603 9.23766e-20)
(0.983855 0.0964466 -2.39094e-19)
(0.983046 0.0921676 -1.56763e-19)
(0.983064 0.0862393 8.9091e-21)
(0.985547 0.0779497 -2.0628e-18)
(0.994028 0.0679518 2.04433e-17)
(0.997684 0.0687173 -1.36318e-18)
(0.984142 0.108435 -2.89289e-22)
(0.984401 0.108304 -1.14133e-20)
(0.984616 0.107938 -2.054e-19)
(0.984735 0.107426 3.39532e-19)
(0.984712 0.106706 2.5535e-19)
(0.984489 0.105812 -4.32814e-19)
(0.984015 0.104567 1.53056e-19)
(0.983172 0.102818 -2.85511e-19)
(0.982077 0.100502 -3.123e-20)
(0.980866 0.0972651 3.07684e-18)
(0.979948 0.0923398 -2.49002e-18)
(0.980012 0.0855076 -2.56394e-18)
(0.983048 0.0760888 1.6786e-18)
(0.992823 0.065041 -2.0044e-17)
(0.997397 0.066477 2.8153e-18)
(0.981629 0.110404 4.15605e-21)
(0.981797 0.110192 1.44413e-19)
(0.981951 0.1098 -6.53779e-20)
(0.982021 0.10928 -1.7971e-19)
(0.981955 0.108543 1.12653e-19)
(0.98168 0.107604 1.44396e-20)
(0.98114 0.106257 -1.74145e-19)
(0.980182 0.104295 -3.75226e-19)
(0.978929 0.101686 -3.54295e-19)
(0.977553 0.0980118 -2.4566e-18)
(0.976516 0.0924032 -4.4965e-18)
(0.976629 0.0846409 1.14668e-17)
(0.980274 0.0740582 -4.80702e-18)
(0.991482 0.0619411 5.29148e-17)
(0.997276 0.0642176 -2.14255e-17)
(0.978944 0.112437 2.18011e-20)
(0.979005 0.112335 2.31841e-20)
(0.97908 0.111934 9.49216e-20)
(0.979083 0.111367 8.5063e-20)
(0.978955 0.110536 -1.16828e-19)
(0.97861 0.109469 2.67108e-19)
(0.977987 0.107959 -2.21471e-19)
(0.976896 0.105757 -4.06015e-20)
(0.975479 0.102818 1.94932e-19)
(0.973901 0.0986845 7.67378e-19)
(0.972732 0.0923731 3.77659e-18)
(0.972919 0.0836149 5.16373e-18)
(0.977243 0.0718015 1.84633e-17)
(0.990048 0.0585524 -4.46412e-17)
(0.997363 0.0618639 3.22114e-17)
(0.976142 0.11444 -4.52889e-20)
(0.976083 0.114228 -1.12711e-20)
(0.976061 0.113792 1.25519e-19)
(0.97597 0.113216 -4.02881e-20)
(0.975749 0.112373 8.01711e-20)
(0.975302 0.111258 5.32748e-20)
(0.974567 0.109635 -3.54478e-19)
(0.973336 0.10719 1.45793e-19)
(0.971698 0.103922 -3.70178e-19)
(0.969889 0.0992962 1.80452e-18)
(0.968577 0.0921976 -8.9002e-19)
(0.968858 0.0823833 -8.70692e-18)
(0.97393 0.0692655 -2.44089e-17)
(0.988532 0.0548551 1.40227e-17)
(0.997662 0.0593591 -4.93907e-18)
(0.973071 0.116584 2.13556e-20)
(0.972882 0.116546 2.45525e-20)
(0.972759 0.116111 -1.92055e-19)
(0.972573 0.115475 3.89805e-19)
(0.972258 0.114504 -1.25882e-19)
(0.971707 0.113223 1.1031e-19)
(0.97087 0.111378 -9.62178e-20)
(0.969441 0.108659 -4.13737e-19)
(0.967554 0.105038 1.70606e-18)
(0.96549 0.0998476 -1.87459e-18)
(0.964025 0.091893 1.85956e-18)
(0.964438 0.0809113 -2.81418e-18)
(0.970365 0.0663838 1.45108e-17)
(0.987026 0.0507934 -1.40085e-17)
(0.998228 0.0566359 -1.21537e-17)
(0.969801 0.118728 1.19253e-20)
(0.969462 0.118554 9.26564e-20)
(0.969221 0.118075 -1.5648e-19)
(0.968923 0.117433 7.68202e-20)
(0.968495 0.116448 -1.25902e-19)
(0.96783 0.115085 1.49575e-20)
(0.966826 0.113131 6.81593e-19)
(0.965182 0.110194 -1.16569e-18)
(0.963028 0.106165 -4.05127e-21)
(0.960678 0.100337 2.08067e-18)
(0.959072 0.0914092 -5.93956e-18)
(0.959642 0.079146 1.45836e-18)
(0.966547 0.0631069 -3.90117e-19)
(0.985554 0.0463628 3.40772e-17)
(0.999053 0.053703 -1.38078e-17)
(0.966221 0.121067 5.95073e-21)
(0.965717 0.12106 -2.463e-22)
(0.965348 0.120546 -4.85866e-20)
(0.964929 0.119821 1.87355e-19)
(0.964383 0.118685 -1.42039e-19)
(0.963577 0.117178 8.41029e-20)
(0.962413 0.11503 1.31514e-19)
(0.960549 0.111784 -4.18491e-19)
(0.958101 0.107329 5.34254e-19)
(0.955478 0.100785 -3.57371e-18)
(0.953715 0.0907676 4.3645e-18)
(0.954472 0.0770558 1.84504e-18)
(0.962521 0.0593603 -2.78557e-18)
(0.98423 0.0415246 -1.34552e-17)
(1.00022 0.0505947 3.45302e-17)
(0.962371 0.123328 4.70959e-20)
(0.961696 0.12315 -1.04576e-19)
(0.961192 0.122594 9.32389e-20)
(0.960644 0.121871 5.15415e-20)
(0.959967 0.120737 -1.7722e-19)
(0.959012 0.119164 1.47224e-19)
(0.95766 0.116912 -1.714e-19)
(0.955558 0.113457 1.41838e-19)
(0.952817 0.108515 2.59023e-18)
(0.949891 0.101169 -1.66687e-18)
(0.947937 0.089928 -1.04297e-18)
(0.948912 0.074587 -1.16111e-18)
(0.95829 0.0550795 -9.58052e-19)
(0.983102 0.03631 -1.6172e-17)
(1.0017 0.0473254 -1.87181e-17)
(0.958368 0.125799 4.74809e-21)
(0.957514 0.125715 3.55306e-20)
(0.956858 0.125103 -1.2698e-19)
(0.956159 0.124297 2.83093e-19)
(0.955318 0.123041 -9.83631e-20)
(0.954172 0.12137 1.75539e-19)
(0.952605 0.118953 1.05341e-19)
(0.950232 0.115185 4.37132e-19)
(0.947158 0.109748 -8.40209e-19)
(0.943878 0.101523 2.00816e-18)
(0.941707 0.0889038 6.16756e-18)
(0.942946 0.0716882 7.57968e-18)
(0.953929 0.0501981 -1.43495e-17)
(0.982299 0.0306926 3.35775e-17)
(1.00359 0.0439125 -3.20166e-18)
(0.954289 0.128385 -3.54562e-20)
(0.953241 0.128118 3.25295e-20)
(0.952413 0.12745 -3.77495e-20)
(0.951524 0.126627 -7.87582e-20)
(0.950471 0.125363 1.69311e-19)
(0.949085 0.1236 -4.7123e-19)
(0.947235 0.121057 -2.79318e-19)
(0.944546 0.117048 1.08004e-19)
(0.941084 0.11102 4.35956e-20)
(0.937399 0.101804 1.04071e-18)
(0.934979 0.0876268 -1.0232e-17)
(0.936561 0.0682822 -3.92659e-18)
(0.94947 0.0446436 1.04363e-17)
(0.98187 0.0247259 -2.30149e-17)
(1.00582 0.0404269 -4.93639e-18)
(0.949834 0.131285 2.80119e-20)
(0.948595 0.131191 -9.89281e-21)
(0.947608 0.130475 -1.14022e-19)
(0.946542 0.129555 1.00991e-19)
(0.945284 0.128127 2.88233e-19)
(0.943642 0.126199 -1.29539e-19)
(0.941494 0.123409 -2.74116e-20)
(0.938448 0.119009 -6.86965e-19)
(0.934539 0.112356 -6.71611e-19)
(0.930395 0.102028 4.34055e-19)
(0.927704 0.0860784 8.14918e-18)
(0.929746 0.0642858 -7.10618e-19)
(0.944998 0.0383297 1.0653e-18)
(0.981988 0.0184678 1.12292e-17)
(1.00852 0.0368898 3.10921e-18)
(0.945016 0.134096 -3.07066e-21)
(0.943584 0.133842 2.00085e-20)
(0.942435 0.13312 -1.20334e-19)
(0.94119 0.132241 -8.43586e-20)
(0.939723 0.130826 -3.37548e-20)
(0.937817 0.128803 2.43463e-19)
(0.935337 0.125844 9.78018e-20)
(0.931893 0.121125 9.96587e-19)
(0.927485 0.113724 1.43543e-18)
(0.922821 0.102131 -6.24188e-19)
(0.919847 0.0841732 -7.15074e-19)
(0.9225 0.0595928 4.20189e-18)
(0.940583 0.0311657 5.63011e-18)
(0.982703 0.0119861 1.69299e-17)
(1.01157 0.033418 9.04641e-19)
(0.939962 0.137202 4.66866e-21)
(0.938328 0.137057 1.42961e-20)
(0.937003 0.136302 1.56982e-20)
(0.935559 0.135375 -9.16266e-20)
(0.933849 0.13385 3.44019e-20)
(0.931633 0.131708 3.69363e-19)
(0.928767 0.128499 -6.7975e-19)
(0.924868 0.123342 -4.75934e-19)
(0.919888 0.115153 -1.25225e-19)
(0.914631 0.102126 -7.68501e-19)
(0.911363 0.0818647 -2.31598e-18)
(0.914826 0.0540907 -3.42796e-18)
(0.936368 0.023105 7.54581e-18)
(0.98416 0.00528481 -8.80693e-18)
(1.01516 0.0300585 1.78595e-18)
(0.93473 0.140344 -3.79552e-21)
(0.93288 0.140084 1.54565e-20)
(0.931358 0.139342 -4.78482e-21)
(0.929681 0.138469 1.95085e-20)
(0.927684 0.136972 -2.34054e-20)
(0.925103 0.134743 -2.72009e-19)
(0.921783 0.131333 3.41215e-19)
(0.917365 0.125754 -3.94253e-20)
(0.911718 0.116614 -2.80787e-18)
(0.905791 0.101949 3.23792e-19)
(0.902229 0.0790612 -5.96715e-18)
(0.906779 0.0476618 -9.41451e-18)
(0.932473 0.0140747 -2.40234e-17)
(0.986411 -0.00150669 7.61933e-19)
(1.01911 0.0269541 2.98135e-18)
(0.929124 0.143833 -5.0823e-21)
(0.927062 0.143747 -1.42286e-20)
(0.925354 0.143007 3.14021e-20)
(0.923446 0.142113 -1.58793e-19)
(0.921152 0.140529 1.59844e-19)
(0.918175 0.138166 -2.12464e-19)
(0.914366 0.134441 2.05394e-19)
(0.909353 0.12832 1.0811e-18)
(0.902942 0.118158 -7.1589e-20)
(0.896254 0.101598 1.77768e-18)
(0.892416 0.075681 -2.84887e-18)
(0.898397 0.040175 1.03551e-17)
(0.929079 0.0040736 1.03952e-17)
(0.989611 -0.00832905 -1.42911e-17)
(1.02363 0.0241216 -2.84164e-18)
(0.923133 0.147305 -5.99925e-22)
(0.920859 0.14716 -6.2717e-21)
(0.918963 0.146482 -3.14871e-20)
(0.91682 0.145699 -8.91842e-20)
(0.914221 0.144175 1.68895e-19)
(0.910834 0.141728 4.90004e-20)
(0.906486 0.137757 4.63323e-19)
(0.900803 0.131105 -1.96025e-18)
(0.893517 0.119731 8.14901e-19)
(0.885976 0.101001 -4.91315e-18)
(0.881922 0.0716183 4.19263e-18)
(0.889793 0.0314999 -8.62064e-18)
(0.926364 -0.00693399 2.37489e-17)
(0.9938 -0.0149862 1.80524e-17)
(1.02847 0.0216986 -4.83999e-19)
(0.916749 0.15109 2.34078e-21)
(0.914271 0.151113 -1.69498e-20)
(0.912201 0.150461 -4.12182e-20)
(0.909838 0.149699 6.17782e-21)
(0.906929 0.148135 1.22813e-19)
(0.9031 0.145603 -1.37544e-20)
(0.898143 0.141323 -5.59547e-19)
(0.891689 0.134069 1.0952e-18)
(0.883387 0.121367 1.00806e-18)
(0.874914 0.100115 2.95711e-18)
(0.870707 0.0667086 -6.32263e-19)
(0.881051 0.0214937 1.32681e-17)
(0.924559 -0.0188468 -1.55828e-18)
(0.999095 -0.0214431 7.07407e-18)
(1.03387 0.0196674 3.49467e-21)
(0.91052 0.15473 3.32776e-21)
(0.907783 0.154613 -4.12047e-20)
(0.90545 0.154101 -2.52684e-20)
(0.902755 0.153545 3.8282e-20)
(0.899419 0.152168 -1.91898e-19)
(0.895024 0.149657 -3.1182e-19)
(0.88933 0.145162 7.47653e-20)
(0.881959 0.137272 9.1198e-19)
(0.872504 0.123007 7.16669e-19)
(0.863014 0.0988554 1.95057e-18)
(0.858806 0.0608379 3.48328e-18)
(0.872406 0.0100605 -1.38539e-18)
(0.92391 -0.0315956 -2.46406e-17)
(1.00552 -0.0273943 -4.65582e-18)
(1.03949 0.0181812 1.10157e-19)
(0.903879 0.159023 2.49661e-21)
(0.900909 0.159195 -5.97801e-20)
(0.898346 0.158751 -9.97323e-21)
(0.895321 0.158247 3.28451e-20)
(0.891526 0.156843 1.85973e-19)
(0.886495 0.15422 1.58586e-19)
(0.879952 0.149361 -1.632e-19)
(0.871555 0.140709 -3.65676e-19)
(0.860798 0.124649 -7.03797e-19)
(0.850212 0.0970989 -5.54863e-18)
(0.846226 0.0537558 1.84377e-19)
(0.864046 -0.00288081 -1.31203e-17)
(0.924682 -0.044913 1.04256e-17)
(1.01316 -0.0327361 9.24385e-19)
(1.04557 0.0172079 1.82463e-18)
(0.896617 0.163039 -3.81001e-21)
(0.89343 0.163276 -3.89935e-20)
(0.890649 0.16308 7.56597e-20)
(0.887303 0.162875 -3.86992e-20)
(0.88305 0.161674 1.41848e-19)
(0.877353 0.159051 -1.54522e-19)
(0.869917 0.15386 4.57368e-19)
(0.860387 0.144342 -7.65748e-19)
(0.848196 0.126213 3.4209e-19)
(0.836458 0.0947355 -4.96206e-19)
(0.833062 0.0453062 3.11371e-18)
(0.856329 -0.0173633 -1.85094e-17)
(0.92714 -0.058628 -7.79247e-18)
(1.02198 -0.0371076 -2.92514e-18)
(1.05165 0.0169079 -8.79188e-19)
(0.888886 0.167565 -7.51276e-21)
(0.885455 0.168112 1.86744e-20)
(0.882437 0.168078 -8.14874e-20)
(0.87874 0.168044 -7.00691e-20)
(0.873988 0.166901 1.44789e-19)
(0.867586 0.164193 1.24114e-19)
(0.859174 0.158589 -8.78185e-19)
(0.848443 0.148143 8.59656e-19)
(0.834615 0.127609 -8.03971e-20)
(0.821664 0.0915136 4.51283e-18)
(0.819381 0.0351364 -1.16278e-17)
(0.849513 -0.033412 2.58636e-17)
(0.931494 -0.0723521 -8.61435e-18)
(1.03197 -0.0405088 6.23366e-18)
(1.05808 0.0172009 -6.10735e-19)
(0.880588 0.171931 -1.52499e-20)
(0.876934 0.172672 -5.19421e-21)
(0.873685 0.172945 2.55029e-20)
(0.869641 0.173257 1.32621e-19)
(0.86438 0.1723 -1.96424e-19)
(0.857215 0.169577 -5.00642e-19)
(0.847801 0.163573 7.02814e-19)
(0.835644 0.152047 -1.05419e-18)
(0.819971 0.128815 4.58163e-20)
(0.805795 0.0872861 -4.03249e-18)
(0.805429 0.0231281 1.42932e-17)
(0.84413 -0.0508315 -6.84424e-18)
(0.938015 -0.0857371 2.34603e-18)
(1.04305 -0.0425087 6.97809e-18)
(1.06422 0.0181814 -7.05696e-18)
(0.871988 0.176782 -1.79624e-20)
(0.86809 0.177768 -1.19945e-20)
(0.86459 0.178252 -1.03314e-20)
(0.860167 0.178814 4.41612e-21)
(0.854338 0.178009 8.72087e-20)
(0.846397 0.175227 1.29631e-19)
(0.835753 0.168798 -3.09017e-19)
(0.822002 0.156191 5.55558e-19)
(0.804155 0.129652 3.24858e-18)
(0.788816 0.0816818 6.08814e-19)
(0.791454 0.00892647 -7.79719e-18)
(0.840573 -0.0693779 -5.33338e-18)
(0.946857 -0.0981338 7.59893e-18)
(1.05513 -0.0431111 -2.44103e-18)
(1.07055 0.0197932 2.48748e-18)
(0.863127 0.181501 7.76932e-21)
(0.858971 0.182762 -2.80341e-20)
(0.855208 0.183601 4.75926e-20)
(0.850395 0.184537 -1.61205e-19)
(0.843992 0.183931 4.8975e-20)
(0.835086 0.181218 5.43294e-19)
(0.823067 0.174454 2.90747e-19)
(0.807391 0.160506 2.23436e-19)
(0.787075 0.130176 -1.08458e-18)
(0.770777 0.0745082 3.31146e-18)
(0.777926 -0.00744357 -9.85661e-18)
(0.839493 -0.0885372 3.28575e-17)
(0.9582 -0.109098 1.67035e-18)
(1.06805 -0.0418894 -6.4187e-18)
(1.07624 0.0220332 1.03859e-17)
(0.853923 0.186517 -4.49864e-21)
(0.849526 0.188055 1.09845e-20)
(0.845529 0.189173 -5.87741e-20)
(0.840301 0.190423 2.33097e-19)
(0.833221 0.190202 -1.24555e-19)
(0.823212 0.187641 -4.07078e-19)
(0.809608 0.180554 -3.12554e-21)
(0.791764 0.165175 4.81671e-20)
(0.768665 0.130114 -7.37622e-18)
(0.751754 0.0652746 8.90341e-18)
(0.765322 -0.0262075 9.56564e-18)
(0.841241 -0.107875 -1.57293e-17)
(0.971986 -0.117939 7.1411e-19)
(1.08162 -0.0390512 -1.14861e-17)
(1.08197 0.0249195 -5.91055e-18)
(0.843973 0.191125 -7.79008e-21)
(0.839438 0.193023 -2.27999e-20)
(0.835244 0.194642 4.25582e-20)
(0.829641 0.19653 -1.58072e-19)
(0.821803 0.196793 5.74446e-20)
(0.810658 0.194567 -9.89199e-21)
(0.79532 0.187154 8.5326e-19)
(0.77507 0.170115 -2.196e-18)
(0.748924 0.129585 7.69872e-18)
(0.732027 0.053891 -6.4882e-18)
(0.754431 -0.0468912 8.28695e-18)
(0.846514 -0.126366 -8.24865e-18)
(0.988303 -0.12412 1.01806e-19)
(1.09562 -0.0342044 -1.68469e-17)
(1.08664 0.0281385 -1.34389e-18)
(0.833503 0.195874 -1.04457e-20)
(0.828842 0.198104 -1.32883e-20)
(0.824466 0.200204 7.79534e-20)
(0.818403 0.20273 -3.085e-20)
(0.809828 0.203725 5.08513e-20)
(0.797415 0.201832 -3.64887e-19)
(0.780247 0.194292 -6.00202e-19)
(0.757425 0.175492 3.87229e-18)
(0.727847 0.128171 -3.5494e-18)
(0.71194 0.0399395 -8.0954e-18)
(0.745974 -0.0693235 -1.71821e-17)
(0.855605 -0.143179 1.47745e-17)
(1.00694 -0.126748 -8.66258e-18)
(1.10981 -0.0276229 2.45952e-17)
(1.09128 0.0318988 5.64588e-18)
(0.822634 0.200638 -1.14394e-20)
(0.817912 0.203309 3.37787e-20)
(0.813373 0.206055 -4.81835e-20)
(0.80686 0.209318 6.37641e-20)
(0.797402 0.210992 -3.2495e-20)
(0.783642 0.209684 2.11039e-19)
(0.764507 0.20195 -6.27686e-19)
(0.738689 0.181173 1.58193e-18)
(0.705473 0.126076 -6.43903e-18)
(0.69207 0.0235902 -1.73942e-18)
(0.741021 -0.0922872 -1.37628e-17)
(0.869115 -0.156808 -3.55002e-18)
(1.02786 -0.125318 8.39293e-19)
(1.12397 -0.0189596 2.21589e-17)
(1.09435 0.0354624 -1.5434e-17)
(0.811349 0.205579 3.43891e-21)
(0.806623 0.208712 -1.26934e-20)
(0.80199 0.212148 5.97374e-21)
(0.795009 0.216281 -1.21868e-19)
(0.784633 0.21884 2.46579e-19)
(0.769358 0.217978 -3.68941e-19)
(0.74795 0.210279 7.061e-19)
(0.718861 0.187303 -5.91418e-18)
(0.681906 0.122663 1.20255e-17)
(0.673202 0.00480423 8.05456e-19)
(0.740499 -0.114958 1.97323e-17)
(0.887146 -0.166135 -2.54776e-18)
(1.05064 -0.118919 1.94785e-17)
(1.13776 -0.00861044 -1.72857e-17)
(1.09736 0.0395918 1.74078e-17)
(0.799474 0.210439 3.73137e-21)
(0.794882 0.214165 -2.76083e-20)
(0.790267 0.21853 -3.49481e-20)
(0.78288 0.223694 2.8738e-19)
(0.7715 0.227186 -2.51421e-19)
(0.754518 0.22713 4.8526e-19)
(0.730474 0.219257 -1.20183e-18)
(0.697773 0.193641 9.36656e-19)
(0.657497 0.118353 3.30159e-18)
(0.656479 -0.0154334 3.41851e-17)
(0.745724 -0.134907 -2.64781e-18)
(0.910203 -0.169054 8.82761e-20)
(1.07521 -0.107058 1.59431e-17)
(1.15094 0.00362248 -2.08969e-17)
(1.09829 0.0427142 -7.64399e-18)
(0.787095 0.21498 7.3705e-21)
(0.782783 0.219405 -4.09231e-21)
(0.778309 0.224963 -1.09589e-20)
(0.770536 0.231503 2.96132e-20)
(0.7581 0.236301 2.44148e-19)
(0.739163 0.237149 4.50287e-19)
(0.712139 0.229417 2.43148e-19)
(0.675563 0.200289 2.73107e-18)
(0.632982 0.112734 -5.6566e-18)
(0.643502 -0.0358374 -5.13577e-17)
(0.758088 -0.149836 2.53798e-17)
(0.938449 -0.163597 -2.21443e-18)
(1.10109 -0.0885151 -4.76768e-17)
(1.16318 0.01751 3.46794e-17)
(1.09914 0.0465795 -4.95251e-18)
(0.774305 0.219023 -3.91733e-21)
(0.770437 0.224393 -2.41533e-20)
(0.766207 0.23154 2.46401e-20)
(0.758086 0.239777 -1.63634e-19)
(0.744485 0.246157 4.77251e-20)
(0.723393 0.248407 1.4217e-19)
(0.69292 0.240351 7.94213e-19)
(0.652443 0.206961 4.2769e-19)
(0.609391 0.106917 -2.93606e-18)
(0.636205 -0.0535855 6.74988e-18)
(0.779348 -0.154819 -2.82283e-17)
(0.972464 -0.14654 3.59245e-18)
(1.12819 -0.0625184 4.47566e-17)
(1.17417 0.0331819 -3.07678e-17)
(1.09715 0.0489176 6.08204e-18)
(0.761177 0.222457 -4.40989e-21)
(0.757885 0.228944 3.70305e-20)
(0.754015 0.238052 -1.00931e-19)
(0.745562 0.24848 1.14718e-19)
(0.730739 0.256901 -3.39997e-19)
(0.707307 0.260692 -3.19907e-20)
(0.672634 0.252043 -2.30448e-19)
(0.628717 0.213673 -3.38432e-18)
(0.588472 0.101808 5.03512e-18)
(0.637898 -0.063747 3.0416e-17)
(0.81249 -0.143867 3.37153e-17)
(1.01321 -0.113176 -6.24091e-18)
(1.15615 -0.0269539 -6.05578e-17)
(1.18361 0.050924 1.80117e-17)
(1.09488 0.0526235 -8.18624e-19)
(0.747647 0.22521 -6.75013e-21)
(0.745112 0.232973 -5.49381e-21)
(0.741745 0.244501 6.60782e-20)
(0.732986 0.257573 -6.36025e-20)
(0.716671 0.268313 -3.19862e-19)
(0.689883 0.273714 4.16505e-19)
(0.650882 0.264173 -2.35768e-18)
(0.605096 0.22066 2.2886e-18)
(0.571824 0.0992477 -2.47059e-18)
(0.652482 -0.0584265 7.33628e-18)
(0.86051 -0.105136 6.42104e-18)
(1.06176 -0.057224 2.72344e-19)
(1.18496 0.0199505 7.51351e-17)
(1.19113 0.0706286 1.51749e-17)
(1.08891 0.0525283 3.04986e-18)
(0.733659 0.226842 5.14631e-21)
(0.732073 0.236114 -3.5541e-21)
(0.729338 0.250597 -2.70495e-20)
(0.719957 0.267129 7.29616e-20)
(0.701439 0.281393 2.39199e-19)
(0.671278 0.288624 -9.06826e-19)
(0.628046 0.277 5.66014e-19)
(0.581087 0.226631 -8.1939e-19)
(0.561164 0.101068 -6.55994e-18)
(0.688227 -0.0213371 1.69226e-17)
(0.931872 -0.0192721 -5.49033e-17)
(1.12233 0.0370033 -6.99471e-18)
(1.21506 0.0835672 -3.68193e-17)
(1.19626 0.0926007 -3.40218e-17)
(1.08184 0.054615 -1.55004e-18)
(0.719128 0.226865 8.70726e-22)
(0.718646 0.237914 1.86406e-22)
(0.716341 0.256353 -2.09977e-20)
(0.706194 0.277886 8.18485e-20)
(0.685035 0.296487 1.03677e-20)
(0.650273 0.304961 7.3023e-19)
(0.604014 0.289203 5.25602e-19)
(0.560011 0.232864 5.9683e-20)
(0.562644 0.118947 7.68953e-18)
(0.756934 0.0761175 -6.0877e-17)
(1.02888 0.141088 3.80841e-17)
(1.19585 0.183583 2.51426e-17)
(1.24627 0.16947 -3.92862e-18)
(1.19818 0.116147 1.47854e-17)
(1.06984 0.0506522 6.2313e-19)
(0.704004 0.224634 1.61981e-21)
(0.704564 0.238098 -7.44177e-21)
(0.702719 0.261533 2.6534e-20)
(0.69089 0.289551 -4.28176e-20)
(0.666541 0.314249 -5.02803e-20)
(0.629291 0.323502 -4.64976e-20)
(0.587182 0.307069 -7.82387e-19)
(0.53527 0.246318 -1.99885e-18)
(0.578505 0.19105 7.27642e-18)
(0.876633 0.293013 -2.28228e-17)
(1.16775 0.425975 -1.74755e-17)
(1.28404 0.409506 -2.49448e-17)
(1.27386 0.279342 -4.61851e-17)
(1.19461 0.140191 -9.87672e-18)
(1.05534 0.0475228 4.65481e-19)
(0.688571 0.219322 1.26086e-20)
(0.690351 0.235518 -6.01711e-21)
(0.688324 0.266164 3.0676e-21)
(0.675547 0.304026 -1.27302e-19)
(0.648299 0.333937 -3.30284e-20)
(0.61392 0.343468 1.66921e-19)
(0.569803 0.334599 1.28693e-18)
(0.508587 0.296363 1.64088e-18)
(0.639318 0.309643 -1.22173e-17)
(1.01311 0.507065 1.43171e-17)
(1.30996 0.727964 2.67176e-19)
(1.36988 0.666819 2.43411e-18)
(1.28934 0.396643 3.73324e-17)
(1.1816 0.159399 2.05114e-17)
(1.03448 0.031864 -4.58275e-19)
(0.673256 0.208953 4.22659e-21)
(0.675429 0.22913 6.75018e-21)
(0.671102 0.268784 -8.42087e-20)
(0.655285 0.317183 3.05987e-19)
(0.623569 0.350324 1.1122e-20)
(0.6041 0.370177 4.93907e-19)
(0.563627 0.37661 4.80211e-19)
(0.551134 0.349947 -1.98147e-20)
(0.750845 0.39127 4.17714e-18)
(1.07176 0.507705 -9.54115e-18)
(1.37434 0.845508 -2.73559e-18)
(1.41234 0.838356 -1.1307e-17)
(1.28361 0.474402 2.35647e-17)
(1.16001 0.167428 -4.13702e-18)
(1.0126 0.0199363 5.41372e-19)
(0.658361 0.193518 -1.86273e-20)
(0.657383 0.218648 3.36868e-20)
(0.645402 0.267744 1.81695e-19)
(0.616636 0.327109 -1.89775e-19)
(0.58822 0.352574 1.48108e-19)
(0.603985 0.399475 4.35862e-20)
(0.587944 0.422548 2.39021e-18)
(0.668216 0.384686 2.45093e-18)
(0.85747 0.402305 -2.56401e-18)
(1.11443 0.456114 5.20359e-17)
(1.39319 0.854481 6.16725e-18)
(1.40264 0.858164 2.56132e-17)
(1.25799 0.48437 -3.06428e-18)
(1.13449 0.155386 -1.54391e-17)
(0.995978 -0.0102239 -3.47347e-18)
(0.648075 0.171615 1.16886e-19)
(0.634081 0.210679 -2.7675e-20)
(0.616747 0.29083 -6.85883e-20)
(0.62392 0.377754 -8.22239e-19)
(0.616018 0.382008 8.19209e-19)
(0.78339 0.516377 -5.06441e-18)
(0.725166 0.495892 -2.74664e-18)
(0.807251 0.41235 -9.18768e-18)
(0.924118 0.327821 1.86123e-18)
(1.12803 0.303884 -1.29377e-17)
(1.36422 0.718224 8.8289e-18)
(1.34504 0.718671 -1.32724e-18)
(1.20952 0.397634 9.50393e-18)
(1.10747 0.116781 9.4215e-18)
(0.983658 -0.0537615 -3.41776e-18)
(0.668447 0.134592 -1.10056e-19)
(0.618485 0.193758 3.3415e-20)
(0.617816 0.305444 1.36242e-19)
(0.523304 0.319706 1.57193e-18)
(0.546619 0.349565 -2.78837e-20)
(0.849352 0.541476 4.78032e-18)
(0.895424 0.597355 -1.41995e-17)
(0.88842 0.387498 4.60347e-18)
(0.98516 0.185177 2.338e-19)
(1.1552 0.0242901 -6.45816e-19)
(1.31883 0.402688 8.21681e-18)
(1.25688 0.371614 -1.28818e-17)
(1.14083 0.187883 -5.51437e-18)
(1.07614 0.0324499 -5.21131e-18)
(0.972655 -0.123787 8.98283e-18)
(0.561636 0.0563366 -2.25291e-19)
(0.54656 0.078383 -1.99634e-19)
(0.490897 0.184678 -5.19907e-20)
(0.477696 0.136466 4.08956e-19)
(0.441871 0.0993143 -4.09897e-18)
(0.784035 0.406769 -8.93449e-19)
(0.996158 0.632106 -1.81683e-17)
(0.89757 0.321392 -1.93784e-18)
(1.03476 -0.010887 -2.3634e-19)
(1.22078 -0.318804 1.20872e-18)
(1.30376 0.00920698 1.53746e-18)
(1.18202 -0.0346067 -1.12273e-17)
(1.06918 -0.134591 -3.08058e-17)
(1.04167 -0.110452 9.28166e-19)
(0.959558 -0.227774 -1.45154e-18)
(0.307101 -0.0360674 1.53855e-19)
(0.172961 -0.0890634 -2.97607e-20)
(0.206026 -0.0794948 -3.14278e-20)
(0.352733 -0.176278 1.39307e-18)
(0.416036 -0.172941 6.13676e-18)
(0.743995 0.199425 -1.18769e-17)
(0.946249 0.359256 9.6015e-18)
(0.654555 0.168382 2.37116e-17)
(0.92569 -0.236677 -1.64186e-18)
(1.21695 -0.611853 -9.29747e-19)
(1.26981 -0.349986 -1.66489e-17)
(1.09678 -0.511399 -3.08752e-18)
(1.00875 -0.550729 4.05296e-17)
(1.00884 -0.324145 -1.76461e-18)
(0.945099 -0.360104 6.77219e-18)
(-0.0236292 -0.160759 1.49861e-19)
(-0.154614 -0.188167 3.95075e-19)
(-0.0486619 -0.271258 3.57767e-19)
(0.22327 -0.40979 -9.44031e-19)
(0.487565 -0.310173 -6.56054e-18)
(0.657241 -0.104399 4.74389e-17)
(0.680131 -0.240395 1.73623e-17)
(0.0020849 -0.600311 -3.08308e-17)
(0.576733 -0.578907 1.81645e-18)
(0.855446 -1.1022 8.52175e-19)
(1.13172 -0.821204 2.61316e-18)
(1.02607 -0.942164 2.60415e-17)
(0.993348 -0.85687 -3.27587e-17)
(0.991855 -0.52864 1.78012e-18)
(0.92929 -0.491578 -4.83303e-18)
(-0.509852 -0.269041 4.78122e-19)
(-0.481343 -0.339387 -1.4951e-18)
(-0.309448 -0.403242 -3.19126e-19)
(0.204795 -0.501985 1.014e-18)
(0.48569 -0.332094 6.32222e-18)
(-0.0528457 -0.647378 -4.50178e-17)
(0.0174202 -1.07714 4.82934e-18)
(-0.842868 -1.55439 1.83431e-17)
(0.0287998 -1.16446 9.75185e-18)
(0.311601 -1.67901 -1.19496e-18)
(0.871455 -1.32768 7.25828e-20)
(0.908342 -1.31998 -1.98511e-17)
(0.940845 -1.06985 3.03402e-17)
(0.962444 -0.69194 -9.86118e-19)
(0.896488 -0.597942 -1.06112e-18)
(-0.752366 0.0707848 -4.66553e-19)
(-0.79701 -0.235903 9.7247e-19)
(-0.502721 -0.43534 -1.35135e-18)
(0.102791 -0.546272 -3.31179e-18)
(-0.162242 -0.634055 -5.39103e-18)
(-2.25242 -1.88784 1.87046e-17)
(-1.0613 -2.0698 -7.53069e-18)
(-3.13292 -4.62496 -1.52794e-17)
(-1.07322 -2.71918 3.49213e-18)
(-0.254356 -2.4139 3.565e-18)
(0.476034 -1.86002 -3.00211e-19)
(0.680429 -1.65417 4.52955e-18)
(0.80066 -1.25366 -2.6483e-17)
(0.888377 -0.808191 8.73768e-19)
(0.819647 -0.65075 -3.15723e-18)
(-0.322993 0.632864 1.12712e-19)
(-0.737 0.308484 8.69072e-19)
(-0.804671 -0.182896 1.37476e-18)
(-0.598178 -0.550249 1.64611e-18)
(-1.95529 -1.32246 1.62057e-18)
(-9.54629 -6.58966 -7.27423e-17)
(-1.43368 -2.44212 -9.8011e-18)
(-3.52213 -6.50798 5.25618e-17)
(-1.64996 -4.27169 -9.79904e-18)
(-0.38158 -2.67589 -1.46456e-19)
(0.155112 -2.08029 -7.51347e-19)
(0.474407 -1.68103 1.37489e-17)
(0.619102 -1.21618 1.02737e-17)
(0.74825 -0.791279 -8.63906e-19)
(0.661448 -0.593246 -2.92213e-18)
(0.0676516 1.00505 -8.40751e-20)
(-0.508121 0.798525 -5.48114e-19)
(-1.13128 0.13084 -1.23846e-18)
(-1.84784 -0.775194 -2.63162e-19)
(-3.91087 -2.74507 -1.72084e-18)
(-4.92962 -4.45546 4.99655e-17)
(-1.26147 -2.33463 6.55424e-19)
(-0.917018 -3.35342 -1.45935e-17)
(-0.669395 -3.7082 -1.09794e-17)
(-0.184879 -2.41808 -1.70308e-17)
(0.128326 -1.61714 9.96732e-19)
(0.379747 -1.15055 -1.30522e-17)
(0.411604 -0.777871 9.33536e-18)
(0.491542 -0.53596 -2.40327e-19)
(0.391211 -0.397308 -6.58735e-19)
(0.146168 1.08592 1.73738e-20)
(-0.267594 1.07965 -1.43357e-19)
(-1.26035 0.390639 -2.39638e-19)
(-2.43237 -0.763139 -4.85595e-19)
(-3.63871 -2.18441 -3.90882e-18)
(-4.42816 -3.56617 -1.32254e-16)
(-1.06292 -2.23023 4.10639e-17)
(-0.445118 -2.32201 2.90622e-17)
(-0.0550411 -2.44952 6.80934e-18)
(-0.0607163 -1.62921 2.73085e-17)
(0.0542992 -0.765604 -7.29657e-18)
(0.183541 -0.410636 8.38922e-18)
(0.135601 -0.211279 -8.71484e-17)
(0.13665 -0.141935 -1.02591e-18)