/*--------------------------------*- C++ -*----------------------------------*\
  =========                 |
  \\      /  F ield         | OpenFOAM: The Open Source CFD Toolbox
   \\    /   O peration     | Website:  https://openfoam.org
    \\  /    A nd           | Version:  6.0
     \\/     M anipulation  |
\*---------------------------------------------------------------------------*/
FoamFile
{
    version     2.0;
    format      ascii;
    class       surfaceScalarField;
    location    "12";
    object      phi;
}
// * * * * * * * * * * * * * * * * * * * * * * * * * * * * * * * * * * * * * //

dimensions      [0 3 -1 0 0 0 0];

internalField   nonuniform List<scalar> 
9714
(
-0.000106882
8.23638e-05
0.000112837
-9.85679e-05
0.000114495
-8.69372e-05
0.000159167
-7.07602e-05
0.000221281
-4.80839e-05
0.000307578
-1.62839e-05
0.000427411
2.84905e-05
0.000593565
9.14446e-05
0.000823353
0.000179638
0.00113901
0.000302251
0.00156607
0.000470132
0.002125
0.000693313
0.00280284
0.000971742
0.00347464
0.00127089
0.0037063
0.00233388
0.00144305
-0.000100893
7.67843e-05
0.000106411
-9.31763e-05
0.000106736
-8.23837e-05
0.000148366
-6.73618e-05
0.000206229
-4.63165e-05
0.000286526
-1.67967e-05
0.000397878
2.47359e-05
0.000552019
8.31244e-05
0.000764959
0.000164907
0.00105723
0.000278585
0.0014524
0.000434189
0.00196939
0.000640979
0.00259603
0.000898811
0.00321679
0.00117364
0.00343135
0.00216883
0.00133773
-9.51829e-05
7.16163e-05
0.000100301
-8.80335e-05
9.95482e-05
-7.80309e-05
0.000138357
-6.41097e-05
0.000192281
-4.46052e-05
0.000267016
-1.7247e-05
0.000370508
2.1241e-05
0.000513519
7.5342e-05
0.000710855
0.000151108
0.00098147
0.000256423
0.0013471
0.000400575
0.00182523
0.000592136
0.00240443
0.000831042
0.00297787
0.00108628
0.00317619
0.00201252
0.00124312
-8.97141e-05
6.68324e-05
9.44381e-05
-8.30966e-05
9.28928e-05
-7.38382e-05
0.000129088
-6.09444e-05
0.000179362
-4.28794e-05
0.000248944
-1.75376e-05
0.000345157
1.81082e-05
0.000477861
6.82093e-05
0.00066075
0.000138375
0.000911313
0.000235905
0.00124957
0.000369426
0.00169171
0.000546873
0.00222698
0.000768328
0.00275645
0.00100551
0.00293903
0.00186468
0.00115281
-8.44117e-05
6.24082e-05
8.87912e-05
-7.82901e-05
8.67387e-05
-6.97253e-05
0.000120518
-5.78001e-05
0.000167415
-4.10891e-05
0.000232229
-1.76427e-05
0.0003217
1.53478e-05
0.000444861
6.1723e-05
0.000614373
0.000126671
0.000846365
0.000216969
0.00115929
0.000340603
0.00156806
0.00050494
0.00206261
0.000710149
0.00255124
0.000930288
0.00271897
0.00172803
0.0010675
-7.93848e-05
5.83135e-05
8.34211e-05
-7.37209e-05
8.10438e-05
-6.58032e-05
0.000112588
-5.47705e-05
0.000156361
-3.93135e-05
0.000216764
-1.76242e-05
0.000300002
1.28943e-05
0.00041433
5.57988e-05
0.000571462
0.000115903
0.000786271
0.000199467
0.00107572
0.000313916
0.00145362
0.00046608
0.00191046
0.000656158
0.00236124
0.000860381
0.00251489
0.00159974
0.000988419
-7.46584e-05
5.45236e-05
7.84117e-05
-6.94143e-05
7.57765e-05
-6.20918e-05
0.000105256
-5.18925e-05
0.000146143
-3.76046e-05
0.00020247
-1.75543e-05
0.00027994
1.06684e-05
0.000386097
5.03563e-05
0.00053177
0.000105957
0.000730667
0.000183289
0.000998403
0.000289217
0.00134768
0.000430097
0.00176953
0.00060613
0.00218517
0.000795534
0.00232553
0.00148027
0.000915525
-7.03673e-05
5.10076e-05
7.38178e-05
-6.55089e-05
7.08918e-05
-5.87325e-05
9.84598e-05
-4.92854e-05
0.000136677
-3.60602e-05
0.000189234
-1.75054e-05
0.000261375
8.6033e-06
0.000359975
4.53176e-05
0.000495048
9.67672e-05
0.000679225
0.00016832
0.000926835
0.000266368
0.00124964
0.000396808
0.00163912
0.000559852
0.00202225
0.00073548
0.00215016
0.0013676
0.000848079
-6.64203e-05
4.77494e-05
6.9652e-05
-6.19105e-05
6.63685e-05
-5.56312e-05
9.21708e-05
-4.68875e-05
0.00012792
-3.46517e-05
0.000176991
-1.74883e-05
0.000244199
6.66913e-06
0.000335805
4.06451e-05
0.000461066
8.82491e-05
0.000631609
0.000154485
0.000860617
0.000245246
0.00115886
0.000366039
0.00151827
0.000517081
0.00187117
0.000679889
0.00198734
0.00126237
0.000785449
-6.28984e-05
4.47197e-05
6.58528e-05
-5.87158e-05
6.21622e-05
-5.28933e-05
8.6325e-05
-4.47776e-05
0.000119787
-3.34306e-05
0.000165631
-1.75242e-05
0.00022828
4.8463e-06
0.000313419
3.62973e-05
0.000429602
8.03756e-05
0.000587536
0.000141683
0.000799283
0.000225723
0.00107482
0.000337609
0.00140643
0.000477571
0.00173138
0.000628467
0.00183677
0.00116361
0.000727173
-5.96103e-05
4.19121e-05
6.23866e-05
-5.57258e-05
5.82656e-05
-5.0327e-05
8.09115e-05
-4.28105e-05
0.000112255
-3.23026e-05
0.00015511
-1.75741e-05
0.000213535
3.14383e-06
0.000292686
3.22736e-05
0.000400462
7.30798e-05
0.00054671
0.000129865
0.00074251
0.000207697
0.000996957
0.000311355
0.0013027
0.00044108
0.00160158
0.000580885
0.00169687
0.00107161
0.000672929
-5.66378e-05
3.93001e-05
5.91586e-05
-5.30378e-05
5.46386e-05
-4.80311e-05
7.58735e-05
-4.10481e-05
0.000105251
-3.12936e-05
0.000145338
-1.76301e-05
0.000199855
1.57084e-06
0.000273467
2.85524e-05
0.000373462
6.63609e-05
0.0005089
0.000118946
0.000689884
0.000191052
0.000924848
0.000287114
0.00120669
0.000407386
0.00148152
0.000536885
0.00156769
0.000985819
0.000622501
-5.37854e-05
3.68807e-05
5.61495e-05
-5.04428e-05
5.12796e-05
-4.58019e-05
7.12084e-05
-3.93334e-05
9.87648e-05
-3.02984e-05
0.000136285
-1.76422e-05
0.000187179
1.45061e-07
0.000255659
2.51465e-05
0.000348445
6.01616e-05
0.000473852
0.000108896
0.000641151
0.000175706
0.000857993
0.00026475
0.00111757
0.000376277
0.00136989
0.000496182
0.00144764
0.000905839
0.000575679
-5.11589e-05
3.46316e-05
5.32951e-05
-4.80641e-05
4.81548e-05
-4.3762e-05
6.68682e-05
-3.77536e-05
9.27328e-05
-2.93655e-05
0.000127874
-1.76239e-05
0.000175413
-1.13418e-06
0.000239144
2.20288e-05
0.000325254
5.44866e-05
0.000441383
9.96359e-05
0.000595963
0.000161559
0.000796057
0.00024412
0.00103507
0.000347568
0.00126668
0.000458549
0.00133686
0.000831861
0.000532274
-4.85912e-05
3.25505e-05
5.05997e-05
-4.57185e-05
4.52639e-05
-4.17328e-05
6.28529e-05
-3.61726e-05
8.71501e-05
-2.84078e-05
0.000120085
-1.7535e-05
0.000164513
-2.25886e-06
0.000223841
1.92103e-05
0.000303768
4.92831e-05
0.000411289
9.11365e-05
0.000554105
0.000148543
0.000738613
0.00022511
0.000958416
0.000321075
0.00117056
0.000423755
0.00123369
0.000762613
0.00049205
-4.61993e-05
3.06182e-05
4.80201e-05
-4.3539e-05
4.25774e-05
-3.98495e-05
5.91204e-05
-3.46869e-05
8.1962e-05
-2.74827e-05
0.000112852
-1.73988e-05
0.0001544
-3.23094e-06
0.000209657
1.66639e-05
0.000283854
4.45379e-05
0.0003834
8.33282e-05
0.000515286
0.000136562
0.00068537
0.000207594
0.000887436
0.00029664
0.00108172
0.00039161
0.00113874
0.000699198
0.000454842
-4.38741e-05
2.88296e-05
4.55634e-05
-4.1404e-05
4.00909e-05
-3.79911e-05
5.56656e-05
-3.32076e-05
7.71583e-05
-2.65363e-05
0.000106152
-1.71844e-05
0.000145031
-4.06376e-06
0.000196507
1.43743e-05
0.000265394
4.0208e-05
0.000357544
7.61787e-05
0.0004793
0.000125559
0.000635949
0.000191479
0.000821414
0.000274111
0.000998849
0.000361914
0.00105021
0.000639602
0.00042041
-4.16662e-05
2.71698e-05
4.32097e-05
-3.93719e-05
3.77823e-05
-3.62105e-05
5.24577e-05
-3.17731e-05
7.26991e-05
-2.55805e-05
9.99355e-05
-1.6926e-05
0.000136338
-4.75972e-06
0.000184318
1.23245e-05
0.00024828
3.62709e-05
0.000333564
6.96273e-05
0.000445902
0.000115451
0.000590104
0.000176651
0.000760243
0.000253352
0.000922334
0.0003345
0.000968966
0.000585627
0.000388606
-3.95483e-05
2.56289e-05
4.09719e-05
-3.74153e-05
3.56401e-05
-3.44884e-05
4.94832e-05
-3.03724e-05
6.85662e-05
-2.46373e-05
9.41752e-05
-1.66068e-05
0.000128287
-5.34253e-06
0.000173017
1.04877e-05
0.00023241
3.26911e-05
0.000311324
6.36445e-05
0.000414922
0.00010619
0.000547523
0.000163037
0.000703263
0.000234231
0.000850782
0.000309196
0.000892932
0.000534413
0.000359181
-3.75372e-05
2.4201e-05
3.88585e-05
-3.55524e-05
3.36542e-05
-3.28403e-05
4.67251e-05
-2.90234e-05
6.47332e-05
-2.37024e-05
8.88328e-05
-1.62656e-05
0.000120818
-5.8234e-06
0.00016254
8.85441e-06
0.000217697
2.94464e-05
0.000290682
5.81798e-05
0.000386143
9.7699e-05
0.000507961
0.000150534
0.000650412
0.000216631
0.000784842
0.000285862
0.000823552
0.000488727
0.000332023
-3.56503e-05
2.28699e-05
3.68354e-05
-3.38065e-05
3.18033e-05
-3.12929e-05
4.41566e-05
-2.77431e-05
6.11675e-05
-2.28016e-05
8.38686e-05
-1.58968e-05
0.000113885
-6.20896e-06
0.000152821
7.39395e-06
0.000204037
2.65075e-05
0.000271525
5.32009e-05
0.000359421
8.99426e-05
0.000471175
0.000139088
0.000601111
0.000200437
0.000723061
0.00026434
0.000758368
0.000445165
0.0003069
-3.38078e-05
2.16396e-05
3.49406e-05
-3.20849e-05
3.00921e-05
-2.97556e-05
4.17809e-05
-2.64658e-05
5.78672e-05
-2.18873e-05
7.9271e-05
-1.54868e-05
0.00010746
-6.51863e-06
0.000143805
6.10747e-06
0.000191372
2.38534e-05
0.000253727
4.86656e-05
0.000334547
8.28514e-05
0.000436922
0.000128602
0.000555311
0.000185541
0.000666301
0.000244512
0.000699324
0.000406739
0.000283711
-3.21162e-05
2.04884e-05
3.31238e-05
-3.05121e-05
2.84915e-05
-2.83467e-05
3.95623e-05
-2.52826e-05
5.47909e-05
-2.10217e-05
7.49935e-05
-1.50851e-05
0.000101491
-6.75089e-06
0.000135439
4.95799e-06
0.000179597
2.14502e-05
0.000237185
4.45475e-05
0.000311424
7.63985e-05
0.00040503
0.000119036
0.000512488
0.000171841
0.000612949
0.00022623
0.000643596
0.000369858
0.000262248
-3.04521e-05
1.94284e-05
3.14445e-05
-2.89504e-05
2.70175e-05
-2.69468e-05
3.75169e-05
-2.411e-05
5.19494e-05
-2.01659e-05
7.10341e-05
-1.46558e-05
9.59565e-05
-6.94143e-06
0.000127664
3.9495e-06
0.000168674
1.92885e-05
0.000221783
4.08108e-05
0.000289837
7.05217e-05
0.000375216
0.000110297
0.000472625
0.000159245
0.000564227
0.0002094
0.000593489
0.000337645
0.000242428
-2.89765e-05
1.84277e-05
2.98073e-05
-2.75839e-05
2.56262e-05
-2.5716e-05
3.55907e-05
-2.30626e-05
4.92826e-05
-1.93778e-05
6.73325e-05
-1.42589e-05
9.07968e-05
-7.05949e-06
0.000120446
3.0427e-06
0.000158484
1.73387e-05
0.000207442
3.74316e-05
0.000269725
6.52082e-05
0.000347418
0.000102355
0.000435265
0.000147655
0.000518322
0.000193884
0.000545921
0.000306472
0.00022408
-2.74698e-05
1.75117e-05
2.83175e-05
-2.61636e-05
2.43513e-05
-2.44389e-05
3.38213e-05
-2.19867e-05
4.68241e-05
-1.85776e-05
6.3908e-05
-1.38109e-05
8.60146e-05
-7.16152e-06
0.000113718
2.26513e-06
0.00014903
1.55948e-05
0.000194042
3.4389e-05
0.000250863
6.03962e-05
0.000321263
9.51173e-05
0.00040044
0.00013699
0.000476764
0.00017961
0.000503474
0.000279572
0.000207143
-2.61694e-05
1.66347e-05
2.68386e-05
-2.4951e-05
2.31322e-05
-2.33325e-05
3.21386e-05
-2.10244e-05
4.45035e-05
-1.7827e-05
6.06982e-05
-1.3406e-05
8.15481e-05
-7.18429e-06
0.000107475
1.56321e-06
0.000140176
1.40333e-05
0.000181538
3.16601e-05
0.00023327
5.60898e-05
0.000296845
8.85597e-05
0.000367751
0.000127158
0.000437461
0.000166455
0.000462917
0.000253594
0.000191473
-2.47453e-05
1.58458e-05
2.55377e-05
-2.35949e-05
2.20355e-05
-2.21065e-05
3.06172e-05
-1.99964e-05
4.23871e-05
-1.7057e-05
5.77455e-05
-1.29479e-05
7.74169e-05
-7.2102e-06
0.000101645
9.83228e-07
0.000131972
1.26589e-05
0.000169811
2.92294e-05
0.00021664
5.22249e-05
0.00027365
8.25836e-05
0.000337266
0.000118094
0.000402357
0.000154362
0.000426905
0.000231255
0.000176976
-2.36174e-05
1.50751e-05
2.41743e-05
-2.25569e-05
2.0965e-05
-2.11519e-05
2.9144e-05
-1.91482e-05
4.03621e-05
-1.63743e-05
5.49539e-05
-1.2547e-05
7.35431e-05
-7.14985e-06
9.62406e-05
4.59471e-07
0.000124252
1.14401e-05
0.000158865
2.70801e-05
0.000201135
4.88143e-05
0.000251955
7.71676e-05
0.000308654
0.000109714
0.000369004
0.000143224
0.000392157
0.000209874
0.000163525
-2.23253e-05
1.43841e-05
2.29882e-05
-2.13272e-05
2.00038e-05
-2.00367e-05
2.78123e-05
-1.8205e-05
3.85136e-05
-1.56431e-05
5.23858e-05
-1.20705e-05
6.99639e-05
-7.10181e-06
9.11865e-05
6.66465e-08
0.000117144
1.03889e-05
0.000148512
2.5188e-05
0.000186239
4.57855e-05
0.000231077
7.22098e-05
0.000282075
0.000101972
0.000339733
0.000133004
0.000361403
0.000191486
0.000151105
-2.12897e-05
1.37031e-05
2.17455e-05
-2.03576e-05
1.90588e-05
-1.91253e-05
2.65184e-05
-1.73686e-05
3.67473e-05
-1.49492e-05
4.99663e-05
-1.16298e-05
6.66219e-05
-6.94077e-06
8.65374e-05
-3.0925e-07
0.000110393
9.46236e-06
0.000138862
2.35552e-05
0.000172405
4.31583e-05
0.000211624
6.76852e-05
0.000257284
9.47878e-05
0.000311738
0.000123595
0.000331518
0.000174524
0.000139647
-2.00658e-05
1.30957e-05
2.06521e-05
-1.91782e-05
1.82155e-05
-1.80387e-05
2.53559e-05
-1.64392e-05
3.51421e-05
-1.42056e-05
4.77502e-05
-1.11073e-05
6.35469e-05
-6.8257e-06
8.21788e-05
-5.43806e-07
0.000104248
8.68458e-06
0.000129566
2.21514e-05
0.000158735
4.08408e-05
0.000192542
6.34889e-05
0.000234442
8.81355e-05
0.000287635
0.000114969
0.000304921
0.000159448
0.000129074
-1.90404e-05
1.24952e-05
1.94849e-05
-1.82027e-05
1.73856e-05
-1.71125e-05
2.42274e-05
-1.55834e-05
3.3611e-05
-1.34829e-05
4.56643e-05
-1.0623e-05
6.06761e-05
-6.57957e-06
7.81601e-05
-8.2531e-07
9.81557e-05
8.01067e-06
0.000120864
2.09937e-05
0.000146047
3.88541e-05
0.000174828
5.9605e-05
0.000213349
8.19535e-05
0.000264246
0.000107043
0.000278845
0.000146364
0.000119359
-1.78699e-05
1.19574e-05
1.84421e-05
-1.70804e-05
1.66395e-05
-1.60791e-05
2.32017e-05
-1.46793e-05
3.21993e-05
-1.27348e-05
4.3724e-05
-1.00989e-05
5.79431e-05
-6.47304e-06
7.42258e-05
-9.10015e-07
9.26811e-05
7.46652e-06
0.000112109
2.00301e-05
0.000132954
3.70909e-05
0.000157172
5.59419e-05
0.000194193
7.62383e-05
0.000244452
9.97856e-05
0.000255411
0.000134029
0.000110387
-1.69227e-05
1.14046e-05
1.73153e-05
-1.61839e-05
1.58752e-05
-1.52148e-05
2.21654e-05
-1.38545e-05
3.07999e-05
-1.21005e-05
4.17912e-05
-9.63498e-06
5.53391e-05
-6.14401e-06
7.06006e-05
-1.1042e-06
8.69029e-05
7.03776e-06
0.000104083
1.93076e-05
0.000121041
3.5563e-05
0.000141184
5.24907e-05
0.000176959
7.09272e-05
0.000224945
9.31293e-05
0.000232494
0.000124327
0.000102204
-1.58139e-05
1.09028e-05
1.63187e-05
-1.51525e-05
1.51726e-05
-1.42415e-05
2.12005e-05
-1.30849e-05
2.94663e-05
-1.13139e-05
4.0036e-05
-9.08345e-06
5.28429e-05
-5.98604e-06
6.70271e-05
-9.80999e-07
8.21756e-05
6.73925e-06
9.56963e-05
1.87413e-05
0.000108116
3.41522e-05
0.00012501
4.91805e-05
0.00016148
6.60335e-05
0.000208456
8.70058e-05
0.000211464
0.000114242
9.46232e-05
-1.4921e-05
1.04025e-05
1.53111e-05
-1.4261e-05
1.44832e-05
-1.34108e-05
2.0274e-05
-1.21228e-05
2.82463e-05
-1.06502e-05
3.83182e-05
-8.51396e-06
5.05879e-05
-5.4544e-06
6.39338e-05
-1.06024e-06
7.67033e-05
6.56593e-06
8.82627e-05
1.83861e-05
9.66216e-05
3.28643e-05
0.000110976
4.60256e-05
0.000148058
6.15058e-05
0.000191851
8.14364e-05
0.000191103
0.000107554
8.77912e-05
-1.39072e-05
9.94471e-06
1.44027e-05
-1.32919e-05
1.38463e-05
-1.24204e-05
1.94135e-05
-1.13693e-05
2.70651e-05
-9.79354e-06
3.67957e-05
-7.8402e-06
4.83766e-05
-5.20691e-06
6.0795e-05
-7.35288e-07
7.27399e-05
6.48651e-06
7.99189e-05
1.81376e-05
8.35585e-05
3.15927e-05
9.65725e-05
4.29918e-05
0.000135963
5.73722e-05
0.000177557
7.62495e-05
0.000171986
9.94265e-05
8.14054e-05
-1.30598e-05
9.48193e-06
1.34798e-05
-1.24305e-05
1.32106e-05
-1.16115e-05
1.85624e-05
-1.04483e-05
2.59414e-05
-9.11204e-06
3.52051e-05
-7.13705e-06
4.64142e-05
-4.54992e-06
5.80824e-05
-7.06481e-07
6.74723e-05
6.55192e-06
7.30814e-05
1.80389e-05
7.26676e-05
3.03452e-05
8.50641e-05
4.01e-05
0.000126093
5.35646e-05
0.000163011
7.16144e-05
0.000153831
9.46002e-05
7.57525e-05
-1.21612e-05
9.02993e-06
1.26013e-05
-1.15862e-05
1.25749e-05
-1.07567e-05
1.77046e-05
-9.73205e-06
2.47808e-05
-8.14611e-06
3.37895e-05
-6.42882e-06
4.42926e-05
-4.18895e-06
5.54852e-05
-1.65023e-07
6.43682e-05
6.6776e-06
6.47876e-05
1.79737e-05
5.9649e-05
2.90464e-05
7.30167e-05
3.73524e-05
0.000116818
5.01183e-05
0.000149966
6.71247e-05
0.00013646
8.81569e-05
7.03643e-05
-1.14123e-05
8.5427e-06
1.1714e-05
-1.07989e-05
1.18991e-05
-9.96549e-06
1.6812e-05
-8.72697e-06
2.3646e-05
-7.42624e-06
3.22162e-05
-5.53224e-06
4.26251e-05
-3.45316e-06
5.32466e-05
2.01593e-08
5.91506e-05
6.90644e-06
5.88179e-05
1.79475e-05
4.97497e-05
2.77153e-05
6.4614e-05
3.47585e-05
0.000109951
4.69565e-05
0.000136796
6.32863e-05
0.000120449
8.48786e-05
6.57349e-05
-1.05076e-05
8.06891e-06
1.09368e-05
-9.87341e-06
1.12341e-05
-8.96926e-06
1.59293e-05
-7.86126e-06
2.24849e-05
-6.26707e-06
3.08866e-05
-4.82589e-06
4.07872e-05
-3.11619e-06
5.14338e-05
8.38308e-07
5.6624e-05
7.18437e-06
5.09684e-05
1.79524e-05
3.72919e-05
2.63584e-05
5.54342e-05
3.23808e-05
0.00010284
4.41076e-05
0.000124483
5.92237e-05
0.000105045
8.01155e-05
6.11222e-05
-9.60842e-06
7.59461e-06
1.0161e-05
-8.91524e-06
1.05633e-05
-7.97011e-06
1.50365e-05
-6.6788e-06
2.13393e-05
-5.31026e-06
2.93891e-05
-3.86843e-06
3.98317e-05
-2.33441e-06
4.98023e-05
1.51722e-06
5.13991e-05
7.32259e-06
4.67941e-05
1.76227e-05
2.85864e-05
2.4875e-05
4.98649e-05
3.0177e-05
9.77223e-05
4.15167e-05
0.000112088
5.60084e-05
9.10241e-05
7.66915e-05
5.72835e-05
-8.7512e-06
7.09014e-06
9.39692e-06
-7.95924e-06
9.84402e-06
-6.90446e-06
1.40721e-05
-5.55227e-06
2.00983e-05
-3.8649e-06
2.80302e-05
-3.24329e-06
3.86757e-05
-1.76806e-06
4.89926e-05
2.86372e-06
4.86593e-05
7.12717e-06
4.14506e-05
1.70263e-05
1.75651e-05
2.31179e-05
4.34665e-05
2.8063e-05
9.17984e-05
3.9072e-05
0.000100319
5.21411e-05
7.80014e-05
7.35601e-05
5.32229e-05
-7.8867e-06
6.55659e-06
8.67617e-06
-6.99208e-06
9.0675e-06
-5.74811e-06
1.30187e-05
-4.22547e-06
1.86436e-05
-2.73998e-06
2.62366e-05
-2.50339e-06
3.92125e-05
-1.01345e-06
4.75718e-05
4.10069e-06
4.31555e-05
7.32009e-06
4.11414e-05
1.78626e-05
9.409e-06
2.28081e-05
4.05924e-05
2.66927e-05
8.83806e-05
3.67129e-05
8.92977e-05
4.8987e-05
6.63555e-05
6.92925e-05
4.97782e-05
-7.04374e-06
5.97212e-06
7.92526e-06
-5.97069e-06
8.18126e-06
-4.69729e-06
1.16952e-05
-2.99221e-06
1.692e-05
-1.39273e-06
2.4917e-05
-3.09554e-06
4.02075e-05
4.93031e-07
4.5339e-05
6.51219e-06
3.98098e-05
9.05943e-06
3.80774e-05
2.08488e-05
-2.78573e-06
2.44962e-05
3.71582e-05
2.71168e-05
8.5e-05
3.49917e-05
8.06506e-05
4.4796e-05
5.71687e-05
6.74262e-05
4.59133e-05
-6.23788e-06
5.28583e-06
7.23174e-06
-5.13483e-06
7.07442e-06
-3.3974e-06
1.0123e-05
-1.2613e-06
1.48035e-05
-6.30744e-07
2.4014e-05
-4.87052e-06
4.55432e-05
4.83816e-06
3.73831e-05
1.041e-05
3.41558e-05
1.34829e-05
3.80091e-05
2.43689e-05
-1.15549e-05
2.71706e-05
3.61492e-05
2.89851e-05
8.33322e-05
3.43869e-05
7.39722e-05
4.20071e-05
4.99889e-05
6.14061e-05
4.29033e-05
-5.44707e-06
4.47318e-06
6.54947e-06
-3.90199e-06
5.74059e-06
-1.75143e-06
7.97109e-06
1.27696e-06
1.18945e-05
-2.03523e-06
2.78172e-05
-9.24019e-07
4.51376e-05
1.57972e-05
2.21312e-05
1.63134e-05
3.58726e-05
1.87966e-05
3.45846e-05
2.67884e-05
-1.96354e-05
2.8905e-05
3.46466e-05
3.10286e-05
8.07092e-05
3.46641e-05
6.97658e-05
3.95117e-05
4.63918e-05
6.1241e-05
4.02622e-05
-4.54784e-06
3.45932e-06
5.89169e-06
-2.69247e-06
3.94583e-06
3.79329e-07
5.09647e-06
3.93844e-06
8.52961e-06
2.12017e-06
2.99736e-05
1.35312e-05
3.47443e-05
2.25164e-05
1.48338e-05
2.09471e-05
3.72632e-05
2.36996e-05
3.37328e-05
2.72771e-05
-2.20623e-05
2.95313e-05
3.35703e-05
3.23169e-05
7.73515e-05
3.46494e-05
6.56687e-05
3.79945e-05
4.28779e-05
5.42333e-05
3.83483e-05
-3.26017e-06
2.03977e-06
4.97992e-06
-5.80382e-07
1.39284e-06
3.65926e-06
9.57097e-07
6.75583e-06
5.54731e-06
1.23443e-05
2.54094e-05
2.14259e-05
2.68595e-05
2.31811e-05
1.31849e-05
2.36004e-05
3.70065e-05
2.49208e-05
3.24863e-05
2.57544e-05
-2.22622e-05
2.88154e-05
3.18479e-05
3.18583e-05
7.45821e-05
3.35181e-05
6.39837e-05
3.55468e-05
4.26372e-05
5.547e-05
3.58501e-05
-1.58598e-06
1.36093e-07
3.77679e-06
1.81201e-06
-1.9311e-06
6.63572e-06
-3.84754e-06
1.33235e-05
-5.31316e-07
2.59286e-05
1.29592e-05
2.57845e-05
2.6769e-05
2.26694e-05
1.8144e-05
2.82913e-05
3.21554e-05
3.03899e-05
3.02426e-05
2.37086e-05
-1.56342e-05
2.7005e-05
2.88067e-05
3.01278e-05
7.01566e-05
3.12401e-05
6.08699e-05
3.26271e-05
4.06558e-05
4.85487e-05
3.29677e-05
-6.6653e-07
-1.84717e-06
2.84019e-06
2.84368e-06
-5.39026e-06
8.76817e-06
-9.53918e-06
2.13645e-05
-1.35455e-05
3.35037e-05
1.58099e-06
2.45797e-05
3.70401e-05
2.6689e-05
1.54528e-05
3.74959e-05
2.00473e-05
3.55956e-05
3.45603e-05
2.36806e-05
-1.82293e-06
2.5666e-05
2.95193e-05
2.7802e-05
6.97512e-05
2.83818e-05
6.0932e-05
2.9619e-05
4.14017e-05
4.92528e-05
3.03339e-05
-1.59331e-06
-3.41216e-06
3.3661e-06
2.18187e-06
-9.07363e-06
8.51212e-06
-1.60986e-05
2.36338e-05
-2.7414e-05
2.76545e-05
-2.38021e-06
2.1289e-05
4.28548e-05
3.01602e-05
8.92445e-06
3.83741e-05
1.57448e-05
3.51877e-05
3.54387e-05
1.92679e-05
1.32765e-05
2.28892e-05
2.5383e-05
2.3701e-05
6.70278e-05
2.42323e-05
5.81974e-05
2.6467e-05
3.82618e-05
4.16891e-05
2.76831e-05
-3.32686e-06
-5.0818e-06
5.1835e-06
1.35175e-06
-1.36556e-05
6.75176e-06
-2.06621e-05
1.3403e-05
-3.45613e-05
1.95171e-05
-7.49113e-06
1.60744e-05
4.76147e-05
1.83066e-05
5.6681e-06
1.55857e-05
1.5997e-05
2.41757e-05
3.28661e-05
8.89142e-06
3.08606e-05
1.72246e-05
2.04737e-05
1.73251e-05
6.89703e-05
1.91124e-05
5.69282e-05
2.31932e-05
3.58055e-05
3.95947e-05
2.52646e-05
-5.35598e-06
-6.71459e-06
7.46689e-06
-2.21528e-07
-1.829e-05
-3.01274e-06
-1.81205e-05
4.79342e-06
-4.0809e-05
2.3088e-05
-2.56365e-05
-5.06159e-06
7.53076e-05
6.81699e-06
-4.37011e-06
2.19382e-06
2.69317e-05
2.95883e-06
3.01207e-05
-5.70654e-06
3.8904e-05
4.86442e-06
9.55183e-06
6.27243e-06
6.62542e-05
1.24257e-05
4.88463e-05
1.91637e-05
2.84563e-05
3.04874e-05
2.2394e-05
-1.25814e-05
-7.95769e-06
1.3857e-05
-1.30427e-05
-1.78735e-05
-1.73984e-05
-1.33509e-05
-1.20904e-05
-4.6591e-05
7.54994e-06
-4.51152e-05
-2.96244e-05
0.000112882
-1.24526e-05
-2.13214e-05
-3.58677e-05
4.79551e-05
-3.52055e-05
3.09515e-05
-2.57838e-05
3.01037e-05
-1.51712e-05
8.32027e-08
-7.75782e-06
5.9281e-05
6.5723e-06
3.40224e-05
1.52271e-05
2.03669e-05
2.37152e-05
1.93347e-05
-2.30905e-05
-6.83876e-06
2.19561e-05
-2.67136e-05
-1.4359e-05
-2.77063e-05
-1.25717e-05
-3.76728e-05
-3.66273e-05
-4.50009e-05
-3.81383e-05
-5.92084e-05
0.000127001
-6.29059e-05
-1.98994e-05
-7.29886e-05
6.03192e-05
-5.37525e-05
1.11254e-05
-3.83483e-05
1.44498e-05
-3.0361e-05
-8.05863e-06
-1.41163e-05
4.23587e-05
3.32352e-06
1.51084e-05
1.17028e-05
1.15606e-05
1.46184e-05
1.55133e-05
-2.83042e-05
-3.8945e-06
2.49626e-05
-3.31092e-05
-9.71506e-06
-3.68364e-05
-9.12267e-06
-5.46901e-05
-1.93077e-05
-7.69467e-05
-1.6378e-05
-5.3463e-05
0.000103025
-6.95332e-05
-6.76019e-06
-6.87078e-05
5.97387e-05
-4.80261e-05
-1.01797e-05
-3.3533e-05
-4.53e-07
-2.60254e-05
-1.58872e-05
-9.21042e-06
2.45635e-05
2.39362e-06
1.61841e-06
8.94253e-06
4.39793e-06
6.07356e-06
1.09866e-05
-3.71087e-05
-2.69967e-06
3.58175e-05
-4.02965e-05
-6.95993e-06
-4.45109e-05
-5.4767e-06
-5.75658e-05
-6.89315e-06
-6.4766e-05
-1.00376e-05
-2.53008e-05
6.23209e-05
-4.91595e-05
1.17909e-05
-3.3653e-05
4.45986e-05
-2.2438e-05
-2.3228e-05
-1.27042e-05
-1.13851e-05
-1.25944e-05
-1.66037e-05
-4.18298e-07
1.05782e-05
3.43469e-06
-5.27667e-06
6.57989e-06
5.27689e-07
-9.94662e-07
5.96378e-06
-3.99915e-05
3.70117e-05
-4.72623e-05
-5.2956e-05
-5.99892e-05
-7.01712e-05
-8.12547e-06
3.67503e-06
4.82467e-05
2.5008e-05
1.36206e-05
-2.98695e-06
7.58836e-06
2.31138e-06
2.83717e-06
1.84144e-06
0.00144756
4.76849e-05
0.00145238
4.74036e-05
0.00145781
4.72558e-05
0.00146382
4.70906e-05
0.00147021
4.69438e-05
0.00147694
4.68059e-05
0.00148402
4.66677e-05
0.00149151
4.65271e-05
0.00149929
4.6433e-05
4.66153e-05
0.00150705
0.00134076
4.46067e-05
0.00134504
4.30767e-05
0.00135006
4.22003e-05
0.00135548
4.16471e-05
0.00136121
4.11852e-05
0.00136737
4.063e-05
0.00137416
3.98626e-05
0.00138186
3.88027e-05
0.00139077
3.74961e-05
3.54558e-05
0.00140193
0.00124327
4.44064e-05
0.0012447
4.16039e-05
0.00124702
3.98411e-05
0.00125011
3.8542e-05
0.00125393
3.73548e-05
0.0012585
3.60613e-05
0.00126379
3.45609e-05
0.00126986
3.27325e-05
0.00127646
3.08737e-05
2.88105e-05
0.00128311
0.00115401
4.31486e-05
0.0011562
3.93636e-05
0.00115909
3.69166e-05
0.00116254
3.50867e-05
0.00116646
3.34288e-05
0.00117086
3.16744e-05
0.00117574
2.96846e-05
0.00118117
2.73033e-05
0.0011874
2.4631e-05
2.18768e-05
0.00119434
0.00106963
4.09452e-05
0.00107261
3.63405e-05
0.00107615
3.33457e-05
0.00108008
3.11591e-05
0.00108427
2.92433e-05
0.0010887
2.72626e-05
0.00109336
2.50391e-05
0.00109829
2.2388e-05
0.00110346
1.94359e-05
1.64654e-05
0.00110888
0.000990369
3.89252e-05
0.000993272
3.33955e-05
0.000996835
2.976e-05
0.00100083
2.71616e-05
0.0010051
2.4989e-05
0.00100955
2.28312e-05
0.00101415
2.04583e-05
0.00101888
1.76535e-05
0.00102379
1.44991e-05
1.13985e-05
0.00102886
0.000916876
3.75022e-05
0.000919308
3.09261e-05
0.000922536
2.65181e-05
0.000926301
2.34085e-05
0.000930402
2.09096e-05
0.000934719
1.85435e-05
0.000939178
1.60213e-05
0.000943751
1.30812e-05
0.000948502
9.7214e-06
6.50241e-06
0.0009534
0.000848991
3.65378e-05
0.000850975
2.88982e-05
0.000853808
2.36874e-05
0.000857222
2.00117e-05
0.000861012
1.71456e-05
0.000865047
1.45459e-05
0.000869225
1.18558e-05
0.000873524
8.78998e-06
0.000877994
5.20625e-06
1.86936e-06
0.000882624
0.000786166
3.57036e-05
0.000787891
2.71318e-05
0.000790392
2.11404e-05
0.000793471
1.69142e-05
0.000796926
1.36865e-05
0.000800605
1.08425e-05
0.000804444
8.01401e-06
0.000808367
4.80386e-06
0.000812465
1.03812e-06
-2.2986e-06
0.000816615
0.000727966
3.48208e-05
0.000729576
2.5421e-05
0.000731883
1.87548e-05
0.000734694
1.4035e-05
0.000737823
1.048e-05
0.000741165
7.4467e-06
0.000744597
4.49392e-06
0.000748119
1.20675e-06
0.000751794
-2.73583e-06
-5.98932e-06
0.000755458
0.000673885
3.37906e-05
0.00067551
2.37262e-05
0.000677707
1.6494e-05
0.00068032
1.13725e-05
0.00068319
7.56465e-06
0.000686205
4.39107e-06
0.000689282
1.37076e-06
0.000692418
-1.98053e-06
0.000695681
-6.08157e-06
-9.07985e-06
0.000698786
0.000623682
3.25907e-05
0.000625399
2.19788e-05
0.00062757
1.42967e-05
0.000630054
8.85844e-06
0.000632716
4.87257e-06
0.000635457
1.6214e-06
0.000638207
-1.41921e-06
0.000640948
-4.76478e-06
0.000643813
-8.98065e-06
-1.15631e-05
0.000646305
0.000577091
3.12047e-05
0.000578941
2.01614e-05
0.00058113
1.21396e-05
0.000583539
6.48342e-06
0.000586045
2.41017e-06
0.000588556
-8.57414e-07
0.000591011
-3.84915e-06
0.000593381
-7.12514e-06
0.000595842
-1.14577e-05
-1.35199e-05
0.000597832
0.000533921
2.96437e-05
0.00053593
1.82404e-05
0.00053818
9.93167e-06
0.000540562
4.12045e-06
0.00054296
2.14843e-08
0.000545282
-3.19332e-06
0.000547452
-6.03165e-06
0.00054945
-9.15425e-06
0.000551501
-1.35183e-05
-1.4815e-05
0.000552834
0.000493915
2.79454e-05
0.00049607
1.6251e-05
0.0004984
7.75417e-06
0.000500787
1.88785e-06
0.000503111
-2.16426e-06
0.000505271
-5.22633e-06
0.00050718
-7.86537e-06
0.000508841
-1.07753e-05
0.000510495
-1.51745e-05
-1.5657e-05
0.000511324
0.000456898
2.61049e-05
0.000459206
1.4114e-05
0.000461636
5.43918e-06
0.000464059
-4.69044e-07
0.000466338
-4.41393e-06
0.000468349
-7.23781e-06
0.000470016
-9.56537e-06
0.000471346
-1.21522e-05
0.000472606
-1.64875e-05
-1.5846e-05
0.000472861
0.000422619
2.41946e-05
0.000425072
1.19862e-05
0.000427598
3.247e-06
0.000430071
-2.6076e-06
0.000432314
-6.34845e-06
0.000434192
-8.87213e-06
0.000435651
-1.0892e-05
0.000436666
-1.31532e-05
0.000437593
-1.74895e-05
-1.59361e-05
0.000437497
0.000390938
2.21228e-05
0.000393546
9.66428e-06
0.000396176
7.84578e-07
0.000398701
-5.01778e-06
0.000400924
-8.49704e-06
0.00040267
-1.06548e-05
0.00040393
-1.21856e-05
0.000404625
-1.39872e-05
0.000405231
-1.81963e-05
-1.54664e-05
0.00040485
0.000361615
2.00866e-05
0.000364342
7.45061e-06
0.000367075
-1.35373e-06
0.000369645
-6.94309e-06
0.00037184
-1.01141e-05
0.000373479
-1.18663e-05
0.00037455
-1.30727e-05
0.000374968
-1.45058e-05
0.00037529
-1.87873e-05
-1.5333e-05
0.000374596
0.000334518
1.78312e-05
0.000337383
4.9184e-06
0.000340202
-3.97649e-06
0.000342822
-9.39448e-06
0.000344997
-1.21983e-05
0.000346512
-1.34305e-05
0.000347402
-1.40396e-05
0.000347549
-1.48621e-05
0.00034756
-1.89372e-05
-1.39906e-05
0.000346461
0.00030944
1.56053e-05
0.000312424
2.61608e-06
0.0003153
-6.05779e-06
0.000317956
-1.11209e-05
0.000320105
-1.35041e-05
0.000321509
-1.42654e-05
0.000322245
-1.4527e-05
0.000322128
-1.49951e-05
0.000321943
-1.9176e-05
-1.35359e-05
0.000320665
0.000286289
1.3118e-05
0.000289407
-2.09449e-07
0.000292312
-8.91306e-06
0.000294992
-1.37234e-05
0.000297114
-1.5601e-05
0.00029839
-1.56826e-05
0.00029897
-1.51281e-05
0.000298591
-1.47975e-05
0.000298192
-1.86121e-05
-1.15333e-05
0.000296772
0.00026484
1.07109e-05
0.000268064
-2.5871e-06
0.000270993
-1.08469e-05
0.000273685
-1.51627e-05
0.000275774
-1.65749e-05
0.000276943
-1.61347e-05
0.000277385
-1.52434e-05
0.000276788
-1.46054e-05
0.00027623
-1.86459e-05
-1.11901e-05
0.000274622
0.000245024
8.05437e-06
0.000248351
-5.72178e-06
0.000251301
-1.39262e-05
0.000253984
-1.78848e-05
0.000256041
-1.8684e-05
0.000257088
-1.73602e-05
0.000257385
-1.54649e-05
0.000256557
-1.38138e-05
0.000255805
-1.73746e-05
-8.37304e-06
0.000254074
0.000226668
5.46886e-06
0.000230075
-8.16434e-06
0.000233029
-1.58071e-05
0.000235693
-1.9118e-05
0.00023772
-1.93827e-05
0.000238663
-1.75187e-05
0.000238848
-1.51466e-05
0.000237817
-1.32989e-05
0.000236942
-1.70465e-05
-7.89574e-06
0.000235108
0.000209727
2.65679e-06
0.000213173
-1.16032e-05
0.000216114
-1.91523e-05
0.000218746
-2.19795e-05
0.000220746
-2.15235e-05
0.000221594
-1.85227e-05
0.000221642
-1.49022e-05
0.000220402
-1.17686e-05
0.00021936
-1.48261e-05
-4.29971e-06
0.000217551
0.000194037
1.4288e-07
0.0001975
-1.3974e-05
0.000200422
-2.08252e-05
0.000203005
-2.29598e-05
0.000204981
-2.20477e-05
0.000205749
-1.84626e-05
0.000205706
-1.43899e-05
0.000204295
-1.10014e-05
0.000203144
-1.44506e-05
-4.1706e-06
0.000201367
0.000179505
-2.70539e-06
0.000182967
-1.75352e-05
0.000185844
-2.42344e-05
0.000188373
-2.57661e-05
0.000190336
-2.4082e-05
0.000191029
-1.91662e-05
0.000190882
-1.37007e-05
0.000189262
-8.81429e-06
0.000187978
-1.15119e-05
-1.16818e-07
0.000186364
0.000166005
-5.02608e-06
0.000169517
-1.97191e-05
0.000172342
-2.55246e-05
0.000174788
-2.6339e-05
0.000176729
-2.43113e-05
0.000177359
-1.88426e-05
0.000177158
-1.29897e-05
0.000175384
-7.83191e-06
0.000174035
-1.11708e-05
-5.62082e-07
0.000172494
0.000153508
-7.83028e-06
0.000157007