/*--------------------------------*- C++ -*----------------------------------*\
  =========                 |
  \\      /  F ield         | OpenFOAM: The Open Source CFD Toolbox
   \\    /   O peration     | Website:  https://openfoam.org
    \\  /    A nd           | Version:  6.0
     \\/     M anipulation  |
\*---------------------------------------------------------------------------*/
FoamFile
{
    version     2.0;
    format      ascii;
    class       surfaceScalarField;
    location    "3.13";
    object      phi;
}
// * * * * * * * * * * * * * * * * * * * * * * * * * * * * * * * * * * * * * //

dimensions      [0 3 -1 0 0 0 0];

internalField   nonuniform List<scalar> 
26699
(
2.0051e-05
0.005201
5.7233e-10
4.0126e-05
0.0051116
5.9639e-05
0.0049351
7.8186e-05
0.0046741
9.5416e-05
0.0043332
0.00011102
0.0039182
0.00012471
0.0034362
0.00013626
0.0028953
0.00014546
0.002305
0.00015181
0.0016755
0.00015717
0.0010154
0.00046501
3.436e-05
2.0051e-05
0.0051809
1.7124e-09
4.0127e-05
0.0050916
5.9641e-05
0.0049155
7.819e-05
0.0046556
9.5418e-05
0.004316
0.00011102
0.0039026
0.00012471
0.0034225
0.00013625
0.0028838
0.00014545
0.0022958
0.00015106
0.0016699
0.0001589
0.0010076
0.00055901
6.4906e-05
2.0051e-05
0.0051609
2.9212e-09
4.0128e-05
0.0050715
5.9643e-05
0.004896
7.8193e-05
0.004637
9.5421e-05
0.0042988
0.00011103
0.003887
0.00012471
0.0034088
0.00013622
0.0028723
0.00014546
0.0022865
0.0001503
0.0016651
0.00016016
0.0009977
0.00062914
9.003e-05
2.0051e-05
0.0051408
4.146e-09
4.013e-05
0.0050514
5.9646e-05
0.0048765
7.8196e-05
0.0046185
9.5424e-05
0.0042815
0.00011103
0.0038714
0.0001247
0.0033951
0.0001362
0.0028608
0.00014551
0.0022772
0.00014955
0.001661
0.00016088
0.00098637
0.0006798
0.00011022
2.0051e-05
0.0051208
5.3727e-09
4.0131e-05
0.0050313
5.9648e-05
0.004857
7.8199e-05
0.0045999
9.5427e-05
0.0042643
0.00011103
0.0038558
0.0001247
0.0033815
0.00013618
0.0028493
0.00014557
0.0022678
0.00014886
0.0016577
0.00016109
0.00097414
0.00071463
0.00012626
2.0051e-05
0.0051007
6.6016e-09
4.0132e-05
0.0050112
5.965e-05
0.0048375
7.8202e-05
0.0045814
9.5431e-05
0.0042471
0.00011103
0.0038402
0.0001247
0.0033678
0.00013615
0.0028379
0.00014567
0.0022583
0.00014824
0.0016552
0.00016084
0.00096153
0.00073665
0.00013882
2.0051e-05
0.0050807
7.8326e-09
4.0133e-05
0.0049912
5.9653e-05
0.004818
7.8205e-05
0.0045628
9.5434e-05
0.0042299
0.00011103
0.0038246
0.0001247
0.0033541
0.00013611
0.0028264
0.00014578
0.0022486
0.0001477
0.0016532
0.00016023
0.000949
0.00074843
0.00014845
2.0051e-05
0.0050606
9.0658e-09
4.0135e-05
0.0049711
5.9655e-05
0.0047984
7.8208e-05
0.0045443
9.5437e-05
0.0042126
0.00011103
0.003809
0.0001247
0.0033405
0.00013608
0.0028151
0.0001459
0.0022388
0.00014726
0.0016519
0.00015936
0.0009369
0.00075214
0.00015565
2.0051e-05
0.0050405
1.0301e-08
4.0136e-05
0.004951
5.9657e-05
0.0047789
7.8211e-05
0.0045257
9.5441e-05
0.0041954
0.00011104
0.0037934
0.0001247
0.0033268
0.00013604
0.0028037
0.00014603
0.0022288
0.00014693
0.001651
0.00015829
0.00092553
0.00074957
0.00016086
2.0051e-05
0.0050205
1.1539e-08
4.0137e-05
0.0049309
5.966e-05
0.0047594
7.8214e-05
0.0045071
9.5444e-05
0.0041782
0.00011104
0.0037778
0.0001247
0.0033131
0.00013599
0.0027924
0.00014617
0.0022186
0.00014671
0.0016504
0.00015713
0.00091512
0.00074226
0.00016444
2.0051e-05
0.0050004
1.2779e-08
4.0138e-05
0.0049108
5.9662e-05
0.0047399
7.8217e-05
0.0044886
9.5448e-05
0.0041609
0.00011104
0.0037622
0.00012471
0.0032995
0.00013594
0.0027812
0.00014631
0.0022083
0.00014659
0.0016502
0.00015592
0.00090579
0.00073145
0.00016673
2.0051e-05
0.0049803
1.4022e-08
4.0139e-05
0.0048907
5.9665e-05
0.0047203
7.822e-05
0.00447
9.5451e-05
0.0041437
0.00011104
0.0037466
0.00012471
0.0032858
0.00013589
0.00277
0.00014645
0.0021977
0.00014658
0.00165
0.00015472
0.00089765
0.00071816
0.000168
2.0052e-05
0.0049603
1.5267e-08
4.0141e-05
0.0048706
5.9667e-05
0.0047008
7.8223e-05
0.0044515
9.5455e-05
0.0041265
0.00011104
0.003731
0.00012472
0.0032721
0.00013583
0.0027589
0.00014658
0.002187
0.00014667
0.0016499
0.00015358
0.00089074
0.00070324
0.0001685
2.0052e-05
0.0049402
1.6515e-08
4.0142e-05
0.0048506
5.9669e-05
0.0046813
7.8227e-05
0.0044329
9.5458e-05
0.0041092
0.00011105
0.0037155
0.00012473
0.0032584
0.00013577
0.0027479
0.0001467
0.002176
0.00014684
0.0016498
0.00015253
0.00088505
0.00068736
0.00016841
2.0052e-05
0.0049201
1.7765e-08
4.0143e-05
0.0048305
5.9672e-05
0.0046618
7.823e-05
0.0044144
9.5462e-05
0.004092
0.00011105
0.0036999
0.00012474
0.0032448
0.00013571
0.0027369
0.00014681
0.0021649
0.00014709
0.0016495
0.00015159
0.00088055
0.00067106
0.0001679
2.0052e-05
0.0049001
1.9017e-08
4.0144e-05
0.0048104
5.9674e-05
0.0046422
7.8233e-05
0.0043958
9.5466e-05
0.0040748
0.00011105
0.0036843
0.00012475
0.0032311
0.00013564
0.002726
0.0001469
0.0021537
0.0001474
0.001649
0.00015078
0.00087717
0.00065474
0.00016709
2.0052e-05
0.00488
2.0273e-08
4.0146e-05
0.0047903
5.9677e-05
0.0046227
7.8236e-05
0.0043772
9.547e-05
0.0040575
0.00011105
0.0036687
0.00012476
0.0032173
0.00013557
0.0027152
0.00014698
0.0021423
0.00014777
0.0016482
0.0001501
0.00087485
0.00063873
0.0001661
2.0052e-05
0.0048599
2.1531e-08
4.0147e-05
0.0047702
5.9679e-05
0.0046032
7.8239e-05
0.0043587
9.5473e-05
0.0040403
0.00011105
0.0036531
0.00012478
0.0032036
0.0001355
0.0027045
0.00014704
0.0021307
0.00014818
0.0016471
0.00014956
0.00087347
0.00062328
0.00016502
2.0052e-05
0.0048399
2.2792e-08
4.0148e-05
0.0047501
5.9682e-05
0.0045836
7.8242e-05
0.0043401
9.5477e-05
0.0040231
0.00011105
0.0036375
0.0001248
0.0031899
0.00013543
0.0026938
0.00014708
0.0021191
0.00014863
0.0016455
0.00014916
0.00087294
0.00060854
0.0001639
2.0052e-05
0.0048198
2.4056e-08
4.0149e-05
0.00473
5.9684e-05
0.0045641
7.8246e-05
0.0043216
9.5482e-05
0.0040058
0.00011105
0.003622
0.00012482
0.0031761
0.00013536
0.0026833
0.0001471
0.0021074
0.0001491
0.0016435
0.00014889
0.00087315
0.00059463
0.0001628
2.0052e-05
0.0047997
2.5323e-08
4.0151e-05
0.0047099
5.9686e-05
0.0045446
7.8249e-05
0.004303
9.5486e-05
0.0039886
0.00011106
0.0036064
0.00012484
0.0031623
0.0001353
0.0026728
0.0001471
0.0020956
0.00014957
0.001641
0.00014875
0.00087398
0.00058161
0.00016176
2.0052e-05
0.0047796
2.6593e-08
4.0152e-05
0.0046898
5.9689e-05
0.004525
7.8252e-05
0.0042844
9.549e-05
0.0039714
0.00011106
0.0035908
0.00012486
0.0031485
0.00013523
0.0026625
0.00014708
0.0020837
0.00015006
0.0016381
0.00014871
0.00087532
0.00056952
0.0001608
2.0052e-05
0.0047595
2.7865e-08
4.0153e-05
0.0046697
5.9691e-05
0.0045055
7.8255e-05
0.0042659
9.5494e-05
0.0039541
0.00011106
0.0035753
0.00012488
0.0031347
0.00013517
0.0026522
0.00014705
0.0020718
0.00015053
0.0016346
0.00014879
0.00087707
0.00055837
0.00015995
2.0052e-05
0.0047395
2.9141e-08
4.0154e-05
0.0046496
5.9694e-05
0.004486
7.8259e-05
0.0042473
9.5499e-05
0.0039369
0.00011106
0.0035597
0.00012491
0.0031209
0.0001351
0.002642
0.00014699
0.0020599
0.000151
0.0016306
0.00014895
0.00087912
0.00054812
0.0001592
2.0052e-05
0.0047194
3.042e-08
4.0156e-05
0.0046295
5.9696e-05
0.0044664
7.8262e-05
0.0042287
9.5503e-05
0.0039196
0.00011106
0.0035442
0.00012494
0.003107
0.00013505
0.0026319
0.00014692
0.0020481
0.00015145
0.001626
0.0001492
0.00088137
0.00053874
0.00015858
2.0052e-05
0.0046993
3.1703e-08
4.0157e-05
0.0046094
5.9699e-05
0.0044469
7.8265e-05
0.0042102
9.5508e-05
0.0039024
0.00011106
0.0035286
0.00012497
0.0030931
0.00013499
0.0026219
0.00014683
0.0020362
0.00015188
0.001621
0.00014951
0.00088374
0.00053018
0.00015806
2.0052e-05
0.0046792
3.2988e-08
4.0158e-05
0.0045893
5.9701e-05
0.0044273
7.8269e-05
0.0041916
9.5513e-05
0.0038852
0.00011105
0.0035131
0.000125
0.0030791
0.00013495
0.0026119
0.00014672
0.0020245
0.00015228
0.0016154
0.00014987
0.00088615
0.00052238
0.00015767
2.0052e-05
0.0046591
3.4277e-08
4.0159e-05
0.0045692
5.9704e-05
0.0044078
7.8272e-05
0.004173
9.5518e-05
0.0038679
0.00011105
0.0034975
0.00012503
0.0030651
0.0001349
0.002602
0.0001466
0.0020128
0.00015265
0.0016094
0.00015028
0.00088852
0.00051528
0.00015737
2.0052e-05
0.004639
3.557e-08
4.0161e-05
0.0045491
5.9706e-05
0.0043882
7.8275e-05
0.0041545
9.5523e-05
0.0038507
0.00011105
0.003482
0.00012507
0.0030511
0.00013487
0.0025922
0.00014647
0.0020012
0.00015298
0.0016029
0.00015071
0.00089079
0.00050882
0.00015718
2.0052e-05
0.0046189
3.6866e-08
4.0162e-05
0.0045289
5.9709e-05
0.0043687
7.8279e-05
0.0041359
9.5528e-05
0.0038334
0.00011105
0.0034665
0.0001251
0.0030371
0.00013484
0.0025825
0.00014633
0.0019897
0.00015329
0.0015959
0.00015117
0.00089291
0.00050292
0.00015707
2.0052e-05
0.0045989
3.8165e-08
4.0163e-05
0.0045088
5.9711e-05
0.0043491
7.8282e-05
0.0041173
9.5534e-05
0.0038162
0.00011105
0.003451
0.00012514
0.003023
0.00013482
0.0025728
0.00014617
0.0019783
0.00015355
0.0015885
0.00015164
0.00089481
0.00049753
0.00015704
2.0052e-05
0.0045788
3.9468e-08
4.0164e-05
0.0044887
5.9714e-05
0.0043296
7.8285e-05
0.0040988
9.5539e-05
0.0037989
0.00011104
0.0034355
0.00012517
0.0030088
0.0001348
0.0025632
0.00014601
0.0019671
0.00015378
0.0015808
0.00015212
0.00089648
0.00049257
0.00015708
2.0052e-05
0.0045587
4.0775e-08
4.0166e-05
0.0044686
5.9716e-05
0.00431
7.8289e-05
0.0040802
9.5545e-05
0.0037817
0.00011104
0.00342
0.00012521
0.0029947
0.0001348
0.0025536
0.00014585
0.0019561
0.00015398
0.0015726
0.00015259
0.00089786
0.000488
0.00015717
2.0052e-05
0.0045386
4.2086e-08
4.0167e-05
0.0044485
5.9719e-05
0.0042905
7.8292e-05
0.0040616
9.5551e-05
0.0037644
0.00011103
0.0034045
0.00012524
0.0029805
0.0001348
0.002544
0.00014568
0.0019452
0.00015413
0.0015642
0.00015305
0.00089894
0.00048374
0.00015731
2.0052e-05
0.0045185
4.3401e-08
4.0168e-05
0.0044284
5.9722e-05
0.0042709
7.8296e-05
0.004043
9.5557e-05
0.0037471
0.00011103
0.003389
0.00012528
0.0029662
0.00013481
0.0025345
0.00014551
0.0019345
0.00015426
0.0015554
0.0001535
0.0008997
0.00047976
0.00015748
2.0052e-05
0.0044984
4.4719e-08
4.017e-05
0.0044083
5.9724e-05
0.0042514
7.8299e-05
0.0040245
9.5564e-05
0.0037299
0.00011103
0.0033736
0.00012532
0.0029519
0.00013483
0.002525
0.00014534
0.001924
0.00015434
0.0015464
0.00015393
0.00090011
0.00047601
0.00015768
2.0052e-05
0.0044783
4.6042e-08
4.0171e-05
0.0043881
5.9727e-05
0.0042318
7.8303e-05
0.0040059
9.557e-05
0.0037126
0.00011102
0.0033581
0.00012535
0.0029376
0.00013485
0.0025155
0.00014517
0.0019137
0.0001544
0.0015372
0.00015433
0.00090018
0.00047244
0.00015791
2.0052e-05
0.0044582
4.7369e-08
4.0172e-05
0.004368
5.973e-05
0.0042123
7.8306e-05
0.0039873
9.5577e-05
0.0036953
0.00011101
0.0033427
0.00012538
0.0029232
0.00013489
0.002506
0.000145
0.0019035
0.00015443
0.0015278
0.00015471
0.0008999
0.00046901
0.00015814
2.0052e-05
0.0044381
4.87e-08
4.0173e-05
0.0043479
5.9732e-05
0.0041927
7.831e-05
0.0039687
9.5584e-05
0.0036781
0.00011101
0.0033273
0.00012542
0.0029088
0.00013493
0.0024965
0.00014484
0.0018936
0.00015443
0.0015182
0.00015506
0.00089927
0.00046568
0.00015838
2.0052e-05
0.004418
5.0035e-08
4.0175e-05
0.0043278
5.9735e-05
0.0041732
7.8313e-05
0.0039502
9.5591e-05
0.0036608
0.000111
0.0033118
0.00012545
0.0028944
0.00013498
0.002487
0.00014468
0.0018839
0.0001544
0.0015084
0.00015538
0.00089829
0.00046244
0.00015862
2.0052e-05
0.0043979
5.1375e-08
4.0176e-05
0.0043076
5.9738e-05
0.0041536
7.8317e-05
0.0039316
9.5599e-05
0.0036435
0.000111
0.0032964
0.00012548
0.0028799
0.00013504
0.0024774
0.00014453
0.0018744
0.00015435
0.0014986
0.00015567
0.00089698
0.00045926
0.00015886
2.0052e-05
0.0043778
5.2719e-08
4.0177e-05
0.0042875
5.974e-05
0.004134
7.832e-05
0.003913
9.5607e-05
0.0036262
0.00011099
0.0032811
0.00012551
0.0028654
0.00013511
0.0024678
0.00014439
0.0018651
0.00015428
0.0014887
0.00015593
0.00089533
0.0004561
0.00015909
2.0052e-05
0.0043577
5.4068e-08
4.0179e-05
0.0042674
5.9743e-05
0.0041145
7.8324e-05
0.0038944
9.5615e-05
0.0036089
0.00011098
0.0032657
0.00012553
0.0028508
0.00013518
0.0024581
0.00014426
0.0018561
0.0001542
0.0014788
0.00015616
0.00089337
0.00045296
0.0001593
2.0052e-05
0.0043376
5.5422e-08
4.018e-05
0.0042473
5.9746e-05
0.0040949
7.8327e-05
0.0038758
9.5623e-05
0.0035916
0.00011098
0.0032503
0.00012556
0.0028362
0.00013526
0.0024484
0.00014414
0.0018472
0.00015409
0.0014688
0.00015636
0.0008911
0.00044981
0.00015951
2.0052e-05
0.0043175
5.678e-08
4.0181e-05
0.0042271
5.9749e-05
0.0040753
7.8331e-05
0.0038573
9.5631e-05
0.0035743
0.00011097
0.003235
0.00012558
0.0028216
0.00013534
0.0024387
0.00014404
0.0018385
0.00015398
0.0014589
0.00015653
0.00088855
0.00044664
0.0001597
2.0052e-05
0.0042973
5.8143e-08
4.0183e-05
0.004207
5.9751e-05
0.0040558
7.8335e-05
0.0038387
9.564e-05
0.003557
0.00011097
0.0032197
0.0001256
0.002807
0.00013543
0.0024288
0.00014394
0.00183
0.00015386
0.001449
0.00015668
0.00088572
0.00044345
0.00015987
2.0052e-05
0.0042772
5.9511e-08
4.0184e-05
0.0041869
5.9754e-05
0.0040362
7.8338e-05
0.0038201
9.5649e-05
0.0035397
0.00011096
0.0032044
0.00012561
0.0027923
0.00013553
0.0024189
0.00014386
0.0018216
0.00015372
0.0014391
0.0001568
0.00088264
0.00044022
0.00016003
2.0052e-05
0.0042571
6.0884e-08
4.0186e-05
0.0041667
5.9757e-05
0.0040166
7.8342e-05
0.0038015
9.5658e-05
0.0035224
0.00011095
0.0031891
0.00012563
0.0027777
0.00013563
0.0024089
0.00014379
0.0018135
0.00015359
0.0014293
0.0001569
0.00087933
0.00043695
0.00016017
2.0052e-05
0.004237
6.2262e-08
4.0187e-05
0.0041466
5.976e-05
0.003997
7.8345e-05
0.0037829
9.5667e-05
0.0035051
0.00011095
0.0031738
0.00012564
0.002763
0.00013573
0.0023988
0.00014374
0.0018055
0.00015345
0.0014196
0.00015698
0.0008758
0.00043364
0.0001603
2.0052e-05
0.0042169
6.3646e-08
4.0188e-05
0.0041265
5.9763e-05
0.0039775
7.8349e-05
0.0037643
9.5677e-05
0.0034877
0.00011094
0.0031585
0.00012565
0.0027483
0.00013584
0.0023887
0.0001437
0.0017976
0.00015331
0.00141
0.00015704
0.00087206
0.00043028
0.00016041
2.0052e-05
0.0041968
6.5035e-08
4.019e-05
0.0041063
5.9766e-05
0.0039579
7.8353e-05
0.0037457
9.5686e-05
0.0034704
0.00011094
0.0031433
0.00012565
0.0027336
0.00013594
0.0023784
0.00014367
0.0017899
0.00015317
0.0014005
0.00015709
0.00086815
0.00042686
0.0001605
2.0052e-05
0.0041767
6.6429e-08
4.0191e-05
0.0040862
5.9768e-05
0.0039383
7.8356e-05
0.0037272
9.5696e-05
0.0034531
0.00011094
0.003128
0.00012566
0.0027188
0.00013605
0.002368
0.00014365
0.0017823
0.00015304
0.0013911
0.00015712
0.00086407
0.0004234
0.00016058
2.0052e-05
0.0041565
6.7829e-08
4.0193e-05
0.0040661
5.9771e-05
0.0039187
7.836e-05
0.0037086
9.5706e-05
0.0034357
0.00011093
0.0031128
0.00012566
0.0027041
0.00013616
0.0023575
0.00014365
0.0017748
0.00015291
0.0013819
0.00015713
0.00085985
0.00041989
0.00016064
2.0052e-05
0.0041364
6.9235e-08
4.0194e-05
0.0040459
5.9774e-05
0.0038992
7.8364e-05
0.00369
9.5717e-05
0.0034184
0.00011093
0.0030976
0.00012565
0.0026894
0.00013627
0.0023468
0.00014366
0.0017674
0.00015279
0.0013727
0.00015714
0.00085549
0.00041633
0.0001607
2.0052e-05
0.0041163
7.0647e-08
4.0196e-05
0.0040258
5.9777e-05
0.0038796
7.8367e-05
0.0036714
9.5727e-05
0.003401
0.00011093
0.0030824
0.00012565
0.0026747
0.00013638
0.0023361
0.00014369
0.0017601
0.00015267
0.0013637
0.00015714
0.00085103
0.00041273
0.00016074
2.0052e-05
0.0040962
7.2064e-08
4.0197e-05
0.0040056
5.978e-05
0.00386
7.8371e-05
0.0036528
9.5738e-05
0.0033836
0.00011093
0.0030672
0.00012564
0.00266
0.00013649
0.0023253
0.00014372
0.0017529
0.00015256
0.0013549
0.00015713
0.00084646
0.00040908
0.00016078
2.0052e-05
0.004076
7.3488e-08
4.0198e-05
0.0039855
5.9783e-05
0.0038404
7.8375e-05
0.0036342
9.5748e-05
0.0033663
0.00011093
0.003052
0.00012563
0.0026453
0.00013659
0.0023143
0.00014377
0.0017457
0.00015247
0.0013462
0.00015712
0.00084181
0.0004054
0.0001608
2.0052e-05
0.0040559
7.4918e-08
4.02e-05
0.0039653
5.9787e-05
0.0038208
7.8378e-05
0.0036156
9.5759e-05
0.0033489
0.00011093
0.0030368
0.00012562
0.0026306
0.0001367
0.0023032
0.00014382
0.0017386
0.00015238
0.0013377
0.0001571
0.00083708
0.00040169
0.00016082
2.0052e-05
0.0040358
7.6354e-08
4.0201e-05
0.0039452
5.979e-05
0.0038012
7.8382e-05
0.003597
9.577e-05
0.0033315
0.00011093
0.0030217
0.0001256
0.0026159
0.0001368
0.002292
0.00014389
0.0017315
0.0001523
0.0013292
0.00015709
0.00083229
0.00039794
0.00016083
2.0052e-05
0.0040157
7.7797e-08
4.0203e-05
0.003925
5.9793e-05
0.0037816
7.8386e-05
0.0035784
9.5781e-05
0.0033141
0.00011094
0.0030065
0.00012558
0.0026012
0.00013689
0.0022807
0.00014396
0.0017244
0.00015224
0.001321
0.00015707
0.00082746
0.00039417
0.00016084
2.0052e-05
0.0039955
7.9246e-08
4.0204e-05
0.0039049
5.9796e-05
0.0037621
7.839e-05
0.0035598
9.5792e-05
0.0032967
0.00011094
0.0029914
0.00012557
0.0025866
0.00013699
0.0022693
0.00014404
0.0017174
0.00015218
0.0013128
0.00015705
0.00082259
0.00039038
0.00016085
2.0052e-05
0.0039754
8.0702e-08
4.0206e-05
0.0038847
5.9799e-05
0.0037425
7.8393e-05
0.0035412
9.5803e-05
0.0032793
0.00011095
0.0029762
0.00012554
0.002572
0.00013708
0.0022578
0.00014413
0.0017103
0.00015214
0.0013048
0.00015704
0.00081768
0.00038657
0.00016085
2.0052e-05
0.0039553
8.2165e-08
4.0208e-05
0.0038646
5.9802e-05
0.0037229
7.8397e-05
0.0035226
9.5814e-05
0.0032619
0.00011095
0.0029611
0.00012552
0.0025575
0.00013716
0.0022461
0.00014423
0.0017032
0.0001521
0.001297
0.00015703
0.00081276
0.00038275
0.00016085
2.0052e-05
0.0039351
8.3635e-08
4.0209e-05
0.0038444
5.9806e-05
0.0037033
7.8401e-05
0.0035041
9.5825e-05
0.0032444
0.00011096
0.002946
0.0001255
0.0025429
0.00013724
0.0022344
0.00014432
0.0016962
0.00015208
0.0012892
0.00015702
0.00080782
0.00037892
0.00016085
2.0052e-05
0.003915
8.5112e-08
4.0211e-05
0.0038242
5.9809e-05
0.0036837
7.8405e-05
0.0034855
9.5836e-05
0.003227
0.00011097
0.0029308
0.00012547
0.0025284
0.00013731
0.0022225
0.00014443
0.001689
0.00015207
0.0012816
0.00015701
0.00080287
0.00037509
0.00016085
2.0052e-05
0.0038949
8.6597e-08
4.0212e-05
0.0038041
5.9812e-05
0.0036641
7.8409e-05
0.0034669
9.5847e-05
0.0032096
0.00011098
0.0029157
0.00012545
0.0025139
0.00013738
0.0022106
0.00014453
0.0016819
0.00015206
0.001274
0.00015701
0.00079792
0.00037125
0.00016085
2.0052e-05
0.0038747
8.8089e-08
4.0214e-05
0.0037839
5.9816e-05
0.0036445
7.8413e-05
0.0034483
9.5858e-05
0.0031921
0.00011099
0.0029006
0.00012542
0.0024995
0.00013745
0.0021986
0.00014464
0.0016747
0.00015207
0.0012666
0.00015702
0.00079297
0.00036743
0.00016085
2.0052e-05
0.0038546
8.9589e-08
4.0216e-05
0.0037638
5.9819e-05
0.0036249
7.8417e-05
0.0034297
9.5869e-05
0.0031747
0.00011101
0.0028854
0.00012539
0.0024851
0.00013751
0.0021865
0.00014475
0.0016675
0.00015208
0.0012593
0.00015703
0.00078803
0.00036361
0.00016085
2.0052e-05
0.0038344
9.1097e-08
4.0217e-05
0.0037436
5.9822e-05
0.0036053
7.8421e-05
0.0034111
9.588e-05
0.0031572
0.00011102
0.0028703
0.00012537
0.0024708
0.00013756
0.0021743
0.00014486
0.0016602
0.00015211
0.001252
0.00015704
0.00078309
0.0003598
0.00016085
2.0052e-05
0.0038143
9.2612e-08
4.0219e-05
0.0037234
5.9826e-05
0.0035857
7.8425e-05
0.0033925
9.5891e-05
0.0031398
0.00011103
0.0028551
0.00012534
0.0024565
0.00013761
0.002162
0.00014497
0.0016528
0.00015214
0.0012448
0.00015706
0.00077817
0.000356
0.00016085
2.0052e-05
0.0037941
9.4136e-08
4.0221e-05
0.0037033
5.9829e-05
0.003566
7.8429e-05
0.0033739
9.5901e-05
0.0031223
0.00011105
0.00284
0.00012531
0.0024422
0.00013765
0.0021497
0.00014507
0.0016454
0.00015217
0.0012377
0.00015708
0.00077327
0.00035222
0.00016086
2.0052e-05
0.003774
9.5668e-08
4.0222e-05
0.0036831
5.9833e-05
0.0035464
7.8433e-05
0.0033553
9.5912e-05
0.0031048
0.00011107
0.0028248
0.00012529
0.002428
0.00013769
0.0021372
0.00014518
0.0016379
0.00015222
0.0012307
0.00015711
0.00076838
0.00034847
0.00016086
2.0052e-05
0.0037538
9.7209e-08
4.0224e-05
0.0036629
5.9837e-05
0.0035268
7.8438e-05
0.0033367
9.5922e-05
0.0030873
0.00011109
0.0028097
0.00012526
0.0024138
0.00013773
0.0021248
0.00014529
0.0016304
0.00015226
0.0012237
0.00015714
0.00076351
0.00034473
0.00016087
2.0053e-05
0.0037337
9.8758e-08
4.0226e-05
0.0036428
5.984e-05
0.0035072
7.8442e-05
0.0033181
9.5933e-05
0.0030698
0.00011111
0.0027945
0.00012524
0.0023997
0.00013776
0.0021123
0.00014539
0.0016227
0.00015232
0.0012168
0.00015717
0.00075865
0.00034102
0.00016088
2.0053e-05
0.0037135
1.0032e-07
4.0227e-05
0.0036226
5.9844e-05
0.0034876
7.8446e-05
0.0032995
9.5943e-05
0.0030523
0.00011113
0.0027793
0.00012521
0.0023856
0.00013778
0.0020997
0.00014549
0.001615
0.00015237
0.0012099
0.00015721
0.00075382
0.00033733
0.0001609
2.0053e-05
0.0036934
1.0188e-07
4.0229e-05
0.0036024
5.9847e-05
0.003468
7.8451e-05
0.0032809
9.5953e-05
0.0030348
0.00011115
0.0027641
0.00012519
0.0023716
0.00013781
0.0020871
0.00014559
0.0016072
0.00015243
0.0012031
0.00015725
0.000749
0.00033368
0.00016091
2.0053e-05
0.0036732
1.0346e-07
4.0231e-05
0.0035822
5.9851e-05
0.0034484
7.8455e-05
0.0032623
9.5963e-05
0.0030173
0.00011117
0.0027489
0.00012517
0.0023576
0.00013782
0.0020744
0.00014569
0.0015994
0.0001525
0.0011963
0.0001573
0.0007442
0.00033005
0.00016093
2.0053e-05
0.0036531
1.0505e-07
4.0233e-05
0.003562
5.9855e-05
0.0034287
7.846e-05
0.0032437
9.5972e-05
0.0029998
0.00011119
0.0027337
0.00012515
0.0023436
0.00013784
0.0020617
0.00014578
0.0015914
0.00015256
0.0011895
0.00015735
0.00073942
0.00032645
0.00016094
2.0053e-05
0.0036329
1.0664e-07
4.0235e-05
0.0035419
5.9859e-05
0.0034091
7.8465e-05
0.003225
9.5982e-05
0.0029823
0.00011122
0.0027184
0.00012513
0.0023297
0.00013785
0.002049
0.00014587
0.0015834
0.00015263
0.0011827
0.0001574
0.00073465
0.00032288
0.00016096
2.0053e-05
0.0036127
1.0825e-07
4.0237e-05
0.0035217
5.9863e-05
0.0033895
7.8469e-05
0.0032064
9.5991e-05
0.0029648
0.00011124
0.0027032
0.00012512
0.0023158
0.00013786
0.0020363
0.00014595
0.0015753
0.0001527
0.001176
0.00015745
0.0007299
0.00031934
0.00016098
2.0053e-05
0.0035926
1.0986e-07
4.0238e-05
0.0035015
5.9867e-05
0.0033699
7.8474e-05
0.0031878
9.6e-05
0.0029472
0.00011127
0.0026879
0.0001251
0.002302
0.00013787
0.0020235
0.00014603
0.0015671
0.00015277
0.0011692
0.0001575
0.00072517
0.00031584
0.00016101
2.0053e-05
0.0035724
1.1149e-07
4.024e-05
0.0034813
5.9871e-05
0.0033502
7.8479e-05
0.0031692
9.601e-05
0.0029297
0.00011129
0.0026726
0.00012509
0.0022882
0.00013787
0.0020107
0.00014611
0.0015589
0.00015284
0.0011625
0.00015756
0.00072045
0.00031237
0.00016103
2.0053e-05
0.0035523
1.1313e-07
4.0242e-05
0.0034611
5.9874e-05
0.0033306
7.8484e-05
0.0031506
9.6019e-05
0.0029122
0.00011132
0.0026573
0.00012508
0.0022744
0.00013787
0.0019979
0.00014619
0.0015506
0.00015291
0.0011558
0.00015762
0.00071574
0.00030893
0.00016105
2.0053e-05
0.0035321
1.1477e-07
4.0244e-05
0.0034409
5.9879e-05
0.003311
7.8489e-05
0.003132
9.6027e-05
0.0028946
0.00011135
0.002642
0.00012507
0.0022607
0.00013787
0.0019851
0.00014626
0.0015422
0.00015298
0.0011491
0.00015767
0.00071105
0.00030553
0.00016108
2.0053e-05
0.0035119
1.1643e-07
4.0246e-05
0.0034207
5.9883e-05
0.0032913
7.8494e-05
0.0031134
9.6036e-05
0.0028771
0.00011137
0.0026267
0.00012506
0.002247
0.00013787
0.0019723
0.00014633
0.0015338
0.00015305
0.0011423
0.00015773
0.00070637
0.00030216
0.0001611
2.0053e-05
0.0034917
1.181e-07
4.0248e-05
0.0034005
5.9887e-05
0.0032717
7.85e-05
0.0030948
9.6045e-05
0.0028596
0.0001114
0.0026113
0.00012505
0.0022334
0.00013787
0.0019595
0.00014639
0.0015252
0.00015312
0.0011356
0.00015779
0.0007017
0.00029882
0.00016113
2.0053e-05
0.0034716
1.1978e-07
4.025e-05
0.0033803
5.9891e-05
0.003252
7.8505e-05
0.0030762
9.6053e-05
0.002842
0.00011143
0.002596
0.00012505
0.0022197
0.00013787
0.0019467
0.00014645
0.0015167
0.00015319
0.0011289
0.00015785
0.00069704
0.00029551
0.00016116
2.0054e-05
0.0034514
1.2147e-07
4.0252e-05
0.0033601
5.9895e-05
0.0032324
7.851e-05
0.0030575
9.6062e-05
0.0028245
0.00011145
0.0025806
0.00012505
0.0022061
0.00013787
0.0019338
0.00014651
0.001508
0.00015326
0.0011221
0.00015792
0.00069238
0.00029224
0.00016119
2.0054e-05
0.0034312
1.2318e-07
4.0254e-05
0.0033399
5.9899e-05
0.0032128
7.8516e-05
0.0030389
9.607e-05
0.0028069
0.00011148
0.0025652
0.00012505
0.0021926
0.00013786
0.001921
0.00014657
0.0014993
0.00015333
0.0011153
0.00015798
0.00068774
0.000289
0.00016122
2.0054e-05
0.003411
1.2489e-07
4.0256e-05
0.0033197
5.9904e-05
0.0031931
7.8522e-05
0.0030203
9.6079e-05
0.0027893
0.00011151
0.0025497
0.00012505
0.002179
0.00013786
0.0019082
0.00014662
0.0014905
0.0001534
0.0011086
0.00015804
0.0006831
0.0002858
0.00016125
2.0054e-05
0.0033909
1.2662e-07
4.0259e-05
0.0032995
5.9908e-05
0.0031735
7.8527e-05
0.0030017
9.6087e-05
0.0027718
0.00011154
0.0025343
0.00012505
0.0021655
0.00013785
0.0018954
0.00014667
0.0014817
0.00015346
0.0011018
0.0001581
0.00067846
0.00028262
0.00016127
2.0054e-05
0.0033707
1.2836e-07
4.0261e-05
0.0032793
5.9913e-05
0.0031538
7.8533e-05
0.0029831
9.6095e-05
0.0027542
0.00011157
0.0025188
0.00012505
0.002152
0.00013785
0.0018826
0.00014672
0.0014728
0.00015353
0.001095
0.00015816
0.00067383
0.00027947
0.0001613
2.0054e-05
0.0033505
1.3012e-07
4.0263e-05
0.0032591
5.9917e-05
0.0031341
7.8539e-05
0.0029645
9.6103e-05
0.0027367
0.00011159
0.0025033
0.00012506
0.0021386
0.00013785
0.0018698
0.00014677
0.0014639
0.00015359
0.0010881
0.00015822
0.00066921
0.00027636
0.00016134
2.0054e-05
0.0033303
1.3188e-07
4.0265e-05
0.0032389
5.9922e-05
0.0031145
7.8545e-05
0.0029458
9.6111e-05
0.0027191
0.00011162
0.0024878
0.00012507
0.0021251
0.00013784
0.0018571
0.00014681
0.001455
0.00015366
0.0010813
0.00015828
0.00066458
0.00027328
0.00016137
2.0054e-05
0.0033101
1.3366e-07
4.0267e-05
0.0032187
5.9926e-05
0.0030948
7.8551e-05
0.0029272
9.6119e-05
0.0027015
0.00011165
0.0024723
0.00012508
0.0021117
0.00013784
0.0018443
0.00014686
0.0014459
0.00015372
0.0010744
0.00015834
0.00065996
0.00027022
0.0001614
2.0055e-05
0.0032899
1.3546e-07
4.0269e-05
0.0031985
5.9931e-05
0.0030752
7.8557e-05
0.0029086
9.6127e-05
0.002684
0.00011168
0.0024567
0.00012509
0.0020983
0.00013784
0.0018315
0.0001469
0.0014369
0.00015378
0.0010676
0.0001584
0.00065534
0.0002672
0.00016143
2.0055e-05
0.0032697
1.3726e-07
4.0272e-05
0.0031783
5.9936e-05
0.0030555
7.8563e-05
0.00289
9.6135e-05
0.0026664
0.00011171
0.0024411
0.0001251
0.0020849
0.00013783
0.0018188
0.00014694
0.0014278
0.00015384
0.0010607
0.00015846
0.00065072
0.0002642
0.00016146
2.0055e-05
0.0032495
1.3909e-07
4.0274e-05
0.003158
5.9941e-05
0.0030358
7.857e-05
0.0028713
9.6143e-05
0.0026488
0.00011174
0.0024256
0.00012511
0.0020715
0.00013783
0.0018061
0.00014698
0.0014186
0.0001539
0.0010537
0.00015852
0.00064611
0.00026123
0.00016149
2.0055e-05
0.0032293
1.4092e-07
4.0276e-05
0.0031378
5.9946e-05
0.0030162
7.8576e-05
0.0028527
9.6151e-05
0.0026312
0.00011176
0.0024099
0.00012512
0.0020582
0.00013783
0.0017934
0.00014701
0.0014094
0.00015396
0.0010468
0.00015858
0.00064149
0.00025828
0.00016152
2.0055e-05
0.0032091
1.4278e-07
4.0279e-05
0.0031176
5.9951e-05
0.0029965
7.8583e-05
0.0028341
9.6159e-05
0.0026137
0.00011179
0.0023943
0.00012514
0.0020448
0.00013783
0.0017807
0.00014705
0.0014002
0.00015402
0.0010398
0.00015864
0.00063687
0.00025537
0.00016155
2.0055e-05
0.0031889
1.4464e-07
4.0281e-05
0.0030974
5.9956e-05
0.0029768
7.8589e-05
0.0028154
9.6167e-05
0.0025961
0.00011182
0.0023786
0.00012516
0.0020315
0.00013783
0.001768
0.00014709
0.001391
0.00015407
0.0010328
0.00015869
0.00063225
0.00025248
0.00016158
2.0056e-05
0.0031687
1.4652e-07
4.0283e-05
0.0030771
5.9961e-05
0.0029571
7.8596e-05
0.0027968
9.6175e-05
0.0025785
0.00011185
0.002363
0.00012517
0.0020182
0.00013783
0.0017553
0.00014712
0.0013817
0.00015413
0.0010258
0.00015875
0.00062762
0.00024961
0.00016162
2.0056e-05
0.0031485
1.4842e-07
4.0286e-05
0.0030569
5.9966e-05
0.0029375
7.8603e-05
0.0027782
9.6183e-05
0.0025609
0.00011188
0.0023473
0.00012519
0.0020049
0.00013784
0.0017427
0.00014716
0.0013724
0.00015418
0.0010188
0.00015881
0.000623
0.00024677
0.00016165
2.0056e-05
0.0031283
1.5034e-07
4.0288e-05
0.0030367
5.9971e-05
0.0029178
7.8609e-05
0.0027595
9.6191e-05
0.0025433
0.00011191
0.0023316
0.00012521
0.0019915
0.00013784
0.0017301
0.00014719
0.001363
0.00015424
0.0010117
0.00015886
0.00061837
0.00024395
0.00016168
2.0056e-05
0.0031081
1.5227e-07
4.0291e-05
0.0030164
5.9977e-05
0.0028981
7.8616e-05
0.0027409
9.6199e-05
0.0025258
0.00011193
0.0023158
0.00012523
0.0019782
0.00013784
0.0017175
0.00014722
0.0013536
0.00015429
0.0010047
0.00015892
0.00061375
0.00024116
0.00016171
2.0056e-05
0.0030879
1.5422e-07
4.0293e-05
0.0029962
5.9982e-05
0.0028784
7.8623e-05
0.0027222
9.6206e-05
0.0025082
0.00011196
0.0023001
0.00012526
0.001965
0.00013785
0.0017049
0.00014725
0.0013442
0.00015434
0.00099759
0.00015897
0.00060911
0.00023839
0.00016175
2.0057e-05
0.0030677
1.5618e-07
4.0296e-05
0.002976
5.9988e-05
0.0028587
7.863e-05
0.0027036
9.6214e-05
0.0024906
0.00011199
0.0022843
0.00012528
0.0019517
0.00013785
0.0016923
0.00014728
0.0013348
0.00015439
0.00099048
0.00015903
0.00060448
0.00023564
0.00016178
2.0057e-05
0.0030475
1.5817e-07
4.0298e-05
0.0029557
5.9993e-05
0.002839
7.8638e-05
0.0026849
9.6222e-05
0.002473
0.00011202
0.0022685
0.0001253
0.0019384
0.00013786
0.0016797
0.00014732
0.0013253
0.00015445
0.00098335
0.00015908
0.00059984
0.00023291
0.00016181
2.0057e-05
0.0030273
1.6017e-07
4.0301e-05
0.0029355
5.9999e-05
0.0028193
7.8645e-05
0.0026663
9.623e-05
0.0024554
0.00011205
0.0022527
0.00012533
0.0019251
0.00013787
0.0016672
0.00014735
0.0013159
0.0001545
0.0009762
0.00015914
0.0005952
0.0002302
0.00016184
2.0057e-05
0.003007
1.6219e-07
4.0303e-05
0.0029152
6.0005e-05
0.0027996
7.8653e-05
0.0026477
9.6238e-05
0.0024378
0.00011208
0.0022368
0.00012535
0.0019118
0.00013788
0.0016547
0.00014738
0.0013064
0.00015455
0.00096903
0.00015919
0.00059055
0.00022752
0.00016188
2.0058e-05
0.0029868
1.6423e-07
4.0306e-05
0.002895
6.0011e-05
0.0027799
7.866e-05
0.002629
9.6245e-05
0.0024203
0.0001121
0.002221
0.00012538
0.0018985
0.00013789
0.0016422
0.00014741
0.0012968
0.0001546
0.00096184
0.00015924
0.00058591
0.00022485
0.00016191
2.0058e-05
0.0029666
1.6629e-07
4.0309e-05
0.0028747
6.0017e-05
0.0027602
7.8668e-05
0.0026104
9.6253e-05
0.0024027
0.00011213
0.0022051
0.00012541
0.0018853
0.0001379
0.0016297
0.00014744