/*--------------------------------*- C++ -*----------------------------------*\
  =========                 |
  \\      /  F ield         | OpenFOAM: The Open Source CFD Toolbox
   \\    /   O peration     | Website:  https://openfoam.org
    \\  /    A nd           | Version:  6.0
     \\/     M anipulation  |
\*---------------------------------------------------------------------------*/
FoamFile
{
    version     2.0;
    format      ascii;
    class       surfaceScalarField;
    location    "3";
    object      phi;
}
// * * * * * * * * * * * * * * * * * * * * * * * * * * * * * * * * * * * * * //

dimensions      [0 3 -1 0 0 0 0];

internalField   nonuniform List<scalar> 
68636
(
3.67629e-05
0.00309918
2.8301e-08
7.43497e-05
0.00306428
0.000111774
0.00299505
0.000148236
0.00289171
0.000183052
0.00275633
0.000215826
0.00259134
0.000246168
0.00239896
0.0002738
0.00218089
0.000298403
0.00193926
0.000319724
0.00167628
0.000337508
0.00139479
0.000351566
0.00109766
0.00036177
0.000788216
0.00036774
0.000469479
0.00013732
0.000367192
3.64962e-05
0.00306261
5.04597e-08
7.37639e-05
0.00302698
0.000110779
0.00295793
0.000146778
0.00285558
0.000181119
0.00272178
0.000213441
0.00255883
0.000243367
0.00236879
0.000270632
0.0021534
0.00029491
0.00191473
0.000315959
0.001655
0.000333517
0.00137698
0.0003474
0.00108352
0.000357481
0.000777822
0.000363165
0.000463387
0.000136734
0.00036301
3.62076e-05
0.00302634
6.00625e-08
7.31201e-05
0.00299006
0.000109704
0.00292129
0.000145237
0.00282002
0.00017912
0.00268782
0.000211015
0.00252692
0.000240549
0.0023392
0.000267464
0.00212648
0.000291433
0.00189072
0.000312218
0.00163423
0.000329555
0.00135964
0.000343264
0.00106985
0.000353202
0.000767925
0.000358919
0.000457753
0.000136657
0.000359317
3.5876e-05
0.00299038
6.66446e-08
7.24062e-05
0.0029535
0.000108558
0.00288507
0.000143642
0.00278486
0.00017709
0.00265425
0.000208578
0.00249532
0.000237738
0.00230989
0.000264316
0.00209977
0.000287985
0.00186689
0.000308513
0.00161356
0.000325635
0.00134235
0.000339173
0.00105613
0.000348968
0.000757905
0.000354681
0.00045174
0.000135357
0.000355452
3.55233e-05
0.00295478
7.1275e-08
7.16582e-05
0.00291737
0.000107379
0.00284933
0.000142025
0.00275022
0.000175052
0.00262119
0.000206146
0.00246425
0.000234944
0.00228108
0.000261194
0.00207354
0.000284571
0.00184352
0.000304847
0.00159333
0.000321758
0.00132547
0.000335128
0.00104282
0.000344786
0.000748313
0.000350467
0.000446174
0.000134691
0.000351494
3.51547e-05
0.00291953
7.76223e-08
7.08858e-05
0.00288161
0.000106179
0.00281398
0.000140394
0.00271595
0.000173013
0.00258848
0.000203724
0.00243346
0.000232171
0.00225253
0.0002581
0.00204752
0.000281193
0.00182031
0.000301221
0.00157318
0.000317926
0.00130864
0.000331131
0.00102947
0.000340659
0.000738603
0.000346295
0.000440296
0.00013306
0.0003475
3.47746e-05
0.00288468
7.67391e-08
7.00966e-05
0.00284629
0.000104965
0.0027791
0.000138759
0.00268217
0.000170979
0.00255625
0.000201318
0.00240315
0.000229421
0.00222443
0.000255037
0.00202194
0.000277851
0.00179751
0.000297636
0.00155345
0.000314139
0.00129218
0.000327181
0.00101649
0.000336585
0.000729277
0.000342169
0.000434839
0.000132098
0.000343501
3.43869e-05
0.0028502
7.08198e-08
6.92972e-05
0.00281136
0.000103744
0.00274461
0.000137126
0.00264874
0.000168957
0.00252435
0.00019893
0.00237311
0.000226697
0.00219658
0.000252005
0.00199655
0.000274546
0.00177487
0.000294092
0.00153381
0.000310396
0.00127576
0.000323279
0.00100348
0.000332563
0.000719836
0.000338093
0.000429101
0.000130309
0.000339513
3.39946e-05
0.00281614
6.70281e-08
6.84926e-05
0.00277686
0.000102523
0.00271057
0.000135499
0.00261578
0.000166947
0.00249289
0.000196562
0.00234353
0.000224
0.00216916
0.000249006
0.00197158
0.000271278
0.00175263
0.00029059
0.00151454
0.000306697
0.0012597
0.000319423
0.000990827
0.000328591
0.000710751
0.000334064
0.000423762
0.00012919
0.000335548
3.35999e-05
0.00278246
6.38703e-08
6.76867e-05
0.00274275
0.000101306
0.00267691
0.000133882
0.00258316
0.000164955
0.00246176
0.000194218
0.00231421
0.000221332
0.00214198
0.00024604
0.0019468
0.000268047
0.00173054
0.000287127
0.00149538
0.000303043
0.00124369
0.000315614
0.000978143
0.000324669
0.000701556
0.000330084
0.000418164
0.000127332
0.000331613
3.32048e-05
0.00274919
6.12233e-08
6.68826e-05
0.00270908
0.000100095
0.0026437
0.000132277
0.00255099
0.000162981
0.00243105
0.000191897
0.00228533
0.000218692
0.0021152
0.000243107
0.00192242
0.000264854
0.00170882
0.000283706
0.00147658
0.000299431
0.00122802
0.000311851
0.000965793
0.000320796
0.000692698
0.000326152
0.000412946
0.000126135
0.000327711
3.28106e-05
0.0027163
5.83277e-08
6.60825e-05
0.00267578
9.88929e-05
0.00261085
0.000130687
0.00251916
0.000161027
0.00240067
0.000189601
0.0022567
0.000216081
0.00208866
0.000240208
0.00189823
0.000261697
0.00168725
0.000280325
0.00145787
0.000295862
0.00121239
0.000308133
0.00095342
0.00031697
0.000683732
0.000322268
0.00040748
0.000124254
0.000323846
3.24184e-05
0.00268383
5.7021e-08
6.5288e-05
0.00264292
9.77013e-05
0.00257844
0.000129113
0.00248776
0.000159093
0.00237069
0.00018733
0.00222849
0.0002135
0.00206251
0.000237342
0.00187442
0.000258577
0.00166605
0.000276984
0.00143952
0.000292336
0.00119709
0.000304459
0.000941367
0.00031319
0.000675089
0.00031843
0.000402381
0.000123018
0.00032002
3.20289e-05
0.00265173
5.60003e-08
6.45003e-05
0.00261042
9.65215e-05
0.00254639
0.000127556
0.00245669
0.000157181
0.00234102
0.000185086
0.00220054
0.000210949
0.00203659
0.000234509
0.0018508
0.000255495
0.001645
0.000273682
0.00142125
0.000288852
0.00118184
0.00030083
0.000929293
0.000309457
0.000666343
0.000314639
0.000397046
0.00012114
0.000316234
3.16427e-05
0.00262003
5.53083e-08
6.37201e-05
0.00257835
9.53542e-05
0.00251476
0.000126016
0.00242604
0.000155291
0.00231175
0.000182867
0.002173
0.000208427
0.00201105
0.00023171
0.00182756
0.000252448
0.00162429
0.000270419
0.00140333
0.000285409
0.00116691
0.000297244
0.000917529
0.000305768
0.000657909
0.000310893
0.000392066
0.000119891
0.000312489
3.12602e-05
0.0025887
5.47617e-08
6.29482e-05
0.00254663
9.42e-05
0.00248348
0.000124494
0.00239571
0.000153423
0.00228278
0.000180674
0.0021457
0.000205934
0.00198574
0.000228943
0.00180449
0.000249437
0.00160374
0.000267195
0.0013855
0.000282008
0.00115202
0.000293701
0.000905745
0.000302124
0.000649372
0.000307192
0.000386854
0.00011803
0.000308785
3.08816e-05
0.00255777
5.43382e-08
6.21849e-05
0.00251534
9.30592e-05
0.00245261
0.00012299
0.0023658
0.000151577
0.0022542
0.000178507
0.0021188
0.000203471
0.0019608
0.000226209
0.00178179
0.000246462
0.00158352
0.00026401
0.00136801
0.000278647
0.00113744
0.000290201
0.000894262
0.000298524
0.000641139
0.000303535
0.00038199
0.000116781
0.000305123
3.05072e-05
0.00252718
5.39352e-08
6.14304e-05
0.00248439
9.19319e-05
0.00242208
0.000121504
0.00233619
0.000149753
0.00222591
0.000176366
0.00209215
0.000201037
0.00193608
0.000223508
0.00175926
0.000243522
0.00156344
0.000260862
0.0013506
0.000275326
0.0011229
0.000286742
0.000882759
0.000294968
0.000632806
0.000299922
0.0003769
0.000114947
0.000301501
3.01371e-05
0.002497
5.35671e-08
6.06849e-05
0.00245385
9.08183e-05
0.00239196
0.000120037
0.00230699
0.000147951
0.00219801
0.00017425
0.00206588
0.000198632
0.00191173
0.000220838
0.00173709
0.000240617
0.0015437
0.000257752
0.00133351
0.000272044
0.00110867
0.000283325
0.000871548
0.000291454
0.000624768
0.000296352
0.00037215
0.00011371
0.000297922
2.97714e-05
0.00246715
5.31696e-08
5.99484e-05
0.00242364
8.97183e-05
0.00236216
0.000118587
0.00227808
0.000146171
0.00217039
0.00017216
0.00203985
0.000196256
0.00188759
0.000218201
0.0017151
0.000237747
0.0015241
0.000254679
0.00131652
0.000268802
0.00109447
0.000279949
0.000860318
0.000287982
0.000616632
0.000292825
0.000367177
0.000111908
0.000294383
2.941e-05
0.0024377
5.27624e-08
5.92209e-05
0.00239384
8.86319e-05
0.00233276
0.000117155
0.00224958
0.000144413
0.00214314
0.000170095
0.0020142
0.000193908
0.0018638
0.000215595
0.00169345
0.000234911
0.00150482
0.000251642
0.00129983
0.000265598
0.00108058
0.000276614
0.000849373
0.000284552
0.000608784
0.00028934
0.000362538
0.000110684
0.000290886
2.90531e-05
0.00240857
5.23077e-08
5.85025e-05
0.00236437
8.7559e-05
0.00230367
0.000115741
0.00222136
0.000142676
0.00211617
0.000168055
0.00198878
0.000191588
0.00184023
0.000213019
0.00167197
0.000232108
0.00148568
0.000248642
0.00128324
0.000262433
0.00106672
0.000273318
0.000838409
0.000281163
0.00060084
0.000285897
0.000357682
0.000108918
0.000287428
2.87005e-05
0.00237983
5.18389e-08
5.7793e-05
0.00233528
8.64994e-05
0.00227498
0.000114344
0.00219353
0.00014096
0.00208957
0.000166039
0.00196373
0.000189296
0.001817
0.000210475
0.00165082
0.000229339
0.00146685
0.000245678
0.00126695
0.000259306
0.00105315
0.000270062
0.000827724
0.000277815
0.000593177
0.000282494
0.000353153
0.000107715
0.000284012
2.83523e-05
0.0023514
5.13249e-08
5.70923e-05
0.00230652
8.5453e-05
0.00224659
0.000112964
0.00216599
0.000139265
0.00206324
0.000164048
0.0019389
0.000187032
0.00179397
0.000207961
0.00162984
0.000226603
0.00144816
0.000242749
0.00125074
0.000256216
0.00103962
0.000266845
0.000817018
0.000274507
0.000585419
0.000279133
0.000348408
0.000105987
0.000280636
2.80085e-05
0.00232336
5.07984e-08
5.64005e-05
0.00227814
8.44197e-05
0.00221859
0.000111602
0.00213883
0.00013759
0.00203726
0.000162081
0.00191444
0.000184794
0.00177129
0.000205477
0.0016092
0.0002239
0.00142977
0.000239855
0.00123483
0.000253163
0.00102637
0.000263666
0.000806584
0.000271238
0.000577937
0.000275811
0.000343986
0.000104804
0.000277299
2.76689e-05
0.00229561
5.02315e-08
5.57173e-05
0.00225006
8.33994e-05
0.00219088
0.000110257
0.00211194
0.000135937
0.00201155
0.000160138
0.0018902
0.000182584
0.0017488
0.000203023
0.00158871
0.000221229
0.00141151
0.000236996
0.00121901
0.000250147
0.00101315
0.000260526
0.00079613
0.000268009
0.000570362
0.000272529
0.000339353
0.000103115
0.000274002
2.73336e-05
0.00226824
4.96619e-08
5.50427e-05
0.00222236
8.23917e-05
0.00216354
0.000108928
0.00208542
0.000134303
0.00198619
0.000158218
0.00186631
0.0001804
0.00172665
0.000200598
0.00156855
0.00021859
0.00139356
0.000234171
0.00120347
0.000247166
0.00100021
0.000257423
0.000785943
0.000264819
0.000563056
0.000269286
0.000335036
0.000101958
0.000270743
2.70025e-05
0.00224117
4.90613e-08
5.43766e-05
0.00219496
8.13966e-05
0.00213649
0.000107615
0.00205917
0.00013269
0.00196108
0.000156322
0.00184265
0.000178242
0.00170469
0.000198203
0.00154854
0.000215982
0.00137573
0.000231379
0.00118802
0.000244222
0.000987308
0.000254357
0.000775734
0.000261666
0.000555657
0.000266082
0.00033051
0.000100311
0.000267523
2.66756e-05
0.00221446
4.84645e-08
5.37188e-05
0.00216793
8.04139e-05
0.00210981
0.000106319
0.00203328
0.000131096
0.00193632
0.000154449
0.00181932
0.00017611
0.00168306
0.000195836
0.00152885
0.000213406
0.0013582
0.000228621
0.00117285
0.000241312
0.000974675
0.000251329
0.000765787
0.000258552
0.000548522
0.000262916
0.000326296
9.91747e-05
0.000264342
2.63527e-05
0.00218803
4.78411e-08
5.30692e-05
0.00214119
7.94435e-05
0.00208341
0.000105039
0.00200765
0.000129521
0.00191181
0.000152598
0.00179621
0.000174004
0.00166162
0.000193497
0.00150931
0.000210861
0.00134079
0.000225896
0.00115775
0.000238438
0.000962073
0.000248336
0.000755818
0.000255475
0.000541297
0.000259788
0.000321877
9.75712e-05
0.000261197
2.60339e-05
0.00216197
4.72305e-08
5.24278e-05
0.00211481
7.84851e-05
0.00205737
0.000103775
0.00198238
0.000127966
0.00188764
0.000150769
0.00177343
0.000171924
0.00164049
0.000191187
0.00149008
0.000208346
0.00132367
0.000223204
0.00114294
0.000235598
0.000949736
0.00024538
0.000746104
0.000252435
0.00053433
0.000256697
0.000317764
9.65026e-05
0.00025809
2.5719e-05
0.00213617
4.65999e-08
5.17944e-05
0.00208871
7.75386e-05
0.0020316
0.000102526
0.00195736
0.00012643
0.0018637
0.000148963
0.00175086
0.000169868
0.00161955
0.000188904
0.001471
0.000205861
0.00130667
0.000220544
0.0011282
0.000232792
0.000937429
0.000242458
0.000736368
0.000249431
0.000527273
0.000253644
0.000313448
9.49432e-05
0.00025502
2.54081e-05
0.00211074
4.59867e-08
5.11689e-05
0.00206296
7.66039e-05
0.00200618
0.000101292
0.00193269
0.000124913
0.0018401
0.000147179
0.00172862
0.000167837
0.00159893
0.000186648
0.00145222
0.000203406
0.00128995
0.000217916
0.00111374
0.000230019
0.000925382
0.000239572
0.000726883
0.000246463
0.00052047
0.000250628
0.000309435
9.39193e-05
0.000251986
2.51011e-05
0.00208556
4.53554e-08
5.05512e-05
0.00203748
7.56808e-05
0.00198103
0.000100074
0.00190827
0.000123414
0.00181673
0.000145416
0.00170658
0.00016583
0.00157847
0.00018442
0.00143359
0.00020098
0.00127334
0.00021532
0.00109934
0.00022728
0.000913363
0.000236721
0.000717375
0.000243531
0.000513577
0.000247648
0.00030522
9.23927e-05
0.000248988
2.47979e-05
0.00206074
4.47493e-08
4.99411e-05
0.00201236
7.4769e-05
0.00195622
9.8871e-05
0.00188418
0.000121933
0.00179369
0.000143675
0.00168487
0.000163848
0.00155833
0.000182219
0.00141525
0.000198584
0.00125702
0.000212754
0.00108522
0.000224574
0.0009016
0.000233904
0.000708112
0.000240635
0.000506934
0.000244704
0.000301302
9.1438e-05
0.000246025
2.44985e-05
0.00203617
4.4129e-08
4.93387e-05
0.00198749
7.38686e-05
0.00193166
9.76825e-05
0.00186034
0.00012047
0.00177087
0.000141955
0.00166335
0.00016189
0.00153836
0.000180044
0.00139705
0.000196216
0.0012408
0.00021022
0.00107116
0.0002219
0.000889861
0.00023112
0.000698825
0.000237773
0.000500201
0.000241797
0.000297183
8.99346e-05
0.000243098
2.42028e-05
0.00201194
4.35384e-08
4.87437e-05
0.00196296
7.29792e-05
0.00190744
9.65086e-05
0.00183683
0.000119026
0.00174837
0.000140255
0.00164214
0.000159955
0.00151869
0.000177895
0.00137915
0.000193877
0.00122486
0.000207715
0.00105736
0.000219258
0.000878373
0.000228371
0.00068978
0.000234945
0.000493713
0.000238924
0.000293356
8.90224e-05
0.000240206
2.39108e-05
0.00198796
4.2933e-08
4.81561e-05
0.00193869
7.21008e-05
0.00188347
9.53491e-05
0.00181355
0.000117598
0.00172609
0.000138577
0.00162113
0.000158043
0.00149919
0.000175772
0.00136138
0.000191566
0.00120902
0.000205241
0.00104364
0.000216649
0.000866909
0.000225654
0.00068071
0.000232152
0.000487138
0.000236087
0.000289328
8.75375e-05
0.000237348
2.36224e-05
0.00196432
4.23616e-08
4.75758e-05
0.00191475
7.12333e-05
0.00185983
9.42038e-05
0.0017906
0.000116189
0.00170413
0.000136918
0.00160043
0.000156155
0.00147999
0.000173674
0.00134389
0.000189282
0.00119345
0.000202797
0.00103016
0.00021407
0.000855691
0.00022297
0.000671877
0.000229392
0.000480801
0.000233284
0.000285588
8.66451e-05
0.000234526
2.33376e-05
0.00194091
4.17775e-08
4.70026e-05
0.00189106
7.03764e-05
0.00183643
9.30725e-05
0.00176787
0.000114796
0.00168238
0.00013528
0.00157991
0.000154289
0.00146094
0.000171602
0.00132654
0.000187026
0.00117798
0.000200382
0.00101676
0.000211522
0.000844494
0.000220318
0.000663018
0.000226665
0.000474378
0.000230514
0.000281649
8.51777e-05
0.000231736
2.30563e-05
0.00191783
4.1229e-08
4.64366e-05
0.0018677
6.95301e-05
0.00181336
9.19551e-05
0.00174547
0.00011342
0.00166093
0.000133661
0.00155969
0.000152446
0.00144219
0.000169555
0.00130946
0.000184798
0.00116278
0.000197996
0.0010036
0.000209006
0.000833539
0.000217698
0.000654392
0.000223971
0.000468189
0.000227777
0.000277993
8.42913e-05
0.000228981
2.27785e-05
0.00189499
4.06664e-08
4.58775e-05
0.00184457
6.86941e-05
0.00179051
9.08513e-05
0.00172328
0.000112061
0.00163969
0.000132062
0.00153966
0.000150625
0.00142359
0.000167532
0.00129251
0.000182596
0.00114767
0.000195639
0.000990506
0.000206519
0.000822602
0.000215109
0.000645739
0.00022131
0.000461915
0.000225073
0.000274143
8.28446e-05
0.000226258
2.25041e-05
0.00187246
4.01414e-08
4.53253e-05
0.00182177
6.78684e-05
0.00176799
8.9761e-05
0.00170141
0.000110719
0.00161876
0.000130482
0.00151992
0.000148826
0.00140528
0.000165534
0.00127584
0.00018042
0.00113282
0.00019331
0.00097766
0.000204062
0.000811904
0.000212552
0.000637315
0.000218681
0.000455871
0.000222401
0.000270571
8.19626e-05
0.00022357
2.22331e-05
0.00185016
3.96029e-08
4.47799e-05
0.00179919
6.70529e-05
0.00174569
8.8684e-05
0.00167975
0.000109392
0.00159802
0.000128922
0.00150035
0.000147049
0.00138712
0.00016356
0.00125929
0.000178271
0.00111807
0.000191009
0.00096487
0.000201635
0.000801222
0.000210025
0.000628863
0.000216083
0.000449741
0.000219762
0.000266808
8.0542e-05
0.000220912
2.19654e-05
0.00182818
3.91012e-08
4.42412e-05
0.00177694
6.62473e-05
0.0017237
8.76202e-05
0.00165839
0.000108082
0.00157758
0.00012738
0.00148108
0.000145293
0.00136924
0.000161609
0.001243
0.000176147
0.00110357
0.000188736
0.000952324
0.000199237
0.000790775
0.000207529
0.000620636
0.000213517
0.000443837
0.000217153
0.000263318
7.96665e-05
0.000218288
2.17011e-05
0.00180641
3.85836e-08
4.37092e-05
0.0017549
6.54516e-05
0.00170193
8.65693e-05
0.00163724
0.000106788
0.00155733
0.000125857
0.00146198
0.000143559
0.0013515
0.000159682
0.00122684
0.000174049
0.00108916
0.00018649
0.000939833
0.000196868
0.000780342
0.000205063
0.00061238
0.000210981
0.000437849
0.000214577
0.000259641
7.82784e-05
0.000215695
2.14399e-05
0.00178495
3.81038e-08
4.31836e-05
0.00173317
6.46657e-05
0.00168047
8.55313e-05
0.0016164
0.00010551
0.00153738
0.000124353
0.00144316
0.000141845
0.00133404
0.000157779
0.00121094
0.000171977
0.00107501
0.000184271
0.000927581
0.000194528
0.000770139
0.000202627
0.000604345
0.000208476
0.000432084
0.000212031
0.000256232
7.74129e-05
0.000213134
2.1182e-05
0.00176371
3.76083e-08
4.26645e-05
0.00171166
6.38893e-05
0.00165922
8.45059e-05
0.00159575
0.000104247
0.0015176
0.000122867
0.00142451
0.000140152
0.00131672
0.000155898
0.00119515
0.000169929
0.00106093
0.000182079
0.00091538
0.000192215
0.000759948
0.00020022
0.00059628
0.000206002
0.000426233
0.000209516
0.00025264
7.60597e-05
0.000210603
2.09273e-05
0.00174276
3.71495e-08
4.21518e-05
0.00169046
6.31225e-05
0.00163827
8.3493e-05
0.0015754
0.000102999
0.00149812
0.000121398
0.00140614
0.00013848
0.00129967
0.00015404
0.00117963
0.000167906
0.00104711
0.000179914
0.000903416
0.000189931
0.000749984
0.000197842
0.000588434
0.000203557
0.000420601
0.000207031
0.000249309
7.52066e-05
0.000208104
2.06757e-05
0.00172203
3.66727e-08
4.16454e-05
0.00166946
6.2365e-05
0.00161753
8.24924e-05
0.00155525
0.000101767
0.00147882
0.000119948
0.00138792
0.000136828
0.00128276
0.000152204
0.00116421
0.000165908
0.00103336
0.000177774
0.0008915
0.000187674
0.00074003
0.000195492
0.000580556
0.000201141
0.000414886
0.000204576
0.0002458
7.3891e-05
0.000205634
2.04271e-05
0.00170158
3.62325e-08
4.11451e-05
0.00164876
6.16167e-05
0.00159708
8.1504e-05
0.00153538
0.000100549
0.0014598
0.000118515
0.00136998
0.000135195
0.00126611
0.000150391
0.00114905
0.000163933
0.00101986
0.00017566
0.000879815
0.000185444
0.000730299
0.000193172
0.000572892
0.000198755
0.000409386
0.00020215
0.000242547
7.30527e-05
0.000203194
2.01817e-05
0.00168134
3.57743e-08
4.0651e-05
0.00162826
6.08776e-05
0.00157682
8.05276e-05
0.0015157
9.93467e-05
0.00144095
0.000117099
0.00135219
0.000133583
0.0012496
0.000148599
0.00113399
0.000161983
0.00100644
0.000173572
0.000868176
0.000183242
0.000720576
0.000190879
0.000565196
0.000196397
0.000403801
0.000199753
0.000239118
7.17741e-05
0.000200783
1.99392e-05
0.00166139
3.53505e-08
4.01629e-05
0.00160806
6.01474e-05
0.00155686
7.95631e-05
0.00149631
9.81585e-05
0.00142238
0.000115701
0.00133468
0.00013199
0.00123334
0.000146829
0.00111919
0.000160056
0.000993254
0.000171509
0.000856765
0.000181066
0.000711072
0.000188613
0.000557712
0.000194068
0.00039843
0.000197386
0.000235941
7.09515e-05
0.000198402
1.96997e-05
0.00164163
3.49059e-08
3.96807e-05
0.00158805
5.94262e-05
0.00153709
7.86103e-05
0.00147709
9.69848e-05
0.00140397
0.000114319
0.00131731
0.000130416
0.00121721
0.000145081
0.00110448
0.000158152
0.000980143
0.000169471
0.000845396
0.000178916
0.000701575
0.000186375
0.000550194
0.000191767
0.000392974
0.000195047
0.000232592
6.97104e-05
0.000196049
1.94631e-05
0.00162215
3.44958e-08
3.92045e-05
0.00156833
5.87138e-05
0.0015176
7.76691e-05
0.00145816
9.58253e-05
0.00138585
0.000112954
0.00130021
0.000128861
0.00120134
0.000143353
0.00109003
0.000156271
0.000967267
0.000167458
0.000834252
0.000176792
0.000692293
0.000184164
0.000542884
0.000189494
0.000387727
0.000192736
0.000229489
6.89044e-05
0.000193726
1.92294e-05
0.00160286
3.40651e-08
3.87341e-05
0.0015488
5.801e-05
0.0014983
7.67393e-05
0.0014394
9.46798e-05
0.00136787
0.000111606
0.00128325
0.000127325
0.00118559
0.000141647
0.00107566
0.000154413
0.000954461
0.000165469
0.000823147
0.000174694
0.000683016
0.00018198
0.000535539
0.000187248
0.000382397
0.000190453
0.000226216
6.76989e-05
0.000191429
1.89985e-05
0.00158385
3.36671e-08
3.82693e-05
0.00152955
5.73148e-05
0.00147928
7.58209e-05
0.00142092
9.35482e-05
0.00135018
0.000110274
0.00126655
0.000125808
0.00117009
0.000139961
0.00106155
0.000152578
0.000941886
0.000163504
0.000812263
0.000172621
0.00067395
0.000179823
0.0005284
0.000185029
0.000377272
0.000188197
0.000223186
6.69099e-05
0.000189161
1.87705e-05
0.00156502
3.32464e-08
3.78103e-05
0.00151048
5.66281e-05
0.00146043
7.49135e-05
0.0014026
9.24304e-05
0.00133263
0.000108958
0.00124998
0.000124309
0.0011547
0.000138296
0.00104752
0.000150764
0.000929379
0.000161563
0.000801416
0.000170573
0.000664888
0.000177691
0.000521225
0.000182837
0.000372065
0.000185969
0.000219989
6.574e-05
0.00018692
1.85453e-05
0.00154647
3.28578e-08
3.73568e-05
0.00149169
5.59497e-05
0.00144186
7.40172e-05
0.00138456
9.13261e-05
0.00131535
0.000107658
0.00123368
0.000122828
0.00113957
0.00013665
0.00103373
0.000148973
0.000917098
0.000159645
0.000790787
0.00016855
0.000656034
0.000175585
0.000514252
0.000180672
0.00036706
0.000183768
0.00021703
6.49684e-05
0.000184707
1.83228e-05
0.00152808
3.24465e-08
3.69089e-05
0.00147307
5.52795e-05
0.00142346
7.31318e-05
0.00136667
9.02352e-05
0.00129821
0.000106374
0.00121751
0.000121365
0.00112455
0.000135025
0.00102003
0.000147203
0.000904881
0.00015775
0.000780191
0.000166551
0.00064718
0.000173505
0.000507242
0.000178532
0.000361971
0.000181593
0.000213907
6.38318e-05
0.00018252
1.8103e-05
0.00150997
3.2065e-08
3.64664e-05
0.00145473
5.46175e-05
0.00140534
7.22571e-05
0.00134906
8.91575e-05
0.00128134
0.000105106
0.00120159
0.00011992
0.00110977
0.000133419
0.00100657
0.000145455
0.000892888
0.000155879
0.000769809
0.000164577
0.000638533
0.000171449
0.000500431
0.000176419
0.000357082
0.000179444
0.000211016
6.30777e-05
0.00018036
1.78859e-05
0.00149203
3.16584e-08
3.60293e-05
0.00143656
5.39635e-05
0.00138738
7.1393e-05
0.0013316
8.80929e-05
0.00126461
0.000103852
0.00118579
0.000118492
0.0010951
0.000131833
0.000993189
0.000143727
0.000880955
0.00015403
0.000759459
0.000162627
0.000629884
0.000169419
0.000493582
0.000174331
0.000352111
0.000177322
0.000207965
6.19742e-05
0.000178225
1.76715e-05
0.00147435
3.12814e-08
3.55975e-05
0.00141866
5.33175e-05
0.00136968
7.05394e-05
0.0013144
8.70411e-05
0.00124814
0.000102614
0.00117025
0.000117081
0.00108067
0.000130266
0.00098004
0.000142021
0.000869243
0.000152203
0.00074932
0.0001607
0.000621437
0.000167414
0.00048693
0.000172269
0.000347336
0.000175225
0.000205142
6.12378e-05
0.000176118
1.74596e-05
0.00145683
3.08799e-08
3.5171e-05
0.00140092
5.26793e-05
0.00135215
6.96962e-05
0.00129735
8.60022e-05
0.0012318
0.000101391
0.00115482
0.000115688
0.00106634
0.000128717
0.000966971
0.000140336
0.000857586
0.000150399
0.000739209
0.000158797
0.000612987
0.000165432
0.000480238
0.000170232
0.000342477
0.000173154
0.000202161
6.01653e-05
0.000174035
1.72503e-05
0.00143958
3.0506e-08
3.47497e-05
0.00138344
5.20489e-05
0.00133487
6.88631e-05
0.00128056
8.49758e-05
0.00121572
0.000100183
0.00113965
0.000114311
0.00105224
0.000127188
0.000954131
0.00013867
0.000846147
0.000148616
0.000729306
0.000156916
0.000604737
0.000163475
0.00047374
0.000168219
0.000337813
0.000171107
0.000199404
5.94464e-05
0.000171978
1.70436e-05
0.00142248
3.01058e-08
3.43334e-05
0.00136612
5.14261e-05
0.00131775
6.80402e-05
0.00126392
8.39618e-05
0.00119977
9.89893e-05
0.00112458
0.000112951
0.00103825
0.000125677
0.000941367
0.000137025
0.000834761
0.000146856
0.000719429
0.000155059
0.000596482
0.000161541
0.000467202
0.000166231
0.000333066
0.000169086
0.000196492
5.84046e-05
0.000169945
1.68394e-05
0.00140563
2.97326e-08
3.39222e-05
0.00134906
5.08108e-05
0.00130089
6.72272e-05
0.00124753
8.29601e-05
0.00118406
9.78102e-05
0.00110977
0.000111608
0.00102449
0.000124185
0.000928827
0.0001354
0.00082359
0.000145116
0.000709756
0.000153224
0.000588424
0.000159631
0.000460855
0.000164267
0.00032851
0.000167089
0.000193799
5.77036e-05
0.000167937
1.66377e-05
0.00138894
2.93334e-08
3.35161e-05
0.00133216
5.02031e-05
0.00128417
6.64242e-05
0.00123127
8.19706e-05
0.00116849
9.66453e-05
0.00109506
0.000110281
0.00101082
0.00012271
0.000916359
0.000133795
0.000812467
0.000143398
0.000700107
0.000151412
0.000580358
0.000157744
0.000454466
0.000162327
0.000323871
0.000165116
0.000190953
5.66904e-05
0.000165954
1.64384e-05
0.0013725
2.89588e-08
3.31148e-05
0.00131551
4.96026e-05
0.00126772
6.56308e-05
0.00121527
8.09931e-05
0.00115316
9.54946e-05
0.00108059
0.00010897
0.000997382
0.000121254
0.000904113
0.000132209
0.000801556
0.0001417
0.000690659
0.000149621
0.000572486
0.000155881
0.000448266
0.00016041
0.000319421
0.000163167
0.000188323
5.6007e-05
0.000163995
1.62416e-05
0.0013562
2.85561e-08
3.27184e-05
0.001299
4.90095e-05
0.0012514
6.48471e-05
0.0011994
8.00274e-05
0.00113794
9.43578e-05
0.00106622
0.000107675
0.000984032
0.000119815
0.000891934
0.000130643
0.00079069
0.000140023
0.000681232
0.000147852
0.000564606
0.000154039
0.000442024
0.000158517
0.000314888
0.000161242
0.000185543
5.50224e-05
0.000162059
1.60472e-05
0.00134015
2.81779e-08
3.23268e-05
0.00128274
4.84236e-05
0.00123533
6.40728e-05
0.00118378
7.90734e-05
0.00112298
9.32348e-05
0.00105209
0.000106396
0.00097091
0.000118394
0.000879974
0.000129095
0.000780033
0.000138367
0.000672003
0.000146105
0.000556917
0.000152221
0.000435967
0.000156646
0.000310541
0.000159341
0.000182974
5.43567e-05
0.000160148
1.58551e-05
0.00132424
2.77723e-08
3.194e-05
0.00126663
4.78448e-05
0.00121939
6.3308e-05
0.00116829
7.8131e-05
0.00110812
9.21255e-05
0.00103806
0.000105132
0.00095787
0.00011699
0.000868078
0.000127567
0.000769419
0.000136731
0.000662793
0.000144379
0.000549217
0.000150424
0.000429866
0.000154799
0.00030611
0.000157462
0.000180257
5.33988e-05
0.000158259
1.56654e-05
0.00130857
2.73893e-08
3.15579e-05
0.00125076
4.72729e-05
0.00120371
6.25524e-05
0.00115304
7.72e-05
0.00109351
9.10296e-05
0.00102426
0.000103883
0.000945056
0.000115603
0.000856397
0.000126057
0.00075901
0.000135114
0.000653779
0.000142674
0.000541705
0.000148649
0.00042395
0.000152974
0.000301863
0.000155607
0.000177748
5.27505e-05
0.000156394
1.54779e-05
0.00129304
2.69773e-08
3.11804e-05
0.00123503
4.67081e-05
0.00118815
6.18059e-05
0.00113791
7.62803e-05
0.001079
8.9947e-05
0.00101056
0.00010265
0.00093232
0.000114233
0.000844776
0.000124565
0.00074864
0.000133518
0.00064478
0.00014099
0.000534181
0.000146896
0.000417989
0.000151171
0.000297533
0.000153774
0.000175093
5.18194e-05
0.000154551
1.52928e-05
0.00127775
2.65872e-08
3.08075e-05
0.00121954
4.615e-05
0.00117284
6.10685e-05
0.00112302
7.53718e-05
0.00106473
8.88775e-05
0.000997089
0.000101432
0.000919806
0.000112879
0.000833368
0.000123092
0.000738473
0.00013194
0.000635975
0.000139327
0.000526843
0.000145164
0.000412208
0.000149391
0.000293385
0.000151963
0.000172643
5.11886e-05
0.000152731
1.51099e-05
0.00126259
2.61687e-08
3.04391e-05
0.00120418
4.55988e-05
0.00115765
6.03401e-05
0.00110824
7.44743e-05
0.00105057
8.7821e-05
0.000983706
0.000100228
0.000907365
0.000111542
0.000822016
0.000121636
0.000728342
0.000130382
0.000627182
0.000137683
0.000519491
0.000143454
0.000406382
0.000147632
0.000289153
0.000150175
0.000170048
5.02825e-05
0.000150932
1.49292e-05
0.00124766
2.57694e-08
3.00752e-05
0.00118906
4.50542e-05
0.0011427
5.96205e-05
0.00109371
7.35876e-05
0.00103663
8.67774e-05
0.000970551
9.90395e-05
0.000895144
0.000110221
0.000810874
0.000120198
0.000718411
0.000128844
0.000618581
0.00013606
0.000512322
0.000141764
0.000400735
0.000145894
0.0002851
0.000148408
0.000167655
4.9669e-05
0.000149156
1.47508e-05
0.00123286
2.53399e-08
2.97157e-05
0.00117407
4.45162e-05
0.00112787
5.89096e-05
0.00107928
7.27118e-05
0.0010228
8.57465e-05
0.00095748
9.78651e-05
0.000882993
0.000108917
0.000799784
0.000118778
0.000708513
0.000127323
0.00060999
0.000134457
0.000505138
0.000140095
0.000395041
0.000144178
0.000280964
0.000146663
0.000165119
4.87881e-05
0.000147402
1.45745e-05
0.00121829
2.49296e-08
2.93605e-05
0.00115931
4.39847e-05
0.00111328
5.82074e-05
0.00106509
7.18465e-05
0.0010092
8.4728e-05
0.000944634
9.6705e-05
0.000871057
0.000107628
0.000788902
0.000117375
0.000698813
0.000125822
0.000601587
0.000132873
0.000498134
0.000138446
0.000389524
0.000142483
0.000277005
0.000144939
0.000162781
4.81918e-05
0.000145669
1.44003e-05
0.00120383
2.44897e-08
2.90097e-05
0.00114467
4.34597e-05
0.0010988
5.75136e-05
0.001051
7.09918e-05
0.000995687
8.3722e-05
0.000931867
9.5559e-05
0.000859187
0.000106355
0.000778067
0.000115989
0.000689141
0.000124339
0.000593191
0.000131309
0.000491113
0.000136818
0.000383959
0.000140808
0.000272961
0.000143236
0.000160303
4.73345e-05
0.000143957
1.42283e-05
0.00118961
2.40669e-08
2.86631e-05
0.00113027
4.2941e-05
0.00108455
5.68283e-05
0.00103715
7.01475e-05
0.000982404
8.27282e-05
0.000919323
9.4427e-05
0.000847531
0.000105098
0.000767438
0.00011462
0.000679665
0.000122873
0.000584983
0.000129763
0.00048427
0.00013521
0.000378568
0.000139154
0.000269093
0.000141555
0.00015802
4.67552e-05
0.000142266
1.40584e-05
0.0011755
2.36134e-08
2.83207e-05
0.00111597
4.24287e-05
0.00107042
5.61513e-05
0.00102339
6.93134e-05
0.000969211
8.17466e-05
0.000906854
9.33088e-05
0.000835935
0.000103856
0.000756854
0.000113268