/*--------------------------------*- C++ -*----------------------------------*\
  =========                 |
  \\      /  F ield         | OpenFOAM: The Open Source CFD Toolbox
   \\    /   O peration     | Website:  https://openfoam.org
    \\  /    A nd           | Version:  6.0
     \\/     M anipulation  |
\*---------------------------------------------------------------------------*/
FoamFile
{
    version     2.0;
    format      ascii;
    class       volVectorField;
    location    "3";
    object      U;
}
// * * * * * * * * * * * * * * * * * * * * * * * * * * * * * * * * * * * * * //

dimensions      [0 1 -1 0 0 0 0];

internalField   nonuniform List<vector> 
34500
(
(1 0.000179323 -9.607e-18)
(0.999852 0.000245253 9.24105e-17)
(0.999548 -4.34657e-06 2.33966e-17)
(0.999174 -0.00046427 -1.36919e-17)
(0.998868 -0.0009317 1.35029e-16)
(0.998693 -0.00128862 3.10193e-16)
(0.998649 -0.00153406 1.55864e-17)
(0.998689 -0.00171197 -2.4218e-16)
(0.998776 -0.00187065 3.73326e-16)
(0.998888 -0.0020428 -2.15895e-17)
(0.999011 -0.00226204 -2.83054e-16)
(0.999144 -0.00256868 -4.66022e-16)
(0.999284 -0.00303575 2.17632e-16)
(0.999728 -0.00389651 4.49673e-16)
(0.992811 -0.00880397 -4.06128e-16)
(0.999969 -3.89953e-05 -3.04208e-17)
(0.99955 -0.000534721 -8.22271e-17)
(0.998852 -0.0012395 1.94098e-16)
(0.998134 -0.00198932 -1.07282e-16)
(0.997614 -0.00261305 -6.9748e-17)
(0.997361 -0.00303434 -6.09493e-16)
(0.997318 -0.00332771 1.00352e-16)
(0.997425 -0.00356181 1.61684e-16)
(0.997598 -0.00381639 -2.78962e-16)
(0.997821 -0.00411373 -4.57084e-16)
(0.99805 -0.00452862 -1.93984e-16)
(0.998298 -0.00511744 -3.99433e-16)
(0.998548 -0.00602522 -3.09761e-16)
(0.999222 -0.00750794 -5.95344e-16)
(0.993013 -0.0132236 7.31225e-16)
(0.999899 -0.000243797 -2.26635e-17)
(0.999408 -0.00113904 1.00726e-16)
(0.998612 -0.00207489 3.61109e-17)
(0.997814 -0.00289112 -4.67799e-17)
(0.997243 -0.0034935 -1.1172e-16)
(0.996963 -0.00386529 6.56337e-17)
(0.996916 -0.00411764 -5.82344e-17)
(0.997035 -0.00433288 -8.98843e-17)
(0.997232 -0.00458744 4.68965e-16)
(0.997486 -0.00490473 -2.5916e-16)
(0.997751 -0.00535327 3.59166e-16)
(0.998038 -0.00599278 5.21771e-16)
(0.998323 -0.00695755 -3.49417e-16)
(0.999 -0.00838553 3.2004e-16)
(0.994878 -0.0132976 -5.37907e-17)
(0.999793 -0.000377684 4.08954e-18)
(0.999288 -0.00152989 -1.67082e-16)
(0.998474 -0.00260681 -1.6807e-16)
(0.997661 -0.00345758 7.59332e-17)
(0.997073 -0.00404172 -2.80158e-16)
(0.996779 -0.00438056 1.40537e-16)
(0.996725 -0.00460426 3.41667e-16)
(0.996844 -0.00480497 -2.5068e-16)
(0.997051 -0.00505335 -9.83814e-16)
(0.997319 -0.00537657 3.19093e-16)
(0.997603 -0.00583395 -4.92244e-17)
(0.997911 -0.00648728 2.71366e-16)
(0.998215 -0.00745845 4.37921e-16)
(0.998842 -0.00880856 -2.63669e-16)
(0.996113 -0.0133297 -2.06509e-16)
(0.999659 -0.000475903 4.96148e-17)
(0.99916 -0.00181131 9.53486e-17)
(0.998356 -0.00298371 -1.22598e-16)
(0.997554 -0.00385451 5.15631e-17)
(0.99697 -0.00442405 3.44168e-16)
(0.996673 -0.00474098 4.40249e-16)
(0.996617 -0.00494556 -8.849e-16)
(0.996735 -0.00513686 3.41372e-16)
(0.99695 -0.00537939 9.38481e-16)
(0.997226 -0.00570473 -3.91462e-16)
(0.997523 -0.00616374 -1.14502e-16)
(0.997844 -0.00682066 -3.02982e-17)
(0.998159 -0.00778855 -2.71387e-16)
(0.998732 -0.00908129 6.03469e-16)
(0.996934 -0.0133631 -4.05434e-16)
(0.999506 -0.00054511 2.87991e-17)
(0.999025 -0.00200684 3.56546e-17)
(0.99825 -0.00324087 1.29232e-16)
(0.997478 -0.00412236 -1.48683e-16)
(0.996912 -0.00468188 -6.65507e-17)
(0.99662 -0.00498686 -4.14367e-16)
(0.996566 -0.00518127 3.27392e-16)
(0.996683 -0.00536872 -8.2901e-17)
(0.996902 -0.00560775 -3.75999e-16)
(0.997183 -0.00593451 7.53706e-16)
(0.997487 -0.00639274 1.43868e-16)
(0.997817 -0.00704946 4.03199e-17)
(0.99814 -0.0080114 4.26274e-16)
(0.998662 -0.00926202 -1.22675e-15)
(0.997517 -0.0133828 4.74331e-16)
(0.999338 -0.000591297 -5.01248e-17)
(0.998883 -0.00213648 5.66186e-17)
(0.998147 -0.00340858 9.96563e-17)
(0.997415 -0.00429651 2.8024e-16)
(0.996875 -0.00485198 7.76301e-17)
(0.996594 -0.00515443 3.51533e-16)
(0.996544 -0.00534724 -1.50734e-16)
(0.996661 -0.00553651 -6.45627e-16)
(0.996883 -0.00577573 -5.83321e-16)
(0.997168 -0.00610505 -8.00055e-16)
(0.997479 -0.00656305 -3.39783e-16)
(0.997813 -0.00721942 1.30484e-17)
(0.998142 -0.00817667 -3.14248e-16)
(0.998622 -0.00939804 1.04528e-15)
(0.997948 -0.0134082 -1.39762e-16)
(0.999162 -0.000619838 -3.26493e-17)
(0.998735 -0.00221673 -2.30144e-17)
(0.998042 -0.00351057 -4.62928e-17)
(0.997354 -0.00440326 -1.50381e-16)
(0.996845 -0.00496041 1.10812e-16)
(0.996578 -0.00526835 4.16711e-18)
(0.996535 -0.00546684 1.06954e-16)
(0.996655 -0.00566308 6.94973e-16)
(0.996881 -0.00590616 5.63465e-17)
(0.997169 -0.00623996 -3.14061e-16)
(0.997484 -0.00669928 4.34907e-16)
(0.997824 -0.0073565 -3.97768e-17)
(0.998157 -0.00831113 -7.75393e-18)
(0.998603 -0.00951228 1.87994e-16)
(0.998279 -0.0134449 -4.0565e-16)
(0.998981 -0.000634869 -2.81663e-18)
(0.998581 -0.00226025 -1.21491e-16)
(0.997933 -0.00356461 -2.77851e-17)
(0.997291 -0.00446189 1.93865e-16)
(0.996815 -0.00502574 -1.4732e-16)
(0.996566 -0.00534559 2.34308e-16)
(0.996532 -0.00555569 1.53285e-16)
(0.996656 -0.00576311 1.04404e-17)
(0.996886 -0.0060134 1.40101e-16)
(0.997178 -0.00635351 3.51466e-17)
(0.997499 -0.00681591 -4.117e-16)
(0.997842 -0.00747531 2.55492e-16)
(0.998181 -0.0084292 -1.61304e-16)
(0.998599 -0.00961664 -8.30235e-16)
(0.99854 -0.0134959 5.09501e-16)
(0.998798 -0.000639945 9.28375e-17)
(0.998423 -0.00227716 7.43319e-17)
(0.99782 -0.00358453 -3.31162e-17)
(0.997223 -0.00448679 -1.67001e-16)
(0.996781 -0.00506136 -1.68601e-16)
(0.996552 -0.005398 -6.42033e-16)
(0.996529 -0.00562425 4.52621e-16)
(0.996658 -0.00584617 9.66917e-18)
(0.996894 -0.00610645 7.7758e-16)
(0.997191 -0.00645454 7.85603e-16)
(0.997517 -0.00692161 -2.26283e-16)
(0.997865 -0.00758437 -6.71782e-17)
(0.998209 -0.00853898 3.92522e-16)
(0.998606 -0.00971692 6.93112e-16)
(0.998753 -0.0135588 -5.48311e-16)
(0.998613 -0.000637729 -2.70647e-17)
(0.998262 -0.00227496 5.06708e-17)
(0.997702 -0.0035804 2.18287e-17)
(0.997149 -0.00448837 -4.20581e-17)
(0.996742 -0.00507677 -1.4325e-16)
(0.996534 -0.00543382 -2.05732e-17)
(0.996524 -0.00567964 -4.79358e-16)
(0.996661 -0.00591859 -6.71129e-16)
(0.996903 -0.00619106 -8.38201e-16)
(0.997205 -0.00654846 -4.95018e-16)
(0.997538 -0.00702151 2.82458e-16)
(0.99789 -0.00768855 -3.3186e-16)
(0.998242 -0.00864496 -2.41441e-16)
(0.998622 -0.00981673 -9.06055e-16)
(0.998928 -0.0136352 3.09964e-16)
(0.998428 -0.000630438 -7.58321e-17)
(0.9981 -0.00225957 -1.1334e-16)
(0.99758 -0.00356001 -5.49899e-18)
(0.997069 -0.0044744 9.80209e-17)
(0.996697 -0.00507893 1.26639e-16)
(0.996511 -0.00545889 -1.64207e-16)
(0.996515 -0.0057267 -1.7546e-16)
(0.99666 -0.00598453 2.17924e-16)
(0.99691 -0.00627086 1.05847e-15)
(0.99722 -0.00663867 -9.95391e-17)
(0.997559 -0.0071187 -1.57763e-16)
(0.997917 -0.00779073 2.78444e-16)
(0.998276 -0.0087497 4.28904e-18)
(0.998643 -0.00991734 2.32974e-16)
(0.999079 -0.0137208 5.08947e-17)
(0.998245 -0.00061964 1.09262e-16)
(0.997937 -0.00223521 7.19579e-17)
(0.997455 -0.00352881 -1.87112e-16)
(0.996985 -0.00445035 -7.58385e-17)
(0.996647 -0.00507261 5.52345e-18)
(0.996484 -0.00547717 3.10473e-16)
(0.996502 -0.00576864 4.22088e-16)
(0.996658 -0.00604664 3.11196e-16)
(0.996916 -0.00634808 -4.97916e-16)
(0.997233 -0.00672708 6.73031e-16)
(0.99758 -0.00721483 -2.14174e-16)
(0.997945 -0.0078923 1.69051e-16)
(0.998312 -0.00885435 7.89866e-16)
(0.998669 -0.0100197 -2.50022e-17)
(0.999209 -0.0138168 1.67732e-18)
(0.998063 -0.000606617 -6.38724e-18)
(0.997773 -0.00220521 -6.2204e-17)
(0.997328 -0.00349109 2.56268e-16)
(0.996896 -0.00442033 1.09443e-16)
(0.996591 -0.0050614 -4.14725e-17)
(0.996451 -0.00549155 3.52214e-16)
(0.996485 -0.00580774 -7.22768e-16)
(0.996652 -0.00610677 -4.56347e-16)
(0.99692 -0.0064242 -3.89451e-16)
(0.997246 -0.00681495 -5.66509e-16)
(0.997601 -0.007311 3.3576e-16)
(0.997973 -0.00799422 -1.44074e-16)
(0.99835 -0.00895972 -1.05795e-15)
(0.998699 -0.0101239 4.78155e-16)
(0.999325 -0.0139191 1.07108e-16)
(0.997883 -0.000592242 -3.59714e-17)
(0.997611 -0.00217185 2.38228e-17)
(0.9972 -0.00344969 -3.1232e-17)
(0.996804 -0.00438717 -1.90533e-16)
(0.99653 -0.00504772 1.44601e-17)
(0.996413 -0.005504 1.85234e-16)
(0.996464 -0.00584556 3.25813e-16)
(0.996643 -0.00616613 4.76506e-16)
(0.996922 -0.00650019 2.23395e-16)
(0.997257 -0.00690309 -2.0341e-16)
(0.997622 -0.00740782 3.16595e-17)
(0.998002 -0.00809699 2.24921e-16)
(0.998389 -0.00906625 -1.25996e-16)
(0.998733 -0.0102304 -5.62489e-16)
(0.999429 -0.0140301 1.88685e-17)
(0.997705 -0.000577212 -2.65792e-17)
(0.997449 -0.00213697 1.1388e-17)
(0.99707 -0.00340691 6.23079e-17)
(0.996708 -0.00435303 7.62803e-17)
(0.996465 -0.00503344 -1.0827e-16)
(0.996371 -0.005516 -7.09473e-16)
(0.996439 -0.00588323 -2.09226e-16)
(0.996631 -0.00622564 -3.50073e-16)
(0.996922 -0.00657673 -6.06645e-16)
(0.997268 -0.00699209 6.61151e-16)
(0.997642 -0.00750577 3.81994e-16)
(0.998031 -0.00820104 -4.13588e-16)
(0.998428 -0.0091743 1.06245e-15)
(0.998768 -0.0103392 2.14246e-16)
(0.999526 -0.0141456 7.28344e-17)
(0.997529 -0.000561997 1.65889e-17)
(0.997288 -0.00210168 -8.21652e-17)
(0.996939 -0.00336414 -3.43463e-16)
(0.99661 -0.00431926 8.0638e-17)
(0.996396 -0.00501968 3.40577e-16)
(0.996325 -0.00552848 3.03553e-17)
(0.99641 -0.00592145 6.49004e-17)
(0.996617 -0.0062858 -1.29706e-17)
(0.996919 -0.00665418 7.40375e-16)
(0.997276 -0.00708214 -1.92613e-16)
(0.997661 -0.00760495 -5.19077e-16)
(0.99806 -0.00830639 -1.10261e-16)
(0.998469 -0.00928382 -4.62375e-17)
(0.998806 -0.0104502 2.31343e-16)
(0.999615 -0.0142679 -3.92086e-16)
(0.997355 -0.000546945 2.20179e-17)
(0.997129 -0.00206697 6.0074e-17)
(0.996808 -0.00332258 2.25466e-16)
(0.996509 -0.00428697 -2.01541e-16)
(0.996324 -0.00500742 -2.08763e-16)
(0.996276 -0.00554219 1.1218e-16)
(0.996379 -0.0059608 2.15168e-16)
(0.9966 -0.00634706 4.24751e-16)
(0.996915 -0.00673286 -5.65488e-16)
(0.997284 -0.00717352 1.21135e-17)
(0.99768 -0.00770558 -1.67351e-16)
(0.998089 -0.00841322 1.64447e-17)
(0.99851 -0.00939497 -2.14559e-16)
(0.998846 -0.0105633 6.62379e-17)
(0.999699 -0.0143931 6.51544e-16)
(0.997183 -0.000532295 -2.84362e-18)
(0.996971 -0.00203337 1.03207e-16)
(0.996676 -0.00328284 -1.02295e-16)
(0.996407 -0.00425677 2.83444e-16)
(0.996248 -0.00499717 9.96348e-17)
(0.996223 -0.0055576 1.59654e-16)
(0.996344 -0.00600165 3.00335e-16)
(0.99658 -0.00640971 -6.6942e-16)
(0.996909 -0.00681298 1.53032e-16)
(0.997291 -0.0072664 -4.38899e-17)
(0.997699 -0.00780777 4.71656e-16)
(0.998119 -0.00852165 -2.82919e-16)
(0.998552 -0.00950786 -1.36908e-16)
(0.998888 -0.0106788 -4.73889e-17)
(0.999779 -0.0145245 -1.42685e-16)
(0.997013 -0.000518197 -3.22446e-17)
(0.996814 -0.00200139 -2.46403e-17)
(0.996543 -0.00324556 3.25401e-16)
(0.996302 -0.00422926 -2.15744e-16)
(0.99617 -0.00498946 1.52604e-16)
(0.996167 -0.00557514 -2.82819e-16)
(0.996306 -0.00604436 -6.05601e-17)
(0.996558 -0.00647406 4.89496e-16)
(0.996901 -0.0068948 2.3455e-16)
(0.997296 -0.007361 3.46072e-16)
(0.997717 -0.00791172 -5.90468e-16)
(0.998149 -0.00863185 6.57648e-16)
(0.998595 -0.00962264 -1.73112e-16)
(0.998931 -0.0107963 -1.6346e-16)
(0.999856 -0.0146582 -1.16839e-16)
(0.996846 -0.00050477 4.16438e-17)
(0.996658 -0.00197118 1.24709e-17)
(0.996411 -0.00321089 -3.86088e-16)
(0.996196 -0.00420463 -1.59508e-17)
(0.996089 -0.00498446 -1.23806e-16)
(0.996108 -0.00559499 2.30381e-16)
(0.996265 -0.00608906 -9.94581e-17)
(0.996534 -0.00654022 -2.0181e-16)
(0.996892 -0.00697836 3.16651e-16)
(0.997301 -0.00745733 -7.19087e-17)
(0.997735 -0.00801737 7.51117e-16)
(0.998179 -0.00874375 -7.68747e-16)
(0.998638 -0.0097392 2.34976e-16)
(0.998975 -0.0109162 -7.84854e-17)
(0.999931 -0.014797 -1.67738e-16)
(0.99668 -0.000492054 -5.61056e-18)
(0.996503 -0.00194303 -1.75487e-16)
(0.996278 -0.00317918 1.49594e-16)
(0.996088 -0.00418315 5.64736e-17)
(0.996006 -0.00498244 -7.6058e-17)
(0.996047 -0.00561738 -7.63657e-17)
(0.996222 -0.00613596 1.70988e-16)
(0.996508 -0.00660836 3.49512e-16)
(0.996881 -0.00706382 -3.79025e-16)
(0.997305 -0.00755552 -7.92326e-17)
(0.997752 -0.00812488 -4.15483e-16)
(0.998209 -0.00885748 7.69729e-16)
(0.998682 -0.00985763 -8.47257e-17)
(0.999021 -0.011038 -4.36266e-17)
(1 -0.0149374 1.58861e-16)
(0.996516 -0.000480108 6.05823e-18)
(0.99635 -0.00191692 1.12083e-16)
(0.996145 -0.00315038 -5.38447e-18)
(0.995979 -0.00416485 1.26255e-16)
(0.995921 -0.00498344 -1.60714e-16)
(0.995983 -0.00564239 5.64265e-17)
(0.996177 -0.00618517 -5.57826e-17)
(0.99648 -0.00667858 -2.91552e-16)
(0.996869 -0.00715127 7.91071e-17)
(0.997308 -0.00765566 -3.06766e-16)
(0.99777 -0.00823432 9.41054e-17)
(0.99824 -0.00897312 -4.25033e-16)
(0.998727 -0.00997805 -5.41629e-17)
(0.999068 -0.0111622 8.61118e-17)
(1.00008 -0.0150828 -1.47903e-16)
(0.996354 -0.000468908 -3.02937e-17)
(0.996197 -0.001893 -2.843e-17)
(0.996012 -0.0031247 -8.53777e-18)
(0.995869 -0.00414989 -1.79536e-16)
(0.995833 -0.00498763 -7.53198e-18)
(0.995916 -0.00567021 1.22255e-16)
(0.996129 -0.00623686 2.21192e-17)
(0.996449 -0.0067511 2.98377e-16)
(0.996855 -0.00724091 -1.17429e-16)
(0.99731 -0.00775795 4.30305e-16)
(0.997787 -0.00834586 -5.43832e-17)
(0.998271 -0.00909086 -3.03683e-18)
(0.998773 -0.0101006 -1.55901e-16)
(0.999116 -0.0112883 -3.67483e-16)
(1.00015 -0.0152294 1.73756e-16)
(0.996193 -0.000458486 2.54961e-17)
(0.996046 -0.00187116 8.80965e-17)
(0.995878 -0.00310196 3.23912e-17)
(0.995757 -0.00413815 -3.3698e-17)
(0.995743 -0.00499493 3.42483e-16)
(0.995847 -0.00570081 -7.36351e-17)
(0.996079 -0.00629103 -3.15733e-16)
(0.996418 -0.00682588 -1.67011e-16)
(0.99684 -0.00733272 1.81562e-16)
(0.997311 -0.00786235 -4.668e-16)
(0.997803 -0.00845946 -2.35722e-16)
(0.998302 -0.00921059 -7.38845e-17)
(0.99882 -0.0102252 2.98028e-16)
(0.999166 -0.0114168 -1.56667e-16)
(1.00022 -0.0153805 -1.37373e-16)
(0.996033 -0.000448791 -5.31344e-17)
(0.995895 -0.00185147 -5.51209e-17)
(0.995745 -0.00308227 -1.05451e-16)
(0.995644 -0.00412973 2.44247e-17)
(0.995652 -0.00500546 5.37013e-17)
(0.995776 -0.0057343 -9.12734e-17)
(0.996027 -0.00634782 -3.3069e-17)
(0.996384 -0.00690309 -3.26446e-17)
(0.996824 -0.00742684 3.50563e-17)
(0.997311 -0.00796899 1.10297e-16)
(0.99782 -0.00857525 5.0793e-16)
(0.998334 -0.00933248 1.93228e-16)
(0.998867 -0.0103519 -1.75082e-16)
(0.999216 -0.0115472 3.30211e-16)
(1.00029 -0.0155326 6.25236e-17)
(0.995875 -0.000439843 3.64494e-17)
(0.995745 -0.0018338 -1.19335e-16)
(0.99561 -0.00306544 1.31296e-16)
(0.995529 -0.00412448 -1.42383e-16)
(0.995558 -0.0050191 -1.09374e-16)
(0.995703 -0.00577067 -1.0153e-16)
(0.995973 -0.00640724 -4.18934e-17)
(0.996348 -0.00698277 -1.19827e-16)
(0.996806 -0.00752333 -2.17901e-16)
(0.997311 -0.00807795 2.28822e-16)
(0.997837 -0.00869331 -2.92791e-16)
(0.998366 -0.00945659 -2.54908e-16)
(0.998916 -0.0104808 1.77733e-16)
(0.999268 -0.01168 -1.84572e-16)
(1.00036 -0.0156888 -8.97171e-17)
(0.995718 -0.000431571 1.11123e-17)
(0.995595 -0.0018182 -1.6918e-17)
(0.995476 -0.00305157 -4.10878e-17)
(0.995414 -0.00412249 3.80601e-17)
(0.995462 -0.00503598 -1.23864e-16)
(0.995627 -0.00581004 9.49565e-17)
(0.995917 -0.00646946 3.22202e-16)
(0.996311 -0.00706509 4.51096e-16)
(0.996787 -0.00762238 -1.18013e-16)
(0.99731 -0.00818943 -2.55374e-16)
(0.997853 -0.00881382 -1.31206e-16)
(0.998399 -0.00958311 2.03316e-16)
(0.998965 -0.0106121 -2.49894e-16)
(0.999321 -0.0118149 8.21116e-16)
(1.00043 -0.0158453 3.82472e-16)
(0.995562 -0.000423992 -4.48755e-17)
(0.995446 -0.00180449 7.3015e-17)
(0.995341 -0.00304041 1.0896e-16)
(0.995297 -0.00412357 1.16917e-16)
(0.995365 -0.00505594 -1.44688e-16)
(0.99555 -0.00585234 -2.85274e-17)
(0.995859 -0.0065344 7.38428e-17)
(0.996272 -0.00715003 1.90023e-17)
(0.996767 -0.00772394 3.55914e-16)
(0.997309 -0.00830337 2.24916e-16)
(0.99787 -0.00893672 4.00411e-16)
(0.998432 -0.00971196 5.36667e-17)
(0.999015 -0.0107456 9.09601e-17)
(0.999375 -0.011952 -3.71802e-16)
(1.00051 -0.016006 -3.6581e-16)
(0.995406 -0.00041703 1.91188e-17)
(0.995297 -0.00179272 4.94435e-17)
(0.995205 -0.00303203 -2.1091e-16)
(0.995178 -0.00412777 1.94574e-16)
(0.995265 -0.00507907 1.57862e-16)
(0.99547 -0.00589765 3.04058e-16)
(0.995798 -0.00660219 -5.88523e-17)
(0.996231 -0.00723771 -3.30764e-17)
(0.996746 -0.00782817 -1.14727e-16)
(0.997307 -0.00841993 6.69352e-17)
(0.997886 -0.00906217 -7.03539e-16)
(0.998466 -0.00984329 5.49714e-16)
(0.999066 -0.0108816 -5.19001e-17)
(0.99943 -0.0120911 -5.28735e-16)
(1.00058 -0.0161657 2.81826e-16)
(0.995252 -0.000410709 3.39571e-17)
(0.995148 -0.00178272 7.19687e-17)
(0.995069 -0.00302622 2.30092e-16)
(0.995059 -0.00413494 -3.27109e-16)
(0.995164 -0.00510524 2.60387e-17)
(0.995388 -0.00594592 -2.33983e-16)
(0.995736 -0.00667284 2.29258e-17)
(0.996189 -0.00732815 -4.50603e-16)
(0.996723 -0.00793511 3.04362e-16)
(0.997304 -0.00853916 -3.6771e-16)
(0.997902 -0.00919022 5.31798e-16)
(0.9985 -0.00997715 -6.11175e-16)
(0.999119 -0.01102 -3.03852e-16)
(0.999486 -0.0122326 2.16993e-16)
(1.00065 -0.0163296 -2.25401e-16)
(0.995098 -0.000404944 -4.01513e-17)
(0.994999 -0.00177455 -3.42766e-17)
(0.994932 -0.00302305 -4.04921e-17)
(0.994937 -0.00414513 1.27717e-17)
(0.995061 -0.00513455 -1.91991e-17)
(0.995305 -0.00599729 -2.79939e-16)
(0.995672 -0.00674649 -2.6153e-16)
(0.996146 -0.00742156 1.77969e-16)
(0.9967 -0.00804496 8.51493e-17)
(0.997301 -0.00866126 5.57999e-16)
(0.997919 -0.00932108 -4.17359e-16)
(0.998535 -0.0101138 1.08196e-16)
(0.999172 -0.0111611 4.01385e-17)
(0.999544 -0.0123761 -8.7076e-17)
(1.00073 -0.0164922 3.40857e-16)
(0.994944 -0.000399761 2.36093e-17)
(0.99485 -0.00176801 -4.04504e-17)
(0.994794 -0.00302231 1.66531e-17)
(0.994815 -0.00415816 1.67349e-16)
(0.994956 -0.00516686 8.19112e-17)
(0.995219 -0.00605165 4.25626e-16)
(0.995607 -0.00682308 8.55222e-17)
(0.9961 -0.00751785 -7.53672e-17)
(0.996676 -0.00815766 -2.63589e-16)
(0.997298 -0.00878617 -3.61852e-16)
(0.997935 -0.00945468 3.17002e-16)
(0.998571 -0.010253 2.55987e-17)
(0.999226 -0.0113047 1.58357e-16)
(0.999603 -0.0125219 1.82832e-16)
(1.00081 -0.0166595 -7.85765e-17)
(0.99479 -0.000395078 -2.94854e-17)
(0.994701 -0.00176315 -1.05806e-16)
(0.994655 -0.00302403 -6.6943e-17)
(0.994691 -0.00417408 1.18344e-16)
(0.994849 -0.00520224 7.67081e-17)
(0.995131 -0.00610908 5.00981e-17)
(0.995539 -0.00690272 1.98818e-17)
(0.996054 -0.00761718 3.41381e-16)
(0.99665 -0.00827337 1.14466e-16)
(0.997293 -0.00891405 -2.4172e-16)
(0.997952 -0.00959118 -4.87399e-17)
(0.998607 -0.010395 -2.52045e-16)
(0.999282 -0.011451 -2.33508e-16)
(0.999662 -0.0126701 5.8597e-17)
(1.00089 -0.0168243 -1.25449e-16)
(0.994637 -0.00039093 2.38778e-17)
(0.994552 -0.00175981 1.28816e-16)
(0.994516 -0.00302804 -7.62576e-17)
(0.994565 -0.00419274 -5.46867e-17)
(0.994741 -0.00524058 7.7041e-17)
(0.995041 -0.00616955 -4.97469e-17)
(0.995469 -0.0069854 -8.06126e-17)
(0.996005 -0.00771955 -2.10833e-16)
(0.996624 -0.00839211 4.59195e-17)
(0.997289 -0.00904495 5.28305e-16)
(0.997969 -0.00973062 1.77787e-16)
(0.998645 -0.0105399 4.74191e-16)
(0.999339 -0.0116 2.01642e-16)
(0.999724 -0.0128208 2.83569e-16)
(1.00098 -0.0169953 2.67033e-17)
(0.994484 -0.000387231 2.8685e-17)
(0.994402 -0.00175805 3.5754e-17)
(0.994375 -0.00303442 9.31851e-17)
(0.994438 -0.00421422 -1.66298e-16)
(0.99463 -0.00528199 -4.26394e-16)
(0.99495 -0.00623319 -7.24829e-17)
(0.995398 -0.00707129 -3.49992e-18)
(0.995956 -0.00782517 4.60976e-17)
(0.996596 -0.00851411 2.41552e-17)
(0.997284 -0.00917908 -3.31636e-16)
(0.997986 -0.00987324 1.98274e-16)
(0.998682 -0.0106879 -3.21561e-16)
(0.999397 -0.011752 -1.05107e-16)
(0.999786 -0.012974 -3.50348e-16)
(1.00107 -0.0171639 -2.05552e-17)
(0.994331 -0.000384014 -3.99734e-17)
(0.994252 -0.0017577 -6.85309e-17)
(0.994234 -0.00304294 -6.10264e-17)
(0.99431 -0.00423835 -3.13916e-17)
(0.994518 -0.0053263 6.35458e-17)
(0.994856 -0.00629988 -1.68336e-16)
(0.995325 -0.0071603 7.15465e-17)
(0.995905 -0.00793396 1.88254e-16)
(0.996568 -0.00863927 -2.50241e-16)
(0.997279 -0.00931638 1.0895e-16)
(0.998004 -0.0100189 1.209e-16)
(0.998721 -0.0108389 9.31537e-17)
(0.999457 -0.0119068 6.60419e-16)
(0.99985 -0.0131301 3.48617e-17)
(1.00117 -0.0173394 -1.69751e-16)
(0.994178 -0.000381198 9.64621e-18)
(0.994102 -0.00175881 -3.87076e-18)
(0.994091 -0.00305368 -6.74423e-17)
(0.99418 -0.00426519 2.67865e-16)
(0.994403 -0.00537362 8.13551e-18)
(0.99476 -0.00636973 1.76867e-16)
(0.99525 -0.00725256 -9.82958e-17)
(0.995852 -0.00804607 -5.05142e-16)
(0.996539 -0.00876779 2.33381e-16)
(0.997273 -0.009457 1.50953e-17)
(0.998021 -0.0101679 -5.65433e-16)
(0.998761 -0.010993 3.75208e-18)
(0.999518 -0.0120645 -4.23735e-16)
(0.999915 -0.013289 2.31535e-16)
(1.00127 -0.0175128 6.02566e-17)
(0.994024 -0.000378826 1.34981e-17)
(0.99395 -0.00176123 -9.86986e-18)
(0.993947 -0.00306647 1.61278e-16)
(0.994048 -0.0042946 -1.06128e-16)
(0.994287 -0.00542384 -1.64497e-16)
(0.994663 -0.00644269 -4.01392e-16)
(0.995173 -0.00734805 -1.94213e-16)
(0.995798 -0.00816151 2.13822e-16)
(0.996509 -0.00889967 5.1837e-17)
(0.997268 -0.009601 -2.8114e-16)
(0.998039 -0.0103201 1.82358e-16)
(0.998801 -0.0111503 -4.9279e-17)
(0.999581 -0.0122253 1.56898e-16)
(0.999983 -0.0134513 -4.17588e-17)
(1.00137 -0.017692 -1.14406e-16)
(0.99387 -0.000376815 -3.33163e-17)
(0.993798 -0.00176505 2.84458e-17)
(0.993802 -0.0030814 -9.38682e-17)
(0.993914 -0.00432667 -5.7229e-17)
(0.994169 -0.00547709 2.55978e-16)
(0.994563 -0.00651892 6.20471e-16)
(0.995094 -0.00744696 4.08298e-16)
(0.995743 -0.00828049 1.62023e-16)
(0.996478 -0.00903514 2.95836e-17)
(0.997261 -0.00974859 3.45805e-17)
(0.998058 -0.0104759 1.24135e-16)
(0.998843 -0.0113109 -1.8642e-16)
(0.999645 -0.0123893 -2.56228e-17)
(1.00005 -0.0136166 1.39089e-16)
(1.00147 -0.0178718 3.00537e-16)
(0.993715 -0.000375206 1.01061e-17)
(0.993645 -0.00177008 -3.57789e-17)
(0.993655 -0.00309827 8.52727e-19)
(0.993779 -0.00436124 8.29365e-17)
(0.994048 -0.00553321 5.56933e-17)
(0.994462 -0.00659828 -3.59237e-16)
(0.995014 -0.00754919 -1.76645e-16)
(0.995686 -0.00840291 -3.11426e-16)
(0.996446 -0.00917413 -6.79365e-17)
(0.997255 -0.00989969 7.32887e-16)
(0.998077 -0.0106351 8.76241e-18)
(0.998886 -0.0114749 -1.36351e-16)
(0.999711 -0.0125565 -4.23438e-16)
(1.00013 -0.0137853 -2.00672e-17)
(1.00157 -0.0180591 -7.85317e-17)
(0.99356 -0.000373925 2.26988e-17)
(0.993491 -0.00177639 -2.98175e-18)
(0.993507 -0.00311718 2.92828e-17)
(0.993642 -0.00439839 -7.44942e-17)
(0.993926 -0.00559232 -2.18931e-17)
(0.994358 -0.00668091 1.46747e-16)
(0.994932 -0.0076549 -2.07576e-16)
(0.995628 -0.00852895 2.61095e-16)
(0.996413 -0.00931682 4.48789e-18)
(0.997249 -0.0100545 -3.91194e-16)
(0.998096 -0.0107979 -8.42806e-17)
(0.99893 -0.0116424 5.2412e-16)
(0.999778 -0.012727 1.85584e-16)
(1.0002 -0.0139568 -4.97315e-16)
(1.00166 -0.0182462 -3.9738e-17)
(0.993405 -0.000373022 -1.65295e-17)
(0.993336 -0.00178386 5.25743e-17)
(0.993358 -0.00313796 9.67226e-18)
(0.993503 -0.00443798 -1.59043e-16)
(0.993802 -0.00565431 1.84056e-17)
(0.994253 -0.00676674 -6.22327e-18)
(0.994848 -0.00776404 4.82176e-16)
(0.995569 -0.0086586 2.66595e-16)
(0.99638 -0.00946322 -6.641e-16)
(0.997242 -0.010213 -2.93609e-16)
(0.998116 -0.0109644 1.75399e-16)
(0.998975 -0.0118134 2.37259e-18)
(0.999848 -0.0129009 4.44341e-16)
(1.00028 -0.014132 4.5709e-16)
(1.00176 -0.0184403 1.32919e-16)
(0.993248 -0.000372416 -7.45771e-18)
(0.99318 -0.00179257 6.70735e-18)
(0.993207 -0.00316071 1.05847e-16)
(0.993362 -0.00448015 2.73764e-16)
(0.993676 -0.00571933 -3.27811e-17)
(0.994145 -0.00685596 -3.12481e-16)
(0.994763 -0.00787684 -3.60844e-16)
(0.995508 -0.0087921 -6.81214e-16)
(0.996346 -0.00961357 4.36564e-16)
(0.997236 -0.0103755 3.48872e-16)
(0.998137 -0.0111348 -1.58121e-16)
(0.999021 -0.0119882 -2.739e-16)
(0.999919 -0.0130784 -4.36497e-16)
(1.00036 -0.0143104 -3.64592e-17)
(1.00186 -0.0186344 -3.9865e-16)
(0.993091 -0.000372155 1.11098e-17)
(0.993023 -0.00180235 -3.305e-17)
(0.993055 -0.00318525 -1.24591e-16)
(0.99322 -0.00452472 -2.16347e-16)
(0.993547 -0.00578723 -4.55551e-17)
(0.994035 -0.00694843 2.9743e-16)
(0.994675 -0.00799316 2.23354e-16)
(0.995446 -0.00892934 6.90754e-16)
(0.996311 -0.00976777 7.09668e-18)
(0.997229 -0.0105419 -1.48877e-16)
(0.998158 -0.011309 1.19287e-17)
(0.999068 -0.0121666 -2.72942e-16)
(0.999991 -0.0132593 -3.72104e-16)
(1.00044 -0.0144923 -3.3875e-16)
(1.00197 -0.0188351 4.1635e-16)
(0.992932 -0.000372166 -3.78194e-17)
(0.992864 -0.00181329 8.37703e-17)
(0.9929 -0.00321169 -9.69282e-18)
(0.993075 -0.00457179 2.60387e-16)
(0.993417 -0.00585813 -1.01881e-16)
(0.993923 -0.00704432 -7.21213e-17)
(0.994586 -0.0081132 7.5113e-17)
(0.995383 -0.00907053 -4.35702e-16)
(0.996275 -0.00992604 -3.12662e-16)
(0.997222 -0.0107124 -1.10188e-17)
(0.998179 -0.0114871 9.66153e-17)
(0.999117 -0.0123488 1.50747e-16)
(1.00007 -0.0134438 3.89468e-16)
(1.00053 -0.0146772 4.01406e-16)
(1.00208 -0.0190358 -5.87574e-17)
(0.992773 -0.000372504 3.19703e-18)
(0.992704 -0.00182526 -2.77869e-17)
(0.992744 -0.00323986 -1.70595e-16)
(0.992928 -0.00462124 -2.68047e-16)
(0.993284 -0.00593193 9.69733e-17)
(0.99381 -0.00714354 1.37427e-16)
(0.994495 -0.0082369 -3.40111e-16)
(0.995318 -0.00921563 -8.36636e-17)
(0.996239 -0.0100884 3.00707e-16)
(0.997216 -0.010887 -1.20037e-16)
(0.998202 -0.0116693 1.30222e-16)
(0.999168 -0.012535 1.34968e-16)
(1.00014 -0.013632 6.00651e-17)
(1.00062 -0.014866 -4.97013e-16)
(1.00219 -0.0192429 -1.18375e-16)
(0.992612 -0.000373096 2.62859e-17)
(0.992543 -0.00183836 -4.55132e-17)
(0.992586 -0.00326992 1.2603e-16)
(0.992779 -0.00467322 2.26558e-16)
(0.993149 -0.00600882 7.29019e-17)
(0.993694 -0.0072463 -2.65616e-16)
(0.994402 -0.00836451 1.71018e-16)
(0.995252 -0.00936492 1.38601e-16)
(0.996202 -0.010255 2.62189e-16)
(0.997209 -0.011066 1.70858e-16)
(0.998225 -0.0118558 -3.17664e-16)
(0.999219 -0.0127252 3.60217e-17)
(1.00022 -0.0138242 -5.23229e-17)
(1.00071 -0.015058 -1.3963e-17)
(1.0023 -0.0194502 4.64019e-17)
(0.99245 -0.00037399 3.19009e-17)
(0.99238 -0.00185242 5.06849e-18)
(0.992427 -0.00330165 1.7633e-16)
(0.992628 -0.00472754 -6.59248e-17)
(0.993012 -0.00608863 1.51617e-16)
(0.993575 -0.00735246 1.31917e-16)
(0.994308 -0.00849591 4.92958e-17)
(0.995185 -0.00951827 9.6831e-17)
(0.996165 -0.010426 -1.22156e-16)
(0.997203 -0.0112492 -1.1727e-17)
(0.99825 -0.0120465 -9.1207e-17)
(0.999273 -0.0129195 -3.54414e-17)
(1.0003 -0.0140201 1.26651e-16)
(1.0008 -0.0152538 -1.26149e-18)
(1.00241 -0.0196635 -1.36402e-16)
(0.992287 -0.00037512 5.06472e-18)
(0.992215 -0.00186756 -8.86643e-17)
(0.992265 -0.00333519 -1.92374e-16)
(0.992475 -0.00478435 -1.21406e-16)
(0.992872 -0.00617152 -9.88275e-17)
(0.993455 -0.0074622 3.21041e-18)
(0.994211 -0.00863129 -5.36744e-17)
(0.995116 -0.00967589 -1.12259e-16)
(0.996127 -0.0106013 -5.58004e-17)
(0.997196 -0.011437 -1.6697e-16)
(0.998275 -0.0122416 2.81682e-16)
(0.999327 -0.0131179 4.41949e-17)
(1.00039 -0.0142199 -2.7062e-16)
(1.0009 -0.0154528 2.63112e-16)
(1.00253 -0.0198771 4.75329e-17)
(0.992123 -0.000376545 -5.00974e-17)
(0.992049 -0.00188361 6.89721e-17)
(0.992101 -0.00337038 -7.12826e-18)
(0.992319 -0.00484349 -1.96557e-17)
(0.99273 -0.00625738 -1.44106e-16)
(0.993333 -0.00757543 1.85181e-16)
(0.994113 -0.0087706 -5.33937e-18)
(0.995046 -0.00983777 1.7948e-16)
(0.996088 -0.0107811 1.4509e-17)
(0.99719 -0.0116292 -4.42322e-18)
(0.998301 -0.0124411 -4.21395e-16)
(0.999384 -0.0133206 -1.03619e-16)
(1.00047 -0.0144237 3.07382e-16)
(1.001 -0.0156558 -1.98051e-16)
(1.00266 -0.0200966 1.1529e-16)
(0.991957 -0.000378194 1.65329e-17)
(0.991881 -0.00190073 5.52019e-17)
(0.991935 -0.00340738 -5.74054e-17)
(0.992161 -0.00490517 -5.72434e-17)
(0.992586 -0.00634641 9.89835e-17)
(0.993208 -0.00769241 -1.67219e-16)
(0.994013 -0.00891412 -1.91463e-16)
(0.994975 -0.0100042 -9.25887e-18)
(0.996048 -0.0109657 -3.8385e-17)
(0.997184 -0.0118263 2.69286e-16)
(0.998328 -0.0126454 2.49203e-16)
(0.999442 -0.0135278 1.22696e-16)
(1.00056 -0.0146318 7.35761e-17)
(1.0011 -0.0158622 4.43848e-16)
(1.00278 -0.0203168 -2.27303e-16)
(0.991789 -0.000380115 -2.88202e-17)
(0.991711 -0.00191874 -7.34433e-17)
(0.991767 -0.00344598 2.80555e-16)
(0.992001 -0.00496919 2.31292e-16)
(0.992439 -0.00643843 -5.67993e-17)
(0.993081 -0.00781298 -8.68537e-17)
(0.993911 -0.00906168 8.91775e-18)
(0.994903 -0.010175 -2.4384e-16)
(0.996009 -0.0111549 -2.9108e-16)
(0.997178 -0.0120281 8.4965e-17)
(0.998356 -0.0128542 2.23435e-16)
(0.999503 -0.0137394 -1.38311e-16)
(1.00065 -0.0148439 -1.85009e-16)
(1.00121 -0.0160727 -4.35221e-16)
(1.00291 -0.0205425 2.59008e-17)
(0.99162 -0.000382248 6.01254e-17)
(0.991539 -0.00193775 8.60544e-17)
(0.991597 -0.00348635 -2.57519e-16)
(0.991838 -0.0050357 -1.09783e-16)
(0.99229 -0.00653364 1.81607e-16)
(0.992952 -0.00793734 2.5969e-16)
(0.993807 -0.00921353 9.64066e-17)
(0.994829 -0.0103505 1.48969e-16)
(0.995968 -0.0113489 1.98853e-17)
(0.997173 -0.0122349 -3.11767e-16)
(0.998385 -0.0130679 -2.17994e-16)
(0.999565 -0.0139556 8.47348e-17)
(1.00074 -0.0150603 -3.01638e-16)
(1.00131 -0.0162866 5.24124e-16)
(1.00305 -0.020769 1.50431e-16)
(0.991449 -0.000384648 -5.2422e-17)
(0.991365 -0.00195762 -6.68983e-17)
(0.991424 -0.00352831 3.37461e-17)
(0.991672 -0.00510458 -8.25498e-17)
(0.992138 -0.00663192 -1.98892e-16)
(0.99282 -0.00806539 -1.21136e-16)
(0.993702 -0.0093696 8.66306e-17)
(0.994754 -0.0105307 1.02172e-17)
(0.995927 -0.0115479 3.14894e-16)
(0.997168 -0.0124465 3.29866e-16)
(0.998416 -0.0132864 1.57305e-17)
(0.999629 -0.0141764 2.04267e-17)
(1.00084 -0.0152811 6.5508e-16)
(1.00143 -0.0165047 3.50379e-17)
(1.00319 -0.0210011 4.71581e-17)
(0.991276 -0.000387254 1.16156e-17)
(0.991189 -0.0019785 2.3144e-17)
(0.991249 -0.00357207 1.80243e-17)
(0.991504 -0.00517602 1.09497e-16)
(0.991984 -0.00673351 -8.95977e-17)
(0.992686 -0.00819743 -2.31499e-16)
(0.993594 -0.00953021 -1.26267e-16)
(0.994678 -0.0107158 -2.2115e-17)
(0.995886 -0.011752 -2.22081e-16)
(0.997163 -0.0126635 -2.56899e-16)
(0.998447 -0.0135102 -3.09194e-17)
(0.999695 -0.0144022 -5.92716e-17)
(1.00094 -0.0155064 6.00976e-18)
(1.00154 -0.0167266 -4.24239e-16)
(1.00333 -0.0212344 -5.25611e-17)