/*--------------------------------*- C++ -*----------------------------------*\
  =========                 |
  \\      /  F ield         | OpenFOAM: The Open Source CFD Toolbox
   \\    /   O peration     | Website:  https://openfoam.org
    \\  /    A nd           | Version:  6.0
     \\/     M anipulation  |
\*---------------------------------------------------------------------------*/
FoamFile
{
    version     2.0;
    format      ascii;
    class       surfaceScalarField;
    location    "19";
    object      phi;
}
// * * * * * * * * * * * * * * * * * * * * * * * * * * * * * * * * * * * * * //

dimensions      [0 3 -1 0 0 0 0];

internalField   nonuniform List<scalar> 
123526
(
-0.000106832
2.20032e-05
0.000107217
-0.000106427
2.38005e-05
-0.000105988
2.57455e-05
-0.000105516
2.78502e-05
-0.000105005
3.01281e-05
-0.000104455
3.25937e-05
-0.000103861
3.52628e-05
-0.000103221
3.81526e-05
-0.000102528
4.12807e-05
-0.000101781
4.46678e-05
-0.000100972
4.83364e-05
-0.000100102
5.23098e-05
-9.91582e-05
5.66135e-05
-9.81409e-05
6.12731e-05
-9.7034e-05
6.63202e-05
-9.58428e-05
7.17922e-05
-9.45514e-05
7.77218e-05
-9.31524e-05
8.41408e-05
-9.16322e-05
9.11013e-05
-8.99913e-05
9.86511e-05
-8.82056e-05
0.000106828
-8.62669e-05
0.000115695
-8.41687e-05
0.000125319
-8.18795e-05
0.000135739
-7.93989e-05
0.000147057
-7.67008e-05
0.000159328
-7.37662e-05
0.000172636
-7.05786e-05
0.000187082
-6.71059e-05
0.000202741
-6.33335e-05
0.000219743
-5.92238e-05
0.00023817
-5.47582e-05
0.00025817
-4.99015e-05
0.000279846
-4.46171e-05
0.000303342
-3.88715e-05
0.0003288
-3.2608e-05
0.000356345
-2.58024e-05
0.000386158
-1.84041e-05
0.000418365
-1.03605e-05
0.000453112
-1.63192e-06
0.00049055
7.83283e-06
0.000530784
1.8091e-05
0.000573902
2.91861e-05
0.000619966
4.11613e-05
0.000668971
5.40588e-05
0.00072083
6.79139e-05
0.000775352
8.27614e-05
0.000832198
9.86271e-05
0.000890828
0.00011554
0.00095043
0.000133526
0.00100984
0.000152561
0.00106742
0.000172681
0.00112096
0.000193665
0.00116763
0.000215398
0.00120367
0.000237585
0.00122422
0.000259839
0.00122326
0.000281755
0.00119274
0.000302453
0.00112358
0.000321053
0.000997278
0.00078739
0.000324457
-0.000105192
2.16366e-05
0.000105564
-0.000104794
2.34046e-05
-0.000104364
2.5318e-05
-0.000103901
2.73886e-05
-0.0001034
2.96296e-05
-0.00010286
3.20551e-05
-0.000102276
3.46806e-05
-0.000101646
3.75231e-05
-0.000100962
4.05992e-05
-0.000100225
4.39297e-05
-9.94243e-05
4.75376e-05
-9.85622e-05
5.14456e-05
-9.76253e-05
5.5679e-05
-9.66149e-05
6.02605e-05
-9.55146e-05
6.52229e-05
-9.43309e-05
7.06074e-05
-9.30481e-05
7.6443e-05
-9.16602e-05
8.27538e-05
-9.01544e-05
8.96003e-05
-8.85316e-05
9.70313e-05
-8.67691e-05
0.000105071
-8.48588e-05
0.000113789
-8.27947e-05
0.00012326
-8.05459e-05
0.000133496
-7.81115e-05
0.000144628
-7.54665e-05
0.000156689
-7.2591e-05
0.000169766
-6.94698e-05
0.000183967
-6.60696e-05
0.000199347
-6.23785e-05
0.000216058
-5.83569e-05
0.000234155
-5.39886e-05
0.000253807
-4.92351e-05
0.000275097
-4.40631e-05
0.000298174
-3.84385e-05
0.000323181
-3.23067e-05
0.000350219
-2.56437e-05
0.000379502
-1.83996e-05
0.000411128
-1.05229e-05
0.000445242
-1.97496e-06
0.000482007
7.29319e-06
0.000521521
1.73352e-05
0.000563864
2.81924e-05
0.000609113
3.99074e-05
0.000657259
5.25236e-05
0.000708218
6.60807e-05
0.000761801
8.06205e-05
0.00081767
9.61778e-05
0.000875289
0.000112791
0.000933848
0.000130488
0.0009922
0.000149244
0.00104872
0.000169089
0.00110124
0.00018978
0.00114701
0.000211193
0.00118231
0.000233025
0.00120239
0.000254903
0.00120138
0.000276359
0.0011713
0.000296457
0.0011035
0.000310961
0.000982798
0.00078447
0.000313823
-0.000103683
2.12756e-05
0.000104048
-0.00010329
2.30132e-05
-0.000102864
2.48946e-05
-0.000102406
2.69314e-05
-0.00010191
2.91366e-05
-0.000101378
3.15238e-05
-0.000100804
3.41083e-05
-0.000100187
3.69065e-05
-9.95192e-05
3.99337e-05
-9.88001e-05
4.32104e-05
-9.80199e-05
4.67602e-05
-9.71792e-05
5.06045e-05
-9.62653e-05
5.47684e-05
-9.52774e-05
5.92721e-05
-9.41998e-05
6.41493e-05
-9.30375e-05
6.94451e-05
-9.17756e-05
7.51853e-05
-9.04074e-05
8.13866e-05
-8.8921e-05
8.81181e-05
-8.73174e-05
9.54297e-05
-8.55747e-05
0.000103332
-8.3686e-05
0.000111903
-8.16455e-05
0.000121224
-7.9424e-05
0.000131279
-7.70208e-05
0.000142229
-7.44123e-05
0.000154085
-7.15786e-05
0.000166937
-6.8506e-05
0.000180899
-6.51612e-05
0.000196006
-6.15336e-05
0.000212435
-5.75834e-05
0.00023021
-5.32952e-05
0.000249524
-4.86314e-05
0.000270436
-4.35585e-05
0.000293104
-3.80455e-05
0.000317672
-3.20385e-05
0.000344218
-2.55142e-05
0.000372983
-1.84238e-05
0.000404043
-1.07166e-05
0.000437539
-2.35512e-06
0.000473649
6.70881e-06
0.00051246
1.65284e-05
0.000554046
2.7146e-05
0.000598496
3.86075e-05
0.000645798
5.09611e-05
0.000695864
6.42531e-05
0.000748507
7.8532e-05
0.000803392
9.38375e-05
0.000859985
0.000110208
0.000917483
0.000127666
0.000974759
0.000146173
0.00103021
0.000165748
0.00108172
0.000186137
0.00112661
0.000207222
0.00116126
0.000228695
0.00118092
0.000250206
0.00117988
0.000271182
0.00115037
0.000290777
0.00108393
0.000305216
0.00096839
0.000780907
0.000308919
-0.000102135
2.09324e-05
0.000102479
-0.00010176
2.2638e-05
-0.000101349
2.44851e-05
-0.000100904
2.64857e-05
-0.000100419
2.86527e-05
-9.98954e-05
3.10002e-05
-9.93289e-05
3.35431e-05
-9.87207e-05
3.62976e-05
-9.80635e-05
3.92777e-05
-9.73585e-05
4.25036e-05
-9.65959e-05
4.59989e-05
-9.57781e-05
4.97838e-05
-9.48905e-05
5.38828e-05
-9.39343e-05
5.83128e-05
-9.28908e-05
6.31084e-05
-9.17662e-05
6.83183e-05
-9.05427e-05
7.39649e-05
-8.92145e-05
8.00577e-05
-8.77674e-05
8.66744e-05
-8.6203e-05
9.38663e-05
-8.44986e-05
0.000101631
-8.26477e-05
0.000110055
-8.06444e-05
0.000119224
-7.84606e-05
0.000129098
-7.60957e-05
0.000139867
-7.35274e-05
0.00015152
-7.07366e-05
0.000164149
-6.77107e-05
0.000177878
-6.44174e-05
0.000192717
-6.08469e-05
0.000208869
-5.69602e-05
0.000226328
-5.27428e-05
0.00024531
-4.81568e-05
0.000265854
-4.31724e-05
0.000288122
-3.77583e-05
0.000312261
-3.18629e-05
0.000338327
-2.54632e-05
0.000366588
-1.85114e-05
0.000397095
-1.09578e-05
0.00042999
-2.7658e-06
0.000465462
6.11278e-06
0.000503585
1.57326e-05
0.00054443
2.61384e-05
0.000588093
3.73788e-05
0.00063456
4.95059e-05
0.000683739
6.25694e-05
0.000735445
7.66208e-05
0.000789345
9.16992e-05
0.000844912
0.000107839
0.000901356
0.000125054
0.000957573
0.000143296
0.00101199
0.000162577
0.00106255
0.000182647
0.0011066
0.000203392
0.00114057
0.000224506
0.00115984
0.000245651
0.00115877
0.000266186
0.0011299
0.000285376
0.00106483
0.000300057
0.000953815
0.000777175
0.000303878
-0.000100444
2.06154e-05
0.000100766
-0.000100097
2.22925e-05
-9.97166e-05
2.41073e-05
-9.93018e-05
2.6072e-05
-9.88467e-05
2.81998e-05
-9.83511e-05
3.05053e-05
-9.78101e-05
3.30038e-05
-9.72241e-05
3.57118e-05
-9.65875e-05
3.86426e-05
-9.59008e-05
4.18166e-05
-9.51575e-05
4.52575e-05
-9.43591e-05
4.89845e-05
-9.34951e-05
5.30212e-05
-9.25645e-05
5.73813e-05
-9.15527e-05
6.20995e-05
-9.04631e-05
6.7228e-05
-8.92803e-05
7.27853e-05
-8.79959e-05
7.87734e-05
-8.65966e-05
8.52782e-05
-8.50816e-05
9.23523e-05
-8.34283e-05
9.99807e-05
-8.16289e-05
0.000108257
-7.96771e-05
0.000117275
-7.75448e-05
0.000126968
-7.52311e-05
0.000137556
-7.27143e-05
0.000149006
-6.99757e-05
0.000161413
-6.70036e-05
0.000174909
-6.37665e-05
0.000189483
-6.02556e-05
0.000205362
-5.64324e-05
0.000222509
-5.22835e-05
0.000241165
-4.77729e-05
0.000261345
-4.28707e-05
0.000283222
-3.75485e-05
0.000306941
-3.17551e-05
0.000332537
-2.54684e-05
0.000360305
-1.86415e-05
0.000390272
-1.12256e-05
0.000422578
-3.18518e-06
0.000457424
5.5285e-06
0.000494873
1.49719e-05
0.000534988
2.51913e-05
0.000577874
3.62369e-05
0.000623513
4.81619e-05
0.000671812
6.10168e-05
0.000722586
7.48523e-05
0.000775506
8.97046e-05
0.000830055
0.000105604
0.000885454
0.000122557
0.000940625
0.000140512
0.000994021
0.000159479
0.00104362
0.000179215
0.00108684
0.000199614
0.00112019
0.000220371
0.00113908
0.000241149
0.00113801
0.000261273
0.00110982
0.000280058
0.00104606
0.000294576
0.000939323
0.000772128
0.000299744
-9.87299e-05
2.03056e-05
9.90412e-05
-9.83995e-05
2.19616e-05
-9.80419e-05
2.37512e-05
-9.76562e-05
2.56862e-05
-9.72347e-05
2.77797e-05
-9.67756e-05
3.00461e-05
-9.62719e-05
3.25013e-05
-9.57229e-05
3.51622e-05
-9.51209e-05
3.80418e-05
-9.4467e-05
4.11609e-05
-9.37528e-05
4.45447e-05
-9.29823e-05
4.82113e-05
-9.21433e-05
5.21841e-05
-9.12388e-05
5.64738e-05
-9.02527e-05
6.11159e-05
-8.91921e-05
6.61651e-05
-8.80403e-05
7.16364e-05
-8.67915e-05
7.75237e-05
-8.54313e-05
8.39211e-05
-8.39598e-05
9.08814e-05
-8.23536e-05
9.83774e-05
-8.06045e-05
0.00010651
-7.87055e-05
0.000115378
-7.66279e-05
0.000124893
-7.43704e-05
0.000135301
-7.19109e-05
0.000146549
-6.92307e-05
0.000158735
-6.63184e-05
0.000171999
-6.31429e-05
0.00018631
-5.96956e-05
0.000201918
-5.59393e-05
0.000218756
-5.18609e-05
0.00023709
-4.74253e-05
0.000256912
-4.2605e-05
0.000278402
-3.73716e-05
0.00030171
-3.16757e-05
0.000326844
-2.54957e-05
0.000354129
-1.87854e-05
0.000383566
-1.14972e-05
0.000415293
-3.59599e-06
0.000449526
4.96707e-06
0.000486314
1.42495e-05
0.000525708
2.42982e-05
0.000567827
3.51634e-05
0.000612649
4.68979e-05
0.000660078
5.95512e-05
0.000709932
7.31715e-05
0.000761887
8.7792e-05
0.000815435
0.000103439
0.000869814
0.000120117
0.000923966
0.000137773
0.000976382
0.00015642
0.00102506
0.000175824
0.00106748
0.000195878
0.00110017
0.000216286
0.00111871
0.000236703
0.00111763
0.000256432
0.00109016
0.00027481
0.00102777
0.000289357
0.000924887
0.000765297
0.000296294
-9.72858e-05
1.99782e-05
9.76164e-05
-9.69418e-05
2.16177e-05
-9.65768e-05
2.33884e-05
-9.61915e-05
2.53011e-05
-9.57781e-05
2.7368e-05
-9.5335e-05
2.9603e-05
-9.48538e-05
3.20214e-05
-9.43322e-05
3.46402e-05
-9.37606e-05
3.74716e-05
-9.31379e-05
4.05373e-05
-9.24548e-05
4.38634e-05
-9.17128e-05
4.7468e-05
-9.09011e-05
5.13747e-05
-9.00205e-05
5.5592e-05
-8.90579e-05
6.0156e-05
-8.80187e-05
6.51251e-05
-8.689e-05
7.05104e-05
-8.56649e-05
7.62986e-05
-8.43318e-05
8.25908e-05
-8.28903e-05
8.94407e-05
-8.13185e-05
9.68082e-05
-7.9608e-05
0.000104801
-7.77517e-05
0.000113524
-7.5721e-05
0.000122865
-7.35139e-05
0.000133096
-7.11083e-05
0.000144146
-6.8485e-05
0.000156114
-6.56323e-05
0.000169149
-6.25191e-05
0.0001832
-5.9137e-05
0.000198538
-5.54489e-05
0.000215072
-5.14424e-05
0.000233087
-4.70837e-05
0.000252554
-4.2345e-05
0.000273665
-3.71998e-05
0.000296567
-3.15995e-05
0.000321247
-2.5523e-05
0.000348056
-1.89251e-05
0.000376971
-1.17589e-05
0.00040813
-3.98963e-06
0.000441759
4.43128e-06
0.000477894
1.35614e-05
0.000516579
2.34475e-05
0.00055794
3.41389e-05
0.000601955
4.56872e-05
0.000648527
5.81402e-05
0.000697474
7.15436e-05
0.000748479
8.59282e-05
0.000801044
0.000101318
0.000854419
0.000117717
0.000907568
0.000135074
0.000959007
0.000153403
0.00100677
0.00017248
0.00104838
0.000192197
0.00108045
0.000212262
0.00109863
0.000232325
0.00109757
0.000251678
0.00107083
0.000269676
0.00100977
0.000284414
0.000910155
0.000757131
0.000292661
-9.62936e-05
1.9622e-05
9.66499e-05
-9.59197e-05
2.12426e-05
-9.55241e-05
2.2994e-05
-9.51103e-05
2.48865e-05
-9.46724e-05
2.69313e-05
-9.42108e-05
2.91409e-05
-9.37178e-05
3.15296e-05
-9.31923e-05
3.41136e-05
-9.26233e-05
3.69039e-05
-9.201e-05
3.9922e-05
-9.13399e-05
4.31948e-05
-9.0615e-05
4.67402e-05
-8.98199e-05
5.0582e-05
-8.89576e-05
5.47267e-05
-8.80108e-05
5.92119e-05
-8.69877e-05
6.40999e-05
-8.58727e-05
6.93985e-05
-8.46624e-05
7.50874e-05
-8.3344e-05
8.12756e-05
-8.19198e-05
8.8017e-05
-8.03678e-05
9.5259e-05
-7.86813e-05
0.000103116
-7.68534e-05
0.000111699
-7.48562e-05
0.000120869
-7.26877e-05
0.000130929
-7.03257e-05
0.000141786
-6.77511e-05
0.000153542
-6.49517e-05
0.000166352
-6.18964e-05
0.000180146
-5.85762e-05
0.000195221
-5.49547e-05
0.000211453
-5.10192e-05
0.000229154
-4.6736e-05
0.000248273
-4.20791e-05
0.000269009
-3.70213e-05
0.00029151
-3.15154e-05
0.000315743
-2.55408e-05
0.000342084
-1.90528e-05
0.000370486
-1.20054e-05
0.000401085
-4.36392e-06
0.000434121
3.91961e-06
0.000469613
1.29019e-05
0.000507599
2.26292e-05
0.000548215
3.31494e-05
0.000591437
4.45126e-05
0.000637164
5.67649e-05
0.000685221
6.995e-05
0.000735295
8.40969e-05
0.000786897
9.92283e-05
0.000839292
0.000115349
0.000891462
0.000132412
0.000941957
0.000150429
0.000988835
0.000169185
0.00102966
0.000188568
0.00106109
0.000208292
0.00107893
0.000228006
0.00107789
0.000247002
0.00105188
0.000264648
0.000992205
0.000279477
0.000895421
0.000748233
0.000288462
-9.56674e-05
1.92484e-05
9.60456e-05
-9.52673e-05
2.08431e-05
-9.48404e-05
2.25695e-05
-9.43908e-05
2.44376e-05
-9.39157e-05
2.6458e-05
-9.3417e-05
2.86424e-05
-9.28901e-05
3.10039e-05
-9.23344e-05
3.35577e-05
-9.1742e-05
3.63126e-05
-9.11104e-05
3.92897e-05
-9.04301e-05
4.25158e-05
-8.96989e-05
4.60079e-05
-8.89049e-05
4.97896e-05
-8.80447e-05
5.38654e-05
-8.71049e-05
5.82741e-05
-8.60879e-05
6.30821e-05
-8.49816e-05
6.82945e-05
-8.37788e-05
7.38844e-05
-8.24696e-05
7.99687e-05
-8.10544e-05
8.66024e-05
-7.95139e-05
9.37206e-05
-7.78411e-05
0.000101444
-7.60306e-05
0.00010989
-7.40552e-05
0.000118896
-7.19136e-05
0.00012879
-6.95841e-05
0.000139459
-6.70477e-05
0.000151007
-6.42924e-05
0.000163598
-6.1287e-05
0.000177143
-5.80226e-05
0.000191959
-5.44623e-05
0.000207896
-5.05938e-05
0.000225288
-4.6384e-05
0.000244064
-4.18061e-05
0.000264432
-3.68341e-05
0.00028654
-3.14208e-05
0.000310332
-2.55461e-05
0.000336212
-1.91662e-05
0.000364108
-1.22353e-05
0.000394156
-4.7193e-06
0.000426606
3.42932e-06
0.000461465
1.2266e-05
0.000498762
2.18358e-05
0.000538643
3.21854e-05
0.000581084
4.33636e-05
0.000625982
5.54149e-05
0.000673164
6.83815e-05
0.000722323
8.22916e-05
0.000772979
9.71673e-05
0.00082441
0.000113014
0.000875614
0.000129788
0.000925166
0.000147499
0.000971155
0.000165937
0.0010112
0.000184987
0.00104203
0.000204367
0.00105953
0.000223728
0.00105851
0.000242383
0.00103324
0.000259691
0.000974883
0.000274441
0.000880661
0.000738851
0.000283863
-9.51973e-05
1.88741e-05
9.55727e-05
-9.47914e-05
2.04364e-05
-9.43511e-05
2.21306e-05
-9.3881e-05
2.39672e-05
-9.33785e-05
2.59568e-05
-9.28473e-05
2.81109e-05
-9.22844e-05
3.04421e-05
-9.16921e-05
3.29646e-05
-9.10639e-05
3.56855e-05
-9.04005e-05
3.86246e-05
-8.96921e-05
4.18086e-05
-8.89395e-05
4.52527e-05
-8.81283e-05
4.89801e-05
-8.72582e-05
5.29924e-05
-8.63116e-05
5.73296e-05
-8.5293e-05
6.20615e-05
-8.41867e-05
6.71907e-05
-8.2987e-05
7.26838e-05
-8.16819e-05
7.86661e-05
-8.02726e-05
8.51936e-05
-7.87394e-05
9.21897e-05
-7.7076e-05
9.97823e-05
-7.52775e-05
0.000108094
-7.33176e-05
0.000116938
-7.11957e-05
0.000126669
-6.88906e-05
0.000137155
-6.63844e-05
0.000148502
-6.36649e-05
0.000160881
-6.07019e-05
0.000174182
-5.74858e-05
0.000188745
-5.39809e-05
0.000204394
-5.01741e-05
0.000221483
-4.60326e-05
0.000239924
-4.15304e-05
0.00025993
-3.66408e-05
0.000281651
-3.13176e-05
0.000305011
-2.55406e-05
0.000330437
-1.92667e-05
0.000357837
-1.24506e-05
0.000387342
-5.05829e-06
0.000419216
2.95685e-06
0.000453452
1.16489e-05
0.000490072
2.10619e-05
0.000529232
3.12414e-05
0.000570906
4.22348e-05
0.000614989
5.40857e-05
0.000661313
6.68351e-05
0.000709574
8.0511e-05
0.000759303
9.51355e-05
0.000809789
0.000110714
0.000860047
0.000127205
0.000908684
0.000144616
0.000953816
0.00016274
0.000993101
0.000181455
0.00102332
0.000200488
0.0010405
0.000219492
0.00103953
0.000237815
0.00101495
0.000254796
0.000957967
0.000269398
0.000866135
0.000729097
0.000279219
-9.46937e-05
1.85145e-05
9.50565e-05
-9.42981e-05
2.00409e-05
-9.38636e-05
2.16981e-05
-9.33935e-05
2.34972e-05
-9.28845e-05
2.54493e-05
-9.23402e-05
2.75664e-05
-9.1758e-05
2.9861e-05
-9.11412e-05
3.23472e-05
-9.04852e-05
3.50306e-05
-8.97921e-05
3.79304e-05
-8.90548e-05
4.10727e-05
-8.82746e-05
4.44713e-05
-8.74405e-05
4.81479e-05
-8.65507e-05
5.21014e-05
-8.55905e-05
5.63718e-05
-8.4562e-05
6.10322e-05
-8.34513e-05
6.60823e-05
-8.22501e-05
7.14825e-05
-8.09473e-05
7.73656e-05
-7.95423e-05
8.37892e-05
-7.80159e-05
9.06654e-05
-7.63613e-05
9.8129e-05
-7.45739e-05
0.000106308
-7.2628e-05
0.000114994
-7.05232e-05
0.000124566
-6.82393e-05
0.000134873
-6.57588e-05
0.000146023
-6.30705e-05
0.000158194
-6.01442e-05
0.000171257
-5.69713e-05
0.000185574
-5.35159e-05
0.000200941
-4.97657e-05
0.000217735
-4.56883e-05
0.000235847
-4.12572e-05
0.000255499
-3.64464e-05
0.000276841
-3.12099e-05
0.000299776
-2.55278e-05
0.000324757
-1.93573e-05
0.000351668
-1.26538e-05
0.00038064
-5.3837e-06
0.000411946
2.49914e-06
0.000445569
1.10476e-05
0.000481522
2.03045e-05
0.000519973
3.03146e-05
0.000560892
4.11244e-05
0.000604175
5.27766e-05
0.000649654
6.53117e-05
0.000697033
7.87577e-05
0.000745849
9.31364e-05
0.000795403
0.000108453
0.000844728
0.000124668
0.000892452
0.000141784
0.000936729
0.000159596
0.00097527
0.000177978
0.00100492
0.000196662
0.0010218
0.000215307
0.00102086
0.000233303
0.000996959
0.000249974
0.000941277
0.000264471
0.00085162
0.0007188
0.000274786
-9.40712e-05
1.81746e-05
9.44111e-05
-9.36965e-05
1.96649e-05
-9.32809e-05
2.12836e-05
-9.28266e-05
2.30421e-05
-9.23287e-05
2.49525e-05
-9.179e-05
2.7027e-05
-9.12069e-05
2.92791e-05
-9.05836e-05
3.17229e-05
-8.99152e-05
3.43633e-05
-8.92059e-05
3.72194e-05
-8.84487e-05
4.0317e-05
-8.76485e-05
4.36685e-05
-8.67934e-05
4.72947e-05
-8.58858e-05
5.1191e-05
-8.49093e-05
5.53977e-05
-8.38695e-05
5.99904e-05
-8.27501e-05
6.49655e-05
-8.15453e-05
7.02768e-05
-8.02419e-05
7.60648e-05
-7.88403e-05
8.23879e-05
-7.732e-05
8.91474e-05
-7.56746e-05
9.64848e-05
-7.38988e-05
0.000104534
-7.19675e-05
0.000113064
-6.98802e-05
0.00012248
-6.76172e-05
0.000132612
-6.51615e-05
0.000143569
-6.25023e-05
0.000155536
-5.96106e-05
0.000168367
-5.64775e-05
0.000182443
-5.30686e-05
0.000197535
-4.93713e-05
0.00021404
-4.53538e-05
0.000231831
-4.09905e-05
0.000251136
-3.62549e-05
0.000272106
-3.11018e-05
0.000294625
-2.55115e-05
0.000319169
-1.94418e-05
0.0003456
-1.28487e-05
0.000374049
-5.69882e-06
0.000404798
2.05326e-06
0.000437818
1.04594e-05
0.000473117
1.95617e-05
0.000510872
2.94042e-05
0.000551051
4.00324e-05
0.000593547
5.14888e-05
0.000638198
6.38134e-05
0.000684709
7.70339e-05
0.000732628
9.11722e-05
0.000781267
0.000106233
0.000829676
0.000122177
0.000876516
0.000139003
0.000919969
0.000156506
0.000957788
0.000174555
0.000986869
0.000192892
0.00100346
0.000211181
0.00100259
0.000228857
0.000979313
0.000245244
0.000924948
0.000259716
0.000837214
0.000707978
0.000270596
-9.33067e-05
1.78556e-05
9.36296e-05
-9.29529e-05
1.93119e-05
-9.25605e-05
2.08932e-05
-9.21288e-05
2.26112e-05
-9.16532e-05
2.44783e-05
-9.11336e-05
2.65076e-05
-9.05667e-05
2.87131e-05
-8.99538e-05
3.11096e-05
-8.92914e-05
3.37018e-05
-8.85815e-05
3.65087e-05
-8.78203e-05
3.95569e-05
-8.70106e-05
4.28577e-05
-8.61454e-05
4.6431e-05
-8.52248e-05
5.02693e-05
-8.42379e-05
5.44126e-05
-8.31875e-05
5.89392e-05
-8.20617e-05
6.38417e-05
-8.08524e-05
6.90673e-05
-7.95491e-05
7.47634e-05
-7.81502e-05
8.09895e-05
-7.66365e-05
8.76356e-05
-7.50006e-05
9.485e-05
-7.32374e-05
0.000102773
-7.13217e-05
0.00011115
-6.9253e-05
0.000120413
-6.70118e-05
0.000130373
-6.45815e-05
0.00014114
-6.19517e-05
0.000152908
-5.90938e-05
0.000165511
-5.6e-05
0.000179351
-5.26356e-05
0.000194173
-4.89894e-05
0.000210396
-4.50299e-05
0.000227872
-4.07313e-05
0.000246837
-3.60683e-05
0.000267444
-3.09958e-05
0.000289554
-2.54946e-05
0.000313669
-1.9523e-05
0.00033963
-1.30377e-05
0.000367564
-6.00585e-06
0.000397766
1.61737e-06
0.000430194
9.8831e-06
0.00046485
1.88329e-05
0.00050192
2.85098e-05
0.00054137
3.89593e-05
0.000583093
5.0223e-05
0.000626927
6.23407e-05
0.000672585
7.53399e-05
0.000719621
8.92421e-05
0.000767358
0.000104051
0.000814864
0.000119727
0.000860823
0.000136266
0.000903459
0.000153463
0.000940575
0.000171183
0.000969123
0.000189178
0.000985442
0.000207117
0.000984631
0.000224484
0.000961941
0.000240615
0.000908796
0.000255108
0.000822698
0.000696536
0.000266546
-9.2421e-05
1.75537e-05
9.27237e-05
-9.20884e-05
1.89786e-05
-9.17191e-05
2.0525e-05
-9.13124e-05
2.22043e-05
-9.08624e-05
2.40292e-05
-9.0368e-05
2.60132e-05
-8.98247e-05
2.81707e-05
-8.9233e-05
3.05173e-05
-8.85879e-05
3.30576e-05
-8.78917e-05
3.5811e-05
-8.71389e-05
3.88052e-05
-8.63344e-05
4.20507e-05
-8.54691e-05
4.55674e-05
-8.45473e-05
4.93448e-05
-8.35559e-05
5.34233e-05
-8.2502e-05
5.78833e-05
-8.1372e-05
6.27141e-05
-8.01615e-05
6.78559e-05
-7.88584e-05
7.34627e-05
-7.74633e-05
7.95947e-05
-7.59563e-05
8.61307e-05
-7.43306e-05
9.32254e-05
-7.25807e-05
0.000101024
-7.06815e-05
0.000109252
-6.86325e-05
0.000118365
-6.64142e-05
0.000128156
-6.40104e-05
0.000138738
-6.14108e-05
0.00015031
-5.85876e-05
0.000162689
-5.55327e-05
0.000176298
-5.22132e-05
0.000190856
-4.86171e-05
0.000206802
-4.4714e-05
0.000223969
-4.04791e-05
0.000242601
-3.58867e-05
0.000262851
-3.08928e-05
0.000284561
-2.54784e-05
0.000308256
-1.96026e-05
0.000333755
-1.32228e-05
0.000361185
-6.30674e-06
0.000390851
1.18984e-06
0.000422699
9.31741e-06
0.000456724
1.8117e-05
0.000493121
2.76313e-05
0.000531857
3.79048e-05
0.00057282
4.89789e-05
0.000615853
6.08928e-05
0.000660672
7.36738e-05
0.000706839
8.73425e-05
0.000753691
0.000101901
0.000800313
0.000117311
0.000845419
0.000133564
0.000887267
0.000150457
0.000923701
0.000167852
0.000951727
0.000185513
0.000967787
0.000203113
0.000967049
0.000220184
0.000944898
0.000236083
0.000892952
0.000250591
0.000808253
0.000684697
0.000262489
-9.14332e-05
1.72662e-05
9.17236e-05
-9.11171e-05
1.86628e-05
-9.07676e-05
2.01771e-05
-9.03838e-05
2.18206e-05
-8.99589e-05
2.36056e-05
-8.94918e-05
2.55459e-05
-8.89765e-05
2.76562e-05
-8.84122e-05
2.99525e-05
-8.7793e-05
3.24393e-05
-8.71195e-05
3.51368e-05
-8.63867e-05
3.80735e-05
-8.55971e-05
4.12601e-05
-8.47445e-05
4.47162e-05
-8.38299e-05
4.84293e-05
-8.28449e-05
5.244e-05
-8.17938e-05
5.68315e-05
-8.06674e-05
6.15896e-05
-7.94595e-05
6.66478e-05
-7.81612e-05
7.21663e-05
-7.67719e-05
7.82059e-05
-7.52737e-05
8.46342e-05
-7.36593e-05
9.16121e-05
-7.19236e-05
9.92902e-05
-7.00419e-05
0.000107372
-6.80134e-05
0.000116338
-6.58191e-05
0.000125963
-6.34427e-05
0.000136363
-6.08743e-05
0.000147743
-5.80863e-05
0.000159903
-5.50715e-05
0.000173284
-5.17964e-05
0.000187583
-4.82507e-05
0.000203258
-4.44041e-05
0.000220123
-4.02317e-05
0.000238429
-3.5709e-05
0.000258328
-3.07922e-05
0.000279645
-2.54629e-05
0.000302928
-1.96811e-05
0.000327974
-1.34046e-05
0.000354909
-6.60211e-06
0.000384048
7.69986e-07
0.000415325
8.76163e-06
0.00044873
1.74135e-05
0.000484466
2.67676e-05
0.000522498
3.68677e-05
0.000562714
4.77548e-05
0.000604959
5.94672e-05
0.000648953
7.20319e-05
0.000694266
8.54684e-05
0.000740247
9.97778e-05
0.000785999
0.000114922
0.00083026
0.000130889
0.000871328
0.000147479
0.000907097
0.000164554
0.000934624
0.000181891
0.000950422
0.000199166
0.00094975
0.000215957
0.0009281
0.000231641
0.000877247
0.000246113
0.000793758
0.000672456
0.000258335
-9.03723e-05
1.69889e-05
9.0649e-05
-9.00705e-05
1.83597e-05
-8.97373e-05
1.98448e-05
-8.93729e-05
2.14554e-05
-8.89699e-05
2.32036e-05
-8.85273e-05
2.51028e-05
-8.80381e-05
2.71681e-05
-8.7502e-05
2.94155e-05
-8.69107e-05
3.18493e-05
-8.62657e-05
3.44902e-05
-8.55586e-05
3.7368e-05
-8.47939e-05
4.04931e-05
-8.39612e-05
4.38857e-05
-8.30655e-05
4.75311e-05
-8.20942e-05
5.14712e-05
-8.1056e-05
5.57915e-05
-7.99387e-05
6.0475e-05
-7.87403e-05
6.54486e-05
-7.74504e-05
7.0879e-05
-7.6071e-05
7.68267e-05
-7.45837e-05
8.3149e-05
-7.29826e-05
9.0012e-05
-7.12626e-05
9.75717e-05
-6.93996e-05
0.000105511
-6.73927e-05
0.000114333
-6.52232e-05
0.000123795
-6.28753e-05
0.000134016
-6.03388e-05
0.000145208
-5.75871e-05
0.000157152
-5.46124e-05
0.000170311
-5.13831e-05
0.000184356
-4.78876e-05
0.000199765
-4.4097e-05
0.000216333
-3.99872e-05
0.000234318
-3.55334e-05
0.000253874
-3.06929e-05
0.000274805
-2.54477e-05
0.000297683
-1.97583e-05
0.000322286
-1.35836e-05
0.000348735
-6.8926e-06
0.000377358
3.57018e-07
0.000408076
8.21486e-06
0.000440872
1.67214e-05
0.00047596
2.59175e-05
0.000513302
3.58466e-05
0.000552786
4.65487e-05
0.000594257
5.80613e-05
0.000637441
7.04106e-05
0.000681916
8.36154e-05
0.000727043
9.76752e-05
0.000771945
0.000112553
0.000815388
0.000128234
0.000855704
0.000144525
0.000890825
0.000161287
0.000917862
0.000178309
0.00093341
0.000195276
0.000932805
0.0002118
0.000911607
0.000227282
0.000861823
0.000241652
0.000779454
0.000660121
0.00025405
-8.92526e-05
1.67207e-05
8.95248e-05
-8.89597e-05
1.80677e-05
-8.86391e-05
1.95261e-05
-8.82895e-05
2.11065e-05
-8.79054e-05
2.28208e-05
-8.74843e-05
2.46821e-05
-8.70205e-05
2.6705e-05
-8.6511e-05
2.8906e-05
-8.59498e-05
3.12886e-05
-8.53337e-05
3.38739e-05
-8.46577e-05
3.66926e-05
-8.39206e-05
3.97554e-05
-8.31168e-05
4.30826e-05
-8.22445e-05
4.66582e-05
-8.1297e-05
5.05248e-05
-8.02773e-05
5.47712e-05
-7.91786e-05
5.93775e-05
-7.7995e-05
6.42649e-05
-7.67205e-05
6.96058e-05
-7.53548e-05
7.54615e-05
-7.38826e-05
8.16783e-05
-7.22974e-05
8.84278e-05
-7.05952e-05
9.58709e-05
-6.87523e-05
0.000103669
-6.67684e-05
0.00011235
-6.46249e-05
0.000121653
-6.23062e-05
0.000131698
-5.98026e-05
0.000142705
-5.70876e-05
0.000154438
-5.41543e-05
0.000167379
-5.09702e-05
0.000181174
-4.75256e-05
0.000196322
-4.37914e-05
0.000212598
-3.97438e-05
0.000230269
-3.53586e-05
0.000249489
-3.05938e-05
0.000270041
-2.54316e-05
0.000292522
-1.98336e-05
0.000316688
-1.37591e-05
0.000342661
-7.17808e-06
0.000370776
-4.91593e-08
0.000400946
7.67673e-06
0.000433144
1.60398e-05
0.000467593
2.50799e-05
0.000504257
3.48396e-05
0.00054302
4.53581e-05
0.000583731
5.66721e-05
0.00062612
6.88068e-05
0.000669773
8.178e-05
0.000714062
9.55907e-05
0.000758129
0.000110202
0.000800762
0.0001256
0.000840334
0.000141594
0.000874818
0.00015805
0.000901377
0.00017477
0.000916662
0.000191443
0.000916106
0.000207717
0.000895322
0.000223002
0.000846517
0.000237209
0.000765222
0.000647627
0.000249664
-8.80961e-05
1.64585e-05
8.83588e-05
-8.78123e-05
1.77832e-05
-8.7502e-05
1.92168e-05
-8.7165e-05
2.07694e-05
-8.67958e-05
2.24524e-05
-8.63923e-05
2.42786e-05
-8.59488e-05
2.62624e-05
-8.54631e-05
2.84198e-05
-8.49275e-05
3.07538e-05
-8.43405e-05
3.32857e-05
-8.36938e-05
3.60469e-05
-8.29883e-05
3.90479e-05
-8.22137e-05
4.23096e-05
-8.1372e-05
4.58143e-05
-8.04512e-05
4.9606e-05
-7.9458e-05
5.37764e-05
-7.83819e-05
5.83037e-05
-7.72205e-05
6.31029e-05
-7.59655e-05
6.83529e-05
-7.46192e-05
7.41156e-05
-7.31658e-05
8.02266e-05
-7.16001e-05
8.68631e-05
-6.99184e-05
9.41906e-05
-6.80979e-05
0.00010185
-6.61387e-05
0.000110392
-6.40224e-05
0.000119538
-6.17342e-05
0.000129411
-5.92643e-05
0.000140236
-5.65871e-05
0.000151762
-5.3695e-05
0.000164489
-5.05575e-05
0.000178038
-4.71635e-05
0.00019293
-4.34856e-05
0.000208921
-3.95002e-05
0.000226283
-3.51834e-05
0.000245171
-3.04938e-05
0.000265351
-2.54141e-05
0.000287443
-1.99066e-05
0.000311181
-1.39314e-05
0.000336685
-7.45892e-06
0.000364303
-4.49082e-07
0.000393936
7.14661e-06
0.000425548
1.53678e-05
0.000459372
2.42535e-05
0.000495372
3.38453e-05
0.000533429
4.41816e-05
0.000573394
5.52978e-05
0.000615004
6.72187e-05
0.000657851
7.99609e-05
0.00070132
9.35228e-05
0.000744571
0.00010787
0.00078642
0.000122986
0.000825271
0.00013869
0.000859132
0.000154848
0.000885219
0.000171277
0.000900246
0.000187673
0.000899736
0.000203707
0.00087932
0.000218802
0.00083148
0.000232807
0.000751282
0.000635276
0.000245225
-8.69084e-05
1.62023e-05
8.71673e-05
-8.66307e-05
1.75058e-05
-8.63285e-05
1.8916e-05
-8.60015e-05
2.04426e-05
-8.56446e-05
2.20965e-05
-8.52564e-05
2.38902e-05
-8.4831e-05
2.58376e-05
-8.43661e-05
2.79546e-05
-8.38544e-05
3.02429e-05
-8.32933e-05
3.27241e-05
-8.26756e-05
3.54301e-05
-8.19994e-05
3.83712e-05
-8.1257e-05
4.15683e-05
-8.04456e-05
4.50025e-05
-7.9557e-05
4.87186e-05
-7.85929e-05
5.28121e-05
-7.75463e-05
5.72585e-05
-7.64113e-05
6.1968e-05
-7.51824e-05
6.71255e-05
-7.38599e-05
7.27937e-05
-7.24302e-05
7.87983e-05
-7.08877e-05
8.53217e-05
-6.92299e-05
9.2534e-05
-6.74344e-05
0.000100056
-6.55018e-05
0.00010846
-6.34146e-05
0.000117452
-6.11581e-05
0.000127156
-5.87231e-05
0.000137802
-5.60842e-05
0.000149124
-5.32346e-05
0.00016164
-5.01431e-05
0.000174949
-4.68007e-05
0.000189589
-4.31792e-05
0.000205299
-3.92557e-05
0.000222358
-3.5007e-05
0.000240922
-3.03922e-05
0.000260737
-2.53944e-05
0.000282445
-1.99766e-05
0.000305763
-1.40997e-05
0.000330808
-7.73478e-06
0.000357937
-8.42619e-07
0.000387041
6.62434e-06
0.000418078
1.47049e-05
0.000451287
2.34375e-05
0.000486633
3.28626e-05
0.000523997
4.30177e-05
0.000563231
5.39374e-05
0.000604076
6.56457e-05
0.000646133
7.81583e-05
0.0006888
9.14738e-05
0.000731249
0.000105559
0.000772322
0.000120399
0.000810457
0.000135818
0.000843701
0.00015169
0.000869317
0.000167839
0.000884067
0.000183971
0.000883577
0.000199777
0.000863498
0.000214686
0.000816548
0.00022847
0.000737468
0.000622891
0.000240796
-8.57041e-05
1.59501e-05
8.59553e-05
-8.54329e-05
1.72333e-05
-8.51374e-05
1.86212e-05
-8.48188e-05
2.01232e-05
-8.44713e-05
2.17499e-05
-8.40948e-05
2.35132e-05
-8.36829e-05
2.54269e-05
-8.32352e-05
2.75061e-05
-8.27427e-05
2.97519e-05
-8.22053e-05
3.21854e-05
-8.16127e-05
3.48391e-05
-8.09661e-05
3.77228e-05
-8.0253e-05
4.08574e-05
-7.94748e-05
4.42223e-05
-7.86174e-05
4.78639e-05
-7.7687e-05
5.18803e-05
-7.66713e-05
5.62455e-05
-7.55679e-05
6.08642e-05
-7.43683e-05
6.59282e-05
-7.30748e-05
7.15007e-05
-7.16727e-05
7.73981e-05
-7.01576e-05
8.38077e-05
-6.8527e-05
9.09047e-05
-6.67596e-05
9.829e-05
-6.48562e-05
0.000106558
-6.27999e-05
0.000115397
-6.05769e-05
0.000124933
-5.81779e-05
0.000135405
-5.55785e-05
0.000146526
-5.27715e-05
0.000158835
-4.97276e-05
0.000171907
-4.64362e-05
0.000186299
-4.28712e-05
0.000201733
-3.90099e-05
0.000218495
-3.48289e-05
0.00023674
-3.02885e-05
0.000256196
-2.53722e-05
0.000277529
-2.00434e-05
0.000300434
-1.42641e-05
0.000325028
-8.00575e-06
0.000351678
-1.23004e-06
0.000380265
6.10948e-06
0.000410737
1.40507e-05
0.000443345
2.26314e-05
0.000478052
3.18911e-05
0.000514736
4.18666e-05
0.000553254
5.25913e-05
0.000593351
6.40888e-05
0.000634635
7.63742e-05
0.000676513
8.94462e-05
0.00071818
0.000103274