/*--------------------------------*- C++ -*----------------------------------*\
  =========                 |
  \\      /  F ield         | OpenFOAM: The Open Source CFD Toolbox
   \\    /   O peration     | Website:  https://openfoam.org
    \\  /    A nd           | Version:  6.0
     \\/     M anipulation  |
\*---------------------------------------------------------------------------*/
FoamFile
{
    version     2.0;
    format      ascii;
    class       volScalarField;
    location    "14";
    object      p;
}
// * * * * * * * * * * * * * * * * * * * * * * * * * * * * * * * * * * * * * //

dimensions      [0 2 -2 0 0 0 0];

internalField   nonuniform List<scalar> 
62000
(
0.0241116
0.0240024
0.0238849
0.023763
0.0236323
0.0234958
0.0233509
0.0232016
0.023044
0.0228795
0.0227013
0.0225103
0.0223007
0.0220751
0.0218287
0.0215645
0.0212774
0.0209696
0.0206356
0.0202762
0.0198863
0.019465
0.0190078
0.0185121
0.0179737
0.0173889
0.0167533
0.0160625
0.0153116
0.0144961
0.0136107
0.0126522
0.011614
0.0104938
0.00928839
0.00799647
0.00661827
0.00515457
0.00360816
0.00198468
0.000293801
-0.00144977
-0.00322461
-0.00500304
-0.0067512
-0.00843031
-0.0100016
-0.0114255
-0.0126728
-0.0137138
-0.0145309
-0.0150912
-0.0153583
-0.0152507
-0.0146924
-0.0135472
-0.0118435
-0.00921578
-0.0101946
-0.0208392
0.024152
0.0240219
0.0238855
0.0237465
0.0235984
0.0234419
0.0232758
0.0231094
0.0229461
0.0227924
0.022642
0.0224917
0.0223295
0.0221528
0.0219531
0.0217324
0.0214853
0.0212149
0.0209163
0.0205914
0.0202349
0.0198468
0.0194221
0.0189589
0.0184525
0.0178995
0.0172951
0.016635
0.0159144
0.0151281
0.0142713
0.0133385
0.012324
0.0112236
0.0100329
0.00875045
0.00737412
0.00590214
0.00433415
0.00267248
0.000923016
-0.000903027
-0.00278727
-0.0047041
-0.00661983
-0.00849339
-0.010281
-0.0119347
-0.0134161
-0.0146828
-0.015708
-0.0164424
-0.0168333
-0.0167563
-0.0160881
-0.0146174
-0.0123444
-0.0091136
-0.00764248
-0.00651639
0.023995
0.0238557
0.0237144
0.0235759
0.023433
0.02328
0.0231078
0.0229229
0.0227353
0.0225622
0.0224074
0.0222715
0.0221402
0.0220047
0.02185
0.0216733
0.0214665
0.0212327
0.020967
0.0206727
0.0203448
0.0199847
0.0195873
0.0191519
0.0186737
0.0181501
0.0175768
0.0169502
0.0162658
0.0155195
0.0147068
0.0138228
0.0128625
0.0118206
0.010697
0.00948956
0.00819759
0.00681922
0.00535349
0.00380179
0.00216903
0.000465385
-0.00129175
-0.00307734
-0.00485712
-0.00658755
-0.0082201
-0.00969981
-0.0109819
-0.0120186
-0.0127888
-0.0132577
-0.0134107
-0.0131686
-0.012491
-0.0112851
-0.0097518
-0.00802018
-0.00847699
-0.0108897
0.0238512
0.0237053
0.02356
0.0234243
0.023298
0.0231715
0.0230245
0.0228509
0.0226574
0.0224673
0.0222967
0.0221564
0.0220374
0.0219291
0.0218114
0.0216753
0.0215085
0.0213112
0.0210784
0.0208135
0.0205127
0.0201781
0.0198052
0.0193939
0.0189399
0.0184412
0.0178939
0.017295
0.0166408
0.0159278
0.0151523
0.0143099
0.0133947
0.0124049
0.0113376
0.0101944
0.00897465
0.00767586
0.00629552
0.00483281
0.00328968
0.00167263
-5.64649e-06
-0.00172569
-0.00345878
-0.00516583
-0.00680067
-0.00830737
-0.00963816
-0.0107396
-0.0115901
-0.0121573
-0.0124464
-0.0124003
-0.0120216
-0.0112733
-0.0103863
-0.00947545
-0.00979304
-0.0111376
0.0238285
0.0236917
0.0235501
0.0234161
0.0233007
0.0231995
0.0230858
0.0229405
0.0227597
0.0225642
0.0223766
0.0222178
0.0220874
0.0219785
0.0218701
0.0217493
0.0215994
0.0214179
0.0211982
0.0209439
0.0206519
0.0203251
0.0199599
0.0195566
0.0191112
0.0186222
0.0180859
0.0174999
0.0168609
0.016166
0.0154121
0.014595
0.0137108
0.0127541
0.0117274
0.0106306
0.00946467
0.00822698
0.0069136
0.00552135
0.00404896
0.00249841
0.000876157
-0.000806477
-0.00253014
-0.00426518
-0.00597338
-0.00760325
-0.00910688
-0.010424
-0.0115225
-0.0123536
-0.0129091
-0.0131114
-0.0129433
-0.012348
-0.0115059
-0.010458
-0.00988086
-0.0115453
0.0240263
0.0239265
0.0238105
0.0236881
0.0235822
0.0234989
0.0234141
0.0233015
0.0231469
0.0229643
0.022776
0.0226077
0.0224658
0.0223478
0.0222344
0.0221103
0.0219565
0.0217668
0.0215342
0.0212617
0.020948
0.0205972
0.0202077
0.0197805
0.0193128
0.0188033
0.0182488
0.0176472
0.0169957
0.0162922
0.0155339
0.0147183
0.0138398
0.0128983
0.0118926
0.0108272
0.00970417
0.00852236
0.00727863
0.00596998
0.00459446
0.00315235
0.00164648
8.20422e-05
-0.00153002
-0.00317015
-0.00481063
-0.00640907
-0.00792363
-0.00929405
-0.0104839
-0.0114314
-0.0121183
-0.0124494
-0.0123946
-0.011904
-0.0111835
-0.0103702
-0.00996096
-0.0127613
0.0242859
0.0242402
0.0241663
0.0240676
0.0239747
0.0239045
0.0238403
0.0237553
0.0236303
0.0234731
0.0233039
0.0231493
0.0230199
0.0229162
0.0228206
0.0227161
0.0225804
0.0224036
0.0221757
0.0218986
0.0215708
0.0211983
0.020781
0.020322
0.0198202
0.0192755
0.0186858
0.0180498
0.0173654
0.0166314
0.015846
0.0150071
0.0141126
0.0131588
0.0121509
0.0110926
0.00998995
0.00884447
0.00765588
0.00642391
0.00514897
0.00383306
0.00247927
0.00109054
-0.000327323
-0.0017628
-0.00319889
-0.00460556
-0.00595395
-0.00719505
-0.00830261
-0.00922132
-0.00994523
-0.010392
-0.0105528
-0.0104226
-0.0102624
-0.0103014
-0.0107938
-0.0146154
0.0244151
0.0244226
0.0243929
0.0243228
0.0242453
0.0241842
0.0241309
0.0240621
0.0239581
0.0238231
0.0236762
0.0235443
0.0234411
0.02337
0.0233152
0.023259
0.0231767
0.0230538
0.0228764
0.0226422
0.0223481
0.0219988
0.0215948
0.0211401
0.0206349
0.0200803
0.0194755
0.0188203
0.0181134
0.0173546
0.0165431
0.0156783
0.0147569
0.0137811
0.012752
0.011678
0.010567
0.00942354
0.00825096
0.0070528
0.00583338
0.00459856
0.00335443
0.00210494
0.000854187
-0.000391372
-0.00162364
-0.00282519
-0.00398349
-0.00506751
-0.00607218
-0.00696215
-0.00776111
-0.00841627
-0.00895111
-0.00939696
-0.010009
-0.0109729
-0.0124029
-0.0168059
0.0243088
0.0243521
0.0243551
0.0243099
0.0242469
0.0241922
0.0241432
0.0240804
0.0239848
0.0238597
0.0237237
0.0236049
0.0235196
0.0234747
0.0234578
0.0234524
0.0234335
0.023384
0.0232863
0.0231337
0.0229194
0.0226447
0.0223085
0.0219132
0.0214587
0.020946
0.0203745
0.0197444
0.0190549
0.0183062
0.017498
0.0166301
0.0157018
0.0147112
0.0136648
0.0125687
0.0114332
0.0102651
0.00907012
0.00785516
0.00662821
0.00539919
0.00417815
0.0029718
0.00178513
0.000622673
-0.000513027
-0.00161422
-0.00268258
-0.00370462
-0.00469683
-0.00564546
-0.00660385
-0.00754535
-0.00851063
-0.00952878
-0.0107822
-0.0123395
-0.0144114
-0.0189824
0.0240216
0.0240807
0.0241006
0.0240706
0.0240164
0.0239634
0.0239127
0.0238476
0.0237502
0.0236232
0.0234849
0.0233637
0.0232785
0.0232389
0.0232362
0.023257
0.0232785
0.0232836
0.023254
0.0231804
0.0230532
0.0228705
0.0226283
0.022326
0.0219616
0.0215341
0.0210415
0.0204829
0.0198565
0.0191623
0.0183991
0.017567
0.0166629
0.0156888
0.014646
0.0135423
0.0123877
0.0111891
0.00995351
0.00868944
0.0074073
0.00612007
0.00484129
0.0035809
0.00234623
0.00114253
-2.95366e-05
-0.00116716
-0.00228091
-0.00336874
-0.00446237
-0.00556109
-0.00673862
-0.0079785
-0.00931659
-0.0107488
-0.0123628
-0.0141389
-0.0165394
-0.021025
0.0236207
0.0236761
0.0236967
0.0236708
0.0236181
0.0235618
0.0235047
0.023432
0.0233265
0.02319
0.0230408
0.022907
0.0228086
0.0227569
0.0227465
0.0227666
0.0227974
0.0228239
0.022829
0.0228036
0.0227377
0.0226275
0.0224673
0.0222544
0.0219844
0.0216538
0.0212583
0.0207949
0.0202595
0.0196504
0.0189647
0.0182009
0.0173565
0.0164277
0.0154186
0.0143327
0.0131792
0.0119642
0.0106936
0.00937609
0.00802258
0.00664747
0.00526655
0.00389247
0.00253534
0.00120277
-0.000103329
-0.00138047
-0.00264196
-0.00388968
-0.00516115
-0.00645868
-0.00786299
-0.00935448
-0.0109495
-0.0126007
-0.0143196
-0.0160619
-0.0185686
-0.0228505
0.0231759
0.0232152
0.0232251
0.0231936
0.023135
0.0230696
0.0230017
0.0229173
0.0227999
0.0226507
0.0224873
0.0223371
0.0222204
0.0221489
0.0221187
0.0221205
0.0221372
0.0221556
0.0221614
0.0221468
0.0221033
0.0220275
0.0219141
0.0217594
0.0215581
0.021305
0.0209939
0.0206195
0.0201753
0.0196572
0.01906
0.0183803
0.0176115
0.0167517
0.015798
0.0147537
0.013625
0.0124154
0.0111291
0.00977296
0.00835697
0.00689529
0.00540456
0.00389906
0.00239133
0.000891967
-0.000594081
-0.00206128
-0.00352092
-0.00497238
-0.0064516
-0.00795464
-0.00956077
-0.0112382
-0.0129797
-0.0147017
-0.0163718
-0.017972
-0.0204625
-0.0245149
0.0227073
0.0227203
0.0227106
0.0226665
0.022597
0.0225195
0.0224385
0.0223406
0.0222098
0.0220465
0.0218682
0.0217016
0.0215668
0.0214751
0.0214231
0.0214019
0.0213956
0.0213923
0.0213793
0.0213505
0.0212993
0.0212241
0.0211207
0.0209866
0.0208171
0.0206065
0.0203483
0.0200356
0.0196606
0.0192171
0.0186975
0.0180957
0.0174048
0.0166158
0.0157277
0.014738
0.0136507
0.0124665
0.0111864
0.00981493
0.00835964
0.00683315
0.00525156
0.00362959
0.00198137
0.000320203
-0.00134528
-0.00300488
-0.00466499
-0.00631875
-0.00799555
-0.00968014
-0.0114454
-0.0132455
-0.0150529
-0.0167608
-0.0183207
-0.0197611
-0.0221812
-0.0260205
0.022261
0.022245
0.0222117
0.0221497
0.0220638
0.021969
0.0218705
0.0217553
0.0216077
0.0214279
0.0212332
0.0210495
0.0208969
0.0207859
0.0207129
0.0206687
0.0206377
0.0206081
0.0205683
0.0205129
0.0204373
0.0203409
0.0202217
0.0200785
0.019908
0.0197058
0.0194657
0.0191812
0.0188438
0.0184463
0.0179797
0.0174367
0.0168059
0.0160806
0.0152521
0.0143177
0.0132777
0.0121297
0.0108718
0.00950507
0.00803439
0.0064699
0.0048261
0.0031171
0.00135757
-0.000437253
-0.00225548
-0.00408195
-0.00591743
-0.00774722
-0.00959263
-0.0114248
-0.0133102
-0.0151899
-0.0170216
-0.0186874
-0.0201395
-0.0214529
-0.0237894
-0.0274517
0.0218423
0.0217954
0.021736
0.0216528
0.021547
0.0214317
0.0213121
0.0211758
0.0210076
0.0208076
0.0205933
0.0203904
0.0202189
0.0200888
0.0199964
0.0199316
0.0198786
0.0198251
0.0197596
0.0196768
0.0195726
0.0194474
0.0193004
0.0191318
0.0189401
0.0187222
0.0184735
0.0181882
0.0178587
0.0174778
0.0170363
0.0165254
0.0159348
0.0152514
0.0144692
0.0135803
0.0125834
0.0114733
0.010245
0.00889666
0.00742996
0.00585214
0.00417544
0.00241254
0.000577691
-0.00131298
-0.00324517
-0.00519953
-0.00717157
-0.00913927
-0.0111159
-0.0130597
-0.0150315
-0.0169628
-0.0188024
-0.0204288
-0.0218017
-0.0230294
-0.025286
-0.0288025
0.0214496
0.0213734
0.0212881
0.0211824
0.0210546
0.0209162
0.020773
0.0206129
0.0204214
0.0201987
0.0199627
0.0197389
0.0195475
0.019398
0.0192866
0.0192022
0.019129
0.019054
0.0189653
0.0188573
0.0187261
0.0185719
0.0183949
0.0181959
0.0179744
0.0177288
0.0174559
0.0171512
0.0168083
0.016421
0.0159805
0.0154787
0.0149028
0.0142432
0.0134879
0.0126298
0.0116651
0.0105867
0.00938715
0.00806177
0.00660939
0.00503434
0.00334634
0.00155611
-0.000323253
-0.00227568
-0.00428564
-0.00633056
-0.00840203
-0.010472
-0.0125473
-0.0145748
-0.0166122
-0.0185841
-0.0204343
-0.0220415
-0.0233725
-0.0245553
-0.0267433
-0.030142
0.0210519
0.0209451
0.0208331
0.0207047
0.0205555
0.0203951
0.0202294
0.0200464
0.019832
0.0195866
0.0193286
0.0190835
0.018872
0.0187034
0.0185736
0.0184713
0.0183803
0.0182869
0.0181789
0.0180499
0.0178961
0.0177172
0.0175134
0.0172857
0.0170344
0.0167584
0.0164557
0.0161231
0.0157553
0.0153474
0.0148917
0.0143804
0.0138034
0.0131464
0.0124015
0.0115583
0.0106126
0.009556
0.0083793
0.0070757
0.00564152
0.00407841
0.00239352
0.000595387
-0.00130452
-0.00329097
-0.00534816
-0.00745152
-0.00959007
-0.0117316
-0.0138782
-0.0159671
-0.0180549
-0.0200619
-0.0219299
-0.0235378
-0.0248564
-0.0260194
-0.0281484
-0.0314466
0.0206607
0.020526
0.0203886
0.0202372
0.0200654
0.0198817
0.0196923
0.0194852
0.0192471
0.0189784
0.0186979
0.0184312
0.0181993
0.0180112
0.017863
0.0177426
0.0176341
0.0175229
0.0173971
0.0172496
0.0170764
0.0168765
0.0166502
0.0163981
0.0161207
0.0158169
0.0154855
0.0151237
0.0147276
0.0142931
0.0138139
0.0132835
0.0126906
0.0120258
0.0112765
0.0104349
0.00949559
0.00844972
0.0072871
0.00599937
0.00458098
0.0030313
0.00135513
-0.000441095
-0.00234779
-0.00435111
-0.00643575
-0.00857604
-0.0107598
-0.0129523
-0.015153
-0.0172904
-0.0194232
-0.0214676
-0.0233644
-0.024992
-0.0263209
-0.0274814
-0.0295602
-0.032774
0.0202686
0.0201067
0.0199443
0.01977
0.0195756
0.0193682
0.0191543
0.0189221
0.0186589
0.0183651
0.0180605
0.017771
0.0175177
0.0173096
0.0171427
0.0170046
0.0168792
0.0167517
0.0166098
0.016446
0.0162563
0.0160391
0.0157945
0.0155227
0.0152239
0.014897
0.0145409
0.0141531
0.0137302
0.013269
0.0127641
0.0122097
0.0115973
0.0109142
0.0101526
0.00930264
0.00835967
0.00731503
0.0061581
0.00487958
0.00347257
0.00193463
0.000268521
-0.00152129
-0.00342714
-0.00543679
-0.00753594
-0.00969858
-0.0119124
-0.0141414
-0.0163838
-0.0185612
-0.020734
-0.0228166
-0.0247488
-0.0264065
-0.0277566
-0.0289182
-0.0309506
-0.0340871
0.0198637
0.0196776
0.0194922
0.0192958
0.0190788
0.0188474
0.0186087
0.0183511
0.0180623
0.0177434
0.0174147
0.0171022
0.0168276
0.0165994
0.0164138
0.0162578
0.0161154
0.0159713
0.0158135
0.0156341
0.0154291
0.0151966
0.0149364
0.0146484
0.0143324
0.013987
0.0136109
0.0132017
0.012756
0.0122711
0.0117422
0.0111647
0.0105291
0.00982729
0.00904773
0.00818365
0.00723023
0.00617936
0.00502051
0.00374388
0.00234182
0.000810526
-0.000848892
-0.00263366
-0.00453791
-0.00655107
-0.00866015
-0.0108392
-0.0130764
-0.0153357
-0.0176149
-0.0198296
-0.0220437
-0.0241686
-0.0261428
-0.0278381
-0.0292153
-0.0303799
-0.0323682
-0.0354368
0.0194144
0.0192029
0.0189943
0.0187769
0.0185395
0.0182872
0.0180269
0.0177467
0.017435
0.0170931
0.016742
0.016408
0.0161135
0.0158666
0.0156636
0.015491
0.0153328
0.0151734
0.0150008
0.0148069
0.0145879
0.0143415
0.0140678
0.013766
0.0134359
0.0130757
0.0126838
0.0122574
0.0117935
0.011289
0.0107398
0.010141
0.00948601
0.00876297
0.00796523
0.00708429
0.00611657
0.00505483
0.00388885
0.00260874
0.00120642
-0.000322846
-0.0019793
-0.00376158
-0.00566542
-0.00768183
-0.00979915
-0.0119917
-0.0142489
-0.0165347
-0.0188478
-0.0210976
-0.0233513
-0.0255186
-0.0275355
-0.029269
-0.0306714
-0.0318325
-0.0337754
-0.0367792
0.0189345
0.0187003
0.0184703
0.0182324
0.0179743
0.0177007
0.0174184
0.0171159
0.0167819
0.0164179
0.0160456
0.0156915
0.0153782
0.0151136
0.014894
0.0147054
0.0145317
0.0143571
0.0141698
0.0139615
0.0137288
0.0134692
0.0131828
0.0128687
0.0125264
0.0121539
0.0117493
0.0113095
0.0108311
0.0103112
0.00974542
0.00912969
0.00845582
0.00771614
0.00690011
0.00600218
0.00501871
0.00394333
0.00276637
0.00147803
7.0148e-05
-0.00146261
-0.00312155
-0.00490641
-0.00681433
-0.00883759
-0.010966
-0.013174
-0.0154527
-0.017766
-0.0201141
-0.0224004
-0.0246965
-0.0269085
-0.0289699
-0.0307418
-0.0321669
-0.0333209
-0.0352175
-0.0381645
0.0184251
0.0181689
0.0179179
0.0176599
0.0173817
0.0170868
0.0167827
0.0164574
0.0161005
0.0157135
0.0153194
0.0149447
0.0146126
0.0143306
0.0140951
0.0138913
0.0137034
0.0135147
0.0133138
0.0130922
0.0128467
0.0125747
0.0122766
0.0119512
0.0115981
0.011215
0.0107998
0.0103492
0.00985942
0.00932736
0.00874861
0.00811875
0.00743145
0.00667523
0.00584388
0.00492987
0.00393069
0.00284081
0.00165113
0.000351995
-0.00106463
-0.00260451
-0.00426976
-0.00606107
-0.0079766
-0.0100099
-0.0121518
-0.0143773
-0.0166787
-0.0190203
-0.0214034
-0.0237265
-0.0260633
-0.0283183
-0.0304213
-0.032227
-0.0336685
-0.0348063
-0.0366541
-0.039546
0.0178773
0.0176019
0.017332
0.0170549
0.0167568
0.0164407
0.0161146
0.0157666
0.0153869
0.0149774
0.0145619
0.0141672
0.013817
0.0135184
0.0132676
0.0130493
0.0128474
0.0126451
0.012431
0.0121963
0.0119385
0.0116546
0.0113454
0.0110095
0.0106466
0.0102541
0.00982991
0.00937026
0.00887132
0.0083297
0.00774075
0.0071003
0.00640025
0.00563275
0.00478734
0.00385906
0.00284507
0.00174058
0.000536958
-0.000775181
-0.00220371
-0.0037546
-0.00543067
-0.00723326
-0.00916153
-0.0112097
-0.0133699
-0.0156171
-0.0179455
-0.0203183
-0.0227394
-0.0251009
-0.0274812
-0.0297801
-0.0319241
-0.033761
-0.0352144
-0.036332
-0.0381296
-0.0409741
0.017263
0.0169667
0.0166775
0.0163825
0.016067
0.015733
0.0153883
0.0150209
0.0146214
0.0141919
0.0137572
0.0133446
0.0129782
0.0126647
0.0124005
0.0121694
0.0119554
0.0117412
0.0115154
0.0112692
0.0110002
0.0107055
0.0103861
0.0100406
0.00966884
0.00926795
0.00883579
0.00836846
0.00786193
0.00731255
0.0067155
0.00606611
0.00535781
0.00457874
0.00372235
0.00278136
0.00175375
0.000635316
-0.000582196
-0.00190795
-0.00334966
-0.00491348
-0.0066028
-0.00841955
-0.0103635
-0.0124296
-0.0146109
-0.0168826
-0.0192399
-0.0216458
-0.0241049
-0.0265052
-0.0289265
-0.0312659
-0.0334466
-0.0353089
-0.0367671
-0.0378566
-0.0396014
-0.0424004
0.0165954
0.0162805
0.0159733
0.0156607
0.0153273
0.0149749
0.0146116
0.0142252
0.0138067
0.0133587
0.0129065
0.0124778
0.012097
0.0117705
0.0114944
0.0112519
0.011027
0.0108019
0.0105656
0.0103087
0.0100295
0.0097249
0.00939627
0.0090421
0.00866234
0.00825401
0.00781492
0.007341
0.00682804
0.00627225
0.00566856
0.0050124
0.00429541
0.003509
0.00264227
0.00169015
0.000650117
-0.000481715
-0.00171317
-0.00305351
-0.0045099
-0.0060892
-0.00779453
-0.00962941
-0.0115926
-0.0136815
-0.0158873
-0.0181885
-0.0205777
-0.0230212
-0.0255188
-0.0279614
-0.0304251
-0.032805
-0.0350209
-0.0369058
-0.0383649
-0.0394238
-0.0411147
-0.0438778
0.0158788
0.0155451
0.01522
0.0148899
0.0145389
0.0141683
0.0137862
0.0133804
0.0129425
0.0124754
0.0120056
0.0115608
0.0111661
0.0108275
0.0105409
0.0102887
0.0100549
0.00982092
0.0095759
0.00931035
0.00902274
0.00870987
0.00837344
0.00801189
0.00762529
0.00721056
0.00676553
0.00628597
0.00576757
0.00520636
0.00459707
0.00393471
0.00321225
0.00241715
0.0015422
0.000579923
-0.000471638
-0.00161591
-0.00286083
-0.00421526
-0.00568674
-0.00728185
-0.00900468
-0.0108588
-0.0128435
-0.0149566
-0.0171892
-0.0195215
-0.0219445
-0.0244261
-0.026962
-0.0294468
-0.0319504
-0.0343669
-0.0366137
-0.0385158
-0.0399697
-0.0409918
-0.0426266
-0.0453569
0.0151027
0.0147525
0.0144111
0.0140641
0.0136957
0.0133068
0.012906
0.0124812
0.0120245
0.0115392
0.0110527
0.0105932
0.0101861
0.0098369
0.00954126
0.00928094
0.00903953
0.00879815
0.00854588
0.00827303
0.00797844
0.00765873
0.00731594
0.00694837
0.00655623
0.00613631
0.00568643
0.00520225
0.00467931
0.00411352
0.00349944
0.00283213
0.00210287
0.0013022
0.000418722
-0.000552885
-0.00161523
-0.00277145
-0.00402968
-0.00539846
-0.00688588
-0.00849812
-0.0102404
-0.0121162
-0.0141252
-0.0162656
-0.0185282
-0.0208951
-0.0233545
-0.0258776
-0.0284518
-0.0309813
-0.033527
-0.0359806
-0.0382572
-0.0401747
-0.0416205
-0.0426049
-0.0441827
-0.046891
0.0142417
0.0138725
0.0135137
0.0131511
0.0127678
0.0123642
0.0119487
0.0115086
0.0110367
0.0105364
0.0100364
0.00956484
0.00914794
0.00879066
0.00848867
0.00822267
0.00797628
0.00772986
0.00747267
0.00719469
0.00689509
0.00657037
0.00622285
0.00585078
0.00545447
0.00503061
0.00457702
0.00408921
0.0035626
0.00299302
0.00237474
0.00170255
0.00096888
0.000160487
-0.000730122
-0.00171091
-0.00278331
-0.00395101
-0.00522149
-0.00660431
-0.00810688
-0.00973647
-0.0114982
-0.0133963
-0.0154303
-0.0175989
-0.0198923
-0.0222948
-0.0247912
-0.0273557
-0.029967
-0.0325405
-0.0351265
-0.0376141
-0.0399168
-0.0418453
-0.0432785
-0.0442206
-0.0457388
-0.0484283
0.0133145
0.0129283
0.0125534
0.012175
0.0117764
0.0113575
0.0109271
0.0104725
0.00998651
0.00947312
0.0089616
0.00848053
0.0080562
0.00769327
0.00738698
0.00711735
0.00686771
0.00661797
0.00635744
0.00607586
0.00577282
0.00544461
0.00509391
0.0047188
0.00431976
0.00389327
0.00343717
0.0029468
0.00241745
0.00184479
0.00122297
0.000546737
-0.000193125
-0.00100654
-0.00190528
-0.0028947
-0.00397698
-0.00515558
-0.00643836
-0.00783504
-0.00935343
-0.011001
-0.0127836
-0.0147055
-0.0167665
-0.0189656
-0.021292
-0.0237327
-0.0262681
-0.0288764
-0.0315244
-0.0341458
-0.036774
-0.0392969
-0.041626
-0.0435648
-0.0449837
-0.0458838
-0.0473416
-0.0500231
0.0123332
0.0119298
0.0115387
0.011145
0.0107313
0.0102973
0.00985207
0.00938243
0.00888206
0.00835508
0.00783194
0.0073414
0.00691036
0.00654276
0.00623373
0.00596223
0.00571143
0.0054605
0.00519882
0.00491578
0.00461127
0.00428145
0.00392927
0.00355275
0.00315243
0.00272468
0.0022673
0.00177546
0.0012443
0.00066937
4.45032e-05
-0.000635863
-0.00137965
-0.00220052
-0.00310634
-0.00410429
-0.00519621
-0.00638501
-0.00767949
-0.00908916
-0.0106229
-0.0122879
-0.0140911
-0.0160366
-0.0181249
-0.0203542
-0.0227143
-0.0251928
-0.0277676
-0.0304185
-0.0331027
-0.0357709
-0.0384406
-0.0409972
-0.0433504
-0.0452965
-0.0466978
-0.0475523
-0.0489477
-0.051623
0.0112913
0.0108732
0.0104677
0.0100593
0.00963083
0.00918178
0.00872181
0.00823763
0.00772348
0.0071839
0.00665026
0.00615169
0.00571529
0.00534459
0.00503423
0.00476235
0.00451173
0.004261
0.00399952
0.00371644
0.00341196
0.00308205
0.00272996
0.00235355
0.00195345
0.00152584
0.00106846
0.000576302
4.43103e-05
-0.000532148
-0.00115943
-0.00184301
-0.00259242
-0.00341822
-0.00433176
-0.00533825
-0.0064393
-0.00763846
-0.00894434
-0.0103675
-0.0119166
-0.0136001
-0.0154246
-0.0173953
-0.0195118
-0.0217737
-0.0241685
-0.0266876
-0.0293025
-0.0319989
-0.0347187
-0.0374378
-0.0401525
-0.0427455
-0.0451244
-0.0470782
-0.0484616
-0.0492712
-0.0506041
-0.0532826
0.0101661
0.00973056
0.00930985
0.00888835
0.00844824
0.00798829
0.00751798
0.00702346
0.00649948
0.00595066
0.00540962
0.00490561
0.00446652
0.00409505
0.00378586
0.00351587
0.00326783
0.00301951
0.0027604
0.00247926
0.00217667
0.0018484
0.00149799
0.0011232
0.000724713
0.000298559
-0.000157622
-0.000649014
-0.00118092
-0.00175808
-0.00238712
-0.00307381
-0.00382652
-0.0046593
-0.0055796
-0.00659448
-0.00770466
-0.00891382
-0.0102308
-0.0116669
-0.013231
-0.0149323
-0.0167778
-0.0187731
-0.0209177
-0.0232117
-0.0256413
-0.0282002
-0.0308552
-0.033596
-0.0363513
-0.0391198
-0.0418798
-0.0445094
-0.0469134
-0.0488731
-0.0502364
-0.0509979
-0.0522668
-0.0549482
0.00898398
0.00853342
0.00809884
0.00766419
0.00721178
0.00674014
0.00625919
0.00575471
0.00522184
0.00466545
0.00411893
0.00361177
0.00317203
0.00280196
0.00249571
0.0022294
0.0019854
0.00174097
0.00148561
0.00120782
0.000908537
0.000583339
0.000236067
-0.00013571
-0.000531247
-0.00095471
-0.00140856
-0.00189818
-0.00242909
-0.00300615
-0.00363616
-0.00432493
-0.00508239
-0.00591937
-0.00684733
-0.00787039
-0.00898996
-0.0102093
-0.0115379
-0.0129873
-0.0145673
-0.0162871
-0.0181548
-0.0201756
-0.0223498
-0.0246771
-0.0271432
-0.0297436
-0.0324406
-0.0352274
-0.0380199
-0.0408413
-0.0436508
-0.0463207
-0.0487527
-0.0507198
-0.052063
-0.0527775
-0.0539829
-0.0566753
0.00775057
0.00728514
0.00683712
0.00639014
0.0059263
0.0054437
0.00495249
0.00443804
0.00389611
0.00333179
0.00277974
0.0022696
0.0018301
0.00146261
0.00116117
0.000900615
0.000663129
0.000425062
0.000175954
-9.61069e-05
-0.000389925
-0.000710104
-0.00105257
-0.00141987
-0.00181121
-0.00223091
-0.00268149
-0.00316852
-0.00369764
-0.00427386
-0.0049043
-0.00559501
-0.00635488
-0.00719855
-0.00813292
-0.00916454
-0.0102935
-0.0115233
-0.0128635
-0.0143262
-0.0159217
-0.0176597
-0.019549
-0.021595
-0.0237983
-0.0261584
-0.028661
-0.031302
-0.0340412
-0.036873
-0.0397039
-0.0425768
-0.0454366
-0.0481481
-0.0506083
-0.052582
-0.0539036
-0.0545688
-0.0557086
-0.0584097
0.00643705
0.00595612
0.00549443
0.00503519
0.00456089
0.00406947
0.00357149
0.00305176
0.0025061
0.00193958
0.00138744
0.00087964
0.000444819
8.39829e-05
-0.000209513
-0.000461515
-0.000690298
-0.000919975
-0.0011611
-0.00142583
-0.00171271
-0.00202657
-0.00236306
-0.0027249
-0.00311121
-0.00352648
-0.00397324
-0.00445717
-0.00498409
-0.00555918
-0.00618966
-0.00688176
-0.00764603
-0.0084936
-0.00943553
-0.0104756
-0.0116144
-0.012855
-0.0142076
-0.0156846
-0.0172966
-0.019054
-0.020966
-0.0230384
-0.025272
-0.0276665
-0.0302071
-0.0328905
-0.0356739
-0.0385529
-0.0414254
-0.0443534
-0.0472674
-0.0500247
-0.0525165
-0.0544989
-0.0557996
-0.0564171
-0.0574899
-0.0602063
0.00507095
0.00456288
0.00408062
0.00360848
0.00312828
0.0026362
0.00214071
0.00162426
0.00108223
0.000519315
-2.84992e-05
-0.000531589
-0.00096027
-0.00131415
-0.00159935
-0.00184273
-0.00206234
-0.00228318
-0.00251566
-0.00277247
-0.00305187
-0.003359
-0.00368926
-0.00404554
-0.00442686
-0.0048378
-0.00528093
-0.00576197
-0.00628697
-0.00686108
-0.00749195
-0.00818601
-0.00895268
-0.00980683
-0.0107553
-0.011804
-0.0129528
-0.0142046
-0.0155697
-0.017061
-0.0186895
-0.020466
-0.0224004
-0.0244987
-0.0267623
-0.0291907
-0.0317692
-0.0344945
-0.0373224
-0.0402484
-0.0431641
-0.0461461
-0.049115
-0.0519193
-0.0544432
-0.056434
-0.057713
-0.0582806
-0.0592821
-0.0620094
0.00386596
0.00335117
0.00285491
0.002361
0.00185362
0.00133295
0.000810738
0.000271708
-0.000288275
-0.000863883
-0.0014196
-0.00192586
-0.00235418
-0.00270479
-0.00298502
-0.0032223
-0.0034353
-0.00364933
-0.00387504
-0.00412541
-0.00439862
-0.00470014
-0.00502522
-0.00537697
-0.00575431
-0.00616195
-0.00660244
-0.00708159
-0.00760553
-0.00817952
-0.00881128
-0.0095074
-0.0102787
-0.011137
-0.0120931
-0.0131506
-0.0143096
-0.0155732
-0.0169518
-0.0184585
-0.0201047
-0.0219016
-0.0238595
-0.0259851
-0.0282801
-0.0307439
-0.033362
-0.0361314
-0.0390062
-0.041982
-0.0449445
-0.0479843
-0.0510114
-0.0538663
-0.0564252
-0.0584265
-0.0596846
-0.0602033
-0.0611312
-0.0638749
0.00258138
0.00205074
0.00154345
0.00104302
0.000531764
7.175e-06
-0.000520129
-0.00106638
-0.00163461
-0.00221885
-0.00278172
-0.00329338
-0.00372435
-0.00407558
-0.00435433
-0.00458913
-0.00479861
-0.00500886
-0.00523048
-0.00547692
-0.00574627
-0.00604436
-0.00636636
-0.00671556
-0.00709086
-0.00749705
-0.00793663
-0.00841547
-0.00893973
-0.00951472
-0.0101485
-0.0108478
-0.0116224
-0.0124879
-0.0134509
-0.0145176
-0.0156871
-0.0169626
-0.0183548
-0.019877
-0.0215408
-0.0233579
-0.0253391
-0.0274916
-0.0298175
-0.0323165
-0.0349742
-0.0377875
-0.0407096
-0.0437357
-0.0467468
-0.0498437
-0.0529291
-0.0558351
-0.0584292
-0.0604409
-0.0616776
-0.0621446
-0.0629939
-0.0657471
0.00138626
0.000853279
0.000338515
-0.000175271
-0.00070436
-0.00124875
-0.0017958
-0.00236039
-0.00294515
-0.0035432
-0.00411698
-0.00463595
-0.00507138
-0.0054245
-0.00570376
-0.00593816
-0.00614699
-0.00635642
-0.00657727
-0.006823
-0.00709164
-0.00738924
-0.0077109
-0.0080601
-0.00843571
-0.00884264
-0.00928336
-0.0097637
-0.01029
-0.0108675
-0.0115045
-0.0122077
-0.0129888
-0.0138594
-0.014831
-0.0159071
-0.0170876
-0.0183757
-0.0197823
-0.0213211
-0.0230037
-0.0248421
-0.0268479
-0.0290287
-0.0313871
-0.0339231
-0.0366222
-0.0394818
-0.0424539
-0.0455334
-0.0485969
-0.0517545
-0.054901
-0.0578606
-0.0604923
-0.062516
-0.0637318
-0.0641477
-0.0649157
-0.0676825
7.47661e-05
-0.000471113
-0.000992442
-0.00150669
-0.00203201
-0.00257182
-0.00311542
-0.00367965
-0.00426662
-0.00486914
-0.00544771
-0.00597129
-0.00640977
-0.00676482
-0.00704471
-0.00727943
-0.00748833
-0.00769818
-0.00791976
-0.00816672
-0.00843685
-0.00873633
-0.00906009
-0.00941167
-0.00978993
-0.0101998
-0.0106437
-0.0111275
-0.0116576
-0.0122393
-0.0128812
-0.0135901
-0.0143765
-0.0152561
-0.0162359
-0.017322
-0.0185138
-0.0198148
-0.021236
-0.0227912
-0.0244924
-0.026352
-0.028382
-0.0305907
-0.0329812
-0.0355539
-0.0382944
-0.0412005
-0.0442231
-0.047357
-0.0504741
-0.0536918
-0.0568989
-0.0599117
-0.0625808
-0.0646162
-0.0658105
-0.0661722
-0.0668533
-0.0696243
-0.00106479
-0.00160665
-0.0021316
-0.00265774
-0.00320169
-0.00376367
-0.00433078
-0.00491793
-0.00552688
-0.0061491
-0.00674483
-0.00728188
-0.0077307
-0.0080929
-0.00837798
-0.00861637
-0.0088283
-0.00904082
-0.00926513
-0.00951502
-0.00978824
-0.0100911
-0.0104186
-0.0107741
-0.0111566
-0.011571
-0.0120198
-0.0125087
-0.0130443
-0.0136319
-0.01428
-0.0149958
-0.0157908
-0.0166776
-0.0176676
-0.0187645
-0.0199684
-0.0212829
-0.0227196
-0.0242923
-0.0260133
-0.0278953
-0.0299508
-0.0321889
-0.0346131
-0.0372243
-0.0400083
-0.0429633
-0.0460392
-0.0492307
-0.0524049
-0.0556858
-0.0589555
-0.0620234
-0.0647314
-0.0667796
-0.0679523
-0.0682596
-0.068851
-0.0716291
-0.00231653
-0.00285296
-0.00337306
-0.00389651
-0.00444121
-0.00500887
-0.00558629
-0.00618816
-0.0068143
-0.0074546
-0.00806672
-0.00861755
-0.0090762
-0.00944497
-0.00973357
-0.00997394
-0.0101868
-0.0104003
-0.010626
-0.0108779
-0.0111539
-0.0114603
-0.0117918
-0.012152
-0.0125397
-0.0129597
-0.0134145
-0.0139098
-0.0144522
-0.015047
-0.0157029
-0.0164271
-0.01723
-0.0181283
-0.0191283
-0.0202371
-0.0214538
-0.0227823
-0.0242345
-0.0258247
-0.0275651
-0.0294691
-0.0315496
-0.0338167
-0.0362742
-0.0389239
-0.0417514
-0.0447556
-0.0478855
-0.0511354
-0.0543678
-0.0577109
-0.0610424
-0.0641645
-0.0669109
-0.0689714
-0.0701216
-0.0703709
-0.0708664
-0.0736408
-0.00368967
-0.00422841
-0.00474718
-0.00526656
-0.00580544
-0.0063677
-0.00694134
-0.0075424
-0.00817068
-0.00881539
-0.00943299
-0.00998886
-0.0104515
-0.0108228
-0.0111128
-0.0113537
-0.011567
-0.0117811
-0.0120078
-0.0122615
-0.0125399
-0.0128496
-0.0131851
-0.0135501
-0.0139432
-0.0143694
-0.0148308
-0.0153334
-0.0158835
-0.0164866
-0.0171514
-0.017885
-0.0186995
-0.0196073
-0.02062
-0.0217415
-0.0229719
-0.0243153
-0.025784
-0.0273927
-0.0291537
-0.0310809
-0.033188
-0.0354856
-0.0379781
-0.0406681
-0.0435413
-0.0465973
-0.0497837
-0.0530952
-0.0563888
-0.0597971
-0.063192
-0.0663695
-0.0691554
-0.0712287
-0.0723558
-0.0725465
-0.0729427
-0.0757159
-0.00508562
-0.00563229
-0.00615772
-0.0066824
-0.00722511
-0.00779023
-0.00836599
-0.00896954
-0.00960045
-0.0102479
-0.0108671
-0.0114231
-0.0118838
-0.0122517
-0.0125371
-0.0127736
-0.0129827
-0.0131938
-0.0134188
-0.0136724
-0.013952
-0.0142642
-0.0146032
-0.0149728
-0.0153714
-0.0158038
-0.0162723
-0.0167826
-0.0173413
-0.0179535
-0.0186284
-0.0193729
-0.0201977
-0.0211194
-0.0221444
-0.0232797
-0.0245245
-0.0258832
-0.0273686
-0.0289956
-0.030777
-0.0327271
-0.0348602
-0.0371878
-0.0397152
-0.0424454
-0.0453644
-0.0484725
-0.0517161
-0.05509
-0.0584451
-0.0619175
-0.0653747
-0.0686068
-0.0714313
-0.073517
-0.0746196
-0.0747475
-0.0750375
-0.0777982
-0.00642596
-0.00697965
-0.00751372
-0.00804914
-0.00860391
-0.00918185
-0.00977025
-0.0103862
-0.0110288
-0.0116867
-0.0123139
-0.0128751
-0.0133379
-0.0137052
-0.0139884
-0.0142217
-0.0144278
-0.0146363
-0.0148599
-0.0151132
-0.0153938
-0.0157082
-0.0160506
-0.0164246
-0.0168285
-0.0172673
-0.017743