/*--------------------------------*- C++ -*----------------------------------*\
  =========                 |
  \\      /  F ield         | OpenFOAM: The Open Source CFD Toolbox
   \\    /   O peration     | Website:  https://openfoam.org
    \\  /    A nd           | Version:  6.0
     \\/     M anipulation  |
\*---------------------------------------------------------------------------*/
FoamFile
{
    version     2.0;
    format      ascii;
    class       volScalarField;
    location    "14";
    object      p;
}
// * * * * * * * * * * * * * * * * * * * * * * * * * * * * * * * * * * * * * //

dimensions      [0 2 -2 0 0 0 0];

internalField   nonuniform List<scalar> 
62000
(
0.0310721
0.0313233
0.031569
0.0318134
0.032056
0.0322998
0.0325447
0.0327942
0.0330484
0.0333111
0.0335829
0.0338681
0.0341675
0.034486
0.0348249
0.0351893
0.0355813
0.0360063
0.0364671
0.0369689
0.0375157
0.0381122
0.0387637
0.0394735
0.0402486
0.0410902
0.0420064
0.0429965
0.044068
0.0452188
0.046456
0.0477753
0.0491736
0.0506328
0.052131
0.0536522
0.0551807
0.056693
0.0581546
0.0595174
0.0607244
0.0617125
0.0624224
0.0628069
0.0628478
0.0625732
0.0620539
0.0614279
0.0608003
0.0602757
0.0598065
0.0592198
0.0584966
0.0572385
0.0557962
0.0540714
0.0529064
0.0509833
0.0518939
0.0567367
0.0308013
0.031022
0.0312523
0.0314928
0.0317431
0.032004
0.0322745
0.0325557
0.0328473
0.0331505
0.0334655
0.0337946
0.0341381
0.0344991
0.0348787
0.0352806
0.0357067
0.0361616
0.0366481
0.0371713
0.0377351
0.0383444
0.0390044
0.0397193
0.0404951
0.0413346
0.0422439
0.0432248
0.0442817
0.0454157
0.0466318
0.047931
0.0493088
0.050745
0.0522189
0.0537175
0.0552305
0.0567401
0.0582155
0.0596131
0.0608795
0.0619558
0.0627869
0.0633287
0.0635663
0.0635295
0.0632935
0.0630046
0.0627765
0.0627316
0.0628233
0.0628664
0.0628297
0.0622346
0.061436
0.0603096
0.060022
0.0589526
0.0623908
0.066295
0.0303066
0.030496
0.0307039
0.0309298
0.031172
0.0314314
0.031706
0.0319965
0.0323018
0.0326227
0.0329592
0.0333126
0.0336836
0.034074
0.0344859
0.0349209
0.0353824
0.0358723
0.0363949
0.0369529
0.0375514
0.0381934
0.0388848
0.0396287
0.0404313
0.0412955
0.0422271
0.0432285
0.0443034
0.0454542
0.0466849
0.0479993
0.0493906
0.0508394
0.0523228
0.0538304
0.0553533
0.0568754
0.0583669
0.0597831
0.0610689
0.062162
0.0630032
0.0635414
0.0637536
0.0636588
0.0633226
0.062886
0.0624596
0.062171
0.06197
0.0616461
0.0611285
0.0598252
0.0580488
0.0556366
0.0540941
0.0519843
0.0544696
0.0541861
0.0299872
0.0301753
0.0303771
0.0305949
0.0308273
0.0310761
0.0313402
0.031621
0.0319179
0.0322326
0.0325654
0.0329183
0.0332925
0.0336906
0.0341143
0.0345666
0.0350499
0.0355667
0.0361202
0.0367125
0.0373478
0.0380278
0.0387578
0.0395395
0.0403786
0.0412769
0.0422398
0.0432696
0.0443702
0.0455445
0.0467965
0.0481301
0.0495391
0.0510013
0.0524982
0.0540191
0.0555575
0.0570998
0.0586167
0.0600641
0.0613858
0.0625182
0.0633995
0.0639744
0.0642142
0.0641317
0.06379
0.0633347
0.0628899
0.06261
0.062468
0.0622649
0.0619019
0.060702
0.0588307
0.0560296
0.0539092
0.0512715
0.0525575
0.0509721
0.0300256
0.0301834
0.0303516
0.0305336
0.030729
0.0309398
0.0311658
0.0314091
0.0316702
0.0319512
0.0322539
0.0325804
0.0329335
0.0333154
0.0337302
0.0341795
0.0346682
0.0351973
0.0357715
0.0363913
0.0370615
0.0377817
0.0385565
0.0393856
0.0402735
0.04122
0.0422294
0.0433028
0.0444437
0.0456553
0.0469415
0.0483067
0.0497414
0.0512257
0.0527392
0.0542766
0.0558354
0.0574047
0.0589565
0.0604472
0.0618208
0.0630132
0.0639612
0.0646063
0.0649156
0.064898
0.0646174
0.0642309
0.0638904
0.0637948
0.0639762
0.0642904
0.0646612
0.0643619
0.0634009
0.0613198
0.0595988
0.0571107
0.0578404
0.0557332
0.0303398
0.0304259
0.0305288
0.0306506
0.0307907
0.0309504
0.0311291
0.031328
0.0315473
0.0317888
0.0320542
0.032346
0.0326672
0.0330209
0.0334113
0.0338417
0.0343169
0.0348397
0.0354147
0.0360435
0.0367304
0.0374755
0.0382827
0.0391509
0.0400835
0.0410787
0.0421394
0.0432649
0.0444581
0.0457217
0.0470595
0.0484742
0.0499558
0.0514784
0.0530254
0.0545931
0.0561846
0.0577909
0.0593833
0.0609176
0.0623359
0.0635716
0.0645562
0.0652239
0.065531
0.0654748
0.06511
0.0645957
0.064105
0.0638827
0.0640309
0.0645043
0.0653089
0.0657577
0.0657293
0.0645876
0.0635777
0.0615421
0.0621762
0.0588522
0.0307345
0.0307487
0.0307897
0.0308582
0.0309535
0.0310764
0.0312249
0.0313997
0.0315993
0.0318248
0.032076
0.0323545
0.0326624
0.0330018
0.033377
0.0337905
0.0342489
0.0347545
0.0353142
0.0359299
0.0366084
0.03735
0.0381605
0.0390389
0.0399893
0.0410095
0.0421017
0.0432642
0.0444991
0.045809
0.0471973
0.0486658
0.0501997
0.0517738
0.0533662
0.0549779
0.0566146
0.0582674
0.0599053
0.0614818
0.0629359
0.064196
0.0651857
0.0658264
0.0660569
0.0658522
0.0652443
0.0643762
0.0634244
0.062664
0.0622639
0.06229
0.0628812
0.0634498
0.0638594
0.0633613
0.063024
0.0616641
0.0625969
0.058285
0.0309849
0.0309589
0.0309656
0.0310059
0.0310798
0.0311884
0.0313301
0.031505
0.0317114
0.0319491
0.0322168
0.0325147
0.0328429
0.0332023
0.033595
0.0340232
0.0344911
0.0350017
0.0355609
0.0361719
0.0368418
0.0375728
0.038372
0.0392405
0.0401838
0.0412012
0.042296
0.0434669
0.0447164
0.0460473
0.047464
0.0489672
0.0505425
0.0521582
0.0537956
0.0554538
0.0571409
0.0588468
0.0605382
0.0621671
0.0636709
0.0649743
0.0659937
0.0666371
0.0668232
0.0664993
0.065664
0.0644279
0.0629494
0.0615106
0.0603244
0.0595625
0.0595046
0.0597221
0.0601189
0.0599546
0.0601921
0.059697
0.0612228
0.0570727
0.0311147
0.0310862
0.0310912
0.0311305
0.0312053
0.0313173
0.0314661
0.0316526
0.0318758
0.0321356
0.0324312
0.0327616
0.0331269
0.0335255
0.0339589
0.0344265
0.0349318
0.0354747
0.0360609
0.0366915
0.0373742
0.0381104
0.0389085
0.0397704
0.0407034
0.0417085
0.0427905
0.0439496
0.0451898
0.0465157
0.0479332
0.0494452
0.0510356
0.0526762
0.0543443
0.0560422
0.0577778
0.0595407
0.0612967
0.0629997
0.0645893
0.0659906
0.0671165
0.0678661
0.0681407
0.0678606
0.0669878
0.0655912
0.0637943
0.0618619
0.0600257
0.0585295
0.0577794
0.0574983
0.0576866
0.0576688
0.0583791
0.0587955
0.0610343
0.058059
0.0311714
0.0311643
0.031188
0.031244
0.0313339
0.0314602
0.0316235
0.0318254
0.0320663
0.032347
0.0326676
0.0330281
0.0334282
0.0338672
0.0343452
0.0348612
0.0354165
0.0360101
0.0366445
0.0373199
0.0380412
0.0388088
0.03963
0.0405064
0.0414456
0.0424494
0.0435238
0.0446703
0.0458945
0.0472032
0.0486053
0.0501058
0.0516935
0.0533382
0.0550236
0.0567514
0.0585313
0.0603541
0.0621881
0.0639928
0.0657147
0.0672842
0.0686163
0.0696067
0.0701455
0.070131
0.069491
0.0682492
0.0664837
0.0644232
0.0622875
0.0603601
0.0591319
0.0584642
0.0584369
0.0584824
0.0595231
0.0607053
0.0635467
0.0620767
0.0312629
0.0312886
0.031342
0.0314243
0.0315372
0.0316836
0.0318644
0.0320822
0.0323381
0.0326343
0.0329717
0.0333515
0.0337747
0.0342409
0.0347514
0.0353044
0.0359021
0.0365412
0.0372244
0.0379492
0.0387194
0.0395326
0.0403949
0.0413058
0.0422717
0.0432939
0.0443779
0.0455255
0.0467431
0.0480393
0.0494254
0.0509109
0.0524861
0.0541291
0.0558231
0.0575754
0.0593975
0.0612839
0.0632084
0.0651392
0.0670334
0.0688305
0.0704519
0.0717959
0.0727478
0.073191
0.0730246
0.0722306
0.0708382
0.0690275
0.0669871
0.0650014
0.0636093
0.06276
0.0626055
0.0626688
0.0638728
0.065555
0.0687666
0.0685192
0.031395
0.0314559
0.0315415
0.0316531
0.0317923
0.0319621
0.0321635
0.0323992
0.0326709
0.0329811
0.0333315
0.0337243
0.0341614
0.0346439
0.0351734
0.0357501
0.0363756
0.0370482
0.037769
0.0385361
0.0393512
0.040211
0.0411194
0.0420742
0.0430801
0.0441363
0.0452473
0.0464137
0.0476417
0.0489401
0.0503226
0.0518008
0.0533716
0.0550134
0.0567188
0.0584969
0.0603634
0.0623185
0.0643436
0.0664177
0.0685105
0.0705724
0.0725345
0.0743013
0.0757589
0.0767824
0.0772496
0.077106
0.0763342
0.0750613
0.0734283
0.0716991
0.0704188
0.0695961
0.0694104
0.0694658
0.0706639
0.0725541
0.0758591
0.0762759
0.0315877
0.0316866
0.0318079
0.0319522
0.0321212
0.0323173
0.0325416
0.032797
0.033085
0.0334084
0.0337698
0.0341715
0.0346167
0.0351065
0.0356446
0.0362311
0.0368699
0.0375589
0.0383013
0.0390943
0.0399406
0.0408358
0.0417833
0.0427792
0.0438265
0.0449231
0.0460712
0.0472698
0.0485236
0.0498411
0.0512365
0.0527241
0.0543018
0.0559566
0.0576819
0.0594933
0.0614103
0.0634395
0.0655713
0.0677958
0.0700952
0.0724314
0.0747454
0.0769508
0.0789381
0.0805797
0.0817395
0.0823345
0.0823067
0.0817315
0.0806993
0.0794327
0.0784618
0.0778131
0.077677
0.0777044
0.0787718
0.0806371
0.0838193
0.0843366
0.0318013
0.0319369
0.032093
0.0322703
0.0324701
0.0326945
0.0329446
0.0332226
0.0335305
0.0338704
0.0342452
0.0346575
0.0351106
0.0356067
0.0361496
0.0367413
0.0373855
0.0380822
0.0388347
0.0396419
0.0405063
0.0414245
0.0423996
0.0434274
0.0445103
0.0456447
0.0468315
0.0480681
0.0493575
0.050707
0.0521307
0.0536429
0.0552462
0.0569266
0.0586857
0.0605409
0.0625164
0.0646251
0.0668663
0.0692402
0.0717408
0.0743399
0.0769886
0.0796097
0.0821004
0.0843345
0.0861684
0.0874983
0.088233
0.0884022
0.0880443
0.0873375
0.0867771
0.0863929
0.0863558
0.0863509
0.0872129
0.0889066
0.0918213
0.0920284
0.0320614
0.0322318
0.0324215
0.0326307
0.0328605
0.0331129
0.0333885
0.0336898
0.0340179
0.0343755
0.034765
0.035189
0.035651
0.0361533
0.0367005
0.0372943
0.0379401
0.0386378
0.0393925
0.0402036
0.0410752
0.0420042
0.042995
0.0440433
0.0451518
0.0463167
0.0475379
0.0488116
0.0501397
0.0515282
0.0529902
0.0545407
0.0561812
0.0579037
0.0597089
0.061619
0.0636609
0.0658532
0.0682026
0.0707182
0.0734032
0.076238
0.079182
0.082167
0.0850981
0.0878534
0.0902866
0.0922809
0.0937205
0.0945966
0.0949035
0.0947703
0.094655
0.0945702
0.0946645
0.0946353
0.095279
0.0967471
0.0993421
0.0990069
0.0323366
0.0325375
0.0327567
0.0329945
0.0332522
0.0335314
0.0338328
0.0341582
0.034509
0.034887
0.0352945
0.0357337
0.0362081
0.03672
0.0372739
0.0378722
0.0385202
0.0392191
0.0399741
0.0407859
0.0416593
0.0425924
0.0435905
0.0446504
0.0457753
0.0469621
0.0482106
0.0495169
0.0508818
0.0523107
0.0538161
0.0554117
0.0571014
0.0588743
0.0607367
0.0627106
0.0648251
0.0671033
0.0695578
0.0722042
0.0750531
0.0780912
0.0812848
0.0845737
0.0878708
0.0910603
0.0939971
0.096557
0.098607
0.100109
0.101017
0.10142
0.101734
0.101955
0.102196
0.102165
0.102615
0.103868
0.106146
0.105197
0.0326362
0.0328677
0.0331168
0.0333832
0.0336683
0.0339734
0.0342992
0.0346476
0.0350195
0.0354171
0.0358421
0.036297
0.0367848
0.0373076
0.0378702
0.0384743
0.0391262
0.0398266
0.0405818
0.0413928
0.0422657
0.0431991
0.0441996
0.045265
0.0463996
0.0476011
0.0488701
0.0502029
0.0516004
0.0530677
0.0546167
0.0562611
0.0580026
0.0598344
0.0617599
0.0638033
0.0659945
0.0683588
0.070913
0.0736775
0.0766676
0.0798747
0.0832703
0.086801
0.0903873
0.0939203
0.0972588
0.100276
0.102828
0.104855
0.106283
0.10716
0.107867
0.108379
0.10878
0.108778
0.109091
0.110185
0.112193
0.110662
0.0329186
0.0331784
0.0334551
0.0337486
0.0340603
0.0343912
0.0347423
0.0351147
0.03551
0.0359291
0.0363744
0.0368475
0.0373517
0.0378889
0.0384634
0.0390774
0.0397368
0.0404428
0.0412015
0.0420147
0.0428886
0.0438229
0.044825
0.0458937
0.0470344
0.0482462
0.0495304
0.0508845
0.0523098
0.0538116
0.055402
0.0570937
0.0588903
0.060781
0.0627731
0.0648886
0.0671575
0.0696066
0.0722549
0.0751259
0.078238
0.0815854
0.0851435
0.0888648
0.0926764
0.0964767
0.10013
0.103509
0.106466
0.108925
0.110787
0.112071
0.113126
0.113912
0.114478
0.11454
0.114777
0.115782
0.11758
0.115561
0.0332135
0.0334998
0.0338024
0.0341211
0.0344573
0.034812
0.0351858
0.0355805
0.0359968
0.0364364
0.036901
0.0373923
0.0379135
0.038466
0.0390544
0.0396801
0.0403496
0.0410633
0.0418282
0.0426456
0.0435227
0.0444594
0.045464
0.0465359
0.0476818
0.0489018
0.0501983
0.05157
0.053019
0.0545516
0.0561799
0.0579172
0.0597649
0.0617159
0.0637735
0.065961
0.0683069
0.070838
0.0735743
0.0765411
0.0797584
0.0832219
0.0869099
0.0907796
0.0947643
0.0987693
0.102665
0.106327
0.109605
0.112414
0.114639
0.116271
0.117634
0.118672
0.119414
0.119572
0.1198
0.120788
0.122441
0.120047
0.033486
0.0337948
0.0341196
0.0344606
0.0348192
0.0351963
0.035593
0.03601
0.0364489
0.0369101
0.0373961
0.0379075
0.038448
0.0390183
0.039623
0.0402636
0.0409462
0.0416715
0.0424461
0.0432719
0.0441558
0.0450983
0.0461081
0.0471854
0.0483376
0.049566
0.0508739
0.0522614
0.0537316
0.0552918
0.0569547
0.0587334
0.0606315
0.062638
0.0647598
0.067017
0.0694375
0.0720473
0.0748666
0.0779214
0.0812326
0.0847965
0.0885934
0.0925845
0.0967085
0.100877
0.104966
0.108856
0.112396
0.115495
0.118025
0.119959
0.121596
0.122872
0.123794
0.124076
0.124346
0.125376
0.126938
0.124281
0.0337521
0.0340842
0.034432
0.0347951
0.0351751
0.035573
0.0359896
0.0364264
0.0368843
0.0373647
0.0378693
0.0383994
0.0389578
0.0395458
0.0401676
0.0408242
0.0415218
0.0422607
0.0430479
0.0438847
0.0447786
0.0457301
0.0467483
0.0478337
0.0489945
0.0502328
0.051553
0.0529561
0.0544463
0.0560321
0.0577269
0.0595448
0.0614878
0.0635487
0.0657307
0.0680546
0.0705467
0.0732318
0.0761293
0.0792662
0.082663
0.0863164
0.0902082
0.0943026
0.0985432
0.102847
0.107096
0.111176
0.114935
0.11828
0.121078
0.123277
0.125164
0.126667
0.127774
0.128203
0.12856
0.129679
0.131194
0.128372
0.0339623
0.034316
0.0346853
0.03507
0.0354717
0.0358912
0.0363297
0.036788
0.0372678
0.0377693
0.038295
0.0388454
0.0394241
0.0400316
0.0406723
0.0413472
0.0420623
0.042818
0.0436208
0.0444723
0.0453799
0.046344
0.0473741
0.0484712
0.0496436
0.0508943
0.0522285
0.0536481
0.0551585
0.056769
0.0584942
0.0603482
0.0623353
0.0644454
0.0666849
0.0690722
0.0716326
0.07439
0.0773627
0.0805784
0.0840577
0.0877967
0.0917788
0.0959705
0.10032
0.104748
0.109143
0.113392
0.117349
0.120916
0.123954
0.126399
0.128518
0.13024
0.131536
0.132126
0.132595
0.133835
0.135334
0.132422
0.0341577
0.0345317
0.0349212
0.0353257
0.0357469
0.0361858
0.0366433
0.0371207
0.0376192
0.0381399
0.0386846
0.0392545
0.0398525
0.0404793
0.0411393
0.041833
0.0425668
0.0433403
0.0441605
0.0450286
0.0459522
0.0469317
0.0479767
0.0490883
0.0502754
0.0515414
0.0528919
0.0543299
0.0558616
0.0574972
0.0592521
0.0611415
0.0631687
0.0653272
0.0676208
0.0700686
0.0726948
0.075522
0.0785676
0.0818603
0.0854207
0.0892444
0.0933156
0.0976035
0.102059
0.106607
0.111141
0.115552
0.119694
0.123468
0.126733
0.129409
0.131752
0.133688
0.135176
0.135937
0.136541
0.137917
0.139419
0.136478
0.0343023
0.0346934
0.0351
0.0355221
0.0359616
0.0364192
0.0368964
0.0373935
0.0379128
0.0384538
0.0390195
0.0396098
0.0402286
0.0408757
0.0415561
0.0422698
0.0430236
0.0438168
0.0446563
0.0455435
0.0464858
0.0474835
0.0485465
0.0496759
0.0508808
0.0521651
0.0535348
0.0549935
0.0565482
0.05821
0.059995
0.0619187
0.0639867
0.0661902
0.0685363
0.0710422
0.0737321
0.0766277
0.0797455
0.0831157
0.0867592
0.0906711
0.0948365
0.0992265
0.103794
0.108469
0.113148
0.117722
0.122049
0.126027
0.129515
0.132417
0.134978
0.137126
0.138807
0.139742
0.140485
0.142006
0.143523
0.14059
0.0344249
0.0348339
0.0352584
0.0356976
0.0361538
0.0366278
0.0371207
0.0376341
0.0381691
0.038727
0.0393095
0.0399178
0.0405548
0.0412212
0.0419212
0.0426551
0.0434293
0.0442432
0.0451035
0.0460114
0.0469744
0.0479928
0.0490764
0.0502264
0.051452
0.0527575
0.0541491
0.0556312
0.057211
0.0589006
0.0607167
0.0626758
0.0647827
0.0670318
0.0694287
0.0719914
0.0747439
0.0777073
0.0808972
0.0843462
0.0880755
0.0920798
0.0963453
0.100845
0.105532
0.110342
0.115171
0.119915
0.124429
0.128613
0.132321
0.135449
0.138226
0.140586
0.142461
0.14357
0.14446
0.146125
0.147659
0.144763
0.0344633
0.0348895
0.0353313
0.0357882
0.0362627
0.036755
0.0372673
0.0377996
0.0383546
0.0389318
0.0395345
0.0401625
0.04082
0.0415067
0.0422275
0.0429825
0.0437783
0.0446141
0.0454965
0.046427
0.0474127
0.0484538
0.0495603
0.0507334
0.0519824
0.0533118
0.054728
0.056236
0.0578433
0.0595627
0.0614115
0.0634063
0.065554
0.0678475
0.0702952
0.0729141
0.0757287
0.0787597
0.0820234
0.0855542
0.0893741
0.0934776
0.0978522
0.102471
0.107292
0.112249
0.117242
0.122166
0.126878
0.131274
0.135207
0.138563
0.141559
0.144131
0.146197
0.147478
0.148509
0.150312
0.151865
0.149018
0.0344664
0.0349087
0.0353668
0.0358399
0.0363305
0.0368392
0.0373675
0.0379167
0.0384883
0.0390833
0.0397039
0.0403508
0.0410277
0.0417345
0.0424762
0.0432525
0.0440703
0.0449285
0.0458339
0.0467877
0.0477972
0.0488625
0.0499937
0.0511919
0.0524664
0.0538221
0.0552655
0.0568018
0.058439
0.0601904
0.0620736
0.064106
0.0662943
0.0686339
0.0711324
0.0738079
0.076685
0.0797847
0.083124
0.0867396
0.0906544
0.0948633
0.0993551
0.104103
0.109068
0.114183
0.119351
0.124467
0.129385
0.133999
0.138158
0.141748
0.144965
0.14775
0.150009
0.151459
0.152629
0.154562
0.156129
0.153342
0.0343894
0.0348455
0.0353181
0.0358064
0.0363134
0.0368391
0.0373861
0.037954
0.038546
0.0391607
0.0398024
0.0404697
0.0411682
0.0418961
0.0426598
0.043458
0.0442987
0.0451801
0.0461095
0.0470879
0.0481228
0.049214
0.0503718
0.0515972
0.0528995
0.0542838
0.0557567
0.0573237
0.058993
0.0607785
0.062698
0.0647693
0.0670005
0.0693865
0.071937
0.07467
0.0776106
0.0807809
0.0841981
0.0879025
0.0919177
0.0962401
0.100858
0.105748
0.110868
0.116155
0.121514
0.126834
0.131972
0.136811
0.141204
0.145035
0.14848
0.15148
0.153929
0.155541
0.156842
0.158895
0.160471
0.157744
0.0342748
0.034746
0.0352337
0.0357368
0.0362583
0.0367986
0.0373596
0.0379425
0.0385491
0.0391803
0.0398383
0.040524
0.0412412
0.0419898
0.0427746
0.0435956
0.0444597
0.0453656
0.0463203
0.0473249
0.0483866
0.0495054
0.0506916
0.0519461
0.0532782
0.0546933
0.0561978
0.0577977
0.0595013
0.0613228
0.0632805
0.0653926
0.0676674
0.0701016
0.0727053
0.075497
0.0785033
0.0817462
0.0852445
0.0890409
0.0931617
0.0976037
0.102356
0.107396
0.112683
0.118154
0.123713
0.12925
0.134615
0.139689
0.144316
0.148393
0.152072
0.15529
0.157931
0.159703
0.16113
0.163292
0.164867
0.162204
0.0340487
0.034535
0.0350385
0.0355583
0.0360976
0.0366561
0.0372368
0.0378391
0.0384666
0.039118
0.0397975
0.0405042
0.0412435
0.0420141
0.042822
0.0436664
0.044555
0.0454863
0.0464672
0.0474989
0.0485887
0.0497365
0.0509524
0.0522375
0.053601
0.0550485
0.0565864
0.058221
0.0599606
0.06182
0.0638174
0.0659716
0.0682919
0.0707752
0.0734338
0.076286
0.0793597
0.0826779
0.0862605
0.0901534
0.0943856
0.0989546
0.103851
0.10905
0.114516
0.120183
0.125957
0.131723
0.137328
0.142643
0.147514
0.151847
0.155766
0.159206
0.162035
0.16396
0.165503
0.167764
0.169335
0.166725
0.0337782
0.0342786
0.034797
0.0353318
0.0358865
0.0364611
0.0370578
0.0376775
0.0383224
0.0389927
0.0396915
0.0404189
0.0411795
0.0419726
0.0428039
0.0436725
0.0445864
0.0455435
0.0465514
0.0476109
0.0487295
0.0499069
0.0511537
0.0524705
0.0538667
0.0553481
0.0569209
0.0585916
0.0603688
0.0622674
0.0643061
0.0665038
0.0688703
0.071405
0.0741192
0.077034
0.0801771
0.0835738
0.0872439
0.0912372
0.0955855
0.100288
0.105334
0.110702
0.116354
0.122228
0.128226
0.134232
0.140085
0.145651
0.150767
0.155361
0.159529
0.163194
0.166213
0.168288
0.169944
0.172292
0.173843
0.171291
0.0334202
0.0339327
0.0344642
0.0350135
0.0355845
0.0361762
0.0367924
0.0374317
0.0380984
0.03879
0.0395118
0.0402617
0.0410462
0.0418627
0.0427186
0.043612
0.0445518
0.0455355
0.0465711
0.0476593
0.0488078
0.0500161
0.0512949
0.0526447
0.0540749
0.0555914
0.0572004
0.0589086
0.0607246
0.0626638
0.0647448
0.0669869
0.0694018
0.0719877
0.0747598
0.0777384
0.0809534
0.0844311
0.0881925
0.0922905
0.0967604
0.101602
0.106806
0.112352
0.118202
0.124292
0.130527
0.136784
0.142897
0.148721
0.154092
0.158958
0.163382
0.167276
0.170481
0.172701
0.174458
0.176882
0.17841
0.175902
0.0330333
0.0335593
0.0341048
0.0346678
0.0352525
0.0358582
0.036488
0.0371424
0.0378237
0.0385324
0.0392714
0.040041
0.0408459
0.0416852
0.0425647
0.0434836
0.04445
0.0454617
0.0465263
0.0476446
0.0488245
0.050065
0.0513771
0.0527612
0.0542267
0.0557794
0.0574257
0.0591723
0.0610282
0.0630087
0.065133
0.0674208
0.0698839
0.0725233
0.0753536
0.0783974
0.0816865
0.085248
0.089104
0.0933105
0.0979066
0.102893
0.108261
0.113991
0.120045
0.126361
0.132841
0.139358
0.145741
0.151832
0.157463
0.162605
0.167292
0.171418
0.174813
0.177175
0.17903
0.181518
0.183006
0.180545
0.0325427
0.0330815
0.0336409
0.0342189
0.03482
0.0354429
0.0360919
0.0367654
0.037468
0.0381974
0.038959
0.0397509
0.0405798
0.0414433
0.0423485
0.0432938
0.044288
0.0453285
0.0464231
0.0475726
0.0487846
0.0500583
0.0514046
0.0528237
0.0543249
0.0559145
0.0575984
0.0593841
0.0612804
0.0633029
0.065471
0.0678049
0.0703178
0.0730099
0.0758998
0.0790104
0.0823752
0.0860233
0.0899772
0.0942963
0.0990234
0.10416
0.109699
0.115621
0.121889
0.12844
0.135176
0.141964
0.148628
0.154995
0.160898
0.166328
0.171284
0.175644
0.179225
0.181723
0.183664
0.186206
0.187648
0.185219
0.0320051
0.0325552
0.0331269
0.0337178
0.0343326
0.0349706
0.0356351
0.0363262
0.0370472
0.0377973
0.0385807
0.0393965
0.0402504
0.0411404
0.0420735
0.0430473
0.0440714
0.0451422
0.0462681
0.0474495
0.0486943
0.0500013
0.051382
0.0528361
0.0543732
0.0559997
0.0577215
0.0595463
0.0614831
0.0635477
0.06576
0.0681405
0.0707024
0.073449
0.0763986
0.0795772
0.0830195
0.0867564
0.0908111
0.0952464
0.100109
0.1054
0.111115
0.117235
0.123724
0.130517
0.137517
0.144585
0.151538
0.158194
0.164376
0.170096
0.175327
0.179924
0.183694
0.186327
0.18835
0.19093
0.192307
0.189912
0.0313186
0.0318807
0.0324672
0.0330761
0.0337124
0.0343741
0.0350656
0.0357847
0.0365362
0.0373164
0.0381316
0.0389781
0.0398639
0.0407846
0.041749
0.0427537
0.0438091
0.0449112
0.0460689
0.0472823
0.04856
0.0499002
0.0513148
0.0528036
0.0543761
0.0560391
0.0577983
0.0596619
0.0616388
0.0637455
0.0660018
0.0684284
0.0710407
0.0738406
0.0768512
0.0800987
0.0836198
0.0874475
0.0916062
0.0961613
0.101163
0.106615
0.112512
0.118837
0.125555
0.1326
0.139874
0.147232
0.154487
0.161442
0.167916
0.173938
0.17945
0.184284
0.188238
0.190996
0.193088
0.195695
0.197001
0.194624
0.0305897
0.0311829
0.0318043
0.0324466
0.0331154
0.033807
0.0345261
0.0352706
0.0360458
0.0368492
0.0376874
0.0385574
0.0394674
0.0404134
0.041404
0.0424358
0.0435194
0.0446504
0.0458378
0.0470817
0.0483905
0.0497627
0.05121
0.0527323
0.0543391
0.0560374
0.0578331
0.0597345
0.061751
0.0638989
0.0661988
0.0686717
0.0713328
0.0741878
0.0772593
0.0805763
0.0841774
0.0880978
0.0923628
0.0970409
0.102185
0.107801
0.113886
0.120422
0.127375
0.13468
0.142235
0.149893
0.157459
0.164725
0.171501
0.177827
0.183621
0.188696
0.192836
0.195718
0.197872
0.20049
0.201703
0.199344
0.0301579
0.0307373
0.0313419
0.0319713
0.0326306
0.0333185
0.0340393
0.0347906
0.0355771
0.0363951
0.0372505
0.0381396
0.0390701
0.0400381
0.0410514
0.0421074
0.0432158
0.044373
0.0455872
0.0468591
0.0481966
0.0495982
0.0510759
0.0526294
0.0542683
0.0560001
0.0578304
0.0597682
0.0618227
0.0640109
0.0663534
0.0688715
0.0715827
0.0744912
0.0776245
0.0810116
0.0846937
0.0887086
0.0930827
0.0978869
0.103178
0.108964
0.115241
0.121996
0.129193
0.136766
0.144613
0.152581
0.16047
0.16806
0.175151
0.181792
0.187872
0.193185
0.197505
0.200498
0.202701
0.205317
0.206429
0.204071
0.0295964
0.0302026
0.0308362
0.0314911
0.0321735
0.0328799
0.033616
0.0343793
0.0351763
0.0360038
0.0368692
0.0377686
0.0387115
0.0396925
0.0407216
0.0417938
0.0429211
0.0440977
0.0453334
0.0466276
0.0479892
0.0494159
0.0509202
0.0525015
0.0541694
0.0559318
0.0577942
0.0597659
0.0618567
0.0640834
0.0664674
0.0690306
0.07179
0.0747537
0.0779484
0.0814065
0.0851706
0.0892817
0.093767
0.0987004
0.104142
0.110102
0.116577
0.123555
0.131003
0.138853
0.146999
0.155285
0.163508
0.171433
0.178849
0.185806
0.192173
0.197727
0.202226
0.205329
0.207572
0.210168
0.211154
0.208793
0.0292756
0.0298679
0.0304847
0.0311263
0.0317978
0.0324983
0.0332323
0.0339975
0.0347992
0.0356335
0.0365071
0.0374162
0.0383693
0.0393621
0.0404033
0.0414897
0.0426318
0.043825
0.0450782
0.0463914
0.0477731
0.049221
0.0507478
0.0523529
0.0540461
0.0558357
0.0577271
0.0597302
0.0618546
0.0641182
0.0665423
0.069149
0.0719576
0.074975
0.0782322
0.0817621
0.0856096
0.0898185
0.0944177
0.0994835
0.10508
0.111218
0.117898
0.125108
0.132815
0.14095
0.149406
0.158022
0.16659
0.174861
0.182614
0.189898
0.196555
0.202345
0.207016
0.210214
0.21248
0.215042
0.215893
0.213513
0.0288061
0.0294272
0.0300749
0.0307433
0.0314387
0.0321576
0.032906
0.0336812
0.0344903
0.0353296
0.036208
0.0371204
0.0380786
0.0390755
0.0401233
0.0412157
0.0423665
0.0435685
0.044833
0.0461582
0.0475542
0.0490177
0.0505621
0.0521865
0.0539009
0.0557137
0.0576307
0.0596619
0.0618176
0.0641156
0.066578
0.0692277
0.0720837
0.0751563
0.0784764
0.0820793
0.0860117
0.0903204
0.0950359
0.100237
0.105992
0.112314
0.119204
0.126652
0.134625
0.143053
0.151827
0.160782
0.169703
0.178332
0.186431
0.194043
0.200989
0.207017
0.211858
0.215146
0.217426
0.219933
0.220622
0.218219
0.0287082
0.0293094
0.0299316
0.0305756
0.031247
0.0319457
0.0326768
0.0334387
0.0342375
0.0350695
0.0359426
0.0368523
0.0378088
0.0388066
0.039856
0.0409523
0.0421079
0.0433166
0.0445887
0.0459231
0.0473295
0.0488049
0.0503628
0.0520023
0.0537338
0.0555662
0.057505
0.0595612
0.061745
0.0640752
0.0665742
0.069265
0.0721692
0.0752961
0.0786805
0.082358
0.0863772
0.0907881
0.0956228
0.100963
0.106881
0.113392
0.1205
0.128194
0.136442
0.145173
0.154275
0.163579
0.172865
0.181862
0.190317
0.198265
0.205504
0.211764
0.216763
0.220125
0.222401
0.224839
0.225357
0.222919
0.0284821
0.0290895
0.0297165
0.0303626
0.0310341
0.031731
0.0324587
0.0332165
0.0340111
0.0348388
0.0357085
0.0366148
0.0375696
0.0385651
0.0396142
0.0407094
0.041866
0.0430756
0.0443504
0.0456883
0.0471002
0.0485823
0.0501491
0.0517995
0.0535439
0.0553918
0.0573491
0.0594268
0.0616359
0.0639955
0.066529
0.0692603
0.0722111
0.0753938
0.0788434
0.0825972
0.0867054
0.0912212
0.0961783
0.101662
0.107747
0.114453
0.121784
0.129731
0.138262
0.147305
0.156744
0.166405
0.176065
0.185439
0.194256
0.20254
0.21007
0.216563
0.221719
0.225149
0.227408
0.229757
0.230076
0.227601
0.0281505
0.0287718
0.029414
0.0300747
0.030761
0.0314701
0.0322093
0.0329748
0.0337756
0.0346063
0.0354775
0.0363832
0.0373362
0.0383297
0.0393762
0.0404695
0.0416243
0.0428331
0.0441077
0.0454466
0.0468607
0.0483462
0.0499181
0.0515754
0.053329
0.0551887
0.0571606
0.0592567
0.061488
0.0638747
0.0664406
0.0692106
0.0722085
0.0754463
0.0789627
0.0827949
0.0869947
0.0916185
0.0967018
0.102333
0.108591
0.115499
0.123061
0.13127
0.140094
0.149459
0.159244
0.169274
0.179316
0.189075
0.198263
0.206892
0.214714
0.221432
0.226732
0.230212
0.232436
0.23468
0.234793
0.232273
0.0279372
0.0285634
0.0292085
0.0298722
0.030559
0.031269
0.0320068
0.0327719
0.0335707
0.0343996
0.0352682
0.0361707
0.0371205
0.0381093
0.0391516
0.0402391
0.0413891
0.0425923
0.0438627
0.0451975
0.0466093
0.0480935
0.0496664
0.0513265
0.0530854
0.0549532
0.0569365
0.0590476
0.0612984
0.0637094
0.0663059
0.0691135
0.0721571
0.0754513
0.0790355
0.0829483
0.0872429
0.0919784
0.097192
0.102975
0.109412
0.116528
0.124328
0.132807
0.141932
0.151627
0.161769
0.172175
0.182607
0.192761
0.202324
0.211295
0.219408
0.226352
0.231794
0.235315
0.237492
0.23961
0.239491
0.236923
0.0277917
0.0284161
0.0290583
0.0297176
0.0304004
0.0311049
0.0318381
0.0325968
0.0333897
0.0342113
0.0350725
0.0359671
0.0369083
0.0378888
0.0389221
0.0400015
0.0411431
0.0423388
0.043602
0.0449305
0.046337
0.0478172
0.0493877
0.0510473
0.052808
0.0546807
0.0566721
0.0587954
0.0610627
0.063496
0.0661211
0.0689648
0.0720544
0.0754048
0.0790586
0.0830544
0.087447
0.0922982
0.097647
0.103588
0.110211
0.117543
0.12559
0.134349
0.143784
0.153821
0.164329
0.175121
0.185952
0.196507
0.20645
0.21577
0.224174
0.231335
0.236903
0.240447
0.242558
0.244537
0.244181
0.241561
0.0277317
0.0283518
0.0289867
0.0296375
0.0303084
0.0310007
0.0317188
0.0324635
0.0332408
0.0340478
0.0348943
0.0357746
0.0367025
0.0376693
0.0386903
0.0397566
0.0408866
0.0420701
0.0433225
0.0446405
0.0460382
0.0475105
0.0490753
0.050731
0.0524905
0.054365
0.0563618
0.0584945
0.0607764
0.0632298
0.0658821
0.0687612
0.0718959
0.0753038
0.0790284
0.0831097
0.0876038
0.0925753
0.0980644
0.104169
0.110984
0.118539
0.126842
0.135889
0.145645
0.156032
0.166915
0.178101
0.189338
0.200299
0.210628
0.220293
0.228985
0.236364
0.242056
0.245614
0.247645
0.249464
0.248848
0.246176
0.02763
0.028244
0.0288722
0.0295148
0.0301781
0.0308609
0.0315701
0.0323034
0.0330695
0.0338634
0.0346963
0.0355619
0.0364746
0.0374263
0.0384318
0.0394834
0.0405988
0.0417687
0.0430079
0.0443138
0.0457004
0.0471629
0.0487195
0.0503691
0.0521249
0.053999
0.0559989
0.0581393
0.0604338
0.0629063
0.0655847
0.0684985
0.0716789
0.0751442
0.0789414
0.0831109
0.08771
0.0928064
0.0984415
0.104716
0.111732
0.11952
0.128088
0.137433
0.14752
0.158269
0.169538
0.181127
0.192776
0.204151
0.214868
0.224884
0.233862
0.241448
0.247247
0.2508
0.252733
0.254381
0.253502
0.250777
0.0275382
0.0281442
0.0287617
0.0293925
0.030041
0.0307091
0.0314012
0.0321185
0.0328674
0.0336449
0.0344613
0.0353106
0.0362078
0.0371433
0.0381336
0.0391689
0.0402692
0.0414233
0.0426479
0.0439395
0.0453131
0.0467637
0.0483105
0.0499522
0.0517028
0.0535748
0.0555766
0.0577234
0.0600298
0.0625203
0.0652245
0.068173
0.0713987
0.0749229
0.0787943
0.0830546
0.0877627
0.0929891
0.098776
0.105228
0.112451
0.120481
0.129323
0.138976
0.149405
0.160524
0.172189
0.184189
0.196257
0.208045
0.219154
0.229516
0.238781
0.246575
0.252478
0.256015
0.257835
0.259293
0.258133
0.255353
0.0273504
0.0279482
0.0285568
0.0291774
0.0298163
0.030473
0.0311546
0.0318591
0.0325959
0.0333592
0.0341615
0.0349955
0.0358771
0.0367968
0.037771
0.0387904
0.039875
0.0410138
0.0422236
0.043501
0.0448616
0.0463002
0.0478367
0.0494701
0.0512149
0.0530846
0.0550875
0.0572405
0.0595583
0.0620668
0.0647968
0.06778
0.0710526
0.0746365
0.0785842
0.0829383
0.0877593
0.0931208
0.0990658
0.105702
0.113143
0.121423
0.13055
0.140522
0.151304
0.162806
0.174877
0.187297
0.199789
0.211995
0.223499
0.234212
0.243759
0.251748
0.257737
0.261239
0.26293
0.264187
0.262745
0.259914
0.0271197
0.0277092
0.0283071
0.0289158
0.02954
0.0301817
0.0308461
0.0315342
0.0322533
0.0329999
0.0337853
0.0346028
0.0354686
0.0363721
0.0373311
0.0383348
0.0394043
0.0405279
0.0417233
0.0429867
0.0443345
0.0457614
0.047288
0.0489134
0.0506528
0.0525203
0.054525
0.0566841