/*--------------------------------*- C++ -*----------------------------------*\
  =========                 |
  \\      /  F ield         | OpenFOAM: The Open Source CFD Toolbox
   \\    /   O peration     | Website:  https://openfoam.org
    \\  /    A nd           | Version:  6.0
     \\/     M anipulation  |
\*---------------------------------------------------------------------------*/
FoamFile
{
    version     2.0;
    format      ascii;
    class       surfaceScalarField;
    location    "14";
    object      phi;
}
// * * * * * * * * * * * * * * * * * * * * * * * * * * * * * * * * * * * * * //

dimensions      [0 3 -1 0 0 0 0];

internalField   nonuniform List<scalar> 
123526
(
-8.10421e-05
2.26139e-05
8.1417e-05
-8.06272e-05
2.44582e-05
-8.01811e-05
2.64537e-05
-7.96999e-05
2.86129e-05
-7.91792e-05
3.09492e-05
-7.86188e-05
3.34773e-05
-7.80118e-05
3.6213e-05
-7.73581e-05
3.91734e-05
-7.66492e-05
4.23764e-05
-7.58838e-05
4.58426e-05
-7.50548e-05
4.95947e-05
-7.41588e-05
5.36558e-05
-7.31889e-05
5.80519e-05
-7.2137e-05
6.28085e-05
-7.09954e-05
6.79575e-05
-6.97599e-05
7.35362e-05
-6.8423e-05
7.95773e-05
-6.69694e-05
8.61128e-05
-6.53918e-05
9.31941e-05
-6.36858e-05
0.000100869
-6.18297e-05
0.000109174
-5.9816e-05
0.000118172
-5.76337e-05
0.000127928
-5.52599e-05
0.00013848
-5.26825e-05
0.000149927
-4.989e-05
0.000162321
-4.68486e-05
0.000175746
-4.35585e-05
0.000190295
-3.99734e-05
0.000206042
-3.60963e-05
0.000223107
-3.18771e-05
0.000241569
-2.73049e-05
0.00026156
-2.23318e-05
0.000283178
-1.69299e-05
0.000306553
-1.10785e-05
0.000331811
-4.72878e-06
0.000359059
2.14805e-06
0.00038845
9.60402e-06
0.00042008
1.76929e-05
0.000454061
2.64545e-05
0.000490503
3.59415e-05
0.000529469
4.62096e-05
0.00057099
5.73044e-05
0.000615065
6.92666e-05
0.000661614
8.21307e-05
0.00071047
9.59253e-05
0.000761349
0.000110653
0.000813812
0.000126332
0.000867208
0.000142939
0.000920617
0.000160482
0.000972742
0.000178941
0.00102185
0.000198208
0.00106564
0.000218269
0.00110109
0.000238786
0.00112458
0.000259549
0.00113139
0.000279955
0.00111574
0.000299705
0.00106903
0.000317915
0.000982045
0.000333879
0.000834875
0.000605901
0.00033022
-7.96825e-05
2.22375e-05
8.00509e-05
-7.92737e-05
2.40503e-05
-7.88334e-05
2.6012e-05
-7.83567e-05
2.8135e-05
-7.78408e-05
3.0433e-05
-7.72853e-05
3.29202e-05
-7.6684e-05
3.56124e-05
-7.60383e-05
3.85265e-05
-7.53396e-05
4.16791e-05
-7.45884e-05
4.50911e-05
-7.37775e-05
4.87852e-05
-7.29047e-05
5.27835e-05
-7.19631e-05
5.71113e-05
-7.09448e-05
6.17911e-05
-6.98422e-05
6.68552e-05
-6.86504e-05
7.23449e-05
-6.73621e-05
7.82888e-05
-6.59611e-05
8.47114e-05
-6.44398e-05
9.16724e-05
-6.27931e-05
9.92206e-05
-6.09992e-05
0.00010738
-5.90495e-05
0.00011622
-5.69341e-05
0.000125812
-5.46272e-05
0.00013617
-5.21205e-05
0.00014742
-4.93967e-05
0.000159594
-4.64289e-05
0.000172778
-4.3209e-05
0.000187073
-3.96996e-05
0.000202532
-3.58942e-05
0.000219299
-3.17519e-05
0.000237423
-2.72541e-05
0.000257059
-2.23553e-05
0.000278285
-1.70295e-05
0.000301237
-1.12542e-05
0.000326045
-4.98165e-06
0.000352792
1.81549e-06
0.000381656
9.18798e-06
0.000412712
1.71853e-05
0.000446069
2.5844e-05
0.000481852
3.52104e-05
0.000520112
4.53342e-05
0.000560877
5.62539e-05
0.000604158
6.80039e-05
0.000649878
8.06152e-05
0.000697872
9.41178e-05
0.00074786
0.000108522
0.000799405
0.000123861
0.00085186
0.000140128
0.000904301
0.000157345
0.000955442
0.000175492
0.00100356
0.000194449
0.00104643
0.000214189
0.00108113
0.000234349
0.00110413
0.00025472
0.0011108
0.000274702
0.00109545
0.000293984
0.00104958
0.000311824
0.000963957
0.000323078
0.000823216
0.000609271
0.000319198
-7.8541e-05
2.18775e-05
7.8892e-05
-7.81487e-05
2.36588e-05
-7.77251e-05
2.5586e-05
-7.72617e-05
2.76713e-05
-7.67582e-05
2.99284e-05
-7.62101e-05
3.23717e-05
-7.5615e-05
3.50171e-05
-7.49702e-05
3.78817e-05
-7.42708e-05
4.0981e-05
-7.35157e-05
4.43364e-05
-7.26993e-05
4.79712e-05
-7.18216e-05
5.19066e-05
-7.08739e-05
5.61672e-05
-6.98545e-05
6.07724e-05
-6.87508e-05
6.57555e-05
-6.75663e-05
7.11605e-05
-6.62868e-05
7.70128e-05
-6.49045e-05
8.33284e-05
-6.34054e-05
9.01758e-05
-6.179e-05
9.76037e-05
-6.0032e-05
0.000105623
-5.81261e-05
0.000114312
-5.60593e-05
0.000123746
-5.38072e-05
0.000133916
-5.13602e-05
0.000144974
-4.87006e-05
0.000156933
-4.58021e-05
0.00016988
-4.26546e-05
0.000183925
-3.9223e-05
0.0001991
-3.54979e-05
0.000215572
-3.14414e-05
0.000233361
-2.70318e-05
0.000252648
-2.22274e-05
0.000273485
-1.69995e-05
0.00029602
-1.13274e-05
0.000320381
-5.16301e-06
0.000346632
1.52037e-06
0.000374976
8.76963e-06
0.000405467
1.66305e-05
0.000438215
2.51362e-05
0.000473354
3.43303e-05
0.000510927
4.42599e-05
0.000550957
5.49618e-05
0.000593467
6.64712e-05
0.00063838
7.88225e-05
0.000685529
9.20521e-05
0.000734639
0.000106181
0.000785274
0.000121251
0.000836788
0.000137264
0.000888267
0.000154235
0.000938441
0.000172135
0.000985636
0.000190821
0.00102766
0.000210251
0.00106171
0.000230055
0.00108426
0.000250042
0.00109087
0.000269639
0.00107581
0.000288468
0.00103083
0.000306012
0.000946448
0.000317686
0.000811699
0.000610155
0.000316929
-7.72811e-05
2.15317e-05
7.76196e-05
-7.69071e-05
2.32862e-05
-7.65074e-05
2.51832e-05
-7.60713e-05
2.72347e-05
-7.55993e-05
2.94539e-05
-7.50841e-05
3.18552e-05
-7.45231e-05
3.44543e-05
-7.39112e-05
3.72683e-05
-7.32435e-05
4.03123e-05
-7.25162e-05
4.36079e-05
-7.17254e-05
4.71795e-05
-7.08674e-05
5.10476e-05
-6.99377e-05
5.52367e-05
-6.89303e-05
5.97638e-05
-6.78386e-05
6.46628e-05
-6.66614e-05
6.99817e-05
-6.53911e-05
7.57416e-05
-6.40165e-05
8.19516e-05
-6.25285e-05
8.86874e-05
-6.09261e-05
9.59988e-05
-5.91859e-05
0.000103883
-5.73026e-05
0.000112426
-5.52639e-05
0.000121709
-5.30463e-05
0.000131696
-5.064e-05
0.000142569
-4.80276e-05
0.000154319
-4.51829e-05
0.000167036
-4.20957e-05
0.000180838
-3.87311e-05
0.000195735
-3.50795e-05
0.000211919
-3.11036e-05
0.000229381
-2.67825e-05
0.000248324
-2.20726e-05
0.000268781
-1.69493e-05
0.000290906
-1.13891e-05
0.000314829
-5.34557e-06
0.000340593
1.20726e-06
0.000368427
8.31422e-06
0.000398364
1.60184e-05
0.000430516
2.43523e-05
0.000465028
3.33588e-05
0.00050193
4.30856e-05
0.000541242
5.35709e-05
0.000582998
6.48533e-05
0.000627119
7.69721e-05
0.000673436
8.99692e-05
0.000721676
0.000103871
0.000771405
0.000118721
0.000821982
0.000134517
0.000872501
0.000151265
0.000921721
0.000168916
0.000967996
0.000187311
0.0010092
0.0002064
0.0010426
0.000225835
0.00106477
0.000245429
0.00107127
0.000264659
0.0010565
0.000283086
0.0010124
0.000300342
0.00092912
0.000313064
0.000798772
0.000608802
0.000314157
-7.59712e-05
2.11845e-05
7.63088e-05
-7.56011e-05
2.29161e-05
-7.52087e-05
2.4788e-05
-7.47865e-05
2.68117e-05
-7.43337e-05
2.89997e-05
-7.3845e-05
3.13658e-05
-7.3316e-05
3.3925e-05
-7.27424e-05
3.66943e-05
-7.21164e-05
3.96874e-05
-7.14352e-05
4.29265e-05
-7.06898e-05
4.64364e-05
-6.98795e-05
5.0237e-05
-6.89929e-05
5.43533e-05
-6.80291e-05
5.87995e-05
-6.69738e-05
6.3611e-05
-6.58327e-05
6.88395e-05
-6.45912e-05
7.45032e-05
-6.32451e-05
8.06035e-05
-6.17803e-05
8.72249e-05
-6.02016e-05
9.44174e-05
-5.84829e-05
0.000102166
-5.66229e-05
0.000110563
-5.46084e-05
0.000119695
-5.24187e-05
0.000129503
-5.00437e-05
0.000140195
-4.74679e-05
0.000151742
-4.46654e-05
0.000164235
-4.16266e-05
0.000177799
-3.83176e-05
0.000192426
-3.47285e-05
0.000208329
-3.08236e-05
0.000225472
-2.65805e-05
0.00024408
-2.19596e-05
0.000264165
-1.69327e-05
0.00028589
-1.14799e-05
0.000309384
-5.55424e-06
0.000334671
8.69768e-07
0.000362006
7.83588e-06
0.000391402
1.53867e-05
0.00042297
2.35548e-05
0.000456866
3.23836e-05
0.00049311
4.19216e-05
0.000531714
5.22094e-05
0.000572721
6.32881e-05
0.000616052
7.52e-05
0.000661536
8.79896e-05
0.0007089
0.000101684
0.000757718
0.000116324
0.000807356
0.000131899
0.000856928
0.000148405
0.000905222
0.000165776
0.00095064
0.000183848
0.0009911
0.000202571
0.00102394
0.000221616
0.00104573
0.000240813
0.00105217
0.000259682
0.00103764
0.000277753
0.000994445
0.000294663
0.000912287
0.000307761
0.000785866
0.000605902
0.000310818
-7.49517e-05
2.08254e-05
7.53039e-05
-7.45673e-05
2.25325e-05
-7.41611e-05
2.4379e-05
-7.37262e-05
2.63761e-05
-7.32642e-05
2.85356e-05
-7.27705e-05
3.08706e-05
-7.22425e-05
3.33956e-05
-7.16762e-05
3.61265e-05
-7.10651e-05
3.90756e-05
-7.04048e-05
4.2265e-05
-6.96882e-05
4.57194e-05
-6.89104e-05
4.94581e-05
-6.80628e-05
5.35054e-05
-6.71383e-05
5.78735e-05
-6.61265e-05
6.25987e-05
-6.50261e-05
6.77369e-05
-6.38265e-05
7.3303e-05
-6.25183e-05
7.92923e-05
-6.10906e-05
8.57969e-05
-5.95452e-05
9.28685e-05
-5.78586e-05
0.00010048
-5.60289e-05
0.000108729
-5.40441e-05
0.000117711
-5.18849e-05
0.000127341
-4.95418e-05
0.000137853
-4.70008e-05
0.000149199
-4.42368e-05
0.000161472
-4.12413e-05
0.000174803
-3.79812e-05
0.000189166
-3.44478e-05
0.000204794
-3.06052e-05
0.000221626
-2.64338e-05
0.000239906
-2.18911e-05
0.000259629
-1.6954e-05
0.000280962
-1.15998e-05
0.000304038
-5.78387e-06
0.000328859
5.19176e-07
0.000355705
7.35329e-06
0.000384571
1.47614e-05
0.000415567
2.27765e-05
0.000448858
3.14422e-05
0.000484453
4.08082e-05
0.000522359
5.09158e-05
0.000562629
6.1808e-05
0.000605181
7.35278e-05
0.000649843
8.61196e-05
0.000696346
9.96094e-05
0.000744268
0.000114032
0.000792988
0.00012937
0.000841639
0.000145611
0.000889039
0.00016268
0.000933622
0.00018041
0.000973362
0.000198754
0.00100563
0.000217413
0.00102709
0.000236222
0.00103341
0.000254744
0.00101911
0.000272497
0.000976733
0.000289037
0.000895739
0.000302358
0.000772408
0.000600471
0.000307627
-7.43254e-05
2.04575e-05
7.46856e-05
-7.39283e-05
2.21357e-05
-7.35047e-05
2.39525e-05
-7.30482e-05
2.59193e-05
-7.25625e-05
2.80478e-05
-7.20427e-05
3.03506e-05
-7.14901e-05
3.28417e-05
-7.09004e-05
3.55365e-05
-7.02707e-05
3.84455e-05
-6.95966e-05
4.15903e-05
-6.88724e-05
4.49957e-05
-6.80945e-05
4.86793e-05
-6.72526e-05
5.26649e-05
-6.63422e-05
5.69616e-05
-6.53485e-05
6.16068e-05
-6.42735e-05
6.66596e-05
-6.31009e-05
7.21323e-05
-6.18248e-05
7.8013e-05
-6.04291e-05
8.44027e-05
-5.89182e-05
9.13539e-05
-5.72653e-05
9.88281e-05
-5.54702e-05
0.00010693
-5.35193e-05
0.000115762
-5.13948e-05
0.000125213
-4.90871e-05
0.000135547
-4.65831e-05
0.000146693
-4.38587e-05
0.000158748
-4.09061e-05
0.00017185
-3.76937e-05
0.000185953
-3.42128e-05
0.000201312
-3.04297e-05
0.000217838
-2.63231e-05
0.000235798
-2.18555e-05
0.000255165
-1.7e-05
0.000276117
-1.17381e-05
0.000298783
-6.02443e-06
0.000323148
1.6578e-07
0.000349517
6.87693e-06
0.000377863
1.41527e-05
0.000408296
2.20261e-05
0.00044099
3.05411e-05
0.000475945
3.97473e-05
0.000513161
4.96866e-05
0.000552699
6.04017e-05
0.000594476
7.19355e-05
0.000638319
8.43307e-05
0.000683962
9.76105e-05
0.000730995
0.000111805
0.000778807
0.000126891
0.000826555
0.00014285
0.000873087
0.000159604
0.000916882
0.000176989
0.000955943
0.000194964
0.000987706
0.000213255
0.00100881
0.000231703
0.00101506
0.000249901
0.00100093
0.00026737
0.000959377
0.000283562
0.000879627
0.000297205
0.000758947
0.00059319
0.000304636
-7.39243e-05
2.00918e-05
7.42854e-05
-7.35245e-05
2.17373e-05
-7.30947e-05
2.35201e-05
-7.26269e-05
2.54516e-05
-7.21254e-05
2.75438e-05
-7.15851e-05
2.98096e-05
-7.10081e-05
3.22627e-05
-7.03909e-05
3.49182e-05
-6.97326e-05
3.77856e-05
-6.90294e-05
4.0886e-05
-6.82791e-05
4.42441e-05
-6.7477e-05
4.78761e-05
-6.66179e-05
5.18046e-05
-6.56938e-05
5.60359e-05
-6.46955e-05
6.06074e-05
-6.362e-05
6.55816e-05
-6.24558e-05
7.09672e-05
-6.11918e-05
7.67457e-05
-5.98154e-05
8.30257e-05
-5.83267e-05
8.98612e-05
-5.67005e-05
9.72019e-05
-5.49346e-05
0.00010516
-5.30156e-05
0.000113843
-5.09251e-05
0.000123119
-4.86533e-05
0.000133276
-4.61877e-05
0.000144225
-4.35041e-05
0.000156065
-4.05957e-05
0.000168941
-3.74309e-05
0.000182788
-3.40025e-05
0.000197882
-3.02765e-05
0.000214108
-2.62347e-05
0.000231754
-2.18365e-05
0.000250774
-1.70604e-05
0.00027135
-1.18853e-05
0.000293616
-6.26824e-06
0.000317534
-1.84328e-07
0.000343435
6.41111e-06
0.00037127
1.35624e-05
0.000401148
2.13023e-05
0.000433255
2.96743e-05
0.000467581
3.87281e-05
0.000504118
4.85047e-05
0.000542937
5.90464e-05
0.000583953
7.03946e-05
0.000626996
8.25897e-05
0.000671802
9.56523e-05
0.00071797
0.000109608
0.000764905
0.00012443
0.000811783
0.000140099
0.000857481
0.000156535
0.000900502
0.000173584
0.000938902
0.000191206
0.000970129
0.000209156
0.000990904
0.000227274
0.000997005
0.000245176
0.000983044
0.000262392
0.000942214
0.000278286
0.000863749
0.000292224
0.000744898
0.000583869
0.000301427
-7.35425e-05
1.97365e-05
7.38907e-05
-7.3154e-05
2.13484e-05
-7.27315e-05
2.30952e-05
-7.22692e-05
2.49885e-05
-7.17678e-05
2.70408e-05
-7.12237e-05
2.9265e-05
-7.06372e-05
3.16753e-05
-7.00063e-05
3.42869e-05
-6.93293e-05
3.71083e-05
-6.86048e-05
4.01609e-05
-6.78298e-05
4.34696e-05
-6.70039e-05
4.70491e-05
-6.61196e-05
5.09214e-05
-6.51749e-05
5.50895e-05
-6.41572e-05
5.95911e-05
-6.30695e-05
6.44914e-05
-6.18963e-05
6.97954e-05
-6.06314e-05
7.54775e-05
-5.92586e-05
8.1654e-05
-5.77807e-05
8.83794e-05
-5.61701e-05
9.55922e-05
-5.44254e-05
0.000103411
-5.25318e-05
0.00011195
-5.04711e-05
0.000121054
-4.82326e-05
0.000131038
-4.58038e-05
0.000141794
-4.31607e-05
0.000153422
-4.0296e-05
0.000166075
-3.71794e-05
0.000179671
-3.3803e-05
0.000194504
-3.01347e-05
0.000210435
-2.61546e-05
0.000227772
-2.18267e-05
0.00024645
-1.71261e-05
0.00026666
-1.20353e-05
0.000288532
-6.51078e-06
0.000312013
-5.28397e-07
0.000337454
5.9566e-06
0.000364787
1.29887e-05
0.00039412
2.06001e-05
0.000425649
2.88339e-05
0.000459353
3.77386e-05
0.00049522
4.73545e-05
0.000533328
5.77225e-05
0.000573593
6.88823e-05
0.000615843
8.08717e-05
0.000659822
9.37092e-05
0.000705136
0.000107417
0.000751206
0.000121968
0.000797229
0.000137342
0.000842109
0.000153464
0.000884385
0.000170187
0.000922136
0.000187479
0.000952861
0.000205116
0.000973273
0.000222935
0.000979254
0.000240567
0.000965422
0.000257562
0.000925315
0.000273196
0.00084819
0.000287259
0.000730988
0.00057361
0.000297648
-7.30617e-05
1.93958e-05
7.33983e-05
-7.26876e-05
2.09751e-05
-7.22809e-05
2.26863e-05
-7.18337e-05
2.45411e-05
-7.13467e-05
2.65519e-05
-7.08149e-05
2.87322e-05
-7.02374e-05
3.10964e-05
-6.96116e-05
3.366e-05
-6.89352e-05
3.6431e-05
-6.82066e-05
3.94312e-05
-6.74237e-05
4.26861e-05
-6.65852e-05
4.62095e-05
-6.56875e-05
5.0023e-05
-6.47261e-05
5.41266e-05
-6.3694e-05
5.85584e-05
-6.25911e-05
6.33861e-05
-6.14075e-05
6.86111e-05
-6.01342e-05
7.42008e-05
-5.8759e-05
8.02784e-05
-5.72826e-05
8.6899e-05
-5.56798e-05
9.39894e-05
-5.39479e-05
0.000101675
-5.20727e-05
0.000110076
-5.00356e-05
0.000119013
-4.78257e-05
0.000128829
-4.54302e-05
0.000139396
-4.2825e-05
0.000150817
-4.00027e-05
0.000163252
-3.69328e-05
0.0001766
-3.36081e-05
0.000191177
-2.99959e-05
0.000206819
-2.60788e-05
0.000223852
-2.1818e-05
0.000242196
-1.71929e-05
0.000262043
-1.21841e-05
0.00028353
-6.74966e-06
0.000306581
-8.65756e-07
0.000331571
5.51206e-06
0.000358411
1.24278e-05
0.000387207
1.99132e-05
0.000418168
2.80102e-05
0.000451262
3.67663e-05
0.000486472
4.62206e-05
0.000523887
5.64125e-05
0.000563419
6.73798e-05
0.000604898
7.91582e-05
0.000648075
9.17646e-05
0.000692565
0.000105219
0.000737802
0.000119496
0.000783001
0.000134578
0.000827089
0.000150393
0.000868627
0.000166806
0.000905733
0.00018379
0.00093592
0.00020114
0.000955972
0.000218686
0.000961772
0.000236072
0.000948062
0.000252866
0.000908575
0.000268271
0.00083281
0.000282239
0.000716923
0.000562507
0.000293245
-7.24556e-05
1.90689e-05
7.27774e-05
-7.20982e-05
2.06177e-05
-7.17092e-05
2.22953e-05
-7.12813e-05
2.4113e-05
-7.08144e-05
2.60834e-05
-7.03022e-05
2.82199e-05
-6.97443e-05
3.05373e-05
-6.91357e-05
3.30511e-05
-6.84746e-05
3.57692e-05
-6.77578e-05
3.87137e-05
-6.6983e-05
4.1911e-05
-6.61492e-05
4.53745e-05
-6.52514e-05
4.91255e-05
-6.42883e-05
5.31615e-05
-6.32505e-05
5.75212e-05
-6.21423e-05
6.22751e-05
-6.09516e-05
6.74211e-05
-5.96738e-05
7.29196e-05
-5.82953e-05
7.89005e-05
-5.68197e-05
8.54194e-05
-5.52212e-05
9.23914e-05
-5.34986e-05
9.99486e-05
-5.16374e-05
0.000108215
-4.96195e-05
0.000116992
-4.74342e-05
0.000126644
-4.50682e-05
0.000137028
-4.24978e-05
0.000148247
-3.97151e-05
0.000160469
-3.66903e-05
0.000173575
-3.34154e-05
0.000187901
-2.98592e-05
0.000203258
-2.60022e-05
0.000219994
-2.18097e-05
0.000238007
-1.7258e-05
0.000257501
-1.23302e-05
0.000278609
-6.98444e-06
0.000301237
-1.19722e-06
0.000325785
5.07515e-06
0.00035214
1.18759e-05
0.000380409
1.92359e-05
0.000410812
2.71962e-05
0.000443307
3.5803e-05
0.000477871
4.5094e-05
0.000514602
5.51072e-05
0.000553412
6.58788e-05
0.000594132
7.74428e-05
0.000636518
8.98151e-05
0.000680194
0.000103015
0.000724608
0.00011702
0.000768991
0.000131815
0.000812293
0.000147335
0.000853105
0.000163454
0.000889562
0.000180153
0.000919228
0.000197237
0.000938888
0.000214533
0.000944524
0.000231687
0.000930911
0.000248294
0.00089205
0.000263488
0.000817687
0.000277199
0.000703342
0.000551437
0.000288386
-7.17355e-05
1.87542e-05
7.20477e-05
-7.13913e-05
2.02747e-05
-7.10188e-05
2.19209e-05
-7.06094e-05
2.37038e-05
-7.01635e-05
2.56357e-05
-6.96743e-05
2.77301e-05
-6.91401e-05
3.00016e-05
-6.8556e-05
3.2466e-05
-6.79186e-05
3.51305e-05
-6.72239e-05
3.80181e-05
-6.64694e-05
4.11555e-05
-6.56523e-05
4.45563e-05
-6.47693e-05
4.82415e-05
-6.38162e-05
5.22067e-05
-6.27872e-05
5.64913e-05
-6.16835e-05
6.11689e-05
-6.04972e-05
6.6234e-05
-5.92215e-05
7.16405e-05
-5.78465e-05
7.7525e-05
-5.63746e-05
8.39434e-05
-5.47826e-05
9.07994e-05
-5.30691e-05
9.82309e-05
-5.12209e-05
0.000106367
-4.92204e-05
0.000114987
-4.70571e-05
0.000124481
-4.47182e-05
0.000134686
-4.21799e-05
0.000145709
-3.94347e-05
0.000157722
-3.64526e-05
0.000170592
-3.32262e-05
0.000184672
-2.97234e-05
0.000199751
-2.59271e-05
0.000216195
-2.18e-05
0.000233886
-1.73218e-05
0.000253031
-1.24739e-05
0.000273767
-7.21571e-06
0.000295981
-1.52421e-06
0.000320094
4.64343e-06
0.000345974
1.13294e-05
0.000373725
1.85638e-05
0.000403581
2.63866e-05
0.00043549
3.48428e-05
0.000469423
4.3969e-05
0.000505487
5.38018e-05
0.000543595
6.43764e-05
0.000583578
7.57253e-05
0.000625198
8.78645e-05
0.000668088
0.000100814
0.000711705
0.000114553
0.000755298
0.000129072
0.000797834
0.000144311
0.000837919
0.000160155
0.000873728
0.000176585
0.000902837
0.000193423
0.000922101
0.000210484
0.000927524
0.000227419
0.000914004
0.00024384
0.000875682
0.000258836
0.00080272
0.000272207
0.000689885
0.00054026
0.0002833
-7.09275e-05
1.84489e-05
7.12278e-05
-7.05963e-05
1.99429e-05
-7.0237e-05
2.15599e-05
-6.98443e-05
2.33104e-05
-6.94161e-05
2.52065e-05
-6.89476e-05
2.72612e-05
-6.84358e-05
2.94891e-05
-6.78762e-05
3.19061e-05
-6.72644e-05
3.45184e-05
-6.65964e-05
3.73494e-05
-6.58678e-05
4.04269e-05
-6.50767e-05
4.37639e-05
-6.42165e-05
4.73817e-05
-6.32857e-05
5.12739e-05
-6.22747e-05
5.54809e-05
-6.11882e-05
6.00796e-05
-6.00151e-05
6.50616e-05
-5.87524e-05
7.03744e-05
-5.73881e-05
7.61613e-05
-5.59274e-05
8.24787e-05
-5.43467e-05
8.92192e-05
-5.26465e-05
9.65266e-05
-5.08136e-05
0.000104535
-4.88316e-05
0.000113002
-4.66904e-05
0.000122341
-4.43778e-05
0.000132371
-4.18706e-05
0.000143201
-3.91613e-05
0.000155012
-3.62206e-05
0.00016765
-3.30406e-05
0.000181491
-2.95908e-05
0.000196297
-2.58524e-05
0.000212455
-2.17912e-05
0.000229829
-1.73845e-05
0.000248634
-1.26159e-05
0.000269004
-7.44462e-06
0.000290812
-1.84818e-06
0.000314499
4.21514e-06
0.000339912
1.07864e-05
0.000367156
1.7895e-05
0.000396476
2.55799e-05
0.000427809
3.38852e-05
0.000461122
4.28463e-05
0.000496531
5.2499e-05
0.000533947
6.28775e-05
0.000573204
7.40138e-05
0.000614067
8.59241e-05
0.000656177
9.86293e-05
0.000699003
0.000112112
0.000741808
0.000126368
0.000783575
0.000141341
0.000822938
0.000156926
0.000858088
0.000173106
0.000886648
0.000189709
0.000905493
0.000206547
0.000910717
0.000223267
0.000897282
0.000239498
0.000859519
0.000254302
0.000787984
0.000267322
0.000676969
0.0005295
0.000278183
-7.00523e-05
1.81515e-05
7.03472e-05
-6.97294e-05
1.96206e-05
-6.9381e-05
2.121e-05
-6.90011e-05
2.29301e-05
-6.85884e-05
2.47925e-05
-6.81383e-05
2.68101e-05
-6.76472e-05
2.8997e-05
-6.71111e-05
3.13689e-05
-6.65245e-05
3.39312e-05
-6.58838e-05
3.67076e-05
-6.51836e-05
3.97264e-05
-6.4421e-05
4.30001e-05
-6.35901e-05
4.65504e-05
-6.26866e-05
5.03688e-05
-6.1703e-05
5.44969e-05
-6.06408e-05
5.90149e-05
-5.94914e-05
6.39118e-05
-5.82494e-05
6.9129e-05
-5.69052e-05
7.48168e-05
-5.54627e-05
8.10323e-05
-5.39003e-05
8.7657e-05
-5.22184e-05
9.48405e-05
-5.04051e-05
0.000102722
-4.84446e-05
0.000111038
-4.63276e-05
0.000120224
-4.40424e-05
0.000130084
-4.15666e-05
0.000140726
-3.88931e-05
0.000152338
-3.59931e-05
0.00016475
-3.28591e-05
0.000178355
-2.94605e-05
0.000192894
-2.57804e-05
0.000208773
-2.17827e-05
0.000225836
-1.74474e-05
0.000244307
-1.27569e-05
0.00026432
-7.67179e-06
0.000285728
-2.16983e-06
0.000308997
3.78954e-06
0.000333953
1.02462e-05
0.000360702
1.72292e-05
0.000389496
2.47765e-05
0.000420267
3.29313e-05
0.000452974
4.17284e-05
0.000487744
5.12028e-05
0.000524487
6.13884e-05
0.000563037
7.23169e-05
0.000603165
8.40054e-05
0.000644518
9.6476e-05
0.000686576
0.000109715
0.000728611
0.000123721
0.000769625
0.000138445
0.000808265
0.000153786
0.000842755
0.000169728
0.00087074
0.000186107
0.000889163
0.000202726
0.000894155
0.000219233
0.000880804
0.000235265
0.000843536
0.000249881
0.000773398
0.000262577
0.000664194
0.000518844
0.000273156
-6.91312e-05
1.78604e-05
6.94189e-05
-6.88166e-05
1.93056e-05
-6.84768e-05
2.08689e-05
-6.81073e-05
2.25603e-05
-6.77069e-05
2.43911e-05
-6.72707e-05
2.63739e-05
-6.67967e-05
2.85223e-05
-6.62797e-05
3.08517e-05
-6.57159e-05
3.33667e-05
-6.50999e-05
3.60909e-05
-6.44271e-05
3.90532e-05
-6.36939e-05
4.22655e-05
-6.2893e-05
4.57495e-05
-6.20211e-05
4.94947e-05
-6.10679e-05
5.3544e-05
-6.00367e-05
5.79807e-05
-5.89159e-05
6.27915e-05
-5.77025e-05
6.79121e-05
-5.63847e-05
7.34995e-05
-5.49681e-05
7.96117e-05
-5.34305e-05
8.61198e-05
-5.17733e-05
9.31793e-05
-4.99848e-05
0.000100934
-4.80503e-05
0.000109099
-4.5961e-05
0.000118135
-4.37059e-05
0.000127826
-4.12633e-05
0.000138283
-3.86265e-05
0.0001497
-3.57677e-05
0.00016189
-3.26795e-05
0.000175265
-2.93325e-05
0.000189543
-2.57088e-05
0.000205148
-2.17752e-05
0.000221906
-1.75099e-05
0.00024005
-1.2897e-05
0.000259713
-7.89717e-06
0.00028073
-2.48898e-06
0.000303589
3.36712e-06
0.000328098
9.71008e-06
0.000354361
1.65683e-05
0.000382641
2.39793e-05
0.000412859
3.19855e-05
0.000444972
4.06212e-05
0.000479112
4.99212e-05
0.000515191
5.99189e-05
0.000553042
7.06463e-05
0.000592441
8.21216e-05
0.000633041
9.43682e-05
0.000674331
0.000107376
0.000715596
0.000121146
0.00075585
0.000135634
0.000793768
0.000150743
0.000827588
0.000166458
0.000855006
0.000182618
0.000872994
0.00019902
0.000877771
0.000215311
0.000864508
0.000231133
0.000827772
0.000245559
0.000759036
0.000257978
0.000651861
0.000508634
0.000268276
-6.81767e-05
1.75753e-05
6.84606e-05
-6.78677e-05
1.89974e-05
-6.75354e-05
2.05355e-05
-6.71745e-05
2.21994e-05
-6.67846e-05
2.4e-05
-6.63612e-05
2.59496e-05
-6.59015e-05
2.80616e-05
-6.54019e-05
3.0351e-05
-6.48571e-05
3.28212e-05
-6.42634e-05
3.5496e-05
-6.3615e-05
3.84045e-05
-6.29087e-05
4.15579e-05
-6.21371e-05
4.49777e-05
-6.12956e-05
4.86515e-05
-6.0375e-05
5.26231e-05
-5.93759e-05
5.69792e-05
-5.82886e-05
6.1704e-05
-5.71074e-05
6.67276e-05
-5.5822e-05
7.22141e-05
-5.44364e-05
7.82222e-05
-5.29297e-05
8.46133e-05
-5.13027e-05
9.15484e-05
-4.95444e-05
9.91759e-05
-4.76406e-05
0.000107192
-4.5583e-05
0.000116078
-4.33613e-05
0.000125602
-4.09546e-05
0.000135877
-3.83567e-05
0.000147101
-3.55404e-05
0.000159073
-3.24991e-05
0.000172222
-2.92034e-05
0.000186244
-2.56373e-05
0.000201579
-2.17663e-05
0.00021804
-1.75711e-05
0.000235863
-1.30348e-05
0.000255182
-8.11954e-06
0.000275816
-2.80427e-06
0.000298274
2.9495e-06
0.000322345
9.17991e-06
0.000348132
1.59149e-05
0.000375909
2.31917e-05
0.000405587
3.10521e-05
0.000437117
3.95301e-05
0.000470643
4.86604e-05
0.000506073
5.84764e-05
0.000543243
6.90106e-05
0.000581931
8.02822e-05
0.000621797
9.23158e-05
0.000662337
0.000105104
0.000702847
0.000118652
0.000742356
0.000132915
0.000779551
0.000147803
0.000812707
0.000163297
0.000839542
0.000179242
0.000857098
0.000195425
0.00086164
0.000211495
0.000848466
0.000227095
0.000812216
0.000241329
0.000744833
0.000253512
0.00063961
0.000498523
0.000263547
-6.72007e-05
1.72952e-05
6.74777e-05
-6.68988e-05
1.86947e-05
-6.65726e-05
2.02084e-05
-6.62196e-05
2.18458e-05
-6.58376e-05
2.36176e-05
-6.54238e-05
2.55356e-05
-6.49756e-05
2.7613e-05
-6.44892e-05
2.98644e-05
-6.39605e-05
3.22923e-05
-6.33853e-05
3.49202e-05
-6.27585e-05
3.77775e-05
-6.20766e-05
4.08747e-05
-6.13318e-05
4.42329e-05
-6.05201e-05
4.78377e-05
-5.96304e-05
5.17338e-05
-5.86649e-05
5.60108e-05
-5.76112e-05
6.06507e-05
-5.64652e-05
6.55782e-05
-5.52148e-05
7.09641e-05
-5.38645e-05
7.68681e-05
-5.23927e-05
8.31419e-05
-5.08006e-05
8.99524e-05
-4.90771e-05
9.7453e-05
-4.72086e-05
0.00010532
-4.5187e-05
0.000114057
-4.30025e-05
0.000123415
-4.06348e-05
0.000133509
-3.80783e-05
0.000144544
-3.53067e-05
0.000156301
-3.23134e-05
0.000169228
-2.90706e-05
0.000182997
-2.55615e-05
0.000198069
-2.17543e-05
0.000214237
-1.76284e-05
0.000231745
-1.31684e-05
0.000250727
-8.33689e-06
0.000270986
-3.11354e-06
0.000293051
2.53923e-06
0.000316693
8.65887e-06
0.000342014
1.5273e-05
0.000369297
2.24185e-05
0.000398444
3.01369e-05
0.000429402
3.84619e-05
0.000462321
4.74282e-05
0.00049711
5.70695e-05
0.000533604
6.74185e-05
0.000571585
7.84956e-05
0.000610718
9.03265e-05
0.000650507
0.000102907
0.000690259
0.000116242
0.000729016
0.000130291
0.00076549
0.000144964
0.000797974
0.000160242
0.000824237
0.00017597
0.000841358
0.000191932
0.000845686
0.000207775
0.000832615
0.000223143
0.000796896
0.000237178
0.000730859
0.000249157
0.000627694
0.000488805
0.000258949
-6.62093e-05
1.70201e-05
6.64832e-05
-6.59118e-05
1.83975e-05
-6.55915e-05
1.98873e-05
-6.52451e-05
2.14989e-05
-6.48708e-05
2.32426e-05
-6.44664e-05
2.51301e-05
-6.40282e-05
2.71743e-05
-6.35544e-05
2.93894e-05
-6.30392e-05
3.17769e-05
-6.24806e-05
3.43603e-05
-6.1872e-05
3.7169e-05
-6.12113e-05
4.02126e-05
-6.04904e-05
4.35121e-05
-5.97051e-05
4.70507e-05
-5.8845e-05
5.08738e-05
-5.79107e-05
5.50741e-05
-5.6891e-05
5.9631e-05
-5.57799e-05
6.44639e-05
-5.4566e-05
6.97503e-05
-5.32527e-05
7.55511e-05
-5.18187e-05
8.17082e-05
-5.02646e-05
8.83946e-05
-4.85796e-05
9.57684e-05
-4.67499e-05
0.000103487
-4.47679e-05
0.000112076
-4.2624e-05
0.000121269
-4.02986e-05
0.000131184
-3.77863e-05
0.000142031
-3.50615e-05
0.000153575
-3.21184e-05
0.000166283
-2.89293e-05
0.000179804
-2.5479e-05
0.000194616
-2.17351e-05
0.000210498
-1.7679e-05
0.000227696
-1.32948e-05
0.000246348
-8.54631e-06
0.000266239
-3.41381e-06
0.000287918
2.13942e-06
0.00031114
8.15027e-06
0.000336004
1.46461e-05
0.000362803
2.16637e-05
0.00039143
2.92441e-05
0.000421827
3.74212e-05
0.000454152
4.62294e-05
0.000488314
5.57029e-05
0.000524146
6.58746e-05
0.000561435
7.6766e-05
0.000599851
8.84036e-05
0.000638906
0.000100785
0.000677915
0.000113916
0.000715935
0.000127757
0.000751691
0.000142221
0.000783514
0.000157284
0.0008092
0.000172794
0.000825893
0.00018853
0.000829997
0.00020414
0.00081703
0.000219268
0.000781807
0.000233097
0.000717059
0.000244889
0.000615842
0.000479159
0.000254455
-6.5211e-05
1.67495e-05
6.54796e-05
-6.49193e-05
1.81053e-05
-6.46042e-05
1.95718e-05
-6.42637e-05
2.11581e-05
-6.3896e-05
2.28745e-05
-6.34984e-05
2.47325e-05
-6.30691e-05
2.67445e-05
-6.26046e-05
2.89247e-05
-6.21016e-05
3.12735e-05
-6.15563e-05
3.38142e-05
-6.09641e-05
3.65764e-05
-6.0322e-05
3.9569e-05
-5.96222e-05
4.28123e-05
-5.88612e-05
4.62875e-05
-5.80275e-05
5.00404e-05
-5.7123e-05
5.41667e-05
-5.61347e-05
5.86431e-05
-5.5058e-05
6.33838e-05
-5.38798e-05
6.85727e-05
-5.26041e-05
7.42717e-05
-5.12088e-05
8.03135e-05
-4.96946e-05
8.68767e-05
-4.80502e-05
9.41246e-05
-4.62621e-05
0.000101696
-4.43225e-05
0.000110137
-4.22221e-05
0.000119167
-3.99418e-05
0.000128904
-3.74762e-05
0.000139565
-3.48008e-05
0.000150899
-3.19095e-05
0.00016339
-2.87761e-05
0.000176667
-2.53849e-05
0.000191224
-2.17057e-05
0.000206822
-1.77192e-05
0.000223717
-1.34107e-05
0.000242045
-8.74466e-06
0.000261574
-3.70189e-06
0.000282876
1.75348e-06
0.000305685
7.65788e-06
0.000330101
1.40385e-05
0.000356424
2.09318e-05
0.000384539
2.83787e-05
0.000414383
3.6413e-05
0.00044612
4.50691e-05
0.00047966
5.43814e-05
0.000514835
6.43832e-05
0.000551435
7.50965e-05
0.000589135
8.65484e-05
0.000627454
9.87379e-05
0.000665717
0.000111671
0.000702995
0.00012531
0.00073804
0.000139567
0.000769199
0.000154415
0.000794319
0.000169704
0.00081059
0.000185209
0.000814492
0.000200579
0.000801648
0.000215459
0.000766968
0.000229074
0.000703501
0.000240688
0.000604274
0.000469874
0.000250036
-6.42092e-05
1.64837e-05
6.44746e-05
-6.39216e-05
1.78182e-05
-6.36121e-05
1.92616e-05
-6.32775e-05
2.08231e-05
-6.29163e-05
2.25127e-05
-6.25267e-05
2.43417e-05
-6.21051e-05
2.63225e-05
-6.16506e-05
2.84688e-05
-6.11573e-05
3.07801e-05
-6.06245e-05
3.32798e-05
-6.00453e-05
3.59976e-05
-5.94193e-05
3.89413e-05
-5.87374e-05
4.2131e-05
-5.79973e-05
4.55454e-05
-5.71873e-05
4.9231e-05
-5.63093e-05
5.32861e-05
-5.53504e-05
5.76848e-05
-5.43057e-05
6.23359e-05
-5.31622e-05
6.74297e-05
-5.19231e-05
7.3029e-05
-5.05665e-05
7.89575e-05
-4.90926e-05
8.53992e-05
-4.74898e-05
9.25225e-05
-4.57447e-05
9.99478e-05
-4.38495e-05
0.000108242
-4.17947e-05
0.00011711
-3.95616e-05
0.000126671
-3.7145e-05
0.000137147
-3.45207e-05
0.000148274
-3.16834e-05
0.000160552
-2.86066e-05
0.000173587
-2.52764e-05
0.000187892
-2.16621e-05
0.000203212
-1.77458e-05
0.000219808
-1.35128e-05
0.000237816
-8.92855e-06
0.000256991
-3.97444e-06
0.000277921
1.38471e-06
0.000300326
7.18491e-06
0.000324301
1.34532e-05
0.000350158
2.02258e-05
0.00037777
2.75435e-05
0.00040707
3.54398e-05
0.000438231
4.39492e-05
0.000471161
5.31063e-05
0.000505692
6.29444e-05
0.000541617
7.34862e-05
0.000578615
8.47587e-05
0.000616214
9.67621e-05
0.000653748
0.000109503
0.000690302
0.000122942
0.00072464
0.000136992
0.000755151