/*--------------------------------*- C++ -*----------------------------------*\
  =========                 |
  \\      /  F ield         | OpenFOAM: The Open Source CFD Toolbox
   \\    /   O peration     | Website:  https://openfoam.org
    \\  /    A nd           | Version:  6.0
     \\/     M anipulation  |
\*---------------------------------------------------------------------------*/
FoamFile
{
    version     2.0;
    format      ascii;
    class       surfaceScalarField;
    location    "14";
    object      phi;
}
// * * * * * * * * * * * * * * * * * * * * * * * * * * * * * * * * * * * * * //

dimensions      [0 3 -1 0 0 0 0];

internalField   nonuniform List<scalar> 
123526
(
8.16458e-05
2.26062e-05
-8.12602e-05
8.20621e-05
2.44338e-05
8.251e-05
2.64082e-05
8.29942e-05
2.8541e-05
8.35161e-05
3.0845e-05
8.40801e-05
3.33335e-05
8.46891e-05
3.60209e-05
8.5348e-05
3.89226e-05
8.6061e-05
4.20547e-05
8.68338e-05
4.54366e-05
8.76686e-05
4.9088e-05
8.85733e-05
5.30291e-05
8.95505e-05
5.72822e-05
9.06119e-05
6.18692e-05
9.17612e-05
6.68168e-05
9.30065e-05
7.2156e-05
9.43525e-05
7.79131e-05
9.58152e-05
8.41139e-05
9.74001e-05
9.07989e-05
9.91146e-05
9.80036e-05
0.000100975
0.000105757
0.000102992
0.000114103
0.000105173
0.000123089
0.00010754
0.000132741
0.000110102
0.000143123
0.000112873
0.000154268
0.000115875
0.000166227
0.000119117
0.000179051
0.000122625
0.00019278
0.000126411
0.000207472
0.000130499
0.000223161
0.000134909
0.000239899
0.000139661
0.000257713
0.00014478
0.000276638
0.000150284
0.000296691
0.000156199
0.000317872
0.000162544
0.000340173
0.000169343
0.000363549
0.000176617
0.000387929
0.000184384
0.000413202
0.000192658
0.000439202
0.000201451
0.000465701
0.000210766
0.000492386
0.0002206
0.000518842
0.00023094
0.000544527
0.000241759
0.000568741
0.000253013
0.000590587
0.000264639
0.000608932
0.000276544
0.000622361
0.000288609
0.000629117
0.000300663
0.000627066
0.000312494
0.000613618
0.000323816
0.000585724
0.000334283
0.00053977
0.00034345
0.000471707
0.00035076
0.000377054
0.000355695
0.000252004
0.000356492
9.48095e-05
0.000363653
-0.000127211
-0.000408334
0.000400022
8.05095e-05
2.22288e-05
-8.01327e-05
8.09176e-05
2.40263e-05
8.13575e-05
2.59679e-05
8.18334e-05
2.80653e-05
8.23475e-05
3.03308e-05
8.29037e-05
3.27775e-05
8.3505e-05
3.54196e-05
8.4156e-05
3.82722e-05
8.48606e-05
4.13502e-05
8.56237e-05
4.46745e-05
8.64475e-05
4.82643e-05
8.73393e-05
5.21386e-05
8.83018e-05
5.63194e-05
8.93464e-05
6.0826e-05
9.04768e-05
6.5686e-05
9.17011e-05
7.09329e-05
9.30235e-05
7.659e-05
9.44607e-05
8.26775e-05
9.60169e-05
8.92419e-05
9.77013e-05
9.63195e-05
9.95282e-05
0.000103929
0.000101509
0.000112122
0.000103651
0.000120947
0.000105977
0.000130415
0.000108492
0.000140608
0.000111215
0.000151546
0.000114162
0.00016328
0.000117346
0.000175867
0.000120791
0.000189337
0.000124509
0.000203756
0.000128524
0.000219147
0.000132853
0.000235571
0.000137519
0.000253049
0.000142543
0.000271617
0.000147944
0.000291292
0.000153748
0.000312071
0.000159974
0.00033395
0.000166644
0.000356881
0.000173779
0.000380796
0.000181396
0.000405588
0.000189509
0.000431093
0.000198129
0.000457086
0.000207259
0.000483261
0.000216897
0.00050921
0.000227029
0.000534401
0.000237631
0.000558146
0.000248658
0.000579565
0.000260053
0.000597545
0.000271723
0.000610695
0.000283552
0.000617295
0.00029537
0.000615245
0.000306969
0.000602012
0.00031806
0.000574601
0.000328297
0.000529481
0.000337244
0.000462679
0.000344337
0.000369845
0.000348825
0.000247314
0.000350476
9.28176e-05
0.000347969
-0.000125072
-0.000399367
0.000338727
7.92868e-05
2.18617e-05
-7.892e-05
7.96832e-05
2.36302e-05
8.01109e-05
2.55399e-05
8.05739e-05
2.76023e-05
8.10751e-05
2.98295e-05
8.16182e-05
3.22343e-05
8.22073e-05
3.48306e-05
8.28465e-05
3.76331e-05
8.35405e-05
4.06563e-05
8.42937e-05
4.39219e-05
8.51084e-05
4.74494e-05
8.59913e-05
5.12568e-05
8.69447e-05
5.53654e-05
8.79797e-05
5.97923e-05
8.90989e-05
6.45657e-05
9.03109e-05
6.97218e-05
9.16187e-05
7.52809e-05
9.30391e-05
8.12574e-05
9.45754e-05
8.77042e-05
9.62373e-05
9.46574e-05
9.8038e-05
0.000102127
9.99898e-05
0.00011017
0.000102099
0.000118837
0.000104387
0.000128126
0.000106862
0.000138133
0.000109539
0.000148867
0.000112436
0.000160382
0.000115566
0.000172737
0.000118951
0.000185951
0.000122603
0.000200103
0.000126547
0.000215203
0.000130798
0.00023132
0.000135379
0.000248468
0.000140311
0.000266685
0.000145612
0.00028599
0.000151307
0.000306374
0.000157415
0.00032784
0.000163957
0.000350338
0.000170954
0.000373799
0.000178421
0.000398121
0.000186373
0.000423141
0.00019482
0.000448639
0.000203767
0.000474315
0.000213209
0.000499769
0.000223136
0.000524476
0.000233523
0.000547761
0.000244329
0.00056876
0.000255495
0.000586381
0.000266932
0.000599259
0.000278525
0.000605705
0.000290105
0.000603663
0.000301466
0.000590648
0.00031232
0.000563725
0.000322327
0.000519441
0.000331062
0.000453893
0.000337987
0.000362865
0.000342482
0.00024274
0.000343841
9.13872e-05
0.000342977
-0.000124258
-0.000402639
0.000346237
7.80321e-05
2.15074e-05
-7.76785e-05
7.84154e-05
2.3247e-05
7.88307e-05
2.51243e-05
7.92816e-05
2.71512e-05
7.97711e-05
2.93399e-05
8.03024e-05
3.17029e-05
8.08798e-05
3.42533e-05
8.15073e-05
3.70058e-05
8.21902e-05
3.99737e-05
8.29327e-05
4.31801e-05
8.37378e-05
4.66446e-05
8.46115e-05
5.03841e-05
8.5557e-05
5.442e-05
8.65839e-05
5.87667e-05
8.76957e-05
6.34535e-05
8.88994e-05
6.85192e-05
9.01983e-05
7.39812e-05
9.16077e-05
7.98485e-05
9.31309e-05
8.61799e-05
9.47764e-05
9.30117e-05
9.65572e-05
0.000100345
9.84848e-05
0.000108242
0.000100565
0.000116755
0.000102821
0.000125869
0.000105257
0.000135696
0.000107891
0.000146232
0.00011074
0.000157532
0.000113816
0.00016966
0.000117141
0.000182625
0.000120728
0.000196515
0.0001246
0.00021133
0.000128773
0.000227146
0.000133268
0.000243971
0.000138107
0.000261846
0.000143307
0.000280788
0.000148894
0.000300785
0.000154884
0.000321847
0.000161299
0.000343919
0.000168158
0.000366937
0.000175477
0.000390799
0.000183271
0.000415345
0.000191548
0.000440358
0.000200315
0.000465546
0.000209568
0.000490512
0.000219296
0.000514744
0.000229478
0.000537576
0.000240071
0.000558161
0.000251021
0.000575426
0.000262237
0.000588033
0.000273607
0.000594326
0.000284963
0.000592287
0.000296104
0.000579481
0.000306745
0.000553027
0.000316557
0.000509546
0.00032513
0.000445201
0.000331977
0.000355856
0.000336481
0.000237982
0.000338085
8.93665e-05
0.000337068
-0.000123669
-0.000398601
0.00033271
7.67584e-05
2.11611e-05
-7.64124e-05
7.71349e-05
2.28703e-05
7.7545e-05
2.4714e-05
7.79907e-05
2.6705e-05
7.84751e-05
2.88555e-05
7.90002e-05
3.11773e-05
7.95704e-05
3.36833e-05
8.01889e-05
3.63872e-05
8.08613e-05
3.93013e-05
8.15919e-05
4.24499e-05
8.23841e-05
4.58523e-05
8.32442e-05
4.95248e-05
8.41757e-05
5.34881e-05
8.51887e-05
5.77546e-05
8.6287e-05
6.23544e-05
8.74775e-05
6.73293e-05
8.87639e-05
7.26938e-05
9.01608e-05
7.84517e-05
9.16711e-05
8.46683e-05
9.33025e-05
9.138e-05
9.5067e-05
9.85796e-05
9.69754e-05
0.000106332
9.90326e-05
0.000114697
0.00010126
0.00012364
0.000103664
0.000133291
0.00010626
0.000143635
0.000109064
0.000154726
0.00011209
0.000166632
0.000115358
0.000179355
0.000118882
0.00019299
0.000122684
0.000207526
0.00012678
0.000223049
0.000131192
0.000239558
0.000135939
0.000257097
0.00014104
0.000275684
0.000146518
0.000295303
0.000152392
0.00031597
0.000158681
0.000337626
0.000165406
0.000360209
0.000172581
0.000383621
0.000180221
0.000407702
0.000188335
0.000432241
0.00019693
0.000456949
0.000206002
0.000481437
0.000215542
0.000505201
0.000225528
0.000527589
0.000235921
0.000547766
0.000246665
0.000564683
0.000257672
0.000577024
0.000268831
0.000583169
0.000279977
0.000581139
0.000290912
0.000568545
0.000301356
0.000542566
0.00031099
0.000499887
0.000319418
0.000436734
0.000326184
0.000349054
0.000330635
0.00023348
0.000331984
8.79946e-05
0.000331308
-0.000122994
-0.000394423
0.000327158
7.56251e-05
2.08121e-05
-7.52765e-05
7.60051e-05
2.24901e-05
7.64183e-05
2.43008e-05
7.6866e-05
2.62569e-05
7.73511e-05
2.83705e-05
7.78747e-05
3.06533e-05
7.84408e-05
3.31173e-05
7.9052e-05
3.57759e-05
7.97138e-05
3.86399e-05
8.04297e-05
4.17345e-05
8.12038e-05
4.50786e-05
8.20419e-05
4.86876e-05
8.29485e-05
5.25816e-05
8.39334e-05
5.67708e-05
8.50019e-05
6.12858e-05
8.6161e-05
6.61711e-05
8.74159e-05
7.14384e-05
8.87812e-05
7.70867e-05
9.02611e-05
8.31876e-05
9.18627e-05
8.97781e-05
9.35984e-05
9.68429e-05
9.54776e-05
0.000104452
9.75053e-05
0.000112668
9.97013e-05
0.000121443
0.00010207
0.000130921
0.000104628
0.000141075
0.000107389
0.000151963
0.000110367
0.000163653
0.000113582
0.000176138
0.000117045
0.000189525
0.000120781
0.000203789
0.000124803
0.000219025
0.000129134
0.000235225
0.000133793
0.000252436
0.000138797
0.000270677
0.000144172
0.000289926
0.000149933
0.000310205
0.000156102
0.000331453
0.000162697
0.00035361
0.000169734
0.00037658
0.000177227
0.000400205
0.000185185
0.000424277
0.000193615
0.000448513
0.000202516
0.000472531
0.000211876
0.000495835
0.000221675
0.000517783
0.000231874
0.000537558
0.00024242
0.000554129
0.000253223
0.000566207
0.000264177
0.000572203
0.000275115
0.000570176
0.000285847
0.000557785
0.000296096
0.000532257
0.00030555
0.000490345
0.000313823
0.000428338
0.000320476
0.000342233
0.000324849
0.000228852
0.000326094
8.63247e-05
0.000325524
-0.000122848
-0.000390198
0.000320976
7.47457e-05
2.04555e-05
-7.43894e-05
7.5132e-05
2.21034e-05
7.55498e-05
2.38829e-05
7.59998e-05
2.58062e-05
7.64853e-05
2.78851e-05
7.7007e-05
3.0131e-05
7.75691e-05
3.25556e-05
7.8173e-05
3.51717e-05
7.88244e-05
3.79889e-05
7.95257e-05
4.10333e-05
8.0281e-05
4.43236e-05
8.10953e-05
4.78738e-05
8.19732e-05
5.17037e-05
8.29238e-05
5.58209e-05
8.3953e-05
6.02563e-05
8.50678e-05
6.50567e-05
8.62747e-05
7.02308e-05
8.7589e-05
7.57725e-05
8.90165e-05
8.17592e-05
9.05655e-05
8.82287e-05
9.22492e-05
9.51581e-05
9.40777e-05
0.000102623
9.60559e-05
0.000110689
9.82034e-05
0.000119295
0.000100524
0.000128599
0.000103033
0.000138566
0.000105743
0.000149251
0.000108668
0.000160728
0.000111825
0.00017298
0.000115227
0.000186121
0.000118895
0.000200119
0.000122845
0.000215073
0.000127097
0.000230972
0.000131669
0.000247861
0.000136581
0.000265762
0.000141855
0.000284649
0.000147508
0.000304549
0.000153561
0.000325397
0.000160032
0.000347135
0.000166936
0.000369672
0.000174288
0.000392849
0.000182098
0.000416464
0.000190371
0.000440238
0.000199106
0.000463794
0.000208293
0.000486645
0.000217911
0.000508163
0.000227922
0.000527545
0.000238273
0.00054378
0.000248876
0.000555604
0.000259624
0.00056146
0.000270355
0.000559446
0.000280882
0.000547265
0.000290933
0.000522202
0.000300202
0.000481065
0.000308314
0.000420208
0.000314843
0.000335691
0.000319163
0.000224518
0.0003204
8.51205e-05
0.000319896
-0.000122288
-0.000385719
0.000315488
7.40864e-05
2.00959e-05
-7.37268e-05
7.44734e-05
2.1716e-05
7.48895e-05
2.34669e-05
7.53357e-05
2.53594e-05
7.58159e-05
2.74053e-05
7.63307e-05
2.96155e-05
7.68848e-05
3.20019e-05
7.74793e-05
3.45768e-05
7.81198e-05
3.7349e-05
7.8808e-05
4.03454e-05
7.95478e-05
4.35844e-05
8.03432e-05
4.70791e-05
8.11986e-05
5.08489e-05
8.21215e-05
5.48989e-05
8.31176e-05
5.92605e-05
8.41926e-05
6.39824e-05
8.53534e-05
6.90699e-05
8.66147e-05
7.45113e-05
8.79838e-05
8.03896e-05
8.94696e-05
8.67425e-05
9.10875e-05
9.35395e-05
9.28483e-05
0.000100862
9.47589e-05
0.000108777
9.68391e-05
0.000117213
9.90934e-05
0.000126344
0.000101537
0.000136121
0.000104183
0.000146604
0.000107041
0.000157868
0.000110132
0.000169888
0.000113465
0.000182786
0.000117061
0.000196521
0.000120934
0.000211199
0.000125105
0.000226799
0.000129591
0.000243374
0.000134411
0.00026094
0.000139585
0.000279471
0.000145132
0.000298998
0.000151072
0.000319454
0.000157422
0.000340781
0.000164198
0.000362891
0.000171414
0.000385629
0.00017908
0.000408793
0.000187201
0.000432111
0.000195776
0.000455212
0.000204795
0.000477619
0.000214237
0.000498713
0.000224065
0.000517708
0.000234224
0.000533611
0.000244629
0.000545185
0.000255174
0.000550901
0.000265699
0.000548896
0.000276021
0.000536914
0.000285875
0.000512291
0.00029496
0.000471893
0.000302912
0.000412136
0.000309317
0.000329121
0.000313589
0.000219996
0.000314914
8.33784e-05
0.000314425
-0.000122209
-0.000381727
0.000310119
7.35375e-05
1.97412e-05
-7.31832e-05
7.39168e-05
2.13361e-05
7.43238e-05
2.30598e-05
7.47593e-05
2.4923e-05
7.52282e-05
2.69367e-05
7.57308e-05
2.9112e-05
7.62726e-05
3.14605e-05
7.68545e-05
3.39944e-05
7.74825e-05
3.67215e-05
7.81577e-05
3.96701e-05
7.88842e-05
4.28583e-05
7.96652e-05
4.62984e-05
8.0505e-05
5.00094e-05
8.14099e-05
5.39944e-05
8.23849e-05
5.82855e-05
8.34341e-05
6.29334e-05
8.45634e-05
6.79402e-05
8.57859e-05
7.32886e-05
8.71086e-05
7.90663e-05
8.85403e-05
8.53103e-05
9.00969e-05
9.19822e-05
9.17904e-05
9.91672e-05
9.36294e-05
0.000106937
9.56349e-05
0.000115207
9.7813e-05
0.000124165
0.000100179
0.000133754
0.000102748
0.000144034
0.00010553
0.000155085
0.000108543
0.000166873
0.000111797
0.000179531
0.000115313
0.000193003
0.000119103
0.000207406
0.000123189
0.000222713
0.000127585
0.000238975
0.00013231
0.000256213
0.000137385
0.000274393
0.000142826
0.000293554
0.000148654
0.000313623
0.000154885
0.000334547
0.000161535
0.000356238
0.000168618
0.000378543
0.000176143
0.000401265
0.000184116
0.000424136
0.000192535
0.000446791
0.00020139
0.000468762
0.00021066
0.000489443
0.000220307
0.00050806
0.000230278
0.000523643
0.000240488
0.000534977
0.000250833
0.000540564
0.000261155
0.000538578
0.000271277
0.000526807
0.000280936
0.000502638
0.000289843
0.00046299
0.000297639
0.000404341
0.000303921
0.000322851
0.000308136
0.000215805
0.000309597
8.20099e-05
0.000309091
-0.000121589
-0.000377323
0.000304803
7.29965e-05
1.93981e-05
-7.26532e-05
7.33629e-05
2.0969e-05
7.37563e-05
2.26666e-05
7.41776e-05
2.45009e-05
7.4632e-05
2.64828e-05
7.51197e-05
2.86234e-05
7.56467e-05
3.0934e-05
7.62139e-05
3.34266e-05
7.68278e-05
3.61084e-05
7.74892e-05
3.90087e-05
7.82027e-05
4.21456e-05
7.8971e-05
4.55306e-05
7.97987e-05
4.91825e-05
8.06913e-05
5.31025e-05
8.16537e-05
5.73236e-05
8.26886e-05
6.18991e-05
8.38009e-05
6.6828e-05
8.50017e-05
7.20879e-05
8.62967e-05
7.7771e-05
8.76928e-05
8.39138e-05
8.92056e-05
9.04688e-05
9.08465e-05
9.75254e-05
9.26251e-05
0.000105158
9.45629e-05
0.000113268
9.6668e-05
0.000122059
9.8957e-05
0.000131463
0.000101446
0.000141545
0.000104145
0.000152384
0.000107074
0.000163943
0.000110244
0.00017636
0.000113673
0.000189572
0.000117375
0.000203703
0.000121369
0.000218717
0.000125672
0.000234672
0.000130299
0.000251584
0.000135272
0.000269418
0.000140607
0.000288216
0.000146322
0.000307905
0.000152434
0.00032843
0.00015896
0.000349708
0.000165911
0.000371587
0.000173297
0.000393873
0.000181124
0.000416303
0.00018939
0.000438519
0.000198083
0.000460061
0.000207184
0.000480334
0.000216653
0.00049858
0.00022644
0.000513847
0.000236458
0.000524944
0.000246606
0.000530402
0.000256729
0.00052843
0.000266655
0.000516857
0.000276125
0.000493116
0.000284857
0.00045418
0.000292502
0.000396585
0.000298662
0.000316538
0.000302815
0.000211421
0.000304406
8.00274e-05
0.000303862
-0.000121424
-0.000373275
0.000299519
7.2401e-05
1.90685e-05
-7.20714e-05
7.27532e-05
2.06161e-05
7.31325e-05
2.22875e-05
7.35393e-05
2.4093e-05
7.39792e-05
2.60434e-05
7.44523e-05
2.81493e-05
7.49647e-05
3.04221e-05
7.55172e-05
3.28734e-05
7.61168e-05
3.55096e-05
7.67639e-05
3.83613e-05
7.74639e-05
4.14463e-05
7.8219e-05
4.47755e-05
7.90345e-05
4.83675e-05
7.99156e-05
5.22217e-05
8.08676e-05
5.63718e-05
8.18926e-05
6.08741e-05
8.29953e-05
6.57252e-05
8.41852e-05
7.08978e-05
8.54666e-05
7.64892e-05
8.68444e-05
8.25354e-05
8.83323e-05
8.89803e-05
8.99404e-05
9.59166e-05
9.16773e-05
0.00010342
9.35643e-05
0.00011138
9.56101e-05
0.000120013
9.78323e-05
0.00012924
0.000100248
0.000139128
0.000102869
0.000149762
0.000105716
0.000161095
0.0001088
0.000173275
0.000112141
0.00018623
0.000115752
0.00020009
0.000119653
0.000214815
0.000123859
0.000230464
0.000128387
0.000247054
0.000133256
0.000264546
0.000138482
0.000282987
0.000144084
0.0003023
0.000150078
0.000322433
0.000156478
0.000343304
0.000163299
0.000364763
0.000170548
0.000386621
0.00017823
0.000408619
0.000186343
0.000430404
0.000194876
0.000451526
0.000203809
0.000471401
0.000213104
0.000489287
0.000222707
0.000504248
0.000232536
0.000515118
0.000242491
0.000520458
0.000252419
0.00051851
0.000262152
0.000507146
0.000271439
0.000483845
0.000280001
0.000445633
0.000287499
0.000389106
0.00029354
0.000310531
0.000297631
0.000207387
0.00029932
7.84789e-05
0.000298726
-0.000120669
-0.000368683
0.000294286
7.17276e-05
1.87519e-05
-7.14105e-05
7.20668e-05
2.02762e-05
7.24333e-05
2.19214e-05
7.28272e-05
2.36981e-05
7.32543e-05
2.56169e-05
7.37141e-05
2.76885e-05
7.42133e-05
2.99236e-05
7.47521e-05
3.23338e-05
7.5338e-05
3.49247e-05
7.59714e-05
3.77278e-05
7.66577e-05
4.0761e-05
7.73993e-05
4.40343e-05
7.82018e-05
4.7566e-05
7.90704e-05
5.13537e-05
8.00109e-05
5.54321e-05
8.10255e-05
5.98599e-05
8.21194e-05
6.46317e-05
8.3301e-05
6.9716e-05
8.45746e-05
7.52156e-05
8.59432e-05
8.11663e-05
8.7419e-05
8.75041e-05
8.90097e-05
9.43251e-05
9.07226e-05
0.000101707
9.25772e-05
0.000109524
9.45816e-05
0.000118008
9.67532e-05
0.000127068
9.91094e-05
0.000136771
0.000101664
0.000147207
0.000104437
0.00015832
0.000107442
0.000170269
0.000110698
0.000182972
0.000114221
0.000196566
0.000118029
0.000211006
0.00012214
0.000226353
0.000126568
0.000242625
0.000131333
0.000259779
0.00013645
0.000277866
0.000141939
0.000296808
0.000147814
0.000316554
0.000154091
0.000337024
0.00016078
0.000358069
0.000167892
0.000379505
0.00017543
0.000401075
0.000183392
0.000422436
0.000191766
0.000443144
0.000200533
0.000462627
0.000209653
0.000480156
0.000219075
0.000494815
0.000228718
0.000505461
0.000238482
0.00051068
0.000248218
0.00050875
0.000257763
0.000497579
0.000266869
0.000474691
0.000275266
0.000437163
0.00028262
0.000381648
0.000288547
0.000304458
0.000292578
0.000203137
0.000294321
7.63637e-05
0.000293671
-0.000120375
-0.000364417
0.000289125
7.09752e-05
1.84459e-05
-7.06694e-05
7.13035e-05
1.99466e-05
7.16596e-05
2.15655e-05
7.20428e-05
2.33135e-05
7.24592e-05
2.5201e-05
7.29079e-05
2.72384e-05
7.33957e-05
2.94363e-05
7.39226e-05
3.18059e-05
7.44962e-05
3.43519e-05
7.51165e-05
3.71069e-05
7.57896e-05
4.00887e-05
7.65174e-05
4.33064e-05
7.73061e-05
4.6778e-05
7.81606e-05
5.04992e-05
7.90876e-05
5.45055e-05
8.00892e-05
5.88581e-05
8.11714e-05
6.35495e-05
8.23428e-05
6.85442e-05
8.36077e-05
7.39505e-05
8.49687e-05
7.98046e-05
8.64369e-05
8.60355e-05
8.80181e-05
9.27429e-05
8.97182e-05
0.000100006
9.15542e-05
0.000107688
9.35329e-05
0.000116028
9.56704e-05
0.000124929
9.79835e-05
0.000134458
0.000100486
0.000144703
0.000103198
0.000155607
0.000106134
0.000167331
0.000109316
0.000179789
0.000112757
0.000193123
0.000116479
0.000207284
0.000120496
0.000222334
0.000124827
0.000238292
0.00012949
0.000255113
0.000134501
0.000272853
0.000139877
0.000291429
0.000145635
0.000310793
0.000151788
0.000330868
0.000158348
0.000351507
0.000165323
0.000372527
0.000172717
0.000393679
0.000180529
0.000414624
0.000188745
0.000434927
0.000197346
0.000454027
0.000206293
0.000471211
0.000215537
0.000485578
0.000224994
0.000496009
0.00023457
0.000501118
0.000244117
0.000499215
0.000253477
0.000488247
0.000262407
0.000465785
0.000270642
0.000428954
0.000277856
0.000374466
0.000283675
0.000298692
0.000287647
0.000199248
0.000289406
7.479e-05
0.000288698
-0.000119466
-0.000359589
0.000284054
7.01554e-05
1.81485e-05
-6.98577e-05
7.04755e-05
1.96254e-05
7.08232e-05
2.12182e-05
7.11977e-05
2.29377e-05
7.16051e-05
2.47943e-05
7.20443e-05
2.6798e-05
7.25221e-05
2.89592e-05
7.30382e-05
3.12888e-05
7.36006e-05
3.37906e-05
7.42088e-05
3.64983e-05
7.48693e-05
3.94294e-05
7.55836e-05
4.25922e-05
7.63583e-05
4.60045e-05
7.7198e-05
4.96599e-05
7.81099e-05
5.35945e-05
7.90962e-05
5.7872e-05
8.01637e-05
6.24826e-05
8.1321e-05
6.73867e-05
8.25734e-05
7.26982e-05
8.39234e-05
7.8454e-05
8.53822e-05
8.45765e-05
8.69547e-05
9.11695e-05
8.86455e-05
9.83151e-05
9.04698e-05
0.000105862
9.24326e-05
0.000114065
9.45481e-05
0.000122813
9.68316e-05
0.000132173
9.92958e-05
0.000142238
0.000101961
0.00015294
0.000104842
0.00016445
0.000107959
0.00017667
0.000111329
0.000189752
0.000114971
0.00020364
0.000118904
0.000218401
0.000123143
0.000234052
0.000127709
0.000250546
0.000132616
0.000267943
0.000137883
0.000286159
0.000143526
0.000305148
0.000149557
0.000324833
0.000155989
0.00034507
0.000162829
0.000365682
0.000170082
0.000386421
0.000177743
0.000406956
0.000185803
0.00042686
0.00019424
0.000445583
0.000203016
0.000462425
0.000212081
0.000476503
0.000221356
0.000486719
0.000230747
0.000491715
0.000240107
0.00048983
0.000249286
0.00047905
0.000258043
0.000456986
0.000266119
0.000420811
0.000273199
0.000367293
0.000278912
0.000292846
0.000282824
0.000195136
0.000284567
7.27024e-05
0.000283803
-0.000119026
-0.000355124
0.000279078
6.9282e-05
1.78575e-05
-6.8991e-05
6.95953e-05
1.93108e-05
6.99363e-05
2.08776e-05
7.03035e-05
2.2569e-05
7.07033e-05
2.43951e-05
7.11342e-05
2.63657e-05
7.16033e-05
2.84909e-05
7.21097e-05
3.07812e-05
7.26617e-05
3.32396e-05
7.32585e-05
3.59007e-05
7.39068e-05
3.8782e-05
7.46078e-05
4.18909e-05
7.53685e-05
4.52447e-05
7.6193e-05
4.88353e-05
7.70889e-05
5.26992e-05
7.80584e-05
5.69024e-05
7.91087e-05
6.14325e-05
8.02487e-05
6.62461e-05
8.14846e-05
7.14623e-05
8.28191e-05
7.71186e-05
8.42642e-05
8.31312e-05
8.58244e-05
8.96084e-05
8.75042e-05
9.66349e-05
8.93174e-05
0.000104048
9.12677e-05
0.000112114
9.33673e-05
0.000120712
9.563e-05
0.00012991
9.80667e-05
0.000139801
0.000100697
0.000150309
0.000103534
0.000161612
0.000106599
0.000173604
0.000109908
0.000186442
0.000113482
0.000200067
0.000117337
0.000214545
0.000121492
0.000229896
0.000125966
0.00024607
0.000130776
0.000263131
0.000135938
0.000280994
0.000141469
0.000299614
0.000147382
0.000318918
0.000153688
0.000338761
0.000160396
0.000358972
0.000167509
0.000379307
0.000175023
0.000399441
0.000182928
0.000418955
0.000191202
0.000437311
0.000199809
0.000453821
0.000208699
0.00046762
0.000217793
0.000477632
0.000227001
0.000482523
0.000236179
0.000480666
0.00024518
0.000470083
0.000253768
0.000448428
0.00026169
0.000412923
0.000268636
0.000360391
0.000274248
0.000287302
0.000278099
0.000191392
0.000279809
7.12117e-05
0.000278988
-0.00011797
-0.000350127
0.000274199
6.83687e-05
1.75722e-05
-6.80826e-05
6.86764e-05
1.90019e-05
6.90114e-05
2.05433e-05
6.9372e-05
2.2207e-05
6.97648e-05
2.40031e-05
7.01878e-05
2.59412e-05
7.06485e-05
2.8031e-05
7.11458e-05
3.02828e-05
7.16879e-05
3.26987e-05
7.22739e-05
3.53143e-05
7.29105e-05
3.81467e-05
7.35988e-05
4.12027e-05
7.43457e-05
4.44992e-05
7.51553e-05
4.8026e-05
7.60351e-05
5.18205e-05
7.69872e-05
5.59504e-05
7.80193e-05
6.04012e-05
7.914e-05
6.51251e-05
8.03563e-05
7.02463e-05
8.16713e-05
7.58028e-05
8.30978e-05
8.17046e-05
8.46407e-05
8.80645e-05
8.63049e-05
9.49704e-05
8.81035e-05
0.000102249
9.00398e-05
0.000110178
9.21244e-05
0.000118627
9.43695e-05
0.000127664
9.67845e-05
0.000137385
9.93873e-05
0.000147705
0.00010219
0.000158809
0.000105212
0.000170581
0.00010847
0.000183183
0.000111984
0.000196552
0.000115772
0.000210757
0.000119851
0.000225816
0.000124241
0.000241678
0.000128959
0.000258411
0.000134022
0.000275928
0.000139447
0.000294187
0.000145246
0.000313115
0.000151431
0.000332572
0.000158009
0.000352389
0.000164985
0.000372326
0.000172355
0.000392065
0.000180107
0.000411196
0.000188222
0.000429189
0.000196662
0.000445371
0.000205379
0.000458894
0.000214297
0.0004687
0.000223326
0.000473484
0.000232324
0.000471645
0.000241151
0.000461242
0.000249573
0.000439968
0.000257344
0.000405089
0.000264162
0.000353485
0.000269672
0.000281666
0.000273459
0.000187416
0.000275124
6.92207e-05
0.000274249
-0.000117398
-0.000345535
0.000269414
6.74255e-05
1.72913e-05
-6.71447e-05
6.77278e-05
1.86979e-05
6.80573e-05
2.02142e-05
6.84118e-05
2.18508e-05
6.87981e-05
2.36175e-05
6.92139e-05
2.55237e-05
6.96669e-05
2.75788e-05
7.01555e-05
2.97928e-05
7.06883e-05
3.2167e-05
7.12638e-05
3.47379e-05
7.18892e-05
3.75225e-05
7.25648e-05
4.05266e-05
7.32983e-05
4.37668e-05
7.40929e-05
4.72312e-05
7.49567e-05
5.09575e-05
7.58912e-05
5.50155e-05
7.69046e-05
5.93883e-05
7.80051e-05
6.40239e-05
7.92001e-05
6.90513e-05
8.04932e-05
7.45088e-05
8.18976e-05
8.03001e-05
8.34188e-05
8.65424e-05
8.50623e-05
9.33266e-05
8.68414e-05
0.000100469
8.87594e-05
0.000108259
9.08262e-05
0.000116559
9.30527e-05
0.000125437
9.54472e-05
0.00013499
9.80257e-05
0.000145126
0.000100799
0.000156035
0.000103785
0.000167593
0.000107
0.000179968
0.000110463
0.000193089
0.000114191
0.000207028
0.000118203
0.000221804
0.000122516
0.000237362
0.000127149
0.000253776
0.000132119
0.000270955
0.000137443
0.000288861
0.000143133
0.000307423
0.000149201
0.000326502
0.000155654
0.000345933
0.000162497
0.000365483
0.000169726
0.000384837
0.000177329
0.000403593
0.000185288
0.000421233
0.000193565
0.000437098
0.000202113
0.000450354
0.000210858
0.000459965
0.000219711
0.000464649
0.000228534
0.000462838
0.000237191
0.000452623
0.000245452
0.000431742
0.000253076
0.000397505
0.000259766
0.000346848
0.000265177
0.000276335
0.000268899
0.00018382
0.000270517
6.78532e-05
0.000269588
-0.000116209
-0.000340434
0.000264719
6.64622e-05
1.7015e-05
-6.61852e-05
6.67597e-05
1.83988e-05
6.70841e-05
1.98905e-05
6.74327e-05
2.15005e-05
6.78127e-05
2.32384e-05
6.82214e-05
2.51133e-05
6.86667e-05
2.71345e-05
6.91468e-05
2.93114e-05
6.96703e-05
3.16448e-05
7.02357e-05
3.41719e-05
7.08499e-05
3.69097e-05
7.15135e-05
3.9863e-05
7.22337e-05
4.30481e-05
7.30138e-05
4.64513e-05
7.38618e-05
5.01108e-05
7.4779e-05
5.40983e-05
7.57736e-05
5.83946e-05
7.68536e-05
6.29435e-05
7.80267e-05
6.78786e-05
7.92963e-05
7.32384e-05
8.06763e-05
7.89201e-05
8.21724e-05
8.50453e-05
8.37911e-05
9.17076e-05
8.55459e-05
9.8713e-05
8.74405e-05
0.000106364
8.94849e-05
0.000114514
9.16893e-05
0.000123233
9.40611e-05
0.000132618
9.6615e-05
0.000142572
9.93602e-05
0.000153289
0.000102314
0.000164638
0.000105491
0.000176791
0.000108908
0.000189671
0.000112583
0.000203353
0.000116533
0.000217853
0.000120777
0.000233117
0.000125332
0.000249219
0.000130216
0.000266069
0.000135444
0.00028363
0.00014103
0.000301834
0.000146986
0.000320542
0.00015332
0.000339596
0.000160034
0.000358764
0.000167126
0.000377739
0.000174585
0.000396128
0.000182391
0.000413421
0.000190509
0.000428971
0.000198893
0.000441962
0.000207468
0.000451377
0.00021615
0.000455958
0.000224803
0.000454165
0.000233294
0.000444122
0.000241398
0.000423604
0.000248878
0.000389969
0.000255445
0.000340201
0.000260757
0.000270909
0.000264411
0.000179994
0.000265978
6.59864e-05
0.000265
-0.000115504
-0.000335766
0.000260109
6.54855e-05
1.67429e-05
-6.52129e-05
6.57783e-05
1.81043e-05
6.60976e-05
1.95719e-05
6.64405e-05
2.11558e-05
6.68144e-05
2.28654e-05
6.72163e-05
2.47097e-05
6.76542e-05
2.66975e-05
6.8126e-05
2.88382e-05
6.86405e-05
3.11315e-05
6.91958e-05
3.36157e-05
6.97992e-05
3.63075e-05
7.04506e-05
3.9211e-05
7.11578e-05
4.23422e-05
7.19234e-05
4.56854e-05
7.27559e-05
4.92793e-05
7.36559e-05
5.31979e-05
7.46319e-05
5.74192e-05
7.56916e-05
6.18832e-05
7.68426e-05
6.67278e-05
7.80885e-05
7.19916e-05
7.9443e-05
7.75656e-05
8.09123e-05
8.3575e-05
8.25035e-05
9.01163e-05
8.42303e-05
9.69854e-05
8.60972e-05
0.000104497
8.81144e-05
0.000112496
9.02922e-05
0.000121054
9.26374e-05
0.000130272
9.5164e-05
0.000140044
9.78801e-05
0.000150572
0.000100802
0.000161716
0.000103941
0.000173651
0.000107317
0.000186296
0.000110943
0.000199726
0.000114837
0.000213959
0.000119016
0.000228935
0.000123499
0.000244734
0.000128301
0.000261264
0.00013344
0.000278489
0.000138928
0.000296343
0.000144778
0.000314691
0.000150996
0.000333376
0.000157586
0.000352173
0.000164546
0.00037078
0.000171865
0.00038881
0.000179523
0.000405766
0.000187487
0.000421012
0.000195711
0.000433749
0.000204122
0.000442977
0.000212638
0.000447463
0.000221124
0.000445695
0.000229454
0.000435834
0.000237405
0.000415693
0.000244745
0.000382675
0.000251191
0.000333817
0.000256406
0.000265784
0.000259993
0.000176549
0.000261513
6.47432e-05
0.000260486
-0.000114192
-0.000330609
0.000255584
6.45018e-05
1.64751e-05
-6.4233e-05
6.47899e-05
1.78147e-05
6.5104e-05
1.92587e-05
6.54412e-05
2.0817e-05
6.58087e-05
2.24989e-05
6.62036e-05
2.43131e-05
6.66339e-05
2.62683e-05
6.70974e-05
2.83734e-05
6.76028e-05
3.06274e-05
6.81482e-05
3.30696e-05
6.8741e-05
3.57164e-05
6.93808e-05
3.8571e-05
7.00752e-05
4.16493e-05
7.0827e-05
4.49337e-05
7.16442e-05
4.84635e-05
7.25275e-05
5.23144e-05
7.34854e-05
5.64623e-05
7.4525e-05
6.08431e-05
7.56543e-05
6.5599e-05
7.68764e-05
7.07686e-05
7.82053e-05
7.62367e-05
7.9647e-05
8.21322e-05
8.1209e-05
8.85541e-05
8.29055e-05
9.5288e-05
8.47415e-05
0.000102661
8.67275e-05
0.00011051
8.88743e-05
0.000118907
9.11886e-05
0.000127957
9.36841e-05
0.000137548
9.63681e-05
0.000147887
9.92558e-05
0.000158827
0.000102358
0.000170548
0.000105692
0.000182962
0.000109272
0.000196147
0.000113112
0.000210118
0.000117231
0.000224814
0.000121646
0.000240318
0.000126372
0.000256536
0.000131426
0.000273433
0.000136821
0.000290945
0.000142569
0.00030894
0.000148676
0.000327265
0.000155148
0.000345698
0.00016198
0.000363943
0.000169164
0.000381621
0.00017668
0.000398245
0.000184493
0.000413191
0.000192562
0.000425674
0.000200814
0.000434715
0.000209169
0.000439101
0.000217494
0.000437351
0.000225668
0.000427654
0.00023347
0.000407861
0.000240674
0.000375418
0.000247001
0.000327414
0.00025212
0.000260558
0.000255638
0.00017287
0.000257112
6.29876e-05
0.000256041
-0.000113372
-0.000325909
0.000251137
6.35143e-05
1.62115e-05
-6.32505e-05
6.37974e-05
1.75295e-05
6.41064e-05
1.89503e-05
6.44377e-05
2.04836e-05
6.47992e-05
2.21384e-05
6.51872e-05
2.39231e-05
6.56103e-05
2.58462e-05
6.60656e-05
2.79164e-05
6.65624e-05
3.0132e-05
6.7098e-05
3.25329e-05
6.76804e-05
3.51354e-05
6.83084e-05
3.79423e-05
6.89906e-05
4.09687e-05
6.97284e-05
4.41954e-05
7.05307e-05
4.76624e-05
7.13976e-05
5.1447e-05
7.23378e-05
5.5523e-05
7.33578e-05
5.98222e-05