/*--------------------------------*- C++ -*----------------------------------*\
  =========                 |
  \\      /  F ield         | OpenFOAM: The Open Source CFD Toolbox
   \\    /   O peration     | Website:  https://openfoam.org
    \\  /    A nd           | Version:  6.0
     \\/     M anipulation  |
\*---------------------------------------------------------------------------*/
FoamFile
{
    version     2.0;
    format      ascii;
    class       volVectorField;
    location    "14";
    object      U;
}
// * * * * * * * * * * * * * * * * * * * * * * * * * * * * * * * * * * * * * //

dimensions      [0 1 -1 0 0 0 0];

internalField   nonuniform List<vector> 
62000
(
(0.965659 -0.259909 -3.24001e-21)
(0.965658 -0.259918 2.71757e-21)
(0.96565 -0.259934 2.78081e-21)
(0.96564 -0.259942 -1.22153e-20)
(0.965632 -0.259941 -1.3914e-20)
(0.965626 -0.259934 4.85185e-20)
(0.965624 -0.259917 -5.3416e-20)
(0.965624 -0.25989 3.12056e-20)
(0.965627 -0.259851 -1.4562e-20)
(0.965629 -0.259806 -7.42264e-20)
(0.965631 -0.259761 -8.76786e-21)
(0.96563 -0.259719 1.04763e-19)
(0.965625 -0.259683 2.10172e-20)
(0.965618 -0.259652 -7.41303e-20)
(0.965609 -0.259626 1.1522e-19)
(0.965598 -0.259603 -6.16075e-20)
(0.965587 -0.259584 6.22069e-20)
(0.965575 -0.259567 -7.36005e-20)
(0.965564 -0.259553 3.55358e-20)
(0.965553 -0.259541 -1.08028e-19)
(0.965542 -0.259532 1.40675e-19)
(0.965532 -0.259525 3.92402e-20)
(0.965521 -0.259521 5.40333e-20)
(0.965511 -0.259519 -2.56819e-19)
(0.965501 -0.25952 9.24887e-20)
(0.965492 -0.259523 -5.41921e-20)
(0.965484 -0.259527 1.32837e-21)
(0.965477 -0.259533 -3.82277e-20)
(0.965471 -0.259541 1.26028e-19)
(0.965467 -0.25955 -6.1519e-20)
(0.965467 -0.259559 1.43314e-19)
(0.965469 -0.259569 -2.82437e-19)
(0.965476 -0.25958 2.98118e-20)
(0.965489 -0.259588 -7.33563e-20)
(0.965508 -0.259594 -1.38078e-20)
(0.965536 -0.259596 -6.32081e-20)
(0.965574 -0.259594 5.47099e-21)
(0.965624 -0.259587 5.2845e-21)
(0.965692 -0.259572 3.774e-20)
(0.965779 -0.259546 8.3469e-20)
(0.96589 -0.259505 -5.02821e-21)
(0.966029 -0.259442 5.0881e-20)
(0.966201 -0.259352 2.42649e-19)
(0.966411 -0.259224 -2.11164e-19)
(0.966661 -0.25905 -1.0618e-19)
(0.966956 -0.258817 5.40905e-19)
(0.967298 -0.258512 -7.33083e-20)
(0.967688 -0.258119 3.34138e-19)
(0.96813 -0.257617 1.74391e-18)
(0.968624 -0.256978 5.73068e-19)
(0.969176 -0.256155 3.19805e-19)
(0.969787 -0.255086 3.94056e-18)
(0.970455 -0.25367 -1.07895e-18)
(0.971163 -0.251772 -5.28959e-18)
(0.97189 -0.249159 -1.26595e-18)
(0.972641 -0.245494 -5.36511e-18)
(0.973139 -0.239488 4.10374e-19)
(0.976158 -0.229016 5.49051e-19)
(0.970451 -0.21149 -1.77681e-18)
(1.06293 -0.149446 -3.32566e-19)
(0.965528 -0.260908 -8.71824e-22)
(0.965518 -0.260911 8.35856e-21)
(0.965498 -0.260958 3.42581e-21)
(0.96548 -0.260999 -1.49668e-20)
(0.965467 -0.261039 6.22102e-21)
(0.965454 -0.261089 -4.28338e-20)
(0.965443 -0.261145 3.95211e-20)
(0.965436 -0.261193 2.27265e-20)
(0.965434 -0.261218 -4.27202e-20)
(0.965437 -0.261211 1.98543e-21)
(0.965444 -0.261177 4.14701e-20)
(0.965449 -0.261127 -7.20473e-23)
(0.965451 -0.261074 1.17358e-20)
(0.965447 -0.261026 -1.02298e-19)
(0.965437 -0.260987 2.05075e-19)
(0.965421 -0.260957 -1.81605e-19)
(0.965402 -0.260934 8.46984e-20)
(0.965381 -0.260916 -1.80773e-20)
(0.965359 -0.260903 -4.7731e-20)
(0.965337 -0.260892 1.30574e-19)
(0.965316 -0.260886 -2.05061e-19)
(0.965296 -0.260883 1.18179e-19)
(0.965277 -0.260883 -1.46455e-19)
(0.96526 -0.260887 8.80236e-20)
(0.965244 -0.260894 7.72508e-20)
(0.965231 -0.260903 -5.11716e-20)
(0.96522 -0.260915 2.00922e-21)
(0.965212 -0.260929 5.6337e-20)
(0.965207 -0.260945 4.48228e-20)
(0.965208 -0.260962 -7.78026e-20)
(0.965213 -0.26098 1.58863e-19)
(0.965226 -0.260998 2.4136e-20)
(0.965249 -0.261013 8.47005e-20)
(0.965282 -0.261024 -6.20946e-21)
(0.965329 -0.261027 1.48615e-20)
(0.96539 -0.261022 -3.14633e-20)
(0.96547 -0.261008 -5.30597e-20)
(0.965573 -0.260981 -3.8749e-20)
(0.965706 -0.260938 -1.06955e-19)
(0.965873 -0.260869 -4.99998e-20)
(0.966083 -0.260769 3.51092e-20)
(0.966339 -0.260625 -2.64334e-20)
(0.966649 -0.260426 -2.16396e-19)
(0.967015 -0.260159 -1.10515e-20)
(0.96744 -0.259811 8.29951e-19)
(0.967924 -0.259369 -4.54379e-19)
(0.968465 -0.258819 -5.24881e-19)
(0.969062 -0.258148 -6.38115e-19)
(0.969712 -0.257332 -2.50357e-19)
(0.970412 -0.256339 -6.47623e-20)
(0.971159 -0.255116 -1.63234e-18)
(0.97194 -0.253588 -4.9237e-18)
(0.972724 -0.251648 3.6883e-18)
(0.973435 -0.249189 9.39158e-18)
(0.973936 -0.246082 2.39817e-18)
(0.974098 -0.242369 2.1522e-18)
(0.973278 -0.23768 4.15791e-18)
(0.971525 -0.23349 2.37693e-18)
(0.967196 -0.243969 -2.55835e-18)
(0.962446 -0.273711 -6.91345e-19)
(0.965416 -0.261613 -4.22731e-21)
(0.965432 -0.261619 -5.73901e-22)
(0.965434 -0.26167 6.85418e-22)
(0.965432 -0.2617 3.01926e-21)
(0.965424 -0.261721 8.49772e-21)
(0.965407 -0.261757 -8.10843e-21)
(0.965381 -0.261826 4.29433e-20)
(0.965354 -0.261923 -2.07925e-20)
(0.965331 -0.262023 -1.11505e-20)
(0.965319 -0.262096 -6.75569e-20)
(0.965316 -0.262126 5.73504e-20)
(0.965321 -0.262115 4.18353e-21)
(0.965329 -0.262079 -1.30895e-20)
(0.965336 -0.262037 3.47755e-20)
(0.965338 -0.262003 -5.95794e-20)
(0.965334 -0.261982 6.22846e-22)
(0.965324 -0.261975 -2.68701e-20)
(0.965309 -0.261978 1.16615e-21)
(0.965291 -0.261988 6.27441e-20)
(0.965272 -0.262001 -9.44182e-20)
(0.965253 -0.262017 5.90664e-20)
(0.965234 -0.262034 2.22389e-19)
(0.965217 -0.262054 -3.40298e-20)
(0.965202 -0.262074 -3.03864e-19)
(0.96519 -0.262097 1.55957e-19)
(0.96518 -0.262121 -7.93793e-20)
(0.965173 -0.262147 1.29395e-19)
(0.96517 -0.262173 -8.05202e-20)
(0.96517 -0.2622 -1.46203e-19)
(0.965175 -0.262228 1.49526e-19)
(0.965185 -0.262254 -1.0116e-19)
(0.965201 -0.262279 1.25801e-19)
(0.965227 -0.2623 -3.2642e-19)
(0.965262 -0.262314 2.66846e-19)
(0.965309 -0.262319 -1.32173e-19)
(0.96537 -0.262314 5.39346e-20)
(0.965448 -0.262297 4.35662e-20)
(0.965546 -0.262264 1.16303e-20)
(0.965671 -0.26221 4.46888e-21)
(0.965827 -0.262126 1.20398e-19)
(0.966022 -0.262004 -6.20128e-21)
(0.966259 -0.261833 -2.02405e-20)
(0.966541 -0.261602 1.04028e-19)
(0.966871 -0.261302 1.02681e-19)
(0.967246 -0.260924 -2.77367e-19)
(0.967661 -0.260463 6.60393e-19)
(0.968109 -0.259918 -1.6364e-19)
(0.968581 -0.259288 9.71412e-19)
(0.969067 -0.258569 -1.60738e-18)
(0.969559 -0.25775 -5.00341e-19)
(0.970046 -0.256802 -1.69858e-19)
(0.970513 -0.25568 2.39733e-19)
(0.970922 -0.254317 -1.33956e-18)
(0.971204 -0.25266 -8.04178e-19)
(0.971213 -0.250666 2.87432e-18)
(0.970883 -0.248497 2.04713e-18)
(0.969749 -0.245941 1.27417e-18)
(0.968192 -0.244713 5.63617e-18)
(0.966062 -0.245726 -1.55837e-19)
(0.985625 -0.244653 -4.29041e-19)
(0.965573 -0.26221 -4.20924e-21)
(0.965609 -0.262222 1.28814e-20)
(0.965592 -0.262284 -2.01532e-21)
(0.965553 -0.262321 -1.32261e-20)
(0.965501 -0.262327 1.98884e-20)
(0.965434 -0.262329 3.4073e-20)
(0.965352 -0.262365 -4.47628e-20)
(0.965265 -0.262458 4.80371e-21)
(0.965184 -0.262593 1.52035e-20)
(0.965119 -0.262732 3.14188e-20)
(0.965074 -0.262838 -5.86765e-20)
(0.965049 -0.262893 -1.7843e-20)
(0.965042 -0.262903 -1.98198e-20)
(0.965047 -0.262889 9.13515e-20)
(0.965059 -0.262874 -6.091e-20)
(0.965073 -0.262873 1.41159e-19)
(0.965086 -0.262892 -1.71407e-19)
(0.965095 -0.262929 -2.40507e-20)
(0.965102 -0.262979 1.77627e-19)
(0.965105 -0.263034 -6.23912e-20)
(0.965106 -0.263091 -2.27227e-20)
(0.965105 -0.263147 -2.34913e-20)
(0.965103 -0.2632 -2.07015e-19)
(0.965102 -0.263249 1.22912e-19)
(0.965102 -0.263296 -4.97076e-20)
(0.965103 -0.263339 8.46431e-20)
(0.965107 -0.26338 3.81038e-20)
(0.965113 -0.263418 1.76817e-19)
(0.965123 -0.263454 -1.1273e-19)
(0.965135 -0.263488 -1.35736e-19)
(0.965153 -0.263518 2.02925e-19)
(0.965175 -0.263545 -1.64015e-19)
(0.965205 -0.263565 2.78702e-19)
(0.965243 -0.263575 -1.52039e-19)
(0.965291 -0.263575 7.48813e-20)
(0.965351 -0.263563 1.07066e-19)
(0.965426 -0.263537 -3.58661e-20)
(0.965521 -0.263491 2.43264e-20)
(0.965639 -0.26342 -3.21003e-20)
(0.965788 -0.263316 4.13376e-20)
(0.965974 -0.263169 -8.57845e-20)
(0.966202 -0.262969 6.89046e-21)
(0.966477 -0.262703 -6.27208e-21)
(0.9668 -0.262364 -3.80582e-20)
(0.967169 -0.261943 -2.07508e-19)
(0.967581 -0.261437 -1.49003e-19)
(0.968026 -0.260847 -4.72082e-19)
(0.968494 -0.260176 -6.63834e-19)
(0.968972 -0.259425 -8.4459e-19)
(0.969446 -0.258587 7.3096e-19)
(0.969904 -0.25764 1.20258e-18)
(0.970328 -0.256541 -8.14745e-19)
(0.970685 -0.255222 -1.22835e-18)
(0.970926 -0.253618 -3.40053e-18)
(0.970932 -0.251642 -2.32112e-18)
(0.970729 -0.249315 -4.19992e-18)
(0.97012 -0.246212 -8.15709e-18)
(0.969251 -0.24216 1.40207e-18)
(0.96904 -0.243436 4.11622e-18)
(0.976324 -0.252757 1.95404e-18)
(0.966068 -0.262632 8.14953e-21)
(0.966034 -0.262654 -2.76547e-21)
(0.965902 -0.262749 4.50006e-21)
(0.965749 -0.262837 -6.44047e-21)
(0.965601 -0.262887 1.42699e-20)
(0.965451 -0.262904 -7.14633e-21)
(0.965291 -0.262934 3.71787e-21)
(0.965127 -0.26302 -5.61216e-20)
(0.964969 -0.263169 4.70151e-20)
(0.964831 -0.26335 -9.25511e-20)
(0.96472 -0.263515 1.02019e-19)
(0.96464 -0.263631 -1.23485e-20)
(0.96459 -0.263688 -2.6818e-20)
(0.964569 -0.263702 -1.20426e-20)
(0.964572 -0.263699 -2.46178e-21)
(0.964595 -0.263704 -1.22266e-19)
(0.964631 -0.263732 7.17013e-21)
(0.964677 -0.263787 1.33257e-19)
(0.964728 -0.263866 -4.23405e-20)
(0.964781 -0.263961 -4.33048e-20)
(0.964834 -0.264064 7.47003e-20)
(0.964884 -0.264167 -3.52317e-20)
(0.96493 -0.264266 1.4882e-19)
(0.964973 -0.264358 7.68159e-20)
(0.965013 -0.264442 5.46591e-20)
(0.96505 -0.264517 -1.85245e-19)
(0.965085 -0.264582 -2.53839e-20)
(0.965119 -0.264639 -1.33736e-19)
(0.965153 -0.264687 2.6746e-20)
(0.965187 -0.264728 -3.85104e-20)
(0.965224 -0.26476 -1.44114e-20)
(0.965263 -0.264785 1.13944e-19)
(0.965307 -0.264799 -2.88936e-19)
(0.965357 -0.2648 -1.40209e-20)
(0.965415 -0.264787 -1.25292e-19)
(0.965483 -0.264758 -5.67136e-20)
(0.965564 -0.264712 1.25647e-21)
(0.965663 -0.264646 -1.4339e-19)
(0.965786 -0.264552 1.80946e-19)
(0.965938 -0.264423 3.93821e-20)
(0.966129 -0.26425 1.33044e-19)
(0.966365 -0.26402 -5.89029e-20)
(0.966654 -0.263721 -2.96863e-20)
(0.967 -0.263341 2.92614e-20)
(0.967405 -0.262873 -1.07956e-19)
(0.96787 -0.262307 -2.53836e-19)
(0.968388 -0.26164 -2.39311e-20)
(0.968949 -0.260867 -1.1287e-19)
(0.969541 -0.259985 3.88176e-19)
(0.970146 -0.258981 -1.83611e-18)
(0.970742 -0.257827 -5.23929e-19)
(0.971303 -0.256479 6.29106e-19)
(0.971781 -0.254869 -1.30368e-19)
(0.972115 -0.252935 -2.61135e-18)
(0.972169 -0.250614 1.30003e-19)
(0.971954 -0.247956 3.30987e-18)
(0.971339 -0.244738 8.62663e-18)
(0.969733 -0.241353 -9.96446e-18)
(0.967159 -0.247769 4.14323e-18)
(0.978153 -0.25768 -2.31573e-18)
(0.966366 -0.263448 -3.1165e-21)
(0.966184 -0.263508 1.25717e-20)
(0.965909 -0.263642 -2.0684e-20)
(0.965649 -0.263796 1.54353e-20)
(0.965433 -0.263921 9.95366e-21)
(0.965243 -0.263995 -1.06163e-20)
(0.965056 -0.264055 8.66725e-22)
(0.964868 -0.264152 -7.92699e-21)
(0.964683 -0.26431 -2.64297e-20)
(0.96451 -0.264512 5.07912e-20)
(0.964358 -0.264711 -7.8112e-20)
(0.964233 -0.264864 6.83763e-20)
(0.964137 -0.264946 5.955e-20)
(0.964072 -0.264964 -9.25771e-20)
(0.964038 -0.264941 -2.97364e-20)
(0.964034 -0.264906 1.1235e-19)
(0.964059 -0.264886 -1.35272e-19)
(0.964111 -0.264895 1.85303e-19)
(0.964187 -0.264937 -3.64883e-20)
(0.964281 -0.265008 1.80955e-20)
(0.964387 -0.265101 -3.30223e-20)
(0.964502 -0.265207 -3.99927e-20)
(0.964618 -0.265318 -7.00705e-20)
(0.964732 -0.265428 1.19096e-19)
(0.964842 -0.265533 -8.2016e-20)
(0.964946 -0.265629 -7.52144e-20)
(0.965044 -0.265714 1.5391e-19)
(0.965135 -0.265786 -1.39989e-19)
(0.965221 -0.265846 2.16487e-19)
(0.965302 -0.265893 -1.16107e-19)
(0.96538 -0.265927 7.87328e-20)
(0.965457 -0.265949 -1.30159e-19)
(0.965533 -0.265955 1.27675e-19)
(0.96561 -0.265944 -1.81936e-20)
(0.96569 -0.265914 -8.75453e-21)
(0.965774 -0.265866 -6.21907e-21)
(0.965867 -0.265799 -5.52516e-20)
(0.965971 -0.265711 1.24023e-19)
(0.966094 -0.265596 -8.5415e-20)
(0.966241 -0.265449 -3.9436e-19)
(0.966421 -0.265261 -1.27154e-19)
(0.966641 -0.265021 5.17756e-20)
(0.966911 -0.264718 -5.94067e-20)
(0.967238 -0.264339 2.06993e-20)
(0.967629 -0.263874 5.52278e-21)
(0.968085 -0.263312 -1.92386e-19)
(0.968606 -0.262646 4.5498e-19)
(0.969184 -0.261865 6.51993e-19)
(0.969807 -0.26096 6.53812e-19)
(0.970455 -0.259913 1.16663e-18)
(0.971096 -0.2587 -7.1907e-19)
(0.971691 -0.257283 4.35827e-19)
(0.972171 -0.255616 3.71101e-18)
(0.972454 -0.253679 -5.99258e-19)
(0.972372 -0.251492 -1.46055e-18)
(0.9719 -0.249238 2.74932e-18)
(0.97099 -0.246919 -2.58726e-18)
(0.968521 -0.24583 -2.60868e-18)
(0.965507 -0.253307 -6.79584e-18)
(0.978815 -0.259555 -7.60273e-20)
(0.965982 -0.265161 3.69636e-21)
(0.965678 -0.265267 -1.66736e-20)
(0.96534 -0.26542 8.16024e-21)
(0.965061 -0.265614 1.51412e-20)
(0.964863 -0.265793 -3.2462e-20)
(0.964718 -0.265921 2.72477e-20)
(0.964592 -0.266015 -1.81432e-20)
(0.96447 -0.266128 1.53945e-20)
(0.964344 -0.266292 2.43796e-20)
(0.964219 -0.266502 -5.86225e-20)
(0.964098 -0.266717 8.42378e-20)
(0.963986 -0.266889 3.50323e-20)
(0.963887 -0.266985 -1.41657e-19)
(0.963802 -0.267 -2.6073e-20)
(0.963732 -0.266948 7.51095e-20)
(0.963683 -0.266856 4.78249e-20)
(0.963658 -0.266756 -5.83653e-20)
(0.963664 -0.266668 5.02916e-20)
(0.963703 -0.266607 7.65979e-20)
(0.963777 -0.266579 -3.88501e-20)
(0.963882 -0.266581 -2.19219e-20)
(0.964015 -0.266609 7.3448e-20)
(0.964168 -0.266657 1.46178e-19)
(0.964334 -0.266718 -1.10678e-19)
(0.964506 -0.266786 -1.1511e-19)
(0.964679 -0.266856 1.22757e-19)
(0.964847 -0.266922 -9.48579e-20)
(0.965009 -0.266981 -3.33914e-20)
(0.965164 -0.267029 2.90282e-19)
(0.96531 -0.267065 -1.24594e-19)
(0.965449 -0.267088 -8.34166e-20)
(0.965581 -0.267097 1.15557e-19)
(0.965707 -0.267089 7.36934e-20)
(0.965828 -0.26706 -6.48572e-20)
(0.965946 -0.26701 -3.97896e-20)
(0.966061 -0.26694 1.1132e-19)
(0.966176 -0.266849 1.51964e-20)
(0.966295 -0.266738 3.59366e-20)
(0.966421 -0.266604 -1.46535e-19)
(0.96656 -0.266443 -1.27243e-19)
(0.966719 -0.26625 1.98749e-19)
(0.966906 -0.266017 1.10023e-19)
(0.967128 -0.265732 9.62343e-20)
(0.967394 -0.265389 -8.36682e-20)
(0.967711 -0.264976 -3.05649e-20)
(0.968086 -0.264485 9.13393e-20)
(0.968519 -0.263904 -3.0748e-19)
(0.969007 -0.263224 -3.73076e-19)
(0.96954 -0.262432 6.00969e-19)
(0.970098 -0.26151 8.97505e-19)
(0.970648 -0.260438 4.59726e-19)
(0.971144 -0.259189 -2.19758e-19)
(0.971512 -0.257737 -1.53595e-19)
(0.971661 -0.256094 1.42098e-18)
(0.971426 -0.254327 -1.25058e-18)
(0.970792 -0.252669 -9.73968e-19)
(0.969877 -0.251073 -1.62511e-18)
(0.967513 -0.250744 8.32289e-18)
(0.964845 -0.256681 3.26548e-19)
(0.980422 -0.260179 -2.61458e-19)
(0.96494 -0.267728 -6.21811e-21)
(0.964625 -0.267856 -4.97383e-21)
(0.964343 -0.267992 6.78424e-21)
(0.964145 -0.268181 2.39351e-20)
(0.96404 -0.268372 -5.15861e-20)
(0.964 -0.268517 5.90631e-20)
(0.96399 -0.268624 -2.73596e-21)
(0.963989 -0.268738 -3.76897e-21)
(0.963982 -0.268897 -2.10885e-20)
(0.963967 -0.269102 5.07679e-20)
(0.963944 -0.26932 -7.82978e-20)
(0.963914 -0.269505 2.95103e-20)
(0.963877 -0.269619 -9.6552e-22)
(0.963832 -0.269645 4.57782e-20)
(0.963779 -0.26959 2.1548e-20)
(0.963719 -0.269472 -1.16041e-19)
(0.963657 -0.269317 1.00708e-19)
(0.963605 -0.269149 3.8902e-20)
(0.963573 -0.268985 -1.12364e-19)
(0.963571 -0.268837 5.52726e-20)
(0.963606 -0.268713 2.45591e-20)
(0.963682 -0.268613 -1.72596e-20)
(0.963796 -0.268539 1.86797e-20)
(0.963945 -0.268487 -1.25596e-20)
(0.96412 -0.268455 -1.3047e-19)
(0.964313 -0.268437 8.23259e-20)
(0.964517 -0.268429 -1.21011e-19)
(0.964724 -0.268425 2.20264e-19)
(0.964931 -0.268421 -4.2576e-20)
(0.965134 -0.268413 -2.49727e-20)
(0.96533 -0.268397 -7.9213e-21)
(0.965519 -0.268372 1.85684e-19)
(0.965701 -0.268332 -8.11781e-20)
(0.965875 -0.268272 -5.03636e-20)
(0.966041 -0.268193 1.00284e-19)
(0.9662 -0.268092 7.70509e-20)
(0.966352 -0.267972 -1.23623e-19)
(0.9665 -0.267833 2.263e-20)
(0.966646 -0.267673 1.81839e-19)
(0.966794 -0.267494 -3.29629e-20)
(0.966948 -0.267293 9.72704e-20)
(0.967115 -0.267062 -9.72019e-20)
(0.967301 -0.266797 1.41034e-19)
(0.967512 -0.26649 1.5248e-19)
(0.967756 -0.266135 -2.81178e-20)
(0.96804 -0.265725 -1.59673e-21)
(0.968368 -0.265249 1.38829e-19)
(0.96874 -0.264696 4.5769e-20)
(0.96915 -0.264053 -1.81305e-19)
(0.969582 -0.263302 -6.1041e-19)
(0.970008 -0.262421 1.9825e-19)
(0.970388 -0.261387 9.76401e-19)
(0.970654 -0.260177 -1.01555e-18)
(0.97073 -0.2588 8.30965e-19)
(0.970476 -0.257314 -1.84447e-18)
(0.96992 -0.255893 -6.24328e-19)
(0.969326 -0.254314 -3.5194e-18)
(0.967611 -0.253424 -6.9318e-18)
(0.965405 -0.25783 -1.15572e-18)
(0.982025 -0.260032 -1.27025e-18)
(0.963627 -0.270763 -2.98119e-21)
(0.963419 -0.27088 2.56682e-21)
(0.963275 -0.270974 1.29181e-20)
(0.963209 -0.271125 2.04037e-20)
(0.963226 -0.27129 -6.05027e-20)
(0.963303 -0.27142 3.48237e-20)
(0.963412 -0.271514 -6.21573e-20)
(0.96353 -0.271612 9.73161e-20)
(0.963645 -0.271751 -4.56175e-20)
(0.963751 -0.271939 7.99907e-21)
(0.963845 -0.272147 8.68035e-20)
(0.963926 -0.272334 -1.97626e-19)
(0.963992 -0.272462 1.34597e-19)
(0.964039 -0.27251 1.8735e-20)
(0.964063 -0.272477 3.02971e-20)
(0.964058 -0.272373 -1.27982e-19)
(0.964023 -0.272216 6.29524e-20)
(0.963965 -0.272024 -7.75869e-20)
(0.963893 -0.271812 1.52467e-19)
(0.963824 -0.271592 -2.16086e-20)
(0.963771 -0.271373 -1.90746e-19)
(0.96375 -0.271161 7.51256e-20)
(0.963768 -0.270963 -4.58025e-21)
(0.963831 -0.270783 -2.62123e-19)
(0.963937 -0.270622 1.98304e-19)
(0.96408 -0.270481 1.43535e-19)
(0.964255 -0.270359 9.22041e-20)
(0.964451 -0.270253 -1.17946e-19)
(0.964664 -0.270157 -1.2034e-19)
(0.964884 -0.270069 5.4965e-20)
(0.965108 -0.269984 7.96702e-20)
(0.965332 -0.269898 -8.86443e-20)
(0.965553 -0.269804 -1.2304e-19)
(0.96577 -0.269695 2.58151e-19)
(0.96598 -0.269571 1.95468e-20)
(0.966185 -0.269428 -3.24116e-19)
(0.966381 -0.269268 2.55776e-20)
(0.966571 -0.269091 1.853e-19)
(0.966755 -0.268898 2.20873e-20)
(0.966935 -0.268689 1.92096e-19)
(0.967114 -0.268465 -1.98179e-19)
(0.967296 -0.268221 -5.96262e-21)
(0.967484 -0.267953 -8.14989e-20)
(0.967683 -0.267658 4.06764e-20)
(0.967901 -0.267331 5.23766e-20)
(0.968144 -0.266965 8.55641e-20)
(0.968417 -0.266551 -5.57995e-20)
(0.968723 -0.266077 1.6097e-19)
(0.96906 -0.265526 -1.67991e-19)
(0.969418 -0.264878 -9.28783e-19)
(0.969778 -0.264105 9.62734e-19)
(0.970108 -0.26318 -1.46184e-18)
(0.970356 -0.262067 1.15488e-18)
(0.970463 -0.260755 7.1317e-19)
(0.970318 -0.259262 3.90469e-18)
(0.969977 -0.257692 2.84356e-19)
(0.969775 -0.255688 2.13425e-18)
(0.968686 -0.25397 3.66142e-18)
(0.966699 -0.257777 -2.76284e-18)
(0.983486 -0.259906 -4.63859e-19)
(0.962445 -0.27386 4.06421e-21)
(0.962404 -0.273945 1.4295e-21)
(0.962415 -0.273991 -1.47959e-20)
(0.962479 -0.274093 1.4119e-20)
(0.962605 -0.274216 -6.25743e-21)
(0.962778 -0.274315 1.1163e-20)
(0.962974 -0.274384 3.78686e-21)
(0.963179 -0.274457 -5.56603e-20)
(0.963383 -0.274571 2.43238e-20)
(0.96358 -0.274734 -1.61804e-20)
(0.963769 -0.274924 1.0086e-20)
(0.963947 -0.275103 3.82355e-20)
(0.964114 -0.275234 -7.17443e-21)
(0.964266 -0.275299 2.31746e-20)
(0.964394 -0.275293 -9.81978e-20)
(0.964489 -0.275222 3.80714e-20)
(0.964543 -0.275098 1.68375e-20)
(0.96455 -0.274932 -4.52374e-20)
(0.964514 -0.274732 8.98283e-20)
(0.964444 -0.274506 2.8821e-20)
(0.964354 -0.274258 -3.74699e-21)
(0.964265 -0.273994 -3.15775e-20)
(0.964191 -0.273722 1.2384e-19)
(0.96415 -0.273449 -3.35656e-19)
(0.96415 -0.273181 1.75247e-19)
(0.964195 -0.272925 7.12462e-20)
(0.964284 -0.272686 -1.14974e-19)
(0.964413 -0.272465 1.98159e-19)
(0.964575 -0.27226 -9.78364e-20)
(0.964763 -0.272072 -4.71574e-20)
(0.96497 -0.271894 -8.08511e-20)
(0.965191 -0.271726 -3.0866e-20)
(0.965421 -0.271559 9.01603e-20)
(0.965655 -0.271385 -2.46997e-19)
(0.965892 -0.271202 4.50846e-19)
(0.966128 -0.271005 -3.70487e-20)
(0.966364 -0.270795 1.8655e-19)
(0.966596 -0.270571 -4.61094e-19)
(0.966827 -0.270332 -1.16646e-19)
(0.967055 -0.270082 1.76733e-20)
(0.967282 -0.269819 -7.38163e-20)
(0.96751 -0.269541 3.43802e-23)
(0.967741 -0.269245 -1.78401e-19)
(0.967979 -0.268928 6.40821e-20)
(0.968228 -0.268586 4.60792e-20)
(0.968494 -0.268212 -9.27482e-20)
(0.968783 -0.267796 -1.47212e-20)
(0.969099 -0.267323 -3.38277e-20)
(0.969442 -0.266774 -1.52425e-20)
(0.969808 -0.266121 5.47812e-19)
(0.970182 -0.265333 -2.72118e-19)
(0.970543 -0.264372 7.17539e-19)
(0.97085 -0.263188 -1.86934e-18)
(0.971056 -0.261751 -4.3208e-19)
(0.971064 -0.260048 2.84488e-18)
(0.970935 -0.258149 -1.36179e-18)
(0.971008 -0.25567 5.33666e-18)
(0.970289 -0.253409 1.83664e-18)
(0.968288 -0.257401 9.84295e-18)
(0.984762 -0.260024 1.54649e-18)
(0.961613 -0.276753 -8.77086e-22)
(0.96174 -0.276804 -3.45639e-21)
(0.961875 -0.276811 -3.00675e-21)
(0.962035 -0.27687 2.9055e-20)
(0.962236 -0.276954 -1.61617e-20)
(0.962469 -0.277022 -1.93143e-20)
(0.962716 -0.277065 -7.187e-21)
(0.962968 -0.277115 -2.9558e-20)
(0.963219 -0.277205 1.88022e-20)
(0.963468 -0.277346 2.91136e-21)
(0.963713 -0.277517 1.15764e-21)
(0.963955 -0.277681 7.78153e-20)
(0.964193 -0.277807 -5.51941e-20)
(0.964426 -0.277877 -6.75479e-21)
(0.964647 -0.277888 6.2891e-20)
(0.964846 -0.277846 -3.47261e-20)
(0.96501 -0.27776 -1.3226e-20)
(0.965128 -0.277639 2.17318e-20)
(0.96519 -0.277486 6.91984e-20)
(0.965195 -0.2773 3.74232e-20)
(0.965149 -0.277082 1.26886e-20)
(0.965065 -0.276831 -9.56626e-20)
(0.96496 -0.276551 4.70194e-20)
(0.964857 -0.276246 8.88789e-20)
(0.964771 -0.275926 -1.85941e-19)
(0.964718 -0.275599 5.76404e-20)
(0.964706 -0.275274 -2.2667e-19)
(0.964739 -0.274958 1.80815e-19)
(0.964815 -0.274654 1.49271e-19)
(0.964932 -0.274367 -2.30582e-19)
(0.965083 -0.274095 -1.05125e-19)
(0.965263 -0.273837 1.32324e-19)
(0.965467 -0.273588 4.35255e-20)
(0.96569 -0.273339 -1.04628e-19)
(0.965927 -0.273088 -1.27804e-19)
(0.966176 -0.272828 -1.43903e-19)
(0.966433 -0.272559 9.30171e-20)
(0.966699 -0.27228 1.92852e-19)
(0.966971 -0.271988 7.11756e-20)
(0.96725 -0.271686 -3.62458e-20)
(0.967534 -0.271373 4.38617e-19)
(0.967826 -0.271045 -6.26607e-20)
(0.968126 -0.270699 3.05674e-19)
(0.968435 -0.270332 -4.08943e-19)
(0.968758 -0.269937 5.68599e-20)
(0.969098 -0.269508 1.33189e-20)
(0.969459 -0.269032 -1.20828e-20)
(0.969847 -0.268492 1.70886e-19)
(0.970261 -0.267863 4.47868e-19)
(0.970699 -0.267115 -6.31895e-19)
(0.97115 -0.266209 -1.14689e-18)
(0.971596 -0.2651 -8.42166e-19)
(0.972001 -0.263733 1.87488e-18)
(0.972322 -0.262066 -1.34236e-18)
(0.972461 -0.260079 -4.01791e-18)
(0.972466 -0.257849 -2.55128e-18)
(0.972657 -0.255032 -5.21192e-18)
(0.972074 -0.252552 -4.01377e-18)
(0.969914 -0.257139 -9.84467e-18)
(0.985913 -0.260401 4.78265e-18)
(0.961167 -0.279332 1.09984e-21)
(0.961421 -0.279353 -3.30817e-21)
(0.961632 -0.279336 1.18129e-20)
(0.961845 -0.279362 3.05751e-21)
(0.962083 -0.279415 -1.62415e-20)
(0.962342 -0.279459 -1.86031e-20)
(0.962609 -0.279484 4.40809e-20)
(0.962876 -0.279517 -4.79572e-20)
(0.963143 -0.27959 -1.15038e-20)
(0.96341 -0.279715 2.94862e-20)
(0.963678 -0.279871 2.68766e-20)
(0.96395 -0.280024 8.07969e-20)
(0.964226 -0.280142 -4.61233e-20)
(0.964506 -0.280211 -7.78779e-20)
(0.964788 -0.280228 1.71067e-20)
(0.965065 -0.280202 -6.31173e-20)
(0.965324 -0.280144 4.75242e-20)
(0.965552 -0.280062 -7.91946e-20)
(0.965735 -0.279959 1.33702e-20)
(0.965859 -0.27983 -2.49052e-20)
(0.965918 -0.279671 -1.50263e-20)
(0.965915 -0.279475 -6.91827e-20)
(0.965859 -0.279238 8.16716e-21)
(0.965767 -0.278961 1.50557e-19)
(0.965658 -0.278647 -4.9588e-20)
(0.965553 -0.278306 1.64127e-20)
(0.965469 -0.277946 4.54781e-20)
(0.965418 -0.277578 -5.66298e-20)
(0.965408 -0.277209 -1.04236e-20)
(0.965441 -0.276848 7.50137e-20)
(0.965518 -0.276497 8.05483e-20)
(0.965636 -0.27616 -5.86131e-20)
(0.96579 -0.275832 -1.78428e-19)
(0.965976 -0.27551 -2.38936e-19)
(0.966191 -0.275189 3.55702e-19)
(0.966431 -0.274864 9.4136e-20)
(0.966693 -0.274533 6.35501e-20)
(0.966976 -0.274194 2.49909e-19)
(0.967278 -0.273846 -2.03313e-19)
(0.967599 -0.273486 1.18554e-19)
(0.967938 -0.273115 2.49579e-21)
(0.968295 -0.272727 1.87677e-21)
(0.968671 -0.272317 -1.16541e-19)
(0.969065 -0.27188 2.07336e-19)
(0.96948 -0.271409 -1.61789e-19)
(0.969918 -0.270893 1.71881e-20)
(0.970383 -0.27032 6.53708e-20)
(0.970875 -0.269666 -4.64793e-21)
(0.971396 -0.268906 -2.36177e-19)
(0.97194 -0.268004 6.93679e-19)
(0.972496 -0.266919 7.73541e-20)
(0.973047 -0.265606 -9.48205e-20)
(0.973554 -0.264007 5.26088e-19)
(0.973973 -0.262082 1.64969e-18)
(0.974195 -0.259824 -7.24345e-20)
(0.974248 -0.257341 -2.92844e-18)
(0.974441 -0.254346 3.57124e-18)
(0.973831 -0.251887 1.38014e-18)
(0.971452 -0.257176 1.24652e-18)
(0.98699 -0.260988 -3.60428e-18)
(0.961032 -0.281573 1.98377e-21)
(0.961361 -0.281576 -1.6787e-21)
(0.961603 -0.281549 1.53302e-21)
(0.961831 -0.281557 9.8268e-21)
(0.962077 -0.281592 1.42273e-20)
(0.962338 -0.281621 -5.5678e-20)
(0.962602 -0.281634 4.02206e-20)
(0.962865 -0.281657 8.2362e-21)
(0.963127 -0.281721 -2.64787e-21)
(0.96339 -0.281837 -1.79063e-20)
(0.96366 -0.281984 5.40034e-20)
(0.963937 -0.282129 -1.8012e-20)
(0.964225 -0.282242 -2.43591e-20)
(0.964525 -0.282307 -7.1371e-20)
(0.964837 -0.282324 1.42841e-19)
(0.965157 -0.282304 -2.99837e-20)
(0.965478 -0.282261 -2.51141e-20)
(0.965789 -0.282204 -7.27987e-20)
(0.966075 -0.282138 8.0472e-20)
(0.966319 -0.282059 4.40628e-20)
(0.966506 -0.281961 -1.99258e-20)
(0.966627 -0.281833 3.44136e-20)
(0.966678 -0.281665 -1.45922e-19)
(0.966668 -0.281452 1.08935e-20)
(0.96661 -0.281191 8.03232e-20)
(0.966521 -0.280886 -1.52116e-20)
(0.966422 -0.280543 -2.32916e-19)
(0.966332 -0.280173 2.53117e-20)
(0.966266 -0.279783 2.02503e-19)
(0.966235 -0.279386 -5.07005e-20)
(0.966245 -0.278987 -9.89993e-20)
(0.966299 -0.278593 5.21817e-20)
(0.966396 -0.278206 1.56184e-19)
(0.966536 -0.277822 3.50224e-19)
(0.966715 -0.27744 -5.40193e-20)
(0.966933 -0.277054 5.45098e-20)
(0.967185 -0.276664 -4.5808e-19)
(0.967471 -0.276268 -1.17501e-19)
(0.96779 -0.275862 6.76797e-20)
(0.968141 -0.275444 -2.5298e-19)
(0.968524 -0.275012 -4.57083e-20)
(0.968938 -0.274559 9.30406e-20)
(0.969383 -0.274078 6.02958e-20)
(0.969859 -0.273562 1.09447e-19)
(0.970367 -0.273001 1.95583e-19)
(0.970907 -0.272384 -1.33064e-20)
(0.97148 -0.271692 -1.97445e-19)
(0.972086 -0.270903 -2.97431e-19)
(0.972722 -0.269987 2.50152e-20)
(0.973379 -0.268906 -9.29629e-19)
(0.974043 -0.26762 1.55418e-18)
(0.974694 -0.266085 2.42298e-18)
(0.97529 -0.264249 -2.3617e-18)
(0.975776 -0.262083 -2.54098e-18)
(0.976035 -0.2596 1.40843e-18)
(0.976077 -0.256946 9.20103e-18)
(0.976211 -0.25388 -2.72789e-18)
(0.975498 -0.251543 4.32559e-18)
(0.972882 -0.257482 5.06962e-18)
(0.988056 -0.261685 -2.97598e-18)
(0.9611 -0.28351 -2.0694e-21)
(0.961459 -0.283505 2.27096e-21)
(0.961698 -0.283476 1.54203e-20)
(0.961917 -0.283475 -2.01542e-20)
(0.962151 -0.2835 3.64412e-20)
(0.962398 -0.283523 -5.34928e-20)
(0.962648 -0.283532 1.51612e-20)
(0.962895 -0.283552 -6.73513e-22)
(0.963142 -0.283613 3.30217e-20)
(0.963393 -0.283726 -1.7422e-20)
(0.963651 -0.28387 4.93407e-21)
(0.963921 -0.284012 5.04779e-21)
(0.964206 -0.284122 -7.97571e-20)
(0.964507 -0.284185 2.42526e-20)
(0.964825 -0.284201 5.48734e-20)
(0.965162 -0.284183 1.47984e-21)
(0.965512 -0.284145 -9.05655e-20)
(0.96587 -0.2841 3.66935e-20)
(0.966225 -0.284055 1.70073e-19)
(0.966562 -0.28401 -1.11316e-19)
(0.966862 -0.28396 -8.25257e-20)
(0.967111 -0.283891 7.0363e-20)
(0.967294 -0.283794 4.2845e-20)
(0.967406 -0.283657 4.74815e-20)
(0.967452 -0.283471 -9.28623e-20)
(0.967441 -0.283234 -1.9393e-19)
(0.967391 -0.282948 1.49759e-19)
(0.96732 -0.282618 2.04543e-19)
(0.967248 -0.282252 4.69818e-20)
(0.967192 -0.28186 -1.03901e-19)
(0.967164 -0.281452 4.60614e-20)
(0.967174 -0.281035 6.79311e-20)
(0.967227 -0.280614 -1.30176e-19)
(0.967325 -0.280189 -3.14643e-20)
(0.967469 -0.279762 -2.08045e-19)
(0.967659 -0.279329 -5.23947e-20)
(0.967895 -0.278889 -3.20244e-20)
(0.968176 -0.278442 1.1771e-19)
(0.968503 -0.277982 -1.48837e-19)
(0.968874 -0.277509 3.72522e-20)
(0.969289 -0.277018 5.10482e-20)
(0.969749 -0.2765 7.33632e-21)
(0.970252 -0.275947 -2.02896e-19)
(0.970799 -0.27535 -1.76202e-19)
(0.971388 -0.274697 -8.41752e-20)
(0.97202 -0.273973 -4.39273e-20)
(0.972693 -0.273157 -9.685e-20)
(0.973403 -0.272227 1.54143e-19)
(0.974144 -0.271149 -1.5115e-19)
(0.974905 -0.269886 1.23644e-18)
(0.975665 -0.2684 -7.53459e-19)
(0.9764 -0.266652 -2.67893e-18)
(0.977062 -0.264598 8.42646e-20)
(0.977589 -0.262224 3.61483e-18)
(0.977852 -0.259564 -2.0151e-18)
(0.977853 -0.256799 -2.34436e-18)
(0.977907 -0.253718 -3.8801e-18)
(0.977053 -0.251543 -1.23187e-17)
(0.97421 -0.258009 -9.31686e-18)
(0.989127 -0.262431 6.78136e-18)
(0.96127 -0.285187 -1.69865e-21)
(0.961626 -0.285182 2.4554e-21)
(0.961844 -0.285158 5.03124e-22)
(0.962041 -0.285156 9.2485e-21)
(0.962254 -0.285177 -1.40452e-20)
(0.962481 -0.285199 -2.85167e-20)
(0.962712 -0.285209 1.0353e-20)
(0.96294 -0.28523 -1.32447e-20)
(0.963169 -0.285293 2.92145e-20)
(0.963404 -0.285407 -5.75908e-21)
(0.963647 -0.285551 -1.86423e-20)
(0.963904 -0.285693 1.56844e-20)
(0.964177 -0.285802 2.47826e-20)
(0.96447 -0.285865 6.72402e-20)
(0.964783 -0.285881 -1.22152e-19)
(0.965118 -0.285862 6.20188e-20)
(0.965474 -0.285825 9.29354e-21)
(0.965849 -0.285785 -6.03355e-20)
(0.966239 -0.28575 -3.68276e-20)
(0.966631 -0.285724 1.2088e-19)
(0.967012 -0.285704 -1.24939e-19)
(0.967364 -0.285679 3.79397e-20)
(0.967668 -0.285639 -9.7513e-20)
(0.967911 -0.285571 1.60864e-19)
(0.968085 -0.285462 -3.20869e-20)
(0.968191 -0.285306 -8.62859e-20)
(0.968238 -0.285097 7.07783e-20)
(0.968239 -0.284836 1.27424e-19)
(0.968213 -0.284527 -1.19158e-19)
(0.968179 -0.284177 7.22764e-20)
(0.968154 -0.283795 -2.25035e-19)
(0.968152 -0.283389 -2.06907e-20)
(0.968185 -0.282966 9.40125e-20)
(0.968259 -0.282527 -5.29049e-20)
(0.96838 -0.282077 -9.65996e-20)
(0.968551 -0.281614 -2.15382e-19)
(0.968773 -0.281139 2.69319e-19)
(0.969048 -0.280652 -9.21736e-20)
(0.969378 -0.280148 7.40005e-20)
(0.969762 -0.279626 1.22637e-19)
(0.970202 -0.279081 7.6447e-20)
(0.970697 -0.278503 -2.74077e-20)
(0.971248 -0.277881 9.32202e-20)
(0.971852 -0.277205 1.06209e-19)