/*--------------------------------*- C++ -*----------------------------------*\
  =========                 |
  \\      /  F ield         | OpenFOAM: The Open Source CFD Toolbox
   \\    /   O peration     | Website:  https://openfoam.org
    \\  /    A nd           | Version:  6.0
     \\/     M anipulation  |
\*---------------------------------------------------------------------------*/
FoamFile
{
    version     2.0;
    format      ascii;
    class       surfaceScalarField;
    location    "7";
    object      phi;
}
// * * * * * * * * * * * * * * * * * * * * * * * * * * * * * * * * * * * * * //

dimensions      [0 3 -1 0 0 0 0];

internalField   nonuniform List<scalar> 
26699
(
2.0051e-05
0.005201
6.1893e-10
4.0126e-05
0.0051116
5.9639e-05
0.0049351
7.8188e-05
0.0046741
9.5416e-05
0.0043332
0.00011102
0.0039182
0.00012472
0.0034362
0.00013626
0.0028953
0.00014547
0.002305
0.00015181
0.0016755
0.00015718
0.0010154
0.00046496
3.4431e-05
2.005e-05
0.0051809
1.8945e-09
4.0128e-05
0.0050916
5.964e-05
0.0049156
7.8191e-05
0.0046556
9.5417e-05
0.004316
0.00011103
0.0039026
0.00012471
0.0034225
0.00013625
0.0028838
0.00014546
0.0022958
0.00015106
0.0016699
0.00015893
0.0010075
0.00055883
6.5056e-05
2.005e-05
0.0051609
3.3846e-09
4.0129e-05
0.0050715
5.9642e-05
0.004896
7.8194e-05
0.004637
9.542e-05
0.0042988
0.00011103
0.003887
0.00012471
0.0034088
0.00013623
0.0028723
0.00014547
0.0022865
0.0001503
0.0016651
0.0001602
0.00099762
0.00062881
9.0225e-05
2.005e-05
0.0051408
4.9285e-09
4.013e-05
0.0050514
5.9644e-05
0.0048765
7.8197e-05
0.0046185
9.5423e-05
0.0042816
0.00011103
0.0038714
0.00012471
0.0033951
0.00013621
0.0028608
0.00014552
0.0022772
0.00014956
0.001661
0.00016094
0.00098624
0.00067931
0.00011044
2.0049e-05
0.0051208
6.4794e-09
4.0131e-05
0.0050313
5.9646e-05
0.004857
7.82e-05
0.0045999
9.5427e-05
0.0042643
0.00011103
0.0038558
0.0001247
0.0033815
0.00013618
0.0028493
0.00014559
0.0022678
0.00014887
0.0016578
0.00016115
0.00097396
0.00071398
0.00012648
2.0049e-05
0.0051007
8.0366e-09
4.0132e-05
0.0050112
5.9648e-05
0.0048375
7.8203e-05
0.0045813
9.543e-05
0.0042471
0.00011103
0.0038402
0.0001247
0.0033678
0.00013615
0.0028379
0.00014569
0.0022582
0.00014824
0.0016552
0.00016091
0.00096129
0.00073586
0.00013903
2.0049e-05
0.0050807
9.6001e-09
4.0133e-05
0.0049912
5.9651e-05
0.004818
7.8207e-05
0.0045628
9.5433e-05
0.0042299
0.00011104
0.0038246
0.0001247
0.0033541
0.00013612
0.0028264
0.0001458
0.0022486
0.00014771
0.0016533
0.00016031
0.00094869
0.00074751
0.00014866
2.0049e-05
0.0050606
1.117e-08
4.0134e-05
0.0049711
5.9653e-05
0.0047985
7.821e-05
0.0045442
9.5437e-05
0.0042126
0.00011104
0.003809
0.0001247
0.0033405
0.00013609
0.002815
0.00014593
0.0022387
0.00014727
0.001652
0.00015943
0.00093652
0.0007511
0.00015585
2.0048e-05
0.0050405
1.2746e-08
4.0135e-05
0.004951
5.9655e-05
0.0047789
7.8213e-05
0.0045257
9.544e-05
0.0041954
0.00011104
0.0037934
0.0001247
0.0033268
0.00013605
0.0028037
0.00014606
0.0022287
0.00014694
0.0016511
0.00015838
0.00092508
0.00074843
0.00016104
2.0048e-05
0.0050205
1.4328e-08
4.0136e-05
0.0049309
5.9657e-05
0.0047594
7.8216e-05
0.0045071
9.5443e-05
0.0041782
0.00011104
0.0037778
0.00012471
0.0033131
0.000136
0.0027924
0.00014621
0.0022185
0.00014671
0.0016506
0.00015722
0.00091458
0.00074103
0.00016462
2.0048e-05
0.0050004
1.5918e-08
4.0137e-05
0.0049108
5.9659e-05
0.0047399
7.8219e-05
0.0044886
9.5447e-05
0.004161
0.00011105
0.0037622
0.00012471
0.0032995
0.00013595
0.0027812
0.00014635
0.0022081
0.0001466
0.0016503
0.00015601
0.00090516
0.00073013
0.00016691
2.0048e-05
0.0049804
1.7513e-08
4.0138e-05
0.0048907
5.9662e-05
0.0047204
7.8222e-05
0.00447
9.545e-05
0.0041437
0.00011105
0.0037466
0.00012472
0.0032858
0.0001359
0.00277
0.00014649
0.0021975
0.00014659
0.0016502
0.00015482
0.00089693
0.00071678
0.00016818
2.0047e-05
0.0049603
1.9116e-08
4.0139e-05
0.0048706
5.9664e-05
0.0047008
7.8225e-05
0.0044514
9.5454e-05
0.0041265
0.00011105
0.003731
0.00012472
0.0032721
0.00013584
0.0027589
0.00014662
0.0021867
0.00014667
0.0016502
0.00015369
0.00088991
0.00070179
0.00016867
2.0047e-05
0.0049402
2.0725e-08
4.014e-05
0.0048505
5.9666e-05
0.0046813
7.8229e-05
0.0044329
9.5457e-05
0.0041093
0.00011106
0.0037154
0.00012473
0.0032585
0.00013579
0.0027478
0.00014675
0.0021758
0.00014685
0.0016501
0.00015264
0.00088412
0.00068584
0.00016859
2.0047e-05
0.0049201
2.2342e-08
4.0141e-05
0.0048304
5.9668e-05
0.0046618
7.8232e-05
0.0044143
9.5461e-05
0.004092
0.00011106
0.0036998
0.00012474
0.0032448
0.00013572
0.0027368
0.00014686
0.0021646
0.0001471
0.0016499
0.0001517
0.00087951
0.00066947
0.00016808
2.0046e-05
0.0049001
2.3967e-08
4.0142e-05
0.0048103
5.9671e-05
0.0046423
7.8235e-05
0.0043957
9.5465e-05
0.0040748
0.00011106
0.0036842
0.00012475
0.0032311
0.00013566
0.0027259
0.00014696
0.0021533
0.00014741
0.0016494
0.0001509
0.00087603
0.00065309
0.00016728
2.0046e-05
0.00488
2.5599e-08
4.0143e-05
0.0047902
5.9673e-05
0.0046227
7.8238e-05
0.0043772
9.5468e-05
0.0040576
0.00011106
0.0036686
0.00012477
0.0032174
0.00013559
0.0027151
0.00014704
0.0021419
0.00014778
0.0016487
0.00015023
0.00087358
0.00063702
0.00016629
2.0046e-05
0.0048599
2.7239e-08
4.0144e-05
0.0047701
5.9675e-05
0.0046032
7.8242e-05
0.0043586
9.5472e-05
0.0040404
0.00011107
0.003653
0.00012478
0.0032037
0.00013552
0.0027044
0.00014711
0.0021303
0.0001482
0.0016476
0.00014969
0.00087209
0.0006215
0.00016521
2.0045e-05
0.0048399
2.8887e-08
4.0145e-05
0.00475
5.9677e-05
0.0045837
7.8245e-05
0.00434
9.5476e-05
0.0040231
0.00011107
0.0036374
0.0001248
0.0031899
0.00013545
0.0026937
0.00014715
0.0021186
0.00014865
0.0016461
0.0001493
0.00087144
0.0006067
0.0001641
2.0045e-05
0.0048198
3.0543e-08
4.0146e-05
0.0047299
5.9679e-05
0.0045641
7.8248e-05
0.0043215
9.548e-05
0.0040059
0.00011107
0.0036218
0.00012482
0.0031762
0.00013538
0.0026832
0.00014718
0.0021068
0.00014912
0.0016441
0.00014904
0.00087152
0.00059273
0.00016301
2.0045e-05
0.0047997
3.2207e-08
4.0147e-05
0.0047098
5.9682e-05
0.0045446
7.8251e-05
0.0043029
9.5484e-05
0.0039887
0.00011107
0.0036062
0.00012484
0.0031624
0.00013532
0.0026727
0.00014718
0.0020949
0.00014961
0.0016417
0.0001489
0.00087223
0.00057965
0.00016198
2.0045e-05
0.0047796
3.388e-08
4.0148e-05
0.0046897
5.9684e-05
0.0045251
7.8255e-05
0.0042843
9.5488e-05
0.0039714
0.00011107
0.0035906
0.00012487
0.0031486
0.00013525
0.0026623
0.00014717
0.002083
0.0001501
0.0016388
0.00014888
0.00087344
0.0005675
0.00016103
2.0044e-05
0.0047595
3.5561e-08
4.0149e-05
0.0046696
5.9686e-05
0.0045055
7.8258e-05
0.0042658
9.5492e-05
0.0039542
0.00011107
0.0035751
0.00012489
0.0031348
0.00013518
0.002652
0.00014713
0.0020711
0.00015059
0.0016353
0.00014897
0.00087506
0.00055629
0.00016019
2.0044e-05
0.0047395
3.725e-08
4.015e-05
0.0046495
5.9688e-05
0.004486
7.8261e-05
0.0042472
9.5496e-05
0.003937
0.00011107
0.0035595
0.00012492
0.0031209
0.00013512
0.0026418
0.00014708
0.0020591
0.00015106
0.0016313
0.00014915
0.00087697
0.00054598
0.00015945
2.0044e-05
0.0047194
3.8948e-08
4.0151e-05
0.0046294
5.9691e-05
0.0044665
7.8265e-05
0.0042286
9.55e-05
0.0039197
0.00011107
0.0035439
0.00012495
0.0031071
0.00013506
0.0026317
0.00014701
0.0020472
0.00015152
0.0016268
0.00014941
0.00087909
0.00053654
0.00015884
2.0043e-05
0.0046993
4.0654e-08
4.0152e-05
0.0046093
5.9693e-05
0.0044469
7.8268e-05
0.00421
9.5505e-05
0.0039025
0.00011107
0.0035283
0.00012498
0.0030932
0.00013501
0.0026217
0.00014692
0.0020353
0.00015196
0.0016218
0.00014973
0.00088131
0.00052793
0.00015835
2.0043e-05
0.0046792
4.2369e-08
4.0153e-05
0.0045892
5.9695e-05
0.0044274
7.8271e-05
0.0041915
9.5509e-05
0.0038853
0.00011107
0.0035128
0.00012501
0.0030792
0.00013496
0.0026117
0.00014681
0.0020234
0.00015237
0.0016162
0.00015011
0.00088357
0.00052008
0.00015796
2.0042e-05
0.0046591
4.4093e-08
4.0154e-05
0.0045691
5.9697e-05
0.0044078
7.8275e-05
0.0041729
9.5514e-05
0.003868
0.00011107
0.0034972
0.00012504
0.0030652
0.00013491
0.0026018
0.00014669
0.0020116
0.00015275
0.0016101
0.00015054
0.00088579
0.00051292
0.00015769
2.0042e-05
0.004639
4.5825e-08
4.0155e-05
0.004549
5.97e-05
0.0043883
7.8278e-05
0.0041543
9.5519e-05
0.0038508
0.00011107
0.0034817
0.00012508
0.0030512
0.00013488
0.002592
0.00014656
0.002
0.0001531
0.0016036
0.00015099
0.00088789
0.0005064
0.00015752
2.0042e-05
0.004619
4.7566e-08
4.0156e-05
0.0045289
5.9702e-05
0.0043687
7.8281e-05
0.0041357
9.5524e-05
0.0038335
0.00011107
0.0034661
0.00012511
0.0030372
0.00013484
0.0025823
0.00014641
0.0019884
0.00015341
0.0015966
0.00015147
0.00088983
0.00050044
0.00015743
2.0041e-05
0.0045989
4.9315e-08
4.0157e-05
0.0045087
5.9704e-05
0.0043492
7.8285e-05
0.0041172
9.5529e-05
0.0038163
0.00011107
0.0034506
0.00012515
0.0030231
0.00013482
0.0025726
0.00014626
0.001977
0.00015369
0.0015892
0.00015197
0.00089155
0.00049498
0.00015743
2.0041e-05
0.0045788
5.1074e-08
4.0158e-05
0.0044886
5.9707e-05
0.0043296
7.8288e-05
0.0040986
9.5534e-05
0.003799
0.00011107
0.003435
0.00012519
0.003009
0.0001348
0.002563
0.00014609
0.0019657
0.00015393
0.0015813
0.00015247
0.00089302
0.00048995
0.0001575
2.0041e-05
0.0045587
5.2841e-08
4.0159e-05
0.0044685
5.9709e-05
0.0043101
7.8292e-05
0.00408
9.554e-05
0.0037818
0.00011106
0.0034195
0.00012523
0.0029948
0.00013479
0.0025535
0.00014592
0.0019545
0.00015413
0.0015731
0.00015296
0.00089419
0.00048529
0.00015762
2.004e-05
0.0045386
5.4617e-08
4.016e-05
0.0044484
5.9711e-05
0.0042905
7.8295e-05
0.0040614
9.5546e-05
0.0037645
0.00011106
0.003404
0.00012527
0.0029806
0.00013479
0.0025439
0.00014574
0.0019436
0.0001543
0.0015646
0.00015344
0.00089504
0.00048094
0.00015779
2.004e-05
0.0045185
5.6403e-08
4.0161e-05
0.0044283
5.9714e-05
0.004271
7.8299e-05
0.0040428
9.5551e-05
0.0037473
0.00011105
0.0033885
0.0001253
0.0029664
0.00013479
0.0025345
0.00014556
0.0019328
0.00015443
0.0015557
0.00015391
0.00089556
0.00047686
0.000158
2.0039e-05
0.0044984
5.8197e-08
4.0162e-05
0.0044081
5.9716e-05
0.0042514
7.8302e-05
0.0040242
9.5557e-05
0.00373
0.00011105
0.003373
0.00012534
0.0029521
0.0001348
0.002525
0.00014538
0.0019222
0.00015452
0.0015465
0.00015436
0.00089572
0.00047298
0.00015823
2.0039e-05
0.0044783
6.0001e-08
4.0163e-05
0.004388
5.9718e-05
0.0042319
7.8306e-05
0.0040056
9.5564e-05
0.0037128
0.00011104
0.0033575
0.00012538
0.0029377
0.00013483
0.0025156
0.00014519
0.0019119
0.00015458
0.0015372
0.00015478
0.00089552
0.00046928
0.00015849
2.0039e-05
0.0044582
6.1815e-08
4.0164e-05
0.0043679
5.9721e-05
0.0042123
7.8309e-05
0.0039871
9.557e-05
0.0036955
0.00011104
0.0033421
0.00012542
0.0029234
0.00013486
0.0025061
0.00014501
0.0019017
0.00015461
0.0015276
0.00015518
0.00089495
0.0004657
0.00015875
2.0038e-05
0.0044381
6.3637e-08
4.0165e-05
0.0043478
5.9723e-05
0.0041928
7.8313e-05
0.0039685
9.5577e-05
0.0036782
0.00011103
0.0033266
0.00012546
0.0029089
0.00013489
0.0024967
0.00014483
0.0018918
0.0001546
0.0015178
0.00015554
0.00089402
0.00046222
0.00015902
2.0038e-05
0.004418
6.547e-08
4.0166e-05
0.0043276
5.9725e-05
0.0041732
7.8316e-05
0.0039499
9.5584e-05
0.003661
0.00011103
0.0033112
0.0001255
0.0028945
0.00013494
0.0024872
0.00014466
0.0018821
0.00015457
0.0015079
0.00015587
0.00089272
0.0004588
0.00015929
2.0037e-05
0.0043979
6.7312e-08
4.0167e-05
0.0043075
5.9728e-05
0.0041536
7.832e-05
0.0039313
9.5591e-05
0.0036437
0.00011102
0.0032957
0.00012553
0.0028799
0.00013499
0.0024778
0.00014449
0.0018726
0.00015451
0.0014979
0.00015617
0.00089107
0.00045542
0.00015955
2.0037e-05
0.0043778
6.9164e-08
4.0168e-05
0.0042874
5.973e-05
0.0041341
7.8323e-05
0.0039127
9.5599e-05
0.0036264
0.00011101
0.0032803
0.00012557
0.0028654
0.00013506
0.0024683
0.00014433
0.0018633
0.00015443
0.0014878
0.00015643
0.00088907
0.00045205
0.0001598
2.0037e-05
0.0043577
7.1026e-08
4.0169e-05
0.0042672
5.9733e-05
0.0041145
7.8327e-05
0.0038941
9.5607e-05
0.0036092
0.000111
0.0032649
0.0001256
0.0028508
0.00013513
0.0024588
0.00014418
0.0018542
0.00015433
0.0014776
0.00015666
0.00088674
0.00044867
0.00016003
2.0036e-05
0.0043376
7.2898e-08
4.017e-05
0.0042471
5.9735e-05
0.004095
7.833e-05
0.0038755
9.5615e-05
0.0035919
0.00011099
0.0032496
0.00012563
0.0028361
0.0001352
0.0024492
0.00014403
0.0018454
0.00015421
0.0014674
0.00015685
0.00088409
0.00044528
0.00016025
2.0036e-05
0.0043174
7.4781e-08
4.0171e-05
0.004227
5.9738e-05
0.0040754
7.8334e-05
0.0038569
9.5623e-05
0.0035746
0.00011099
0.0032342
0.00012566
0.0028215
0.00013529
0.0024396
0.0001439
0.0018368
0.00015407
0.0014573
0.00015702
0.00088115
0.00044185
0.00016044
2.0035e-05
0.0042973
7.6674e-08
4.0172e-05
0.0042068
5.974e-05
0.0040558
7.8337e-05
0.0038383
9.5632e-05
0.0035573
0.00011098
0.0032188
0.00012569
0.0028068
0.00013538
0.0024299
0.00014378
0.0018284
0.00015392
0.0014471
0.00015715
0.00087793
0.00043838
0.00016061
2.0035e-05
0.0042772
7.8577e-08
4.0173e-05
0.0041867
5.9742e-05
0.0040362
7.834e-05
0.0038197
9.5641e-05
0.00354
0.00011097
0.0032035
0.00012572
0.002792
0.00013548
0.0024201
0.00014367
0.0018202
0.00015376
0.001437
0.00015725
0.00087444
0.00043487
0.00016076
2.0034e-05
0.0042571
8.0492e-08
4.0174e-05
0.0041666
5.9745e-05
0.0040167
7.8344e-05
0.0038011
9.565e-05
0.0035227
0.00011096
0.0031882
0.00012574
0.0027772
0.00013558
0.0024103
0.00014358
0.0018122
0.00015359
0.001427
0.00015732
0.00087071
0.0004313
0.00016089
2.0034e-05
0.004237
8.2417e-08
4.0175e-05
0.0041464
5.9748e-05
0.0039971
7.8347e-05
0.0037825
9.566e-05
0.0035054
0.00011095
0.0031729
0.00012576
0.0027624
0.00013569
0.0024004
0.0001435
0.0018044
0.00015342
0.0014171
0.00015736
0.00086677
0.00042768
0.00016099
2.0033e-05
0.0042169
8.4353e-08
4.0176e-05
0.0041263
5.975e-05
0.0039775
7.8351e-05
0.0037639
9.567e-05
0.003488
0.00011094
0.0031576
0.00012578
0.0027476
0.0001358
0.0023903
0.00014343
0.0017967
0.00015324
0.0014073
0.00015739
0.00086263
0.000424
0.00016107
2.0033e-05
0.0041968
8.63e-08
4.0177e-05
0.0041061
5.9753e-05
0.003958
7.8354e-05
0.0037453
9.568e-05
0.0034707
0.00011093
0.0031424
0.0001258
0.0027327
0.00013591
0.0023802
0.00014338
0.0017893
0.00015307
0.0013976
0.00015739
0.00085831
0.00042026
0.00016112
2.0033e-05
0.0041766
8.8259e-08
4.0178e-05
0.004086
5.9755e-05
0.0039384
7.8358e-05
0.0037267
9.5691e-05
0.0034534
0.00011092
0.0031272
0.00012581
0.0027178
0.00013603
0.00237
0.00014334
0.001782
0.00015289
0.001388
0.00015737
0.00085383
0.00041647
0.00016115
2.0032e-05
0.0041565
9.023e-08
4.0179e-05
0.0040658
5.9758e-05
0.0039188
7.8361e-05
0.0037081
9.5702e-05
0.003436
0.00011091
0.003112
0.00012582
0.0027029
0.00013616
0.0023597
0.00014332
0.0017748
0.00015272
0.0013787
0.00015733
0.00084922
0.00041263
0.00016117
2.0032e-05
0.0041364
9.2212e-08
4.018e-05
0.0040457
5.9761e-05
0.0038992
7.8364e-05
0.0036895
9.5714e-05
0.0034187
0.0001109
0.0030968
0.00012582
0.002688
0.00013628
0.0023492
0.00014331
0.0017678
0.00015255
0.0013694
0.00015728
0.00084449
0.00040875
0.00016116
2.0031e-05
0.0041163
9.4206e-08
4.0181e-05
0.0040255
5.9763e-05
0.0038796
7.8368e-05
0.0036709
9.5725e-05
0.0034013
0.00011089
0.0030816
0.00012583
0.0026731
0.00013641
0.0023386
0.00014332
0.0017609
0.00015239
0.0013604
0.00015721
0.00083967
0.00040483
0.00016114
2.0031e-05
0.0040961
9.6212e-08
4.0182e-05
0.0040054
5.9766e-05
0.0038601
7.8371e-05
0.0036523
9.5737e-05
0.003384
0.00011089
0.0030664
0.00012583
0.0026581
0.00013653
0.0023279
0.00014334
0.001754
0.00015224
0.0013515
0.00015714
0.00083477
0.00040087
0.0001611
2.003e-05
0.004076
9.8231e-08
4.0183e-05
0.0039852
5.9769e-05
0.0038405
7.8374e-05
0.0036337
9.575e-05
0.0033666
0.00011088
0.0030513
0.00012583
0.0026432
0.00013666
0.0023171
0.00014338
0.0017473
0.0001521
0.0013427
0.00015706
0.0008298
0.00039688
0.00016105
2.003e-05
0.0040559
1.0026e-07
4.0184e-05
0.0039651
5.9771e-05
0.0038209
7.8377e-05
0.0036151
9.5763e-05
0.0033492
0.00011087
0.0030362
0.00012582
0.0026282
0.00013679
0.0023061
0.00014343
0.0017407
0.00015197
0.0013342
0.00015697
0.0008248
0.00039287
0.00016098
2.0029e-05
0.0040357
1.0231e-07
4.0185e-05
0.0039449
5.9774e-05
0.0038013
7.8381e-05
0.0035965
9.5776e-05
0.0033318
0.00011086
0.0030211
0.00012581
0.0026133
0.00013691
0.002295
0.00014349
0.0017341
0.00015185
0.0013259
0.00015688
0.00081976
0.00038884
0.00016091
2.0029e-05
0.0040156
1.0436e-07
4.0186e-05
0.0039248
5.9777e-05
0.0037817
7.8384e-05
0.0035779
9.5789e-05
0.0033144
0.00011086
0.0030061
0.0001258
0.0025983
0.00013704
0.0022838
0.00014357
0.0017276
0.00015175
0.0013177
0.00015679
0.00081471
0.00038481
0.00016083
2.0028e-05
0.0039955
1.0643e-07
4.0187e-05
0.0039046
5.978e-05
0.0037621
7.8387e-05
0.0035593
9.5803e-05
0.003297
0.00011085
0.002991
0.00012579
0.0025834
0.00013716
0.0022724
0.00014366
0.0017211
0.00015166
0.0013097
0.00015671
0.00080966
0.00038077
0.00016075
2.0028e-05
0.0039753
1.0851e-07
4.0188e-05
0.0038845
5.9783e-05
0.0037425
7.839e-05
0.0035407
9.5817e-05
0.0032796
0.00011085
0.002976
0.00012577
0.0025685
0.00013728
0.0022609
0.00014376
0.0017146
0.00015158
0.0013019
0.00015662
0.00080462
0.00037673
0.00016066
2.0027e-05
0.0039552
1.1061e-07
4.0189e-05
0.0038643
5.9786e-05
0.0037229
7.8393e-05
0.003522
9.5832e-05
0.0032621
0.00011084
0.002961
0.00012575
0.0025536
0.0001374
0.0022492
0.00014387
0.0017081
0.00015152
0.0012942
0.00015654
0.0007996
0.00037271
0.00016057
2.0027e-05
0.0039351
1.1272e-07
4.019e-05
0.0038441
5.9789e-05
0.0037033
7.8396e-05
0.0035034
9.5847e-05
0.0032447
0.00011084
0.002946
0.00012572
0.0025387
0.00013751
0.0022375
0.00014399
0.0017016
0.00015148
0.0012867
0.00015647
0.00079461
0.0003687
0.00016048
2.0026e-05
0.0039149
1.1485e-07
4.0191e-05
0.003824
5.9792e-05
0.0036837
7.8399e-05
0.0034848
9.5862e-05
0.0032272
0.00011084
0.002931
0.0001257
0.0025238
0.00013762
0.0022255
0.00014412
0.0016952
0.00015145
0.0012794
0.00015641
0.00078966
0.00036471
0.00016039
2.0026e-05
0.0038948
1.1698e-07
4.0192e-05
0.0038038
5.9795e-05
0.0036641
7.8401e-05
0.0034662
9.5877e-05
0.0032097
0.00011084
0.002916
0.00012567
0.002509
0.00013773
0.0022135
0.00014425
0.0016886
0.00015144
0.0012722
0.00015635
0.00078475
0.00036075
0.00016031
2.0025e-05
0.0038746
1.1914e-07
4.0193e-05
0.0037836
5.9798e-05
0.0036445
7.8404e-05
0.0034476
9.5893e-05
0.0031922
0.00011084
0.0029011
0.00012564
0.0024942
0.00013783
0.0022013
0.0001444
0.0016821
0.00015144
0.0012651
0.0001563
0.00077988
0.00035682
0.00016023
2.0025e-05
0.0038545
1.213e-07
4.0194e-05
0.0037635
5.9801e-05
0.0036249
7.8407e-05
0.003429
9.5908e-05
0.0031747
0.00011084
0.0028861
0.0001256
0.0024795
0.00013792
0.002189
0.00014455
0.0016754
0.00015146
0.0012582
0.00015627
0.00077508
0.00035292
0.00016016
2.0024e-05
0.0038343
1.2349e-07
4.0196e-05
0.0037433
5.9804e-05
0.0036053
7.8409e-05
0.0034104
9.5924e-05
0.0031572
0.00011084
0.0028712
0.00012556
0.0024647
0.00013801
0.0021765
0.0001447
0.0016687
0.00015149
0.0012514
0.00015624
0.00077033
0.00034907
0.0001601
2.0024e-05
0.0038142
1.2568e-07
4.0197e-05
0.0037231
5.9807e-05
0.0035857
7.8412e-05
0.0033918
9.5941e-05
0.0031397
0.00011085
0.0028563
0.00012553
0.0024501
0.00013809
0.0021639
0.00014486
0.001662
0.00015154
0.0012448
0.00015623
0.00076564
0.00034525
0.00016004
2.0023e-05
0.003794
1.279e-07
4.0198e-05
0.0037029
5.9811e-05
0.0035661
7.8415e-05
0.0033732
9.5957e-05
0.0031222
0.00011086
0.0028414
0.00012548
0.0024354
0.00013817
0.0021513
0.00014502
0.0016551
0.0001516
0.0012382
0.00015623
0.00076101
0.00034149
0.00016
2.0023e-05
0.0037739
1.3012e-07
4.0199e-05
0.0036828
5.9814e-05
0.0035465
7.8417e-05
0.0033546
9.5974e-05
0.0031046
0.00011086
0.0028265
0.00012544
0.0024209
0.00013824
0.0021385
0.00014518
0.0016482
0.00015168
0.0012317
0.00015625
0.00075644
0.00033777
0.00015996
2.0022e-05
0.0037537
1.3237e-07
4.02e-05
0.0036626
5.9817e-05
0.0035268
7.8419e-05
0.003336
9.599e-05
0.003087
0.00011087
0.0028117
0.0001254
0.0024063
0.0001383
0.0021256
0.00014535
0.0016411
0.00015177
0.0012253
0.00015627
0.00075193
0.00033411
0.00015994
2.0022e-05
0.0037336
1.3463e-07
4.0201e-05
0.0036424
5.9821e-05
0.0035072
7.8422e-05
0.0033174
9.6007e-05
0.0030694
0.00011088
0.0027968
0.00012535
0.0023919
0.00013836
0.0021126
0.00014551
0.001634
0.00015186
0.0012189
0.00015631
0.00074749
0.00033049
0.00015993
2.0021e-05
0.0037134
1.369e-07
4.0202e-05
0.0036222
5.9824e-05
0.0034876
7.8424e-05
0.0032988
9.6024e-05
0.0030518
0.0001109
0.0027819
0.00012531
0.0023774
0.00013841
0.0020995
0.00014568
0.0016267
0.00015197
0.0012126
0.00015636
0.0007431
0.00032694
0.00015992
2.0021e-05
0.0036933
1.3919e-07
4.0203e-05
0.003602
5.9828e-05
0.003468
7.8426e-05
0.0032802
9.6041e-05
0.0030342
0.00011091
0.002767
0.00012526
0.0023631
0.00013845
0.0020863
0.00014584
0.0016193
0.00015209
0.0012064
0.00015643
0.00073876
0.00032343
0.00015993
2.002e-05
0.0036731
1.415e-07
4.0205e-05
0.0035819
5.9831e-05
0.0034483
7.8428e-05
0.0032616
9.6058e-05
0.0030166
0.00011093
0.0027522
0.00012521
0.0023488
0.00013848
0.002073
0.000146
0.0016118
0.00015222
0.0012001
0.0001565
0.00073447
0.00031998
0.00015995
2.0019e-05
0.0036529
1.4383e-07
4.0206e-05
0.0035617
5.9835e-05
0.0034287
7.843e-05
0.003243
9.6075e-05
0.002999
0.00011094
0.0027373
0.00012516
0.0023346
0.00013851
0.0020597
0.00014616
0.0016041
0.00015235
0.001194
0.00015659
0.00073024
0.00031659
0.00015998
2.0019e-05
0.0036328
1.4617e-07
4.0207e-05
0.0035415
5.9839e-05
0.0034091
7.8432e-05
0.0032244
9.6092e-05
0.0029813
0.00011096
0.0027224
0.00012512
0.0023204
0.00013853
0.0020462
0.00014631
0.0015963
0.00015249
0.0011878
0.00015669
0.00072604
0.00031325
0.00016002
2.0018e-05
0.0036126
1.4853e-07
4.0208e-05
0.0035213
5.9843e-05
0.0033894
7.8434e-05
0.0032058
9.6109e-05
0.0029636
0.00011099
0.0027075
0.00012507
0.0023064
0.00013854
0.0020328
0.00014646
0.0015884
0.00015264
0.0011816
0.00015679
0.00072189
0.00030997
0.00016008
2.0018e-05
0.0035924
1.5091e-07
4.0209e-05
0.0035011
5.9847e-05
0.0033698
7.8436e-05
0.0031872
9.6125e-05
0.0029459
0.00011101
0.0026927
0.00012502
0.0022923
0.00013855
0.0020192
0.00014661
0.0015804
0.00015279
0.0011754
0.00015691
0.00071776
0.00030674
0.00016014
2.0017e-05
0.0035723
1.533e-07
4.0211e-05
0.0034809
5.985e-05
0.0033502
7.8438e-05
0.0031686
9.6142e-05
0.0029282
0.00011104
0.0026778
0.00012497
0.0022784
0.00013855
0.0020057
0.00014674
0.0015722
0.00015294
0.0011692
0.00015703
0.00071367
0.00030356
0.00016021
2.0017e-05
0.0035521
1.5571e-07
4.0212e-05
0.0034607
5.9854e-05
0.0033305
7.8439e-05
0.0031501
9.6158e-05
0.0029105
0.00011106
0.0026629
0.00012493
0.0022645
0.00013854
0.001992
0.00014687
0.0015639
0.00015309
0.001163
0.00015716
0.0007096
0.00030043
0.00016029
2.0016e-05
0.0035319
1.5815e-07
4.0213e-05
0.0034405
5.9859e-05
0.0033109
7.8441e-05
0.0031315
9.6174e-05
0.0028928
0.00011109
0.0026479
0.00012488
0.0022508
0.00013853
0.0019784
0.000147
0.0015554
0.00015325
0.0011568
0.0001573
0.00070555
0.00029735
0.00016038
2.0016e-05
0.0035117
1.606e-07
4.0214e-05
0.0034203
5.9863e-05
0.0032912
7.8443e-05
0.0031129
9.619e-05
0.002875
0.00011112
0.002633
0.00012484
0.002237
0.00013851
0.0019647
0.00014712
0.0015468
0.0001534
0.0011505
0.00015744
0.00070152
0.00029432
0.00016047
2.0015e-05
0.0034916
1.6307e-07
4.0215e-05
0.0034001
5.9867e-05
0.0032716
7.8444e-05
0.0030943
9.6206e-05
0.0028573
0.00011116
0.0026181
0.0001248
0.0022234
0.00013849
0.001951
0.00014722
0.001538
0.00015356
0.0011441
0.00015758
0.00069749
0.00029133
0.00016057
2.0014e-05
0.0034714
1.6556e-07
4.0217e-05
0.0033799
5.9871e-05
0.0032519
7.8446e-05
0.0030757
9.6221e-05
0.0028395
0.00011119
0.0026031
0.00012476
0.0022098
0.00013846
0.0019373
0.00014733
0.0015292
0.00015371
0.0011378
0.00015773
0.00069347
0.00028838
0.00016068
2.0014e-05
0.0034512
1.6807e-07
4.0218e-05
0.0033597
5.9876e-05
0.0032323
7.8447e-05
0.0030572
9.6236e-05
0.0028217
0.00011123
0.0025881
0.00012472
0.0021963
0.00013842
0.0019236
0.00014742
0.0015202
0.00015386
0.0011313
0.00015788
0.00068944
0.00028547
0.00016079
2.0013e-05
0.003431
1.706e-07
4.0219e-05
0.0033395
5.988e-05
0.0032126
7.8449e-05
0.0030386
9.625e-05
0.0028039
0.00011127
0.0025731
0.00012469
0.0021829
0.00013838
0.0019099
0.0001475
0.0015111
0.000154
0.0011248
0.00015803
0.00068541
0.0002826
0.00016091
2.0013e-05
0.0034108
1.7315e-07
4.0221e-05
0.0033193
5.9885e-05
0.0031929
7.8451e-05
0.00302
9.6264e-05
0.0027861
0.00011131
0.002558
0.00012465
0.0021696
0.00013834
0.0018963
0.00014758
0.0015018
0.00015414
0.0011183
0.00015819
0.00068136
0.00027976
0.00016102
2.0012e-05
0.0033906
1.7572e-07
4.0222e-05
0.0032991
5.9889e-05
0.0031733
7.8452e-05
0.0030015
9.6278e-05
0.0027683
0.00011135
0.0025429
0.00012463
0.0021563
0.00013829
0.0018826
0.00014764
0.0014925
0.00015428
0.0011116
0.00015834
0.0006773
0.00027696
0.00016114
2.0012e-05
0.0033704
1.7831e-07
4.0223e-05
0.0032789
5.9894e-05
0.0031536
7.8454e-05
0.0029829
9.6291e-05
0.0027504
0.00011139
0.0025278
0.0001246
0.0021431
0.00013824
0.001869
0.0001477
0.001483
0.00015441
0.0011049
0.00015849
0.00067322
0.00027418
0.00016126
2.0011e-05
0.0033503
1.8092e-07
4.0224e-05
0.0032587
5.9899e-05
0.0031339
7.8455e-05
0.0029644
9.6303e-05
0.0027326
0.00011144
0.0025127
0.00012458
0.00213
0.00013818
0.0018553
0.00014775
0.0014734
0.00015453
0.0010982
0.00015863
0.00066912
0.00027143
0.00016138
2.001e-05
0.0033301
1.8356e-07
4.0226e-05
0.0032385
5.9904e-05
0.0031143
7.8457e-05
0.0029458
9.6315e-05
0.0027147
0.00011149
0.0024975
0.00012456
0.0021169
0.00013812
0.0018418
0.00014779
0.0014638
0.00015464
0.0010913
0.00015878
0.00066499
0.00026871
0.0001615
2.001e-05
0.0033099
1.8622e-07
4.0227e-05
0.0032182
5.9909e-05
0.0030946
7.8458e-05
0.0029273
9.6327e-05
0.0026968
0.00011153
0.0024823
0.00012454
0.0021039
0.00013806
0.0018283
0.00014782
0.001454
0.00015475
0.0010844
0.00015891
0.00066082
0.00026601
0.00016162
2.0009e-05
0.0032897
1.889e-07
4.0228e-05
0.003198
5.9914e-05
0.0030749
7.846e-05
0.0029087
9.6337e-05
0.002679
0.00011158
0.0024671
0.00012453
0.0020909
0.000138
0.0018148
0.00014785
0.0014442
0.00015485
0.0010774
0.00015905
0.00065663
0.00026332
0.00016173
2.0009e-05
0.0032695
1.916e-07
4.023e-05
0.0031778
5.9919e-05
0.0030552
7.8462e-05
0.0028902
9.6347e-05
0.0026611
0.00011163
0.0024518
0.00012452
0.0020781
0.00013794
0.0018014
0.00014786
0.0014342
0.00015494
0.0010703
0.00015918
0.00065239
0.00026066
0.00016184
2.0008e-05
0.0032493
1.9433e-07
4.0231e-05
0.0031576
5.9924e-05
0.0030355
7.8464e-05
0.0028716
9.6357e-05
0.0026432
0.00011169
0.0024365
0.00012452
0.0020652
0.00013788
0.001788
0.00014787
0.0014242
0.00015503
0.0010631
0.0001593
0.00064812
0.000258
0.00016195
2.0007e-05
0.0032291
1.9708e-07
4.0232e-05
0.0031373
5.9929e-05
0.0030158
7.8466e-05
0.0028531
9.6365e-05
0.0026253
0.00011174
0.0024211
0.00012452
0.0020524
0.00013781
0.0017747
0.00014787
0.0014142
0.0001551
0.0010559
0.00015941
0.00064381
0.00025537
0.00016205
2.0007e-05
0.0032089
1.9986e-07
4.0234e-05
0.0031171
5.9935e-05
0.0029961
7.8468e-05
0.0028346
9.6373e-05
0.0026074
0.00011179
0.0024057
0.00012452
0.0020397
0.00013775
0.0017615
0.00014787
0.0014041
0.00015517
0.0010486
0.00015952
0.00063946
0.00025274
0.00016215
2.0006e-05
0.0031886
2.0266e-07
4.0235e-05
0.0030969
5.994e-05
0.0029764
7.847e-05
0.002816
9.638e-05
0.0025895
0.00011185
0.0023902
0.00012453
0.002027
0.00013769
0.0017483
0.00014785
0.0013939
0.00015523
0.0010412
0.00015962
0.00063507
0.00025012
0.00016224
2.0006e-05
0.0031684
2.0549e-07
4.0237e-05
0.0030767
5.9946e-05
0.0029567
7.8472e-05
0.0027975
9.6386e-05
0.0025716
0.0001119
0.0023747
0.00012455
0.0020144
0.00013763
0.0017352
0.00014784
0.0013837
0.00015527
0.0010338
0.00015971
0.00063063
0.00024751
0.00016232
2.0005e-05
0.0031482
2.0834e-07
4.0238e-05
0.0030564
5.9952e-05
0.002937
7.8474e-05
0.002779
9.6392e-05
0.0025536
0.00011195
0.0023591
0.00012456
0.0020018
0.00013757
0.0017222
0.00014781
0.0013734
0.00015531
0.0010263
0.0001598
0.00062614
0.0002449
0.0001624
2.0004e-05
0.003128
2.1122e-07
4.024e-05
0.0030362
5.9958e-05
0.0029173
7.8477e-05
0.0027605
9.6396e-05
0.0025357
0.00011201
0.0023435
0.00012459
0.0019892
0.00013751
0.0017093
0.00014778
0.0013632
0.00015535
0.0010187
0.00015987
0.00062162
0.0002423
0.00016247
2.0004e-05
0.0031078
2.1412e-07
4.0241e-05
0.003016
5.9963e-05
0.0028975
7.848e-05
0.0027419
9.64e-05
0.0025178
0.00011207
0.0023279
0.00012461
0.0019766
0.00013746
0.0016965
0.00014775
0.0013529
0.00015537
0.0010111
0.00015994
0.00061705
0.0002397
0.00016254
2.0003e-05
0.0030876
2.1706e-07
4.0242e-05
0.0029957
5.9969e-05
0.0028778
7.8483e-05
0.0027234
9.6403e-05
0.0024999
0.00011212
0.0023121
0.00012464
0.0019641
0.0001374
0.0016837
0.00014771
0.0013426
0.00015539
0.0010034
0.00016
0.00061244
0.00023711
0.00016259
2.0002e-05
0.0030673
2.2002e-07
4.0244e-05
0.0029755
5.9976e-05
0.0028581
7.8486e-05
0.0027049
9.6405e-05
0.002482
0.00011218
0.0022964
0.00012468
0.0019516
0.00013736
0.001671
0.00014767
0.0013323
0.00015539
0.00099571
0.00016005
0.00060778
0.00023451
0.00016264
2.0002e-05
0.0030471
2.2301e-07
4.0245e-05
0.0029552
5.9982e-05
0.0028383
7.8489e-05
0.0026864
9.6406e-05
0.002464
0.00011223
0.0022805
0.00012472
0.0019391
0.00013731
0.0016584
0.00014763
0.0013219
0.0001554
0.00098794
0.00016009
0.00060309
0.00023192
0.00016268
2.0001e-05
0.0030269
2.2603e-07
4.0247e-05
0.002935
5.9988e-05
0.0028186
7.8493e-05
0.0026679
9.6407e-05
0.0024461
0.00011229
0.0022647
0.00012476
0.0019267
0.00013727
0.0016459
0.00014758
0.0013116
0.00015539
0.00098014
0.00016013
0.00059835
0.00022933
0.00016272
2.0001e-05
0.0030067
2.2907e-07
4.0248e-05
0.0029147
5.9995e-05
0.0027989
7.8497e-05
0.0026494
9.6406e-05
0.0024282
0.00011234
0.0022487
0.00012481
0.0019142
0.00013724
0.0016335
0.00014754
0.0013013
0.00015538
0.0009723
0.00016015
0.00059358
0.00022673
0.00016275
2e-05
0.0029864
2.3215e-07
4.025e-05
0.0028945
6.0001e-05
0.0027791
7.8501e-05
0.0026309
9.6405e-05
0.0024103
0.00011239
0.0022327
0.00012486
0.0019017
0.0001372
0.0016212
0.00014749
0.001291
0.00015536
0.00096443
0.00016017
0.00058877
0.00022414
0.00016277
1.9999e-05
0.0029662
2.3526e-07
4.0251e-05
0.0028742
6.0008e-05
0.0027593
7.8505e-05
0.0026124
9.6403e-05
0.0023924
0.00011245
0.0022167
0.00012492
0.0018893
0.00013718
0.0016089
0.00014744
0.0012808
0.00015534