/*--------------------------------*- C++ -*----------------------------------*\
  =========                 |
  \\      /  F ield         | OpenFOAM: The Open Source CFD Toolbox
   \\    /   O peration     | Website:  https://openfoam.org
    \\  /    A nd           | Version:  6.0
     \\/     M anipulation  |
\*---------------------------------------------------------------------------*/
FoamFile
{
    version     2.0;
    format      ascii;
    class       surfaceScalarField;
    location    "5";
    object      phi;
}
// * * * * * * * * * * * * * * * * * * * * * * * * * * * * * * * * * * * * * //

dimensions      [0 3 -1 0 0 0 0];

internalField   nonuniform List<scalar> 
28697
(
2.0051e-05
0.005201
2.2687e-10
4.0126e-05
0.0051116
5.9639e-05
0.0049351
7.8186e-05
0.0046741
9.5416e-05
0.0043332
0.00011102
0.0039182
0.00012472
0.0034362
0.00013626
0.0028953
0.00014546
0.002305
0.00015181
0.0016755
0.00015761
0.001015
0.00046367
3.615e-05
2.0052e-05
0.0051809
6.837e-10
4.0128e-05
0.0050916
5.9641e-05
0.0049155
7.819e-05
0.0046556
9.5419e-05
0.004316
0.00011102
0.0039026
0.00012471
0.0034225
0.00013624
0.0028838
0.00014545
0.0022958
0.00015097
0.00167
0.00016012
0.0010058
0.00055282
7.0965e-05
2.0053e-05
0.0051609
1.1439e-09
4.0129e-05
0.0050715
5.9644e-05
0.004896
7.8193e-05
0.004637
9.5421e-05
0.0042988
0.00011102
0.003887
0.00012471
0.0034088
0.00013622
0.0028723
0.00014546
0.0022865
0.00015004
0.0016654
0.00016187
0.00099398
0.0006152
9.9498e-05
2.0053e-05
0.0051408
1.6062e-09
4.0131e-05
0.0050514
5.9646e-05
0.0048765
7.8196e-05
0.0046185
9.5424e-05
0.0042815
0.00011102
0.0038714
0.00012471
0.0033951
0.0001362
0.0028608
0.00014552
0.0022772
0.00014909
0.0016618
0.00016272
0.00098034
0.0006563
0.00012163
2.0054e-05
0.0051208
2.0706e-09
4.0132e-05
0.0050313
5.9648e-05
0.004857
7.8199e-05
0.0045999
9.5427e-05
0.0042643
0.00011103
0.0038558
0.0001247
0.0033814
0.00013618
0.0028493
0.00014562
0.0022678
0.00014817
0.0016593
0.0001627
0.00096581
0.0006806
0.0001384
2.0054e-05
0.0051007
2.5371e-09
4.0134e-05
0.0050113
5.9651e-05
0.0048375
7.8202e-05
0.0045814
9.543e-05
0.0042471
0.00011103
0.0038402
0.0001247
0.0033678
0.00013615
0.0028379
0.00014575
0.0022582
0.00014734
0.0016577
0.00016195
0.00095121
0.00069182
0.00015073
2.0055e-05
0.0050807
3.0058e-09
4.0136e-05
0.0049912
5.9653e-05
0.004818
7.8205e-05
0.0045628
9.5433e-05
0.0042299
0.00011103
0.0038246
0.0001247
0.0033541
0.00013612
0.0028265
0.00014591
0.0022484
0.00014664
0.0016569
0.00016068
0.00093717
0.00069312
0.00015938
2.0055e-05
0.0050606
3.4766e-09
4.0137e-05
0.0049711
5.9656e-05
0.0047985
7.8208e-05
0.0045443
9.5436e-05
0.0042126
0.00011103
0.003809
0.0001247
0.0033404
0.00013608
0.0028151
0.00014609
0.0022384
0.00014609
0.0016569
0.00015905
0.00092422
0.00068712
0.00016505
2.0056e-05
0.0050405
3.9495e-09
4.0139e-05
0.004951
5.9658e-05
0.0047789
7.8211e-05
0.0045257
9.5439e-05
0.0041954
0.00011103
0.0037934
0.0001247
0.0033268
0.00013603
0.0028037
0.00014628
0.0022281
0.00014571
0.0016575
0.00015724
0.00091269
0.00067599
0.00016837
2.0057e-05
0.0050205
4.4247e-09
4.0141e-05
0.0049309
5.9661e-05
0.0047594
7.8214e-05
0.0045072
9.5442e-05
0.0041782
0.00011104
0.0037778
0.0001247
0.0033131
0.00013598
0.0027925
0.00014648
0.0022176
0.0001455
0.0016585
0.00015537
0.00090283
0.00066144
0.00016991
2.0057e-05
0.0050004
4.9021e-09
4.0142e-05
0.0049108
5.9663e-05
0.0047399
7.8218e-05
0.0044886
9.5445e-05
0.0041609
0.00011104
0.0037622
0.0001247
0.0032994
0.00013592
0.0027812
0.00014669
0.0022069
0.00014546
0.0016597
0.00015355
0.00089474
0.00064486
0.00017013
2.0058e-05
0.0049804
5.3817e-09
4.0144e-05
0.0048908
5.9666e-05
0.0047204
7.8221e-05
0.00447
9.5448e-05
0.0041437
0.00011104
0.0037466
0.00012471
0.0032858
0.00013586
0.0027701
0.00014689
0.0021958
0.00014557
0.001661
0.00015186
0.00088845
0.0006273
0.00016942
2.0058e-05
0.0049603
5.8636e-09
4.0145e-05
0.0048707
5.9668e-05
0.0047008
7.8224e-05
0.0044515
9.5451e-05
0.0041265
0.00011104
0.003731
0.00012472
0.0032721
0.00013579
0.002759
0.00014707
0.0021845
0.00014583
0.0016623
0.00015036
0.00088392
0.00060957
0.0001681
2.0059e-05
0.0049402
6.3478e-09
4.0147e-05
0.0048506
5.9671e-05
0.0046813
7.8227e-05
0.0044329
9.5454e-05
0.0041093
0.00011104
0.0037155
0.00012472
0.0032584
0.00013571
0.002748
0.00014724
0.002173
0.00014621
0.0016633
0.00014909
0.00088104
0.00059225
0.00016641
2.006e-05
0.0049202
6.8343e-09
4.0149e-05
0.0048305
5.9673e-05
0.0046618
7.823e-05
0.0044144
9.5458e-05
0.004092
0.00011105
0.0036999
0.00012473
0.0032447
0.00013563
0.0027371
0.00014739
0.0021613
0.00014669
0.001664
0.00014806
0.00087967
0.00057576
0.00016454
2.006e-05
0.0049001
7.3231e-09
4.015e-05
0.0048104
5.9676e-05
0.0046423
7.8234e-05
0.0043958
9.5461e-05
0.0040748
0.00011105
0.0036843
0.00012475
0.003231
0.00013554
0.0027263
0.00014752
0.0021493
0.00014725
0.0016643
0.00014728
0.00087965
0.00056038
0.00016265
2.0061e-05
0.00488
7.8143e-09
4.0152e-05
0.0047903
5.9678e-05
0.0046227
7.8237e-05
0.0043773
9.5464e-05
0.0040576
0.00011105
0.0036687
0.00012476
0.0032173
0.00013546
0.0027156
0.00014761
0.0021371
0.00014788
0.001664
0.00014674
0.00088079
0.00054628
0.00016084
2.0061e-05
0.00486
8.3079e-09
4.0154e-05
0.0047702
5.9681e-05
0.0046032
7.824e-05
0.0043587
9.5468e-05
0.0040404
0.00011105
0.0036531
0.00012478
0.0032036
0.00013536
0.0027051
0.00014769
0.0021248
0.00014855
0.0016631
0.00014644
0.0008829
0.00053354
0.00015919
2.0062e-05
0.0048399
8.8039e-09
4.0155e-05
0.0047501
5.9683e-05
0.0045837
7.8243e-05
0.0043401
9.5471e-05
0.0040231
0.00011105
0.0036375
0.0001248
0.0031898
0.00013527
0.0026946
0.00014773
0.0021123
0.00014925
0.0016616
0.00014636
0.00088579
0.00052216
0.00015774
2.0062e-05
0.0048198
9.3023e-09
4.0157e-05
0.00473
5.9686e-05
0.0045642
7.8247e-05
0.0043216
9.5475e-05
0.0040059
0.00011106
0.0036219
0.00012482
0.0031761
0.00013518
0.0026842
0.00014774
0.0020998
0.00014996
0.0016594
0.00014646
0.00088929
0.0005121
0.00015651
2.0063e-05
0.0047997
9.8031e-09
4.0158e-05
0.0047099
5.9688e-05
0.0045446
7.825e-05
0.004303
9.5478e-05
0.0039887
0.00011106
0.0036064
0.00012485
0.0031623
0.00013509
0.002674
0.00014772
0.0020872
0.00015066
0.0016564
0.00014674
0.00089321
0.0005033
0.00015553
2.0064e-05
0.0047797
1.0306e-08
4.016e-05
0.0046898
5.9691e-05
0.0045251
7.8253e-05
0.0042845
9.5482e-05
0.0039714
0.00011106
0.0035908
0.00012488
0.0031485
0.000135
0.0026639
0.00014767
0.0020745
0.00015135
0.0016528
0.00014716
0.0008974
0.00049567
0.00015479
2.0064e-05
0.0047596
1.0812e-08
4.0162e-05
0.0046697
5.9693e-05
0.0045056
7.8257e-05
0.0042659
9.5486e-05
0.0039542
0.00011106
0.0035752
0.00012491
0.0031346
0.00013491
0.0026539
0.00014759
0.0020618
0.000152
0.0016484
0.00014769
0.00090172
0.00048908
0.00015428
2.0065e-05
0.0047395
1.1321e-08
4.0163e-05
0.0046496
5.9696e-05
0.004486
7.826e-05
0.0042473
9.549e-05
0.003937
0.00011106
0.0035597
0.00012494
0.0031207
0.00013482
0.002644
0.00014748
0.0020491
0.00015263
0.0016432
0.00014833
0.00090602
0.00048342
0.00015398
2.0065e-05
0.0047194
1.1832e-08
4.0165e-05
0.0046295
5.9699e-05
0.0044665
7.8264e-05
0.0042288
9.5494e-05
0.0039198
0.00011106
0.0035441
0.00012498
0.0031068
0.00013474
0.0026342
0.00014735
0.0020365
0.00015321
0.0016374
0.00014903
0.0009102
0.00047858
0.00015387
2.0066e-05
0.0046994
1.2345e-08
4.0167e-05
0.0046094
5.9701e-05
0.004447
7.8267e-05
0.0042102
9.5498e-05
0.0039025
0.00011105
0.0035285
0.00012501
0.0030928
0.00013467
0.0026246
0.0001472
0.002024
0.00015374
0.0016308
0.00014978
0.00091415
0.00047443
0.00015393
2.0066e-05
0.0046793
1.2861e-08
4.0168e-05
0.0045893
5.9704e-05
0.0044274
7.8271e-05
0.0041916
9.5502e-05
0.0038853
0.00011105
0.003513
0.00012505
0.0030788
0.0001346
0.002615
0.00014702
0.0020116
0.00015421
0.0016236
0.00015057
0.00091779
0.00047086
0.00015414
2.0067e-05
0.0046592
1.338e-08
4.017e-05
0.0045692
5.9706e-05
0.0044079
7.8274e-05
0.0041731
9.5507e-05
0.0038681
0.00011105
0.0034974
0.00012509
0.0030648
0.00013454
0.0026056
0.00014682
0.0019993
0.00015463
0.0016158
0.00015137
0.00092105
0.00046777
0.00015446
2.0068e-05
0.0046391
1.3902e-08
4.0171e-05
0.0045491
5.9709e-05
0.0043884
7.8278e-05
0.0041545
9.5511e-05
0.0038508
0.00011105
0.0034819
0.00012514
0.0030507
0.00013449
0.0025962
0.0001466
0.0019872
0.00015499
0.0016074
0.00015217
0.00092388
0.00046507
0.00015487
2.0068e-05
0.004619
1.4426e-08
4.0173e-05
0.004529
5.9712e-05
0.0043688
7.8281e-05
0.0041359
9.5516e-05
0.0038336
0.00011104
0.0034664
0.00012518
0.0030366
0.00013445
0.002587
0.00014636
0.0019753
0.00015529
0.0015985
0.00015295
0.00092622
0.00046265
0.00015536
2.0069e-05
0.004599
1.4953e-08
4.0175e-05
0.0045089
5.9714e-05
0.0043493
7.8285e-05
0.0041174
9.5521e-05
0.0038164
0.00011104
0.0034509
0.00012523
0.0030224
0.00013442
0.0025778
0.00014612
0.0019636
0.00015553
0.0015891
0.00015371
0.00092805
0.00046045
0.0001559
2.0069e-05
0.0045789
1.5482e-08
4.0176e-05
0.0044888
5.9717e-05
0.0043297
7.8288e-05
0.0040988
9.5526e-05
0.0037991
0.00011103
0.0034354
0.00012527
0.0030081
0.00013439
0.0025686
0.00014586
0.0019521
0.00015572
0.0015792
0.00015442
0.00092934
0.0004584
0.00015648
2.007e-05
0.0045588
1.6015e-08
4.0178e-05
0.0044687
5.972e-05
0.0043102
7.8292e-05
0.0040802
9.5532e-05
0.0037819
0.00011103
0.0034199
0.00012532
0.0029938
0.00013438
0.0025596
0.0001456
0.0019409
0.00015584
0.001569
0.0001551
0.00093008
0.00045643
0.00015707
2.007e-05
0.0045387
1.655e-08
4.018e-05
0.0044486
5.9722e-05
0.0042907
7.8295e-05
0.0040616
9.5537e-05
0.0037646
0.00011102
0.0034044
0.00012537
0.0029795
0.00013438
0.0025506
0.00014533
0.00193
0.00015591
0.0015584
0.00015573
0.00093027
0.00045449
0.00015766
2.0071e-05
0.0045186
1.7088e-08
4.0181e-05
0.0044285
5.9725e-05
0.0042711
7.8299e-05
0.0040431
9.5543e-05
0.0037474
0.00011101
0.0033889
0.00012542
0.0029651
0.00013439
0.0025416
0.00014506
0.0019193
0.00015593
0.0015475
0.00015629
0.0009299
0.00045255
0.00015824
2.0072e-05
0.0044985
1.7629e-08
4.0183e-05
0.0044084
5.9728e-05
0.0042516
7.8302e-05
0.0040245
9.5549e-05
0.0037301
0.00011101
0.0033734
0.00012547
0.0029506
0.00013442
0.0025327
0.00014479
0.0019089
0.00015589
0.0015364
0.00015681
0.00092898
0.00045056
0.0001588
2.0072e-05
0.0044784
1.8173e-08
4.0185e-05
0.0043883
5.9731e-05
0.004232
7.8306e-05
0.0040059
9.5555e-05
0.0037129
0.000111
0.003358
0.00012552
0.0029361
0.00013445
0.0025237
0.00014453
0.0018988
0.00015581
0.0015251
0.00015726
0.00092754
0.00044849
0.00015933
2.0073e-05
0.0044583
1.872e-08
4.0186e-05
0.0043681
5.9733e-05
0.0042125
7.831e-05
0.0039873
9.5562e-05
0.0036956
0.00011099
0.0033426
0.00012556
0.0029215
0.0001345
0.0025148
0.00014427
0.0018891
0.00015569
0.0015137
0.00015764
0.00092558
0.00044632
0.00015981
2.0073e-05
0.0044382
1.927e-08
4.0188e-05
0.004348
5.9736e-05
0.0041929
7.8313e-05
0.0039688
9.5569e-05
0.0036784
0.00011098
0.0033272
0.00012561
0.0029069
0.00013456
0.0025058
0.00014401
0.0018796
0.00015552
0.0015022
0.00015797
0.00092313
0.00044403
0.00016026
2.0074e-05
0.0044182
1.9823e-08
4.019e-05
0.0043279
5.9739e-05
0.0041734
7.8317e-05
0.0039502
9.5576e-05
0.0036611
0.00011097
0.0033118
0.00012566
0.0028922
0.00013463
0.0024969
0.00014377
0.0018705
0.00015533
0.0014907
0.00015824
0.00092022
0.00044161
0.00016066
2.0075e-05
0.0043981
2.0379e-08
4.0192e-05
0.0043078
5.9742e-05
0.0041538
7.8321e-05
0.0039316
9.5584e-05
0.0036439
0.00011095
0.0032964
0.0001257
0.0028775
0.00013471
0.0024878
0.00014354
0.0018616
0.0001551
0.0014791
0.00015844
0.00091688
0.00043905
0.000161
2.0075e-05
0.004378
2.0938e-08
4.0193e-05
0.0042877
5.9745e-05
0.0041343
7.8324e-05
0.003913
9.5592e-05
0.0036266
0.00011094
0.0032811
0.00012574
0.0028627
0.0001348
0.0024788
0.00014333
0.0018531
0.00015485
0.0014676
0.00015859
0.00091314
0.00043635
0.0001613
2.0076e-05
0.0043579
2.15e-08
4.0195e-05
0.0042676
5.9747e-05
0.0041147
7.8328e-05
0.0038944
9.56e-05
0.0036093
0.00011093
0.0032657
0.00012578
0.0028478
0.00013491
0.0024697
0.00014313
0.0018449
0.00015457
0.0014561
0.00015869
0.00090902
0.00043349
0.00016154
2.0076e-05
0.0043378
2.2065e-08
4.0197e-05
0.0042474
5.975e-05
0.0040952
7.8331e-05
0.0038759
9.5609e-05
0.003592
0.00011092
0.0032504
0.00012582
0.0028329
0.00013502
0.0024604
0.00014294
0.001837
0.00015428
0.0014448
0.00015873
0.00090457
0.00043049
0.00016173
2.0077e-05
0.0043177
2.2634e-08
4.0198e-05
0.0042273
5.9753e-05
0.0040756
7.8335e-05
0.0038573
9.5618e-05
0.0035748
0.0001109
0.0032351
0.00012585
0.002818
0.00013514
0.0024512
0.00014278
0.0018294
0.00015397
0.0014336
0.00015873
0.00089982
0.00042735
0.00016187
2.0078e-05
0.0042976
2.3205e-08
4.02e-05
0.0042072
5.9756e-05
0.0040561
7.8339e-05
0.0038387
9.5628e-05
0.0035575
0.00011089
0.0032199
0.00012588
0.002803
0.00013527
0.0024418
0.00014264
0.001822
0.00015366
0.0014226
0.00015868
0.0008948
0.00042408
0.00016195
2.0078e-05
0.0042775
2.378e-08
4.0202e-05
0.0041871
5.9759e-05
0.0040365
7.8342e-05
0.0038201
9.5637e-05
0.0035402
0.00011087
0.0032046
0.00012591
0.0027879
0.00013541
0.0024323
0.00014251
0.0018149
0.00015334
0.0014118
0.00015859
0.00088955
0.00042067
0.000162
2.0079e-05
0.0042574
2.4359e-08
4.0204e-05
0.0041669
5.9762e-05
0.0040169
7.8346e-05
0.0038015
9.5648e-05
0.0035229
0.00011086
0.0031894
0.00012594
0.0027728
0.00013556
0.0024226
0.00014241
0.001808
0.00015302
0.0014012
0.00015847
0.0008841
0.00041714
0.00016199
2.0079e-05
0.0042373
2.494e-08
4.0205e-05
0.0041468
5.9765e-05
0.0039974
7.8349e-05
0.0037829
9.5659e-05
0.0035056
0.00011084
0.0031743
0.00012596
0.0027577
0.00013571
0.0024129
0.00014233
0.0018014
0.0001527
0.0013908
0.00015831
0.00087848
0.0004135
0.00016195
2.008e-05
0.0042172
2.5525e-08
4.0207e-05
0.0041267
5.9768e-05
0.0039778
7.8353e-05
0.0037644
9.567e-05
0.0034882
0.00011083
0.0031591
0.00012597
0.0027426
0.00013587
0.002403
0.00014228
0.001795
0.00015239
0.0013807
0.00015813
0.00087273
0.00040977
0.00016187
2.0081e-05
0.004197
2.6114e-08
4.0209e-05
0.0041066
5.9771e-05
0.0039583
7.8356e-05
0.0037458
9.5682e-05
0.0034709
0.00011081
0.003144
0.00012599
0.0027274
0.00013603
0.0023929
0.00014224
0.0017888
0.00015208
0.0013708
0.00015793
0.00086688
0.00040594
0.00016176
2.0081e-05
0.0041769
2.6706e-08
4.0211e-05
0.0040864
5.9774e-05
0.0039387
7.836e-05
0.0037272
9.5694e-05
0.0034536
0.0001108
0.0031289
0.000126
0.0027122
0.0001362
0.0023827
0.00014223
0.0017828
0.00015179
0.0013613
0.00015772
0.00086096
0.00040204
0.00016162
2.0082e-05
0.0041568
2.7301e-08
4.0213e-05
0.0040663
5.9778e-05
0.0039191
7.8363e-05
0.0037086
9.5707e-05
0.0034362
0.00011078
0.0031138
0.000126
0.002697
0.00013637
0.0023724
0.00014224
0.0017769
0.00015152
0.001352
0.00015749
0.00085499
0.00039808
0.00016145
2.0082e-05
0.0041367
2.79e-08
4.0214e-05
0.0040462
5.9781e-05
0.0038996
7.8366e-05
0.00369
9.572e-05
0.0034189
0.00011077
0.0030987
0.000126
0.0026818
0.00013653
0.0023618
0.00014228
0.0017711
0.00015126
0.001343
0.00015725
0.00084901
0.00039406
0.00016127
2.0083e-05
0.0041166
2.8503e-08
4.0216e-05
0.004026
5.9784e-05
0.00388
7.8369e-05
0.0036714
9.5733e-05
0.0034015
0.00011075
0.0030837
0.000126
0.0026665
0.00013671
0.0023511
0.00014233
0.0017655
0.00015102
0.0013343
0.00015701
0.00084302
0.00039
0.00016106
2.0084e-05
0.0040965
2.9109e-08
4.0218e-05
0.0040059
5.9787e-05
0.0038604
7.8373e-05
0.0036529
9.5748e-05
0.0033842
0.00011074
0.0030687
0.00012599
0.0026513
0.00013688
0.0023402
0.00014241
0.00176
0.00015081
0.0013259
0.00015677
0.00083707
0.00038592
0.00016085
2.0084e-05
0.0040764
2.9719e-08
4.022e-05
0.0039858
5.9791e-05
0.0038409
7.8376e-05
0.0036343
9.5762e-05
0.0033668
0.00011072
0.0030538
0.00012597
0.002636
0.00013705
0.0023292
0.0001425
0.0017545
0.00015062
0.0013178
0.00015653
0.00083115
0.00038182
0.00016063
2.0085e-05
0.0040563
3.0333e-08
4.0222e-05
0.0039656
5.9794e-05
0.0038213
7.8379e-05
0.0036157
9.5777e-05
0.0033494
0.00011071
0.0030388
0.00012595
0.0026208
0.00013721
0.0023179
0.00014262
0.0017491
0.00015045
0.00131
0.0001563
0.00082531
0.00037771
0.0001604
2.0086e-05
0.0040361
3.0951e-08
4.0224e-05
0.0039455
5.9797e-05
0.0038017
7.8382e-05
0.0035971
9.5793e-05
0.003332
0.0001107
0.0030239
0.00012593
0.0026055
0.00013738
0.0023065
0.00014275
0.0017438
0.0001503
0.0013024
0.00015607
0.00081954
0.0003736
0.00016018
2.0086e-05
0.004016
3.1572e-08
4.0226e-05
0.0039254
5.9801e-05
0.0037821
7.8385e-05
0.0035785
9.5809e-05
0.0033145
0.00011068
0.0030091
0.0001259
0.0025903
0.00013754
0.0022948
0.0001429
0.0017384
0.00015019
0.0012951
0.00015587
0.00081386
0.00036951
0.00015996
2.0087e-05
0.0039959
3.2197e-08
4.0227e-05
0.0039052
5.9804e-05
0.0037626
7.8387e-05
0.0035599
9.5826e-05
0.0032971
0.00011067
0.0029942
0.00012587
0.0025751
0.00013769
0.002283
0.00014306
0.001733
0.0001501
0.0012881
0.00015567
0.00080829
0.00036545
0.00015974
2.0088e-05
0.0039758
3.2827e-08
4.0229e-05
0.0038851
5.9808e-05
0.003743
7.839e-05
0.0035413
9.5843e-05
0.0032796
0.00011066
0.0029794
0.00012584
0.0025599
0.00013784
0.002271
0.00014324
0.0017276
0.00015004
0.0012813
0.0001555
0.00080282
0.00036141
0.00015954
2.0088e-05
0.0039557
3.346e-08
4.0231e-05
0.0038649
5.9811e-05
0.0037234
7.8393e-05
0.0035228
9.586e-05
0.0032622
0.00011066
0.0029646
0.0001258
0.0025448
0.00013799
0.0022588
0.00014343
0.0017222
0.00015
0.0012747
0.00015534
0.00079748
0.00035741
0.00015934
2.0089e-05
0.0039355
3.4097e-08
4.0233e-05
0.0038448
5.9815e-05
0.0037038
7.8395e-05
0.0035042
9.5878e-05
0.0032447
0.00011065
0.0029498
0.00012575
0.0025297
0.00013813
0.0022464
0.00014363
0.0017167
0.00014999
0.0012684
0.00015521
0.00079226
0.00035345
0.00015916
2.009e-05
0.0039154
3.4739e-08
4.0235e-05
0.0038246
5.9819e-05
0.0036842
7.8398e-05
0.0034856
9.5897e-05
0.0032272
0.00011064
0.0029351
0.0001257
0.0025146
0.00013826
0.0022339
0.00014385
0.0017111
0.00015
0.0012622
0.0001551
0.00078717
0.00034954
0.000159
2.009e-05
0.0038953
3.5385e-08
4.0237e-05
0.0038045
5.9823e-05
0.0036646
7.84e-05
0.003467
9.5915e-05
0.0032097
0.00011064
0.0029204
0.00012565
0.0024996
0.00013838
0.0022211
0.00014407
0.0017054
0.00015004
0.0012562
0.00015501
0.00078221
0.00034569
0.00015886
2.0091e-05
0.0038752
3.6035e-08
4.0239e-05
0.0037843
5.9826e-05
0.0036451
7.8402e-05
0.0034485
9.5935e-05
0.0031921
0.00011064
0.0029057
0.00012559
0.0024847
0.0001385
0.0022082
0.0001443
0.0016996
0.00015011
0.0012504
0.00015495
0.00077737
0.0003419
0.00015874
2.0092e-05
0.003855
3.6689e-08
4.0241e-05
0.0037642
5.983e-05
0.0036255
7.8404e-05
0.0034299
9.5954e-05
0.0031746
0.00011064
0.002891
0.00012554
0.0024698
0.0001386
0.0021952
0.00014453
0.0016937
0.0001502
0.0012447
0.00015491
0.00077266
0.00033817
0.00015864
2.0093e-05
0.0038349
3.7348e-08
4.0243e-05
0.003744
5.9834e-05
0.0036059
7.8406e-05
0.0034113
9.5974e-05
0.003157
0.00011064
0.0028763
0.00012547
0.0024549
0.0001387
0.002182
0.00014477
0.0016876
0.00015031
0.0012392
0.00015489
0.00076808
0.0003345
0.00015856
2.0093e-05
0.0038148
3.8011e-08
4.0245e-05
0.0037239
5.9838e-05
0.0035863
7.8408e-05
0.0033927
9.5994e-05
0.0031394
0.00011064
0.0028617
0.00012541
0.0024402
0.00013878
0.0021686
0.00014501
0.0016814
0.00015044
0.0012338
0.0001549
0.00076361
0.0003309
0.0001585
2.0094e-05
0.0037946
3.8679e-08
4.0247e-05
0.0037037
5.9842e-05
0.0035667
7.8409e-05
0.0033742
9.6015e-05
0.0031218
0.00011064
0.002847
0.00012534
0.0024255
0.00013886
0.0021551
0.00014525
0.001675
0.00015059
0.0012284
0.00015494
0.00075926
0.00032737
0.00015847
2.0095e-05
0.0037745
3.9351e-08
4.0249e-05
0.0036836
5.9847e-05
0.0035471
7.8411e-05
0.0033556
9.6036e-05
0.0031042
0.00011065
0.0028324
0.00012527
0.0024109
0.00013893
0.0021414
0.00014549
0.0016684
0.00015075
0.0012232
0.000155
0.00075502
0.00032391
0.00015846
2.0096e-05
0.0037544
4.0028e-08
4.0251e-05
0.0036634
5.9851e-05
0.0035275
7.8412e-05
0.003337
9.6057e-05
0.0030866
0.00011066
0.0028178
0.0001252
0.0023963
0.00013898
0.0021276
0.00014572
0.0016617
0.00015094
0.001218
0.00015508
0.00075088
0.00032052
0.00015847
2.0096e-05
0.0037342
4.0709e-08
4.0253e-05
0.0036433
5.9855e-05
0.0035079
7.8413e-05
0.0033185
9.6078e-05
0.0030689
0.00011067
0.0028032
0.00012512
0.0023819
0.00013903
0.0021137
0.00014596
0.0016548
0.00015113
0.0012128
0.00015518
0.00074683
0.00031719
0.0001585
2.0097e-05
0.0037141
4.1395e-08
4.0255e-05
0.0036231
5.986e-05
0.0034883
7.8414e-05
0.0032999
9.6099e-05
0.0030512
0.00011069
0.0027886
0.00012505
0.0023675
0.00013906
0.0020997
0.00014619
0.0016476
0.00015134
0.0012076
0.00015531
0.00074286
0.00031394
0.00015856
2.0098e-05
0.003694
4.2087e-08
4.0257e-05
0.003603
5.9864e-05
0.0034687
7.8415e-05
0.0032814
9.6121e-05
0.0030335
0.00011071
0.0027741
0.00012497
0.0023532
0.00013909
0.0020856
0.00014641
0.0016403
0.00015156
0.0012025
0.00015545
0.00073898
0.00031076
0.00015863
2.0099e-05
0.0036738
4.2783e-08
4.0259e-05
0.0035828
5.9869e-05
0.0034491
7.8416e-05
0.0032628
9.6142e-05
0.0030158
0.00011072
0.0027595
0.0001249
0.0023391
0.0001391
0.0020714
0.00014663
0.0016328
0.00015179
0.0011973
0.00015561
0.00073516
0.00030765
0.00015872
2.0099e-05
0.0036537
4.3484e-08
4.0261e-05
0.0035626
5.9874e-05
0.0034295
7.8416e-05
0.0032443
9.6164e-05
0.002998
0.00011075
0.0027449
0.00012482
0.002325
0.0001391
0.0020571
0.00014684
0.0016251
0.00015202
0.0011921
0.00015578
0.00073139
0.0003046
0.00015883
2.01e-05
0.0036335
4.419e-08
4.0264e-05
0.0035425
5.9879e-05
0.0034098
7.8417e-05
0.0032258
9.6185e-05
0.0029803
0.00011077
0.0027303
0.00012474
0.002311
0.00013909
0.0020427
0.00014703
0.0016171
0.00015226
0.0011869
0.00015597
0.00072768
0.00030162
0.00015895
2.0101e-05
0.0036134
4.4901e-08
4.0266e-05
0.0035223
5.9883e-05
0.0033902
7.8417e-05
0.0032072
9.6206e-05
0.0029625
0.0001108
0.0027157
0.00012466
0.0022972
0.00013907
0.0020283
0.00014722
0.001609
0.0001525
0.0011816
0.00015617
0.00072401
0.0002987
0.00015909
2.0102e-05
0.0035932
4.5618e-08
4.0268e-05
0.0035021
5.9889e-05
0.0033706
7.8417e-05
0.0031887
9.6227e-05
0.0029447
0.00011083
0.0027011
0.00012459
0.0022834
0.00013904
0.0020139
0.0001474
0.0016006
0.00015274
0.0011763
0.00015638
0.00072037
0.00029585
0.00015924
2.0103e-05
0.0035731
4.634e-08
4.027e-05
0.003482
5.9894e-05
0.003351
7.8417e-05
0.0031702
9.6248e-05
0.0029268
0.00011086
0.0026865
0.00012451
0.0022698
0.000139
0.0019994
0.00014756
0.001592
0.00015298
0.0011709
0.0001566
0.00071675
0.00029306
0.00015939
2.0104e-05
0.0035529
4.7067e-08
4.0272e-05
0.0034618
5.9899e-05
0.0033314
7.8417e-05
0.0031517
9.6269e-05
0.002909
0.0001109
0.0026719
0.00012444
0.0022562
0.00013895
0.0019849
0.00014772
0.0015833
0.00015322
0.0011654
0.00015683
0.00071314
0.00029032
0.00015956
2.0104e-05
0.0035328
4.78e-08
4.0274e-05
0.0034416
5.9904e-05
0.0033117
7.8416e-05
0.0031331
9.6289e-05
0.0028911
0.00011094
0.0026572
0.00012437
0.0022428
0.00013889
0.0019704
0.00014786
0.0015743
0.00015345
0.0011598
0.00015705
0.00070954
0.00028765
0.00015973
2.0105e-05
0.0035126
4.8539e-08
4.0277e-05
0.0034215
5.991e-05
0.0032921
7.8416e-05
0.0031146
9.6309e-05
0.0028732
0.00011098
0.0026425
0.0001243
0.0022295
0.00013883
0.0019558
0.00014798
0.0015652
0.00015368
0.0011541
0.00015728
0.00070593
0.00028502
0.00015991
2.0106e-05
0.0034925
4.9283e-08
4.0279e-05
0.0034013
5.9916e-05
0.0032725
7.8415e-05
0.0030961
9.6328e-05
0.0028553
0.00011103
0.0026278
0.00012424
0.0022162
0.00013875
0.0019413
0.00014809
0.0015558
0.0001539
0.0011483
0.00015751
0.00070232
0.00028245
0.00016009
2.0107e-05
0.0034723
5.0033e-08
4.0281e-05
0.0033811
5.9921e-05
0.0032528
7.8414e-05
0.0030776
9.6347e-05
0.0028374
0.00011108
0.0026131
0.00012418
0.0022031
0.00013867
0.0019268
0.00014819
0.0015463
0.00015411
0.0011423
0.00015774
0.00069869
0.00027993
0.00016027
2.0108e-05
0.0034522
5.0789e-08
4.0283e-05
0.0033609
5.9927e-05
0.0032332
7.8413e-05
0.0030592
9.6365e-05
0.0028194
0.00011113
0.0025983
0.00012412
0.0021902
0.00013858
0.0019124
0.00014827
0.0015366
0.00015431
0.0011363
0.00015797
0.00069504
0.00027745
0.00016044
2.0109e-05
0.003432
5.1551e-08
4.0285e-05
0.0033408
5.9933e-05
0.0032135
7.8412e-05
0.0030407
9.6383e-05
0.0028014
0.00011118
0.0025835
0.00012407
0.0021773
0.00013848
0.001898
0.00014833
0.0015268
0.0001545
0.0011301
0.00015819
0.00069135
0.00027502
0.00016062
2.011e-05
0.0034118
5.2319e-08
4.0288e-05
0.0033206
5.9939e-05
0.0031939
7.8411e-05
0.0030222
9.6399e-05
0.0027835
0.00011124
0.0025687
0.00012402
0.0021645
0.00013838
0.0018836
0.00014838
0.0015168
0.00015468
0.0011238
0.0001584
0.00068763
0.00027263
0.00016079
2.0111e-05
0.0033917
5.3093e-08
4.029e-05
0.0033004
5.9946e-05
0.0031742
7.841e-05
0.0030037
9.6415e-05
0.0027655
0.0001113
0.0025538
0.00012397
0.0021518
0.00013827
0.0018693
0.00014842
0.0015066
0.00015485
0.0011174
0.00015861
0.00068387
0.00027028
0.00016096
2.0112e-05
0.0033715
5.3873e-08
4.0292e-05
0.0032802
5.9952e-05
0.0031546
7.8409e-05
0.0029853
9.643e-05
0.0027474
0.00011136
0.0025389
0.00012394
0.0021392
0.00013816
0.0018551
0.00014844
0.0014963
0.000155
0.0011108
0.0001588
0.00068007
0.00026796
0.00016112
2.0113e-05
0.0033513
5.466e-08
4.0295e-05
0.00326
5.9959e-05
0.0031349
7.8408e-05
0.0029668
9.6444e-05
0.0027294
0.00011142
0.0025239
0.0001239
0.0021267
0.00013804
0.001841
0.00014845
0.0014859
0.00015513
0.0011042
0.00015899
0.00067622
0.00026567
0.00016127
2.0114e-05
0.0033312
5.5453e-08
4.0297e-05
0.0032399
5.9966e-05
0.0031152
7.8407e-05
0.0029484
9.6457e-05
0.0027113
0.00011149
0.0025089
0.00012388
0.0021144
0.00013793
0.0018269
0.00014844
0.0014754
0.00015526
0.0010973
0.00015916
0.00067232
0.00026341
0.00016142
2.0114e-05
0.003311
5.6254e-08
4.0299e-05
0.0032197
5.9973e-05
0.0030955
7.8405e-05
0.00293
9.6468e-05
0.0026933
0.00011155
0.0024938
0.00012386
0.0021021
0.00013781
0.001813
0.00014842
0.0014648
0.00015536
0.0010904
0.00015932
0.00066836
0.00026117
0.00016156
2.0115e-05
0.0032908
5.706e-08
4.0302e-05
0.0031995
5.998e-05
0.0030759
7.8404e-05
0.0029115
9.6479e-05
0.0026752
0.00011163
0.0024787
0.00012384
0.0020898
0.00013769
0.0017991
0.00014839
0.0014541
0.00015545
0.0010833
0.00015947
0.00066434
0.00025896
0.00016168
2.0116e-05
0.0032707
5.7874e-08
4.0304e-05
0.0031793
5.9987e-05
0.0030562
7.8403e-05
0.0028931
9.6488e-05
0.0026571
0.0001117
0.0024634
0.00012384
0.0020777
0.00013757
0.0017854
0.00014835
0.0014433
0.00015553
0.0010762
0.0001596
0.00066027
0.00025676
0.0001618
2.0118e-05
0.0032505
5.8695e-08
4.0306e-05
0.0031591
5.9995e-05
0.0030365
7.8402e-05
0.0028747
9.6496e-05
0.002639
0.00011177
0.0024482
0.00012384
0.0020656
0.00013745
0.0017718
0.00014829
0.0014324
0.00015559
0.0010689
0.00015972
0.00065613
0.00025458
0.00016191
2.0119e-05
0.0032303
5.9523e-08
4.0309e-05
0.0031389
6.0002e-05
0.0030168
7.8401e-05
0.0028563
9.6502e-05
0.0026209
0.00011184
0.0024328
0.00012384
0.0020536
0.00013733
0.0017583
0.00014823
0.0014215
0.00015563
0.0010615
0.00015983
0.00065193
0.0002524
0.00016201
2.012e-05
0.0032101
6.0358e-08
4.0311e-05
0.0031187
6.001e-05
0.0029971
7.84e-05
0.0028379
9.6507e-05
0.0026028
0.00011192
0.0024174
0.00012386
0.0020417
0.00013722
0.0017449
0.00014816
0.0014106
0.00015566
0.001054
0.00015993
0.00064767
0.00025023
0.00016209
2.0121e-05
0.0031899
6.1201e-08
4.0313e-05
0.0030985
6.0018e-05
0.0029774
7.8399e-05
0.0028195
9.6511e-05
0.0025847
0.000112
0.0024019
0.00012388
0.0020298
0.00013711
0.0017317
0.00014807
0.0013996
0.00015568
0.0010463
0.00016
0.00064335
0.00024807
0.00016217
2.0122e-05
0.0031698
6.2051e-08
4.0316e-05
0.0030783
6.0026e-05
0.0029577
7.8399e-05
0.0028012
9.6512e-05
0.0025666
0.00011207
0.0023864
0.00012391
0.002018
0.000137
0.0017186
0.00014799
0.0013886
0.00015568
0.0010387
0.00016007
0.00063896
0.0002459
0.00016224
2.0123e-05
0.0031496
6.2909e-08
4.0318e-05
0.0030582
6.0034e-05
0.002938
7.8399e-05
0.0027828
9.6513e-05
0.0025485
0.00011215
0.0023707
0.00012395
0.0020062
0.0001369
0.0017057
0.00014789
0.0013777
0.00015567
0.0010309
0.00016012
0.00063451
0.00024373
0.00016229
2.0124e-05
0.0031294
6.3774e-08
4.0321e-05
0.003038
6.0043e-05
0.0029183
7.8399e-05
0.0027645
9.6512e-05
0.0025304
0.00011223
0.002355
0.00012399
0.0019944
0.0001368
0.0016929
0.00014779
0.0013667
0.00015565
0.001023
0.00016017
0.00063
0.00024156
0.00016234
2.0125e-05
0.0031092
6.4648e-08
4.0323e-05
0.0030178
6.0051e-05
0.0028985
7.8399e-05
0.0027461
9.6509e-05
0.0025123
0.00011231
0.0023392
0.00012405
0.0019827
0.00013671
0.0016802
0.00014769
0.0013557
0.00015562
0.0010151
0.00016019
0.00062543
0.00023937
0.00016238
2.0126e-05
0.003089
6.553e-08
4.0325e-05
0.0029976
6.006e-05
0.0028788
7.84e-05
0.0027278
9.6504e-05
0.0024942
0.00011238
0.0023233
0.00012411
0.001971
0.00013663
0.0016677
0.00014758
0.0013447
0.00015558
0.0010071
0.00016021
0.0006208
0.00023717
0.00016241
2.0127e-05
0.0030688
6.642e-08
4.0328e-05
0.0029774
6.0069e-05
0.002859
7.8401e-05
0.0027094
9.6498e-05
0.0024761
0.00011246
0.0023074
0.00012417
0.0019592
0.00013656
0.0016553
0.00014748
0.0013338
0.00015553
0.00099903
0.00016022
0.00061611
0.00023496
0.00016243
2.0129e-05
0.0030486
6.7319e-08
4.033e-05
0.0029572
6.0078e-05
0.0028393
7.8403e-05
0.0026911
9.649e-05
0.002458
0.00011253
0.0022913
0.00012425
0.0019475
0.0001365
0.001643
0.00014737
0.0013229
0.00015547
0.00099093
0.00016022
0.00061136
0.00023272
0.00016245
2.013e-05
0.0030284
6.8226e-08
4.0333e-05
0.002937
6.0087e-05
0.0028195
7.8405e-05
0.0026728
9.648e-05
0.0024399
0.00011261
0.0022752
0.00012433
0.0019358
0.00013644
0.0016309
0.00014727
0.0013121
0.00015541
0.00098279
0.00016021
0.00060656
0.00023047
0.00016246
2.0131e-05
0.0030082
6.9142e-08
4.0335e-05
0.0029167
6.0097e-05
0.0027998
7.8408e-05
0.0026545
9.6469e-05
0.0024218
0.00011268
0.002259
0.00012441
0.0019241
0.0001364
0.0016189
0.00014717
0.0013014
0.00015534
0.00097461
0.00016019
0.00060171
0.0002282
0.00016246
2.0132e-05
0.002988
7.0068e-08
4.0338e-05
0.0028965
6.0106e-05
0.00278
7.8411e-05
0.0026362
9.6456e-05
0.0024038
0.00011275
0.0022427
0.00012451
0.0019123
0.00013636
0.0016071
0.00014707
0.0012906
0.00015526
0.00096642
0.00016016
0.00059681
0.0002259
0.00016246
2.0133e-05
0.0029678
7.1002e-08
4.034e-05
0.0028763
6.0116e-05
0.0027602
7.8415e-05
0.0026179
9.6442e-05
0.0023858
0.00011282
0.0022263
0.0001246
0.0019005
0.00013634
0.0015953
0.00014697
0.00128
0.00015519
0.0009582
0.00016013