/*--------------------------------*- C++ -*----------------------------------*\
  =========                 |
  \\      /  F ield         | OpenFOAM: The Open Source CFD Toolbox
   \\    /   O peration     | Website:  https://openfoam.org
    \\  /    A nd           | Version:  6.0
     \\/     M anipulation  |
\*---------------------------------------------------------------------------*/
FoamFile
{
    version     2.0;
    format      ascii;
    class       volScalarField;
    location    "10";
    object      p;
}
// * * * * * * * * * * * * * * * * * * * * * * * * * * * * * * * * * * * * * //

dimensions      [0 2 -2 0 0 0 0];

internalField   nonuniform List<scalar> 
15500
(
0.0146692
0.0147105
0.0147668
0.0148296
0.0149104
0.0150013
0.0151146
0.0152428
0.0153989
0.0155763
0.015788
0.0160283
0.0163087
0.016624
0.0169828
0.0173825
0.0178257
0.0182983
0.0187889
0.019286
0.0197633
0.0201661
0.0204271
0.0204825
0.0203137
0.0199243
0.0192625
0.0178703
0.0161249
0.014466
0.0147068
0.0147501
0.0148082
0.0148738
0.0149568
0.0150496
0.0151637
0.0152917
0.015446
0.0156208
0.0158279
0.0160654
0.0163418
0.0166563
0.017013
0.0174156
0.0178659
0.0183603
0.018898
0.019467
0.0200401
0.0205682
0.0209934
0.0212612
0.0213646
0.0213441
0.0212179
0.0204574
0.0198869
0.0176227
0.0147529
0.0148022
0.0148639
0.0149335
0.0150194
0.0151152
0.0152315
0.0153618
0.0155174
0.015693
0.0158998
0.0161356
0.0164091
0.0167203
0.0170734
0.0174709
0.0179123
0.0183973
0.0189221
0.0194674
0.0199898
0.0204232
0.0206826
0.0206768
0.0203561
0.0197647
0.019045
0.0178415
0.0174655
0.0150519
0.0149059
0.0149501
0.0150054
0.0150679
0.0151469
0.0152365
0.0153471
0.0154728
0.0156243
0.0157969
0.0160007
0.0162337
0.016505
0.016816
0.0171733
0.017579
0.0180338
0.0185378
0.0190893
0.0196687
0.0202322
0.020708
0.0209942
0.0209642
0.0205085
0.019631
0.0185138
0.0169015
0.0163087
0.0146655
0.0151587
0.0151928
0.0152353
0.0152838
0.0153473
0.0154213
0.0155164
0.015628
0.015767
0.0159294
0.0161254
0.0163536
0.0166237
0.016938
0.0173064
0.017733
0.0182217
0.0187776
0.0194048
0.0200948
0.0208198
0.0215218
0.0221061
0.0224259
0.0223165
0.0216938
0.0206567
0.0188733
0.0178489
0.0165511
0.0154589
0.0154725
0.0154955
0.0155244
0.0155685
0.0156242
0.0157016
0.0157973
0.0159221
0.0160734
0.016261
0.016485
0.0167553
0.0170745
0.0174549
0.0179025
0.0184251
0.0190327
0.0197377
0.0205452
0.0214467
0.0224077
0.023354
0.0241393
0.024559
0.0244348
0.023716
0.0218841
0.0203448
0.0185709
0.0157256
0.0157261
0.0157359
0.0157515
0.0157815
0.0158227
0.0158854
0.015967
0.0160788
0.0162193
0.0163988
0.0166187
0.0168888
0.0172113
0.0175984
0.0180569
0.0185964
0.0192306
0.0199761
0.0208491
0.0218568
0.0229889
0.0241947
0.0253439
0.0262117
0.0265487
0.0261529
0.024305
0.0223096
0.0196972
0.0159269
0.015916
0.0159164
0.0159241
0.015947
0.0159817
0.0160378
0.016113
0.0162181
0.0163527
0.016527
0.0167437
0.0170124
0.0173343
0.0177204
0.0181754
0.0187098
0.0193366
0.020075
0.0209447
0.0219627
0.0231357
0.0244368
0.0257605
0.026885
0.0275294
0.0273752
0.0255332
0.023214
0.0198394
0.0160509
0.01604
0.0160406
0.0160489
0.0160719
0.0161064
0.0161614
0.0162349
0.0163374
0.0164689
0.0166394
0.0168524
0.0171172
0.0174336
0.0178099
0.0182485
0.0187573
0.0193483
0.0200376
0.0208451
0.0217925
0.0228963
0.0241522
0.0254801
0.0266805
0.0274694
0.0274576
0.0256327
0.0231352
0.0192725
0.0161291
0.0161174
0.0161185
0.0161292
0.0161553
0.0161937
0.0162521
0.0163284
0.016432
0.016563
0.0167308
0.0169394
0.0171975
0.0175035
0.0178628
0.0182741
0.0187431
0.0192772
0.0198901
0.0205977
0.0214204
0.0223805
0.0234906
0.0246986
0.0258371
0.0266464
0.0267051
0.0249147
0.022352
0.0182545
0.0161797
0.0161735
0.0161795
0.0161946
0.0162244
0.0162662
0.016327
0.0164051
0.016509
0.0166386
0.0168023
0.0170043
0.0172521
0.017543
0.0178792
0.0182562
0.0186753
0.0191418
0.0196627
0.0202509
0.0209226
0.0217041
0.022619
0.023643
0.024642
0.0253945
0.0254688
0.0237144
0.0211594
0.0170143
0.0162275
0.0162233
0.0162314
0.0162493
0.0162822
0.016327
0.0163902
0.0164694
0.0165726
0.016699
0.0168567
0.0170491
0.0172832
0.0175546
0.0178631
0.0182003
0.0185651
0.0189575
0.0193825
0.0198458
0.0203599
0.0209502
0.0216504
0.0224603
0.0232801
0.0239357
0.0239989
0.0222839
0.0197706
0.0156657
0.0162777
0.0162799
0.0162924
0.0163131
0.0163471
0.0163921
0.016454
0.0165312
0.0166304
0.0167508
0.0168992
0.0170787
0.0172951
0.017543
0.0178197
0.0181142
0.0184214
0.0187397
0.019068
0.0194085
0.0197701
0.0201761
0.0206691
0.0212673
0.0219046
0.022449
0.0224817
0.0207935
0.0183315
0.0143047
0.0163368
0.0163422
0.0163572
0.0163804
0.016416
0.0164613
0.0165218
0.0165955
0.0166885
0.0167999
0.0169357
0.0170986
0.0172936
0.0175141
0.0177559
0.0180047
0.0182538
0.0184969
0.018732
0.0189563
0.0191738
0.0194068
0.0197037
0.0201001
0.0205595
0.0209927
0.020992
0.0193245
0.0169078
0.0129421
0.016418
0.0164285
0.0164464
0.01647
0.0165037
0.0165458
0.0166009
0.0166679
0.0167516
0.0168511
0.0169714
0.0171147
0.0172849
0.0174747
0.0176781
0.0178795
0.018068
0.0182376
0.0183809
0.0184942
0.0185775
0.0186533
0.0187731
0.0189894
0.0192891
0.0196207
0.0195804
0.0179189
0.0155355
0.01161
0.0165091
0.016522
0.0165413
0.0165664
0.0166002
0.0166402
0.0166911
0.0167504
0.0168236
0.0169088
0.017011
0.0171318
0.0172744
0.0174303
0.0175928
0.0177435
0.0178708
0.0179642
0.0180186
0.0180249
0.0179812
0.0179084
0.0178633
0.0179125
0.0180645
0.018304
0.0182297
0.0165703
0.0142077
0.0102793
0.0166269
0.0166428
0.016663
0.0166863
0.0167162
0.0167507
0.0167939
0.0168441
0.0169051
0.0169753
0.0170579
0.0171545
0.0172671
0.0173865
0.0175047
0.0176028
0.0176649
0.0176824
0.017645
0.0175449
0.0173784
0.0171652
0.0169691
0.0168672
0.0168899
0.0170487
0.0169401
0.0152732
0.0129223
0.00896529
0.016747
0.0167654
0.0167877
0.016813
0.0168432
0.0168756
0.0169137
0.0169549
0.0170034
0.0170564
0.0171177
0.0171878
0.0172682
0.0173481
0.0174196
0.017461
0.0174559
0.0173916
0.0172611
0.0170531
0.0167623
0.0164098
0.0160647
0.015817
0.0157162
0.0158022
0.0156688
0.0139968
0.0116529
0.00762992
0.0169127
0.0169323
0.0169537
0.0169756
0.0170005
0.0170261
0.0170551
0.0170858
0.0171201
0.0171556
0.0171942
0.0172363
0.0172823
0.0173206
0.0173418
0.0173235
0.017245
0.0170961
0.0168652
0.0165437
0.016125
0.0156332
0.0151421
0.0147567
0.0145432
0.0145661
0.0144096
0.012731
0.0103935
0.00629145
0.0170847
0.0171056
0.0171281
0.0171514
0.017176
0.0171986
0.0172217
0.0172418
0.0172618
0.017278
0.0172925
0.0173047
0.0173143
0.0173082
0.0172763
0.0171931
0.0170374
0.0167946
0.0164583
0.0160158
0.0154619
0.0148222
0.0141795
0.0136524
0.0133256
0.0132897
0.0131219
0.0114459
0.00911843
0.0049123
0.0173152
0.0173346
0.0173538
0.0173714
0.0173887
0.0174029
0.0174158
0.0174243
0.0174292
0.0174265
0.0174164
0.0173978
0.0173691
0.0173162
0.0172272
0.0170749
0.0168337
0.0164926
0.0160393
0.0154656
0.0147667
0.0139713
0.0131729
0.0125038
0.0120699
0.0119824
0.0118075
0.0101385
0.00782811
0.00351613
0.0175486
0.0175699
0.0175911
0.0176108
0.0176285
0.01764
0.0176468
0.0176445
0.0176341
0.0176106
0.0175739
0.0175221
0.0174527
0.0173499
0.0172002
0.0169723
0.0166406
0.0161886
0.0156104
0.0148943
0.0140367
0.0130724
0.0121053
0.0112854
0.0107384
0.0106014
0.0104332
0.00878467
0.00650125
0.00206853
0.0178719
0.0178902
0.0179064
0.0179188
0.0179276
0.0179295
0.0179246
0.0179092
0.0178817
0.0178367
0.017772
0.017685
0.017572
0.017416
0.0172004
0.0168916
0.0164591
0.0158897
0.0151717
0.0142986
0.0132684
0.0121227
0.010977
0.0100019
0.00934417
0.00916437
0.00900838
0.00738989
0.00514415
0.000598749
0.0182122
0.0182314
0.0182489
0.0182627
0.018271
0.0182688
0.0182563
0.0182279
0.0181826
0.0181138
0.018019
0.017894
0.0177343
0.0175208
0.0172346
0.016837
0.0162965
0.0155947
0.0147268
0.0136818
0.0124625
0.0111168
0.00977702
0.00863352
0.00785676
0.0076346
0.00750602
0.00593388
0.00373879
-0.000925828
0.0186625
0.0186765
0.0186865
0.0186906
0.0186878
0.0186739
0.018648
0.0186047
0.0185404
0.0184476
0.0183214
0.0181565
0.0179469
0.0176718
0.0173085
0.0168151
0.0161548
0.0153128
0.0142766
0.0130428
0.0116164
0.0100544
0.00850733
0.00718749
0.00629288
0.0060347
0.00594103
0.00442732
0.00229652
-0.00247321
0.019125
0.019142
0.0191555
0.0191627
0.0191606
0.0191433
0.0191094
0.0190524
0.0189687
0.0188496
0.0186894
0.0184813
0.0182178
0.0178759
0.0174297
0.0168314
0.0160432
0.0150431
0.0138263
0.0123862
0.0107322
0.00893361
0.0071599
0.0056498
0.00462667
0.00433243
0.00428991
0.00285216
0.000800629
-0.00407532
0.0197297
0.0197413
0.0197468
0.019744
0.0197303
0.0197009
0.0196528
0.0195795
0.0194745
0.0193279
0.0191316
0.0188772
0.0185557
0.0181419
0.0176055
0.0168943
0.0159646
0.0147963
0.0133781
0.0117108
0.00980884
0.00775419
0.00573778
0.00402753
0.00287592
0.0025529
0.00256962
0.00122288
-0.000734851
-0.00569855
0.0203597
0.0203754
0.0203858
0.0203871
0.0203745
0.0203412
0.0202842
0.0201953
0.0200683
0.0198918
0.0196569
0.0193529
0.0189691
0.018478
0.0178445
0.017011
0.0159294
0.0145724
0.0129373
0.0110227
0.00885045
0.00651557
0.00423672
0.0023102
0.0010193
0.000666192
0.000759574
-0.000478148
-0.002326
-0.00737436
0.0211496
0.0211589
0.0211601
0.0211504
0.0211256
0.0210798
0.0210081
0.0209023
0.0207528
0.0205468
0.0202724
0.0199165
0.0194669
0.0188932
0.0181561
0.0171905
0.0159432
0.0143821
0.0125072
0.0103227
0.00785583
0.00521876
0.00265843
0.000503903
-0.00092662
-0.00130181
-0.0011222
-0.00223466
-0.00395606
-0.00906765
0.0219476
0.0219657
0.0219768
0.0219758
0.021956
0.0219096
0.0218313
0.0217114
0.0215402
0.0213036
0.0209877
0.0205777
0.0200585
0.0193975
0.0185484
0.0174434
0.0160076
0.0142266
0.0120951
0.00961897
0.0068307
0.00386531
0.00100095
-0.00139695
-0.00297989
-0.00337858
-0.00309506
-0.00406368
-0.00564117
-0.0108085
0.0229351
0.0229473
0.0229502
0.0229399
0.02291
0.0228535
0.0227629
0.0226283
0.0224358
0.0221693
0.0218122
0.0213461
0.0207542
0.019998
0.019031
0.0177579
0.0161314
0.0141156
0.0117075
0.00891346
0.0057754
0.00245521
-0.000734377
-0.00338987
-0.00512542
-0.00553881
-0.00514146
-0.0059472
-0.007363
-0.0125611
0.0239251
0.0239505
0.0239683
0.0239721
0.0239525
0.0239005
0.0238078
0.0236627
0.0234512
0.0231555
0.0227558
0.0222312
0.0215594
0.0207008
0.0195913
0.018155
0.0163178
0.0140534
0.011357
0.00821601
0.00469652
0.000991212
-0.00254627
-0.00547613
-0.00737685
-0.00780815
-0.00727839
-0.00790234
-0.0091375
-0.0143548
0.0251144
0.0251372
0.0251517
0.0251522
0.0251296
0.0250747
0.0249769
0.0248229
0.0245945
0.0242708
0.0238282
0.0232413
0.0224838
0.0215099
0.0202597
0.0186364
0.0165836
0.014067
0.0110455
0.00752545
0.00359187
-0.000526379
-0.0044365
-0.00765596
-0.00972257
-0.010162
-0.00948877
-0.0099103
-0.0109442
-0.0161536
0.0263527
0.0263958
0.0264326
0.0264535
0.0264464
0.0263996
0.0263021
0.0261389
0.0258913
0.0255363
0.0250473
0.0243946
0.0235461
0.0224531
0.0210436
0.0192348
0.0169537
0.0141462
0.0107803
0.00684836
0.00246735
-0.00209431
-0.00640097
-0.00992476
-0.0121717
-0.012623
-0.0117881
-0.0119869
-0.0127989
-0.0179849
0.027902
0.027944
0.027975
0.0279879
0.0279705
0.0279135
0.0278034
0.0276248
0.0273542
0.0269652
0.0264272
0.0257049
0.0247618
0.0235421
0.0219753
0.0199588
0.0174252
0.0143132
0.0105572
0.00617907
0.00132004
-0.00371469
-0.00844248
-0.0122883
-0.014715
-0.015168
-0.0141602
-0.0141121
-0.0146792
-0.0198128
0.0293682
0.0294369
0.029502
0.0295503
0.0295656
0.0295331
0.0294379
0.029261
0.0289783
0.0285611
0.0279759
0.0271836
0.0261429
0.0247943
0.023052
0.0208226
0.0180148
0.0145496
0.0103838
0.00552683
0.000156425
-0.00538275
-0.0105534
-0.0147354
-0.0173557
-0.0178169
-0.016617
-0.0163008
-0.0166001
-0.021663
0.0312364
0.0313067
0.0313702
0.0314147
0.0314251
0.0313875
0.031285
0.0310967
0.0307936
0.0303429
0.0297066
0.0288401
0.0276975
0.0262112
0.024294
0.0218235
0.0187131
0.0148835
0.0102581
0.00488832
-0.00102689
-0.00709913
-0.0127399
-0.0172751
-0.0200893
-0.0205472
-0.0191435
-0.0185324
-0.0185367
-0.0234996
0.0332117
0.0333031
0.0333879
0.0334512
0.0334742
0.0334414
0.0333357
0.0331346
0.0328083
0.0323208
0.0316302
0.0306859
0.0294361
0.0278078
0.0256931
0.0229754
0.0195422
0.0152957
0.0101945
0.00427679
-0.00221949
-0.00885687
-0.0149892
-0.0198882
-0.0229125
-0.0233748
-0.0217487
-0.0208187
-0.0205031
-0.0253458
0.035395
0.0354893
0.0355802
0.0356516
0.0356843
0.0356612
0.0355614
0.0353592
0.0350192
0.034501
0.0337581
0.0327336
0.0313715
0.0295896
0.0272757
0.0242804
0.0204946
0.0158236
0.0101941
0.00368978
-0.00342177
-0.0106568
-0.0173069
-0.0225902
-0.0258229
-0.0262791
-0.0244191
-0.0231384
-0.022472
-0.0271661
0.0378637
0.0379718
0.0380749
0.0381561
0.0381939
0.03817
0.0380634
0.0378462
0.0374809
0.0369231
0.0361201
0.0350082
0.0335244
0.0315797
0.0290398
0.0257597
0.0215993
0.016449
0.0102744
0.00314597
-0.00462054
-0.0124875
-0.019675
-0.0253521
-0.0288104
-0.0292721
-0.0271584
-0.0255007
-0.0244561
-0.0289819
0.0406345
0.0407436
0.0408477
0.0409295
0.0409673
0.0409424
0.0408302
0.0406002
0.0402092
0.0396082
0.0387391
0.0375306
0.0359139
0.0337899
0.0310193
0.0274179
0.0228525
0.0172163
0.0104374
0.00264438
-0.00581646
-0.014347
-0.0221022
-0.0281928
-0.0318772
-0.0323343
-0.0299548
-0.0278835
-0.0264253
-0.030758
0.0436734
0.0438021
0.0439229
0.0440166
0.0440591
0.04403
0.0439054
0.0436526
0.0432272
0.0425751
0.0416321
0.0403186
0.0385577
0.0362431
0.0332108
0.0292808
0.0242867
0.0181027
0.010704
0.00220464
-0.00699299
-0.0162223
-0.0245633
-0.0310732
-0.0350057
-0.0354727
-0.0328079
-0.0302912
-0.0283903
-0.0325131
0.0469642
0.0471019
0.0472326
0.047336
0.047387
0.0473639
0.047239
0.0469759
0.0465241
0.0458244
0.0448066
0.0433822
0.0414676
0.0389459
0.0356469
0.0313497
0.0258936
0.0191555
0.0110728
0.00182191
-0.00815043
-0.0181122
-0.027066
-0.03402
-0.0382
-0.0386698
-0.0357072
-0.0327008
-0.0303183
-0.0342128
0.0505262
0.0506924
0.0508492
0.0509739
0.0510384
0.0510195
0.050889
0.0506081
0.0501239
0.0493718
0.048274
0.0467326
0.0446549
0.0419153
0.0383182
0.0336472
0.027702
0.0203447
0.0115617
0.00151724
-0.00927278
-0.0200007
-0.0295813
-0.0369831
-0.0414354
-0.0419285
-0.0386447
-0.035112
-0.0322178
-0.0358743
0.0543742
0.0545567
0.0547307
0.054872
0.0549514
0.054944
0.0548173
0.0545286
0.0540184
0.053216
0.052037
0.0503733
0.0481236
0.0451507
0.0412523
0.0361651
0.0296991
0.0217174
0.0121641
0.00128237
-0.0103643
-0.0218854
-0.032121
-0.0399937
-0.0447217
-0.0452324
-0.0416123
-0.0375008
-0.0340526
-0.0374642
0.0584814
0.0586997
0.0589074
0.0590775
0.0591776
0.0591807
0.0590544
0.0587523
0.0582125
0.0573577
0.0560949
0.0543049
0.051876
0.0486611
0.0444296
0.0389231
0.0319091
0.0232323
0.0128967
0.0011352
-0.011408
-0.0237513
-0.0346498
-0.0429914
-0.0480271
-0.0485779
-0.0445956
-0.0398597
-0.0358292
-0.0389983
0.0628412
0.0630818
0.0633142
0.0635097
0.0636345
0.0636596
0.0635475
0.0632469
0.0626884
0.0617874
0.060443
0.0585242
0.0559093
0.0524388
0.0478729
0.0419045
0.0343102
0.0249351
0.0137456
0.00106005
-0.0124105
-0.0255992
-0.0371798
-0.0460185
-0.0513641
-0.0519528
-0.0475879
-0.0421636
-0.0375084
-0.0404441
0.0674734
0.0677555
0.0680276
0.068258
0.0684101
0.0684529
0.0683486
0.068042
0.06746
0.0665103
0.0650817
0.0630303
0.0602228
0.0564877
0.0515564
0.0451247
0.0369197
0.0267757
0.0147221
0.00107508
-0.0133569
-0.0274114
-0.0396737
-0.0490034
-0.0546948
-0.0553481
-0.0505649
-0.0443984
-0.0390943
-0.0418169
0.0723755
0.0726863
0.0729892
0.0732504
0.073432
0.0735011
0.0734146
0.0731124
0.0725136
0.071518
0.070005
0.0678173
0.0648093
0.0607961
0.0554984
0.0485575
0.0397126
0.0287986
0.0158065
0.00116017
-0.0142597
-0.0291891
-0.0421494
-0.0519952
-0.0580396
-0.0587545
-0.0535226
-0.0465376
-0.0405452
-0.0430853
0.0775117
0.0778713
0.0782213
0.0785249
0.0787413
0.0788348
0.078763
0.0784606
0.0778432
0.0768015
0.0752035
0.0728769
0.0696626
0.0653623
0.0596662
0.0522166
0.0427015
0.030943
0.0170092
0.00133016
-0.0151018
-0.0309162
-0.0445641
-0.0549138
-0.0613551
-0.0621552
-0.0564276
-0.0485582
-0.0418635
-0.0442658
0.082873
0.0832668
0.0836548
0.0839976
0.0842533
0.0843835
0.0843405
0.0840525
0.0834274
0.0823459
0.080666
0.0781991
0.0747717
0.0701712
0.0640747
0.0560696
0.0458545
0.033252
0.0183039
0.00155713
-0.0158992
-0.0325981
-0.046937
-0.0578222
-0.0646663
-0.065547
-0.0592769
-0.0504325
-0.0430052
-0.0453275
0.0884714
0.0889189
0.0893593
0.0897498
0.0900464
0.0902079
0.0901871
0.089907
0.0892704
0.0881483
0.086385
0.0837751
0.0801289
0.0752179
0.0686883
0.0601269
0.0491772
0.0356589
0.019696
0.00185784
-0.0166349
-0.0342156
-0.0492257
-0.0606313
-0.067925
-0.0689059
-0.0620244
-0.0521299
-0.0439719
-0.04629
0.0943044
0.0947914
0.0952745
0.0957085
0.0960482
0.09625
0.0962611
0.0959981
0.095356
0.0941953
0.0923488
0.0895927
0.0857198
0.0804854
0.0735189
0.0643496
0.0526375
0.038205
0.0211542
0.00220065
-0.0173326
-0.0357751
-0.0514566
-0.0634138
-0.0711665
-0.0722325
-0.0646692
-0.0536207
-0.0447184
-0.0471245
0.100333
0.100879
0.101419
0.101906
0.102292
0.102531
0.10257
0.10232
0.10167
0.100471
0.0985402
0.0956352
0.0915309
0.0859637
0.0785275
0.0687472
0.0562352
0.0408136
0.0226835
0.00259993
-0.0179704
-0.0372587
-0.0535839
-0.0660746
-0.074338
-0.0754915
-0.0671531
-0.0548659
-0.0452467
-0.0478561
0.10654
0.10713
0.10772
0.108258
0.108695
0.108982
0.109062
0.108836
0.108187
0.106954
0.104941
0.101886
0.0975434
0.091632
0.0837198
0.0732731
0.0599318
0.0435237
0.0242478
0.00301547
-0.0185766
-0.0386796
-0.0556371
-0.0687035
-0.0774815
-0.0786904
-0.0694746
-0.0558348
-0.0455121
-0.0484569
0.112937
0.11359
0.11424
0.114834
0.115321
0.115649
0.11576
0.115552
0.1149
0.113631
0.111536
0.108329
0.103744
0.097475
0.0890372
0.0779224
0.063717
0.0462565
0.0258474
0.00346623
-0.0191268
-0.0400156
-0.0575742
-0.0711991
-0.0805389
-0.0817823
-0.0715604
-0.0564817
-0.0455182
-0.0489575
0.119524
0.120224
0.120924
0.121567
0.122101
0.122473
0.12262
0.122435
0.121784
0.120484
0.118305
0.114941
0.110099
0.10343
0.0944708
0.082645
0.0675557
0.0490518
0.0274432
0.00390897
-0.0196604
-0.0412841
-0.0594349
-0.0736637
-0.0835632
-0.0847783
-0.0734094
-0.0567757
-0.0452226
-0.0493328
0.126253
0.127009
0.127759
0.128451
0.129027
0.129436
0.129617
0.129453
0.128808
0.127478
0.125217
0.121684
0.116553
0.109493
0.0999769
0.0874414
0.0714485
0.0518262
0.0290361
0.00436073
-0.020145
-0.0424648
-0.0611774
-0.0759935
-0.0864904
-0.0876145
-0.0749339
-0.0566651
-0.0446329
-0.0496206
0.133008
0.133801
0.134597
0.135343
0.135978
0.13645
0.136687
0.136567
0.135941
0.134591
0.132246
0.128536
0.123126
0.115638
0.105569
0.0922988
0.0753569
0.0546106
0.0305805
0.00476709
-0.0206287
-0.043586
-0.0628481
-0.0783082
-0.0893792
-0.0903064
-0.0761302
-0.0561206
-0.0437111
-0.0497986
0.139777
0.140646
0.141523
0.142343
0.143049
0.143583
0.143875
0.143796
0.14319
0.141823
0.139398
0.135514
0.129799
0.121895
0.111242
0.0971999
0.0792587
0.0573149
0.0320673
0.00514969
-0.0210745
-0.0446243
-0.0644126
-0.080501
-0.0921558
-0.0927725
-0.0768953
-0.0550884
-0.0424706
-0.0499116
0.146886
0.147783
0.148687
0.149538
0.150283
0.150859
0.151194
0.151147
0.150556
0.149169
0.146663
0.142603
0.136599
0.12824
0.116979
0.102108
0.0831111
0.0599614
0.0334465
0.00544944
-0.0215476
-0.0456164
-0.0659313
-0.082703
-0.0948863
-0.0950272
-0.077225
-0.0535432
-0.0408807
-0.0499419
0.153779
0.154768
0.155767
0.156705
0.157529
0.158172
0.158566
0.158564
0.157998
0.156599
0.154022
0.149793
0.143477
0.134667
0.122745
0.106993
0.0868855
0.0624582
0.0347106
0.00568749
-0.0219998
-0.0465432
-0.0673731
-0.0848061
-0.0974843
-0.0969652
-0.0770031
-0.0514316
-0.038963
-0.0499405
0.16083
0.161864
0.162912
0.163906
0.164793
0.165504
0.165963
0.166016
0.165484
0.164084
0.161442
0.157047
0.150433
0.141126
0.128512
0.111821
0.0905429
0.0648261
0.0358122
0.00579543
-0.0225079
-0.0474555
-0.0688081
-0.0869533
-0.100015
-0.098601
-0.0762235
-0.0487364
-0.0366964
-0.0498939
0.167618
0.168759
0.169921
0.171023
0.172013
0.172817
0.173362
0.173485
0.173001
0.171608
0.16891
0.164351
0.157415
0.14761
0.13425
0.116562
0.094055
0.0669869
0.0367407
0.00580614
-0.0230144
-0.0483324
-0.0702135
-0.0890319
-0.102374
-0.0998052
-0.0747595
-0.0454105
-0.0341128
-0.04986
0.174641
0.175833
0.177052
0.178221
0.179286
0.180172
0.180798
0.180991
0.180557
0.179175
0.176417
0.17169
0.164432
0.154077
0.139936
0.121192
0.0973969
0.0689582
0.037454
0.00565097
-0.0236154
-0.0492344
-0.0716737
-0.0911874
-0.104623
-0.100587
-0.072608
-0.0414481
-0.0312026
-0.0498294
0.181532
0.182824
0.184151
0.18542
0.186585
0.187564
0.188279
0.188547
0.188165
0.186793
0.183976
0.179069
0.171453
0.160537
0.145554
0.12569
0.100541
0.070669
0.0379463
0.00536593
-0.0242383
-0.0501477
-0.0731673
-0.0932996
-0.106633
-0.100789
-0.0696373
-0.0368122
-0.02801
-0.0498654
0.188665
0.190011
0.191395
0.192731
0.193971
0.195033
0.195833
0.196175
0.195845
0.194481
0.191593
0.186492
0.178507
0.166966
0.151093
0.13004
0.103467
0.0721304
0.0381807
0.00487416
-0.0249941
-0.0511462
-0.0747858
-0.0955099
-0.108455
-0.100418
-0.0658493
-0.0315145
-0.0245387
-0.0499623
0.195659
0.197112
0.19861
0.200055
0.201404
0.202569
0.203466
0.20389
0.203616
0.202257
0.199294
0.193979
0.185582
0.173388
0.156546
0.134224
0.106144
0.0732861
0.0381433
0.00422225
-0.0258023
-0.0522167
-0.0765091
-0.0976828
-0.109929
-0.0992931
-0.0611146
-0.0255341
-0.0208456
-0.0501877
0.202944
0.204458
0.206022
0.207542
0.208976
0.210232
0.211222
0.211727
0.211506
0.210151
0.207099
0.201553
0.19272
0.179784
0.16191
0.13823
0.10856
0.0741339
0.0378022
0.00332937
-0.0267968
-0.0534409
-0.0784346
-0.0999434
-0.111091
-0.0974153
-0.0554493
-0.0189038
-0.0169482
-0.0505394
0.210213
0.21183
0.213504
0.215129
0.216669
0.21803
0.219121
0.219713
0.219551
0.218197
0.215049
0.209249
0.199895
0.186183
0.167179
0.142045
0.110683
0.0746278
0.0371419
0.00224027
-0.0278867
-0.054813
-0.0805319
-0.102133
-0.111746
-0.0945832
-0.0487355
-0.0116223
-0.0129166
-0.0510873
0.21779
0.219474
0.221219
0.222923
0.224553
0.226013
0.227207
0.227891
0.22779
0.226429
0.223169
0.217037
0.207152
0.192568
0.172364
0.145669
0.112504
0.0747505
0.036135
0.000863515
-0.0292238
-0.0564214
-0.0828928
-0.104351
-0.111908
-0.0908025
-0.0410093
-0.00374891
-0.00878114
-0.0518303
0.225387
0.227181
0.229042
0.23086
0.232608
0.234188
0.235501
0.236287
0.236247
0.234869
0.231439
0.224987
0.21449
0.19899
0.177487
0.149093
0.113986
0.0744716
0.0347489
-0.000752456
-0.0307145
-0.0582566
-0.0854693
-0.106406
-0.11135
-0.0858602
-0.0321743
0.00469489
-0.0046234
-0.0528408
0.233351
0.23522
0.237162
0.239071
0.240922
0.242617
0.244049
0.244938
0.244955
0.243543
0.239959
0.233123
0.221997
0.205502
0.182568
0.152312
0.115116
0.0737483
0.0329622
-0.00270685
-0.0325322
-0.0604013
-0.0883376
-0.108356
-0.110067
-0.0797717
-0.0222982
0.0136224
-0.000484421
-0.0541214
0.24145
0.243434
0.245497
0.247526
0.249504
0.251332
0.252897
0.253901
0.253986
0.252546
0.248771
0.241559
0.229737
0.212134
0.187606
0.155301
0.115849
0.0725607
0.0307312
-0.00495907
-0.034575
-0.06284
-0.0914161
-0.109972
-0.107801
-0.0723248
-0.011316
0.0229896
0.00354584
-0.0557469
0.249991
0.252067
0.254227
0.256362
0.258457
0.260416
0.262116
0.263243
0.263403
0.261937
0.257989
0.250336
0.23775
0.21891
0.192611
0.158053
0.116162
0.0708402
0.0280398
-0.00761807
-0.0370267
-0.0656378
-0.0947488
-0.111267
-0.10453
-0.0635599
0.000667322
0.0326807
0.00741907
-0.0577181
0.258841
0.261038
0.263323
0.265584
0.267813
0.269917
0.271767
0.273029
0.273279
0.271796
0.26764
0.259532
0.246075
0.225849
0.197579
0.160538
0.116005
0.0685831
0.0248195
-0.0106432
-0.0397797
-0.0687519
-0.0982101
-0.111965
-0.0999804
-0.0532819
0.0136776
0.0426308
0.0110412
-0.0601061
0.268194
0.270498
0.272901
0.275291
0.277662
0.279921
0.281932
0.283342
0.283686
0.282185
0.277822
0.269178
0.254759
0.232987
0.202528
0.16275
0.115351
0.065692
0.0210657
-0.0141481
-0.0430174
-0.0722082
-0.101797
-0.112031
-0.0941277
-0.0415678
0.0275642
0.0526997
0.0143606
-0.062907
0.278147
0.28057
0.283097
0.285615
0.288127
0.290545
0.292723
0.294283
0.294729
0.293201
0.288584
0.27937
0.263858
0.240355
0.207458
0.164659
0.114144
0.062176
0.0166961
-0.0180956
-0.0466094
-0.0759226
-0.105328
-0.111148
-0.0866957
-0.028257
0.0423097
0.0628072
0.0172833
-0.066187
0.288862
0.291397
0.294042
0.296685
0.299339
0.301917
0.304262
0.305974
0.306511
0.304939
0.300045
0.290163
0.273435
0.247998
0.212394
0.166258
0.112346
0.0579168
0.0117186
-0.0225967
-0.050716
-0.0798616
-0.108742
-0.109245
-0.0776758
-0.0134816
0.0577184
0.0727926
0.019759
-0.0699351
0.30037
0.303038
0.305816
0.308596
0.3114
0.314146
0.316666
0.318532
0.319158
0.317517
0.312284
0.301668
0.28356
0.255962
0.217345
0.16751
0.109891
0.0529319
0.00603111
-0.0276025
-0.055176
-0.0838734
-0.111798
-0.105975
-0.0668139
0.00286819
0.0737313
0.0825677
0.0216993
-0.0742109
0.312815
0.315622
0.31854
0.321466
0.324432
0.327358
0.330061
0.332085
0.33279
0.331055
0.325439
0.313956
0.294307
0.264307
0.222344
0.1684
0.106725
0.0470834
-0.000338438
-0.0332138
-0.0600987
-0.0878436
-0.114375
-0.101249
-0.0541428
0.0205952
0.0901086
0.0919618
0.0230595
-0.0789941
0.326271
0.329242
0.332323
0.335414
0.338558
0.341681
0.344584
0.346773
0.347552
0.345701
0.339585
0.327147
0.305757
0.273085
0.227395
0.168871
0.102757
0.0403908
-0.00749256
-0.0393607
-0.0652626
-0.0915406
-0.116178
-0.0947228
-0.0394568
0.0397451
0.106756
0.100889
0.0237602
-0.0843353
0.340919
0.344064
0.347322
0.350593
0.353935
0.357273
0.360389
0.362744
0.363592
0.361527
0.354877
0.341316
0.317997
0.282363
0.232522
0.168888
0.097914
0.0327143
-0.015376
-0.0461157
-0.0706924
-0.0947618
-0.11704
-0.0863239
-0.0228538
0.0600447
0.123402
0.109176
0.0237657
-0.0902027
0.356887
0.360234
0.363691
0.367166
0.370724
0.374296
0.377634
0.38015
0.380999
0.378721
0.371412
0.356597
0.331124
0.292188
0.237715
0.168361
0.0920733
0.0240814
-0.0240824
-0.0533589
-0.0760882
-0.0971932
-0.116634
-0.075747
-0.00420283
0.0814691
0.139929
0.116749
0.0230094
-0.0966364
0.374403
0.377967
0.381639
0.385334
0.389121
0.392938
0.396495
0.399153
0.400006
0.39742
0.389386
0.373141
0.345244
0.302633
0.242991
0.167223
0.0851599
0.0143589
-0.0334952
-0.0611057
-0.0813428
-0.0985582
-0.114772
-0.0629855
0.016308
0.103671
0.156045
0.123446
0.0214665
-0.103591
0.393654
0.397463
0.401377
0.405313
0.409352
0.413427
0.417218
0.420011
0.420814
0.417873
0.408986
0.3911
0.360482
0.313783
0.248317
0.165363
0.0770016
0.00363921
-0.0436576
-0.0691477
-0.0860374
-0.0984971
-0.111137
-0.0478235
0.0387139
0.126556
0.171624
0.129214
0.0190849
-0.111096
0.414929
0.419008
0.423186
0.427383
0.431686
0.436035
0.440058
0.442976
0.443695
0.440282
0.430387
0.410612
0.376986
0.32575
0.253708
0.162693
0.0675496
-0.00814151
-0.0543334
-0.0773708
-0.0898918
-0.0967354
-0.105573
-0.0303663
0.0627218
0.149709
0.186372
0.13391
0.0158518
-0.119093
0.438476
0.44286
0.447332
0.451813
0.456403
0.461035
0.465299
0.468317
0.46888
0.464878
0.453772
0.431831
0.394892
0.338592
0.259097
0.159043
0.0566336
-0.0207593
-0.0654711
-0.0853638
-0.092341
-0.0929797
-0.0978354
-0.0105385
0.0882569
0.172977
0.200174
0.137511
0.0117309
-0.127597
0.46456
0.469295
0.474104
0.478904
0.483801
0.488729
0.493224
0.496314
0.496641
0.491883
0.479317
0.454919
0.414334
0.352381
0.264447
0.154324
0.0442808
-0.0341552
-0.0766096
-0.0926552
-0.0929176
-0.087129
-0.0879072
0.011394
0.11491
0.195896
0.212747
0.139901
0.00672174
-0.136536
0.493451
0.498595
0.503793
0.508957
0.514193
0.51943
0.524154
0.527266
0.527258
0.521559
0.507227
0.480033
0.435414
0.36711
0.269653
0.148343
0.0303875
-0.0479094
-0.0875381
-0.097768
-0.0907821
-0.0790927
-0.0757609
0.0353143
0.142493
0.218269
0.224002
0.141092
0.00080453
-0.145921
0.525502
0.531111
0.536752
0.542322
0.547927
0.553488
0.558423
0.56151
0.561059
0.554177
0.537718
0.507338
0.458221
0.382795
0.274686
0.141075
0.0150961
-0.0619939
-0.0964242
-0.0987442
-0.0855527
-0.0689365
-0.0616612
0.0607744
0.170476
0.239606
0.233685
0.140999
-0.00601136
-0.155681
0.561061
0.567196
0.573337
0.579364
0.585373
0.59127
0.596402
0.599407
0.598334
0.59005
0.571085
0.537132
0.482892
0.399436
0.279514
0.132439
-0.00131654
-0.0743525
-0.100694
-0.0949367
-0.0784737
-0.0569389
-0.0458441
0.0875025
0.198567
0.259692
0.241737
0.139669
-0.0137341
-0.165827
0.600489
0.607216
0.613923
0.620458
0.626905
0.633144
0.638457
0.641243
0.639417
0.629418
0.607621
0.569809
0.509765
0.4172
0.284196
0.122409
-0.0181301
-0.0796193
-0.099851
-0.0889366
-0.071501
-0.043633
-0.0286631
0.115033
0.226179
0.278053
0.247948
0.137047
-0.0223451
-0.176258
0.644125
0.651517
0.658855
0.665953
0.672865
0.679452
0.684875
0.687393
0.684569
0.672569
0.647601
0.605686
0.539117
0.436361
0.288798
0.110617
-0.0336605
-0.0755202
-0.0961603
-0.0824249
-0.0650731
-0.02835
-0.00946336
0.143235
0.252995
0.294512
0.252311
0.133212
-0.0318204
-0.186944
0.692321
0.70045
0.708482
0.716191
0.723588
0.730514
0.736046
0.73817
0.734104
0.719714
0.691292
0.64507
0.571218
0.457471
0.293801
0.0988423
-0.038031
-0.0684132
-0.0905402
-0.0740613
-0.058167
-0.00930256
0.0132176
0.17188
0.278383
0.308684
0.254682
0.128159
-0.0420845
-0.197784
0.745456
0.754386
0.763179
0.771545
0.779453
0.786709
0.792293
0.793917
0.788302
0.770982
0.738777
0.687666
0.605784
0.480304
0.297871
0.0871117
-0.0304029
-0.0641523
-0.0811424
-0.0612733
-0.0498733
0.0153283
0.0411204
0.20073
0.301913
0.320499
0.255113
0.122021
-0.0530871
-0.208765
0.803906
0.813715
0.82333
0.832392
0.840813
0.848368
0.853932
0.854898
0.847426
0.826663
0.790362
0.733073
0.642525
0.505667
0.303869
0.0804153
-0.026958
-0.0612754
-0.0671337
-0.0427744
-0.0392416
0.045378
0.0746383
0.229065
0.322899
0.329742
0.253518
0.114844
-0.0647802
-0.219783
0.868041
0.878793
0.889285
0.89907
0.907994
0.915781
0.921187
0.921221
0.911502
0.886972
0.846263
0.780939
0.681527
0.532616
0.309212
0.0799894
-0.0290335
-0.0529182
-0.0501313
-0.01923
-0.0244904
0.0784808
0.112621
0.256099
0.341033
0.336491
0.249997
0.10677
-0.0771371
-0.230799
0.938225
0.949981
0.961391
0.971904
0.981283
0.989201
0.994235
0.992892
0.980314
0.952189
0.905801
0.830108
0.721694
0.560495
0.306984
0.0797712
-0.0270896
-0.0373848
-0.0318091
0.00720398
-0.00388896
0.112545
0.152336