/*--------------------------------*- C++ -*----------------------------------*\
  =========                 |
  \\      /  F ield         | OpenFOAM: The Open Source CFD Toolbox
   \\    /   O peration     | Website:  https://openfoam.org
    \\  /    A nd           | Version:  6.0
     \\/     M anipulation  |
\*---------------------------------------------------------------------------*/
FoamFile
{
    version     2.0;
    format      ascii;
    class       surfaceScalarField;
    location    "10";
    object      phi;
}
// * * * * * * * * * * * * * * * * * * * * * * * * * * * * * * * * * * * * * //

dimensions      [0 3 -1 0 0 0 0];

internalField   nonuniform List<scalar> 
30763
(
-5.28889e-05
4.48197e-05
5.44512e-05
-5.11072e-05
5.25445e-05
-4.89848e-05
6.16024e-05
-4.65269e-05
7.22241e-05
-4.36155e-05
8.46765e-05
-4.02236e-05
9.92803e-05
-3.62248e-05
0.000116409
-3.15314e-05
0.000136473
-2.60078e-05
0.000160021
-1.95031e-05
0.000187594
-1.18311e-05
0.000219927
-2.80035e-06
0.000257805
7.85653e-06
0.00030215
2.04248e-05
0.000354025
3.52351e-05
0.000414661
5.26689e-05
0.000485394
7.31801e-05
0.00056768
9.72577e-05
0.000663057
0.00012544
0.000772985
0.000158324
0.000898653
0.00019655
0.00104059
0.000240711
0.00119807
0.00029131
0.00136801
0.000348576
0.00154333
0.000412215
0.0017104
0.000480993
0.00184504
0.000552276
0.00190664
0.00062097
0.00183104
0.000678438
0.00151798
0.000816764
0.000696178
-5.15114e-05
4.33431e-05
5.30125e-05
-4.97925e-05
5.08125e-05
-4.77484e-05
5.95711e-05
-4.53764e-05
6.98419e-05
-4.25675e-05
8.18796e-05
-3.92935e-05
9.59983e-05
-3.54347e-05
0.000112561
-3.0906e-05
0.000131939
-2.55789e-05
0.000154702
-1.93061e-05
0.000181319
-1.19139e-05
0.000212539
-3.21193e-06
0.000249102
7.05013e-06
0.00029189
1.91545e-05
0.000341919
3.34147e-05
0.000400399
5.02066e-05
0.000468603
6.99691e-05
0.00054793
9.31736e-05
0.000639866
0.000120347
0.000745821
0.000152073
0.000866927
0.00018897
0.00100368
0.000231609
0.00115542
0.000280455
0.00131914
0.000335708
0.00148804
0.000397073
0.00164898
0.000463378
0.00177865
0.00053209
0.00183784
0.000598387
0.00176465
0.000651643
0.00146475
0.000795889
0.000672307
-5.00881e-05
4.19208e-05
5.15318e-05
-4.84283e-05
4.91442e-05
-4.64607e-05
5.76143e-05
-4.41731e-05
6.75469e-05
-4.14676e-05
7.91847e-05
-3.83117e-05
9.28355e-05
-3.45937e-05
0.000108852
-3.02285e-05
0.000127568
-2.50945e-05
0.000149574
-1.90485e-05
0.000175269
-1.1924e-05
0.000205419
-3.53639e-06
0.000240713
6.35499e-06
0.000281999
1.80248e-05
0.000330248
3.17734e-05
0.000386647
4.79679e-05
0.000452411
6.7029e-05
0.000528878
8.94154e-05
0.000617494
0.000115632
0.000719614
0.000146241
0.000836317
0.000181836
0.000968077
0.000222961
0.00111428
0.000270057
0.00127202
0.000323315
0.00143476
0.00038246
0.00158982
0.000446401
0.0017147
0.000512675
0.00177156
0.000576745
0.00170059
0.000629084
0.00141242
0.000771275
0.000653761
-4.85401e-05
4.05515e-05
4.99273e-05
-4.69451e-05
4.75387e-05
-4.50537e-05
5.57317e-05
-4.28542e-05
6.53392e-05
-4.02539e-05
7.65926e-05
-3.72186e-05
8.97933e-05
-3.36435e-05
0.000105285
-2.94436e-05
0.000123363
-2.45036e-05
0.00014464
-1.86836e-05
0.000169446
-1.18233e-05
0.000198561
-3.74358e-06
0.000232632
5.78852e-06
0.000272468
1.7038e-05
0.000318997
3.02952e-05
0.000373388
4.59124e-05
0.000436795
6.42978e-05
0.000510504
8.58896e-05
0.000595916
0.000111174
0.000694339
0.000140687
0.000806805
0.000175
0.000933757
0.000214634
0.00107463
0.000260015
0.00122662
0.000311337
0.0013834
0.000368356
0.00153276
0.000430052
0.00165295
0.000494028
0.00170751
0.000555958
0.00163859
0.000607357
0.00136105
0.000745086
0.000633357
-4.70001e-05
3.9233e-05
4.83376e-05
-4.54611e-05
4.59939e-05
-4.3642e-05
5.39211e-05
-4.1525e-05
6.32168e-05
-3.90257e-05
7.41012e-05
-3.61071e-05
8.68695e-05
-3.26711e-05
0.000101855
-2.8633e-05
0.000119321
-2.3883e-05
0.000139895
-1.8284e-05
0.000163844
-1.16822e-05
0.000191962
-3.90336e-06
0.000224853
5.27728e-06
0.000263288
1.61162e-05
0.000308158
2.88917e-05
0.000360609
4.39448e-05
0.000421744
6.16659e-05
0.000492792
8.24799e-05
0.000575117
0.00010685
0.00066998
0.000135292
0.000778364
0.000168354
0.000900687
0.000206541
0.00103643
0.00025027
0.00118287
0.00029974
0.00133391
0.000354734
0.00147776
0.000414287
0.00159339
0.000476083
0.00164573
0.000535905
0.00157878
0.000585789
0.00131119
0.000719557
0.000611397
-4.55774e-05
3.79601e-05
4.68643e-05
-4.40955e-05
4.45032e-05
-4.23426e-05
5.21749e-05
-4.03033e-05
6.11708e-05
-3.78963e-05
7.17004e-05
-3.50853e-05
8.40529e-05
-3.17772e-05
9.85529e-05
-2.78888e-05
0.000115428
-2.33158e-05
0.000135326
-1.79247e-05
0.00015845
-1.15678e-05
0.000185608
-4.0762e-06
0.00021736
4.76714e-06
0.000254445
1.52091e-05
0.000297714
2.75192e-05
0.000348297
4.20234e-05
0.000407241
5.91012e-05
0.000475725
7.91582e-05
0.000555074
0.000102643
0.000646506
0.000130049
0.000750961
0.000161906
0.000868825
0.000198705
0.000999622
0.000240854
0.00114071
0.000288556
0.00128618
0.000341615
0.00142466
0.000399113
0.00153584
0.000458815
0.00158596
0.000516564
0.00152097
0.000564727
0.00126307
0.000694622
0.00058947
-4.43303e-05
3.67289e-05
4.55779e-05
-4.28945e-05
4.30618e-05
-4.12001e-05
5.04871e-05
-3.92282e-05
5.91941e-05
-3.69041e-05
6.9382e-05
-3.41896e-05
8.13341e-05
-3.09981e-05
9.5366e-05
-2.72463e-05
0.000111673
-2.28364e-05
0.000130919
-1.76375e-05
0.000153249
-1.1509e-05
0.000179481
-4.28732e-06
0.000210137
4.2363e-06
0.000245922
1.43008e-05
0.000287649
2.61644e-05
0.00033643
4.01437e-05
0.000393265
5.66013e-05
0.000459277
7.59317e-05
0.00053576
9.85647e-05
0.000623885
0.000124978
0.000724551
0.000155682
0.000838114
0.000191154
0.000964139
0.000231794
0.00110005
0.000277809
0.00124015
0.000329017
0.00137345
0.000384536
0.00148033
0.000442214
0.0015283
0.000497951
0.00146525
0.000544423
0.00121664
0.000670678
0.000568442
-4.32378e-05
3.55355e-05
4.44429e-05
-4.18479e-05
4.16646e-05
-4.02072e-05
4.88513e-05
-3.82974e-05
5.7279e-05
-3.60476e-05
6.71368e-05
-3.34202e-05
7.87025e-05
-3.03331e-05
9.22831e-05
-2.67056e-05
0.000108042
-2.24443e-05
0.000126661
-1.7423e-05
0.000148226
-1.15069e-05
0.000173566
-4.53808e-06
0.000203168
3.6844e-06
0.0002377
1.33903e-05
0.000277942
2.48302e-05
0.000324989
3.83068e-05
0.00037979
5.41735e-05
0.000443421
7.28074e-05
0.00051714
9.46262e-05
0.000602079
0.00012009
0.000699092
0.000149694
0.000808508
0.0001839
0.000929924
0.000223101
0.00106083
0.000267504
0.00119573
0.000316935
0.00132398
0.000370544
0.00142667
0.000426256
0.00147253
0.000480047
0.00141139
0.000524934
0.00117181
0.000646982
0.000548429
-4.22405e-05
3.43807e-05
4.3411e-05
-4.08923e-05
4.03121e-05
-3.93033e-05
4.72675e-05
-3.74525e-05
5.54246e-05
-3.52748e-05
6.4963e-05
-3.27305e-05
7.6155e-05
-2.9744e-05
8.92995e-05
-2.6234e-05
0.00010453
-2.2114e-05
0.000122543
-1.72599e-05
0.00014337
-1.15443e-05
0.000167852
-4.81429e-06
0.000196437
3.12237e-06
0.000229764
1.24883e-05
0.000268576
2.35234e-05
0.000313951
3.65223e-05
0.000366794
5.18224e-05
0.00042813
6.97927e-05
0.000499186
9.08334e-05
0.000581051
0.000115391
0.000674539
0.000143944
0.000779951
0.000176941
0.000896917
0.000214767
0.00102299
0.000257624
0.00115286
0.000305347
0.00127625
0.00035711
0.00137492
0.000410909
0.00141875
0.000462823
0.0013595
0.0005062
0.00112848
0.00062398
0.000529275
-4.12913e-05
3.32638e-05
4.24186e-05
-3.99881e-05
3.90032e-05
-3.8451e-05
4.57343e-05
-3.66593e-05
5.3629e-05
-3.45509e-05
6.28581e-05
-3.20874e-05
7.36885e-05
-2.91963e-05
8.64114e-05
-2.57996e-05
0.000101131
-2.18143e-05
0.00011856
-1.7121e-05
0.000138675
-1.15971e-05
0.000162329
-5.09591e-06
0.000189935
2.56793e-06
0.000222101
1.16079e-05
0.000259535
2.22573e-05
0.000303301
3.47975e-05
0.000354255
4.95586e-05
0.000413381
6.68925e-05
0.000481866
8.71896e-05
0.000560767
0.00011088
0.000650855
0.000138429
0.000752403
0.000170269
0.00086507
0.000206777
0.000986474
0.000248148
0.00111146
0.000294224
0.00123014
0.000344198
0.00132489
0.000396137
0.00136676
0.000446233
0.00130934
0.000488156
0.00108662
0.000601128
0.000510796
-4.03375e-05
3.21867e-05
4.14294e-05
-3.90783e-05
3.77402e-05
-3.75939e-05
4.4254e-05
-3.58623e-05
5.18946e-05
-3.3826e-05
6.08242e-05
-3.14443e-05
7.13045e-05
-2.86509e-05
8.36194e-05
-2.53669e-05
9.7845e-05
-2.15154e-05
0.00011471
-1.69791e-05
0.000134138
-1.16422e-05
0.000156993
-5.36237e-06
0.000183655
2.03773e-06
0.000214701
1.07647e-05
0.000250808
2.10421e-05
0.000293022
3.31443e-05
0.000342156
4.73861e-05
0.000399148
6.41119e-05
0.000465157
8.36962e-05
0.000541196
0.000106556
0.000628001
0.000133141
0.000725816
0.000163872
0.000834332
0.000199111
0.000951223
0.00023905
0.00107151
0.000283533
0.00118565
0.000331774
0.00127667
0.000381904
0.00131665
0.000430238
0.00126103
0.000470732
0.00104619
0.000579047
0.000492879
-3.93744e-05
3.11478e-05
4.04219e-05
-3.81604e-05
3.65216e-05
-3.67286e-05
4.28252e-05
-3.50568e-05
5.02201e-05
-3.30898e-05
5.88601e-05
-3.07892e-05
6.90022e-05
-2.80901e-05
8.09229e-05
-2.49177e-05
9.46715e-05
-2.11971e-05
0.000110991
-1.68159e-05
0.000129756
-1.1662e-05
0.00015184
-5.59836e-06
0.000177591
1.54603e-06
0.000207558
9.96932e-06
0.000242384
1.9889e-05
0.000283101
3.15673e-05
0.00033048
4.53121e-05
0.000385415
6.14515e-05
0.000449032
8.03512e-05
0.00052231
0.000102413
0.000605947
0.000128071
0.000700159
0.000157733
0.000804666
0.00019175
0.000917195
0.000230306
0.00103294
0.000273245
0.00114267
0.000319803
0.00123005
0.000368175
0.00126822
0.000414799
0.00121434
0.000453893
0.00100717
0.000557255
0.000475464
-3.83739e-05
3.01486e-05
3.93889e-05
-3.72037e-05
3.53491e-05
-3.58247e-05
4.14498e-05
-3.42136e-05
4.86073e-05
-3.23195e-05
5.69674e-05
-3.01011e-05
6.67824e-05
-2.74996e-05
7.8322e-05
-2.44386e-05
9.16096e-05
-2.08493e-05
0.000107402
-1.66207e-05
0.000125527
-1.16466e-05
0.000146867
-5.79408e-06
0.000171738
1.10083e-06
0.000200663
9.23031e-06
0.000234255
1.88024e-05
0.000273528
3.00733e-05
0.000319213
4.33356e-05
0.000372161
5.89121e-05
0.000433472
7.71512e-05
0.000504085
9.84436e-05
0.000584661
0.000123208
0.000675394
0.000151839
0.000776029
0.000184673
0.000884351
0.000221888
0.000995711
0.00026333
0.00110123
0.000308256
0.00118514
0.000354921
0.00122158
0.000399888
0.0011694
0.000437601
0.000969527
0.000536383
0.000458538
-3.73651e-05
2.91857e-05
3.83352e-05
-3.62392e-05
3.42191e-05
-3.49112e-05
4.01241e-05
-3.33584e-05
4.70527e-05
-3.15317e-05
5.51429e-05
-2.93925e-05
6.46424e-05
-2.68829e-05
7.58143e-05
-2.39309e-05
8.86571e-05
-2.04687e-05
0.000103941
-1.639e-05
0.000121447
-1.15917e-05
0.00014207
-5.94559e-06
0.000166092
7.06849e-07
0.000194012
8.54988e-06
0.000226412
1.77864e-05
0.000264291
2.86604e-05
0.00030834
4.14595e-05
0.000359374
5.64894e-05
0.000418456
7.40911e-05
0.000486497
9.464e-05
0.000564121
0.000118541
0.000651496
0.000146173
0.000748394
0.000177864
0.000852652
0.000213779
0.000959775
0.000253768
0.0010612
0.000297109
0.00114175
0.000342117
0.00117652
0.000385476
0.00112597
0.000421843
0.000933249
0.000515902
0.000442098
-3.63246e-05
2.82602e-05
3.72652e-05
-3.52404e-05
3.31328e-05
-3.39629e-05
3.88493e-05
-3.24689e-05
4.55572e-05
-3.07124e-05
5.33869e-05
-2.86527e-05
6.25817e-05
-2.62373e-05
7.33985e-05
-2.33927e-05
8.5812e-05
-2.00566e-05
0.000100605
-1.61242e-05
0.000117515
-1.14977e-05
0.000137444
-6.05267e-06
0.000160647
3.6331e-07
0.000187596
7.92895e-06
0.000218847
1.68383e-05
0.00025538
2.73301e-05
0.000297852
3.96776e-05
0.000347035
5.41807e-05
0.00040397
7.11651e-05
0.000469527
9.09942e-05
0.0005443
0.000114059
0.000628433
0.000140724
0.000721724
0.000171304
0.000822063
0.000205958
0.000925112
0.000244538
0.00102262
0.000286342
0.00109996
0.000329744
0.00113314
0.000371547
0.00108419
0.000406598
0.000898277
0.000496405
0.000426158
-3.52961e-05
2.73679e-05
3.61937e-05
-3.42526e-05
3.20856e-05
-3.30219e-05
3.76207e-05
-3.1582e-05
4.41161e-05
-2.98881e-05
5.16951e-05
-2.79031e-05
6.05967e-05
-2.55742e-05
7.10715e-05
-2.28331e-05
8.30712e-05
-1.96177e-05
9.73912e-05
-1.5828e-05
0.000113725
-1.13683e-05
0.000132985
-6.11896e-06
0.000155397
6.77882e-08
0.000181411
7.36328e-06
0.000211551
1.59569e-05
0.000246787
2.60761e-05
0.000287735
3.79886e-05
0.000335134
5.19792e-05
0.000389993
6.83658e-05
0.000453155
8.74972e-05
0.000525178
0.000109751
0.000606184
0.000135479
0.000695996
0.000164982
0.000792554
0.000198413
0.000891663
0.000235625
0.000985364
0.000275938
0.00105959
0.000317784
0.00109124
0.00035808
0.00104383
0.000391859
0.000864593
0.000477316
0.000410719
-3.42486e-05
2.65104e-05
3.51225e-05
-3.32432e-05
3.10792e-05
-3.20595e-05
3.64396e-05
-3.06744e-05
4.27302e-05
-2.90466e-05
5.00675e-05
-2.71364e-05
5.86862e-05
-2.48963e-05
6.88309e-05
-2.22563e-05
8.04313e-05
-1.91598e-05
9.42946e-05
-1.55078e-05
0.000110073
-1.121e-05
0.000128688
-6.14984e-06
0.000150337
-1.85639e-07
0.000175447
6.84923e-06
0.000204517
1.51356e-05
0.000238499
2.48959e-05
0.000277979
3.63838e-05
0.000323654
4.98802e-05
0.000376514
6.56865e-05
0.000437363
8.41418e-05
0.000506732
0.000105609
0.00058472
0.000130427
0.000671175
0.000158886
0.000764087
0.00019113
0.00085941
0.000227014
0.000949476
0.000265885
0.00102073
0.000306226
0.00105092
0.000345065
0.00100501
0.000377612
0.000832135
0.000459206
0.000395792
-3.32341e-05
2.56829e-05
3.4066e-05
-3.22668e-05
3.01081e-05
-3.11258e-05
3.53003e-05
-2.97903e-05
4.13939e-05
-2.82195e-05
4.84985e-05
-2.6378e-05
5.6845e-05
-2.42177e-05
6.66721e-05
-2.16737e-05
7.78879e-05
-1.86893e-05
9.13111e-05
-1.51703e-05
0.000106554
-1.10284e-05
0.000124546
-6.15131e-06
0.00014546
-4.01675e-07
0.000169699
6.38019e-06
0.000197735
1.43706e-05
0.000230509
2.37807e-05
0.00026857
3.48609e-05
0.000312585
4.78754e-05
0.000363512
6.31199e-05
0.000422133
8.09195e-05
0.000488943
0.000101624
0.000564021
0.00012556
0.000647241
0.000153006
0.000736638
0.000184099
0.000828299
0.000218698
0.000914836
0.00025617
0.000983205
0.000295056
0.00101199
0.000332488
0.00096751
0.000363853
0.000800875
0.000441454
0.000381372
-3.22116e-05
2.48875e-05
3.30229e-05
-3.1279e-05
2.91746e-05
-3.01813e-05
3.42047e-05
-2.88964e-05
4.01083e-05
-2.73869e-05
4.69886e-05
-2.56144e-05
5.50724e-05
-2.35362e-05
6.45929e-05
-2.10857e-05
7.54379e-05
-1.82115e-05
8.84366e-05
-1.48205e-05
0.000103164
-1.08292e-05
0.000120556
-6.12862e-06
0.00014076
-5.86647e-07
0.000164158
5.95158e-06
0.000191198
1.36541e-05
0.000222806
2.27281e-05
0.0002595
3.34099e-05
0.000301912
4.59601e-05
0.000350979
6.06599e-05
0.000407448
7.78235e-05
0.000471789
9.77881e-05
0.00054406
0.000120869
0.000624158
0.000147332
0.000710167
0.00017731
0.000798313
0.000210664
0.000881477
0.000246785
0.000947096
0.000284266
0.000974529
0.000320343
0.000931457
0.000350566
0.000770752
0.000424635
0.000367456
-3.12344e-05
2.41192e-05
3.20068e-05
-3.03362e-05
2.82732e-05
-2.92767e-05
3.31473e-05
-2.80366e-05
3.88681e-05
-2.65786e-05
4.55327e-05
-2.48688e-05
5.33639e-05
-2.28638e-05
6.25896e-05
-2.0502e-05
7.30775e-05
-1.77315e-05
8.56672e-05
-1.4464e-05
9.98968e-05
-1.06177e-05
0.00011671
-6.08751e-06
0.00013623
-7.45535e-07
0.000158817
5.55653e-06
0.000184896
1.29824e-05
0.00021538
2.1729e-05
0.000250756
3.20285e-05
0.000291623
4.41268e-05
0.000338893
5.82993e-05
0.000393291
7.48467e-05
0.000455252
9.40949e-05
0.000524819
0.000116347
0.00060191
0.00014186
0.000684653
0.000170758
0.0007694
0.000202908
0.000849286
0.000237722
0.000912225
0.000273847
0.000938357
0.000308615
0.00089662
0.000337746
0.000741732
0.000408122
0.00035403
-3.02541e-05
2.3381e-05
3.10112e-05
-2.93867e-05
2.74069e-05
-2.83676e-05
3.21306e-05
-2.71741e-05
3.76753e-05
-2.57732e-05
4.41315e-05
-2.41274e-05
5.17189e-05
-2.21987e-05
6.06599e-05
-1.99234e-05
7.08034e-05
-1.72551e-05
8.29987e-05
-1.41061e-05
9.67487e-05
-1.03993e-05
0.000113004
-6.033e-06
0.000131865
-8.84176e-07
0.000153669
5.19103e-06
0.000178822
1.23485e-05
0.000208223
2.07809e-05
0.000242327
3.07072e-05
0.000281704
4.23713e-05
0.000327246
5.60326e-05
0.000379643
7.1984e-05
0.00043931
9.05382e-05
0.000506269
0.000111987
0.00058046
0.000136579
0.000660056
0.000164433
0.000741536
0.000195419
0.000818293
0.000228973
0.000878681
0.00026379
0.000903563
0.0002973
0.000863132
0.000325377
0.000713763
0.000392483
0.000341089
-2.93288e-05
2.26673e-05
3.0047e-05
-2.84942e-05
2.65695e-05
-2.75099e-05
3.11484e-05
-2.63574e-05
3.65233e-05
-2.50034e-05
4.27794e-05
-2.34147e-05
5.01322e-05
-2.15529e-05
5.87993e-05
-1.9359e-05
6.86112e-05
-1.67862e-05
8.04265e-05
-1.3751e-05
9.37143e-05
-1.01781e-05
0.000109432
-5.96946e-06
0.000127656
-1.00621e-06
0.000148707
4.84942e-06
0.000172966
1.17492e-05
0.000201323
1.98756e-05
0.000234202
2.94454e-05
0.000272145
4.06865e-05
0.000316017
5.38542e-05
0.00036649
6.92288e-05
0.000423947
8.71116e-05
0.000488394
0.000107785
0.000559793
0.000131487
0.000636355
0.000158332
0.000714678
0.000188194
0.00078839
0.000220531
0.000846287
0.000254088
0.000869965
0.000286385
0.000830766
0.000313455
0.000686812
0.000377101
0.000328617
-2.84025e-05
2.19817e-05
2.91076e-05
-2.75964e-05
2.57649e-05
-2.66499e-05
3.0204e-05
-2.55408e-05
3.54152e-05
-2.42398e-05
4.14777e-05
-2.27104e-05
4.8604e-05
-2.0919e-05
5.70066e-05
-1.88048e-05
6.64986e-05
-1.6326e-05
7.79474e-05
-1.34002e-05
9.07897e-05
-9.95654e-06
0.000105989
-5.8998e-06
0.0001236
-1.11575e-06
0.000143924
4.52895e-06
0.000167323
1.11787e-05
0.000194673
1.90125e-05
0.000226372
2.82343e-05
0.000262931
3.90696e-05
0.000305198
5.17601e-05
0.000353814
6.65768e-05
0.00040914
8.38108e-05
0.000471165
0.000103734
0.000539869
0.000126575
0.000613508
0.000152446
0.000688797
0.000181223
0.000759604
0.000212388
0.000815131
0.000244732
0.000837643
0.000275863
0.000799656
0.000301962
0.00066083
0.000362531
0.000316607
-2.75352e-05
2.13184e-05
2.82033e-05
-2.6759e-05
2.49867e-05
-2.58437e-05
2.92913e-05
-2.47716e-05
3.43448e-05
-2.35132e-05
4.02214e-05
-2.20361e-05
4.71299e-05
-2.03064e-05
5.52782e-05
-1.82674e-05
6.44621e-05
-1.58771e-05
7.55579e-05
-1.30569e-05
8.79707e-05
-9.73737e-06
0.00010267
-5.82695e-06
0.00011969
-1.21523e-06
0.000139314
4.22538e-06
0.000161883
1.06355e-05
0.000188263
1.81848e-05
0.000218825
2.70741e-05
0.000254052
3.75148e-05
0.000294769
4.97449e-05
0.000341598
6.40228e-05
0.000394873
8.06303e-05
0.000454566
9.98287e-05
0.000520678
0.00012184
0.0005915
0.000146771
0.000663856
0.000174503
0.00073183
0.000204537
0.00078504
0.000235713
0.00080643
0.000265721
0.000769579
0.000290892
0.000635782
0.000348176
0.00030504
-2.66641e-05
2.06819e-05
2.73236e-05
-2.59136e-05
2.42396e-05
-2.50342e-05
2.84143e-05
-2.4003e-05
3.33156e-05
-2.27947e-05
3.90124e-05
-2.13732e-05
4.57104e-05
-1.97092e-05
5.36128e-05
-1.77444e-05
6.24993e-05
-1.54414e-05
7.32544e-05
-1.27226e-05
8.52532e-05
-9.52271e-06
9.94709e-05
-5.75304e-06
0.000115921
-1.30759e-06
0.00013487
3.93721e-06
0.000156639
1.01152e-05
0.000182085
1.73922e-05
0.000211551
2.59571e-05
0.000245493
3.60207e-05
0.000284721
4.78053e-05
0.000329827
6.15638e-05
0.000381124
7.75661e-05
0.000438569
9.60651e-05
0.000502179
0.000117276
0.000570285
0.0001413
0.000639821
0.000168024
0.000705095
0.000196971
0.000756098
0.000227023
0.000776398
0.000255953
0.000740668
0.000280229
0.000611629
0.000334573
0.000293906
-2.58577e-05
2.00654e-05
2.64784e-05
-2.51365e-05
2.35162e-05
-2.42855e-05
2.75658e-05
-2.32884e-05
3.23206e-05
-2.21188e-05
3.78446e-05
-2.07452e-05
4.43401e-05
-1.91377e-05
5.2006e-05
-1.72421e-05
6.06063e-05
-1.50207e-05
7.10333e-05
-1.23993e-05
8.2633e-05
-9.3141e-06
9.63863e-05
-5.67976e-06
0.000112288
-1.39403e-06
0.000130585
3.66146e-06
0.000151584
9.61683e-06
0.00017613
1.6629e-05
0.00020454
2.48855e-05
0.000237247
3.45815e-05
0.000275036
4.59376e-05
0.000318484
5.91947e-05
0.000367879
7.46133e-05
0.000423159
9.24383e-05
0.000484363
0.000112877
0.000549853
0.000136028
0.000616662
0.000161782
0.0006793
0.000189681
0.000728141
0.000218653
0.000747397
0.000246544
0.000712709
0.000269964
0.000588337
0.000321156
0.000283186
-2.50443e-05
1.9474e-05
2.56574e-05
-2.43472e-05
2.28219e-05
-2.35303e-05
2.67507e-05
-2.25722e-05
3.13639e-05
-2.14494e-05
3.67206e-05
-2.01278e-05
4.30203e-05
-1.85812e-05
5.04575e-05
-1.67542e-05
5.87816e-05
-1.46134e-05
6.88918e-05
-1.20859e-05
8.01068e-05
-9.11149e-06
9.34124e-05
-5.60774e-06
0.000108784
-1.47616e-06
0.000126454
3.39749e-06
0.000146711
9.13718e-06
0.00017039
1.58967e-05
0.000197783
2.38519e-05
0.000229298
3.31971e-05
0.000265706
4.41395e-05
0.000307555
5.69128e-05
0.000355114
7.17689e-05
0.000408308
8.89437e-05
0.000467188
0.000108638
0.000530154
0.000130948
0.000594341
0.000155768
0.000654465
0.00018266
0.000701251
0.000210593
0.000719483
0.000237487
0.000685832
0.000260081
0.000565872
0.00030844
0.000272872
-2.42967e-05
1.89008e-05
2.48723e-05
-2.36263e-05
2.21494e-05
-2.28347e-05
2.59619e-05
-2.1907e-05
3.04389e-05
-2.08195e-05
3.56351e-05
-1.95419e-05
4.17466e-05
-1.80475e-05
4.8964e-05
-1.62851e-05
5.7022e-05
-1.42202e-05
6.68271e-05
-1.17833e-05
7.76712e-05
-8.91579e-06
9.05452e-05
-5.53775e-06
0.000105407
-1.55454e-06
0.000122472
3.14323e-06
0.000142013
8.67615e-06
0.000164857
1.51902e-05
0.00019127
2.28589e-05
0.000221638
3.18628e-05
0.000256711
4.24071e-05
0.000297024
5.47143e-05
0.000342817
6.90283e-05
0.000394003
8.55768e-05
0.000450649
0.000104555
0.000511184
0.000126056
0.000572836
0.000149978
0.000630503
0.000175901
0.00067527
0.000202835
0.000692524
0.000228768
0.000659832
0.000250572
0.000544199
0.000295889
0.000262943
-2.35351e-05
1.83518e-05
2.41084e-05
-2.28865e-05
2.15048e-05
-2.21278e-05
2.5205e-05
-2.12374e-05
2.95503e-05
-2.01947e-05
3.45909e-05
-1.89664e-05
4.05202e-05
-1.75293e-05
4.7525e-05
-1.58312e-05
5.5326e-05
-1.38414e-05
6.48365e-05
-1.1492e-05
7.5323e-05
-8.72727e-06
8.77807e-05
-5.4704e-06
0.00010215
-1.63074e-06
0.000118633
2.89842e-06
0.000137485
8.2313e-06
0.000159523
1.45108e-05
0.000184992
2.19e-05
0.000214254
3.05794e-05
0.000248048
4.07386e-05
0.000286876
5.25971e-05
0.000330967
6.63885e-05
0.000380216
8.23338e-05
0.000434704
0.000100622
0.000492893
0.000121344
0.000552101
0.000144402
0.000607428
0.000169395
0.000650276
0.000195369
0.000666569
0.00022038
0.000634834
0.000241419
0.000523292
0.000283987
0.000253392
-2.28454e-05
1.78188e-05
2.33786e-05
-2.22228e-05
2.08794e-05
-2.1487e-05
2.44715e-05
-2.06244e-05
2.86903e-05
-1.96134e-05
3.35817e-05
-1.84253e-05
3.93361e-05
-1.70363e-05
4.61365e-05
-1.53976e-05
5.36902e-05
-1.34781e-05
6.29169e-05
-1.12126e-05
7.30586e-05
-8.54672e-06
8.51149e-05
-5.40689e-06
9.90098e-05
-1.70449e-06
0.000114931
2.6613e-06
0.000133118
7.80168e-06
0.00015438
1.38554e-05
0.000178942
2.09797e-05
0.000207142
2.93413e-05
0.000239696
3.91312e-05
0.0002771
5.05573e-05
0.000319552
6.38455e-05
0.000366936
7.92103e-05
0.000419349
9.6835e-05
0.000475278
0.000116809
0.000532126
0.000139037
0.00058516
0.000163133
0.000626121
0.000188186
0.000641501
0.000212308
0.000610645
0.000232615
0.000503118
0.000272239
0.000244199
-2.21349e-05
1.73089e-05
2.26669e-05
-2.15337e-05
2.02805e-05
-2.08297e-05
2.37681e-05
-2.00033e-05
2.78643e-05
-1.90349e-05
3.26109e-05
-1.78935e-05
3.81959e-05
-1.65577e-05
4.47983e-05
-1.49789e-05
5.21131e-05
-1.31287e-05
6.10657e-05
-1.09445e-05
7.08749e-05
-8.37414e-06
8.25441e-05
-5.34634e-06
9.59817e-05
-1.77698e-06
0.000111361
2.43137e-06
0.000128908
7.38995e-06
0.000149425
1.32252e-05
0.00017311
2.00901e-05
0.000200285
2.81505e-05
0.000231654
3.75832e-05
0.000267678
4.85925e-05
0.00030855
6.13966e-05
0.000354136
7.62024e-05
0.000404544
9.31887e-05
0.000458288
0.000112443
0.00051286
0.000133872
0.00056371
0.00015711
0.000602879
0.000181275
0.000617353
0.000204544
0.000587385
0.000224143
0.000483656
0.000261096
0.000235355
-2.15009e-05
1.68134e-05
2.19907e-05
-2.09242e-05
1.96991e-05
-2.02408e-05
2.30862e-05
-1.94397e-05
2.70647e-05
-1.84998e-05
3.16726e-05
-1.73954e-05
3.70948e-05
-1.61035e-05
4.3507e-05
-1.45799e-05
5.05916e-05
-1.27945e-05
5.928e-05
-1.06881e-05
6.87685e-05
-8.20909e-06
8.00644e-05
-5.28916e-06
9.3061e-05
-1.84747e-06
0.000107918
2.21278e-06
0.00012485
6.99096e-06
0.000144645
1.26178e-05
0.00016749
1.92368e-05
0.000193679
2.70009e-05
0.000223895
3.60915e-05
0.000258599
4.67e-05
0.000297951
5.9038e-05
0.000341807
7.33061e-05
0.000390285
8.9679e-05
0.000441927
0.000108242
0.000494299
0.000128905
0.000543007
0.000151316
0.000580411
0.000174629
0.000594031
0.000197076
0.000564873
0.000215996
0.00046487
0.000250102
0.000226843
-2.08396e-05
1.63394e-05
2.13252e-05
-2.0286e-05
1.91422e-05
-1.96338e-05
2.24318e-05
-1.88689e-05
2.62959e-05
-1.79686e-05
3.07688e-05
-1.69083e-05
3.60331e-05
-1.56644e-05
4.22608e-05
-1.41959e-05
4.91231e-05
-1.24734e-05
5.75566e-05
-1.04415e-05
6.67359e-05
-8.05003e-06
7.76721e-05
-5.23361e-06
9.02435e-05
-1.91381e-06
0.000104598
1.99945e-06
0.000120935
6.61019e-06
0.000140039
1.20343e-05
0.00016207
1.84103e-05
0.000187306
2.58964e-05
0.000216424
3.46551e-05
0.000249848
4.48779e-05
0.000287734
5.67672e-05
0.00032992
7.05181e-05
0.000376535
8.63007e-05
0.000426142
0.000104199
0.000476388
0.000124126
0.000523058
0.000145744
0.000558784
0.000168238
0.000571554
0.000189896
0.00054322
0.000208157
0.000446746
0.000239664
0.000218656
-2.0252e-05
1.58769e-05
2.0692e-05
-1.97234e-05
1.85994e-05
-1.90893e-05
2.17951e-05
-1.83473e-05
2.55495e-05
-1.74715e-05
2.98934e-05
-1.64446e-05
3.50062e-05
-1.52407e-05
4.10571e-05
-1.38234e-05
4.77057e-05
-1.2161e-05
5.58936e-05
-1.02016e-05
6.4775e-05
-7.89509e-06
7.53643e-05
-5.17888e-06
8.75259e-05
-1.97771e-06
0.000101395
1.79835e-06
0.00011716
6.24131e-06
0.000135595
1.14702e-05
0.000156846
1.76193e-05
0.000181168
2.483e-05
0.000209216
3.32719e-05
0.000241415
4.31232e-05
0.000277891
5.45807e-05
0.000318469
6.78341e-05
0.000363291
8.30499e-05
0.000410939
0.000100311
0.000459133
0.000119531
0.000503798
0.000140386
0.000537871
0.000162094
0.000549848
0.00018299
0.000522261
0.000200619
0.00042925
0.000229377
0.000210776
-1.96295e-05
1.54383e-05
2.00909e-05
-1.91093e-05
1.80842e-05
-1.85027e-05
2.11897e-05
-1.77899e-05
2.48381e-05
-1.69555e-05
2.90563e-05
-1.59716e-05
3.40219e-05
-1.4818e-05
3.99006e-05
-1.34552e-05
4.63418e-05
-1.18551e-05
5.42915e-05
-9.96709e-06
6.28848e-05
-7.74354e-06
7.31389e-05
-5.12445e-06
8.4905e-05
-2.03714e-06
9.83066e-05
1.60208e-06
0.000113519
5.88869e-06
0.000131312
1.09295e-05
0.000151808
1.68531e-05
0.000175246
2.3806e-05
0.000202275
3.19406e-05
0.000233287
4.1434e-05
0.000268401
5.24763e-05
0.000307429
6.52512e-05
0.000350516
7.9922e-05
0.000396267
9.65702e-05
0.000442473
0.000115113
0.00048523
0.000135237
0.000517736
0.000156187
0.000528912
0.000176351
0.000502097
0.000193367
0.000412371
0.000219607
0.000203196
-1.90862e-05
1.50084e-05
1.94938e-05
-1.85947e-05
1.75795e-05
-1.80062e-05
2.05975e-05
-1.73162e-05
2.41436e-05
-1.65027e-05
2.82415e-05
-1.55478e-05
3.30662e-05
-1.44285e-05
3.87802e-05
-1.31106e-05
4.50225e-05
-1.15645e-05
5.27437e-05
-9.74238e-06
6.10601e-05
-7.5972e-06
7.09917e-05
-5.07113e-06
8.23768e-05
-2.0942e-06
9.5328e-05
1.41693e-06
0.000110009
5.54725e-06
0.00012718
1.04073e-05
0.000146952
1.61201e-05
0.000169543
2.2818e-05
0.000195579
3.06587e-05
0.000225455
3.98079e-05
0.000259258
5.04505e-05
0.000296792
6.27654e-05
0.000338209
7.69132e-05
0.000382134
9.29746e-05
0.000426422
0.000110866
0.0004673
0.000130286
0.000498258
0.000150509
0.000508698
0.000169967
0.000482579
0.000186395
0.000396074
0.00020999
0.000195901
-1.85144e-05
1.45976e-05
1.89253e-05
-1.80366e-05
1.70969e-05
-1.74714e-05
2.00306e-05
-1.68086e-05
2.34778e-05
-1.60291e-05
2.74592e-05
-1.51116e-05
3.21472e-05
-1.40356e-05
3.77017e-05
-1.27665e-05
4.37517e-05
-1.12769e-05
5.12521e-05
-9.52079e-06
5.93012e-05
-7.45286e-06
6.89215e-05
-5.01753e-06
7.99391e-05
-2.14708e-06
9.24558e-05
1.23624e-06
0.000106623
5.22141e-06
0.000123199
9.90635e-06
0.000142269
1.54102e-05
0.00016404
2.18695e-05
0.000189131
2.9425e-05
0.000217903
3.82431e-05
0.000250443
4.8501e-05
0.000286534
6.0374e-05
0.000326336
7.40193e-05
0.000368488
8.95163e-05
0.000410913
0.000106784
0.000450005
0.00012553
0.000479495
0.000145053
0.00048919
0.000163831
0.000463795
0.000179688
0.000380354
0.000200844
0.000188884
-1.79889e-05
1.42012e-05
1.83904e-05
-1.75224e-05
1.66317e-05
-1.69744e-05
1.94847e-05
-1.63298e-05
2.28372e-05
-1.55767e-05
2.67068e-05
-1.46906e-05
3.12635e-05
-1.3654e-05
3.66642e-05
-1.24318e-05
4.25288e-05
-1.09973e-05
4.98157e-05
-9.30561e-06
5.76066e-05
-7.31276e-06
6.69263e-05
-4.96525e-06
7.75892e-05
-2.19828e-06
8.96867e-05
1.06567e-06
0.00010336
4.90545e-06
0.000119358
9.4226e-06
0.000137756
1.47314e-05
0.000158739
2.09541e-05
0.000182909
2.82377e-05
0.000210626
3.67369e-05
0.000241949
4.6625e-05
0.000276649
5.80731e-05
0.000314895
7.12363e-05
0.00035534
8.61939e-05
0.000395969
0.000102862
0.000433298
0.000120959
0.00046134
0.000139809
0.000470358
0.000157932
0.000445615
0.000173239
0.000365174
0.000191861
0.000182128
-1.74684e-05
1.38186e-05
1.78533e-05
-1.70215e-05
1.61823e-05
-1.64949e-05
1.89569e-05
-1.5876e-05
2.22176e-05
-1.51506e-05
2.59791e-05
-1.42964e-05
3.04092e-05
-1.32962e-05
3.56618e-05
-1.21167e-05
4.13479e-05
-1.07324e-05
4.84295e-05
-9.10075e-06
5.59718e-05
-7.17886e-06
6.50019e-05
-4.91517e-06
7.53229e-05
-2.24693e-06
8.70162e-05
8.98731e-07
0.000100212
4.60361e-06
0.000115656
8.95858e-06
0.000133402
1.40741e-05
0.000153625
2.00757e-05
0.000176917
2.70954e-05
0.00020361
3.52878e-05
0.000233758
4.48203e-05
0.000267116
5.58603e-05
0.000303855
6.85609e-05
0.00034264
8.29999e-05
0.00038152
9.90943e-05
0.000417173
0.00011657
0.000443845
0.000134771
0.00045217
0.000152262
0.000428115
0.000167036
0.000350534
0.000183313
0.00017563
-1.69819e-05
1.34497e-05
1.73539e-05
-1.65485e-05
1.57491e-05
-1.60388e-05
1.84484e-05
-1.54389e-05
2.16209e-05
-1.47381e-05
2.52784e-05
-1.39134e-05
2.95862e-05
-1.29488e-05
3.46959e-05
-1.18116e-05
4.02096e-05
-1.04771e-05
4.70928e-05
-8.90368e-06
5.43951e-05
-7.05028e-06
6.31457e-05
-4.86725e-06
7.3137e-05
-2.29425e-06
8.44409e-05
7.40758e-07
9.71769e-05
4.31109e-06
0.000112084
8.51112e-06
0.000129206
1.34455e-05
0.000148697
1.92285e-05
0.000171134
2.59963e-05
0.000196848
3.38936e-05
0.000225864
4.30842e-05
0.000257928
5.3732e-05
0.000293212
6.59891e-05
0.000330399
7.99329e-05
0.000367594
9.54765e-05
0.000401591
0.000112353