/*--------------------------------*- C++ -*----------------------------------*\
  =========                 |
  \\      /  F ield         | OpenFOAM: The Open Source CFD Toolbox
   \\    /   O peration     | Website:  https://openfoam.org
    \\  /    A nd           | Version:  6.0
     \\/     M anipulation  |
\*---------------------------------------------------------------------------*/
FoamFile
{
    version     2.0;
    format      ascii;
    class       surfaceScalarField;
    location    "3.7";
    object      phi;
}
// * * * * * * * * * * * * * * * * * * * * * * * * * * * * * * * * * * * * * //

dimensions      [0 3 -1 0 0 0 0];

internalField   nonuniform List<scalar> 
26699
(
2.0051e-05
0.005201
5.7951e-10
4.0126e-05
0.0051116
5.9639e-05
0.0049351
7.8187e-05
0.0046741
9.5415e-05
0.0043332
0.00011102
0.0039182
0.00012472
0.0034362
0.00013626
0.0028953
0.00014546
0.002305
0.00015181
0.0016755
0.00015717
0.0010154
0.00046503
3.435e-05
2.0051e-05
0.0051809
1.7936e-09
4.0127e-05
0.0050916
5.964e-05
0.0049155
7.819e-05
0.0046556
9.5417e-05
0.004316
0.00011102
0.0039026
0.00012471
0.0034225
0.00013625
0.0028838
0.00014545
0.0022958
0.00015105
0.0016699
0.0001589
0.0010076
0.00055905
6.488e-05
2.0051e-05
0.0051609
3.0999e-09
4.0128e-05
0.0050715
5.9643e-05
0.004896
7.8193e-05
0.004637
9.542e-05
0.0042988
0.00011103
0.003887
0.00012471
0.0034088
0.00013623
0.0028723
0.00014547
0.0022865
0.00015029
0.0016651
0.00016016
0.00099768
0.00062922
8.9991e-05
2.0051e-05
0.0051408
4.4238e-09
4.013e-05
0.0050514
5.9645e-05
0.0048765
7.8196e-05
0.0046185
9.5423e-05
0.0042815
0.00011103
0.0038714
0.0001247
0.0033951
0.0001362
0.0028608
0.00014551
0.0022772
0.00014955
0.001661
0.00016089
0.00098634
0.00067994
0.00011018
2.0051e-05
0.0051208
5.7507e-09
4.0131e-05
0.0050313
5.9647e-05
0.004857
7.8199e-05
0.0045999
9.5427e-05
0.0042643
0.00011103
0.0038558
0.0001247
0.0033815
0.00013618
0.0028493
0.00014558
0.0022678
0.00014885
0.0016578
0.0001611
0.00097409
0.00071482
0.00012621
2.0051e-05
0.0051007
7.0807e-09
4.0132e-05
0.0050112
5.965e-05
0.0048375
7.8202e-05
0.0045814
9.543e-05
0.0042471
0.00011103
0.0038402
0.0001247
0.0033678
0.00013615
0.0028378
0.00014567
0.0022583
0.00014822
0.0016552
0.00016086
0.00096145
0.00073691
0.00013877
2.0051e-05
0.0050807
8.4136e-09
4.0133e-05
0.0049912
5.9652e-05
0.004818
7.8206e-05
0.0045628
9.5433e-05
0.0042299
0.00011103
0.0038246
0.0001247
0.0033541
0.00013612
0.0028264
0.00014578
0.0022486
0.00014768
0.0016533
0.00016025
0.00094889
0.00074875
0.00014841
2.0051e-05
0.0050606
9.7494e-09
4.0134e-05
0.0049711
5.9654e-05
0.0047984
7.8209e-05
0.0045442
9.5436e-05
0.0042126
0.00011104
0.003809
0.0001247
0.0033405
0.00013608
0.002815
0.00014591
0.0022388
0.00014724
0.001652
0.00015938
0.00093676
0.00075251
0.00015562
2.005e-05
0.0050405
1.1088e-08
4.0135e-05
0.004951
5.9657e-05
0.0047789
7.8212e-05
0.0045257
9.544e-05
0.0041954
0.00011104
0.0037934
0.0001247
0.0033268
0.00013604
0.0028037
0.00014604
0.0022288
0.00014691
0.0016511
0.00015832
0.00092535
0.00075
0.00016083
2.005e-05
0.0050205
1.243e-08
4.0137e-05
0.0049309
5.9659e-05
0.0047594
7.8215e-05
0.0045071
9.5443e-05
0.0041782
0.00011104
0.0037778
0.0001247
0.0033132
0.00013599
0.0027924
0.00014618
0.0022186
0.00014669
0.0016506
0.00015715
0.00091489
0.00074274
0.00016442
2.005e-05
0.0050004
1.3775e-08
4.0138e-05
0.0049108
5.9661e-05
0.0047399
7.8218e-05
0.0044886
9.5446e-05
0.004161
0.00011104
0.0037622
0.0001247
0.0032995
0.00013595
0.0027812
0.00014632
0.0022082
0.00014657
0.0016503
0.00015595
0.00090551
0.00073196
0.00016672
2.005e-05
0.0049803
1.5124e-08
4.0139e-05
0.0048907
5.9664e-05
0.0047204
7.8221e-05
0.00447
9.545e-05
0.0041437
0.00011105
0.0037466
0.00012471
0.0032858
0.00013589
0.00277
0.00014646
0.0021977
0.00014656
0.0016502
0.00015476
0.00089731
0.00071871
0.00016801
2.005e-05
0.0049603
1.6475e-08
4.014e-05
0.0048706
5.9666e-05
0.0047008
7.8224e-05
0.0044515
9.5453e-05
0.0041265
0.00011105
0.003731
0.00012472
0.0032722
0.00013584
0.0027589
0.00014659
0.0021869
0.00014665
0.0016502
0.00015362
0.00089034
0.00070382
0.00016851
2.005e-05
0.0049402
1.783e-08
4.0141e-05
0.0048506
5.9668e-05
0.0046813
7.8227e-05
0.0044329
9.5457e-05
0.0041093
0.00011105
0.0037154
0.00012472
0.0032585
0.00013578
0.0027478
0.00014671
0.002176
0.00014682
0.0016501
0.00015257
0.00088459
0.00068797
0.00016843
2.005e-05
0.0049201
1.9188e-08
4.0142e-05
0.0048305
5.9671e-05
0.0046618
7.823e-05
0.0044143
9.546e-05
0.004092
0.00011105
0.0036998
0.00012473
0.0032448
0.00013571
0.0027368
0.00014682
0.0021649
0.00014707
0.0016498
0.00015164
0.00088002
0.00067168
0.00016792
2.005e-05
0.0049001
2.055e-08
4.0144e-05
0.0048104
5.9673e-05
0.0046422
7.8233e-05
0.0043958
9.5464e-05
0.0040748
0.00011105
0.0036842
0.00012474
0.0032311
0.00013565
0.0027259
0.00014692
0.0021536
0.00014739
0.0016494
0.00015083
0.00087658
0.00065538
0.00016713
2.005e-05
0.00488
2.1915e-08
4.0145e-05
0.0047903
5.9675e-05
0.0046227
7.8237e-05
0.0043772
9.5468e-05
0.0040576
0.00011106
0.0036686
0.00012476
0.0032174
0.00013558
0.0027151
0.00014699
0.0021422
0.00014776
0.0016486
0.00015016
0.00087418
0.00063939
0.00016614
2.005e-05
0.0048599
2.3283e-08
4.0146e-05
0.0047702
5.9678e-05
0.0046032
7.824e-05
0.0043587
9.5472e-05
0.0040403
0.00011106
0.0036531
0.00012477
0.0032037
0.00013551
0.0027044
0.00014705
0.0021306
0.00014817
0.0016475
0.00014962
0.00087273
0.00062395
0.00016506
2.005e-05
0.0048399
2.4655e-08
4.0147e-05
0.0047501
5.968e-05
0.0045837
7.8243e-05
0.0043401
9.5475e-05
0.0040231
0.00011106
0.0036375
0.00012479
0.00319
0.00013544
0.0026937
0.0001471
0.002119
0.00014862
0.0016459
0.00014923
0.00087213
0.00060924
0.00016395
2.005e-05
0.0048198
2.6031e-08
4.0148e-05
0.00473
5.9683e-05
0.0045641
7.8246e-05
0.0043215
9.5479e-05
0.0040059
0.00011106
0.0036219
0.00012481
0.0031762
0.00013537
0.0026831
0.00014712
0.0021072
0.00014909
0.001644
0.00014896
0.00087225
0.00059535
0.00016285
2.005e-05
0.0047997
2.741e-08
4.0149e-05
0.0047099
5.9685e-05
0.0045446
7.8249e-05
0.004303
9.5483e-05
0.0039886
0.00011106
0.0036063
0.00012483
0.0031624
0.00013531
0.0026727
0.00014712
0.0020954
0.00014958
0.0016415
0.00014883
0.00087301
0.00058237
0.00016181
2.005e-05
0.0047796
2.8793e-08
4.0151e-05
0.0046898
5.9687e-05
0.004525
7.8253e-05
0.0042844
9.5488e-05
0.0039714
0.00011106
0.0035907
0.00012485
0.0031487
0.00013524
0.0026623
0.0001471
0.0020836
0.00015007
0.0016386
0.0001488
0.00087427
0.00057032
0.00016086
2.005e-05
0.0047595
3.018e-08
4.0152e-05
0.0046697
5.969e-05
0.0045055
7.8256e-05
0.0042658
9.5492e-05
0.0039542
0.00011106
0.0035752
0.00012488
0.0031348
0.00013518
0.002652
0.00014707
0.0020717
0.00015055
0.0016351
0.00014889
0.00087593
0.0005592
0.00016
2.005e-05
0.0047395
3.1571e-08
4.0153e-05
0.0046496
5.9692e-05
0.004486
7.8259e-05
0.0042473
9.5496e-05
0.0039369
0.00011106
0.0035596
0.00012491
0.003121
0.00013511
0.0026418
0.00014701
0.0020598
0.00015103
0.0016311
0.00014906
0.0008779
0.000549
0.00015926
2.0049e-05
0.0047194
3.2966e-08
4.0154e-05
0.0046295
5.9695e-05
0.0044664
7.8262e-05
0.0042287
9.5501e-05
0.0039197
0.00011106
0.003544
0.00012493
0.0031071
0.00013506
0.0026317
0.00014694
0.0020479
0.00015148
0.0016265
0.00014931
0.00088007
0.00053967
0.00015864
2.0049e-05
0.0046993
3.4365e-08
4.0155e-05
0.0046094
5.9697e-05
0.0044469
7.8266e-05
0.0042101
9.5505e-05
0.0039025
0.00011106
0.0035285
0.00012496
0.0030932
0.000135
0.0026216
0.00014685
0.0020361
0.00015192
0.0016214
0.00014964
0.00088235
0.00053118
0.00015813
2.0049e-05
0.0046792
3.5768e-08
4.0156e-05
0.0045893
5.97e-05
0.0044273
7.8269e-05
0.0041916
9.551e-05
0.0038852
0.00011106
0.0035129
0.000125
0.0030793
0.00013495
0.0026117
0.00014674
0.0020243
0.00015232
0.0016159
0.00015001
0.00088466
0.00052345
0.00015774
2.0049e-05
0.0046591
3.7175e-08
4.0158e-05
0.0045691
5.9702e-05
0.0044078
7.8272e-05
0.004173
9.5515e-05
0.003868
0.00011106
0.0034974
0.00012503
0.0030653
0.00013491
0.0026018
0.00014662
0.0020126
0.0001527
0.0016098
0.00015043
0.00088693
0.00051642
0.00015746
2.0049e-05
0.004639
3.8586e-08
4.0159e-05
0.004549
5.9705e-05
0.0043883
7.8276e-05
0.0041544
9.552e-05
0.0038507
0.00011106
0.0034818
0.00012506
0.0030513
0.00013487
0.002592
0.00014648
0.0020009
0.00015305
0.0016032
0.00015088
0.0008891
0.00051003
0.00015727
2.0049e-05
0.0046189
4.0002e-08
4.016e-05
0.0045289
5.9707e-05
0.0043687
7.8279e-05
0.0041359
9.5525e-05
0.0038335
0.00011106
0.0034663
0.0001251
0.0030373
0.00013484
0.0025823
0.00014634
0.0019894
0.00015336
0.0015962
0.00015136
0.0008911
0.00050421
0.00015718
2.0049e-05
0.0045989
4.1422e-08
4.0161e-05
0.0045088
5.971e-05
0.0043492
7.8282e-05
0.0041173
9.5531e-05
0.0038162
0.00011105
0.0034508
0.00012514
0.0030232
0.00013481
0.0025726
0.00014618
0.0019781
0.00015363
0.0015887
0.00015184
0.00089289
0.00049889
0.00015716
2.0049e-05
0.0045788
4.2846e-08
4.0162e-05
0.0044887
5.9712e-05
0.0043296
7.8286e-05
0.0040987
9.5536e-05
0.003799
0.00011105
0.0034353
0.00012517
0.0030091
0.0001348
0.002563
0.00014601
0.0019669
0.00015387
0.0015809
0.00015234
0.00089442
0.00049401
0.00015722
2.0049e-05
0.0045587
4.4275e-08
4.0163e-05
0.0044686
5.9715e-05
0.0043101
7.8289e-05
0.0040801
9.5542e-05
0.0037817
0.00011105
0.0034198
0.00012521
0.0029949
0.00013479
0.0025534
0.00014584
0.0019558
0.00015407
0.0015726
0.00015282
0.00089567
0.0004895
0.00015733
2.0049e-05
0.0045386
4.5709e-08
4.0165e-05
0.0044485
5.9717e-05
0.0042905
7.8293e-05
0.0040616
9.5548e-05
0.0037645
0.00011104
0.0034043
0.00012525
0.0029807
0.00013478
0.0025438
0.00014567
0.0019449
0.00015424
0.0015641
0.0001533
0.00089661
0.00048532
0.00015749
2.0049e-05
0.0045185
4.7147e-08
4.0166e-05
0.0044284
5.972e-05
0.0042709
7.8296e-05
0.004043
9.5554e-05
0.0037472
0.00011104
0.0033888
0.00012529
0.0029665
0.00013479
0.0025343
0.00014549
0.0019342
0.00015436
0.0015552
0.00015376
0.0008972
0.0004814
0.00015768
2.0049e-05
0.0044984
4.8591e-08
4.0167e-05
0.0044082
5.9722e-05
0.0042514
7.8299e-05
0.0040244
9.5561e-05
0.00373
0.00011103
0.0033733
0.00012533
0.0029522
0.0001348
0.0025249
0.0001453
0.0019237
0.00015446
0.001546
0.00015421
0.00089746
0.0004777
0.00015791
2.0048e-05
0.0044783
5.0039e-08
4.0168e-05
0.0043881
5.9725e-05
0.0042318
7.8303e-05
0.0040058
9.5567e-05
0.0037127
0.00011103
0.0033579
0.00012536
0.0029378
0.00013483
0.0025154
0.00014512
0.0019134
0.00015452
0.0015367
0.00015462
0.00089735
0.00047417
0.00015815
2.0048e-05
0.0044582
5.1492e-08
4.0169e-05
0.004368
5.9728e-05
0.0042123
7.8306e-05
0.0039872
9.5574e-05
0.0036954
0.00011102
0.0033424
0.0001254
0.0029234
0.00013486
0.0025059
0.00014494
0.0019033
0.00015454
0.0015271
0.00015501
0.00089688
0.00047077
0.00015841
2.0048e-05
0.0044381
5.295e-08
4.0171e-05
0.0043479
5.973e-05
0.0041927
7.831e-05
0.0039687
9.5581e-05
0.0036782
0.00011101
0.003327
0.00012544
0.002909
0.0001349
0.0024965
0.00014477
0.0018935
0.00015454
0.0015173
0.00015538
0.00089604
0.00046747
0.00015868
2.0048e-05
0.004418
5.4414e-08
4.0172e-05
0.0043277
5.9733e-05
0.0041732
7.8313e-05
0.0039501
9.5589e-05
0.0036609
0.00011101
0.0033116
0.00012547
0.0028946
0.00013494
0.002487
0.0001446
0.0018838
0.00015451
0.0015074
0.00015571
0.00089485
0.00046423
0.00015894
2.0048e-05
0.0043979
5.5883e-08
4.0173e-05
0.0043076
5.9735e-05
0.0041536
7.8317e-05
0.0039315
9.5596e-05
0.0036436
0.000111
0.0032961
0.00012551
0.00288
0.000135
0.0024775
0.00014443
0.0018744
0.00015446
0.0014973
0.000156
0.00089331
0.00046104
0.0001592
2.0048e-05
0.0043778
5.7357e-08
4.0174e-05
0.0042875
5.9738e-05
0.004134
7.832e-05
0.0039129
9.5604e-05
0.0036263
0.00011099
0.0032808
0.00012554
0.0028655
0.00013506
0.002468
0.00014428
0.0018652
0.00015438
0.0014872
0.00015627
0.00089143
0.00045786
0.00015945
2.0048e-05
0.0043577
5.8836e-08
4.0175e-05
0.0042674
5.9741e-05
0.0041145
7.8324e-05
0.0038943
9.5613e-05
0.003609
0.00011098
0.0032654
0.00012557
0.0028509
0.00013513
0.0024585
0.00014413
0.0018562
0.00015429
0.0014771
0.0001565
0.00088921
0.00045468
0.00015968
2.0048e-05
0.0043376
6.0321e-08
4.0177e-05
0.0042472
5.9744e-05
0.0040949
7.8327e-05
0.0038758
9.5621e-05
0.0035917
0.00011098
0.00325
0.0001256
0.0028363
0.00013521
0.0024488
0.00014399
0.0018474
0.00015418
0.0014669
0.0001567
0.00088669
0.00045148
0.0001599
2.0048e-05
0.0043174
6.1812e-08
4.0178e-05
0.0042271
5.9746e-05
0.0040753
7.833e-05
0.0038572
9.563e-05
0.0035744
0.00011097
0.0032347
0.00012563
0.0028216
0.00013529
0.0024392
0.00014387
0.0018388
0.00015405
0.0014567
0.00015687
0.00088386
0.00044825
0.00016011
2.0048e-05
0.0042973
6.3309e-08
4.0179e-05
0.004207
5.9749e-05
0.0040558
7.8334e-05
0.0038386
9.5639e-05
0.0035571
0.00011096
0.0032194
0.00012566
0.0028069
0.00013538
0.0024295
0.00014376
0.0018304
0.00015391
0.0014466
0.00015701
0.00088075
0.00044497
0.00016029
2.0048e-05
0.0042772
6.4812e-08
4.018e-05
0.0041868
5.9752e-05
0.0040362
7.8337e-05
0.00382
9.5649e-05
0.0035398
0.00011095
0.0032041
0.00012568
0.0027922
0.00013548
0.0024197
0.00014365
0.0018222
0.00015376
0.0014365
0.00015713
0.00087739
0.00044165
0.00016045
2.0047e-05
0.0042571
6.632e-08
4.0182e-05
0.0041667
5.9755e-05
0.0040166
7.8341e-05
0.0038014
9.5658e-05
0.0035225
0.00011094
0.0031888
0.0001257
0.0027774
0.00013558
0.0024098
0.00014357
0.0018143
0.0001536
0.0014264
0.00015721
0.00087378
0.00043827
0.0001606
2.0047e-05
0.004237
6.7835e-08
4.0183e-05
0.0041466
5.9758e-05
0.003997
7.8344e-05
0.0037828
9.5669e-05
0.0035052
0.00011093
0.0031735
0.00012572
0.0027626
0.00013569
0.0023998
0.00014349
0.0018064
0.00015344
0.0014165
0.00015728
0.00086995
0.00043482
0.00016072
2.0047e-05
0.0042169
6.9356e-08
4.0184e-05
0.0041264
5.9761e-05
0.0039775
7.8348e-05
0.0037642
9.5679e-05
0.0034878
0.00011092
0.0031583
0.00012574
0.0027478
0.0001358
0.0023898
0.00014344
0.0017988
0.00015328
0.0014066
0.00015732
0.00086591
0.00043132
0.00016082
2.0047e-05
0.0041968
7.0883e-08
4.0186e-05
0.0041063
5.9763e-05
0.0039579
7.8351e-05
0.0037457
9.569e-05
0.0034705
0.00011091
0.0031431
0.00012575
0.002733
0.00013591
0.0023796
0.00014339
0.0017913
0.00015312
0.0013969
0.00015734
0.00086169
0.00042775
0.0001609
2.0047e-05
0.0041766
7.2417e-08
4.0187e-05
0.0040862
5.9766e-05
0.0039383
7.8354e-05
0.0037271
9.5701e-05
0.0034532
0.00011091
0.0031279
0.00012576
0.0027181
0.00013603
0.0023693
0.00014336
0.001784
0.00015296
0.0013873
0.00015734
0.00085731
0.00042412
0.00016097
2.0047e-05
0.0041565
7.3958e-08
4.0188e-05
0.004066
5.9769e-05
0.0039187
7.8358e-05
0.0037085
9.5712e-05
0.0034358
0.0001109
0.0031127
0.00012577
0.0027033
0.00013615
0.0023589
0.00014335
0.0017768
0.0001528
0.0013778
0.00015733
0.00085279
0.00042044
0.00016102
2.0047e-05
0.0041364
7.5505e-08
4.0189e-05
0.0040459
5.9772e-05
0.0038991
7.8361e-05
0.0036899
9.5724e-05
0.0034184
0.00011089
0.0030975
0.00012577
0.0026884
0.00013627
0.0023484
0.00014335
0.0017697
0.00015265
0.0013685
0.0001573
0.00084813
0.00041669
0.00016105
2.0047e-05
0.0041163
7.7059e-08
4.0191e-05
0.0040257
5.9775e-05
0.0038796
7.8364e-05
0.0036713
9.5736e-05
0.0034011
0.00011088
0.0030824
0.00012577
0.0026735
0.00013639
0.0023378
0.00014336
0.0017628
0.00015251
0.0013594
0.00015727
0.00084337
0.0004129
0.00016106
2.0047e-05
0.0040961
7.862e-08
4.0192e-05
0.0040056
5.9778e-05
0.00386
7.8368e-05
0.0036527
9.5748e-05
0.0033837
0.00011088
0.0030672
0.00012577
0.0026586
0.00013651
0.0023271
0.00014339
0.0017559
0.00015237
0.0013504
0.00015722
0.00083852
0.00040905
0.00016107
2.0047e-05
0.004076
8.0188e-08
4.0193e-05
0.0039854
5.9782e-05
0.0038404
7.8371e-05
0.0036341
9.5761e-05
0.0033663
0.00011087
0.0030521
0.00012576
0.0026437
0.00013663
0.0023162
0.00014343
0.0017491
0.00015225
0.0013416
0.00015717
0.0008336
0.00040516
0.00016106
2.0047e-05
0.0040559
8.1763e-08
4.0195e-05
0.0039653
5.9785e-05
0.0038208
7.8374e-05
0.0036155
9.5774e-05
0.0033489
0.00011087
0.003037
0.00012575
0.0026288
0.00013675
0.0023052
0.00014348
0.0017424
0.00015214
0.0013329
0.00015712
0.00082861
0.00040123
0.00016105
2.0047e-05
0.0040358
8.3346e-08
4.0196e-05
0.0039451
5.9788e-05
0.0038012
7.8377e-05
0.0035969
9.5787e-05
0.0033315
0.00011086
0.003022
0.00012574
0.0026139
0.00013687
0.0022941
0.00014355
0.0017357
0.00015203
0.0013244
0.00015706
0.00082358
0.00039727
0.00016102
2.0046e-05
0.0040156
8.4936e-08
4.0198e-05
0.003925
5.9791e-05
0.0037816
7.8381e-05
0.0035784
9.58e-05
0.0033141
0.00011086
0.0030069
0.00012572
0.0025991
0.00013699
0.0022828
0.00014362
0.001729
0.00015195
0.0013161
0.00015701
0.00081852
0.00039329
0.000161
2.0046e-05
0.0039955
8.6534e-08
4.0199e-05
0.0039048
5.9794e-05
0.003762
7.8384e-05
0.0035598
9.5814e-05
0.0032966
0.00011086
0.0029919
0.00012571
0.0025842
0.0001371
0.0022714
0.00014371
0.0017224
0.00015187
0.001308
0.00015695
0.00081344
0.00038928
0.00016096
2.0046e-05
0.0039754
8.814e-08
4.02e-05
0.0038847
5.9798e-05
0.0037424
7.8387e-05
0.0035412
9.5827e-05
0.0032792
0.00011086
0.0029768
0.00012569
0.0025694
0.00013721
0.0022599
0.00014381
0.0017158
0.00015181
0.0013
0.0001569
0.00080835
0.00038526
0.00016092
2.0046e-05
0.0039552
8.9754e-08
4.0202e-05
0.0038645
5.9801e-05
0.0037228
7.839e-05
0.0035226
9.5841e-05
0.0032617
0.00011086
0.0029618
0.00012566
0.0025546
0.00013732
0.0022482
0.00014392
0.0017092
0.00015176
0.0012921
0.00015685
0.00080326
0.00038122
0.00016088
2.0046e-05
0.0039351
9.1376e-08
4.0203e-05
0.0038444
5.9804e-05
0.0037032
7.8393e-05
0.003504
9.5855e-05
0.0032443
0.00011086
0.0029468
0.00012564
0.0025398
0.00013742
0.0022364
0.00014403
0.0017026
0.00015172
0.0012844
0.00015681
0.00079817
0.00037719
0.00016084
2.0046e-05
0.003915
9.3006e-08
4.0205e-05
0.0038242
5.9808e-05
0.0036836
7.8396e-05
0.0034854
9.587e-05
0.0032268
0.00011086
0.0029318
0.00012561
0.0025251
0.00013752
0.0022245
0.00014415
0.001696
0.0001517
0.0012769
0.00015677
0.00079311
0.00037315
0.0001608
2.0046e-05
0.0038948
9.4645e-08
4.0206e-05
0.0038041
5.9811e-05
0.003664
7.8399e-05
0.0034668
9.5884e-05
0.0032093
0.00011086
0.0029169
0.00012558
0.0025104
0.00013761
0.0022125
0.00014428
0.0016893
0.00015169
0.0012695
0.00015673
0.00078806
0.00036912
0.00016076
2.0046e-05
0.0038747
9.6292e-08
4.0208e-05
0.0037839
5.9815e-05
0.0036444
7.8402e-05
0.0034482
9.5898e-05
0.0031918
0.00011087
0.0029019
0.00012554
0.0024957
0.00013769
0.0022003
0.00014441
0.0016826
0.00015169
0.0012622
0.00015671
0.00078305
0.00036511
0.00016072
2.0046e-05
0.0038545
9.7948e-08
4.0209e-05
0.0037637
5.9818e-05
0.0036248
7.8406e-05
0.0034297
9.5913e-05
0.0031743
0.00011088
0.0028869
0.00012551
0.0024811
0.00013777
0.0021881
0.00014455
0.0016758
0.00015171
0.001255
0.00015669
0.00077807
0.00036111
0.00016069
2.0046e-05
0.0038344
9.9613e-08
4.0211e-05
0.0037436
5.9822e-05
0.0036052
7.8409e-05
0.0034111
9.5927e-05
0.0031568
0.00011089
0.002872
0.00012547
0.0024665
0.00013785
0.0021757
0.00014469
0.001669
0.00015174
0.001248
0.00015668
0.00077313
0.00035713
0.00016066
2.0046e-05
0.0038142
1.0129e-07
4.0212e-05
0.0037234
5.9825e-05
0.0035856
7.8412e-05
0.0033925
9.5941e-05
0.0031393
0.0001109
0.002857
0.00012544
0.0024519
0.00013792
0.0021632
0.00014483
0.0016621
0.00015178
0.001241
0.00015668
0.00076823
0.00035317
0.00016063
2.0046e-05
0.0037941
1.0297e-07
4.0214e-05
0.0037032
5.9829e-05
0.003566
7.8415e-05
0.0033739
9.5956e-05
0.0031217
0.00011091
0.002842
0.0001254
0.0024374
0.00013798
0.0021506
0.00014498
0.0016551
0.00015182
0.0012342
0.00015668
0.00076337
0.00034925
0.00016061
2.0046e-05
0.0037739
1.0466e-07
4.0215e-05
0.0036831
5.9833e-05
0.0035463
7.8418e-05
0.0033553
9.597e-05
0.0031042
0.00011093
0.0028271
0.00012536
0.002423
0.00013803
0.002138
0.00014512
0.001648
0.00015188
0.0012274
0.00015669
0.00075856
0.00034535
0.00016059
2.0046e-05
0.0037538
1.0637e-07
4.0217e-05
0.0036629
5.9837e-05
0.0035267
7.8421e-05
0.0033367
9.5984e-05
0.0030866
0.00011094
0.0028121
0.00012532
0.0024086
0.00013808
0.0021252
0.00014526
0.0016408
0.00015195
0.0012207
0.00015672
0.00075379
0.0003415
0.00016057
2.0046e-05
0.0037336
1.0808e-07
4.0218e-05
0.0036427
5.984e-05
0.0035071
7.8424e-05
0.0033181
9.5998e-05
0.003069
0.00011096
0.0027972
0.00012528
0.0023943
0.00013812
0.0021124
0.0001454
0.0016335
0.00015202
0.0012141
0.00015674
0.00074907
0.00033768
0.00016056
2.0045e-05
0.0037135
1.098e-07
4.022e-05
0.0036225
5.9844e-05
0.0034875
7.8427e-05
0.0032996
9.6012e-05
0.0030515
0.00011098
0.0027822
0.00012524
0.00238
0.00013816
0.0020995
0.00014554
0.0016261
0.0001521
0.0012076
0.00015678
0.00074439
0.0003339
0.00016056
2.0045e-05
0.0036933
1.1153e-07
4.0221e-05
0.0036024
5.9848e-05
0.0034678
7.843e-05
0.003281
9.6026e-05
0.0030339
0.000111
0.0027672
0.0001252
0.0023658
0.00013819
0.0020865
0.00014568
0.0016186
0.00015219
0.0012011
0.00015682
0.00073976
0.00033016
0.00016056
2.0045e-05
0.0036732
1.1328e-07
4.0223e-05
0.0035822
5.9852e-05
0.0034482
7.8433e-05
0.0032624
9.6039e-05
0.0030163
0.00011102
0.0027522
0.00012517
0.0023517
0.00013821
0.0020734
0.00014581
0.001611
0.00015228
0.0011946
0.00015687
0.00073516
0.00032647
0.00016056
2.0045e-05
0.003653
1.1503e-07
4.0225e-05
0.003562
5.9856e-05
0.0034286
7.8437e-05
0.0032438
9.6052e-05
0.0029986
0.00011105
0.0027373
0.00012513
0.0023376
0.00013823
0.0020603
0.00014594
0.0016033
0.00015238
0.0011882
0.00015693
0.00073061
0.00032282
0.00016057
2.0045e-05
0.0036328
1.168e-07
4.0226e-05
0.0035418
5.986e-05
0.0034089
7.844e-05
0.0032252
9.6065e-05
0.002981
0.00011107
0.0027222
0.00012509
0.0023236
0.00013824
0.0020472
0.00014607
0.0015955
0.00015247
0.0011818
0.00015698
0.0007261
0.00031922
0.00016058
2.0045e-05
0.0036127
1.1857e-07
4.0228e-05
0.0035216
5.9864e-05
0.0033893
7.8443e-05
0.0032067
9.6077e-05
0.0029634
0.0001111
0.0027072
0.00012506
0.0023096
0.00013824
0.002034
0.00014619
0.0015875
0.00015258
0.0011754
0.00015705
0.00072163
0.00031567
0.0001606
2.0045e-05
0.0035925
1.2036e-07
4.023e-05
0.0035015
5.9868e-05
0.0033697
7.8447e-05
0.0031881
9.6089e-05
0.0029457
0.00011113
0.0026922
0.00012502
0.0022957
0.00013824
0.0020208
0.0001463
0.0015795
0.00015268
0.001169
0.00015712
0.00071719
0.00031217
0.00016062
2.0045e-05
0.0035723
1.2216e-07
4.0232e-05
0.0034813
5.9873e-05
0.00335
7.845e-05
0.0031695
9.6101e-05
0.0029281
0.00011116
0.0026771
0.00012499
0.0022819
0.00013824
0.0020076
0.00014641
0.0015713
0.00015278
0.0011626
0.00015719
0.00071278
0.00030871
0.00016065
2.0045e-05
0.0035522
1.2397e-07
4.0233e-05
0.0034611
5.9877e-05
0.0033304
7.8454e-05
0.0031509
9.6112e-05
0.0029104
0.00011119
0.002662
0.00012496
0.0022681
0.00013823
0.0019943
0.00014652
0.001563
0.00015289
0.0011562
0.00015727
0.00070841
0.0003053
0.00016068
2.0045e-05
0.003532
1.2579e-07
4.0235e-05
0.0034409
5.9881e-05
0.0033107
7.8458e-05
0.0031323
9.6123e-05
0.0028928
0.00011123
0.0026469
0.00012494
0.0022544
0.00013822
0.001981
0.00014661
0.0015546
0.00015299
0.0011499
0.00015735
0.00070406
0.00030194
0.00016071
2.0045e-05
0.0035118
1.2762e-07
4.0237e-05
0.0034207
5.9886e-05
0.0032911
7.8462e-05
0.0031138
9.6134e-05
0.0028751
0.00011126
0.0026318
0.00012491
0.0022408
0.0001382
0.0019677
0.00014671
0.0015461
0.0001531
0.0011435
0.00015743
0.00069973
0.00029862
0.00016074
2.0045e-05
0.0034916
1.2947e-07
4.0239e-05
0.0034005
5.989e-05
0.0032714
7.8465e-05
0.0030952
9.6144e-05
0.0028574
0.0001113
0.0026167
0.00012489
0.0022272
0.00013818
0.0019544
0.00014679
0.0015375
0.0001532
0.0011371
0.00015751
0.00069542
0.00029536
0.00016078
2.0045e-05
0.0034715
1.3133e-07
4.0241e-05
0.0033803
5.9894e-05
0.0032518
7.847e-05
0.0030766
9.6154e-05
0.0028397
0.00011133
0.0026015
0.00012487
0.0022136
0.00013816
0.0019411
0.00014687
0.0015288
0.0001533
0.0011306
0.00015759
0.00069113
0.00029213
0.00016082
2.0045e-05
0.0034513
1.332e-07
4.0242e-05
0.0033601
5.9899e-05
0.0032321
7.8474e-05
0.003058
9.6163e-05
0.002822
0.00011137
0.0025863
0.00012485
0.0022001
0.00013814
0.0019278
0.00014695
0.00152
0.0001534
0.0011242
0.00015768
0.00068685
0.00028895
0.00016086
2.0045e-05
0.0034311
1.3509e-07
4.0244e-05
0.0033399
5.9903e-05
0.0032125
7.8478e-05
0.0030395
9.6172e-05
0.0028043
0.00011141
0.002571
0.00012484
0.0021867
0.00013811
0.0019146
0.00014701
0.0015111
0.0001535
0.0011177
0.00015776
0.00068259
0.00028582
0.0001609
2.0045e-05
0.0034109
1.3699e-07
4.0246e-05
0.0033197
5.9908e-05
0.0031928
7.8483e-05
0.0030209
9.618e-05
0.0027866
0.00011145
0.0025558
0.00012483
0.0021733
0.00013808
0.0019013
0.00014708
0.0015021
0.00015359
0.0011112
0.00015785
0.00067833
0.00028273
0.00016094
2.0045e-05
0.0033907
1.389e-07
4.0248e-05
0.0032995
5.9913e-05
0.0031731
7.8487e-05
0.0030023
9.6188e-05
0.0027689
0.00011149
0.0025405
0.00012482
0.00216
0.00013805
0.0018881
0.00014714
0.001493
0.00015368
0.0011046
0.00015793
0.00067408
0.00027967
0.00016099
2.0045e-05
0.0033706
1.4083e-07
4.025e-05
0.0032793
5.9917e-05
0.0031535
7.8492e-05
0.0029837
9.6195e-05
0.0027512
0.00011153
0.0025251
0.00012482
0.0021467
0.00013802
0.0018749
0.00014719
0.0014838
0.00015377
0.0010981
0.00015802
0.00066984
0.00027666
0.00016103
2.0045e-05
0.0033504
1.4277e-07
4.0252e-05
0.0032591
5.9922e-05
0.0031338
7.8497e-05
0.0029652
9.6202e-05
0.0027335
0.00011157
0.0025098
0.00012481
0.0021334
0.00013799
0.0018617
0.00014724
0.0014746
0.00015386
0.0010914
0.0001581
0.00066559
0.00027368
0.00016108
2.0045e-05
0.0033302
1.4473e-07
4.0254e-05
0.0032389
5.9927e-05
0.0031141
7.8502e-05
0.0029466
9.6209e-05
0.0027158
0.00011161
0.0024944
0.00012482
0.0021202
0.00013796
0.0018486
0.00014728
0.0014653
0.00015394
0.0010848
0.00015818
0.00066135
0.00027075
0.00016112
2.0045e-05
0.00331
1.467e-07
4.0256e-05
0.0032187
5.9932e-05
0.0030945
7.8508e-05
0.002928
9.6215e-05
0.0026981
0.00011165
0.002479
0.00012482
0.0021071
0.00013793
0.0018354
0.00014732
0.0014559
0.00015402
0.0010781
0.00015827
0.0006571
0.00026784
0.00016117
2.0045e-05
0.0032898
1.4869e-07
4.0258e-05
0.0031985
5.9937e-05
0.0030748
7.8513e-05
0.0029094
9.622e-05
0.0026804
0.00011169
0.0024635
0.00012483
0.0020939
0.0001379
0.0018224
0.00014735
0.0014465
0.00015409
0.0010713
0.00015835
0.00065284
0.00026497
0.00016122
2.0045e-05
0.0032696
1.5069e-07
4.026e-05
0.0031783
5.9942e-05
0.0030551
7.8519e-05
0.0028909
9.6226e-05
0.0026627
0.00011173
0.002448
0.00012484
0.0020808
0.00013788
0.0018093
0.00014738
0.001437
0.00015416
0.0010645
0.00015843
0.00064858
0.00026213
0.00016127
2.0045e-05
0.0032494
1.5271e-07
4.0262e-05
0.003158
5.9947e-05
0.0030354
7.8525e-05
0.0028723
9.6231e-05
0.002645
0.00011177
0.0024324
0.00012485
0.0020677
0.00013785
0.0017963
0.00014741
0.0014274
0.00015423
0.0010577
0.0001585
0.00064431
0.00025932
0.00016131
2.0045e-05
0.0032292
1.5474e-07
4.0265e-05
0.0031378
5.9952e-05
0.0030157
7.8531e-05
0.0028537
9.6235e-05
0.0026273
0.00011181
0.0024169
0.00012487
0.0020547
0.00013782
0.0017834
0.00014744
0.0014178
0.0001543
0.0010509
0.00015858
0.00064003
0.00025654
0.00016136
2.0045e-05
0.003209
1.568e-07
4.0267e-05
0.0031176
5.9957e-05
0.002996
7.8537e-05
0.0028351
9.6239e-05
0.0026096
0.00011185
0.0024013
0.00012488
0.0020416
0.0001378
0.0017705
0.00014746
0.0014081
0.00015436
0.001044
0.00015865
0.00063574
0.00025379
0.00016141
2.0045e-05
0.0031888
1.5887e-07
4.0269e-05
0.0030974
5.9962e-05
0.0029763
7.8544e-05
0.0028165
9.6243e-05
0.0025919
0.00011189
0.0023856
0.0001249
0.0020286
0.00013777
0.0017576
0.00014748
0.0013984
0.00015442
0.001037
0.00015873
0.00063143
0.00025106
0.00016146
2.0045e-05
0.0031686
1.6095e-07
4.0271e-05
0.0030771
5.9967e-05
0.0029566
7.8551e-05
0.002798
9.6247e-05
0.0025742
0.00011193
0.0023699
0.00012493
0.0020156
0.00013775
0.0017448
0.00014749
0.0013887
0.00015448
0.00103
0.0001588
0.00062711
0.00024836
0.0001615
2.0045e-05
0.0031484
1.6306e-07
4.0273e-05
0.0030569
5.9972e-05
0.0029369
7.8558e-05
0.0027794
9.6251e-05
0.0025565
0.00011197
0.0023542
0.00012495
0.0020026
0.00013773
0.001732
0.00014751
0.0013789
0.00015453
0.001023
0.00015887
0.00062278
0.00024568
0.00016155
2.0045e-05
0.0031282
1.6518e-07
4.0276e-05
0.0030367
5.9978e-05
0.0029172
7.8565e-05
0.0027608
9.6254e-05
0.0025388
0.000112
0.0023385
0.00012498
0.0019897
0.00013772
0.0017192
0.00014752
0.0013691
0.00015458
0.0010159
0.00015894
0.00061842
0.00024302
0.0001616
2.0045e-05
0.003108
1.6732e-07
4.0278e-05
0.0030164
5.9983e-05
0.0028975
7.8572e-05
0.0027422
9.6257e-05
0.0025211
0.00011204
0.0023227
0.00012501
0.0019767
0.0001377
0.0017066
0.00014753
0.0013593
0.00015463
0.0010088
0.000159
0.00061405
0.00024038
0.00016164
2.0045e-05
0.0030878
1.6948e-07
4.028e-05
0.0029962
5.9988e-05
0.0028778
7.858e-05
0.0027236
9.626e-05
0.0025035
0.00011208
0.0023069
0.00012504
0.0019637
0.00013769
0.0016939
0.00014755
0.0013494
0.00015468
0.0010017
0.00015907
0.00060967
0.00023776
0.00016169
2.0045e-05
0.0030675
1.7166e-07
4.0283e-05
0.002976
5.9994e-05
0.0028581
7.8588e-05
0.002705
9.6263e-05
0.0024858
0.00011211
0.002291
0.00012507
0.0019508
0.00013768
0.0016813
0.00014756
0.0013395
0.00015472
0.00099454
0.00015913
0.00060526
0.00023515
0.00016173
2.0045e-05
0.0030473
1.7386e-07
4.0285e-05
0.0029557
5.9999e-05
0.0028384
7.8596e-05
0.0026864
9.6266e-05
0.0024681
0.00011215
0.0022751
0.00012511
0.0019378
0.00013767
0.0016687
0.00014757
0.0013296
0.00015477
0.00098734
0.00015919
0.00060084
0.00023257
0.00016178
2.0045e-05
0.0030271
1.7608e-07
4.0288e-05
0.0029355
6.0005e-05
0.0028187
7.8605e-05
0.0026678
9.6268e-05
0.0024505
0.00011218
0.0022592
0.00012515
0.0019248
0.00013766
0.0016562
0.00014757
0.0013197
0.00015481
0.0009801
0.00015925
0.0005964
0.00023
0.00016182
2.0045e-05
0.0030069
1.7832e-07
4.029e-05
0.0029152
6.001e-05
0.002799
7.8613e-05
0.0026492
9.6271e-05
0.0024328
0.00011222
0.0022433
0.00012518
0.0019119
0.00013766
0.0016437
0.00014758
0.0013098
0.00015485
0.00097284
0.00015931
0.00059194
0.00022744
0.00016187
2.0045e-05
0.0029866
1.8058e-07
4.0293e-05
0.002895
6.0016e-05
0.0027793
7.8622e-05
0.0026306
9.6273e-05
0.0024151
0.00011225
0.0022273
0.00012522
0.0018989
0.00013766
0.0016313
0.00014759
0.0012999
0.00015489
0.00096554
0.00015937
0.00058745
0.0002249
0.00016191
2.0045e-05
0.0029664
1.8286e-07
4.0295e-05
0.0028748
6.0021e-05
0.0027595
7.8631e-05
0.002612
9.6276e-05
0.0023975
0.00011228
0.0022113
0.00012526
0.0018859
0.00013766
0.0016189
0.0001476
0.0012899
0.00015492
0.00095822