/*--------------------------------*- C++ -*----------------------------------*\
  =========                 |
  \\      /  F ield         | OpenFOAM: The Open Source CFD Toolbox
   \\    /   O peration     | Website:  https://openfoam.org
    \\  /    A nd           | Version:  6.0
     \\/     M anipulation  |
\*---------------------------------------------------------------------------*/
FoamFile
{
    version     2.0;
    format      ascii;
    class       volScalarField;
    location    "12";
    object      p;
}
// * * * * * * * * * * * * * * * * * * * * * * * * * * * * * * * * * * * * * //

dimensions      [0 2 -2 0 0 0 0];

internalField   nonuniform List<scalar> 
62000
(
0.0275736
0.0274345
0.0273018
0.0271793
0.027063
0.0269591
0.0268624
0.0267795
0.026705
0.0266461
0.0265973
0.0265663
0.0265473
0.0265492
0.0265661
0.0266075
0.0266678
0.0267571
0.0268703
0.027018
0.0271956
0.0274142
0.0276694
0.0279735
0.0283211
0.0287258
0.0291814
0.0297011
0.0302786
0.0309253
0.0316334
0.0324078
0.0332422
0.0341421
0.0351072
0.036127
0.0371866
0.0382719
0.0393692
0.0404757
0.0416022
0.0427762
0.0440429
0.0454691
0.0471302
0.0490812
0.0513346
0.0537713
0.056189
0.0582282
0.0595913
0.0601301
0.0598827
0.0593612
0.058911
0.0587434
0.0585653
0.0570194
0.0574733
0.0619603
0.0272338
0.0270586
0.0268997
0.0267588
0.0266307
0.0265214
0.0264258
0.0263499
0.0262888
0.0262489
0.0262247
0.0262227
0.0262372
0.0262747
0.0263294
0.0264083
0.026506
0.0266302
0.0267766
0.0269538
0.0271586
0.0274003
0.0276766
0.0279973
0.0283604
0.0287756
0.0292415
0.0297657
0.0303476
0.0309919
0.0316987
0.0324678
0.0332983
0.0341927
0.035148
0.0361557
0.0372051
0.0382829
0.0393769
0.0404858
0.0416233
0.0428196
0.0441254
0.0456148
0.047375
0.0494768
0.0519518
0.0547004
0.0575288
0.060072
0.0620016
0.06312
0.0634254
0.0634425
0.0636311
0.0643204
0.0654086
0.0651097
0.0684483
0.0721677
0.0268046
0.0266911
0.0265778
0.0264702
0.0263633
0.0262638
0.0261687
0.0260848
0.0260096
0.025951
0.0259059
0.0258829
0.0258781
0.0259004
0.0259442
0.0260184
0.0261169
0.0262482
0.0264065
0.0266006
0.0268257
0.0270909
0.0273926
0.0277403
0.0281315
0.028575
0.0290699
0.0296226
0.0302335
0.0309049
0.0316379
0.0324311
0.0332855
0.0342019
0.0351763
0.0361981
0.0372542
0.0383291
0.0394075
0.0404872
0.0415783
0.0427071
0.0439211
0.0452916
0.0469061
0.048838
0.0511247
0.0536721
0.0562779
0.0585527
0.0601042
0.0606304
0.0600033
0.0586693
0.0571675
0.0560454
0.0556639
0.0543749
0.0571537
0.057528
0.0264378
0.0263309
0.0262227
0.0261199
0.0260184
0.0259235
0.0258327
0.0257519
0.0256788
0.0256207
0.0255755
0.0255514
0.025546
0.0255679
0.0256138
0.0256921
0.0257985
0.0259411
0.0261151
0.0263283
0.0265764
0.0268671
0.0271967
0.0275734
0.0279942
0.028467
0.0289906
0.0295708
0.030208
0.030904
0.0316589
0.032471
0.0333409
0.0342713
0.035258
0.0362881
0.0373457
0.0384127
0.039473
0.0405244
0.0415757
0.0426516
0.0438004
0.0450962
0.0466349
0.0485043
0.0507636
0.0533455
0.0560642
0.0585265
0.0602959
0.0609505
0.0601932
0.0583082
0.0558033
0.0533395
0.0516589
0.0493791
0.0507415
0.0504394
0.0260506
0.0258441
0.0256488
0.0254705
0.0253065
0.0251621
0.0250346
0.0249294
0.0248433
0.0247829
0.0247445
0.0247358
0.0247525
0.0248032
0.0248829
0.0250005
0.0251503
0.025341
0.0255664
0.0258348
0.0261402
0.0264902
0.0268795
0.0273158
0.0277944
0.0283225
0.0288976
0.0295251
0.0302052
0.0309393
0.0317269
0.0325649
0.033454
0.0343966
0.0353895
0.0364195
0.0374705
0.0385242
0.0395646
0.0405897
0.041608
0.042645
0.043752
0.0450109
0.0465322
0.0484289
0.0507979
0.0536219
0.0567636
0.0598629
0.062477
0.0640987
0.0642548
0.0630327
0.0607694
0.0580787
0.0558191
0.0527789
0.0526112
0.0518522
0.0256012
0.0252914
0.0250027
0.0247388
0.0244983
0.0242865
0.0241013
0.0239481
0.0238244
0.0237365
0.0236812
0.0236653
0.023685
0.0237474
0.0238483
0.0239949
0.0241823
0.0244176
0.0246952
0.0250223
0.0253928
0.0258132
0.0262775
0.0267919
0.0273504
0.0279586
0.0286122
0.0293155
0.0300679
0.0308701
0.0317204
0.0326135
0.0335474
0.0345229
0.0355356
0.0365729
0.0376205
0.0386603
0.0396735
0.0406552
0.0416097
0.0425589
0.0435533
0.0446774
0.0460525
0.0478143
0.0500986
0.0529474
0.0562909
0.0598325
0.0631666
0.0657505
0.0669915
0.0667864
0.0652674
0.0628601
0.0603847
0.0566415
0.0549616
0.0523056
0.0252333
0.0248748
0.0245385
0.0242276
0.0239412
0.0236847
0.0234569
0.0232633
0.0231022
0.0229799
0.0228939
0.0228513
0.0228488
0.0228942
0.0229832
0.0231243
0.0233124
0.0235562
0.0238498
0.0242015
0.0246052
0.0250678
0.025583
0.0261566
0.0267817
0.0274627
0.0281938
0.0289778
0.029813
0.030699
0.0316321
0.0326035
0.0336068
0.034638
0.0356895
0.0367486
0.0378014
0.038828
0.0398035
0.0407146
0.0415562
0.042341
0.0431105
0.0439434
0.0449607
0.04631
0.0481557
0.0505926
0.0536221
0.0570273
0.0604706
0.0634335
0.0652692
0.0657537
0.0648394
0.0627494
0.0601974
0.0559443
0.052987
0.0478565
0.0249969
0.0246455
0.0243133
0.0240032
0.0237141
0.0234513
0.0232137
0.0230071
0.0228304
0.0226899
0.0225842
0.0225202
0.0224959
0.0225186
0.0225855
0.0227047
0.022873
0.0230987
0.023378
0.0237195
0.0241192
0.0245846
0.0251109
0.0257047
0.0263596
0.0270798
0.0278593
0.0287002
0.0296
0.0305573
0.0315665
0.0326153
0.0336912
0.0347842
0.0358823
0.03697
0.0380322
0.039045
0.039974
0.0407936
0.041486
0.0420497
0.0425121
0.0429377
0.0434377
0.0441588
0.0452804
0.0469371
0.0491933
0.0519153
0.0548523
0.0575491
0.0593789
0.0600588
0.0594366
0.0575554
0.0550541
0.0506148
0.0467861
0.0398324
0.0250525
0.0247293
0.0244205
0.0241295
0.023855
0.0236031
0.0233726
0.0231696
0.022993
0.0228497
0.0227381
0.0226656
0.0226297
0.0226386
0.022689
0.0227898
0.0229376
0.0231414
0.0233979
0.0237167
0.0240945
0.0245404
0.0250509
0.0256342
0.026285
0.0270091
0.0278011
0.0286635
0.0295943
0.0305921
0.0316503
0.0327531
0.0338834
0.0350253
0.0361612
0.0372725
0.0383405
0.039336
0.0402142
0.0409359
0.0414701
0.0418009
0.0419393
0.041932
0.0418738
0.0419007
0.0421939
0.0429116
0.0441675
0.0459017
0.0479519
0.0499501
0.0513259
0.0518062
0.0511902
0.0494132
0.0470619
0.0427666
0.0384451
0.0307946
0.0253096
0.025028
0.0247576
0.0245013
0.0242577
0.0240322
0.023824
0.023639
0.0234765
0.0233435
0.0232391
0.0231705
0.0231362
0.0231437
0.0231906
0.023285
0.023424
0.023616
0.0238578
0.024159
0.0245167
0.0249407
0.0254283
0.025989
0.0266189
0.0273252
0.0281038
0.0289587
0.0298891
0.0308945
0.0319683
0.0330934
0.0342493
0.035415
0.0365699
0.0376908
0.0387556
0.0397295
0.0405579
0.0411894
0.0415818
0.0417067
0.0415597
0.0411693
0.040611
0.0400046
0.0395224
0.039333
0.0395821
0.0402696
0.0413133
0.0424333
0.0431439
0.0432092
0.042431
0.0406804
0.0385369
0.0345728
0.0300172
0.0225954
0.0258077
0.0255671
0.0253353
0.0251152
0.0249051
0.0247104
0.0245299
0.0243694
0.0242283
0.0241131
0.0240232
0.0239659
0.0239398
0.0239529
0.0240028
0.0240979
0.0242353
0.0244234
0.024659
0.0249512
0.025297
0.0257059
0.0261754
0.0267152
0.0273222
0.0280043
0.0287586
0.0295902
0.0304999
0.0314887
0.0325511
0.0336697
0.0348224
0.0359871
0.0371388
0.0382529
0.0393035
0.0402518
0.0410357
0.0415942
0.0418775
0.0418482
0.0414894
0.0408135
0.0398769
0.0387796
0.0376787
0.0367406
0.0361276
0.0358819
0.0359839
0.0362353
0.0362303
0.0357941
0.0347522
0.0329577
0.0309915
0.0273996
0.022706
0.0160216
0.026463
0.0262658
0.0260766
0.0258972
0.025726
0.0255674
0.0254201
0.0252894
0.0251748
0.0250825
0.0250123
0.0249713
0.0249587
0.0249824
0.0250409
0.0251422
0.0252841
0.0254747
0.0257109
0.0260014
0.0263431
0.0267448
0.0272039
0.0277298
0.028319
0.0289797
0.0297092
0.0305135
0.0313943
0.032354
0.0333885
0.0344811
0.0356104
0.0367525
0.0378838
0.0389768
0.0400044
0.0409253
0.0416729
0.0421799
0.0423921
0.0422667
0.0417779
0.0409243
0.0397448
0.0383195
0.0367861
0.0353006
0.0340286
0.0330386
0.0323571
0.0318499
0.03119
0.0302562
0.028911
0.0270027
0.025133
0.021821
0.0169845
0.011162
0.0273629
0.0272003
0.0270436
0.0268956
0.026754
0.0266239
0.0265036
0.0263986
0.0263078
0.0262374
0.0261867
0.0261626
0.0261643
0.0261998
0.0262674
0.0263758
0.0265228
0.0267169
0.0269552
0.0272465
0.0275875
0.0279867
0.0284409
0.0289588
0.0295365
0.0301815
0.030891
0.0316706
0.0325226
0.0334501
0.0344504
0.0355077
0.0366014
0.0377103
0.0388091
0.039872
0.0408712
0.0417652
0.0424855
0.042962
0.0431394
0.0429724
0.0424296
0.0414987
0.0402032
0.0386039
0.0368174
0.0349832
0.0332611
0.0317313
0.0304483
0.0293279
0.0280996
0.0266979
0.0250175
0.0229184
0.021017
0.0178353
0.0127757
0.00770732
0.0283602
0.0282334
0.0281121
0.0279982
0.0278896
0.0277908
0.0277003
0.027623
0.027558
0.0275114
0.0274823
0.0274777
0.0274968
0.0275473
0.0276279
0.027747
0.0279027
0.0281035
0.0283469
0.0286416
0.0289844
0.0293838
0.0298364
0.0303503
0.0309212
0.0315559
0.0322506
0.0330106
0.033838
0.0347361
0.0357027
0.0367233
0.0377791
0.0388489
0.0399117
0.040941
0.0419105
0.0427804
0.0434828
0.0439471
0.0441188
0.0439529
0.0434138
0.0424815
0.0411658
0.0395101
0.0376096
0.0355848
0.0335825
0.0316854
0.0299627
0.0283625
0.0266644
0.0248395
0.0228109
0.0204488
0.0183905
0.0151645
0.00979398
0.00525981
0.0294944
0.0293985
0.0293074
0.0292235
0.0291444
0.0290747
0.0290127
0.0289632
0.0289249
0.0289035
0.028898
0.0289148
0.0289528
0.0290198
0.0291143
0.0292447
0.0294094
0.0296172
0.0298655
0.0301637
0.0305087
0.0309089
0.0313609
0.0318728
0.0324395
0.0330673
0.0337517
0.0344972
0.0353053
0.036179
0.0371165
0.0381041
0.0391234
0.0401576
0.0411846
0.0421816
0.0431236
0.0439735
0.044666
0.0451319
0.0453192
0.0451842
0.0446896
0.0438086
0.0425401
0.040911
0.0389966
0.036897
0.0347424
0.0326104
0.0305729
0.0286001
0.0265006
0.0242792
0.0218785
0.0191836
0.0168449
0.0134216
0.0076468
0.00341245
0.0306878
0.0306245
0.0305666
0.0305157
0.0304693
0.0304315
0.0304003
0.0303802
0.03037
0.0303752
0.0303946
0.0304346
0.0304941
0.0305805
0.0306923
0.0308377
0.0310151
0.0312331
0.0314895
0.0317935
0.0321423
0.0325447
0.0329973
0.0335082
0.0340723
0.0346954
0.0353726
0.0361077
0.0369014
0.0377564
0.0386708
0.039631
0.0406209
0.0416227
0.0426197
0.0435887
0.0445078
0.0453429
0.0460323
0.0465095
0.0467253
0.0466378
0.0462089
0.0454063
0.0442196
0.0426615
0.0407882
0.0386805
0.0364499
0.0341655
0.0318955
0.0296203
0.0271747
0.0245806
0.0217937
0.0187108
0.0160007
0.0122525
0.00601213
0.00186908
0.0320542
0.0320146
0.0319794
0.0319511
0.0319269
0.0319116
0.0319032
0.0319063
0.0319195
0.0319479
0.0319901
0.032052
0.0321323
0.0322378
0.0323669
0.0325276
0.032718
0.0329469
0.0332119
0.0335225
0.0338761
0.0342815
0.0347356
0.0352465
0.0358093
0.0364295
0.0371019
0.0378297
0.0386133
0.0394549
0.0403521
0.0412919
0.0422578
0.0432364
0.044209
0.0451563
0.046058
0.0468833
0.0475745
0.0480684
0.0483191
0.0482864
0.0479316
0.0472183
0.0461278
0.04466
0.0428544
0.0407729
0.0385091
0.0361205
0.0336654
0.0311306
0.0283611
0.0253962
0.0221988
0.0186807
0.0155242
0.0113619
0.00460449
0.000393333
0.0334622
0.0334485
0.0334397
0.0334373
0.033439
0.033449
0.0334654
0.0334927
0.0335294
0.0335811
0.033646
0.0337304
0.0338324
0.0339591
0.0341082
0.0342875
0.0344949
0.0347388
0.0350166
0.0353376
0.0356993
0.0361106
0.0365685
0.0370815
0.0376448
0.0382639
0.0389337
0.0396571
0.0404343
0.0412669
0.0421526
0.0430781
0.0440286
0.0449889
0.0459453
0.0468776
0.0477679
0.0485885
0.0492851
0.0497984
0.0500848
0.0501058
0.0498221
0.0491936
0.0481939
0.0468124
0.0450734
0.0430217
0.0407334
0.0382548
0.0356328
0.0328536
0.0297751
0.0264419
0.0228198
0.0188355
0.0151892
0.0105514
0.00325611
-0.00113621
0.0349731
0.0349813
0.0349942
0.0350139
0.0350378
0.0350705
0.03511
0.0351607
0.0352212
0.0352963
0.0353847
0.0354917
0.0356157
0.0357633
0.0359323
0.03613
0.0363543
0.0366134
0.0369048
0.0372374
0.0376089
0.038028
0.0384919
0.0390092
0.0395752
0.0401955
0.0408652
0.041587
0.0423611
0.043189
0.0440681
0.0449853
0.0459251
0.0468764
0.0478224
0.0487463
0.0496308
0.0504506
0.0511548
0.0516875
0.0520076
0.0520771
0.0518564
0.0513017
0.0503803
0.0490716
0.0473868
0.0453553
0.0430375
0.0404679
0.0376794
0.0346579
0.0312632
0.027548
0.0234801
0.0190038
0.0148344
0.00968481
0.00183323
-0.00281383
0.0365211
0.0365542
0.0365931
0.0366388
0.036689
0.0367475
0.0368123
0.0368877
0.0369721
0.0370709
0.0371822
0.0373121
0.0374584
0.0376281
0.0378183
0.0380369
0.0382807
0.0385584
0.0388664
0.0392141
0.0395985
0.0400287
0.0405017
0.0410262
0.0415976
0.042222
0.0428943
0.0436176
0.0443919
0.0452189
0.0460959
0.0470097
0.0479465
0.0488923
0.0498352
0.0507564
0.0516403
0.0524629
0.0531762
0.0537273
0.0540766
0.0541862
0.0540158
0.0535179
0.052654
0.0513949
0.0497399
0.047705
0.045336
0.0426577
0.0396897
0.0364137
0.0326971
0.0285926
0.0240674
0.0190852
0.0143803
0.00869774
0.000291094
-0.00465371
0.0382263
0.0382763
0.0383311
0.038393
0.0384593
0.0385346
0.038617
0.0387109
0.0388148
0.0389335
0.0390655
0.0392161
0.0393832
0.0395734
0.0397839
0.0400218
0.0402846
0.04058
0.040905
0.0412684
0.0416673
0.0421105
0.042595
0.0431295
0.0437095
0.0443409
0.0450191
0.0457472
0.0465253
0.0473553
0.0482343
0.0491498
0.0500866
0.0510351
0.0519792
0.0529029
0.0537904
0.0546186
0.0553414
0.055909
0.0562825
0.0564236
0.0562908
0.0558333
0.055007
0.0537748
0.0521257
0.0500638
0.0476218
0.0448157
0.0416503
0.0381056
0.0340476
0.0295347
0.0245347
0.019033
0.0137804
0.00755363
-0.00141332
-0.00668106
0.0399635
0.0400335
0.0401091
0.0401914
0.0402781
0.0403736
0.0404757
0.0405892
0.0407124
0.0408508
0.0410024
0.0411733
0.041361
0.0415724
0.0418042
0.0420638
0.0423479
0.0426645
0.0430096
0.0433923
0.043809
0.0442687
0.0447682
0.0453161
0.045908
0.04655
0.0472376
0.047974
0.0487596
0.0495964
0.0504816
0.0514027
0.0523463
0.0532993
0.0542505
0.0551812
0.0560761
0.0569125
0.0576456
0.0582277
0.0586203
0.0587839
0.0586754
0.0582406
0.05743
0.0561997
0.0545287
0.0524111
0.0498676
0.0469077
0.0435224
0.0396879
0.0352766
0.0303451
0.0248609
0.0188335
0.0130329
0.00625619
-0.00326502
-0.0088653
0.0417902
0.0418769
0.0419691
0.0420686
0.0421729
0.0422866
0.0424078
0.0425408
0.0426843
0.0428432
0.0430158
0.0432075
0.0434162
0.0436484
0.0439011
0.0441813
0.0444859
0.0448227
0.0451878
0.0455899
0.0460257
0.0465035
0.0470202
0.0475843
0.0481914
0.0488473
0.0495478
0.0502963
0.0510932
0.0519406
0.0528361
0.0537674
0.0547198
0.0556849
0.0566461
0.0575877
0.0584934
0.05934
0.0600835
0.0606783
0.0610856
0.0612641
0.0611691
0.0607427
0.0599305
0.0586815
0.0569669
0.0547702
0.052103
0.0489678
0.0453432
0.0412007
0.0364131
0.0310431
0.0250595
0.0184969
0.0121422
0.00481009
-0.00526986
-0.01121
0.0436477
0.0437551
0.0438692
0.0439907
0.0441173
0.0442529
0.0443956
0.0445498
0.0447139
0.0448936
0.0450865
0.0452992
0.0455288
0.0457827
0.0460569
0.0463596
0.0466863
0.0470458
0.047433
0.0478572
0.0483143
0.0488129
0.0493495
0.0499326
0.0505577
0.0512309
0.0519478
0.052712
0.053524
0.054386
0.0552957
0.0562409
0.0572088
0.0581866
0.0591633
0.0601195
0.0610392
0.0618983
0.062653
0.0632595
0.0636778
0.0638644
0.0637726
0.0633411
0.0625098
0.0612222
0.0594403
0.0571403
0.0543232
0.0509891
0.0471022
0.0426308
0.0374542
0.0316352
0.0251437
0.018041
0.0111328
0.00324153
-0.0073936
-0.0136726
0.0456519
0.0457727
0.045899
0.0460334
0.0461728
0.0463223
0.0464799
0.0466501
0.0468316
0.0470291
0.0472413
0.0474734
0.0477233
0.0479974
0.0482926
0.0486157
0.0489638
0.0493442
0.049753
0.0501986
0.0506774
0.0511975
0.0517555
0.0523597
0.0530056
0.0536991
0.0544358
0.0552193
0.0560502
0.0569308
0.0578588
0.0588225
0.0598074
0.0608055
0.0618
0.0627745
0.0637112
0.0645848
0.0653517
0.0659691
0.0663958
0.0665857
0.06649
0.0660434
0.065181
0.0638398
0.0619746
0.0595526
0.0565685
0.0530167
0.0488527
0.0440341
0.0384454
0.0321578
0.0251439
0.0174915
0.0100224
0.00156434
-0.00963355
-0.016256
0.0476934
0.0478311
0.0479753
0.048127
0.0482841
0.0484509
0.0486254
0.0488126
0.0490108
0.0492258
0.0494554
0.0497062
0.0499752
0.0502698
0.0505859
0.0509314
0.051302
0.051706
0.0521382
0.0526079
0.0531106
0.0536547
0.0542365
0.0548644
0.0555337
0.0562503
0.0570101
0.0578163
0.0586699
0.059573
0.0605235
0.0615093
0.0625181
0.0635371
0.064555
0.0655512
0.0665081
0.0673988
0.0681795
0.0688083
0.0692415
0.0694309
0.0693245
0.0688542
0.0679482
0.0665394
0.0645729
0.0620107
0.0588381
0.0550492
0.0505875
0.0454032
0.0393908
0.0326241
0.0250783
0.0168698
0.00883741
-0.00019317
-0.0119546
-0.0189184
0.0498232
0.0499753
0.0501336
0.0503003
0.0504726
0.0506554
0.0508468
0.0510515
0.0512681
0.0515017
0.0517507
0.0520208
0.0523097
0.0526242
0.0529608
0.0533269
0.0537188
0.0541445
0.0545992
0.0550919
0.0556183
0.0561867
0.0567933
0.0574464
0.0581413
0.0588836
0.0596694
0.0605018
0.0613817
0.0623113
0.0632883
0.0643012
0.0653354
0.0663833
0.0674271
0.0684489
0.0694293
0.0703396
0.071136
0.0717765
0.0722159
0.0724022
0.0722817
0.0717814
0.0708249
0.0693383
0.0672599
0.0645437
0.0611703
0.0571286
0.0523586
0.0467907
0.0403323
0.033068
0.0249762
0.0162003
0.00759431
-0.00202027
-0.0143557
-0.0216681
0.0519961
0.052167
0.0523454
0.0525318
0.052724
0.0529264
0.0531366
0.0533599
0.0535941
0.0538461
0.0541127
0.0544016
0.054709
0.0550437
0.0554003
0.0557882
0.056202
0.0566512
0.0571294
0.0576468
0.0581982
0.0587925
0.0594254
0.0601055
0.0608278
0.0615983
0.0624128
0.0632745
0.0641843
0.0651441
0.0661518
0.0671955
0.0682626
0.0693402
0.0704158
0.0714673
0.0724748
0.0734081
0.0742228
0.0748763
0.0753217
0.0755033
0.0753652
0.0748296
0.0738146
0.0722404
0.070037
0.0671531
0.0635615
0.0592509
0.0541528
0.0481864
0.0412712
0.033499
0.0248506
0.0154992
0.0063139
-0.00389262
-0.0168058
-0.0244665
0.0543154
0.0544981
0.0546868
0.0548841
0.0550869
0.0553009
0.0555238
0.0557608
0.0560102
0.0562778
0.0565617
0.0568678
0.0571939
0.0575469
0.0579233
0.0583307
0.0587654
0.0592357
0.0597364
0.0602771
0.0608531
0.061473
0.0621329
0.0628411
0.0635926
0.0643934
0.0652393
0.0661334
0.0670764
0.0680704
0.069113
0.0701927
0.0712944
0.0724103
0.0735205
0.0746062
0.0756443
0.0766041
0.0774391
0.0781077
0.0785594
0.0787366
0.0785793
0.0780059
0.0769281
0.0752601
0.0729246
0.0698628
0.0660436
0.06145
0.056015
0.0496316
0.0422402
0.0339432
0.0247243
0.0147846
0.00500751
-0.0058051
-0.0193077
-0.0273276
0.0566764
0.0568746
0.0570795
0.0572923
0.0575105
0.0577394
0.0579765
0.0582277
0.0584909
0.0587733
0.0590717
0.0593942
0.0597368
0.0601085
0.060504
0.0609327
0.0613893
0.0618832
0.0624083
0.0629747
0.0635773
0.064225
0.0649136
0.0656519
0.0664347
0.0672681
0.0681479
0.0690773
0.0700572
0.0710891
0.0721709
0.0732903
0.0744345
0.0755893
0.0767408
0.0778647
0.078938
0.0799277
0.0807868
0.0814725
0.0819321
0.0821048
0.0819273
0.0813129
0.0801673
0.0783987
0.0759211
0.0726711
0.068609
0.063718
0.0579259
0.0511147
0.0432376
0.0344051
0.0246043
0.0140666
0.00369004
-0.00773776
-0.0218353
-0.0302156
0.0591134
0.0593248
0.0595424
0.0597687
0.0600004
0.0602436
0.0604958
0.0607628
0.0610426
0.0613417
0.0616578
0.0619979
0.062359
0.0627493
0.0631642
0.0636128
0.0640904
0.0646063
0.0651546
0.0657458
0.0663746
0.0670502
0.0677684
0.0685379
0.0693536
0.0702216
0.0711379
0.0721057
0.0731255
0.0741993
0.0753243
0.0764887
0.077677
0.0788795
0.0800755
0.081242
0.0823549
0.0833781
0.0842648
0.08497
0.0854398
0.085609
0.0854118
0.0847554
0.08354
0.0816664
0.0790419
0.0755953
0.0712823
0.0660802
0.0599216
0.0526646
0.0442857
0.034903
0.0245069
0.0133582
0.00236845
-0.0096901
-0.0243944
-0.0331493
0.0615831
0.0618127
0.0620495
0.0622945
0.062545
0.0628064
0.0630758
0.0633599
0.0636557
0.0639716
0.0643037
0.0646614
0.0650398
0.0654494
0.0658839
0.0663542
0.066854
0.0673942
0.0679674
0.0685853
0.0692418
0.0699469
0.0706959
0.0714981
0.0723484
0.0732531
0.0742082
0.075217
0.0762802
0.0773993
0.0785717
0.0797847
0.0810246
0.0822761
0.0835224
0.0847369
0.0858934
0.0869555
0.0878733
0.0886018
0.0890837
0.0892514
0.0890341
0.0883347
0.0870457
0.0850626
0.0822832
0.0786313
0.074054
0.0685261
0.0619817
0.0542708
0.0453811
0.0354378
0.024435
0.0126651
0.00105382
-0.0116449
-0.0269623
-0.0360941
0.0641891
0.0644294
0.0646751
0.0649296
0.0651891
0.0654607
0.0657415
0.066038
0.0663481
0.0666788
0.0670277
0.0674021
0.067799
0.0682271
0.0686815
0.0691718
0.0696933
0.0702558
0.0708531
0.0714964
0.0721804
0.0729147
0.0736952
0.0745312
0.0754175
0.0763608
0.0773572
0.0784099
0.0795196
0.0806878
0.0819114
0.0831779
0.0844711
0.0857798
0.08708
0.0883472
0.0895523
0.0906574
0.0916106
0.0923659
0.092863
0.0930312
0.0927953
0.0920527
0.0906892
0.0885932
0.0856551
0.0817908
0.0769411
0.0710745
0.0641332
0.0559509
0.0465379
0.0360218
0.0244004
0.0119969
-0.000250009
-0.0136047
-0.0295468
-0.0390724
0.0668167
0.0670722
0.0673339
0.0676037
0.0678785
0.068165
0.06846
0.0687708
0.0690946
0.0694401
0.0698036
0.0701947
0.0706084
0.0710556
0.0715298
0.0720423
0.0725868
0.0731744
0.0737978
0.0744692
0.0751826
0.0759484
0.0767623
0.077634
0.0785586
0.0795428
0.0805831
0.0816826
0.0828422
0.0840628
0.0853414
0.086665
0.0880187
0.0893852
0.0907462
0.0920706
0.09333
0.0944832
0.095477
0.0962629
0.0967788
0.0969495
0.0966961
0.0959096
0.0944694
0.0922564
0.0891532
0.0850683
0.0799344
0.0737151
0.0663588
0.0576987
0.0477541
0.0366549
0.0244036
0.0113567
-0.00153446
-0.015554
-0.032128
-0.0420512
0.0695115
0.069781
0.0700562
0.07034
0.070629
0.0709302
0.0712409
0.0715676
0.0719085
0.072271
0.0726523
0.0730611
0.0734933
0.0739591
0.0744527
0.0749853
0.0755512
0.0761616
0.0768095
0.0775076
0.0782501
0.0790474
0.0798957
0.0808046
0.0817695
0.0827971
0.083884
0.0850335
0.0862461
0.0875229
0.0888605
0.0902456
0.0916612
0.0930947
0.094519
0.0959065
0.097225
0.0984313
0.09947
0.100291
0.100829
0.101005
0.100735
0.0999056
0.0983877
0.0960553
0.0927831
0.0884716
0.0830454
0.076462
0.0686784
0.0595247
0.0490376
0.0373449
0.0244536
0.0107522
-0.00279723
-0.0174976
-0.0347149
-0.0450548
0.0722683
0.0725581
0.0728537
0.073156
0.0734627
0.0737795
0.0741041
0.074444
0.0747965
0.0751714
0.0755643
0.0759867
0.0764324
0.0769148
0.0774255
0.0779785
0.0785657
0.0792006
0.0798745
0.0806015
0.081375
0.0822063
0.0830911
0.0840398
0.0850477
0.0861216
0.0872584
0.0884611
0.0897305
0.0910673
0.0924677
0.0939183
0.0954034
0.096904
0.0983986
0.0998539
0.101237
0.102502
0.103591
0.104451
0.105015
0.105199
0.104915
0.104041
0.102444
0.0999883
0.0965415
0.0919958
0.0862672
0.0793073
0.0710809
0.0614274
0.050389
0.0380925
0.0245508
0.0101855
-0.00403069
-0.0194206
-0.037289
-0.0480515
0.0752474
0.0755362
0.0758227
0.0761149
0.0764089
0.0767164
0.0770336
0.0773713
0.0777253
0.0781063
0.078509
0.0789447
0.0794067
0.0799073
0.0804385
0.0810133
0.0816247
0.0822853
0.0829875
0.0837451
0.0845522
0.0854199
0.0863445
0.0873364
0.0883908
0.0895149
0.0907055
0.0919656
0.0932959
0.094697
0.0961649
0.0976858
0.0992418
0.100818
0.102386
0.103913
0.105365
0.106694
0.107838
0.108742
0.109335
0.109529
0.109232
0.108315
0.106637
0.104057
0.100431
0.0956461
0.0896076
0.0822616
0.0735809
0.0634129
0.0518124
0.0389027
0.0247022
0.00966315
-0.00523343
-0.0213289
-0.03986
-0.0510666
0.0775888
0.0779191
0.0782607
0.078611
0.0789679
0.0793349
0.0797102
0.0801002
0.0805029
0.0809277
0.0813708
0.0818439
0.0823413
0.0828762
0.0834409
0.0840495
0.0846948
0.0853907
0.086129
0.0869247
0.0877717
0.0886819
0.0896518
0.0906919
0.0917978
0.0929769
0.0942261
0.0955483
0.0969443
0.0984143
0.0999541
0.101549
0.103183
0.104836
0.106482
0.108087
0.109613
0.11101
0.112214
0.113166
0.113792
0.113999
0.11369
0.11273
0.11097
0.108261
0.104452
0.0994203
0.0930637
0.0853214
0.076174
0.0654845
0.0533118
0.0397783
0.0249088
0.00918661
-0.00639876
-0.0232086
-0.0424111
-0.0540706
0.0806488
0.0809712
0.0812924
0.0816205
0.0819519
0.0822989
0.0826575
0.0830393
0.0834395
0.0838697
0.0843236
0.0848136
0.0853318
0.0858916
0.086484
0.0871231
0.0878016
0.0885331
0.0893098
0.0901464
0.0910375
0.0919945
0.0930145
0.0941079
0.0952706
0.0965099
0.0978228
0.0992123
0.100679
0.102223
0.103839
0.105514
0.107227
0.108964
0.110692
0.112378
0.113982
0.115452
0.11672
0.117724
0.118386
0.118608
0.118288
0.117285
0.115442
0.112602
0.108606
0.103322
0.0966411
0.0884944
0.0788704
0.0676456
0.0548894
0.0407225
0.0251764
0.00876188
-0.00752587
-0.0250668
-0.044952
-0.0570883
0.0829718
0.0833369
0.0837154
0.0841048
0.0845025
0.0849123
0.0853323
0.0857694
0.0862214
0.0866986
0.087197
0.0877286
0.0882879
0.0888881
0.0895216
0.0902026
0.0909242
0.0917004
0.0925233
0.0934084
0.0943501
0.0953602
0.0964362
0.0975885
0.0988134
0.100118
0.1015
0.102961
0.104504
0.106126
0.107824
0.109583
0.111384
0.113204
0.115019
0.11679
0.118476
0.120023
0.12136
0.122421
0.123121
0.123361
0.123032
0.121985
0.120057
0.117083
0.112895
0.107354
0.100341
0.0917821
0.0816716
0.0699032
0.0565522
0.0417405
0.0255072
0.00839067
-0.00860832
-0.0268899
-0.0474671
-0.060093
0.0860568
0.0864089
0.0867628
0.0871262
0.0874961
0.0878851
0.088289
0.0887197
0.0891723
0.0896587
0.0901724
0.0907265
0.0913123
0.091944
0.0926122
0.0933319
0.0940952
0.0949164
0.0957874
0.0967237
0.0977197
0.0987872
0.0999239
0.10114
0.102432
0.103807
0.105263
0.106802
0.108424
0.110131
0.111915
0.113762
0.115652
0.117565
0.11947
0.121329
0.123102
0.124729
0.126137
0.127258
0.128
0.128258
0.12792
0.12683
0.124816
0.121705
0.117321
0.111517
0.104168
0.0951893
0.0845833
0.0722585
0.0583008
0.0428342
0.025906
0.00807849
-0.00964562
-0.0286853
-0.0499663
-0.0631077
0.0882901
0.0886846
0.0890982
0.0895286
0.0899728
0.0904346
0.0909117
0.0914105
0.0919289
0.0924764
0.0930493
0.0936589
0.0942998
0.0949849
0.0957069
0.09648
0.0972977
0.098174
0.0991016
0.100096
0.101153
0.102283
0.103485
0.10477
0.106133
0.107584
0.109118
0.110738
0.112446
0.114241
0.116117
0.118057
0.120042
0.122048
0.124048
0.126001
0.127863
0.129575
0.131059
0.132242
0.133028
0.133307
0.132961
0.131828
0.129726
0.126475
0.121891
0.115819
0.108126
0.0987217
0.0876115
0.0747213
0.0601447
0.0440105
0.0263754
0.0078264
-0.0106325
-0.0304412
-0.0524359
-0.0661092
0.0912481
0.0916465
0.0920587
0.0924881
0.0929316
0.0933974
0.0938822
0.0943948
0.094931
0.0955017
0.096101
0.0967418
0.0974164
0.0981391
0.0989013
0.0997183
0.100583
0.10151
0.102493
0.103545
0.104663
0.105858
0.107129
0.108486
0.109925
0.111455
0.113071
0.114778
0.116576
0.118463
0.120435
0.122473
0.124555
0.126664
0.128761
0.130811
0.132767
0.134566
0.136129
0.137377
0.138208
0.138509
0.138156
0.136979
0.134788
0.131394
0.126606
0.12026
0.112218
0.102381
0.0907577
0.0772904
0.0620824
0.0452698
0.0269193
0.0076394
-0.0115687
-0.0321651
-0.0548861
-0.0691182
0.0941122
0.0945252
0.0949534
0.0954002
0.0958614
0.0963464
0.096851
0.0973857
0.0979465
0.0985452
0.0991767
0.0998532
0.100568
0.101335
0.102145
0.103013
0.103933
0.104917
0.105959
0.107074
0.108258
0.109522
0.110865
0.112297
0.113815
0.115427
0.11713
0.118927
0.120818
0.122803
0.124874
0.127014
0.129203
0.131412
0.133615
0.135765
0.137819
0.139709
0.141354
0.14267
0.143549
0.143874
0.143514
0.142292
0.140011
0.136471
0.131474
0.124849
0.116452
0.106176
0.0940313
0.079977
0.0641247
0.0466198
0.0275408
0.00751833
-0.0124498
-0.0338464
-0.0573054
-0.0721142
0.0970047
0.0974373
0.0978881
0.0983589
0.0988479
0.0993625
0.0999001
0.100469
0.101066
0.101701
0.10237
0.103085
0.103839
0.104647
0.105501
0.106415
0.107384
0.108422
0.109522
0.110699
0.111949
0.113283
0.1147
0.116211
0.117811
0.119509
0.121301
0.123192
0.12518
0.127265
0.129441
0.131688
0.133983
0.136304
0.138613
0.14087
0.143025
0.145009
0.146738
0.148124
0.149053
0.149402
0.149036
0.14777
0.145395
0.141707
0.136496
0.129587
0.120828
0.110104
0.09743
0.082777
0.0662677
0.0480591
0.0282426
0.0074677
-0.0132756
-0.0354921
-0.0597035
-0.0751157
0.0998786
0.100336
0.100814
0.101314
0.101834
0.10238
0.102951
0.103556
0.10419
0.104866
0.105579
0.106341
0.107145
0.108005
0.108914
0.109886
0.110915
0.112015
0.113179
0.114423
0.115743
0.11715
0.118644
0.120235
0.12192
0.123706
0.125591
0.127578
0.129668
0.131857
0.13414
0.136498
0.138907
0.141339
0.143762
0.146129
0.14839
0.150473
0.15229
0.153749
0.154729
0.155104
0.154734
0.153421
0.150953
0.147112
0.141683
0.134482
0.125355
0.114178
0.100964
0.0857021
0.0685221
0.0495951
0.029027
0.00748689
-0.0140436
-0.0370939
-0.0620717
-0.0781061
0.102902
0.103386
0.103892
0.10442
0.104972
0.105552
0.106159
0.106801
0.107475
0.108191
0.108945
0.10975
0.110599
0.111505
0.112462
0.113485
0.114568
0.115726
0.116951
0.118261
0.119651
0.121132
0.122704
0.124378
0.126149
0.128026
0.130007
0.132093
0.134286
0.136583
0.138977
0.14145
0.143974
0.146526
0.149065
0.151547
0.153918
0.156103
0.158011
0.159545
0.160578
0.160981
0.160606
0.159247
0.156682
0.152685
0.147033
0.139535
0.130031
0.118393
0.10463
0.0887457
0.0708818
0.0512245
0.0298958
0.00757986
-0.014754
-0.0386583
-0.0644185
-0.0811008
0.105951
0.106465
0.107002
0.107565
0.10815
0.108766
0.10941
0.11009
0.110804
0.111563
0.112364
0.113216
0.114117
0.115078
0.116093
0.117175
0.118321
0.119543
0.120836
0.122216
0.123679
0.125236
0.126889
0.128646
0.130506
0.132475
0.134553
0.136741
0.13904
0.141447
0.143956
0.146546
0.149193
0.151864
0.154527
0.157129
0.159615
0.161906
0.163909
0.165522
0.166611
0.167044
0.166664
0.165259
0.162595
0.158438
0.152557
0.144754
0.134868
0.122759
0.108437
0.0919188
0.0733572
0.0529548
0.0308505
0.00774502
-0.0154055
-0.0401788
-0.0667374
-0.0840855
0.109156
0.109699
0.110268
0.110863
0.111485
0.112138
0.112823
0.113545
0.114304
0.115108
0.115954
0.116854
0.117802
0.118812
0.119878
0.121014
0.122216
0.123498
0.124855
0.126302
0.127838
0.129471
0.131204
0.133046
0.134995
0.137059
0.139235
0.141527
0.143934
0.146455
0.149081
0.151792
0.154562
0.157363
0.160151
0.162877
0.165483
0.167884
0.169986
0.171679
0.172827
0.17329
0.172907
0.171454
0.168689
0.164369
0.158252
0.150137
0.139858
0.127272
0.112379
0.0952126
0.0759395
0.0547809
0.0318922
0.00798598
-0.0159983
-0.0416612
-0.0690352
-0.0870729
0.112425
0.112999
0.113602
0.114233
0.114892
0.115583
0.116307
0.11707
0.117871
0.11872
0.119615
0.120566
0.121568
0.122635
0.12376
0.124958
0.126224
0.127573
0.128998
0.130517
0.132127
0.133838
0.135653
0.137581
0.139621
0.14178
0.144057
0.146454
0.148972
0.151608
0.154354
0.15719
0.16009
0.163018
0.165939
0.168795
0.171525
0.174043
0.176247
0.178026
0.179235
0.179733
0.179347
0.177846
0.174977
0.170488
0.16413
0.155695
0.145014
0.13194
0.116466
0.0986378
0.0786386
0.056709
0.0330207
0.00829901