/*--------------------------------*- C++ -*----------------------------------*\
  =========                 |
  \\      /  F ield         | OpenFOAM: The Open Source CFD Toolbox
   \\    /   O peration     | Website:  https://openfoam.org
    \\  /    A nd           | Version:  6.0
     \\/     M anipulation  |
\*---------------------------------------------------------------------------*/
FoamFile
{
    version     2.0;
    format      ascii;
    class       volVectorField;
    location    "12";
    object      U;
}
// * * * * * * * * * * * * * * * * * * * * * * * * * * * * * * * * * * * * * //

dimensions      [0 1 -1 0 0 0 0];

internalField   nonuniform List<vector> 
62000
(
(0.965569 0.25817 -3.73518e-21)
(0.965578 0.258173 3.15532e-21)
(0.965594 0.258197 3.25205e-21)
(0.965619 0.25821 -1.44148e-20)
(0.96565 0.258224 -1.65988e-20)
(0.965684 0.258237 5.83603e-20)
(0.965721 0.25825 -6.49778e-20)
(0.965756 0.258265 3.83526e-20)
(0.965789 0.258284 -1.81803e-20)
(0.965818 0.258306 -9.4224e-20)
(0.965841 0.258333 -1.20244e-20)
(0.965858 0.258365 1.36366e-19)
(0.965869 0.258403 2.82219e-20)
(0.965875 0.258446 -1.00607e-19)
(0.965875 0.258494 1.59803e-19)
(0.96587 0.258547 -8.64193e-20)
(0.965863 0.258603 9.12217e-20)
(0.965853 0.258662 -1.08888e-19)
(0.965841 0.258723 5.48681e-20)
(0.965828 0.258785 -1.72847e-19)
(0.965815 0.258848 2.30125e-19)
(0.965803 0.25891 7.0263e-20)
(0.96579 0.25897 1.03732e-19)
(0.965779 0.259029 -4.75607e-19)
(0.965769 0.259084 1.77677e-19)
(0.965761 0.259136 -1.13894e-19)
(0.965753 0.259183 -2.71611e-21)
(0.965747 0.259225 -9.77222e-20)
(0.965742 0.25926 3.05302e-19)
(0.965741 0.259287 -1.76537e-19)
(0.96574 0.259304 4.34141e-19)
(0.965742 0.259312 -9.1896e-19)
(0.965745 0.259311 8.65142e-20)
(0.96575 0.259301 -3.32576e-19)
(0.965759 0.259279 -1.12288e-19)
(0.965771 0.259238 -3.61623e-19)
(0.965786 0.25918 -1.17167e-19)
(0.965802 0.259109 -1.22543e-19)
(0.965814 0.259034 3.61189e-19)
(0.96582 0.258964 1.69516e-18)
(0.965813 0.258905 -4.07771e-19)
(0.965788 0.258863 -2.38174e-18)
(0.965737 0.258844 -3.81794e-18)
(0.965648 0.258847 2.1067e-18)
(0.965511 0.258862 6.15658e-19)
(0.965317 0.258867 -3.1518e-18)
(0.965062 0.25882 8.22834e-19)
(0.964744 0.258666 -1.38367e-18)
(0.964375 0.258345 -6.81883e-18)
(0.963971 0.257808 -1.59317e-18)
(0.963544 0.25704 -8.41744e-19)
(0.963111 0.256044 -1.16019e-17)
(0.962661 0.254849 1.29976e-18)
(0.962157 0.253407 1.35913e-17)
(0.961582 0.251538 3.75322e-18)
(0.960949 0.248886 1.29097e-17)
(0.960426 0.244857 -1.75053e-18)
(0.960129 0.239122 -3.1257e-18)
(0.960772 0.228371 6.61236e-18)
(0.933561 0.203145 1.35884e-18)
(0.965332 0.260293 -9.85942e-22)
(0.965233 0.260156 9.51362e-21)
(0.965148 0.260096 3.929e-21)
(0.965082 0.260025 -1.73028e-20)
(0.965041 0.259947 7.25819e-21)
(0.965026 0.259868 -5.06089e-20)
(0.965039 0.259784 4.71021e-20)
(0.965075 0.259695 2.75637e-20)
(0.965133 0.259602 -5.23915e-20)
(0.965208 0.259506 2.33306e-21)
(0.965294 0.259408 5.24213e-20)
(0.965386 0.259312 1.34411e-22)
(0.965479 0.259219 1.56463e-20)
(0.965569 0.259132 -1.36548e-19)
(0.965653 0.259055 2.79579e-19)
(0.965727 0.258988 -2.51898e-19)
(0.965791 0.258934 1.20668e-19)
(0.965844 0.258894 -2.57693e-20)
(0.965885 0.258869 -7.23942e-20)
(0.965915 0.258859 2.04784e-19)
(0.965935 0.258863 -3.29993e-19)
(0.965947 0.258881 1.96069e-19)
(0.96595 0.258911 -2.56211e-19)
(0.965948 0.258952 1.55095e-19)
(0.965939 0.259002 1.48619e-19)
(0.965927 0.259062 -1.00053e-19)
(0.96591 0.259126 -1.87992e-21)
(0.965891 0.259197 1.15663e-19)
(0.965869 0.259269 1.00923e-19)
(0.965848 0.259343 -2.17242e-19)
(0.965824 0.259414 4.50469e-19)
(0.9658 0.259488 9.74215e-20)
(0.965769 0.259572 3.0849e-19)
(0.965732 0.259672 2.61774e-20)
(0.965694 0.259773 9.52872e-20)
(0.965655 0.259865 -1.05676e-19)
(0.965616 0.259947 -3.39774e-19)
(0.965576 0.260032 -1.66836e-19)
(0.965525 0.260142 -9.61622e-19)
(0.965452 0.260282 -1.11741e-18)
(0.965348 0.260451 8.73528e-19)
(0.965205 0.26064 5.26324e-19)
(0.965012 0.260827 3.97825e-18)
(0.964757 0.260977 2.36292e-19)
(0.964435 0.261033 -6.34011e-18)
(0.964042 0.260922 2.59572e-18)
(0.96359 0.260556 2.26977e-18)
(0.963095 0.259862 2.7486e-18)
(0.962585 0.258806 6.49973e-19)
(0.962081 0.257421 1.36252e-19)
(0.961568 0.255814 5.16706e-18)
(0.961024 0.254089 1.43544e-17)
(0.960354 0.252294 -9.82285e-18)
(0.959473 0.250232 -2.38454e-17)
(0.958353 0.247392 -5.81091e-18)
(0.957081 0.243026 -4.54326e-18)
(0.956098 0.23599 -9.92161e-18)
(0.955139 0.22632 -5.39607e-18)
(0.957282 0.209096 8.63178e-18)
(0.918298 0.173329 3.54405e-18)
(0.965829 0.261311 -4.74944e-21)
(0.965737 0.26119 -6.58132e-22)
(0.965618 0.261136 7.7487e-22)
(0.965478 0.261105 3.47619e-21)
(0.96533 0.261076 9.90776e-21)
(0.965189 0.261059 -9.53035e-21)
(0.965063 0.261046 5.12598e-20)
(0.964963 0.261033 -2.4907e-20)
(0.964895 0.261016 -1.3559e-20)
(0.964861 0.260991 -8.40197e-20)
(0.964862 0.260955 7.20318e-20)
(0.964896 0.260906 5.34893e-21)
(0.964958 0.260846 -1.70254e-20)
(0.965043 0.260773 4.59691e-20)
(0.965144 0.260689 -8.00424e-20)
(0.965255 0.260599 4.75115e-22)
(0.965369 0.260503 -3.83585e-20)
(0.965481 0.260408 4.70652e-22)
(0.965586 0.260315 9.27228e-20)
(0.965681 0.26023 -1.44558e-19)
(0.965764 0.260153 9.19424e-20)
(0.965833 0.260089 3.69105e-19)
(0.965888 0.260039 -4.77271e-20)
(0.965929 0.260003 -5.38951e-19)
(0.965956 0.259983 2.8337e-19)
(0.965972 0.259979 -1.59827e-19)
(0.965975 0.259989 2.66605e-19)
(0.965969 0.260017 -1.64675e-19)
(0.965952 0.260057 -3.40993e-19)
(0.965931 0.260111 3.75691e-19)
(0.965901 0.260176 -2.73576e-19)
(0.965865 0.26026 3.79383e-19)
(0.965815 0.260376 -1.08991e-18)
(0.965749 0.260529 1.00476e-18)
(0.965673 0.260703 -5.54139e-19)
(0.96559 0.260885 2.32744e-19)
(0.965501 0.261076 1.81852e-19)
(0.965409 0.261295 -1.70617e-20)
(0.965304 0.261552 -5.53164e-20)
(0.96517 0.261843 1.14941e-18)
(0.965001 0.262154 -4.56936e-19)
(0.964791 0.262458 7.15694e-19)
(0.964534 0.26271 -2.56085e-18)
(0.964229 0.26285 -1.27508e-18)
(0.963881 0.262795 1.4149e-18)
(0.963503 0.262463 -4.93539e-18)
(0.963122 0.26177 6.86732e-19)
(0.962767 0.260687 -4.60267e-18)
(0.962474 0.259262 6.70098e-18)
(0.96225 0.257637 1.79983e-18)
(0.962059 0.256047 9.65425e-19)
(0.961848 0.254697 -3.01599e-19)
(0.961485 0.253667 4.12068e-18)
(0.960888 0.252736 7.57147e-19)
(0.960018 0.251275 -8.11283e-18)
(0.958943 0.248487 -4.91984e-18)
(0.958173 0.243024 -2.76563e-18)
(0.956633 0.235458 -1.10421e-17)
(0.959569 0.222783 -1.55798e-18)
(0.92838 0.200468 9.29054e-19)
(0.966423 0.261255 -4.69414e-21)
(0.966565 0.261198 1.44874e-20)
(0.966639 0.261169 -2.27006e-21)
(0.966644 0.261179 -1.51534e-20)
(0.966584 0.261206 2.29966e-20)
(0.96647 0.261258 3.9867e-20)
(0.966314 0.261333 -5.27672e-20)
(0.966131 0.261425 5.75014e-21)
(0.965937 0.26153 1.85509e-20)
(0.965746 0.261641 3.89265e-20)
(0.965571 0.261752 -7.31807e-20)
(0.965422 0.261856 -2.26855e-20)
(0.965306 0.261947 -2.56802e-20)
(0.965226 0.26202 1.19117e-19)
(0.965182 0.262072 -8.07812e-20)
(0.965172 0.262101 1.91696e-19)
(0.965191 0.262106 -2.36059e-19)
(0.965234 0.262091 -3.53686e-20)
(0.965294 0.262055 2.58076e-19)
(0.965365 0.262005 -9.15091e-20)
(0.965441 0.261944 -3.40685e-20)
(0.965518 0.261876 -3.75551e-20)
(0.96559 0.261806 -3.50764e-19)
(0.965654 0.261738 2.04356e-19)
(0.965709 0.261676 -9.69654e-20)
(0.965753 0.261624 1.5793e-19)
(0.965785 0.261582 7.59699e-20)
(0.965805 0.261555 3.89e-19)
(0.965812 0.261542 -2.48511e-19)
(0.965812 0.261546 -3.36912e-19)
(0.9658 0.261564 5.49087e-19)
(0.965779 0.26161 -4.61353e-19)
(0.965738 0.261701 8.83993e-19)
(0.965675 0.26184 -5.57686e-19)
(0.965593 0.262011 2.36039e-19)
(0.965498 0.262196 4.21358e-19)
(0.965393 0.262401 -1.87731e-19)
(0.965279 0.262647 2.37823e-19)
(0.965148 0.262924 -1.17363e-19)
(0.964985 0.263221 3.53851e-19)
(0.964782 0.263515 -9.97202e-19)
(0.964536 0.263768 2.75053e-19)
(0.964244 0.263924 5.99896e-19)
(0.963907 0.263912 1.48096e-18)
(0.963534 0.263644 1.98189e-18)
(0.96314 0.26304 4.71834e-19)
(0.962755 0.262029 3.26061e-18)
(0.962404 0.260616 3.68704e-18)
(0.962123 0.2589 4.49051e-18)
(0.961912 0.257077 -3.3668e-18)
(0.961732 0.255436 -4.6406e-18)
(0.961544 0.254226 3.1888e-18)
(0.961247 0.253547 4.36935e-18)
(0.960806 0.2532 9.82111e-18)
(0.960208 0.252541 6.1678e-18)
(0.95947 0.250801 1.02612e-17)
(0.959173 0.246542 1.85164e-17)
(0.957439 0.240464 -7.45636e-19)
(0.960889 0.231662 -1.01069e-17)
(0.936439 0.216129 -7.36548e-18)
(0.966285 0.262701 8.89404e-21)
(0.966651 0.262601 -3.05201e-21)
(0.966972 0.262529 4.96162e-21)
(0.967237 0.262477 -7.17837e-21)
(0.967429 0.262442 1.59453e-20)
(0.967541 0.262432 -8.06075e-21)
(0.967569 0.262449 4.23648e-21)
(0.967518 0.262495 -6.45783e-20)
(0.967397 0.262569 5.46545e-20)
(0.967219 0.262668 -1.09747e-19)
(0.967001 0.262786 1.22172e-19)
(0.96676 0.262918 -1.48437e-20)
(0.966512 0.263056 -3.32006e-20)
(0.966273 0.263193 -1.55689e-20)
(0.966053 0.263321 -3.4187e-21)
(0.965862 0.263433 -1.60894e-19)
(0.965704 0.263526 6.56822e-21)
(0.965582 0.263595 1.80965e-19)
(0.965495 0.263639 -6.01052e-20)
(0.965439 0.263659 -6.5288e-20)
(0.965411 0.263655 1.10928e-19)
(0.965405 0.263631 -5.71222e-20)
(0.965416 0.263589 2.43114e-19)
(0.965437 0.263536 1.38634e-19)
(0.965465 0.263474 1.10118e-19)
(0.965495 0.263411 -3.40382e-19)
(0.965523 0.263347 -4.91577e-20)
(0.965547 0.26329 -2.84263e-19)
(0.965566 0.263239 5.34444e-20)
(0.965579 0.263198 -1.02975e-19)
(0.965586 0.263169 -4.15146e-20)
(0.965583 0.263168 3.45489e-19)
(0.965561 0.263215 -8.85337e-19)
(0.965514 0.263314 -4.20022e-20)
(0.965445 0.263445 -4.83939e-19)
(0.965361 0.263587 -2.43216e-19)
(0.965265 0.263747 6.7012e-20)
(0.965148 0.263954 -8.17404e-19)
(0.965005 0.264172 1.24747e-18)
(0.964825 0.264394 2.07646e-19)
(0.964599 0.264591 1.35845e-18)
(0.964322 0.264722 -9.92334e-19)
(0.963989 0.264726 -6.70647e-19)
(0.963596 0.264533 -2.62867e-19)
(0.963148 0.264053 1.46339e-18)
(0.962649 0.26321 2.17245e-18)
(0.962121 0.261941 5.39409e-19)
(0.961576 0.260252 9.65344e-19)
(0.961038 0.25825 -1.53718e-18)
(0.960508 0.256125 8.68811e-18)
(0.95996 0.254147 2.28665e-18)
(0.959394 0.252548 -2.21675e-18)
(0.958774 0.251415 1.14451e-18)
(0.958145 0.250566 8.18717e-18)
(0.957573 0.249389 -7.45962e-19)
(0.957062 0.24719 -7.93173e-18)
(0.95733 0.242561 -1.91195e-17)
(0.955904 0.236136 1.70937e-17)
(0.959821 0.228401 -9.86883e-18)
(0.939669 0.212904 8.1697e-18)
(0.965307 0.266092 -3.28251e-21)
(0.965697 0.265914 1.32638e-20)
(0.966106 0.265768 -2.18818e-20)
(0.966521 0.265616 1.63938e-20)
(0.966916 0.265464 1.05251e-20)
(0.967268 0.26532 -1.1374e-20)
(0.967555 0.265191 9.27813e-22)
(0.967765 0.265084 -8.56592e-21)
(0.967886 0.265002 -2.89925e-20)
(0.967919 0.264948 5.62656e-20)
(0.967868 0.264924 -8.80423e-20)
(0.967743 0.264926 7.8097e-20)
(0.967558 0.264954 6.96775e-20)
(0.967331 0.265 -1.09198e-19)
(0.967077 0.265059 -3.6339e-20)
(0.966815 0.265124 1.38539e-19)
(0.966557 0.265189 -1.7088e-19)
(0.966316 0.265247 2.41032e-19)
(0.9661 0.265292 -4.57011e-20)
(0.965913 0.265322 2.80912e-20)
(0.965759 0.265334 -4.38464e-20)
(0.965637 0.265327 -5.7098e-20)
(0.965544 0.265301 -1.11484e-19)
(0.965477 0.265259 1.97153e-19)
(0.965431 0.265203 -1.37905e-19)
(0.965403 0.265138 -1.40907e-19)
(0.965387 0.265065 2.96282e-19)
(0.965379 0.264992 -2.943e-19)
(0.965377 0.264916 4.82865e-19)
(0.965378 0.264842 -2.62537e-19)
(0.965379 0.264774 2.1082e-19)
(0.965377 0.264729 -3.66921e-19)
(0.965359 0.264734 4.09395e-19)
(0.965319 0.264789 -3.32142e-20)
(0.965261 0.264871 -2.06836e-20)
(0.96519 0.264958 -1.04903e-20)
(0.965107 0.265055 -2.55067e-19)
(0.964991 0.265198 7.26741e-19)
(0.96484 0.265335 -5.54813e-19)
(0.96465 0.265463 -3.17876e-18)
(0.964412 0.265555 -1.33026e-18)
(0.964119 0.26557 9.41407e-19)
(0.963762 0.265453 -1.03197e-18)
(0.963332 0.265136 -1.1595e-18)
(0.962824 0.264535 -9.71657e-20)
(0.962231 0.263578 2.96597e-18)
(0.961558 0.262201 -4.44737e-18)
(0.960802 0.260402 -4.69457e-18)
(0.959975 0.258264 -3.36342e-18)
(0.959071 0.255938 -5.85395e-18)
(0.95808 0.253638 3.90748e-18)
(0.957044 0.25154 -1.62188e-18)
(0.955998 0.249695 -1.36908e-17)
(0.955071 0.247934 2.78675e-18)
(0.954423 0.245716 3.93551e-18)
(0.954075 0.24247 -7.64203e-18)
(0.954916 0.236965 5.15769e-18)
(0.954097 0.229809 4.85747e-18)
(0.95828 0.222476 1.59849e-17)
(0.942779 0.20806 -3.70607e-19)
(0.96399 0.270219 3.77034e-21)
(0.964229 0.270002 -1.69884e-20)
(0.964536 0.269819 8.40164e-21)
(0.96491 0.269611 1.53976e-20)
(0.965331 0.269385 -3.30459e-20)
(0.965775 0.269147 2.7858e-20)
(0.966215 0.268904 -1.85321e-20)
(0.966626 0.268662 1.58452e-20)
(0.966986 0.268427 2.52187e-20)
(0.967275 0.268207 -6.13992e-20)
(0.967483 0.268007 8.93755e-20)
(0.967602 0.26783 3.81051e-20)
(0.967634 0.267681 -1.5458e-19)
(0.967587 0.267558 -2.92413e-20)
(0.967472 0.26746 8.45288e-20)
(0.967303 0.267385 5.56106e-20)
(0.967096 0.267327 -6.83447e-20)
(0.966868 0.267282 6.18047e-20)
(0.966633 0.267243 9.82409e-20)
(0.966402 0.267207 -4.7272e-20)
(0.966186 0.267168 -2.78567e-20)
(0.965991 0.267122 1.05685e-19)
(0.965821 0.267067 2.25065e-19)
(0.965677 0.267002 -1.61673e-19)
(0.965559 0.266927 -1.8879e-19)
(0.965463 0.266844 2.16955e-19)
(0.965388 0.266752 -1.70682e-19)
(0.96533 0.266658 -7.50474e-20)
(0.965286 0.266557 6.23782e-19)
(0.965252 0.266452 -2.81382e-19)
(0.965226 0.266346 -2.30012e-19)
(0.965201 0.266261 3.04375e-19)
(0.965168 0.266223 2.20458e-19)
(0.96512 0.266234 -2.04633e-19)
(0.96506 0.266265 -1.44109e-19)
(0.964992 0.266294 4.82082e-19)
(0.964916 0.266326 1.10001e-19)
(0.964799 0.2664 1.68445e-19)
(0.964641 0.266456 -9.07133e-19)
(0.964451 0.2665 -8.84417e-19)
(0.96422 0.266508 1.6935e-18)
(0.963941 0.266446 1.3462e-18)
(0.963601 0.266265 2.25529e-18)
(0.963189 0.26591 -2.04441e-18)
(0.962691 0.265305 -2.25485e-18)
(0.962089 0.264385 -1.57799e-18)
(0.961376 0.263087 3.87699e-18)
(0.960532 0.261393 3.83208e-18)
(0.959553 0.259359 -4.52368e-18)
(0.958427 0.257081 -6.68662e-18)
(0.957154 0.254708 -1.66437e-18)
(0.955808 0.252344 1.43939e-18)
(0.954474 0.249998 3.09179e-19)
(0.953345 0.247514 -5.05374e-18)
(0.952665 0.244436 4.33331e-18)
(0.952469 0.240345 2.69073e-18)
(0.953798 0.234275 3.97718e-18)
(0.953629 0.226881 -1.44973e-17)
(0.957735 0.220438 -1.10879e-18)
(0.947909 0.20975 -3.09343e-19)
(0.962842 0.274042 -6.23708e-21)
(0.962867 0.27384 -4.87607e-21)
(0.962976 0.273668 6.86674e-21)
(0.963178 0.273464 2.38014e-20)
(0.963469 0.273232 -5.13665e-20)
(0.963834 0.272974 5.89146e-20)
(0.964257 0.272694 -2.90338e-21)
(0.964713 0.272395 -3.87099e-21)
(0.965177 0.272083 -2.12806e-20)
(0.965624 0.271764 5.16199e-20)
(0.96603 0.271445 -8.04771e-20)
(0.966375 0.271134 3.06952e-20)
(0.966646 0.270836 -9.90757e-22)
(0.966835 0.270556 4.91235e-20)
(0.966941 0.270299 2.38172e-20)
(0.96697 0.270065 -1.28359e-19)
(0.96693 0.269856 1.13437e-19)
(0.966833 0.26967 4.6035e-20)
(0.966694 0.269504 -1.34233e-19)
(0.966527 0.269354 6.69614e-20)
(0.966345 0.269217 3.25642e-20)
(0.966159 0.269088 -2.10896e-20)
(0.965978 0.268963 2.99848e-20)
(0.965809 0.26884 -1.55037e-20)
(0.965657 0.268715 -2.01942e-19)
(0.965522 0.26859 1.37959e-19)
(0.965406 0.268462 -2.18e-19)
(0.965307 0.268333 4.13841e-19)
(0.965222 0.268197 -7.73455e-20)
(0.965151 0.268056 -4.8198e-20)
(0.96509 0.26791 -1.26063e-20)
(0.965034 0.267782 5.09433e-19)
(0.964975 0.267699 -2.07581e-19)
(0.964908 0.267663 -1.33222e-19)
(0.964836 0.267643 3.61103e-19)
(0.964763 0.267613 3.22988e-19)
(0.964686 0.267581 -5.56181e-19)
(0.964567 0.267586 1.00135e-19)
(0.964406 0.267571 1.08873e-18)
(0.964225 0.267545 -9.40955e-20)
(0.964018 0.267495 6.84105e-19)
(0.963778 0.267391 -9.87167e-19)
(0.963493 0.2672 1.45213e-18)
(0.963148 0.266875 3.194e-18)
(0.962727 0.266356 1.00697e-18)
(0.962204 0.265586 -1.23768e-18)
(0.96156 0.264505 -3.86686e-18)
(0.960762 0.263082 5.23528e-19)
(0.959795 0.261343 1.3949e-18)
(0.958639 0.259335 3.49989e-18)
(0.957297 0.257139 -7.35941e-19)
(0.955859 0.254794 -5.75163e-18)
(0.954442 0.252263 5.17766e-18)
(0.953276 0.249404 -3.63981e-18)
(0.952654 0.245842 6.81293e-18)
(0.952616 0.241304 1.96163e-18)
(0.954303 0.235097 8.04483e-18)
(0.954696 0.227945 1.05748e-17)
(0.958406 0.22275 1.15057e-18)
(0.954346 0.216481 1.00778e-18)
(0.96208 0.277202 -3.01543e-21)
(0.961916 0.277032 2.61749e-21)
(0.961822 0.276893 1.29317e-20)
(0.961816 0.276726 2.02754e-20)
(0.961906 0.27653 -6.07204e-20)
(0.962093 0.276306 3.50381e-20)
(0.962371 0.276051 -6.22946e-20)
(0.962728 0.275767 9.81205e-20)
(0.963147 0.275454 -4.62684e-20)
(0.963605 0.275117 8.16364e-21)
(0.964076 0.27476 8.97036e-20)
(0.964537 0.274389 -2.0651e-19)
(0.964964 0.274012 1.42174e-19)
(0.965339 0.273636 2.01281e-20)
(0.965647 0.273267 3.31798e-20)
(0.965883 0.272911 -1.40769e-19)
(0.966042 0.272572 7.02448e-20)
(0.966129 0.272256 -8.88944e-20)
(0.966153 0.271961 1.79268e-19)
(0.966121 0.27169 -2.31673e-20)
(0.966048 0.271439 -2.37459e-19)
(0.965944 0.271207 9.57632e-20)
(0.965821 0.27099 -5.49811e-21)
(0.965689 0.270785 -3.79294e-19)
(0.965556 0.270589 2.84941e-19)
(0.965426 0.270403 2.2288e-19)
(0.965304 0.270221 1.60202e-19)
(0.965191 0.270044 -2.08554e-19)
(0.965088 0.269863 -2.41603e-19)
(0.964994 0.269677 1.14608e-19)
(0.964908 0.269486 1.79264e-19)
(0.964827 0.269311 -2.28222e-19)
(0.964744 0.269181 -3.56751e-19)
(0.964659 0.269095 7.44429e-19)
(0.964574 0.269022 8.44487e-20)
(0.964493 0.268934 -1.21872e-18)
(0.964413 0.268841 1.03645e-19)
(0.96429 0.268781 8.58318e-19)
(0.964129 0.268704 7.74894e-20)
(0.963963 0.268624 1.1234e-18)
(0.963789 0.268533 -1.54333e-18)
(0.9636 0.268414 -8.71613e-20)
(0.963386 0.268242 -9.93283e-19)
(0.963132 0.267984 2.98008e-19)
(0.962819 0.267593 1.57338e-18)
(0.962417 0.267022 4.57136e-18)
(0.961902 0.266214 8.53176e-19)
(0.961233 0.265129 -3.12828e-18)
(0.960386 0.263764 2.23763e-18)
(0.959336 0.262125 8.6626e-18)
(0.958084 0.260236 -7.2065e-18)
(0.956728 0.258077 8.9482e-18)
(0.955399 0.255574 -5.91107e-18)
(0.954338 0.252592 -2.47947e-18)
(0.953859 0.248831 -1.34896e-17)
(0.953987 0.244131 -6.63951e-19)
(0.95592 0.238034 -4.62361e-18)
(0.956767 0.231306 -4.55297e-18)
(0.959888 0.22728 1.75255e-18)
(0.960622 0.224487 -9.79886e-19)
(0.961679 0.279744 4.21104e-21)
(0.961382 0.27961 1.42381e-21)
(0.961129 0.279507 -1.52636e-20)
(0.960942 0.279382 1.4577e-20)
(0.960836 0.279233 -6.47272e-21)
(0.960821 0.279059 1.14906e-20)
(0.960904 0.278855 3.85129e-21)
(0.961085 0.278619 -5.7796e-20)
(0.961358 0.27835 2.54738e-20)
(0.96171 0.278046 -1.71253e-20)
(0.962122 0.277711 1.071e-20)
(0.962574 0.277346 4.12713e-20)
(0.96304 0.276957 -7.93801e-21)
(0.963499 0.276549 2.56751e-20)
(0.96393 0.276131 -1.10032e-19)
(0.964314 0.275708 4.28886e-20)
(0.964638 0.275288 1.88391e-20)
(0.964898 0.274879 -5.35261e-20)
(0.96509 0.274484 1.07506e-19)
(0.965218 0.274108 3.65132e-20)
(0.965288 0.273753 -3.76973e-21)
(0.965309 0.27342 -4.16367e-20)
(0.96529 0.273108 1.696e-19)
(0.965241 0.272815 -4.78964e-19)
(0.965172 0.272539 2.53134e-19)
(0.965089 0.27228 1.12455e-19)
(0.964999 0.272033 -1.92896e-19)
(0.964905 0.271798 3.53465e-19)
(0.964811 0.271564 -1.71338e-19)
(0.964718 0.271327 -9.54389e-20)
(0.964627 0.271086 -1.96538e-19)
(0.964537 0.270862 -8.56092e-20)
(0.964444 0.270681 2.30928e-19)
(0.964349 0.270544 -7.34321e-19)
(0.964257 0.270417 1.42862e-18)
(0.964173 0.270273 -9.70227e-20)
(0.964089 0.270123 7.94097e-19)
(0.963966 0.270003 -2.03995e-18)
(0.96381 0.269874 -6.41239e-19)
(0.96366 0.269749 3.57381e-21)
(0.963517 0.269629 -4.55488e-19)
(0.963377 0.269505 -5.24114e-20)
(0.963229 0.269361 -1.5889e-18)
(0.963059 0.269176 4.51077e-19)
(0.962849 0.26891 7.07227e-19)
(0.962567 0.268529 -4.12455e-18)
(0.962188 0.267977 5.02239e-18)
(0.96167 0.267205 7.53002e-19)
(0.960983 0.26619 -7.04993e-20)
(0.960101 0.2649 -5.21857e-18)
(0.959025 0.263317 2.27859e-18)
(0.957852 0.261373 -4.52538e-18)
(0.956719 0.258968 7.51049e-18)
(0.955857 0.255971 2.55832e-18)
(0.955583 0.252145 -5.00715e-18)
(0.955893 0.247407 2.33892e-18)
(0.958002 0.241483 -6.17615e-18)
(0.95923 0.235144 -1.0128e-18)
(0.961708 0.231955 -8.16661e-18)
(0.965751 0.231247 -2.31982e-18)
(0.96153 0.281804 -9.45866e-22)
(0.961155 0.281693 -3.70075e-21)
(0.960799 0.281618 -3.18609e-21)
(0.960482 0.281527 3.12384e-20)
(0.960221 0.281419 -1.75123e-20)
(0.960032 0.281292 -2.08881e-20)
(0.959927 0.281141 -7.71666e-21)
(0.959916 0.280962 -3.21724e-20)
(0.960004 0.280751 2.06793e-20)
(0.960189 0.280505 3.14104e-21)
(0.960463 0.280222 1.23019e-21)
(0.960812 0.279901 8.87863e-20)
(0.961218 0.279546 -6.36013e-20)
(0.96166 0.279158 -7.85782e-21)
(0.962115 0.278743 7.44263e-20)
(0.962563 0.278307 -4.16033e-20)
(0.962984 0.277858 -1.64372e-20)
(0.963362 0.277404 2.63823e-20)
(0.963689 0.27695 8.75777e-20)
(0.963957 0.276505 4.97971e-20)
(0.964166 0.276074 1.98452e-20)
(0.964319 0.27566 -1.27719e-19)
(0.964421 0.275264 6.7556e-20)
(0.964479 0.27489 1.32691e-19)
(0.964502 0.274536 -2.79949e-19)
(0.964495 0.274204 9.38975e-20)
(0.964466 0.273889 -3.78955e-19)
(0.96442 0.273592 3.17392e-19)
(0.964361 0.273301 2.92374e-19)
(0.964293 0.273009 -4.55644e-19)
(0.964218 0.272715 -2.30074e-19)
(0.964139 0.272439 3.1426e-19)
(0.964052 0.272207 1.0872e-19)
(0.963962 0.272018 -3.1377e-19)
(0.963875 0.271837 -4.13764e-19)
(0.963793 0.27164 -5.0754e-19)
(0.963712 0.271436 3.17945e-19)
(0.963594 0.271261 7.82017e-19)
(0.963444 0.271088 2.74118e-19)
(0.963309 0.270924 -2.46925e-19)
(0.963191 0.27078 2.63902e-18)
(0.963087 0.27065 -2.70945e-19)
(0.962987 0.270526 2.63923e-18)
(0.962877 0.270395 -4.57681e-18)
(0.962743 0.270225 6.59565e-19)
(0.962553 0.269985 1.50556e-19)
(0.962285 0.269623 -3.98773e-19)
(0.961897 0.269084 -2.99682e-18)
(0.961363 0.268326 -4.91609e-18)
(0.960659 0.267289 4.27733e-18)
(0.959785 0.265925 5.57046e-18)
(0.958838 0.264132 2.73082e-18)
(0.957952 0.26179 -6.56147e-18)
(0.957343 0.258777 3.42692e-18)
(0.957313 0.254909 9.2424e-18)
(0.957823 0.25015 2.33191e-18)
(0.960079 0.244363 6.00591e-18)
(0.961653 0.238296 2.501e-18)
(0.963532 0.235566 5.48489e-18)
(0.969399 0.235797 -2.65757e-18)
(0.961527 0.283506 1.24344e-21)
(0.961118 0.283414 -3.73726e-21)
(0.960707 0.283356 1.33695e-20)
(0.960311 0.283288 3.4214e-21)
(0.959946 0.283207 -1.85142e-20)
(0.959628 0.283114 -2.12527e-20)
(0.959373 0.283004 5.07543e-20)
(0.959194 0.282873 -5.55914e-20)
(0.959105 0.282716 -1.34948e-20)
(0.959111 0.282528 3.48372e-20)
(0.959214 0.282307 3.23201e-20)
(0.95941 0.282048 9.89056e-20)
(0.95969 0.28175 -5.64299e-20)
(0.960039 0.281413 -9.75673e-20)
(0.960439 0.281038 2.17717e-20)
(0.960869 0.280631 -8.14217e-20)
(0.961307 0.280195 6.20933e-20)
(0.961737 0.27974 -1.06431e-19)
(0.96214 0.27927 1.70242e-20)
(0.962505 0.278795 -3.69657e-20)
(0.962822 0.278321 -2.44361e-20)
(0.963089 0.277854 -1.03796e-19)
(0.963305 0.2774 7.66443e-21)
(0.963471 0.276963 2.3088e-19)
(0.963593 0.276543 -8.24023e-20)
(0.963675 0.276145 2.49346e-20)
(0.963724 0.275767 7.70221e-20)
(0.963744 0.27541 -1.07109e-19)
(0.963739 0.275062 -2.47559e-20)
(0.963716 0.274715 1.6197e-19)
(0.963677 0.274369 1.82992e-19)
(0.963625 0.274041 -1.39155e-19)
(0.963562 0.273757 -4.64885e-19)
(0.963491 0.273517 -6.89908e-19)
(0.96342 0.273284 1.08021e-18)
(0.963351 0.273035 3.04708e-19)
(0.963279 0.272783 1.96528e-19)
(0.963171 0.272558 1.02303e-18)
(0.963031 0.272344 -9.24582e-19)
(0.962907 0.272145 5.69477e-19)
(0.962805 0.271973 1.36208e-20)
(0.962721 0.271829 3.85243e-20)
(0.962646 0.271708 -9.54662e-19)
(0.962569 0.2716 2.11308e-18)
(0.962475 0.271478 -2.65795e-18)
(0.96234 0.271315 1.49521e-18)
(0.962142 0.271058 -4.10743e-18)
(0.961849 0.270646 1.20597e-18)
(0.961437 0.270024 2.50134e-18)
(0.96089 0.269114 -4.07935e-18)
(0.960211 0.267844 -1.38088e-18)
(0.959493 0.266096 -6.52484e-19)
(0.958869 0.263736 -6.64914e-19)
(0.958536 0.260653 -2.77138e-18)
(0.958769 0.25671 2.98457e-19)
(0.959496 0.2519 1.25623e-18)
(0.961897 0.246186 -2.06454e-18)
(0.963804 0.240281 -6.13377e-19)
(0.965186 0.237711 -1.09959e-18)
(0.971688 0.238162 1.53436e-18)
(0.961598 0.284931 2.37515e-21)
(0.961183 0.284844 -2.02606e-21)
(0.960752 0.284795 1.84359e-21)
(0.960318 0.284741 1.18625e-20)
(0.959895 0.284678 1.72526e-20)
(0.959495 0.28461 -6.80887e-20)
(0.959134 0.284531 4.95619e-20)
(0.958828 0.284437 1.02853e-20)
(0.958592 0.284325 -3.25511e-21)
(0.958437 0.284189 -2.28207e-20)
(0.958374 0.284024 7.01665e-20)
(0.958405 0.283826 -2.31424e-20)
(0.95853 0.283591 -3.21989e-20)
(0.958743 0.283316 -9.71994e-20)
(0.959032 0.283001 1.96363e-19)
(0.959382 0.282645 -4.10418e-20)
(0.959773 0.282253 -3.46044e-20)
(0.960188 0.28183 -1.05514e-19)
(0.960607 0.281379 1.18003e-19)
(0.961014 0.280909 6.69002e-20)
(0.961395 0.280428 -3.13341e-20)
(0.961741 0.279941 5.46465e-20)
(0.962044 0.279456 -2.36642e-19)
(0.962302 0.278979 1.54358e-20)
(0.962516 0.278514 1.35321e-19)
(0.962686 0.278067 -2.59718e-20)
(0.962816 0.277637 -4.45178e-19)
(0.962909 0.277227 3.55429e-20)
(0.96297 0.276827 4.13032e-19)
(0.963003 0.27643 -1.15713e-19)
(0.963013 0.276033 -2.26144e-19)
(0.963004 0.275655 1.3989e-19)
(0.962977 0.275323 4.1529e-19)
(0.962938 0.275033 1.01242e-18)
(0.962893 0.27475 -1.58889e-19)
(0.962846 0.274454 2.35399e-19)
(0.96279 0.274155 -1.73514e-18)
(0.962698 0.273885 -5.04607e-19)
(0.962571 0.273632 3.19939e-19)
(0.962456 0.273397 -1.31026e-18)
(0.962361 0.273192 -2.7401e-19)
(0.962282 0.273022 5.91048e-19)
(0.962212 0.27288 4.78017e-19)
(0.96214 0.272761 1.24707e-18)
(0.962056 0.272637 3.8894e-18)
(0.961939 0.272482 -2.91274e-18)
(0.961774 0.272243 4.39454e-18)
(0.961538 0.271854 3.14115e-18)
(0.961214 0.271251 1.11322e-20)
(0.960795 0.270341 3.59752e-18)
(0.960289 0.269043 -4.75641e-18)
(0.959786 0.267228 -5.42383e-18)
(0.959417 0.264761 4.02456e-18)
(0.959359 0.261544 3.27423e-18)
(0.95986 0.25748 -1.15154e-18)
(0.960815 0.252585 -7.08181e-18)
(0.96337 0.246892 1.7206e-18)
(0.965601 0.24108 -1.14594e-18)
(0.966605 0.238484 -1.48443e-18)
(0.972937 0.238805 5.00401e-19)
(0.961692 0.286151 -2.62743e-21)
(0.961287 0.286072 2.90014e-21)
(0.960859 0.286029 1.97512e-20)
(0.960416 0.285981 -2.59898e-20)
(0.959967 0.285929 4.73521e-20)
(0.959524 0.285874 -7.00709e-20)
(0.959099 0.285813 2.002e-20)
(0.958707 0.285744 -9.19863e-22)
(0.958363 0.285662 4.47957e-20)
(0.958082 0.285565 -2.39052e-20)
(0.957876 0.285445 7.13548e-21)
(0.957755 0.2853 7.27164e-21)
(0.957726 0.285122 -1.15691e-19)
(0.95779 0.284909 3.50074e-20)
(0.957942 0.284657 8.17168e-20)
(0.958174 0.284363 2.57519e-21)
(0.958472 0.284029 -1.39775e-19)
(0.958821 0.283657 5.80185e-20)
(0.959203 0.283249 2.73702e-19)
(0.959601 0.282811 -1.80672e-19)
(0.959998 0.28235 -1.40438e-19)
(0.96038 0.281872 1.19862e-19)
(0.960737 0.281384 8.01838e-20)
(0.96106 0.280893 9.0359e-20)
(0.961346 0.280404 -1.75756e-19)
(0.961591 0.279927 -3.91653e-19)
(0.961796 0.279461 2.95431e-19)
(0.96196 0.279012 4.37078e-19)
(0.962088 0.27857 1.32153e-19)
(0.962182 0.27813 -2.50178e-19)
(0.962248 0.277689 1.18982e-19)
(0.962289 0.277267 2.11078e-19)
(0.962307 0.276889 -3.55105e-19)
(0.962308 0.276552 -4.78068e-20)
(0.962299 0.276223 -6.78726e-19)
(0.96228 0.275882 -1.88473e-19)
(0.962248 0.27554 -1.94156e-19)
(0.962177 0.275228 5.03352e-19)
(0.962066 0.274937 -7.04022e-19)
(0.961957 0.274663 1.98455e-19)
(0.961862 0.274418 3.28169e-19)
(0.961778 0.274206 8.3072e-20)
(0.961697 0.274021 -1.90971e-18)
(0.961611 0.273856 -2.56147e-18)
(0.961514 0.273683 -2.13055e-18)
(0.961389 0.273475 4.05088e-18)
(0.961229 0.273179 9.4712e-20)
(0.961021 0.272722 -1.45299e-18)
(0.960755 0.272037 7.15285e-19)
(0.960436 0.271024 -4.16677e-18)
(0.960078 0.269596 1.91306e-18)
(0.959769 0.267624 4.95681e-18)
(0.959636 0.264979 -4.11944e-19)
(0.959841 0.261575 -3.77433e-18)
(0.960601 0.257356 1.73781e-18)
(0.961787 0.252355 1.52814e-18)
(0.964505 0.246655 1.51704e-18)
(0.967047 0.240912 2.86681e-18)
(0.967783 0.238204 1.58569e-18)
(0.973497 0.238289 -1.10973e-18)
(0.961784 0.287211 -2.29247e-21)
(0.961397 0.287134 3.33085e-21)
(0.960981 0.287093 6.94041e-22)
(0.960545 0.28705 1.27732e-20)
(0.960094 0.287003 -1.95367e-20)
(0.959635 0.286956 -4.01829e-20)
(0.959178 0.286907 1.45964e-20)
(0.958736 0.286853 -1.93086e-20)
(0.958322 0.286792 4.25845e-20)
(0.95795 0.28672 -8.58987e-21)
(0.957636 0.286634 -2.85532e-20)
(0.95739 0.286527 2.38708e-20)
(0.957225 0.286397 3.90267e-20)
(0.957147 0.286236 1.08849e-19)
(0.95716 0.286041 -1.99775e-19)
(0.95726 0.285808 1.02947e-19)
(0.95744 0.285535 1.55403e-20)
(0.95769 0.285223 -1.03658e-19)
(0.957996 0.284871 -6.56378e-20)
(0.958342 0.284482 2.17798e-19)
(0.958712 0.284062 -2.31467e-19)
(0.959091 0.283615 6.97661e-20)
(0.959465 0.283146 -1.92089e-19)
(0.959821 0.282666 3.26934e-19)
(0.960153 0.282176 -6.75476e-20)
(0.960452 0.281688 -1.93693e-19)
(0.960716 0.281205 1.56677e-19)
(0.960942 0.280732 3.00459e-19)
(0.96113 0.280261 -2.86619e-19)
(0.961284 0.279788 1.78128e-19)
(0.961406 0.279312 -6.27432e-19)
(0.9615 0.278852 -7.26113e-20)
(0.961568 0.278435 2.7855e-19)
(0.961614 0.278056 -1.69783e-19)
(0.961644 0.277684 -3.62178e-19)
(0.96166 0.277302 -8.77633e-19)
(0.961657 0.27692 1.13626e-18)
(0.961611 0.276568 -4.67089e-19)
(0.961517 0.276238 3.48599e-19)
(0.961413 0.275921 7.14732e-19)
(0.961315 0.275627 5.67465e-19)
(0.961218 0.275359 -3.26944e-19)
(0.961117 0.275109 1.11486e-18)
(0.961006 0.274869 2.02307e-18)
(0.960882 0.274608 -2.04758e-19)
(0.960734 0.274298 -2.46708e-18)
(0.960563 0.273884 -3.08694e-18)
(0.960363 0.273292 -2.04334e-19)
(0.960136 0.272451 2.06261e-18)
(0.959897 0.271258 -3.92541e-19)
(0.959665 0.269629 3.24979e-18)
(0.959528 0.267439 -4.68995e-18)
(0.95961 0.264569 -2.33597e-18)
(0.960058 0.260949 -7.6208e-19)
(0.961061 0.25656 -1.59142e-18)
(0.96247 0.25145 9.03798e-19)
(0.965353 0.24574 -1.1206e-18)
(0.96818 0.240072 -3.2469e-18)
(0.968738 0.237239 -2.08283e-18)
(0.973652 0.237117 4.23059e-19)
(0.961866 0.288149 -3.55888e-21)
(0.961498 0.288077 2.89001e-21)
(0.9611 0.288037 2.29396e-21)
(0.960679 0.287994 -1.64504e-20)
(0.960238 0.287947 1.71193e-20)
(0.959781 0.287902 -8.47936e-21)
(0.959315 0.287856 2.78014e-20)
(0.958849 0.287809 -4.16646e-20)
(0.958396 0.287758 2.44368e-21)
(0.957966 0.287702 3.374e-21)
(0.957575 0.287637 -3.15356e-20)