/*--------------------------------*- C++ -*----------------------------------*\
  =========                 |
  \\      /  F ield         | OpenFOAM: The Open Source CFD Toolbox
   \\    /   O peration     | Website:  https://openfoam.org
    \\  /    A nd           | Version:  6.0
     \\/     M anipulation  |
\*---------------------------------------------------------------------------*/
FoamFile
{
    version     2.0;
    format      ascii;
    class       volScalarField;
    location    "9";
    object      p;
}
// * * * * * * * * * * * * * * * * * * * * * * * * * * * * * * * * * * * * * //

dimensions      [0 2 -2 0 0 0 0];

internalField   nonuniform List<scalar> 
62000
(
0.0101265
0.0101655
0.0102046
0.0102427
0.0102803
0.0103167
0.0103527
0.0103876
0.0104224
0.0104564
0.0104903
0.0105235
0.0105567
0.0105894
0.0106222
0.0106548
0.0106875
0.0107203
0.0107531
0.0107862
0.0108194
0.0108531
0.0108867
0.0109206
0.0109542
0.0109873
0.011019
0.0110481
0.0110719
0.0110885
0.0110931
0.011083
0.0110535
0.0109992
0.0109159
0.0107959
0.0106298
0.0104076
0.0101212
0.00976606
0.00934184
0.00885317
0.0083099
0.00772579
0.00711492
0.00648866
0.00584776
0.00518012
0.00446246
0.00365567
0.00274392
0.00169951
0.000597591
-0.000540872
-0.00159462
-0.00247479
-0.00307767
-0.00321649
-0.00333436
-0.00345174
0.0100245
0.0100655
0.0101081
0.0101511
0.0101945
0.0102363
0.0102769
0.0103152
0.0103524
0.010388
0.010423
0.010457
0.0104904
0.0105232
0.0105555
0.0105876
0.0106194
0.0106515
0.0106834
0.010716
0.0107486
0.010782
0.0108156
0.0108499
0.0108843
0.0109189
0.0109525
0.0109843
0.011012
0.0110331
0.0110439
0.0110403
0.0110182
0.0109732
0.0109005
0.0107925
0.0106382
0.0104265
0.010149
0.00980041
0.00937984
0.00889158
0.00834579
0.00775744
0.00714307
0.00651737
0.00588445
0.00523407
0.00454108
0.00375839
0.00285814
0.00179041
0.000624332
-0.000638359
-0.00186516
-0.00294871
-0.00375159
-0.00399854
-0.00440537
-0.00432711
0.00983489
0.00987316
0.00991409
0.00995779
0.0100038
0.0100493
0.0100932
0.0101339
0.0101722
0.0102077
0.0102416
0.0102737
0.0103047
0.0103344
0.0103631
0.0103909
0.0104179
0.0104443
0.0104699
0.0104953
0.0105201
0.0105448
0.010569
0.0105931
0.0106165
0.0106392
0.0106603
0.0106787
0.0106922
0.0106984
0.0106933
0.0106732
0.0106329
0.0105686
0.0104755
0.0103449
0.0101647
0.00992229
0.00960828
0.00921663
0.00874559
0.00819911
0.00758812
0.00693022
0.00624724
0.00556229
0.00489118
0.00423704
0.00358821
0.00290665
0.0021678
0.00131118
0.000387588
-0.000633902
-0.00165051
-0.00259777
-0.00339007
-0.00381888
-0.00475073
-0.00548053
0.00962534
0.00966068
0.0096995
0.00974296
0.00979099
0.00984054
0.00988965
0.0099354
0.00997775
0.0100162
0.010052
0.0100851
0.0101164
0.010146
0.0101741
0.0102011
0.0102267
0.0102517
0.0102756
0.0102993
0.0103221
0.0103449
0.0103672
0.0103893
0.0104111
0.0104324
0.0104524
0.0104703
0.0104841
0.0104911
0.0104884
0.0104712
0.010435
0.0103756
0.0102878
0.0101622
0.00998493
0.00974201
0.00942195
0.00901664
0.00852177
0.00793865
0.00727615
0.00655104
0.00578682
0.00501153
0.00424992
0.00351779
0.00281782
0.00212606
0.0014265
0.000657367
-0.000143344
-0.00103522
-0.00195402
-0.00288141
-0.00378449
-0.00451707
-0.0059591
-0.00728197
0.00934763
0.00938018
0.00941683
0.00945917
0.00950844
0.00956208
0.00961755
0.0096706
0.00972008
0.00976489
0.00980628
0.00984437
0.00988035
0.00991415
0.00994655
0.00997748
0.0100074
0.0100365
0.0100651
0.0100935
0.0101218
0.0101506
0.0101798
0.01021
0.0102411
0.0102734
0.0103062
0.0103391
0.0103703
0.0103978
0.0104184
0.0104288
0.0104236
0.0103992
0.0103499
0.0102652
0.0101306
0.00992994
0.00964953
0.00927815
0.00880748
0.00823397
0.0075612
0.00680102
0.00597335
0.00510515
0.00422375
0.00335167
0.0025021
0.00166358
0.000832125
-4.79587e-05
-0.000941555
-0.00192358
-0.00294713
-0.00401787
-0.00511715
-0.00610362
-0.007813
-0.00923775
0.00897024
0.00899928
0.00903158
0.00906921
0.00911511
0.00916817
0.00922598
0.00928332
0.00933792
0.0093878
0.00943394
0.00947653
0.00951673
0.00955491
0.00959149
0.00962699
0.00966142
0.00969553
0.00972921
0.00976338
0.00979793
0.00983381
0.00987111
0.00991056
0.00995246
0.00999718
0.0100448
0.0100948
0.0101463
0.0101972
0.0102459
0.0102882
0.0103208
0.010339
0.0103377
0.0103059
0.0102281
0.0100871
0.00986708
0.00955386
0.00913508
0.00860176
0.00795095
0.00718743
0.0063244
0.00538354
0.00438972
0.00336716
0.00233463
0.00129136
0.000244748
-0.000848762
-0.00194749
-0.00312678
-0.00434525
-0.0056091
-0.00688855
-0.00802051
-0.00979927
-0.0111377
0.00847267
0.00849951
0.00852756
0.00855903
0.00859859
0.00864698
0.00870237
0.00875933
0.00881444
0.00886513
0.00891183
0.00895481
0.00899539
0.00903388
0.00907113
0.0091072
0.00914261
0.00917753
0.00921239
0.00924768
0.00928377
0.0093214
0.00936105
0.00940349
0.00944931
0.00949911
0.00955322
0.00961171
0.00967367
0.00973825
0.00980332
0.00986704
0.00992492
0.00997405
0.0100089
0.0100187
0.00998788
0.00989856
0.00973375
0.00947727
0.0091136
0.00862915
0.00801492
0.00726871
0.00639635
0.00541269
0.0043377
0.00319387
0.00200248
0.000769798
-0.000485924
-0.00179614
-0.0031089
-0.00449492
-0.00590575
-0.00734068
-0.00874875
-0.00994956
-0.0117227
-0.0129568
0.00788521
0.00790966
0.00793267
0.00795635
0.00798643
0.0080255
0.00807308
0.00812385
0.00817385
0.00821975
0.00826151
0.00829932
0.00833434
0.0083674
0.0083989
0.0084296
0.00845933
0.00848897
0.00851823
0.00854813
0.00857858
0.00861059
0.0086445
0.00868118
0.00872134
0.00876568
0.00881481
0.00886896
0.00892781
0.00899042
0.00905615
0.00912241
0.00918717
0.00924662
0.00929662
0.00932664
0.00932128
0.009263
0.0091345
0.00891878
0.00859848
0.00815686
0.00758039
0.00686103
0.00599798
0.00499932
0.00387917
0.00265676
0.00135292
-2.10723e-05
-0.00143985
-0.00292284
-0.00440821
-0.00595729
-0.00751703
-0.00907616
-0.0105667
-0.0118042
-0.0135664
-0.0147227
0.00720444
0.00722707
0.00724633
0.00726349
0.00728484
0.00731412
0.00735216
0.00739406
0.00743571
0.00747322
0.00750626
0.00753469
0.00756008
0.00758288
0.00760427
0.00762429
0.00764356
0.00766209
0.00768029
0.00769841
0.00771688
0.0077362
0.007757
0.00777991
0.00780574
0.00783519
0.00786893
0.00790742
0.00795029
0.00799749
0.00804782
0.00810086
0.00815337
0.00820386
0.00824787
0.00827597
0.00827347
0.00822351
0.00810931
0.00791394
0.00761944
0.00720741
0.00666135
0.00596908
0.00512458
0.00413015
0.00299449
0.00173276
0.000364266
-0.00109775
-0.00262248
-0.00422112
-0.00582377
-0.00748533
-0.00914597
-0.0107885
-0.0123314
-0.0135969
-0.0153637
-0.0164687
0.00645993
0.00647836
0.00649208
0.00650182
0.00651336
0.00653137
0.00655788
0.00658857
0.00661941
0.00664608
0.00666789
0.00668456
0.00669733
0.00670718
0.00671479
0.006721
0.00672571
0.00672967
0.00673254
0.00673507
0.00673708
0.00673927
0.00674195
0.00674572
0.00675133
0.00675933
0.00677053
0.00678523
0.00680353
0.00682496
0.00684964
0.00687604
0.00690355
0.00692948
0.00695129
0.00695993
0.00694172
0.00688089
0.00676164
0.00656788
0.006282
0.00588514
0.0053593
0.00468962
0.00386632
0.0028871
0.00175582
0.00048377
-0.000912576
-0.00241898
-0.00400273
-0.0056682
-0.00734059
-0.00906807
-0.01079
-0.0124844
-0.0140625
-0.0153583
-0.0171447
-0.0182171
0.00562893
0.00564252
0.00565149
0.00565553
0.00565961
0.00566875
0.00568544
0.00570624
0.00572688
0.00574321
0.00575401
0.00575895
0.00575926
0.00575568
0.00574943
0.00574075
0.00573027
0.00571795
0.00570411
0.00568877
0.00567222
0.00565466
0.00563656
0.00561825
0.00560043
0.00558354
0.00556827
0.00555499
0.00554353
0.0055341
0.00552597
0.00551963
0.0055128
0.00550536
0.00549421
0.00547169
0.00542509
0.00533979
0.00520128
0.00499462
0.00470316
0.00430838
0.00379187
0.00313738
0.00233268
0.00137214
0.000255805
-0.00100872
-0.00240764
-0.00392758
-0.00553474
-0.00723032
-0.00893638
-0.0106986
-0.0124546
-0.0141826
-0.0157874
-0.0171165
-0.0189328
-0.0199844
0.00473641
0.00474311
0.00474555
0.00474291
0.00473891
0.00473883
0.00474575
0.00475661
0.00476738
0.00477367
0.00477398
0.00476781
0.00475596
0.00473961
0.00471931
0.00469618
0.00467001
0.0046417
0.00461067
0.00457757
0.00454207
0.00450457
0.00446521
0.00442428
0.00438234
0.00433965
0.00429689
0.00425421
0.00421173
0.00416905
0.0041266
0.00408336
0.0040397
0.00399378
0.00394457
0.00388468
0.00380248
0.0036846
0.00351783
0.00328862
0.0029816
0.00257917
0.00206319
0.00141689
0.0006266
-0.000315724
-0.00141312
-0.00266098
-0.00404869
-0.00556374
-0.00717352
-0.00887666
-0.0105949
-0.0123706
-0.0141445
-0.0158949
-0.0175233
-0.0188894
-0.0207414
-0.0217792
0.00375952
0.00375987
0.00375717
0.00374949
0.00373992
0.00373321
0.00373278
0.00373577
0.00373833
0.00373596
0.00372719
0.00371111
0.00368885
0.00366087
0.00362856
0.00359204
0.00355215
0.00350868
0.00346199
0.00341183
0.00335848
0.00330176
0.00324206
0.00317935
0.00311416
0.0030466
0.0029772
0.00290611
0.00283308
0.00275829
0.0026811
0.00260243
0.00252047
0.00243611
0.00234728
0.00224799
0.00212743
0.00197335
0.0017738
0.00151658
0.00118766
0.000770609
0.000247996
-0.00039684
-0.00117826
-0.00210584
-0.00318487
-0.00441342
-0.00578345
-0.00728428
-0.00888447
-0.0105824
-0.0122999
-0.0140793
-0.0158629
-0.017632
-0.0192834
-0.0206881
-0.0225788
-0.0236079
0.00272767
0.00271967
0.0027094
0.00269479
0.00267783
0.00266323
0.00265462
0.00264929
0.0026436
0.00263287
0.00261551
0.00259048
0.00255848
0.00252037
0.00247678
0.00242869
0.002376
0.00231945
0.00225848
0.00219347
0.00212406
0.0020503
0.00197223
0.00188981
0.00180342
0.00171302
0.00161914
0.00152165
0.00142059
0.00131542
0.00120663
0.00109329
0.000976337
0.000854394
0.000727533
0.000589716
0.000431037
0.000240304
6.7244e-06
-0.000280654
-0.000634465
-0.00106992
-0.00160354
-0.00225154
-0.0030285
-0.00394505
-0.00500826
-0.00621824
-0.00756967
-0.0090533
-0.01064
-0.0123279
-0.0140406
-0.015819
-0.0176098
-0.0193964
-0.0210723
-0.0225176
-0.0244492
-0.0254731
0.00160814
0.00159288
0.00157673
0.00155698
0.0015349
0.00151497
0.00150047
0.00148912
0.00147693
0.00145965
0.0014353
0.00140294
0.00136322
0.0013166
0.00126421
0.0012062
0.00114328
0.00107523
0.00100227
0.000923996
0.000840594
0.000751584
0.000657247
0.000557277
0.000451999
0.000341272
0.000225472
0.000104484
-2.2048e-05
-0.000154077
-0.000292332
-0.000435777
-0.000586012
-0.000741594
-0.000903925
-0.00107772
-0.00127232
-0.00149805
-0.00176471
-0.00208218
-0.00246183
-0.00291769
-0.00346532
-0.00412027
-0.00489702
-0.00580678
-0.00685786
-0.00805221
-0.00938661
-0.0108538
-0.0124264
-0.0141035
-0.01581
-0.0175877
-0.0193861
-0.021192
-0.0228941
-0.0243806
-0.0263544
-0.0273771
0.000430141
0.000406942
0.000383525
0.000357276
0.000328573
0.00030201
0.000280964
0.000263144
0.000244703
0.000221165
0.000190478
0.000151624
0.000104803
5.09351e-05
-9.74575e-06
-7.61423e-05
-0.000148576
-0.000226243
-0.000309907
-0.000399262
-0.0004948
-0.000596715
-0.000705079
-0.000820182
-0.000941829
-0.0010703
-0.00120521
-0.00134693
-0.00149553
-0.00165172
-0.00181506
-0.00198657
-0.00216499
-0.00235157
-0.00254549
-0.00275183
-0.00297924
-0.00323721
-0.00353472
-0.00388068
-0.00428535
-0.00476166
-0.00532423
-0.00598792
-0.00676696
-0.00767293
-0.00871518
-0.00989704
-0.0112175
-0.0126705
-0.0142314
-0.0158997
-0.0176029
-0.0193816
-0.0211901
-0.0230172
-0.0247482
-0.0262775
-0.0282955
-0.0293205
-0.000835055
-0.000864044
-0.000892088
-0.000922615
-0.00095519
-0.000985897
-0.00101127
-0.00103374
-0.00105709
-0.00108583
-0.00112188
-0.00116649
-0.00121906
-0.00127943
-0.00134649
-0.00142029
-0.00150008
-0.00158625
-0.0016786
-0.00177777
-0.00188356
-0.00199677
-0.00211718
-0.00224535
-0.00238112
-0.00252486
-0.00267632
-0.00283583
-0.00300386
-0.00318052
-0.00336665
-0.00356121
-0.0037658
-0.00397864
-0.00420076
-0.00443597
-0.00469261
-0.0049795
-0.00530495
-0.00567712
-0.00610528
-0.00660141
-0.00717929
-0.00785306
-0.00863658
-0.00954159
-0.0105782
-0.011751
-0.0130606
-0.0145029
-0.0160548
-0.017717
-0.0194188
-0.0212013
-0.0230223
-0.0248736
-0.0266356
-0.0282083
-0.0302723
-0.0313044
-0.00215322
-0.00218941
-0.00222438
-0.00226116
-0.00229999
-0.00233676
-0.002368
-0.0023962
-0.00242503
-0.0024592
-0.00250065
-0.00255064
-0.00260898
-0.00267497
-0.00274841
-0.00282837
-0.00291518
-0.00300821
-0.00310826
-0.00321526
-0.00332971
-0.00345214
-0.00358264
-0.00372178
-0.00386949
-0.00402626
-0.00419182
-0.00436673
-0.00455115
-0.00474597
-0.00495078
-0.00516678
-0.00539247
-0.00562918
-0.00587556
-0.00613603
-0.00641839
-0.00673083
-0.00708111
-0.00747674
-0.00792613
-0.00844045
-0.00903271
-0.00971641
-0.010505
-0.0114105
-0.0124435
-0.0136096
-0.0149113
-0.0163456
-0.0178914
-0.0195505
-0.0212547
-0.0230442
-0.0248809
-0.0267589
-0.0285545
-0.0301726
-0.0322854
-0.0333286
-0.00356084
-0.00360247
-0.00364193
-0.00368266
-0.0037251
-0.00376528
-0.00380018
-0.00383198
-0.00386487
-0.00390303
-0.00394878
-0.00400316
-0.0040659
-0.00413672
-0.00421477
-0.00430014
-0.00439217
-0.00449136
-0.0045976
-0.0047117
-0.0048335
-0.0049641
-0.00510329
-0.00525189
-0.00540987
-0.00557776
-0.00575544
-0.0059434
-0.0061422
-0.00635205
-0.00657393
-0.00680684
-0.00705237
-0.00730862
-0.00757636
-0.00785876
-0.00816346
-0.00849815
-0.00887017
-0.00928653
-0.00975492
-0.0102858
-0.0108916
-0.0115851
-0.0123795
-0.0132866
-0.0143178
-0.0154796
-0.0167759
-0.018205
-0.0197473
-0.0214059
-0.0231141
-0.0249129
-0.0267672
-0.0286743
-0.0305054
-0.03217
-0.0343339
-0.0353937
-0.00502598
-0.00507363
-0.00511901
-0.00516512
-0.00521298
-0.00525821
-0.0052978
-0.00533403
-0.00537102
-0.00541323
-0.00546298
-0.00552134
-0.00558841
-0.00566337
-0.0057463
-0.00583622
-0.00593361
-0.00603783
-0.00614984
-0.00626966
-0.00639785
-0.00653515
-0.00668172
-0.00683831
-0.00700499
-0.00718241
-0.0073704
-0.00756968
-0.00778045
-0.00800376
-0.00823924
-0.00848826
-0.00874915
-0.00902334
-0.00930913
-0.00961045
-0.00993449
-0.0102885
-0.0106793
-0.0111136
-0.0115985
-0.0121438
-0.0127613
-0.0134635
-0.014263
-0.0151719
-0.0162018
-0.0173602
-0.0186526
-0.020078
-0.0216187
-0.0232785
-0.024994
-0.0268045
-0.0286791
-0.0306174
-0.0324867
-0.0341999
-0.0364185
-0.0374992
-0.00657874
-0.00663002
-0.00667825
-0.00672718
-0.00677734
-0.00682499
-0.00686702
-0.00690594
-0.00694589
-0.00699135
-0.00704449
-0.00710654
-0.00717711
-0.00725611
-0.00734262
-0.00743692
-0.00753826
-0.00764731
-0.00776393
-0.00788916
-0.00802277
-0.00816617
-0.00831911
-0.00848265
-0.00865685
-0.00884241
-0.00903928
-0.0092481
-0.00946948
-0.00970375
-0.00995197
-0.0102132
-0.010489
-0.0107775
-0.0110791
-0.0113967
-0.0117374
-0.0121079
-0.0125149
-0.0129647
-0.0134639
-0.0140218
-0.0146498
-0.0153598
-0.0161642
-0.017075
-0.0181042
-0.0192604
-0.0205501
-0.0219736
-0.0235141
-0.0251768
-0.0268996
-0.0287225
-0.0306183
-0.0325896
-0.0344984
-0.0362619
-0.0385381
-0.0396455
-0.00818541
-0.00824205
-0.00829575
-0.00834962
-0.00840465
-0.00845679
-0.0085029
-0.00854569
-0.00858917
-0.00863813
-0.00869468
-0.00876009
-0.00883427
-0.00891659
-0.00900699
-0.0091047
-0.00921011
-0.00932275
-0.00944356
-0.00957281
-0.00971098
-0.00985913
-0.0100174
-0.0101867
-0.0103672
-0.0105597
-0.0107641
-0.0109812
-0.0112113
-0.0114556
-0.0117136
-0.011987
-0.0122738
-0.0125757
-0.0128906
-0.0132222
-0.013577
-0.0139617
-0.0143824
-0.0148454
-0.0153566
-0.0159248
-0.0165612
-0.0172773
-0.0180852
-0.0189968
-0.0200247
-0.0211784
-0.0224655
-0.0238871
-0.0254279
-0.0270937
-0.0288263
-0.0306636
-0.0325826
-0.0345885
-0.0365395
-0.0383558
-0.0406934
-0.0418316
-0.00988105
-0.00994128
-0.00999783
-0.0100542
-0.0101112
-0.0101651
-0.0102131
-0.0102576
-0.0103033
-0.0103544
-0.0104135
-0.0104815
-0.0105582
-0.0106434
-0.0107363
-0.0108372
-0.0109453
-0.0110615
-0.0111856
-0.0113189
-0.011461
-0.0116136
-0.0117765
-0.0119508
-0.0121368
-0.0123353
-0.0125462
-0.0127703
-0.0130082
-0.0132604
-0.013528
-0.0138101
-0.0141082
-0.0144204
-0.0147471
-0.0150906
-0.0154575
-0.0158541
-0.0162865
-0.0167605
-0.0172818
-0.0178587
-0.0185022
-0.0192232
-0.0200338
-0.0209458
-0.0219723
-0.0231235
-0.0244084
-0.0258289
-0.0273705
-0.0290402
-0.0307807
-0.0326315
-0.0345737
-0.0366155
-0.0386099
-0.040481
-0.0428834
-0.0440584
-0.0116347
-0.0116994
-0.0117604
-0.0118207
-0.0118818
-0.0119392
-0.0119901
-0.0120373
-0.0120852
-0.0121386
-0.0121998
-0.01227
-0.0123492
-0.0124366
-0.0125324
-0.0126357
-0.012747
-0.0128658
-0.0129931
-0.0131293
-0.0132747
-0.0134308
-0.0135975
-0.0137761
-0.0139667
-0.0141702
-0.0143867
-0.0146169
-0.0148612
-0.0151208
-0.0153954
-0.0156867
-0.0159926
-0.0163148
-0.0166512
-0.0170048
-0.0173821
-0.0177887
-0.0182308
-0.0187137
-0.0192428
-0.0198263
-0.0204746
-0.0211986
-0.0220099
-0.0229205
-0.0239439
-0.0250913
-0.0263729
-0.0277912
-0.029333
-0.0310057
-0.0327563
-0.0346222
-0.0365892
-0.0386684
-0.0407089
-0.0426377
-0.0451088
-0.0463243
-0.013474
-0.0135406
-0.013603
-0.0136648
-0.0137267
-0.013785
-0.0138368
-0.013885
-0.0139344
-0.0139894
-0.0140525
-0.0141248
-0.014206
-0.0142958
-0.0143935
-0.0144994
-0.0146126
-0.0147342
-0.0148638
-0.015003
-0.0151512
-0.0153106
-0.0154806
-0.0156628
-0.0158573
-0.0160651
-0.0162862
-0.0165215
-0.0167716
-0.0170369
-0.0173187
-0.017616
-0.0179306
-0.0182601
-0.0186051
-0.0189674
-0.0193533
-0.0197683
-0.0202183
-0.0207085
-0.0212438
-0.0218323
-0.022484
-0.0232096
-0.0240206
-0.0249288
-0.0259485
-0.0270915
-0.0283695
-0.0297855
-0.0313274
-0.0330033
-0.0347607
-0.0366397
-0.0386308
-0.0407481
-0.042836
-0.0448249
-0.0473686
-0.0486306
-0.0153713
-0.0154421
-0.0155087
-0.0155741
-0.0156394
-0.0157006
-0.0157547
-0.0158049
-0.0158559
-0.0159126
-0.0159772
-0.016051
-0.0161338
-0.016225
-0.0163246
-0.0164319
-0.0165471
-0.01667
-0.0168015
-0.0169423
-0.0170926
-0.017254
-0.0174265
-0.0176115
-0.0178091
-0.0180204
-0.0182454
-0.0184851
-0.0187397
-0.0190105
-0.0192972
-0.0196016
-0.0199215
-0.0202587
-0.0206106
-0.0209802
-0.0213734
-0.0217951
-0.0222512
-0.0227467
-0.0232862
-0.0238774
-0.0245301
-0.0252551
-0.0260632
-0.0269669
-0.0279804
-0.0291169
-0.0303893
-0.031801
-0.033342
-0.0350192
-0.0367855
-0.0386791
-0.0406958
-0.042853
-0.044991
-0.0470432
-0.0496631
-0.0509745
-0.0173565
-0.0174296
-0.0174977
-0.0175643
-0.0176302
-0.0176913
-0.0177456
-0.0177958
-0.0178472
-0.0179042
-0.0179695
-0.018044
-0.0181275
-0.0182199
-0.0183201
-0.0184287
-0.0185446
-0.0186692
-0.0188019
-0.0189445
-0.0190964
-0.0192599
-0.0194344
-0.0196218
-0.019822
-0.0200363
-0.0202645
-0.0205077
-0.0207665
-0.0210412
-0.0213334
-0.021642
-0.0219686
-0.0223108
-0.0226691
-0.0230448
-0.0234439
-0.023871
-0.0243317
-0.024831
-0.0253732
-0.0259656
-0.0266181
-0.0273409
-0.028145
-0.0290428
-0.0300491
-0.0311779
-0.0324436
-0.0338502
-0.0353897
-0.0370681
-0.0388393
-0.0407448
-0.0427861
-0.0449837
-0.0471731
-0.0492916
-0.0519917
-0.0533587
-0.0194036
-0.0194798
-0.0195512
-0.0196203
-0.0196886
-0.0197515
-0.0198067
-0.0198576
-0.0199091
-0.0199663
-0.0200316
-0.0201063
-0.0201902
-0.0202827
-0.0203836
-0.0204926
-0.0206095
-0.0207345
-0.0208682
-0.0210115
-0.0211644
-0.0213291
-0.0215051
-0.0216941
-0.0218963
-0.0221129
-0.0223438
-0.02259
-0.0228518
-0.0231307
-0.0234262
-0.0237403
-0.0240704
-0.0244187
-0.0247818
-0.0251625
-0.0255663
-0.0259973
-0.026461
-0.0269623
-0.027505
-0.0280964
-0.0287461
-0.0294641
-0.0302612
-0.0311504
-0.0321466
-0.0332652
-0.0345213
-0.0359205
-0.0374569
-0.0391345
-0.0409124
-0.0428314
-0.0448988
-0.0471388
-0.0493826
-0.0515706
-0.0543543
-0.0557792
-0.021532
-0.021609
-0.0216803
-0.0217494
-0.0218169
-0.0218791
-0.0219334
-0.0219835
-0.0220346
-0.0220917
-0.0221571
-0.0222322
-0.0223162
-0.0224094
-0.0225103
-0.0226201
-0.0227371
-0.022863
-0.022997
-0.0231413
-0.023295
-0.0234607
-0.0236378
-0.0238281
-0.0240319
-0.0242502
-0.0244832
-0.0247317
-0.0249966
-0.0252781
-0.0255779
-0.0258946
-0.0262303
-0.0265818
-0.0269495
-0.0273343
-0.0277415
-0.0281753
-0.0286406
-0.0291425
-0.0296845
-0.0302734
-0.0309189
-0.0316308
-0.0324196
-0.0332985
-0.0342831
-0.0353897
-0.0366348
-0.0380249
-0.0395572
-0.0412332
-0.0430138
-0.0449434
-0.0470357
-0.0493185
-0.0516182
-0.0538792
-0.056751
-0.0582397
-0.023722
-0.0238019
-0.0238761
-0.0239473
-0.0240165
-0.0240796
-0.0241342
-0.0241843
-0.0242347
-0.0242914
-0.0243561
-0.0244306
-0.0245141
-0.0246067
-0.0247074
-0.0248165
-0.0249333
-0.0250585
-0.0251924
-0.0253362
-0.0254898
-0.0256556
-0.025833
-0.026024
-0.0262287
-0.0264484
-0.0266829
-0.0269334
-0.0272003
-0.0274849
-0.0277869
-0.0281083
-0.0284459
-0.0288024
-0.0291732
-0.029561
-0.0299706
-0.0304057
-0.0308713
-0.031372
-0.0319111
-0.0324954
-0.033134
-0.0338368
-0.0346141
-0.0354798
-0.0364496
-0.0375411
-0.0387719
-0.0401507
-0.0416768
-0.0433492
-0.0451338
-0.0470755
-0.0491944
-0.0515221
-0.0538806
-0.0562175
-0.0591804
-0.0607345
-0.025996
-0.026077
-0.0261512
-0.0262218
-0.0262896
-0.0263509
-0.0264036
-0.0264516
-0.0265004
-0.0265555
-0.0266189
-0.0266923
-0.0267747
-0.0268665
-0.026966
-0.0270747
-0.0271905
-0.0273155
-0.0274487
-0.0275926
-0.0277459
-0.027912
-0.0280895
-0.028281
-0.0284863
-0.0287069
-0.0289427
-0.0291948
-0.0294638
-0.0297503
-0.0300557
-0.0303786
-0.0307211
-0.0310793
-0.0314534
-0.0318432
-0.0322543
-0.0326896
-0.0331542
-0.0336526
-0.0341878
-0.034766
-0.0353966
-0.0360887
-0.0368531
-0.0377037
-0.0386569
-0.0397312
-0.0409456
-0.0423105
-0.0438287
-0.0454961
-0.0472814
-0.0492324
-0.0513764
-0.0537493
-0.0561687
-0.0585853
-0.0616438
-0.0632691
-0.0283297
-0.0284125
-0.0284885
-0.02856
-0.0286285
-0.0286896
-0.0287412
-0.0287879
-0.0288348
-0.0288881
-0.0289496
-0.0290213
-0.0291022
-0.0291924
-0.0292909
-0.0293981
-0.0295132
-0.0296369
-0.0297693
-0.0299122
-0.0300649
-0.0302303
-0.0304075
-0.030599
-0.0308046
-0.0310258
-0.0312626
-0.0315161
-0.0317866
-0.0320756
-0.0323825
-0.0327095
-0.0330528
-0.033415
-0.0337906
-0.0341819
-0.0345933
-0.0350278
-0.0354902
-0.0359848
-0.036514
-0.037084
-0.0377036
-0.0383823
-0.0391305
-0.0399628
-0.0408958
-0.0419497
-0.0431442
-0.0444928
-0.0460007
-0.047661
-0.0494474
-0.051409
-0.05358
-0.0560003
-0.0584831
-0.060982
-0.0641388
-0.0658361
-0.0307419
-0.030824
-0.0308981
-0.0309678
-0.0310334
-0.0310917
-0.0311405
-0.0311845
-0.0312292
-0.0312807
-0.0313406
-0.0314111
-0.0314905
-0.0315798
-0.0316766
-0.031783
-0.0318964
-0.0320194
-0.0321504
-0.0322927
-0.0324443
-0.0326093
-0.032786
-0.0329773
-0.033183
-0.0334047
-0.0336424
-0.0338971
-0.0341695
-0.0344601
-0.03477
-0.035098
-0.0354455
-0.0358085
-0.0361859
-0.0365777
-0.0369886
-0.0374214
-0.0378807
-0.0383705
-0.0388927
-0.0394533
-0.0400609
-0.0407246
-0.0414549
-0.0422669
-0.0431778
-0.0442087
-0.0453808
-0.0467099
-0.0482049
-0.0498559
-0.0516407
-0.0536102
-0.0558065
-0.0582743
-0.0608225
-0.0634079
-0.0666676
-0.0684429
-0.0332128
-0.0332967
-0.0333726
-0.033443
-0.0335088
-0.0335665
-0.0336137
-0.033656
-0.0336982
-0.0337473
-0.0338046
-0.0338725
-0.0339494
-0.034036
-0.0341308
-0.0342345
-0.0343459
-0.0344664
-0.0345954
-0.0347355
-0.0348856
-0.0350491
-0.0352249
-0.0354156
-0.0356213
-0.0358434
-0.036082
-0.0363381
-0.0366122
-0.0369052
-0.0372167
-0.0375484
-0.0378964
-0.0382621
-0.0386401
-0.0390317
-0.0394416
-0.039872
-0.0403271
-0.0408107
-0.0413242
-0.0418731
-0.0424659
-0.0431116
-0.0438208
-0.0446091
-0.045494
-0.0464986
-0.0476445
-0.0489517
-0.0504309
-0.0520704
-0.0538531
-0.0558316
-0.0580547
-0.0605719
-0.0631878
-0.0658615
-0.0692261
-0.0710795
-0.0357735
-0.0358573
-0.0359316
-0.0359994
-0.0360618
-0.0361151
-0.036158
-0.0361954
-0.0362334
-0.0362782
-0.0363316
-0.0363957
-0.0364688
-0.0365522
-0.0366431
-0.0367442
-0.0368522
-0.0369706
-0.0370972
-0.0372358
-0.0373842
-0.0375469
-0.037722
-0.0379125
-0.0381186
-0.0383414
-0.0385814
-0.0388391
-0.0391155
-0.0394104
-0.0397252
-0.040058
-0.0404096
-0.0407756
-0.0411542
-0.0415453
-0.0419537
-0.042381
-0.0428313
-0.0433079
-0.0438117
-0.0443477
-0.0449245
-0.0455506
-0.046237
-0.0469994
-0.0478562
-0.0488316
-0.0499486
-0.05123
-0.0526901
-0.0543153
-0.0560932
-0.0580779
-0.0603259
-0.0628924
-0.0655779
-0.0683444
-0.0718182
-0.0737552
-0.0384094
-0.0384929
-0.0385664
-0.0386319
-0.0386915
-0.0387407
-0.0387781
-0.0388095
-0.0388407
-0.0388788
-0.0389254
-0.0389833
-0.0390507
-0.0391288
-0.0392155
-0.0393124
-0.0394173
-0.0395326
-0.0396568
-0.0397934
-0.0399404
-0.0401021
-0.0402769
-0.0404677
-0.0406745
-0.0408987
-0.0411405
-0.0414006
-0.0416793
-0.0419775
-0.0422941
-0.0426309
-0.0429829
-0.0433513
-0.0437299
-0.0441204
-0.044527
-0.0449508
-0.0453953
-0.0458635
-0.0463558
-0.0468768
-0.0474348
-0.0480383
-0.0486983
-0.0494314
-0.0502561
-0.0511986
-0.0522828
-0.0535358
-0.0549734
-0.0565819
-0.0583537
-0.0603453
-0.0626194
-0.0652367
-0.0679935
-0.070854
-0.0744381
-0.0764583
-0.0411832
-0.0412596
-0.04132
-0.04137
-0.0414105
-0.0414415
-0.0414609
-0.0414771
-0.0414948
-0.0415224
-0.04156
-0.0416117
-0.0416733
-0.041748
-0.0418308
-0.0419259
-0.0420284
-0.042143
-0.0422661
-0.0424029
-0.0425498
-0.0427124
-0.042888
-0.0430803
-0.0432889
-0.0435154
-0.0437598
-0.0440228
-0.044305
-0.0446061
-0.0449269
-0.0452651
-0.045621
-0.0459899
-0.0463693
-0.0467591
-0.0471635
-0.0475833
-0.0480214
-0.0484804
-0.0489602
-0.0494649
-0.0500027
-0.0505818
-0.0512136
-0.0519149
-0.0527052
-0.0536117
-0.0546601
-0.0558805
-0.0572919
-0.0588804
-0.0606431
-0.0626383
-0.0649362
-0.067604
-0.070434
-0.0733929
-0.0770911
-0.0791993
-0.0436159
-0.0437043
-0.0437842
-0.0438552
-0.0439203
-0.0439738
-0.0440159
-0.0440512
-0.0440869
-0.0441289
-0.0441797
-0.0442411
-0.0443119
-0.0443927
-0.0444815
-0.0445801
-0.0446863
-0.0448027
-0.044928
-0.0450661
-0.0452147
-0.0453789
-0.0455566
-0.0457513
-0.0459627
-0.0461924
-0.0464405
-0.0467074
-0.0469935
-0.0472991
-0.0476228
-0.047966
-0.0483232
-0.0486949
-0.0490746
-0.0494637
-0.049866
-0.0502811
-0.0507119
-0.0511603
-0.0516256
-0.0521117
-0.0526265
-0.0531781
-0.0537781
-0.0544438
-0.0551955
-0.0560623
-0.0570707
-0.0582554
-0.0596368
-0.0612027
-0.0629545
-0.0649535
-0.067276
-0.0699951
-0.0728991
-0.075957
-0.0797695
-0.0819652
-0.0465888
-0.0466625
-0.0467187
-0.0467636
-0.0467981
-0.046823
-0.0468364
-0.0468479
-0.0468621
-0.0468879
-0.0469246
-0.0469765
-0.0470389
-0.0471149
-0.0471992
-0.0472963
-0.047401
-0.0475182
-0.0476443
-0.0477846
-0.0479355
-0.0481028
-0.0482838
-0.0484821
-0.0486976
-0.0489316
-0.0491843
-0.0494561
-0.0497473
-0.0500573
-0.0503867
-0.0507325
-0.0510945
-0.0514674
-0.0518483
-0.0522367
-0.0526364
-0.0530464
-0.0534691
-0.053906
-0.0543558
-0.0548219
-0.055312
-0.0558342
-0.0564002
-0.0570277
-0.0577382
-0.0585618
-0.0595271
-0.0606717
-0.0620193
-0.0635587
-0.0652961
-0.067295
-0.0696396
-0.0724094
-0.0753893
-0.0785506
-0.0824805
-0.0847673
-0.049118
-0.049203
-0.0492793
-0.0493469
-0.0494081
-0.0494575
-0.0494954
-0.0495272
-0.0495604
-0.049601
-0.0496514
-0.0497132
-0.0497852
-0.0498675
-0.0499586
-0.0500599
-0.0501695
-0.0502898
-0.0504197
-0.050563
-0.0507176
-0.0508884
-0.0510735
-0.0512762
-0.0514965
-0.0517357
-0.0519938
-0.0522714
-0.052568
-0.0528842
-0.0532178
-0.0535699
-0.0539341
-0.0543108
-0.0546925
-0.0550803
-0.0554773
-0.0558817
-0.0562953
-0.0567192
-0.0571514
-0.0575951
-0.0580576
-0.0585471
-0.0590753
-0.0596608
-0.0603256
-0.0611019
-0.0620195
-0.0631205
-0.0644301
-0.0659402
-0.0676612
-0.0696598
-0.0720267
-0.0748475
-0.0779035
-0.081168
-0.0852147
-0.0875917
-0.0522414
-0.0523106
-0.0523609
-0.0523995
-0.0524268
-0.0524445
-0.0524509
-0.0524563
-0.0524657
-0.0524882
-0.052523
-0.0525743
-0.052637
-0.0527141
-0.0528004
-0.0529001
-0.0530083
-0.0531297
-0.053261
-0.0534072
-0.053565
-0.05374
-0.0539295
-0.0541371
-0.0543627
-0.0546076
-0.0548718
-0.0551554
-0.0554587
-0.0557806
-0.0561211
-0.056477
-0.0568474
-0.0572261
-0.0576096
-0.0579968
-0.0583907
-0.0587888
-0.0591925
-0.0596025
-0.0600159
-0.0604356
-0.0608688
-0.0613235
-0.0618116
-0.0623521
-0.0629683
-0.0636937
-0.0645603
-0.065613
-0.0668808
-0.0683574
-0.0700574
-0.0720515
-0.0744379
-0.0773091
-0.080443
-0.0838149
-0.0879808
-0.0904515
-0.0548695
-0.0549529
-0.0550269
-0.0550923
-0.0551506
-0.0551969
-0.0552315
-0.0552607
-0.055292
-0.0553319
-0.0553828
-0.0554457
-0.0555196
-0.055604
-0.055698
-0.0558024
-0.0559158
-0.0560402
-0.0561753
-0.0563243
-0.0564856
-0.0566639
-0.0568577
-0.0570698
-0.0573006
-0.0575512
-0.0578216
-0.0581118
-0.0584215
-0.0587505
-0.0590964
-0.0594598
-0.0598333
-0.0602168
-0.0606016
-0.0609881
-0.0613786
-0.0617699
-0.0621627
-0.0625572
-0.0629499
-0.0633431
-0.063744
-0.0641604
-0.0646045
-0.0650959
-0.0656588
-0.0663289
-0.0671395
-0.0681399
-0.0693612
-0.0708013
-0.0724783
-0.0744671
-0.0768728
-0.079794
-0.0830053
-0.0864841
-0.0907681
-0.0933317
-0.0580706
-0.058144
-0.0582029
-0.0582523
-0.0582922
-0.0583207
-0.0583369
-0.0583495
-0.058365
-0.0583914
-0.0584295
-0.0584823
-0.058546
-0.0586231
-0.0587094
-0.058809
-0.0589178
-0.0590401
-0.0591736
-0.0593229
-0.0594853
-0.059666
-0.0598629
-0.0600789
-0.0603145
-0.0605705
-0.0608468
-0.0611434
-0.0614601
-0.0617955
-0.062149
-0.0625168
-0.0628974
-0.0632833
-0.0636702
-0.064056
-0.0644428
-0.0648266
-0.0652077
-0.0655857
-0.0659564
-0.0663216
-0.0666884
-0.0670644
-0.0674619
-0.0679012
-0.0684076
-0.0690185
-0.0697695
-0.0707128
-0.0718837
-0.0732823
-0.0749311
-0.07691
-0.0793322
-0.0823028
-0.0855933
-0.0891825
-0.0935868
-0.0962467
-0.0612267
-0.0613007
-0.0613594
-0.0614083
-0.0614454
-0.0614701
-0.0614802
-0.0614862
-0.0614941
-0.061513
-0.0615442
-0.0615901
-0.061649
-0.0617207
-0.0618041
-0.0618997
-0.0620067
-0.0621263
-0.0622589
-0.062407
-0.0625696
-0.0627511
-0.06295
-0.0631689
-0.0634084
-0.0636691
-0.0639509
-0.0642537
-0.0645766
-0.0649193
-0.0652783
-0.0656541
-0.0660378
-0.0664289
-0.0668172
-0.0672021
-0.067585
-0.0679608
-0.0683292
-0.0686893
-0.069036
-0.0693708
-0.0697005
-0.0700325
-0.0703795
-0.0707623
-0.0712073
-0.071754
-0.07244
-0.0733215
-0.0744367
-0.0757911
-0.0774095
-0.0793774
-0.0818151
-0.0848345
-0.0882029
-0.0919016
-0.096425
-0.0991807
-0.0644589
-0.0645365
-0.064598
-0.0646474
-0.0646849
-0.064708
-0.0647165
-0.0647193
-0.0647235
-0.0647377
-0.0647632
-0.0648032
-0.0648547
-0.0649199
-0.0649956
-0.0650855
-0.0651863
-0.0653019
-0.065431
-0.0655773
-0.0657391
-0.0659209
-0.0661211