/*--------------------------------*- C++ -*----------------------------------*\
  =========                 |
  \\      /  F ield         | OpenFOAM: The Open Source CFD Toolbox
   \\    /   O peration     | Website:  https://openfoam.org
    \\  /    A nd           | Version:  6.0
     \\/     M anipulation  |
\*---------------------------------------------------------------------------*/
FoamFile
{
    version     2.0;
    format      ascii;
    class       volVectorField;
    location    "16";
    object      U;
}
// * * * * * * * * * * * * * * * * * * * * * * * * * * * * * * * * * * * * * //

dimensions      [0 1 -1 0 0 0 0];

internalField   nonuniform List<vector> 
4920
(
(0.996125 0.0879611 -8.84858e-20)
(0.996125 0.0879487 1.42694e-19)
(0.996125 0.0879313 -4.00715e-19)
(0.996126 0.0879081 5.63105e-19)
(0.996125 0.0878805 1.82515e-19)
(0.996123 0.0878417 -2.34291e-19)
(0.996114 0.0877991 5.66217e-19)
(0.996094 0.087745 -1.30406e-19)
(0.996052 0.0876634 2.80229e-19)
(0.995962 0.087535 1.82271e-18)
(0.995778 0.0873111 -2.72794e-18)
(0.995417 0.086837 3.39029e-18)
(0.994804 0.0857308 1.66014e-18)
(0.994062 0.0831613 7.17896e-19)
(0.9879 0.0748008 -7.8807e-18)
(0.995914 0.0897179 6.10355e-20)
(0.995902 0.0897108 -3.72017e-19)
(0.99589 0.0896838 1.82194e-19)
(0.995876 0.0896469 8.17913e-20)
(0.995859 0.0895935 3.89377e-19)
(0.995834 0.0895137 1.34372e-19)
(0.995793 0.0894085 -1.12383e-18)
(0.995722 0.0892649 3.01691e-20)
(0.995595 0.0890455 3.50025e-19)
(0.995363 0.0886922 -3.42775e-18)
(0.994945 0.0880741 4.59971e-18)
(0.994217 0.086853 -6.76586e-18)
(0.993108 0.0843858 6.16833e-19)
(0.992169 0.0794489 1.61643e-17)
(0.985007 0.0673547 2.44979e-17)
(0.995587 0.0914314 4.26574e-20)
(0.995569 0.0914278 -3.58355e-19)
(0.995544 0.0913898 1.19782e-19)
(0.995511 0.0913351 2.86322e-19)
(0.995467 0.0912533 -8.46488e-19)
(0.995407 0.0911312 2.19292e-19)
(0.995322 0.0909655 3.15467e-19)
(0.995193 0.0907332 -7.15782e-19)
(0.994997 0.0903766 9.45748e-19)
(0.994694 0.0898142 -1.00103e-18)
(0.994232 0.0888878 2.3278e-18)
(0.993561 0.0872126 -3.17311e-18)
(0.99272 0.0842783 -3.04891e-18)
(0.992739 0.0794108 -6.66508e-18)
(0.988372 0.0716319 -1.27312e-17)
(0.9951 0.0931186 1.40395e-20)
(0.995086 0.0930965 -1.17489e-19)
(0.995055 0.0930493 1.8143e-19)
(0.995007 0.0929801 -2.86519e-19)
(0.994937 0.0928745 1.09209e-19)
(0.994838 0.0927107 3.74797e-19)
(0.994698 0.092481 8.90009e-19)
(0.994498 0.0921493 -3.36211e-19)
(0.994221 0.0916448 4.54845e-19)
(0.993845 0.0908599 2.57349e-18)
(0.993346 0.0896189 -4.45225e-18)
(0.992752 0.0875048 2.22468e-18)
(0.9922 0.0841001 4.79648e-18)
(0.99312 0.0792636 -1.69284e-17)
(0.990998 0.0735016 -2.05813e-18)
(0.994421 0.0949162 1.17871e-19)
(0.994414 0.094867 -2.73211e-19)
(0.994384 0.0947848 -4.01517e-20)
(0.994326 0.0946815 -1.42697e-19)
(0.994235 0.0945346 2.55191e-21)
(0.9941 0.0943158 4.58901e-19)
(0.993903 0.0940108 -2.21287e-19)
(0.993623 0.0935721 -1.35618e-18)
(0.993249 0.0929107 7.0339e-20)
(0.992772 0.0918972 -2.16822e-18)
(0.99219 0.090341 4.90216e-20)
(0.991587 0.0877659 3.4627e-18)
(0.99117 0.0837319 -2.85503e-18)
(0.992647 0.0784012 4.57569e-18)
(0.992491 0.0727698 -7.35543e-18)
(0.993575 0.0967758 4.76647e-20)
(0.993569 0.0966707 1.39035e-19)
(0.993536 0.0965482 -4.46469e-19)
(0.993467 0.0964087 3.54969e-19)
(0.993353 0.0962209 2.35222e-19)
(0.99318 0.0959506 -4.92231e-19)
(0.992925 0.0955724 3.66368e-19)
(0.992559 0.095026 1.35759e-18)
(0.992079 0.0942111 4.0444e-19)
(0.99149 0.0929723 8.89929e-19)
(0.990813 0.0911092 4.30328e-18)
(0.990188 0.0881043 -1.18134e-18)
(0.989903 0.083465 -6.55568e-18)
(0.991821 0.0775422 -4.99201e-18)
(0.993725 0.0722396 -1.95774e-18)
(0.992567 0.0987579 -7.84297e-21)
(0.992547 0.0986227 1.42984e-19)
(0.992505 0.0984437 -2.24262e-19)
(0.99242 0.0982484 -1.08374e-19)
(0.992282 0.0979961 5.2967e-19)
(0.992071 0.0976536 -2.95589e-19)
(0.991757 0.0971871 2.43875e-19)
(0.991303 0.0965255 -2.13572e-18)
(0.990714 0.0955501 1.54352e-18)
(0.990011 0.0940822 4.7692e-20)
(0.989237 0.0919182 -3.74865e-18)
(0.988605 0.0885093 -5.10797e-19)
(0.988516 0.0833408 5.5794e-18)
(0.990896 0.076931 4.18266e-17)
(0.994689 0.0720719 1.47698e-17)
(0.991431 0.10071 -2.03359e-20)
(0.991381 0.100537 8.67057e-20)
(0.991316 0.100324 -2.08199e-19)
(0.991205 0.100092 5.40774e-19)
(0.991034 0.0997924 1.07922e-19)
(0.990781 0.0993901 -3.25546e-19)
(0.990406 0.0988418 -8.20782e-20)
(0.989861 0.0980637 6.56817e-19)
(0.989156 0.0969279 -5.9869e-19)
(0.988327 0.0952234 2.54972e-19)
(0.987438 0.0927385 5.49277e-18)
(0.98678 0.0889045 1.25869e-19)
(0.986904 0.0831879 1.47904e-17)
(0.989756 0.0762887 -5.55037e-17)
(0.995008 0.0713059 -1.20884e-17)
(0.990176 0.102718 5.24398e-20)
(0.990083 0.102543 -2.0767e-19)
(0.989982 0.102294 1.23539e-19)
(0.989834 0.102019 -1.10326e-19)
(0.989621 0.101663 -1.14953e-19)
(0.989316 0.101191 -1.31021e-19)
(0.988875 0.100553 6.77386e-19)
(0.988233 0.0996548 -4.75051e-19)
(0.987404 0.0983524 8.66784e-19)
(0.986426 0.096402 -2.73225e-18)
(0.985382 0.0935728 -5.46906e-19)
(0.984639 0.0892517 -4.61546e-18)
(0.984936 0.0828741 -1.10297e-17)
(0.98824 0.07536 3.12281e-18)
(0.994669 0.0696562 1.18631e-17)
(0.988792 0.10468 -4.51276e-20)
(0.988651 0.1045 3.38017e-20)
(0.988504 0.104245 -1.16356e-19)
(0.98831 0.103954 -8.71594e-20)
(0.988046 0.103565 5.63485e-20)
(0.98768 0.103039 -6.02485e-20)
(0.987165 0.102322 4.03524e-19)
(0.986421 0.101304 -4.25759e-19)
(0.985451 0.09984 1.21506e-19)
(0.9843 0.0976383 -2.22528e-19)
(0.983057 0.0944349 -1.31579e-19)
(0.982162 0.0895545 1.08948e-19)
(0.982583 0.0823627 -1.75044e-18)
(0.986331 0.0740562 1.60388e-17)
(0.993903 0.0673494 -1.0527e-18)
(0.987271 0.10674 -4.01375e-22)
(0.987086 0.106561 -1.55796e-20)
(0.986891 0.106288 -2.74438e-19)
(0.986644 0.105971 4.48106e-19)
(0.986318 0.105543 3.17957e-19)
(0.98588 0.104962 -5.41079e-19)
(0.98528 0.104167 1.91694e-19)
(0.984421 0.103034 -3.26671e-19)
(0.983296 0.101407 -2.79938e-20)
(0.981947 0.0989495 3.16118e-18)
(0.980463 0.0953512 -2.38134e-18)
(0.979363 0.0898454 -2.24011e-18)
(0.979879 0.0816993 1.42463e-18)
(0.9841 0.0724628 -1.46892e-17)
(0.993007 0.0648153 2.00005e-18)
(0.98559 0.108862 5.71719e-21)
(0.985373 0.108671 1.94881e-19)
(0.985133 0.108395 -8.99043e-20)
(0.984831 0.108062 -2.33426e-19)
(0.984437 0.107606 1.46925e-19)
(0.983915 0.106979 1.77841e-20)
(0.983216 0.106108 -2.14007e-19)
(0.982231 0.104861 -4.29918e-19)
(0.980933 0.103074 -3.94542e-19)
(0.979361 0.100353 -2.5211e-18)
(0.977608 0.096335 -4.21251e-18)
(0.976272 0.0901456 1.02418e-17)
(0.976887 0.0809202 -4.05713e-18)
(0.981657 0.0706521 3.89516e-17)
(0.992139 0.0622166 -1.52181e-17)
(0.983714 0.111183 3.03559e-20)
(0.983485 0.110973 3.10744e-20)
(0.98321 0.110674 1.25487e-19)
(0.982856 0.110309 1.06646e-19)
(0.982391 0.109811 -1.52159e-19)
(0.981778 0.109126 3.24559e-19)
(0.980967 0.108173 -2.70661e-19)
(0.97984 0.106809 -3.73292e-20)
(0.978351 0.104853 2.42824e-19)
(0.976537 0.101857 7.67098e-19)
(0.97449 0.0973937 3.55131e-18)
(0.972901 0.0904633 4.47379e-18)
(0.973644 0.0800553 1.53678e-17)
(0.979078 0.0687115 -3.24046e-17)
(0.991419 0.059677 2.28337e-17)
(0.981626 0.113627 -6.24503e-20)
(0.9814 0.113387 -1.41686e-20)
(0.981101 0.113083 1.67723e-19)
(0.9807 0.112698 -5.4243e-20)
(0.980164 0.112164 9.9118e-20)
(0.979453 0.111424 5.83297e-20)
(0.978517 0.110385 -4.19653e-19)
(0.977236 0.108895 1.66737e-19)
(0.975542 0.106758 -4.10855e-19)
(0.973461 0.103468 1.77082e-18)
(0.971101 0.0985245 -8.38589e-19)
(0.969251 0.0907844 -7.60631e-18)
(0.97018 0.0790819 -2.01116e-17)
(0.976418 0.0666222 1.02995e-17)
(0.990828 0.0570772 -3.5496e-18)
(0.979291 0.116372 3.01272e-20)
(0.979089 0.11608 3.33996e-20)
(0.97878 0.115731 -2.6019e-19)
(0.978341 0.115297 5.15213e-19)
(0.977735 0.114708 -1.70576e-19)
(0.976921 0.1139 1.31371e-19)
(0.975849 0.11276 -1.14067e-19)
(0.974405 0.11113 -4.41669e-19)
(0.972481 0.108795 1.83372e-18)
(0.970112 0.105185 -1.89128e-18)
(0.967412 0.0997117 1.72218e-18)
(0.965298 0.091083 -2.39788e-18)
(0.96648 0.0779707 1.18273e-17)
(0.973684 0.0643801 -9.90997e-18)
(0.990386 0.0544578 -8.52704e-18)
(0.976652 0.119296 1.6775e-20)
(0.976488 0.118984 1.27473e-19)
(0.976184 0.118615 -2.14216e-19)
(0.97572 0.118135 1.03571e-19)
(0.975055 0.117474 -1.58864e-19)
(0.974144 0.116577 2.31605e-20)
(0.972938 0.115308 8.03043e-19)
(0.97131 0.11352 -1.33802e-18)
(0.96914 0.110969 -2.96331e-20)
(0.966455 0.107002 2.02618e-18)
(0.963389 0.100941 -5.46544e-18)
(0.96102 0.0913198 1.24522e-18)
(0.962548 0.0766578 -3.32743e-19)
(0.970897 0.0618989 2.41736e-17)
(0.990022 0.0516275 -9.59074e-18)
(0.973674 0.122534 8.72792e-21)
(0.973566 0.122135 -4.7563e-22)
(0.973284 0.1217 -6.79406e-20)
(0.972809 0.121156 2.55368e-19)
(0.972093 0.12042 -1.94192e-19)
(0.97109 0.119423 9.62523e-20)
(0.96974 0.118022 1.60375e-19)
(0.967918 0.116067 -4.69397e-19)
(0.965478 0.113268 5.4698e-19)
(0.962444 0.108903 -3.59615e-18)
(0.95899 0.102178 3.99255e-18)
(0.956373 0.091444 1.57585e-18)
(0.958359 0.0750969 -2.27352e-18)
(0.968039 0.0591466 -9.46999e-18)
(0.989742 0.0486032 2.41878e-17)
(0.97027 0.125957 6.98527e-20)
(0.970223 0.125542 -1.52914e-19)
(0.969979 0.125065 1.33912e-19)
(0.96951 0.12445 7.05355e-20)
(0.968762 0.123608 -2.38931e-19)
(0.96768 0.122484 1.95896e-19)
(0.966199 0.120914 -2.15045e-19)
(0.964176 0.118751 1.75864e-19)
(0.961447 0.115685 2.8811e-18)
(0.958045 0.110872 -1.69813e-18)
(0.954181 0.103399 -9.61137e-19)
(0.951339 0.0914074 -9.76231e-19)
(0.953933 0.073222 -7.80093e-19)
(0.965146 0.0560534 -1.15145e-17)
(0.989518 0.0452364 -1.3089e-17)
(0.966449 0.129527 7.42586e-21)
(0.966459 0.129025 5.41215e-20)
(0.966253 0.128486 -1.91068e-19)
(0.965798 0.127804 4.12857e-19)
(0.965028 0.126878 -1.4967e-19)
(0.963881 0.125633 2.2751e-19)
(0.962274 0.123905 1.37623e-19)
(0.960052 0.121546 5.33179e-19)
(0.957025 0.118182 -9.49144e-19)
(0.953229 0.112876 2.02582e-18)
(0.948926 0.104558 5.66013e-18)
(0.945883 0.0911433 6.3769e-18)
(0.949257 0.0709843 -1.14497e-17)
(0.962208 0.0526021 2.37275e-17)
(0.989372 0.0416472 -2.30227e-18)
(0.962266 0.133104 -5.80148e-20)
(0.962311 0.132601 5.34734e-20)
(0.962131 0.13203 -5.83602e-20)
(0.961685 0.131286 -1.19028e-19)
(0.960897 0.130257 2.47911e-19)
(0.959688 0.128892 -6.55568e-19)
(0.957962 0.126992 -3.43635e-19)
(0.955533 0.124405 1.81344e-19)
(0.952193 0.120745 8.95744e-20)
(0.947974 0.114906 1.00962e-18)
(0.943211 0.105644 -9.5069e-18)
(0.940009 0.0906036 -3.32325e-18)
(0.944388 0.068333 8.29737e-18)
(0.959287 0.0487401 -1.69022e-17)
(0.989313 0.0376784 -3.80972e-18)
(0.957793 0.136877 4.99387e-20)
(0.957877 0.136206 -1.85008e-20)
(0.957713 0.135541 -1.92964e-19)
(0.957259 0.134728 1.68541e-19)
(0.956431 0.133632 4.42821e-19)
(0.955141 0.132158 -2.13319e-19)
(0.953267 0.130113 -5.28354e-20)
(0.950623 0.127327 -9.19565e-19)
(0.946947 0.123341 -8.36753e-19)
(0.94227 0.116923 4.35851e-19)
(0.937007 0.106596 7.62788e-18)
(0.933695 0.0897071 -5.60932e-19)
(0.939345 0.0652376 8.26554e-19)
(0.956371 0.0444532 7.85057e-18)
(0.989369 0.0334572 2.26683e-18)
(0.952948 0.140815 -5.65065e-21)
(0.953073 0.140149 3.61134e-20)
(0.952925 0.139403 -2.14301e-19)
(0.952459 0.138471 -1.43308e-19)
(0.951586 0.137217 -5.16462e-20)
(0.950201 0.135584 3.82855e-19)
(0.948182 0.133327 1.49299e-19)
(0.945304 0.130269 1.39109e-18)
(0.941269 0.125967 1.7549e-18)
(0.936096 0.118931 -6.62223e-19)
(0.9303 0.107409 -5.65288e-19)
(0.926961 0.0883893 3.6045e-18)
(0.93422 0.0616696 4.53861e-18)
(0.953554 0.0397336 1.2998e-17)
(0.989585 0.0288353 5.64473e-19)
(0.94771 0.144851 9.43432e-21)
(0.947872 0.144033 2.76074e-20)
(0.947737 0.143194 2.92225e-20)
(0.947257 0.142164 -1.72299e-19)
(0.946334 0.140794 7.87952e-20)
(0.944858 0.138989 6.34061e-19)
(0.942677 0.136534 -1.07912e-18)
(0.939561 0.133236 -7.05719e-19)
(0.935144 0.128574 -1.23329e-19)
(0.929419 0.120864 -8.21611e-19)
(0.923043 0.107992 -2.13426e-18)
(0.919778 0.0865222 -2.8487e-18)
(0.929054 0.0575935 6.20982e-18)
(0.950827 0.0345832 -7.40016e-18)
(0.989946 0.0239819 1.67887e-18)
(0.942036 0.148899 -8.2382e-21)
(0.94222 0.148129 3.27941e-20)
(0.942092 0.147213 -1.19713e-20)
(0.941599 0.146043 4.18965e-20)
(0.940634 0.144477 -3.15165e-20)
(0.939066 0.142473 -4.69843e-19)
(0.936731 0.139764 5.08489e-19)
(0.933359 0.136146 -9.49457e-20)
(0.92853 0.131164 -3.75634e-18)
(0.922196 0.122732 3.45078e-19)
(0.915192 0.108318 -5.75637e-18)
(0.912197 0.0840249 -8.09872e-18)
(0.923967 0.052986 -1.97689e-17)
(0.948284 0.0289874 2.06396e-19)
(0.990508 0.0187229 4.19975e-18)
(0.935988 0.152999 -1.21409e-20)
(0.936193 0.152003 -3.2937e-20)
(0.936059 0.150978 7.22415e-20)
(0.935536 0.149708 -3.3992e-19)
(0.934507 0.148027 3.2683e-19)
(0.932832 0.145836 -4.29807e-19)
(0.93031 0.142916 3.16869e-19)
(0.926676 0.139027 1.75925e-18)
(0.92139 0.133663 -2.56491e-19)
(0.914371 0.124446 2.08772e-18)
(0.906683 0.108239 -2.7999e-18)
(0.904235 0.0807447 8.98124e-18)
(0.919029 0.0478398 8.48751e-18)
(0.945913 0.0229583 -1.65913e-17)
(0.991242 0.0132697 -3.68369e-18)
(0.92946 0.15721 -1.32818e-21)
(0.929687 0.156276 -1.58949e-20)
(0.929549 0.155126 -7.36404e-20)
(0.928993 0.153657 -2.01197e-19)
(0.927895 0.151722 3.92638e-19)
(0.926092 0.149284 1.0409e-19)
(0.923389 0.146049 8.88777e-19)
(0.919456 0.141778 -3.24998e-18)
(0.913668 0.136099 1.17298e-18)
(0.905883 0.126018 -5.77651e-18)
(0.897494 0.107713 4.07022e-18)
(0.896002 0.0765876 -7.5136e-18)
(0.914408 0.042181 2.04477e-17)
(0.943814 0.016496 1.93464e-17)
(0.992231 0.00744546 -2.71993e-18)
(0.922437 0.161446 6.58742e-21)
(0.922685 0.160265 -4.65693e-20)
(0.922535 0.159 -1.06961e-19)
(0.92193 0.157401 1.65628e-20)
(0.920744 0.1553 3.01754e-19)
(0.918811 0.152587 -5.11032e-20)
(0.915901 0.149064 -1.12334e-18)
(0.911663 0.144454 1.90201e-18)
(0.905318 0.138368 1.40978e-18)
(0.896674 0.127324 3.56909e-18)
(0.887553 0.106505 -6.34489e-19)
(0.88756 0.0713714 1.18265e-17)
(0.910174 0.0360129 -5.88008e-19)
(0.941954 0.00962521 1.20052e-17)
(0.993446 0.00151956 1.80719e-18)
(0.914724 0.165733 9.97359e-21)
(0.914962 0.16476 -1.1797e-19)
(0.914799 0.16334 -6.70196e-20)
(0.91417 0.16145 1.06709e-19)
(0.912933 0.158975 -5.00736e-19)
(0.910894 0.155908 -7.3791e-19)
(0.907802 0.151981 1.73628e-19)
(0.903231 0.146916 1.74935e-18)
(0.896277 0.140517 1.02949e-18)
(0.886685 0.128396 2.41395e-18)
(0.87687 0.104548 3.52059e-18)
(0.879139 0.0650567 -1.05749e-18)
(0.906494 0.0293714 -2.22788e-17)
(0.940405 0.0022918 -8.52794e-18)
(0.994983 -0.0047283 -1.82384e-19)
(0.906498 0.169967 8.31485e-21)
(0.906711 0.168556 -1.88127e-19)
(0.90651 0.166963 -2.54636e-20)
(0.905828 0.164924 1.00393e-19)
(0.904514 0.162277 4.92116e-19)
(0.902349 0.158917 3.62243e-19)
(0.899037 0.154683 -4.26317e-19)
(0.894137 0.149228 -7.11871e-19)
(0.886511 0.1424 -1.15993e-18)
(0.875856 0.129051 -6.95147e-18)
(0.865447 0.101546 1.73507e-19)
(0.870913 0.05754 -1.20003e-17)
(0.903422 0.0223135 1.01006e-17)
(0.939104 -0.00547383 8.30662e-18)
(0.996848 -0.0109869 -6.85256e-19)
(0.89767 0.174477 -1.25216e-20)
(0.897857 0.173148 -1.24749e-19)
(0.897609 0.171262 2.42951e-19)
(0.896857 0.168822 -1.08786e-19)
(0.895442 0.165722 4.1227e-19)
(0.893118 0.161944 -3.99917e-19)
(0.889594 0.157223 1.08603e-18)
(0.884331 0.151266 -1.56084e-18)
(0.87598 0.144124 4.98758e-19)
(0.864183 0.129353 -7.31006e-19)
(0.853397 0.0974199 3.2472e-18)
(0.863236 0.0489125 -1.77097e-17)
(0.901112 0.0149354 -7.96257e-18)
(0.938119 -0.0137163 4.08201e-18)
(0.9991 -0.0174816 7.39379e-19)
(0.888207 0.178967 -2.58938e-20)
(0.888355 0.177154 6.33234e-20)
(0.888043 0.175017 -2.65143e-19)
(0.887197 0.172316 -2.13713e-19)
(0.885657 0.168907 4.08988e-19)
(0.883167 0.164673 2.92466e-19)
(0.8794 0.159509 -2.06452e-18)
(0.873792 0.153094 1.79215e-18)
(0.86466 0.145444 -1.21538e-19)
(0.851607 0.129025 5.70041e-18)
(0.840744 0.0917434 -1.21195e-17)
(0.856314 0.0391268 2.41755e-17)
(0.89954 0.00729909 -1.17616e-17)
(0.937376 -0.0223338 -2.33612e-17)
(1.00172 -0.0238031 4.88724e-19)
(0.878009 0.183707 -5.24769e-20)
(0.878093 0.181942 -1.67042e-20)
(0.877694 0.17943 8.31378e-20)
(0.876735 0.176197 4.14039e-19)
(0.87506 0.172161 -5.86977e-19)
(0.872395 0.167327 -1.36108e-18)
(0.868423 0.161501 1.71081e-18)
(0.862462 0.154512 -2.13242e-18)
(0.852528 0.146528 8.41426e-20)
(0.838133 0.128143 -5.12097e-18)
(0.827769 0.0845062 1.49525e-17)
(0.850566 0.0284065 -7.00479e-18)
(0.898749 -0.000617132 -3.73865e-19)
(0.936908 -0.0314747 -6.88698e-18)
(1.00467 -0.030244 -3.64421e-20)
(0.866948 0.188477 -6.22309e-20)
(0.866925 0.18625 -3.71953e-20)
(0.866413 0.183346 -2.81249e-20)
(0.865336 0.179653 2.00532e-20)
(0.863539 0.17507 2.66178e-19)
(0.860746 0.169534 3.65264e-19)
(0.856633 0.163087 -7.57804e-19)
(0.850447 0.1556 1.15123e-18)
(0.839634 0.147089 5.2478e-18)
(0.823799 0.126369 8.40356e-19)
(0.814706 0.0753709 -8.1091e-18)
(0.846181 0.0168825 -6.1127e-18)
(0.8986 -0.00877982 1.0314e-17)
(0.936635 -0.0410147 7.82358e-18)
(1.00796 -0.0363204 -3.76926e-19)
(0.854957 0.193413 2.68575e-20)
(0.854789 0.191153 -9.45469e-20)
(0.854157 0.187672 1.57279e-19)
(0.852978 0.183206 -5.09791e-19)
(0.851096 0.177761 1.52961e-19)
(0.848288 0.171386 1.49888e-18)
(0.844177 0.164104 7.23175e-19)
(0.837721 0.156135 4.8903e-19)
(0.826089 0.147538 -1.64916e-18)
(0.808794 0.123891 4.06327e-18)
(0.802071 0.0645685 -1.04794e-17)
(0.843558 0.00498456 3.47885e-17)
(0.899069 -0.0172681 1.81743e-18)
(0.936637 -0.0510526 8.01947e-18)
(1.01152 -0.0422395 1.66543e-18)
(0.842159 0.198355 -1.56862e-20)
(0.841822 0.195384 3.68731e-20)
(0.841062 0.19127 -1.91276e-19)
(0.839769 0.186123 7.35781e-19)
(0.837898 0.179828 -3.61588e-19)
(0.83509 0.17246 -1.10566e-18)
(0.831017 0.164592 2.29358e-20)
(0.824522 0.156349 1.13268e-19)
(0.811883 0.14734 -1.12454e-17)
(0.793167 0.120239 1.026e-17)
(0.79014 0.0518015 9.99492e-18)
(0.842705 -0.00705662 -1.6863e-17)
(0.899944 -0.0260229 5.50581e-18)
(0.936877 -0.0612747 9.61493e-18)
(1.01541 -0.0473879 -1.11864e-18)
(0.828529 0.203599 -2.67079e-20)
(0.828055 0.200259 -7.56965e-20)
(0.827161 0.195247 1.37365e-19)
(0.825802 0.188964 -5.00474e-19)
(0.823832 0.181496 1.66988e-19)
(0.821139 0.173152 -1.90229e-20)
(0.817273 0.164289 2.06936e-18)
(0.810579 0.15586 -4.2429e-18)
(0.79709 0.147149 1.12692e-17)
(0.777311 0.115719 -7.42433e-18)
(0.779594 0.0376136 8.78556e-18)
(0.84377 -0.0189371 -1.07849e-17)
(0.901068 -0.0354187 -3.34984e-20)
(0.937443 -0.071867 1.09815e-17)
(1.01948 -0.0520515 -7.08654e-19)
(0.813867 0.20888 -3.49597e-20)
(0.813239 0.204682 -4.13009e-20)
(0.812221 0.198672 2.53444e-19)
(0.810742 0.191407 -9.10665e-20)
(0.80887 0.182664 1.63684e-19)
(0.806383 0.172787 -9.78044e-19)
(0.80278 0.163443 -1.45961e-18)
(0.796355 0.155135 7.39663e-18)
(0.781809 0.146042 -4.9342e-18)
(0.76168 0.110168 -8.56133e-18)
(0.770759 0.0220547 -1.81036e-17)
(0.846435 -0.030546 2.063e-17)
(0.902176 -0.0454125 1.0745e-17)
(0.938311 -0.0824568 -1.76768e-17)
(1.02383 -0.0555594 2.96769e-18)
(0.798023 0.214206 -3.90453e-20)
(0.79723 0.209431 1.13864e-19)
(0.796111 0.202264 -1.54689e-19)
(0.794648 0.193368 2.04765e-19)
(0.792971 0.182923 -1.08129e-19)
(0.790931 0.17189 5.58955e-19)
(0.787937 0.161527 -1.53073e-18)
(0.781812 0.153861 2.93142e-18)
(0.766491 0.145247 -8.32953e-18)
(0.747205 0.104496 -1.62382e-18)
(0.764331 0.00624409 -1.54862e-17)
(0.850595 -0.0418117 -3.72032e-18)
(0.903144 -0.0565432 -3.68298e-18)
(0.93968 -0.0930983 -1.37821e-17)
(1.02832 -0.0579901 -9.3086e-18)
(0.780912 0.218951 1.18173e-20)
(0.779937 0.213101 -4.58876e-20)
(0.778795 0.204576 2.43758e-20)
(0.777516 0.194273 -3.93081e-19)
(0.776302 0.182173 7.56054e-19)
(0.774877 0.169515 -1.09211e-18)
(0.772939 0.159186 1.6808e-18)
(0.767651 0.152621 -1.07872e-17)
(0.751077 0.143205 1.49319e-17)
(0.734374 0.098713 8.92478e-19)
(0.76041 -0.00943913 2.05063e-17)
(0.855875 -0.0523843 -1.98319e-18)
(0.903852 -0.0684132 -1.62271e-17)
(0.941529 -0.103212 1.13048e-17)
(1.03309 -0.0588264 1.25584e-17)
(0.762761 0.223081 1.35574e-20)
(0.761628 0.216067 -1.02309e-19)
(0.76052 0.205915 -1.20477e-19)
(0.75953 0.193736 9.79001e-19)
(0.758854 0.180053 -8.15755e-19)
(0.758547 0.16628 1.36938e-18)
(0.758008 0.155406 -2.88857e-18)
(0.753327 0.1512 1.67862e-18)
(0.736174 0.141701 3.59167e-18)
(0.724511 0.094365 2.82442e-17)
(0.758774 -0.0245815 -3.68594e-18)
(0.861536 -0.0634181 2.14359e-17)
(0.904156 -0.0819495 -9.86936e-18)
(0.944067 -0.112941 1.25762e-17)
(1.03806 -0.0583311 -6.41188e-18)
(0.743975 0.226126 3.24348e-20)
(0.742677 0.217344 -1.49102e-20)
(0.741537 0.205599 -4.4853e-20)
(0.740754 0.191955 1.38963e-19)
(0.740777 0.176426 8.65023e-19)
(0.741799 0.161137 1.33368e-18)
(0.74305 0.151492 5.39284e-19)
(0.739959 0.150095 4.79776e-18)
(0.721651 0.138454 -5.92396e-18)
(0.718356 0.0922909 -3.82209e-17)
(0.759179 -0.0387667 3.07664e-17)
(0.867209 -0.0749102 -5.10035e-17)
(0.904109 -0.0966714 3.09982e-17)
(0.947126 -0.121907 -2.09211e-17)
(1.04329 -0.056455 -6.65042e-18)
(0.724503 0.228718 -1.6685e-20)
(0.722902 0.218516 -1.12916e-19)
(0.721524 0.204832 1.21839e-19)
(0.720757 0.188844 -6.77344e-19)
(0.721554 0.171199 2.87475e-19)
(0.724278 0.154625 4.52368e-19)
(0.728185 0.145505 2.089e-18)
(0.726873 0.149543 7.21277e-19)
(0.708526 0.136223 -2.81714e-18)
(0.717584 0.0948368 4.93655e-18)
(0.759477 -0.0534079 -4.00295e-17)
(0.871627 -0.0883845 1.76361e-18)
(0.903716 -0.113402 -2.78352e-17)
(0.951083 -0.130156 1.88303e-17)
(1.04887 -0.0534196 7.62484e-18)
(0.703183 0.231132 -2.16234e-20)
(0.70108 0.21948 1.97196e-19)
(0.699183 0.203284 -5.37978e-19)
(0.698306 0.184535 5.08734e-19)
(0.69982 0.163626 -1.35939e-18)
(0.705122 0.145154 -9.72012e-20)
(0.713639 0.139355 -3.73415e-19)
(0.714749 0.148814 -5.51596e-18)
(0.69627 0.131586 4.52502e-18)
(0.72138 0.101677 1.7015e-17)
(0.756347 -0.0701811 5.80831e-17)
(0.873067 -0.104505 1.97604e-17)
(0.902541 -0.131271 3.71503e-17)
(0.955191 -0.137042 -1.11178e-17)
(1.0544 -0.049415 -1.62246e-18)
(0.679461 0.233638 -5.89107e-20)
(0.67625 0.220464 -2.63294e-20)
(0.67325 0.201197 4.52016e-19)
(0.671801 0.178373 -5.12869e-19)
(0.674718 0.153391 -1.89406e-18)
(0.68481 0.132317 1.89428e-18)
(0.698751 0.129662 -6.94071e-18)
(0.702851 0.149054 3.73957e-18)
(0.685882 0.128548 -2.04924e-18)
(0.726827 0.111789 3.37981e-18)
(0.740859 -0.10434 3.07826e-17)
(0.870485 -0.128551 3.21767e-19)
(0.901251 -0.153512 -4.71065e-17)
(0.95979 -0.144835 -9.64589e-18)
(1.05993 -0.0465398 7.89316e-18)
(0.65292 0.237093 6.24155e-20)
(0.6478 0.222396 -1.49357e-20)
(0.642939 0.198858 -1.06251e-19)
(0.640979 0.170019 2.86595e-19)
(0.645789 0.137042 1.64403e-18)
(0.66199 0.113896 -5.38446e-18)
(0.684916 0.120541 1.27763e-18)
(0.692784 0.149321 -1.30111e-18)
(0.67453 0.119794 -5.01649e-18)
(0.735637 0.117378 7.37998e-18)
(0.689294 -0.203294 -2.53389e-16)
(0.859746 -0.158391 8.35169e-18)
(0.898811 -0.178986 2.38059e-17)
(0.964353 -0.155049 2.26007e-17)
(1.06579 -0.0490596 -6.17711e-18)
(0.623165 0.242039 3.13371e-20)
(0.615233 0.224992 -1.45189e-20)
(0.607795 0.194664 -4.12282e-19)
(0.604697 0.156587 1.28816e-18)
(0.612806 0.116647 4.86656e-19)
(0.63869 0.0904762 4.76353e-18)
(0.670767 0.105136 1.12406e-18)
(0.677862 0.146587 9.44884e-20)
(0.660731 0.108926 5.35355e-18)
(0.762858 0.122615 -1.84616e-17)
(0.653045 -0.321909 2.53496e-16)
(0.844983 -0.193461 -2.74876e-17)
(0.891759 -0.206382 2.32887e-18)
(0.966697 -0.168496 -1.04381e-17)
(1.07094 -0.0601081 2.37242e-17)
(0.590038 0.247733 -9.95755e-21)
(0.577939 0.22665 7.62013e-20)
(0.566755 0.188016 -5.34641e-19)
(0.560895 0.139453 9.56158e-19)
(0.568397 0.0806113 -1.357e-18)
(0.606242 0.0491271 -1.585e-18)
(0.655108 0.089588 -4.93089e-18)
(0.669406 0.15031 -3.53131e-18)
(0.66642 0.114432 5.54617e-18)
(0.785682 0.135291 -9.36553e-18)
(0.69605 -0.264217 -1.02149e-16)
(0.849369 -0.207294 2.62946e-17)
(0.887747 -0.228345 3.75711e-17)
(0.967189 -0.18118 8.39706e-18)
(1.07205 -0.0817355 -4.68185e-17)
(0.55952 0.255229 -7.63669e-20)
(0.540915 0.230494 1.77461e-20)
(0.517788 0.181153 2.97976e-19)
(0.499955 0.112876 9.91978e-19)
(0.510395 0.0339715 7.12702e-19)
(0.580351 0.00127772 -6.02385e-19)
(0.65548 0.080294 4.84587e-18)
(0.645382 0.118462 3.31241e-18)
(0.600658 -0.0366835 -8.63016e-18)
(0.757777 0.108681 -1.47792e-18)
(0.667654 -0.252409 2.13504e-17)
(0.861488 -0.20616 -2.91116e-18)
(0.894885 -0.249917 -3.07224e-17)
(0.974172 -0.205244 -2.06855e-17)
(1.07535 -0.128588 1.314e-17)
(0.504244 0.265387 4.94752e-22)
(0.469043 0.240032 -3.53857e-20)
(0.439694 0.181165 6.38285e-19)
(0.42599 0.0883814 -3.64151e-18)
(0.455025 -0.0257884 -4.04066e-19)
(0.588261 -0.0160984 -1.05399e-18)
(0.659915 0.0964597 -2.69233e-19)
(0.634185 0.0903494 1.60013e-18)
(0.643572 -0.0524814 4.12601e-18)
(0.719155 0.037641 -2.10144e-17)
(0.599094 -0.397342 2.22079e-18)
(0.872006 -0.242252 1.176e-17)
(0.917939 -0.297599 -2.75605e-17)
(1.00224 -0.258939 2.10158e-18)
(1.09576 -0.217512 5.74965e-19)
(0.440405 0.306313 6.25513e-20)
(0.397383 0.271671 -1.19453e-19)
(0.340548 0.170063 -1.10564e-18)
(0.322654 0.0172486 1.92959e-18)
(0.407679 -0.123032 -9.85021e-19)
(0.60818 0.00237089 1.32405e-18)
(0.645838 0.162915 -3.00151e-18)
(0.659422 0.203866 -9.99691e-18)
(0.750723 0.0717594 -1.17073e-17)
(0.727072 -0.0877833 6.25583e-17)
(0.482796 -0.530381 -6.97579e-18)
(0.847694 -0.35745 -2.3744e-17)
(0.903579 -0.42644 1.52028e-18)
(1.01311 -0.397478 2.08887e-17)
(1.12229 -0.343643 9.23239e-18)
(0.44867 0.37481 -2.01803e-19)
(0.372193 0.30082 1.14055e-19)
(0.313399 0.128089 5.14014e-19)
(0.326088 -0.097621 5.34693e-18)
(0.481726 -0.205235 -2.34936e-18)
(0.691529 0.103627 3.4833e-18)
(0.635127 0.315544 3.64787e-18)
(0.616809 0.334577 1.85286e-17)
(0.730118 0.0604348 3.84651e-17)
(0.743117 -0.197217 -5.74112e-17)
(0.213654 -0.595786 -7.24271e-18)
(0.693623 -0.616888 1.12309e-18)
(0.81125 -0.625388 -1.7815e-17)
(0.989396 -0.514508 -1.69607e-17)
(1.1337 -0.435866 6.48068e-18)
(0.611531 0.374874 1.47449e-19)
(0.572236 0.269992 -9.67096e-20)
(0.55607 0.0599855 -8.65938e-19)
(0.658544 -0.14665 -6.09155e-18)
(0.783846 -0.162989 9.31217e-19)
(0.849149 0.294643 -2.39537e-18)
(0.623369 0.61817 8.36636e-18)
(0.586072 0.609199 -4.91802e-18)
(0.713793 0.159106 -5.08266e-17)
(0.699332 -0.275929 5.34915e-17)
(-0.158342 -0.619718 -6.22574e-18)
(0.429509 -0.758211 1.17223e-17)
(0.663604 -0.678964 1.88191e-18)
(0.92116 -0.537084 8.36862e-18)
(1.1086 -0.464588 -1.55125e-17)
(0.992397 0.185462 3.77629e-19)
(1.09961 0.0734758 8.6377e-19)
(1.02484 -0.0763491 4.62654e-19)
(1.01257 -0.113508 -3.4269e-19)
(0.981901 -0.0130538 6.39639e-18)
(0.949968 0.57282 3.62374e-19)
(0.54403 0.956908 1.22425e-17)
(0.586774 0.916292 7.71929e-18)
(0.693049 0.190047 5.1665e-17)
(0.598451 -0.329731 -4.32726e-17)
(-0.545066 -0.644144 1.59997e-18)
(-0.219706 -1.0161 1.11902e-17)
(0.360271 -0.781733 2.57831e-17)
(0.772396 -0.524191 4.37826e-18)
(1.0239 -0.446071 2.64668e-18)
(0.909663 -0.0849638 -5.01618e-19)
(1.0735 -0.0826914 8.77753e-21)
(1.0385 -0.109274 2.29991e-19)
(1.00609 0.0422771 -2.29014e-18)
(1.03414 0.380022 -7.66322e-18)
(1.09706 1.06777 3.86538e-18)
(0.59239 1.43789 -6.15872e-19)
(0.393326 0.834144 -6.71805e-17)
(0.346916 -0.946763 -1.37235e-16)
(0.73566 -0.0347402 -1.77069e-17)
(-0.70037 -0.56461 8.01401e-18)
(-0.585525 -0.992874 -4.04074e-18)
(0.0589809 -0.545469 -2.59269e-17)
(0.53762 -0.362395 -5.1994e-18)
(0.873848 -0.300893 -1.24354e-17)
(0.877875 -0.415698 -1.80304e-19)
(1.03803 -0.424991 -8.50359e-19)
(1.11112 -0.274253 -1.13058e-18)
(1.01482 0.257147 1.5597e-18)
(1.18742 0.888913 6.5034e-18)
(1.20047 1.50896 -1.53562e-17)
(0.326996 1.39604 -1.8894e-17)
(-0.0873421 0.315704 1.69127e-16)
(-0.010861 -0.0518383 6.64303e-17)
(0.285356 -0.149188 2.18791e-17)
(-0.815201 -0.345782 1.61172e-19)
(-0.743952 -0.131028 -5.86462e-19)
(-0.316703 -0.0954967 2.30584e-17)
(0.206274 -0.00356122 4.43533e-19)
(0.642355 -0.0299169 9.1671e-18)
(0.861388 -0.30919 -5.81576e-19)
(1.07753 -0.372919 1.83131e-18)
(1.29944 -0.181446 4.15453e-19)
(1.26955 0.448998 -1.95144e-18)
(1.46618 1.27883 -5.655e-18)
(1.57376 2.04027 1.26307e-17)
(0.372141 1.74171 -2.33081e-17)
(0.313055 1.49398 -1.2774e-16)
(-0.441337 0.689555 3.66668e-17)
(-0.401453 0.0496034 -1.72645e-17)
(-1.08075 -0.0926977 2.60927e-18)
(-1.01309 0.187243 -3.20094e-17)
(-0.591525 0.523643 -3.56889e-18)
(-0.0366423 0.659518 1.60664e-18)
(0.431037 0.484841 1.18623e-18)
(1.42334 -0.380564 5.31264e-19)
(1.49752 -0.286716 -6.52719e-19)
(1.61502 -0.0176343 9.38749e-19)
(1.42542 0.571909 4.8851e-18)
(1.5888 1.33591 5.5596e-18)
(1.56564 2.09897 -1.38177e-17)
(0.700059 1.82976 -4.20684e-18)
(-0.778232 0.173759 1.0167e-17)
(-1.02402 0.478532 -2.04289e-17)
(-0.71978 0.930021 2.72139e-17)
(-1.07858 0.354417 4.014e-18)
(-1.15682 0.819134 7.46315e-18)
(-0.746478 1.47745 -2.53323e-18)
(-0.202628 1.55073 3.27614e-18)
(0.259211 1.09559 1.23135e-17)
(1.11289 0.378709 -1.08605e-19)
(1.55978 0.235119 -1.21413e-18)
(1.60219 0.391018 -2.26137e-18)
(1.34188 0.852529 -4.73032e-18)
(1.26975 1.18279 6.02747e-18)
(0.854509 1.59202 -4.31186e-18)
(0.243054 0.681381 1.9677e-17)
(-0.710838 -0.582812 2.1743e-18)
(-0.6903 0.485189 -1.93969e-17)
(-0.604835 1.35978 2.25558e-19)
(-0.657495 0.908556 5.38789e-17)
(-1.24198 1.38039 4.42715e-17)
(-0.819149 2.41804 1.602e-17)
(-0.262751 2.33112 -7.7e-18)
(0.188229 1.42251 1.88403e-17)
(-0.120409 1.84279 5.81308e-20)
(0.46581 1.63559 5.87584e-19)
(0.922156 1.29139 2.79139e-18)
(0.790301 1.29452 -7.41792e-18)
(0.545181 1.13076 -2.00402e-17)
(-0.234407 0.96468 4.88737e-17)
(-0.724789 -0.367366 1.09358e-17)
(-0.505742 -0.511891 4.1196e-18)
(-0.315823 0.798499 3.29013e-17)
(-0.269675 1.47921 -6.87171e-17)
(-0.227835 1.47515 -1.08164e-16)
(-1.40529 1.71792 -3.56668e-17)
(-0.754136 2.55456 1.90371e-17)
(-0.187956 1.90771 -1.66913e-18)
(0.174565 0.997663 5.35418e-18)
(-0.86787 2.29581 -1.19008e-20)
(-0.859682 2.58858 1.3336e-19)
(-0.716684 2.47657 6.71845e-19)
(-0.496116 2.05632 7.47774e-18)
(-0.592767 1.47427 -5.9599e-18)
(-0.36189 0.783854 -5.33396e-17)
(-0.204908 -0.283924 7.59388e-20)
(0.481912 0.495259 -7.27954e-17)
(1.03794 3.37086 -4.16428e-16)
(0.67058 2.28075 1.54026e-16)
(-0.125597 1.92251 -1.90879e-16)
(-0.972235 2.36315 1.02793e-17)
(-0.314586 1.74469 -7.87787e-17)