/*--------------------------------*- C++ -*----------------------------------*\
  =========                 |
  \\      /  F ield         | OpenFOAM: The Open Source CFD Toolbox
   \\    /   O peration     | Website:  https://openfoam.org
    \\  /    A nd           | Version:  6.0
     \\/     M anipulation  |
\*---------------------------------------------------------------------------*/
FoamFile
{
    version     2.0;
    format      ascii;
    class       volScalarField;
    location    "9";
    object      p;
}
// * * * * * * * * * * * * * * * * * * * * * * * * * * * * * * * * * * * * * //

dimensions      [0 2 -2 0 0 0 0];

internalField   nonuniform List<scalar> 
13500
(
0.11692
0.11673
0.11608
0.11524
0.11337
0.11224
0.10987
0.10906
0.10867
0.10934
0.13055
0.1681
0.11692
0.11673
0.11607
0.11524
0.11336
0.11224
0.10987
0.10906
0.10867
0.1094
0.12988
0.16305
0.11692
0.11673
0.11607
0.11525
0.11336
0.11224
0.10987
0.10906
0.10866
0.10944
0.129
0.15857
0.11692
0.11674
0.11607
0.11525
0.11336
0.11225
0.10987
0.10906
0.10865
0.10946
0.12803
0.15509
0.11692
0.11674
0.11607
0.11526
0.11336
0.11225
0.10986
0.10906
0.10864
0.10947
0.127
0.15216
0.11693
0.11675
0.11607
0.11526
0.11336
0.11225
0.10986
0.10906
0.10861
0.10946
0.12593
0.14956
0.11693
0.11676
0.11608
0.11527
0.11336
0.11226
0.10986
0.10906
0.10859
0.10944
0.12486
0.1472
0.11694
0.11676
0.11608
0.11528
0.11336
0.11227
0.10986
0.10906
0.10856
0.10941
0.12379
0.14504
0.11694
0.11677
0.11609
0.11529
0.11337
0.11227
0.10986
0.10905
0.10853
0.10937
0.12275
0.14305
0.11695
0.11678
0.11609
0.1153
0.11337
0.11228
0.10985
0.10905
0.10849
0.10931
0.12174
0.1412
0.11696
0.11679
0.1161
0.11531
0.11338
0.11229
0.10985
0.10905
0.10845
0.10924
0.12078
0.13946
0.11697
0.11681
0.11611
0.11532
0.11338
0.1123
0.10985
0.10905
0.1084
0.10916
0.11985
0.13782
0.11698
0.11682
0.11612
0.11533
0.11339
0.11231
0.10985
0.10904
0.10835
0.10907
0.11896
0.13627
0.11699
0.11683
0.11613
0.11535
0.1134
0.11232
0.10985
0.10904
0.1083
0.10897
0.11812
0.1348
0.11701
0.11685
0.11614
0.11536
0.11341
0.11233
0.10985
0.10904
0.10824
0.10887
0.11732
0.1334
0.11702
0.11687
0.11615
0.11538
0.11342
0.11234
0.10985
0.10903
0.10817
0.10876
0.11656
0.13206
0.11704
0.11688
0.11617
0.1154
0.11343
0.11235
0.10985
0.10903
0.1081
0.10864
0.11583
0.13078
0.11706
0.1169
0.11618
0.11541
0.11344
0.11237
0.10986
0.10903
0.10803
0.10853
0.11513
0.12955
0.11707
0.11692
0.1162
0.11543
0.11346
0.11238
0.10986
0.10902
0.10795
0.10841
0.11446
0.12837
0.11709
0.11694
0.11622
0.11545
0.11347
0.1124
0.10986
0.10902
0.10787
0.10829
0.11382
0.12724
0.11711
0.11696
0.11624
0.11548
0.11349
0.11241
0.10986
0.10901
0.10778
0.10817
0.11319
0.12614
0.11713
0.11699
0.11626
0.1155
0.1135
0.11243
0.10986
0.10901
0.10769
0.10805
0.11259
0.12507
0.11716
0.11701
0.11628
0.11552
0.11352
0.11245
0.10987
0.109
0.1076
0.10794
0.112
0.12404
0.11718
0.11704
0.1163
0.11555
0.11354
0.11247
0.10987
0.10899
0.1075
0.10782
0.11142
0.12304
0.11721
0.11706
0.11632
0.11557
0.11356
0.11248
0.10987
0.10899
0.1074
0.10771
0.11086
0.12207
0.11723
0.11709
0.11635
0.1156
0.11358
0.1125
0.10988
0.10898
0.1073
0.10761
0.11031
0.12112
0.11726
0.11712
0.11638
0.11563
0.11361
0.11253
0.10988
0.10897
0.1072
0.1075
0.10977
0.12019
0.11729
0.11715
0.1164
0.11566
0.11363
0.11255
0.10989
0.10896
0.10709
0.1074
0.10923
0.11929
0.11732
0.11718
0.11643
0.11569
0.11365
0.11257
0.10989
0.10895
0.10699
0.1073
0.1087
0.1184
0.11735
0.11721
0.11646
0.11572
0.11368
0.11259
0.1099
0.10894
0.10688
0.1072
0.10818
0.11754
0.11738
0.11724
0.11649
0.11575
0.1137
0.11262
0.10991
0.10893
0.10677
0.1071
0.10766
0.11669
0.11742
0.11728
0.11653
0.11578
0.11373
0.11264
0.10991
0.10892
0.10666
0.10701
0.10715
0.11586
0.11745
0.11731
0.11656
0.11582
0.11376
0.11267
0.10992
0.10891
0.10655
0.10691
0.10664
0.11505
0.11749
0.11735
0.1166
0.11585
0.11379
0.11269
0.10993
0.1089
0.10644
0.10682
0.10614
0.11425
0.11752
0.11739
0.11663
0.11589
0.11382
0.11272
0.10993
0.10888
0.10634
0.10673
0.10565
0.11347
0.11756
0.11743
0.11667
0.11593
0.11385
0.11275
0.10994
0.10887
0.10623
0.10664
0.10516
0.1127
0.1176
0.11747
0.11671
0.11597
0.11389
0.11278
0.10995
0.10886
0.10612
0.10655
0.10467
0.11195
0.11764
0.11751
0.11675
0.11601
0.11392
0.11281
0.10996
0.10884
0.10602
0.10646
0.10419
0.11121
0.11769
0.11755
0.11679
0.11605
0.11396
0.11284
0.10997
0.10883
0.10592
0.10637
0.10372
0.11048
0.11773
0.11759
0.11683
0.11609
0.11399
0.11287
0.10998
0.10881
0.10581
0.10627
0.10325
0.10977
0.11777
0.11764
0.11688
0.11613
0.11403
0.1129
0.10998
0.1088
0.10572
0.10618
0.10279
0.10907
0.11782
0.11768
0.11692
0.11618
0.11407
0.11294
0.10999
0.10878
0.10562
0.10609
0.10233
0.10839
0.11787
0.11773
0.11697
0.11622
0.11411
0.11297
0.11
0.10877
0.10552
0.10599
0.10188
0.10771
0.11791
0.11778
0.11701
0.11627
0.11415
0.113
0.11001
0.10875
0.10543
0.1059
0.10144
0.10705
0.11796
0.11783
0.11706
0.11631
0.11419
0.11304
0.11002
0.10874
0.10533
0.1058
0.101
0.10641
0.11801
0.11788
0.11711
0.11636
0.11423
0.11308
0.11003
0.10872
0.10524
0.1057
0.10057
0.10577
0.11807
0.11793
0.11716
0.11641
0.11427
0.11311
0.11005
0.10871
0.10516
0.1056
0.10015
0.10515
0.11812
0.11798
0.11721
0.11646
0.11432
0.11315
0.11006
0.1087
0.10507
0.1055
0.099737
0.10454
0.11817
0.11803
0.11727
0.11651
0.11436
0.11319
0.11007
0.10868
0.10498
0.10539
0.09933
0.10395
0.11823
0.11809
0.11732
0.11657
0.11441
0.11323
0.11008
0.10867
0.1049
0.10529
0.098931
0.10336
0.11828
0.11814
0.11738
0.11662
0.11446
0.11327
0.11009
0.10866
0.10482
0.10518
0.098539
0.10279
0.11834
0.1182
0.11743
0.11667
0.11451
0.11331
0.1101
0.10865
0.10474
0.10507
0.098155
0.10223
0.1184
0.11826
0.11749
0.11673
0.11456
0.11335
0.11011
0.10864
0.10466
0.10496
0.097779
0.10168
0.11846
0.11832
0.11755
0.11679
0.11461
0.11339
0.11012
0.10863
0.10458
0.10485
0.09741
0.10114
0.11852
0.11838
0.11761
0.11684
0.11466
0.11343
0.11013
0.10862
0.1045
0.10474
0.097049
0.10061
0.11858
0.11844
0.11767
0.1169
0.11471
0.11348
0.11014
0.10862
0.10443
0.10462
0.096696
0.10009
0.11864
0.1185
0.11773
0.11696
0.11476
0.11352
0.11016
0.10861
0.10435
0.10451
0.09635
0.099583
0.1187
0.11856
0.11779
0.11702
0.11481
0.11357
0.11017
0.10861
0.10427
0.10439
0.096012
0.099085
0.11877
0.11862
0.11786
0.11708
0.11487
0.11361
0.11018
0.10861
0.1042
0.10427
0.09568
0.098597
0.11883
0.11869
0.11792
0.11714
0.11492
0.11366
0.11019
0.10861
0.10413
0.10416
0.095357
0.098119
0.1189
0.11875
0.11799
0.1172
0.11498
0.1137
0.1102
0.10861
0.10405
0.10404
0.09504
0.097651
0.11897
0.11882
0.11805
0.11727
0.11504
0.11375
0.11022
0.10861
0.10398
0.10392
0.09473
0.097191
0.11903
0.11888
0.11812
0.11733
0.11509
0.1138
0.11023
0.10861
0.10391
0.1038
0.094427
0.096741
0.1191
0.11895
0.11819
0.1174
0.11515
0.11384
0.11024
0.10862
0.10383
0.10367
0.094131
0.096298
0.11917
0.11902
0.11826
0.11746
0.11521
0.11389
0.11025
0.10862
0.10376
0.10355
0.093841
0.095865
0.11924
0.11909
0.11832
0.11753
0.11527
0.11394
0.11027
0.10863
0.10369
0.10343
0.093558
0.095439
0.11931
0.11916
0.11839
0.11759
0.11533
0.11399
0.11028
0.10863
0.10361
0.10331
0.093281
0.095021
0.11938
0.11923
0.11846
0.11766
0.11539
0.11404
0.11029
0.10864
0.10354
0.10318
0.09301
0.094611
0.11946
0.1193
0.11854
0.11773
0.11545
0.11409
0.11031
0.10865
0.10347
0.10306
0.092745
0.094208
0.11953
0.11937
0.11861
0.1178
0.11551
0.11414
0.11032
0.10866
0.1034
0.10293
0.092486
0.093812
0.1196
0.11944
0.11868
0.11787
0.11557
0.11419
0.11033
0.10867
0.10332
0.10281
0.092233
0.093424
0.11967
0.11952
0.11875
0.11794
0.11564
0.11424
0.11035
0.10869
0.10325
0.10268
0.091984
0.093041
0.11975
0.11959
0.11883
0.11801
0.1157
0.11429
0.11036
0.1087
0.10318
0.10256
0.091742
0.092666
0.11982
0.11966
0.1189
0.11808
0.11576
0.11434
0.11038
0.10871
0.1031
0.10243
0.091504
0.092296
0.1199
0.11974
0.11897
0.11815
0.11582
0.11439
0.11039
0.10873
0.10303
0.10231
0.091271
0.091933
0.11997
0.11981
0.11905
0.11822
0.11589
0.11444
0.11041
0.10874
0.10296
0.10218
0.091043
0.091575
0.12005
0.11989
0.11912
0.11829
0.11595
0.11449
0.11042
0.10875
0.10289
0.10205
0.09082
0.091223
0.12013
0.11996
0.1192
0.11836
0.11601
0.11454
0.11044
0.10877
0.10281
0.10193
0.090602
0.090877
0.1202
0.12004
0.11928
0.11844
0.11608
0.11459
0.11046
0.10878
0.10274
0.1018
0.090387
0.090536
0.12028
0.12011
0.11935
0.11851
0.11614
0.11464
0.11047
0.1088
0.10267
0.10168
0.090178
0.0902
0.12035
0.12019
0.11943
0.11858
0.11621
0.11469
0.11049
0.10881
0.10259
0.10155
0.089972
0.08987
0.12043
0.12027
0.1195
0.11865
0.11627
0.11473
0.11051
0.10882
0.10252
0.10143
0.08977
0.089544
0.12051
0.12034
0.11958
0.11873
0.11633
0.11478
0.11053
0.10883
0.10245
0.1013
0.089572
0.089223
0.12058
0.12042
0.11965
0.1188
0.1164
0.11483
0.11054
0.10885
0.10237
0.10118
0.089378
0.088906
0.12066
0.1205
0.11973
0.11887
0.11646
0.11488
0.11056
0.10886
0.1023
0.10105
0.089188
0.088594
0.12074
0.12057
0.11981
0.11894
0.11652
0.11493
0.11058
0.10887
0.10223
0.10093
0.089001
0.088287
0.12081
0.12065
0.11988
0.11902
0.11658
0.11498
0.1106
0.10888
0.10216
0.1008
0.088817
0.087984
0.12089
0.12073
0.11996
0.11909
0.11665
0.11503
0.11062
0.10889
0.10208
0.10068
0.088637
0.087685
0.12097
0.1208
0.12003
0.11916
0.11671
0.11508
0.11063
0.1089
0.10201
0.10055
0.08846
0.08739
0.12104
0.12088
0.12011
0.11923
0.11677
0.11512
0.11065
0.1089
0.10194
0.10043
0.088287
0.087099
0.12112
0.12095
0.12018
0.1193
0.11683
0.11517
0.11067
0.10891
0.10187
0.1003
0.088116
0.086812
0.12119
0.12103
0.12026
0.11937
0.11689
0.11522
0.11069
0.10891
0.10179
0.10018
0.087949
0.086529
0.12127
0.1211
0.12033
0.11944
0.11695
0.11526
0.11071
0.10892
0.10172
0.10006
0.087784
0.08625
0.12134
0.12118
0.1204
0.11951
0.11701
0.11531
0.11072
0.10892
0.10165
0.099934
0.087622
0.085974
0.12142
0.12125
0.12047
0.11958
0.11706
0.11535
0.11074
0.10892
0.10158
0.099811
0.087463
0.085702
0.12149
0.12133
0.12055
0.11965
0.11712
0.1154
0.11075
0.10892
0.10151
0.099688
0.087306
0.085434
0.12156
0.1214
0.12062
0.11972
0.11718
0.11544
0.11077
0.10891
0.10144
0.099565
0.087153
0.085169
0.12163
0.12147
0.12069
0.11979
0.11723
0.11548
0.11078
0.10891
0.10136
0.099442
0.087001
0.084908
0.12171
0.12155
0.12076
0.11985
0.11729
0.11553
0.1108
0.1089
0.10129
0.099319
0.086852
0.08465
0.12178
0.12162
0.12083
0.11992
0.11734
0.11557
0.11081
0.1089
0.10122
0.099197
0.086705
0.084396
0.12185
0.12169
0.12089
0.11999
0.11739
0.11561
0.11082
0.10889
0.10115
0.099075
0.086561
0.084145
0.12191
0.12176
0.12096
0.12005
0.11744
0.11565
0.11083
0.10888
0.10108
0.098952
0.086419
0.083897
0.12198
0.12183
0.12103
0.12011
0.11749
0.11569
0.11084
0.10886
0.101
0.09883
0.086279
0.083653
0.12205
0.1219
0.12109
0.12018
0.11754
0.11573
0.11085
0.10885
0.10093
0.098708
0.086141
0.083412
0.12212
0.12196
0.12116
0.12024
0.11758
0.11576
0.11086
0.10883
0.10086
0.098585
0.086005
0.083174
0.12218
0.12203
0.12122
0.1203
0.11763
0.1158
0.11087
0.10881
0.10079
0.098463
0.085872
0.082939
0.12224
0.1221
0.12128
0.12036
0.11767
0.11584
0.11087
0.10879
0.10071
0.09834
0.08574
0.082707
0.12231
0.12216
0.12134
0.12042
0.11771
0.11587
0.11087
0.10877
0.10064
0.098217
0.08561
0.082478
0.12237
0.12223
0.1214
0.12048
0.11775
0.1159
0.11088
0.10875
0.10057
0.098094
0.085481
0.082253
0.12243
0.12229
0.12146
0.12053
0.11779
0.11594
0.11088
0.10872
0.10049
0.097971
0.085355
0.08203
0.12249
0.12235
0.12152
0.12059
0.11783
0.11597
0.11088
0.1087
0.10042
0.097848
0.08523
0.081811
0.12255
0.12242
0.12157
0.12064
0.11787
0.116
0.11087
0.10867
0.10034
0.097724
0.085106
0.081594
0.12261
0.12248
0.12163
0.12069
0.1179
0.11603
0.11087
0.10863
0.10027
0.0976
0.084985
0.08138
0.12266
0.12254
0.12168
0.12075
0.11794
0.11606
0.11086
0.1086
0.10019
0.097476
0.084864
0.081169
0.12272
0.1226
0.12174
0.1208
0.11797
0.11609
0.11085
0.10857
0.10011
0.097351
0.084745
0.080961
0.12277
0.12265
0.12179
0.12085
0.118
0.11611
0.11084
0.10853
0.10003
0.097226
0.084628
0.080755
0.12283
0.12271
0.12184
0.1209
0.11803
0.11614
0.11083
0.10849
0.099957
0.0971
0.084512
0.080552
0.12288
0.12277
0.12189
0.12094
0.11805
0.11616
0.11082
0.10845
0.099878
0.096974
0.084397
0.080352
0.12293
0.12282
0.12194
0.12099
0.11808
0.11618
0.1108
0.1084
0.099799
0.096848
0.084284
0.080155
0.12298
0.12288
0.12198
0.12104
0.1181
0.11621
0.11079
0.10836
0.099719
0.096721
0.084171
0.07996
0.12303
0.12293
0.12203
0.12108
0.11812
0.11623
0.11077
0.10831
0.099638
0.096593
0.08406
0.079768
0.12308
0.12299
0.12207
0.12112
0.11815
0.11625
0.11075
0.10827
0.099557
0.096465
0.08395
0.079578
0.12313
0.12304
0.12212
0.12117
0.11817
0.11626
0.11073
0.10821
0.099476
0.096337
0.083841
0.079391
0.12318
0.12309
0.12216
0.12121
0.11819
0.11628
0.1107
0.10816
0.099393
0.096208
0.083733
0.079206
0.12322
0.12315
0.12221
0.12125
0.1182
0.1163
0.11068
0.10811
0.099311
0.096078
0.083626
0.079024
0.12327
0.1232
0.12225
0.12129
0.11822
0.11631
0.11065
0.10806
0.099227
0.095948
0.08352
0.078844
0.12332
0.12325
0.12229
0.12133
0.11824
0.11633
0.11062
0.108
0.099144
0.095817
0.083416
0.078666
0.12336
0.1233
0.12233
0.12137
0.11825
0.11634
0.1106
0.10794
0.099059
0.095686
0.083312
0.078491
0.12341
0.12335
0.12237
0.12141
0.11827
0.11635
0.11057
0.10788
0.098975
0.095555
0.083209
0.078318
0.12345
0.12341
0.12242
0.12145
0.11828
0.11636
0.11054
0.10782
0.09889
0.095423
0.083107
0.078147
0.1235
0.12346
0.12246
0.12149
0.1183
0.11637
0.11051
0.10776
0.098805
0.095291
0.083006
0.077979
0.12355
0.12351
0.1225
0.12153
0.11831
0.11639
0.11047
0.1077
0.09872
0.095159
0.082906
0.077813
0.12359
0.12357
0.12254
0.12157
0.11832
0.1164
0.11044
0.10764
0.098635
0.095027
0.082807
0.077648
0.12364
0.12362
0.12259
0.12161
0.11834
0.11641
0.11041
0.10758
0.098551
0.094894
0.082709
0.077486
0.12369
0.12368
0.12263
0.12166
0.11835
0.11642
0.11038
0.10751
0.098466
0.094762
0.082612
0.077327
0.12374
0.12373
0.12268
0.1217
0.11837
0.11643
0.11035
0.10745
0.098382
0.094629
0.082516
0.077169
0.12379
0.12379
0.12272
0.12175
0.11839
0.11644
0.11032
0.10739
0.098299
0.094497
0.082422
0.077013
0.12384
0.12386
0.12277
0.12179
0.11841
0.11645
0.11028
0.10732
0.098216
0.094366
0.082328
0.07686
0.1239
0.12392
0.12282
0.12184
0.11843
0.11647
0.11026
0.10726
0.098135
0.094235
0.082236
0.076708
0.12395
0.12399
0.12288
0.1219
0.11845
0.11648
0.11023
0.1072
0.098054
0.094105
0.082145
0.076559
0.12401
0.12405
0.12293
0.12195
0.11848
0.1165
0.1102
0.10714
0.097975
0.093976
0.082056
0.076412
0.12408
0.12413
0.12299
0.12201
0.1185
0.11652
0.11018
0.10708
0.097898
0.093847
0.081968
0.076267
0.12414
0.1242
0.12305
0.12207
0.11853
0.11654
0.11016
0.10703
0.097823
0.093721
0.081881
0.076124
0.12421
0.12428
0.12312
0.12214
0.11857
0.11656
0.11014
0.10697
0.09775
0.093595
0.081797
0.075983
0.12428
0.12437
0.12319
0.12221
0.11861
0.11659
0.11012
0.10692
0.097679
0.093472
0.081714
0.075844
0.12436
0.12446
0.12327
0.12228
0.11865
0.11662
0.11011
0.10687
0.097612
0.09335
0.081633
0.075708
0.12444
0.12455
0.12335
0.12236
0.1187
0.11666
0.1101
0.10683
0.097547
0.093231
0.081554
0.075574
0.12453
0.12465
0.12343
0.12245
0.11875
0.1167
0.1101
0.10678
0.097486
0.093114
0.081477
0.075442
0.12462
0.12475
0.12352
0.12254
0.11881
0.11674
0.1101
0.10675
0.097429
0.093001
0.081403
0.075313
0.12472
0.12487
0.12362
0.12264
0.11887
0.11679
0.1101
0.10671
0.097376
0.09289
0.081331
0.075186
0.12483
0.12498
0.12372
0.12274
0.11895
0.11685
0.11012
0.10668
0.097327
0.092783
0.081262
0.075061
0.12494
0.12511
0.12384
0.12285
0.11902
0.11691
0.11013
0.10666
0.097284
0.092679
0.081196
0.074939
0.12505
0.12524
0.12396
0.12298
0.11911
0.11698
0.11016
0.10665
0.097246
0.09258
0.081133
0.07482
0.12518
0.12538
0.12408
0.12311
0.11921
0.11705
0.11019
0.10664
0.097214
0.092485
0.081074
0.074703
0.12531
0.12553
0.12422
0.12325
0.11931
0.11714
0.11023
0.10663
0.097189
0.092396
0.081017
0.074589
0.12545
0.12569
0.12437
0.1234
0.11943
0.11723
0.11028
0.10664
0.09717
0.092311
0.080965
0.074478
0.1256
0.12586
0.12452
0.12356
0.11955
0.11734
0.11034
0.10665
0.097158
0.092232
0.080916
0.07437
0.12576
0.12604
0.12469
0.12373
0.11968
0.11745
0.11041
0.10667
0.097154
0.092158
0.080872
0.074264
0.12593
0.12623
0.12487
0.12391
0.11983
0.11758
0.11049
0.10671
0.097157
0.092091
0.080831
0.074162
0.12611
0.12643
0.12506
0.12411
0.11999
0.11771
0.11058
0.10675
0.09717
0.092031
0.080795
0.074063
0.12629
0.12664
0.12526
0.12431
0.12016
0.11786
0.11068
0.1068
0.097191
0.091978
0.080764
0.073967
0.12649
0.12686
0.12547
0.12453
0.12034
0.11802
0.1108
0.10686
0.097222
0.091931
0.080738
0.073874
0.1267
0.12709
0.12569
0.12477
0.12054
0.11819
0.11092
0.10693
0.097262
0.091893
0.080716
0.073784
0.12692
0.12734
0.12593
0.12502
0.12075
0.11838
0.11106
0.10702
0.097313
0.091862
0.0807
0.073697
0.12715
0.12759
0.12618
0.12528
0.12098
0.11858
0.11121
0.10711
0.097373
0.09184
0.080689
0.073614
0.12739
0.12786
0.12644
0.12555
0.12122
0.11879
0.11138
0.10722
0.097445
0.091826
0.080683
0.073534
0.12764
0.12815
0.12672
0.12585
0.12147
0.11902
0.11156
0.10734
0.097528
0.091821
0.080683
0.073457
0.1279
0.12844
0.12701
0.12615
0.12174
0.11927
0.11176
0.10748
0.097622
0.091824
0.080688
0.073384
0.12818
0.12875
0.12731
0.12647
0.12203
0.11953
0.11197
0.10763
0.097728
0.091837
0.080699
0.073313
0.12846
0.12907
0.12763
0.12681
0.12233
0.1198
0.11219
0.10779
0.097845
0.091858
0.080715
0.073245
0.12875
0.1294
0.12796
0.12716
0.12265
0.12009
0.11243
0.10796
0.097975
0.091889
0.080736
0.07318
0.12906
0.12974
0.12831
0.12753
0.12299
0.1204
0.11269
0.10815
0.098116
0.091929
0.080763
0.073117
0.12937
0.13009
0.12867
0.12791
0.12334
0.12072
0.11296
0.10836
0.098268
0.091977
0.080794
0.073056
0.12969
0.13046
0.12904
0.12831
0.1237
0.12106
0.11325
0.10858
0.098433
0.092035
0.080831
0.072998
0.13002
0.13083
0.12942
0.12872
0.12409
0.12142
0.11356
0.10881
0.098608
0.092101
0.080872
0.072941
0.13036
0.13122
0.12982
0.12915
0.12449
0.12179
0.11388
0.10905
0.098795
0.092175
0.080916
0.072885
0.1307
0.13161
0.13023
0.12958
0.1249
0.12217
0.11421
0.10931
0.098992
0.092256
0.080965
0.072829
0.13105
0.13201
0.13065
0.13003
0.12533
0.12257
0.11456
0.10958
0.0992
0.092345
0.081016
0.072774
0.13141
0.13242
0.13108
0.1305
0.12578
0.12299
0.11492
0.10986
0.099417
0.09244
0.08107
0.072718
0.13177
0.13284
0.13151
0.13097
0.12624
0.12342
0.1153
0.11015
0.099642
0.092541
0.081125
0.07266
0.13213
0.13326
0.13196
0.13145
0.12671
0.12386
0.11569
0.11045
0.099876
0.092647
0.081181
0.072601
0.13249
0.13368
0.13241
0.13195
0.12719
0.12431
0.11609
0.11076
0.10012
0.092757
0.081237
0.072538
0.13285
0.1341
0.13287
0.13245
0.12768
0.12477
0.11651
0.11108
0.10036
0.09287
0.081291
0.072472
0.1332
0.13452
0.13333
0.13295
0.12819
0.12524
0.11693
0.11141
0.10062
0.092984
0.081344
0.072401
0.13356
0.13494
0.13379
0.13346
0.1287
0.12572
0.11736
0.11174
0.10087
0.093099
0.081393
0.072323
0.1339
0.13536
0.13426
0.13398
0.12922
0.12621
0.11781
0.11208
0.10113
0.093213
0.081437
0.072239
0.13424
0.13578
0.13473
0.13449
0.12975
0.1267
0.11825
0.11242
0.10139
0.093325
0.081475
0.072147
0.13457
0.13618
0.13519
0.13501
0.13029
0.12719
0.11871
0.11276
0.10164
0.093433
0.081506
0.072045
0.13489
0.13658
0.13566
0.13553
0.13083
0.12769
0.11917
0.1131
0.1019
0.093536
0.081528
0.071932
0.1352
0.13697
0.13612
0.13604
0.13137
0.1282
0.11963
0.11344
0.10215
0.093632
0.08154
0.071808
0.13549
0.13735
0.13657
0.13655
0.13192
0.1287
0.12009
0.11378
0.1024
0.09372
0.08154
0.071669
0.13577
0.13771
0.13702
0.13706
0.13247
0.12921
0.12056
0.11411
0.10265
0.093798
0.081527
0.071516
0.13603
0.13806
0.13747
0.13756
0.13302
0.12971
0.12103
0.11444
0.10288
0.093865
0.081499
0.071347
0.13628
0.1384
0.1379
0.13806
0.13357
0.13021
0.1215
0.11477
0.10311
0.09392
0.081456
0.07116
0.1365
0.13872
0.13834
0.13856
0.13413
0.13071
0.12196
0.11508
0.10333
0.093961
0.081395
0.070954
0.13671
0.13903
0.13877
0.13905
0.13469
0.13122
0.12243
0.1154
0.10354
0.093989
0.081316
0.070728
0.1369
0.13933
0.13919
0.13954
0.13526
0.13172
0.1229
0.1157
0.10374
0.094001
0.081218
0.07048
0.13708
0.13961
0.13961
0.14004
0.13583
0.13223
0.12338
0.116
0.10393
0.093998
0.0811
0.070209
0.13724
0.13988
0.14004
0.14053
0.13641
0.13274
0.12385
0.11629
0.10411
0.093979
0.080962
0.069914
0.13738
0.14014
0.14046
0.14103
0.13701
0.13325
0.12433
0.11658
0.10429
0.093945
0.080803
0.069594
0.13752
0.1404
0.1409
0.14154
0.13762
0.13378
0.12482
0.11687
0.10445
0.093895
0.080624
0.069248
0.13764
0.14065
0.14135
0.14207
0.13825
0.13432
0.12533
0.11715
0.10461
0.093832
0.080424
0.068876
0.13776
0.14091
0.14182
0.14262
0.13892
0.13489
0.12584
0.11744
0.10477
0.093756
0.080204
0.068476
0.13788
0.14117
0.14231
0.1432
0.13961
0.13548
0.12638
0.11773
0.10493
0.093669
0.079964
0.068048
0.138
0.14145
0.14283
0.14382
0.14035
0.1361
0.12694
0.11804
0.10508
0.093571
0.079706
0.067592
0.13812
0.14174
0.14339
0.14448
0.14114
0.13676
0.12753
0.11835
0.10525
0.093465
0.079431
0.067108
0.13825
0.14207
0.14401
0.1452
0.14199
0.13746
0.12816
0.11869
0.10541
0.093352
0.079139
0.066595
0.1384
0.14242
0.14467
0.14599
0.1429
0.13822
0.12883
0.11904
0.10559
0.093234
0.078831
0.066054
0.13856
0.14281
0.1454
0.14685
0.14389
0.13905
0.12954
0.11942
0.10578
0.093111
0.078508
0.065485
0.13873
0.14324
0.14621
0.14779
0.14496
0.13995
0.1303
0.11983
0.10598
0.092984
0.078168
0.064888
0.13892
0.14371
0.14709
0.14884
0.14613
0.14092
0.13112
0.12028
0.10619
0.092851
0.077811
0.064261
0.13912
0.14424
0.14805
0.14998
0.14739
0.14198
0.132
0.12075
0.10642
0.092711
0.077435
0.063604
0.13932
0.14481
0.1491
0.15124
0.14876
0.14314
0.13294
0.12126
0.10665
0.092561
0.077037
0.062916
0.13952
0.14543
0.15024
0.15262
0.15025
0.14439
0.13394
0.1218
0.10689
0.092394
0.07661
0.062192
0.1397
0.14608
0.15147
0.15412
0.15185
0.14573
0.135
0.12238
0.10713
0.092204
0.076148
0.061429
0.13984
0.14677
0.15278
0.15574
0.15356
0.14718
0.13612
0.12297
0.10736
0.091981
0.075642
0.06062
0.13991
0.14746
0.15417
0.15748
0.15538
0.14873
0.13729
0.12359
0.10757
0.091715
0.075081
0.059757
0.13988
0.14814
0.15561
0.15933
0.15731
0.15036
0.1385
0.12422
0.10776
0.091394
0.074453
0.058829
0.13971
0.14879
0.1571
0.16129
0.15935
0.15209
0.13975
0.12485
0.1079
0.091004
0.073742
0.057824
0.13936
0.14936
0.15861
0.16335
0.16147
0.15389
0.14103
0.12547
0.10798
0.090531
0.072934
0.056726
0.13876
0.14984
0.16013
0.1655
0.16368
0.15577
0.14232
0.12608
0.108
0.089963
0.072014
0.05552
0.13786
0.15016
0.16164
0.16772
0.16597
0.15771
0.14362
0.12665
0.10794
0.089289
0.070969
0.054187
0.13659
0.1503
0.1631
0.17
0.16833
0.1597
0.14493
0.12719
0.1078
0.088502
0.069788
0.052713
0.13488
0.15021
0.16452
0.17235
0.17077
0.16175
0.14622
0.12769
0.10757
0.087599
0.068464
0.051084
0.13264
0.14984
0.16587
0.17477
0.17329
0.16385
0.14751
0.12815
0.10724
0.08658
0.066997
0.04929
0.12978
0.14915
0.16718
0.17728
0.17592
0.16601
0.1488
0.12856
0.10683
0.085452
0.065389
0.04733
0.1262
0.14811
0.16844
0.17991
0.17868
0.16824
0.15009
0.12892
0.10633
0.084222
0.06365
0.045207
0.1218
0.14667
0.16971
0.1827
0.18162
0.17055
0.15138
0.12923
0.10574
0.082898
0.061791
0.042934
0.11644
0.1448
0.17101
0.18572
0.18479
0.17298
0.15268
0.12948
0.10506
0.081478
0.059821
0.040529
0.10993
0.14245
0.17242
0.18906
0.18826
0.17554
0.15397
0.12964
0.10426
0.079949
0.057741
0.038009
0.10206
0.13955
0.17399
0.1928
0.19208
0.17824
0.15525
0.12967
0.10329
0.078278
0.055537
0.035388
0.092515
0.13599
0.17576
0.19702
0.1963
0.18109
0.15647
0.1295
0.1021
0.076404
0.053171
0.032663
0.080849
0.13157
0.17775
0.20179
0.20098
0.18407
0.15758
0.12906
0.10059
0.074242
0.050577
0.029809
0.066467
0.12602
0.17991
0.20717
0.20612
0.18716
0.15851
0.12825
0.098653
0.071684
0.047667
0.026774
0.048548
0.11888
0.1821
0.21313
0.2117
0.19031
0.15918
0.12697
0.096194
0.068623
0.044337
0.023482
0.025991
0.10952
0.18407
0.2196
0.21766
0.19345
0.15952
0.12515
0.093136
0.064974
0.040498
0.019849
-0.0026412
0.097002
0.18537
0.22641
0.2239
0.19653
0.15946
0.12276
0.089457
0.060712
0.036104
0.015809
-0.039191
0.080049
0.18531
0.23326
0.23028
0.19947
0.15901
0.11983
0.085202
0.055887
0.03119
0.011355
-0.085948
0.056877
0.18282
0.23961
0.23659
0.20223
0.15816
0.11642
0.080469
0.050626
0.025878
0.0065652
-0.14568
0.024994
0.17617
0.24454
0.24244
0.20469
0.15694
0.11259
0.07536
0.045082
0.020359
0.0016046
-0.22156
-0.019107
0.1625
0.24631
0.24705
0.20658
0.15528
0.10836
0.069911
0.039359
0.014811
-0.0033188
-0.31699
-0.080343
0.13704
0.24172
0.24879
0.20723
0.15295
0.10362
0.064051
0.033438
0.0093266
-0.0080319
-0.43505
-0.16538
0.092091
0.22501
0.24444
0.20519
0.14941
0.098162
0.057637
0.027208
0.0038771
-0.012463
-0.57736
-0.28252
0.015973
0.18656
0.22818
0.19762
0.14351
0.091626
0.050578
0.020599
-0.0016044
-0.016639
-0.74213
-0.44006
-0.10667
0.11196
0.19043
0.17942
0.13303
0.083333
0.042849
0.013711
-0.0070935
-0.020606
-0.92169
-0.64229
-0.29132
-0.016743
0.11759
0.1425
0.11399
0.071737
0.034162
0.0066869
-0.012466
-0.024373
-1.1013
-0.88499
-0.54647
-0.21607
-0.0063048
0.075923
0.080281
0.054001
0.023532
-0.00062287
-0.017674
-0.027971
-1.2608
-1.1635
-0.88103
-0.50357
-0.20007
-0.034327
0.02365
0.025923
0.0090396
-0.0090133
-0.023077
-0.031691
-1.3608
-1.4326
-1.2517
-0.85229
-0.45543
-0.1898
-0.059525
-0.015512
-0.011474
-0.02001
-0.029777
-0.036408
-1.3818
-1.6405
-1.5769
-1.1731
-0.70287
-0.35015
-0.15083
-0.063494
-0.036177
-0.03351
-0.038098
-0.04232
0.10509
0.065992
0.056067
0.050218
0.046233
0.043279
0.040956
0.038954
0.03729
0.035535
0.034259
0.031802
0.12488
0.081675
0.069319
0.061507
0.05624
0.052382
0.049377
0.046807
0.044695
0.042468
0.040909
0.038049
0.11203
0.076276
0.065065
0.057351
0.052128
0.04832
0.045372
0.042863
0.04083
0.03867
0.037233
0.034432
0.10696
0.075879
0.064966
0.057141
0.051771
0.047841
0.044802
0.042219
0.040143
0.037926
0.036495
0.033541
0.10639
0.078085
0.066992
0.05894
0.05332
0.049181
0.045976
0.043249
0.041068
0.038733
0.037244
0.03411
0.10581
0.079938
0.068754
0.060555
0.054731
0.050411
0.047058
0.044202
0.041924
0.039484
0.037935
0.03467
0.10475
0.08125
0.070123
0.061861
0.055882
0.051411
0.047931
0.044963
0.042599
0.040073
0.03847
0.03512
0.10363
0.082332
0.071353
0.063079
0.056979
0.052373
0.048774
0.045702
0.043258
0.040658
0.039003
0.035607
0.10257
0.083273
0.072512
0.06427
0.058079
0.053352
0.049642
0.046471
0.043948
0.041283
0.039579
0.036176
0.10156
0.084063
0.073584
0.06542
0.059171
0.054341
0.05053
0.047265
0.044668
0.041948
0.040199
0.036827
0.10059
0.0847
0.074558
0.066513
0.060242
0.055331
0.05143
0.048081
0.045415
0.042651
0.040861
0.037554
0.099642
0.085197
0.075429
0.067539
0.061281
0.056314
0.052339
0.048916
0.046188
0.043389
0.041567
0.038355
0.098725
0.08557
0.076198
0.068493
0.062281
0.057281
0.053249
0.049765
0.046982
0.044161
0.042312
0.039219
0.097841
0.085836
0.076869
0.06937
0.063232
0.058223
0.054151
0.05062
0.047793
0.044958
0.043089
0.040134
0.09699
0.086008
0.077446
0.070168
0.064126
0.059132
0.055038
0.051473
0.048611
0.045773
0.043891
0.041084
0.096173
0.086101
0.077935
0.070886
0.06496
0.059999
0.055901
0.052316
0.049429
0.046596
0.044706
0.042051
0.095392
0.086129
0.078343
0.071528
0.06573
0.06082
0.056732
0.05314
0.050239
0.047419
0.045524
0.043019
0.094646
0.086101
0.078679
0.072096
0.066438
0.061592
0.057527
0.05394
0.051033
0.048232
0.046337
0.043972
0.093934
0.086028
0.07895
0.072596
0.067083
0.062312
0.058282
0.05471
0.051805
0.049028
0.047134
0.044896
0.093255
0.085919
0.079164
0.073033
0.067668
0.062981
0.058994
0.055446
0.05255
0.049801
0.047909
0.045781
0.092609
0.08578
0.079327
0.073412
0.068196
0.063598
0.059663
0.056146
0.053265
0.050544
0.048656
0.046619
0.091994
0.085617
0.079446
0.073739
0.06867
0.064167
0.060288
0.056808
0.053946
0.051255
0.04937
0.047405
0.091407
0.085436
0.079527
0.074018
0.069095
0.064688
0.06087
0.057432
0.054592
0.051931
0.05005
0.048135
0.090847
0.085239
0.079574
0.074254
0.069474
0.065164
0.061411
0.058017
0.055203
0.052571
0.050693
0.04881
0.090312
0.08503
0.079592
0.074453
0.069811
0.065598
0.061911
0.058565
0.055779
0.053173
0.051298
0.04943
0.089801
0.084813
0.079585
0.074616
0.070108
0.065993
0.062373
0.059076
0.056319
0.053738
0.051868
0.049999
0.089311
0.084588
0.079557
0.07475
0.070371
0.066351
0.062799
0.059552
0.056826
0.054268
0.052401
0.050519
0.088842
0.084359
0.07951
0.074856
0.070601
0.066675
0.063191
0.059994
0.0573
0.054764
0.0529
0.050996
0.088391
0.084126
0.079447
0.074938
0.070802
0.066968
0.063552
0.060404
0.057743
0.055226
0.053367
0.051433
0.087957
0.08389
0.079371
0.074998
0.070977
0.067232
0.063883
0.060785
0.058156
0.055658
0.053803
0.051836
0.08754
0.083653
0.079282
0.075039
0.071127
0.067469
0.064186
0.061137
0.058541
0.05606
0.054211
0.052208
0.087137
0.083415
0.079183
0.075063
0.071256
0.067682
0.064463
0.061462
0.0589
0.056436
0.054592
0.052555
0.086748
0.083177
0.079075
0.075071
0.071364
0.067872
0.064716
0.061763
0.059234
0.056786
0.054948
0.052878
0.086371
0.082939
0.078959
0.075066
0.071454
0.068041
0.064947
0.062041
0.059544
0.057113
0.055282
0.053183
0.086007
0.082703
0.078837
0.075048
0.071528
0.06819
0.065157
0.062297
0.059833
0.057419
0.055594
0.053471
0.085654
0.082467
0.07871
0.075019
0.071587
0.068322
0.065347
0.062533
0.060101
0.057705
0.055888
0.053745
0.085312
0.082234
0.078577
0.074981
0.071631
0.068438
0.06552
0.062751
0.06035
0.057973
0.056163
0.054007
0.08498
0.082002
0.078441
0.074933
0.071663
0.068538
0.065675
0.06295
0.060581
0.058223
0.056422
0.054258
0.084657
0.081772
0.078301
0.074877
0.071684
0.068624
0.065815
0.063133
0.060795
0.058458
0.056665
0.054499
0.084343
0.081544
0.078157
0.074814
0.071693
0.068697
0.065941
0.063301
0.060993
0.058678
0.056894
0.054732
0.084037
0.081318
0.078012
0.074745
0.071693
0.068758
0.066052
0.063454
0.061176
0.058884
0.057109
0.054956
0.08374
0.081095
0.077864
0.074669
0.071684
0.068808
0.06615
0.063593
0.061345
0.059076
0.057312
0.055172
0.08345
0.080874
0.077715
0.074589
0.071666
0.068847
0.066237
0.063719
0.0615
0.059256
0.057502
0.05538
0.083167
0.080656
0.077564
0.074503
0.071641
0.068876
0.066312
0.063834
0.061643
0.059425
0.057681
0.05558
0.082891
0.08044
0.077411
0.074413
0.071608
0.068896
0.066376
0.063936
0.061773
0.059582
0.057849
0.055772
0.082622
0.080226
0.077258
0.074319
0.071569
0.068907
0.06643
0.064028
0.061892
0.059728
0.058006