/*--------------------------------*- C++ -*----------------------------------*\
  =========                 |
  \\      /  F ield         | OpenFOAM: The Open Source CFD Toolbox
   \\    /   O peration     | Website:  https://openfoam.org
    \\  /    A nd           | Version:  6.0
     \\/     M anipulation  |
\*---------------------------------------------------------------------------*/
FoamFile
{
    version     2.0;
    format      ascii;
    class       surfaceScalarField;
    location    "9";
    object      phi;
}
// * * * * * * * * * * * * * * * * * * * * * * * * * * * * * * * * * * * * * //

dimensions      [0 3 -1 0 0 0 0];

internalField   nonuniform List<scalar> 
26699
(
2.0051e-05
0.005201
1.21e-09
4.0126e-05
0.0051116
5.9639e-05
0.0049351
7.8188e-05
0.0046741
9.5417e-05
0.0043332
0.00011102
0.0039182
0.00012472
0.0034362
0.00013627
0.0028953
0.00014547
0.002305
0.00015182
0.0016755
0.00015719
0.0010154
0.00046492
3.4478e-05
2.0051e-05
0.0051809
2.804e-09
4.0127e-05
0.0050916
5.9641e-05
0.0049155
7.8191e-05
0.0046556
9.5418e-05
0.004316
0.00011103
0.0039026
0.00012471
0.0034225
0.00013625
0.0028838
0.00014546
0.0022958
0.00015107
0.0016699
0.00015895
0.0010075
0.0005587
6.5163e-05
2.0051e-05
0.0051609
4.199e-09
4.0128e-05
0.0050715
5.9643e-05
0.004896
7.8194e-05
0.004637
9.5421e-05
0.0042988
0.00011103
0.003887
0.00012471
0.0034088
0.00013623
0.0028723
0.00014548
0.0022865
0.00015031
0.0016651
0.00016022
0.00099759
0.00062856
9.0369e-05
2.0051e-05
0.0051408
5.691e-09
4.0129e-05
0.0050514
5.9645e-05
0.0048765
7.8197e-05
0.0046185
9.5424e-05
0.0042815
0.00011103
0.0038714
0.00012471
0.0033951
0.00013621
0.0028608
0.00014552
0.0022772
0.00014957
0.001661
0.00016096
0.0009862
0.00067892
0.0001106
2.0051e-05
0.0051208
7.196e-09
4.013e-05
0.0050313
5.9647e-05
0.004857
7.82e-05
0.0045999
9.5428e-05
0.0042643
0.00011103
0.0038558
0.0001247
0.0033814
0.00013618
0.0028493
0.0001456
0.0022678
0.00014888
0.0016577
0.00016118
0.0009739
0.00071345
0.00012665
2.005e-05
0.0051007
8.7103e-09
4.0131e-05
0.0050112
5.965e-05
0.0048375
7.8203e-05
0.0045814
9.5431e-05
0.0042471
0.00011103
0.0038402
0.0001247
0.0033678
0.00013616
0.0028378
0.00014569
0.0022582
0.00014826
0.0016552
0.00016094
0.00096122
0.00073519
0.0001392
2.005e-05
0.0050807
1.0231e-08
4.0133e-05
0.0049912
5.9652e-05
0.004818
7.8207e-05
0.0045628
9.5435e-05
0.0042299
0.00011104
0.0038246
0.0001247
0.0033541
0.00013613
0.0028264
0.00014581
0.0022486
0.00014773
0.0016532
0.00016034
0.0009486
0.00074671
0.00014882
2.005e-05
0.0050606
1.1758e-08
4.0134e-05
0.0049711
5.9654e-05
0.0047984
7.821e-05
0.0045442
9.5438e-05
0.0042126
0.00011104
0.003809
0.0001247
0.0033405
0.00013609
0.002815
0.00014593
0.0022387
0.00014729
0.0016519
0.00015947
0.00093642
0.00075018
0.000156
2.005e-05
0.0050405
1.329e-08
4.0135e-05
0.004951
5.9656e-05
0.0047789
7.8213e-05
0.0045257
9.5442e-05
0.0041954
0.00011104
0.0037934
0.00012471
0.0033268
0.00013605
0.0028037
0.00014607
0.0022287
0.00014696
0.001651
0.00015842
0.00092497
0.00074741
0.00016118
2.005e-05
0.0050205
1.4827e-08
4.0136e-05
0.0049309
5.9659e-05
0.0047594
7.8217e-05
0.0045071
9.5445e-05
0.0041782
0.00011105
0.0037778
0.00012471
0.0033131
0.00013601
0.0027924
0.00014622
0.0022185
0.00014674
0.0016505
0.00015726
0.00091445
0.00073992
0.00016475
2.0049e-05
0.0050004
1.6371e-08
4.0137e-05
0.0049108
5.9661e-05
0.0047399
7.822e-05
0.0044886
9.5449e-05
0.0041609
0.00011105
0.0037622
0.00012471
0.0032995
0.00013596
0.0027812
0.00014636
0.0022081
0.00014663
0.0016502
0.00015605
0.00090503
0.00072896
0.00016702
2.0049e-05
0.0049803
1.7921e-08
4.0138e-05
0.0048907
5.9663e-05
0.0047203
7.8223e-05
0.00447
9.5452e-05
0.0041437
0.00011105
0.0037466
0.00012472
0.0032858
0.00013591
0.00277
0.0001465
0.0021975
0.00014662
0.0016501
0.00015487
0.00089678
0.00071554
0.00016828
2.0049e-05
0.0049603
1.9478e-08
4.0139e-05
0.0048706
5.9666e-05
0.0047008
7.8226e-05
0.0044514
9.5456e-05
0.0041265
0.00011106
0.003731
0.00012473
0.0032721
0.00013585
0.0027588
0.00014663
0.0021867
0.00014671
0.00165
0.00015373
0.00088975
0.0007005
0.00016877
2.0049e-05
0.0049402
2.1043e-08
4.014e-05
0.0048506
5.9668e-05
0.0046813
7.823e-05
0.0044329
9.546e-05
0.0041093
0.00011106
0.0037154
0.00012474
0.0032584
0.00013579
0.0027478
0.00014676
0.0021757
0.00014688
0.0016499
0.00015269
0.00088394
0.00068452
0.00016868
2.0049e-05
0.0049201
2.2616e-08
4.0141e-05
0.0048305
5.967e-05
0.0046618
7.8233e-05
0.0044143
9.5463e-05
0.004092
0.00011106
0.0036998
0.00012475
0.0032448
0.00013573
0.0027368
0.00014687
0.0021646
0.00014713
0.0016496
0.00015176
0.00087931
0.00066811
0.00016816
2.0048e-05
0.0049
2.4196e-08
4.0143e-05
0.0048104
5.9673e-05
0.0046422
7.8236e-05
0.0043958
9.5467e-05
0.0040748
0.00011106
0.0036842
0.00012476
0.0032311
0.00013567
0.0027259
0.00014697
0.0021533
0.00014745
0.0016491
0.00015096
0.00087581
0.00065171
0.00016736
2.0048e-05
0.00488
2.5785e-08
4.0144e-05
0.0047903
5.9675e-05
0.0046227
7.824e-05
0.0043772
9.5471e-05
0.0040576
0.00011107
0.0036686
0.00012477
0.0032174
0.0001356
0.0027151
0.00014705
0.0021419
0.00014782
0.0016484
0.00015029
0.00087334
0.00063562
0.00016637
2.0048e-05
0.0048599
2.7383e-08
4.0145e-05
0.0047702
5.9677e-05
0.0046032
7.8243e-05
0.0043586
9.5475e-05
0.0040403
0.00011107
0.003653
0.00012479
0.0032036
0.00013553
0.0027043
0.00014712
0.0021303
0.00014824
0.0016473
0.00014976
0.00087182
0.00062009
0.00016529
2.0048e-05
0.0048398
2.8988e-08
4.0146e-05
0.0047501
5.9679e-05
0.0045836
7.8247e-05
0.0043401
9.5479e-05
0.0040231
0.00011107
0.0036374
0.00012481
0.0031899
0.00013546
0.0026937
0.00014716
0.0021186
0.00014869
0.0016457
0.00014937
0.00087115
0.00060527
0.00016418
2.0047e-05
0.0048197
3.0602e-08
4.0147e-05
0.00473
5.9682e-05
0.0045641
7.825e-05
0.0043215
9.5483e-05
0.0040059
0.00011107
0.0036218
0.00012483
0.0031761
0.0001354
0.0026831
0.00014719
0.0021068
0.00014916
0.0016438
0.00014911
0.0008712
0.00059129
0.00016309
2.0047e-05
0.0047997
3.2223e-08
4.0148e-05
0.0047099
5.9684e-05
0.0045446
7.8253e-05
0.0043029
9.5487e-05
0.0039886
0.00011108
0.0036062
0.00012485
0.0031624
0.00013533
0.0026726
0.00014719
0.0020949
0.00014965
0.0016413
0.00014897
0.00087187
0.0005782
0.00016206
2.0047e-05
0.0047796
3.3853e-08
4.0149e-05
0.0046898
5.9686e-05
0.004525
7.8257e-05
0.0042844
9.5491e-05
0.0039714
0.00011108
0.0035906
0.00012487
0.0031486
0.00013526
0.0026622
0.00014718
0.002083
0.00015014
0.0016383
0.00014896
0.00087305
0.00056604
0.00016112
2.0046e-05
0.0047595
3.5491e-08
4.015e-05
0.0046697
5.9689e-05
0.0045055
7.826e-05
0.0042658
9.5495e-05
0.0039542
0.00011108
0.003575
0.0001249
0.0031348
0.0001352
0.0026519
0.00014715
0.002071
0.00015062
0.0016349
0.00014904
0.00087463
0.00055481
0.00016027
2.0046e-05
0.0047394
3.7138e-08
4.0151e-05
0.0046496
5.9691e-05
0.004486
7.8264e-05
0.0042472
9.55e-05
0.0039369
0.00011108
0.0035595
0.00012493
0.0031209
0.00013514
0.0026417
0.00014709
0.0020591
0.0001511
0.0016309
0.00014922
0.0008765
0.00054449
0.00015954
2.0046e-05
0.0047193
3.8792e-08
4.0152e-05
0.0046295
5.9693e-05
0.0044664
7.8267e-05
0.0042286
9.5504e-05
0.0039197
0.00011108
0.0035439
0.00012496
0.003107
0.00013508
0.0026316
0.00014702
0.0020471
0.00015156
0.0016263
0.00014948
0.00087858
0.00053504
0.00015893
2.0046e-05
0.0046992
4.0454e-08
4.0153e-05
0.0046093
5.9696e-05
0.0044469
7.827e-05
0.0042101
9.5509e-05
0.0039025
0.00011108
0.0035283
0.00012499
0.0030931
0.00013502
0.0026216
0.00014693
0.0020352
0.00015199
0.0016213
0.00014981
0.00088077
0.0005264
0.00015844
2.0045e-05
0.0046792
4.2125e-08
4.0154e-05
0.0045892
5.9698e-05
0.0044273
7.8274e-05
0.0041915
9.5513e-05
0.0038852
0.00011108
0.0035128
0.00012502
0.0030792
0.00013497
0.0026116
0.00014683
0.0020234
0.0001524
0.0016157
0.00015019
0.00088299
0.00051853
0.00015806
2.0045e-05
0.0046591
4.3804e-08
4.0155e-05
0.0045691
5.97e-05
0.0044078
7.8277e-05
0.0041729
9.5518e-05
0.003868
0.00011108
0.0034972
0.00012505
0.0030652
0.00013493
0.0026017
0.00014671
0.0020116
0.00015279
0.0016096
0.00015061
0.00088516
0.00051135
0.00015779
2.0045e-05
0.004639
4.5491e-08
4.0156e-05
0.004549
5.9703e-05
0.0043882
7.8281e-05
0.0041543
9.5523e-05
0.0038507
0.00011108
0.0034816
0.00012509
0.0030512
0.00013489
0.0025919
0.00014658
0.0019999
0.00015313
0.0016031
0.00015107
0.00088723
0.0005048
0.00015762
2.0044e-05
0.0046189
4.7186e-08
4.0158e-05
0.0045289
5.9705e-05
0.0043687
7.8284e-05
0.0041358
9.5528e-05
0.0038335
0.00011108
0.0034661
0.00012512
0.0030372
0.00013486
0.0025822
0.00014643
0.0019883
0.00015345
0.0015961
0.00015155
0.00088912
0.00049882
0.00015753
2.0044e-05
0.0045988
4.889e-08
4.0159e-05
0.0045088
5.9707e-05
0.0043491
7.8288e-05
0.0041172
9.5534e-05
0.0038162
0.00011107
0.0034506
0.00012516
0.0030231
0.00013483
0.0025725
0.00014628
0.0019769
0.00015372
0.0015886
0.00015204
0.00089081
0.00049333
0.00015753
2.0044e-05
0.0045787
5.0602e-08
4.016e-05
0.0044887
5.971e-05
0.0043296
7.8292e-05
0.0040986
9.5539e-05
0.003799
0.00011107
0.003435
0.0001252
0.0030089
0.00013482
0.0025629
0.00014611
0.0019656
0.00015396
0.0015808
0.00015254
0.00089223
0.00048827
0.00015759
2.0043e-05
0.0045586
5.2323e-08
4.0161e-05
0.0044686
5.9712e-05
0.00431
7.8295e-05
0.00408
9.5545e-05
0.0037817
0.00011107
0.0034195
0.00012524
0.0029948
0.00013481
0.0025533
0.00014594
0.0019545
0.00015416
0.0015725
0.00015303
0.00089337
0.00048358
0.00015772
2.0043e-05
0.0045385
5.4053e-08
4.0162e-05
0.0044484
5.9714e-05
0.0042905
7.8299e-05
0.0040614
9.555e-05
0.0037645
0.00011107
0.003404
0.00012527
0.0029806
0.0001348
0.0025438
0.00014576
0.0019435
0.00015433
0.001564
0.00015351
0.00089419
0.00047921
0.00015789
2.0043e-05
0.0045184
5.5792e-08
4.0163e-05
0.0044283
5.9717e-05
0.0042709
7.8302e-05
0.0040428
9.5556e-05
0.0037472
0.00011106
0.0033885
0.00012531
0.0029663
0.00013481
0.0025343
0.00014558
0.0019327
0.00015446
0.0015551
0.00015398
0.00089467
0.00047509
0.00015809
2.0042e-05
0.0044983
5.754e-08
4.0164e-05
0.0044082
5.9719e-05
0.0042514
7.8306e-05
0.0040242
9.5563e-05
0.00373
0.00011106
0.003373
0.00012535
0.002952
0.00013482
0.0025248
0.0001454
0.0019222
0.00015455
0.0015459
0.00015442
0.00089479
0.00047119
0.00015833
2.0042e-05
0.0044782
5.9297e-08
4.0165e-05
0.0043881
5.9722e-05
0.0042318
7.8309e-05
0.0040057
9.5569e-05
0.0037127
0.00011105
0.0033575
0.00012539
0.0029377
0.00013484
0.0025154
0.00014522
0.0019118
0.00015461
0.0015365
0.00015484
0.00089456
0.00046745
0.00015858
2.0042e-05
0.0044581
6.1063e-08
4.0166e-05
0.0043679
5.9724e-05
0.0042123
7.8313e-05
0.0039871
9.5576e-05
0.0036955
0.00011105
0.003342
0.00012543
0.0029233
0.00013487
0.0025059
0.00014504
0.0019016
0.00015464
0.0015269
0.00015524
0.00089396
0.00046385
0.00015884
2.0041e-05
0.004438
6.284e-08
4.0167e-05
0.0043478
5.9727e-05
0.0041927
7.8317e-05
0.0039685
9.5583e-05
0.0036782
0.00011104
0.0033266
0.00012547
0.0029089
0.00013491
0.0024965
0.00014486
0.0018917
0.00015463
0.0015172
0.0001556
0.000893
0.00046034
0.00015911
2.0041e-05
0.0044179
6.4626e-08
4.0168e-05
0.0043277
5.9729e-05
0.0041731
7.832e-05
0.0039499
9.559e-05
0.0036609
0.00011103
0.0033111
0.00012551
0.0028944
0.00013496
0.002487
0.00014468
0.001882
0.0001546
0.0015072
0.00015593
0.00089167
0.00045689
0.00015937
2.0041e-05
0.0043978
6.6422e-08
4.0169e-05
0.0043076
5.9732e-05
0.0041536
7.8324e-05
0.0039313
9.5597e-05
0.0036437
0.00011103
0.0032957
0.00012554
0.0028799
0.00013501
0.0024776
0.00014452
0.0018725
0.00015454
0.0014972
0.00015622
0.00088999
0.00045348
0.00015963
2.004e-05
0.0043777
6.8228e-08
4.017e-05
0.0042874
5.9734e-05
0.004134
7.8327e-05
0.0039127
9.5605e-05
0.0036264
0.00011102
0.0032803
0.00012558
0.0028653
0.00013507
0.0024681
0.00014436
0.0018632
0.00015446
0.0014871
0.00015648
0.00088797
0.00045009
0.00015988
2.004e-05
0.0043576
7.0044e-08
4.0171e-05
0.0042673
5.9736e-05
0.0041144
7.8331e-05
0.0038941
9.5613e-05
0.0036091
0.00011101
0.0032649
0.00012561
0.0028507
0.00013514
0.0024585
0.0001442
0.0018541
0.00015436
0.001477
0.00015671
0.00088562
0.00044669
0.00016011
2.0039e-05
0.0043375
7.187e-08
4.0172e-05
0.0042472
5.9739e-05
0.0040949
7.8334e-05
0.0038755
9.5621e-05
0.0035918
0.000111
0.0032495
0.00012564
0.0028361
0.00013522
0.002449
0.00014406
0.0018453
0.00015424
0.0014668
0.0001569
0.00088296
0.00044327
0.00016032
2.0039e-05
0.0043173
7.3707e-08
4.0173e-05
0.004227
5.9742e-05
0.0040753
7.8338e-05
0.0038569
9.5629e-05
0.0035745
0.000111
0.0032341
0.00012567
0.0028214
0.00013531
0.0024393
0.00014393
0.0018367
0.0001541
0.0014566
0.00015707
0.00087999
0.00043983
0.00016051
2.0039e-05
0.0042972
7.5555e-08
4.0174e-05
0.0042069
5.9744e-05
0.0040557
7.8342e-05
0.0038383
9.5638e-05
0.0035572
0.00011099
0.0032188
0.0001257
0.0028067
0.0001354
0.0024296
0.00014381
0.0018282
0.00015395
0.0014465
0.00015719
0.00087675
0.00043634
0.00016068
2.0038e-05
0.0042771
7.7413e-08
4.0175e-05
0.0041868
5.9747e-05
0.0040362
7.8345e-05
0.0038197
9.5647e-05
0.0035399
0.00011098
0.0032035
0.00012573
0.0027919
0.00013549
0.0024199
0.0001437
0.00182
0.00015379
0.0014364
0.00015729
0.00087325
0.00043281
0.00016083
2.0038e-05
0.004257
7.9282e-08
4.0176e-05
0.0041666
5.9749e-05
0.0040166
7.8349e-05
0.0038011
9.5657e-05
0.0035226
0.00011097
0.0031881
0.00012575
0.0027772
0.0001356
0.00241
0.00014361
0.001812
0.00015363
0.0014264
0.00015736
0.00086951
0.00042923
0.00016095
2.0037e-05
0.0042369
8.1162e-08
4.0177e-05
0.0041465
5.9752e-05
0.003997
7.8352e-05
0.0037825
9.5667e-05
0.0035053
0.00011096
0.0031729
0.00012577
0.0027623
0.0001357
0.0024001
0.00014353
0.0018042
0.00015345
0.0014164
0.00015741
0.00086556
0.00042559
0.00016104
2.0037e-05
0.0042168
8.3053e-08
4.0179e-05
0.0041263
5.9754e-05
0.0039774
7.8356e-05
0.0037639
9.5677e-05
0.003488
0.00011095
0.0031576
0.00012579
0.0027475
0.00013582
0.0023901
0.00014346
0.0017965
0.00015327
0.0014066
0.00015743
0.0008614
0.0004219
0.00016112
2.0037e-05
0.0041966
8.4956e-08
4.018e-05
0.0041062
5.9757e-05
0.0039579
7.8359e-05
0.0037453
9.5687e-05
0.0034706
0.00011094
0.0031423
0.00012581
0.0027326
0.00013593
0.0023799
0.00014341
0.0017891
0.0001531
0.0013969
0.00015743
0.00085708
0.00041815
0.00016117
2.0036e-05
0.0041765
8.687e-08
4.0181e-05
0.0040861
5.976e-05
0.0039383
7.8363e-05
0.0037267
9.5698e-05
0.0034533
0.00011093
0.0031271
0.00012582
0.0027177
0.00013605
0.0023697
0.00014337
0.0017817
0.00015292
0.0013874
0.0001574
0.00085259
0.00041436
0.0001612
2.0036e-05
0.0041564
8.8795e-08
4.0182e-05
0.0040659
5.9762e-05
0.0039187
7.8366e-05
0.0037081
9.5709e-05
0.003436
0.00011092
0.0031119
0.00012583
0.0027028
0.00013617
0.0023594
0.00014335
0.0017746
0.00015275
0.001378
0.00015737
0.00084797
0.00041051
0.00016121
2.0035e-05
0.0041363
9.0733e-08
4.0183e-05
0.0040458
5.9765e-05
0.0038991
7.837e-05
0.0036895
9.5721e-05
0.0034186
0.00011091
0.0030967
0.00012584
0.0026879
0.0001363
0.0023489
0.00014335
0.0017675
0.00015258
0.0013688
0.00015731
0.00084324
0.00040663
0.0001612
2.0035e-05
0.0041161
9.2683e-08
4.0184e-05
0.0040256
5.9768e-05
0.0038795
7.8373e-05
0.0036709
9.5732e-05
0.0034013
0.00011091
0.0030815
0.00012584
0.002673
0.00013642
0.0023383
0.00014335
0.0017606
0.00015242
0.0013597
0.00015725
0.00083842
0.0004027
0.00016117
2.0034e-05
0.004096
9.4645e-08
4.0185e-05
0.0040055
5.9771e-05
0.00386
7.8376e-05
0.0036523
9.5745e-05
0.0033839
0.0001109
0.0030664
0.00012584
0.002658
0.00013655
0.0023276
0.00014338
0.0017538
0.00015227
0.0013508
0.00015717
0.00083351
0.00039874
0.00016113
2.0034e-05
0.0040759
9.662e-08
4.0186e-05
0.0039853
5.9774e-05
0.0038404
7.838e-05
0.0036337
9.5757e-05
0.0033665
0.00011089
0.0030512
0.00012584
0.0026431
0.00013668
0.0023168
0.00014341
0.001747
0.00015213
0.0013421
0.00015709
0.00082855
0.00039476
0.00016108
2.0033e-05
0.0040558
9.8608e-08
4.0187e-05
0.0039652
5.9776e-05
0.0038208
7.8383e-05
0.0036151
9.577e-05
0.0033491
0.00011088
0.0030361
0.00012584
0.0026281
0.0001368
0.0023058
0.00014346
0.0017404
0.000152
0.0013335
0.00015701
0.00082354
0.00039075
0.00016101
2.0033e-05
0.0040356
1.0061e-07
4.0188e-05
0.003945
5.9779e-05
0.0038012
7.8386e-05
0.0035965
9.5783e-05
0.0033317
0.00011087
0.003021
0.00012583
0.0026132
0.00013693
0.0022947
0.00014353
0.0017338
0.00015188
0.0013252
0.00015692
0.00081851
0.00038673
0.00016094
2.0033e-05
0.0040155
1.0262e-07
4.0189e-05
0.0039248
5.9782e-05
0.0037816
7.8389e-05
0.0035779
9.5797e-05
0.0033143
0.00011087
0.003006
0.00012582
0.0025982
0.00013705
0.0022835
0.0001436
0.0017272
0.00015178
0.001317
0.00015683
0.00081346
0.0003827
0.00016086
2.0032e-05
0.0039953
1.0465e-07
4.019e-05
0.0039047
5.9785e-05
0.003762
7.8393e-05
0.0035593
9.5811e-05
0.0032969
0.00011086
0.0029909
0.0001258
0.0025833
0.00013718
0.0022721
0.00014369
0.0017207
0.00015169
0.001309
0.00015674
0.00080841
0.00037866
0.00016077
2.0032e-05
0.0039752
1.067e-07
4.0191e-05
0.0038845
5.9788e-05
0.0037424
7.8396e-05
0.0035407
9.5825e-05
0.0032795
0.00011086
0.0029759
0.00012578
0.0025684
0.0001373
0.0022606
0.00014379
0.0017142
0.00015162
0.0013012
0.00015665
0.00080337
0.00037464
0.00016068
2.0031e-05
0.0039551
1.0875e-07
4.0193e-05
0.0038644
5.9791e-05
0.0037228
7.8399e-05
0.003522
9.5839e-05
0.003262
0.00011085
0.0029609
0.00012576
0.0025535
0.00013741
0.0022489
0.0001439
0.0017077
0.00015156
0.0012935
0.00015657
0.00079835
0.00037062
0.00016059
2.0031e-05
0.0039349
1.1083e-07
4.0194e-05
0.0038442
5.9794e-05
0.0037032
7.8402e-05
0.0035034
9.5854e-05
0.0032446
0.00011085
0.0029459
0.00012574
0.0025386
0.00013753
0.0022371
0.00014402
0.0017012
0.00015151
0.001286
0.0001565
0.00079337
0.00036662
0.0001605
2.003e-05
0.0039148
1.1291e-07
4.0195e-05
0.003824
5.9797e-05
0.0036836
7.8405e-05
0.0034848
9.5869e-05
0.0032271
0.00011085
0.0029309
0.00012571
0.0025237
0.00013764
0.0022252
0.00014415
0.0016947
0.00015148
0.0012787
0.00015643
0.00078842
0.00036265
0.00016041
2.003e-05
0.0038946
1.1502e-07
4.0196e-05
0.0038039
5.98e-05
0.003664
7.8408e-05
0.0034662
9.5885e-05
0.0032096
0.00011085
0.0029159
0.00012568
0.0025089
0.00013774
0.0022132
0.00014428
0.0016882
0.00015147
0.0012715
0.00015638
0.00078351
0.0003587
0.00016033
2.0029e-05
0.0038745
1.1713e-07
4.0197e-05
0.0037837
5.9803e-05
0.0036444
7.841e-05
0.0034476
9.59e-05
0.0031922
0.00011085
0.002901
0.00012565
0.0024941
0.00013784
0.002201
0.00014442
0.0016816
0.00015148
0.0012644
0.00015633
0.00077866
0.00035478
0.00016025
2.0029e-05
0.0038543
1.1927e-07
4.0198e-05
0.0037635
5.9806e-05
0.0036248
7.8413e-05
0.003429
9.5916e-05
0.0031746
0.00011085
0.002886
0.00012562
0.0024793
0.00013794
0.0021886
0.00014457
0.001675
0.00015149
0.0012575
0.0001563
0.00077386
0.0003509
0.00016018
2.0028e-05
0.0038342
1.2142e-07
4.0199e-05
0.0037434
5.981e-05
0.0036052
7.8416e-05
0.0034104
9.5932e-05
0.0031571
0.00011086
0.0028711
0.00012558
0.0024646
0.00013802
0.0021762
0.00014473
0.0016683
0.00015153
0.0012507
0.00015627
0.00076911
0.00034706
0.00016011
2.0028e-05
0.003814
1.2358e-07
4.02e-05
0.0037232
5.9813e-05
0.0035856
7.8419e-05
0.0033918
9.5948e-05
0.0031396
0.00011086
0.0028562
0.00012554
0.0024499
0.00013811
0.0021636
0.00014489
0.0016615
0.00015158
0.001244
0.00015626
0.00076443
0.00034326
0.00016005
2.0027e-05
0.0037939
1.2577e-07
4.0201e-05
0.003703
5.9816e-05
0.0035659
7.8421e-05
0.0033732
9.5965e-05
0.0031221
0.00011087
0.0028413
0.0001255
0.0024353
0.00013818
0.002151
0.00014505
0.0016546
0.00015164
0.0012374
0.00015626
0.00075981
0.00033951
0.00016001
2.0027e-05
0.0037737
1.2797e-07
4.0203e-05
0.0036828
5.982e-05
0.0035463
7.8424e-05
0.0033546
9.5982e-05
0.0031045
0.00011087
0.0028264
0.00012546
0.0024207
0.00013825
0.0021382
0.00014521
0.0016477
0.00015171
0.0012309
0.00015627
0.00075525
0.00033582
0.00015997
2.0026e-05
0.0037536
1.3018e-07
4.0204e-05
0.0036627
5.9823e-05
0.0035267
7.8426e-05
0.003336
9.5998e-05
0.0030869
0.00011088
0.0028115
0.00012542
0.0024062
0.00013832
0.0021253
0.00014538
0.0016406
0.0001518
0.0012245
0.0001563
0.00075075
0.00033217
0.00015994
2.0026e-05
0.0037334
1.3242e-07
4.0205e-05
0.0036425
5.9827e-05
0.0035071
7.8428e-05
0.0033174
9.6015e-05
0.0030693
0.00011089
0.0027966
0.00012537
0.0023917
0.00013837
0.0021123
0.00014554
0.0016334
0.0001519
0.0012182
0.00015634
0.00074631
0.00032858
0.00015993
2.0025e-05
0.0037133
1.3467e-07
4.0206e-05
0.0036223
5.983e-05
0.0034875
7.8431e-05
0.0032988
9.6032e-05
0.0030517
0.00011091
0.0027818
0.00012532
0.0023773
0.00013842
0.0020992
0.0001457
0.0016261
0.000152
0.0012119
0.00015639
0.00074192
0.00032504
0.00015993
2.0025e-05
0.0036931
1.3694e-07
4.0207e-05
0.0036021
5.9834e-05
0.0034678
7.8433e-05
0.0032802
9.6049e-05
0.0030341
0.00011092
0.0027669
0.00012528
0.0023629
0.00013846
0.002086
0.00014587
0.0016187
0.00015212
0.0012056
0.00015645
0.00073759
0.00032155
0.00015993
2.0024e-05
0.0036729
1.3923e-07
4.0209e-05
0.0035819
5.9837e-05
0.0034482
7.8435e-05
0.0032616
9.6066e-05
0.0030165
0.00011094
0.002752
0.00012523
0.0023486
0.0001385
0.0020727
0.00014603
0.0016112
0.00015225
0.0011994
0.00015652
0.00073332
0.00031813
0.00015995
2.0024e-05
0.0036528
1.4153e-07
4.021e-05
0.0035618
5.9841e-05
0.0034286
7.8437e-05
0.003243
9.6083e-05
0.0029988
0.00011096
0.0027371
0.00012518
0.0023344
0.00013852
0.0020594
0.00014618
0.0016036
0.00015238
0.0011932
0.00015661
0.00072909
0.00031475
0.00015998
2.0023e-05
0.0036326
1.4385e-07
4.0211e-05
0.0035416
5.9845e-05
0.0034089
7.8439e-05
0.0032244
9.61e-05
0.0029812
0.00011098
0.0027223
0.00012513
0.0023202
0.00013855
0.002046
0.00014634
0.0015958
0.00015252
0.001187
0.00015671
0.0007249
0.00031144
0.00016002
2.0023e-05
0.0036124
1.462e-07
4.0212e-05
0.0035214
5.9848e-05
0.0033893
7.8441e-05
0.0032058
9.6117e-05
0.0029635
0.000111
0.0027074
0.00012509
0.0023061
0.00013856
0.0020325
0.00014649
0.0015878
0.00015267
0.0011808
0.00015681
0.00072075
0.00030817
0.00016007
2.0022e-05
0.0035923
1.4856e-07
4.0213e-05
0.0035012
5.9852e-05
0.0033697
7.8443e-05
0.0031872
9.6134e-05
0.0029458
0.00011102
0.0026925
0.00012504
0.0022921
0.00013857
0.002019
0.00014663
0.0015798
0.00015281
0.0011746
0.00015693
0.00071664
0.00030497
0.00016014
2.0022e-05
0.0035721
1.5094e-07
4.0215e-05
0.003481
5.9856e-05
0.00335
7.8445e-05
0.0031686
9.615e-05
0.0029281
0.00011105
0.0026776
0.00012499
0.0022782
0.00013857
0.0020054
0.00014677
0.0015716
0.00015297
0.0011684
0.00015705
0.00071256
0.00030181
0.00016021
2.0021e-05
0.0035519
1.5334e-07
4.0216e-05
0.0034608
5.986e-05
0.0033304
7.8447e-05
0.00315
9.6167e-05
0.0029104
0.00011107
0.0026627
0.00012495
0.0022643
0.00013856
0.0019918
0.0001469
0.0015632
0.00015312
0.0011622
0.00015718
0.0007085
0.0002987
0.00016029
2.002e-05
0.0035317
1.5576e-07
4.0217e-05
0.0034406
5.9864e-05
0.0033107
7.8448e-05
0.0031315
9.6183e-05
0.0028927
0.0001111
0.0026478
0.0001249
0.0022505
0.00013855
0.0019781
0.00014702
0.0015548
0.00015327
0.001156
0.00015731
0.00070446
0.00029564
0.00016037
2.002e-05
0.0035116
1.5819e-07
4.0218e-05
0.0034204
5.9868e-05
0.0032911
7.845e-05
0.0031129
9.6199e-05
0.0028749
0.00011113
0.0026328
0.00012486
0.0022368
0.00013853
0.0019645
0.00014714
0.0015461
0.00015343
0.0011497
0.00015746
0.00070043
0.00029263
0.00016047
2.0019e-05
0.0034914
1.6065e-07
4.022e-05
0.0034002
5.9873e-05
0.0032714
7.8452e-05
0.0030943
9.6215e-05
0.0028571
0.00011117
0.0026179
0.00012482
0.0022231
0.0001385
0.0019508
0.00014725
0.0015374
0.00015358
0.0011433
0.0001576
0.00069641
0.00028967
0.00016057
2.0019e-05
0.0034712
1.6313e-07
4.0221e-05
0.00338
5.9877e-05
0.0032518
7.8453e-05
0.0030757
9.623e-05
0.0028394
0.0001112
0.0026029
0.00012478
0.0022096
0.00013847
0.0019371
0.00014735
0.0015285
0.00015373
0.001137
0.00015775
0.00069239
0.00028674
0.00016067
2.0018e-05
0.003451
1.6563e-07
4.0222e-05
0.0033598
5.9881e-05
0.0032321
7.8455e-05
0.0030571
9.6245e-05
0.0028216
0.00011124
0.0025879
0.00012474
0.0021961
0.00013844
0.0019234
0.00014744
0.0015195
0.00015388
0.0011305
0.0001579
0.00068838
0.00028386
0.00016078
2.0018e-05
0.0034308
1.6815e-07
4.0223e-05
0.0033396
5.9886e-05
0.0032125
7.8456e-05
0.0030386
9.6259e-05
0.0028038
0.00011128
0.0025729
0.0001247
0.0021826
0.0001384
0.0019097
0.00014752
0.0015104
0.00015403
0.001124
0.00015805
0.00068435
0.00028101
0.0001609
2.0017e-05
0.0034106
1.7069e-07
4.0225e-05
0.0033194
5.989e-05
0.0031928
7.8458e-05
0.00302
9.6274e-05
0.002786
0.00011132
0.0025579
0.00012467
0.0021693
0.00013835
0.001896
0.0001476
0.0015012
0.00015417
0.0011174
0.0001582
0.00068032
0.00027819
0.00016102
2.0017e-05
0.0033905
1.7325e-07
4.0226e-05
0.0032992
5.9895e-05
0.0031731
7.846e-05
0.0030014
9.6287e-05
0.0027681
0.00011136
0.0025428
0.00012464
0.002156
0.0001383
0.0018823
0.00014766
0.0014918
0.0001543
0.0011108
0.00015835
0.00067626
0.00027541
0.00016113
2.0016e-05
0.0033703
1.7584e-07
4.0227e-05
0.003279
5.99e-05
0.0031534
7.8461e-05
0.0029829
9.63e-05
0.0027503
0.0001114
0.0025277
0.00012462
0.0021428
0.00013825
0.0018687
0.00014772
0.0014823
0.00015443
0.0011041
0.0001585
0.00067219
0.00027266
0.00016125
2.0015e-05
0.0033501
1.7845e-07
4.0229e-05
0.0032587
5.9904e-05
0.0031338
7.8463e-05
0.0029643
9.6313e-05
0.0027324
0.00011145
0.0025125
0.00012459
0.0021296
0.0001382
0.0018551
0.00014777
0.0014727
0.00015455
0.0010973
0.00015865
0.0006681
0.00026993
0.00016137
2.0015e-05
0.0033299
1.8107e-07
4.023e-05
0.0032385
5.9909e-05
0.0031141
7.8464e-05
0.0029458
9.6325e-05
0.0027146
0.00011149
0.0024974
0.00012457
0.0021166
0.00013814
0.0018415
0.00014781
0.0014631
0.00015467
0.0010905
0.00015879
0.00066397
0.00026723
0.00016149
2.0014e-05
0.0033097
1.8373e-07
4.0231e-05
0.0032183
5.9914e-05
0.0030944
7.8466e-05
0.0029272
9.6336e-05
0.0026967
0.00011154
0.0024822
0.00012456
0.0021035
0.00013808
0.001828
0.00014784
0.0014533
0.00015477
0.0010835
0.00015893
0.00065982
0.00026455
0.00016161
2.0014e-05
0.0032895
1.864e-07
4.0233e-05
0.0031981
5.9919e-05
0.0030747
7.8467e-05
0.0029087
9.6347e-05
0.0026788
0.00011159
0.0024669
0.00012455
0.0020906
0.00013802
0.0018145
0.00014787
0.0014435
0.00015487
0.0010765
0.00015906
0.00065563
0.00026189
0.00016172
2.0013e-05
0.0032693
1.891e-07
4.0234e-05
0.0031779
5.9925e-05
0.003055
7.8469e-05
0.0028901
9.6357e-05
0.0026609
0.00011164
0.0024516
0.00012454
0.0020777
0.00013795
0.0018011
0.00014788
0.0014335
0.00015496
0.0010694
0.00015919
0.00065141
0.00025925
0.00016183
2.0012e-05
0.0032491
1.9182e-07
4.0236e-05
0.0031577
5.993e-05
0.0030353
7.8471e-05
0.0028716
9.6367e-05
0.0026431
0.00011169
0.0024363
0.00012453
0.0020649
0.00013789
0.0017878
0.00014789
0.0014235
0.00015505
0.0010623
0.00015931
0.00064714
0.00025662
0.00016194
2.0012e-05
0.0032289
1.9457e-07
4.0237e-05
0.0031374
5.9935e-05
0.0030156
7.8473e-05
0.002853
9.6375e-05
0.0026251
0.00011175
0.0024209
0.00012453
0.0020521
0.00013783
0.0017745
0.00014789
0.0014135
0.00015512
0.001055
0.00015943
0.00064284
0.000254
0.00016204
2.0011e-05
0.0032087
1.9734e-07
4.0238e-05
0.0031172
5.9941e-05
0.0029959
7.8475e-05
0.0028345
9.6383e-05
0.0026072
0.0001118
0.0024055
0.00012454
0.0020393
0.00013776
0.0017612
0.00014788
0.0014034
0.00015519
0.0010477
0.00015953
0.00063849
0.0002514
0.00016214
2.0011e-05
0.0031884
2.0014e-07
4.024e-05
0.003097
5.9946e-05
0.0029762
7.8477e-05
0.002816
9.639e-05
0.0025893
0.00011185
0.0023901
0.00012455
0.0020266
0.0001377
0.0017481
0.00014787
0.0013932
0.00015524
0.0010404
0.00015963
0.0006341
0.0002488
0.00016223
2.001e-05
0.0031682
2.0296e-07
4.0241e-05
0.0030767
5.9952e-05
0.0029565
7.8479e-05
0.0027975
9.6397e-05
0.0025714
0.00011191
0.0023746
0.00012456
0.002014
0.00013764
0.001735
0.00014785
0.001383
0.00015529
0.0010329
0.00015972
0.00062967
0.00024621
0.00016231
2.0009e-05
0.003148
2.0581e-07
4.0243e-05
0.0030565
5.9957e-05
0.0029368
7.8481e-05
0.0027789
9.6402e-05
0.0025535
0.00011196
0.002359
0.00012458
0.0020014
0.00013758
0.001722
0.00014783
0.0013727
0.00015533
0.0010254
0.00015981
0.0006252
0.00024363
0.00016239
2.0009e-05
0.0031278
2.0869e-07
4.0244e-05
0.0030363
5.9963e-05
0.0029171
7.8484e-05
0.0027604
9.6407e-05
0.0025356
0.00011202
0.0023434
0.0001246
0.0019888
0.00013752
0.0017091
0.0001478
0.0013625
0.00015536
0.0010179
0.00015988
0.00062068
0.00024105
0.00016246
2.0008e-05
0.0031076
2.1159e-07
4.0245e-05
0.003016
5.9969e-05
0.0028974
7.8486e-05
0.0027419
9.6411e-05
0.0025176
0.00011207
0.0023277
0.00012462
0.0019762
0.00013747
0.0016962
0.00014776
0.0013522
0.00015539
0.0010102
0.00015995
0.00061611
0.00023847
0.00016253
2.0007e-05
0.0030874
2.1452e-07
4.0247e-05
0.0029958
5.9975e-05
0.0028776
7.8489e-05
0.0027234
9.6414e-05
0.0024997
0.00011213
0.002312
0.00012465
0.0019637
0.00013742
0.0016835
0.00014773
0.0013418
0.0001554
0.0010026
0.00016001
0.00061151
0.00023589
0.00016258
2.0007e-05
0.0030671
2.1748e-07
4.0248e-05
0.0029756
5.9981e-05
0.0028579
7.8492e-05
0.0027049
9.6416e-05
0.0024818
0.00011218
0.0022962
0.00012469
0.0019512
0.00013737
0.0016708
0.00014769
0.0013315
0.00015541
0.00099484
0.00016006
0.00060686
0.00023332
0.00016263
2.0006e-05
0.0030469
2.2046e-07
4.025e-05
0.0029553
5.9988e-05
0.0028382
7.8496e-05
0.0026864
9.6417e-05
0.0024639
0.00011224
0.0022804
0.00012473
0.0019387
0.00013732
0.0016582
0.00014764
0.0013212
0.00015541
0.00098707
0.0001601
0.00060217
0.00023075
0.00016268
2.0005e-05
0.0030267
2.2348e-07
4.0251e-05
0.0029351
5.9994e-05
0.0028184
7.8499e-05
0.0026679
9.6417e-05
0.002446
0.00011229
0.0022646
0.00012477
0.0019262
0.00013728
0.0016457
0.0001476
0.0013109
0.00015541
0.00097926
0.00016014
0.00059743
0.00022817
0.00016271
2.0005e-05
0.0030064
2.2653e-07
4.0253e-05
0.0029148
6e-05
0.0027987
7.8503e-05
0.0026494
9.6417e-05
0.002428
0.00011235
0.0022486
0.00012482
0.0019138
0.00013724
0.0016333
0.00014755
0.0013006
0.00015539
0.00097142
0.00016016
0.00059267
0.0002256
0.00016274
2.0004e-05
0.0029862
2.296e-07
4.0254e-05
0.0028946
6.0007e-05
0.0027789
7.8507e-05
0.0026309
9.6416e-05
0.0024101
0.0001124
0.0022326
0.00012487
0.0019013
0.00013721
0.0016209
0.0001475
0.0012903
0.00015538
0.00096355
0.00016018
0.00058786
0.00022302
0.00016276
2.0003e-05
0.002966
2.3271e-07
4.0256e-05
0.0028743
6.0013e-05
0.0027592
7.8511e-05
0.0026124
9.6414e-05
0.0023922
0.00011245
0.0022166
0.00012493
0.0018888
0.00013719
0.0016087
0.00014746
0.00128
0.00015535
0.00095565
0.00016019