/*--------------------------------*- C++ -*----------------------------------*\
  =========                 |
  \\      /  F ield         | OpenFOAM: The Open Source CFD Toolbox
   \\    /   O peration     | Website:  https://openfoam.org
    \\  /    A nd           | Version:  6.0
     \\/     M anipulation  |
\*---------------------------------------------------------------------------*/
FoamFile
{
    version     2.0;
    format      ascii;
    class       volVectorField;
    location    "9";
    object      U;
}
// * * * * * * * * * * * * * * * * * * * * * * * * * * * * * * * * * * * * * //

dimensions      [0 1 -1 0 0 0 0];

internalField   nonuniform List<vector> 
13500
(
(1 3.665e-06 -5.0871e-18)
(1 -4.8864e-06 3.4357e-18)
(1 -8.6362e-06 -1.4769e-17)
(1 -1.5135e-05 -1.0185e-17)
(1 -1.6328e-05 1.9061e-17)
(1 -1.6175e-05 3.5235e-17)
(1 -1.1765e-05 2.9911e-17)
(0.99999 6.5241e-06 -4.7461e-18)
(0.99995 2.5704e-05 1.7189e-17)
(0.99983 6.4961e-05 3.5613e-18)
(0.99577 0.00074538 3.0469e-17)
(1.0192 0.010827 7.9054e-18)
(1 1.1134e-05 3.1516e-18)
(1 -8.2637e-06 -1.0434e-17)
(1 -1.678e-05 7.0527e-18)
(1 -2.8964e-05 -4.0192e-19)
(1 -3.0451e-05 -5.0838e-19)
(1 -2.6438e-05 -4.2368e-17)
(1 -1.0725e-05 -5.1661e-17)
(0.99994 4.2487e-05 -2.7156e-17)
(0.99979 0.00010538 -1.7155e-17)
(0.99987 0.00017077 -1.7604e-18)
(0.98629 0.0021643 -1.443e-17)
(1.0538 0.030595 -4.7868e-18)
(1 1.8194e-05 -4.0706e-18)
(1 -1.1897e-05 2.0731e-17)
(1 -2.522e-05 3.6683e-18)
(1 -4.4584e-05 1.1743e-17)
(1 -4.5152e-05 -4.3953e-18)
(1 -3.9495e-05 3.3939e-17)
(1 -1.1087e-05 -7.2725e-18)
(0.9999 7.5628e-05 6.1683e-18)
(0.99961 0.00019026 -2.0813e-17)
(1.0004 0.00029072 2.675e-17)
(0.97614 0.00323 -7.551e-18)
(1.0825 0.045089 1.6817e-18)
(1 2.5057e-05 1.0642e-17)
(1 -1.6792e-05 -2.0099e-17)
(1 -3.5214e-05 -1.7389e-17)
(1 -6.3617e-05 -8.2403e-19)
(1 -6.2738e-05 6.7851e-18)
(1 -5.6565e-05 -9.4139e-19)
(1 -1.4856e-05 7.1652e-17)
(0.99987 0.00010503 1.1114e-17)
(0.99939 0.00027943 2.461e-17)
(1.0013 0.00042882 -9.6893e-18)
(0.96571 0.0039706 3.6791e-17)
(1.1038 0.055591 -7.656e-18)
(1 3.1994e-05 -7.4773e-18)
(1 -2.1812e-05 1.7372e-17)
(1 -4.5117e-05 1.4802e-17)
(1 -8.2843e-05 1.5031e-17)
(1.0001 -8.0403e-05 3.327e-18)
(1.0001 -7.3698e-05 2.4947e-17)
(1 -1.8768e-05 -3.1997e-17)
(0.99985 0.00013362 2.2577e-18)
(0.99913 0.00037418 -1.5091e-17)
(1.0027 0.00058858 -2.3116e-18)
(0.9554 0.0044377 -9.53e-18)
(1.1179 0.06324 2.1211e-18)
(0.99999 3.9028e-05 7.5673e-18)
(1 -2.6934e-05 -7.2017e-18)
(1 -5.4987e-05 4.5207e-18)
(1 -0.00010219 -2.9776e-17)
(1.0001 -9.8193e-05 -9.7397e-20)
(1.0001 -9.0874e-05 -4.9386e-17)
(1.0001 -2.2784e-05 1.2281e-18)
(0.99984 0.00016123 -1.8121e-17)
(0.99882 0.00047317 5.7462e-18)
(1.0045 0.00077667 -2.3295e-17)
(0.94557 0.004674 -2.2988e-17)
(1.1254 0.068649 2.0533e-18)
(0.99999 4.6166e-05 -1.2525e-18)
(1 -3.2135e-05 -8.6139e-18)
(1 -6.4867e-05 -3.674e-18)
(1.0001 -0.00012161 2.2476e-17)
(1.0001 -0.00011613 -3.0815e-17)
(1.0001 -0.00010811 1.8898e-17)
(1.0001 -2.685e-05 2.1403e-17)
(0.99984 0.00018777 6.375e-18)
(0.99843 0.00057505 1.2849e-17)
(1.0066 0.0009995 1.2541e-17)
(0.93649 0.0047173 9.915e-18)
(1.1272 0.072247 3.3001e-18)
(0.99999 5.3408e-05 -2.5855e-18)
(1 -3.7399e-05 -1.695e-18)
(1 -7.4788e-05 -3.1651e-17)
(1.0001 -0.00014109 -1.0733e-17)
(1.0001 -0.00013422 8.6247e-18)
(1.0001 -0.00012544 3.0973e-17)
(1.0001 -3.0942e-05 1.3625e-17)
(0.99985 0.00021315 5.692e-18)
(0.99797 0.00067847 -8.399e-18)
(1.009 0.0012609 1.7567e-17)
(0.9284 0.004604 8.0197e-18)
(1.1244 0.074396 -1.0502e-17)
(0.99999 6.0749e-05 -8.0268e-18)
(1 -4.2717e-05 7.2853e-18)
(1 -8.4765e-05 5.3219e-17)
(1.0001 -0.00016064 -1.2875e-17)
(1.0001 -0.00015247 3.2301e-17)
(1.0001 -0.00014288 -6.1151e-17)
(1.0001 -3.5048e-05 -4.5383e-17)
(0.99988 0.00023733 1.1062e-17)
(0.99743 0.00078207 -6.3099e-18)
(1.0116 0.0015623 -9.6884e-18)
(0.92146 0.0043686 -1.4805e-17)
(1.1179 0.075402 1.3745e-17)
(0.99998 6.8177e-05 5.2884e-18)
(1 -4.8084e-05 2.7424e-18)
(1 -9.48e-05 -4.5081e-17)
(1.0001 -0.00018026 1.8323e-17)
(1.0001 -0.00017087 -1.4086e-17)
(1.0001 -0.00016046 2.6082e-17)
(1.0001 -3.9157e-05 1.6129e-17)
(0.99993 0.00026027 2.7974e-18)
(0.99681 0.00088456 5.9431e-19)
(1.0144 0.0019033 1.5358e-18)
(0.91577 0.0040431 4.7182e-18)
(1.1087 0.075516 -7.173e-19)
(0.99998 7.5683e-05 -2.9038e-18)
(1 -5.3499e-05 -8.9952e-18)
(1 -0.00010489 1.1051e-17)
(1.0001 -0.00019997 -3.2335e-18)
(1.0001 -0.00018943 2.1747e-18)
(1.0002 -0.00017823 -2.8588e-17)
(1.0001 -4.3259e-05 -3.7152e-17)
(1 0.00028198 -3.552e-17)
(0.99611 0.00098472 1.7639e-17)
(1.0172 0.002282 1.9952e-18)
(0.91139 0.0036566 -1.1968e-17)
(1.0975 0.074945 -5.9301e-18)
(0.99998 8.3256e-05 4.0081e-18)
(0.99999 -5.8962e-05 3.3972e-18)
(1 -0.00011504 5.3259e-18)
(1.0001 -0.00021979 -2.5775e-18)
(1.0001 -0.00020813 -6.5186e-18)
(1.0002 -0.00019619 1.0812e-17)
(1.0001 -4.7345e-05 2.1506e-17)
(1.0001 0.00030249 2.1945e-17)
(0.99532 0.0010814 1.1337e-17)
(1.0202 0.0026954 -2.5185e-17)
(0.9083 0.003235 1.2181e-19)
(1.0852 0.07386 -6.8737e-18)
(0.99997 9.0887e-05 -4.0077e-18)
(0.99999 -6.447e-05 6.682e-18)
(1 -0.00012524 9.6572e-18)
(1.0001 -0.00023972 6.7291e-18)
(1.0002 -0.00022695 -6.0468e-18)
(1.0002 -0.00021439 5.3159e-18)
(1.0002 -5.1413e-05 4.9044e-18)
(1.0002 0.00032186 -1.9599e-18)
(0.99445 0.0011736 -1.8322e-17)
(1.0231 0.0031393 2.3357e-17)
(0.90648 0.0028011 1.0844e-19)
(1.0723 0.072398 1.4675e-18)
(0.99997 9.8566e-05 6.0948e-18)
(0.99999 -7.0024e-05 -5.2166e-18)
(1 -0.00013549 8.4597e-19)
(1.0001 -0.00025979 -5.6144e-18)
(1.0002 -0.00024591 1.3733e-17)
(1.0002 -0.00023286 6.4874e-18)
(1.0002 -5.5467e-05 1.9738e-17)
(1.0004 0.00034016 -7.2805e-18)
(0.99349 0.0012604 -2.241e-19)
(1.0261 0.003609 5.7387e-18)
(0.90586 0.0023744 1.8205e-17)
(1.0592 0.070672 9.3572e-19)
(0.99996 0.00010629 1.4703e-18)
(0.99999 -7.5622e-05 1.1578e-17)
(1 -0.00014579 1.6152e-17)
(1.0001 -0.00028 -5.5989e-18)
(1.0002 -0.00026499 9.9458e-18)
(1.0002 -0.00025161 -3.0285e-18)
(1.0002 -5.9517e-05 -3.4571e-17)
(1.0005 0.00035751 2.3047e-17)
(0.99246 0.0013411 -2.0672e-17)
(1.0289 0.0040994 -3.3097e-17)
(0.90635 0.0019714 -3.9911e-18)
(1.0465 0.068773 8.6796e-19)
(0.99996 0.00011404 -3.7504e-18)
(0.99998 -8.1263e-05 -1.2314e-17)
(1 -0.00015615 -3.8767e-17)
(1.0001 -0.00030037 9.4319e-18)
(1.0002 -0.00028419 -1.5092e-17)
(1.0002 -0.00027067 9.7129e-18)
(1.0002 -6.3578e-05 -3.2371e-18)
(1.0007 0.00037403 -1.3874e-17)
(0.99136 0.0014148 4.536e-18)
(1.0316 0.0046054 1.9765e-17)
(0.90786 0.0016052 -8.3944e-18)
(1.0344 0.066776 1.2108e-17)
(0.99995 0.00012183 3.9477e-19)
(0.99998 -8.6947e-05 9.2107e-18)
(1 -0.00016656 2.6767e-17)
(1.0001 -0.0003209 -2.1249e-18)
(1.0002 -0.00030352 -1.4996e-17)
(1.0003 -0.00029006 -1.8101e-17)
(1.0002 -6.7673e-05 1.2357e-17)
(1.001 0.00038987 7.9597e-18)
(0.99019 0.001481 2.6242e-17)
(1.0341 0.0051215 -2.7679e-18)
(0.91026 0.0012861 2.0891e-18)
(1.0231 0.064736 -4.8304e-18)
(0.99995 0.00012965 -2.2144e-18)
(0.99998 -9.2676e-05 -1.1162e-17)
(1 -0.00017703 -1.2078e-17)
(1.0001 -0.00034161 7.1005e-18)
(1.0002 -0.00032298 -8.4249e-18)
(1.0003 -0.00030979 -1.4523e-17)
(1.0002 -7.1828e-05 1.2016e-17)
(1.0012 0.00040518 -5.3985e-18)
(0.98897 0.0015392 -3.2484e-17)
(1.0365 0.0056428 -1.5516e-17)
(0.91345 0.0010214 9.0737e-18)
(1.0128 0.062701 -5.2452e-18)
(0.99994 0.0001375 -3.1714e-18)
(0.99997 -9.8451e-05 -4.22e-18)
(1 -0.00018756 -8.9517e-19)
(1.0001 -0.00036249 -3.1099e-17)
(1.0002 -0.00034258 7.0657e-18)
(1.0003 -0.00032988 6.3214e-18)
(1.0002 -7.6078e-05 -2.2837e-17)
(1.0015 0.00042014 -1.844e-17)
(0.98769 0.0015889 4.7477e-18)
(1.0386 0.0061645 -1.1688e-18)
(0.9173 0.00081604 -1.0475e-17)
(1.0037 0.060705 9.9115e-19)
(0.99994 0.00014538 4.125e-18)
(0.99997 -0.00010428 1.9343e-17)
(1 -0.00019814 2.3056e-17)
(1.0001 -0.00038357 2.9255e-18)
(1.0003 -0.00036232 1.954e-17)
(1.0003 -0.00035035 1.1083e-17)
(1.0002 -8.0461e-05 3.2944e-18)
(1.0019 0.00043494 2.0186e-17)
(0.98638 0.0016299 2.3614e-17)
(1.0405 0.0066823 1.8531e-17)
(0.9217 0.00067267 7.8303e-18)
(0.99568 0.058774 1.1777e-18)
(0.99993 0.0001533 -1.9665e-18)
(0.99996 -0.00011016 -4.641e-18)
(1 -0.00020879 -2.4564e-17)
(1.0001 -0.00040483 -2.7772e-18)
(1.0003 -0.00038221 -1.4813e-17)
(1.0004 -0.00037121 -5.9993e-18)
(1.0002 -8.5021e-05 -2.1186e-18)
(1.0022 0.00044978 -1.8257e-17)
(0.98503 0.0016617 -2.2587e-17)
(1.0422 0.007192 9.5011e-18)
(0.92653 0.00059193 5.4424e-19)
(0.98888 0.056927 6.766e-19)
(0.99992 0.00016126 5.2129e-18)
(0.99996 -0.0001161 -6.0649e-18)
(1 -0.0002195 -2.3044e-17)
(1.0001 -0.00042629 5.2737e-17)
(1.0003 -0.00040226 2.149e-17)
(1.0004 -0.00039247 -1.4683e-17)
(1.0001 -8.9807e-05 2.8455e-17)
(1.0027 0.00046486 2.4679e-17)
(0.98366 0.0016842 3.6659e-17)
(1.0436 0.0076902 -3.4827e-17)
(0.9317 0.00057283 -1.4393e-17)
(0.98325 0.055177 1.7849e-19)
(0.99992 0.00016927 -3.8159e-18)
(0.99995 -0.0001221 -1.2176e-18)
(1 -0.00023027 3.9343e-17)
(1.0002 -0.00044796 -3.9872e-17)
(1.0003 -0.00042249 -2.0675e-18)
(1.0004 -0.00041414 4.8648e-17)
(1.0001 -9.4874e-05 8.8232e-18)
(1.0031 0.0004804 -3.8104e-18)
(0.98228 0.0016973 -2.2738e-17)
(1.0447 0.0081737 4.1047e-17)
(0.93709 0.00061301 -6.1076e-18)
(0.97874 0.053532 -2.8361e-19)
(0.99991 0.00017732 -1.9458e-18)
(0.99995 -0.00012816 -2.4264e-18)
(1 -0.00024112 2.0511e-18)
(1.0002 -0.00046982 4.1488e-17)
(1.0003 -0.0004429 -1.1666e-17)
(1.0004 -0.00043625 -3.5963e-17)
(1.0001 -0.00010028 -2.249e-17)
(1.0036 0.0004966 -4.1044e-18)
(0.98089 0.0017008 7.1931e-18)
(1.0455 0.0086399 -3.4635e-17)
(0.94263 0.00070902 1.0224e-17)
(0.97528 0.051995 3.0799e-18)
(0.9999 0.00018543 3.2155e-18)
(0.99994 -0.0001343 1.6886e-17)
(1 -0.00025205 -1.5112e-17)
(1.0002 -0.0004919 -4.3408e-18)
(1.0003 -0.0004635 -2.2397e-17)
(1.0005 -0.00045879 3.9136e-17)
(1 -0.00010609 -1.9751e-17)
(1.0041 0.00051368 1.7031e-17)
(0.97952 0.0016948 -2.2165e-18)
(1.0461 0.0090866 3.2478e-17)
(0.94823 0.00085659 -9.9932e-18)
(0.97282 0.050568 -5.1405e-18)
(0.99989 0.0001936 -6.1675e-19)
(0.99993 -0.0001405 -9.7119e-18)
(1 -0.00026305 -2.1167e-17)
(1.0002 -0.00051418 -1.1904e-17)
(1.0003 -0.0004843 2.1723e-17)
(1.0005 -0.00048177 -4.9913e-17)
(0.99998 -0.00011237 -3.0526e-18)
(1.0047 0.00053185 -2.3008e-17)
(0.97816 0.0016791 3.5838e-18)
(1.0464 0.0095118 -9.3678e-18)
(0.95382 0.0010508 1.0636e-17)
(0.97124 0.049248 2.1811e-18)
(0.99988 0.00020182 3.232e-18)
(0.99993 -0.00014678 -1.0406e-17)
(1 -0.00027414 -2.0945e-18)
(1.0002 -0.00053669 2.8958e-18)
(1.0003 -0.00050531 6.8772e-18)
(1.0005 -0.00050523 1.4422e-17)
(0.99992 -0.0001192 4.9983e-17)
(1.0053 0.00055131 2.751e-18)
(0.97683 0.0016539 5.8421e-18)
(1.0465 0.0099142 1.0332e-17)
(0.95933 0.0012865 -9.1106e-18)
(0.97047 0.048033 1.6765e-18)
(0.99987 0.0002101 -1.853e-18)
(0.99992 -0.00015313 1.0397e-17)
(1 -0.00028532 3.0095e-17)
(1.0002 -0.00055941 -2.9162e-17)
(1.0004 -0.00052655 -1.07e-17)
(1.0005 -0.00052915 -2.5412e-18)
(0.99984 -0.00012665 -1.6474e-17)
(1.0059 0.00057225 2.1355e-18)
(0.97555 0.0016193 -1.012e-17)
(1.0463 0.010293 -3.7943e-18)
(0.96471 0.0015582 -2.6479e-19)
(0.97041 0.046917 -2.0489e-18)
(0.99987 0.00021844 -1.9922e-18)
(0.99991 -0.00015955 6.2251e-18)
(1 -0.00029661 -7.2661e-19)
(1.0002 -0.00058235 9.6694e-18)
(1.0004 -0.00054801 -1.975e-17)
(1.0006 -0.00055356 2.8735e-17)
(0.99976 -0.0001348 8.2247e-18)
(1.0065 0.00059487 -2.037e-17)
(0.9743 0.0015755 -1.2984e-17)
(1.0458 0.010646 -1.5038e-17)
(0.96991 0.0018602 1.439e-18)
(0.97096 0.045894 -3.7575e-18)
(0.99986 0.00022683 6.9243e-19)
(0.9999 -0.00016604 -1.4868e-17)
(1 -0.00030799 1.8645e-17)
(1.0002 -0.00060553 2.6757e-17)
(1.0004 -0.00056972 3.871e-17)
(1.0006 -0.00057846 -2.1106e-17)
(0.99966 -0.00014374 -2.0443e-17)
(1.0072 0.00061933 4.1309e-18)
(0.97312 0.0015225 1.2166e-17)
(1.0451 0.010974 1.1776e-17)
(0.97489 0.0021872 6.731e-18)
(0.97203 0.044957 3.7345e-18)
(0.99985 0.00023528 1.3274e-18)
(0.9999 -0.00017261 1.1825e-17)
(0.99999 -0.00031949 -4.2837e-17)
(1.0002 -0.00062894 -3.8737e-18)
(1.0004 -0.00059167 -3.2166e-17)
(1.0007 -0.00060386 -1.3302e-17)
(0.99955 -0.00015354 2.8274e-20)
(1.008 0.00064578 -4.7343e-18)
(0.972 0.0014608 -2.3987e-17)
(1.0442 0.011277 -1.8806e-17)
(0.97961 0.0025337 -9.2078e-18)
(0.97353 0.044099 -1.8417e-18)
(0.99984 0.00024378 -8.6016e-19)
(0.99989 -0.00017925 -7.6916e-18)
(0.99999 -0.0003311 3.3712e-17)
(1.0002 -0.00065259 -3.7006e-17)
(1.0004 -0.00061388 -2.4248e-18)
(1.0007 -0.00062978 2.8328e-17)
(0.99942 -0.00016431 8.1806e-19)
(1.0087 0.00067436 4.5085e-18)
(0.97096 0.0013906 2.0997e-17)
(1.0431 0.011554 2.4453e-17)
(0.98405 0.0028948 5.2635e-18)
(0.97538 0.043313 -1.0303e-18)
(0.99982 0.00025233 -2.2402e-18)
(0.99988 -0.00018597 -2.838e-18)
(0.99998 -0.00034283 -1.4946e-17)
(1.0002 -0.0006765 1.8436e-17)
(1.0004 -0.00063635 3.5365e-17)
(1.0008 -0.00065622 -1.2522e-17)
(0.99928 -0.00017614 2.5487e-17)
(1.0095 0.00070519 3.3805e-18)
(0.97 0.0013122 -2.3814e-18)
(1.0417 0.011805 1.1072e-17)
(0.98819 0.0032655 -5.8988e-18)
(0.97749 0.042592 -7.1887e-19)
(0.99981 0.00026094 5.6014e-19)
(0.99987 -0.00019276 -7.506e-18)
(0.99998 -0.00035468 5.5978e-18)
(1.0002 -0.00070066 -1.8799e-17)
(1.0004 -0.0006591 -3.7419e-17)
(1.0008 -0.00068318 7.8949e-18)
(0.99913 -0.00018911 -3.6772e-17)
(1.0103 0.00073836 -7.7416e-18)
(0.96913 0.001226 7.7226e-18)
(1.0402 0.012031 -3.4741e-17)
(0.99201 0.0036415 4.0308e-18)
(0.9798 0.041927 2.0247e-18)
(0.9998 0.00026959 9.8413e-19)
(0.99986 -0.00019963 2.0334e-17)
(0.99997 -0.00036665 9.3757e-18)
(1.0002 -0.00072508 7.6542e-18)
(1.0004 -0.00068214 2.9925e-17)
(1.0009 -0.00071069 2.3568e-18)
(0.99896 -0.00020332 2.5401e-17)
(1.0111 0.00077395 5.5476e-18)
(0.96836 0.0011325 -2.3486e-17)
(1.0386 0.012232 1.1964e-17)
(0.9955 0.0040185 2.7281e-18)
(0.98224 0.041313 2.1014e-18)
(0.99979 0.00027828 -3.4376e-18)
(0.99985 -0.00020658 -6.6942e-18)
(0.99997 -0.00037876 -8.2337e-18)
(1.0002 -0.00074979 1.2578e-17)
(1.0004 -0.00070546 1.4465e-17)
(1.0009 -0.00073873 -4.6881e-18)
(0.99878 -0.00021887 -2.1342e-17)
(1.0119 0.000812 2.5286e-17)
(0.96769 0.0010322 4.3424e-18)
(1.0368 0.012409 -3.6165e-18)
(0.99866 0.0043928 1.1311e-17)
(0.98474 0.040742 -1.4617e-18)
(0.99978 0.00028703 7.0644e-18)
(0.99984 -0.0002136 8.0197e-18)
(0.99996 -0.000391 -8.7563e-18)
(1.0002 -0.00077477 -7.8395e-18)
(1.0004 -0.00072908 -2.0755e-17)
(1.001 -0.00076731 -8.058e-18)
(0.99858 -0.00023587 1.0525e-17)
(1.0128 0.00085254 -4.0572e-17)
(0.96712 0.00092551 1.0649e-17)
(1.0349 0.012562 -4.2782e-18)
(1.0015 0.004761 -1.1984e-17)
(0.98727 0.040209 4.2471e-18)
(0.99976 0.00029581 -3.118e-18)
(0.99983 -0.00022072 -1.4092e-17)
(0.99995 -0.00040338 -8.4902e-18)
(1.0002 -0.00080005 -1.4882e-17)
(1.0005 -0.00075301 -6.3409e-18)
(1.001 -0.00079644 2.3703e-17)
(0.99837 -0.00025439 -1.0345e-17)
(1.0136 0.00089555 4.5146e-17)
(0.96666 0.00081308 1.005e-17)
(1.0328 0.012692 1.2981e-17)
(1.004 0.0051202 5.0532e-18)
(0.98977 0.039707 -6.8899e-18)
(0.99975 0.00030465 -1.6545e-18)
(0.99982 -0.00022791 1.0482e-17)
(0.99995 -0.0004159 1.6824e-17)
(1.0002 -0.00082562 4.0122e-17)
(1.0005 -0.00077727 8.4045e-18)
(1.0011 -0.00082612 -1.6258e-17)
(0.99814 -0.00027455 4.9914e-18)
(1.0145 0.00094102 -4.8589e-17)
(0.96632 0.00069546 -1.2197e-17)
(1.0307 0.012799 -7.2202e-18)
(1.0062 0.0054676 4.9642e-18)
(0.99221 0.039231 6.931e-18)
(0.99974 0.00031352 1.2663e-18)
(0.99981 -0.0002352 2.4831e-18)
(0.99994 -0.00042856 -1.6526e-17)
(1.0002 -0.00085151 -6.6817e-18)
(1.0005 -0.00080185 1.0678e-17)
(1.0012 -0.00085634 1.9476e-17)
(0.9979 -0.00029643 1.7371e-17)
(1.0153 0.00098889 4.8016e-18)
(0.96609 0.00057327 1.365e-17)
(1.0286 0.012885 -3.3489e-18)
(1.008 0.005801 -8.8655e-18)
(0.99454 0.038776 -1.7873e-18)
(0.99972 0.00032245 -5.1834e-20)
(0.99979 -0.00024258 2.831e-18)
(0.99993 -0.00044137 3.6931e-18)
(1.0002 -0.00087772 -8.6796e-18)
(1.0005 -0.00082678 1.0266e-19)
(1.0013 -0.00088711 -1.7655e-17)
(0.99764 -0.00032013 -1.175e-17)
(1.0162 0.0010391 3.5602e-17)
(0.96598 0.00044715 -2.0642e-17)
(1.0263 0.01295 1.3005e-17)
(1.0096 0.0061185 4.6841e-18)
(0.99675 0.038339 -5.0542e-18)
(0.99971 0.00033142 -3.9247e-18)
(0.99978 -0.00025006 -1.3272e-17)
(0.99992 -0.00045432 9.4348e-18)
(1.0002 -0.00090426 -2.3718e-17)
(1.0005 -0.00085206 -2.7016e-17)
(1.0013 -0.00091843 -2.4408e-17)
(0.99737 -0.00034575 -2.3965e-17)
(1.0171 0.0010915 -3.6442e-18)
(0.96599 0.00031777 1.8043e-17)
(1.0241 0.012996 -1.1159e-17)
(1.0108 0.0064185 4.6623e-19)
(0.99882 0.037914 4.7614e-18)
(0.99969 0.00034043 7.576e-18)
(0.99977 -0.00025763 1.3874e-17)
(0.99991 -0.00046744 -1.522e-17)
(1.0002 -0.00093113 1.9472e-17)
(1.0005 -0.00087771 -3.1745e-18)
(1.0014 -0.00095029 1.5999e-17)
(0.99708 -0.00037337 2.8809e-17)
(1.0179 0.001146 -2.7641e-17)
(0.96612 0.0001858 -9.1568e-18)
(1.0218 0.013023 1.1791e-17)
(1.0118 0.0066995 4.0569e-18)
(1.0007 0.037498 -2.2541e-18)
(0.99968 0.00034949 -5.6858e-18)
(0.99975 -0.00026531 -4.0994e-18)
(0.9999 -0.00048071 -3.1858e-18)
(1.0002 -0.00095836 2.2293e-17)
(1.0005 -0.00090373 -6.7937e-18)
(1.0015 -0.00098269 -2.0404e-19)
(0.99677 -0.00040308 -5.6382e-18)
(1.0187 0.0012024 2.2144e-17)
(0.96637 5.1914e-05 -8.7036e-18)
(1.0196 0.013031 -8.0971e-18)
(1.0125 0.0069607 -1.1997e-17)
(1.0024 0.037088 2.6211e-18)
(0.99966 0.0003586 3.866e-18)
(0.99974 -0.00027309 -5.2007e-18)
(0.99989 -0.00049414 7.2861e-18)
(1.0002 -0.00098594 -3.3831e-17)
(1.0005 -0.00093015 4.599e-17)
(1.0016 -0.0010156 6.6352e-18)
(0.99646 -0.00043498 2.2266e-17)
(1.0196 0.0012606 -1.3712e-17)
(0.96673 -8.3205e-05 1.0595e-19)
(1.0174 0.013023 6.0276e-18)
(1.013 0.0072013 -2.3406e-18)
(1.004 0.036682 -9.8591e-19)
(0.99964 0.00036776 -1.1059e-18)
(0.99973 -0.00028098 1.0172e-18)
(0.99988 -0.00050773 1.7765e-17)
(1.0002 -0.0010139 9.2227e-18)
(1.0005 -0.00095698 -2.2997e-17)
(1.0018 -0.0010491 -1.3002e-17)
(0.99612 -0.00046913 3.8985e-18)
(1.0204 0.0013204 -6.6736e-18)
(0.96721 -0.00021888 1.4564e-17)
(1.0152 0.012998 -3.955e-18)
(1.0133 0.0074206 1.1244e-17)
(1.0054 0.036277 -3.6039e-18)
(0.99963 0.00037697 -1.926e-18)
(0.99971 -0.00028899 -9.8065e-18)
(0.99987 -0.0005215 -5.2803e-18)
(1.0002 -0.0010422 3.7064e-17)
(1.0005 -0.00098423 -2.0503e-17)
(1.0019 -0.001083 -1.1058e-18)
(0.99578 -0.00050563 -5.8173e-17)
(1.0212 0.0013815 6.5507e-18)
(0.9678 -0.00035445 -2.7269e-17)
(1.0131 0.012959 -8.5517e-18)
(1.0133 0.0076185 -1.1257e-17)
(1.0065 0.035871 2.1394e-18)
(0.99961 0.00038623 -8.3203e-19)
(0.9997 -0.00029711 6.0753e-18)
(0.99986 -0.00053543 -2.1797e-18)
(1.0002 -0.0010709 -2.1579e-17)
(1.0005 -0.0010119 2.9464e-17)
(1.002 -0.0011175 -2.7143e-18)
(0.99542 -0.00054455 3.082e-17)
(1.0219 0.0014438 -4.0382e-18)
(0.9685 -0.00048926 1.3229e-17)
(1.011 0.012905 1.0699e-17)
(1.0132 0.0077948 9.2866e-18)
(1.0075 0.035462 -5.1861e-19)
(0.99959 0.00039554 4.7157e-18)
(0.99968 -0.00030535 -3.6377e-18)
(0.99985 -0.00054954 -7.6333e-18)
(1.0002 -0.0011 2.3573e-17)
(1.0005 -0.0010401 2.1657e-18)
(1.0021 -0.0011525 3.3604e-17)
(0.99504 -0.00058595 5.321e-18)
(1.0227 0.0015069 1.927e-17)
(0.9693 -0.0006227 4.9636e-18)
(1.009 0.012838 -3.4618e-18)
(1.0129 0.0079497 1.2096e-18)
(1.0083 0.035049 4.682e-19)
(0.99957 0.0004049 1.3458e-18)
(0.99966 -0.00031371 1.4859e-18)
(0.99984 -0.00056384 -6.9259e-18)
(1.0002 -0.0011296 -4.6943e-17)
(1.0005 -0.0010687 6.5577e-18)
(1.0023 -0.001188 2.9248e-18)
(0.99466 -0.00062992 -2.3079e-17)
(1.0234 0.0015707 2.7256e-19)
(0.9702 -0.00075416 1.4657e-17)
(1.0071 0.012759 -2.2276e-18)
(1.0125 0.0080833 -5.8945e-18)
(1.0089 0.034632 2.7665e-18)
(0.99955 0.00041432 -5.7604e-18)
(0.99965 -0.0003222 6.3052e-18)
(0.99983 -0.00057831 1.139e-18)
(1.0002 -0.0011595 2.6077e-17)
(1.0005 -0.0010978 -2.9907e-17)
(1.0024 -0.0012239 -1.2876e-17)
(0.99427 -0.00067651 2.3609e-17)
(1.024 0.0016349 -1.3067e-17)
(0.9712 -0.00088309 -2.3195e-17)
(1.0053 0.012668 -1.1018e-17)
(1.012 0.008196 7.5098e-18)
(1.0094 0.034209 9.2373e-19)
(0.99953 0.00042379 -6.1024e-19)
(0.99963 -0.00033083 -6.3472e-18)
(0.99981 -0.00059297 1.2163e-17)
(1.0002 -0.0011899 1.1573e-17)
(1.0005 -0.0011274 3.6953e-17)
(1.0026 -0.0012603 4.9571e-18)
(0.99386 -0.0007258 2.0988e-17)
(1.0247 0.0016992 3.3142e-17)
(0.97229 -0.001009 -1.039e-18)
(1.0037 0.012566 1.9383e-17)
(1.0113 0.0082883 -7.9355e-19)
(1.0097 0.033779 -2.6935e-18)
(0.99951 0.00043331 5.9117e-18)
(0.99961 -0.00033959 -9.2454e-18)
(0.9998 -0.00060782 -1.847e-17)
(1.0002 -0.0012207 -3.0675e-18)
(1.0004 -0.0011576 -4.012e-17)
(1.0027 -0.0012972 -1.4736e-17)
(0.99345 -0.00077783 -7.2757e-18)
(1.0252 0.0017634 2.587e-19)
(0.97346 -0.0011313 3.0218e-17)
(1.0021 0.012455 4.4749e-18)
(1.0106 0.008361 -1.0326e-17)
(1.0099 0.033343 1.6171e-18)
(0.99949 0.00044289 -6.6291e-18)
(0.99959 -0.00034849 1.1547e-17)
(0.99979 -0.00062286 9.6672e-18)
(1.0002 -0.0012519 -6.1239e-18)
(1.0004 -0.0011883 3.2276e-17)
(1.0029 -0.0013345 1.7646e-17)
(0.99303 -0.00083266 -5.7544e-18)
(1.0258 0.0018271 -3.3423e-17)
(0.9747 -0.0012497 -1.0208e-18)
(1.0007 0.012335 -1.2775e-17)
(1.0098 0.0084146 1.2228e-17)
(1.01 0.0329 -2.1188e-18)
(0.99947 0.00045252 3.9843e-18)
(0.99957 -0.00035754 -2.2115e-18)
(0.99977 -0.0006381 1.2809e-17)
(1.0002 -0.0012836 -2.5799e-17)
(1.0004 -0.0012196 1.0551e-17)
(1.0031 -0.0013722 -6.3333e-18)
(0.9926 -0.00089034 -1.2417e-17)
(1.0263 0.0018901 -2.6898e-18)
(0.97602 -0.0013637 -3.653e-17)
(0.99935 0.012208 8.4363e-18)
(1.009 0.00845 -1.1209e-17)
(1.0099 0.03245 7.0706e-19)
(0.99945 0.00046221 3.1547e-19)
(0.99956 -0.00036673 -6.9584e-18)
(0.99976 -0.00065355 7.2794e-18)
(1.0002 -0.0013158 3.3972e-17)
(1.0004 -0.0012514 -2.5118e-17)
(1.0033 -0.0014104 2.0416e-17)
(0.99216 -0.00095093 -7.1854e-18)
(1.0268 0.0019521 6.2145e-18)
(0.9774 -0.001473 4.342e-17)
(0.99817 0.012073 -1.5667e-17)
(1.0082 0.008468 1.7144e-17)
(1.0097 0.031994 2.0031e-18)
(0.99943 0.00047195 5.6624e-19)
(0.99953 -0.00037609 -1.4435e-18)
(0.99974 -0.00066919 -1.0468e-17)
(1.0002 -0.0013484 -5.1082e-18)
(1.0004 -0.0012839 2.1908e-17)
(1.0035 -0.0014489 1.7824e-19)
(0.99172 -0.0010145 -1.4134e-17)
(1.0272 0.0020128 -1.4862e-17)
(0.97884 -0.0015773 -1.8186e-17)
(0.99714 0.011931 -1.4848e-18)
(1.0073 0.0084696 3.1495e-18)
(1.0095 0.031531 2.1082e-19)
(0.9994 0.00048176 -9.1023e-19)
(0.99951 -0.0003856 1.7141e-17)
(0.99972 -0.00068505 -6.9856e-18)
(1.0002 -0.0013815 -2.8919e-17)
(1.0003 -0.0013171 1.0113e-17)
(1.0037 -0.0014878 -5.2036e-17)
(0.99128 -0.001081 7.0439e-18)
(1.0275 0.0020719 9.3496e-18)
(0.98032 -0.0016765 8.4441e-19)
(0.99624 0.011785 1.5929e-17)
(1.0064 0.0084556 -1.0407e-18)
(1.0092 0.031062 -5.6e-18)
(0.99938 0.00049161 -2.4022e-19)
(0.99949 -0.00039528 -3.3532e-19)
(0.99971 -0.00070112 9.4082e-18)
(1.0002 -0.0014152 1.7861e-17)
(1.0003 -0.0013509 -4.0152e-17)
(1.0039 -0.0015271 2.2403e-18)
(0.99084 -0.0011505 1.2633e-17)
(1.0278 0.0021292 1.4662e-17)
(0.98185 -0.0017703 -1.1529e-17)
(0.99549 0.011633 -1.5519e-17)
(1.0056 0.008427 -1.7042e-17)
(1.0088 0.030588 5.9164e-18)
(0.99936 0.00050153 -1.5741e-18)
(0.99947 -0.00040512 4.8053e-19)
(0.99969 -0.00071741 -4.5358e-18)
(1.0002 -0.0014493 -1.1929e-17)
(1.0003 -0.0013854 2.227e-17)
(1.0041 -0.0015668 2.7959e-17)
(0.99039 -0.0012231 3.6879e-18)
(1.0281 0.0021844 7.4388e-18)
(0.98341 -0.0018586 1.8391e-17)
(0.99487 0.011478 2.6094e-18)
(1.0048 0.0083849 1.2612e-17)
(1.0084 0.030108 -3.5929e-18)
(0.99933 0.00051151 2.8983e-18)
(0.99945 -0.00041515 8.854e-19)
(0.99967 -0.00073393 -6.4868e-18)
(1.0002 -0.0014839 1.7616e-18)
(1.0003 -0.0014206 -1.2076e-17)
(1.0043 -0.0016067 -6.7062e-18)
(0.98995 -0.0012988 -1.3616e-18)
(1.0283 0.0022372 -3.3596e-17)
(0.985 -0.0019414 3.6193e-18)
(0.9944 0.011319 -5.307e-18)
(1.0041 0.0083303 -5.1298e-18)
(1.0079 0.029625 -4.3357e-18)
(0.99931 0.00052154 -5.9165e-18)
(0.99943 -0.00042535 1.157e-18)
(0.99965 -0.00075067 3.441e-18)
(1.0002 -0.0015191 -2.2167e-17)
(1.0002 -0.0014566 -1.3778e-17)
(1.0046 -0.001647 -3.1173e-17)
(0.98951 -0.0013776 6.5854e-18)
(1.0284 0.0022873 1.3715e-17)
(0.98661 -0.0020186 -3.879e-17)
(0.99406 0.011157 2.4461e-17)
(1.0033 0.008264 -5.556e-18)
(1.0075 0.029137 2.7947e-18)
(0.99928 0.00053164 5.4321e-18)
(0.9994 -0.00043575 2.5883e-18)
(0.99963 -0.00076765 1.324e-18)
(1.0002 -0.0015547 7.0235e-18)
(1.0002 -0.0014934 -3.0501e-18)
(1.0048 -0.0016876 6.0441e-17)
(0.98907 -0.0014595 2.3655e-17)
(1.0285 0.0023345 -2.1371e-17)
(0.98823 -0.0020903 3.7347e-17)
(0.99386 0.010993 -9.1266e-18)
(1.0027 0.0081872 -3.6715e-18)
(1.007 0.028647 -1.3979e-18)
(0.99925 0.00054179 1.3335e-18)
(0.99938 -0.00044633 -1.638e-17)
(0.99961 -0.00078487 2.6515e-18)
(1.0002 -0.0015909 3.1589e-17)
(1.0001 -0.001531 2.3567e-17)
(1.0051 -0.0017285 -9.5949e-19)
(0.98864 -0.0015446 -3.2765e-17)
(1.0285 0.0023786 6.4545e-18)
(0.98986 -0.0021567 -8.4288e-18)
(0.99378 0.010828 -1.2648e-17)
(1.0021 0.0081007 9.335e-18)
(1.0066 0.028154 1.3007e-18)
(0.99922 0.00055201 -5.2732e-18)
(0.99935 -0.00045711 -5.4654e-18)
(0.99959 -0.00080234 -1.4366e-17)
(1.0002 -0.0016277 -2.6503e-17)
(1.0001 -0.0015694 -2.3727e-17)
(1.0054 -0.0017696 -2.7484e-17)
(0.98821 -0.0016328 6.0569e-18)
(1.0285 0.0024194 5.0341e-17)
(0.99148 -0.0022177 3.6785e-18)
(0.99383 0.010662 -1.1116e-18)
(1.0017 0.0080056 -3.2989e-18)
(1.0061 0.02766 -3.5043e-18)
(0.9992 0.0005623 3.9141e-18)
(0.99933 -0.00046809 5.0728e-18)
(0.99957 -0.00082007 2.2143e-17)
(1.0002 -0.001665 1.8361e-17)
(1 -0.0016087 2.309e-17)
(1.0056 -0.001811 -1.0199e-18)
(0.9878 -0.0017243 -3.3759e-17)
(1.0284 0.0024565 -2.722e-17)
(0.9931 -0.0022736 9.142e-18)
(0.994 0.010495 4.3776e-18)
(1.0013 0.0079027 7.4472e-18)
(1.0057 0.027164 2.7047e-18)
(0.99917 0.00057264 -2.7649e-18)
(0.9993 -0.00047928 7.9637e-18)
(0.99955 -0.00083806 -1.4654e-17)
(1.0002 -0.0017028 2.6612e-18)
(0.99997 -0.0016489 1.0747e-17)
(1.0059 -0.0018526 -2.6888e-18)
(0.98739 -0.0018189 7.5702e-18)
(1.0282 0.0024898 7.5665e-18)
(0.99469 -0.0023247 3.0211e-18)
(0.99428 0.010328 1.0841e-17)
(1.0009 0.007793 -8.9596e-18)
(1.0054 0.026669 5.4572e-19)
(0.99914 0.00058306 4.1762e-18)
(0.99927 -0.00049068 4.9389e-19)
(0.99952 -0.00085633 -6.8649e-18)
(1.0002 -0.0017412 1.062e-18)
(0.99991 -0.00169 -1.758e-18)
(1.0062 -0.0018944 -2.6597e-17)
(0.987 -0.0019166 2.1177e-17)
(1.028 0.0025192 2.688e-17)
(0.99627 -0.0023711 -1.4988e-17)
(0.99467 0.010162 -1.5097e-17)
(1.0007 0.0076773 -2.6255e-18)
(1.005 0.026174 4.6634e-18)
(0.99911 0.00059354 -3.0339e-18)
(0.99925 -0.0005023 -3.8026e-19)
(0.9995 -0.00087487 8.5332e-18)
(1.0002 -0.0017802 -2.0344e-17)
(0.99985 -0.0017321 -1.5966e-17)
(1.0065 -0.0019364 3.3585e-17)
(0.98662 -0.0020176 -3.241e-18)
(1.0278 0.0025443 -2.8454e-17)
(0.99782 -0.0024132 3.8251e-18)
(0.99516 0.0099959 1.422e-17)
(1.0006 0.0075563 8.8948e-18)
(1.0048 0.025681 -1.6817e-18)
(0.99908 0.00060408 3.0168e-19)
(0.99922 -0.00051413 2.7875e-18)
(0.99948 -0.00089371 4.6653e-18)
(1.0002 -0.0018198 1.0518e-17)
(0.99978 -0.0017752 3.1323e-17)
(1.0068 -0.0019786 7.8421e-18)
(0.98625 -0.0021217 -2.8243e-17)
(1.0275 0.002565 2.6731e-18)
(0.99933 -0.0024513 9.8655e-18)
(0.99575 0.0098311 -1.2824e-17)
(1.0006 0.0074309 -6.0191e-18)
(1.0046 0.025189 -1.9489e-18)
(0.99904 0.0006147 8.5685e-19)
(0.99919 -0.0005262 -4.8412e-19)
(0.99945 -0.00091284 -1.2315e-17)
(1.0002 -0.0018599 -2.2676e-19)
(0.9997 -0.0018193 -6.1943e-17)
(1.0071 -0.002021 9.6772e-18)
(0.9859 -0.002229 2.7742e-17)
(1.0271 0.0025811 -7.6723e-18)
(1.0008 -0.0024857 -1.0324e-17)
(0.99641 0.0096674 2.131e-17)
(1.0006 0.0073018 7.2101e-18)
(1.0044 0.024701 5.054e-18)
(0.99901 0.00062538 9.209e-19)
(0.99916 -0.00053849 -1.006e-18)
(0.99942 -0.00093229 2.2277e-17)
(1.0002 -0.0019007 4.8566e-18)
(0.99963 -0.0018645 5.4915e-17)
(1.0074 -0.0020635 -3.4079e-17)
(0.98557 -0.0023394 -9.3019e-18)
(1.0267 0.0025926 7.2302e-18)
(1.0022 -0.0025169 3.5683e-18)
(0.99716 0.0095052 -1.1993e-17)
(1.0008 0.0071696 -1.1639e-18)
(1.0044 0.024215 -3.7276e-18)
(0.99898 0.00063613 -3.5979e-18)
(0.99913 -0.00055101 1.6912e-18)
(0.9994 -0.00095205 -1.3096e-17)
(1.0002 -0.001942 6.3905e-18)
(0.99954 -0.0019108 -2.0869e-17)
(1.0078 -0.0021062 4.6219e-18)
(0.98526 -0.0024529 3.7253e-17)
(1.0262 0.0025991 -2.7077e-17)
(1.0036 -0.0025451 -1.3108e-17)
(0.99797 0.0093445 -1.1881e-17)
(1.001 0.007035 -5.7422e-18)
(1.0044 0.023733 -1.0255e-18)
(0.99894 0.00064695 4.4833e-18)
(0.9991 -0.00056377 -4.0157e-18)
(0.99937 -0.00097215 -1.2717e-17)
(1.0002 -0.001984 -1.0188e-17)
(0.99945 -0.0019582 -3.4152e-17)
(1.0081 -0.0021489 -2.1468e-17)
(0.98497 -0.0025695 -2.2844e-17)
(1.0257 0.0026006 2.5184e-17)
(1.0049 -0.0025708 1.272e-17)
(0.99884 0.0091856 1.7998e-17)
(1.0013 0.0068984 -2.2526e-18)
(1.0044 0.023255 4.9521e-18)
(0.99891 0.00065785 -7.2072e-18)
(0.99907 -0.00057677 6.5095e-18)
(0.99934 -0.00099258 3.1143e-17)
(1.0002 -0.0020266 -2.4049e-18)
(0.99936 -0.0020068 3.779e-17)
(1.0084 -0.0021918 1.6069e-18)
(0.9847 -0.0026891 -2.1904e-17)
(1.0251 0.002597 9.8723e-18)
(1.0062 -0.0025945 -4.5865e-18)
(0.99976 0.0090284 -3.7677e-18)
(1.0018 0.0067604 7.3062e-18)
(1.0046 0.022782 -3.3491e-18)
(0.99887 0.00066881 5.9073e-18)
(0.99903 -0.00059002 -8.8477e-18)
(0.99931 -0.0010134 -3.6321e-17)
(1.0002 -0.0020698 1.5737e-17)
(0.99926 -0.0020567 -2.6941e-17)
(1.0088 -0.0022348 2.9693e-17)
(0.98445 -0.0028117 7.133e-18)
(1.0245 0.0025881 -9.3912e-18)
(1.0074 -0.0026165 -2.2046e-18)
(1.0007 0.0088731 -9.4545e-18)
(1.0023 0.0066215 -1.1927e-17)
(1.0048 0.022314 4.6369e-18)
(0.99883 0.00067984 -4.3527e-18)
(0.999 -0.00060351 2.9426e-18)
(0.99928 -0.0010345 2.2074e-17)
(1.0002 -0.0021137 -2.0749e-17)
(0.99915 -0.0021077 4.3365e-17)
(1.0091 -0.0022779 -2.3064e-17)
(0.98423 -0.0029373 4.1599e-18)
(1.0239 0.0025737 -1.4866e-17)
(1.0085 -0.0026373 7.2085e-18)
(1.0017 0.0087196 -1.3289e-18)
(1.0028 0.006482 5.103e-18)
(1.0051 0.021852 -2.0589e-18)
(0.9988 0.00069095 5.3397e-18)
(0.99897 -0.00061726 2.2921e-18)
(0.99925 -0.001056 -1.4724e-17)
(1.0002 -0.0021582 -4.2496e-19)
(0.99904 -0.0021601 -1.9053e-18)
(1.0095 -0.0023211 5.5733e-18)
(0.98404 -0.0030658 3.9588e-17)
(1.0232 0.0025539 1.0172e-17)
(1.0096 -0.0026573 -2.1379e-17)
(1.0028 0.0085677 -6.8749e-18)
(1.0035 0.0063422 -4.8151e-18)
(1.0055 0.021395 2.1726e-18)
(0.99876 0.00070213 -6.1219e-18)
(0.99893 -0.00063127 -8.4955e-18)