/*--------------------------------*- C++ -*----------------------------------*\
  =========                 |
  \\      /  F ield         | OpenFOAM: The Open Source CFD Toolbox
   \\    /   O peration     | Website:  https://openfoam.org
    \\  /    A nd           | Version:  6.0
     \\/     M anipulation  |
\*---------------------------------------------------------------------------*/
FoamFile
{
    version     2.0;
    format      ascii;
    class       volScalarField;
    location    "2.4";
    object      p;
}
// * * * * * * * * * * * * * * * * * * * * * * * * * * * * * * * * * * * * * //

dimensions      [0 2 -2 0 0 0 0];

internalField   nonuniform List<scalar> 
13500
(
0.097809
0.097834
0.097366
0.096881
0.095984
0.095465
0.094699
0.095388
0.096476
0.10071
0.12235
0.16531
0.097809
0.097834
0.097366
0.096881
0.095984
0.095465
0.094698
0.095388
0.096472
0.10078
0.12167
0.16025
0.09781
0.097834
0.097367
0.096882
0.095984
0.095465
0.094696
0.095388
0.096462
0.10082
0.12079
0.15576
0.097811
0.097835
0.097367
0.096883
0.095984
0.095465
0.094693
0.095385
0.096446
0.10084
0.11981
0.15225
0.097812
0.097837
0.097369
0.096884
0.095984
0.095465
0.09469
0.095382
0.096426
0.10085
0.11878
0.1493
0.097814
0.097838
0.09737
0.096885
0.095985
0.095465
0.094686
0.095377
0.0964
0.10085
0.1177
0.14667
0.097815
0.09784
0.097372
0.096886
0.095985
0.095465
0.094681
0.095371
0.096369
0.10083
0.11662
0.14428
0.097818
0.097843
0.097374
0.096888
0.095985
0.095464
0.094676
0.095365
0.096333
0.1008
0.11555
0.1421
0.097821
0.097845
0.097376
0.09689
0.095986
0.095463
0.09467
0.095356
0.096292
0.10076
0.1145
0.14007
0.097824
0.097849
0.097379
0.096892
0.095986
0.095462
0.094663
0.095347
0.096246
0.1007
0.11348
0.13819
0.097827
0.097852
0.097382
0.096894
0.095987
0.095461
0.094656
0.095336
0.096194
0.10063
0.1125
0.13642
0.097831
0.097856
0.097386
0.096897
0.095988
0.095459
0.094649
0.095325
0.096138
0.10055
0.11156
0.13475
0.097836
0.09786
0.097389
0.0969
0.095989
0.095457
0.09464
0.095311
0.096076
0.10046
0.11066
0.13317
0.09784
0.097864
0.097393
0.096903
0.09599
0.095456
0.094632
0.095297
0.096009
0.10036
0.10981
0.13167
0.097846
0.097869
0.097398
0.096906
0.095991
0.095453
0.094622
0.095281
0.095936
0.10025
0.10899
0.13024
0.097851
0.097875
0.097402
0.096909
0.095992
0.095451
0.094612
0.095264
0.095858
0.10013
0.10821
0.12887
0.097857
0.09788
0.097408
0.096913
0.095993
0.095449
0.094602
0.095245
0.095775
0.10002
0.10746
0.12756
0.097864
0.097886
0.097413
0.096917
0.095995
0.095446
0.094591
0.095225
0.095686
0.099893
0.10674
0.1263
0.09787
0.097893
0.097419
0.096921
0.095996
0.095443
0.094579
0.095204
0.095593
0.099769
0.10605
0.12509
0.097878
0.097899
0.097425
0.096925
0.095998
0.09544
0.094567
0.095181
0.095495
0.099643
0.10538
0.12392
0.097885
0.097907
0.097431
0.09693
0.096
0.095437
0.094554
0.095157
0.095391
0.099517
0.10473
0.1228
0.097894
0.097914
0.097438
0.096934
0.096002
0.095433
0.094541
0.095131
0.095284
0.099392
0.1041
0.1217
0.097902
0.097922
0.097446
0.09694
0.096004
0.095429
0.094527
0.095103
0.095172
0.099267
0.10348
0.12064
0.097911
0.097931
0.097453
0.096945
0.096006
0.095425
0.094513
0.095074
0.095057
0.099143
0.10288
0.11961
0.097921
0.09794
0.097461
0.09695
0.096008
0.095421
0.094498
0.095044
0.094938
0.099021
0.10229
0.1186
0.097931
0.097949
0.09747
0.096956
0.096011
0.095417
0.094483
0.095012
0.094816
0.0989
0.1017
0.11762
0.097941
0.097959
0.097478
0.096962
0.096013
0.095412
0.094467
0.094978
0.094692
0.098781
0.10113
0.11667
0.097952
0.097969
0.097488
0.096969
0.096016
0.095407
0.094451
0.094943
0.094564
0.098663
0.10056
0.11573
0.097963
0.097979
0.097497
0.096975
0.096019
0.095402
0.094434
0.094906
0.094435
0.098546
0.099998
0.11482
0.097975
0.09799
0.097507
0.096982
0.096022
0.095397
0.094417
0.094868
0.094304
0.098431
0.099442
0.11393
0.097987
0.098002
0.097518
0.096989
0.096026
0.095392
0.094399
0.094828
0.094171
0.098316
0.098893
0.11305
0.098
0.098014
0.097528
0.096997
0.096029
0.095386
0.094381
0.094787
0.094038
0.098201
0.098348
0.1122
0.098014
0.098026
0.097539
0.097004
0.096033
0.09538
0.094362
0.094745
0.093903
0.098087
0.097809
0.11136
0.098027
0.098039
0.097551
0.097012
0.096036
0.095374
0.094343
0.094701
0.093767
0.097972
0.097275
0.11053
0.098042
0.098052
0.097563
0.097021
0.09604
0.095368
0.094323
0.094656
0.093631
0.097857
0.096746
0.10972
0.098056
0.098066
0.097576
0.097029
0.096044
0.095361
0.094302
0.09461
0.093495
0.097742
0.096223
0.10893
0.098072
0.09808
0.097588
0.097038
0.096049
0.095355
0.094282
0.094563
0.093358
0.097625
0.095705
0.10815
0.098087
0.098095
0.097602
0.097047
0.096053
0.095348
0.09426
0.094515
0.093221
0.097508
0.095193
0.10739
0.098104
0.09811
0.097616
0.097057
0.096058
0.095341
0.094238
0.094466
0.093085
0.097389
0.094687
0.10664
0.098121
0.098126
0.09763
0.097067
0.096063
0.095334
0.094216
0.094417
0.092948
0.097268
0.094187
0.10591
0.098138
0.098142
0.097644
0.097077
0.096068
0.095327
0.094193
0.094367
0.092811
0.097146
0.093693
0.10519
0.098156
0.098159
0.097659
0.097087
0.096073
0.095319
0.094169
0.094316
0.092675
0.097021
0.093206
0.10448
0.098174
0.098176
0.097675
0.097098
0.096078
0.095312
0.094146
0.094265
0.092538
0.096895
0.092725
0.10379
0.098193
0.098194
0.097691
0.097109
0.096084
0.095304
0.094121
0.094214
0.092402
0.096767
0.092251
0.10311
0.098213
0.098212
0.097707
0.097121
0.09609
0.095296
0.094096
0.094162
0.092265
0.096636
0.091783
0.10244
0.098233
0.098231
0.097724
0.097132
0.096096
0.095288
0.094071
0.094111
0.092129
0.096503
0.091323
0.10178
0.098253
0.09825
0.097742
0.097145
0.096102
0.09528
0.094045
0.094059
0.091993
0.096368
0.090869
0.10114
0.098275
0.09827
0.09776
0.097157
0.096109
0.095272
0.094018
0.094007
0.091856
0.096231
0.090423
0.1005
0.098296
0.09829
0.097778
0.09717
0.096115
0.095264
0.093991
0.093955
0.09172
0.096091
0.089983
0.099883
0.098319
0.098311
0.097797
0.097183
0.096122
0.095255
0.093964
0.093903
0.091583
0.095949
0.089551
0.099273
0.098342
0.098332
0.097816
0.097197
0.096129
0.095247
0.093936
0.093852
0.091446
0.095805
0.089126
0.098674
0.098365
0.098354
0.097836
0.09721
0.096137
0.095239
0.093907
0.0938
0.091309
0.095659
0.088708
0.098085
0.098389
0.098377
0.097856
0.097225
0.096144
0.09523
0.093878
0.093749
0.091171
0.09551
0.088297
0.097507
0.098414
0.0984
0.097877
0.097239
0.096152
0.095222
0.093849
0.093697
0.091033
0.095359
0.087893
0.096939
0.098439
0.098424
0.097899
0.097255
0.09616
0.095213
0.093819
0.093646
0.090895
0.095207
0.087496
0.09638
0.098465
0.098448
0.09792
0.09727
0.096169
0.095205
0.093788
0.093596
0.090757
0.095052
0.087105
0.095831
0.098491
0.098473
0.097943
0.097286
0.096177
0.095197
0.093757
0.093545
0.090618
0.094895
0.086722
0.095291
0.098518
0.098498
0.097966
0.097302
0.096186
0.095188
0.093726
0.093495
0.090478
0.094736
0.086345
0.09476
0.098546
0.098524
0.097989
0.097319
0.096195
0.09518
0.093694
0.093445
0.090339
0.094575
0.085975
0.094237
0.098574
0.098551
0.098013
0.097336
0.096204
0.095172
0.093662
0.093395
0.090198
0.094413
0.085611
0.093724
0.098603
0.098578
0.098038
0.097354
0.096213
0.095164
0.093629
0.093345
0.090058
0.094249
0.085253
0.093218
0.098633
0.098606
0.098063
0.097372
0.096223
0.095156
0.093596
0.093295
0.089917
0.094083
0.084902
0.092721
0.098663
0.098635
0.098088
0.09739
0.096233
0.095148
0.093562
0.093246
0.089776
0.093916
0.084557
0.092231
0.098694
0.098664
0.098115
0.097409
0.096243
0.09514
0.093528
0.093196
0.089635
0.093747
0.084218
0.091749
0.098726
0.098694
0.098141
0.097428
0.096254
0.095133
0.093494
0.093147
0.089493
0.093576
0.083885
0.091274
0.098758
0.098724
0.098169
0.097448
0.096265
0.095125
0.093459
0.093098
0.089352
0.093405
0.083557
0.090806
0.098791
0.098755
0.098196
0.097468
0.096276
0.095118
0.093424
0.093049
0.08921
0.093231
0.083236
0.090346
0.098824
0.098787
0.098225
0.097489
0.096287
0.095111
0.093388
0.093
0.089068
0.093057
0.08292
0.089892
0.098859
0.098819
0.098254
0.09751
0.096298
0.095104
0.093352
0.092951
0.088925
0.092881
0.082609
0.089445
0.098894
0.098852
0.098284
0.097532
0.09631
0.095097
0.093316
0.092902
0.088783
0.092705
0.082304
0.089004
0.098929
0.098886
0.098314
0.097555
0.096322
0.095091
0.093279
0.092853
0.088641
0.092527
0.082004
0.08857
0.098965
0.09892
0.098345
0.097577
0.096334
0.095085
0.093242
0.092804
0.088499
0.092348
0.081709
0.088142
0.099003
0.098956
0.098376
0.097601
0.096347
0.095079
0.093204
0.092754
0.088357
0.092168
0.081419
0.087719
0.09904
0.098991
0.098408
0.097624
0.09636
0.095073
0.093166
0.092705
0.088215
0.091988
0.081133
0.087303
0.099079
0.099028
0.098441
0.097649
0.096373
0.095068
0.093128
0.092656
0.088073
0.091806
0.080853
0.086892
0.099118
0.099065
0.098474
0.097674
0.096386
0.095062
0.09309
0.092606
0.087932
0.091624
0.080577
0.086487
0.099158
0.099103
0.098508
0.097699
0.0964
0.095058
0.093051
0.092557
0.087791
0.09144
0.080306
0.086087
0.099199
0.099142
0.098542
0.097725
0.096414
0.095053
0.093012
0.092507
0.08765
0.091257
0.08004
0.085693
0.09924
0.099182
0.098578
0.097752
0.096429
0.095049
0.092973
0.092457
0.087509
0.091072
0.079777
0.085304
0.099282
0.099222
0.098614
0.097779
0.096443
0.095045
0.092933
0.092407
0.087369
0.090887
0.079519
0.084919
0.099325
0.099263
0.09865
0.097807
0.096458
0.095041
0.092893
0.092356
0.08723
0.090701
0.079265
0.08454
0.099369
0.099305
0.098687
0.097835
0.096474
0.095038
0.092853
0.092306
0.08709
0.090515
0.079015
0.084165
0.099414
0.099347
0.098725
0.097864
0.096489
0.095035
0.092813
0.092255
0.086952
0.090328
0.078769
0.083795
0.099459
0.099391
0.098764
0.097894
0.096505
0.095032
0.092773
0.092204
0.086813
0.090141
0.078527
0.083429
0.099505
0.099435
0.098803
0.097924
0.096522
0.09503
0.092732
0.092153
0.086676
0.089953
0.078288
0.083068
0.099552
0.09948
0.098843
0.097955
0.096539
0.095028
0.092691
0.092102
0.086539
0.089765
0.078054
0.082711
0.0996
0.099526
0.098884
0.097986
0.096556
0.095026
0.09265
0.09205
0.086402
0.089576
0.077822
0.082359
0.099649
0.099573
0.098925
0.098018
0.096573
0.095025
0.092609
0.091998
0.086267
0.089388
0.077595
0.08201
0.099698
0.09962
0.098968
0.098051
0.096591
0.095024
0.092568
0.091946
0.086132
0.089199
0.07737
0.081665
0.099749
0.099669
0.099011
0.098084
0.096609
0.095024
0.092527
0.091893
0.085997
0.089009
0.077149
0.081325
0.0998
0.099718
0.099055
0.098119
0.096628
0.095024
0.092485
0.091841
0.085864
0.08882
0.076931
0.080987
0.099852
0.099768
0.099099
0.098154
0.096647
0.095025
0.092444
0.091787
0.085731
0.08863
0.076716
0.080654
0.099906
0.09982
0.099145
0.098189
0.096667
0.095026
0.092402
0.091734
0.085599
0.08844
0.076505
0.080324
0.09996
0.099872
0.099191
0.098225
0.096687
0.095027
0.092361
0.09168
0.085467
0.088249
0.076296
0.079998
0.10001
0.099925
0.099238
0.098262
0.096707
0.095029
0.092319
0.091626
0.085337
0.088059
0.07609
0.079675
0.10007
0.099979
0.099286
0.0983
0.096728
0.095031
0.092277
0.091572
0.085207
0.087869
0.075886
0.079355
0.10013
0.10003
0.099335
0.098339
0.09675
0.095034
0.092236
0.091517
0.085078
0.087678
0.075686
0.079038
0.10019
0.10009
0.099384
0.098378
0.096771
0.095038
0.092194
0.091462
0.08495
0.087487
0.075487
0.078725
0.10024
0.10015
0.099435
0.098418
0.096794
0.095042
0.092153
0.091407
0.084822
0.087296
0.075292
0.078414
0.1003
0.10021
0.099487
0.098459
0.096817
0.095046
0.092111
0.091351
0.084696
0.087106
0.075099
0.078106
0.10037
0.10026
0.099539
0.098501
0.09684
0.095051
0.09207
0.091295
0.08457
0.086915
0.074908
0.077801
0.10043
0.10032
0.099593
0.098544
0.096865
0.095057
0.092028
0.091239
0.084446
0.086724
0.074719
0.077499
0.10049
0.10039
0.099647
0.098587
0.096889
0.095063
0.091987
0.091182
0.084322
0.086532
0.074533
0.077199
0.10056
0.10045
0.099702
0.098632
0.096914
0.09507
0.091946
0.091125
0.084199
0.086341
0.074349
0.076902
0.10062
0.10051
0.099759
0.098677
0.09694
0.095077
0.091905
0.091068
0.084077
0.08615
0.074166
0.076607
0.10069
0.10058
0.099817
0.098724
0.096967
0.095085
0.091864
0.09101
0.083956
0.085959
0.073986
0.076315
0.10076
0.10064
0.099875
0.098771
0.096994
0.095094
0.091824
0.090952
0.083836
0.085768
0.073807
0.076024
0.10082
0.10071
0.099935
0.098819
0.097022
0.095104
0.091783
0.090894
0.083716
0.085577
0.073631
0.075736
0.10089
0.10078
0.099996
0.098869
0.09705
0.095114
0.091743
0.090835
0.083598
0.085386
0.073456
0.07545
0.10097
0.10085
0.10006
0.098919
0.09708
0.095125
0.091703
0.090776
0.08348
0.085195
0.073282
0.075166
0.10104
0.10092
0.10012
0.09897
0.09711
0.095136
0.091664
0.090717
0.083363
0.085004
0.07311
0.074884
0.10111
0.10099
0.10019
0.099023
0.097141
0.095149
0.091625
0.090657
0.083247
0.084813
0.07294
0.074603
0.10119
0.10107
0.10025
0.099077
0.097172
0.095162
0.091586
0.090597
0.083132
0.084622
0.072771
0.074324
0.10127
0.10114
0.10032
0.099132
0.097205
0.095176
0.091548
0.090537
0.083018
0.084431
0.072604
0.074047
0.10135
0.10122
0.10039
0.099188
0.097238
0.09519
0.09151
0.090477
0.082905
0.08424
0.072437
0.073771
0.10143
0.1013
0.10046
0.099246
0.097272
0.095206
0.091472
0.090416
0.082793
0.084049
0.072272
0.073497
0.10151
0.10138
0.10053
0.099304
0.097308
0.095223
0.091435
0.090355
0.082681
0.083858
0.072108
0.073224
0.10159
0.10146
0.1006
0.099365
0.097344
0.09524
0.091399
0.090293
0.082571
0.083667
0.071945
0.072952
0.10168
0.10154
0.10068
0.099426
0.097381
0.095259
0.091363
0.090232
0.082461
0.083476
0.071783
0.072682
0.10176
0.10163
0.10075
0.099489
0.097419
0.095278
0.091328
0.09017
0.082352
0.083285
0.071622
0.072412
0.10185
0.10171
0.10083
0.099554
0.097459
0.095298
0.091293
0.090108
0.082244
0.083094
0.071461
0.072144
0.10194
0.1018
0.10091
0.09962
0.097499
0.09532
0.091259
0.090046
0.082137
0.082903
0.071302
0.071876
0.10203
0.10189
0.10099
0.099688
0.097541
0.095342
0.091226
0.089984
0.08203
0.082712
0.071143
0.071609
0.10213
0.10199
0.10108
0.099758
0.097584
0.095366
0.091194
0.089921
0.081925
0.082521
0.070985
0.071343
0.10222
0.10208
0.10116
0.099829
0.097629
0.095391
0.091163
0.089859
0.08182
0.08233
0.070827
0.071078
0.10232
0.10218
0.10125
0.099902
0.097674
0.095417
0.091132
0.089796
0.081716
0.082139
0.07067
0.070813
0.10242
0.10228
0.10134
0.099977
0.097722
0.095445
0.091103
0.089733
0.081613
0.081948
0.070513
0.070548
0.10253
0.10238
0.10143
0.10005
0.09777
0.095474
0.091074
0.08967
0.081511
0.081757
0.070356
0.070284
0.10263
0.10248
0.10152
0.10013
0.097821
0.095504
0.091047
0.089608
0.081409
0.081566
0.0702
0.07002
0.10274
0.10259
0.10162
0.10022
0.097873
0.095535
0.091021
0.089545
0.081309
0.081375
0.070044
0.069756
0.10285
0.1027
0.10172
0.1003
0.097927
0.095569
0.090996
0.089482
0.081209
0.081184
0.069887
0.069492
0.10296
0.10281
0.10182
0.10038
0.097982
0.095603
0.090972
0.08942
0.08111
0.080993
0.069731
0.069228
0.10307
0.10292
0.10192
0.10047
0.09804
0.09564
0.09095
0.089358
0.081012
0.080801
0.069575
0.068964
0.10319
0.10304
0.10203
0.10056
0.098099
0.095678
0.090929
0.089296
0.080915
0.08061
0.069419
0.0687
0.10331
0.10316
0.10214
0.10066
0.098161
0.095718
0.09091
0.089234
0.080818
0.080418
0.069263
0.068436
0.10344
0.10328
0.10225
0.10075
0.098225
0.095759
0.090892
0.089172
0.080723
0.080227
0.069106
0.06817
0.10356
0.1034
0.10237
0.10085
0.098291
0.095803
0.090876
0.089111
0.080628
0.080035
0.068949
0.067905
0.10369
0.10353
0.10248
0.10096
0.09836
0.095849
0.090862
0.08905
0.080534
0.079844
0.068792
0.067639
0.10383
0.10367
0.1026
0.10106
0.098431
0.095897
0.09085
0.08899
0.080441
0.079652
0.068634
0.067372
0.10396
0.1038
0.10273
0.10117
0.098505
0.095947
0.090839
0.088931
0.080349
0.07946
0.068476
0.067104
0.10411
0.10394
0.10286
0.10128
0.098581
0.095999
0.090831
0.088871
0.080258
0.079268
0.068317
0.066835
0.10425
0.10409
0.10299
0.1014
0.098661
0.096054
0.090825
0.088813
0.080168
0.079076
0.068158
0.066565
0.1044
0.10423
0.10313
0.10152
0.098744
0.096112
0.090821
0.088756
0.080079
0.078884
0.067997
0.066294
0.10455
0.10438
0.10327
0.10164
0.09883
0.096172
0.090819
0.088699
0.079991
0.078691
0.067836
0.066021
0.10471
0.10454
0.10341
0.10177
0.098919
0.096235
0.09082
0.088643
0.079904
0.078499
0.067674
0.065748
0.10487
0.1047
0.10356
0.1019
0.099013
0.096301
0.090824
0.088589
0.079818
0.078306
0.067511
0.065472
0.10503
0.10487
0.10371
0.10204
0.099109
0.09637
0.09083
0.088535
0.079733
0.078114
0.067347
0.065195
0.1052
0.10504
0.10387
0.10218
0.09921
0.096442
0.090839
0.088483
0.079649
0.077921
0.067181
0.064916
0.10538
0.10521
0.10403
0.10232
0.099315
0.096518
0.090852
0.088432
0.079566
0.077728
0.067015
0.064635
0.10556
0.10539
0.1042
0.10247
0.099424
0.096597
0.090867
0.088382
0.079485
0.077535
0.066847
0.064352
0.10574
0.10558
0.10437
0.10263
0.099538
0.09668
0.090886
0.088334
0.079405
0.077342
0.066678
0.064067
0.10593
0.10577
0.10455
0.10279
0.099656
0.096766
0.090908
0.088288
0.079325
0.077149
0.066507
0.06378
0.10613
0.10597
0.10473
0.10295
0.099779
0.096857
0.090934
0.088243
0.079248
0.076955
0.066335
0.06349
0.10633
0.10617
0.10492
0.10313
0.099908
0.096952
0.090963
0.0882
0.079171
0.076762
0.066161
0.063198
0.10654
0.10638
0.10512
0.1033
0.10004
0.097051
0.090997
0.08816
0.079096
0.076568
0.065986
0.062902
0.10676
0.1066
0.10532
0.10349
0.10018
0.097155
0.091034
0.088121
0.079023
0.076374
0.065809
0.062604
0.10698
0.10682
0.10553
0.10368
0.10033
0.097264
0.091076
0.088085
0.07895
0.07618
0.065629
0.062303
0.10721
0.10705
0.10575
0.10388
0.10048
0.097378
0.091122
0.08805
0.07888
0.075986
0.065448
0.061999
0.10744
0.10729
0.10597
0.10408
0.10064
0.097496
0.091173
0.088019
0.078811
0.075791
0.065265
0.061691
0.10769
0.10753
0.1062
0.10429
0.1008
0.097621
0.091229
0.08799
0.078743
0.075597
0.065079
0.061379
0.10794
0.10779
0.10644
0.10451
0.10097
0.097751
0.09129
0.087964
0.078678
0.075402
0.064891
0.061064
0.1082
0.10805
0.10669
0.10474
0.10115
0.097886
0.091355
0.087941
0.078613
0.075207
0.0647
0.060745
0.10846
0.10832
0.10694
0.10498
0.10133
0.098028
0.091427
0.08792
0.078551
0.075011
0.064507
0.060422
0.10874
0.1086
0.10721
0.10522
0.10153
0.098176
0.091503
0.087903
0.07849
0.074816
0.064312
0.060094
0.10902
0.10889
0.10748
0.10547
0.10173
0.098331
0.091586
0.087889
0.078432
0.07462
0.064113
0.059762
0.10932
0.10918
0.10776
0.10574
0.10194
0.098492
0.091674
0.087879
0.078375
0.074423
0.063911
0.059425
0.10962
0.10949
0.10805
0.10601
0.10216
0.098661
0.091769
0.087872
0.078319
0.074226
0.063706
0.059083
0.10993
0.10981
0.10836
0.10629
0.10239
0.098836
0.091869
0.087869
0.078266
0.074029
0.063498
0.058736
0.11025
0.11013
0.10867
0.10658
0.10262
0.099019
0.091977
0.087869
0.078214
0.073831
0.063286
0.058383
0.11058
0.11047
0.10899
0.10688
0.10287
0.09921
0.09209
0.087874
0.078165
0.073632
0.06307
0.058024
0.11093
0.11082
0.10932
0.10719
0.10312
0.099409
0.092211
0.087882
0.078117
0.073432
0.062851
0.057659
0.11128
0.11118
0.10967
0.10751
0.10339
0.099616
0.092339
0.087894
0.078071
0.073232
0.062627
0.057288
0.11164
0.11155
0.11002
0.10785
0.10367
0.099831
0.092474
0.087911
0.078026
0.07303
0.062399
0.05691
0.11202
0.11193
0.11039
0.10819
0.10395
0.10006
0.092616
0.087931
0.077984
0.072828
0.062166
0.056525
0.1124
0.11233
0.11077
0.10855
0.10425
0.10029
0.092766
0.087956
0.077943
0.072623
0.061927
0.056132
0.1128
0.11274
0.11117
0.10892
0.10456
0.10053
0.092924
0.087985
0.077903
0.072418
0.061684
0.055731
0.11322
0.11316
0.11157
0.1093
0.10488
0.10078
0.093089
0.088018
0.077865
0.07221
0.061435
0.055323
0.11364
0.1136
0.11199
0.1097
0.10522
0.10104
0.093262
0.088056
0.077829
0.072001
0.06118
0.054905
0.11408
0.11404
0.11243
0.11011
0.10556
0.10131
0.093443
0.088098
0.077793
0.071789
0.060919
0.054478
0.11453
0.11451
0.11288
0.11053
0.10592
0.1016
0.093633
0.088144
0.077758
0.071575
0.060651
0.054042
0.11499
0.11498
0.11334
0.11096
0.1063
0.10189
0.093831
0.088194
0.077724
0.071357
0.060375
0.053595
0.11547
0.11547
0.11382
0.11142
0.10668
0.10219
0.094037
0.088249
0.077691
0.071137
0.060092
0.053138
0.11596
0.11598
0.11431
0.11188
0.10708
0.1025
0.094251
0.088308
0.077658
0.070913
0.059801
0.052669
0.11647
0.1165
0.11482
0.11236
0.1075
0.10282
0.094475
0.08837
0.077625
0.070685
0.059501
0.052189
0.117
0.11704
0.11535
0.11286
0.10792
0.10316
0.094706
0.088437
0.077592
0.070452
0.059191
0.051696
0.11754
0.1176
0.11589
0.11337
0.10837
0.10351
0.094947
0.088507
0.077558
0.070214
0.058872
0.051189
0.11809
0.11817
0.11645
0.1139
0.10883
0.10386
0.095196
0.088581
0.077524
0.069971
0.058542
0.050669
0.11867
0.11876
0.11703
0.11445
0.1093
0.10423
0.095455
0.088659
0.077488
0.069722
0.058201
0.050134
0.11926
0.11937
0.11763
0.11501
0.1098
0.10462
0.095722
0.08874
0.07745
0.069467
0.057848
0.049583
0.11987
0.12
0.11825
0.1156
0.11031
0.10501
0.095998
0.088823
0.07741
0.069204
0.057482
0.049016
0.12049
0.12065
0.11889
0.1162
0.11083
0.10542
0.096283
0.08891
0.077368
0.068934
0.057102
0.048432
0.12114
0.12132
0.11955
0.11682
0.11138
0.10584
0.096578
0.089
0.077322
0.068654
0.056708
0.04783
0.12181
0.12201
0.12023
0.11747
0.11194
0.10628
0.096882
0.089092
0.077274
0.068366
0.056299
0.047208
0.1225
0.12272
0.12094
0.11813
0.11253
0.10673
0.097196
0.089186
0.077221
0.068068
0.055874
0.046566
0.12321
0.12346
0.12167
0.11882
0.11313
0.10719
0.097519
0.089283
0.077163
0.067759
0.055431
0.045904
0.12395
0.12422
0.12243
0.11954
0.11376
0.10767
0.097853
0.089381
0.077101
0.067438
0.05497
0.045218
0.12471
0.12501
0.12321
0.12028
0.11441
0.10817
0.098197
0.089482
0.077032
0.067105
0.05449
0.044509
0.1255
0.12583
0.12403
0.12104
0.11509
0.10868
0.098551
0.089584
0.076958
0.066759
0.053989
0.043776
0.12632
0.12668
0.12488
0.12184
0.11579
0.10922
0.098917
0.089688
0.076877
0.066399
0.053467
0.043016
0.12716
0.12756
0.12576
0.12267
0.11652
0.10977
0.099295
0.089794
0.076789
0.066023
0.052923
0.042228
0.12805
0.12848
0.12667
0.12353
0.11729
0.11034
0.099685
0.089901
0.076692
0.065632
0.052354
0.041412
0.12896
0.12943
0.12763
0.12443
0.11808
0.11094
0.10009
0.09001
0.076587
0.065223
0.051759
0.040565
0.12991
0.13043
0.12863
0.12537
0.1189
0.11156
0.1005
0.09012
0.076473
0.064796
0.051138
0.039686
0.13091
0.13146
0.12967
0.12635
0.11977
0.11221
0.10093
0.090231
0.076349
0.06435
0.050489
0.038773
0.13194
0.13254
0.13076
0.12737
0.12067
0.11288
0.10138
0.090344
0.076214
0.063883
0.04981
0.037825
0.13303
0.13368
0.1319
0.12844
0.12161
0.11358
0.10184
0.090458
0.076067
0.063393
0.049099
0.036839
0.13416
0.13486
0.1331
0.12957
0.1226
0.11432
0.10232
0.090573
0.075907
0.06288
0.048354
0.035813
0.13535
0.13611
0.13436
0.13075
0.12364
0.11509
0.10282
0.090688
0.075732
0.062341
0.047574
0.034745
0.13659
0.13741
0.13568
0.132
0.12473
0.11589
0.10333
0.090803
0.075542
0.061774
0.046755
0.033633
0.13789
0.13879
0.13708
0.13331
0.12587
0.11673
0.10386
0.090917
0.075333
0.061176
0.045896
0.032473
0.13926
0.14024
0.13855
0.13469
0.12708
0.11762
0.10441
0.091029
0.075104
0.060545
0.044992
0.031264
0.1407
0.14176
0.1401
0.13615
0.12834
0.11854
0.10498
0.091137
0.074852
0.059877
0.04404
0.030001
0.14221
0.14336
0.14173
0.13769
0.12967
0.11951
0.10556
0.091239
0.074573
0.059169
0.043037
0.028682
0.1438
0.14506
0.14346
0.13931
0.13108
0.12052
0.10617
0.091332
0.074262
0.058414
0.041977
0.027301
0.14547
0.14684
0.14529
0.14103
0.13255
0.12158
0.10679
0.091413
0.073916
0.057609
0.040855
0.025854
0.14723
0.14873
0.14721
0.14285
0.1341
0.12269
0.10742
0.091477
0.073528
0.056746
0.039664
0.024336
0.14907
0.15071
0.14925
0.14477
0.13573
0.12385
0.10806
0.091519
0.07309
0.055818
0.038399
0.022741
0.151
0.15281
0.15141
0.14679
0.13744
0.12505
0.1087
0.091533
0.072596
0.054816
0.03705
0.021062
0.15303
0.15502
0.15368
0.14893
0.13924
0.12629
0.10935
0.09151
0.072036
0.053733
0.035609
0.019291
0.15516
0.15735
0.15609
0.15119
0.14112
0.12758
0.10998
0.091442
0.071398
0.052556
0.034066
0.017419
0.15739
0.15981
0.15863
0.15357
0.14309
0.12891
0.11061
0.091319
0.070673
0.051275
0.032409
0.015437
0.15972
0.1624
0.16131
0.15609
0.14515
0.13027
0.11121
0.091128
0.069846
0.049877
0.030628
0.013334
0.16216
0.16513
0.16415
0.15874
0.1473
0.13166
0.11178
0.090855
0.068903
0.048348
0.028709
0.011099
0.16471
0.16801
0.16716
0.16154
0.14954
0.13307
0.11229
0.090486
0.067829
0.046673
0.02664
0.0087188
0.16738
0.17105
0.17034
0.1645
0.15187
0.13449
0.11275
0.090001
0.066604
0.044837
0.024405
0.006182
0.17017
0.17427
0.17373
0.16762
0.15429
0.13591
0.11312
0.089379
0.065209
0.042821
0.021991
0.0034756
0.1731
0.17768
0.17733
0.17092
0.1568
0.13732
0.11339
0.088595
0.06362
0.040607
0.01938
0.00058678
0.17617
0.1813
0.18118
0.17441
0.15941
0.13869
0.11353
0.087619
0.061809
0.038171
0.016557
-0.0024972
0.17939
0.18516
0.1853
0.17811
0.1621
0.14002
0.11351
0.086414
0.059745
0.035488
0.0135
-0.0057894
0.18277
0.18928
0.18972
0.18205
0.16487
0.14125
0.11327
0.084935
0.057387
0.032527
0.010189
-0.0093033
0.18632
0.19371
0.19449
0.18622
0.1677
0.14235
0.11277
0.083126
0.054687
0.02925
0.0065958
-0.013054
0.19005
0.19846
0.19964
0.19064
0.17056
0.14327
0.11194
0.080921
0.051588
0.025611
0.0026894
-0.017057
0.19395
0.20357
0.2052
0.19532
0.1734
0.14392
0.11069
0.078237
0.048022
0.021559
-0.0015674
-0.021332
0.198
0.20907
0.2112
0.20022
0.17615
0.1442
0.10892
0.074981
0.043911
0.017032
-0.0062158
-0.0259
0.20218
0.21498
0.21764
0.2053
0.17871
0.14399
0.10649
0.071042
0.039169
0.011969
-0.011299
-0.030781
0.20642
0.22128
0.2245
0.21048
0.18093
0.14312
0.10326
0.066301
0.03371
0.0063084
-0.016855
-0.035991
0.21066
0.22795
0.23172
0.2156
0.18259
0.14137
0.099042
0.060632
0.027452
1.2069e-06
-0.022908
-0.041536
0.21479
0.23493
0.23915
0.22044
0.18341
0.13849
0.093651
0.053911
0.020326
-0.0069794
-0.029459
-0.047396
0.21867
0.24207
0.24655
0.22461
0.18302
0.13416
0.086873
0.046021
0.012289
-0.014629
-0.036473
-0.053525
0.22218
0.24912
0.25346
0.22757
0.18091
0.12803
0.078494
0.036869
0.0033302
-0.022902
-0.043874
-0.059835
0.22517
0.25564
0.25909
0.22848
0.17641
0.11967
0.068318
0.026402
-0.0065165
-0.031715
-0.051545
-0.066209
0.22758
0.26086
0.26215
0.22605
0.16863
0.10863
0.056192
0.014636
-0.017157
-0.040937
-0.05934
-0.072502
0.22945
0.26353
0.26055
0.21844
0.15645
0.094443
0.042058
0.0016909
-0.028418
-0.050393
-0.067088
-0.078569
0.23101
0.26167
0.25119
0.2031
0.13849
0.076679
0.025986
-0.01218
-0.040026
-0.059856
-0.074613
-0.084285
0.2329
0.25264
0.22988
0.17681
0.11319
0.054937
0.0081441
-0.026625
-0.051634
-0.069061
-0.08174
-0.089557
0.23611
0.23353
0.19221
0.13623
0.07898
0.028848
-0.0113
-0.04131
-0.062909
-0.077762
-0.088329
-0.094339
0.24129
0.2012
0.13506
0.079334
0.034883
-0.0018873
-0.032316
-0.056078
-0.073674
-0.085827
-0.094322
-0.098664
0.24913
0.14969
0.054524
0.0046799
-0.020058
-0.038057
-0.05547
-0.071313
-0.0842
-0.093475
-0.099936
-0.10279
0.27043
0.081292
-0.048088
-0.08567
-0.085251
-0.080535
-0.082114
-0.088335
-0.095644
-0.10169
-0.10601
-0.10749
0.31702
0.014646
-0.15477
-0.17747
-0.15124
-0.12443
-0.11037
-0.10673
-0.10816
-0.11075
-0.11285
-0.11292
0.10321
0.063893
0.053818
0.047829
0.04371
0.040613
0.038142
0.035954
0.034094
0.032053
0.030516
0.027614
0.12259
0.079192
0.066671
0.058699
0.053275
0.04925
0.046071
0.043284
0.040947
0.038384
0.03653
0.033111
0.10986
0.074003
0.06267
0.05482
0.049463
0.045507
0.042407
0.039703
0.037473
0.035012
0.033322
0.030005
0.10477
0.073628
0.062619
0.054676
0.049181
0.045111
0.041927
0.039156
0.036894
0.034384
0.032715
0.029255
0.10411
0.075768
0.064597
0.056435
0.050695
0.046418
0.043069
0.040154
0.037787
0.035155
0.033428
0.029776
0.10344
0.077558
0.066313
0.058014
0.052075
0.047618
0.044122
0.041078
0.038613
0.035875
0.034086
0.030294
0.10231
0.078819
0.067645
0.059292
0.053204
0.0486
0.044977
0.041823
0.039274
0.036451
0.034607
0.030728
0.10111
0.079855
0.068842
0.060485
0.054281
0.049545
0.045807
0.04255
0.039922
0.037028
0.03513
0.031211
0.099993
0.080753
0.06997
0.061654
0.055362
0.050509
0.046661
0.043309
0.040603
0.03765
0.035701
0.031788
0.098928
0.081502
0.071014
0.062782
0.056438
0.051486
0.047537
0.044096
0.041317
0.038318
0.036322
0.032461
0.097899
0.082101
0.071961
0.063857
0.057495
0.052466
0.04843
0.04491
0.042063
0.039032
0.036995
0.033229
0.096901
0.082565
0.072809
0.064868
0.058525
0.053442
0.049335
0.045747
0.04284
0.03979
0.03772
0.034089
0.095937
0.082907
0.073559
0.065809
0.059517
0.054407
0.050244
0.046603
0.043644
0.040589
0.038494
0.03503
0.095008
0.083143
0.074211
0.066676
0.060462
0.055349
0.05115
0.04747
0.044469
0.041422
0.03931
0.036038
0.094114
0.083288
0.07477
0.067464
0.061353
0.05626
0.052042
0.048338
0.045307
0.04228
0.040158
0.037095
0.093257
0.083355
0.075243
0.068175
0.062185
0.057132
0.052914
0.0492
0.046149
0.043152
0.041027
0.038182
0.092437
0.083358
0.075637
0.068809
0.062955
0.05796
0.053756
0.050046
0.046986
0.044029
0.041906
0.03928
0.091653
0.083306
0.075958
0.069372
0.063663
0.058739
0.054563
0.050871
0.04781
0.044901
0.042782
0.040369
0.090904
0.083209
0.076214
0.069866
0.064308
0.059468
0.055331
0.051667
0.048614
0.045758
0.043646
0.041433
0.09019
0.083076
0.076413
0.070296
0.064894
0.060145
0.056058
0.05243
0.049392
0.046593
0.044489
0.042459
0.089508
0.082913
0.076561
0.070669
0.065422
0.060772
0.056741
0.053158
0.050139
0.047399
0.045304
0.043435
0.088857
0.082726
0.076665
0.070989
0.065896
0.061349
0.05738
0.053847
0.050853
0.048171
0.046086
0.044355
0.088235
0.08252
0.07673
0.07126
0.06632
0.061877
0.057975
0.054497
0.051532
0.048907
0.04683
0.045212
0.08764
0.082298
0.07676
0.071488
0.066698
0.062361
0.058528
0.055107
0.052174
0.049602
0.047535
0.046005
0.087071
0.082065
0.076761
0.071677
0.067032
0.062801
0.05904
0.055679
0.052778
0.050257
0.048199
0.046734
0.086525
0.081822
0.076737
0.071831
0.067326
0.0632
0.059512
0.056211
0.053345
0.050871
0.048821
0.047399
0.086001
0.081572
0.07669
0.071954
0.067584
0.063562
0.059947
0.056707
0.053877
0.051445
0.049402
0.048004
0.085497
0.081317
0.076624
0.072048
0.067809
0.063888
0.060347
0.057166
0.054373
0.051978
0.049944
0.048553
0.085012
0.081058
0.076542
0.072118
0.068004
0.064182
0.060713
0.057591
0.054835
0.052473
0.050447
0.049048
0.084545
0.080797
0.076445
0.072165
0.068171
0.064445
0.061048
0.057983
0.055264
0.052932
0.050914
0.049496
0.084094
0.080533
0.076337
0.072192
0.068313
0.06468
0.061353
0.058344
0.055662
0.053356
0.051347
0.0499
0.083659
0.08027
0.076217
0.072201
0.068432
0.064889
0.061631
0.058676
0.056031
0.053747