/*--------------------------------*- C++ -*----------------------------------*\
  =========                 |
  \\      /  F ield         | OpenFOAM: The Open Source CFD Toolbox
   \\    /   O peration     | Website:  https://openfoam.org
    \\  /    A nd           | Version:  6.0
     \\/     M anipulation  |
\*---------------------------------------------------------------------------*/
FoamFile
{
    version     2.0;
    format      ascii;
    class       surfaceScalarField;
    location    "4";
    object      phi;
}
// * * * * * * * * * * * * * * * * * * * * * * * * * * * * * * * * * * * * * //

dimensions      [0 3 -1 0 0 0 0];

internalField   nonuniform List<scalar> 
123526
(
-0.000107056
2.19794e-05
0.000107467
-0.000106596
2.37723e-05
-0.000106126
2.57129e-05
-0.000105588
2.78137e-05
-0.000105035
3.0088e-05
-0.000104407
3.25506e-05
-0.000103756
3.52173e-05
-0.000103027
3.81056e-05
-0.000102267
4.12332e-05
-0.000101421
4.46208e-05
-0.000100534
4.82912e-05
-9.95547e-05
5.22679e-05
-9.85223e-05
5.65766e-05
-9.73867e-05
6.12431e-05
-9.61802e-05
6.62993e-05
-9.48624e-05
7.17829e-05
-9.346e-05
7.77267e-05
-9.19276e-05
8.41628e-05
-9.02865e-05
9.11431e-05
-8.8508e-05
9.87161e-05
-8.65947e-05
0.000106919
-8.45173e-05
0.000115815
-8.22891e-05
0.000125472
-7.98641e-05
0.000135929
-7.7257e-05
0.000147286
-7.44325e-05
0.0001596
-7.13842e-05
0.000172954
-6.80908e-05
0.00018745
-6.45316e-05
0.00020316
-6.069e-05
0.000220215
-5.65359e-05
0.00023869
-5.20498e-05
0.00025873
-4.72022e-05
0.000280436
-4.19725e-05
0.00030396
-3.63439e-05
0.000329449
-3.0277e-05
0.00035702
-2.37578e-05
0.000386846
-1.67422e-05
0.000419051
-9.18253e-06
0.000453789
-1.04201e-06
0.000491224
7.7369e-06
0.00053148
1.72229e-05
0.000574674
2.74766e-05
0.000620901
3.85746e-05
0.000670169
5.06139e-05
0.000722382
6.37046e-05
0.000777288
7.7977e-05
0.000834406
9.35531e-05
0.000892933
0.000110551
0.00095166
0.000129011
0.0010089
0.000148897
0.00106249
0.000170009
0.00110972
0.000192139
0.00114738
0.000214934
0.00117179
0.000237969
0.00117866
0.000260911
0.00116257
0.000283102
0.00111711
0.000304155
0.0010315
0.000321916
0.000891099
0.000629945
0.000323242
-0.00010934
2.16076e-05
0.000109714
-0.000108915
2.33645e-05
-0.000108473
2.52657e-05
-0.000107966
2.73231e-05
-0.000107435
2.95501e-05
-0.00010683
3.19612e-05
-0.000106192
3.4572e-05
-0.000105473
3.74e-05
-0.000104711
4.04619e-05
-0.000103858
4.37787e-05
-0.000102951
4.73737e-05
-0.000101944
5.12699e-05
-0.000100873
5.54929e-05
-9.96889e-05
6.00659e-05
-9.84229e-05
6.50218e-05
-9.7037e-05
7.04025e-05
-9.55573e-05
7.62375e-05
-9.39411e-05
8.2551e-05
-9.22097e-05
8.94043e-05
-9.03368e-05
9.68466e-05
-8.83252e-05
0.000104902
-8.61492e-05
0.000113642
-8.38203e-05
0.00012314
-8.12983e-05
0.000133408
-7.85939e-05
0.000144579
-7.5679e-05
0.000156686
-7.25409e-05
0.000169815
-6.91667e-05
0.000184077
-6.55277e-05
0.000199521
-6.1617e-05
0.000216306
-5.73995e-05
0.000234474
-5.28683e-05
0.0002542
-4.79969e-05
0.00027556
-4.27623e-05
0.00029872
-3.71415e-05
0.000323824
-3.10921e-05
0.000350969
-2.46045e-05
0.000380358
-1.76414e-05
0.000412088
-1.01597e-05
0.000446307
-2.12711e-06
0.00048319
6.5159e-06
0.000522834
1.58552e-05
0.00056533
2.59712e-05
0.000610779
3.69565e-05
0.000659177
4.89237e-05
0.000710408
6.19965e-05
0.000764208
7.63084e-05
0.000820094
9.19728e-05
0.000877274
0.000109078
0.00093458
0.000127624
0.000990397
0.000147542
0.00104265
0.000168588
0.00108878
0.000190555
0.00112565
0.000213066
0.00114964
0.000235694
0.00115647
0.000258122
0.00114074
0.000279729
0.001096
0.000300078
0.00101185
0.000314412
0.000877278
0.000631055
0.000314185
-0.000109013
2.12516e-05
0.000109374
-0.000108613
2.29793e-05
-0.000108199
2.48484e-05
-0.000107733
2.68704e-05
-0.000107247
2.90584e-05
-0.000106699
3.14263e-05
-0.000106123
3.39896e-05
-0.000105476
3.67653e-05
-0.000104792
3.97688e-05
-0.000104024
4.3021e-05
-0.000103208
4.65459e-05
-0.000102295
5.03652e-05
-0.00010132
5.45045e-05
-0.000100231
5.89842e-05
-9.90626e-05
6.38384e-05
-9.7767e-05
6.9113e-05
-9.63769e-05
7.48342e-05
-9.48403e-05
8.10193e-05
-9.31847e-05
8.77383e-05
-9.13767e-05
9.50423e-05
-8.94242e-05
0.000102942
-8.72974e-05
0.000111517
-8.50112e-05
0.000120848
-8.2524e-05
0.000130922
-7.98482e-05
0.0001419
-7.6956e-05
0.000153793
-7.38352e-05
0.000166692
-7.04741e-05
0.000180714
-6.68437e-05
0.00019589
-6.29389e-05
0.0002124
-5.87243e-05
0.000230261
-5.41958e-05
0.000249671
-4.93251e-05
0.000270686
-4.40899e-05
0.000293476
-3.84618e-05
0.00031819
-3.23959e-05
0.000344902
-2.58815e-05
0.000373844
-1.88811e-05
0.000405088
-1.13525e-05
0.000438777
-3.26424e-06
0.000475099
5.44257e-06
0.000514124
1.4859e-05
0.00055591
2.50702e-05
0.000600563
3.61678e-05
0.000648073
4.82578e-05
0.000698313
6.14525e-05
0.000751008
7.5867e-05
0.00080568
9.15904e-05
0.000861551
0.000108681
0.0009175
0.000127117
0.000971973
0.000146815
0.00102299
0.000167529
0.00106807
0.000189068
0.00110416
0.000211061
0.00112769
0.00023312
0.00113439
0.000254913
0.00111901
0.000275881
0.00107488
0.00029545
0.000992246
0.000309158
0.000863327
0.000628347
0.000311451
-0.000107653
2.09023e-05
0.000107999
-0.000107265
2.26027e-05
-0.000106864
2.44423e-05
-0.000106415
2.64323e-05
-0.000105946
2.85854e-05
-0.000105424
3.09154e-05
-0.000104875
3.34374e-05
-0.000104266
3.61677e-05
-0.000103624
3.91208e-05
-0.00010291
4.23171e-05
-0.000102151
4.57807e-05
-0.000101309
4.95324e-05
-0.00010041
5.35972e-05
-9.94094e-05
5.79923e-05
-9.8332e-05
6.27529e-05
-9.71393e-05
6.79281e-05
-9.58534e-05
7.35411e-05
-9.44287e-05
7.96016e-05
-9.28851e-05
8.61885e-05
-9.11914e-05
9.33539e-05
-8.93514e-05
0.000101097
-8.73349e-05
0.000109504
-8.5155e-05
0.000118664
-8.27687e-05
0.000128537
-8.01883e-05
0.000139315
-7.73847e-05
0.000150988
-7.43465e-05
0.00016365
-7.10609e-05
0.000177427
-6.75001e-05
0.000192327
-6.3658e-05
0.000208557
-5.95013e-05
0.000226104
-5.50226e-05
0.000245192
-5.01975e-05
0.000265854
-4.49978e-05
0.000288269
-3.93976e-05
0.000312584
-3.33492e-05
0.000338851
-2.68403e-05
0.000367334
-1.9832e-05
0.000398079
-1.22817e-05
0.000431226
-4.15686e-06
0.000466973
4.59984e-06
0.000505364
1.40781e-05
0.000546428
2.4362e-05
0.000590273
3.55379e-05
0.000636889
4.77029e-05
0.000686138
6.09556e-05
0.000737742
7.53934e-05
0.000791229
9.10846e-05
0.000845843
0.000108067
0.000900506
0.000126304
0.000953721
0.000145706
0.00100358
0.000166033
0.00104772
0.000187111
0.00108312
0.000208584
0.00110632
0.000230097
0.00111298
0.000251297
0.00109799
0.000271668
0.00105462
0.000290544
0.000973622
0.000304484
0.00084951
0.000623792
0.000309349
-0.000106
2.05607e-05
0.000106347
-0.000105617
2.22342e-05
-0.000105222
2.40448e-05
-0.00010478
2.60035e-05
-0.000104322
2.8123e-05
-0.000103811
3.04166e-05
-0.000103278
3.28993e-05
-0.000102686
3.55872e-05
-0.000102066
3.84933e-05
-0.000101377
4.1638e-05
-0.000100651
4.50457e-05
-9.98444e-05
4.87359e-05
-9.89917e-05
5.2733e-05
-9.80416e-05
5.70512e-05
-9.7027e-05
6.1726e-05
-9.59012e-05
6.68104e-05
-9.46947e-05
7.23234e-05
-9.33537e-05
7.82676e-05
-9.19042e-05
8.47299e-05
-9.03086e-05
9.1764e-05
-8.85739e-05
9.93552e-05
-8.66654e-05
0.000107599
-8.45971e-05
0.00011659
-8.23232e-05
0.000126265
-7.98552e-05
0.000136843
-7.71623e-05
0.000148295
-7.42321e-05
0.000160717
-7.1051e-05
0.000174244
-6.75898e-05
0.000188865
-6.38429e-05
0.000204809
-5.97747e-05
0.000222037
-5.53798e-05
0.000240795
-5.06286e-05
0.000261098
-4.54972e-05
0.000283128
-3.99553e-05
0.000307036
-3.39562e-05
0.00033285
-2.74858e-05
0.000360864
-2.0504e-05
0.000391097
-1.29674e-05
0.000423688
-4.84234e-06
0.000458846
3.9268e-06
0.000496592
1.34256e-05
0.000536925
2.37345e-05
0.000579959
3.49338e-05
0.000625684
4.71118e-05
0.000673954
6.03546e-05
0.000724492
7.47447e-05
0.000776835
9.03345e-05
0.000830248
0.000107147
0.000883692
0.000125135
0.000935725
0.000144209
0.000984514
0.000164137
0.00102775
0.000184758
0.00106248
0.000205735
0.0010853
0.000226732
0.00109186
0.000247393
0.00107726
0.000267216
0.00103455
0.000285504
0.000955185
0.000299775
0.000834898
0.000616607
0.000306453
-0.000104267
2.02252e-05
0.000104601
-0.000103894
2.18718e-05
-0.000103506
2.36535e-05
-0.000103074
2.55812e-05
-0.000102622
2.76673e-05
-0.00010212
2.99252e-05
-0.000101594
3.23695e-05
-0.000101013
3.50161e-05
-0.000100402
3.7877e-05
-9.97271e-05
4.09724e-05
-9.90152e-05
4.43271e-05
-9.82304e-05
4.79596e-05
-9.73988e-05
5.18936e-05
-9.64799e-05
5.61403e-05
-9.54975e-05
6.07358e-05
-9.44155e-05
6.57362e-05
-9.32558e-05
7.1157e-05
-9.19736e-05
7.69928e-05
-9.05881e-05
8.33389e-05
-8.90671e-05
9.02492e-05
-8.74135e-05
9.7697e-05
-8.55946e-05
0.000105785
-8.36218e-05
0.000114614
-8.14494e-05
0.000124095
-7.90871e-05
0.000134478
-7.6503e-05
0.000145711
-7.36835e-05
0.000157895
-7.06133e-05
0.000171172
-6.72627e-05
0.000185512
-6.36238e-05
0.000201169
-5.96615e-05
0.000218075
-5.53663e-05
0.0002365
-5.07117e-05
0.000256436
-4.56681e-05
0.000278077
-4.02078e-05
0.00030157
-3.42823e-05
0.000326923
-2.78763e-05
0.000354457
-2.09488e-05
0.000384169
-1.34553e-05
0.000416194
-5.36109e-06
0.00045075
3.38747e-06
0.00048784
1.28704e-05
0.000527438
2.31627e-05
0.000569661
3.43385e-05
0.0006145
4.64775e-05
0.000661804
5.96552e-05
0.000711299
7.39416e-05
0.000762533
8.93765e-05
0.000814791
0.000105973
0.000867075
0.000123678
0.000917989
0.000142403
0.000965763
0.000161924
0.00100816
0.000182097
0.00104228
0.000202602
0.0010648
0.000223114
0.00107135
0.000243283
0.00105713
0.000262608
0.00101519
0.0002804
0.000937464
0.000294888
0.000820375
0.000608817
0.00030275
-0.000102498
1.98963e-05
0.000102829
-0.00010213
2.15165e-05
-0.000101749
2.32696e-05
-0.000101324
2.51666e-05
-0.00010088
2.72197e-05
-0.000100387
2.9442e-05
-9.98696e-05
3.18482e-05
-9.92984e-05
3.4454e-05
-9.86968e-05
3.72704e-05
-9.80326e-05
4.03175e-05
-9.73323e-05
4.36204e-05
-9.65601e-05
4.71969e-05
-9.57448e-05
5.10699e-05
-9.48434e-05
5.52481e-05
-9.38845e-05
5.97679e-05
-9.28283e-05
6.46887e-05
-9.17019e-05
7.00221e-05
-9.04571e-05
7.57558e-05
-8.91173e-05
8.19921e-05
-8.76479e-05
8.87863e-05
-8.60545e-05
9.60984e-05
-8.4303e-05
0.000104038
-8.24055e-05
0.000112713
-8.03158e-05
0.000122008
-7.80432e-05
0.000132202
-7.55548e-05
0.000143224
-7.28361e-05
0.000155175
-6.98709e-05
0.000168206
-6.66278e-05
0.000182269
-6.30985e-05
0.000197639
-5.92446e-05
0.000214222
-5.50585e-05
0.000232312
-5.05079e-05
0.000251881
-4.55666e-05
0.000273127
-4.02028e-05
0.000296201
-3.43687e-05
0.000321087
-2.80475e-05
0.000348136
-2.11973e-05
0.000377318
-1.37728e-05
0.000408768
-5.73832e-06
0.000442713
2.95781e-06
0.000479141
1.23895e-05
0.000518002
2.26258e-05
0.000559419
3.37348e-05
0.000603386
4.57886e-05
0.000649745
5.88537e-05
0.000698228
7.29901e-05
0.000748393
8.82285e-05
0.000799547
0.000104574
0.000850728
0.000121974
0.000900582
0.000140339
0.000947399
0.000159457
0.000988993
0.000179195
0.00102251
0.000199252
0.00104469
0.000219309
0.00105116
0.000239027
0.00103732
0.000257898
0.000996066
0.000275266
0.000919926
0.000289822
0.000805464
0.000599727
0.000298403
-0.000100731
1.95724e-05
0.00010105
-0.000100373
2.11663e-05
-9.99983e-05
2.28911e-05
-9.95819e-05
2.47576e-05
-9.9144e-05
2.6778e-05
-9.86593e-05
2.89653e-05
-9.81479e-05
3.13338e-05
-9.75851e-05
3.38993e-05
-9.69903e-05
3.66717e-05
-9.63364e-05
3.96712e-05
-9.5644e-05
4.29234e-05
-9.48847e-05
4.64449e-05
-9.40789e-05
5.02586e-05
-9.31937e-05
5.43701e-05
-9.22483e-05
5.88167e-05
-9.12133e-05
6.36608e-05
-9.0107e-05
6.89108e-05
-8.88907e-05
7.45466e-05
-8.75813e-05
8.06785e-05
-8.61505e-05
8.73619e-05
-8.46004e-05
9.45447e-05
-8.29003e-05
0.000102343
-8.10607e-05
0.00011087
-7.90369e-05
0.000119987
-7.68374e-05
0.00013
-7.44293e-05
0.000140817
-7.17979e-05
0.000152542
-6.89257e-05
0.000165334
-6.57815e-05
0.000179124
-6.23545e-05
0.000194212
-5.86071e-05
0.000210476
-5.45273e-05
0.000228232
-5.00857e-05
0.000247433
-4.52509e-05
0.000268284
-3.99928e-05
0.000290937
-3.42617e-05
0.000315354
-2.804e-05
0.000341914
-2.12849e-05
0.000370563
-1.39503e-05
0.000401433
-5.99998e-06
0.000434761
2.61587e-06
0.000470522
1.19652e-05
0.000508649
2.21112e-05
0.000549268
3.31165e-05
0.000592372
4.50467e-05
0.000637804
5.79609e-05
0.000685299
7.19114e-05
0.000734426
8.69221e-05
0.000784514
0.000102994
0.000834633
0.000120073
0.00088347
0.000138075
0.000929365
0.000156795
0.000970185
0.000176114
0.00100314
0.000195745
0.00102503
0.000215376
0.00103149
0.000234676
0.00101798
0.000253135
0.000977516
0.000270131
0.000902913
0.000284636
0.000790845
0.000590658
0.000293654
-9.89648e-05
1.92554e-05
9.92862e-05
-9.86105e-05
2.08236e-05
-9.82417e-05
2.25206e-05
-9.78311e-05
2.43572e-05
-9.74011e-05
2.63452e-05
-9.69244e-05
2.84978e-05
-9.64228e-05
3.0829e-05
-9.5869e-05
3.33545e-05
-9.52852e-05
3.60832e-05
-9.46406e-05
3.90355e-05
-9.39603e-05
4.22373e-05
-9.32106e-05
4.57044e-05
-9.2419e-05
4.94594e-05
-9.15451e-05
5.35052e-05
-9.06164e-05
5.78798e-05
-8.95962e-05
6.2649e-05
-8.85104e-05
6.78173e-05
-8.73146e-05
7.33582e-05
-8.60312e-05
7.93889e-05
-8.46289e-05
8.59658e-05
-8.31131e-05
9.30242e-05
-8.14522e-05
0.000100687
-7.96581e-05
0.000109072
-7.76864e-05
0.000118019
-7.55461e-05
0.000127857
-7.32045e-05
0.000138476
-7.06467e-05
0.000149982
-6.78554e-05
0.000162542
-6.47985e-05
0.000176066
-6.14652e-05
0.000190878
-5.78156e-05
0.000206828
-5.38395e-05
0.000224255
-4.95026e-05
0.000243091
-4.47763e-05
0.000263549
-3.9627e-05
0.000285782
-3.40056e-05
0.000309731
-2.78929e-05
0.000335801
-2.12455e-05
0.000363915
-1.40168e-05
0.000394203
-6.17021e-06
0.000426912
2.34245e-06
0.000462006
1.15836e-05
0.000499404
2.16112e-05
0.000539235
3.24829e-05
0.000581495
4.42592e-05
0.000626023
5.69929e-05
0.000672559
7.07306e-05
0.000720686
8.54912e-05
0.000769749
0.000101273
0.000818851
0.000118024
0.000866714
0.000135662
0.000911731
0.000153994
0.000951809
0.000172909
0.000984194
0.000192136
0.00100575
0.000211363
0.00101215
0.000230274
0.000998985
0.000248352
0.000959211
0.000265015
0.000886094
0.000279387
0.000776145
0.000580948
0.000288643
-9.72247e-05
1.8943e-05
9.75342e-05
-9.68789e-05
2.04857e-05
-9.6517e-05
2.21552e-05
-9.61145e-05
2.39622e-05
-9.56913e-05
2.59184e-05
-9.52223e-05
2.80367e-05
-9.47275e-05
3.03311e-05
-9.41825e-05
3.28171e-05
-9.36062e-05
3.55028e-05
-9.2972e-05
3.84084e-05
-9.23002e-05
4.15605e-05
-9.15629e-05
4.4974e-05
-9.07804e-05
4.86711e-05
-8.99209e-05
5.26523e-05
-8.90032e-05
5.69563e-05
-8.79994e-05
6.16518e-05
-8.69279e-05
6.67407e-05
-8.57518e-05
7.21887e-05
-8.44882e-05
7.81211e-05
-8.31108e-05
8.45944e-05
-8.16223e-05
9.15322e-05
-7.99941e-05
9.90636e-05
-7.8237e-05
0.000107313
-7.63085e-05
0.000116093
-7.42172e-05
0.000125764
-7.19312e-05
0.000136192
-6.94363e-05
0.000147486
-6.67145e-05
0.00015982
-6.37348e-05
0.000173086
-6.04848e-05
0.000187628
-5.6926e-05
0.000203271
-5.30448e-05
0.000220374
-4.881e-05
0.00023885
-4.41887e-05
0.00025892
-3.91486e-05
0.000280736
-3.36395e-05
0.000304221
-2.76412e-05
0.000329803
-2.11098e-05
0.000357383
-1.39985e-05
0.00038709
-6.2703e-06
0.000419182
2.12135e-06
0.000453612
1.12342e-05
0.000490287
2.11214e-05
0.000529342
3.18368e-05
0.000570772
4.34361e-05
0.000614414
5.59677e-05
0.000660014
6.94735e-05
0.000707165
8.39692e-05
0.000755232
9.94521e-05
0.000803346
0.000115872
0.000850262
0.00013315
0.000894418
0.000151103
0.000933765
0.000169627
0.000965612
0.000188467
0.000986874
0.000207312
0.000993242
0.000225854
0.000980378
0.000243579
0.00094137
0.000259936
0.000869672
0.000274125
0.000761799
0.000571437
0.000283515
-9.5502e-05
1.86369e-05
9.58091e-05
-9.51616e-05
2.01546e-05
-9.48059e-05
2.17971e-05
-9.44109e-05
2.35749e-05
-9.39951e-05
2.54997e-05
-9.35355e-05
2.75842e-05
-9.30495e-05
2.98423e-05
-9.25144e-05
3.22893e-05
-9.19478e-05
3.49325e-05
-9.13236e-05
3.7792e-05
-9.06624e-05
4.08949e-05
-8.99353e-05
4.42554e-05
-8.91653e-05
4.78953e-05
-8.83169e-05
5.18126e-05
-8.74137e-05
5.60467e-05
-8.64234e-05
6.06698e-05
-8.53687e-05
6.568e-05
-8.42096e-05
7.10368e-05
-8.29661e-05
7.68726e-05
-8.16103e-05
8.32447e-05
-8.01467e-05
9.00647e-05
-7.85466e-05
9.74683e-05
-7.68215e-05
0.000105585
-7.49299e-05
0.000114205
-7.28804e-05
0.000123712
-7.06424e-05
0.000133955
-6.82015e-05
0.000145044
-6.55409e-05
0.000157159
-6.26289e-05
0.000170174
-5.94543e-05
0.000184454
-5.59771e-05
0.000199796
-5.21856e-05
0.000216582
-4.80453e-05
0.000234705
-4.35259e-05
0.000254392
-3.85927e-05
0.000275798
-3.31958e-05
0.000298822
-2.73143e-05
0.000323921
-2.09039e-05
0.000350972
-1.39174e-05
0.000380102
-6.31814e-06
0.00041158
1.93934e-06
0.000445351
1.09088e-05
0.000481313
2.06393e-05
0.000519607
3.11815e-05
0.000560225
4.25874e-05
0.000603003
5.49017e-05
0.000647694
6.81627e-05
0.000693901
8.23843e-05
0.000741007
9.75632e-05
0.000788168
0.000113652
0.000834171
0.000130575
0.0008775
0.000148159
0.000916141
0.000166307
0.000947439
0.000184773
0.000968363
0.000203252
0.000974667
0.000221445
0.000962104
0.000238836
0.000923777
0.000254907
0.000853459
0.000268886
0.000747517
0.00056158
0.000278329
-9.38109e-05
1.83352e-05
9.41067e-05
-9.34788e-05
1.98281e-05
-9.31297e-05
2.1444e-05
-9.27425e-05
2.31931e-05
-9.23334e-05
2.5087e-05
-9.18816e-05
2.71382e-05
-9.14024e-05
2.93605e-05
-9.08763e-05
3.17692e-05
-9.03173e-05
3.43705e-05
-8.9704e-05
3.71845e-05
-8.90516e-05
4.0239e-05
-8.83375e-05
4.35471e-05
-8.75771e-05
4.71307e-05
-8.67435e-05
5.0985e-05
-8.58516e-05
5.51504e-05
-8.48776e-05
5.97019e-05
-8.38365e-05
6.4635e-05
-8.26957e-05
6.99022e-05
-8.14696e-05
7.56432e-05
-8.01351e-05
8.1916e-05
-7.86939e-05
8.86207e-05
-7.71201e-05
9.58992e-05
-7.54239e-05
0.000103886
-7.35655e-05
0.00011235
-7.15534e-05
0.000121698
-6.93578e-05
0.000131761
-6.69652e-05
0.00014265
-6.43586e-05
0.000154553
-6.15079e-05
0.000167323
-5.84007e-05
0.000181347
-5.49993e-05
0.000196396
-5.12894e-05
0.000212873
-4.72394e-05
0.000230649
-4.28164e-05
0.000249961
-3.7987e-05
0.000270963
-3.27008e-05
0.000293534
-2.69362e-05
0.000318156
-2.0649e-05
0.000344684
-1.3792e-05
0.000373244
-6.32843e-06
0.000404114
1.78575e-06
0.000437233
1.06011e-05
0.000472493
2.01636e-05
0.000510039
3.05209e-05
0.00054986
4.17222e-05
0.000591792
5.38093e-05
0.000635593
6.68178e-05
0.000680877
8.07606e-05
0.000727044
9.56343e-05
0.000773273
0.000111394
0.000818381
0.00012797
0.00086089
0.000145193
0.000898825
0.000162975
0.000929596
0.000181081
0.000950213
0.000199209
0.000956471
0.000217065
0.000944164
0.000234141
0.000906569
0.000249939
0.000837564
0.000263696
0.000733573
0.000551947
0.00027316
-9.21402e-05
1.80402e-05
9.24381e-05
-9.18116e-05
1.9509e-05
-9.14681e-05
2.10988e-05
-9.10867e-05
2.28197e-05
-9.06852e-05
2.46832e-05
-9.02413e-05
2.67016e-05
-8.9772e-05
2.88886e-05
-8.9255e-05
3.12594e-05
-8.87075e-05
3.38193e-05
-8.81038e-05
3.65886e-05
-8.74643e-05
3.95951e-05
-8.67604e-05
4.28516e-05
-8.60146e-05
4.63792e-05
-8.51925e-05
5.01713e-05
-8.43168e-05
5.42686e-05
-8.33565e-05
5.87494e-05
-8.23332e-05
6.36059e-05
-8.12089e-05
6.87846e-05
-8.00026e-05
7.4432e-05
-7.86881e-05
8.06071e-05
-7.72696e-05
8.71985e-05
-7.57204e-05
9.43543e-05
-7.40515e-05
0.000102214
-7.22238e-05
0.000110525
-7.02461e-05
0.000119718
-6.80895e-05
0.000129606
-6.57407e-05
0.0001403
-6.31837e-05
0.000151996
-6.03885e-05
0.000164528
-5.7344e-05
0.000178303
-5.40113e-05
0.000193066
-5.03788e-05
0.00020924
-4.64126e-05
0.000226678
-4.2082e-05
0.000245623
-3.73525e-05
0.000266228
-3.21743e-05
0.000288355
-2.65256e-05
0.000312507
-2.03619e-05
0.00033852
-1.36364e-05
0.000366516
-6.31273e-06
0.000396788
1.65227e-06
0.000429265
1.03065e-05
0.000463835
1.96934e-05
0.000500647
2.98584e-05
0.00053969
4.08481e-05
0.000580798
5.27022e-05
0.000623734
6.54545e-05
0.000668123
7.91169e-05
0.000713379
9.36866e-05
0.000758705
0.000109122
0.000802946
0.000125356
0.000844664
0.000142228
0.000881916
0.000159657
0.000912149
0.000177413
0.000932423
0.0001952
0.000938606
0.000212732
0.000926564
0.000229503
0.000889627
0.00024504
0.000821909
0.000258574
0.000719775
0.000542148
0.000268021
-9.05049e-05
1.77494e-05
9.07921e-05
-9.0184e-05
1.91944e-05
-8.98471e-05
2.07584e-05
-8.94731e-05
2.24516e-05
-8.90784e-05
2.42851e-05
-8.86421e-05
2.62713e-05
-8.81798e-05
2.84237e-05
-8.76716e-05
3.07573e-05
-8.71321e-05
3.32765e-05
-8.65393e-05
3.60016e-05
-8.59091e-05
3.89609e-05
-8.52182e-05
4.21664e-05
-8.44828e-05
4.56392e-05
-8.36756e-05
4.93699e-05
-8.28121e-05
5.34002e-05
-8.18682e-05
5.78114e-05
-8.08593e-05
6.25928e-05
-7.97533e-05
6.76844e-05
-7.85646e-05
7.32398e-05
-7.72709e-05
7.93186e-05
-7.58739e-05
8.57986e-05
-7.43491e-05
9.28339e-05
-7.27067e-05
0.00010057
-7.09087e-05
0.00010873
-6.89638e-05
0.000117772
-6.68438e-05
0.000127487
-6.45363e-05
0.000137991
-6.20253e-05
0.000149485
-5.92822e-05
0.000161785
-5.62953e-05
0.000175317
-5.30281e-05
0.000189801
-4.9467e-05
0.00020568
-4.5581e-05
0.000222787
-4.13381e-05
0.000241372
-3.67048e-05
0.000261589
-3.16316e-05
0.000283279
-2.60965e-05
0.000306971
-2.00555e-05
0.000332478
-1.34621e-05
0.000359921
-6.28014e-06
0.000389603
1.53244e-06
0.000421449
1.00216e-05
0.000455341
1.92286e-05
0.000491435
2.9197e-05
0.000529714
3.99716e-05
0.000570014
5.15902e-05
0.000612103
6.40851e-05
0.000655614
7.74681e-05
0.000699977
9.17371e-05
0.000744416
0.000106854
0.000787801
0.000122753
0.000828731
0.000139283
0.000865295
0.000156366
0.000895006
0.000173782
0.000914961
0.00019124
0.000921078
0.000208456
0.000909254
0.000224934
0.000873009
0.000240216
0.000806514
0.000253528
0.000706264
0.000532527
0.000262952
-8.88945e-05
1.74647e-05
8.91793e-05
-8.85788e-05
1.88863e-05
-8.82478e-05
2.04251e-05
-8.78809e-05
2.2091e-05
-8.74934e-05
2.3895e-05
-8.70658e-05
2.58495e-05
-8.66124e-05
2.79678e-05
-8.61138e-05
3.02647e-05
-8.55841e-05
3.27438e-05
-8.50012e-05
3.54255e-05
-8.43821e-05
3.83383e-05
-8.37018e-05
4.14938e-05
-8.29794e-05
4.49123e-05
-8.21842e-05
4.85826e-05
-8.13357e-05
5.25468e-05
-8.04061e-05
5.68892e-05
-7.94143e-05
6.15963e-05
-7.83254e-05
6.66019e-05
-7.71562e-05
7.20665e-05
-7.58826e-05
7.80505e-05
-7.45079e-05
8.44206e-05
-7.30072e-05
9.13374e-05
-7.13909e-05
9.89509e-05
-6.96219e-05
0.000106964
-6.77088e-05
0.000115857
-6.56242e-05
0.000125404
-6.33559e-05
0.000135722
-6.0889e-05
0.000147018
-5.81949e-05
0.00015909
-5.52633e-05
0.000172385
-5.2057e-05
0.000186597
-4.85647e-05
0.000202187
-4.47543e-05
0.000218972
-4.05955e-05
0.000237205
-3.60548e-05
0.000257043
-3.10835e-05
0.000278306
-2.56596e-05
0.000301546
-1.97395e-05
0.000326557
-1.32773e-05
0.000353457
-6.23741e-06
0.00038256
1.4215e-06
0.000413786
9.74375e-06
0.000447015
1.87689e-05
0.000482405
2.85391e-05
0.000519938
3.90973e-05
0.000559451
5.04803e-05
0.000600715
6.2719e-05
0.000643373
7.58253e-05
0.000686869
8.97978e-05
0.000730446
0.000104601
0.000773001
0.000120174
0.000813167
0.00013637
0.000849066
0.000153117
0.000878246
0.000170201
0.000897853
0.000187337
0.000903881
0.000204245
0.000892287
0.000220438
0.000856668
0.000235471
0.00079138
0.000248567
0.000692937
0.000522844
0.000257947
-8.73184e-05
1.71839e-05
8.7593e-05
-8.70102e-05
1.85824e-05
-8.66854e-05
2.00963e-05
-8.63258e-05
2.17354e-05
-8.59448e-05
2.35105e-05
-8.55247e-05
2.54338e-05
-8.5078e-05
2.75186e-05
-8.45881e-05
2.97795e-05
-8.40663e-05
3.22193e-05
-8.34942e-05
3.48582e-05
-8.28843e-05
3.77254e-05
-8.2217e-05
4.08315e-05
-8.1505e-05
4.41968e-05
-8.07248e-05
4.78076e-05
-7.98887e-05
5.17068e-05
-7.89757e-05
5.59817e-05
-7.79986e-05
6.06159e-05
-7.69282e-05
6.55369e-05
-7.57768e-05
7.09122e-05
-7.45242e-05
7.68028e-05
-7.31711e-05
8.3065e-05
-7.16947e-05
8.9865e-05
-7.01042e-05
9.73582e-05
-6.83639e-05
0.000105226
-6.6482e-05
0.000113973
-6.44321e-05
0.000123355
-6.2202e-05
0.000133491
-5.97774e-05
0.000144593
-5.71308e-05
0.000156444
-5.42514e-05
0.000169506
-5.11044e-05
0.000183451
-4.76771e-05
0.00019876
-4.39397e-05
0.000215229
-3.98616e-05
0.00023312
-3.54103e-05
0.000252586
-3.05378e-05
0.000273432
-2.52223e-05
0.00029623
-1.9421e-05
0.000320754
-1.30884e-05
0.000347122
-6.18966e-06
0.000375659
1.31583e-06
0.000406277
9.47112e-06
0.000438855
1.83144e-05
0.000473556
2.78865e-05
0.000510359
3.82293e-05
0.000549099
4.93781e-05
0.000589554
6.13633e-05
0.000631374
7.41969e-05
0.000674017
8.78782e-05
0.000716745
0.000102375
0.000758478
0.000117628
0.000797882
0.000133498
0.000833108
0.000149916
0.000861771
0.000166676
0.000881047
0.000183497
0.000886986
0.000200103
0.00087558
0.00021602
0.000840609
0.000230809
0.000776465
0.000243693
0.000679845
0.000513299
0.000253029
-8.5766e-05
1.69095e-05
8.6042e-05
-8.54613e-05
1.82856e-05
-8.51418e-05
1.97751e-05
-8.47877e-05
2.13878e-05
-8.4414e-05
2.31346e-05
-8.40014e-05
2.50272e-05
-8.35641e-05
2.70789e-05
-8.3083e-05
2.93044e-05
-8.25721e-05
3.17054e-05
-8.20095e-05
3.43022e-05
-8.1412e-05
3.71244e-05
-8.0755e-05
4.01819e-05
-8.00574e-05
4.34947e-05
-7.92891e-05
4.70468e-05
-7.8469e-05
5.08818e-05
-7.75703e-05
5.509e-05
-7.66112e-05
5.9652e-05
-7.55579e-05
6.44896e-05
-7.44265e-05
6.97767e-05
-7.31942e-05
7.55753e-05
-7.18635e-05
8.17311e-05
-7.04111e-05
8.84164e-05
-6.88465e-05
9.57913e-05
-6.71347e-05
0.000103517
-6.52837e-05
0.00011212
-6.32677e-05
0.00012134
-6.10751e-05
0.000131297
-5.86919e-05
0.000142209
-5.60911e-05
0.000153843
-5.3263e-05
0.000166678
-5.01724e-05
0.000180363
-4.68086e-05
0.000195396
-4.31411e-05
0.000211557
-3.91411e-05
0.000229112
-3.47763e-05
0.000248216
-2.99997e-05
0.000268653
-2.479e-05
0.000291019
-1.91049e-05
0.000315067
-1.28998e-05
0.000340915
-6.1404e-06
0.000368896
1.21298e-06
0.000398919
9.20248e-06
0.000430861
1.78652e-05
0.000464888
2.72409e-05
0.000500978
3.73702e-05
0.000538965
4.82877e-05
0.000578632
6.00231e-05
0.000619637
7.25887e-05
0.000661451
8.59846e-05
0.000703353
0.000100181
0.000744287
0.000115122
0.000782951
0.000130674
0.000817526
0.000146771
0.000845666
0.000163213
0.00086459
0.000179726
0.000870429
0.000196036
0.000859222
0.00021168
0.000824846
0.00022623
0.00076184
0.00023891
0.000666973
0.000503785
0.000248188
-8.42483e-05
1.66391e-05
8.45147e-05
-8.39508e-05
1.79929e-05
-8.36374e-05
1.94584e-05
-8.32904e-05
2.10452e-05
-8.2923e-05
2.2764e-05
-8.25177e-05
2.46266e-05
-8.20872e-05
2.66459e-05
-8.16145e-05
2.88365e-05
-8.11115e-05
3.11994e-05
-8.05593e-05
3.37549e-05
-7.99712e-05
3.65329e-05
-7.93268e-05
3.95425e-05
-7.86398e-05
4.28037e-05
-7.78861e-05
4.62982e-05
-7.70786e-05
5.00702e-05
-7.61963e-05
5.42128e-05
-7.52521e-05
5.87041e-05
-7.42172e-05
6.34597e-05
-7.31039e-05
6.86603e-05
-7.18924e-05
7.43683e-05
-7.05835e-05
8.04196e-05
-6.91553e-05
8.69918e-05
-6.76166e-05
9.42503e-05
-6.59331e-05
0.000101836
-6.41129e-05
0.000110298
-6.21306e-05
0.000119359
-5.9975e-05
0.00012914
-5.76324e-05
0.000139867
-5.50768e-05
0.000151287
-5.22982e-05
0.0001639
-4.92633e-05
0.00017733
-4.59604e-05
0.000192094
-4.23612e-05
0.000207953
-3.84368e-05
0.00022518
-3.41559e-05
0.000243929
-2.94726e-05
0.000263967
-2.4366e-05
0.000285911
-1.87945e-05
0.000309494
-1.27145e-05
0.000334832
-6.09225e-06
0.000362271
1.11111e-06
0.000391712
8.93693e-06
0.00042303
1.74213e-05
0.000456398
2.66032e-05
0.000491789
3.65221e-05
0.000529037
4.72121e-05
0.000567931
5.87021e-05
0.000608134
7.1005e-05
0.000649132
8.41216e-05
0.000690218
9.80252e-05
0.00073036
0.000112661
0.000768286
0.000127901
0.000802204
0.000143684
0.000829829
0.000159815
0.000848416
0.000176026
0.000854146
0.000192045
0.0008431
0.000207422
0.000809328
0.000221735
0.000747399
0.000234218
0.000654288
0.000494357
0.000243438
-8.2756e-05
1.63743e-05
8.30199e-05
-8.24633e-05
1.77063e-05
-8.21556e-05
1.91483e-05
-8.18152e-05
2.07097e-05
-8.14547e-05
2.2401e-05
-8.10575e-05
2.42339e-05
-8.06353e-05
2.62214e-05
-8.01717e-05
2.83777e-05
-7.9678e-05
3.07032e-05
-7.91355e-05
3.32181e-05
-7.8558e-05
3.59526e-05
-7.79239e-05
3.89153e-05
-7.72496e-05
4.21257e-05
-7.65077e-05
4.55635e-05
-7.5715e-05
4.92735e-05
-7.4847e-05
5.33515e-05
-7.39198e-05
5.77729e-05
-7.29021e-05
6.24478e-05
-7.18083e-05
6.7563e-05
-7.06173e-05
7.31819e-05
-6.93307e-05
7.91301e-05
-6.79265e-05
8.55912e-05
-6.64137e-05
9.27352e-05
-6.47585e-05
0.000100183
-6.29689e-05
0.000108507
-6.10202e-05
0.000117411
-5.89012e-05
0.00012702
-5.65989e-05
0.000137564
-5.40874e-05
0.000148775
-5.13579e-05
0.00016117
-4.83767e-05
0.000174351
-4.5134e-05
0.000188851
-4.1601e-05
0.000204416
-3.77502e-05
0.000221322
-3.35511e-05
0.000239725
-2.89586e-05
0.000259372
-2.39525e-05
0.000280904
-1.8492e-05
0.000304032
-1.25344e-05
0.000328872
-6.04673e-06
0.000355779
1.00919e-06
0.000384651
8.67399e-06
0.00041536
1.6983e-05
0.000448084
2.59742e-05
0.000482793
3.56865e-05
0.00051932
4.61533e-05
0.00055746
5.74028e-05
0.000596883
6.94486e-05
0.000637086
8.2292e-05
0.000677378
9.59092e-05
0.000716751
0.000110246
0.000753959
0.000125183
0.000787241
0.000140658
0.000814351
0.000156483
0.000832584
0.000172397
0.000838199
0.000188131
0.00082733
0.000203245
0.000794116
0.000217326
0.000733264
0.000229615
0.000641844
0.000485025
0.000238767
-8.12963e-05
1.61132e-05
8.1551e-05
-8.10104e-05
1.74237e-05
-8.07085e-05
1.88425e-05
-8.03748e-05
2.03789e-05
-8.00203e-05
2.20432e-05
-7.96302e-05
2.38471e-05
-7.92144e-05
2.58033e-05
-7.87591e-05
2.7926e-05
-7.82729e-05
3.02148e-05
-7.77406e-05
3.26897e-05
-7.71721e-05
3.53815e-05
-7.65505e-05
3.82981e-05
-7.58865e-05
4.14587e-05
-7.5159e-05
4.48408e-05
-7.43787e-05
4.84899e-05
-7.35269e-05
5.25046e-05
-7.26145e-05
5.68576e-05
-7.16151e-05
6.14531e-05
-7.05394e-05
6.64846e-05
-6.93691e-05
7.20158e-05
-6.81041e-05
7.78628e-05
-6.67241e-05
8.42146e-05
-6.5237e-05
9.1246e-05
-6.36101e-05
9.85585e-05
-6.18509e-05
0.000106746
-5.99355e-05
0.000115497
-5.78528e-05
0.000124936
-5.55902e-05
0.000135301
-5.31227e-05
0.000146307
-5.0441e-05
0.000158489
-4.75134e-05
0.000171425
-4.43289e-05
0.000185668
-4.08609e-05
0.000200943
-3.70821e-05
0.000217535
-3.29627e-05
0.0002356
-2.84589e-05
0.000254866
-2.35508e-05
0.000275994
-1.81988e-05
0.000298678
-1.23609e-05
0.000323031
-6.00496e-06
0.00034942
9.06416e-07
0.000377736
8.41331e-06
0.000407848
1.65503e-05
0.000439941
2.53546e-05
0.000473981
3.48645e-05
0.000509802
4.51126e-05
0.000547201
5.61268e-05
0.000585857
6.79213e-05
0.000625276
8.0498e-05
0.000664786
9.38353e-05
0.000703394
0.000107881
0.000739886