/*--------------------------------*- C++ -*----------------------------------*\
  =========                 |
  \\      /  F ield         | OpenFOAM: The Open Source CFD Toolbox
   \\    /   O peration     | Website:  https://openfoam.org
    \\  /    A nd           | Version:  6.0
     \\/     M anipulation  |
\*---------------------------------------------------------------------------*/
FoamFile
{
    version     2.0;
    format      ascii;
    class       volScalarField;
    location    "2.47";
    object      p;
}
// * * * * * * * * * * * * * * * * * * * * * * * * * * * * * * * * * * * * * //

dimensions      [0 2 -2 0 0 0 0];

internalField   nonuniform List<scalar> 
13500
(
0.097717
0.097722
0.097275
0.09678
0.095872
0.095378
0.094552
0.095307
0.096309
0.10055
0.12225
0.16509
0.097717
0.097723
0.097275
0.09678
0.095872
0.095378
0.094551
0.095308
0.096305
0.10061
0.12157
0.16002
0.097717
0.097724
0.097275
0.096781
0.095872
0.095379
0.094549
0.095307
0.096296
0.10066
0.12069
0.15553
0.097718
0.097725
0.097276
0.096782
0.095872
0.095379
0.094546
0.095304
0.09628
0.10068
0.11972
0.15203
0.097719
0.097726
0.097277
0.096783
0.095872
0.095379
0.094542
0.095301
0.096259
0.10069
0.11868
0.14907
0.097721
0.097728
0.097278
0.096785
0.095872
0.095379
0.094538
0.095296
0.096233
0.10069
0.11761
0.14644
0.097723
0.097731
0.097279
0.096787
0.095872
0.095378
0.094534
0.095291
0.096203
0.10067
0.11652
0.14405
0.097725
0.097733
0.097281
0.096788
0.095872
0.095378
0.094528
0.095284
0.096167
0.10064
0.11545
0.14186
0.097728
0.097736
0.097284
0.096791
0.095872
0.095377
0.094522
0.095276
0.096126
0.10059
0.1144
0.13984
0.097731
0.097739
0.097286
0.096793
0.095873
0.095376
0.094516
0.095267
0.09608
0.10053
0.11338
0.13795
0.097734
0.097743
0.097289
0.096795
0.095874
0.095375
0.094509
0.095256
0.096028
0.10046
0.1124
0.13618
0.097738
0.097747
0.097292
0.096798
0.095874
0.095373
0.094501
0.095245
0.095972
0.10038
0.11147
0.1345
0.097742
0.097752
0.097296
0.096801
0.095875
0.095372
0.094493
0.095232
0.09591
0.10029
0.11057
0.13292
0.097747
0.097756
0.0973
0.096804
0.095876
0.09537
0.094484
0.095218
0.095843
0.10019
0.10971
0.13142
0.097752
0.097761
0.097304
0.096807
0.095877
0.095368
0.094474
0.095202
0.09577
0.10008
0.1089
0.12999
0.097758
0.097767
0.097309
0.096811
0.095878
0.095366
0.094465
0.095185
0.095692
0.099967
0.10812
0.12862
0.097764
0.097773
0.097314
0.096815
0.09588
0.095363
0.094454
0.095167
0.095608
0.099848
0.10737
0.1273
0.09777
0.097779
0.097319
0.096819
0.095881
0.095361
0.094443
0.095147
0.09552
0.099725
0.10665
0.12605
0.097777
0.097786
0.097325
0.096823
0.095883
0.095358
0.094431
0.095126
0.095426
0.099601
0.10596
0.12483
0.097784
0.097793
0.097331
0.096828
0.095884
0.095355
0.094419
0.095104
0.095327
0.099475
0.1053
0.12366
0.097792
0.0978
0.097337
0.096833
0.095886
0.095352
0.094406
0.09508
0.095224
0.099349
0.10465
0.12253
0.0978
0.097808
0.097344
0.096838
0.095888
0.095349
0.094393
0.095054
0.095116
0.099223
0.10402
0.12144
0.097809
0.097817
0.097351
0.096843
0.09589
0.095345
0.094379
0.095027
0.095004
0.099098
0.1034
0.12038
0.097818
0.097825
0.097359
0.096848
0.095892
0.095341
0.094365
0.094999
0.094888
0.098974
0.1028
0.11934
0.097827
0.097834
0.097367
0.096854
0.095895
0.095337
0.09435
0.094969
0.094768
0.098851
0.10221
0.11834
0.097837
0.097844
0.097375
0.09686
0.095897
0.095333
0.094335
0.094937
0.094646
0.098731
0.10163
0.11736
0.097848
0.097854
0.097384
0.096866
0.0959
0.095328
0.094319
0.094904
0.09452
0.098611
0.10106
0.1164
0.097859
0.097864
0.097393
0.096873
0.095903
0.095324
0.094303
0.094869
0.094392
0.098493
0.10049
0.11547
0.09787
0.097875
0.097403
0.09688
0.095906
0.095319
0.094286
0.094832
0.094262
0.098376
0.09993
0.11455
0.097882
0.097886
0.097413
0.096887
0.095909
0.095314
0.094268
0.094795
0.09413
0.098261
0.099376
0.11366
0.097894
0.097898
0.097423
0.096894
0.095912
0.095309
0.094251
0.094755
0.093997
0.098146
0.098827
0.11278
0.097907
0.09791
0.097434
0.096902
0.095916
0.095303
0.094232
0.094714
0.093862
0.098031
0.098284
0.11192
0.09792
0.097923
0.097445
0.09691
0.09592
0.095298
0.094213
0.094672
0.093726
0.097917
0.097746
0.11108
0.097934
0.097936
0.097457
0.096918
0.095924
0.095292
0.094194
0.094629
0.09359
0.097803
0.097213
0.11026
0.097949
0.097949
0.097469
0.096926
0.095928
0.095286
0.094174
0.094584
0.093453
0.097688
0.096685
0.10945
0.097963
0.097964
0.097481
0.096935
0.095932
0.095279
0.094154
0.094538
0.093316
0.097573
0.096162
0.10866
0.097979
0.097978
0.097494
0.096944
0.095936
0.095273
0.094133
0.094491
0.093178
0.097457
0.095645
0.10788
0.097995
0.097993
0.097508
0.096954
0.095941
0.095266
0.094111
0.094443
0.09304
0.09734
0.095133
0.10711
0.098011
0.098008
0.097522
0.096963
0.095946
0.09526
0.094089
0.094395
0.092903
0.097221
0.094627
0.10636
0.098028
0.098024
0.097536
0.096973
0.095951
0.095253
0.094067
0.094345
0.092765
0.097101
0.094127
0.10563
0.098045
0.098041
0.097551
0.096984
0.095956
0.095245
0.094044
0.094295
0.092628
0.096979
0.093633
0.10491
0.098063
0.098058
0.097566
0.096994
0.095961
0.095238
0.09402
0.094245
0.092491
0.096855
0.093146
0.1042
0.098082
0.098075
0.097582
0.097005
0.095967
0.095231
0.093996
0.094193
0.092354
0.096729
0.092665
0.1035
0.098101
0.098093
0.097598
0.097017
0.095973
0.095223
0.093972
0.094142
0.092217
0.096601
0.09219
0.10282
0.098121
0.098112
0.097614
0.097028
0.095979
0.095215
0.093947
0.09409
0.092081
0.096471
0.091723
0.10215
0.098141
0.098131
0.097631
0.09704
0.095985
0.095208
0.093921
0.094038
0.091944
0.096338
0.091262
0.1015
0.098162
0.09815
0.097649
0.097052
0.095992
0.0952
0.093895
0.093986
0.091808
0.096204
0.090808
0.10085
0.098183
0.09817
0.097667
0.097065
0.095999
0.095192
0.093868
0.093934
0.091671
0.096067
0.090361
0.10022
0.098205
0.098191
0.097686
0.097078
0.096006
0.095184
0.093841
0.093882
0.091534
0.095928
0.089921
0.099595
0.098227
0.098212
0.097705
0.097092
0.096013
0.095175
0.093814
0.09383
0.091398
0.095786
0.089488
0.098984
0.09825
0.098234
0.097724
0.097105
0.09602
0.095167
0.093786
0.093779
0.091261
0.095642
0.089062
0.098384
0.098274
0.098256
0.097744
0.097119
0.096028
0.095159
0.093757
0.093727
0.091124
0.095496
0.088644
0.097795
0.098298
0.098279
0.097765
0.097134
0.096036
0.095151
0.093728
0.093676
0.090987
0.095348
0.088232
0.097216
0.098323
0.098302
0.097786
0.097149
0.096044
0.095142
0.093699
0.093625
0.090849
0.095197
0.087827
0.096647
0.098348
0.098326
0.097807
0.097164
0.096052
0.095134
0.093669
0.093574
0.090711
0.095045
0.08743
0.096088
0.098374
0.098351
0.097829
0.09718
0.096061
0.095126
0.093638
0.093523
0.090573
0.09489
0.087039
0.095539
0.098401
0.098376
0.097852
0.097196
0.09607
0.095117
0.093608
0.093473
0.090435
0.094733
0.086654
0.094999
0.098428
0.098402
0.097875
0.097212
0.096079
0.095109
0.093576
0.093423
0.090296
0.094575
0.086277
0.094468
0.098456
0.098428
0.097899
0.097229
0.096088
0.095101
0.093545
0.093373
0.090157
0.094414
0.085906
0.093945
0.098485
0.098455
0.097923
0.097247
0.096098
0.095093
0.093512
0.093323
0.090017
0.094252
0.085541
0.093432
0.098514
0.098482
0.097948
0.097264
0.096108
0.095085
0.09348
0.093274
0.089877
0.094088
0.085183
0.092926
0.098544
0.09851
0.097973
0.097283
0.096118
0.095077
0.093447
0.093225
0.089737
0.093922
0.084831
0.092429
0.098574
0.098539
0.097999
0.097301
0.096128
0.095069
0.093413
0.093176
0.089596
0.093755
0.084485
0.091939
0.098605
0.098569
0.098026
0.09732
0.096139
0.095061
0.093379
0.093127
0.089456
0.093586
0.084146
0.091458
0.098637
0.098599
0.098053
0.09734
0.09615
0.095054
0.093345
0.093079
0.089315
0.093416
0.083812
0.090983
0.098669
0.098629
0.09808
0.09736
0.096161
0.095046
0.09331
0.09303
0.089173
0.093244
0.083484
0.090516
0.098702
0.098661
0.098108
0.09738
0.096173
0.095039
0.093275
0.092982
0.089032
0.093071
0.083161
0.090056
0.098736
0.098693
0.098137
0.097401
0.096184
0.095032
0.09324
0.092933
0.08889
0.092896
0.082844
0.089603
0.098771
0.098725
0.098166
0.097423
0.096196
0.095025
0.093204
0.092885
0.088749
0.092721
0.082533
0.089157
0.098806
0.098759
0.098196
0.097445
0.096209
0.095019
0.093168
0.092837
0.088607
0.092544
0.082227
0.088717
0.098842
0.098793
0.098227
0.097467
0.096221
0.095012
0.093131
0.092789
0.088465
0.092366
0.081926
0.088283
0.098878
0.098828
0.098258
0.09749
0.096234
0.095006
0.093094
0.09274
0.088324
0.092187
0.08163
0.087856
0.098916
0.098863
0.09829
0.097514
0.096247
0.095
0.093057
0.092692
0.088182
0.092007
0.081339
0.087435
0.098954
0.098899
0.098322
0.097538
0.09626
0.094995
0.093019
0.092644
0.088041
0.091826
0.081053
0.087019
0.098992
0.098936
0.098355
0.097562
0.096274
0.09499
0.092981
0.092595
0.0879
0.091645
0.080772
0.086609
0.099032
0.098974
0.098389
0.097587
0.096288
0.094985
0.092943
0.092547
0.087759
0.091462
0.080495
0.086205
0.099072
0.099012
0.098423
0.097613
0.096302
0.09498
0.092905
0.092498
0.087618
0.091279
0.080223
0.085806
0.099113
0.099051
0.098458
0.097639
0.096317
0.094975
0.092866
0.092449
0.087478
0.091095
0.079955
0.085413
0.099155
0.099091
0.098494
0.097666
0.096332
0.094971
0.092827
0.0924
0.087338
0.09091
0.079692
0.085025
0.099197
0.099131
0.09853
0.097694
0.096347
0.094967
0.092788
0.092351
0.087198
0.090725
0.079433
0.084641
0.09924
0.099173
0.098567
0.097722
0.096362
0.094964
0.092748
0.092301
0.087059
0.090539
0.079178
0.084263
0.099284
0.099215
0.098604
0.09775
0.096378
0.094961
0.092708
0.092251
0.08692
0.090353
0.078927
0.083889
0.099329
0.099258
0.098642
0.097779
0.096394
0.094958
0.092668
0.092201
0.086782
0.090166
0.07868
0.083521
0.099375
0.099301
0.098681
0.097809
0.096411
0.094956
0.092628
0.092151
0.086645
0.089979
0.078437
0.083156
0.099421
0.099346
0.098721
0.09784
0.096428
0.094954
0.092588
0.092101
0.086508
0.089791
0.078197
0.082796
0.099468
0.099391
0.098761
0.097871
0.096445
0.094952
0.092548
0.09205
0.086371
0.089603
0.077962
0.082441
0.099517
0.099437
0.098803
0.097902
0.096463
0.094951
0.092507
0.091999
0.086236
0.089415
0.077729
0.082089
0.099566
0.099484
0.098844
0.097935
0.09648
0.09495
0.092466
0.091948
0.0861
0.089226
0.0775
0.081742
0.099615
0.099532
0.098887
0.097968
0.096499
0.09495
0.092425
0.091896
0.085966
0.089037
0.077275
0.081398
0.099666
0.099581
0.09893
0.098002
0.096518
0.09495
0.092385
0.091845
0.085832
0.088848
0.077053
0.081059
0.099718
0.099631
0.098975
0.098036
0.096537
0.09495
0.092344
0.091792
0.085699
0.088658
0.076834
0.080723
0.09977
0.099681
0.099019
0.098071
0.096556
0.094951
0.092302
0.09174
0.085567
0.088469
0.076618
0.080391
0.099823
0.099733
0.099065
0.098107
0.096576
0.094953
0.092261
0.091687
0.085436
0.088279
0.076405
0.080062
0.099878
0.099785
0.099112
0.098144
0.096597
0.094955
0.09222
0.091634
0.085305
0.088089
0.076195
0.079737
0.099933
0.099839
0.099159
0.098181
0.096617
0.094957
0.092179
0.09158
0.085175
0.087899
0.075988
0.079416
0.099989
0.099893
0.099207
0.098219
0.096639
0.09496
0.092138
0.091526
0.085046
0.087708
0.075784
0.079097
0.10005
0.099948
0.099256
0.098258
0.096661
0.094963
0.092097
0.091472
0.084918
0.087518
0.075582
0.078782
0.1001
0.1
0.099306
0.098298
0.096683
0.094967
0.092056
0.091418
0.084791
0.087328
0.075383
0.078469
0.10016
0.10006
0.099357
0.098338
0.096706
0.094971
0.092015
0.091363
0.084664
0.087137
0.075186
0.07816
0.10022
0.10012
0.099409
0.09838
0.096729
0.094976
0.091974
0.091307
0.084539
0.086947
0.074992
0.077854
0.10029
0.10018
0.099462
0.098422
0.096753
0.094982
0.091933
0.091252
0.084414
0.086756
0.074801
0.07755
0.10035
0.10024
0.099516
0.098465
0.096777
0.094988
0.091892
0.091196
0.08429
0.086566
0.074611
0.077249
0.10041
0.1003
0.09957
0.098509
0.096802
0.094995
0.091851
0.091139
0.084167
0.086375
0.074424
0.076951
0.10048
0.10036
0.099626
0.098554
0.096828
0.095002
0.091811
0.091082
0.084045
0.086184
0.074238
0.076655
0.10054
0.10043
0.099683
0.0986
0.096854
0.09501
0.09177
0.091025
0.083924
0.085994
0.074055
0.076362
0.10061
0.10049
0.099741
0.098646
0.096881
0.095019
0.09173
0.090968
0.083804
0.085803
0.073874
0.07607
0.10068
0.10056
0.0998
0.098694
0.096908
0.095028
0.09169
0.09091
0.083684
0.085613
0.073695
0.075782
0.10075
0.10063
0.09986
0.098743
0.096936
0.095038
0.09165
0.090852
0.083566
0.085422
0.073517
0.075495
0.10082
0.1007
0.099921
0.098792
0.096965
0.095048
0.091611
0.090793
0.083448
0.085232
0.073341
0.07521
0.10089
0.10077
0.099983
0.098843
0.096995
0.09506
0.091572
0.090734
0.083332
0.085041
0.073167
0.074927
0.10096
0.10084
0.10005
0.098895
0.097025
0.095072
0.091533
0.090675
0.083216
0.084851
0.072994
0.074646
0.10104
0.10091
0.10011
0.098948
0.097056
0.095085
0.091494
0.090615
0.083101
0.084661
0.072823
0.074367
0.10111
0.10099
0.10018
0.099002
0.097088
0.095098
0.091456
0.090555
0.082987
0.08447
0.072654
0.07409
0.10119
0.10106
0.10025
0.099057
0.097121
0.095113
0.091418
0.090495
0.082874
0.08428
0.072485
0.073814
0.10127
0.10114
0.10031
0.099114
0.097154
0.095128
0.091381
0.090434
0.082762
0.08409
0.072318
0.07354
0.10135
0.10122
0.10038
0.099172
0.097189
0.095144
0.091344
0.090373
0.08265
0.0839
0.072153
0.073267
0.10143
0.1013
0.10046
0.099231
0.097224
0.095161
0.091308
0.090312
0.08254
0.08371
0.071988
0.072996
0.10151
0.10138
0.10053
0.099292
0.097261
0.095179
0.091272
0.090251
0.08243
0.083519
0.071824
0.072725
0.1016
0.10146
0.1006
0.099354
0.097298
0.095198
0.091237
0.090189
0.082321
0.083329
0.071662
0.072456
0.10168
0.10155
0.10068
0.099417
0.097337
0.095218
0.091202
0.090127
0.082214
0.083139
0.0715
0.072188
0.10177
0.10163
0.10076
0.099482
0.097377
0.095239
0.091168
0.090065
0.082107
0.082949
0.071339
0.071921
0.10186
0.10172
0.10084
0.099549
0.097417
0.095261
0.091135
0.090003
0.082
0.082759
0.071179
0.071655
0.10196
0.10181
0.10092
0.099617
0.097459
0.095284
0.091103
0.08994
0.081895
0.082569
0.07102
0.07139
0.10205
0.10191
0.101
0.099687
0.097503
0.095309
0.091071
0.089877
0.081791
0.082379
0.070861
0.071125
0.10215
0.102
0.10109
0.099758
0.097547
0.095334
0.09104
0.089815
0.081687
0.08219
0.070703
0.070861
0.10224
0.1021
0.10118
0.099832
0.097593
0.095361
0.091011
0.089752
0.081584
0.082
0.070545
0.070598
0.10234
0.1022
0.10127
0.099907
0.097641
0.095389
0.090982
0.089689
0.081482
0.08181
0.070388
0.070335
0.10245
0.1023
0.10136
0.099985
0.09769
0.095418
0.090954
0.089626
0.081381
0.08162
0.070231
0.070072
0.10255
0.1024
0.10145
0.10006
0.09774
0.095449
0.090927
0.089563
0.081281
0.08143
0.070074
0.06981
0.10266
0.10251
0.10155
0.10015
0.097793
0.095481
0.090902
0.0895
0.081181
0.08124
0.069918
0.069547
0.10277
0.10262
0.10165
0.10023
0.097847
0.095515
0.090877
0.089437
0.081082
0.08105
0.069762
0.069285
0.10288
0.10273
0.10175
0.10032
0.097902
0.09555
0.090854
0.089374
0.080985
0.080859
0.069606
0.069023
0.103
0.10284
0.10185
0.10041
0.09796
0.095587
0.090833
0.089312
0.080888
0.080669
0.06945
0.068761
0.10312
0.10296
0.10196
0.1005
0.09802
0.095625
0.090813
0.089249
0.080792
0.080479
0.069293
0.068498
0.10324
0.10308
0.10207
0.10059
0.098082
0.095666
0.090794
0.089187
0.080696
0.080289
0.069137
0.068235
0.10336
0.1032
0.10218
0.10069
0.098146
0.095708
0.090777
0.089126
0.080602
0.080099
0.06898
0.067972
0.10349
0.10333
0.10229
0.10079
0.098212
0.095752
0.090762
0.089064
0.080508
0.079908
0.068824
0.067708
0.10362
0.10346
0.10241
0.10089
0.098281
0.095799
0.090748
0.089003
0.080416
0.079718
0.068666
0.067443
0.10375
0.10359
0.10253
0.10099
0.098353
0.095847
0.090736
0.088943
0.080324
0.079527
0.068509
0.067178
0.10389
0.10373
0.10266
0.1011
0.098427
0.095898
0.090727
0.088883
0.080233
0.079337
0.068351
0.066912
0.10403
0.10387
0.10278
0.10122
0.098504
0.095951
0.090719
0.088824
0.080143
0.079146
0.068192
0.066645
0.10417
0.10401
0.10292
0.10133
0.098584
0.096006
0.090714
0.088765
0.080054
0.078955
0.068033
0.066377
0.10432
0.10416
0.10305
0.10145
0.098667
0.096064
0.090711
0.088708
0.079966
0.078764
0.067873
0.066108
0.10447
0.10431
0.10319
0.10158
0.098753
0.096125
0.09071
0.088651
0.079879
0.078573
0.067712
0.065837
0.10463
0.10447
0.10334
0.1017
0.098843
0.096188
0.090712
0.088595
0.079793
0.078382
0.06755
0.065565
0.10479
0.10463
0.10348
0.10184
0.098936
0.096255
0.090716
0.08854
0.079708
0.078191
0.067388
0.065291
0.10495
0.10479
0.10364
0.10197
0.099033
0.096324
0.090723
0.088487
0.079625
0.078
0.067224
0.065016
0.10512
0.10496
0.1038
0.10211
0.099134
0.096397
0.090734
0.088435
0.079542
0.077808
0.06706
0.064739
0.1053
0.10514
0.10396
0.10226
0.099239
0.096473
0.090747
0.088384
0.07946
0.077617
0.066894
0.064461
0.10548
0.10532
0.10413
0.10241
0.099348
0.096553
0.090763
0.088334
0.07938
0.077425
0.066727
0.06418
0.10567
0.1055
0.1043
0.10256
0.099462
0.096636
0.090783
0.088286
0.079301
0.077234
0.066559
0.063897
0.10586
0.1057
0.10448
0.10273
0.099581
0.096724
0.090806
0.08824
0.079223
0.077042
0.066389
0.063612
0.10605
0.10589
0.10466
0.10289
0.099705
0.096815
0.090833
0.088195
0.079147
0.07685
0.066218
0.063324
0.10626
0.1061
0.10485
0.10306
0.099833
0.09691
0.090864
0.088153
0.079072
0.076658
0.066045
0.063034
0.10647
0.10631
0.10505
0.10324
0.099968
0.09701
0.090898
0.088112
0.078998
0.076466
0.06587
0.062741
0.10668
0.10652
0.10525
0.10343
0.10011
0.097115
0.090937
0.088074
0.078926
0.076274
0.065694
0.062445
0.1069
0.10675
0.10546
0.10362
0.10025
0.097224
0.09098
0.088038
0.078855
0.076081
0.065516
0.062146
0.10713
0.10698
0.10568
0.10382
0.1004
0.097339
0.091028
0.088004
0.078786
0.075889
0.065336
0.061844
0.10737
0.10722
0.1059
0.10402
0.10056
0.097458
0.09108
0.087973
0.078718
0.075696
0.065154
0.061539
0.10761
0.10746
0.10613
0.10424
0.10073
0.097583
0.091137
0.087945
0.078652
0.075503
0.06497
0.06123
0.10786
0.10772
0.10637
0.10446
0.1009
0.097714
0.091199
0.087919
0.078588
0.075311
0.064783
0.060917
0.10812
0.10798
0.10662
0.10468
0.10108
0.097851
0.091266
0.087897
0.078526
0.075117
0.064594
0.060601
0.10839
0.10825
0.10687
0.10492
0.10126
0.097993
0.091339
0.087877
0.078465
0.074924
0.064403
0.06028
0.10866
0.10853
0.10714
0.10517
0.10146
0.098142
0.091417
0.087861
0.078406
0.07473
0.064209
0.059955
0.10895
0.10882
0.10741
0.10542
0.10166
0.098298
0.091501
0.087848
0.078349
0.074536
0.064012
0.059626
0.10924
0.10911
0.10769
0.10568
0.10187
0.09846
0.091592
0.087838
0.078294
0.074342
0.063812
0.059292
0.10954
0.10942
0.10799
0.10595
0.10209
0.098629
0.091688
0.087833
0.07824
0.074147
0.063609
0.058953
0.10985
0.10974
0.10829
0.10624
0.10232
0.098806
0.09179
0.08783
0.078189
0.073952
0.063403
0.058608
0.11018
0.11007
0.1086
0.10653
0.10256
0.09899
0.0919
0.087832
0.078139
0.073756
0.063193
0.058259
0.11051
0.11041
0.10892
0.10683
0.1028
0.099182
0.092015
0.087837
0.078092
0.07356
0.06298
0.057903
0.11085
0.11075
0.10926
0.10714
0.10306
0.099382
0.092138
0.087847
0.078046
0.073363
0.062762
0.057542
0.1112
0.11112
0.1096
0.10747
0.10333
0.09959
0.092268
0.087861
0.078002
0.073165
0.062541
0.057174
0.11157
0.11149
0.10996
0.1078
0.10361
0.099807
0.092405
0.087879
0.07796
0.072966
0.062315
0.056799
0.11194
0.11187
0.11033
0.10815
0.10389
0.10003
0.09255
0.087901
0.07792
0.072766
0.062085
0.056417
0.11233
0.11227
0.11071
0.10851
0.10419
0.10027
0.092702
0.087927
0.077881
0.072565
0.06185
0.056028
0.11273
0.11268
0.11111
0.10888
0.1045
0.10051
0.092862
0.087958
0.077845
0.072362
0.061609
0.055631
0.11314
0.1131
0.11151
0.10926
0.10483
0.10076
0.09303
0.087993
0.077809
0.072157
0.061363
0.055226
0.11357
0.11353
0.11193
0.10966
0.10516
0.10103
0.093205
0.088033
0.077775
0.071951
0.061111
0.054813
0.11401
0.11398
0.11237
0.11007
0.10551
0.1013
0.093389
0.088077
0.077742
0.071742
0.060853
0.05439
0.11446
0.11445
0.11282
0.11049
0.10587
0.10158
0.093581
0.088125
0.07771
0.071531
0.060588
0.053958
0.11492
0.11492
0.11328
0.11093
0.10625
0.10187
0.093782
0.088178
0.07768
0.071317
0.060316
0.053515
0.1154
0.11542
0.11376
0.11138
0.10663
0.10218
0.09399
0.088234
0.077649
0.071099
0.060036
0.053062
0.11589
0.11592
0.11425
0.11185
0.10703
0.10249
0.094208
0.088295
0.077619
0.070879
0.059749
0.052598
0.1164
0.11645
0.11477
0.11233
0.10745
0.10282
0.094434
0.088361
0.07759
0.070654
0.059452
0.052122
0.11693
0.11699
0.11529
0.11283
0.10788
0.10315
0.094668
0.08843
0.07756
0.070425
0.059147
0.051633
0.11747
0.11754
0.11584
0.11334
0.10833
0.1035
0.094912
0.088502
0.077529
0.070191
0.058831
0.051132
0.11802
0.11812
0.1164
0.11387
0.10879
0.10386
0.095164
0.088579
0.077498
0.069952
0.058505
0.050616
0.1186
0.11871
0.11698
0.11442
0.10926
0.10423
0.095425
0.088659
0.077465
0.069706
0.058168
0.050086
0.11919
0.11932
0.11758
0.11499
0.10976
0.10462
0.095695
0.088742
0.077431
0.069455
0.057819
0.04954
0.11979
0.11995
0.1182
0.11557
0.11027
0.10501
0.095974
0.088829
0.077395
0.069196
0.057457
0.048978
0.12042
0.12059
0.11884
0.11617
0.1108
0.10542
0.096263
0.088918
0.077356
0.068929
0.057082
0.048399
0.12107
0.12126
0.1195
0.1168
0.11135
0.10584
0.09656
0.089011
0.077315
0.068654
0.056693
0.047802
0.12174
0.12195
0.12018
0.11744
0.11191
0.10628
0.096867
0.089106
0.077269
0.06837
0.056288
0.047186
0.12243
0.12267
0.12089
0.11811
0.1125
0.10673
0.097184
0.089203
0.07722
0.068076
0.055867
0.04655
0.12314
0.1234
0.12162
0.1188
0.11311
0.1072
0.09751
0.089302
0.077167
0.067771
0.05543
0.045892
0.12387
0.12417
0.12238
0.11951
0.11374
0.10768
0.097847
0.089404
0.077108
0.067454
0.054974
0.045213
0.12463
0.12496
0.12316
0.12026
0.11439
0.10818
0.098194
0.089507
0.077044
0.067126
0.054498
0.04451
0.12542
0.12577
0.12398
0.12102
0.11507
0.1087
0.098552
0.089613
0.076974
0.066784
0.054003
0.043782
0.12624
0.12662
0.12483
0.12182
0.11577
0.10923
0.098921
0.08972
0.076897
0.066428
0.053486
0.043028
0.12708
0.1275
0.12571
0.12265
0.1165
0.10979
0.099301
0.089828
0.076812
0.066057
0.052947
0.042247
0.12796
0.12842
0.12662
0.12351
0.11727
0.11036
0.099694
0.089938
0.07672
0.06567
0.052383
0.041437
0.12888
0.12937
0.12758
0.12441
0.11806
0.11096
0.1001
0.09005
0.07662
0.065266
0.051794
0.040597
0.12983
0.13036
0.12857
0.12535
0.11889
0.11158
0.10052
0.090163
0.07651
0.064844
0.051179
0.039724
0.13082
0.13139
0.12961
0.12633
0.11975
0.11223
0.10095
0.090278
0.07639
0.064403
0.050536
0.038818
0.13185
0.13247
0.1307
0.12735
0.12065
0.1129
0.1014
0.090394
0.076259
0.063941
0.049862
0.037876
0.13293
0.1336
0.13184
0.12842
0.1216
0.11361
0.10187
0.090512
0.076117
0.063457
0.049158
0.036897
0.13406
0.13479
0.13304
0.12955
0.12259
0.11435
0.10235
0.09063
0.075962
0.062949
0.048419
0.035879
0.13525
0.13603
0.1343
0.13073
0.12363
0.11512
0.10285
0.090749
0.075793
0.062415
0.047646
0.034818
0.13649
0.13734
0.13562
0.13198
0.12472
0.11592
0.10336
0.090868
0.075607
0.061854
0.046834
0.033714
0.13779
0.13871
0.13702
0.13329
0.12587
0.11677
0.1039
0.090986
0.075404
0.061262
0.045981
0.032562
0.13915
0.14015
0.13849
0.13467
0.12707
0.11765
0.10445
0.091102
0.075181
0.060638
0.045085
0.031361
0.14059
0.14167
0.14004
0.13613
0.12834
0.11858
0.10503
0.091215
0.074935
0.059976
0.044141
0.030107
0.14209
0.14327
0.14167
0.13767
0.12967
0.11955
0.10562
0.091322
0.074662
0.059274
0.043145
0.028796
0.14368
0.14496
0.1434
0.1393
0.13108
0.12057
0.10623
0.091421
0.074359
0.058527
0.042093
0.027424
0.14534
0.14675
0.14522
0.14101
0.13256
0.12163
0.10685
0.091507
0.074019
0.057729
0.04098
0.025987
0.14709
0.14863
0.14715
0.14283
0.13411
0.12275
0.10748
0.091577
0.073638
0.056874
0.039798
0.024479
0.14893
0.15061
0.14919
0.14475
0.13574
0.1239
0.10813
0.091625
0.073208
0.055954
0.038542
0.022894
0.15086
0.1527
0.15134
0.14678
0.13746
0.12511
0.10878
0.091645
0.072721
0.054961
0.037202
0.021225
0.15288
0.15491
0.15362
0.14892
0.13926
0.12636
0.10943
0.091629
0.072169
0.053885
0.035771
0.019464
0.155
0.15723
0.15602
0.15118
0.14115
0.12765
0.11008
0.091569
0.07154
0.052717
0.034238
0.017603
0.15721
0.15969
0.15856
0.15357
0.14312
0.12899
0.11071
0.091453
0.070823
0.051445
0.032591
0.015632
0.15954
0.16227
0.16124
0.15608
0.14518
0.13035
0.11132
0.09127
0.070005
0.050056
0.03082
0.01354
0.16196
0.16499
0.16408
0.15874
0.14733
0.13175
0.11189
0.091005
0.069072
0.048537
0.028912
0.011316
0.1645
0.16786
0.16708
0.16154
0.14958
0.13316
0.11242
0.090645
0.068007
0.046872
0.026854
0.0089482
0.16715
0.17089
0.17026
0.16449
0.15191
0.13459
0.11288
0.090169
0.066792
0.045046
0.02463
0.0064234
0.16992
0.17409
0.17364
0.16761
0.15434
0.13602
0.11326
0.089557
0.065408
0.043041
0.022227
0.0037293
0.17283
0.17749
0.17723
0.17091
0.15686
0.13744
0.11354
0.088784
0.06383
0.040838
0.019629
0.00085309
0.17587
0.18109
0.18107
0.17441
0.15947
0.13882
0.11369
0.087819
0.062032
0.038415
0.016818
-0.0022179
0.17906
0.18493
0.18518
0.17811
0.16217
0.14015
0.11368
0.086626
0.05998
0.035746
0.013775
-0.0054964
0.1824
0.18903
0.1896
0.18204
0.16495
0.14139
0.11346
0.085161
0.057637
0.032799
0.010478
-0.0089959
0.18591
0.19343
0.19436
0.18622
0.16778
0.14251
0.11297
0.083367
0.054953
0.029537
0.0069006
-0.012731
0.18958
0.19815
0.1995
0.19064
0.17065
0.14344
0.11216
0.081178
0.05187
0.025916
0.0030108
-0.016718
0.19342
0.20323
0.20505
0.19532
0.17351
0.14411
0.11093
0.078512
0.048322
0.021881
-0.0012282
-0.020976
0.1974
0.20869
0.21103
0.20023
0.17628
0.14441
0.10917
0.075275
0.04423
0.017373
-0.005858
-0.025525
0.20149
0.21454
0.21746
0.20532
0.17886
0.14422
0.10677
0.071357
0.039509
0.01233
-0.010922
-0.030387
0.20564
0.22078
0.2243
0.21051
0.18109
0.14337
0.10356
0.066639
0.034072
0.0066895
-0.016457
-0.035578
0.20975
0.22738
0.2315
0.21565
0.18278
0.14165
0.099371
0.060995
0.027837
0.00040361
-0.02249
-0.041102
0.21371
0.23427
0.23892
0.22049
0.18364
0.1388
0.094011
0.054302
0.020736
-0.0065548
-0.029021
-0.046942
0.2174
0.24129
0.24628
0.22469
0.18329
0.13452
0.087271
0.046443
0.012727
-0.01418
-0.036014
-0.053051
0.22065
0.24819
0.25314
0.22767
0.18122
0.12843
0.078936
0.037328
0.0037981
-0.022428
-0.043393
-0.059342
0.22334
0.25451
0.25871
0.22859
0.17676
0.12013
0.06881
0.026902
-0.0060149
-0.031213
-0.051041
-0.065696
0.22536
0.25948
0.26166
0.22616
0.16904
0.10915
0.056742
0.015182
-0.01662
-0.040406
-0.058811
-0.071969
0.22675
0.26181
0.25991
0.21854
0.15691
0.095039
0.042671
0.0022851
-0.027844
-0.049833
-0.066536
-0.078018
0.22774
0.25951
0.2503
0.20314
0.13899
0.07734
0.026659
-0.011539
-0.039417
-0.05927
-0.07404
-0.083717
0.22897
0.2499
0.22862
0.17668
0.11367
0.055636
0.0088676
-0.025942
-0.050995
-0.068453
-0.081149
-0.088974
0.23145
0.23009
0.19042
0.1358
0.079342
0.02953
-0.010555
-0.040599
-0.062248
-0.077137
-0.087724
-0.093746
0.2359
0.19695
0.13253
0.078387
0.034964
-0.0013227
-0.031604
-0.055367
-0.073002
-0.085191
-0.093708
-0.098064
0.24308
0.14458
0.05103
0.0029347
-0.020492
-0.037763
-0.054875
-0.070642
-0.083537
-0.092837
-0.099318
-0.10219
0.26392
0.075439
-0.052613
-0.088413
-0.086413
-0.080668
-0.081729
-0.087751
-0.095011
-0.10106
-0.10539
-0.10688
0.31027
0.008311
-0.1601
-0.18109
-0.1531
-0.12501
-0.11022
-0.10626
-0.10757
-0.11013
-0.11224
-0.11232
0.10311
0.063784
0.053702
0.047707
0.043585
0.040492
0.038027
0.035858
0.034017
0.032018
0.030505
0.027687
0.12248
0.079066
0.066537
0.058557
0.05313
0.049109
0.045937
0.043171
0.040854
0.038342
0.036513
0.033198
0.10976
0.07389
0.06255
0.054694
0.049333
0.04538
0.042286
0.039602
0.037388
0.034974
0.033302
0.030087
0.10467
0.073518
0.062503
0.054554
0.049055
0.044988
0.041809
0.039058
0.03681
0.034348
0.032693
0.029339
0.10401
0.075656
0.06448
0.056311
0.050568
0.046294
0.042949
0.040054
0.037701
0.035119
0.033404
0.029865
0.10334
0.077444
0.066193
0.057889
0.051946
0.047493
0.044001
0.040977
0.038526
0.035839
0.034063
0.030388
0.1022
0.078703
0.067524
0.059166
0.053074
0.048473
0.044855
0.041721
0.039186
0.036415
0.034583
0.030825
0.101
0.079737
0.06872
0.060358
0.05415
0.049418
0.045684
0.042448
0.039833
0.036992
0.035106
0.03131
0.099881
0.080631
0.069846
0.061525
0.055231
0.050382
0.046538
0.043206
0.040513
0.037614
0.035676
0.031887
0.098813
0.081378
0.070888
0.062653
0.056306
0.051357
0.047413
0.043993
0.041226
0.038282
0.036296
0.032559
0.09778
0.081976
0.071833
0.063726
0.057362
0.052337
0.048305
0.044806
0.041971
0.038993
0.036967
0.033323
0.096779
0.082436
0.07268
0.064736
0.058391
0.053313
0.049209
0.045643
0.042746
0.039749
0.037689
0.034177
0.095812
0.082776
0.073427
0.065676
0.059382
0.054277
0.050118
0.046497
0.043549
0.040545
0.038459
0.035109
0.09488
0.08301
0.074077
0.066541
0.060326
0.055218
0.051023
0.047362
0.044372
0.041374
0.039271
0.036107
0.093983
0.083153
0.074635
0.067329
0.061216
0.056128
0.051914
0.048229
0.045207
0.042227
0.040113
0.037152
0.093124
0.083218
0.075106
0.068038
0.062047
0.057
0.052784
0.049088
0.046046
0.043094
0.040975
0.038226
0.092301
0.083217
0.075497
0.068671
0.062816
0.057826
0.053624
0.049932
0.046879
0.043964
0.041846
0.039307
0.091514
0.083163
0.075816
0.069231
0.063522
0.058604
0.05443
0.050754
0.047699
0.044829
0.042714
0.04038
0.090763
0.083064
0.076071
0.069723
0.064166
0.05933
0.055196
0.051546
0.048499
0.045678
0.043569
0.041427
0.090046
0.082929
0.076267
0.070152
0.064749
0.060005
0.05592
0.052306
0.049272
0.046504
0.044403
0.042434
0.089362
0.082764
0.076413
0.070522
0.065275
0.060629
0.0566
0.053029
0.050014
0.047301
0.045208
0.043391
0.088709
0.082574
0.076515
0.070839
0.065747
0.061203
0.057236
0.053714
0.050723
0.048065
0.045979
0.044292
0.088085
0.082366
0.076577
0.071108
0.066168
0.061729
0.057828
0.054359
0.051396
0.04879
0.046713
0.04513
0.087488
0.082142
0.076605
0.071333
0.066543
0.062209
0.058377
0.054964
0.052031
0.049476
0.047407
0.045904
0.086916
0.081906
0.076603
0.07152
0.066874
0.062645
0.058885
0.055529
0.05263
0.050121
0.04806
0.046614
0.086368
0.081661
0.076576
0.071671
0.067165
0.063041
0.059353
0.056056
0.053191
0.050725
0.048672
0.047261
0.085842
0.081408
0.076527
0.07179
0.06742
0.063398
0.059783
0.056545
0.053715
0.051288
0.049243
0.047848
0.085336
0.081151
0.076458
0.071881
0.067641
0.06372
0.060178
0.056999
0.054204
0.051812
0.049774
0.048379
0.084849
0.080889
0.076373
0.071948
0.067832
0.06401
0.06054
0.057417
0.05466
0.052297
0.050268
0.048858
0.084379
0.080625
0.076273
0.071991
0.067995
0.064268
0.06087
0.057803
0.055082
0.052746
0.050724
0.04929
0.083926
0.080359
0.076162
0.072015
0.068134
0.064499
0.06117
0.058158
0.055474
0.05316
0.051147
0.049679
0.083489
0.080093
0.076039
0.072021
0.068249
0.064703
0.061443
0.058484
0.055836
0.053542