/*--------------------------------*- C++ -*----------------------------------*\
  =========                 |
  \\      /  F ield         | OpenFOAM: The Open Source CFD Toolbox
   \\    /   O peration     | Website:  https://openfoam.org
    \\  /    A nd           | Version:  6.0
     \\/     M anipulation  |
\*---------------------------------------------------------------------------*/
FoamFile
{
    version     2.0;
    format      ascii;
    class       surfaceScalarField;
    location    "2.47";
    object      phi;
}
// * * * * * * * * * * * * * * * * * * * * * * * * * * * * * * * * * * * * * //

dimensions      [0 3 -1 0 0 0 0];

internalField   nonuniform List<scalar> 
26699
(
2.0051e-05
0.005201
4.9408e-10
4.0126e-05
0.0051116
5.9639e-05
0.0049351
7.8186e-05
0.0046741
9.5416e-05
0.0043332
0.00011102
0.0039182
0.00012472
0.0034362
0.00013626
0.0028953
0.00014546
0.002305
0.00015181
0.0016755
0.00015717
0.0010154
0.00046496
3.442e-05
2.0051e-05
0.0051809
1.5085e-09
4.0127e-05
0.0050916
5.9641e-05
0.0049155
7.8189e-05
0.0046556
9.5419e-05
0.004316
0.00011102
0.0039026
0.00012471
0.0034225
0.00013624
0.0028838
0.00014545
0.0022958
0.00015106
0.0016699
0.0001589
0.0010076
0.0005588
6.5056e-05
2.0051e-05
0.0051609
2.595e-09
4.0128e-05
0.0050715
5.9644e-05
0.004896
7.8192e-05
0.004637
9.5422e-05
0.0042988
0.00011102
0.003887
0.00012471
0.0034088
0.00013622
0.0028723
0.00014546
0.0022865
0.0001503
0.001665
0.00016017
0.0009977
0.00062872
9.0247e-05
2.0052e-05
0.0051408
3.6926e-09
4.013e-05
0.0050514
5.9646e-05
0.0048765
7.8195e-05
0.0046185
9.5425e-05
0.0042815
0.00011102
0.0038714
0.0001247
0.0033951
0.0001362
0.0028608
0.0001455
0.0022772
0.00014956
0.001661
0.00016089
0.00098637
0.00067912
0.00011049
2.0052e-05
0.0051208
4.7916e-09
4.0131e-05
0.0050313
5.9648e-05
0.004857
7.8198e-05
0.0045999
9.5428e-05
0.0042643
0.00011103
0.0038558
0.0001247
0.0033814
0.00013617
0.0028493
0.00014557
0.0022678
0.00014886
0.0016577
0.00016109
0.00097414
0.00071366
0.00012656
2.0052e-05
0.0051007
5.892e-09
4.0132e-05
0.0050112
5.9651e-05
0.0048375
7.8201e-05
0.0045814
9.5431e-05
0.0042471
0.00011103
0.0038402
0.0001247
0.0033678
0.00013614
0.0028379
0.00014566
0.0022583
0.00014824
0.0016551
0.00016085
0.00096153
0.00073538
0.00013913
2.0052e-05
0.0050807
6.9939e-09
4.0134e-05
0.0049912
5.9653e-05
0.004818
7.8204e-05
0.0045628
9.5435e-05
0.0042298
0.00011103
0.0038246
0.0001247
0.0033541
0.0001361
0.0028265
0.00014577
0.0022486
0.0001477
0.0016532
0.00016023
0.000949
0.00074683
0.00014878
2.0052e-05
0.0050606
8.0972e-09
4.0135e-05
0.0049711
5.9655e-05
0.0047984
7.8208e-05
0.0045443
9.5438e-05
0.0042126
0.00011103
0.003809
0.0001247
0.0033404
0.00013607
0.0028151
0.00014589
0.0022388
0.00014726
0.0016518
0.00015935
0.00093691
0.00075021
0.00015598
2.0052e-05
0.0050405
9.202e-09
4.0136e-05
0.004951
5.9658e-05
0.0047789
7.8211e-05
0.0045257
9.5441e-05
0.0041954
0.00011103
0.0037934
0.0001247
0.0033268
0.00013602
0.0028038
0.00014602
0.0022288
0.00014693
0.0016509
0.00015829
0.00092554
0.00074731
0.00016119
2.0052e-05
0.0050205
1.0308e-08
4.0138e-05
0.0049309
5.966e-05
0.0047594
7.8214e-05
0.0045072
9.5444e-05
0.0041782
0.00011103
0.0037778
0.0001247
0.0033131
0.00013598
0.0027925
0.00014616
0.0022186
0.0001467
0.0016504
0.00015713
0.00091512
0.00073966
0.00016477
2.0052e-05
0.0050004
1.1416e-08
4.0139e-05
0.0049108
5.9663e-05
0.0047399
7.8217e-05
0.0044886
9.5448e-05
0.0041609
0.00011104
0.0037623
0.00012471
0.0032994
0.00013593
0.0027813
0.0001463
0.0022082
0.00014659
0.0016501
0.00015592
0.00090579
0.00072851
0.00016707
2.0053e-05
0.0049803
1.2526e-08
4.014e-05
0.0048907
5.9665e-05
0.0047203
7.822e-05
0.00447
9.5451e-05
0.0041437
0.00011104
0.0037467
0.00012471
0.0032857
0.00013587
0.0027701
0.00014643
0.0021977
0.00014657
0.0016499
0.00015473
0.00089763
0.00071489
0.00016835
2.0053e-05
0.0049603
1.3637e-08
4.0142e-05
0.0048707
5.9667e-05
0.0047008
7.8223e-05
0.0044515
9.5455e-05
0.0041265
0.00011104
0.0037311
0.00012472
0.0032721
0.00013582
0.0027591
0.00014655
0.002187
0.00014665
0.0016498
0.0001536
0.00089068
0.00069963
0.00016886
2.0053e-05
0.0049402
1.4751e-08
4.0143e-05
0.0048506
5.967e-05
0.0046813
7.8226e-05
0.0044329
9.5458e-05
0.0041092
0.00011104
0.0037155
0.00012473
0.0032584
0.00013576
0.002748
0.00014667
0.002176
0.00014682
0.0016497
0.00015255
0.00088495
0.00068339
0.00016878
2.0053e-05
0.0049201
1.5865e-08
4.0144e-05
0.0048305
5.9672e-05
0.0046618
7.8229e-05
0.0044144
9.5462e-05
0.004092
0.00011104
0.0036999
0.00012474
0.0032447
0.00013569
0.0027371
0.00014677
0.002165
0.00014706
0.0016494
0.00015162
0.00088038
0.00066673
0.00016829
2.0053e-05
0.0049001
1.6982e-08
4.0146e-05
0.0048104
5.9675e-05
0.0046422
7.8233e-05
0.0043958
9.5466e-05
0.0040748
0.00011104
0.0036843
0.00012475
0.003231
0.00013563
0.0027262
0.00014686
0.0021537
0.00014736
0.0016489
0.00015082
0.00087692
0.00065004
0.00016751
2.0053e-05
0.00488
1.8101e-08
4.0147e-05
0.0047903
5.9677e-05
0.0046227
7.8236e-05
0.0043773
9.5469e-05
0.0040575
0.00011105
0.0036688
0.00012476
0.0032173
0.00013557
0.0027154
0.00014693
0.0021424
0.00014772
0.0016481
0.00015015
0.00087449
0.00063365
0.00016654
2.0053e-05
0.0048599
1.9222e-08
4.0148e-05
0.0047702
5.9679e-05
0.0046032
7.8239e-05
0.0043587
9.5473e-05
0.0040403
0.00011105
0.0036532
0.00012478
0.0032035
0.0001355
0.0027047
0.00014699
0.0021309
0.00014811
0.001647
0.00014962
0.00087298
0.00061779
0.00016548
2.0053e-05
0.0048399
2.0344e-08
4.0149e-05
0.0047501
5.9682e-05
0.0045836
7.8242e-05
0.0043401
9.5477e-05
0.0040231
0.00011105
0.0036376
0.0001248
0.0031898
0.00013544
0.002694
0.00014702
0.0021193
0.00014854
0.0016455
0.00014923
0.0008723
0.00060262
0.00016439
2.0054e-05
0.0048198
2.1469e-08
4.0151e-05
0.00473
5.9684e-05
0.0045641
7.8245e-05
0.0043216
9.5481e-05
0.0040058
0.00011105
0.003622
0.00012481
0.003176
0.00013537
0.0026835
0.00014704
0.0021076
0.00014899
0.0016435
0.00014897
0.00087232
0.00058827
0.00016332
2.0054e-05
0.0047997
2.2596e-08
4.0152e-05
0.0047099
5.9687e-05
0.0045446
7.8249e-05
0.004303
9.5485e-05
0.0039886
0.00011105
0.0036065
0.00012483
0.0031622
0.00013531
0.002673
0.00014703
0.0020959
0.00014944
0.0016411
0.00014882
0.00087294
0.0005748
0.0001623
2.0054e-05
0.0047796
2.3725e-08
4.0153e-05
0.0046898
5.9689e-05
0.004525
7.8252e-05
0.0042845
9.5489e-05
0.0039714
0.00011105
0.0035909
0.00012485
0.0031484
0.00013526
0.0026626
0.00014701
0.0020842
0.0001499
0.0016382
0.0001488
0.00087404
0.00056224
0.00016136
2.0054e-05
0.0047596
2.4857e-08
4.0155e-05
0.0046697
5.9692e-05
0.0045055
7.8255e-05
0.0042659
9.5493e-05
0.0039541
0.00011105
0.0035754
0.00012488
0.0031346
0.0001352
0.0026523
0.00014697
0.0020724
0.00015035
0.0016348
0.00014887
0.00087553
0.00055059
0.00016052
2.0054e-05
0.0047395
2.5991e-08
4.0156e-05
0.0046496
5.9694e-05
0.004486
7.8259e-05
0.0042473
9.5497e-05
0.0039369
0.00011105
0.0035598
0.0001249
0.0031208
0.00013515
0.002642
0.00014691
0.0020606
0.00015079
0.001631
0.00014902
0.0008773
0.00053983
0.00015978
2.0054e-05
0.0047194
2.7127e-08
4.0157e-05
0.0046295
5.9696e-05
0.0044664
7.8262e-05
0.0042288
9.5502e-05
0.0039196
0.00011105
0.0035442
0.00012493
0.0031069
0.0001351
0.0026318
0.00014684
0.0020489
0.00015121
0.0016266
0.00014925
0.00087925
0.00052992
0.00015916
2.0054e-05
0.0046993
2.8266e-08
4.0159e-05
0.0046094
5.9699e-05
0.0044469
7.8265e-05
0.0042102
9.5506e-05
0.0039024
0.00011105
0.0035287
0.00012495
0.003093
0.00013506
0.0026217
0.00014675
0.0020372
0.0001516
0.0016217
0.00014955
0.00088131
0.00052083
0.00015864
2.0054e-05
0.0046792
2.9407e-08
4.016e-05
0.0045893
5.9701e-05
0.0044273
7.8269e-05
0.0041916
9.5511e-05
0.0038852
0.00011105
0.0035132
0.00012498
0.0030791
0.00013503
0.0026117
0.00014664
0.0020256
0.00015197
0.0016164
0.00014989
0.00088339
0.00051249
0.00015823
2.0054e-05
0.0046591
3.0551e-08
4.0162e-05
0.0045692
5.9704e-05
0.0044078
7.8272e-05
0.0041731
9.5515e-05
0.0038679
0.00011105
0.0034976
0.000125
0.0030651
0.000135
0.0026017
0.00014653
0.0020141
0.0001523
0.0016106
0.00015027
0.00088542
0.00050484
0.00015792
2.0054e-05
0.0046391
3.1698e-08
4.0163e-05
0.0045491
5.9706e-05
0.0043883
7.8276e-05
0.0041545
9.552e-05
0.0038507
0.00011105
0.0034821
0.00012503
0.0030511
0.00013498
0.0025917
0.0001464
0.0020027
0.00015261
0.0016044
0.00015068
0.00088735
0.00049782
0.00015769
2.0055e-05
0.004619
3.2848e-08
4.0164e-05
0.004529
5.9709e-05
0.0043687
7.8279e-05
0.0041359
9.5525e-05
0.0038334
0.00011105
0.0034666
0.00012506
0.0030371
0.00013497
0.0025818
0.00014627
0.0019914
0.00015287
0.0015978
0.0001511
0.00088912
0.00049138
0.00015755
2.0055e-05
0.0045989
3.4e-08
4.0166e-05
0.0045088
5.9711e-05
0.0043492
7.8283e-05
0.0041174
9.553e-05
0.0038162
0.00011105
0.0034511
0.00012509
0.0030231
0.00013496
0.0025719
0.00014613
0.0019802
0.00015311
0.0015908
0.00015154
0.00089069
0.00048544
0.00015747
2.0055e-05
0.0045788
3.5156e-08
4.0167e-05
0.0044887
5.9714e-05
0.0043296
7.8286e-05
0.0040988
9.5535e-05
0.0037989
0.00011105
0.0034355
0.00012511
0.003009
0.00013496
0.0025621
0.00014598
0.0019692
0.00015331
0.0015835
0.00015197
0.00089203
0.00047995
0.00015746
2.0055e-05
0.0045587
3.6314e-08
4.0168e-05
0.0044686
5.9716e-05
0.0043101
7.829e-05
0.0040802
9.5541e-05
0.0037817
0.00011105
0.00342
0.00012514
0.0029949
0.00013497
0.0025522
0.00014584
0.0019583
0.00015347
0.0015759
0.0001524
0.0008931
0.00047485
0.00015749
2.0055e-05
0.0045386
3.7476e-08
4.017e-05
0.0044485
5.9719e-05
0.0042905
7.8293e-05
0.0040616
9.5546e-05
0.0037644
0.00011104
0.0034045
0.00012516
0.0029808
0.00013499
0.0025424
0.00014569
0.0019476
0.0001536
0.001568
0.00015281
0.00089389
0.0004701
0.00015757
2.0055e-05
0.0045185
3.864e-08
4.0171e-05
0.0044284
5.9722e-05
0.004271
7.8297e-05
0.0040431
9.5552e-05
0.0037472
0.00011104
0.003389
0.00012519
0.0029667
0.00013502
0.0025326
0.00014554
0.0019371
0.0001537
0.0015598
0.00015321
0.00089438
0.00046564
0.00015767
2.0055e-05
0.0044984
3.9808e-08
4.0172e-05
0.0044083
5.9724e-05
0.0042514
7.83e-05
0.0040245
9.5557e-05
0.0037299
0.00011104
0.0033736
0.00012521
0.0029525
0.00013505
0.0025228
0.0001454
0.0019267
0.00015377
0.0015514
0.00015359
0.00089456
0.00046142
0.0001578
2.0055e-05
0.0044783
4.098e-08
4.0174e-05
0.0043882
5.9727e-05
0.0042319
7.8304e-05
0.0040059
9.5563e-05
0.0037126
0.00011104
0.0033581
0.00012524
0.0029383
0.00013509
0.0025129
0.00014526
0.0019166
0.00015381
0.0015429
0.00015395
0.00089443
0.00045742
0.00015795
2.0055e-05
0.0044582
4.2154e-08
4.0175e-05
0.004368
5.9729e-05
0.0042123
7.8307e-05
0.0039873
9.5569e-05
0.0036954
0.00011104
0.0033426
0.00012526
0.0029241
0.00013513
0.002503
0.00014513
0.0019066
0.00015383
0.0015342
0.00015428
0.00089399
0.00045359
0.00015811
2.0056e-05
0.0044381
4.3332e-08
4.0177e-05
0.0043479
5.9732e-05
0.0041928
7.8311e-05
0.0039687
9.5575e-05
0.0036781
0.00011104
0.0033272
0.00012528
0.0029098
0.00013518
0.0024931
0.000145
0.0018968
0.00015383
0.0015253
0.00015459
0.00089323
0.0004499
0.00015828
2.0056e-05
0.004418
4.4514e-08
4.0178e-05
0.0043278
5.9734e-05
0.0041732
7.8315e-05
0.0039502
9.5581e-05
0.0036609
0.00011103
0.0033117
0.00012529
0.0028956
0.00013524
0.0024832
0.00014488
0.0018871
0.00015381
0.0015164
0.00015487
0.00089217
0.00044632
0.00015845
2.0056e-05
0.0043979
4.5699e-08
4.0179e-05
0.0043077
5.9737e-05
0.0041536
7.8319e-05
0.0039316
9.5588e-05
0.0036436
0.00011103
0.0032963
0.00012531
0.0028813
0.0001353
0.0024732
0.00014477
0.0018776
0.00015377
0.0015074
0.00015513
0.00089081
0.00044284
0.00015861
2.0056e-05
0.0043778
4.6888e-08
4.0181e-05
0.0042875
5.974e-05
0.0041341
7.8322e-05
0.003913
9.5594e-05
0.0036263
0.00011103
0.0032808
0.00012533
0.002867
0.00013537
0.0024631
0.00014467
0.0018684
0.00015372
0.0014984
0.00015536
0.00088917
0.00043942
0.00015878
2.0056e-05
0.0043577
4.808e-08
4.0182e-05
0.0042674
5.9742e-05
0.0041145
7.8326e-05
0.0038944
9.5601e-05
0.003609
0.00011103
0.0032654
0.00012534
0.0028527
0.00013544
0.002453
0.00014458
0.0018592
0.00015365
0.0014893
0.00015557
0.00088725
0.00043605
0.00015893
2.0056e-05
0.0043376
4.9276e-08
4.0184e-05
0.0042473
5.9745e-05
0.004095
7.833e-05
0.0038758
9.5607e-05
0.0035918
0.00011103
0.00325
0.00012535
0.0028384
0.00013552
0.0024429
0.0001445
0.0018502
0.00015358
0.0014802
0.00015575
0.00088508
0.00043272
0.00015908
2.0056e-05
0.0043175
5.0477e-08
4.0185e-05
0.0042272
5.9748e-05
0.0040754
7.8334e-05
0.0038572
9.5614e-05
0.0035745
0.00011103
0.0032345
0.00012536
0.002824
0.00013559
0.0024326
0.00014443
0.0018414
0.0001535
0.0014711
0.00015591
0.00088266
0.00042941
0.00015922
2.0056e-05
0.0042974
5.1681e-08
4.0187e-05
0.004207
5.9751e-05
0.0040558
7.8337e-05
0.0038387
9.5621e-05
0.0035572
0.00011103
0.0032191
0.00012537
0.0028097
0.00013567
0.0024223
0.00014437
0.0018327
0.00015341
0.0014621
0.00015606
0.00088002
0.00042612
0.00015935
2.0056e-05
0.0042773
5.2889e-08
4.0188e-05
0.0041869
5.9753e-05
0.0040363
7.8341e-05
0.0038201
9.5628e-05
0.0035399
0.00011103
0.0032037
0.00012537
0.0027954
0.00013575
0.0024119
0.00014433
0.0018241
0.00015333
0.0014531
0.00015619
0.00087716
0.00042283
0.00015948
2.0057e-05
0.0042572
5.4101e-08
4.019e-05
0.0041668
5.9756e-05
0.0040167
7.8345e-05
0.0038015
9.5636e-05
0.0035226
0.00011103
0.0031883
0.00012537
0.002781
0.00013583
0.0024015
0.00014429
0.0018157
0.00015324
0.0014441
0.0001563
0.00087411
0.00041954
0.00015959
2.0057e-05
0.0042371
5.5318e-08
4.0191e-05
0.0041466
5.9759e-05
0.0039971
7.8349e-05
0.0037829
9.5643e-05
0.0035053
0.00011103
0.0031729
0.00012538
0.0027667
0.00013592
0.0023909
0.00014426
0.0018073
0.00015316
0.0014353
0.00015639
0.00087087
0.00041624
0.00015969
2.0057e-05
0.0042169
5.6539e-08
4.0193e-05
0.0041265
5.9762e-05
0.0039776
7.8353e-05
0.0037643
9.565e-05
0.003488
0.00011104
0.0031576
0.00012538
0.0027523
0.000136
0.0023803
0.00014425
0.0017991
0.00015308
0.0014264
0.00015648
0.00086747
0.00041294
0.00015979
2.0057e-05
0.0041968
5.7764e-08
4.0194e-05
0.0041064
5.9764e-05
0.003958
7.8357e-05
0.0037457
9.5658e-05
0.0034707
0.00011104
0.0031422
0.00012538
0.002738
0.00013608
0.0023696
0.00014424
0.0017909
0.000153
0.0014177
0.00015656
0.00086391
0.00040962
0.00015987
2.0057e-05
0.0041767
5.8994e-08
4.0196e-05
0.0040862
5.9767e-05
0.0039384
7.8361e-05
0.0037271
9.5666e-05
0.0034534
0.00011104
0.0031268
0.00012537
0.0027237
0.00013616
0.0023588
0.00014424
0.0017828
0.00015293
0.001409
0.00015662
0.00086021
0.00040629
0.00015995
2.0057e-05
0.0041566
6.0229e-08
4.0197e-05
0.0040661
5.977e-05
0.0039189
7.8365e-05
0.0037085
9.5673e-05
0.0034361
0.00011105
0.0031114
0.00012537
0.0027094
0.00013623
0.002348
0.00014426
0.0017748
0.00015286
0.0014004
0.00015668
0.00085639
0.00040295
0.00016002
2.0057e-05
0.0041365
6.1468e-08
4.0199e-05
0.0040459
5.9773e-05
0.0038993
7.8369e-05
0.0036899
9.5681e-05
0.0034188
0.00011105
0.0030961
0.00012537
0.002695
0.00013631
0.002337
0.00014428
0.0017668
0.0001528
0.0013919
0.00015673
0.00085246
0.00039959
0.00016009
2.0057e-05
0.0041164
6.2712e-08
4.02e-05
0.0040258
5.9776e-05
0.0038797
7.8373e-05
0.0036713
9.5689e-05
0.0034015
0.00011105
0.0030807
0.00012536
0.0026807
0.00013638
0.002326
0.0001443
0.0017589
0.00015275
0.0013834
0.00015678
0.00084842
0.00039622
0.00016015
2.0057e-05
0.0040962
6.3961e-08
4.0202e-05
0.0040056
5.9779e-05
0.0038601
7.8377e-05
0.0036527
9.5697e-05
0.0033842
0.00011106
0.0030653
0.00012535
0.0026664
0.00013645
0.0023149
0.00014433
0.001751
0.0001527
0.001375
0.00015683
0.0008443
0.00039284
0.00016021
2.0058e-05
0.0040761
6.5215e-08
4.0203e-05
0.0039855
5.9782e-05
0.0038405
7.8381e-05
0.0036341
9.5705e-05
0.0033668
0.00011107
0.00305
0.00012535
0.0026522
0.00013652
0.0023037
0.00014437
0.0017432
0.00015266
0.0013668
0.00015687
0.00084009
0.00038945
0.00016026
2.0058e-05
0.004056
6.6474e-08
4.0205e-05
0.0039654
5.9785e-05
0.003821
7.8386e-05
0.0036155
9.5713e-05
0.0033495
0.00011107
0.0030346
0.00012534
0.0026379
0.00013659
0.0022925
0.00014441
0.0017354
0.00015263
0.0013585
0.00015691
0.00083581
0.00038605
0.00016031
2.0058e-05
0.0040359
6.7739e-08
4.0206e-05
0.0039452
5.9788e-05
0.0038014
7.839e-05
0.0035969
9.5721e-05
0.0033322
0.00011108
0.0030193
0.00012533
0.0026236
0.00013665
0.0022812
0.00014446
0.0017275
0.00015261
0.0013504
0.00015695
0.00083146
0.00038265
0.00016035
2.0058e-05
0.0040157
6.9009e-08
4.0208e-05
0.0039251
5.9791e-05
0.0037818
7.8394e-05
0.0035783
9.573e-05
0.0033149
0.00011109
0.0030039
0.00012532
0.0026094
0.00013671
0.0022698
0.00014451
0.0017197
0.00015259
0.0013423
0.00015699
0.00082706
0.00037925
0.0001604
2.0058e-05
0.0039956
7.0284e-08
4.021e-05
0.0039049
5.9794e-05
0.0037622
7.8398e-05
0.0035597
9.5738e-05
0.0032975
0.0001111
0.0029885
0.00012531
0.0025952
0.00013676
0.0022583
0.00014457
0.0017119
0.00015258
0.0013343
0.00015703
0.00082261
0.00037584
0.00016044
2.0058e-05
0.0039755
7.1565e-08
4.0211e-05
0.0038848
5.9797e-05
0.0037426
7.8403e-05
0.0035411
9.5747e-05
0.0032802
0.0001111
0.0029732
0.0001253
0.002581
0.00013682
0.0022468
0.00014462
0.0017041
0.00015258
0.0013263
0.00015707
0.00081812
0.00037243
0.00016048
2.0058e-05
0.0039553
7.2852e-08
4.0213e-05
0.0038646
5.98e-05
0.003723
7.8407e-05
0.0035225
9.5755e-05
0.0032628
0.00011111
0.0029578
0.00012529
0.0025668
0.00013687
0.0022353
0.00014468
0.0016963
0.00015258
0.0013184
0.00015711
0.00081358
0.00036903
0.00016052
2.0059e-05
0.0039352
7.4144e-08
4.0215e-05
0.0038444
5.9804e-05
0.0037035
7.8411e-05
0.0035039
9.5764e-05
0.0032455
0.00011112
0.0029425
0.00012529
0.0025526
0.00013691
0.0022236
0.00014474
0.0016885
0.00015259
0.0013106
0.00015715
0.00080901
0.00036563
0.00016055
2.0059e-05
0.0039151
7.5443e-08
4.0216e-05
0.0038243
5.9807e-05
0.0036839
7.8416e-05
0.0034853
9.5773e-05
0.0032281
0.00011113
0.0029271
0.00012528
0.0025385
0.00013696
0.0022119
0.0001448
0.0016806
0.0001526
0.0013028
0.0001572
0.00080442
0.00036224
0.00016059
2.0059e-05
0.0038949
7.6747e-08
4.0218e-05
0.0038041
5.981e-05
0.0036643
7.842e-05
0.0034667
9.5781e-05
0.0032107
0.00011114
0.0029117
0.00012527
0.0025244
0.000137
0.0022002
0.00014486
0.0016728
0.00015262
0.0012951
0.00015724
0.00079979
0.00035886
0.00016062
2.0059e-05
0.0038748
7.8058e-08
4.022e-05
0.003784
5.9814e-05
0.0036447
7.8424e-05
0.0034481
9.579e-05
0.0031934
0.00011115
0.0028964
0.00012526
0.0025103
0.00013704
0.0021884
0.00014493
0.0016649
0.00015264
0.0012873
0.00015728
0.00079515
0.00035548
0.00016066
2.0059e-05
0.0038547
7.9376e-08
4.0221e-05
0.0037638
5.9817e-05
0.0036251
7.8429e-05
0.0034295
9.5799e-05
0.003176
0.00011117
0.002881
0.00012525
0.0024962
0.00013708
0.0021766
0.00014499
0.001657
0.00015266
0.0012797
0.00015733
0.00079048
0.00035212
0.00016069
2.0059e-05
0.0038345
8.07e-08
4.0223e-05
0.0037436
5.982e-05
0.0036055
7.8433e-05
0.0034108
9.5809e-05
0.0031586
0.00011118
0.0028656
0.00012525
0.0024821
0.00013712
0.0021647
0.00014505
0.001649
0.00015269
0.001272
0.00015738
0.0007858
0.00034878
0.00016072
2.006e-05
0.0038144
8.2031e-08
4.0225e-05
0.0037235
5.9824e-05
0.0035859
7.8438e-05
0.0033922
9.5818e-05
0.0031413
0.00011119
0.0028503
0.00012524
0.0024681
0.00013715
0.0021528
0.00014511
0.0016411
0.00015273
0.0012644
0.00015742
0.0007811
0.00034545
0.00016075
2.006e-05
0.0037942
8.3368e-08
4.0227e-05
0.0037033
5.9827e-05
0.0035663
7.8442e-05
0.0033736
9.5827e-05
0.0031239
0.0001112
0.0028349
0.00012523
0.002454
0.00013718
0.0021409
0.00014518
0.0016331
0.00015276
0.0012568
0.00015747
0.0007764
0.00034213
0.00016079
2.006e-05
0.0037741
8.4713e-08
4.0228e-05
0.0036831
5.9831e-05
0.0035467
7.8447e-05
0.003355
9.5836e-05
0.0031065
0.00011122
0.0028195
0.00012523
0.00244
0.00013721
0.0021289
0.00014524
0.0016251
0.0001528
0.0012493
0.00015752
0.00077167
0.00033883
0.00016082
2.006e-05
0.003754
8.6065e-08
4.023e-05
0.003663
5.9834e-05
0.0035271
7.8451e-05
0.0033364
9.5846e-05
0.0030891
0.00011123
0.0028041
0.00012522
0.002426
0.00013724
0.0021169
0.0001453
0.001617
0.00015284
0.0012417
0.00015757
0.00076694
0.00033555
0.00016085
2.006e-05
0.0037338
8.7424e-08
4.0232e-05
0.0036428
5.9838e-05
0.0035075
7.8456e-05
0.0033178
9.5855e-05
0.0030717
0.00011124
0.0027887
0.00012522
0.002412
0.00013727
0.0021048
0.00014536
0.0016089
0.00015288
0.0012342
0.00015762
0.00076221
0.00033228
0.00016088
2.0061e-05
0.0037137
8.8791e-08
4.0234e-05
0.0036226
5.9842e-05
0.0034879
7.8461e-05
0.0032991
9.5865e-05
0.0030543
0.00011126
0.0027733
0.00012522
0.0023981
0.00013729
0.0020928
0.00014542
0.0016008
0.00015292
0.0012267
0.00015766
0.00075746
0.00032904
0.00016091
2.0061e-05
0.0036935
9.0165e-08
4.0236e-05
0.0036024
5.9845e-05
0.0034683
7.8465e-05
0.0032805
9.5875e-05
0.0030369
0.00011127
0.0027579
0.00012521
0.0023841
0.00013732
0.0020807
0.00014548
0.0015926
0.00015296
0.0012192
0.00015771
0.00075271
0.00032581
0.00016094
2.0061e-05
0.0036734
9.1547e-08
4.0237e-05
0.0035823
5.9849e-05
0.0034486
7.847e-05
0.0032619
9.5885e-05
0.0030195
0.00011129
0.0027425
0.00012521
0.0023702
0.00013734
0.0020685
0.00014554
0.0015844
0.00015301
0.0012118
0.00015776
0.00074795
0.0003226
0.00016097
2.0061e-05
0.0036532
9.2938e-08
4.0239e-05
0.0035621
5.9853e-05
0.003429
7.8474e-05
0.0032433
9.5895e-05
0.003002
0.0001113
0.0027271
0.00012521
0.0023563
0.00013736
0.0020564
0.00014559
0.0015762
0.00015305
0.0012043
0.00015781
0.00074319
0.00031942
0.000161
2.0061e-05
0.003633
9.4337e-08
4.0241e-05
0.0035419
5.9857e-05
0.0034094
7.8479e-05
0.0032247
9.5904e-05
0.0029846
0.00011132
0.0027117
0.00012521
0.0023424
0.00013739
0.0020442
0.00014565
0.0015679
0.0001531
0.0011969
0.00015786
0.00073842
0.00031625
0.00016103
2.0062e-05
0.0036129
9.5744e-08
4.0243e-05
0.0035217
5.9861e-05
0.0033898
7.8484e-05
0.003206
9.5914e-05
0.0029672
0.00011134
0.0026963
0.00012521
0.0023286
0.00013741
0.002032
0.00014571
0.0015596
0.00015314
0.0011894
0.00015791
0.00073365
0.00031311
0.00016106
2.0062e-05
0.0035927
9.7159e-08
4.0245e-05
0.0035016
5.9865e-05
0.0033702
7.8488e-05
0.0031874
9.5925e-05
0.0029497
0.00011135
0.0026809
0.00012521
0.0023147
0.00013743
0.0020198
0.00014576
0.0015513
0.00015319
0.001182
0.00015796
0.00072888
0.00030998
0.00016109
2.0062e-05
0.0035726
9.8584e-08
4.0247e-05
0.0034814
5.9869e-05
0.0033506
7.8493e-05
0.0031688
9.5935e-05
0.0029323
0.00011137
0.0026654
0.00012521
0.0023009
0.00013745
0.0020075
0.00014581
0.0015429
0.00015324
0.0011746
0.00015801
0.00072411
0.00030688
0.00016111
2.0062e-05
0.0035524
1.0002e-07
4.0249e-05
0.0034612
5.9874e-05
0.0033309
7.8498e-05
0.0031502
9.5945e-05
0.0029149
0.00011139
0.00265
0.00012521
0.002287
0.00013747
0.0019953
0.00014587
0.0015345
0.00015328
0.0011671
0.00015806
0.00071934
0.00030379
0.00016114
2.0063e-05
0.0035322
1.0146e-07
4.0251e-05
0.003441
5.9878e-05
0.0033113
7.8503e-05
0.0031315
9.5955e-05
0.0028974
0.00011141
0.0026345
0.00012521
0.0022732
0.00013749
0.001983
0.00014592
0.0015261
0.00015333
0.0011597
0.00015811
0.00071456
0.00030073
0.00016117
2.0063e-05
0.0035121
1.0291e-07
4.0253e-05
0.0034208
5.9882e-05
0.0032917
7.8508e-05
0.0031129
9.5965e-05
0.0028799
0.00011142
0.0026191
0.00012522
0.0022594
0.00013751
0.0019707
0.00014597
0.0015176
0.00015338
0.0011523
0.00015816
0.00070978
0.00029768
0.0001612
2.0063e-05
0.0034919
1.0437e-07
4.0255e-05
0.0034006
5.9887e-05
0.003272
7.8512e-05
0.0030943
9.5975e-05
0.0028625
0.00011144
0.0026036
0.00012522
0.0022457
0.00013752
0.0019584
0.00014603
0.0015091
0.00015343
0.0011449
0.0001582
0.000705
0.00029466
0.00016123
2.0064e-05
0.0034717
1.0585e-07
4.0257e-05
0.0033804
5.9891e-05
0.0032524
7.8517e-05
0.0030757
9.5985e-05
0.002845
0.00011146
0.0025881
0.00012522
0.0022319
0.00013754
0.0019461
0.00014608
0.0015006
0.00015347
0.0011375
0.00015825
0.00070023
0.00029166
0.00016125
2.0064e-05
0.0034516
1.0733e-07
4.0259e-05
0.0033602
5.9896e-05
0.0032328
7.8522e-05
0.003057
9.5995e-05
0.0028275
0.00011148
0.0025726
0.00012523
0.0022182
0.00013756
0.0019338
0.00014613
0.001492
0.00015352
0.0011302
0.0001583
0.00069545
0.00028868
0.00016128
2.0064e-05
0.0034314
1.0882e-07
4.0261e-05
0.00334
5.99e-05
0.0032131
7.8527e-05
0.0030384
9.6005e-05
0.0028101
0.0001115
0.0025571
0.00012524
0.0022044
0.00013758
0.0019214
0.00014618
0.0014834
0.00015357
0.0011228
0.00015834
0.00069067
0.00028571
0.00016131
2.0065e-05
0.0034112
1.1032e-07
4.0263e-05
0.0033198
5.9905e-05
0.0031935
7.8533e-05
0.0030198
9.6015e-05
0.0027926
0.00011152
0.0025416
0.00012524
0.0021907
0.0001376
0.0019091
0.00014623
0.0014748
0.00015361
0.0011154
0.00015839
0.0006859
0.00028277
0.00016133
2.0065e-05
0.003391
1.1184e-07
4.0265e-05
0.0032996
5.991e-05
0.0031738
7.8538e-05
0.0030012
9.6025e-05
0.0027751
0.00011154
0.0025261
0.00012525
0.002177
0.00013762
0.0018967
0.00014628
0.0014661
0.00015366
0.001108
0.00015844
0.00068112
0.00027985
0.00016136
2.0065e-05
0.0033709
1.1336e-07
4.0267e-05
0.0032794
5.9915e-05
0.0031542
7.8543e-05
0.0029825
9.6035e-05
0.0027576
0.00011157
0.0025106
0.00012526
0.0021633
0.00013764
0.0018843
0.00014633
0.0014574
0.00015371
0.0011006
0.00015848
0.00067635
0.00027694
0.00016138
2.0066e-05
0.0033507
1.149e-07
4.0269e-05
0.0032592
5.992e-05
0.0031345
7.8548e-05
0.0029639
9.6045e-05
0.0027401
0.00011159
0.002495
0.00012527
0.0021496
0.00013765
0.0018719
0.00014638
0.0014487
0.00015375
0.0010933
0.00015853
0.00067157
0.00027406
0.00016141
2.0066e-05
0.0033305
1.1645e-07
4.0272e-05
0.003239
5.9925e-05
0.0031149
7.8554e-05
0.0029453
9.6055e-05
0.0027226
0.00011161
0.0024795
0.00012528
0.002136
0.00013767
0.0018595
0.00014643
0.00144
0.0001538
0.0010859
0.00015857
0.0006668
0.00027119
0.00016144
2.0066e-05
0.0033103
1.18e-07
4.0274e-05
0.0032188
5.993e-05
0.0030952
7.8559e-05
0.0029266
9.6065e-05
0.0027051
0.00011163
0.0024639
0.00012529
0.0021223
0.00013769
0.0018471
0.00014648
0.0014312
0.00015384
0.0010785
0.00015861
0.00066203
0.00026834
0.00016146
2.0067e-05
0.0032901
1.1958e-07
4.0276e-05
0.0031986
5.9935e-05
0.0030756
7.8565e-05
0.002908
9.6074e-05
0.0026876
0.00011165
0.0024484
0.0001253
0.0021086
0.00013771
0.0018347
0.00014652
0.0014224
0.00015389
0.0010711
0.00015866
0.00065726
0.00026551
0.00016149
2.0067e-05
0.0032699
1.2116e-07
4.0278e-05
0.0031784
5.994e-05
0.0030559
7.8571e-05
0.0028894
9.6084e-05
0.0026701
0.00011168
0.0024328
0.00012532
0.002095
0.00013773
0.0018223
0.00014657
0.0014135
0.00015394
0.0010638
0.0001587
0.00065249
0.0002627
0.00016151
2.0067e-05
0.0032498
1.2276e-07
4.028e-05
0.0031582
5.9946e-05
0.0030363
7.8577e-05
0.0028708
9.6093e-05
0.0026526
0.0001117
0.0024172
0.00012533
0.0020814
0.00013775
0.0018099
0.00014662
0.0014047
0.00015398
0.0010564
0.00015875
0.00064773
0.00025991
0.00016154
2.0068e-05
0.0032296
1.2437e-07
4.0283e-05
0.003138
5.9951e-05
0.0030166
7.8583e-05
0.0028521
9.6102e-05
0.002635
0.00011172
0.0024015
0.00012535
0.0020677
0.00013777
0.0017975
0.00014667
0.0013958
0.00015403
0.0010491
0.00015879
0.00064297
0.00025714
0.00016156
2.0068e-05
0.0032094
1.2599e-07
4.0285e-05
0.0031177
5.9957e-05
0.0029969
7.8589e-05
0.0028335
9.6111e-05
0.0026175
0.00011174
0.0023859
0.00012536
0.0020541
0.00013779
0.0017851
0.00014671
0.0013868
0.00015407
0.0010417
0.00015883
0.00063821
0.00025438
0.00016159
2.0069e-05
0.0031892
1.2762e-07
4.0287e-05
0.0030975
5.9963e-05
0.0029772
7.8595e-05
0.0028149
9.6121e-05
0.0026
0.00011177
0.0023703
0.00012538
0.0020405
0.00013781
0.0017726
0.00014676
0.0013779
0.00015412
0.0010343
0.00015887
0.00063345
0.00025164
0.00016162
2.0069e-05
0.003169
1.2927e-07
4.0289e-05
0.0030773
5.9968e-05
0.0029576
7.8602e-05
0.0027962
9.613e-05
0.0025825
0.00011179
0.0023546
0.0001254
0.0020269
0.00013783
0.0017602
0.0001468
0.0013689
0.00015416
0.001027
0.00015892
0.00062869
0.00024891
0.00016164
2.007e-05
0.0031488
1.3094e-07
4.0292e-05
0.0030571
5.9974e-05
0.0029379
7.8609e-05
0.0027776
9.6139e-05
0.0025649
0.00011182
0.0023389
0.00012541
0.0020133
0.00013785
0.0017477
0.00014685
0.0013599
0.00015421
0.0010196
0.00015896
0.00062394
0.00024621
0.00016167
2.007e-05
0.0031286
1.3262e-07
4.0294e-05
0.0030369
5.998e-05
0.0029182
7.8616e-05
0.002759
9.6147e-05
0.0025474
0.00011184
0.0023232
0.00012543
0.0019997
0.00013787
0.0017353
0.0001469
0.0013509
0.00015425
0.0010123
0.000159
0.00061919
0.00024352
0.00016169
2.0071e-05
0.0031084
1.3431e-07
4.0297e-05
0.0030166
5.9986e-05
0.0028985
7.8623e-05
0.0027403
9.6156e-05
0.0025299
0.00011186
0.0023075
0.00012545
0.0019861
0.0001379
0.0017229
0.00014694
0.0013419
0.00015429
0.0010049
0.00015904
0.00061444
0.00024084
0.00016172
2.0071e-05
0.0030882
1.3602e-07
4.0299e-05
0.0029964
5.9992e-05
0.0028788
7.863e-05
0.0027217
9.6165e-05
0.0025123
0.00011189
0.0022918
0.00012547
0.0019725
0.00013792
0.0017104
0.00014699
0.0013328
0.00015434
0.00099757
0.00015908
0.00060969
0.00023818
0.00016174
2.0072e-05
0.0030679
1.3774e-07
4.0301e-05
0.0029762
5.9998e-05
0.0028591
7.8638e-05
0.002703
9.6174e-05
0.0024948
0.00011191
0.0022761
0.0001255
0.0019589
0.00013794
0.001698
0.00014703
0.0013237
0.00015438
0.00099022
0.00015913
0.00060495
0.00023554
0.00016177
2.0072e-05
0.0030477
1.3948e-07
4.0304e-05
0.0029559
6.0004e-05
0.0028394
7.8646e-05
0.0026844
9.6183e-05
0.0024773
0.00011194
0.0022603
0.00012552
0.0019454
0.00013796
0.0016855
0.00014708
0.0013146
0.00015443
0.00098287
0.00015917
0.00060021
0.00023291
0.0001618
2.0073e-05
0.0030275
1.4123e-07
4.0306e-05
0.0029357
6.001e-05
0.0028197
7.8654e-05
0.0026658
9.6192e-05
0.0024597
0.00011196
0.0022445
0.00012554
0.0019318
0.00013799
0.0016731
0.00014712
0.0013055
0.00015447
0.00097552
0.00015921
0.00059547
0.0002303
0.00016182
2.0073e-05
0.0030073
1.4301e-07
4.0309e-05
0.0029155
6.0016e-05
0.0028
7.8662e-05
0.0026471
9.62e-05
0.0024422
0.00011198
0.0022288
0.00012556
0.0019182
0.00013801
0.0016606
0.00014716
0.0012963
0.00015451
0.00096817
0.00015925
0.00059073
0.0002277
0.00016185
2.0074e-05
0.0029871
1.4479e-07
4.0312e-05
0.0028952
6.0023e-05
0.0027803
7.8671e-05
0.0026285
9.6209e-05
0.0024246
0.00011201
0.002213
0.00012559
0.0019046
0.00013803
0.0016482
0.00014721
0.0012871
0.00015456
0.00096082
0.00015929
0.00058599
0.00022512
0.00016187
2.0074e-05
0.0029669
1.466e-07
4.0314e-05
0.002875
6.0029e-05
0.0027606
7.868e-05
0.0026098
9.6218e-05
0.0024071
0.00011203
0.0021971
0.00012561
0.001891
0.00013805
0.0016358