/*--------------------------------*- C++ -*----------------------------------*\
  =========                 |
  \\      /  F ield         | OpenFOAM: The Open Source CFD Toolbox
   \\    /   O peration     | Website:  https://openfoam.org
    \\  /    A nd           | Version:  6.0
     \\/     M anipulation  |
\*---------------------------------------------------------------------------*/
FoamFile
{
    version     2.0;
    format      ascii;
    class       volScalarField;
    location    "1.75";
    object      p;
}
// * * * * * * * * * * * * * * * * * * * * * * * * * * * * * * * * * * * * * //

dimensions      [0 2 -2 0 0 0 0];

internalField   nonuniform List<scalar> 
13500
(
0.099324
0.099333
0.098866
0.098394
0.097577
0.097002
0.096541
0.096876
0.098637
0.10267
0.12407
0.16825
0.099324
0.099333
0.098866
0.098394
0.097577
0.097002
0.09654
0.096876
0.098634
0.10273
0.12338
0.1632
0.099325
0.099334
0.098867
0.098395
0.097577
0.097001
0.096539
0.096873
0.098625
0.10277
0.1225
0.15872
0.099325
0.099335
0.098867
0.098396
0.097577
0.097001
0.096537
0.09687
0.098611
0.10279
0.12152
0.15524
0.099327
0.099337
0.098868
0.098397
0.097577
0.097
0.096534
0.096864
0.098592
0.1028
0.12048
0.15231
0.099328
0.099339
0.098869
0.098399
0.097577
0.097
0.096531
0.096858
0.098568
0.1028
0.1194
0.1497
0.09933
0.099341
0.09887
0.0984
0.097577
0.096999
0.096527
0.09685
0.098539
0.10278
0.11831
0.14734
0.099332
0.099343
0.098872
0.098402
0.097577
0.096997
0.096523
0.096841
0.098505
0.10275
0.11723
0.14517
0.099334
0.099346
0.098874
0.098404
0.097577
0.096996
0.096517
0.09683
0.098467
0.1027
0.11617
0.14317
0.099337
0.099349
0.098876
0.098406
0.097578
0.096994
0.096512
0.096818
0.098424
0.10264
0.11514
0.14131
0.09934
0.099352
0.098878
0.098408
0.097578
0.096993
0.096505
0.096805
0.098376
0.10257
0.11415
0.13955
0.099344
0.099356
0.098881
0.09841
0.097578
0.096991
0.096498
0.09679
0.098322
0.10249
0.1132
0.1379
0.099347
0.09936
0.098884
0.098413
0.097578
0.096988
0.096491
0.096774
0.098265
0.1024
0.11229
0.13633
0.099352
0.099365
0.098887
0.098416
0.097579
0.096986
0.096483
0.096756
0.098202
0.1023
0.11142
0.13484
0.099356
0.099369
0.098891
0.098419
0.097579
0.096983
0.096474
0.096737
0.098134
0.10219
0.11058
0.13342
0.099361
0.099374
0.098895
0.098422
0.09758
0.09698
0.096464
0.096717
0.098062
0.10208
0.10978
0.13207
0.099367
0.09938
0.098899
0.098426
0.09758
0.096977
0.096454
0.096695
0.097985
0.10196
0.10901
0.13076
0.099372
0.099386
0.098903
0.098429
0.097581
0.096974
0.096444
0.096672
0.097903
0.10184
0.10827
0.12951
0.099378
0.099392
0.098908
0.098433
0.097581
0.096971
0.096432
0.096647
0.097818
0.10171
0.10756
0.12831
0.099385
0.099398
0.098913
0.098437
0.097582
0.096967
0.09642
0.096621
0.097728
0.10159
0.10687
0.12715
0.099392
0.099405
0.098919
0.098441
0.097583
0.096963
0.096408
0.096593
0.097634
0.10147
0.1062
0.12603
0.099399
0.099412
0.098924
0.098446
0.097583
0.096959
0.096395
0.096564
0.097537
0.10134
0.10555
0.12494
0.099407
0.09942
0.09893
0.098451
0.097584
0.096955
0.096381
0.096534
0.097437
0.10122
0.10491
0.12389
0.099415
0.099428
0.098937
0.098456
0.097585
0.096951
0.096367
0.096502
0.097333
0.10109
0.10429
0.12287
0.099423
0.099436
0.098943
0.098461
0.097586
0.096946
0.096352
0.096469
0.097227
0.10097
0.10367
0.12187
0.099432
0.099445
0.09895
0.098466
0.097587
0.096941
0.096337
0.096435
0.097118
0.10085
0.10307
0.12091
0.099442
0.099454
0.098958
0.098472
0.097588
0.096936
0.096321
0.096399
0.097008
0.10073
0.10248
0.11996
0.099452
0.099464
0.098965
0.098478
0.097589
0.096931
0.096304
0.096362
0.096895
0.10061
0.1019
0.11904
0.099462
0.099474
0.098973
0.098484
0.097591
0.096925
0.096287
0.096324
0.09678
0.10049
0.10133
0.11815
0.099472
0.099484
0.098982
0.09849
0.097592
0.09692
0.096269
0.096285
0.096663
0.10037
0.10076
0.11727
0.099483
0.099495
0.098991
0.098497
0.097593
0.096914
0.096251
0.096245
0.096545
0.10025
0.1002
0.11641
0.099495
0.099506
0.099
0.098504
0.097595
0.096908
0.096232
0.096205
0.096426
0.10013
0.09965
0.11557
0.099507
0.099518
0.099009
0.098511
0.097596
0.096902
0.096213
0.096163
0.096306
0.10001
0.099106
0.11475
0.099519
0.09953
0.099019
0.098518
0.097598
0.096896
0.096192
0.09612
0.096184
0.099891
0.098569
0.11394
0.099532
0.099542
0.099029
0.098526
0.0976
0.096889
0.096172
0.096076
0.096061
0.099769
0.098039
0.11315
0.099546
0.099555
0.09904
0.098534
0.097601
0.096883
0.096151
0.096032
0.095937
0.099646
0.097516
0.11238
0.099559
0.099568
0.09905
0.098542
0.097603
0.096876
0.096129
0.095987
0.095812
0.099522
0.096999
0.11162
0.099574
0.099582
0.099062
0.098551
0.097605
0.096869
0.096106
0.095942
0.095686
0.099397
0.096491
0.11088
0.099589
0.099596
0.099073
0.09856
0.097607
0.096862
0.096083
0.095895
0.095559
0.09927
0.095989
0.11015
0.099604
0.099611
0.099086
0.098569
0.09761
0.096855
0.096059
0.095849
0.095431
0.099141
0.095494
0.10943
0.09962
0.099626
0.099098
0.098578
0.097612
0.096848
0.096035
0.095801
0.095302
0.099011
0.095007
0.10873
0.099636
0.099642
0.099111
0.098588
0.097614
0.096841
0.09601
0.095753
0.095172
0.098879
0.094527
0.10804
0.099652
0.099658
0.099124
0.098598
0.097617
0.096833
0.095985
0.095705
0.095042
0.098745
0.094055
0.10737
0.09967
0.099674
0.099138
0.098608
0.09762
0.096826
0.095959
0.095657
0.09491
0.09861
0.09359
0.1067
0.099687
0.099691
0.099152
0.098619
0.097622
0.096818
0.095932
0.095608
0.094777
0.098472
0.093133
0.10605
0.099706
0.099709
0.099166
0.09863
0.097625
0.09681
0.095905
0.095558
0.094643
0.098333
0.092682
0.10541
0.099724
0.099727
0.099181
0.098641
0.097628
0.096802
0.095877
0.095508
0.094509
0.098192
0.09224
0.10478
0.099744
0.099745
0.099197
0.098653
0.097631
0.096794
0.095849
0.095458
0.094373
0.098049
0.091804
0.10416
0.099764
0.099764
0.099212
0.098665
0.097635
0.096786
0.09582
0.095408
0.094237
0.097904
0.091376
0.10355
0.099784
0.099784
0.099229
0.098677
0.097638
0.096778
0.095791
0.095357
0.094099
0.097758
0.090956
0.10295
0.099805
0.099804
0.099245
0.098689
0.097642
0.09677
0.095761
0.095306
0.093961
0.09761
0.090542
0.10236
0.099826
0.099824
0.099262
0.098702
0.097645
0.096762
0.09573
0.095255
0.093822
0.09746
0.090136
0.10178
0.099848
0.099845
0.09928
0.098716
0.097649
0.096754
0.095699
0.095204
0.093682
0.097309
0.089737
0.10121
0.099871
0.099867
0.099298
0.098729
0.097653
0.096746
0.095667
0.095152
0.093542
0.097156
0.089344
0.10065
0.099894
0.099889
0.099316
0.098743
0.097657
0.096737
0.095635
0.0951
0.0934
0.097001
0.088959
0.10009
0.099918
0.099912
0.099335
0.098758
0.097662
0.096729
0.095603
0.095048
0.093258
0.096845
0.08858
0.09955
0.099942
0.099935
0.099355
0.098772
0.097666
0.096721
0.095569
0.094995
0.093115
0.096688
0.088208
0.099013
0.099967
0.099959
0.099375
0.098787
0.097671
0.096712
0.095536
0.094943
0.092972
0.096529
0.087843
0.098485
0.099992
0.099983
0.099395
0.098803
0.097676
0.096704
0.095501
0.09489
0.092828
0.096368
0.087484
0.097964
0.10002
0.10001
0.099416
0.098819
0.097681
0.096695
0.095467
0.094837
0.092684
0.096207
0.087131
0.09745
0.10004
0.10003
0.099437
0.098835
0.097687
0.096687
0.095432
0.094784
0.092539
0.096044
0.086785
0.096944
0.10007
0.10006
0.099459
0.098852
0.097692
0.096679
0.095396
0.09473
0.092394
0.095879
0.086445
0.096445
0.1001
0.10009
0.099482
0.098869
0.097698
0.09667
0.09536
0.094677
0.092248
0.095714
0.086111
0.095953
0.10013
0.10011
0.099505
0.098886
0.097704
0.096662
0.095323
0.094623
0.092102
0.095547
0.085782
0.095468
0.10016
0.10014
0.099528
0.098904
0.09771
0.096654
0.095286
0.094569
0.091956
0.095379
0.08546
0.094989
0.10019
0.10017
0.099552
0.098922
0.097717
0.096645
0.095249
0.094515
0.091809
0.09521
0.085143
0.094516
0.10022
0.1002
0.099577
0.098941
0.097724
0.096637
0.095211
0.094461
0.091662
0.09504
0.084832
0.09405
0.10025
0.10023
0.099602
0.09896
0.097731
0.096629
0.095172
0.094406
0.091516
0.094869
0.084526
0.09359
0.10028
0.10026
0.099628
0.098979
0.097738
0.096621
0.095134
0.094352
0.091369
0.094696
0.084226
0.093136
0.10031
0.10029
0.099654
0.098999
0.097746
0.096613
0.095094
0.094297
0.091222
0.094523
0.08393
0.092688
0.10035
0.10032
0.099681
0.09902
0.097753
0.096605
0.095055
0.094242
0.091075
0.094349
0.08364
0.092245
0.10038
0.10035
0.099708
0.09904
0.097761
0.096597
0.095015
0.094187
0.090927
0.094174
0.083355
0.091808
0.10041
0.10039
0.099736
0.099062
0.09777
0.096589
0.094975
0.094131
0.090781
0.093998
0.083075
0.091376
0.10045
0.10042
0.099765
0.099083
0.097779
0.096581
0.094934
0.094076
0.090634
0.093821
0.082799
0.090949
0.10048
0.10046
0.099794
0.099105
0.097788
0.096574
0.094893
0.09402
0.090487
0.093643
0.082528
0.090528
0.10052
0.10049
0.099824
0.099128
0.097797
0.096567
0.094852
0.093965
0.09034
0.093465
0.082262
0.090112
0.10056
0.10053
0.099855
0.099151
0.097807
0.096559
0.09481
0.093909
0.090194
0.093286
0.082
0.0897
0.1006
0.10056
0.099886
0.099175
0.097817
0.096552
0.094768
0.093853
0.090048
0.093106
0.081742
0.089294
0.10064
0.1006
0.099918
0.099199
0.097827
0.096545
0.094726
0.093796
0.089902
0.092925
0.081489
0.088892
0.10067
0.10064
0.09995
0.099224
0.097837
0.096539
0.094683
0.09374
0.089757
0.092744
0.08124
0.088494
0.10072
0.10068
0.099983
0.099249
0.097848
0.096532
0.094641
0.093683
0.089612
0.092562
0.080995
0.088101
0.10076
0.10072
0.10002
0.099274
0.09786
0.096526
0.094598
0.093626
0.089467
0.092379
0.080754
0.087713
0.1008
0.10076
0.10005
0.0993
0.097871
0.09652
0.094554
0.093569
0.089322
0.092196
0.080516
0.087329
0.10084
0.1008
0.10009
0.099327
0.097884
0.096514
0.094511
0.093512
0.089178
0.092012
0.080283
0.086948
0.10088
0.10084
0.10012
0.099354
0.097896
0.096508
0.094467
0.093455
0.089035
0.091827
0.080053
0.086572
0.10093
0.10088
0.10016
0.099382
0.097909
0.096503
0.094423
0.093397
0.088892
0.091642
0.079826
0.0862
0.10097
0.10092
0.1002
0.099411
0.097922
0.096498
0.094379
0.093339
0.088749
0.091457
0.079603
0.085832
0.10102
0.10097
0.10024
0.09944
0.097936
0.096493
0.094335
0.093281
0.088607
0.091271
0.079384
0.085468
0.10107
0.10101
0.10028
0.099469
0.09795
0.096489
0.09429
0.093223
0.088465
0.091085
0.079167
0.085107
0.10111
0.10106
0.10032
0.0995
0.097964
0.096485
0.094246
0.093164
0.088324
0.090898
0.078954
0.08475
0.10116
0.10111
0.10036
0.09953
0.097979
0.096481
0.094201
0.093106
0.088183
0.09071
0.078744
0.084396
0.10121
0.10115
0.1004
0.099562
0.097994
0.096477
0.094156
0.093047
0.088044
0.090523
0.078536
0.084046
0.10126
0.1012
0.10044
0.099594
0.09801
0.096474
0.094112
0.092988
0.087904
0.090334
0.078332
0.083699
0.10131
0.10125
0.10048
0.099627
0.098026
0.096472
0.094067
0.092928
0.087765
0.090146
0.07813
0.083355
0.10137
0.1013
0.10053
0.099661
0.098043
0.096469
0.094022
0.092869
0.087627
0.089957
0.077931
0.083014
0.10142
0.10135
0.10057
0.099695
0.09806
0.096467
0.093977
0.092809
0.08749
0.089768
0.077735
0.082677
0.10148
0.10141
0.10062
0.09973
0.098078
0.096466
0.093932
0.092749
0.087353
0.089578
0.077541
0.082342
0.10153
0.10146
0.10067
0.099766
0.098096
0.096465
0.093887
0.092688
0.087217
0.089388
0.07735
0.082011
0.10159
0.10151
0.10071
0.099802
0.098115
0.096464
0.093842
0.092628
0.087081
0.089198
0.077161
0.081682
0.10164
0.10157
0.10076
0.09984
0.098134
0.096464
0.093797
0.092567
0.086946
0.089007
0.076974
0.081356
0.1017
0.10162
0.10081
0.099878
0.098154
0.096465
0.093752
0.092506
0.086812
0.088816
0.07679
0.081032
0.10176
0.10168
0.10086
0.099917
0.098174
0.096465
0.093708
0.092445
0.086679
0.088625
0.076607
0.080712
0.10182
0.10174
0.10091
0.099957
0.098195
0.096467
0.093663
0.092383
0.086546
0.088433
0.076427
0.080393
0.10189
0.1018
0.10097
0.099998
0.098217
0.096469
0.093619
0.092321
0.086414
0.088242
0.076248
0.080077
0.10195
0.10186
0.10102
0.10004
0.098239
0.096471
0.093575
0.092259
0.086283
0.088049
0.076071
0.079763
0.10201
0.10192
0.10108
0.10008
0.098262
0.096474
0.093531
0.092197
0.086152
0.087857
0.075896
0.079452
0.10208
0.10199
0.10113
0.10013
0.098286
0.096478
0.093487
0.092135
0.086022
0.087665
0.075723
0.079142
0.10215
0.10205
0.10119
0.10017
0.09831
0.096482
0.093443
0.092072
0.085893
0.087472
0.075551
0.078835
0.10221
0.10212
0.10125
0.10022
0.098335
0.096486
0.0934
0.092009
0.085765
0.087279
0.075381
0.07853
0.10228
0.10218
0.10131
0.10026
0.098361
0.096492
0.093357
0.091946
0.085637
0.087085
0.075212
0.078226
0.10235
0.10225
0.10137
0.10031
0.098388
0.096498
0.093314
0.091882
0.08551
0.086892
0.075044
0.077925
0.10243
0.10232
0.10143
0.10036
0.098415
0.096505
0.093272
0.091819
0.085384
0.086698
0.074878
0.077625
0.1025
0.10239
0.1015
0.10041
0.098443
0.096512
0.09323
0.091755
0.085259
0.086504
0.074713
0.077326
0.10258
0.10247
0.10156
0.10046
0.098472
0.09652
0.093188
0.091691
0.085134
0.086309
0.074549
0.07703
0.10265
0.10254
0.10163
0.10051
0.098503
0.096529
0.093147
0.091627
0.08501
0.086115
0.074386
0.076734
0.10273
0.10262
0.10169
0.10057
0.098534
0.096539
0.093106
0.091563
0.084887
0.08592
0.074224
0.07644
0.10281
0.10269
0.10176
0.10062
0.098566
0.09655
0.093066
0.091498
0.084765
0.085725
0.074062
0.076148
0.10289
0.10277
0.10184
0.10068
0.098599
0.096561
0.093026
0.091433
0.084643
0.085529
0.073902
0.075856
0.10298
0.10285
0.10191
0.10074
0.098633
0.096573
0.092987
0.091369
0.084522
0.085334
0.073742
0.075566
0.10306
0.10294
0.10198
0.1008
0.098668
0.096586
0.092949
0.091304
0.084402
0.085138
0.073583
0.075277
0.10315
0.10302
0.10206
0.10086
0.098705
0.096601
0.092911
0.091239
0.084282
0.084942
0.073424
0.074988
0.10324
0.10311
0.10214
0.10092
0.098743
0.096616
0.092874
0.091173
0.084164
0.084745
0.073266
0.074701
0.10333
0.10319
0.10222
0.10099
0.098782
0.096632
0.092837
0.091108
0.084046
0.084549
0.073108
0.074414
0.10342
0.10328
0.1023
0.10105
0.098822
0.096649
0.092802
0.091043
0.083929
0.084352
0.072951
0.074128
0.10351
0.10338
0.10238
0.10112
0.098864
0.096667
0.092767
0.090977
0.083812
0.084154
0.072793
0.073842
0.10361
0.10347
0.10247
0.10119
0.098907
0.096687
0.092733
0.090912
0.083697
0.083957
0.072636
0.073557
0.10371
0.10357
0.10255
0.10126
0.098952
0.096708
0.092699
0.090847
0.083582
0.083759
0.072479
0.073273
0.10381
0.10367
0.10264
0.10134
0.098998
0.09673
0.092667
0.090781
0.083468
0.083561
0.072322
0.072988
0.10392
0.10377
0.10273
0.10141
0.099046
0.096753
0.092636
0.090716
0.083354
0.083362
0.072165
0.072704
0.10402
0.10387
0.10283
0.10149
0.099095
0.096778
0.092606
0.09065
0.083242
0.083164
0.072008
0.07242
0.10413
0.10398
0.10292
0.10157
0.099147
0.096804
0.092577
0.090585
0.08313
0.082965
0.07185
0.072136
0.10424
0.10409
0.10302
0.10165
0.0992
0.096831
0.092549
0.09052
0.083018
0.082765
0.071692
0.071852
0.10436
0.1042
0.10313
0.10174
0.099256
0.09686
0.092523
0.090455
0.082908
0.082565
0.071534
0.071567
0.10447
0.10431
0.10323
0.10182
0.099313
0.096891
0.092497
0.090391
0.082799
0.082365
0.071375
0.071283
0.10459
0.10443
0.10334
0.10191
0.099372
0.096924
0.092474
0.090326
0.08269
0.082165
0.071216
0.070997
0.10471
0.10455
0.10345
0.10201
0.099434
0.096958
0.092451
0.090262
0.082582
0.081964
0.071056
0.070712
0.10484
0.10467
0.10356
0.1021
0.099498
0.096994
0.09243
0.090198
0.082474
0.081763
0.070895
0.070425
0.10497
0.1048
0.10368
0.1022
0.099565
0.097032
0.092411
0.090135
0.082368
0.081561
0.070733
0.070138
0.1051
0.10493
0.1038
0.1023
0.099634
0.097073
0.092393
0.090072
0.082262
0.081359
0.070571
0.06985
0.10524
0.10506
0.10392
0.10241
0.099706
0.097115
0.092378
0.090009
0.082157
0.081157
0.070407
0.069561
0.10538
0.1052
0.10404
0.10252
0.09978
0.09716
0.092364
0.089947
0.082053
0.080954
0.070243
0.069271
0.10552
0.10534
0.10417
0.10263
0.099858
0.097207
0.092352
0.089886
0.08195
0.080751
0.070077
0.06898
0.10567
0.10549
0.10431
0.10274
0.099939
0.097256
0.092342
0.089825
0.081848
0.080547
0.06991
0.068687
0.10582
0.10563
0.10445
0.10286
0.10002
0.097308
0.092334
0.089765
0.081746
0.080343
0.069742
0.068393
0.10597
0.10579
0.10459
0.10298
0.10011
0.097363
0.092329
0.089705
0.081645
0.080139
0.069573
0.068097
0.10613
0.10595
0.10473
0.10311
0.1002
0.09742
0.092325
0.089647
0.081546
0.079934
0.069401
0.0678
0.1063
0.10611
0.10488
0.10324
0.10029
0.097481
0.092325
0.089589
0.081447
0.079728
0.069229
0.0675
0.10646
0.10628
0.10504
0.10338
0.10039
0.097544
0.092327
0.089533
0.081349
0.079522
0.069055
0.067199
0.10664
0.10645
0.1052
0.10352
0.1005
0.097611
0.092331
0.089478
0.081252
0.079316
0.068878
0.066895
0.10682
0.10662
0.10536
0.10366
0.1006
0.097681
0.092339
0.089423
0.081156
0.079109
0.068701
0.066589
0.107
0.10681
0.10553
0.10381
0.10071
0.097754
0.092349
0.08937
0.081061
0.078901
0.068521
0.066281
0.10719
0.107
0.10571
0.10397
0.10083
0.097832
0.092363
0.089319
0.080967
0.078693
0.068339
0.06597
0.10738
0.10719
0.10589
0.10413
0.10095
0.097913
0.09238
0.089268
0.080874
0.078485
0.068155
0.065656
0.10758
0.10739
0.10608
0.10429
0.10107
0.097998
0.0924
0.08922
0.080782
0.078276
0.067968
0.06534
0.10779
0.1076
0.10627
0.10446
0.1012
0.098087
0.092424
0.089173
0.080691
0.078066
0.06778
0.06502
0.108
0.10781
0.10647
0.10464
0.10134
0.098181
0.092451
0.089127
0.080602
0.077856
0.067589
0.064697
0.10822
0.10803
0.10668
0.10483
0.10148
0.098279
0.092482
0.089084
0.080513
0.077645
0.067395
0.064371
0.10845
0.10825
0.10689
0.10502
0.10163
0.098382
0.092518
0.089042
0.080426
0.077434
0.067198
0.064041
0.10868
0.10849
0.10711
0.10521
0.10178
0.09849
0.092557
0.089003
0.08034
0.077222
0.066999
0.063707
0.10892
0.10873
0.10734
0.10542
0.10194
0.098603
0.092601
0.088965
0.080255
0.077009
0.066797
0.063369
0.10917
0.10898
0.10757
0.10563
0.1021
0.098721
0.092649
0.08893
0.080171
0.076795
0.066592
0.063027
0.10942
0.10923
0.10781
0.10585
0.10228
0.098845
0.092701
0.088898
0.080088
0.076581
0.066383
0.06268
0.10969
0.1095
0.10806
0.10607
0.10246
0.098974
0.092759
0.088867
0.080007
0.076366
0.066171
0.062329
0.10996
0.10977
0.10832
0.10631
0.10264
0.09911
0.092822
0.08884
0.079927
0.07615
0.065956
0.061973
0.11024
0.11005
0.10859
0.10655
0.10284
0.099252
0.092889
0.088815
0.079848
0.075933
0.065737
0.061612
0.11053
0.11034
0.10887
0.1068
0.10304
0.0994
0.092962
0.088792
0.079771
0.075715
0.065514
0.061246
0.11083
0.11064
0.10915
0.10706
0.10325
0.099554
0.093041
0.088773
0.079695
0.075495
0.065287
0.060873
0.11113
0.11095
0.10945
0.10733
0.10347
0.099716
0.093125
0.088757
0.07962
0.075275
0.065056
0.060495
0.11145
0.11127
0.10975
0.10761
0.1037
0.099885
0.093215
0.088743
0.079546
0.075054
0.06482
0.060111
0.11178
0.1116
0.11007
0.1079
0.10393
0.10006
0.093311
0.088733
0.079474
0.074831
0.06458
0.059721
0.11211
0.11195
0.11039
0.1082
0.10418
0.10024
0.093414
0.088726
0.079402
0.074607
0.064335
0.059323
0.11246
0.1123
0.11073
0.10851
0.10444
0.10044
0.093522
0.088723
0.079332
0.074381
0.064085
0.058919
0.11282
0.11266
0.11108
0.10883
0.1047
0.10064
0.093638
0.088723
0.079263
0.074153
0.063829
0.058506
0.11319
0.11304
0.11144
0.10917
0.10498
0.10084
0.09376
0.088726
0.079195
0.073924
0.063568
0.058086
0.11357
0.11343
0.11181
0.10951
0.10527
0.10106
0.093888
0.088733
0.079128
0.073692
0.0633
0.057658
0.11397
0.11383
0.1122
0.10987
0.10556
0.10129
0.094024
0.088743
0.079061
0.073458
0.063027
0.057221
0.11437
0.11424
0.1126
0.11023
0.10587
0.10152
0.094167
0.088757
0.078996
0.073222
0.062747
0.056775
0.11479
0.11467
0.11301
0.11062
0.10619
0.10176
0.094317
0.088775
0.078931
0.072983
0.062459
0.05632
0.11523
0.11511
0.11344
0.11101
0.10653
0.10202
0.094475
0.088796
0.078866
0.07274
0.062165
0.055854
0.11567
0.11556
0.11388
0.11142
0.10687
0.10228
0.09464
0.08882
0.078801
0.072495
0.061863
0.055378
0.11613
0.11603
0.11433
0.11184
0.10723
0.10255
0.094813
0.088849
0.078737
0.072246
0.061552
0.054891
0.11661
0.11651
0.1148
0.11228
0.1076
0.10283
0.094994
0.08888
0.078672
0.071993
0.061233
0.054392
0.11709
0.11701
0.11528
0.11273
0.10799
0.10313
0.095182
0.088916
0.078607
0.071735
0.060904
0.053881
0.1176
0.11753
0.11579
0.11319
0.10839
0.10343
0.095379
0.088954
0.078542
0.071473
0.060566
0.053358
0.11812
0.11806
0.1163
0.11368
0.1088
0.10375
0.095584
0.088996
0.078475
0.071206
0.060217
0.05282
0.11866
0.11861
0.11684
0.11418
0.10923
0.10407
0.095797
0.089041
0.078407
0.070933
0.059858
0.052269
0.11921
0.11918
0.11739
0.11469
0.10967
0.10441
0.096018
0.089089
0.078338
0.070654
0.059487
0.051702
0.11978
0.11976
0.11797
0.11522
0.11013
0.10476
0.096248
0.08914
0.078266
0.070368
0.059103
0.05112
0.12037
0.12037
0.11856
0.11578
0.11061
0.10513
0.096487
0.089194
0.078192
0.070075
0.058707
0.050521
0.12098
0.12099
0.11917
0.11635
0.1111
0.1055
0.096734
0.089251
0.078116
0.069774
0.058297
0.049905
0.12161
0.12164
0.1198
0.11694
0.11161
0.10589
0.09699
0.08931
0.078036
0.069465
0.057872
0.04927
0.12226
0.12231
0.12046
0.11755
0.11214
0.10629
0.097255
0.089371
0.077952
0.069146
0.057432
0.048617
0.12293
0.123
0.12114
0.11818
0.11269
0.10671
0.097529
0.089435
0.077865
0.068818
0.056975
0.047943
0.12362
0.12371
0.12184
0.11884
0.11326
0.10714
0.097813
0.089501
0.077773
0.068479
0.056502
0.047248
0.12434
0.12445
0.12257
0.11952
0.11385
0.10759
0.098106
0.089568
0.077675
0.068129
0.05601
0.04653
0.12508
0.12521
0.12332
0.12022
0.11447
0.10805
0.09841
0.089637
0.077572
0.067766
0.055499
0.045789
0.12585
0.12601
0.12411
0.12095
0.1151
0.10853
0.098723
0.089708
0.077463
0.06739
0.054967
0.045023
0.12665
0.12683
0.12492
0.12171
0.11576
0.10902
0.099047
0.08978
0.077347
0.067001
0.054414
0.044231
0.12747
0.12768
0.12577
0.1225
0.11645
0.10954
0.099382
0.089854
0.077224
0.066596
0.053839
0.043411
0.12833
0.12857
0.12665
0.12332
0.11717
0.11008
0.099728
0.089929
0.077092
0.066176
0.053239
0.042563
0.12923
0.12949
0.12757
0.12418
0.11791
0.11063
0.10009
0.090004
0.076952
0.065738
0.052614
0.041684
0.13016
0.13046
0.12853
0.12507
0.11869
0.11121
0.10046
0.090081
0.076802
0.065282
0.051962
0.040774
0.13112
0.13146
0.12953
0.126
0.1195
0.11181
0.10084
0.090158
0.076642
0.064807
0.051282
0.039829
0.13213
0.13251
0.13057
0.12697
0.12035
0.11244
0.10124
0.090236
0.07647
0.064311
0.050573
0.038849
0.13319
0.1336
0.13166
0.12799
0.12123
0.11309
0.10165
0.090314
0.076286
0.063793
0.049831
0.037832
0.13429
0.13475
0.13281
0.12906
0.12216
0.11378
0.10208
0.090392
0.076089
0.063251
0.049056
0.036775
0.13544
0.13595
0.13401
0.13018
0.12313
0.11449
0.10252
0.090469
0.075878
0.062683
0.048246
0.035677
0.13665
0.13721
0.13528
0.13136
0.12415
0.11524
0.10298
0.090546
0.07565
0.062088
0.047397
0.034534
0.13792
0.13853
0.1366
0.1326
0.12522
0.11602
0.10345
0.09062
0.075404
0.061463
0.046508
0.033345
0.13924
0.13992
0.138
0.1339
0.12634
0.11683
0.10394
0.090692
0.075138
0.060805
0.045576
0.032106
0.14064
0.14138
0.13947
0.13527
0.12752
0.11769
0.10445
0.090759
0.07485
0.060112
0.044596
0.030814
0.1421
0.14292
0.14103
0.13672
0.12876
0.11858
0.10497
0.09082
0.074536
0.059379
0.043567
0.029466
0.14364
0.14455
0.14266
0.13825
0.13007
0.11952
0.10551
0.090873
0.074192
0.058602
0.042482
0.028059
0.14526
0.14626
0.14439
0.13986
0.13144
0.1205
0.10606
0.090914
0.073814
0.057777
0.041338
0.026587
0.14697
0.14806
0.14622
0.14156
0.13289
0.12152
0.10663
0.09094
0.073398
0.056898
0.04013
0.025046
0.14876
0.14997
0.14815
0.14336
0.1344
0.12259
0.1072
0.090947
0.072937
0.055959
0.03885
0.023431
0.15065
0.15198
0.15019
0.14526
0.136
0.1237
0.10778
0.090928
0.072424
0.054951
0.037491
0.021735
0.15263
0.15411
0.15235
0.14727
0.13767
0.12486
0.10837
0.090878
0.071852
0.053868
0.036047
0.019952
0.15471
0.15635
0.15463
0.14939
0.13943
0.12605
0.10895
0.090788
0.07121
0.0527
0.034507
0.018073
0.15691
0.15872
0.15704
0.15163
0.14127
0.12729
0.10952
0.09065
0.070489
0.051436
0.032862
0.01609
0.15921
0.16122
0.15959
0.154
0.1432
0.12856
0.11008
0.090454
0.069677
0.050064
0.031102
0.013994
0.16163
0.16386
0.16229
0.1565
0.14521
0.12987
0.1106
0.090186
0.068761
0.048572
0.029214
0.011774
0.16417
0.16665
0.16515
0.15914
0.14732
0.1312
0.11109
0.089833
0.067725
0.046946
0.027185
0.0094181
0.16684
0.16961
0.16818
0.16192
0.14951
0.13255
0.11153
0.089379
0.066553
0.045171
0.025002
0.0069149
0.16966
0.17274
0.1714
0.16486
0.15179
0.1339
0.11191
0.088804
0.065227
0.04323
0.022651
0.0042516
0.17261
0.17606
0.17483
0.16798
0.15417
0.13526
0.11219
0.088087
0.063724
0.041103
0.020115
0.001415
0.17573
0.1796
0.17848
0.17127
0.15663
0.13659
0.11237
0.087201
0.062021
0.038772
0.017377
-0.0016083
0.17903
0.18336
0.18238
0.17476
0.15918
0.13789
0.11241
0.086115
0.060088
0.036211
0.01442
-0.0048321
0.18251
0.18739
0.18657
0.17845
0.16182
0.13913
0.11227
0.08479
0.057892
0.033394
0.011222
-0.0082706
0.18619
0.19171
0.19107
0.18237
0.16451
0.14026
0.11191
0.083181
0.055392
0.030287
0.0077594
-0.011939
0.1901
0.19635
0.19591
0.18653
0.16726
0.14126
0.11128
0.08123
0.052539
0.026853
0.0040046
-0.015853
0.19424
0.20136
0.20114
0.19093
0.17002
0.14205
0.1103
0.078869
0.049274
0.023047
-7.4467e-05
-0.02003
0.19863
0.20676
0.20679
0.19556
0.17275
0.14256
0.10889
0.076016
0.04553
0.018814
-0.0045148
-0.02449
0.20326
0.2126
0.21288
0.20041
0.17536
0.14268
0.10693
0.072576
0.041228
0.014097
-0.009357
-0.029254
0.20814
0.21891
0.21943
0.20542
0.17776
0.14228
0.1043
0.068437
0.036285
0.008834
-0.014642
-0.03434
0.21323
0.2257
0.22642
0.21051
0.17977
0.14118
0.10083
0.063478
0.030611
0.002964
-0.020407
-0.039763
0.21851
0.23297
0.23379
0.21552
0.1812
0.13917
0.096359
0.057569
0.024122
-0.0035622
-0.026676
-0.045524
0.22394
0.2407
0.24143
0.22022
0.18175
0.13598
0.09067
0.050577
0.016746
-0.010774
-0.033449
-0.051603
0.22945
0.24879
0.24909
0.22425
0.18103
0.13129
0.083546
0.042382
0.0084332
-0.018671
-0.040693
-0.057951
0.23498
0.25707
0.25638
0.22705
0.17852
0.12472
0.074765
0.032881
-0.00083091
-0.027211
-0.048333
-0.064483
0.24053
0.26519
0.26256
0.2278
0.17356
0.11585
0.06412
0.02202
-0.011013
-0.03631
-0.056255
-0.071076
0.24611
0.27253
0.26643
0.22529
0.16528
0.10422
0.051464
0.0098184
-0.022012
-0.045832
-0.064306
-0.077586
0.25186
0.27797
0.26609
0.21777
0.15261
0.089404
0.036755
-0.0035874
-0.033637
-0.055585
-0.072305
-0.083861
0.25811
0.27976
0.25867
0.20291
0.13432
0.071044
0.020108
-0.017916
-0.045594
-0.065324
-0.080059
-0.089762
0.26544
0.27538
0.24033
0.17782
0.10909
0.048898
0.0017798
-0.03277
-0.057511
-0.074767
-0.08738
-0.095186
0.27462
0.26199
0.20699
0.13963
0.075751
0.022863
-0.017914
-0.047744
-0.069027
-0.083655
-0.094117
-0.10008
0.28583
0.23619
0.15571
0.086815
0.033822
-0.0070077
-0.038736
-0.06258
-0.079921
-0.091842
-0.10021
-0.10448
0.29904
0.19161
0.082863
0.018528
-0.017033
-0.041062
-0.060999
-0.077533
-0.090414
-0.099533
-0.10588
-0.10865
0.3241
0.12906
-0.011542
-0.063832
-0.076401
-0.080135
-0.085984
-0.093877
-0.10164
-0.1077
-0.11195
-0.11334
0.37265
0.066139
-0.11188
-0.14863
-0.13679
-0.12046
-0.11234
-0.11141
-0.11381
-0.11664
-0.11875
-0.11875
0.10423
0.065024
0.05492
0.048837
0.044553
0.04122
0.03845
0.035899
0.033671
0.031189
0.029398
0.025977
0.12383
0.080547
0.067994
0.059919
0.054309
0.050011
0.046486
0.04327
0.0405
0.037395
0.035247
0.031109
0.11101
0.075259
0.063895
0.055956
0.050436
0.046239
0.042829
0.039736
0.037116
0.034138
0.032191
0.028114
0.10592
0.074881
0.06384
0.055811
0.05016
0.045855
0.042372
0.039216
0.036573
0.033536
0.031618
0.027335
0.1053
0.077062
0.065857
0.057607
0.05171
0.047194
0.043541
0.040229
0.037473
0.034287
0.032304
0.027759
0.10467
0.078888
0.067606
0.059217
0.053119
0.048421
0.044616
0.041166
0.038305
0.034988
0.032936
0.028193
0.10358
0.080176
0.068962
0.060517
0.054271
0.049423
0.045492
0.041924
0.038975
0.035554
0.033442
0.028567
0.10241
0.081233
0.070178
0.061729
0.055366
0.050388
0.046341
0.042668
0.039637
0.036132
0.033962
0.029014
0.10132
0.082148
0.071321
0.062911
0.056464
0.05137
0.047216
0.043447
0.040341
0.036767
0.034545
0.02958
0.10028
0.082913
0.072377
0.064051
0.057554
0.052365
0.048116
0.044262
0.041087
0.037465
0.035197
0.030273
0.09927
0.083526
0.073335
0.065135
0.058625
0.053365
0.049037
0.04511
0.041876
0.038225
0.035922
0.031094
0.098293
0.084001
0.074193
0.066156
0.059668
0.054363
0.049974
0.04599
0.042709
0.039048
0.036722
0.032038
0.097349
0.084356
0.074952
0.067108
0.060676
0.055352
0.050921
0.046898
0.043581
0.039931
0.037594
0.033098
0.096439
0.084605
0.075615
0.067986
0.061639
0.056322
0.051869
0.047825
0.044487
0.040866
0.038528
0.034256
0.095564
0.084763
0.076187
0.068788
0.062551
0.057265
0.05281
0.048761
0.045416
0.041841
0.039514
0.035493
0.094727
0.084846
0.076675
0.069516
0.063407
0.058174
0.053735
0.049699
0.046358
0.042846
0.040537
0.036787
0.093926
0.084866
0.077086
0.070172
0.064206
0.059043
0.054636
0.050628
0.047304
0.043868
0.041583
0.038114
0.093163
0.084834
0.077429
0.070759
0.064946
0.059868
0.055508
0.051541
0.048244
0.044894
0.042639
0.039452
0.092436
0.084759
0.07771
0.071282
0.065629
0.060647
0.056345
0.052432
0.04917
0.045914
0.043692
0.040781
0.091745
0.084651
0.077936
0.071745
0.066256
0.061379
0.057144
0.053294
0.050074
0.046918
0.044729
0.042083
0.091088
0.084516
0.078116
0.072154
0.066829
0.062065
0.057904
0.054124
0.050951
0.047899
0.045743
0.043345
0.090463
0.084358
0.078253
0.072514
0.067352
0.062704
0.058623
0.05492
0.051797
0.048849
0.046725
0.044554
0.089868
0.084184
0.078355
0.072829
0.067829
0.063299
0.059301
0.055678
0.052608
0.049763
0.047669
0.045704
0.089302
0.083997
0.078425
0.073103
0.068261
0.063851
0.059939
0.056399
0.053383
0.050639
0.048573
0.046789
0.088763
0.0838
0.078468
0.073341
0.068653
0.064362
0.060538
0.057083
0.054121
0.051473
0.049433
0.047806
0.088248
0.083595
0.078487
0.073546
0.069007
0.064835
0.061098
0.057728
0.054821
0.052264
0.050249
0.048755
0.087756
0.083385
0.078486
0.073722
0.069327
0.065272
0.061622
0.058336
0.055483
0.053012
0.051019
0.049636
0.087285
0.08317
0.078467
0.073871
0.069615
0.065675
0.062111
0.058908
0.056108
0.053717
0.051744
0.050452
0.086835
0.082952
0.078433
0.073996
0.069874
0.066045
0.062566
0.059444
0.056697
0.05438
0.052426
0.051206
0.086402
0.082733
0.078385
0.0741
0.070106
0.066385
0.06299
0.059947
0.057251
0.055001
0.053065
0.0519
0.085986
0.082513
0.078325
0.074183
0.070313
0.066697
0.063383
0.060417
0.057771
0.055583
0.053663
0.052539
0.085586
0.082292
0.078255
0.074249
0.070497
0.066982
0.063748
0.060855
0.058258
0.056126
0.054221
0.053126
0.085201
0.082072
0.078175
0.074299
0.070659
0.067243
0.064086
0.061263
0.058714
0.056633
0.054743
0.053666
0.084829
0.081852
0.078088
0.074334