/*--------------------------------*- C++ -*----------------------------------*\
  =========                 |
  \\      /  F ield         | OpenFOAM: The Open Source CFD Toolbox
   \\    /   O peration     | Website:  https://openfoam.org
    \\  /    A nd           | Version:  6.0
     \\/     M anipulation  |
\*---------------------------------------------------------------------------*/
FoamFile
{
    version     2.0;
    format      ascii;
    class       volVectorField;
    location    "1.75";
    object      U;
}
// * * * * * * * * * * * * * * * * * * * * * * * * * * * * * * * * * * * * * //

dimensions      [0 1 -1 0 0 0 0];

internalField   nonuniform List<vector> 
13500
(
(1 1.4329e-06 -4.3216e-18)
(1 -3.1196e-06 2.9237e-18)
(1 -6.4084e-06 -1.2579e-17)
(1 -8.7787e-06 -8.6963e-18)
(1 -9.4368e-06 1.6406e-17)
(1 -6.6403e-06 3.0452e-17)
(1 -2.0427e-07 2.6281e-17)
(0.99998 1.5424e-05 -4.2158e-18)
(0.99991 4.5824e-05 1.5601e-17)
(0.99981 7.275e-05 3.3437e-18)
(0.99573 0.00075102 2.8953e-17)
(1.0192 0.010826 7.9126e-18)
(1 4.3813e-06 2.6773e-18)
(1 -8.9287e-06 -8.8791e-18)
(1 -1.797e-05 6.0071e-18)
(1 -2.5007e-05 -3.4293e-19)
(1 -2.624e-05 -4.3751e-19)
(1 -1.7649e-05 -3.6616e-17)
(1 1.8971e-06 -4.5393e-17)
(0.99993 4.8798e-05 -2.4121e-17)
(0.9997 0.00014672 -1.5571e-17)
(0.99984 0.00018176 -1.6535e-18)
(0.98626 0.0021669 -1.3711e-17)
(1.054 0.030577 -4.7909e-18)
(1 7.3899e-06 -3.4581e-18)
(1 -1.4907e-05 1.7641e-17)
(1 -2.9563e-05 3.1246e-18)
(1 -4.1547e-05 1.0027e-17)
(1 -4.3199e-05 -3.7833e-18)
(1 -2.8897e-05 2.933e-17)
(1 3.9085e-06 -6.3902e-18)
(0.99989 8.2294e-05 5.4793e-18)
(0.99948 0.00025418 -1.8889e-17)
(1.0003 0.0003122 2.512e-17)
(0.97617 0.0032187 -7.1693e-18)
(1.0828 0.045041 1.6835e-18)
(1 1.0455e-05 9.0401e-18)
(1 -2.1104e-05 -1.7103e-17)
(1 -4.137e-05 -1.4811e-17)
(1 -5.851e-05 -7.0346e-19)
(1 -6.0551e-05 5.8404e-18)
(1 -4.0552e-05 -8.1423e-19)
(1 5.6014e-06 6.2958e-17)
(0.99986 0.00011538 9.8714e-18)
(0.99922 0.00036673 2.2337e-17)
(1.0012 0.00047029 -9.0989e-18)
(0.96588 0.0039295 3.4913e-17)
(1.1044 0.055507 -7.6632e-18)
(1 1.3577e-05 -6.3521e-18)
(1 -2.7393e-05 1.4782e-17)
(1 -5.3175e-05 1.2608e-17)
(1 -7.5577e-05 1.2832e-17)
(1.0001 -7.7956e-05 2.8638e-18)
(1 -5.2241e-05 2.1557e-17)
(1 7.2453e-06 -2.8115e-17)
(0.99984 0.00014804 2.0048e-18)
(0.99893 0.00048254 -1.3696e-17)
(1.0025 0.00065953 -2.1709e-18)
(0.95577 0.0043475 -9.0537e-18)
(1.1187 0.063112 2.1235e-18)
(1 1.6749e-05 6.4283e-18)
(1 -3.3765e-05 -6.1278e-18)
(1 -6.4984e-05 3.8506e-18)
(1 -9.2746e-05 -2.542e-17)
(1.0001 -9.5415e-05 -8.383e-20)
(1.0001 -6.3988e-05 -4.2675e-17)
(1 8.8267e-06 1.0789e-18)
(0.99983 0.00018018 -1.6094e-17)
(0.99859 0.00059966 5.2154e-18)
(1.0041 0.00088784 -2.1877e-17)
(0.94621 0.0045138 -2.1801e-17)
(1.1264 0.068471 2.055e-18)
(0.99999 1.996e-05 -1.0641e-18)
(1 -4.0214e-05 -7.3289e-18)
(1 -7.6808e-05 -3.1294e-18)
(1.0001 -0.00011002 1.9187e-17)
(1.0001 -0.00011294 -2.6524e-17)
(1.0001 -7.5812e-05 1.6328e-17)
(1 1.0353e-05 1.8805e-17)
(0.99983 0.00021185 5.6621e-18)
(0.99819 0.00071609 1.166e-17)
(1.0059 0.0011628 1.1777e-17)
(0.93749 0.0044647 9.3932e-18)
(1.1285 0.072014 3.3035e-18)
(0.99999 2.3203e-05 -2.1963e-18)
(1 -4.6732e-05 -1.4417e-18)
(1 -8.8657e-05 -2.6959e-17)
(1.0001 -0.0001274 -9.1617e-18)
(1.0001 -0.00013052 7.424e-18)
(1.0001 -8.7728e-05 2.6758e-17)
(1 1.182e-05 1.197e-17)
(0.99984 0.00024311 5.0544e-18)
(0.99774 0.00082978 -7.6213e-18)
(1.008 0.0014895 1.6497e-17)
(0.92982 0.0042358 7.5867e-18)
(1.126 0.074103 -1.0512e-17)
(0.99999 2.647e-05 -6.8181e-18)
(1 -5.3317e-05 6.1984e-18)
(1 -0.00010054 4.5328e-17)
(1.0001 -0.00014489 -1.0989e-17)
(1.0001 -0.00014819 2.7802e-17)
(1.0001 -9.9749e-05 -5.2831e-17)
(1 1.3209e-05 -3.9873e-17)
(0.99987 0.00027407 9.8211e-18)
(0.99723 0.00093858 -5.7242e-18)
(1.0103 0.0018703 -9.0985e-18)
(0.92338 0.0038608 -1.4017e-17)
(1.1199 0.075044 1.3757e-17)
(0.99999 2.9758e-05 4.4919e-18)
(1 -5.9965e-05 2.3331e-18)
(1 -0.00011246 -3.8396e-17)
(1.0001 -0.00016249 1.5639e-17)
(1.0001 -0.00016593 -1.2124e-17)
(1.0001 -0.00011189 2.2532e-17)
(1 1.4498e-05 1.417e-17)
(0.99991 0.00030488 2.4823e-18)
(0.99667 0.0010404 5.4032e-19)
(1.0127 0.0023059 1.4417e-18)
(0.91824 0.003372 4.4599e-18)
(1.1111 0.07509 -7.1807e-19)
(0.99999 3.3065e-05 -2.4662e-18)
(1 -6.6677e-05 -7.6516e-18)
(1 -0.00012442 9.4119e-18)
(1.0001 -0.00018021 -2.7594e-18)
(1.0001 -0.00018376 1.8715e-18)
(1.0001 -0.00012417 -2.4693e-17)
(1.0001 1.566e-05 -3.2637e-17)
(0.99997 0.00033574 -3.1532e-17)
(0.99605 0.0011331 1.6001e-17)
(1.0151 0.002795 1.8727e-18)
(0.91444 0.002799 -1.1312e-17)
(1.1004 0.074448 -5.9342e-18)
(0.99998 3.6392e-05 3.4041e-18)
(1 -7.3456e-05 2.8902e-18)
(1 -0.00013643 4.5359e-18)
(1.0001 -0.00019805 -2.199e-18)
(1.0001 -0.00020168 -5.6099e-18)
(1.0001 -0.00013659 9.3395e-18)
(1.0001 1.6663e-05 1.8892e-17)
(1 0.00036689 1.9479e-17)
(0.99537 0.0012148 1.0282e-17)
(1.0175 0.0033352 -2.3646e-17)
(0.91197 0.0021689 1.1877e-19)
(1.0886 0.073289 -6.877e-18)
(0.99998 3.974e-05 -3.4035e-18)
(1 -8.0305e-05 5.6835e-18)
(1 -0.00014848 8.2238e-18)
(1.0001 -0.00021603 5.7421e-18)
(1.0002 -0.0002197 -5.2033e-18)
(1.0002 -0.00014919 4.5913e-18)
(1.0001 1.747e-05 4.3081e-18)
(1.0001 0.00039858 -1.7395e-18)
(0.99466 0.0012836 -1.6617e-17)
(1.0198 0.0039228 2.1928e-17)
(0.91077 0.0015063 1.0587e-19)
(1.0762 0.07175 1.4693e-18)
(0.99998 4.3112e-05 5.1756e-18)
(0.99999 -8.723e-05 -4.4365e-18)
(1 -0.00016058 7.1993e-19)
(1.0001 -0.00023414 -4.79e-18)
(1.0002 -0.00023782 1.1817e-17)
(1.0002 -0.00016196 5.6017e-18)
(1.0001 1.804e-05 1.7335e-17)
(1.0002 0.00043113 -6.4598e-18)
(0.9939 0.0013377 -2.03e-19)
(1.022 0.0045533 5.3863e-18)
(0.91076 0.00083303 1.7169e-17)
(1.0638 0.069945 9.3709e-19)
(0.99997 4.6511e-05 1.2483e-18)
(0.99999 -9.4235e-05 9.8461e-18)
(1 -0.00017271 1.3752e-17)
(1.0001 -0.00025241 -4.7757e-18)
(1.0002 -0.00025603 8.5568e-18)
(1.0002 -0.00017493 -2.6151e-18)
(1.0001 1.8324e-05 -3.0361e-17)
(1.0004 0.00046486 2.0446e-17)
(0.99312 0.0013757 -1.8741e-17)
(1.024 0.0052215 -3.1067e-17)
(0.91182 0.00016793 -3.7695e-18)
(1.0517 0.067966 8.6886e-19)
(0.99997 4.9939e-05 -3.1846e-18)
(0.99999 -0.00010132 -1.0471e-17)
(1 -0.00018489 -3.3007e-17)
(1.0001 -0.00027083 8.0463e-18)
(1.0002 -0.00027436 -1.2985e-17)
(1.0002 -0.00018811 8.3841e-18)
(1.0001 1.8272e-05 -2.841e-18)
(1.0005 0.00050011 -1.2308e-17)
(0.99231 0.0013961 4.1144e-18)
(1.0259 0.0059218 1.8552e-17)
(0.91383 -0.00047282 -7.9097e-18)
(1.0402 0.065884 1.2108e-17)
(0.99997 5.3399e-05 3.3507e-19)
(0.99999 -0.00010851 7.8315e-18)
(1 -0.00019711 2.2788e-17)
(1.0001 -0.00028942 -1.8121e-18)
(1.0002 -0.00029279 -1.29e-17)
(1.0002 -0.00020153 -1.5624e-17)
(1.0001 1.7823e-05 1.0851e-17)
(1.0007 0.00053723 7.0581e-18)
(0.9915 0.0013977 2.3786e-17)
(1.0275 0.0066487 -2.5977e-18)
(0.91666 -0.0010759 1.9652e-18)
(1.0295 0.063759 -4.8304e-18)
(0.99996 5.6893e-05 -1.8799e-18)
(0.99998 -0.00011578 -9.4892e-18)
(1 -0.00020938 -1.0283e-17)
(1.0001 -0.00030818 6.0556e-18)
(1.0002 -0.00031134 -7.2451e-18)
(1.0002 -0.0002152 -1.2531e-17)
(1.0001 1.6917e-05 1.0549e-17)
(1.0009 0.00057657 -4.7885e-18)
(0.99068 0.0013798 -2.9439e-17)
(1.0289 0.0073961 -1.4559e-17)
(0.92016 -0.0016305 8.5281e-18)
(1.0198 0.061636 -5.2435e-18)
(0.99996 6.0425e-05 -2.6918e-18)
(0.99998 -0.00012316 -3.5865e-18)
(1 -0.00022168 -7.6203e-19)
(1.0001 -0.00032713 -2.6517e-17)
(1.0002 -0.00033001 6.0789e-18)
(1.0003 -0.00022914 5.4572e-18)
(1.0001 1.5486e-05 -2.0046e-17)
(1.0011 0.00061848 -1.6347e-17)
(0.98987 0.0013416 4.305e-18)
(1.03 0.0081582 -1.0947e-18)
(0.92421 -0.0021286 -9.848e-18)
(1.0111 0.059548 9.9146e-19)
(0.99995 6.3997e-05 3.5013e-18)
(0.99998 -0.00013064 1.6441e-17)
(1 -0.00023403 1.9622e-17)
(1.0001 -0.00034628 2.4974e-18)
(1.0002 -0.00034879 1.6805e-17)
(1.0003 -0.00024337 9.5627e-18)
(1.0001 1.3459e-05 2.8933e-18)
(1.0013 0.00066329 1.7891e-17)
(0.98908 0.0012827 2.1395e-17)
(1.0309 0.0089292 1.7386e-17)
(0.92867 -0.0025642 7.3485e-18)
(1.0036 0.057523 1.1774e-18)
(0.99995 6.7609e-05 -1.6688e-18)
(0.99997 -0.00013822 -3.9449e-18)
(1 -0.00024643 -2.0905e-17)
(1.0001 -0.00036562 -2.3642e-18)
(1.0003 -0.00036769 -1.2736e-17)
(1.0003 -0.0002579 -5.1736e-18)
(1.0001 1.0765e-05 -1.8572e-18)
(1.0016 0.00071128 -1.6177e-17)
(0.98832 0.0012032 -2.046e-17)
(1.0315 0.0097036 8.9114e-18)
(0.93341 -0.0029335 5.0353e-19)
(0.9971 0.055579 6.7627e-19)
(0.99994 7.1265e-05 4.4236e-18)
(0.99997 -0.00014593 -5.1538e-18)
(1 -0.00025886 -1.9607e-17)
(1.0001 -0.00038519 4.4951e-17)
(1.0003 -0.00038672 1.8475e-17)
(1.0003 -0.00027276 -1.266e-17)
(1.0001 7.3309e-06 2.4967e-17)
(1.0018 0.00076272 2.1862e-17)
(0.9876 0.0011032 3.3202e-17)
(1.0319 0.010476 -3.2663e-17)
(0.93833 -0.0032347 -1.3495e-17)
(0.99167 0.053728 1.7863e-19)
(0.99993 7.4966e-05 -3.2379e-18)
(0.99997 -0.00015375 -1.0342e-18)
(1 -0.00027135 3.3474e-17)
(1.0002 -0.00040497 -3.398e-17)
(1.0003 -0.00040587 -1.7785e-18)
(1.0004 -0.00028797 4.1946e-17)
(1.0001 3.0833e-06 7.7376e-18)
(1.0021 0.00081783 -3.3773e-18)
(0.98692 0.00098328 -2.0592e-17)
(1.032 0.011241 3.8492e-17)
(0.94332 -0.0034676 -5.7156e-18)
(0.98722 0.051978 -2.8357e-19)
(0.99993 7.8713e-05 -1.6506e-18)
(0.99996 -0.00016169 -2.0608e-18)
(1 -0.00028388 1.743e-18)
(1.0002 -0.00042499 3.5351e-17)
(1.0003 -0.00042516 -1.0027e-17)
(1.0004 -0.00030355 -3.1003e-17)
(1 -2.0481e-06 -1.9728e-17)
(1.0024 0.00087676 -3.6362e-18)
(0.98629 0.00084421 6.5123e-18)
(1.0319 0.011994 -3.2473e-17)
(0.9483 -0.0036332 9.5739e-18)
(0.98368 0.050333 3.0758e-18)
(0.99992 8.2507e-05 2.7277e-18)
(0.99996 -0.00016975 1.4343e-17)
(1 -0.00029645 -1.2855e-17)
(1.0002 -0.00044525 -3.7015e-18)
(1.0003 -0.00044457 -1.9244e-17)
(1.0004 -0.00031952 3.3728e-17)
(1 -8.1299e-06 -1.7319e-17)
(1.0026 0.00093964 1.5071e-17)
(0.98572 0.0006871 -2.007e-18)
(1.0316 0.01273 3.0446e-17)
(0.95319 -0.0037339 -9.3409e-18)
(0.98097 0.048794 -5.1325e-18)
(0.99992 8.6351e-05 -5.2316e-19)
(0.99995 -0.00017795 -8.2491e-18)
(1 -0.00030908 -1.8001e-17)
(1.0002 -0.00046577 -1.0142e-17)
(1.0003 -0.00046412 1.8666e-17)
(1.0004 -0.0003359 -4.3009e-17)
(1 -1.5223e-05 -2.6725e-18)
(1.0029 0.0010065 -2.0362e-17)
(0.98521 0.00051331 3.243e-18)
(1.0311 0.013444 -8.7814e-18)
(0.95793 -0.003773 9.9428e-18)
(0.979 0.047358 2.1778e-18)
(0.99991 9.0245e-05 2.7406e-18)
(0.99995 -0.00018628 -8.8361e-18)
(1 -0.00032176 -1.7783e-18)
(1.0002 -0.00048655 2.4643e-18)
(1.0003 -0.0004838 5.9076e-18)
(1.0005 -0.00035272 1.2427e-17)
(0.99999 -2.3382e-05 4.3813e-17)
(1.0032 0.0010773 2.4332e-18)
(0.98477 0.00032441 5.2854e-18)
(1.0304 0.014134 9.679e-18)
(0.96247 -0.0037545 -8.5024e-18)
(0.97766 0.046022 1.6736e-18)
(0.9999 9.419e-05 -1.5715e-18)
(0.99994 -0.00019474 8.828e-18)
(1 -0.00033448 2.5587e-17)
(1.0002 -0.00050761 -2.483e-17)
(1.0003 -0.00050362 -9.1893e-18)
(1.0005 -0.00037 -2.1865e-18)
(0.99996 -3.2653e-05 -1.4442e-17)
(1.0035 0.0011519 1.8876e-18)
(0.98439 0.00012219 -9.1568e-18)
(1.0296 0.014794 -3.5573e-18)
(0.96677 -0.0036831 -2.3999e-19)
(0.97687 0.044781 -2.0447e-18)
(0.99989 9.8187e-05 -1.689e-18)
(0.99993 -0.00020335 5.284e-18)
(1 -0.00034726 -6.1886e-19)
(1.0002 -0.00052896 8.2336e-18)
(1.0004 -0.00052357 -1.6956e-17)
(1.0005 -0.00038777 2.4741e-17)
(0.99993 -4.307e-05 7.2035e-18)
(1.0039 0.0012302 -1.8008e-17)
(0.98409 -9.1419e-05 -1.1744e-17)
(1.0286 0.015422 -1.4084e-17)
(0.97079 -0.0035639 1.3479e-18)
(0.97655 0.04363 -3.7489e-18)
(0.99989 0.00010224 5.8694e-19)
(0.99993 -0.00021211 -1.2619e-17)
(1 -0.0003601 1.5844e-17)
(1.0002 -0.0005506 2.2772e-17)
(1.0004 -0.00054366 3.3233e-17)
(1.0005 -0.00040606 -1.817e-17)
(0.9999 -5.4661e-05 -1.7909e-17)
(1.0042 0.001312 3.6547e-18)
(0.98385 -0.00031436 1.1004e-17)
(1.0275 0.016016 1.1025e-17)
(0.97454 -0.003402 6.2726e-18)
(0.97661 0.042561 3.7262e-18)
(0.99988 0.00010634 1.1248e-18)
(0.99992 -0.00022101 1.0035e-17)
(1 -0.00037299 -3.6402e-17)
(1.0002 -0.00057256 -3.2996e-18)
(1.0004 -0.00056389 -2.7607e-17)
(1.0006 -0.0004249 -1.1445e-17)
(0.99986 -6.7437e-05 2.5146e-20)
(1.0045 0.001397 -4.1793e-18)
(0.98367 -0.00054452 -2.1688e-17)
(1.0264 0.016572 -1.7602e-17)
(0.97798 -0.0032031 -8.5662e-18)
(0.97698 0.041568 -1.8376e-18)
(0.99987 0.00011051 -7.2905e-19)
(0.99992 -0.00023007 -6.5261e-18)
(1 -0.00038594 2.8641e-17)
(1.0002 -0.00059484 -3.1483e-17)
(1.0004 -0.00058426 -2.0764e-18)
(1.0006 -0.00044432 2.4372e-17)
(0.99982 -8.1401e-05 7.1657e-19)
(1.0048 0.0014848 3.9861e-18)
(0.98356 -0.00077976 1.8985e-17)
(1.0252 0.017088 2.2882e-17)
(0.98114 -0.0029725 4.901e-18)
(0.9776 0.040644 -1.0271e-18)
(0.99986 0.00011472 -1.8979e-18)
(0.99991 -0.00023929 -2.4066e-18)
(1 -0.00039894 -1.2697e-17)
(1.0002 -0.00061746 1.5684e-17)
(1.0004 -0.00060477 3.0341e-17)
(1.0006 -0.00046436 -1.0771e-17)
(0.99978 -9.6544e-05 2.2306e-17)
(1.0051 0.001575 2.9877e-18)
(0.98352 -0.001018 -2.1516e-18)
(1.024 0.017563 1.0351e-17)
(0.984 -0.0027156 -5.4761e-18)
(0.9784 0.039782 -7.1648e-19)
(0.99985 0.000119 4.7466e-19)
(0.9999 -0.00024867 -6.3644e-18)
(1 -0.00041201 4.753e-18)
(1.0002 -0.00064044 -1.5984e-17)
(1.0004 -0.00062541 -3.2093e-17)
(1.0007 -0.00048507 6.7875e-18)
(0.99974 -0.00011284 -3.218e-17)
(1.0054 0.0016672 -6.8297e-18)
(0.98353 -0.0012571 6.9786e-18)
(1.0228 0.017997 -3.2489e-17)
(0.98658 -0.0024376 3.7497e-18)
(0.97934 0.038976 2.0199e-18)
(0.99984 0.00012333 8.3354e-19)
(0.99989 -0.00025822 1.7243e-17)
(1 -0.00042514 7.9583e-18)
(1.0002 -0.00066377 6.511e-18)
(1.0004 -0.00064618 2.5662e-17)
(1.0007 -0.00050647 2.0237e-18)
(0.99969 -0.00013027 2.2221e-17)
(1.0057 0.0017609 4.8991e-18)
(0.98359 -0.0014952 -2.1214e-17)
(1.0216 0.018388 1.1185e-17)
(0.98889 -0.0021433 2.5357e-18)
(0.98038 0.03822 2.0958e-18)
(0.99983 0.00012773 -2.9105e-18)
(0.99989 -0.00026794 -5.6758e-18)
(1 -0.00043834 -6.9921e-18)
(1.0002 -0.00068748 1.0692e-17)
(1.0004 -0.00066709 1.2397e-17)
(1.0008 -0.00052862 -4.0302e-18)
(0.99964 -0.00014878 -1.8666e-17)
(1.006 0.0018557 2.2304e-17)
(0.9837 -0.0017305 3.9268e-18)
(1.0204 0.018736 -3.3789e-18)
(0.99095 -0.0018373 1.0489e-17)
(0.98148 0.037507 -1.4573e-18)
(0.99982 0.00013218 5.9805e-18)
(0.99988 -0.00027784 6.7971e-18)
(1 -0.0004516 -7.4325e-18)
(1.0002 -0.00071159 -6.6605e-18)
(1.0004 -0.00068812 -1.779e-17)
(1.0008 -0.00055157 -6.9218e-18)
(0.99959 -0.00016833 9.2031e-18)
(1.0062 0.001951 -3.5774e-17)
(0.98386 -0.0019614 9.6174e-18)
(1.0193 0.019041 -3.9942e-18)
(0.99279 -0.0015239 -1.1107e-17)
(0.98262 0.036833 4.2347e-18)
(0.99981 0.00013669 -2.6395e-18)
(0.99987 -0.00028791 -1.1942e-17)
(1 -0.00046493 -7.2033e-18)
(1.0002 -0.0007361 -1.2639e-17)
(1.0005 -0.00070927 -5.4316e-18)
(1.0008 -0.00057536 2.0352e-17)
(0.99953 -0.00018886 -9.0408e-18)
(1.0065 0.0020464 3.9796e-17)
(0.98406 -0.0021865 9.0706e-18)
(1.0182 0.019305 1.212e-17)
(0.99441 -0.0012069 4.6817e-18)
(0.98376 0.036193 -6.8693e-18)
(0.9998 0.00014127 -1.4e-18)
(0.99986 -0.00029818 8.8813e-18)
(1 -0.00047833 1.4272e-17)
(1.0002 -0.00076104 3.4078e-17)
(1.0005 -0.00073055 7.1998e-18)
(1.0009 -0.00060004 -1.396e-17)
(0.99947 -0.00021033 4.3628e-18)
(1.0068 0.0021414 -4.2813e-17)
(0.98429 -0.0024046 -1.1003e-17)
(1.0172 0.019528 -6.7391e-18)
(0.99584 -0.00088966 4.5935e-18)
(0.98491 0.035582 6.9105e-18)
(0.99979 0.00014591 1.0714e-18)
(0.99985 -0.00030863 2.1024e-18)
(0.99999 -0.00049181 -1.4016e-17)
(1.0002 -0.00078642 -5.6763e-18)
(1.0005 -0.00075194 9.1416e-18)
(1.0009 -0.00062567 1.6708e-17)
(0.99941 -0.00023267 1.5171e-17)
(1.0071 0.0022355 4.2379e-18)
(0.98455 -0.0026147 1.2311e-17)
(1.0162 0.019711 -3.1226e-18)
(0.99711 -0.00057526 -8.1997e-18)
(0.98603 0.034997 -1.7816e-18)
(0.99977 0.00015061 -4.3879e-20)
(0.99984 -0.00031928 2.396e-18)
(0.99999 -0.00050536 3.1325e-18)
(1.0002 -0.00081225 -7.3688e-18)
(1.0005 -0.00077343 8.505e-20)
(1.001 -0.00065229 -1.5149e-17)
(0.99935 -0.00025584 -1.0262e-17)
(1.0073 0.0023283 3.1351e-17)
(0.98484 -0.0028161 -1.8606e-17)
(1.0153 0.019856 1.2126e-17)
(0.99823 -0.00026624 4.331e-18)
(0.98712 0.034434 -5.038e-18)
(0.99976 0.00015537 -3.3186e-18)
(0.99983 -0.00033012 -1.1238e-17)
(0.99998 -0.00051898 7.9974e-18)
(1.0002 -0.00083856 -2.0125e-17)
(1.0005 -0.00079503 -2.3118e-17)
(1.0011 -0.00067997 -2.0927e-17)
(0.99929 -0.00027979 -2.0915e-17)
(1.0076 0.0024194 -3.2106e-18)
(0.98516 -0.0030081 1.6261e-17)
(1.0144 0.019964 -1.0401e-17)
(0.99921 3.5246e-05 4.3075e-19)
(0.98818 0.03389 4.7467e-18)
(0.99975 0.0001602 6.4053e-18)
(0.99982 -0.00034117 1.1744e-17)
(0.99998 -0.00053269 -1.2897e-17)
(1.0002 -0.00086535 1.6523e-17)
(1.0005 -0.00081672 -2.7109e-18)
(1.0011 -0.00070875 1.3717e-17)
(0.99922 -0.00030449 2.514e-17)
(1.0078 0.0025084 -2.432e-17)
(0.98549 -0.0031906 -8.2463e-18)
(1.0137 0.020038 1.0984e-17)
(1.0001 0.00032743 3.7439e-18)
(0.9892 0.033362 -2.2465e-18)
(0.99974 0.00016509 -4.8062e-18)
(0.99981 -0.00035243 -3.4708e-18)
(0.99997 -0.00054647 -2.6966e-18)
(1.0002 -0.00089266 1.8905e-17)
(1.0005 -0.0008385 -5.8036e-18)
(1.0012 -0.00073869 -1.7382e-19)
(0.99915 -0.00032992 -4.9193e-18)
(1.008 0.0025949 1.948e-17)
(0.98583 -0.0033634 -7.8303e-18)
(1.013 0.02008 -7.5422e-18)
(1.0009 0.00060889 -1.1068e-17)
(0.99018 0.032849 2.6128e-18)
(0.99972 0.00017004 3.267e-18)
(0.9998 -0.00036391 -4.4008e-18)
(0.99996 -0.00056034 6.1735e-18)
(1.0003 -0.00092049 -2.8685e-17)
(1.0005 -0.00086036 3.9319e-17)
(1.0012 -0.00076983 5.6829e-18)
(0.99908 -0.00035606 1.941e-17)
(1.0082 0.0026787 -1.2054e-17)
(0.98619 -0.0035265 1.0317e-19)
(1.0124 0.020092 5.6088e-18)
(1.0016 0.00087859 -2.1541e-18)
(0.99113 0.032349 -9.8291e-19)
(0.99971 0.00017507 -9.346e-19)
(0.99979 -0.0003756 8.6022e-19)
(0.99996 -0.0005743 1.5042e-17)
(1.0003 -0.00094886 7.82e-18)
(1.0005 -0.0008823 -1.9657e-17)
(1.0013 -0.00080222 -1.1131e-17)
(0.99901 -0.00038293 3.3891e-18)
(1.0085 0.0027595 -5.8603e-18)
(0.98656 -0.0036801 1.3101e-17)
(1.0118 0.020076 -3.6819e-18)
(1.0022 0.0011357 1.0364e-17)
(0.99203 0.031859 -3.5908e-18)
(0.99969 0.00018015 -1.6268e-18)
(0.99977 -0.00038751 -8.2922e-18)
(0.99995 -0.00058834 -4.4723e-18)
(1.0003 -0.0009778 3.1402e-17)
(1.0005 -0.00090431 -1.7512e-17)
(1.0014 -0.00083589 -9.4284e-19)
(0.99894 -0.00041056 -5.0683e-17)
(1.0087 0.0028372 5.7604e-18)
(0.98693 -0.0038245 -2.45e-17)
(1.0113 0.020034 -7.9511e-18)
(1.0028 0.0013799 -1.0366e-17)
(0.99289 0.031379 2.1323e-18)
(0.99968 0.0001853 -7.0228e-19)
(0.99976 -0.00039966 5.1374e-18)
(0.99994 -0.00060248 -1.8461e-18)
(1.0003 -0.0010073 -1.8284e-17)
(1.0005 -0.00092638 2.5166e-17)
(1.0014 -0.00087087 -2.3176e-18)
(0.99886 -0.00043901 2.6847e-17)
(1.0089 0.0029114 -3.5412e-18)
(0.98732 -0.0039603 1.1895e-17)
(1.0109 0.019968 9.9445e-18)
(1.0033 0.0016107 8.5509e-18)
(0.99371 0.030908 -5.1625e-19)
(0.99966 0.00019052 3.981e-18)
(0.99975 -0.00041204 -3.0737e-18)
(0.99993 -0.00061671 -6.4583e-18)
(1.0003 -0.0010374 1.9956e-17)
(1.0005 -0.00094852 1.8467e-18)
(1.0015 -0.0009072 2.8733e-17)
(0.99879 -0.00046835 4.6312e-18)
(1.0091 0.0029821 1.6919e-17)
(0.9877 -0.0040878 4.4628e-18)
(1.0105 0.019881 -3.2176e-18)
(1.0038 0.0018282 1.113e-18)
(0.99451 0.030444 4.6702e-19)
(0.99965 0.00019579 1.1351e-18)
(0.99974 -0.00042465 1.2568e-18)
(0.99992 -0.00063103 -5.8562e-18)
(1.0003 -0.0010682 -3.9741e-17)
(1.0005 -0.00097073 5.5927e-18)
(1.0016 -0.00094489 2.4921e-18)
(0.99871 -0.00049868 -2.0081e-17)
(1.0093 0.0030492 2.3804e-19)
(0.98809 -0.0042076 1.315e-17)
(1.0102 0.019774 -2.0686e-18)
(1.0043 0.0020324 -5.4181e-18)
(0.99526 0.029988 2.7554e-18)
(0.99963 0.00020114 -4.8608e-18)
(0.99972 -0.00043751 5.3267e-18)
(0.99991 -0.00064546 9.6544e-19)
(1.0003 -0.0010996 2.2068e-17)
(1.0005 -0.000993 -2.5513e-17)
(1.0017 -0.00098395 -1.1007e-17)
(0.99864 -0.00053013 2.0539e-17)
(1.0094 0.0031124 -1.146e-17)
(0.98848 -0.0043205 -2.0787e-17)
(1.0099 0.01965 -1.0222e-17)
(1.0047 0.0022236 6.9012e-18)
(0.99599 0.029538 9.1963e-19)
(0.99961 0.00020654 -5.1435e-19)
(0.99971 -0.00045062 -5.3601e-18)
(0.9999 -0.00065999 1.0282e-17)
(1.0003 -0.0011316 9.7849e-18)
(1.0005 -0.0010153 3.151e-17)
(1.0017 -0.0010244 4.2285e-18)
(0.99856 -0.00056284 1.8243e-17)
(1.0096 0.0031719 2.9054e-17)
(0.98887 -0.0044269 -9.1797e-19)
(1.0097 0.01951 1.798e-17)
(1.0052 0.0024021 -7.3005e-19)
(0.99669 0.029095 -2.682e-18)
(0.9996 0.00021201 4.9853e-18)
(0.99969 -0.00046398 -7.8038e-18)
(0.99989 -0.00067463 -1.5606e-17)
(1.0003 -0.0011644 -2.6007e-18)
(1.0005 -0.0010378 -3.4199e-17)
(1.0018 -0.0010662 -1.2581e-17)
(0.99849 -0.000597 -6.3322e-18)
(1.0098 0.0032273 2.1724e-19)
(0.98927 -0.0045274 2.7051e-17)
(1.0095 0.019357 4.1435e-18)
(1.0056 0.0025683 -9.4743e-18)
(0.99737 0.028657 1.6096e-18)
(0.99958 0.00021754 -5.5891e-18)
(0.99968 -0.0004776 9.7483e-18)
(0.99988 -0.00068939 8.1689e-18)
(1.0003 -0.0011978 -5.1824e-18)
(1.0005 -0.0010603 2.7503e-17)
(1.0019 -0.0011093 1.5052e-17)
(0.99841 -0.00063279 -5.0055e-18)
(1.0099 0.0032788 -2.9279e-17)
(0.98966 -0.0046228 -9.1986e-19)
(1.0094 0.019191 -1.184e-17)
(1.006 0.0027227 1.1217e-17)
(0.99802 0.028225 -2.1081e-18)
(0.99956 0.00022314 3.3584e-18)
(0.99966 -0.00049148 -1.8654e-18)
(0.99987 -0.00070426 1.0816e-17)
(1.0003 -0.001232 -2.1804e-17)
(1.0005 -0.0010829 8.9801e-18)
(1.002 -0.0011537 -5.4071e-18)
(0.99834 -0.00067042 -1.0785e-17)
(1.0101 0.0033263 -2.3501e-18)
(0.99006 -0.0047135 -3.2643e-17)
(1.0092 0.019014 7.8118e-18)
(1.0064 0.0028657 -1.0273e-17)
(0.99865 0.027798 7.0365e-19)
(0.99954 0.00022879 2.6553e-19)
(0.99965 -0.00050562 -5.8682e-18)
(0.99985 -0.00071925 6.1421e-18)
(1.0003 -0.0012669 2.8697e-17)
(1.0005 -0.0011057 -2.1389e-17)
(1.0021 -0.0011994 1.7394e-17)
(0.99827 -0.00071013 -6.2363e-18)
(1.0102 0.0033696 5.4424e-18)
(0.99045 -0.0048001 3.8781e-17)
(1.0091 0.018827 -1.4502e-17)
(1.0067 0.002998 1.5704e-17)
(0.99926 0.027376 1.9912e-18)
(0.99952 0.00023449 4.7658e-19)
(0.99963 -0.00052004 -1.2145e-18)
(0.99984 -0.00073437 -8.8364e-18)
(1.0003 -0.0013026 -4.3202e-18)
(1.0005 -0.0011287 1.8641e-17)
(1.0022 -0.0012463 1.3851e-19)
(0.9982 -0.00075215 -1.2258e-17)
(1.0104 0.0034087 -1.2992e-17)
(0.99084 -0.004883 -1.6233e-17)
(1.0091 0.018633 -1.3693e-18)
(1.0071 0.0031199 2.8774e-18)
(0.99985 0.02696 2.0925e-19)
(0.9995 0.00024026 -7.6692e-19)
(0.99962 -0.00053474 1.4452e-17)
(0.99983 -0.00074963 -5.8936e-18)
(1.0003 -0.001339 -2.4414e-17)
(1.0005 -0.0011518 8.5935e-18)
(1.0023 -0.0012943 -4.4316e-17)
(0.99813 -0.00079674 6.1148e-18)
(1.0105 0.0034435 8.1808e-18)
(0.99124 -0.0049626 7.5409e-19)
(1.009 0.018431 1.4729e-17)
(1.0075 0.0032321 -9.5904e-19)
(1.0004 0.026548 -5.5655e-18)
(0.99948 0.00024607 -2.0248e-19)
(0.9996 -0.00054971 -2.8362e-19)
(0.99981 -0.00076503 7.9338e-18)
(1.0003 -0.0013762 1.5073e-17)
(1.0005 -0.0011752 -3.4146e-17)
(1.0024 -0.0013434 1.9143e-18)
(0.99807 -0.00084415 1.0952e-17)
(1.0107 0.0034741 1.2812e-17)
(0.99163 -0.0050395 -1.0265e-17)
(1.009 0.018222 -1.4342e-17)
(1.0078 0.0033349 -1.5584e-17)
(1.001 0.026142 5.8785e-18)
(0.99946 0.00025194 -1.3249e-18)
(0.99958 -0.00056497 4.0389e-19)
(0.9998 -0.00078057 -3.8254e-18)
(1.0003 -0.0014143 -1.0064e-17)
(1.0005 -0.0011989 1.8928e-17)
(1.0025 -0.0013936 2.3788e-17)
(0.99801 -0.00089464 3.1941e-18)
(1.0108 0.0035003 6.4924e-18)
(0.99202 -0.0051138 1.6372e-17)
(1.009 0.018009 2.4136e-18)
(1.0082 0.0034288 1.1524e-17)
(1.0015 0.02574 -3.5685e-18)
(0.99944 0.00025786 2.4386e-18)
(0.99956 -0.00058051 7.4464e-19)
(0.99978 -0.00079628 -5.4667e-18)
(1.0003 -0.0014531 1.4868e-18)
(1.0005 -0.001223 -1.0262e-17)
(1.0026 -0.0014447 -5.7059e-18)
(0.99795 -0.00094847 -1.1806e-18)
(1.0109 0.003522 -2.9317e-17)
(0.99241 -0.0051859 3.2132e-18)
(1.0089 0.017791 -4.8945e-18)
(1.0085 0.0035143 -4.6869e-18)
(1.0021 0.025343 -4.3028e-18)
(0.99942 0.00026382 -4.9766e-18)
(0.99955 -0.00059635 9.7286e-19)
(0.99977 -0.00081216 2.8997e-18)
(1.0003 -0.0014928 -1.8682e-17)
(1.0004 -0.0012475 -1.1699e-17)
(1.0027 -0.0014967 -2.649e-17)
(0.9979 -0.0010059 5.6973e-18)
(1.011 0.0035392 1.1971e-17)
(0.9928 -0.0052559 -3.446e-17)
(1.0089 0.017569 2.2569e-17)
(1.0089 0.0035917 -5.07e-18)
(1.0026 0.02495 2.7745e-18)
(0.9994 0.00026983 4.5683e-18)
(0.99953 -0.00061249 2.1771e-18)
(0.99975 -0.00082821 1.1151e-18)
(1.0003 -0.0015334 5.9251e-18)
(1.0004 -0.0012725 -2.5839e-18)
(1.0028 -0.0015494 5.1343e-17)
(0.99785 -0.0010671 2.0455e-17)
(1.0111 0.0035519 -1.8619e-17)
(0.99318 -0.0053242 3.3165e-17)
(1.009 0.017343 -8.4203e-18)
(1.0092 0.0036615 -3.3447e-18)
(1.0031 0.024563 -1.3849e-18)
(0.99937 0.00027587 1.1205e-18)
(0.99951 -0.00062892 -1.3786e-17)
(0.99974 -0.00084446 2.2318e-18)
(1.0003 -0.0015748 2.6609e-17)
(1.0004 -0.0012981 1.9998e-17)
(1.0029 -0.0016029 -8.2872e-19)
(0.99781 -0.0011324 -2.8338e-17)
(1.0112 0.00356 5.638e-18)
(0.99357 -0.0053907 -7.4792e-18)
(1.009 0.017115 -1.1655e-17)
(1.0095 0.0037239 8.5083e-18)
(1.0036 0.024179 1.2906e-18)
(0.99935 0.00028195 -4.4319e-18)
(0.99949 -0.00064566 -4.596e-18)
(0.99972 -0.00086092 -1.209e-17)
(1.0003 -0.0016171 -2.2316e-17)
(1.0004 -0.0013244 -2.0122e-17)
(1.003 -0.001657 -2.3332e-17)
(0.99777 -0.0012019 5.2329e-18)
(1.0113 0.0035633 4.3828e-17)
(0.99395 -0.0054558 3.2594e-18)
(1.009 0.016884 -1.0184e-18)
(1.0098 0.0037792 -3.0043e-18)
(1.004 0.023801 -3.4699e-18)
(0.99933 0.00028805 3.2887e-18)
(0.99947 -0.0006627 4.2694e-18)
(0.9997 -0.0008776 1.863e-17)
(1.0003 -0.0016602 1.5456e-17)
(1.0004 -0.0013515 1.9576e-17)
(1.0031 -0.0017117 -8.6721e-19)
(0.99774 -0.0012758 -2.9157e-17)
(1.0114 0.003562 -2.369e-17)
(0.99433 -0.0055194 8.0886e-18)
(1.009 0.016652 4.0342e-18)
(1.0102 0.0038278 6.7759e-18)
(1.0045 0.023426 2.6811e-18)
(0.9993 0.00029419 -2.3225e-18)
(0.99945 -0.00068006 6.6975e-18)
(0.99968 -0.00089452 -1.2326e-17)
(1.0004 -0.0017042 2.237e-18)
(1.0003 -0.0013795 9.1014e-18)
(1.0032 -0.001767 -2.2809e-18)
(0.99771 -0.0013543 6.5463e-18)
(1.0115 0.003556 6.5782e-18)
(0.99471 -0.0055816 2.6618e-18)
(1.0091 0.016417 9.9741e-18)
(1.0105 0.0038699 -8.1496e-18)
(1.005 0.023056 5.4144e-19)
(0.99928 0.00030034 3.5066e-18)
(0.99943 -0.00069772 4.1508e-19)
(0.99966 -0.00091171 -5.7698e-18)
(1.0004 -0.0017491 8.9039e-19)
(1.0003 -0.0014085 -1.4957e-18)
(1.0033 -0.0018227 -2.2532e-17)
(0.99769 -0.0014374 1.8278e-17)
(1.0116 0.0035452 2.3346e-17)
(0.99508 -0.0056424 -1.3253e-17)
(1.0091 0.016181 -1.388e-17)
(1.0108 0.0039057 -2.3832e-18)
(1.0054 0.02269 4.6135e-18)
(0.99925 0.0003065 -2.5473e-18)
(0.9994 -0.00071571 -3.1969e-19)
(0.99964 -0.00092917 7.1738e-18)
(1.0004 -0.0017949 -1.7103e-17)
(1.0003 -0.0014386 -1.352e-17)
(1.0034 -0.001879 2.8447e-17)
(0.99767 -0.0015253 -2.7952e-18)
(1.0116 0.0035298 -2.472e-17)
(0.99546 -0.005702 3.3762e-18)
(1.0092 0.015944 1.3068e-17)
(1.0111 0.0039353 8.0778e-18)
(1.0059 0.022328 -1.6636e-18)
(0.99922 0.00031268 2.5312e-19)
(0.99938 -0.00073401 2.3415e-18)
(0.99962 -0.00094695 3.9197e-18)
(1.0004 -0.0018415 8.8416e-18)
(1.0003 -0.00147 2.6499e-17)
(1.0035 -0.0019356 6.6325e-18)
(0.99766 -0.0016179 -2.4338e-17)
(1.0117 0.0035096 2.3163e-18)
(0.99583 -0.0057604 8.6967e-18)
(1.0092 0.015706 -1.1775e-17)
(1.0114 0.0039591 -5.4625e-18)
(1.0063 0.02197 -1.925e-18)
(0.99919 0.00031886 7.187e-19)
(0.99936 -0.00075263 -4.0731e-19)
(0.99959 -0.00096505 -1.0342e-17)
(1.0004 -0.0018891 -1.9013e-19)
(1.0002 -0.0015028 -5.2392e-17)
(1.0036 -0.0019928 8.1778e-18)
(0.99766 -0.0017154 2.3908e-17)
(1.0118 0.0034848 -6.6552e-18)
(0.9962 -0.0058175 -9.1073e-18)
(1.0093 0.015466 1.9555e-17)
(1.0117 0.003977 6.5378e-18)
(1.0067 0.021616 4.9899e-18)
(0.99917 0.00032503 7.7202e-19)
(0.99934 -0.00077159 -8.452e-19)
(0.99957 -0.00098352 1.8704e-17)
(1.0004 -0.0019375 4.078e-18)
(1.0002 -0.0015372 4.6428e-17)
(1.0037 -0.0020503 -2.8821e-17)
(0.99767 -0.0018177 -8.006e-18)
(1.0118 0.0034554 6.2638e-18)
(0.99656 -0.0058734 3.1378e-18)
(1.0093 0.015226 -1.1003e-17)
(1.012 0.0039894 -1.0578e-18)
(1.0071 0.021266 -3.6796e-18)
(0.99914 0.00033119 -3.0171e-18)
(0.99931 -0.00079087 1.419e-18)
(0.99955 -0.0010024 -1.0993e-17)
(1.0004 -0.0019868 5.3623e-18)
(1.0002 -0.0015732 -1.7641e-17)
(1.0038 -0.0021084 3.9085e-18)
(0.99768 -0.0019247 3.2056e-17)
(1.0119 0.0034216 -2.3444e-17)
(0.99692 -0.0059281 -1.1533e-17)
(1.0094 0.014985 -1.0886e-17)
(1.0122 0.0039963 -5.2001e-18)
(1.0075 0.02092 -1.0106e-18)
(0.99911 0.00033732 3.7582e-18)
(0.99929 -0.00081048 -3.3702e-18)
(0.99952 -0.0010217 -1.0668e-17)
(1.0004 -0.002037 -8.5508e-18)
(1.0002 -0.0016111 -2.8842e-17)
(1.0039 -0.002167 -1.8129e-17)
(0.99769 -0.0020364 -1.9655e-17)
(1.0119 0.0033833 2.1798e-17)
(0.99728 -0.0059817 1.1181e-17)
(1.0094 0.014744 1.6486e-17)
(1.0125 0.0039978 -2.0366e-18)
(1.0079 0.020577 4.8787e-18)
(0.99908 0.00034343 -6.0401e-18)
(0.99926 -0.00083043 5.4606e-18)
(0.99949 -0.0010414 2.6121e-17)
(1.0004 -0.0020881 -2.0169e-18)
(1.0001 -0.0016509 3.191e-17)
(1.004 -0.0022261 1.3668e-18)
(0.99771 -0.0021526 -1.8825e-17)
(1.012 0.0033407 8.531e-18)
(0.99763 -0.0060342 -4.0321e-18)
(1.0095 0.014502 -3.452e-18)
(1.0128 0.0039941 6.607e-18)
(1.0083 0.020237 -3.2992e-18)
(0.99905 0.0003495 4.9498e-18)
(0.99924 -0.00085071 -7.4212e-18)
(0.99947 -0.0010617 -3.0455e-17)
(1.0004 -0.0021401 1.3194e-17)
(1.0001 -0.0016928 -2.2734e-17)
(1.0041 -0.0022859 2.506e-17)
(0.99774 -0.0022731 6.1359e-18)
(1.0121 0.0032939 -8.1213e-18)
(0.99798 -0.0060855 -1.9352e-18)
(1.0095 0.014259 -8.6468e-18)
(1.013 0.0039852 -1.0774e-17)
(1.0087 0.019902 4.5614e-18)
(0.99901 0.00035553 -3.6459e-18)
(0.99921 -0.00087135 2.4677e-18)
(0.99944 -0.0010825 1.8505e-17)
(1.0004 -0.0021929 -1.7393e-17)
(1.0001 -0.0017371 3.6578e-17)
(1.0042 -0.0023464 -1.9451e-17)
(0.99778 -0.0023978 3.5769e-18)
(1.0121 0.0032431 -1.2835e-17)
(0.99833 -0.0061359 6.3165e-18)
(1.0096 0.014016 -1.2102e-18)
(1.0133 0.0039713 4.6111e-18)
(1.009 0.019569 -2.0281e-18)
(0.99898 0.0003615 4.4716e-18)
(0.99918 -0.00089233 1.9212e-18)
(0.99941 -0.0011039 -1.2337e-17)
(1.0004 -0.0022467 -3.5367e-19)
(1 -0.0017837 -1.6152e-18)
(1.0043 -0.0024077 4.7039e-18)
(0.99781 -0.0025265 3.3964e-17)
(1.0121 0.0031884 8.7798e-18)
(0.99867 -0.0061852 -1.8722e-17)
(1.0097 0.013772 -6.2722e-18)
(1.0135 0.0039523 -4.3398e-18)
(1.0094 0.019239 2.132e-18)
(0.99895 0.0003674 -5.1254e-18)
(0.99915 -0.00091366 -7.1194e-18)
(0.99938 -0.0011259 5.1759e-18)
(1.0004 -0.0023014 1.5049e-17)
(1 -0.0018328 -3.318e-17)