/*--------------------------------*- C++ -*----------------------------------*\
  =========                 |
  \\      /  F ield         | OpenFOAM: The Open Source CFD Toolbox
   \\    /   O peration     | Website:  https://openfoam.org
    \\  /    A nd           | Version:  6.0
     \\/     M anipulation  |
\*---------------------------------------------------------------------------*/
FoamFile
{
    version     2.0;
    format      ascii;
    class       surfaceScalarField;
    location    "10";
    object      phi;
}
// * * * * * * * * * * * * * * * * * * * * * * * * * * * * * * * * * * * * * //

dimensions      [0 3 -1 0 0 0 0];

internalField   nonuniform List<scalar> 
9714
(
-0.000106988
8.23619e-05
0.000113112
-9.86072e-05
0.000114488
-8.69146e-05
0.000159152
-7.06874e-05
0.000221255
-4.79369e-05
0.000307536
-1.60796e-05
0.00042735
2.87754e-05
0.000593491
9.18105e-05
0.000823276
0.000180079
0.00113894
0.000302738
0.00156609
0.000470474
0.00212526
0.000693187
0.0028038
0.000970949
0.00347686
0.00127052
0.00370666
0.00232712
0.00144378
-0.000100958
7.67889e-05
0.000106559
-9.32136e-05
0.000106737
-8.2394e-05
0.000148358
-6.7361e-05
0.00020621
-4.62986e-05
0.000286492
-1.67826e-05
0.00039783
2.47275e-05
0.000551966
8.30736e-05
0.000764927
0.0001648
0.00105725
0.000278365
0.00145253
0.00043376
0.00196985
0.000640159
0.00259733
0.000897589
0.00321942
0.00117293
0.00343116
0.00216053
0.00133834
-9.48816e-05
7.16454e-05
0.000100157
-8.77181e-05
9.95842e-05
-7.77053e-05
0.000138398
-6.3825e-05
0.000192324
-4.43672e-05
0.000267058
-1.70897e-05
0.000370551
2.12885e-05
0.000513574
7.52667e-05
0.000710958
0.000150877
0.000981655
0.000256006
0.00134745
0.0003999
0.00182592
0.000591121
0.00240597
0.00082982
0.00298055
0.00108549
0.00317534
0.00200198
0.00124496
-8.92037e-05
6.68702e-05
9.39644e-05
-8.25998e-05
9.29447e-05
-7.33361e-05
0.000129154
-6.04789e-05
0.000179446
-4.24547e-05
0.000249052
-1.71972e-05
0.000345295
1.83188e-05
0.000478047
6.82585e-05
0.000661019
0.000138245
0.00091171
0.000235539
0.00125015
0.000368776
0.00169267
0.000545911
0.00222879
0.000767296
0.00275922
0.00100498
0.00293764
0.00185018
0.00115598
-8.36932e-05
6.2464e-05
8.8235e-05
-7.75739e-05
8.68244e-05
-6.89984e-05
0.000120637
-5.71372e-05
0.000167575
-4.04994e-05
0.000232439
-1.71714e-05
0.000321971
1.5658e-05
0.000445207
6.18602e-05
0.000614827
0.000126609
0.000846971
0.000216684
0.00116013
0.000340039
0.00156928
0.000504118
0.00206458
0.000709383
0.00255383
0.000930082
0.00271694
0.00171046
0.00107102
-7.89286e-05
5.83576e-05
8.30024e-05
-7.32807e-05
8.11229e-05
-6.53306e-05
0.00011271
-5.43251e-05
0.000156541
-3.88905e-05
0.00021702
-1.72703e-05
0.000300353
1.31309e-05
0.000414795
5.58919e-05
0.000572064
0.000115846
0.000787057
0.000199224
0.00107675
0.000313453
0.00145505
0.000465451
0.00191255
0.00065572
0.00236365
0.000860469
0.0025122
0.00157899
0.000991246
-7.44752e-05
5.456e-05
7.83987e-05
-6.92273e-05
7.58543e-05
-6.18475e-05
0.000105388
-5.16739e-05
0.000146346
-3.73988e-05
0.000202765
-1.7397e-05
0.000280352
1.07394e-05
0.000386645
5.03386e-05
0.000532472
0.000105842
0.000731561
0.000183073
0.000999571
0.000288866
0.00134922
0.000429688
0.00177161
0.000606015
0.00218724
0.000795849
0.00232242
0.00145893
0.000917204
-7.07012e-05
5.10093e-05
7.42034e-05
-6.58453e-05
7.09271e-05
-5.89854e-05
9.85447e-05
-4.95115e-05
0.000136834
-3.62283e-05
0.000189492
-1.76431e-05
0.000261769
8.45722e-06
0.000360533
4.51497e-05
0.000495776
9.65865e-05
0.000680162
0.000168115
0.000928041
0.000266122
0.0012512
0.000396608
0.00164109
0.000560019
0.00202393
0.000735981
0.00214647
0.00134557
0.000848702
-6.69867e-05
4.77336e-05
7.04205e-05
-6.24653e-05
6.63822e-05
-5.60773e-05
9.2232e-05
-4.73151e-05
0.000128052
-3.50184e-05
0.000177223
-1.7813e-05
0.00024457
6.36098e-06
0.000336347
4.03642e-05
0.000461778
8.80101e-05
0.000632522
0.000154298
0.000861799
0.000245095
0.00116035
0.000366013
0.00152005
0.000517455
0.00187243
0.000680524
0.0019835
0.00124197
0.000785306
-6.37441e-05
4.46723e-05
6.67942e-05
-5.95636e-05
6.21308e-05
-5.36255e-05
8.63287e-05
-4.54612e-05
0.00011985
-3.40106e-05
0.000165788
-1.80123e-05
0.000228576
4.42602e-06
0.000313896
3.59472e-05
0.00043025
8.01196e-05
0.000588382
0.000141527
0.000800381
0.000225661
0.00107621
0.000337722
0.00140798
0.000478092
0.00173219
0.000629192
0.00183237
0.00114419
0.000726507
-6.04048e-05
4.18539e-05
6.33815e-05
-5.65225e-05
5.8216e-05
-5.10096e-05
8.08887e-05
-4.34671e-05
0.000112282
-3.28752e-05
0.000155219
-1.80668e-05
0.00021377
2.71814e-06
0.000293095
3.19332e-05
0.000401032
7.28511e-05
0.000547461
0.000129768
0.000743504
0.000207717
0.000998199
0.00031157
0.00130401
0.000441679
0.00160202
0.000581665
0.00169251
0.00105462
0.000671987
-5.73976e-05
3.92244e-05
6.00207e-05
-5.38197e-05
5.45603e-05
-4.87098e-05
7.58094e-05
-4.16945e-05
0.000105223
-3.1844e-05
0.000145378
-1.80835e-05
0.000200009
1.20193e-06
0.000273788
2.82783e-05
0.000373938
6.62102e-05
0.000509549
0.000118928
0.00069076
0.000191156
0.000925958
0.000287405
0.00120776
0.000408024
0.00148156
0.000537691
0.00156273
0.000970495
0.000621442
-5.43017e-05
3.6805e-05
5.68205e-05
-5.09942e-05
5.11955e-05
-4.62647e-05
7.11297e-05
-3.97893e-05
9.8709e-05
-3.06813e-05
0.000136281
-1.79475e-05
0.00018727
-8.74012e-08
0.000255902
2.49993e-05
0.000348833
6.01236e-05
0.0004744
0.000108982
0.000641935
0.000175889
0.000858981
0.000265088
0.00111845
0.000376912
0.00136971
0.000497013
0.00144271
0.000892965
0.000574622
-5.15073e-05
3.45459e-05
5.37091e-05
-4.84608e-05
4.80515e-05
-4.40758e-05
6.67586e-05
-3.80503e-05
9.26334e-05
-2.95835e-05
0.000127813
-1.77565e-05
0.000175435
-1.19772e-06
0.000239308
2.20351e-05
0.000325554
5.46005e-05
0.000441859
9.98341e-05
0.000596675
0.000161817
0.00079699
0.000244491
0.00103581
0.000348187
0.00126618
0.000459391
0.0013313
0.000820765
0.000531277
-4.86095e-05
3.24747e-05
5.08149e-05
-4.57728e-05
4.51698e-05
-4.17016e-05
6.27488e-05
-3.61585e-05
8.70474e-05
-2.83487e-05
0.000120007
-1.74305e-05
0.0001645
-2.12666e-06
0.000223947
1.94201e-05
0.00030402
4.95552e-05
0.000411713
9.14576e-05
0.000554802
0.000148861
0.00073952
0.000225488
0.000959082
0.00032166
0.00116997
0.000424622
0.0012282
0.000753382
0.000491172
-4.60478e-05
3.05343e-05
4.79614e-05
-4.34368e-05
4.24691e-05
-3.96616e-05
5.89948e-05
-3.44958e-05
8.18308e-05
-2.72356e-05
0.000112739
-1.7114e-05
0.000154345
-2.87494e-06
0.000209727
1.70572e-05
0.000284065
4.49791e-05
0.000383824
8.37577e-05
0.000516013
0.000136926
0.000686339
0.00020797
0.000888091
0.000297197
0.00108091
0.000392487
0.00113262
0.000691477
0.000454118
-4.33607e-05
2.87615e-05
4.53075e-05
-4.09411e-05
4.0003e-05
-3.74519e-05
5.55635e-05
-3.27047e-05
7.70503e-05
-2.60326e-05
0.000106057
-1.66453e-05
0.000144987
-3.51901e-06
0.000196567
1.49633e-05
0.000265618
4.08006e-05
0.000357997
7.67002e-05
0.000480093
0.000125946
0.000637007
0.000191828
0.000822106
0.000274635
0.000998029
0.000362821
0.00104409
0.000633128
0.00041988
-4.10719e-05
2.70978e-05
4.27367e-05
-3.88529e-05
3.76873e-05
-3.56123e-05
5.23448e-05
-3.11924e-05
7.25766e-05
-2.4968e-05
9.98227e-05
-1.62827e-05
0.000136273
-4.04843e-06
0.000184371
1.30593e-05
0.000248503
3.69837e-05
0.000334066
7.02166e-05
0.000446824
0.000115843
0.000591358
0.000176968
0.000761059
0.000253856
0.00092133
0.00033542
0.000962272
0.000580185
0.000388286
-3.87554e-05
2.55706e-05
4.03912e-05
-3.67003e-05
3.55609e-05
-3.3704e-05
4.93855e-05
-2.96265e-05
6.84543e-05
-2.38877e-05
9.40648e-05
-1.58052e-05
0.000128218
-4.5149e-06
0.000173052
1.13537e-05
0.000232658
3.35072e-05
0.000311906
6.42818e-05
0.000416001
0.000106561
0.000548973
0.000163299
0.000704185
0.000234719
0.00084977
0.000310146
0.000886202
0.000529407
0.0003591
-3.67192e-05
2.41335e-05
3.81025e-05
-3.48322e-05
3.3559e-05
-3.20403e-05
4.66037e-05
-2.82361e-05
6.4591e-05
-2.28761e-05
8.86886e-05
-1.53987e-05
0.000120714
-4.87165e-06
0.000162567
9.81694e-06
0.000217956
3.03355e-05
0.000291368
5.88353e-05
0.000387453
9.80298e-05
0.000509752
0.000150743
0.000651579
0.000217116
0.000783588
0.000286818
0.000816309
0.000484165
0.000332185
-3.45808e-05
2.28229e-05
3.60115e-05
-3.28273e-05
3.17341e-05
-3.02495e-05
4.40636e-05
-2.67525e-05
6.10509e-05
-2.18262e-05
8.37419e-05
-1.48787e-05
0.000113793
-5.17928e-06
0.000152841
8.44907e-06
0.000204353
2.74547e-05
0.000272349
5.38577e-05
0.000360986
9.02092e-05
0.000473275
0.000139219
0.000602427
0.000200929
0.000721677
0.000265314
0.000751094
0.000440351
0.000307318
-3.27705e-05
2.1586e-05
3.39699e-05
-3.11616e-05
3.00112e-05
-2.87551e-05
4.16706e-05
-2.54879e-05
5.77278e-05
-2.08826e-05
7.9118e-05
-1.44542e-05
0.000107339
-5.40003e-06
0.00014383
7.21772e-06
0.00019172
2.48277e-05
0.000254714
4.92948e-05
0.00033647
8.30357e-05
0.000439525
0.000128662
0.000556961
0.000186053
0.000664501
0.000245474
0.000691611
0.000401882
0.000284368
-3.09168e-05
2.04525e-05
3.21196e-05
-2.94258e-05
2.84315e-05
-2.72028e-05
3.94718e-05
-2.41869e-05
5.46652e-05
-1.99389e-05
7.48435e-05
-1.39474e-05
0.000101369
-5.59268e-06
0.000135453
6.1276e-06
0.000180026
2.24507e-05
0.000238375
4.51356e-05
0.000313712
7.64793e-05
0.00040805
0.000119007
0.000514239
0.000172388
0.000610871
0.000227198
0.000635853
0.000364301
0.000263152
-2.93143e-05
1.93807e-05
3.03246e-05
-2.79407e-05
2.69375e-05
-2.58592e-05
3.73975e-05
-2.30346e-05
5.17873e-05
-1.90586e-05
7.08448e-05
-1.3507e-05
9.57975e-05
-5.70186e-06
0.00012769
5.15268e-06
0.00016915
2.02882e-05
0.000223214
4.13302e-05
0.000292626
7.04815e-05
0.000378915
0.000110201
0.000474755
0.000159838
0.000561427
0.000210339
0.000585395
0.000331683
0.000243543
-2.76513e-05
1.84024e-05
2.87079e-05
-2.63679e-05
2.55734e-05
-2.44439e-05
3.54988e-05
-2.1838e-05
4.91416e-05
-1.81699e-05
6.71527e-05
-1.29979e-05
9.06428e-05
-5.79634e-06
0.000120462
4.30239e-06
0.000159082
1.83425e-05
0.000209155
3.78754e-05
0.000273013
6.50274e-05
0.000351595
0.000102175
0.00043741
0.000148316
0.000514987
0.000194817
0.000537883
0.000299374
0.000225408
-2.62249e-05
1.74743e-05
2.71199e-05
-2.50382e-05
2.42796e-05
-2.32343e-05
3.37036e-05
-2.07872e-05
4.66518e-05
-1.73515e-05
6.3694e-05
-1.25559e-05
8.58249e-05
-5.81229e-06
0.000113759
3.54778e-06
0.000149697
1.6581e-05
0.000196096
3.4722e-05
0.000254833
6.0069e-05
0.000326333
9.48903e-05
0.000402916
0.000137727
0.000472301
0.000180494
0.000495217
0.000271739
0.000208622
-2.47565e-05
1.66281e-05
2.56888e-05
-2.3654e-05
2.30981e-05
-2.19876e-05
3.2057e-05
-1.97262e-05
4.43543e-05
-1.65462e-05
6.04863e-05
-1.20601e-05
8.13506e-05
-5.82146e-06
0.000107496
2.90909e-06
0.000140998
1.50147e-05
0.000183964
3.18863e-05
0.000237866
5.55958e-05
0.000302395
8.82765e-05
0.000369963
0.000127996
0.000432224
0.000167318
0.000454887
0.000244377
0.000193102
-2.35433e-05
1.58121e-05
2.42719e-05
-2.2522e-05
2.19581e-05
-2.09479e-05
3.04771e-05
-1.87994e-05
4.21682e-05
-1.57952e-05
5.74597e-05
-1.16113e-05
7.71488e-05
-5.74846e-06
0.000101671
2.35639e-06
0.000132854
1.36128e-05
0.000172676
2.93144e-05
0.000222123
5.15728e-05
0.000280303
8.23048e-05
0.000339642
0.000119037
0.000395533
0.000155153
0.000418902
0.000220995
0.000178726
-2.22184e-05
1.50741e-05
2.30358e-05
-2.12497e-05
2.09258e-05
-1.97909e-05
2.90376e-05
-1.78006e-05
4.01588e-05
-1.50153e-05
5.46552e-05
-1.10973e-05
7.32397e-05
-5.66655e-06
9.62044e-05
1.92118e-06
0.000125295
1.23933e-05
0.000162145
2.70426e-05
0.000207329
4.79857e-05
0.000259089
7.68918e-05
0.000310427
0.000110784
0.00036118
0.000143975
0.000384589
0.000197598
0.000165445
-2.11044e-05
1.43629e-05
2.17948e-05
-2.01911e-05
1.99321e-05
-1.88078e-05
2.76599e-05
-1.69168e-05
3.82495e-05
-1.42861e-05
5.20061e-05
-1.06277e-05
6.95548e-05
-5.49972e-06
9.11014e-05
1.55866e-06
0.00011816
1.13255e-05
0.000152323
2.50175e-05
0.000193619
4.48056e-05
0.000239589
7.20074e-05
0.000283727
0.000103153
0.000329927
0.000133648
0.000354159
0.000177535
0.000153136
-1.99394e-05
1.37133e-05
2.06905e-05
-1.90718e-05
1.90219e-05
-1.77847e-05
2.63897e-05
-1.60239e-05
3.6474e-05
-1.35671e-05
4.95257e-05
-1.01145e-05
6.60954e-05
-5.33846e-06
8.6265e-05
1.31819e-06
0.000111515
1.04411e-05
0.000143093
2.32834e-05
0.000180566
4.20103e-05
0.000220481
6.75622e-05
0.000257767
9.60959e-05
0.000300891
0.000124178
0.000325174
0.000158489
0.000141778
-1.89598e-05
1.30853e-05
1.95956e-05
-1.81412e-05
1.81418e-05
-1.69215e-05
2.51668e-05
-1.52387e-05
3.47743e-05
-1.29005e-05
4.71615e-05
-9.64757e-06
6.28007e-05
-5.09062e-06
8.17122e-05
1.14238e-06
0.00010515
9.70208e-06
0.000134462
2.17902e-05
0.000168479
3.95762e-05
0.000203074
6.35303e-05
0.000234386
8.95413e-05
0.000274595
0.000115424
0.00029928
0.000141074
0.000131251
-1.79693e-05
1.25057e-05
1.8626e-05
-1.71911e-05
1.73258e-05
-1.60477e-05
2.40248e-05
-1.44635e-05
3.31737e-05
-1.2254e-05
4.49199e-05
-9.14482e-06
5.96712e-05
-4.85609e-06
7.73405e-05
1.10611e-06
9.92465e-05
9.14745e-06
0.00012627
2.05818e-05
0.000156805
3.74553e-05
0.00018579
5.98115e-05
0.000211589
8.34568e-05
0.000250283
0.000107419
0.0002743
0.000125281
0.000121541
-1.71211e-05
1.19413e-05
1.76767e-05
-1.63799e-05
1.65313e-05
-1.52855e-05
2.29186e-05
-1.3764e-05
3.16317e-05
-1.16387e-05
4.27699e-05
-8.66922e-06
5.66796e-05
-4.50044e-06
7.32321e-05
1.10973e-06
9.34951e-05
8.73633e-06
0.000118652
1.9607e-05
0.000146057
3.56085e-05
0.000170338
5.63725e-05
0.000191502
7.77794e-05
0.000228331
0.000100021
0.00025171
0.000109391
0.000112542
-1.62508e-05
1.14231e-05
1.68515e-05
-1.55387e-05
1.57976e-05
-1.45073e-05
2.1888e-05
-1.30644e-05
3.01793e-05
-1.10116e-05
4.07377e-05
-8.14142e-06
5.38152e-05
-4.18369e-06
6.92317e-05
1.26415e-06
8.82016e-05
8.4944e-06
0.000111257
1.88951e-05
0.000135313
3.39684e-05
0.000154753
5.31293e-05
0.000171793
7.25034e-05
0.000208356
9.32788e-05
0.000230576
9.80652e-05
0.000104246
-1.55191e-05
1.0917e-05
1.60397e-05
-1.48232e-05
1.50819e-05
-1.38291e-05
2.08854e-05
-1.23944e-05
2.87752e-05
-1.04431e-05
3.87428e-05
-7.64208e-06
5.10398e-05
-3.74194e-06
6.54163e-05
1.40594e-06
8.28256e-05
8.38115e-06
0.000104349
1.84122e-05
0.00012558
3.24922e-05
0.000141331
5.00664e-05
0.000155044
6.75832e-05
0.000189998
8.70597e-05
0.000210277
8.2998e-05
9.65717e-05
-1.47641e-05
1.04401e-05
1.53038e-05
-1.40998e-05
1.44005e-05
-1.31308e-05
1.99205e-05
-1.18076e-05
2.73957e-05
-9.84264e-06
3.68147e-05
-7.11275e-06
4.82951e-05
-3.38151e-06
6.15833e-05
1.71232e-06
7.79631e-05
8.4508e-06
9.74242e-05
1.81516e-05
0.000115586
3.11054e-05
0.000127836
4.71185e-05
0.000138299
6.30285e-05
0.000173461
8.14076e-05
0.000191872
7.50527e-05
8.94968e-05
-1.41117e-05
9.96866e-06
1.4586e-05
-1.34611e-05
1.37265e-05
-1.25391e-05
1.89668e-05
-1.118e-05
2.60486e-05
-9.30247e-06
3.48828e-05
-6.60708e-06
4.56053e-05
-2.86329e-06
5.7904e-05
1.97809e-06
7.28491e-05
8.67652e-06
9.1027e-05
1.80855e-05
0.000106733
2.9747e-05
0.000116753
4.42957e-05
0.000124711
5.88075e-05
0.000157652
7.62223e-05
0.000172762
5.99208e-05
8.2976e-05
-1.34421e-05
9.52148e-06
1.3938e-05
-1.28207e-05
1.30802e-05
-1.19114e-05
1.80438e-05
-1.06207e-05
2.4719e-05
-8.71124e-06
3.30105e-05
-6.07335e-06
4.2882e-05
-2.41896e-06
5.42134e-05
2.42853e-06
6.83412e-05
9.07717e-06
8.40226e-05
1.81527e-05
9.72081e-05
2.8369e-05
0.000105703
4.15655e-05
0.000110755
5.49411e-05
0.000143939
7.15138e-05
0.000157337
5.64579e-05
7.69611e-05
-1.28565e-05
9.08135e-06
1.33234e-05
-1.2229e-05
1.24455e-05
-1.13383e-05
1.71361e-05
-1.00153e-05
2.3416e-05
-8.21198e-06
3.10878e-05
-5.49583e-06
4.02488e-05
-1.83234e-06
5.05833e-05
2.77121e-06
6.32291e-05
9.66662e-06
7.76818e-05
1.83506e-05
8.91682e-05
2.69201e-05
9.7272e-05
3.89798e-05
9.98065e-05
5.14144e-05
0.000129735
6.7239e-05
0.000138768
4.09758e-05
7.14524e-05
-1.22487e-05
8.67005e-06
1.2783e-05
-1.16451e-05
1.1841e-05
-1.076e-05
1.62548e-05
-9.52853e-06
2.21055e-05
-7.60549e-06
2.92207e-05
-4.94863e-06
3.74792e-05
-1.36449e-06
4.69221e-05
3.3319e-06
5.90532e-05
1.04037e-05
7.00116e-05
1.85482e-05
8.02758e-05
2.53889e-05
8.89733e-05
3.65353e-05
8.76681e-05
4.82449e-05
0.000117909
6.33447e-05
0.000125991
4.23548e-05
6.63616e-05
-1.17602e-05
8.26106e-06
1.22466e-05
-1.11574e-05
1.12359e-05
-1.0303e-05
1.53633e-05
-9.00011e-06
2.0786e-05
-7.13355e-06
2.72393e-05
-4.36436e-06
3.47782e-05
-7.43882e-07
4.32072e-05
3.70777e-06
5.39029e-05
1.1348e-05
6.3327e-05
1.87658e-05
7.38663e-05
2.37351e-05
8.4116e-05
3.43421e-05
7.83002e-05
4.54416e-05
0.000104703
5.98729e-05
0.000107756
2.57481e-05
6.17339e-05
-1.13281e-05
7.84953e-06
1.17601e-05
-1.07434e-05
1.06194e-05
-9.88392e-06
1.44463e-05
-8.59025e-06
1.9404e-05
-6.58342e-06
2.52202e-05
-3.85712e-06
3.17303e-05
-2.14304e-07
3.95953e-05
4.33784e-06
4.99596e-05
1.23503e-05
5.43397e-05
1.87651e-05
6.62981e-05
2.1906e-05
7.84743e-05
3.23932e-05
6.72381e-05
4.30045e-05
9.45979e-05
5.66797e-05
9.77004e-05
3.1609e-05
5.7444e-05
-1.09324e-05
7.44436e-06
1.13259e-05
-1.03728e-05
9.99912e-06
-9.51798e-06
1.35014e-05
-8.17622e-06
1.79352e-05
-6.1978e-06
2.30124e-05
-3.18191e-06
2.902e-05
4.49418e-07
3.5695e-05
4.7928e-06
4.45715e-05
1.42865e-05
4.66031e-05
1.94592e-05
6.29495e-05
2.01668e-05
7.86796e-05
3.1033e-05
5.75787e-05
4.10169e-05
8.23794e-05
5.38629e-05
8.00478e-05
1.4042e-05
5.35282e-05
-1.06142e-05
7.03209e-06
1.09379e-05
-1.00732e-05
9.35673e-06
-9.24879e-06
1.2499e-05
-7.82356e-06
1.64637e-05
-5.57339e-06
2.09409e-05
-2.72674e-06
2.58351e-05
1.01701e-06
3.22093e-05
5.95284e-06
4.06078e-05
1.59268e-05
3.49886e-05
1.85996e-05
5.87399e-05
1.76192e-05
7.56321e-05
3.05151e-05
4.46362e-05
3.95957e-05
7.41486e-05
5.10798e-05
7.34951e-05
2.48513e-05
4.97316e-05
-1.03458e-05
6.62574e-06
1.06451e-05
-9.85796e-06
8.71649e-06
-8.84907e-06
1.1567e-05
-7.38823e-06
1.49467e-05
-5.21946e-06
1.87082e-05
-2.11709e-06
2.33629e-05
1.63255e-06
2.81166e-05
7.14618e-06
3.36872e-05
1.4947e-05
2.97437e-05
1.29314e-05
6.30351e-05
1.67131e-05
7.38015e-05
3.06073e-05
3.18278e-05
3.88976e-05
6.29536e-05
4.86509e-05
5.7595e-05
9.11449e-06
4.61632e-05
-1.00924e-05
6.24277e-06
1.03515e-05
-9.43019e-06
8.11763e-06
-8.61222e-06
1.05358e-05
-7.00398e-06
1.34766e-05
-4.64551e-06
1.65911e-05
-1.89307e-06
2.00676e-05
1.96684e-06
2.46511e-05
6.76292e-06
3.00103e-05
9.35321e-06
2.536e-05
1.04062e-05
6.09601e-05
1.82682e-05
6.35869e-05
3.08429e-05
2.05768e-05
3.82811e-05
5.67378e-05
4.64146e-05
5.48242e-05
2.0705e-05
4.27587e-05
-9.77163e-06
5.85169e-06
1.00671e-05
-9.31257e-06
7.44235e-06
-8.1832e-06
9.55752e-06
-6.65571e-06
1.18035e-05
-4.43962e-06
1.42407e-05
-1.72774e-06
1.79578e-05
1.41296e-06
2.09145e-05
3.38165e-06
2.65921e-05
3.75722e-06
2.7111e-05
1.06003e-05
5.58932e-05
2.01632e-05
5.48315e-05
3.21771e-05
8.25306e-06
3.81991e-05
4.44233e-05
4.432e-05
4.04342e-05
8.07418e-06
3.9235e-05
-9.66255e-06
5.47282e-06
9.8467e-06
-8.99611e-06
6.81669e-06
-8.11181e-06
8.42787e-06
-6.45115e-06
1.03008e-05
-4.30353e-06
1.21596e-05
-2.7573e-06
1.5741e-05
-8.46356e-07
1.94633e-05
-6.95849e-07
2.74406e-05
1.24228e-06
2.36225e-05
1.45176e-05
4.17122e-05
2.58691e-05
4.19078e-05
3.31231e-05
3.99842e-06
3.79662e-05
4.19088e-05
4.19529e-05
4.26655e-05
2.12774e-05
3.56e-05
-9.28882e-06
5.039e-06
9.56566e-06
-8.64684e-06
6.02514e-06
-7.38229e-06
7.3302e-06
-5.98967e-06
8.69914e-06
-4.4654e-06
1.05706e-05
-4.44651e-06
1.62375e-05
-3.90363e-06
1.83626e-05
-3.4538e-06
2.56761e-05
2.72107e-06
1.86434e-05
1.85857e-05
2.63013e-05
2.63499e-05
3.25942e-05
3.32447e-05
-6.41401e-06
3.80439e-05
2.68773e-05
3.91977e-05
3.15133e-05
1.30111e-05
3.19838e-05
-9.05352e-06
4.56376e-06
9.34986e-06
-8.131e-06
5.12948e-06
-6.98324e-06
6.00288e-06
-5.48208e-06
7.4016e-06
-4.98303e-06
1.00317e-05
-6.8512e-06
1.75579e-05
-6.12739e-06
1.80883e-05
-2.54769e-06
2.29023e-05
8.2404e-06
6.60372e-06
2.38833e-05
1.02031e-05
2.70993e-05
2.86228e-05
3.22531e-05
-9.11817e-06
3.57603e-05
2.62598e-05
3.58188e-05
3.6988e-05
2.41943e-05
2.89182e-05
-9.53863e-06
4.26535e-06
9.66316e-06
-8.83094e-06
4.32271e-06
-7.50967e-06
4.79399e-06
-6.67522e-06
6.39578e-06
-7.34737e-06
1.07246e-05
-8.81971e-06
1.94693e-05
-6.29565e-06
1.51512e-05
1.48396e-06
1.41322e-05
1.31421e-05
-4.5184e-06
2.65185e-05
-4.16507e-06
2.86417e-05
2.33441e-05
3.08755e-05
-1.44439e-05
3.2234e-05
1.77234e-05
3.22012e-05
2.8922e-05
1.96427e-05
2.63988e-05
-1.02612e-05
3.94687e-06
1.0333e-05
-9.48451e-06
3.48451e-06
-8.49799e-06
3.74773e-06
-8.53101e-06
6.74121e-06
-1.01364e-05
1.23022e-05
-9.89919e-06
1.89395e-05
-3.75326e-06
9.29959e-06
8.91511e-06
2.63913e-06
1.70498e-05
-1.34459e-05
2.702e-05
-1.38965e-05
2.69752e-05
2.32777e-05
2.75106e-05
-1.27505e-05
2.79128e-05
2.01098e-05
2.81264e-05
3.39347e-05
2.63564e-05
2.41677e-05
-9.60592e-06
2.36557e-06
1.09018e-05
-7.72668e-06
1.68319e-06
-7.63814e-06
3.9466e-06
-8.68858e-06
7.77863e-06
-1.1384e-05
1.5197e-05
-9.35611e-06
1.72256e-05
1.06045e-07
-3.27784e-07
1.53554e-05
-1.37075e-05
1.78813e-05
-1.54596e-05
2.14465e-05
-1.83388e-05
2.30078e-05
1.92168e-05
2.19254e-05
-1.3097e-05
2.14371e-05
1.76297e-05
2.2831e-05
2.9638e-05
2.33535e-05
2.16017e-05
-1.11749e-05
1.3573e-06
1.25116e-05
-8.26225e-06
-1.13545e-06
-6.12142e-06
1.91226e-06
-5.89223e-06
7.96496e-06
-1.03883e-05
1.96484e-05
-5.6303e-06
1.23467e-05
6.78433e-06
-1.27335e-05
1.54803e-05
-2.11158e-05
1.0572e-05
-1.07317e-05
1.31928e-05
-2.0813e-05
1.65133e-05
1.57361e-05
1.37786e-05
-8.8568e-06
1.33606e-05
1.96711e-05
1.67228e-05
3.00222e-05
2.26298e-05
1.86013e-05
-3.109e-06
2.01907e-07
4.09342e-06
-1.72936e-06
-2.4196e-06
-5.70372e-07
9.32308e-07
-1.58512e-06
8.83466e-06
-8.04342e-06
2.61408e-05
6.12605e-08
4.34063e-06
6.25195e-06
-1.89193e-05
1.05068e-06
-1.62133e-05
1.50754e-07
-9.68277e-06
3.34339e-06
-2.42347e-05
7.4446e-06
1.07113e-05
3.78794e-06
-5.13588e-06
4.81493e-06
1.82474e-05
1.05824e-05
2.48944e-05
1.70645e-05
1.52329e-05
-1.52748e-06
1.84739e-07
1.62091e-06
-1.92808e-06
-2.10497e-06
-2.69346e-07
-9.62378e-07
4.5523e-07
8.22356e-06
-7.3126e-06
3.38054e-05
-5.86984e-06
2.81392e-06
-7.05652e-06
-1.79968e-05
-8.14383e-06
-1.45272e-05
-1.97144e-06
-1.58277e-05
-5.57136e-06
-2.0753e-05
-2.42194e-06
7.27353e-06
-6.25827e-06
-4.8698e-07
-2.62792e-06
1.53726e-05
5.35945e-06
1.8969e-05
1.096e-05
1.1559e-05
6.35996e-07
1.05263e-06
-1.70389e-06
-2.19471e-06
4.79096e-07
-3.34021e-06
1.48257e-07
-3.07149e-06
7.77437e-06
-1.39127e-06
3.20693e-05
2.61991e-06
-1.29545e-06
8.59186e-07
-1.65621e-05
-2.48977e-07
-1.32212e-05
-1.96449e-06
-1.40412e-05
-1.17851e-05
-1.11041e-05
-1.06744e-05
5.82261e-06
-1.40668e-05
3.7353e-06
-7.73737e-06
9.82235e-06
1.63953e-06
1.14377e-05
5.07728e-06
7.4681e-06
-7.23382e-06
1.30228e-06
6.65441e-06
-7.29206e-06
3.57189e-07
-7.75819e-06
3.23189e-07
-4.37597e-06
4.2428e-06
1.02919e-05
1.73321e-05
1.31088e-05
-4.21037e-06
3.71024e-06
-7.61204e-06
-4.42594e-06
-4.78167e-06
-1.29586e-05
-5.33522e-06
-1.90863e-05
-5.31996e-06
-1.6556e-05
2.78755e-06
-1.72999e-05
5.93025e-06
-9.5975e-06
3.07256e-06
-4.06479e-07
4.44279e-06
1.28295e-06
3.33157e-06
-1.16195e-05
1.2372e-05
-1.13997e-05
-1.11469e-05
-6.92027e-06
1.04053e-05
6.17919e-06
-1.42511e-06
-6.2045e-06
-1.15427e-05
-1.68645e-05
-1.40745e-05
-8.14344e-06
-5.06978e-06
-6.27e-07
6.5612e-07
0.00144762
4.88744e-05
0.00145163
4.88578e-05
0.00145635
4.87147e-05
0.00146205
4.82652e-05
0.00146864
4.76544e-05
0.00147608
4.70263e-05
0.00148425
4.64774e-05
0.00149313
4.60652e-05
0.00150248
4.58954e-05
4.60665e-05
0.00151209
0.00134044
4.65563e-05
0.00134393
4.51809e-05
0.00134848
4.40069e-05
0.00135386
4.27359e-05
0.00136002
4.13574e-05
0.001367
3.99265e-05
0.0013749
3.84702e-05
0.00138383
3.7016e-05
0.00139407
3.5538e-05
3.3243e-05
0.00140689
0.00124397
4.73527e-05
0.00124447
4.45186e-05
0.00124627
4.20756e-05
0.00124929
3.96137e-05
0.00125351
3.70635e-05
0.00125889
3.44903e-05
0.00126534
3.19592e-05
0.00127282
2.94898e-05
0.00128087
2.74219e-05
2.42346e-05
0.00128989
0.00115608
4.70543e-05
0.00115713
4.3303e-05
0.00115908
4.00335e-05
0.00116188
3.67459e-05
0.00116554
3.33552e-05
0.00117008
2.99409e-05
0.00117547
2.65744e-05
0.0011817
2.32504e-05
0.00118882
2.02734e-05
1.61539e-05
0.00119692
0.00107271
4.51621e-05
0.00107495
4.09135e-05
0.00107765
3.72445e-05
0.0010808
3.3556e-05
0.00108442
2.97213e-05
0.00108857
2.58169e-05
0.00109324
2.19281e-05
0.00109847
1.80527e-05
0.00110419
1.4545e-05
9.8634e-06
0.0011105
0.000993527
4.26672e-05
0.000996334
3.79651e-05
0.000999473
3.40349e-05
0.00100288
3.01222e-05
0.00100656
2.60441e-05
0.00101054
2.18644e-05
0.00101484
1.76628e-05
0.00101949
1.34279e-05
0.00102446
9.54607e-06
4.50448e-06
0.00102984
0.000919359
4.02883e-05
0.000922189
3.50028e-05
0.000925414
3.07489e-05
0.00092889
2.66448e-05
0.000932568
2.23958e-05
0.000936447
1.80443e-05
0.000940529
1.36393e-05
0.00094485
9.15811e-06
0.000949409
5.0047e-06
-2.76947e-07
0.00095424
0.00085056
3.82617e-05
0.000853168
3.22265e-05
0.000856296
2.76198e-05
0.000859663
2.32666e-05
0.000863243
1.8897e-05
0.000866956
1.43961e-05
0.000870834
9.85885e-06
0.000874896
5.1798e-06
0.00087915
7.73992e-07
-4.80418e-06
0.000883662
0.000786824
3.63783e-05
0.000789298
2.96776e-05
0.000792167
2.45573e-05
0.000795435
2.00142e-05
0.000798794
1.54416e-05
0.000802347
1.08509e-05
0.000805988
6.17284e-06
0.000809797
1.30109e-06
0.000813679
-3.32727e-06
-9.10194e-06
0.000817953
0.000727983
3.47299e-05
0.000730177
2.72056e-05
0.000732949
2.1666e-05
0.000735942
1.68006e-05
0.000739141
1.20933e-05
0.000742431
7.35403e-06
0.000745819
2.55879e-06
0.000749328
-2.50928e-06
0.000753012
-7.2405e-06
-1.3359e-05
0.000757063
0.000673406
3.31484e-05
0.00067552
2.49465e-05
0.000678102
1.89488e-05
0.000680933
1.38486e-05
0.000683912
8.98381e-06
0.000686979
4.14879e-06
0.00069012
-7.51934e-07
0.000693438
-5.97749e-06
0.000696727
-1.09364e-05
-1.7082e-05
0.000700564
0.000622916
3.16461e-05
0.000624979
2.28321e-05
0.000627439
1.64634e-05
0.000630094
1.1138e-05
0.000632868
6.16038e-06
0.000635702
1.23295e-06
0.000638609
-3.76781e-06
0.000641608
-9.19231e-06
0.00064478
-1.41283e-05
-2.06616e-05
0.000648135
0.00057617
3.01193e-05
0.000578237
2.08259e-05
0.000580588
1.4142e-05
0.000583109
8.67591e-06
0.00058569
3.62857e-06
0.000588316
-1.3352e-06
0.000590984
-6.40319e-06
0.000593802
-1.19549e-05
0.000596576
-1.71238e-05
-2.35057e-05
0.000599749
0.000532955
2.85887e-05
0.000535041
1.88965e-05
0.000537323
1.19307e-05
0.000539712
6.34268e-06
0.000542117
1.22753e-06
0.000544541
-3.77387e-06
0.000546978
-8.90173e-06
0.000549502
-1.46129e-05
0.000552148
-1.97023e-05
-2.6482e-05
0.000554817
0.000492978
2.70422e-05
0.000495067
1.70181e-05
0.000497311
9.89491e-06
0.000499585
4.25799e-06
0.000501849
-8.14638e-07
0.000504096
-5.79437e-06
0.000506321
-1.09119e-05
0.000508658
-1.67272e-05
0.000510913
-2.19858e-05
-2.84467e-05
0.000513416
0.000456022
2.54529e-05
0.00045814
1.51351e-05
0.000460342
7.85892e-06
0.000462528
2.15216e-06
0.000464652
-2.89994e-06
0.000466729
-7.8961e-06
0.000468756
-1.29944e-05
0.000470843
-1.89371e-05
0.000472965
-2.40684e-05
-3.08728e-05
0.000474973
0.000421842
2.38772e-05
0.000423988
1.33797e-05
0.000426146
6.08832e-06
0.000428276
4.56656e-07
0.000430276
-4.41137e-06
0.000432212
-9.30702e-06
0.000434054
-1.43307e-05
0.000435962
-2.03606e-05
0.000437768
-2.56379e-05
-3.19731e-05
0.000439607
0.000390269
2.21972e-05
0.00039245
1.1566e-05
0.000394558
4.13277e-06
0.000396648
-1.44958e-06
0.000398517
-6.26625e-06
0.00040031
-1.11055e-05
0.000401977
-1.60631e-05
0.000403667
-2.21885e-05
0.000405379
-2.73933e-05
-3.39683e-05
0.0004068
0.000361101
2.06536e-05
0.000363271
9.92139e-06
0.000365362
2.74458e-06
0.000367404
-2.63372e-06
0.000369175
-7.04131e-06
0.000370836
-1.17256e-05
0.000372342
-1.65645e-05
0.000373849
-2.28222e-05
0.000375262
-2.82166e-05
-3.42949e-05
0.000376474
0.000334149
1.89013e-05
0.000336369
8.07824e-06
0.0003384
8.90233e-07
0.000340427
-4.40223e-06
0.000342058
-8.68159e-06
0.000343597
-1.32783e-05
0.000344937
-1.80219e-05
0.000346263
-2.43296e-05
0.00034747
-2.96173e-05
-3.56577e-05
0.000348164
0.000309248
1.72069e-05
0.000311495
6.51781e-06
0.000313479
-2.12538e-07
0.000315494
-5.09013e-06
0.000317008
-8.83091e-06
0.000318441
-1.32057e-05
0.000319625
-1.78313e-05
0.000320769
-2.43147e-05
0.000321718
-2.97446e-05
-3.52412e-05
0.000322221
0.000286259
1.5331e-05
0.000288559
4.54962e-06
0.000290469
-2.18449e-06
0.000292471
-6.97969e-06
0.000293835
-1.0606e-05
0.000295161
-1.48723e-05
0.000296195
-1.93263e-05
0.000297173
-2.57602e-05
0.000297946
-3.09802e-05
-3.62426e-05
0.000298126
0.000265012
1.34568e-05
0.000267345
3.0307e-06
0.000269196
-2.94355e-06
0.00027119
-7.11031e-06
0.000272441
-1.01026e-05
0.000273678
-1.4119e-05
0.000274571
-1.84994e-05
0.000275375
-2.51733e-05
0.000275901
-3.05654e-05
-3.54624e-05
0.000275909
0.000245401
1.14807e-05
0.000247789
8.85183e-07
0.000249549
-5.0086e-06
0.000251509
-9.21212e-06
0.000252627
-1.20843e-05
0.000253765
-1.60036e-05
0.000254537
-2.01309e-05
0.000255196
-2.66056e-05
0.000255516
-3.15976e-05
-3.6052e-05
0.000255251
0.000227257
9.2866e-06
0.000229697
-6.49044e-07
0.000231371
-5.67507e-06
0.000233326
-9.04411e-06
0.000234351
-1.13292e-05
0.000235418
-1.49456e-05
0.000236074
-1.90043e-05
0.000236563
-2.57477e-05
0.00023667
-3.07719e-05
-3.50403e-05
0.000236257
0.000210508
7.14099e-06
0.000212984
-3.11936e-06
0.000214562
-8.06762e-06
0.000216452
-1.1665e-05
0.000217385
-1.38854e-05
0.000218367
-1.73498e-05
0.000218941
-2.10307e-05
0.00021931
-2.72771e-05
0.000219236
-3.15908e-05
-3.52026e-05
0.000218628
0.000194994
4.93547e-06
0.00019751
-4.59657e-06
0.000198998
-8.24461e-06
0.000200873
-1.10467e-05
0.000201759
-1.26761e-05
0.000202684
-1.59459e-05
0.000203173
-1.96334e-05
0.000203378
-2.61573e-05
0.000203139
-3.05593e-05
-3.41527e-05
0.000202413
0.000180648
2.65404e-06
0.000183206
-7.32078e-06
0.000184558
-1.0789e-05
0.000186364
-1.40244e-05
0.000187195
-1.55886e-05
0.000188052
-1.86391e-05
0.000188501
-2.1846e-05
0.000188592
-2.75741e-05
0.000188207
-3.10327e-05
-3.37987e-05
0.000187355
0.000167351
3.39147e-07
0.000169956
-8.76926e-06
0.000171191
-1.04847e-05
0.000172993
-1.29581e-05
0.00017381
-1.39242e-05
0.000174619
-1.68081e-05
0.000175008
-2.00999e-05
0.00017493
-2.60793e-05
0.000174408
-2.97104e-05
-3.25808e-05
0.000173424
0.000155036