/*--------------------------------*- C++ -*----------------------------------*\
  =========                 |
  \\      /  F ield         | OpenFOAM: The Open Source CFD Toolbox
   \\    /   O peration     | Website:  https://openfoam.org
    \\  /    A nd           | Version:  6.0
     \\/     M anipulation  |
\*---------------------------------------------------------------------------*/
FoamFile
{
    version     2.0;
    format      ascii;
    class       volVectorField;
    location    "10";
    object      U;
}
// * * * * * * * * * * * * * * * * * * * * * * * * * * * * * * * * * * * * * //

dimensions      [0 1 -1 0 0 0 0];

internalField   nonuniform List<vector> 
4920
(
(0.996143 0.0880646 -8.60826e-20)
(0.996134 0.0880369 1.38907e-19)
(0.996126 0.0880104 -3.90945e-19)
(0.996119 0.0879837 5.4985e-19)
(0.99611 0.0879499 1.78966e-19)
(0.996099 0.087906 -2.29104e-19)
(0.996084 0.0878538 5.567e-19)
(0.996059 0.0877799 -1.27182e-19)
(0.996015 0.0876707 2.76161e-19)
(0.995934 0.0874982 1.80028e-18)
(0.995764 0.0872247 -2.69501e-18)
(0.995415 0.0867469 3.32574e-18)
(0.994767 0.0857222 1.62895e-18)
(0.993845 0.0830086 7.08614e-19)
(0.988651 0.0740177 -8.08495e-18)
(0.996015 0.089791 5.91947e-20)
(0.995977 0.0897463 -3.61611e-19)
(0.995941 0.0896847 1.76956e-19)
(0.995905 0.089641 7.97404e-20)
(0.995867 0.0895851 3.81383e-19)
(0.995821 0.0895182 1.3244e-19)
(0.995763 0.0894243 -1.10484e-18)
(0.995679 0.0892985 2.82146e-20)
(0.995545 0.089102 3.43916e-19)
(0.99533 0.0887832 -3.392e-18)
(0.99497 0.0882361 4.53486e-18)
(0.994339 0.0872358 -6.63752e-18)
(0.993188 0.0852389 6.37975e-19)
(0.991873 0.0798857 1.67958e-17)
(0.986842 0.0672489 2.55112e-17)
(0.995891 0.091286 4.15512e-20)
(0.995821 0.091241 -3.49954e-19)
(0.995748 0.0911532 1.16458e-19)
(0.995671 0.091097 2.80732e-19)
(0.995586 0.0910365 -8.32816e-19)
(0.99549 0.0909708 2.14871e-19)
(0.995373 0.0908565 3.1155e-19)
(0.995227 0.0906872 -7.08853e-19)
(0.995016 0.0904155 9.36803e-19)
(0.994729 0.0899787 -1.00622e-18)
(0.99435 0.0892421 2.30764e-18)
(0.993856 0.0880089 -3.12899e-18)
(0.992974 0.085962 -2.98515e-18)
(0.992583 0.0804721 -6.79749e-18)
(0.990825 0.071729 -1.34785e-17)
(0.995732 0.0926561 1.36887e-20)
(0.995641 0.0926821 -1.1488e-19)
(0.995531 0.0926096 1.77778e-19)
(0.99541 0.0925412 -2.82004e-19)
(0.995272 0.0924623 1.06909e-19)
(0.995111 0.0923735 3.7201e-19)
(0.99492 0.0922165 8.85303e-19)
(0.994692 0.0919812 -3.33811e-19)
(0.99439 0.0916068 4.51373e-19)
(0.994009 0.0910161 2.59323e-18)
(0.993583 0.0900473 -4.4993e-18)
(0.9932 0.0885236 2.1825e-18)
(0.992581 0.0863523 4.71595e-18)
(0.993185 0.0808003 -1.82032e-17)
(0.993465 0.0731824 -2.45827e-18)
(0.995489 0.0940494 1.17089e-19)
(0.995408 0.0940944 -2.71375e-19)
(0.995277 0.0940619 -4.02204e-20)
(0.995119 0.0940014 -1.42614e-19)
(0.994925 0.0939255 1.92663e-21)
(0.994688 0.0938228 4.59567e-19)
(0.994402 0.0936306 -2.20789e-19)
(0.994062 0.0933249 -1.36931e-18)
(0.993627 0.092838 6.02414e-20)
(0.99309 0.0920645 -2.22058e-18)
(0.992506 0.0907878 -2.20511e-20)
(0.992036 0.0887996 3.56841e-18)
(0.991405 0.0860807 -2.99747e-18)
(0.992654 0.0797858 4.50982e-18)
(0.993927 0.0703601 -1.05033e-17)
(0.995035 0.0957957 4.7807e-20)
(0.99501 0.0958561 1.39407e-19)
(0.994888 0.0958414 -4.4771e-19)
(0.994712 0.0957653 3.56044e-19)
(0.994473 0.0956552 2.37848e-19)
(0.994162 0.095502 -4.97107e-19)
(0.993771 0.0952392 3.72087e-19)
(0.993297 0.0948418 1.38892e-18)
(0.992697 0.0942165 4.13588e-19)
(0.991957 0.0932282 9.34434e-19)
(0.991136 0.0915891 4.5362e-18)
(0.990457 0.0890099 -1.23415e-18)
(0.989668 0.0854571 -7.58686e-18)
(0.991382 0.078019 -7.14231e-18)
(0.993489 0.0665762 -4.89365e-18)
(0.994239 0.0978926 -8.04332e-21)
(0.994319 0.0978822 1.46202e-19)
(0.994249 0.0978513 -2.29027e-19)
(0.994088 0.0977518 -1.10335e-19)
(0.993827 0.0976079 5.40156e-19)
(0.993457 0.0973997 -3.01844e-19)
(0.992966 0.097058 2.5087e-19)
(0.992348 0.0965536 -2.20367e-18)
(0.991568 0.0957692 1.6055e-18)
(0.990607 0.0945383 7.40593e-20)
(0.989533 0.092491 -4.08461e-18)
(0.988624 0.0892615 -5.43147e-19)
(0.987683 0.0847761 6.19045e-18)
(0.989887 0.0761372 5.59384e-17)
(0.992996 0.0636072 2.38328e-17)
(0.993037 0.100394 -2.0924e-20)
(0.993247 0.100334 8.90894e-20)
(0.993262 0.100247 -2.13732e-19)
(0.993148 0.100087 5.55075e-19)
(0.992895 0.0998633 1.11209e-19)
(0.992494 0.0995602 -3.34346e-19)
(0.991924 0.099097 -8.49985e-20)
(0.991167 0.0984577 6.82129e-19)
(0.990208 0.0974824 -6.27304e-19)
(0.989028 0.0959785 2.70742e-19)
(0.987714 0.0934966 6.09356e-18)
(0.986607 0.0895921 1.66666e-19)
(0.985597 0.0841655 1.81605e-17)
(0.988419 0.0743905 -7.74374e-17)
(0.992656 0.0615893 -2.17314e-17)
(0.991436 0.103096 5.47541e-20)
(0.991783 0.10293 -2.16366e-19)
(0.991907 0.102766 1.28712e-19)
(0.991867 0.102539 -1.14366e-19)
(0.991649 0.102246 -1.19479e-19)
(0.991241 0.101855 -1.37052e-19)
(0.990612 0.101278 7.06328e-19)
(0.989725 0.100498 -5.0259e-19)
(0.988592 0.0993176 9.26815e-19)
(0.987204 0.0975189 -2.96816e-18)
(0.985675 0.0945696 -6.17584e-19)
(0.984411 0.0899685 -5.39336e-18)
(0.983424 0.0836149 -1.36101e-17)
(0.987017 0.0727864 4.0039e-18)
(0.992409 0.0601252 2.17297e-17)
(0.989503 0.10594 -4.68743e-20)
(0.989964 0.105737 3.51735e-20)
(0.990197 0.105497 -1.20769e-19)
(0.99024 0.105193 -9.05257e-20)
(0.990072 0.104804 5.83638e-20)
(0.989674 0.104302 -6.29382e-20)
(0.989006 0.103582 4.23982e-19)
(0.988002 0.10264 -4.51891e-19)
(0.986703 0.101232 1.24466e-19)
(0.985116 0.0991145 -2.5124e-19)
(0.983392 0.0956774 -1.73763e-19)
(0.982006 0.0903546 1.03399e-19)
(0.981131 0.0830736 -2.18605e-18)
(0.98565 0.0712368 2.34562e-17)
(0.992061 0.0588863 -1.85758e-18)
(0.987257 0.108733 -4.18055e-22)
(0.987807 0.10847 -1.62627e-20)
(0.98814 0.108171 -2.86539e-19)
(0.98827 0.107812 4.6822e-19)
(0.988163 0.107355 3.32562e-19)
(0.987789 0.106765 -5.67271e-19)
(0.987101 0.105921 2.01811e-19)
(0.985989 0.104819 -3.46916e-19)
(0.984529 0.103179 -3.17939e-20)
(0.982752 0.100729 3.43198e-18)
(0.980844 0.096773 -2.66154e-18)
(0.979363 0.0906966 -2.52942e-18)
(0.978666 0.0824677 1.76342e-18)
(0.984265 0.0696566 -2.05397e-17)
(0.991541 0.0576192 3.49331e-18)
(0.984784 0.111472 5.95769e-21)
(0.985389 0.111204 2.03177e-19)
(0.985796 0.110861 -9.38998e-20)
(0.985998 0.110454 -2.44152e-19)
(0.985946 0.109925 1.53736e-19)
(0.985597 0.109247 1.88032e-20)
(0.984896 0.108273 -2.25417e-19)
(0.983685 0.107007 -4.5817e-19)
(0.982067 0.105121 -4.20908e-19)
(0.980098 0.102327 -2.73805e-18)
(0.978011 0.0978347 -4.63842e-18)
(0.97645 0.0909644 1.16487e-17)
(0.975996 0.0817437 -4.67531e-18)
(0.982821 0.067967 5.49527e-17)
(0.990833 0.0562737 -2.70478e-17)
(0.982101 0.114111 3.18052e-20)
(0.982733 0.113827 3.25627e-20)
(0.983191 0.113455 1.31738e-19)
(0.983448 0.113013 1.12228e-19)
(0.983443 0.112428 -1.60152e-19)
(0.983115 0.111674 3.42764e-19)
(0.982403 0.110586 -2.86935e-19)
(0.981091 0.10916 -4.09756e-20)
(0.979313 0.107035 2.57039e-19)
(0.977147 0.103886 8.28494e-19)
(0.974879 0.0988267 3.90586e-18)
(0.973244 0.0911161 4.93254e-18)
(0.973097 0.0808495 1.76384e-17)
(0.981292 0.0661024 -4.46313e-17)
(0.989966 0.0547114 4.03768e-17)
(0.979226 0.116688 -6.54402e-20)
(0.979856 0.116423 -1.49391e-20)
(0.980341 0.11603 1.76468e-19)
(0.980636 0.115552 -5.70835e-20)
(0.980666 0.114904 1.04959e-19)
(0.980356 0.114072 6.18638e-20)
(0.979624 0.112867 -4.46011e-19)
(0.978218 0.111278 1.77716e-19)
(0.976273 0.108903 -4.3806e-19)
(0.973894 0.105392 1.90247e-18)
(0.971432 0.0997449 -9.09871e-19)
(0.969733 0.0911363 -8.46516e-18)
(0.969962 0.0797474 -2.29318e-17)
(0.979678 0.064034 1.42405e-17)
(0.988985 0.0530052 -6.16197e-18)
(0.97617 0.11917 3.19708e-20)
(0.976791 0.11886 3.55145e-20)
(0.977288 0.118443 -2.76775e-19)
(0.977604 0.117946 5.48492e-19)
(0.977655 0.117269 -1.81852e-19)
(0.977347 0.116387 1.39879e-19)
(0.976587 0.115083 -1.21738e-19)
(0.975083 0.113335 -4.71676e-19)
(0.972949 0.110728 1.95961e-18)
(0.970342 0.106846 -2.02695e-18)
(0.967668 0.100568 1.83383e-18)
(0.965903 0.0909916 -2.59401e-18)
(0.966581 0.0783851 1.32457e-17)
(0.977997 0.0617194 -1.26504e-17)
(0.987934 0.0509963 -1.5193e-17)
(0.972918 0.121664 1.78769e-20)
(0.973522 0.121365 1.36155e-19)
(0.974022 0.120921 -2.28937e-19)
(0.974347 0.120389 1.10867e-19)
(0.974409 0.11965 -1.6996e-19)
(0.974098 0.118691 2.50491e-20)
(0.973305 0.117266 8.56941e-19)
(0.971682 0.115365 -1.42626e-18)
(0.969348 0.112522 -2.74214e-20)
(0.966488 0.108252 2.1417e-18)
(0.963576 0.10131 -5.81232e-18)
(0.961741 0.090674 1.38713e-18)
(0.962964 0.0767351 -4.89049e-19)
(0.97628 0.0591748 3.18345e-17)
(0.986908 0.0488256 -1.74426e-17)
(0.969455 0.124129 9.3939e-21)
(0.970048 0.123748 -5.12855e-22)
(0.970552 0.123271 -7.32318e-20)
(0.970883 0.122717 2.75133e-19)
(0.970947 0.121942 -2.09086e-19)
(0.970626 0.120925 1.03008e-19)
(0.969769 0.119407 1.70122e-19)
(0.968017 0.117368 -4.97915e-19)
(0.965463 0.114291 5.91912e-19)
(0.96232 0.109619 -3.79277e-18)
(0.959144 0.101955 4.20459e-18)
(0.957229 0.0901427 1.70502e-18)
(0.95912 0.0747377 -2.51497e-18)
(0.974581 0.0563681 -1.20062e-17)
(0.985966 0.0464329 4.44686e-17)
(0.965771 0.126682 7.50843e-20)
(0.966353 0.126301 -1.64538e-19)
(0.966854 0.12578 1.44253e-19)
(0.96718 0.125173 7.58957e-20)
(0.967235 0.124315 -2.5691e-19)
(0.966882 0.123211 2.11222e-19)
(0.965953 0.121574 -2.30369e-19)
(0.96406 0.119366 1.83739e-19)
(0.961264 0.11605 3.02847e-18)
(0.957821 0.110954 -1.73644e-18)
(0.954342 0.102515 -1.01491e-18)
(0.95235 0.0893899 -9.84232e-19)
(0.955074 0.0723613 -8.64228e-19)
(0.972967 0.0533589 -1.36669e-17)
(0.985185 0.0439981 -2.4273e-17)
(0.961853 0.129309 7.95593e-21)
(0.962411 0.128864 5.80952e-20)
(0.962897 0.128289 -2.05036e-19)
(0.963205 0.127618 4.43142e-19)
(0.963234 0.126684 -1.60451e-19)
(0.962837 0.125479 2.42544e-19)
(0.961819 0.123719 1.44855e-19)
(0.959775 0.121359 5.54116e-19)
(0.956728 0.117788 -9.96669e-19)
(0.95295 0.112243 2.11235e-18)
(0.949128 0.102955 5.73117e-18)
(0.947066 0.0883407 6.52742e-18)
(0.950849 0.0695242 -1.17109e-17)
(0.971503 0.0500855 2.904e-17)
(0.984583 0.0413525 -4.34536e-18)
(0.95765 0.131997 -6.16894e-20)
(0.958167 0.131581 5.67651e-20)
(0.958626 0.130961 -6.23183e-20)
(0.958906 0.130202 -1.27075e-19)
(0.958901 0.129141 2.64851e-19)
(0.958449 0.127807 -6.96386e-19)
(0.95733 0.125893 -3.61753e-19)
(0.955126 0.123334 1.86265e-19)
(0.951806 0.119506 8.79919e-20)
(0.947655 0.113486 1.03838e-18)
(0.943451 0.103272 -9.58066e-18)
(0.941362 0.0869706 -3.43039e-18)
(0.946494 0.066191 8.54113e-18)
(0.970262 0.046628 -1.90473e-17)
(0.984212 0.0386674 -7.73316e-18)
(0.953096 0.134638 5.3184e-20)
(0.953566 0.134133 -1.95885e-20)
(0.953995 0.133485 -2.05599e-19)
(0.954243 0.132687 1.79442e-19)
(0.954198 0.131554 4.70662e-19)
(0.953682 0.130101 -2.27027e-19)
(0.952445 0.128039 -5.62284e-20)
(0.950069 0.125303 -9.54496e-19)
(0.946451 0.121191 -8.5727e-19)
(0.941887 0.114655 4.46291e-19)
(0.937258 0.103401 7.55366e-18)
(0.935211 0.085175 -6.01228e-19)
(0.942059 0.062267 8.80738e-19)
(0.969344 0.0429627 9.50034e-18)
(0.984103 0.0358926 4.48117e-18)
(0.948183 0.137356 -6.04753e-21)
(0.948594 0.13687 3.86098e-20)
(0.948976 0.136171 -2.28678e-19)
(0.949176 0.135292 -1.52337e-19)
(0.949078 0.134037 -5.40817e-20)
(0.948482 0.13245 4.04481e-19)
(0.94712 0.13021 1.55096e-19)
(0.944558 0.127242 1.42734e-18)
(0.940618 0.122844 1.76055e-18)
(0.935594 0.115749 -6.52474e-19)
(0.93051 0.103338 -6.11891e-19)
(0.928623 0.0829156 3.44585e-18)
(0.937638 0.0577255 4.35385e-18)
(0.968846 0.0392232 1.3643e-17)
(0.984252 0.033226 1.01501e-18)
(0.942932 0.140164 1.0091e-20)
(0.943259 0.139583 2.95362e-20)
(0.943568 0.138827 3.11825e-20)
(0.943695 0.13787 -1.82844e-19)
(0.943521 0.136502 8.39599e-20)
(0.942829 0.13476 6.67282e-19)
(0.941321 0.132341 -1.12426e-18)
(0.938561 0.129161 -7.26031e-19)
(0.934275 0.124443 -1.36874e-19)
(0.928735 0.116723 -7.93452e-19)
(0.923166 0.102989 -2.09728e-18)
(0.921571 0.0800343 -2.80965e-18)
(0.933333 0.0524903 5.65385e-18)
(0.968864 0.0353564 -6.83157e-18)
(0.98471 0.0305839 3.94303e-18)
(0.937296 0.143129 -8.80042e-21)
(0.937512 0.142549 3.49721e-20)
(0.93773 0.141692 -1.26211e-20)
(0.937765 0.140591 4.40541e-20)
(0.937497 0.139042 -3.44963e-20)
(0.936689 0.137119 -4.91536e-19)
(0.93502 0.134479 5.33426e-19)
(0.932049 0.131022 -9.70056e-20)
(0.927377 0.125988 -3.70259e-18)
(0.921266 0.117585 3.42501e-19)
(0.915182 0.102341 -5.43999e-18)
(0.914103 0.0764801 -7.60085e-18)
(0.929276 0.0465455 -1.77886e-17)
(0.969473 0.0315053 6.08125e-19)
(0.985382 0.0280991 9.54946e-18)
(0.931199 0.146141 -1.29016e-20)
(0.931288 0.145406 -3.49213e-20)
(0.9314 0.144455 7.6401e-20)
(0.93133 0.143244 -3.58025e-19)
(0.930957 0.14154 3.41847e-19)
(0.930022 0.139416 -4.4809e-19)
(0.92818 0.136555 3.3429e-19)
(0.924981 0.132842 1.75201e-18)
(0.919886 0.127449 -2.23117e-19)
(0.913133 0.118259 1.97898e-18)
(0.906492 0.101235 -2.50877e-18)
(0.906233 0.0720658 8.24964e-18)
(0.925622 0.0398622 7.66427e-18)
(0.97078 0.0276467 -1.09528e-17)
(0.986369 0.0256669 -8.17113e-18)
(0.924675 0.149281 -1.43397e-21)
(0.924613 0.148482 -1.67364e-20)
(0.92459 0.147372 -7.76168e-20)
(0.924388 0.145974 -2.09967e-19)
(0.923883 0.144049 4.08994e-19)
(0.922796 0.141705 1.08946e-19)
(0.920765 0.138583 9.05958e-19)
(0.917308 0.134553 -3.21181e-18)
(0.911741 0.128818 1.17352e-18)
(0.904258 0.118747 -5.41699e-18)
(0.897077 0.099652 3.82555e-18)
(0.898077 0.0667191 -6.73244e-18)
(0.922563 0.0324823 1.68097e-17)
(0.972837 0.0239847 1.38575e-17)
(0.987487 0.0234175 -7.07399e-18)
(0.917757 0.15258 6.89075e-21)
(0.917518 0.151547 -4.85925e-20)
(0.917321 0.150276 -1.11138e-19)
(0.916941 0.148696 1.76618e-20)
(0.916258 0.146535 3.06424e-19)
(0.914984 0.143913 -5.24388e-20)
(0.912724 0.140511 -1.12972e-18)
(0.908978 0.136174 1.86499e-18)
(0.902872 0.130033 1.35044e-18)
(0.894581 0.118921 3.33844e-18)
(0.886837 0.0973038 -4.98501e-19)
(0.889664 0.0601864 1.0312e-17)
(0.920295 0.024452 -1.38889e-18)
(0.975732 0.0204728 5.68118e-18)
(0.98893 0.0212721 4.93642e-18)
(0.910372 0.156183 1.03408e-20)
(0.90989 0.155124 -1.22023e-19)
(0.909474 0.153578 -6.82787e-20)
(0.908877 0.151645 1.10286e-19)
(0.907987 0.149102 -5.0564e-19)
(0.906497 0.146115 -7.34885e-19)
(0.903988 0.142346 1.82292e-19)
(0.8999 0.137617 1.66887e-18)
(0.893195 0.131079 9.61745e-19)
(0.883992 0.118779 2.16634e-18)
(0.875756 0.0941434 3.16885e-18)
(0.881213 0.0523819 -1.07293e-18)
(0.919036 0.0158459 -1.67601e-17)
(0.979447 0.0173166 -3.73627e-18)
(0.990389 0.0192455 -4.65542e-19)
(0.90228 0.159769 8.45684e-21)
(0.901522 0.158454 -1.91249e-19)
(0.900876 0.156686 -2.5073e-20)
(0.900062 0.154467 1.01543e-19)
(0.898965 0.151545 4.94714e-19)
(0.897248 0.148142 3.60633e-19)
(0.894454 0.144003 -4.09178e-19)
(0.890004 0.138876 -7.01889e-19)
(0.882628 0.131845 -1.06426e-18)
(0.872387 0.118091 -6.26027e-18)
(0.86378 0.0897744 1.5062e-19)
(0.872867 0.0430969 -1.00542e-17)
(0.918999 0.00681968 6.7437e-18)
(0.984053 0.0144593 1.40223e-18)
(0.992178 0.0172859 -3.33212e-18)
(0.893571 0.163403 -1.27826e-20)
(0.892489 0.161887 -1.25968e-19)
(0.89156 0.159776 2.43786e-19)
(0.890479 0.157185 -1.08706e-19)
(0.889131 0.153843 4.0726e-19)
(0.887149 0.150016 -3.84224e-19)
(0.884056 0.145425 1.05155e-18)
(0.879196 0.139817 -1.46033e-18)
(0.871069 0.132332 4.57917e-19)
(0.859684 0.116864 -5.8793e-19)
(0.851006 0.0841409 2.73367e-18)
(0.865015 0.0323398 -1.39485e-17)
(0.920431 -0.0024215 -4.99924e-18)
(0.989474 0.0121483 -1.22296e-18)
(0.993837 0.0152855 2.28266e-18)
(0.884261 0.167199 -2.59897e-20)
(0.882802 0.165323 6.30538e-20)
(0.881529 0.162854 -2.62058e-19)
(0.880114 0.159859 -2.09207e-19)
(0.878457 0.15601 3.95347e-19)
(0.876162 0.151627 2.78185e-19)
(0.872725 0.146542 -1.9459e-18)
(0.867444 0.140446 1.67546e-18)
(0.85843 0.132351 -1.03849e-19)
(0.845797 0.114745 5.01284e-18)
(0.837417 0.0766836 -1.01118e-17)
(0.85787 0.0199577 1.95263e-17)
(0.9235 -0.0116247 -4.8465e-18)
(0.995746 0.0102614 7.43729e-19)
(0.995858 0.0134279 9.9649e-19)
(0.874284 0.171231 -5.22853e-20)
(0.872398 0.169071 -1.61915e-20)
(0.870725 0.166112 8.18156e-20)
(0.868926 0.162566 3.99376e-19)
(0.866909 0.158076 -5.57153e-19)
(0.864246 0.153045 -1.27241e-18)
(0.860461 0.14731 1.59405e-18)
(0.8546 0.140593 -1.9237e-18)
(0.844635 0.131976 8.48155e-20)
(0.830648 0.11172 -4.37298e-18)
(0.823253 0.0673697 1.22466e-17)
(0.851958 0.00609153 -5.03012e-18)
(0.928362 -0.0205752 1.87676e-18)
(1.00266 0.00892873 2.59775e-18)
(0.997609 0.0112276 7.98304e-18)
(0.863673 0.175562 -6.10498e-20)
(0.861296 0.172944 -3.55622e-20)
(0.859149 0.169431 -2.55341e-20)
(0.856894 0.165246 1.70364e-20)
(0.854438 0.160002 2.56752e-19)
(0.85138 0.154137 3.58309e-19)
(0.847107 0.147699 -6.93743e-19)
(0.840705 0.140349 1.05442e-18)
(0.829586 0.130885 4.54094e-18)
(0.81421 0.107321 8.07685e-19)
(0.808724 0.055686 -6.57932e-18)
(0.847599 -0.00915307 -3.72064e-18)
(0.935072 -0.0289655 4.11578e-18)
(1.01023 0.00791222 -6.56007e-19)
(0.999763 0.00897793 -2.9168e-18)
(0.852359 0.180205 2.61257e-20)
(0.8494 0.177187 -9.14649e-20)
(0.846704 0.172982 1.50125e-19)
(0.843912 0.167991 -4.78178e-19)
(0.84097 0.161797 1.44247e-19)
(0.837433 0.154987 1.36667e-18)
(0.832691 0.147609 6.4579e-19)
(0.825628 0.139473 4.37541e-19)
(0.813283 0.1293 -1.48081e-18)
(0.796592 0.101564 3.42133e-18)
(0.794355 0.0418016 -8.02019e-18)
(0.845419 -0.0253028 2.32895e-17)
(0.94368 -0.0365083 9.1237e-19)
(1.01814 0.0072616 -2.28112e-18)
(1.00153 0.00575922 -1.13112e-17)
(0.840173 0.185176 -1.5138e-20)
(0.836542 0.181572 3.48449e-20)
(0.833226 0.176586 -1.7871e-19)
(0.829839 0.170648 6.79615e-19)
(0.826388 0.163349 -3.27491e-19)
(0.822315 0.155327 -9.83534e-19)
(0.81713 0.147012 9.12005e-21)
(0.809485 0.138074 1.02393e-19)
(0.795709 0.126763 -9.48105e-18)
(0.777805 0.0937967 8.281e-18)
(0.780516 0.0253001 7.74962e-18)
(0.845636 -0.0420954 -1.0897e-17)
(0.954062 -0.0429707 -1.44459e-19)
(1.02644 0.00672118 -3.889e-18)
(1.00381 0.00253489 6.42554e-18)
(0.826976 0.190259 -2.56923e-20)
(0.822582 0.186132 -7.16091e-20)
(0.818566 0.180188 1.2777e-19)
(0.814564 0.173089 -4.60337e-19)
(0.810507 0.164506 1.47874e-19)
(0.806006 0.155194 -7.50827e-21)
(0.800444 0.145566 1.78206e-18)
(0.792136 0.135886 -3.61385e-18)
(0.776856 0.12361 9.45489e-18)
(0.758119 0.0840645 -6.10878e-18)
(0.76793 0.00660149 6.23476e-18)
(0.848738 -0.0588382 -5.23663e-18)
(0.966036 -0.0483196 5.98059e-20)
(1.03463 0.00594166 -4.87173e-18)
(1.00575 -0.00243525 1.99046e-18)
(0.813093 0.195508 -3.33639e-20)
(0.807783 0.190558 -3.82327e-20)
(0.802891 0.183475 2.36416e-19)
(0.798083 0.175162 -8.15311e-20)
(0.793417 0.165102 1.49473e-19)
(0.788461 0.154078 -8.50565e-19)
(0.782562 0.143373 -1.27941e-18)
(0.773816 0.133052 6.31507e-18)
(0.75663 0.119012 -4.08014e-18)
(0.737733 0.0716968 -6.7389e-18)
(0.757123 -0.0143973 -1.22625e-17)
(0.854705 -0.0752193 8.78363e-18)
(0.979282 -0.0525362 -6.03095e-18)
(1.04285 0.00457844 7.51326e-18)
(1.00833 -0.00780845 -8.04333e-18)
(0.798541 0.201169 -3.75421e-20)
(0.792195 0.195492 1.08198e-19)
(0.786266 0.18707 -1.43465e-19)
(0.780512 0.177014 1.8863e-19)
(0.775139 0.165073 -1.00026e-19)
(0.76975 0.152258 4.87493e-19)
(0.763622 0.139952 -1.3282e-18)
(0.754263 0.12931 2.46223e-18)
(0.735023 0.113374 -6.78824e-18)
(0.717151 0.0567748 -1.15509e-18)
(0.748851 -0.0369254 -8.45249e-18)
(0.86372 -0.0904558 -2.30538e-18)
(0.993437 -0.0559258 1.10824e-18)
(1.05046 0.00186699 5.33442e-18)
(1.01073 -0.0162073 2.41129e-17)
(0.783099 0.207163 1.1294e-20)
(0.775621 0.200532 -4.42116e-20)
(0.768568 0.190537 2.3742e-20)
(0.761806 0.178599 -3.59969e-19)
(0.755703 0.1644 6.78615e-19)
(0.749829 0.149246 -9.75854e-19)
(0.743616 0.13576 1.4544e-18)
(0.733643 0.124775 -9.21354e-18)
(0.711749 0.105244 1.23713e-17)
(0.696723 0.0386915 8.17482e-19)
(0.743697 -0.0606706 1.31578e-17)
(0.875564 -0.104366 -1.66297e-18)
(1.00809 -0.0586873 1.17059e-17)
(1.05783 -0.00223158 -4.38595e-18)
(1.01393 -0.0251653 -3.01574e-17)
(0.766769 0.213524 1.30746e-20)
(0.75808 0.205876 -9.78376e-20)
(0.749797 0.194024 -1.1225e-19)
(0.741943 0.179713 9.00958e-19)
(0.734988 0.163018 -7.41662e-19)
(0.728842 0.145395 1.20544e-18)
(0.72248 0.130055 -2.52295e-18)
(0.711441 0.11925 1.44807e-18)
(0.68697 0.0951 2.9657e-18)
(0.677366 0.0177403 2.12402e-17)
(0.742204 -0.0846479 -8.15944e-19)
(0.88991 -0.116699 -3.24843e-18)
(1.02268 -0.0618356 8.09013e-18)
(1.06411 -0.0092952 -3.35636e-18)
(1.01739 -0.0386575 1.50676e-17)
(0.749887 0.220207 3.20086e-20)
(0.739815 0.211191 -1.38138e-20)
(0.730105 0.197285 -4.22098e-20)
(0.720928 0.180566 1.33781e-19)
(0.713136 0.160797 7.93195e-19)
(0.706694 0.140259 1.19023e-18)
(0.700175 0.123928 4.63373e-19)
(0.688174 0.112936 4.22925e-18)
(0.660596 0.0809827 -5.06336e-18)
(0.659833 -0.0059208 -2.90914e-17)
(0.745124 -0.107943 1.25057e-17)
(0.906607 -0.127702 6.3302e-18)
(1.03688 -0.0657803 -2.43586e-17)
(1.06997 -0.0190047 4.20777e-18)
(1.02163 -0.053394 1.36804e-17)
(0.732652 0.227466 -1.62583e-20)
(0.720975 0.217273 -1.09815e-19)
(0.709525 0.200978 1.19009e-19)
(0.698812 0.181056 -6.35174e-19)
(0.690116 0.157873 2.82292e-19)
(0.683506 0.134466 4.0856e-19)
(0.676807 0.116504 1.90501e-18)
(0.663439 0.105879 6.89637e-19)
(0.633075 0.0635046 -2.50411e-18)
(0.645577 -0.0312147 4.09141e-18)
(0.752895 -0.129466 -1.17632e-17)
(0.92487 -0.138541 1.74753e-18)
(1.05004 -0.0726894 2.08972e-17)
(1.07435 -0.0339879 -1.9974e-18)
(1.02661 -0.0747798 -1.66027e-17)
(0.714871 0.235497 -2.11516e-20)
(0.701389 0.224073 1.92845e-19)
(0.68798 0.204921 -5.20951e-19)
(0.675617 0.181457 4.77591e-19)
(0.666014 0.154149 -1.25004e-18)
(0.659217 0.127649 -8.53751e-20)
(0.652655 0.109318 -2.82814e-19)
(0.637708 0.0976896 -5.18344e-18)
(0.604642 0.0401015 4.35373e-18)
(0.637239 -0.0526983 1.24476e-17)
(0.768422 -0.146743 1.08599e-17)
(0.946145 -0.14844 -6.4912e-18)
(1.06246 -0.0824784 -2.55522e-17)
(1.07822 -0.0531504 2.64591e-20)
(1.03197 -0.0988803 3.26773e-18)
(0.696738 0.244284 -5.98215e-20)
(0.681277 0.231497 -2.50979e-20)
(0.665667 0.209103 4.41988e-19)
(0.651426 0.181344 -4.98446e-19)
(0.640963 0.149874 -1.79048e-18)
(0.634566 0.120331 1.7686e-18)
(0.627409 0.100639 -6.62975e-18)
(0.610933 0.0888276 3.71149e-18)
(0.575781 0.0102761 -2.19383e-18)
(0.606869 -0.107922 1.71702e-18)
(0.791791 -0.18194 -1.41932e-18)
(0.969092 -0.169239 7.18074e-20)
(1.07325 -0.101203 2.84033e-17)
(1.08031 -0.0809494 -2.5062e-18)
(1.03829 -0.131985 -1.53669e-17)
(0.678584 0.253865 6.36443e-20)
(0.660943 0.239682 -1.43302e-20)
(0.64278 0.213606 -9.83689e-20)
(0.62684 0.181208 2.60757e-19)
(0.615953 0.144555 1.52135e-18)
(0.609805 0.112766 -5.07125e-18)
(0.602099 0.0937965 1.09704e-18)
(0.58348 0.0785645 -1.35808e-18)
(0.543068 -0.0402623 -6.21664e-18)
(0.657871 -0.12727 3.94364e-18)
(1.04842 -0.149067 -1.30699e-17)
(1.03848 -0.187243 -3.59276e-18)
(1.09045 -0.128276 -1.34379e-17)
(1.08277 -0.116975 6.11234e-18)
(1.04369 -0.167229 1.0017e-17)
(0.661147 0.264451 3.20279e-20)
(0.641125 0.248702 -1.59225e-20)
(0.620637 0.218166 -4.02719e-19)
(0.602701 0.180013 1.21601e-18)
(0.591573 0.139744 4.5644e-19)
(0.585758 0.106466 4.33468e-18)
(0.575818 0.0864029 9.78693e-19)
(0.555299 0.0651045 1.28317e-19)
(0.516346 -0.104544 7.8043e-18)
(0.82654 -0.0662944 -1.02938e-17)
(1.5512 0.094027 8.13998e-18)
(1.18325 -0.165901 1.07753e-17)
(1.12351 -0.163999 -1.42903e-18)
(1.08773 -0.166787 -4.19312e-18)
(1.05065 -0.210566 -2.94946e-17)
(0.645433 0.275922 -1.04388e-20)
(0.623 0.257977 7.73455e-20)
(0.599058 0.222757 -5.20773e-19)
(0.579008 0.179824 8.92835e-19)
(0.567003 0.134719 -1.19734e-18)
(0.561586 0.101664 -1.47644e-18)
(0.551304 0.081197 -5.51523e-18)
(0.530361 0.047249 -4.29797e-18)
(0.547598 -0.100905 7.49716e-18)
(1.03075 0.0621749 -8.24053e-18)
(1.69192 0.118875 -5.87601e-18)
(1.28516 -0.180507 -1.09861e-17)
(1.1451 -0.209093 -8.58169e-18)
(1.09299 -0.226636 5.37937e-18)
(1.05566 -0.260713 4.6119e-17)
(0.632277 0.288584 -7.93833e-20)
(0.606493 0.269644 1.76515e-20)
(0.578526 0.229724 2.80397e-19)
(0.555029 0.179953 8.90492e-19)
(0.542692 0.131564 6.05847e-19)
(0.53936 0.0984341 -6.31032e-19)
(0.532332 0.082699 4.92002e-18)
(0.517767 0.0612782 3.81579e-18)
(0.65118 0.00090403 -1.00705e-17)
(1.15141 0.124228 -6.2098e-18)
(1.56538 0.0649052 3.83486e-18)
(1.33875 -0.286398 1.7252e-18)
(1.16371 -0.281421 8.34908e-18)
(1.0952 -0.305676 -1.62521e-17)
(1.05216 -0.317717 -1.19351e-17)
(0.62434 0.304692 4.73111e-22)
(0.59578 0.285478 -3.50609e-20)
(0.564588 0.241705 6.06489e-19)
(0.540697 0.187133 -3.13663e-18)
(0.528955 0.134235 -3.24789e-19)
(0.536457 0.110129 -1.17925e-18)
(0.527209 0.115761 -5.52718e-19)
(0.53365 0.136667 1.99545e-18)
(0.745319 0.0943944 5.01128e-18)
(1.18446 0.103304 -3.99582e-17)
(1.5043 -0.112429 1.30292e-18)
(1.35009 -0.3957 -1.69018e-19)
(1.16684 -0.357371 1.6575e-18)
(1.08695 -0.392015 -3.19994e-19)
(1.03727 -0.366471 -9.77418e-19)
(0.6199 0.319986 6.97429e-20)
(0.584739 0.299201 -1.23352e-19)
(0.542347 0.246291 -1.01781e-18)
(0.50967 0.180703 1.54262e-18)
(0.503675 0.128451 -7.52443e-19)
(0.528789 0.133138 1.39399e-18)
(0.533913 0.184047 -4.71893e-18)
(0.578074 0.232569 -1.26264e-17)
(0.807883 0.130121 -1.27655e-17)
(1.17334 -0.0094581 1.35664e-16)
(1.4381 -0.243091 -4.53014e-18)
(1.3102 -0.414705 8.0481e-19)
(1.1102 -0.518977 -1.06165e-18)
(1.04691 -0.523572 2.57968e-17)
(1.01175 -0.406622 -7.30672e-18)
(0.607199 0.342485 -2.30519e-19)
(0.562375 0.322738 1.19541e-19)
(0.517549 0.265221 4.32022e-19)
(0.49655 0.18699 3.64747e-18)
(0.502502 0.125082 -1.7615e-18)
(0.545447 0.181709 5.10232e-18)
(0.553586 0.258081 6.74072e-18)
(0.626932 0.282055 2.27734e-17)
(0.829167 0.0662428 4.11835e-17)
(1.14217 -0.231121 -1.41813e-16)
(1.42632 -0.396168 -4.91412e-18)
(1.27615 -0.463659 -2.37332e-19)
(1.08279 -0.537759 -1.92832e-18)
(1.01455 -0.577531 -2.87057e-17)
(0.991509 -0.400448 -3.59246e-18)
(0.614782 0.382496 1.64275e-19)
(0.567873 0.377304 -7.53344e-20)
(0.545223 0.317018 -5.6535e-19)
(0.556527 0.242092 -3.98924e-18)
(0.606595 0.214641 7.55421e-19)
(0.627125 0.277402 -4.25773e-18)
(0.578093 0.295479 1.46596e-17)
(0.643555 0.255172 -8.39012e-18)
(0.820471 -0.0458795 -5.78494e-17)
(0.951105 -0.439798 7.41923e-17)
(1.31759 -0.606966 -2.72464e-18)
(1.23282 -0.569087 6.61053e-19)
(1.072 -0.505337 5.25984e-19)
(1.00867 -0.543597 2.20408e-17)
(0.98371 -0.341445 1.02832e-17)
(0.698928 0.41293 3.13849e-19)
(0.672887 0.406709 6.37613e-19)
(0.685862 0.34328 2.63647e-19)
(0.737833 0.312504 -1.90549e-19)
(0.76672 0.366611 4.52229e-18)
(0.696828 0.399504 7.87375e-19)
(0.577625 0.295441 1.64696e-17)
(0.601544 0.0939964 7.07593e-18)
(0.819439 -0.183681 5.28668e-17)
(0.753311 -0.587453 -2.85725e-17)
(1.16532 -0.683337 2.42756e-18)
(1.10301 -0.590793 -6.31125e-19)
(1.02715 -0.489323 8.55752e-19)
(0.995204 -0.470326 1.8239e-17)
(0.976031 -0.227979 -2.33349e-18)
(0.86312 0.373152 -2.68317e-19)
(0.916888 0.315901 -2.32791e-21)
(0.956333 0.242952 1.10744e-19)
(0.998602 0.302753 -1.33259e-18)
(0.88836 0.483855 -6.19365e-18)
(0.6794 0.496848 7.83284e-18)
(0.537741 0.271627 -8.65188e-18)
(0.537541 -0.081393 -5.99447e-17)
(0.551468 -0.431234 -5.63133e-17)
(0.428701 -0.574485 -3.57673e-18)
(0.905269 -0.697786 6.61641e-18)
(0.906041 -0.562718 -4.23745e-18)
(0.913426 -0.411025 9.24898e-18)
(0.938046 -0.325401 -2.72553e-17)
(0.939117 -0.0658404 2.30485e-18)
(0.856507 0.261873 -3.4625e-19)
(0.986688 0.0991729 -1.64271e-18)
(1.18773 -0.0141451 -9.03563e-19)
(1.20799 0.156305 1.56981e-18)
(0.93892 0.517223 5.44151e-18)
(0.619348 0.517613 -3.33259e-17)
(0.408644 0.0919721 -3.8819e-17)
(0.436497 -0.332177 1.22636e-16)
(0.539317 -0.132923 3.50837e-17)
(0.157725 -0.388012 6.2148e-18)
(0.548277 -0.624732 -2.50183e-20)
(0.660526 -0.421536 1.36181e-17)
(0.751838 -0.220889 -1.4942e-17)
(0.836877 -0.105339 8.44944e-18)
(0.865663 0.127943 -3.70542e-18)
(0.863712 -0.161365 -2.2464e-19)
(0.893535 -0.29541 1.20261e-18)
(1.10895 -0.341274 3.35264e-19)
(1.23218 -0.0908603 -1.2652e-18)
(1.02031 0.52645 -3.97767e-18)
(0.472563 0.405866 3.45556e-17)
(0.529706 -0.042917 -3.56719e-17)
(0.786601 0.0662429 -8.91327e-17)
(0.556924 0.486716 1.6205e-17)
(-0.04772 -0.148515 5.88832e-18)
(0.20863 -0.399321 1.85598e-18)
(0.428953 -0.140113 -2.86407e-17)
(0.570262 0.0832232 4.1738e-17)
(0.704947 0.158469 -2.37529e-18)
(0.757833 0.326241 -1.45355e-18)
(0.657346 -0.445167 4.2545e-19)
(0.669905 -0.339596 -6.61195e-19)
(0.771834 -0.31931 8.73214e-19)
(0.988538 -0.24335 3.05051e-18)
(1.12037 0.520327 2.75421e-18)
(0.8522 0.729738 -2.7555e-17)
(0.654387 0.514721 -1.77856e-18)
(0.516399 0.726795 1.0622e-17)
(0.0508199 0.292158 -1.44082e-17)
(-0.155089 0.0445787 9.96796e-18)
(0.0477355 -0.0141781 3.20654e-18)
(0.281427 0.257062 9.18865e-18)
(0.41812 0.474593 -4.87284e-17)
(0.565444 0.418081 1.95275e-18)
(0.622161 0.475552 -6.08623e-20)
(0.359023 -0.468659 -1.31832e-19)
(0.316322 -0.264583 -1.21263e-18)
(0.374833 -0.065349 -2.60568e-18)
(0.698019 -0.211444 -2.76173e-18)
(1.53296 0.673197 1.76854e-18)
(0.441738 0.202172 6.94305e-18)
(-1.06312 -0.201563 1.90573e-17)
(-0.646638 0.0034997 2.12892e-20)
(-0.333893 -0.171649 -6.60096e-18)
(-0.040192 0.304861 -1.07122e-17)
(0.0604264 0.422948 3.88625e-17)
(0.238792 0.693999 3.29801e-17)
(0.300381 0.887732 2.3828e-17)
(0.413248 0.599185 -2.29129e-18)
(0.448457 0.504464 1.57546e-18)
(-0.0526285 -0.113961 2.52284e-19)
(-0.108598 0.027534 1.20008e-18)
(-0.0608093 0.275393 4.09497e-18)
(0.326346 0.0327038 -3.13769e-18)
(0.586909 0.275273 -4.74763e-18)
(-1.08248 -0.899508 -5.40447e-19)
(-1.24353 -0.623394 1.28911e-17)
(-0.397429 0.00881976 5.59977e-18)
(0.37502 0.655975 3.43799e-17)
(0.449519 1.25107 -6.65881e-17)
(0.129464 0.876158 -7.22204e-17)
(0.16926 1.02803 -3.5052e-17)
(0.104167 1.01243 2.40039e-17)
(0.211091 0.57227 -3.74122e-19)
(0.231424 0.349421 5.86173e-19)
(-0.509339 0.171602 -2.70083e-19)
(-0.585564 0.175662 6.36989e-19)
(-0.5315 0.408704 1.37299e-18)
(-0.360826 0.429592 3.59899e-18)
(-0.0508633 0.208092 -4.82812e-19)
(-0.226427 -0.403524 1.10935e-17)
(-0.750131 -0.393484 -2.31587e-17)
(0.0391639 0.291302 -7.22007e-17)
(0.761661 1.18383 -2.67784e-16)
(0.220357 1.59987 1.63613e-16)
(0.0159975 1.23163 -1.40888e-16)
(-0.0377758 0.606076 2.96348e-17)