/*--------------------------------*- C++ -*----------------------------------*\
  =========                 |
  \\      /  F ield         | OpenFOAM: The Open Source CFD Toolbox
   \\    /   O peration     | Website:  https://openfoam.org
    \\  /    A nd           | Version:  6.0
     \\/     M anipulation  |
\*---------------------------------------------------------------------------*/
FoamFile
{
    version     2.0;
    format      ascii;
    class       surfaceScalarField;
    location    "17";
    object      phi;
}
// * * * * * * * * * * * * * * * * * * * * * * * * * * * * * * * * * * * * * //

dimensions      [0 3 -1 0 0 0 0];

internalField   nonuniform List<scalar> 
9714
(
-0.00010648
8.2362e-05
0.00011262
-9.81112e-05
0.000114493
-8.64001e-05
0.000159164
-7.01851e-05
0.00022128
-4.74617e-05
0.000307582
-1.56458e-05
0.000427427
2.91166e-05
0.000593605
9.20101e-05
0.000823435
0.000180085
0.00113918
0.000302478
0.00156645
0.000469979
0.00212594
0.000692601
0.00280524
0.000970749
0.0034799
0.00127038
0.00371702
0.00237583
0.00144175
-0.000100402
7.67885e-05
0.000106103
-9.26416e-05
0.000106745
-8.17941e-05
0.00014838
-6.67623e-05
0.000206255
-4.57131e-05
0.00028657
-1.62194e-05
0.000397953
2.52531e-05
0.000552144
8.35364e-05
0.000765167
0.000165148
0.00105759
0.000278571
0.00145304
0.000433814
0.00197068
0.000640187
0.00259878
0.000897975
0.00322195
0.00117301
0.00344146
0.00221123
0.00133572
-9.47008e-05
7.16263e-05
9.99842e-05
-8.75109e-05
9.95686e-05
-7.74629e-05
0.000138392
-6.35372e-05
0.000192338
-4.4039e-05
0.000267107
-1.67188e-05
0.000370651
2.16979e-05
0.000513739
7.5691e-05
0.000711188
0.000151308
0.00098199
0.000256417
0.00134795
0.000400312
0.00182676
0.00059163
0.00240739
0.000830623
0.00298292
0.00108599
0.00318614
0.00205706
0.00124086
-8.92993e-05
6.68438e-05
9.42104e-05
-8.26289e-05
9.29214e-05
-7.33233e-05
0.000129141
-6.04215e-05
0.000179449
-4.23643e-05
0.000249082
-1.70583e-05
0.000345365
1.85251e-05
0.000478164
6.85457e-05
0.000661183
0.00013861
0.000911946
0.000236018
0.00125055
0.000369403
0.00169337
0.000546761
0.00222998
0.000768356
0.00276123
0.00100564
0.00294848
0.0019093
0.00115178
-8.42173e-05
6.24126e-05
8.87771e-05
-7.80353e-05
8.67624e-05
-6.94095e-05
0.00012057
-5.74549e-05
0.000167509
-4.07248e-05
0.000232384
-1.7284e-05
0.000321941
1.56792e-05
0.000445211
6.20172e-05
0.000614857
0.00012693
0.000847052
0.000217193
0.00116031
0.000340804
0.00156974
0.000505185
0.00206554
0.000710579
0.00255586
0.000930876
0.00272837
0.00177275
0.00106841
-7.94735e-05
5.83029e-05
8.36893e-05
-7.37399e-05
8.10501e-05
-6.57476e-05
0.000112622
-5.46632e-05
0.000156438
-3.91583e-05
0.000216906
-1.74349e-05
0.000300235
1.31032e-05
0.00041468
5.60291e-05
0.000571943
0.000116163
0.00078694
0.000199778
0.00107671
0.000314305
0.00145521
0.000466622
0.00191318
0.000656957
0.00236548
0.00086139
0.00252362
0.00164185
0.00099079
-7.49959e-05
5.44979e-05
7.89289e-05
-6.96828e-05
7.57604e-05
-6.2271e-05
0.000105261
-5.20022e-05
0.000146184
-3.76363e-05
0.000202569
-1.75137e-05
0.000280128
1.07746e-05
0.0003864
5.05345e-05
0.000532195
0.000106229
0.000731262
0.000183679
0.000999283
0.000289757
0.00134911
0.000430867
0.00177201
0.000607233
0.00218916
0.000796867
0.00233425
0.00152159
0.000918282
-7.0837e-05
5.09665e-05
7.44388e-05
-6.59168e-05
7.08497e-05
-5.90487e-05
9.84276e-05
-4.95221e-05
0.000136668
-3.61996e-05
0.000189271
-1.75434e-05
0.000261489
8.66592e-06
0.000360196
4.54931e-05
0.000495378
9.70759e-05
0.000679702
0.000168795
0.000927572
0.000267036
0.00125087
0.00039775
0.00164126
0.000561183
0.00202571
0.000737032
0.00215811
0.00140692
0.000850316
-6.68152e-05
4.77051e-05
7.02263e-05
-6.22511e-05
6.63144e-05
-5.58816e-05
9.21156e-05
-4.70696e-05
0.000127874
-3.4742e-05
0.000176974
-1.74794e-05
0.000244242
6.78279e-06
0.000335941
4.08801e-05
0.00046129
8.86378e-05
0.000631958
0.000155052
0.000861185
0.000246018
0.00115986
0.000367086
0.00152011
0.000518528
0.00187433
0.000681555
0.0019954
0.00130313
0.000786894
-6.31203e-05
4.46764e-05
6.62156e-05
-5.89006e-05
6.21016e-05
-5.30026e-05
8.6253e-05
-4.48294e-05
0.00011971
-3.33985e-05
0.000165566
-1.73966e-05
0.000228256
5.07575e-06
0.00031347
3.66477e-05
0.000429724
8.08694e-05
0.000587757
0.000142349
0.000799699
0.00022658
0.00107563
0.000338712
0.00140796
0.000479048
0.00173402
0.000630182
0.00184401
0.00120414
0.00072798
-5.95295e-05
4.18821e-05
6.24654e-05
-5.56194e-05
5.82153e-05
-5.01574e-05
8.08438e-05
-4.26072e-05
0.000112173
-3.20401e-05
0.000155025
-1.72441e-05
0.00021347
3.55084e-06
0.000292677
3.27741e-05
0.000400504
7.37012e-05
0.000546831
0.000130627
0.000742798
0.000208607
0.000997591
0.000312457
0.00130402
0.000442497
0.00160405
0.000582613
0.00170425
0.00111499
0.000673536
-5.62733e-05
3.92843e-05
5.89099e-05
-5.26627e-05
5.46019e-05
-4.76113e-05
7.58156e-05
-4.06097e-05
0.000105171
-3.08127e-05
0.000145243
-1.7098e-05
0.000199763
2.15886e-06
0.000273412
2.92095e-05
0.000373446
6.7104e-05
0.000508948
0.000119787
0.000690086
0.00019199
0.00092538
0.000288182
0.00120785
0.000408697
0.0014836
0.000538616
0.00157411
0.00102942
0.000623255
-5.31254e-05
3.68875e-05
5.56221e-05
-4.97827e-05
5.12689e-05
-4.51108e-05
7.11767e-05
-3.86462e-05
9.87072e-05
-2.95921e-05
0.000136202
-1.69133e-05
0.000187083
9.03249e-07
0.000255582
2.59409e-05
0.000348395
6.10053e-05
0.000473858
0.000109794
0.000641315
0.000176639
0.000858463
0.000265737
0.00111865
0.000377438
0.00137197
0.000497919
0.00145404
0.000952571
0.000576893
-5.03246e-05
3.46533e-05
5.25379e-05
-4.72373e-05
4.81615e-05
-4.29129e-05
6.68541e-05
-3.69091e-05
9.26913e-05
-2.85088e-05
0.000127802
-1.67528e-05
0.00017532
-2.54295e-07
0.000239055
2.29171e-05
0.000325183
5.53989e-05
0.000441387
0.000100551
0.000596133
0.000162454
0.000796561
0.000245009
0.00103615
0.000348568
0.00126852
0.000460317
0.00134206
0.000878139
0.000534068
-4.75828e-05
3.25954e-05
4.97407e-05
-4.4711e-05
4.53011e-05
-4.07004e-05
6.28751e-05
-3.51684e-05
8.71471e-05
-2.74149e-05
0.000120049
-1.65608e-05
0.000164445
-1.31373e-06
0.000223759
2.01596e-05
0.000303715
5.02174e-05
0.000411317
9.2038e-05
0.000554329
0.000149362
0.000739162
0.000225867
0.000959553
0.000321896
0.00117255
0.000425566
0.00123883
0.000811848
0.000494544
-4.52013e-05
3.06699e-05
4.70874e-05
-4.255e-05
4.26239e-05
-3.88378e-05
5.91541e-05
-3.36882e-05
8.19737e-05
-2.64867e-05
0.000112833
-1.64291e-05
0.00015435
-2.25946e-06
0.0002096
1.76064e-05
0.000283822
4.54525e-05
0.000383484
8.41674e-05
0.000515601
0.000137277
0.000686056
0.000208216
0.000888715
0.000297295
0.0010836
0.000393482
0.00114232
0.000746779
0.000457986
-4.28137e-05
2.89007e-05
4.46851e-05
-4.03458e-05
4.01664e-05
-3.69136e-05
5.57386e-05
-3.21682e-05
7.72182e-05
-2.55392e-05
0.000106186
-1.62106e-05
0.000145034
-3.14548e-06
0.000196485
1.52744e-05
0.000265417
4.10579e-05
0.000357699
7.69226e-05
0.000479708
0.00012614
0.000636737
0.000191939
0.000822805
0.000274591
0.00100097
0.000363848
0.00105332
0.000689124
0.000424212
-4.07989e-05
2.724e-05
4.24081e-05
-3.85205e-05
3.78582e-05
-3.53381e-05
5.25335e-05
-3.09197e-05
7.27654e-05
-2.47355e-05
9.9981e-05
-1.61125e-05
0.000136355
-3.93784e-06
0.000184328
1.31159e-05
0.000248329
3.70053e-05
0.000333777
7.02381e-05
0.000446433
0.000115877
0.000591098
0.000176961
0.000761855
0.000253674
0.00092436
0.000336504
0.000969967
0.000632006
0.00039296
-3.88064e-05
2.57086e-05
4.03606e-05
-3.66862e-05
3.57304e-05
-3.37458e-05
4.95778e-05
-2.96603e-05
6.8654e-05
-2.39545e-05
9.42415e-05
-1.59201e-05
0.000128325
-4.69037e-06
0.000173029
1.11408e-05
0.000232489
3.32908e-05
0.000311598
6.41069e-05
0.000415552
0.000106442
0.000548615
0.000163177
0.000704981
0.000234389
0.000853116
0.000311261
0.000893366
0.000582168
0.000364083
-3.70772e-05
2.42688e-05
3.83935e-05
-3.51156e-05
3.3728e-05
-3.23853e-05
4.67986e-05
-2.85734e-05
6.4797e-05
-2.32401e-05
8.88753e-05
-1.58149e-05
0.000120831
-5.3281e-06
0.000162553
9.3367e-06
0.000217764
2.98812e-05
0.000290995
5.84654e-05
0.0003869
9.7773e-05
0.000509313
0.000150528
0.000652397
0.000216649
0.000787067
0.000287973
0.000821314
0.000531965
0.000337367
-3.52745e-05
2.29499e-05
3.66114e-05
-3.34401e-05
3.18949e-05
-3.09186e-05
4.42523e-05
-2.7404e-05
6.12539e-05
-2.24972e-05
8.39281e-05
-1.55796e-05
0.00011391
-5.92382e-06
0.000152809
7.71047e-06
0.000204113
2.67796e-05
0.000271876
5.33189e-05
0.000360262
8.98309e-05
0.000472613
0.000138919
0.000603158
0.00020031
0.000725576
0.000266487
0.000755142
0.000488648
0.000312681
-3.37577e-05
2.17056e-05
3.48752e-05
-3.20583e-05
3.01635e-05
-2.97128e-05
4.185e-05
-2.64277e-05
5.79211e-05
-2.18329e-05
7.92934e-05
-1.54429e-05
0.000107438
-6.39987e-06
0.000143772
6.23685e-06
0.000191394
2.39467e-05
0.000254083
4.86032e-05
0.000335539
8.25649e-05
0.000438688
0.000128304
0.000557636
0.000185297
0.000668581
0.000246674
0.000692758
0.00044434
0.000289848
-3.21955e-05
2.05602e-05
3.32978e-05
-3.06092e-05
2.85702e-05
-2.84444e-05
3.96373e-05
-2.54062e-05
5.48439e-05
-2.11661e-05
7.50015e-05
-1.51862e-05
0.000101443
-6.85014e-06
0.000135335
4.92843e-06
0.00017959
2.1401e-05
0.000237546
4.43322e-05
0.000312483
7.59405e-05
0.000406863
0.000118593
0.000514809
0.000171484
0.000615623
0.000228405
0.000636036
0.000406828
0.000268751
-3.08461e-05
1.94777e-05
3.17643e-05
-2.93685e-05
2.70626e-05
-2.73486e-05
3.75465e-05
-2.45014e-05
5.19454e-05
-2.05225e-05
7.09758e-05
-1.49902e-05
9.58287e-05
-7.16204e-06
0.000127508
3.76346e-06
0.000168554
1.90956e-05
0.000222125
4.04437e-05
0.000291079
6.99205e-05
0.000377477
0.000109759
0.000475245
0.00015881
0.00056649
0.000211549
0.000582033
0.000367717
0.000249242
-2.94191e-05
1.84855e-05
3.03741e-05
-2.8025e-05
2.56817e-05
-2.61571e-05
3.56288e-05
-2.35234e-05
4.92777e-05
-1.9846e-05
6.72546e-05
-1.46626e-05
9.06301e-05
-7.45647e-06
0.00012018
2.76823e-06
0.000158317
1.70583e-05
0.000207759
3.6958e-05
0.00027104
6.44712e-05
0.000349699
0.000101705
0.000437836
0.000147158
0.000520887
0.000196013
0.000533377
0.000335309
0.000231213
-2.82021e-05
1.75468e-05
2.90117e-05
-2.68897e-05
2.43738e-05
-2.51371e-05
3.38153e-05
-2.26579e-05
4.67637e-05
-1.9198e-05
6.37618e-05
-1.44052e-05
8.5754e-05
-7.59989e-06
0.000113386
1.89324e-06
0.0001487
1.52348e-05
0.000194334
3.38071e-05
0.000252438
5.95699e-05
0.000324114
9.4412e-05
0.000403269
0.000136479
0.000478519
0.000181672
0.000486467
0.000300689
0.00021453
-2.69481e-05
1.66809e-05
2.77627e-05
-2.57049e-05
2.31681e-05
-2.4077e-05
3.21419e-05
-2.17715e-05
4.44359e-05
-1.85572e-05
6.05163e-05
-1.40338e-05
8.12214e-05
-7.7512e-06
0.000106991
1.18042e-06
0.00013977
1.36578e-05
0.000181767
3.10204e-05
0.000234879
5.51714e-05
0.000299626
8.77842e-05
0.000370449
0.000126666
0.000439613
0.000168463
0.000445313
0.000272891
0.000199109
-2.58828e-05
1.58528e-05
2.65368e-05
-2.47043e-05
2.20135e-05
-2.31669e-05
3.05438e-05
-2.09748e-05
4.22262e-05
-1.7931e-05
5.74535e-05
-1.37201e-05
7.69521e-05
-7.75498e-06
0.000101043
5.59416e-07
0.000131299
1.22608e-05
0.000169962
2.85331e-05
0.000218589
5.12785e-05
0.00027716
8.18162e-05
0.000340151
0.000117678
0.000403149
0.000156247
0.000404457
0.000242296
0.000184826
-2.4708e-05
1.50981e-05
2.54353e-05
-2.3578e-05
2.09622e-05
-2.21452e-05
2.9084e-05
-2.01155e-05
4.01921e-05
-1.72815e-05
5.46116e-05
-1.33035e-05
7.29695e-05
-7.787e-06
9.53941e-05
9.66553e-08
0.000123411
1.10968e-05
0.000158795
2.63826e-05
0.000202994
4.78218e-05
0.000255283
7.63989e-05
0.00031125
0.000109422
0.000369934
0.000145004
0.000369594
0.000218597
0.000171632
-2.37202e-05
1.43737e-05
2.43315e-05
-2.26462e-05
1.99512e-05
-2.12903e-05
2.76837e-05
-1.93595e-05
3.82519e-05
-1.66755e-05
5.19125e-05
-1.29603e-05
6.91897e-05
-7.67437e-06
9.01093e-05
-3.08791e-07
0.000115806
1.00928e-05
0.000148261
2.45116e-05
0.000188616
4.48201e-05
0.000235356
7.15342e-05
0.00028459
0.000101864
0.00033843
0.000134588
0.00033369
0.000191524
0.000159385
-2.26977e-05
1.37029e-05
2.33177e-05
-2.16779e-05
1.90143e-05
-2.041e-05
2.63813e-05
-1.86151e-05
3.64346e-05
-1.6089e-05
4.9373e-05
-1.25416e-05
6.56207e-05
-7.61829e-06
8.50149e-05
-5.3703e-07
0.000108699
9.32689e-06
0.000138135
2.29524e-05
0.0001745
4.21782e-05
0.000215466
6.71116e-05
0.000259312
9.4922e-05
0.000310703
0.000125002
0.000304894
0.00017148
0.00014807
-2.1814e-05
1.30576e-05
2.23442e-05
-2.08436e-05
1.81113e-05
-1.96403e-05
2.51297e-05
-1.79219e-05
3.46982e-05
-1.55244e-05
4.69488e-05
-1.21825e-05
6.22086e-05
-7.40391e-06
8.02159e-05
-7.25624e-07
0.000101659
8.70781e-06
0.000128565
2.16727e-05
0.000161698
3.99519e-05
0.00019766
6.31514e-05
0.000235922
8.85574e-05
0.000283412
0.000116085
0.000273178
0.000147632
0.000137551
-2.09342e-05
1.24545e-05
2.14613e-05
-1.99997e-05
1.7267e-05
-1.88563e-05
2.3957e-05
-1.72513e-05
3.30611e-05
-1.4972e-05
4.46569e-05
-1.17487e-05
5.89735e-05
-7.28105e-06
7.55211e-05
-6.89304e-07
9.5234e-05
8.33719e-06
0.000119194
2.06719e-05
0.000148753
3.79835e-05
0.000179399
5.95389e-05
0.000213811
8.2719e-05
0.000260161
0.000107876
0.000249471
0.000130742
0.000127822
-2.01576e-05
1.18741e-05
2.06216e-05
-1.92452e-05
1.64553e-05
-1.8149e-05
2.28341e-05
-1.66105e-05
3.15033e-05
-1.44246e-05
4.24825e-05
-1.14006e-05
5.58923e-05
-6.90834e-06
7.12174e-05
-7.05815e-07
8.86227e-05
8.09253e-06
0.000110549
1.99244e-05
0.000137363
3.63534e-05
0.000163409
5.63101e-05
0.000193152
7.73597e-05
0.00023609
0.000100209
0.000221078
0.000109698
0.00011875
-1.93382e-05
1.13365e-05
1.98336e-05
-1.84686e-05
1.57018e-05
-1.74289e-05
2.1789e-05
-1.59694e-05
3.00451e-05
-1.38952e-05
4.04444e-05
-1.09165e-05
5.29735e-05
-6.76405e-06
6.68586e-05
-4.51625e-07
8.27972e-05
8.04611e-06
0.000101715
1.93787e-05
0.000125205
3.48631e-05
0.000146573
5.33519e-05
0.000174328
7.24476e-05
0.000217537
9.31432e-05
0.000202557
9.58132e-05
0.000110344
-1.86088e-05
1.08164e-05
1.90487e-05
-1.77532e-05
1.49741e-05
-1.6753e-05
2.07799e-05
-1.53248e-05
2.86426e-05
-1.34032e-05
3.84278e-05
-1.0585e-05
5.01012e-05
-6.31405e-06
6.28031e-05
-3.58836e-07
7.63052e-05
8.09478e-06
9.36392e-05
1.9074e-05
0.000115007
3.36556e-05
0.000132112
5.07165e-05
0.00015594
6.79024e-05
0.000195981
8.65072e-05
0.000177009
7.72874e-05
0.000102485
-1.78525e-05
1.03178e-05
1.83047e-05
-1.70627e-05
1.42692e-05
-1.60689e-05
1.97943e-05
-1.48231e-05
2.72359e-05
-1.28877e-05
3.64729e-05
-1.01201e-05
4.72235e-05
-6.13405e-06
5.84659e-05
5.2507e-08
7.07437e-05
8.31889e-06
8.49294e-05
1.88496e-05
0.000103567
3.24923e-05
0.000116695
4.83133e-05
0.00013992
6.3746e-05
0.000181448
8.03799e-05
0.000162959
6.5761e-05
9.51862e-05
-1.72126e-05
9.82903e-06
1.76141e-05
-1.64423e-05
1.35785e-05
-1.55209e-05
1.88259e-05
-1.42009e-05
2.58753e-05
-1.24324e-05
3.44658e-05
-9.74e-06
4.43533e-05
-5.56221e-06
5.43981e-05
2.51281e-07
6.42144e-05
8.62508e-06
7.71858e-05
1.88214e-05
9.43858e-05
3.15863e-05
0.000103271
4.62077e-05
0.000122995
5.98568e-05
0.000161581
7.46091e-05
0.000139563
4.90815e-05
8.83546e-05
-1.66015e-05
9.35078e-06
1.69805e-05
-1.58803e-05
1.28971e-05
-1.49443e-05
1.78651e-05
-1.3733e-05
2.449e-05
-1.18812e-05
3.25129e-05
-9.192e-06
4.13981e-05
-5.22412e-06
5e-05
7.86848e-07
5.8811e-05
9.02388e-06
6.8344e-05
1.87499e-05
8.35133e-05
3.06829e-05
8.876e-05
4.4313e-05
0.00011016
5.63113e-05
0.000151659
6.92612e-05
0.000130373
4.05256e-05
8.1993e-05
-1.60542e-05
8.88664e-06
1.64138e-05
-1.53415e-05
1.22334e-05
-1.44315e-05
1.69179e-05
-1.3137e-05
2.31251e-05
-1.13899e-05
3.04463e-05
-8.64564e-06
3.84253e-05
-4.48676e-06
4.57683e-05
1.10042e-06
5.23613e-05
9.4733e-06
6.05799e-05
1.88883e-05
7.51208e-05
3.012e-05
7.54905e-05
4.26714e-05
9.41789e-05
5.29144e-05
0.000133235
6.42309e-05
0.000108713
2.51048e-05
7.60533e-05
-1.55286e-05
8.43083e-06
1.58856e-05
-1.48503e-05
1.1572e-05
-1.39104e-05
1.5961e-05
-1.26742e-05
2.1703e-05
-1.07607e-05
2.8382e-05
-7.94508e-06
3.52517e-05
-3.89391e-06
4.11807e-05
1.68333e-06
4.72413e-05
9.87422e-06
5.16542e-05
1.89343e-05
6.47603e-05
2.96583e-05
6.21611e-05
4.12798e-05
8.5141e-05
4.98445e-05
0.000128643
5.95323e-05
0.000104312
1.91543e-05
7.04968e-05
-1.50675e-05
7.96927e-06
1.53979e-05
-1.43954e-05
1.08991e-05
-1.34573e-05
1.49805e-05
-1.20982e-05
2.0248e-05
-1.01535e-05
2.61461e-05
-7.18393e-06
3.19588e-05
-2.9231e-06
3.66879e-05
2.05743e-06
4.15836e-05
1.02043e-05
4.42746e-05
1.94144e-05
5.72236e-05
2.9733e-05
4.86887e-05
4.00725e-05
7.06268e-05
4.68206e-05
0.000112186
5.51769e-05
8.43303e-05
4.46018e-06
6.53469e-05
-1.46418e-05
7.49897e-06
1.49784e-05
-1.39721e-05
1.02071e-05
-1.29808e-05
1.39625e-05
-1.15618e-05
1.87066e-05
-9.41006e-06
2.3823e-05
-6.23027e-06
2.83408e-05
-1.97919e-06
3.20037e-05
2.61071e-06
3.75665e-05
1.02337e-05
3.59369e-05
2.00192e-05
4.60762e-05
3.00912e-05
3.37461e-05
3.90694e-05
6.64187e-05
4.4058e-05
0.000112972
5.1e-05
8.46513e-05
2.50749e-06
6.04804e-05
-1.42528e-05
7.01626e-06
1.46208e-05
-1.35611e-05
9.49143e-06
-1.25149e-05
1.29012e-05
-1.09289e-05
1.70938e-05
-8.65945e-06
2.1215e-05
-5.13786e-06
2.45079e-05
-6.99474e-07
2.75981e-05
2.96341e-06
3.32615e-05
9.99289e-06
3.01052e-05
2.21719e-05
3.65176e-05
3.16454e-05
1.99499e-05
3.79664e-05
5.62864e-05
4.12404e-05
9.94237e-05
4.72521e-05
6.65623e-05
-1.18235e-05
5.60381e-05
-1.39131e-05
6.51662e-06
1.43232e-05
-1.31856e-05
8.74101e-06
-1.20039e-05
1.17804e-05
-1.0384e-05
1.52715e-05
-7.74292e-06
1.83946e-05
-3.79461e-06
2.0435e-05
3.77326e-07
2.30451e-05
3.48182e-06
3.14438e-05
9.31101e-06
2.47259e-05
2.57138e-05
1.95889e-05
3.41385e-05
6.77407e-06
3.69814e-05
6.20653e-05
3.86344e-05
0.000107083
4.35104e-05
7.3004e-05
-8.08414e-06
5.17763e-05
-1.36411e-05
5.99792e-06
1.41194e-05
-1.28112e-05
7.94543e-06
-1.16705e-05
1.0504e-05
-9.71975e-06
1.325e-05
-6.74429e-06
1.52563e-05
-2.5599e-06
1.59076e-05
1.69808e-06
1.90887e-05
4.11529e-06
2.94091e-05
8.63749e-06
2.19783e-05
2.84808e-05
3.61787e-06
3.54071e-05
-1.3651e-06
3.56058e-05
5.96231e-05
3.59743e-05
9.73559e-05
4.04904e-05
5.71848e-05
-2.19055e-05
4.79529e-05
-1.34634e-05
5.44598e-06
1.40334e-05
-1.26493e-05
7.03632e-06
-1.12153e-05
9.04464e-06
-8.96009e-06
1.0822e-05
-5.5459e-06
1.1607e-05
-1.10907e-06
1.14156e-05
2.44724e-06
1.6096e-05
4.03838e-06
2.96058e-05
6.8666e-06
2.02705e-05
2.82295e-05
-1.7842e-05
3.36386e-05
-1.23609e-05
3.39612e-05
6.86946e-05
3.34745e-05
0.000107925
3.69982e-05
6.70069e-05
-1.30201e-05
4.40083e-05
-1.335e-05
4.82744e-06
1.40868e-05
-1.23167e-05
6.01207e-06
-1.06877e-05
7.28112e-06
-7.81054e-06
7.83986e-06
-3.92447e-06
7.52219e-06
4.7799e-08
7.71644e-06
3.20677e-06
1.33097e-05
5.52481e-06
2.70769e-05
6.15446e-06
2.13203e-05
3.06132e-05
-3.85462e-05
3.27075e-05
-1.05613e-05
3.17726e-05
7.06974e-05
3.12901e-05
0.000101939
3.49088e-05
5.38838e-05
-2.57673e-05
4.08419e-05
-1.31928e-05
4.2122e-06
1.40764e-05
-1.21328e-05
4.93842e-06
-1.01272e-05
5.25966e-06
-6.94998e-06
4.48826e-06
-2.20428e-06
2.74493e-06
8.96182e-07
4.56845e-06
5.18915e-06
1.06237e-05
1.14401e-05
2.35771e-05
9.73445e-06
2.14512e-05
3.45844e-05
-6.50006e-05
3.2122e-05
-1.72024e-05
3.05795e-05
7.99706e-05
2.94832e-05
0.000112901
3.2264e-05
6.51867e-05
-1.33138e-05
3.80396e-05
-1.27803e-05
3.72285e-06
1.36567e-05
-1.17326e-05
3.96916e-06
-9.97105e-06
3.45002e-06
-6.2206e-06
6.08456e-07
-7.72719e-07
-2.67898e-06
1.57068e-06
3.26185e-06
9.01709e-06
2.74449e-06
2.33355e-05
6.19428e-06
2.18981e-05
2.73314e-05
4.31709e-05
-8.21316e-05
2.88957e-05
6.49872e-06
2.91716e-05
8.55976e-05
2.88231e-05
0.000112063
3.18198e-05
5.6581e-05
-2.2621e-05
3.59939e-05
-1.00077e-05
3.00912e-06
1.12186e-05
-8.51179e-06
2.58619e-06
-7.74719e-06
2.65029e-06
-2.78836e-06
-4.25811e-06
1.99803e-06
-7.09958e-06
2.85492e-06
1.66552e-06
1.68837e-05
-8.35822e-06
4.96935e-05
-2.10001e-05
4.81114e-05
2.09994e-05
5.36543e-05
-9.51391e-05
2.19392e-05
2.69504e-05
2.66495e-05
8.51228e-05
2.68525e-05
0.000118812
2.90641e-05
6.47631e-05
-1.19829e-05
3.32895e-05
-9.60451e-06
3.051e-06
1.01064e-05
-8.93263e-06
2.04921e-06
-7.03886e-06
8.89231e-07
-3.88203e-06
-8.00653e-06
-9.54945e-07
-1.04531e-05
4.007e-06
-1.4995e-06
2.65303e-05
-3.22367e-05
7.21795e-05
-7.29506e-05
6.83344e-05
3.47239e-05
6.0096e-05
-8.01548e-05
7.34421e-06
9.25865e-05
1.86736e-05
8.9511e-05
2.21515e-05
0.000124174
2.62584e-05
6.26838e-05
-1.52125e-05
3.04126e-05
-9.56043e-06
2.8918e-06
1.02267e-05
-8.13042e-06
8.97506e-07
-6.96608e-06
-6.56684e-07
-4.70229e-06
-9.76277e-06
-6.41758e-07
-1.41144e-05
4.66629e-06
-8.26138e-06
2.99541e-05
-5.44237e-05
4.61195e-05
-7.67016e-05
3.57401e-05
3.40163e-05
3.3284e-05
-9.37993e-05
-1.73154e-05
0.000129654
1.90146e-06
6.87888e-05
1.17e-05
0.000117179
2.09609e-05
6.1219e-05
-8.32341e-06
2.68522e-05
-5.6946e-06
1.09903e-06
8.12484e-06
-2.7318e-06
-1.95917e-06
-1.61879e-06
-1.39523e-06
-1.1733e-06
-1.09575e-05
-2.20142e-06
-1.31817e-05
-3.96593e-07
-8.47282e-06
3.08046e-05
-8.64955e-05
2.61008e-05
-7.92027e-05
4.34017e-06
6.41478e-05
-1.18185e-05
-6.80841e-05
-4.71681e-05
0.00017637
-1.65879e-05
7.60652e-05
1.85768e-06
0.000125323
1.5984e-05
5.73006e-05
-7.45803e-06
2.26447e-05
-9.28688e-06
2.8166e-06
9.03512e-06
-7.96416e-06
-2.40676e-06
-5.47438e-06
-4.35867e-06
-6.2324e-06
-9.64622e-06
-9.5905e-06
-9.97982e-06
-1.01199e-05
-9.02667e-06
4.35007e-06
-9.88709e-05
-2.87108e-05
-3.85366e-05
-2.60205e-05
5.37952e-05
-4.40829e-05
-6.71123e-05
-8.81747e-05
0.000207446
-4.86247e-05
3.93901e-05
-6.15231e-06
8.96635e-05
1.051e-05
4.9019e-05
-1.25399e-06
1.77789e-05
-5.90092e-06
5.04918e-06
3.78228e-06
-1.02863e-05
1.86142e-06
-1.15018e-05
-2.95933e-06
-1.46837e-05
-7.14364e-06
-1.95937e-05
-5.31168e-06
-2.3906e-05
-4.28421e-06
-2.93571e-05
-9.59548e-05
-6.40977e-05
-8.72897e-06
-4.90918e-05
3.99069e-05
-8.84449e-05
-3.13444e-05
-8.09699e-05
0.000198973
-4.5361e-05
1.71023e-05
-1.07178e-05
6.58208e-05
4.54517e-06
4.17134e-05
4.9498e-08
1.32462e-05
-1.04091e-05
6.02957e-06
9.46166e-06
-1.29486e-05
4.22568e-06
-1.77301e-05
1.46865e-06
-2.31619e-05
-1.98518e-06
-2.88869e-05
-1.42523e-07
-3.50115e-05
8.34696e-07
-4.92431e-05
-7.9601e-05
-7.99699e-05
1.61756e-05
-8.47784e-05
3.90205e-05
-0.000109175
-1.94663e-05
-6.35186e-05
0.000143579
-4.2776e-05
-5.58891e-06
-1.78143e-05
4.15304e-05
-1.70168e-06
3.00952e-05
8.32498e-08
9.92311e-06
-1.62871e-05
4.34664e-06
1.77296e-05
-1.77265e-05
5.58063e-06
-2.26704e-05
6.07875e-06
-2.81254e-05
2.73232e-06
-3.16943e-05
2.49465e-06
-3.81737e-05
6.74883e-06
-7.48213e-05
-4.56328e-05
-8.43688e-05
1.55117e-05
-8.75852e-05
3.41757e-05
-9.64347e-05
-2.15367e-05
-4.5171e-05
8.09693e-05
-4.14973e-05
-1.24634e-05
-2.41511e-05
2.38269e-05
-5.73307e-06
1.55425e-05
-1.6325e-07
7.85475e-06
-2.92524e-05
7.56476e-07
3.28633e-05
-2.64413e-05
2.58248e-06
-2.61984e-05
5.4337e-06
-2.83844e-05
4.22945e-06
-2.85195e-05
1.59708e-06
-3.3069e-05
9.91747e-06
-6.36125e-05
-1.94169e-05
-6.53025e-05
4.69878e-06
-5.68625e-05
1.62991e-05
-6.61767e-05
-2.21731e-05
-2.61353e-05
2.629e-05
-3.34814e-05
-8.91918e-06
-2.00011e-05
9.89148e-06
-4.37365e-06
5.59081e-06
3.85858e-06
5.70842e-06
-3.61526e-05
3.68468e-05
-3.36737e-05
-2.83696e-05
-2.42816e-05
-2.27935e-05
-1.30002e-05
-3.29747e-05
-2.83814e-05
-1.21355e-05
-3.43575e-05
-8.0741e-06
-1.69937e-05
-7.09956e-06
-1.50599e-06
2.35469e-06
0.00144555
4.90725e-05
0.00144985
4.84691e-05
0.001455
4.79359e-05
0.00146088
4.74341e-05
0.0014672
4.70667e-05
0.0014738
4.68381e-05
0.00148055
4.67092e-05
0.00148733
4.66861e-05
0.00149381
4.68832e-05
4.71735e-05
0.00149978
0.00133834
4.64178e-05
0.00134231
4.44676e-05
0.00134709
4.31223e-05
0.00135236
4.21357e-05
0.00135803
4.13703e-05
0.00136412
4.07124e-05
0.00137075
4.00697e-05
0.00137804
3.93853e-05
0.00138648
3.84416e-05
3.72653e-05
0.00139639
0.00124051
4.67365e-05
0.00124165
4.33037e-05
0.00124394
4.08165e-05
0.00124719
3.88647e-05
0.00125126
3.72853e-05
0.00125597
3.59888e-05
0.00126115
3.48929e-05
0.00126658
3.39663e-05
0.00127201
3.30326e-05
3.23238e-05
0.00127695
0.00115203
4.64571e-05
0.00115359
4.17251e-05
0.00115623
3.81756e-05
0.00115969
3.53905e-05
0.00116382
3.3167e-05
0.00116844
3.13781e-05
0.00117347
2.98817e-05
0.00117888
2.85785e-05
0.00118476
2.71823e-05
2.57379e-05
0.00119136
0.0010691
4.57528e-05
0.00107079
4.00273e-05
0.00107331
3.56595e-05
0.00107648
3.22284e-05
0.00108019
2.94807e-05
0.00108435
2.72434e-05
0.00108892
2.53527e-05
0.00109385
2.36918e-05
0.00109906
2.19982e-05
2.05108e-05
0.00110431
0.000991441
4.50927e-05
0.000992958
3.85099e-05
0.000995178
3.34545e-05
0.000997975
2.94528e-05
0.00100128
2.62095e-05
0.00100505
2.3518e-05
0.00100926
2.11883e-05
0.0010139
1.90954e-05
0.00101906
1.68708e-05
1.48526e-05
0.00102474
0.000919059
4.43177e-05
0.00092059
3.69922e-05
0.000922694
3.13765e-05
0.000925265
2.69145e-05
0.000928251
2.32668e-05
0.000931624
2.01939e-05
0.00093538
1.74811e-05
0.000939535
1.49856e-05
0.000944108
1.23248e-05
9.73196e-06
0.000949254
0.00085146
4.31764e-05
0.00085321
3.52604e-05
0.000855383
2.92298e-05
0.000857887
2.44494e-05
0.000860673
2.05212e-05
0.000863731
1.71855e-05
0.000867063
1.41937e-05
0.000870702
1.13904e-05
0.00087462
8.42832e-06
5.36043e-06
0.000879017
0.000788372
4.17068e-05
0.00079035
3.32848e-05
0.000792645
2.69526e-05
0.000795147
2.19636e-05
0.000797825
1.78743e-05
0.000800656
1.43835e-05
0.000803667
1.1219e-05
0.000806877
8.20441e-06
0.000810277
5.04231e-06
1.53937e-06
0.000814122
0.000729635
4.00167e-05
0.000731753
3.11466e-05
0.000734123
2.45739e-05
0.000736633
1.94576e-05
0.00073923
1.52897e-05
0.000741902
1.17353e-05
0.000744664
8.47778e-06
0.000747557
5.33757e-06
0.00075055
2.06e-06
-1.86064e-06
0.000753976
0.000675218
3.83508e-05
0.000677358
2.90192e-05
0.000679723
2.22222e-05
0.000682187
1.70135e-05
0.000684684
1.28176e-05
0.000687195
9.24965e-06
0.000689743
5.95662e-06
0.000692364
2.74114e-06
0.000695023
-5.80567e-07
-4.96778e-06
0.000698156
0.0006249
3.67056e-05
0.000626993
2.69432e-05
0.000629293
1.99406e-05
0.000631661
1.46752e-05
0.000634022
1.04907e-05
0.000636358
6.95787e-06
0.000638695
3.66766e-06
0.000641076
4.08209e-07
0.000643443
-2.91391e-06
-7.85698e-06
0.000646377
0.000578481
3.51947e-05
0.000580483
2.49948e-05
0.000582671
1.78025e-05
0.000584887
1.24969e-05
0.000587068
8.34109e-06
0.000589193
4.85805e-06
0.000591298
1.58267e-06
0.000593438
-1.7146e-06
0.000595545
-4.99465e-06
-1.05859e-05
0.000598284
0.00053563
3.36519e-05
0.000537546
2.30898e-05
0.000539603
1.57726e-05
0.000541641
1.04775e-05
0.000543608
6.40975e-06
0.000545494
3.02074e-06
0.000547353
-2.21769e-07
0.000549259
-3.55627e-06
0.000551118
-6.8213e-06
-1.32059e-05
0.000553799
0.000496101
3.22147e-05
0.000497943
2.1336e-05
0.000499848
1.39163e-05
0.000501682
8.66006e-06
0.000503401
4.67564e-06
0.000505019
1.36403e-06
0.000506613
-1.85915e-06
0.000508272
-5.25372e-06
0.000509916
-8.46985e-06
-1.5807e-05
0.000512494
0.000459594
3.06204e-05
0.000461379
1.95629e-05
0.00046314
1.21469e-05
0.000464753
7.03676e-06
0.000466208
3.22526e-06
0.000467546
5.67714e-08
0.000468867
-3.12598e-06
0.000470281
-6.60194e-06
0.000471698
-9.84769e-06
-1.83166e-05
0.000474277
0.00042589
2.91385e-05
0.000427623
1.79561e-05
0.000429241
1.05682e-05
0.000430622
5.59933e-06
0.000431805
1.905e-06
0.000432849
-1.16745e-06
0.000433877
-4.33429e-06
0.000435049
-7.91501e-06
0.000436267
-1.11216e-05
-2.07765e-05
0.000438684
0.000394741
2.7379e-05
0.000396431
1.62255e-05
0.000397922
9.05796e-06
0.000399066
4.36343e-06
0.000399985
9.62061e-07
0.000400727
-1.90714e-06
0.000401462
-5.03294e-06
0.000402409
-8.76059e-06
0.000403391
-1.20624e-05
-2.29911e-05
0.000405682
0.000365954
2.58358e-05
0.000367613
1.47885e-05
0.000368974
7.72532e-06
0.000369897
3.24082e-06
0.000370548
-3.58356e-08
0.000370988
-2.79136e-06
0.000371432
-5.89671e-06
0.000372149
-9.76378e-06
0.000372942
-1.29836e-05
-2.50999e-05
0.000375082
0.000339344
2.38762e-05
0.000340953
1.31099e-05
0.000342209
6.41327e-06
0.0003429
2.38615e-06
0.000343291
-4.71249e-07
0.000343431
-2.9582e-06
0.000343603
-6.01485e-06
0.000344098
-1.01235e-05
0.000344696
-1.35097e-05
-2.72612e-05
0.000346879
0.00031474
2.22959e-05
0.000316302
1.18178e-05
0.00031746
5.28192e-06
0.000317929
1.52434e-06
0.000318071
-1.16435e-06
0.000317924
-3.53262e-06
0.000317822
-6.5746e-06
0.000318126
-1.08358e-05
0.000318529
-1.41088e-05
-2.92444e-05
0.000320582
0.000291993
2.00775e-05
0.000293504
1.01067e-05
0.00029458
4.15764e-06
0.000294805
1.09552e-06
0.000294707
-1.00147e-06
0.000294282
-3.05269e-06
0.000293934
-6.0915e-06
0.000294064
-1.07321e-05
0.000294244
-1.43224e-05
-3.13635e-05
0.000296252
0.000270955
1.8524e-05
0.000272419
8.97801e-06
0.000273408
3.19987e-06
0.000273413
4.75586e-07
0.000273095
-1.4229e-06
0.000272414
-3.38518e-06
0.000271828
-6.4048e-06
0.000271784
-1.12072e-05
0.000271775
-1.45671e-05
-3.30382e-05
0.000273724
0.000251504
1.60499e-05
0.000252908
7.23879e-06
0.000253809
2.2592e-06
0.000253576
5.13795e-07
0.000253037
-6.88949e-07
0.000252117
-2.32222e-06
0.000251328
-5.39932e-06
0.000251138
-1.07332e-05
0.000250934
-1.45222e-05
-3.53916e-05
0.000252906
0.000233509
1.44931e-05
0.000234848
6.15633e-06
0.000235665
1.46853e-06
0.000235221
9.04313e-08
0.000234493
-8.4887e-07
0.00023336
-2.43828e-06
0.000232364
-5.52821e-06
0.000232028
-1.09589e-05
0.000231654
-1.45058e-05
-3.69581e-05
0.000233585
0.000216866
1.17004e-05
0.000218156
4.32674e-06
0.000218852
7.13494e-07
0.000218187
5.56321e-07
0.000217256
3.76589e-07
0.000215927
-9.27559e-07
0.000214769
-4.14754e-06
0.000214313
-1.02594e-05
0.000213773
-1.4429e-05
-3.96073e-05
0.00021561
0.000201457
1.01399e-05
0.000202669
3.36517e-06
0.000203268
5.15729e-08
0.000202424
3.69609e-07
0.000201341
4.25191e-07
0.000199845
-8.30115e-07
0.000198511
-4.02233e-06
0.000197935
-1.02511e-05
0.000197258
-1.39809e-05
-4.06652e-05
0.000198894
0.000187199
7.12196e-06
0.000188325
1.54485e-06
0.000188812
-5.42573e-07
0.000187764
1.1198e-06
0.000186523
1.86047e-06
0.000184881
8.25914e-07
0.000183416
-2.53985e-06
0.000182773
-9.51998e-06
0.000181967
-1.39308e-05
-4.32957e-05
0.000183306
0.000173986
5.62776e-06
0.000174994
6.99261e-07
0.000175403
-1.20271e-06
0.000174211
9.58912e-07
0.00017288
1.84315e-06
0.00017112
9.0265e-07
0.000169512
-2.34651e-06
0.000168792
-9.3773e-06
0.000167898
-1.30945e-05
-4.34383e-05
0.000168891
0.000161764