/*--------------------------------*- C++ -*----------------------------------*\
  =========                 |
  \\      /  F ield         | OpenFOAM: The Open Source CFD Toolbox
   \\    /   O peration     | Website:  https://openfoam.org
    \\  /    A nd           | Version:  6.0
     \\/     M anipulation  |
\*---------------------------------------------------------------------------*/
FoamFile
{
    version     2.0;
    format      ascii;
    class       volVectorField;
    location    "3.87";
    object      U;
}
// * * * * * * * * * * * * * * * * * * * * * * * * * * * * * * * * * * * * * //

dimensions      [0 1 -1 0 0 0 0];

internalField   nonuniform List<vector> 
13500
(
(1 2.993e-06 -4.2853e-18)
(1 -3.1761e-06 2.9027e-18)
(1 -5.7154e-06 -1.247e-17)
(1 -1.0409e-05 -8.6396e-18)
(1 -9.6493e-06 1.6209e-17)
(1 -9.2183e-06 3.022e-17)
(1 -2.4354e-06 2.5818e-17)
(0.99998 1.515e-05 -4.1629e-18)
(0.99993 3.5437e-05 1.5278e-17)
(0.9998 7.4651e-05 3.2437e-18)
(0.99571 0.00075831 2.8632e-17)
(1.019 0.010844 7.7104e-18)
(1 9.2735e-06 2.6549e-18)
(1 -8.3179e-06 -8.8154e-18)
(1 -1.4817e-05 5.9547e-18)
(1 -2.8061e-05 -3.4085e-19)
(1 -2.4301e-05 -4.3228e-19)
(1 -2.3586e-05 -3.6337e-17)
(1 -8.3643e-07 -4.4592e-17)
(0.99993 4.9601e-05 -2.3819e-17)
(0.99976 0.00011883 -1.5248e-17)
(0.99983 0.00018641 -1.604e-18)
(0.98614 0.0021961 -1.3559e-17)
(1.0534 0.030658 -4.6685e-18)
(1 1.5493e-05 -3.429e-18)
(1 -1.3592e-05 1.7514e-17)
(1 -2.4018e-05 3.0972e-18)
(1 -4.6301e-05 9.9613e-18)
(1 -3.9004e-05 -3.7377e-18)
(1 -3.8954e-05 2.9107e-17)
(1 1.0412e-06 -6.2768e-18)
(0.99989 8.3043e-05 5.4105e-18)
(0.99957 0.00020981 -1.8499e-17)
(1.0003 0.00031433 2.4369e-17)
(0.97592 0.003283 -7.0896e-18)
(1.082 0.045216 1.6367e-18)
(1 2.1656e-05 8.9643e-18)
(1 -1.9171e-05 -1.698e-17)
(1 -3.3665e-05 -1.4682e-17)
(1 -6.5382e-05 -6.9896e-19)
(1 -5.4403e-05 5.7699e-18)
(1 -5.539e-05 -8.0767e-19)
(1 2.425e-06 6.1846e-17)
(0.99985 0.00011513 9.748e-18)
(0.99934 0.00030743 2.1874e-17)
(1.0013 0.00046242 -8.827e-18)
(0.96543 0.0040452 3.4523e-17)
(1.1033 0.055791 -7.4497e-18)
(1 2.784e-05 -6.2988e-18)
(1 -2.4797e-05 1.4676e-17)
(1 -4.3358e-05 1.2498e-17)
(1 -8.4564e-05 1.2749e-17)
(1 -6.9883e-05 2.8291e-18)
(1.0001 -7.1953e-05 2.1394e-17)
(1 3.8735e-06 -2.7618e-17)
(0.99983 0.00014629 1.98e-18)
(0.99907 0.00041076 -1.3412e-17)
(1.0026 0.00063271 -2.1062e-18)
(0.95506 0.004533 -8.9538e-18)
(1.1173 0.063512 2.0659e-18)
(0.99999 3.404e-05 6.3744e-18)
(1 -3.0463e-05 -6.084e-18)
(1 -5.31e-05 3.8169e-18)
(1 -0.00010385 -2.5256e-17)
(1.0001 -8.5445e-05 -8.2899e-20)
(1.0001 -8.8663e-05 -4.2354e-17)
(1 5.3925e-06 1.0597e-18)
(0.99982 0.00017636 -1.5893e-17)
(0.99874 0.00051837 5.1075e-18)
(1.0044 0.00083186 -2.1221e-17)
(0.94518 0.0047884 -2.1556e-17)
(1.1247 0.068993 1.9964e-18)
(0.99999 4.0252e-05 -1.0552e-18)
(1 -3.6174e-05 -7.2766e-18)
(1 -6.2889e-05 -3.1021e-18)
(1.0001 -0.00012324 1.9063e-17)
(1.0001 -0.00010107 -2.6204e-17)
(1.0001 -0.00010556 1.6206e-17)
(1 7.0289e-06 1.8472e-17)
(0.99981 0.00020522 5.5916e-18)
(0.99834 0.00062894 1.1418e-17)
(1.0064 0.0010663 1.1424e-17)
(0.93606 0.0048492 9.2866e-18)
(1.1265 0.072658 3.2037e-18)
(0.99999 4.6475e-05 -2.1779e-18)
(1 -4.1929e-05 -1.4315e-18)
(1 -7.2729e-05 -2.6723e-17)
(1.0001 -0.00014277 -9.1029e-18)
(1.0001 -0.00011677 7.3343e-18)
(1.0001 -0.00012267 2.656e-17)
(1 8.8009e-06 1.1757e-17)
(0.99983 0.00023282 4.9919e-18)
(0.99787 0.00074109 -7.4632e-18)
(1.0088 0.0013397 1.6001e-17)
(0.92794 0.0047516 7.5e-18)
(1.1237 0.074868 -1.0186e-17)
(0.99999 5.271e-05 -6.761e-18)
(1 -4.7731e-05 6.1542e-18)
(1 -8.2622e-05 4.4932e-17)
(1.0001 -0.00016243 -1.0919e-17)
(1.0001 -0.00013255 2.7466e-17)
(1.0001 -0.00014 -5.2438e-17)
(1.0001 1.0712e-05 -3.9165e-17)
(0.99985 0.00025909 9.7003e-18)
(0.99732 0.00085348 -5.6054e-18)
(1.0114 0.0016537 -8.8251e-18)
(0.92097 0.0045301 -1.3858e-17)
(1.1172 0.075929 1.3325e-17)
(0.99999 5.8954e-05 4.4544e-18)
(1 -5.358e-05 2.3165e-18)
(1 -9.2572e-05 -3.806e-17)
(1.0001 -0.00018222 1.5539e-17)
(1.0001 -0.00014841 -1.1977e-17)
(1.0001 -0.00015758 2.2365e-17)
(1.0001 1.2762e-05 1.3918e-17)
(0.9999 0.00028403 2.4525e-18)
(0.99669 0.0009648 5.2928e-19)
(1.0141 0.0020077 1.3977e-18)
(0.91527 0.0042169 4.4087e-18)
(1.108 0.076093 -6.9866e-19)
(0.99998 6.5207e-05 -2.4457e-18)
(1 -5.9476e-05 -7.5975e-18)
(1 -0.00010258 9.3296e-18)
(1.0001 -0.00020215 -2.7419e-18)
(1.0001 -0.00016435 1.8488e-18)
(1.0002 -0.00017542 -2.4511e-17)
(1.0001 1.4954e-05 -3.2055e-17)
(0.99997 0.00030761 -3.1146e-17)
(0.99598 0.0010738 1.5668e-17)
(1.017 0.0023999 1.8154e-18)
(0.91087 0.003841 -1.1183e-17)
(1.0968 0.075566 -5.741e-18)
(0.99998 7.1469e-05 3.3757e-18)
(0.99999 -6.5422e-05 2.8696e-18)
(1 -0.00011266 4.4963e-18)
(1.0001 -0.00022223 -2.1853e-18)
(1.0001 -0.0001804 -5.542e-18)
(1.0002 -0.00019354 9.2706e-18)
(1.0001 1.7288e-05 1.8556e-17)
(1.0001 0.00032989 1.9242e-17)
(0.99518 0.0011795 1.0067e-17)
(1.0199 0.002827 -2.2929e-17)
(0.90778 0.0034289 1.1716e-19)
(1.0845 0.07452 -6.6444e-18)
(0.99998 7.7738e-05 -3.3751e-18)
(0.99999 -7.1417e-05 5.6433e-18)
(1 -0.0001228 8.1521e-18)
(1.0001 -0.00024245 5.7058e-18)
(1.0001 -0.00019654 -5.1403e-18)
(1.0002 -0.00021195 4.5576e-18)
(1.0001 1.976e-05 4.2313e-18)
(1.0002 0.0003509 -1.7183e-18)
(0.9943 0.0012807 -1.6271e-17)
(1.0229 0.003285 2.1262e-17)
(0.90597 0.0030034 1.0422e-19)
(1.0715 0.073092 1.4235e-18)
(0.99997 8.4015e-05 5.1326e-18)
(0.99999 -7.7464e-05 -4.4053e-18)
(1 -0.00013301 7.1372e-19)
(1.0001 -0.00026283 -4.7601e-18)
(1.0002 -0.00021279 1.1674e-17)
(1.0002 -0.00023068 5.5612e-18)
(1.0001 2.2367e-05 1.7025e-17)
(1.0003 0.00037072 -6.3821e-18)
(0.99334 0.0013766 -1.988e-19)
(1.0257 0.003769 5.2209e-18)
(0.90536 0.0025845 1.6976e-17)
(1.0584 0.071398 9.0798e-19)
(0.99997 9.0298e-05 1.238e-18)
(0.99999 -8.3564e-05 9.777e-18)
(1 -0.0001433 1.3632e-17)
(1.0001 -0.00028336 -4.7462e-18)
(1.0002 -0.00022916 8.4531e-18)
(1.0002 -0.00024974 -2.5961e-18)
(1.0001 2.5097e-05 -2.9818e-17)
(1.0005 0.00038944 2.0202e-17)
(0.9923 0.0014664 -1.8348e-17)
(1.0285 0.0042738 -3.0116e-17)
(0.90587 0.0021888 -3.7261e-18)
(1.0456 0.069528 8.4109e-19)
(0.99996 9.6588e-05 -3.1582e-18)
(0.99998 -8.9717e-05 -1.0398e-17)
(1 -0.00015367 -3.272e-17)
(1.0001 -0.00030407 7.9961e-18)
(1.0002 -0.00024565 -1.2828e-17)
(1.0003 -0.00026915 8.3244e-18)
(1.0001 2.794e-05 -2.7899e-18)
(1.0007 0.00040717 -1.2161e-17)
(0.99119 0.0015494 4.0291e-18)
(1.0312 0.0047942 1.7983e-17)
(0.9074 0.0018297 -7.8217e-18)
(1.0334 0.067556 1.1674e-17)
(0.99996 0.00010288 3.3232e-19)
(0.99998 -9.5926e-05 7.7768e-18)
(1 -0.00016411 2.259e-17)
(1.0001 -0.00032494 -1.801e-18)
(1.0002 -0.00026226 -1.2744e-17)
(1.0003 -0.00028894 -1.5513e-17)
(1.0001 3.0877e-05 1.0657e-17)
(1.0009 0.00042406 6.975e-18)
(0.99002 0.001625 2.3286e-17)
(1.0337 0.0053248 -2.5176e-18)
(0.90983 0.0015176 1.9438e-18)
(1.0221 0.065541 -4.6578e-18)
(0.99995 0.00010918 -1.8644e-18)
(0.99998 -0.00010219 -9.4233e-18)
(1 -0.00017465 -1.0193e-17)
(1.0001 -0.00034598 6.0183e-18)
(1.0002 -0.00027901 -7.1575e-18)
(1.0003 -0.00030912 -1.2444e-17)
(1.0001 3.3889e-05 1.036e-17)
(1.0012 0.00044023 -4.7316e-18)
(0.9888 0.0016927 -2.8816e-17)
(1.036 0.0058605 -1.4108e-17)
(0.91304 0.0012603 8.4376e-18)
(1.0117 0.06353 -5.0505e-18)
(0.99995 0.00011549 -2.6698e-18)
(0.99997 -0.00010851 -3.5618e-18)
(1 -0.00018527 -7.5545e-19)
(1.0001 -0.0003672 -2.6355e-17)
(1.0002 -0.00029591 6.0053e-18)
(1.0003 -0.0003297 5.4182e-18)
(1.0001 3.695e-05 -1.9686e-17)
(1.0015 0.00045585 -1.6156e-17)
(0.98752 0.0017522 4.2153e-18)
(1.0381 0.0063964 -1.0586e-18)
(0.91692 0.0010627 -9.7432e-18)
(1.0025 0.061557 9.5527e-19)
(0.99994 0.0001218 3.4726e-18)
(0.99997 -0.0001149 1.6328e-17)
(1 -0.00019598 1.9453e-17)
(1.0001 -0.00038862 2.4814e-18)
(1.0002 -0.00031294 1.6602e-17)
(1.0003 -0.00035072 9.4959e-18)
(1.0001 4.0029e-05 2.8416e-18)
(1.0018 0.00047109 1.7684e-17)
(0.9862 0.0018031 2.094e-17)
(1.04 0.006928 1.6845e-17)
(0.92134 0.00092772 7.2735e-18)
(0.99447 0.05965 1.1332e-18)
(0.99994 0.00012811 -1.6552e-18)
(0.99996 -0.00012134 -3.9176e-18)
(1 -0.00020679 -2.0725e-17)
(1.0002 -0.00041022 -2.3508e-18)
(1.0002 -0.00033014 -1.2583e-17)
(1.0004 -0.00037218 -5.1384e-18)
(1.0001 4.3094e-05 -1.8236e-18)
(1.0022 0.00048612 -1.5991e-17)
(0.98485 0.0018451 -2.0021e-17)
(1.0416 0.0074514 8.6323e-18)
(0.9262 0.00085604 5.0045e-19)
(0.98761 0.057826 6.5028e-19)
(0.99993 0.00013442 4.3875e-18)
(0.99996 -0.00012785 -5.1186e-18)
(1 -0.0002177 -1.9439e-17)
(1.0002 -0.00043202 4.4681e-17)
(1.0002 -0.00034749 1.8253e-17)
(1.0004 -0.0003941 -1.2574e-17)
(1 4.6103e-05 2.4518e-17)
(1.0026 0.00050115 2.1613e-17)
(0.98349 0.0018781 3.2486e-17)
(1.043 0.0079628 -3.1636e-17)
(0.93139 0.00084678 -1.3361e-17)
(0.98191 0.056101 1.7133e-19)
(0.99993 0.00014074 -3.2116e-18)
(0.99996 -0.00013442 -1.0273e-18)
(1 -0.00022872 3.3188e-17)
(1.0002 -0.00045402 -3.3777e-17)
(1.0003 -0.00036502 -1.757e-18)
(1.0004 -0.00041651 4.1662e-17)
(0.99999 4.9012e-05 7.598e-18)
(1.0031 0.00051636 -3.3381e-18)
(0.98211 0.0019018 -2.0147e-17)
(1.0441 0.0084591 3.728e-17)
(0.93682 0.00089765 -5.6619e-18)
(0.97735 0.054481 -2.7252e-19)
(0.99992 0.00014705 -1.6373e-18)
(0.99995 -0.00014105 -2.0469e-18)
(1 -0.00023984 1.7285e-18)
(1.0002 -0.00047623 3.5141e-17)
(1.0003 -0.00038272 -9.9067e-18)
(1.0005 -0.00043942 -3.0795e-17)
(0.99994 5.1773e-05 -1.9372e-17)
(1.0036 0.00053194 -3.5946e-18)
(0.98073 0.0019164 6.3703e-18)
(1.0449 0.0089375 -3.1446e-17)
(0.94238 0.0010052 9.4822e-18)
(0.97384 0.052972 2.9528e-18)
(0.99991 0.00015337 2.7057e-18)
(0.99994 -0.00014775 1.4246e-17)
(1 -0.00025108 -1.2746e-17)
(1.0002 -0.00049865 -3.6789e-18)
(1.0003 -0.00040061 -1.9013e-17)
(1.0005 -0.00046284 3.3505e-17)
(0.99989 5.4331e-05 -1.7006e-17)
(1.0041 0.0005481 1.4905e-17)
(0.97935 0.0019216 -1.9632e-18)
(1.0455 0.0093958 2.948e-17)
(0.948 0.0011652 -9.2564e-18)
(0.97133 0.051573 -4.927e-18)
(0.9999 0.00015969 -5.1895e-19)
(0.99994 -0.00015452 -8.1935e-18)
(1 -0.00026243 -1.7848e-17)
(1.0002 -0.00052129 -1.0082e-17)
(1.0003 -0.0004187 1.8442e-17)
(1.0005 -0.0004868 -4.2726e-17)
(0.99983 5.6627e-05 -2.624e-18)
(1.0046 0.00056503 -2.0137e-17)
(0.978 0.0019177 3.1708e-18)
(1.0457 0.0098321 -8.5026e-18)
(0.9536 0.0013728 9.8524e-18)
(0.96971 0.050283 2.0896e-18)
(0.9999 0.00016601 2.7188e-18)
(0.99993 -0.00016136 -8.7772e-18)
(1 -0.00027391 -1.7638e-18)
(1.0002 -0.00054417 2.4505e-18)
(1.0003 -0.00043698 5.837e-18)
(1.0006 -0.0005113 1.2346e-17)
(0.99976 5.8597e-05 4.3022e-17)
(1.0052 0.00058292 2.4067e-18)
(0.97668 0.0019045 5.1663e-18)
(1.0458 0.010245 9.3697e-18)
(0.95913 0.0016227 -8.429e-18)
(0.9689 0.049099 1.6041e-18)
(0.99989 0.00017232 -1.5589e-18)
(0.99993 -0.00016828 8.7692e-18)
(1 -0.00028551 2.5372e-17)
(1.0002 -0.00056727 -2.4688e-17)
(1.0003 -0.00045548 -9.0797e-18)
(1.0006 -0.00053637 -2.1731e-18)
(0.99967 6.0173e-05 -1.4181e-17)
(1.0059 0.00060197 1.8674e-18)
(0.9754 0.0018823 -8.9522e-18)
(1.0455 0.010633 -3.4443e-18)
(0.96452 0.0019094 -2.3974e-19)
(0.9688 0.048016 -1.9604e-18)
(0.99988 0.00017864 -1.6756e-18)
(0.99992 -0.00017526 5.2492e-18)
(1 -0.00029724 -6.1344e-19)
(1.0002 -0.00059061 8.1862e-18)
(1.0003 -0.00047419 -1.6754e-17)
(1.0006 -0.00056201 2.4584e-17)
(0.99958 6.1282e-05 7.073e-18)
(1.0065 0.00062235 -1.7814e-17)
(0.97416 0.0018511 -1.1477e-17)
(1.045 0.010995 -1.3633e-17)
(0.96972 0.0022272 1.3351e-18)
(0.96932 0.047028 -3.5907e-18)
(0.99987 0.00018495 5.8231e-19)
(0.99991 -0.00018232 -1.2536e-17)
(1 -0.0003091 1.5712e-17)
(1.0002 -0.0006142 2.2644e-17)
(1.0003 -0.00049313 3.2838e-17)
(1.0007 -0.00058825 -1.8056e-17)
(0.99947 6.1847e-05 -1.7585e-17)
(1.0072 0.00064424 3.6147e-18)
(0.97299 0.0018113 1.0754e-17)
(1.0443 0.011331 1.0671e-17)
(0.97471 0.0025706 6.2204e-18)
(0.97035 0.046127 3.5687e-18)
(0.99986 0.00019126 1.116e-18)
(0.9999 -0.00018946 9.9692e-18)
(1 -0.0003211 -3.61e-17)
(1.0002 -0.00063804 -3.2804e-18)
(1.0003 -0.00051232 -2.728e-17)
(1.0007 -0.00061508 -1.1375e-17)
(0.99935 6.1786e-05 2.4746e-20)
(1.0079 0.0006678 -4.1357e-18)
(0.97188 0.0017629 -2.1187e-17)
(1.0434 0.011641 -1.7037e-17)
(0.97944 0.0029343 -8.4975e-18)
(0.97182 0.045307 -1.7579e-18)
(0.99985 0.00019756 -7.2331e-19)
(0.9999 -0.00019668 -6.4837e-18)
(1 -0.00033325 2.8405e-17)
(1.0002 -0.00066213 -3.1308e-17)
(1.0003 -0.00053174 -2.0523e-18)
(1.0008 -0.00064253 2.4222e-17)
(0.99922 6.1012e-05 7.0361e-19)
(1.0087 0.00069317 3.9432e-18)
(0.97085 0.0017064 1.8547e-17)
(1.0422 0.011923 2.2146e-17)
(0.98388 0.003313 4.8609e-18)
(0.97365 0.04456 -9.814e-19)
(0.99984 0.00020386 -1.8832e-18)
(0.99989 -0.00020397 -2.3913e-18)
(0.99999 -0.00034555 -1.2592e-17)
(1.0002 -0.00068649 1.5597e-17)
(1.0004 -0.00055143 2.9983e-17)
(1.0008 -0.0006706 -1.0706e-17)
(0.99907 5.9436e-05 2.1901e-17)
(1.0095 0.00072049 2.9558e-18)
(0.9699 0.001642 -2.1006e-18)
(1.0409 0.01218 1.0018e-17)
(0.98802 0.0037018 -5.4338e-18)
(0.97574 0.043879 -6.8333e-19)
(0.99983 0.00021015 4.7095e-19)
(0.99988 -0.00021135 -6.3241e-18)
(0.99999 -0.000358 4.7143e-18)
(1.0002 -0.00071113 -1.5898e-17)
(1.0004 -0.00057139 -3.1715e-17)
(1.0009 -0.0006993 6.7474e-18)
(0.99891 5.6964e-05 -3.1595e-17)
(1.0103 0.00074989 -6.7592e-18)
(0.96904 0.0015701 6.8145e-18)
(1.0394 0.012409 -3.1444e-17)
(0.99185 0.0040962 3.7196e-18)
(0.97802 0.043256 1.931e-18)
(0.99982 0.00021644 8.2712e-19)
(0.99987 -0.00021881 1.7133e-17)
(0.99998 -0.00037061 7.8941e-18)
(1.0002 -0.00073603 6.4752e-18)
(1.0004 -0.00059162 2.5361e-17)
(1.0009 -0.00072864 2.0124e-18)
(0.99873 5.3497e-05 2.1817e-17)
(1.0111 0.00078146 4.8476e-18)
(0.96827 0.001491 -2.071e-17)
(1.0377 0.012613 1.0826e-17)
(0.99535 0.0044918 2.5156e-18)
(0.98045 0.042684 2.0014e-18)
(0.99981 0.00022272 -2.8883e-18)
(0.99986 -0.00022636 -5.6399e-18)
(0.99997 -0.00038338 -6.935e-18)
(1.0002 -0.00076123 1.0635e-17)
(1.0004 -0.00061215 1.2252e-17)
(1.001 -0.00075862 -4.0064e-18)
(0.99854 4.8934e-05 -1.8326e-17)
(1.0119 0.0008153 2.2074e-17)
(0.96761 0.0014053 3.8356e-18)
(1.0359 0.012791 -3.2704e-18)
(0.99851 0.0048848 1.0407e-17)
(0.98295 0.042157 -1.3908e-18)
(0.9998 0.000229 5.9351e-18)
(0.99985 -0.000234 6.7547e-18)
(0.99997 -0.00039632 -7.3725e-18)
(1.0002 -0.00078671 -6.6258e-18)
(1.0004 -0.00063298 -1.7582e-17)
(1.0011 -0.00078925 -6.8825e-18)
(0.99833 4.3168e-05 9.0356e-18)
(1.0128 0.00085148 -3.5407e-17)
(0.96705 0.0013133 9.3881e-18)
(1.034 0.012944 -3.866e-18)
(1.0014 0.0052717 -1.1021e-17)
(0.98547 0.041668 4.0382e-18)
(0.99978 0.00023526 -2.6195e-18)
(0.99984 -0.00024173 -1.1868e-17)
(0.99996 -0.00040944 -7.146e-18)
(1.0002 -0.00081249 -1.2574e-17)
(1.0004 -0.00065412 -5.3687e-18)
(1.0011 -0.00082053 2.0239e-17)
(0.99811 3.6089e-05 -8.8761e-18)
(1.0136 0.00089006 3.9389e-17)
(0.96661 0.0012155 8.8519e-18)
(1.032 0.013072 1.1731e-17)
(1.0039 0.0056492 4.6452e-18)
(0.98797 0.041211 -6.5479e-18)
(0.99977 0.00024152 -1.3896e-18)
(0.99983 -0.00024955 8.8265e-18)
(0.99995 -0.00042273 1.4159e-17)
(1.0002 -0.00083857 3.3902e-17)
(1.0004 -0.00067559 7.1162e-18)
(1.0012 -0.00085246 -1.3882e-17)
(0.99787 2.7583e-05 4.2834e-18)
(1.0145 0.00093107 -4.2377e-17)
(0.96628 0.0011125 -1.0737e-17)
(1.0299 0.013177 -6.523e-18)
(1.006 0.0060147 4.557e-18)
(0.99041 0.040781 6.583e-18)
(0.99976 0.00024777 1.0635e-18)
(0.99982 -0.00025746 2.0898e-18)
(0.99995 -0.00043621 -1.3906e-17)
(1.0002 -0.00086497 -5.6468e-18)
(1.0004 -0.00069741 9.0364e-18)
(1.0013 -0.00088503 1.6619e-17)
(0.99762 1.7531e-05 1.4895e-17)
(1.0153 0.00097454 4.1941e-18)
(0.96606 0.0010047 1.2011e-17)
(1.0277 0.013258 -3.0226e-18)
(1.0079 0.0063656 -8.1353e-18)
(0.99276 0.040372 -1.6978e-18)
(0.99975 0.00025401 -4.3551e-20)
(0.99981 -0.00026547 2.3819e-18)
(0.99994 -0.00044988 3.1077e-18)
(1.0003 -0.00089168 -7.3317e-18)
(1.0004 -0.00071958 8.4479e-20)
(1.0014 -0.00091824 -1.5068e-17)
(0.99735 5.8114e-06 -1.0075e-17)
(1.0162 0.0010205 3.1033e-17)
(0.96596 0.00089285 -1.8152e-17)
(1.0255 0.013318 1.1737e-17)
(1.0095 0.0066998 4.2963e-18)
(0.995 0.039979 -4.7931e-18)
(0.99973 0.00026024 -3.2944e-18)
(0.9998 -0.00027358 -1.117e-17)
(0.99993 -0.00046375 7.9352e-18)
(1.0003 -0.00091872 -2.0026e-17)
(1.0004 -0.00074212 -2.2854e-17)
(1.0015 -0.0009521 -2.0818e-17)
(0.99706 -7.7037e-06 -2.0533e-17)
(1.0171 0.0010689 -3.178e-18)
(0.96599 0.0007774 1.5864e-17)
(1.0233 0.013356 -1.0068e-17)
(1.0108 0.0070156 4.2673e-19)
(0.99709 0.039599 4.514e-18)
(0.99972 0.00026646 6.3587e-18)
(0.99978 -0.0002818 1.1674e-17)
(0.99992 -0.00047782 -1.2798e-17)
(1.0003 -0.00094608 1.6442e-17)
(1.0004 -0.00076505 -2.6808e-18)
(1.0016 -0.00098657 1.3646e-17)
(0.99677 -2.3146e-05 2.4681e-17)
(1.0179 0.0011197 -2.4074e-17)
(0.96613 0.00065897 -8.0443e-18)
(1.0211 0.013373 1.0632e-17)
(1.0118 0.0073114 3.7126e-18)
(0.99904 0.039228 -2.1351e-18)
(0.9997 0.00027267 -4.7715e-18)
(0.99977 -0.00029011 -3.45e-18)
(0.99991 -0.0004921 -2.6765e-18)
(1.0003 -0.00097379 1.8815e-17)
(1.0004 -0.00078839 -5.7388e-18)
(1.0017 -0.0010217 -1.7319e-19)
(0.99645 -4.0651e-05 -4.8294e-18)
(1.0187 0.0011729 1.9284e-17)
(0.96638 0.00053817 -7.6382e-18)
(1.0189 0.013371 -7.3008e-18)
(1.0126 0.007586 -1.0975e-17)
(1.0008 0.038863 2.481e-18)
(0.99969 0.00027886 3.2436e-18)
(0.99976 -0.00029853 -4.375e-18)
(0.9999 -0.0005066 6.1261e-18)
(1.0003 -0.0010018 -2.8549e-17)
(1.0004 -0.00081214 3.8875e-17)
(1.0018 -0.0010574 5.655e-18)
(0.99612 -6.0362e-05 1.9054e-17)
(1.0196 0.0012285 -1.1933e-17)
(0.96676 0.00041562 1.003e-19)
(1.0167 0.01335 5.4292e-18)
(1.0131 0.0078385 -2.1345e-18)
(1.0024 0.0385 -9.3352e-19)
(0.99967 0.00028504 -9.279e-19)
(0.99975 -0.00030706 8.553e-19)
(0.9999 -0.00052131 1.4928e-17)
(1.0003 -0.0010302 7.7829e-18)
(1.0004 -0.00083634 -1.9435e-17)
(1.0019 -0.0010936 -1.1078e-17)
(0.99578 -8.2424e-05 3.3267e-18)
(1.0204 0.0012864 -5.8017e-18)
(0.96725 0.00029192 1.278e-17)
(1.0145 0.013311 -3.564e-18)
(1.0134 0.0080681 1.0274e-17)
(1.0039 0.038136 -3.4059e-18)
(0.99966 0.00029121 -1.6153e-18)
(0.99973 -0.0003157 -8.245e-18)
(0.99988 -0.00053625 -4.4384e-18)
(1.0003 -0.001059 3.1259e-17)
(1.0004 -0.000861 -1.7317e-17)
(1.0021 -0.0011304 -9.3926e-19)
(0.99543 -0.00010699 -4.9753e-17)
(1.0211 0.0013464 5.7025e-18)
(0.96785 0.0001677 -2.3902e-17)
(1.0124 0.013255 -7.6969e-18)
(1.0135 0.0082743 -1.0273e-17)
(1.0051 0.03777 2.0223e-18)
(0.99964 0.00029737 -6.9746e-19)
(0.99972 -0.00032445 5.1081e-18)
(0.99987 -0.00055143 -1.8322e-18)
(1.0003 -0.0010881 -1.8201e-17)
(1.0004 -0.00088614 2.4886e-17)
(1.0022 -0.0011678 -2.308e-18)
(0.99506 -0.00013421 2.6354e-17)
(1.0219 0.0014086 -3.5061e-18)
(0.96856 4.356e-05 1.1604e-17)
(1.0104 0.013183 9.6264e-18)
(1.0135 0.0084569 8.4741e-18)
(1.0062 0.0374 -4.8881e-19)
(0.99962 0.0003035 3.9535e-18)
(0.9997 -0.00033332 -3.0568e-18)
(0.99986 -0.00056684 -6.4109e-18)
(1.0003 -0.0011176 1.9869e-17)
(1.0004 -0.00091179 1.8268e-18)
(1.0023 -0.0012057 2.8604e-17)
(0.99468 -0.00016426 4.5459e-18)
(1.0226 0.0014729 1.675e-17)
(0.96937 -7.9896e-05 4.3532e-18)
(1.0085 0.013096 -3.1147e-18)
(1.0133 0.0086158 1.1023e-18)
(1.0071 0.037024 4.4251e-19)
(0.99961 0.00030963 1.1275e-18)
(0.99969 -0.0003423 1.2495e-18)
(0.99985 -0.00058251 -5.814e-18)
(1.0003 -0.0011475 -3.9567e-17)
(1.0004 -0.00093796 5.5318e-18)
(1.0025 -0.001244 2.4829e-18)
(0.99429 -0.0001973 -1.9712e-17)
(1.0233 0.001539 2.3571e-19)
(0.97028 -0.00020208 1.2831e-17)
(1.0066 0.012995 -2.0025e-18)
(1.013 0.008751 -5.3669e-18)
(1.0079 0.03664 2.6075e-18)
(0.99959 0.00031573 -4.8278e-18)
(0.99967 -0.00035141 5.2975e-18)
(0.99984 -0.00059843 9.5799e-19)
(1.0003 -0.0011777 2.1974e-17)
(1.0003 -0.00096468 -2.5234e-17)
(1.0026 -0.0012827 -1.0958e-17)
(0.9939 -0.0002335 2.016e-17)
(1.0239 0.001607 -1.1346e-17)
(0.97129 -0.00032242 -2.0287e-17)
(1.0049 0.01288 -9.8948e-18)
(1.0125 0.0088628 6.8348e-18)
(1.0085 0.036249 8.6861e-19)
(0.99957 0.00032182 -5.11e-19)
(0.99966 -0.00036064 -5.3312e-18)
(0.99983 -0.00061461 1.0208e-17)
(1.0003 -0.0012084 9.7449e-18)
(1.0003 -0.00099199 3.1168e-17)
(1.0028 -0.0013219 4.2118e-18)
(0.99349 -0.00027304 1.7906e-17)
(1.0245 0.0016766 2.8766e-17)
(0.97238 -0.00044036 -8.9823e-19)
(1.0032 0.012753 1.7404e-17)
(1.012 0.0089515 -7.2332e-19)
(1.009 0.035848 -2.5366e-18)
(0.99955 0.0003279 4.9523e-18)
(0.99964 -0.00036999 -7.7627e-18)
(0.99981 -0.00063106 -1.5496e-17)
(1.0003 -0.0012394 -2.5884e-18)
(1.0003 -0.0010199 -3.383e-17)
(1.003 -0.0013614 -1.2529e-17)
(0.99308 -0.0003161 -6.2158e-18)
(1.0251 0.0017478 2.1602e-19)
(0.97356 -0.00055537 2.6405e-17)
(1.0017 0.012615 4.0104e-18)
(1.0113 0.0090177 -9.3789e-18)
(1.0093 0.035437 1.5206e-18)
(0.99953 0.00033395 -5.5523e-18)
(0.99962 -0.00037947 9.6965e-18)
(0.9998 -0.00064778 8.1113e-18)
(1.0003 -0.0012709 -5.1602e-18)
(1.0003 -0.0010485 2.7208e-17)
(1.0032 -0.0014011 1.4993e-17)
(0.99266 -0.00036288 -4.9135e-18)
(1.0256 0.0018205 -2.8991e-17)
(0.97481 -0.00066695 -8.9674e-19)
(1.0003 0.012466 -1.146e-17)
(1.0107 0.009062 1.1102e-17)
(1.0095 0.035016 -1.9921e-18)
(0.99951 0.00033998 3.3365e-18)
(0.99961 -0.00038909 -1.8559e-18)
(0.99979 -0.00066479 1.0742e-17)
(1.0003 -0.0013027 -2.1717e-17)
(1.0003 -0.0010777 8.8857e-18)
(1.0034 -0.0014411 -5.3849e-18)
(0.99223 -0.00041355 -1.0586e-17)
(1.0261 0.0018943 -2.3279e-18)
(0.97612 -0.00077462 -3.1875e-17)
(0.99904 0.012308 7.5604e-18)
(1.0099 0.009085 -1.0166e-17)
(1.0096 0.034585 6.6416e-19)
(0.99949 0.00034599 2.639e-19)
(0.99959 -0.00039884 -5.8385e-18)
(0.99977 -0.0006821 6.101e-18)
(1.0003 -0.001335 2.8586e-17)
(1.0003 -0.0011076 -2.1162e-17)
(1.0036 -0.0014813 1.7331e-17)
(0.99181 -0.00046832 -6.1205e-18)
(1.0265 0.0019693 5.389e-18)
(0.9775 -0.00087795 3.7872e-17)
(0.9979 0.012141 -1.4035e-17)
(1.0092 0.0090877 1.5537e-17)
(1.0097 0.034143 1.879e-18)
(0.99947 0.00035199 4.7366e-19)
(0.99957 -0.00040872 -1.209e-18)
(0.99976 -0.0006997 -8.7762e-18)
(1.0003 -0.0013677 -4.3022e-18)
(1.0002 -0.0011383 1.8446e-17)
(1.0038 -0.0015216 1.411e-19)
(0.99138 -0.00052738 -1.203e-17)
(1.0269 0.0020452 -1.2868e-17)
(0.97893 -0.00097653 -1.5855e-17)
(0.9969 0.011967 -1.3249e-18)
(1.0084 0.0090709 2.8439e-18)
(1.0096 0.033692 1.9616e-19)
(0.99945 0.00035796 -7.6201e-19)
(0.99955 -0.00041874 1.438e-17)
(0.99974 -0.00071761 -5.8543e-18)
(1.0003 -0.0014008 -2.4323e-17)
(1.0002 -0.0011697 8.5057e-18)
(1.004 -0.0015619 -4.416e-17)
(0.99095 -0.00059092 6.0011e-18)
(1.0272 0.0021219 8.1016e-18)
(0.98041 -0.00107 7.3639e-19)
(0.99604 0.011786 1.4254e-17)
(1.0077 0.0090356 -9.5091e-19)
(1.0095 0.03323 -5.2488e-18)
(0.99942 0.0003639 -2.0116e-19)
(0.99953 -0.00042891 -2.8198e-19)
(0.99972 -0.00073584 7.8818e-18)
(1.0003 -0.0014343 1.5018e-17)
(1.0002 -0.0012019 -3.3792e-17)
(1.0042 -0.0016022 1.9061e-18)
(0.99052 -0.00065915 1.0748e-17)
(1.0275 0.0021991 1.2691e-17)
(0.98193 -0.001158 -1.0031e-17)
(0.99531 0.011599 -1.3878e-17)
(1.007 0.0089828 -1.541e-17)
(1.0093 0.032758 5.5416e-18)
(0.9994 0.00036983 -1.3168e-18)
(0.99951 -0.00043922 4.0219e-19)
(0.99971 -0.0007544 -3.8002e-18)
(1.0003 -0.0014683 -1.0028e-17)
(1.0001 -0.0012351 1.8734e-17)
(1.0044 -0.0016423 2.3709e-17)
(0.9901 -0.00073225 3.1345e-18)
(1.0277 0.0022766 6.4326e-18)
(0.98347 -0.0012402 1.6e-17)
(0.99471 0.011408 2.3358e-18)
(1.0063 0.0089137 1.1392e-17)
(1.0091 0.032278 -3.3636e-18)
(0.99938 0.00037573 2.4239e-18)
(0.99949 -0.00044968 7.4139e-19)
(0.99969 -0.00077329 -5.4318e-18)
(1.0003 -0.0015027 1.4813e-18)
(1.0001 -0.0012691 -1.0157e-17)
(1.0047 -0.0016822 -5.687e-18)
(0.98968 -0.00081042 -1.1586e-18)
(1.0278 0.0023543 -2.9047e-17)
(0.98504 -0.0013165 3.142e-18)
(0.99425 0.011212 -4.7352e-18)
(1.0056 0.0088292 -4.6336e-18)
(1.0089 0.031789 -4.0531e-18)
(0.99935 0.0003816 -4.947e-18)
(0.99947 -0.00046029 9.6865e-19)
(0.99967 -0.00079252 2.8812e-18)
(1.0003 -0.0015376 -1.862e-17)
(1 -0.001304 -1.1581e-17)
(1.0049 -0.0017218 -2.6409e-17)
(0.98927 -0.00089385 5.5906e-18)
(1.0279 0.0024318 1.186e-17)
(0.98662 -0.0013866 -3.3692e-17)
(0.99391 0.011014 2.1834e-17)
(1.005 0.0087307 -5.0101e-18)
(1.0086 0.031292 2.6142e-18)
(0.99933 0.00038745 4.5413e-18)
(0.99945 -0.00047105 2.1675e-18)
(0.99965 -0.00081211 1.1082e-18)
(1.0003 -0.0015729 5.9041e-18)
(1 -0.00134 -2.559e-18)
(1.0052 -0.0017611 5.1191e-17)
(0.98887 -0.00098271 2.0072e-17)
(1.0279 0.002509 -1.8455e-17)
(0.98821 -0.0014503 3.2429e-17)
(0.9937 0.010814 -8.1464e-18)
(1.0044 0.0086193 -3.304e-18)
(1.0084 0.030788 -1.3035e-18)
(0.9993 0.00039327 1.1142e-18)
(0.99942 -0.00048197 -1.3724e-17)
(0.99963 -0.00083206 2.2182e-18)
(1.0003 -0.0016086 2.6523e-17)
(0.99995 -0.001377 1.9799e-17)
(1.0055 -0.0017998 -8.235e-19)
(0.98848 -0.0010772 -2.7807e-17)
(1.0279 0.0025855 5.5846e-18)
(0.9898 -0.0015076 -7.3143e-18)
(0.99361 0.010612 -1.1274e-17)
(1.0039 0.0084962 8.4054e-18)
(1.0081 0.030278 1.2156e-18)
(0.99928 0.00039907 -4.4065e-18)
(0.9994 -0.00049305 -4.5761e-18)
(0.99961 -0.00085239 -1.2017e-17)
(1.0003 -0.0016448 -2.2246e-17)
(0.9999 -0.0014151 -1.9924e-17)
(1.0057 -0.0018379 -2.3266e-17)
(0.9881 -0.0011774 5.1348e-18)
(1.0278 0.0026611 4.3449e-17)
(0.99138 -0.0015584 3.1884e-18)
(0.99364 0.010411 -9.8473e-19)
(1.0035 0.0083626 -2.9677e-18)
(1.0079 0.029762 -3.2649e-18)
(0.99925 0.00040483 3.2701e-18)
(0.99938 -0.0005043 4.25e-18)
(0.99959 -0.00087309 1.8519e-17)
(1.0003 -0.0016815 1.5409e-17)
(0.99985 -0.0014544 1.9385e-17)
(1.006 -0.0018754 -8.645e-19)
(0.98773 -0.0012836 -2.8609e-17)
(1.0276 0.0027356 -2.3487e-17)
(0.99295 -0.0016027 7.915e-18)
(0.99377 0.010209 3.9023e-18)
(1.0031 0.0082198 6.6904e-18)
(1.0076 0.029242 2.5234e-18)
(0.99922 0.00041057 -2.3096e-18)
(0.99935 -0.00051571 6.6683e-18)
(0.99957 -0.0008942 -1.2254e-17)
(1.0003 -0.0017186 2.2308e-18)
(0.99979 -0.0014949 9.0147e-18)
(1.0063 -0.001912 -2.2748e-18)
(0.98738 -0.0013958 6.4235e-18)
(1.0274 0.0028084 6.5238e-18)
(0.9945 -0.0016405 2.6067e-18)
(0.99401 0.01001 9.6464e-18)
(1.0029 0.008069 -8.0464e-18)
(1.0074 0.028718 5.0994e-19)
(0.99919 0.00041627 3.4874e-18)
(0.99933 -0.00052729 4.1335e-19)
(0.99955 -0.0009157 -5.737e-18)
(1.0003 -0.0017562 8.8855e-19)
(0.99972 -0.0015367 -1.48e-18)
(1.0066 -0.0019478 -2.2479e-17)
(0.98705 -0.0015142 1.7934e-17)
(1.0272 0.0028794 2.316e-17)
(0.99601 -0.0016719 -1.297e-17)
(0.99434 0.0098119 -1.3423e-17)
(1.0026 0.0079113 -2.3522e-18)
(1.0073 0.028191 4.339e-18)
(0.99916 0.00042195 -2.5334e-18)
(0.9993 -0.00053905 -3.1832e-19)
(0.99953 -0.00093762 7.1325e-18)
(1.0004 -0.0017942 -1.7056e-17)
(0.99965 -0.0015798 -1.3392e-17)
(1.0069 -0.0019825 2.838e-17)
(0.98674 -0.0016388 -2.7426e-18)
(1.0269 0.0029482 -2.452e-17)
(0.9975 -0.0016971 3.3052e-18)
(0.99476 0.0096169 1.2638e-17)
(1.0025 0.0077479 7.9727e-18)
(1.0071 0.027662 -1.5645e-18)
(0.99914 0.00042759 2.5179e-19)
(0.99928 -0.00055098 2.3321e-18)
(0.9995 -0.00095997 3.8978e-18)
(1.0004 -0.0018328 8.8175e-18)
(0.99958 -0.0016243 2.6253e-17)
(1.0071 -0.0020161 6.619e-18)
(0.98645 -0.0017698 -2.388e-17)
(1.0265 0.0030143 2.2994e-18)
(0.99894 -0.0017163 8.5157e-18)
(0.99526 0.0094254 -1.1386e-17)
(1.0024 0.00758 -5.3906e-18)
(1.007 0.027133 -1.81e-18)
(0.9991 0.0004332 7.15e-19)
(0.99925 -0.00056309 -4.0549e-19)
(0.99948 -0.00098275 -1.0286e-17)
(1.0004 -0.0018717 -1.8976e-19)
(0.99951 -0.0016703 -5.1908e-17)
(1.0074 -0.0020485 8.1624e-18)
(0.98618 -0.0019072 2.3458e-17)
(1.0261 0.0030775 -6.6046e-18)
(1.0003 -0.0017297 -8.9168e-18)
(0.99583 0.0092379 1.8908e-17)
(1.0025 0.0074086 6.4498e-18)
(1.0069 0.026604 4.6906e-18)
(0.99907 0.00043877 7.6817e-19)
(0.99922 -0.00057539 -8.4173e-19)
(0.99945 -0.001006 1.8603e-17)
(1.0004 -0.0019112 4.068e-18)
(0.99943 -0.0017179 4.6003e-17)
(1.0078 -0.0020796 -2.8762e-17)
(0.98593 -0.0020509 -7.8556e-18)
(1.0256 0.0031373 6.2184e-18)
(1.0017 -0.0017376 3.0738e-18)
(0.99647 0.0090549 -1.0639e-17)
(1.0025 0.0072349 -1.0441e-18)
(1.0069 0.026075 -3.4587e-18)
(0.99904 0.00044431 -3.0018e-18)
(0.99919 -0.00058787 1.4137e-18)
(0.99943 -0.0010297 -1.0935e-17)
(1.0004 -0.0019511 5.35e-18)
(0.99934 -0.0017671 -1.748e-17)
(1.0081 -0.0021093 3.9006e-18)
(0.98571 -0.0022011 3.1454e-17)
(1.0251 0.0031933 -2.3278e-17)
(1.003 -0.0017403 -1.1297e-17)
(0.99716 0.008877 -1.0524e-17)
(1.0027 0.0070598 -5.1289e-18)
(1.0069 0.025549 -9.4989e-19)
(0.99901 0.00044981 3.7395e-18)
(0.99916 -0.00060055 -3.3574e-18)
(0.9994 -0.0010538 -1.0613e-17)
(1.0004 -0.0019915 -8.5308e-18)
(0.99925 -0.001818 -2.8585e-17)
(1.0084 -0.0021374 -1.8097e-17)
(0.98552 -0.0023577 -1.9286e-17)
(1.0246 0.003245 2.1646e-17)
(1.0042 -0.0017383 1.0954e-17)
(0.9979 0.0087045 1.5938e-17)
(1.0029 0.0068842 -2.0076e-18)
(1.007 0.025025 4.5847e-18)
(0.99898 0.00045527 -6.0106e-18)
(0.99913 -0.00061342 5.4406e-18)
(0.99937 -0.0010785 2.5988e-17)
(1.0004 -0.0020323 -2.0126e-18)
(0.99916 -0.0018706 3.1627e-17)
(1.0087 -0.002164 1.3626e-18)
(0.98535 -0.0025205 -1.8472e-17)
(1.024 0.0032921 8.476e-18)
(1.0054 -0.0017319 -3.9501e-18)
(0.99868 0.0085378 -3.3374e-18)
(1.0032 0.0067091 6.5135e-18)
(1.0071 0.024504 -3.1004e-18)
(0.99894 0.0004607 4.9259e-18)
(0.9991 -0.00062649 -7.3942e-18)
(0.99934 -0.0011037 -3.0303e-17)
(1.0004 -0.0020736 1.3167e-17)
(0.99906 -0.0019251 -2.2536e-17)
(1.009 -0.0021888 2.5019e-17)
(0.98521 -0.0026896 6.0206e-18)
(1.0234 0.003334 -8.0671e-18)
(1.0065 -0.0017217 -1.8964e-18)
(0.99949 0.0083771 -8.3589e-18)
(1.0035 0.0065353 -1.0619e-17)
(1.0072 0.023988 4.2853e-18)
(0.99891 0.00046609 -3.6288e-18)
(0.99907 -0.00063977 2.4589e-18)
(0.99931 -0.0011293 1.8414e-17)
(1.0004 -0.0021154 -1.7357e-17)
(0.99896 -0.0019816 3.6263e-17)
(1.0093 -0.0022119 -1.9422e-17)
(0.9851 -0.0028648 3.5097e-18)
(1.0227 0.0033704 -1.2756e-17)
(1.0076 -0.0017082 6.1909e-18)
(1.0003 0.0082227 -1.1698e-18)
(1.0039 0.0063634 4.5456e-18)
(1.0074 0.023477 -1.9054e-18)
(0.99887 0.00047143 4.4509e-18)
(0.99904 -0.00065325 1.9146e-18)
(0.99928 -0.0011555 -1.2278e-17)
(1.0004 -0.0021577 -3.5359e-19)
(0.99886 -0.00204 -1.5993e-18)
(1.0096 -0.0022332 4.6964e-18)
(0.98503 -0.0030458 3.3331e-17)
(1.022 0.0034008 8.7263e-18)
(1.0086 -0.0016919 -1.8352e-17)
(1.0012 0.0080746 -6.063e-18)
(1.0043 0.0061941 -4.2753e-18)
(1.0076 0.022971 2.0025e-18)
(0.99883 0.00047674 -5.1021e-18)
(0.99901 -0.00066694 -7.0954e-18)
(0.99925 -0.0011822 5.1509e-18)
(1.0004 -0.0022004 1.5021e-17)
(0.99875 -0.0021006 -3.2901e-17)