/*--------------------------------*- C++ -*----------------------------------*\
  =========                 |
  \\      /  F ield         | OpenFOAM: The Open Source CFD Toolbox
   \\    /   O peration     | Website:  https://openfoam.org
    \\  /    A nd           | Version:  6.0
     \\/     M anipulation  |
\*---------------------------------------------------------------------------*/
FoamFile
{
    version     2.0;
    format      ascii;
    class       volScalarField;
    location    "2.32";
    object      p;
}
// * * * * * * * * * * * * * * * * * * * * * * * * * * * * * * * * * * * * * //

dimensions      [0 2 -2 0 0 0 0];

internalField   nonuniform List<scalar> 
13500
(
0.097938
0.097961
0.097495
0.097005
0.096129
0.095586
0.094876
0.095508
0.096678
0.10093
0.12248
0.16559
0.097938
0.097961
0.097495
0.097006
0.096129
0.095586
0.094875
0.095509
0.096674
0.10099
0.1218
0.16053
0.097939
0.097962
0.097496
0.097006
0.096129
0.095586
0.094873
0.095508
0.096664
0.10103
0.12092
0.15604
0.09794
0.097963
0.097496
0.097007
0.096129
0.095586
0.094871
0.095505
0.096648
0.10106
0.11994
0.15254
0.097941
0.097964
0.097498
0.097008
0.096129
0.095586
0.094867
0.095501
0.096628
0.10106
0.11891
0.14959
0.097942
0.097966
0.097499
0.097009
0.096129
0.095585
0.094863
0.095497
0.096602
0.10106
0.11783
0.14696
0.097944
0.097968
0.097501
0.097011
0.09613
0.095585
0.094859
0.095491
0.096571
0.10104
0.11675
0.14457
0.097947
0.09797
0.097503
0.097012
0.09613
0.095584
0.094853
0.095483
0.096535
0.10101
0.11568
0.14239
0.097949
0.097973
0.097505
0.097014
0.09613
0.095583
0.094848
0.095475
0.096495
0.10097
0.11462
0.14037
0.097953
0.097976
0.097508
0.097016
0.096131
0.095582
0.094841
0.095465
0.096449
0.10091
0.11361
0.13849
0.097956
0.097979
0.097511
0.097018
0.096132
0.09558
0.094835
0.095454
0.096398
0.10084
0.11262
0.13672
0.09796
0.097983
0.097514
0.097021
0.096133
0.095579
0.094827
0.095442
0.096341
0.10076
0.11168
0.13506
0.097964
0.097987
0.097518
0.097023
0.096133
0.095577
0.094819
0.095428
0.09628
0.10067
0.11079
0.13348
0.097969
0.097992
0.097522
0.097026
0.096134
0.095575
0.09481
0.095413
0.096213
0.10057
0.10993
0.13198
0.097974
0.097996
0.097526
0.097029
0.096135
0.095572
0.094801
0.095397
0.096141
0.10046
0.10911
0.13055
0.09798
0.098002
0.097531
0.097033
0.096137
0.09557
0.094791
0.095379
0.096063
0.10035
0.10833
0.12919
0.097986
0.098007
0.097536
0.097036
0.096138
0.095567
0.094781
0.09536
0.09598
0.10023
0.10758
0.12788
0.097992
0.098013
0.097541
0.09704
0.096139
0.095564
0.09477
0.09534
0.095893
0.10011
0.10686
0.12662
0.097999
0.098019
0.097547
0.097044
0.096141
0.095561
0.094759
0.095318
0.0958
0.099983
0.10616
0.12541
0.098006
0.098026
0.097553
0.097048
0.096143
0.095558
0.094747
0.095294
0.095702
0.099857
0.10549
0.12424
0.098013
0.098033
0.09756
0.097053
0.096144
0.095554
0.094734
0.095269
0.0956
0.099731
0.10484
0.12312
0.098022
0.098041
0.097566
0.097057
0.096146
0.095551
0.094721
0.095243
0.095493
0.099606
0.10421
0.12202
0.09803
0.098049
0.097574
0.097062
0.096148
0.095547
0.094708
0.095215
0.095382
0.099481
0.10359
0.12096
0.098039
0.098057
0.097581
0.097068
0.09615
0.095542
0.094693
0.095185
0.095268
0.099358
0.10298
0.11993
0.098048
0.098066
0.097589
0.097073
0.096153
0.095538
0.094679
0.095154
0.09515
0.099235
0.10239
0.11893
0.098058
0.098075
0.097597
0.097079
0.096155
0.095533
0.094664
0.095121
0.095029
0.099114
0.1018
0.11795
0.098069
0.098085
0.097606
0.097085
0.096158
0.095529
0.094648
0.095087
0.094906
0.098995
0.10123
0.11699
0.098079
0.098095
0.097615
0.097091
0.09616
0.095524
0.094632
0.095051
0.09478
0.098877
0.10066
0.11606
0.098091
0.098105
0.097624
0.097097
0.096163
0.095518
0.094615
0.095014
0.094652
0.09876
0.10009
0.11515
0.098102
0.098116
0.097634
0.097104
0.096166
0.095513
0.094598
0.094975
0.094522
0.098644
0.099535
0.11426
0.098114
0.098127
0.097644
0.097111
0.096169
0.095507
0.09458
0.094935
0.094391
0.098528
0.098984
0.11338
0.098127
0.098139
0.097655
0.097118
0.096172
0.095501
0.094562
0.094893
0.094258
0.098414
0.098438
0.11253
0.09814
0.098151
0.097666
0.097126
0.096176
0.095495
0.094543
0.094851
0.094125
0.098299
0.097898
0.11169
0.098154
0.098164
0.097678
0.097134
0.09618
0.095489
0.094524
0.094807
0.09399
0.098184
0.097363
0.11086
0.098168
0.098177
0.097689
0.097142
0.096183
0.095483
0.094504
0.094761
0.093856
0.098068
0.096834
0.11006
0.098183
0.098191
0.097702
0.09715
0.096187
0.095476
0.094484
0.094715
0.093721
0.097952
0.09631
0.10927
0.098198
0.098205
0.097714
0.097159
0.096191
0.095469
0.094463
0.094668
0.093585
0.097835
0.095792
0.10849
0.098213
0.09822
0.097727
0.097168
0.096196
0.095462
0.094442
0.09462
0.09345
0.097717
0.09528
0.10773
0.098229
0.098235
0.097741
0.097178
0.0962
0.095455
0.09442
0.094572
0.093314
0.097597
0.094773
0.10698
0.098246
0.09825
0.097755
0.097187
0.096205
0.095448
0.094398
0.094522
0.093178
0.097475
0.094273
0.10625
0.098263
0.098266
0.097769
0.097197
0.096209
0.09544
0.094375
0.094472
0.093042
0.097352
0.09378
0.10553
0.098281
0.098283
0.097784
0.097207
0.096214
0.095433
0.094352
0.094422
0.092907
0.097227
0.093293
0.10483
0.098299
0.0983
0.097799
0.097218
0.096219
0.095425
0.094328
0.094371
0.092771
0.0971
0.092812
0.10413
0.098318
0.098317
0.097815
0.097229
0.096225
0.095417
0.094303
0.09432
0.092635
0.096971
0.092338
0.10345
0.098337
0.098335
0.097831
0.09724
0.09623
0.095409
0.094278
0.094268
0.092499
0.09684
0.091871
0.10279
0.098357
0.098354
0.097848
0.097252
0.096236
0.095401
0.094253
0.094216
0.092363
0.096706
0.091412
0.10213
0.098377
0.098373
0.097865
0.097264
0.096242
0.095393
0.094227
0.094165
0.092227
0.096571
0.090959
0.10149
0.098398
0.098393
0.097883
0.097276
0.096248
0.095385
0.094201
0.094113
0.092091
0.096433
0.090513
0.10086
0.09842
0.098413
0.097901
0.097289
0.096255
0.095376
0.094174
0.094061
0.091954
0.096292
0.090075
0.10024
0.098442
0.098433
0.097919
0.097302
0.096261
0.095368
0.094146
0.094009
0.091817
0.09615
0.089643
0.099628
0.098465
0.098455
0.097938
0.097315
0.096268
0.095359
0.094118
0.093958
0.09168
0.096005
0.089219
0.09903
0.098488
0.098476
0.097958
0.097329
0.096275
0.095351
0.09409
0.093906
0.091543
0.095858
0.088802
0.098442
0.098512
0.098499
0.097978
0.097343
0.096282
0.095343
0.094061
0.093855
0.091405
0.095709
0.088391
0.097864
0.098536
0.098522
0.097999
0.097358
0.096289
0.095334
0.094031
0.093803
0.091267
0.095558
0.087988
0.097296
0.098561
0.098545
0.09802
0.097372
0.096297
0.095326
0.094001
0.093752
0.091128
0.095405
0.087592
0.096738
0.098587
0.098569
0.098041
0.097388
0.096305
0.095317
0.093971
0.093701
0.090989
0.09525
0.087202
0.096189
0.098613
0.098594
0.098063
0.097403
0.096313
0.095309
0.09394
0.09365
0.09085
0.095093
0.08682
0.095649
0.09864
0.098619
0.098086
0.09742
0.096321
0.0953
0.093908
0.0936
0.09071
0.094934
0.086444
0.095118
0.098667
0.098645
0.098109
0.097436
0.09633
0.095292
0.093876
0.093549
0.09057
0.094773
0.086074
0.094596
0.098695
0.098671
0.098132
0.097453
0.096338
0.095284
0.093844
0.093498
0.090429
0.09461
0.085711
0.094082
0.098724
0.098698
0.098157
0.09747
0.096347
0.095276
0.093811
0.093448
0.090288
0.094446
0.085355
0.093576
0.098753
0.098726
0.098181
0.097488
0.096356
0.095268
0.093778
0.093398
0.090147
0.09428
0.085005
0.093078
0.098783
0.098754
0.098206
0.097507
0.096366
0.09526
0.093744
0.093348
0.090005
0.094113
0.08466
0.092588
0.098814
0.098783
0.098232
0.097525
0.096376
0.095252
0.09371
0.093298
0.089864
0.093944
0.084322
0.092105
0.098845
0.098813
0.098259
0.097544
0.096386
0.095244
0.093675
0.093248
0.089721
0.093773
0.08399
0.09163
0.098877
0.098843
0.098285
0.097564
0.096396
0.095237
0.09364
0.093198
0.089579
0.093602
0.083664
0.091162
0.098909
0.098874
0.098313
0.097584
0.096406
0.09523
0.093604
0.093148
0.089437
0.093428
0.083343
0.0907
0.098943
0.098905
0.098341
0.097605
0.096417
0.095222
0.093568
0.093098
0.089294
0.093254
0.083028
0.090246
0.098976
0.098937
0.09837
0.097626
0.096428
0.095215
0.093532
0.093048
0.089151
0.093079
0.082718
0.089798
0.099011
0.09897
0.098399
0.097647
0.096439
0.095209
0.093495
0.092998
0.089008
0.092902
0.082414
0.089356
0.099046
0.099003
0.098429
0.097669
0.09645
0.095202
0.093458
0.092948
0.088866
0.092724
0.082115
0.088921
0.099082
0.099038
0.098459
0.097692
0.096462
0.095196
0.093421
0.092898
0.088723
0.092546
0.081821
0.088492
0.099119
0.099072
0.09849
0.097715
0.096474
0.09519
0.093383
0.092847
0.08858
0.092366
0.081532
0.088068
0.099157
0.099108
0.098521
0.097739
0.096486
0.095184
0.093345
0.092797
0.088438
0.092185
0.081248
0.087651
0.099195
0.099144
0.098554
0.097763
0.096499
0.095178
0.093307
0.092747
0.088295
0.092004
0.080969
0.087239
0.099234
0.099181
0.098587
0.097787
0.096512
0.095173
0.093268
0.092696
0.088153
0.091822
0.080694
0.086833
0.099273
0.099219
0.09862
0.097813
0.096525
0.095168
0.093229
0.092646
0.088012
0.091639
0.080424
0.086432
0.099314
0.099257
0.098654
0.097838
0.096539
0.095163
0.093189
0.092595
0.08787
0.091455
0.080159
0.086036
0.099355
0.099297
0.098689
0.097865
0.096552
0.095158
0.09315
0.092544
0.087729
0.091271
0.079897
0.085645
0.099397
0.099337
0.098724
0.097892
0.096566
0.095154
0.09311
0.092493
0.087588
0.091085
0.07964
0.085259
0.099439
0.099377
0.098761
0.097919
0.096581
0.09515
0.09307
0.092442
0.087448
0.0909
0.079387
0.084879
0.099483
0.099419
0.098797
0.097947
0.096596
0.095146
0.093029
0.09239
0.087308
0.090714
0.079139
0.084502
0.099527
0.099461
0.098835
0.097976
0.096611
0.095143
0.092989
0.092338
0.087169
0.090527
0.078894
0.084131
0.099572
0.099504
0.098873
0.098005
0.096626
0.09514
0.092948
0.092287
0.08703
0.09034
0.078653
0.083764
0.099618
0.099548
0.098912
0.098035
0.096642
0.095137
0.092907
0.092235
0.086891
0.090152
0.078415
0.083401
0.099665
0.099593
0.098951
0.098066
0.096658
0.095135
0.092866
0.092182
0.086754
0.089964
0.078182
0.083043
0.099712
0.099639
0.098992
0.098097
0.096675
0.095133
0.092824
0.09213
0.086616
0.089776
0.077952
0.082689
0.099761
0.099685
0.099033
0.098129
0.096692
0.095131
0.092783
0.092077
0.08648
0.089587
0.077725
0.082338
0.09981
0.099732
0.099075
0.098161
0.096709
0.09513
0.092741
0.092024
0.086344
0.089398
0.077502
0.081992
0.09986
0.099781
0.099117
0.098194
0.096727
0.095129
0.092699
0.091971
0.086209
0.089208
0.077282
0.08165
0.099911
0.09983
0.099161
0.098228
0.096745
0.095129
0.092658
0.091917
0.086074
0.089018
0.077065
0.081311
0.099963
0.09988
0.099205
0.098263
0.096764
0.095129
0.092616
0.091863
0.085941
0.088828
0.076851
0.080976
0.10002
0.099931
0.09925
0.098298
0.096783
0.09513
0.092574
0.091809
0.085808
0.088638
0.076641
0.080645
0.10007
0.099982
0.099296
0.098334
0.096803
0.09513
0.092532
0.091755
0.085675
0.088448
0.076433
0.080317
0.10012
0.10004
0.099343
0.09837
0.096823
0.095132
0.092489
0.0917
0.085544
0.088257
0.076228
0.079992
0.10018
0.10009
0.09939
0.098408
0.096843
0.095134
0.092447
0.091645
0.085413
0.088066
0.076026
0.07967
0.10024
0.10014
0.099439
0.098446
0.096864
0.095136
0.092405
0.09159
0.085283
0.087875
0.075826
0.079352
0.10029
0.1002
0.099488
0.098485
0.096886
0.095139
0.092363
0.091535
0.085154
0.087684
0.075629
0.079037
0.10035
0.10026
0.099538
0.098525
0.096908
0.095142
0.092321
0.091479
0.085026
0.087493
0.075434
0.078724
0.10041
0.10031
0.099589
0.098565
0.09693
0.095146
0.092279
0.091423
0.084898
0.087302
0.075242
0.078415
0.10047
0.10037
0.099642
0.098607
0.096953
0.095151
0.092237
0.091366
0.084772
0.087111
0.075052
0.078108
0.10054
0.10043
0.099695
0.098649
0.096977
0.095156
0.092195
0.09131
0.084646
0.086919
0.074865
0.077804
0.1006
0.10049
0.099749
0.098692
0.097001
0.095161
0.092153
0.091253
0.084521
0.086727
0.074679
0.077503
0.10066
0.10056
0.099804
0.098736
0.097026
0.095168
0.092111
0.091195
0.084397
0.086536
0.074496
0.077204
0.10073
0.10062
0.09986
0.098781
0.097052
0.095174
0.092069
0.091138
0.084274
0.086344
0.074315
0.076907
0.10079
0.10068
0.099918
0.098827
0.097078
0.095182
0.092028
0.09108
0.084152
0.086153
0.074135
0.076613
0.10086
0.10075
0.099976
0.098874
0.097105
0.09519
0.091987
0.091022
0.08403
0.085961
0.073958
0.076321
0.10093
0.10082
0.10004
0.098922
0.097132
0.095199
0.091946
0.090963
0.08391
0.085769
0.073782
0.076031
0.101
0.10088
0.1001
0.098971
0.09716
0.095208
0.091905
0.090904
0.08379
0.085577
0.073608
0.075743
0.10107
0.10095
0.10016
0.09902
0.097189
0.095218
0.091865
0.090845
0.083671
0.085385
0.073435
0.075457
0.10114
0.10103
0.10022
0.099072
0.097219
0.095229
0.091824
0.090786
0.083553
0.085194
0.073264
0.075173
0.10122
0.1011
0.10029
0.099124
0.097249
0.095241
0.091785
0.090726
0.083436
0.085002
0.073095
0.07489
0.10129
0.10117
0.10035
0.099177
0.097281
0.095254
0.091745
0.090666
0.08332
0.08481
0.072926
0.07461
0.10137
0.10125
0.10042
0.099232
0.097313
0.095267
0.091706
0.090605
0.083205
0.084618
0.072759
0.074331
0.10145
0.10132
0.10049
0.099287
0.097346
0.095281
0.091667
0.090545
0.08309
0.084426
0.072594
0.074053
0.10153
0.1014
0.10056
0.099344
0.09738
0.095296
0.091629
0.090484
0.082977
0.084234
0.072429
0.073777
0.10161
0.10148
0.10063
0.099403
0.097415
0.095312
0.091592
0.090423
0.082864
0.084042
0.072266
0.073502
0.10169
0.10156
0.1007
0.099463
0.097451
0.095329
0.091555
0.090362
0.082752
0.08385
0.072104
0.073229
0.10178
0.10165
0.10078
0.099524
0.097488
0.095346
0.091518
0.0903
0.082641
0.083659
0.071942
0.072956
0.10187
0.10173
0.10085
0.099587
0.097526
0.095365
0.091482
0.090238
0.082531
0.083467
0.071781
0.072685
0.10195
0.10182
0.10093
0.099651
0.097565
0.095385
0.091447
0.090176
0.082421
0.083275
0.071622
0.072415
0.10204
0.10191
0.10101
0.099717
0.097605
0.095406
0.091413
0.090114
0.082313
0.083083
0.071462
0.072145
0.10214
0.102
0.10109
0.099784
0.097646
0.095428
0.091379
0.090052
0.082205
0.082891
0.071304
0.071876
0.10223
0.10209
0.10118
0.099853
0.097689
0.095451
0.091346
0.08999
0.082098
0.082699
0.071146
0.071608
0.10233
0.10218
0.10126
0.099924
0.097733
0.095475
0.091314
0.089927
0.081992
0.082506
0.070989
0.071341
0.10243
0.10228
0.10135
0.099997
0.097779
0.095501
0.091283
0.089865
0.081887
0.082314
0.070832
0.071074
0.10253
0.10238
0.10144
0.10007
0.097826
0.095528
0.091253
0.089802
0.081782
0.082122
0.070675
0.070808
0.10263
0.10248
0.10153
0.10015
0.097874
0.095556
0.091224
0.089739
0.081679
0.08193
0.070519
0.070542
0.10273
0.10258
0.10162
0.10023
0.097924
0.095585
0.091196
0.089677
0.081576
0.081738
0.070362
0.070276
0.10284
0.10269
0.10172
0.10031
0.097976
0.095616
0.091169
0.089614
0.081474
0.081545
0.070206
0.07001
0.10295
0.1028
0.10182
0.10039
0.098029
0.095649
0.091143
0.089552
0.081373
0.081353
0.070051
0.069744
0.10306
0.10291
0.10192
0.10048
0.098085
0.095683
0.091119
0.089489
0.081273
0.08116
0.069895
0.069478
0.10318
0.10302
0.10202
0.10057
0.098142
0.095718
0.091096
0.089427
0.081173
0.080968
0.069739
0.069212
0.1033
0.10314
0.10213
0.10066
0.098201
0.095756
0.091074
0.089365
0.081074
0.080775
0.069582
0.068946
0.10342
0.10326
0.10224
0.10075
0.098262
0.095795
0.091054
0.089304
0.080977
0.080582
0.069426
0.068679
0.10354
0.10338
0.10235
0.10085
0.098326
0.095836
0.091036
0.089242
0.08088
0.080389
0.069269
0.068412
0.10367
0.1035
0.10246
0.10094
0.098392
0.095879
0.091019
0.089181
0.080784
0.080196
0.069112
0.068145
0.1038
0.10363
0.10258
0.10105
0.09846
0.095924
0.091004
0.089121
0.080689
0.080003
0.068955
0.067876
0.10393
0.10376
0.1027
0.10115
0.098531
0.095972
0.090991
0.08906
0.080594
0.07981
0.068797
0.067607
0.10407
0.1039
0.10283
0.10126
0.098605
0.096021
0.09098
0.089001
0.080501
0.079617
0.068638
0.067337
0.10421
0.10404
0.10295
0.10137
0.098681
0.096073
0.090971
0.088942
0.080408
0.079423
0.068479
0.067066
0.10435
0.10418
0.10309
0.10149
0.098761
0.096127
0.090964
0.088884
0.080317
0.07923
0.068319
0.066794
0.1045
0.10433
0.10322
0.10161
0.098843
0.096184
0.090959
0.088826
0.080226
0.079036
0.068158
0.066521
0.10465
0.10448
0.10336
0.10173
0.098929
0.096243
0.090956
0.088769
0.080137
0.078842
0.067996
0.066246
0.10481
0.10464
0.1035
0.10186
0.099018
0.096306
0.090956
0.088714
0.080048
0.078648
0.067833
0.06597
0.10497
0.1048
0.10365
0.10199
0.099111
0.096371
0.090959
0.088659
0.079961
0.078454
0.067669
0.065692
0.10514
0.10496
0.10381
0.10212
0.099208
0.096439
0.090964
0.088605
0.079874
0.07826
0.067505
0.065413
0.10531
0.10513
0.10396
0.10226
0.099308
0.096511
0.090973
0.088553
0.079789
0.078065
0.067339
0.065132
0.10548
0.10531
0.10412
0.10241
0.099413
0.096585
0.090984
0.088502
0.079705
0.07787
0.067171
0.064849
0.10566
0.10549
0.10429
0.10256
0.099522
0.096664
0.090998
0.088452
0.079622
0.077676
0.067002
0.064563
0.10585
0.10567
0.10446
0.10271
0.099635
0.096746
0.091016
0.088404
0.07954
0.077481
0.066832
0.064276
0.10604
0.10586
0.10464
0.10287
0.099753
0.096832
0.091037
0.088357
0.079459
0.077285
0.066661
0.063986
0.10623
0.10606
0.10483
0.10304
0.099876
0.096922
0.091061
0.088312
0.07938
0.07709
0.066487
0.063693
0.10644
0.10627
0.10502
0.10321
0.1
0.097016
0.091089
0.088269
0.079302
0.076895
0.066312
0.063398
0.10664
0.10647
0.10521
0.10339
0.10014
0.097114
0.091122
0.088228
0.079225
0.076699
0.066135
0.0631
0.10686
0.10669
0.10541
0.10357
0.10028
0.097217
0.091158
0.088189
0.07915
0.076503
0.065957
0.0628
0.10708
0.10691
0.10562
0.10376
0.10042
0.097325
0.091198
0.088152
0.079076
0.076307
0.065776
0.062496
0.10731
0.10714
0.10584
0.10396
0.10057
0.097438
0.091243
0.088117
0.079004
0.076111
0.065593
0.062188
0.10755
0.10738
0.10606
0.10416
0.10073
0.097556
0.091292
0.088085
0.078933
0.075914
0.065408
0.061878
0.10779
0.10763
0.10629
0.10437
0.10089
0.097679
0.091346
0.088055
0.078863
0.075717
0.065221
0.061563
0.10804
0.10788
0.10653
0.10459
0.10106
0.097808
0.091405
0.088028
0.078796
0.07552
0.065031
0.061245
0.1083
0.10814
0.10678
0.10482
0.10124
0.097942
0.09147
0.088004
0.07873
0.075323
0.064838
0.060923
0.10856
0.10841
0.10703
0.10505
0.10143
0.098083
0.091539
0.087983
0.078665
0.075125
0.064643
0.060597
0.10884
0.10869
0.1073
0.1053
0.10162
0.09823
0.091614
0.087965
0.078603
0.074927
0.064446
0.060266
0.10912
0.10898
0.10757
0.10555
0.10182
0.098383
0.091694
0.08795
0.078542
0.074728
0.064245
0.05993
0.10941
0.10927
0.10785
0.10581
0.10203
0.098544
0.091781
0.087939
0.078482
0.074529
0.064041
0.05959
0.10972
0.10958
0.10814
0.10608
0.10225
0.098711
0.091873
0.08793
0.078425
0.07433
0.063833
0.059244
0.11003
0.10989
0.10844
0.10636
0.10247
0.098885
0.091972
0.087926
0.078369
0.07413
0.063622
0.058893
0.11035
0.11022
0.10875
0.10665
0.10271
0.099067
0.092077
0.087925
0.078315
0.073929
0.063408
0.058537
0.11068
0.11056
0.10907
0.10695
0.10295
0.099256
0.092189
0.087928
0.078263
0.073727
0.06319
0.058175
0.11102
0.11091
0.10941
0.10726
0.10321
0.099454
0.092307
0.087934
0.078213
0.073525
0.062967
0.057806
0.11137
0.11127
0.10975
0.10758
0.10347
0.099659
0.092432
0.087945
0.078164
0.073321
0.06274
0.057431
0.11174
0.11164
0.11011
0.10791
0.10375
0.099873
0.092565
0.087959
0.078117
0.073117
0.062509
0.057049
0.11211
0.11202
0.11047
0.10826
0.10403
0.1001
0.092705
0.087978
0.078071
0.072911
0.062273
0.056659
0.1125
0.11241
0.11085
0.10861
0.10433
0.10033
0.092852
0.088001
0.078027
0.072703
0.062032
0.056263
0.1129
0.11282
0.11125
0.10898
0.10464
0.10057
0.093007
0.088028
0.077985
0.072494
0.061785
0.055858
0.11331
0.11324
0.11165
0.10936
0.10496
0.10082
0.093169
0.088059
0.077944
0.072283
0.061532
0.055444
0.11373
0.11368
0.11207
0.10976
0.10529
0.10108
0.09334
0.088094
0.077904
0.07207
0.061274
0.055022
0.11417
0.11412
0.1125
0.11016
0.10564
0.10135
0.093518
0.088134
0.077865
0.071855
0.061009
0.054591
0.11462
0.11458
0.11295
0.11058
0.10599
0.10162
0.093704
0.088178
0.077827
0.071637
0.060737
0.05415
0.11508
0.11506
0.11341
0.11102
0.10636
0.10191
0.093899
0.088225
0.07779
0.071416
0.060457
0.053699
0.11556
0.11555
0.11389
0.11147
0.10675
0.10221
0.094102
0.088277
0.077753
0.071192
0.06017
0.053236
0.11606
0.11606
0.11438
0.11193
0.10715
0.10252
0.094314
0.088333
0.077716
0.070963
0.059875
0.052763
0.11656
0.11658
0.11489
0.11241
0.10756
0.10285
0.094534
0.088393
0.07768
0.070731
0.05957
0.052277
0.11709
0.11712
0.11542
0.11291
0.10799
0.10318
0.094762
0.088457
0.077643
0.070495
0.059256
0.051779
0.11763
0.11767
0.11596
0.11342
0.10843
0.10352
0.094999
0.088524
0.077605
0.070253
0.058932
0.051267
0.11818
0.11825
0.11652
0.11395
0.10889
0.10388
0.095245
0.088595
0.077566
0.070006
0.058598
0.050741
0.11876
0.11884
0.1171
0.11449
0.10936
0.10425
0.0955
0.08867
0.077526
0.069752
0.058252
0.0502
0.11935
0.11945
0.1177
0.11506
0.10985
0.10463
0.095764
0.088747
0.077485
0.069492
0.057894
0.049644
0.11996
0.12007
0.11832
0.11564
0.11036
0.10502
0.096037
0.088828
0.077441
0.069225
0.057523
0.049071
0.12058
0.12072
0.11895
0.11624
0.11088
0.10543
0.096319
0.088912
0.077394
0.06895
0.057138
0.048481
0.12123
0.12139
0.11961
0.11686
0.11143
0.10585
0.09661
0.088998
0.077344
0.068666
0.056739
0.047872
0.1219
0.12208
0.1203
0.11751
0.11199
0.10628
0.09691
0.089086
0.077291
0.068373
0.056324
0.047245
0.12259
0.1228
0.121
0.11817
0.11257
0.10673
0.09722
0.089178
0.077234
0.06807
0.055893
0.046597
0.12331
0.12354
0.12173
0.11886
0.11318
0.10719
0.09754
0.089271
0.077172
0.067756
0.055445
0.045927
0.12404
0.1243
0.12249
0.11957
0.1138
0.10767
0.097871
0.089366
0.077104
0.06743
0.054979
0.045235
0.12481
0.12509
0.12328
0.12031
0.11445
0.10816
0.098211
0.089463
0.077032
0.067092
0.054493
0.04452
0.1256
0.12591
0.12409
0.12108
0.11513
0.10868
0.098562
0.089562
0.076953
0.066741
0.053986
0.043779
0.12642
0.12676
0.12494
0.12188
0.11583
0.10921
0.098925
0.089663
0.076867
0.066376
0.053458
0.043012
0.12727
0.12764
0.12582
0.1227
0.11656
0.10976
0.099299
0.089765
0.076774
0.065995
0.052907
0.042218
0.12815
0.12856
0.12674
0.12356
0.11732
0.11033
0.099685
0.089868
0.076672
0.065598
0.052332
0.041394
0.12907
0.12951
0.1277
0.12446
0.11811
0.11093
0.10008
0.089973
0.076562
0.065184
0.051731
0.04054
0.13002
0.13051
0.12869
0.1254
0.11893
0.11155
0.1005
0.090079
0.076443
0.064751
0.051103
0.039653
0.13102
0.13155
0.12974
0.12638
0.11979
0.11219
0.10092
0.090187
0.076313
0.064299
0.050447
0.038732
0.13206
0.13263
0.13083
0.1274
0.12069
0.11286
0.10137
0.090296
0.076173
0.063826
0.049761
0.037776
0.13314
0.13377
0.13197
0.12848
0.12164
0.11356
0.10182
0.090406
0.07602
0.06333
0.049043
0.036782
0.13428
0.13496
0.13317
0.1296
0.12262
0.1143
0.1023
0.090516
0.075854
0.062811
0.048291
0.035747
0.13547
0.1362
0.13443
0.13079
0.12366
0.11506
0.10279
0.090627
0.075674
0.062265
0.047502
0.034671
0.13672
0.13751
0.13576
0.13203
0.12475
0.11586
0.1033
0.090737
0.075477
0.061691
0.046676
0.033549
0.13802
0.13889
0.13715
0.13334
0.12589
0.1167
0.10382
0.090847
0.075262
0.061087
0.045808
0.032381
0.1394
0.14034
0.13862
0.13472
0.12709
0.11758
0.10437
0.090953
0.075026
0.060448
0.044895
0.031162
0.14084
0.14187
0.14017
0.13618
0.12835
0.1185
0.10493
0.091056
0.074767
0.059773
0.043935
0.02989
0.14236
0.14347
0.14181
0.13772
0.12968
0.11947
0.10551
0.091152
0.07448
0.059056
0.042922
0.02856
0.14395
0.14517
0.14354
0.13934
0.13108
0.12048
0.10611
0.091239
0.074162
0.058294
0.041853
0.027169
0.14562
0.14696
0.14536
0.14106
0.13255
0.12154
0.10672
0.091314
0.073808
0.057479
0.040721
0.025711
0.14738
0.14885
0.14729
0.14287
0.1341
0.12264
0.10735
0.091371
0.073411
0.056607
0.03952
0.024182
0.14923
0.15084
0.14933
0.14479
0.13572
0.12379
0.10798
0.091406
0.072965
0.05567
0.038244
0.022576
0.15117
0.15294
0.15149
0.14681
0.13743
0.12499
0.10862
0.091412
0.072462
0.05466
0.036884
0.020884
0.15321
0.15515
0.15376
0.14895
0.13922
0.12623
0.10926
0.091382
0.071892
0.053566
0.035432
0.019101
0.15535
0.15749
0.15617
0.15121
0.1411
0.12751
0.10989
0.091306
0.071245
0.052379
0.033877
0.017217
0.15758
0.15995
0.15871
0.15359
0.14306
0.12883
0.1105
0.091174
0.070509
0.051088
0.032209
0.015222
0.15993
0.16255
0.1614
0.1561
0.14512
0.13018
0.11109
0.090973
0.069672
0.049679
0.030416
0.013105
0.16238
0.16529
0.16424
0.15876
0.14726
0.13156
0.11165
0.090692
0.068719
0.048138
0.028485
0.010856
0.16495
0.16818
0.16725
0.16155
0.14949
0.13296
0.11216
0.090312
0.067633
0.046452
0.026402
0.0084626
0.16764
0.17123
0.17045
0.16451
0.15182
0.13438
0.1126
0.089816
0.066397
0.044604
0.024155
0.0059118
0.17046
0.17447
0.17384
0.16763
0.15424
0.13579
0.11297
0.089183
0.064989
0.042576
0.021727
0.003191
0.17341
0.17789
0.17745
0.17093
0.15675
0.13719
0.11323
0.088387
0.063387
0.040348
0.019102
0.00028745
0.17651
0.18153
0.1813
0.17442
0.15934
0.13856
0.11335
0.087398
0.061562
0.037898
0.016264
-0.0028118
0.17977
0.18542
0.18543
0.17812
0.16203
0.13987
0.11332
0.086179
0.059482
0.0352
0.013192
-0.00612
0.18319
0.18957
0.18986
0.18206
0.16479
0.14109
0.11307
0.084684
0.057108
0.032222
0.0098634
-0.0096507
0.18679
0.19402
0.19464
0.18623
0.16761
0.14218
0.11255
0.082858
0.05439
0.028927
0.0062522
-0.013419
0.19058
0.19881
0.1998
0.19065
0.17045
0.14308
0.1117
0.080634
0.051272
0.025269
0.0023263
-0.017441
0.19454
0.20397
0.20538
0.19532
0.17328
0.14371
0.11043
0.07793
0.047685
0.021196
-0.001951
-0.021736
0.19867
0.20951
0.21139
0.20021
0.17602
0.14398
0.10864
0.074651
0.043551
0.016648
-0.0066212
-0.026326
0.20295
0.21547
0.21784
0.20529
0.17855
0.14374
0.10618
0.070688
0.038786
0.011561
-0.011727
-0.031229
0.20731
0.22184
0.22472
0.21045
0.18074
0.14284
0.10292
0.065921
0.033302
0.0058768
-0.017306
-0.036463
0.21169
0.2286
0.23196
0.21556
0.18238
0.14106
0.098675
0.060224
0.027017
-0.00045504
-0.023383
-0.042031
0.21599
0.23567
0.23943
0.22038
0.18317
0.13814
0.093246
0.05347
0.019863
-0.0074615
-0.029958
-0.047914
0.22009
0.24294
0.24686
0.22453
0.18273
0.13377
0.086425
0.045544
0.011794
-0.015138
-0.036996
-0.054066
0.22388
0.25016
0.25382
0.22747
0.18057
0.12758
0.077998
0.03635
0.0027997
-0.023442
-0.044423
-0.0604
0.22722
0.25689
0.25953
0.22836
0.17601
0.11915
0.067763
0.025836
-0.0070858
-0.032286
-0.052122
-0.066797
0.23006
0.26241
0.2627
0.22592
0.16816
0.10803
0.055572
0.014018
-0.017768
-0.041542
-0.059944
-0.073113
0.23245
0.26545
0.26127
0.21833
0.15592
0.093772
0.041368
0.0010179
-0.029071
-0.051031
-0.06772
-0.079202
0.23466
0.26409
0.25217
0.20306
0.13793
0.075936
0.025225
-0.012907
-0.040719
-0.060524
-0.075269
-0.084938
0.23728
0.25569
0.23127
0.17694
0.11264
0.054148
0.0073265
-0.0274
-0.052361
-0.069756
-0.082418
-0.090226
0.2413
0.23737
0.19421
0.1367
0.078568
0.028077
-0.012142
-0.042116
-0.063663
-0.078477
-0.089023
-0.095021
0.2473
0.20593
0.13787
0.080378
0.03478
-0.0025294
-0.033124
-0.056887
-0.07444
-0.086554
-0.095026
-0.099355
0.25587
0.15538
0.058404
0.0066103
-0.019589
-0.038401
-0.056149
-0.072079
-0.084958
-0.094206
-0.10065
-0.10349
0.27768
0.087802
-0.043064
-0.082632
-0.083974
-0.080404
-0.08256
-0.089003
-0.096369
-0.10241
-0.10672
-0.10818
0.32453
0.021687
-0.14886
-0.17346
-0.14919
-0.1238
-0.11055
-0.10728
-0.10884
-0.11145
-0.11355
-0.11361
0.10332
0.06403
0.053964
0.047979
0.043861
0.040757
0.038273
0.03606
0.034173
0.032077
0.030508
0.027504
0.12273
0.079351
0.06684
0.058874
0.053452
0.049419
0.046227
0.043409
0.041043
0.038415
0.036527
0.032979
0.10999
0.074146
0.062821
0.054977
0.049622
0.045659
0.042548
0.039817
0.037562
0.03504
0.033325
0.029882
0.10489
0.073767
0.062766
0.054828
0.049336
0.045259
0.042066
0.039267
0.036983
0.034412
0.032721
0.02913
0.10423
0.07591
0.064747
0.05659
0.050853
0.046569
0.04321
0.040267
0.037878
0.035182
0.033435
0.029644
0.10357
0.077703
0.066465
0.058171
0.052234
0.047771
0.044265
0.041192
0.038706
0.035901
0.034094
0.030156
0.10244
0.078967
0.067799
0.05945
0.053365
0.048753
0.045122
0.041938
0.039368
0.036477
0.034615
0.030585
0.10125
0.080006
0.068998
0.060645
0.054443
0.0497
0.045952
0.042666
0.040017
0.037054
0.035139
0.031065
0.10013
0.080905
0.070128
0.061815
0.055525
0.050664
0.046808
0.043425
0.040699
0.037677
0.03571
0.031642
0.099071
0.081657
0.071173
0.062944
0.056602
0.051642
0.047685
0.044214
0.041415
0.038346
0.036333
0.032317
0.098046
0.082259
0.072123
0.06402
0.05766
0.052622
0.048578
0.045029
0.042162
0.039061
0.037008
0.033089
0.097051
0.082725
0.072973
0.065032
0.05869
0.053599
0.049484
0.045867
0.042941
0.039822
0.037737
0.033956
0.09609
0.08307
0.073724
0.065975
0.059683
0.054564
0.050394
0.046724
0.043748
0.040626
0.038517
0.034907
0.095164
0.083308
0.074378
0.066842
0.060628
0.055507
0.051301
0.047593
0.044576
0.041464
0.039339
0.035928
0.094274
0.083456
0.074939
0.067632
0.06152
0.056419
0.052195
0.048464
0.045418
0.042329
0.040195
0.037001
0.09342
0.083525
0.075414
0.068344
0.062353
0.057293
0.053067
0.049328
0.046264
0.043209
0.041073
0.038106
0.092603
0.08353
0.075809
0.06898
0.063125
0.058122
0.053912
0.050178
0.047106
0.044095
0.041962
0.039224
0.091822
0.083481
0.076133
0.069544
0.063834
0.058903
0.054721
0.051007
0.047935
0.044976
0.042849
0.040334
0.091076
0.083386
0.076391
0.07004
0.064482
0.059634
0.055492
0.051807
0.048745
0.045844
0.043725
0.041422
0.090364
0.083256
0.076593
0.070473
0.06507
0.060314
0.056222
0.052576
0.049529
0.04669
0.044581
0.042471
0.089685
0.083095
0.076744
0.070849
0.065601
0.060944
0.056909
0.053309
0.050284
0.047507
0.04541
0.043472
0.089037
0.082911
0.07685
0.071171
0.066078
0.061524
0.057552
0.054005
0.051005
0.048292
0.046205
0.044416
0.088417
0.082708
0.076917
0.071446
0.066505
0.062057
0.058152
0.054661
0.051692
0.04904
0.046963
0.045299
0.087825
0.082489
0.076951
0.071677
0.066886
0.062545
0.05871
0.055279
0.052341
0.049749
0.047682
0.046117
0.087258
0.082259
0.076955
0.071869
0.067224
0.062989
0.059227
0.055857
0.052954
0.050417
0.04836
0.04687
0.086715
0.082019
0.076934
0.072027
0.067522
0.063394
0.059705
0.056397
0.05353
0.051044
0.048996
0.047559
0.086193
0.081772
0.076891
0.072154
0.067784
0.063761
0.060146
0.056901
0.05407
0.051631
0.049592
0.048188
0.085692
0.08152
0.076829
0.072252
0.068014
0.064092
0.060551
0.057368
0.054575
0.052178
0.050147
0.048759
0.08521
0.081264
0.07675
0.072326
0.068213
0.064391
0.060924
0.057801
0.055046
0.052686
0.050664
0.049276
0.084746
0.081006
0.076657
0.072377
0.068385
0.06466
0.061265
0.058201
0.055485
0.053157
0.051145
0.049745
0.084298
0.080746
0.076552
0.072408
0.068531
0.064901
0.061576
0.058571
0.055892
0.053594
0.05159
0.050168
0.083865
0.080486
0.076436
0.072422
0.068655
0.065115
0.061861