/*--------------------------------*- C++ -*----------------------------------*\
  =========                 |
  \\      /  F ield         | OpenFOAM: The Open Source CFD Toolbox
   \\    /   O peration     | Website:  https://openfoam.org
    \\  /    A nd           | Version:  6.0
     \\/     M anipulation  |
\*---------------------------------------------------------------------------*/
FoamFile
{
    version     2.0;
    format      ascii;
    class       surfaceScalarField;
    location    "17";
    object      phi;
}
// * * * * * * * * * * * * * * * * * * * * * * * * * * * * * * * * * * * * * //

dimensions      [0 3 -1 0 0 0 0];

internalField   nonuniform List<scalar> 
68636
(
3.71804e-05
0.00309863
1.42598e-08
7.48917e-05
0.00306352
0.000112186
0.00299503
0.000148392
0.00289388
0.000183035
0.00276117
0.000215713
0.00259818
0.000246062
0.00240665
0.000273706
0.00218887
0.000298331
0.00194724
0.000319655
0.00168424
0.000337443
0.00140246
0.000351505
0.0011047
0.000361733
0.000794526
0.000367871
0.000474556
0.000136857
0.000364694
3.67481e-05
0.00306185
3.33544e-08
7.40361e-05
0.00302623
0.000110888
0.00295818
0.000146649
0.00285813
0.00018087
0.00272698
0.000213157
0.00256593
0.000243146
0.0023767
0.000270458
0.0021616
0.000294784
0.00192297
0.000315848
0.00166321
0.000333425
0.00138491
0.000347306
0.00109085
0.000357472
0.00078439
0.000363212
0.000468851
0.000138587
0.000361573
3.63335e-05
0.00302547
3.87591e-08
7.31913e-05
0.00298937
0.000109594
0.00292178
0.000144915
0.0028228
0.000178725
0.00269318
0.000210632
0.00253401
0.000240265
0.00234707
0.000267247
0.0021346
0.00029128
0.00189893
0.00031209
0.00164238
0.000329465
0.00136752
0.000343164
0.00107712
0.000353191
0.000774337
0.000359124
0.000462876
0.000138736
0.000358848
3.59241e-05
0.0029895
3.79936e-08
7.23458e-05
0.00295294
0.000108301
0.00288581
0.000143194
0.0027879
0.000176607
0.00265977
0.000208139
0.00250248
0.000237417
0.00231781
0.000264071
0.00210795
0.000287813
0.0018752
0.000308374
0.00162182
0.000325549
0.00135035
0.000339077
0.00106359
0.000348933
0.000764479
0.000354832
0.00045697
0.00013849
0.000355089
3.55136e-05
0.00295395
2.86916e-08
7.14971e-05
0.00291695
0.000107013
0.00285029
0.00014149
0.00275342
0.000174515
0.00262674
0.000205676
0.0024713
0.000234602
0.00228887
0.00026093
0.0020816
0.000284384
0.00185174
0.000304699
0.00160148
0.000321675
0.00133336
0.000335045
0.0010502
0.00034473
0.000754767
0.0003505
0.000451158
0.000137738
0.000351127
3.51006e-05
0.00291883
1.29342e-08
7.06476e-05
0.0028814
0.000105734
0.00281519
0.000139805
0.00271934
0.000172449
0.00259409
0.000203245
0.0024405
0.000231821
0.00226029
0.000257827
0.00205559
0.000280997
0.00182857
0.000301069
0.0015814
0.000317847
0.00131658
0.000331069
0.00103696
0.000340602
0.00074522
0.000346261
0.000445476
0.000136769
0.00034721
3.46863e-05
0.00288415
-3.04233e-09
6.98015e-05
0.00284628
0.000104467
0.00278052
0.000138142
0.00268565
0.000170408
0.00256182
0.000200841
0.00241005
0.000229072
0.00223206
0.000254762
0.00202988
0.000277653
0.00180567
0.000297487
0.00156154
0.000314069
0.00129998
0.000327147
0.00102386
0.000336548
0.000735798
0.000342116
0.00043987
0.000135517
0.000343255
3.42731e-05
0.00284989
-1.8809e-08
6.89634e-05
0.00281158
0.000103216
0.00274626
0.0001365
0.00265236
0.000168392
0.00252992
0.000198464
0.00237996
0.000226353
0.00220416
0.000251732
0.00200449
0.000274349
0.00178304
0.000293951
0.00154193
0.000310338
0.00128358
0.000323273
0.00101091
0.000332559
0.000726492
0.000338044
0.000434355
0.000134272
0.000339254
3.38629e-05
0.00281605
-2.80336e-08
6.81361e-05
0.0027773
0.000101985
0.00271241
0.000134881
0.00261946
0.000166399
0.00249841
0.000196111
0.00235024
0.000223661
0.00217661
0.000248735
0.00197941
0.000271084
0.00176069
0.000290457
0.00152254
0.000306653
0.00126738
0.000319445
0.000998105
0.000328627
0.000717296
0.000334041
0.000428913
0.000132947
0.000335271
3.34569e-05
0.00278261
-2.85258e-08
6.73212e-05
0.00274343
0.000100772
0.00267894
0.000133283
0.00258693
0.000164427
0.00246725
0.00019378
0.00232087
0.000220997
0.00214938
0.00024577
0.00195462
0.000267857
0.00173859
0.000287005
0.00150338
0.000303012
0.00125135
0.000315662
0.000985438
0.000324744
0.000708193
0.000330102
0.000423521
0.000131647
0.000331361
3.30559e-05
0.00274957
-2.13076e-08
6.65188e-05
0.00270997
9.95765e-05
0.00264589
0.000131705
0.0025548
0.000162475
0.00243648
0.000191472
0.00229187
0.00021836
0.00212249
0.000242838
0.00193013
0.000264666
0.00171676
0.000283594
0.00148444
0.000299415
0.00123553
0.000311922
0.000972922
0.000320906
0.000699199
0.000326222
0.000418183
0.00013025
0.000327538
3.26601e-05
0.00271691
-7.24697e-09
6.57284e-05
0.00267689
9.83979e-05
0.0026132
0.000130145
0.00252304
0.000160544
0.00240607
0.000189188
0.00226321
0.000215751
0.00209592
0.00023994
0.00190593
0.000261515
0.00169517
0.000280226
0.00146572
0.000295864
0.00121988
0.000308227
0.00096054
0.000317114
0.00069029
0.000322393
0.000412869
0.000128807
0.000323792
3.22696e-05
0.00268463
9.37764e-09
6.49488e-05
0.00264421
9.72339e-05
0.00258092
0.000128603
0.00249167
0.000158633
0.00237605
0.000186929
0.00223491
0.000213173
0.00206967
0.000237079
0.00188202
0.000258405
0.00167385
0.000276902
0.00144721
0.000292359
0.00120442
0.00030458
0.000948315
0.000313367
0.000681498
0.000318612
0.000407609
0.000127253
0.000320101
3.18841e-05
0.00265272
2.53097e-08
6.41789e-05
0.00261191
9.60831e-05
0.00254901
0.000127076
0.00246067
0.000156742
0.00234637
0.000184696
0.00220694
0.000210627
0.00204373
0.000234254
0.00185838
0.000255335
0.00165275
0.000273622
0.00142891
0.000288901
0.00118912
0.00030098
0.000936219
0.000309668
0.000672789
0.000314873
0.000402368
0.000125635
0.000316447
3.15034e-05
0.00262117
3.77223e-08
6.34178e-05
0.00257999
9.49443e-05
0.00251748
0.000125566
0.00243004
0.000154872
0.00231707
0.000182489
0.00217932
0.000208113
0.00201811
0.000231468
0.00183502
0.000252308
0.00163191
0.000270388
0.00141083
0.00028549
0.00117402
0.000297428
0.00092428
0.000306016
0.000664201
0.000311179
0.000397196
0.000123944
0.000312817
3.11273e-05
0.00259
4.45214e-08
6.26647e-05
0.00254845
9.38166e-05
0.00248632
0.00012407
0.00239978
0.000153023
0.00228811
0.000180309
0.00215202
0.000205634
0.00199277
0.00022872
0.00181193
0.000249323
0.0016113
0.000267197
0.00139294
0.000282126
0.00115908
0.000293925
0.000912464
0.000302413
0.00065569
0.000307526
0.000392047
0.000122216
0.000309209
3.07556e-05
0.00255919
4.5509e-08
6.19191e-05
0.00251728
9.26999e-05
0.00245554
0.00012259
0.00236989
0.000151195
0.00225951
0.000178158
0.00212506
0.000203188
0.00196775
0.00022601
0.0017891
0.00024638
0.00159093
0.00026405
0.00137527
0.000278807
0.00114432
0.000290468
0.000900806
0.000298858
0.000647304
0.000303917
0.000386983
0.000120472
0.000305621
3.03881e-05
0.00252876
4.11519e-08
6.11809e-05
0.00248648
9.15942e-05
0.00242512
0.000121126
0.00234035
0.000149389
0.00223123
0.000176035
0.0020984
0.000200776
0.00194299
0.000223339
0.00176653
0.000243477
0.00157079
0.000260947
0.00135779
0.000275533
0.00112972
0.000287057
0.000889266
0.000295349
0.000638991
0.000300351
0.000381947
0.000118722
0.000302057
3.00248e-05
0.0024987
3.31756e-08
6.04502e-05
0.00245606
9.05e-05
0.00239507
0.000119679
0.00231117
0.000147606
0.00220331
0.000173941
0.00207206
0.000198398
0.00191854
0.000220705
0.00174422
0.000240615
0.00155088
0.000257884
0.00134052
0.000272302
0.00111531
0.00028369
0.000877882
0.000291886
0.000630801
0.000296827
0.000377004
0.000116999
0.000298521
2.96656e-05
0.002469
2.36953e-08
5.97273e-05
0.00242599
8.9418e-05
0.00236537
0.000118249
0.00228233
0.000145847
0.00217571
0.000171877
0.00204603
0.000196054
0.00189435
0.000218108
0.00172216
0.000237791
0.00153119
0.000254863
0.00132343
0.000269112
0.00110105
0.000280366
0.000866612
0.000288465
0.000622681
0.000293345
0.00037209
0.000115285
0.000295016
2.93105e-05
0.00243968
1.48237e-08
5.90125e-05
0.00239629
8.83489e-05
0.00233604
0.000116838
0.00225385
0.000144112
0.00214844
0.000169841
0.0020203
0.000193743
0.00187046
0.000215547
0.00170036
0.000235005
0.00151173
0.00025188
0.00130656
0.000265962
0.00108697
0.000277083
0.000855499
0.000285086
0.000614686
0.000289904
0.000367274
0.000113626
0.000291545
2.89595e-05
0.0024107
8.35337e-09
5.83063e-05
0.00236694
8.72932e-05
0.00230704
0.000115445
0.00222569
0.000142401
0.00212147
0.000167835
0.00199485
0.000191465
0.00184682
0.00021302
0.00167879
0.000232255
0.00149249
0.000248934
0.00128987
0.000262851
0.00107304
0.000273839
0.000844496
0.000281747
0.000606758
0.000286503
0.000362485
0.000111977
0.000288111
2.86128e-05
0.00238209
5.35253e-09
5.76091e-05
0.00233794
8.62516e-05
0.00227841
0.000114072
0.00219787
0.000140715
0.00209484
0.000165857
0.00196971
0.000189218
0.00182346
0.000210528
0.00165748
0.000229541
0.00147348
0.000246025
0.00127339
0.000259777
0.00105929
0.000270633
0.000833649
0.000278447
0.000598955
0.000283141
0.000357796
0.000110396
0.000284714
2.82704e-05
0.0023538
6.17054e-09
5.69212e-05
0.00230929
8.52244e-05
0.00225009
0.000112719
0.00217037
0.000139053
0.00206849
0.000163907
0.00194485
0.000187001
0.00180036
0.000208067
0.00163641
0.00022686
0.00145468
0.000243151
0.00125709
0.000256739
0.00104569
0.000267464
0.000822909
0.000275184
0.000591215
0.000279816
0.000353131
0.000108817
0.000281355
2.79324e-05
0.00232586
1.0507e-08
5.62427e-05
0.00228098
8.42118e-05
0.00222213
0.000111385
0.0021432
0.000137415
0.00204247
0.000161985
0.00192028
0.000184815
0.00177753
0.000205638
0.00161559
0.000224212
0.00143611
0.000240311
0.001241
0.000253736
0.00103228
0.000264331
0.000812324
0.000271957
0.000583602
0.000276529
0.000348568
0.000107313
0.000278034
2.75989e-05
0.00229824
1.75451e-08
5.55739e-05
0.002253
8.32139e-05
0.00219448
0.000110071
0.00211633
0.0001358
0.00201673
0.000160088
0.00189599
0.000182656
0.00175496
0.000203239
0.001595
0.000221596
0.00141775
0.000237503
0.00122508
0.000250767
0.001019
0.000261233
0.000801844
0.000268766
0.000576049
0.000273278
0.000344024
0.000105802
0.000274752
2.72699e-05
0.00227094
2.62747e-08
5.49146e-05
0.00222535
8.22304e-05
0.00216717
0.000108775
0.00208979
0.000134208
0.00199131
0.000158217
0.00187198
0.000180525
0.00173265
0.000200869
0.00157466
0.00021901
0.00139961
0.000234728
0.00120936
0.000247832
0.0010059
0.00025817
0.000791518
0.000265609
0.000568624
0.000270062
0.000339582
0.000104372
0.000271506
2.69454e-05
0.00224396
3.56011e-08
5.42649e-05
0.00219803
8.12611e-05
0.00214017
0.000107498
0.00206355
0.000132638
0.00196616
0.00015637
0.00184824
0.00017842
0.0017106
0.000198527
0.00155454
0.000216453
0.00138168
0.000231983
0.00119382
0.000244928
0.000992944
0.000255139
0.000781293
0.000262487
0.000561255
0.000266881
0.000335156
0.000102927
0.000268297
2.66254e-05
0.00221729
4.46247e-08
5.36244e-05
0.00217103
8.03056e-05
0.00211349
0.000106238
0.00203762
0.000131088
0.00194132
0.000154546
0.00182479
0.00017634
0.00168881
0.000196211
0.00153468
0.000213925
0.00136397
0.000229268
0.00117849
0.000242056
0.000980165
0.000252142
0.00077122
0.000259398
0.000554014
0.000263735
0.000330833
0.000101559
0.000265125
2.631e-05
0.00219092
5.26394e-08
5.2993e-05
0.00214434
7.93634e-05
0.00208711
0.000104995
0.00201198
0.000129558
0.00191675
0.000152745
0.00180159
0.000174285
0.00166726
0.000193922
0.00151503
0.000211424
0.00134646
0.000226583
0.00116332
0.000239215
0.00096752
0.000249176
0.000761244
0.000256343
0.000546827
0.000260622
0.000326524
0.00010018
0.000261988
2.59988e-05
0.00216486
5.92585e-08
5.23703e-05
0.00211797
7.84339e-05
0.00206105
0.000103769
0.00198665
0.000128047
0.00189248
0.000150964
0.00177868
0.000172252
0.00164598
0.000191657
0.00149563
0.000208951
0.00132917
0.000223926
0.00114835
0.000236404
0.000955051
0.000246243
0.00075142
0.000253321
0.000539766
0.000257544
0.000322315
9.88747e-05
0.000258887
2.5692e-05
0.0021391
6.43098e-08
5.1756e-05
0.0020919
7.75165e-05
0.00203528
0.000102557
0.0019616
0.000126553
0.00186847
0.000149204
0.00175602
0.000170242
0.00162493
0.000189417
0.00147645
0.000206503
0.00131208
0.000221297
0.00113354
0.000233623
0.000942712
0.000243341
0.000741687
0.000250331
0.000532755
0.000254499
0.000318118
9.75608e-05
0.000255821
2.53892e-05
0.00211364
6.78555e-08
5.11497e-05
0.00206615
7.66107e-05
0.00200983
0.000101361
0.00193686
0.000125078
0.00184476
0.000147464
0.00173364
0.000168254
0.00160415
0.000187201
0.00145751
0.000204082
0.0012952
0.000218697
0.00111894
0.000230872
0.000930547
0.00024047
0.000732104
0.000247373
0.00052587
0.000251488
0.000314022
9.63073e-05
0.00025279
2.50905e-05
0.00208848
7.00588e-08
5.05511e-05
0.00204068
7.5716e-05
0.00198465
0.000100178
0.00191239
0.000123618
0.00182131
0.000145742
0.0017115
0.000166286
0.00158359
0.000185007
0.00143878
0.000201686
0.00127852
0.000216123
0.00110449
0.00022815
0.000918506
0.000237631
0.000722609
0.000244448
0.000519032
0.000248509
0.000309934
9.50525e-05
0.000249794
2.47955e-05
0.00206361
7.11812e-08
4.99597e-05
0.00201552
7.48318e-05
0.00195979
9.90091e-05
0.00188821
0.000122175
0.00179815
0.000144039
0.00168965
0.000164339
0.0015633
0.000182837
0.00142028
0.000199314
0.00126205
0.000213577
0.00109023
0.000225458
0.000906636
0.000234822
0.000713261
0.000241555
0.000512316
0.000245564
0.000305944
9.38454e-05
0.000246831
2.45041e-05
0.00203903
7.14708e-08
4.93754e-05
0.00199064
7.39577e-05
0.0019352
9.78528e-05
0.00186431
0.000120747
0.00177525
0.000142353
0.00166803
0.000162413
0.00154323
0.000180689
0.001402
0.000196968
0.00124576
0.000211058
0.00107613
0.000222794
0.000894887
0.000232044
0.000703997
0.000238694
0.000505645
0.000242652
0.00030196
9.26397e-05
0.000243904
2.42163e-05
0.00201475
7.11838e-08
4.87977e-05
0.00196606
7.30932e-05
0.00191091
9.67089e-05
0.0018407
0.000119334
0.00175263
0.000140685
0.00164669
0.000160506
0.00152341
0.000178564
0.00138395
0.000194647
0.00122968
0.000208566
0.00106222
0.000220159
0.000883304
0.000229296
0.000694876
0.000235865
0.000499095
0.000239773
0.000298073
9.14651e-05
0.00024101
2.39318e-05
0.00199074
7.05119e-08
4.82265e-05
0.00194176
7.22382e-05
0.00188689
9.55771e-05
0.00181735
0.000117936
0.00173027
0.000139034
0.00162558
0.000158619
0.00150382
0.00017646
0.0013661
0.00019235
0.00121379
0.000206101
0.00104846
0.000217553
0.000871838
0.000226579
0.000685836
0.000233067
0.000492586
0.000236927
0.000294188
9.02917e-05
0.000238151
2.36506e-05
0.00196702
6.96272e-08
4.76615e-05
0.00191776
7.13921e-05
0.00186316
9.4457e-05
0.0017943
0.000116552
0.00170818
0.0001374
0.00160474
0.000156751
0.00148448
0.000174379
0.00134848
0.000190077
0.0011981
0.000203662
0.00103488
0.000214976
0.000860536
0.000223892
0.000676937
0.000230301
0.000486196
0.000234113
0.000290396
8.91407e-05
0.000235324
2.33724e-05
0.00194357
6.86342e-08
4.71025e-05
0.00189402
7.05549e-05
0.0018397
9.33485e-05
0.00177149
0.000115183
0.00168634
0.000135783
0.00158413
0.000154903
0.00146535
0.00017232
0.00133105
0.000187828
0.00118258
0.000201249
0.00102145
0.000212426
0.000849345
0.000221235
0.000668114
0.000227566
0.000479842
0.000231332
0.000286603
8.79888e-05
0.00023253
2.30973e-05
0.00192041
6.76232e-08
4.65494e-05
0.00187057
6.97264e-05
0.00181653
9.22513e-05
0.00174898
0.000113827
0.00166477
0.000134182
0.00156378
0.000153074
0.00144646
0.000170282
0.00131385
0.000185604
0.00116727
0.000198863
0.0010082
0.000209906
0.000838314
0.000218608
0.00065943
0.000224863
0.000473607
0.000228584
0.000282902
8.68604e-05
0.000229769
2.28252e-05
0.00189751
6.66357e-08
4.60021e-05
0.00184739
6.89064e-05
0.00179362
9.11654e-05
0.00172671
0.000112485
0.00164344
0.000132598
0.00154366
0.000151265
0.00142778
0.000168266
0.00129684
0.000183404
0.00115212
0.000196504
0.000995091
0.000207413
0.000827391
0.00021601
0.000650818
0.00022219
0.000467406
0.000225867
0.000279197
8.57261e-05
0.00022704
2.25559e-05
0.0018749
6.57127e-08
4.54605e-05
0.00182449
6.80948e-05
0.00177099
9.00906e-05
0.00170472
0.000111157
0.00162238
0.000131031
0.00152379
0.000149474
0.00140935
0.000166272
0.00128005
0.000181228
0.00113717
0.000194171
0.00098216
0.000204949
0.000816625
0.000213443
0.000642342
0.000219548
0.000461321
0.000223183
0.000275583
8.46203e-05
0.000224344
2.22895e-05
0.00185254
6.48616e-08
4.49244e-05
0.00180185
6.72915e-05
0.00174862
8.90269e-05
0.00168298
0.000109843
0.00160156
0.00012948
0.00150415
0.000147703
0.00139112
0.0001643
0.00126345
0.000179077
0.00112238
0.000191864
0.000969361
0.000202513
0.000805962
0.000210905
0.000633935
0.000216937
0.000455265
0.00022053
0.00027196
8.35008e-05
0.000221679
2.20258e-05
0.00183045
6.40986e-08
4.43939e-05
0.00177948
6.64966e-05
0.00172652
8.79742e-05
0.00166151
0.000108543
0.001581
0.000127945
0.00148475
0.000145951
0.00137312
0.000162349
0.00124706
0.000176949
0.00110779
0.000189583
0.000956738
0.000200105
0.000795454
0.000208397
0.000625662
0.000214357
0.000449326
0.000217908
0.00026843
8.24181e-05
0.000219045
2.1765e-05
0.00180862
6.34167e-08
4.3869e-05
0.00175738
6.571e-05
0.00170467
8.69326e-05
0.00164028
0.000107257
0.00156067
0.000126428
0.00146558
0.000144218
0.00135532
0.00016042
0.00123085
0.000174846
0.00109336
0.000187328
0.000944244
0.000197724
0.000785044
0.000205917
0.000617454
0.000211807
0.000443413
0.000215317
0.000264888
8.13128e-05
0.000216444
2.15069e-05
0.00178705
6.28224e-08
4.33495e-05
0.00173554
6.49316e-05
0.00168309
8.59021e-05
0.00161931
0.000105984
0.00154059
0.000124926
0.00144664
0.000142504
0.00133775
0.000158513
0.00121485
0.000172766
0.00107911
0.0001851
0.000931922
0.000195371
0.000774785
0.000203467
0.000609377
0.000209287
0.000437614
0.000212757
0.000261439
8.0254e-05
0.000213872
2.12516e-05
0.00176573
6.23031e-08
4.28355e-05
0.00171395
6.41615e-05
0.00166176
8.48826e-05
0.00159858
0.000104725
0.00152074
0.000123442
0.00142792
0.00014081
0.00132037
0.000156627
0.00119902
0.00017071
0.00106502
0.000182897
0.000919724
0.000193046
0.000764621
0.000201046
0.000601363
0.000206798
0.000431838
0.000210228
0.000257975
7.91623e-05
0.000211332
2.0999e-05
0.00174467
6.18599e-08
4.2327e-05
0.00169263
6.33997e-05
0.00164069
8.38742e-05
0.00157812
0.00010348
0.00150114
0.000121974
0.00140943
0.000139134
0.00130322
0.000154763
0.0011834
0.000168678
0.00105112
0.000180719
0.000907694
0.000190748
0.000754606
0.000198653
0.000593477
0.000204337
0.000426176
0.000207729
0.000254605
7.81276e-05
0.000208822
2.07491e-05
0.00172386
6.14785e-08
4.18241e-05
0.00167154
6.26461e-05
0.00161987
8.28768e-05
0.00155788
0.000102249
0.00148176
0.000120522
0.00139115
0.000137478
0.00128626
0.00015292
0.00116795
0.00016667
0.00103736
0.000178568
0.000895785
0.000188478
0.000744682
0.000196289
0.000585651
0.000201907
0.000420535
0.000205259
0.000251217
7.70502e-05
0.000206343
2.0502e-05
0.0017033
6.11587e-08
4.13266e-05
0.00165073
6.19008e-05
0.0015993
8.18905e-05
0.0015379
0.000101032
0.00146263
0.000119087
0.0013731
0.000135841
0.00126951
0.000151099
0.0011527
0.000164685
0.00102378
0.000176441
0.00088404
0.000186234
0.000734903
0.000193953
0.000577952
0.000199505
0.000415005
0.000202819
0.000247924
7.60397e-05
0.000203893
2.02575e-05
0.00168297
6.08854e-08
4.08346e-05
0.00163014
6.11638e-05
0.00157896
8.09153e-05
0.00151814
9.98284e-05
0.00144371
0.000117668
0.00135526
0.000134222
0.00125295
0.000149299
0.00113762
0.000162723
0.00101035
0.00017434
0.000872411
0.000184017
0.000725213
0.000191645
0.000570308
0.000197132
0.000409494
0.000200409
0.000244611
7.49764e-05
0.000201473
2.00159e-05
0.0016629
6.06576e-08
4.0348e-05
0.00160982
6.0435e-05
0.00155888
7.99511e-05
0.00149863
9.86387e-05
0.00142503
0.000116266
0.00133764
0.000132623
0.0012366
0.00014752
0.00112273
0.000160784
0.000997096
0.000172264
0.000860945
0.000181826
0.000715665
0.000189365
0.00056279
0.000194788
0.000404094
0.000198028
0.000241394
7.399e-05
0.000199081
1.97769e-05
0.00164306
6.04609e-08
3.9867e-05
0.00158972
5.97145e-05
0.00153903
7.89979e-05
0.00147934
9.74627e-05
0.00140656
0.00011488
0.00132021
0.000131042
0.00122043
0.000145762
0.001108
0.000158869
0.000983979
0.000170213
0.00084959
0.000179662
0.000706201
0.000187112
0.000555324
0.000192472
0.00039871
0.000195675
0.000238154
7.29415e-05
0.000196719
1.95406e-05
0.00162346
6.02953e-08
3.93913e-05
0.00156988
5.90023e-05
0.00151942
7.80556e-05
0.00146029
9.63003e-05
0.00138832
0.00011351
0.00130301
0.00012948
0.00120447
0.000144025
0.00109347
0.000156976
0.000971039
0.000168186
0.000838394
0.000177524
0.000696878
0.000184887
0.000547982
0.000190184
0.000393435
0.000193351
0.00023501
7.19787e-05
0.000194385
1.93071e-05
0.00160409
6.01473e-08
3.89212e-05
0.00155026
5.82982e-05
0.00150004
7.71243e-05
0.00144146
9.51514e-05
0.00137029
0.000112156
0.001286
0.000127936
0.00118868
0.000142308
0.00107909
0.000155107
0.000958231
0.000166183
0.000827306
0.000175411
0.000687636
0.000182688
0.000540691
0.000187924
0.000388174
0.000191055
0.000231841
7.09449e-05
0.00019208
1.90763e-05
0.00158496
6.00176e-08
3.84564e-05
0.00153088
5.76023e-05
0.0014809
7.62038e-05
0.00142287
9.40161e-05
0.00135248
0.000110818
0.00126921
0.000126411
0.0011731
0.000140613
0.00106489
0.000153259
0.000945596
0.000164205
0.000816373
0.000173324
0.000678532
0.000180516
0.000533521
0.000185691
0.000383022
0.000188787
0.000228769
7.00051e-05
0.000189802
1.88481e-05
0.00156605
5.98941e-08
3.79971e-05
0.00151173
5.69145e-05
0.00146197
7.52942e-05
0.00140448
9.28942e-05
0.00133488
0.000109496
0.0012526
0.000124904
0.00115768
0.000138937
0.00105085
0.000151434
0.00093309
0.00016225
0.000805545
0.000171263
0.000669506
0.00017837
0.000526398
0.000183485
0.000377882
0.000186547
0.00022567
6.89869e-05
0.000187552
1.86227e-05
0.00154737
5.9779e-08
3.75432e-05
0.00149281
5.62348e-05
0.00144329
7.43953e-05
0.00138633
9.17856e-05
0.00131749
0.00010819
0.0012362
0.000123414
0.00114247
0.000137282
0.001037
0.000149631
0.000920753
0.00016032
0.00079487
0.000169226
0.000660615
0.00017625
0.000519396
0.000181307
0.00037285
0.000184334
0.000222668
6.80697e-05
0.00018533
1.83999e-05
0.0015289
5.96617e-08
3.70946e-05
0.00147411
5.55631e-05
0.00142481
7.35071e-05
0.00136838
9.06902e-05
0.00130031
0.0001069
0.00121999
0.000121943
0.00112741
0.000135646
0.00102329
0.000147849
0.00090854
0.000158412
0.000784296
0.000167214
0.0006518
0.000174156
0.000512438
0.000179154
0.000367827
0.000182147
0.000219637
6.70666e-05
0.000183134
1.81797e-05
0.00151067
5.95452e-08
3.66512e-05
0.00145565
5.48994e-05
0.00140657
7.26294e-05
0.00135065
8.9608e-05
0.00128333
0.000105625
0.00120398
0.00012049
0.00111256
0.00013403
0.00100976
0.000146089
0.000896494
0.000156528
0.000773871
0.000165226
0.000643117
0.000172088
0.000505599
0.000177028
0.000362911
0.000179988
0.000216704
6.61714e-05
0.000180965
1.79622e-05
0.00149264
5.94203e-08
3.62132e-05
0.00143739
5.42436e-05
0.00138854
7.17622e-05
0.00133313
8.85387e-05
0.00126655
0.000104365
0.00118815
0.000119054
0.00109786
0.000132434
0.000996368
0.000144351
0.000884568
0.000154666
0.000763544
0.000163263
0.000634508
0.000170045
0.000498802
0.000174928
0.000358002
0.000177854
0.000213739
6.51843e-05
0.000178823
1.77472e-05
0.00147484
5.92917e-08
3.57804e-05
0.00141937
5.35956e-05
0.00137073
7.09055e-05
0.00131583
8.74823e-05
0.00124998
0.000103121
0.00117252
0.000117635
0.00108336
0.000130857
0.000983157
0.000142633
0.000872804
0.000152828
0.000753364
0.000161323
0.000626028
0.000168026
0.000492122
0.000172853
0.0003532
0.000175747
0.000210874
6.43105e-05
0.000176706
1.75349e-05
0.00145724
5.91513e-08
3.53528e-05
0.00140154
5.29554e-05
0.00135312
7.0059e-05
0.00129872
8.64386e-05
0.0012336
0.000101892
0.00115706
0.000116234
0.00106901
0.0001293
0.000970083
0.000140937
0.000861158
0.000151011
0.000743279
0.000159408
0.000617618
0.000166032
0.000485483
0.000170804
0.000348404
0.000173665
0.000207974
6.3339e-05
0.000174615
1.73251e-05
0.00143986
5.90042e-08
3.49303e-05
0.00138394
5.23229e-05
0.00133573
6.92228e-05
0.00128183
8.54075e-05
0.00121742
0.000100677
0.0011418
0.00011485
0.00105484
0.000127761
0.000957183
0.000139261
0.000849671
0.000149217
0.000733337
0.000157515
0.000609337
0.000164063
0.000478958
0.00016878
0.000343712
0.000171609
0.000205174
6.2486e-05
0.00017255
1.71178e-05
0.00142268
5.88433e-08
3.45129e-05
0.00136654
5.16981e-05
0.00131854
6.83966e-05
0.00126512
8.43889e-05
0.00120142
9.94773e-05
0.0011267
0.000113482
0.00104083
0.000126241
0.000944417
0.000137605
0.000838298
0.000147445
0.000723487
0.000155646
0.000601123
0.000162117
0.000472472
0.00016678
0.000339025
0.000169578
0.000202337
6.15306e-05
0.000170509
1.69131e-05
0.00140571
5.86747e-08
3.41005e-05
0.00134936
5.10807e-05
0.00130157
6.75804e-05
0.00124863
8.33827e-05
0.00118563
9.82921e-05
0.0011118
0.000112131
0.001027
0.000124739
0.00093182
0.00013597
0.00082708
0.000145694
0.000713778
0.000153799
0.000593034
0.000160196
0.000466098
0.000164805
0.000334442
0.000167572
0.000199601
6.06979e-05
0.000168494
1.67108e-05
0.00138894
5.84918e-08
3.36931e-05
0.00133238
5.04709e-05
0.00128478
6.67742e-05
0.00123232
8.23887e-05
0.00117001
9.71213e-05
0.00109706
0.000110797
0.00101332
0.000123256
0.000919353
0.000134355
0.000815972
0.000143965
0.000704157
0.000151975
0.000585011
0.000158298
0.000459762
0.000162854
0.000329861
0.00016559
0.000196827
5.97584e-05
0.000166503
1.6511e-05
0.00137238
5.83009e-08
3.32906e-05
0.0013156
4.98684e-05
0.00126821
6.59777e-05
0.00121622
8.14067e-05
0.00115459
9.59648e-05
0.00108251
0.000109478
0.000999815
0.000121791
0.000907052
0.000132759
0.000805017
0.000142256
0.000694675
0.000150173
0.00057711
0.000156423
0.000453536
0.000160927
0.000325383
0.000163632
0.000194153
5.89453e-05
0.000164537
1.63136e-05
0.001356
5.80961e-08
3.28931e-05
0.00129902
4.92733e-05
0.00125183
6.51909e-05
0.0012003
8.04367e-05
0.00113934
9.48224e-05
0.00106812
0.000108176
0.000986454
0.000120344
0.000894877
0.000131183
0.00079417
0.000140569
0.000685279
0.000148394
0.000569273
0.00015457
0.000447346
0.000159023
0.000320907
0.000161698
0.00019144
5.80221e-05
0.000162594
1.61186e-05
0.00133983
5.78843e-08
3.25003e-05
0.00128264
4.86853e-05
0.00123565
6.44136e-05
0.00118458
7.94785e-05
0.00112428
9.36938e-05
0.00105392
0.00010689
0.000973267
0.000118914
0.000882864
0.000129626
0.000783471
0.000138902
0.000676018
0.000146636
0.000561557
0.000152741
0.000441264
0.000157142
0.000316532
0.000159788
0.000188827
5.72282e-05
0.000160675
1.5926e-05
0.00132384
5.76598e-08
3.21123e-05
0.00126645
4.81046e-05
0.00121965
6.36458e-05
0.00116903
7.8532e-05
0.00110939
9.25791e-05
0.00103986
0.00010562
0.00096022
0.000117502
0.000870974
0.000128088
0.000772876
0.000137256
0.00066684
0.000144899
0.000553901
0.000150934
0.000435216
0.000155285
0.000312158
0.000157901
0.000186174
5.63208e-05
0.000158779
1.57358e-05
0.00130805
5.74293e-08
3.17291e-05
0.00125047
4.75308e-05
0.00120386
6.28874e-05
0.00115368
7.7597e-05
0.00109469
9.14779e-05
0.00102599
0.000104365
0.000947343
0.000116107
0.000859243
0.000126569
0.000762428
0.000135629
0.000657795
0.000143184
0.000546364
0.000149149
0.000429275
0.00015345
0.000307884
0.000156038
0.00018362
5.55453e-05
0.000156907
1.55478e-05
0.00129244
5.71876e-08
3.13505e-05
0.00123466
4.69641e-05
0.00118824
6.21382e-05
0.0011385
7.66734e-05
0.00108015
9.03902e-05
0.00101227
0.000103125
0.000934601
0.00011473
0.000847632
0.000125069
0.00075208
0.000134023
0.000648831
0.00014149
0.000538886
0.000147386
0.000423366
0.000151638
0.000303609
0.000154196
0.000181025
5.46543e-05
0.000155057
1.53622e-05
0.00127703
5.69413e-08
3.09765e-05
0.00121905
4.64042e-05
0.00117281
6.13981e-05
0.00112351
7.57611e-05
0.00106579
8.93158e-05
0.000998724
0.0001019
0.000922026
0.000113369
0.000836175
0.000123587
0.000741876
0.000132436
0.000639997
0.000139816
0.000531524
0.000145644
0.000417563
0.000149848
0.000299432
0.000152378
0.000178529
5.38968e-05
0.00015323
1.51788e-05
0.00126179
5.66852e-08
3.06071e-05
0.00120362
4.58512e-05
0.00115757
6.0667e-05
0.00110869
7.48599e-05
0.00105159
8.82544e-05
0.000985324
0.000100691
0.000909583
0.000112024
0.000824835
0.000122123
0.000731769
0.000130869
0.000631241
0.000138163
0.000524218
0.000143924
0.00041179
0.000148079
0.000295254
0.000150582
0.000175991
5.30215e-05
0.000151425
1.49977e-05
0.00124674
5.64259e-08
3.02421e-05
0.00118838
4.53049e-05
0.00114251
5.99449e-05
0.00109406
7.39697e-05
0.00103758
8.72061e-05
0.000972097
9.9496e-05
0.000897303
0.000110697
0.000813646
0.000120677
0.000721803
0.000129321
0.000622612
0.00013653
0.000517027
0.000142225
0.00040612
0.000146333
0.000291174
0.000148807
0.000173551
5.22814e-05
0.000149643
1.48188e-05
0.00123186
5.61582e-08
2.98816e-05
0.00117331
4.47653e-05
0.00112762
5.92315e-05
0.00107959
7.30903e-05
0.00102371
8.61706e-05
0.000959012
9.83158e-05
0.000885152
0.000109385
0.00080257
0.000119248
0.000711932
0.000127792
0.000614059
0.000134918
0.00050989
0.000140546
0.00040048
0.000144607
0.000287091
0.000147055
0.000171069
5.14222e-05
0.000147882
1.4642e-05
0.00121717
5.58888e-08
2.95255e-05
0.00115844
4.42323e-05
0.00111292
5.85269e-05
0.0010653
7.22218e-05
0.00101002
8.51477e-05
0.000946095
9.71501e-05
0.000873159
0.000108089
0.000791643
0.000117837
0.000702197
0.000126282
0.00060563
0.000133325
0.000502865
0.000138888
0.000394941
0.000142903
0.000283104
0.000145324
0.000168685
5.06989e-05
0.000146142
1.44674e-05
0.00120264
5.56126e-08
2.91738e-05
0.00114373
4.37057e-05
0.00109838
5.78309e-05
0.00105117
7.13638e-05
0.000996487
8.41373e-05
0.000933316
9.59987e-05
0.000861291
0.00010681
0.000780825
0.000116444
0.000692555
0.00012479
0.000597275
0.000131751
0.000495893
0.000137251
0.00038943
0.00014122
0.000279113
0.000143614
0.000166257
4.98552e-05
0.000144424
1.4295e-05
0.0011883
5.53358e-08
2.88263e-05
0.0011292
4.31856e-05
0.00108403
5.71433e-05
0.00103722
7.05163e-05
0.000983122
8.31393e-05
0.000920702
9.48613e-05
0.000849579
0.000105546
0.000770152
0.000115067
0.000683047
0.000123316
0.000589042
0.000130197
0.00048903
0.000135633
0.000384018
0.000139557
0.000275217
0.000141925
0.000163927
4.91481e-05
0.000142727
1.41246e-05
0.00117411
5.50535e-08
2.8483e-05
0.00111484
4.26718e-05
0.00106984
5.64642e-05
0.00102343
6.96792e-05
0.000969902
8.21536e-05
0.000908223
9.37379e-05
0.000837988