/*--------------------------------*- C++ -*----------------------------------*\
  =========                 |
  \\      /  F ield         | OpenFOAM: The Open Source CFD Toolbox
   \\    /   O peration     | Website:  https://openfoam.org
    \\  /    A nd           | Version:  6.0
     \\/     M anipulation  |
\*---------------------------------------------------------------------------*/
FoamFile
{
    version     2.0;
    format      ascii;
    class       volVectorField;
    location    "17";
    object      U;
}
// * * * * * * * * * * * * * * * * * * * * * * * * * * * * * * * * * * * * * //

dimensions      [0 1 -1 0 0 0 0];

internalField   nonuniform List<vector> 
34500
(
(0.999994 3.39951e-05 -9.44476e-18)
(0.999947 -3.60963e-06 9.06176e-17)
(0.999869 -8.54867e-05 2.2938e-17)
(0.999787 -0.00016601 -1.34895e-17)
(0.999707 -0.000233353 1.32151e-16)
(0.999625 -0.000320036 3.05307e-16)
(0.999564 -0.000436055 1.52717e-17)
(0.999537 -0.000553155 -2.40162e-16)
(0.999525 -0.000672233 3.70161e-16)
(0.999512 -0.000829581 -2.20583e-17)
(0.999498 -0.00105953 -2.81248e-16)
(0.999496 -0.00142071 -4.62402e-16)
(0.999531 -0.00183523 2.15445e-16)
(1 -0.00270743 4.43112e-16)
(0.991941 -0.00785684 -3.99558e-16)
(0.999983 5.48432e-05 -2.99073e-17)
(0.999901 -0.000107714 -8.06232e-17)
(0.999786 -0.000266528 1.89816e-16)
(0.999669 -0.000338821 -1.04891e-16)
(0.999537 -0.000400932 -6.85902e-17)
(0.999395 -0.000553326 -5.99265e-16)
(0.99932 -0.000749905 9.88004e-17)
(0.99931 -0.000903953 1.5968e-16)
(0.999318 -0.00102723 -2.76442e-16)
(0.999296 -0.00123577 -4.53495e-16)
(0.999261 -0.00158477 -1.92392e-16)
(0.999258 -0.00218813 -3.95482e-16)
(0.999195 -0.00285342 -3.06646e-16)
(1.00016 -0.0041794 -5.8663e-16)
(0.993519 -0.00933811 7.1354e-16)
(0.999966 2.80251e-05 -2.22838e-17)
(0.999886 -0.000235772 9.87724e-17)
(0.999794 -0.000402532 3.53249e-17)
(0.999704 -0.000406241 -4.56995e-17)
(0.999586 -0.000425974 -1.09456e-16)
(0.999451 -0.000595672 6.47018e-17)
(0.999404 -0.000801466 -5.7527e-17)
(0.999443 -0.000898757 -8.89449e-17)
(0.999509 -0.000895578 4.63827e-16)
(0.999532 -0.000955221 -2.56602e-16)
(0.999515 -0.0011588 3.55785e-16)
(0.999537 -0.00164007 5.17319e-16)
(0.999288 -0.00222833 -3.45598e-16)
(1.00023 -0.00338461 3.15212e-16)
(0.996246 -0.00670505 -5.23342e-17)
(0.99994 -1.87076e-05 4.01593e-18)
(0.999863 -0.000346913 -1.63866e-16)
(0.999786 -0.000496597 -1.64353e-16)
(0.999714 -0.00044624 7.41879e-17)
(0.999602 -0.000456282 -2.74228e-16)
(0.999455 -0.000673205 1.38047e-16)
(0.999384 -0.000937301 3.36487e-16)
(0.999414 -0.00105777 -2.47536e-16)
(0.999495 -0.00102922 -9.72907e-16)
(0.999554 -0.00102866 3.15879e-16)
(0.999565 -0.0011633 -4.87601e-17)
(0.999637 -0.00157886 2.68733e-16)
(0.999279 -0.00218167 4.33119e-16)
(0.99995 -0.003286 -2.59659e-16)
(0.99695 -0.0066065 -1.99957e-16)
(0.999907 -6.39329e-05 4.87821e-17)
(0.999828 -0.00042278 9.35154e-17)
(0.999755 -0.000551061 -1.19979e-16)
(0.999698 -0.000472708 5.04072e-17)
(0.999595 -0.000495341 3.36904e-16)
(0.999427 -0.000765705 4.32242e-16)
(0.999296 -0.00111109 -8.7158e-16)
(0.999259 -0.00132175 3.37045e-16)
(0.999295 -0.00137938 9.28122e-16)
(0.999354 -0.00144645 -3.87564e-16)
(0.999386 -0.00163558 -1.13371e-16)
(0.999521 -0.002086 -2.99993e-17)
(0.999173 -0.00275539 -2.68508e-16)
(0.999562 -0.00384707 5.94793e-16)
(0.997239 -0.00714683 -3.92639e-16)
(0.999875 -9.79166e-05 2.83238e-17)
(0.999792 -0.000462219 3.49888e-17)
(0.999729 -0.000572586 1.26467e-16)
(0.999709 -0.000482642 -1.45408e-16)
(0.999656 -0.000507035 -6.51319e-17)
(0.999513 -0.000781423 -4.06802e-16)
(0.999349 -0.00114848 3.22473e-16)
(0.999244 -0.00141488 -8.18623e-17)
(0.999213 -0.00156004 -3.7186e-16)
(0.999239 -0.00172093 7.46185e-16)
(0.999268 -0.00199363 1.42529e-16)
(0.999445 -0.00249056 3.99396e-17)
(0.99916 -0.00319217 4.21708e-16)
(0.999313 -0.00420897 -1.20881e-15)
(0.997632 -0.00716365 4.58187e-16)
(0.999845 -0.000118294 -4.92908e-17)
(0.999756 -0.000475406 5.55966e-17)
(0.999704 -0.000580924 9.76332e-17)
(0.999732 -0.000498689 2.742e-16)
(0.999764 -0.000513983 7.60751e-17)
(0.999698 -0.000738723 3.45137e-16)
(0.999556 -0.00104724 -1.4838e-16)
(0.999418 -0.00129364 -6.37211e-16)
(0.999329 -0.00147084 -5.76746e-16)
(0.999309 -0.00169587 -7.92072e-16)
(0.99931 -0.00203902 -3.36603e-16)
(0.999491 -0.00257696 1.29268e-17)
(0.999262 -0.00330754 -3.1092e-16)
(0.999232 -0.0042664 1.0303e-15)
(0.997946 -0.00703882 -1.3507e-16)
(0.99982 -0.000125981 -3.21163e-17)
(0.999711 -0.000473867 -2.25627e-17)
(0.999649 -0.000596679 -4.53041e-17)
(0.999702 -0.000554048 -1.47152e-16)
(0.999811 -0.00057562 1.08726e-16)
(0.999836 -0.000737802 4.16892e-18)
(0.999753 -0.000950328 1.05279e-16)
(0.999619 -0.00113108 6.8584e-16)
(0.999498 -0.00130044 5.57463e-17)
(0.99944 -0.00156581 -3.10861e-16)
(0.999406 -0.00197459 4.30794e-16)
(0.999569 -0.00256717 -3.93942e-17)
(0.999385 -0.00335893 -7.67886e-18)
(0.999237 -0.0043291 1.85275e-16)
(0.998152 -0.00710425 -3.91315e-16)
(0.999798 -0.000122479 -2.78073e-18)
(0.999651 -0.000465082 -1.19324e-16)
(0.999547 -0.000628727 -2.72084e-17)
(0.999579 -0.000661464 1.9007e-16)
(0.999719 -0.000724928 -1.44284e-16)
(0.999811 -0.000851827 2.30457e-16)
(0.999789 -0.000982093 1.50931e-16)
(0.999684 -0.00109799 1.03555e-17)
(0.999562 -0.00125333 1.3841e-16)
(0.999491 -0.00155341 3.46629e-17)
(0.999442 -0.00202927 -4.07827e-16)
(0.999593 -0.00268714 2.53118e-16)
(0.999462 -0.0035518 -1.59616e-16)
(0.999276 -0.00455923 -8.18067e-16)
(0.998375 -0.00731864 4.91737e-16)
(0.999778 -0.00011005 9.13315e-17)
(0.999583 -0.000452001 7.30248e-17)
(0.999412 -0.000672298 -3.24785e-17)
(0.99938 -0.000805631 -1.63656e-16)
(0.999496 -0.000945218 -1.65445e-16)
(0.999611 -0.00107853 -6.31201e-16)
(0.999633 -0.00116657 4.46225e-16)
(0.999567 -0.00124537 9.66696e-18)
(0.999471 -0.00139953 7.69019e-16)
(0.999419 -0.00173433 7.7777e-16)
(0.999387 -0.00226974 -2.24276e-16)
(0.999553 -0.00298052 -6.64909e-17)
(0.999493 -0.00388855 3.88286e-16)
(0.999334 -0.00489638 6.82686e-16)
(0.998711 -0.00752606 -5.28184e-16)
(0.999759 -9.12632e-05 -2.66208e-17)
(0.999519 -0.000435645 4.982e-17)
(0.999276 -0.000716251 2.14419e-17)
(0.999157 -0.000955495 -4.12553e-17)
(0.999212 -0.00118765 -1.4085e-16)
(0.999309 -0.00135985 -2.04314e-17)
(0.999352 -0.0014455 -4.7254e-16)
(0.999324 -0.00151898 -6.63167e-16)
(0.999272 -0.00168682 -8.29403e-16)
(0.999267 -0.00205248 -4.90401e-16)
(0.999284 -0.00262769 2.79925e-16)
(0.999492 -0.00335996 -3.28855e-16)
(0.999517 -0.00426015 -2.38886e-16)
(0.999421 -0.00520912 -8.92383e-16)
(0.999166 -0.00762004 2.98642e-16)
(0.99974 -6.92749e-05 -7.46315e-17)
(0.999471 -0.000416643 -1.11427e-16)
(0.999171 -0.000749781 -5.38838e-18)
(0.99897 -0.00108111 9.6339e-17)
(0.998949 -0.00140033 1.24464e-16)
(0.999004 -0.00162467 -1.61992e-16)
(0.999046 -0.00173399 -1.73239e-16)
(0.999052 -0.00182541 2.15217e-16)
(0.999051 -0.00201632 1.04788e-15)
(0.99911 -0.00240452 -9.87688e-17)
(0.999195 -0.00299513 -1.56428e-16)
(0.99946 -0.00371443 2.75948e-16)
(0.999573 -0.00456144 4.23477e-18)
(0.999543 -0.00540961 2.29329e-16)
(0.999691 -0.00757907 4.89422e-17)
(0.99972 -4.68984e-05 1.07546e-16)
(0.999444 -0.000396287 7.07621e-17)
(0.999116 -0.000766988 -1.83905e-16)
(0.998857 -0.00116354 -7.45105e-17)
(0.998767 -0.00154778 5.41381e-18)
(0.998772 -0.00181973 3.05945e-16)
(0.998801 -0.00196309 4.16857e-16)
(0.998831 -0.00208478 3.07772e-16)
(0.998882 -0.00230235 -4.92991e-16)
(0.999007 -0.0027041 6.67084e-16)
(0.999165 -0.00328975 -2.12399e-16)
(0.99949 -0.00397144 1.6756e-16)
(0.999679 -0.00474054 7.81339e-16)
(0.9997 -0.00547693 -2.45949e-17)
(1.00022 -0.00743515 1.63526e-18)
(0.999698 -2.6722e-05 -6.27277e-18)
(0.999438 -0.000376128 -6.11871e-17)
(0.999114 -0.000766932 2.51897e-16)
(0.998829 -0.00119757 1.07632e-16)
(0.998691 -0.00161715 -4.08418e-17)
(0.99865 -0.00192167 3.47357e-16)
(0.998662 -0.00209827 -7.14008e-16)
(0.998709 -0.00225433 -4.51493e-16)
(0.998804 -0.00249906 -3.85741e-16)
(0.998989 -0.00290824 -5.61539e-16)
(0.999214 -0.00347731 3.32934e-16)
(0.999592 -0.00411124 -1.42807e-16)
(0.999839 -0.00479906 -1.04621e-15)
(0.999887 -0.00543766 4.70241e-16)
(1.00072 -0.0072437 1.02748e-16)
(0.999674 -1.029e-05 -3.54133e-17)
(0.999448 -0.000357885 2.34323e-17)
(0.999154 -0.000752859 -3.06903e-17)
(0.998875 -0.00118873 -1.87367e-16)
(0.998714 -0.00161478 1.42356e-17)
(0.998641 -0.00193394 1.82686e-16)
(0.998636 -0.00213774 3.21885e-16)
(0.998695 -0.00232797 4.71442e-16)
(0.998825 -0.00259965 2.21279e-16)
(0.99906 -0.00301424 -2.01541e-16)
(0.99934 -0.00356398 3.13987e-17)
(0.999757 -0.00415226 2.22804e-16)
(1.00004 -0.00476979 -1.24484e-16)
(1.0001 -0.00533666 -5.53087e-16)
(1.00116 -0.00705362 1.81049e-17)
(0.999648 1.41419e-06 -2.61811e-17)
(0.999467 -0.000342694 1.12054e-17)
(0.999221 -0.000729682 6.12819e-17)
(0.998972 -0.00114896 7.50195e-17)
(0.998811 -0.00155896 -1.06581e-16)
(0.998722 -0.00187775 -6.99646e-16)
(0.998706 -0.00210228 -2.06614e-16)
(0.998773 -0.00232527 -3.46256e-16)
(0.998931 -0.00262432 -6.00634e-16)
(0.999203 -0.00304581 6.55195e-16)
(0.999525 -0.00357971 3.78568e-16)
(0.999967 -0.00413168 -4.09717e-16)
(1.00027 -0.0046959 1.04997e-15)
(1.00032 -0.00521824 2.10528e-16)
(1.00152 -0.00690111 6.97248e-17)
(0.99962 8.47901e-06 1.63428e-17)
(0.999487 -0.000331326 -8.08836e-17)
(0.999298 -0.000702942 -3.37772e-16)
(0.999093 -0.00109218 7.93076e-17)
(0.99895 -0.00147254 3.35267e-16)
(0.998859 -0.00178174 2.9972e-17)
(0.99884 -0.00202281 6.41831e-17)
(0.998916 -0.00227763 -1.27432e-17)
(0.999095 -0.00260515 7.33024e-16)
(0.999395 -0.0030369 -1.90813e-16)
(0.999747 -0.00356126 -5.1438e-16)
(1.0002 -0.00408834 -1.09184e-16)
(1.00052 -0.00461573 -4.57874e-17)
(1.00055 -0.00511522 2.27243e-16)
(1.00183 -0.00680315 -3.75408e-16)
(0.999592 1.13049e-05 2.17059e-17)
(0.999502 -0.00032381 5.91256e-17)
(0.999369 -0.000677179 2.21736e-16)
(0.999215 -0.00103142 -1.98207e-16)
(0.999101 -0.00137748 -2.05483e-16)
(0.99902 -0.0016744 1.10602e-16)
(0.999006 -0.00193101 2.12464e-16)
(0.999093 -0.00221773 4.19905e-16)
(0.999292 -0.00257508 -5.5954e-16)
(0.999613 -0.00302066 1.20238e-17)
(0.999986 -0.00354172 -1.65702e-16)
(1.00045 -0.00405391 1.62946e-17)
(1.00077 -0.00455686 -2.11965e-16)
(1.00079 -0.00504739 6.49924e-17)
(1.0021 -0.00676499 6.22817e-16)
(0.999563 1.09651e-05 -2.79427e-18)
(0.999508 -0.000320039 1.01647e-16)
(0.999425 -0.000656118 -1.00644e-16)
(0.999321 -0.000977042 2.78774e-16)
(0.999241 -0.00129163 9.80565e-17)
(0.999179 -0.00157913 1.57325e-16)
(0.999179 -0.00185313 2.96371e-16)
(0.999281 -0.00217255 -6.61479e-16)
(0.999499 -0.00256067 1.51516e-16)
(0.999838 -0.00302255 -4.34281e-17)
(1.00023 -0.00354471 4.67101e-16)
(1.0007 -0.00404861 -2.79972e-16)
(1.00101 -0.00453431 -1.35211e-16)
(1.00102 -0.00502219 -4.65449e-17)
(1.00233 -0.00678038 -1.36455e-16)
(0.999534 8.38235e-06 -3.17999e-17)
(0.999503 -0.00031951 -2.42454e-17)
(0.99946 -0.000642012 3.20212e-16)
(0.9994 -0.000936401 -2.12195e-16)
(0.999356 -0.00122758 1.50187e-16)
(0.999319 -0.00151243 -2.78644e-16)
(0.99934 -0.00180756 -5.97845e-17)
(0.999462 -0.00216069 4.8366e-16)
(0.999701 -0.0025796 2.32023e-16)
(1.00006 -0.00305852 3.42513e-16)
(1.00046 -0.0035836 -5.84555e-16)
(1.00093 -0.00408213 6.50699e-16)
(1.00125 -0.00455299 -1.70874e-16)
(1.00125 -0.00503871 -1.60367e-16)
(1.00253 -0.00683967 -1.11559e-16)
(0.999504 4.73174e-06 4.10914e-17)
(0.999486 -0.000321971 1.23165e-17)
(0.999474 -0.000636468 -3.80009e-16)
(0.999449 -0.000913851 -1.5698e-17)
(0.999439 -0.00119275 -1.21827e-16)
(0.999432 -0.00148374 2.26971e-16)
(0.999478 -0.00180449 -9.8122e-17)
(0.999627 -0.00219201 -1.99319e-16)
(0.999889 -0.00264056 3.1311e-16)
(1.00026 -0.00313535 -7.1189e-17)
(1.00069 -0.00366264 7.43524e-16)
(1.00116 -0.00415543 -7.60522e-16)
(1.00148 -0.00461036 2.31883e-16)
(1.00148 -0.0050906 -7.69884e-17)
(1.00273 -0.00692979 -1.60209e-16)
(0.999475 7.03508e-07 -5.52501e-18)
(0.999459 -0.000327064 -1.73009e-16)
(0.999466 -0.000640075 1.47262e-16)
(0.999469 -0.000911484 5.55763e-17)
(0.99949 -0.00119025 -7.48623e-17)
(0.999514 -0.00149668 -7.52377e-17)
(0.999592 -0.00184738 1.68671e-16)
(0.99977 -0.00226919 3.452e-16)
(1.00006 -0.00274504 -3.74748e-16)
(1.00046 -0.00325295 -7.84013e-17)
(1.0009 -0.00377978 -4.11217e-16)
(1.00138 -0.0042642 7.61334e-16)
(1.00169 -0.00469997 -8.35971e-17)
(1.00169 -0.00516949 -4.27672e-17)
(1.00292 -0.00703998 1.51508e-16)
(0.999444 -2.97207e-06 5.99591e-18)
(0.999424 -0.000334866 1.1052e-16)
(0.999442 -0.0006533 -5.31133e-18)
(0.999465 -0.000929598 1.24331e-16)
(0.999513 -0.00122003 -1.5826e-16)
(0.99957 -0.00155043 5.5602e-17)
(0.999682 -0.0019345 -5.50045e-17)
(0.999894 -0.00238964 -2.87947e-16)
(1.00021 -0.00288943 7.8216e-17)
(1.00063 -0.00340651 -3.03508e-16)
(1.00109 -0.00392891 9.3127e-17)
(1.00158 -0.00440104 -4.20374e-16)
(1.0019 -0.00481352 -5.34346e-17)
(1.00191 -0.00526656 8.44058e-17)
(1.0031 -0.00715955 -1.41101e-16)
(0.999411 -6.14739e-06 -2.99175e-17)
(0.999381 -0.000345379 -2.8054e-17)
(0.999404 -0.000676 -8.42672e-18)
(0.999443 -0.000967434 -1.76787e-16)
(0.999515 -0.00127992 -7.48187e-18)
(0.999604 -0.00164135 1.20508e-16)
(0.999753 -0.00206098 2.18493e-17)
(1 -0.00254751 2.94697e-16)
(1.00036 -0.00306717 -1.16101e-16)
(1.0008 -0.00358883 4.2571e-16)
(1.00128 -0.00410229 -5.38077e-17)
(1.00178 -0.00455777 -2.99659e-18)
(1.0021 -0.00494285 -1.53743e-16)
(1.00212 -0.00537403 -3.60003e-16)
(1.00328 -0.00728165 1.65518e-16)
(0.999375 -8.62179e-06 2.52051e-17)
(0.999334 -0.00035899 8.69834e-17)
(0.999357 -0.000708183 3.193e-17)
(0.999407 -0.00102347 -3.32215e-17)
(0.999501 -0.00136653 3.37425e-16)
(0.999622 -0.00176418 -7.25586e-17)
(0.999809 -0.00222016 -3.11531e-16)
(1.0001 -0.00273536 -1.64967e-16)
(1.00048 -0.00327038 1.79501e-16)
(1.00095 -0.00379182 -4.61827e-16)
(1.00145 -0.0042918 -2.33257e-16)
(1.00196 -0.00472646 -7.30586e-17)
(1.00229 -0.00508058 2.93872e-16)
(1.00232 -0.00548546 -1.5346e-16)
(1.00346 -0.00739999 -1.30893e-16)
(0.999335 -1.06921e-05 -5.25375e-17)
(0.999283 -0.000375879 -5.44175e-17)
(0.999305 -0.000749392 -1.04056e-16)
(0.999363 -0.0010959 2.4055e-17)
(0.999478 -0.00147595 5.30094e-17)
(0.999631 -0.00191311 -9.0001e-17)
(0.999856 -0.00240494 -3.26676e-17)
(1.00018 -0.00294545 -3.22635e-17)
(1.0006 -0.00349122 3.46625e-17)
(1.0011 -0.00400785 1.09117e-16)
(1.00162 -0.00449022 5.02582e-16)
(1.00214 -0.00490051 1.91043e-16)
(1.00247 -0.00522103 -1.72595e-16)
(1.00251 -0.0055962 3.23274e-16)
(1.00364 -0.00751192 5.94795e-17)
(0.999291 -1.24833e-05 3.60526e-17)
(0.99923 -0.000396493 -1.17949e-16)
(0.99925 -0.00079939 1.29568e-16)
(0.999316 -0.0011827 -1.4048e-16)
(0.99945 -0.00160414 -1.07775e-16)
(0.999635 -0.00208229 -1.00176e-16)
(0.999898 -0.00260837 -4.13967e-17)
(1.00026 -0.00317046 -1.18423e-16)
(1.00072 -0.00372252 -2.15482e-16)
(1.00124 -0.00423019 2.2639e-16)
(1.00178 -0.00469147 -2.89708e-16)
(1.00231 -0.00507463 -2.52012e-16)
(1.00265 -0.00535983 1.75188e-16)
(1.00269 -0.00570303 -1.80662e-16)
(1.00381 -0.0076146 -8.53598e-17)
(0.999241 -1.4479e-05 1.10064e-17)
(0.999175 -0.000420926 -1.6789e-17)
(0.999193 -0.000857475 -4.05708e-17)
(0.999267 -0.00128185 3.74733e-17)
(0.999421 -0.00174725 -1.22168e-16)
(0.999637 -0.00226639 9.36732e-17)
(0.999938 -0.00282425 3.18136e-16)
(1.00034 -0.00340404 4.45775e-16)
(1.00083 -0.00395825 -1.16731e-16)
(1.00138 -0.00445343 -2.52666e-16)
(1.00193 -0.00489094 -1.29813e-16)
(1.00248 -0.0052451 2.0098e-16)
(1.00282 -0.00549419 -2.46245e-16)
(1.00287 -0.00580395 8.03274e-16)
(1.00397 -0.00770816 3.63316e-16)
(0.999187 -1.68638e-05 -4.444e-17)
(0.999119 -0.000449436 7.21813e-17)
(0.999137 -0.000923141 1.0768e-16)
(0.99922 -0.00139129 1.15381e-16)
(0.999393 -0.00190167 -1.4283e-16)
(0.99964 -0.00246057 -2.81744e-17)
(0.999976 -0.0030472 7.29742e-17)
(1.00041 -0.00364086 1.88185e-17)
(1.00093 -0.00419357 3.51993e-16)
(1.0015 -0.00467339 2.22533e-16)
(1.00208 -0.00508522 3.96168e-16)
(1.00264 -0.00540928 5.30486e-17)
(1.00297 -0.00562222 8.96199e-17)
(1.00304 -0.00589795 -3.63671e-16)
(1.00413 -0.00779178 -3.47519e-16)
(0.999127 -2.00711e-05 1.89341e-17)
(0.999062 -0.000481849 4.89237e-17)
(0.999081 -0.000995411 -2.08505e-16)
(0.999174 -0.00150908 1.92222e-16)
(0.999368 -0.00206422 1.55827e-16)
(0.999644 -0.0026608 3.00267e-16)
(1.00001 -0.00327285 -5.80942e-17)
(1.00049 -0.00387675 -3.26626e-17)
(1.00104 -0.00442484 -1.13476e-16)
(1.00163 -0.00488717 6.62315e-17)
(1.00222 -0.00527216 -6.96028e-16)
(1.00278 -0.00556577 5.43263e-16)
(1.00312 -0.00574314 -5.11219e-17)
(1.00319 -0.0059848 -5.16844e-16)
(1.00427 -0.00786635 2.67283e-16)
(0.999063 -2.41691e-05 3.36697e-17)
(0.999003 -0.000518136 7.1292e-17)
(0.999026 -0.00107353 2.2758e-16)
(0.99913 -0.00163327 -3.23247e-16)
(0.999344 -0.00223204 2.5725e-17)
(0.999649 -0.00286363 -2.31079e-16)
(1.00005 -0.00349768 2.26935e-17)
(1.00056 -0.00410853 -4.45502e-16)
(1.00113 -0.00464946 3.01077e-16)
(1.00175 -0.0050928 -3.63838e-16)
(1.00235 -0.00545045 5.26111e-16)
(1.00292 -0.00571381 -6.03978e-16)
(1.00326 -0.00585668 -2.99243e-16)
(1.00334 -0.00606459 2.12084e-16)
(1.00441 -0.00793165 -2.13779e-16)
(0.998993 -2.94311e-05 -3.98226e-17)
(0.998942 -0.000557828 -3.39282e-17)
(0.99897 -0.00115631 -4.00188e-17)
(0.999087 -0.0017621 1.25518e-17)
(0.999322 -0.00240267 -1.89639e-17)
(0.999655 -0.0030663 -2.76644e-16)
(1.00009 -0.003719 -2.58468e-16)
(1.00062 -0.00433392 1.75954e-16)
(1.00122 -0.00486573 8.42502e-17)
(1.00186 -0.0052892 5.52109e-16)
(1.00248 -0.00561957 -4.12849e-16)
(1.00305 -0.00585338 1.069e-16)
(1.00339 -0.00596315 3.95285e-17)
(1.00348 -0.00613764 -8.50392e-17)
(1.00454 -0.00798933 3.22677e-16)
(0.99892 -3.57535e-05 2.34328e-17)
(0.998878 -0.000600638 -4.009e-17)
(0.998913 -0.00124283 1.65355e-17)
(0.999044 -0.00189379 1.65501e-16)
(0.9993 -0.00257393 8.0992e-17)
(0.999661 -0.00326649 4.20661e-16)
(1.00012 -0.00393474 8.45386e-17)
(1.00068 -0.00455129 -7.45511e-17)
(1.00131 -0.00507256 -2.6076e-16)
(1.00196 -0.00547578 -3.58035e-16)
(1.00259 -0.00577935 3.13573e-16)
(1.00318 -0.00598462 2.52873e-17)
(1.00351 -0.00606287 1.55894e-16)
(1.0036 -0.00620459 1.78547e-16)
(1.00466 -0.00803982 -7.43917e-17)
(0.998842 -4.3239e-05 -2.92847e-17)
(0.998812 -0.000645884 -1.04987e-16)
(0.998855 -0.0013318 -6.62852e-17)
(0.999001 -0.00202679 1.17152e-16)
(0.999278 -0.00274401 7.59096e-17)
(0.999664 -0.00346248 4.95799e-17)
(1.00016 -0.00414346 1.96651e-17)
(1.00074 -0.00475966 3.37649e-16)
(1.00139 -0.00526946 1.13252e-16)
(1.00205 -0.00565252 -2.39161e-16)
(1.0027 -0.00593014 -4.8206e-17)
(1.00329 -0.00610814 -2.48955e-16)
(1.00363 -0.00615652 -2.29776e-16)
(1.00372 -0.00626621 5.71844e-17)
(1.00477 -0.00808461 -1.18533e-16)
(0.99876 -5.1642e-05 2.37249e-17)
(0.998743 -0.000693132 1.27832e-16)
(0.998795 -0.00142231 -7.55923e-17)
(0.998956 -0.00215962 -5.40945e-17)
(0.999254 -0.00291134 7.62957e-17)
(0.999665 -0.00365283 -4.91489e-17)
(1.00018 -0.00434411 -7.97221e-17)
(1.00079 -0.00495844 -2.08543e-16)
(1.00146 -0.00545629 4.54378e-17)
(1.00214 -0.00581962 5.22713e-16)
(1.00279 -0.00607239 1.75835e-16)
(1.00339 -0.00622452 4.68336e-16)
(1.00373 -0.00624472 1.98407e-16)
(1.00383 -0.00632321 2.76663e-16)
(1.00487 -0.00812416 2.52286e-17)
(0.998674 -6.09525e-05 2.85368e-17)
(0.99867 -0.000741618 3.55331e-17)
(0.998732 -0.00151314 9.24142e-17)
(0.998909 -0.00229104 -1.64727e-16)
(0.999227 -0.00307468 -4.21976e-16)
(0.999662 -0.00383658 -7.16722e-17)
(1.0002 -0.00453612 -3.46808e-18)
(1.00084 -0.00514749 4.56038e-17)
(1.00152 -0.00563328 2.39072e-17)
(1.00221 -0.00597761 -3.28105e-16)
(1.00288 -0.00620681 1.96064e-16)
(1.00348 -0.00633456 -3.17529e-16)
(1.00382 -0.00632825 -1.03368e-16)
(1.00393 -0.00637632 -3.41588e-16)
(1.00497 -0.00816004 -1.93841e-17)
(0.998585 -7.08481e-05 -3.97654e-17)
(0.998593 -0.000790893 -6.80865e-17)
(0.998665 -0.00160349 -6.05464e-17)
(0.998858 -0.00241988 -3.11554e-17)
(0.999196 -0.00323297 6.28623e-17)
(0.999654 -0.00401296 -1.66574e-16)
(1.00022 -0.00471908 7.0782e-17)
(1.00087 -0.00532679 1.86264e-16)
(1.00157 -0.00580074 -2.47597e-16)
(1.00228 -0.006127 1.07785e-16)
(1.00296 -0.00633399 1.19534e-16)
(1.00357 -0.00643886 9.19731e-17)
(1.00391 -0.00640757 6.49437e-16)
(1.00403 -0.00642629 3.3984e-17)
(1.00507 -0.00819291 -1.6007e-16)
(0.998492 -8.12679e-05 9.60414e-18)
(0.998512 -0.000840224 -3.85497e-18)
(0.998594 -0.00169234 -6.69859e-17)
(0.998803 -0.00254525 2.65593e-16)
(0.99916 -0.00338549 8.01906e-18)
(0.99964 -0.00418155 1.75062e-16)
(1.00023 -0.00489297 -9.72667e-17)
(1.0009 -0.00549664 -4.99821e-16)
(1.00162 -0.00595923 2.30918e-16)
(1.00234 -0.00626851 1.49343e-17)
(1.00302 -0.00645476 -5.59034e-16)
(1.00364 -0.00653824 3.69815e-18)
(1.00399 -0.00648343 -4.16556e-16)
(1.00411 -0.00647373 2.25532e-16)
(1.00515 -0.00822529 5.66873e-17)
(0.998396 -9.18768e-05 1.34567e-17)
(0.998427 -0.000889247 -9.8301e-18)
(0.99852 -0.00177913 1.60211e-16)
(0.998743 -0.00266638 -1.05228e-16)
(0.99912 -0.00353164 -1.63047e-16)
(0.99962 -0.00434207 -3.9743e-16)
(1.00023 -0.00505785 -1.92231e-16)
(1.00092 -0.00565743 2.11572e-16)
(1.00165 -0.00610933 5.12939e-17)
(1.00238 -0.00640282 -2.78111e-16)
(1.00308 -0.00656978 1.80283e-16)
(1.00371 -0.0066333 -4.86391e-17)
(1.00406 -0.00655631 1.54201e-16)
(1.00419 -0.00651944 -4.06719e-17)
(1.00524 -0.00825675 -1.07641e-16)
(0.998296 -0.000102623 -3.32178e-17)
(0.998338 -0.000937347 2.83173e-17)
(0.99844 -0.00186308 -9.3282e-17)
(0.998678 -0.00278275 -5.67891e-17)
(0.999073 -0.00367114 2.53661e-16)
(0.999593 -0.00449456 6.1447e-16)
(1.00022 -0.00521406 4.04136e-16)
(1.00093 -0.00580972 1.60342e-16)
(1.00168 -0.00625178 2.92739e-17)
(1.00242 -0.00653075 3.42129e-17)
(1.00313 -0.00667988 1.227e-16)
(1.00377 -0.00672479 -1.83945e-16)
(1.00412 -0.00662686 -2.51826e-17)
(1.00427 -0.0065639 1.35346e-16)
(1.00532 -0.00828872 2.82088e-16)
(0.998193 -0.000113203 1.00768e-17)
(0.998244 -0.000984301 -3.5653e-17)
(0.998356 -0.00194392 8.40059e-19)
(0.998609 -0.00289393 8.2359e-17)
(0.99902 -0.00380377 5.5225e-17)
(0.999559 -0.00463907 -3.55822e-16)
(1.0002 -0.00536194 -1.74869e-16)
(1.00093 -0.00595406 -3.0822e-16)
(1.0017 -0.00638721 -6.72175e-17)
(1.00245 -0.00665293 7.24904e-16)
(1.00318 -0.00678562 8.65341e-18)
(1.00382 -0.00681318 -1.34511e-16)
(1.00418 -0.00669538 -4.15932e-16)
(1.00433 -0.00660761 -1.9531e-17)
(1.0054 -0.00832011 -7.37272e-17)
(0.998087 -0.000123602 2.26703e-17)
(0.998146 -0.00102965 -2.9933e-18)
(0.998267 -0.00202113 2.91428e-17)
(0.998534 -0.00299973 -7.39871e-17)
(0.998962 -0.00392957 -2.17075e-17)
(0.999519 -0.00477593 1.4541e-16)
(1.00018 -0.00550203 -2.05553e-16)
(1.00092 -0.00609115 2.58416e-16)
(1.00171 -0.00651641 4.44135e-18)
(1.00248 -0.00677016 -3.86913e-16)
(1.00321 -0.00688777 -8.32917e-17)
(1.00387 -0.00689914 5.16996e-16)
(1.00423 -0.00676245 1.82242e-16)
(1.0044 -0.00665098 -4.8348e-16)
(1.00548 -0.00835309 -3.72171e-17)
(0.997978 -0.000133573 -1.65108e-17)
(0.998044 -0.00107332 5.2446e-17)
(0.998174 -0.00209469 9.64712e-18)
(0.998453 -0.00310005 -1.58107e-16)
(0.998897 -0.00404866 1.82725e-17)
(0.999471 -0.00490545 -6.14311e-18)
(1.00015 -0.00563487 4.775e-16)
(1.00091 -0.00622164 2.63895e-16)
(1.00171 -0.00664008 -6.57091e-16)
(1.00249 -0.00688309 -2.90371e-16)
(1.00324 -0.00698687 1.73305e-16)
(1.00391 -0.00698312 2.32494e-18)
(1.00428 -0.00682841 4.36207e-16)
(1.00446 -0.00669436 4.44249e-16)
(1.00555 -0.00838666 1.2449e-16)
(0.997866 -0.000143155 -7.46032e-18)
(0.997937 -0.001115 6.71121e-18)
(0.998076 -0.00216435 1.05507e-16)
(0.998368 -0.00319499 2.72207e-16)
(0.998826 -0.00416135 -3.25349e-17)
(0.999417 -0.00502819 -3.09798e-16)
(1.00011 -0.00576114 -3.57394e-16)
(1.00089 -0.00634631 -6.74327e-16)
(1.0017 -0.00675899 4.31947e-16)
(1.0025 -0.00699249 3.44992e-16)
(1.00327 -0.00708363 -1.56224e-16)
(1.00394 -0.00706573 -2.70076e-16)
(1.00432 -0.0068938 -4.28364e-16)
(1.00452 -0.00673811 -3.54173e-17)
(1.00563 -0.00842234 -3.72507e-16)
(0.997751 -0.000152161 1.11179e-17)
(0.997827 -0.00115479 -3.3012e-17)
(0.997974 -0.00223026 -1.24168e-16)
(0.998277 -0.00328465 -2.15239e-16)
(0.99875 -0.00426793 -4.52435e-17)
(0.999356 -0.00514459 2.94923e-16)
(1.00007 -0.00588144 2.21253e-16)
(1.00086 -0.00646581 6.83812e-16)
(1.00169 -0.00687379 7.0208e-18)
(1.00251 -0.0070989 -1.47217e-16)
(1.00328 -0.00717848 1.17795e-17)
(1.00397 -0.00714727 -2.69074e-16)
(1.00436 -0.00695882 -3.65068e-16)
(1.00457 -0.00678238 -3.28904e-16)
(1.0057 -0.00845877 3.89095e-16)
(0.997633 -0.000160682 -3.7893e-17)
(0.997713 -0.00119249 8.37763e-17)
(0.997868 -0.00229236 -9.66345e-18)
(0.998182 -0.00336934 2.59196e-16)
(0.998668 -0.00436888 -1.01239e-16)
(0.99929 -0.0052553 -7.15257e-17)
(1.00002 -0.00599649 7.44365e-17)
(1.00083 -0.00658088 -4.3134e-16)
(1.00167 -0.00698521 -3.09343e-16)
(1.00251 -0.00720301 -1.08949e-17)
(1.0033 -0.00727203 9.54163e-17)
(1.004 -0.00722828 1.48597e-16)
(1.0044 -0.00702393 3.81988e-16)
(1.00463 -0.00682751 3.89456e-16)
(1.00577 -0.00849757 -5.47922e-17)
(0.997513 -0.000168583 3.17856e-18)
(0.997596 -0.0012283 -2.77533e-17)
(0.997757 -0.00235098 -1.70339e-16)
(0.998082 -0.00344933 -2.66933e-16)
(0.998581 -0.00446464 9.6333e-17)
(0.999218 -0.00536088 1.36364e-16)
(0.999961 -0.00610693 -3.37015e-16)
(1.00079 -0.00669221 -8.28392e-17)
(1.00165 -0.00709387 2.97512e-16)
(1.0025 -0.00730536 -1.18673e-16)
(1.00331 -0.0073647 1.28587e-16)
(1.00403 -0.00730906 1.33016e-16)
(1.00444 -0.00708937 5.88997e-17)
(1.00468 -0.00687367 -4.82073e-16)
(1.00584 -0.00853733 -1.10383e-16)
(0.99739 -0.000176 2.63566e-17)
(0.997475 -0.00126214 -4.55508e-17)
(0.997643 -0.00240619 1.2582e-16)
(0.997977 -0.00352505 2.25743e-16)
(0.99849 -0.00455577 7.24698e-17)
(0.99914 -0.005462 -2.63597e-16)
(0.999899 -0.0062135 1.69476e-16)
(1.00074 -0.0068005 1.37224e-16)
(1.00162 -0.00720046 2.59391e-16)
(1.00249 -0.00740657 1.68902e-16)
(1.00332 -0.00745705 -3.13665e-16)
(1.00405 -0.0073901 3.54954e-17)
(1.00448 -0.00715556 -5.12781e-17)
(1.00473 -0.00692113 -1.35198e-17)
(1.00591 -0.00857969 4.3168e-17)
(0.997265 -0.000182842 3.2042e-17)
(0.997351 -0.00129428 5.08554e-18)
(0.997525 -0.00245838 1.76277e-16)
(0.997869 -0.00359685 -6.56813e-17)
(0.998393 -0.00464276 1.50824e-16)
(0.999058 -0.00555923 1.30934e-16)
(0.999833 -0.00631679 4.88668e-17)
(1.00069 -0.00690634 9.58777e-17)
(1.00159 -0.00730549 -1.20853e-16)
(1.00248 -0.00750705 -1.15934e-17)
(1.00332 -0.00754937 -9.00422e-17)
(1.00407 -0.00747159 -3.49089e-17)
(1.00452 -0.00722256 1.24108e-16)
(1.00479 -0.00696986 -1.21089e-18)
(1.00598 -0.00862313 -1.26905e-16)
(0.997137 -0.000189272 5.11539e-18)
(0.997224 -0.00132469 -8.89405e-17)
(0.997403 -0.0025077 -1.92389e-16)
(0.997757 -0.00366519 -1.21109e-16)
(0.998293 -0.00472619 -9.8281e-17)
(0.998972 -0.00565323 3.19051e-18)
(0.999762 -0.00641748 -5.32041e-17)
(1.00064 -0.00701038 -1.1116e-16)
(1.00156 -0.00740957 -5.52027e-17)
(1.00246 -0.00760736 -1.65024e-16)
(1.00332 -0.00764214 2.7804e-16)
(1.00409 -0.00755393 4.35253e-17)
(1.00455 -0.00729076 -2.65074e-16)
(1.00484 -0.00702015 2.54765e-16)
(1.00605 -0.0086693 4.41271e-17)
(0.997007 -0.000195227 -5.03875e-17)
(0.997094 -0.00135369 6.91913e-17)
(0.997279 -0.00255461 -7.17595e-18)
(0.997641 -0.00373048 -1.96629e-17)
(0.998189 -0.00480655 -1.43432e-16)
(0.998881 -0.00574452 1.83939e-16)
(0.999688 -0.00651612 -5.2949e-18)
(1.00058 -0.00711316 1.77729e-16)
(1.00152 -0.00751316 1.43514e-17)
(1.00244 -0.00770787 -4.36529e-18)
(1.00333 -0.00773565 -4.15898e-16)
(1.00411 -0.00763734 -1.02018e-16)
(1.00459 -0.00736026 3.01021e-16)
(1.0049 -0.00707205 -1.91695e-16)
(1.00613 -0.00871664 1.07019e-16)
(0.996875 -0.000200887 1.66367e-17)
(0.996961 -0.00138129 5.54662e-17)
(0.997151 -0.00259927 -5.75621e-17)
(0.997522 -0.0037932 -5.72319e-17)
(0.998081 -0.00488443 9.85519e-17)
(0.998787 -0.00583376 -1.66092e-16)
(0.999609 -0.00661334 -1.89869e-16)
(1.00052 -0.00721526 -9.16338e-18)
(1.00148 -0.00761682 -3.79711e-17)
(1.00242 -0.00780908 2.66093e-16)
(1.00333 -0.00783033 2.45916e-16)
(1.00413 -0.00772219 1.20781e-16)
(1.00463 -0.00743143 7.20144e-17)
(1.00496 -0.0071258 4.29304e-16)
(1.0062 -0.00876681 -2.10553e-16)
(0.996741 -0.00020621 -2.906e-17)
(0.996826 -0.00140783 -7.38241e-17)
(0.99702 -0.00264213 2.81209e-16)
(0.997399 -0.00385372 2.31065e-16)
(0.997969 -0.00496025 -5.65741e-17)
(0.99869 -0.00592139 -8.63058e-17)
(0.999528 -0.00670962 8.81998e-18)
(1.00046 -0.00731712 -2.41479e-16)
(1.00144 -0.0077209 -2.87918e-16)
(1.0024 -0.00791127 8.39379e-17)
(1.00333 -0.00792637 2.20442e-16)
(1.00416 -0.00780858 -1.36118e-16)
(1.00467 -0.00750421 -1.81065e-16)
(1.00501 -0.00718126 -4.20815e-16)
(1.00628 -0.00881815 2.39935e-17)
(0.996605 -0.000211375 6.06499e-17)
(0.996688 -0.00143331 8.66057e-17)
(0.996887 -0.00268336 -2.58283e-16)
(0.997274 -0.00391249 -1.09742e-16)
(0.997855 -0.00503454 1.81002e-16)
(0.998589 -0.00600798 2.58139e-16)
(0.999444 -0.00680548 9.56025e-17)
(1.00039 -0.00741924 1.47526e-16)
(1.00139 -0.00782585 1.96734e-17)
(1.00238 -0.00801483 -3.08009e-16)
(1.00333 -0.00802411 -2.15048e-16)
(1.00418 -0.00789682 8.33782e-17)
(1.00471 -0.00757892 -2.95066e-16)
(1.00508 -0.00723871 5.06409e-16)
(1.00635 -0.00887234 1.39038e-16)
(0.996466 -0.000216346 -5.29274e-17)
(0.996547 -0.00145808 -6.73435e-17)
(0.996751 -0.0027234 3.38132e-17)
(0.997146 -0.00396987 -8.2616e-17)
(0.997738 -0.0051077 -1.98262e-16)
(0.998486 -0.00609392 -1.20402e-16)
(0.999357 -0.00690133 8.59314e-17)
(1.00033 -0.00752199 1.01206e-17)
(1.00135 -0.007932 3.11446e-16)
(1.00236 -0.00812002 3.25845e-16)
(1.00333 -0.00812376 1.55144e-17)
(1.0042 -0.00798704 2.00976e-17)
(1.00475 -0.0076556 6.40669e-16)
(1.00514 -0.0072981 3.38294e-17)
(1.00643 -0.00892771 4.35762e-17)
(0.996326 -0.0002213 1.17238e-17)
(0.996405 -0.00148213 2.33377e-17)
(0.996613 -0.00276239 1.8063e-17)
(0.997015 -0.00402626 1.09554e-16)
(0.997618 -0.00518019 -8.93915e-17)
(0.99838 -0.00617973 -2.30229e-16)
(0.999268 -0.00699764 -1.25288e-16)
(1.00026 -0.00762582 -2.19032e-17)
(1.0013 -0.00803975 -2.19632e-16)
(1.00233 -0.00822722 -2.53745e-16)
(1.00333 -0.00822564 -3.04878e-17)
(1.00422 -0.00807954 -5.82832e-17)
(1.00479 -0.00773455 5.85188e-18)