/*--------------------------------*- C++ -*----------------------------------*\
  =========                 |
  \\      /  F ield         | OpenFOAM: The Open Source CFD Toolbox
   \\    /   O peration     | Website:  https://openfoam.org
    \\  /    A nd           | Version:  6.0
     \\/     M anipulation  |
\*---------------------------------------------------------------------------*/
FoamFile
{
    version     2.0;
    format      ascii;
    class       surfaceScalarField;
    location    "19";
    object      phi;
}
// * * * * * * * * * * * * * * * * * * * * * * * * * * * * * * * * * * * * * //

dimensions      [0 3 -1 0 0 0 0];

internalField   nonuniform List<scalar> 
93586
(
2.34117e-05
0.00154669
-2.82224e-08
4.70998e-05
0.00154208
7.09218e-05
0.00153335
9.47057e-05
0.00152054
0.000118326
0.00150362
0.000141695
0.00148259
0.000164739
0.00145746
0.000187389
0.00142828
0.000209574
0.00139512
0.000231219
0.0013581
0.000252248
0.00131733
0.000272595
0.00127295
0.000292194
0.00122511
0.000310988
0.00117393
0.000328923
0.00111957
0.000345948
0.00106217
0.000362018
0.00100188
0.000377085
0.000938875
0.00039111
0.000873309
0.00040405
0.000805359
0.000415872
0.000735203
0.000426541
0.000663023
0.000436029
0.000589006
0.000444308
0.000513346
0.000451356
0.000436236
0.000457155
0.000357879
0.000461668
0.000278458
0.000465074
0.000197968
0.000466802
0.000116951
3.57075e-05
0.00046189
2.30316e-05
0.0015237
-4.03915e-08
4.63212e-05
0.00151879
6.97481e-05
0.00150993
9.31492e-05
0.00149714
0.000116405
0.00148037
0.000139428
0.00145957
0.000162142
0.00143475
0.000184473
0.00140596
0.000206342
0.00137326
0.000227674
0.00133677
0.00024839
0.00129662
0.000268427
0.00125292
0.000287723
0.00120581
0.000306222
0.00115543
0.000323875
0.00110192
0.000340632
0.00104541
0.000356447
0.000986069
0.000371275
0.000924045
0.000385077
0.000859506
0.000397812
0.000792622
0.000409445
0.000723567
0.000419946
0.000652519
0.000429284
0.000579664
0.000437435
0.000505191
0.000444373
0.000429292
0.000450085
0.00035216
0.000454531
0.000274004
0.000457664
0.000194827
0.000459229
0.000115374
3.5796e-05
0.000459124
2.26463e-05
0.00150109
-3.34371e-08
4.55563e-05
0.00149588
6.86113e-05
0.00148687
9.16545e-05
0.0014741
0.000114568
0.00145745
0.000137261
0.00143688
0.000159652
0.00141236
0.000181662
0.00138395
0.000203209
0.00135171
0.000224218
0.00131577
0.000244614
0.00127622
0.000264337
0.0012332
0.000283327
0.00118682
0.000301534
0.00113723
0.000318906
0.00108454
0.000335397
0.00102892
0.000350961
0.000970504
0.000365554
0.000909451
0.000379136
0.000845924
0.000391668
0.000780089
0.000403117
0.000712118
0.000413451
0.000642185
0.000422641
0.000570474
0.000430663
0.00049717
0.000437491
0.000422466
0.000443107
0.000346547
0.000447481
0.000269633
0.000450538
0.000191774
0.000452206
0.000113709
3.62389e-05
0.000451773
2.22722e-05
0.00147883
-1.81945e-08
4.48254e-05
0.00147333
6.75296e-05
0.00146417
9.0231e-05
0.0014514
0.000112811
0.00143488
0.000135176
0.00141452
0.00015724
0.0013903
0.00017892
0.00136228
0.000200138
0.0013305
0.000220819
0.00129509
0.000240893
0.00125615
0.000260302
0.00121379
0.000278991
0.00116814
0.000296909
0.00111931
0.000314005
0.00106745
0.000330235
0.00101269
0.000345551
0.000955189
0.000359912
0.000895091
0.000373277
0.000832559
0.000385609
0.000767756
0.000396875
0.00070085
0.000407045
0.000632013
0.000416089
0.000561427
0.000423983
0.000489271
0.000430701
0.000415742
0.00043622
0.000341022
0.000440515
0.00026533
0.000443524
0.000188756
0.000445185
0.000112038
3.62545e-05
0.000445154
2.19133e-05
0.00145691
5.61347e-09
4.41268e-05
0.00145111
6.64936e-05
0.0014418
8.88612e-05
0.00142903
0.00011111
0.00141263
0.000133144
0.00139249
0.000154875
0.00136856
0.000176222
0.00134093
0.000197107
0.00130961
0.00021746
0.00127474
0.000237214
0.00123639
0.000256316
0.00119469
0.000274708
0.00114974
0.000292342
0.00110168
0.000309169
0.00105062
0.000325142
0.000996719
0.000340216
0.000940114
0.000354348
0.000880957
0.0003675
0.000819406
0.000379637
0.00075562
0.000390724
0.000689764
0.000400732
0.000622006
0.000409633
0.000552527
0.000417403
0.000481504
0.000424016
0.000409132
0.000429446
0.000335595
0.00043367
0.000261109
0.000436636
0.000185796
0.000438336
0.000110344
3.59556e-05
0.000438646
2.15685e-05
0.00143532
2.7441e-08
4.3453e-05
0.00142923
6.54898e-05
0.00141976
8.75271e-05
0.001407
0.000109444
0.00139071
0.000131145
0.00137079
0.000152541
0.00134717
0.000173554
0.00131992
0.000194108
0.00128906
0.000214138
0.00125471
0.000233579
0.00121695
0.000252378
0.00117589
0.00027048
0.00113164
0.000287838
0.00108432
0.0003044
0.00103406
0.000320122
0.000980999
0.000334957
0.000925279
0.000348867
0.000867048
0.000361811
0.000806461
0.000373756
0.000743673
0.000384669
0.000678849
0.000394521
0.000612151
0.000403283
0.00054376
0.000410933
0.000473851
0.000417444
0.000402615
0.000422791
0.000330241
0.000426952
0.000256942
0.000429884
0.000182856
0.000431606
0.000108614
3.55097e-05
0.000432038
2.12352e-05
0.00141404
4.47846e-08
4.27969e-05
0.00140767
6.45076e-05
0.00139805
8.62161e-05
0.00138529
0.000107802
0.00136912
0.000129169
0.00134942
0.000150232
0.00132611
0.000170913
0.00129924
0.000191141
0.00126883
0.000210853
0.001235
0.000229987
0.00119782
0.00024849
0.00115739
0.000266309
0.00111382
0.000283395
0.00106723
0.000299698
0.00101776
0.000315173
0.000965522
0.000329776
0.000910674
0.000343467
0.000853356
0.000356208
0.000793719
0.000367966
0.000731916
0.000378708
0.000668106
0.000388407
0.000602453
0.000397034
0.000535134
0.000404566
0.000466322
0.000410978
0.000396206
0.000416245
0.000324978
0.000420344
0.000252848
0.000423245
0.000179961
0.000424977
0.000106888
3.50208e-05
0.000425479
2.09109e-05
0.00139307
5.64519e-08
4.21531e-05
0.00138643
6.35397e-05
0.00137667
8.49207e-05
0.00136391
0.000106177
0.00134787
0.000127212
0.00132839
0.000147944
0.00130538
0.000168298
0.00127889
0.000188206
0.00124892
0.000207607
0.0012156
0.00022644
0.00117899
0.000244654
0.00113917
0.000262195
0.00109628
0.000279014
0.00105041
0.000295062
0.00100171
0.000310295
0.000950289
0.000324668
0.0008963
0.000338145
0.000839879
0.000350686
0.000781175
0.000362261
0.000720339
0.000372836
0.000657528
0.000382386
0.000592901
0.000390881
0.000526635
0.000398298
0.000458901
0.000404612
0.000389887
0.000409802
0.000319783
0.000413842
0.000248802
0.000416711
0.000177087
0.000418451
0.000105141
3.43962e-05
0.000419065
2.05936e-05
0.00137242
6.03754e-08
4.1518e-05
0.0013655
6.25821e-05
0.0013556
8.3637e-05
0.00134285
0.000104565
0.00132694
0.000125272
0.00130768
0.000145678
0.00128497
0.000165712
0.00125885
0.000185306
0.00122932
0.000204403
0.0011965
0.000222941
0.00116044
0.00024087
0.00112124
0.000258137
0.00107901
0.000274694
0.00103385
0.000290491
0.000985907
0.000305485
0.000935293
0.000319633
0.000882149
0.000332899
0.000826612
0.000345245
0.000768828
0.000356641
0.000708944
0.000367053
0.000647115
0.000376457
0.000583499
0.000384823
0.00051827
0.000392129
0.000451599
0.000398349
0.000383669
0.000403464
0.000314673
0.000407452
0.00024482
0.000410289
0.000174257
0.000412026
0.000103412
3.36804e-05
0.000412755
2.02816e-05
0.00135208
5.87044e-08
4.08895e-05
0.00134489
6.16328e-05
0.00133486
8.23639e-05
0.00132213
0.000102967
0.00130634
0.000123351
0.0012873
0.000143437
0.00126488
0.000163155
0.00123914
0.000182443
0.00121003
0.000201241
0.0011777
0.00021949
0.00114219
0.00023714
0.00110359
0.000254138
0.00106201
0.000270436
0.00101756
0.000285986
0.000970357
0.000300746
0.000920533
0.000314673
0.00086822
0.000327732
0.000813552
0.000339887
0.000756671
0.000351108
0.000697722
0.000361362
0.000636858
0.000370623
0.000574235
0.000378864
0.000510026
0.000386062
0.000444398
0.000392192
0.000377535
0.000397236
0.000309626
0.000401173
0.000240878
0.000403982
0.000171444
0.000405703
0.000101686
3.28835e-05
0.000406492
1.99739e-05
0.00133205
5.13837e-08
4.0267e-05
0.0013246
6.06915e-05
0.00131443
8.11018e-05
0.00130171
0.000101384
0.00128605
0.000121449
0.00126724
0.000141221
0.00124511
0.000160632
0.00121973
0.000179618
0.00119104
0.000198124
0.0011592
0.00021609
0.00112422
0.000233466
0.00108621
0.000250198
0.00104527
0.000266242
0.00100151
0.000281549
0.000955046
0.000296079
0.000906001
0.00030979
0.000854507
0.000322647
0.000800693
0.000334615
0.000744702
0.000345665
0.000686673
0.000355764
0.00062676
0.000364887
0.000565114
0.000373006
0.000501909
0.000380099
0.000437309
0.000386141
0.000371497
0.000391115
0.000304658
0.000395002
0.000236996
0.000397784
0.00016867
0.000399481
9.99971e-05
3.21035e-05
0.000400274
1.96699e-05
0.00131234
4.17575e-08
3.96503e-05
0.00130462
5.97591e-05
0.00129433
7.98523e-05
0.00128162
9.98189e-05
0.00126609
0.000119571
0.00124749
0.000139034
0.00122565
0.000158143
0.00120062
0.000176835
0.00117235
0.000195054
0.00114098
0.00021274
0.00110654
0.000229846
0.00106911
0.000246319
0.0010288
0.000262113
0.000985717
0.000277181
0.000939978
0.000291485
0.000891698
0.000304984
0.000841008
0.000317643
0.000788034
0.000329429
0.000732915
0.000340312
0.00067579
0.00035026
0.00061681
0.000359248
0.000556125
0.000367248
0.000493907
0.000374238
0.000430318
0.000380194
0.000365538
0.000385098
0.000299752
0.000388936
0.000233156
0.000391691
0.000165913
0.000393362
9.8323e-05
3.13423e-05
0.000394118
1.93693e-05
0.00129294
3.22949e-08
3.90402e-05
0.00128494
5.88369e-05
0.00127452
7.86174e-05
0.00126184
9.8273e-05
0.00124643
0.000117717
0.00122804
0.000136878
0.00120648
0.00015569
0.00118181
0.000174092
0.00115395
0.000192029
0.00112304
0.000209441
0.00108912
0.000226282
0.00105227
0.000242498
0.00101258
0.000258046
0.000970167
0.000272881
0.00092514
0.000286963
0.000877614
0.000300254
0.000827714
0.000312721
0.000775567
0.000324328
0.000721307
0.000335048
0.000665072
0.000344848
0.000607011
0.000353704
0.000547272
0.000361587
0.000486026
0.000368476
0.000423433
0.000374347
0.000359671
0.000379184
0.000294921
0.000382971
0.000229374
0.000385696
0.000163196
0.000387343
9.66833e-05
3.06471e-05
0.000388051
1.90719e-05
0.00127385
2.50141e-08
3.84371e-05
0.00126558
5.79261e-05
0.00125504
7.73987e-05
0.00124237
9.67483e-05
0.00122708
0.00011589
0.0012089
0.000134753
0.00118762
0.000153274
0.00116329
0.000171391
0.00113583
0.00018905
0.00110539
0.000206192
0.00107198
0.000222771
0.00103569
0.000238735
0.000996618
0.000254043
0.000954862
0.000268647
0.000910536
0.000282513
0.00086375
0.000295601
0.000814627
0.000307879
0.00076329
0.000319312
0.000709874
0.000329872
0.000654514
0.000339527
0.000597356
0.000348253
0.000538547
0.000356021
0.000478257
0.000362811
0.000416644
0.000368599
0.000353882
0.000373367
0.000290151
0.000377103
0.000225637
0.000379796
0.000160501
0.000381422
9.50555e-05
2.99832e-05
0.000382082
1.8778e-05
0.00125504
2.12096e-08
3.78419e-05
0.00124651
5.70277e-05
0.00123585
7.61972e-05
0.00122319
9.52458e-05
0.00120803
0.00011409
0.00119006
0.000132661
0.00116905
0.000150894
0.00114506
0.00016873
0.00111799
0.000186115
0.001088
0.000202991
0.0010551
0.000219313
0.00101937
0.00023503
0.000980897
0.0002501
0.000939789
0.00026448
0.000896153
0.000278134
0.000850094
0.000291023
0.000801736
0.000303116
0.000751197
0.000314378
0.000698611
0.000324781
0.000644111
0.000334295
0.000587843
0.000342893
0.000529951
0.000350549
0.000470603
0.000357241
0.000409956
0.000362945
0.000348181
0.000367647
0.000285455
0.000371331
0.000221958
0.000373989
0.00015785
0.000375595
9.34565e-05
2.93706e-05
0.000376219
1.84875e-05
0.00123654
2.08236e-08
3.72549e-05
0.00122775
5.61423e-05
0.00121696
7.50136e-05
0.00120433
9.37661e-05
0.00118928
0.000112318
0.00117151
0.0001306
0.00115077
0.00014855
0.00112711
0.00016611
0.00110043
0.000183224
0.00107089
0.000199839
0.00103849
0.000215907
0.0010033
0.00023138
0.000965426
0.000246218
0.000924955
0.000260378
0.000881995
0.000273824
0.000836652
0.000286519
0.000789043
0.000298431
0.000739288
0.000309526
0.000687518
0.000319776
0.000633863
0.00032915
0.00057847
0.000337623
0.000521479
0.000345167
0.000463059
0.000351763
0.000403362
0.000357385
0.000342558
0.000362019
0.00028082
0.000365651
0.000218326
0.000368273
0.000155227
0.00036986
9.18675e-05
2.87697e-05
0.000370457
1.82009e-05
0.00121831
2.32507e-08
3.66765e-05
0.00120927
5.52704e-05
0.00119837
7.38482e-05
0.00118574
9.23093e-05
0.00117081
0.000110572
0.00115324
0.000128571
0.00113276
0.000146242
0.00110944
0.000163528
0.00108314
0.000180377
0.00105404
0.000196733
0.00102212
0.000212553
0.000987478
0.000227787
0.000950187
0.000242398
0.000910342
0.000256342
0.000868048
0.000269585
0.000823407
0.000282089
0.000776536
0.000293824
0.000727552
0.000304755
0.000676585
0.000314855
0.000623764
0.000324091
0.000569233
0.000332441
0.000513131
0.000339876
0.000455625
0.000346375
0.000396866
0.000351916
0.00033702
0.000356483
0.000276258
0.000360061
0.000214752
0.000362645
0.00015265
0.000364212
9.03067e-05
2.82009e-05
0.000364792
1.79182e-05
0.00120037
2.73012e-08
3.61068e-05
0.00119108
5.44119e-05
0.00118006
7.27009e-05
0.00116746
9.0875e-05
0.00115264
0.000108854
0.00113527
0.000126573
0.00111505
0.000143969
0.00109204
0.000160987
0.00106613
0.000177574
0.00103745
0.000193676
0.00100602
0.000209251
0.000971908
0.000224251
0.00093519
0.000238639
0.000895959
0.000252371
0.000854318
0.000265415
0.000810367
0.000277733
0.000764221
0.000289294
0.000715994
0.000300064
0.000665816
0.000310016
0.000613815
0.000319118
0.000560132
0.000327346
0.000504905
0.000334672
0.0004483
0.000341076
0.000390463
0.000346535
0.00033156
0.000351035
0.000271758
0.00035456
0.000211225
0.000357104
0.000150104
0.000358651
8.87579e-05
2.76321e-05
0.000359215
1.76398e-05
0.00118269
3.15743e-08
3.5546e-05
0.00117317
5.35668e-05
0.00116204
7.15716e-05
0.00114945
8.94631e-05
0.00113475
0.000107163
0.00111756
0.000124605
0.0010976
0.000141731
0.00107491
0.000158484
0.00104937
0.000174813
0.00102112
0.000190667
0.000990165
0.000206002
0.000956568
0.000220772
0.000920413
0.000234941
0.000881787
0.000248467
0.000840788
0.000261316
0.000797515
0.000273451
0.000752082
0.000284841
0.000704602
0.000295453
0.000655202
0.000305259
0.000604009
0.000314227
0.000551163
0.000322335
0.0004968
0.000329553
0.000441082
0.000335863
0.000384156
0.000341241
0.000326184
0.000345673
0.00026733
0.000349144
0.000207759
0.000351648
0.000147607
0.000353171
8.72406e-05
2.70892e-05
0.000353725
1.73657e-05
0.0011653
3.49966e-08
3.49939e-05
0.00115554
5.27348e-05
0.0011443
7.04598e-05
0.00113173
8.80731e-05
0.00111714
0.000105497
0.00110014
0.000122669
0.00108043
0.000139528
0.00105806
0.000156021
0.00103288
0.000172097
0.00100505
0.000187706
0.000974559
0.000202806
0.000941472
0.000217351
0.00090587
0.000231306
0.000867836
0.000244628
0.000827467
0.000257286
0.000784861
0.000269241
0.000740129
0.000280465
0.000693382
0.00029092
0.000644748
0.000300583
0.00059435
0.000309419
0.000542326
0.000317407
0.000488813
0.000324518
0.00043397
0.000330734
0.000377942
0.00033603
0.000320886
0.000340395
0.000262965
0.000343812
0.00020434
0.000346275
0.000145142
0.000347773
8.57392e-05
2.65454e-05
0.000348313
1.70961e-05
0.00114816
3.66538e-08
3.44506e-05
0.00113818
5.19159e-05
0.00112683
6.93654e-05
0.00111427
8.67049e-05
0.00109979
0.000103858
0.00108298
0.000120762
0.00106352
0.00013736
0.00104146
0.000153597
0.00101663
0.000169425
0.000989214
0.000184794
0.000959183
0.000199663
0.000926598
0.000213988
0.000891539
0.000227733
0.000854087
0.000240856
0.000814339
0.000253326
0.000772388
0.000265104
0.000728346
0.000276162
0.000682323
0.000286464
0.000634443
0.000295984
0.000584829
0.00030469
0.000533619
0.00031256
0.000480945
0.000319564
0.000426966
0.000325686
0.000371823
0.000330902
0.000315672
0.000335199
0.000258673
0.00033856
0.000200982
0.000340982
0.000142728
0.000342454
8.42732e-05
2.60298e-05
0.00034298
1.68309e-05
0.00113129
3.63454e-08
3.39158e-05
0.0011211
5.11099e-05
0.00110964
6.82881e-05
0.00109709
8.53581e-05
0.00108272
0.000102245
0.0010661
0.000118886
0.00104688
0.000135226
0.00102512
0.000151213
0.00100065
0.000166797
0.000973633
0.000181931
0.000944051
0.000196574
0.000911958
0.000210683
0.000877432
0.000224221
0.000840552
0.000237149
0.000801412
0.000249434
0.000760106
0.000261038
0.000716743
0.000271933
0.000671431
0.000282083
0.000624293
0.000291462
0.000575452
0.000300038
0.000525042
0.00030779
0.000473194
0.000314689
0.000420066
0.000320717
0.000365795
0.000325852
0.000310535
0.000330081
0.000254443
0.000333388
0.000197673
0.000335768
0.000140347
0.000337211
8.28263e-05
2.55166e-05
0.00033772
1.65701e-05
0.00111469
3.41551e-08
3.33895e-05
0.00110427
5.03165e-05
0.0010927
6.72278e-05
0.00108018
8.40327e-05
0.00106591
0.000100657
0.00104947
0.000117041
0.00103049
0.000133128
0.00100903
0.000148868
0.0009849
0.000164214
0.000958281
0.000179117
0.00092914
0.000193538
0.000897531
0.000207435
0.000863529
0.000220771
0.000827211
0.000233506
0.000788671
0.000245609
0.000748
0.000257041
0.000705305
0.000267775
0.000660695
0.000277774
0.000614291
0.000287014
0.000566212
0.000295461
0.000516593
0.000303097
0.000465561
0.00030989
0.000413272
0.000315825
0.000359862
0.000320879
0.000305482
0.000325041
0.000250286
0.000328293
0.000194425
0.00033063
0.000138017
0.000332044
8.14175e-05
2.50351e-05
0.000332536
1.63136e-05
0.00109834
3.06641e-08
3.28716e-05
0.00108771
4.95357e-05
0.00107604
6.61844e-05
0.00106353
8.27286e-05
0.00104937
9.90953e-05
0.00103311
0.000115226
0.00101436
0.000131065
0.00099319
0.000146563
0.000969403
0.000161675
0.000943173
0.000176351
0.000914464
0.000190555
0.000883329
0.000204243
0.000849842
0.00021738
0.000814077
0.000229926
0.000776125
0.000241849
0.000736079
0.000253112
0.000694043
0.000263686
0.000650123
0.000273536
0.00060444
0.000282637
0.000557112
0.000290957
0.000508271
0.000298476
0.000458043
0.000305165
0.000406582
0.000311008
0.00035402
0.000315981
0.000300506
0.000320075
0.000246192
0.000323272
0.000191225
0.000325567
0.000135721
0.000326951
8.00294e-05
2.45583e-05
0.000327424
1.60614e-05
0.00108225
2.65482e-08
3.2362e-05
0.00107141
4.87674e-05
0.00105963
6.51579e-05
0.00104713
8.14458e-05
0.00103307
9.75595e-05
0.00101698
0.000113441
0.000998471
0.000129037
0.000977588
0.000144298
0.000954133
0.00015918
0.000928285
0.000173634
0.000900001
0.000187624
0.000869333
0.000201107
0.000836351
0.000214048
0.00080113
0.000226407
0.00076376
0.000238153
0.000724329
0.000249248
0.000682942
0.000259664
0.000639704
0.000269366
0.000594734
0.00027833
0.000548148
0.000286523
0.000500076
0.000293926
0.000450641
0.000300511
0.000399997
0.000306262
0.000348272
0.000311155
0.000295614
0.000315182
0.00024217
0.000318324
0.000188087
0.000320577
0.000133475
0.000321931
7.86804e-05
2.41148e-05
0.000322385
1.58131e-05
0.00106642
2.25637e-08
3.18606e-05
0.00105536
4.80115e-05
0.00104348
6.41482e-05
0.00103099
8.01842e-05
0.00101704
9.60493e-05
0.00100112
0.000111687
0.000982835
0.000127044
0.000962233
0.000142072
0.000939105
0.000156728
0.000913631
0.000170964
0.000885765
0.000184744
0.000855555
0.000198024
0.00082307
0.000210772
0.000788384
0.000222947
0.000751585
0.000234518
0.00071276
0.000245446
0.000672012
0.000255707
0.000629446
0.000265262
0.000585177
0.000274089
0.000539322
0.000282157
0.000492006
0.000289445
0.000443354
0.000295926
0.000393513
0.000301586
0.000342613
0.0003064
0.000290797
0.00031036
0.00023821
0.000313448
0.000184996
0.000315659
0.000131263
0.000316984
7.7352e-05
2.36762e-05
0.000317417
1.55688e-05
0.00105083
1.93325e-08
3.13672e-05
0.00103955
4.72681e-05
0.00102758
6.31552e-05
0.0010151
7.89439e-05
0.00100124
9.45648e-05
0.000985493
0.000109962
0.000967429
0.000125085
0.000947104
0.000139885
0.000924297
0.000154318
0.000899191
0.00016834
0.000871735
0.000181913
0.000841976
0.000194994
0.000809981
0.000207552
0.000775822
0.000219544
0.000739585
0.000230941
0.000701358
0.000241706
0.000661242
0.000251811
0.000619339
0.000261221
0.000575763
0.000269913
0.000530629
0.000277856
0.000484061
0.000285031
0.00043618
0.000291409
0.000387134
0.000296978
0.000337047
0.000301714
0.000286062
0.000305607
0.000234321
0.000308641
0.000181966
0.000310811
0.0001291
0.000312107
7.60622e-05
2.32702e-05
0.000312523
1.53282e-05
0.00103548
1.72843e-08
3.08819e-05
0.001024
4.6537e-05
0.00101192
6.21789e-05
0.000999459
7.77245e-05
0.000985698
9.31057e-05
0.000970113
0.000108268
0.000952267
0.00012316
0.000932213
0.000137735
0.000909721
0.00015195
0.000884976
0.00016576
0.000857924
0.000179129
0.000828608
0.000192015
0.000797094
0.000204384
0.000763454
0.000216196
0.000727772
0.000227422
0.000690133
0.000238024
0.000650639
0.000247976
0.000609388
0.000257241
0.000566495
0.0002658
0.000522071
0.000273619
0.00047624
0.000280681
0.000429119
0.000286958
0.000380854
0.000292437
0.000331569
0.000297095
0.000281401
0.000300923
0.000230492
0.000303904
0.000178981
0.000306033
0.00012697
0.0003073
7.47915e-05
2.28671e-05
0.000307699
1.50914e-05
0.00102037
1.66251e-08
3.04045e-05
0.00100868
4.5818e-05
0.000996501
6.12191e-05
0.000984049
7.65259e-05
0.000970384
9.16715e-05
0.00095496
0.000106602
0.000937329
0.000121268
0.00091754
0.000135622
0.000895358
0.000149623
0.000870969
0.000163225
0.000844313
0.000176393
0.000815433
0.000189085
0.000784394
0.000201268
0.000751266
0.000212902
0.00071613
0.000223958
0.000679073
0.000234399
0.000640192
0.000244198
0.000599587
0.000253321
0.000557368
0.000261747
0.000513646
0.000269443
0.000468541
0.000276394
0.00042217
0.00028257
0.000374677
0.00028796
0.000326182
0.000292541
0.000276821
0.000296305
0.000226734
0.000299234
0.000176056
0.000301324
0.000124887
0.000302563
7.35578e-05
2.24944e-05
0.000302947
1.48582e-05
0.00100549
1.73214e-08
2.99349e-05
0.000993602
4.51111e-05
0.000981327
6.02756e-05
0.000968886
7.53478e-05
0.000955312
9.02619e-05
0.000940047
0.000104965
0.000922625
0.000119408
0.000903098
0.000133545
0.00088122
0.000147334
0.00085718
0.000160731
0.000830914
0.000173701
0.000802464
0.000186201
0.000771892
0.000198201
0.000739267
0.000209659
0.000704671
0.000220547
0.000668186
0.000230828
0.000629909
0.000240477
0.000589939
0.000249458
0.000548384
0.000257753
0.000505352
0.000265328
0.000460963
0.000272168
0.000415331
0.000278245
0.000368597
0.000283548
0.000320879
0.000288053
0.000272313
0.000291753
0.000223033
0.000294631
0.000173174
0.000296682
0.000122835
0.000297895
7.2341e-05
2.21219e-05
0.000298263
1.46286e-05
0.000990842
1.92024e-08
2.94731e-05
0.00097875
4.44162e-05
0.000966377
5.9348e-05
0.000953945
7.41896e-05
0.000940463
8.88762e-05
0.000925353
0.000103356
0.000908138
0.000117579
0.000888868
0.000131502
0.000867289
0.000145083
0.000843592
0.000158278
0.000817711
0.000171052
0.000789683
0.000183364
0.000759572
0.000195181
0.000727444
0.000206465
0.00069338
0.000217187
0.00065746
0.00022731
0.00061978
0.00023681
0.000580437
0.000245652
0.000539537
0.000253816
0.000497188
0.000261271
0.000453505
0.000268002
0.000408601
0.000273982
0.000362617
0.000279198
0.000315667
0.000283629
0.000267883
0.000287267
0.0002194
0.000290095
0.00017035
0.000292108
0.000120829
0.000293296
7.11593e-05
2.17772e-05
0.000293651
1.44025e-05
0.000976419
2.19506e-08
2.90189e-05
0.000964133
4.37328e-05
0.000951664
5.84361e-05
0.000939242
7.3051e-05
0.000925848
8.75139e-05
0.00091089
0.000101773
0.000893878
0.000115781
0.00087486
0.000129493
0.000853575
0.000142869
0.000830217
0.000155864
0.000804713
0.000168445
0.000777103
0.00018057
0.000747446
0.000192208
0.000715807
0.000203319
0.000682266
0.000213877
0.000646903
0.000223843
0.000609811
0.000233196
0.000571085
0.000241899
0.000530831
0.000249935
0.000489152
0.000257272
0.000446165
0.000263896
0.000401978
0.000269779
0.000356731
0.00027491
0.000310535
0.000279268
0.000263522
0.000282845
0.000215822
0.000285624
0.000167567
0.000287601
0.000118851
0.000288764
6.99918e-05
2.14293e-05
0.000289107
1.418e-05
0.000962208
2.52625e-08
2.85722e-05
0.000949732
4.30609e-05
0.000937169
5.75394e-05
0.000924755
7.19315e-05
0.000911449
8.61742e-05
0.00089664
0.000100217
0.000879827
0.000114012
0.000861058
0.000127517
0.000840062
0.00014069
0.000817037
0.000153488
0.000791906
0.000165878
0.000764706
0.000177818
0.000735497
0.000189278
0.000704341
0.000200219
0.000671317
0.000210614
0.000636504
0.000220426
0.000599993
0.000229633
0.000561876
0.0002382
0.000522259
0.00024611
0.000481243
0.00025333
0.000438942
0.000259848
0.000395463
0.000265636
0.000350942
0.000270683
0.000305491
0.000274969
0.000259237
0.000278486
0.000212311
0.000281218
0.00016484
0.000283159
0.000116917
0.0002843
6.88573e-05
2.11067e-05
0.000284633
1.3961e-05
0.00094822
2.87864e-08
2.81328e-05
0.00093556
4.24e-05
0.000922903
5.66576e-05
0.000910498
7.08303e-05
0.000897276
8.48563e-05
0.000882614
9.86856e-05
0.000865997
0.000112272
0.000847471
0.000125571
0.000826761
0.000138544
0.000804064
0.000151148
0.0007793
0.000163349
0.000752505
0.000175107
0.000723737
0.000186392
0.000693057
0.000197164
0.000660542
0.000207399
0.00062627
0.000217058
0.00059033
0.000226122
0.000552814
0.000234554
0.000513823
0.000242338
0.000473459
0.000249444
0.000431833
0.000255857
0.00038905
0.000261551
0.000345244
0.000266517
0.000300525
0.000270733
0.000255018
0.000274191
0.000208851
0.000276876
0.000162151
0.000278783
0.000115008
0.000279902
6.77344e-05
2.07779e-05
0.000280226
1.37455e-05
0.000934437
3.22976e-08
2.77006e-05
0.000921596
4.175e-05
0.000908846
5.57902e-05
0.000896449
6.9747e-05
0.000883311
8.35596e-05
0.000868793
9.71787e-05
0.000852369
0.000110558
0.000834085
0.000123656
0.000813655
0.000136431
0.000791281
0.000148843
0.00076688
0.000160858
0.000740484
0.000172436
0.00071215
0.000183547
0.00068194
0.000194153
0.000649929
0.000204229
0.00061619
0.000213738
0.000580815
0.000222659
0.000543891
0.000230959
0.000505519
0.00023862
0.000465799
0.000245612
0.000424838
0.000251923
0.000382741
0.000257525
0.000339641
0.000262411
0.000295644
0.000266557
0.000250873
0.000269959
0.000205455
0.000272598
0.000159515
0.000274472
0.000113141
0.000275571
6.66425e-05
2.04724e-05
0.000275887
1.35333e-05
0.000920869
3.55614e-08
2.72753e-05
0.000907853
4.11104e-05
0.000895012
5.49366e-05
0.000882623
6.86809e-05
0.000869566
8.22834e-05
0.000855191
9.56953e-05
0.000838956
0.000108871
0.000820908
0.000121769
0.000800755
0.00013435
0.000778699
0.000146572
0.000754655
0.000158403
0.000728652
0.000169803
0.000700748
0.000180743
0.000671
0.000191185
0.000639484
0.000201104
0.000606271
0.000210464
0.000571451
0.000219246
0.00053511
0.000227414
0.000497347
0.000234954
0.000458259
0.000241835
0.000417954
0.000248045
0.000376531
0.000253557
0.000334125
0.000258364
0.000290837
0.000262443
0.000246791
0.000265788
0.000202109
0.000268384
0.000156916
0.000270226
0.000111297
0.000271305
6.55596e-05
2.01579e-05
0.000271614
1.33245e-05
0.000907501
3.85114e-08
2.68568e-05
0.000894311
4.04811e-05
0.00088138
5.40965e-05
0.000868998
6.76315e-05
0.000856023
8.10268e-05
0.000841788
9.42345e-05
0.00082574
0.00010721
0.000807926
0.000119911
0.000788045
0.0001323
0.000766304
0.000144334
0.000742611
0.000155984
0.000716997
0.000167208
0.000689515
0.000177979
0.000660224
0.000188258
0.000629196
0.000198023
0.000596503
0.000207237
0.000562231
0.000215881
0.000526465
0.00022392
0.000489303
0.000231341
0.000450839
0.000238112
0.00041118
0.000244223
0.000370423
0.000249647
0.0003287
0.000254376
0.000286112
0.000258388
0.00024278
0.000261679
0.000198824
0.000264232
0.000154367
0.000266044
0.000109493
0.000267103
6.45062e-05
1.98651e-05
0.000267408
1.31189e-05
0.000894342
4.10479e-08
2.64449e-05
0.000880984
3.98615e-05
0.000867964
5.32695e-05
0.00085559
6.65981e-05
0.000842694
7.97893e-05
0.000828596
9.27956e-05
0.000812732
0.000105573
0.000795148
0.00011808
0.000775536
0.000130279
0.000754104
0.000142129
0.000730758
0.000153599
0.000705526
0.00016465
0.000678461
0.000175254
0.00064962
0.000185373
0.000619073
0.000194986
0.000586891
0.000204055
0.000553158
0.000212563
0.000517958
0.000220475
0.000481386
0.000227779
0.000443536
0.000234442
0.000404512
0.000240456
0.00036441
0.000245793
0.000323359
0.000250446
0.000281459
0.000254394
0.000238828
0.000257632
0.000195585
0.000260143
0.000151851
0.000261924
0.00010771
0.000262967
6.34595e-05
1.95612e-05
0.000263265
1.29165e-05
0.000881376
4.32317e-08
2.60394e-05
0.000867852
3.92514e-05
0.000854745
5.2455e-05
0.000842378
6.55804e-05
0.00082956
7.85703e-05
0.000815598
9.13779e-05
0.000799916
0.00010396
0.000782559
0.000116275
0.000763212
0.000128287
0.000742085
0.000139955
0.000719081
0.000151248
0.000694227
0.000162127
0.000667573
0.000172567
0.000639176
0.000182529
0.000609103
0.000191991
0.000577425
0.000200918
0.000544224
0.000209292
0.000509582
0.00021708
0.000473593
0.000224268
0.000436349
0.000230826
0.000397951
0.000236744
0.000358494
0.000241996
0.000318106
0.000246575
0.000276884
0.000250459
0.000234945
0.000253645
0.000192405
0.000256115
0.000149385
0.000257868
0.000105965
0.000258893
6.24409e-05
1.9278e-05
0.000259188
1.27172e-05
0.000868615
4.50418e-08
2.564e-05
0.000854928
3.86506e-05
0.000841735
5.16528e-05
0.000829375
6.45777e-05
0.000816635
7.73692e-05
0.000802806
8.99809e-05
0.000787303
0.00010237
0.000770168
0.000114496
0.000751082
0.000126323
0.000730257
0.000137811
0.00070759
0.00014893
0.000683108
0.000159641
0.000656859
0.000169918
0.000628898
0.000179724
0.000599293
0.000189039
0.000568111
0.000197826
0.000535433
0.000206068
0.00050134
0.000213733
0.000465924
0.000220808
0.000429275
0.000227262
0.000391492
0.000233086
0.00035267
0.000238254
0.000312933
0.000242761
0.000272378
0.000246583
0.000231118
0.000249718
0.000189269
0.000252149
0.000146949
0.000253874
0.000104238
0.000254883
6.1427e-05
1.89817e-05
0.000255173
1.2521e-05
0.000856041
4.66003e-08
2.52467e-05
0.000842193
3.80588e-05
0.000828915
5.08624e-05
0.000816562
6.35897e-05
0.000803899
7.61855e-05
0.000790202
8.8604e-05
0.000774876
0.000100803
0.000757962
0.000112743
0.000739134
0.000124388
0.000718605
0.000135698
0.000696271
0.000146644
0.000672155
0.000157189
0.000646306
0.000167306
0.000618776
0.000176959
0.000589632
0.000186128
0.000558939
0.000194777
0.000526778
0.000202891
0.000493226
0.000210435
0.000458375
0.000217398
0.000422313
0.00022375
0.000385138
0.000229482
0.000346941
0.000234569
0.000307846
0.000239004
0.000267947
0.000242765