/*--------------------------------*- C++ -*----------------------------------*\
  =========                 |
  \\      /  F ield         | OpenFOAM: The Open Source CFD Toolbox
   \\    /   O peration     | Website:  https://openfoam.org
    \\  /    A nd           | Version:  6.0
     \\/     M anipulation  |
\*---------------------------------------------------------------------------*/
FoamFile
{
    version     2.0;
    format      ascii;
    class       volScalarField;
    location    "1.65";
    object      p;
}
// * * * * * * * * * * * * * * * * * * * * * * * * * * * * * * * * * * * * * //

dimensions      [0 2 -2 0 0 0 0];

internalField   nonuniform List<scalar> 
13500
(
0.099556
0.099576
0.099086
0.098652
0.097802
0.097276
0.096797
0.097141
0.098959
0.10293
0.12437
0.16875
0.099557
0.099576
0.099086
0.098652
0.097801
0.097277
0.096797
0.097141
0.098956
0.10299
0.12368
0.1637
0.099557
0.099577
0.099086
0.098653
0.097801
0.097277
0.096795
0.097139
0.098948
0.10304
0.1228
0.15923
0.099558
0.099578
0.099086
0.098654
0.097801
0.097277
0.096793
0.097135
0.098934
0.10306
0.12182
0.15575
0.099559
0.09958
0.099087
0.098655
0.0978
0.097276
0.09679
0.09713
0.098915
0.10306
0.12077
0.15282
0.09956
0.099582
0.099088
0.098657
0.0978
0.097276
0.096787
0.097123
0.098891
0.10306
0.1197
0.15021
0.099562
0.099584
0.099089
0.098659
0.0978
0.097275
0.096782
0.097116
0.098862
0.10304
0.11861
0.14785
0.099564
0.099586
0.099091
0.09866
0.0978
0.097274
0.096778
0.097106
0.098829
0.10301
0.11752
0.14569
0.099566
0.099589
0.099092
0.098662
0.097799
0.097273
0.096772
0.097096
0.09879
0.10296
0.11646
0.14369
0.099569
0.099592
0.099094
0.098665
0.097799
0.097271
0.096766
0.097084
0.098747
0.1029
0.11543
0.14182
0.099572
0.099595
0.099097
0.098667
0.097799
0.09727
0.09676
0.097071
0.0987
0.10283
0.11444
0.14007
0.099575
0.099599
0.099099
0.098669
0.097799
0.097268
0.096752
0.097056
0.098647
0.10275
0.11349
0.13841
0.099579
0.099603
0.099102
0.098672
0.097799
0.097266
0.096744
0.09704
0.09859
0.10266
0.11257
0.13684
0.099583
0.099607
0.099105
0.098675
0.097799
0.097264
0.096736
0.097022
0.098528
0.10256
0.1117
0.13535
0.099588
0.099612
0.099108
0.098678
0.097799
0.097262
0.096727
0.097003
0.098461
0.10245
0.11086
0.13393
0.099593
0.099617
0.099112
0.098682
0.097799
0.097259
0.096717
0.096983
0.098389
0.10234
0.11005
0.13257
0.099598
0.099622
0.099116
0.098685
0.097799
0.097256
0.096706
0.096961
0.098314
0.10222
0.10928
0.13127
0.099603
0.099628
0.09912
0.098689
0.097799
0.097253
0.096695
0.096938
0.098233
0.1021
0.10854
0.13002
0.099609
0.099634
0.099125
0.098693
0.0978
0.09725
0.096684
0.096913
0.098149
0.10198
0.10782
0.12882
0.099616
0.09964
0.099129
0.098697
0.0978
0.097246
0.096672
0.096887
0.098061
0.10186
0.10713
0.12766
0.099622
0.099647
0.099134
0.098701
0.0978
0.097243
0.096659
0.096859
0.097969
0.10173
0.10646
0.12654
0.09963
0.099654
0.09914
0.098706
0.0978
0.097239
0.096645
0.096831
0.097874
0.10161
0.1058
0.12546
0.099637
0.099661
0.099146
0.09871
0.097801
0.097235
0.096631
0.0968
0.097776
0.10149
0.10516
0.12441
0.099645
0.099669
0.099152
0.098715
0.097801
0.09723
0.096617
0.096769
0.097675
0.10136
0.10453
0.12339
0.099653
0.099677
0.099158
0.09872
0.097802
0.097226
0.096601
0.096736
0.097571
0.10124
0.10392
0.1224
0.099662
0.099686
0.099165
0.098726
0.097802
0.097221
0.096585
0.096702
0.097465
0.10112
0.10332
0.12143
0.099671
0.099695
0.099172
0.098731
0.097803
0.097216
0.096569
0.096667
0.097356
0.101
0.10272
0.12049
0.099681
0.099704
0.099179
0.098737
0.097804
0.097211
0.096552
0.096631
0.097246
0.10088
0.10214
0.11957
0.099691
0.099714
0.099187
0.098743
0.097804
0.097206
0.096534
0.096593
0.097133
0.10076
0.10157
0.11868
0.099701
0.099724
0.099195
0.09875
0.097805
0.097201
0.096516
0.096555
0.097019
0.10064
0.101
0.11781
0.099712
0.099735
0.099203
0.098756
0.097806
0.097195
0.096497
0.096516
0.096903
0.10052
0.10044
0.11695
0.099723
0.099746
0.099212
0.098763
0.097807
0.097189
0.096478
0.096475
0.096786
0.1004
0.099889
0.11612
0.099735
0.099757
0.099221
0.09877
0.097808
0.097183
0.096458
0.096434
0.096668
0.10028
0.099345
0.1153
0.099747
0.099769
0.09923
0.098777
0.097809
0.097177
0.096437
0.096392
0.096548
0.10016
0.098808
0.1145
0.09976
0.099781
0.09924
0.098785
0.09781
0.097171
0.096416
0.096349
0.096427
0.10003
0.098279
0.11371
0.099773
0.099794
0.09925
0.098793
0.097811
0.097164
0.096394
0.096306
0.096304
0.099911
0.097757
0.11294
0.099786
0.099807
0.099261
0.098801
0.097813
0.097158
0.096371
0.096261
0.096181
0.099785
0.097242
0.11219
0.0998
0.09982
0.099271
0.098809
0.097814
0.097151
0.096348
0.096216
0.096056
0.099659
0.096735
0.11145
0.099815
0.099834
0.099283
0.098818
0.097816
0.097144
0.096324
0.096171
0.09593
0.09953
0.096235
0.11073
0.099829
0.099849
0.099294
0.098827
0.097817
0.097137
0.0963
0.096125
0.095803
0.099401
0.095743
0.11002
0.099845
0.099863
0.099306
0.098836
0.097819
0.09713
0.096275
0.096078
0.095675
0.099269
0.095258
0.10932
0.099861
0.099879
0.099319
0.098846
0.097821
0.097122
0.09625
0.096031
0.095546
0.099136
0.09478
0.10863
0.099877
0.099894
0.099331
0.098855
0.097823
0.097115
0.096224
0.095983
0.095415
0.099001
0.09431
0.10796
0.099894
0.099911
0.099344
0.098865
0.097825
0.097107
0.096197
0.095935
0.095284
0.098864
0.093848
0.1073
0.099911
0.099927
0.099358
0.098876
0.097827
0.0971
0.09617
0.095886
0.095151
0.098726
0.093393
0.10665
0.099929
0.099945
0.099372
0.098886
0.097829
0.097092
0.096142
0.095837
0.095017
0.098585
0.092945
0.10601
0.099947
0.099962
0.099386
0.098897
0.097831
0.097084
0.096114
0.095787
0.094883
0.098444
0.092505
0.10539
0.099966
0.09998
0.099401
0.098909
0.097834
0.097076
0.096085
0.095738
0.094747
0.0983
0.092072
0.10477
0.099985
0.099999
0.099416
0.09892
0.097837
0.097068
0.096055
0.095687
0.09461
0.098155
0.091647
0.10416
0.10001
0.10002
0.099432
0.098932
0.097839
0.09706
0.096025
0.095637
0.094473
0.098008
0.091229
0.10357
0.10003
0.10004
0.099448
0.098944
0.097842
0.097051
0.095994
0.095586
0.094334
0.097859
0.090818
0.10298
0.10005
0.10006
0.099465
0.098957
0.097845
0.097043
0.095963
0.095535
0.094195
0.097709
0.090414
0.1024
0.10007
0.10008
0.099482
0.09897
0.097849
0.097034
0.095932
0.095483
0.094054
0.097557
0.090018
0.10183
0.10009
0.1001
0.099499
0.098983
0.097852
0.097026
0.095899
0.095431
0.093913
0.097404
0.089628
0.10127
0.10011
0.10012
0.099517
0.098997
0.097855
0.097017
0.095867
0.095379
0.093772
0.097249
0.089245
0.10072
0.10014
0.10014
0.099535
0.09901
0.097859
0.097009
0.095833
0.095326
0.093629
0.097093
0.088869
0.10018
0.10016
0.10017
0.099554
0.099025
0.097863
0.097
0.095799
0.095274
0.093486
0.096935
0.088499
0.099642
0.10018
0.10019
0.099573
0.099039
0.097867
0.096991
0.095765
0.095221
0.093342
0.096776
0.088136
0.099114
0.10021
0.10021
0.099593
0.099054
0.097872
0.096982
0.09573
0.095167
0.093198
0.096616
0.087779
0.098594
0.10023
0.10024
0.099613
0.09907
0.097876
0.096974
0.095695
0.095114
0.093053
0.096454
0.087429
0.098081
0.10026
0.10026
0.099634
0.099085
0.097881
0.096965
0.095659
0.09506
0.092907
0.096291
0.087085
0.097575
0.10029
0.10029
0.099656
0.099101
0.097886
0.096956
0.095623
0.095006
0.092762
0.096127
0.086746
0.097076
0.10031
0.10031
0.099677
0.099118
0.097891
0.096947
0.095586
0.094952
0.092615
0.095962
0.086414
0.096584
0.10034
0.10034
0.0997
0.099135
0.097896
0.096938
0.095549
0.094898
0.092469
0.095796
0.086088
0.096098
0.10037
0.10037
0.099723
0.099152
0.097902
0.096929
0.095511
0.094843
0.092322
0.095628
0.085767
0.095619
0.1004
0.1004
0.099746
0.099169
0.097908
0.09692
0.095473
0.094788
0.092175
0.095459
0.085452
0.095146
0.10043
0.10042
0.09977
0.099187
0.097914
0.096911
0.095435
0.094733
0.092028
0.09529
0.085143
0.094679
0.10046
0.10045
0.099794
0.099206
0.09792
0.096903
0.095396
0.094678
0.091881
0.095119
0.084839
0.094219
0.10049
0.10048
0.099819
0.099224
0.097927
0.096894
0.095357
0.094622
0.091733
0.094947
0.08454
0.093764
0.10052
0.10051
0.099845
0.099244
0.097934
0.096885
0.095317
0.094567
0.091586
0.094774
0.084246
0.093314
0.10055
0.10055
0.099871
0.099263
0.097941
0.096876
0.095277
0.094511
0.091438
0.094601
0.083958
0.09287
0.10059
0.10058
0.099898
0.099283
0.097948
0.096868
0.095237
0.094455
0.091291
0.094426
0.083674
0.092432
0.10062
0.10061
0.099925
0.099304
0.097956
0.096859
0.095196
0.094399
0.091143
0.094251
0.083395
0.091999
0.10066
0.10064
0.099953
0.099324
0.097964
0.096851
0.095155
0.094342
0.090996
0.094075
0.083121
0.091571
0.10069
0.10068
0.099982
0.099346
0.097972
0.096842
0.095113
0.094285
0.090849
0.093898
0.082852
0.091147
0.10073
0.10071
0.10001
0.099368
0.097981
0.096834
0.095071
0.094228
0.090702
0.09372
0.082587
0.090729
0.10076
0.10075
0.10004
0.09939
0.09799
0.096826
0.095029
0.094171
0.090555
0.093541
0.082326
0.090316
0.1008
0.10078
0.10007
0.099413
0.097999
0.096818
0.094987
0.094114
0.090408
0.093362
0.08207
0.089907
0.10084
0.10082
0.1001
0.099436
0.098009
0.09681
0.094944
0.094056
0.090262
0.093182
0.081818
0.089503
0.10088
0.10085
0.10013
0.099459
0.098019
0.096803
0.094901
0.093999
0.090116
0.093001
0.08157
0.089104
0.10092
0.10089
0.10017
0.099484
0.098029
0.096795
0.094858
0.093941
0.08997
0.09282
0.081326
0.088709
0.10096
0.10093
0.1002
0.099508
0.09804
0.096788
0.094814
0.093883
0.089824
0.092638
0.081086
0.088318
0.101
0.10097
0.10023
0.099534
0.098051
0.096781
0.094771
0.093824
0.089679
0.092455
0.08085
0.087931
0.10104
0.10101
0.10027
0.099559
0.098062
0.096774
0.094727
0.093765
0.089535
0.092272
0.080618
0.087548
0.10108
0.10105
0.1003
0.099586
0.098074
0.096768
0.094683
0.093707
0.08939
0.092088
0.080389
0.08717
0.10113
0.10109
0.10034
0.099612
0.098086
0.096762
0.094638
0.093647
0.089246
0.091903
0.080163
0.086795
0.10117
0.10114
0.10038
0.09964
0.098098
0.096756
0.094594
0.093588
0.089103
0.091719
0.079941
0.086424
0.10122
0.10118
0.10042
0.099668
0.098111
0.09675
0.094549
0.093528
0.08896
0.091533
0.079723
0.086057
0.10126
0.10122
0.10045
0.099696
0.098124
0.096744
0.094504
0.093469
0.088818
0.091347
0.079507
0.085693
0.10131
0.10127
0.10049
0.099726
0.098138
0.096739
0.094459
0.093408
0.088676
0.091161
0.079295
0.085333
0.10136
0.10131
0.10053
0.099756
0.098152
0.096734
0.094414
0.093348
0.088534
0.090974
0.079085
0.084976
0.10141
0.10136
0.10057
0.099786
0.098166
0.09673
0.094369
0.093288
0.088394
0.090787
0.078879
0.084623
0.10146
0.10141
0.10062
0.099817
0.098181
0.096726
0.094324
0.093227
0.088253
0.090599
0.078675
0.084273
0.10151
0.10146
0.10066
0.099849
0.098197
0.096722
0.094279
0.093166
0.088114
0.090411
0.078474
0.083926
0.10156
0.10151
0.1007
0.099882
0.098213
0.096718
0.094234
0.093104
0.087975
0.090222
0.078276
0.083582
0.10161
0.10156
0.10075
0.099915
0.098229
0.096715
0.094188
0.093043
0.087836
0.090033
0.078081
0.083242
0.10166
0.10161
0.10079
0.099949
0.098246
0.096713
0.094143
0.092981
0.087698
0.089844
0.077888
0.082904
0.10172
0.10166
0.10084
0.099984
0.098264
0.09671
0.094098
0.092919
0.087561
0.089654
0.077697
0.082569
0.10178
0.10171
0.10088
0.10002
0.098282
0.096708
0.094053
0.092857
0.087425
0.089464
0.077508
0.082237
0.10183
0.10177
0.10093
0.10006
0.0983
0.096707
0.094008
0.092794
0.087289
0.089274
0.077322
0.081907
0.10189
0.10182
0.10098
0.10009
0.098319
0.096706
0.093963
0.092731
0.087154
0.089083
0.077138
0.08158
0.10195
0.10188
0.10103
0.10013
0.098339
0.096706
0.093918
0.092668
0.087019
0.088892
0.076956
0.081256
0.10201
0.10194
0.10108
0.10017
0.098359
0.096706
0.093873
0.092605
0.086885
0.088701
0.076776
0.080934
0.10207
0.102
0.10113
0.10021
0.09838
0.096706
0.093828
0.092542
0.086752
0.088509
0.076598
0.080614
0.10213
0.10206
0.10119
0.10025
0.098402
0.096707
0.093784
0.092478
0.086619
0.088317
0.076421
0.080297
0.1022
0.10212
0.10124
0.10029
0.098424
0.096709
0.093739
0.092414
0.086488
0.088125
0.076247
0.079982
0.10226
0.10218
0.1013
0.10033
0.098447
0.096711
0.093695
0.09235
0.086357
0.087932
0.076073
0.079669
0.10233
0.10224
0.10135
0.10038
0.098471
0.096713
0.093651
0.092285
0.086226
0.087739
0.075902
0.079358
0.1024
0.10231
0.10141
0.10042
0.098495
0.096717
0.093608
0.092221
0.086097
0.087546
0.075732
0.079049
0.10246
0.10238
0.10147
0.10047
0.09852
0.09672
0.093565
0.092156
0.085968
0.087353
0.075563
0.078742
0.10253
0.10244
0.10153
0.10051
0.098546
0.096725
0.093522
0.092091
0.085839
0.087159
0.075396
0.078437
0.10261
0.10251
0.10159
0.10056
0.098573
0.09673
0.093479
0.092026
0.085712
0.086965
0.075229
0.078133
0.10268
0.10258
0.10166
0.10061
0.098601
0.096736
0.093437
0.09196
0.085585
0.08677
0.075064
0.077831
0.10275
0.10265
0.10172
0.10066
0.098629
0.096743
0.093395
0.091895
0.085459
0.086576
0.0749
0.077531
0.10283
0.10273
0.10179
0.10071
0.098659
0.09675
0.093353
0.091829
0.085334
0.086381
0.074737
0.077232
0.10291
0.1028
0.10185
0.10077
0.09869
0.096758
0.093312
0.091763
0.085209
0.086186
0.074575
0.076934
0.10299
0.10288
0.10192
0.10082
0.098721
0.096767
0.093272
0.091697
0.085085
0.08599
0.074413
0.076638
0.10307
0.10296
0.10199
0.10088
0.098754
0.096777
0.093232
0.09163
0.084962
0.085794
0.074253
0.076342
0.10315
0.10304
0.10207
0.10093
0.098787
0.096787
0.093193
0.091564
0.08484
0.085598
0.074093
0.076048
0.10324
0.10312
0.10214
0.10099
0.098822
0.096799
0.093154
0.091497
0.084718
0.085402
0.073933
0.075755
0.10332
0.1032
0.10222
0.10105
0.098858
0.096811
0.093116
0.091431
0.084597
0.085205
0.073774
0.075463
0.10341
0.10329
0.10229
0.10111
0.098896
0.096825
0.093078
0.091364
0.084477
0.085008
0.073616
0.075172
0.1035
0.10338
0.10237
0.10118
0.098934
0.096839
0.093042
0.091297
0.084358
0.08481
0.073458
0.074881
0.10359
0.10346
0.10245
0.10124
0.098974
0.096855
0.093006
0.09123
0.084239
0.084613
0.0733
0.074591
0.10369
0.10356
0.10254
0.10131
0.099015
0.096871
0.09297
0.091163
0.084121
0.084415
0.073142
0.074302
0.10378
0.10365
0.10262
0.10138
0.099058
0.096889
0.092936
0.091097
0.084004
0.084216
0.072984
0.074013
0.10388
0.10375
0.10271
0.10145
0.099103
0.096908
0.092903
0.09103
0.083887
0.084018
0.072826
0.073725
0.10398
0.10384
0.1028
0.10152
0.099148
0.096928
0.09287
0.090963
0.083771
0.083819
0.072669
0.073437
0.10409
0.10394
0.10289
0.1016
0.099196
0.09695
0.092839
0.090896
0.083656
0.083619
0.072511
0.073149
0.10419
0.10405
0.10298
0.10167
0.099245
0.096973
0.092808
0.090829
0.083542
0.083419
0.072353
0.072861
0.1043
0.10415
0.10308
0.10175
0.099297
0.096997
0.092779
0.090762
0.083428
0.083219
0.072194
0.072573
0.10441
0.10426
0.10318
0.10183
0.09935
0.097023
0.092751
0.090696
0.083315
0.083019
0.072035
0.072285
0.10452
0.10437
0.10328
0.10192
0.099405
0.09705
0.092724
0.09063
0.083203
0.082818
0.071876
0.071996
0.10464
0.10448
0.10338
0.10201
0.099462
0.097079
0.092699
0.090563
0.083092
0.082617
0.071716
0.071708
0.10476
0.1046
0.10349
0.10209
0.099521
0.09711
0.092674
0.090498
0.082981
0.082415
0.071556
0.071419
0.10488
0.10472
0.1036
0.10219
0.099583
0.097143
0.092652
0.090432
0.082871
0.082213
0.071395
0.071129
0.10501
0.10484
0.10371
0.10228
0.099646
0.097177
0.09263
0.090367
0.082762
0.08201
0.071233
0.070839
0.10514
0.10497
0.10383
0.10238
0.099713
0.097213
0.092611
0.090302
0.082654
0.081807
0.07107
0.070548
0.10527
0.1051
0.10395
0.10248
0.099782
0.097252
0.092593
0.090238
0.082546
0.081604
0.070906
0.070256
0.1054
0.10523
0.10407
0.10258
0.099853
0.097292
0.092577
0.090174
0.082439
0.0814
0.070741
0.069963
0.10554
0.10537
0.10419
0.10269
0.099928
0.097335
0.092562
0.09011
0.082333
0.081196
0.070575
0.069669
0.10568
0.10551
0.10432
0.1028
0.10001
0.097381
0.09255
0.090048
0.082228
0.080991
0.070408
0.069374
0.10583
0.10565
0.10446
0.10291
0.10009
0.097428
0.09254
0.089985
0.082124
0.080786
0.07024
0.069077
0.10598
0.1058
0.1046
0.10303
0.10017
0.097478
0.092531
0.089924
0.08202
0.08058
0.07007
0.068779
0.10614
0.10596
0.10474
0.10315
0.10026
0.097531
0.092525
0.089863
0.081917
0.080374
0.069898
0.068479
0.1063
0.10611
0.10488
0.10328
0.10035
0.097587
0.092522
0.089804
0.081816
0.080167
0.069725
0.068177
0.10646
0.10627
0.10503
0.10341
0.10044
0.097646
0.09252
0.089745
0.081715
0.07996
0.069551
0.067874
0.10663
0.10644
0.10519
0.10354
0.10054
0.097707
0.092522
0.089687
0.081615
0.079752
0.069375
0.067569
0.1068
0.10661
0.10535
0.10368
0.10064
0.097772
0.092526
0.08963
0.081515
0.079544
0.069197
0.067261
0.10698
0.10679
0.10551
0.10383
0.10075
0.097841
0.092533
0.089575
0.081417
0.079335
0.069016
0.066951
0.10716
0.10697
0.10568
0.10397
0.10086
0.097912
0.092542
0.08952
0.08132
0.079126
0.068834
0.066638
0.10735
0.10716
0.10586
0.10413
0.10097
0.097988
0.092555
0.089467
0.081224
0.078916
0.06865
0.066323
0.10755
0.10735
0.10604
0.10429
0.10109
0.098067
0.092571
0.089416
0.081128
0.078705
0.068464
0.066005
0.10775
0.10755
0.10623
0.10445
0.10122
0.09815
0.092591
0.089366
0.081034
0.078494
0.068275
0.065685
0.10795
0.10776
0.10642
0.10462
0.10135
0.098238
0.092613
0.089317
0.080941
0.078282
0.068084
0.065361
0.10817
0.10797
0.10662
0.1048
0.10148
0.098329
0.09264
0.08927
0.080849
0.07807
0.06789
0.065033
0.10838
0.10819
0.10682
0.10498
0.10162
0.098425
0.09267
0.089225
0.080757
0.077857
0.067693
0.064702
0.10861
0.10841
0.10703
0.10517
0.10177
0.098526
0.092704
0.089182
0.080667
0.077643
0.067494
0.064368
0.10884
0.10864
0.10725
0.10536
0.10192
0.098632
0.092742
0.089141
0.080579
0.077428
0.067292
0.06403
0.10908
0.10888
0.10748
0.10557
0.10208
0.098743
0.092785
0.089102
0.080491
0.077212
0.067087
0.063687
0.10933
0.10913
0.10771
0.10578
0.10225
0.098859
0.092832
0.089065
0.080404
0.076996
0.066878
0.063341
0.10959
0.10939
0.10796
0.10599
0.10242
0.098981
0.092883
0.08903
0.080319
0.076779
0.066666
0.06299
0.10985
0.10965
0.10821
0.10622
0.1026
0.099108
0.092939
0.088998
0.080234
0.076561
0.066451
0.062634
0.11012
0.10992
0.10846
0.10645
0.10278
0.099241
0.093
0.088969
0.080151
0.076342
0.066232
0.062273
0.1104
0.1102
0.10873
0.10669
0.10298
0.099381
0.093066
0.088942
0.080069
0.076122
0.066009
0.061907
0.11069
0.11049
0.10901
0.10694
0.10318
0.099527
0.093137
0.088917
0.079989
0.075901
0.065783
0.061536
0.11098
0.11079
0.10929
0.1072
0.10339
0.099679
0.093214
0.088896
0.079909
0.075679
0.065552
0.061158
0.11129
0.1111
0.10959
0.10747
0.10361
0.099838
0.093296
0.088877
0.079831
0.075455
0.065316
0.060775
0.11161
0.11142
0.10989
0.10775
0.10383
0.1
0.093384
0.088862
0.079753
0.07523
0.065077
0.060386
0.11193
0.11175
0.11021
0.10804
0.10407
0.10018
0.093478
0.088849
0.079677
0.075004
0.064832
0.05999
0.11227
0.11209
0.11053
0.10833
0.10431
0.10036
0.093578
0.088839
0.079602
0.074776
0.064582
0.059587
0.11262
0.11244
0.11087
0.10864
0.10457
0.10055
0.093684
0.088833
0.079528
0.074546
0.064327
0.059177
0.11298
0.1128
0.11122
0.10896
0.10483
0.10074
0.093796
0.08883
0.079455
0.074314
0.064067
0.058759
0.11334
0.11318
0.11157
0.10929
0.10511
0.10095
0.093915
0.08883
0.079382
0.074081
0.063801
0.058334
0.11373
0.11356
0.11195
0.10963
0.10539
0.10116
0.094041
0.088834
0.079311
0.073845
0.063528
0.0579
0.11412
0.11396
0.11233
0.10998
0.10569
0.10138
0.094174
0.088841
0.07924
0.073606
0.063249
0.057457
0.11452
0.11437
0.11273
0.11035
0.106
0.10161
0.094313
0.088852
0.079169
0.073365
0.062963
0.057005
0.11494
0.1148
0.11314
0.11073
0.10631
0.10185
0.09446
0.088866
0.079099
0.073121
0.062671
0.056543
0.11537
0.11524
0.11356
0.11112
0.10665
0.1021
0.094614
0.088883
0.07903
0.072874
0.06237
0.056071
0.11582
0.11569
0.114
0.11153
0.10699
0.10236
0.094776
0.088904
0.07896
0.072624
0.062062
0.055588
0.11628
0.11616
0.11445
0.11194
0.10734
0.10263
0.094945
0.088928
0.07889
0.07237
0.061745
0.055095
0.11675
0.11664
0.11492
0.11238
0.10771
0.10291
0.095121
0.088956
0.07882
0.072111
0.061419
0.054589
0.11724
0.11714
0.1154
0.11283
0.1081
0.1032
0.095306
0.088987
0.07875
0.071848
0.061084
0.054071
0.11774
0.11765
0.1159
0.11329
0.10849
0.1035
0.095498
0.089021
0.078678
0.07158
0.060739
0.05354
0.11826
0.11818
0.11642
0.11377
0.1089
0.10381
0.095698
0.089058
0.078606
0.071307
0.060383
0.052995
0.11879
0.11873
0.11695
0.11426
0.10933
0.10413
0.095906
0.089098
0.078532
0.071028
0.060017
0.052436
0.11935
0.11929
0.1175
0.11478
0.10977
0.10447
0.096123
0.089142
0.078456
0.070743
0.059638
0.051862
0.11992
0.11988
0.11807
0.11531
0.11023
0.10482
0.096348
0.089188
0.078378
0.070451
0.059247
0.051272
0.12051
0.12048
0.11866
0.11585
0.1107
0.10517
0.096581
0.089236
0.078298
0.070151
0.058843
0.050665
0.12111
0.1211
0.11927
0.11642
0.11119
0.10554
0.096823
0.089288
0.078214
0.069844
0.058425
0.050041
0.12174
0.12175
0.11991
0.11701
0.1117
0.10593
0.097074
0.089342
0.078128
0.069527
0.057992
0.049398
0.12239
0.12241
0.12056
0.11762
0.11222
0.10633
0.097334
0.089398
0.078037
0.069202
0.057544
0.048736
0.12306
0.1231
0.12124
0.11825
0.11277
0.10674
0.097603
0.089456
0.077943
0.068867
0.057079
0.048053
0.12375
0.12381
0.12194
0.1189
0.11334
0.10717
0.097881
0.089516
0.077844
0.06852
0.056597
0.047349
0.12447
0.12455
0.12266
0.11958
0.11392
0.10761
0.098168
0.089578
0.077739
0.068163
0.056096
0.046622
0.12521
0.12531
0.12342
0.12028
0.11453
0.10807
0.098466
0.089641
0.077629
0.067793
0.055576
0.045871
0.12598
0.12611
0.1242
0.12101
0.11517
0.10854
0.098774
0.089706
0.077512
0.067409
0.055036
0.045096
0.12678
0.12693
0.12501
0.12176
0.11583
0.10903
0.099092
0.089773
0.077388
0.067012
0.054473
0.044294
0.12761
0.12778
0.12586
0.12255
0.11651
0.10954
0.099421
0.08984
0.077257
0.0666
0.053888
0.043465
0.12847
0.12867
0.12674
0.12337
0.11722
0.11008
0.099762
0.089909
0.077118
0.066171
0.053279
0.042606
0.12936
0.1296
0.12766
0.12422
0.11796
0.11063
0.10011
0.089979
0.07697
0.065726
0.052644
0.041717
0.13029
0.13056
0.12862
0.12511
0.11874
0.1112
0.10048
0.09005
0.076812
0.065262
0.051983
0.040796
0.13126
0.13156
0.12962
0.12604
0.11955
0.1118
0.10086
0.090121
0.076643
0.064778
0.051293
0.03984
0.13227
0.13261
0.13066
0.12702
0.12039
0.11243
0.10125
0.090193
0.076464
0.064274
0.050572
0.038849
0.13333
0.13371
0.13175
0.12804
0.12127
0.11308
0.10165
0.090265
0.076272
0.063747
0.04982
0.03782
0.13444
0.13486
0.1329
0.1291
0.1222
0.11376
0.10207
0.090337
0.076066
0.063197
0.049035
0.036752
0.13559
0.13606
0.1341
0.13022
0.12317
0.11447
0.10251
0.090409
0.075846
0.06262
0.048213
0.035641
0.1368
0.13732
0.13537
0.1314
0.12418
0.11521
0.10296
0.090479
0.075609
0.062016
0.047353
0.034486
0.13807
0.13865
0.13669
0.13264
0.12525
0.11598
0.10343
0.090547
0.075354
0.061381
0.046452
0.033284
0.1394
0.14004
0.13809
0.13394
0.12637
0.1168
0.10391
0.090612
0.075079
0.060713
0.045507
0.032031
0.1408
0.1415
0.13956
0.13531
0.12754
0.11765
0.10441
0.090672
0.07478
0.060009
0.044515
0.030726
0.14227
0.14305
0.14112
0.13676
0.12878
0.11854
0.10493
0.090725
0.074455
0.059265
0.043472
0.029364
0.14382
0.14467
0.14276
0.13828
0.13008
0.11947
0.10546
0.09077
0.074101
0.058477
0.042374
0.027942
0.14544
0.14639
0.14449
0.13989
0.13145
0.12045
0.106
0.090803
0.073712
0.05764
0.041216
0.026455
0.14715
0.1482
0.14631
0.1416
0.13289
0.12146
0.10656
0.09082
0.073284
0.056749
0.039992
0.024898
0.14895
0.15011
0.14824
0.14339
0.1344
0.12252
0.10712
0.090817
0.07281
0.055797
0.038696
0.023266
0.15084
0.15212
0.15028
0.14529
0.13599
0.12363
0.1077
0.090789
0.072284
0.054776
0.037321
0.021552
0.15283
0.15425
0.15244
0.14729
0.13766
0.12478
0.10827
0.090728
0.071698
0.053679
0.03586
0.019751
0.15492
0.1565
0.15472
0.14941
0.1394
0.12597
0.10884
0.090627
0.071042
0.052495
0.034302
0.017853
0.15712
0.15887
0.15713
0.15165
0.14124
0.12719
0.1094
0.090478
0.070306
0.051216
0.032639
0.01585
0.15943
0.16137
0.15968
0.15401
0.14316
0.12846
0.10994
0.090269
0.069479
0.049828
0.030859
0.013733
0.16186
0.16402
0.16238
0.1565
0.14516
0.12975
0.11046
0.089988
0.068547
0.04832
0.028952
0.011492
0.16441
0.16682
0.16524
0.15913
0.14726
0.13107
0.11094
0.089622
0.067495
0.046677
0.026903
0.0091139
0.1671
0.16979
0.16827
0.16191
0.14944
0.13241
0.11136
0.089154
0.066307
0.044885
0.0247
0.0065881
0.16993
0.17293
0.17149
0.16485
0.15172
0.13376
0.11172
0.088565
0.064963
0.042925
0.022328
0.0039016
0.17292
0.17627
0.17492
0.16796
0.15408
0.1351
0.11199
0.087832
0.063443
0.040781
0.019771
0.0010414
0.17606
0.17982
0.17858
0.17125
0.15654
0.13642
0.11215
0.08693
0.061721
0.03843
0.017012
-0.002006
0.17939
0.1836
0.18249
0.17474
0.15908
0.13771
0.11217
0.085826
0.059768
0.035848
0.014031
-0.0052546
0.18291
0.18766
0.18668
0.17843
0.1617
0.13893
0.11202
0.084482
0.05755
0.033009
0.010809
-0.0087187
0.18665
0.192
0.19119
0.18235
0.16439
0.14005
0.11164
0.082851
0.055026
0.029878
0.007321
-0.012414
0.19061
0.19668
0.19605
0.18651
0.16712
0.14103
0.11099
0.080876
0.052147
0.026418
0.0035382
-0.016356
0.19482
0.20173
0.2013
0.1909
0.16987
0.1418
0.10999
0.078489
0.048853
0.022582
-0.00057149
-0.020564
0.19928
0.20718
0.20696
0.19553
0.17258
0.14229
0.10855
0.075608
0.045077
0.018317
-0.0050454
-0.025058
0.20401
0.21308
0.21307
0.20037
0.17518
0.14238
0.10656
0.072136
0.040741
0.013565
-0.009924
-0.029858
0.20899
0.21945
0.21963
0.20538
0.17755
0.14195
0.1039
0.067963
0.035761
0.0082634
-0.015248
-0.034984
0.21422
0.22631
0.22664
0.21045
0.17954
0.14082
0.1004
0.062966
0.030048
0.0023539
-0.021055
-0.040449
0.21966
0.23368
0.23404
0.21544
0.18093
0.13877
0.095879
0.057016
0.023518
-0.0042131
-0.027366
-0.046253
0.22529
0.24152
0.2417
0.22012
0.18143
0.13554
0.090142
0.04998
0.016098
-0.011467
-0.034181
-0.052377
0.23104
0.24975
0.24941
0.22412
0.18066
0.13079
0.082964
0.041734
0.0077375
-0.019408
-0.041468
-0.058769
0.2369
0.25823
0.25676
0.2269
0.1781
0.12415
0.074118
0.032175
-0.0015798
-0.027996
-0.049153
-0.065343
0.24284
0.2666
0.26303
0.22764
0.17307
0.1152
0.063397
0.021246
-0.011822
-0.037147
-0.057121
-0.071978
0.24891
0.27427
0.26704
0.22512
0.16471
0.10348
0.050651
0.0089675
-0.022887
-0.046725
-0.065219
-0.078529
0.25527
0.28016
0.26691
0.21763
0.15197
0.088557
0.035844
-0.0045208
-0.034581
-0.056536
-0.073268
-0.084843
0.26225
0.28253
0.25982
0.20286
0.13363
0.070096
0.019096
-0.018932
-0.046604
-0.066331
-0.081068
-0.090781
0.27042
0.27889
0.24195
0.17797
0.10841
0.047877
0.00067864
-0.03386
-0.058578
-0.07582
-0.088429
-0.096236
0.28053
0.2664
0.2093
0.14017
0.075203
0.021836
-0.019071
-0.04889
-0.070138
-0.084743
-0.095195
-0.10116
0.29268
0.24161
0.15894
0.08798
0.033604
-0.007916
-0.03988
-0.063749
-0.081059
-0.092953
-0.10131
-0.10557
0.30675
0.19811
0.087276
0.020668
-0.01663
-0.041656
-0.06202
-0.07867
-0.091553
-0.10065
-0.10698
-0.10974
0.3324
0.13645
-0.0058895
-0.060478
-0.075113
-0.080213
-0.086757
-0.094917
-0.10274
-0.10881
-0.11305
-0.11443
0.38128
0.074076
-0.10529
-0.14423
-0.13466
-0.11999
-0.11283
-0.11232
-0.11487
-0.11774
-0.11984
-0.11983
0.1043
0.065067
0.054912
0.048763
0.044398
0.040982
0.038123
0.035509
0.033227
0.03076
0.029
0.02574
0.12392
0.080613
0.068001
0.059849
0.054143
0.049747
0.046116
0.042822
0.03998
0.036886
0.034758
0.030791
0.11111
0.075333
0.063915
0.055908
0.050303
0.046016
0.042508
0.039341
0.03665
0.033673
0.03173
0.027791
0.10602
0.074963
0.063871
0.055775
0.05004
0.045648
0.042067
0.038836
0.036117
0.033075
0.031149
0.026991
0.10541
0.077151
0.065894
0.057577
0.051594
0.046989
0.043234
0.039845
0.037007
0.033812
0.031812
0.02739
0.10479
0.078983
0.067648
0.059191
0.053006
0.048217
0.044309
0.040778
0.03783
0.034501
0.032427
0.027803
0.1037
0.080273
0.069008
0.060495
0.054162
0.049223
0.045186
0.041537
0.038497
0.035061
0.032922
0.028161
0.10253
0.081333
0.070227
0.06171
0.055262
0.050193
0.046039
0.042284
0.03916
0.035637
0.033436
0.028598
0.10144
0.08225
0.071372
0.062896
0.056364
0.051181
0.046921
0.04307
0.039868
0.036276
0.034021
0.029161
0.1004
0.083015
0.07243
0.06404
0.05746
0.052184
0.047831
0.043895
0.040625
0.036983
0.034681
0.029855
0.099396
0.08363
0.073391
0.065129
0.058539
0.053194
0.048764
0.044758
0.041431
0.037759
0.035423
0.030684
0.09842
0.084106
0.074251
0.066156
0.059591
0.054205
0.049717
0.045658
0.042286
0.038604
0.036246
0.031642
0.097476
0.084462
0.075014
0.067114
0.060609
0.055208
0.050683
0.046588
0.043186
0.039515
0.037147
0.032721
0.096568
0.084713
0.075681
0.067999
0.061583
0.056195
0.051654
0.047542
0.044122
0.040481
0.038116
0.033905
0.095695
0.084875
0.076258
0.06881
0.062508
0.057157
0.052619
0.048507
0.045086
0.041493
0.039141
0.035172
0.09486
0.084961
0.076752
0.069547
0.063379
0.058085
0.05357
0.049476
0.046066
0.042537
0.040207
0.0365
0.094063
0.084986
0.07717
0.070213
0.064192
0.058974
0.054498
0.050438
0.047051
0.043599
0.041299
0.037865
0.093303
0.084959
0.07752
0.070811
0.064948
0.05982
0.055397
0.051384
0.048031
0.044669
0.042403
0.039245
0.09258
0.084891
0.07781
0.071346
0.065647
0.060621
0.056262
0.052309
0.048998
0.045732
0.043504
0.040618
0.091894
0.084789
0.078046
0.071822
0.066291
0.061375
0.05709
0.053205
0.049943
0.04678
0.04459
0.041967
0.091242
0.084661
0.078235
0.072244
0.066882
0.062083
0.057878
0.054069
0.05086
0.047804
0.045652
0.043276
0.090622
0.084512
0.078383
0.072617
0.067423
0.062744
0.058625
0.054898
0.051746
0.048797
0.046681
0.044535
0.090034
0.084346
0.078495
0.072946
0.067917
0.063361
0.059331
0.055689
0.052596
0.049754
0.047673
0.045734
0.089474
0.084168
0.078577
0.073234
0.068367
0.063935
0.059996
0.056442
0.053409
0.050671
0.048622
0.046868
0.088941
0.08398
0.078631
0.073486
0.068777
0.064468
0.060622
0.057156
0.054183
0.051545
0.049526
0.047934
0.088433
0.083784
0.078662
0.073706
0.069149
0.064963
0.061208
0.057831
0.054918
0.052376
0.050384
0.048931
0.087949
0.083583
0.078673
0.073896
0.069487
0.06542
0.061757
0.058468
0.055614
0.053161
0.051195
0.04986
0.087485
0.083378
0.078666
0.074059
0.069792
0.065843
0.06227
0.059068
0.056272
0.053903
0.051959
0.050721
0.087042
0.083171
0.078643
0.074198
0.070068
0.066233
0.062749
0.059632
0.056892
0.0546
0.052678
0.051519
0.086617
0.082961
0.078607
0.074316
0.070316
0.066593
0.063196
0.06016
0.057475
0.055255
0.053352
0.052256
0.086209
0.082751
0.078559
0.074413
0.070539
0.066924
0.063611
0.060655
0.058024
0.055869
0.053984
0.052935
0.085817
0.08254
0.078501
0.074493
0.070739
0.067227
0.063997
0.061118
0.058538
0.056443
0.054574
0.053561
0.085439
0.082329
0.078433
0.074556
0.070917
0.067506
0.064355
0.06155
0.059019
0.056979
0.055126
0.054137
0.085075
0.082119
0.078357
0.074605
0.071075
0.06776
0.064687
0.061952
0.05947
0.057479