/*--------------------------------*- C++ -*----------------------------------*\
  =========                 |
  \\      /  F ield         | OpenFOAM: The Open Source CFD Toolbox
   \\    /   O peration     | Website:  https://openfoam.org
    \\  /    A nd           | Version:  6.0
     \\/     M anipulation  |
\*---------------------------------------------------------------------------*/
FoamFile
{
    version     2.0;
    format      ascii;
    class       volVectorField;
    location    "2";
    object      U;
}
// * * * * * * * * * * * * * * * * * * * * * * * * * * * * * * * * * * * * * //

dimensions      [0 1 -1 0 0 0 0];

internalField   nonuniform List<vector> 
62000
(
(0.999987 7.10518e-05 -4.37298e-20)
(0.999987 8.25811e-05 3.44997e-20)
(0.999987 8.54973e-05 3.36349e-20)
(0.999986 8.63733e-05 -1.40151e-19)
(0.999986 8.52668e-05 -1.52399e-19)
(0.999985 8.22383e-05 5.02107e-19)
(0.999984 7.74135e-05 -5.26801e-19)
(0.999982 7.07157e-05 2.92653e-19)
(0.999981 6.24386e-05 -1.31154e-19)
(0.999979 5.23031e-05 -6.42305e-19)
(0.999977 4.06766e-05 -7.83256e-20)
(0.999974 2.71783e-05 8.29583e-19)
(0.999971 1.2172e-05 1.6258e-19)
(0.999967 -4.73809e-06 -5.49966e-19)
(0.999963 -2.33401e-05 8.28428e-19)
(0.999957 -4.39851e-05 -4.25088e-19)
(0.999951 -6.66672e-05 4.25447e-19)
(0.999944 -9.16469e-05 -4.85779e-19)
(0.999935 -0.000119103 2.32032e-19)
(0.999925 -0.000149243 -6.94705e-19)
(0.999913 -0.000182332 8.83593e-19)
(0.999899 -0.000218574 2.51504e-19)
(0.999882 -0.000258341 3.52899e-19)
(0.999863 -0.000301812 -1.57998e-18)
(0.99984 -0.000349507 5.66988e-19)
(0.999814 -0.000401627 -3.36407e-19)
(0.999783 -0.000458879 1.07529e-22)
(0.999748 -0.000521525 -2.53967e-19)
(0.999707 -0.000590402 7.93364e-19)
(0.999659 -0.00066604 -4.23802e-19)
(0.999605 -0.000749322 9.9933e-19)
(0.999543 -0.000840067 -2.02253e-18)
(0.999471 -0.000938101 1.99248e-19)
(0.99939 -0.00104247 -6.29095e-19)
(0.999299 -0.00115539 -1.86426e-19)
(0.999197 -0.00127843 -6.19359e-19)
(0.999084 -0.00141168 -1.32649e-19)
(0.998961 -0.00155419 -1.3884e-19)
(0.998828 -0.00170474 5.55318e-19)
(0.998686 -0.0018618 2.40823e-18)
(0.998539 -0.00202325 -5.58843e-19)
(0.998388 -0.00218621 -2.97387e-18)
(0.998239 -0.00234724 -4.37019e-18)
(0.998095 -0.00250252 2.18149e-18)
(0.997964 -0.00264838 6.81892e-19)
(0.997851 -0.00278155 -2.57154e-18)
(0.997763 -0.00289999 3.11262e-19)
(0.997705 -0.00300343 -8.99072e-19)
(0.99768 -0.00309294 -3.54886e-18)
(0.997692 -0.00317287 -7.79399e-19)
(0.997741 -0.00324723 -3.42772e-19)
(0.997825 -0.0033253 -3.66246e-18)
(0.997944 -0.00340991 7.13901e-19)
(0.998087 -0.00351868 2.99183e-18)
(0.998252 -0.00366686 6.09292e-19)
(0.998429 -0.00389754 1.98662e-18)
(0.998625 -0.0042631 -1.26345e-19)
(0.998834 -0.00491399 -1.12319e-19)
(0.999048 -0.00620929 4.67647e-19)
(0.998259 -0.011616 3.89377e-20)
(0.999751 6.52461e-05 -1.17687e-20)
(0.999751 5.70572e-05 1.06787e-19)
(0.99975 4.0291e-05 4.20912e-20)
(0.999749 2.02824e-05 -1.71647e-19)
(0.999748 -3.07725e-06 6.7856e-20)
(0.999747 -2.98526e-05 -4.46683e-19)
(0.999746 -6.00784e-05 3.9035e-19)
(0.999744 -9.40373e-05 2.15986e-19)
(0.999742 -0.000131629 -3.86542e-19)
(0.999739 -0.00017328 1.60734e-20)
(0.999736 -0.000218834 3.44721e-19)
(0.999732 -0.000268813 7.72163e-22)
(0.999727 -0.000323062 9.1846e-20)
(0.999721 -0.000382116 -7.58722e-19)
(0.999714 -0.000446046 1.4715e-18)
(0.999705 -0.000515299 -1.25772e-18)
(0.999695 -0.000590198 5.71464e-19)
(0.999683 -0.00067109 -1.16946e-19)
(0.999669 -0.000758486 -3.08457e-19)
(0.999653 -0.000852714 8.29617e-19)
(0.999633 -0.000954328 -1.2749e-18)
(0.99961 -0.00106358 7.22128e-19)
(0.999583 -0.00118114 -8.94839e-19)
(0.999551 -0.0013071 5.22911e-19)
(0.999514 -0.00144218 4.69516e-19)
(0.99947 -0.00158641 -3.04497e-19)
(0.99942 -0.00174043 2.47659e-21)
(0.999362 -0.0019042 3.28361e-19)
(0.999294 -0.00207817 2.68262e-19)
(0.999216 -0.00226221 -5.24189e-19)
(0.999127 -0.00245649 1.05538e-18)
(0.999026 -0.00265992 2.00524e-19)
(0.998911 -0.00287032 6.34012e-19)
(0.998781 -0.00308605 2.56749e-20)
(0.998635 -0.00330694 1.61361e-19)
(0.998474 -0.00353207 -2.10254e-19)
(0.998297 -0.00375926 -5.63125e-19)
(0.998105 -0.00398489 -3.05552e-19)
(0.9979 -0.00420503 -1.5046e-18)
(0.997685 -0.0044159 -1.58233e-18)
(0.997464 -0.00461333 1.23807e-18)
(0.997242 -0.00479302 6.33765e-19)
(0.997027 -0.00495123 4.81548e-18)
(0.996826 -0.00508496 2.98454e-19)
(0.996648 -0.00519253 -6.45185e-18)
(0.996502 -0.00527392 2.29218e-18)
(0.996396 -0.00533127 1.55286e-18)
(0.996338 -0.00536913 1.85497e-18)
(0.996333 -0.0053935 4.9354e-20)
(0.996383 -0.00541319 -2.9089e-20)
(0.996488 -0.00543648 2.11792e-18)
(0.996645 -0.00547542 4.83203e-18)
(0.99685 -0.00553746 -2.7494e-18)
(0.997092 -0.0056409 -6.33086e-18)
(0.997363 -0.00580879 -1.39951e-18)
(0.997654 -0.00608941 -4.13896e-19)
(0.997967 -0.00655959 -1.89026e-18)
(0.998297 -0.0074001 -7.00442e-19)
(0.998631 -0.00900883 1.32817e-18)
(0.998449 -0.0143777 4.8331e-19)
(0.999396 6.41665e-05 -5.76329e-20)
(0.999396 4.99241e-05 -7.733e-21)
(0.999396 2.62509e-05 8.05616e-21)
(0.999395 -1.29482e-06 3.48986e-20)
(0.999394 -3.27716e-05 9.40024e-20)
(0.999393 -6.83068e-05 -8.49042e-20)
(0.999392 -0.000107973 4.32147e-19)
(0.999391 -0.000151986 -1.96845e-19)
(0.999389 -0.000200315 -1.01081e-19)
(0.999386 -0.00025334 -5.95252e-19)
(0.999383 -0.000311049 4.8168e-19)
(0.99938 -0.00037398 3.4018e-20)
(0.999375 -0.000442177 -1.01796e-19)
(0.999369 -0.000516177 2.60623e-19)
(0.999363 -0.000596139 -4.30739e-19)
(0.999354 -0.000682653 2.92579e-21)
(0.999345 -0.000776088 -1.84681e-19)
(0.999333 -0.000876868 3.95201e-21)
(0.999319 -0.000985514 4.04665e-19)
(0.999302 -0.00110251 -5.98854e-19)
(0.999283 -0.00122836 3.64569e-19)
(0.99926 -0.00136341 1.37629e-18)
(0.999232 -0.00150844 -1.83977e-19)
(0.999201 -0.00166346 -1.82937e-18)
(0.999163 -0.00182932 9.2306e-19)
(0.99912 -0.00200598 -4.85339e-19)
(0.999069 -0.00219405 7.7956e-19)
(0.99901 -0.00239347 -4.69916e-19)
(0.998942 -0.0026044 -9.00557e-19)
(0.998864 -0.00282681 9.40284e-19)
(0.998775 -0.00306026 -6.51195e-19)
(0.998673 -0.00330364 8.50382e-19)
(0.998556 -0.00355422 -2.30737e-18)
(0.998425 -0.00380974 2.00753e-18)
(0.998278 -0.00406951 -1.05124e-18)
(0.998115 -0.00433178 4.32559e-19)
(0.997936 -0.00459364 3.32892e-19)
(0.997742 -0.00485052 1.0188e-20)
(0.997535 -0.00509764 -4.57772e-20)
(0.997318 -0.00533053 1.77701e-18)
(0.997094 -0.00554433 -6.23723e-19)
(0.996869 -0.00573416 9.21668e-19)
(0.996651 -0.00589623 -3.18571e-18)
(0.996447 -0.00602769 -1.46444e-18)
(0.996267 -0.00612739 1.26836e-18)
(0.99612 -0.00619623 -4.87235e-18)
(0.996015 -0.0062375 5.12103e-19)
(0.995961 -0.0062571 -3.38349e-18)
(0.995962 -0.00626245 4.28193e-18)
(0.996023 -0.00626354 9.41021e-19)
(0.996143 -0.00627008 6.37207e-19)
(0.996322 -0.00629451 8.11476e-20)
(0.996552 -0.0063462 1.56231e-18)
(0.996823 -0.00644231 -6.43621e-19)
(0.997127 -0.00660924 -2.97296e-18)
(0.997456 -0.00689291 -1.05921e-18)
(0.997806 -0.00737581 -1.4642e-18)
(0.998174 -0.0082324 -2.9017e-18)
(0.998529 -0.00983125 2.68393e-19)
(0.998819 -0.0149804 4.44241e-19)
(0.998983 6.41953e-05 -5.79692e-20)
(0.998983 4.44525e-05 1.67798e-19)
(0.998982 1.65307e-05 -2.43319e-20)
(0.998981 -1.52189e-05 -1.55198e-19)
(0.998981 -5.10137e-05 2.21907e-19)
(0.99898 -9.10021e-05 3.63288e-19)
(0.998979 -0.000135319 -4.50901e-19)
(0.998978 -0.000184399 4.65472e-20)
(0.998976 -0.000238239 1.41638e-19)
(0.998974 -0.000297313 2.81286e-19)
(0.998972 -0.000361597 -4.98167e-19)
(0.998969 -0.000431736 -1.46641e-19)
(0.998965 -0.000507651 -1.56914e-19)
(0.99896 -0.00058996 6.90014e-19)
(0.998953 -0.000678835 -4.43064e-19)
(0.998946 -0.000774851 9.95266e-19)
(0.998937 -0.000878478 -1.16667e-18)
(0.998926 -0.000990031 -1.63448e-19)
(0.998912 -0.00111023 1.14879e-18)
(0.998897 -0.00123958 -3.90041e-19)
(0.998878 -0.00137861 -1.39188e-19)
(0.998856 -0.00152768 -1.43477e-19)
(0.99883 -0.00168774 -1.26285e-18)
(0.998799 -0.0018586 7.17844e-19)
(0.998763 -0.00204135 -3.08806e-19)
(0.998721 -0.00223585 4.96546e-19)
(0.998672 -0.00244271 2.26114e-19)
(0.998615 -0.00266192 1.08071e-18)
(0.998549 -0.0028935 -6.72401e-19)
(0.998473 -0.0031375 -8.48764e-19)
(0.998386 -0.00339329 1.30583e-18)
(0.998286 -0.0036599 -1.05746e-18)
(0.998173 -0.00393398 1.90136e-18)
(0.998045 -0.00421354 -1.11671e-18)
(0.997902 -0.00449772 4.89433e-19)
(0.997744 -0.00478395 7.96726e-19)
(0.99757 -0.00506943 -3.22447e-19)
(0.997381 -0.00534909 3.5303e-19)
(0.99718 -0.00561772 -2.19914e-19)
(0.996968 -0.00587066 5.41766e-19)
(0.99675 -0.00610267 -1.50184e-18)
(0.996532 -0.0063085 3.84346e-19)
(0.996321 -0.00648424 7.80994e-19)
(0.996123 -0.00662698 1.87619e-18)
(0.99595 -0.00673555 2.13703e-18)
(0.995811 -0.00681093 2.617e-19)
(0.995714 -0.00685668 3.02705e-18)
(0.99567 -0.00687891 2.98418e-18)
(0.995682 -0.00688542 3.34018e-18)
(0.995757 -0.00688645 -2.19364e-18)
(0.995894 -0.00689222 -2.39594e-18)
(0.996093 -0.00691544 1.63959e-18)
(0.996346 -0.00696627 2.04508e-18)
(0.996645 -0.00706081 3.45263e-18)
(0.996979 -0.0072275 1.81757e-18)
(0.99734 -0.00751132 3.56527e-18)
(0.997722 -0.00799765 5.39602e-18)
(0.998121 -0.00885713 -9.16881e-19)
(0.998491 -0.0104419 -2.59654e-18)
(0.999122 -0.0154997 -2.19418e-18)
(0.99853 6.49587e-05 1.12897e-19)
(0.99853 4.78296e-05 -3.56835e-20)
(0.998529 1.92385e-05 5.64897e-20)
(0.998529 -1.39051e-05 -7.56164e-20)
(0.998529 -5.1726e-05 1.6059e-19)
(0.998529 -9.42933e-05 -7.54617e-20)
(0.998529 -0.000141739 3.84466e-20)
(0.998529 -0.000194212 -5.44575e-19)
(0.998528 -0.000251737 4.34325e-19)
(0.998527 -0.000314516 -8.2605e-19)
(0.998526 -0.000382656 8.68562e-19)
(0.998524 -0.000456726 -1.00553e-19)
(0.998521 -0.000536842 -2.11702e-19)
(0.998517 -0.000623537 -9.2288e-20)
(0.998513 -0.000716962 -1.88098e-20)
(0.998506 -0.000817903 -8.66745e-19)
(0.998499 -0.000926709 4.1154e-20)
(0.998489 -0.00104379 8.80209e-19)
(0.998478 -0.00116974 -2.74989e-19)
(0.998464 -0.00130531 -2.78942e-19)
(0.998447 -0.00145076 4.59497e-19)
(0.998427 -0.00160665 -2.19247e-19)
(0.998403 -0.001774 9.00035e-19)
(0.998374 -0.00195244 4.7504e-19)
(0.998341 -0.00214334 3.48438e-19)
(0.998302 -0.00234648 -1.08768e-18)
(0.998256 -0.00256243 -1.49568e-19)
(0.998203 -0.00279139 -8.07048e-19)
(0.998142 -0.00303311 1.51567e-19)
(0.998071 -0.00328804 -2.52388e-19)
(0.997989 -0.00355517 -9.83726e-20)
(0.997896 -0.00383373 7.71265e-19)
(0.997791 -0.00412064 -1.93009e-18)
(0.997671 -0.00441359 -9.20735e-20)
(0.997537 -0.00471177 -9.36805e-19)
(0.997388 -0.00501256 -4.48791e-19)
(0.997225 -0.0053132 8.47876e-20)
(0.997049 -0.00560847 -1.36473e-18)
(0.99686 -0.00589306 2.01095e-18)
(0.996662 -0.00616242 3.63332e-19)
(0.996459 -0.00641115 2.0814e-18)
(0.996255 -0.00663377 -1.44153e-18)
(0.996058 -0.00682634 -9.58186e-19)
(0.995876 -0.00698577 -2.80095e-19)
(0.995717 -0.00711064 1.66414e-18)
(0.995591 -0.00720167 2.21301e-18)
(0.995508 -0.0072621 6.30127e-19)
(0.995477 -0.00729774 9.18017e-19)
(0.995503 -0.00731611 -9.0246e-19)
(0.995592 -0.00732711 5.68397e-18)
(0.995745 -0.00734093 1.31296e-18)
(0.995961 -0.00737009 -1.04641e-18)
(0.996235 -0.00742504 7.16771e-19)
(0.996556 -0.00752131 3.33766e-18)
(0.996914 -0.00768842 -3.81002e-19)
(0.997301 -0.00797063 -2.69407e-18)
(0.997708 -0.00845526 -6.41593e-18)
(0.99813 -0.00931005 5.43358e-18)
(0.998507 -0.0108786 -3.44431e-18)
(0.999387 -0.0158913 2.95998e-18)
(0.998064 6.72534e-05 -4.31652e-20)
(0.998061 4.59275e-05 1.64653e-19)
(0.99806 1.56351e-05 -2.56774e-19)
(0.99806 -1.87134e-05 1.8165e-19)
(0.998061 -5.74314e-05 1.11762e-19)
(0.998062 -0.000100623 -1.12477e-19)
(0.998063 -0.000148459 8.91121e-21)
(0.998064 -0.000201431 -7.63441e-20)
(0.998065 -0.000259532 -2.44589e-19)
(0.998065 -0.000323084 4.47824e-19)
(0.998065 -0.000392128 -6.62918e-19)
(0.998065 -0.000467374 5.55306e-19)
(0.998064 -0.000548697 4.67981e-19)
(0.998062 -0.000636716 -6.95843e-19)
(0.998059 -0.000731562 -2.17364e-19)
(0.998054 -0.000833959 7.87168e-19)
(0.998048 -0.000944368 -9.17793e-19)
(0.99804 -0.00106295 1.223e-18)
(0.998031 -0.00119061 -2.27448e-19)
(0.998019 -0.00132802 1.20971e-19)
(0.998004 -0.00147547 -1.96209e-19)
(0.997987 -0.00163345 -2.37321e-19)
(0.997965 -0.00180328 -4.23469e-19)
(0.99794 -0.00198414 7.12481e-19)
(0.99791 -0.00217783 -4.79127e-19)
(0.997875 -0.00238395 -4.51979e-19)
(0.997834 -0.00260308 9.11161e-19)
(0.997786 -0.0028356 -8.48905e-19)
(0.99773 -0.0030811 1.31856e-18)
(0.997666 -0.00334027 -6.96278e-19)
(0.997592 -0.00361198 5.07154e-19)
(0.997507 -0.00389592 -8.49852e-19)
(0.997411 -0.00418851 8.82627e-19)
(0.997302 -0.00448809 -9.16414e-20)
(0.997179 -0.00479404 -4.89566e-20)
(0.997044 -0.0051032 -2.96353e-20)
(0.996896 -0.00541352 -4.57884e-19)
(0.996735 -0.00571969 1.20621e-18)
(0.996563 -0.00601641 -9.0578e-19)
(0.996383 -0.00629946 -5.02362e-18)
(0.996199 -0.00656342 -2.03225e-18)
(0.996014 -0.00680269 1.3547e-18)
(0.995837 -0.00701335 -1.51487e-18)
(0.995673 -0.00719215 -1.48118e-18)
(0.995533 -0.0073373 -1.10795e-19)
(0.995425 -0.00744907 3.44235e-18)
(0.995359 -0.00753017 -4.64443e-18)
(0.995343 -0.00758573 -4.31846e-18)
(0.995385 -0.00762265 -2.47545e-18)
(0.995489 -0.00765016 -3.97224e-18)
(0.995657 -0.00767804 2.5774e-18)
(0.995891 -0.00771856 -8.0163e-19)
(0.996182 -0.00778199 -6.35676e-18)
(0.996523 -0.0078831 1.37527e-18)
(0.996901 -0.00805209 1.44166e-18)
(0.99731 -0.00833327 -2.90036e-18)
(0.997738 -0.00881502 1.54173e-18)
(0.998179 -0.00966426 1.93523e-18)
(0.998558 -0.0112202 5.50799e-18)
(0.999631 -0.0162185 1.44654e-19)
(0.997599 6.8274e-05 5.12183e-20)
(0.997592 4.9475e-05 -2.18202e-19)
(0.99759 1.97617e-05 1.0068e-19)
(0.99759 -1.45144e-05 1.78025e-19)
(0.997591 -5.33905e-05 -3.62141e-19)
(0.997593 -9.70262e-05 2.88113e-19)
(0.997595 -0.000145533 -1.82497e-19)
(0.997597 -0.000199105 1.47203e-19)
(0.997599 -0.000257757 2.23607e-19)
(0.997601 -0.000321472 -5.12892e-19)
(0.997603 -0.000390536 7.07052e-19)
(0.997604 -0.000465531 2.85716e-19)
(0.997604 -0.000546678 -1.09465e-18)
(0.997603 -0.000634398 -1.95663e-19)
(0.997602 -0.000728894 5.36208e-19)
(0.997599 -0.000831071 3.31129e-19)
(0.997595 -0.000941294 -3.88103e-19)
(0.997589 -0.00105971 3.27429e-19)
(0.997582 -0.0011871 4.88601e-19)
(0.997572 -0.0013244 -2.32638e-19)
(0.99756 -0.0014715 -1.28998e-19)
(0.997545 -0.00162911 4.41859e-19)
(0.997527 -0.00179865 8.79868e-19)
(0.997505 -0.00197898 -6.28056e-19)
(0.997479 -0.00217231 -6.70803e-19)
(0.997448 -0.00237809 7.21034e-19)
(0.997412 -0.00259685 -5.4584e-19)
(0.99737 -0.00282931 -2.12738e-19)
(0.99732 -0.00307468 1.74296e-18)
(0.997263 -0.00333425 -7.5087e-19)
(0.997197 -0.00360647 -5.51801e-19)
(0.997121 -0.00389138 7.27872e-19)
(0.997035 -0.00418585 4.90234e-19)
(0.996938 -0.004488 -4.34848e-19)
(0.996829 -0.00479749 -2.87721e-19)
(0.996708 -0.00511129 8.91653e-19)
(0.996576 -0.00542773 1.75391e-19)
(0.996432 -0.00574159 2.97069e-19)
(0.99628 -0.00604774 -1.50298e-18)
(0.99612 -0.00634239 -1.44462e-18)
(0.995956 -0.0066202 2.68458e-18)
(0.995793 -0.0068755 2.03655e-18)
(0.995637 -0.00710448 3.21966e-18)
(0.995496 -0.00730372 -2.95759e-18)
(0.995377 -0.00747104 -3.12628e-18)
(0.995289 -0.00760619 -1.85609e-18)
(0.995242 -0.00771118 4.29059e-18)
(0.995244 -0.00779034 3.97212e-18)
(0.995303 -0.00784971 -4.03162e-18)
(0.995424 -0.00789765 -5.67077e-18)
(0.995608 -0.00794331 -7.05884e-19)
(0.995858 -0.00799837 1.02489e-18)
(0.996167 -0.00807297 -1.75724e-21)
(0.996526 -0.0081813 -2.17065e-18)
(0.996924 -0.00835379 1.89518e-18)
(0.997352 -0.00863498 9.26262e-19)
(0.997798 -0.00911425 1.27796e-18)
(0.998254 -0.00995859 -5.83693e-18)
(0.998633 -0.0115062 -2.84649e-19)
(0.999859 -0.0165075 3.36405e-19)
(0.997146 6.91808e-05 -8.69011e-20)
(0.997132 4.63208e-05 -6.5605e-20)
(0.997129 1.60415e-05 8.43289e-20)
(0.997129 -1.80328e-05 2.82825e-19)
(0.99713 -5.62132e-05 -5.77635e-19)
(0.997131 -9.86916e-05 6.27176e-19)
(0.997134 -0.000145672 -2.68714e-20)
(0.997137 -0.000197777 -3.53924e-20)
(0.997139 -0.000254987 -1.92553e-19)
(0.997142 -0.000317414 4.45277e-19)
(0.997145 -0.000385238 -6.55448e-19)
(0.997147 -0.000459234 2.36316e-19)
(0.997148 -0.000539267 -7.45961e-21)
(0.997149 -0.000625865 3.38953e-19)
(0.997149 -0.000719183 1.54162e-19)
(0.997148 -0.000820032 -7.93124e-19)
(0.997146 -0.00092892 6.63351e-19)
(0.997142 -0.0010456 2.5044e-19)
(0.997137 -0.0011713 -6.97505e-19)
(0.99713 -0.00130681 3.31863e-19)
(0.99712 -0.00145203 1.47916e-19)
(0.997108 -0.00160757 -9.66314e-20)
(0.997093 -0.00177523 1.14692e-19)
(0.997075 -0.00195327 -6.64789e-20)
(0.997053 -0.00214447 -7.37037e-19)
(0.997026 -0.002348 4.6971e-19)
(0.996995 -0.00256445 -6.96597e-19)
(0.996958 -0.00279474 1.25747e-18)
(0.996915 -0.00303786 -2.358e-19)
(0.996865 -0.0032955 -1.37525e-19)
(0.996807 -0.00356591 -3.85964e-20)
(0.996741 -0.00384975 1.18951e-18)
(0.996665 -0.00414332 -4.87349e-19)
(0.99658 -0.00444556 -2.94698e-19)
(0.996484 -0.00475644 7.1536e-19)
(0.996378 -0.00507242 5.96675e-19)
(0.996263 -0.00539279 -9.90573e-19)
(0.996137 -0.00571233 1.80216e-19)
(0.996004 -0.00602609 1.81424e-18)
(0.995865 -0.0063308 -1.88795e-19)
(0.995723 -0.00662125 1.12213e-18)
(0.995583 -0.00689174 -1.53811e-18)
(0.99545 -0.00713865 2.29958e-18)
(0.995331 -0.0073584 4.69227e-18)
(0.995235 -0.00754846 1.23961e-18)
(0.995169 -0.00770803 -1.71867e-18)
(0.995143 -0.00783841 -4.90866e-18)
(0.995164 -0.00794302 9.75344e-19)
(0.995241 -0.00802701 1.23216e-18)
(0.99538 -0.00809769 2.27986e-18)
(0.995581 -0.00816349 -8.82068e-20)
(0.995848 -0.00823551 -4.16192e-18)
(0.996174 -0.00832351 3.3577e-18)
(0.996551 -0.00844084 -2.12427e-18)
(0.996968 -0.00861817 4.16656e-18)
(0.997415 -0.00890049 8.89651e-19)
(0.997878 -0.00937803 3.98643e-18)
(0.998348 -0.0102187 5.12856e-18)
(0.998726 -0.0117612 9.63901e-19)
(1.00008 -0.0167774 1.70133e-18)
(0.996696 6.93053e-05 -4.24869e-20)
(0.996674 5.49328e-05 3.44927e-20)
(0.99667 2.75787e-05 1.63901e-19)
(0.996669 -4.57354e-06 2.45521e-19)
(0.99667 -4.16711e-05 -6.8796e-19)
(0.996672 -8.37321e-05 3.75317e-19)
(0.996676 -0.000130939 -6.36991e-19)
(0.996679 -0.000183363 9.47208e-19)
(0.996683 -0.000241027 -4.22323e-19)
(0.996688 -0.000303457 7.09427e-20)
(0.996692 -0.000371096 7.39377e-19)
(0.996695 -0.000444514 -1.60817e-18)
(0.996699 -0.000523935 1.04843e-18)
(0.996701 -0.000609656 1.40328e-19)
(0.996703 -0.000701793 2.17842e-19)
(0.996704 -0.000801491 -8.80575e-19)
(0.996704 -0.000908983 4.16143e-19)
(0.996702 -0.00102414 -4.95863e-19)
(0.996699 -0.00114792 9.43539e-19)
(0.996694 -0.00128158 -1.24687e-19)
(0.996687 -0.00142441 -1.11695e-18)
(0.996678 -0.0015774 4.28762e-19)
(0.996666 -0.00174244 -2.46385e-20)
(0.996651 -0.00191739 -1.47591e-18)
(0.996633 -0.00210556 1.07858e-18)
(0.99661 -0.00230591 7.83983e-19)
(0.996584 -0.00251899 5.14677e-19)
(0.996552 -0.00274611 -6.50289e-19)
(0.996516 -0.00298579 -6.90606e-19)
(0.996473 -0.00324047 3.15038e-19)
(0.996423 -0.00350782 4.56164e-19)
(0.996366 -0.00378901 -5.41428e-19)
(0.996301 -0.00408079 -7.84461e-19)
(0.996227 -0.00438184 1.61629e-18)
(0.996145 -0.00469253 1.62472e-19)
(0.996054 -0.00500942 -2.3195e-18)
(0.995954 -0.00533234 1.99827e-19)
(0.995846 -0.00565621 1.49326e-18)
(0.995732 -0.0059763 1.40025e-19)
(0.995614 -0.00628989 1.88958e-18)
(0.995494 -0.00659193 -2.48251e-18)
(0.995376 -0.00687676 -1.3481e-19)
(0.995267 -0.00714093 -1.52791e-18)
(0.995172 -0.00738078 5.64052e-19)
(0.995099 -0.00759342 2.3048e-18)
(0.995056 -0.00777756 6.79503e-18)
(0.995051 -0.00793376 8.6525e-19)
(0.995093 -0.00806456 -3.8984e-18)
(0.99519 -0.00817412 2.81037e-18)
(0.995347 -0.00826871 9.2788e-18)
(0.995566 -0.00835588 -7.02184e-18)
(0.995851 -0.00844603 7.84805e-18)
(0.996196 -0.0085484 -4.45845e-18)
(0.996591 -0.00867602 -2.39007e-18)
(0.997026 -0.00885915 -8.57264e-18)
(0.997491 -0.0091435 -4.40837e-19)
(0.997971 -0.00961987 -2.44303e-18)
(0.998455 -0.0104578 -2.6815e-18)
(0.99883 -0.0119972 2.18291e-18)
(1.0003 -0.0170345 5.7741e-19)
(0.996255 7.04075e-05 5.9543e-20)
(0.996224 5.07471e-05 1.9657e-20)
(0.996218 2.26578e-05 -1.92779e-19)
(0.996217 -9.27031e-06 1.73901e-19)
(0.996218 -4.54799e-05 -7.29915e-20)
(0.996221 -8.60583e-05 1.23635e-19)
(0.996225 -0.000131268 4.01488e-20)
(0.99623 -0.000181737 -5.56648e-19)
(0.996236 -0.000237406 2.30268e-19)
(0.996242 -0.000297969 -1.48669e-19)
(0.996247 -0.00036373 8.65984e-20)
(0.996253 -0.000435514 3.1921e-19)
(0.996258 -0.000513112 -5.77069e-20)
(0.996262 -0.000596954 1.77968e-19)
(0.996266 -0.000687111 -7.22089e-19)
(0.996269 -0.000784629 2.68165e-19)
(0.99627 -0.000889924 1.12407e-19)
(0.996271 -0.00100238 -2.95663e-19)
(0.99627 -0.00112352 5.64782e-19)
(0.996267 -0.00125441 1.77219e-19)
(0.996263 -0.00139435 -2.08147e-20)
(0.996256 -0.00154418 -1.83372e-19)
(0.996247 -0.00170629 7.03369e-19)
(0.996236 -0.00187774 -1.87396e-18)
(0.996221 -0.00206257 9.51449e-19)
(0.996203 -0.00225939 3.89591e-19)
(0.996181 -0.00246875 -6.29421e-19)
(0.996155 -0.00269225 1.08386e-18)
(0.996124 -0.00292813 -5.18583e-19)
(0.996088 -0.00317926 -2.59624e-19)
(0.996046 -0.00344307 -4.85834e-19)
(0.995998 -0.00372142 -1.90138e-19)
(0.995943 -0.00401041 5.30604e-19)
(0.99588 -0.00430962 -1.5544e-18)
(0.99581 -0.00461968 2.89376e-18)
(0.995733 -0.00493666 -2.0453e-19)
(0.995649 -0.00526141 1.4134e-18)
(0.995558 -0.00558885 -3.56295e-18)
(0.995463 -0.00591447 -1.07348e-18)
(0.995365 -0.00623612 3.36816e-20)
(0.995266 -0.00654891 -7.64783e-19)
(0.995171 -0.00684723 -8.39259e-20)
(0.995085 -0.00712785 -2.63564e-18)
(0.995013 -0.00738707 8.75056e-19)
(0.994963 -0.00762171 1.19139e-18)
(0.994943 -0.00782997 -6.30528e-18)
(0.994961 -0.00801177 7.75829e-18)
(0.995025 -0.00816874 1.07533e-18)
(0.995142 -0.00830411 3.32401e-19)
(0.995318 -0.00842304 -6.44328e-18)
(0.995557 -0.00853223 2.09419e-18)
(0.995861 -0.00864135 -4.17252e-18)
(0.996224 -0.00875904 7.73192e-18)
(0.996638 -0.00889765 1.48823e-18)
(0.997092 -0.00908726 -5.90518e-18)
(0.997576 -0.00937419 2.09116e-18)
(0.998073 -0.00984984 -5.73125e-18)
(0.998571 -0.0106854 -1.2543e-18)
(0.998944 -0.012223 -8.04676e-18)
(1.00051 -0.0172856 -2.10373e-18)
(0.995831 7.10554e-05 -1.32875e-20)
(0.995789 5.59555e-05 -4.92395e-20)
(0.995781 2.9486e-05 -4.05241e-20)
(0.995779 -1.57876e-06 3.70111e-19)
(0.99578 -3.72392e-05 -1.94515e-19)
(0.995784 -7.76755e-05 -2.21236e-19)
(0.995788 -0.000123039 -7.86039e-20)
(0.995794 -0.000173506 -3.06863e-19)
(0.995801 -0.000229051 1.83015e-19)
(0.995808 -0.000288789 2.54227e-20)
(0.995815 -0.00035346 8.9382e-21)
(0.995821 -0.000423643 6.74299e-19)
(0.995828 -0.000499697 -4.57259e-19)
(0.995834 -0.0005817 -5.36191e-20)
(0.995839 -0.000669875 4.79517e-19)
(0.995843 -0.000765513 -2.54267e-19)
(0.995847 -0.000868882 -9.37802e-20)
(0.995849 -0.000979304 1.45553e-19)
(0.99585 -0.00109815 4.50259e-19)
(0.995849 -0.00122688 2.36109e-19)
(0.995847 -0.00136413 8.03286e-20)
(0.995843 -0.00151112 -5.63622e-19)
(0.995837 -0.00167038 2.74352e-19)
(0.995829 -0.00183841 5.06772e-19)
(0.995817 -0.00201991 -1.0327e-18)
(0.995803 -0.00221322 3.18707e-19)
(0.995786 -0.00241882 -1.23575e-18)
(0.995765 -0.00263878 9.7962e-19)
(0.995739 -0.0028707 8.26945e-19)
(0.99571 -0.00311839 -1.25311e-18)
(0.995675 -0.00337855 -5.85197e-19)
(0.995635 -0.00365362 7.52237e-19)
(0.995589 -0.00394011 2.48974e-19)
(0.995537 -0.00423732 -6.52644e-19)
(0.995479 -0.00454632 -8.18201e-19)
(0.995415 -0.00486318 -9.5616e-19)
(0.995346 -0.00518937 5.96382e-19)
(0.995272 -0.0055199 1.38697e-18)
(0.995194 -0.00585047 4.95719e-19)
(0.995115 -0.00617955 -4.02608e-19)
(0.995037 -0.00650242 4.45142e-18)
(0.994964 -0.00681346 -4.96307e-19)
(0.9949 -0.00710975 4.39553e-18)
(0.994852 -0.00738756 -7.6498e-18)
(0.994825 -0.00764343 1.21938e-18)
(0.994828 -0.00787513 2.14685e-19)
(0.994869 -0.00808196 -3.37147e-19)
(0.994955 -0.00826471 -5.11736e-18)
(0.995093 -0.00842565 -7.8405e-18)
(0.995291 -0.00856889 6.67599e-18)
(0.995549 -0.00870022 8.31337e-18)
(0.995873 -0.00882844 4.14544e-18)
(0.996256 -0.00896163 -7.55515e-18)
(0.99669 -0.00911171 3.79267e-18)
(0.997164 -0.00930821 8.73864e-18)
(0.997667 -0.00959805 3.48766e-18)
(0.998181 -0.0100731 5.58818e-18)
(0.998694 -0.0109064 2.7041e-18)
(0.999066 -0.0124426 7.80596e-18)
(1.00073 -0.0175326 -6.57593e-18)
(0.995425 7.07799e-05 1.72568e-20)
(0.995373 4.97038e-05 -4.88502e-20)
(0.995362 2.25214e-05 1.6502e-19)
(0.995359 -8.12414e-06 4.07344e-20)
(0.995359 -4.26353e-05 -2.03097e-19)
(0.995362 -8.12542e-05 -2.21463e-19)
(0.995366 -0.000124289 4.97219e-19)
(0.995372 -0.000172539 -5.14936e-19)
(0.995379 -0.000225912 -1.19716e-19)
(0.995386 -0.000283697 2.87443e-19)
(0.995394 -0.000346469 2.52985e-19)
(0.995401 -0.000415111 7.3239e-19)
(0.995408 -0.000489459 -3.95567e-19)
(0.995415 -0.000569752 -6.46674e-19)
(0.995422 -0.000656146 1.36619e-19)
(0.995428 -0.000749815 -4.82337e-19)
(0.995432 -0.000851253 3.50152e-19)
(0.995436 -0.000959169 -5.61264e-19)
(0.995439 -0.00107561 9.10729e-20)
(0.995441 -0.00120181 -1.67198e-19)
(0.995441 -0.00133644 -9.94922e-20)
(0.995439 -0.00148049 -4.30576e-19)
(0.995435 -0.00163711 4.46658e-20)
(0.99543 -0.00180184 8.8475e-19)
(0.995422 -0.00198026 -2.92275e-19)
(0.995412 -0.00217026 9.09547e-20)
(0.995398 -0.00237235 2.53093e-19)
(0.995382 -0.00258891 -3.18518e-19)
(0.995362 -0.0028172 -6.5038e-20)
(0.995338 -0.00306152 4.2545e-19)
(0.99531 -0.00331825 4.59355e-19)
(0.995278 -0.00359058 -3.3322e-19)
(0.995241 -0.00387429 -1.04246e-18)
(0.995199 -0.00416959 -1.45212e-18)
(0.995152 -0.00447781 2.18729e-18)
(0.995101 -0.00479441 5.9287e-19)
(0.995045 -0.00512198 3.80688e-19)
(0.994986 -0.00545546 1.80095e-18)
(0.994926 -0.00579071 -1.5992e-18)
(0.994865 -0.00612682 9.87323e-19)
(0.994806 -0.00645923 3.23315e-20)
(0.994754 -0.00678235 4.96815e-20)
(0.994712 -0.00709355 -1.60842e-18)
(0.994686 -0.00738911 3.60101e-18)
(0.994683 -0.00766533 -4.59749e-18)
(0.994709 -0.00791962 2.6327e-18)
(0.994772 -0.00815069 -7.19507e-18)
(0.994881 -0.00835853 1.85894e-18)
(0.995041 -0.00854455 4.15375e-18)
(0.99526 -0.00871175 -6.76849e-18)
(0.99554 -0.00886507 -1.49593e-18)
(0.995885 -0.0090125 -2.69255e-19)
(0.996289 -0.00916149 -1.43543e-18)
(0.996744 -0.00932317 -4.07608e-18)
(0.997239 -0.00952671 2.61522e-19)
(0.997762 -0.00981951 3.49886e-18)
(0.998294 -0.0102939 -3.41621e-18)
(0.998822 -0.0111249 -8.90974e-19)
(0.999193 -0.0126596 -9.98864e-19)
(1.00095 -0.017778 5.0104e-18)
(0.995022 6.94164e-05 3.22778e-20)
(0.994958 6.01309e-05 -2.57463e-20)
(0.994944 3.68912e-05 2.23023e-20)
(0.99494 8.75069e-06 1.35254e-19)
(0.99494 -2.44936e-05 1.86128e-19)
(0.994943 -6.2827e-05 -6.88193e-19)
(0.994948 -0.00010653 4.721e-19)
(0.994954 -0.000155631 9.31898e-20)
(0.994962 -0.000210122 -2.69794e-20)
(0.99497 -0.000268423 -1.82778e-19)
(0.994979 -0.000331513 5.32653e-19)
(0.994987 -0.000399981 -1.66157e-19)
(0.994996 -0.000474171 -2.18942e-19)
(0.995004 -0.000553993 -6.22835e-19)
(0.995013 -0.000639549 1.19331e-18)
(0.99502 -0.000732501 -2.39073e-19)
(0.995026 -0.000832924 -1.91523e-19)
(0.995032 -0.000939697 -5.41945e-19)
(0.995037 -0.0010545 5.7684e-19)
(0.99504 -0.00117926 3.05937e-19)
(0.995042 -0.00131172 -1.37668e-19)
(0.995043 -0.00145345 2.23002e-19)
(0.995042 -0.00160776 -9.25737e-19)
(0.995039 -0.00176954 6.52404e-20)
(0.995034 -0.00194516 4.81507e-19)
(0.995027 -0.0021322 -8.8005e-20)
(0.995018 -0.00233107 -1.38185e-18)
(0.995006 -0.00254468 1.29673e-19)
(0.994991 -0.00276956 1.16649e-18)
(0.994972 -0.00301105 -3.03183e-19)
(0.994951 -0.00326465 -5.70661e-19)
(0.994926 -0.00353424 3.24942e-19)
(0.994897 -0.00381592 9.30084e-19)
(0.994864 -0.00410959 2.14131e-18)
(0.994827 -0.00441706 -3.26056e-19)
(0.994788 -0.00473365 4.2176e-19)
(0.994745 -0.00506265 -3.15866e-18)
(0.994701 -0.005399 -8.76678e-19)
(0.994656 -0.00573876 5.49578e-19)
(0.994612 -0.00608162 -2.25033e-18)
(0.994573 -0.00642316 -4.61929e-19)
(0.99454 -0.00675782 1.01445e-18)
(0.99452 -0.00708327 8.40706e-19)
(0.994516 -0.00739582 2.18307e-18)
(0.994535 -0.00769158 6.8713e-18)
(0.994584 -0.0079676 -5.23552e-18)
(0.99467 -0.00822208 8.07142e-18)
(0.994802 -0.00845428 5.81347e-18)
(0.994985 -0.00866473 -1.77318e-20)
(0.995226 -0.00885542 6.83541e-18)
(0.995528 -0.00903037 -8.69431e-18)
(0.995895 -0.00919672 -9.7735e-18)
(0.996322 -0.00936116 7.13108e-18)
(0.996799 -0.00953447 5.74131e-18)
(0.997316 -0.00974504 -2.30803e-18)
(0.99786 -0.0100407 -1.19368e-17)
(0.998412 -0.0105142 2.62238e-18)
(0.998956 -0.0113423 -2.72035e-18)
(0.999327 -0.0128753 -3.99241e-18)
(1.00117 -0.0180223 4.29611e-18)
(0.994624 6.97463e-05 -3.49176e-20)
(0.994549 5.29533e-05 3.61195e-20)
(0.994532 2.83735e-05 2.32678e-19)
(0.994527 1.5473e-07 -2.87535e-19)
(0.994527 -3.23187e-05 4.94648e-19)
(0.99453 -6.91352e-05 -6.88538e-19)
(0.994535 -0.000110715 1.84814e-19)
(0.994543 -0.000157829 -8.37936e-21)
(0.994552 -0.000210358 3.69333e-19)
(0.994561 -0.000266923 -1.85395e-19)
(0.994571 -0.000328322 5.19669e-20)
(0.994582 -0.000395502 5.0666e-20)
(0.994592 -0.000468228 -7.58788e-19)
(0.994602 -0.00054659 2.18582e-19)
(0.994612 -0.000630634 4.80686e-19)
(0.994621 -0.000721908 1.3273e-20)
(0.994629 -0.000820745 -7.34914e-19)
(0.994636 -0.000925343 2.89525e-19)
(0.994643 -0.00103816 1.28738e-18)
(0.994648 -0.00116087 -8.13451e-19)
(0.994652 -0.00129122 -5.90791e-19)
(0.994655 -0.00143058 4.83591e-19)
(0.994656 -0.00158292 2.97108e-19)
(0.994656 -0.00174203 3.17341e-19)
(0.994654 -0.0019153 -6.00824e-19)
(0.99465 -0.00209979 -1.24545e-18)
(0.994644 -0.00229591 9.22376e-19)
(0.994636 -0.00250695 1.26108e-18)
(0.994625 -0.002729 3.2877e-19)
(0.994612 -0.00296795 -6.53202e-19)
(0.994596 -0.00321892 2.88966e-19)
(0.994578 -0.00348658 4.68861e-19)
(0.994556 -0.00376619 -8.01201e-19)
(0.994532 -0.00405864 -1.33515e-19)
(0.994505 -0.00436591 -1.36136e-18)
(0.994476 -0.00468265 -3.51955e-19)
(0.994446 -0.00501332 -3.25359e-19)
(0.994415 -0.0053527 8.84801e-19)
(0.994385 -0.00569696 -1.22468e-18)
(0.994358 -0.00604645 3.38377e-19)
(0.994336 -0.00639685 5.64174e-19)
(0.994323 -0.0067426 1.4233e-19)
(0.994322 -0.00708172 -3.30122e-18)
(0.99434 -0.00741055 -4.47458e-18)
(0.994381 -0.00772504 -3.78454e-18)
(0.994453 -0.00802193 7.34409e-18)
(0.994562 -0.00829895 2.10784e-19)
(0.994717 -0.00855467 -2.7449e-18)