/*--------------------------------*- C++ -*----------------------------------*\
  =========                 |
  \\      /  F ield         | OpenFOAM: The Open Source CFD Toolbox
   \\    /   O peration     | Website:  https://openfoam.org
    \\  /    A nd           | Version:  6.0
     \\/     M anipulation  |
\*---------------------------------------------------------------------------*/
FoamFile
{
    version     2.0;
    format      ascii;
    class       volScalarField;
    location    "9";
    object      p;
}
// * * * * * * * * * * * * * * * * * * * * * * * * * * * * * * * * * * * * * //

dimensions      [0 2 -2 0 0 0 0];

internalField   nonuniform List<scalar> 
248000
(
0.0143221
0.0142893
0.0142581
0.0142286
0.0142007
0.0141744
0.0141496
0.0141263
0.0141044
0.0140839
0.0140647
0.014047
0.0140305
0.0140153
0.0140014
0.0139889
0.0139776
0.0139677
0.0139591
0.0139519
0.0139461
0.0139418
0.0139391
0.0139379
0.0139384
0.0139406
0.0139446
0.0139505
0.0139584
0.0139686
0.0139811
0.0139962
0.0140141
0.0140352
0.0140598
0.0140882
0.0141208
0.014158
0.0142004
0.0142483
0.0143024
0.0143631
0.0144312
0.0145072
0.014592
0.0146862
0.0147908
0.0149067
0.015035
0.0151767
0.0153332
0.015506
0.0156968
0.0159072
0.0161389
0.0163936
0.0166731
0.0169791
0.0173135
0.0176779
0.0180739
0.0185029
0.0189658
0.0194633
0.0199955
0.0205616
0.0211604
0.0217891
0.0224448
0.0231237
0.023821
0.0245302
0.0252432
0.0259502
0.0266405
0.0273023
0.0279233
0.0284907
0.0289924
0.0294176
0.0297577
0.0300081
0.0301687
0.0302459
0.0302531
0.0302119
0.0301522
0.0301112
0.0301325
0.030263
0.0305493
0.031033
0.0317447
0.0327005
0.033894
0.0352984
0.0368575
0.0384997
0.0401253
0.0416386
0.0429235
0.0438977
0.0444652
0.0445913
0.0442274
0.0434088
0.0421501
0.0405007
0.0385274
0.0363059
0.0339084
0.0314046
0.0288534
0.0263058
0.0238001
0.0213612
0.0190551
0.0166688
0.0152214
0.0155067
0.0142314
0.0142033
0.0141764
0.014151
0.014127
0.0141043
0.0140828
0.0140628
0.0140438
0.0140262
0.0140097
0.0139944
0.0139802
0.0139671
0.0139551
0.0139443
0.0139345
0.0139259
0.0139185
0.0139123
0.0139074
0.0139039
0.0139018
0.0139012
0.0139021
0.0139048
0.0139091
0.0139154
0.0139235
0.0139339
0.0139465
0.0139617
0.0139797
0.0140008
0.0140253
0.0140536
0.0140861
0.0141232
0.0141654
0.0142131
0.014267
0.0143274
0.0143951
0.0144708
0.0145551
0.0146487
0.0147526
0.0148678
0.0149952
0.0151362
0.0152921
0.0154644
0.0156548
0.0158648
0.0160962
0.0163507
0.0166301
0.0169361
0.0172706
0.0176353
0.0180318
0.0184615
0.0189255
0.0194244
0.0199586
0.0205273
0.0211293
0.0217623
0.0224234
0.0231091
0.0238147
0.0245338
0.0252581
0.025978
0.0266827
0.0273606
0.0279988
0.0285844
0.0291047
0.0295479
0.0299049
0.0301697
0.0303412
0.0304246
0.0304323
0.0303852
0.0303131
0.0302542
0.0302541
0.0303632
0.0306334
0.0311132
0.031842
0.0328456
0.0341282
0.0356729
0.0374319
0.0393396
0.0412974
0.0432076
0.0449444
0.0464139
0.0475
0.0481506
0.0482909
0.0479408
0.047092
0.045777
0.0440514
0.0419836
0.0396407
0.0370914
0.0343951
0.0316051
0.0287624
0.0258918
0.0230905
0.020063
0.0185087
0.0178404
0.0141182
0.0141039
0.0140888
0.0140733
0.0140574
0.0140414
0.0140252
0.014009
0.0139929
0.013977
0.0139614
0.0139463
0.0139316
0.0139175
0.0139041
0.0138915
0.0138797
0.0138689
0.0138592
0.0138506
0.0138432
0.0138373
0.0138328
0.0138299
0.0138289
0.0138296
0.0138324
0.0138372
0.0138444
0.0138539
0.013866
0.013881
0.013899
0.0139202
0.0139451
0.013974
0.0140071
0.014045
0.014088
0.0141365
0.0141911
0.0142523
0.0143208
0.0143969
0.0144816
0.0145754
0.0146791
0.0147935
0.0149199
0.0150596
0.0152143
0.0153851
0.0155737
0.0157816
0.0160104
0.0162617
0.0165374
0.0168391
0.0171687
0.0175277
0.0179177
0.0183401
0.0187959
0.0192857
0.0198096
0.020367
0.0209567
0.0215766
0.0222242
0.0228961
0.0235873
0.0242906
0.0249975
0.0256984
0.0263822
0.0270366
0.0276481
0.0282028
0.0286864
0.0290857
0.0293892
0.0295883
0.029679
0.0296629
0.0295489
0.0293539
0.029104
0.0288344
0.0285885
0.0284157
0.028369
0.0285002
0.028855
0.0294673
0.0303529
0.031508
0.032899
0.034475
0.0361503
0.0378383
0.0394199
0.040805
0.0418745
0.042572
0.0428116
0.0426037
0.0419257
0.0407982
0.0392677
0.037395
0.0352412
0.0328733
0.0303529
0.02774
0.0250872
0.0224358
0.0199316
0.017329
0.0164721
0.0160841
0.0140956
0.0140872
0.0140767
0.014065
0.0140519
0.0140379
0.014023
0.0140073
0.0139909
0.0139741
0.013957
0.0139397
0.0139223
0.0139051
0.0138881
0.0138716
0.0138555
0.0138402
0.0138257
0.0138122
0.0137998
0.0137887
0.0137792
0.0137714
0.0137654
0.0137614
0.0137598
0.0137604
0.0137637
0.0137698
0.0137787
0.0137909
0.0138064
0.0138255
0.0138486
0.0138758
0.0139076
0.0139442
0.0139861
0.0140338
0.0140877
0.0141482
0.014216
0.0142916
0.0143756
0.0144687
0.0145716
0.0146849
0.01481
0.0149485
0.0151021
0.0152719
0.0154596
0.0156666
0.0158944
0.0161447
0.0164194
0.0167201
0.0170489
0.0174071
0.0177965
0.0182184
0.0186739
0.0191639
0.0196883
0.0202467
0.0208381
0.0214613
0.0221145
0.0227945
0.0234958
0.0242111
0.0249319
0.0256487
0.0263508
0.0270255
0.0276592
0.0282369
0.0287435
0.0291639
0.0294848
0.0296948
0.0297865
0.0297576
0.0296122
0.0293623
0.0290286
0.028641
0.0282379
0.0278649
0.027573
0.0274133
0.0274343
0.0276753
0.0281606
0.0288979
0.0298675
0.031034
0.0323274
0.0336761
0.0349736
0.0361393
0.0370596
0.0376801
0.0379116
0.0377604
0.0371938
0.0362257
0.0348957
0.0332579
0.031368
0.0292909
0.0270904
0.0248325
0.0225808
0.0203929
0.0184477
0.0165619
0.0164683
0.0171511
0.0141153
0.0141005
0.0140839
0.0140665
0.0140483
0.0140295
0.0140101
0.0139902
0.0139699
0.0139494
0.0139286
0.0139078
0.0138871
0.0138665
0.0138461
0.0138262
0.0138067
0.0137878
0.0137697
0.0137524
0.0137362
0.0137212
0.0137076
0.0136956
0.0136855
0.0136773
0.0136714
0.013668
0.0136673
0.0136694
0.0136747
0.0136832
0.0136953
0.0137112
0.0137311
0.0137553
0.0137842
0.0138181
0.0138575
0.0139026
0.0139541
0.0140124
0.0140782
0.0141518
0.0142342
0.0143257
0.0144271
0.0145391
0.0146631
0.0148009
0.014954
0.0151239
0.015312
0.0155199
0.0157492
0.0160017
0.0162793
0.0165839
0.0169176
0.0172819
0.0176787
0.0181096
0.0185758
0.0190786
0.0196182
0.0201945
0.020807
0.0214556
0.0221392
0.0228554
0.0235987
0.0243618
0.0251369
0.0259155
0.0266874
0.0274406
0.0281616
0.0288355
0.0294467
0.0299797
0.0304195
0.0307529
0.0309699
0.0310644
0.0310364
0.0308927
0.0306482
0.0303265
0.0299601
0.0295884
0.0292575
0.0290151
0.0289084
0.0289779
0.0292521
0.0297459
0.0304496
0.0313401
0.0323609
0.0334543
0.0345266
0.0355081
0.0362931
0.0368322
0.0370372
0.0369125
0.0364199
0.035569
0.0343939
0.0329424
0.0312637
0.0294185
0.0274689
0.0254805
0.0235181
0.0216419
0.0200319
0.0185235
0.018728
0.0199533
0.0140489
0.0140256
0.0140014
0.0139771
0.0139527
0.0139283
0.0139039
0.0138797
0.0138556
0.0138318
0.0138082
0.013785
0.0137621
0.0137397
0.0137179
0.0136966
0.013676
0.013656
0.0136369
0.0136187
0.0136016
0.0135855
0.0135708
0.0135576
0.0135461
0.0135365
0.0135291
0.013524
0.0135215
0.0135218
0.013525
0.0135315
0.0135415
0.0135551
0.0135728
0.0135947
0.0136212
0.0136526
0.0136896
0.0137323
0.0137814
0.0138373
0.0139009
0.0139724
0.0140529
0.0141428
0.014243
0.0143539
0.0144774
0.0146147
0.0147679
0.0149382
0.0151273
0.0153366
0.0155682
0.0158238
0.0161055
0.0164154
0.0167555
0.0171278
0.0175342
0.0179766
0.0184567
0.0189759
0.0195351
0.0201344
0.0207742
0.0214549
0.0221768
0.0229379
0.023733
0.0245556
0.0253991
0.0262558
0.0271168
0.0279713
0.0288064
0.0296079
0.0303608
0.0310494
0.0316583
0.0321733
0.0325825
0.0328774
0.0330542
0.0331154
0.0330704
0.032937
0.0327407
0.0325145
0.0322982
0.0321338
0.0320646
0.0321292
0.0323568
0.0327653
0.0333513
0.0341
0.0349654
0.0359007
0.0368238
0.0376748
0.0383567
0.0388253
0.0389956
0.0388718
0.0384122
0.0376228
0.0365333
0.035184
0.0336174
0.0318874
0.0300506
0.0281667
0.0262937
0.0244853
0.0229046
0.0213796
0.021467
0.0225791
0.0138432
0.0138164
0.0137893
0.0137625
0.0137358
0.0137096
0.0136835
0.0136579
0.0136327
0.013608
0.0135838
0.0135602
0.0135373
0.0135151
0.0134937
0.013473
0.0134531
0.0134342
0.0134161
0.0133991
0.0133831
0.0133682
0.0133548
0.0133427
0.0133323
0.0133236
0.013317
0.0133126
0.0133107
0.0133113
0.0133148
0.0133214
0.0133312
0.0133445
0.0133617
0.0133828
0.0134085
0.0134389
0.0134746
0.013516
0.0135637
0.0136181
0.0136802
0.0137503
0.0138295
0.0139183
0.0140175
0.0141279
0.0142511
0.0143883
0.0145415
0.0147119
0.0149013
0.0151114
0.015344
0.0156013
0.0158852
0.0161979
0.0165418
0.0169189
0.0173311
0.0177808
0.0182698
0.0188001
0.0193729
0.0199889
0.0206486
0.0213534
0.0221043
0.0228999
0.0237358
0.024606
0.0255054
0.0264276
0.0273649
0.0283079
0.0292448
0.0301624
0.0310467
0.0318828
0.0326553
0.0333502
0.0339543
0.0344577
0.0348539
0.035142
0.035327
0.0354211
0.0354442
0.0354226
0.0353893
0.0353804
0.035434
0.0355849
0.0358605
0.0362795
0.0368416
0.037537
0.0383274
0.0391745
0.0400054
0.0407687
0.0413748
0.0417851
0.0419177
0.0417776
0.0413207
0.0405497
0.0394899
0.0381747
0.0366391
0.0349303
0.0330975
0.0311932
0.0292663
0.0273637
0.0256303
0.0238891
0.0236867
0.0244207
0.0135358
0.0135086
0.0134814
0.0134547
0.0134283
0.0134025
0.0133771
0.0133523
0.013328
0.0133044
0.0132814
0.0132591
0.0132376
0.0132168
0.0131969
0.0131778
0.0131597
0.0131425
0.0131263
0.0131111
0.0130971
0.0130842
0.0130727
0.0130627
0.0130543
0.0130476
0.013043
0.0130404
0.0130402
0.0130424
0.0130474
0.0130552
0.0130662
0.0130804
0.0130983
0.01312
0.0131459
0.0131765
0.0132121
0.0132532
0.0133005
0.0133544
0.0134157
0.0134851
0.0135636
0.0136517
0.0137504
0.0138604
0.0139832
0.0141201
0.0142727
0.0144424
0.0146308
0.0148398
0.0150712
0.0153272
0.0156098
0.0159213
0.016264
0.01664
0.0170515
0.0175008
0.0179902
0.0185218
0.0190971
0.0197173
0.0203834
0.0210968
0.0218594
0.0226702
0.0235254
0.02442
0.02535
0.0263106
0.0272951
0.0282957
0.0293018
0.0303014
0.0312821
0.0322295
0.0331296
0.0339684
0.0347328
0.0354121
0.0359981
0.0364874
0.0368819
0.0371894
0.0374246
0.0376081
0.0377669
0.0379312
0.0381335
0.0384042
0.0387681
0.0392425
0.0398285
0.0405194
0.041282
0.0420842
0.0428606
0.0435665
0.0441189
0.0444839
0.0445829
0.0444218
0.0439548
0.0431815
0.0421232
0.0408065
0.0392607
0.0375259
0.0356456
0.0336655
0.0316278
0.0295767
0.0276459
0.0256643
0.0251759
0.0255379
0.0131679
0.0131429
0.0131182
0.0130939
0.0130698
0.0130462
0.0130229
0.013
0.0129776
0.0129558
0.0129345
0.012914
0.012894
0.0128749
0.0128566
0.0128392
0.0128226
0.012807
0.0127925
0.012779
0.0127666
0.0127555
0.0127457
0.0127374
0.0127307
0.0127258
0.0127228
0.0127219
0.0127234
0.0127272
0.0127337
0.012743
0.0127553
0.0127708
0.0127898
0.0128124
0.0128392
0.0128703
0.0129063
0.0129476
0.0129949
0.0130487
0.0131097
0.0131786
0.0132565
0.013344
0.0134419
0.0135512
0.0136732
0.0138091
0.0139602
0.0141278
0.0143136
0.0145193
0.0147469
0.0149985
0.015276
0.0155817
0.015918
0.016287
0.0166907
0.0171318
0.0176125
0.0181352
0.0187016
0.0193132
0.019971
0.020677
0.0214331
0.022239
0.0230911
0.0239855
0.0249195
0.0258892
0.0268894
0.0279135
0.0289521
0.0299948
0.0310303
0.0320459
0.0330283
0.0339646
0.0348421
0.0356499
0.0363792
0.0370249
0.0375866
0.0380687
0.0384823
0.0388428
0.0391722
0.0394953
0.0398395
0.040231
0.0406911
0.0412354
0.0418649
0.0425747
0.0433351
0.0441188
0.0448658
0.0455373
0.0460553
0.0463904
0.0464665
0.0462911
0.0458166
0.0450396
0.0439781
0.0426532
0.041089
0.0393209
0.0373875
0.0353304
0.0331881
0.0310073
0.0289159
0.0267584
0.0260601
0.0261482
0.0127715
0.0127491
0.0127268
0.0127049
0.0126833
0.012662
0.0126411
0.0126206
0.0126005
0.0125809
0.0125617
0.0125431
0.0125251
0.0125077
0.0124911
0.0124752
0.01246
0.0124458
0.0124325
0.0124201
0.0124089
0.0123989
0.0123902
0.0123829
0.0123773
0.0123734
0.0123714
0.0123715
0.0123739
0.0123786
0.012386
0.0123961
0.0124091
0.0124253
0.0124448
0.012468
0.0124951
0.0125265
0.0125626
0.0126039
0.012651
0.0127044
0.0127648
0.012833
0.01291
0.0129964
0.013093
0.0132008
0.0133211
0.0134549
0.0136033
0.0137674
0.0139487
0.0141491
0.0143705
0.0146147
0.0148837
0.0151798
0.0155053
0.015862
0.0162523
0.0166785
0.0171432
0.0176485
0.0181966
0.0187889
0.0194267
0.0201119
0.0208466
0.0216309
0.0224616
0.0233356
0.0242512
0.0252057
0.0261948
0.0272133
0.0282529
0.0293044
0.0303583
0.0314028
0.0324263
0.0334168
0.0343623
0.0352524
0.0360782
0.0368336
0.0375168
0.0381298
0.0386806
0.039181
0.0396484
0.0401033
0.0405686
0.0410663
0.0416145
0.042227
0.042904
0.0436413
0.044412
0.0451921
0.0459262
0.0465798
0.0470798
0.0473998
0.047467
0.0472892
0.0468185
0.0460483
0.0449938
0.0436714
0.0421019
0.0403165
0.0383514
0.0362456
0.0340369
0.031777
0.0295924
0.0273451
0.0265216
0.0264354
0.0123472
0.0123292
0.0123112
0.0122933
0.0122754
0.0122578
0.0122401
0.0122227
0.0122053
0.0121883
0.0121715
0.0121551
0.012139
0.0121234
0.0121084
0.0120939
0.0120801
0.0120669
0.0120546
0.0120431
0.0120326
0.0120231
0.0120148
0.0120079
0.0120025
0.0119988
0.0119969
0.0119971
0.0119995
0.0120042
0.0120115
0.0120215
0.0120344
0.0120503
0.0120696
0.0120924
0.0121192
0.01215
0.0121856
0.0122261
0.0122724
0.0123246
0.0123838
0.0124505
0.0125258
0.0126102
0.0127046
0.0128099
0.0129274
0.0130578
0.0132021
0.0133612
0.0135365
0.0137297
0.0139428
0.0141774
0.0144353
0.0147189
0.0150302
0.0153711
0.0157437
0.0161505
0.0165939
0.0170762
0.0175992
0.018165
0.0187744
0.0194295
0.0201325
0.0208837
0.0216802
0.0225197
0.0234013
0.0243232
0.0252821
0.0262737
0.027291
0.0283259
0.0293703
0.0304138
0.031446
0.0324563
0.0334335
0.0343681
0.0352511
0.0360763
0.0368408
0.0375453
0.0381953
0.0387998
0.0393727
0.0399307
0.0404928
0.0410778
0.0417006
0.042373
0.0430943
0.0438611
0.0446478
0.0454334
0.0461659
0.0468151
0.0473109
0.0476306
0.0477032
0.0475383
0.0470865
0.0463388
0.0453078
0.0440065
0.0424531
0.0406761
0.0387101
0.0365936
0.0343645
0.0320816
0.0298697
0.0276076
0.0267248
0.0265395
0.0119107
0.0118961
0.0118813
0.0118666
0.0118518
0.0118371
0.0118225
0.011808
0.0117935
0.0117791
0.0117649
0.0117508
0.0117369
0.0117232
0.0117098
0.0116968
0.0116842
0.011672
0.0116605
0.0116496
0.0116394
0.0116301
0.011622
0.0116149
0.0116093
0.0116052
0.0116028
0.0116023
0.0116039
0.0116078
0.0116142
0.0116231
0.0116349
0.0116497
0.0116678
0.0116893
0.0117146
0.011744
0.011778
0.0118168
0.0118612
0.0119114
0.0119684
0.0120327
0.0121053
0.0121867
0.0122778
0.0123793
0.0124927
0.0126185
0.0127574
0.0129101
0.013078
0.0132626
0.0134658
0.013689
0.0139342
0.0142032
0.0144983
0.0148211
0.0151736
0.0155583
0.0159774
0.0164332
0.0169276
0.0174624
0.0180387
0.0186584
0.0193238
0.0200352
0.0207902
0.0215868
0.0224251
0.0233039
0.0242208
0.0251723
0.0261524
0.0271542
0.0281707
0.029193
0.0302117
0.0312176
0.0322004
0.0331516
0.0340626
0.0349272
0.0357422
0.0365069
0.0372255
0.0379044
0.0385551
0.0391912
0.0398284
0.0404824
0.0411658
0.0418881
0.0426486
0.0434429
0.044248
0.0450438
0.0457831
0.0464365
0.0469396
0.0472697
0.0473612
0.0472224
0.0468038
0.0460941
0.0451038
0.0438429
0.0423279
0.0405852
0.038649
0.0365573
0.0343493
0.0320902
0.0299026
0.0276779
0.0267792
0.0265424
0.0114505
0.0114407
0.0114304
0.0114199
0.0114091
0.0113982
0.011387
0.0113756
0.0113639
0.0113522
0.0113403
0.0113284
0.0113164
0.0113045
0.0112926
0.0112809
0.0112694
0.0112582
0.0112473
0.0112369
0.011227
0.0112177
0.0112093
0.0112019
0.0111957
0.0111908
0.0111874
0.0111858
0.0111862
0.0111886
0.0111934
0.0112007
0.0112108
0.0112237
0.0112398
0.0112592
0.0112823
0.0113093
0.0113408
0.0113771
0.0114187
0.0114659
0.0115197
0.0115805
0.0116494
0.0117268
0.0118134
0.01191
0.0120181
0.012138
0.0122702
0.0124154
0.0125747
0.0127496
0.0129418
0.0131527
0.0133839
0.0136374
0.0139151
0.0142188
0.0145501
0.0149114
0.015305
0.015733
0.0161971
0.0166994
0.0172406
0.0178228
0.018448
0.019117
0.0198274
0.0205777
0.0213685
0.0221994
0.0230685
0.0239732
0.0249082
0.0258678
0.0268459
0.0278348
0.0288265
0.0298127
0.0307844
0.0317337
0.0326527
0.0335355
0.0343786
0.0351809
0.0359451
0.0366762
0.0373833
0.0380775
0.0387721
0.0394801
0.0402121
0.0409758
0.0417698
0.0425897
0.0434138
0.0442236
0.0449748
0.0456404
0.0461593
0.0465103
0.0466307
0.0465299
0.0461571
0.0454989
0.0445639
0.04336
0.0419022
0.0402155
0.0383337
0.0362949
0.0341393
0.0319378
0.0298086
0.0276522
0.0267614
0.0264996
0.010976
0.010969
0.0109614
0.0109535
0.0109453
0.010937
0.0109284
0.0109195
0.0109105
0.0109012
0.0108916
0.0108819
0.010872
0.0108619
0.0108517
0.0108414
0.0108312
0.0108209
0.0108108
0.0108009
0.0107913
0.0107821
0.0107736
0.0107658
0.010759
0.0107533
0.0107489
0.010746
0.0107449
0.0107456
0.0107485
0.0107537
0.0107614
0.0107719
0.0107852
0.0108018
0.0108219
0.0108459
0.0108741
0.0109069
0.0109448
0.0109882
0.0110378
0.0110942
0.0111584
0.0112308
0.0113119
0.0114027
0.0115043
0.0116173
0.0117419
0.0118787
0.0120285
0.0121928
0.0123734
0.0125713
0.012788
0.0130255
0.0132856
0.0135698
0.0138798
0.0142177
0.0145858
0.014986
0.0154201
0.0158897
0.0163962
0.0169408
0.0175261
0.0181526
0.0188184
0.0195221
0.0202651
0.0210472
0.0218671
0.022723
0.0236103
0.0245239
0.0254591
0.026409
0.0273667
0.0283249
0.0292757
0.0302121
0.0311268
0.0320143
0.032871
0.0336955
0.0344896
0.0352569
0.036005
0.0367429
0.0374818
0.0382324
0.0390037
0.0398016
0.0406248
0.0414678
0.0423114
0.0431367
0.0439044
0.0445863
0.0451278
0.0455053
0.0456632
0.0456081
0.04529
0.044693
0.0438243
0.0426895
0.041303
0.0396881
0.0378784
0.0359119
0.0338296
0.0317065
0.0296552
0.0275811
0.0267091
0.0264341
0.0104683
0.0104654
0.0104617
0.0104576
0.010453
0.010448
0.0104424
0.0104365
0.01043
0.0104231
0.0104158
0.0104081
0.0104001
0.0103918
0.0103832
0.0103744
0.0103654
0.0103562
0.0103469
0.0103376
0.0103285
0.0103195
0.0103109
0.0103027
0.0102953
0.0102886
0.0102831
0.0102789
0.0102761
0.010275
0.0102758
0.0102787
0.0102839
0.0102915
0.010302
0.0103153
0.0103321
0.0103524
0.0103768
0.0104055
0.0104391
0.0104779
0.0105226
0.0105739
0.0106326
0.0106991
0.0107739
0.0108579
0.0109523
0.0110575
0.0111737
0.0113012
0.011441
0.0115943
0.0117628
0.0119475
0.0121496
0.0123711
0.0126138
0.0128789
0.013168
0.0134832
0.0138266
0.0142
0.014605
0.0150435
0.0155163
0.016025
0.016572
0.0171579
0.0177809
0.01844
0.019137
0.0198719
0.0206441
0.0214523
0.0222924
0.0231602
0.0240517
0.0249611
0.0258823
0.0268091
0.0277344
0.0286522
0.0295556
0.0304397
0.031301
0.0321378
0.0329514
0.0337444
0.0345228
0.0352942
0.036068
0.036853
0.0376568
0.038484
0.0393329
0.0401978
0.0410609
0.0419039
0.0426904
0.0433934
0.0439617
0.0443718
0.0445722
0.0445693
0.0443122
0.0437833
0.0429882
0.0419308
0.0406248
0.0390919
0.0373655
0.0354834
0.0334862
0.0314526
0.0294875
0.0274992
0.0266482
0.0263639
0.00994418
0.0099431
0.00994111
0.00993882
0.00993608
0.00993303
0.00992954
0.00992564
0.00992129
0.00991648
0.00991123
0.00990547
0.00989928
0.00989261
0.00988556
0.00987805
0.00987022
0.00986197
0.00985351
0.00984474
0.00983595
0.00982702
0.00981835
0.00980984
0.0098019
0.00979446
0.00978793
0.0097823
0.00977792
0.00977491
0.00977353
0.00977396
0.00977642
0.00978112
0.00978828
0.00979814
0.00981108
0.00982739
0.00984751
0.00987172
0.00990052
0.00993418
0.00997352
0.0100191
0.0100717
0.0101317
0.0101996
0.0102762
0.0103627
0.0104594
0.0105666
0.0106845
0.0108138
0.0109558
0.0111121
0.0112835
0.0114713
0.0116771
0.0119028
0.0121495
0.0124186
0.0127121
0.0130321
0.01338
0.0137578
0.0141668
0.0146082
0.0150832
0.0155943
0.0161423
0.0167254
0.017343
0.017997
0.0186879
0.0194154
0.0201786
0.020974
0.0217982
0.0226478
0.0235177
0.0244029
0.025298
0.0261966
0.0270935
0.0279826
0.0288592
0.0297202
0.0305635
0.0313902
0.032202
0.0330039
0.0338021
0.0346044
0.0354183
0.0362501
0.0371031
0.0379756
0.0388612
0.0397443
0.0406056
0.0414137
0.0421396
0.0427384
0.0431832
0.0434304
0.0434826
0.0432899
0.0428327
0.0421154
0.04114
0.0399197
0.0384745
0.0368377
0.0350458
0.0331395
0.0311991
0.0293218
0.0274157
0.0265847
0.02629
0.00938498
0.00938729
0.00938873
0.00938958
0.00938978
0.00938938
0.00938827
0.00938654
0.0093841
0.00938106
0.00937736
0.00937308
0.00936819
0.00936275
0.00935678
0.00935027
0.00934327
0.00933576
0.00932784
0.00931949
0.00931089
0.009302
0.0092931
0.00928419
0.00927556
0.00926724
0.00925955
0.00925255
0.00924654
0.00924164
0.00923813
0.00923614
0.00923595
0.00923768
0.00924161
0.00924791
0.00925703
0.00926918
0.00928488
0.00930431
0.00932805
0.00935628
0.00938986
0.00942927
0.00947546
0.00952855
0.00958908
0.0096578
0.00973592
0.00982377
0.00992162
0.0100295
0.0101482
0.0102789
0.0104231
0.0105814
0.010755
0.0109457
0.0111551
0.0113842
0.0116342
0.0119072
0.0122052
0.0125294
0.0128816
0.0132634
0.0136755
0.0141195
0.0145976
0.0151107
0.0156572
0.0162367
0.0168513
0.0175018
0.0181882
0.01891
0.0196643
0.0204481
0.0212587
0.0220917
0.0229428
0.0238074
0.0246801
0.025556
0.0264298
0.0272972
0.0281552
0.0290019
0.0298379
0.0306643
0.0314853
0.0323058
0.0331325
0.0339716
0.0348283
0.035705
0.0365998
0.0375061
0.0384092
0.0392908
0.0401217
0.0408735
0.0415047
0.0419878
0.0422834
0.0423934
0.0422672
0.0418839
0.0412464
0.0403553
0.039223
0.0378682
0.0363233
0.034624
0.03281
0.0309625
0.0291702
0.0273403
0.0265258
0.026218
0.00880695
0.00881012
0.00881221
0.00881387
0.00881497
0.00881561
0.0088157
0.00881522
0.00881418
0.00881247
0.00881017
0.00880717
0.00880355
0.00879922
0.0087943
0.00878867
0.00878246
0.00877556
0.00876814
0.00876009
0.00875168
0.00874277
0.00873372
0.00872444
0.00871529
0.00870618
0.00869748
0.0086892
0.00868163
0.0086749
0.00866923
0.00866482
0.00866185
0.00866055
0.00866108
0.00866373
0.00866884
0.00867673
0.00868781
0.00870234
0.0087208
0.00874342
0.00877101
0.00880408
0.00884353
0.00888947
0.00894239
0.00900299
0.00907251
0.00915125
0.00923953
0.00933735
0.00944533
0.00956474
0.0096969
0.00984242
0.0100023
0.0101784
0.0103721
0.0105845
0.0108166
0.0110704
0.0113477
0.0116499
0.0119784
0.0123349
0.0127203
0.0131356
0.0135835
0.0140648
0.0145779
0.0151228
0.0157015
0.0163153
0.0169644
0.0176486
0.0183655
0.0191124
0.0198873
0.0206865
0.0215063
0.0223428
0.023191
0.0240471
0.0249061
0.0257641
0.0266183
0.0274669
0.0283101
0.0291488
0.0299861
0.0308263
0.0316749
0.0325369
0.0334168
0.0343158
0.0352326
0.0361591
0.0370835
0.0379858
0.0388416
0.03962
0.0402859
0.0408076
0.041154
0.0413219
0.0412625
0.0409533
0.040396
0.0395896
0.0385458
0.0372817
0.035829
0.0342218
0.032499
0.0307415
0.0290297
0.0272685
0.0264676
0.0261432
0.0081862
0.00819205
0.00819688
0.00820106
0.00820447
0.00820721
0.00820911
0.00821028
0.00821062
0.00821023
0.00820904
0.00820713
0.00820445
0.00820105
0.00819692
0.00819205
0.00818648
0.00818013
0.00817312
0.00816536
0.00815705
0.0081481
0.0081388
0.00812906
0.00811923
0.00810922
0.0080994
0.00808975
0.00808061
0.008072
0.00806427
0.00805746
0.00805189
0.0080476
0.00804492
0.00804394
0.00804518
0.00804878
0.00805531
0.00806487
0.00807804
0.00809495
0.00811647
0.00814308
0.00817569
0.00821436
0.00825954
0.00831194
0.00837273
0.00844228
0.00852096
0.00860869
0.00870604
0.0088143
0.0089347
0.00906776
0.00921441
0.00937638
0.00955521
0.00975167
0.00996676
0.0102025
0.0104605
0.0107422
0.0110488
0.0113821
0.0117426
0.0121317
0.012552
0.0130043
0.0134871
0.0140004
0.0145467
0.0151272
0.0157425
0.0163926
0.0170755
0.017789
0.0185317
0.0193002
0.0200915
0.0209022
0.0217282
0.022566
0.0234111
0.0242601
0.0251104
0.0259602
0.0268096
0.0276592
0.0285113
0.0293694
0.0302382
0.0311217
0.0320238
0.0329447
0.0338831
0.0348307
0.0357769
0.0367016
0.0375833
0.0383906
0.0390924
0.0396551
0.0400526
0.0402794
0.040287
0.0400519
0.0395744
0.0388522
0.0378964
0.0367225
0.0353608
0.0338444
0.0322102
0.0305391
0.0289026
0.0272031
0.0264125
0.0260685
0.00754845
0.00755425
0.00755888
0.00756308
0.00756666
0.00756978
0.00757227
0.00757413
0.00757533
0.00757578
0.00757552
0.00757442
0.00757258
0.00756985
0.00756637
0.00756197
0.00755681
0.00755069
0.00754383
0.00753604
0.00752762
0.00751837
0.00750868
0.00749835
0.00748781
0.00747686
0.00746593
0.0074549
0.00744414
0.00743367
0.00742376
0.00741453
0.00740619
0.0073989
0.00739284
0.00738823
0.00738546
0.0073848
0.00738668
0.00739131
0.00739913
0.00741035
0.00742578
0.00744594
0.00747169
0.0075031
0.00754055
0.00758474
0.00763685
0.00769724
0.00776636
0.00784413
0.00793102
0.00802832
0.00813726
0.00825822
0.00839205
0.0085405
0.00870506
0.00888638
0.0090854
0.00930405
0.00954406
0.00980648
0.0100927
0.0104043
0.0107421
0.0111071
0.011502
0.0119278
0.012383
0.0128676
0.0133843
0.0139345
0.014519
0.0151383
0.0157904
0.0164738
0.0171872
0.017928
0.0186934
0.0194809
0.0202867
0.0211079
0.0219405
0.0227813
0.0236281
0.0244792
0.0253344
0.0261941
0.0270601
0.0279352
0.0288234
0.0297277
0.0306514
0.0315941
0.0325545
0.0335238
0.0344928
0.0354409
0.03635
0.0371871
0.0379262
0.0385304
0.0389802
0.0392652
0.0393389
0.0391769
0.0387784
0.0381394
0.0372704
0.0361851
0.034913
0.0334849
0.0319367
0.0303476
0.0287814
0.0271372
0.0263549
0.0259889
0.00687012
0.00687819
0.00688519
0.00689141
0.00689682
0.00690142
0.00690511
0.00690793
0.00690982
0.00691085
0.00691095
0.00691018
0.00690851
0.00690595
0.00690252
0.00689816
0.00689292
0.00688669
0.00687959
0.0068715
0.00686261
0.00685282
0.00684237
0.0068312
0.00681958
0.00680744
0.0067951
0.00678252
0.00677001
0.00675759
0.00674554
0.00673391
0.00672298
0.00671276
0.00670354
0.00669539
0.00668883
0.00668398
0.00668138
0.00668112
0.00668372
0.00668929
0.00669871
0.00671246
0.00673145
0.00675565
0.00678545
0.00682154
0.00686506
0.00691642
0.00697617
0.00704413
0.00712077
0.0072074
0.00730517
0.00741439
0.00753585
0.00767127
0.00782215
0.00798904
0.00817276
0.00837527
0.00859821
0.00884264
0.00910973
0.00940125
0.00971773
0.0100605
0.0104321
0.0108335
0.0112632
0.0117214
0.0122111
0.0127336
0.01329
0.0138811
0.0145053
0.0151612
0.0158481
0.0165637
0.0173057
0.0180721
0.0188596
0.0196657
0.020487
0.0213205
0.0221643
0.0230167
0.0238776
0.024747
0.0256263
0.0265179
0.0274247
0.0283495
0.0292948
0.0302594
0.0312423
0.0322342
0.0332271
0.0342003
0.035138
0.036007
0.0367843
0.037432
0.0379343
0.0382779
0.0384177
0.0383283
0.0380078
0.037451
0.0366676
0.0356695
0.034485
0.0331432
0.031678
0.0301674
0.0286669
0.0270727
0.0262971
0.0259072
0.00617536
0.00618257
0.00618851
0.0061939
0.00619862
0.00620275
0.00620621
0.00620892
0.0062109
0.00621201
0.00621231
0.00621164
0.00621011
0.00620757
0.00620414
0.00619963
0.0061942
0.00618764
0.00618015
0.00617154
0.00616208
0.00615155
0.00614033
0.00612822
0.00611559
0.00610225
0.00608855
0.00607441
0.00606012
0.00604572
0.00603141
0.00601731
0.00600358
0.00599035
0.00597777
0.00596605
0.00595554
0.00594652
0.00593937
0.00593429
0.00593167
0.00593169
0.00593515
0.00594261
0.00595491
0.00597204
0.00599433
0.00602247
0.00605759
0.00610013
0.00615068
0.00620908
0.00627574
0.00635195
0.00643889
0.00653674
0.00664622
0.00676909
0.00690682
0.00705986
0.00722896
0.00741608
0.00762286
0.00785018
0.00809933
0.00837186
0.00866858
0.0089906
0.00934043
0.00971914
0.0101253
0.0105592
0.0110238
0.0115208
0.0120513
0.0126166
0.0132152
0.013846
0.0145087
0.0152013
0.0159221
0.0166693
0.0174402
0.0182327
0.0190439
0.0198709
0.0207122
0.0215663
0.0224329
0.0233119
0.0242043
0.025112
0.0260373
0.0269824
0.0279493
0.0289364
0.0299424
0.0309579
0.0319758
0.0329754
0.033943
0.0348451
0.0356618
0.0363539
0.0369094
0.0373111
0.037516
0.0374983
0.0372549
0.0367791
0.03608
0.0351677
0.0340691
0.0328113
0.0314266
0.0299908
0.0285523
0.0270035
0.026234
0.0258189
0.00543381
0.00544279
0.00545056
0.00545749
0.00546349
0.00546864
0.00547275
0.00547594
0.00547809
0.00547931
0.0054795
0.00547873
0.00547697
0.00547421
0.00547047
0.00546566
0.00545984
0.00545287
0.00544486
0.00543566
0.00542547
0.00541413
0.00540193
0.0053887
0.00537478
0.00536001
0.00534472
0.00532882
0.00531264
0.00529611
0.00527957
0.00526296
0.00524659
0.00523039
0.00521466
0.00519941
0.00518516
0.00517202
0.0051605
0.00515065
0.00514295
0.00513749
0.00513514
0.00513641
0.00514218
0.00515239
0.00516734
0.00518773
0.00521466
0.00524861
0.00529023
0.00533932
0.00539624
0.00546235
0.00553875
0.00562557
0.00572345
0.00583417
0.00595921
0.00609893
0.00625398
0.00642635
0.00661765
0.00682876
0.00706074
0.00731546
0.00759342
0.00789587
0.00822531
0.00858282
0.00896697
0.00937809
0.00981939
0.0102926
0.0107993
0.0113407
0.0119157
0.0125233
0.0131637
0.0138351
0.0145363
0.0152659
0.0160216
0.0168017
0.0176037
0.0184249
0.0192643
0.0201203
0.0209926
0.0218811
0.0227863
0.0237098
0.0246535
0.025619
0.0266077
0.0276177
0.0286476
0.0296879
0.0307321
0.0317597
0.0327586
0.0336957
0.0345531
0.0352912
0.0359004
0.0363609
0.0366311
0.0366848
0.0365178
0.0361223
0.0355065
0.0346788
0.0336646
0.0324892
0.0311827
0.029819
0.0284392
0.0269325
0.0261685
0.0257275
0.0046785
0.00468597
0.00469202
0.00469747
0.00470217
0.00470624
0.00470955
0.00471208
0.00471378
0.00471456
0.00471444
0.00471329
0.00471119
0.00470798
0.00470379
0.00469839
0.00469197
0.00468424
0.00467545
0.00466533
0.0046542
0.00464177
0.00462845
0.00461396
0.00459872
0.00458246
0.00456556
0.00454785
0.00452967
0.00451097
0.00449199
0.00447278
0.00445351
0.00443424
0.00441511
0.00439629
0.00437813
0.00436088
0.00434492
0.00433038
0.00431763
0.00430681
0.00429873
0.00429398
0.00429335
0.00429684
0.00430465
0.0043175
0.0043365
0.00436211
0.00439506
0.00443511
0.00448258
0.00453884
0.00460503
0.00468113
0.00476774
0.00486669
0.00497943
0.00510625
0.00524774
0.00540588
0.00558234
0.00577781
0.00599349
0.00623104
0.00649124
0.00677512
0.00708521
0.00742268
0.00778606
0.00817577
0.0085952
0.00904626
0.0095305
0.0100497
0.0106026
0.0111887
0.0118084
0.0124603
0.0131434
0.0138568
0.0145984
0.0153672
0.0161609
0.016977
0.0178149
0.018673
0.0195512
0.0204492
0.0213671
0.0223065
0.0232686
0.0242546
0.0252655
0.026299
0.0273537
0.0284198
0.0294914
0.0305485
0.0315801
0.0325535
0.0334528
0.0342381
0.0349017
0.0354208
0.0357559
0.0358804
0.0357892
0.0354734
0.0349399
0.0341957
0.0332647
0.03217
0.0309398
0.0296458
0.028322
0.0268545
0.0260962
0.0256291
0.00387615
0.00388503
0.00389263
0.00389921
0.00390482
0.0039094
0.0039129
0.00391535
0.00391671
0.00391702
0.00391625
0.00391442
0.00391154
0.00390756
0.00390252
0.00389632
0.00388899
0.00388039
0.0038706
0.00385949
0.00384719
0.00383358
0.00381887