/*--------------------------------*- C++ -*----------------------------------*\
  =========                 |
  \\      /  F ield         | OpenFOAM: The Open Source CFD Toolbox
   \\    /   O peration     | Website:  https://openfoam.org
    \\  /    A nd           | Version:  6.0
     \\/     M anipulation  |
\*---------------------------------------------------------------------------*/
FoamFile
{
    version     2.0;
    format      ascii;
    class       volScalarField;
    location    "9";
    object      p;
}
// * * * * * * * * * * * * * * * * * * * * * * * * * * * * * * * * * * * * * //

dimensions      [0 2 -2 0 0 0 0];

internalField   nonuniform List<scalar> 
15500
(
0.0110511
0.0111061
0.0111767
0.0112562
0.0113554
0.0114676
0.0116052
0.0117618
0.0119512
0.0121686
0.0124287
0.0127285
0.0130841
0.013498
0.0139881
0.0145624
0.0152353
0.0160069
0.0168797
0.0178447
0.0188603
0.0198358
0.0206635
0.021255
0.0215851
0.0216492
0.021254
0.0198294
0.0176077
0.0150586
0.011008
0.011077
0.0111586
0.0112474
0.0113532
0.0114703
0.0116103
0.0117677
0.0119558
0.0121707
0.0124264
0.0127236
0.0130753
0.0134884
0.013976
0.0145514
0.0152277
0.0160174
0.0169339
0.0179681
0.0190752
0.0201701
0.0211603
0.0219789
0.0226384
0.0231996
0.0235401
0.0229887
0.022118
0.0188832
0.010911
0.0109933
0.0110858
0.0111851
0.0113001
0.0114256
0.011573
0.0117372
0.011931
0.0121509
0.0124104
0.01271
0.013063
0.0134766
0.0139634
0.0145337
0.0151985
0.0159734
0.0168706
0.0178705
0.0189052
0.0198655
0.020628
0.0210936
0.0212562
0.0212281
0.0210645
0.0203238
0.020125
0.0169344
0.0108731
0.0109465
0.0110321
0.0111264
0.0112386
0.0113641
0.0115133
0.0116818
0.0118811
0.0121081
0.012375
0.0126824
0.0130438
0.0134673
0.0139673
0.014553
0.015236
0.0160349
0.0169631
0.017999
0.0190648
0.0200347
0.0207563
0.0210888
0.0209789
0.0205435
0.0199519
0.0189737
0.0190654
0.0170105
0.0108731
0.0109315
0.0110031
0.0110852
0.0111871
0.0113048
0.0114489
0.0116155
0.0118162
0.012048
0.0123227
0.0126413
0.0130179
0.0134613
0.0139896
0.014614
0.015351
0.0162249
0.0172594
0.0184419
0.0197051
0.0209247
0.0219388
0.02257
0.0227047
0.0223993
0.0218046
0.0207461
0.0208334
0.0196711
0.0108924
0.0109274
0.0109782
0.0110421
0.0111287
0.0112348
0.0113707
0.0115335
0.0117344
0.0119712
0.0122552
0.0125885
0.0129853
0.0134556
0.0140205
0.0146955
0.0155021
0.0164752
0.0176496
0.0190302
0.0205674
0.0221523
0.0236286
0.0247974
0.0254855
0.0256544
0.0253404
0.0242966
0.0241775
0.0231301
0.0108668
0.0108915
0.010932
0.0109861
0.011063
0.0111605
0.0112894
0.0114476
0.0116473
0.0118873
0.0121794
0.012527
0.0129446
0.0134427
0.0140448
0.0147689
0.0156428
0.0167088
0.0180146
0.0195818
0.0213797
0.0233214
0.025262
0.026995
0.0282981
0.0290369
0.0290949
0.0281037
0.0277425
0.0262945
0.0108062
0.010822
0.0108547
0.0109023
0.0109735
0.0110667
0.0111923
0.0113492
0.0115495
0.0117934
0.012093
0.0124532
0.012889
0.0134114
0.0140449
0.0148095
0.0157365
0.0168754
0.0182826
0.0199927
0.0219916
0.0242118
0.0265255
0.0287309
0.0305747
0.0318466
0.0322798
0.0313788
0.030822
0.0288344
0.0106676
0.0106912
0.0107303
0.010783
0.0108578
0.0109531
0.0110799
0.0112377
0.0114393
0.0116859
0.0119905
0.0123595
0.0128083
0.0133482
0.0140045
0.0147975
0.0157612
0.016948
0.0184218
0.0202253
0.0223587
0.0247693
0.0273488
0.0299043
0.0321701
0.0338829
0.0346492
0.0338691
0.033228
0.0307873
0.0104973
0.0105252
0.0105684
0.0106258
0.0107051
0.0108049
0.0109353
0.0110962
0.0113002
0.0115494
0.0118572
0.0122313
0.0126877
0.0132383
0.0139083
0.0147182
0.0157019
0.0169159
0.0184264
0.0202824
0.0224921
0.0250152
0.0277615
0.0305544
0.0331302
0.0351953
0.0362591
0.0356387
0.0350075
0.0322716
0.010256
0.0102983
0.0103539
0.0104215
0.0105088
0.0106148
0.0107495
0.0109134
0.011119
0.0113691
0.0116776
0.0120532
0.0125123
0.013067
0.0137428
0.0145593
0.0155514
0.0167755
0.0183008
0.0201806
0.0224274
0.0250123
0.0278585
0.0308089
0.0336081
0.035952
0.0372759
0.0368406
0.036315
0.0334371
0.00997868
0.0100263
0.0100868
0.01016
0.0102527
0.010364
0.0105028
0.0106697
0.0108768
0.0111271
0.0114348
0.0118094
0.0122671
0.0128208
0.013496
0.0143119
0.0153029
0.0165269
0.0180545
0.0199408
0.022201
0.0248137
0.0277156
0.0307704
0.0337377
0.0363148
0.0378822
0.0376605
0.0372912
0.0343853
0.00961002
0.00967168
0.00974416
0.00982692
0.00992702
0.0100437
0.0101862
0.010355
0.0105624
0.0108115
0.0111163
0.0114871
0.01194
0.0124883
0.0131581
0.0139682
0.0149531
0.0161706
0.0176938
0.0195784
0.0218441
0.0244725
0.0274142
0.030549
0.0336549
0.0364366
0.0382318
0.0382359
0.0380721
0.0352143
0.00919493
0.00926081
0.00933681
0.0094237
0.00952737
0.00964713
0.00979124
0.00996031
0.0101659
0.0104115
0.010711
0.0110753
0.0115205
0.0120602
0.0127211
0.0135223
0.0144971
0.0157061
0.017223
0.0191057
0.0213745
0.0240153
0.0269902
0.0301967
0.0334317
0.0364096
0.0384349
0.0386811
0.0387353
0.0359666
0.00868224
0.00875874
0.00884308
0.00893553
0.00904258
0.00916385
0.00930757
0.00947478
0.00967667
0.00991686
0.0102092
0.0105649
0.0110001
0.0115287
0.0121784
0.0129681
0.0139319
0.0151311
0.016642
0.0185262
0.0208041
0.0234672
0.0264843
0.0297701
0.0331371
0.0363111
0.0385653
0.0390579
0.0393519
0.0366941
0.00810363
0.00817981
0.00826334
0.008356
0.00846294
0.00858353
0.00872542
0.00888912
0.00908581
0.00931893
0.00960256
0.00994803
0.0103716
0.0108873
0.0115238
0.0123007
0.0132521
0.0144421
0.0159508
0.0178411
0.0201351
0.0228278
0.025897
0.0292738
0.0327851
0.0361668
0.0386621
0.0394136
0.0399426
0.0374019
0.00740206
0.00748509
0.00757371
0.00766868
0.00777605
0.00789539
0.00803438
0.00819392
0.00838471
0.00861023
0.00888421
0.00921837
0.00962887
0.0101301
0.010752
0.0115149
0.012454
0.0136354
0.015144
0.0170458
0.0193671
0.022104
0.0252443
0.02873
0.0324026
0.0360046
0.0387485
0.0397624
0.0405404
0.0381188
0.00662307
0.00670397
0.00678978
0.00688291
0.00698781
0.00710383
0.00723808
0.00739099
0.00757333
0.00778845
0.00805037
0.00837113
0.00876694
0.00925224
0.00985818
0.0106062
0.0115318
0.0127057
0.0142171
0.0161365
0.0184919
0.0212832
0.0245076
0.0281202
0.0319745
0.0358162
0.0388276
0.0401171
0.0411378
0.0388329
0.00572182
0.00580587
0.00589293
0.00598436
0.00608573
0.00619667
0.00632423
0.00646931
0.00664209
0.00684602
0.00709482
0.00740099
0.00778078
0.00824892
0.00883766
0.00956935
0.0104811
0.0116473
0.0131627
0.0151049
0.0175038
0.0203655
0.0236927
0.0274536
0.0315099
0.0356097
0.0389015
0.0404734
0.0417525
0.0395654
0.00472523
0.00480309
0.00488371
0.0049701
0.00506618
0.00517091
0.00529107
0.00542662
0.00558827
0.00577906
0.00601319
0.00630327
0.00666576
0.00711551
0.00768577
0.0083997
0.00929603
0.0104539
0.0119761
0.0139444
0.0163929
0.0193325
0.0227754
0.0267029
0.0309841
0.0353653
0.0389597
0.0408315
0.042366
0.0402963
0.00358691
0.00366472
0.00374399
0.00382616
0.00391668
0.00401448
0.00412647
0.00425283
0.00440364
0.00458173
0.00480094
0.00507419
0.0054182
0.00584814
0.00639826
0.00709248
0.00797185
0.00912034
0.0106486
0.0126456
0.0151523
0.0181825
0.0217598
0.0258739
0.0304019
0.0350854
0.0389999
0.0411823
0.0429925
0.0410454
0.00234683
0.00241781
0.00248989
0.00256615
0.00265011
0.00274018
0.00284281
0.00295748
0.00309462
0.00325679
0.00345821
0.00371209
0.00403547
0.0044437
0.00497155
0.00564369
0.00650289
0.00764025
0.00917456
0.0112027
0.01377
0.0168973
0.0206198
0.0249391
0.0297377
0.0347485
0.0390084
0.0415222
0.0436097
0.0417908
0.00097796
0.00104648
0.00111446
0.00118356
0.00125889
0.00133893
0.0014301
0.00153212
0.00165468
0.00180016
0.00198239
0.00221501
0.00251556
0.00289972
0.00340249
0.00404899
0.00488513
0.00600817
0.00754563
0.00960589
0.0122394
0.0154765
0.0193603
0.0239051
0.0289959
0.0343572
0.0389834
0.0418433
0.0442327
0.0425542
-0.000494952
-0.000436939
-0.000379487
-0.000319296
-0.000253297
-0.000183908
-0.000104999
-1.79449e-05
8.75385e-05
0.000213318
0.000373635
0.000582203
0.000857028
0.00121401
0.00168816
0.00230504
0.00311344
0.00421774
0.00575756
0.0078489
0.0105504
0.0139006
0.0179566
0.0227452
0.0281535
0.0338915
0.0389107
0.0421412
0.0448379
0.0433128
-0.00210385
-0.00205065
-0.0019994
-0.00194855
-0.00189327
-0.00183609
-0.0017709
-0.00169898
-0.00161097
-0.0015054
-0.00136857
-0.00118653
-0.000940613
-0.00061471
-0.000173652
0.000408446
0.00118402
0.00226479
0.00380172
0.00592258
0.00869678
0.0121702
0.0164152
0.0214671
0.0272153
0.0333548
0.0387912
0.0424095
0.0454424
0.0440892
-0.00380708
-0.00376503
-0.00372543
-0.00368501
-0.00364131
-0.00359751
-0.00354811
-0.00349515
-0.00342903
-0.00334865
-0.00324013
-0.00308931
-0.00287708
-0.0025871
-0.00218469
-0.00164326
-0.000907705
0.000143551
0.00167328
0.00382193
0.00666734
0.0102678
0.0147117
0.0200467
0.0261611
0.0327295
0.0386108
0.0426433
0.046022
0.0448594
-0.00562504
-0.00558992
-0.00555936
-0.00553147
-0.00550233
-0.00547497
-0.00544429
-0.0054121
-0.00536999
-0.00531715
-0.00524036
-0.00512514
-0.00495166
-0.00470347
-0.00434601
-0.003853
-0.00316389
-0.00215045
-0.00063533
0.00153781
0.00445699
0.00819508
0.0128536
0.0184923
0.0249958
0.0320194
0.0383723
0.0428388
0.0465953
0.0456468
-0.00752893
-0.00750915
-0.00749442
-0.00748107
-0.00746768
-0.00745826
-0.00744834
-0.00744082
-0.00742701
-0.00740668
-0.00736666
-0.00729239
-0.00716366
-0.00696327
-0.00665845
-0.00622064
-0.00558822
-0.00462188
-0.00312856
-0.000935894
0.00205613
0.00593376
0.0108186
0.0167816
0.0237027
0.0312091
0.0380611
0.0429901
0.0471372
0.0464265
-0.00955617
-0.00954549
-0.00954188
-0.00954346
-0.00954729
-0.00955749
-0.00957004
-0.00958781
-0.00960356
-0.0096177
-0.00961775
-0.00958938
-0.00951069
-0.00936578
-0.00912016
-0.00874831
-0.00818107
-0.00727825
-0.00581395
-0.00360642
-0.000539518
0.00348694
0.00861493
0.0149233
0.0222853
0.0303026
0.0376824
0.0430947
0.0476683
0.0472232
-0.01166
-0.0116654
-0.0116789
-0.0116967
-0.011719
-0.0117505
-0.0117884
-0.0118362
-0.0118871
-0.0119416
-0.0119882
-0.0120118
-0.0119912
-0.0119082
-0.0117336
-0.0114352
-0.010959
-0.0101193
-0.00869548
-0.00647669
-0.00333924
0.000838788
0.00622133
0.0128983
0.0207304
0.0292864
0.037221
0.0431462
0.0481627
0.0480123
-0.013869
-0.0138855
-0.0139127
-0.0139484
-0.0139915
-0.0140468
-0.0141124
-0.0141916
-0.0142797
-0.0143778
-0.0144751
-0.0145577
-0.014602
-0.0145943
-0.0144999
-0.0143059
-0.0139141
-0.0131561
-0.0117729
-0.00954978
-0.00634431
-0.00200671
0.00364682
0.0107137
0.0190403
0.0281634
0.0366829
0.0431437
0.0486425
0.0488198
-0.0161431
-0.0161795
-0.0162276
-0.0162829
-0.0163482
-0.0164286
-0.0165244
-0.0166394
-0.0167701
-0.0169174
-0.0170736
-0.0172235
-0.0173469
-0.017427
-0.0174408
-0.0173481
-0.017063
-0.0163797
-0.0150419
-0.0128267
-0.00956107
-0.00506451
0.000873297
0.00835392
0.0172057
0.0269222
0.0360519
0.0430796
0.049081
0.049621
-0.0185038
-0.018554
-0.0186189
-0.0186952
-0.0187858
-0.0188949
-0.0190249
-0.0191788
-0.0193564
-0.0195593
-0.0197817
-0.0200101
-0.0202249
-0.0204121
-0.0205405
-0.0205719
-0.0203879
-0.0197851
-0.0185079
-0.0163131
-0.0129918
-0.00832937
-0.00209111
0.0058253
0.0152258
0.0255647
0.0353358
0.042954
0.0495017
0.0504434
-0.0208704
-0.0209458
-0.0210406
-0.0211468
-0.0212711
-0.0214172
-0.0215898
-0.021792
-0.0220259
-0.0222933
-0.0225919
-0.022909
-0.0232278
-0.0235337
-0.0237962
-0.0239537
-0.0238847
-0.0233782
-0.0221739
-0.0200121
-0.0166441
-0.0118139
-0.00526179
0.00311665
0.013096
0.0240816
0.0345169
0.0427586
0.0498778
0.0512626
-0.0233654
-0.023457
-0.0235678
-0.0236969
-0.0238476
-0.0240271
-0.0242393
-0.0244893
-0.024781
-0.0251182
-0.0254997
-0.025915
-0.0263475
-0.0267851
-0.0271887
-0.0274929
-0.0275532
-0.0271594
-0.0260517
-0.0239348
-0.020521
-0.0155142
-0.00863061
0.000231306
0.0108131
0.0224729
0.0336037
0.042495
0.0502341
0.0521071
-0.0259228
-0.0260354
-0.0261691
-0.0263197
-0.0264969
-0.0267084
-0.0269619
-0.0272632
-0.027618
-0.0280309
-0.0285031
-0.029025
-0.0295816
-0.0301597
-0.0307228
-0.031183
-0.0313962
-0.0311445
-0.0301438
-0.0280836
-0.0246279
-0.0194411
-0.0122083
-0.0028362
0.00837806
0.0207319
0.032578
0.042154
0.050544
0.0529532
-0.0285108
-0.0286506
-0.0288147
-0.0290008
-0.0292164
-0.0294703
-0.0297716
-0.0301279
-0.0305488
-0.0310411
-0.0316084
-0.0322438
-0.0329318
-0.0336624
-0.0343915
-0.0350339
-0.0354221
-0.0353261
-0.0344615
-0.0324672
-0.0289685
-0.0235893
-0.0159891
-0.00608411
0.00578299
0.0188571
0.0314495
0.0417383
0.0508345
0.0538309
-0.0312636
-0.031418
-0.031596
-0.0317999
-0.0320382
-0.0323254
-0.0326692
-0.0330809
-0.0335695
-0.034145
-0.0348126
-0.0355678
-0.0363965
-0.0372882
-0.0382052
-0.0390406
-0.0396265
-0.039722
-0.0390004
-0.0370818
-0.0335438
-0.0279641
-0.0199774
-0.00951091
0.00303539
0.0168443
0.030199
0.0412388
0.0510793
0.0547175
-0.034087
-0.0342661
-0.0344685
-0.0346973
-0.0349632
-0.0352813
-0.035664
-0.0361246
-0.0366772
-0.0373351
-0.038106
-0.0389883
-0.0399672
-0.0410355
-0.0421491
-0.0432074
-0.044016
-0.044313
-0.0437656
-0.0419341
-0.038353
-0.0325601
-0.0241665
-0.0131192
0.000124311
0.0146899
0.0288364
0.0406598
0.0513074
0.0556443
-0.0368872
-0.0370886
-0.0373153
-0.0375719
-0.0378711
-0.0382312
-0.0386654
-0.0391898
-0.0398202
-0.0405731
-0.0414601
-0.0424824
-0.0436271
-0.0448866
-0.0462253
-0.047519
-0.0485752
-0.0491139
-0.0487453
-0.0470116
-0.0433891
-0.0373751
-0.0285527
-0.0168984
-0.00293585
0.012392
0.0273426
0.0399926
0.051494
0.0565897
-0.0396174
-0.0398528
-0.0401172
-0.0404144
-0.0407588
-0.0411689
-0.0416621
-0.0422562
-0.042973
-0.0438318
-0.0448482
-0.046027
-0.0473551
-0.0488291
-0.0504058
-0.0519727
-0.0533043
-0.0540906
-0.0539395
-0.0523141
-0.0486492
-0.0423992
-0.0331311
-0.0208525
-0.00616152
0.0099453
0.0257286
0.0392425
0.0516703
0.0575863
-0.0423021
-0.0425641
-0.042859
-0.0431929
-0.0435821
-0.044049
-0.0446108
-0.0452886
-0.0461052
-0.0470842
-0.0482453
-0.0495973
-0.0511293
-0.0528368
-0.0546877
-0.0565423
-0.0581752
-0.0592589
-0.0593265
-0.057821
-0.0541168
-0.0476211
-0.0378873
-0.0249612
-0.00953065
0.00735048
0.0239748
0.0384026
0.0518133
0.058614
-0.044932
-0.0452296
-0.0455634
-0.0459396
-0.0463769
-0.0468985
-0.0475272
-0.0482861
-0.0492049
-0.0503112
-0.0516284
-0.0531705
-0.0549259
-0.0568942
-0.0590347
-0.06122
-0.0631871
-0.0645721
-0.0649016
-0.0635307
-0.0597837
-0.0530305
-0.0428146
-0.0292341
-0.0130629
0.00459995
0.0220922
0.0374804
0.0519569
0.059707
-0.0474671
-0.0477904
-0.0481545
-0.0485681
-0.049053
-0.0496364
-0.0503419
-0.0511962
-0.0522313
-0.0534793
-0.054969
-0.056719
-0.0587202
-0.0609715
-0.0634426
-0.0659742
-0.0683056
-0.0700472
-0.070638
-0.0694131
-0.0656244
-0.058605
-0.0478882
-0.0336394
-0.0167288
0.00169651
0.0200634
0.036471
0.0520808
0.0608461
-0.0498751
-0.0502349
-0.0506396
-0.0510984
-0.0516363
-0.0522815
-0.0530641
-0.0540135
-0.0551694
-0.0565685
-0.0582441
-0.0602207
-0.0624894
-0.0650529
-0.0678705
-0.0707984
-0.0735283
-0.0756259
-0.0765291
-0.0754616
-0.0716304
-0.0643305
-0.0531049
-0.038189
-0.0205548
-0.00136913
0.0179
0.0353842
0.0522221
0.0620666
-0.0521663
-0.0525514
-0.0529863
-0.0534835
-0.0540712
-0.0547832
-0.0556503
-0.0567063
-0.0579941
-0.0595564
-0.0614325
-0.063653
-0.0662115
-0.0691095
-0.0723182
-0.0756561
-0.078814
-0.081332
-0.0825399
-0.0816398
-0.0777661
-0.070175
-0.0584271
-0.0428408
-0.0245039
-0.00459111
0.0155863
0.0342193
0.0523638
0.0633501
-0.0543217
-0.0547435
-0.0552182
-0.0557589
-0.0563982
-0.0571715
-0.0581176
-0.0592744
-0.0606939
-0.062425
-0.0645126
-0.0669944
-0.0698642
-0.0731268
-0.0767419
-0.0805418
-0.0841641
-0.0870974
-0.0886626
-0.0879431
-0.0840191
-0.0761264
-0.0638515
-0.047615
-0.0286068
-0.0079813
0.0131343
0.0329898
0.052546
0.0647335
-0.0562825
-0.0567297
-0.0572352
-0.0578157
-0.0585077
-0.0593518
-0.0603888
-0.0616616
-0.0632271
-0.0651411
-0.0674567
-0.0702186
-0.0734234
-0.0770745
-0.0811423
-0.0854164
-0.0895359
-0.0929503
-0.0948596
-0.0943252
-0.0903453
-0.0821406
-0.0693308
-0.0524579
-0.0328202
-0.0115318
0.0105335
0.0316991
0.052756
0.0661987
-0.0580287
-0.0585127
-0.0590593
-0.0596864
-0.0604347
-0.0613473
-0.0624736
-0.0638612
-0.0655768
-0.0676836
-0.0702412
-0.0733032
-0.0768667
-0.0809374
-0.0854725
-0.0902787
-0.0949289
-0.0988117
-0.101123
-0.100778
-0.0967358
-0.0882039
-0.0748682
-0.0573944
-0.0371833
-0.0152568
0.00779659
0.030365
0.0530373
0.0677839
-0.0595673
-0.0600744
-0.0606502
-0.0613164
-0.0621183
-0.0631055
-0.0643291
-0.0658429
-0.0677195
-0.0700307
-0.0728453
-0.0762257
-0.0801716
-0.0846855
-0.0897368
-0.0950841
-0.100295
-0.104719
-0.107406
-0.10725
-0.103134
-0.094263
-0.0804041
-0.062363
-0.0416474
-0.0191446
0.00491809
0.0289975
0.0533811
0.0694702
-0.0608778
-0.061421
-0.0620358
-0.0627459
-0.0636017
-0.0646562
-0.0659703
-0.0676042
-0.0696416
-0.0721639
-0.0752472
-0.0789648
-0.0833174
-0.0883066
-0.0938876
-0.0998332
-0.105639
-0.110583
-0.113701
-0.113736
-0.109529
-0.10031
-0.0859446
-0.0674006
-0.0462575
-0.0232123
0.00191268
0.0276199
0.0538346
0.0712974
-0.0619024
-0.0624676
-0.0631111
-0.063861
-0.0647724
-0.0659048
-0.0673219
-0.069091
-0.0713034
-0.0740504
-0.0774193
-0.0814943
-0.0862793
-0.0917709
-0.0979305
-0.10448
-0.110912
-0.116445
-0.119959
-0.120174
-0.115857
-0.106279
-0.0914237
-0.0724369
-0.0509613
-0.0274451
-0.00121586
0.0262491
0.0543934
0.0732452
-0.0626105
-0.0632114
-0.0638951
-0.0646917
-0.0656618
-0.0668691
-0.0683875
-0.0702914
-0.072684
-0.0756672
-0.0793372
-0.083791
-0.0890343
-0.0950601
-0.101812
-0.109028
-0.116115
-0.122207
-0.126172
-0.126558
-0.122113
-0.112165
-0.0968583
-0.0775179
-0.0558135
-0.0318614
-0.00445065
0.0249148
0.0551076
0.0753537
-0.0630047
-0.0636271
-0.0643396
-0.065177
-0.0662054
-0.0674957
-0.0691253
-0.0711763
-0.0737612
-0.0769932
-0.080981
-0.0858335
-0.0915593
-0.0981425
-0.105535
-0.113423
-0.121195
-0.127918
-0.132283
-0.132817
-0.128219
-0.117894
-0.102174
-0.0825698
-0.0607588
-0.0364404
-0.00777785
0.0236423
0.0559765
0.0776003
-0.0630728
-0.063729
-0.064479
-0.0653606
-0.0664463
-0.0678122
-0.0695471
-0.0717419
-0.0745216
-0.0780121
-0.0823314
-0.0876017
-0.0938323
-0.101002
-0.109049
-0.117671
-0.126155
-0.133472
-0.138284
-0.138955
-0.134175
-0.123473
-0.107394
-0.0876544
-0.0658592
-0.0412015
-0.0111761
0.022469
0.0570523
0.0800246
-0.06275
-0.0634276
-0.0642075
-0.0651323
-0.0662811
-0.0677363
-0.0695922
-0.0719471
-0.0749372
-0.0787004
-0.0833671
-0.0890743
-0.0958331
-0.103616
-0.112377
-0.121732
-0.130947
-0.138919
-0.144117
-0.144889
-0.139892
-0.128816
-0.112445
-0.092694
-0.0710569
-0.0461173
-0.0146167
0.0214284
0.0583381
0.0826008
-0.0620223
-0.0627348
-0.0635582
-0.0645353
-0.0657536
-0.0672986
-0.0692768
-0.0717943
-0.0749999
-0.0790461
-0.0840766
-0.0902459
-0.0975641
-0.106017
-0.11549
-0.125615
-0.135571
-0.144141
-0.149774
-0.15062
-0.145385
-0.13394
-0.117368
-0.0977638
-0.0764229
-0.0512057
-0.0180733
0.020565
0.0598863
0.0853659
-0.0609386
-0.0616781
-0.0625383
-0.0635643
-0.0648514
-0.0664911
-0.0685957
-0.0712795
-0.0747066
-0.0790462
-0.0844611
-0.0911236
-0.0990573
-0.10818
-0.118401
-0.129282
-0.139967
-0.149198
-0.155187
-0.156064
-0.150552
-0.138759
-0.122085
-0.102788
-0.0818967
-0.0564276
-0.0215018
0.0199216
0.0617019
0.088291
-0.0595429
-0.0603182
-0.0612165
-0.0622842
-0.0636267
-0.0653413
-0.0675564
-0.0703972
-0.0740447
-0.0786874
-0.0845074
-0.0916995
-0.100256
-0.110101
-0.121062
-0.132704
-0.14414
-0.153973
-0.160356
-0.161235
-0.155419
-0.143307
-0.126653
-0.107858
-0.0875541
-0.0617979
-0.0248677
0.0195501
0.0638364
0.0914096
-0.0577295
-0.0585134
-0.0594283
-0.0605298
-0.0619284
-0.0637304
-0.0660701
-0.069083
-0.0729661
-0.077928
-0.0841727
-0.091913
-0.101145
-0.111707
-0.123438
-0.13586
-0.148054
-0.15854
-0.165221
-0.16604
-0.15988
-0.147495
-0.131003
-0.1129
-0.09333
-0.0672638
-0.0281073
0.0194998
0.0662958
0.0946885
-0.0552298
-0.0560664
-0.0570445
-0.0582186
-0.0597046
-0.0616149
-0.0640979
-0.067301
-0.0714381
-0.0767389
-0.0834296
-0.0917456
-0.101653
-0.112991
-0.125511
-0.138747
-0.151721
-0.162785
-0.169791
-0.170502
-0.163985
-0.151374
-0.135211
-0.118019
-0.0993026
-0.0728317
-0.0311785
0.0198288
0.0691282
0.0981567
-0.0524601
-0.0533009
-0.0542926
-0.0555016
-0.0570489
-0.0590573
-0.0616798
-0.0650751
-0.0694719
-0.0751204
-0.0822677
-0.0911702
-0.101801
-0.113917
-0.127278
-0.141358
-0.155115
-0.166798
-0.174003
-0.174534
-0.167621
-0.154865
-0.139218
-0.123145
-0.1054
-0.0784293
-0.0339989
0.0205924
0.072337
0.101777
-0.0491421
-0.0500264
-0.0510702
-0.0523392
-0.0539625
-0.0560708
-0.0588322
-0.0624192
-0.0670782
-0.0730804
-0.0806954
-0.0902029
-0.101554
-0.114509
-0.128738
-0.143696
-0.158249
-0.170462
-0.177875
-0.178173
-0.170857
-0.158044
-0.143118
-0.128397
-0.111695
-0.0840525
-0.0365162
0.0218517
0.075965
0.105575
-0.0456241
-0.0464949
-0.047531
-0.0488138
-0.0504786
-0.0526687
-0.0555582
-0.0593329
-0.0642552
-0.0706176
-0.0787093
-0.0888345
-0.100953
-0.11475
-0.129897
-0.145758
-0.161103
-0.173867
-0.181347
-0.18133
-0.173583
-0.16084
-0.146865
-0.133703
-0.118105
-0.089607
-0.0386279
0.0236635
0.080012
0.109508
-0.0414638
-0.0423694
-0.0434464
-0.0447779
-0.0465087
-0.0487921
-0.0518183
-0.0557888
-0.0609845
-0.0677202
-0.076308
-0.0870759
-0.0999671
-0.114672
-0.130758
-0.147548
-0.163683
-0.176895
-0.184446
-0.184049
-0.175899
-0.16335
-0.150576
-0.139189
-0.124693
-0.0950729
-0.040275
0.0260885
0.084512
0.113595
-0.036943
-0.0378407
-0.0389169
-0.0402698
-0.0420501
-0.044424
-0.0475894
-0.0517628
-0.0572438
-0.0643705
-0.0734748
-0.0849121
-0.0986314
-0.11425
-0.131326
-0.149064
-0.165975
-0.179645
-0.187104
-0.186252
-0.177694
-0.165523
-0.154217
-0.144781
-0.131356
-0.100329
-0.0413383
0.0291826
0.0894578
0.117791
-0.0317334
-0.0326641
-0.0337814
-0.0351854
-0.0370372
-0.0395139
-0.04283
-0.04722
-0.0530041
-0.0605446
-0.0701974
-0.0823409
-0.0969082
-0.113515
-0.131605
-0.150309
-0.167984
-0.182
-0.189358
-0.187998
-0.179094
-0.167485
-0.15792
-0.150601
-0.138141
-0.105339
-0.041753
0.0330001
0.0948727
0.12211
-0.0261302
-0.0270431
-0.0281507
-0.0295706
-0.0314708
-0.0340428
-0.0375114
-0.042128
-0.0482338
-0.0562157
-0.066449
-0.0793389
-0.0948189
-0.112434
-0.131599
-0.15129
-0.16971
-0.184062
-0.191151
-0.189214
-0.179999
-0.169199
-0.161661
-0.156564
-0.14492
-0.109956
-0.0413868
0.0375892
0.100741
0.126504
-0.0197254
-0.0206622
-0.0218034
-0.0232719
-0.0252471
-0.0279336
-0.0315739
-0.0364391
-0.042894
-0.0513498
-0.0622068
-0.075891
-0.0923216
-0.111038
-0.131311
-0.152009
-0.171152
-0.185719
-0.192529
-0.189972
-0.18057
-0.170811
-0.165584
-0.162779
-0.151712
-0.114122
-0.0401767
0.042993
0.107072
0.13098
-0.0127408
-0.0136664
-0.014808
-0.0163058
-0.0183477
-0.0211527
-0.0249769
-0.0301109
-0.0369424
-0.0459124
-0.0574404
-0.0719781
-0.0894574
-0.109307
-0.130749
-0.152477
-0.172321
-0.187085
-0.193436
-0.190223
-0.18072
-0.17231
-0.169665
-0.169141
-0.158361
-0.117664
-0.037986
0.0492485
0.113839
0.135489
-0.00488258
-0.00582952
-0.00700744
-0.00856134
-0.0106927
-0.0136349
-0.0176629
-0.0230918
-0.0303392
-0.0398774
-0.0521467
-0.0676419
-0.0862063
-0.107271
-0.129918
-0.15269
-0.173216
-0.188055
-0.193938
-0.190057
-0.18064
-0.173863
-0.17405
-0.17573
-0.164851
-0.120511
-0.0347581
0.0563788
0.121036
0.140035
0.00364267
0.00270906
0.00153095
-5.66087e-05
-0.00226537
-0.00534564
-0.00959102
-0.015344
-0.0230564
-0.0332348
-0.0463493
-0.0628448
-0.0825859
-0.104908
-0.128808
-0.152664
-0.173862
-0.188748
-0.193991
-0.189446
-0.180265
-0.175471
-0.178706
-0.182411
-0.170995
-0.122467
-0.0303601
0.0644033
0.128623
0.144566
0.0131628
0.0122111
0.0109978
0.00934971
0.00703802
0.00379551
-0.000698431
-0.00681594
-0.0150528
-0.0259498
-0.0399628
-0.0575663
-0.0785355
-0.102191
-0.127424
-0.152411
-0.174261
-0.189072
-0.193682
-0.188495
-0.17982
-0.177308
-0.183766
-0.189224
-0.176741
-0.123451
-0.0247546
0.0733214
0.13658
0.149081
0.0235238
0.0225845
0.0213653
0.0196709
0.0172596
0.0138437
0.00907977
0.00256166
-0.00624685
-0.0179243
-0.0329393
-0.0517084
-0.0740117
-0.0991113
-0.125785
-0.151963
-0.174456
-0.189164
-0.192976
-0.18722
-0.17926
-0.179385
-0.189174
-0.195993
-0.181867
-0.123253
-0.0178238
0.0831321
0.144853
0.153527
0.0349985
0.0340508
0.0327993
0.0310369
0.0285019
0.0248877
0.0198211
0.0128634
0.00342932
-0.00909522
-0.025173
-0.0452379
-0.0689933
-0.0956768
-0.12391
-0.151341
-0.174456
-0.188943
-0.19199
-0.185745
-0.178835
-0.181873
-0.19503
-0.202702
-0.186287
-0.121791
-0.00955781
0.0938034
0.153406
0.157901
0.0474631
0.0465327
0.0452745
0.0434592
0.0408048
0.0369834
0.0315943
0.0241616
0.0140562
0.000616379
-0.0166361
-0.0380956
-0.0634656
-0.0918923
-0.121821
-0.150582
-0.174322
-0.188559
-0.190704
-0.184118
-0.17852
-0.184769
-0.201243
-0.209127
-0.189752
-0.118855
0.000135786
0.10531
0.162175
0.16215
0.0610967
0.0601799
0.0589145
0.0570486
0.0542725
0.0502331
0.0444958
0.036549
0.0257097
0.011276
-0.00724336
-0.0302582
-0.0574063
-0.0877511
-0.119527
-0.149706
-0.174056
-0.187941
-0.189264
-0.182479
-0.178582
-0.188212
-0.207863
-0.215192
-0.192144
-0.114376
0.0112263
0.117589
0.171108
0.16627
0.076037
0.0751489
0.0738838
0.071964
0.0690545
0.0647746
0.0586557
0.0501422
0.0385028
0.0229748
0.00305297
-0.0216566
-0.0507808
-0.0832463
-0.117045
-0.148746
-0.173729
-0.187254
-0.187661
-0.18092
-0.178996
-0.192171
-0.214744
-0.22062
-0.1932
-0.108155
0.0237698
0.130592
0.180132
0.17021
0.0924803
0.0916214
0.0903552
0.0883757
0.0853177
0.08077
0.0742235
0.0650812
0.0525483
0.0358165
0.0143526
-0.0122403
-0.0435548
-0.0783656
-0.114375
-0.147712
-0.173341
-0.186434
-0.186072
-0.179592
-0.180026
-0.196728
-0.221872
-0.225274
-0.192782
-0.100152
0.0376894
0.14422
0.189183
0.173967
0.110507
0.109702
0.108452
0.106417
0.103202
0.098361
0.0913442
0.0815025
0.0679856
0.0499119
0.0267393
-0.00193167
-0.0356763
-0.073078
-0.111509
-0.146632
-0.172971
-0.185654
-0.184493
-0.178608
-0.181634
-0.201788
-0.22904
-0.228826
-0.190624
-0.0902008
0.0529983
0.158405
0.198182
0.177493
0.130278
0.129542
0.12832
0.126236
0.122857
0.117701
0.110165
0.0995541
0.08494
0.0653878
0.0403204
0.00934418
-0.0270906
-0.0673436
-0.108426
-0.145508
-0.172608
-0.184848
-0.183126
-0.178118
-0.18405
-0.207344
-0.236155
-0.231091
-0.186592
-0.0783032
0.0695655
0.173018
0.207056
0.180785
0.151883
0.15125
0.150081
0.147965
0.144424
0.138931
0.130836
0.119375
0.103554
0.0823589
0.0551832
0.0216758
-0.017721
-0.0611032
-0.105101
-0.14436
-0.172337
-0.184196
-0.181962
-0.178247
-0.187191
-0.21321
-0.242947
-0.231705
-0.180436
-0.0643395
0.0873581
0.187976
0.215724
0.183798
0.175479
0.174975
0.173886
0.171754
0.168053
0.162207
0.153501
0.141105
0.123942
0.100916
0.0714471
0.0351486
-0.00748863
-0.0542933
-0.101503
-0.143188
-0.172148
-0.18363
-0.181212
-0.179126
-0.191213
-0.219265
-0.249248
-0.230455
-0.172044
-0.0483732
0.106193
0.203124
0.224109
0.186532
0.201159
0.200824
0.19985
0.19773
0.193879
0.18766
0.178293
0.164859
0.146208
0.121197
0.0892131
0.0498657
0.0036967
-0.0468459
-0.0975932
-0.142014
-0.17212
-0.183312
-0.180842
-0.180847
-0.195954
-0.225203
-0.25473
-0.226969
-0.161209
-0.030346
0.125993
0.218371
0.232133
0.188947
0.22906
0.228936
0.228115
0.226038
0.222042
0.215437
0.205344
0.190784
0.170508
0.143331
0.108629
0.0659481
0.0159193
-0.0386923
-0.0933422
-0.140844
-0.172279
-0.183153
-0.181041
-0.183485
-0.201434
-0.230765
-0.259165
-0.22104
-0.147862
-0.0103912
0.146526
0.233548
0.23972
0.191044
0.2593
0.259439
0.25882
0.256821
0.2527
0.245692
0.234838
0.219046
0.197016
0.167477
0.12983
0.0835085
0.0293046
-0.0297165
-0.0886998
-0.139716
-0.172665
-0.18329
-0.181713
-0.18705
-0.207339
-0.235509
-0.262184
-0.212331
-0.131863
0.0114764
0.16768
0.248562
0.246798
0.192787
0.292092
0.292536
0.292159
0.290266
0.286025
0.2786
0.266923
0.249823
0.225869
0.193771
0.152911
0.102641
0.0439891
-0.0197919
-0.0836406
-0.138672
-0.173367
-0.183603
-0.182987
-0.191503
-0.21346
-0.239046
-0.263521
-0.200686
-0.11321
0.0350453
0.189184
0.263236
0.253296
0.19418
0.327483
0.328291
0.328211
0.326463
0.322126
0.314269
0.301732
0.283208
0.257192
0.222283
0.177942
0.123438
0.0601143
-0.00879521
-0.0781324
-0.137745
-0.17437
-0.18419
-0.184703
-0.196679
-0.219188
-0.240811
-0.262797
-0.185851
-0.091851
0.0602249
0.210902
0.277487
0.259155
0.195193
0.365533
0.366777
0.367057
0.36551
0.361096
0.352801
0.339338
0.319301
0.291017
0.253071
0.20494
0.145952
0.0777836
0.00333243
-0.072213
-0.137055
-0.175827
-0.184946
-0.18693
-0.202327
-0.223831
-0.240312
-0.259741
-0.167783
-0.0678758
0.0867292
0.232541
0.291139
0.264314
0.195834
0.406229
0.407993
0.408719
0.407434
0.402983
0.394237
0.379806
0.358117
0.327402
0.286107
0.233867
0.170175
0.0970308
0.0166128
-0.0658879
-0.136589
-0.17764
-0.18602
-0.18963
-0.20751
-0.226002
-0.236887
-0.253991
-0.146374
-0.0413357
0.114393
0.253957
0.304128
0.268728
0.19606
0.449612
0.451977
0.453229
0.452276
0.447816
0.438616
0.42314
0.399688
0.366301
0.321371
0.264625
0.195998
0.117721
0.030912
-0.0593037
-0.136478
-0.17999
-0.187371
-0.192157
-0.210777
-0.22486
-0.230087
-0.245304
-0.121736
-0.0124346
0.142862
0.274853
0.316287
0.272344
0.19585
0.495653
0.498707
0.500571
0.500017
0.49559
0.485919
0.469333
0.443955
0.407659
0.358762
0.297158
0.223398
0.139711
0.0460564
-0.0524764
-0.136566
-0.182631
-0.188008
-0.19318
-0.211335
-0.221528
-0.219853
-0.233436
-0.0939509
0.018667
0.17191
0.295089
0.32757
0.275135
0.195143
0.544312
0.548142
0.550705
0.550625
0.546263
0.536101
0.518312
0.490804
0.451327
0.398101
0.331346
0.252396
0.162914
0.0617441
-0.0457551
-0.137332
-0.185535
-0.184286
-0.192533
-0.210403
-0.218528
-0.207036
-0.218417
-0.0633137
0.0516545
0.201148
0.314391
0.337824
0.277062
0.193944
0.595466
0.600166
0.603528
0.604001
0.599739
0.589053
0.56994
0.540111
0.497094
0.439168
0.366994
0.282904
0.187148
0.0777082
-0.0393566
-0.138744
-0.185566
-0.17565
-0.191114
-0.208788
-0.217209
-0.192494
-0.20019
-0.0300954
0.0862074
0.230311
0.332652
0.347026
0.278138
0.192259
0.648995
0.654666
0.658919
0.660029
0.655892
0.644657
0.624108
0.591717
0.544725
0.481619
0.403879
0.31477
0.212032
0.0934466
-0.0337818
-0.140026
-0.175496
-0.167488
-0.18949
-0.205343
-0.216729
-0.176561
-0.178421
0.00529836
0.121778
0.258975
0.349632
0.355051
0.278402
0.190122
0.704754