/*--------------------------------*- C++ -*----------------------------------*\
  =========                 |
  \\      /  F ield         | OpenFOAM: The Open Source CFD Toolbox
   \\    /   O peration     | Website:  https://openfoam.org
    \\  /    A nd           | Version:  6.0
     \\/     M anipulation  |
\*---------------------------------------------------------------------------*/
FoamFile
{
    version     2.0;
    format      ascii;
    class       volVectorField;
    location    "9";
    object      U;
}
// * * * * * * * * * * * * * * * * * * * * * * * * * * * * * * * * * * * * * //

dimensions      [0 1 -1 0 0 0 0];

internalField   nonuniform List<vector> 
15500
(
(0.996187 0.0876666 -9.26941e-21)
(0.996186 0.0876424 1.054e-21)
(0.996186 0.0876263 2.20768e-20)
(0.996185 0.0876122 5.78682e-20)
(0.996185 0.0876019 -1.08755e-19)
(0.996185 0.0875921 -2.08767e-20)
(0.996185 0.0875853 1.56405e-19)
(0.996185 0.0875786 1.25402e-20)
(0.996184 0.0875751 5.88817e-21)
(0.996182 0.087572 -1.26999e-19)
(0.996179 0.0875716 3.46836e-19)
(0.996176 0.0875721 -2.55349e-19)
(0.99617 0.0875784 -1.82563e-20)
(0.996162 0.0875892 -2.5467e-19)
(0.99615 0.0876028 1.62679e-19)
(0.996133 0.0876148 -2.61435e-19)
(0.996108 0.0876226 6.36152e-19)
(0.99607 0.0876213 -8.65394e-19)
(0.996015 0.0876043 3.72769e-19)
(0.995938 0.0875562 -1.3134e-18)
(0.995838 0.0874576 1.59286e-18)
(0.995708 0.0872917 4.40108e-19)
(0.995536 0.0870467 -2.91437e-19)
(0.995301 0.0867067 -3.92721e-18)
(0.994975 0.0862288 7.3365e-18)
(0.994534 0.0854892 3.61958e-18)
(0.994003 0.0842121 -3.70652e-18)
(0.993488 0.0820401 -4.45476e-18)
(0.993416 0.0776585 -7.46463e-18)
(0.984054 0.0662829 9.28583e-18)
(0.996155 0.0886943 -1.09477e-20)
(0.996143 0.088657 3.6299e-20)
(0.996133 0.088612 -1.06465e-20)
(0.996126 0.0885767 3.91665e-20)
(0.996122 0.088548 -1.30438e-19)
(0.996119 0.0885211 -1.00318e-19)
(0.996119 0.0884997 2.64827e-20)
(0.996119 0.0884783 -1.47062e-19)
(0.99612 0.0884625 2.65565e-19)
(0.99612 0.088445 -9.34097e-20)
(0.996119 0.0884329 8.50771e-20)
(0.996114 0.0884189 1.67791e-19)
(0.996103 0.0884118 -7.58535e-20)
(0.996082 0.0883993 4.42326e-20)
(0.996054 0.0883847 -6.06921e-20)
(0.996017 0.0883586 -1.83295e-19)
(0.99597 0.0883146 4.57307e-19)
(0.995903 0.0882418 -6.51727e-20)
(0.995801 0.0881334 9.23836e-19)
(0.995667 0.087975 1.80821e-18)
(0.995509 0.0877496 -1.51535e-18)
(0.995324 0.0874549 9.16735e-19)
(0.995083 0.0870996 -1.54642e-18)
(0.994731 0.0866712 -4.60657e-19)
(0.994188 0.0860612 -5.09695e-18)
(0.9934 0.0849421 -4.47304e-19)
(0.992441 0.0827307 2.15063e-19)
(0.991413 0.0788361 1.88103e-18)
(0.992075 0.0710664 1.8005e-17)
(0.982856 0.0572427 4.96987e-19)
(0.996174 0.0891517 2.94881e-20)
(0.996156 0.089163 -2.82942e-20)
(0.996138 0.0891376 -1.75215e-20)
(0.996121 0.0891179 -5.38951e-20)
(0.996106 0.0891029 1.07586e-19)
(0.996091 0.0890877 -1.54763e-19)
(0.996079 0.0890766 9.55028e-20)
(0.996068 0.0890633 7.40162e-20)
(0.996058 0.0890556 -4.30192e-20)
(0.996047 0.0890406 -1.46172e-19)
(0.996036 0.0890313 5.53098e-20)
(0.996019 0.0890098 2.09838e-19)
(0.995996 0.088987 -1.05854e-19)
(0.995958 0.0889385 1.20363e-19)
(0.995917 0.0888798 -2.59683e-19)
(0.995868 0.0888007 4.0171e-19)
(0.995818 0.0886953 -6.67647e-19)
(0.995756 0.0885532 5.4496e-19)
(0.995667 0.0883766 -1.1164e-18)
(0.995561 0.0881667 8.4347e-19)
(0.995461 0.0879283 8.70213e-19)
(0.995377 0.0876858 -1.09034e-18)
(0.995288 0.0874764 2.6465e-18)
(0.995134 0.087308 -3.01676e-19)
(0.994826 0.0870642 -3.2828e-18)
(0.994302 0.0863698 -4.61038e-18)
(0.993632 0.084609 -7.74271e-18)
(0.992644 0.0812648 3.1666e-18)
(0.994016 0.0742158 -1.18852e-17)
(0.989773 0.0656573 -1.27259e-17)
(0.996242 0.0894387 -1.05112e-20)
(0.996233 0.0894972 4.50499e-20)
(0.996217 0.0895153 -2.01614e-20)
(0.996195 0.0895262 -1.57358e-20)
(0.996169 0.0895397 -3.91572e-20)
(0.996139 0.0895482 -1.28776e-19)
(0.996108 0.0895561 9.73342e-20)
(0.996075 0.0895583 8.72098e-20)
(0.99604 0.0895632 -4.40176e-20)
(0.996002 0.0895559 6.87603e-20)
(0.995962 0.089554 -3.27645e-20)
(0.995915 0.0895308 2.47693e-20)
(0.995862 0.0895011 -2.22355e-20)
(0.995795 0.0894296 1.86556e-21)
(0.995727 0.0893437 -3.48284e-19)
(0.995655 0.0892339 7.38854e-19)
(0.995586 0.0890943 -6.79944e-19)
(0.995513 0.0889162 2.52668e-19)
(0.99542 0.0887049 1.14312e-18)
(0.99532 0.0884691 -1.11584e-18)
(0.995242 0.0882229 -4.85676e-19)
(0.99521 0.0880018 1.58224e-18)
(0.995219 0.0878523 -1.10514e-18)
(0.995226 0.087792 -1.07888e-18)
(0.995159 0.0877138 9.96639e-18)
(0.994967 0.0872596 4.34384e-18)
(0.994708 0.0858641 4.56414e-18)
(0.993908 0.0830598 -3.33074e-18)
(0.995572 0.0768842 4.46388e-18)
(0.994329 0.0694161 4.92007e-18)
(0.996276 0.0900031 -7.42064e-21)
(0.996289 0.0900783 -2.84366e-20)
(0.996285 0.0901227 2.61301e-20)
(0.996269 0.0901497 1.22936e-19)
(0.99624 0.0901758 -1.33516e-19)
(0.996201 0.0901934 -1.7088e-20)
(0.996153 0.0902053 7.91936e-20)
(0.996098 0.0902089 -1.93913e-19)
(0.996035 0.0902122 -1.45882e-19)
(0.995965 0.0902001 4.07413e-19)
(0.995887 0.0901942 -2.34172e-19)
(0.9958 0.0901605 3.12044e-19)
(0.995706 0.0901214 -1.78199e-19)
(0.995599 0.0900318 2.2515e-19)
(0.995492 0.0899278 -3.76606e-20)
(0.995382 0.0897983 -3.74037e-20)
(0.995273 0.0896357 1.5397e-19)
(0.995156 0.0894311 -3.6492e-19)
(0.995017 0.0891865 -1.0858e-18)
(0.994864 0.0889061 4.47188e-19)
(0.994727 0.0885997 -7.8357e-19)
(0.994635 0.0882933 -5.78578e-19)
(0.9946 0.0880215 -1.29499e-19)
(0.994602 0.0877924 8.20427e-18)
(0.994603 0.0875001 -2.82425e-18)
(0.994588 0.0868137 -8.00702e-18)
(0.994632 0.0852406 -5.08111e-18)
(0.994072 0.0823187 1.14706e-18)
(0.995837 0.0762312 -2.4141e-17)
(0.995615 0.066964 -4.94055e-18)
(0.99616 0.0909588 1.52393e-20)
(0.996206 0.0910121 1.86042e-21)
(0.996227 0.0910558 -3.97495e-20)
(0.996229 0.0910795 -1.49424e-20)
(0.996211 0.0911012 -5.03709e-21)
(0.996174 0.0911118 2.52641e-19)
(0.996122 0.0911122 -1.28207e-19)
(0.996053 0.0911007 -6.66562e-21)
(0.995971 0.0910843 -4.3327e-21)
(0.995874 0.0910496 -2.16855e-20)
(0.995764 0.0910204 -1.2645e-19)
(0.99564 0.0909593 1.04517e-19)
(0.995505 0.090898 5.02449e-19)
(0.995357 0.0907834 5.06494e-20)
(0.995207 0.0906568 -8.94698e-20)
(0.995051 0.0905031 -3.78828e-19)
(0.99489 0.0903132 4.45055e-19)
(0.994714 0.0900745 -2.75113e-19)
(0.994506 0.0897817 6.12542e-19)
(0.994269 0.0894303 -9.75722e-20)
(0.994027 0.0890163 1.39638e-18)
(0.993813 0.0885461 -2.17779e-19)
(0.993651 0.0880306 -1.66167e-18)
(0.993546 0.0874563 -9.27252e-18)
(0.993502 0.0867129 -3.90552e-18)
(0.993551 0.0854961 9.17831e-18)
(0.993814 0.0834056 7.37649e-19)
(0.993553 0.0799926 9.49497e-18)
(0.995456 0.0736022 3.10953e-17)
(0.995534 0.0627195 1.2996e-17)
(0.995823 0.0922181 -1.07342e-21)
(0.995906 0.0922451 -2.25865e-20)
(0.995961 0.0922668 -7.59719e-21)
(0.995992 0.0922699 2.10448e-20)
(0.995998 0.0922695 -4.15787e-20)
(0.995978 0.0922572 -4.13874e-20)
(0.995935 0.0922319 7.28977e-20)
(0.995869 0.0921925 1.58697e-19)
(0.995782 0.0921446 -1.50411e-19)
(0.995673 0.0920758 1.85007e-19)
(0.995545 0.0920111 -3.80871e-19)
(0.995396 0.091911 9.44029e-20)
(0.99523 0.0918157 -1.90246e-19)
(0.995047 0.0916679 3.35714e-19)
(0.994859 0.0915106 -1.12094e-19)
(0.994661 0.0913248 -7.33113e-20)
(0.994449 0.0910978 2.6764e-19)
(0.994212 0.0908134 -5.40338e-19)
(0.993934 0.0904588 5.02318e-19)
(0.99361 0.0900179 1.79825e-19)
(0.993263 0.0894707 -1.29666e-18)
(0.992924 0.0888011 -5.63446e-19)
(0.992628 0.0879936 1.63813e-18)
(0.992404 0.0870115 2.46838e-18)
(0.992294 0.0857408 3.17065e-18)
(0.992384 0.0839072 -1.29396e-19)
(0.992837 0.081216 6.1901e-18)
(0.992911 0.0772596 -9.33814e-18)
(0.995043 0.0705448 -2.60262e-17)
(0.995436 0.0590464 -2.75014e-18)
(0.99528 0.0936226 -5.4897e-21)
(0.995393 0.0936147 1.94821e-20)
(0.995479 0.0936099 2.47551e-20)
(0.995542 0.0935899 -2.32835e-20)
(0.995578 0.0935658 -6.25789e-20)
(0.995585 0.093529 -7.88057e-23)
(0.995564 0.0934768 1.76764e-19)
(0.995514 0.0934076 -2.58127e-19)
(0.995436 0.0933256 1.61635e-19)
(0.995332 0.0932196 2.48401e-19)
(0.995201 0.0931144 -3.69549e-19)
(0.995043 0.0929705 -6.02278e-20)
(0.994861 0.0928346 -6.51644e-20)
(0.994655 0.0926482 8.52608e-20)
(0.994438 0.0924538 -3.89537e-19)
(0.994204 0.0922279 4.13324e-19)
(0.993949 0.0919547 9.81585e-20)
(0.993661 0.0916138 -4.06539e-19)
(0.993322 0.0911851 5.34927e-20)
(0.992929 0.0906421 1.67926e-19)
(0.992496 0.0899492 9.12665e-19)
(0.99206 0.08907 -1.10252e-18)
(0.991663 0.0879653 1.74644e-18)
(0.991355 0.0865796 5.03095e-18)
(0.991213 0.0847998 -1.22384e-18)
(0.991366 0.0823844 -1.15786e-17)
(0.992008 0.0791471 -6.68802e-18)
(0.992425 0.0747444 4.03613e-18)
(0.994852 0.0678182 7.58306e-19)
(0.995752 0.0563997 1.07664e-17)
(0.994598 0.0950471 1.05081e-20)
(0.994723 0.0950227 -6.52704e-21)
(0.994831 0.0949921 2.82924e-20)
(0.99492 0.0949477 4.94199e-21)
(0.994984 0.094898 5.2935e-20)
(0.995019 0.0948356 -1.37094e-19)
(0.995024 0.0947565 1.07261e-19)
(0.994998 0.0946591 3.63031e-20)
(0.99494 0.0945461 -1.43514e-19)
(0.994851 0.0944069 1.6072e-20)
(0.994731 0.0942648 3.08557e-19)
(0.994578 0.0940803 -2.8425e-19)
(0.994394 0.0939041 2.11748e-19)
(0.994175 0.0936781 -1.3105e-19)
(0.99394 0.0934434 -5.12317e-20)
(0.993679 0.093172 2.15215e-19)
(0.993391 0.0928441 3.87162e-19)
(0.993062 0.0924368 5.08477e-19)
(0.992677 0.091924 -3.36895e-19)
(0.992232 0.0912696 -8.92969e-19)
(0.99174 0.0904256 -1.24778e-18)
(0.991243 0.089338 -1.24234e-18)
(0.990789 0.0879495 -7.88638e-19)
(0.990448 0.0861922 2.83581e-18)
(0.99032 0.083959 1.65457e-18)
(0.990573 0.0810433 2.5245e-18)
(0.991407 0.0773613 3.30724e-18)
(0.992151 0.072645 -7.77097e-18)
(0.994894 0.0656316 8.20925e-18)
(0.996432 0.0545913 -3.82629e-18)
(0.993848 0.0963967 -1.79958e-20)
(0.993969 0.0963533 3.81568e-20)
(0.994084 0.0963049 -1.42243e-20)
(0.994187 0.096245 -4.94563e-21)
(0.994271 0.0961786 3.87337e-20)
(0.994329 0.0960991 -1.01402e-19)
(0.994359 0.0960013 1.06965e-19)
(0.994357 0.0958837 9.28418e-20)
(0.994322 0.0957472 -1.35587e-19)
(0.994254 0.0955821 5.70523e-20)
(0.994151 0.0954095 2.06595e-19)
(0.994012 0.0951905 -3.54599e-19)
(0.993836 0.0949777 -8.55293e-20)
(0.993613 0.094714 8.00997e-20)
(0.993365 0.0944381 5.01398e-20)
(0.993086 0.0941171 4.43744e-20)
(0.992772 0.0937294 -2.40537e-19)
(0.992412 0.0932487 -5.13505e-19)
(0.991993 0.0926431 5.11001e-19)
(0.991512 0.0918705 1.29801e-19)
(0.990987 0.0908723 2.43581e-18)
(0.990458 0.0895816 -5.34276e-19)
(0.989986 0.0879289 -8.23322e-19)
(0.989653 0.085839 -6.50826e-18)
(0.989582 0.0832165 -7.97327e-19)
(0.989965 0.0798879 1.07883e-18)
(0.990994 0.0758623 -6.23658e-18)
(0.992041 0.0709478 1.35613e-17)
(0.995095 0.0639374 1.98154e-17)
(0.997282 0.0533419 -1.33406e-17)
(0.993082 0.0976261 -1.19263e-20)
(0.993185 0.0975845 7.91403e-21)
(0.993293 0.0975244 5.54129e-20)
(0.993398 0.0974533 -7.54819e-20)
(0.99349 0.0973746 9.79175e-20)
(0.993563 0.0972824 -1.83302e-20)
(0.993612 0.0971711 -4.78286e-20)
(0.99363 0.0970389 -1.5201e-19)
(0.993617 0.0968863 8.25476e-20)
(0.993569 0.0967028 6.74819e-20)
(0.993486 0.0965077 -8.34832e-22)
(0.993364 0.0962618 4.88331e-20)
(0.9932 0.0960184 -3.08734e-19)
(0.992978 0.0957207 1.73789e-19)
(0.992721 0.0954037 8.95144e-20)
(0.992427 0.0950328 -1.8164e-20)
(0.992092 0.0945821 4.3466e-19)
(0.991707 0.0940227 -2.19524e-20)
(0.991263 0.0933198 -5.87553e-19)
(0.990758 0.0924249 -4.60469e-19)
(0.990214 0.0912725 -3.62724e-19)
(0.989676 0.0897859 5.52363e-19)
(0.989213 0.0878882 -7.94552e-20)
(0.98892 0.0855017 -1.41008e-18)
(0.988934 0.0825462 -6.96799e-18)
(0.989468 0.0788797 -1.43187e-18)
(0.990693 0.0745927 1.60969e-17)
(0.992013 0.0695652 -1.27602e-17)
(0.995359 0.0626112 1.28188e-17)
(0.998133 0.0524213 -1.67397e-17)
(0.992325 0.0987235 7.03449e-21)
(0.992401 0.098677 -1.80009e-20)
(0.992492 0.0986127 -9.06704e-21)
(0.992588 0.0985399 8.05636e-20)
(0.99268 0.0984579 -2.77614e-20)
(0.992759 0.0983618 -1.18932e-19)
(0.992818 0.0982449 8.40901e-20)
(0.992851 0.0981056 -1.85406e-19)
(0.992854 0.0979435 3.74364e-20)
(0.992824 0.0977483 4.49359e-20)
(0.992758 0.0975369 6.33447e-20)
(0.992653 0.0972705 -2.48531e-19)
(0.992502 0.0970022 5.03872e-19)
(0.992281 0.0966741 -1.43272e-19)
(0.992015 0.0963177 -6.32625e-19)
(0.991706 0.0958972 4.42031e-19)
(0.991351 0.0953831 -1.0735e-19)
(0.990945 0.0947435 -3.96656e-19)
(0.990479 0.0939404 -3.18851e-19)
(0.989957 0.092922 1.896e-19)
(0.989403 0.0916166 -1.99029e-19)
(0.988869 0.0899417 -1.57794e-19)
(0.98843 0.0878159 3.71615e-18)
(0.988195 0.0851634 4.01846e-18)
(0.98831 0.0819199 -9.97474e-20)
(0.989005 0.0779734 -3.83477e-18)
(0.99042 0.0734837 -4.07105e-18)
(0.991992 0.0683972 4.33604e-18)
(0.99561 0.0615198 -6.61089e-18)
(0.998864 0.051656 1.22674e-17)
(0.991593 0.0996886 -6.04241e-21)
(0.991635 0.0996553 -4.10857e-21)
(0.991702 0.0995903 9.64733e-21)
(0.991782 0.0995172 -2.38139e-20)
(0.991864 0.0994344 1.23117e-20)
(0.99194 0.0993366 4.57524e-20)
(0.992003 0.099217 3.43402e-20)
(0.992043 0.0990744 -5.55663e-20)
(0.992058 0.0989074 1.28487e-19)
(0.99204 0.0987055 -1.78418e-19)
(0.991988 0.098484 1.65369e-19)
(0.991896 0.098203 -2.54779e-19)
(0.991755 0.0979152 1.91811e-19)
(0.991533 0.0975606 -3.15369e-19)
(0.991255 0.0971671 4.24348e-19)
(0.990929 0.0966993 1.81804e-19)
(0.990555 0.0961223 -7.50862e-19)
(0.990126 0.0954029 8.44542e-19)
(0.989639 0.0945005 -2.51576e-19)
(0.989101 0.0933598 -1.02817e-18)
(0.988539 0.0919053 1.8222e-19)
(0.988013 0.0900501 7.08756e-19)
(0.987605 0.0877107 -1.35264e-18)
(0.987434 0.0848153 -2.92807e-18)
(0.987656 0.0813166 6.22441e-18)
(0.988514 0.0771307 7.2366e-18)
(0.990113 0.0724761 -6.12846e-18)
(0.99192 0.0673613 8.84833e-18)
(0.995793 0.0605615 -3.66438e-18)
(0.999423 0.0509388 1.0522e-17)
(0.990891 0.100543 -3.77028e-21)
(0.990898 0.100509 3.78067e-21)
(0.990937 0.100446 -1.09554e-21)
(0.990995 0.100378 6.23182e-21)
(0.991062 0.100299 -4.12088e-20)
(0.991128 0.100205 2.66921e-20)
(0.991187 0.100088 -7.22825e-20)
(0.991228 0.0999471 1.35955e-19)
(0.991247 0.0997801 -1.16756e-19)
(0.991236 0.0995762 2.93617e-20)
(0.991192 0.0993488 1.59935e-19)
(0.991107 0.0990575 1.97631e-20)
(0.990972 0.0987548 -1.5974e-20)
(0.990744 0.0983768 -2.13009e-19)
(0.99045 0.0979485 7.56645e-20)
(0.990103 0.0974348 -2.53477e-19)
(0.989705 0.0967978 5.41082e-19)
(0.989251 0.0960012 2.63928e-19)
(0.988741 0.0950015 -1.57762e-19)
(0.988183 0.0937417 7.10689e-19)
(0.987613 0.0921427 1.30539e-18)
(0.987093 0.0901145 -1.66998e-18)
(0.986714 0.0875738 -4.12235e-18)
(0.986606 0.0844533 8.23725e-19)
(0.986935 0.080723 -1.77044e-18)
(0.987952 0.0763239 -1.60084e-18)
(0.98973 0.0715265 7.96922e-18)
(0.99176 0.066395 -4.8919e-18)
(0.995879 0.0596601 -4.71219e-19)
(0.999786 0.0501959 9.32187e-18)
(0.990212 0.101297 4.13015e-21)
(0.990185 0.101276 8.81513e-21)
(0.990195 0.101216 -2.88496e-22)
(0.990228 0.101152 8.89874e-21)
(0.990276 0.101078 -6.11378e-20)
(0.990328 0.100989 4.81388e-20)
(0.990378 0.100876 8.48503e-20)
(0.990414 0.100738 -9.80841e-20)
(0.990431 0.100573 -1.59002e-20)
(0.990421 0.100369 -5.27472e-20)
(0.990378 0.100139 2.06408e-19)
(0.990295 0.0998397 -7.41513e-20)
(0.99016 0.0995249 -9.6237e-20)
(0.989921 0.0991262 -3.2671e-20)
(0.989605 0.0986644 1.88745e-19)
(0.989233 0.0981077 7.06036e-20)
(0.988806 0.0974136 -1.44821e-19)
(0.988322 0.0965426 -6.53959e-21)
(0.987784 0.0954499 -1.97135e-19)
(0.987203 0.0940755 -4.21318e-19)
(0.986619 0.0923381 -1.05273e-18)
(0.986099 0.0901444 1.97256e-18)
(0.985745 0.0874123 1.9987e-18)
(0.985695 0.084079 4.78217e-20)
(0.986124 0.0801319 3.62999e-18)
(0.987295 0.0755349 -2.00425e-18)
(0.989247 0.0706049 -4.5806e-18)
(0.991495 0.0654582 -4.60211e-18)
(0.995855 0.0587714 -2.78965e-17)
(0.999971 0.0493958 -1.56587e-17)
(0.989544 0.101989 -1.37829e-21)
(0.989483 0.101967 4.11596e-21)
(0.989465 0.10191 1.30944e-22)
(0.989474 0.101852 -4.37651e-20)
(0.989501 0.101785 -7.16798e-22)
(0.989537 0.101702 4.86272e-20)
(0.989573 0.101594 -6.22469e-20)
(0.989601 0.101461 9.462e-20)
(0.989612 0.1013 4.09086e-20)
(0.989597 0.101098 2.95042e-21)
(0.98955 0.100865 -1.62761e-19)
(0.989463 0.10056 8.34511e-20)
(0.989324 0.100235 2.39394e-19)
(0.989069 0.0998165 -1.86624e-19)
(0.988725 0.0993225 1.34998e-19)
(0.988321 0.0987253 -1.54631e-19)
(0.987861 0.0979773 1.27645e-19)
(0.987344 0.0970362 -1.17479e-19)
(0.986772 0.0958544 5.46647e-19)
(0.986162 0.0943706 2.42984e-19)
(0.985557 0.0924998 1.11913e-18)
(0.98503 0.0901476 -9.33696e-19)
(0.984692 0.0872317 -2.78739e-18)
(0.984692 0.083695 9.25317e-19)
(0.985213 0.0795397 -5.75087e-18)
(0.986531 0.0747528 7.53963e-18)
(0.988654 0.0696919 -5.91588e-18)
(0.991121 0.0645237 1.71028e-17)
(0.995725 0.0578639 6.94163e-18)
(0.999992 0.0485158 -5.29778e-18)
(0.988877 0.102617 2.51863e-21)
(0.988785 0.102609 1.53923e-21)
(0.988739 0.102555 -1.91619e-20)
(0.988723 0.102502 5.11313e-21)
(0.988728 0.102441 4.13767e-21)
(0.988747 0.102363 1.69524e-21)
(0.988769 0.102261 -1.06421e-20)
(0.988785 0.102132 9.37501e-20)
(0.988787 0.101974 -1.40514e-19)
(0.988764 0.101773 1.18647e-19)
(0.988709 0.101539 -1.14145e-20)
(0.988614 0.101229 -7.99182e-20)
(0.988465 0.100894 1.00476e-19)
(0.988188 0.100458 -1.63043e-19)
(0.987812 0.0999332 5.61463e-20)
(0.987372 0.0992982 -1.21333e-19)
(0.986874 0.098499 3.14169e-19)
(0.986317 0.0974912 3.17451e-19)
(0.985706 0.0962254 5.10056e-19)
(0.985061 0.0946373 -2.58717e-19)
(0.984426 0.0926393 -1.12555e-18)
(0.983885 0.0901344 -3.27611e-19)
(0.983554 0.08704 9.72399e-19)
(0.983594 0.0833047 2.57259e-18)
(0.984199 0.0789449 2.5211e-18)
(0.98566 0.0739695 -1.50631e-17)
(0.987953 0.0687746 3.87863e-18)
(0.990643 0.0635764 -1.95258e-17)
(0.995497 0.0569248 1.81649e-17)
(0.999886 0.0475546 7.71475e-18)
(0.98821 0.103219 8.49963e-22)
(0.988088 0.103206 -9.2663e-21)
(0.988015 0.103154 -6.07975e-21)
(0.987975 0.103106 1.66434e-20)
(0.987958 0.103049 -3.12793e-20)
(0.987958 0.102978 2.01143e-20)
(0.987964 0.102881 -4.11886e-20)
(0.987966 0.102759 -1.94259e-20)
(0.987956 0.102605 8.95487e-21)
(0.987921 0.102407 3.58985e-20)
(0.987855 0.102173 -1.80692e-21)
(0.987747 0.101858 4.22909e-20)
(0.987583 0.101515 3.33013e-20)
(0.987281 0.101062 1.8574e-19)
(0.986868 0.100508 -3.03608e-20)
(0.986388 0.0998367 8.09764e-20)
(0.985847 0.0989896 -4.47522e-19)
(0.985245 0.0979194 -1.99697e-19)
(0.98459 0.0965733 -5.95397e-19)
(0.983901 0.0948852 2.54504e-19)
(0.983231 0.0927643 8.73227e-19)
(0.982666 0.0901105 1.75435e-19)
(0.982333 0.0868417 5.70058e-19)
(0.982405 0.0829101 2.89904e-19)
(0.983088 0.0783461 3.24297e-18)
(0.984685 0.0731795 7.68362e-18)
(0.987153 0.0678441 -7.03752e-18)
(0.990072 0.062604 -2.28233e-18)
(0.995188 0.0559423 3.20202e-18)
(0.999678 0.0465075 1.69662e-18)
(0.987537 0.103779 7.18622e-22)
(0.987385 0.103777 -9.33101e-21)
(0.987287 0.103727 1.6539e-20)
(0.987222 0.103683 -2.49233e-20)
(0.987185 0.103633 3.30931e-20)
(0.987165 0.103569 2.94549e-20)
(0.987154 0.103478 -3.36115e-20)
(0.987141 0.10336 1.72673e-20)
(0.987115 0.103211 -7.25683e-20)
(0.987066 0.103016 2.08957e-20)
(0.986985 0.102782 -1.57042e-20)
(0.98686 0.102463 -1.25503e-19)
(0.986677 0.102111 2.58371e-20)
(0.986346 0.10164 1.72195e-19)
(0.985894 0.101059 -4.4305e-20)
(0.985371 0.100353 4.5276e-20)
(0.984782 0.0994606 -1.29654e-19)
(0.984131 0.0983304 2.84973e-19)
(0.983425 0.0969081 -8.18382e-20)
(0.982687 0.0951241 -8.36085e-19)
(0.981972 0.0928842 -1.56335e-19)
(0.981375 0.0900842 1.61699e-19)
(0.981032 0.086642 -3.76694e-19)
(0.981128 0.0825128 -2.80953e-18)
(0.981884 0.0777412 -4.75532e-18)
(0.983617 0.0723773 -2.51991e-18)
(0.986265 0.0668931 5.21763e-18)
(0.989423 0.0616006 1.00412e-17)
(0.994812 0.0549152 -2.08783e-17)
(0.999397 0.0453826 -1.82747e-18)
(0.986848 0.104346 2.88861e-21)
(0.986667 0.104338 -7.24342e-22)
(0.986545 0.104289 1.16779e-20)
(0.986458 0.10425 -2.75467e-21)
(0.986399 0.104205 -1.62052e-20)
(0.98636 0.104146 1.33204e-20)
(0.986331 0.10406 1.79571e-20)
(0.986301 0.103948 -3.5022e-20)
(0.986259 0.103803 7.46489e-20)
(0.986194 0.103611 3.24163e-20)
(0.986095 0.103377 -5.02871e-20)
(0.985951 0.103053 -5.65631e-21)
(0.985746 0.102692 -8.97932e-21)
(0.985383 0.102205 -4.2042e-20)
(0.984889 0.101597 1.25563e-19)
(0.984319 0.100858 -1.20109e-20)
(0.98368 0.0999222 4.51282e-20)
(0.982976 0.098735 -2.92079e-19)
(0.982214 0.0972389 5.69445e-19)
(0.98142 0.0953615 2.11251e-19)
(0.980654 0.0930039 -5.67678e-19)
(0.980017 0.0900587 -1.11212e-18)
(0.979656 0.086442 9.24259e-19)
(0.979771 0.0821126 -4.02946e-18)
(0.980594 0.0771269 6.26932e-18)
(0.982465 0.0715579 3.85485e-18)
(0.985301 0.0659147 5.8439e-18)
(0.988713 0.0605588 -2.46378e-18)
(0.99439 0.0538378 2.14209e-17)
(0.999052 0.0441744 -5.49526e-18)
(0.986138 0.104889 -5.8759e-22)
(0.985929 0.104894 -6.86944e-21)
(0.985781 0.104848 2.72708e-21)
(0.985672 0.104814 1.84329e-20)
(0.985592 0.104775 -2.39963e-20)
(0.985535 0.104722 1.18016e-21)
(0.985488 0.104641 -7.20708e-22)
(0.985441 0.104533 5.47558e-21)
(0.985383 0.104393 -6.88812e-21)
(0.985299 0.104202 -9.10758e-21)
(0.985181 0.103967 2.23598e-20)
(0.985016 0.103639 5.99147e-20)
(0.984787 0.103269 -5.30608e-20)
(0.984391 0.102766 2.02568e-21)
(0.983853 0.102133 -4.9437e-20)
(0.983232 0.101362 -1.81881e-20)
(0.982541 0.100384 -2.01507e-20)
(0.981779 0.0991414 2.62515e-19)
(0.980957 0.0975737 -3.49548e-19)
(0.980103 0.0956046 9.48856e-19)
(0.979279 0.0931303 8.64928e-19)
(0.978595 0.0900391 -3.44161e-19)
(0.978209 0.0862441 -4.90801e-19)
(0.978337 0.081708 5.75318e-18)
(0.979228 0.0764995 -5.06815e-18)
(0.981239 0.0707151 -3.09646e-18)
(0.984276 0.0649026 -3.16833e-18)
(0.987955 0.0594748 2.01344e-18)
(0.993934 0.0527117 -1.69999e-17)
(0.998683 0.0428953 1.17996e-17)
(0.985412 0.105454 -4.62027e-22)
(0.985174 0.105453 -4.02013e-21)
(0.985 0.105407 -2.86828e-22)
(0.984867 0.105378 6.51781e-21)
(0.984766 0.105343 -4.00974e-21)
(0.984689 0.105295 1.56179e-20)
(0.984624 0.10522 -2.41656e-20)
(0.984559 0.105118 8.0685e-21)
(0.984483 0.104983 2.31951e-20)
(0.98438 0.104795 -5.21246e-20)
(0.984241 0.104561 2.49091e-21)
(0.984053 0.104229 -1.45553e-20)
(0.983797 0.103851 2.03693e-20)
(0.983366 0.103332 -4.02051e-21)
(0.982783 0.102675 5.0444e-20)
(0.982112 0.101873 -1.42709e-19)
(0.981364 0.100854 2.20649e-21)
(0.980542 0.0995578 -9.80408e-20)
(0.979656 0.0979192 7.15999e-20)
(0.978735 0.0958584 -1.41802e-20)
(0.977847 0.0932662 -5.44494e-19)
(0.977111 0.0900254 -5.41246e-19)
(0.976695 0.0860472 1.53937e-18)
(0.976832 0.0812961 -3.04813e-18)
(0.977792 0.0758544 9.26794e-19)
(0.97995 0.0698423 1.99223e-18)
(0.983201 0.0638499 1.57973e-18)
(0.987166 0.0583419 -9.99969e-18)
(0.993461 0.051531 -7.63327e-18)
(0.998298 0.0415399 -7.89415e-18)
(0.984668 0.106002 3.31533e-22)
(0.984399 0.106012 -1.89116e-22)
(0.984199 0.10597 -1.77662e-21)
(0.984042 0.105946 2.25974e-21)
(0.983919 0.105919 -4.34629e-21)
(0.983821 0.105879 7.80648e-21)
(0.983737 0.10581 -8.62009e-21)
(0.983653 0.105714 5.96407e-21)
(0.983557 0.105584 -1.24802e-20)
(0.983433 0.105399 2.89952e-20)
(0.983272 0.105167 -1.47611e-20)
(0.983058 0.104831 1.85637e-20)
(0.982774 0.104445 -7.54688e-20)
(0.982308 0.103911 4.74237e-20)
(0.981679 0.103231 1.08911e-20)
(0.980956 0.102398 3.14184e-20)
(0.98015 0.10134 -5.4661e-20)
(0.979265 0.0999899 1.09581e-19)
(0.978311 0.0982811 1.21551e-20)
(0.977317 0.096128 -3.77849e-19)
(0.97636 0.0934159 6.85199e-19)
(0.975565 0.0900207 3.80317e-19)
(0.975115 0.0858511 -2.19689e-18)
(0.975261 0.0808738 1.04324e-18)
(0.976292 0.0751856 8.03944e-19)
(0.978607 0.0689328 -4.12928e-18)
(0.982089 0.0627502 -2.17243e-18)
(0.986358 0.0571568 3.18644e-17)
(0.992983 0.0502971 -1.11877e-18)
(0.997925 0.0401152 4.36641e-19)
(0.983899 0.106583 5.82799e-23)
(0.983599 0.106589 -1.94737e-22)
(0.983372 0.106549 1.75184e-22)
(0.98319 0.106531 -5.63618e-23)
(0.983044 0.106511 -4.39877e-22)
(0.982925 0.106477 4.54442e-22)
(0.982821 0.106414 6.58231e-22)
(0.982716 0.106325 -6.33594e-22)
(0.9826 0.106201 -1.22208e-22)
(0.982455 0.10602 -2.91209e-22)
(0.982269 0.10579 1.3115e-21)
(0.98203 0.105451 8.44244e-22)
(0.981717 0.105057 -1.19206e-21)
(0.981214 0.104509 -5.91243e-21)
(0.980539 0.103806 3.81287e-20)
(0.979762 0.102944 -1.68316e-20)
(0.978897 0.101847 6.19229e-20)
(0.977946 0.100444 5.48755e-20)
(0.976919 0.0986638 -2.1429e-19)
(0.97585 0.0964164 1.49551e-19)
(0.974818 0.0935796 -2.09847e-19)
(0.97396 0.0900235 1.08015e-18)
(0.973471 0.0856526 1.93167e-18)
(0.973626 0.0804369 1.81236e-18)
(0.974734 0.0744872 3.38029e-18)
(0.977218 0.0679796 3.0633e-18)
(0.98095 0.0615959 -2.2929e-18)
(0.985544 0.055913 -3.74026e-18)
(0.992515 0.049004 2.57781e-19)
(0.997565 0.0386141 8.57664e-18)
(0.9831 0.107157 7.7904e-23)
(0.982767 0.107177 -1.81522e-21)
(0.982513 0.107142 6.12196e-21)
(0.982305 0.107131 -1.43392e-21)
(0.982135 0.10712 4.02437e-21)
(0.981995 0.107094 -8.47494e-21)
(0.981871 0.107039 2.19176e-21)
(0.981745 0.106956 -4.39487e-21)
(0.981608 0.106838 2.54962e-21)
(0.981441 0.106661 9.53438e-21)
(0.981231 0.106433 -1.31748e-20)
(0.980964 0.106092 1.58456e-20)
(0.980621 0.105692 -2.40686e-20)
(0.980083 0.105131 5.05699e-21)
(0.979361 0.104407 -1.52109e-21)
(0.97853 0.103516 -1.65929e-20)
(0.977604 0.102379 -2.04702e-20)
(0.976584 0.100923 2.62738e-21)
(0.975481 0.0990709 5.69485e-20)
(0.974332 0.0967267 -1.47051e-19)
(0.97322 0.0937602 -1.17274e-19)
(0.972294 0.090035 -2.23341e-19)
(0.971765 0.0854504 -1.02559e-18)
(0.97193 0.0799808 -1.16322e-18)
(0.973122 0.0737528 -4.72117e-18)
(0.975789 0.0669753 6.81171e-19)
(0.979794 0.0603811 -6.66586e-19)
(0.984735 0.0546078 -3.63604e-17)
(0.992064 0.0476538 1.8725e-17)
(0.997241 0.0370446 1.26155e-17)
(0.98228 0.107759 -1.04128e-21)
(0.981911 0.107775 -1.12326e-21)
(0.981626 0.107744 2.99866e-21)
(0.981391 0.107741 -1.86875e-20)
(0.981196 0.107738 2.86742e-20)
(0.981033 0.107722 -1.8186e-20)
(0.980887 0.107675 -9.92074e-21)
(0.98074 0.107601 2.87926e-20)
(0.980581 0.107492 -2.68803e-20)
(0.98039 0.107321 4.41044e-20)
(0.980155 0.107098 -5.75679e-20)
(0.979861 0.106758 -1.51364e-21)
(0.979487 0.106353 4.06014e-20)
(0.978914 0.10578 -1.19255e-20)
(0.978145 0.105036 -4.40762e-21)
(0.977258 0.104116 1.06435e-20)
(0.976269 0.102941 8.0401e-21)
(0.975178 0.101431 -1.48851e-20)
(0.973996 0.099505 7.12046e-20)
(0.972762 0.09706 1.83009e-20)
(0.971565 0.0939572 2.17113e-19)
(0.970567 0.0900523 -8.56893e-19)
(0.969996 0.0852408 6.91475e-20)
(0.970173 0.0795003 -1.46808e-19)
(0.971459 0.0729763 6.37285e-19)
(0.974327 0.0659123 3.50311e-18)
(0.978629 0.0590982 -7.3175e-19)
(0.98394 0.0532346 1.75981e-17)
(0.991644 0.046241 -1.45501e-17)
(0.996951 0.0353997 -8.89368e-18)
(0.981435 0.108355 -4.96405e-22)
(0.981029 0.108382 1.48765e-21)
(0.980713 0.108356 1.39883e-20)
(0.980448 0.108361 -1.88738e-20)
(0.980227 0.10837 4.57602e-21)
(0.980039 0.108365 9.16793e-22)
(0.97987 0.108329 9.68558e-21)
(0.9797 0.108265 -1.41269e-20)
(0.979518 0.108167 2.84708e-20)
(0.979302 0.108004 1.14616e-20)
(0.97904 0.107788 -2.37997e-20)
(0.978717 0.10745 4.04656e-20)
(0.978312 0.107042 2.91989e-20)
(0.977703 0.106459 -2.7094e-20)
(0.976888 0.105697 2.66956e-20)
(0.975944 0.104749 3.36783e-20)
(0.974891 0.103536 -8.63985e-20)
(0.973725 0.10197 2.12033e-20)
(0.972461 0.0999683 -3.1848e-20)
(0.971136 0.0974182 -2.37265e-20)
(0.969852 0.094172 -2.21309e-20)
(0.968777 0.0900758 5.25404e-19)
(0.968164 0.0850212 1.23297e-19)
(0.968358 0.0789905 -2.062e-19)
(0.96975 0.0721502 1.21299e-18)
(0.972837 0.0647838 -2.8878e-18)
(0.977464 0.0577418 3.90156e-18)
(0.983169 0.0517916 -2.81606e-17)
(0.99126 0.0447687 1.09799e-17)
(0.996714 0.0336883 -2.25848e-17)
(0.980563 0.10898 -9.81796e-22)
(0.98012 0.109001 3.21513e-21)
(0.97977 0.10898 -1.36132e-20)
(0.979475 0.108997 -1.69055e-21)
(0.979226 0.109017 2.92244e-20)
(0.979012 0.109024 -7.34627e-21)
(0.978818 0.109 -6.16533e-21)
(0.978624 0.108949 -8.44588e-21)
(0.978417 0.108863 -6.10449e-21)
(0.978175 0.108711 7.77856e-21)
(0.977885 0.108504 5.20254e-20)
(0.977532 0.108171 3.12984e-21)
(0.977094 0.107761 -6.92933e-20)
(0.976451 0.107171 -6.11575e-21)
(0.975587 0.106392 -6.72331e-20)
(0.974588 0.105416 -3.45741e-20)
(0.973466 0.104164 5.79432e-20)
(0.972226 0.102544 -7.56047e-21)
(0.970875 0.100462 1.24561e-19)
(0.969456 0.0978019 6.09429e-20)
(0.968077 0.0944028 -5.7347e-20)
(0.966923 0.0901023 -5.22298e-19)
(0.966267 0.0847872 -1.49759e-19)
(0.966483 0.078446 1.15064e-18)
(0.967994 0.071268 -2.90837e-18)
(0.971324 0.0635821 -2.60533e-19)
(0.976304 0.0563043 -3.10179e-19)
(0.982428 0.0502727 1.97012e-17)
(0.990922 0.0432317 -6.50122e-18)
(0.996525 0.0319037 4.39642e-18)
(0.979655 0.109608 2.59836e-21)
(0.979172 0.109642 1.21397e-21)
(0.97879 0.109625 -1.58122e-20)
(0.978463 0.10965 5.89577e-21)
(0.978186 0.109684 4.81824e-21)
(0.977946 0.109704 -1.33148e-20)
(0.977726 0.109693 8.24358e-21)
(0.977507 0.109655 -2.8867e-20)
(0.977275 0.109583 3.86845e-20)
(0.977006 0.109442 4.04191e-20)
(0.976688 0.109246 9.17311e-21)
(0.976304 0.10892 -4.80993e-20)
(0.975833 0.108512 3.38124e-20)
(0.975155 0.107917 -8.4145e-20)
(0.974245 0.107121 1.17498e-19)
(0.973186 0.106119 6.03831e-20)
(0.971996 0.104829 -1.46106e-19)
(0.97068 0.10315 2.70715e-20)
(0.969237 0.100989 -2.68826e-20)
(0.967717 0.0982129 -3.7549e-20)
(0.966238 0.0946505 6.6683e-20)
(0.965002 0.0901312 3.54658e-19)
(0.964303 0.0845356 1.63278e-19)
(0.964549 0.0778608 -3.49264e-19)
(0.966195 0.0703227 1.38564e-18)
(0.969792 0.0623005 -6.07702e-19)
(0.975158 0.0547816 5.99017e-18)
(0.981727 0.0486773 1.30187e-17)
(0.990635 0.0416345 1.04241e-17)
(0.9964 0.0300558 1.27461e-17)
(0.978722 0.110256 1.01777e-20)
(0.978198 0.110282 -1.0552e-20)
(0.977779 0.110272 1.36134e-20)
(0.977419 0.11031 -4.74117e-21)
(0.97711 0.110356 2.553e-21)
(0.976842 0.110391 3.64377e-20)
(0.976596 0.110395 -3.01938e-22)
(0.97635 0.110374 -1.24934e-19)
(0.976092 0.11032 3.88122e-20)
(0.975795 0.110194 -4.39908e-20)
(0.975447 0.110012 9.80058e-20)
(0.975032 0.109696 -1.67467e-19)
(0.974526 0.109293 -5.29468e-20)
(0.973815 0.108695 -5.84609e-20)
(0.972858 0.107888 8.30122e-20)
(0.971737 0.106859 -1.61476e-19)
(0.970483 0.105527 1.9736e-19)
(0.969083 0.103794 1.54963e-19)
(0.967544 0.101551 -1.97498e-19)
(0.965915 0.0986513 -1.35495e-19)