/*--------------------------------*- C++ -*----------------------------------*\
  =========                 |
  \\      /  F ield         | OpenFOAM: The Open Source CFD Toolbox
   \\    /   O peration     | Website:  https://openfoam.org
    \\  /    A nd           | Version:  6.0
     \\/     M anipulation  |
\*---------------------------------------------------------------------------*/
FoamFile
{
    version     2.0;
    format      ascii;
    class       volVectorField;
    location    "4";
    object      U;
}
// * * * * * * * * * * * * * * * * * * * * * * * * * * * * * * * * * * * * * //

dimensions      [0 1 -1 0 0 0 0];

internalField   nonuniform List<vector> 
62000
(
(0.996207 0.0865423 -5.65054e-21)
(0.996217 0.0865586 4.71157e-21)
(0.996227 0.0865856 4.78659e-21)
(0.996236 0.086611 -2.08859e-20)
(0.996245 0.0866347 -2.36532e-20)
(0.996252 0.0866575 8.19214e-20)
(0.996259 0.0866797 -8.96738e-20)
(0.996264 0.0867016 5.20184e-20)
(0.996268 0.0867236 -2.41852e-20)
(0.996272 0.0867458 -1.23028e-19)
(0.996274 0.0867689 -1.51927e-20)
(0.996276 0.0867926 1.71518e-19)
(0.996276 0.086818 3.46993e-20)
(0.996276 0.0868444 -1.21638e-19)
(0.996276 0.0868729 1.89189e-19)
(0.996274 0.0869032 -1.00197e-19)
(0.996272 0.0869358 1.03543e-19)
(0.99627 0.0869707 -1.21569e-19)
(0.996267 0.0870082 5.98483e-20)
(0.996264 0.0870486 -1.85132e-19)
(0.99626 0.0870922 2.41886e-19)
(0.996255 0.0871392 7.20464e-20)
(0.99625 0.08719 1.05182e-19)
(0.996243 0.087244 -4.74478e-19)
(0.996236 0.0873066 1.7246e-19)
(0.996228 0.0873788 -1.051e-19)
(0.99622 0.0874569 -2.28636e-21)
(0.99621 0.0875419 -8.41544e-20)
(0.996197 0.0876341 2.52541e-19)
(0.996182 0.087734 -1.44242e-19)
(0.996162 0.0878401 3.4553e-19)
(0.996137 0.0879532 -7.15069e-19)
(0.996105 0.0880716 6.15826e-20)
(0.996065 0.0881953 -2.61671e-19)
(0.996016 0.088319 -8.98718e-20)
(0.995957 0.088436 -2.89012e-19)
(0.995885 0.0885409 -1.04218e-19)
(0.995794 0.0886266 -1.24644e-19)
(0.995683 0.0886829 3.06966e-19)
(0.995546 0.0886968 1.61934e-18)
(0.995378 0.088653 -4.23447e-19)
(0.995176 0.0885342 -2.55095e-18)
(0.994933 0.0883223 -4.32745e-18)
(0.994647 0.088 2.48344e-18)
(0.994317 0.0875522 8.1675e-19)
(0.993943 0.0869697 -3.86534e-18)
(0.993533 0.0862506 7.7481e-19)
(0.9931 0.0854027 -1.68147e-18)
(0.992662 0.0844438 -7.75072e-18)
(0.992246 0.0833983 -1.8281e-18)
(0.991879 0.0822943 -9.04682e-19)
(0.99159 0.0811526 -1.09037e-17)
(0.991405 0.0799865 1.82793e-18)
(0.991342 0.078777 1.05398e-17)
(0.991423 0.0774922 2.40605e-18)
(0.991662 0.0760423 7.80037e-18)
(0.992098 0.0743111 -6.62531e-19)
(0.992772 0.0720043 -8.3695e-19)
(0.994134 0.0691072 2.03132e-18)
(0.979328 0.0538568 2.8258e-19)
(0.996111 0.0884517 -1.48533e-21)
(0.996126 0.0884342 1.415e-20)
(0.996143 0.0884318 5.76151e-21)
(0.996161 0.0884296 -2.50424e-20)
(0.996179 0.0884233 1.0351e-20)
(0.996198 0.0884146 -7.09674e-20)
(0.996216 0.0884038 6.50258e-20)
(0.996233 0.0883909 3.73392e-20)
(0.99625 0.0883773 -6.97523e-20)
(0.996265 0.0883626 3.10717e-21)
(0.99628 0.0883489 6.7139e-20)
(0.996293 0.0883355 7.84016e-23)
(0.996304 0.0883252 1.91278e-20)
(0.996315 0.088317 -1.64384e-19)
(0.996324 0.0883133 3.29539e-19)
(0.996332 0.0883138 -2.91028e-19)
(0.996338 0.0883197 1.36439e-19)
(0.996344 0.0883317 -2.86187e-20)
(0.996348 0.0883497 -7.8526e-20)
(0.996351 0.0883753 2.17309e-19)
(0.996352 0.0884082 -3.43758e-19)
(0.996351 0.0884498 2.00454e-19)
(0.996347 0.0884998 -2.57056e-19)
(0.99634 0.0885606 1.532e-19)
(0.996326 0.0886424 1.42955e-19)
(0.996306 0.0887447 -9.19871e-20)
(0.996279 0.0888548 -2.05176e-21)
(0.996249 0.0889721 9.75335e-20)
(0.996209 0.089093 8.23455e-20)
(0.996162 0.0892178 -1.77041e-19)
(0.996101 0.0893404 3.54619e-19)
(0.996025 0.0894615 7.94197e-20)
(0.995929 0.0895797 2.37975e-19)
(0.995809 0.0896942 2.89257e-20)
(0.995667 0.0897886 7.90152e-20)
(0.995498 0.0898436 -7.38733e-20)
(0.995297 0.0898444 -2.68013e-19)
(0.995056 0.0897771 -1.18045e-19)
(0.994769 0.0896229 -8.45377e-19)
(0.994428 0.089359 -1.07751e-18)
(0.994028 0.0889603 8.66876e-19)
(0.993563 0.0884018 5.67968e-19)
(0.993029 0.0876608 4.56332e-18)
(0.992423 0.0867201 2.90432e-19)
(0.991748 0.0855702 -7.87786e-18)
(0.991014 0.084214 3.26683e-18)
(0.990236 0.0826665 2.78375e-18)
(0.989441 0.0809561 3.37193e-18)
(0.988662 0.0791217 5.70054e-19)
(0.987943 0.0772012 8.17678e-20)
(0.987327 0.0752326 5.43117e-18)
(0.98686 0.0732247 1.3863e-17)
(0.986584 0.0711831 -8.69602e-18)
(0.986519 0.0690436 -2.02842e-17)
(0.986707 0.0667243 -4.61005e-18)
(0.987174 0.0640367 -2.25557e-18)
(0.988008 0.0607708 -6.2937e-18)
(0.989276 0.056445 -2.59293e-18)
(0.99165 0.0512963 3.81056e-18)
(0.977033 0.0314158 1.25474e-18)
(0.995991 0.0905 -7.06156e-21)
(0.995991 0.0904714 -9.55157e-22)
(0.995996 0.0904485 1.1314e-21)
(0.996005 0.0904276 4.96123e-21)
(0.996016 0.0904016 1.39196e-20)
(0.996031 0.0903722 -1.31917e-20)
(0.996047 0.0903392 6.97691e-20)
(0.996066 0.0903028 -3.33937e-20)
(0.996086 0.0902639 -1.78888e-20)
(0.996108 0.0902218 -1.08704e-19)
(0.99613 0.0901788 9.16293e-20)
(0.996152 0.0901338 6.66105e-21)
(0.996175 0.0900897 -2.08479e-20)
(0.996197 0.0900455 5.51834e-20)
(0.996218 0.0900036 -9.41921e-20)
(0.996239 0.0899638 6.68315e-22)
(0.996259 0.0899274 -4.31962e-20)
(0.996277 0.0898953 7.28106e-22)
(0.996295 0.0898675 1.00624e-19)
(0.99631 0.089846 -1.53393e-19)
(0.996324 0.0898299 9.57824e-20)
(0.996335 0.0898216 3.76006e-19)
(0.996342 0.0898194 -4.86204e-20)
(0.996346 0.0898284 -5.29923e-19)
(0.996338 0.0898588 2.71075e-19)
(0.996316 0.0899087 -1.4637e-19)
(0.996285 0.0899612 2.33946e-19)
(0.996248 0.0900152 -1.37554e-19)
(0.996201 0.090065 -2.78594e-19)
(0.996145 0.0901105 2.95173e-19)
(0.996072 0.0901433 -2.11311e-19)
(0.995984 0.0901639 2.9077e-19)
(0.995872 0.090173 -8.21719e-19)
(0.995735 0.0901698 7.60389e-19)
(0.995572 0.0901348 -4.19746e-19)
(0.995381 0.0900431 1.73428e-19)
(0.995157 0.0898789 1.269e-19)
(0.994892 0.0896282 -3.10863e-20)
(0.994578 0.0892726 -5.70189e-20)
(0.99421 0.0887901 1.02733e-18)
(0.993782 0.0881571 -4.7438e-19)
(0.993287 0.0873512 7.95921e-19)
(0.992721 0.0863538 -2.9138e-18)
(0.992083 0.0851536 -1.52214e-18)
(0.991374 0.0837474 1.87416e-18)
(0.990603 0.0821459 -6.13113e-18)
(0.989785 0.080371 8.97376e-19)
(0.988945 0.0784561 -5.67597e-18)
(0.988115 0.0764434 8.04123e-18)
(0.987342 0.0743685 2.07421e-18)
(0.986668 0.0722656 1.04763e-18)
(0.986147 0.0701333 -2.51691e-19)
(0.985821 0.0679688 3.97548e-18)
(0.98572 0.0657024 1.53405e-19)
(0.98589 0.0632367 -7.41967e-18)
(0.986378 0.0603894 -3.56264e-18)
(0.987281 0.056955 -2.74308e-18)
(0.988667 0.0525273 -7.05652e-18)
(0.991077 0.047895 -3.29827e-19)
(0.982857 0.0321114 4.60306e-19)
(0.995821 0.091939 -6.87852e-21)
(0.995806 0.0919096 2.09613e-20)
(0.995798 0.0918746 -3.24805e-21)
(0.995795 0.0918445 -2.13489e-20)
(0.995796 0.0918098 3.19407e-20)
(0.995802 0.0917723 5.45303e-20)
(0.995812 0.0917315 -7.11229e-20)
(0.995826 0.0916869 7.63063e-21)
(0.995843 0.0916392 2.41773e-20)
(0.995864 0.0915872 4.98895e-20)
(0.995888 0.0915328 -9.22655e-20)
(0.995915 0.0914747 -2.80738e-20)
(0.995943 0.0914156 -3.11376e-20)
(0.995973 0.0913542 1.42039e-19)
(0.996003 0.0912925 -9.44306e-20)
(0.996035 0.0912306 2.19329e-19)
(0.996066 0.0911691 -2.65005e-19)
(0.996097 0.0911092 -3.85149e-20)
(0.996127 0.0910503 2.77553e-19)
(0.996156 0.0909948 -9.66901e-20)
(0.996183 0.0909412 -3.51178e-20)
(0.996208 0.0908923 -3.7904e-20)
(0.996229 0.0908452 -3.46553e-19)
(0.996247 0.0908072 1.99045e-19)
(0.996249 0.0907867 -9.12942e-20)
(0.996231 0.0907815 1.43704e-19)
(0.996199 0.0907723 6.51136e-20)
(0.996162 0.0907596 3.24639e-19)
(0.996114 0.090736 -1.98505e-19)
(0.996058 0.0907019 -2.62986e-19)
(0.995987 0.0906476 4.1411e-19)
(0.995901 0.0905729 -3.38504e-19)
(0.995794 0.0904815 6.4281e-19)
(0.995662 0.0903722 -4.06863e-19)
(0.995508 0.0902241 1.55509e-19)
(0.995331 0.090012 2.90868e-19)
(0.995124 0.0897202 -1.31028e-19)
(0.994881 0.0893362 1.98784e-19)
(0.994596 0.0888436 -6.87442e-20)
(0.994262 0.088223 2.9055e-19)
(0.993872 0.0874537 -9.14122e-19)
(0.993421 0.0865165 2.83842e-19)
(0.992903 0.085397 6.62574e-19)
(0.992315 0.0840878 1.61898e-18)
(0.991657 0.0825897 2.47967e-18)
(0.990932 0.0809162 8.05443e-19)
(0.990153 0.0790911 3.89405e-18)
(0.989342 0.077148 4.40238e-18)
(0.988526 0.0751273 4.91229e-18)
(0.987751 0.073061 -3.62685e-18)
(0.987056 0.0709781 -5.00683e-18)
(0.986502 0.0688721 2.95055e-18)
(0.986128 0.0667341 3.65528e-18)
(0.985974 0.0645008 9.47381e-18)
(0.986088 0.0620685 5.80466e-18)
(0.98653 0.0592761 7.81987e-18)
(0.987395 0.0559297 1.31513e-17)
(0.988755 0.0516934 1.99892e-20)
(0.990878 0.0476958 -4.94139e-18)
(0.987414 0.0341894 -2.87612e-18)
(0.995605 0.0929351 1.29225e-20)
(0.995579 0.0929127 -4.34555e-21)
(0.995562 0.0928754 7.11516e-21)
(0.995549 0.0928442 -1.00981e-20)
(0.995541 0.092808 2.22924e-20)
(0.995539 0.0927686 -1.10672e-20)
(0.995541 0.0927257 5.78769e-21)
(0.995549 0.092679 -8.65413e-20)
(0.995561 0.092629 7.20902e-20)
(0.995579 0.0925745 -1.42319e-19)
(0.9956 0.0925171 1.55789e-19)
(0.995626 0.0924552 -1.86416e-20)
(0.995656 0.0923912 -4.07152e-20)
(0.995689 0.0923233 -1.85292e-20)
(0.995724 0.0922536 -3.86906e-21)
(0.995762 0.0921813 -1.84439e-19)
(0.9958 0.092107 8.66886e-21)
(0.99584 0.0920315 1.99434e-19)
(0.99588 0.0919541 -6.43294e-20)
(0.99592 0.0918769 -6.77323e-20)
(0.995958 0.0917981 1.14076e-19)
(0.995995 0.0917205 -5.66761e-20)
(0.996029 0.0916403 2.36981e-19)
(0.99606 0.0915663 1.30833e-19)
(0.996073 0.0915046 1.00528e-19)
(0.996059 0.0914525 -3.01934e-19)
(0.996028 0.0913897 -4.13609e-20)
(0.99599 0.0913189 -2.27718e-19)
(0.995943 0.0912317 4.17232e-20)
(0.995888 0.0911287 -7.76447e-20)
(0.995819 0.091 -2.83207e-20)
(0.995737 0.0908451 2.50329e-19)
(0.995636 0.0906688 -6.24941e-19)
(0.995513 0.0904706 -2.12356e-20)
(0.995371 0.09023 -3.40813e-19)
(0.995209 0.089921 -1.73522e-19)
(0.995022 0.0895295 8.132e-20)
(0.994805 0.0890445 -5.92488e-19)
(0.994551 0.0884519 9.64525e-19)
(0.994254 0.0877349 1.103e-19)
(0.993908 0.0868753 1.17757e-18)
(0.993507 0.0858572 -9.05205e-19)
(0.993045 0.0846693 -6.2476e-19)
(0.992516 0.0833073 -3.8332e-19)
(0.991918 0.0817738 1.69263e-18)
(0.991253 0.0800839 2.63749e-18)
(0.99053 0.0782612 4.23011e-19)
(0.989765 0.0763372 8.88687e-19)
(0.988984 0.0743495 -2.07975e-18)
(0.988228 0.0723256 8.92852e-18)
(0.987533 0.0702896 2.12072e-18)
(0.986964 0.0682307 -2.37569e-18)
(0.986556 0.0661356 -4.04403e-20)
(0.986358 0.0639473 6.6585e-18)
(0.986416 0.0615575 8.59915e-20)
(0.986803 0.0588207 -6.35802e-18)
(0.987605 0.055546 -1.17522e-17)
(0.988905 0.0514348 9.89705e-18)
(0.990698 0.0477759 -3.52529e-18)
(0.990211 0.0353348 2.7437e-18)
(0.995384 0.093608 -4.7451e-21)
(0.99535 0.0935879 1.90565e-20)
(0.995325 0.0935524 -3.12492e-20)
(0.995304 0.093524 2.3224e-20)
(0.995287 0.0934908 1.49029e-20)
(0.995276 0.0934549 -1.58065e-20)
(0.99527 0.0934156 1.30149e-21)
(0.99527 0.0933725 -1.16738e-20)
(0.995276 0.0933258 -3.90018e-20)
(0.995287 0.0932742 7.44155e-20)
(0.995303 0.0932191 -1.1442e-19)
(0.995325 0.093159 9.9648e-20)
(0.995352 0.0930959 8.68531e-20)
(0.995383 0.0930279 -1.33637e-19)
(0.995418 0.0929568 -4.31231e-20)
(0.995456 0.0928817 1.61476e-19)
(0.995498 0.0928026 -1.94062e-19)
(0.995541 0.0927202 2.66466e-19)
(0.995586 0.0926331 -5.06068e-20)
(0.995632 0.0925436 2.82023e-20)
(0.995677 0.0924488 -4.59105e-20)
(0.995722 0.0923517 -5.73037e-20)
(0.995764 0.0922476 -1.07887e-19)
(0.995805 0.0921465 1.85051e-19)
(0.995827 0.092052 -1.2612e-19)
(0.995816 0.0919607 -1.21633e-19)
(0.995784 0.0918526 2.43934e-19)
(0.995746 0.0917325 -2.2702e-19)
(0.995699 0.0915913 3.63527e-19)
(0.995643 0.0914302 -1.88289e-19)
(0.995577 0.091239 1.50696e-19)
(0.995498 0.0910166 -2.45013e-19)
(0.995402 0.0907702 2.79101e-19)
(0.995287 0.0904987 -1.29451e-20)
(0.995155 0.0901819 -1.11396e-20)
(0.995006 0.0897952 -3.8716e-23)
(0.994837 0.0893255 -1.39223e-19)
(0.994642 0.0887635 5.16832e-19)
(0.994415 0.0880971 -4.31358e-19)
(0.994151 0.0873121 -2.48649e-18)
(0.993845 0.0863928 -1.10174e-18)
(0.993488 0.0853257 8.86097e-19)
(0.993077 0.0841023 -8.81813e-19)
(0.992603 0.08272 -1.21393e-18)
(0.992064 0.0811829 -9.38918e-20)
(0.991458 0.0795057 3.1609e-18)
(0.990793 0.0777107 -4.81139e-18)
(0.99008 0.0758266 -5.04987e-18)
(0.989342 0.0738869 -3.61235e-18)
(0.988616 0.0719148 -5.74964e-18)
(0.987935 0.0699293 3.3191e-18)
(0.987363 0.067916 -1.4712e-18)
(0.986937 0.0658579 -1.09594e-17)
(0.986707 0.063704 1.62782e-18)
(0.986719 0.061343 2.97538e-18)
(0.987053 0.0586395 -4.61058e-18)
(0.987791 0.055403 3.56401e-18)
(0.989028 0.0513554 1.7789e-18)
(0.99053 0.0478659 5.94193e-18)
(0.991892 0.0360236 -3.63487e-19)
(0.995191 0.0940499 5.34925e-21)
(0.995147 0.0940381 -2.4015e-20)
(0.995114 0.0940076 1.16819e-20)
(0.995084 0.093984 2.1635e-20)
(0.995059 0.0939553 -4.61847e-20)
(0.995038 0.0939234 3.85276e-20)
(0.995023 0.093888 -2.54761e-20)
(0.995013 0.093849 2.15215e-20)
(0.99501 0.0938065 3.39198e-20)
(0.995012 0.0937594 -8.13078e-20)
(0.99502 0.0937088 1.16406e-19)
(0.995034 0.0936532 4.86635e-20)
(0.995053 0.093594 -1.93736e-19)
(0.995078 0.0935295 -3.53727e-20)
(0.995108 0.0934608 1.01635e-19)
(0.995143 0.0933869 6.4655e-20)
(0.995181 0.0933075 -7.79476e-20)
(0.995223 0.0932227 6.82677e-20)
(0.995267 0.0931312 1.04042e-19)
(0.995313 0.0930348 -5.09661e-20)
(0.99536 0.0929302 -2.9079e-20)
(0.995408 0.0928203 1.02306e-19)
(0.995454 0.0926995 2.1085e-19)
(0.995499 0.0925787 -1.5258e-19)
(0.995527 0.0924593 -1.68428e-19)
(0.995517 0.092337 1.82528e-19)
(0.995483 0.0921925 -1.36822e-19)
(0.995443 0.0920328 -5.73456e-20)
(0.995395 0.0918484 4.48963e-19)
(0.995338 0.0916407 -1.91902e-19)
(0.995272 0.0913995 -1.5459e-19)
(0.995195 0.0911242 2.02986e-19)
(0.995103 0.0908217 1.43172e-19)
(0.994993 0.0904921 -1.17678e-19)
(0.994868 0.0901163 -8.66897e-20)
(0.994729 0.0896695 2.99313e-19)
(0.994573 0.0891409 9.60123e-20)
(0.994395 0.0885224 9.76625e-20)
(0.994189 0.0878036 -6.05038e-19)
(0.993952 0.0869727 -5.739e-19)
(0.993676 0.0860158 1.30048e-18)
(0.993357 0.0849216 1.11087e-18)
(0.992987 0.0836835 2.04456e-18)
(0.99256 0.0823001 -1.83855e-18)
(0.992072 0.0807756 -2.12882e-18)
(0.99152 0.0791242 -1.64927e-18)
(0.990907 0.0773658 4.02497e-18)
(0.990245 0.075526 3.90758e-18)
(0.98955 0.0736338 -4.46323e-18)
(0.988859 0.0717083 -6.1914e-18)
(0.9882 0.0697639 -1.4955e-18)
(0.987636 0.0677834 1.12703e-18)
(0.987203 0.0657466 2.82178e-19)
(0.986953 0.0636075 -3.52947e-18)
(0.986932 0.0612534 2.6507e-18)
(0.987224 0.0585558 1.60313e-18)
(0.987905 0.0553233 2.14896e-18)
(0.98909 0.0512915 -5.84908e-18)
(0.99036 0.0478725 -4.41008e-19)
(0.992899 0.036388 -2.9216e-19)
(0.995041 0.0943321 -8.54365e-21)
(0.994989 0.0943218 -6.78719e-21)
(0.994946 0.0942953 9.21393e-21)
(0.994906 0.0942763 3.23622e-20)
(0.994871 0.0942527 -6.93892e-20)
(0.994839 0.0942265 7.89789e-20)
(0.994813 0.0941973 -3.62782e-21)
(0.994792 0.0941644 -4.92398e-21)
(0.994776 0.094128 -2.76849e-20)
(0.994767 0.0940866 6.63371e-20)
(0.994763 0.0940415 -1.01827e-19)
(0.994766 0.0939909 3.82526e-20)
(0.994774 0.0939366 -1.17917e-21)
(0.994789 0.0938764 5.87568e-20)
(0.994809 0.0938115 2.7481e-20)
(0.994834 0.0937407 -1.45832e-19)
(0.994865 0.0936633 1.25607e-19)
(0.9949 0.0935794 4.87818e-20)
(0.994938 0.093487 -1.40599e-19)
(0.99498 0.093388 6.82432e-20)
(0.995023 0.0932782 3.16556e-20)
(0.995068 0.0931605 -2.14092e-20)
(0.995113 0.0930286 2.59583e-20)
(0.995158 0.0928942 -1.5733e-20)
(0.995187 0.0927565 -1.71034e-19)
(0.995176 0.0926106 1.10864e-19)
(0.995139 0.0924382 -1.6529e-19)
(0.995095 0.0922481 2.91932e-19)
(0.995044 0.0920305 -5.78748e-20)
(0.994986 0.0917872 -3.08432e-20)
(0.994918 0.091508 -8.25938e-21)
(0.994841 0.0911921 3.07376e-19)
(0.994749 0.0908475 -1.17666e-19)
(0.994643 0.0904743 -5.90177e-20)
(0.994522 0.0900536 2.01466e-19)
(0.994388 0.0895625 1.78014e-19)
(0.99424 0.0889911 -3.03391e-19)
(0.994073 0.0883326 5.36407e-20)
(0.993882 0.0875781 6.89499e-19)
(0.993662 0.0867176 1.52751e-20)
(0.993409 0.0857389 4.4087e-19)
(0.993117 0.084632 -7.49749e-19)
(0.992779 0.0833917 1.09584e-18)
(0.992389 0.0820174 2.79323e-18)
(0.991942 0.0805129 1.03308e-18)
(0.991434 0.0788909 -1.18599e-18)
(0.990867 0.0771689 -3.8539e-18)
(0.99025 0.0753692 4.88875e-19)
(0.989597 0.0735165 1.36347e-18)
(0.988941 0.0716261 3.19541e-18)
(0.988308 0.0697084 -5.61616e-19)
(0.987759 0.0677437 -4.65622e-18)
(0.987329 0.0657091 3.81307e-18)
(0.987071 0.0635634 -2.41555e-18)
(0.987029 0.0611937 4.10866e-18)
(0.987292 0.058476 1.05097e-18)
(0.987932 0.0552187 3.62494e-18)
(0.98908 0.0511677 3.89963e-18)
(0.990179 0.0477626 1.54349e-19)
(0.993496 0.0365039 -2.002e-19)
(0.994914 0.0945244 -3.87496e-21)
(0.994852 0.0945255 3.31317e-21)
(0.994801 0.0945049 1.65677e-20)
(0.994752 0.0944911 2.60429e-20)
(0.994706 0.0944719 -7.67601e-20)
(0.994664 0.0944493 4.39031e-20)
(0.994627 0.094423 -7.79247e-20)
(0.994594 0.0943931 1.21178e-19)
(0.994566 0.0943596 -5.64685e-20)
(0.994543 0.0943213 9.85428e-21)
(0.994527 0.0942793 1.06601e-19)
(0.994516 0.0942321 -2.4075e-19)
(0.994512 0.094181 1.62883e-19)
(0.994514 0.0941239 2.26771e-20)
(0.994521 0.0940618 3.56819e-20)
(0.994535 0.0939933 -1.50369e-19)
(0.994554 0.0939176 7.33618e-20)
(0.994578 0.0938343 -8.99215e-20)
(0.994607 0.0937416 1.74997e-19)
(0.99464 0.0936408 -2.25955e-20)
(0.994676 0.0935278 -2.18073e-19)
(0.994714 0.0934049 8.81004e-20)
(0.994753 0.0932655 -4.60797e-21)
(0.994793 0.0931215 -3.1559e-19)
(0.99482 0.0929708 2.31382e-19)
(0.994805 0.0928075 1.69036e-19)
(0.994763 0.0926144 1.09468e-19)
(0.994715 0.0924018 -1.4317e-19)
(0.99466 0.0921599 -1.57444e-19)
(0.994597 0.0918905 7.33471e-20)
(0.994527 0.0915835 9.70681e-20)
(0.994447 0.0912386 -1.28147e-19)
(0.994355 0.090863 -1.8858e-19)
(0.994248 0.0904579 3.92238e-19)
(0.994127 0.0900054 5.39139e-20)
(0.993996 0.0894827 -6.34704e-19)
(0.993852 0.0888818 7.03163e-20)
(0.99369 0.0881965 4.44149e-19)
(0.993507 0.0874192 1.67934e-20)
(0.993298 0.0865413 6.77182e-19)
(0.99306 0.0855519 -1.02518e-18)
(0.992786 0.0844419 -4.68318e-20)
(0.992471 0.083207 -7.90604e-19)
(0.992108 0.0818467 1.52223e-19)
(0.991692 0.0803643 1.40998e-18)
(0.991218 0.0787707 4.18797e-18)
(0.990689 0.0770809 8.9532e-19)
(0.990111 0.0753139 -3.13003e-18)
(0.989497 0.0734903 2.21633e-18)
(0.988875 0.0716222 8.2834e-18)
(0.98827 0.0697166 -6.52902e-18)
(0.987741 0.0677515 7.506e-18)
(0.987323 0.0657024 -4.47511e-18)
(0.987066 0.0635315 -1.84288e-18)
(0.987017 0.0611273 -8.22577e-18)
(0.987263 0.0583689 -3.40195e-19)
(0.987876 0.0550661 -2.02686e-18)
(0.989004 0.0509732 -1.56759e-18)
(0.989984 0.0475517 5.05227e-20)
(0.993846 0.0364385 -5.92859e-19)
(0.99479 0.0946559 4.9844e-21)
(0.994721 0.0946573 1.72161e-21)
(0.994662 0.094639 -1.78768e-20)
(0.994605 0.0946284 1.69572e-20)
(0.99455 0.0946128 -7.46313e-21)
(0.994499 0.0945943 1.32593e-20)
(0.994451 0.0945724 4.46861e-21)
(0.994407 0.0945466 -6.51954e-20)
(0.994367 0.094517 2.82329e-20)
(0.994333 0.094482 -1.87569e-20)
(0.994304 0.094443 1.15396e-20)
(0.99428 0.0943984 4.38079e-20)
(0.994262 0.0943499 -7.93774e-21)
(0.99425 0.0942952 2.60997e-20)
(0.994244 0.0942353 -1.09301e-19)
(0.994244 0.0941691 4.21824e-20)
(0.99425 0.0940952 1.90087e-20)
(0.994261 0.0940133 -4.82049e-20)
(0.994277 0.0939213 9.57244e-20)
(0.994298 0.0938204 3.10065e-20)
(0.994323 0.0937057 -3.25866e-21)
(0.99435 0.0935799 -3.08616e-20)
(0.99438 0.0934356 1.31645e-19)
(0.994412 0.0932852 -3.60347e-19)
(0.994434 0.0931254 1.81453e-19)
(0.994414 0.0929496 7.33047e-20)
(0.994366 0.0927417 -1.26407e-19)
(0.994311 0.0925132 2.14902e-19)
(0.994251 0.0922541 -1.02697e-19)
(0.994184 0.0919665 -5.29896e-20)
(0.994109 0.0916402 -1.09436e-19)
(0.994025 0.0912747 -3.72054e-20)
(0.993929 0.0908782 1.15898e-19)
(0.99382 0.0904514 -3.57167e-19)
(0.993698 0.0899767 6.74203e-19)
(0.993565 0.089433 -3.64502e-20)
(0.99342 0.0888128 3.84227e-19)
(0.993259 0.0881108 -9.74757e-19)
(0.993079 0.0873203 -3.41403e-19)
(0.992876 0.0864339 -4.5152e-20)
(0.992645 0.0854413 -2.22407e-19)
(0.992382 0.0843344 -1.4043e-20)
(0.992081 0.0831091 -1.012e-18)
(0.991736 0.0817648 1.78487e-19)
(0.991343 0.0803039 5.22377e-19)
(0.990896 0.0787357 -3.70921e-18)
(0.990398 0.0770723 4.66148e-18)
(0.989853 0.0753298 7.3996e-19)
(0.989272 0.0735252 -8.92824e-20)
(0.988683 0.0716674 -5.09549e-18)
(0.988107 0.0697609 2.04951e-18)
(0.987602 0.0677816 -3.84943e-18)
(0.987201 0.0657039 6.11031e-18)
(0.986955 0.0634929 1.72449e-18)
(0.986908 0.0610394 -3.42683e-18)
(0.98715 0.0582252 1.2828e-18)
(0.987751 0.0548624 -2.67387e-18)
(0.988874 0.0507132 -2.65673e-19)
(0.989777 0.0472597 -8.58635e-19)
(0.994039 0.036242 -2.02829e-19)
(0.994674 0.0947548 -9.97014e-22)
(0.994597 0.0947609 -3.90581e-21)
(0.994531 0.0947449 -3.36724e-21)
(0.994466 0.0947362 3.24257e-20)
(0.994402 0.0947222 -1.7915e-20)
(0.994342 0.094705 -2.12612e-20)
(0.994284 0.0946843 -7.9078e-21)
(0.994229 0.0946599 -3.22591e-20)
(0.994179 0.0946319 2.02337e-20)
(0.994132 0.0945989 3.05123e-21)
(0.99409 0.094562 1.09374e-21)
(0.994054 0.09452 8.28643e-20)
(0.994022 0.0944737 -5.83789e-20)
(0.993996 0.0944212 -7.1643e-21)
(0.993975 0.0943633 6.5261e-20)
(0.99396 0.0942988 -3.55673e-20)
(0.993951 0.0942262 -1.29605e-20)
(0.993947 0.0941449 2.21421e-20)
(0.993949 0.0940531 6.83e-20)
(0.993956 0.0939517 3.67016e-20)
(0.993967 0.0938358 1.28395e-20)
(0.993982 0.0937077 -9.23019e-20)
(0.993999 0.0935601 4.47198e-20)
(0.994021 0.0934051 8.9713e-20)
(0.994035 0.0932391 -1.81085e-19)
(0.99401 0.0930545 5.61357e-20)
(0.993954 0.0928365 -2.16368e-19)
(0.993894 0.0925971 1.69228e-19)
(0.993827 0.0923266 1.4448e-19)
(0.993754 0.0920268 -2.24686e-19)
(0.993673 0.0916879 -9.56563e-20)
(0.993584 0.0913097 1.33528e-19)
(0.993483 0.0908991 4.37658e-20)
(0.993369 0.090458 -1.35248e-19)
(0.993243 0.0899696 -1.57019e-19)
(0.993106 0.0894126 -1.97929e-19)
(0.992958 0.0887812 1.2293e-19)
(0.992794 0.0880702 3.20005e-19)
(0.992612 0.0872737 1.13979e-19)
(0.992409 0.0863851 -1.44678e-19)
(0.99218 0.0853946 1.35501e-18)
(0.991922 0.0842944 -7.92222e-20)
(0.991629 0.0830809 1.64334e-18)
(0.991296 0.0817529 -3.08099e-18)
(0.990918 0.0803117 3.36598e-19)
(0.990491 0.0787647 1.49552e-19)
(0.990016 0.0771218 -5.57519e-19)
(0.989499 0.075396 -2.69696e-18)
(0.988948 0.0736011 -4.73851e-18)
(0.98839 0.0717437 4.14932e-18)
(0.987843 0.0698254 5.31275e-18)
(0.987364 0.0678212 2.49626e-18)
(0.986986 0.0657041 -5.46239e-18)
(0.986757 0.063442 2.56827e-18)
(0.986721 0.0609287 6.06542e-18)
(0.986969 0.0580479 1.29866e-18)
(0.987569 0.0546158 2.59784e-18)
(0.988701 0.0504016 6.49421e-19)
(0.989562 0.0469083 -2.8326e-19)
(0.994136 0.03595 1.50796e-18)
(0.994575 0.0948254 1.14227e-21)
(0.994489 0.0948267 -3.42675e-21)
(0.994416 0.0948104 1.20955e-20)
(0.994342 0.0948023 3.11313e-21)
(0.99427 0.09479 -1.64631e-20)
(0.994199 0.0947754 -1.87511e-20)
(0.994131 0.0947579 4.41279e-20)
(0.994065 0.0947369 -4.77632e-20)
(0.994002 0.0947122 -1.15548e-20)
(0.993942 0.094682 2.89448e-20)
(0.993887 0.0946475 2.63598e-20)
(0.993836 0.0946075 7.88263e-20)
(0.993789 0.0945632 -4.47515e-20)
(0.993748 0.0945125 -7.47102e-20)
(0.993712 0.0944561 1.61485e-20)
(0.993681 0.0943933 -5.912e-20)
(0.993656 0.0943221 4.3816e-20)
(0.993637 0.094242 -7.1585e-20)
(0.993623 0.0941509 1.21343e-20)
(0.993614 0.0940501 -2.13933e-20)
(0.99361 0.0939336 -1.28689e-20)
(0.99361 0.0938044 -6.16837e-20)
(0.993614 0.0936546 6.25348e-21)
(0.993623 0.0934966 1.31339e-19)
(0.993629 0.0933266 -4.10967e-20)
(0.993597 0.0931362 1.37849e-20)
(0.993534 0.0929114 3.60166e-20)
(0.993467 0.0926652 -4.96557e-20)
(0.993393 0.0923874 -7.62428e-21)
(0.993313 0.0920804 6.50973e-20)
(0.993226 0.0917339 7.48119e-20)
(0.99313 0.0913477 -5.98475e-20)
(0.993023 0.0909294 -1.69445e-19)
(0.992903 0.0904803 -2.26672e-19)
(0.992771 0.0899835 3.85746e-19)
(0.992628 0.0894195 9.52691e-20)
(0.992474 0.0887828 5.37574e-20)
(0.992305 0.0880682 3.17886e-19)
(0.992118 0.0872706 -3.47851e-19)
(0.991911 0.086384 2.11709e-19)
(0.99168 0.085399 -5.23772e-20)
(0.991421 0.0843077 8.02401e-20)
(0.991131 0.0831066 -5.8256e-19)
(0.990804 0.081794 1.29976e-18)
(0.990435 0.0803699 -1.71205e-18)
(0.990022 0.0788403 1.05009e-18)
(0.989566 0.0772122 -3.28733e-18)
(0.989071 0.0754964 1.25317e-18)
(0.988547 0.0737036 2.39546e-18)
(0.988016 0.0718381 -3.87986e-18)
(0.987498 0.0698998 -1.46801e-18)
(0.987047 0.0678621 -6.96532e-19)
(0.986695 0.0656974 -5.05847e-19)
(0.986488 0.063376 -2.08914e-18)
(0.986471 0.0607951 2.32453e-19)
(0.986733 0.0578406 4.50211e-19)
(0.987344 0.0543331 -6.45837e-19)
(0.988496 0.0500483 -9.67579e-20)
(0.989339 0.0465114 -2.05313e-19)
(0.994169 0.0355876 -1.44799e-18)
(0.994471 0.094889 1.82253e-21)
(0.994378 0.0949001 -1.53438e-21)
(0.994297 0.0948873 1.38305e-21)
(0.994215 0.0948818 8.86965e-21)
(0.994134 0.094871 1.28121e-20)
(0.994054 0.0948571 -4.97888e-20)
(0.993975 0.0948395 3.57383e-20)
(0.993899 0.0948184 7.29953e-21)
(0.993824 0.0947934 -2.25171e-21)
(0.993752 0.0947631 -1.55715e-20)
(0.993684 0.0947287 4.71418e-20)
(0.993619 0.094689 -1.56766e-20)
(0.993558 0.0946448 -2.11316e-20)
(0.993502 0.0945942 -6.07262e-20)
(0.99345 0.094538 1.2105e-19)
(0.993404 0.0944752 -2.55494e-20)
(0.993362 0.094404 -2.14424e-20)
(0.993327 0.0943234 -5.89762e-20)
(0.993296 0.0942319 6.4693e-20)
(0.993272 0.0941304 3.49287e-20)
(0.993252 0.0940131 -1.41843e-20)
(0.993237 0.0938826 2.79014e-20)
(0.993226 0.0937313 -1.1402e-19)
(0.993221 0.0935712 7.65258e-21)
(0.993217 0.0933986 6.32667e-20)
(0.993179 0.0932046 -1.26057e-20)
(0.99311 0.0929759 -1.7249e-19)
(0.993035 0.0927256 1.70854e-20)
(0.992955 0.0924441 1.46732e-19)
(0.992868 0.092133 -3.2485e-20)
(0.992773 0.0917828 -7.41017e-20)
(0.99267 0.0913934 3.03252e-20)
(0.992556 0.0909709 1.23126e-19)
(0.992428 0.0905177 3.00009e-19)
(0.992289 0.0900176 -5.32615e-20)
(0.992138 0.0894507 4.53835e-20)
(0.991976 0.0888129 -4.9342e-19)
(0.991799 0.0880988 -1.84118e-19)
(0.991606 0.0873036 1.09661e-19)
(0.991392 0.0864219 -4.38597e-19)
(0.991155 0.0854442 -1.40462e-19)
(0.990892 0.0843629 2.49105e-19)
(0.9906 0.083174 1.19451e-19)
(0.990274 0.0818754 5.34519e-19)
(0.989911 0.0804659 2.09534e-18)
(0.989507 0.0789495 -1.7629e-18)
(0.989065 0.0773314 2.86626e-18)
(0.988588 0.0756197 2.36771e-18)
(0.988087 0.0738225 5.52674e-20)
(0.987582 0.0719425 2.91237e-18)
(0.987091 0.0699775 -4.09607e-18)
(0.986669 0.0679001 -4.49064e-18)
(0.986345 0.0656824 3.14051e-18)
(0.986165 0.0632961 2.30238e-18)
(0.986171 0.0606425 -6.15959e-19)
(0.986455 0.0576097 -3.42252e-18)
(0.987085 0.0540232 5.94522e-19)
(0.988267 0.0496647 2.23533e-19)
(0.989113 0.0460825 8.92779e-19)
(0.994163 0.0351726 -1.9644e-18)
(0.994352 0.094943 -1.62699e-21)
(0.994251 0.094951 1.77868e-21)
(0.994163 0.0949381 1.19918e-20)
(0.994074 0.0949337 -1.56e-20)
(0.993985 0.0949246 2.80981e-20)
(0.993897 0.094913 -4.10361e-20)
(0.99381 0.0948981 1.15295e-20)
(0.993724 0.0948795 -5.57926e-22)
(0.993639 0.0948567 2.49512e-20)
(0.993556 0.0948278 -1.29443e-20)
(0.993476 0.0947942 3.52754e-21)
(0.993399 0.0947549 3.86764e-21)
(0.993325 0.0947111 -5.9084e-20)
(0.993254 0.0946607 1.80181e-20)
(0.993188 0.0946047 4.00919e-20)
(0.993126 0.0945422 8.87978e-22)
(0.993069 0.0944713 -6.42823e-20)
(0.993018 0.0943911 2.47935e-20)
(0.992971 0.0942999 1.17109e-19)
(0.99293 0.0941988 -7.5533e-20)
(0.992894 0.0940814 -5.42908e-20)
(0.992863 0.0939506 4.75722e-20)
(0.992836 0.0937986 2.61649e-20)
(0.992817 0.0936372 3.10984e-20)
(0.992804 0.0934634 -5.96053e-20)
(0.99276 0.0932676 -1.22977e-19)
(0.992684 0.0930369 9.38291e-20)
(0.992602 0.0927848 1.29784e-19)
(0.992515 0.0925016 2.39823e-20)
(0.992421 0.0921893 -5.22739e-20)
(0.992319 0.0918381 2.77767e-20)
(0.992208 0.0914475 3.12601e-20)
(0.992085 0.0910246 -7.88536e-20)
(0.99195 0.0905708 -2.8103e-20)
(0.991801 0.0900698 -1.48301e-19)
(0.991642 0.0895034 -6.00946e-20)
(0.991471 0.0888673 -2.01666e-20)
(0.991284 0.0881562 1.25906e-19)
(0.991081 0.0873656 -1.48657e-19)
(0.990859 0.0864904 6.73571e-20)
(0.990614 0.085521 6.73211e-20)
(0.990344 0.0844496 1.10025e-20)
(0.990048 0.0832723 -7.17868e-19)
(0.98972 0.0819859 -1.02771e-18)
(0.989357 0.0805882 -1.09053e-18)
(0.988959 0.0790815 2.01117e-18)
(0.988526 0.077469 -3.04173e-19)
(0.988065 0.0757565 -9.7854e-19)
(0.987583 0.0739499 4.58707e-19)
(0.987101 0.0720502 -2.97152e-18)
(0.986637 0.0700537 1.45408e-18)
(0.986243 0.0679321 3.54442e-18)
(0.985949 0.0656571 -5.32219e-19)
(0.985798 0.0632023 -2.21502e-18)
(0.985832 0.0604727 9.53633e-19)
(0.986143 0.0573585 6.44462e-19)
(0.9868 0.0536909 2.51914e-20)
(0.98802 0.0492566 -1.08489e-18)
(0.988885 0.0456282 -2.71595e-18)
(0.994126 0.0347176 4.63373e-18)
(0.994232 0.0949982 -1.07101e-21)
(0.994123 0.0950094 1.54938e-21)
(0.994028 0.0949972 3.06092e-22)
(0.993931 0.0949931 5.75125e-21)
(0.993835 0.094984 -8.70038e-21)
(0.993738 0.094972 -1.76569e-20)
(0.993642 0.0949567 6.30137e-21)
(0.993546 0.0949381 -8.14697e-21)
(0.993451 0.0949154 1.77153e-20)
(0.993358 0.0948872 -3.57964e-21)
(0.993266 0.0948546 -1.12621e-20)
(0.993177 0.0948165 9.55511e-21)
(0.99309 0.0947737 1.48706e-20)
(0.993006 0.0947243 3.92585e-20)
(0.992925 0.0946691 -7.05614e-20)
(0.992848 0.0946073 3.55433e-20)
(0.992776 0.0945368 5.75799e-21)
(0.992708 0.0944565 -3.36514e-20)
(0.992646 0.0943653 -1.99832e-20)
(0.992589 0.094264 6.51489e-20)
(0.992536 0.0941464 -6.6242e-20)
(0.992489 0.0940152 2.01686e-20)
(0.992447 0.0938629 -5.2645e-20)
(0.992413 0.0937008 8.10285e-20)
(0.99239 0.0935267 -1.54116e-20)
(0.99234 0.0933303 -4.18652e-20)
(0.992258 0.0930992 3.27883e-20)
(0.99217 0.0928468 6.04577e-20)
(0.992076 0.0925638 -6.09761e-20)
(0.991974 0.0922519 3.94836e-20)
(0.991864 0.0919015 -1.10731e-19)
(0.991746 0.0915127 -1.39815e-20)
(0.991615 0.0910906 5.43952e-20)
(0.99147 0.0906379 -2.78225e-20)
(0.991312 0.0901389 -4.90131e-20)
(0.991143 0.0895746 -1.44163e-19)
(0.990962 0.0889422 2.00878e-19)
(0.990765 0.0882359 -5.11705e-20)
(0.990551 0.0874512 7.36979e-20)
(0.990318 0.0865833 1.11877e-19)
(0.990063 0.0856226 5.63722e-20)
(0.989784 0.0845608 -7.14273e-20)
(0.98948 0.0833938 3.17498e-19)
(0.989147 0.0821178 6.43961e-19)