/*--------------------------------*- C++ -*----------------------------------*\
  =========                 |
  \\      /  F ield         | OpenFOAM: The Open Source CFD Toolbox
   \\    /   O peration     | Website:  https://openfoam.org
    \\  /    A nd           | Version:  6.0
     \\/     M anipulation  |
\*---------------------------------------------------------------------------*/
FoamFile
{
    version     2.0;
    format      ascii;
    class       volScalarField;
    location    "1.26";
    object      p;
}
// * * * * * * * * * * * * * * * * * * * * * * * * * * * * * * * * * * * * * //

dimensions      [0 2 -2 0 0 0 0];

internalField   nonuniform List<scalar> 
13500
(
0.099977
0.10004
0.099435
0.099221
0.098117
0.09799
0.097156
0.097926
0.099483
0.10364
0.12484
0.17043
0.099977
0.10005
0.099434
0.099222
0.098117
0.09799
0.097155
0.097926
0.09948
0.1037
0.12416
0.16539
0.099978
0.10005
0.099434
0.099223
0.098116
0.097991
0.097153
0.097925
0.099472
0.10374
0.12328
0.16092
0.099978
0.10005
0.099434
0.099225
0.098115
0.097992
0.097149
0.097922
0.099458
0.10376
0.12229
0.15744
0.099979
0.10005
0.099434
0.099227
0.098113
0.097993
0.097145
0.097917
0.09944
0.10376
0.12125
0.15451
0.09998
0.10005
0.099435
0.099229
0.098112
0.097993
0.097141
0.097911
0.099416
0.10375
0.12017
0.1519
0.099982
0.10005
0.099435
0.099231
0.098111
0.097993
0.097136
0.097904
0.099388
0.10373
0.11908
0.14952
0.099984
0.10006
0.099436
0.099234
0.09811
0.097993
0.09713
0.097896
0.099356
0.1037
0.118
0.14735
0.099986
0.10006
0.099437
0.099236
0.098109
0.097993
0.097124
0.097886
0.099319
0.10365
0.11694
0.14533
0.099989
0.10006
0.099439
0.099239
0.098108
0.097992
0.097117
0.097875
0.099277
0.10359
0.11591
0.14345
0.099991
0.10007
0.09944
0.099242
0.098107
0.097992
0.097109
0.097862
0.099231
0.10352
0.11492
0.14168
0.099995
0.10007
0.099442
0.099245
0.098106
0.097991
0.097101
0.097849
0.09918
0.10344
0.11396
0.14001
0.099998
0.10007
0.099444
0.099248
0.098105
0.09799
0.097092
0.097833
0.099126
0.10335
0.11305
0.13844
0.1
0.10008
0.099447
0.099252
0.098104
0.097988
0.097082
0.097817
0.099066
0.10325
0.11217
0.13694
0.10001
0.10008
0.099449
0.099255
0.098103
0.097987
0.097072
0.097799
0.099003
0.10315
0.11133
0.13551
0.10001
0.10009
0.099452
0.099259
0.098102
0.097985
0.097061
0.09778
0.098936
0.10305
0.11052
0.13414
0.10002
0.10009
0.099456
0.099263
0.098101
0.097983
0.097049
0.097759
0.098865
0.10294
0.10975
0.13284
0.10002
0.1001
0.099459
0.099267
0.0981
0.097981
0.097037
0.097737
0.098791
0.10283
0.109
0.13159
0.10003
0.10011
0.099463
0.099271
0.098099
0.097979
0.097024
0.097714
0.098713
0.10271
0.10828
0.13039
0.10003
0.10011
0.099467
0.099276
0.098098
0.097976
0.097011
0.09769
0.098631
0.1026
0.10758
0.12924
0.10004
0.10012
0.099471
0.09928
0.098097
0.097973
0.096997
0.097664
0.098547
0.10248
0.10691
0.12813
0.10005
0.10013
0.099476
0.099285
0.098097
0.09797
0.096982
0.097637
0.09846
0.10237
0.10625
0.12705
0.10005
0.10013
0.099481
0.09929
0.098096
0.097967
0.096967
0.097609
0.098369
0.10225
0.10561
0.12601
0.10006
0.10014
0.099486
0.099295
0.098095
0.097964
0.096951
0.09758
0.098277
0.10213
0.10498
0.125
0.10007
0.10015
0.099492
0.099301
0.098095
0.09796
0.096934
0.09755
0.098181
0.10202
0.10437
0.12403
0.10008
0.10016
0.099498
0.099306
0.098094
0.097956
0.096917
0.097518
0.098084
0.1019
0.10376
0.12308
0.10009
0.10017
0.099504
0.099312
0.098093
0.097952
0.096899
0.097486
0.097984
0.10178
0.10317
0.12215
0.10009
0.10018
0.09951
0.099318
0.098093
0.097948
0.096881
0.097452
0.097881
0.10166
0.10259
0.12125
0.1001
0.10019
0.099517
0.099325
0.098092
0.097944
0.096861
0.097418
0.097777
0.10154
0.10202
0.12037
0.10011
0.1002
0.099524
0.099331
0.098092
0.097939
0.096842
0.097382
0.097671
0.10142
0.10146
0.11952
0.10012
0.10021
0.099532
0.099338
0.098092
0.097934
0.096821
0.097346
0.097562
0.1013
0.1009
0.11868
0.10013
0.10022
0.09954
0.099345
0.098091
0.097929
0.0968
0.097309
0.097452
0.10118
0.10036
0.11786
0.10015
0.10023
0.099548
0.099352
0.098091
0.097924
0.096779
0.09727
0.09734
0.10105
0.099822
0.11706
0.10016
0.10024
0.099556
0.099359
0.098091
0.097919
0.096757
0.097231
0.097226
0.10093
0.099293
0.11628
0.10017
0.10025
0.099565
0.099367
0.098091
0.097913
0.096734
0.097192
0.09711
0.1008
0.098773
0.11551
0.10018
0.10026
0.099574
0.099375
0.098091
0.097907
0.096711
0.097151
0.096993
0.10067
0.09826
0.11476
0.10019
0.10028
0.099584
0.099383
0.098091
0.097901
0.096687
0.097109
0.096874
0.10054
0.097756
0.11403
0.10021
0.10029
0.099594
0.099391
0.098091
0.097895
0.096662
0.097067
0.096753
0.10041
0.097259
0.11331
0.10022
0.1003
0.099604
0.0994
0.098092
0.097888
0.096637
0.097024
0.09663
0.10027
0.09677
0.1126
0.10024
0.10032
0.099615
0.099408
0.098092
0.097882
0.096611
0.09698
0.096507
0.10014
0.09629
0.11191
0.10025
0.10033
0.099626
0.099417
0.098092
0.097875
0.096585
0.096936
0.096381
0.1
0.095817
0.11122
0.10027
0.10035
0.099637
0.099427
0.098093
0.097868
0.096558
0.096891
0.096255
0.099864
0.095352
0.11055
0.10028
0.10036
0.099649
0.099436
0.098094
0.097861
0.096531
0.096845
0.096126
0.099724
0.094894
0.1099
0.1003
0.10038
0.099661
0.099446
0.098095
0.097853
0.096503
0.096799
0.095997
0.099582
0.094444
0.10925
0.10031
0.10039
0.099674
0.099456
0.098096
0.097846
0.096475
0.096752
0.095866
0.099439
0.094002
0.10861
0.10033
0.10041
0.099687
0.099466
0.098097
0.097838
0.096446
0.096704
0.095735
0.099295
0.093568
0.10799
0.10035
0.10043
0.0997
0.099477
0.098098
0.09783
0.096416
0.096656
0.095602
0.099149
0.093141
0.10737
0.10037
0.10045
0.099714
0.099488
0.0981
0.097822
0.096386
0.096607
0.095467
0.099001
0.092721
0.10677
0.10039
0.10046
0.099729
0.099499
0.098101
0.097814
0.096356
0.096558
0.095332
0.098853
0.092308
0.10617
0.1004
0.10048
0.099743
0.09951
0.098103
0.097805
0.096325
0.096508
0.095196
0.098702
0.091903
0.10558
0.10042
0.1005
0.099758
0.099522
0.098105
0.097797
0.096293
0.096458
0.095059
0.098551
0.091505
0.105
0.10044
0.10052
0.099774
0.099534
0.098107
0.097788
0.096261
0.096407
0.094921
0.098398
0.091113
0.10443
0.10047
0.10054
0.09979
0.099546
0.098109
0.097779
0.096229
0.096356
0.094783
0.098243
0.090729
0.10387
0.10049
0.10056
0.099807
0.099558
0.098112
0.09777
0.096196
0.096304
0.094643
0.098088
0.090351
0.10332
0.10051
0.10058
0.099823
0.099571
0.098114
0.097761
0.096162
0.096251
0.094503
0.097931
0.08998
0.10277
0.10053
0.10061
0.099841
0.099584
0.098117
0.097752
0.096129
0.096199
0.094363
0.097773
0.089616
0.10223
0.10055
0.10063
0.099859
0.099598
0.09812
0.097743
0.096094
0.096145
0.094221
0.097614
0.089258
0.1017
0.10058
0.10065
0.099877
0.099611
0.098123
0.097733
0.096059
0.096092
0.094079
0.097453
0.088907
0.10117
0.1006
0.10067
0.099896
0.099625
0.098127
0.097724
0.096024
0.096037
0.093937
0.097292
0.088561
0.10065
0.10063
0.1007
0.099916
0.09964
0.098131
0.097714
0.095989
0.095983
0.093794
0.097129
0.088222
0.10014
0.10065
0.10072
0.099936
0.099654
0.098134
0.097705
0.095952
0.095928
0.093651
0.096966
0.087889
0.099636
0.10068
0.10075
0.099956
0.099669
0.098139
0.097695
0.095916
0.095872
0.093507
0.096801
0.087562
0.099137
0.1007
0.10077
0.099977
0.099685
0.098143
0.097685
0.095879
0.095816
0.093363
0.096635
0.08724
0.098644
0.10073
0.1008
0.099998
0.0997
0.098147
0.097675
0.095842
0.09576
0.093219
0.096469
0.086925
0.098157
0.10076
0.10082
0.10002
0.099716
0.098152
0.097665
0.095804
0.095703
0.093075
0.096301
0.086614
0.097676
0.10079
0.10085
0.10004
0.099732
0.098157
0.097655
0.095766
0.095646
0.09293
0.096132
0.08631
0.097201
0.10082
0.10088
0.10007
0.099749
0.098163
0.097646
0.095728
0.095588
0.092786
0.095963
0.08601
0.096731
0.10084
0.10091
0.10009
0.099766
0.098168
0.097636
0.095689
0.09553
0.092641
0.095792
0.085716
0.096266
0.10087
0.10094
0.10011
0.099784
0.098174
0.097626
0.09565
0.095472
0.092496
0.095621
0.085427
0.095807
0.10091
0.10097
0.10014
0.099801
0.09818
0.097616
0.095611
0.095413
0.092351
0.095449
0.085143
0.095353
0.10094
0.101
0.10016
0.09982
0.098187
0.097606
0.095571
0.095354
0.092206
0.095276
0.084864
0.094904
0.10097
0.10103
0.10019
0.099838
0.098193
0.097596
0.095531
0.095294
0.092061
0.095102
0.08459
0.09446
0.101
0.10106
0.10022
0.099857
0.0982
0.097586
0.095491
0.095234
0.091917
0.094928
0.08432
0.094021
0.10104
0.10109
0.10024
0.099877
0.098207
0.097577
0.09545
0.095174
0.091772
0.094752
0.084055
0.093586
0.10107
0.10112
0.10027
0.099896
0.098215
0.097567
0.09541
0.095113
0.091628
0.094576
0.083795
0.093156
0.10111
0.10116
0.1003
0.099917
0.098223
0.097557
0.095369
0.095052
0.091483
0.0944
0.083539
0.092731
0.10114
0.10119
0.10033
0.099937
0.098231
0.097548
0.095327
0.09499
0.091339
0.094222
0.083287
0.09231
0.10118
0.10122
0.10036
0.099959
0.09824
0.097538
0.095286
0.094928
0.091195
0.094044
0.083039
0.091894
0.10121
0.10126
0.10039
0.09998
0.098248
0.097529
0.095244
0.094866
0.091051
0.093865
0.082795
0.091481
0.10125
0.1013
0.10042
0.1
0.098258
0.09752
0.095202
0.094804
0.090908
0.093686
0.082556
0.091073
0.10129
0.10133
0.10045
0.10003
0.098267
0.097511
0.09516
0.094741
0.090765
0.093505
0.08232
0.090669
0.10133
0.10137
0.10049
0.10005
0.098277
0.097502
0.095118
0.094678
0.090622
0.093325
0.082088
0.090269
0.10137
0.10141
0.10052
0.10007
0.098287
0.097493
0.095075
0.094614
0.09048
0.093143
0.081859
0.089873
0.10141
0.10145
0.10055
0.1001
0.098298
0.097484
0.095033
0.09455
0.090338
0.092961
0.081635
0.089481
0.10145
0.10149
0.10059
0.10012
0.098309
0.097476
0.09499
0.094486
0.090196
0.092779
0.081413
0.089092
0.1015
0.10153
0.10062
0.10015
0.09832
0.097468
0.094947
0.094421
0.090055
0.092596
0.081195
0.088707
0.10154
0.10157
0.10066
0.10017
0.098332
0.097459
0.094904
0.094356
0.089914
0.092412
0.08098
0.088326
0.10158
0.10161
0.1007
0.1002
0.098344
0.097451
0.094861
0.094291
0.089773
0.092228
0.080769
0.087948
0.10163
0.10165
0.10073
0.10023
0.098357
0.097444
0.094818
0.094226
0.089633
0.092043
0.08056
0.087573
0.10168
0.1017
0.10077
0.10025
0.09837
0.097436
0.094775
0.09416
0.089494
0.091858
0.080354
0.087202
0.10172
0.10174
0.10081
0.10028
0.098384
0.097429
0.094732
0.094094
0.089355
0.091672
0.080151
0.086835
0.10177
0.10179
0.10085
0.10031
0.098398
0.097422
0.094689
0.094027
0.089217
0.091486
0.079951
0.08647
0.10182
0.10183
0.10089
0.10034
0.098413
0.097415
0.094646
0.093961
0.089079
0.091299
0.079754
0.086109
0.10187
0.10188
0.10094
0.10037
0.098428
0.097408
0.094602
0.093893
0.088941
0.091112
0.079559
0.08575
0.10192
0.10193
0.10098
0.1004
0.098443
0.097402
0.094559
0.093826
0.088804
0.090924
0.079367
0.085395
0.10197
0.10198
0.10102
0.10043
0.098459
0.097396
0.094516
0.093758
0.088668
0.090736
0.079177
0.085042
0.10203
0.10203
0.10107
0.10046
0.098476
0.09739
0.094473
0.09369
0.088532
0.090547
0.078989
0.084692
0.10208
0.10208
0.10111
0.1005
0.098493
0.097385
0.09443
0.093622
0.088397
0.090358
0.078804
0.084345
0.10214
0.10213
0.10116
0.10053
0.098511
0.09738
0.094387
0.093554
0.088262
0.090169
0.078621
0.084001
0.10219
0.10219
0.10121
0.10057
0.098529
0.097375
0.094344
0.093485
0.088128
0.089979
0.078439
0.083659
0.10225
0.10224
0.10126
0.1006
0.098548
0.097371
0.094302
0.093416
0.087995
0.089789
0.07826
0.08332
0.10231
0.1023
0.10131
0.10064
0.098567
0.097367
0.094259
0.093347
0.087862
0.089598
0.078083
0.082983
0.10237
0.10235
0.10136
0.10067
0.098588
0.097363
0.094217
0.093277
0.08773
0.089407
0.077907
0.082649
0.10243
0.10241
0.10141
0.10071
0.098608
0.09736
0.094174
0.093207
0.087598
0.089215
0.077733
0.082317
0.10249
0.10247
0.10146
0.10075
0.09863
0.097357
0.094132
0.093137
0.087467
0.089023
0.077561
0.081987
0.10255
0.10253
0.10151
0.10079
0.098652
0.097355
0.094091
0.093067
0.087336
0.088831
0.07739
0.081659
0.10262
0.10259
0.10157
0.10083
0.098675
0.097353
0.094049
0.092996
0.087207
0.088638
0.07722
0.081334
0.10268
0.10265
0.10163
0.10087
0.098699
0.097352
0.094008
0.092925
0.087077
0.088444
0.077052
0.08101
0.10275
0.10272
0.10168
0.10092
0.098724
0.097351
0.093967
0.092854
0.086949
0.088251
0.076885
0.080688
0.10282
0.10278
0.10174
0.10096
0.098749
0.09735
0.093926
0.092783
0.086821
0.088057
0.076719
0.080368
0.10289
0.10285
0.1018
0.10101
0.098775
0.097351
0.093886
0.092711
0.086693
0.087862
0.076555
0.08005
0.10296
0.10292
0.10186
0.10105
0.098802
0.097352
0.093846
0.092639
0.086566
0.087667
0.076391
0.079733
0.10303
0.10299
0.10193
0.1011
0.09883
0.097353
0.093806
0.092567
0.08644
0.087472
0.076228
0.079418
0.1031
0.10306
0.10199
0.10115
0.098859
0.097355
0.093767
0.092495
0.086315
0.087276
0.076066
0.079105
0.10318
0.10313
0.10206
0.1012
0.098889
0.097358
0.093728
0.092423
0.08619
0.08708
0.075905
0.078793
0.10326
0.1032
0.10212
0.10125
0.09892
0.097361
0.09369
0.09235
0.086065
0.086883
0.075744
0.078482
0.10334
0.10328
0.10219
0.1013
0.098952
0.097365
0.093652
0.092277
0.085941
0.086686
0.075584
0.078173
0.10342
0.10335
0.10226
0.10135
0.098984
0.09737
0.093614
0.092205
0.085818
0.086489
0.075424
0.077864
0.1035
0.10343
0.10233
0.10141
0.099019
0.097376
0.093578
0.092132
0.085696
0.086291
0.075265
0.077557
0.10358
0.10351
0.10241
0.10146
0.099054
0.097382
0.093541
0.092058
0.085574
0.086093
0.075106
0.077251
0.10367
0.1036
0.10248
0.10152
0.09909
0.097389
0.093506
0.091985
0.085452
0.085894
0.074948
0.076946
0.10376
0.10368
0.10256
0.10158
0.099128
0.097397
0.093471
0.091912
0.085331
0.085695
0.074789
0.076641
0.10385
0.10377
0.10264
0.10164
0.099167
0.097407
0.093436
0.091838
0.085211
0.085495
0.074631
0.076338
0.10394
0.10385
0.10272
0.1017
0.099207
0.097417
0.093403
0.091765
0.085091
0.085295
0.074473
0.076034
0.10403
0.10394
0.1028
0.10177
0.099249
0.097428
0.09337
0.091691
0.084972
0.085094
0.074314
0.075732
0.10413
0.10404
0.10288
0.10184
0.099292
0.09744
0.093338
0.091617
0.084853
0.084893
0.074155
0.07543
0.10422
0.10413
0.10297
0.1019
0.099337
0.097453
0.093306
0.091544
0.084735
0.084691
0.073996
0.075128
0.10432
0.10423
0.10306
0.10197
0.099383
0.097467
0.093276
0.09147
0.084617
0.084489
0.073837
0.074826
0.10443
0.10433
0.10315
0.10204
0.099431
0.097483
0.093247
0.091396
0.0845
0.084286
0.073677
0.074525
0.10453
0.10443
0.10324
0.10212
0.099481
0.0975
0.093218
0.091323
0.084384
0.084083
0.073517
0.074224
0.10464
0.10453
0.10334
0.10219
0.099532
0.097518
0.09319
0.091249
0.084268
0.083879
0.073356
0.073922
0.10475
0.10464
0.10344
0.10227
0.099586
0.097537
0.093164
0.091176
0.084152
0.083675
0.073194
0.073621
0.10486
0.10475
0.10354
0.10235
0.099641
0.097558
0.093139
0.091102
0.084038
0.08347
0.073032
0.073319
0.10498
0.10486
0.10364
0.10244
0.099698
0.097581
0.093115
0.091029
0.083923
0.083264
0.072869
0.073017
0.1051
0.10497
0.10375
0.10252
0.099758
0.097605
0.093092
0.090956
0.083809
0.083058
0.072704
0.072714
0.10522
0.10509
0.10386
0.10261
0.099819
0.097631
0.09307
0.090884
0.083696
0.082851
0.072539
0.07241
0.10534
0.10521
0.10397
0.1027
0.099883
0.097658
0.09305
0.090811
0.083583
0.082644
0.072373
0.072106
0.10547
0.10534
0.10408
0.1028
0.09995
0.097687
0.093031
0.090739
0.083471
0.082436
0.072205
0.071801
0.1056
0.10546
0.1042
0.10289
0.10002
0.097719
0.093013
0.090667
0.083359
0.082227
0.072036
0.071496
0.10573
0.10559
0.10432
0.10299
0.10009
0.097752
0.092998
0.090596
0.083247
0.082018
0.071866
0.071189
0.10587
0.10573
0.10445
0.10309
0.10016
0.097787
0.092984
0.090525
0.083136
0.081808
0.071694
0.07088
0.10601
0.10587
0.10458
0.1032
0.10024
0.097825
0.092971
0.090455
0.083026
0.081597
0.07152
0.070571
0.10616
0.10601
0.10471
0.10331
0.10032
0.097864
0.092961
0.090385
0.082916
0.081385
0.071345
0.07026
0.10631
0.10615
0.10484
0.10342
0.1004
0.097907
0.092952
0.090315
0.082807
0.081173
0.071168
0.069947
0.10646
0.1063
0.10498
0.10354
0.10049
0.097951
0.092945
0.090247
0.082698
0.08096
0.07099
0.069633
0.10662
0.10646
0.10513
0.10366
0.10058
0.097999
0.09294
0.090179
0.08259
0.080746
0.070809
0.069317
0.10678
0.10662
0.10528
0.10379
0.10067
0.098049
0.092938
0.090112
0.082483
0.080532
0.070626
0.068998
0.10695
0.10678
0.10543
0.10391
0.10077
0.098102
0.092938
0.090045
0.082375
0.080316
0.070441
0.068678
0.10712
0.10695
0.10559
0.10405
0.10087
0.098157
0.09294
0.08998
0.082269
0.0801
0.070254
0.068355
0.10729
0.10712
0.10575
0.10419
0.10097
0.098217
0.092944
0.089916
0.082163
0.079883
0.070064
0.06803
0.10747
0.1073
0.10592
0.10433
0.10108
0.098279
0.092952
0.089852
0.082058
0.079665
0.069872
0.067702
0.10766
0.10748
0.10609
0.10448
0.1012
0.098345
0.092962
0.08979
0.081953
0.079446
0.069678
0.067371
0.10785
0.10767
0.10627
0.10463
0.10131
0.098414
0.092975
0.089729
0.081849
0.079226
0.06948
0.067037
0.10805
0.10787
0.10645
0.10479
0.10144
0.098487
0.09299
0.089669
0.081745
0.079006
0.06928
0.0667
0.10825
0.10807
0.10664
0.10495
0.10156
0.098564
0.093009
0.089611
0.081642
0.078784
0.069077
0.06636
0.10846
0.10828
0.10684
0.10512
0.1017
0.098645
0.093031
0.089554
0.08154
0.078561
0.068871
0.066017
0.10868
0.10849
0.10704
0.10529
0.10183
0.098731
0.093057
0.089499
0.081438
0.078337
0.068661
0.065669
0.1089
0.10871
0.10725
0.10547
0.10198
0.09882
0.093086
0.089445
0.081337
0.078113
0.068449
0.065318
0.10913
0.10894
0.10746
0.10566
0.10212
0.098915
0.093119
0.089393
0.081237
0.077887
0.068233
0.064962
0.10937
0.10917
0.10769
0.10586
0.10228
0.099014
0.093155
0.089343
0.081137
0.07766
0.068013
0.064602
0.10961
0.10942
0.10792
0.10606
0.10244
0.099118
0.093196
0.089295
0.081038
0.077431
0.06779
0.064238
0.10986
0.10967
0.10815
0.10627
0.10261
0.099228
0.09324
0.089249
0.08094
0.077202
0.067562
0.063869
0.11012
0.10992
0.1084
0.10648
0.10278
0.099343
0.093289
0.089204
0.080843
0.076971
0.067331
0.063495
0.11039
0.11019
0.10865
0.10671
0.10296
0.099463
0.093343
0.089162
0.080746
0.076738
0.067096
0.063115
0.11066
0.11046
0.10891
0.10694
0.10315
0.09959
0.093401
0.089123
0.08065
0.076505
0.066856
0.06273
0.11095
0.11075
0.10919
0.10718
0.10335
0.099722
0.093463
0.089086
0.080554
0.076269
0.066611
0.06234
0.11124
0.11104
0.10947
0.10743
0.10355
0.099861
0.093531
0.089051
0.080459
0.076033
0.066362
0.061943
0.11154
0.11134
0.10975
0.10769
0.10376
0.10001
0.093604
0.089019
0.080365
0.075794
0.066108
0.06154
0.11185
0.11166
0.11005
0.10795
0.10398
0.10016
0.093682
0.088989
0.080272
0.075554
0.065849
0.06113
0.11217
0.11198
0.11036
0.10823
0.10421
0.10032
0.093765
0.088962
0.080179
0.075311
0.065584
0.060714
0.11251
0.11231
0.11068
0.10852
0.10445
0.10048
0.093854
0.088938
0.080087
0.075067
0.065314
0.06029
0.11285
0.11266
0.11101
0.10882
0.1047
0.10066
0.093949
0.088917
0.079995
0.074821
0.065038
0.059858
0.1132
0.11301
0.11136
0.10912
0.10496
0.10084
0.09405
0.088899
0.079903
0.074572
0.064756
0.059419
0.11357
0.11338
0.11171
0.10944
0.10522
0.10103
0.094157
0.088884
0.079812
0.074321
0.064467
0.058971
0.11394
0.11376
0.11208
0.10977
0.1055
0.10123
0.09427
0.088872
0.079722
0.074067
0.064172
0.058514
0.11433
0.11415
0.11246
0.11012
0.10579
0.10143
0.09439
0.088863
0.079631
0.07381
0.06387
0.058048
0.11473
0.11456
0.11285
0.11047
0.10609
0.10165
0.094517
0.088857
0.079541
0.07355
0.06356
0.057572
0.11515
0.11498
0.11325
0.11084
0.1064
0.10187
0.09465
0.088855
0.079451
0.073287
0.063243
0.057086
0.11558
0.11541
0.11367
0.11122
0.10672
0.10211
0.09479
0.088855
0.07936
0.07302
0.062917
0.05659
0.11602
0.11586
0.1141
0.11161
0.10706
0.10235
0.094937
0.088859
0.079269
0.07275
0.062583
0.056082
0.11647
0.11632
0.11455
0.11202
0.10741
0.10261
0.095091
0.088866
0.079178
0.072475
0.06224
0.055563
0.11694
0.11679
0.11501
0.11244
0.10777
0.10287
0.095253
0.088876
0.079086
0.072196
0.061887
0.055032
0.11743
0.11729
0.11549
0.11288
0.10814
0.10314
0.095422
0.08889
0.078993
0.071912
0.061525
0.054487
0.11793
0.11779
0.11599
0.11333
0.10853
0.10343
0.095599
0.088906
0.078898
0.071622
0.061152
0.053929
0.11845
0.11832
0.1165
0.1138
0.10893
0.10372
0.095783
0.088925
0.078802
0.071327
0.060768
0.053357
0.11898
0.11886
0.11703
0.11429
0.10935
0.10403
0.095975
0.088947
0.078705
0.071026
0.060372
0.05277
0.11953
0.11942
0.11758
0.11479
0.10978
0.10435
0.096176
0.088972
0.078605
0.070718
0.059964
0.052167
0.1201
0.12
0.11814
0.11531
0.11023
0.10468
0.096384
0.089
0.078503
0.070403
0.059543
0.051548
0.12069
0.1206
0.11873
0.11585
0.11069
0.10502
0.096601
0.08903
0.078398
0.07008
0.059108
0.050912
0.1213
0.12122
0.11934
0.11641
0.11117
0.10538
0.096826
0.089063
0.07829
0.069748
0.058659
0.050257
0.12193
0.12187
0.11997
0.11699
0.11167
0.10575
0.09706
0.089098
0.078178
0.069408
0.058194
0.049584
0.12258
0.12253
0.12062
0.11759
0.11219
0.10613
0.097302
0.089135
0.078062
0.069058
0.057714
0.04889
0.12325
0.12322
0.12129
0.11821
0.11273
0.10653
0.097554
0.089174
0.077941
0.068698
0.057216
0.048175
0.12395
0.12393
0.12199
0.11885
0.11329
0.10694
0.097814
0.089215
0.077816
0.068326
0.0567
0.047438
0.12467
0.12467
0.12272
0.11952
0.11387
0.10737
0.098084
0.089258
0.077684
0.067942
0.056165
0.046678
0.12541
0.12543
0.12347
0.12022
0.11447
0.10782
0.098363
0.089302
0.077546
0.067546
0.05561
0.045893
0.12619
0.12623
0.12425
0.12094
0.11509
0.10828
0.098652
0.089347
0.077402
0.067136
0.055034
0.045082
0.12699
0.12705
0.12507
0.12169
0.11574
0.10876
0.098951
0.089394
0.07725
0.06671
0.054435
0.044244
0.12782
0.12791
0.12591
0.12247
0.11642
0.10925
0.09926
0.089441
0.077089
0.06627
0.053813
0.043378
0.12869
0.1288
0.12679
0.12328
0.11712
0.10977
0.09958
0.089489
0.07692
0.065812
0.053165
0.042481
0.12959
0.12972
0.12771
0.12413
0.11786
0.11031
0.099912
0.089537
0.076741
0.065336
0.052491
0.041553
0.13053
0.13069
0.12867
0.12502
0.11862
0.11087
0.10025
0.089586
0.076551
0.064841
0.051789
0.040591
0.13151
0.1317
0.12967
0.12594
0.11942
0.11145
0.10061
0.089634
0.07635
0.064326
0.051057
0.039594
0.13252
0.13275
0.13071
0.12691
0.12025
0.11206
0.10098
0.089683
0.076137
0.063788
0.050294
0.03856
0.13359
0.13385
0.1318
0.12792
0.12112
0.11269
0.10136
0.08973
0.075909
0.063227
0.049498
0.037486
0.1347
0.135
0.13295
0.12898
0.12203
0.11336
0.10175
0.089776
0.075667
0.06264
0.048666
0.036371
0.13586
0.13621
0.13414
0.13009
0.12298
0.11405
0.10216
0.089821
0.075409
0.062026
0.047797
0.035212
0.13708
0.13747
0.1354
0.13125
0.12398
0.11477
0.10258
0.089863
0.075132
0.061383
0.046888
0.034007
0.13836
0.1388
0.13673
0.13248
0.12503
0.11553
0.10302
0.089901
0.074836
0.060707
0.045936
0.032753
0.1397
0.1402
0.13812
0.13377
0.12613
0.11632
0.10347
0.089935
0.074518
0.059997
0.044938
0.031447
0.14111
0.14167
0.13959
0.13513
0.12728
0.11715
0.10394
0.089963
0.074174
0.059249
0.043891
0.030085
0.14259
0.14322
0.14114
0.13657
0.1285
0.11801
0.10442
0.089982
0.073803
0.058459
0.042791
0.028665
0.14415
0.14485
0.14277
0.13808
0.12977
0.11892
0.10491
0.089991
0.0734
0.057623
0.041635
0.027181
0.14579
0.14657
0.14449
0.13968
0.13112
0.11987
0.10541
0.089987
0.072961
0.056737
0.040415
0.025631
0.14751
0.14839
0.14631
0.14137
0.13253
0.12086
0.10593
0.089965
0.072481
0.055794
0.039129
0.024007
0.14933
0.15031
0.14824
0.14315
0.13401
0.12189
0.10645
0.089922
0.071953
0.054789
0.037768
0.022307
0.15124
0.15234
0.15027
0.14503
0.13558
0.12296
0.10698
0.089851
0.071372
0.053713
0.036327
0.020522
0.15325
0.15448
0.15243
0.14703
0.13722
0.12408
0.10751
0.089746
0.070728
0.052559
0.034796
0.018646
0.15538
0.15675
0.15471
0.14913
0.13894
0.12524
0.10803
0.0896
0.070013
0.051317
0.033167
0.016671
0.15762
0.15914
0.15712
0.15136
0.14074
0.12643
0.10855
0.089402
0.069216
0.049976
0.031431
0.014588
0.15997
0.16168
0.15968
0.15371
0.14263
0.12766
0.10904
0.089143
0.068325
0.048525
0.029575
0.012389
0.16246
0.16436
0.16239
0.15619
0.14461
0.12892
0.10951
0.08881
0.067327
0.04695
0.027589
0.010061
0.16508
0.16721
0.16527
0.15882
0.14668
0.1302
0.10993
0.088389
0.066205
0.045237
0.025458
0.0075942
0.16785
0.17023
0.16832
0.16159
0.14884
0.1315
0.1103
0.087861
0.064943
0.04337
0.023168
0.004975
0.17077
0.17343
0.17157
0.16453
0.15109
0.13281
0.1106
0.087208
0.063522
0.041331
0.020704
0.0021905
0.17385
0.17683
0.17503
0.16763
0.15343
0.1341
0.11081
0.086407
0.061918
0.039101
0.018049
-0.00077332
0.17712
0.18046
0.17872
0.17092
0.15586
0.13538
0.11091
0.08543
0.060107
0.036657
0.015186
-0.003931
0.18058
0.18434
0.18267
0.1744
0.15836
0.13661
0.11086
0.084245
0.058058
0.033976
0.012093
-0.0072976
0.18426
0.18849
0.1869
0.17808
0.16095
0.13777
0.11063
0.082813
0.055737
0.031027
0.0087503
-0.010889
0.18817
0.19294
0.19145
0.18199
0.16359
0.13882
0.11016
0.081086
0.053102
0.027779
0.0051321
-0.01472
0.19234
0.19775
0.19636
0.18613
0.16627
0.13972
0.10942
0.079008
0.050104
0.024193
0.0012107
-0.018809
0.19679
0.20294
0.20165
0.1905
0.16895
0.14041
0.10831
0.076508
0.046684
0.020223
-0.0030462
-0.023174
0.20155
0.20856
0.20736
0.19509
0.17158
0.1408
0.10676
0.073506
0.042775
0.015817
-0.007675
-0.027834
0.20662
0.21465
0.21352
0.19989
0.17408
0.14078
0.10464
0.069902
0.038297
0.010916
-0.012716
-0.032809
0.21203
0.22126
0.22015
0.20485
0.17634
0.14022
0.10183
0.065584
0.033164
0.0054576
-0.018209
-0.038117
0.21777
0.22842
0.22724
0.20987
0.1782
0.13894
0.098169
0.060427
0.027286
-0.00061954
-0.024192
-0.04377
0.22386
0.23616
0.23474
0.2148
0.17945
0.13671
0.093465
0.054295
0.020573
-0.0073682
-0.030689
-0.049769
0.23028
0.24447
0.24254
0.2194
0.17977
0.13327
0.087509
0.047051
0.012949
-0.014822
-0.037704
-0.056094
0.23704
0.25331
0.25043
0.22332
0.17879
0.12827
0.080075
0.038565
0.0043574
-0.022985
-0.045207
-0.062696
0.24414
0.26254
0.25801
0.226
0.17597
0.12133
0.070929
0.028731
-0.0052178
-0.031816
-0.053125
-0.06949
0.25163
0.2719
0.26462
0.22663
0.17063
0.11202
0.059861
0.017493
-0.01574
-0.041227
-0.061339
-0.07635
0.25963
0.28086
0.26912
0.22404
0.16193
0.099886
0.046723
0.0048762
-0.0271
-0.05107
-0.069685
-0.083124
0.26836
0.28843
0.26973
0.21656
0.14884
0.084517
0.03149
-0.0089711
-0.039093
-0.061139
-0.077969
-0.089647
0.27819
0.29301
0.26378
0.20202
0.13022
0.065619
0.01431
-0.023747
-0.051408
-0.07117
-0.085978
-0.095765
0.28968
0.2922
0.24767
0.17778
0.10495
0.043071
-0.0044889
-0.039015
-0.063654
-0.080871
-0.093513
-0.10136
0.30344
0.28316
0.21756
0.14132
0.072167
0.016972
-0.024471
-0.054305
-0.075439
-0.089968
-0.10041
-0.10638
0.31926
0.26228
0.17066
0.091462
0.031752
-0.012348
-0.045229
-0.069265
-0.086497
-0.098297
-0.10662
-0.11085
0.3366
0.22288
0.1035
0.027856
-0.016141
-0.044901
-0.066883
-0.084052
-0.097002
-0.10605
-0.11233
-0.11504
0.36454
0.16459
0.015115
-0.048589
-0.071209
-0.081479
-0.090664
-0.099909
-0.10807
-0.11418
-0.1184
-0.11972
0.41464
0.10431
-0.080627
-0.12825
-0.12747
-0.11917
-0.11563
-0.1168
-0.11999
-0.12303
-0.12515
-0.12509
0.1037
0.06413
0.053565
0.046974
0.042185
0.038458
0.035429
0.032965
0.031046
0.029561
0.028748
0.027621
0.12327
0.07957
0.066469
0.057787
0.051567
0.04678
0.042906
0.03974
0.037246
0.035249
0.034111
0.032673
0.11057
0.074438
0.062574
0.054081
0.047994
0.043331
0.039561
0.036464
0.034001
0.031966
0.030778
0.029165
0.10552
0.074113
0.062581
0.054003
0.047785
0.043008
0.039137
0.035942
0.033382
0.031225
0.029942
0.028092
0.1049
0.076294
0.064588
0.055776
0.049291
0.044282
0.040208
0.036832
0.034112
0.031794
0.030393
0.028339
0.10427
0.078115
0.066327
0.057366
0.050666
0.045457
0.041205
0.037668
0.034807
0.032347
0.030837
0.028619
0.10317
0.0794
0.067682
0.058663
0.051807
0.046438
0.042041
0.03837
0.035389
0.032811
0.031205
0.028855
0.10199
0.080457
0.068904
0.059884
0.052912
0.047409
0.042884
0.039096
0.03601
0.03333
0.031638
0.029185
0.10089
0.081376
0.070061
0.06109
0.05404
0.048425
0.04379
0.039899
0.03672
0.033953
0.032185
0.029656
0.099847
0.082148
0.07114
0.06227
0.055183
0.049483
0.044758
0.040779
0.037522
0.034683
0.03285
0.030273
0.098838
0.082776
0.072131
0.063408
0.056329
0.050575
0.045782
0.041734
0.038413
0.035518
0.033632
0.031033
0.097863
0.083272
0.07303
0.064497
0.057467
0.051691
0.046854
0.042758
0.039389
0.036453
0.034527
0.031933
0.096926
0.083653
0.07384
0.065528
0.058584
0.052819
0.047963
0.043838
0.04044
0.037478
0.035525
0.032963
0.096027
0.083936
0.074562
0.066495
0.05967
0.053943
0.049095
0.04496
0.041549
0.038579
0.036611
0.034105
0.095169
0.084134
0.075199
0.067395
0.060714
0.055053
0.050233
0.046108
0.042701
0.039737
0.037766
0.035339
0.094352
0.084261
0.075757
0.068225
0.061709
0.056134
0.051363
0.047267
0.043879
0.040935
0.038971
0.036642
0.093576
0.084329
0.076242
0.068986
0.062649
0.057179
0.052474
0.048422
0.045065
0.042156
0.040206
0.037991
0.092841
0.084349
0.076661
0.06968
0.063532
0.05818
0.053556
0.04956
0.046247
0.043382
0.041453
0.039363
0.092145
0.084329
0.077021
0.070311
0.064357
0.059133
0.0546
0.050671
0.04741
0.0446
0.042697
0.040738
0.091487
0.084277
0.077328
0.070882
0.065124
0.060036
0.055601
0.051749
0.048546
0.045799
0.043923
0.042099
0.090865
0.0842
0.077588
0.071398
0.065834
0.060886
0.056556
0.052786
0.049647
0.046968
0.045121
0.043429
0.090276
0.084101
0.077806
0.071862
0.066491
0.061685
0.057463
0.05378
0.050707
0.0481
0.046283
0.044718
0.089719
0.083986
0.077988
0.07228
0.067097
0.062433
0.058321
0.054728
0.051723
0.04919
0.047401
0.045957
0.089191
0.083858
0.078137
0.072654
0.067655
0.063132
0.05913
0.05563
0.052693
0.050235
0.048473
0.04714
0.088691
0.08372
0.078257
0.07299
0.068168
0.063785
0.059893
0.056484
0.053616
0.051231
0.049495
0.048262
0.088216
0.083573
0.078353
0.07329
0.068638
0.064392
0.060609
0.057292
0.054491
0.052179
0.050466
0.049323
0.087764
0.08342
0.078427
0.073557
0.069071
0.064958
0.061281
0.058055
0.05532
0.053078
0.051387
0.050321
0.087334
0.083263
0.078481
0.073796
0.069467
0.065484
0.061911
0.058774
0.056103
0.053928
0.052256
0.051257
0.086924
0.083102
0.078518
0.074007
0.069829
0.065972
0.0625
0.059451
0.056842
0.054731
0.053077
0.052134
0.086533
0.082939
0.07854
0.074195
0.070161
0.066425
0.063052
0.060087
0.057538
0.055488
0.05385
0.052953
0.086159
0.082774
0.078549
0.07436
0.070465
0.066846
0.063568
0.060684
0.058193
0.0562
0.054577
0.053716
0.085802
0.082609
0.078546
0.074506
0.070742
0.067235
0.064049
0.061245
0.05881
0.05687
0.05526
0.054428
0.08546
0.082443
0.078533
0.074632
0.070994
0.067596
0.064499
0.061771
0.059389
0.057498
0.055901
0.05509
0.085131
0.082277
0.07851
0.074743
0.071224
0.067929
0.064917
0.062263
0.059932
0.058088
0.056502
0.055705
0.084816
0.082111
0.078479
0.074837
0.071432
0.068237
0.065307
0.062723
0.060441
0.058639
0.057064
0.056277
0.084513
0.081946