/*--------------------------------*- C++ -*----------------------------------*\
  =========                 |
  \\      /  F ield         | OpenFOAM: The Open Source CFD Toolbox
   \\    /   O peration     | Website:  https://openfoam.org
    \\  /    A nd           | Version:  6.0
     \\/     M anipulation  |
\*---------------------------------------------------------------------------*/
FoamFile
{
    version     2.0;
    format      ascii;
    class       volScalarField;
    location    "16";
    object      p;
}
// * * * * * * * * * * * * * * * * * * * * * * * * * * * * * * * * * * * * * //

dimensions      [0 2 -2 0 0 0 0];

internalField   nonuniform List<scalar> 
62000
(
0.0253841
0.0255424
0.0257117
0.0258803
0.0260612
0.0262411
0.0264346
0.0266286
0.0268385
0.0270501
0.0272802
0.0275148
0.0277714
0.0280353
0.0283247
0.0286261
0.0289571
0.0293062
0.0296897
0.0300981
0.0305472
0.0310279
0.0315572
0.0321243
0.0327496
0.0334183
0.034155
0.0349422
0.0358072
0.0367323
0.0377507
0.0388527
0.0400665
0.0413701
0.0427705
0.0442925
0.0459743
0.0478453
0.0499335
0.052267
0.0548783
0.0577976
0.0610544
0.0646476
0.0685291
0.0725875
0.0766006
0.0803424
0.0834159
0.0857194
0.0869184
0.0872702
0.087101
0.0861281
0.0850665
0.082697
0.0810332
0.0779258
0.0800721
0.0872991
0.024834
0.024988
0.0251586
0.0253341
0.0255298
0.0257305
0.0259521
0.0261797
0.0264286
0.0266829
0.0269585
0.0272399
0.0275434
0.0278542
0.0281887
0.0285333
0.0289048
0.0292917
0.02971
0.0301502
0.0306279
0.031135
0.0316863
0.0322749
0.0329153
0.0336008
0.0343455
0.0351447
0.0360098
0.0369386
0.0379433
0.0390332
0.0402202
0.041498
0.0428698
0.0443615
0.0460076
0.0478401
0.049889
0.0521888
0.0547777
0.0576974
0.0609876
0.0646607
0.0686843
0.0729664
0.0773074
0.081501
0.0851659
0.0882127
0.090301
0.091688
0.0926988
0.0930315
0.0934042
0.0924189
0.0923618
0.0906556
0.0961539
0.103122
0.0248066
0.0249462
0.0250961
0.0252463
0.0254111
0.0255781
0.0257627
0.0259519
0.0261617
0.0263765
0.0266149
0.0268592
0.0271309
0.0274097
0.02772
0.0280404
0.0283966
0.0287682
0.0291798
0.0296141
0.0300929
0.0306025
0.0311616
0.0317599
0.032413
0.0331138
0.0338752
0.0346951
0.0355814
0.036535
0.0375604
0.0386706
0.0398759
0.0411768
0.042578
0.0441028
0.0457817
0.047643
0.049717
0.0520364
0.0546394
0.0575677
0.0608607
0.0645295
0.0685411
0.0728041
0.0771173
0.0812717
0.0848736
0.0878207
0.0897556
0.0908987
0.0915656
0.0914297
0.0912051
0.0893628
0.088227
0.0851869
0.0885883
0.0897356
0.0256542
0.0258006
0.0259415
0.026069
0.0261969
0.0263147
0.0264386
0.0265586
0.0266914
0.0268256
0.026979
0.0271398
0.0273268
0.0275269
0.0277601
0.0280127
0.0283054
0.028624
0.0289889
0.0293861
0.0298349
0.0303218
0.0308649
0.0314523
0.0320996
0.0327979
0.0335601
0.0343832
0.0352753
0.0362365
0.0372687
0.0383836
0.039594
0.0409018
0.0423181
0.0438621
0.0455613
0.0474426
0.049535
0.0518706
0.0544877
0.0574299
0.0607367
0.0644204
0.068451
0.0727407
0.0770925
0.0812975
0.084959
0.0879663
0.0899611
0.0911624
0.0918848
0.0918985
0.0918914
0.0903385
0.0893092
0.0862499
0.088413
0.0880788
0.0268206
0.0269376
0.0270502
0.027149
0.0272461
0.0273276
0.0274092
0.0274782
0.0275531
0.0276194
0.0277001
0.0277793
0.0278838
0.0279944
0.0281416
0.0283042
0.0285139
0.0287499
0.0290419
0.0293705
0.0297621
0.0301992
0.0307034
0.0312602
0.031886
0.0325693
0.0333222
0.03414
0.03503
0.0359923
0.0370268
0.0381453
0.0393573
0.0406709
0.0420926
0.0436449
0.0453533
0.0472434
0.0493438
0.0516867
0.0543135
0.0572718
0.060604
0.0643267
0.0684164
0.0727939
0.0772688
0.081639
0.0855059
0.0887555
0.0910393
0.0925882
0.0937631
0.0944482
0.095418
0.0951544
0.0954773
0.0936882
0.0965622
0.0969557
0.0277486
0.0277703
0.0278083
0.0278516
0.0279112
0.0279705
0.0280418
0.0281091
0.0281857
0.028255
0.0283339
0.0284068
0.0284944
0.028581
0.0286911
0.0288095
0.0289634
0.0291383
0.0293615
0.0296191
0.0299372
0.030302
0.0307367
0.0312288
0.0317964
0.0324282
0.033137
0.033917
0.0347761
0.035714
0.036732
0.0378403
0.0390516
0.0403675
0.0417992
0.0433649
0.045089
0.0469952
0.0491104
0.0514666
0.0541078
0.0570851
0.060443
0.064201
0.0683407
0.0727879
0.0773546
0.0818347
0.0858187
0.0891665
0.0915161
0.0931049
0.0943092
0.0951869
0.0966167
0.0972482
0.098686
0.0981842
0.102299
0.102676
0.0278686
0.0277906
0.027751
0.0277382
0.0277651
0.0278153
0.0279003
0.0280029
0.0281337
0.0282727
0.028433
0.028593
0.0287698
0.0289403
0.0291267
0.0293068
0.0295076
0.0297091
0.0299408
0.0301862
0.0304752
0.030794
0.0311704
0.0315939
0.0320868
0.0326402
0.0332693
0.03397
0.0347519
0.0356178
0.0365711
0.0376269
0.0387966
0.0400884
0.0415064
0.0430698
0.0447994
0.0467156
0.048843
0.0512127
0.0538696
0.0568664
0.0602485
0.0640383
0.0682224
0.072731
0.077375
0.0819402
0.0859927
0.0893513
0.0916116
0.0929815
0.0938342
0.0943203
0.0954848
0.0961619
0.0979888
0.0982374
0.103248
0.103398
0.0271446
0.0270096
0.0269199
0.0268657
0.0268628
0.0268981
0.0269854
0.0271104
0.0272842
0.0274887
0.0277345
0.0280011
0.0282992
0.0286061
0.0289343
0.0292615
0.0296038
0.0299402
0.0302906
0.0306376
0.0310045
0.0313775
0.0317822
0.0322094
0.032683
0.0331964
0.0337674
0.0343944
0.0350903
0.0358609
0.0367164
0.0376766
0.0387629
0.0399817
0.0413441
0.0428649
0.0445629
0.0464566
0.0485701
0.0509352
0.0535987
0.0566154
0.0600349
0.0638869
0.0681684
0.0728192
0.0776558
0.0824584
0.0867728
0.0903644
0.0927666
0.0941252
0.0947288
0.0947937
0.0954364
0.0957582
0.0974327
0.0980087
0.103453
0.104108
0.0258204
0.0256848
0.0255918
0.0255312
0.0255211
0.0255493
0.0256336
0.0257608
0.0259473
0.0261759
0.0264631
0.0267875
0.0271652
0.0275692
0.0280167
0.0284778
0.0289707
0.0294651
0.0299798
0.0304883
0.0310105
0.0315249
0.0320538
0.0325825
0.0331327
0.0336957
0.0342886
0.0349092
0.035571
0.0362833
0.0370601
0.0379304
0.0389205
0.0400489
0.0413256
0.0427691
0.0443977
0.0462317
0.0482981
0.0506329
0.0532877
0.0563231
0.0597973
0.0637536
0.0682062
0.073114
0.0783099
0.0835835
0.0884703
0.0926959
0.0957274
0.0976223
0.098557
0.0986858
0.0991444
0.099196
0.100603
0.101201
0.106698
0.10843
0.0243382
0.0242296
0.0241557
0.0241063
0.0240997
0.0241247
0.0242001
0.0243149
0.0244871
0.0247031
0.0249809
0.0253045
0.0256909
0.0261199
0.0266077
0.0271308
0.0277047
0.0283028
0.0289392
0.0295872
0.0302604
0.0309334
0.0316217
0.0323049
0.0329985
0.0336885
0.0343865
0.0350859
0.0357972
0.0365272
0.0372926
0.0381251
0.0390612
0.0401209
0.0413234
0.0426879
0.0442364
0.0459944
0.0479956
0.0502842
0.0529203
0.0559745
0.0595179
0.0636113
0.0682907
0.0735404
0.0792207
0.0851431
0.090854
0.0960507
0.100147
0.103106
0.10494
0.105714
0.10646
0.106564
0.107722
0.108142
0.113346
0.11584
0.0228386
0.0227708
0.0227314
0.0227089
0.022721
0.0227559
0.0228323
0.0229394
0.0230961
0.0232898
0.023541
0.0238348
0.0241924
0.0245946
0.0250635
0.0255765
0.0261551
0.0267734
0.0274502
0.0281584
0.0289137
0.0296882
0.0304958
0.0313119
0.0321472
0.0329816
0.0338202
0.0346496
0.035473
0.0362925
0.0371202
0.0379893
0.0389352
0.0399855
0.0411582
0.0424775
0.0439692
0.0456659
0.0476101
0.0498554
0.0524723
0.055543
0.0591522
0.0633775
0.0682758
0.0738588
0.0800192
0.0866031
0.0931815
0.0994507
0.10479
0.109081
0.112188
0.11402
0.115467
0.115914
0.116951
0.117036
0.121686
0.124091
0.0214414
0.0214142
0.0214092
0.0214149
0.0214481
0.021497
0.0215796
0.0216852
0.0218318
0.0220078
0.0222324
0.0224932
0.0228102
0.0231687
0.0235894
0.0240561
0.0245899
0.0251717
0.0258209
0.0265167
0.0272757
0.0280743
0.0289269
0.0298096
0.030732
0.0316714
0.0326288
0.0335847
0.0345361
0.035477
0.0364142
0.0373743
0.0383934
0.0394932
0.0406945
0.0420204
0.0435004
0.0451733
0.0470893
0.0493108
0.0519175
0.0550025
0.0586611
0.0629836
0.068043
0.0738747
0.0804051
0.0875187
0.0948271
0.102039
0.108526
0.114114
0.118514
0.121519
0.123826
0.124798
0.125787
0.125496
0.129415
0.13082
0.020037
0.0200547
0.0200927
0.0201372
0.0202053
0.0202825
0.0203874
0.0205068
0.02066
0.0208327
0.0210466
0.0212861
0.0215749
0.0218946
0.0222711
0.0226847
0.0231625
0.0236834
0.0242732
0.0249115
0.0256213
0.0263812
0.0272107
0.0280889
0.0290282
0.0300074
0.031027
0.0320659
0.0331164
0.0341677
0.0352191
0.0362926
0.0374156
0.0386081
0.0398839
0.0412649
0.0427809
0.0444742
0.0463995
0.0486241
0.0512329
0.0543255
0.0580028
0.0623601
0.0674803
0.0734169
0.0801255
0.0875322
0.0952927
0.10315
0.110492
0.117116
0.122637
0.126723
0.129906
0.131469
0.132534
0.131917
0.135082
0.134967
0.0187453
0.0188032
0.0188784
0.0189573
0.0190559
0.0191599
0.0192868
0.0194233
0.0195873
0.0197645
0.0199749
0.0202037
0.0204724
0.0207649
0.0211044
0.0214742
0.021899
0.0223616
0.0228865
0.023457
0.0240971
0.0247896
0.025557
0.0263831
0.0272846
0.0282442
0.029266
0.0303303
0.0314297
0.0325508
0.0336898
0.0348616
0.0360905
0.0373866
0.0387598
0.0402261
0.0418129
0.0435623
0.0455293
0.0477816
0.0504042
0.0534973
0.057161
0.0614894
0.0665687
0.0724638
0.0791551
0.0866059
0.0945233
0.102688
0.110527
0.117836
0.124152
0.129086
0.133012
0.13517
0.136387
0.135588
0.138061
0.136318
0.0174839
0.0175815
0.0176956
0.0178112
0.0179443
0.0180796
0.018234
0.0183933
0.0185753
0.0187647
0.0189816
0.0192099
0.019472
0.0197495
0.0200676
0.0204068
0.0207941
0.0212096
0.0216805
0.0221888
0.0227609
0.0233806
0.0240735
0.0248266
0.0256606
0.0265629
0.0275421
0.0285828
0.0296802
0.030823
0.0320058
0.0332426
0.0345508
0.0359377
0.0374049
0.0389633
0.0406356
0.0424604
0.0444889
0.0467846
0.049427
0.0525097
0.0561258
0.0603639
0.0653081
0.0710292
0.0775263
0.0847978
0.0925971
0.100754
0.108745
0.116392
0.123208
0.128754
0.133298
0.136021
0.137516
0.136712
0.138662
0.135552
0.016315
0.0164472
0.0165935
0.0167395
0.0169008
0.0170622
0.0172405
0.0174216
0.0176221
0.0178269
0.0180542
0.0182889
0.0185506
0.0188233
0.0191285
0.0194497
0.0198104
0.0201937
0.0206237
0.0210846
0.0216011
0.0221585
0.022783
0.0234634
0.0242232
0.0250535
0.0259671
0.0269533
0.028012
0.0291347
0.0303194
0.0315786
0.032931
0.0343775
0.035917
0.0375544
0.0393068
0.0412076
0.0433015
0.0456442
0.0483063
0.0513686
0.0549129
0.0590203
0.0637692
0.0692319
0.0754221
0.0823672
0.0898679
0.0977967
0.105691
0.11341
0.12045
0.126386
0.131399
0.134659
0.136499
0.135874
0.137465
0.133403
0.0150897
0.0152593
0.0154441
0.0156275
0.0158258
0.0160221
0.0162336
0.0164443
0.0166721
0.0168995
0.0171468
0.0173955
0.0176686
0.0179453
0.0182513
0.0185651
0.0189143
0.0192776
0.0196822
0.0201092
0.0205855
0.0210946
0.021664
0.0222825
0.0229754
0.0237355
0.0245788
0.0254982
0.0264978
0.0275738
0.0287269
0.0299737
0.0313315
0.0328029
0.0343828
0.0360729
0.0378857
0.0398483
0.0419978
0.0443799
0.0470531
0.050083
0.053538
0.0574887
0.0620067
0.0671635
0.0729836
0.07952
0.0866115
0.0941772
0.101813
0.109428
0.116538
0.12273
0.128134
0.131909
0.134189
0.133891
0.135319
0.130779
0.0139439
0.0141466
0.0143629
0.0145768
0.0148044
0.0150288
0.0152673
0.0155039
0.0157556
0.0160052
0.0162712
0.0165363
0.0168207
0.0171062
0.0174151
0.0177287
0.0180715
0.0184248
0.0188133
0.0192196
0.0196687
0.0201448
0.0206741
0.0212459
0.0218853
0.0225861
0.0233657
0.0242194
0.0251547
0.0261709
0.0272734
0.0284805
0.0298147
0.0312775
0.0328648
0.0345766
0.0364218
0.0384225
0.0406079
0.0430136
0.0456854
0.0486737
0.0520335
0.0558241
0.0601098
0.0649605
0.0704099
0.0765308
0.0831986
0.0903661
0.0976903
0.105126
0.112203
0.118557
0.124282
0.128553
0.131299
0.131433
0.132829
0.128208
0.0127713
0.0130072
0.0132571
0.013504
0.0137638
0.0140196
0.0142878
0.0145524
0.0148301
0.0151035
0.0153915
0.0156755
0.0159771
0.0162754
0.0165951
0.0169142
0.0172598
0.0176103
0.0179922
0.0183863
0.0188187
0.0192725
0.0197741
0.0203121
0.0209114
0.0215658
0.0222929
0.0230893
0.0239637
0.0249186
0.0259614
0.0271155
0.028404
0.0298329
0.031399
0.0331024
0.0349507
0.0369621
0.0391593
0.0415684
0.0442234
0.0471609
0.0504233
0.0540594
0.0581265
0.0626936
0.0678008
0.0735384
0.0798082
0.0865969
0.0936117
0.100859
0.107898
0.1144
0.120436
0.125194
0.128448
0.129074
0.130578
0.126188
0.0116569
0.0119208
0.0121969
0.0124692
0.0127533
0.0130329
0.0133245
0.0136126
0.013913
0.0142088
0.0145173
0.014821
0.015139
0.0154527
0.0157832
0.0161117
0.0164617
0.0168144
0.017194
0.0175828
0.0180055
0.0184456
0.0189287
0.0194433
0.0200138
0.0206333
0.0213194
0.0220686
0.0228904
0.0237879
0.0247716
0.0258653
0.0270977
0.0284754
0.0299983
0.0316684
0.0334929
0.0354883
0.0376723
0.0400641
0.0426879
0.0455691
0.0487399
0.0522401
0.0561217
0.0604528
0.06528
0.070706
0.076658
0.0831416
0.0899152
0.0970197
0.10403
0.110674
0.117005
0.122235
0.125975
0.127114
0.128791
0.124822
0.0104472
0.0107418
0.0110502
0.0113547
0.0116718
0.0119833
0.0123065
0.012624
0.0129534
0.0132756
0.0136101
0.0139367
0.0142775
0.0146097
0.0149584
0.0152998
0.0156616
0.0160206
0.0164041
0.0167917
0.01721
0.0176414
0.0181123
0.0186102
0.0191596
0.0197531
0.0204075
0.021119
0.0218965
0.022744
0.0236717
0.0247067
0.0258771
0.027194
0.0286596
0.0302776
0.032057
0.0340137
0.0361627
0.0385178
0.0410967
0.043916
0.0470008
0.0503838
0.0541132
0.0582573
0.0628672
0.0680567
0.0737692
0.0800294
0.0866318
0.0936556
0.100703
0.107532
0.114179
0.119874
0.124103
0.125753
0.12769
0.124249
0.0093089
0.00962963
0.00996287
0.0102916
0.0106321
0.0109666
0.0113126
0.0116531
0.0120049
0.0123494
0.0127049
0.013052
0.0134107
0.0137606
0.0141234
0.0144783
0.0148497
0.0152172
0.0156055
0.0159956
0.016413
0.0168402
0.0173033
0.0177897
0.0183237
0.0188973
0.0195268
0.0202079
0.0209488
0.0217527
0.0226307
0.0236086
0.0247181
0.0259705
0.0273702
0.0289241
0.0306425
0.0325427
0.0346385
0.0369412
0.0394647
0.0422203
0.0452286
0.0485181
0.0521346
0.056147
0.0606122
0.0656504
0.0712215
0.0773554
0.0838856
0.0909095
0.0980345
0.10507
0.112034
0.118175
0.12285
0.124986
0.127202
0.124323
0.00812389
0.00847136
0.00883211
0.00918806
0.00955556
0.00991655
0.0102879
0.0106526
0.0110276
0.011394
0.0117709
0.0121379
0.0125167
0.0128842
0.0132648
0.0136342
0.0140195
0.014397
0.0147934
0.0151878
0.0156067
0.0160319
0.0164897
0.0169675
0.0174891
0.0180465
0.0186555
0.0193111
0.0200205
0.0207869
0.0216195
0.022546
0.0235959
0.024783
0.0261137
0.0275963
0.0292438
0.0310752
0.0331046
0.0353427
0.037802
0.0404914
0.0434293
0.046643
0.0501766
0.0541016
0.0584771
0.063432
0.0689327
0.0750188
0.0815431
0.0886332
0.0959099
0.103202
0.110509
0.117086
0.122197
0.124802
0.127356
0.125029
0.00699656
0.00736564
0.00774621
0.00812133
0.00850697
0.008886
0.00927532
0.00965854
0.0100519
0.0104373
0.0108321
0.0112174
0.0116123
0.0119966
0.0123909
0.0127742
0.0131702
0.013558
0.0139615
0.0143615
0.0147828
0.0152077
0.015662
0.016133
0.0166443
0.0171877
0.0177786
0.0184115
0.0190931
0.0198254
0.0206176
0.0214949
0.0224891
0.0236128
0.0248734
0.0262816
0.0278523
0.0296068
0.0315606
0.0337257
0.0361158
0.0387391
0.0416151
0.0447709
0.048252
0.0521309
0.0564726
0.0614082
0.0669153
0.0730286
0.0796307
0.0868531
0.0943121
0.101877
0.109524
0.116519
0.122023
0.125067
0.127962
0.126152
0.00576264
0.00615598
0.00656297
0.0069645
0.0073777
0.0077833
0.00819919
0.00860701
0.00902482
0.0094323
0.00984963
0.0102549
0.0106709
0.0110727
0.0114858
0.011884
0.0122951
0.0126939
0.0131074
0.0135133
0.0139384
0.0143636
0.0148152
0.0152801
0.015782
0.0163124
0.0168863
0.0174982
0.0181536
0.0188545
0.0196081
0.0204406
0.021381
0.0224427
0.0236346
0.0249676
0.0264591
0.0281324
0.0300053
0.0320918
0.0344083
0.0369643
0.0397816
0.04289
0.0463361
0.0501958
0.0545361
0.0594946
0.0650498
0.0712412
0.0779569
0.0853561
0.0930536
0.100928
0.108935
0.116343
0.122238
0.125711
0.129
0.127659
0.00460993
0.00502333
0.00544872
0.00586806
0.00629809
0.0067203
0.00715265
0.00757734
0.00801171
0.00843621
0.00886939
0.00929095
0.009721
0.0101378
0.010563
0.010974
0.0113953
0.0118044
0.0122255
0.0126381
0.0130671
0.0134938
0.0139438
0.0144036
0.014897
0.0154151
0.0159728
0.0165642
0.0171945
0.0178646
0.018582
0.01937
0.0202591
0.0212616
0.0223856
0.0236439
0.0250554
0.0266455
0.0284347
0.0304395
0.0326812
0.0351702
0.0379344
0.0410045
0.0444341
0.0482959
0.0526692
0.0576849
0.0633375
0.0696487
0.0765384
0.0841504
0.0920973
0.100285
0.108646
0.116451
0.122707
0.126591
0.130272
0.129359
0.00340159
0.00383602
0.00428335
0.00472445
0.00517605
0.0056193
0.00607149
0.00651488
0.00696686
0.00740779
0.00785725
0.00829385
0.0087398
0.00917046
0.00961082
0.0100344
0.0104688
0.0108879
0.0113185
0.0117373
0.0121708
0.0125987
0.0130473
0.0135023
0.0139873
0.0144933
0.0150349
0.0156059
0.0162109
0.016851
0.0175316
0.0182775
0.019116
0.0200597
0.0211176
0.0223024
0.0236342
0.0251413
0.0268453
0.0287673
0.0309314
0.0333527
0.0360625
0.0390979
0.042515
0.0463903
0.0508062
0.0558977
0.0616613
0.0681172
0.0751872
0.0830354
0.0912679
0.0997936
0.108522
0.116726
0.123352
0.127655
0.131782
0.131249
0.00225671
0.00270674
0.00316774
0.00362192
0.00408553
0.00454081
0.00500504
0.00546125
0.00592602
0.0063806
0.00684276
0.00729283
0.0077502
0.0081935
0.0086438
0.00907831
0.0095211
0.00994924
0.0103865
0.0108112
0.0112484
0.0116778
0.0121248
0.0125752
0.0130519
0.0135458
0.0140711
0.0146214
0.0152011
0.0158104
0.0164553
0.0171576
0.0179464
0.0188328
0.019825
0.0209373
0.02219
0.0236146
0.0252329
0.0270719
0.029158
0.0315123
0.0341689
0.037173
0.0405841
0.0444808
0.0489545
0.0541354
0.0600352
0.0666549
0.073945
0.0820395
0.0905561
0.0994137
0.108501
0.117094
0.124074
0.12879
0.133362
0.133183
0.000998716
0.0014671
0.00194905
0.00242437
0.00291067
0.00338768
0.0038739
0.00434995
0.00483471
0.00530662
0.00578697
0.00625233
0.00672673
0.00718339
0.00764895
0.00809483
0.0085501
0.00898683
0.00943252
0.00986219
0.0103029
0.0107327
0.0111778
0.0116229
0.0120911
0.0125724
0.0130811
0.0136104
0.0141641
0.0147427
0.0153502
0.0160105
0.0167488
0.0175769
0.0185049
0.0195443
0.0207204
0.0220619
0.0235965
0.0253504
0.0273581
0.0296417
0.0322426
0.0352116
0.0386136
0.0425302
0.0470578
0.0523301
0.0583623
0.0651537
0.0726521
0.0810059
0.0898257
0.0990282
0.108487
0.117477
0.12483
0.129983
0.135054
0.135193
-0.000156486
0.000326135
0.000820489
0.00130759
0.00180466
0.00229223
0.00278901
0.00327616
0.0037719
0.0042554
0.00474628
0.00522272
0.00570612
0.00617283
0.00664586
0.00710013
0.00756155
0.00800502
0.00845552
0.00888945
0.00933246
0.00976263
0.0102055
0.0106453
0.0111047
0.0115735
0.0120653
0.0125732
0.0131009
0.0136476
0.0142187
0.0148343
0.0155224
0.0162932
0.017156
0.018124
0.0192223
0.0204821
0.0219319
0.0236017
0.0255299
0.0277426
0.0302862
0.033219
0.0366115
0.0405475
0.0451328
0.0504978
0.0566736
0.0636428
0.0713764
0.0799843
0.0890982
0.0986367
0.10846
0.117841
0.125562
0.131153
0.13672
0.137171
-0.00136595
-0.000867461
-0.000356069
0.000147871
0.000661711
0.00116541
0.0016771
0.00217778
0.00268595
0.00318049
0.0036824
0.0041685
0.00466273
0.00513819
0.00562157
0.00608372
0.00655396
0.00700348
0.00745978
0.00789678
0.00834162
0.00877094
0.0092107
0.00964443
0.0100946
0.0105503
0.011025
0.0115114
0.0120122
0.0125276
0.0130602
0.0136329
0.0142692
0.014983
0.0157796
0.0166769
0.0176969
0.0188759
0.0202399
0.0218249
0.0236707
0.0258093
0.0282897
0.0311803
0.0345547
0.0385032
0.0431348
0.0485861
0.0548932
0.0620399
0.0699914
0.078862
0.0882761
0.098157
0.108356
0.118143
0.126256
0.132316
0.138433
0.139173
-0.00249501
-0.00198568
-0.00146549
-0.000953474
-0.000432652
7.79024e-05
0.000596546
0.00110493
0.0016208
0.00212386
0.00263324
0.00312745
0.00362753
0.00411001
0.00459756
0.0050649
0.00553788
0.00599096
0.00644889
0.00688735
0.00733185
0.00775939
0.00819504
0.00862213
0.00906245
0.00950489
0.00996217
0.0104266
0.010901
0.0113839
0.0118795
0.0124066
0.0129939
0.013648
0.0143803
0.015204
0.0161466
0.0172421
0.0185208
0.0200188
0.0217821
0.0238434
0.026259
0.0291024
0.0324565
0.0364116
0.0410888
0.0466212
0.0530643
0.0603885
0.0685772
0.0776941
0.087401
0.0976156
0.108185
0.118374
0.126879
0.133414
0.140077
0.141112
-0.0037486
-0.00322495
-0.00268732
-0.0021577
-0.00161739
-0.00108845
-0.000551135
-2.65678e-05
0.00050549
0.00102172
0.00154491
0.00204987
0.00256221
0.0030532
0.00355094
0.00402471
0.00450505
0.0049619
0.00542339
0.00586237
0.00630633
0.00673079
0.00716143
0.00758093
0.00801071
0.00843934
0.00887888
0.00932152
0.00976897
0.0102202
0.0106772
0.0111619
0.0116966
0.0122927
0.0129584
0.0137087
0.0145729
0.0155844
0.0167758
0.0181848
0.0198622
0.0218418
0.0241857
0.0269744
0.0302983
0.0342506
0.0389601
0.0445632
0.0511284
0.0586253
0.067035
0.0764051
0.086402
0.0969525
0.107905
0.118512
0.127437
0.134482
0.141741
0.143056
-0.0048734
-0.00433847
-0.00379161
-0.00325378
-0.00270647
-0.0021711
-0.00162754
-0.00109639
-0.000558134
-3.52723e-05
0.000493062
0.00100353
0.00151875
0.00201366
0.00251226
0.00298797
0.00346784
0.00392522
0.00438555
0.00482343
0.0052648
0.00568556
0.00611043
0.00652202
0.00694091
0.00735551
0.00777714
0.00819762
0.0086186
0.00903751
0.0094578
0.00989692
0.0103814
0.0109185
0.0115167
0.0121942
0.0129775
0.0139038
0.0150051
0.0163239
0.0179123
0.0198081
0.0220761
0.0248062
0.0280945
0.032039
0.0367757
0.0424447
0.0491305
0.0568002
0.0654403
0.075047
0.0853287
0.0962089
0.10754
0.118564
0.127909
0.13547
0.143321
0.144934
-0.00604703
-0.00549946
-0.00493888
-0.00438771
-0.00382753
-0.00328011
-0.00272637
-0.00218665
-0.00164166
-0.00111349
-0.000580346
-6.63082e-05
0.000453425
0.000951064
0.00145396
0.0019319
0.00241506
0.00287341
0.00333462
0.00377117
0.0042102
0.00462654
0.00504499
0.00544796
0.0058552
0.00625528
0.00665848
0.00705672
0.0074506
0.00783821
0.0082198
0.00861641
0.00904852
0.00952652
0.0100584
0.0106613
0.0113633
0.0122022
0.0132117
0.0144368
0.0159328
0.0177394
0.0199251
0.0225885
0.0258322
0.0297585
0.0345098
0.0402331
0.0470258
0.0548605
0.0637174
0.0735672
0.0841265
0.0953371
0.107059
0.118516
0.12831
0.136423
0.144915
0.146816
-0.00712093
-0.00656828
-0.00600549
-0.00545267
-0.00489275
-0.00434487
-0.00379123
-0.00324998
-0.00270394
-0.0021732
-0.00163891
-0.00112222
-0.000602344
-0.000102908
0.000398854
0.000877347
0.00135864
0.00181643
0.00227521
0.00270946
0.00314446
0.00355566
0.00396673
0.00436026
0.00475508
0.00513978
0.00552403
0.00589941
0.00626649
0.00662145
0.00696666
0.00731754
0.00769985
0.00811875
0.00858405
0.00911171
0.00973089
0.0104801
0.0113953
0.0125241
0.0139248
0.015639
0.0177386
0.0203309
0.023525
0.0274277
0.0321882
0.0379606
0.044856
0.0528541
0.0619302
0.0720093
0.082845
0.0943832
0.106492
0.11838
0.128625
0.137296
0.146424
0.148638
-0.00839522
-0.00783389
-0.00725705
-0.00668711
-0.00610635
-0.00553749
-0.00496119
-0.00440184
-0.00383684
-0.0032923
-0.00274222
-0.00221678
-0.00168536
-0.00118076
-0.000671002
-0.000190276
0.000295044
0.000752116
0.00121061
0.001641
0.00207149
0.00247556
0.00287786
0.00326029
0.00364135
0.00400952
0.00437379
0.00472576
0.00506485
0.00538798
0.00569429
0.00600302
0.00633315
0.00669418
0.0070927
0.00754491
0.00808031
0.00873863
0.00955733
0.0105866
0.0118882
0.013505
0.0155123
0.0180261
0.0211621
0.0250313
0.0297895
0.0355991
0.0425842
0.050735
0.0600188
0.0703321
0.081437
0.0933042
0.105811
0.118147
0.12887
0.138137
0.147948
0.150471
-0.0092555
-0.00869047
-0.00811903
-0.00756117
-0.00699816
-0.00644769
-0.00589198
-0.00535046
-0.00480426
-0.00427449
-0.00374064
-0.00322635
-0.0027084
-0.00221257
-0.00171393
-0.00124012
-0.000763291
-0.000311805
0.000139865
0.00056434
0.000987494
0.00138343
0.0017755
0.00214581
0.00251196
0.00286251
0.00320574
0.00353305
0.00384391
0.00413358
0.00440311
0.00466628
0.00494752
0.00525044
0.00558244
0.00595926
0.00641028
0.00697614
0.00769608
0.00862325
0.00982253
0.0113385
0.0132499
0.015681
0.0187541
0.0225844
0.027335
0.0331764
0.0402453
0.0485445
0.0580339
0.0685711
0.0799486
0.0921457
0.105047
0.117828
0.129032
0.138903
0.149393
0.152255
-0.0107035
-0.0101215
-0.009524
-0.00893383
-0.00833392
-0.00774739
-0.00715477
-0.00658142
-0.00600383
-0.00544951
-0.00489073
-0.00435958
-0.00382338
-0.00331703
-0.00280654
-0.00232818
-0.00184636
-0.00139584
-0.000945663
-0.000526811
-0.000110455
0.000275943
0.00065661
0.00101332
0.00136326
0.00169499
0.00201607
0.00231801
0.00259934
0.00285619
0.0030864
0.00330784
0.0035379
0.00378352
0.00405014
0.00435194
0.00471862
0.00519141
0.0058109
0.00663327
0.00772665
0.0091372
0.0109471
0.0132889
0.016291
0.0200728
0.0248055
0.0306671
0.0378069
0.0462423
0.0559263
0.0666909
0.0783371
0.0908665
0.104174
0.117416
0.129128
0.13964
0.150855
0.15406
-0.0116083
-0.0110226
-0.010431
-0.00985415
-0.0092727
-0.00870507
-0.00813283
-0.00757655
-0.00701643
-0.00647513
-0.00593073
-0.0054088
-0.00488424
-0.00438518
-0.00388458
-0.00341252
-0.00293898
-0.00249436
-0.00205177
-0.00163985
-0.0012322
-0.000855379
-0.000486578
-0.000143603
0.000189784
0.00050223
0.000800773
0.00107663
0.00132858
0.00155102
0.0017442
0.00192029
0.00210174
0.00229079
0.00249194
0.00271939
0.00300167
0.00338047
0.00389785
0.00461302
0.00559759
0.0068994
0.00860424
0.0108526
0.0137786
0.0175068
0.0222163
0.0280927
0.0352967
0.0438618
0.0537355
0.0647215
0.0766437
0.0895092
0.103219
0.11692
0.129145
0.140307
0.152244
0.155825
-0.0131555
-0.012548
-0.0119254
-0.0113118
-0.0106894
-0.0100821
-0.00946998
-0.00887901
-0.00828535
-0.00771702
-0.0071461
-0.00660508
-0.00606113
-0.00554943
-0.00503604
-0.00455747
-0.00407817
-0.00363297
-0.0031914
-0.00278423
-0.00238327
-0.00201574
-0.00165849
-0.00132935
-0.00101254
-0.000719398
-0.000443478
-0.000193623
2.80351e-05
0.000216905
0.000370239
0.000504217
0.000634957
0.000767148
0.000904225
0.00105759
0.00125558
0.00154009
0.00195431
0.00256025
0.00343283
0.00462195
0.00621665
0.00836492
0.0112069
0.0148725
0.0195495
0.0254298
0.0326856
0.0413676
0.051421
0.0626311
0.0748276
0.0880322
0.102155
0.116333
0.1291
0.140952
0.153653
0.15762
-0.0141637
-0.0135462
-0.0129229
-0.0123169
-0.0117074
-0.0111146
-0.0105189
-0.00994206
-0.00936355
-0.00880682
-0.00824941
-0.00771734
-0.00718511
-0.00668112
-0.00617817
-0.00570644
-0.00523591
-0.00479681
-0.00436287
-0.00396231
-0.00356961
-0.00321096
-0.00286486
-0.00254866
-0.0022477
-0.00197318
-0.00171948
-0.00149565
-0.00130378
-0.00114987
-0.00103433
-0.000946298
-0.000864572
-0.000788454
-0.000716866
-0.00063772
-0.00052457
-0.000335264
-2.55825e-05
0.000469112
0.00122694
0.00230014
0.00378089
0.00582447
0.00857718
0.0121751
0.0168146
0.0226938
0.0299947
0.0387869
0.0490149
0.0604457
0.0729261
0.0864754
0.10101
0.115664
0.128979
0.141532
0.154998
0.159386
-0.0157166
-0.0150786
-0.0144293
-0.0137947
-0.013155
-0.0125342
-0.0119107
-0.0113104
-0.0107082
-0.0101324
-0.00955434
-0.00900695
-0.00845714
-0.00794061
-0.00742375
-0.00694333
-0.00646444
-0.00602173
-0.00558587
-0.005187
-0.00479827
-0.00444625
-0.00410939
-0.00380481
-0.00351854
-0.00326167
-0.00302936
-0.00283078
-0.00266884
-0.00254874
-0.00247369
-0.00242857
-0.00239828
-0.00238085
-0.00237422
-0.00237051
-0.00234288
-0.00224939
-0.00204519
-0.00166348
-0.00102328
-7.01273e-05
0.0012915
0.00322406
0.00587972
0.00940156
0.0139949
0.0198633
0.0271983
0.036089
0.0464831
0.0581373
0.0709008
0.0847983
0.0997573
0.114906
0.128799
0.142094
0.156367
0.161191
-0.0170904
-0.0164412
-0.0157825
-0.0151405
-0.0144929
-0.0138639
-0.0132313
-0.0126211
-0.0120096
-0.0114242
-0.0108393
-0.0102842
-0.00973086
-0.00921002
-0.00869275
-0.00821064
-0.00773268
-0.00728968
-0.00685547
-0.00645814
-0.0060729
-0.00572557
-0.00539598
-0.00510089
-0.00482739
-0.00458652
-0.00437417
-0.00419988
-0.0040666
-0.00398123
-0.00394442
-0.00394653
-0.00396795
-0.00400876
-0.00407082
-0.00414405
-0.00420364
-0.00420771
-0.00411097
-0.00384469
-0.00332531
-0.00249615
-0.00125801
0.000558655
0.00311192
0.00655285
0.0110955
0.0169491
0.0243129
0.0332968
0.0438531
0.0557298
0.0687862
0.0830389
0.0984223
0.114068
0.128548
0.142599
0.157682
0.162977
-0.018632
-0.0179688
-0.0172968
-0.016641
-0.0159816
-0.0153415
-0.0146992
-0.0140797
-0.0134586
-0.0128632
-0.0122659
-0.011699
-0.0111308
-0.0105961
-0.0100632
-0.00956804
-0.00907739
-0.00862501
-0.00818353
-0.0077821
-0.00739556
-0.00704973
-0.00672474
-0.00643704
-0.00617442
-0.00594785
-0.00575397
-0.00560261
-0.00549781
-0.00544575
-0.00545006
-0.00549716
-0.0055728
-0.0056765
-0.00580774
-0.00596042
-0.0061093
-0.00621277
-0.00622544
-0.00607709
-0.00568204
-0.0049814
-0.00387218
-0.00217776
0.00026562
0.00361792
0.0081022
0.0139328
0.0213165
0.030384
0.041096
0.053198
0.0665465
0.0811581
0.0969796
0.113144
0.128242
0.143089
0.159023
0.164808
-0.0201908
-0.0195123
-0.0188243
-0.0181538
-0.0174785
-0.0168227
-0.0161642
-0.0155287
-0.0148929
-0.0142835
-0.0136759
-0.0130983
-0.0125238
-0.0119822
-0.0114461
-0.0109463
-0.0104532
-0.00999693
-0.0095532
-0.00914921
-0.008762
-0.00841665
-0.00809488
-0.00781273
-0.00755926
-0.00734531
-0.00716855
-0.00703918
-0.0069616
-0.0069436
-0.00698681
-0.00708313
-0.00721387
-0.00738008
-0.00758554
-0.00782074
-0.00806229
-0.00826866
-0.00839442
-0.008368
-0.0081019
-0.00753496
-0.00655967
-0.00499246
-0.0026643
0.000594945
0.0050171
0.0108223
0.0182226
0.0273711
0.0382376
0.050565
0.0642155
0.0791941
0.095456
0.112142
0.12787
0.14353
0.160322
0.166628
-0.0219231
-0.0212309
-0.0205285
-0.0198417
-0.0191503
-0.0184781
-0.0178033
-0.0171518
-0.0164988
-0.0158723
-0.0152447
-0.0146485
-0.0140523
-0.0134909
-0.0129334
-0.0124153
-0.0119045
-0.0114342
-0.0109788
-0.0105663
-0.0101737
-0.00982575
-0.0095048
-0.00922633
-0.00898042
-0.00877768
-0.00861676
-0.00850814
-0.0084573
-0.0084718
-0.0085565
-0.00869948
-0.00888766
-0.00912261
-0.00940334
-0.00972514
-0.010063
-0.0103758
-0.0106184
-0.0107181
-0.0105858
-0.0101582
-0.00932255
-0.00788911
-0.0056832
-0.0025244
0.00182927
0.00760221
0.0150136
0.0242351
0.0352519
0.0478094
0.0617611
0.0771105
0.0938277
0.11106
0.127449
0.143961
0.16165
0.168493
-0.0235976
-0.0228916
-0.0221748
-0.0214748
-0.0207689
-0.020082
-0.0193913
-0.0187236
-0.0180551
-0.0174132
-0.0167732
-0.0161638
-0.0155584
-0.0149869
-0.0144227
-0.0138963
-0.0133794
-0.0129013
-0.0124398
-0.0120209
-0.0116238
-0.0112725
-0.0109512
-0.0106749
-0.010435
-0.010242
-0.0100957
-0.0100068
-0.00998137
-0.0100291
-0.010153
-0.0103471
-0.010595
-0.0108976
-0.0112602
-0.0116727
-0.0121118
-0.0125367
-0.012902
-0.013134
-0.0131418
-0.0128599
-0.0121699
-0.0108758
-0.00879794
-0.00574322
-0.0014613
0.00427912
0.0117009
0.0209967