/*--------------------------------*- C++ -*----------------------------------*\
  =========                 |
  \\      /  F ield         | OpenFOAM: The Open Source CFD Toolbox
   \\    /   O peration     | Website:  https://openfoam.org
    \\  /    A nd           | Version:  6.0
     \\/     M anipulation  |
\*---------------------------------------------------------------------------*/
FoamFile
{
    version     2.0;
    format      ascii;
    class       volVectorField;
    location    "16";
    object      U;
}
// * * * * * * * * * * * * * * * * * * * * * * * * * * * * * * * * * * * * * //

dimensions      [0 1 -1 0 0 0 0];

internalField   nonuniform List<vector> 
62000
(
(0.939326 0.342951 -2.77863e-21)
(0.939353 0.342947 2.34776e-21)
(0.939372 0.342927 2.48066e-21)
(0.93938 0.342914 -1.11625e-20)
(0.939378 0.342904 -1.31725e-20)
(0.939365 0.342898 4.63153e-20)
(0.939342 0.342896 -5.23435e-20)
(0.939312 0.342896 3.11775e-20)
(0.939277 0.342898 -1.5126e-20)
(0.939239 0.342901 -7.97119e-20)
(0.939202 0.342906 -1.12655e-20)
(0.939166 0.342909 1.17479e-19)
(0.939135 0.34291 2.50518e-20)
(0.939109 0.342908 -8.94933e-20)
(0.939089 0.342904 1.44514e-19)
(0.939076 0.342896 -7.88635e-20)
(0.939069 0.342885 8.5261e-20)
(0.939068 0.342869 -1.02061e-19)
(0.939073 0.342851 5.26593e-20)
(0.939082 0.342829 -1.67859e-19)
(0.939094 0.342804 2.25851e-19)
(0.93911 0.342777 7.11863e-20)
(0.939128 0.342747 1.06003e-19)
(0.939148 0.342717 -4.84935e-19)
(0.93917 0.342685 1.82322e-19)
(0.939193 0.342653 -1.20406e-19)
(0.939218 0.342622 -4.13252e-21)
(0.939243 0.342591 -1.06054e-19)
(0.93927 0.342564 3.29758e-19)
(0.939297 0.342541 -1.92626e-19)
(0.939327 0.342526 4.76939e-19)
(0.939355 0.342513 -1.01564e-18)
(0.939388 0.342501 9.33293e-20)
(0.93942 0.342486 -3.77152e-19)
(0.939448 0.342484 -1.26516e-19)
(0.93947 0.342503 -4.1778e-19)
(0.939485 0.342539 -1.38526e-19)
(0.939493 0.342588 -1.56717e-19)
(0.939491 0.342649 4.51397e-19)
(0.939475 0.34272 2.25598e-18)
(0.939441 0.342801 -5.63428e-19)
(0.939385 0.342883 -3.34972e-18)
(0.939302 0.342954 -5.48621e-18)
(0.93919 0.342993 3.08998e-18)
(0.939044 0.342974 9.02636e-19)
(0.938864 0.342864 -4.76094e-18)
(0.938646 0.34263 1.30228e-18)
(0.93839 0.34224 -2.07585e-18)
(0.938086 0.341682 -1.0156e-17)
(0.937724 0.340943 -2.27335e-18)
(0.93729 0.340028 -1.18502e-18)
(0.936739 0.338938 -1.65359e-17)
(0.936095 0.337562 1.62953e-18)
(0.935375 0.335799 1.91806e-17)
(0.934652 0.333392 5.35042e-18)
(0.934034 0.330265 1.74602e-17)
(0.93354 0.325774 -2.39949e-18)
(0.933285 0.31978 -4.27244e-18)
(0.933184 0.308055 8.64249e-18)
(0.916018 0.283839 1.77172e-18)
(0.939212 0.344192 -7.30055e-22)
(0.939256 0.34426 7.14293e-21)
(0.939314 0.344289 3.08013e-21)
(0.939383 0.34431 -1.32923e-20)
(0.939454 0.344328 5.66878e-21)
(0.939517 0.344341 -4.04215e-20)
(0.939566 0.344354 3.77875e-20)
(0.939594 0.344368 2.27307e-20)
(0.939597 0.344387 -4.3589e-20)
(0.939574 0.344413 1.74043e-21)
(0.939527 0.344448 4.50116e-20)
(0.939457 0.34449 3.98786e-22)
(0.939371 0.344541 1.41505e-20)
(0.939272 0.344598 -1.22569e-19)
(0.939167 0.344663 2.54667e-19)
(0.93906 0.34473 -2.31699e-19)
(0.938956 0.344801 1.12699e-19)
(0.93886 0.344869 -2.41333e-20)
(0.938771 0.344934 -6.95517e-20)
(0.938695 0.344992 1.99866e-19)
(0.938629 0.345044 -3.25316e-19)
(0.938575 0.345084 1.95539e-19)
(0.938532 0.345113 -2.59497e-19)
(0.938499 0.34513 1.57776e-19)
(0.938477 0.345135 1.54193e-19)
(0.938462 0.345127 -1.04625e-19)
(0.938459 0.345109 -3.14177e-21)
(0.93846 0.345079 1.22345e-19)
(0.938473 0.345045 1.08622e-19)
(0.938488 0.345008 -2.37823e-19)
(0.938518 0.344976 4.94915e-19)
(0.93855 0.344935 1.09302e-19)
(0.9386 0.344872 3.44609e-19)
(0.938659 0.344777 3.18983e-20)
(0.93872 0.344692 1.09674e-19)
(0.938775 0.344639 -1.19044e-19)
(0.938824 0.344613 -3.94156e-19)
(0.938866 0.344598 -1.93562e-19)
(0.938895 0.344586 -1.21057e-18)
(0.938905 0.344574 -1.48688e-18)
(0.93888 0.344558 1.19263e-18)
(0.938813 0.344509 7.30536e-19)
(0.938699 0.344395 5.70682e-18)
(0.938535 0.344179 3.54986e-19)
(0.938315 0.343827 -9.4363e-18)
(0.938042 0.343297 3.90319e-18)
(0.937699 0.342578 3.4082e-18)
(0.937289 0.341649 4.14753e-18)
(0.936769 0.340551 9.14908e-19)
(0.936117 0.339274 1.81582e-19)
(0.935298 0.337812 7.46293e-18)
(0.934214 0.336133 2.05158e-17)
(0.933 0.333909 -1.39807e-17)
(0.931705 0.330971 -3.42298e-17)
(0.930525 0.326917 -8.38792e-18)
(0.929536 0.321839 -5.6695e-18)
(0.92876 0.314612 -1.375e-17)
(0.927796 0.305475 -6.89022e-18)
(0.927778 0.287478 1.12963e-17)
(0.903391 0.255637 4.33902e-18)
(0.939371 0.345254 -3.55987e-21)
(0.939259 0.345378 -5.34344e-22)
(0.939186 0.345474 5.53068e-22)
(0.939159 0.345552 2.67456e-21)
(0.93918 0.345617 7.80898e-21)
(0.939243 0.345664 -7.55419e-21)
(0.939338 0.345697 4.16526e-20)
(0.939453 0.345718 -2.01149e-20)
(0.939574 0.345731 -1.1119e-20)
(0.939685 0.345744 -7.1258e-20)
(0.939776 0.345762 6.14688e-20)
(0.939836 0.34579 4.71084e-21)
(0.939861 0.345832 -1.50642e-20)
(0.939848 0.345891 4.12591e-20)
(0.939798 0.345971 -7.28251e-20)
(0.939715 0.34607 1.36129e-22)
(0.939604 0.34619 -3.61768e-20)
(0.939474 0.346322 -4.90678e-23)
(0.939329 0.346469 8.87509e-20)
(0.939179 0.346618 -1.4052e-19)
(0.939026 0.346771 9.00449e-20)
(0.938879 0.346917 3.68549e-19)
(0.938739 0.347054 -4.59442e-20)
(0.93861 0.347176 -5.48715e-19)
(0.938493 0.34728 2.90819e-19)
(0.93839 0.347363 -1.66782e-19)
(0.938302 0.347425 2.7983e-19)
(0.938225 0.347462 -1.7352e-19)
(0.938166 0.347482 -3.65281e-19)
(0.938116 0.347485 4.04587e-19)
(0.938086 0.347479 -2.97707e-19)
(0.938067 0.347447 4.18066e-19)
(0.938073 0.347362 -1.209e-18)
(0.938098 0.347222 1.12616e-18)
(0.938132 0.347071 -6.25923e-19)
(0.938165 0.346939 2.64146e-19)
(0.938196 0.346817 2.05666e-19)
(0.938228 0.346683 -2.78714e-20)
(0.938257 0.346527 -8.02901e-20)
(0.938275 0.346344 1.50495e-18)
(0.938266 0.346128 -6.31238e-19)
(0.938217 0.345842 1.00487e-18)
(0.938134 0.345455 -3.67966e-18)
(0.938014 0.344939 -1.87154e-18)
(0.937855 0.344278 2.08426e-18)
(0.937657 0.343457 -7.49642e-18)
(0.937395 0.342506 1.02578e-18)
(0.937069 0.341432 -6.99093e-18)
(0.936614 0.340313 1.00558e-17)
(0.936009 0.339131 2.65672e-18)
(0.935222 0.337838 1.45282e-18)
(0.934156 0.336375 -3.42843e-19)
(0.933041 0.334342 6.09042e-18)
(0.931926 0.331604 4.30258e-19)
(0.931078 0.327908 -1.29573e-17)
(0.930381 0.3236 -6.9834e-18)
(0.92994 0.317776 -5.66223e-18)
(0.92841 0.311 -1.68887e-17)
(0.929179 0.298439 -1.05936e-18)
(0.907011 0.280913 1.60448e-18)
(0.940471 0.345472 -3.69278e-21)
(0.940288 0.345654 1.14961e-20)
(0.940081 0.345832 -1.75804e-21)
(0.939869 0.34602 -1.22838e-20)
(0.939681 0.346209 1.88932e-20)
(0.939537 0.34639 3.33159e-20)
(0.93945 0.346557 -4.41061e-20)
(0.939425 0.346704 4.90462e-21)
(0.939458 0.346831 1.60067e-20)
(0.939537 0.346937 3.41255e-20)
(0.939648 0.347029 -6.41566e-20)
(0.939772 0.347108 -2.03725e-20)
(0.939892 0.347183 -2.33945e-20)
(0.939992 0.34726 1.08666e-19)
(0.940059 0.347345 -7.43005e-20)
(0.940084 0.347445 1.78825e-19)
(0.940064 0.347562 -2.22312e-19)
(0.939999 0.347698 -3.42291e-20)
(0.939892 0.347853 2.49017e-19)
(0.939749 0.348023 -8.87885e-20)
(0.939576 0.348206 -3.35572e-20)
(0.939385 0.348394 -3.73771e-20)
(0.93918 0.348583 -3.53796e-19)
(0.938972 0.348766 2.06368e-19)
(0.938766 0.348937 -1.00444e-19)
(0.938568 0.34909 1.63297e-19)
(0.938382 0.349223 7.92465e-20)
(0.938211 0.349329 4.11761e-19)
(0.938056 0.349411 -2.63869e-19)
(0.937919 0.349468 -3.62494e-19)
(0.937804 0.349506 5.94092e-19)
(0.937709 0.349504 -5.01851e-19)
(0.937648 0.349426 9.71366e-19)
(0.937614 0.349273 -6.19133e-19)
(0.937596 0.349092 2.59025e-19)
(0.937584 0.348912 4.7057e-19)
(0.937576 0.348721 -2.13021e-19)
(0.937575 0.348495 2.8983e-19)
(0.937581 0.348219 -1.38575e-19)
(0.937586 0.347888 4.68678e-19)
(0.937574 0.347491 -1.35224e-18)
(0.937531 0.346996 3.82164e-19)
(0.937465 0.346382 8.59645e-19)
(0.937376 0.345635 2.17391e-18)
(0.937259 0.34476 2.95911e-18)
(0.937112 0.343759 7.00194e-19)
(0.936903 0.342688 5.01134e-18)
(0.936624 0.341565 5.64369e-18)
(0.936204 0.340473 6.78358e-18)
(0.935624 0.339361 -4.99943e-18)
(0.934861 0.338131 -6.84349e-18)
(0.933819 0.33669 4.55976e-18)
(0.93278 0.334597 6.18605e-18)
(0.93177 0.331714 1.49934e-17)
(0.931104 0.32789 9.65462e-18)
(0.930502 0.323592 1.62019e-17)
(0.93027 0.318172 2.90433e-17)
(0.928296 0.312142 -2.42627e-18)
(0.930211 0.302884 -1.53143e-17)
(0.909247 0.292441 -1.08174e-17)
(0.941638 0.345877 7.4663e-21)
(0.941754 0.346043 -2.50823e-21)
(0.94174 0.346208 4.33519e-21)
(0.941608 0.34642 -6.16786e-21)
(0.941389 0.346663 1.41558e-20)
(0.94112 0.34693 -7.07668e-21)
(0.940835 0.347212 3.91572e-21)
(0.940567 0.347496 -5.88417e-20)
(0.940341 0.347774 5.00787e-20)
(0.940174 0.348037 -1.01898e-19)
(0.94007 0.34828 1.1411e-19)
(0.940027 0.348498 -1.40862e-20)
(0.940033 0.348693 -3.16379e-20)
(0.940072 0.348865 -1.47172e-20)
(0.940125 0.349022 -3.33182e-21)
(0.940175 0.349166 -1.56153e-19)
(0.940204 0.349306 6.47344e-21)
(0.940201 0.349445 1.77245e-19)
(0.940156 0.34959 -5.94079e-20)
(0.940066 0.349739 -6.46175e-20)
(0.939932 0.349899 1.10402e-19)
(0.939758 0.350062 -5.73509e-20)
(0.939549 0.350231 2.46348e-19)
(0.939315 0.350398 1.4194e-19)
(0.939063 0.350561 1.1404e-19)
(0.938804 0.350713 -3.51917e-19)
(0.938545 0.350853 -5.13711e-20)
(0.938292 0.350972 -2.98609e-19)
(0.93805 0.351071 5.62201e-20)
(0.937824 0.351147 -1.10157e-19)
(0.937618 0.351201 -4.43096e-20)
(0.937437 0.351209 3.75321e-19)
(0.937294 0.351132 -9.66141e-19)
(0.937188 0.35097 -4.35637e-20)
(0.937105 0.350771 -5.38366e-19)
(0.937033 0.350563 -2.73122e-19)
(0.936971 0.350332 8.60028e-20)
(0.936921 0.350048 -9.59562e-19)
(0.936884 0.349695 1.54477e-18)
(0.936854 0.349266 2.59151e-19)
(0.936816 0.348744 1.83594e-18)
(0.936754 0.348108 -1.39383e-18)
(0.936673 0.347349 -9.58269e-19)
(0.936576 0.346461 -3.72788e-19)
(0.936453 0.345458 2.20944e-18)
(0.936302 0.34435 3.3097e-18)
(0.936087 0.3432 8.64894e-19)
(0.935802 0.342021 1.51267e-18)
(0.935369 0.340885 -2.29931e-18)
(0.934779 0.339712 1.28581e-17)
(0.934007 0.338359 3.27838e-18)
(0.932946 0.336714 -3.28425e-18)
(0.931883 0.334298 1.04782e-18)
(0.930797 0.330918 1.18637e-17)
(0.930035 0.326416 -6.3158e-19)
(0.929209 0.321224 -1.27286e-17)
(0.928913 0.314843 -3.01855e-17)
(0.926511 0.307504 2.76117e-17)
(0.929277 0.297779 -1.65145e-17)
(0.910586 0.287485 1.28497e-17)
(0.941239 0.348312 -2.91062e-21)
(0.941839 0.348334 1.19069e-20)
(0.942288 0.348353 -1.98939e-20)
(0.942572 0.348419 1.50764e-20)
(0.942683 0.348531 9.96174e-21)
(0.942635 0.348688 -1.07091e-20)
(0.942455 0.348888 9.1801e-22)
(0.942179 0.349124 -8.33866e-21)
(0.941846 0.349389 -2.85992e-20)
(0.941494 0.349671 5.58195e-20)
(0.941158 0.349961 -8.82024e-20)
(0.940862 0.350248 7.8577e-20)
(0.940621 0.350522 7.06522e-20)
(0.94044 0.350778 -1.11385e-19)
(0.940313 0.351013 -3.71561e-20)
(0.94023 0.351223 1.42048e-19)
(0.940174 0.351413 -1.7569e-19)
(0.94013 0.351582 2.4822e-19)
(0.940079 0.351735 -4.7848e-20)
(0.94001 0.351874 2.86242e-20)
(0.93991 0.352006 -4.59983e-20)
(0.939774 0.352129 -5.97147e-20)
(0.939601 0.352249 -1.14629e-19)
(0.939392 0.352361 2.04683e-19)
(0.939152 0.352469 -1.43997e-19)
(0.938889 0.352568 -1.46765e-19)
(0.938609 0.35266 3.10469e-19)
(0.938322 0.352736 -3.09806e-19)
(0.938032 0.3528 5.09052e-19)
(0.937748 0.352846 -2.78232e-19)
(0.937473 0.352873 2.25534e-19)
(0.937219 0.352855 -3.92293e-19)
(0.937 0.352748 4.43383e-19)
(0.936819 0.352556 -3.2798e-20)
(0.936664 0.352326 -2.16542e-20)
(0.936522 0.352086 -9.12711e-21)
(0.936392 0.351817 -2.79e-19)
(0.936276 0.351487 8.51731e-19)
(0.936179 0.351076 -6.83258e-19)
(0.936092 0.350579 -4.12784e-18)
(0.936006 0.349973 -1.81096e-18)
(0.935906 0.349248 1.32031e-18)
(0.935795 0.348402 -1.50323e-18)
(0.935674 0.347435 -1.71823e-18)
(0.935536 0.34636 -1.61272e-19)
(0.935381 0.34519 4.6223e-18)
(0.935176 0.343989 -7.00227e-18)
(0.934923 0.342761 -7.31717e-18)
(0.934551 0.341576 -5.0007e-18)
(0.934059 0.340348 -8.68159e-18)
(0.933415 0.338925 5.75063e-18)
(0.932493 0.337209 -2.26074e-18)
(0.931545 0.33472 -1.90906e-17)
(0.930478 0.33121 3.74066e-18)
(0.92964 0.326462 5.85741e-18)
(0.928552 0.320791 -1.12915e-17)
(0.928072 0.313766 8.33895e-18)
(0.925188 0.30531 7.75623e-18)
(0.928204 0.294761 2.65705e-17)
(0.91369 0.28537 -1.63632e-19)
(0.939024 0.352994 3.40414e-21)
(0.939901 0.352864 -1.55122e-20)
(0.940726 0.352717 7.66214e-21)
(0.941455 0.352583 1.44757e-20)
(0.942041 0.352475 -3.15438e-20)
(0.942454 0.352399 2.68675e-20)
(0.942682 0.352365 -1.82506e-20)
(0.942729 0.352377 1.57673e-20)
(0.942616 0.352435 2.57296e-20)
(0.942375 0.352538 -6.31025e-20)
(0.942046 0.35268 9.30965e-20)
(0.941668 0.352851 4.06412e-20)
(0.94128 0.353043 -1.64217e-19)
(0.940909 0.353245 -3.17482e-20)
(0.940578 0.353449 9.1175e-20)
(0.940297 0.353645 6.02358e-20)
(0.940066 0.35383 -7.45591e-20)
(0.939881 0.353995 6.69992e-20)
(0.939729 0.354142 1.0657e-19)
(0.939597 0.354268 -5.2204e-20)
(0.93947 0.354376 -3.06078e-20)
(0.939336 0.354463 1.13998e-19)
(0.939184 0.354537 2.41385e-19)
(0.939008 0.354594 -1.75836e-19)
(0.938805 0.354639 -2.02458e-19)
(0.938577 0.354669 2.31663e-19)
(0.938325 0.354693 -1.82805e-19)
(0.938055 0.354703 -7.8271e-20)
(0.93777 0.354705 6.63059e-19)
(0.937477 0.354694 -2.99701e-19)
(0.937181 0.354666 -2.43702e-19)
(0.936894 0.354593 3.24971e-19)
(0.936631 0.354433 2.36642e-19)
(0.936399 0.354189 -2.18458e-19)
(0.936186 0.353909 -1.55812e-19)
(0.935983 0.353622 5.30261e-19)
(0.935787 0.353305 1.3065e-19)
(0.935606 0.352923 1.89316e-19)
(0.935442 0.352456 -1.10035e-18)
(0.935291 0.351899 -1.13596e-18)
(0.935148 0.351226 2.26949e-18)
(0.935003 0.350434 1.89467e-18)
(0.934856 0.349526 3.28995e-18)
(0.934711 0.3485 -3.07321e-18)
(0.934561 0.347367 -3.54892e-18)
(0.934413 0.346138 -2.45934e-18)
(0.934243 0.344874 6.2875e-18)
(0.934067 0.343578 6.38754e-18)
(0.933824 0.342328 -7.32894e-18)
(0.933528 0.341056 -1.10862e-17)
(0.933145 0.33964 -2.00155e-18)
(0.932521 0.33803 2.30882e-18)
(0.931865 0.335792 2.41214e-19)
(0.931 0.332656 -6.88367e-18)
(0.930241 0.328339 6.2599e-18)
(0.929013 0.323018 3.83158e-18)
(0.928371 0.316262 5.83921e-18)
(0.925019 0.30766 -2.37855e-17)
(0.927789 0.297243 -1.62801e-18)
(0.917768 0.290051 3.57995e-19)
(0.936053 0.358662 -5.51602e-21)
(0.93684 0.358468 -4.4211e-21)
(0.93771 0.358241 6.12434e-21)
(0.938618 0.357988 2.18492e-20)
(0.939502 0.357727 -4.77696e-20)
(0.940303 0.357464 5.55481e-20)
(0.940972 0.357214 -2.47342e-21)
(0.941473 0.356986 -3.4975e-21)
(0.941788 0.356793 -2.10339e-20)
(0.941915 0.35664 5.24538e-20)
(0.941872 0.356533 -8.26803e-20)
(0.941686 0.356472 3.19036e-20)
(0.941394 0.356452 -1.12721e-21)
(0.941033 0.356469 5.31269e-20)
(0.940641 0.356516 2.62916e-20)
(0.940248 0.356582 -1.41465e-19)
(0.939879 0.35666 1.2597e-19)
(0.939545 0.356739 5.12535e-20)
(0.939253 0.356814 -1.50656e-19)
(0.939001 0.356877 7.57139e-20)
(0.938782 0.356928 3.6531e-20)
(0.938585 0.35696 -2.36078e-20)
(0.9384 0.356975 3.25546e-20)
(0.938217 0.356971 -1.7852e-20)
(0.938027 0.35695 -2.24053e-19)
(0.937825 0.356911 1.51541e-19)
(0.937607 0.356863 -2.37884e-19)
(0.937374 0.356802 4.51962e-19)
(0.937125 0.356734 -8.44282e-20)
(0.93686 0.356655 -5.28631e-20)
(0.936583 0.356563 -1.40333e-20)
(0.936305 0.356426 5.4161e-19)
(0.936041 0.356201 -2.21732e-19)
(0.935795 0.355894 -1.39997e-19)
(0.935559 0.355556 3.87536e-19)
(0.935321 0.355213 3.50226e-19)
(0.935084 0.35484 -6.08963e-19)
(0.934857 0.354401 1.12076e-19)
(0.934642 0.353874 1.31196e-18)
(0.934436 0.353256 -1.067e-19)
(0.934239 0.352523 9.16732e-19)
(0.934047 0.351669 -1.39896e-18)
(0.933861 0.3507 2.12122e-18)
(0.933679 0.349607 4.86916e-18)
(0.9335 0.348396 1.4983e-18)
(0.933336 0.34707 -2.10293e-18)
(0.933172 0.345686 -6.79981e-18)
(0.933039 0.344243 1.38709e-18)
(0.932892 0.342832 2.25972e-18)
(0.932762 0.341414 4.75825e-18)
(0.932614 0.339917 -4.37427e-19)
(0.932282 0.338358 -9.57327e-18)
(0.931932 0.336379 8.43423e-18)
(0.931316 0.333721 -5.81415e-18)
(0.930716 0.330055 1.18954e-17)
(0.929461 0.32541 2.97706e-18)
(0.928743 0.319327 1.38098e-17)
(0.925093 0.31098 1.88874e-17)
(0.927425 0.30097 3.18427e-18)
(0.920787 0.294737 4.37352e-18)
(0.933416 0.364101 -2.52002e-21)
(0.933857 0.36394 2.18922e-21)
(0.934474 0.363729 1.10562e-20)
(0.935239 0.363472 1.76701e-20)
(0.936107 0.363177 -5.3068e-20)
(0.937022 0.362846 3.09774e-20)
(0.937923 0.362492 -5.65259e-20)
(0.93875 0.362126 9.00826e-20)
(0.939454 0.36176 -4.30784e-20)
(0.939998 0.36141 7.81358e-21)
(0.940362 0.361085 8.80787e-20)
(0.940543 0.360794 -2.04923e-19)
(0.940554 0.360543 1.43455e-19)
(0.94042 0.360335 2.16339e-20)
(0.940172 0.360168 3.56372e-20)
(0.939847 0.360038 -1.50032e-19)
(0.939479 0.35994 7.61567e-20)
(0.939096 0.359863 -9.76375e-20)
(0.938722 0.359801 1.99092e-19)
(0.93837 0.359745 -2.49987e-20)
(0.938049 0.35969 -2.6708e-19)
(0.93776 0.359626 1.09007e-19)
(0.937498 0.359554 -6.00391e-21)
(0.937259 0.359465 -4.26985e-19)
(0.937035 0.359362 3.21989e-19)
(0.936819 0.359242 2.50573e-19)
(0.936606 0.359114 1.76801e-19)
(0.93639 0.358973 -2.30731e-19)
(0.936166 0.35883 -2.6287e-19)
(0.935933 0.358678 1.25136e-19)
(0.935688 0.358516 1.91688e-19)
(0.935439 0.358311 -2.42654e-19)
(0.935199 0.35802 -3.7742e-19)
(0.934969 0.35765 7.914e-19)
(0.934738 0.357251 9.324e-20)
(0.934496 0.356851 -1.30874e-18)
(0.934248 0.35642 1.15208e-19)
(0.934001 0.355922 9.57105e-19)
(0.933759 0.355336 8.44782e-20)
(0.933517 0.354659 1.39622e-18)
(0.933276 0.353866 -2.10324e-18)
(0.933038 0.352951 -1.54589e-19)
(0.932801 0.351912 -1.43936e-18)
(0.932562 0.350735 5.51092e-19)
(0.932316 0.349414 2.57302e-18)
(0.932081 0.34794 8.20433e-18)
(0.931849 0.346358 1.30407e-18)
(0.931664 0.344663 -5.86978e-18)
(0.931494 0.342951 4.76343e-18)
(0.931388 0.341211 1.74062e-17)
(0.931317 0.339419 -1.43898e-17)
(0.931118 0.337662 1.75914e-17)
(0.930929 0.335661 -1.09279e-17)
(0.930464 0.333192 -6.17166e-18)
(0.929992 0.329898 -2.46511e-17)
(0.928773 0.325684 -1.38716e-18)
(0.928091 0.320067 -8.30131e-18)
(0.924448 0.311759 -9.34e-18)
(0.9264 0.301711 7.11569e-18)
(0.921798 0.294329 1.07625e-18)
(0.93161 0.368768 3.27644e-21)
(0.931636 0.36867 1.13721e-21)
(0.931862 0.368525 -1.20766e-20)
(0.932286 0.36833 1.16398e-20)
(0.932893 0.368085 -5.21881e-21)
(0.933648 0.367787 9.48478e-21)
(0.934505 0.367442 3.33169e-21)
(0.935407 0.367055 -4.91365e-20)
(0.936295 0.366636 2.16236e-20)
(0.937113 0.366198 -1.52862e-20)
(0.937814 0.365755 9.23703e-21)
(0.938362 0.365319 3.77217e-20)
(0.938739 0.364902 -7.00278e-21)
(0.938942 0.364513 2.4775e-20)
(0.938984 0.364158 -1.07472e-19)
(0.938886 0.36384 4.20309e-20)
(0.938677 0.363558 1.96808e-20)
(0.938388 0.363307 -5.5084e-20)
(0.938051 0.363082 1.12837e-19)
(0.93769 0.362876 3.93285e-20)
(0.937327 0.362683 -3.52867e-21)
(0.936976 0.362492 -4.35324e-20)
(0.936646 0.362303 1.8559e-19)
(0.936339 0.362105 -5.27149e-19)
(0.936056 0.361898 2.78686e-19)
(0.935794 0.361678 1.22083e-19)
(0.935548 0.361452 -2.12697e-19)
(0.935315 0.361218 3.8717e-19)
(0.935086 0.360986 -1.89682e-19)
(0.93486 0.36075 -1.04456e-19)
(0.934632 0.360511 -2.08575e-19)
(0.934405 0.360233 -8.73567e-20)
(0.934188 0.359874 2.45338e-19)
(0.933979 0.359439 -7.73531e-19)
(0.933765 0.35898 1.5056e-18)
(0.933536 0.358522 -9.93813e-20)
(0.933295 0.358034 8.56136e-19)
(0.933049 0.357478 -2.24928e-18)
(0.932797 0.356836 -7.60188e-19)
(0.932534 0.356102 -1.91854e-20)
(0.932259 0.355254 -6.12381e-19)
(0.931974 0.354276 -1.14279e-19)
(0.931677 0.353163 -2.39022e-18)
(0.931355 0.35189 7.61162e-19)
(0.931007 0.350436 1.2473e-18)
(0.930647 0.348778 -7.61795e-18)
(0.930274 0.346947 1.01819e-17)
(0.929939 0.344922 1.63934e-18)
(0.929622 0.342802 4.90276e-19)
(0.929385 0.340592 -1.18276e-17)
(0.92921 0.338305 4.35706e-18)
(0.928949 0.336082 -9.29292e-18)
(0.928735 0.333717 1.87522e-17)
(0.928276 0.331027 3.82694e-18)
(0.927853 0.327652 -1.68644e-17)
(0.926702 0.323401 6.38826e-18)
(0.926166 0.317819 -1.84458e-17)
(0.922854 0.309183 -4.07948e-18)
(0.924631 0.298571 -2.70649e-17)
(0.921233 0.288937 -5.97515e-18)
(0.930624 0.372645 -6.74383e-22)
(0.930292 0.372613 -2.67354e-21)
(0.930134 0.372539 -2.34127e-21)
(0.930168 0.372422 2.29461e-20)
(0.930404 0.372259 -1.28989e-20)
(0.930837 0.372039 -1.57031e-20)
(0.931446 0.371764 -6.0491e-21)
(0.932194 0.37143 -2.52486e-20)
(0.933033 0.371045 1.58357e-20)
(0.933908 0.370614 2.18603e-21)
(0.934763 0.37015 6.02785e-22)
(0.935545 0.369662 7.38701e-20)
(0.936212 0.369165 -5.3643e-20)
(0.936733 0.368672 -7.10796e-21)
(0.937094 0.368193 6.6215e-20)
(0.937295 0.367736 -3.71338e-20)
(0.937346 0.367307 -1.48622e-20)
(0.937266 0.366905 2.51988e-20)
(0.937085 0.366532 8.4839e-20)
(0.936827 0.36618 5.05331e-20)
(0.93652 0.365847 2.18433e-20)
(0.936185 0.365523 -1.29184e-19)
(0.935842 0.365208 6.86942e-20)
(0.935502 0.364888 1.40751e-19)
(0.935177 0.364564 -2.94218e-19)
(0.934868 0.364232 9.99722e-20)
(0.934579 0.363896 -4.02232e-19)
(0.934307 0.363555 3.35634e-19)
(0.93405 0.363221 3.06244e-19)
(0.933805 0.362889 -4.83201e-19)
(0.933567 0.362561 -2.34112e-19)
(0.933339 0.362202 3.22424e-19)
(0.933127 0.361768 1.10718e-19)
(0.932927 0.361265 -3.24499e-19)
(0.932723 0.360742 -4.18551e-19)
(0.932504 0.360224 -5.23227e-19)
(0.932272 0.359677 3.29109e-19)
(0.93203 0.359065 8.34388e-19)
(0.931776 0.358368 2.99328e-19)
(0.931499 0.357581 -3.19214e-19)
(0.931194 0.356681 3.45652e-18)
(0.93086 0.355645 -3.07878e-19)
(0.930493 0.354457 3.9098e-18)
(0.930078 0.353086 -7.36472e-18)
(0.929607 0.351498 1.10465e-18)
(0.929096 0.349652 2.29827e-19)
(0.928543 0.347562 -6.65339e-19)
(0.928005 0.345194 -7.31755e-18)
(0.927467 0.342638 -1.26004e-17)
(0.927001 0.339906 1.20005e-17)
(0.926601 0.337031 1.65671e-17)
(0.926141 0.334192 9.15815e-18)
(0.925763 0.331237 -1.82764e-17)
(0.925197 0.328023 1.00394e-17)
(0.92476 0.324201 2.48351e-17)
(0.923703 0.319526 1.06572e-17)
(0.923394 0.313628 1.79888e-17)
(0.92067 0.30446 8.96456e-18)
(0.922509 0.293068 2.57845e-17)
(0.920189 0.281358 -1.73836e-17)
(0.93025 0.375873 8.10993e-22)
(0.929661 0.375884 -2.46312e-21)
(0.929198 0.375868 8.8646e-21)
(0.928887 0.37582 2.34156e-21)
(0.928756 0.375736 -1.25098e-20)
(0.928822 0.375604 -1.46409e-20)
(0.929089 0.375419 3.51937e-20)
(0.929544 0.375174 -3.91524e-20)
(0.930162 0.374868 -9.98815e-21)
(0.930903 0.374503 2.50313e-20)
(0.931719 0.374083 2.38975e-20)
(0.932555 0.373618 7.48925e-20)
(0.93336 0.373117 -4.23728e-20)
(0.934087 0.372593 -7.59757e-20)
(0.934699 0.372059 1.6944e-20)
(0.935174 0.371525 -6.69458e-20)
(0.935501 0.371002 5.0417e-20)
(0.93568 0.370493 -9.07071e-20)
(0.935725 0.370004 1.30331e-20)
(0.935655 0.369533 -3.33712e-20)
(0.935491 0.36908 -2.32704e-20)
(0.935258 0.368637 -9.83305e-20)
(0.934978 0.368204 4.85871e-21)
(0.934669 0.367768 2.19007e-19)
(0.934349 0.367331 -7.64992e-20)
(0.934027 0.366885 2.39013e-20)
(0.933713 0.366436 7.41606e-20)
(0.93341 0.365984 -1.07884e-19)
(0.93312 0.365542 -2.19173e-20)
(0.932844 0.365106 1.61282e-19)
(0.93258 0.364682 1.83884e-19)
(0.932333 0.364234 -1.43489e-19)
(0.932105 0.363718 -4.62518e-19)
(0.931894 0.363139 -6.7337e-19)
(0.931682 0.362547 1.08302e-18)
(0.931459 0.361963 2.9831e-19)
(0.931225 0.361354 1.88998e-19)
(0.93098 0.360684 1.04629e-18)
(0.930717 0.359933 -1.02331e-18)
(0.930423 0.359095 6.5797e-19)
(0.930086 0.358145 -8.81701e-21)
(0.929702 0.357056 9.09136e-20)
(0.929265 0.355801 -1.42984e-18)
(0.928756 0.354344 3.32733e-18)
(0.928165 0.352637 -4.60734e-18)
(0.927508 0.350629 2.98231e-18)
(0.926782 0.348317 -8.98782e-18)
(0.926041 0.345651 2.73236e-18)
(0.925276 0.34271 6.61933e-18)
(0.924563 0.339503 -1.2058e-17)
(0.923903 0.336074 -3.20104e-18)
(0.923197 0.332613 -7.84368e-19)
(0.922603 0.329012 -3.43363e-18)
(0.921885 0.325154 -1.07657e-17)
(0.921411 0.320717 6.74853e-19)
(0.920474 0.315427 1.05207e-17)
(0.920436 0.309052 -1.08736e-17)
(0.918439 0.29936 -2.94646e-18)
(0.920553 0.287297 -3.54874e-18)
(0.919642 0.274397 1.29887e-17)
(0.930256 0.378624 1.39799e-21)
(0.929509 0.378671 -1.1942e-21)
(0.928837 0.378694 1.10535e-21)
(0.928266 0.378697 7.20514e-21)
(0.927832 0.378675 1.06691e-20)
(0.927565 0.378614 -4.21742e-20)
(0.927485 0.37851 3.1023e-20)
(0.927602 0.378353 6.64923e-21)
(0.927913 0.378136 -1.93372e-21)
(0.928398 0.377857 -1.48171e-20)
(0.929028 0.377516 4.69447e-20)
(0.929759 0.377115 -1.53174e-20)
(0.930544 0.37666 -2.20598e-20)
(0.931331 0.376161 -6.83625e-20)
(0.932074 0.375628 1.4101e-19)
(0.932734 0.375074 -2.92563e-20)
(0.933282 0.374509 -2.58427e-20)
(0.933698 0.37394 -8.03185e-20)
(0.933979 0.373378 9.12315e-20)
(0.934129 0.372823 5.37216e-20)
(0.93416 0.372279 -2.26659e-20)
(0.934089 0.371742 4.73949e-20)
(0.933937 0.371211 -2.00749e-19)
(0.933722 0.370677 1.13377e-20)
(0.933465 0.370139 1.2023e-19)
(0.933179 0.369591 -2.46486e-20)
(0.932878 0.369039 -4.01843e-19)
(0.932573 0.368483 3.29119e-20)
(0.932268 0.367935 3.8254e-19)
(0.93197 0.367398 -1.01666e-19)
(0.931681 0.366875 -2.13089e-19)
(0.931406 0.366334 1.19516e-19)
(0.931152 0.365732 3.91292e-19)
(0.930915 0.365072 9.62972e-19)
(0.93068 0.364404 -1.56873e-19)
(0.930436 0.363749 2.1342e-19)
(0.930184 0.363073 -1.69405e-18)
(0.929921 0.362342 -5.32647e-19)
(0.929638 0.361535 3.49235e-19)
(0.929317 0.360645 -1.49617e-18)
(0.928945 0.359649 -3.64977e-19)
(0.928509 0.35851 7.66521e-19)
(0.928006 0.357198 5.90184e-19)
(0.927416 0.355672 1.84087e-18)
(0.926727 0.353877 6.60683e-18)
(0.925953 0.35175 -5.62531e-18)
(0.925091 0.349277 9.54341e-18)
(0.924192 0.346396 7.8402e-18)
(0.923244 0.343171 -3.18589e-20)
(0.922326 0.339607 1.15509e-17)
(0.921441 0.33574 -1.6685e-17)
(0.920514 0.331765 -2.08866e-17)
(0.919722 0.327594 1.68074e-17)
(0.918866 0.32313 1.4824e-17)
(0.918368 0.318074 -6.31229e-18)
(0.917582 0.312152 -3.59774e-17)
(0.917825 0.305289 8.47331e-18)
(0.916593 0.295216 -8.50891e-18)
(0.919133 0.282761 -1.2573e-17)
(0.920133 0.269612 1.00996e-17)
(0.930474 0.380999 -1.39422e-21)
(0.929646 0.381059 1.54545e-21)
(0.92885 0.381105 1.07001e-20)
(0.928107 0.38114 -1.41607e-20)
(0.927454 0.38116 2.62444e-20)
(0.926924 0.381154 -3.91885e-20)
(0.926545 0.381117 1.12364e-20)
(0.926343 0.381035 -6.06773e-22)
(0.926331 0.380904 2.61916e-20)
(0.926512 0.380714 -1.39635e-20)
(0.926873 0.380463 4.23795e-21)
(0.92739 0.380147 4.62144e-21)
(0.928027 0.379769 -7.22556e-20)
(0.92874 0.379332 2.17181e-20)
(0.929484 0.378845 5.27394e-20)
(0.930213 0.378316 1.85494e-21)
(0.930885 0.377756 -9.42093e-20)
(0.931469 0.377173 3.81059e-20)
(0.931944 0.376578 1.91758e-19)
(0.932297 0.375976 -1.26615e-19)
(0.932528 0.375373 -1.00693e-19)
(0.932643 0.374768 8.90471e-20)
(0.932654 0.374164 5.85884e-20)
(0.932576 0.373552 7.03617e-20)
(0.932428 0.372933 -1.36377e-19)
(0.932224 0.3723 -3.13414e-19)
(0.931979 0.37166 2.40759e-19)
(0.931708 0.371013 3.68825e-19)
(0.931419 0.370373 1.03494e-19)
(0.931122 0.369742 -1.99357e-19)
(0.930821 0.369127 1.01342e-19)
(0.930528 0.368497 1.66389e-19)
(0.930248 0.367809 -3.08472e-19)
(0.929981 0.367065 -5.63928e-20)
(0.929714 0.366318 -6.08636e-19)
(0.929439 0.365587 -1.88755e-19)
(0.929156 0.36484 -1.66197e-19)
(0.928862 0.364044 4.9286e-19)
(0.928545 0.363178 -6.90697e-19)
(0.92819 0.362235 2.26649e-19)
(0.927778 0.361192 3.62327e-19)
(0.92729 0.360009 9.86264e-20)
(0.92673 0.358651 -2.63727e-18)
(0.926077 0.357075 -3.82947e-18)
(0.92532 0.355223 -3.65665e-18)
(0.92447 0.353025 7.4883e-18)
(0.923524 0.350461 -1.37475e-20)
(0.922528 0.347457 -3.54452e-18)
(0.921467 0.344066 1.97095e-18)
(0.920417 0.340281 -1.32917e-17)
(0.91938 0.336131 6.90794e-18)
(0.918304 0.331794 1.98971e-17)
(0.917376 0.327195 -1.61874e-18)
(0.916435 0.322246 -1.87285e-17)
(0.915949 0.316668 9.16734e-18)
(0.915345 0.310197 8.75607e-18)
(0.915857 0.302916 1.05508e-17)
(0.915356 0.292632 2.33481e-17)
(0.918416 0.280074 2.14741e-17)
(0.921711 0.26732 -2.28214e-17)
(0.930788 0.383088 -1.09001e-21)
(0.929935 0.383157 1.59676e-21)
(0.92908 0.383214 3.40433e-22)
(0.92824 0.383267 6.30111e-21)
(0.927445 0.383313 -9.68806e-21)
(0.926728 0.383342 -2.03839e-20)
(0.92612 0.38335 7.2588e-21)
(0.925652 0.383327 -1.02186e-20)
(0.925349 0.383264 2.22653e-20)
(0.925228 0.383153 -4.67181e-21)
(0.925295 0.382988 -1.5643e-20)
(0.925542 0.382761 1.31117e-20)
(0.925951 0.382471 2.20156e-20)
(0.926491 0.382116 6.24831e-20)
(0.927126 0.3817 -1.15458e-19)
(0.927811 0.381228 6.06822e-20)
(0.928503 0.380708 1.00989e-20)
(0.929162 0.380148 -6.3456e-20)
(0.929756 0.379557 -4.13655e-20)
(0.93026 0.378942 1.38706e-19)
(0.930658 0.378313 -1.50167e-19)
(0.930946 0.377669 4.54054e-20)
(0.931125 0.377017 -1.32881e-19)
(0.9312 0.376349 2.22314e-19)
(0.931187 0.375669 -4.59889e-20)
(0.931095 0.37497 -1.38384e-19)
(0.930941 0.37426 1.11678e-19)
(0.930737 0.373539 2.24016e-19)
(0.930495 0.372821 -2.24581e-19)
(0.930227 0.372111 1.45392e-19)
(0.929939 0.371416 -4.98508e-19)
(0.929643 0.370705 -6.22653e-20)
(0.929349 0.369935 2.35435e-19)
(0.929059 0.369111 -1.40154e-19)
(0.928762 0.368285 -2.96644e-19)
(0.928453 0.367477 -7.60363e-19)
(0.928133 0.366657 1.01133e-18)
(0.927798 0.365793 -3.99217e-19)
(0.927441 0.364865 3.38228e-19)
(0.927043 0.363867 7.05697e-19)
(0.926588 0.362776 5.665e-19)
(0.926053 0.361551 -4.0264e-19)
(0.925447 0.360155 1.47902e-18)
(0.924751 0.358546 2.89358e-18)
(0.923956 0.356664 -2.84974e-19)
(0.923071 0.354438 -4.40165e-18)
(0.922091 0.351842 -6.41584e-18)
(0.921059 0.348796 -5.76816e-19)
(0.919955 0.345341 5.26108e-18)
(0.918848 0.341462 -7.30454e-19)
(0.91774 0.337167 1.09802e-17)
(0.916596 0.332619 -1.85587e-17)
(0.915609 0.327742 -1.05202e-17)
(0.91465 0.322447 -3.82528e-18)
(0.914223 0.316472 -9.31469e-18)
(0.913829 0.309566 6.03501e-18)
(0.914594 0.301952 -8.00921e-18)
(0.914756 0.291595 -2.98305e-17)
(0.918379 0.279146 -3.27532e-17)
(0.92416 0.267072 1.18566e-17)
(0.931132 0.38494 -1.51698e-21)
(0.930286 0.385007 1.23745e-21)
(0.929417 0.385068 9.96235e-22)
(0.928533 0.385131 -7.30331e-21)
(0.927661 0.385193 7.62592e-21)
(0.926825 0.385246 -3.86903e-21)
(0.926057 0.385287 1.28235e-20)
(0.925388 0.385307 -1.94755e-20)
(0.924847 0.385298 1.02754e-21)
(0.924461 0.385251 1.42793e-21)
(0.924249 0.38516 -1.56161e-20)