/*--------------------------------*- C++ -*----------------------------------*\
  =========                 |
  \\      /  F ield         | OpenFOAM: The Open Source CFD Toolbox
   \\    /   O peration     | Website:  https://openfoam.org
    \\  /    A nd           | Version:  6.0
     \\/     M anipulation  |
\*---------------------------------------------------------------------------*/
FoamFile
{
    version     2.0;
    format      ascii;
    class       volScalarField;
    location    "0.48";
    object      p;
}
// * * * * * * * * * * * * * * * * * * * * * * * * * * * * * * * * * * * * * //

dimensions      [0 2 -2 0 0 0 0];

internalField   nonuniform List<scalar> 
13500
(
0.10347
0.1036
0.10271
0.10295
0.10098
0.10219
0.099227
0.10298
0.10022
0.10978
0.12208
0.17834
0.10347
0.1036
0.10271
0.10295
0.10098
0.10219
0.099222
0.10299
0.10021
0.10983
0.12145
0.17316
0.10347
0.1036
0.10271
0.10295
0.10097
0.10219
0.099214
0.103
0.10019
0.10986
0.12063
0.16862
0.10347
0.1036
0.10271
0.10296
0.10097
0.1022
0.099203
0.103
0.10017
0.10988
0.11973
0.16511
0.10347
0.10361
0.10271
0.10296
0.10096
0.10221
0.099191
0.10301
0.10014
0.10988
0.1188
0.16219
0.10347
0.10361
0.10271
0.10296
0.10096
0.10221
0.09918
0.10301
0.10011
0.10987
0.11786
0.15961
0.10347
0.10361
0.10271
0.10297
0.10095
0.10222
0.099168
0.10302
0.10007
0.10985
0.11693
0.15729
0.10347
0.10361
0.10271
0.10297
0.10095
0.10222
0.099155
0.10302
0.10003
0.10982
0.11602
0.15519
0.10348
0.10362
0.10271
0.10298
0.10095
0.10223
0.099142
0.10302
0.099988
0.10979
0.11515
0.15326
0.10348
0.10362
0.10271
0.10298
0.10094
0.10223
0.099129
0.10302
0.099941
0.10974
0.11431
0.15147
0.10348
0.10362
0.10271
0.10299
0.10094
0.10223
0.099115
0.10301
0.099891
0.10969
0.11351
0.1498
0.10348
0.10363
0.10271
0.10299
0.10093
0.10224
0.099101
0.10301
0.099837
0.10963
0.11274
0.14824
0.10349
0.10363
0.10271
0.103
0.10093
0.10224
0.099086
0.103
0.099781
0.10957
0.11199
0.14676
0.10349
0.10364
0.10271
0.103
0.10093
0.10224
0.09907
0.10299
0.099721
0.1095
0.11127
0.14535
0.1035
0.10364
0.10272
0.10301
0.10092
0.10225
0.099055
0.10298
0.099658
0.10942
0.11058
0.14401
0.1035
0.10365
0.10272
0.10301
0.10092
0.10225
0.099038
0.10297
0.099592
0.10934
0.1099
0.14272
0.1035
0.10365
0.10272
0.10302
0.10092
0.10225
0.099022
0.10296
0.099524
0.10925
0.10923
0.14148
0.10351
0.10366
0.10272
0.10302
0.10091
0.10225
0.099005
0.10295
0.099453
0.10916
0.10859
0.14028
0.10352
0.10367
0.10273
0.10303
0.10091
0.10225
0.098987
0.10293
0.09938
0.10907
0.10795
0.13911
0.10352
0.10367
0.10273
0.10303
0.10091
0.10225
0.098969
0.10291
0.099304
0.10897
0.10733
0.13799
0.10353
0.10368
0.10273
0.10304
0.1009
0.10225
0.098951
0.10289
0.099226
0.10886
0.10672
0.13689
0.10353
0.10369
0.10274
0.10304
0.1009
0.10225
0.098932
0.10287
0.099145
0.10875
0.10612
0.13582
0.10354
0.10369
0.10274
0.10305
0.1009
0.10225
0.098913
0.10285
0.099062
0.10864
0.10553
0.13477
0.10355
0.1037
0.10275
0.10306
0.10089
0.10225
0.098893
0.10283
0.098977
0.10852
0.10495
0.13375
0.10356
0.10371
0.10275
0.10306
0.10089
0.10225
0.098873
0.1028
0.098891
0.1084
0.10439
0.13275
0.10356
0.10372
0.10276
0.10307
0.10089
0.10225
0.098853
0.10278
0.098802
0.10827
0.10383
0.13177
0.10357
0.10373
0.10276
0.10308
0.10089
0.10225
0.098832
0.10275
0.098711
0.10814
0.10328
0.1308
0.10358
0.10374
0.10277
0.10308
0.10088
0.10225
0.098811
0.10272
0.098619
0.10801
0.10275
0.12985
0.10359
0.10375
0.10277
0.10309
0.10088
0.10224
0.098789
0.10269
0.098525
0.10787
0.10222
0.12892
0.1036
0.10376
0.10278
0.1031
0.10088
0.10224
0.098768
0.10266
0.098429
0.10773
0.1017
0.12801
0.10361
0.10377
0.10279
0.1031
0.10088
0.10224
0.098745
0.10262
0.098332
0.10759
0.1012
0.12711
0.10362
0.10378
0.10279
0.10311
0.10088
0.10223
0.098723
0.10259
0.098234
0.10744
0.1007
0.12622
0.10363
0.10379
0.1028
0.10312
0.10088
0.10223
0.098699
0.10255
0.098134
0.10729
0.10021
0.12534
0.10364
0.1038
0.10281
0.10313
0.10088
0.10223
0.098676
0.10251
0.098033
0.10714
0.099734
0.12448
0.10366
0.10381
0.10282
0.10313
0.10087
0.10222
0.098652
0.10248
0.09793
0.10698
0.099266
0.12363
0.10367
0.10382
0.10283
0.10314
0.10087
0.10222
0.098628
0.10243
0.097827
0.10682
0.098807
0.12279
0.10368
0.10384
0.10284
0.10315
0.10087
0.10221
0.098604
0.10239
0.097722
0.10666
0.098357
0.12196
0.10369
0.10385
0.10285
0.10316
0.10087
0.1022
0.098579
0.10235
0.097616
0.10649
0.097916
0.12114
0.10371
0.10386
0.10286
0.10317
0.10087
0.1022
0.098554
0.10231
0.09751
0.10632
0.097485
0.12033
0.10372
0.10388
0.10287
0.10317
0.10087
0.10219
0.098529
0.10226
0.097402
0.10615
0.097062
0.11953
0.10374
0.10389
0.10288
0.10318
0.10087
0.10219
0.098503
0.10221
0.097294
0.10598
0.096647
0.11874
0.10375
0.10391
0.10289
0.10319
0.10087
0.10218
0.098477
0.10216
0.097185
0.1058
0.096241
0.11796
0.10377
0.10392
0.1029
0.1032
0.10087
0.10217
0.098451
0.10211
0.097075
0.10562
0.095843
0.11719
0.10378
0.10394
0.10291
0.10321
0.10087
0.10216
0.098424
0.10206
0.096964
0.10544
0.095454
0.11643
0.1038
0.10395
0.10292
0.10322
0.10087
0.10215
0.098397
0.10201
0.096853
0.10526
0.095072
0.11568
0.10382
0.10397
0.10294
0.10323
0.10087
0.10215
0.09837
0.10196
0.096741
0.10507
0.094699
0.11494
0.10383
0.10398
0.10295
0.10324
0.10088
0.10214
0.098343
0.1019
0.096629
0.10488
0.094333
0.1142
0.10385
0.104
0.10296
0.10325
0.10088
0.10213
0.098315
0.10185
0.096516
0.10469
0.093974
0.11348
0.10387
0.10402
0.10298
0.10326
0.10088
0.10212
0.098288
0.10179
0.096403
0.1045
0.093623
0.11276
0.10389
0.10404
0.10299
0.10327
0.10088
0.10211
0.09826
0.10173
0.096289
0.10431
0.093279
0.11206
0.10391
0.10406
0.10301
0.10328
0.10088
0.1021
0.098231
0.10167
0.096175
0.10411
0.092942
0.11136
0.10393
0.10407
0.10302
0.10329
0.10089
0.10209
0.098203
0.10161
0.096061
0.10391
0.092612
0.11067
0.10395
0.10409
0.10304
0.1033
0.10089
0.10208
0.098174
0.10155
0.095947
0.10371
0.092289
0.10998
0.10397
0.10411
0.10306
0.10331
0.10089
0.10207
0.098146
0.10149
0.095832
0.10351
0.091972
0.10931
0.10399
0.10413
0.10307
0.10333
0.1009
0.10206
0.098117
0.10142
0.095717
0.10331
0.091662
0.10864
0.10401
0.10416
0.10309
0.10334
0.1009
0.10204
0.098088
0.10136
0.095602
0.1031
0.091358
0.10799
0.10404
0.10418
0.10311
0.10335
0.1009
0.10203
0.098058
0.10129
0.095487
0.1029
0.091061
0.10734
0.10406
0.1042
0.10313
0.10336
0.10091
0.10202
0.098029
0.10122
0.095372
0.10269
0.090769
0.1067
0.10408
0.10422
0.10315
0.10338
0.10091
0.10201
0.097999
0.10115
0.095257
0.10248
0.090483
0.10606
0.10411
0.10424
0.10317
0.10339
0.10092
0.102
0.09797
0.10108
0.095142
0.10227
0.090203
0.10544
0.10413
0.10427
0.10319
0.1034
0.10092
0.10198
0.09794
0.10101
0.095027
0.10206
0.089928
0.10482
0.10416
0.10429
0.10321
0.10342
0.10093
0.10197
0.09791
0.10094
0.094912
0.10184
0.089659
0.10421
0.10419
0.10432
0.10323
0.10343
0.10093
0.10196
0.09788
0.10087
0.094797
0.10163
0.089395
0.10361
0.10421
0.10434
0.10325
0.10344
0.10094
0.10194
0.09785
0.1008
0.094682
0.10142
0.089136
0.10301
0.10424
0.10437
0.10328
0.10346
0.10094
0.10193
0.09782
0.10072
0.094568
0.1012
0.088883
0.10243
0.10427
0.10439
0.1033
0.10347
0.10095
0.10192
0.09779
0.10065
0.094453
0.10098
0.088634
0.10185
0.1043
0.10442
0.10332
0.10349
0.10096
0.1019
0.09776
0.10057
0.094339
0.10076
0.088389
0.10128
0.10433
0.10445
0.10335
0.1035
0.10097
0.10189
0.09773
0.1005
0.094225
0.10054
0.08815
0.10071
0.10436
0.10448
0.10337
0.10352
0.10097
0.10187
0.0977
0.10042
0.094111
0.10032
0.087915
0.10015
0.10439
0.10451
0.1034
0.10354
0.10098
0.10186
0.09767
0.10034
0.093997
0.1001
0.087684
0.099603
0.10442
0.10454
0.10342
0.10355
0.10099
0.10184
0.097639
0.10026
0.093884
0.099882
0.087457
0.09906
0.10445
0.10457
0.10345
0.10357
0.101
0.10183
0.097609
0.10018
0.093771
0.09966
0.087234
0.098524
0.10449
0.1046
0.10348
0.10359
0.10101
0.10181
0.097579
0.1001
0.093658
0.099437
0.087016
0.097995
0.10452
0.10463
0.10351
0.1036
0.10102
0.1018
0.097549
0.10002
0.093546
0.099214
0.086801
0.097473
0.10455
0.10466
0.10354
0.10362
0.10103
0.10178
0.097519
0.099933
0.093434
0.09899
0.08659
0.096957
0.10459
0.10469
0.10357
0.10364
0.10104
0.10177
0.097489
0.09985
0.093322
0.098765
0.086382
0.096449
0.10463
0.10473
0.1036
0.10366
0.10105
0.10175
0.097459
0.099766
0.093211
0.098541
0.086178
0.095947
0.10466
0.10476
0.10363
0.10368
0.10106
0.10174
0.097429
0.099681
0.0931
0.098315
0.085977
0.095451
0.1047
0.1048
0.10366
0.1037
0.10107
0.10172
0.097399
0.099595
0.09299
0.09809
0.08578
0.094962
0.10474
0.10483
0.10369
0.10372
0.10109
0.1017
0.09737
0.099509
0.09288
0.097864
0.085585
0.09448
0.10478
0.10487
0.10372
0.10374
0.1011
0.10169
0.09734
0.099422
0.09277
0.097638
0.085394
0.094004
0.10482
0.1049
0.10376
0.10376
0.10111
0.10167
0.097311
0.099335
0.092661
0.097411
0.085205
0.093534
0.10486
0.10494
0.10379
0.10378
0.10113
0.10166
0.097281
0.099247
0.092552
0.097185
0.085019
0.09307
0.1049
0.10498
0.10383
0.1038
0.10114
0.10164
0.097252
0.099158
0.092443
0.096958
0.084836
0.092612
0.10494
0.10502
0.10386
0.10383
0.10116
0.10162
0.097223
0.099069
0.092335
0.096731
0.084656
0.09216
0.10499
0.10506
0.1039
0.10385
0.10117
0.10161
0.097195
0.098979
0.092228
0.096504
0.084477
0.091714
0.10503
0.1051
0.10394
0.10387
0.10119
0.10159
0.097166
0.098889
0.092121
0.096277
0.084302
0.091274
0.10508
0.10514
0.10398
0.1039
0.1012
0.10158
0.097137
0.098798
0.092014
0.096049
0.084128
0.090839
0.10512
0.10519
0.10402
0.10392
0.10122
0.10156
0.097109
0.098707
0.091908
0.095822
0.083957
0.09041
0.10517
0.10523
0.10406
0.10395
0.10124
0.10155
0.097081
0.098615
0.091802
0.095595
0.083788
0.089986
0.10522
0.10527
0.1041
0.10397
0.10126
0.10153
0.097053
0.098523
0.091697
0.095368
0.083621
0.089568
0.10527
0.10532
0.10414
0.104
0.10128
0.10151
0.097026
0.09843
0.091592
0.095141
0.083455
0.089155
0.10532
0.10537
0.10419
0.10403
0.1013
0.1015
0.096998
0.098337
0.091488
0.094914
0.083292
0.088747
0.10537
0.10541
0.10423
0.10406
0.10132
0.10148
0.096971
0.098243
0.091384
0.094688
0.08313
0.088344
0.10542
0.10546
0.10428
0.10408
0.10134
0.10147
0.096945
0.098149
0.091281
0.094461
0.08297
0.087946
0.10548
0.10551
0.10432
0.10411
0.10136
0.10145
0.096918
0.098055
0.091178
0.094235
0.082811
0.087552
0.10553
0.10556
0.10437
0.10414
0.10138
0.10144
0.096892
0.097961
0.091075
0.094009
0.082654
0.087164
0.10558
0.10561
0.10442
0.10418
0.1014
0.10142
0.096866
0.097866
0.090973
0.093783
0.082498
0.08678
0.10564
0.10567
0.10447
0.10421
0.10143
0.10141
0.09684
0.09777
0.090871
0.093557
0.082343
0.086401
0.1057
0.10572
0.10452
0.10424
0.10145
0.10139
0.096815
0.097675
0.09077
0.093332
0.08219
0.086026
0.10576
0.10577
0.10457
0.10427
0.10148
0.10138
0.09679
0.097579
0.090669
0.093107
0.082037
0.085655
0.10582
0.10583
0.10462
0.10431
0.1015
0.10137
0.096765
0.097483
0.090569
0.092882
0.081886
0.085289
0.10588
0.10589
0.10467
0.10434
0.10153
0.10135
0.096741
0.097387
0.090469
0.092657
0.081735
0.084927
0.10594
0.10594
0.10473
0.10438
0.10156
0.10134
0.096717
0.097291
0.090369
0.092433
0.081586
0.084568
0.10601
0.106
0.10478
0.10441
0.10159
0.10133
0.096694
0.097194
0.09027
0.092209
0.081437
0.084214
0.10607
0.10606
0.10484
0.10445
0.10162
0.10131
0.096671
0.097097
0.090171
0.091986
0.081289
0.083863
0.10614
0.10613
0.1049
0.10449
0.10165
0.1013
0.096648
0.097
0.090073
0.091762
0.081141
0.083516
0.1062
0.10619
0.10496
0.10453
0.10168
0.10129
0.096626
0.096903
0.089975
0.09154
0.080994
0.083173
0.10627
0.10625
0.10502
0.10457
0.10171
0.10128
0.096604
0.096806
0.089877
0.091317
0.080848
0.082833
0.10634
0.10632
0.10508
0.10461
0.10174
0.10127
0.096583
0.096709
0.08978
0.091095
0.080702
0.082496
0.10642
0.10639
0.10515
0.10465
0.10178
0.10126
0.096562
0.096612
0.089683
0.090874
0.080556
0.082162
0.10649
0.10646
0.10521
0.1047
0.10181
0.10125
0.096542
0.096515
0.089586
0.090652
0.08041
0.081832
0.10656
0.10653
0.10528
0.10474
0.10185
0.10124
0.096522
0.096418
0.08949
0.090432
0.080265
0.081504
0.10664
0.1066
0.10535
0.10479
0.10189
0.10123
0.096503
0.09632
0.089394
0.090211
0.080119
0.08118
0.10672
0.10667
0.10542
0.10484
0.10193
0.10122
0.096484
0.096223
0.089298
0.089991
0.079974
0.080858
0.1068
0.10675
0.10549
0.10489
0.10196
0.10122
0.096466
0.096126
0.089203
0.089772
0.079829
0.080539
0.10688
0.10682
0.10556
0.10494
0.10201
0.10121
0.096448
0.096029
0.089107
0.089552
0.079683
0.080222
0.10696
0.1069
0.10563
0.10499
0.10205
0.1012
0.096431
0.095932
0.089013
0.089334
0.079538
0.079908
0.10705
0.10698
0.10571
0.10504
0.10209
0.1012
0.096415
0.095836
0.088918
0.089115
0.079392
0.079596
0.10714
0.10706
0.10579
0.1051
0.10214
0.1012
0.096399
0.095739
0.088823
0.088897
0.079245
0.079286
0.10722
0.10715
0.10587
0.10515
0.10218
0.10119
0.096384
0.095643
0.088729
0.08868
0.079099
0.078979
0.10732
0.10723
0.10595
0.10521
0.10223
0.10119
0.09637
0.095547
0.088635
0.088462
0.078952
0.078673
0.10741
0.10732
0.10603
0.10527
0.10228
0.10119
0.096356
0.095451
0.088541
0.088246
0.078804
0.078369
0.1075
0.10741
0.10612
0.10533
0.10233
0.10119
0.096344
0.095355
0.088448
0.088029
0.078656
0.078067
0.1076
0.1075
0.10621
0.10539
0.10238
0.10119
0.096331
0.09526
0.088354
0.087813
0.078507
0.077766
0.1077
0.10759
0.10629
0.10546
0.10243
0.10119
0.09632
0.095165
0.088261
0.087597
0.078357
0.077467
0.1078
0.10769
0.10639
0.10552
0.10249
0.10119
0.09631
0.09507
0.088168
0.087382
0.078206
0.077169
0.1079
0.10779
0.10648
0.10559
0.10254
0.1012
0.0963
0.094976
0.088075
0.087167
0.078055
0.076873
0.10801
0.10789
0.10658
0.10566
0.1026
0.1012
0.096292
0.094882
0.087982
0.086952
0.077902
0.076577
0.10812
0.10799
0.10667
0.10573
0.10266
0.10121
0.096284
0.094788
0.08789
0.086738
0.077749
0.076283
0.10823
0.1081
0.10678
0.10581
0.10272
0.10122
0.096277
0.094696
0.087797
0.086523
0.077594
0.075989
0.10834
0.10821
0.10688
0.10588
0.10279
0.10123
0.096271
0.094603
0.087705
0.086309
0.077439
0.075696
0.10846
0.10832
0.10698
0.10596
0.10285
0.10124
0.096267
0.094511
0.087612
0.086096
0.077281
0.075404
0.10858
0.10843
0.10709
0.10604
0.10292
0.10125
0.096263
0.09442
0.08752
0.085882
0.077123
0.075112
0.1087
0.10855
0.1072
0.10613
0.10299
0.10126
0.096261
0.09433
0.087428
0.085669
0.076963
0.07482
0.10882
0.10867
0.10732
0.10621
0.10306
0.10128
0.09626
0.09424
0.087335
0.085456
0.076802
0.074529
0.10895
0.10879
0.10744
0.1063
0.10314
0.1013
0.09626
0.094151
0.087243
0.085243
0.07664
0.074238
0.10908
0.10892
0.10756
0.10639
0.10322
0.10132
0.096261
0.094062
0.087151
0.085031
0.076475
0.073947
0.10922
0.10905
0.10768
0.10649
0.1033
0.10134
0.096263
0.093975
0.087059
0.084818
0.076309
0.073655
0.10936
0.10918
0.10781
0.10659
0.10338
0.10136
0.096268
0.093888
0.086967
0.084606
0.076141
0.073363
0.1095
0.10932
0.10794
0.10669
0.10346
0.10139
0.096273
0.093802
0.086875
0.084394
0.075972
0.073071
0.10964
0.10946
0.10807
0.10679
0.10355
0.10141
0.09628
0.093717
0.086783
0.084182
0.0758
0.072778
0.10979
0.1096
0.10821
0.1069
0.10364
0.10144
0.096289
0.093633
0.086691
0.083969
0.075627
0.072485
0.10994
0.10975
0.10835
0.10701
0.10374
0.10148
0.096299
0.093551
0.0866
0.083757
0.075451
0.07219
0.1101
0.1099
0.10849
0.10713
0.10383
0.10151
0.096311
0.093469
0.086508
0.083545
0.075273
0.071895
0.11026
0.11006
0.10864
0.10725
0.10393
0.10155
0.096325
0.093388
0.086416
0.083333
0.075094
0.071598
0.11043
0.11022
0.1088
0.10737
0.10404
0.10159
0.096341
0.093309
0.086324
0.083121
0.074911
0.0713
0.1106
0.11038
0.10896
0.1075
0.10414
0.10163
0.096358
0.093231
0.086232
0.082909
0.074727
0.071
0.11077
0.11055
0.10912
0.10763
0.10425
0.10168
0.096378
0.093155
0.086141
0.082696
0.074539
0.070699
0.11095
0.11073
0.10929
0.10776
0.10437
0.10173
0.0964
0.093079
0.086049
0.082484
0.07435
0.070396
0.11114
0.11091
0.10946
0.1079
0.10449
0.10178
0.096424
0.093006
0.085957
0.082271
0.074157
0.07009
0.11133
0.11109
0.10964
0.10805
0.10461
0.10184
0.096451
0.092934
0.085866
0.082058
0.073962
0.069783
0.11152
0.11129
0.10982
0.1082
0.10474
0.1019
0.09648
0.092863
0.085774
0.081845
0.073764
0.069474
0.11172
0.11148
0.11001
0.10835
0.10487
0.10196
0.096512
0.092795
0.085683
0.081631
0.073564
0.069162
0.11193
0.11168
0.1102
0.10851
0.10501
0.10203
0.096546
0.092728
0.085592
0.081418
0.07336
0.068847
0.11214
0.11189
0.1104
0.10868
0.10515
0.1021
0.096583
0.092663
0.0855
0.081203
0.073153
0.068529
0.11236
0.11211
0.11061
0.10885
0.10529
0.10218
0.096623
0.0926
0.085409
0.080989
0.072942
0.068208
0.11258
0.11233
0.11082
0.10903
0.10545
0.10226
0.096667
0.092539
0.085318
0.080774
0.072729
0.067884
0.11282
0.11256
0.11104
0.10922
0.1056
0.10235
0.096713
0.09248
0.085227
0.080558
0.072512
0.067557
0.11306
0.1128
0.11127
0.10941
0.10577
0.10244
0.096762
0.092424
0.085136
0.080342
0.072291
0.067226
0.1133
0.11304
0.1115
0.1096
0.10594
0.10253
0.096816
0.092369
0.085046
0.080126
0.072067
0.066891
0.11356
0.11329
0.11174
0.10981
0.10611
0.10263
0.096872
0.092317
0.084955
0.079908
0.071838
0.066552
0.11382
0.11355
0.11199
0.11002
0.10629
0.10274
0.096933
0.092268
0.084865
0.07969
0.071606
0.066209
0.11409
0.11382
0.11225
0.11024
0.10648
0.10285
0.096997
0.092221
0.084775
0.079471
0.07137
0.065861
0.11437
0.11409
0.11251
0.11047
0.10668
0.10297
0.097066
0.092177
0.084685
0.079252
0.071129
0.065508
0.11465
0.11438
0.11279
0.11071
0.10688
0.10309
0.097138
0.092136
0.084595
0.079031
0.070885
0.065151
0.11495
0.11467
0.11307
0.11095
0.10709
0.10322
0.097215
0.092098
0.084505
0.078809
0.070635
0.064788
0.11525
0.11497
0.11336
0.11121
0.10731
0.10336
0.097297
0.092062
0.084415
0.078586
0.070381
0.064419
0.11557
0.11529
0.11366
0.11147
0.10754
0.10351
0.097383
0.09203
0.084326
0.078362
0.070122
0.064045
0.11589
0.11561
0.11398
0.11175
0.10777
0.10366
0.097475
0.092001
0.084236
0.078137
0.069858
0.063664
0.11623
0.11595
0.1143
0.11203
0.10801
0.10381
0.097571
0.091975
0.084147
0.07791
0.069588
0.063277
0.11657
0.11629
0.11463
0.11232
0.10827
0.10398
0.097673
0.091953
0.084058
0.077682
0.069313
0.062884
0.11693
0.11665
0.11498
0.11263
0.10853
0.10416
0.09778
0.091933
0.083969
0.077451
0.069032
0.062483
0.1173
0.11702
0.11534
0.11294
0.1088
0.10434
0.097892
0.091918
0.08388
0.077219
0.068746
0.062075
0.11768
0.1174
0.1157
0.11327
0.10908
0.10453
0.098011
0.091906
0.08379
0.076985
0.068452
0.061658
0.11807
0.11779
0.11609
0.11361
0.10938
0.10473
0.098135
0.091897
0.083701
0.076748
0.068153
0.061234
0.11848
0.1182
0.11648
0.11396
0.10968
0.10494
0.098265
0.091892
0.083611
0.07651
0.067847
0.060801
0.1189
0.11862
0.11689
0.11433
0.10999
0.10516
0.098402
0.091891
0.083521
0.076268
0.067533
0.060359
0.11933
0.11906
0.11731
0.11471
0.11032
0.10538
0.098546
0.091893
0.083431
0.076023
0.067212
0.059907
0.11978
0.11951
0.11775
0.1151
0.11066
0.10562
0.098696
0.0919
0.08334
0.075776
0.066883
0.059445
0.12024
0.11997
0.1182
0.1155
0.11101
0.10587
0.098852
0.09191
0.083249
0.075524
0.066546
0.058973
0.12071
0.12046
0.11867
0.11593
0.11138
0.10613
0.099016
0.091924
0.083156
0.075269
0.0662
0.05849
0.12121
0.12095
0.11915
0.11636
0.11175
0.1064
0.099187
0.091941
0.083063
0.07501
0.065845
0.057995
0.12172
0.12147
0.11965
0.11682
0.11215
0.10668
0.099366
0.091963
0.082968
0.074746
0.065481
0.057488
0.12224
0.122
0.12017
0.11729
0.11255
0.10697
0.099552
0.091988
0.082872
0.074477
0.065106
0.056968
0.12279
0.12255
0.12071
0.11777
0.11297
0.10728
0.099746
0.092017
0.082774
0.074203
0.064721
0.056434
0.12335
0.12312
0.12126
0.11828
0.11341
0.1076
0.099947
0.092049
0.082674
0.073923
0.064324
0.055886
0.12393
0.12371
0.12184
0.1188
0.11386
0.10793
0.10016
0.092085
0.082571
0.073637
0.063916
0.055324
0.12453
0.12432
0.12243
0.11935
0.11433
0.10827
0.10037
0.092124
0.082466
0.073344
0.063495
0.054745
0.12515
0.12495
0.12305
0.11991
0.11482
0.10863
0.1006
0.092167
0.082358
0.073043
0.063061
0.05415
0.1258
0.12561
0.12369
0.12049
0.11533
0.109
0.10084
0.092213
0.082247
0.072734
0.062612
0.053537
0.12646
0.12629
0.12435
0.1211
0.11585
0.10939
0.10108
0.092262
0.082131
0.072416
0.062149
0.052906
0.12715
0.12699
0.12504
0.12173
0.1164
0.10979
0.10133
0.092313
0.082012
0.072089
0.06167
0.052255
0.12787
0.12772
0.12575
0.12239
0.11696
0.11021
0.10159
0.092368
0.081887
0.071751
0.061174
0.051583
0.12861
0.12847
0.12649
0.12307
0.11755
0.11065
0.10186
0.092424
0.081757
0.071402
0.06066
0.05089
0.12938
0.12926
0.12726
0.12377
0.11816
0.1111
0.10214
0.092483
0.081621
0.071041
0.060127
0.050174
0.13017
0.13007
0.12806
0.12451
0.11879
0.11157
0.10243
0.092544
0.081478
0.070666
0.059575
0.049433
0.131
0.13092
0.12889
0.12527
0.11945
0.11206
0.10273
0.092607
0.081328
0.070278
0.059001
0.048667
0.13186
0.1318
0.12975
0.12607
0.12013
0.11256
0.10304
0.092671
0.081169
0.069874
0.058404
0.047874
0.13275
0.13271
0.13065
0.1269
0.12085
0.11309
0.10336
0.092736
0.081002
0.069454
0.057783
0.047052
0.13368
0.13367
0.13159
0.12776
0.12159
0.11364
0.1037
0.092802
0.080825
0.069016
0.057137
0.0462
0.13464
0.13466
0.13256
0.12866
0.12236
0.11421
0.10404
0.092868
0.080637
0.068558
0.056464
0.045315
0.13565
0.1357
0.13358
0.12961
0.12316
0.11481
0.10439
0.092935
0.080437
0.06808
0.055762
0.044396
0.1367
0.13678
0.13465
0.13059
0.12401
0.11543
0.10476
0.093
0.080224
0.06758
0.055029
0.043441
0.1378
0.13791
0.13576
0.13162
0.12488
0.11607
0.10514
0.093065
0.079997
0.067055
0.054262
0.042447
0.13894
0.13909
0.13693
0.1327
0.1258
0.11675
0.10553
0.093128
0.079754
0.066505
0.053461
0.041412
0.14014
0.14033
0.13815
0.13383
0.12676
0.11745
0.10593
0.093188
0.079494
0.065926
0.052622
0.040334
0.14139
0.14163
0.13943
0.13501
0.12777
0.11819
0.10635
0.093244
0.079215
0.065316
0.051743
0.03921
0.14271
0.14299
0.14077
0.13626
0.12882
0.11895
0.10678
0.093296
0.078914
0.064674
0.050821
0.038036
0.14409
0.14442
0.14219
0.13757
0.12992
0.11975
0.10722
0.093342
0.078589
0.063994
0.049852
0.036809
0.14554
0.14593
0.14368
0.13894
0.13108
0.12059
0.10767
0.09338
0.078238
0.063275
0.048834
0.035526
0.14706
0.14751
0.14525
0.1404
0.1323
0.12146
0.10814
0.093408
0.077857
0.062512
0.04776
0.034183
0.14866
0.14918
0.14691
0.14193
0.13358
0.12237
0.10862
0.093424
0.077442
0.061701
0.046628
0.032774
0.15035
0.15095
0.14865
0.14354
0.13492
0.12332
0.10911
0.093423
0.07699
0.060837
0.045433
0.031297
0.15212
0.15281
0.1505
0.14525
0.13634
0.12432
0.10961
0.093403
0.076493
0.059913
0.044167
0.029744
0.154
0.15478
0.15246
0.14705
0.13782
0.12535
0.11012
0.093359
0.075947
0.058924
0.042825
0.02811
0.15598
0.15686
0.15453
0.14895
0.13939
0.12642
0.11063
0.093285
0.075345
0.057861
0.041399
0.026388
0.15806
0.15906
0.15672
0.15096
0.14103
0.12754
0.11113
0.093174
0.074677
0.056715
0.03988
0.02457
0.16027
0.16139
0.15904
0.15309
0.14275
0.12869
0.11163
0.093018
0.073935
0.055478
0.03826
0.022649
0.1626
0.16386
0.1615
0.15534
0.14457
0.12989
0.11212
0.092807
0.073107
0.054136
0.036528
0.020614
0.16506
0.16648
0.16412
0.15773
0.14647
0.13111
0.11259
0.092531
0.07218
0.052679
0.03467
0.018455
0.16767
0.16926
0.1669
0.16025
0.14846
0.13237
0.11303
0.092175
0.071141
0.05109
0.032675
0.01616
0.17042
0.17221
0.16985
0.16292
0.15054
0.13365
0.11342
0.091725
0.069972
0.049354
0.030527
0.013715
0.17334
0.17535
0.17299
0.16574
0.15272
0.13494
0.11376
0.091162
0.068654
0.047454
0.02821
0.011107
0.17644
0.17869
0.17634
0.16873
0.15499
0.13624
0.11402
0.090464
0.067166
0.045368
0.025705
0.0083183
0.17973
0.18225
0.1799
0.1719
0.15735
0.13753
0.11419
0.089607
0.065484
0.043075
0.022994
0.0053329
0.18322
0.18605
0.18372
0.17525
0.1598
0.13879
0.11423
0.088562
0.063578
0.040549
0.020054
0.002132
0.18695
0.19012
0.1878
0.1788
0.16233
0.14
0.11411
0.087292
0.061417
0.037762
0.016863
-0.001304
0.19092
0.19449
0.19218
0.18256
0.16492
0.14114
0.1138
0.085756
0.058961
0.034682
0.013392
-0.0049963
0.19517
0.1992
0.19689
0.18655
0.16758
0.14215
0.11325
0.083905
0.056166
0.031272
0.0096135
-0.0089673
0.19972
0.20428
0.20196
0.19076
0.17026
0.143
0.11238
0.081676
0.052979
0.027489
0.0054935
-0.013241
0.20461
0.20978
0.20743
0.19521
0.17293
0.14361
0.11114
0.078997
0.049338
0.023282
0.00099437
-0.017843
0.20986
0.21575
0.21333
0.19989
0.17553
0.1439
0.10941
0.075781
0.045167
0.018594
-0.003927
-0.022803
0.21553
0.22225
0.21971
0.20476
0.17798
0.14376
0.10709
0.071921
0.040383
0.01336
-0.0093188
-0.028148
0.22165
0.22935
0.22658
0.20979
0.18017
0.14304
0.10403
0.067296
0.034888
0.0075062
-0.015233
-0.03391
0.22825
0.23709
0.23395
0.21487
0.18193
0.14154
0.10005
0.061764
0.028575
0.0009564
-0.021721
-0.040114
0.23537
0.24554
0.24178
0.21986
0.18302
0.13903
0.094952
0.055171
0.021336
-0.0063625
-0.028828
-0.046779
0.24307
0.25471
0.24998
0.22452
0.18314
0.13521
0.088496
0.047353
0.013066
-0.01451
-0.036583
-0.053902
0.25141
0.26463
0.25836
0.22846
0.18185
0.12972
0.080423
0.03815
0.0036823
-0.023516
-0.044981
-0.06145
0.26047
0.27522
0.26654
0.23113
0.17861
0.12212
0.070464
0.027425
-0.0068585
-0.033364
-0.053965
-0.069343
0.2704
0.28628
0.27388
0.2317
0.17269
0.11194
0.058373
0.015096
-0.018534
-0.043968
-0.063415
-0.077442
0.28143
0.29741
0.2793
0.22897
0.16319
0.098684
0.043978
0.0011805
-0.031223
-0.055156
-0.073132
-0.085546
0.2939
0.30775
0.2811
0.22132
0.14909
0.081942
0.027256
-0.014148
-0.044677
-0.066658
-0.082841
-0.0934
0.30826
0.31582
0.27673
0.20664
0.12931
0.061466
0.0084151
-0.03052
-0.058499
-0.078106
-0.092211
-0.10073
0.32508
0.31929
0.26275
0.18249
0.1029
0.0373
-0.012073
-0.047366
-0.072169
-0.089073
-0.1009
-0.10729
0.34478
0.3152
0.23546
0.14666
0.069358
0.0098524
-0.033519
-0.064015
-0.085128
-0.099143
-0.10861
-0.1129
0.36668
0.29953
0.19213
0.09844
0.029098
-0.020098
-0.055184
-0.079873
-0.096939
-0.10803
-0.11519
-0.11754
0.38941
0.26495
0.12945
0.038158
-0.01701
-0.052045
-0.076862
-0.094897
-0.10765
-0.11585
-0.12082
-0.12148
0.42124
0.20973
0.045461
-0.033608
-0.068632
-0.086674
-0.099719
-0.11031
-0.1184
-0.12361
-0.12639
-0.12558
0.47392
0.15045
-0.047581
-0.10933
-0.12142
-0.12207
-0.12337
-0.12644
-0.12974
-0.13186
-0.13244
-0.13023
0.10242
0.063791
0.055502
0.052681
0.052593
0.053809
0.055358
0.056632
0.057413
0.05756
0.057158
0.055999
0.12095
0.078072
0.067314
0.062768
0.06188
0.06286
0.064467
0.065906
0.066855
0.067103
0.066717
0.06589
0.10763
0.071985
0.061913
0.056872
0.055416
0.055915
0.057184
0.058438
0.059334
0.059637
0.059376
0.058779
0.10204
0.070978
0.060959
0.055536
0.053692
0.053903
0.05499
0.056155
0.057033
0.057365
0.057159
0.056608
0.10103
0.072752
0.062429
0.056648
0.054474
0.054451
0.055397
0.056485
0.057334
0.057658
0.057458
0.056914
0.10017
0.074419
0.063925
0.057869
0.055379
0.055097
0.055861
0.056829
0.057608
0.057892
0.057676
0.05711
0.098997
0.075769
0.065294
0.059041
0.056247
0.055677
0.056212
0.057013
0.057685
0.057899
0.057649
0.057037
0.097873
0.077059
0.066736
0.060354
0.057276
0.056398
0.056669
0.057266
0.057797
0.057913
0.057611
0.056934
0.09691
0.078324
0.068256
0.061809
0.058476
0.057285
0.057268
0.057632
0.057996
0.057991
0.057622
0.056861
0.096065
0.079507
0.069778
0.063328
0.059779
0.058284
0.057971
0.058084
0.058261
0.058118
0.057669
0.056814
0.095298
0.080571
0.071241
0.064844
0.061124
0.059346
0.05874
0.058595
0.058575
0.058283
0.057747
0.056789
0.094587
0.081501
0.072608
0.06631
0.062462
0.060431
0.059547
0.059149
0.058929
0.058482
0.057854
0.056792
0.093923
0.082297
0.073856
0.067692
0.06376
0.061509
0.060368
0.059728
0.059313
0.058712
0.057989
0.056824
0.093297
0.082963
0.074976
0.068971
0.06499
0.062555
0.061184
0.060319
0.059717
0.058965
0.05815
0.056885
0.092707
0.083511
0.075966
0.070137
0.066139
0.063553
0.06198
0.060909
0.060133
0.059237
0.058331
0.056976
0.092148
0.083952
0.076832
0.071189
0.0672
0.064494
0.062745
0.06149
0.060553
0.059522
0.058532
0.057092
0.091619
0.084301
0.077583
0.07213
0.06817
0.065371
0.063474
0.062055
0.060972
0.059818
0.058747
0.057233
0.091121
0.084572
0.078231
0.072967
0.069052
0.066185
0.064163
0.062601
0.061386
0.060119
0.058974
0.057395
0.090651
0.084776
0.078786
0.073709
0.06985
0.066936
0.06481
0.063124
0.061792
0.060424
0.05921
0.057574
0.09021
0.084924
0.07926
0.074364
0.070571
0.067626
0.065415
0.063624
0.062188
0.060729
0.059452
0.057769
0.089796
0.085027
0.079662
0.074942
0.07122
0.068259
0.065981
0.064099
0.062573
0.061033
0.0597
0.057976
0.089408
0.085091
0.080003
0.075451
0.071804
0.068839
0.066507
0.06455
0.062944
0.061334
0.059949
0.058194
0.089045
0.085125
0.080291
0.075898
0.072329
0.069369
0.066997
0.064976
0.063302
0.061631
0.0602
0.058418
0.088706
0.085133
0.080532
0.07629
0.0728
0.069853
0.067452
0.065379
0.063646
0.061922
0.060451
0.058648
0.088388
0.08512
0.080732
0.076634
0.073222
0.070296
0.067874
0.065759
0.063976
0.062208
0.0607
0.058882
0.088091
0.08509
0.080898
0.076935
0.0736
0.070699
0.068265
0.066118
0.064292
0.062486
0.060947
0.059117
0.087812
0.085047
0.081033
0.077197
0.073939
0.071067
0.068627
0.066455
0.064594
0.062757
0.06119
0.059353
0.087551
0.084992
0.081142
0.077426
0.074242
0.071402
0.068962
0.066772
0.064882
0.063019
0.061428
0.059588
0.087306
0.084928
0.081228
0.077625
0.074513
0.071708
0.069272
0.067069
0.065156
0.063274
0.061662
0.059821
0.087076
0.084856
0.081294
0.077797
0.074755
0.071985
0.069558
0.067349
0.065418
0.063519
0.06189
0.060051
0.086858
0.084779
0.081343
0.077945
0.07497
0.072238
0.069823
0.067611
0.065666
0.063756
0.062113
0.060277
0.086653
0.084696
0.081376
0.078071
0.075161
0.072467
0.070067
0.067856
0.065901
0.063984
0.062329
0.060498
0.086459
0.08461
0.081396
0.078179
0.07533
0.072675
0.070292
0.068086
0.066125
0.064203
0.062538
0.060715
0.086274
0.08452
0.081405
0.078269
0.07548
0.072863
0.070499
0.0683
0.066336
0.064413
0.06274
0.060926
0.086098
0.084428
0.081403
0.078344
0.075612
0.073033
0.070689
0.068501
0.066536
0.064614
0.062935
0.06113
0.08593
0.084333
0.081391
0.078406
0.075727
0.073187
0.070864
0.068687
0.066724
0.064806
0.063123
0.061329
0.085768
0.084236
0.081372
0.078454
0.075828
0.073325
0.071024
0.068861
0.066902
0.064988
0.063303
0.061521
0.085613
0.084138
0.081345
0.078492
0.075914
0.073448
0.071171
0.069023
0.067069
0.065162
0.063475
0.061706
0.085463
0.084038
0.081311
0.078519
0.075989
0.073558
0.071305
0.069172
0.067225
0.065327
0.063641
0.061883
0.085318
0.083936
0.081271
0.078536
0.076051
0.073656
0.071426
0.069311
0.067372
0.065484
0.063798
0.062054
0.085176
0.083833
0.081226
0.078545
0.076103
0.073742
0.071536
0.069439
0.06751
0.065632
0.063948