/*--------------------------------*- C++ -*----------------------------------*\
  =========                 |
  \\      /  F ield         | OpenFOAM: The Open Source CFD Toolbox
   \\    /   O peration     | Website:  https://openfoam.org
    \\  /    A nd           | Version:  6.0
     \\/     M anipulation  |
\*---------------------------------------------------------------------------*/
FoamFile
{
    version     2.0;
    format      ascii;
    class       surfaceScalarField;
    location    "0.48";
    object      phi;
}
// * * * * * * * * * * * * * * * * * * * * * * * * * * * * * * * * * * * * * //

dimensions      [0 3 -1 0 0 0 0];

internalField   nonuniform List<scalar> 
26699
(
2.0051e-05
0.005201
3.2419e-10
4.0126e-05
0.0051116
5.9638e-05
0.0049351
7.8188e-05
0.0046741
9.5413e-05
0.0043332
0.00011102
0.0039182
0.00012471
0.0034362
0.00013627
0.0028953
0.00014544
0.002305
0.00015193
0.0016754
0.00015701
0.0010157
0.00046409
3.5129e-05
2.0051e-05
0.0051809
1.01e-09
4.0129e-05
0.0050916
5.9639e-05
0.0049156
7.8193e-05
0.0046556
9.5414e-05
0.004316
0.00011103
0.0039026
0.0001247
0.0034225
0.00013626
0.0028838
0.0001454
0.0022959
0.00015145
0.0016693
0.00015848
0.0010087
0.00055574
6.6823e-05
2.0052e-05
0.0051609
1.7411e-09
4.013e-05
0.0050715
5.9642e-05
0.004896
7.8196e-05
0.004637
9.5417e-05
0.0042988
0.00011103
0.003887
0.0001247
0.0034088
0.00013624
0.0028722
0.00014538
0.0022867
0.000151
0.0016637
0.00015948
0.0010002
0.00062261
9.2608e-05
2.0052e-05
0.0051408
2.4775e-09
4.0132e-05
0.0050514
5.9645e-05
0.0048765
7.8199e-05
0.0046185
9.5421e-05
0.0042816
0.00011103
0.0038714
0.0001247
0.0033952
0.00013622
0.0028607
0.00014537
0.0022776
0.00015062
0.0016584
0.00015995
0.00099085
0.0006696
0.00011295
2.0053e-05
0.0051208
3.2148e-09
4.0133e-05
0.0050313
5.9648e-05
0.004857
7.8202e-05
0.0045999
9.5425e-05
0.0042643
0.00011103
0.0038558
0.0001247
0.0033815
0.0001362
0.0028492
0.00014538
0.0022684
0.00015032
0.0016535
0.00015994
0.00098124
0.00070087
0.00012867
2.0053e-05
0.0051007
3.953e-09
4.0135e-05
0.0050112
5.9651e-05
0.0048375
7.8205e-05
0.0045813
9.543e-05
0.0042471
0.00011104
0.0038401
0.0001247
0.0033678
0.00013619
0.0028377
0.00014539
0.0022592
0.00015011
0.0016488
0.00015956
0.00097179
0.00071989
0.00014054
2.0054e-05
0.0050807
4.6922e-09
4.0136e-05
0.0049912
5.9654e-05
0.004818
7.8208e-05
0.0045628
9.5434e-05
0.0042299
0.00011104
0.0038245
0.00012471
0.0033542
0.00013617
0.0028263
0.00014541
0.0022499
0.00014999
0.0016442
0.00015893
0.00096286
0.00072957
0.00014925
2.0054e-05
0.0050606
5.4323e-09
4.0138e-05
0.0049711
5.9657e-05
0.0047985
7.8212e-05
0.0045442
9.5439e-05
0.0042127
0.00011104
0.0038089
0.00012471
0.0033405
0.00013616
0.0028148
0.00014543
0.0022407
0.00014995
0.0016397
0.00015816
0.00095465
0.00073229
0.00015543
2.0055e-05
0.0050405
6.1734e-09
4.0139e-05
0.004951
5.966e-05
0.0047789
7.8215e-05
0.0045257
9.5445e-05
0.0041954
0.00011104
0.0037933
0.00012472
0.0033268
0.00013615
0.0028034
0.00014546
0.0022314
0.00014997
0.0016352
0.00015735
0.00094726
0.00072999
0.00015966
2.0056e-05
0.0050205
6.9154e-09
4.0141e-05
0.0049309
5.9663e-05
0.0047594
7.8219e-05
0.0045071
9.545e-05
0.0041782
0.00011105
0.0037778
0.00012473
0.0033131
0.00013614
0.002792
0.00014548
0.002222
0.00015004
0.0016306
0.00015658
0.00094072
0.00072416
0.00016241
2.0056e-05
0.0050004
7.6582e-09
4.0143e-05
0.0049108
5.9667e-05
0.0047399
7.8223e-05
0.0044886
9.5457e-05
0.004161
0.00011105
0.0037622
0.00012474
0.0032994
0.00013614
0.0027806
0.0001455
0.0022127
0.00015015
0.001626
0.0001559
0.00093497
0.00071596
0.0001641
2.0057e-05
0.0049804
8.4016e-09
4.0145e-05
0.0048907
5.967e-05
0.0047204
7.8227e-05
0.00447
9.5464e-05
0.0041437
0.00011106
0.0037466
0.00012476
0.0032857
0.00013614
0.0027692
0.00014552
0.0022033
0.00015027
0.0016212
0.00015532
0.00092992
0.00070624
0.00016504
2.0058e-05
0.0049603
9.1454e-09
4.0147e-05
0.0048706
5.9674e-05
0.0047008
7.8231e-05
0.0044515
9.5471e-05
0.0041265
0.00011106
0.003731
0.00012477
0.003272
0.00013614
0.0027578
0.00014554
0.0021939
0.00015041
0.0016163
0.00015486
0.00092547
0.00069562
0.00016548
2.0058e-05
0.0049402
9.8893e-09
4.0149e-05
0.0048506
5.9678e-05
0.0046813
7.8236e-05
0.0044329
9.548e-05
0.0041093
0.00011107
0.0037154
0.00012479
0.0032583
0.00013615
0.0027465
0.00014556
0.0021845
0.00015055
0.0016113
0.00015452
0.0009215
0.00068454
0.00016561
2.0059e-05
0.0049201
1.0633e-08
4.0151e-05
0.0048305
5.9682e-05
0.0046618
7.8242e-05
0.0044143
9.5489e-05
0.004092
0.00011108
0.0036998
0.00012481
0.0032446
0.00013616
0.0027351
0.00014557
0.0021751
0.00015069
0.0016062
0.00015429
0.00091791
0.00067328
0.00016554
2.006e-05
0.0049001
1.1375e-08
4.0153e-05
0.0048104
5.9687e-05
0.0046422
7.8248e-05
0.0043958
9.5499e-05
0.0040748
0.00011109
0.0036842
0.00012483
0.0032308
0.00013618
0.0027238
0.00014559
0.0021657
0.00015082
0.001601
0.00015414
0.00091459
0.00066205
0.00016537
2.0061e-05
0.00488
1.2116e-08
4.0156e-05
0.0047903
5.9692e-05
0.0046227
7.8255e-05
0.0043772
9.551e-05
0.0040575
0.00011111
0.0036686
0.00012485
0.0032171
0.0001362
0.0027124
0.0001456
0.0021563
0.00015094
0.0015956
0.00015407
0.00091147
0.00065096
0.00016516
2.0062e-05
0.0048599
1.2855e-08
4.0159e-05
0.0047702
5.9697e-05
0.0046032
7.8262e-05
0.0043586
9.5523e-05
0.0040402
0.00011112
0.003653
0.00012487
0.0032033
0.00013622
0.0027011
0.00014562
0.0021469
0.00015105
0.0015902
0.00015405
0.00090847
0.00064007
0.00016493
2.0063e-05
0.0048399
1.359e-08
4.0162e-05
0.0047501
5.9703e-05
0.0045836
7.8271e-05
0.0043401
9.5536e-05
0.004023
0.00011114
0.0036374
0.0001249
0.0031896
0.00013624
0.0026897
0.00014563
0.0021375
0.00015116
0.0015847
0.00015407
0.00090556
0.00062943
0.0001647
2.0065e-05
0.0048198
1.432e-08
4.0165e-05
0.00473
5.9709e-05
0.0045641
7.828e-05
0.0043215
9.555e-05
0.0040057
0.00011115
0.0036218
0.00012492
0.0031758
0.00013626
0.0026784
0.00014564
0.0021281
0.00015125
0.0015791
0.00015412
0.0009027
0.00061906
0.00016449
2.0066e-05
0.0047997
1.5044e-08
4.0169e-05
0.0047099
5.9716e-05
0.0045445
7.829e-05
0.0043029
9.5565e-05
0.0039884
0.00011117
0.0036062
0.00012494
0.003162
0.00013628
0.0026671
0.00014565
0.0021187
0.00015134
0.0015734
0.00015418
0.00089985
0.00060895
0.00016429
2.0068e-05
0.0047796
1.576e-08
4.0173e-05
0.0046898
5.9724e-05
0.004525
7.8301e-05
0.0042844
9.5581e-05
0.0039711
0.00011119
0.0035906
0.00012496
0.0031482
0.0001363
0.0026557
0.00014566
0.0021094
0.00015141
0.0015676
0.00015426
0.000897
0.0005991
0.00016411
2.0069e-05
0.0047595
1.6466e-08
4.0178e-05
0.0046697
5.9732e-05
0.0045054
7.8312e-05
0.0042658
9.5598e-05
0.0039539
0.00011121
0.003575
0.00012499
0.0031345
0.00013632
0.0026444
0.00014567
0.0021
0.00015149
0.0015618
0.00015435
0.00089414
0.0005895
0.00016395
2.0072e-05
0.0047394
1.7159e-08
4.0183e-05
0.0046495
5.974e-05
0.0044859
7.8325e-05
0.0042472
9.5614e-05
0.0039366
0.00011123
0.0035594
0.00012501
0.0031207
0.00013634
0.0026331
0.00014567
0.0020907
0.00015156
0.0015559
0.00015444
0.00089126
0.00058015
0.00016379
2.0074e-05
0.0047193
1.7838e-08
4.0188e-05
0.0046294
5.9749e-05
0.0044663
7.8337e-05
0.0042286
9.5631e-05
0.0039193
0.00011124
0.0035438
0.00012502
0.0031069
0.00013636
0.0026217
0.00014568
0.0020814
0.00015162
0.00155
0.00015453
0.00088835
0.00057104
0.00016364
2.0076e-05
0.0046992
1.85e-08
4.0194e-05
0.0046093
5.9759e-05
0.0044468
7.835e-05
0.00421
9.5647e-05
0.003902
0.00011126
0.0035281
0.00012504
0.0030931
0.00013638
0.0026104
0.00014569
0.0020721
0.00015169
0.001544
0.00015462
0.00088542
0.00056215
0.00016351
2.0079e-05
0.0046791
1.9142e-08
4.02e-05
0.0045892
5.9768e-05
0.0044272
7.8363e-05
0.0041914
9.5663e-05
0.0038847
0.00011128
0.0035125
0.00012506
0.0030793
0.00013639
0.002599
0.00014569
0.0020628
0.00015174
0.0015379
0.00015471
0.00088246
0.00055347
0.00016338
2.0081e-05
0.004659
1.9762e-08
4.0206e-05
0.0045691
5.9778e-05
0.0044076
7.8376e-05
0.0041728
9.5679e-05
0.0038674
0.00011129
0.0034969
0.00012507
0.0030656
0.00013641
0.0025877
0.0001457
0.0020535
0.0001518
0.0015318
0.00015479
0.00087947
0.00054501
0.00016326
2.0084e-05
0.0046389
2.0358e-08
4.0212e-05
0.0045489
5.9788e-05
0.004388
7.8388e-05
0.0041542
9.5693e-05
0.0038501
0.00011131
0.0034813
0.00012508
0.0030518
0.00013642
0.0025764
0.00014571
0.0020442
0.00015186
0.0015257
0.00015487
0.00087645
0.00053674
0.00016314
2.0087e-05
0.0046188
2.0927e-08
4.0218e-05
0.0045288
5.9797e-05
0.0043685
7.84e-05
0.0041356
9.5707e-05
0.0038328
0.00011132
0.0034657
0.00012509
0.003038
0.00013644
0.002565
0.00014571
0.0020349
0.00015191
0.0015195
0.00015496
0.00087341
0.00052867
0.00016303
2.0089e-05
0.0045987
2.1469e-08
4.0224e-05
0.0045087
5.9806e-05
0.0043489
7.8412e-05
0.004117
9.572e-05
0.0038155
0.00011133
0.0034501
0.0001251
0.0030242
0.00013645
0.0025537
0.00014572
0.0020256
0.00015196
0.0015132
0.00015503
0.00087034
0.00052079
0.00016292
2.0092e-05
0.0045786
2.1981e-08
4.023e-05
0.0044885
5.9815e-05
0.0043293
7.8423e-05
0.0040984
9.5732e-05
0.0037981
0.00011134
0.0034345
0.00012511
0.0030105
0.00013646
0.0025423
0.00014572
0.0020164
0.00015201
0.0015069
0.00015511
0.00086724
0.00051309
0.00016281
2.0095e-05
0.0045585
2.2462e-08
4.0236e-05
0.0044684
5.9824e-05
0.0043097
7.8433e-05
0.0040798
9.5742e-05
0.0037808
0.00011135
0.0034189
0.00012512
0.0029967
0.00013647
0.002531
0.00014573
0.0020071
0.00015206
0.0015006
0.00015519
0.00086412
0.00050556
0.00016271
2.0098e-05
0.0045384
2.2914e-08
4.0242e-05
0.0044483
5.9832e-05
0.0042901
7.8443e-05
0.0040612
9.5752e-05
0.0037635
0.00011136
0.0034032
0.00012513
0.0029829
0.00013649
0.0025196
0.00014574
0.0019979
0.00015211
0.0014942
0.00015526
0.00086097
0.00049821
0.00016261
2.01e-05
0.0045182
2.3334e-08
4.0247e-05
0.0044281
5.9839e-05
0.0042705
7.8452e-05
0.0040426
9.5761e-05
0.0037462
0.00011137
0.0033876
0.00012513
0.0029692
0.0001365
0.0025082
0.00014574
0.0019886
0.00015216
0.0014878
0.00015533
0.0008578
0.00049101
0.00016252
2.0103e-05
0.0044981
2.3725e-08
4.0252e-05
0.004408
5.9846e-05
0.0042509
7.8459e-05
0.004024
9.5769e-05
0.0037289
0.00011138
0.003372
0.00012514
0.0029554
0.00013651
0.0024969
0.00014575
0.0019794
0.0001522
0.0014814
0.0001554
0.00085461
0.00048398
0.00016243
2.0105e-05
0.004478
2.4088e-08
4.0256e-05
0.0043878
5.9853e-05
0.0042313
7.8467e-05
0.0040053
9.5776e-05
0.0037116
0.00011139
0.0033564
0.00012515
0.0029417
0.00013652
0.0024855
0.00014576
0.0019701
0.00015225
0.0014749
0.00015547
0.00085139
0.00047711
0.00016234
2.0107e-05
0.0044579
2.4423e-08
4.0261e-05
0.0043677
5.9859e-05
0.0042117
7.8473e-05
0.0039867
9.5782e-05
0.0036943
0.00011139
0.0033408
0.00012515
0.0029279
0.00013653
0.0024741
0.00014576
0.0019609
0.00015229
0.0014683
0.00015553
0.00084816
0.00047039
0.00016225
2.0109e-05
0.0044377
2.4732e-08
4.0265e-05
0.0043475
5.9864e-05
0.0041921
7.8479e-05
0.0039681
9.5787e-05
0.003677
0.0001114
0.0033252
0.00012516
0.0029141
0.00013654
0.0024627
0.00014577
0.0019517
0.00015234
0.0014618
0.0001556
0.0008449
0.00046381
0.00016217
2.0111e-05
0.0044176
2.5017e-08
4.0268e-05
0.0043273
5.9868e-05
0.0041725
7.8484e-05
0.0039495
9.5792e-05
0.0036597
0.0001114
0.0033096
0.00012516
0.0029004
0.00013655
0.0024514
0.00014578
0.0019425
0.00015238
0.0014552
0.00015566
0.00084162
0.00045738
0.00016209
2.0112e-05
0.0043975
2.5281e-08
4.0271e-05
0.0043072
5.9873e-05
0.0041529
7.8488e-05
0.0039309
9.5797e-05
0.0036424
0.00011141
0.003294
0.00012517
0.0028866
0.00013656
0.00244
0.00014579
0.0019332
0.00015242
0.0014485
0.00015572
0.00083831
0.00045109
0.00016201
2.0114e-05
0.0043773
2.5525e-08
4.0274e-05
0.004287
5.9876e-05
0.0041333
7.8493e-05
0.0039123
9.5801e-05
0.0036251
0.00011141
0.0032784
0.00012517
0.0028729
0.00013657
0.0024285
0.00014579
0.001924
0.00015246
0.0014419
0.00015578
0.00083499
0.00044493
0.00016194
2.0115e-05
0.0043572
2.5752e-08
4.0277e-05
0.0042669
5.988e-05
0.0041137
7.8496e-05
0.0038936
9.5805e-05
0.0036078
0.00011142
0.0032627
0.00012517
0.0028591
0.00013659
0.0024171
0.0001458
0.0019148
0.0001525
0.0014352
0.00015584
0.00083165
0.0004389
0.00016186
2.0116e-05
0.004337
2.5964e-08
4.0279e-05
0.0042467
5.9883e-05
0.0040941
7.85e-05
0.003875
9.5808e-05
0.0035904
0.00011142
0.0032471
0.00012518
0.0028453
0.0001366
0.0024057
0.00014581
0.0019056
0.00015254
0.0014285
0.0001559
0.00082829
0.00043301
0.00016179
2.0117e-05
0.0043169
2.6163e-08
4.0281e-05
0.0042265
5.9885e-05
0.0040745
7.8503e-05
0.0038564
9.5811e-05
0.0035731
0.00011142
0.0032315
0.00012518
0.0028316
0.00013661
0.0023943
0.00014582
0.0018964
0.00015257
0.0014217
0.00015595
0.00082491
0.00042723
0.00016173
2.0118e-05
0.0042967
2.6351e-08
4.0283e-05
0.0042064
5.9888e-05
0.0040549
7.8506e-05
0.0038378
9.5815e-05
0.0035558
0.00011143
0.0032159
0.00012519
0.0028178
0.00013662
0.0023829
0.00014583
0.0018872
0.00015261
0.0014149
0.00015601
0.00082151
0.00042158
0.00016166
2.0119e-05
0.0042766
2.6529e-08
4.0284e-05
0.0041862
5.989e-05
0.0040353
7.8508e-05
0.0038192
9.5818e-05
0.0035385
0.00011143
0.0032003
0.00012519
0.0028041
0.00013663
0.0023714
0.00014584
0.001878
0.00015264
0.0014081
0.00015606
0.00081809
0.00041605
0.0001616
2.012e-05
0.0042565
2.6701e-08
4.0286e-05
0.004166
5.9892e-05
0.0040157
7.8511e-05
0.0038006
9.5821e-05
0.0035212
0.00011144
0.0031847
0.0001252
0.0027903
0.00013664
0.00236
0.00014585
0.0018688
0.00015268
0.0014013
0.00015612
0.00081465
0.00041064
0.00016153
2.0121e-05
0.0042363
2.6866e-08
4.0287e-05
0.0041459
5.9894e-05
0.0039961
7.8513e-05
0.0037819
9.5823e-05
0.0035039
0.00011144
0.0031691
0.0001252
0.0027766
0.00013666
0.0023485
0.00014586
0.0018596
0.00015271
0.0013944
0.00015617
0.00081119
0.00040533
0.00016147
2.0121e-05
0.0042162
2.7027e-08
4.0288e-05
0.0041257
5.9896e-05
0.0039765
7.8516e-05
0.0037633
9.5826e-05
0.0034866
0.00011145
0.0031534
0.00012521
0.0027628
0.00013667
0.0023371
0.00014587
0.0018504
0.00015275
0.0013876
0.00015622
0.00080772
0.00040014
0.00016141
2.0122e-05
0.004196
2.7184e-08
4.029e-05
0.0041055
5.9897e-05
0.0039569
7.8518e-05
0.0037447
9.5829e-05
0.0034693
0.00011145
0.0031378
0.00012521
0.002749
0.00013668
0.0023256
0.00014588
0.0018412
0.00015278
0.0013807
0.00015627
0.00080422
0.00039505
0.00016136
2.0122e-05
0.0041759
2.734e-08
4.0291e-05
0.0040854
5.9899e-05
0.0039373
7.852e-05
0.0037261
9.5832e-05
0.003452
0.00011146
0.0031222
0.00012522
0.0027353
0.00013669
0.0023141
0.00014589
0.001832
0.00015281
0.0013737
0.00015632
0.00080071
0.00039006
0.0001613
2.0123e-05
0.0041557
2.7493e-08
4.0292e-05
0.0040652
5.9901e-05
0.0039177
7.8523e-05
0.0037075
9.5835e-05
0.0034346
0.00011146
0.0031066
0.00012522
0.0027215
0.00013671
0.0023026
0.0001459
0.0018228
0.00015284
0.0013668
0.00015637
0.00079719
0.00038518
0.00016125
2.0123e-05
0.0041356
2.7646e-08
4.0293e-05
0.004045
5.9902e-05
0.0038981
7.8525e-05
0.0036888
9.5838e-05
0.0034173
0.00011146
0.0030909
0.00012523
0.0027077
0.00013672
0.0022911
0.00014591
0.0018136
0.00015287
0.0013599
0.00015642
0.00079364
0.00038039
0.0001612
2.0124e-05
0.0041154
2.7798e-08
4.0294e-05
0.0040249
5.9904e-05
0.0038784
7.8527e-05
0.0036702
9.5841e-05
0.0034
0.00011147
0.0030753
0.00012523
0.002694
0.00013673
0.0022796
0.00014593
0.0018044
0.0001529
0.0013529
0.00015646
0.00079008
0.0003757
0.00016115
2.0124e-05
0.0040953
2.7951e-08
4.0295e-05
0.0040047
5.9906e-05
0.0038588
7.853e-05
0.0036516
9.5844e-05
0.0033827
0.00011147
0.0030597
0.00012524
0.0026802
0.00013674
0.0022681
0.00014594
0.0017952
0.00015293
0.0013459
0.00015651
0.0007865
0.0003711
0.00016111
2.0124e-05
0.0040751
2.8104e-08
4.0296e-05
0.0039845
5.9907e-05
0.0038392
7.8532e-05
0.003633
9.5847e-05
0.0033654
0.00011148
0.003044
0.00012524
0.0026665
0.00013676
0.0022566
0.00014595
0.001786
0.00015296
0.0013389
0.00015655
0.0007829
0.0003666
0.00016106
2.0125e-05
0.0040549
2.8259e-08
4.0297e-05
0.0039643
5.9909e-05
0.0038196
7.8535e-05
0.0036143
9.585e-05
0.0033481
0.00011148
0.0030284
0.00012525
0.0026527
0.00013677
0.0022451
0.00014596
0.0017768
0.00015299
0.0013319
0.0001566
0.00077929
0.00036218
0.00016102
2.0125e-05
0.0040348
2.8414e-08
4.0298e-05
0.0039442
5.991e-05
0.0038
7.8537e-05
0.0035957
9.5854e-05
0.0033308
0.00011149
0.0030128
0.00012525
0.0026389
0.00013678
0.0022336
0.00014597
0.0017676
0.00015301
0.0013248
0.00015664
0.00077567
0.00035784
0.00016097
2.0126e-05
0.0040146
2.8572e-08
4.0299e-05
0.003924
5.9912e-05
0.0037804
7.8539e-05
0.0035771
9.5857e-05
0.0033134
0.0001115
0.0029971
0.00012526
0.0026252
0.00013679
0.002222
0.00014599
0.0017584
0.00015304
0.0013178
0.00015668
0.00077202
0.00035359
0.00016093
2.0126e-05
0.0039945
2.8731e-08
4.03e-05
0.0039038
5.9914e-05
0.0037608
7.8542e-05
0.0035585
9.586e-05
0.0032961
0.0001115
0.0029815
0.00012527
0.0026114
0.00013681
0.0022105
0.000146
0.0017492
0.00015307
0.0013107
0.00015672
0.00076836
0.00034942
0.00016089
2.0126e-05
0.0039743
2.8892e-08
4.0301e-05
0.0038836
5.9915e-05
0.0037412
7.8545e-05
0.0035398
9.5864e-05
0.0032788
0.00011151
0.0029659
0.00012527
0.0025976
0.00013682
0.0021989
0.00014601
0.00174
0.00015309
0.0013036
0.00015677
0.00076469
0.00034533
0.00016086
2.0127e-05
0.0039542
2.9055e-08
4.0302e-05
0.0038635
5.9917e-05
0.0037215
7.8547e-05
0.0035212
9.5867e-05
0.0032615
0.00011151
0.0029502
0.00012528
0.0025839
0.00013683
0.0021874
0.00014603
0.0017308
0.00015312
0.0012965
0.00015681
0.000761
0.00034132
0.00016082
2.0127e-05
0.003934
2.9221e-08
4.0303e-05
0.0038433
5.9919e-05
0.0037019
7.855e-05
0.0035026
9.5871e-05
0.0032442
0.00011152
0.0029346
0.00012529
0.0025701
0.00013685
0.0021758
0.00014604
0.0017216
0.00015314
0.0012894
0.00015684
0.0007573
0.00033738
0.00016078
2.0128e-05
0.0039139
2.9388e-08
4.0304e-05
0.0038231
5.9921e-05
0.0036823
7.8553e-05
0.0034839
9.5874e-05
0.0032268
0.00011152
0.0029189
0.00012529
0.0025563
0.00013686
0.0021643
0.00014605
0.0017124
0.00015317
0.0012823
0.00015688
0.00075358
0.00033351
0.00016075
2.0128e-05
0.0038937
2.9558e-08
4.0305e-05
0.0038029
5.9922e-05
0.0036627
7.8556e-05
0.0034653
9.5878e-05
0.0032095
0.00011153
0.0029033
0.0001253
0.0025426
0.00013687
0.0021527
0.00014607
0.0017032
0.00015319
0.0012752
0.00015692
0.00074984
0.00032972
0.00016072
2.0129e-05
0.0038735
2.973e-08
4.0306e-05
0.0037828
5.9924e-05
0.0036431
7.8558e-05
0.0034467
9.5882e-05
0.0031922
0.00011154
0.0028876
0.00012531
0.0025288
0.00013689
0.0021411
0.00014608
0.0016941
0.00015321
0.0012681
0.00015696
0.0007461
0.00032599
0.00016069
2.0129e-05
0.0038534
2.9905e-08
4.0308e-05
0.0037626
5.9926e-05
0.0036235
7.8561e-05
0.003428
9.5886e-05
0.0031749
0.00011154
0.002872
0.00012531
0.002515
0.0001369
0.0021295
0.0001461
0.0016849
0.00015324
0.0012609
0.000157
0.00074234
0.00032232
0.00016066
2.013e-05
0.0038332
3.0082e-08
4.0309e-05
0.0037424
5.9928e-05
0.0036038
7.8564e-05
0.0034094
9.589e-05
0.0031575
0.00011155
0.0028563
0.00012532
0.0025012
0.00013691
0.0021179
0.00014611
0.0016757
0.00015326
0.0012538
0.00015703
0.00073856
0.00031873
0.00016063
2.013e-05
0.0038131
3.0262e-08
4.031e-05
0.0037222
5.993e-05
0.0035842
7.8567e-05
0.0033908
9.5893e-05
0.0031402
0.00011155
0.0028406
0.00012533
0.0024875
0.00013693
0.0021063
0.00014612
0.0016665
0.00015328
0.0012466
0.00015707
0.00073477
0.00031519
0.0001606
2.0131e-05
0.0037929
3.0445e-08
4.0311e-05
0.003702
5.9932e-05
0.0035646
7.857e-05
0.0033721
9.5898e-05
0.0031229
0.00011156
0.002825
0.00012533
0.0024737
0.00013694
0.0020947
0.00014614
0.0016573
0.0001533
0.0012395
0.0001571
0.00073097
0.00031172
0.00016058
2.0131e-05
0.0037727
3.0631e-08
4.0312e-05
0.0036819
5.9934e-05
0.003545
7.8574e-05
0.0033535
9.5902e-05
0.0031056
0.00011157
0.0028093
0.00012534
0.0024599
0.00013696
0.0020831
0.00014615
0.0016481
0.00015332
0.0012323
0.00015714
0.00072716
0.00030831
0.00016055
2.0132e-05
0.0037526
3.0819e-08
4.0314e-05
0.0036617
5.9936e-05
0.0035254
7.8577e-05
0.0033348
9.5906e-05
0.0030882
0.00011157
0.0027936
0.00012535
0.0024461
0.00013697
0.0020715
0.00014617
0.0016389
0.00015334
0.0012251
0.00015717
0.00072333
0.00030495
0.00016053
2.0132e-05
0.0037324
3.101e-08
4.0315e-05
0.0036415
5.9938e-05
0.0035057
7.858e-05
0.0033162
9.591e-05
0.0030709
0.00011158
0.002778
0.00012536
0.0024324
0.00013698
0.0020599
0.00014618
0.0016297
0.00015337
0.0012179
0.00015721
0.00071949
0.00030165
0.0001605
2.0133e-05
0.0037123
3.1204e-08
4.0316e-05
0.0036213
5.994e-05
0.0034861
7.8583e-05
0.0032976
9.5914e-05
0.0030536
0.00011159
0.0027623
0.00012536
0.0024186
0.000137
0.0020482
0.0001462
0.0016205
0.00015339
0.0012107
0.00015724
0.00071564
0.00029841
0.00016048
2.0133e-05
0.0036921
3.14e-08
4.0318e-05
0.0036011
5.9942e-05
0.0034665
7.8587e-05
0.0032789
9.5919e-05
0.0030362
0.00011159
0.0027466
0.00012537
0.0024048
0.00013701
0.0020366
0.00014621
0.0016113
0.00015341
0.0012035
0.00015727
0.00071177
0.00029521
0.00016046
2.0134e-05
0.0036719
3.16e-08
4.0319e-05
0.0035809
5.9945e-05
0.0034469
7.859e-05
0.0032603
9.5923e-05
0.0030189
0.0001116
0.0027309
0.00012538
0.002391
0.00013703
0.0020249
0.00014623
0.0016021
0.00015343
0.0011964
0.0001573
0.0007079
0.00029207
0.00016044
2.0134e-05
0.0036518
3.1803e-08
4.032e-05
0.0035608
5.9947e-05
0.0034272
7.8594e-05
0.0032416
9.5928e-05
0.0030016
0.00011161
0.0027153
0.00012539
0.0023773
0.00013704
0.0020133
0.00014625
0.0015929
0.00015345
0.0011892
0.00015733
0.00070401
0.00028898
0.00016042
2.0135e-05
0.0036316
3.2009e-08
4.0322e-05
0.0035406
5.9949e-05
0.0034076
7.8597e-05
0.003223
9.5933e-05
0.0029842
0.00011162
0.0026996
0.0001254
0.0023635
0.00013705
0.0020016
0.00014626
0.0015837
0.00015347
0.0011819
0.00015736
0.00070011
0.00028594
0.00016041
2.0135e-05
0.0036114
3.2219e-08
4.0323e-05
0.0035204
5.9952e-05
0.003388
7.8601e-05
0.0032043
9.5937e-05
0.0029669
0.00011162
0.0026839
0.00012541
0.0023497
0.00013707
0.00199
0.00014628
0.0015744
0.00015348
0.0011747
0.0001574
0.0006962
0.00028294
0.00016039
2.0136e-05
0.0035913
3.2431e-08
4.0325e-05
0.0035002
5.9954e-05
0.0033683
7.8605e-05
0.0031857
9.5942e-05
0.0029496
0.00011163
0.0026682
0.00012541
0.0023359
0.00013708
0.0019783
0.00014629
0.0015652
0.0001535
0.0011675
0.00015743
0.00069228
0.00027999
0.00016037
2.0137e-05
0.0035711
3.2647e-08
4.0326e-05
0.00348
5.9956e-05
0.0033487
7.8608e-05
0.003167
9.5947e-05
0.0029322
0.00011164
0.0026525
0.00012542
0.0023221
0.0001371
0.0019666
0.00014631
0.001556
0.00015352
0.0011603
0.00015746
0.00068835
0.00027709
0.00016036
2.0137e-05
0.0035509
3.2866e-08
4.0328e-05
0.0034598
5.9959e-05
0.0033291
7.8612e-05
0.0031484
9.5952e-05
0.0029149
0.00011165
0.0026368
0.00012543
0.0023083
0.00013711
0.0019549
0.00014633
0.0015468
0.00015354
0.0011531
0.00015748
0.00068441
0.00027423
0.00016035
2.0138e-05
0.0035307
3.3089e-08
4.0329e-05
0.0034396
5.9961e-05
0.0033094
7.8616e-05
0.0031297
9.5957e-05
0.0028975
0.00011165
0.0026211
0.00012544
0.0022946
0.00013713
0.0019433
0.00014634
0.0015376
0.00015356
0.0011459
0.00015751
0.00068045
0.00027141
0.00016033
2.0139e-05
0.0035106
3.3315e-08
4.0331e-05
0.0034194
5.9964e-05
0.0032898
7.862e-05
0.003111
9.5962e-05
0.0028802
0.00011166
0.0026054
0.00012545
0.0022808
0.00013714
0.0019316
0.00014636
0.0015284
0.00015358
0.0011387
0.00015754
0.00067649
0.00026863
0.00016032
2.0139e-05
0.0034904
3.3545e-08
4.0333e-05
0.0033992
5.9967e-05
0.0032702
7.8624e-05
0.0030924
9.5967e-05
0.0028629
0.00011167
0.0025897
0.00012546
0.002267
0.00013715
0.0019199
0.00014638
0.0015191
0.0001536
0.0011314
0.00015757
0.00067252
0.00026589
0.00016031
2.014e-05
0.0034702
3.3778e-08
4.0334e-05
0.003379
5.9969e-05
0.0032505
7.8628e-05
0.0030737
9.5973e-05
0.0028455
0.00011168
0.002574
0.00012547
0.0022532
0.00013717
0.0019082
0.00014639
0.0015099
0.00015361
0.0011242
0.0001576
0.00066853
0.00026319
0.0001603
2.014e-05
0.0034501
3.4016e-08
4.0336e-05
0.0033588
5.9972e-05
0.0032309
7.8632e-05
0.0030551
9.5978e-05
0.0028282
0.00011169
0.0025583
0.00012548
0.0022394
0.00013718
0.0018965
0.00014641
0.0015007
0.00015363
0.001117
0.00015762
0.00066454
0.00026052
0.00016029
2.0141e-05
0.0034299
3.4257e-08
4.0338e-05
0.0033387
5.9975e-05
0.0032113
7.8637e-05
0.0030364
9.5984e-05
0.0028108
0.00011169
0.0025426
0.00012549
0.0022256
0.0001372
0.0018848
0.00014643
0.0014915
0.00015365
0.0011098
0.00015765
0.00066054
0.00025789
0.00016028
2.0142e-05
0.0034097
3.4502e-08
4.0339e-05
0.0033185
5.9978e-05
0.0031916
7.8641e-05
0.0030177
9.5989e-05
0.0027935
0.0001117
0.0025269
0.0001255
0.0022118
0.00013721
0.001873
0.00014644
0.0014822
0.00015367
0.0011026
0.00015768
0.00065653
0.0002553
0.00016027
2.0143e-05
0.0033895
3.475e-08
4.0341e-05
0.0032983
5.998e-05
0.003172
7.8645e-05
0.0029991
9.5995e-05
0.0027761
0.00011171
0.0025112
0.00012551
0.002198
0.00013723
0.0018613
0.00014646
0.001473
0.00015369
0.0010953
0.00015771
0.00065251
0.00025274
0.00016027
2.0143e-05
0.0033693
3.5003e-08
4.0343e-05
0.0032781
5.9983e-05
0.0031524
7.865e-05
0.0029804
9.6001e-05
0.0027588
0.00011172
0.0024955
0.00012552
0.0021842
0.00013724
0.0018496
0.00014648
0.0014638
0.0001537
0.0010881
0.00015773
0.00064848
0.00025021
0.00016026
2.0144e-05
0.0033492
3.526e-08
4.0345e-05
0.0032579
5.9986e-05
0.0031327
7.8655e-05
0.0029617
9.6007e-05
0.0027414
0.00011173
0.0024797
0.00012553
0.0021704
0.00013726
0.0018379
0.0001465
0.0014545
0.00015372
0.0010809
0.00015776
0.00064444
0.00024772
0.00016025
2.0145e-05
0.003329
3.5522e-08
4.0347e-05
0.0032377
5.9989e-05
0.0031131
7.8659e-05
0.0029431
9.6013e-05
0.0027241
0.00011174
0.002464
0.00012554
0.0021566
0.00013727
0.0018261
0.00014652
0.0014453
0.00015374
0.0010737
0.00015778
0.0006404
0.00024525
0.00016025
2.0146e-05
0.0033088
3.5787e-08
4.0348e-05
0.0032175
5.9992e-05
0.0030934
7.8664e-05
0.0029244
9.6019e-05
0.0027067
0.00011175
0.0024483
0.00012555
0.0021428
0.00013729
0.0018144
0.00014653
0.001436
0.00015376
0.0010664
0.00015781
0.00063634
0.00024282
0.00016024
2.0146e-05
0.0032886
3.6057e-08
4.035e-05
0.0031972
5.9996e-05
0.0030738
7.8669e-05
0.0029057
9.6025e-05
0.0026894
0.00011175
0.0024326
0.00012556
0.002129
0.0001373
0.0018026
0.00014655
0.0014268
0.00015377
0.0010592
0.00015783
0.00063228
0.00024041
0.00016024
2.0147e-05
0.0032684
3.6332e-08
4.0352e-05
0.003177
5.9999e-05
0.0030541
7.8674e-05
0.0028871
9.6032e-05
0.002672
0.00011176
0.0024168
0.00012557
0.0021152
0.00013732
0.0017909
0.00014657
0.0014175
0.00015379
0.001052
0.00015786
0.00062821
0.00023803
0.00016024
2.0148e-05
0.0032483
3.6611e-08
4.0354e-05
0.0031568
6.0002e-05
0.0030345
7.8678e-05
0.0028684
9.6038e-05
0.0026546
0.00011177
0.0024011
0.00012558
0.0021014
0.00013733
0.0017791
0.00014659
0.0014083
0.00015381
0.0010448
0.00015788
0.00062413
0.00023568
0.00016023
2.0149e-05
0.0032281
3.6894e-08
4.0356e-05
0.0031366
6.0005e-05
0.0030148
7.8683e-05
0.0028497
9.6045e-05
0.0026373
0.00011178
0.0023854
0.00012559
0.0020876
0.00013735
0.0017674
0.00014661
0.001399
0.00015382
0.0010376
0.00015791
0.00062005
0.00023336
0.00016023
2.015e-05
0.0032079
3.7183e-08
4.0358e-05
0.0031164
6.0009e-05
0.0029952
7.8689e-05
0.002831
9.6052e-05
0.0026199
0.00011179
0.0023696
0.0001256
0.0020738
0.00013737
0.0017556
0.00014663
0.0013898
0.00015384
0.0010304
0.00015793
0.00061596
0.00023106
0.00016023
2.0151e-05
0.0031877
3.7476e-08
4.0361e-05
0.0030962
6.0012e-05
0.0029755
7.8694e-05
0.0028123
9.6058e-05
0.0026026
0.0001118
0.0023539
0.00012562
0.0020599
0.00013738
0.0017439
0.00014665
0.0013805
0.00015386
0.0010231
0.00015796
0.00061186
0.00022879
0.00016023
2.0151e-05
0.0031675
3.7775e-08
4.0363e-05
0.003076
6.0015e-05
0.0029559
7.8699e-05
0.0027937
9.6065e-05
0.0025852
0.00011181
0.0023381
0.00012563
0.0020461
0.0001374
0.0017321
0.00014666
0.0013712
0.00015388
0.0010159
0.00015798
0.00060775
0.00022654
0.00016023
2.0152e-05
0.0031473
3.8078e-08
4.0365e-05
0.0030558
6.0019e-05
0.0029362
7.8705e-05
0.002775
9.6072e-05
0.0025678
0.00011182
0.0023224
0.00012564
0.0020323
0.00013741
0.0017203
0.00014668
0.001362
0.00015389
0.0010087
0.00015801
0.00060364
0.00022431
0.00016023
2.0153e-05
0.0031271
3.8387e-08
4.0367e-05
0.0030356
6.0023e-05
0.0029166
7.871e-05
0.0027563
9.6079e-05
0.0025504
0.00011183
0.0023066
0.00012565
0.0020185
0.00013743
0.0017085
0.0001467
0.0013527
0.00015391
0.0010015
0.00015803
0.00059952
0.00022211
0.00016023
2.0154e-05
0.0031069
3.8701e-08
4.0369e-05
0.0030154
6.0026e-05
0.0028969
7.8716e-05
0.0027376
9.6087e-05
0.0025331
0.00011184
0.0022909
0.00012566
0.0020047
0.00013745
0.0016968
0.00014672
0.0013434
0.00015393
0.0009943
0.00015805
0.00059539
0.00021993
0.00016024
2.0155e-05
0.0030867
3.902e-08
4.0372e-05
0.0029951
6.003e-05
0.0028773
7.8721e-05
0.0027189
9.6094e-05
0.0025157
0.00011185
0.0022751
0.00012568
0.0019908
0.00013746
0.001685
0.00014674
0.0013341
0.00015395
0.0009871
0.00015808
0.00059126
0.00021777
0.00016024
2.0156e-05
0.0030665
3.9345e-08
4.0374e-05
0.0029749
6.0034e-05
0.0028576
7.8727e-05
0.0027002
9.6102e-05
0.0024983
0.00011186
0.0022593
0.00012569
0.001977
0.00013748
0.0016732
0.00014676
0.0013248
0.00015396
0.0009799
0.0001581
0.00058712
0.00021563
0.00016024
2.0157e-05
0.0030463
3.9676e-08
4.0376e-05
0.0029547
6.0038e-05
0.0028379
7.8733e-05
0.0026815
9.6109e-05
0.002481
0.00011187
0.0022436
0.0001257
0.0019632
0.00013749
0.0016614
0.00014678
0.0013156
0.00015398
0.0009727
0.00015813
0.00058298
0.00021351
0.00016025
2.0158e-05
0.0030261
4.0012e-08
4.0379e-05
0.0029345
6.0042e-05
0.0028183
7.8739e-05
0.0026628
9.6117e-05
0.0024636
0.00011188
0.0022278
0.00012571
0.0019494
0.00013751
0.0016496
0.0001468
0.0013063
0.000154
0.0009655
0.00015815
0.00057883
0.00021141
0.00016025
2.0159e-05
0.0030059
4.0355e-08
4.0381e-05
0.0029143
6.0046e-05
0.0027986
7.8745e-05
0.0026441
9.6125e-05
0.0024462
0.0001119
0.002212
0.00012573
0.0019355
0.00013753
0.0016378
0.00014682
0.001297
0.00015402
0.0009583
0.00015817
0.00057467
0.00020933
0.00016026
2.016e-05
0.0029857
4.0703e-08
4.0384e-05
0.002894
6.005e-05
0.0027789
7.8751e-05
0.0026254
9.6133e-05
0.0024288
0.00011191
0.0021963
0.00012574
0.0019217
0.00013755
0.001626
0.00014684
0.0012877
0.00015404
0.00095111
0.0001582
0.00057051
0.00020726
0.00016026
2.0161e-05
0.0029655
4.1058e-08
4.0386e-05
0.0028738
6.0054e-05
0.0027593
7.8757e-05
0.0026067
9.6141e-05
0.0024114
0.00011192
0.0021805
0.00012576
0.0019079
0.00013756
0.0016142
0.00014686