/*--------------------------------*- C++ -*----------------------------------*\
  =========                 |
  \\      /  F ield         | OpenFOAM: The Open Source CFD Toolbox
   \\    /   O peration     | Website:  https://openfoam.org
    \\  /    A nd           | Version:  6.0
     \\/     M anipulation  |
\*---------------------------------------------------------------------------*/
FoamFile
{
    version     2.0;
    format      ascii;
    class       volScalarField;
    location    "10";
    object      p;
}
// * * * * * * * * * * * * * * * * * * * * * * * * * * * * * * * * * * * * * //

dimensions      [0 2 -2 0 0 0 0];

internalField   nonuniform List<scalar> 
62000
(
0.0239551
0.0239177
0.0239021
0.0239021
0.0239212
0.0239534
0.0240029
0.024063
0.0241377
0.02422
0.024314
0.0244136
0.0245225
0.0246354
0.0247564
0.0248815
0.0250154
0.025155
0.0253054
0.0254645
0.0256379
0.0258238
0.0260283
0.0262504
0.0264964
0.0267665
0.0270681
0.0274034
0.0277824
0.0282117
0.028706
0.0292776
0.0299447
0.0307245
0.0316445
0.0327422
0.0340626
0.0356511
0.0375574
0.0398361
0.0425326
0.0456648
0.0492013
0.0530379
0.0569767
0.0607241
0.0639169
0.0662026
0.0673646
0.0674607
0.0668951
0.0663524
0.0666624
0.067958
0.0699744
0.0714928
0.0716623
0.0689889
0.0674402
0.0682754
0.0241532
0.0242714
0.0243702
0.0244534
0.0245261
0.0245859
0.024641
0.0246894
0.0247379
0.0247839
0.0248338
0.024885
0.0249427
0.0250046
0.0250754
0.025153
0.0252423
0.0253416
0.0254559
0.0255837
0.0257297
0.0258927
0.0260774
0.0262832
0.0265147
0.0267725
0.0270619
0.027386
0.0277521
0.0281678
0.028647
0.0292048
0.0298588
0.0306257
0.03153
0.0326126
0.0339208
0.0355022
0.0374092
0.0397014
0.0424306
0.0456226
0.0492566
0.0532404
0.0573887
0.0614154
0.0649555
0.0676399
0.0692176
0.069716
0.0695197
0.0693626
0.070226
0.0723976
0.0757972
0.0791691
0.0815958
0.0808972
0.0827278
0.0828655
0.0248358
0.0249854
0.0251056
0.0252012
0.0252771
0.0253305
0.0253692
0.0253913
0.0254045
0.025407
0.0254067
0.0254023
0.0254007
0.0254004
0.0254078
0.0254214
0.0254474
0.0254847
0.025539
0.0256097
0.0257022
0.0258161
0.0259564
0.0261232
0.0263212
0.0265516
0.0268193
0.0271276
0.0274826
0.0278913
0.0283658
0.0289226
0.0295797
0.0303531
0.0312675
0.0323597
0.033673
0.0352532
0.0371531
0.0394327
0.0421447
0.0453161
0.0489288
0.0528928
0.0570237
0.0610282
0.0645199
0.0670843
0.0683918
0.0683789
0.067328
0.0659201
0.0652003
0.0655853
0.0673156
0.0694156
0.0713561
0.0708104
0.0737597
0.0723127
0.0254501
0.0254886
0.0255213
0.0255483
0.0255741
0.025594
0.0256132
0.0256282
0.0256432
0.0256549
0.0256676
0.0256784
0.0256912
0.0257036
0.0257192
0.0257364
0.0257593
0.025787
0.0258243
0.0258712
0.0259331
0.0260106
0.0261095
0.0262313
0.0263819
0.0265639
0.0267836
0.0270457
0.0273567
0.0277237
0.0281578
0.0286764
0.0293
0.0300494
0.0309494
0.0320334
0.0333383
0.0349104
0.036806
0.0390892
0.0418182
0.0450276
0.0487099
0.0527879
0.0570908
0.0613322
0.0651194
0.0680046
0.0695831
0.0696859
0.0684599
0.0664634
0.0646949
0.0636326
0.0637542
0.0644455
0.0656049
0.0650076
0.0682204
0.0680613
0.0251161
0.0250475
0.0249937
0.0249523
0.0249283
0.0249165
0.0249219
0.0249396
0.0249736
0.0250181
0.0250767
0.0251436
0.0252214
0.0253038
0.025393
0.0254833
0.0255773
0.0256705
0.0257661
0.0258615
0.0259611
0.0260643
0.0261767
0.0262998
0.0264399
0.0266009
0.0267903
0.0270144
0.0272812
0.027599
0.0279785
0.0284394
0.0290062
0.0297047
0.0305643
0.0316157
0.0328934
0.0344483
0.036344
0.0386517
0.0414407
0.0447603
0.0486231
0.0529773
0.0576818
0.0624793
0.0669966
0.0707819
0.0733829
0.074541
0.0742651
0.0729499
0.0714517
0.0701908
0.0697262
0.0696999
0.070291
0.0694048
0.0722046
0.0737388
0.0241341
0.0240273
0.0239361
0.0238587
0.0238014
0.0237608
0.0237432
0.0237456
0.0237729
0.0238209
0.0238934
0.0239857
0.0240994
0.024229
0.0243744
0.0245299
0.0246952
0.0248645
0.025038
0.0252112
0.0253853
0.0255575
0.0257308
0.0259052
0.0260853
0.0262742
0.0264792
0.026707
0.0269668
0.0272668
0.0276188
0.0280431
0.0285677
0.0292245
0.0300443
0.0310594
0.0323051
0.0338386
0.0357302
0.038058
0.0409022
0.0443271
0.0483669
0.0529993
0.0581206
0.0635148
0.0688474
0.0736885
0.0775695
0.0801691
0.0813761
0.0814188
0.0809624
0.0803036
0.079945
0.0796584
0.0797402
0.0781807
0.0800113
0.0816813
0.0228559
0.0227651
0.0226841
0.0226114
0.0225529
0.0225058
0.022477
0.0224645
0.0224746
0.0225048
0.0225609
0.0226399
0.0227457
0.0228738
0.0230263
0.0231977
0.0233887
0.0235929
0.0238102
0.0240345
0.0242658
0.0244991
0.0247352
0.0249717
0.0252108
0.0254536
0.0257056
0.0259726
0.0262629
0.0265847
0.0269483
0.0273744
0.0278924
0.0285345
0.0293354
0.0303267
0.0315467
0.0330572
0.0349325
0.0372535
0.0401063
0.0435653
0.047682
0.0524599
0.0578313
0.0636246
0.0695525
0.0752247
0.0801815
0.0840707
0.0866911
0.0881302
0.0888697
0.0890463
0.0890531
0.0886848
0.088267
0.085826
0.0864442
0.0868644
0.0215937
0.0215381
0.0214857
0.021435
0.0213913
0.021352
0.0213238
0.0213053
0.0213026
0.0213144
0.0213467
0.0213983
0.0214738
0.0215716
0.0216944
0.02184
0.0220099
0.0222004
0.0224117
0.0226396
0.0228837
0.023139
0.0234054
0.0236793
0.023961
0.0242499
0.0245494
0.0248637
0.0251998
0.0255639
0.0259652
0.0264217
0.0269611
0.0276163
0.0284188
0.029401
0.0306026
0.0320874
0.033929
0.0362059
0.0390042
0.0424022
0.0464616
0.0512054
0.0565959
0.0625024
0.0686869
0.0748072
0.0804323
0.085205
0.0888685
0.0914069
0.0931445
0.0940801
0.0944702
0.0940916
0.0932395
0.0899601
0.0894293
0.0881104
0.0203224
0.0203042
0.0202866
0.0202672
0.0202509
0.0202338
0.0202221
0.0202131
0.0202133
0.0202202
0.0202408
0.0202732
0.0203238
0.0203906
0.0204791
0.0205871
0.0207191
0.0208722
0.0210495
0.0212477
0.0214688
0.0217086
0.0219683
0.0222443
0.0225371
0.0228452
0.0231712
0.0235182
0.0238917
0.0242966
0.0247392
0.025235
0.0258087
0.0264881
0.0273036
0.028284
0.0294692
0.0309222
0.0327119
0.0349099
0.0375967
0.0408495
0.0447344
0.0492868
0.0544923
0.0602556
0.066385
0.0725894
0.0784769
0.0837065
0.0879941
0.0912588
0.0937078
0.0952208
0.0959342
0.0955866
0.0944336
0.0905256
0.0890688
0.0862193
0.0191529
0.0191668
0.0191778
0.0191841
0.01919
0.0191917
0.019195
0.0191971
0.0192035
0.0192117
0.0192274
0.0192491
0.019282
0.0193253
0.0193837
0.0194567
0.0195488
0.0196596
0.0197928
0.0199476
0.0201271
0.0203294
0.020557
0.0208078
0.0210832
0.0213825
0.0217084
0.0220638
0.0224542
0.0228828
0.0233546
0.0238813
0.0244835
0.025186
0.0260122
0.0269886
0.0281531
0.0295646
0.0312848
0.0333754
0.0359086
0.0389564
0.0425853
0.0468375
0.0517162
0.0571551
0.0630033
0.0690191
0.0748548
0.0801975
0.0847581
0.0884202
0.0913056
0.0932163
0.0941782
0.0939058
0.0925984
0.0883122
0.0861888
0.0822826
0.0179459
0.0179901
0.0180306
0.0180651
0.0180973
0.018123
0.0181473
0.0181667
0.0181865
0.0182035
0.0182234
0.0182439
0.0182706
0.0183014
0.0183421
0.018391
0.0184541
0.0185302
0.0186249
0.0187376
0.0188734
0.0190315
0.0192163
0.0194274
0.0196676
0.0199376
0.0202411
0.0205821
0.0209663
0.0213971
0.0218773
0.0224169
0.023033
0.0237438
0.02457
0.0255323
0.0266659
0.0280245
0.0296606
0.0316253
0.0339804
0.0367916
0.0401226
0.0440194
0.0484975
0.0535136
0.0589522
0.064616
0.0702015
0.0754299
0.0800205
0.0838446
0.0869708
0.0891406
0.0902979
0.0901367
0.0888108
0.0843674
0.0818002
0.0773297
0.0167574
0.0168275
0.0168925
0.0169501
0.0170037
0.0170494
0.0170917
0.0171277
0.0171613
0.0171898
0.0172174
0.0172421
0.0172679
0.0172936
0.0173232
0.0173563
0.0173974
0.0174469
0.0175096
0.0175863
0.0176822
0.0177979
0.0179387
0.0181055
0.0183026
0.018532
0.018799
0.0191086
0.0194678
0.0198799
0.020348
0.0208794
0.0214883
0.0221906
0.0229996
0.0239333
0.0250231
0.0263163
0.0278563
0.0296837
0.0318503
0.0344145
0.0374365
0.0409636
0.0450198
0.04958
0.0545579
0.0597948
0.0650286
0.0700149
0.0744903
0.0783268
0.0815563
0.083891
0.0852023
0.0851821
0.0839275
0.0794796
0.076631
0.0719648
0.0154968
0.0155886
0.0156758
0.015756
0.0158323
0.0158998
0.0159633
0.0160184
0.0160698
0.0161132
0.0161536
0.0161874
0.0162198
0.0162471
0.0162751
0.0163008
0.0163305
0.0163625
0.016403
0.0164518
0.0165153
0.0165942
0.0166947
0.0168186
0.0169714
0.0171561
0.0173792
0.0176472
0.0179678
0.0183457
0.0187831
0.0192875
0.0198707
0.0205437
0.0213185
0.0222075
0.0232397
0.0244561
0.0258917
0.0275775
0.0295563
0.0318797
0.0346039
0.0377763
0.0414268
0.0455445
0.0500665
0.0548671
0.0597199
0.0644142
0.068705
0.0724762
0.0757393
0.0781837
0.0796276
0.079762
0.078636
0.0742745
0.0712505
0.0666326
0.0142782
0.014386
0.0144877
0.0145813
0.0146702
0.0147497
0.0148246
0.0148909
0.0149528
0.0150061
0.0150548
0.0150956
0.0151321
0.0151618
0.0151881
0.0152094
0.01523
0.0152494
0.0152726
0.0152998
0.0153369
0.015385
0.0154506
0.0155356
0.0156464
0.0157865
0.0159634
0.0161846
0.0164589
0.0167915
0.0171856
0.017647
0.0181869
0.0188154
0.0195387
0.0203685
0.0213303
0.0224596
0.0237844
0.0253281
0.0271254
0.0292221
0.0316707
0.0345181
0.0377984
0.0415112
0.0456125
0.0500036
0.0544893
0.0588876
0.0629742
0.0666466
0.0699011
0.0724227
0.0739795
0.0742718
0.0732894
0.0690492
0.0659099
0.0614603
0.0129738
0.0130969
0.0132142
0.0133232
0.013427
0.0135209
0.0136092
0.0136878
0.0137607
0.0138235
0.0138808
0.0139285
0.0139708
0.0140038
0.014032
0.014052
0.0140687
0.0140802
0.0140918
0.0141028
0.0141194
0.0141422
0.0141779
0.0142285
0.0143006
0.0143982
0.0145292
0.0147019
0.0149256
0.0152066
0.0155476
0.0159555
0.0164402
0.0170088
0.0176681
0.018426
0.0193066
0.0203409
0.0215513
0.0229553
0.0245815
0.0264703
0.0286714
0.0312307
0.0341852
0.0375427
0.0412739
0.0453024
0.0494585
0.0535857
0.0574768
0.0610468
0.0642854
0.0668704
0.0685314
0.0689737
0.0681352
0.064021
0.0608008
0.0565667
0.0116514
0.011787
0.0119157
0.0120356
0.0121494
0.0122528
0.01235
0.0124372
0.012518
0.0125885
0.0126519
0.0127051
0.0127507
0.0127862
0.012814
0.0128321
0.0128438
0.0128481
0.0128489
0.0128462
0.0128449
0.0128459
0.0128553
0.0128751
0.0129118
0.0129693
0.013056
0.0131801
0.0133519
0.0135774
0.0138604
0.0142067
0.0146262
0.0151267
0.0157108
0.0163872
0.0171783
0.0181114
0.0192048
0.020472
0.0219373
0.0236365
0.0256168
0.0279236
0.0305955
0.0336467
0.0370597
0.0407757
0.0446469
0.0485371
0.0522556
0.0557325
0.0589495
0.061589
0.0633411
0.0639212
0.0632046
0.0591984
0.0559123
0.0518819
0.0102239
0.0103693
0.010509
0.0106403
0.0107662
0.0108814
0.0109904
0.0110883
0.0111794
0.0112585
0.0113303
0.0113899
0.0114416
0.0114805
0.0115112
0.0115291
0.0115392
0.0115383
0.0115315
0.011517
0.0115008
0.0114824
0.0114682
0.0114598
0.0114637
0.0114834
0.0115273
0.0116039
0.011723
0.0118918
0.012113
0.0123936
0.0127429
0.0131665
0.0136691
0.0142568
0.0149521
0.0157799
0.0167554
0.01789
0.0192046
0.0207315
0.0225158
0.0246024
0.0270314
0.0298216
0.0329651
0.0364174
0.0400484
0.0437391
0.047311
0.0507114
0.0539178
0.0566115
0.0584498
0.0591526
0.0585402
0.0546214
0.0512814
0.0474226
0.00881646
0.0089674
0.00911144
0.00924634
0.00937516
0.00949303
0.00960456
0.00970526
0.009799
0.0098811
0.00995505
0.0100167
0.010069
0.0101085
0.0101374
0.010153
0.0101582
0.0101511
0.0101354
0.0101097
0.0100788
0.0100425
0.0100065
0.00997182
0.00994474
0.00992847
0.00993123
0.0099611
0.0100284
0.0101394
0.0102979
0.0105095
0.010784
0.0111281
0.0115435
0.012038
0.0126334
0.0133527
0.0142094
0.0152143
0.0163861
0.0177539
0.0193618
0.021254
0.0234717
0.0260376
0.0289513
0.0321805
0.0356099
0.0391337
0.0425852
0.0459247
0.0491226
0.0518673
0.0537819
0.0545929
0.0540581
0.0502021
0.0468138
0.0430767
0.00730924
0.00746613
0.00761648
0.00775778
0.00789276
0.00801645
0.00813302
0.00823789
0.00833499
0.00841944
0.00849533
0.00855796
0.00861114
0.00865001
0.0086783
0.00869124
0.0086931
0.00868014
0.00865673
0.00862021
0.00857581
0.00852229
0.00846529
0.00840539
0.0083485
0.00829742
0.00826
0.00824418
0.00825969
0.00831339
0.00840767
0.00854958
0.00874796
0.00900817
0.009334
0.00973212
0.0102247
0.010834
0.0115722
0.0124503
0.013486
0.0147059
0.016153
0.0178714
0.0199033
0.0222744
0.0249908
0.0280305
0.0312904
0.0346759
0.038028
0.0413218
0.0445239
0.0473224
0.0493114
0.0502187
0.0497482
0.0459392
0.0425144
0.0388527
0.00578281
0.00594366
0.006097
0.00624069
0.00637728
0.00650216
0.00661945
0.00672504
0.00682225
0.00690685
0.00698173
0.00704325
0.00709354
0.00712957
0.00715285
0.00716056
0.00715489
0.00713381
0.00709988
0.00705129
0.00699202
0.00692091
0.00684277
0.00675786
0.00667158
0.00658619
0.00650924
0.00644809
0.00641251
0.00640841
0.00643911
0.00650978
0.00663007
0.00680648
0.00704025
0.00734023
0.00772834
0.0082261
0.00884534
0.00959828
0.0105018
0.0115807
0.0128775
0.0144362
0.0162999
0.0184971
0.0210398
0.0239145
0.0270294
0.030298
0.0335692
0.0368289
0.0400358
0.0428857
0.0449423
0.0459362
0.0455121
0.0417358
0.0382825
0.0346483
0.00415315
0.0043161
0.00447268
0.00462013
0.00476119
0.00489032
0.0050119
0.00512064
0.0052208
0.00530669
0.00538286
0.00544371
0.00549361
0.00552678
0.00554742
0.00554976
0.00553838
0.00550863
0.00546484
0.00540325
0.00532883
0.00523925
0.00513948
0.00502907
0.00491314
0.0047934
0.00467689
0.00457068
0.00448374
0.0044224
0.00438829
0.00438813
0.00443042
0.00452036
0.00466176
0.00486223
0.00514464
0.00553022
0.00603064
0.00665965
0.00743402
0.00837709
0.00953093
0.01094
0.0126483
0.0146871
0.0170734
0.0198022
0.0227905
0.0259593
0.029162
0.0323978
0.0356204
0.0385257
0.0406515
0.0417272
0.0413469
0.0375998
0.034134
0.0304887
0.00255117
0.00271272
0.00286662
0.00301066
0.00314761
0.00327231
0.00338929
0.00349368
0.00358925
0.0036709
0.003742
0.00379794
0.00384138
0.00386829
0.00388066
0.00387459
0.00385268
0.00381191
0.00375494
0.00367881
0.0035874
0.00347838
0.00335603
0.0032195
0.00307347
0.00291895
0.0027627
0.00261104
0.00247292
0.0023535
0.00225533
0.00218303
0.00214601
0.00215052
0.00219801
0.0022983
0.00247412
0.00274655
0.00312741
0.00363225
0.00427817
0.00508729
0.00610173
0.00736651
0.00892667
0.0108163
0.0130575
0.0156527
0.0185274
0.0216084
0.024754
0.0279729
0.0312097
0.0341683
0.03636
0.0375137
0.0371697
0.0334493
0.0299817
0.0262906
0.000859016
0.00102013
0.00117395
0.00131794
0.00145457
0.00157856
0.00169399
0.00179585
0.00188802
0.00196516
0.00203131
0.00208117
0.00211855
0.00213787
0.00214276
0.00212733
0.00209568
0.0020429
0.00197273
0.00188078
0.0017715
0.0016417
0.00149561
0.00133183
0.00115464
0.000964544
0.000767718
0.00057016
0.000379913
0.000202516
3.86756e-05
-0.000105374
-0.000221611
-0.000304912
-0.000351288
-0.000352157
-0.00028382
-0.000125261
0.000135496
0.000515895
0.00103354
0.00170955
0.00258636
0.00370977
0.00512622
0.00687277
0.0089765
0.0114468
0.0142171
0.0172196
0.0203148
0.0235227
0.0267837
0.029801
0.0320635
0.033297
0.0329958
0.0293083
0.0258575
0.0220939
-0.000840209
-0.000681019
-0.000530189
-0.000389884
-0.000257802
-0.000138877
-2.90811e-05
6.70642e-05
0.000152787
0.000223451
0.000281813
0.000323758
0.000351258
0.000360794
0.000353573
0.000325977
0.000279861
0.000212303
0.000125184
1.51713e-05
-0.000114524
-0.000266869
-0.000438471
-0.000630997
-0.000840666
-0.00106761
-0.00130601
-0.00155065
-0.00179352
-0.00203041
-0.00225959
-0.00247721
-0.00267414
-0.00284448
-0.00298636
-0.00308912
-0.00312929
-0.00308585
-0.00294661
-0.00269217
-0.00230438
-0.00176269
-0.00102432
-4.20842e-05
0.00123167
0.00283778
0.00480772
0.00715845
0.00983015
0.0127608
0.0158122
0.0190141
0.0222963
0.0253705
0.0277032
0.0290177
0.0287593
0.0251101
0.0216876
0.0178292
-0.00263215
-0.00247619
-0.00232748
-0.00218892
-0.00205792
-0.00194047
-0.00183218
-0.00173889
-0.0016563
-0.00159067
-0.00153741
-0.00150276
-0.00148231
-0.00148254
-0.0014993
-0.00153938
-0.00159824
-0.00168157
-0.00178546
-0.00191525
-0.00206653
-0.00224343
-0.00244227
-0.00266538
-0.00290925
-0.00317458
-0.00345609
-0.00374894
-0.0040461
-0.00434294
-0.00463978
-0.00493099
-0.00520921
-0.00546926
-0.00570705
-0.0059131
-0.00606306
-0.00613593
-0.00611944
-0.00599242
-0.00573621
-0.00533064
-0.00473229
-0.0038924
-0.00276165
-0.00129519
0.000543005
0.00277724
0.00535421
0.00821806
0.0112299
0.01443
0.0177427
0.020881
0.0232913
0.0246935
0.0244905
0.0208916
0.0175166
0.0135457
-0.00438649
-0.00423678
-0.00409571
-0.0039656
-0.00384386
-0.00373609
-0.00363781
-0.00355439
-0.0034821
-0.00342654
-0.00338441
-0.00336085
-0.00335332
-0.00336634
-0.00339818
-0.00345351
-0.00352996
-0.00363135
-0.00375555
-0.00390692
-0.00408215
-0.00428522
-0.00451311
-0.00476848
-0.00504818
-0.0053536
-0.00567973
-0.00602256
-0.00637504
-0.00673403
-0.0070987
-0.00746614
-0.00782745
-0.00817728
-0.00851308
-0.00882373
-0.00908501
-0.00927598
-0.00938412
-0.00938705
-0.00926511
-0.0089989
-0.00854329
-0.00784875
-0.00686259
-0.00553725
-0.00383017
-0.00171179
0.000773323
0.00357385
0.00655231
0.00975267
0.0130928
0.0162942
0.0187835
0.0202775
0.0201346
0.0165957
0.0132793
0.00918353
-0.00621665
-0.00607199
-0.0059357
-0.00581042
-0.00569388
-0.00559182
-0.00550022
-0.00542459
-0.00536111
-0.00531568
-0.00528424
-0.00527278
-0.00527743
-0.00530454
-0.00535044
-0.00542211
-0.00551535
-0.00563614
-0.00578091
-0.00595569
-0.00615626
-0.00638757
-0.00664648
-0.00693616
-0.00725377
-0.00760118
-0.00797394
-0.00836836
-0.00877845
-0.00920057
-0.00963613
-0.0100802
-0.0105262
-0.0109686
-0.0114036
-0.0118207
-0.0121952
-0.0125059
-0.0127407
-0.0128757
-0.0128911
-0.0127673
-0.0124581
-0.011912
-0.0110733
-0.00989088
-0.00831571
-0.00631336
-0.00391819
-0.00117849
0.00177123
0.00497458
0.00835077
0.0116234
0.0142012
0.0157969
0.01573
0.0122653
0.00902637
0.00479447
-0.00803749
-0.00789926
-0.00777064
-0.00765383
-0.00754679
-0.00745486
-0.0073741
-0.00730954
-0.00725803
-0.00722471
-0.00720692
-0.00720933
-0.0072301
-0.00727333
-0.00733798
-0.0074286
-0.00754341
-0.00768622
-0.00785543
-0.00805592
-0.0082847
-0.00854642
-0.00883869
-0.00916488
-0.00952253
-0.00991416
-0.0103356
-0.0107839
-0.0112531
-0.0117411
-0.0122481
-0.0127722
-0.0133046
-0.0138408
-0.0143774
-0.0149029
-0.0153927
-0.0158253
-0.0161892
-0.0164593
-0.0166158
-0.0166382
-0.0164796
-0.0160858
-0.015398
-0.0143612
-0.0129197
-0.0110343
-0.00872818
-0.00604642
-0.00312027
8.73548e-05
0.00349586
0.00683957
0.00950813
0.0112112
0.0112275
0.00784886
0.00469773
0.000324171
-0.00993264
-0.00980202
-0.00968001
-0.00956961
-0.00946838
-0.0093829
-0.0093087
-0.00925236
-0.00920936
-0.00918685
-0.00917991
-0.00919585
-0.00922985
-0.00928961
-0.00937051
-0.00948093
-0.0096158
-0.0097822
-0.00997606
-0.0102046
-0.0104632
-0.0107579
-0.0110859
-0.011451
-0.0118512
-0.0122893
-0.0127617
-0.0132659
-0.0137969
-0.014352
-0.014934
-0.0155384
-0.0161598
-0.0167925
-0.0174325
-0.0180688
-0.0186759
-0.0192329
-0.0197282
-0.0201366
-0.0204376
-0.0206106
-0.0206069
-0.0203697
-0.0198368
-0.0189488
-0.0176433
-0.0158763
-0.0136585
-0.011033
-0.00812585
-0.00491142
-0.00146254
0.00196084
0.00473075
0.00655308
0.00666996
0.00339288
0.000347353
-0.00417482
-0.0117748
-0.0116546
-0.0115447
-0.0114473
-0.0113601
-0.0112893
-0.0112303
-0.0111893
-0.0111622
-0.0111556
-0.0111658
-0.0111991
-0.0112526
-0.0113318
-0.0114348
-0.0115676
-0.0117276
-0.0119198
-0.0121419
-0.0124002
-0.0126912
-0.0130207
-0.0133864
-0.0137926
-0.0142372
-0.0147241
-0.0152495
-0.015812
-0.0164063
-0.0170316
-0.017689
-0.0183777
-0.0190896
-0.0198205
-0.0205665
-0.0213158
-0.0220429
-0.022727
-0.0233569
-0.0239072
-0.0243569
-0.0246849
-0.0248408
-0.0247647
-0.0243908
-0.0236551
-0.0224885
-0.0208417
-0.0187127
-0.0161412
-0.013249
-0.0100282
-0.0065409
-0.00303773
-0.000163647
0.00178465
0.00201097
-0.00115137
-0.00408138
-0.00875236
-0.0136813
-0.0135701
-0.013469
-0.0133808
-0.0133033
-0.0132429
-0.0131954
-0.0131673
-0.0131544
-0.0131636
-0.0131905
-0.0132421
-0.0133141
-0.0134142
-0.0135382
-0.0136947
-0.013879
-0.0140985
-0.0143494
-0.0146395
-0.0149645
-0.015331
-0.0157367
-0.0161861
-0.0166777
-0.0172154
-0.0177962
-0.0184188
-0.0190791
-0.0197757
-0.0205122
-0.0212854
-0.0220906
-0.0229222
-0.0237763
-0.0246412
-0.0254912
-0.0263051
-0.0270729
-0.0277687
-0.0283716
-0.0288591
-0.0291796
-0.0292694
-0.0290593
-0.0284796
-0.0274554
-0.0259306
-0.0238909
-0.0213727
-0.0184921
-0.0152606
-0.0117281
-0.00813674
-0.00514731
-0.00305978
-0.00270607
-0.00573753
-0.00853505
-0.0133584
-0.015572
-0.0154709
-0.0153814
-0.0153057
-0.0152419
-0.0151962
-0.0151643
-0.0151522
-0.0151564
-0.0151831
-0.0152292
-0.0153006
-0.015395
-0.0155177
-0.0156672
-0.0158498
-0.0160631
-0.0163123
-0.0165955
-0.0169196
-0.0172812
-0.0176868
-0.0181347
-0.0186295
-0.01917
-0.0197608
-0.020399
-0.0210841
-0.0218118
-0.0225825
-0.0233984
-0.0242599
-0.0251594
-0.0260934
-0.0270584
-0.0280418
-0.0290178
-0.0299653
-0.0308748
-0.0317206
-0.0324812
-0.0331334
-0.0336233
-0.0338841
-0.033842
-0.0334229
-0.0325441
-0.0311444
-0.0291951
-0.0267299
-0.0238582
-0.0206167
-0.0170395
-0.0133592
-0.0102514
-0.00801715
-0.00752603
-0.0104123
-0.0130675
-0.018039
-0.0175416
-0.0174514
-0.0173717
-0.0173059
-0.0172514
-0.0172159
-0.0171944
-0.0171947
-0.0172117
-0.0172539
-0.0173157
-0.0174058
-0.0175188
-0.0176639
-0.0178357
-0.0180445
-0.0182846
-0.0185645
-0.0188798
-0.0192397
-0.0196393
-0.0200861
-0.0205781
-0.0211206
-0.0217122
-0.0223581
-0.0230558
-0.023805
-0.0246026
-0.0254483
-0.0263469
-0.0272964
-0.028293
-0.0293324
-0.0304103
-0.0315153
-0.0326208
-0.0337054
-0.0347605
-0.0357606
-0.0366838
-0.0375057
-0.0381703
-0.0386073
-0.0387383
-0.0384842
-0.0377547
-0.0364829
-0.0346254
-0.0322147
-0.0293493
-0.0260922
-0.0224634
-0.0186856
-0.0154475
-0.013052
-0.0124049
-0.0151293
-0.0176254
-0.0227462
-0.0194581
-0.0193811
-0.0193163
-0.0192665
-0.0192292
-0.0192115
-0.0192087
-0.0192279
-0.0192649
-0.0193272
-0.0194108
-0.0195231
-0.019661
-0.019831
-0.020031
-0.0202684
-0.0205403
-0.0208527
-0.0212035
-0.0216004
-0.02204
-0.0225294
-0.0230673
-0.0236588
-0.0243033
-0.0250061
-0.0257651
-0.0265804
-0.0274491
-0.0283725
-0.029354
-0.0303953
-0.0314905
-0.0326367
-0.033831
-0.0350605
-0.0362988
-0.0375245
-0.0387299
-0.0398893
-0.0409801
-0.0419769
-0.0428214
-0.0434398
-0.043749
-0.0436646
-0.0430883
-0.041948
-0.0401852
-0.0378303
-0.0349707
-0.0316987
-0.0280161
-0.0241388
-0.0207665
-0.0182013
-0.0173864
-0.0199331
-0.0222595
-0.027522
-0.0214357
-0.0213705
-0.0213175
-0.0212798
-0.0212554
-0.0212517
-0.0212642
-0.0213003
-0.0213557
-0.0214383
-0.0215433
-0.0216789
-0.0218405
-0.0220369
-0.0222635
-0.0225306
-0.0228329
-0.023179
-0.023565
-0.0240007
-0.0244814
-0.0250151
-0.0256005
-0.0262431
-0.0269423
-0.0277039
-0.0285261
-0.0294093
-0.0303516
-0.0313536
-0.0324217
-0.0335552
-0.0347517
-0.0360085
-0.0373209
-0.0386777
-0.0400518
-0.0414224
-0.0427824
-0.0441057
-0.045369
-0.046546
-0.047576
-0.0483814
-0.0488743
-0.0489644
-0.0485461
-0.0475403
-0.0458755
-0.0435788
-0.0407252
-0.0374305
-0.0336862
-0.0297005
-0.0261809
-0.0234299
-0.0224279
-0.0247798
-0.026919
-0.0323212
-0.0233784
-0.0233285
-0.0232925
-0.0232729
-0.0232678
-0.0232838
-0.0233171
-0.0233743
-0.023452
-0.0235573
-0.0236869
-0.0238478
-0.0240374
-0.0242622
-0.0245204
-0.0248194
-0.0251569
-0.0255388
-0.0259635
-0.0264396
-0.0269637
-0.0275435
-0.0281783
-0.0288738
-0.0296296
-0.030452
-0.0313394
-0.0322929
-0.0333102
-0.0343941
-0.0355494
-0.0367795
-0.0380796
-0.0394476
-0.0408811
-0.0423677
-0.0438811
-0.0454006
-0.0469199
-0.0484121
-0.0498532
-0.0512158
-0.052437
-0.0534349
-0.054117
-0.0543866
-0.0541312
-0.0532637
-0.0517015
-0.0494654
-0.0466197
-0.0433015
-0.0394912
-0.0353935
-0.0317212
-0.0287746
-0.0275719
-0.0297115
-0.0316517
-0.0371826
-0.0254524
-0.0254175
-0.0253942
-0.0253859
-0.0253901
-0.025416
-0.0254587
-0.0255284
-0.0256192
-0.0257411
-0.0258878
-0.0260706
-0.0262821
-0.0265336
-0.0268184
-0.0271491
-0.0275185
-0.0279372
-0.0284
-0.0289185
-0.0294871
-0.0301153
-0.0308015
-0.031552
-0.0323666
-0.0332519
-0.0342067
-0.0352323
-0.0363275
-0.0374947
-0.0387415
-0.0400686
-0.0414747
-0.0429577
-0.0445136
-0.0461327
-0.0477887
-0.0494607
-0.0511433
-0.052809
-0.054433
-0.0559868
-0.057405
-0.0586015
-0.0594787
-0.0599333
-0.0598457
-0.0591207
-0.057665
-0.0554931
-0.0526558
-0.0493055
-0.0454201
-0.0411999
-0.0373597
-0.0341995
-0.0327761
-0.0346853
-0.036408
-0.0420616
-0.0272794
-0.0272607
-0.0272609
-0.027281
-0.0273188
-0.0273794
-0.02746
-0.0275668
-0.0276967
-0.0278561
-0.0280424
-0.0282626
-0.0285142
-0.028804
-0.0291296
-0.0294997
-0.029911
-0.0303712
-0.0308777
-0.031441
-0.0320571
-0.0327352
-0.0334745
-0.0342816
-0.0351565
-0.0361064
-0.0371303
-0.0382302
-0.0394049
-0.0406585
-0.0419972
-0.0434257
-0.0449399
-0.0465385
-0.0482204
-0.0499751
-0.051777
-0.0536056
-0.055456
-0.0573005
-0.0591129
-0.0608637
-0.0624849
-0.0638862
-0.0649645
-0.0656098
-0.0656952
-0.065117
-0.0637725
-0.061668
-0.0588409
-0.0554576
-0.0514911
-0.0471424
-0.0431268
-0.039741
-0.0380811
-0.0397406
-0.0412319
-0.0469944
-0.0295828
-0.0295743
-0.0295783
-0.0295987
-0.0296332
-0.0296917
-0.0297692
-0.0298767
-0.030008
-0.030174
-0.030368
-0.030602
-0.0308686
-0.0311796
-0.0315279
-0.0319268
-0.032369
-0.0328654
-0.0334108
-0.0340176
-0.0346802
-0.0354085
-0.0362017
-0.0370663
-0.0380026
-0.0390183
-0.0401128
-0.0412883
-0.0425447
-0.0438855
-0.0453199
-0.0468498
-0.0484748
-0.0501936
-0.0520037
-0.0538975
-0.0558489
-0.0578375
-0.0598602
-0.0618881
-0.0638942
-0.065848
-0.0676786
-0.0692912
-0.070577
-0.071419
-0.0716828
-0.0712559
-0.0700266
-0.0679927
-0.0651762
-0.0617509
-0.0576935
-0.0532037
-0.0489953
-0.0453643
-0.0434469
-0.0448375
-0.0460775
-0.0519384
-0.0315264
-0.0315343
-0.0315625
-0.0316128
-0.0316825
-0.0317776
-0.0318945
-0.0320402
-0.0322113
-0.0324146
-0.0326476
-0.0329179
-0.0332229
-0.0335702
-0.0339574
-0.034394
-0.0348766
-0.0354134
-0.0360018
-0.0366531
-0.0373633
-0.0381418
-0.0389888
-0.0399108
-0.0409088
-0.0419907
-0.0431562
-0.0444084
-0.045747
-0.0471776
-0.0487077
-0.0503435
-0.0520819
-0.0539222
-0.0558651
-0.0579018
-0.0600068
-0.0621602
-0.06436
-0.0665766
-0.0687823
-0.0709456
-0.0729923
-0.074823
-0.076323
-0.0773678
-0.0778152
-0.0775442
-0.0764341
-0.0744733
-0.0716681
-0.0681999
-0.0640444
-0.0594052
-0.0549943
-0.0511041
-0.0489117
-0.0500122
-0.0509858
-0.0569299
-0.034029
-0.0340459
-0.0340752
-0.0341224
-0.0341844
-0.0342724
-0.0343813
-0.0345227
-0.0346905
-0.0348958
-0.0351324
-0.0354124
-0.0357289
-0.0360935
-0.0365
-0.0369616
-0.0374719
-0.0380415
-0.0386661
-0.0393582
-0.0401129
-0.0409399
-0.0418395
-0.0428182
-0.0438773
-0.0450252
-0.046262
-0.047591
-0.0490132
-0.0505337
-0.0521631
-0.053905
-0.0557597
-0.0577268
-0.0598053
-0.0619893
-0.0642524
-0.0665753
-0.0689569
-0.0713673
-0.0737787
-0.0761581
-0.078428
-0.0804841
-0.0822051
-0.0834591
-0.0840958
-0.083985
-0.0829972
-0.0811117
-0.0783168
-0.0747965
-0.070532
-0.065729
-0.0610961
-0.0569254
-0.0544364
-0.0552266
-0.0559131
-0.0619279
-0.0361695
-0.0362007
-0.0362519
-0.0363264
-0.0364212
-0.0365431
-0.0366886
-0.0368652
-0.0370696
-0.0373092
-0.0375817
-0.0378946
-0.0382462
-0.0386438
-0.0390859
-0.0395817
-0.040129
-0.0407353
-0.0413994
-0.0421324
-0.0429314
-0.0438055
-0.0447563
-0.0457904
-0.0469095
-0.0481226
-0.0494301
-0.0508364
-0.0523421
-0.0539546
-0.0556831
-0.0575354
-0.0595091
-0.0616051
-0.0638245
-0.0661604
-0.0685869
-0.0710847
-0.0736541
-0.0762647
-0.0788888
-0.0814918
-0.0839924
-0.0862814
-0.0882306
-0.0897002
-0.0905315
-0.0905848
-0.0897223
-0.0879129
-0.0851274
-0.0815534
-0.0771719
-0.0721949
-0.0673282
-0.0628613
-0.0600562
-0.0605133
-0.0608968
-0.0669679
-0.0388057
-0.0388476
-0.0389031
-0.0389793
-0.0390726
-0.0391937
-0.0393378
-0.0395157
-0.0397218
-0.0399665
-0.0402445
-0.0405673
-0.0409291
-0.0413414
-0.0417991
-0.0423154
-0.0428855
-0.0435195
-0.0442145
-0.0449832
-0.0458218
-0.04674
-0.0477396
-0.048827
-0.0500047
-0.051282
-0.0526598
-0.0541429
-0.0557332
-0.0574376
-0.0592686
-0.0612313
-0.0633276
-0.0655578
-0.0679219
-0.0704151
-0.0730105
-0.0756891
-0.0784521
-0.0812692
-0.0841132
-0.0869474
-0.0896868
-0.0922165
-0.0944014
-0.0960934
-0.0971248
-0.0973463
-0.096611
-0.0948781
-0.0920993
-0.0884614
-0.0839513
-0.0787848
-0.0736638
-0.0688782
-0.0657347
-0.065838
-0.0658975
-0.0720116
-0.0412948
-0.0413545
-0.0414292
-0.0415259
-0.0416397
-0.0417811
-0.041945
-0.0421419
-0.0423673
-0.0426306
-0.0429287
-0.0432708
-0.0436548
-0.0440888
-0.0445717
-0.0451131
-0.0457115
-0.0463745
-0.0471019
-0.0479049
-0.0487818
-0.0497417
-0.0507879
-0.0519267
-0.0531612
-0.0545014
-0.0559487
-0.0575087
-0.0591833
-0.0609818
-0.062915
-0.064993
-0.0672146
-0.0695817
-0.0720964
-0.0747523
-0.0775231
-0.0803897
-0.0833535
-0.0863844
-0.0894567
-0.0925308
-0.0955175
-0.0982962
-0.100724
-0.102645
-0.103882
-0.104275
-0.103668
-0.102011
-0.0992358
-0.0955313
-0.0908838
-0.0855166
-0.080128
-0.0750065
-0.0715038
-0.0712302
-0.0709501
-0.0770933
-0.0439387
-0.0440143
-0.044105
-0.0442165
-0.0443457
-0.0445025
-0.0446824
-0.0448959
-0.0451378
-0.0454181
-0.0457321
-0.0460911
-0.0464906
-0.0469416
-0.0474409
-0.0480014
-0.0486201
-0.049307
-0.0500611
-0.050895
-0.0518069
-0.0528062
-0.0538969
-0.0550853
-0.0563753
-0.0577775
-0.0592938
-0.0609305
-0.0626908
-0.0645835
-0.066623
-0.0688163
-0.0711672
-0.0736767
-0.0763461
-0.0791709
-0.0821237
-0.0851853
-0.0883571
-0.0916098
-0.0949189
-0.0982417
-0.101484
-0.104521
-0.1072
-0.109357
-0.110805
-0.111372
-0.110895
-0.109312
-0.106536
-0.102753
-0.0979557
-0.0923715
-0.0866937
-0.0812131
-0.0773286
-0.0766575
-0.0760177
-0.0821776
-0.0466157
-0.0467059
-0.046811
-0.0469374
-0.0470811
-0.0472522
-0.0474464
-0.0476738
-0.0479307
-0.048226
-0.0485576
-0.0489339
-0.0493542
-0.0498257
-0.050349
-0.0509332
-0.0515787
-0.0522925
-0.0530764
-0.0539419
-0.0548889
-0.0559268
-0.057061
-0.058298
-0.0596426
-0.0611062
-0.0626914
-0.0644054
-0.0662516
-0.0682411
-0.0703868
-0.0727008
-0.0751837
-0.0778388
-0.0806692
-0.083669
-0.0868111
-0.0900758
-0.0934642
-0.096948
-0.100504
-0.104085
-0.107594
-0.110897
-0.113836
-0.116235
-0.117898
-0.118643
-0.118295
-0.116783
-0.114
-0.110136
-0.105179
-0.0993652
-0.0933837
-0.0875254
-0.0832371
-0.082146
-0.081132
-0.0872977
-0.0494298
-0.0495331
-0.0496512
-0.0497897
-0.0499458
-0.0501294
-0.0503364
-0.0505771
-0.0508468
-0.0511554
-0.0514988
-0.0518883
-0.0523202
-0.0528054
-0.0533416
-0.053942
-0.054605