/*--------------------------------*- C++ -*----------------------------------*\
  =========                 |
  \\      /  F ield         | OpenFOAM: The Open Source CFD Toolbox
   \\    /   O peration     | Website:  https://openfoam.org
    \\  /    A nd           | Version:  6.0
     \\/     M anipulation  |
\*---------------------------------------------------------------------------*/
FoamFile
{
    version     2.0;
    format      ascii;
    class       volVectorField;
    location    "10";
    object      U;
}
// * * * * * * * * * * * * * * * * * * * * * * * * * * * * * * * * * * * * * //

dimensions      [0 1 -1 0 0 0 0];

internalField   nonuniform List<vector> 
62000
(
(0.965461 0.261178 -3.2321e-21)
(0.965406 0.261049 2.72864e-21)
(0.965357 0.260942 2.83606e-21)
(0.965314 0.260836 -1.26206e-20)
(0.965281 0.260723 -1.46733e-20)
(0.965258 0.260606 5.15476e-20)
(0.965247 0.260485 -5.77294e-20)
(0.965247 0.260361 3.41836e-20)
(0.965258 0.260233 -1.63863e-20)
(0.965279 0.260104 -8.54832e-20)
(0.965309 0.259974 -1.14829e-20)
(0.965345 0.259844 1.24437e-19)
(0.965386 0.259718 2.60831e-20)
(0.965431 0.259594 -9.29272e-20)
(0.965477 0.259477 1.48507e-19)
(0.965523 0.259366 -8.04227e-20)
(0.965568 0.259263 8.54242e-20)
(0.965612 0.259168 -1.0205e-19)
(0.965653 0.259082 5.17051e-20)
(0.965691 0.259006 -1.62641e-19)
(0.965727 0.258939 2.1669e-19)
(0.965759 0.258881 6.60271e-20)
(0.965789 0.258833 9.71433e-20)
(0.965816 0.258793 -4.46364e-19)
(0.965841 0.258762 1.66564e-19)
(0.965863 0.25874 -1.05749e-19)
(0.965883 0.258727 -1.82539e-21)
(0.965901 0.258724 -8.92842e-20)
(0.965916 0.258732 2.80613e-19)
(0.965929 0.258751 -1.60957e-19)
(0.965938 0.258782 3.94419e-19)
(0.965942 0.258827 -8.30882e-19)
(0.965941 0.258885 7.81865e-20)
(0.965933 0.258958 -2.98264e-19)
(0.965919 0.259047 -1.01716e-19)
(0.965895 0.259155 -3.28035e-19)
(0.96586 0.259282 -1.13153e-19)
(0.965812 0.259429 -1.24696e-19)
(0.96575 0.259591 3.36517e-19)
(0.965668 0.259758 1.66524e-18)
(0.965565 0.259917 -4.18564e-19)
(0.965439 0.260048 -2.53088e-18)
(0.965291 0.260123 -4.2624e-18)
(0.965121 0.26011 2.4574e-18)
(0.964932 0.259974 7.48723e-19)
(0.964731 0.259685 -3.90848e-18)
(0.964521 0.259227 1.01355e-18)
(0.964303 0.258612 -1.71245e-18)
(0.964071 0.257878 -8.20325e-18)
(0.9638 0.257085 -1.84162e-18)
(0.963453 0.256272 -9.26208e-19)
(0.962967 0.25542 -1.27728e-17)
(0.962294 0.254354 1.41804e-18)
(0.961432 0.25279 1.55529e-17)
(0.960429 0.250315 4.47149e-18)
(0.959447 0.246531 1.58599e-17)
(0.95874 0.240889 -2.15226e-18)
(0.958512 0.233203 -3.77397e-18)
(0.959324 0.219343 8.006e-18)
(0.93141 0.185749 1.5458e-18)
(0.965728 0.262655 -8.80686e-22)
(0.96569 0.262649 8.58066e-21)
(0.965632 0.262613 3.65495e-21)
(0.965548 0.262618 -1.57939e-20)
(0.965444 0.262622 6.68019e-21)
(0.965328 0.262628 -4.70552e-20)
(0.965208 0.262635 4.37964e-20)
(0.965089 0.262637 2.5872e-20)
(0.96498 0.262634 -4.92293e-20)
(0.964884 0.262622 2.15303e-21)
(0.964806 0.2626 4.95808e-20)
(0.964747 0.262565 1.64235e-22)
(0.96471 0.262518 1.49147e-20)
(0.964693 0.262459 -1.29533e-19)
(0.964695 0.262388 2.65428e-19)
(0.964715 0.262305 -2.38941e-19)
(0.964749 0.262213 1.14418e-19)
(0.964794 0.262112 -2.45292e-20)
(0.964847 0.262004 -6.83341e-20)
(0.964906 0.26189 1.93429e-19)
(0.964969 0.261772 -3.11159e-19)
(0.965033 0.261652 1.84518e-19)
(0.965097 0.261532 -2.40217e-19)
(0.965161 0.261412 1.45483e-19)
(0.965223 0.261297 1.38296e-19)
(0.965283 0.261187 -9.28943e-20)
(0.965341 0.261085 -1.1686e-21)
(0.965397 0.260992 1.06998e-19)
(0.965451 0.260912 9.2341e-20)
(0.965503 0.260848 -1.97163e-19)
(0.96555 0.260801 4.07279e-19)
(0.96559 0.260773 8.78062e-20)
(0.965621 0.260766 2.7414e-19)
(0.96564 0.260785 2.59936e-20)
(0.965645 0.260834 8.57522e-20)
(0.965632 0.26091 -9.21605e-20)
(0.965594 0.261014 -3.08789e-19)
(0.965522 0.261139 -1.44861e-19)
(0.965419 0.261248 -9.05783e-19)
(0.965282 0.261318 -1.10141e-18)
(0.96511 0.261317 8.75807e-19)
(0.964905 0.261206 5.48844e-19)
(0.964673 0.260943 4.44254e-18)
(0.964422 0.26049 2.8693e-19)
(0.964166 0.25982 -7.68744e-18)
(0.963915 0.258943 3.22096e-18)
(0.963673 0.25791 2.81797e-18)
(0.963425 0.256825 3.40836e-18)
(0.963126 0.255823 7.51001e-19)
(0.962696 0.255003 1.6578e-19)
(0.962028 0.25436 5.80181e-18)
(0.960994 0.253683 1.57723e-17)
(0.95952 0.252466 -1.08875e-17)
(0.957658 0.25001 -2.71062e-17)
(0.95561 0.245502 -6.90435e-18)
(0.953745 0.238319 -5.53855e-18)
(0.952632 0.227718 -1.26498e-17)
(0.951996 0.214085 -6.77563e-18)
(0.955033 0.190653 1.10924e-17)
(0.920545 0.146078 4.38718e-18)
(0.966063 0.261424 -4.434e-21)
(0.966248 0.26157 -6.6268e-22)
(0.966395 0.261631 6.93222e-22)
(0.966489 0.261744 3.30213e-21)
(0.966525 0.26187 9.53463e-21)
(0.966506 0.262011 -9.1833e-21)
(0.966435 0.26217 4.99178e-20)
(0.966318 0.262343 -2.41908e-20)
(0.966165 0.262528 -1.31762e-20)
(0.965986 0.262722 -8.24703e-20)
(0.965791 0.262921 7.07025e-20)
(0.965591 0.263119 5.28402e-21)
(0.965396 0.263313 -1.66554e-20)
(0.965214 0.263496 4.50083e-20)
(0.965051 0.263667 -7.8372e-20)
(0.964911 0.263819 5.3878e-22)
(0.964797 0.26395 -3.71551e-20)
(0.96471 0.264056 7.3204e-22)
(0.964648 0.264136 8.93377e-20)
(0.964611 0.264188 -1.38672e-19)
(0.964595 0.264213 8.8085e-20)
(0.964597 0.26421 3.49584e-19)
(0.964614 0.264181 -4.66976e-20)
(0.964644 0.264127 -5.05855e-19)
(0.964683 0.264053 2.65332e-19)
(0.96473 0.26396 -1.47377e-19)
(0.964782 0.263852 2.44987e-19)
(0.964838 0.263733 -1.5167e-19)
(0.964896 0.263607 -3.09372e-19)
(0.964957 0.263478 3.36686e-19)
(0.965018 0.263348 -2.44513e-19)
(0.965075 0.263217 3.38574e-19)
(0.965126 0.263087 -9.66152e-19)
(0.965166 0.262962 8.9225e-19)
(0.965195 0.262849 -4.93049e-19)
(0.965206 0.262746 2.07114e-19)
(0.965192 0.262652 1.58801e-19)
(0.965139 0.26255 -2.52014e-20)
(0.965054 0.262385 -6.52975e-20)
(0.964943 0.262139 1.10068e-18)
(0.964807 0.261782 -4.69426e-19)
(0.964653 0.261284 7.61762e-19)
(0.964488 0.260619 -2.8615e-18)
(0.964327 0.259779 -1.49423e-18)
(0.964185 0.258779 1.70121e-18)
(0.964073 0.257686 -6.19163e-18)
(0.963994 0.256619 8.4776e-19)
(0.963925 0.25575 -5.7567e-18)
(0.963812 0.255265 8.16992e-18)
(0.963566 0.255261 2.09719e-18)
(0.963074 0.255699 1.11216e-18)
(0.962213 0.256266 -3.40479e-19)
(0.960919 0.256329 4.47188e-18)
(0.959271 0.255075 1.18569e-18)
(0.957488 0.251596 -9.35047e-18)
(0.955905 0.245318 -6.12802e-18)
(0.955115 0.235544 -3.69453e-18)
(0.953842 0.223275 -1.47601e-17)
(0.958234 0.203058 -1.53481e-18)
(0.934555 0.172492 1.52799e-18)
(0.965573 0.262831 -4.50609e-21)
(0.965875 0.262909 1.39597e-20)
(0.966178 0.262921 -2.15584e-21)
(0.966462 0.262953 -1.4748e-20)
(0.966708 0.262994 2.25063e-20)
(0.966904 0.263043 3.93361e-20)
(0.967038 0.26311 -5.20048e-20)
(0.967104 0.263194 5.70519e-21)
(0.9671 0.263301 1.85242e-20)
(0.967027 0.263432 3.89977e-20)
(0.966893 0.263586 -7.32543e-20)
(0.966706 0.263762 -2.27712e-20)
(0.966478 0.26396 -2.57839e-20)
(0.966222 0.264172 1.19644e-19)
(0.965951 0.264397 -8.10611e-20)
(0.965678 0.264627 1.91521e-19)
(0.965414 0.264856 -2.35633e-19)
(0.965168 0.265077 -3.4678e-20)
(0.964947 0.265282 2.5479e-19)
(0.964756 0.265466 -9.0342e-20)
(0.964597 0.265624 -3.36318e-20)
(0.964471 0.26575 -3.63345e-20)
(0.964376 0.265843 -3.34502e-19)
(0.964312 0.265901 1.96286e-19)
(0.964274 0.265922 -8.97563e-20)
(0.964259 0.265909 1.47852e-19)
(0.964264 0.265862 7.02053e-20)
(0.964286 0.265783 3.53789e-19)
(0.964322 0.265675 -2.25944e-19)
(0.964369 0.265543 -3.01998e-19)
(0.964424 0.265388 4.86002e-19)
(0.964482 0.26521 -4.06839e-19)
(0.964537 0.265007 7.74742e-19)
(0.964587 0.264782 -4.87536e-19)
(0.964626 0.264542 2.02864e-19)
(0.964648 0.264289 3.65412e-19)
(0.964648 0.264015 -1.63098e-19)
(0.964603 0.263699 2.24769e-19)
(0.964522 0.263286 -9.8707e-20)
(0.964419 0.262767 3.44327e-19)
(0.964294 0.262122 -9.85807e-19)
(0.96415 0.261332 2.85413e-19)
(0.963995 0.260389 6.63756e-19)
(0.963838 0.259306 1.73197e-18)
(0.963691 0.258127 2.39074e-18)
(0.963566 0.25695 5.2771e-19)
(0.963464 0.255922 4.22404e-18)
(0.963367 0.255237 4.72855e-18)
(0.963239 0.255093 5.7548e-18)
(0.963016 0.255566 -4.14698e-18)
(0.962622 0.256593 -5.24793e-18)
(0.961975 0.257838 3.60896e-18)
(0.961037 0.258648 4.84821e-18)
(0.959895 0.258218 1.08662e-17)
(0.958727 0.255636 7.26604e-18)
(0.957737 0.250347 1.24306e-17)
(0.957506 0.241649 2.38289e-17)
(0.955783 0.23057 -1.08174e-18)
(0.960719 0.213281 -1.3915e-17)
(0.944941 0.188079 -1.04893e-17)
(0.964537 0.267082 8.49571e-21)
(0.964725 0.267059 -2.88712e-21)
(0.964968 0.266993 4.82236e-21)
(0.965251 0.266914 -6.91778e-21)
(0.965556 0.266823 1.55933e-20)
(0.965865 0.266715 -7.81687e-21)
(0.966158 0.266603 4.24464e-21)
(0.966416 0.26649 -6.40759e-20)
(0.966623 0.266383 5.43579e-20)
(0.966766 0.266291 -1.10107e-19)
(0.966836 0.266218 1.22787e-19)
(0.966832 0.266169 -1.4965e-20)
(0.966754 0.26615 -3.36635e-20)
(0.966609 0.266161 -1.57799e-20)
(0.966406 0.266205 -3.41828e-21)
(0.966159 0.266277 -1.63343e-19)
(0.965881 0.266376 7.29751e-21)
(0.965586 0.266495 1.83271e-19)
(0.965289 0.266628 -6.01816e-20)
(0.965001 0.266766 -6.4638e-20)
(0.964733 0.266903 1.10387e-19)
(0.964492 0.267031 -5.55305e-20)
(0.964284 0.267142 2.36173e-19)
(0.964112 0.26723 1.31021e-19)
(0.963976 0.267291 1.00997e-19)
(0.963875 0.26732 -3.2121e-19)
(0.963808 0.267315 -4.56513e-20)
(0.963771 0.267273 -2.58887e-19)
(0.963762 0.267194 4.95365e-20)
(0.963776 0.267079 -9.02591e-20)
(0.963808 0.266929 -3.51061e-20)
(0.963852 0.266743 3.0034e-19)
(0.9639 0.266514 -7.70193e-19)
(0.963946 0.266246 -3.29273e-20)
(0.963982 0.265944 -4.19976e-19)
(0.964 0.265606 -2.1231e-19)
(0.963994 0.265224 7.31576e-20)
(0.963935 0.264768 -7.27436e-19)
(0.963828 0.2642 1.14429e-18)
(0.963689 0.263519 1.76326e-19)
(0.963511 0.262708 1.33102e-18)
(0.963292 0.261754 -1.04131e-18)
(0.963034 0.260656 -7.36316e-19)
(0.962738 0.259434 -2.85226e-19)
(0.962411 0.258137 1.81343e-18)
(0.962057 0.256865 2.74177e-18)
(0.961683 0.255755 8.30942e-19)
(0.96128 0.254988 1.42942e-18)
(0.960834 0.254738 -1.62752e-18)
(0.960325 0.255046 1.09617e-17)
(0.959726 0.255826 2.81554e-18)
(0.959017 0.256742 -2.3204e-18)
(0.958209 0.257169 1.99007e-18)
(0.957406 0.256356 9.27792e-18)
(0.956765 0.253433 -1.12264e-18)
(0.956371 0.247837 -9.53003e-18)
(0.956837 0.238869 -2.48184e-17)
(0.955208 0.227203 2.3049e-17)
(0.960238 0.21006 -1.46581e-17)
(0.948486 0.181837 1.24204e-17)
(0.963479 0.271827 -3.06831e-21)
(0.963455 0.271773 1.2466e-20)
(0.963507 0.271687 -2.06952e-20)
(0.963631 0.271579 1.55896e-20)
(0.963821 0.271444 1.0158e-20)
(0.964069 0.271277 -1.0934e-20)
(0.964358 0.271083 9.28161e-22)
(0.96467 0.270863 -8.39393e-21)
(0.964984 0.270625 -2.8733e-20)
(0.965281 0.270373 5.58495e-20)
(0.965541 0.270116 -8.80574e-20)
(0.965747 0.269863 7.83232e-20)
(0.965887 0.269621 7.04511e-20)
(0.965954 0.269399 -1.10427e-19)
(0.965946 0.269204 -3.69597e-20)
(0.965867 0.269039 1.40737e-19)
(0.965723 0.268908 -1.73442e-19)
(0.965525 0.26881 2.44144e-19)
(0.965287 0.268745 -4.68541e-20)
(0.965023 0.268707 2.75031e-20)
(0.964747 0.268692 -4.46542e-20)
(0.964473 0.268693 -5.69262e-20)
(0.964212 0.268703 -1.08976e-19)
(0.963974 0.268713 1.89932e-19)
(0.963765 0.268717 -1.32246e-19)
(0.96359 0.268708 -1.31607e-19)
(0.963451 0.268678 2.74353e-19)
(0.963349 0.268622 -2.65324e-19)
(0.963282 0.268534 4.33184e-19)
(0.963247 0.268413 -2.33617e-19)
(0.963237 0.268258 1.83496e-19)
(0.963248 0.268065 -3.12522e-19)
(0.963268 0.267827 3.5016e-19)
(0.963293 0.267545 -2.64248e-20)
(0.963309 0.267217 -1.68912e-20)
(0.963305 0.266841 -5.81211e-21)
(0.963273 0.266406 -2.04699e-19)
(0.96318 0.265876 6.45195e-19)
(0.963025 0.265237 -5.08023e-19)
(0.962821 0.264487 -2.98968e-18)
(0.962555 0.263611 -1.31239e-18)
(0.962219 0.262598 9.89557e-19)
(0.961804 0.261443 -1.1517e-18)
(0.961306 0.260165 -1.38346e-18)
(0.960724 0.258802 -1.41114e-19)
(0.960056 0.257435 3.95069e-18)
(0.959312 0.256176 -6.13618e-18)
(0.958492 0.255166 -6.49212e-18)
(0.957606 0.254538 -4.3082e-18)
(0.956673 0.254292 -7.68319e-18)
(0.955716 0.254319 5.52126e-18)
(0.954789 0.254293 -1.81856e-18)
(0.953956 0.253642 -1.62304e-17)
(0.953351 0.251697 4.04447e-18)
(0.953133 0.247673 4.41702e-18)
(0.953308 0.241026 -1.00069e-17)
(0.954534 0.231143 5.96976e-18)
(0.953449 0.218298 7.61834e-18)
(0.958374 0.200374 2.38371e-17)
(0.949443 0.168866 1.52344e-19)
(0.962714 0.275772 3.39762e-21)
(0.962504 0.275744 -1.54285e-20)
(0.962359 0.275684 7.60532e-21)
(0.962282 0.275607 1.42471e-20)
(0.962281 0.275501 -3.08548e-20)
(0.962357 0.275359 2.61371e-20)
(0.962508 0.275182 -1.75842e-20)
(0.962726 0.274967 1.51243e-20)
(0.962996 0.274717 2.43689e-20)
(0.963303 0.274432 -5.95789e-20)
(0.963625 0.274119 8.72858e-20)
(0.963941 0.273783 3.78066e-20)
(0.964232 0.273433 -1.52359e-19)
(0.96448 0.273076 -2.90609e-20)
(0.96467 0.272723 8.39857e-20)
(0.964793 0.27238 5.54097e-20)
(0.964845 0.272057 -6.80403e-20)
(0.964827 0.271759 6.16786e-20)
(0.964745 0.271489 9.69046e-20)
(0.964607 0.271251 -4.75462e-20)
(0.964426 0.271043 -2.79148e-20)
(0.964214 0.270863 1.01829e-19)
(0.963986 0.270709 2.14392e-19)
(0.963755 0.270574 -1.57191e-19)
(0.963532 0.270452 -1.78044e-19)
(0.963326 0.270337 2.00172e-19)
(0.963145 0.270221 -1.56727e-19)
(0.962994 0.270095 -6.71516e-20)
(0.962875 0.26995 5.4869e-19)
(0.962789 0.269784 -2.43167e-19)
(0.962729 0.269594 -1.94241e-19)
(0.962693 0.269376 2.62521e-19)
(0.96267 0.269121 1.86069e-19)
(0.962655 0.268826 -1.62922e-19)
(0.962633 0.268487 -1.17634e-19)
(0.96259 0.268096 3.99438e-19)
(0.962514 0.267641 1.07083e-19)
(0.962375 0.267083 1.36262e-19)
(0.962164 0.266432 -7.9189e-19)
(0.961889 0.265678 -7.93327e-19)
(0.961533 0.26481 1.61443e-18)
(0.961081 0.263812 1.39536e-18)
(0.960519 0.262676 2.53593e-18)
(0.959836 0.261411 -2.40383e-18)
(0.959025 0.260038 -2.89278e-18)
(0.958082 0.258615 -2.11407e-18)
(0.957016 0.257216 5.56511e-18)
(0.955836 0.25594 5.7956e-18)
(0.954568 0.254872 -6.79182e-18)
(0.953268 0.253971 -1.05602e-17)
(0.951998 0.253111 -1.66171e-18)
(0.950874 0.251985 2.34703e-18)
(0.950013 0.250087 1.47737e-20)
(0.949575 0.246845 -6.19901e-18)
(0.949728 0.241588 6.0048e-18)
(0.950428 0.233827 3.28242e-18)
(0.952366 0.223106 4.96952e-18)
(0.952 0.20941 -2.28039e-17)
(0.956764 0.19109 -1.38549e-18)
(0.950944 0.159053 5.84811e-19)
(0.962311 0.278748 -5.3792e-21)
(0.961982 0.278749 -4.31757e-21)
(0.961693 0.278725 5.94916e-21)
(0.961449 0.278692 2.11526e-20)
(0.961263 0.278639 -4.60135e-20)
(0.961149 0.278556 5.31886e-20)
(0.961112 0.278442 -2.46014e-21)
(0.961155 0.27829 -3.40156e-21)
(0.961277 0.278099 -1.9653e-20)
(0.961471 0.277865 4.81684e-20)
(0.961723 0.277589 -7.54061e-20)
(0.962017 0.277273 2.89159e-20)
(0.962334 0.276922 -9.28779e-22)
(0.962653 0.276541 4.69108e-20)
(0.962955 0.276139 2.28478e-20)
(0.963221 0.275723 -1.2253e-19)
(0.963438 0.275302 1.08297e-19)
(0.963595 0.274884 4.37845e-20)
(0.963688 0.274477 -1.28341e-19)
(0.963715 0.274087 6.36567e-20)
(0.963683 0.273719 3.07048e-20)
(0.963597 0.273376 -2.07068e-20)
(0.96347 0.27306 2.67614e-20)
(0.963312 0.272769 -1.58333e-20)
(0.963137 0.2725 -1.81604e-19)
(0.962956 0.272252 1.22515e-19)
(0.962779 0.272015 -1.90938e-19)
(0.962616 0.271784 3.53031e-19)
(0.962471 0.271548 -7.16246e-20)
(0.962348 0.271304 -4.06803e-20)
(0.962246 0.271051 -1.13911e-20)
(0.962162 0.270785 4.09493e-19)
(0.962091 0.270497 -1.65537e-19)
(0.962028 0.270181 -9.39973e-20)
(0.961959 0.269828 2.82399e-19)
(0.961866 0.269429 2.52643e-19)
(0.961737 0.268969 -4.39576e-19)
(0.961547 0.268411 8.00873e-20)
(0.961284 0.267783 9.33825e-19)
(0.960946 0.267066 -4.3972e-20)
(0.960515 0.266248 6.23609e-19)
(0.959973 0.26531 -1.00677e-18)
(0.959303 0.264239 1.53418e-18)
(0.958491 0.263033 3.77927e-18)
(0.957527 0.261695 1.28463e-18)
(0.956403 0.260258 -1.73872e-18)
(0.955131 0.25876 -5.88488e-18)
(0.953724 0.257256 1.1323e-18)
(0.952222 0.25579 2.12276e-18)
(0.950703 0.254288 4.67856e-18)
(0.949258 0.252614 -5.10993e-19)
(0.948049 0.250485 -9.31298e-18)
(0.947231 0.247464 8.36404e-18)
(0.946982 0.243079 -5.88168e-18)
(0.947472 0.23678 1.22665e-17)
(0.948629 0.228154 3.02026e-18)
(0.951148 0.216931 1.41038e-17)
(0.951457 0.202927 1.89514e-17)
(0.956061 0.184837 3.13172e-18)
(0.953859 0.154385 4.35856e-18)
(0.962169 0.281032 -2.44736e-21)
(0.961781 0.281062 2.11958e-21)
(0.96141 0.281066 1.07394e-20)
(0.961057 0.281069 1.71281e-20)
(0.960738 0.281058 -5.12213e-20)
(0.960468 0.281025 2.9763e-20)
(0.960259 0.280969 -5.37601e-20)
(0.960122 0.280883 8.50612e-20)
(0.960064 0.280762 -4.0344e-20)
(0.960088 0.280601 7.18813e-21)
(0.960192 0.280398 7.95846e-20)
(0.960368 0.28015 -1.8345e-19)
(0.960604 0.279859 1.26803e-19)
(0.960884 0.279524 1.83073e-20)
(0.961189 0.27915 2.9665e-20)
(0.961501 0.278743 -1.26246e-19)
(0.961799 0.278308 6.31486e-20)
(0.962067 0.277855 -7.98022e-20)
(0.962291 0.27739 1.59778e-19)
(0.962463 0.276922 -2.02591e-20)
(0.962576 0.276458 -2.09718e-19)
(0.962632 0.276005 8.62928e-20)
(0.962633 0.275568 -4.63045e-21)
(0.962587 0.27515 -3.27685e-19)
(0.962503 0.274753 2.45954e-19)
(0.96239 0.274378 1.88258e-19)
(0.962261 0.27402 1.29081e-19)
(0.962123 0.273675 -1.74276e-19)
(0.961985 0.273335 -1.98224e-19)
(0.961853 0.272998 9.49619e-20)
(0.961727 0.272664 1.34108e-19)
(0.96161 0.272334 -1.7615e-19)
(0.961499 0.271998 -2.66417e-19)
(0.961392 0.271648 5.64709e-19)
(0.961277 0.271275 7.21288e-20)
(0.961136 0.270865 -9.28327e-19)
(0.960956 0.270403 9.16875e-20)
(0.960718 0.26986 6.64259e-19)
(0.960411 0.269267 4.52815e-20)
(0.960024 0.268603 9.45866e-19)
(0.95954 0.267851 -1.44534e-18)
(0.958941 0.26699 -1.01712e-19)
(0.958209 0.265999 -1.06291e-18)
(0.957329 0.264868 3.41213e-19)
(0.95629 0.263582 2.04077e-18)
(0.955086 0.262153 6.53708e-18)
(0.953727 0.260586 1.26821e-18)
(0.952232 0.258901 -5.13912e-18)
(0.950647 0.257107 4.10483e-18)
(0.949066 0.255104 1.57099e-17)
(0.947594 0.252756 -1.32315e-17)
(0.946419 0.249807 1.64736e-17)
(0.945725 0.245884 -1.05908e-17)
(0.945693 0.240611 -5.65665e-18)
(0.946484 0.233551 -2.47829e-17)
(0.948016 0.224365 -1.37251e-18)
(0.950955 0.21296 -8.55528e-18)
(0.951791 0.199072 -9.3052e-18)
(0.956238 0.181635 6.17772e-18)
(0.957833 0.153586 2.05096e-20)
(0.962165 0.28281 3.1978e-21)
(0.96176 0.282851 1.12589e-21)
(0.961353 0.282872 -1.17979e-20)
(0.960945 0.282897 1.13567e-20)
(0.960548 0.282916 -5.07952e-21)
(0.960176 0.28292 9.18248e-21)
(0.959842 0.28291 3.16911e-21)
(0.95956 0.282878 -4.68201e-20)
(0.959342 0.282819 2.05922e-20)
(0.959198 0.282728 -1.40756e-20)
(0.959134 0.2826 8.72448e-21)
(0.959152 0.282431 3.41125e-20)
(0.959249 0.282218 -6.36036e-21)
(0.959415 0.281959 2.13554e-20)
(0.959639 0.281654 -9.14124e-20)
(0.959906 0.281305 3.58036e-20)
(0.960197 0.280916 1.63478e-20)
(0.960493 0.28049 -4.37667e-20)
(0.960777 0.280034 8.85942e-20)
(0.961035 0.279555 2.98952e-20)
(0.961252 0.279061 -2.93932e-21)
(0.961423 0.278559 -3.1488e-20)
(0.961542 0.278056 1.3573e-19)
(0.96161 0.277559 -3.80238e-19)
(0.96163 0.277073 1.9717e-19)
(0.961608 0.276602 8.44246e-20)
(0.961551 0.276145 -1.50398e-19)
(0.961468 0.275701 2.68726e-19)
(0.961366 0.275263 -1.32966e-19)
(0.961251 0.274835 -7.124e-20)
(0.961128 0.274418 -1.48719e-19)
(0.960998 0.274017 -5.56104e-20)
(0.960864 0.273625 1.68733e-19)
(0.960726 0.273232 -5.28796e-19)
(0.960575 0.272829 1.02207e-18)
(0.960395 0.272402 -6.25902e-20)
(0.960172 0.271934 5.89443e-19)
(0.959898 0.271405 -1.51978e-18)
(0.959558 0.270847 -5.14685e-19)
(0.959139 0.270232 -3.74729e-20)
(0.958623 0.269541 -3.78178e-19)
(0.957996 0.268748 -6.42849e-20)
(0.957242 0.267827 -1.59835e-18)
(0.956344 0.26676 4.12103e-19)
(0.955296 0.265518 8.67604e-19)
(0.95409 0.264094 -5.95004e-18)
(0.952739 0.262468 7.94084e-18)
(0.951266 0.26063 1.33536e-18)
(0.949718 0.258564 6.81084e-20)
(0.948198 0.256157 -1.01096e-17)
(0.946814 0.253273 4.17121e-18)
(0.945769 0.249686 -8.65293e-18)
(0.945258 0.245084 1.62621e-17)
(0.945454 0.239169 4.28768e-18)
(0.946507 0.231605 -1.37388e-17)
(0.948328 0.222113 5.72804e-18)
(0.951533 0.210743 -1.62425e-17)
(0.952724 0.19721 -3.2895e-18)
(0.95701 0.180594 -2.38933e-17)
(0.962145 0.154922 -6.45294e-18)
(0.962234 0.284257 -6.59998e-22)
(0.961834 0.284305 -2.62505e-21)
(0.961422 0.284332 -2.30863e-21)
(0.960996 0.284367 2.24858e-20)
(0.960564 0.284399 -1.26023e-20)
(0.960137 0.284423 -1.52894e-20)
(0.959727 0.284438 -5.81837e-21)
(0.959346 0.28444 -2.41333e-20)
(0.959008 0.284425 1.52852e-20)
(0.958726 0.284387 2.26934e-21)
(0.958512 0.284321 8.03699e-22)
(0.958374 0.284222 6.72728e-20)
(0.958315 0.284085 -4.83189e-20)
(0.958336 0.283906 -6.07735e-21)
(0.958432 0.283682 5.67053e-20)
(0.958595 0.283411 -3.15719e-20)
(0.95881 0.283094 -1.2041e-20)
(0.959062 0.282731 2.04116e-20)
(0.959334 0.282326 6.56881e-20)
(0.95961 0.281884 3.67001e-20)
(0.959873 0.281409 1.39048e-20)
(0.96011 0.28091 -9.48386e-20)
(0.960311 0.280394 4.80912e-20)
(0.960468 0.279866 9.74044e-20)
(0.96058 0.279336 -2.02386e-19)
(0.960646 0.278809 6.6025e-20)
(0.960669 0.278286 -2.67168e-19)
(0.960654 0.27777 2.20051e-19)
(0.960605 0.277257 1.9752e-19)
(0.960527 0.276752 -3.14867e-19)
(0.960426 0.276263 -1.45635e-19)
(0.960304 0.275795 2.04483e-19)
(0.960166 0.275346 6.95859e-20)
(0.960015 0.274907 -2.105e-19)
(0.959844 0.274468 -2.61738e-19)
(0.959638 0.274016 -3.31507e-19)
(0.959388 0.273536 2.09032e-19)
(0.95909 0.273014 5.3465e-19)
(0.958731 0.272477 1.86501e-19)
(0.958294 0.271896 -2.1583e-19)
(0.957765 0.271245 2.16421e-18)
(0.957133 0.270497 -1.54151e-19)
(0.956383 0.269619 2.5895e-18)
(0.955503 0.268587 -4.98687e-18)
(0.954488 0.267362 6.35085e-19)
(0.953332 0.265921 2.08787e-19)
(0.952053 0.264226 -8.15349e-19)
(0.950673 0.262244 -5.20809e-18)
(0.94924 0.259944 -9.4492e-18)
(0.94786 0.257202 8.95425e-18)
(0.946639 0.253894 1.24309e-17)
(0.94578 0.24982 6.65287e-18)
(0.945481 0.244719 -1.50685e-17)
(0.945902 0.238362 8.28612e-18)
(0.947171 0.230489 2.19626e-17)
(0.949203 0.220866 7.69872e-18)
(0.952551 0.209653 1.58484e-17)
(0.953945 0.196567 7.43164e-18)
(0.95806 0.180759 2.01773e-17)
(0.966208 0.157077 -1.36202e-17)
(0.962339 0.285443 7.92005e-22)
(0.961956 0.285488 -2.408e-21)
(0.961557 0.285515 8.67535e-21)
(0.961134 0.285554 2.30766e-21)
(0.960695 0.285593 -1.22104e-20)
(0.960246 0.285629 -1.42446e-20)
(0.959798 0.285661 3.40816e-20)
(0.959359 0.285686 -3.76504e-20)
(0.958943 0.2857 -9.3792e-21)
(0.958562 0.285698 2.37407e-20)
(0.958231 0.285677 2.21995e-20)
(0.957961 0.285631 6.81098e-20)
(0.95776 0.285557 -3.90061e-20)
(0.957635 0.285447 -6.72921e-20)
(0.957589 0.285298 1.49057e-20)
(0.957619 0.285106 -5.59875e-20)
(0.95772 0.284869 4.24112e-20)
(0.957879 0.284584 -7.17592e-20)
(0.958084 0.284251 1.19145e-20)
(0.958321 0.283873 -2.34461e-20)
(0.958572 0.283451 -1.491e-20)
(0.958822 0.282992 -6.82507e-20)
(0.959057 0.282502 6.1303e-21)
(0.959266 0.281986 1.50761e-19)
(0.959441 0.281452 -5.04872e-20)
(0.959575 0.280908 1.67704e-20)
(0.959667 0.280355 4.7721e-20)
(0.959716 0.279799 -6.78017e-20)
(0.959724 0.279237 -1.28046e-20)
(0.959693 0.278679 9.83311e-20)
(0.959627 0.278134 1.14503e-19)
(0.959528 0.277612 -9.10898e-20)
(0.959402 0.277112 -2.80643e-19)
(0.959254 0.276628 -3.99317e-19)
(0.959078 0.276152 6.62316e-19)
(0.958863 0.275671 1.76347e-19)
(0.958602 0.27517 1.0741e-19)
(0.958294 0.274644 6.14513e-19)
(0.957928 0.274113 -6.18928e-19)
(0.957485 0.273544 3.81605e-19)
(0.956957 0.272906 -4.06656e-20)
(0.956333 0.27217 9.31408e-20)
(0.955605 0.2713 -9.35725e-19)
(0.954762 0.270265 2.1638e-18)
(0.953804 0.26902 -2.986e-18)
(0.952728 0.26753 1.93914e-18)
(0.951553 0.265743 -6.11993e-18)
(0.950304 0.263614 2.22337e-18)
(0.949027 0.261097 4.83809e-18)
(0.947828 0.258071 -8.60106e-18)
(0.946805 0.25442 -3.06197e-18)
(0.946157 0.249971 -1.34614e-18)
(0.946074 0.244505 -1.97059e-18)
(0.9467 0.237847 -7.66365e-18)
(0.94814 0.229799 6.78166e-19)
(0.950317 0.220156 5.79399e-18)
(0.953716 0.209147 -7.41795e-18)
(0.955198 0.196512 -2.16858e-18)
(0.959136 0.181403 -3.39233e-18)
(0.96965 0.159247 9.42262e-18)
(0.962438 0.286474 1.35436e-21)
(0.962076 0.286525 -1.15272e-21)
(0.961696 0.286553 1.0743e-21)
(0.961289 0.286593 6.99422e-21)
(0.96086 0.286633 1.03363e-20)
(0.960412 0.28667 -4.0687e-20)
(0.959953 0.286706 2.97964e-20)
(0.959489 0.286739 6.3035e-21)
(0.95903 0.286765 -1.89691e-21)
(0.958589 0.286783 -1.39136e-20)
(0.958178 0.286788 4.3242e-20)
(0.95781 0.286777 -1.43541e-20)
(0.957495 0.286745 -2.00339e-20)
(0.957245 0.286687 -5.99178e-20)
(0.957066 0.286598 1.21578e-19)
(0.956963 0.286473 -2.57518e-20)
(0.956936 0.286307 -2.19539e-20)
(0.956978 0.286097 -6.41256e-20)
(0.957083 0.28584 7.16925e-20)
(0.95724 0.285535 3.9993e-20)
(0.957434 0.285182 -1.75864e-20)
(0.957651 0.284785 3.28308e-20)
(0.957877 0.284346 -1.39082e-19)
(0.958096 0.283869 9.33633e-21)
(0.958297 0.283363 7.99091e-20)
(0.95847 0.282834 -1.60502e-20)
(0.958609 0.282284 -2.47946e-19)
(0.958708 0.281719 2.29709e-20)
(0.958766 0.281137 2.29506e-19)
(0.958781 0.28055 -5.81784e-20)
(0.958753 0.27997 -1.25006e-19)
(0.958686 0.27941 6.45544e-20)
(0.958583 0.278872 2.24749e-19)
(0.958449 0.278349 5.55502e-19)
(0.958282 0.277837 -9.40038e-20)
(0.958071 0.277324 1.11502e-19)
(0.957813 0.276796 -9.78797e-19)
(0.957507 0.276255 -3.29183e-19)
(0.957144 0.275712 2.05444e-19)
(0.956703 0.275131 -8.40567e-19)
(0.956183 0.274479 -2.278e-19)
(0.955577 0.273721 4.41336e-19)
(0.954878 0.272822 2.81921e-19)
(0.954081 0.271747 1.03301e-18)
(0.953189 0.270444 3.94443e-18)
(0.952202 0.268871 -3.41728e-18)
(0.951142 0.266967 5.80768e-18)
(0.950036 0.264679 4.94006e-18)
(0.948928 0.261954 4.91898e-20)
(0.947922 0.258675 7.13885e-18)
(0.947103 0.254737 -1.06875e-17)
(0.946663 0.249991 -1.32778e-17)
(0.946784 0.244255 1.07231e-17)
(0.947587 0.237393 9.5043e-18)
(0.949154 0.229255 -3.76317e-18)
(0.951424 0.219651 -2.40517e-17)
(0.954812 0.208851 6.00837e-18)
(0.956305 0.196625 -5.08894e-18)
(0.960073 0.182074 -7.99244e-18)
(0.972339 0.161032 5.8615e-18)
(0.962507 0.287354 -1.33314e-21)
(0.962166 0.287402 1.47446e-21)
(0.961807 0.28743 1.02409e-20)
(0.961421 0.28747 -1.35222e-20)
(0.96101 0.28751 2.50152e-20)
(0.960577 0.287549 -3.72239e-20)
(0.960124 0.287589 1.06381e-20)
(0.959658 0.287626 -5.53598e-22)
(0.959185 0.287659 2.43541e-20)
(0.958715 0.287687 -1.29266e-20)
(0.958258 0.287708 3.794e-21)
(0.957826 0.287717 4.06998e-21)
(0.957431 0.287714 -6.37156e-20)
(0.957084 0.287691 1.94433e-20)
(0.956796 0.287646 4.51325e-20)
(0.956575 0.287573 1.25775e-21)
(0.956425 0.287467 -7.64787e-20)
(0.956347 0.287323 3.09651e-20)
(0.956339 0.287136 1.47212e-19)
(0.956395 0.286904 -9.69863e-20)
(0.956504 0.286624 -7.31046e-20)
(0.956654 0.286296 6.35688e-20)
(0.956833 0.285922 3.91083e-20)
(0.957025 0.285503 4.52125e-20)
(0.957218 0.285046 -8.83643e-20)
(0.957399 0.284554 -1.92562e-19)
(0.957558 0.284032 1.49228e-19)
(0.957686 0.283482 2.17503e-19)
(0.957777 0.282904 5.45213e-20)
(0.957828 0.282312 -1.10554e-19)
(0.957835 0.281719 5.58776e-20)
(0.9578 0.281138 8.43992e-20)
(0.957723 0.280574 -1.67626e-19)
(0.957612 0.280022 -3.86802e-20)
(0.957461 0.279479 -3.27731e-19)
(0.957264 0.278935 -1.11398e-19)
(0.957021 0.278376 -7.73616e-20)
(0.956727 0.277811 2.72946e-19)
(0.956372 0.277239 -3.55841e-19)
(0.95594 0.276626 1.28192e-19)
(0.955432 0.275932 1.70864e-19)
(0.954845 0.275125 4.08474e-20)
(0.954177 0.274164 -1.43094e-18)
(0.953426 0.273014 -2.08875e-18)
(0.952599 0.271618 -2.12345e-18)
(0.951698 0.269933 4.21203e-18)
(0.95075 0.267889 -3.01616e-19)
(0.949782 0.265428 -2.11756e-18)
(0.948836 0.262498 1.12519e-18)
(0.948014 0.258988 -7.74396e-18)
(0.947388 0.254804 4.09865e-18)
(0.94714 0.249816 1.15933e-17)
(0.947438 0.243872 -1.35795e-18)
(0.948385 0.236869 -1.09356e-17)
(0.950041 0.22869 5.59784e-18)
(0.952364 0.219151 5.46441e-18)
(0.955703 0.208544 6.10074e-18)
(0.957161 0.196669 1.32481e-17)
(0.960774 0.182536 1.16277e-17)
(0.974262 0.162285 -1.31255e-17)
(0.962561 0.288139 -1.0172e-21)
(0.962238 0.288186 1.48949e-21)
(0.961899 0.28821 3.17856e-22)
(0.961533 0.288247 5.86755e-21)
(0.961142 0.288284 -8.99315e-21)
(0.960728 0.28832 -1.88352e-20)
(0.960292 0.288357 6.71359e-21)
(0.959835 0.288392 -9.26474e-21)
(0.959364 0.288427 2.02143e-20)
(0.958886 0.288459 -4.17803e-21)
(0.958408 0.288487 -1.37588e-20)
(0.95794 0.288509 1.16009e-20)
(0.957493 0.288523 1.89303e-20)
(0.957078 0.288524 5.2328e-20)
(0.956707 0.28851 -9.59529e-20)
(0.956391 0.288475 4.94638e-20)
(0.956136 0.288414 7.74892e-21)
(0.955947 0.288322 -4.93942e-20)
(0.955828 0.288195 -3.06632e-20)
(0.955776 0.288027 1.01692e-19)
(0.955786 0.287814 -1.06694e-19)
(0.95585 0.287555 3.25588e-20)
(0.955957 0.287248 -8.73482e-20)
(0.956094 0.286894 1.44088e-19)
(0.95625 0.286496 -2.90479e-20)
(0.95641 0.286057 -8.20751e-20)
(0.956562 0.285577 6.68377e-20)
(0.956696 0.285062 1.27532e-19)
(0.956803 0.284508 -1.25818e-19)
(0.956875 0.28393 8.05949e-20)
(0.956907 0.283341 -2.63476e-19)
(0.956897 0.282756 -3.19719e-20)
(0.956845 0.28218 1.24724e-19)
(0.956756 0.281609 -7.19078e-20)
(0.956626 0.281041 -1.46043e-19)
(0.95645 0.280469 -3.85407e-19)
(0.956228 0.279878 5.20512e-19)
(0.955952 0.27928 -1.85193e-19)
(0.955606 0.278669 1.75275e-19)
(0.955184 0.278005 3.26333e-19)
(0.954689 0.277249 2.29869e-19)
(0.95412 0.276367 -1.8698e-19)
(0.953481 0.275319 7.33587e-19)
(0.952771 0.274067 1.46538e-18)
(0.952001 0.272554 -1.44192e-19)
(0.951177 0.270731 -2.358e-18)
(0.950329 0.26853 -3.51105e-18)
(0.949484 0.26589 -3.20107e-19)
(0.948683 0.262758 2.68598e-18)
(0.948024 0.259032 -1.50732e-19)
(0.947567 0.254631 5.63178e-18)
(0.947485 0.249441 -9.99823e-18)
(0.947929 0.243332 -5.77947e-18)
(0.948988 0.236226 -1.60439e-18)
(0.950699 0.228031 -4.91794e-18)
(0.953047 0.218565 3.24712e-18)
(0.956314 0.208124 -4.5311e-18)
(0.957715 0.196542 -1.57205e-17)
(0.9612 0.182706 -1.68955e-17)
(0.975512 0.163009 6.40953e-18)
(0.962616 0.288823 -1.36479e-21)
(0.962308 0.288863 1.11184e-21)
(0.961985 0.288884 8.93662e-22)
(0.961637 0.288918 -6.55368e-21)
(0.961266 0.288953 6.81474e-21)
(0.960871 0.288988 -3.44285e-21)
(0.960451 0.289024 1.13224e-20)
(0.96001 0.28906 -1.7086e-20)
(0.959549 0.289095 9.34829e-22)
(0.959074 0.289128 1.24384e-21)
(0.958591 0.289159 -1.31456e-20)