/*--------------------------------*- C++ -*----------------------------------*\
  =========                 |
  \\      /  F ield         | OpenFOAM: The Open Source CFD Toolbox
   \\    /   O peration     | Website:  https://openfoam.org
    \\  /    A nd           | Version:  6.0
     \\/     M anipulation  |
\*---------------------------------------------------------------------------*/
FoamFile
{
    version     2.0;
    format      ascii;
    class       volVectorField;
    location    "0.54";
    object      U;
}
// * * * * * * * * * * * * * * * * * * * * * * * * * * * * * * * * * * * * * //

dimensions      [0 1 -1 0 0 0 0];

internalField   nonuniform List<vector> 
13500
(
(1 2.1517e-06 -4.4665e-18)
(1 -5.1836e-06 3.0261e-18)
(1 -4.4774e-06 -1.2966e-17)
(1 -1.1588e-05 -9.0308e-18)
(1 -5.754e-06 1.6853e-17)
(1 -1.0833e-05 3.1827e-17)
(0.99999 4.4988e-06 2.6854e-17)
(0.99999 8.6265e-06 -4.4405e-18)
(0.9999 4.6992e-05 1.5806e-17)
(0.99976 8.9933e-05 3.536e-18)
(0.99687 0.00052906 2.8595e-17)
(1.0167 0.010969 8.316e-18)
(1 6.4845e-06 2.7672e-18)
(1 -1.5404e-05 -9.1902e-18)
(1 -1.2615e-05 6.1919e-18)
(1 -3.4931e-05 -3.5649e-19)
(1 -1.4756e-05 -4.4948e-19)
(1 -3.4559e-05 -3.827e-17)
(0.99998 1.9457e-05 -4.638e-17)
(0.99998 1.8873e-05 -2.541e-17)
(0.99969 0.00015536 -1.5775e-17)
(0.99954 0.00024166 -1.7478e-18)
(0.99046 0.0014098 -1.3542e-17)
(1.0456 0.030951 -5.035e-18)
(1 1.075e-05 -3.574e-18)
(1 -2.5815e-05 1.8259e-17)
(1 -2.0725e-05 3.2205e-18)
(1 -5.9228e-05 1.0412e-17)
(1 -2.3008e-05 -3.8862e-18)
(1.0001 -6.0845e-05 3.0657e-17)
(0.99996 3.7339e-05 -6.5263e-18)
(0.99997 2.2914e-05 5.7718e-18)
(0.99948 0.00027372 -1.9135e-17)
(0.99959 0.00040966 2.6554e-17)
(0.98425 0.0018738 -7.0856e-18)
(1.0677 0.045555 1.7748e-18)
(1 1.4932e-05 9.3433e-18)
(1 -3.6418e-05 -1.7703e-17)
(1 -2.9016e-05 -1.5267e-17)
(1 -8.4303e-05 -7.3072e-19)
(1 -3.1166e-05 5.9987e-18)
(1.0001 -8.8981e-05 -8.5018e-19)
(0.99995 5.655e-05 6.4318e-17)
(0.99998 2.184e-05 1.04e-17)
(0.99925 0.00039746 2.2627e-17)
(0.99986 0.00059864 -9.6188e-18)
(0.97859 0.0019572 3.4526e-17)
(1.0818 0.056126 -8.0779e-18)
(1 1.9034e-05 -6.5651e-18)
(1 -4.7111e-05 1.53e-17)
(1 -3.7456e-05 1.2995e-17)
(1 -0.00010982 1.3327e-17)
(1 -3.9325e-05 2.9411e-18)
(1.0001 -0.00011847 2.2536e-17)
(0.99994 7.6563e-05 -2.8721e-17)
(1 1.5702e-05 2.1132e-18)
(0.99901 0.00052323 -1.3872e-17)
(1.0003 0.00080728 -2.2952e-18)
(0.97374 0.0017325 -8.9383e-18)
(1.0883 0.063856 2.2367e-18)
(1 2.3043e-05 6.6439e-18)
(1 -5.7888e-05 -6.3427e-18)
(1 -4.6077e-05 3.9686e-18)
(1.0001 -0.00013579 -2.6401e-17)
(1 -4.7549e-05 -8.638e-20)
(1.0001 -0.00014947 -4.4613e-17)
(0.99993 9.7222e-05 1.1016e-18)
(1 3.7836e-06 -1.696e-17)
(0.99876 0.00064863 5.2826e-18)
(1.0009 0.0010353 -2.3122e-17)
(0.96989 0.0012743 -2.1577e-17)
(1.0886 0.069394 2.1677e-18)
(0.99999 2.6947e-05 -1.0998e-18)
(1 -6.8752e-05 -7.586e-18)
(1 -5.4907e-05 -3.2255e-18)
(1.0001 -0.00016227 1.9927e-17)
(1 -5.5887e-05 -2.724e-17)
(1.0002 -0.00018216 1.7071e-17)
(0.99991 0.00011833 1.9206e-17)
(1.0001 -1.456e-05 5.9668e-18)
(0.99851 0.00077123 1.1808e-17)
(1.0016 0.0012815 1.2448e-17)
(0.9671 0.00065425 9.3143e-18)
(1.0841 0.07319 3.4931e-18)
(0.99999 3.0732e-05 -2.27e-18)
(1 -7.9707e-05 -1.4923e-18)
(1 -6.3986e-05 -2.7785e-17)
(1.0001 -0.00018928 -9.5156e-18)
(1.0001 -6.445e-05 7.6248e-18)
(1.0002 -0.00021674 2.7978e-17)
(0.9999 0.00013948 1.2223e-17)
(1.0002 -3.9782e-05 5.3277e-18)
(0.99824 0.00088825 -7.7182e-18)
(1.0023 0.0015432 1.7437e-17)
(0.96534 -6.0905e-05 7.5424e-18)
(1.0763 0.075616 -1.1125e-17)
(0.99999 3.4387e-05 -7.0466e-18)
(1 -9.0757e-05 6.4158e-18)
(1 -7.3365e-05 4.6717e-17)
(1.0001 -0.00021684 -1.1414e-17)
(1.0001 -7.3401e-05 2.855e-17)
(1.0002 -0.00025337 -5.5239e-17)
(0.99988 0.00016002 -4.072e-17)
(1.0003 -7.2187e-05 1.0353e-17)
(0.99798 0.00099684 -5.7968e-18)
(1.003 0.0018163 -9.6163e-18)
(0.96452 -0.00081203 -1.3913e-17)
(1.0666 0.07698 1.457e-17)
(0.99999 3.7898e-05 4.6425e-18)
(1 -0.00010191 2.415e-18)
(1 -8.3105e-05 -3.9571e-17)
(1.0001 -0.00024501 1.6244e-17)
(1.0001 -8.2949e-05 -1.245e-17)
(1.0003 -0.00029224 2.356e-17)
(0.99987 0.00017915 1.447e-17)
(1.0004 -0.00011193 2.618e-18)
(0.99772 0.0010943 5.4682e-19)
(1.0037 0.0020964 1.5255e-18)
(0.96448 -0.0015504 4.4427e-18)
(1.0561 0.077527 -7.5483e-19)
(0.99999 4.1251e-05 -2.5489e-18)
(1 -0.00011317 -7.9202e-18)
(1 -9.3277e-05 9.7e-18)
(1.0001 -0.00027384 -2.8663e-18)
(1.0001 -9.3356e-05 1.9216e-18)
(1.0003 -0.00033359 -2.5822e-17)
(0.99985 0.00019592 -3.3324e-17)
(1.0005 -0.000159 -3.3244e-17)
(0.99748 0.0011781 1.6203e-17)
(1.0044 0.0023793 1.9824e-18)
(0.96507 -0.0022391 -1.1267e-17)
(1.0457 0.077453 -6.2964e-18)
(0.99998 4.4432e-05 3.5181e-18)
(1 -0.00012457 2.9916e-18)
(1 -0.00010397 4.6747e-18)
(1.0001 -0.0003034 -2.2844e-18)
(1.0001 -0.00010494 -5.7605e-18)
(1.0003 -0.0003777 9.7661e-18)
(0.99984 0.00020923 1.929e-17)
(1.0007 -0.00021316 2.0538e-17)
(0.99725 0.0012464 1.0412e-17)
(1.005 0.0026616 -2.5011e-17)
(0.96611 -0.0028529 1.1253e-19)
(1.036 0.076912 -7.3131e-18)
(0.99998 4.7425e-05 -3.5175e-18)
(1 -0.00013613 5.883e-18)
(1 -0.00011528 8.475e-18)
(1.0001 -0.0003338 5.9645e-18)
(1.0001 -0.00011808 -5.3423e-18)
(1.0004 -0.00042488 4.8013e-18)
(0.99983 0.00021792 4.3987e-18)
(1.0008 -0.00027398 -1.8339e-18)
(0.99705 0.0012977 -1.6828e-17)
(1.0056 0.0029401 2.3198e-17)
(0.96746 -0.0033773 1.0043e-19)
(1.0275 0.076024 1.5547e-18)
(0.99998 5.0211e-05 5.349e-18)
(1 -0.00014788 -4.5922e-18)
(1 -0.00012733 7.4172e-19)
(1.0002 -0.00036519 -4.9758e-18)
(1.0001 -0.00013322 1.2133e-17)
(1.0004 -0.00047547 5.8587e-18)
(0.99983 0.00022078 1.7696e-17)
(1.001 -0.00034077 -6.8128e-18)
(0.99688 0.0013312 -2.0613e-19)
(1.0061 0.0032128 5.7041e-18)
(0.96898 -0.003807 1.7172e-17)
(1.0203 0.074885 9.9116e-19)
(0.99997 5.2769e-05 1.29e-18)
(1 -0.00015988 1.0192e-17)
(1 -0.00014027 1.4171e-17)
(1.0002 -0.00039774 -4.9613e-18)
(1.0001 -0.00015087 8.7844e-18)
(1.0005 -0.00052982 -2.7349e-18)
(0.99983 0.00021669 -3.0993e-17)
(1.0012 -0.00041264 2.1565e-17)
(0.99674 0.001347 -1.8982e-17)
(1.0065 0.0034783 -3.289e-17)
(0.97058 -0.0041437 -3.7623e-18)
(1.0145 0.073568 9.2048e-19)
(0.99997 5.5076e-05 -3.2912e-18)
(1 -0.0001722 -1.0839e-17)
(1 -0.00015428 -3.4014e-17)
(1.0002 -0.00043168 8.3584e-18)
(1.0001 -0.00017157 -1.3331e-17)
(1.0005 -0.00058829 8.7698e-18)
(0.99984 0.00020466 -2.899e-18)
(1.0014 -0.00048847 -1.2982e-17)
(0.99663 0.0013455 4.1654e-18)
(1.0069 0.0037356 1.9644e-17)
(0.97217 -0.0043943 -7.92e-18)
(1.0099 0.072132 1.2928e-17)
(0.99996 5.7103e-05 3.4627e-19)
(1 -0.00018492 8.1064e-18)
(1 -0.00016954 2.3482e-17)
(1.0002 -0.00046727 -1.8826e-18)
(1.0001 -0.00019588 -1.3243e-17)
(1.0006 -0.0006512 -1.6343e-17)
(0.99986 0.00018392 1.1076e-17)
(1.0016 -0.00056698 7.4459e-18)
(0.99655 0.001328 2.4094e-17)
(1.0072 0.0039845 -2.7526e-18)
(0.97372 -0.0045684 1.9727e-18)
(1.0065 0.07062 -5.1562e-18)
(0.99996 5.8817e-05 -1.9428e-18)
(1 -0.00019813 -9.8223e-18)
(1 -0.00018629 -1.0596e-17)
(1.0002 -0.00050481 6.2909e-18)
(1.0001 -0.00022438 -7.4366e-18)
(1.0007 -0.00071876 -1.3109e-17)
(0.99988 0.00015401 1.0766e-17)
(1.0018 -0.00064674 -5.0512e-18)
(0.9965 0.0012962 -2.9825e-17)
(1.0075 0.0042249 -1.5433e-17)
(0.97519 -0.0046774 8.5634e-18)
(1.004 0.069065 -5.6091e-18)
(0.99996 6.0181e-05 -2.7819e-18)
(1 -0.00021196 -3.7124e-18)
(1 -0.00020476 -7.8529e-19)
(1.0002 -0.00054461 -2.7548e-17)
(1.0002 -0.00025759 6.2406e-18)
(1.0007 -0.00079111 5.7081e-18)
(0.99991 0.00011482 -2.0458e-17)
(1.002 -0.00072628 -1.7248e-17)
(0.99648 0.0012521 4.3589e-18)
(1.0078 0.0044571 -1.1662e-18)
(0.97656 -0.004733 -9.8844e-18)
(1.0022 0.067492 1.0601e-18)
(0.99995 6.1153e-05 3.6184e-18)
(0.99999 -0.00022655 1.7018e-17)
(1 -0.0002252 2.0219e-17)
(1.0002 -0.000587 2.5941e-18)
(1.0002 -0.00029597 1.7249e-17)
(1.0008 -0.00086823 1.0004e-17)
(0.99995 6.6588e-05 2.9534e-18)
(1.0022 -0.00080409 1.8878e-17)
(0.99648 0.0011979 2.1679e-17)
(1.008 0.0046813 1.8434e-17)
(0.97784 -0.004746 7.3864e-18)
(1.0011 0.065919 1.2613e-18)
(0.99994 6.1688e-05 -1.7246e-18)
(0.99999 -0.00024203 -4.0834e-18)
(1 -0.00024788 -2.1541e-17)
(1.0003 -0.00063227 -2.4565e-18)
(1.0002 -0.00033986 -1.3073e-17)
(1.0009 -0.00094993 -5.413e-18)
(0.99999 9.9345e-06 -1.8944e-18)
(1.0024 -0.00087873 -1.7072e-17)
(0.9965 0.0011359 -2.0738e-17)
(1.0081 0.0048977 9.4531e-18)
(0.97902 -0.0047262 5.1064e-19)
(1.0004 0.064358 7.2571e-19)
(0.99994 6.174e-05 4.5713e-18)
(0.99999 -0.00025857 -5.3347e-18)
(1 -0.00027303 -2.0202e-17)
(1.0003 -0.0006807 4.67e-17)
(1.0002 -0.00038945 1.8963e-17)
(1.001 -0.0010358 -1.3246e-17)
(1 -5.4198e-05 2.5476e-17)
(1.0026 -0.00094889 2.3074e-17)
(0.99654 0.0010681 3.3657e-17)
(1.0083 0.0051065 -3.4656e-17)
(0.98012 -0.004682 -1.357e-17)
(1.0001 0.062819 1.9256e-19)
(0.99993 6.1259e-05 -3.346e-18)
(0.99999 -0.00027631 -1.0705e-18)
(1 -0.00030087 3.449e-17)
(1.0003 -0.00073247 -3.5302e-17)
(1.0003 -0.00044477 -1.8256e-18)
(1.001 -0.0011253 4.3887e-17)
(1.0001 -0.0001246 7.8944e-18)
(1.0028 -0.0010134 -3.5636e-18)
(0.99659 0.0009965 -2.0877e-17)
(1.0084 0.0053079 4.0846e-17)
(0.98115 -0.0046202 -5.7538e-18)
(0.99998 0.061307 -3.0462e-19)
(0.99992 6.0202e-05 -1.7057e-18)
(0.99998 -0.00029538 -2.1331e-18)
(1 -0.00033156 1.7955e-18)
(1.0003 -0.00078769 3.6726e-17)
(1.0003 -0.00050562 -1.0291e-17)
(1.0011 -0.0012176 -3.2439e-17)
(1.0002 -0.00019985 -2.0128e-17)
(1.003 -0.0010714 -3.8372e-18)
(0.99665 0.00092283 6.6041e-18)
(1.0085 0.005502 -3.4465e-17)
(0.98212 -0.0045463 9.6351e-18)
(1 0.059826 3.3089e-18)
(0.99992 5.8527e-05 2.8188e-18)
(0.99998 -0.0003159 1.4846e-17)
(1 -0.00036521 -1.3245e-17)
(1.0003 -0.00084635 -3.8456e-18)
(1.0003 -0.00057165 -1.9749e-17)
(1.0012 -0.0013119 3.5292e-17)
(1.0002 -0.00027846 -1.7668e-17)
(1.0032 -0.0011222 1.5912e-17)
(0.99672 0.00084844 -2.0356e-18)
(1.0086 0.0056885 3.2316e-17)
(0.98303 -0.0044644 -9.4069e-18)
(1.0002 0.058378 -5.5216e-18)
(0.99991 5.6204e-05 -5.4062e-19)
(0.99998 -0.00033795 -8.5385e-18)
(1.0001 -0.00040185 -1.8545e-17)
(1.0004 -0.00090831 -1.0537e-17)
(1.0003 -0.00064229 1.9155e-17)
(1.0013 -0.001407 -4.5004e-17)
(1.0003 -0.00035889 -2.7256e-18)
(1.0033 -0.0011654 -2.1498e-17)
(0.9968 0.00077438 3.2903e-18)
(1.0087 0.0058676 -9.3215e-18)
(0.9839 -0.0043776 1.0014e-17)
(1.0004 0.056963 2.3444e-18)
(0.9999 5.321e-05 2.832e-18)
(0.99997 -0.00036158 -9.146e-18)
(1.0001 -0.00044141 -1.8317e-18)
(1.0004 -0.00097331 2.5604e-18)
(1.0004 -0.00071679 6.0624e-18)
(1.0014 -0.0015021 1.3004e-17)
(1.0003 -0.00043968 4.4696e-17)
(1.0035 -0.0012009 2.5694e-18)
(0.99688 0.00070141 5.3645e-18)
(1.0088 0.0060389 1.0275e-17)
(0.98474 -0.0042883 -8.5686e-18)
(1.0006 0.055582 1.804e-18)
(0.99989 4.954e-05 -1.6239e-18)
(0.99997 -0.00038677 9.1376e-18)
(1.0001 -0.00048375 2.6361e-17)
(1.0004 -0.001041 -2.5797e-17)
(1.0004 -0.00079428 -9.4298e-18)
(1.0015 -0.0015958 -2.2884e-18)
(1.0004 -0.00051951 -1.4732e-17)
(1.0036 -0.0012287 1.9934e-18)
(0.99696 0.00063002 -9.293e-18)
(1.0088 0.0062025 -3.7764e-18)
(0.98554 -0.0041978 -2.4494e-19)
(1.0008 0.054235 -2.203e-18)
(0.99988 4.5202e-05 -1.7453e-18)
(0.99996 -0.00041347 5.4693e-18)
(1.0001 -0.0005286 -6.3773e-19)
(1.0004 -0.0011107 8.5542e-18)
(1.0005 -0.00087379 -1.7398e-17)
(1.0015 -0.0016872 2.5891e-17)
(1.0005 -0.00059724 7.3475e-18)
(1.0038 -0.0012491 -1.9019e-17)
(0.99704 0.00056047 -1.1924e-17)
(1.0089 0.0063582 -1.495e-17)
(0.98631 -0.0041074 1.3561e-18)
(1.0011 0.05292 -4.0433e-18)
(0.99987 4.0221e-05 6.0649e-19)
(0.99996 -0.00044157 -1.3062e-17)
(1.0001 -0.00057564 1.6322e-17)
(1.0005 -0.001182 2.3659e-17)
(1.0005 -0.00095431 3.41e-17)
(1.0016 -0.0017754 -1.9015e-17)
(1.0005 -0.00067198 -1.8268e-17)
(1.0039 -0.0012626 3.8589e-18)
(0.99712 0.00049285 1.1172e-17)
(1.0089 0.0065058 1.1701e-17)
(0.98706 -0.0040177 6.3268e-18)
(1.0013 0.051638 4.0189e-18)
(0.99986 3.4641e-05 1.1623e-18)
(0.99995 -0.00047088 1.0386e-17)
(1.0001 -0.00062444 -3.75e-17)
(1.0005 -0.0012542 -3.4283e-18)
(1.0005 -0.0010348 -2.8326e-17)
(1.0017 -0.0018596 -1.1978e-17)
(1.0006 -0.00074307 2.5831e-20)
(1.004 -0.0012698 -4.4153e-18)
(0.9972 0.0004271 -2.2028e-17)
(1.009 0.0066453 -1.868e-17)
(0.98779 -0.0039291 -8.6496e-18)
(1.0016 0.050386 -1.984e-18)
(0.99985 2.852e-05 -7.5332e-19)
(0.99995 -0.00050121 -6.7547e-18)
(1.0001 -0.00067454 2.9505e-17)
(1.0005 -0.0013264 -3.2709e-17)
(1.0006 -0.0011143 -2.1296e-18)
(1.0018 -0.001939 2.5507e-17)
(1.0006 -0.00081007 7.3097e-19)
(1.0041 -0.0012713 4.2098e-18)
(0.99729 0.00036309 1.9282e-17)
(1.009 0.0067766 2.428e-17)
(0.9885 -0.0038418 4.9463e-18)
(1.0018 0.049165 -1.1093e-18)
(0.99984 2.1933e-05 -1.961e-18)
(0.99994 -0.00053229 -2.4909e-18)
(1.0001 -0.00072541 -1.308e-17)
(1.0005 -0.0013981 1.6295e-17)
(1.0006 -0.001192 3.1129e-17)
(1.0018 -0.0020132 -1.1273e-17)
(1.0007 -0.00087279 2.275e-17)
(1.0042 -0.001268 3.1556e-18)
(0.99737 0.00030061 -2.1873e-18)
(1.0091 0.0068998 1.0978e-17)
(0.9892 -0.0037561 -5.5371e-18)
(1.002 0.047973 -7.7456e-19)
(0.99982 1.4964e-05 4.9045e-19)
(0.99993 -0.00056386 -6.5872e-18)
(1.0001 -0.00077653 4.8959e-18)
(1.0006 -0.0014686 -1.6606e-17)
(1.0006 -0.001267 -3.2925e-17)
(1.0019 -0.002082 7.1042e-18)
(1.0007 -0.00093122 -3.2819e-17)
(1.0043 -0.0012605 -7.2169e-18)
(0.99746 0.00023945 7.0913e-18)
(1.0091 0.0070148 -3.4463e-17)
(0.98987 -0.0036719 3.7869e-18)
(1.0022 0.046809 2.1817e-18)
(0.99981 7.7065e-06 8.6123e-19)
(0.99992 -0.00059561 1.7847e-17)
(1.0001 -0.00082736 8.1973e-18)
(1.0006 -0.0015371 6.7646e-18)
(1.0006 -0.0013388 2.6327e-17)
(1.0019 -0.0021452 2.1181e-18)
(1.0007 -0.00098552 2.2662e-17)
(1.0044 -0.0012495 5.1755e-18)
(0.99754 0.00017937 -2.1566e-17)
(1.0091 0.0071216 1.1863e-17)
(0.99053 -0.0035892 2.5623e-18)
(1.0025 0.045673 2.2647e-18)
(0.99979 2.5931e-07 -3.0071e-18)
(0.99991 -0.00062724 -5.8745e-18)
(1.0001 -0.00087741 -7.2023e-18)
(1.0006 -0.0016032 1.1109e-17)
(1.0007 -0.0014069 1.2718e-17)
(1.002 -0.0022028 -4.2181e-18)
(1.0008 -0.001036 -1.9035e-17)
(1.0044 -0.0012358 2.3569e-17)
(0.99763 0.00012016 3.9882e-18)
(1.0091 0.0072205 -3.5822e-18)
(0.99117 -0.0035081 1.0618e-17)
(1.0027 0.044564 -1.5747e-18)
(0.99978 -7.2793e-06 6.179e-18)
(0.9999 -0.00065848 7.0348e-18)
(1.0001 -0.00092623 -7.6557e-18)
(1.0006 -0.0016664 -6.9199e-18)
(1.0007 -0.001471 -1.825e-17)
(1.002 -0.0022552 -7.245e-18)
(1.0008 -0.001083 9.3851e-18)
(1.0045 -0.00122 -3.7806e-17)
(0.99772 6.1612e-05 9.7774e-18)
(1.0092 0.0073114 -4.2326e-18)
(0.9918 -0.0034284 -1.1248e-17)
(1.0028 0.04348 4.5773e-18)
(0.99976 -1.4814e-05 -2.7271e-18)
(0.99989 -0.00068905 -1.236e-17)
(1.0001 -0.00097342 -7.4194e-18)
(1.0006 -0.0017265 -1.3131e-17)
(1.0007 -0.001531 -5.5719e-18)
(1.0021 -0.0023026 2.1302e-17)
(1.0008 -0.0011269 -9.2192e-18)
(1.0046 -0.0012026 4.2058e-17)
(0.99781 3.5611e-06 9.2244e-18)
(1.0092 0.0073945 1.2845e-17)
(0.99241 -0.0033503 4.7435e-18)
(1.003 0.042422 -7.4255e-18)
(0.99975 -2.2256e-05 -1.4464e-18)
(0.99988 -0.00071873 9.1916e-18)
(1.0001 -0.0010187 1.47e-17)
(1.0006 -0.001783 3.5404e-17)
(1.0007 -0.0015868 7.3855e-18)
(1.0021 -0.0023453 -1.4611e-17)
(1.0008 -0.0011682 4.4491e-18)
(1.0046 -0.0011841 -4.525e-17)
(0.9979 -5.4142e-05 -1.1194e-17)
(1.0092 0.0074699 -7.1401e-18)
(0.993 -0.0032735 4.6608e-18)
(1.0032 0.041388 7.4712e-18)
(0.99973 -2.9526e-05 1.1069e-18)
(0.99987 -0.00074731 2.1758e-18)
(1.0001 -0.0010617 -1.4436e-17)
(1.0006 -0.001836 -5.8973e-18)
(1.0007 -0.0016386 9.3769e-18)
(1.0022 -0.0023839 1.7489e-17)
(1.0009 -0.0012074 1.547e-17)
(1.0047 -0.0011651 4.4781e-18)
(0.99799 -0.00011162 1.2526e-17)
(1.0092 0.0075378 -3.3063e-18)
(0.99358 -0.0031982 -8.321e-18)
(1.0034 0.040379 -1.9259e-18)
(0.99971 -3.6557e-05 -4.534e-20)
(0.99985 -0.00077464 2.4796e-18)
(1 -0.0011024 3.2263e-18)
(1.0006 -0.0018855 -7.6557e-18)
(1.0007 -0.0016866 8.6935e-20)
(1.0022 -0.0024188 -1.5857e-17)
(1.0009 -0.0012449 -1.0464e-17)
(1.0048 -0.0011458 3.3138e-17)
(0.99809 -0.00016897 -1.8937e-17)
(1.0093 0.0075983 1.284e-17)
(0.99415 -0.0031242 4.3978e-18)
(1.0036 0.039392 -5.4463e-18)
(0.99969 -4.3295e-05 -3.4284e-18)
(0.99984 -0.00080061 -1.163e-17)
(1 -0.0011407 8.2364e-18)
(1.0007 -0.0019315 -2.0907e-17)
(1.0007 -0.001731 -2.3713e-17)
(1.0022 -0.0024506 -2.1905e-17)
(1.0009 -0.0012811 -2.1327e-17)
(1.0048 -0.0011266 -3.3936e-18)
(0.99819 -0.00022626 1.6551e-17)
(1.0093 0.0076516 -1.1011e-17)
(0.99471 -0.0030516 4.3911e-19)
(1.0037 0.038429 5.1319e-18)
(0.99967 -4.9698e-05 6.6171e-18)
(0.99982 -0.00082516 1.2154e-17)
(1 -0.0011765 -1.3283e-17)
(1.0007 -0.0019742 1.7165e-17)
(1.0007 -0.0017722 -2.78e-18)
(1.0022 -0.0024796 1.4358e-17)
(1.0009 -0.0013164 2.5635e-17)
(1.0049 -0.0011078 -2.5708e-17)
(0.99829 -0.00028357 -8.3959e-18)
(1.0093 0.0076978 1.1623e-17)
(0.99525 -0.0029804 3.8103e-18)
(1.0039 0.037487 -2.4281e-18)
(0.99965 -5.5741e-05 -4.9651e-18)
(0.99981 -0.00084826 -3.592e-18)
(1 -0.0012099 -2.7769e-18)
(1.0007 -0.0020137 1.964e-17)
(1.0007 -0.0018105 -5.952e-18)
(1.0023 -0.0025064 -1.819e-19)
(1.0009 -0.001351 -5.0162e-18)
(1.0049 -0.0010895 2.0592e-17)
(0.99839 -0.00034092 -7.9761e-18)
(1.0093 0.0077372 -7.981e-18)
(0.99577 -0.0029105 -1.1266e-17)
(1.0041 0.036568 2.8243e-18)
(0.99962 -6.1408e-05 3.3749e-18)
(0.99979 -0.00086994 -4.5542e-18)
(1 -0.0012411 6.3579e-18)
(1.0007 -0.0020504 -2.9799e-17)
(1.0007 -0.0018464 4.0326e-17)
(1.0023 -0.0025314 5.9485e-18)
(1.0009 -0.0013854 1.9792e-17)
(1.005 -0.001072 -1.2743e-17)
(0.99849 -0.00039835 1.0186e-19)
(1.0093 0.0077698 5.9316e-18)
(0.99629 -0.0028419 -2.2001e-18)
(1.0042 0.035669 -1.0626e-18)
(0.9996 -6.6697e-05 -9.6548e-19)
(0.99977 -0.00089023 8.9013e-19)
(0.99999 -0.0012701 1.549e-17)
(1.0007 -0.0020846 8.1239e-18)
(1.0007 -0.0018802 -2.016e-17)
(1.0023 -0.0025549 -1.1651e-17)
(1.001 -0.0014196 3.456e-18)
(1.005 -0.0010555 -6.195e-18)
(0.99859 -0.00045589 1.3345e-17)
(1.0094 0.0077959 -3.8948e-18)
(0.99679 -0.0027748 1.0563e-17)
(1.0044 0.034791 -3.8793e-18)
(0.99958 -7.1616e-05 -1.6804e-18)
(0.99975 -0.00090921 -8.5807e-18)
(0.99997 -0.0012971 -4.6057e-18)
(1.0006 -0.0021165 3.2621e-17)
(1.0007 -0.0019123 -1.796e-17)
(1.0023 -0.0025774 -9.8676e-19)
(1.001 -0.001454 -5.168e-17)
(1.0051 -0.0010399 6.0896e-18)
(0.9987 -0.00051355 -2.4968e-17)
(1.0094 0.0078156 -8.4044e-18)
(0.99728 -0.002709 -1.0578e-17)
(1.0045 0.033934 2.3041e-18)
(0.99956 -7.6181e-05 -7.254e-19)
(0.99973 -0.00092697 5.3161e-18)
(0.99995 -0.0013224 -1.9013e-18)
(1.0006 -0.0021465 -1.8994e-17)
(1.0007 -0.001943 2.5809e-17)
(1.0024 -0.0025991 -2.4258e-18)
(1.001 -0.0014887 2.7375e-17)
(1.0052 -0.0010255 -3.7434e-18)
(0.99881 -0.00057134 1.2119e-17)
(1.0094 0.0078291 1.0509e-17)
(0.99775 -0.0026445 8.728e-18)
(1.0047 0.033096 -5.5706e-19)
(0.99953 -8.0416e-05 4.1121e-18)
(0.99971 -0.00094363 -3.1805e-18)
(0.99994 -0.0013461 -6.6503e-18)
(1.0006 -0.0021749 2.0729e-17)
(1.0007 -0.0019727 1.8942e-18)
(1.0024 -0.0026202 3.0076e-17)
(1.001 -0.0015238 4.7223e-18)
(1.0052 -0.0010123 1.7885e-17)
(0.99892 -0.00062926 4.5466e-18)
(1.0094 0.0078366 -3.4003e-18)
(0.99822 -0.0025815 1.1381e-18)
(1.0048 0.032277 5.0486e-19)
(0.99951 -8.4347e-05 1.1724e-18)
(0.99969 -0.0009593 1.3005e-18)
(0.99992 -0.0013685 -6.0301e-18)
(1.0006 -0.0022018 -4.1281e-17)
(1.0007 -0.0020016 5.7352e-18)
(1.0024 -0.0026411 2.6079e-18)
(1.001 -0.0015594 -2.0477e-17)
(1.0053 -0.0010003 2.5147e-19)
(0.99903 -0.00068734 1.3408e-17)
(1.0094 0.0078381 -2.1848e-18)
(0.99867 -0.0025198 -5.5423e-18)
(1.005 0.031477 2.974e-18)
(0.99948 -8.8006e-05 -5.0207e-18)
(0.99966 -0.00097409 5.5116e-18)
(0.9999 -0.0013897 9.9442e-19)
(1.0006 -0.0022277 2.2923e-17)
(1.0007 -0.0020299 -2.6163e-17)
(1.0024 -0.0026618 -1.1521e-17)
(1.001 -0.0015956 2.0943e-17)
(1.0053 -0.00098973 -1.2113e-17)
(0.99914 -0.00074556 -2.1203e-17)
(1.0094 0.0078339 -1.079e-17)
(0.99912 -0.0024596 7.0634e-18)
(1.0052 0.030695 9.9152e-19)
(0.99945 -9.1425e-05 -5.3122e-19)
(0.99964 -0.00098814 -5.546e-18)
(0.99988 -0.00141 1.0587e-17)
(1.0006 -0.0022527 1.0163e-17)
(1.0007 -0.0020579 3.2313e-17)
(1.0024 -0.0026826 4.4253e-18)
(1.001 -0.0016326 1.8603e-17)
(1.0054 -0.0009805 3.0708e-17)
(0.99925 -0.00080393 -9.4089e-19)
(1.0095 0.0078242 1.8978e-17)
(0.99955 -0.0024008 -7.4603e-19)
(1.0053 0.029932 -2.8934e-18)
(0.99943 -9.4637e-05 5.1491e-18)
(0.99962 -0.0010016 -8.0741e-18)
(0.99986 -0.0014295 -1.6068e-17)
(1.0006 -0.002277 -2.7017e-18)
(1.0007 -0.0020858 -3.507e-17)
(1.0024 -0.0027035 -1.3169e-17)
(1.0011 -0.0016702 -6.457e-18)
(1.0054 -0.0009727 2.2832e-19)
(0.99937 -0.00086246 2.7603e-17)
(1.0095 0.0078089 4.3687e-18)
(0.99997 -0.0023434 -9.7157e-18)
(1.0055 0.029186 1.7352e-18)
(0.9994 -9.7674e-05 -5.7725e-18)
(0.99959 -0.0010144 1.0086e-17)
(0.99984 -0.0014485 8.4111e-18)
(1.0006 -0.0023009 -5.3831e-18)
(1.0007 -0.0021137 2.8203e-17)
(1.0025 -0.0027247 1.5754e-17)
(1.0011 -0.0017087 -5.1044e-18)
(1.0054 -0.00096636 -3.0943e-17)
(0.99948 -0.00092114 -9.3669e-19)
(1.0095 0.0077884 -1.2491e-17)
(1.0004 -0.0022876 1.1508e-17)
(1.0056 0.028457 -2.2721e-18)
(0.99937 -0.00010057 3.4686e-18)
(0.99957 -0.0010269 -1.9299e-18)
(0.99981 -0.001467 1.1136e-17)
(1.0006 -0.0023244 -2.2645e-17)
(1.0007 -0.0021417 9.2084e-18)
(1.0025 -0.0027462 -5.6595e-18)
(1.0011 -0.001748 -1.0999e-17)
(1.0055 -0.0009615 -2.4829e-18)
(0.9996 -0.00097998 -3.333e-17)
(1.0095 0.0077627 8.2368e-18)
(1.0008 -0.0022332 -1.0551e-17)
(1.0058 0.027744 7.5813e-19)
(0.99935 -0.00010334 2.7421e-19)
(0.99954 -0.001039 -6.0709e-18)
(0.99979 -0.0014851 6.3234e-18)
(1.0006 -0.0023478 2.9804e-17)
(1.0007 -0.00217 -2.1933e-17)
(1.0025 -0.0027681 1.8204e-17)
(1.0011 -0.0017881 -6.3598e-18)
(1.0055 -0.00095817 5.7512e-18)
(0.99972 -0.001039 3.9605e-17)
(1.0095 0.0077321 -1.5287e-17)
(1.0012 -0.0021803 1.6141e-17)
(1.0059 0.027049 2.1433e-18)
(0.99932 -0.00010603 4.9215e-19)
(0.99952 -0.0010509 -1.2562e-18)
(0.99977 -0.0015032 -9.0977e-18)
(1.0006 -0.0023711 -4.4872e-18)
(1.0007 -0.0021986 1.9114e-17)
(1.0025 -0.0027905 1.4416e-19)
(1.0011 -0.0018291 -1.2502e-17)
(1.0056 -0.00095638 -1.3726e-17)
(0.99983 -0.0010981 -1.6581e-17)
(1.0096 0.0076965 -1.4404e-18)
(1.0015 -0.002129 2.969e-18)
(1.0061 0.026369 2.2422e-19)
(0.99929 -0.00010865 -7.9205e-19)
(0.99949 -0.0010626 1.4951e-17)
(0.99974 -0.0015211 -6.0677e-18)
(1.0005 -0.0023944 -2.5355e-17)
(1.0007 -0.0022277 8.8115e-18)
(1.0025 -0.0028135 -4.6379e-17)
(1.0011 -0.0018709 6.2356e-18)
(1.0056 -0.00095616 8.6443e-18)
(0.99995 -0.0011575 7.7015e-19)
(1.0096 0.0076562 1.5518e-17)
(1.0019 -0.0020792 -9.7745e-19)
(1.0062 0.025704 -5.9875e-18)
(0.99926 -0.00011123 -2.0912e-19)
(0.99947 -0.0010742 -2.9349e-19)
(0.99972 -0.001539 8.1679e-18)
(1.0005 -0.0024179 1.5653e-17)
(1.0006 -0.0022572 -3.5013e-17)
(1.0025 -0.002837 2.0038e-18)
(1.0012 -0.0019136 1.117e-17)
(1.0057 -0.00095754 1.3535e-17)
(1.0001 -0.001217 -1.0495e-17)
(1.0096 0.0076114 -1.5104e-17)
(1.0023 -0.002031 -1.6054e-17)
(1.0064 0.025055 6.3215e-18)
(0.99923 -0.00011378 -1.3682e-18)
(0.99944 -0.0010858 4.1772e-19)
(0.9997 -0.001557 -3.9382e-18)
(1.0005 -0.0024416 -1.0451e-17)
(1.0006 -0.0022872 1.9408e-17)
(1.0025 -0.0028611 2.4893e-17)
(1.0012 -0.0019573 3.2581e-18)
(1.0057 -0.00096054 6.8572e-18)
(1.0002 -0.0012767 1.6738e-17)
(1.0096 0.007562 2.5432e-18)
(1.0026 -0.0019844 1.1884e-17)
(1.0065 0.024421 -3.836e-18)
(0.9992 -0.00011632 2.5181e-18)
(0.99941 -0.0010973 7.7017e-19)
(0.99967 -0.0015751 -5.6278e-18)
(1.0005 -0.0024655 1.5438e-18)
(1.0006 -0.0023178 -1.0523e-17)
(1.0026 -0.0028858 -5.971e-18)
(1.0012 -0.0020018 -1.2039e-18)
(1.0058 -0.00096518 -3.0962e-17)
(1.0003 -0.0013366 3.2885e-18)
(1.0096 0.0075083 -5.149e-18)
(1.003 -0.0019394 -4.833e-18)
(1.0067 0.023802 -4.6207e-18)
(0.99917 -0.00011886 -5.1389e-18)
(0.99939 -0.0011089 1.0062e-18)
(0.99965 -0.0015934 2.985e-18)
(1.0005 -0.0024897 -1.9398e-17)
(1.0006 -0.002349 -1.1995e-17)
(1.0026 -0.0029112 -2.7718e-17)
(1.0012 -0.0020473 5.8121e-18)
(1.0058 -0.00097148 1.2643e-17)
(1.0004 -0.0013967 -3.5258e-17)
(1.0096 0.0074503 2.3747e-17)
(1.0033 -0.0018961 -5.2371e-18)
(1.0068 0.023197 2.9808e-18)
(0.99914 -0.00012142 4.7172e-18)
(0.99936 -0.0011205 2.2518e-18)
(0.99962 -0.0016119 1.148e-18)
(1.0005 -0.0025143 6.1531e-18)
(1.0006 -0.0023809 -2.649e-18)
(1.0026 -0.0029373 5.3723e-17)
(1.0012 -0.0020937 2.0868e-17)
(1.0059 -0.00097945 -1.9657e-17)
(1.0006 -0.001457 3.3938e-17)
(1.0097 0.0073883 -8.8599e-18)
(1.0036 -0.0018543 -3.4611e-18)
(1.0069 0.022605 -1.4846e-18)
(0.99911 -0.000124 1.157e-18)
(0.99933 -0.0011322 -1.426e-17)
(0.99959 -0.0016307 2.2974e-18)
(1.0005 -0.0025392 2.7628e-17)
(1.0006 -0.0024134 2.0504e-17)
(1.0026 -0.002964 -8.6876e-19)
(1.0013 -0.002141 -2.891e-17)
(1.0059 -0.00098913 5.9557e-18)
(1.0007 -0.0015175 -7.6555e-18)
(1.0097 0.0073223 -1.2256e-17)
(1.004 -0.0018143 8.8005e-18)
(1.0071 0.022027 1.3857e-18)
(0.99908 -0.00012662 -4.5761e-18)
(0.9993 -0.0011441 -4.7534e-18)
(0.99957 -0.0016497 -1.2445e-17)
(1.0004 -0.0025645 -2.3169e-17)
(1.0006 -0.0024465 -2.0631e-17)
(1.0026 -0.0029915 -2.4412e-17)
(1.0013 -0.0021892 5.3395e-18)
(1.0059 -0.0010005 4.6264e-17)
(1.0008 -0.0015783 3.3384e-18)
(1.0097 0.0072523 -1.0675e-18)
(1.0043 -0.0017759 -3.1099e-18)
(1.0072 0.021463 -3.7175e-18)
(0.99904 -0.00012928 3.3956e-18)
(0.99927 -0.001156 4.416e-18)
(0.99954 -0.0016691 1.9177e-17)
(1.0004 -0.0025902 1.6046e-17)
(1.0006 -0.0024804 2.0071e-17)
(1.0026 -0.0030197 -9.076e-19)
(1.0013 -0.0022384 -2.975e-17)
(1.006 -0.0010137 -2.5004e-17)
(1.0009 -0.0016393 8.2887e-18)
(1.0097 0.0071786 4.2423e-18)
(1.0046 -0.0017392 7.0236e-18)
(1.0074 0.020911 2.8753e-18)
(0.99901 -0.00013198 -2.398e-18)
(0.99924 -0.0011681 6.927e-18)
(0.99951 -0.0016888 -1.2688e-17)
(1.0004 -0.0026164 2.3219e-18)
(1.0006 -0.0025149 9.3317e-18)
(1.0026 -0.0030487 -2.3861e-18)
(1.0013 -0.0022886 6.6786e-18)
(1.006 -0.0010286 6.9412e-18)
(1.0011 -0.0017006 2.7319e-18)
(1.0097 0.0071013 1.0479e-17)
(1.0049 -0.0017043 -8.45e-18)
(1.0075 0.020372 5.8128e-19)
(0.99898 -0.00013474 3.6203e-18)
(0.99921 -0.0011804 4.2928e-19)
(0.99949 -0.0017089 -5.9388e-18)
(1.0004 -0.002643 9.2411e-19)
(1.0005 -0.0025502 -1.5335e-18)
(1.0026 -0.0030785 -2.3571e-17)
(1.0014 -0.0023397 1.8652e-17)
(1.0061 -0.0010452 2.4629e-17)
(1.0012 -0.0017621 -1.3583e-17)
(1.0098 0.0070204 -1.4578e-17)
(1.0052 -0.0016711 -2.476e-18)
(1.0077 0.019845 4.938e-18)
(0.99894 -0.00013755 -2.6299e-18)
(0.99918 -0.0011928 -3.3061e-19)
(0.99946 -0.0017293 7.384e-18)
(1.0004 -0.00267 -1.7754e-17)
(1.0005 -0.0025862 -1.3862e-17)
(1.0027 -0.0031091 2.9757e-17)
(1.0014 -0.0023918 -2.8526e-18)
(1.0061 -0.0010637 -2.6079e-17)
(1.0013 -0.0018239 3.4632e-18)
(1.0098 0.006936 1.3723e-17)
(1.0054 -0.0016396 8.3897e-18)
(1.0078 0.01933 -1.7804e-18)
(0.99891 -0.00014042 2.6132e-19)
(0.99915 -0.0012055 2.4214e-18)
(0.99943 -0.0017501 4.0345e-18)
(1.0004 -0.0026976 9.1781e-18)
(1.0005 -0.0026229 2.717e-17)
(1.0027 -0.0031405 6.9372e-18)
(1.0014 -0.0024448 -2.4842e-17)
(1.0061 -0.0010839 2.4421e-18)
(1.0014 -0.001886 8.9239e-18)
(1.0098 0.0068483 -1.236e-17)
(1.0057 -0.0016099 -5.6774e-18)
(1.008 0.018827 -2.0577e-18)
(0.99887 -0.00014335 7.4194e-19)
(0.99911 -0.0012183 -4.2131e-19)
(0.9994 -0.0017713 -1.0645e-17)
(1.0004 -0.0027256 -1.9739e-19)
(1.0005 -0.0026605 -5.3717e-17)
(1.0027 -0.0031727 8.5522e-18)
(1.0014 -0.0024989 2.4402e-17)
(1.0062 -0.001106 -7.0188e-18)
(1.0016 -0.0019484 -9.3425e-18)
(1.0098 0.0067573 2.0521e-17)
(1.006 -0.0015819 6.8024e-18)
(1.0081 0.018336 5.3314e-18)
(0.99884 -0.00014634 7.9695e-19)
(0.99908 -0.0012313 -8.7404e-19)
(0.99937 -0.0017929 1.9251e-17)
(1.0003 -0.0027542 4.2326e-18)
(1.0005 -0.0026987 4.7602e-17)
(1.0027 -0.0032058 -3.0143e-17)
(1.0015 -0.0025539 -8.1732e-18)
(1.0062 -0.00113 6.6032e-18)
(1.0017 -0.0020112 3.2225e-18)
(1.0098 0.0066632 -1.1545e-17)
(1.0062 -0.0015558 -1.0981e-18)
(1.0083 0.017855 -3.9308e-18)
(0.9988 -0.00014941 -3.1146e-18)
(0.99905 -0.0012445 1.4672e-18)
(0.99934 -0.0018149 -1.1315e-17)
(1.0003 -0.0027832 5.5651e-18)
(1.0005 -0.0027378 -1.8087e-17)
(1.0027 -0.0032398 4.0878e-18)
(1.0015 -0.0026099 3.2727e-17)
(1.0063 -0.0011557 -2.4711e-17)
(1.0018 -0.0020743 -1.1843e-17)
(1.0099 0.006566 -1.1415e-17)
(1.0065 -0.0015314 -5.4171e-18)
(1.0084 0.017386 -1.0783e-18)
(0.99876 -0.00015254 3.8795e-18)
(0.99901 -0.001258 -3.4848e-18)
(0.99931 -0.0018373 -1.098e-17)
(1.0003 -0.0028128 -8.8744e-18)
(1.0005 -0.0027777 -2.9571e-17)
(1.0027 -0.0032746 -1.8957e-17)
(1.0015 -0.002667 -2.0067e-17)
(1.0063 -0.0011834 2.2974e-17)
(1.002 -0.0021378 1.1485e-17)
(1.0099 0.0064658 1.7285e-17)
(1.0067 -0.0015089 -2.1257e-18)
(1.0085 0.016927 5.2037e-18)
(0.99873 -0.00015574 -6.235e-18)
(0.99898 -0.0012716 5.6459e-18)
(0.99928 -0.0018602 2.6884e-17)
(1.0003 -0.002843 -2.0932e-18)
(1.0005 -0.0028184 3.2717e-17)
(1.0027 -0.0033104 1.4309e-18)
(1.0015 -0.0027251 -1.9223e-17)
(1.0063 -0.001213 8.9868e-18)
(1.0021 -0.0022017 -4.142e-18)
(1.0099 0.0063627 -3.6198e-18)
(1.007 -0.0014882 6.8938e-18)
(1.0087 0.016479 -3.5188e-18)
(0.99869 -0.00015902 5.1093e-18)
(0.99894 -0.0012855 -7.6729e-18)
(0.99925 -0.0018835 -3.1343e-17)
(1.0003 -0.0028737 1.3692e-17)
(1.0004 -0.0028599 -2.3308e-17)
(1.0027 -0.0033471 2.6203e-17)
(1.0016 -0.0027841 6.2646e-18)
(1.0064 -0.0012444 -8.5572e-18)
(1.0022 -0.002266 -1.9887e-18)
(1.01 0.0062567 -9.06e-18)
(1.0072 -0.0014694 -1.1252e-17)
(1.0088 0.01604 4.8594e-18)
(0.99865 -0.00016238 -3.7633e-18)
(0.99891 -0.0012996 2.5513e-18)
(0.99921 -0.0019073 1.9045e-17)
(1.0002 -0.0029049 -1.8048e-17)
(1.0004 -0.0029023 3.7503e-17)
(1.0027 -0.0033848 -2.0336e-17)
(1.0016 -0.0028443 3.6522e-18)
(1.0064 -0.0012778 -1.3518e-17)
(1.0023 -0.0023307 6.4968e-18)
(1.01 0.0061481 -1.2658e-18)
(1.0075 -0.0014524 4.8141e-18)
(1.009 0.015612 -2.1625e-18)
(0.99861 -0.00016581 4.6155e-18)
(0.99887 -0.0013139 1.9861e-18)
(0.99918 -0.0019315 -1.2696e-17)
(1.0002 -0.0029368 -3.6661e-19)
(1.0004 -0.0029455 -1.6561e-18)
(1.0027 -0.0034234 4.9188e-18)
(1.0016 -0.0029055 3.4694e-17)
(1.0064 -0.0013131 9.2455e-18)
(1.0025 -0.0023959 -1.9261e-17)
(1.01 0.0060368 -6.5655e-18)
(1.0077 -0.0014372 -4.5424e-18)
(1.0091 0.015193 2.2673e-18)
(0.99857 -0.00016932 -5.2901e-18)
(0.99884 -0.0013285 -7.3598e-18)
(0.99915 -0.0019562 5.3267e-18)
(1.0002 -0.0029692 1.5614e-17)