/*--------------------------------*- C++ -*----------------------------------*\
  =========                 |
  \\      /  F ield         | OpenFOAM: The Open Source CFD Toolbox
   \\    /   O peration     | Website:  https://openfoam.org
    \\  /    A nd           | Version:  6.0
     \\/     M anipulation  |
\*---------------------------------------------------------------------------*/
FoamFile
{
    version     2.0;
    format      ascii;
    class       volScalarField;
    location    "4";
    object      p;
}
// * * * * * * * * * * * * * * * * * * * * * * * * * * * * * * * * * * * * * //

dimensions      [0 2 -2 0 0 0 0];

internalField   nonuniform List<scalar> 
62000
(
0.0165328
0.0165341
0.0165369
0.0165412
0.0165474
0.0165554
0.0165658
0.0165784
0.0165942
0.0166132
0.0166364
0.0166642
0.0166979
0.0167383
0.0167871
0.0168456
0.016916
0.0170007
0.0171023
0.0172242
0.0173699
0.0175443
0.0177516
0.0179987
0.018291
0.0186371
0.0190437
0.0195214
0.0200779
0.0207247
0.0214693
0.0223219
0.0232893
0.0243779
0.0255904
0.0269204
0.0283529
0.0298629
0.031412
0.0329457
0.0343911
0.0356577
0.0366401
0.0372247
0.0373005
0.0367734
0.0355852
0.033725
0.0312468
0.0282597
0.0249272
0.0214349
0.0179695
0.0146986
0.0117208
0.00910614
0.0068537
0.00494459
0.00328183
0.00245588
0.0164687
0.016469
0.0164697
0.0164712
0.0164739
0.0164779
0.0164839
0.016492
0.0165029
0.016517
0.0165352
0.016558
0.0165868
0.0166225
0.0166666
0.0167207
0.0167868
0.0168674
0.0169651
0.0170832
0.0172254
0.0173964
0.0176008
0.0178451
0.0181351
0.0184792
0.018885
0.0193625
0.0199209
0.0205711
0.0213235
0.0221882
0.0231745
0.024291
0.0255413
0.0269228
0.0284255
0.0300297
0.0317029
0.0333964
0.0350435
0.0365583
0.0378378
0.0387669
0.0392278
0.0391126
0.0383421
0.0368778
0.0347428
0.0320143
0.0288306
0.0253596
0.021785
0.0182813
0.014958
0.011901
0.00911903
0.00660249
0.00427716
0.00257879
0.0162592
0.0162588
0.0162582
0.0162578
0.0162581
0.0162592
0.0162615
0.0162653
0.0162713
0.0162799
0.0162919
0.016308
0.0163293
0.0163568
0.016392
0.0164362
0.0164916
0.0165601
0.0166444
0.0167476
0.016873
0.017025
0.017208
0.017428
0.0176906
0.0180035
0.0183739
0.0188113
0.0193246
0.0199242
0.0206206
0.021424
0.0223443
0.0233894
0.0245643
0.0258675
0.0272923
0.0288236
0.030434
0.0320813
0.0337058
0.0352296
0.036557
0.0375788
0.0381801
0.0382509
0.0377042
0.0364869
0.0346022
0.0321039
0.0291083
0.0257637
0.0222466
0.0187259
0.0153123
0.0120952
0.00909296
0.0063133
0.0037068
0.00167352
0.0159086
0.0159072
0.0159052
0.0159029
0.0159008
0.0158988
0.0158978
0.0158976
0.015899
0.0159023
0.0159084
0.0159176
0.0159311
0.0159496
0.0159746
0.0160073
0.0160494
0.0161031
0.0161704
0.0162544
0.016358
0.0164852
0.0166399
0.0168275
0.0170531
0.0173237
0.0176458
0.018028
0.0184786
0.0190071
0.0196237
0.0203378
0.0211591
0.0220959
0.0231516
0.0243265
0.025616
0.0270086
0.0284817
0.029999
0.0315085
0.0329406
0.034209
0.0352131
0.0358449
0.0359978
0.0355829
0.0345396
0.0328577
0.0305723
0.0277809
0.0246124
0.0212335
0.017803
0.0144295
0.0112028
0.00815133
0.00530555
0.00262651
0.000564289
0.0153953
0.0153937
0.0153913
0.0153884
0.0153854
0.0153822
0.0153794
0.0153768
0.0153752
0.0153746
0.015376
0.0153795
0.0153864
0.0153971
0.0154131
0.0154351
0.0154652
0.0155046
0.0155557
0.0156208
0.0157028
0.015805
0.0159311
0.0160859
0.0162738
0.0165012
0.016774
0.0170997
0.0174859
0.0179413
0.0184751
0.0190966
0.0198148
0.0206363
0.0215658
0.022603
0.0237453
0.0249839
0.0263001
0.0276631
0.0290274
0.0303319
0.0314991
0.0324379
0.0330482
0.0332293
0.0328938
0.0319774
0.0304607
0.0283647
0.0257704
0.0227897
0.0195788
0.0162857
0.0130133
0.00985202
0.00683822
0.00402538
0.00136805
-0.000633961
0.0147673
0.0147646
0.0147604
0.0147552
0.0147494
0.014743
0.0147365
0.0147299
0.0147238
0.0147182
0.0147139
0.0147111
0.0147107
0.0147132
0.0147197
0.0147312
0.0147489
0.0147746
0.0148098
0.014857
0.0149183
0.014997
0.0150961
0.01522
0.0153725
0.0155593
0.0157855
0.016058
0.0163835
0.0167698
0.0172255
0.0177587
0.018378
0.0190903
0.0198981
0.0208026
0.0218017
0.022889
0.0240491
0.0252554
0.0264686
0.0276349
0.0286854
0.0295378
0.0301007
0.0302799
0.0299915
0.0291703
0.0277906
0.0258624
0.0234531
0.0206589
0.0176254
0.014489
0.0113473
0.008289
0.00535754
0.00262453
2.71203e-05
-0.00189504
0.0139831
0.01398
0.0139754
0.0139695
0.0139628
0.013955
0.0139468
0.0139378
0.0139287
0.0139195
0.013911
0.0139031
0.013897
0.0138929
0.0138918
0.0138945
0.0139022
0.0139161
0.0139377
0.013969
0.014012
0.0140696
0.0141443
0.0142401
0.0143603
0.0145101
0.0146939
0.0149179
0.0151879
0.0155113
0.0158953
0.0163481
0.0168773
0.0174881
0.0181844
0.0189662
0.0198328
0.0207792
0.0217926
0.0228504
0.0239184
0.0249492
0.0258816
0.0266417
0.0271462
0.0273079
0.0270473
0.0262996
0.0250353
0.0232555
0.0210162
0.0183998
0.015542
0.0125682
0.0095683
0.00662981
0.00380027
0.00116611
-0.0013594
-0.0032041
0.0130878
0.0130835
0.0130771
0.0130691
0.01306
0.0130496
0.0130384
0.0130264
0.0130139
0.013001
0.0129882
0.0129757
0.0129639
0.0129535
0.0129449
0.0129391
0.0129369
0.0129396
0.0129484
0.0129651
0.0129913
0.0130297
0.0130823
0.0131529
0.0132441
0.0133606
0.0135063
0.0136866
0.013907
0.0141736
0.0144936
0.0148737
0.0153211
0.0158414
0.0164365
0.0171077
0.017854
0.0186721
0.0195513
0.0204721
0.0214048
0.0223078
0.0231265
0.0237949
0.0242373
0.0243734
0.0241284
0.0234391
0.0222736
0.0206261
0.0185432
0.0160945
0.0134064
0.0105931
0.00773798
0.00492511
0.00220529
-0.00032517
-0.002778
-0.00455554
0.012036
0.0120319
0.012026
0.0120186
0.0120102
0.0120003
0.0119893
0.0119769
0.0119637
0.0119493
0.0119345
0.011919
0.0119039
0.011889
0.0118753
0.011863
0.0118534
0.011847
0.0118452
0.0118494
0.011861
0.0118824
0.0119154
0.0119633
0.0120285
0.0121152
0.0122267
0.012368
0.0125437
0.0127597
0.013022
0.0133372
0.0137119
0.01415
0.0146548
0.0152264
0.0158647
0.0165674
0.0173253
0.0181218
0.0189312
0.0197166
0.0204296
0.021011
0.0213922
0.0214995
0.0212629
0.0206214
0.0195418
0.0180128
0.0160728
0.0137806
0.011254
0.00859664
0.00588398
0.00319694
0.000587223
-0.00184103
-0.00422479
-0.00594607
0.0109155
0.0109101
0.0109022
0.0108923
0.0108809
0.0108678
0.0108534
0.0108374
0.0108204
0.0108021
0.010783
0.010763
0.0107426
0.010722
0.0107017
0.0106822
0.0106642
0.0106486
0.0106362
0.0106285
0.0106265
0.0106324
0.0106477
0.0106752
0.010717
0.0107768
0.0108576
0.0109637
0.0110995
0.0112698
0.0114806
0.0117373
0.012046
0.0124115
0.0128347
0.0133171
0.0138584
0.014457
0.0151055
0.0157894
0.0164863
0.0171639
0.0177791
0.0182788
0.018601
0.0186782
0.0184453
0.0178438
0.01684
0.0154184
0.0136107
0.0114654
0.00909206
0.00658442
0.00401103
0.00144794
-0.00105279
-0.00338248
-0.00570128
-0.00737655
0.00965448
0.00964908
0.00964125
0.00963145
0.00961997
0.00960653
0.00959137
0.00957421
0.00955549
0.00953497
0.0095132
0.00949002
0.00946611
0.00944132
0.00941644
0.00939149
0.00936731
0.0093443
0.00932332
0.00930538
0.00929163
0.00928364
0.00928292
0.00929195
0.00931249
0.00934795
0.00940083
0.00947518
0.00957458
0.00970377
0.0098676
0.0100717
0.0103217
0.0106203
0.0109706
0.0113724
0.0118262
0.0123311
0.012881
0.0134632
0.0140583
0.014638
0.0151637
0.015588
0.015855
0.0159028
0.0156711
0.015104
0.0141681
0.0128444
0.0111589
0.00915113
0.00692361
0.0045603
0.00212182
-0.000320182
-0.00271498
-0.00495021
-0.00720813
-0.00884541
0.00831554
0.00830884
0.00829919
0.0082873
0.00827345
0.00825751
0.00823975
0.00822008
0.00819866
0.0081755
0.0081506
0.00812418
0.00809616
0.0080671
0.00803679
0.00800604
0.00797479
0.00794415
0.00791421
0.00788636
0.00786117
0.00784024
0.00782463
0.00781664
0.00781766
0.00783077
0.00785814
0.00790332
0.00796965
0.00806106
0.00818258
0.00833853
0.00853419
0.00877341
0.00905684
0.00938576
0.00976028
0.0101802
0.0106404
0.01113
0.0116322
0.0121221
0.0125654
0.0129198
0.0131348
0.013154
0.0129216
0.0123847
0.0115105
0.0102773
0.00870653
0.00682899
0.00474071
0.00251612
0.000209309
-0.00211405
-0.00440473
-0.00654894
-0.00874878
-0.0103547
0.00682984
0.0068238
0.00681546
0.00680517
0.00679321
0.00677906
0.00676298
0.00674441
0.00672381
0.00670062
0.00667545
0.0066478
0.00661844
0.00658682
0.0065538
0.00651898
0.00648322
0.00644652
0.00640961
0.00637308
0.00633786
0.00630504
0.00627575
0.00625196
0.00623486
0.00622726
0.00623097
0.00624927
0.00628494
0.00634185
0.00642392
0.00653596
0.00668262
0.0068661
0.00708902
0.00735124
0.00765341
0.00799593
0.00837454
0.00877986
0.00919753
0.00960558
0.00997359
0.0102638
0.0104309
0.0104233
0.0101897
0.00968008
0.00886261
0.00771355
0.0062503
0.00449627
0.00254168
0.000451862
-0.00172678
-0.00393391
-0.00612304
-0.00817911
-0.0103233
-0.0119028
0.00531345
0.00530606
0.00529546
0.0052824
0.00526721
0.00524961
0.00522989
0.00520779
0.00518351
0.00515679
0.00512772
0.00509622
0.00506226
0.00502611
0.00498758
0.00494711
0.00490464
0.0048609
0.00481585
0.00477048
0.00472517
0.00468098
0.00463871
0.00460011
0.00456607
0.00453912
0.00452081
0.00451399
0.00452131
0.00454583
0.00459188
0.00466287
0.00476344
0.00489683
0.00506337
0.00526437
0.00550009
0.00577147
0.00607506
0.00640283
0.00674258
0.00707511
0.00737345
0.00760406
0.00772629
0.00769333
0.007458
0.00697334
0.00620875
0.00513895
0.0037782
0.00214277
0.000317094
-0.00164204
-0.00369469
-0.00578708
-0.00787556
-0.00984531
-0.0119352
-0.013492
0.00366753
0.00366041
0.00365029
0.00363773
0.0036229
0.00360547
0.0035855
0.00356264
0.00353713
0.00350863
0.00347748
0.00344339
0.00340678
0.00336729
0.00332539
0.00328071
0.00323372
0.00318434
0.00313287
0.0030797
0.00302538
0.00297062
0.00291618
0.00286359
0.00281352
0.0027683
0.00272917
0.00269877
0.00267926
0.00267376
0.00268549
0.00271853
0.00277694
0.00286231
0.00297717
0.00312133
0.00329558
0.00350137
0.00373596
0.00399252
0.00426078
0.00452405
0.00475845
0.00493433
0.00501534
0.00495908
0.00472242
0.00426127
0.00354653
0.00255179
0.00128865
-0.000232969
-0.00193334
-0.0037643
-0.00569327
-0.00767237
-0.00966174
-0.0115467
-0.0135834
-0.0151203
0.00196701
0.00195844
0.00194627
0.00193136
0.00191388
0.00189373
0.00187098
0.00184555
0.00181734
0.00178636
0.00175227
0.00171527
0.00167487
0.00163165
0.00158484
0.00153515
0.00148195
0.00142613
0.00136708
0.00130577
0.00124211
0.00117694
0.00111061
0.00104455
0.000979125
0.000916454
0.000857541
0.000804666
0.000759913
0.000725659
0.000705643
0.000702526
0.000720512
0.000762344
0.000828218
0.000919488
0.00103654
0.00118128
0.00135163
0.00154188
0.00174359
0.00194237
0.00211722
0.00224206
0.00228461
0.00220661
0.00196879
0.00152999
0.000862802
-5.99287e-05
-0.00122864
-0.00263954
-0.00421793
-0.00592344
-0.00772992
-0.0095963
-0.0114866
-0.0132873
-0.0152711
-0.0167902
0.000122412
0.000114767
0.000104392
9.16626e-05
7.6766e-05
5.91227e-05
3.8808e-05
1.51569e-05
-1.15277e-05
-4.1922e-05
-7.56035e-05
-0.000113219
-0.000154203
-0.000199305
-0.000247939
-0.000300829
-0.000357459
-0.000418231
-0.000482925
-0.000551448
-0.000623388
-0.000698437
-0.000776068
-0.000855113
-0.000935343
-0.0010148
-0.00109276
-0.00116708
-0.00123616
-0.00129745
-0.00134832
-0.00138527
-0.00140471
-0.00140548
-0.00138503
-0.00134354
-0.00128007
-0.00119228
-0.00108163
-0.00095284
-0.000812681
-0.000673448
-0.000553493
-0.000475604
-0.000468289
-0.000565899
-0.000803997
-0.00122094
-0.00184232
-0.0026957
-0.00377328
-0.00507664
-0.00653512
-0.00811648
-0.00980184
-0.0115562
-0.0133482
-0.0150652
-0.0169969
-0.0184996
-0.00172844
-0.00173767
-0.0017507
-0.00176664
-0.00178526
-0.00180683
-0.00183122
-0.00185874
-0.00188939
-0.00192345
-0.00196115
-0.0020026
-0.00204815
-0.00209758
-0.00215152
-0.00220966
-0.00227255
-0.00233966
-0.00241168
-0.00248797
-0.00256873
-0.00265357
-0.00274233
-0.00283397
-0.0029285
-0.00302419
-0.00312048
-0.00321556
-0.00330782
-0.00339546
-0.00347518
-0.00354496
-0.0036009
-0.0036406
-0.00366389
-0.0036693
-0.00365632
-0.00362218
-0.00356776
-0.00349683
-0.00341455
-0.00333122
-0.00326275
-0.00322881
-0.00325435
-0.00336999
-0.00360776
-0.00400319
-0.00457991
-0.00536565
-0.00635386
-0.00755142
-0.00889235
-0.0103513
-0.011916
-0.0135584
-0.0152514
-0.0168845
-0.0187636
-0.0202508
-0.00370532
-0.00371418
-0.00372656
-0.00374181
-0.00375985
-0.00378103
-0.00380549
-0.00383362
-0.00386537
-0.00390111
-0.00394074
-0.00398463
-0.00403256
-0.00408505
-0.00414194
-0.00420384
-0.00427065
-0.00434277
-0.00442044
-0.00450367
-0.00459241
-0.00468664
-0.00478616
-0.00489009
-0.00499865
-0.00511018
-0.00522439
-0.00533957
-0.00545454
-0.00556727
-0.00567557
-0.0057764
-0.00586651
-0.00594505
-0.00600933
-0.00605945
-0.00609434
-0.00611078
-0.00610915
-0.00609232
-0.00606397
-0.00603259
-0.00601178
-0.00601833
-0.00607382
-0.00620539
-0.00644165
-0.00681542
-0.00734827
-0.00806789
-0.0089688
-0.0100627
-0.0112868
-0.0126239
-0.0140686
-0.0155991
-0.0171935
-0.0187427
-0.0205695
-0.0220422
-0.00572163
-0.00573219
-0.00574694
-0.00576487
-0.00578591
-0.00581012
-0.00583764
-0.00586852
-0.00590312
-0.00594138
-0.00598403
-0.00603077
-0.00608253
-0.00613864
-0.00620039
-0.00626712
-0.00633999
-0.00641824
-0.00650315
-0.006594
-0.00669146
-0.00679531
-0.00690574
-0.00702193
-0.00714436
-0.00727154
-0.00740332
-0.00753831
-0.00767526
-0.00781286
-0.00794816
-0.00807965
-0.00820361
-0.00831791
-0.00842227
-0.00851502
-0.00859555
-0.00866022
-0.00870886
-0.0087435
-0.00876635
-0.00878412
-0.00880828
-0.00885283
-0.00893618
-0.00908209
-0.00931591
-0.00966773
-0.010157
-0.0108111
-0.0116255
-0.0126163
-0.0137254
-0.0149416
-0.0162663
-0.0176845
-0.0191791
-0.0206437
-0.0224176
-0.0238757
-0.00788133
-0.00789079
-0.00790341
-0.00791874
-0.0079367
-0.0079579
-0.00798246
-0.00801111
-0.00804373
-0.00808107
-0.00812292
-0.00817003
-0.00822203
-0.00827982
-0.00834308
-0.00841282
-0.00848883
-0.00857183
-0.00866209
-0.00875991
-0.00886528
-0.00897858
-0.00909972
-0.00922815
-0.00936442
-0.00950713
-0.00965637
-0.00981081
-0.00996964
-0.0101312
-0.0102937
-0.0104545
-0.0106106
-0.0107612
-0.0109035
-0.0110374
-0.0111617
-0.0112723
-0.0113686
-0.0114518
-0.0115227
-0.0115864
-0.0116524
-0.0117319
-0.0118405
-0.0119987
-0.0122287
-0.0125579
-0.0130036
-0.013593
-0.014322
-0.015211
-0.0162046
-0.0172997
-0.0185046
-0.0198102
-0.0212051
-0.0225848
-0.0243059
-0.02575
-0.0100284
-0.0100397
-0.0100553
-0.0100743
-0.0100965
-0.0101221
-0.0101512
-0.0101841
-0.0102211
-0.0102624
-0.0103086
-0.0103598
-0.0104167
-0.010479
-0.0105478
-0.010623
-0.0107055
-0.0107949
-0.0108926
-0.0109982
-0.0111123
-0.0112353
-0.0113673
-0.011508
-0.011658
-0.0118162
-0.0119827
-0.0121566
-0.0123368
-0.0125225
-0.012711
-0.0129012
-0.0130895
-0.0132739
-0.0134538
-0.0136274
-0.0137939
-0.0139489
-0.0140911
-0.0142209
-0.0143378
-0.0144453
-0.0145508
-0.0146633
-0.0147952
-0.0149641
-0.0151891
-0.0154949
-0.0158966
-0.016421
-0.0170645
-0.0178516
-0.018731
-0.0197056
-0.0207903
-0.0219826
-0.0232764
-0.02457
-0.0262374
-0.0276668
-0.012299
-0.0123098
-0.0123247
-0.0123429
-0.0123643
-0.0123894
-0.0124185
-0.0124521
-0.0124902
-0.0125334
-0.0125817
-0.0126355
-0.0126949
-0.0127605
-0.0128325
-0.0129116
-0.0129982
-0.013093
-0.0131965
-0.0133093
-0.0134316
-0.0135642
-0.0137071
-0.01386
-0.0140239
-0.0141977
-0.0143817
-0.0145748
-0.0147767
-0.0149859
-0.015201
-0.0154197
-0.0156388
-0.015858
-0.016074
-0.0162864
-0.0164939
-0.0166915
-0.0168776
-0.0170517
-0.0172121
-0.0173607
-0.0175032
-0.017646
-0.0177989
-0.0179764
-0.0181948
-0.0184762
-0.0188335
-0.0192928
-0.0198516
-0.0205372
-0.0213009
-0.0221543
-0.0231186
-0.0241971
-0.0253894
-0.0265965
-0.0282101
-0.029625
-0.0145979
-0.0146106
-0.0146282
-0.0146493
-0.0146741
-0.0147026
-0.0147352
-0.0147718
-0.0148131
-0.014859
-0.0149106
-0.0149676
-0.0150313
-0.0151009
-0.0151782
-0.0152626
-0.0153558
-0.0154571
-0.0155685
-0.0156893
-0.0158209
-0.0159635
-0.0161177
-0.0162833
-0.0164614
-0.0166509
-0.0168525
-0.0170652
-0.0172885
-0.0175219
-0.0177627
-0.0180103
-0.0182609
-0.0185128
-0.0187649
-0.0190152
-0.0192627
-0.0195018
-0.0197305
-0.0199475
-0.0201499
-0.0203379
-0.0205155
-0.0206867
-0.0208588
-0.0210435
-0.0212539
-0.0215097
-0.0218214
-0.0222151
-0.0226882
-0.0232716
-0.0239207
-0.0246532
-0.0254965
-0.02646
-0.0275493
-0.0286684
-0.030227
-0.0316261
-0.0170402
-0.0170517
-0.0170669
-0.0170852
-0.0171065
-0.0171317
-0.017161
-0.0171952
-0.0172344
-0.0172794
-0.0173303
-0.0173879
-0.0174519
-0.0175235
-0.0176027
-0.0176906
-0.0177874
-0.017894
-0.0180113
-0.0181399
-0.01828
-0.0184328
-0.0185985
-0.018777
-0.0189697
-0.0191753
-0.0193948
-0.0196273
-0.0198726
-0.0201297
-0.0203972
-0.020673
-0.0209543
-0.0212403
-0.0215275
-0.0218151
-0.0221017
-0.0223812
-0.022651
-0.0229092
-0.0231514
-0.0233766
-0.023587
-0.0237845
-0.0239736
-0.0241633
-0.0243643
-0.024593
-0.0248585
-0.0251856
-0.0255737
-0.0260541
-0.0265864
-0.0271967
-0.0279185
-0.0287665
-0.0297522
-0.0307826
-0.0322863
-0.0336696
-0.0194561
-0.0194696
-0.0194882
-0.0195107
-0.0195369
-0.0195671
-0.0196015
-0.0196406
-0.0196848
-0.0197344
-0.0197902
-0.0198524
-0.019922
-0.0199987
-0.0200841
-0.020178
-0.0202821
-0.0203959
-0.0205214
-0.0206585
-0.0208084
-0.0209718
-0.0211494
-0.0213412
-0.0215486
-0.0217707
-0.0220085
-0.0222612
-0.0225286
-0.0228102
-0.0231037
-0.0234088
-0.0237214
-0.0240398
-0.0243626
-0.024687
-0.0250121
-0.0253312
-0.0256412
-0.0259394
-0.0262203
-0.0264813
-0.0267232
-0.0269452
-0.0271498
-0.0273429
-0.027533
-0.0277329
-0.0279512
-0.0282102
-0.028512
-0.0288884
-0.0293046
-0.0297931
-0.0303926
-0.0311234
-0.0320036
-0.0329436
-0.0343904
-0.035756
-0.0219943
-0.0220074
-0.0220253
-0.0220469
-0.0220725
-0.0221023
-0.0221369
-0.0221768
-0.0222225
-0.0222743
-0.0223326
-0.0223979
-0.0224706
-0.0225513
-0.0226404
-0.0227391
-0.022848
-0.022968
-0.0231004
-0.0232459
-0.0234051
-0.0235794
-0.0237693
-0.0239748
-0.0241976
-0.0244368
-0.0246933
-0.0249667
-0.0252569
-0.025563
-0.0258838
-0.0262175
-0.026561
-0.0269136
-0.027271
-0.0276321
-0.0279951
-0.0283529
-0.0287019
-0.0290389
-0.0293569
-0.029652
-0.0299233
-0.030168
-0.0303861
-0.0305809
-0.0307582
-0.030928
-0.0310977
-0.0312874
-0.0315029
-0.0317738
-0.0320712
-0.0324365
-0.0329128
-0.0335256
-0.0342995
-0.0351483
-0.0365381
-0.0378859
-0.0245533
-0.0245685
-0.0245893
-0.0246144
-0.0246437
-0.0246773
-0.0247157
-0.0247591
-0.0248084
-0.0248634
-0.0249256
-0.0249947
-0.0250723
-0.0251576
-0.025253
-0.0253579
-0.0254745
-0.0256023
-0.0257437
-0.0258987
-0.0260687
-0.0262547
-0.0264577
-0.0266776
-0.0269165
-0.0271734
-0.0274494
-0.0277441
-0.0280574
-0.0283891
-0.0287367
-0.0291004
-0.0294756
-0.0298609
-0.0302536
-0.030651
-0.0310516
-0.0314478
-0.0318353
-0.0322104
-0.0325645
-0.0328928
-0.0331922
-0.0334584
-0.0336885
-0.0338834
-0.0340464
-0.0341844
-0.034304
-0.0344226
-0.03455
-0.0347138
-0.0348934
-0.0351354
-0.0354872
-0.0359802
-0.0366455
-0.0374009
-0.0387315
-0.0400589
-0.0272554
-0.0272692
-0.0272875
-0.0273094
-0.0273349
-0.027365
-0.0274
-0.027441
-0.0274882
-0.0275426
-0.0276043
-0.0276746
-0.0277532
-0.0278415
-0.0279396
-0.0280493
-0.0281707
-0.0283055
-0.0284546
-0.0286191
-0.0287997
-0.028998
-0.0292146
-0.0294498
-0.0297055
-0.0299808
-0.030277
-0.0305937
-0.0309311
-0.0312883
-0.0316645
-0.0320575
-0.0324644
-0.0328839
-0.0333114
-0.0337451
-0.034183
-0.0346168
-0.0350422
-0.0354543
-0.0358436
-0.0362035
-0.0365298
-0.0368156
-0.0370562
-0.0372494
-0.0373965
-0.037501
-0.0375691
-0.037615
-0.0376535
-0.0377077
-0.0377666
-0.0378836
-0.0381098
-0.0384817
-0.0390375
-0.0396986
-0.0409696
-0.0422766
-0.0299169
-0.029933
-0.0299552
-0.0299819
-0.0300131
-0.030049
-0.0300901
-0.0301369
-0.0301901
-0.0302501
-0.030318
-0.0303941
-0.0304795
-0.0305743
-0.0306803
-0.0307977
-0.0309281
-0.0310719
-0.0312312
-0.0314065
-0.031599
-0.0318103
-0.0320412
-0.0322923
-0.0325653
-0.0328597
-0.0331768
-0.0335164
-0.0338781
-0.0342623
-0.0346663
-0.0350903
-0.0355294
-0.0359822
-0.0364452
-0.036915
-0.0373902
-0.0378617
-0.0383247
-0.0387737
-0.0391976
-0.0395886
-0.0399407
-0.0402452
-0.0404948
-0.040685
-0.0408145
-0.0408838
-0.0408985
-0.0408698
-0.040817
-0.0407609
-0.0406992
-0.0406905
-0.0407893
-0.0410377
-0.0414815
-0.0420453
-0.043254
-0.0445372
-0.0327018
-0.0327174
-0.0327388
-0.0327648
-0.0327955
-0.0328315
-0.0328732
-0.0329217
-0.0329771
-0.0330404
-0.0331119
-0.0331925
-0.0332824
-0.0333829
-0.0334942
-0.0336182
-0.0337555
-0.0339077
-0.0340762
-0.0342623
-0.0344667
-0.0346916
-0.0349375
-0.0352051
-0.0354964
-0.0358107
-0.0361495
-0.0365125
-0.0368998
-0.0373109
-0.0377447
-0.038199
-0.0386706
-0.0391582
-0.0396561
-0.0401623
-0.0406746
-0.0411838
-0.0416841
-0.0421693
-0.0426271
-0.0430482
-0.043425
-0.0437468
-0.044004
-0.0441896
-0.0442998
-0.0443322
-0.0442918
-0.0441867
-0.0440414
-0.0438714
-0.0436863
-0.0435498
-0.0435194
-0.0436426
-0.043973
-0.0444386
-0.0455845
-0.0468437
-0.0355044
-0.0355223
-0.0355472
-0.0355771
-0.0356123
-0.0356527
-0.0356992
-0.035752
-0.0358121
-0.0358797
-0.0359565
-0.0360422
-0.0361387
-0.0362455
-0.0363651
-0.0364973
-0.0366446
-0.0368068
-0.0369868
-0.037185
-0.0374028
-0.0376422
-0.0379042
-0.0381891
-0.0384995
-0.0388346
-0.0391959
-0.0395833
-0.0399967
-0.0404363
-0.0408991
-0.0413856
-0.0418904
-0.0424116
-0.0429455
-0.0434882
-0.0440381
-0.0445852
-0.0451231
-0.0456446
-0.0461362
-0.0465868
-0.0469878
-0.0473259
-0.0475896
-0.047769
-0.0478585
-0.0478521
-0.0477549
-0.0475709
-0.0473307
-0.047046
-0.0467372
-0.0464712
-0.0463091
-0.0463044
-0.0465183
-0.0468821
-0.0479618
-0.0491931
-0.0384595
-0.0384758
-0.0384979
-0.0385247
-0.038556
-0.0385931
-0.0386363
-0.0386871
-0.0387458
-0.0388137
-0.0388909
-0.0389791
-0.0390779
-0.0391894
-0.0393133
-0.0394523
-0.0396065
-0.0397779
-0.0399679
-0.0401782
-0.0404093
-0.0406638
-0.0409423
-0.0412455
-0.0415758
-0.0419325
-0.0423174
-0.04273
-0.0431707
-0.0436387
-0.0441326
-0.0446506
-0.0451888
-0.0457457
-0.0463151
-0.0468948
-0.0474828
-0.0480679
-0.0486433
-0.0492009
-0.0497256
-0.0502052
-0.0506292
-0.0509826
-0.0512515
-0.0514233
-0.0514903
-0.0514433
-0.0512873
-0.0510227
-0.0506855
-0.050282
-0.0498462
-0.0494479
-0.0491517
-0.0490169
-0.0491127
-0.0493736
-0.0503865
-0.0515896
-0.0413696
-0.0413887
-0.0414155
-0.041448
-0.041486
-0.0415302
-0.0415808
-0.0416389
-0.041705
-0.0417799
-0.0418648
-0.0419603
-0.0420678
-0.0421873
-0.0423209
-0.0424694
-0.0426345
-0.042817
-0.0430194
-0.0432427
-0.0434882
-0.0437584
-0.0440542
-0.0443762
-0.0447272
-0.0451064
-0.0455156
-0.0459544
-0.0464228
-0.0469208
-0.0474454
-0.0479968
-0.0485693
-0.0491609
-0.0497674
-0.0503848
-0.0510113
-0.051635
-0.0522482
-0.0528421
-0.0534
-0.0539082
-0.0543548
-0.0547228
-0.0549957
-0.0551586
-0.0552014
-0.0551122
-0.054895
-0.0545478
-0.0541107
-0.0535882
-0.053024
-0.0524908
-0.052057
-0.0517887
-0.0517626
-0.0519163
-0.0528582
-0.0540288
-0.0444219
-0.0444406
-0.0444668
-0.0444989
-0.0445367
-0.0445811
-0.0446328
-0.0446928
-0.0447617
-0.0448404
-0.0449296
-0.0450303
-0.0451429
-0.0452689
-0.0454088
-0.0455651
-0.0457383
-0.0459308
-0.0461441
-0.0463803
-0.0466402
-0.0469267
-0.0472405
-0.0475823
-0.0479551
-0.0483578
-0.0487924
-0.0492583
-0.0497557
-0.0502839
-0.0508412
-0.0514256
-0.052033
-0.052662
-0.0533053
-0.0539611
-0.0546265
-0.0552889
-0.0559399
-0.0565697
-0.0571603
-0.0576966
-0.058165
-0.0585465
-0.0588222
-0.0589748
-0.0589916
-0.0588582
-0.0585778
-0.0581459
-0.0576065
-0.0569605
-0.056264
-0.0555921
-0.0550177
-0.0546134
-0.0544635
-0.0545086
-0.0553786
-0.0565162
-0.0475075
-0.0475286
-0.0475578
-0.047593
-0.0476345
-0.0476823
-0.0477377
-0.047801
-0.0478738
-0.0479561
-0.0480501
-0.0481557
-0.048275
-0.0484077
-0.0485567
-0.0487221
-0.0489068
-0.049111
-0.0493381
-0.049589
-0.0498652
-0.0501695
-0.0505028
-0.0508658
-0.0512615
-0.051689
-0.05215
-0.0526443
-0.0531714
-0.0537315
-0.0543214
-0.0549411
-0.0555849
-0.0562499
-0.056932
-0.0576265
-0.0583313
-0.0590329
-0.059722
-0.060388
-0.0610114
-0.0615757
-0.0620656
-0.06246
-0.0627374
-0.0628784
-0.0628675
-0.0626881
-0.0623421
-0.0618232
-0.0611784
-0.0604086
-0.0595775
-0.0587633
-0.0580442
-0.0574998
-0.0572215
-0.057153
-0.0579465
-0.0590463
-0.0507802
-0.050796
-0.050818
-0.0508449
-0.050877
-0.0509162
-0.0509633
-0.0510206
-0.0510881
-0.051168
-0.0512604
-0.0513675
-0.0514887
-0.0516265
-0.0517808
-0.0519549
-0.0521489
-0.0523654
-0.0526059
-0.0528727
-0.0531661
-0.0534897
-0.0538439
-0.0542296
-0.0546496
-0.0551031
-0.0555918
-0.0561153
-0.0566737
-0.0572661
-0.0578907
-0.0585454
-0.0592255
-0.0599296
-0.0606498
-0.0613838
-0.0621285
-0.0628693
-0.0635965
-0.0642985
-0.0649544
-0.0655462
-0.0660569
-0.0664632
-0.0667414
-0.0668691
-0.0668287
-0.0666011
-0.0661872
-0.0655789
-0.064826
-0.063927
-0.0629565
-0.0619958
-0.0611285
-0.0604411
-0.0600323
-0.0598484
-0.0605643
-0.0616257
-0.0537199
-0.0537472
-0.0537888
-0.0538402
-0.0539009
-0.0539693
-0.0540466
-0.054132
-0.0542273
-0.0543321
-0.054449
-0.0545776
-0.0547204
-0.0548774
-0.0550516
-0.0552437
-0.0554565
-0.0556908
-0.0559499
-0.0562354
-0.0565487
-0.0568931
-0.0572694
-0.0576786
-0.0581239
-0.0586042
-0.0591214
-0.0596751
-0.060265
-0.0608912
-0.0615499
-0.0622416
-0.0629594
-0.063701
-0.0644613
-0.0652353
-0.0660205
-0.0668013
-0.067567
-0.0683056
-0.0689944
-0.0696137
-0.0701451
-0.0705629
-0.0708407
-0.0709539
-0.0708822
-0.0706044
-0.0701198
-0.0694196
-0.0685549
-0.0675261
-0.0664133
-0.0653018
-0.0642817
-0.0634463
-0.0629016
-0.0625967
-0.0632298
-0.0642476
-0.0573125
-0.057328
-0.0573503
-0.0573784
-0.057413
-0.0574564
-0.0575093
-0.0575745
-0.0576517
-0.0577436
-0.0578499
-0.0579732
-0.0581126
-0.0582709
-0.0584478
-0.058647
-0.0588684
-0.0591149
-0.0593878
-0.05969
-0.0600215
-0.0603863
-0.0607846
-0.0612177
-0.0616885
-0.0621959
-0.062742
-0.0633262
-0.0639484
-0.064608
-0.0653029
-0.0660307
-0.0667865
-0.0675687
-0.0683687
-0.0691836
-0.0700098
-0.0708308
-0.0716354
-0.0724105
-0.0731321
-0.0737787
-0.0743303
-0.0747588
-0.0750352
-0.0751322
-0.0750273
-0.0746966
-0.0741389
-0.0733435
-0.0723641
-0.0711995
-0.0699388
-0.068672
-0.0674952
-0.0665087
-0.0658256
-0.0653976
-0.0659463
-0.0669199
-0.0604804
-0.0605084
-0.0605512
-0.0606043
-0.0606672
-0.0607387
-0.06082
-0.0609107
-0.0610125
-0.0611255
-0.0612524
-0.0613929
-0.0615499
-0.0617235
-0.0619167
-0.0621308
-0.0623683
-0.0626304
-0.0629203
-0.0632398
-0.0635901
-0.0639749
-0.0643951
-0.0648514
-0.0653473
-0.0658816
-0.0664563
-0.0670711
-0.0677255
-0.0684197
-0.0691497
-0.0699159
-0.070711
-0.0715322
-0.0723739
-0.0732304
-0.0740985
-0.0749607
-0.0758051
-0.0766177
-0.0773726
-0.078047
-0.0786189
-0.0790577
-0.0793319
-0.0794115
-0.0792713
-0.0788855
-0.0782515
-0.0773578
-0.0762595
-0.0749577
-0.0735458
-0.0721188
-0.0707804
-0.069637
-0.0688094
-0.068252
-0.0687109
-0.0696349
-0.064291
-0.0643073
-0.0643302
-0.0643596
-0.0643959
-0.064442
-0.0644985
-0.0645686
-0.0646521
-0.0647518
-0.0648675
-0.0650021
-0.0651547
-0.0653282
-0.0655225
-0.0657416
-0.0659856
-0.0662576
-0.0665592
-0.0668932
-0.0672599
-0.0676633
-0.068104
-0.0685827
-0.0691031
-0.0696637
-0.0702668
-0.0709119
-0.071599
-0.0723272
-0.0730943
-0.0738978
-0.0747323
-0.0755956
-0.0764787
-0.0773777
-0.0782887
-0.0791929
-0.0800776
-0.080928
-0.0817167
-0.0824189
-0.0830107
-0.0834592
-0.08373
-0.0837905
-0.083613
-0.0831692
-0.0824559
-0.0814601
-0.0802392
-0.0787933
-0.0772241
-0.0756323
-0.0741281
-0.0728246
-0.0718497
-0.0711606
-0.0715278
-0.0724014
-0.0676381
-0.0676688
-0.0677154
-0.0677737
-0.0678426
-0.067921
-0.0680099
-0.0681091
-0.0682202
-0.0683435
-0.0684816
-0.0686346
-0.0688054
-0.0689942
-0.0692044
-0.0694374
-0.0696963
-0.0699821
-0.0702988
-0.0706481
-0.0710316
-0.071453
-0.0719135
-0.0724138
-0.0729578
-0.0735442
-0.0741753
-0.0748507
-0.0755699
-0.0763332
-0.0771362
-0.0779792
-0.0788541
-0.0797582
-0.0806848
-0.0816274
-0.0825824
-0.0835299
-0.0844564
-0.085346
-0.0861695
-0.0869002
-0.0875124
-0.0879705
-0.0882372
-0.0882771
-0.08806
-0.0875556
-0.0867593
-0.0856577
-0.0843094
-0.0827175
-0.0809872
-0.0792256
-0.07755
-0.0760799
-0.0749508
-0.0741232
-0.0743929
-0.0752107
-0.0716385
-0.071662
-0.0716932
-0.0717324
-0.0717793
-0.0718364
-0.0719043
-0.0719857
-0.0720808
-0.0721919
-0.0723195
-0.0724662
-0.0726317
-0.072819
-0.0730287
-0.0732648
-0.0735281
-0.0738216
-0.0741479
-0.0745094
-0.0749071
-0.075345
-0.0758242
-0.0763453
-0.0769125
-0.0775241
-0.0781829
-0.0788883
-0.0796402
-0.0804379
-0.0812787
-0.08216
-0.0830759
-0.0840239
-0.0849939
-0.0859814
-0.0869817
-0.0879736
-0.0889428
-0.0898725
-0.0907313
-0.0914908
-0.0921233
-0.0925904
-0.092852
-0.0928696
-0.0926107
-0.0920423
-0.0911597
-0.0899478
-0.0884679
-0.0867222
-0.0848243
-0.0828881
-0.0810369
-0.0793967
-0.0781102
-0.0771413
-0.0773116
-0.0780725
-0.0754653
-0.0754937
-0.0755315
-0.0755778
-0.0756314
-0.0756945
-0.0757676
-0.0758533
-0.0759525
-0.0760674
-0.0761999
-0.0763512
-0.0765234
-0.0767174
-0.0769359
-0.0771808
-0.0774548
-0.077759
-0.0780976
-0.0784722
-0.0788848
-0.079339
-0.0798365
-0.0803778
-0.0809676
-0.0816042
-0.0822904
-0.0830259
-0.08381
-0.0846434
-0.0855209
-0.0864432
-0.0874011
-0.0883919
-0.0894078
-0.0904414
-0.0914885
-0.0925267
-0.0935404
-0.0945118
-0.0954075
-0.0961971
-0.0968505
-0.0973267
-0.0975823
-0.0975762
-0.097273
-0.0966377
-0.0956644
-0.0943379
-0.0927208
-0.0908191
-0.0887495
-0.0866333
-0.0846003
-0.0827829
-0.0813315
-0.0802143
-0.0802789
-0.0809775
-0.0793866
-0.0794195
-0.079463
-0.0795152
-0.079576
-0.0796467
-0.0797283
-0.0798228
-0.0799307
-0.0800541
-0.0801939
-0.0803528
-0.080531
-0.0807314
-0.0809553
-0.081207
-0.0814879
-0.081801
-0.0821497
-0.0825365
-0.0829629
-0.0834332
-0.0839489
-0.0845104
-0.0851228
-0.0857844
-0.0864982
-0.0872638
-0.0880812
-0.0889497
-0.0898663
-0.0908285
-0.0918293
-0.092866
-0.0939279
-0.0950093
-0.0961048
-0.0971907
-0.0982504
-0.0992648
-0.100198
-0.101018
-0.101693
-0.102178
-0.102426
-0.102395
-0.102045
-0.101339
-0.100271
-0.0988249
-0.0970658
-0.0949992
-0.0927511
-0.09045
-0.088231
-0.0862324
-0.0846128
-0.0833443
-0.0833013
-0.0839361
-0.0833657
-0.0834025
-0.0834508
-0.0835089
-0.0835756
-0.0836526
-0.0837407
-0.0838419
-0.0839574
-0.0840889
-0.0842386
-0.0844072
-0.0845973
-0.0848093
-0.0850467
-0.085311
-0.085606