/*--------------------------------*- C++ -*----------------------------------*\
  =========                 |
  \\      /  F ield         | OpenFOAM: The Open Source CFD Toolbox
   \\    /   O peration     | Website:  https://openfoam.org
    \\  /    A nd           | Version:  6.0
     \\/     M anipulation  |
\*---------------------------------------------------------------------------*/
FoamFile
{
    version     2.0;
    format      ascii;
    class       surfaceScalarField;
    location    "2.88";
    object      phi;
}
// * * * * * * * * * * * * * * * * * * * * * * * * * * * * * * * * * * * * * //

dimensions      [0 3 -1 0 0 0 0];

internalField   nonuniform List<scalar> 
26699
(
2.0051e-05
0.005201
5.2124e-10
4.0126e-05
0.0051116
5.9639e-05
0.0049351
7.8186e-05
0.0046741
9.5416e-05
0.0043332
0.00011102
0.0039182
0.00012471
0.0034362
0.00013626
0.0028953
0.00014546
0.002305
0.00015181
0.0016755
0.00015717
0.0010154
0.000465
3.4375e-05
2.0051e-05
0.0051809
1.6166e-09
4.0127e-05
0.0050916
5.9641e-05
0.0049155
7.819e-05
0.0046556
9.5418e-05
0.004316
0.00011102
0.0039026
0.00012471
0.0034225
0.00013625
0.0028838
0.00014545
0.0022958
0.00015106
0.0016699
0.0001589
0.0010076
0.00055895
6.4946e-05
2.0051e-05
0.0051609
2.7826e-09
4.0128e-05
0.0050715
5.9643e-05
0.004896
7.8193e-05
0.004637
9.5421e-05
0.0042988
0.00011102
0.003887
0.00012471
0.0034088
0.00013622
0.0028723
0.00014546
0.0022865
0.0001503
0.001665
0.00016016
0.00099771
0.00062902
9.0087e-05
2.0051e-05
0.0051408
3.9605e-09
4.013e-05
0.0050514
5.9646e-05
0.0048765
7.8196e-05
0.0046185
9.5424e-05
0.0042815
0.00011103
0.0038714
0.0001247
0.0033951
0.0001362
0.0028608
0.0001455
0.0022772
0.00014956
0.001661
0.00016088
0.00098638
0.00067961
0.00011029
2.0051e-05
0.0051208
5.1404e-09
4.0131e-05
0.0050313
5.9648e-05
0.004857
7.8199e-05
0.0045999
9.5428e-05
0.0042643
0.00011103
0.0038558
0.0001247
0.0033815
0.00013617
0.0028493
0.00014557
0.0022678
0.00014886
0.0016577
0.00016109
0.00097416
0.00071436
0.00012634
2.0051e-05
0.0051007
6.3222e-09
4.0132e-05
0.0050112
5.965e-05
0.0048375
7.8202e-05
0.0045814
9.5431e-05
0.0042471
0.00011103
0.0038402
0.0001247
0.0033678
0.00013614
0.0028379
0.00014566
0.0022583
0.00014824
0.0016551
0.00016084
0.00096156
0.0007363
0.0001389
2.0052e-05
0.0050807
7.506e-09
4.0133e-05
0.0049912
5.9653e-05
0.004818
7.8205e-05
0.0045628
9.5434e-05
0.0042299
0.00011103
0.0038246
0.0001247
0.0033541
0.00013611
0.0028265
0.00014577
0.0022486
0.0001477
0.0016532
0.00016022
0.00094904
0.00074799
0.00014853
2.0052e-05
0.0050606
8.6916e-09
4.0135e-05
0.0049711
5.9655e-05
0.0047984
7.8208e-05
0.0045443
9.5438e-05
0.0042126
0.00011103
0.003809
0.0001247
0.0033404
0.00013607
0.0028151
0.0001459
0.0022388
0.00014726
0.0016518
0.00015934
0.00093696
0.00075161
0.00015573
2.0052e-05
0.0050405
9.8792e-09
4.0136e-05
0.004951
5.9658e-05
0.0047789
7.8211e-05
0.0045257
9.5441e-05
0.0041954
0.00011103
0.0037934
0.0001247
0.0033268
0.00013603
0.0028037
0.00014603
0.0022288
0.00014693
0.0016509
0.00015828
0.00092561
0.00074896
0.00016093
2.0052e-05
0.0050205
1.1069e-08
4.0137e-05
0.0049309
5.966e-05
0.0047594
7.8214e-05
0.0045072
9.5444e-05
0.0041782
0.00011104
0.0037778
0.0001247
0.0033131
0.00013599
0.0027925
0.00014617
0.0022186
0.00014671
0.0016504
0.00015711
0.00091521
0.00074155
0.00016451
2.0052e-05
0.0050004
1.2261e-08
4.0138e-05
0.0049108
5.9662e-05
0.0047399
7.8217e-05
0.0044886
9.5448e-05
0.0041609
0.00011104
0.0037622
0.00012471
0.0032994
0.00013594
0.0027812
0.00014631
0.0022083
0.0001466
0.0016501
0.0001559
0.00090591
0.00073065
0.0001668
2.0052e-05
0.0049803
1.3454e-08
4.014e-05
0.0048907
5.9665e-05
0.0047203
7.822e-05
0.00447
9.5451e-05
0.0041437
0.00011104
0.0037466
0.00012471
0.0032858
0.00013588
0.0027701
0.00014644
0.0021977
0.00014658
0.00165
0.0001547
0.00089779
0.00071728
0.00016807
2.0052e-05
0.0049603
1.465e-08
4.0141e-05
0.0048707
5.9667e-05
0.0047008
7.8223e-05
0.0044515
9.5455e-05
0.0041265
0.00011104
0.0037311
0.00012472
0.0032721
0.00013582
0.002759
0.00014657
0.002187
0.00014667
0.0016499
0.00015356
0.0008909
0.00070228
0.00016856
2.0052e-05
0.0049402
1.5849e-08
4.0142e-05
0.0048506
5.967e-05
0.0046813
7.8226e-05
0.0044329
9.5459e-05
0.0041092
0.00011104
0.0037155
0.00012473
0.0032584
0.00013576
0.0027479
0.00014669
0.002176
0.00014684
0.0016497
0.00015251
0.00088523
0.00068631
0.00016847
2.0052e-05
0.0049201
1.7049e-08
4.0144e-05
0.0048305
5.9672e-05
0.0046618
7.823e-05
0.0044144
9.5462e-05
0.004092
0.00011105
0.0036999
0.00012474
0.0032447
0.0001357
0.002737
0.0001468
0.0021649
0.00014708
0.0016494
0.00015156
0.00088075
0.00066991
0.00016796
2.0052e-05
0.0049001
1.8252e-08
4.0145e-05
0.0048104
5.9675e-05
0.0046422
7.8233e-05
0.0043958
9.5466e-05
0.0040748
0.00011105
0.0036843
0.00012475
0.003231
0.00013563
0.0027261
0.00014689
0.0021537
0.0001474
0.0016489
0.00015075
0.0008774
0.00065351
0.00016716
2.0052e-05
0.00488
1.9457e-08
4.0146e-05
0.0047903
5.9677e-05
0.0046227
7.8236e-05
0.0043773
9.547e-05
0.0040575
0.00011105
0.0036687
0.00012476
0.0032173
0.00013557
0.0027153
0.00014697
0.0021423
0.00014776
0.0016481
0.00015007
0.00087509
0.0006374
0.00016617
2.0052e-05
0.0048599
2.0665e-08
4.0147e-05
0.0047702
5.9679e-05
0.0046032
7.8239e-05
0.0043587
9.5474e-05
0.0040403
0.00011105
0.0036532
0.00012478
0.0032036
0.0001355
0.0027046
0.00014703
0.0021307
0.00014817
0.001647
0.00014953
0.00087372
0.00062185
0.00016509
2.0052e-05
0.0048399
2.1875e-08
4.0149e-05
0.0047501
5.9682e-05
0.0045836
7.8242e-05
0.0043401
9.5478e-05
0.0040231
0.00011105
0.0036376
0.0001248
0.0031898
0.00013543
0.0026939
0.00014707
0.0021191
0.00014861
0.0016454
0.00014913
0.0008732
0.000607
0.00016398
2.0052e-05
0.0048198
2.3087e-08
4.015e-05
0.00473
5.9684e-05
0.0045641
7.8246e-05
0.0043216
9.5482e-05
0.0040058
0.00011105
0.003622
0.00012482
0.0031761
0.00013536
0.0026834
0.00014709
0.0021074
0.00014907
0.0016435
0.00014886
0.00087341
0.00059298
0.00016288
2.0052e-05
0.0047997
2.4302e-08
4.0151e-05
0.0047099
5.9687e-05
0.0045446
7.8249e-05
0.004303
9.5486e-05
0.0039886
0.00011105
0.0036064
0.00012484
0.0031623
0.00013529
0.0026729
0.00014709
0.0020956
0.00014954
0.001641
0.00014872
0.00087424
0.00057984
0.00016185
2.0052e-05
0.0047796
2.552e-08
4.0153e-05
0.0046898
5.9689e-05
0.004525
7.8252e-05
0.0042845
9.549e-05
0.0039714
0.00011105
0.0035909
0.00012486
0.0031485
0.00013523
0.0026626
0.00014707
0.0020837
0.00015002
0.0016381
0.00014868
0.00087558
0.00056763
0.00016089
2.0053e-05
0.0047595
2.6741e-08
4.0154e-05
0.0046697
5.9692e-05
0.0045055
7.8255e-05
0.0042659
9.5495e-05
0.0039541
0.00011105
0.0035753
0.00012489
0.0031346
0.00013517
0.0026523
0.00014703
0.0020719
0.00015049
0.0016346
0.00014875
0.00087732
0.00055634
0.00016004
2.0053e-05
0.0047395
2.7964e-08
4.0155e-05
0.0046496
5.9694e-05
0.004486
7.8259e-05
0.0042473
9.5499e-05
0.0039369
0.00011105
0.0035598
0.00012491
0.0031208
0.00013511
0.0026421
0.00014698
0.00206
0.00015095
0.0016306
0.00014891
0.00087935
0.00054595
0.0001593
2.0053e-05
0.0047194
2.919e-08
4.0156e-05
0.0046295
5.9697e-05
0.0044664
7.8262e-05
0.0042288
9.5504e-05
0.0039196
0.00011105
0.0035442
0.00012494
0.0031069
0.00013505
0.002632
0.0001469
0.0020482
0.00015139
0.0016261
0.00014915
0.00088159
0.00053643
0.00015868
2.0053e-05
0.0046993
3.042e-08
4.0158e-05
0.0046094
5.9699e-05
0.0044469
7.8265e-05
0.0042102
9.5508e-05
0.0039024
0.00011105
0.0035287
0.00012497
0.003093
0.000135
0.0026219
0.00014681
0.0020363
0.00015181
0.0016211
0.00014946
0.00088395
0.00052772
0.00015816
2.0053e-05
0.0046792
3.1652e-08
4.0159e-05
0.0045893
5.9702e-05
0.0044273
7.8269e-05
0.0041916
9.5513e-05
0.0038851
0.00011105
0.0035131
0.000125
0.003079
0.00013496
0.002612
0.00014671
0.0020246
0.0001522
0.0016157
0.00014981
0.00088633
0.00051977
0.00015776
2.0053e-05
0.0046591
3.2887e-08
4.016e-05
0.0045692
5.9704e-05
0.0044078
7.8272e-05
0.0041731
9.5518e-05
0.0038679
0.00011105
0.0034976
0.00012503
0.0030651
0.00013492
0.0026021
0.00014659
0.0020129
0.00015256
0.0016097
0.00015021
0.00088868
0.00051252
0.00015747
2.0053e-05
0.004639
3.4125e-08
4.0162e-05
0.0045491
5.9707e-05
0.0043882
7.8275e-05
0.0041545
9.5523e-05
0.0038507
0.00011105
0.0034821
0.00012506
0.003051
0.00013489
0.0025923
0.00014646
0.0020013
0.00015289
0.0016033
0.00015064
0.00089093
0.0005059
0.00015726
2.0053e-05
0.004619
3.5366e-08
4.0163e-05
0.0045289
5.9709e-05
0.0043687
7.8279e-05
0.0041359
9.5528e-05
0.0038334
0.00011105
0.0034666
0.0001251
0.003037
0.00013486
0.0025825
0.00014632
0.0019899
0.00015318
0.0015964
0.00015109
0.00089302
0.00049984
0.00015715
2.0053e-05
0.0045989
3.6611e-08
4.0164e-05
0.0045088
5.9712e-05
0.0043491
7.8282e-05
0.0041173
9.5534e-05
0.0038162
0.00011104
0.003451
0.00012513
0.0030229
0.00013484
0.0025728
0.00014617
0.0019785
0.00015344
0.0015891
0.00015155
0.00089491
0.00049429
0.0001571
2.0053e-05
0.0045788
3.7859e-08
4.0165e-05
0.0044887
5.9714e-05
0.0043296
7.8286e-05
0.0040988
9.5539e-05
0.0037989
0.00011104
0.0034355
0.00012516
0.0030088
0.00013483
0.0025631
0.00014602
0.0019674
0.00015366
0.0015815
0.00015202
0.00089655
0.00048918
0.00015713
2.0053e-05
0.0045587
3.911e-08
4.0167e-05
0.0044686
5.9717e-05
0.0043101
7.8289e-05
0.0040802
9.5545e-05
0.0037816
0.00011104
0.00342
0.0001252
0.0029946
0.00013483
0.0025535
0.00014586
0.0019563
0.00015385
0.0015735
0.00015248
0.00089793
0.00048445
0.0001572
2.0053e-05
0.0045386
4.0365e-08
4.0168e-05
0.0044485
5.9719e-05
0.0042905
7.8293e-05
0.0040616
9.5551e-05
0.0037644
0.00011103
0.0034046
0.00012523
0.0029804
0.00013484
0.0025439
0.0001457
0.0019455
0.000154
0.0015652
0.00015293
0.000899
0.00048005
0.00015732
2.0053e-05
0.0045185
4.1623e-08
4.0169e-05
0.0044284
5.9722e-05
0.0042709
7.8296e-05
0.0040431
9.5557e-05
0.0037471
0.00011103
0.0033891
0.00012526
0.0029662
0.00013485
0.0025343
0.00014553
0.0019348
0.00015411
0.0015566
0.00015336
0.00089975
0.00047593
0.00015748
2.0053e-05
0.0044984
4.2885e-08
4.0171e-05
0.0044083
5.9725e-05
0.0042514
7.83e-05
0.0040245
9.5563e-05
0.0037299
0.00011103
0.0033736
0.00012529
0.0029519
0.00013487
0.0025247
0.00014537
0.0019243
0.0001542
0.0015478
0.00015377
0.00090017
0.00047204
0.00015766
2.0053e-05
0.0044783
4.415e-08
4.0172e-05
0.0043881
5.9727e-05
0.0042318
7.8303e-05
0.0040059
9.5569e-05
0.0037126
0.00011102
0.0033582
0.00012532
0.0029376
0.0001349
0.0025151
0.00014521
0.001914
0.00015425
0.0015387
0.00015417
0.00090026
0.00046835
0.00015786
2.0053e-05
0.0044582
4.5419e-08
4.0173e-05
0.004368
5.973e-05
0.0042123
7.8307e-05
0.0039873
9.5576e-05
0.0036953
0.00011102
0.0033427
0.00012535
0.0029233
0.00013494
0.0025055
0.00014505
0.0019039
0.00015427
0.0015295
0.00015453
0.0009
0.0004648
0.00015808
2.0053e-05
0.0044381
4.6692e-08
4.0175e-05
0.0043479
5.9732e-05
0.0041927
7.831e-05
0.0039688
9.5583e-05
0.0036781
0.00011101
0.0033273
0.00012538
0.0029089
0.00013499
0.0024959
0.0001449
0.001894
0.00015427
0.0015201
0.00015487
0.0008994
0.00046138
0.0001583
2.0053e-05
0.004418
4.7969e-08
4.0176e-05
0.0043278
5.9735e-05
0.0041732
7.8314e-05
0.0039502
9.559e-05
0.0036608
0.00011101
0.0033119
0.00012541
0.0028945
0.00013504
0.0024863
0.00014475
0.0018843
0.00015425
0.0015106
0.00015518
0.00089846
0.00045804
0.00015852
2.0053e-05
0.0043979
4.9251e-08
4.0178e-05
0.0043077
5.9738e-05
0.0041536
7.8317e-05
0.0039316
9.5597e-05
0.0036435
0.000111
0.0032965
0.00012544
0.0028801
0.00013511
0.0024766
0.00014462
0.0018748
0.0001542
0.0015011
0.00015546
0.0008972
0.00045477
0.00015873
2.0053e-05
0.0043778
5.0536e-08
4.0179e-05
0.0042875
5.974e-05
0.004134
7.8321e-05
0.003913
9.5604e-05
0.0036262
0.000111
0.0032811
0.00012546
0.0028656
0.00013517
0.0024669
0.00014449
0.0018655
0.00015413
0.0014914
0.00015572
0.00089561
0.00045155
0.00015894
2.0053e-05
0.0043577
5.1825e-08
4.018e-05
0.0042674
5.9743e-05
0.0041145
7.8325e-05
0.0038944
9.5612e-05
0.0036089
0.000111
0.0032657
0.00012548
0.0028512
0.00013525
0.0024571
0.00014437
0.0018563
0.00015405
0.0014817
0.00015594
0.00089372
0.00044835
0.00015914
2.0053e-05
0.0043376
5.3119e-08
4.0182e-05
0.0042473
5.9746e-05
0.0040949
7.8328e-05
0.0038758
9.5619e-05
0.0035916
0.00011099
0.0032503
0.0001255
0.0028366
0.00013533
0.0024473
0.00014427
0.0018474
0.00015396
0.001472
0.00015614
0.00089154
0.00044516
0.00015933
2.0054e-05
0.0043175
5.4417e-08
4.0183e-05
0.0042271
5.9749e-05
0.0040754
7.8332e-05
0.0038573
9.5627e-05
0.0035743
0.00011099
0.003235
0.00012552
0.0028221
0.00013541
0.0024374
0.00014417
0.0018386
0.00015385
0.0014624
0.00015631
0.00088908
0.00044196
0.00015951
2.0054e-05
0.0042974
5.5719e-08
4.0184e-05
0.004207
5.9751e-05
0.0040558
7.8336e-05
0.0038387
9.5635e-05
0.003557
0.00011098
0.0032196
0.00012553
0.0028076
0.0001355
0.0024275
0.00014409
0.00183
0.00015374
0.0014527
0.00015646
0.00088636
0.00043875
0.00015967
2.0054e-05
0.0042773
5.7027e-08
4.0186e-05
0.0041869
5.9754e-05
0.0040362
7.8339e-05
0.0038201
9.5643e-05
0.0035397
0.00011098
0.0032043
0.00012554
0.002793
0.00013559
0.0024174
0.00014402
0.0018216
0.00015362
0.0014431
0.00015659
0.00088339
0.00043552
0.00015982
2.0054e-05
0.0042571
5.8338e-08
4.0187e-05
0.0041667
5.9757e-05
0.0040166
7.8343e-05
0.0038015
9.5652e-05
0.0035224
0.00011098
0.0031889
0.00012555
0.0027784
0.00013569
0.0024073
0.00014396
0.0018133
0.0001535
0.0014336
0.00015669
0.0008802
0.00043227
0.00015995
2.0054e-05
0.004237
5.9655e-08
4.0189e-05
0.0041466
5.976e-05
0.0039971
7.8347e-05
0.0037829
9.566e-05
0.0035051
0.00011097
0.0031736
0.00012556
0.0027638
0.00013579
0.0023971
0.00014392
0.0018052
0.00015338
0.0014241
0.00015678
0.00087679
0.00042897
0.00016007
2.0054e-05
0.0042169
6.0977e-08
4.019e-05
0.0041265
5.9763e-05
0.0039775
7.8351e-05
0.0037643
9.5669e-05
0.0034878
0.00011097
0.0031583
0.00012556
0.0027493
0.00013589
0.0023867
0.00014389
0.0017972
0.00015325
0.0014148
0.00015685
0.0008732
0.00042565
0.00016018
2.0054e-05
0.0041968
6.2304e-08
4.0192e-05
0.0041063
5.9765e-05
0.0039579
7.8354e-05
0.0037457
9.5678e-05
0.0034705
0.00011097
0.003143
0.00012557
0.0027347
0.00013599
0.0023763
0.00014387
0.0017893
0.00015313
0.0014055
0.00015691
0.00086943
0.00042228
0.00016027
2.0054e-05
0.0041767
6.3635e-08
4.0193e-05
0.0040862
5.9768e-05
0.0039384
7.8358e-05
0.0037272
9.5687e-05
0.0034531
0.00011097
0.0031278
0.00012557
0.0027201
0.00013609
0.0023658
0.00014386
0.0017815
0.00015302
0.0013963
0.00015695
0.00086549
0.00041888
0.00016035
2.0054e-05
0.0041566
6.4973e-08
4.0195e-05
0.0040661
5.9771e-05
0.0039188
7.8362e-05
0.0037086
9.5696e-05
0.0034358
0.00011097
0.0031125
0.00012556
0.0027055
0.00013619
0.0023552
0.00014387
0.0017739
0.00015291
0.0013873
0.00015698
0.00086142
0.00041544
0.00016042
2.0054e-05
0.0041364
6.6315e-08
4.0196e-05
0.0040459
5.9774e-05
0.0038992
7.8366e-05
0.00369
9.5706e-05
0.0034185
0.00011097
0.0030972
0.00012556
0.0026909
0.00013629
0.0023444
0.00014388
0.0017663
0.0001528
0.0013784
0.00015701
0.00085722
0.00041196
0.00016048
2.0054e-05
0.0041163
6.7663e-08
4.0198e-05
0.0040258
5.9777e-05
0.0038796
7.837e-05
0.0036714
9.5715e-05
0.0034011
0.00011097
0.003082
0.00012555
0.0026763
0.00013638
0.0023336
0.00014391
0.0017588
0.00015271
0.0013696
0.00015702
0.0008529
0.00040845
0.00016054
2.0054e-05
0.0040962
6.9017e-08
4.0199e-05
0.0040056
5.978e-05
0.00386
7.8374e-05
0.0036528
9.5724e-05
0.0033838
0.00011097
0.0030667
0.00012554
0.0026617
0.00013648
0.0023227
0.00014394
0.0017513
0.00015262
0.0013609
0.00015704
0.00084849
0.0004049
0.00016058
2.0054e-05
0.0040761
7.0376e-08
4.0201e-05
0.0039855
5.9783e-05
0.0038405
7.8378e-05
0.0036342
9.5734e-05
0.0033664
0.00011098
0.0030515
0.00012553
0.0026472
0.00013657
0.0023116
0.00014399
0.0017439
0.00015254
0.0013523
0.00015704
0.00084399
0.00040133
0.00016062
2.0054e-05
0.0040559
7.1742e-08
4.0202e-05
0.0039653
5.9786e-05
0.0038209
7.8382e-05
0.0036156
9.5743e-05
0.0033491
0.00011098
0.0030362
0.00012552
0.0026326
0.00013666
0.0023005
0.00014404
0.0017365
0.00015247
0.0013439
0.00015705
0.00083941
0.00039772
0.00016065
2.0054e-05
0.0040358
7.3113e-08
4.0204e-05
0.0039452
5.9789e-05
0.0038013
7.8385e-05
0.003597
9.5753e-05
0.0033317
0.00011099
0.003021
0.0001255
0.0026181
0.00013675
0.0022892
0.0001441
0.0017291
0.00015241
0.0013356
0.00015706
0.00083476
0.0003941
0.00016068
2.0054e-05
0.0040157
7.4491e-08
4.0205e-05
0.003925
5.9792e-05
0.0037817
7.8389e-05
0.0035784
9.5763e-05
0.0033143
0.00011099
0.0030058
0.00012549
0.0026036
0.00013683
0.0022779
0.00014417
0.0017218
0.00015236
0.0013274
0.00015706
0.00083006
0.00039046
0.0001607
2.0054e-05
0.0039956
7.5874e-08
4.0207e-05
0.0039049
5.9796e-05
0.0037621
7.8394e-05
0.0035598
9.5773e-05
0.0032969
0.000111
0.0029905
0.00012547
0.0025892
0.00013691
0.0022664
0.00014424
0.0017145
0.00015232
0.0013193
0.00015707
0.00082532
0.0003868
0.00016073
2.0054e-05
0.0039754
7.7265e-08
4.0208e-05
0.0038847
5.9799e-05
0.0037425
7.8398e-05
0.0035412
9.5782e-05
0.0032796
0.00011101
0.0029753
0.00012545
0.0025747
0.00013699
0.0022549
0.00014432
0.0017071
0.00015229
0.0013114
0.00015707
0.00082054
0.00038313
0.00016074
2.0055e-05
0.0039553
7.8661e-08
4.021e-05
0.0038646
5.9802e-05
0.0037229
7.8402e-05
0.0035226
9.5792e-05
0.0032622
0.00011102
0.0029601
0.00012543
0.0025603
0.00013706
0.0022433
0.0001444
0.0016998
0.00015227
0.0013035
0.00015708
0.00081572
0.00037945
0.00016076
2.0055e-05
0.0039352
8.0065e-08
4.0212e-05
0.0038444
5.9805e-05
0.0037033
7.8406e-05
0.003504
9.5802e-05
0.0032448
0.00011103
0.0029449
0.00012541
0.0025459
0.00013713
0.0022316
0.00014449
0.0016924
0.00015225
0.0012957
0.00015709
0.00081089
0.00037576
0.00016078
2.0055e-05
0.003915
8.1475e-08
4.0213e-05
0.0038243
5.9808e-05
0.0036837
7.841e-05
0.0034854
9.5812e-05
0.0032274
0.00011104
0.0029296
0.00012539
0.0025316
0.00013719
0.0022198
0.00014457
0.0016851
0.00015225
0.001288
0.00015711
0.00080603
0.00037207
0.00016079
2.0055e-05
0.0038949
8.2892e-08
4.0215e-05
0.0038041
5.9812e-05
0.0036641
7.8414e-05
0.0034668
9.5821e-05
0.00321
0.00011105
0.0029144
0.00012537
0.0025172
0.00013725
0.0022079
0.00014466
0.0016776
0.00015225
0.0012805
0.00015712
0.00080116
0.00036839
0.00016081
2.0055e-05
0.0038747
8.4316e-08
4.0217e-05
0.0037839
5.9815e-05
0.0036445
7.8419e-05
0.0034482
9.5831e-05
0.0031925
0.00011106
0.0028992
0.00012535
0.0025029
0.0001373
0.0021959
0.00014475
0.0016702
0.00015226
0.0012729
0.00015714
0.00079628
0.00036471
0.00016082
2.0055e-05
0.0038546
8.5747e-08
4.0218e-05
0.0037638
5.9818e-05
0.0036249
7.8423e-05
0.0034296
9.5841e-05
0.0031751
0.00011107
0.0028839
0.00012533
0.0024887
0.00013735
0.0021839
0.00014484
0.0016627
0.00015228
0.0012655
0.00015717
0.00079139
0.00036104
0.00016084
2.0055e-05
0.0038345
8.7186e-08
4.022e-05
0.0037436
5.9822e-05
0.0036053
7.8427e-05
0.003411
9.585e-05
0.0031577
0.00011109
0.0028687
0.00012531
0.0024745
0.0001374
0.0021718
0.00014493
0.0016552
0.0001523
0.0012581
0.00015719
0.0007865
0.00035737
0.00016086
2.0055e-05
0.0038143
8.8632e-08
4.0222e-05
0.0037234
5.9825e-05
0.0035857
7.8432e-05
0.0033924
9.586e-05
0.0031403
0.0001111
0.0028535
0.00012529
0.0024603
0.00013744
0.0021597
0.00014502
0.0016476
0.00015233
0.0012508
0.00015722
0.00078161
0.00035372
0.00016087
2.0055e-05
0.0037942
9.0086e-08
4.0223e-05
0.0037033
5.9828e-05
0.0035661
7.8436e-05
0.0033738
9.5869e-05
0.0031228
0.00011112
0.0028382
0.00012528
0.0024461
0.00013747
0.0021475
0.00014511
0.0016399
0.00015237
0.0012436
0.00015726
0.00077673
0.00035009
0.00016089
2.0055e-05
0.003774
9.1548e-08
4.0225e-05
0.0036831
5.9832e-05
0.0035465
7.8441e-05
0.0033552
9.5879e-05
0.0031054
0.00011114
0.002823
0.00012526
0.002432
0.00013751
0.0021352
0.0001452
0.0016322
0.00015241
0.0012364
0.00015729
0.00077184
0.00034647
0.00016091
2.0055e-05
0.0037539
9.3018e-08
4.0227e-05
0.0036629
5.9836e-05
0.0035269
7.8445e-05
0.0033366
9.5888e-05
0.003088
0.00011115
0.0028077
0.00012524
0.0024179
0.00013754
0.0021229
0.00014529
0.0016245
0.00015245
0.0012292
0.00015733
0.00076696
0.00034287
0.00016093
2.0056e-05
0.0037337
9.4496e-08
4.0229e-05
0.0036428
5.9839e-05
0.0035073
7.845e-05
0.0033179
9.5898e-05
0.0030705
0.00011117
0.0027924
0.00012523
0.0024039
0.00013757
0.0021106
0.00014537
0.0016167
0.0001525
0.0012221
0.00015737
0.00076209
0.00033929
0.00016095
2.0056e-05
0.0037136
9.5982e-08
4.023e-05
0.0036226
5.9843e-05
0.0034877
7.8455e-05
0.0032993
9.5907e-05
0.0030531
0.00011119
0.0027771
0.00012521
0.0023898
0.00013759
0.0020982
0.00014545
0.0016088
0.00015254
0.001215
0.00015741
0.00075722
0.00033574
0.00016097
2.0056e-05
0.0036934
9.7477e-08
4.0232e-05
0.0036024
5.9846e-05
0.0034681
7.8459e-05
0.0032807
9.5917e-05
0.0030356
0.00011121
0.0027618
0.0001252
0.0023758
0.00013761
0.0020858
0.00014553
0.0016009
0.0001526
0.0012079
0.00015746
0.00075236
0.0003322
0.00016099
2.0056e-05
0.0036733
9.898e-08
4.0234e-05
0.0035822
5.985e-05
0.0034485
7.8464e-05
0.0032621
9.5926e-05
0.0030181
0.00011123
0.0027465
0.00012518
0.0023619
0.00013763
0.0020734
0.00014561
0.0015929
0.00015265
0.0012009
0.0001575
0.00074751
0.0003287
0.00016101
2.0056e-05
0.0036531
1.0049e-07
4.0236e-05
0.003562
5.9854e-05
0.0034288
7.8469e-05
0.0032435
9.5935e-05
0.0030007
0.00011125
0.0027312
0.00012517
0.002348
0.00013765
0.0020609
0.00014569
0.0015849
0.00015271
0.0011939
0.00015755
0.00074266
0.00032521
0.00016103
2.0056e-05
0.003633
1.0201e-07
4.0238e-05
0.0035419
5.9858e-05
0.0034092
7.8474e-05
0.0032249
9.5945e-05
0.0029832
0.00011127
0.0027159
0.00012516
0.0023341
0.00013766
0.0020484
0.00014576
0.0015768
0.00015276
0.0011869
0.0001576
0.00073783
0.00032176
0.00016106
2.0056e-05
0.0036128
1.0354e-07
4.024e-05
0.0035217
5.9861e-05
0.0033896
7.8479e-05
0.0032063
9.5954e-05
0.0029657
0.00011129
0.0027006
0.00012515
0.0023202
0.00013768
0.0020359
0.00014583
0.0015686
0.00015282
0.0011799
0.00015765
0.000733
0.00031832
0.00016108
2.0056e-05
0.0035926
1.0508e-07
4.0242e-05
0.0035015
5.9865e-05
0.00337
7.8484e-05
0.0031876
9.5963e-05
0.0029483
0.00011131
0.0026852
0.00012515
0.0023064
0.00013769
0.0020233
0.0001459
0.0015604
0.00015288
0.0011729
0.0001577
0.00072818
0.00031492
0.00016111
2.0057e-05
0.0035725
1.0663e-07
4.0244e-05
0.0034813
5.9869e-05
0.0033504
7.8489e-05
0.003169
9.5972e-05
0.0029308
0.00011133
0.0026698
0.00012514
0.0022926
0.0001377
0.0020108
0.00014597
0.0015522
0.00015294
0.0011659
0.00015776
0.00072336
0.00031155
0.00016113
2.0057e-05
0.0035523
1.0819e-07
4.0246e-05
0.0034611
5.9873e-05
0.0033307
7.8494e-05
0.0031504
9.5982e-05
0.0029133
0.00011136
0.0026545
0.00012514
0.0022788
0.00013771
0.0019982
0.00014603
0.0015438
0.000153
0.001159
0.00015781
0.00071856
0.0003082
0.00016116
2.0057e-05
0.0035321
1.0976e-07
4.0248e-05
0.0034409
5.9877e-05
0.0033111
7.8499e-05
0.0031318
9.5991e-05
0.0028958
0.00011138
0.0026391
0.00012513
0.002265
0.00013772
0.0019856
0.00014609
0.0015355
0.00015306
0.001152
0.00015786
0.00071375
0.00030488
0.00016118
2.0057e-05
0.003512
1.1134e-07
4.025e-05
0.0034207
5.9881e-05
0.0032915
7.8505e-05
0.0031131
9.6e-05
0.0028783
0.0001114
0.0026237
0.00012513
0.0022513
0.00013773
0.001973
0.00014615
0.001527
0.00015312
0.001145
0.00015792
0.00070896
0.00030159
0.00016121
2.0057e-05
0.0034918
1.1293e-07
4.0252e-05
0.0034005
5.9885e-05
0.0032718
7.851e-05
0.0030945
9.6009e-05
0.0028608
0.00011142
0.0026083
0.00012513
0.0022376
0.00013773
0.0019604
0.00014621
0.0015186
0.00015318
0.001138
0.00015797
0.00070417
0.00029832
0.00016123
2.0057e-05
0.0034716
1.1453e-07
4.0254e-05
0.0033803
5.989e-05
0.0032522
7.8515e-05
0.0030759
9.6019e-05
0.0028433
0.00011145
0.0025928
0.00012513
0.0022239
0.00013774
0.0019478
0.00014627
0.00151
0.00015324
0.0011311
0.00015802
0.00069939
0.00029509
0.00016126
2.0057e-05
0.0034515
1.1614e-07
4.0256e-05
0.0033602
5.9894e-05
0.0032326
7.8521e-05
0.0030573
9.6028e-05
0.0028258
0.00011147
0.0025774
0.00012513
0.0022103
0.00013775
0.0019352
0.00014632
0.0015015
0.0001533
0.0011241
0.00015808
0.00069462
0.00029188
0.00016129
2.0058e-05
0.0034313
1.1777e-07
4.0258e-05
0.00334
5.9898e-05
0.0032129
7.8526e-05
0.0030386
9.6037e-05
0.0028083
0.00011149
0.0025619
0.00012513
0.0021966
0.00013775
0.0019226
0.00014638
0.0014928
0.00015336
0.0011171
0.00015813
0.00068984
0.0002887
0.00016131
2.0058e-05
0.0034111
1.194e-07
4.026e-05
0.0033197
5.9903e-05
0.0031933
7.8532e-05
0.00302
9.6047e-05
0.0027908
0.00011152
0.0025465
0.00012514
0.002183
0.00013776
0.0019099
0.00014643
0.0014842
0.00015342
0.0011101
0.00015819
0.00068508
0.00028554
0.00016134
2.0058e-05
0.0033909
1.2105e-07
4.0262e-05
0.0032995
5.9907e-05
0.0031736
7.8537e-05
0.0030014
9.6056e-05
0.0027732
0.00011154
0.002531
0.00012514
0.0021694
0.00013776
0.0018973
0.00014648
0.0014755
0.00015348
0.0011031
0.00015824
0.00068032
0.00028242
0.00016137
2.0058e-05
0.0033707
1.227e-07
4.0264e-05
0.0032793
5.9912e-05
0.003154
7.8543e-05
0.0029828
9.6065e-05
0.0027557
0.00011157
0.0025155
0.00012515
0.0021558
0.00013777
0.0018847
0.00014653
0.0014667
0.00015354
0.0010961
0.00015829
0.00067556
0.00027932
0.00016139
2.0058e-05
0.0033506
1.2437e-07
4.0266e-05
0.0032591
5.9916e-05
0.0031343
7.8548e-05
0.0029641
9.6075e-05
0.0027382
0.00011159
0.0025
0.00012515
0.0021423
0.00013777
0.0018721
0.00014657
0.0014579
0.00015359
0.0010891
0.00015835
0.00067081
0.00027625
0.00016142
2.0059e-05
0.0033304
1.2606e-07
4.0269e-05
0.0032389
5.9921e-05
0.0031147
7.8554e-05
0.0029455
9.6084e-05
0.0027207
0.00011161
0.0024844
0.00012516
0.0021287
0.00013778
0.0018594
0.00014662
0.0014491
0.00015365
0.001082
0.0001584
0.00066606
0.0002732
0.00016145
2.0059e-05
0.0033102
1.2775e-07
4.0271e-05
0.0032187
5.9926e-05
0.003095
7.856e-05
0.0029269
9.6093e-05
0.0027031
0.00011164
0.0024689
0.00012517
0.0021152
0.00013779
0.0018468
0.00014667
0.0014402
0.00015371
0.001075
0.00015845
0.00066131
0.00027018
0.00016147
2.0059e-05
0.00329
1.2946e-07
4.0273e-05
0.0031985
5.9931e-05
0.0030754
7.8566e-05
0.0029082
9.6102e-05
0.0026856
0.00011166
0.0024533
0.00012518
0.0021017
0.00013779
0.0018342
0.00014671
0.0014313
0.00015376
0.001068
0.00015851
0.00065657
0.00026718
0.0001615
2.0059e-05
0.0032698
1.3118e-07
4.0275e-05
0.0031783
5.9936e-05
0.0030557
7.8572e-05
0.0028896
9.6112e-05
0.0026681
0.00011169
0.0024378
0.00012519
0.0020882
0.0001378
0.0018216
0.00014675
0.0014223
0.00015382
0.0010609
0.00015856
0.00065183
0.00026421
0.00016153
2.006e-05
0.0032496
1.3292e-07
4.0277e-05
0.0031581
5.9941e-05
0.003036
7.8578e-05
0.0028709
9.6121e-05
0.0026505
0.00011172
0.0024222
0.0001252
0.0020747
0.00013781
0.001809
0.0001468
0.0014133
0.00015387
0.0010538
0.00015861
0.00064709
0.00026127
0.00016156
2.006e-05
0.0032294
1.3466e-07
4.028e-05
0.0031378
5.9946e-05
0.0030164
7.8584e-05
0.0028523
9.613e-05
0.002633
0.00011174
0.0024066
0.00012522
0.0020612
0.00013781
0.0017964
0.00014684
0.0014043
0.00015393
0.0010467
0.00015866
0.00064236
0.00025835
0.00016158
2.006e-05
0.0032092
1.3643e-07
4.0282e-05
0.0031176
5.9951e-05
0.0029967
7.859e-05
0.0028337
9.6139e-05
0.0026154
0.00011177
0.0023909
0.00012523
0.0020477
0.00013782
0.0017838
0.00014688
0.0013952
0.00015398
0.0010396
0.00015871
0.00063763
0.00025545
0.00016161
2.006e-05
0.003189
1.382e-07
4.0284e-05
0.0030974
5.9956e-05
0.002977
7.8596e-05
0.002815
9.6148e-05
0.0025979
0.00011179
0.0023753
0.00012525
0.0020343
0.00013783
0.0017712
0.00014692
0.0013861
0.00015404
0.0010325
0.00015877
0.0006329
0.00025257
0.00016164
2.0061e-05
0.0031688
1.4e-07
4.0287e-05
0.0030772
5.9962e-05
0.0029574
7.8602e-05
0.0027964
9.6158e-05
0.0025803
0.00011182
0.0023596
0.00012526
0.0020208
0.00013784
0.0017586
0.00014696
0.001377
0.00015409
0.0010254
0.00015882
0.00062817
0.00024972
0.00016167
2.0061e-05
0.0031486
1.418e-07
4.0289e-05
0.0030569
5.9967e-05
0.0029377
7.8609e-05
0.0027777
9.6167e-05
0.0025627
0.00011184
0.0023439
0.00012528
0.0020074
0.00013785
0.0017461
0.000147
0.0013679
0.00015414
0.0010182
0.00015887
0.00062345
0.00024689
0.0001617
2.0061e-05
0.0031284
1.4363e-07
4.0292e-05
0.0030367
5.9973e-05
0.002918
7.8615e-05
0.0027591
9.6175e-05
0.0025452
0.00011187
0.0023282
0.0001253
0.001994
0.00013786
0.0017335
0.00014704
0.0013587
0.00015419
0.0010111
0.00015892
0.00061872
0.00024409
0.00016172
2.0062e-05
0.0031082
1.4546e-07
4.0294e-05
0.0030165
5.9978e-05
0.0028983
7.8622e-05
0.0027405
9.6184e-05
0.0025276
0.0001119
0.0023125
0.00012532
0.0019806
0.00013787
0.001721
0.00014708
0.0013495
0.00015425
0.0010039
0.00015897
0.000614
0.0002413
0.00016175
2.0062e-05
0.003088
1.4732e-07
4.0297e-05
0.0029962
5.9984e-05
0.0028786
7.8628e-05
0.0027218
9.6193e-05
0.0025101
0.00011192
0.0022968
0.00012534
0.0019672
0.00013788
0.0017084
0.00014712
0.0013402
0.0001543
0.00099676
0.00015902
0.00060928
0.00023854
0.00016178
2.0062e-05
0.0030678
1.4919e-07
4.0299e-05
0.002976
5.999e-05
0.0028589
7.8635e-05
0.0027032
9.6202e-05
0.0024925
0.00011195
0.0022811
0.00012536
0.0019537
0.00013789
0.0016959
0.00014716
0.0013309
0.00015435
0.00098957
0.00015907
0.00060457
0.0002358
0.00016181
2.0062e-05
0.0030476
1.5108e-07
4.0302e-05
0.0029558
5.9996e-05
0.0028392
7.8642e-05
0.0026845
9.6211e-05
0.0024749
0.00011198
0.0022653
0.00012538
0.0019403
0.00013791
0.0016834
0.0001472
0.0013216
0.0001544
0.00098237
0.00015912
0.00059985
0.00023308
0.00016184
2.0063e-05
0.0030274
1.5298e-07
4.0304e-05
0.0029355
6.0002e-05
0.0028195
7.8649e-05
0.0026659
9.6219e-05
0.0024574
0.000112
0.0022495
0.0001254
0.0019269
0.00013792
0.0016708
0.00014724
0.0013123
0.00015445
0.00097516
0.00015916
0.00059514
0.00023037
0.00016187
2.0063e-05
0.0030071
1.5491e-07
4.0307e-05
0.0029153
6.0008e-05
0.0027998
7.8656e-05
0.0026472
9.6228e-05
0.0024398
0.00011203
0.0022337
0.00012542
0.0019136
0.00013793
0.0016583
0.00014728
0.001303
0.0001545
0.00096794
0.00015921
0.00059042
0.00022769
0.0001619
2.0064e-05
0.0029869
1.5685e-07
4.0309e-05
0.002895
6.0014e-05
0.0027801
7.8664e-05
0.0026286
9.6236e-05
0.0024222
0.00011206
0.0022179
0.00012545
0.0019002
0.00013795
0.0016458
0.00014732
0.0012936
0.00015455
0.00096071
0.00015926
0.00058571
0.00022503
0.00016192
2.0064e-05
0.0029667
1.5881e-07
4.0312e-05
0.0028748
6.002e-05
0.0027604
7.8671e-05
0.0026099
9.6244e-05
0.0024046
0.00011208
0.002202
0.00012547
0.0018868
0.00013796
0.0016333
0.00014735
0.0012842