/*--------------------------------*- C++ -*----------------------------------*\
  =========                 |
  \\      /  F ield         | OpenFOAM: The Open Source CFD Toolbox
   \\    /   O peration     | Website:  https://openfoam.org
    \\  /    A nd           | Version:  6.0
     \\/     M anipulation  |
\*---------------------------------------------------------------------------*/
FoamFile
{
    version     2.0;
    format      ascii;
    class       volVectorField;
    location    "6";
    object      U;
}
// * * * * * * * * * * * * * * * * * * * * * * * * * * * * * * * * * * * * * //

dimensions      [0 1 -1 0 0 0 0];

internalField   nonuniform List<vector> 
62000
(
(0.966197 -0.255626 -2.8165e-21)
(0.966116 -0.255689 2.36398e-21)
(0.966058 -0.255809 2.389e-21)
(0.96602 -0.256002 -1.03941e-20)
(0.965988 -0.256247 -1.16406e-20)
(0.965959 -0.256501 4.06797e-20)
(0.965935 -0.256743 -4.4394e-20)
(0.965916 -0.256963 2.5827e-20)
(0.9659 -0.257162 -1.19109e-20)
(0.965887 -0.257343 -6.0195e-20)
(0.965875 -0.257507 -6.71567e-21)
(0.965866 -0.257659 8.45021e-20)
(0.965857 -0.2578 1.6762e-20)
(0.965849 -0.25793 -5.91318e-20)
(0.965842 -0.258052 9.14664e-20)
(0.965836 -0.258164 -4.88333e-20)
(0.965831 -0.258269 4.8906e-20)
(0.965827 -0.258364 -5.78192e-20)
(0.965823 -0.258452 2.75546e-20)
(0.96582 -0.258532 -8.39027e-20)
(0.965818 -0.258604 1.08804e-19)
(0.965816 -0.25867 2.97476e-20)
(0.965814 -0.258728 4.08722e-20)
(0.965814 -0.25878 -1.95016e-19)
(0.965813 -0.258826 7.022e-20)
(0.965813 -0.258866 -3.99078e-20)
(0.965814 -0.258902 2.09224e-21)
(0.965815 -0.258934 -2.74393e-20)
(0.965817 -0.258963 9.15854e-20)
(0.96582 -0.258989 -4.57973e-20)
(0.965825 -0.259015 1.04585e-19)
(0.965832 -0.25904 -1.98981e-19)
(0.965842 -0.259064 2.111e-20)
(0.965857 -0.259091 -4.43003e-20)
(0.965878 -0.259119 -9.34688e-21)
(0.965906 -0.259149 -3.49629e-20)
(0.965947 -0.259183 2.1027e-21)
(0.966005 -0.259218 1.05178e-20)
(0.966086 -0.25925 1.9517e-20)
(0.966198 -0.259275 -3.45484e-20)
(0.96635 -0.259281 3.06552e-20)
(0.966553 -0.259258 2.42544e-19)
(0.966819 -0.259189 5.98717e-19)
(0.967161 -0.259051 -4.38795e-19)
(0.967593 -0.25882 -2.25203e-19)
(0.968124 -0.258464 1.02101e-18)
(0.968763 -0.257948 -8.98302e-20)
(0.969512 -0.257231 6.26665e-19)
(0.970366 -0.256271 3.26585e-18)
(0.97131 -0.255018 1.08086e-18)
(0.972321 -0.253417 6.27097e-19)
(0.973365 -0.251396 7.26117e-18)
(0.974394 -0.248868 -2.1372e-18)
(0.975358 -0.245693 -9.18742e-18)
(0.976198 -0.241644 -2.08539e-18)
(0.976868 -0.236235 -8.57358e-18)
(0.977328 -0.228323 5.5942e-19)
(0.979001 -0.213875 7.60083e-19)
(0.977157 -0.188013 -2.00681e-18)
(1.08697 -0.0810833 -4.25373e-19)
(0.966488 -0.255998 -7.5307e-22)
(0.966375 -0.256056 7.24519e-21)
(0.966386 -0.255933 2.97488e-21)
(0.966462 -0.255928 -1.29618e-20)
(0.966536 -0.256065 5.35239e-21)
(0.966598 -0.256283 -3.64513e-20)
(0.966649 -0.256535 3.36109e-20)
(0.966692 -0.25679 1.89467e-20)
(0.966729 -0.257029 -3.5464e-20)
(0.96676 -0.257247 1.81919e-21)
(0.966787 -0.257444 3.37706e-20)
(0.966808 -0.257623 -2.60185e-22)
(0.966824 -0.257786 9.21408e-21)
(0.966836 -0.257938 -8.09668e-20)
(0.966844 -0.258078 1.60836e-19)
(0.966849 -0.258208 -1.41687e-19)
(0.966851 -0.25833 6.54914e-20)
(0.966851 -0.258443 -1.39831e-20)
(0.96685 -0.258548 -3.63803e-20)
(0.966847 -0.258647 9.79468e-20)
(0.966843 -0.25874 -1.53195e-19)
(0.966837 -0.258828 8.7644e-20)
(0.966831 -0.258912 -1.06881e-19)
(0.966822 -0.258995 6.43867e-20)
(0.966813 -0.259077 5.59955e-20)
(0.966803 -0.25916 -3.59481e-20)
(0.966792 -0.259245 1.35048e-21)
(0.966781 -0.259335 3.89612e-20)
(0.966771 -0.25943 2.9867e-20)
(0.966761 -0.259532 -5.60984e-20)
(0.966754 -0.259643 1.08713e-19)
(0.966752 -0.259762 1.8799e-20)
(0.966758 -0.259892 4.60641e-20)
(0.966775 -0.260037 5.17953e-21)
(0.966809 -0.260193 5.35591e-21)
(0.966863 -0.260354 -1.18175e-20)
(0.966946 -0.260514 -3.27378e-20)
(0.967071 -0.260665 -1.96316e-20)
(0.967251 -0.260797 -1.64457e-20)
(0.967502 -0.260892 2.82658e-20)
(0.967841 -0.260928 -4.37421e-20)
(0.968288 -0.260874 -4.70003e-20)
(0.968866 -0.260695 -6.65944e-19)
(0.969595 -0.260348 -5.75332e-20)
(0.970495 -0.259783 1.79112e-18)
(0.971579 -0.258945 -8.98174e-19)
(0.972852 -0.257774 -9.59948e-19)
(0.974308 -0.256205 -1.2544e-18)
(0.975926 -0.254173 -3.51393e-19)
(0.977665 -0.251606 -6.52788e-20)
(0.97946 -0.248432 -3.13555e-18)
(0.981226 -0.244567 -9.22616e-18)
(0.982841 -0.23993 6.70379e-18)
(0.984157 -0.234411 1.70212e-17)
(0.984962 -0.227928 4.20243e-18)
(0.984917 -0.220367 3.3839e-18)
(0.983544 -0.212046 5.95065e-18)
(0.980046 -0.205248 3.07526e-18)
(0.974977 -0.21633 -9.40064e-19)
(0.967444 -0.257158 -2.1749e-19)
(0.966146 -0.262425 -3.79987e-21)
(0.96617 -0.262452 -5.66152e-22)
(0.96637 -0.262097 5.92806e-22)
(0.966651 -0.261837 2.77422e-21)
(0.966923 -0.261724 7.74486e-21)
(0.967166 -0.261723 -7.41481e-21)
(0.96738 -0.261792 3.86807e-20)
(0.967567 -0.261891 -1.89957e-20)
(0.967729 -0.261989 -9.93098e-21)
(0.967869 -0.26207 -5.86764e-20)
(0.96799 -0.26213 4.96944e-20)
(0.968093 -0.26217 3.62565e-21)
(0.968179 -0.262192 -1.07043e-20)
(0.968249 -0.262199 2.81712e-20)
(0.968305 -0.262195 -4.79609e-20)
(0.968348 -0.262182 6.73804e-22)
(0.96838 -0.26216 -2.03485e-20)
(0.968403 -0.262133 1.71336e-21)
(0.968418 -0.2621 4.66796e-20)
(0.968426 -0.262066 -6.9292e-20)
(0.96843 -0.262029 4.29982e-20)
(0.96843 -0.261994 1.5657e-19)
(0.968427 -0.261961 -2.60731e-20)
(0.968421 -0.261934 -2.07758e-19)
(0.968413 -0.261915 1.06235e-19)
(0.968403 -0.261905 -5.11175e-20)
(0.968392 -0.261908 8.14395e-20)
(0.96838 -0.261926 -5.23615e-20)
(0.968369 -0.261959 -8.92524e-20)
(0.968357 -0.26201 8.39623e-20)
(0.968347 -0.262079 -5.6257e-20)
(0.968341 -0.262167 7.19638e-20)
(0.96834 -0.262275 -1.73182e-19)
(0.968351 -0.262408 1.3731e-19)
(0.968375 -0.262561 -6.22673e-20)
(0.968418 -0.262724 2.88694e-20)
(0.968486 -0.262886 1.65823e-20)
(0.968591 -0.263039 1.55548e-20)
(0.968747 -0.263168 2.2692e-20)
(0.968969 -0.263251 -1.51402e-20)
(0.969274 -0.263264 3.55542e-20)
(0.96968 -0.263173 -8.99151e-20)
(0.970209 -0.262938 4.14484e-19)
(0.97088 -0.262516 2.74424e-19)
(0.971711 -0.261856 -5.33027e-19)
(0.972713 -0.260904 1.45948e-18)
(0.97389 -0.259607 -3.28445e-19)
(0.975229 -0.257907 1.94584e-18)
(0.976706 -0.255753 -3.18207e-18)
(0.978271 -0.253091 -1.00932e-18)
(0.979846 -0.24988 -2.34453e-19)
(0.98133 -0.246081 5.36243e-19)
(0.982573 -0.24169 -2.37516e-18)
(0.983391 -0.23673 -2.36849e-18)
(0.983518 -0.231361 3.93962e-18)
(0.982505 -0.225923 3.42406e-18)
(0.979924 -0.221646 -9.33126e-19)
(0.974153 -0.22332 1.50644e-18)
(0.9704 -0.236387 1.62166e-18)
(0.983479 -0.2366 4.04773e-19)
(0.965729 -0.26834 -4.18324e-21)
(0.965879 -0.268291 1.29235e-20)
(0.966192 -0.267867 -1.97033e-21)
(0.966589 -0.267504 -1.34793e-20)
(0.966988 -0.267265 2.0329e-20)
(0.967364 -0.267146 3.45527e-20)
(0.967713 -0.267118 -4.54641e-20)
(0.968032 -0.26714 4.78646e-21)
(0.968323 -0.267177 1.4873e-20)
(0.968586 -0.267205 3.02139e-20)
(0.968823 -0.267216 -5.67327e-20)
(0.969034 -0.267205 -1.6571e-20)
(0.969219 -0.267172 -1.76987e-20)
(0.96938 -0.267121 8.30083e-20)
(0.969517 -0.267054 -5.39909e-20)
(0.96963 -0.266973 1.20315e-19)
(0.969722 -0.266879 -1.45254e-19)
(0.969794 -0.266774 -1.85426e-20)
(0.96985 -0.266659 1.42782e-19)
(0.969891 -0.266537 -5.01337e-20)
(0.96992 -0.266409 -1.85444e-20)
(0.969939 -0.266279 -1.7523e-20)
(0.969951 -0.266148 -1.47074e-19)
(0.969958 -0.26602 8.97533e-20)
(0.96996 -0.265897 -3.25126e-20)
(0.96996 -0.265785 5.66856e-20)
(0.969958 -0.265684 2.51529e-20)
(0.969956 -0.265599 1.06942e-19)
(0.969953 -0.265531 -6.8399e-20)
(0.96995 -0.265482 -7.78167e-20)
(0.969949 -0.265454 1.09573e-19)
(0.96995 -0.265446 -8.57021e-20)
(0.969955 -0.265461 1.4012e-19)
(0.969967 -0.265503 -6.58784e-20)
(0.969989 -0.265568 3.65465e-20)
(0.970023 -0.265644 4.63814e-20)
(0.970073 -0.265721 -1.63558e-20)
(0.970149 -0.265788 -3.06897e-21)
(0.97026 -0.26583 -1.07189e-20)
(0.97042 -0.265828 -3.40941e-21)
(0.970642 -0.265755 3.32092e-20)
(0.970942 -0.265581 -2.39725e-20)
(0.971337 -0.265268 -8.4764e-20)
(0.971844 -0.264777 -1.99847e-19)
(0.972477 -0.264062 -5.38898e-19)
(0.973248 -0.263078 -3.70467e-19)
(0.974157 -0.26178 -9.01846e-19)
(0.975196 -0.260122 -1.23293e-18)
(0.976339 -0.258068 -1.22999e-18)
(0.97754 -0.255585 1.10382e-18)
(0.978724 -0.252654 2.20941e-18)
(0.979792 -0.249272 -8.82446e-19)
(0.980601 -0.245476 -9.05627e-19)
(0.980974 -0.241357 -6.30218e-18)
(0.980671 -0.237159 -4.72247e-18)
(0.97929 -0.233297 -2.66674e-18)
(0.976654 -0.230866 -5.28549e-18)
(0.971255 -0.233617 -3.59068e-18)
(0.969402 -0.241636 -2.04201e-18)
(0.983113 -0.241048 -1.55957e-18)
(0.965597 -0.272201 9.07021e-21)
(0.965775 -0.272115 -3.00732e-21)
(0.966083 -0.271717 5.17013e-21)
(0.96648 -0.271346 -7.28978e-21)
(0.966892 -0.271074 1.63732e-20)
(0.967296 -0.270919 -8.26046e-21)
(0.967686 -0.270865 4.13499e-21)
(0.96806 -0.270873 -6.31047e-20)
(0.968416 -0.270908 5.26873e-20)
(0.968753 -0.270946 -1.01674e-19)
(0.96907 -0.270973 1.12012e-19)
(0.969367 -0.270983 -1.3764e-20)
(0.969641 -0.270973 -2.8323e-20)
(0.969892 -0.270946 -1.14331e-20)
(0.970116 -0.2709 -1.78179e-21)
(0.970314 -0.270839 -1.19121e-19)
(0.970485 -0.270761 1.10049e-20)
(0.970629 -0.270668 1.26649e-19)
(0.970749 -0.27056 -3.81576e-20)
(0.970846 -0.270439 -3.6626e-20)
(0.970922 -0.270304 6.47242e-20)
(0.970982 -0.270159 -2.8202e-20)
(0.971027 -0.270005 1.21544e-19)
(0.971061 -0.269846 5.83886e-20)
(0.971087 -0.269685 3.78242e-20)
(0.971106 -0.269525 -1.40948e-19)
(0.971122 -0.269369 -1.92989e-20)
(0.971136 -0.269222 -9.52116e-20)
(0.971149 -0.269085 1.85309e-20)
(0.971163 -0.268961 -2.24756e-20)
(0.971178 -0.268852 -1.22204e-20)
(0.971195 -0.268758 6.03478e-20)
(0.971216 -0.268681 -1.54202e-19)
(0.971244 -0.268627 -1.41973e-20)
(0.971279 -0.268592 -5.58662e-20)
(0.971323 -0.268564 -2.32273e-20)
(0.971378 -0.268533 -1.77668e-20)
(0.97145 -0.268489 -4.88757e-20)
(0.971547 -0.268417 4.37313e-20)
(0.971679 -0.268299 3.801e-20)
(0.971856 -0.268111 -9.9468e-21)
(0.972091 -0.267824 2.56358e-20)
(0.972398 -0.267404 2.07777e-20)
(0.97279 -0.266816 1.04053e-19)
(0.97328 -0.26602 -2.78689e-19)
(0.973877 -0.264976 -5.59161e-19)
(0.974585 -0.263646 6.67554e-20)
(0.975393 -0.261993 -3.73549e-20)
(0.976281 -0.259991 9.1764e-19)
(0.977209 -0.257615 -2.45374e-18)
(0.97811 -0.25486 -5.65625e-19)
(0.978897 -0.25173 1.13053e-18)
(0.979443 -0.248275 1.11719e-18)
(0.979592 -0.244594 -2.36628e-18)
(0.979148 -0.240914 -8.63043e-19)
(0.977778 -0.237577 2.62517e-18)
(0.975462 -0.235385 -5.79416e-20)
(0.970657 -0.237268 2.74969e-18)
(0.969455 -0.243902 -5.3159e-18)
(0.984127 -0.241532 2.57271e-18)
(0.965673 -0.274633 -3.82589e-21)
(0.965816 -0.27455 1.55558e-20)
(0.966073 -0.2742 -2.5764e-20)
(0.966424 -0.273849 1.93309e-20)
(0.966798 -0.273577 1.25615e-20)
(0.967172 -0.273419 -1.33936e-20)
(0.967543 -0.273363 1.04281e-21)
(0.967909 -0.273375 -9.85797e-21)
(0.96827 -0.273422 -3.22872e-20)
(0.968623 -0.273481 6.20412e-20)
(0.968969 -0.273536 -9.40444e-20)
(0.969305 -0.273581 8.18057e-20)
(0.969629 -0.273611 6.90113e-20)
(0.969938 -0.273627 -1.07536e-19)
(0.970228 -0.273629 -3.27816e-20)
(0.970496 -0.273617 1.24278e-19)
(0.970739 -0.273591 -1.46355e-19)
(0.970956 -0.273549 1.95953e-19)
(0.971146 -0.273493 -4.05156e-20)
(0.971309 -0.27342 1.66942e-20)
(0.971447 -0.27333 -3.50039e-20)
(0.971561 -0.273226 -4.02102e-20)
(0.971654 -0.273106 -6.40389e-20)
(0.97173 -0.272973 1.09197e-19)
(0.971791 -0.272829 -7.4582e-20)
(0.971842 -0.272676 -6.47973e-20)
(0.971885 -0.272518 1.29912e-19)
(0.971924 -0.272358 -1.19365e-19)
(0.971959 -0.272198 1.67046e-19)
(0.971995 -0.272042 -9.23873e-20)
(0.972032 -0.271889 5.12413e-20)
(0.972071 -0.271742 -9.77776e-20)
(0.972116 -0.271602 7.81954e-20)
(0.972167 -0.271475 -2.07525e-20)
(0.972227 -0.271358 -7.11226e-21)
(0.972295 -0.27124 -8.9042e-21)
(0.972373 -0.271112 -5.44826e-20)
(0.972464 -0.270962 4.92206e-20)
(0.972576 -0.270778 -1.55402e-20)
(0.972714 -0.270544 -1.22528e-19)
(0.972888 -0.270236 -2.675e-20)
(0.973106 -0.269829 -4.43415e-20)
(0.97338 -0.269292 -3.21183e-20)
(0.97372 -0.268593 1.20474e-19)
(0.974138 -0.267695 3.37228e-21)
(0.974641 -0.266564 -3.43533e-19)
(0.975231 -0.265167 6.62831e-19)
(0.975902 -0.263471 8.62339e-19)
(0.976636 -0.261455 8.91954e-19)
(0.9774 -0.259098 1.31177e-18)
(0.978135 -0.256398 -4.56509e-19)
(0.978765 -0.253359 4.7746e-19)
(0.979179 -0.250027 2.93722e-18)
(0.979242 -0.246491 1.76693e-19)
(0.978788 -0.242945 -9.37437e-19)
(0.977533 -0.239661 -6.48474e-21)
(0.9755 -0.237298 -6.78242e-19)
(0.970972 -0.238643 3.07641e-18)
(0.969961 -0.244955 8.24262e-18)
(0.984948 -0.241883 3.05633e-19)
(0.965791 -0.276259 4.96018e-21)
(0.965885 -0.27619 -2.24654e-20)
(0.966094 -0.275879 1.09869e-20)
(0.966401 -0.275548 2.06039e-20)
(0.966733 -0.275284 -4.42279e-20)
(0.967067 -0.275128 3.71218e-20)
(0.967402 -0.275074 -2.45806e-20)
(0.967737 -0.27509 2.07264e-20)
(0.968072 -0.275146 3.24566e-20)
(0.968407 -0.275218 -7.75568e-20)
(0.968745 -0.275292 1.10448e-19)
(0.969083 -0.27536 4.42851e-20)
(0.969419 -0.275421 -1.82029e-19)
(0.969751 -0.275472 -3.19044e-20)
(0.970074 -0.275514 9.38987e-20)
(0.970384 -0.275547 5.7468e-20)
(0.970678 -0.275571 -7.04545e-20)
(0.970952 -0.275583 5.79714e-20)
(0.971202 -0.275583 8.65308e-20)
(0.971426 -0.27557 -4.55424e-20)
(0.971625 -0.275541 -2.49687e-20)
(0.971798 -0.275496 7.90511e-20)
(0.971947 -0.275434 1.53103e-19)
(0.972074 -0.275354 -1.184e-19)
(0.972181 -0.275259 -1.17732e-19)
(0.972273 -0.275148 1.22395e-19)
(0.972353 -0.275023 -9.3417e-20)
(0.972425 -0.274887 -2.94247e-20)
(0.972491 -0.274741 2.68405e-19)
(0.972555 -0.274588 -1.17279e-19)
(0.972619 -0.274427 -6.87152e-20)
(0.972686 -0.27426 9.04978e-20)
(0.972759 -0.274089 5.53396e-20)
(0.972839 -0.273918 -6.19202e-20)
(0.972929 -0.273746 -3.29601e-20)
(0.973029 -0.273562 8.21082e-20)
(0.973139 -0.273356 -1.24386e-20)
(0.973264 -0.27312 3.1227e-20)
(0.973407 -0.272841 -1.05534e-19)
(0.973573 -0.272505 -1.29394e-19)
(0.973769 -0.27209 1.04915e-19)
(0.974003 -0.271571 5.0937e-20)
(0.974282 -0.270922 -1.29116e-20)
(0.974615 -0.270113 -3.90085e-20)
(0.975012 -0.269111 -5.44612e-21)
(0.975478 -0.267884 1.55829e-19)
(0.976016 -0.266404 -3.70618e-19)
(0.976619 -0.264639 -3.51168e-19)
(0.977274 -0.262571 5.31742e-19)
(0.977951 -0.26018 5.30828e-19)
(0.9786 -0.257463 5.20866e-19)
(0.979154 -0.254422 -1.54431e-20)
(0.979512 -0.251094 -2.22034e-19)
(0.979555 -0.247558 6.39653e-19)
(0.979133 -0.243986 3.86956e-20)
(0.977987 -0.240614 -7.95574e-20)
(0.976129 -0.238072 3.07087e-19)
(0.971672 -0.239212 -8.64482e-18)
(0.970671 -0.245527 -3.31324e-19)
(0.985656 -0.24202 5.08582e-19)
(0.965873 -0.277426 -9.09483e-21)
(0.96593 -0.277368 -7.29608e-21)
(0.966107 -0.277082 9.92952e-21)
(0.966383 -0.276764 3.52868e-20)
(0.966682 -0.276505 -7.60865e-20)
(0.966984 -0.27635 8.69711e-20)
(0.967286 -0.276297 -4.23267e-21)
(0.967587 -0.276315 -5.7283e-21)
(0.96789 -0.276374 -3.05311e-20)
(0.968197 -0.276451 7.26818e-20)
(0.968509 -0.276533 -1.11431e-19)
(0.968828 -0.276613 4.16649e-20)
(0.969153 -0.276689 -1.32346e-21)
(0.969481 -0.276759 6.20036e-20)
(0.969811 -0.276825 2.78205e-20)
(0.970137 -0.276887 -1.53397e-19)
(0.970456 -0.276943 1.31246e-19)
(0.970764 -0.276994 4.85511e-20)
(0.971055 -0.277038 -1.39547e-19)
(0.971327 -0.277074 6.86336e-20)
(0.971577 -0.277097 2.88195e-20)
(0.971803 -0.277108 -2.0739e-20)
(0.972006 -0.277104 2.06252e-20)
(0.972186 -0.277083 -1.4456e-20)
(0.972344 -0.277044 -1.48967e-19)
(0.972484 -0.276987 9.12297e-20)
(0.972608 -0.276912 -1.31405e-19)
(0.97272 -0.276819 2.42829e-19)
(0.972824 -0.276708 -4.21911e-20)
(0.972923 -0.276582 -2.78807e-20)
(0.973021 -0.276438 -7.91675e-21)
(0.973121 -0.276277 1.82646e-19)
(0.973226 -0.2761 -8.44683e-20)
(0.97334 -0.275913 -6.56082e-20)
(0.973464 -0.275712 9.88658e-20)
(0.9736 -0.275486 7.79962e-20)
(0.973748 -0.275228 -1.2726e-19)
(0.973912 -0.274929 2.45056e-20)
(0.974095 -0.274577 1.58405e-19)
(0.974301 -0.274159 -8.02043e-20)
(0.974535 -0.273655 1.14549e-19)
(0.974802 -0.273043 -9.27845e-20)
(0.97511 -0.272298 1.74386e-19)
(0.975464 -0.271391 1.40237e-19)
(0.975873 -0.270294 -9.39814e-20)
(0.976341 -0.268977 -2.93175e-20)
(0.976869 -0.267412 3.73601e-20)
(0.977453 -0.265571 1.66915e-19)
(0.978079 -0.263436 -1.53975e-19)
(0.978722 -0.260986 -6.22772e-19)
(0.979337 -0.258218 2.7957e-19)
(0.979863 -0.255128 1.62491e-19)
(0.980207 -0.251747 3.66989e-20)
(0.980259 -0.24815 -2.10593e-19)
(0.979876 -0.244495 1.38428e-18)
(0.978809 -0.24101 3.36936e-19)
(0.97704 -0.238345 3.71681e-18)
(0.972537 -0.239433 8.77375e-18)
(0.971457 -0.245874 2.02133e-18)
(0.986271 -0.242077 2.10498e-18)
(0.965915 -0.278303 -4.77346e-21)
(0.965947 -0.278254 4.11892e-21)
(0.966105 -0.277986 2.07016e-20)
(0.966362 -0.277678 3.27786e-20)
(0.96664 -0.277422 -9.70768e-20)
(0.966918 -0.277268 5.58324e-20)
(0.967195 -0.277214 -9.87663e-20)
(0.967469 -0.277231 1.54061e-19)
(0.967744 -0.277289 -7.18331e-20)
(0.968022 -0.277366 1.24651e-20)
(0.968306 -0.277449 1.33743e-19)
(0.968599 -0.277531 -3.03263e-19)
(0.9689 -0.277611 2.04615e-19)
(0.969211 -0.277689 2.66003e-20)
(0.969529 -0.277764 4.31681e-20)
(0.969851 -0.277838 -1.85303e-19)
(0.970175 -0.277912 8.93285e-20)
(0.970496 -0.277984 -1.07283e-19)
(0.970809 -0.278054 2.073e-19)
(0.97111 -0.278121 -3.29289e-20)
(0.971397 -0.278181 -2.51696e-19)
(0.971665 -0.278233 9.56621e-20)
(0.971913 -0.278274 -6.58246e-21)
(0.972141 -0.278301 -3.23585e-19)
(0.972347 -0.278313 2.47487e-19)
(0.972536 -0.278307 1.75512e-19)
(0.972707 -0.278281 1.12008e-19)
(0.972864 -0.278236 -1.37069e-19)
(0.973011 -0.278168 -1.3439e-19)
(0.973151 -0.278079 5.98626e-20)
(0.973288 -0.277965 9.49252e-20)
(0.973425 -0.277826 -9.71129e-20)
(0.973568 -0.277662 -1.38706e-19)
(0.973719 -0.277477 2.82024e-19)
(0.973881 -0.277268 1.58835e-20)
(0.974056 -0.277022 -3.4962e-19)
(0.974245 -0.276734 1.47281e-20)
(0.974452 -0.276393 2.1136e-19)
(0.974679 -0.275991 4.03646e-20)
(0.97493 -0.275514 2.06716e-19)
(0.975209 -0.274943 -2.36021e-19)
(0.975521 -0.274258 -2.99066e-20)
(0.97587 -0.273436 -8.17458e-20)
(0.976263 -0.27245 1.26163e-19)
(0.976704 -0.271274 9.29726e-20)
(0.977197 -0.269878 3.87558e-19)
(0.977743 -0.268238 -1.10706e-19)
(0.978337 -0.266325 -1.64429e-20)
(0.978967 -0.264123 1.2212e-19)
(0.979609 -0.261608 1.47414e-19)
(0.980222 -0.258776 -2.08293e-19)
(0.98075 -0.25562 4.73405e-19)
(0.981103 -0.252166 -4.25599e-19)
(0.981176 -0.248485 -7.9996e-19)
(0.980828 -0.244735 -2.99406e-18)
(0.979813 -0.241147 -3.30055e-19)
(0.978075 -0.238406 -2.48556e-18)
(0.973469 -0.239515 -5.07022e-18)
(0.972285 -0.24609 4.76599e-18)
(0.986811 -0.242065 9.17849e-19)
(0.965927 -0.278992 7.12342e-21)
(0.965945 -0.278947 2.49763e-21)
(0.966093 -0.278689 -2.59106e-20)
(0.966338 -0.278386 2.47246e-20)
(0.966603 -0.278131 -1.09717e-20)
(0.966866 -0.277976 1.94544e-20)
(0.967124 -0.277921 6.47654e-21)
(0.967378 -0.277938 -9.60808e-20)
(0.967631 -0.277994 4.20872e-20)
(0.967885 -0.27807 -2.75064e-20)
(0.968143 -0.278152 1.73994e-20)
(0.96841 -0.278233 6.43208e-20)
(0.968686 -0.278312 -1.25482e-20)
(0.968974 -0.278389 3.76511e-20)
(0.969272 -0.278465 -1.58289e-19)
(0.969579 -0.278542 6.15187e-20)
(0.969894 -0.27862 2.53951e-20)
(0.970213 -0.2787 -6.92258e-20)
(0.970532 -0.278782 1.34559e-19)
(0.970846 -0.278864 4.08564e-20)
(0.971154 -0.278944 -6.85543e-21)
(0.97145 -0.279021 -4.80395e-20)
(0.971732 -0.279091 1.71902e-19)
(0.971999 -0.279151 -4.57722e-19)
(0.972248 -0.279201 2.42156e-19)
(0.97248 -0.279234 9.76864e-20)
(0.972697 -0.27925 -1.46866e-19)
(0.972899 -0.279247 2.52587e-19)
(0.973091 -0.279219 -1.23565e-19)
(0.973274 -0.279168 -5.79909e-20)
(0.973454 -0.279088 -9.24454e-20)
(0.973633 -0.278978 -4.14286e-20)
(0.973816 -0.278836 1.07221e-19)
(0.974008 -0.278666 -2.93632e-19)
(0.974211 -0.278461 5.41741e-19)
(0.974427 -0.278212 -4.84879e-20)
(0.974659 -0.277911 2.24869e-19)
(0.974911 -0.277548 -5.77396e-19)
(0.975184 -0.277114 -1.47737e-19)
(0.975483 -0.276597 4.12589e-20)
(0.975812 -0.27598 -1.36243e-19)
(0.976173 -0.275243 -3.2076e-20)
(0.976571 -0.274363 -3.5826e-19)
(0.97701 -0.273317 2.14353e-19)
(0.977494 -0.272079 1.56679e-19)
(0.978026 -0.270621 -4.60528e-19)
(0.978607 -0.26892 6.57804e-19)
(0.97923 -0.266946 7.52419e-20)
(0.979884 -0.264683 1.93844e-19)
(0.980546 -0.262108 -4.35409e-19)
(0.981177 -0.259213 2.17013e-20)
(0.981723 -0.255989 -3.37982e-19)
(0.982097 -0.252458 1.73435e-18)
(0.982196 -0.248693 1.17655e-19)
(0.981877 -0.244853 -3.5755e-18)
(0.980892 -0.241179 1.7062e-18)
(0.979152 -0.238395 -7.33281e-18)
(0.974408 -0.239554 -2.75659e-18)
(0.973109 -0.24626 -1.70182e-17)
(0.987303 -0.242043 -2.43251e-18)
(0.965918 -0.279547 -1.68763e-21)
(0.965927 -0.279505 -6.61597e-21)
(0.96607 -0.279253 -5.76324e-21)
(0.96631 -0.278952 5.56653e-20)
(0.966567 -0.278696 -3.09715e-20)
(0.966819 -0.278541 -3.69434e-20)
(0.967065 -0.278484 -1.34882e-20)
(0.967305 -0.278499 -5.55686e-20)
(0.96754 -0.278554 3.57722e-20)
(0.967775 -0.278628 5.67273e-21)
(0.968013 -0.278708 2.53113e-21)
(0.968258 -0.278788 1.4396e-19)
(0.968512 -0.278864 -1.0155e-19)
(0.968777 -0.278938 -1.17766e-20)
(0.969054 -0.279011 1.11776e-19)
(0.969342 -0.279087 -6.18219e-20)
(0.969641 -0.279164 -2.32956e-20)
(0.96995 -0.279243 3.63665e-20)
(0.970263 -0.279327 1.13868e-19)
(0.97058 -0.279413 5.78733e-20)
(0.970896 -0.2795 1.62848e-20)
(0.971208 -0.279588 -1.51089e-19)
(0.971512 -0.279673 7.30768e-20)
(0.971807 -0.279752 1.28571e-19)
(0.972089 -0.279824 -2.75226e-19)
(0.972358 -0.279885 8.24794e-20)
(0.972615 -0.27993 -3.23467e-19)
(0.97286 -0.279958 2.57022e-19)
(0.973095 -0.279964 2.07947e-19)
(0.973322 -0.279945 -3.13269e-19)
(0.973546 -0.279897 -1.52326e-19)
(0.973768 -0.279815 1.8295e-19)
(0.973994 -0.279698 6.08008e-20)
(0.974228 -0.279546 -1.36799e-19)
(0.974474 -0.279355 -1.8265e-19)
(0.974734 -0.279112 -2.03006e-19)
(0.97501 -0.27881 1.28224e-19)
(0.975307 -0.278438 2.70893e-19)
(0.975628 -0.277988 9.71099e-20)
(0.975977 -0.277448 -4.79203e-20)
(0.976355 -0.276802 7.21401e-19)
(0.976768 -0.276029 -1.19689e-19)
(0.977218 -0.27511 6.12134e-19)
(0.977708 -0.274021 -1.04533e-18)
(0.978242 -0.272738 2.52841e-19)
(0.978821 -0.271234 -1.38871e-21)
(0.979445 -0.269486 1.37406e-19)
(0.980107 -0.267464 -7.38704e-19)
(0.980797 -0.265152 -1.02698e-18)
(0.981491 -0.262525 1.03176e-18)
(0.982152 -0.259574 1.53855e-18)
(0.982727 -0.256288 1.07962e-18)
(0.983129 -0.252687 -1.98019e-18)
(0.983255 -0.248844 1.50187e-18)
(0.98296 -0.244924 4.61314e-18)
(0.981994 -0.241179 3.37793e-18)
(0.980234 -0.238367 7.15948e-18)
(0.975341 -0.239581 6.00571e-18)
(0.973949 -0.246361 1.7307e-17)
(0.987756 -0.241961 -8.41463e-18)
(0.965895 -0.280009 2.31009e-21)
(0.965899 -0.279966 -6.91651e-21)
(0.966039 -0.279717 2.47625e-20)
(0.966276 -0.279416 6.43039e-21)
(0.966529 -0.27916 -3.39895e-20)
(0.966775 -0.279002 -3.88154e-20)
(0.967012 -0.278946 9.18095e-20)
(0.967241 -0.27896 -9.93356e-20)
(0.967465 -0.279015 -2.33678e-20)
(0.967686 -0.279088 6.08047e-20)
(0.967908 -0.279167 5.49972e-20)
(0.968135 -0.279244 1.64046e-19)
(0.968371 -0.279318 -9.41499e-20)
(0.968617 -0.279389 -1.56146e-19)
(0.968874 -0.279458 3.45047e-20)
(0.969143 -0.279529 -1.21624e-19)
(0.969425 -0.279601 9.31889e-20)
(0.969719 -0.279676 -1.48258e-19)
(0.970023 -0.279756 2.78048e-20)
(0.970333 -0.27984 -4.37507e-20)
(0.97065 -0.279926 -2.44132e-20)
(0.970967 -0.280015 -1.16214e-19)
(0.971283 -0.280105 1.82309e-20)
(0.971597 -0.280192 2.55388e-19)
(0.971903 -0.280275 -8.60124e-20)
(0.972201 -0.28035 2.76963e-20)
(0.972492 -0.280413 7.60891e-20)
(0.972773 -0.280462 -8.63356e-20)
(0.973048 -0.28049 -1.89443e-20)
(0.973317 -0.280496 1.14111e-19)
(0.973582 -0.280472 1.18041e-19)
(0.973848 -0.280415 -8.01587e-20)
(0.974117 -0.280321 -2.65479e-19)
(0.974395 -0.280189 -3.73647e-19)
(0.974684 -0.280014 5.24188e-19)
(0.974989 -0.279782 1.49483e-19)
(0.97531 -0.279485 1.02837e-19)
(0.975654 -0.279114 4.3003e-19)
(0.976023 -0.278659 -3.36064e-19)
(0.97642 -0.278108 2.12159e-19)
(0.97685 -0.277445 4.54958e-20)
(0.977315 -0.276652 -2.93957e-20)
(0.977817 -0.275708 -2.36033e-19)
(0.97836 -0.274592 5.65688e-19)
(0.978946 -0.273279 -7.55932e-19)
(0.979576 -0.271743 4.45817e-19)
(0.980249 -0.269961 -1.11998e-18)
(0.980958 -0.267904 1.26402e-19)
(0.98169 -0.265553 5.97102e-19)
(0.982424 -0.262884 -1.21185e-18)
(0.983121 -0.259886 -1.091e-20)
(0.983732 -0.256547 2.18658e-19)
(0.984165 -0.252884 -6.975e-19)
(0.98432 -0.248972 -2.02483e-18)
(0.984047 -0.244982 6.7627e-20)
(0.983092 -0.241176 3.99931e-18)
(0.981301 -0.238345 -5.09109e-18)
(0.976254 -0.239611 -2.1103e-18)
(0.97478 -0.246443 -2.06997e-18)
(0.988186 -0.241882 6.52497e-18)
(0.965864 -0.280396 4.54565e-21)
(0.965865 -0.280357 -3.84342e-21)
(0.966005 -0.280111 3.52198e-21)
(0.966242 -0.279811 2.25207e-20)
(0.966492 -0.279554 3.2563e-20)
(0.966734 -0.279397 -1.27207e-19)
(0.966966 -0.279339 9.17188e-20)
(0.967188 -0.279353 1.86201e-20)
(0.967403 -0.279407 -6.13221e-21)
(0.967613 -0.27948 -4.05796e-20)
(0.967823 -0.279557 1.21444e-19)
(0.968037 -0.279632 -4.04976e-20)
(0.968257 -0.279704 -5.43135e-20)
(0.968488 -0.279771 -1.57626e-19)
(0.968728 -0.279836 3.11341e-19)
(0.96898 -0.279903 -6.60718e-20)
(0.969246 -0.27997 -5.33607e-20)
(0.969526 -0.280039 -1.52229e-19)
(0.969816 -0.280113 1.66561e-19)
(0.970117 -0.280192 8.80833e-20)
(0.970428 -0.280273 -4.41423e-20)
(0.970745 -0.280358 6.38492e-20)
(0.971066 -0.280445 -2.79102e-19)
(0.97139 -0.280531 2.36553e-20)
(0.971712 -0.280617 1.47111e-19)
(0.972032 -0.280697 -2.57462e-20)
(0.972349 -0.280768 -4.18597e-19)
(0.972661 -0.280828 4.57729e-20)
(0.97297 -0.28087 3.5281e-19)
(0.973276 -0.280892 -9.52059e-20)
(0.973581 -0.280885 -1.66764e-19)
(0.973888 -0.280847 1.03498e-19)
(0.974199 -0.28077 2.62914e-19)
(0.97452 -0.280656 5.82484e-19)
(0.974853 -0.280496 -8.24714e-20)
(0.975202 -0.280277 1.20434e-19)
(0.975569 -0.27999 -8.0204e-19)
(0.975959 -0.279624 -1.853e-19)
(0.976376 -0.27917 1.22283e-19)
(0.976823 -0.278617 -5.13641e-19)
(0.977303 -0.277948 -7.49367e-20)
(0.97782 -0.277144 2.0618e-19)
(0.978375 -0.276187 2.23974e-19)
(0.978971 -0.275055 4.77339e-19)
(0.979611 -0.273724 1.36913e-18)
(0.980294 -0.272168 -1.03608e-18)
(0.981019 -0.270363 1.65445e-18)
(0.981776 -0.268282 1.16856e-18)
(0.982556 -0.265904 -4.10522e-20)
(0.983334 -0.263202 1.7235e-18)
(0.984073 -0.260167 -2.37082e-18)
(0.984722 -0.256783 -3.30043e-18)
(0.98519 -0.253065 3.04307e-18)
(0.985376 -0.249093 3.22428e-18)
(0.985124 -0.24504 -1.84298e-18)
(0.984177 -0.241179 -1.2324e-17)
(0.982351 -0.238328 3.8633e-18)
(0.977158 -0.239636 -6.85323e-18)
(0.975636 -0.246456 -9.30503e-18)
(0.988591 -0.241744 5.8828e-18)
(0.965828 -0.280738 -5.15135e-21)
(0.965827 -0.280699 5.64401e-21)
(0.965969 -0.280453 3.84103e-20)
(0.966207 -0.28015 -5.01767e-20)
(0.966458 -0.279892 9.08815e-20)
(0.966698 -0.279734 -1.3327e-19)
(0.966927 -0.279677 3.77959e-20)
(0.967143 -0.279692 -1.58767e-21)
(0.967351 -0.279747 8.1715e-20)
(0.967553 -0.27982 -4.32621e-20)
(0.967754 -0.279896 1.24527e-20)
(0.967957 -0.279971 1.22071e-20)
(0.968166 -0.28004 -1.94961e-19)
(0.968383 -0.280105 5.95822e-20)
(0.96861 -0.280167 1.32063e-19)
(0.968848 -0.280229 3.19201e-21)
(0.969099 -0.280291 -2.1183e-19)
(0.969365 -0.280355 8.82978e-20)
(0.969643 -0.280423 3.87125e-19)
(0.969933 -0.280495 -2.54543e-19)
(0.970236 -0.280569 -1.85656e-19)
(0.970549 -0.280648 1.53644e-19)
(0.97087 -0.28073 9.59544e-20)
(0.971198 -0.280811 1.00076e-19)
(0.97153 -0.280894 -1.97442e-19)
(0.971865 -0.280973 -4.01651e-19)
(0.972202 -0.281045 3.05125e-19)
(0.972539 -0.281108 4.02332e-19)
(0.972877 -0.281156 1.04313e-19)
(0.973215 -0.281186 -2.2307e-19)
(0.973556 -0.28119 9.11415e-20)
(0.9739 -0.281163 1.56028e-19)
(0.974252 -0.2811 -2.53454e-19)
(0.974614 -0.281 -3.54847e-20)
(0.97499 -0.280852 -4.04036e-19)
(0.975383 -0.280645 -8.3807e-20)
(0.975794 -0.280368 -1.01178e-19)
(0.976231 -0.28001 2.33791e-19)
(0.976695 -0.279562 -3.40321e-19)
(0.97719 -0.279012 7.5666e-20)
(0.97772 -0.278343 1.56644e-19)
(0.978288 -0.277536 4.35461e-20)
(0.978896 -0.276574 -7.5245e-19)
(0.979546 -0.275435 -1.02348e-18)
(0.98024 -0.274095 -7.92104e-19)
(0.980977 -0.272528 1.6751e-18)
(0.981754 -0.27071 2.33227e-19)
(0.982563 -0.268613 -6.1241e-19)
(0.983393 -0.266216 3.65868e-19)
(0.984218 -0.26349 -2.30283e-18)
(0.985002 -0.260424 1.17214e-18)
(0.985693 -0.257002 3.77532e-18)
(0.986198 -0.253238 -5.25877e-20)
(0.986415 -0.249211 -4.72946e-18)
(0.986184 -0.245102 2.63025e-18)
(0.985243 -0.241191 3.17471e-18)
(0.98338 -0.238319 5.76173e-18)
(0.978045 -0.239664 1.98653e-17)
(0.976488 -0.24646 1.79673e-17)
(0.988981 -0.241628 -1.35611e-17)
(0.965786 -0.281044 -4.57791e-21)
(0.965785 -0.281005 6.60697e-21)
(0.965929 -0.280757 1.37893e-21)
(0.96617 -0.280452 2.50715e-20)
(0.966422 -0.280191 -3.80269e-20)
(0.966662 -0.280032 -7.72784e-20)
(0.966889 -0.279974 2.81133e-20)
(0.967102 -0.279989 -3.5775e-20)
(0.967305 -0.280045 7.89938e-20)
(0.967501 -0.280118 -1.5457e-20)
(0.967694 -0.280195 -5.03983e-20)
(0.967889 -0.280269 4.21166e-20)
(0.968088 -0.280338 6.64585e-20)
(0.968295 -0.280402 1.79701e-19)
(0.968511 -0.280462 -3.259e-19)
(0.968738 -0.280522 1.6364e-19)
(0.968977 -0.280581 2.24675e-20)
(0.969231 -0.28064 -1.55573e-19)
(0.969498 -0.280703 -9.30228e-20)
(0.969778 -0.280769 3.04023e-19)
(0.970073 -0.280836 -3.10875e-19)
(0.97038 -0.280908 9.43884e-20)
(0.970698 -0.280983 -2.31522e-19)
(0.971028 -0.281058 3.91188e-19)
(0.971365 -0.281134 -7.85169e-20)
(0.97171 -0.281208 -2.04032e-19)
(0.972061 -0.281277 1.68002e-19)
(0.972417 -0.281338 2.92523e-19)
(0.972779 -0.281386 -2.60247e-19)
(0.973145 -0.281419 1.51014e-19)
(0.973517 -0.281428 -4.97015e-19)
(0.973895 -0.281408 -4.22427e-20)
(0.974284 -0.281353 1.94234e-19)
(0.974685 -0.281261 -1.1577e-19)
(0.975102 -0.281123 -2.2958e-19)
(0.975537 -0.280925 -4.93903e-19)
(0.975992 -0.280658 6.08547e-19)
(0.976474 -0.280309 -2.58715e-19)
(0.976984 -0.279868 1.68334e-19)
(0.977527 -0.279323 3.63728e-19)
(0.978107 -0.278658 3.04792e-19)
(0.978726 -0.277854 -1.49196e-19)
(0.979386 -0.276893 4.9306e-19)
(0.980089 -0.275752 8.91923e-19)