/*--------------------------------*- C++ -*----------------------------------*\
  =========                 |
  \\      /  F ield         | OpenFOAM: The Open Source CFD Toolbox
   \\    /   O peration     | Website:  https://openfoam.org
    \\  /    A nd           | Version:  6.0
     \\/     M anipulation  |
\*---------------------------------------------------------------------------*/
FoamFile
{
    version     2.0;
    format      ascii;
    class       volScalarField;
    location    "0.59";
    object      p;
}
// * * * * * * * * * * * * * * * * * * * * * * * * * * * * * * * * * * * * * //

dimensions      [0 2 -2 0 0 0 0];

internalField   nonuniform List<scalar> 
13500
(
0.1021
0.10227
0.10136
0.10163
0.099732
0.1008
0.098251
0.10137
0.099736
0.1077
0.12282
0.17574
0.1021
0.10227
0.10136
0.10164
0.09973
0.1008
0.098247
0.10137
0.099729
0.10775
0.12218
0.17063
0.1021
0.10227
0.10136
0.10164
0.099727
0.10081
0.09824
0.10138
0.099715
0.10778
0.12134
0.16611
0.1021
0.10227
0.10136
0.10164
0.099722
0.10081
0.09823
0.10138
0.099694
0.1078
0.12041
0.16261
0.1021
0.10227
0.10135
0.10165
0.099718
0.10082
0.09822
0.10139
0.099668
0.1078
0.11944
0.15967
0.1021
0.10228
0.10135
0.10165
0.099714
0.10082
0.09821
0.10139
0.099638
0.10779
0.11845
0.15706
0.1021
0.10228
0.10135
0.10165
0.09971
0.10083
0.0982
0.10139
0.099605
0.10777
0.11747
0.1547
0.1021
0.10228
0.10135
0.10166
0.099706
0.10083
0.098188
0.10139
0.099567
0.10773
0.11651
0.15255
0.1021
0.10228
0.10135
0.10166
0.099702
0.10084
0.098177
0.10138
0.099526
0.10769
0.11558
0.15058
0.10211
0.10229
0.10135
0.10167
0.099698
0.10084
0.098164
0.10138
0.099481
0.10765
0.11469
0.14875
0.10211
0.10229
0.10135
0.10167
0.099694
0.10084
0.098152
0.10138
0.099432
0.10759
0.11383
0.14704
0.10211
0.1023
0.10135
0.10168
0.09969
0.10085
0.098138
0.10137
0.09938
0.10753
0.11301
0.14544
0.10212
0.1023
0.10135
0.10168
0.099686
0.10085
0.098124
0.10136
0.099324
0.10746
0.11222
0.14392
0.10212
0.10231
0.10136
0.10169
0.099683
0.10085
0.09811
0.10135
0.099265
0.10739
0.11147
0.14249
0.10212
0.10231
0.10136
0.10169
0.099679
0.10085
0.098095
0.10134
0.099203
0.10731
0.11074
0.14113
0.10213
0.10232
0.10136
0.1017
0.099675
0.10085
0.09808
0.10133
0.099138
0.10723
0.11003
0.13983
0.10213
0.10232
0.10136
0.1017
0.099672
0.10086
0.098064
0.10131
0.09907
0.10714
0.10934
0.13858
0.10214
0.10233
0.10136
0.10171
0.099668
0.10086
0.098047
0.1013
0.098999
0.10705
0.10867
0.13738
0.10214
0.10233
0.10137
0.10171
0.099665
0.10086
0.09803
0.10128
0.098925
0.10696
0.10802
0.13623
0.10215
0.10234
0.10137
0.10172
0.099662
0.10086
0.098013
0.10126
0.098848
0.10686
0.10738
0.13511
0.10215
0.10235
0.10137
0.10172
0.099659
0.10086
0.097995
0.10124
0.098769
0.10675
0.10676
0.13402
0.10216
0.10236
0.10138
0.10173
0.099656
0.10086
0.097977
0.10122
0.098688
0.10665
0.10614
0.13297
0.10217
0.10236
0.10138
0.10174
0.099653
0.10086
0.097958
0.1012
0.098604
0.10654
0.10554
0.13195
0.10217
0.10237
0.10138
0.10174
0.09965
0.10086
0.097938
0.10118
0.098518
0.10643
0.10494
0.13095
0.10218
0.10238
0.10139
0.10175
0.099647
0.10085
0.097919
0.10115
0.098429
0.10631
0.10436
0.12998
0.10219
0.10239
0.10139
0.10175
0.099645
0.10085
0.097898
0.10113
0.098339
0.10619
0.10379
0.12903
0.1022
0.1024
0.1014
0.10176
0.099642
0.10085
0.097878
0.1011
0.098246
0.10606
0.10323
0.1281
0.10221
0.10241
0.1014
0.10177
0.09964
0.10085
0.097856
0.10107
0.098151
0.10594
0.10268
0.12719
0.10222
0.10241
0.10141
0.10177
0.099637
0.10085
0.097835
0.10104
0.098055
0.10581
0.10213
0.12629
0.10222
0.10242
0.10142
0.10178
0.099635
0.10084
0.097813
0.10101
0.097957
0.10568
0.1016
0.12542
0.10223
0.10244
0.10142
0.10179
0.099633
0.10084
0.09779
0.10097
0.097857
0.10554
0.10108
0.12456
0.10224
0.10245
0.10143
0.1018
0.099631
0.10084
0.097767
0.10094
0.097755
0.1054
0.10056
0.12371
0.10226
0.10246
0.10144
0.1018
0.09963
0.10083
0.097744
0.1009
0.097652
0.10526
0.10006
0.12288
0.10227
0.10247
0.10145
0.10181
0.099628
0.10083
0.09772
0.10087
0.097547
0.10511
0.099565
0.12206
0.10228
0.10248
0.10145
0.10182
0.099627
0.10082
0.097696
0.10083
0.097441
0.10497
0.099079
0.12125
0.10229
0.10249
0.10146
0.10183
0.099625
0.10082
0.097671
0.10079
0.097333
0.10482
0.098602
0.12046
0.1023
0.1025
0.10147
0.10183
0.099624
0.10081
0.097646
0.10075
0.097225
0.10466
0.098134
0.11968
0.10232
0.10252
0.10148
0.10184
0.099623
0.10081
0.097621
0.10071
0.097115
0.10451
0.097676
0.11891
0.10233
0.10253
0.10149
0.10185
0.099622
0.1008
0.097595
0.10066
0.097003
0.10435
0.097226
0.11814
0.10234
0.10254
0.1015
0.10186
0.099622
0.10079
0.097569
0.10062
0.096891
0.10419
0.096785
0.11739
0.10236
0.10256
0.10151
0.10187
0.099621
0.10079
0.097542
0.10058
0.096778
0.10403
0.096352
0.11665
0.10237
0.10257
0.10152
0.10188
0.099621
0.10078
0.097515
0.10053
0.096664
0.10387
0.095928
0.11592
0.10239
0.10259
0.10153
0.10189
0.099621
0.10077
0.097488
0.10048
0.096549
0.1037
0.095512
0.1152
0.1024
0.1026
0.10154
0.1019
0.099621
0.10077
0.09746
0.10043
0.096433
0.10353
0.095104
0.11449
0.10242
0.10262
0.10155
0.1019
0.099621
0.10076
0.097432
0.10038
0.096316
0.10336
0.094705
0.11379
0.10243
0.10263
0.10157
0.10191
0.099621
0.10075
0.097404
0.10033
0.096198
0.10319
0.094313
0.11309
0.10245
0.10265
0.10158
0.10192
0.099622
0.10074
0.097375
0.10028
0.09608
0.10301
0.093929
0.11241
0.10247
0.10267
0.10159
0.10193
0.099623
0.10073
0.097346
0.10023
0.095962
0.10284
0.093552
0.11173
0.10249
0.10268
0.10161
0.10194
0.099624
0.10072
0.097317
0.10017
0.095842
0.10266
0.093183
0.11106
0.10251
0.1027
0.10162
0.10195
0.099625
0.10071
0.097287
0.10012
0.095722
0.10248
0.092822
0.1104
0.10252
0.10272
0.10164
0.10197
0.099627
0.1007
0.097258
0.10006
0.095602
0.1023
0.092468
0.10974
0.10254
0.10274
0.10165
0.10198
0.099628
0.10069
0.097227
0.1
0.095481
0.10211
0.09212
0.1091
0.10256
0.10276
0.10167
0.10199
0.09963
0.10068
0.097197
0.099946
0.09536
0.10193
0.09178
0.10846
0.10259
0.10278
0.10168
0.102
0.099632
0.10067
0.097166
0.099887
0.095239
0.10174
0.091446
0.10783
0.10261
0.1028
0.1017
0.10201
0.099635
0.10066
0.097135
0.099826
0.095117
0.10155
0.091119
0.1072
0.10263
0.10282
0.10172
0.10202
0.099638
0.10065
0.097104
0.099765
0.094995
0.10137
0.090799
0.10659
0.10265
0.10284
0.10173
0.10203
0.09964
0.10064
0.097073
0.099703
0.094873
0.10117
0.090484
0.10598
0.10267
0.10286
0.10175
0.10205
0.099644
0.10063
0.097041
0.09964
0.09475
0.10098
0.090176
0.10538
0.1027
0.10288
0.10177
0.10206
0.099647
0.10062
0.09701
0.099576
0.094628
0.10079
0.089874
0.10478
0.10272
0.10291
0.10179
0.10207
0.099651
0.10061
0.096978
0.099511
0.094505
0.10059
0.089578
0.1042
0.10275
0.10293
0.10181
0.10209
0.099655
0.1006
0.096945
0.099445
0.094383
0.1004
0.089288
0.10362
0.10277
0.10295
0.10183
0.1021
0.099659
0.10058
0.096913
0.099378
0.09426
0.1002
0.089004
0.10304
0.1028
0.10298
0.10185
0.10211
0.099664
0.10057
0.096881
0.09931
0.094137
0.1
0.088724
0.10247
0.10282
0.103
0.10187
0.10213
0.099669
0.10056
0.096848
0.099242
0.094015
0.099802
0.088451
0.10191
0.10285
0.10303
0.10189
0.10214
0.099674
0.10055
0.096815
0.099172
0.093892
0.099602
0.088182
0.10136
0.10288
0.10305
0.10192
0.10216
0.099679
0.10053
0.096782
0.099102
0.093769
0.0994
0.087919
0.10081
0.10291
0.10308
0.10194
0.10217
0.099685
0.10052
0.096749
0.099031
0.093647
0.099198
0.08766
0.10027
0.10294
0.10311
0.10196
0.10219
0.099691
0.10051
0.096716
0.098959
0.093525
0.098995
0.087407
0.099739
0.10296
0.10314
0.10199
0.1022
0.099698
0.10049
0.096683
0.098887
0.093403
0.09879
0.087158
0.099212
0.103
0.10316
0.10201
0.10222
0.099705
0.10048
0.09665
0.098813
0.093281
0.098585
0.086914
0.09869
0.10303
0.10319
0.10204
0.10223
0.099712
0.10046
0.096616
0.098739
0.093159
0.098379
0.086674
0.098175
0.10306
0.10322
0.10206
0.10225
0.099719
0.10045
0.096583
0.098664
0.093038
0.098173
0.086438
0.097666
0.10309
0.10325
0.10209
0.10227
0.099727
0.10044
0.096549
0.098588
0.092917
0.097966
0.086207
0.097163
0.10312
0.10328
0.10212
0.10228
0.099736
0.10042
0.096516
0.098512
0.092796
0.097758
0.08598
0.096666
0.10316
0.10331
0.10214
0.1023
0.099744
0.10041
0.096482
0.098435
0.092675
0.097549
0.085757
0.096175
0.10319
0.10335
0.10217
0.10232
0.099754
0.10039
0.096449
0.098357
0.092555
0.09734
0.085537
0.09569
0.10323
0.10338
0.1022
0.10234
0.099763
0.10038
0.096415
0.098279
0.092435
0.09713
0.085322
0.09521
0.10326
0.10341
0.10223
0.10236
0.099773
0.10036
0.096382
0.0982
0.092316
0.09692
0.08511
0.094737
0.1033
0.10345
0.10226
0.10238
0.099783
0.10035
0.096348
0.09812
0.092197
0.096709
0.084901
0.094268
0.10334
0.10348
0.10229
0.1024
0.099794
0.10034
0.096315
0.098039
0.092078
0.096498
0.084696
0.093806
0.10338
0.10352
0.10233
0.10242
0.099805
0.10032
0.096281
0.097958
0.091959
0.096286
0.084494
0.093349
0.10342
0.10355
0.10236
0.10244
0.099817
0.10031
0.096248
0.097877
0.091841
0.096074
0.084295
0.092897
0.10346
0.10359
0.10239
0.10246
0.099829
0.10029
0.096215
0.097795
0.091724
0.095861
0.084099
0.092451
0.1035
0.10363
0.10243
0.10248
0.099842
0.10028
0.096182
0.097712
0.091606
0.095648
0.083906
0.092009
0.10354
0.10367
0.10246
0.1025
0.099855
0.10026
0.096149
0.097628
0.09149
0.095435
0.083716
0.091573
0.10358
0.10371
0.1025
0.10253
0.099869
0.10025
0.096116
0.097545
0.091373
0.095222
0.083529
0.091142
0.10362
0.10375
0.10254
0.10255
0.099883
0.10023
0.096083
0.09746
0.091258
0.095008
0.083344
0.090716
0.10367
0.10379
0.10257
0.10257
0.099898
0.10022
0.09605
0.097375
0.091142
0.094794
0.083162
0.090295
0.10371
0.10383
0.10261
0.1026
0.099913
0.1002
0.096017
0.09729
0.091027
0.09458
0.082982
0.089879
0.10376
0.10387
0.10265
0.10262
0.099929
0.10019
0.095985
0.097204
0.090913
0.094366
0.082805
0.089467
0.10381
0.10392
0.10269
0.10265
0.099945
0.10017
0.095953
0.097118
0.090799
0.094151
0.08263
0.08906
0.10386
0.10396
0.10273
0.10268
0.099962
0.10016
0.095921
0.097031
0.090685
0.093937
0.082457
0.088658
0.1039
0.10401
0.10277
0.1027
0.099979
0.10014
0.095889
0.096943
0.090572
0.093722
0.082285
0.08826
0.10395
0.10405
0.10282
0.10273
0.099998
0.10013
0.095857
0.096856
0.090459
0.093507
0.082116
0.087867
0.10401
0.1041
0.10286
0.10276
0.10002
0.10012
0.095825
0.096768
0.090347
0.093292
0.081949
0.087477
0.10406
0.10415
0.1029
0.10279
0.10004
0.1001
0.095794
0.096679
0.090235
0.093077
0.081783
0.087092
0.10411
0.1042
0.10295
0.10282
0.10006
0.10009
0.095763
0.09659
0.090124
0.092862
0.081619
0.086711
0.10416
0.10425
0.103
0.10285
0.10008
0.10008
0.095732
0.096501
0.090013
0.092647
0.081457
0.086334
0.10422
0.1043
0.10305
0.10288
0.1001
0.10006
0.095702
0.096411
0.089903
0.092432
0.081296
0.085961
0.10428
0.10435
0.10309
0.10291
0.10012
0.10005
0.095672
0.096321
0.089793
0.092217
0.081136
0.085592
0.10433
0.1044
0.10314
0.10294
0.10014
0.10004
0.095642
0.096231
0.089684
0.092002
0.080978
0.085227
0.10439
0.10446
0.10319
0.10297
0.10017
0.10002
0.095612
0.096141
0.089575
0.091787
0.080821
0.084865
0.10445
0.10451
0.10325
0.10301
0.10019
0.10001
0.095583
0.09605
0.089466
0.091572
0.080665
0.084507
0.10451
0.10457
0.1033
0.10304
0.10022
0.099998
0.095554
0.095959
0.089358
0.091357
0.08051
0.084152
0.10458
0.10463
0.10335
0.10308
0.10024
0.099987
0.095526
0.095867
0.089251
0.091142
0.080356
0.083801
0.10464
0.10469
0.10341
0.10312
0.10027
0.099975
0.095497
0.095776
0.089144
0.090927
0.080203
0.083452
0.1047
0.10475
0.10347
0.10315
0.1003
0.099964
0.09547
0.095684
0.089037
0.090712
0.08005
0.083107
0.10477
0.10481
0.10352
0.10319
0.10033
0.099953
0.095442
0.095592
0.088931
0.090497
0.079899
0.082765
0.10484
0.10487
0.10358
0.10323
0.10036
0.099943
0.095415
0.0955
0.088825
0.090283
0.079748
0.082426
0.10491
0.10494
0.10364
0.10327
0.10039
0.099933
0.095389
0.095407
0.088719
0.090068
0.079597
0.08209
0.10498
0.105
0.10371
0.10331
0.10042
0.099924
0.095362
0.095315
0.088614
0.089854
0.079447
0.081757
0.10505
0.10507
0.10377
0.10336
0.10045
0.099915
0.095337
0.095222
0.088509
0.089639
0.079297
0.081426
0.10512
0.10514
0.10383
0.1034
0.10048
0.099907
0.095312
0.095129
0.088405
0.089425
0.079148
0.081098
0.1052
0.10521
0.1039
0.10345
0.10052
0.099899
0.095287
0.095037
0.088301
0.089211
0.078998
0.080772
0.10527
0.10528
0.10397
0.10349
0.10055
0.099891
0.095263
0.094944
0.088197
0.088997
0.078849
0.080449
0.10535
0.10535
0.10404
0.10354
0.10059
0.099885
0.095239
0.094851
0.088094
0.088783
0.0787
0.080128
0.10543
0.10543
0.10411
0.10359
0.10063
0.099879
0.095216
0.094758
0.087991
0.088569
0.078551
0.079809
0.10551
0.10551
0.10418
0.10364
0.10067
0.099873
0.095194
0.094665
0.087888
0.088355
0.078402
0.079492
0.1056
0.10558
0.10425
0.10369
0.10071
0.099869
0.095172
0.094572
0.087786
0.088141
0.078253
0.079177
0.10568
0.10566
0.10433
0.10374
0.10075
0.099865
0.095151
0.094479
0.087684
0.087927
0.078103
0.078863
0.10577
0.10575
0.10441
0.1038
0.10079
0.099862
0.09513
0.094386
0.087582
0.087714
0.077953
0.078552
0.10586
0.10583
0.10449
0.10385
0.10084
0.09986
0.09511
0.094293
0.08748
0.0875
0.077803
0.078242
0.10595
0.10592
0.10457
0.10391
0.10088
0.099858
0.095091
0.0942
0.087379
0.087287
0.077652
0.077933
0.10604
0.106
0.10465
0.10397
0.10093
0.099858
0.095073
0.094107
0.087278
0.087073
0.077501
0.077626
0.10614
0.10609
0.10474
0.10403
0.10098
0.099859
0.095055
0.094015
0.087177
0.08686
0.077348
0.07732
0.10623
0.10618
0.10482
0.10409
0.10103
0.09986
0.095038
0.093922
0.087076
0.086647
0.077196
0.077016
0.10633
0.10628
0.10491
0.10416
0.10108
0.099863
0.095022
0.09383
0.086976
0.086433
0.077042
0.076712
0.10643
0.10637
0.10501
0.10422
0.10113
0.099866
0.095007
0.093738
0.086876
0.08622
0.076888
0.076409
0.10654
0.10647
0.1051
0.10429
0.10119
0.099871
0.094993
0.093646
0.086776
0.086007
0.076733
0.076107
0.10664
0.10657
0.1052
0.10436
0.10124
0.099877
0.094979
0.093555
0.086676
0.085793
0.076576
0.075806
0.10675
0.10668
0.10529
0.10444
0.1013
0.099885
0.094967
0.093464
0.086576
0.08558
0.076419
0.075506
0.10686
0.10678
0.10539
0.10451
0.10136
0.099894
0.094955
0.093373
0.086477
0.085367
0.07626
0.075205
0.10698
0.10689
0.1055
0.10459
0.10142
0.099904
0.094945
0.093283
0.086377
0.085153
0.0761
0.074905
0.1071
0.107
0.1056
0.10467
0.10149
0.099915
0.094936
0.093193
0.086278
0.084939
0.075939
0.074605
0.10722
0.10712
0.10571
0.10475
0.10156
0.099929
0.094928
0.093103
0.086179
0.084726
0.075777
0.074306
0.10734
0.10724
0.10583
0.10483
0.10163
0.099944
0.094921
0.093014
0.08608
0.084512
0.075613
0.074006
0.10746
0.10736
0.10594
0.10492
0.1017
0.09996
0.094915
0.092926
0.085981
0.084298
0.075447
0.073706
0.10759
0.10748
0.10606
0.10501
0.10177
0.099978
0.094911
0.092838
0.085882
0.084084
0.07528
0.073406
0.10773
0.10761
0.10618
0.1051
0.10185
0.099999
0.094908
0.092751
0.085783
0.08387
0.075111
0.073105
0.10786
0.10774
0.1063
0.1052
0.10192
0.10002
0.094906
0.092664
0.085685
0.083655
0.07494
0.072804
0.108
0.10787
0.10643
0.1053
0.10201
0.10005
0.094906
0.092578
0.085586
0.08344
0.074767
0.072501
0.10814
0.10801
0.10656
0.1054
0.10209
0.10007
0.094907
0.092493
0.085488
0.083225
0.074593
0.072199
0.10829
0.10815
0.1067
0.1055
0.10218
0.1001
0.09491
0.092409
0.085389
0.08301
0.074416
0.071895
0.10844
0.1083
0.10684
0.10561
0.10227
0.10013
0.094915
0.092325
0.085291
0.082795
0.074237
0.071589
0.10859
0.10845
0.10698
0.10572
0.10236
0.10016
0.094921
0.092242
0.085192
0.082579
0.074056
0.071283
0.10875
0.1086
0.10713
0.10584
0.10246
0.1002
0.09493
0.092161
0.085094
0.082363
0.073872
0.070975
0.10891
0.10876
0.10728
0.10596
0.10256
0.10024
0.09494
0.09208
0.084996
0.082146
0.073687
0.070666
0.10908
0.10892
0.10743
0.10608
0.10266
0.10028
0.094952
0.092001
0.084898
0.081929
0.073498
0.070354
0.10925
0.10909
0.10759
0.10621
0.10277
0.10033
0.094966
0.091922
0.0848
0.081712
0.073307
0.070041
0.10943
0.10926
0.10776
0.10634
0.10288
0.10037
0.094982
0.091845
0.084702
0.081494
0.073114
0.069726
0.10961
0.10944
0.10793
0.10648
0.10299
0.10042
0.095001
0.091769
0.084604
0.081276
0.072917
0.069408
0.1098
0.10962
0.1081
0.10662
0.10311
0.10048
0.095022
0.091695
0.084506
0.081057
0.072718
0.069088
0.10999
0.10981
0.10828
0.10677
0.10324
0.10054
0.095045
0.091622
0.084408
0.080837
0.072516
0.068766
0.11019
0.11
0.10847
0.10692
0.10337
0.1006
0.095071
0.09155
0.08431
0.080617
0.072311
0.06844
0.11039
0.1102
0.10866
0.10708
0.1035
0.10066
0.0951
0.09148
0.084213
0.080397
0.072102
0.068112
0.1106
0.1104
0.10886
0.10724
0.10364
0.10073
0.095132
0.091412
0.084115
0.080175
0.07189
0.067781
0.11082
0.11062
0.10906
0.10741
0.10378
0.10081
0.095166
0.091346
0.084018
0.079953
0.071675
0.067446
0.11104
0.11084
0.10927
0.10759
0.10393
0.10088
0.095204
0.091281
0.08392
0.07973
0.071456
0.067107
0.11127
0.11106
0.10949
0.10777
0.10408
0.10097
0.095245
0.091218
0.083823
0.079507
0.071234
0.066765
0.11151
0.11129
0.10971
0.10796
0.10424
0.10105
0.095289
0.091157
0.083726
0.079282
0.071007
0.066419
0.11175
0.11153
0.10994
0.10815
0.1044
0.10114
0.095336
0.091099
0.083629
0.079057
0.070777
0.066069
0.112
0.11178
0.11018
0.10835
0.10458
0.10124
0.095387
0.091042
0.083532
0.07883
0.070543
0.065715
0.11226
0.11204
0.11042
0.10856
0.10475
0.10134
0.095442
0.090988
0.083435
0.078603
0.070305
0.065356
0.11253
0.1123
0.11068
0.10878
0.10494
0.10145
0.095501
0.090936
0.083338
0.078374
0.070062
0.064991
0.1128
0.11257
0.11094
0.109
0.10513
0.10157
0.095564
0.090886
0.083241
0.078144
0.069815
0.064622
0.11308
0.11285
0.11121
0.10924
0.10533
0.10169
0.095631
0.09084
0.083145
0.077913
0.069563
0.064248
0.11338
0.11314
0.11149
0.10948
0.10553
0.10181
0.095702
0.090795
0.083048
0.077681
0.069306
0.063868
0.11368
0.11344
0.11178
0.10973
0.10575
0.10194
0.095778
0.090754
0.082952
0.077447
0.069044
0.063481
0.11399
0.11375
0.11208
0.10999
0.10597
0.10208
0.095859
0.090715
0.082855
0.077211
0.068777
0.063089
0.11431
0.11407
0.11239
0.11025
0.1062
0.10223
0.095944
0.090679
0.082759
0.076974
0.068504
0.06269
0.11464
0.1144
0.11271
0.11053
0.10644
0.10238
0.096035
0.090646
0.082662
0.076735
0.068226
0.062284
0.11498
0.11474
0.11304
0.11082
0.10669
0.10254
0.096131
0.090616
0.082566
0.076494
0.067942
0.061871
0.11534
0.1151
0.11338
0.11112
0.10695
0.10271
0.096232
0.09059
0.082469
0.076251
0.067652
0.061451
0.1157
0.11546
0.11373
0.11143
0.10721
0.10289
0.096338
0.090566
0.082373
0.076005
0.067355
0.061023
0.11608
0.11584
0.1141
0.11176
0.10749
0.10307
0.09645
0.090546
0.082276
0.075758
0.067052
0.060586
0.11647
0.11623
0.11447
0.11209
0.10778
0.10327
0.096569
0.090529
0.082178
0.075507
0.066742
0.060141
0.11687
0.11663
0.11486
0.11244
0.10808
0.10347
0.096693
0.090515
0.082081
0.075254
0.066424
0.059686
0.11728
0.11704
0.11527
0.11279
0.10839
0.10368
0.096823
0.090505
0.081982
0.074997
0.066099
0.059222
0.11771
0.11747
0.11569
0.11317
0.10871
0.1039
0.09696
0.090498
0.081883
0.074738
0.065766
0.058748
0.11815
0.11792
0.11612
0.11355
0.10904
0.10413
0.097103
0.090495
0.081784
0.074474
0.065425
0.058263
0.11861
0.11838
0.11656
0.11395
0.10939
0.10438
0.097253
0.090495
0.081683
0.074207
0.065075
0.057767
0.11908
0.11885
0.11703
0.11437
0.10975
0.10463
0.09741
0.090498
0.081582
0.073935
0.064715
0.05726
0.11957
0.11934
0.11751
0.1148
0.11012
0.10489
0.097574
0.090505
0.081478
0.073659
0.064346
0.05674
0.12007
0.11985
0.118
0.11524
0.11051
0.10516
0.097745
0.090515
0.081374
0.073378
0.063967
0.056207
0.12059
0.12038
0.11851
0.11571
0.11091
0.10545
0.097924
0.090529
0.081268
0.073091
0.063577
0.055661
0.12113
0.12092
0.11904
0.11619
0.11132
0.10575
0.09811
0.090546
0.081159
0.072799
0.063176
0.055101
0.12168
0.12148
0.11959
0.11668
0.11175
0.10605
0.098303
0.090566
0.081048
0.0725
0.062763
0.054526
0.12226
0.12207
0.12016
0.1172
0.1122
0.10638
0.098505
0.090589
0.080935
0.072195
0.062337
0.053935
0.12285
0.12267
0.12075
0.11773
0.11266
0.10671
0.098714
0.090615
0.080818
0.071882
0.061898
0.053327
0.12347
0.12329
0.12136
0.11829
0.11314
0.10706
0.098931
0.090644
0.080698
0.07156
0.061445
0.052702
0.1241
0.12394
0.12199
0.11887
0.11364
0.10742
0.099157
0.090676
0.080575
0.071231
0.060977
0.052059
0.12476
0.12461
0.12265
0.11946
0.11416
0.1078
0.099391
0.090711
0.080446
0.070891
0.060494
0.051396
0.12544
0.1253
0.12333
0.12008
0.11469
0.10819
0.099634
0.090748
0.080314
0.070542
0.059994
0.050713
0.12615
0.12602
0.12403
0.12073
0.11525
0.1086
0.099886
0.090787
0.080175
0.070181
0.059476
0.050008
0.12688
0.12677
0.12477
0.1214
0.11583
0.10902
0.10015
0.090828
0.080031
0.069809
0.05894
0.049281
0.12764
0.12754
0.12553
0.12209
0.11643
0.10946
0.10042
0.090871
0.07988
0.069424
0.058384
0.04853
0.12843
0.12835
0.12632
0.12282
0.11705
0.10991
0.1007
0.090915
0.079723
0.069026
0.057807
0.047754
0.12924
0.12918
0.12714
0.12357
0.1177
0.11039
0.10098
0.090961
0.079557
0.068612
0.057208
0.04695
0.13009
0.13005
0.12799
0.12436
0.11838
0.11088
0.10128
0.091008
0.079383
0.068183
0.056585
0.046119
0.13097
0.13096
0.12888
0.12517
0.11908
0.1114
0.10159
0.091055
0.079199
0.067736
0.055937
0.045258
0.13189
0.1319
0.12981
0.12602
0.11981
0.11193
0.10191
0.091103
0.079005
0.067272
0.055263
0.044365
0.13285
0.13288
0.13077
0.12691
0.12057
0.11249
0.10224
0.091151
0.0788
0.066787
0.054561
0.043439
0.13384
0.1339
0.13178
0.12784
0.12137
0.11307
0.10258
0.091198
0.078582
0.066281
0.053829
0.042478
0.13488
0.13497
0.13283
0.12881
0.1222
0.11368
0.10294
0.091245
0.078351
0.065753
0.053065
0.041479
0.13597
0.13609
0.13394
0.12983
0.12306
0.11431
0.1033
0.09129
0.078105
0.065199
0.052268
0.040441
0.1371
0.13726
0.13509
0.1309
0.12397
0.11497
0.10368
0.091333
0.077843
0.064619
0.051434
0.03936
0.13829
0.13848
0.1363
0.13201
0.12492
0.11566
0.10407
0.091373
0.077563
0.06401
0.050562
0.038234
0.13953
0.13977
0.13757
0.13318
0.12591
0.11638
0.10447
0.091409
0.077263
0.06337
0.049648
0.037061
0.14083
0.14112
0.1389
0.13442
0.12695
0.11713
0.10489
0.09144
0.076942
0.062696
0.04869
0.035837
0.1422
0.14254
0.14031
0.13571
0.12805
0.11791
0.10532
0.091465
0.076597
0.061985
0.047684
0.034559
0.14363
0.14403
0.14178
0.13707
0.12919
0.11873
0.10576
0.091482
0.076224
0.061233
0.046628
0.033223
0.14514
0.1456
0.14334
0.13851
0.1304
0.11959
0.10621
0.091489
0.075821
0.060437
0.045516
0.031825
0.14673
0.14726
0.14498
0.14003
0.13166
0.12048
0.10668
0.091482
0.075384
0.059592
0.044344
0.030362
0.1484
0.149
0.14672
0.14163
0.13299
0.12142
0.10715
0.09146
0.074908
0.058694
0.043107
0.028827
0.15016
0.15085
0.14855
0.14332
0.13439
0.12239
0.10763
0.091418
0.074388
0.057735
0.041799
0.027215
0.15202
0.1528
0.15049
0.1451
0.13586
0.12341
0.10812
0.09135
0.073817
0.05671
0.040413
0.025521
0.15397
0.15486
0.15254
0.14699
0.13741
0.12446
0.10861
0.091253
0.07319
0.05561
0.038942
0.023737
0.15604
0.15704
0.15471
0.14898
0.13903
0.12556
0.1091
0.091118
0.072497
0.054427
0.037378
0.021856
0.15822
0.15935
0.15701
0.15109
0.14074
0.1267
0.10959
0.090939
0.071728
0.053152
0.03571
0.019869
0.16053
0.1618
0.15946
0.15332
0.14253
0.12787
0.11006
0.090704
0.070874
0.051772
0.033928
0.017767
0.16297
0.16439
0.16205
0.15568
0.14441
0.12907
0.1105
0.090403
0.06992
0.050275
0.032021
0.015539
0.16554
0.16715
0.1648
0.15818
0.14638
0.13031
0.11092
0.090023
0.068854
0.048648
0.029975
0.013173
0.16827
0.17007
0.16772
0.16082
0.14844
0.13157
0.11129
0.089549
0.067657
0.046873
0.027775
0.010657
0.17116
0.17317
0.17083
0.16362
0.1506
0.13284
0.11161
0.088961
0.066312
0.044933
0.025406
0.0079744
0.17422
0.17648
0.17414
0.16658
0.15284
0.13411
0.11185
0.08824
0.064798
0.042809
0.022849
0.0051114
0.17746
0.18
0.17768
0.16971
0.15517
0.13537
0.11199
0.08736
0.063089
0.040478
0.020085
0.0020507
0.18091
0.18376
0.18145
0.17303
0.15759
0.13661
0.11201
0.086293
0.061159
0.037916
0.017093
-0.0012256
0.18459
0.18779
0.18549
0.17654
0.16008
0.1378
0.11188
0.085003
0.058975
0.035096
0.013851
-0.0047366
0.1885
0.19211
0.18983
0.18027
0.16265
0.1389
0.11155
0.08345
0.056499
0.031985
0.010332
-0.0085026
0.19269
0.19676
0.19449
0.18421
0.16527
0.13989
0.11097
0.081583
0.053687
0.028547
0.0065069
-0.012545
0.19718
0.20178
0.1995
0.18838
0.16791
0.14072
0.11009
0.079342
0.050486
0.02474
0.0023444
-0.016886
0.20199
0.20721
0.20492
0.19278
0.17055
0.14131
0.10884
0.076656
0.046836
0.020515
-0.0021924
-0.021551
0.20717
0.21312
0.21077
0.19741
0.17312
0.14158
0.1071
0.073437
0.042664
0.015817
-0.0071448
-0.026564
0.21275
0.21954
0.21708
0.20223
0.17554
0.14142
0.10478
0.069583
0.037885
0.01058
-0.012558
-0.031953
0.21875
0.22654
0.22387
0.2072
0.1777
0.14068
0.10172
0.064973
0.032408
0.0047369
-0.018481
-0.037742
0.22523
0.23418
0.23116
0.21223
0.17942
0.13918
0.097762
0.059472
0.026129
-0.0017845
-0.024959
-0.043952
0.2322
0.24249
0.23889
0.21715
0.18049
0.13668
0.092698
0.05293
0.018947
-0.0090497
-0.032029
-0.050591
0.23972
0.25151
0.24698
0.22174
0.18059
0.13288
0.086302
0.045191
0.010767
-0.017108
-0.039708
-0.057648
0.24784
0.26124
0.25523
0.22562
0.1793
0.12744
0.078322
0.036106
0.0015165
-0.025979
-0.047978
-0.065078
0.25664
0.27161
0.26326
0.22823
0.17608
0.11993
0.068502
0.02555
-0.0088366
-0.035632
-0.056772
-0.072789
0.26625
0.2824
0.27043
0.22875
0.17022
0.10989
0.05661
0.013451
-0.02026
-0.045976
-0.065962
-0.08064
0.27688
0.29319
0.27567
0.22601
0.16085
0.096853
0.042484
-0.00016321
-0.032629
-0.056839
-0.075352
-0.088437
0.28884
0.30313
0.27728
0.21839
0.14695
0.080406
0.02611
-0.015123
-0.045704
-0.067963
-0.084686
-0.095947
0.30259
0.31071
0.27272
0.2038
0.12745
0.060309
0.0076854
-0.031072
-0.059111
-0.079013
-0.09367
-0.10294
0.31867
0.31363
0.25856
0.17981
0.10141
0.036584
-0.012348
-0.047483
-0.072375
-0.089611
-0.10201
-0.10921
0.33752
0.30896
0.23113
0.14421
0.068265
0.009585
-0.033364
-0.063745
-0.084998
-0.099398
-0.10948
-0.11463
0.35852
0.29277
0.18773
0.096219
0.028363
-0.019997
-0.054703
-0.079335
-0.096605
-0.10814
-0.11596
-0.11922
0.38046
0.25789
0.12503
0.036056
-0.017558
-0.051752
-0.076227
-0.094265
-0.10729
-0.11599
-0.12166
-0.12328
0.41166
0.20274
0.041146
-0.035718
-0.069208
-0.086399
-0.099118
-0.10976
-0.11818
-0.12394
-0.12746
-0.12762
0.4638
0.1438
-0.051585
-0.11141
-0.12208
-0.12191
-0.12289
-0.12605
-0.12973
-0.13247
-0.13384
-0.13259
0.10143
0.061833
0.052163
0.047666
0.046089
0.046369
0.047669
0.049333
0.050908
0.052125
0.052761
0.052804
0.12014
0.076232
0.063946
0.057466
0.054777
0.054529
0.055679
0.05742
0.059176
0.060603
0.061375
0.061945
0.10723
0.070753
0.059396
0.052639
0.049506
0.048777
0.049481
0.050867
0.052376
0.053674
0.054399
0.055073
0.10188
0.070032
0.058829
0.051761
0.048259
0.047201
0.047647
0.048856
0.05026
0.051517
0.052232
0.052914
0.10097
0.071888
0.060409
0.053
0.049151
0.047824
0.048081
0.049174
0.050516
0.051749
0.052456
0.053143
0.10015
0.073549
0.061925
0.054277
0.050129
0.048541
0.048599
0.049548
0.050796
0.051971
0.052645
0.053298
0.098965
0.07484
0.063261
0.055473
0.051071
0.049225
0.049058
0.049828
0.050945
0.052024
0.052639
0.053218
0.0978
0.076035
0.064633
0.056784
0.052168
0.050066
0.049657
0.050217
0.05117
0.052121
0.052654
0.053127
0.096776
0.07719
0.066067
0.058229
0.053442
0.051094
0.050429
0.050755
0.051515
0.05231
0.052742
0.053083
0.095862
0.078265
0.06751
0.05975
0.054838
0.05226
0.051336
0.051411
0.051959
0.052575
0.052888
0.053079
0.095022
0.079234
0.068913
0.061288
0.056299
0.053516
0.05234
0.052157
0.05248
0.0529
0.053084
0.053111
0.094242
0.080087
0.070241
0.062799
0.057777
0.054819
0.053404
0.052967
0.053061
0.053277
0.053325
0.053184
0.093513
0.080824
0.071474
0.064247
0.059232
0.05613
0.054498
0.053817
0.053685
0.053697
0.053607
0.053297
0.092828
0.081449
0.072598
0.06561
0.060634
0.05742
0.055595
0.054686
0.054338
0.054149
0.053923
0.053451
0.092181
0.081969
0.073607
0.066872
0.061962
0.058665
0.056672
0.055556
0.055005
0.054625
0.054266
0.053642
0.09157
0.082394
0.074504
0.068026
0.063203
0.059848
0.057714
0.056412
0.055676
0.055115
0.054632
0.053868
0.090992
0.082734
0.075294
0.069073
0.064352
0.060963
0.058711
0.057245
0.05634
0.055614
0.055013
0.054123
0.090446
0.083001
0.075985
0.070017
0.065407
0.062003
0.059655
0.058047
0.056991
0.056114
0.055406
0.054404
0.08993
0.083206
0.076586
0.070863
0.066371
0.062968
0.060545
0.058814
0.057625
0.056612
0.055806
0.054706
0.089444
0.083357
0.077106
0.071619
0.067249
0.06386
0.061379
0.059545
0.058238
0.057105
0.056209
0.055025
0.088986
0.083464
0.077555
0.072293
0.068046
0.064683
0.062158
0.060237
0.058828
0.057589
0.056613
0.055356
0.088556
0.083534
0.077942
0.072894
0.068769
0.065439
0.062885
0.060892
0.059395
0.058063
0.057015
0.055697
0.088152
0.083574
0.078273
0.073428
0.069424
0.066135
0.063561
0.06151
0.059938
0.058524
0.057412
0.056044
0.087773
0.083588
0.078556
0.073902
0.070016
0.066773
0.06419
0.062092
0.060456
0.058973
0.057804
0.056394
0.087417
0.083582
0.078797
0.074323
0.070553
0.067359
0.064775
0.062641
0.06095
0.059409
0.058188
0.056745
0.087084
0.083559
0.079002
0.074697
0.071038
0.067896
0.065317
0.063156
0.061421
0.05983
0.058564
0.057095
0.086771
0.083522
0.079174
0.075028
0.071476
0.068388
0.065821
0.063641
0.061868
0.060236
0.058932
0.057441
0.086477
0.083474
0.079319
0.075322
0.071873
0.06884
0.066288
0.064096
0.062294
0.060628
0.059289
0.057782
0.086201
0.083416
0.079439
0.075582
0.072231
0.069255
0.066722
0.064524
0.062698
0.061004
0.059636
0.058118
0.085942
0.083352
0.079538
0.075811
0.072555
0.069634
0.067125
0.064925
0.063082
0.061366
0.059972
0.058446
0.085698
0.083282
0.079617
0.076014
0.072848
0.069983
0.067498
0.065302
0.063445
0.061713
0.060297
0.058766
0.085468
0.083207
0.079681
0.076192
0.073112
0.070302
0.067844
0.065655
0.063789
0.062046
0.060611
0.059078
0.085251
0.083128
0.07973
0.076349
0.07335
0.070594
0.068165
0.065986
0.064115
0.062364
0.060913
0.05938
0.085045
0.083046
0.079766
0.076486
0.073564
0.070862
0.068462
0.066297
0.064424
0.062667
0.061204
0.059672
0.084851
0.082962
0.07979
0.076605
0.073757
0.071106
0.068737
0.066587
0.064715
0.062957
0.061483
0.059955
0.084665
0.082875
0.079804
0.076708
0.07393
0.07133
0.068992
0.066859
0.06499
0.063233
0.06175
0.060227
0.084488
0.082787
0.07981
0.076797
0.074085
0.071535
0.069227
0.067113
0.065249
0.063496
0.062006
0.060488
0.08432
0.082697
0.079806
0.076872
0.074224
0.071721
0.069445
0.06735
0.065494
0.063745
0.06225
0.060739
0.084158
0.082606
0.079796
0.076935
0.074347
0.071891
0.069646
0.067572
0.065723
0.063982
0.062483
0.06098
0.084002