/*--------------------------------*- C++ -*----------------------------------*\
  =========                 |
  \\      /  F ield         | OpenFOAM: The Open Source CFD Toolbox
   \\    /   O peration     | Website:  https://openfoam.org
    \\  /    A nd           | Version:  6.0
     \\/     M anipulation  |
\*---------------------------------------------------------------------------*/
FoamFile
{
    version     2.0;
    format      ascii;
    class       volScalarField;
    location    "3.06";
    object      p;
}
// * * * * * * * * * * * * * * * * * * * * * * * * * * * * * * * * * * * * * //

dimensions      [0 2 -2 0 0 0 0];

internalField   nonuniform List<scalar> 
13500
(
0.097519
0.09758
0.097063
0.09667
0.095561
0.095271
0.094082
0.095054
0.095817
0.099581
0.12209
0.16405
0.097519
0.09758
0.097063
0.096671
0.095561
0.095271
0.094081
0.095054
0.095813
0.099642
0.12141
0.15899
0.09752
0.09758
0.097063
0.096672
0.09556
0.095272
0.094078
0.095054
0.095804
0.099686
0.12054
0.1545
0.097521
0.097582
0.097064
0.096673
0.09556
0.095274
0.094074
0.095053
0.095789
0.099707
0.11956
0.15099
0.097522
0.097583
0.097065
0.096675
0.095559
0.095275
0.094069
0.095051
0.095768
0.099713
0.11852
0.14802
0.097524
0.097585
0.097066
0.096677
0.095558
0.095276
0.094064
0.095048
0.095742
0.099706
0.11745
0.14538
0.097526
0.097587
0.097068
0.096679
0.095558
0.095277
0.094058
0.095043
0.095711
0.099687
0.11637
0.14298
0.097529
0.09759
0.09707
0.096681
0.095558
0.095277
0.094052
0.095038
0.095675
0.099654
0.1153
0.14077
0.097532
0.097593
0.097072
0.096684
0.095558
0.095278
0.094045
0.095032
0.095634
0.099607
0.11425
0.13873
0.097535
0.097596
0.097075
0.096687
0.095558
0.095278
0.094037
0.095025
0.095588
0.099547
0.11323
0.13683
0.097539
0.0976
0.097078
0.09669
0.095558
0.095278
0.094029
0.095017
0.095536
0.099474
0.11225
0.13504
0.097543
0.097604
0.097082
0.096693
0.095559
0.095279
0.09402
0.095007
0.095479
0.09939
0.11131
0.13336
0.097548
0.097609
0.097086
0.096697
0.095559
0.095279
0.094011
0.094997
0.095417
0.099295
0.11042
0.13176
0.097553
0.097614
0.09709
0.096701
0.09556
0.095279
0.094
0.094985
0.095349
0.099191
0.10956
0.13024
0.097559
0.09762
0.097094
0.096705
0.095561
0.095278
0.09399
0.094973
0.095276
0.09908
0.10875
0.1288
0.097565
0.097625
0.0971
0.096709
0.095562
0.095278
0.093979
0.094959
0.095197
0.098963
0.10797
0.12742
0.097571
0.097632
0.097105
0.096714
0.095563
0.095278
0.093967
0.094944
0.095113
0.098841
0.10723
0.1261
0.097578
0.097638
0.097111
0.096719
0.095564
0.095277
0.093955
0.094928
0.095023
0.098716
0.10652
0.12483
0.097586
0.097646
0.097117
0.096724
0.095566
0.095276
0.093942
0.094911
0.094928
0.098588
0.10583
0.12361
0.097594
0.097653
0.097124
0.09673
0.095567
0.095276
0.093928
0.094892
0.094828
0.098459
0.10517
0.12243
0.097602
0.097661
0.097131
0.096735
0.095569
0.095275
0.093914
0.094872
0.094723
0.09833
0.10453
0.1213
0.097611
0.09767
0.097138
0.096742
0.095571
0.095273
0.093899
0.094851
0.094614
0.098202
0.10391
0.1202
0.09762
0.097679
0.097146
0.096748
0.095573
0.095272
0.093884
0.094828
0.0945
0.098074
0.1033
0.11913
0.09763
0.097688
0.097154
0.096755
0.095576
0.095271
0.093869
0.094804
0.094382
0.097948
0.10271
0.11809
0.097641
0.097698
0.097163
0.096762
0.095578
0.095269
0.093852
0.094779
0.09426
0.097823
0.10213
0.11708
0.097652
0.097708
0.097172
0.096769
0.095581
0.095268
0.093836
0.094751
0.094135
0.0977
0.10155
0.1161
0.097663
0.097719
0.097182
0.096776
0.095584
0.095266
0.093818
0.094723
0.094007
0.097579
0.10099
0.11514
0.097675
0.09773
0.097192
0.096784
0.095587
0.095264
0.0938
0.094693
0.093876
0.097459
0.10043
0.1142
0.097687
0.097742
0.097203
0.096792
0.09559
0.095262
0.093782
0.094661
0.093743
0.097341
0.09988
0.11329
0.0977
0.097754
0.097214
0.096801
0.095594
0.09526
0.093763
0.094628
0.093608
0.097224
0.099334
0.11239
0.097714
0.097767
0.097225
0.09681
0.095598
0.095257
0.093744
0.094593
0.093471
0.097108
0.098793
0.11151
0.097728
0.09778
0.097237
0.096819
0.095601
0.095255
0.093724
0.094557
0.093333
0.096992
0.098256
0.11065
0.097742
0.097793
0.097249
0.096828
0.095606
0.095252
0.093703
0.094519
0.093194
0.096878
0.097725
0.1098
0.097757
0.097807
0.097262
0.096838
0.09561
0.095249
0.093682
0.09448
0.093054
0.096763
0.097197
0.10897
0.097773
0.097822
0.097275
0.096848
0.095615
0.095246
0.09366
0.09444
0.092914
0.096648
0.096675
0.10816
0.097789
0.097837
0.097289
0.096858
0.095619
0.095243
0.093638
0.094398
0.092774
0.096533
0.096157
0.10736
0.097806
0.097853
0.097303
0.096869
0.095625
0.09524
0.093616
0.094354
0.092633
0.096417
0.095643
0.10658
0.097823
0.097869
0.097318
0.09688
0.09563
0.095237
0.093592
0.09431
0.092493
0.0963
0.095135
0.10581
0.097841
0.097886
0.097333
0.096891
0.095636
0.095233
0.093569
0.094265
0.092353
0.096182
0.094632
0.10505
0.097859
0.097903
0.097349
0.096903
0.095641
0.09523
0.093544
0.094218
0.092213
0.096062
0.094134
0.10431
0.097878
0.097921
0.097365
0.096915
0.095647
0.095226
0.093519
0.094171
0.092074
0.09594
0.093641
0.10358
0.097897
0.097939
0.097382
0.096928
0.095654
0.095222
0.093494
0.094122
0.091936
0.095817
0.093155
0.10287
0.097917
0.097958
0.097399
0.09694
0.09566
0.095218
0.093468
0.094074
0.091798
0.095692
0.092674
0.10217
0.097938
0.097977
0.097417
0.096954
0.095667
0.095214
0.093441
0.094024
0.091661
0.095565
0.0922
0.10148
0.097959
0.097997
0.097435
0.096967
0.095675
0.095209
0.093414
0.093974
0.091524
0.095435
0.091732
0.1008
0.097981
0.098018
0.097454
0.096981
0.095682
0.095205
0.093386
0.093924
0.091388
0.095303
0.09127
0.10014
0.098003
0.098039
0.097473
0.096995
0.09569
0.0952
0.093357
0.093874
0.091252
0.095169
0.090816
0.099489
0.098026
0.09806
0.097493
0.09701
0.095698
0.095195
0.093329
0.093823
0.091117
0.095033
0.090367
0.09885
0.09805
0.098082
0.097513
0.097025
0.095706
0.095191
0.093299
0.093772
0.090982
0.094895
0.089926
0.098223
0.098074
0.098105
0.097534
0.09704
0.095715
0.095186
0.093269
0.093722
0.090848
0.094754
0.089492
0.097608
0.098099
0.098128
0.097556
0.097055
0.095724
0.095181
0.093238
0.093672
0.090714
0.094611
0.089065
0.097003
0.098125
0.098152
0.097578
0.097072
0.095733
0.095175
0.093207
0.093622
0.09058
0.094465
0.088644
0.09641
0.098151
0.098177
0.0976
0.097088
0.095743
0.09517
0.093176
0.093572
0.090446
0.094318
0.088231
0.095828
0.098177
0.098202
0.097624
0.097105
0.095753
0.095165
0.093144
0.093523
0.090313
0.094168
0.087824
0.095256
0.098205
0.098227
0.097647
0.097122
0.095763
0.095159
0.093111
0.093475
0.090179
0.094016
0.087425
0.094695
0.098233
0.098254
0.097672
0.09714
0.095774
0.095154
0.093078
0.093427
0.090045
0.093863
0.087032
0.094144
0.098261
0.09828
0.097696
0.097158
0.095785
0.095148
0.093045
0.093379
0.089911
0.093707
0.086646
0.093602
0.098291
0.098308
0.097722
0.097176
0.095796
0.095142
0.093011
0.093332
0.089776
0.093549
0.086267
0.09307
0.098321
0.098336
0.097748
0.097195
0.095808
0.095137
0.092977
0.093286
0.089642
0.09339
0.085894
0.092548
0.098351
0.098365
0.097774
0.097214
0.09582
0.095131
0.092943
0.09324
0.089507
0.093229
0.085528
0.092034
0.098382
0.098394
0.097802
0.097234
0.095832
0.095125
0.092908
0.093195
0.089371
0.093066
0.085168
0.09153
0.098414
0.098424
0.097829
0.097254
0.095845
0.09512
0.092873
0.093151
0.089236
0.092902
0.084814
0.091034
0.098447
0.098455
0.097858
0.097275
0.095858
0.095114
0.092838
0.093107
0.0891
0.092736
0.084466
0.090546
0.09848
0.098486
0.097887
0.097296
0.095871
0.095108
0.092802
0.093064
0.088963
0.092569
0.084124
0.090066
0.098514
0.098518
0.097916
0.097317
0.095885
0.095103
0.092766
0.093021
0.088826
0.0924
0.083788
0.089594
0.098549
0.09855
0.097947
0.097339
0.095899
0.095097
0.09273
0.092979
0.088689
0.09223
0.083458
0.08913
0.098584
0.098584
0.097978
0.097361
0.095914
0.095092
0.092694
0.092937
0.088552
0.092059
0.083133
0.088673
0.09862
0.098618
0.098009
0.097384
0.095928
0.095087
0.092658
0.092896
0.088414
0.091887
0.082813
0.088223
0.098657
0.098652
0.098041
0.097407
0.095944
0.095082
0.092621
0.092854
0.088276
0.091713
0.082499
0.087781
0.098694
0.098687
0.098074
0.097431
0.095959
0.095077
0.092584
0.092814
0.088138
0.091539
0.08219
0.087345
0.098732
0.098723
0.098107
0.097455
0.095975
0.095072
0.092548
0.092773
0.088
0.091364
0.081886
0.086915
0.098771
0.09876
0.098141
0.09748
0.095991
0.095067
0.092511
0.092733
0.087861
0.091187
0.081587
0.086492
0.09881
0.098797
0.098176
0.097505
0.096008
0.095063
0.092474
0.092692
0.087723
0.09101
0.081293
0.086075
0.098851
0.098835
0.098211
0.097531
0.096025
0.095059
0.092436
0.092652
0.087585
0.090833
0.081003
0.085665
0.098892
0.098874
0.098247
0.097557
0.096043
0.095055
0.092399
0.092612
0.087447
0.090654
0.080718
0.08526
0.098934
0.098914
0.098284
0.097584
0.09606
0.095052
0.092362
0.092571
0.087308
0.090475
0.080437
0.084861
0.098976
0.098954
0.098321
0.097611
0.096078
0.095048
0.092324
0.092531
0.08717
0.090295
0.08016
0.084467
0.099019
0.098995
0.098359
0.097639
0.096097
0.095046
0.092287
0.09249
0.087033
0.090115
0.079888
0.084079
0.099063
0.099036
0.098398
0.097668
0.096116
0.095043
0.092249
0.09245
0.086896
0.089934
0.07962
0.083696
0.099108
0.099079
0.098437
0.097697
0.096135
0.095041
0.092211
0.092409
0.086759
0.089752
0.079356
0.083318
0.099154
0.099122
0.098477
0.097726
0.096154
0.095039
0.092173
0.092367
0.086622
0.089571
0.079096
0.082945
0.0992
0.099166
0.098518
0.097756
0.096174
0.095038
0.092136
0.092326
0.086486
0.089388
0.078839
0.082577
0.099247
0.099211
0.098559
0.097787
0.096195
0.095037
0.092098
0.092284
0.086351
0.089206
0.078586
0.082213
0.099295
0.099256
0.098601
0.097818
0.096215
0.095037
0.09206
0.092241
0.086216
0.089023
0.078337
0.081854
0.099344
0.099303
0.098644
0.09785
0.096236
0.095037
0.092022
0.092199
0.086082
0.08884
0.078092
0.0815
0.099393
0.09935
0.098688
0.097883
0.096258
0.095038
0.091984
0.092155
0.085948
0.088657
0.07785
0.08115
0.099444
0.099398
0.098732
0.097916
0.096279
0.095039
0.091945
0.092111
0.085815
0.088474
0.077611
0.080804
0.099495
0.099446
0.098777
0.09795
0.096301
0.095041
0.091907
0.092067
0.085683
0.08829
0.077376
0.080462
0.099547
0.099496
0.098823
0.097985
0.096324
0.095043
0.091869
0.092022
0.085552
0.088107
0.077144
0.080125
0.0996
0.099546
0.098869
0.09802
0.096346
0.095045
0.091831
0.091977
0.085422
0.087923
0.076915
0.079791
0.099653
0.099598
0.098916
0.098056
0.09637
0.095049
0.091793
0.091931
0.085292
0.08774
0.07669
0.079461
0.099708
0.09965
0.098964
0.098092
0.096393
0.095052
0.091755
0.091885
0.085163
0.087556
0.076467
0.079135
0.099763
0.099703
0.099013
0.09813
0.096417
0.095057
0.091717
0.091837
0.085035
0.087372
0.076247
0.078812
0.09982
0.099757
0.099063
0.098168
0.096441
0.095062
0.091679
0.09179
0.084909
0.087189
0.07603
0.078493
0.099877
0.099812
0.099113
0.098207
0.096466
0.095067
0.091641
0.091741
0.084783
0.087005
0.075816
0.078177
0.099935
0.099868
0.099164
0.098246
0.096491
0.095074
0.091603
0.091692
0.084657
0.086822
0.075605
0.077864
0.099994
0.099925
0.099216
0.098287
0.096516
0.09508
0.091565
0.091643
0.084533
0.086638
0.075396
0.077555
0.10005
0.099983
0.099269
0.098328
0.096542
0.095088
0.091527
0.091592
0.08441
0.086455
0.07519
0.077249
0.10012
0.10004
0.099323
0.09837
0.096568
0.095096
0.09149
0.091541
0.084288
0.086272
0.074986
0.076946
0.10018
0.1001
0.099377
0.098413
0.096595
0.095104
0.091452
0.09149
0.084167
0.086089
0.074785
0.076645
0.10024
0.10016
0.099433
0.098457
0.096622
0.095114
0.091415
0.091437
0.084046
0.085906
0.074587
0.076348
0.1003
0.10022
0.099489
0.098501
0.096649
0.095124
0.091378
0.091385
0.083927
0.085723
0.07439
0.076053
0.10037
0.10029
0.099546
0.098547
0.096677
0.095134
0.091341
0.091331
0.083809
0.085541
0.074196
0.075761
0.10044
0.10035
0.099605
0.098593
0.096706
0.095145
0.091304
0.091277
0.083691
0.085358
0.074004
0.075472
0.1005
0.10042
0.099664
0.098641
0.096735
0.095157
0.091268
0.091222
0.083575
0.085176
0.073815
0.075185
0.10057
0.10048
0.099724
0.098689
0.096764
0.09517
0.091232
0.091167
0.08346
0.084994
0.073627
0.0749
0.10064
0.10055
0.099785
0.098739
0.096794
0.095183
0.091196
0.09111
0.083345
0.084813
0.073441
0.074618
0.10071
0.10062
0.099847
0.098789
0.096825
0.095197
0.09116
0.091054
0.083231
0.084631
0.073257
0.074338
0.10078
0.10069
0.099911
0.098841
0.096856
0.095212
0.091125
0.090996
0.083119
0.08445
0.073076
0.07406
0.10086
0.10076
0.099975
0.098893
0.096888
0.095228
0.091091
0.090938
0.083007
0.084268
0.072895
0.073784
0.10093
0.10083
0.10004
0.098947
0.09692
0.095244
0.091056
0.09088
0.082896
0.084087
0.072717
0.07351
0.10101
0.10091
0.10011
0.099002
0.096954
0.095261
0.091023
0.090821
0.082786
0.083907
0.07254
0.073238
0.10108
0.10098
0.10017
0.099058
0.096987
0.095279
0.090989
0.090761
0.082677
0.083726
0.072365
0.072968
0.10116
0.10106
0.10024
0.099115
0.097022
0.095297
0.090956
0.090701
0.082569
0.083545
0.072192
0.072699
0.10124
0.10114
0.10031
0.099173
0.097057
0.095317
0.090924
0.09064
0.082462
0.083365
0.07202
0.072432
0.10132
0.10121
0.10039
0.099233
0.097093
0.095337
0.090892
0.090579
0.082356
0.083185
0.071849
0.072167
0.1014
0.1013
0.10046
0.099294
0.09713
0.095358
0.090861
0.090518
0.08225
0.083005
0.071679
0.071903
0.10149
0.10138
0.10053
0.099357
0.097168
0.09538
0.09083
0.090455
0.082145
0.082825
0.071511
0.07164
0.10157
0.10146
0.10061
0.099421
0.097207
0.095403
0.090801
0.090393
0.082042
0.082646
0.071345
0.071379
0.10166
0.10155
0.10069
0.099486
0.097246
0.095427
0.090771
0.09033
0.081939
0.082466
0.071179
0.071119
0.10175
0.10164
0.10076
0.099553
0.097287
0.095452
0.090743
0.090267
0.081836
0.082287
0.071014
0.07086
0.10184
0.10173
0.10084
0.099621
0.097329
0.095478
0.090715
0.090203
0.081735
0.082107
0.070851
0.070602
0.10193
0.10182
0.10093
0.099691
0.097372
0.095505
0.090689
0.090139
0.081634
0.081928
0.070688
0.070345
0.10203
0.10191
0.10101
0.099763
0.097416
0.095533
0.090663
0.090075
0.081535
0.081749
0.070526
0.070089
0.10212
0.10201
0.1011
0.099837
0.097461
0.095562
0.090638
0.09001
0.081436
0.08157
0.070365
0.069833
0.10222
0.1021
0.10118
0.099912
0.097508
0.095593
0.090614
0.089946
0.081338
0.081391
0.070205
0.069579
0.10232
0.1022
0.10127
0.099989
0.097556
0.095624
0.090591
0.089881
0.08124
0.081213
0.070045
0.069324
0.10242
0.1023
0.10136
0.10007
0.097606
0.095657
0.090569
0.089816
0.081144
0.081034
0.069886
0.069071
0.10253
0.10241
0.10146
0.10015
0.097657
0.095691
0.090549
0.089751
0.081048
0.080855
0.069728
0.068818
0.10263
0.10251
0.10155
0.10023
0.09771
0.095727
0.090529
0.089686
0.080953
0.080676
0.06957
0.068565
0.10274
0.10262
0.10165
0.10032
0.097765
0.095764
0.090511
0.089621
0.080859
0.080498
0.069413
0.068312
0.10285
0.10274
0.10175
0.10041
0.097821
0.095802
0.090495
0.089556
0.080765
0.080319
0.069256
0.06806
0.10297
0.10285
0.10186
0.1005
0.097879
0.095843
0.090479
0.089492
0.080673
0.080141
0.069099
0.067807
0.10309
0.10297
0.10196
0.10059
0.09794
0.095884
0.090465
0.089427
0.080581
0.079962
0.068943
0.067555
0.10321
0.10309
0.10207
0.10069
0.098002
0.095928
0.090453
0.089363
0.08049
0.079783
0.068786
0.067302
0.10333
0.10321
0.10218
0.10078
0.098067
0.095973
0.090443
0.089299
0.0804
0.079605
0.06863
0.06705
0.10345
0.10334
0.1023
0.10088
0.098134
0.09602
0.090434
0.089236
0.080311
0.079426
0.068474
0.066797
0.10358
0.10347
0.10241
0.10099
0.098203
0.09607
0.090427
0.089173
0.080223
0.079248
0.068318
0.066543
0.10372
0.1036
0.10253
0.1011
0.098276
0.096121
0.090422
0.089111
0.080136
0.079069
0.068161
0.066289
0.10385
0.10373
0.10266
0.10121
0.09835
0.096175
0.09042
0.08905
0.08005
0.078891
0.068005
0.066035
0.10399
0.10387
0.10278
0.10132
0.098428
0.09623
0.090419
0.088989
0.079964
0.078712
0.067848
0.06578
0.10413
0.10402
0.10292
0.10144
0.098509
0.096289
0.090421
0.088929
0.07988
0.078533
0.067691
0.065524
0.10428
0.10417
0.10305
0.10156
0.098593
0.09635
0.090425
0.08887
0.079797
0.078355
0.067534
0.065267
0.10443
0.10432
0.10319
0.10169
0.09868
0.096413
0.090432
0.088813
0.079715
0.078176
0.067376
0.065009
0.10459
0.10448
0.10333
0.10181
0.098771
0.096479
0.090441
0.088756
0.079634
0.077997
0.067218
0.06475
0.10475
0.10464
0.10348
0.10195
0.098866
0.096549
0.090453
0.088701
0.079554
0.077819
0.067059
0.06449
0.10491
0.1048
0.10363
0.10209
0.098964
0.096621
0.090468
0.088647
0.079476
0.07764
0.0669
0.064228
0.10508
0.10497
0.10379
0.10223
0.099067
0.096697
0.090486
0.088595
0.079398
0.077462
0.06674
0.063966
0.10526
0.10515
0.10395
0.10238
0.099174
0.096776
0.090508
0.088544
0.079323
0.077283
0.06658
0.063701
0.10544
0.10533
0.10412
0.10253
0.099285
0.096859
0.090533
0.088495
0.079248
0.077105
0.066418
0.063435
0.10562
0.10552
0.10429
0.10269
0.099401
0.096945
0.090561
0.088448
0.079175
0.076926
0.066256
0.063167
0.10581
0.10571
0.10447
0.10285
0.099522
0.097036
0.090593
0.088403
0.079103
0.076748
0.066093
0.062897
0.10601
0.10591
0.10466
0.10302
0.099648
0.09713
0.090629
0.08836
0.079034
0.07657
0.065928
0.062626
0.10621
0.10611
0.10485
0.10319
0.09978
0.097229
0.090669
0.08832
0.078965
0.076391
0.065763
0.062352
0.10642
0.10633
0.10505
0.10338
0.099917
0.097332
0.090714
0.088282
0.078899
0.076213
0.065596
0.062075
0.10663
0.10654
0.10525
0.10356
0.10006
0.097441
0.090762
0.088246
0.078834
0.076035
0.065429
0.061797
0.10685
0.10677
0.10546
0.10376
0.10021
0.097554
0.090816
0.088214
0.078771
0.075858
0.065259
0.061516
0.10708
0.107
0.10568
0.10396
0.10036
0.097672
0.090874
0.088184
0.07871
0.07568
0.065089
0.061232
0.10732
0.10724
0.1059
0.10417
0.10053
0.097796
0.090937
0.088158
0.078651
0.075503
0.064917
0.060945
0.10756
0.10749
0.10614
0.10439
0.1007
0.097925
0.091006
0.088134
0.078594
0.075325
0.064743
0.060655
0.10781
0.10775
0.10638
0.10461
0.10087
0.09806
0.09108
0.088114
0.07854
0.075148
0.064568
0.060362
0.10807
0.10801
0.10663
0.10484
0.10106
0.098202
0.091159
0.088098
0.078487
0.074971
0.064391
0.060066
0.10834
0.10828
0.10689
0.10508
0.10125
0.098349
0.091244
0.088085
0.078437
0.074794
0.064212
0.059766
0.10862
0.10857
0.10715
0.10533
0.10145
0.098504
0.091336
0.088076
0.078389
0.074618
0.064031
0.059463
0.1089
0.10886
0.10743
0.10559
0.10166
0.098665
0.091433
0.088071
0.078343
0.074441
0.063848
0.059155
0.1092
0.10916
0.10771
0.10586
0.10187
0.098833
0.091537
0.08807
0.0783
0.074265
0.063663
0.058843
0.1095
0.10947
0.10801
0.10614
0.1021
0.099009
0.091648
0.088073
0.07826
0.074088
0.063475
0.058527
0.10981
0.10979
0.10832
0.10643
0.10234
0.099192
0.091766
0.088081
0.078222
0.073912
0.063285
0.058207
0.11014
0.11012
0.10863
0.10673
0.10258
0.099383
0.09189
0.088093
0.078186
0.073736
0.063092
0.057881
0.11047
0.11046
0.10896
0.10704
0.10284
0.099582
0.092022
0.08811
0.078153
0.073559
0.062896
0.057551
0.11081
0.11081
0.1093
0.10735
0.1031
0.099789
0.092161
0.088131
0.078123
0.073383
0.062697
0.057215
0.11117
0.11118
0.10965
0.10769
0.10338
0.10001
0.092308
0.088158
0.078095
0.073206
0.062494
0.056874
0.11154
0.11156
0.11001
0.10803
0.10367
0.10023
0.092462
0.088189
0.07807
0.073028
0.062288
0.056526
0.11191
0.11194
0.11039
0.10838
0.10396
0.10046
0.092625
0.088225
0.078047
0.07285
0.062078
0.056172
0.1123
0.11234
0.11077
0.10875
0.10427
0.10071
0.092795
0.088266
0.078027
0.072672
0.061864
0.055812
0.11271
0.11276
0.11117
0.10913
0.1046
0.10096
0.092974
0.088313
0.078009
0.072492
0.061646
0.055444
0.11312
0.11318
0.11159
0.10952
0.10493
0.10122
0.093161
0.088364
0.077993
0.072312
0.061423
0.055069
0.11355
0.11362
0.11201
0.10993
0.10528
0.1015
0.093356
0.08842
0.077979
0.07213
0.061194
0.054686
0.11398
0.11408
0.11245
0.11035
0.10564
0.10178
0.09356
0.088482
0.077967
0.071946
0.060961
0.054295
0.11444
0.11454
0.11291
0.11078
0.10601
0.10207
0.093773
0.088548
0.077957
0.071761
0.060721
0.053895
0.1149
0.11502
0.11338
0.11122
0.10639
0.10238
0.093994
0.088619
0.077949
0.071573
0.060475
0.053486
0.11538
0.11552
0.11386
0.11168
0.10679
0.10269
0.094224
0.088695
0.077942
0.071383
0.060223
0.053067
0.11588
0.11603
0.11436
0.11216
0.10721
0.10301
0.094463
0.088776
0.077936
0.07119
0.059963
0.052637
0.11638
0.11655
0.11488
0.11265
0.10764
0.10335
0.094711
0.088861
0.07793
0.070994
0.059695
0.052196
0.11691
0.11709
0.11541
0.11316
0.10808
0.1037
0.094968
0.088951
0.077925
0.070794
0.059419
0.051744
0.11745
0.11765
0.11596
0.11368
0.10854
0.10406
0.095233
0.089045
0.077921
0.070589
0.059134
0.051279
0.118
0.11823
0.11652
0.11422
0.10901
0.10443
0.095508
0.089143
0.077915
0.07038
0.058839
0.050802
0.11857
0.11882
0.11711
0.11477
0.1095
0.10481
0.095792
0.089244
0.07791
0.070165
0.058534
0.05031
0.11916
0.11942
0.11771
0.11535
0.11001
0.10521
0.096084
0.08935
0.077903
0.069944
0.058217
0.049804
0.11976
0.12005
0.11833
0.11594
0.11053
0.10562
0.096386
0.089458
0.077894
0.069717
0.057889
0.049282
0.12038
0.1207
0.11897
0.11655
0.11107
0.10604
0.096697
0.08957
0.077883
0.069482
0.057548
0.048744
0.12102
0.12136
0.11963
0.11718
0.11163
0.10647
0.097017
0.089685
0.07787
0.069239
0.057193
0.048189
0.12168
0.12205
0.12032
0.11782
0.11221
0.10692
0.097347
0.089802
0.077854
0.068988
0.056824
0.047615
0.12236
0.12275
0.12102
0.11849
0.11281
0.10738
0.097686
0.089922
0.077834
0.068727
0.056439
0.047022
0.12306
0.12348
0.12175
0.11919
0.11343
0.10786
0.098035
0.090045
0.07781
0.068456
0.056039
0.046409
0.12378
0.12424
0.12251
0.1199
0.11407
0.10835
0.098393
0.090169
0.077781
0.068173
0.05562
0.045775
0.12453
0.12501
0.12329
0.12064
0.11473
0.10886
0.098762
0.090295
0.077747
0.067879
0.055184
0.045117
0.1253
0.12582
0.1241
0.12141
0.11542
0.10938
0.099142
0.090423
0.077707
0.067572
0.054727
0.044436
0.1261
0.12665
0.12494
0.12221
0.11613
0.10993
0.099533
0.090553
0.077661
0.067252
0.05425
0.04373
0.12693
0.12752
0.12581
0.12303
0.11688
0.11049
0.099936
0.090685
0.077609
0.066917
0.053752
0.042997
0.12778
0.12841
0.12672
0.12389
0.11765
0.11107
0.10035
0.090819
0.077549
0.066567
0.05323
0.042237
0.12868
0.12935
0.12766
0.12479
0.11845
0.11168
0.10078
0.090954
0.077481
0.0662
0.052684
0.041447
0.1296
0.13032
0.12865
0.12572
0.11928
0.11231
0.10122
0.091092
0.077405
0.065816
0.052113
0.040626
0.13057
0.13133
0.12968
0.1267
0.12016
0.11297
0.10168
0.091231
0.077319
0.065414
0.051515
0.039773
0.13158
0.13239
0.13076
0.12772
0.12107
0.11365
0.10215
0.091373
0.077224
0.064992
0.050888
0.038885
0.13263
0.1335
0.13189
0.12878
0.12203
0.11437
0.10264
0.091517
0.077119
0.064549
0.050231
0.037961
0.13373
0.13466
0.13308
0.12991
0.12303
0.11512
0.10315
0.091663
0.077001
0.064084
0.049542
0.037
0.13488
0.13588
0.13432
0.13109
0.12408
0.1159
0.10368
0.091811
0.076872
0.063594
0.048819
0.035998
0.13609
0.13715
0.13563
0.13233
0.12518
0.11672
0.10422
0.091961
0.076728
0.063079
0.048061
0.034953
0.13735
0.1385
0.13702
0.13364
0.12634
0.11758
0.10479
0.092111
0.076568
0.062535
0.047263
0.033863
0.13868
0.13992
0.13847
0.13502
0.12756
0.11849
0.10538
0.092262
0.07639
0.06196
0.046423
0.032726
0.14008
0.14141
0.14001
0.13648
0.12885
0.11944
0.10598
0.092411
0.076191
0.061351
0.045539
0.031537
0.14154
0.14298
0.14164
0.13802
0.13021
0.12043
0.10661
0.092557
0.075968
0.060703
0.044605
0.030294
0.14308
0.14464
0.14335
0.13965
0.13163
0.12148
0.10726
0.092697
0.075716
0.060012
0.043617
0.028993
0.1447
0.14639
0.14517
0.14137
0.13313
0.12257
0.10792
0.092828
0.075431
0.059272
0.04257
0.027628
0.1464
0.14824
0.14709
0.1432
0.13471
0.12371
0.1086
0.092945
0.075107
0.058477
0.041457
0.026195
0.14818
0.15018
0.14911
0.14512
0.13638
0.12491
0.1093
0.093043
0.074736
0.05762
0.040271
0.024687
0.15004
0.15223
0.15125
0.14716
0.13812
0.12615
0.11
0.093115
0.074311
0.056692
0.039005
0.023098
0.15199
0.15439
0.15351
0.14931
0.13995
0.12744
0.1107
0.093154
0.073823
0.055684
0.037648
0.021419
0.15403
0.15667
0.1559
0.15158
0.14187
0.12878
0.1114
0.093152
0.07326
0.054585
0.036192
0.019642
0.15615
0.15905
0.15841
0.15398
0.14388
0.13016
0.11209
0.093096
0.072611
0.053384
0.034624
0.017757
0.15836
0.16157
0.16107
0.1565
0.14598
0.13157
0.11276
0.092977
0.071864
0.052068
0.032933
0.015752
0.16066
0.1642
0.16387
0.15916
0.14817
0.13302
0.1134
0.09278
0.071004
0.050623
0.031107
0.013617
0.16305
0.16698
0.16683
0.16196
0.15044
0.13448
0.11399
0.09249
0.070016
0.049036
0.029132
0.011339
0.16553
0.16989
0.16997
0.16492
0.15282
0.13597
0.11452
0.09209
0.068881
0.047292
0.026994
0.0089059
0.16811
0.17297
0.17328
0.16803
0.15528
0.13746
0.11498
0.091558
0.067583
0.045373
0.024681
0.0063053
0.17078
0.17621
0.17681
0.17133
0.15784
0.13894
0.11534
0.090872
0.066096
0.043262
0.022176
0.0035253
0.17355
0.17963
0.18057
0.17482
0.1605
0.14039
0.11558
0.090002
0.064397
0.040937
0.019464
0.00055399
0.17642
0.18327
0.1846
0.17852
0.16325
0.1418
0.11566
0.088913
0.062454
0.038374
0.016528
-0.0026201
0.17941
0.18714
0.18892
0.18245
0.16608
0.14313
0.11555
0.087561
0.060227
0.035543
0.013345
-0.0060089
0.1825
0.19128
0.19358
0.18664
0.169
0.14435
0.11518
0.085892
0.057671
0.032408
0.0098899
-0.0096257
0.18569
0.1957
0.19861
0.19108
0.17196
0.14539
0.1145
0.083839
0.054727
0.028922
0.0061322
-0.013486
0.18896
0.20044
0.20405
0.19579
0.17492
0.1462
0.11342
0.081322
0.051327
0.025032
0.002034
-0.017608
0.19226
0.2055
0.20992
0.20075
0.17783
0.14666
0.11183
0.078246
0.047393
0.020677
-0.0024479
-0.022014
0.19553
0.21088
0.21621
0.20591
0.18057
0.14666
0.10961
0.074503
0.042839
0.015792
-0.0073585
-0.026727
0.19868
0.21655
0.22291
0.21119
0.18301
0.14602
0.10661
0.069976
0.037578
0.010316
-0.012738
-0.031764
0.20158
0.22246
0.22992
0.21644
0.18493
0.14456
0.10267
0.064543
0.031531
0.0041991
-0.018614
-0.037135
0.20403
0.22847
0.2371
0.22142
0.18608
0.14202
0.097585
0.058085
0.024635
-0.0025821
-0.024985
-0.042824
0.20583
0.23438
0.24414
0.22576
0.18606
0.13809
0.091168
0.050496
0.016851
-0.010018
-0.031814
-0.048782
0.20673
0.23986
0.25055
0.2289
0.1844
0.13244
0.083214
0.04169
0.0081746
-0.01806
-0.039021
-0.054924
0.20647
0.24432
0.25547
0.22995
0.1804
0.12464
0.073531
0.031616
-0.0013596
-0.026622
-0.046488
-0.061128
0.20482
0.24685
0.25746
0.22757
0.17317
0.11424
0.061964
0.020285
-0.011667
-0.035582
-0.054071
-0.067251
0.20171
0.24595
0.25421
0.21977
0.16151
0.10074
0.048434
0.0077979
-0.02259
-0.044779
-0.061612
-0.073155
0.19729
0.23942
0.24228
0.2037
0.14384
0.083594
0.032951
-0.0056242
-0.03388
-0.054006
-0.068949
-0.078722
0.19224
0.22437
0.21704
0.17569
0.11826
0.0622
0.01558
-0.01968
-0.045211
-0.063013
-0.07592
-0.083869
0.18784
0.19786
0.17364
0.13182
0.082735
0.035865
-0.0036929
-0.034118
-0.056284
-0.071564
-0.082389
-0.088558
0.18535
0.15701
0.10867
0.069403
0.035624
0.0038437
-0.025097
-0.048909
-0.066968
-0.079537
-0.088302
-0.09282
0.1863
0.096358
0.017944
-0.013715
-0.024787
-0.035209
-0.049516
-0.064593
-0.077601
-0.087176
-0.093881
-0.096918
0.20275
0.020089
-0.095591
-0.11461
-0.097673
-0.082207
-0.078391
-0.082555
-0.089376
-0.095476
-0.099968
-0.10161
0.24681
-0.051746
-0.21086
-0.21568
-0.17104
-0.13081
-0.10917
-0.10212
-0.10237
-0.10471
-0.10687
-0.10707
0.1027
0.063299
0.053175
0.047139
0.042978
0.039868
0.037392
0.035268
0.033463
0.031629
0.030189
0.027767
0.12201
0.078519
0.065941
0.057912
0.052438
0.048396
0.045208
0.042494
0.040212
0.037896
0.036133
0.033302
0.10936
0.073418
0.062036
0.054137
0.048732
0.044761
0.041648
0.039011
0.03682
0.034587
0.032953
0.030204
0.10429
0.07307
0.062018
0.054028
0.048487
0.044403
0.041202
0.038498
0.036265
0.033984
0.032351
0.029476
0.10362
0.075205
0.063994
0.055788
0.050002
0.045711
0.042344
0.039497
0.037155
0.034761
0.03306
0.030025
0.10294
0.076987
0.065705
0.057365
0.05138
0.046912
0.043396
0.040422
0.037979
0.035486
0.033717
0.030568
0.10179
0.078237
0.067031
0.05864
0.052509
0.047894
0.044252
0.04117
0.038639
0.036068
0.034239
0.03102
0.10058
0.079259
0.068217
0.059829
0.053583
0.048839
0.04508
0.041899
0.039285
0.036648
0.034762
0.031512
0.099436
0.080139
0.069331
0.060988
0.054658
0.0498
0.045931
0.042656
0.039963
0.037269
0.035329
0.032088
0.098349
0.080868
0.070358
0.062104
0.055725
0.050771
0.046803
0.043439
0.040671
0.037932
0.035943
0.032747
0.097296
0.081447
0.071287
0.063165
0.056771
0.051743
0.047689
0.044247
0.04141
0.038635
0.036604
0.033489
0.096274
0.081888
0.072116
0.064161
0.057788
0.05271
0.048585
0.045076
0.042176
0.039377
0.037312
0.034308
0.095286
0.082207
0.072844
0.065085
0.058766
0.053663
0.049484
0.045921
0.042968
0.040156
0.038063
0.035195
0.094333
0.08242
0.073475
0.065933
0.059696
0.054592
0.050378
0.046774
0.043778
0.040963
0.03885
0.036138
0.093416
0.082543
0.074013
0.066703
0.060571
0.055489
0.051258
0.047626
0.044598
0.04179
0.039664
0.03712
0.092537
0.082587
0.074464
0.067394
0.061386
0.056345
0.052114
0.048469
0.04542
0.042627
0.040494
0.038122
0.091695
0.082568
0.074836
0.068009
0.062138
0.057155
0.052939
0.049295
0.046233
0.043464
0.041329
0.039126
0.090891
0.082495
0.075136
0.068551
0.062827
0.057916
0.053728
0.050096
0.047032
0.044291
0.042158
0.040116
0.090123
0.082378
0.075372
0.069024
0.063453
0.058625
0.054477
0.050866
0.047808
0.045101
0.042972
0.041076
0.089391
0.082226
0.075551
0.069435
0.064019
0.059281
0.055182
0.051602
0.048556
0.045886
0.043762
0.041995
0.088692
0.082044
0.07568
0.069787
0.064527
0.059886
0.055843
0.052301
0.049273
0.04664
0.044522
0.042864
0.088026
0.08184
0.075764
0.070086
0.064981
0.06044
0.056459
0.052959
0.049954
0.047358
0.045247
0.043675
0.087389
0.081617
0.075811
0.070338
0.065384
0.060945
0.05703
0.053577
0.050598
0.048039
0.045935
0.044426
0.08678
0.081379
0.075823
0.070546
0.065741
0.061404
0.057558
0.054155
0.051205
0.048679
0.046582
0.045114
0.086198
0.08113
0.075807
0.070715
0.066054
0.06182
0.058044
0.054692
0.051774
0.049278
0.047188
0.04574
0.085639
0.080873
0.075766
0.07085
0.066327
0.062195
0.05849
0.055191
0.052305
0.049837
0.047753
0.046307
0.085103
0.080608
0.075703
0.070954
0.066565
0.062532
0.058899
0.055651
0.052799
0.050355
0.048279
0.046817
0.084588
0.080339
0.075621
0.071029
0.066769
0.062834
0.059272
0.056076
0.053259
0.050835
0.048766
0.047275
0.084092
0.080067
0.075523
0.07108
0.066943
0.063103
0.059612
0.056467
0.053684
0.051277
0.049216
0.047686
0.083614
0.079792
0.075411
0.071109
0.06709
0.063341
0.05992
0.056825
0.054078
0.051685
0.049631
0.048054
0.083152
0.079516
0.075287
0.071118
0.067212
0.063552
0.060199
0.057153
0.054441
0.052059
0.050014
0.048383
0.082706
0.079239
0.075153
0.07111
0.067312
0.063738
0.060452