/*--------------------------------*- C++ -*----------------------------------*\
  =========                 |
  \\      /  F ield         | OpenFOAM: The Open Source CFD Toolbox
   \\    /   O peration     | Website:  https://openfoam.org
    \\  /    A nd           | Version:  6.0
     \\/     M anipulation  |
\*---------------------------------------------------------------------------*/
FoamFile
{
    version     2.0;
    format      ascii;
    class       surfaceScalarField;
    location    "20";
    object      phi;
}
// * * * * * * * * * * * * * * * * * * * * * * * * * * * * * * * * * * * * * //

dimensions      [0 3 -1 0 0 0 0];

internalField   nonuniform List<scalar> 
123526
(
3.83998e-07
2.34147e-05
8.76486e-09
8.09353e-07
2.53155e-05
1.26975e-06
2.73706e-05
1.76729e-06
2.95924e-05
2.30573e-06
3.19944e-05
2.8877e-06
3.45912e-05
3.51749e-06
3.73986e-05
4.19836e-06
4.04336e-05
4.93608e-06
4.37136e-05
5.73429e-06
4.72597e-05
6.598e-06
5.10937e-05
7.53172e-06
5.52382e-05
8.54209e-06
5.9718e-05
9.6368e-06
6.45578e-05
1.08245e-05
6.97879e-05
1.21087e-05
7.54436e-05
1.3498e-05
8.15555e-05
1.50068e-05
8.81534e-05
1.66427e-05
9.52849e-05
1.84117e-05
0.000102993
2.03326e-05
0.000111312
2.24165e-05
0.000120296
2.46703e-05
0.000130005
2.71216e-05
0.000140471
2.97747e-05
0.000151778
3.26514e-05
0.00016397
3.57717e-05
0.000177118
3.91492e-05
0.000191296
4.28137e-05
0.000206561
4.67776e-05
0.000223008
5.10746e-05
0.000240692
5.57216e-05
0.000259711
6.07507e-05
0.000280128
6.61885e-05
0.000302027
7.20611e-05
0.000325483
7.84085e-05
0.000350551
8.5253e-05
0.000377304
9.26315e-05
0.000405771
0.00010058
0.000435973
0.000109127
0.000467907
0.000118305
0.00050152
0.000128147
0.000536706
0.000138679
0.000573303
0.000149922
0.000611051
0.000161891
0.000649576
0.000174591
0.000688361
0.000188017
0.000726705
0.000202143
0.000763676
0.000216925
0.000798055
0.000232288
0.000828267
0.000248121
0.000852308
0.000264266
0.000867658
0.000280504
0.000871187
0.000296544
0.000859058
0.000312008
0.000826618
0.000326407
0.000768319
0.000339139
0.000677572
0.000349505
0.000546856
0.00035657
0.000366786
0.000127757
0.000355585
3.70363e-07
2.30272e-05
1.62242e-08
7.88671e-07
2.48967e-05
1.24132e-06
2.69178e-05
1.73047e-06
2.91028e-05
2.25972e-06
3.14651e-05
2.83176e-06
3.40188e-05
3.45068e-06
3.67796e-05
4.11983e-06
3.97641e-05
4.84473e-06
4.29887e-05
5.6291e-06
4.6475e-05
6.47772e-06
5.02451e-05
7.39516e-06
5.43204e-05
8.38778e-06
5.87255e-05
9.46328e-06
6.3482e-05
1.06301e-05
6.86213e-05
1.18916e-05
7.41818e-05
1.32563e-05
8.01908e-05
1.47383e-05
8.66711e-05
1.63452e-05
9.3678e-05
1.80828e-05
0.000101255
1.99696e-05
0.000109425
2.20164e-05
0.000118249
2.423e-05
0.000127791
2.66376e-05
0.000138063
2.92435e-05
0.000149172
3.2069e-05
0.000161145
3.51336e-05
0.000174053
3.8451e-05
0.000187978
4.20504e-05
0.000202962
4.5944e-05
0.000219114
5.01647e-05
0.000236471
5.47292e-05
0.000255146
5.9669e-05
0.000275187
6.50102e-05
0.000296685
7.07786e-05
0.000319714
7.70131e-05
0.000344316
8.37359e-05
0.000370581
9.09827e-05
0.000398524
9.87888e-05
0.000428166
0.000107181
0.000459514
0.000116193
0.000492508
0.000125856
0.000527042
0.000136195
0.000562963
0.000147231
0.000600014
0.000158979
0.000637827
0.000171445
0.000675894
0.000184624
0.000713526
0.000198491
0.000749807
0.000213005
0.000783541
0.000228091
0.00081318
0.00024364
0.000836758
0.000259497
0.0008518
0.000275447
0.000855236
0.000291201
0.0008433
0.000306389
0.000811427
0.000320533
0.00075417
0.000333026
0.000665074
0.00034321
0.000536666
0.000349912
0.000360073
0.000126111
0.000351539
3.63224e-07
2.2646e-05
1.70953e-08
7.74828e-07
2.44845e-05
1.22022e-06
2.64721e-05
1.70155e-06
2.8621e-05
2.2223e-06
3.09442e-05
2.78518e-06
3.34556e-05
3.39414e-06
3.61706e-05
4.0525e-06
3.91055e-05
4.76566e-06
4.22755e-05
5.53727e-06
4.57031e-05
6.37203e-06
4.94104e-05
7.27442e-06
5.34177e-05
8.25072e-06
5.77492e-05
9.30844e-06
6.24239e-05
1.04559e-05
6.74739e-05
1.16963e-05
7.2941e-05
1.30383e-05
7.88489e-05
1.44954e-05
8.52137e-05
1.60752e-05
9.20983e-05
1.77833e-05
9.95468e-05
1.96379e-05
0.00010757
2.16497e-05
0.000116238
2.38252e-05
0.000125616
2.61912e-05
0.000135697
2.87518e-05
0.000146611
3.1528e-05
0.000158368
3.45388e-05
0.000171042
3.77978e-05
0.000184719
4.13335e-05
0.000199426
4.51577e-05
0.00021529
4.9303e-05
0.000232326
5.37856e-05
0.000250663
5.86364e-05
0.000270336
6.3881e-05
0.00029144
6.95445e-05
0.00031405
7.56653e-05
0.000338194
8.2265e-05
0.000363981
8.93787e-05
0.00039141
9.7041e-05
0.000420503
0.000105279
0.000451276
0.000114124
0.000483662
0.000123608
0.000517558
0.000133756
0.000552815
0.000144588
0.000589182
0.00015612
0.000626294
0.000168359
0.000663655
0.000181299
0.000700586
0.000194917
0.000736188
0.000209171
0.000769286
0.00022399
0.000798361
0.000239264
0.000821483
0.000254841
0.000836223
0.000270508
0.000839568
0.000285982
0.000827825
0.000300896
0.00079651
0.000314786
0.000740277
0.000327047
0.00065281
0.000337016
0.000526693
0.000343802
0.000353284
0.000124396
0.000345512
3.57776e-07
2.22712e-05
1.67437e-08
7.62651e-07
2.40793e-05
1.20062e-06
2.60341e-05
1.67394e-06
2.81475e-05
2.18593e-06
3.04322e-05
2.73935e-06
3.2902e-05
3.33801e-06
3.55719e-05
3.98528e-06
3.8458e-05
4.68637e-06
4.15744e-05
5.445e-06
4.49443e-05
6.26566e-06
4.85898e-05
7.15286e-06
5.25303e-05
8.11262e-06
5.67895e-05
9.15248e-06
6.13838e-05
1.02804e-05
6.6346e-05
1.14998e-05
7.17213e-05
1.28189e-05
7.75299e-05
1.42511e-05
8.37813e-05
1.58038e-05
9.05457e-05
1.74826e-05
9.78679e-05
1.93051e-05
0.000105748
2.12821e-05
0.00011426
2.34197e-05
0.000123478
2.57445e-05
0.000133372
2.82602e-05
0.000144095
3.09874e-05
0.000155641
3.39451e-05
0.000168084
3.71462e-05
0.000181518
4.06187e-05
0.000195953
4.43745e-05
0.000211534
4.84452e-05
0.000228255
5.28468e-05
0.000246261
5.76097e-05
0.000265573
6.27588e-05
0.000286291
6.83189e-05
0.00030849
7.43276e-05
0.000332185
8.08062e-05
0.000357502
8.77893e-05
0.000384426
9.53108e-05
0.000412981
0.000103397
0.000443189
0.00011208
0.000474979
0.00012139
0.000508246
0.000131353
0.000542852
0.000141988
0.000578546
0.000153311
0.00061497
0.00016533
0.000651635
0.000178038
0.000687876
0.000191414
0.00072281
0.000205416
0.000755282
0.000219972
0.000783803
0.000234977
0.000806476
0.000250278
0.00082092
0.000265664
0.000824178
0.000280859
0.000812626
0.000295502
0.000781862
0.000309138
0.000726636
0.000321172
0.00064077
0.000330928
0.000516929
0.000337534
0.000346664
0.000122562
0.000339346
3.50265e-07
2.19028e-05
1.70512e-08
7.4788e-07
2.36811e-05
1.17811e-06
2.56036e-05
1.64309e-06
2.7682e-05
2.14612e-06
2.99289e-05
2.68988e-06
3.23579e-05
3.27812e-06
3.49836e-05
3.91408e-06
3.78217e-05
4.60295e-06
4.08855e-05
5.34826e-06
4.41986e-05
6.15456e-06
4.77834e-05
7.02615e-06
5.16583e-05
7.96911e-06
5.58466e-05
8.99066e-06
6.03619e-05
1.00988e-05
6.52379e-05
1.12968e-05
7.0523e-05
1.25926e-05
7.6234e-05
1.39997e-05
8.2374e-05
1.5525e-05
8.90204e-05
1.71742e-05
9.62185e-05
1.89646e-05
0.000103957
2.09065e-05
0.000112318
2.30064e-05
0.000121378
2.52898e-05
0.000131088
2.77608e-05
0.000141624
3.04395e-05
0.000152962
3.33444e-05
0.000165179
3.64882e-05
0.000178374
3.98985e-05
0.000192543
4.35868e-05
0.000207845
4.75841e-05
0.000224257
5.19063e-05
0.000241939
5.6583e-05
0.000260896
6.16387e-05
0.000281235
6.70978e-05
0.00030303
7.29973e-05
0.000326285
7.9358e-05
0.000351141
8.62139e-05
0.00037757
9.35986e-05
0.000405596
0.000101538
0.000435249
0.000110063
0.000466454
0.000119205
0.000499104
0.000128987
0.000533069
0.000139431
0.000568101
0.000150551
0.000603849
0.000162355
0.000639831
0.000174837
0.000675394
0.000187976
0.000709671
0.00020173
0.000741527
0.000216029
0.000769503
0.000230768
0.000791736
0.000245797
0.000805891
0.000260907
0.000809066
0.000275826
0.000797705
0.0002902
0.000767486
0.000303585
0.000713249
0.0003154
0.000628951
0.000324955
0.000507371
0.000331401
0.000340215
0.000120514
0.000333446
3.42005e-07
2.15413e-05
1.95007e-08
7.32675e-07
2.32903e-05
1.15524e-06
2.51811e-05
1.61191e-06
2.72252e-05
2.10586e-06
2.9435e-05
2.63979e-06
3.18238e-05
3.21733e-06
3.4406e-05
3.84178e-06
3.71971e-05
4.51813e-06
4.02092e-05
5.25e-06
4.34666e-05
6.04169e-06
4.69918e-05
6.89761e-06
5.08022e-05
7.82352e-06
5.49208e-05
8.82673e-06
5.93585e-05
9.91488e-06
6.41499e-05
1.10913e-05
6.93464e-05
1.23639e-05
7.49616e-05
1.37457e-05
8.0992e-05
1.52436e-05
8.75225e-05
1.68632e-05
9.45988e-05
1.86215e-05
0.000102199
2.05286e-05
0.000110411
2.25908e-05
0.000119316
2.48334e-05
0.000128846
2.72601e-05
0.000139197
2.98908e-05
0.000150331
3.27436e-05
0.000162326
3.58309e-05
0.000175286
3.918e-05
0.000189193
4.2802e-05
0.000204223
4.67275e-05
0.000220332
5.09718e-05
0.000237695
5.55642e-05
0.000256304
6.05288e-05
0.00027627
6.58894e-05
0.000297669
7.16824e-05
0.000320492
7.79282e-05
0.000344894
8.46603e-05
0.000370837
9.19115e-05
0.000398344
9.97076e-05
0.000427452
0.000108079
0.000458082
0.000117056
0.000490126
0.000126663
0.000523461
0.00013692
0.000557844
0.000147842
0.000592926
0.000159435
0.000628236
0.000171696
0.000663132
0.000184603
0.000696762
0.000198114
0.000728014
0.00021216
0.000755454
0.000226637
0.000777256
0.000241397
0.000791129
0.000256235
0.000794225
0.000270883
0.000783052
0.000284994
0.000753369
0.000298132
0.000700106
0.000309735
0.000617342
0.000319106
0.000497992
0.000325419
0.000333888
0.000118314
0.000327595
3.33021e-07
2.11862e-05
2.15442e-08
7.16493e-07
2.29064e-05
1.13132e-06
2.47661e-05
1.57969e-06
2.67766e-05
2.06464e-06
2.895e-05
2.5889e-06
3.12994e-05
3.15597e-06
3.38389e-05
3.76909e-06
3.65838e-05
4.43315e-06
3.95451e-05
5.15169e-06
4.27478e-05
5.92897e-06
4.62145e-05
6.76927e-06
4.99616e-05
7.67835e-06
5.40117e-05
8.66329e-06
5.83732e-05
9.73169e-06
6.30815e-05
1.08868e-05
6.8191e-05
1.21363e-05
7.37121e-05
1.34931e-05
7.9635e-05
1.4964e-05
8.60517e-05
1.65543e-05
9.30082e-05
1.82809e-05
0.000100473
2.01537e-05
0.000108538
2.21787e-05
0.000117291
2.43809e-05
0.000126643
2.6764e-05
0.000136814
2.93474e-05
0.000147748
3.21489e-05
0.000159525
3.51808e-05
0.000172254
3.84697e-05
0.000185904
4.20266e-05
0.000200666
4.58816e-05
0.000216477
5.00497e-05
0.000233526
5.45596e-05
0.000251794
5.9435e-05
0.000271394
6.46993e-05
0.000292405
7.03881e-05
0.000314803
7.65217e-05
0.00033876
8.31327e-05
0.000364226
9.02537e-05
0.000391223
9.79099e-05
0.000419796
0.000106131
0.000449861
0.000114948
0.000481309
0.000124383
0.000514025
0.000134457
0.00054777
0.000145184
0.000582199
0.000156571
0.000616848
0.000168615
0.000651088
0.000181292
0.000684084
0.000194564
0.000714743
0.00020836
0.000741657
0.000222579
0.000763037
0.000237074
0.000776634
0.000251643
0.000779654
0.000266025
0.000768669
0.000279878
0.000739514
0.000292774
0.000687208
0.000304169
0.000605945
0.000313371
0.000488787
0.000319554
0.000327702
0.000116199
0.000321667
3.24156e-07
2.08379e-05
2.46764e-08
7.00788e-07
2.25299e-05
1.10808e-06
2.4359e-05
1.54828e-06
2.63365e-05
2.02432e-06
2.84741e-05
2.53894e-06
3.07848e-05
3.09552e-06
3.32824e-05
3.69739e-06
3.59819e-05
4.34921e-06
3.88933e-05
5.05464e-06
4.20423e-05
5.81768e-06
4.54515e-05
6.64271e-06
4.91365e-05
7.53518e-06
5.31193e-05
8.50225e-06
5.74061e-05
9.55119e-06
6.20327e-05
1.06853e-05
6.70567e-05
1.19121e-05
7.24853e-05
1.32443e-05
7.83027e-05
1.46885e-05
8.46076e-05
1.625e-05
9.14465e-05
1.79454e-05
9.87772e-05
1.97843e-05
0.000106699
2.17728e-05
0.000115302
2.39352e-05
0.000124481
2.62753e-05
0.000134474
2.88122e-05
0.000145211
3.15633e-05
0.000156774
3.45407e-05
0.000169277
3.77705e-05
0.000182675
4.12635e-05
0.000197173
4.50493e-05
0.000212691
4.91426e-05
0.000229433
5.35715e-05
0.000247364
5.83595e-05
0.000266606
6.35294e-05
0.000287234
6.91163e-05
0.000309215
7.51399e-05
0.000332736
8.16325e-05
0.000357733
8.8626e-05
0.000384229
9.61451e-05
0.000412276
0.000104219
0.000441786
0.000112879
0.000472649
0.000122145
0.000504758
0.00013204
0.000537875
0.000142576
0.000571661
0.000153761
0.000605661
0.00016559
0.000639258
0.000178042
0.00067163
0.000191077
0.000701705
0.000204626
0.000728104
0.000218589
0.000749071
0.000232822
0.000762399
0.000247127
0.000765345
0.000261246
0.000754545
0.000274846
0.000725909
0.000287504
0.000674543
0.000298693
0.000594749
0.000307736
0.000479735
0.000313801
0.000321621
0.000114148
0.000315828
3.13719e-07
2.04957e-05
2.78372e-08
6.83286e-07
2.21599e-05
1.0831e-06
2.3959e-05
1.51525e-06
2.5904e-05
1.98269e-06
2.80065e-05
2.48801e-06
3.02792e-05
3.03464e-06
3.27357e-05
3.62564e-06
3.53907e-05
4.26578e-06
3.82532e-05
4.95842e-06
4.13494e-05
5.70772e-06
4.47022e-05
6.51775e-06
4.83261e-05
7.39413e-06
5.2243e-05
8.34361e-06
5.64562e-05
9.3736e-06
6.10027e-05
1.04872e-05
6.59428e-05
1.16918e-05
7.12807e-05
1.29998e-05
7.69945e-05
1.44179e-05
8.31895e-05
1.59512e-05
8.99131e-05
1.76158e-05
9.71126e-05
1.94216e-05
0.000104893
2.13741e-05
0.00011335
2.34975e-05
0.000122357
2.57954e-05
0.000132176
2.82866e-05
0.00014272
3.09881e-05
0.000154072
3.39119e-05
0.000166353
3.70836e-05
0.000179503
4.05139e-05
0.000193743
4.42316e-05
0.000208973
4.82514e-05
0.000225413
5.2601e-05
0.000243015
5.73032e-05
0.000261903
6.23805e-05
0.000282157
6.78674e-05
0.000303728
7.37832e-05
0.00032682
8.01598e-05
0.000351356
8.70283e-05
0.00037736
9.44132e-05
0.000404891
0.000102343
0.000433855
0.000110848
0.000464144
0.00011995
0.000495655
0.000129668
0.000528156
0.000140017
0.000561312
0.000151003
0.000594675
0.000162621
0.00062764
0.000174851
0.0006594
0.000187652
0.000688905
0.000200957
0.000714799
0.000214667
0.000735361
0.00022864
0.000748426
0.000242683
0.000751301
0.000256543
0.000740683
0.000269894
0.000712556
0.00028232
0.000662115
0.000293306
0.000583762
0.000302193
0.000470847
0.000308164
0.000315649
0.000112112
0.000310202
3.03849e-07
2.01599e-05
3.22605e-08
6.66906e-07
2.17968e-05
1.0596e-06
2.35665e-05
1.48397e-06
2.54796e-05
1.94298e-06
2.75476e-05
2.43912e-06
2.9783e-05
2.97578e-06
3.21991e-05
3.55605e-06
3.48103e-05
4.18454e-06
3.76248e-05
4.86465e-06
4.06692e-05
5.60035e-06
4.39666e-05
6.39578e-06
4.75307e-05
7.25624e-06
5.13827e-05
8.18861e-06
5.55238e-05
9.19992e-06
5.99915e-05
1.02934e-05
6.48493e-05
1.14761e-05
7.00981e-05
1.27605e-05
7.571e-05
1.41529e-05
8.17972e-05
1.56584e-05
8.84074e-05
1.7293e-05
9.54781e-05
1.90661e-05
0.00010312
2.09834e-05
0.000111432
2.30684e-05
0.000120272
2.53249e-05
0.000129919
2.77711e-05
0.000140273
3.0424e-05
0.000151419
3.32952e-05
0.000163482
3.64098e-05
0.000176388
3.97784e-05
0.000190374
4.34294e-05
0.000205322
4.73771e-05
0.000221465
5.16487e-05
0.000238743
5.62666e-05
0.000257285
6.1253e-05
0.00027717
6.66417e-05
0.000298339
7.24519e-05
0.00032101
7.87145e-05
0.000345093
8.54605e-05
0.000370614
9.27137e-05
0.000397637
0.000100503
0.000426066
0.000108856
0.00045579
0.000117796
0.000486715
0.000127341
0.00051861
0.000137506
0.000551146
0.000148296
0.000583884
0.000159707
0.000616228
0.000171717
0.000647388
0.000184287
0.000676332
0.000197351
0.000701732
0.000210811
0.000721898
0.000224529
0.000734705
0.000238314
0.000737512
0.00025192
0.000727073
0.000265026
0.000699444
0.000277225
0.00064991
0.000288011
0.000572968
0.000296743
0.000462106
0.000302634
0.000309742
0.000109951
0.000304771
2.93964e-07
1.98299e-05
3.56552e-08
6.5039e-07
2.14401e-05
1.03599e-06
2.31808e-05
1.45273e-06
2.50626e-05
1.9035e-06
2.70968e-05
2.39077e-06
2.92956e-05
2.91785e-06
3.1672e-05
3.4877e-06
3.42403e-05
4.10493e-06
3.70075e-05
4.77277e-06
4.00012e-05
5.49523e-06
4.32442e-05
6.27626e-06
4.67493e-05
7.12123e-06
5.05377e-05
8.03671e-06
5.4608e-05
9.0298e-06
5.89985e-05
1.01035e-05
6.37753e-05
1.1265e-05
6.89366e-05
1.25261e-05
7.44486e-05
1.38934e-05
8.043e-05
1.53718e-05
8.69289e-05
1.69769e-05
9.3873e-05
1.8718e-05
0.000101379
2.06008e-05
0.00010955
2.26483e-05
0.000118224
2.48641e-05
0.000127704
2.72662e-05
0.000137871
2.98713e-05
0.000148814
3.26909e-05
0.000160662
3.57496e-05
0.000173329
3.90577e-05
0.000187066
4.26431e-05
0.000201736
4.65199e-05
0.000217588
5.0715e-05
0.000234548
5.52502e-05
0.00025275
6.01474e-05
0.000272272
6.54397e-05
0.000293047
7.1146e-05
0.000315303
7.72969e-05
0.000338942
8.39225e-05
0.000363988
9.10464e-05
0.000390513
9.86965e-05
0.000418416
0.000106901
0.000447585
0.000115682
0.000477934
0.000125057
0.000509234
0.000135041
0.000541162
0.000145639
0.000573286
0.000156845
0.000605022
0.000168639
0.000635594
0.000180982
0.000663989
0.000193809
0.000688906
0.000207023
0.000708684
0.000220489
0.00072124
0.000234021
0.000723979
0.000247377
0.000713716
0.000260244
0.000686576
0.000272221
0.000637932
0.000282813
0.000562374
0.000291391
0.000453527
0.000297201
0.000303932
0.000107703
0.000299453
2.85084e-07
1.95062e-05
3.93269e-08
6.35227e-07
2.109e-05
1.01396e-06
2.28024e-05
1.42319e-06
2.46534e-05
1.86583e-06
2.66544e-05
2.34425e-06
2.88171e-05
2.86174e-06
3.11546e-05
3.42127e-06
3.36808e-05
4.02731e-06
3.64016e-05
4.68313e-06
3.93453e-05
5.39256e-06
4.25349e-05
6.15959e-06
4.59823e-05
6.98933e-06
4.97081e-05
7.88842e-06
5.37089e-05
8.86361e-06
5.80235e-05
9.91802e-06
6.27209e-05
1.10586e-05
6.77962e-05
1.22971e-05
7.321e-05
1.36397e-05
7.90874e-05
1.50915e-05
8.5477e-05
1.66677e-05
9.22968e-05
1.83775e-05
9.96689e-05
2.02263e-05
0.000107701
2.2237e-05
0.000116214
2.44129e-05
0.000125528
2.67719e-05
0.000135512
2.93302e-05
0.000146256
3.20991e-05
0.000157893
3.51028e-05
0.000170325
3.83515e-05
0.000183817
4.18726e-05
0.000198215
4.568e-05
0.000213781
4.97998e-05
0.000230428
5.42538e-05
0.000248296
5.90634e-05
0.000267463
6.42611e-05
0.000287849
6.98654e-05
0.000309699
7.59064e-05
0.0003329
8.24137e-05
0.000357481
8.94106e-05
0.000383516
9.69242e-05
0.000410902
0.000104983
0.000439526
0.000113607
0.000469309
0.000122815
0.000500026
0.00013262
0.000531356
0.000143028
0.000562877
0.000154033
0.000594015
0.000165615
0.00062401
0.000177734
0.000651868
0.000190327
0.00067631
0.0002033
0.000695708
0.000216519
0.000708018
0.000229803
0.000710691
0.000242915
0.000700599
0.000255548
0.000673938
0.000267309
0.000626164
0.000277712
0.000551964
0.000286139
0.000445091
0.000291861
0.000298195
0.000105352
0.000294188
2.75588e-07
1.91879e-05
4.19814e-08
6.19193e-07
2.07459e-05
9.91027e-07
2.24303e-05
1.39284e-06
2.42512e-05
1.82758e-06
2.62195e-05
2.29745e-06
2.8347e-05
2.80584e-06
3.06462e-05
3.35539e-06
3.31309e-05
3.95075e-06
3.58063e-05
4.59483e-06
3.8701e-05
5.29168e-06
4.18381e-05
6.04493e-06
4.52287e-05
6.85994e-06
4.88932e-05
7.74286e-06
5.28257e-05
8.70066e-06
5.70657e-05
9.73615e-06
6.16851e-05
1.08563e-05
6.66761e-05
1.20726e-05
7.19936e-05
1.33912e-05
7.77689e-05
1.4817e-05
8.40511e-05
1.63649e-05
9.07489e-05
1.8044e-05
9.79897e-05
1.98597e-05
0.000105885
2.18343e-05
0.000114239
2.39712e-05
0.000123391
2.62878e-05
0.000133195
2.88002e-05
0.000143743
3.15194e-05
0.000155174
3.44692e-05
0.000167376
3.76596e-05
0.000180626
4.11176e-05
0.000194757
4.48566e-05
0.000210041
4.89027e-05
0.000226382
5.32769e-05
0.000243921
5.80003e-05
0.000262739
6.3105e-05
0.000282744
6.86091e-05
0.000304194
7.4542e-05
0.000326967
8.0933e-05
0.000351089
8.78048e-05
0.000376644
9.51842e-05
0.000403522
0.000103099
0.000431611
0.000111569
0.000460839
0.000120612
0.000490982
0.000130241
0.000521727
0.000140462
0.000552656
0.000151269
0.000583209
0.000162641
0.000612638
0.000174541
0.000639969
0.000186904
0.000663946
0.00019964
0.000682973
0.000212617
0.000695042
0.000225659
0.00069765
0.000238532
0.000687726
0.000250937
0.000661532
0.000262488
0.000614613
0.000272709
0.000541743
0.00028099
0.00043681
0.000286617
0.000292569
0.00010302
0.000288956
2.67051e-07
1.88755e-05
4.56032e-08
6.04656e-07
2.04082e-05
9.69948e-07
2.20652e-05
1.36457e-06
2.38565e-05
1.79157e-06
2.57927e-05
2.25296e-06
2.78854e-05
2.75218e-06
3.01471e-05
3.29184e-06
3.25911e-05
3.87648e-06
3.52218e-05
4.50904e-06
3.80683e-05
5.1934e-06
4.1154e-05
5.93324e-06
4.44889e-05
6.73362e-06
4.80931e-05
7.60081e-06
5.19585e-05
8.54145e-06
5.61253e-05
9.55843e-06
6.06681e-05
1.06585e-05
6.55762e-05
1.1853e-05
7.0799e-05
1.3148e-05
7.6474e-05
1.45482e-05
8.26508e-05
1.60683e-05
8.92288e-05
1.77173e-05
9.63407e-05
1.95004e-05
0.000104102
2.14396e-05
0.0001123
2.35382e-05
0.000121292
2.58133e-05
0.00013092
2.82806e-05
0.000141276
3.0951e-05
0.000152503
3.38479e-05
0.000164479
3.69811e-05
0.000177493
4.03771e-05
0.000191361
4.40492e-05
0.000206369
4.80226e-05
0.000222408
5.23184e-05
0.000239625
5.69572e-05
0.0002581
6.19704e-05
0.00027773
6.73758e-05
0.000298789
7.32025e-05
0.00032114
7.9479e-05
0.000344813
8.62276e-05
0.000369895
9.34747e-05
0.000396275
0.000101247
0.000423838
0.000109565
0.00045252
0.000118446
0.000482101
0.000127902
0.00051227
0.000137938
0.000542619
0.00014855
0.000572596
0.000159716
0.00060147
0.000171399
0.000628284
0.000183537
0.000651805
0.000196041
0.000670467
0.000208781
0.000682298
0.000221586
0.000684842
0.000234227
0.000675081
0.00024641
0.000649343
0.000257757
0.00060326
0.000267799
0.000531693
0.000275941
0.000428659
0.00028147
0.000287026
0.000100694
0.000283772
2.58355e-07
1.85684e-05
4.82224e-08
5.89814e-07
2.00763e-05
9.48558e-07
2.17064e-05
1.33613e-06
2.34686e-05
1.75553e-06
2.53733e-05
2.20875e-06
2.7432e-05
2.69916e-06
2.96568e-05
3.22923e-06
3.20608e-05
3.80352e-06
3.46476e-05
4.42476e-06
3.74469e-05
5.09693e-06
4.04819e-05
5.82349e-06
4.3762e-05
6.60961e-06
4.7307e-05
7.46124e-06
5.11066e-05
8.38508e-06
5.52016e-05
9.38385e-06
5.96691e-05
1.04643e-05
6.44958e-05
1.16374e-05
6.96257e-05
1.29092e-05
7.52023e-05
1.42844e-05
8.12755e-05
1.57774e-05
8.77359e-05
1.73968e-05
9.47211e-05
1.9148e-05
0.000102351
2.10524e-05
0.000110395
2.31134e-05
0.000119231
2.53477e-05
0.000128686
2.77707e-05
0.000138853
3.03932e-05
0.000149881
3.32382e-05
0.000161634
3.63152e-05
0.000174416
3.96502e-05
0.000188026
4.32563e-05
0.000202763
4.71585e-05
0.000218506
5.13772e-05
0.000235407
5.59327e-05
0.000253544
6.08559e-05
0.000272807
6.61643e-05
0.00029348
7.18864e-05
0.000315418
7.80501e-05
0.000338649
8.46774e-05
0.000363268
9.17941e-05
0.000389158
9.94267e-05
0.000416206
0.000107595
0.000444352
0.000116315
0.000473381
0.0001256
0.000502985
0.000135455
0.000532764
0.000145874
0.000562178
0.000156837
0.000590507
0.000168307
0.000616814
0.000180225
0.000639889
0.000192501
0.000658192
0.00020501
0.00066979
0.000217584
0.000672269
0.000229998
0.000662667
0.000241965
0.000637376
0.000253113
0.000592111
0.000262983
0.000521823
0.00027099
0.000420653
0.000276424
0.000281594
9.84648e-05
0.000278661
2.50643e-07
1.82671e-05
5.12498e-08
5.76304e-07
1.97506e-05
9.28708e-07
2.13543e-05
1.30933e-06
2.30879e-05
1.72122e-06
2.49617e-05
2.16621e-06
2.69869e-05
2.64775e-06
2.91754e-05
3.16826e-06
3.15403e-05
3.73219e-06
3.4084e-05
4.34232e-06
3.68367e-05
5.00244e-06
3.9822e-05
5.71607e-06
4.30485e-05
6.4881e-06
4.65353e-05
7.32458e-06
5.02702e-05
8.23188e-06
5.42945e-05
9.21282e-06
5.86882e-05
1.02739e-05
6.34349e-05
1.1426e-05
6.84735e-05
1.26751e-05
7.39534e-05
1.40256e-05
7.99249e-05
1.54918e-05
8.62698e-05
1.70822e-05
9.31307e-05
1.88019e-05
0.000100631
2.06722e-05
0.000108525
2.26962e-05
0.000117207
2.48904e-05
0.000126492
2.72699e-05
0.000136473
2.98454e-05
0.000147305
3.26392e-05
0.00015884
3.56609e-05
0.000171394
3.8936e-05
0.000184751
4.24774e-05
0.000199222
4.63094e-05
0.000214674
5.04522e-05
0.000231264
5.49259e-05
0.000249071
5.97605e-05
0.000267972
6.49733e-05
0.000288267
7.05924e-05
0.000309799
7.6645e-05
0.000332596
8.31529e-05
0.00035676
9.01412e-05
0.000382169
9.76359e-05
0.00040871
0.000105656
0.000436332
0.000114219
0.000464818
0.000123335
0.000493867
0.000133011
0.000523087
0.00014324
0.000551947
0.000154004
0.000579742
0.000165266
0.00060555
0.000176966
0.000628186
0.00018902
0.000646137
0.000201303
0.000657503
0.000213651
0.000659918
0.000225845
0.000650469
0.000237601
0.000625615
0.000248555
0.000581151
0.000258257
0.000512114
0.000266133
0.000412768
0.000271477
0.000276235
9.62721e-05
0.000273647
2.42328e-07
1.79709e-05
5.29643e-08
5.61848e-07
1.94304e-05
9.07834e-07
2.10081e-05
1.28154e-06
2.27136e-05
1.68611e-06
2.4557e-05
2.12319e-06
2.65494e-05
2.59632e-06
2.87024e-05
3.10757e-06
3.10287e-05
3.66162e-06
3.353e-05
4.26085e-06
3.62372e-05
4.90932e-06
3.91737e-05
5.61014e-06
4.23473e-05
6.36851e-06
4.57771e-05
7.18997e-06
4.94484e-05
8.08112e-06
5.34035e-05
9.04448e-06
5.77246e-05
1.00866e-05
6.23929e-05
1.12182e-05
6.73419e-05
1.24448e-05
7.27268e-05
1.37712e-05
7.85985e-05
1.52111e-05
8.48299e-05
1.6773e-05
9.15687e-05
1.84619e-05
9.89422e-05
2.02985e-05
0.000106688
2.22861e-05
0.00011522
2.44409e-05
0.000124337
2.67777e-05
0.000134137
2.93068e-05
0.000144776
3.20504e-05
0.000156096
3.50178e-05
0.000168427
3.82339e-05
0.000181535
4.17114e-05
0.000195744
4.54745e-05
0.000210911
4.95426e-05
0.000227195
5.39357e-05
0.000244678
5.86831e-05
0.000263225
6.38019e-05
0.000283148
6.93195e-05
0.000304281
7.52629e-05
0.000326653
8.16531e-05
0.000350369
8.8515e-05
0.000375308
9.58739e-05
0.000401352
0.000103749
0.000428457
0.000112156
0.000456411
0.000121107
0.000484916
0.000130607
0.000513588
0.00014065
0.000541905
0.000151218
0.000569175
0.000162275
0.000594494
0.000173763
0.000616698
0.000185599
0.000634302
0.000197662
0.000645442
0.00020979
0.00064779
0.000221768
0.000638491
0.000233318
0.000614064
0.000244083
0.000570386
0.000253621
0.000502577
0.000261369
0.000405021
0.00026663
0.000270979
9.4173e-05
0.00026874
2.35269e-07
1.76802e-05
5.57051e-08
5.49279e-07
1.91161e-05
8.89191e-07
2.06684e-05
1.25624e-06
2.23464e-05
1.65357e-06
2.416e-05
2.08274e-06
2.612e-05
2.54727e-06
2.8238e-05
3.0493e-06
3.05265e-05
3.59332e-06
3.29863e-05
4.18181e-06
3.56486e-05
4.81859e-06
3.85372e-05
5.50692e-06
4.16591e-05
6.25162e-06
4.50327e-05
7.05841e-06
4.86417e-05
7.93354e-06
5.25287e-05
8.87964e-06
5.67785e-05
9.90304e-06
6.13698e-05
1.10142e-05
6.62307e-05
1.22188e-05
7.15224e-05
1.35213e-05
7.7296e-05
1.49353e-05
8.3416e-05
1.64691e-05
9.00349e-05
1.81276e-05
9.72837e-05
1.99312e-05
0.000104885
2.1883e-05
0.000113268
2.3999e-05
0.000122221
2.62936e-05
0.000131842
2.87772e-05
0.000142293
3.14713e-05
0.000153402
3.43852e-05
0.000165513
3.75433e-05
0.000178377
4.09581e-05
0.000192329
4.46531e-05
0.000207216
4.8648e-05
0.000223201
5.29616e-05
0.000240364
5.76233e-05
0.000258563
6.26496e-05
0.000278122
6.80674e-05
0.000298864
7.39032e-05
0.000320817
8.01777e-05
0.000344095
8.69152e-05
0.00036857
9.41407e-05
0.000394126
0.000101873
0.000420724
0.000110127
0.000448156
0.000118915
0.000476127
0.000128243
0.00050426
0.000138103
0.000532043
0.000148479
0.000558798
0.000159336
0.000583636
0.000170617
0.000605415
0.00018224
0.000622677
0.000194087
0.000633591
0.000206
0.000635874
0.000217768
0.000626719
0.000229118
0.000602709
0.000239698
0.0005598
0.000249074
0.000493193
0.000256696
0.000397389
0.000261878
0.000265783
9.20837e-05
0.000263944
2.27986e-07
1.73945e-05
5.7147e-08
5.3623e-07
1.88073e-05
8.70034e-07
2.03346e-05
1.23051e-06
2.19855e-05
1.62077e-06
2.37698e-05
2.04233e-06
2.56981e-05
2.49868e-06
2.77818e-05
2.99175e-06
3.00332e-05
3.52612e-06
3.24521e-05
4.10402e-06
3.50705e-05
4.72942e-06
3.7912e-05
5.40529e-06
4.09829e-05
6.13666e-06
4.43015e-05
6.92887e-06
4.78493e-05
7.78829e-06
5.16694e-05
8.71734e-06
5.58493e-05
9.72237e-06
6.03648e-05
1.08136e-05
6.51394e-05
1.19965e-05
7.03395e-05
1.32755e-05
7.60169e-05
1.46641e-05
8.20275e-05
1.61702e-05
8.85287e-05
1.77989e-05
9.56552e-05
1.95699e-05
0.000103114
2.14865e-05
0.000111351
2.35643e-05
0.000120143
2.58176e-05
0.000129589
2.82563e-05
0.000139854
3.09017e-05
0.000150757
3.37629e-05
0.000162652
3.6864e-05
0.000175276
4.0217e-05
0.000188976
4.38454e-05
0.000203587
4.77678e-05
0.000219278
5.20034e-05
0.000236128
5.65807e-05
0.000253986
6.1516e-05
0.000273187
6.68357e-05
0.000293544
7.25658e-05
0.000315087
7.87266e-05
0.000337934
8.5342e-05
0.000361954
9.24363e-05
0.000387032
0.000100028
0.000413133
0.000108132
0.000440052
0.000116761
0.000467498
0.000125919
0.000495103
0.000135601
0.000522362
0.000145789
0.00054861
0.00015645
0.000572976
0.000167528
0.000594337
0.000178943
0.000611264
0.00019058
0.000621956
0.000202283
0.000624172
0.000213846
0.000615157
0.000224999
0.000591556
0.000235398
0.000549401
0.000244615
0.000483977
0.000252113
0.000389894
0.000257218
0.000260683
9.00601e-05
0.000259256
2.22052e-07
1.71143e-05
5.89722e-08
5.24958e-07
1.85044e-05
8.52828e-07
2.00071e-05
1.20682e-06
2.16314e-05
1.59001e-06
2.3387e-05
2.00388e-06
2.52842e-05
2.45183e-06
2.73342e-05
2.93594e-06
2.9549e-05
3.46054e-06
3.19278e-05
4.02804e-06
3.4503e-05
4.6421e-06
3.72983e-05
5.30588e-06
4.03192e-05
6.02401e-06
4.35838e-05
6.80204e-06
4.70714e-05
7.64594e-06
5.08259e-05
8.55827e-06
5.4937e-05
9.54515e-06
5.93782e-05
1.06166e-05
6.40679e-05
1.17782e-05
6.91782e-05
1.30341e-05
7.4761e-05
1.43976e-05
8.06641e-05
1.58765e-05
8.70497e-05
1.74757e-05
9.4056e-05
1.92148e-05
0.000101375
2.10967e-05
0.000109469
2.31369e-05
0.000118103
2.53494e-05
0.000127376
2.7744e-05
0.000137459
3.03416e-05
0.000148159
3.3151e-05
0.000159843
3.61959e-05
0.000172231
3.94884e-05
0.000185684
4.30508e-05
0.000200025
4.69024e-05
0.000215427
5.10612e-05
0.000231969
5.55556e-05
0.000249491
6.04015e-05
0.000268341
6.56248e-05
0.000288321
7.1251e-05
0.00030946
7.73001e-05
0.000331885
8.37955e-05
0.000355459
9.07612e-05
0.000380066
9.82152e-05
0.000405679
0.000106173
0.000432094
0.000114645
0.000459025
0.000123637
0.00048611
0.000133144
0.000512854
0.000143149
0.000538605
0.000153618
0.000562506
0.000164498
0.000583455
0.00017571
0.000600049
0.000187142
0.000610521
0.00019864
0.000612671
0.000210001
0.000603792
0.000220963
0.00058059
0.000231184
0.000539173
0.000240245
0.000474909
0.000247618
0.000382511
0.000252648
0.000255639
8.80212e-05
0.000254666
2.15377e-07
1.68387e-05
5.90694e-08
5.12417e-07
1.82065e-05
8.34251e-07
1.96851e-05
1.18174e-06
2.12833e-05
1.5581e-06
2.30106e-05
1.96456e-06
2.48772e-05
2.40469e-06
2.68942e-05
2.88015e-06
2.90731e-05
3.39553e-06
3.14126e-05
3.95282e-06
3.39454e-05
4.55597e-06
3.66953e-05
5.20773e-06
3.96672e-05
5.91306e-06
4.28786e-05
6.67699e-06
4.63072e-05
7.50575e-06
4.99973e-05
8.40161e-06
5.4041e-05
9.37074e-06
5.84093e-05
1.04229e-05
6.30156e-05
1.15635e-05
6.80376e-05
1.27968e-05
7.35277e-05
1.41356e-05
7.93254e-05
1.55878e-05
8.55975e-05