/*--------------------------------*- C++ -*----------------------------------*\
  =========                 |
  \\      /  F ield         | OpenFOAM: The Open Source CFD Toolbox
   \\    /   O peration     | Website:  https://openfoam.org
    \\  /    A nd           | Version:  6.0
     \\/     M anipulation  |
\*---------------------------------------------------------------------------*/
FoamFile
{
    version     2.0;
    format      ascii;
    class       surfaceScalarField;
    location    "3.63";
    object      phi;
}
// * * * * * * * * * * * * * * * * * * * * * * * * * * * * * * * * * * * * * //

dimensions      [0 3 -1 0 0 0 0];

internalField   nonuniform List<scalar> 
26699
(
2.0051e-05
0.005201
6.0082e-10
4.0126e-05
0.0051116
5.9639e-05
0.0049351
7.8187e-05
0.0046741
9.5415e-05
0.0043332
0.00011102
0.0039182
0.00012471
0.0034362
0.00013626
0.0028953
0.00014546
0.002305
0.00015181
0.0016755
0.00015717
0.0010154
0.00046503
3.435e-05
2.0051e-05
0.0051809
1.8083e-09
4.0127e-05
0.0050916
5.964e-05
0.0049155
7.819e-05
0.0046556
9.5417e-05
0.004316
0.00011102
0.0039026
0.00012471
0.0034225
0.00013625
0.0028838
0.00014545
0.0022958
0.00015105
0.0016699
0.0001589
0.0010076
0.00055905
6.488e-05
2.0051e-05
0.0051609
3.1015e-09
4.0128e-05
0.0050715
5.9643e-05
0.004896
7.8193e-05
0.004637
9.542e-05
0.0042988
0.00011103
0.003887
0.00012471
0.0034088
0.00013623
0.0028723
0.00014547
0.0022865
0.00015029
0.0016651
0.00016016
0.00099768
0.00062922
8.9992e-05
2.0051e-05
0.0051408
4.414e-09
4.013e-05
0.0050514
5.9645e-05
0.0048765
7.8196e-05
0.0046185
9.5423e-05
0.0042815
0.00011103
0.0038714
0.0001247
0.0033951
0.0001362
0.0028608
0.00014551
0.0022772
0.00014955
0.001661
0.00016089
0.00098634
0.00067993
0.00011018
2.0051e-05
0.0051208
5.7292e-09
4.0131e-05
0.0050313
5.9647e-05
0.004857
7.8199e-05
0.0045999
9.5427e-05
0.0042643
0.00011103
0.0038558
0.0001247
0.0033815
0.00013618
0.0028493
0.00014558
0.0022678
0.00014885
0.0016578
0.0001611
0.00097409
0.00071482
0.00012621
2.0051e-05
0.0051007
7.0471e-09
4.0132e-05
0.0050112
5.965e-05
0.0048375
7.8202e-05
0.0045814
9.543e-05
0.0042471
0.00011103
0.0038402
0.0001247
0.0033678
0.00013615
0.0028378
0.00014567
0.0022583
0.00014822
0.0016552
0.00016085
0.00096146
0.00073691
0.00013877
2.0051e-05
0.0050807
8.368e-09
4.0133e-05
0.0049912
5.9652e-05
0.004818
7.8205e-05
0.0045628
9.5433e-05
0.0042299
0.00011103
0.0038246
0.0001247
0.0033541
0.00013612
0.0028264
0.00014578
0.0022486
0.00014769
0.0016533
0.00016025
0.0009489
0.00074875
0.00014841
2.0051e-05
0.0050606
9.6916e-09
4.0134e-05
0.0049711
5.9654e-05
0.0047984
7.8208e-05
0.0045443
9.5436e-05
0.0042126
0.00011104
0.003809
0.0001247
0.0033405
0.00013608
0.002815
0.00014591
0.0022388
0.00014725
0.001652
0.00015937
0.00093677
0.00075251
0.00015561
2.0051e-05
0.0050405
1.1018e-08
4.0135e-05
0.004951
5.9657e-05
0.0047789
7.8212e-05
0.0045257
9.544e-05
0.0041954
0.00011104
0.0037934
0.0001247
0.0033268
0.00013604
0.0028037
0.00014604
0.0022288
0.00014691
0.0016511
0.00015832
0.00092537
0.00075
0.00016083
2.0051e-05
0.0050205
1.2348e-08
4.0137e-05
0.0049309
5.9659e-05
0.0047594
7.8215e-05
0.0045071
9.5443e-05
0.0041782
0.00011104
0.0037778
0.0001247
0.0033132
0.00013599
0.0027924
0.00014618
0.0022186
0.00014669
0.0016506
0.00015715
0.0009149
0.00074273
0.00016442
2.0051e-05
0.0050004
1.368e-08
4.0138e-05
0.0049108
5.9661e-05
0.0047399
7.8218e-05
0.0044886
9.5446e-05
0.004161
0.00011104
0.0037622
0.0001247
0.0032995
0.00013595
0.0027812
0.00014632
0.0022082
0.00014658
0.0016503
0.00015595
0.00090553
0.00073196
0.00016672
2.0051e-05
0.0049803
1.5016e-08
4.0139e-05
0.0048907
5.9664e-05
0.0047204
7.8221e-05
0.00447
9.545e-05
0.0041437
0.00011105
0.0037466
0.00012471
0.0032858
0.00013589
0.00277
0.00014646
0.0021977
0.00014656
0.0016502
0.00015476
0.00089734
0.00071872
0.000168
2.005e-05
0.0049603
1.6355e-08
4.014e-05
0.0048706
5.9666e-05
0.0047008
7.8224e-05
0.0044515
9.5453e-05
0.0041265
0.00011105
0.003731
0.00012472
0.0032722
0.00013584
0.0027589
0.00014659
0.0021869
0.00014665
0.0016502
0.00015362
0.00089037
0.00070383
0.00016851
2.005e-05
0.0049402
1.7697e-08
4.0141e-05
0.0048506
5.9668e-05
0.0046813
7.8227e-05
0.0044329
9.5457e-05
0.0041093
0.00011105
0.0037154
0.00012472
0.0032585
0.00013578
0.0027478
0.00014671
0.002176
0.00014682
0.00165
0.00015257
0.00088462
0.00068798
0.00016842
2.005e-05
0.0049201
1.9042e-08
4.0143e-05
0.0048305
5.9671e-05
0.0046618
7.823e-05
0.0044144
9.5461e-05
0.004092
0.00011105
0.0036998
0.00012473
0.0032448
0.00013571
0.0027368
0.00014682
0.0021649
0.00014707
0.0016498
0.00015163
0.00088006
0.00067169
0.00016792
2.005e-05
0.0049001
2.0391e-08
4.0144e-05
0.0048104
5.9673e-05
0.0046422
7.8233e-05
0.0043958
9.5464e-05
0.0040748
0.00011105
0.0036842
0.00012475
0.0032311
0.00013565
0.0027259
0.00014691
0.0021536
0.00014739
0.0016493
0.00015083
0.00087663
0.0006554
0.00016712
2.005e-05
0.00488
2.1742e-08
4.0145e-05
0.0047903
5.9676e-05
0.0046227
7.8236e-05
0.0043772
9.5468e-05
0.0040576
0.00011106
0.0036686
0.00012476
0.0032174
0.00013558
0.0027151
0.00014699
0.0021422
0.00014776
0.0016485
0.00015015
0.00087424
0.00063942
0.00016613
2.005e-05
0.0048599
2.3098e-08
4.0146e-05
0.0047702
5.9678e-05
0.0046032
7.824e-05
0.0043587
9.5472e-05
0.0040403
0.00011106
0.0036531
0.00012477
0.0032037
0.00013551
0.0027044
0.00014705
0.0021307
0.00014818
0.0016474
0.00014962
0.00087279
0.00062399
0.00016505
2.005e-05
0.0048399
2.4456e-08
4.0147e-05
0.0047501
5.968e-05
0.0045836
7.8243e-05
0.0043401
9.5476e-05
0.0040231
0.00011106
0.0036375
0.00012479
0.00319
0.00013544
0.0026937
0.00014709
0.002119
0.00014863
0.0016459
0.00014922
0.0008722
0.00060928
0.00016393
2.005e-05
0.0048198
2.5819e-08
4.0148e-05
0.00473
5.9683e-05
0.0045641
7.8246e-05
0.0043215
9.548e-05
0.0040059
0.00011106
0.0036219
0.00012481
0.0031762
0.00013537
0.0026832
0.00014712
0.0021073
0.0001491
0.0016439
0.00014896
0.00087233
0.0005954
0.00016284
2.005e-05
0.0047997
2.7184e-08
4.015e-05
0.0047099
5.9685e-05
0.0045446
7.8249e-05
0.004303
9.5484e-05
0.0039886
0.00011106
0.0036063
0.00012483
0.0031624
0.00013531
0.0026727
0.00014712
0.0020955
0.00014958
0.0016414
0.00014882
0.00087309
0.00058242
0.0001618
2.005e-05
0.0047796
2.8554e-08
4.0151e-05
0.0046898
5.9688e-05
0.004525
7.8253e-05
0.0042844
9.5488e-05
0.0039714
0.00011106
0.0035907
0.00012486
0.0031486
0.00013524
0.0026623
0.0001471
0.0020836
0.00015007
0.0016385
0.0001488
0.00087436
0.00057038
0.00016084
2.005e-05
0.0047595
2.9927e-08
4.0152e-05
0.0046697
5.969e-05
0.0045055
7.8256e-05
0.0042658
9.5492e-05
0.0039542
0.00011106
0.0035752
0.00012488
0.0031348
0.00013517
0.002652
0.00014706
0.0020717
0.00015055
0.001635
0.00014888
0.00087604
0.00055927
0.00015999
2.005e-05
0.0047395
3.1304e-08
4.0153e-05
0.0046496
5.9692e-05
0.004486
7.8259e-05
0.0042473
9.5497e-05
0.0039369
0.00011106
0.0035596
0.00012491
0.003121
0.00013511
0.0026418
0.00014701
0.0020598
0.00015103
0.001631
0.00014905
0.00087801
0.00054907
0.00015925
2.005e-05
0.0047194
3.2685e-08
4.0154e-05
0.0046295
5.9695e-05
0.0044664
7.8262e-05
0.0042287
9.5501e-05
0.0039197
0.00011106
0.003544
0.00012494
0.0031071
0.00013505
0.0026317
0.00014693
0.0020479
0.00015148
0.0016264
0.0001493
0.00088019
0.00053976
0.00015862
2.005e-05
0.0046993
3.407e-08
4.0155e-05
0.0046094
5.9697e-05
0.0044469
7.8266e-05
0.0042101
9.5506e-05
0.0039024
0.00011106
0.0035285
0.00012497
0.0030932
0.000135
0.0026216
0.00014684
0.0020361
0.00015192
0.0016213
0.00014962
0.00088248
0.00053126
0.00015812
2.005e-05
0.0046792
3.5458e-08
4.0157e-05
0.0045893
5.97e-05
0.0044273
7.8269e-05
0.0041916
9.5511e-05
0.0038852
0.00011106
0.0035129
0.000125
0.0030793
0.00013495
0.0026117
0.00014674
0.0020243
0.00015232
0.0016158
0.00015
0.00088481
0.00052354
0.00015772
2.005e-05
0.0046591
3.6851e-08
4.0158e-05
0.0045692
5.9702e-05
0.0044078
7.8272e-05
0.004173
9.5515e-05
0.003868
0.00011106
0.0034974
0.00012503
0.0030653
0.00013491
0.0026018
0.00014661
0.0020126
0.0001527
0.0016097
0.00015042
0.00088709
0.00051652
0.00015744
2.0049e-05
0.004639
3.8248e-08
4.0159e-05
0.004549
5.9705e-05
0.0043882
7.8276e-05
0.0041544
9.5521e-05
0.0038507
0.00011106
0.0034819
0.00012506
0.0030513
0.00013487
0.002592
0.00014648
0.002001
0.00015305
0.0016031
0.00015087
0.00088927
0.00051014
0.00015725
2.0049e-05
0.0046189
3.9649e-08
4.016e-05
0.0045289
5.9707e-05
0.0043687
7.8279e-05
0.0041359
9.5526e-05
0.0038335
0.00011106
0.0034663
0.0001251
0.0030373
0.00013484
0.0025823
0.00014633
0.0019895
0.00015336
0.0015961
0.00015134
0.00089129
0.00050432
0.00015716
2.0049e-05
0.0045989
4.1055e-08
4.0161e-05
0.0045088
5.971e-05
0.0043492
7.8282e-05
0.0041173
9.5531e-05
0.0038162
0.00011105
0.0034508
0.00012514
0.0030232
0.00013481
0.0025726
0.00014618
0.0019781
0.00015363
0.0015886
0.00015183
0.00089309
0.00049901
0.00015714
2.0049e-05
0.0045788
4.2465e-08
4.0162e-05
0.0044887
5.9712e-05
0.0043296
7.8286e-05
0.0040987
9.5537e-05
0.003799
0.00011105
0.0034353
0.00012517
0.003009
0.0001348
0.002563
0.00014601
0.0019669
0.00015387
0.0015808
0.00015232
0.00089464
0.00049413
0.00015719
2.0049e-05
0.0045587
4.3879e-08
4.0164e-05
0.0044686
5.9715e-05
0.00431
7.8289e-05
0.0040801
9.5543e-05
0.0037817
0.00011105
0.0034198
0.00012521
0.0029949
0.00013479
0.0025534
0.00014584
0.0019559
0.00015407
0.0015725
0.0001528
0.00089591
0.00048964
0.0001573
2.0049e-05
0.0045386
4.5298e-08
4.0165e-05
0.0044485
5.9717e-05
0.0042905
7.8292e-05
0.0040616
9.5549e-05
0.0037645
0.00011104
0.0034043
0.00012525
0.0029807
0.00013478
0.0025439
0.00014566
0.001945
0.00015423
0.001564
0.00015328
0.00089686
0.00048546
0.00015746
2.0049e-05
0.0045185
4.6722e-08
4.0166e-05
0.0044284
5.972e-05
0.0042709
7.8296e-05
0.004043
9.5555e-05
0.0037472
0.00011104
0.0033888
0.00012529
0.0029664
0.00013479
0.0025344
0.00014549
0.0019343
0.00015436
0.0015551
0.00015374
0.00089748
0.00048155
0.00015765
2.0049e-05
0.0044984
4.815e-08
4.0167e-05
0.0044082
5.9723e-05
0.0042514
7.8299e-05
0.0040244
9.5561e-05
0.0037299
0.00011103
0.0033733
0.00012533
0.0029521
0.0001348
0.0025249
0.0001453
0.0019238
0.00015445
0.001546
0.00015418
0.00089775
0.00047785
0.00015788
2.0049e-05
0.0044783
4.9583e-08
4.0168e-05
0.0043881
5.9725e-05
0.0042318
7.8303e-05
0.0040058
9.5568e-05
0.0037127
0.00011103
0.0033579
0.00012536
0.0029378
0.00013483
0.0025154
0.00014512
0.0019135
0.00015451
0.0015366
0.0001546
0.00089766
0.00047433
0.00015812
2.0049e-05
0.0044582
5.1021e-08
4.017e-05
0.004368
5.9728e-05
0.0042123
7.8306e-05
0.0039873
9.5575e-05
0.0036954
0.00011102
0.0033424
0.0001254
0.0029234
0.00013486
0.002506
0.00014495
0.0019034
0.00015454
0.001527
0.00015499
0.00089721
0.00047094
0.00015838
2.0049e-05
0.0044381
5.2464e-08
4.0171e-05
0.0043479
5.973e-05
0.0041927
7.831e-05
0.0039687
9.5582e-05
0.0036781
0.00011101
0.003327
0.00012544
0.002909
0.0001349
0.0024965
0.00014477
0.0018935
0.00015454
0.0015172
0.00015535
0.00089641
0.00046766
0.00015864
2.0049e-05
0.004418
5.3912e-08
4.0172e-05
0.0043278
5.9733e-05
0.0041732
7.8313e-05
0.0039501
9.5589e-05
0.0036609
0.00011101
0.0033116
0.00012547
0.0028945
0.00013494
0.002487
0.0001446
0.0018838
0.00015451
0.0015073
0.00015568
0.00089524
0.00046443
0.0001589
2.0049e-05
0.0043979
5.5365e-08
4.0173e-05
0.0043076
5.9736e-05
0.0041536
7.8317e-05
0.0039315
9.5597e-05
0.0036436
0.000111
0.0032962
0.00012551
0.00288
0.000135
0.0024775
0.00014444
0.0018744
0.00015446
0.0014973
0.00015598
0.00089372
0.00046125
0.00015916
2.0049e-05
0.0043778
5.6824e-08
4.0175e-05
0.0042875
5.9739e-05
0.004134
7.832e-05
0.0039129
9.5605e-05
0.0036263
0.00011099
0.0032808
0.00012554
0.0028655
0.00013506
0.002468
0.00014428
0.0018652
0.00015438
0.0014872
0.00015624
0.00089186
0.00045809
0.00015941
2.0048e-05
0.0043577
5.8288e-08
4.0176e-05
0.0042674
5.9741e-05
0.0041145
7.8323e-05
0.0038944
9.5613e-05
0.003609
0.00011098
0.0032654
0.00012557
0.0028509
0.00013513
0.0024585
0.00014414
0.0018562
0.00015429
0.001477
0.00015647
0.00088968
0.00045492
0.00015964
2.0048e-05
0.0043376
5.9757e-08
4.0177e-05
0.0042472
5.9744e-05
0.0040949
7.8327e-05
0.0038758
9.5622e-05
0.0035917
0.00011097
0.0032501
0.0001256
0.0028362
0.00013521
0.0024489
0.000144
0.0018474
0.00015418
0.0014669
0.00015668
0.00088718
0.00045174
0.00015986
2.0048e-05
0.0043174
6.1232e-08
4.0178e-05
0.0042271
5.9747e-05
0.0040753
7.833e-05
0.0038572
9.5631e-05
0.0035744
0.00011097
0.0032347
0.00012563
0.0028216
0.00013529
0.0024392
0.00014388
0.0018388
0.00015405
0.0014567
0.00015685
0.00088438
0.00044852
0.00016006
2.0048e-05
0.0042973
6.2712e-08
4.018e-05
0.004207
5.975e-05
0.0040558
7.8334e-05
0.0038386
9.564e-05
0.0035571
0.00011096
0.0032194
0.00012565
0.0028069
0.00013538
0.0024295
0.00014377
0.0018304
0.00015391
0.0014465
0.00015699
0.00088131
0.00044526
0.00016025
2.0048e-05
0.0042772
6.4199e-08
4.0181e-05
0.0041869
5.9752e-05
0.0040362
7.8337e-05
0.00382
9.5649e-05
0.0035398
0.00011095
0.0032041
0.00012568
0.0027922
0.00013548
0.0024197
0.00014367
0.0018222
0.00015377
0.0014364
0.0001571
0.00087797
0.00044195
0.00016041
2.0048e-05
0.0042571
6.5691e-08
4.0182e-05
0.0041667
5.9755e-05
0.0040166
7.8341e-05
0.0038014
9.5659e-05
0.0035225
0.00011094
0.0031889
0.0001257
0.0027774
0.00013558
0.0024098
0.00014358
0.0018142
0.00015361
0.0014264
0.00015719
0.00087439
0.00043859
0.00016055
2.0048e-05
0.004237
6.7189e-08
4.0183e-05
0.0041466
5.9758e-05
0.003997
7.8344e-05
0.0037829
9.5669e-05
0.0035051
0.00011093
0.0031736
0.00012572
0.0027626
0.00013569
0.0023998
0.00014351
0.0018064
0.00015345
0.0014165
0.00015725
0.00087059
0.00043517
0.00016068
2.0048e-05
0.0042169
6.8694e-08
4.0185e-05
0.0041264
5.9761e-05
0.0039775
7.8347e-05
0.0037643
9.568e-05
0.0034878
0.00011092
0.0031583
0.00012573
0.0027478
0.0001358
0.0023897
0.00014345
0.0017987
0.00015329
0.0014066
0.0001573
0.00086659
0.00043169
0.00016078
2.0048e-05
0.0041968
7.0204e-08
4.0186e-05
0.0041063
5.9764e-05
0.0039579
7.8351e-05
0.0037457
9.569e-05
0.0034705
0.00011091
0.0031431
0.00012574
0.002733
0.00013591
0.0023796
0.00014341
0.0017912
0.00015313
0.0013969
0.00015732
0.0008624
0.00042814
0.00016086
2.0048e-05
0.0041766
7.1721e-08
4.0187e-05
0.0040862
5.9767e-05
0.0039383
7.8354e-05
0.0037271
9.5701e-05
0.0034531
0.00011091
0.0031279
0.00012575
0.0027181
0.00013603
0.0023693
0.00014338
0.0017839
0.00015297
0.0013873
0.00015732
0.00085805
0.00042453
0.00016093
2.0048e-05
0.0041565
7.3245e-08
4.0189e-05
0.004066
5.977e-05
0.0039187
7.8358e-05
0.0037085
9.5713e-05
0.0034358
0.0001109
0.0031127
0.00012576
0.0027033
0.00013615
0.0023589
0.00014337
0.0017767
0.00015282
0.0013779
0.00015732
0.00085355
0.00042087
0.00016098
2.0048e-05
0.0041364
7.4775e-08
4.019e-05
0.0040459
5.9773e-05
0.0038991
7.8361e-05
0.0036899
9.5724e-05
0.0034184
0.00011089
0.0030976
0.00012576
0.0026884
0.00013627
0.0023484
0.00014337
0.0017696
0.00015267
0.0013686
0.00015729
0.00084893
0.00041715
0.00016102
2.0048e-05
0.0041163
7.6312e-08
4.0191e-05
0.0040257
5.9776e-05
0.0038796
7.8364e-05
0.0036713
9.5736e-05
0.003401
0.00011088
0.0030824
0.00012576
0.0026735
0.00013639
0.0023378
0.00014338
0.0017626
0.00015253
0.0013594
0.00015726
0.0008442
0.00041337
0.00016104
2.0047e-05
0.0040961
7.7856e-08
4.0193e-05
0.0040056
5.9779e-05
0.00386
7.8368e-05
0.0036527
9.5748e-05
0.0033837
0.00011088
0.0030673
0.00012576
0.0026586
0.00013651
0.002327
0.00014341
0.0017557
0.0001524
0.0013504
0.00015722
0.00083937
0.00040955
0.00016105
2.0047e-05
0.004076
7.9406e-08
4.0194e-05
0.0039854
5.9782e-05
0.0038404
7.8371e-05
0.0036341
9.5761e-05
0.0033663
0.00011087
0.0030522
0.00012575
0.0026438
0.00013663
0.0023161
0.00014345
0.0017489
0.00015228
0.0013416
0.00015718
0.00083447
0.00040568
0.00016104
2.0047e-05
0.0040559
8.0964e-08
4.0195e-05
0.0039653
5.9785e-05
0.0038208
7.8374e-05
0.0036156
9.5774e-05
0.0033489
0.00011087
0.0030371
0.00012574
0.0026289
0.00013675
0.0023051
0.00014351
0.0017421
0.00015217
0.0013329
0.00015713
0.00082951
0.00040178
0.00016103
2.0047e-05
0.0040358
8.2529e-08
4.0197e-05
0.0039452
5.9788e-05
0.0038012
7.8378e-05
0.003597
9.5786e-05
0.0033315
0.00011087
0.003022
0.00012573
0.002614
0.00013687
0.002294
0.00014357
0.0017354
0.00015207
0.0013245
0.00015707
0.0008245
0.00039784
0.00016101
2.0047e-05
0.0040156
8.4102e-08
4.0198e-05
0.003925
5.9792e-05
0.0037816
7.8381e-05
0.0035784
9.58e-05
0.003314
0.00011086
0.0030069
0.00012571
0.0025992
0.00013698
0.0022827
0.00014365
0.0017287
0.00015198
0.0013161
0.00015702
0.00081946
0.00039387
0.00016099
2.0047e-05
0.0039955
8.5682e-08
4.02e-05
0.0039048
5.9795e-05
0.003762
7.8384e-05
0.0035598
9.5813e-05
0.0032966
0.00011086
0.0029919
0.0001257
0.0025843
0.00013709
0.0022713
0.00014374
0.0017221
0.00015191
0.001308
0.00015697
0.0008144
0.00038989
0.00016096
2.0047e-05
0.0039754
8.7269e-08
4.0201e-05
0.0038847
5.9798e-05
0.0037424
7.8387e-05
0.0035412
9.5826e-05
0.0032792
0.00011086
0.0029769
0.00012567
0.0025695
0.0001372
0.0022598
0.00014384
0.0017154
0.00015184
0.0013
0.00015692
0.00080932
0.00038588
0.00016092
2.0047e-05
0.0039552
8.8865e-08
4.0202e-05
0.0038645
5.9801e-05
0.0037228
7.839e-05
0.0035226
9.584e-05
0.0032617
0.00011086
0.0029618
0.00012565
0.0025547
0.0001373
0.0022482
0.00014394
0.0017088
0.0001518
0.0012921
0.00015687
0.00080424
0.00038187
0.00016089
2.0047e-05
0.0039351
9.0468e-08
4.0204e-05
0.0038444
5.9805e-05
0.0037032
7.8394e-05
0.003504
9.5854e-05
0.0032443
0.00011086
0.0029468
0.00012562
0.00254
0.0001374
0.0022364
0.00014406
0.0017021
0.00015176
0.0012844
0.00015683
0.00079917
0.00037785
0.00016085
2.0047e-05
0.003915
9.208e-08
4.0205e-05
0.0038242
5.9808e-05
0.0036836
7.8397e-05
0.0034854
9.5868e-05
0.0032268
0.00011087
0.0029318
0.0001256
0.0025252
0.0001375
0.0022245
0.00014418
0.0016955
0.00015174
0.0012768
0.0001568
0.00079411
0.00037383
0.00016082
2.0047e-05
0.0038948
9.37e-08
4.0207e-05
0.0038041
5.9812e-05
0.003664
7.84e-05
0.0034668
9.5882e-05
0.0032093
0.00011087
0.0029168
0.00012557
0.0025106
0.00013759
0.0022125
0.0001443
0.0016887
0.00015173
0.0012694
0.00015677
0.00078908
0.00036982
0.00016078
2.0047e-05
0.0038747
9.5329e-08
4.0208e-05
0.0037839
5.9815e-05
0.0036444
7.8403e-05
0.0034483
9.5896e-05
0.0031918
0.00011088
0.0029018
0.00012553
0.0024959
0.00013767
0.0022003
0.00014443
0.001682
0.00015173
0.0012621
0.00015675
0.00078407
0.00036581
0.00016075
2.0047e-05
0.0038545
9.6966e-08
4.021e-05
0.0037637
5.9819e-05
0.0036248
7.8406e-05
0.0034297
9.591e-05
0.0031743
0.00011089
0.0028869
0.0001255
0.0024813
0.00013775
0.0021881
0.00014457
0.0016752
0.00015175
0.0012549
0.00015673
0.00077909
0.00036183
0.00016072
2.0047e-05
0.0038344
9.8612e-08
4.0211e-05
0.0037436
5.9822e-05
0.0036052
7.841e-05
0.0034111
9.5924e-05
0.0031568
0.0001109
0.0028719
0.00012546
0.0024667
0.00013782
0.0021757
0.00014471
0.0016683
0.00015178
0.0012478
0.00015672
0.00077414
0.00035786
0.00016069
2.0047e-05
0.0038142
1.0027e-07
4.0213e-05
0.0037234
5.9826e-05
0.0035856
7.8413e-05
0.0033925
9.5938e-05
0.0031393
0.00011091
0.0028569
0.00012543
0.0024522
0.00013789
0.0021633
0.00014485
0.0016613
0.00015181
0.0012409
0.00015672
0.00076924
0.00035391
0.00016066
2.0047e-05
0.0037941
1.0193e-07
4.0214e-05
0.0037032
5.9829e-05
0.003566
7.8416e-05
0.0033739
9.5952e-05
0.0031217
0.00011092
0.0028419
0.00012539
0.0024377
0.00013795
0.0021507
0.00014499
0.0016543
0.00015186
0.001234
0.00015673
0.00076437
0.00035
0.00016064
2.0046e-05
0.0037739
1.036e-07
4.0216e-05
0.0036831
5.9833e-05
0.0035463
7.8419e-05
0.0033553
9.5965e-05
0.0031042
0.00011094
0.002827
0.00012535
0.0024233
0.000138
0.0021381
0.00014513
0.0016472
0.00015192
0.0012272
0.00015674
0.00075954
0.00034611
0.00016063
2.0046e-05
0.0037538
1.0529e-07
4.0218e-05
0.0036629
5.9837e-05
0.0035267
7.8422e-05
0.0033367
9.5979e-05
0.0030866
0.00011096
0.002812
0.00012532
0.002409
0.00013805
0.0021253
0.00014527
0.0016399
0.00015198
0.0012205
0.00015676
0.00075476
0.00034226
0.00016062
2.0046e-05
0.0037336
1.0698e-07
4.0219e-05
0.0036427
5.9841e-05
0.0035071
7.8426e-05
0.0033182
9.5993e-05
0.0030691
0.00011097
0.002797
0.00012528
0.0023947
0.00013809
0.0021125
0.0001454
0.0016326
0.00015205
0.0012139
0.00015679
0.00075002
0.00033844
0.00016061
2.0046e-05
0.0037135
1.0868e-07
4.0221e-05
0.0036226
5.9844e-05
0.0034875
7.8429e-05
0.0032996
9.6006e-05
0.0030515
0.00011099
0.002782
0.00012524
0.0023804
0.00013812
0.0020996
0.00014554
0.0016252
0.00015213
0.0012073
0.00015683
0.00074532
0.00033466
0.00016061
2.0046e-05
0.0036933
1.1039e-07
4.0222e-05
0.0036024
5.9848e-05
0.0034678
7.8432e-05
0.003281
9.6019e-05
0.0030339
0.00011101
0.002767
0.0001252
0.0023662
0.00013815
0.0020867
0.00014567
0.0016177
0.00015221
0.0012007
0.00015687
0.00074067
0.00033092
0.00016061
2.0046e-05
0.0036732
1.1212e-07
4.0224e-05
0.0035822
5.9852e-05
0.0034482
7.8436e-05
0.0032624
9.6032e-05
0.0030163
0.00011104
0.002752
0.00012517
0.0023521
0.00013817
0.0020737
0.0001458
0.00161
0.0001523
0.0011942
0.00015692
0.00073605
0.00032723
0.00016061
2.0046e-05
0.003653
1.1385e-07
4.0226e-05
0.003562
5.9856e-05
0.0034286
7.8439e-05
0.0032438
9.6044e-05
0.0029987
0.00011106
0.002737
0.00012513
0.002338
0.00013819
0.0020606
0.00014593
0.0016023
0.00015239
0.0011878
0.00015697
0.00073147
0.00032357
0.00016062
2.0046e-05
0.0036328
1.1559e-07
4.0227e-05
0.0035418
5.986e-05
0.003409
7.8443e-05
0.0032252
9.6057e-05
0.0029811
0.00011109
0.002722
0.0001251
0.002324
0.0001382
0.0020475
0.00014605
0.0015944
0.00015249
0.0011813
0.00015703
0.00072693
0.00031997
0.00016064
2.0046e-05
0.0036127
1.1735e-07
4.0229e-05
0.0035217
5.9864e-05
0.0033893
7.8446e-05
0.0032067
9.6069e-05
0.0029635
0.00011112
0.0027069
0.00012506
0.0023101
0.0001382
0.0020344
0.00014616
0.0015865
0.00015258
0.0011749
0.00015709
0.00072243
0.0003164
0.00016065
2.0046e-05
0.0035925
1.1912e-07
4.0231e-05
0.0035015
5.9868e-05
0.0033697
7.845e-05
0.0031881
9.608e-05
0.0029458
0.00011115
0.0026919
0.00012503
0.0022962
0.0001382
0.0020212
0.00014628
0.0015784
0.00015268
0.0011685
0.00015716
0.00071796
0.00031289
0.00016067
2.0046e-05
0.0035723
1.2089e-07
4.0233e-05
0.0034813
5.9873e-05
0.00335
7.8453e-05
0.0031695
9.6091e-05
0.0029282
0.00011118
0.0026768
0.000125
0.0022824
0.0001382
0.002008
0.00014638
0.0015702
0.00015278
0.0011621
0.00015723
0.00071351
0.00030942
0.0001607
2.0046e-05
0.0035522
1.2268e-07
4.0234e-05
0.0034611
5.9877e-05
0.0033304
7.8457e-05
0.0031509
9.6102e-05
0.0029106
0.00011121
0.0026617
0.00012498
0.0022686
0.00013819
0.0019948
0.00014648
0.0015619
0.00015288
0.0011557
0.0001573
0.0007091
0.00030599
0.00016072
2.0046e-05
0.003532
1.2448e-07
4.0236e-05
0.0034409
5.9881e-05
0.0033108
7.8461e-05
0.0031323
9.6113e-05
0.0028929
0.00011124
0.0026465
0.00012495
0.0022549
0.00013818
0.0019816
0.00014658
0.0015535
0.00015298
0.0011493
0.00015737
0.00070471
0.00030261
0.00016075
2.0046e-05
0.0035118
1.263e-07
4.0238e-05
0.0034207
5.9885e-05
0.0032911
7.8465e-05
0.0031138
9.6123e-05
0.0028752
0.00011128
0.0026314
0.00012493
0.0022412
0.00013817
0.0019683
0.00014667
0.001545
0.00015308
0.0011429
0.00015745
0.00070034
0.00029928
0.00016079
2.0046e-05
0.0034917
1.2812e-07
4.024e-05
0.0034005
5.989e-05
0.0032715
7.8469e-05
0.0030952
9.6133e-05
0.0028576
0.00011131
0.0026162
0.00012491
0.0022276
0.00013815
0.0019551
0.00014675
0.0015364
0.00015318
0.0011364
0.00015753
0.00069599
0.00029599
0.00016082
2.0046e-05
0.0034715
1.2996e-07
4.0242e-05
0.0033803
5.9894e-05
0.0032518
7.8474e-05
0.0030766
9.6142e-05
0.0028399
0.00011135
0.002601
0.00012489
0.0022141
0.00013813
0.0019419
0.00014683
0.0015277
0.00015328
0.00113
0.00015761
0.00069166
0.00029275
0.00016086
2.0046e-05
0.0034513
1.3181e-07
4.0244e-05
0.0033601
5.9899e-05
0.0032321
7.8478e-05
0.003058
9.6151e-05
0.0028222
0.00011138
0.0025858
0.00012488
0.0022006
0.00013811
0.0019286
0.0001469
0.001519
0.00015337
0.0011235
0.00015769
0.00068734
0.00028954
0.00016089
2.0046e-05
0.0034311
1.3367e-07
4.0246e-05
0.0033399
5.9903e-05
0.0032125
7.8483e-05
0.0030394
9.6159e-05
0.0028046
0.00011142
0.0025705
0.00012486
0.0021872
0.00013808
0.0019154
0.00014697
0.0015101
0.00015347
0.001117
0.00015777
0.00068304
0.00028638
0.00016093
2.0046e-05
0.0034109
1.3555e-07
4.0248e-05
0.0033197
5.9908e-05
0.0031928
7.8487e-05
0.0030209
9.6167e-05
0.0027869
0.00011146
0.0025552
0.00012485
0.0021738
0.00013806
0.0019022
0.00014703
0.0015011
0.00015356
0.0011105
0.00015786
0.00067874
0.00028327
0.00016097
2.0046e-05
0.0033908
1.3744e-07
4.0249e-05
0.0032995
5.9912e-05
0.0031732
7.8492e-05
0.0030023
9.6175e-05
0.0027692
0.0001115
0.0025399
0.00012485
0.0021604
0.00013803
0.001889
0.00014708
0.001492
0.00015365
0.0011039
0.00015794
0.00067445
0.00028019
0.00016102
2.0046e-05
0.0033706
1.3935e-07
4.0251e-05
0.0032793
5.9917e-05
0.0031535
7.8497e-05
0.0029837
9.6182e-05
0.0027515
0.00011153
0.0025246
0.00012484
0.0021471
0.000138
0.0018759
0.00014714
0.0014829
0.00015373
0.0010973
0.00015802
0.00067016
0.00027715
0.00016106
2.0046e-05
0.0033504
1.4126e-07
4.0253e-05
0.0032591
5.9922e-05
0.0031338
7.8503e-05
0.0029651
9.6189e-05
0.0027338
0.00011157
0.0025092
0.00012484
0.0021338
0.00013798
0.0018627
0.00014718
0.0014737
0.00015381
0.0010907
0.0001581
0.00066587
0.00027414
0.0001611
2.0046e-05
0.0033302
1.432e-07
4.0256e-05
0.0032389
5.9926e-05
0.0031142
7.8508e-05
0.0029465
9.6195e-05
0.0027161
0.00011161
0.0024938
0.00012485
0.0021206
0.00013795
0.0018496
0.00014723
0.0014644
0.00015389
0.001084
0.00015818
0.00066159
0.00027117
0.00016115
2.0046e-05
0.00331
1.4515e-07
4.0258e-05
0.0032187
5.9931e-05
0.0030945
7.8514e-05
0.0029279
9.6202e-05
0.0026985
0.00011165
0.0024783
0.00012485
0.0021074
0.00013792
0.0018365
0.00014727
0.0014551
0.00015397
0.0010773
0.00015826
0.0006573
0.00026824
0.00016119
2.0046e-05
0.0032898
1.4711e-07
4.026e-05
0.0031985
5.9936e-05
0.0030748
7.8519e-05
0.0029094
9.6207e-05
0.0026808
0.00011169
0.0024628
0.00012486
0.0020942
0.0001379
0.0018235
0.0001473
0.0014457
0.00015404
0.0010706
0.00015834
0.000653
0.00026534
0.00016124
2.0046e-05
0.0032696
1.4909e-07
4.0262e-05
0.0031783
5.9941e-05
0.0030551
7.8525e-05
0.0028908
9.6213e-05
0.0026631
0.00011173
0.0024473
0.00012487
0.0020811
0.00013787
0.0018105
0.00014733
0.0014362
0.00015411
0.0010638
0.00015841
0.0006487
0.00026247
0.00016128
2.0046e-05
0.0032494
1.5108e-07
4.0264e-05
0.003158
5.9946e-05
0.0030355
7.8531e-05
0.0028722
9.6218e-05
0.0026454
0.00011177
0.0024318
0.00012488
0.002068
0.00013785
0.0017975
0.00014736
0.0014267
0.00015418
0.001057
0.00015849
0.0006444
0.00025963
0.00016133
2.0046e-05
0.0032292
1.5309e-07
4.0266e-05
0.0031378
5.9951e-05
0.0030158
7.8538e-05
0.0028536
9.6223e-05
0.0026277
0.00011181
0.0024162
0.0001249
0.0020549
0.00013782
0.0017846
0.00014739
0.0014171
0.00015424
0.0010501
0.00015856
0.00064008
0.00025682
0.00016137
2.0046e-05
0.003209
1.5512e-07
4.0268e-05
0.0031176
5.9956e-05
0.0029961
7.8544e-05
0.002835
9.6227e-05
0.00261
0.00011184
0.0024006
0.00012492
0.0020418
0.0001378
0.0017717
0.00014741
0.0014075
0.00015431
0.0010432
0.00015863
0.00063575
0.00025404
0.00016142
2.0046e-05
0.0031888
1.5717e-07
4.0271e-05
0.0030974
5.9961e-05
0.0029764
7.8551e-05
0.0028164
9.6232e-05
0.0025923
0.00011188
0.0023849
0.00012494
0.0020288
0.00013778
0.0017589
0.00014743
0.0013979
0.00015437
0.0010363
0.0001587
0.00063141
0.00025128
0.00016146
2.0046e-05
0.0031686
1.5923e-07
4.0273e-05
0.0030771
5.9966e-05
0.0029567
7.8558e-05
0.0027978
9.6236e-05
0.0025747
0.00011192
0.0023692
0.00012496
0.0020157
0.00013776
0.0017461
0.00014745
0.0013882
0.00015442
0.0010293
0.00015877
0.00062706
0.00024855
0.00016151
2.0046e-05
0.0031484
1.6131e-07
4.0275e-05
0.0030569
5.9971e-05
0.002937
7.8565e-05
0.0027792
9.624e-05
0.002557
0.00011196
0.0023535
0.00012498
0.0020027
0.00013775
0.0017333
0.00014747
0.0013785
0.00015448
0.0010223
0.00015884
0.0006227
0.00024584
0.00016155
2.0046e-05
0.0031282
1.634e-07
4.0278e-05
0.0030367
5.9976e-05
0.0029173
7.8572e-05
0.0027606
9.6244e-05
0.0025393
0.00011199
0.0023378
0.00012501
0.0019897
0.00013773
0.0017206
0.00014749
0.0013687
0.00015453
0.0010153
0.00015891
0.00061832
0.00024315
0.0001616
2.0046e-05
0.003108
1.6552e-07
4.028e-05
0.0030165
5.9982e-05
0.0028976
7.858e-05
0.002742
9.6247e-05
0.0025217
0.00011203
0.002322
0.00012504
0.0019767
0.00013772
0.0017079
0.0001475
0.0013589
0.00015458
0.0010082
0.00015897
0.00061392
0.00024048
0.00016164
2.0046e-05
0.0030878
1.6765e-07
4.0282e-05
0.0029962
5.9987e-05
0.0028779
7.8588e-05
0.0027234
9.6251e-05
0.002504
0.00011206
0.0023062
0.00012507
0.0019636
0.00013771
0.0016953
0.00014752
0.0013491
0.00015463
0.0010011
0.00015904
0.00060951
0.00023784
0.00016168
2.0046e-05
0.0030676
1.6981e-07
4.0285e-05
0.002976
5.9992e-05
0.0028582
7.8595e-05
0.0027048
9.6254e-05
0.0024863
0.0001121
0.0022903
0.0001251
0.0019506
0.0001377
0.0016827
0.00014753
0.0013393
0.00015467
0.00099396
0.0001591
0.00060509
0.00023521
0.00016173
2.0046e-05
0.0030473
1.7198e-07
4.0287e-05
0.0029557
5.9998e-05
0.0028385
7.8604e-05
0.0026862
9.6258e-05
0.0024687
0.00011213
0.0022744
0.00012514
0.0019376
0.0001377
0.0016701
0.00014754
0.0013295
0.00015472
0.00098678
0.00015916
0.00060064
0.0002326
0.00016177
2.0046e-05
0.0030271
1.7417e-07
4.029e-05
0.0029355
6.0003e-05
0.0028188
7.8612e-05
0.0026676
9.6261e-05
0.002451
0.00011217
0.0022585
0.00012517
0.0019246
0.00013769
0.0016576
0.00014755
0.0013196
0.00015476
0.00097958
0.00015922
0.00059618
0.00023001
0.00016181
2.0046e-05
0.0030069
1.7639e-07
4.0292e-05
0.0029152
6.0009e-05
0.002799
7.862e-05
0.002649
9.6264e-05
0.0024334
0.0001122
0.0022426
0.00012521
0.0019116
0.00013769
0.0016451
0.00014757
0.0013097
0.0001548
0.00097234
0.00015928
0.00059171
0.00022743
0.00016186
2.0047e-05
0.0029867
1.7862e-07
4.0295e-05
0.002895
6.0014e-05
0.0027793
7.8629e-05
0.0026304
9.6268e-05
0.0024157
0.00011223
0.0022266
0.00012524
0.0018986
0.00013769
0.0016326
0.00014758
0.0012998
0.00015484
0.00096508
0.00015934
0.00058721
0.00022487
0.0001619
2.0047e-05
0.0029664
1.8088e-07
4.0297e-05
0.0028747
6.002e-05
0.0027596
7.8638e-05
0.0026118
9.6271e-05
0.0023981
0.00011226
0.0022106
0.00012528
0.0018856
0.0001377
0.0016202
0.00014759
0.0012899
0.00015488
0.00095779
0.00015939