/*--------------------------------*- C++ -*----------------------------------*\
  =========                 |
  \\      /  F ield         | OpenFOAM: The Open Source CFD Toolbox
   \\    /   O peration     | Website:  https://openfoam.org
    \\  /    A nd           | Version:  6.0
     \\/     M anipulation  |
\*---------------------------------------------------------------------------*/
FoamFile
{
    version     2.0;
    format      ascii;
    class       surfaceScalarField;
    location    "150";
    object      phi;
}
// * * * * * * * * * * * * * * * * * * * * * * * * * * * * * * * * * * * * * //

dimensions      [0 3 -1 0 0 0 0];

internalField   nonuniform List<scalar> 
19165
(
-0.0401319
0.0289001
0.0417304
-0.0384751
0.0292008
-0.0367763
0.0294907
-0.0350472
0.0297693
-0.0332961
0.0300351
-0.0315276
0.0302872
-0.029745
0.0305253
-0.0279504
0.0307491
-0.0261458
0.0309587
-0.0243324
0.0311539
-0.0224919
0.0313155
-0.0206405
0.0314781
-0.0187814
0.0316285
-0.0169155
0.0317644
-0.0150436
0.0318856
-0.0131665
0.031992
-0.0112852
0.0320836
-0.00940082
0.03216
-0.00751508
0.0322211
-0.00563019
0.0322667
-0.00374999
0.0322967
-0.00188105
0.0323114
-3.6841e-05
0.0323132
0.00180697
0.0323117
0.00367513
0.0323077
0.00555484
0.0322912
0.00743925
0.0322597
0.00932469
0.0322125
0.0112087
0.0321499
0.0130897
0.032072
0.0149673
0.0319784
0.0168467
0.0318643
0.0187204
0.0317422
0.0205876
0.0316056
0.0224476
0.0314547
0.0242996
0.0312896
0.0261429
0.0311104
0.0279769
0.0309172
0.0298009
0.0307099
0.0316143
0.0304887
0.0334163
0.0302536
0.0352065
0.0300046
0.036984
0.0297419
0.0387484
0.0294653
0.0404988
0.0291749
0.0422349
0.0288708
0.0439558
0.028553
0.0456611
0.0282214
0.04735
0.0278762
0.049022
0.0275173
0.0506764
0.0271446
0.0523127
0.0267583
0.0539302
0.0263582
0.0555284
0.0259443
0.0571065
0.0255167
0.0586643
0.0250752
0.0602007
0.0246197
0.0617156
0.0241503
0.063208
0.0236667
0.0646777
0.0231689
0.0661236
0.0226567
0.0675464
0.0221291
0.0689462
0.0215855
0.0703209
0.0210287
0.0716695
0.0204564
0.0729915
0.0198682
0.074286
0.0192636
0.0755526
0.018642
0.0767901
0.0180028
0.0779979
0.017345
0.0791744
0.0166677
0.0803184
0.0159697
0.0814273
0.0152496
0.0824986
0.0145056
0.0835271
0.0137358
0.0845065
0.0129376
0.0854256
0.0121084
0.0862682
0.0112446
0.0870077
0.0103423
0.0876032
0.00939698
0.0879884
0.00840288
0.0880601
0.00735244
0.0876514
0.00623428
0.0865067
0.00504809
0.0841048
0.00361349
0.0801446
0.00230216
0.0788363
0.00121588
0.0768453
0.000216189
0.0750095
-0.000127505
0.0732941
-0.000448084
0.0716308
-0.000702739
0.0699857
-0.00091048
0.0683584
-0.00108107
0.066743
-0.00121379
0.065124
-0.00129929
0.063482
-0.00132605
0.0618014
-0.00128495
0.0600784
-0.00115659
0.0582578
-0.000973815
-0.000436273
0.0566656
-0.0396325
0.0272702
0.0412608
-0.0379811
0.027549
-0.0363043
0.0278123
-0.034602
0.0280665
-0.0328789
0.0283104
-0.0311357
0.0285434
-0.0293769
0.028765
-0.0276029
0.0289746
-0.0258174
0.0291719
-0.0240207
0.0293567
-0.0221968
0.0294905
-0.0203607
0.0296416
-0.0185173
0.0297841
-0.0166666
0.0299133
-0.0148111
0.0300292
-0.012951
0.0301318
-0.0110895
0.0302213
-0.00922763
0.030298
-0.00736946
0.0303623
-0.00551775
0.030415
-0.0036787
0.0304571
-0.00185744
0.0304902
-6.2594e-05
0.0305179
0.0017318
0.0305176
0.00355095
0.0304883
0.00538981
0.0304527
0.0072408
0.0304085
0.00909994
0.0303538
0.0109622
0.0302876
0.0128256
0.0302091
0.0146878
0.0301164
0.0165538
0.0299989
0.0184149
0.0298813
0.0202708
0.0297505
0.0221193
0.0296065
0.0239606
0.0294491
0.0257929
0.0292786
0.0276162
0.0290947
0.0294289
0.0288976
0.0312313
0.0286873
0.0330215
0.0284638
0.0348
0.0282272
0.0365651
0.0279773
0.0383171
0.0277144
0.0400543
0.0274383
0.0417771
0.0271492
0.0434838
0.026847
0.0451747
0.0265317
0.0468483
0.0262034
0.0485048
0.0258621
0.0501426
0.0255077
0.051762
0.0251402
0.0533614
0.0247597
0.0549412
0.024366
0.0564996
0.0239593
0.0580369
0.0235393
0.0595518
0.0231061
0.061044
0.0226596
0.0625124
0.0221997
0.0639565
0.0217262
0.0653754
0.021239
0.0667692
0.0207366
0.0681382
0.0202177
0.0694798
0.0196883
0.0707927
0.0191443
0.0720764
0.0185855
0.0733291
0.0180114
0.0745505
0.0174216
0.0757381
0.0168155
0.0768914
0.0161927
0.0780071
0.0155523
0.0790841
0.0148937
0.0801181
0.0142159
0.0811069
0.0135179
0.0820446
0.0127986
0.0829266
0.0120566
0.0837449
0.0112907
0.0844912
0.0104992
0.0851537
0.00968054
0.0857183
0.00883333
0.0861654
0.00795645
0.0864692
0.00704979
0.0865892
0.00611518
0.0864738
0.00516469
0.0858923
0.00419583
0.0848645
0.00333082
0.0834631
0.00261793
0.0816517
0.00202786
0.0799479
0.00157672
0.0783238
0.00117597
0.0768124
0.000808933
0.075418
0.000483658
0.0741301
0.000206825
0.0729391
-2.29763e-05
0.0718488
-0.000209133
0.0708757
-0.000353146
0.070045
-0.000454307
0.0694
-0.000511698
0.0689524
-0.000526252
-0.000485904
0.069002
-0.0398457
0.02554
0.0415747
-0.0381166
0.0258204
-0.0363904
0.0260851
-0.0346591
0.0263356
-0.0329225
0.0265728
-0.031176
0.0267974
-0.0294215
0.0270096
-0.0276561
0.0272097
-0.0258826
0.0273977
-0.0240994
0.0275739
-0.0222909
0.0276814
-0.0204707
0.0278217
-0.0186438
0.0279567
-0.0168093
0.0280792
-0.01497
0.0281892
-0.0131249
0.028287
-0.0112766
0.0283725
-0.00942428
0.028446
-0.00756988
0.0285075
-0.00571159
0.0285571
-0.00384972
0.0285948
-0.00197944
0.0286204
-9.55266e-05
0.0286336
0.00178992
0.0286326
0.00366072
0.0286172
0.00552489
0.0285891
0.00738421
0.0285489
0.00924167
0.0284969
0.011096
0.028433
0.0129485
0.0283572
0.0147978
0.0282669
0.0166497
0.0281476
0.0184957
0.0280351
0.0203363
0.0279104
0.0221694
0.0277733
0.0239953
0.0276238
0.0258119
0.0274619
0.0276198
0.0272875
0.0294168
0.0271006
0.0312035
0.0269012
0.0329779
0.0266894
0.0347404
0.0264652
0.0364892
0.0262286
0.0382247
0.0259795
0.0399449
0.0257181
0.0416505
0.0254444
0.0433392
0.0251582
0.0450119
0.0248598
0.0466664
0.024549
0.0483033
0.0242259
0.0499204
0.0238906
0.0515185
0.0235429
0.0530954
0.0231829
0.0546516
0.0228106
0.0561851
0.0224259
0.0576962
0.0220289
0.059183
0.0216196
0.0606456
0.0211977
0.0620821
0.0207634
0.0634925
0.0203165
0.0648747
0.019857
0.0662295
0.0193827
0.067555
0.0188922
0.0688498
0.0183944
0.070111
0.0178834
0.0713383
0.0173591
0.0725284
0.0168215
0.0736807
0.0162703
0.0747913
0.0157053
0.0758587
0.0151263
0.0768783
0.0145332
0.0778473
0.0139257
0.0787599
0.0133038
0.0796114
0.0126674
0.080394
0.0120165
0.0811001
0.0113514
0.0817189
0.0106725
0.0822383
0.00998059
0.0826423
0.00927714
0.0829121
0.00856418
0.0830244
0.0078448
0.0829515
0.00712341
0.0826615
0.00640591
0.0821261
0.00570089
0.0813051
0.00501758
0.0802708
0.00436591
0.0791352
0.00375433
0.0779769
0.00318677
0.0768822
0.00267234
0.0758473
0.00221124
0.0748583
0.0017989
0.0739126
0.00142976
0.0730209
0.00109931
0.0721947
0.000803748
0.0714458
0.000540459
0.0707862
0.000306926
0.0702323
0.000100344
0.0698048
-8.36735e-05
0.0695275
-0.000248275
-0.000402818
0.0694443
-0.0394411
0.0239135
0.0410654
-0.0377867
0.0241668
-0.0361134
0.0244102
-0.0344202
0.0246431
-0.0327139
0.0248653
-0.0309924
0.0250766
-0.0292607
0.025277
-0.0275166
0.0254664
-0.0257644
0.0256448
-0.024002
0.0258123
-0.0222148
0.0258935
-0.0204153
0.0260229
-0.0186088
0.0261497
-0.0167936
0.0262645
-0.0149723
0.0263674
-0.0131431
0.0264583
-0.0113082
0.0265371
-0.00946539
0.0266037
-0.00761626
0.0266579
-0.00575792
0.0266992
-0.00389112
0.0267275
-0.00201259
0.0267424
-0.000123523
0.0267441
0.00176758
0.0267421
0.00364722
0.0267371
0.00551748
0.0267194
0.00737769
0.0266883
0.00923106
0.026644
0.0110766
0.026587
0.0129167
0.0265176
0.0147505
0.0264328
0.0165847
0.0263138
0.0184113
0.0262082
0.0202315
0.0260907
0.0220431
0.0259614
0.023847
0.0258203
0.025641
0.0256675
0.027426
0.025503
0.0291995
0.0253267
0.0309625
0.0251387
0.0327125
0.0249391
0.0344504
0.0247278
0.0361738
0.0245048
0.0378836
0.0242703
0.0395773
0.0240241
0.0412557
0.0237664
0.0429164
0.0234972
0.0445602
0.0232164
0.0461847
0.0229242
0.0477906
0.0226205
0.0493754
0.0223054
0.0509399
0.0219788
0.0524816
0.0216409
0.0540011
0.0212915
0.0554959
0.0209308
0.0569666
0.0205588
0.0584105
0.0201754
0.0598281
0.0197806
0.0612166
0.0193746
0.0625765
0.0189572
0.0639046
0.0185285
0.0652021
0.0180858
0.0664667
0.0176273
0.0676966
0.017165
0.0688882
0.0166914
0.0700414
0.0162065
0.0711521
0.0157104
0.0722198
0.0152032
0.07324
0.0146849
0.0742114
0.0141556
0.0751288
0.0136156
0.0759902
0.013065
0.0767897
0.0125042
0.077524
0.0119336
0.0781868
0.0113538
0.0787732
0.0107654
0.0792764
0.0101694
0.0796903
0.00956703
0.0800079
0.0089597
0.0802231
0.00834931
0.0803299
0.00773816
0.0803246
0.00712905
0.0802055
0.0065253
0.0799758
0.00593085
0.0796433
0.00535048
0.0792208
0.00478867
0.0787239
0.0042518
0.0781658
0.00374497
0.077567
0.00327174
0.076947
0.00283132
0.0763263
0.00242026
0.0757209
0.00203528
0.0751463
0.00167445
0.0746141
0.00133622
0.0741365
0.00101852
0.073725
0.000718564
0.0733925
0.000433366
0.0731502
0.00015903
0.0730093
-0.000106906
-0.000367606
0.0729741
-0.0389215
0.0223098
0.0405234
-0.0372969
0.0225436
-0.0356554
0.0227673
-0.0339928
0.0229817
-0.0323155
0.0231868
-0.0306202
0.0233826
-0.0289129
0.0235688
-0.0271909
0.0237455
-0.0254595
0.0239126
-0.0237162
0.02407
-0.0219472
0.024124
-0.0201648
0.0242414
-0.0183749
0.0243592
-0.0165754
0.0244658
-0.0147697
0.0245612
-0.012956
0.0246453
-0.0111373
0.0247179
-0.00931209
0.0247791
-0.00748339
0.0248286
-0.00565002
0.0248664
-0.00381566
0.0248926
-0.00198001
0.0249073
-0.000148127
0.0249116
0.00168505
0.0249094
0.00352019
0.0249013
0.00535707
0.024883
0.00719138
0.0248533
0.00902387
0.024812
0.0108513
0.024759
0.012675
0.0246943
0.0144929
0.0246143
0.0163117
0.0244954
0.0181226
0.0243966
0.0199271
0.0242866
0.0217224
0.0241655
0.0235098
0.0240333
0.0252867
0.0238901
0.0270541
0.0237359
0.0288096
0.0235707
0.030554
0.0233946
0.0322849
0.0232076
0.0340032
0.0230098
0.0357063
0.0228011
0.0373952
0.0225816
0.0390673
0.0223514
0.0407236
0.0221105
0.0423613
0.0218588
0.0439814
0.0215966
0.0455813
0.0213237
0.0471619
0.0210403
0.0487203
0.0207463
0.0502576
0.0204418
0.0517708
0.020127
0.0532609
0.0198017
0.054725
0.0194661
0.0561638
0.0191202
0.0575745
0.0187641
0.0589576
0.0183978
0.0603101
0.0180214
0.0616327
0.017635
0.062922
0.0172386
0.0641792
0.0168289
0.0654021
0.0164039
0.0665891
0.0159785
0.0677365
0.0155435
0.0688443
0.0150991
0.0699089
0.0146455
0.0709296
0.0141829
0.0719027
0.0137114
0.0728272
0.0132315
0.073699
0.0127435
0.0745166
0.0122478
0.0752759
0.0117448
0.0759747
0.0112352
0.0766087
0.0107196
0.0771754
0.010199
0.0776705
0.00967425
0.0780912
0.00914654
0.0784337
0.0086172
0.0786954
0.0080878
0.0788735
0.00756009
0.0789666
0.00703606
0.0789742
0.00651791
0.0788971
0.00600799
0.0787391
0.00550876
0.0785051
0.00502259
0.0782058
0.00455145
0.077854
0.00409667
0.0774674
0.00365882
0.0770606
0.00323791
0.0766478
0.00283357
0.0762378
0.00244526
0.0758403
0.00207213
0.0754637
0.00171297
0.0751162
0.00136621
0.0748047
0.00103002
0.0745361
0.000702481
0.0743144
0.000380877
0.0741438
6.40685e-05
-0.00025241
0.0740285
-0.0385733
0.0207128
0.0401687
-0.0369563
0.020928
-0.035325
0.0211346
-0.0336748
0.0213328
-0.0320119
0.0215227
-0.0303322
0.0217042
-0.0286415
0.0218771
-0.0269362
0.0220416
-0.0252218
0.0221974
-0.0234951
0.0223445
-0.0217432
0.0223714
-0.0199773
0.0224766
-0.0182041
0.0225853
-0.016421
0.0226838
-0.0146323
0.0227719
-0.0128357
0.0228496
-0.0110353
0.0229169
-0.00922924
0.0229738
-0.00742151
0.0230203
-0.00561067
0.0230563
-0.0038008
0.0230821
-0.00199067
0.0230979
-0.00018423
0.0231045
0.00162355
0.0231024
0.00343272
0.0230915
0.00524495
0.0230714
0.00705626
0.0230414
0.00886772
0.0230011
0.0106757
0.0229504
0.0124812
0.0228893
0.0142819
0.0228131
0.0160841
0.0226937
0.0178786
0.0226014
0.0196669
0.0224988
0.0214458
0.022386
0.0232166
0.0222629
0.0249765
0.0221296
0.0267266
0.0219862
0.028464
0.0218326
0.0301901
0.021669
0.0319018
0.0214952
0.0336005
0.0213115
0.0352832
0.0211177
0.0369511
0.0209141
0.0386014
0.0207005
0.0402352
0.0204771
0.0418496
0.0202438
0.0434456
0.0200008
0.0450205
0.0197482
0.0465752
0.0194859
0.0481068
0.019214
0.0496164
0.0189326
0.0511009
0.0186418
0.0525614
0.0183416
0.0539947
0.0180321
0.0554018
0.0177135
0.0567794
0.0173857
0.0581286
0.017049
0.0594461
0.0167034
0.0607325
0.016349
0.0619845
0.0159859
0.0632035
0.0156103
0.0643871
0.0152197
0.0655339
0.014832
0.0666404
0.0144364
0.0677069
0.014033
0.0687297
0.0136222
0.0697089
0.0132041
0.0706409
0.0127791
0.0715252
0.0123477
0.0723584
0.01191
0.0731398
0.0114668
0.0738661
0.0110183
0.0745364
0.0105654
0.0751475
0.0101085
0.0756985
0.00964838
0.0761869
0.00918591
0.0766119
0.00872194
0.0769718
0.00825743
0.0772665
0.00779342
0.0774958
0.00733101
0.0776608
0.00687137
0.0777633
0.00641568
0.0778064
0.00596514
0.0777948
0.0055209
0.0777334
0.00508406
0.07763
0.00465554
0.0774905
0.00423613
0.0773237
0.0038264
0.0771349
0.00342666
0.0769324
0.00303691
0.076721
0.00265681
0.076508
0.00228579
0.0762981
0.00192313
0.0760969
0.00156797
0.0759078
0.00121929
0.0757348
0.000876066
0.0755794
0.000536638
0.0754431
0.000200646
-0.000134063
0.0753248
-0.0381612
0.0191481
0.0397241
-0.0365743
0.0193425
-0.0349713
0.0195299
-0.0333477
0.0197105
-0.0317104
0.019884
-0.0300552
0.0200503
-0.0283886
0.0202093
-0.0267068
0.020361
-0.0250155
0.0205051
-0.0233114
0.0206416
-0.0215824
0.0206414
-0.019839
0.0207343
-0.0180882
0.0208337
-0.016327
0.0209236
-0.01456
0.021004
-0.0127844
0.0210748
-0.0110044
0.0211361
-0.00921756
0.0211877
-0.00742786
0.0212297
-0.005633
0.0212621
-0.00383676
0.021285
-0.00203688
0.0212986
-0.000236871
0.0213036
0.00156502
0.021301
0.00336453
0.021291
0.0051639
0.0212725
0.00695964
0.0212447
0.00875372
0.0212074
0.0105427
0.0211605
0.0123285
0.0211039
0.0141083
0.0210323
0.0158891
0.0209132
0.0176618
0.0208279
0.0194277
0.0207332
0.0211838
0.0206289
0.0229316
0.0205153
0.0246679
0.0203924
0.0263942
0.0202601
0.0281074
0.0201185
0.0298088
0.0199677
0.0314955
0.0198077
0.0331686
0.0196385
0.0348253
0.0194602
0.0364667
0.0192728
0.0380899
0.0190764
0.0396961
0.018871
0.0412823
0.0186567
0.0428497
0.0184336
0.0443952
0.0182017
0.0459201
0.0179612
0.0474211
0.017712
0.0488997
0.0174543
0.0503524
0.0171881
0.0517805
0.0169136
0.0531809
0.0166309
0.0545545
0.0163401
0.0558982
0.0160412
0.0572129
0.0157345
0.0584956
0.01542
0.0597467
0.015098
0.0609636
0.0147685
0.0621472
0.0144269
0.063296
0.0140704
0.0644081
0.0137201
0.065481
0.0133631
0.0665145
0.0129997
0.0675063
0.0126301
0.0684558
0.0122547
0.0693609
0.0118737
0.0702211
0.0114876
0.0710343
0.0110966
0.0717999
0.0107013
0.0725161
0.010302
0.0731822
0.0098992
0.073797
0.00949351
0.0743599
0.00908545
0.0748701
0.00867562
0.0753273
0.00826464
0.0757314
0.00785319
0.0760827
0.00744197
0.0763819
0.00703169
0.0766299
0.00662307
0.0768288
0.00621684
0.0769798
0.0058137
0.0770865
0.00541431
0.0771508
0.00501926
0.0771774
0.00462908
0.0771688
0.00424416
0.0771307
0.00386475
0.0770658
0.00349099
0.07698
0.00312282
0.0768764
0.00276012
0.0767595
0.00240261
0.0766325
0.00204994
0.0764987
0.00170165
0.0763606
0.00135718
0.0762208
0.00101595
0.0760803
0.000676939
0.0759406
0.000340313
3.59541e-06
0.0758029
-0.0376946
0.0176105
0.039231
-0.0361354
0.0177847
-0.0345596
0.0179531
-0.0329637
0.0181157
-0.0313534
0.0182725
-0.0297253
0.0184233
-0.028085
0.018568
-0.0264293
0.0187064
-0.0247636
0.0188383
-0.0230847
0.0189638
-0.0213809
0.0189365
-0.0196623
0.0190167
-0.0179361
0.0191064
-0.016199
0.0191874
-0.0144558
0.0192597
-0.0127034
0.0193232
-0.0109463
0.0193779
-0.00918165
0.0194238
-0.00741375
0.0194608
-0.00563992
0.0194889
-0.00386441
0.0195084
-0.00208464
0.0195194
-0.00030482
0.0195226
0.0014772
0.0195195
0.00325654
0.0195105
0.0050356
0.019494
0.00681027
0.019469
0.00858294
0.0194353
0.0103497
0.0193927
0.0121129
0.0193412
0.0138694
0.0192748
0.0156267
0.0191564
0.0173751
0.0190785
0.0191167
0.0189919
0.020848
0.0188967
0.0225709
0.0187928
0.0242819
0.0186805
0.0259828
0.0185596
0.0276702
0.0184302
0.0293458
0.0182925
0.0310062
0.0181464
0.0326531
0.017992
0.034283
0.0178293
0.0358977
0.0176584
0.0374938
0.0174794
0.0390727
0.0172924
0.0406313
0.0170973
0.0421709
0.0168943
0.0436884
0.0166834
0.045185
0.0164648
0.0466577
0.0162385
0.0481076
0.0160047
0.0495316
0.0157633
0.050931
0.0155146
0.0523025
0.0152586
0.0536474
0.0149956
0.0549625
0.0147255
0.0562488
0.0144485
0.0575033
0.0141648
0.058727
0.0138746
0.0599169
0.013578
0.0610745
0.0132696
0.0621982
0.0129461
0.0632867
0.0126319
0.0643373
0.012312
0.0653504
0.0119868
0.0663239
0.0116564
0.0672576
0.0113212
0.0681498
0.0109813
0.0690004
0.0106373
0.0698077
0.0102893
0.0705716
0.00993766
0.0712908
0.00958282
0.0719651
0.00922515
0.0725937
0.00886503
0.0731766
0.0085029
0.0737132
0.00813917
0.0742038
0.00777431
0.0746485
0.00740875
0.0750477
0.00704298
0.0754023
0.00667741
0.075713
0.00631253
0.0759816
0.00594874
0.0762089
0.00558647
0.0763977
0.00522607
0.0765491
0.00486788
0.0766666
0.0045122
0.0767514
0.00415923
0.0768078
0.00380916
0.0768366
0.00346208
0.0768421
0.00311806
0.0768252
0.00277705
0.0767894
0.002439
0.0767358
0.00210373
0.0766669
0.00177106
0.0765836
0.00144074
0.0764875
0.00111253
0.0763788
0.000785894
0.0762582
0.000461243
0.000136493
0.0761253
-0.0372274
0.0160985
0.0387391
-0.0356938
0.0162523
-0.0341429
0.0164015
-0.0325722
0.0165463
-0.0309867
0.0166863
-0.0293836
0.0168214
-0.027768
0.0169516
-0.026137
0.0170765
-0.0244957
0.0171962
-0.0228413
0.0173104
-0.0211619
0.0172561
-0.0194678
0.0173236
-0.017766
0.0174036
-0.0160533
0.0174756
-0.0143344
0.0175399
-0.0126065
0.0175962
-0.0108741
0.0176445
-0.00913433
0.0176849
-0.00739189
0.0177173
-0.00564395
0.0177418
-0.00389523
0.0177586
-0.00214289
0.0177679
-0.00039168
0.0177703
0.00136185
0.0177669
0.00311328
0.017758
0.00486557
0.0177425
0.00661397
0.0177195
0.00836124
0.0176888
0.0101028
0.0176501
0.0118413
0.0176034
0.0135732
0.017542
0.0153061
0.0174242
0.01703
0.0173537
0.0187473
0.0172753
0.020454
0.0171891
0.0221523
0.0170951
0.0238385
0.0169934
0.0255146
0.0168841
0.0271769
0.0167671
0.0288274
0.0166426
0.0304624
0.0165106
0.0320838
0.0163711
0.0336882
0.0162243
0.0352771
0.0160701
0.0368472
0.0159086
0.0384001
0.01574
0.0399325
0.0155642
0.0414458
0.0153814
0.042937
0.0151916
0.0444073
0.014995
0.0458537
0.0147916
0.0472773
0.0145815
0.0486753
0.0143648
0.0500486
0.0141416
0.0513945
0.0139122
0.0527139
0.0136764
0.0540043
0.0134346
0.0552661
0.0131869
0.0564972
0.0129333
0.0576978
0.0126741
0.058866
0.0124094
0.0600027
0.0121331
0.0611072
0.0118412
0.0621776
0.0115615
0.0632123
0.011277
0.0642112
0.0109878
0.0651729
0.0106944
0.0660971
0.0103968
0.066983
0.0100952
0.0678299
0.00979011
0.0686373
0.0094816
0.0694047
0.00916998
0.0701317
0.00885555
0.0708179
0.00853859
0.0714634
0.0082194
0.0720675
0.00789829
0.072631
0.00757555
0.0731533
0.00725151
0.0736354
0.00692646
0.0740771
0.00660074
0.0744798
0.00627461
0.0748433
0.00594839
0.0751696
0.00562235
0.0754586
0.00529675
0.0757128
0.00497184
0.0759321
0.00464784
0.0761193
0.00432493
0.0762746
0.00400329
0.0764007
0.00368305
0.076498
0.00336429
0.0765689
0.00304709
0.0766141
0.00273148
0.0766354
0.00241744
0.076634
0.00210495
0.0766109
0.00179394
0.076567
0.00148432
0.0765035
0.00117603
0.0764203
0.000868748
0.0763185
0.000563018
0.000257148
0.0761977
-0.036806
0.0146081
0.0382959
-0.0352945
0.0147419
-0.0337663
0.0148726
-0.0322187
0.0149997
-0.0306564
0.0151232
-0.0290769
0.015243
-0.0274849
0.0153588
-0.0258778
0.0154705
-0.0242604
0.0155781
-0.0226301
0.0156812
-0.0209752
0.0156004
-0.0193058
0.0156553
-0.0176287
0.0157256
-0.0159409
0.0157889
-0.0142472
0.0158452
-0.0125444
0.0158945
-0.0108374
0.0159366
-0.00912313
0.0159717
-0.00740648
0.0159998
-0.00568444
0.0160208
-0.00396183
0.0160351
-0.00223563
0.0160428
-0.00051065
0.0160443
0.00121667
0.0160407
0.00294167
0.016032
0.0046676
0.0160176
0.00638956
0.0159966
0.00811055
0.0159688
0.00982579
0.015934
0.0115381
0.015892
0.0132438
0.0158354
0.0149505
0.0157184
0.0166482
0.0156552
0.0183394
0.015585
0.0200198
0.0155079
0.0216919
0.0154238
0.0233517
0.0153329
0.0250015
0.0152351
0.0266372
0.0151306
0.0282612
0.0150194
0.0298696
0.0149015
0.0314644
0.0147771
0.033042
0.014646
0.0346042
0.0145085
0.0361477
0.0143646
0.037674
0.0142143
0.03918
0.0140577
0.040667
0.013895
0.0421321
0.0137261
0.0435763
0.0135512
0.0449972
0.0133704
0.0463954
0.0131837
0.0477686
0.0129912
0.0491174
0.0127932
0.0504397
0.0125896
0.0517359
0.0123806
0.053004
0.0121663
0.0542443
0.0119468
0.0554551
0.0117224
0.0566364
0.011493
0.0577867
0.0112589
0.0589067
0.0110132
0.0599966
0.0107513
0.0610538
0.0105043
0.0620775
0.0102532
0.0630673
0.00999811
0.0640224
0.00973923
0.0649423
0.00947676
0.0658267
0.00921089
0.0666749
0.00894183
0.0674868
0.00866977
0.0682617
0.00839494
0.0689998
0.00811754
0.0697004
0.0078378
0.070364
0.00755593
0.0709899
0.00727216
0.0715789
0.00698672
0.0721303
0.00669982
0.0726452
0.00641168
0.0731231
0.00612253
0.0735653
0.00583256
0.0739714
0.00554198
0.074343
0.00525098
0.0746796
0.00495976
0.0749832
0.00466847
0.0752534
0.00437727
0.0754922
0.00408632
0.0756995
0.00379572
0.0758772
0.0035056
0.0760253
0.00321604
0.0761454
0.00292712
0.0762381
0.0026389
0.0763042
0.00235141
0.0763446
0.00206469
0.0763598
0.00177876
0.0763506
0.0014936
0.0763174
0.00120924
0.0762606
0.000925528
0.0761806
0.000642946
0.000360057
0.0760777
-0.0363496
0.0131455
0.0378114
-0.0348661
0.0132596
-0.0333658
0.0133715
-0.0318459
0.0134809
-0.0303114
0.0135879
-0.0287595
0.0136921
-0.0271952
0.0137936
-0.0256156
0.0138921
-0.024026
0.0139875
-0.0224233
0.0140797
-0.0207961
0.0139724
-0.0191545
0.0140148
-0.0175052
0.0140755
-0.0158453
0.0141301
-0.0141794
0.0141785
-0.0125046
0.0142207
-0.0108255
0.0142567
-0.0091393
0.0142866
-0.00745061
0.0143103
-0.00575654
0.0143278
-0.00406179
0.0143395
-0.00236337
0.0143454
-0.000665994
0.0143461
0.00103374
0.014342
0.00273115
0.0143337
0.00442935
0.0143204
0.00612354
0.0143015
0.00781664
0.0142767
0.00950401
0.0142457
0.0111884
0.0142086
0.0128661
0.0141569
0.0145449
0.0140405
0.0162147
0.0139846
0.0178779
0.0139226
0.0195305
0.0138545
0.0211748
0.0137803
0.022807
0.0137
0.024429
0.0136138
0.0260373
0.0135217
0.0276338
0.0134236
0.029215
0.0133197
0.0307826
0.01321
0.0323335
0.0130946
0.033869
0.0129735
0.0353863
0.0128468
0.0368865
0.0127146
0.0383669
0.0125768
0.0398286
0.0124337
0.041269
0.0122853
0.0426889
0.0121316
0.0440861
0.0119728
0.0454612
0.0118088
0.0468122
0.0116399
0.0481394
0.0114662
0.0494411
0.0112876
0.0507175
0.0111043
0.051967
0.0109165
0.0531897
0.0107242
0.0543842
0.0105276
0.0555505
0.0103268
0.0566874
0.0101218
0.0577955
0.00990505
0.0588752
0.00967139
0.059924
0.00945539
0.0609414
0.00923577
0.0619266
0.00901267
0.0628795
0.00878626
0.0637994
0.00855667
0.0646862
0.00832408
0.0655391
0.00808863
0.0663584
0.00785048
0.0671432
0.0076098
0.067894
0.00736676
0.06861
0.0071215
0.0692918
0.00687422
0.0699385
0.00662506
0.0705511
0.00637419
0.0711287
0.00612177
0.0716725
0.00586797
0.0721817
0.00561294
0.0726575
0.00535684
0.0730992
0.00509981
0.0735083
0.004842
0.0738841
0.00458354
0.0742281
0.00432457
0.0745397
0.0040652
0.0748206
0.00380556
0.0750702
0.00354574
0.0752901
0.00328586
0.0754799
0.00302599
0.0756408
0.00276621
0.0757731
0.00250661
0.0758771
0.00224725
0.0759536
0.00198818
0.0760028
0.00172946
0.0760251
0.00147113
0.0760211
0.00121325
0.0759906
0.000955753
0.0759343
0.000699061
0.000442422
0.075852
-0.0360863
0.011694
0.0375371
-0.0346151
0.0117897
-0.0331289
0.0118844
-0.0316246
0.0119777
-0.0301069
0.0120694
-0.0285731
0.0121594
-0.0270279
0.0122476
-0.0254684
0.0123338
-0.0238997
0.012418
-0.0223189
0.0124999
-0.0207146
0.0123672
-0.0190965
0.0123979
-0.0174715
0.0124496
-0.0158362
0.012496
-0.0141955
0.012537
-0.0125464
0.0125727
-0.0108934
0.012603
-0.00923362
0.012628
-0.00757171
0.0126477
-0.00590473
0.0126621
-0.00423726
0.0126714
-0.00256636
0.0126758
-0.000896508
0.0126756
0.00077546
0.0126714
0.0024449
0.0126637
0.00411466
0.012652
0.00578028
0.0126354
0.00744451
0.0126137
0.00910304
0.0125867
0.0107584
0.0125544
0.0124072
0.0125077
0.014057
0.0123917
0.0156981
0.0123432
0.0173325
0.0122893
0.0189566
0.01223
0.0205723
0.0121656
0.0221761
0.0120959
0.0237699
0.012021
0.0253504
0.011941
0.0269191
0.0118558
0.0284729
0.0117656
0.0300134
0.0116704
0.0315375
0.0115703
0.0330465
0.0114653
0.0345379
0.0113554
0.0360125
0.0112407
0.0374679
0.0111213
0.038905
0.0109973
0.0403216
0.0108687
0.0417183
0.0107356
0.043093
0.010598
0.0444464
0.0104561
0.0457765
0.0103099
0.0470837
0.0101595
0.0483665
0.010005
0.0496249
0.00984641
0.0508577
0.00968393
0.0520647
0.00951762
0.053245
0.00934756
0.0543983
0.00917387
0.0555237
0.00899664
0.0566218
0.0088073
0.0576932
0.00860019
0.0587355
0.00841348
0.0597479
0.00822361
0.0607302
0.00803069
0.0616819
0.00783485
0.0626027
0.0076362
0.0634922
0.00743487
0.0643501
0.00723097
0.0651762
0.00702465
0.0659702
0.00681601
0.0667321
0.00660518
0.0674615
0.0063923
0.0681586
0.00617748
0.068823
0.00596085
0.069455
0.00574254
0.0700542
0.00552266
0.0706212
0.00530134
0.0711555
0.00507871
0.0716579
0.00485487
0.0721278
0.00462994
0.0725662
0.00440403
0.0729726
0.00417726
0.0733478
0.00394972
0.0736916
0.00372151
0.0740049
0.00349273
0.0742873
0.00326348
0.0745397
0.00303384
0.0747621
0.00280388
0.074955
0.0025737
0.0751186
0.00234337
0.0752532
0.00211295
0.0753593
0.00188251
0.0754369
0.00165212
0.0754865
0.00142183
0.0755084
0.0011917
0.0755026
0.00096173
0.0754696
0.000732243
0.000502345
0.0754097
-0.0356347
0.0102759
0.0370524
-0.0341973
0.0103534
-0.0327439
0.0104304
-0.0312722
0.010507
-0.0297867
0.0105832
-0.0282851
0.0106588
-0.0267718
0.0107336
-0.0252446
0.0108076
-0.0237079
0.0108807
-0.0221597
0.0109526
-0.0205868
0.0107938
-0.0190007
0.0108127
-0.0174073
0.0108556
-0.0158044
0.010894
-0.0141957
0.0109278
-0.0125794
0.0109572
-0.0109589
0.010982
-0.00933256
0.0110023
-0.0077036
0.0110182
-0.00607056
0.0110296
-0.00443654
0.0110368
-0.00280012
0.0110399
-0.0011642
0.0110391
0.000472912
0.0110348
0.00210884
0.0110272
0.00374502
0.0110162
0.00537852
0.0110013
0.00701034
0.0109822
0.00863776
0.0109587
0.0102616
0.0109308
0.0118801
0.0108885
0.0134995
0.0107725
0.0151112
0.0107308
0.0167159
0.0106847
0.0183113
0.010634
0.019898
0.0105789
0.0214739
0.0105194
0.0230394
0.0104555
0.0245926
0.0103872
0.0261339
0.0103145
0.0276613
0.0102376
0.0291752
0.0101564
0.0306739
0.0100711
0.0321575
0.00998154
0.0336244
0.00988791
0.0350748
0.00979021
0.0365071
0.00968851
0.0379214
0.00958286
0.0393163
0.00947332
0.0406918
0.00935995
0.0420465
0.00924281
0.0433804
0.00912196
0.0446923
0.00899748
0.0459822
0.00886942
0.0472488
0.00873787
0.0484922
0.00860289
0.0497111
0.00846456
0.0509056
0.00832295
0.0520745
0.00817816
0.053218
0.00803025
0.0543349
0.00787931
0.0554262
0.00771588
0.0564922
0.00753374
0.0575308
0.00737475
0.058541
0.00721301
0.0595229
0.00704861
0.0604757
0.00688165
0.0613996
0.00671221
0.0622937
0.00654041
0.0631582
0.00636632
0.0639925
0.00619005
0.0647966
0.00601169
0.0655702
0.00583135
0.0663132
0.00564911
0.0670254
0.00546507
0.0677067
0.00527933
0.068357
0.00509199
0.0689764
0.00490313
0.0695647
0.00471286
0.0701219
0.00452128
0.0706482
0.00432846
0.0711435
0.0041345
0.0716079
0.0039395
0.0720414
0.00374353
0.0724444
0.00354669
0.0728167
0.00334906
0.0731587
0.00315071
0.0734703
0.00295174
0.0737519
0.00275221
0.0740036
0.0025522
0.0742255
0.00235179
0.0744179
0.00215105
0.0745807
0.00195005
0.0747145
0.00174885
0.074819
0.00154752
0.0748947
0.00134613
0.0749417
0.00114473
0.07496
0.000943356
0.0749499
0.000742265
0.000541463
0.0749108
-0.0358898
0.00884922
0.0373159
-0.0344456
0.00890991
-0.0329879
0.00897214
-0.0315149
0.00903484
-0.0300302
0.0090979
-0.0285318
0.00916124
-0.0270236
0.00922477
-0.0255035
0.0092884
-0.0239755
0.00935206
-0.0224377
0.0094157
-0.0208781
0.00923356
-0.0193067
0.00924222
-0.0177291
0.00927748
-0.0161433
0.00930896
-0.0145527
0.00933667
-0.0129553
0.0093606
-0.0113546
0.00938077
-0.00974866
0.00939719
-0.00814082
0.0094099
-0.00652935
0.00941897
-0.00491731
0.00942446
-0.0033031
0.00942651
-0.00168951
0.00942525
-7.48662e-05
0.00942093
0.00153771
0.00941436
0.00314902
0.00940561
0.00475644
0.00939366
0.00636117
0.00937815
0.0079608
0.00935893
0.00955627
0.00933597
0.0111461
0.00929865
0.0127365
0.00918271
0.0143192
0.0091481
0.0158948
0.00910973
0.0174612
0.00906761
0.019019
0.00902177
0.0205662
0.00897221
0.0221033
0.008919
0.0236284
0.00886213
0.0251419
0.00880165
0.026642
0.00873759
0.0281291
0.00866999
0.0296014
0.00859887
0.0310592
0.0085243
0.032501
0.00844629
0.0339269
0.0083649
0.0353354
0.00828016
0.0367268
0.00819213
0.0380994
0.00810084
0.0394536
0.00800636
0.0407879
0.00790873
0.0421025
0.007808
0.043396
0.00770422
0.0446686
0.00759746
0.0459189
0.00748776
0.0471473
0.00737519
0.0483523
0.00725981
0.0495342
0.00714167
0.0506918
0.00702084
0.0518253
0.00689739
0.0529335
0.00677138
0.0540176
0.00663242
0.0550779
0.00647368
0.0561124
0.00634097
0.0571198
0.00620589
0.0581005
0.00606853
0.0590536
0.00592894
0.0599792
0.00578721
0.0608766
0.00564341
0.0617459
0.0054976
0.0625865
0.00534987
0.0633985
0.00520029
0.0641813
0.00504893
0.0649352
0.00489587
0.0656594
0.00474118
0.0663544
0.00458493
0.0670196
0.00442721
0.0676553
0.00426808
0.0682609
0.00410762
0.0688369
0.0039459
0.0693828
0.003783
0.0698988
0.00361898
0.0703849
0.00345393
0.0708411
0.0032879
0.0712673
0.00312097
0.0716637
0.0029532
0.0720303
0.00278467
0.0723672
0.00261544
0.0726743
0.00244558
0.072952
0.00227515
0.0732002
0.00210421
0.0734191
0.00193283
0.0736086
0.00176107
0.0737692
0.00158898
0.0739006
0.00141662
0.0740033
0.00124406
0.0740771
0.00107136
0.0741225
0.000898542
0.0741392
0.000725813
0.000552551
0.0741284
-0.0352316
0.00747109
0.0366094
-0.0338374
0.00751639
-0.0324283
0.00756264
-0.0310034
0.00761054
-0.029566
0.00765999
-0.0281151
0.00771091
-0.026654
0.00776321
-0.0251819
0.0078168
-0.0237017
0.00787157
-0.022213
0.0079274
-0.0206974
0.00771771
-0.0191704
0.0077156
-0.0176366
0.00774348
-0.0160956
0.00776832
-0.0145491
0.00779015
-0.0129972
0.00780896
-0.0114412
0.00782477