/*--------------------------------*- C++ -*----------------------------------*\
  =========                 |
  \\      /  F ield         | OpenFOAM: The Open Source CFD Toolbox
   \\    /   O peration     | Website:  https://openfoam.org
    \\  /    A nd           | Version:  6.0
     \\/     M anipulation  |
\*---------------------------------------------------------------------------*/
FoamFile
{
    version     2.0;
    format      ascii;
    class       surfaceScalarField;
    location    "0.95";
    object      phi;
}
// * * * * * * * * * * * * * * * * * * * * * * * * * * * * * * * * * * * * * //

dimensions      [0 3 -1 0 0 0 0];

internalField   nonuniform List<scalar> 
26699
(
2.0051e-05
0.005201
3.4307e-10
4.0126e-05
0.0051116
5.9638e-05
0.0049351
7.8187e-05
0.0046741
9.5414e-05
0.0043332
0.00011102
0.0039182
0.00012471
0.0034362
0.00013626
0.0028953
0.00014545
0.002305
0.00015186
0.0016754
0.00015717
0.0010155
0.00046497
3.4397e-05
2.0051e-05
0.0051809
1.0827e-09
4.0128e-05
0.0050916
5.9639e-05
0.0049156
7.8191e-05
0.0046556
9.5416e-05
0.004316
0.00011102
0.0039026
0.00012471
0.0034225
0.00013625
0.0028838
0.00014542
0.0022958
0.0001512
0.0016697
0.00015892
0.0010077
0.00055896
6.4934e-05
2.0051e-05
0.0051609
1.8847e-09
4.0129e-05
0.0050715
5.9642e-05
0.004896
7.8194e-05
0.004637
9.5418e-05
0.0042988
0.00011103
0.003887
0.0001247
0.0034088
0.00013623
0.0028723
0.00014541
0.0022866
0.00015056
0.0016645
0.00016023
0.00099806
0.00062921
8.9985e-05
2.0052e-05
0.0051408
2.6924e-09
4.0131e-05
0.0050514
5.9644e-05
0.0048765
7.8197e-05
0.0046185
9.5421e-05
0.0042816
0.00011103
0.0038714
0.0001247
0.0033951
0.00013621
0.0028608
0.00014542
0.0022774
0.00014996
0.00166
0.00016103
0.00098699
0.00068019
0.00011005
2.0052e-05
0.0051208
3.5011e-09
4.0132e-05
0.0050313
5.9646e-05
0.004857
7.82e-05
0.0045999
9.5424e-05
0.0042643
0.00011103
0.0038558
0.0001247
0.0033815
0.00013618
0.0028493
0.00014544
0.0022682
0.00014943
0.001656
0.00016133
0.00097508
0.00071561
0.00012592
2.0052e-05
0.0051007
4.3106e-09
4.0134e-05
0.0050112
5.9649e-05
0.0048375
7.8203e-05
0.0045813
9.5427e-05
0.0042471
0.00011103
0.0038402
0.00012469
0.0033678
0.00013616
0.0028378
0.00014548
0.0022588
0.00014898
0.0016525
0.00016121
0.00096285
0.00073855
0.00013828
2.0053e-05
0.0050807
5.121e-09
4.0135e-05
0.0049912
5.9651e-05
0.004818
7.8205e-05
0.0045628
9.543e-05
0.0042299
0.00011103
0.0038246
0.00012469
0.0033541
0.00013614
0.0028264
0.00014552
0.0022495
0.00014863
0.0016494
0.00016077
0.00095072
0.00075162
0.0001477
2.0053e-05
0.0050606
5.9324e-09
4.0136e-05
0.0049711
5.9653e-05
0.0047985
7.8208e-05
0.0045442
9.5432e-05
0.0042127
0.00011103
0.003809
0.00012469
0.0033405
0.00013612
0.0028149
0.00014556
0.00224
0.00014839
0.0016465
0.00016008
0.00093902
0.00075701
0.00015469
2.0053e-05
0.0050405
6.7447e-09
4.0138e-05
0.004951
5.9656e-05
0.0047789
7.8211e-05
0.0045257
9.5436e-05
0.0041954
0.00011103
0.0037934
0.00012469
0.0033268
0.00013609
0.0028035
0.00014561
0.0022305
0.00014824
0.0016439
0.00015925
0.00092801
0.00075654
0.00015971
2.0054e-05
0.0050205
7.558e-09
4.0139e-05
0.0049309
5.9658e-05
0.0047594
7.8214e-05
0.0045071
9.5439e-05
0.0041782
0.00011104
0.0037778
0.00012469
0.0033132
0.00013607
0.0027922
0.00014565
0.0022209
0.00014819
0.0016414
0.00015834
0.00091786
0.00075172
0.00016316
2.0054e-05
0.0050004
8.3723e-09
4.014e-05
0.0049108
5.9661e-05
0.0047399
7.8217e-05
0.0044886
9.5442e-05
0.004161
0.00011104
0.0037622
0.00012469
0.0032995
0.00013604
0.0027808
0.00014568
0.0022113
0.00014822
0.0016388
0.00015742
0.00090866
0.00074377
0.00016537
2.0054e-05
0.0049804
9.1878e-09
4.0142e-05
0.0048907
5.9663e-05
0.0047204
7.822e-05
0.00447
9.5445e-05
0.0041438
0.00011104
0.0037466
0.0001247
0.0032859
0.00013602
0.0027695
0.00014571
0.0022016
0.00014833
0.0016362
0.00015652
0.00090046
0.00073365
0.00016664
2.0055e-05
0.0049603
1.0004e-08
4.0143e-05
0.0048706
5.9665e-05
0.0047009
7.8223e-05
0.0044515
9.5449e-05
0.0041265
0.00011104
0.003731
0.0001247
0.0032722
0.000136
0.0027582
0.00014573
0.0021918
0.00014849
0.0016335
0.0001557
0.00089326
0.00072214
0.00016721
2.0055e-05
0.0049402
1.0822e-08
4.0145e-05
0.0048506
5.9668e-05
0.0046813
7.8226e-05
0.0044329
9.5452e-05
0.0041093
0.00011104
0.0037154
0.0001247
0.0032585
0.00013597
0.0027469
0.00014574
0.0021821
0.0001487
0.0016305
0.00015496
0.00088699
0.00070981
0.00016728
2.0055e-05
0.0049202
1.1641e-08
4.0146e-05
0.0048305
5.967e-05
0.0046618
7.8229e-05
0.0044143
9.5456e-05
0.0040921
0.00011104
0.0036998
0.00012471
0.0032449
0.00013595
0.0027357
0.00014575
0.0021723
0.00014894
0.0016273
0.00015433
0.00088161
0.00069713
0.00016701
2.0056e-05
0.0049001
1.2461e-08
4.0147e-05
0.0048104
5.9673e-05
0.0046423
7.8232e-05
0.0043958
9.5459e-05
0.0040749
0.00011105
0.0036842
0.00012471
0.0032312
0.00013594
0.0027245
0.00014574
0.0021625
0.0001492
0.0016238
0.0001538
0.00087701
0.0006844
0.00016653
2.0056e-05
0.00488
1.3283e-08
4.0149e-05
0.0047903
5.9675e-05
0.0046228
7.8235e-05
0.0043772
9.5463e-05
0.0040576
0.00011105
0.0036687
0.00012472
0.0032175
0.00013592
0.0027133
0.00014573
0.0021527
0.00014947
0.0016201
0.00015338
0.0008731
0.00067185
0.00016593
2.0056e-05
0.00486
1.4105e-08
4.015e-05
0.0047702
5.9678e-05
0.0046032
7.8238e-05
0.0043587
9.5467e-05
0.0040404
0.00011105
0.0036531
0.00012473
0.0032038
0.00013591
0.0027021
0.00014571
0.0021429
0.00014974
0.0016161
0.00015306
0.00086978
0.00065962
0.00016528
2.0057e-05
0.0048399
1.4929e-08
4.0151e-05
0.0047501
5.968e-05
0.0045837
7.8241e-05
0.0043401
9.5471e-05
0.0040232
0.00011105
0.0036375
0.00012474
0.0031902
0.0001359
0.0026909
0.00014569
0.0021331
0.00014999
0.0016118
0.00015283
0.00086694
0.00064782
0.00016464
2.0057e-05
0.0048198
1.5755e-08
4.0153e-05
0.00473
5.9683e-05
0.0045642
7.8244e-05
0.0043215
9.5476e-05
0.0040059
0.00011105
0.0036219
0.00012474
0.0031765
0.00013589
0.0026798
0.00014566
0.0021233
0.00015024
0.0016072
0.00015268
0.0008645
0.00063647
0.00016403
2.0057e-05
0.0047997
1.6582e-08
4.0154e-05
0.0047099
5.9686e-05
0.0045446
7.8247e-05
0.004303
9.548e-05
0.0039887
0.00011105
0.0036063
0.00012475
0.0031628
0.00013588
0.0026686
0.00014564
0.0021135
0.00015047
0.0016024
0.00015261
0.00086236
0.0006256
0.00016348
2.0058e-05
0.0047797
1.7411e-08
4.0156e-05
0.0046898
5.9688e-05
0.0045251
7.825e-05
0.0042844
9.5485e-05
0.0039715
0.00011106
0.0035908
0.00012476
0.0031491
0.00013588
0.0026575
0.00014561
0.0021038
0.00015068
0.0015973
0.00015259
0.00086046
0.00061519
0.000163
2.0058e-05
0.0047596
1.8241e-08
4.0157e-05
0.0046697
5.9691e-05
0.0045056
7.8253e-05
0.0042659
9.549e-05
0.0039542
0.00011106
0.0035752
0.00012477
0.0031353
0.00013589
0.0026464
0.00014558
0.0020941
0.00015087
0.001592
0.00015262
0.00085871
0.00060522
0.00016259
2.0058e-05
0.0047395
1.9072e-08
4.0158e-05
0.0046496
5.9694e-05
0.004486
7.8256e-05
0.0042473
9.5495e-05
0.003937
0.00011106
0.0035596
0.00012478
0.0031216
0.00013589
0.0026353
0.00014556
0.0020845
0.00015104
0.0015865
0.00015268
0.00085707
0.00059566
0.00016224
2.0059e-05
0.0047194
1.9906e-08
4.016e-05
0.0046295
5.9697e-05
0.0044665
7.8259e-05
0.0042287
9.55e-05
0.0039197
0.00011106
0.0035441
0.0001248
0.0031079
0.0001359
0.0026242
0.00014554
0.0020748
0.0001512
0.0015809
0.00015277
0.0008555
0.00058647
0.00016196
2.0059e-05
0.0046994
2.0741e-08
4.0161e-05
0.0046094
5.9699e-05
0.004447
7.8262e-05
0.0042102
9.5505e-05
0.0039025
0.00011106
0.0035285
0.00012481
0.0030941
0.00013591
0.0026131
0.00014552
0.0020652
0.00015134
0.001575
0.00015289
0.00085394
0.00057762
0.00016174
2.006e-05
0.0046793
2.1578e-08
4.0163e-05
0.0045893
5.9702e-05
0.0044274
7.8265e-05
0.0041916
9.5511e-05
0.0038853
0.00011107
0.003513
0.00012482
0.0030804
0.00013592
0.002602
0.0001455
0.0020556
0.00015146
0.0015691
0.00015302
0.00085239
0.00056908
0.00016156
2.006e-05
0.0046592
2.2416e-08
4.0164e-05
0.0045692
5.9705e-05
0.0044079
7.8269e-05
0.004173
9.5517e-05
0.003868
0.00011107
0.0034974
0.00012483
0.0030666
0.00013594
0.0025909
0.00014549
0.0020461
0.00015157
0.001563
0.00015315
0.0008508
0.00056081
0.00016142
2.006e-05
0.0046391
2.3257e-08
4.0166e-05
0.0045491
5.9708e-05
0.0043883
7.8272e-05
0.0041545
9.5523e-05
0.0038508
0.00011107
0.0034819
0.00012485
0.0030528
0.00013596
0.0025798
0.00014548
0.0020366
0.00015167
0.0015568
0.00015329
0.00084918
0.00055279
0.00016131
2.0061e-05
0.004619
2.4099e-08
4.0167e-05
0.004529
5.9711e-05
0.0043688
7.8275e-05
0.0041359
9.553e-05
0.0038335
0.00011108
0.0034663
0.00012486
0.0030391
0.00013598
0.0025687
0.00014547
0.0020271
0.00015175
0.0015505
0.00015343
0.00084749
0.000545
0.00016123
2.0061e-05
0.0045989
2.4943e-08
4.0169e-05
0.0045089
5.9714e-05
0.0043493
7.8279e-05
0.0041174
9.5536e-05
0.0038162
0.00011108
0.0034508
0.00012488
0.0030253
0.000136
0.0025575
0.00014547
0.0020176
0.00015183
0.0015442
0.00015358
0.00084575
0.00053741
0.00016116
2.0062e-05
0.0045788
2.579e-08
4.017e-05
0.0044888
5.9718e-05
0.0043297
7.8282e-05
0.0040988
9.5543e-05
0.003799
0.00011109
0.0034352
0.00012489
0.0030115
0.00013603
0.0025464
0.00014546
0.0020082
0.00015191
0.0015377
0.00015372
0.00084394
0.00053001
0.00016112
2.0062e-05
0.0045588
2.6638e-08
4.0172e-05
0.0044687
5.9721e-05
0.0043102
7.8286e-05
0.0040802
9.5551e-05
0.0037817
0.0001111
0.0034197
0.00012491
0.0029977
0.00013605
0.0025353
0.00014547
0.0019988
0.00015197
0.0015312
0.00015385
0.00084207
0.00052278
0.00016108
2.0063e-05
0.0045387
2.7488e-08
4.0173e-05
0.0044485
5.9724e-05
0.0042906
7.829e-05
0.0040617
9.5559e-05
0.0037645
0.0001111
0.0034041
0.00012492
0.0029838
0.00013608
0.0025241
0.00014547
0.0019894
0.00015204
0.0015246
0.00015398
0.00084012
0.00051572
0.00016105
2.0063e-05
0.0045186
2.834e-08
4.0175e-05
0.0044284
5.9728e-05
0.0042711
7.8294e-05
0.0040431
9.5567e-05
0.0037472
0.00011111
0.0033886
0.00012494
0.00297
0.00013611
0.0025129
0.00014548
0.00198
0.0001521
0.001518
0.00015411
0.0008381
0.0005088
0.00016103
2.0064e-05
0.0044985
2.9194e-08
4.0177e-05
0.0044083
5.9731e-05
0.0042515
7.8299e-05
0.0040245
9.5575e-05
0.0037299
0.00011112
0.003373
0.00012495
0.0029562
0.00013614
0.0025017
0.00014548
0.0019707
0.00015215
0.0015114
0.00015424
0.00083602
0.00050203
0.00016101
2.0064e-05
0.0044784
3.005e-08
4.0178e-05
0.0043882
5.9735e-05
0.0042319
7.8304e-05
0.004006
9.5584e-05
0.0037126
0.00011113
0.0033575
0.00012497
0.0029423
0.00013617
0.0024905
0.00014549
0.0019613
0.00015221
0.0015047
0.00015436
0.00083387
0.0004954
0.00016099
2.0065e-05
0.0044583
3.0907e-08
4.018e-05
0.0043681
5.9739e-05
0.0042124
7.8309e-05
0.0039874
9.5593e-05
0.0036953
0.00011114
0.0033419
0.00012499
0.0029285
0.0001362
0.0024793
0.0001455
0.001952
0.00015226
0.0014979
0.00015447
0.00083165
0.0004889
0.00016097
2.0066e-05
0.0044382
3.1766e-08
4.0182e-05
0.004348
5.9743e-05
0.0041928
7.8314e-05
0.0039688
9.5603e-05
0.0036781
0.00011115
0.0033264
0.000125
0.0029147
0.00013623
0.0024681
0.00014552
0.0019427
0.00015231
0.0014911
0.00015459
0.00082937
0.00048253
0.00016096
2.0066e-05
0.0044181
3.2626e-08
4.0184e-05
0.0043279
5.9747e-05
0.0041733
7.8319e-05
0.0039502
9.5613e-05
0.0036608
0.00011117
0.0033108
0.00012502
0.0029008
0.00013625
0.0024569
0.00014553
0.0019335
0.00015235
0.0014843
0.00015469
0.00082703
0.00047628
0.00016094
2.0067e-05
0.004398
3.3487e-08
4.0186e-05
0.0043077
5.9752e-05
0.0041537
7.8325e-05
0.0039317
9.5624e-05
0.0036435
0.00011118
0.0032953
0.00012503
0.0028869
0.00013628
0.0024456
0.00014554
0.0019242
0.0001524
0.0014774
0.0001548
0.00082463
0.00047015
0.00016093
2.0068e-05
0.0043779
3.4349e-08
4.0188e-05
0.0042876
5.9756e-05
0.0041341
7.8332e-05
0.0039131
9.5635e-05
0.0036262
0.00011119
0.0032797
0.00012505
0.0028731
0.00013631
0.0024344
0.00014555
0.001915
0.00015245
0.0014705
0.0001549
0.00082217
0.00046414
0.00016092
2.0068e-05
0.0043578
3.521e-08
4.0191e-05
0.0042675
5.9761e-05
0.0041146
7.8338e-05
0.0038945
9.5646e-05
0.0036088
0.00011121
0.0032642
0.00012507
0.0028592
0.00013634
0.0024231
0.00014557
0.0019057
0.00015249
0.0014636
0.000155
0.00081966
0.00045824
0.0001609
2.0069e-05
0.0043377
3.6072e-08
4.0193e-05
0.0042474
5.9766e-05
0.004095
7.8346e-05
0.0038759
9.5658e-05
0.0035915
0.00011122
0.0032486
0.00012508
0.0028454
0.00013637
0.0024118
0.00014558
0.0018965
0.00015253
0.0014567
0.0001551
0.00081709
0.00045245
0.00016089
2.007e-05
0.0043176
3.6933e-08
4.0196e-05
0.0042272
5.9771e-05
0.0040754
7.8353e-05
0.0038574
9.567e-05
0.0035742
0.00011124
0.003233
0.0001251
0.0028315
0.00013639
0.0024005
0.00014559
0.0018873
0.00015257
0.0014497
0.00015519
0.00081447
0.00044677
0.00016088
2.0071e-05
0.0042975
3.7792e-08
4.0199e-05
0.0042071
5.9777e-05
0.0040558
7.8361e-05
0.0038388
9.5682e-05
0.0035569
0.00011125
0.0032175
0.00012511
0.0028176
0.00013642
0.0023892
0.00014561
0.0018781
0.00015262
0.0014427
0.00015528
0.0008118
0.00044119
0.00016086
2.0072e-05
0.0042774
3.865e-08
4.0201e-05
0.004187
5.9783e-05
0.0040362
7.8369e-05
0.0038202
9.5695e-05
0.0035396
0.00011127
0.0032019
0.00012513
0.0028038
0.00013644
0.0023779
0.00014562
0.001869
0.00015266
0.0014356
0.00015537
0.00080909
0.00043571
0.00016085
2.0073e-05
0.0042572
3.9504e-08
4.0205e-05
0.0041669
5.9789e-05
0.0040167
7.8378e-05
0.0038016
9.5707e-05
0.0035222
0.00011129
0.0031863
0.00012514
0.0027899
0.00013647
0.0023666
0.00014563
0.0018598
0.0001527
0.0014286
0.00015546
0.00080632
0.00043034
0.00016084
2.0074e-05
0.0042371
4.0354e-08
4.0208e-05
0.0041467
5.9795e-05
0.0039971
7.8387e-05
0.003783
9.572e-05
0.0035049
0.0001113
0.0031707
0.00012516
0.0027761
0.00013649
0.0023552
0.00014565
0.0018506
0.00015273
0.0014215
0.00015554
0.00080351
0.00042506
0.00016082
2.0076e-05
0.004217
4.1199e-08
4.0211e-05
0.0041266
5.9801e-05
0.0039775
7.8396e-05
0.0037644
9.5733e-05
0.0034876
0.00011132
0.0031551
0.00012517
0.0027622
0.00013651
0.0023439
0.00014566
0.0018415
0.00015277
0.0014144
0.00015563
0.00080066
0.00041987
0.00016081
2.0077e-05
0.0041969
4.2038e-08
4.0215e-05
0.0041065
5.9808e-05
0.0039579
7.8406e-05
0.0037458
9.5746e-05
0.0034702
0.00011133
0.0031396
0.00012518
0.0027484
0.00013654
0.0023325
0.00014568
0.0018324
0.00015281
0.0014072
0.00015571
0.00079776
0.00041478
0.0001608
2.0078e-05
0.0041768
4.287e-08
4.0219e-05
0.0040863
5.9815e-05
0.0039383
7.8415e-05
0.0037272
9.5758e-05
0.0034529
0.00011135
0.003124
0.0001252
0.0027345
0.00013656
0.0023212
0.00014569
0.0018232
0.00015285
0.0014001
0.00015579
0.00079482
0.00040978
0.00016079
2.008e-05
0.0041566
4.3694e-08
4.0223e-05
0.0040662
5.9822e-05
0.0039187
7.8425e-05
0.0037086
9.5771e-05
0.0034355
0.00011136
0.0031084
0.00012521
0.0027207
0.00013658
0.0023098
0.00014571
0.0018141
0.00015288
0.0013929
0.00015586
0.00079184
0.00040487
0.00016077
2.0082e-05
0.0041365
4.4508e-08
4.0227e-05
0.004046
5.9829e-05
0.0038991
7.8435e-05
0.00369
9.5783e-05
0.0034182
0.00011138
0.0030928
0.00012522
0.0027068
0.0001366
0.0022984
0.00014572
0.001805
0.00015292
0.0013857
0.00015594
0.00078882
0.00040005
0.00016076
2.0083e-05
0.0041164
4.5311e-08
4.0231e-05
0.0040259
5.9836e-05
0.0038795
7.8445e-05
0.0036714
9.5796e-05
0.0034008
0.00011139
0.0030772
0.00012523
0.002693
0.00013662
0.002287
0.00014574
0.0017959
0.00015295
0.0013785
0.00015601
0.00078576
0.00039531
0.00016075
2.0085e-05
0.0040963
4.6102e-08
4.0235e-05
0.0040057
5.9843e-05
0.0038599
7.8455e-05
0.0036528
9.5807e-05
0.0033835
0.0001114
0.0030616
0.00012524
0.0026791
0.00013664
0.0022756
0.00014575
0.0017868
0.00015299
0.0013713
0.00015608
0.00078266
0.00039065
0.00016074
2.0087e-05
0.0040761
4.688e-08
4.024e-05
0.0039856
5.9851e-05
0.0038403
7.8465e-05
0.0036342
9.5819e-05
0.0033661
0.00011142
0.003046
0.00012525
0.0026653
0.00013666
0.0022642
0.00014577
0.0017776
0.00015302
0.001364
0.00015616
0.00077952
0.00038608
0.00016073
2.0089e-05
0.004056
4.7644e-08
4.0244e-05
0.0039654
5.9858e-05
0.0038207
7.8475e-05
0.0036155
9.583e-05
0.0033488
0.00011143
0.0030304
0.00012526
0.0026515
0.00013668
0.0022528
0.00014578
0.0017685
0.00015305
0.0013567
0.00015622
0.00077635
0.00038158
0.00016072
2.009e-05
0.0040359
4.8393e-08
4.0249e-05
0.0039453
5.9865e-05
0.003801
7.8484e-05
0.0035969
9.5841e-05
0.0033314
0.00011144
0.0030148
0.00012527
0.0026376
0.0001367
0.0022414
0.0001458
0.0017595
0.00015308
0.0013494
0.00015629
0.00077314
0.00037716
0.00016071
2.0092e-05
0.0040157
4.9125e-08
4.0253e-05
0.0039251
5.9873e-05
0.0037814
7.8493e-05
0.0035783
9.5851e-05
0.0033141
0.00011145
0.0029992
0.00012528
0.0026238
0.00013672
0.0022299
0.00014581
0.0017504
0.00015312
0.0013421
0.00015636
0.0007699
0.00037281
0.0001607
2.0094e-05
0.0039956
4.984e-08
4.0258e-05
0.0039049
5.988e-05
0.0037618
7.8503e-05
0.0035597
9.5861e-05
0.0032967
0.00011146
0.0029836
0.00012529
0.00261
0.00013674
0.0022185
0.00014583
0.0017413
0.00015315
0.0013348
0.00015642
0.00076663
0.00036853
0.0001607
2.0096e-05
0.0039754
5.0538e-08
4.0262e-05
0.0038848
5.9887e-05
0.0037422
7.8511e-05
0.0035411
9.587e-05
0.0032794
0.00011147
0.002968
0.0001253
0.0025962
0.00013676
0.002207
0.00014585
0.0017322
0.00015318
0.0013275
0.00015649
0.00076332
0.00036433
0.00016069
2.0098e-05
0.0039553
5.1217e-08
4.0267e-05
0.0038646
5.9893e-05
0.0037225
7.852e-05
0.0035224
9.5879e-05
0.003262
0.00011149
0.0029524
0.00012531
0.0025823
0.00013678
0.0021956
0.00014587
0.0017231
0.00015321
0.0013202
0.00015655
0.00075998
0.0003602
0.00016068
2.01e-05
0.0039351
5.1878e-08
4.0271e-05
0.0038444
5.99e-05
0.0037029
7.8528e-05
0.0035038
9.5888e-05
0.0032446
0.0001115
0.0029368
0.00012531
0.0025685
0.0001368
0.0021841
0.00014588
0.001714
0.00015324
0.0013128
0.00015661
0.00075661
0.00035613
0.00016067
2.0102e-05
0.003915
5.252e-08
4.0275e-05
0.0038243
5.9907e-05
0.0036833
7.8536e-05
0.0034852
9.5896e-05
0.0032273
0.00011151
0.0029212
0.00012532
0.0025547
0.00013682
0.0021726
0.0001459
0.0017049
0.00015327
0.0013054
0.00015667
0.00075321
0.00035214
0.00016067
2.0104e-05
0.0038948
5.3143e-08
4.028e-05
0.0038041
5.9913e-05
0.0036637
7.8544e-05
0.0034665
9.5904e-05
0.0032099
0.00011151
0.0029056
0.00012533
0.0025409
0.00013683
0.0021611
0.00014592
0.0016958
0.0001533
0.001298
0.00015673
0.00074979
0.0003482
0.00016066
2.0106e-05
0.0038746
5.3748e-08
4.0284e-05
0.0037839
5.9919e-05
0.003644
7.8551e-05
0.0034479
9.5912e-05
0.0031926
0.00011152
0.0028899
0.00012534
0.0025271
0.00013685
0.0021496
0.00014594
0.0016868
0.00015333
0.0012907
0.00015678
0.00074633
0.00034433
0.00016066
2.0107e-05
0.0038545
5.4334e-08
4.0288e-05
0.0037637
5.9924e-05
0.0036244
7.8558e-05
0.0034293
9.5919e-05
0.0031752
0.00011153
0.0028743
0.00012535
0.0025133
0.00013687
0.002138
0.00014596
0.0016777
0.00015336
0.0012833
0.00015684
0.00074284
0.00034052
0.00016065
2.0109e-05
0.0038343
5.4902e-08
4.0291e-05
0.0037435
5.993e-05
0.0036047
7.8565e-05
0.0034106
9.5926e-05
0.0031578
0.00011154
0.0028587
0.00012535
0.0024994
0.00013689
0.0021265
0.00014597
0.0016686
0.00015338
0.0012758
0.0001569
0.00073933
0.00033677
0.00016065
2.0111e-05
0.0038142
5.5454e-08
4.0295e-05
0.0037234
5.9935e-05
0.0035851
7.8571e-05
0.003392
9.5932e-05
0.0031405
0.00011155
0.0028431
0.00012536
0.0024856
0.00013691
0.002115
0.00014599
0.0016595
0.00015341
0.0012684
0.00015695
0.00073579
0.00033308
0.00016064
2.0112e-05
0.003794
5.5988e-08
4.0299e-05
0.0037032
5.994e-05
0.0035655
7.8577e-05
0.0033734
9.5939e-05
0.0031231
0.00011156
0.0028275
0.00012537
0.0024718
0.00013693
0.0021034
0.00014601
0.0016504
0.00015344
0.001261
0.000157
0.00073223
0.00032944
0.00016064
2.0114e-05
0.0037738
5.6508e-08
4.0302e-05
0.003683
5.9945e-05
0.0035458
7.8583e-05
0.0033547
9.5945e-05
0.0031057
0.00011157
0.0028119
0.00012538
0.002458
0.00013695
0.0020918
0.00014603
0.0016413
0.00015347
0.0012536
0.00015706
0.00072863
0.00032586
0.00016064
2.0115e-05
0.0037536
5.7012e-08
4.0305e-05
0.0036628
5.9949e-05
0.0035262
7.8588e-05
0.0033361
9.5951e-05
0.0030884
0.00011158
0.0027962
0.00012539
0.0024442
0.00013697
0.0020802
0.00014605
0.0016322
0.00015349
0.0012461
0.00015711
0.00072502
0.00032233
0.00016063
2.0117e-05
0.0037335
5.7503e-08
4.0308e-05
0.0036426
5.9954e-05
0.0035065
7.8594e-05
0.0033175
9.5957e-05
0.003071
0.00011159
0.0027806
0.0001254
0.0024304
0.00013699
0.0020687
0.00014607
0.0016232
0.00015352
0.0012387
0.00015716
0.00072138
0.00031886
0.00016063
2.0118e-05
0.0037133
5.7982e-08
4.0311e-05
0.0036224
5.9958e-05
0.0034869
7.8599e-05
0.0032988
9.5962e-05
0.0030537
0.0001116
0.002765
0.0001254
0.0024166
0.00013701
0.0020571
0.00014609
0.0016141
0.00015355
0.0012312
0.00015721
0.00071772
0.00031544
0.00016063
2.0119e-05
0.0036931
5.845e-08
4.0314e-05
0.0036022
5.9962e-05
0.0034672
7.8604e-05
0.0032802
9.5968e-05
0.0030363
0.0001116
0.0027493
0.00012541
0.0024028
0.00013702
0.0020454
0.00014611
0.001605
0.00015357
0.0012238
0.00015726
0.00071403
0.00031206
0.00016063
2.0121e-05
0.0036729
5.8908e-08
4.0317e-05
0.003582
5.9965e-05
0.0034476
7.8609e-05
0.0032615
9.5974e-05
0.0030189
0.00011161
0.0027337
0.00012542
0.002389
0.00013704
0.0020338
0.00014613
0.0015959
0.0001536
0.0012163
0.0001573
0.00071032
0.00030874
0.00016063
2.0122e-05
0.0036528
5.9357e-08
4.0319e-05
0.0035618
5.9969e-05
0.0034279
7.8614e-05
0.0032429
9.5979e-05
0.0030016
0.00011162
0.002718
0.00012543
0.0023752
0.00013706
0.0020222
0.00014616
0.0015868
0.00015362
0.0012088
0.00015735
0.00070659
0.00030546
0.00016063
2.0123e-05
0.0036326
5.9799e-08
4.0322e-05
0.0035416
5.9973e-05
0.0034083
7.8619e-05
0.0032242
9.5985e-05
0.0029842
0.00011163
0.0027024
0.00012544
0.0023614
0.00013708
0.0020106
0.00014618
0.0015777
0.00015365
0.0012014
0.0001574
0.00070284
0.00030223
0.00016063
2.0124e-05
0.0036124
6.0234e-08
4.0324e-05
0.0035214
5.9976e-05
0.0033886
7.8624e-05
0.0032056
9.5991e-05
0.0029668
0.00011164
0.0026867
0.00012545
0.0023475
0.0001371
0.0019989
0.0001462
0.0015686
0.00015367
0.0011939
0.00015744
0.00069907
0.00029904
0.00016063
2.0125e-05
0.0035922
6.0665e-08
4.0326e-05
0.0035012
5.9979e-05
0.003369
7.8628e-05
0.0031869
9.5996e-05
0.0029495
0.00011165
0.0026711
0.00012546
0.0023337
0.00013712
0.0019872
0.00014622
0.0015595
0.0001537
0.0011864
0.00015749
0.00069528
0.0002959
0.00016063
2.0126e-05
0.003572
6.1091e-08
4.0328e-05
0.003481
5.9982e-05
0.0033493
7.8633e-05
0.0031683
9.6002e-05
0.0029321
0.00011166
0.0026554
0.00012547
0.0023199
0.00013714
0.0019756
0.00014624
0.0015504
0.00015372
0.0011789
0.00015753
0.00069147
0.0002928
0.00016063
2.0127e-05
0.0035518
6.1514e-08
4.0331e-05
0.0034608
5.9986e-05
0.0033297
7.8638e-05
0.0031496
9.6007e-05
0.0029147
0.00011167
0.0026398
0.00012548
0.0023061
0.00013716
0.0019639
0.00014627
0.0015413
0.00015375
0.0011715
0.00015758
0.00068764
0.00028974
0.00016064
2.0128e-05
0.0035316
6.1936e-08
4.0333e-05
0.0034406
5.9989e-05
0.00331
7.8642e-05
0.003131
9.6013e-05
0.0028974
0.00011168
0.0026241
0.00012549
0.0022923
0.00013718
0.0019522
0.00014629
0.0015322
0.00015377
0.001164
0.00015762
0.00068379
0.00028672
0.00016064
2.0128e-05
0.0035114
6.2357e-08
4.0335e-05
0.0034204
5.9992e-05
0.0032904
7.8647e-05
0.0031123
9.6019e-05
0.00288
0.00011169
0.0026084
0.0001255
0.0022785
0.0001372
0.0019405
0.00014631
0.0015231
0.00015379
0.0011565
0.00015766
0.00067992
0.00028374
0.00016064
2.0129e-05
0.0034913
6.2778e-08
4.0337e-05
0.0034002
5.9995e-05
0.0032707
7.8652e-05
0.0030937
9.6025e-05
0.0028626
0.0001117
0.0025928
0.00012551
0.0022647
0.00013722
0.0019288
0.00014633
0.001514
0.00015382
0.001149
0.0001577
0.00067604
0.0002808
0.00016065
2.013e-05
0.0034711
6.3199e-08
4.0339e-05
0.00338
5.9998e-05
0.003251
7.8657e-05
0.003075
9.6031e-05
0.0028452
0.00011171
0.0025771
0.00012552
0.0022509
0.00013724
0.0019171
0.00014636
0.0015049
0.00015384
0.0011415
0.00015774
0.00067213
0.00027789
0.00016065
2.0131e-05
0.0034509
6.3622e-08
4.0341e-05
0.0033598
6.0001e-05
0.0032314
7.8661e-05
0.0030563
9.6037e-05
0.0028279
0.00011172
0.0025614
0.00012553
0.0022371
0.00013726
0.0019053
0.00014638
0.0014957
0.00015387
0.001134
0.00015778
0.00066821
0.00027502
0.00016065
2.0131e-05
0.0034307
6.4048e-08
4.0342e-05
0.0033396
6.0004e-05
0.0032117
7.8666e-05
0.0030377
9.6043e-05
0.0028105
0.00011173
0.0025457
0.00012554
0.0022232
0.00013728
0.0018936
0.0001464
0.0014866
0.00015389
0.0011266
0.00015782
0.00066428
0.00027219
0.00016066
2.0132e-05
0.0034105
6.4477e-08
4.0344e-05
0.0033194
6.0007e-05
0.0031921
7.8671e-05
0.003019
9.6049e-05
0.0027931
0.00011174
0.00253
0.00012555
0.0022094
0.0001373
0.0018819
0.00014643
0.0014775
0.00015391
0.0011191
0.00015786
0.00066032
0.00026939
0.00016066
2.0133e-05
0.0033903
6.4909e-08
4.0346e-05
0.0032991
6.001e-05
0.0031724
7.8676e-05
0.0030004
9.6055e-05
0.0027757
0.00011175
0.0025143
0.00012556
0.0021956
0.00013732
0.0018701
0.00014645
0.0014683
0.00015394
0.0011116
0.0001579
0.00065636
0.00026662
0.00016067
2.0134e-05
0.0033701
6.5345e-08
4.0348e-05
0.0032789
6.0013e-05
0.0031527
7.8681e-05
0.0029817
9.6062e-05
0.0027583
0.00011176
0.0024986
0.00012558
0.0021818
0.00013734
0.0018583
0.00014647
0.0014592
0.00015396
0.0011041
0.00015794
0.00065237
0.00026389
0.00016068
2.0134e-05
0.0033499
6.5786e-08
4.035e-05
0.0032587
6.0017e-05
0.0031331
7.8686e-05
0.002963
9.6068e-05
0.002741
0.00011177
0.0024829
0.00012559
0.002168
0.00013736
0.0018466
0.0001465
0.0014501
0.00015398
0.0010966
0.00015798
0.00064838
0.00026119
0.00016068
2.0135e-05
0.0033297
6.6232e-08
4.0352e-05
0.0032385
6.002e-05
0.0031134
7.8692e-05
0.0029443
9.6075e-05
0.0027236
0.00011178
0.0024672
0.0001256
0.0021542
0.00013738
0.0018348
0.00014652
0.0014409
0.000154
0.0010891
0.00015802
0.00064436
0.00025851
0.00016069
2.0136e-05
0.0033095
6.6684e-08
4.0354e-05
0.0032183
6.0023e-05
0.0030937
7.8697e-05
0.0029257
9.6082e-05
0.0027062
0.00011179
0.0024515
0.00012561
0.0021404
0.0001374
0.001823
0.00014655
0.0014318
0.00015403
0.0010817
0.00015805
0.00064034
0.00025587
0.0001607
2.0136e-05
0.0032893
6.7141e-08
4.0356e-05
0.0031981
6.0026e-05
0.0030741
7.8702e-05
0.002907
9.6089e-05
0.0026888
0.00011181
0.0024358
0.00012562
0.0021265
0.00013742
0.0018112
0.00014657
0.0014226
0.00015405
0.0010742
0.00015809
0.0006363
0.00025325
0.00016071
2.0137e-05
0.0032691
6.7605e-08
4.0358e-05
0.0031778
6.003e-05
0.0030544
7.8708e-05
0.0028883
9.6096e-05
0.0026714
0.00011182
0.0024201
0.00012564
0.0021127
0.00013744
0.0017994
0.0001466
0.0014135
0.00015407
0.0010667
0.00015813
0.00063225
0.00025067
0.00016071
2.0138e-05
0.0032489
6.8075e-08
4.036e-05
0.0031576
6.0033e-05
0.0030347
7.8714e-05
0.0028696
9.6103e-05
0.002654
0.00011183
0.0024043
0.00012565
0.0020989
0.00013746
0.0017876
0.00014662
0.0014043
0.0001541
0.0010592
0.00015816
0.00062818
0.00024811
0.00016072
2.0139e-05
0.0032287
6.8552e-08
4.0363e-05
0.0031374
6.0037e-05
0.003015
7.8719e-05
0.002851
9.611e-05
0.0026366
0.00011184
0.0023886
0.00012566
0.0020851
0.00013748
0.0017758
0.00014665
0.0013951
0.00015412
0.0010518
0.0001582
0.0006241
0.00024557
0.00016073
2.0139e-05
0.0032084
6.9036e-08
4.0365e-05
0.0031172
6.004e-05
0.0029954
7.8725e-05
0.0028323
9.6117e-05
0.0026192
0.00011185
0.0023729
0.00012568
0.0020713
0.0001375
0.001764
0.00014667
0.001386
0.00015414
0.0010443
0.00015823
0.00062001
0.00024307
0.00016074
2.014e-05
0.0031882
6.9528e-08
4.0367e-05
0.0030969
6.0044e-05
0.0029757
7.8731e-05
0.0028136
9.6125e-05
0.0026019
0.00011187
0.0023571
0.00012569
0.0020574
0.00013752
0.0017521
0.0001467
0.0013768
0.00015417
0.0010368
0.00015827
0.00061591
0.00024058
0.00016075
2.0141e-05
0.003168
7.0027e-08
4.0369e-05
0.0030767
6.0047e-05
0.002956
7.8737e-05
0.0027949
9.6132e-05
0.0025845
0.00011188
0.0023414
0.0001257
0.0020436
0.00013754
0.0017403
0.00014672
0.0013676
0.00015419
0.0010294
0.0001583
0.00061179
0.00023812
0.00016076
2.0142e-05
0.0031478
7.0534e-08
4.0371e-05
0.0030565
6.0051e-05
0.0029363
7.8743e-05
0.0027762
9.614e-05
0.0025671
0.00011189
0.0023256
0.00012572
0.0020298
0.00013756
0.0017285
0.00014675
0.0013584
0.00015421
0.0010219
0.00015834
0.00060766
0.00023569
0.00016077
2.0143e-05
0.0031276
7.105e-08
4.0374e-05
0.0030362
6.0055e-05
0.0029166
7.8749e-05
0.0027575
9.6148e-05
0.0025497
0.0001119
0.0023099
0.00012573
0.0020159
0.00013758
0.0017166
0.00014678
0.0013492
0.00015424
0.0010144
0.00015837
0.00060353
0.00023327
0.00016079
2.0143e-05
0.0031074
7.1573e-08
4.0376e-05
0.003016
6.0059e-05
0.002897
7.8756e-05
0.0027388
9.6156e-05
0.0025323
0.00011192
0.0022941
0.00012575
0.0020021
0.0001376
0.0017047
0.0001468
0.00134
0.00015426
0.001007
0.00015841
0.00059938
0.00023088
0.0001608
2.0144e-05
0.0030872
7.2106e-08
4.0378e-05
0.0029958
6.0063e-05
0.0028773
7.8762e-05
0.0027201
9.6164e-05
0.0025149
0.00011193
0.0022783
0.00012576
0.0019883
0.00013763
0.0016929
0.00014683
0.0013308
0.00015428
0.00099952
0.00015844
0.00059522
0.00022851
0.00016081
2.0145e-05
0.003067
7.2647e-08
4.0381e-05
0.0029755
6.0067e-05
0.0028576
7.8769e-05
0.0027014
9.6173e-05
0.0024975
0.00011194
0.0022626
0.00012578
0.0019744
0.00013765
0.001681
0.00014686
0.0013216
0.00015431
0.00099208
0.00015847
0.00059105
0.00022617
0.00016082
2.0146e-05
0.0030467
7.3197e-08
4.0383e-05
0.0029553
6.0071e-05
0.0028379
7.8775e-05
0.0026827
9.6181e-05
0.0024801
0.00011195
0.0022468
0.00012579
0.0019606
0.00013767
0.0016691
0.00014688
0.0013124
0.00015433
0.00098463
0.00015851
0.00058687
0.00022384
0.00016084
2.0147e-05
0.0030265
7.3756e-08
4.0386e-05
0.0029351
6.0075e-05
0.0028182
7.8782e-05
0.002664
9.619e-05
0.0024626
0.00011197
0.002231
0.00012581
0.0019468
0.00013769
0.0016572
0.00014691
0.0013032
0.00015435
0.00097719
0.00015854
0.00058268
0.00022153
0.00016085
2.0148e-05
0.0030063
7.4325e-08
4.0389e-05
0.0029148
6.0079e-05
0.0027985
7.8789e-05
0.0026453
9.6198e-05
0.0024452
0.00011198
0.0022152
0.00012582
0.0019329
0.00013771
0.0016454
0.00014694
0.0012939
0.00015438
0.00096975
0.00015858
0.00057848
0.00021924
0.00016087
2.0149e-05
0.0029861
7.4903e-08
4.0391e-05
0.0028946
6.0084e-05
0.0027788
7.8796e-05
0.0026266
9.6207e-05
0.0024278
0.000112
0.0021995
0.00012584
0.0019191
0.00013773
0.0016335
0.00014697
0.0012847
0.0001544
0.00096232
0.00015861
0.00057428
0.00021696
0.00016088
2.015e-05
0.0029658
7.5491e-08
4.0394e-05
0.0028743
6.0088e-05
0.0027591
7.8803e-05
0.0026079
9.6216e-05
0.0024104
0.00011201
0.0021837
0.00012585
0.0019053
0.00013776
0.0016216
0.00014699