/*--------------------------------*- C++ -*----------------------------------*\
  =========                 |
  \\      /  F ield         | OpenFOAM: The Open Source CFD Toolbox
   \\    /   O peration     | Website:  https://openfoam.org
    \\  /    A nd           | Version:  6.0
     \\/     M anipulation  |
\*---------------------------------------------------------------------------*/
FoamFile
{
    version     2.0;
    format      ascii;
    class       volScalarField;
    location    "8";
    object      p;
}
// * * * * * * * * * * * * * * * * * * * * * * * * * * * * * * * * * * * * * //

dimensions      [0 2 -2 0 0 0 0];

internalField   nonuniform List<scalar> 
62000
(
0.0155322
0.0155425
0.0155552
0.0155703
0.0155883
0.0156091
0.0156333
0.015661
0.0156927
0.0157285
0.0157691
0.0158144
0.0158656
0.0159223
0.0159859
0.0160562
0.0161347
0.0162211
0.0163171
0.0164224
0.0165384
0.0166648
0.0168029
0.016952
0.0171127
0.0172841
0.0174658
0.017656
0.0178533
0.0180542
0.0182555
0.0184519
0.0186375
0.0188046
0.0189457
0.0190532
0.0191193
0.0191366
0.0190997
0.0190075
0.0188657
0.018689
0.0185016
0.0183356
0.0182251
0.0181965
0.018254
0.0183677
0.0184624
0.0184251
0.0181228
0.0174382
0.016301
0.0147387
0.0128416
0.0107662
0.00867817
0.00668202
0.00513698
0.00418881
0.0154853
0.0154959
0.0155091
0.0155248
0.0155436
0.0155654
0.0155909
0.0156199
0.0156533
0.0156908
0.0157335
0.015781
0.0158345
0.0158938
0.0159601
0.0160332
0.0161145
0.0162039
0.016303
0.0164114
0.0165307
0.0166606
0.0168023
0.0169552
0.0171201
0.017296
0.0174826
0.0176785
0.0178819
0.01809
0.0182992
0.0185047
0.0187002
0.0188787
0.0190324
0.0191541
0.0192358
0.0192698
0.0192498
0.0191742
0.0190487
0.0188885
0.01872
0.0185794
0.0185081
0.0185432
0.0187021
0.0189682
0.0192754
0.0195101
0.0195234
0.0191653
0.0183185
0.0169645
0.0151535
0.0130241
0.0107494
0.00843924
0.00672982
0.00532391
0.0154065
0.0154179
0.0154324
0.0154499
0.0154709
0.0154951
0.0155233
0.0155552
0.0155917
0.0156324
0.0156782
0.015729
0.0157856
0.015848
0.0159172
0.015993
0.0160767
0.0161683
0.0162689
0.0163785
0.0164983
0.0166279
0.0167684
0.0169191
0.0170806
0.0172518
0.0174323
0.0176202
0.0178137
0.0180094
0.0182034
0.0183899
0.0185622
0.018712
0.0188316
0.0189122
0.0189441
0.0189166
0.0188203
0.0186498
0.0184067
0.0181026
0.0177611
0.0174176
0.0171167
0.0169041
0.0168131
0.0168491
0.0169728
0.0170968
0.0170916
0.0168138
0.0161376
0.0150252
0.0135007
0.0116809
0.00973243
0.00776877
0.00654865
0.00561214
0.0153221
0.0153343
0.0153503
0.0153698
0.0153931
0.0154201
0.0154515
0.015487
0.0155272
0.0155721
0.0156223
0.0156776
0.0157389
0.0158061
0.01588
0.0159607
0.0160493
0.0161456
0.0162511
0.0163654
0.0164898
0.0166241
0.0167691
0.0169243
0.0170901
0.0172656
0.0174503
0.0176425
0.01784
0.0180398
0.0182371
0.0184262
0.0185995
0.0187493
0.0188666
0.0189424
0.018965
0.0189207
0.0187963
0.0185818
0.0182735
0.0178768
0.0174091
0.0169013
0.0163958
0.0159418
0.0155827
0.0153431
0.01521
0.0151272
0.0149946
0.0146899
0.0140955
0.0131699
0.0119239
0.0104575
0.00892528
0.00743959
0.00677273
0.00650136
0.0152445
0.0152579
0.0152755
0.0152972
0.0153231
0.0153532
0.0153879
0.0154272
0.0154717
0.0155212
0.0155764
0.0156371
0.0157042
0.0157775
0.0158582
0.015946
0.0160422
0.0161467
0.016261
0.0163848
0.0165196
0.0166651
0.0168225
0.0169914
0.0171726
0.0173653
0.0175694
0.0177837
0.0180063
0.0182346
0.0184643
0.0186895
0.0189035
0.0190982
0.0192664
0.0193984
0.0194819
0.0195011
0.0194397
0.0192839
0.0190243
0.0186596
0.0181995
0.0176664
0.0170961
0.0165339
0.0160256
0.0156049
0.0152771
0.0150099
0.01473
0.0143385
0.0137327
0.0128771
0.0117775
0.0105235
0.00925463
0.00807212
0.00772607
0.00780306
0.0152004
0.0152146
0.0152334
0.0152564
0.015284
0.015316
0.0153531
0.0153952
0.0154429
0.015496
0.0155554
0.0156207
0.0156931
0.0157722
0.0158592
0.0159541
0.0160583
0.0161717
0.0162959
0.0164309
0.0165783
0.016738
0.0169116
0.0170989
0.017301
0.0175177
0.0177494
0.0179954
0.0182546
0.0185251
0.0188032
0.0190841
0.0193612
0.0196286
0.0198791
0.0201046
0.0202926
0.0204264
0.0204879
0.02046
0.020329
0.0200871
0.0197358
0.0192881
0.0187699
0.0182184
0.0176746
0.0171738
0.0167299
0.0163267
0.0159117
0.0154063
0.0147242
0.013839
0.0127586
0.0115661
0.0103856
0.00930205
0.00905021
0.00919827
0.015177
0.0151922
0.0152123
0.0152369
0.0152662
0.0153001
0.0153394
0.0153839
0.0154344
0.0154905
0.0155533
0.0156226
0.0156994
0.0157835
0.0158762
0.0159776
0.0160891
0.0162109
0.0163445
0.0164902
0.0166498
0.0168234
0.0170128
0.0172183
0.0174414
0.0176823
0.0179418
0.0182201
0.0185167
0.0188306
0.0191592
0.0194981
0.0198427
0.0201869
0.0205265
0.0208536
0.0211568
0.0214195
0.0216224
0.0217468
0.0217757
0.0216958
0.0215015
0.0211964
0.0207962
0.0203276
0.0198238
0.019316
0.0188205
0.0183301
0.0178064
0.0171878
0.0164026
0.0154351
0.0142967
0.0130679
0.0118597
0.0107449
0.0104587
0.0105561
0.0151779
0.015194
0.015215
0.0152406
0.015271
0.0153061
0.0153468
0.0153929
0.0154452
0.0155036
0.0155689
0.0156411
0.0157211
0.0158089
0.0159059
0.016012
0.0161291
0.0162571
0.016398
0.0165521
0.0167215
0.0169064
0.0171089
0.0173295
0.0175701
0.0178313
0.0181145
0.0184202
0.0187488
0.0191001
0.0194721
0.019862
0.0202652
0.0206785
0.0210973
0.0215161
0.0219243
0.0223059
0.0226417
0.0229121
0.023098
0.0231824
0.0231536
0.0230076
0.0227503
0.0223983
0.0219753
0.0215062
0.0210052
0.0204691
0.0198692
0.0191557
0.0182699
0.0172047
0.0159776
0.0146687
0.0133799
0.012178
0.0118112
0.0118303
0.015178
0.0151954
0.015218
0.015245
0.015277
0.0153138
0.0153563
0.0154042
0.0154585
0.0155188
0.0155864
0.0156609
0.0157437
0.0158346
0.015935
0.016045
0.0161664
0.0162994
0.0164459
0.0166065
0.0167832
0.0169765
0.0171888
0.0174207
0.0176743
0.0179508
0.0182517
0.0185781
0.0189311
0.0193109
0.0197166
0.0201458
0.0205959
0.021063
0.0215456
0.0220385
0.0225325
0.0230128
0.0234606
0.0238565
0.0241802
0.0244122
0.0245366
0.024543
0.0244294
0.0242033
0.023879
0.0234739
0.0229981
0.0224492
0.0218041
0.021022
0.0200541
0.0189013
0.0175862
0.0161908
0.014812
0.0135169
0.013071
0.0130236
0.0151942
0.0152125
0.0152357
0.0152633
0.0152957
0.0153329
0.0153758
0.0154243
0.0154792
0.0155404
0.0156089
0.0156846
0.0157686
0.0158609
0.015963
0.0160749
0.0161986
0.0163343
0.016484
0.0166483
0.0168296
0.0170283
0.0172469
0.0174863
0.0177488
0.0180356
0.0183487
0.0186895
0.0190593
0.0194592
0.0198887
0.0203464
0.0208297
0.0213374
0.021867
0.0224156
0.022975
0.0235316
0.0240676
0.024564
0.0250005
0.0253561
0.0256121
0.0257536
0.025772
0.025667
0.0254448
0.0251154
0.0246839
0.0241465
0.0234835
0.0226601
0.0216351
0.0204154
0.0190294
0.0175618
0.0161071
0.0147366
0.0142325
0.0141416
0.0151949
0.0152143
0.0152386
0.0152673
0.0153007
0.0153389
0.0153827
0.0154319
0.0154876
0.0155495
0.0156188
0.0156952
0.0157801
0.0158734
0.0159766
0.0160899
0.0162152
0.0163528
0.0165046
0.0166715
0.0168556
0.0170577
0.0172803
0.0175244
0.0177923
0.0180856
0.0184064
0.0187564
0.0191372
0.0195502
0.0199956
0.0204723
0.0209793
0.0215142
0.0220775
0.022666
0.0232731
0.0238864
0.0244893
0.0250636
0.0255895
0.0260455
0.026411
0.0266677
0.0268025
0.0268087
0.0266854
0.0264356
0.0260597
0.0255512
0.0248922
0.0240519
0.0229951
0.0217335
0.0202997
0.0187822
0.0172748
0.0158553
0.015318
0.0152056
0.0151929
0.0152128
0.0152375
0.0152664
0.0152999
0.015338
0.0153817
0.015431
0.0154867
0.0155487
0.015618
0.0156946
0.0157797
0.0158732
0.0159766
0.0160901
0.0162157
0.0163537
0.0165062
0.016674
0.0168594
0.0170631
0.0172878
0.0175345
0.0178056
0.0181028
0.0184283
0.0187839
0.0191715
0.0195928
0.0200483
0.0205377
0.0210596
0.0216141
0.0222003
0.0228169
0.0234582
0.0241129
0.0247656
0.0253993
0.0259949
0.026531
0.0269859
0.0273394
0.0275748
0.0276804
0.0276493
0.0274789
0.0271645
0.0266969
0.0260587
0.0252218
0.0241554
0.0228743
0.0214155
0.0198709
0.0183346
0.0168908
0.0163413
0.0162242
0.0151567
0.0151777
0.0152034
0.0152333
0.0152677
0.0153068
0.0153514
0.0154014
0.0154578
0.0155203
0.0155903
0.0156673
0.0157529
0.0158469
0.0159509
0.016065
0.0161913
0.01633
0.0164833
0.016652
0.0168383
0.0170431
0.0172691
0.0175173
0.0177903
0.0180898
0.018418
0.0187771
0.019169
0.0195956
0.0200578
0.0205554
0.0210885
0.0216554
0.0222582
0.0228949
0.023561
0.0242465
0.0249372
0.025617
0.026268
0.0268691
0.0273983
0.0278341
0.028157
0.0283517
0.0284065
0.0283135
0.0280637
0.0276451
0.02704
0.0262221
0.0251638
0.0238827
0.0224185
0.0208665
0.0193214
0.0178732
0.0173268
0.0172158
0.0151206
0.0151416
0.0151672
0.0151967
0.0152306
0.0152689
0.0153127
0.0153619
0.0154176
0.0154796
0.0155488
0.0156253
0.0157103
0.0158037
0.0159071
0.0160206
0.0161464
0.0162846
0.0164376
0.0166061
0.0167926
0.0169977
0.0172243
0.0174734
0.0177476
0.0180487
0.0183789
0.0187405
0.0191355
0.019566
0.0200331
0.0205372
0.0210776
0.0216553
0.0222702
0.0229224
0.0236077
0.0243173
0.0250379
0.0257548
0.026451
0.027106
0.0276979
0.0282045
0.0286046
0.0288796
0.0290142
0.0289961
0.0288121
0.0284476
0.0278844
0.0270971
0.0260605
0.0247937
0.0233391
0.0217947
0.0202558
0.0188168
0.0182825
0.018183
0.0150464
0.015068
0.0150942
0.0151242
0.0151585
0.0151971
0.0152411
0.0152904
0.0153459
0.0154076
0.0154766
0.0155528
0.0156375
0.0157306
0.0158338
0.0159472
0.016073
0.0162114
0.0163645
0.0165333
0.0167201
0.0169258
0.0171531
0.0174032
0.0176785
0.0179811
0.0183133
0.0186772
0.0190752
0.0195093
0.0199809
0.0204905
0.0210386
0.0216243
0.0222504
0.0229159
0.0236176
0.0243479
0.0250943
0.0258433
0.0265789
0.0272813
0.0279287
0.0284988
0.0289689
0.0293183
0.0295283
0.0295829
0.0294655
0.0291586
0.0286433
0.0278946
0.0268895
0.0256479
0.0242138
0.0226876
0.0211649
0.0197437
0.0192256
0.0191393
0.0149597
0.0149811
0.0150069
0.0150362
0.0150697
0.0151075
0.0151505
0.0151989
0.0152537
0.0153147
0.015383
0.0154585
0.0155424
0.0156348
0.0157373
0.0158499
0.015975
0.0161128
0.0162656
0.0164341
0.0166211
0.0168271
0.0170553
0.0173065
0.0175833
0.0178878
0.0182224
0.0185892
0.0189906
0.0194289
0.0199056
0.0204214
0.0209764
0.0215719
0.0222085
0.022887
0.0236045
0.0243542
0.0251245
0.0259029
0.0266744
0.0274199
0.0281182
0.0287467
0.0292818
0.0297011
0.0299831
0.0301086
0.0300578
0.0298106
0.0293474
0.0286431
0.0276761
0.0264666
0.0250601
0.0235588
0.0220584
0.0206587
0.020157
0.0200828
0.0148219
0.0148439
0.0148703
0.0149004
0.0149346
0.014973
0.0150166
0.0150654
0.0151205
0.0151817
0.0152503
0.0153259
0.0154101
0.0155027
0.0156054
0.0157185
0.0158441
0.0159824
0.0161359
0.0163053
0.0164932
0.0167003
0.0169299
0.0171828
0.0174618
0.0177689
0.0181066
0.0184771
0.018883
0.0193265
0.0198093
0.0203323
0.0208966
0.0215015
0.0221503
0.0228428
0.0235768
0.0243464
0.0251409
0.0259485
0.0267552
0.0275426
0.02829
0.0289746
0.0295723
0.0300592
0.0304114
0.030607
0.0306231
0.0304373
0.0300289
0.0293727
0.0284484
0.027276
0.0259016
0.0244289
0.0229534
0.021576
0.0210887
0.0210238
0.0146814
0.014703
0.0147286
0.0147576
0.0147905
0.0148275
0.0148696
0.014917
0.0149708
0.0150308
0.0150982
0.0151728
0.015256
0.0153478
0.0154496
0.0155619
0.0156869
0.0158249
0.0159783
0.0161479
0.0163366
0.016545
0.0167763
0.0170314
0.0173133
0.0176238
0.0179656
0.018341
0.0187525
0.0192026
0.0196931
0.0202252
0.0207991
0.0214169
0.0220791
0.0227873
0.0235395
0.0243305
0.0251501
0.0259876
0.0268297
0.0276588
0.0284543
0.0291938
0.0298528
0.0304058
0.0308272
0.0310922
0.0311756
0.0310522
0.0307006
0.0300951
0.0292162
0.0280834
0.0267434
0.0253007
0.0238506
0.0224938
0.022017
0.0219576
0.0144898
0.0145116
0.0145376
0.0145669
0.0146001
0.0146372
0.0146793
0.0147264
0.0147799
0.0148394
0.0149063
0.0149804
0.0150633
0.0151547
0.0152565
0.015369
0.0154944
0.0156331
0.0157874
0.0159584
0.0161487
0.0163591
0.0165929
0.0168511
0.0171366
0.0174516
0.0177986
0.0181801
0.0185987
0.019057
0.0195568
0.0200995
0.0206865
0.0213173
0.0219958
0.022722
0.0234947
0.0243093
0.0251564
0.0260258
0.0269052
0.0277773
0.0286221
0.0294173
0.0301377
0.030757
0.0312477
0.0315825
0.0317337
0.0316738
0.0313804
0.0308274
0.0299958
0.0289046
0.0276
0.0261873
0.0247614
0.0234222
0.0229511
0.0228931
0.0142804
0.0143017
0.0143268
0.014355
0.0143869
0.0144227
0.0144635
0.0145095
0.0145618
0.0146204
0.0146865
0.0147598
0.0148419
0.0149328
0.015034
0.015146
0.0152713
0.0154101
0.015565
0.015737
0.0159289
0.0161416
0.0163784
0.0166405
0.0169305
0.017251
0.0176044
0.0179934
0.0184205
0.0188886
0.0193997
0.0199552
0.020556
0.0212041
0.0219005
0.0226472
0.0234429
0.0242836
0.0251605
0.026064
0.0269824
0.0278991
0.0287944
0.029646
0.0304285
0.0311145
0.0316747
0.0320799
0.0322995
0.0323042
0.0320701
0.0315709
0.0307876
0.0297384
0.0284691
0.0270855
0.0256815
0.024356
0.0238852
0.0238241
0.0140051
0.0140268
0.0140526
0.0140815
0.0141142
0.0141507
0.0141922
0.0142387
0.0142916
0.0143506
0.0144171
0.0144909
0.0145737
0.0146652
0.0147674
0.0148806
0.0150073
0.0151479
0.0153048
0.0154792
0.015674
0.01589
0.0161309
0.0163977
0.0166933
0.0170204
0.0173815
0.0177793
0.0182165
0.0186961
0.0192202
0.0197904
0.0204087
0.0210744
0.0217921
0.0225619
0.0233833
0.0242531
0.0251628
0.0261033
0.0270637
0.0280277
0.0289758
0.029886
0.0307324
0.0314865
0.0321177
0.0325943
0.0328835
0.0329537
0.0327802
0.0323358
0.031602
0.0305954
0.0293611
0.0280048
0.0266199
0.0253034
0.0248274
0.0247588
0.0137233
0.0137443
0.013769
0.0137965
0.0138275
0.0138622
0.0139019
0.0139468
0.0139982
0.014056
0.0141214
0.0141944
0.0142764
0.0143675
0.0144694
0.0145826
0.0147097
0.0148511
0.0150094
0.0151859
0.0153835
0.0156032
0.0158487
0.0161211
0.0164234
0.0167582
0.0171282
0.0175363
0.0179853
0.0184781
0.0190172
0.0196044
0.0202407
0.0209287
0.0216693
0.0224648
0.0233149
0.0242164
0.0251615
0.0261416
0.0271465
0.02816
0.029163
0.0301336
0.0310454
0.0318692
0.0325726
0.0331219
0.0334819
0.0336188
0.0335068
0.0331184
0.0324345
0.0314702
0.03027
0.028939
0.02757
0.0262575
0.0257707
0.0256902
0.0133757
0.0133969
0.0134219
0.0134497
0.0134811
0.0135161
0.0135559
0.0136007
0.013652
0.0137096
0.0137749
0.0138479
0.0139302
0.0140218
0.0141246
0.014239
0.0143679
0.0145116
0.0146727
0.0148525
0.0150543
0.0152787
0.0155299
0.0158089
0.0161189
0.0164627
0.016843
0.0172628
0.0177251
0.0182329
0.0187889
0.0193947
0.0200531
0.0207633
0.0215303
0.0223542
0.0232355
0.0241719
0.0251555
0.0261785
0.027231
0.0282973
0.0293583
0.030392
0.0313719
0.0322677
0.0330454
0.0336691
0.0341014
0.0343063
0.0342572
0.0339256
0.0332928
0.0323714
0.0312043
0.0298964
0.0285397
0.0272263
0.0267229
0.0266264
0.0130018
0.0130223
0.0130462
0.0130728
0.0131028
0.0131364
0.0131749
0.0132187
0.0132691
0.0133263
0.0133912
0.0134641
0.0135464
0.0136383
0.0137416
0.0138569
0.0139871
0.0141326
0.0142962
0.0144794
0.0146854
0.0149151
0.0151727
0.0154593
0.0157781
0.0161322
0.0165241
0.0169572
0.0174344
0.017959
0.0185337
0.0191606
0.0198414
0.0205785
0.0213733
0.0222283
0.0231436
0.0241174
0.0251423
0.0262107
0.0273135
0.028435
0.0295564
0.0306556
0.0317058
0.0326756
0.0335296
0.0342296
0.0347359
0.0350104
0.0350253
0.0347518
0.0341704
0.0332915
0.0321565
0.0308694
0.0295214
0.028202
0.0276764
0.0275598
0.0125458
0.0125667
0.0125915
0.0126191
0.0126503
0.0126851
0.0127249
0.0127699
0.0128216
0.0128799
0.0129463
0.0130206
0.0131048
0.0131987
0.0133044
0.0134225
0.0135561
0.0137054
0.0138734
0.0140617
0.0142735
0.0145099
0.0147751
0.0150706
0.0153995
0.015765
0.01617
0.0166179
0.0171116
0.0176547
0.01825
0.0188996
0.0196066
0.0203705
0.0211964
0.0220848
0.0230367
0.0240509
0.02512
0.0262372
0.0273936
0.0285738
0.0297589
0.0309269
0.0320505
0.0330972
0.03403
0.0348088
0.035391
0.0357368
0.035817
0.035603
0.0350745
0.0342388
0.0331351
0.0318664
0.0305233
0.0291926
0.028639
0.0284985
0.0120778
0.0120979
0.0121214
0.0121475
0.012177
0.01221
0.0122481
0.0122917
0.0123424
0.0124001
0.0124662
0.0125407
0.0126252
0.01272
0.012827
0.0129469
0.0130828
0.0132352
0.0134072
0.0136004
0.0138183
0.0140619
0.0143358
0.0146412
0.0149814
0.0153598
0.0157793
0.0162435
0.0167555
0.0173187
0.0179365
0.018611
0.0193444
0.0201394
0.0209977
0.021922
0.022913
0.0239699
0.025086
0.0262544
0.027467
0.0287086
0.0299601
0.0311996
0.0323992
0.0335254
0.0345397
0.0353995
0.0360598
0.0364789
0.0366259
0.0364724
0.0359977
0.0352051
0.0341317
0.032879
0.0315371
0.0301899
0.029603
0.0294344
0.011529
0.0115493
0.0115734
0.0116002
0.0116304
0.0116643
0.0117032
0.0117474
0.0117988
0.0118573
0.0119245
0.0120002
0.0120866
0.0121835
0.0122934
0.0124167
0.0125568
0.0127142
0.0128919
0.0130917
0.0133173
0.0135695
0.0138533
0.0141698
0.0145227
0.0149154
0.0153509
0.0158329
0.0163646
0.0169498
0.0175915
0.0182924
0.0190559
0.0198816
0.0207753
0.0217375
0.02277
0.0238725
0.0250384
0.0262614
0.0275337
0.0288401
0.0301616
0.0314761
0.0327552
0.0339644
0.0350632
0.036007
0.036748
0.0372425
0.0374581
0.0373667
0.0369474
0.0361988
0.0351549
0.0339158
0.0325711
0.0312018
0.0305758
0.0303757
0.0109458
0.0109652
0.0109882
0.0110139
0.011043
0.0110759
0.011114
0.0111581
0.0112095
0.0112687
0.0113368
0.0114141
0.0115022
0.0116015
0.0117139
0.0118405
0.0119846
0.0121467
0.0123302
0.0125369
0.0127705
0.0130322
0.0133268
0.0136558
0.0140226
0.0144309
0.0148838
0.0153851
0.0159381
0.0165466
0.0172142
0.0179433
0.0187366
0.0195973
0.0205272
0.0215296
0.0226058
0.0237563
0.0249745
0.0262546
0.0275893
0.0289633
0.0303578
0.0317504
0.0331121
0.0344072
0.0355936
0.0366244
0.0374489
0.0380213
0.038307
0.0382792
0.0379159
0.0372114
0.0361962
0.0349681
0.0336168
0.0322202
0.0315499
0.031314
0.0102661
0.0102861
0.0103104
0.0103378
0.0103689
0.010404
0.0104446
0.0104911
0.0105454
0.0106074
0.0106789
0.0107596
0.0108519
0.0109556
0.0110733
0.0112055
0.0113561
0.0115254
0.0117168
0.0119324
0.012176
0.0124487
0.0127557
0.0130984
0.0134804
0.0139058
0.0143774
0.0148994
0.0154751
0.0161085
0.0168031
0.0175617
0.0183883
0.0192828
0.0202519
0.0212964
0.0224186
0.0236196
0.0248931
0.0262336
0.0276342
0.0290796
0.0305509
0.0320254
0.0334736
0.0348585
0.0361363
0.0372576
0.0381686
0.0388217
0.0391799
0.0392176
0.0389118
0.0382522
0.0372647
0.0360451
0.0346827
0.0332531
0.0325326
0.0322575
0.00957482
0.00959397
0.00961698
0.00964299
0.00967272
0.00970655
0.00974619
0.00979227
0.00984669
0.00990959
0.00998244
0.0100653
0.0101601
0.0102672
0.0103887
0.0105256
0.0106817
0.0108576
0.0110568
0.0112813
0.0115352
0.0118196
0.0121399
0.0124975
0.012896
0.0133397
0.0138314
0.0143754
0.0149752
0.0156348
0.0163579
0.0171474
0.0180067
0.0189393
0.0199479
0.0210364
0.0222068
0.0234607
0.0247919
0.0261954
0.0276646
0.0291845
0.0307356
0.0322954
0.0338336
0.0353118
0.0366845
0.0378997
0.0389008
0.0396375
0.0400704
0.0401748
0.0399273
0.0393125
0.0383515
0.0371375
0.0357601
0.0342921
0.0335161
0.0331978
0.00879584
0.00881531
0.00883927
0.00886664
0.008898
0.00893364
0.00897525
0.00902335
0.00908012
0.00914553
0.00922145
0.00930776
0.00940693
0.00951876
0.00964611
0.0097896
0.00995341
0.0101378
0.0103466
0.0105818
0.0108476
0.0111451
0.01148
0.0118537
0.0122699
0.012733
0.013246
0.0138132
0.0144382
0.0151251
0.0158777
0.0166991
0.0175942
0.0185633
0.0196142
0.0207484
0.0219691
0.0232786
0.0246705
0.0261403
0.0276818
0.0292798
0.0309149
0.0325642
0.0341966
0.0357725
0.0372442
0.0385576
0.0396525
0.0404763
0.0409866
0.0411599
0.0409719
0.0404021
0.0394663
0.0382549
0.0368578
0.0353452
0.0345079
0.0341428
0.00798652
0.00800504
0.00802807
0.0080547
0.00808547
0.00812087
0.00816269
0.00821178
0.00827013
0.00833801
0.0084169
0.00850699
0.00861029
0.00872717
0.00885995
0.00900981
0.00918076
0.00937348
0.00959164
0.0098376
0.0101157
0.0104269
0.0107772
0.0111679
0.0116028
0.0120864
0.0126217
0.0132132
0.0138645
0.0145796
0.0153628
0.0162174
0.0171473
0.0181571
0.0192505
0.0204323
0.0217053
0.0230723
0.0245273
0.0260659
0.0276824
0.0293617
0.0310841
0.0328264
0.0345568
0.0362343
0.0378092
0.0392246
0.0404173
0.0413318
0.0419222
0.0421662
0.0420378
0.0415122
0.0405998
0.0393878
0.0379665
0.0364041
0.0355001
0.0350842
0.00707929
0.00709871
0.00712364
0.00715274
0.00718664
0.00722552
0.00727134
0.00732452
0.00738758
0.00746028
0.0075448
0.00764075
0.00775098
0.00787502
0.00801611
0.00817478
0.00835573
0.00855912
0.00878901
0.00904766
0.00933969
0.00966596
0.0100328
0.0104416
0.0108961
0.0114012
0.0119597
0.0125764
0.0132546
0.013999
0.0148135
0.0157019
0.0166699
0.0177185
0.0188571
0.0200878
0.0214149
0.0228418
0.0243626
0.0259732
0.0276684
0.0294328
0.0312467
0.0330866
0.0349196
0.0367034
0.0383861
0.0399082
0.0412031
0.0422124
0.0428864
0.0432035
0.0431355
0.0426537
0.0417624
0.0405462
0.0390956
0.0374767
0.0365002
0.03603
0.00617708
0.00619558
0.00621935
0.00624732
0.0062802
0.00631837
0.00636397
0.00641779
0.00648222
0.00655734
0.00664495
0.00674499
0.00685988
0.00698968
0.00713713
0.00730325
0.00749261
0.00770568
0.00794652
0.00821758
0.00852358
0.0088653
0.00924935
0.00967688
0.0101518
0.0106791
0.0112616
0.011904
0.0126101
0.0133842
0.0142311
0.0151544
0.0161592
0.0172507
0.0184342
0.0197154
0.0210981
0.0225867
0.0241753
0.0258602
0.0276367
0.0294895
0.0313983
0.0333395
0.0352793
0.0371735
0.0389684
0.0406017
0.0420032
0.0431113
0.0438724
0.0442642
0.0442563
0.0438169
0.0429443
0.0417201
0.0402354
0.0385545
0.0375003
0.0369718
0.00519355
0.00521248
0.00523753
0.00526739
0.00530254
0.00534333
0.00539184
0.00544879
0.00551685
0.005596
0.00568843
0.00579393
0.00591542
0.00605252
0.00620854
0.00638416
0.00658434
0.00680922
0.007063
0.00734814
0.00766946
0.00802772
0.00842975
0.00887672
0.0093726
0.00992253
0.0105293
0.011198
0.0119323
0.0127369
0.0136164
0.014575
0.0156196
0.0167515
0.0179824
0.019315
0.020755
0.0223074
0.0239663
0.0257286
0.0275899
0.0295349
0.0315431
0.0335902
0.0356417
0.0376515
0.0395637
0.041313
0.0428259
0.0440374
0.0448894
0.0453588
0.0454115
0.045013
0.0441562
0.0429196
0.0413952
0.0396456
0.0385077
0.0379176
0.00418425
0.00420207
0.00422634
0.00425589
0.0042913
0.00433313
0.00438359
0.00444369
0.00451588
0.00460036
0.00469881
0.0048113
0.00494019
0.0050856
0.00525029
0.00543547
0.00564595
0.00588221
0.00614841
0.00644727
0.0067837
0.00715838
0.00757839
0.00804482
0.00856164
0.00913424
0.00976539
0.0104603
0.0112229
0.0120579
0.0129705
0.0139649
0.0150472
0.0162237
0.0175013
0.0188868
0.0203854
0.022003
0.0237341
0.0255759
0.0275247
0.0295651
0.0316762
0.0338334
0.0360008
0.0381308
0.0401649
0.0420349
0.043664
0.0449832
0.0459297
0.0464784
0.0465914
0.0462318
0.0453877
0.0441346
0.0425653
0.0407412
0.0395148
0.0388593
0.00305443
0.00307553
0.00310615
0.0031441
0.00318954
0.00324203
0.0033038
0.00337482
0.00345822
0.00355331
0.00366272
0.00378554
0.00392536
0.00408143
0.00425757
0.0044543
0.00467725
0.00492635
0.00520622
0.00551945
0.00587126
0.00626226
0.00669989
0.00718522
0.00772235
0.00831692
0.00897174
0.00969233
0.0104825
0.0113476
0.0122928
0.0133227
0.0144456
0.0156637
0.0169906
0.01843
0.0199887
0.0216735
0.0234793
0.0254036
0.0274436
0.0295835
0.0318022
0.0340744
0.0363631
0.0386186
0.0407799
0.0427759
0.044526
0.0459577
0.0470027
0.0476336
0.0478073
0.0474849
0.0466498
0.0453751
0.043755
0.0418495
0.0405286
0.0398048
0.00216353
0.00217882
0.00220081
0.0022284
0.00226218
0.00230329
0.00235388
0.00241539
0.00249032
0.00257919
0.00268359
0.00280378
0.00294219
0.00309893
0.00327704
0.00347776
0.00370631
0.00396294
0.00425196
0.00457613
0.00494054
0.00534564
0.00579902
0.00630162
0.00685752
0.00747265
0.00814977
0.00889472
0.00971156
0.0106058
0.0115833
0.0126488
0.0138099
0.0150739
0.0164491
0.0179436
0.0195637
0.0213174
0.0231995
0.0252087
0.0273427
0.0295856
0.0319158
0.0343073
0.0367218
0.0391077
0.0414013
0.0435281
0.045404
0.0469523
0.0480997
0.0488142
0.0490484
0.048761
0.0479316
0.0466308
0.0449544
0.0429618
0.0415419
0.0407462
0.000995009
0.00101605
0.00104825
0.00108889
0.00113759
0.00119376
0.00125956
0.00133502
0.00142333
0.00152403
0.00163974
0.00176977
0.00191785
0.00208352
0.00227072
0.00248032
0.00271819
0.00298435
0.0032834
0.00361829
0.00399425
0.00441188
0.00487903
0.00539676
0.00596923
0.00660276
0.00730021
0.00806775
0.00890972
0.00983203
0.0108407
0.0119411
0.0131428
0.0144489
0.015875
0.0174255
0.0191087
0.0209333
0.0228948
0.0249923
0.0272242
0.0295747
0.0320214
0.0345377
0.0370837
0.0396057
0.042037
0.0443001
0.0463068
0.0479764
0.0492295
0.0500308
0.0503259
0.0500715
0.0492439
0.0479116
0.0461725
0.0440857
0.0425613
0.0416913
0.000148306
0.000163281
0.000185246
0.000212882
0.000246838
0.000288304
0.000339617
0.000402314
0.000479071
0.000570489
0.00067817
0.000802462
0.000945862
0.00110867
0.00129401
0.00150342
0.00174237
0.00201126
0.00231442
0.00265502
0.00303824
0.00346462
0.00394218
0.00447197
0.00505816
0.00570745
0.00642277
0.00721075
0.008076
0.00902464
0.0100636
0.0111982
0.0124373
0.0137898
0.0152655
0.0168734
0.0186212
0.0205187
0.0225618
0.0247503
0.0270836
0.0295454
0.0321129
0.0347588
0.0374413
0.0401046
0.042679
0.0450833
0.0472254
0.0490204
0.0503828
0.051272
0.0516278
0.0514046
0.0505753
0.049207
0.0473996
0.0452131
0.0435799
0.0426325
-0.00097387
-0.000951381
-0.000918066
-0.000876938
-0.000828254
-0.000772638
-0.000707652
-0.000633206
-0.000545808
-0.000445849
-0.000330628
-0.000200723
-5.2302e-05
0.000114436
0.000303474
0.00051612
0.000758404
0.00103068
0.00133748
0.00168235
0.00207057
0.00250296
0.00298783
0.00352649
0.00412322
0.00478526
0.00551566
0.00632154
0.00720772
0.00818101
0.00924833
0.010416
0.0116949
0.0130896
0.0146176
0.0162842
0.0180985
0.0200717
0.0221997
0.0244832
0.0269225
0.0295009
0.0321949
0.0349762
0.0378014
0.0406121
0.0433354
0.0458865
0.0481689
0.0500936
0.0515686
0.0525485
0.0529657
0.0527718
0.0519367
0.0505267
0.0486445
0.0463513
0.0446042
0.0435773
-0.00174074
-0.00172343
-0.0017004
-0.00167332
-0.00164139
-0.00160341
-0.00155674
-0.0014996
-0.00142901
-0.0013441
-0.00124322
-0.00112568
-0.000988902
-0.000832169
-0.000652335
-0.000447287
-0.000211397
5.61636e-05
0.000359626
0.000702864
0.00109106
0.00152507
0.00201335
0.00255731
0.00316123
0.00383291
0.00457549
0.00539659
0.00630151
0.00729734
0.00839206
0.00959195
0.0109076
0.012349
0.0139281
0.0156547
0.0175375
0.0195886
0.0218044
0.0241864
0.0267356
0.029435
0.0322604
0.0351824
0.0381559
0.0411196
0.0439972
0.0467003
0.0491276
0.0511858
0.0527766
0.0538481
0.0543267
0.0541605
0.0533165
0.0518601
0.0498976
0.0474924
0.0456276
0.0445184
-0.00278053
-0.00275714
-0.00272666
-0.00269171
-0.00265195
-0.00260732
-0.00255479
-0.00249354
-0.00241965
-0.00233297
-0.00223081
-0.0021134
-0.00197696
-0.00182138
-0.00164283
-0.00143956
-0.00120555
-0.000940034
-0.000638677
-0.000297177
8.97595e-05
0.000523381
0.0010125
0.00155891
0.00216711
0.00284554
0.0035976
0.00443153
0.00535304
0.00636991
0.00749025
0.00872143
0.0100761
0.01156
0.013193
0.0149811
0.0169347
0.0190671
0.0213748
0.02386
0.0265245
0.0293509
0.0323139
0.0353832
0.0385115
0.0416347
0.044673
0.0475337
0.0501108
0.0523067
0.0540159
0.0551819
0.0557226
0.0555823
0.0547253
0.0532168
0.0511671
0.0486433
0.046656
0.0454628
-0.00372279
-0.00369728
-0.0036666
-0.00363311
-0.00359569
-0.00355393
-0.00350469
-0.00344676
-0.00337658
-0.00329374
-0.00319627
-0.00308373
-0.00295325
-0.00280405
-0.00263276
-0.00243685
-0.00221032
-0.00195187
-0.00165716
-0.00132142
-0.000939217
-0.000509135
-2.20173e-05
0.000524191
0.00113411
0.00181689
0.00257618
0.0034209
0.00435727
0.00539342
0.00653873
0.00780051
0.00919107
0.0107222
0.0124082
0.0142596
0.0162866
0.0185032
0.0209063
0.0234987
0.026283
0.0292415
0.0323477
0.0355701
0.0388592
0.0421481
0.0453528
0.0483764
0.0511081
0.0534453
0.055276
0.0565372
0.0571398
0.0570241
0.0561512
0.054586
0.052444
0.0497965
0.0476834
0.0464036
-0.00473184
-0.00470375
-0.00467107
-0.00463626
-0.00459862
-0.00455789
-0.00451073
-0.00445592
-0.00438928
-0.00431049
-0.00421699
-0.0041089
-0.00398262
-0.00383781
-0.00367092
-0.0034797
-0.00325812
-0.0030049
-0.00271582
-0.00238558
-0.00200873
-0.00158332
-0.00109983
-0.000555669
5.40272e-05
0.000739256
0.00150396
0.00235781
0.00330745
0.00436194
0.00553085
0.0068227
0.00825227
0.00982702
0.0115694
0.0134864
0.0155895
0.0178942
0.0203974
0.0231026
0.0260129
0.02911
0.0323663
0.035749
0.0392062
0.0426677
0.0460454
0.0492379
0.0521288
0.0546113
0.0565662
0.0579254
0.0585908
0.0584979
0.0576049
0.055977
0.0537361
0.0509586
0.0487155
0.0473475
-0.00574662
-0.00571693
-0.00568308
-0.00564778
-0.00561033
-0.00557029
-0.00552468
-0.0054719
-0.00540841
-0.00533347
-0.00524543
-0.00514347
-0.005025
-0.00488878
-0.00473173
-0.00455064
-0.00433954
-0.00409648
-0.00381729
-0.00349613
-0.00312743
-0.00270905
-0.00223108
-0.00169063
-0.00108268
-0.000396374
0.000372449
0.00123426
0.00219636
0.00326833
0.00446113
0.00578336
0.00724983
0.00887391
0.0106724
0.0126574
0.0148398
0.0172361
0.0198435
0.022666
0.0257075
0.0289489
0.0323615
0.0359108
0.0395426
0.0431834
0.0467402
0.0501073
0.0531622
0.0557937
0.0578758
0.0593335
0.0600616
0.0599905
0.0590746
0.0573795
0.0550345
0.0521225
0.0497464
0.0482881
-0.00684958
-0.0068191
-0.00678469
-0.00674912
-0.00671215
-0.00667356
-0.00663018
-0.00658057
-0.00652056
-0.00644968
-0.00636567
-0.00626846
-0.00615468
-0.00602365
-0.00587204
-0.00569703
-0.00549252
-0.00525661
-0.00498517
-0.00467179
-0.00431084
-0.00389958
-0.0034277
-0.0028917
-0.0022863
-0.00159973
-0.000827419
4.19352e-05
0.00101624
0.00210602
0.00332257
0.00467597
0.00618334
0.00785363
0.00971277
0.0117684
0.0140336
0.0165262
0.0192432
0.0221892
0.0253686
0.0287615
0.0323379
0.0360617
0.0398759
0.0437032
0.0474464
0.0509938
0.054218
0.0570018
0.0592136
0.060773
0.0615647
0.0615134
0.0605702
0.0588022
0.0563468
0.0532945
0.0507819
0.0492316
-0.00794481
-0.0079152
-0.00788279
-0.0078504
-0.00781753
-0.00778369
-0.00774591
-0.00770231
-0.00764929
-0.00758588
-0.00751076
-0.00742281
-0.00731976
-0.00719993
-0.00706062
-0.00689794
-0.006706
-0.00648214
-0.00622242
-0.00591983
-0.00556867
-0.00516596
-0.00470103
-0.00417001
-0.00356747
-0.00288072
-0.00210486
-0.0012277
-0.000240634
0.000867381
0.00210924
0.00349506
0.00504192
0.00676556
0.00868556
0.0108153
0.0131673
0.0157603
0.0185916
0.0216661
0.0249892
0.0285399
0.0322867
0.0361918
0.0401955
0.0442165
0.0481525
0.0518866
0.0552845
0.0582248
0.0605692
0.0622308
0.063086
0.0630535
0.0620804
0.0602349
0.0576645
0.0544679
0.0518162
0.0501722
-0.0091406