/*--------------------------------*- C++ -*----------------------------------*\
  =========                 |
  \\      /  F ield         | OpenFOAM: The Open Source CFD Toolbox
   \\    /   O peration     | Website:  https://openfoam.org
    \\  /    A nd           | Version:  6.0
     \\/     M anipulation  |
\*---------------------------------------------------------------------------*/
FoamFile
{
    version     2.0;
    format      ascii;
    class       volVectorField;
    location    "18";
    object      U;
}
// * * * * * * * * * * * * * * * * * * * * * * * * * * * * * * * * * * * * * //

dimensions      [0 1 -1 0 0 0 0];

internalField   nonuniform List<vector> 
62000
(
(0.965788 0.2587 -2.36024e-21)
(0.965786 0.258717 1.9926e-21)
(0.965785 0.258742 2.06113e-21)
(0.965788 0.25876 -9.15573e-21)
(0.965793 0.258776 -1.05904e-20)
(0.9658 0.258789 3.72085e-20)
(0.96581 0.2588 -4.15405e-20)
(0.965821 0.258809 2.45486e-20)
(0.965832 0.258817 -1.16952e-20)
(0.965843 0.258826 -6.08529e-20)
(0.965853 0.258835 -8.01256e-21)
(0.965862 0.258844 8.83341e-20)
(0.965868 0.258854 1.84354e-20)
(0.965872 0.258866 -6.57094e-20)
(0.965874 0.258878 1.04766e-19)
(0.965874 0.258892 -5.67086e-20)
(0.965873 0.258906 6.03391e-20)
(0.96587 0.258921 -7.19937e-20)
(0.965866 0.258937 3.64809e-20)
(0.965861 0.258954 -1.15421e-19)
(0.965856 0.258972 1.53932e-19)
(0.965851 0.258991 4.73928e-20)
(0.965846 0.259012 7.02622e-20)
(0.965841 0.259033 -3.21041e-19)
(0.965836 0.259056 1.20156e-19)
(0.965832 0.259081 -7.74833e-20)
(0.965826 0.259105 -2.06122e-21)
(0.965823 0.25913 -6.71818e-20)
(0.965818 0.259152 2.09171e-19)
(0.965817 0.259171 -1.21986e-19)
(0.965814 0.259182 3.00729e-19)
(0.965814 0.259198 -6.38422e-19)
(0.965811 0.259223 5.89581e-20)
(0.965802 0.259271 -2.36244e-19)
(0.96579 0.259317 -8.14163e-20)
(0.96578 0.259342 -2.63935e-19)
(0.965773 0.259346 -9.18091e-20)
(0.965766 0.259339 -1.01264e-19)
(0.965755 0.25933 2.7245e-19)
(0.965736 0.259322 1.34104e-18)
(0.965706 0.259315 -3.33005e-19)
(0.96566 0.25931 -1.98998e-18)
(0.965591 0.259305 -3.29506e-18)
(0.965492 0.259293 1.87348e-18)
(0.965355 0.259261 5.6376e-19)
(0.965169 0.259191 -2.9578e-18)
(0.964932 0.259047 7.89515e-19)
(0.964634 0.258796 -1.34245e-18)
(0.964274 0.25839 -6.7222e-18)
(0.963864 0.257784 -1.59396e-18)
(0.963397 0.256958 -8.60686e-19)
(0.962938 0.255841 -1.18554e-17)
(0.962495 0.254529 1.39372e-18)
(0.962026 0.252955 1.37052e-17)
(0.961611 0.25107 3.65451e-18)
(0.961239 0.248633 1.2111e-17)
(0.9611 0.245434 -1.50363e-18)
(0.961069 0.241117 -2.54467e-18)
(0.961424 0.232844 5.38171e-18)
(0.942339 0.212913 1.08463e-18)
(0.96591 0.259956 -6.22774e-22)
(0.965895 0.259933 6.0186e-21)
(0.965876 0.259936 2.50179e-21)
(0.965852 0.259934 -1.09757e-20)
(0.965828 0.259929 4.61464e-21)
(0.965807 0.259923 -3.22874e-20)
(0.96579 0.259913 3.00532e-20)
(0.965778 0.2599 1.76727e-20)
(0.965774 0.259883 -3.36267e-20)
(0.965776 0.259862 1.4552e-21)
(0.965784 0.259837 3.38259e-20)
(0.965797 0.259809 1.49429e-22)
(0.965813 0.259778 1.02204e-20)
(0.96583 0.259746 -8.8906e-20)
(0.965847 0.259713 1.82615e-19)
(0.965863 0.259681 -1.64846e-19)
(0.965877 0.25965 7.92804e-20)
(0.965887 0.259623 -1.68872e-20)
(0.965895 0.259599 -4.79856e-20)
(0.965899 0.259579 1.36122e-19)
(0.965901 0.259565 -2.19887e-19)
(0.9659 0.259557 1.31007e-19)
(0.965896 0.259556 -1.71911e-19)
(0.96589 0.259562 1.04068e-19)
(0.965881 0.259576 1.00469e-19)
(0.96587 0.259597 -6.75871e-20)
(0.965856 0.259625 -1.68583e-21)
(0.965842 0.25966 7.82421e-20)
(0.965823 0.259698 6.87368e-20)
(0.965807 0.259738 -1.50097e-19)
(0.965789 0.25978 3.11076e-19)
(0.965776 0.259834 6.85259e-20)
(0.965755 0.259923 2.15781e-19)
(0.965718 0.260049 2.06777e-20)
(0.965666 0.260186 7.01329e-20)
(0.965609 0.260306 -7.38909e-20)
(0.965552 0.260403 -2.48472e-19)
(0.965495 0.26049 -1.18159e-19)
(0.96543 0.26058 -7.36923e-19)
(0.965349 0.260675 -8.86444e-19)
(0.965245 0.26077 7.02881e-19)
(0.965112 0.260855 4.34287e-19)
(0.964939 0.260914 3.43366e-18)
(0.964717 0.260923 2.14343e-19)
(0.964438 0.260843 -5.79499e-18)
(0.964088 0.260632 2.43201e-18)
(0.963665 0.260229 2.17906e-18)
(0.963161 0.259585 2.67734e-18)
(0.962572 0.258649 6.37689e-19)
(0.961909 0.257377 1.27347e-19)
(0.961157 0.25575 5.23157e-18)
(0.960411 0.253686 1.4711e-17)
(0.959672 0.251294 -1.00429e-17)
(0.958906 0.248502 -2.45148e-17)
(0.958221 0.245142 -5.88938e-18)
(0.957663 0.241039 -3.99301e-18)
(0.95748 0.235672 -9.3126e-18)
(0.957096 0.229 -4.62263e-18)
(0.957974 0.216508 7.40524e-18)
(0.931893 0.190314 2.94423e-18)
(0.965907 0.261189 -3.01175e-21)
(0.965938 0.261149 -4.15899e-22)
(0.965957 0.26113 4.90682e-22)
(0.965962 0.261115 2.20436e-21)
(0.965952 0.261101 6.28551e-21)
(0.96593 0.26109 -6.05123e-21)
(0.965898 0.261082 3.26273e-20)
(0.965862 0.261073 -1.58341e-20)
(0.965826 0.261066 -8.63152e-21)
(0.965793 0.261056 -5.37869e-20)
(0.965767 0.261044 4.61322e-20)
(0.96575 0.261027 3.45827e-21)
(0.965742 0.261006 -1.09802e-20)
(0.965743 0.260979 2.97341e-20)
(0.965753 0.260948 -5.19406e-20)
(0.965769 0.26091 2.0681e-22)
(0.965789 0.260869 -2.51376e-20)
(0.965812 0.260825 1.76091e-22)
(0.965836 0.260779 6.08835e-20)
(0.965858 0.260733 -9.53859e-20)
(0.965877 0.260691 6.07061e-20)
(0.965893 0.260653 2.45496e-19)
(0.965904 0.260623 -3.11226e-20)
(0.965909 0.2606 -3.60077e-19)
(0.965909 0.260587 1.89569e-19)
(0.965902 0.260585 -1.07613e-19)
(0.965889 0.260593 1.79708e-19)
(0.965869 0.26061 -1.10784e-19)
(0.965845 0.260636 -2.3205e-19)
(0.965816 0.260668 2.56279e-19)
(0.965789 0.260709 -1.87825e-19)
(0.965762 0.26077 2.62502e-19)
(0.965727 0.260876 -7.58033e-19)
(0.965668 0.261025 7.05873e-19)
(0.965585 0.261193 -3.93643e-19)
(0.965488 0.261351 1.6498e-19)
(0.965389 0.261495 1.2942e-19)
(0.965291 0.261636 -2.10583e-20)
(0.965187 0.261782 -5.4418e-20)
(0.965068 0.261929 8.97467e-19)
(0.964929 0.262069 -3.7366e-19)
(0.964764 0.262183 5.99251e-19)
(0.964568 0.262249 -2.20985e-18)
(0.964336 0.262233 -1.13401e-18)
(0.964065 0.262092 1.30728e-18)
(0.963747 0.261782 -4.60292e-18)
(0.963387 0.261253 6.6073e-19)
(0.962974 0.260474 -4.46475e-18)
(0.962506 0.259416 6.58323e-18)
(0.961979 0.258068 1.80284e-18)
(0.961374 0.256409 9.29692e-19)
(0.96078 0.254375 -3.3187e-19)
(0.960188 0.252044 4.25114e-18)
(0.95959 0.249392 6.97078e-19)
(0.959073 0.246221 -8.65866e-18)
(0.958679 0.242579 -4.85937e-18)
(0.95867 0.237983 -3.39457e-18)
(0.957841 0.232808 -1.0796e-17)
(0.95923 0.224125 -9.0733e-19)
(0.936999 0.209286 9.7763e-19)
(0.965611 0.262234 -3.03692e-21)
(0.965661 0.262189 9.3706e-21)
(0.965721 0.262158 -1.4688e-21)
(0.965782 0.262125 -9.79975e-21)
(0.965837 0.262094 1.48827e-20)
(0.965877 0.262066 2.58191e-20)
(0.965901 0.262044 -3.41726e-20)
(0.965906 0.262026 3.73181e-21)
(0.965896 0.262016 1.20388e-20)
(0.965872 0.26201 2.53331e-20)
(0.96584 0.26201 -4.7593e-20)
(0.965806 0.262012 -1.48256e-20)
(0.965773 0.262017 -1.68068e-20)
(0.965745 0.26202 7.79564e-20)
(0.965725 0.262022 -5.28499e-20)
(0.965715 0.26202 1.25657e-19)
(0.965714 0.262014 -1.55001e-19)
(0.965722 0.262002 -2.33667e-20)
(0.965737 0.261985 1.70127e-19)
(0.965756 0.261963 -6.03267e-20)
(0.965777 0.261938 -2.25644e-20)
(0.965798 0.261912 -2.48597e-20)
(0.965817 0.261887 -2.32942e-19)
(0.965831 0.261865 1.35466e-19)
(0.965839 0.261848 -6.5018e-20)
(0.965839 0.261838 1.05456e-19)
(0.965831 0.261836 5.08122e-20)
(0.965814 0.261842 2.62688e-19)
(0.965789 0.261853 -1.67567e-19)
(0.965758 0.26187 -2.29516e-19)
(0.965727 0.261896 3.75585e-19)
(0.965692 0.261943 -3.16297e-19)
(0.965646 0.262039 6.1103e-19)
(0.965574 0.262181 -3.91057e-19)
(0.965471 0.262344 1.61773e-19)
(0.965351 0.262499 2.97369e-19)
(0.965226 0.26264 -1.37197e-19)
(0.965101 0.262781 1.86048e-19)
(0.964972 0.26292 -8.4673e-20)
(0.964832 0.263051 2.82344e-19)
(0.964676 0.263164 -7.98198e-19)
(0.964502 0.263236 2.27073e-19)
(0.964307 0.263242 5.13936e-19)
(0.964088 0.263149 1.29967e-18)
(0.963845 0.262917 1.80765e-18)
(0.963576 0.262508 4.71515e-19)
(0.963282 0.261885 3.07191e-18)
(0.962954 0.261033 3.5253e-18)
(0.962585 0.259937 4.24438e-18)
(0.962161 0.258595 -3.20816e-18)
(0.961663 0.256969 -4.63372e-18)
(0.961173 0.254989 3.00901e-18)
(0.960676 0.252698 4.01568e-18)
(0.960163 0.250082 1.05132e-17)
(0.959709 0.246907 6.77694e-18)
(0.959332 0.243327 1.0392e-17)
(0.959393 0.238951 1.86119e-17)
(0.958151 0.234263 -8.64052e-19)
(0.959987 0.227739 -9.48156e-18)
(0.940503 0.217687 -6.84379e-18)
(0.965509 0.263137 5.8795e-21)
(0.965459 0.263108 -1.99881e-21)
(0.965449 0.263088 3.32142e-21)
(0.965473 0.263062 -4.76924e-21)
(0.965524 0.263029 1.0708e-20)
(0.96559 0.262994 -5.38929e-21)
(0.965662 0.262959 2.87364e-21)
(0.965728 0.262926 -4.35462e-20)
(0.965783 0.2629 3.68718e-20)
(0.96582 0.262881 -7.41851e-20)
(0.96584 0.262872 8.26502e-20)
(0.965843 0.262872 -1.01176e-20)
(0.965833 0.262882 -2.25166e-20)
(0.965813 0.262899 -1.04073e-20)
(0.965789 0.262923 -2.2888e-21)
(0.965765 0.26295 -1.08663e-19)
(0.965744 0.262978 4.7734e-21)
(0.965729 0.263006 1.21905e-19)
(0.96572 0.26303 -4.03999e-20)
(0.965717 0.263051 -4.35474e-20)
(0.96572 0.263067 7.41693e-20)
(0.965726 0.263079 -3.80375e-20)
(0.965733 0.263087 1.62374e-19)
(0.965739 0.263093 9.25362e-20)
(0.965741 0.263099 7.36803e-20)
(0.965737 0.263106 -2.2724e-19)
(0.965726 0.263114 -3.29666e-20)
(0.965706 0.263124 -1.90839e-19)
(0.965678 0.263133 3.56587e-20)
(0.965644 0.263142 -7.01162e-20)
(0.965609 0.263155 -2.84636e-20)
(0.965566 0.263187 2.37492e-19)
(0.965512 0.263265 -6.0913e-19)
(0.965429 0.263388 -2.81203e-20)
(0.965315 0.263532 -3.41273e-19)
(0.965182 0.263662 -1.73518e-19)
(0.965043 0.263773 5.43665e-20)
(0.9649 0.263882 -6.09336e-19)
(0.964753 0.263975 9.55142e-19)
(0.964597 0.264053 1.5793e-19)
(0.964429 0.264101 1.08569e-18)
(0.964248 0.264099 -8.23825e-19)
(0.96405 0.264021 -5.67426e-19)
(0.963835 0.263837 -2.31231e-19)
(0.963601 0.263512 1.32724e-18)
(0.963349 0.263013 2.01307e-18)
(0.963079 0.262313 4.8791e-19)
(0.96278 0.261402 8.8493e-19)
(0.962447 0.260269 -1.54746e-18)
(0.962057 0.258911 8.18026e-18)
(0.9616 0.25727 2.11327e-18)
(0.961147 0.255257 -2.27847e-18)
(0.96067 0.252883 3.80348e-19)
(0.96014 0.250123 7.76722e-18)
(0.959623 0.246677 -1.63049e-19)
(0.959118 0.242708 -8.29564e-18)
(0.959123 0.237866 -1.80892e-17)
(0.957518 0.232624 1.658e-17)
(0.95944 0.226041 -9.03979e-18)
(0.942866 0.216055 7.68775e-18)
(0.96605 0.263644 -2.23758e-21)
(0.965884 0.263659 9.10213e-21)
(0.965746 0.263682 -1.51152e-20)
(0.965642 0.263703 1.13857e-20)
(0.965579 0.263715 7.42669e-21)
(0.965557 0.26372 -7.9802e-21)
(0.965571 0.263719 6.66014e-22)
(0.965611 0.263712 -6.09152e-21)
(0.965667 0.263704 -2.06782e-20)
(0.965727 0.263696 4.01552e-20)
(0.965783 0.263693 -6.28969e-20)
(0.965828 0.263696 5.57385e-20)
(0.965859 0.263708 4.9633e-20)
(0.965873 0.263729 -7.78417e-20)
(0.965874 0.263761 -2.57374e-20)
(0.965862 0.263802 9.79714e-20)
(0.965843 0.26385 -1.20322e-19)
(0.965819 0.263904 1.689e-19)
(0.965794 0.263961 -3.24508e-20)
(0.96577 0.264018 1.91185e-20)
(0.965749 0.264075 -3.07486e-20)
(0.96573 0.264128 -3.95065e-20)
(0.965713 0.264177 -7.55906e-20)
(0.965697 0.264221 1.3374e-19)
(0.965679 0.264261 -9.34545e-20)
(0.965657 0.264297 -9.48886e-20)
(0.965631 0.264329 1.99492e-19)
(0.965598 0.264355 -1.98599e-19)
(0.965559 0.264375 3.25312e-19)
(0.965515 0.264386 -1.77091e-19)
(0.965468 0.264394 1.43471e-19)
(0.965415 0.264414 -2.50127e-19)
(0.965347 0.264477 2.81893e-19)
(0.96525 0.264583 -2.06027e-20)
(0.965125 0.264703 -1.3252e-20)
(0.964981 0.264802 -5.67794e-21)
(0.964831 0.264873 -1.8401e-19)
(0.964673 0.264935 5.43919e-19)
(0.96451 0.26497 -4.2165e-19)
(0.96434 0.264983 -2.49219e-18)
(0.964162 0.264959 -1.07345e-18)
(0.963973 0.26488 7.80199e-19)
(0.96377 0.264724 -8.85593e-19)
(0.963555 0.26446 -1.02008e-18)
(0.963325 0.26406 -9.31369e-20)
(0.963081 0.263494 2.73857e-18)
(0.962826 0.262741 -4.17464e-18)
(0.962553 0.261793 -4.41454e-18)
(0.962261 0.260641 -3.12227e-18)
(0.961928 0.259286 -5.44449e-18)
(0.961556 0.257664 3.57383e-18)
(0.961209 0.255685 -1.49587e-18)
(0.960842 0.253358 -1.23544e-17)
(0.960386 0.250661 2.21738e-18)
(0.959888 0.247248 3.72582e-18)
(0.959306 0.243239 -6.71764e-18)
(0.959255 0.238304 5.23687e-18)
(0.957339 0.232864 3.9656e-18)
(0.958884 0.226383 1.46973e-17)
(0.94605 0.217478 -3.6528e-19)
(0.96699 0.263998 2.62993e-21)
(0.966863 0.264042 -1.19394e-20)
(0.966703 0.264099 5.88234e-21)
(0.966526 0.264167 1.10116e-20)
(0.966354 0.264234 -2.38078e-20)
(0.966207 0.2643 2.01431e-20)
(0.966093 0.264362 -1.35224e-20)
(0.966016 0.264416 1.15877e-20)
(0.965975 0.264464 1.86048e-20)
(0.965963 0.264505 -4.52945e-20)
(0.96597 0.264543 6.60694e-20)
(0.965988 0.264577 2.8257e-20)
(0.966007 0.264613 -1.14299e-19)
(0.96602 0.264651 -2.16105e-20)
(0.966023 0.264695 6.23755e-20)
(0.966014 0.264745 4.0751e-20)
(0.965993 0.264803 -5.01126e-20)
(0.965961 0.264867 4.48034e-20)
(0.965922 0.264937 7.05526e-20)
(0.965877 0.265011 -3.44968e-20)
(0.965831 0.265087 -2.01176e-20)
(0.965783 0.265164 7.42166e-20)
(0.965736 0.265239 1.56694e-19)
(0.965689 0.265311 -1.13476e-19)
(0.965643 0.265378 -1.30408e-19)
(0.965594 0.265439 1.48704e-19)
(0.965544 0.265493 -1.16663e-19)
(0.96549 0.265537 -5.08055e-20)
(0.965432 0.265569 4.23549e-19)
(0.965372 0.265585 -1.91263e-19)
(0.965309 0.265592 -1.56622e-19)
(0.96524 0.265608 2.06913e-19)
(0.965155 0.265659 1.50801e-19)
(0.965043 0.265749 -1.40418e-19)
(0.964903 0.265848 -1.00486e-19)
(0.964747 0.265915 3.44879e-19)
(0.964586 0.265945 8.337e-20)
(0.964413 0.265957 1.22349e-19)
(0.964233 0.265933 -6.89807e-19)
(0.964048 0.265881 -6.93723e-19)
(0.963856 0.26579 1.34873e-18)
(0.963655 0.265641 1.11783e-18)
(0.963441 0.265414 1.94046e-18)
(0.963216 0.265081 -1.81115e-18)
(0.962977 0.264616 -2.08036e-18)
(0.962728 0.263988 -1.45266e-18)
(0.962475 0.263178 3.70641e-18)
(0.962217 0.262179 3.77063e-18)
(0.961962 0.260984 -4.40123e-18)
(0.961695 0.259601 -6.69095e-18)
(0.961437 0.257978 -1.32407e-18)
(0.961247 0.256049 1.42733e-18)
(0.961069 0.253845 1.90858e-19)
(0.960789 0.251383 -4.32023e-18)
(0.960428 0.2483 3.70786e-18)
(0.959876 0.244661 2.28524e-18)
(0.95983 0.240132 3.37807e-18)
(0.957709 0.235013 -1.24902e-17)
(0.958613 0.229224 -9.45528e-19)
(0.949022 0.221896 -4.77019e-20)
(0.967598 0.264851 -4.41217e-21)
(0.967697 0.264869 -3.50975e-21)
(0.967698 0.264909 4.86693e-21)
(0.967617 0.264972 1.71556e-20)
(0.967478 0.265047 -3.71891e-20)
(0.967305 0.265133 4.28304e-20)
(0.967121 0.265226 -2.02747e-21)
(0.966945 0.265319 -2.7652e-21)
(0.96679 0.265411 -1.56348e-20)
(0.966662 0.265498 3.81292e-20)
(0.966562 0.265578 -5.94931e-20)
(0.966487 0.26565 2.27139e-20)
(0.966429 0.265716 -7.51753e-22)
(0.966382 0.265777 3.64479e-20)
(0.966338 0.265835 1.7596e-20)
(0.966291 0.265892 -9.48157e-20)
(0.966238 0.265951 8.35664e-20)
(0.966177 0.266012 3.35418e-20)
(0.966108 0.266077 -9.81461e-20)
(0.966032 0.266147 4.88771e-20)
(0.965951 0.26622 2.34649e-20)
(0.965867 0.266296 -1.52349e-20)
(0.965782 0.266373 2.07824e-20)
(0.965698 0.26645 -1.13667e-20)
(0.965614 0.266524 -1.41189e-19)
(0.965531 0.266594 9.57281e-20)
(0.965449 0.266656 -1.50552e-19)
(0.965367 0.266707 2.8493e-19)
(0.965285 0.266743 -5.31272e-20)
(0.965204 0.26676 -3.3117e-20)
(0.965122 0.266765 -8.50379e-21)
(0.965035 0.266774 3.47758e-19)
(0.964932 0.266816 -1.41188e-19)
(0.964803 0.266894 -9.04388e-20)
(0.964648 0.266971 2.52326e-19)
(0.96448 0.267009 2.31044e-19)
(0.964306 0.267 -4.02826e-19)
(0.964118 0.266962 7.26501e-20)
(0.963919 0.266882 8.27096e-19)
(0.963715 0.266771 -7.09163e-20)
(0.963502 0.266617 5.49399e-19)
(0.963276 0.266404 -8.26377e-19)
(0.963034 0.26611 1.25526e-18)
(0.962775 0.265708 2.8631e-18)
(0.962497 0.265169 8.84816e-19)
(0.962203 0.26446 -1.2217e-18)
(0.961902 0.263556 -3.94879e-18)
(0.9616 0.262446 7.72694e-19)
(0.961316 0.261121 1.35449e-18)
(0.961045 0.259595 2.96029e-18)
(0.960828 0.257831 -3.29665e-19)
(0.960731 0.255792 -5.94125e-18)
(0.960697 0.253557 5.18724e-18)
(0.960578 0.251198 -3.50548e-18)
(0.960377 0.248368 6.85893e-18)
(0.959917 0.245068 1.6892e-18)
(0.959949 0.240966 7.33509e-18)
(0.957825 0.23617 9.54946e-18)
(0.958126 0.231023 1.41498e-18)
(0.950521 0.224154 1.87054e-18)
(0.967329 0.26665 -2.11081e-21)
(0.967721 0.266596 1.83067e-21)
(0.967995 0.26657 9.09396e-21)
(0.968156 0.266567 1.43101e-20)
(0.968209 0.266584 -4.28186e-20)
(0.968171 0.266622 2.47323e-20)
(0.968062 0.266678 -4.4135e-20)
(0.967907 0.266748 6.95456e-20)
(0.967728 0.266828 -3.28329e-20)
(0.967542 0.266912 5.80684e-21)
(0.967364 0.266996 6.38857e-20)
(0.9672 0.267077 -1.46955e-19)
(0.967053 0.267153 1.01284e-19)
(0.966923 0.26722 1.45338e-20)
(0.966804 0.26728 2.36606e-20)
(0.966693 0.267334 -1.00401e-19)
(0.966584 0.267382 5.02101e-20)
(0.966473 0.267427 -6.34504e-20)
(0.966359 0.26747 1.27641e-19)
(0.966239 0.267514 -1.61405e-20)
(0.966115 0.267561 -1.6831e-19)
(0.965987 0.267609 6.84863e-20)
(0.965858 0.267661 -3.7186e-21)
(0.96573 0.267716 -2.65894e-19)
(0.965603 0.267771 1.99043e-19)
(0.965478 0.267825 1.54933e-19)
(0.965357 0.267873 1.0994e-19)
(0.965239 0.267912 -1.43675e-19)
(0.965126 0.267936 -1.6585e-19)
(0.965017 0.267942 7.8929e-20)
(0.964911 0.267935 1.21479e-19)
(0.964802 0.267933 -1.5543e-19)
(0.964679 0.267963 -2.43977e-19)
(0.964532 0.268026 5.08206e-19)
(0.964362 0.268084 6.13096e-20)
(0.96418 0.268094 -8.59973e-19)
(0.963994 0.268046 7.30154e-20)
(0.963789 0.267963 6.2845e-19)
(0.96357 0.267832 5.62122e-20)
(0.963342 0.267668 8.60411e-19)
(0.9631 0.267458 -1.25883e-18)
(0.962838 0.267187 -8.99779e-20)
(0.962551 0.26683 -8.51459e-19)
(0.962236 0.266358 3.16027e-19)
(0.961888 0.265738 1.49975e-18)
(0.961511 0.264928 4.72151e-18)
(0.961113 0.263895 7.81052e-19)
(0.960704 0.262617 -3.39668e-18)
(0.960311 0.261076 2.73793e-18)
(0.959939 0.259286 1.02265e-17)
(0.959651 0.257219 -8.59711e-18)
(0.959524 0.254865 1.06665e-17)
(0.959515 0.252348 -6.61612e-18)
(0.959454 0.249802 -3.55342e-18)
(0.959353 0.246922 -1.41225e-17)
(0.958988 0.243655 -7.47029e-19)
(0.95916 0.239705 -4.36001e-18)
(0.957267 0.234985 -4.59488e-18)
(0.957205 0.23016 3.01586e-18)
(0.950736 0.223037 8.37025e-20)
(0.966156 0.269305 2.8792e-21)
(0.966765 0.269174 9.61955e-22)
(0.96729 0.269071 -1.03856e-20)
(0.96772 0.268979 9.90171e-21)
(0.968039 0.268904 -4.38576e-21)
(0.968243 0.268848 7.76919e-21)
(0.968339 0.268814 2.58725e-21)
(0.96834 0.268801 -3.89303e-20)
(0.968266 0.268808 1.7156e-20)
(0.968139 0.26883 -1.14662e-20)
(0.967977 0.268864 7.19173e-21)
(0.967799 0.268904 2.76872e-20)
(0.967617 0.268946 -5.18554e-21)
(0.967438 0.268987 1.72416e-20)
(0.967265 0.269023 -7.38215e-20)
(0.9671 0.269052 2.88102e-20)
(0.966939 0.269075 1.309e-20)
(0.966781 0.269091 -3.58138e-20)
(0.966622 0.269103 7.2517e-20)
(0.96646 0.26911 2.4814e-20)
(0.966295 0.269117 -2.30906e-21)
(0.966126 0.269124 -2.70702e-20)
(0.965956 0.269133 1.14805e-19)
(0.965784 0.269145 -3.24637e-19)
(0.965613 0.269159 1.70341e-19)
(0.965445 0.269176 7.49724e-20)
(0.965282 0.269189 -1.3124e-19)
(0.965124 0.269195 2.39649e-19)
(0.964973 0.269188 -1.16337e-19)
(0.96483 0.269165 -6.52379e-20)
(0.964693 0.269133 -1.33851e-19)
(0.964557 0.269108 -5.70966e-20)
(0.964408 0.269118 1.56803e-19)
(0.964239 0.269162 -5.02488e-19)
(0.964051 0.269197 9.84046e-19)
(0.963853 0.269178 -6.39519e-20)
(0.963653 0.269094 5.73129e-19)
(0.963432 0.268969 -1.48697e-18)
(0.963192 0.268792 -4.88015e-19)
(0.962938 0.268581 -7.69661e-21)
(0.962665 0.268323 -3.71993e-19)
(0.962365 0.268001 -6.4573e-20)
(0.962031 0.267588 -1.40934e-18)
(0.961657 0.267054 4.36583e-19)
(0.961237 0.266359 7.11955e-19)
(0.96077 0.265453 -4.35635e-18)
(0.960264 0.264292 5.73526e-18)
(0.959727 0.262839 9.22547e-19)
(0.959191 0.261063 1.75813e-19)
(0.958667 0.258972 -6.78433e-18)
(0.958235 0.256537 2.66316e-18)
(0.957987 0.253764 -5.62678e-18)
(0.9579 0.250814 1.07689e-17)
(0.957797 0.247877 2.44316e-18)
(0.957719 0.244704 -8.76256e-18)
(0.957425 0.241213 3.31751e-18)
(0.957765 0.237187 -9.01499e-18)
(0.95628 0.232414 -1.80264e-18)
(0.956124 0.227804 -1.16562e-17)
(0.950804 0.220894 -2.93527e-18)
(0.964443 0.272429 -6.20275e-22)
(0.965116 0.27225 -2.40877e-21)
(0.965772 0.272091 -2.04279e-21)
(0.96639 0.271927 2.01378e-20)
(0.966935 0.271768 -1.12895e-20)
(0.967386 0.271617 -1.33041e-20)
(0.967729 0.271482 -4.85714e-21)
(0.967961 0.271365 -2.02671e-20)
(0.968087 0.27127 1.31312e-20)
(0.968122 0.271194 2.04851e-21)
(0.968082 0.271138 7.87841e-22)
(0.967986 0.271097 5.53985e-20)
(0.967852 0.271069 -3.96722e-20)
(0.967693 0.271048 -4.96117e-21)
(0.967521 0.271031 4.64566e-20)
(0.967344 0.271013 -2.58608e-20)
(0.967163 0.270992 -1.00274e-20)
(0.966981 0.270965 1.67609e-20)
(0.966798 0.270934 5.51385e-20)
(0.966611 0.270897 3.18226e-20)
(0.96642 0.270856 1.32156e-20)
(0.966224 0.270813 -8.11536e-20)
(0.966025 0.270771 4.28038e-20)
(0.965822 0.27073 8.69499e-20)
(0.965618 0.270692 -1.81179e-19)
(0.965414 0.270657 6.14219e-20)
(0.965213 0.270619 -2.47675e-19)
(0.965017 0.270576 2.07336e-19)
(0.964828 0.270522 1.92275e-19)
(0.964649 0.270455 -3.01899e-19)
(0.964477 0.270382 -1.49659e-19)
(0.964307 0.270323 2.07416e-19)
(0.964128 0.270302 7.15923e-20)
(0.963932 0.270318 -2.13502e-19)
(0.963721 0.270324 -2.80728e-19)
(0.963504 0.270272 -3.52858e-19)
(0.963288 0.270151 2.20163e-19)
(0.96305 0.269985 5.57922e-19)
(0.96279 0.269767 1.93927e-19)
(0.962514 0.269515 -1.9778e-19)
(0.962215 0.269215 2.10185e-18)
(0.961888 0.26885 -1.93925e-19)
(0.961523 0.268395 2.31e-18)
(0.961113 0.267814 -4.27353e-18)
(0.960647 0.267067 6.18925e-19)
(0.960124 0.266096 1.46087e-19)
(0.959545 0.264847 -4.59952e-19)
(0.958917 0.26327 -3.88045e-18)
(0.95827 0.261319 -6.78516e-18)
(0.957616 0.258993 6.40073e-18)
(0.957044 0.256256 8.87809e-18)
(0.956659 0.253116 4.81098e-18)
(0.956455 0.249761 -1.02048e-17)
(0.956257 0.246418 5.4189e-18)
(0.956145 0.242903 1.34367e-17)
(0.955889 0.239118 4.84243e-18)
(0.956377 0.234967 8.79333e-18)
(0.955364 0.230201 3.96329e-18)
(0.955298 0.225935 1.00877e-17)
(0.951629 0.220203 -6.30492e-18)
(0.962626 0.275619 7.79728e-22)
(0.963217 0.275429 -2.33211e-21)
(0.963858 0.27525 8.23928e-21)
(0.964528 0.275051 2.02831e-21)
(0.965189 0.274842 -1.12733e-20)
(0.965806 0.274627 -1.2738e-20)
(0.96635 0.274415 3.03859e-20)
(0.966802 0.274209 -3.30595e-20)
(0.967151 0.274018 -7.88605e-21)
(0.967395 0.273842 2.05611e-20)
(0.967541 0.273685 1.89093e-20)
(0.967601 0.273546 5.7544e-20)
(0.967589 0.273426 -3.30161e-20)
(0.967523 0.27332 -5.66628e-20)
(0.967416 0.273226 1.25583e-20)
(0.967281 0.273139 -4.73188e-20)
(0.967127 0.273056 3.58192e-20)
(0.966959 0.272974 -6.183e-20)
(0.966782 0.27289 9.55718e-21)
(0.966597 0.272803 -2.16644e-20)
(0.966403 0.272713 -1.4728e-20)
(0.966203 0.27262 -6.28275e-20)
(0.965994 0.272526 3.52059e-21)
(0.96578 0.272432 1.38876e-19)
(0.965559 0.272338 -4.89269e-20)
(0.965335 0.272247 1.50237e-20)
(0.96511 0.272152 4.65207e-20)
(0.964887 0.272052 -6.81117e-20)
(0.964668 0.271942 -1.49185e-20)
(0.964456 0.271821 1.03822e-19)
(0.96425 0.271697 1.18955e-19)
(0.964046 0.27159 -9.22272e-20)
(0.963835 0.271528 -3.03796e-19)
(0.963609 0.271506 -4.51624e-19)
(0.963373 0.271475 7.23386e-19)
(0.963135 0.271384 2.03156e-19)
(0.962901 0.271222 1.28889e-19)
(0.962647 0.271014 7.18607e-19)
(0.962369 0.270756 -6.74901e-19)
(0.962077 0.270464 4.21501e-19)
(0.961766 0.270126 1.70776e-22)
(0.96143 0.269726 4.91828e-20)
(0.961061 0.269238 -8.42667e-19)
(0.960649 0.26863 1.93399e-18)
(0.960183 0.26786 -2.58994e-18)
(0.959657 0.266867 1.60163e-18)
(0.959068 0.265591 -4.79281e-18)
(0.958419 0.263972 1.58049e-18)
(0.957734 0.261955 3.52803e-18)
(0.957018 0.259525 -6.24672e-18)
(0.956365 0.256638 -2.10413e-18)
(0.955882 0.253293 -8.77108e-19)
(0.95558 0.249687 -1.43059e-18)
(0.955283 0.246074 -5.19698e-18)
(0.955109 0.242323 4.37871e-19)
(0.954858 0.23833 3.67988e-18)
(0.955441 0.234124 -4.33235e-18)
(0.954862 0.229494 -1.18556e-18)
(0.954956 0.225743 -1.76786e-18)
(0.953445 0.22182 4.27782e-18)
(0.961012 0.278641 1.4134e-21)
(0.961424 0.278466 -1.20996e-21)
(0.961935 0.278295 1.06468e-21)
(0.962531 0.278095 6.81056e-21)
(0.963178 0.277874 9.75777e-21)
(0.963843 0.277634 -3.86598e-20)
(0.964491 0.277382 2.79601e-20)
(0.96509 0.277122 5.66161e-21)
(0.965616 0.276864 -1.88337e-21)
(0.966054 0.276611 -1.26021e-20)
(0.966394 0.276368 3.84113e-20)
(0.966638 0.276139 -1.28223e-20)
(0.966792 0.275927 -1.76436e-20)
(0.966867 0.275731 -5.27596e-20)
(0.966877 0.27555 1.06805e-19)
(0.966835 0.275382 -2.23635e-20)
(0.966753 0.275225 -1.90149e-20)
(0.96664 0.275074 -5.74558e-20)
(0.966504 0.274928 6.44649e-20)
(0.96635 0.274783 3.69802e-20)
(0.966181 0.274638 -1.63905e-20)
(0.965998 0.274493 3.12984e-20)
(0.965803 0.274346 -1.3344e-19)
(0.965597 0.2742 7.77273e-21)
(0.965381 0.274054 7.81561e-20)
(0.965156 0.273908 -1.57135e-20)
(0.964924 0.273758 -2.62521e-19)
(0.964689 0.273602 1.94884e-20)
(0.964453 0.273434 2.49192e-19)
(0.964219 0.273254 -6.87661e-20)
(0.963987 0.273073 -1.40556e-19)
(0.963755 0.272913 8.39421e-20)
(0.963515 0.2728 2.63288e-19)
(0.963262 0.272731 6.52978e-19)
(0.963 0.272656 -1.04836e-19)
(0.962742 0.272519 1.57431e-19)
(0.96249 0.272311 -1.18461e-18)
(0.962221 0.272057 -3.62478e-19)
(0.961931 0.271757 2.32781e-19)
(0.961631 0.271423 -9.6808e-19)
(0.961321 0.271048 -2.21305e-19)
(0.960995 0.270615 4.67125e-19)
(0.960647 0.270103 3.58485e-19)
(0.960267 0.269482 1.05947e-18)
(0.959843 0.268712 3.64411e-18)
(0.959367 0.267736 -2.96493e-18)
(0.958831 0.26649 4.81874e-18)
(0.958232 0.264911 3.87157e-18)
(0.957584 0.262937 2.84526e-20)
(0.956887 0.260543 5.32819e-18)
(0.956228 0.257674 -7.86611e-18)
(0.955714 0.254313 -9.6777e-18)
(0.955359 0.250653 7.58106e-18)
(0.954985 0.246956 6.4327e-18)
(0.954742 0.243133 -2.387e-18)
(0.954469 0.239066 -1.47771e-17)
(0.955081 0.234894 3.52535e-18)
(0.954849 0.23048 -2.67675e-18)
(0.955089 0.22729 -3.88993e-18)
(0.955908 0.225179 2.16581e-18)
(0.959746 0.281379 -1.4927e-21)
(0.95994 0.281233 1.64781e-21)
(0.960256 0.281087 1.09581e-20)
(0.96069 0.28091 -1.43816e-20)
(0.961222 0.280703 2.57543e-20)
(0.961825 0.280469 -3.79058e-20)
(0.962466 0.280211 1.08169e-20)
(0.963113 0.279934 -4.48018e-22)
(0.963734 0.279643 2.35758e-20)
(0.964303 0.279344 -1.2554e-20)
(0.964799 0.279044 3.64727e-21)
(0.96521 0.278747 3.75391e-21)
(0.965532 0.278459 -5.98069e-20)
(0.965766 0.278183 1.81813e-20)
(0.96592 0.277921 4.221e-20)
(0.966003 0.277673 1.30017e-21)
(0.966027 0.277437 -7.23174e-20)
(0.966002 0.277214 2.96528e-20)
(0.965938 0.276999 1.42405e-19)
(0.965843 0.276792 -9.37705e-20)
(0.965722 0.276589 -7.33338e-20)
(0.965579 0.276389 6.34195e-20)
(0.965418 0.276191 4.22891e-20)
(0.965239 0.275995 4.9203e-20)
(0.965045 0.2758 -9.50462e-20)
(0.964836 0.275604 -2.16996e-19)
(0.964615 0.275403 1.63928e-19)
(0.964384 0.275194 2.51101e-19)
(0.964146 0.274971 7.66741e-20)
(0.963905 0.274735 -1.41327e-19)
(0.96366 0.274497 7.11258e-20)
(0.96341 0.27428 1.24029e-19)
(0.963149 0.274114 -2.15293e-19)
(0.962874 0.273993 -3.00275e-20)
(0.962593 0.273865 -4.3135e-19)
(0.962318 0.273677 -1.30037e-19)
(0.962052 0.273417 -1.29787e-19)
(0.961771 0.273113 3.46687e-19)
(0.961473 0.272765 -4.82788e-19)
(0.961172 0.272386 1.47199e-19)
(0.960872 0.271969 2.34703e-19)
(0.96057 0.271501 6.02726e-20)
(0.960261 0.270965 -1.55345e-18)
(0.959935 0.270337 -2.17171e-18)
(0.959581 0.269581 -1.98561e-18)
(0.959187 0.268644 3.86493e-18)
(0.958744 0.267466 -1.33394e-19)
(0.958241 0.265983 -1.70206e-18)
(0.957685 0.264131 8.75048e-19)
(0.957065 0.261879 -5.79479e-18)
(0.956459 0.259158 3.01065e-18)
(0.955967 0.255933 8.35661e-18)
(0.955604 0.25238 -1.03851e-18)
(0.955185 0.248757 -7.17634e-18)
(0.95488 0.244996 3.55509e-18)
(0.954572 0.240962 3.31471e-18)
(0.955163 0.236867 3.30309e-18)
(0.955191 0.232653 6.67904e-18)
(0.95553 0.229916 4.94488e-18)
(0.958501 0.22913 -4.73668e-18)
(0.958855 0.283819 -1.24658e-21)
(0.958835 0.283702 1.80393e-21)
(0.958939 0.283587 3.57282e-22)
(0.959171 0.283441 6.69319e-21)
(0.959526 0.283264 -1.02359e-20)
(0.959988 0.283056 -2.06622e-20)
(0.960533 0.282817 7.6463e-21)
(0.961134 0.282549 -9.65335e-21)
(0.961759 0.282258 2.15542e-20)
(0.962377 0.281945 -4.29163e-21)
(0.962961 0.28162 -1.41656e-20)
(0.96349 0.281285 1.19182e-20)
(0.963947 0.280949 1.93146e-20)
(0.964324 0.280615 5.36446e-20)
(0.964621 0.280288 -9.84741e-20)
(0.964839 0.27997 5.08126e-20)
(0.964985 0.279664 7.83775e-21)
(0.965067 0.27937 -5.14155e-20)
(0.965097 0.279086 -3.27665e-20)
(0.965081 0.278813 1.08996e-19)
(0.965028 0.278549 -1.16507e-19)
(0.964943 0.278292 3.50099e-20)
(0.96483 0.278041 -9.94088e-20)
(0.964694 0.277794 1.67984e-19)
(0.964536 0.27755 -3.47567e-20)
(0.964358 0.277308 -1.02942e-19)
(0.964162 0.27706 8.25719e-20)
(0.96395 0.276802 1.63948e-19)
(0.963724 0.276529 -1.61101e-19)
(0.963489 0.276241 1.02841e-19)
(0.963244 0.27595 -3.65151e-19)
(0.962989 0.275679 -4.58825e-20)
(0.962719 0.275458 1.68759e-19)
(0.962433 0.275281 -1.02675e-19)
(0.96214 0.275099 -2.23837e-19)
(0.961853 0.274855 -5.66513e-19)
(0.961578 0.274539 7.46921e-19)
(0.96129 0.274181 -3.03924e-19)
(0.960988 0.27378 2.38407e-19)
(0.96069 0.273349 4.89841e-19)
(0.960405 0.272885 3.85868e-19)
(0.960132 0.272377 -2.45491e-19)
(0.959867 0.271814 8.71575e-19)
(0.959602 0.271175 1.64201e-18)
(0.959323 0.270433 -1.64922e-19)
(0.959021 0.26954 -2.25231e-18)
(0.958681 0.268441 -3.0772e-18)
(0.95829 0.267077 -2.4573e-19)
(0.957846 0.265383 2.15509e-18)
(0.957328 0.263324 -1.40992e-19)
(0.956804 0.260819 4.05934e-18)
(0.956368 0.257812 -7.04545e-18)
(0.956028 0.254456 -3.90457e-18)
(0.955592 0.250993 -7.90418e-19)
(0.95524 0.247365 -2.80201e-18)
(0.954902 0.243407 1.76591e-18)
(0.955451 0.239372 -2.42164e-18)
(0.955681 0.235268 -7.3697e-18)
(0.956083 0.232763 -6.70816e-18)
(0.960767 0.232624 2.05591e-18)
(0.95829 0.285972 -1.86855e-21)
(0.958088 0.285883 1.52431e-21)
(0.957995 0.285797 1.18229e-21)
(0.958023 0.285684 -8.36533e-21)
(0.958179 0.285542 8.68474e-21)
(0.958459 0.285369 -4.2313e-21)
(0.95885 0.285163 1.37448e-20)
(0.959332 0.284923 -2.04658e-20)
(0.959882 0.284652 1.26373e-21)
(0.960471 0.284353 1.66674e-21)
(0.961068 0.284028 -1.50965e-20)
(0.961648 0.283684 4.25067e-20)