/*--------------------------------*- C++ -*----------------------------------*\
  =========                 |
  \\      /  F ield         | OpenFOAM: The Open Source CFD Toolbox
   \\    /   O peration     | Website:  https://openfoam.org
    \\  /    A nd           | Version:  6.0
     \\/     M anipulation  |
\*---------------------------------------------------------------------------*/
FoamFile
{
    version     2.0;
    format      ascii;
    class       surfaceScalarField;
    location    "3.68";
    object      phi;
}
// * * * * * * * * * * * * * * * * * * * * * * * * * * * * * * * * * * * * * //

dimensions      [0 3 -1 0 0 0 0];

internalField   nonuniform List<scalar> 
26699
(
2.0051e-05
0.005201
5.7937e-10
4.0126e-05
0.0051116
5.9639e-05
0.0049351
7.8187e-05
0.0046741
9.5415e-05
0.0043332
0.00011102
0.0039182
0.00012471
0.0034362
0.00013626
0.0028953
0.00014546
0.002305
0.00015181
0.0016755
0.00015717
0.0010154
0.00046503
3.435e-05
2.0051e-05
0.0051809
1.7919e-09
4.0127e-05
0.0050916
5.964e-05
0.0049155
7.819e-05
0.0046556
9.5417e-05
0.004316
0.00011102
0.0039026
0.00012471
0.0034225
0.00013625
0.0028838
0.00014545
0.0022958
0.00015105
0.0016699
0.0001589
0.0010076
0.00055905
6.488e-05
2.0051e-05
0.0051609
3.0953e-09
4.0128e-05
0.0050715
5.9643e-05
0.004896
7.8193e-05
0.004637
9.542e-05
0.0042988
0.00011103
0.003887
0.00012471
0.0034088
0.00013623
0.0028723
0.00014547
0.0022865
0.00015029
0.0016651
0.00016016
0.00099768
0.00062922
8.9991e-05
2.0051e-05
0.0051408
4.4159e-09
4.013e-05
0.0050514
5.9645e-05
0.0048765
7.8196e-05
0.0046185
9.5423e-05
0.0042815
0.00011103
0.0038714
0.0001247
0.0033951
0.0001362
0.0028608
0.00014551
0.0022772
0.00014955
0.001661
0.00016089
0.00098634
0.00067993
0.00011018
2.0051e-05
0.0051208
5.7396e-09
4.0131e-05
0.0050313
5.9647e-05
0.004857
7.8199e-05
0.0045999
9.5427e-05
0.0042643
0.00011103
0.0038558
0.0001247
0.0033815
0.00013618
0.0028493
0.00014558
0.0022678
0.00014885
0.0016578
0.0001611
0.00097409
0.00071482
0.00012621
2.0051e-05
0.0051007
7.0663e-09
4.0132e-05
0.0050112
5.965e-05
0.0048375
7.8202e-05
0.0045814
9.543e-05
0.0042471
0.00011103
0.0038402
0.0001247
0.0033678
0.00013615
0.0028378
0.00014567
0.0022583
0.00014822
0.0016552
0.00016086
0.00096146
0.00073691
0.00013877
2.0051e-05
0.0050807
8.3959e-09
4.0133e-05
0.0049912
5.9652e-05
0.004818
7.8205e-05
0.0045628
9.5433e-05
0.0042299
0.00011103
0.0038246
0.0001247
0.0033541
0.00013612
0.0028264
0.00014578
0.0022486
0.00014768
0.0016533
0.00016025
0.00094889
0.00074875
0.00014841
2.0051e-05
0.0050606
9.7284e-09
4.0134e-05
0.0049711
5.9654e-05
0.0047984
7.8209e-05
0.0045442
9.5436e-05
0.0042126
0.00011104
0.003809
0.0001247
0.0033405
0.00013608
0.002815
0.00014591
0.0022388
0.00014724
0.001652
0.00015938
0.00093676
0.00075251
0.00015562
2.0051e-05
0.0050405
1.1064e-08
4.0135e-05
0.004951
5.9657e-05
0.0047789
7.8212e-05
0.0045257
9.544e-05
0.0041954
0.00011104
0.0037934
0.0001247
0.0033268
0.00013604
0.0028037
0.00014604
0.0022288
0.00014691
0.0016511
0.00015832
0.00092536
0.00075
0.00016083
2.005e-05
0.0050205
1.2403e-08
4.0137e-05
0.0049309
5.9659e-05
0.0047594
7.8215e-05
0.0045071
9.5443e-05
0.0041782
0.00011104
0.0037778
0.0001247
0.0033132
0.00013599
0.0027924
0.00014618
0.0022186
0.00014669
0.0016506
0.00015715
0.00091489
0.00074274
0.00016442
2.005e-05
0.0050004
1.3744e-08
4.0138e-05
0.0049108
5.9661e-05
0.0047399
7.8218e-05
0.0044886
9.5446e-05
0.004161
0.00011104
0.0037622
0.0001247
0.0032995
0.00013595
0.0027812
0.00014632
0.0022082
0.00014657
0.0016503
0.00015595
0.00090552
0.00073196
0.00016672
2.005e-05
0.0049803
1.5089e-08
4.0139e-05
0.0048907
5.9664e-05
0.0047204
7.8221e-05
0.00447
9.545e-05
0.0041437
0.00011105
0.0037466
0.00012471
0.0032858
0.00013589
0.00277
0.00014646
0.0021977
0.00014656
0.0016502
0.00015476
0.00089732
0.00071872
0.00016801
2.005e-05
0.0049603
1.6437e-08
4.014e-05
0.0048706
5.9666e-05
0.0047008
7.8224e-05
0.0044515
9.5453e-05
0.0041265
0.00011105
0.003731
0.00012472
0.0032722
0.00013584
0.0027589
0.00014659
0.0021869
0.00014665
0.0016502
0.00015362
0.00089035
0.00070383
0.00016851
2.005e-05
0.0049402
1.7788e-08
4.0141e-05
0.0048506
5.9668e-05
0.0046813
7.8227e-05
0.0044329
9.5457e-05
0.0041093
0.00011105
0.0037154
0.00012472
0.0032585
0.00013578
0.0027478
0.00014671
0.002176
0.00014682
0.0016501
0.00015257
0.0008846
0.00068797
0.00016843
2.005e-05
0.0049201
1.9143e-08
4.0142e-05
0.0048305
5.9671e-05
0.0046618
7.823e-05
0.0044143
9.546e-05
0.004092
0.00011105
0.0036998
0.00012473
0.0032448
0.00013571
0.0027368
0.00014682
0.0021649
0.00014707
0.0016498
0.00015164
0.00088003
0.00067169
0.00016792
2.005e-05
0.0049001
2.0501e-08
4.0144e-05
0.0048104
5.9673e-05
0.0046422
7.8233e-05
0.0043958
9.5464e-05
0.0040748
0.00011105
0.0036842
0.00012475
0.0032311
0.00013565
0.0027259
0.00014692
0.0021536
0.00014739
0.0016493
0.00015083
0.00087659
0.00065539
0.00016712
2.005e-05
0.00488
2.1862e-08
4.0145e-05
0.0047903
5.9675e-05
0.0046227
7.8237e-05
0.0043772
9.5468e-05
0.0040576
0.00011106
0.0036686
0.00012476
0.0032174
0.00013558
0.0027151
0.00014699
0.0021422
0.00014776
0.0016486
0.00015016
0.00087419
0.0006394
0.00016614
2.005e-05
0.0048599
2.3227e-08
4.0146e-05
0.0047702
5.9678e-05
0.0046032
7.824e-05
0.0043587
9.5472e-05
0.0040403
0.00011106
0.0036531
0.00012477
0.0032037
0.00013551
0.0027044
0.00014705
0.0021307
0.00014818
0.0016475
0.00014962
0.00087275
0.00062397
0.00016506
2.005e-05
0.0048399
2.4596e-08
4.0147e-05
0.0047501
5.968e-05
0.0045836
7.8243e-05
0.0043401
9.5476e-05
0.0040231
0.00011106
0.0036375
0.00012479
0.00319
0.00013544
0.0026937
0.0001471
0.002119
0.00014862
0.0016459
0.00014923
0.00087214
0.00060925
0.00016394
2.005e-05
0.0048198
2.5968e-08
4.0148e-05
0.00473
5.9683e-05
0.0045641
7.8246e-05
0.0043215
9.5479e-05
0.0040059
0.00011106
0.0036219
0.00012481
0.0031762
0.00013537
0.0026831
0.00014712
0.0021073
0.00014909
0.001644
0.00014896
0.00087228
0.00059537
0.00016285
2.005e-05
0.0047997
2.7343e-08
4.0149e-05
0.0047099
5.9685e-05
0.0045446
7.8249e-05
0.004303
9.5484e-05
0.0039886
0.00011106
0.0036063
0.00012483
0.0031624
0.00013531
0.0026727
0.00014712
0.0020954
0.00014958
0.0016415
0.00014883
0.00087303
0.00058238
0.00016181
2.005e-05
0.0047796
2.8723e-08
4.0151e-05
0.0046898
5.9687e-05
0.004525
7.8253e-05
0.0042844
9.5488e-05
0.0039714
0.00011106
0.0035907
0.00012485
0.0031487
0.00013524
0.0026623
0.0001471
0.0020836
0.00015007
0.0016385
0.0001488
0.00087429
0.00057034
0.00016085
2.005e-05
0.0047595
3.0106e-08
4.0152e-05
0.0046697
5.969e-05
0.0045055
7.8256e-05
0.0042658
9.5492e-05
0.0039542
0.00011106
0.0035752
0.00012488
0.0031348
0.00013517
0.002652
0.00014707
0.0020717
0.00015055
0.001635
0.00014888
0.00087596
0.00055922
0.00016
2.005e-05
0.0047395
3.1493e-08
4.0153e-05
0.0046496
5.9692e-05
0.004486
7.8259e-05
0.0042473
9.5496e-05
0.0039369
0.00011106
0.0035596
0.00012491
0.003121
0.00013511
0.0026418
0.00014701
0.0020598
0.00015103
0.001631
0.00014906
0.00087793
0.00054902
0.00015926
2.005e-05
0.0047194
3.2884e-08
4.0154e-05
0.0046295
5.9695e-05
0.0044664
7.8262e-05
0.0042287
9.5501e-05
0.0039197
0.00011106
0.003544
0.00012493
0.0031071
0.00013505
0.0026317
0.00014694
0.0020479
0.00015148
0.0016265
0.00014931
0.0008801
0.0005397
0.00015863
2.0049e-05
0.0046993
3.4279e-08
4.0155e-05
0.0046094
5.9697e-05
0.0044469
7.8266e-05
0.0042101
9.5505e-05
0.0039025
0.00011106
0.0035285
0.00012497
0.0030932
0.000135
0.0026216
0.00014685
0.0020361
0.00015192
0.0016214
0.00014963
0.00088238
0.0005312
0.00015813
2.0049e-05
0.0046792
3.5678e-08
4.0156e-05
0.0045893
5.97e-05
0.0044273
7.8269e-05
0.0041916
9.551e-05
0.0038852
0.00011106
0.0035129
0.000125
0.0030793
0.00013495
0.0026117
0.00014674
0.0020243
0.00015232
0.0016158
0.00015001
0.0008847
0.00052348
0.00015774
2.0049e-05
0.0046591
3.7081e-08
4.0158e-05
0.0045691
5.9702e-05
0.0044078
7.8272e-05
0.004173
9.5515e-05
0.003868
0.00011106
0.0034974
0.00012503
0.0030653
0.00013491
0.0026018
0.00014662
0.0020126
0.0001527
0.0016097
0.00015043
0.00088698
0.00051645
0.00015745
2.0049e-05
0.004639
3.8488e-08
4.0159e-05
0.004549
5.9705e-05
0.0043882
7.8276e-05
0.0041544
9.552e-05
0.0038507
0.00011106
0.0034818
0.00012506
0.0030513
0.00013487
0.002592
0.00014648
0.002001
0.00015305
0.0016032
0.00015088
0.00088914
0.00051006
0.00015727
2.0049e-05
0.0046189
3.99e-08
4.016e-05
0.0045289
5.9707e-05
0.0043687
7.8279e-05
0.0041359
9.5525e-05
0.0038335
0.00011106
0.0034663
0.0001251
0.0030373
0.00013484
0.0025823
0.00014634
0.0019895
0.00015336
0.0015962
0.00015135
0.00089115
0.00050424
0.00015717
2.0049e-05
0.0045989
4.1316e-08
4.0161e-05
0.0045088
5.971e-05
0.0043492
7.8282e-05
0.0041173
9.5531e-05
0.0038162
0.00011105
0.0034508
0.00012514
0.0030232
0.00013481
0.0025726
0.00014618
0.0019781
0.00015363
0.0015887
0.00015184
0.00089294
0.00049893
0.00015716
2.0049e-05
0.0045788
4.2736e-08
4.0162e-05
0.0044887
5.9712e-05
0.0043296
7.8286e-05
0.0040987
9.5536e-05
0.003799
0.00011105
0.0034353
0.00012517
0.0030091
0.0001348
0.002563
0.00014601
0.0019669
0.00015387
0.0015808
0.00015233
0.00089448
0.00049405
0.00015721
2.0049e-05
0.0045587
4.4161e-08
4.0164e-05
0.0044686
5.9715e-05
0.0043101
7.8289e-05
0.0040801
9.5542e-05
0.0037817
0.00011105
0.0034198
0.00012521
0.0029949
0.00013479
0.0025534
0.00014584
0.0019558
0.00015407
0.0015726
0.00015282
0.00089574
0.00048955
0.00015732
2.0049e-05
0.0045386
4.5591e-08
4.0165e-05
0.0044485
5.9717e-05
0.0042905
7.8293e-05
0.0040616
9.5548e-05
0.0037645
0.00011104
0.0034043
0.00012525
0.0029807
0.00013478
0.0025438
0.00014567
0.0019449
0.00015423
0.001564
0.0001533
0.00089667
0.00048536
0.00015748
2.0049e-05
0.0045185
4.7025e-08
4.0166e-05
0.0044284
5.972e-05
0.0042709
7.8296e-05
0.004043
9.5554e-05
0.0037472
0.00011104
0.0033888
0.00012529
0.0029664
0.00013479
0.0025343
0.00014549
0.0019342
0.00015436
0.0015552
0.00015376
0.00089728
0.00048145
0.00015767
2.0049e-05
0.0044984
4.8464e-08
4.0167e-05
0.0044082
5.9722e-05
0.0042514
7.8299e-05
0.0040244
9.5561e-05
0.00373
0.00011103
0.0033733
0.00012533
0.0029522
0.0001348
0.0025249
0.0001453
0.0019237
0.00015446
0.001546
0.0001542
0.00089754
0.00047775
0.0001579
2.0049e-05
0.0044783
4.9908e-08
4.0168e-05
0.0043881
5.9725e-05
0.0042318
7.8303e-05
0.0040058
9.5567e-05
0.0037127
0.00011103
0.0033579
0.00012536
0.0029378
0.00013483
0.0025154
0.00014512
0.0019134
0.00015452
0.0015366
0.00015462
0.00089743
0.00047422
0.00015814
2.0049e-05
0.0044582
5.1357e-08
4.0169e-05
0.004368
5.9728e-05
0.0042123
7.8306e-05
0.0039873
9.5574e-05
0.0036954
0.00011102
0.0033424
0.0001254
0.0029234
0.00013486
0.0025059
0.00014494
0.0019034
0.00015454
0.001527
0.00015501
0.00089697
0.00047083
0.0001584
2.0048e-05
0.0044381
5.2811e-08
4.0171e-05
0.0043479
5.973e-05
0.0041927
7.831e-05
0.0039687
9.5581e-05
0.0036781
0.00011101
0.003327
0.00012544
0.002909
0.0001349
0.0024965
0.00014477
0.0018935
0.00015454
0.0015173
0.00015537
0.00089614
0.00046753
0.00015867
2.0048e-05
0.004418
5.427e-08
4.0172e-05
0.0043277
5.9733e-05
0.0041732
7.8313e-05
0.0039501
9.5589e-05
0.0036609
0.00011101
0.0033116
0.00012547
0.0028945
0.00013494
0.002487
0.0001446
0.0018838
0.00015451
0.0015073
0.0001557
0.00089496
0.0004643
0.00015893
2.0048e-05
0.0043979
5.5734e-08
4.0173e-05
0.0043076
5.9736e-05
0.0041536
7.8317e-05
0.0039315
9.5597e-05
0.0036436
0.000111
0.0032962
0.00012551
0.00288
0.000135
0.0024775
0.00014444
0.0018744
0.00015446
0.0014973
0.000156
0.00089342
0.00046111
0.00015919
2.0048e-05
0.0043778
5.7204e-08
4.0174e-05
0.0042875
5.9738e-05
0.004134
7.832e-05
0.0039129
9.5604e-05
0.0036263
0.00011099
0.0032808
0.00012554
0.0028655
0.00013506
0.002468
0.00014428
0.0018652
0.00015438
0.0014872
0.00015626
0.00089155
0.00045793
0.00015944
2.0048e-05
0.0043577
5.8679e-08
4.0176e-05
0.0042674
5.9741e-05
0.0041145
7.8323e-05
0.0038943
9.5613e-05
0.003609
0.00011098
0.0032654
0.00012557
0.0028509
0.00013513
0.0024585
0.00014413
0.0018562
0.00015429
0.0014771
0.00015649
0.00088934
0.00045476
0.00015967
2.0048e-05
0.0043376
6.016e-08
4.0177e-05
0.0042472
5.9744e-05
0.0040949
7.8327e-05
0.0038758
9.5621e-05
0.0035917
0.00011097
0.0032501
0.0001256
0.0028363
0.00013521
0.0024488
0.000144
0.0018474
0.00015418
0.0014669
0.0001567
0.00088682
0.00045156
0.00015989
2.0048e-05
0.0043174
6.1647e-08
4.0178e-05
0.0042271
5.9747e-05
0.0040753
7.833e-05
0.0038572
9.563e-05
0.0035744
0.00011097
0.0032347
0.00012563
0.0028216
0.00013529
0.0024392
0.00014387
0.0018388
0.00015405
0.0014567
0.00015687
0.000884
0.00044833
0.00016009
2.0048e-05
0.0042973
6.3139e-08
4.0179e-05
0.004207
5.9749e-05
0.0040558
7.8334e-05
0.0038386
9.5639e-05
0.0035571
0.00011096
0.0032194
0.00012566
0.0028069
0.00013538
0.0024295
0.00014376
0.0018304
0.00015391
0.0014465
0.00015701
0.00088091
0.00044506
0.00016028
2.0048e-05
0.0042772
6.4637e-08
4.0181e-05
0.0041868
5.9752e-05
0.0040362
7.8337e-05
0.00382
9.5649e-05
0.0035398
0.00011095
0.0032041
0.00012568
0.0027922
0.00013548
0.0024197
0.00014366
0.0018222
0.00015376
0.0014364
0.00015712
0.00087755
0.00044174
0.00016044
2.0048e-05
0.0042571
6.6141e-08
4.0182e-05
0.0041667
5.9755e-05
0.0040166
7.8341e-05
0.0038014
9.5659e-05
0.0035225
0.00011094
0.0031888
0.0001257
0.0027774
0.00013558
0.0024098
0.00014357
0.0018142
0.00015361
0.0014264
0.00015721
0.00087395
0.00043837
0.00016058
2.0048e-05
0.004237
6.7651e-08
4.0183e-05
0.0041466
5.9758e-05
0.003997
7.8344e-05
0.0037828
9.5669e-05
0.0035052
0.00011093
0.0031736
0.00012572
0.0027626
0.00013569
0.0023998
0.0001435
0.0018064
0.00015345
0.0014165
0.00015727
0.00087012
0.00043493
0.00016071
2.0047e-05
0.0042169
6.9167e-08
4.0184e-05
0.0041264
5.9761e-05
0.0039775
7.8348e-05
0.0037643
9.5679e-05
0.0034878
0.00011092
0.0031583
0.00012573
0.0027478
0.0001358
0.0023898
0.00014344
0.0017988
0.00015328
0.0014066
0.00015731
0.0008661
0.00043143
0.00016081
2.0047e-05
0.0041968
7.069e-08
4.0186e-05
0.0041063
5.9764e-05
0.0039579
7.8351e-05
0.0037457
9.569e-05
0.0034705
0.00011091
0.0031431
0.00012575
0.002733
0.00013591
0.0023796
0.0001434
0.0017913
0.00015312
0.0013969
0.00015733
0.00086189
0.00042787
0.00016089
2.0047e-05
0.0041766
7.2219e-08
4.0187e-05
0.0040862
5.9767e-05
0.0039383
7.8354e-05
0.0037271
9.5701e-05
0.0034531
0.00011091
0.0031279
0.00012576
0.0027181
0.00013603
0.0023693
0.00014337
0.001784
0.00015296
0.0013873
0.00015734
0.00085751
0.00042425
0.00016096
2.0047e-05
0.0041565
7.3755e-08
4.0188e-05
0.004066
5.977e-05
0.0039187
7.8358e-05
0.0037085
9.5712e-05
0.0034358
0.0001109
0.0031127
0.00012576
0.0027033
0.00013615
0.0023589
0.00014335
0.0017768
0.00015281
0.0013778
0.00015732
0.000853
0.00042057
0.00016101
2.0047e-05
0.0041364
7.5297e-08
4.019e-05
0.0040459
5.9773e-05
0.0038991
7.8361e-05
0.0036899
9.5724e-05
0.0034184
0.00011089
0.0030975
0.00012577
0.0026884
0.00013627
0.0023484
0.00014335
0.0017697
0.00015266
0.0013685
0.0001573
0.00084835
0.00041683
0.00016104
2.0047e-05
0.0041163
7.6846e-08
4.0191e-05
0.0040257
5.9776e-05
0.0038796
7.8364e-05
0.0036713
9.5736e-05
0.0034011
0.00011088
0.0030824
0.00012577
0.0026735
0.00013639
0.0023378
0.00014337
0.0017627
0.00015251
0.0013594
0.00015727
0.0008436
0.00041304
0.00016106
2.0047e-05
0.0040961
7.8402e-08
4.0192e-05
0.0040056
5.9779e-05
0.00386
7.8368e-05
0.0036527
9.5748e-05
0.0033837
0.00011088
0.0030673
0.00012576
0.0026586
0.00013651
0.0023271
0.00014339
0.0017558
0.00015238
0.0013504
0.00015722
0.00083876
0.0004092
0.00016106
2.0047e-05
0.004076
7.9965e-08
4.0194e-05
0.0039854
5.9782e-05
0.0038404
7.8371e-05
0.0036341
9.5761e-05
0.0033663
0.00011087
0.0030521
0.00012576
0.0026437
0.00013663
0.0023162
0.00014343
0.001749
0.00015226
0.0013416
0.00015718
0.00083384
0.00040532
0.00016106
2.0047e-05
0.0040559
8.1536e-08
4.0195e-05
0.0039653
5.9785e-05
0.0038208
7.8374e-05
0.0036155
9.5774e-05
0.0033489
0.00011087
0.0030371
0.00012575
0.0026288
0.00013675
0.0023052
0.00014349
0.0017423
0.00015214
0.0013329
0.00015712
0.00082886
0.0004014
0.00016104
2.0047e-05
0.0040358
8.3114e-08
4.0196e-05
0.0039451
5.9788e-05
0.0038012
7.8377e-05
0.003597
9.5787e-05
0.0033315
0.00011086
0.003022
0.00012574
0.002614
0.00013687
0.002294
0.00014355
0.0017356
0.00015204
0.0013244
0.00015707
0.00082384
0.00039744
0.00016102
2.0047e-05
0.0040156
8.4699e-08
4.0198e-05
0.003925
5.9791e-05
0.0037816
7.8381e-05
0.0035784
9.58e-05
0.0033141
0.00011086
0.0030069
0.00012572
0.0025991
0.00013699
0.0022828
0.00014363
0.001729
0.00015196
0.0013161
0.00015701
0.00081878
0.00039346
0.00016099
2.0047e-05
0.0039955
8.6292e-08
4.0199e-05
0.0039048
5.9794e-05
0.003762
7.8384e-05
0.0035598
9.5814e-05
0.0032966
0.00011086
0.0029919
0.0001257
0.0025843
0.0001371
0.0022714
0.00014372
0.0017223
0.00015188
0.0013079
0.00015696
0.0008137
0.00038946
0.00016096
2.0047e-05
0.0039754
8.7893e-08
4.0201e-05
0.0038847
5.9798e-05
0.0037424
7.8387e-05
0.0035412
9.5827e-05
0.0032792
0.00011086
0.0029768
0.00012568
0.0025694
0.00013721
0.0022599
0.00014382
0.0017157
0.00015182
0.0012999
0.00015691
0.00080862
0.00038544
0.00016092
2.0046e-05
0.0039552
8.9501e-08
4.0202e-05
0.0038645
5.9801e-05
0.0037228
7.839e-05
0.0035226
9.5841e-05
0.0032617
0.00011086
0.0029618
0.00012566
0.0025546
0.00013731
0.0022482
0.00014392
0.0017091
0.00015177
0.0012921
0.00015686
0.00080353
0.00038141
0.00016088
2.0046e-05
0.0039351
9.1118e-08
4.0203e-05
0.0038444
5.9804e-05
0.0037032
7.8393e-05
0.003504
9.5855e-05
0.0032443
0.00011086
0.0029468
0.00012563
0.0025399
0.00013742
0.0022364
0.00014404
0.0017025
0.00015173
0.0012844
0.00015681
0.00079845
0.00037738
0.00016085
2.0046e-05
0.003915
9.2743e-08
4.0205e-05
0.0038242
5.9808e-05
0.0036836
7.8396e-05
0.0034854
9.5869e-05
0.0032268
0.00011086
0.0029318
0.0001256
0.0025251
0.00013751
0.0022245
0.00014416
0.0016958
0.00015171
0.0012769
0.00015678
0.00079338
0.00037335
0.00016081
2.0046e-05
0.0038948
9.4376e-08
4.0206e-05
0.0038041
5.9811e-05
0.003664
7.84e-05
0.0034668
9.5883e-05
0.0032093
0.00011087
0.0029168
0.00012557
0.0025104
0.0001376
0.0022125
0.00014429
0.0016892
0.0001517
0.0012694
0.00015674
0.00078834
0.00036933
0.00016077
2.0046e-05
0.0038747
9.6018e-08
4.0208e-05
0.0037839
5.9815e-05
0.0036444
7.8403e-05
0.0034482
9.5898e-05
0.0031918
0.00011087
0.0029019
0.00012554
0.0024957
0.00013769
0.0022003
0.00014442
0.0016824
0.00015171
0.0012622
0.00015672
0.00078333
0.00036531
0.00016073
2.0046e-05
0.0038545
9.7669e-08
4.0209e-05
0.0037637
5.9818e-05
0.0036248
7.8406e-05
0.0034297
9.5912e-05
0.0031743
0.00011088
0.0028869
0.00012551
0.0024811
0.00013777
0.0021881
0.00014456
0.0016756
0.00015172
0.001255
0.0001567
0.00077835
0.00036132
0.0001607
2.0046e-05
0.0038344
9.9328e-08
4.0211e-05
0.0037436
5.9822e-05
0.0036052
7.8409e-05
0.0034111
9.5926e-05
0.0031568
0.00011089
0.0028719
0.00012547
0.0024665
0.00013784
0.0021757
0.0001447
0.0016688
0.00015175
0.0012479
0.00015669
0.00077341
0.00035734
0.00016067
2.0046e-05
0.0038142
1.01e-07
4.0212e-05
0.0037234
5.9825e-05
0.0035856
7.8412e-05
0.0033925
9.594e-05
0.0031393
0.0001109
0.002857
0.00012543
0.002452
0.00013791
0.0021632
0.00014484
0.0016619
0.00015179
0.001241
0.00015669
0.00076851
0.00035339
0.00016064
2.0046e-05
0.0037941
1.0267e-07
4.0214e-05
0.0037032
5.9829e-05
0.003566
7.8415e-05
0.0033739
9.5955e-05
0.0031217
0.00011091
0.002842
0.0001254
0.0024375
0.00013797
0.0021507
0.00014498
0.0016549
0.00015183
0.0012341
0.00015669
0.00076365
0.00034947
0.00016062
2.0046e-05
0.0037739
1.0436e-07
4.0215e-05
0.0036831
5.9833e-05
0.0035463
7.8418e-05
0.0033553
9.5969e-05
0.0031042
0.00011093
0.0028271
0.00012536
0.0024231
0.00013802
0.002138
0.00014512
0.0016478
0.00015189
0.0012274
0.00015671
0.00075883
0.00034558
0.0001606
2.0046e-05
0.0037538
1.0606e-07
4.0217e-05
0.0036629
5.9837e-05
0.0035267
7.8421e-05
0.0033367
9.5983e-05
0.0030866
0.00011094
0.0028121
0.00012532
0.0024087
0.00013807
0.0021253
0.00014526
0.0016406
0.00015196
0.0012207
0.00015673
0.00075406
0.00034172
0.00016059
2.0046e-05
0.0037336
1.0777e-07
4.0219e-05
0.0036427
5.984e-05
0.0035071
7.8424e-05
0.0033181
9.5997e-05
0.003069
0.00011096
0.0027971
0.00012528
0.0023944
0.00013811
0.0021124
0.0001454
0.0016333
0.00015203
0.001214
0.00015676
0.00074933
0.0003379
0.00016058
2.0046e-05
0.0037135
1.0948e-07
4.022e-05
0.0036225
5.9844e-05
0.0034875
7.8428e-05
0.0032996
9.601e-05
0.0030515
0.00011098
0.0027822
0.00012524
0.0023801
0.00013815
0.0020995
0.00014554
0.0016259
0.00015211
0.0012075
0.00015679
0.00074464
0.00033412
0.00016057
2.0046e-05
0.0036933
1.1121e-07
4.0222e-05
0.0036024
5.9848e-05
0.0034678
7.8431e-05
0.003281
9.6024e-05
0.0030339
0.000111
0.0027672
0.0001252
0.0023659
0.00013818
0.0020865
0.00014568
0.0016184
0.00015219
0.001201
0.00015683
0.00074
0.00033038
0.00016057
2.0046e-05
0.0036732
1.1295e-07
4.0223e-05
0.0035822
5.9852e-05
0.0034482
7.8434e-05
0.0032624
9.6037e-05
0.0030163
0.00011103
0.0027522
0.00012517
0.0023518
0.0001382
0.0020735
0.00014581
0.0016108
0.00015229
0.0011945
0.00015688
0.00073541
0.00032669
0.00016058
2.0046e-05
0.003653
1.147e-07
4.0225e-05
0.003562
5.9856e-05
0.0034286
7.8437e-05
0.0032438
9.605e-05
0.0029987
0.00011105
0.0027372
0.00012513
0.0023377
0.00013821
0.0020604
0.00014594
0.001603
0.00015238
0.001188
0.00015694
0.00073085
0.00032304
0.00016059
2.0046e-05
0.0036328
1.1645e-07
4.0227e-05
0.0035418
5.986e-05
0.0034089
7.8441e-05
0.0032252
9.6063e-05
0.002981
0.00011108
0.0027222
0.00012509
0.0023237
0.00013823
0.0020473
0.00014606
0.0015952
0.00015248
0.0011816
0.000157
0.00072633
0.00031944
0.0001606
2.0045e-05
0.0036127
1.1822e-07
4.0228e-05
0.0035216
5.9864e-05
0.0033893
7.8444e-05
0.0032067
9.6075e-05
0.0029634
0.00011111
0.0027071
0.00012506
0.0023097
0.00013823
0.0020341
0.00014618
0.0015872
0.00015258
0.0011752
0.00015706
0.00072185
0.00031588
0.00016062
2.0045e-05
0.0035925
1.2e-07
4.023e-05
0.0035015
5.9868e-05
0.0033697
7.8448e-05
0.0031881
9.6087e-05
0.0029458
0.00011113
0.0026921
0.00012503
0.0022959
0.00013823
0.0020209
0.0001463
0.0015792
0.00015268
0.0011688
0.00015713
0.0007174
0.00031238
0.00016064
2.0045e-05
0.0035723
1.218e-07
4.0232e-05
0.0034813
5.9873e-05
0.00335
7.8451e-05
0.0031695
9.6098e-05
0.0029281
0.00011116
0.002677
0.000125
0.002282
0.00013823
0.0020077
0.0001464
0.001571
0.00015278
0.0011625
0.0001572
0.00071298
0.00030891
0.00016066
2.0045e-05
0.0035522
1.236e-07
4.0234e-05
0.0034611
5.9877e-05
0.0033304
7.8455e-05
0.0031509
9.611e-05
0.0029105
0.0001112
0.0026619
0.00012497
0.0022683
0.00013822
0.0019944
0.00014651
0.0015627
0.00015289
0.0011561
0.00015728
0.00070859
0.0003055
0.00016069
2.0045e-05
0.003532
1.2542e-07
4.0235e-05
0.0034409
5.9881e-05
0.0033107
7.8459e-05
0.0031323
9.612e-05
0.0028928
0.00011123
0.0026468
0.00012494
0.0022545
0.00013821
0.0019812
0.0001466
0.0015543
0.00015299
0.0011497
0.00015735
0.00070423
0.00030213
0.00016072
2.0045e-05
0.0035118
1.2725e-07
4.0237e-05
0.0034207
5.9886e-05
0.0032911
7.8463e-05
0.0031138
9.6131e-05
0.0028751
0.00011126
0.0026317
0.00012492
0.0022409
0.00013819
0.0019679
0.00014669
0.0015458
0.00015309
0.0011433
0.00015743
0.00069989
0.00029881
0.00016075
2.0045e-05
0.0034917
1.2909e-07
4.0239e-05
0.0034005
5.989e-05
0.0032714
7.8467e-05
0.0030952
9.6141e-05
0.0028575
0.0001113
0.0026165
0.0001249
0.0022273
0.00013817
0.0019546
0.00014678
0.0015372
0.0001532
0.0011369
0.00015752
0.00069557
0.00029554
0.00016079
2.0045e-05
0.0034715
1.3094e-07
4.0241e-05
0.0033803
5.9894e-05
0.0032518
7.8471e-05
0.0030766
9.615e-05
0.0028398
0.00011134
0.0026014
0.00012488
0.0022138
0.00013815
0.0019413
0.00014686
0.0015285
0.0001533
0.0011304
0.0001576
0.00069127
0.00029231
0.00016083
2.0045e-05
0.0034513
1.3281e-07
4.0243e-05
0.0033601
5.9899e-05
0.0032321
7.8475e-05
0.003058
9.6159e-05
0.0028221
0.00011137
0.0025861
0.00012486
0.0022003
0.00013813
0.0019281
0.00014693
0.0015197
0.00015339
0.001124
0.00015768
0.00068698
0.00028912
0.00016087
2.0045e-05
0.0034311
1.3469e-07
4.0245e-05
0.0033399
5.9903e-05
0.0032125
7.8479e-05
0.0030395
9.6168e-05
0.0028044
0.00011141
0.0025709
0.00012485
0.0021868
0.0001381
0.0019148
0.000147
0.0015108
0.00015349
0.0011175
0.00015777
0.00068271
0.00028598
0.00016091
2.0045e-05
0.0034109
1.3658e-07
4.0247e-05
0.0033197
5.9908e-05
0.0031928
7.8484e-05
0.0030209
9.6176e-05
0.0027867
0.00011145
0.0025556
0.00012484
0.0021734
0.00013808
0.0019016
0.00014706
0.0015018
0.00015358
0.001111
0.00015785
0.00067844
0.00028288
0.00016095
2.0045e-05
0.0033908
1.3849e-07
4.0249e-05
0.0032995
5.9913e-05
0.0031732
7.8489e-05
0.0030023
9.6184e-05
0.002769
0.00011149
0.0025403
0.00012483
0.0021601
0.00013805
0.0018883
0.00014712
0.0014927
0.00015367
0.0011044
0.00015793
0.00067418
0.00027982
0.00016099
2.0045e-05
0.0033706
1.4041e-07
4.025e-05
0.0032793
5.9917e-05
0.0031535
7.8494e-05
0.0029837
9.6191e-05
0.0027513
0.00011153
0.002525
0.00012482
0.0021468
0.00013802
0.0018752
0.00014717
0.0014836
0.00015376
0.0010978
0.00015802
0.00066992
0.0002768
0.00016104
2.0045e-05
0.0033504
1.4234e-07
4.0252e-05
0.0032591
5.9922e-05
0.0031338
7.8499e-05
0.0029652
9.6198e-05
0.0027336
0.00011157
0.0025096
0.00012482
0.0021336
0.00013799
0.001862
0.00014722
0.0014744
0.00015384
0.0010912
0.0001581
0.00066567
0.00027382
0.00016108
2.0045e-05
0.0033302
1.4429e-07
4.0255e-05
0.0032389
5.9927e-05
0.0031141
7.8504e-05
0.0029466
9.6205e-05
0.0027159
0.00011161
0.0024942
0.00012482
0.0021203
0.00013796
0.0018489
0.00014726
0.0014651
0.00015393
0.0010846
0.00015818
0.00066141
0.00027087
0.00016113
2.0045e-05
0.00331
1.4626e-07
4.0257e-05
0.0032187
5.9932e-05
0.0030945
7.8509e-05
0.002928
9.6211e-05
0.0026982
0.00011165
0.0024788
0.00012483
0.0021072
0.00013793
0.0018357
0.0001473
0.0014557
0.000154
0.0010779
0.00015826
0.00065715
0.00026796
0.00016118
2.0045e-05
0.0032898
1.4824e-07
4.0259e-05
0.0031985
5.9937e-05
0.0030748
7.8515e-05
0.0029094
9.6217e-05
0.0026805
0.00011169
0.0024633
0.00012484
0.002094
0.0001379
0.0018227
0.00014734
0.0014463
0.00015408
0.0010711
0.00015834
0.00065288
0.00026508
0.00016122
2.0045e-05
0.0032696
1.5024e-07
4.0261e-05
0.0031783
5.9941e-05
0.0030551
7.8521e-05
0.0028908
9.6222e-05
0.0026628
0.00011173
0.0024478
0.00012485
0.0020809
0.00013787
0.0018097
0.00014737
0.0014368
0.00015415
0.0010643
0.00015842
0.00064861
0.00026223
0.00016127
2.0045e-05
0.0032494
1.5225e-07
4.0263e-05
0.003158
5.9946e-05
0.0030354
7.8527e-05
0.0028723
9.6227e-05
0.0026451
0.00011177
0.0024323
0.00012486
0.0020678
0.00013785
0.0017967
0.0001474
0.0014272
0.00015422
0.0010575
0.0001585
0.00064433
0.00025941
0.00016132
2.0045e-05
0.0032292
1.5428e-07
4.0265e-05
0.0031378
5.9951e-05
0.0030157
7.8533e-05
0.0028537
9.6232e-05
0.0026274
0.00011181
0.0024167
0.00012487
0.0020547
0.00013782
0.0017837
0.00014742
0.0014176
0.00015428
0.0010506
0.00015857
0.00064004
0.00025662
0.00016136
2.0045e-05
0.003209
1.5632e-07
4.0267e-05
0.0031176
5.9957e-05
0.002996
7.8539e-05
0.0028351
9.6236e-05
0.0026097
0.00011185
0.0024011
0.00012489
0.0020417
0.0001378
0.0017708
0.00014744
0.001408
0.00015435
0.0010437
0.00015865
0.00063574
0.00025386
0.00016141
2.0045e-05
0.0031888
1.5838e-07
4.0269e-05
0.0030974
5.9962e-05
0.0029764
7.8546e-05
0.0028165
9.624e-05
0.002592
0.00011189
0.0023854
0.00012491
0.0020287
0.00013778
0.001758
0.00014746
0.0013983
0.00015441
0.0010368
0.00015872
0.00063142
0.00025112
0.00016146
2.0045e-05
0.0031686
1.6046e-07
4.0272e-05
0.0030771
5.9967e-05
0.0029567
7.8553e-05
0.0027979
9.6244e-05
0.0025743
0.00011192
0.0023697
0.00012494
0.0020156
0.00013776
0.0017451
0.00014748
0.0013885
0.00015446
0.0010298
0.00015879
0.00062709
0.00024841
0.0001615
2.0045e-05
0.0031484
1.6256e-07
4.0274e-05
0.0030569
5.9972e-05
0.002937
7.856e-05
0.0027793
9.6248e-05
0.0025566
0.00011196
0.002354
0.00012496
0.0020026
0.00013774
0.0017324
0.0001475
0.0013788
0.00015452
0.0010228
0.00015886
0.00062275
0.00024572
0.00016155
2.0045e-05
0.0031282
1.6467e-07
4.0276e-05
0.0030367
5.9977e-05
0.0029173
7.8567e-05
0.0027607
9.6251e-05
0.002539
0.000112
0.0023383
0.00012499
0.0019897
0.00013772
0.0017196
0.00014751
0.001369
0.00015457
0.0010158
0.00015893
0.00061839
0.00024305
0.00016159
2.0045e-05
0.003108
1.6681e-07
4.0279e-05
0.0030164
5.9983e-05
0.0028976
7.8575e-05
0.0027422
9.6254e-05
0.0025213
0.00011204
0.0023225
0.00012502
0.0019767
0.00013771
0.0017069
0.00014753
0.0013592
0.00015462
0.0010087
0.00015899
0.00061401
0.00024041
0.00016164
2.0045e-05
0.0030878
1.6896e-07
4.0281e-05
0.0029962
5.9988e-05
0.0028779
7.8582e-05
0.0027236
9.6257e-05
0.0025036
0.00011207
0.0023067
0.00012505
0.0019637
0.00013769
0.0016943
0.00014754
0.0013493
0.00015466
0.0010015
0.00015906
0.00060962
0.00023778
0.00016169
2.0045e-05
0.0030675
1.7113e-07
4.0283e-05
0.002976
5.9993e-05
0.0028581
7.859e-05
0.002705
9.626e-05
0.0024859
0.00011211
0.0022908
0.00012508
0.0019507
0.00013769
0.0016817
0.00014755
0.0013395
0.00015471
0.00099437
0.00015912
0.00060521
0.00023517
0.00016173
2.0045e-05
0.0030473
1.7332e-07
4.0286e-05
0.0029557
5.9999e-05
0.0028384
7.8598e-05
0.0026864
9.6263e-05
0.0024683
0.00011214
0.0022749
0.00012512
0.0019378
0.00013768
0.0016691
0.00014756
0.0013296
0.00015475
0.00098718
0.00015918
0.00060078
0.00023258
0.00016177
2.0045e-05
0.0030271
1.7554e-07
4.0288e-05
0.0029355
6.0004e-05
0.0028187
7.8607e-05
0.0026678
9.6266e-05
0.0024506
0.00011218
0.002259
0.00012515
0.0019248
0.00013767
0.0016566
0.00014757
0.0013197
0.00015479
0.00097995
0.00015924
0.00059633
0.00023
0.00016182
2.0045e-05
0.0030069
1.7777e-07
4.0291e-05
0.0029152
6.001e-05
0.002799
7.8615e-05
0.0026492
9.6269e-05
0.002433
0.00011221
0.0022431
0.00012519
0.0019118
0.00013767
0.0016441
0.00014758
0.0013098
0.00015483
0.0009727
0.0001593
0.00059187
0.00022744
0.00016186
2.0045e-05
0.0029867
1.8002e-07
4.0293e-05
0.002895
6.0015e-05
0.0027793
7.8624e-05
0.0026305
9.6272e-05
0.0024153
0.00011224
0.0022271
0.00012523
0.0018988
0.00013767
0.0016317
0.00014759
0.0012999
0.00015487
0.00096541
0.00015936
0.00058738
0.00022489
0.00016191
2.0046e-05
0.0029664
1.823e-07
4.0296e-05
0.0028747
6.0021e-05
0.0027595
7.8633e-05
0.0026119
9.6274e-05
0.0023977
0.00011228
0.0022111
0.00012527
0.0018858
0.00013767
0.0016193
0.0001476
0.0012899
0.00015491
0.0009581