/*--------------------------------*- C++ -*----------------------------------*\
  =========                 |
  \\      /  F ield         | OpenFOAM: The Open Source CFD Toolbox
   \\    /   O peration     | Website:  https://openfoam.org
    \\  /    A nd           | Version:  6.0
     \\/     M anipulation  |
\*---------------------------------------------------------------------------*/
FoamFile
{
    version     2.0;
    format      ascii;
    class       surfaceScalarField;
    location    "5";
    object      phi;
}
// * * * * * * * * * * * * * * * * * * * * * * * * * * * * * * * * * * * * * //

dimensions      [0 3 -1 0 0 0 0];

internalField   nonuniform List<scalar> 
93586
(
2.35598e-05
0.00154662
-1.35704e-07
4.72401e-05
0.00154213
7.09916e-05
0.0015336
9.46681e-05
0.00152105
0.000118155
0.00150441
0.000141409
0.00148361
0.000164366
0.00145861
0.000186979
0.0014294
0.000209167
0.00139602
0.000230854
0.0013586
0.000251948
0.00131729
0.000272371
0.00127229
0.000292046
0.0012238
0.000310908
0.00117203
0.000328898
0.00111715
0.000345964
0.00105935
0.000362062
0.000998773
0.000377147
0.000935578
0.000391182
0.000869921
0.000404129
0.000801957
0.000415954
0.000731853
0.000426625
0.000659782
0.000436114
0.000585928
0.000444395
0.000510476
0.000451444
0.000433623
0.000457244
0.000355562
0.000461774
0.000276487
0.000465137
0.000196468
0.000466701
0.000116161
3.47426e-05
0.000463988
2.30109e-05
0.00152375
-1.28529e-07
4.61751e-05
0.00151898
6.94626e-05
0.00151033
9.27412e-05
0.0014978
0.000115896
0.00148128
0.000138871
0.00146068
0.000161584
0.00143594
0.000183967
0.00140706
0.000205925
0.0013741
0.000227373
0.00133719
0.000248214
0.00129648
0.000268371
0.00125216
0.000287771
0.00120443
0.000306354
0.00115347
0.000324065
0.00109946
0.00034086
0.00104257
0.000356696
0.000982956
0.000371533
0.000920758
0.000385333
0.000856135
0.000398064
0.00078924
0.000409691
0.00072024
0.000420184
0.000649302
0.000429514
0.000576609
0.000437656
0.000502345
0.000444588
0.000426702
0.000450289
0.000349871
0.000454736
0.00027205
0.000457947
0.000193268
0.000459582
0.000114537
3.55818e-05
0.000458754
2.25575e-05
0.0015013
-9.97209e-08
4.53186e-05
0.00149622
6.82381e-05
0.00148741
9.11872e-05
0.00147486
0.000114046
0.00145843
0.000136746
0.001438
0.000159191
0.0014135
0.000181303
0.00138496
0.00020298
0.00135243
0.000224137
0.00131604
0.000244676
0.00127594
0.000264529
0.00123231
0.000283623
0.00118533
0.000301906
0.00113519
0.000319326
0.00108204
0.00033584
0.00102606
0.000351409
0.000967388
0.000365994
0.000906173
0.00037956
0.000842569
0.000392074
0.000776727
0.000403502
0.000708811
0.000413816
0.000638989
0.000422985
0.00056744
0.000430986
0.000494344
0.000437795
0.000419893
0.00044339
0.000344276
0.000447747
0.000267693
0.00045082
0.000190196
0.000452562
0.000112795
3.55446e-05
0.000452602
2.21857e-05
0.0014792
-7.38347e-08
4.46104e-05
0.00147382
6.72085e-05
0.00146483
8.98508e-05
0.00145225
0.000112413
0.00143589
0.00013482
0.00141563
0.000156968
0.00139138
0.000178777
0.0013632
0.000200142
0.0013311
0.000220981
0.00129524
0.0002412
0.00125575
0.000260736
0.00121281
0.000279518
0.00116658
0.000297498
0.00111723
0.000314626
0.00106494
0.000330863
0.00100985
0.000346169
0.000952102
0.000360508
0.000891853
0.000373844
0.000829249
0.000386146
0.000764441
0.000397379
0.000697592
0.000407516
0.000628865
0.000416528
0.000558441
0.000424389
0.000486495
0.000431075
0.000413218
0.000436565
0.000338798
0.000440831
0.000263438
0.000443818
0.000187222
0.000445545
0.000111081
3.52601e-05
0.000445845
2.18485e-05
0.0014574
-5.34176e-08
4.39608e-05
0.0014517
6.62527e-05
0.00144253
8.85929e-05
0.00142991
0.000110855
0.00141362
0.000132958
0.00139353
0.000154796
0.00136954
0.000176287
0.00134171
0.000197329
0.00131005
0.000217843
0.00127473
0.000237738
0.00123585
0.000256955
0.00119359
0.000275428
0.0011481
0.00029311
0.00109955
0.000309953
0.00104809
0.000325919
0.000993877
0.000340969
0.000937049
0.000355068
0.000877752
0.000368181
0.000816134
0.000380276
0.000752345
0.00039132
0.000686546
0.000401286
0.000618899
0.000410144
0.000549582
0.000417869
0.000478769
0.000424437
0.00040665
0.000429825
0.00033341
0.000434007
0.000259255
0.000436933
0.000184296
0.000438632
0.000109383
3.4874e-05
0.000439019
2.15316e-05
0.00143592
-3.99681e-08
4.33444e-05
0.00142991
6.53369e-05
0.00142056
8.73756e-05
0.0014079
0.000109333
0.00139169
0.000131124
0.00137177
0.000152644
0.00134805
0.000173811
0.00132058
0.000194526
0.00128937
0.000214712
0.00125457
0.000234285
0.00121631
0.000253187
0.00117472
0.000271355
0.00112996
0.000288745
0.00108219
0.000305308
0.00103155
0.000321011
0.000978196
0.000335812
0.000922267
0.000349679
0.000863903
0.000362574
0.000803254
0.000374469
0.000740466
0.00038533
0.000675699
0.00039513
0.000609113
0.000403838
0.000540885
0.000411432
0.000471188
0.000417886
0.000400207
0.000423178
0.00032813
0.000427281
0.000255163
0.000430158
0.000181432
0.000431828
0.000107725
3.44764e-05
0.000432243
2.12275e-05
0.00141471
-1.59662e-08
4.27475e-05
0.00140838
6.44431e-05
0.00139885
8.61793e-05
0.00138616
0.000107828
0.00137003
0.000129303
0.0013503
0.0001505
0.00132685
0.00017134
0.00129974
0.000191726
0.00126897
0.000211586
0.00123471
0.000230839
0.00119705
0.000249431
0.00115612
0.0002673
0.00111208
0.000284405
0.00106508
0.000300697
0.00101525
0.000316143
0.000962746
0.000330702
0.000907702
0.000344343
0.000850259
0.000357028
0.000790564
0.000368728
0.000728762
0.000379411
0.000665012
0.00038905
0.000599472
0.000397614
0.000532318
0.000405081
0.000463719
0.000411425
0.000393861
0.000416625
0.000322929
0.000420655
0.00025113
0.000423485
0.000178602
0.000425129
0.00010608
3.40504e-05
0.000425555
2.09304e-05
0.00139379
3.3961e-09
4.21598e-05
0.00138717
6.35584e-05
0.00137747
8.49902e-05
0.00136475
0.000106328
0.00134872
0.000127484
0.00132917
0.000148357
0.001306
0.000168869
0.00127925
0.000188928
0.00124894
0.000208466
0.0012152
0.000227405
0.00117813
0.000245693
0.00113786
0.00026327
0.00109453
0.000280096
0.00104827
0.000296124
0.000999243
0.00031132
0.00094757
0.000325644
0.000893396
0.000339065
0.000836857
0.000351545
0.000778098
0.000363057
0.000717266
0.000373567
0.000654516
0.000383049
0.000590004
0.000391473
0.000523905
0.000398817
0.000456388
0.000405055
0.000387634
0.000410167
0.000317829
0.000414129
0.00024718
0.000416915
0.000175829
0.000418532
0.000104476
3.36428e-05
0.000418958
2.06376e-05
0.00137313
1.21232e-08
4.15758e-05
0.00136623
6.2676e-05
0.00135636
8.38016e-05
0.00134363
0.000104826
0.00132768
0.000125662
0.00130833
0.000146211
0.00128544
0.000166398
0.00125906
0.000186135
0.00122919
0.000205356
0.00119597
0.000223986
0.00115949
0.000241976
0.00111986
0.000259268
0.00107722
0.000275823
0.00103171
0.000291593
0.000983463
0.000306546
0.000932611
0.000320641
0.000879293
0.000333848
0.000823645
0.000346129
0.00076581
0.000357458
0.000705933
0.000367799
0.000644169
0.000377129
0.000580671
0.000385417
0.000515613
0.000392642
0.000449161
0.000398778
0.000381495
0.000403805
0.000312801
0.000407701
0.000243283
0.000410444
0.000173085
0.000412036
0.000102882
3.32158e-05
0.000412462
2.03465e-05
0.00135278
1.59967e-08
4.09922e-05
0.0013456
6.17925e-05
0.00133558
8.26104e-05
0.00132283
0.000103321
0.00130699
0.000123838
0.00128784
0.000144066
0.00126523
0.000163931
0.00123923
0.000183349
0.0012098
0.000202259
0.00117709
0.000220587
0.00114118
0.000238287
0.00110219
0.000255301
0.00106023
0.000271591
0.00101544
0.00028711
0.000967963
0.000301826
0.000917915
0.000315698
0.000865438
0.000328696
0.000810664
0.000340783
0.000753737
0.000351933
0.0006948
0.00036211
0.000634004
0.000371292
0.000571503
0.000379448
0.000507469
0.000386557
0.000442065
0.000392593
0.00037547
0.000397539
0.000307868
0.00040137
0.000239463
0.000404071
0.000170398
0.00040564
0.000101326
3.28129e-05
0.000406062
2.00565e-05
0.0013327
1.77484e-08
4.04082e-05
0.00132524
6.09072e-05
0.00131507
8.1417e-05
0.00130232
0.000101814
0.00128658
0.000122014
0.00126764
0.000141923
0.00124531
0.000161471
0.00121967
0.000180577
0.00119068
0.000199182
0.00115848
0.000217214
0.00112313
0.00023463
0.00108476
0.000251372
0.00104347
0.000267404
0.000999403
0.000282678
0.000952677
0.000297163
0.000903422
0.000310817
0.000851774
0.000323611
0.000797863
0.000335509
0.000741832
0.000346484
0.00068382
0.000356501
0.00062398
0.000365539
0.000562462
0.000373565
0.000499437
0.000380562
0.000435066
0.000386501
0.000369527
0.000391367
0.000303001
0.000395137
0.00023569
0.000397797
0.000167737
0.000399342
9.9779e-05
3.23912e-05
0.000399762
1.97668e-05
0.00131293
1.79296e-08
3.98235e-05
0.0013052
6.00208e-05
0.00129488
8.02227e-05
0.00128213
0.000100308
0.00126651
0.000120193
0.00124778
0.000139788
0.00122574
0.000159023
0.00120046
0.000177823
0.0011719
0.000196129
0.0011402
0.000213872
0.00110541
0.000231011
0.00106764
0.000247487
0.00102702
0.000263266
0.000983645
0.0002783
0.00093766
0.000292559
0.000889183
0.000306
0.000838348
0.000318596
0.000785285
0.000330308
0.000730133
0.000341112
0.000673032
0.000350973
0.000614132
0.000359869
0.000553581
0.000367769
0.000491548
0.000374655
0.000428194
0.000380501
0.000363693
0.000385289
0.000298226
0.000389
0.000231991
0.000391619
0.000165132
0.000393142
9.82699e-05
3.19955e-05
0.000393557
1.9478e-05
0.00129343
1.47404e-08
3.9239e-05
0.00128543
5.91347e-05
0.00127498
7.903e-05
0.00126223
9.88058e-05
0.00124673
0.00011838
0.00122819
0.000137664
0.00120644
0.000156593
0.00118153
0.000175091
0.00115338
0.000193104
0.00112217
0.000210565
0.00108793
0.000227431
0.00105077
0.000243648
0.00101078
0.00025918
0.000968103
0.00027398
0.000922847
0.000288017
0.000875137
0.000301249
0.000825105
0.00031365
0.000772877
0.000325181
0.000718593
0.000335818
0.00066239
0.000345525
0.000604417
0.000354283
0.000544819
0.00036206
0.000483766
0.000368838
0.000421413
0.000374591
0.000357936
0.000379305
0.000293511
0.000382957
0.000228336
0.000385537
0.000162552
0.000387037
9.67672e-05
3.15805e-05
0.00038745
1.91898e-05
0.00127424
1.17286e-08
3.86557e-05
0.00126598
5.82507e-05
0.0012554
7.78412e-05
0.00124266
9.73102e-05
0.00122727
0.000116576
0.00120895
0.000135555
0.00118748
0.000154183
0.00116292
0.000172386
0.0011352
0.000190112
0.00110447
0.000207296
0.00107077
0.000223896
0.00103419
0.000239858
0.000994839
0.000255148
0.000952834
0.000269718
0.000908294
0.000283538
0.000861336
0.000296566
0.000812091
0.000308776
0.000760684
0.000320129
0.000707253
0.000330601
0.000651933
0.000340159
0.000594871
0.000348781
0.000536211
0.000356437
0.000476121
0.00036311
0.000414755
0.000368773
0.000352284
0.000373412
0.000288886
0.000377008
0.000224753
0.000379549
0.000160026
0.000381027
9.53024e-05
3.11928e-05
0.000381436
1.89031e-05
0.00125532
9.1605e-09
3.80746e-05
0.00124679
5.73707e-05
0.00123609
7.66588e-05
0.00122336
9.58243e-05
0.0012081
0.000114787
0.00118998
0.000133466
0.00116879
0.000151797
0.00114458
0.000169711
0.00111727
0.000187155
0.00108701
0.000204067
0.00105384
0.000220407
0.00101784
0.00023612
0.00097911
0.000251172
0.00093777
0.000265516
0.000893935
0.000279123
0.00084772
0.000291951
0.000799252
0.000303973
0.000748655
0.000315151
0.000696065
0.000325463
0.000641616
0.000334873
0.000585453
0.000343362
0.000527718
0.0003509
0.000468578
0.000357469
0.000408183
0.000363044
0.000346705
0.000367611
0.000284317
0.000371151
0.00022121
0.000373653
0.000157523
0.000375111
9.38426e-05
3.07853e-05
0.000375516
1.86178e-05
0.00123671
6.90338e-09
3.7497e-05
0.00122793
5.64963e-05
0.0012171
7.54851e-05
0.00120439
9.43508e-05
0.00118925
0.000113015
0.00117134
0.000131397
0.00115042
0.000149438
0.00112656
0.000167068
0.00109966
0.000184236
0.00106987
0.000200882
0.00103721
0.000216966
0.00100177
0.000232434
0.000963658
0.000247253
0.000922971
0.000261375
0.000879828
0.000274773
0.00083434
0.000287404
0.000786635
0.000299242
0.000736834
0.000310248
0.000685071
0.000320402
0.000631478
0.000329667
0.000576199
0.000338026
0.000519374
0.000345447
0.000461168
0.000351914
0.00040173
0.000357403
0.000341228
0.0003619
0.000279835
0.000365385
0.000217738
0.00036785
0.000155073
0.000369286
9.24207e-05
3.04061e-05
0.000369686
1.83348e-05
0.00121836
4.71914e-09
3.69237e-05
0.00120932
5.56292e-05
0.00119838
7.43219e-05
0.00118569
9.28918e-05
0.00117066
0.000111261
0.00115296
0.000129353
0.00113232
0.000147108
0.0011088
0.000164459
0.00108229
0.000181357
0.00105295
0.000197741
0.00102081
0.000213573
0.000985926
0.000228801
0.000948413
0.000243391
0.000908369
0.000257296
0.000865907
0.000270488
0.000821138
0.000282925
0.000774185
0.000294582
0.000725169
0.000305419
0.000674222
0.000315418
0.000621474
0.000324541
0.000567068
0.000332771
0.00051114
0.000340078
0.000453855
0.000346446
0.000395359
0.000351849
0.00033582
0.000356277
0.000275406
0.000359708
0.000214303
0.000362136
0.000152645
0.000363552
9.10027e-05
3.00067e-05
0.000363949
1.80542e-05
0.00120031
2.96546e-09
3.63557e-05
0.00119104
5.47704e-05
0.00117998
7.31709e-05
0.00116731
9.1449e-05
0.0011524
0.000109529
0.0011349
0.000127335
0.00111453
0.000144808
0.00109135
0.000161885
0.00106523
0.000178517
0.00103634
0.000194645
0.0010047
0.000210231
0.000970361
0.000225222
0.000933437
0.000239587
0.000894024
0.000253277
0.00085223
0.000266268
0.000808166
0.000278514
0.000761952
0.000289993
0.000713708
0.000300664
0.000663562
0.00031051
0.000611645
0.000319493
0.000558096
0.000327597
0.000503051
0.000334791
0.000446672
0.000341062
0.000389104
0.000346382
0.000330512
0.000350741
0.000271061
0.00035412
0.000210937
0.000356512
0.000150269
0.000357907
8.96225e-05
2.96364e-05
0.000358299
1.77766e-05
0.00118252
1.50329e-09
3.57938e-05
0.00117301
5.39212e-05
0.00116184
7.20332e-05
0.00114918
9.00239e-05
0.00113439
0.000107818
0.00111709
0.000125343
0.00109699
0.000142541
0.00107413
0.000159349
0.0010484
0.00017572
0.00101996
0.000191595
0.0009888
0.000206938
0.000955002
0.000221697
0.00091866
0.000235841
0.000879867
0.00024932
0.000838733
0.000262112
0.000795364
0.00027417
0.00074988
0.000285474
0.000702396
0.000295982
0.000653042
0.000305677
0.000601944
0.000314523
0.000549241
0.000322503
0.000495067
0.000329587
0.000439581
0.000335761
0.000382928
0.000340999
0.000325269
0.000345292
0.000266767
0.000348619
0.000207606
0.000350975
0.000147913
0.00035235
8.82452e-05
2.92453e-05
0.000352739
1.7502e-05
0.00116503
9.32723e-11
3.52384e-05
0.00115528
5.30822e-05
0.00114401
7.09099e-05
0.00113137
8.86174e-05
0.0011167
0.000106131
0.0010996
0.00012338
0.00107976
0.000140306
0.00105723
0.00015685
0.00103188
0.000172964
0.00100386
0.000188591
0.000973187
0.000203696
0.000939917
0.000218226
0.000904144
0.000232152
0.000865961
0.000245424
0.000825474
0.00025802
0.000782787
0.000269894
0.000738019
0.000281025
0.000691282
0.000291373
0.000642706
0.00030092
0.000592413
0.00030963
0.000540542
0.000317488
0.000487224
0.000324463
0.000432618
0.000330542
0.000376864
0.0003357
0.000320123
0.000339927
0.000262556
0.000343204
0.000204342
0.000345525
0.000145609
0.00034688
8.69056e-05
2.88842e-05
0.000347263
1.72311e-05
0.00114779
-1.28052e-09
3.469e-05
0.00113781
5.22542e-05
0.00112642
6.98017e-05
0.00111381
8.72304e-05
0.00109926
0.000104468
0.00108235
0.000121444
0.00106276
0.000138104
0.00104055
0.000154388
0.00101557
0.00017025
0.000987986
0.000185633
0.000957783
0.000200504
0.000925031
0.000214809
0.000889818
0.00022852
0.000852236
0.000241589
0.000812387
0.000253991
0.000770374
0.000265683
0.000726311
0.000276645
0.000680312
0.000286834
0.000632503
0.000296235
0.000583006
0.000304812
0.000531956
0.000312551
0.000479482
0.000319418
0.000425742
0.000325405
0.000370875
0.000330483
0.000315039
0.000334646
0.000258392
0.000337873
0.000201112
0.000340159
0.000143323
0.000341495
8.55679e-05
2.85016e-05
0.000341875
1.69635e-05
0.00113084
-2.69246e-09
3.4149e-05
0.00112064
5.14376e-05
0.00110915
6.8709e-05
0.00109656
8.58633e-05
0.00108212
0.000102829
0.0010654
0.000119538
0.00104607
0.000135936
0.00102418
0.000151964
0.000999561
0.000167578
0.000972391
0.000182721
0.000942654
0.000197361
0.00091041
0.000211445
0.000875748
0.000224945
0.000838755
0.000237813
0.000799532
0.000250026
0.000758179
0.000261538
0.000714811
0.000272332
0.000669536
0.000282366
0.000622481
0.000291624
0.000573765
0.000300069
0.000523521
0.00030769
0.000471878
0.000314452
0.000418991
0.000320347
0.000364996
0.000325348
0.00031005
0.000329448
0.000254309
0.000332625
0.000197947
0.000334878
0.000141088
0.000336193
8.42679e-05
2.81497e-05
0.000336568
1.66998e-05
0.00111413
-4.11273e-09
3.36157e-05
0.0011037
5.06326e-05
0.00109211
6.76323e-05
0.00107954
8.45165e-05
0.00106521
0.000101215
0.00104869
0.000117661
0.0010296
0.000133801
0.00100802
0.000149578
0.000983763
0.000164948
0.000957004
0.000179855
0.000927723
0.000194268
0.000895981
0.000208134
0.000861861
0.000221426
0.000825448
0.000234096
0.000786843
0.000246122
0.000746142
0.000257458
0.000703458
0.000268087
0.000658899
0.000277967
0.000612587
0.000287084
0.000564642
0.000295401
0.000515194
0.000302905
0.00046437
0.000309564
0.000412324
0.000315369
0.000359189
0.000320293
0.00030512
0.00032433
0.000250271
0.00032746
0.000194814
0.000329678
0.00013887
0.000330975
8.29688e-05
2.77758e-05
0.000331346
1.64398e-05
0.00109771
-5.64517e-09
3.30901e-05
0.00108707
4.98395e-05
0.00107538
6.65716e-05
0.00106283
8.31901e-05
0.00104861
9.96261e-05
0.00103227
0.000115813
0.00101343
0.0001317
0.000992154
0.000147229
0.000968249
0.000162359
0.000941894
0.000177034
0.000913062
0.000191224
0.000881811
0.000204875
0.000848223
0.000217963
0.00081238
0.000230437
0.00077438
0.000242279
0.000734319
0.000253442
0.000692307
0.000263909
0.00064845
0.000273638
0.000602869
0.000282615
0.000555681
0.000290804
0.000507016
0.000298194
0.000456997
0.000304751
0.000405778
0.000310468
0.000353489
0.000315317
0.000300283
0.000319293
0.000246312
0.000322374
0.000191745
0.00032456
0.000136703
0.000325838
8.17073e-05
2.74331e-05
0.000326204
1.61838e-05
0.00108151
-7.20485e-09
3.25724e-05
0.00107066
4.90584e-05
0.00105887
6.55272e-05
0.00104634
8.18841e-05
0.00103223
9.80615e-05
0.00101608
0.000113994
0.000997481
0.000129632
0.0009765
0.000144918
0.000952941
0.000159811
0.000926982
0.000174258
0.000898591
0.000188227
0.000867824
0.000201667
0.00083476
0.000214554
0.000799479
0.000226836
0.000762077
0.000238496
0.000722647
0.000249488
0.000681298
0.000259795
0.000638134
0.000269375
0.000593275
0.000278216
0.000546834
0.00028628
0.000498941
0.000293557
0.000449717
0.000300013
0.000399313
0.000305643
0.000347858
0.000310418
0.000295502
0.000314333
0.000242396
0.000317369
0.000188706
0.000319522
0.000134551
0.000320781
8.04458e-05
2.70677e-05
0.000321144
1.59316e-05
0.0010656
-8.87674e-09
3.20625e-05
0.00105454
4.82893e-05
0.00104266
6.44989e-05
0.00103015
8.05986e-05
0.00101615
9.65215e-05
0.00100017
0.000112204
0.000981815
0.000127596
0.000961127
0.000142643
0.000937909
0.000157304
0.00091234
0.000171526
0.000884383
0.000185279
0.000854091
0.000198511
0.00082154
0.000211199
0.00078681
0.000223292
0.000749995
0.000234774
0.000711185
0.000245597
0.000670486
0.000255746
0.000628003
0.00026518
0.000583852
0.000273885
0.000538146
0.000281826
0.000491011
0.000288992
0.000442568
0.00029535
0.000392966
0.000300894
0.000342331
0.000305596
0.000290813
0.000309452
0.000238558
0.000312441
0.000185731
0.000314562
0.000132449
0.000315803
7.92217e-05
2.67341e-05
0.000316161
1.56834e-05
0.00104991
-1.05567e-08
3.15606e-05
0.00103865
4.75322e-05
0.00102667
6.34868e-05
0.00101418
7.93333e-05
0.00100028
9.5006e-05
0.000984483
0.000110442
0.000966357
0.000125593
0.000945958
0.000140405
0.000923074
0.000154837
0.000897888
0.000168837
0.000870358
0.000182377
0.000840533
0.000195404
0.000808489
0.000207896
0.000774303
0.000219804
0.000738066
0.000231109
0.000699867
0.000241766
0.000659811
0.000251761
0.000618
0.00026105
0.000574548
0.000269622
0.000529567
0.000277442
0.000483181
0.000284498
0.000435508
0.000290759
0.000386696
0.000296218
0.00033687
0.000300849
0.000286176
0.000304647
0.00023476
0.000307591
0.000182783
0.00030968
0.00013036
0.000310903
7.79966e-05
2.63771e-05
0.000311258
1.5439e-05
0.0010345
-1.23415e-08
3.10666e-05
0.00102303
4.6787e-05
0.00101096
6.24907e-05
0.000998488
7.8088e-05
0.000984702
9.35145e-05
0.000969075
0.000108709
0.000951179
0.000123622
0.000931064
0.000138202
0.000908509
0.00015241
0.000883699
0.000166192
0.000856588
0.000179521
0.000827222
0.000192347
0.000795676
0.000204647
0.000762023
0.000216371
0.000726353
0.000227502
0.000688754
0.000237996
0.000649329
0.000247838
0.000608176
0.000256984
0.000565411
0.000265426
0.000521142
0.000273126
0.000475492
0.000280075
0.000428576
0.00028624
0.000380542
0.000291616
0.000331512
0.000296176
0.000281629
0.000299916
0.000231038
0.000302816
0.000179897
0.000304874
0.000128322
0.000306079
7.6809e-05
2.60524e-05
0.000306429
1.51986e-05
0.00101929
-1.41018e-08
3.05804e-05
0.00100763
4.60536e-05
0.000995467
6.15104e-05
0.000983012
7.68627e-05
0.000969328
9.2047e-05
0.000953873
0.000107003
0.000936201
0.000121683
0.000916365
0.000136035
0.000894133
0.000150021
0.000869694
0.000163588
0.000842994
0.000176711
0.000814081
0.000189338
0.000783024
0.000201448
0.000749897
0.000212992
0.000714787
0.000223953
0.000677781
0.000234285
0.000638978
0.000243976
0.000598477
0.000252983
0.000556389
0.000261296
0.000512823
0.000268877
0.000467899
0.000275721
0.00042173
0.000281792
0.000374462
0.000287086
0.000326216
0.000291576
0.000277133
0.00029526
0.000227355
0.000298116
0.000177038
0.000300144
0.000126295
0.000301331
7.56192e-05
2.57036e-05
0.000301678
1.49618e-05
0.00100436
-1.5952e-08
3.01019e-05
0.000992502
4.53319e-05
0.000980251
6.05458e-05
0.000967815
7.5657e-05
0.000954233
9.06029e-05
0.000938945
0.000105324
0.000921496
0.000119775
0.000901934
0.000133902
0.00088002
0.00014767
0.000855944
0.000161027
0.00082965
0.000173946
0.00080118
0.000186378
0.000770604
0.000198301
0.000737993
0.000209666
0.000703433
0.000220459
0.000667007
0.000230632
0.000628815
0.000240175
0.000588953
0.000249044
0.000547531
0.00025723
0.000504654
0.000264696
0.000460443
0.000271435
0.000415009
0.000277413
0.000368495
0.000282627
0.00032102
0.000287049
0.000272724
0.000290677
0.000223745
0.000293489
0.00017424
0.000295487
0.000124318
0.000296657
7.44669e-05
2.53877e-05
0.000296999
1.47291e-05
0.000989628
-1.77479e-08
2.9631e-05
0.000977577
4.46218e-05
0.000965237
5.95966e-05
0.000952819
7.44706e-05
0.000939336
8.91821e-05
0.000924214
0.000103673
0.000906982
0.000117897
0.000887689
0.000131804
0.000866087
0.000145357
0.00084237
0.000158506
0.000816474
0.000171225
0.000788441
0.000183464
0.00075834
0.000195203
0.000726238
0.000206393
0.00069222
0.00021702
0.000656367
0.000227037
0.000618778
0.000236434
0.000579547
0.000245167
0.000538782
0.000253228
0.000496587
0.000260579
0.00045308
0.000267216
0.000408369
0.000273103
0.000362599
0.000278237
0.000315884
0.000282592
0.000268363
0.000286165
0.000220173
0.000288935
0.000171465
0.000290903
0.000122352
0.000292057
7.33114e-05
2.50468e-05
0.000292395
1.44998e-05
0.00097516
-1.96208e-08
2.91677e-05
0.000962923
4.3923e-05
0.000950496
5.86626e-05
0.000938096
7.33032e-05
0.000924711
8.77841e-05
0.000909752
0.000102048
0.000892735
0.00011605
0.000873707
0.000129739
0.000852412
0.000143081
0.000829046
0.000156025
0.000803541
0.000168547
0.000775938
0.000180596
0.000746301
0.000192155
0.000714699
0.000203172
0.000681212
0.000213636
0.000645922
0.000223499
0.000608925
0.000232752
0.000570313
0.00024135
0.000530193
0.000249289
0.000488667
0.000256528
0.000445851
0.000263063
0.000401853
0.00026886
0.000356813
0.000273916
0.000310846
0.000278205
0.000264088
0.000281724
0.000216673
0.000284452
0.000168752
0.000286391
0.000120434
0.000287528
7.21933e-05
2.47394e-05
0.000287862
1.42745e-05
0.000960886
-2.14109e-08
2.87119e-05
0.000948461
4.32355e-05
0.000935949
5.77437e-05
0.000923566
7.21547e-05
0.000910277
8.64086e-05
0.000895478
0.000100449
0.00087867
0.000114232
0.000859903
0.000127708
0.00083891
0.000140842
0.00081589
0.000153584
0.000790771
0.000165912
0.00076359
0.000177774
0.000734412
0.000189154
0.000703302
0.000200001
0.000670341
0.000210304
0.000635607
0.000220016
0.000599194
0.000229127
0.000561193
0.000237594
0.00052171
0.000245411
0.000480844
0.000252539
0.000438711
0.000258975
0.000395414
0.000264683
0.000351095
0.000269663
0.000305865
0.000273886
0.000259858
0.000277353
0.000213207
0.00028004
0.000166061
0.00028195
0.000118525
0.00028307
7.1071e-05
2.44063e-05
0.000283401
1.40525e-05
0.000946869
-2.32662e-08
2.82634e-05
0.000934264
4.2559e-05
0.000921667
5.68396e-05
0.000909301
7.10246e-05
0.000896108
8.50551e-05
0.000881466
9.88759e-05
0.000864866
0.000112443
0.000846354
0.000125709
0.000825659
0.000138638
0.000802978
0.000151182
0.000778238
0.000163319
0.000751472
0.000174997
0.000722744
0.000186202
0.000692117
0.000196881
0.000659671
0.000207026
0.000625481
0.000216588
0.000589642
0.00022556
0.00055224
0.000233897
0.000513382
0.000241594
0.000473165
0.000248614
0.000431702
0.000254951
0.000389096
0.000260572
0.000345485
0.000265477
0.00030098
0.000269636
0.000255713
0.00027305
0.000209814
0.000275696
0.000163429
0.000277578
0.000116665
0.000278682
6.9986e-05
2.41071e-05
0.000279009
1.38344e-05
0.000933038
-2.50175e-08
2.78221e-05
0.000920251
4.18934e-05
0.000907571
5.595e-05
0.000895222
6.99127e-05
0.000882121
8.37235e-05
0.000867634
9.73281e-05
0.000851237
0.000110683
0.000832977
0.000123742
0.000812573
0.00013647
0.000790228
0.000148819
0.00076586
0.000160767
0.000739503
0.000172264
0.000711219
0.000183296
0.000681069
0.00019381
0.000649131
0.000203799
0.00061548
0.000213214
0.000580206
0.000222049
0.000543397
0.000230257
0.000505156
0.000237838
0.000465579
0.000244749
0.000424778
0.000250991
0.000382852
0.000256526
0.00033994
0.000261356
0.00029615
0.000265451
0.000251611
0.000268814
0.000206452
0.000271421
0.000160818
0.000273275
0.000114813
0.000274363
6.88959e-05
2.37813e-05
0.000274687
1.36195e-05
0.000919457
-2.68274e-08
2.73878e-05
0.000906496
4.12385e-05
0.000893734
5.50747e-05
0.000881402
6.88187e-05
0.000868393
8.24133e-05
0.000854057
9.58051e-05
0.000837861
0.000108952
0.000819849
0.000121806
0.000799733
0.000134336
0.000777716
0.000146493
0.000753714
0.000158256
0.000727759
0.000169575
0.00069991
0.000180436
0.000670228
0.000190788
0.000638788
0.000200623
0.000605664
0.000209893
0.000570945
0.000218593
0.000534718
0.000226675
0.000497083
0.00023414
0.000458134
0.000240946
0.000417982
0.000247092
0.000376725
0.000252543
0.000334501
0.0002573
0.000291413
0.000261333
0.000247591
0.000264645
0.000203161
0.000267212
0.000158266
0.000269039
0.000113009
0.000270111
6.78431e-05
2.349e-05
0.000270431
1.34083e-05
0.000906055
-2.85143e-08
2.69606e-05
0.000892918
4.05941e-05
0.000880075
5.42135e-05
0.000867759
6.77423e-05
0.000854839
8.11241e-05
0.000840653
9.43065e-05
0.000824653
0.000107248
0.000806885
0.000119902
0.000787051
0.000132237
0.000765357
0.000144204
0.000741716
0.000155785
0.000716157
0.000166928
0.000688738
0.000177621
0.000659518
0.000187814
0.00062857
0.000197497
0.000595967
0.000206625
0.000561797
0.000215191
0.000526143
0.00022315
0.000489106
0.0002305
0.000450778
0.000237202
0.000411267
0.000243255
0.00037067
0.000248622
0.000329123
0.000253307
0.000286728
0.000257279
0.000243612
0.000260541
0.0001999
0.00026307
0.000155733
0.00026487
0.000111212
0.000265926
6.6784e-05
2.31714e-05
0.000266243
1.32003e-05
0.000892897
-3.02535e-08
2.65403e-05
0.000879591
3.99601e-05
0.000866668
5.33661e-05
0.000854368
6.66831e-05
0.000841538
7.98556e-05
0.000827499
9.2832e-05
0.000811693
0.000105571
0.000794164
0.000118028
0.000774608
0.000130171
0.000753233
0.000141952
0.000729946
0.000153353
0.000704775
0.000164323
0.000677777
0.000174852
0.000649009
0.000184886
0.000618544
0.000194421
0.000586452
0.000203408
0.000552819
0.000211843
0.000517729
0.000219679
0.000481278
0.000226918
0.000443559
0.000233517
0.000404678
0.000239478
0.00036473
0.000244763
0.000323849
0.000249377
0.000282135
0.000253288
0.000239714
0.000256502
0.000196709
0.000258992
0.000153257
0.000260766
0.000109462
0.000261807
6.57622e-05
2.28877e-05
0.00026212
1.29958e-05
0.00087991
-3.18582e-08
2.61267e-05
0.000866433
3.93363e-05
0.000853432
5.25323e-05
0.000841148
6.5641e-05
0.000828404
7.86075e-05
0.000814509
9.13811e-05
0.000798893
0.000103922
0.0007816
0.000116184
0.000762317
0.000128137
0.000741254
0.000139735
0.000718316
0.000150959
0.000693529
0.00016176
0.000666947
0.000172125
0.000638626
0.000182005
0.000608638
0.000191393
0.00057705
0.000200242
0.000543949
0.000208547
0.000509415
0.000216264
0.000473544
0.000223391
0.000436426
0.00022989
0.000398167
0.00023576
0.000358858
0.000240965
0.000318633
0.000245508
0.000277591
0.000249361
0.000235855
0.000252526
0.000193546
0.000254979
0.000150799
0.000256726
0.000107717
0.000257753
6.47333e-05
2.25758e-05
0.000258063
1.27944e-05
0.00086716
-3.35132e-08
2.57197e-05
0.000853521
3.87226e-05
0.000840443
5.17119e-05
0.000828174
6.46156e-05
0.000815516
7.73794e-05
0.000801764
8.99535e-05
0.000786336
0.000102298
0.000769274
0.000114369
0.00075026
0.000126137
0.000729505
0.000137554
0.000706909
0.000148604
0.000682498
0.000159237
0.000656323
0.000169442
0.00062844
0.000179169
0.000598919
0.000188413
0.000567826
0.000197125
0.000535246
0.000205304
0.000501257
0.000212902
0.000465955
0.000219921
0.000429427
0.00022632
0.000391778
0.0002321
0.000353098
0.000237226
0.000313519
0.000241701
0.000273137
0.000245495
0.000232075
0.000248612
0.000190451
0.000251028
0.000148399
0.00025275
0.000106019
0.000253762
6.37415e-05
2.22994e-05
0.000254068
1.25964e-05
0.000854575
-3.50274e-08
2.53193e-05
0.00084077
3.81186e-05
0.000827616
5.09047e-05
0.000815363
6.36067e-05
0.000802788
7.6171e-05
0.000789176
8.85487e-05
0.000773931
0.000100701
0.000757098
0.000112583
0.000738347
0.000124168
0.000717895
0.000135407
0.000695637
0.000146286
0.000671596
0.000156754
0.000645825
0.000166802
0.000618374
0.000176378
0.000589315
0.00018548
0.000558711
0.000194058
0.000526645
0.000202111
0.000493195
0.000209592
0.000458455
0.000216504
0.00042251
0.000222805
0.000385463
0.000228498
0.000347403
0.000233546
0.000308461
0.000237953
0.00026873
0.000241689