/*--------------------------------*- C++ -*----------------------------------*\
  =========                 |
  \\      /  F ield         | OpenFOAM: The Open Source CFD Toolbox
   \\    /   O peration     | Website:  https://openfoam.org
    \\  /    A nd           | Version:  6.0
     \\/     M anipulation  |
\*---------------------------------------------------------------------------*/
FoamFile
{
    version     2.0;
    format      ascii;
    class       volVectorField;
    location    "5";
    object      U;
}
// * * * * * * * * * * * * * * * * * * * * * * * * * * * * * * * * * * * * * //

dimensions      [0 1 -1 0 0 0 0];

internalField   nonuniform List<vector> 
47000
(
(0.999989 -6.43748e-05 5.44942e-21)
(1 4.8014e-05 1.21525e-20)
(1.00001 0.000188596 -1.36971e-19)
(1 0.000339232 -3.86786e-19)
(0.99996 0.000468631 4.23334e-19)
(0.999877 0.000539846 -3.81635e-19)
(0.999746 0.000521665 2.05768e-18)
(0.999572 0.000399857 4.59297e-20)
(0.999369 0.000178372 4.98587e-19)
(0.999155 -0.000121498 -4.75801e-18)
(0.99895 -0.000470088 3.45469e-18)
(0.998772 -0.000835626 1.27929e-18)
(0.998633 -0.00119147 2.01749e-18)
(0.998538 -0.00151798 2.53489e-18)
(0.998488 -0.00180481 -2.41361e-18)
(0.998481 -0.00204768 -1.18686e-18)
(0.998509 -0.00224875 -1.3351e-19)
(0.998566 -0.00241208 -1.37233e-18)
(0.998647 -0.00254468 -1.672e-19)
(0.998745 -0.00265253 -3.68499e-19)
(0.998856 -0.00274288 -2.28029e-18)
(0.998977 -0.00282133 -8.29481e-19)
(0.999105 -0.00289426 -8.49495e-19)
(0.99924 -0.00296711 -1.17099e-19)
(0.99938 -0.00304683 4.59209e-19)
(0.999528 -0.00314222 -1.48331e-19)
(0.999691 -0.00326842 3.35879e-19)
(0.999783 -0.00347445 -1.74103e-19)
(1.00069 -0.00364689 3.42808e-20)
(0.994243 -0.00498528 -1.96735e-20)
(1.00009 0.000175176 -1.22168e-20)
(1.00009 0.00070764 -4.01014e-20)
(1.00006 0.00116626 2.00158e-21)
(0.999979 0.001484 4.49353e-19)
(0.99982 0.00159966 -3.34037e-19)
(0.999573 0.00148078 1.28529e-18)
(0.999245 0.00112468 -1.29993e-18)
(0.998857 0.000562994 3.49202e-19)
(0.998443 -0.000147873 -3.15092e-18)
(0.998039 -0.000939922 -1.61504e-19)
(0.997679 -0.00174681 -7.25389e-19)
(0.997387 -0.00251443 1.26316e-18)
(0.997177 -0.00320621 -2.92925e-18)
(0.997053 -0.00380219 1.95629e-19)
(0.997009 -0.00429926 9.33749e-19)
(0.997039 -0.00470188 -3.6366e-19)
(0.997128 -0.00502301 1.79466e-18)
(0.997267 -0.0052754 -1.06803e-18)
(0.997443 -0.00547521 -2.33976e-18)
(0.997648 -0.00563403 2.77667e-18)
(0.997874 -0.00576461 9.73771e-19)
(0.998118 -0.00587524 2.39556e-19)
(0.998374 -0.00597491 6.06038e-19)
(0.998643 -0.00606887 4.97787e-19)
(0.998924 -0.00616282 -2.35626e-19)
(0.999218 -0.00626072 -2.01937e-20)
(0.99953 -0.00636558 -1.58448e-19)
(0.999761 -0.00654469 -7.67676e-20)
(1.00053 -0.00641016 4.82983e-20)
(0.997621 -0.00671678 1.35622e-20)
(1.00028 0.000341672 1.30081e-20)
(1.00028 0.00103368 5.43626e-21)
(1.00026 0.00158093 -7.89852e-21)
(1.00018 0.00190041 -7.02335e-19)
(1.00002 0.00192971 1.27869e-19)
(0.999773 0.00165558 -9.94642e-19)
(0.999449 0.00110363 1.11077e-18)
(0.999068 0.000335135 -1.36701e-18)
(0.998662 -0.000567373 2.77535e-18)
(0.998267 -0.00151972 2.12592e-18)
(0.997915 -0.00244661 -9.54334e-19)
(0.997632 -0.00329371 -8.36859e-19)
(0.997427 -0.00402747 4.35162e-18)
(0.997309 -0.00463448 -1.337e-18)
(0.997271 -0.00511794 9.08347e-19)
(0.997306 -0.0054887 5.38466e-19)
(0.997402 -0.00576382 -1.82722e-18)
(0.997549 -0.00595966 2.44354e-18)
(0.997735 -0.00609384 1.34856e-18)
(0.997952 -0.00617902 -3.18454e-19)
(0.998193 -0.00622678 1.81511e-18)
(0.998452 -0.00624398 1.41529e-18)
(0.998726 -0.00623599 9.47328e-19)
(0.999013 -0.00620367 8.85217e-20)
(0.999311 -0.00614546 -1.71233e-19)
(0.999617 -0.00605587 2.65695e-20)
(0.999929 -0.00592246 -8.10415e-20)
(1.00017 -0.00580508 1.52509e-19)
(1.00057 -0.00525586 -8.22884e-20)
(0.999506 -0.00436666 4.53583e-20)
(1.00049 0.000410107 -1.70048e-20)
(1.00051 0.0010918 8.44705e-21)
(1.00052 0.00160146 8.61152e-20)
(1.00049 0.00185818 4.64692e-19)
(1.00041 0.0018058 7.97719e-20)
(1.00024 0.00144426 1.87498e-19)
(0.999993 0.000812763 -1.13178e-18)
(0.999688 -1.69598e-05 -1.41566e-19)
(0.99935 -0.000955381 -1.44065e-18)
(0.99901 -0.00191741 -4.77197e-19)
(0.998697 -0.00282913 7.1626e-19)
(0.998437 -0.00364119 -5.7792e-19)
(0.998243 -0.00432422 -1.75054e-18)
(0.998121 -0.00486992 9.48057e-19)
(0.99807 -0.00528475 7.58871e-20)
(0.998086 -0.0055829 1.98013e-18)
(0.998158 -0.00578252 -5.03254e-19)
(0.998278 -0.00590131 -8.59663e-19)
(0.998436 -0.00595662 -1.00719e-18)
(0.998625 -0.00596136 -2.66461e-18)
(0.998837 -0.00592603 -7.34759e-19)
(0.999067 -0.005857 -1.33036e-18)
(0.999312 -0.00575843 -8.51072e-19)
(0.999566 -0.00563093 -4.91431e-19)
(0.999828 -0.00547297 3.12806e-19)
(1.00009 -0.00528148 1.35746e-20)
(1.00034 -0.00504914 9.56466e-20)
(1.00054 -0.00484614 -2.06247e-19)
(1.00071 -0.00425685 1.84507e-19)
(1.00006 -0.00328272 -3.95198e-20)
(1.00069 0.000433091 3.80325e-21)
(1.00073 0.00104037 -6.35238e-21)
(1.00078 0.00146735 -2.20041e-20)
(1.00081 0.00164146 -2.25021e-20)
(1.00079 0.00151441 -2.4063e-19)
(1.0007 0.00109527 1.47014e-19)
(1.00054 0.000429749 -2.13241e-19)
(1.00031 -0.000408061 -5.97859e-19)
(1.00004 -0.00132935 1.14916e-18)
(0.999758 -0.00225347 -2.7195e-19)
(0.999485 -0.00311153 1.42997e-18)
(0.999248 -0.00386031 1.79096e-18)
(0.999061 -0.00447475 -1.56556e-18)
(0.998933 -0.00495064 -1.57279e-18)
(0.998864 -0.00529647 -2.07073e-18)
(0.998854 -0.00552832 -1.95844e-18)
(0.998894 -0.00566456 3.92482e-19)
(0.998979 -0.00572343 -2.89738e-19)
(0.999099 -0.00572184 2.19999e-18)
(0.999249 -0.00567293 7.06757e-19)
(0.99942 -0.00558683 -1.05034e-18)
(0.99961 -0.00547034 -2.23898e-19)
(0.999812 -0.00532798 1.53853e-19)
(1.00002 -0.00516194 6.65816e-20)
(1.00024 -0.00497295 -3.49389e-20)
(1.00045 -0.00476189 -6.88373e-20)
(1.00064 -0.00452593 -3.61836e-20)
(1.00079 -0.00433424 4.91895e-19)
(1.00085 -0.00379061 -1.02608e-19)
(1.00029 -0.00280485 -3.36178e-20)
(1.00086 0.00042697 -1.35133e-21)
(1.00091 0.000925656 9.00059e-21)
(1.00099 0.00124655 -8.65989e-20)
(1.00106 0.00132831 -6.58243e-20)
(1.0011 0.0011308 1.85467e-19)
(1.00107 0.000669503 5.60387e-19)
(1.00098 -7.56838e-06 8.68575e-19)
(1.00082 -0.000828359 1.18557e-19)
(1.00061 -0.00170888 -2.0217e-19)
(1.00038 -0.0025756 1.29941e-18)
(1.00014 -0.00336635 -1.50712e-18)
(0.999928 -0.0040444 -1.96188e-18)
(0.999749 -0.00458891 7.16001e-19)
(0.999616 -0.00499888 2.16187e-18)
(0.999531 -0.00528406 4.13097e-18)
(0.999497 -0.0054615 2.78316e-20)
(0.999508 -0.00554919 4.78973e-19)
(0.999558 -0.00556532 1.61061e-18)
(0.999642 -0.00552613 -1.4895e-18)
(0.999753 -0.00544476 7.47128e-19)
(0.999886 -0.005331 6.92937e-19)
(1.00004 -0.00519201 1.67358e-19)
(1.0002 -0.00503266 -4.02366e-20)
(1.00037 -0.00485619 -6.31077e-20)
(1.00054 -0.00466446 1.467e-19)
(1.00071 -0.00445952 -4.83641e-19)
(1.00085 -0.00423795 -2.40941e-19)
(1.00096 -0.00406045 -3.43835e-19)
(1.00097 -0.00354049 -2.15083e-19)
(1.00043 -0.00252963 1.72939e-19)
(1.00101 0.000401547 4.41807e-21)
(1.00106 0.000775353 7.00901e-21)
(1.00116 0.00098127 4.0056e-20)
(1.00125 0.000969941 3.98856e-20)
(1.00133 0.000708743 2.35085e-19)
(1.00135 0.000217222 -3.35049e-19)
(1.00131 -0.0004572 -4.99202e-19)
(1.0012 -0.00124719 3.66704e-19)
(1.00105 -0.00207587 -1.16307e-18)
(1.00086 -0.00287795 -3.97582e-19)
(1.00065 -0.00359854 -2.22689e-18)
(1.00046 -0.00420715 1.49644e-18)
(1.00029 -0.00468669 7.66997e-19)
(1.00015 -0.00503861 -1.13095e-19)
(1.00006 -0.00527329 -2.08397e-18)
(1 -0.00540795 2.66886e-19)
(0.999991 -0.00545981 -4.46606e-19)
(1.00001 -0.00544653 -1.3712e-18)
(1.00006 -0.00538346 6.14407e-20)
(1.00014 -0.00528343 -4.59119e-19)
(1.00024 -0.00515571 -1.54348e-19)
(1.00036 -0.00500751 -1.24065e-20)
(1.00049 -0.0048436 4.20894e-20)
(1.00062 -0.0046675 2.5848e-19)
(1.00076 -0.00448099 3.20678e-19)
(1.00089 -0.00428545 1.30934e-18)
(1.001 -0.00407478 -1.3467e-19)
(1.00109 -0.00390148 -6.89449e-19)
(1.00106 -0.00338727 -1.28269e-19)
(1.00053 -0.00234957 -2.01365e-19)
(1.00111 0.000365387 8.10727e-21)
(1.00118 0.000611465 -1.24185e-20)
(1.00128 0.000704642 -7.57439e-21)
(1.00139 0.000606064 -2.81425e-20)
(1.00148 0.000289731 -1.01204e-19)
(1.00154 -0.000222549 -1.05727e-19)
(1.00154 -0.000885808 2.90534e-19)
(1.00147 -0.0016388 -8.15648e-19)
(1.00135 -0.00241264 -4.75135e-19)
(1.0012 -0.00315045 8.40444e-19)
(1.00103 -0.00380442 1.51062e-18)
(1.00085 -0.00434968 -7.73054e-19)
(1.00069 -0.00477231 -1.65187e-18)
(1.00056 -0.00507553 -7.9679e-19)
(1.00045 -0.00526983 4.55902e-20)
(1.00039 -0.00537213 -5.89284e-21)
(1.00036 -0.00539854 2.24006e-19)
(1.00036 -0.00536591 1.84638e-19)
(1.00038 -0.00528854 2.64457e-19)
(1.00044 -0.0051787 3.18006e-19)
(1.00051 -0.00504499 5.34852e-20)
(1.0006 -0.00489436 -4.53987e-20)
(1.0007 -0.00473119 3.55619e-19)
(1.00081 -0.00455873 3.30917e-19)
(1.00092 -0.00437803 -4.61431e-19)
(1.00103 -0.00418909 -1.05151e-18)
(1.00111 -0.00398288 1.2652e-18)
(1.00119 -0.00380597 1.1397e-18)
(1.00115 -0.00328727 -2.67322e-19)
(1.00062 -0.0022218 1.24141e-19)
(1.00118 0.000324472 -2.14996e-21)
(1.00125 0.000448364 3.165e-21)
(1.00135 0.00043784 7.88625e-21)
(1.00147 0.000261508 -1.41712e-21)
(1.00158 -0.000100767 -6.84468e-20)
(1.00165 -0.000626229 5.73278e-21)
(1.00168 -0.00127343 -1.75132e-19)
(1.00164 -0.00198767 3.95925e-19)
(1.00156 -0.00270819 4.38256e-20)
(1.00143 -0.003386 -8.30602e-19)
(1.00128 -0.00397987 -1.26496e-18)
(1.00113 -0.00446974 -6.02504e-19)
(1.00098 -0.00484433 1.31278e-18)
(1.00085 -0.00510801 7.21138e-19)
(1.00074 -0.00527103 -4.43186e-19)
(1.00067 -0.00534965 -8.15031e-19)
(1.00062 -0.00535874 1.26707e-19)
(1.00061 -0.00531413 5.33002e-19)
(1.00062 -0.00522898 -1.92636e-19)
(1.00065 -0.00511486 -1.57655e-19)
(1.00071 -0.00497962 3.72242e-19)
(1.00078 -0.00482977 1.00348e-19)
(1.00086 -0.00466909 -2.66964e-19)
(1.00095 -0.00450032 -5.30231e-19)
(1.00105 -0.00432355 1.78382e-19)
(1.00113 -0.00413729 9.073e-19)
(1.0012 -0.00392998 3.78533e-19)
(1.00127 -0.00374444 2.73317e-20)
(1.00123 -0.00321528 -5.59039e-20)
(1.0007 -0.00212003 9.05328e-20)
(1.00122 0.000283283 -2.61476e-21)
(1.00129 0.00029521 -1.86084e-21)
(1.00139 0.000193379 7.6447e-21)
(1.0015 -4.95889e-05 5.20563e-21)
(1.00162 -0.000448765 -2.86858e-21)
(1.0017 -0.000981346 1.09215e-20)
(1.00175 -0.0016099 2.30297e-20)
(1.00173 -0.00228621 -1.12002e-19)
(1.00167 -0.00295721 -1.20145e-19)
(1.00157 -0.0035811 9.73281e-20)
(1.00144 -0.00412243 3.60014e-19)
(1.00131 -0.00456522 6.0002e-19)
(1.00117 -0.00490026 1.03576e-21)
(1.00104 -0.00513264 -1.17087e-18)
(1.00094 -0.00527212 4.05823e-20)
(1.00086 -0.00533408 3.55152e-19)
(1.00081 -0.00533209 3.60491e-20)
(1.00079 -0.00528084 1.14703e-19)
(1.00079 -0.00519237 -1.88971e-19)
(1.00081 -0.00507748 -5.8815e-19)
(1.00086 -0.00494324 -2.13356e-19)
(1.00091 -0.00479562 3.26608e-19)
(1.00098 -0.00463776 6.96735e-19)
(1.00106 -0.00447178 -6.67106e-19)
(1.00114 -0.00429685 7.66396e-19)
(1.00122 -0.00411012 -1.97176e-18)
(1.00127 -0.00389809 4.73642e-19)
(1.00133 -0.00370141 -1.36059e-19)
(1.0013 -0.00315901 6.45831e-19)
(1.00077 -0.00203419 -8.16883e-20)
(1.00123 0.000244419 2.08974e-21)
(1.0013 0.000156984 3.64891e-21)
(1.00139 -2.25972e-05 6.64411e-21)
(1.0015 -0.000320879 -3.31741e-20)
(1.00162 -0.000748596 -3.87124e-20)
(1.00171 -0.00128349 1.04664e-20)
(1.00176 -0.00189228 4.49589e-20)
(1.00176 -0.0025328 8.88745e-20)
(1.00172 -0.0031591 2.27851e-19)
(1.00164 -0.00373561 -7.12928e-20)
(1.00153 -0.00423197 7.76397e-20)
(1.00141 -0.0046355 4.00639e-19)
(1.00129 -0.00493865 3.61043e-19)
(1.00117 -0.00514684 3.41632e-19)
(1.00107 -0.00526918 3.70506e-19)
(1.001 -0.00532007 2.11023e-19)
(1.00094 -0.00531175 -1.37005e-19)
(1.00092 -0.00525779 -1.95082e-19)
(1.00091 -0.00516911 -2.98385e-19)
(1.00093 -0.00505571 1.17686e-18)
(1.00096 -0.00492392 -2.74652e-19)
(1.00101 -0.00477916 -4.05316e-19)
(1.00108 -0.00462392 6.59643e-20)
(1.00115 -0.00445973 1.1754e-18)
(1.00122 -0.00428489 -3.93171e-19)
(1.00129 -0.00409547 1.82415e-18)
(1.00133 -0.00387651 -9.48372e-19)
(1.0014 -0.00366754 6.8695e-19)
(1.00136 -0.00311052 2.51706e-19)
(1.00084 -0.00195512 -9.97485e-21)
(1.00122 0.000209432 -5.02086e-21)
(1.00128 3.59492e-05 1.59695e-20)
(1.00136 -0.000208048 -3.71646e-20)
(1.00147 -0.000550939 2.27931e-20)
(1.00158 -0.000999822 7.94288e-20)
(1.00167 -0.00153332 -5.89638e-21)
(1.00173 -0.0021222 5.73035e-21)
(1.00175 -0.00272981 8.86392e-20)
(1.00172 -0.00331648 -1.02059e-19)
(1.00166 -0.00385206 3.76436e-20)
(1.00157 -0.00431049 1.09774e-19)
(1.00146 -0.00468181 -4.54291e-19)
(1.00135 -0.00495969 -4.19984e-19)
(1.00124 -0.00514965 2.13899e-19)
(1.00115 -0.00526006 6.44242e-20)
(1.00108 -0.00530427 3.12407e-20)
(1.00103 -0.00529326 3.34978e-19)
(1.001 -0.00523947 3.49269e-19)
(1.001 -0.00515278 -6.29087e-19)
(1.00101 -0.00504241 -4.49001e-19)
(1.00104 -0.00491399 9.38002e-19)
(1.00109 -0.00477239 6.25234e-19)
(1.00115 -0.00461953 -8.38759e-19)
(1.00121 -0.00445638 -3.62264e-19)
(1.00128 -0.00428052 -6.87539e-19)
(1.00135 -0.00408712 -3.33069e-19)
(1.00139 -0.00386019 -2.90343e-19)
(1.00145 -0.00363882 -1.59751e-18)
(1.00143 -0.00306698 5.5344e-19)
(1.00091 -0.00188195 2.38179e-19)
(1.00119 0.000178768 8.38465e-22)
(1.00124 -6.76494e-05 -5.74475e-20)
(1.00132 -0.000363708 -5.88462e-20)
(1.00142 -0.000741625 4.34993e-21)
(1.00152 -0.0012054 3.2494e-20)
(1.00161 -0.00173473 -1.15206e-19)
(1.00168 -0.00230417 -8.76526e-21)
(1.0017 -0.00288192 3.7807e-20)
(1.00168 -0.0034339 -2.68896e-20)
(1.00163 -0.00393449 2.41244e-20)
(1.00156 -0.00436128 2.97822e-20)
(1.00147 -0.00470646 1.86407e-20)
(1.00137 -0.00496467 1.26119e-19)
(1.00128 -0.00514129 -1.83317e-20)
(1.0012 -0.00524394 1.44661e-19)
(1.00113 -0.0052849 -1.76964e-19)
(1.00109 -0.00527397 -4.88752e-19)
(1.00106 -0.00522249 -1.20261e-18)
(1.00106 -0.00513937 1.59108e-18)
(1.00107 -0.0050331 -1.03542e-19)
(1.0011 -0.00490864 -1.19794e-18)
(1.00115 -0.00477037 -9.95695e-19)
(1.00121 -0.00461967 -3.81286e-20)
(1.00127 -0.00445702 -4.01454e-19)
(1.00134 -0.00427938 -1.63772e-18)
(1.0014 -0.00408123 -1.31711e-18)
(1.00144 -0.00384583 -2.50002e-18)
(1.00151 -0.00361218 1.00464e-19)
(1.00149 -0.00302548 -8.63395e-19)
(1.00097 -0.00181002 -2.02597e-19)
(1.00114 0.000152541 5.7606e-21)
(1.00118 -0.000154494 3.534e-20)
(1.00125 -0.000491762 7.15699e-20)
(1.00134 -0.000896411 -1.29348e-20)
(1.00145 -0.0013699 -1.24423e-19)
(1.00153 -0.00189308 -1.23355e-19)
(1.0016 -0.00244394 3.39526e-20)
(1.00162 -0.00299494 -2.87357e-20)
(1.00162 -0.00351679 -7.69345e-20)
(1.00158 -0.00398772 -5.04064e-21)
(1.00152 -0.00438835 -2.63561e-20)
(1.00144 -0.00471259 -1.19431e-19)
(1.00136 -0.00495576 1.15032e-19)
(1.00128 -0.00512302 -1.22345e-19)
(1.00121 -0.00522122 -1.94333e-19)
(1.00116 -0.00526158 1.84306e-19)
(1.00112 -0.00525282 -1.08846e-19)
(1.0011 -0.00520522 4.52721e-19)
(1.0011 -0.00512682 5.69166e-19)
(1.00112 -0.0050254 3.59062e-20)
(1.00115 -0.00490533 -5.31015e-19)
(1.0012 -0.00477053 1.13334e-18)
(1.00126 -0.00462187 4.46757e-19)
(1.00132 -0.00445942 7.4316e-19)
(1.00139 -0.00427963 1.49464e-18)
(1.00145 -0.00407643 5.95334e-19)
(1.00149 -0.00383253 4.13888e-18)
(1.00156 -0.00358711 1.81098e-18)
(1.00156 -0.00298595 2.53969e-19)
(1.00104 -0.00174117 -3.16084e-19)
(1.00108 0.000130329 6.78878e-21)
(1.00111 -0.000226094 4.51472e-20)
(1.00118 -0.000595278 7.64004e-21)
(1.00126 -0.00101971 1.38105e-19)
(1.00135 -0.00149877 -2.54716e-20)
(1.00144 -0.00201443 -5.97513e-20)
(1.0015 -0.0025478 -2.44127e-20)
(1.00153 -0.00307497 -9.52737e-20)
(1.00154 -0.00357082 1.30741e-19)
(1.00151 -0.00401671 -8.07479e-20)
(1.00146 -0.00439583 -1.93566e-19)
(1.0014 -0.00470345 3.73292e-21)
(1.00133 -0.00493538 -3.7313e-19)
(1.00126 -0.00509645 1.57514e-20)
(1.0012 -0.00519277 1.05831e-18)
(1.00116 -0.00523457 7.72072e-19)
(1.00113 -0.00522952 2.87901e-19)
(1.00112 -0.00518697 3.14134e-19)
(1.00113 -0.0051141 -1.30663e-18)
(1.00115 -0.00501805 1.23555e-19)
(1.00119 -0.00490265 1.95668e-18)
(1.00124 -0.00477138 -1.82281e-18)
(1.0013 -0.00462468 -2.00741e-18)
(1.00136 -0.00446222 -7.79476e-19)
(1.00143 -0.00428003 1.12572e-18)
(1.0015 -0.00407159 3.06789e-20)
(1.00154 -0.00381923 -3.58786e-18)
(1.00162 -0.00356236 -2.59473e-18)
(1.00162 -0.00294689 2.52354e-19)
(1.0011 -0.00167187 3.23997e-19)
(1.001 0.000111698 -8.08126e-21)
(1.00103 -0.000284146 -9.09557e-20)
(1.00109 -0.000677504 7.07691e-20)
(1.00116 -0.00111601 -1.25973e-19)
(1.00125 -0.00159738 3.99407e-20)
(1.00133 -0.00210469 3.82949e-19)
(1.00139 -0.00262179 -6.40434e-20)
(1.00143 -0.00312786 3.97731e-19)
(1.00144 -0.00360134 1.77131e-19)
(1.00142 -0.0040262 2.15581e-19)
(1.00139 -0.00438776 4.8946e-19)
(1.00134 -0.00468233 7.41202e-20)
(1.00128 -0.0049061 -2.09276e-19)
(1.00123 -0.00506351 2.02562e-19)
(1.00118 -0.00515995 -1.58278e-18)
(1.00115 -0.00520471 1.66905e-20)
(1.00113 -0.00520453 -3.14155e-19)
(1.00113 -0.00516783 -8.53887e-19)
(1.00114 -0.00510106 2.07327e-19)
(1.00117 -0.00501075 -1.5933e-18)
(1.00121 -0.00490021 -6.85876e-19)
(1.00127 -0.00477252 -1.03712e-18)
(1.00133 -0.00462773 2.14809e-18)
(1.0014 -0.00446517 -4.49428e-19)
(1.00148 -0.00428049 -2.39504e-19)
(1.00155 -0.00406684 2.01062e-18)
(1.00159 -0.00380623 9.30575e-19)
(1.00167 -0.00353842 5.02714e-19)
(1.00169 -0.00290902 -5.28021e-19)
(1.00116 -0.00160478 3.63867e-20)
(1.00092 9.59792e-05 1.66163e-20)
(1.00094 -0.000330595 3.14797e-20)
(1.00099 -0.000741737 -1.91607e-19)
(1.00106 -0.00118973 2.48409e-19)
(1.00114 -0.00167094 9.73142e-20)
(1.00122 -0.00216945 -2.73586e-19)
(1.00128 -0.00267152 3.2609e-19)
(1.00132 -0.00315896 -3.87682e-19)
(1.00133 -0.00361323 -5.40543e-19)
(1.00133 -0.00402045 -1.40352e-20)
(1.0013 -0.00436772 -4.54141e-19)
(1.00127 -0.00465215 4.16743e-19)
(1.00123 -0.00487021 6.14366e-19)
(1.00119 -0.00502593 3.85475e-19)
(1.00115 -0.005124 2.62868e-19)
(1.00113 -0.00517286 -1.18599e-18)
(1.00112 -0.00517835 4.97145e-19)
(1.00113 -0.00514808 1.51592e-18)
(1.00115 -0.00508778 -4.45474e-19)
(1.00119 -0.00500339 2.91148e-18)
(1.00124 -0.0048978 -2.54355e-20)
(1.0013 -0.0047737 3.12847e-18)
(1.00137 -0.00463075 -2.89569e-18)
(1.00144 -0.00446797 1.67335e-18)
(1.00152 -0.0042807 6.75726e-19)
(1.00159 -0.00406181 -9.17502e-19)
(1.00164 -0.00379304 4.52165e-19)
(1.00173 -0.00351449 1.85674e-18)
(1.00175 -0.00287119 -2.25802e-19)
(1.00123 -0.0015366 -7.10482e-20)
(1.00083 8.26895e-05 -1.21996e-20)
(1.00084 -0.000367157 5.60207e-20)
(1.00089 -0.000790953 -1.73437e-20)
(1.00095 -0.0012448 -4.4159e-19)
(1.00103 -0.001724 -3.11801e-19)
(1.0011 -0.00221357 -8.14138e-21)
(1.00116 -0.00270186 -8.83059e-19)
(1.0012 -0.00317289 3.09458e-19)
(1.00122 -0.0036107 6.14787e-19)
(1.00123 -0.00400318 2.53537e-19)
(1.00121 -0.00433888 3.9842e-19)
(1.00119 -0.00461557 5.83078e-19)
(1.00116 -0.00482988 -6.27595e-19)
(1.00113 -0.00498544 -1.18461e-18)
(1.00111 -0.0050863 2.70504e-19)
(1.0011 -0.00514007 -2.57393e-19)
(1.0011 -0.00515179 4.29231e-19)
(1.00112 -0.00512831 -1.21045e-18)
(1.00115 -0.00507469 1.12445e-18)
(1.00119 -0.00499636 -1.48974e-18)
(1.00125 -0.00489574 5.18701e-19)
(1.00132 -0.00477519 3.60951e-19)
(1.0014 -0.00463402 7.12279e-19)
(1.00148 -0.00447097 -1.24618e-18)
(1.00156 -0.0042811 -9.82202e-19)
(1.00163 -0.00405702 -1.0655e-18)
(1.00169 -0.0037803 5.95354e-19)
(1.00178 -0.00349135 -1.13091e-18)
(1.00181 -0.00283439 -4.5388e-19)
(1.00129 -0.0014704 -1.0026e-19)
(1.00073 7.12292e-05 1.65544e-20)
(1.00074 -0.000395582 5.58018e-20)
(1.00078 -0.000827896 6.42622e-20)
(1.00084 -0.00128479 2.5686e-19)
(1.00091 -0.00176066 -1.39666e-20)
(1.00098 -0.00224136 -4.2713e-19)
(1.00104 -0.00271706 6.86957e-19)
(1.00108 -0.00317364 -1.74826e-19)
(1.00111 -0.00359734 -4.46025e-19)
(1.00112 -0.00397747 -4.71481e-19)
(1.00112 -0.00430385 -4.05647e-19)
(1.0011 -0.00457472 1.74259e-19)
(1.00109 -0.00478683 -2.4611e-19)
(1.00107 -0.0049434 1.37752e-18)
(1.00106 -0.00504789 -1.72938e-18)
(1.00107 -0.00510714 7.17981e-19)
(1.00108 -0.00512546 7.65306e-20)
(1.00111 -0.00510897 6.71353e-19)
(1.00115 -0.00506213 -1.09003e-18)
(1.0012 -0.00498985 1.50986e-18)
(1.00127 -0.00489417 1.46168e-18)
(1.00134 -0.00477709 -9.48301e-19)
(1.00142 -0.00463759 3.15787e-18)
(1.00151 -0.00447415 2.29037e-18)
(1.00159 -0.00428157 -9.88663e-19)
(1.00168 -0.00405226 2.04293e-18)
(1.00174 -0.0037676 8.67668e-19)
(1.00183 -0.00346828 -2.33299e-19)
(1.00188 -0.00279755 1.47891e-20)
(1.00135 -0.00140287 4.80556e-19)
(1.00063 6.12316e-05 -2.77174e-21)
(1.00064 -0.000417264 -1.01973e-19)
(1.00067 -0.000854863 2.38107e-19)
(1.00073 -0.00131264 -2.91281e-19)
(1.00079 -0.00178426 6.2964e-20)
(1.00085 -0.00225632 7.52655e-19)
(1.00091 -0.00272058 -2.78389e-19)
(1.00096 -0.00316445 2.07365e-19)
(1.00099 -0.00357607 2.73415e-19)
(1.00101 -0.00394591 2.15995e-19)
(1.00102 -0.00426483 -2.92194e-19)
(1.00102 -0.00453145 -1.17603e-18)
(1.00101 -0.00474261 6.60495e-19)
(1.00101 -0.00490109 -8.70518e-19)
(1.00101 -0.00500983 1.77062e-18)
(1.00103 -0.00507495 9.07416e-19)
(1.00105 -0.00510008 -1.37164e-18)
(1.00109 -0.00509067 -1.30072e-18)
(1.00114 -0.00505062 7.47792e-19)
(1.0012 -0.00498436 -3.74527e-18)
(1.00128 -0.00489352 -4.00933e-18)
(1.00136 -0.00477981 2.17586e-18)
(1.00145 -0.00464189 -2.85092e-18)
(1.00154 -0.00447796 -1.06754e-18)
(1.00163 -0.00428264 2.385e-18)
(1.00172 -0.00404812 -1.67449e-18)
(1.00179 -0.00375563 -3.3535e-18)
(1.00189 -0.00344613 -7.24365e-19)
(1.00194 -0.00276173 4.07535e-19)
(1.00141 -0.00133727 -3.45009e-19)
(1.00053 5.2243e-05 -5.1276e-20)
(1.00053 -0.00043358 -1.7009e-20)
(1.00056 -0.000873888 -1.83588e-19)
(1.00061 -0.00133093 2.6982e-19)
(1.00067 -0.00179771 -2.22052e-19)
(1.00073 -0.00226148 1.34603e-19)
(1.00079 -0.00271535 -5.70077e-19)
(1.00084 -0.00314803 2.2777e-19)
(1.00088 -0.00354929 3.37511e-19)
(1.0009 -0.00391055 3.72779e-19)
(1.00092 -0.00422353 1.25725e-18)
(1.00093 -0.00448716 -4.70299e-19)
(1.00093 -0.00469831 -3.31446e-19)
(1.00094 -0.00485938 -5.43328e-19)
(1.00096 -0.0049728 2.97913e-19)
(1.00098 -0.00504403 -8.01271e-19)
(1.00102 -0.00507608 2.07337e-18)
(1.00107 -0.00507375 2.42587e-18)
(1.00113 -0.00504042 -5.67801e-20)
(1.0012 -0.00498006 2.72872e-18)
(1.00128 -0.00489395 -2.62992e-19)
(1.00137 -0.00478346 -1.88206e-18)
(1.00147 -0.00464695 1.45571e-18)
(1.00157 -0.0044824 -5.88933e-20)
(1.00167 -0.0042842 -1.03192e-18)
(1.00177 -0.00404435 6.23892e-19)
(1.00184 -0.00374396 3.75302e-18)
(1.00195 -0.00342416 1.86829e-18)
(1.00201 -0.00272583 -5.84948e-19)
(1.00148 -0.00127018 -4.27762e-19)
(1.00042 4.40438e-05 3.92615e-20)
(1.00042 -0.000445524 -5.48263e-20)
(1.00045 -0.000886584 8.36902e-20)
(1.00049 -0.00134169 -2.13113e-19)
(1.00055 -0.00180327 2.38946e-19)
(1.00061 -0.00225915 2.19683e-19)
(1.00067 -0.00270361 7.41292e-19)
(1.00072 -0.00312647 -9.48137e-19)
(1.00076 -0.00351887 -1.38284e-18)
(1.00079 -0.003873 -3.23591e-19)
(1.00082 -0.00418132 -1.66641e-19)
(1.00083 -0.00444301 1.45386e-19)
(1.00085 -0.00465493 -3.50356e-19)
(1.00087 -0.00481912 3.76274e-20)
(1.0009 -0.00493754 -1.546e-18)
(1.00094 -0.00501502 -6.42488e-19)
(1.00098 -0.00505401 -8.78649e-19)
(1.00104 -0.0050587 -7.28359e-20)
(1.00111 -0.005032 -2.4278e-18)
(1.0012 -0.0049774 -1.45896e-18)
(1.00129 -0.00489586 2.21774e-18)
(1.00139 -0.00478844 1.92195e-18)
(1.00149 -0.00465322 -1.34608e-18)
(1.0016 -0.00448791 -2.21662e-19)
(1.00171 -0.00428675 -2.16689e-19)
(1.00181 -0.00404156 2.73189e-19)
(1.00189 -0.00373327 -2.21947e-18)
(1.002 -0.00340325 -9.96589e-19)
(1.00208 -0.00269103 2.69717e-18)
(1.00154 -0.00120507 3.86486e-20)
(1.00032 3.63156e-05 -2.05e-20)
(1.0003 -0.000454102 -2.87881e-20)
(1.00034 -0.000894363 -1.98627e-19)
(1.00038 -0.00134669 9.68086e-20)
(1.00043 -0.0018029 4.54249e-19)
(1.00049 -0.00225133 -6.45566e-21)
(1.00055 -0.0026873 9.50771e-19)
(1.0006 -0.0031015 -3.14378e-19)
(1.00064 -0.00348632 1.12644e-18)
(1.00068 -0.00383453 4.22774e-19)
(1.00071 -0.00413925 3.93012e-19)
(1.00074 -0.00439981 -5.18382e-19)
(1.00077 -0.0046131 2.79505e-19)
(1.0008 -0.0047808 -1.16709e-19)
(1.00084 -0.00490441 3.53542e-19)
(1.00089 -0.00498821 1.86495e-18)
(1.00095 -0.0050341 1.38868e-19)
(1.00102 -0.00504572 -1.43944e-18)
(1.0011 -0.00502549 1.6187e-18)
(1.00119 -0.0049765 -1.41252e-18)
(1.00129 -0.00489935 3.48192e-18)
(1.0014 -0.00479482 -1.86406e-18)
(1.00151 -0.00466068 2.9511e-18)
(1.00163 -0.00449445 -9.78729e-19)
(1.00174 -0.00429015 9.37775e-19)
(1.00185 -0.00403944 1.54196e-20)
(1.00194 -0.0037231 1.44541e-18)
(1.00206 -0.00338263 1.45912e-18)
(1.00215 -0.00265617 -1.3446e-18)
(1.00161 -0.0011384 -1.66813e-19)
(1.00021 2.89604e-05 6.02602e-20)
(1.00019 -0.000459958 2.4707e-19)
(1.00022 -0.00089829 2.21418e-19)
(1.00026 -0.00134722 -1.18567e-19)
(1.00031 -0.00179803 -1.2899e-19)
(1.00037 -0.00223948 -8.59986e-19)
(1.00043 -0.00266778 -1.52383e-18)
(1.00048 -0.00307439 1.89948e-18)
(1.00053 -0.00345274 -2.95984e-19)
(1.00057 -0.00379608 3.1679e-19)
(1.00061 -0.0040981 -2.24357e-18)
(1.00065 -0.00435825 8.50756e-19)
(1.00069 -0.00457341 2.01109e-19)
(1.00073 -0.00474492 -2.41631e-19)
(1.00078 -0.00487388 2.42762e-18)
(1.00084 -0.00496402 -6.46036e-19)
(1.00091 -0.00501675 -5.98939e-19)
(1.00099 -0.00503517 -4.94429e-19)
(1.00108 -0.00502126 -7.83863e-19)
(1.00118 -0.00497769 7.25249e-19)
(1.00129 -0.00490476 -8.22943e-19)
(1.00141 -0.00480295 1.95506e-18)
(1.00153 -0.00466974 -2.68112e-18)
(1.00166 -0.00450243 -2.54506e-18)
(1.00178 -0.00429488 -3.41776e-18)
(1.0019 -0.00403858 2.31158e-19)
(1.00199 -0.00371414 -5.03049e-19)
(1.00212 -0.00336319 -1.09927e-19)
(1.00221 -0.00262244 5.69745e-19)
(1.00167 -0.00107375 3.75465e-19)
(1.0001 2.17588e-05 -5.24452e-20)
(1.00008 -0.000463805 -1.59355e-19)
(1.00011 -0.000899304 3.20643e-20)
(1.00015 -0.00134445 -9.46055e-20)
(1.0002 -0.00178993 3.95543e-20)
(1.00025 -0.00222486 6.0533e-19)
(1.00031 -0.00264626 -1.74858e-20)
(1.00036 -0.00304619 -7.2945e-19)
(1.00041 -0.00341902 -1.20557e-18)
(1.00046 -0.00375838 -2.22285e-18)
(1.00051 -0.00405844 -9.21155e-19)
(1.00056 -0.00431874 -8.73188e-19)
(1.0006 -0.00453617 8.22991e-19)
(1.00066 -0.00471171 1.46122e-18)
(1.00072 -0.0048461 -3.95182e-18)
(1.00079 -0.00494256 -2.03271e-18)
(1.00087 -0.00500203 4.02857e-18)
(1.00096 -0.00502711 2.26681e-18)
(1.00106 -0.00501934 4.2652e-18)
(1.00117 -0.00498102 1.88695e-18)
(1.00129 -0.0049121 -2.1395e-18)
(1.00142 -0.0048128 -3.68917e-18)
(1.00155 -0.00468033 5.64868e-18)
(1.00169 -0.00451174 9.9301e-19)
(1.00182 -0.00430072 3.05837e-18)
(1.00194 -0.00403861 -9.84056e-19)
(1.00204 -0.00370584 2.12785e-18)
(1.00218 -0.00334411 2.05013e-18)
(1.00228 -0.00258865 -6.86595e-19)
(1.00174 -0.00100747 2.59804e-19)
(0.999989 1.46955e-05 -1.03049e-20)
(0.999968 -0.00046602 -1.32362e-19)
(0.999995 -0.00089807 -1.75146e-19)
(1.00003 -0.00133918 3.31476e-19)
(1.00008 -0.00177946 -2.20174e-19)
(1.00013 -0.00220833 -3.70215e-19)
(1.00019 -0.00262352 5.75757e-19)
(1.00024 -0.0030176 -6.28431e-19)
(1.0003 -0.00338576 -2.21857e-19)
(1.00035 -0.00372193 2.65589e-18)
(1.00041 -0.00402069 9.98938e-19)
(1.00046 -0.00428167 1.4068e-18)
(1.00052 -0.00450169 -1.99346e-19)
(1.00058 -0.00468146 -1.19248e-18)
(1.00065 -0.00482135 2.24461e-18)
(1.00073 -0.0049241 1.08319e-18)
(1.00082 -0.00499022 -3.65282e-18)
(1.00093 -0.00502182 -4.10069e-18)
(1.00104 -0.00502004 -4.60243e-19)
(1.00116 -0.00498678 -3.46145e-18)
(1.00129 -0.00492169 1.98094e-18)
(1.00143 -0.00482473 -2.17566e-19)
(1.00157 -0.00469281 -8.45951e-18)
(1.00171 -0.00452278 3.1211e-18)
(1.00185 -0.00430817 7.9559e-19)
(1.00199 -0.00404013 1.34211e-18)
(1.00209 -0.00369892 4.52246e-19)
(1.00224 -0.00332634 -5.23355e-18)
(1.00236 -0.00255609 -9.48342e-19)
(1.0018 -0.000943289 -4.88891e-19)
(0.999879 7.61379e-06 1.76277e-20)
(0.999856 -0.000467103 1.96536e-19)
(0.999883 -0.000895204 -2.18967e-21)
(0.999917 -0.00133216 1.32032e-19)
(0.999963 -0.00176743 1.62354e-19)
(1.00001 -0.00219069 5.1118e-19)
(1.00007 -0.0026003 9.7638e-20)
(1.00013 -0.00298925 1.06033e-18)
(1.00019 -0.00335349 1.9073e-18)
(1.00025 -0.00368712 -1.54769e-18)
(1.00031 -0.00398514 3.45e-18)
(1.00037 -0.00424718 -4.31777e-19)
(1.00043 -0.00447008 -4.10961e-19)
(1.00051 -0.00465422 -1.14125e-18)
(1.00059 -0.00479965 9.10076e-19)
(1.00068 -0.00490865 3.96542e-19)
(1.00078 -0.00498132 -4.99832e-19)
(1.00089 -0.00501929 4.33967e-18)
(1.00102 -0.00502332 -2.98273e-18)
(1.00115 -0.00499493 2.1345e-19)
(1.00129 -0.00493348 -1.26307e-18)
(1.00144 -0.00483866 -3.76278e-18)
(1.00159 -0.00470708 5.77852e-18)
(1.00174 -0.00453539 -1.81098e-19)
(1.00189 -0.00431695 -1.00466e-18)
(1.00203 -0.00404274 1.32964e-18)
(1.00215 -0.00369282 -5.46832e-18)
(1.0023 -0.00330901 -1.22382e-19)
(1.00243 -0.0025235 8.82349e-19)
(1.00187 -0.000877445 2.6991e-19)
(0.99977 5.52273e-07 4.82861e-20)
(0.999745 -0.000467245 -3.10057e-21)
(0.999772 -0.000891097 -1.3552e-19)
(0.999804 -0.00132385 9.41452e-20)
(0.999849 -0.00175431 4.1142e-20)
(0.999899 -0.0021724 3.8174e-19)
(0.999957 -0.002577 -5.18228e-19)
(1.00002 -0.0029615 -5.69205e-19)
(1.00008 -0.00332247 8.10558e-19)
(1.00014 -0.00365419 -6.72912e-19)
(1.00021 -0.00395196 -4.99049e-18)
(1.00028 -0.00421547 -1.238e-18)
(1.00035 -0.00444151 3.0388e-18)
(1.00043 -0.00463016 7.99356e-19)
(1.00052 -0.00478116 -1.99045e-18)
(1.00062 -0.00489638 -7.05941e-19)
(1.00074 -0.00497551 -2.40333e-18)
(1.00086 -0.00501972 -3.21377e-18)
(1.00099 -0.00502942 -2.68993e-18)
(1.00114 -0.00500574 2.71403e-18)
(1.00129 -0.00494776 3.79367e-18)
(1.00145 -0.0048549 5.22981e-18)
(1.00161 -0.0047235 -3.58258e-19)
(1.00177 -0.00454998 -2.69857e-18)
(1.00193 -0.00432755 -3.17963e-18)
(1.00208 -0.00404701 -4.80079e-20)
(1.0022 -0.00368824 -3.86278e-19)
(1.00236 -0.00329309 -5.78249e-19)
(1.0025 -0.00249219 2.155e-19)
(1.00194 -0.000813778 -1.50207e-19)
(0.999661 -6.60952e-06 -7.31973e-20)
(0.999634 -0.000466805 9.22119e-20)
(0.999661 -0.00088615 -6.68606e-21)
(0.999692 -0.00131473 -4.20199e-19)
(0.999735 -0.00174063 -3.37114e-19)
(0.999785 -0.00215395 -9.40486e-19)
(0.999843 -0.00255408 1.3853e-18)
(0.999904 -0.00293471 -1.40344e-18)
(0.999969 -0.003293 1.24928e-18)
(1.00004 -0.00362331 1.48556e-18)
(1.00011 -0.00392127 6.4902e-19)
(1.00018 -0.00418656 3.64557e-19)