/*--------------------------------*- C++ -*----------------------------------*\
  =========                 |
  \\      /  F ield         | OpenFOAM: The Open Source CFD Toolbox
   \\    /   O peration     | Website:  https://openfoam.org
    \\  /    A nd           | Version:  6.0
     \\/     M anipulation  |
\*---------------------------------------------------------------------------*/
FoamFile
{
    version     2.0;
    format      ascii;
    class       volScalarField;
    location    "3.93";
    object      p;
}
// * * * * * * * * * * * * * * * * * * * * * * * * * * * * * * * * * * * * * //

dimensions      [0 2 -2 0 0 0 0];

internalField   nonuniform List<scalar> 
13500
(
0.098605
0.098743
0.098113
0.097878
0.096508
0.096372
0.094943
0.095737
0.096694
0.099643
0.12276
0.16401
0.098605
0.098744
0.098113
0.097879
0.096508
0.096372
0.094941
0.095737
0.096691
0.099704
0.12208
0.15896
0.098606
0.098745
0.098112
0.09788
0.096506
0.096374
0.094939
0.095736
0.096683
0.099747
0.1212
0.15447
0.098606
0.098747
0.098112
0.097883
0.096505
0.096376
0.094935
0.095735
0.096669
0.099765
0.12023
0.15096
0.098608
0.098749
0.098113
0.097885
0.096504
0.096378
0.09493
0.095732
0.09665
0.099769
0.11919
0.14799
0.098609
0.098752
0.098113
0.097888
0.096502
0.09638
0.094925
0.095728
0.096626
0.099761
0.11812
0.14535
0.098611
0.098755
0.098115
0.097892
0.096502
0.096382
0.094919
0.095724
0.096597
0.09974
0.11704
0.14294
0.098614
0.098759
0.098116
0.097895
0.096501
0.096383
0.094913
0.095718
0.096563
0.099704
0.11597
0.14074
0.098617
0.098763
0.098118
0.097899
0.0965
0.096385
0.094906
0.095712
0.096524
0.099655
0.11491
0.1387
0.098621
0.098767
0.098121
0.097904
0.0965
0.096387
0.094899
0.095704
0.09648
0.099592
0.1139
0.13679
0.098625
0.098772
0.098124
0.097908
0.0965
0.096389
0.094891
0.095696
0.096431
0.099517
0.11292
0.13501
0.09863
0.098777
0.098127
0.097913
0.0965
0.096391
0.094882
0.095687
0.096376
0.099429
0.11198
0.13332
0.098635
0.098783
0.098131
0.097918
0.0965
0.096392
0.094873
0.095677
0.096316
0.099331
0.11108
0.13172
0.09864
0.098789
0.098135
0.097924
0.096501
0.096394
0.094864
0.095666
0.096251
0.099224
0.11023
0.1302
0.098646
0.098796
0.09814
0.09793
0.096501
0.096396
0.094853
0.095654
0.09618
0.09911
0.10941
0.12875
0.098653
0.098803
0.098145
0.097936
0.096502
0.096398
0.094842
0.095641
0.096104
0.098989
0.10863
0.12737
0.09866
0.098811
0.09815
0.097943
0.096503
0.0964
0.094831
0.095626
0.096022
0.098863
0.10789
0.12605
0.098668
0.098819
0.098156
0.09795
0.096505
0.096401
0.094819
0.095611
0.095935
0.098734
0.10718
0.12478
0.098676
0.098828
0.098163
0.097957
0.096506
0.096403
0.094807
0.095595
0.095843
0.098603
0.10649
0.12355
0.098685
0.098837
0.09817
0.097965
0.096508
0.096405
0.094793
0.095577
0.095746
0.09847
0.10583
0.12238
0.098694
0.098846
0.098177
0.097973
0.09651
0.096407
0.09478
0.095558
0.095644
0.098337
0.10519
0.12124
0.098704
0.098856
0.098185
0.097981
0.096512
0.096409
0.094766
0.095539
0.095537
0.098204
0.10457
0.12014
0.098715
0.098867
0.098194
0.09799
0.096514
0.096411
0.094751
0.095517
0.095427
0.098073
0.10396
0.11907
0.098726
0.098878
0.098203
0.097999
0.096517
0.096412
0.094735
0.095495
0.095312
0.097943
0.10337
0.11803
0.098737
0.09889
0.098212
0.098008
0.09652
0.096414
0.09472
0.095471
0.095194
0.097814
0.10279
0.11702
0.098749
0.098902
0.098222
0.098018
0.096523
0.096416
0.094703
0.095446
0.095072
0.097687
0.10221
0.11603
0.098762
0.098915
0.098232
0.098029
0.096526
0.096418
0.094686
0.095419
0.094948
0.097562
0.10165
0.11507
0.098775
0.098928
0.098243
0.098039
0.096529
0.09642
0.094669
0.095392
0.094821
0.097439
0.10109
0.11414
0.098789
0.098942
0.098255
0.09805
0.096533
0.096422
0.094651
0.095362
0.094691
0.097317
0.10054
0.11322
0.098803
0.098956
0.098267
0.098062
0.096537
0.096424
0.094632
0.095332
0.09456
0.097197
0.099998
0.11232
0.098818
0.098971
0.098279
0.098074
0.096541
0.096426
0.094613
0.095299
0.094428
0.097077
0.099458
0.11144
0.098834
0.098986
0.098292
0.098086
0.096546
0.096428
0.094593
0.095266
0.094294
0.096959
0.098923
0.11057
0.09885
0.099002
0.098306
0.098098
0.09655
0.09643
0.094573
0.095231
0.094159
0.096841
0.098392
0.10973
0.098867
0.099018
0.09832
0.098112
0.096555
0.096433
0.094553
0.095195
0.094024
0.096724
0.097865
0.10889
0.098884
0.099035
0.098334
0.098125
0.096561
0.096435
0.094531
0.095157
0.093889
0.096606
0.097344
0.10808
0.098902
0.099053
0.09835
0.098139
0.096566
0.096437
0.094509
0.095118
0.093754
0.096488
0.096826
0.10728
0.098921
0.099071
0.098365
0.098153
0.096572
0.096439
0.094487
0.095078
0.093618
0.09637
0.096313
0.10649
0.09894
0.09909
0.098382
0.098168
0.096578
0.096442
0.094464
0.095036
0.093484
0.09625
0.095806
0.10572
0.09896
0.099109
0.098398
0.098183
0.096584
0.096444
0.09444
0.094994
0.09335
0.096129
0.095303
0.10496
0.09898
0.099129
0.098416
0.098199
0.096591
0.096446
0.094416
0.094951
0.093216
0.096007
0.094805
0.10421
0.099002
0.099149
0.098434
0.098215
0.096598
0.096449
0.094391
0.094906
0.093084
0.095883
0.094313
0.10348
0.099023
0.09917
0.098452
0.098231
0.096605
0.096451
0.094365
0.094861
0.092952
0.095758
0.093826
0.10276
0.099046
0.099192
0.098471
0.098248
0.096612
0.096453
0.094339
0.094815
0.092821
0.09563
0.093346
0.10206
0.099069
0.099214
0.098491
0.098265
0.09662
0.096456
0.094312
0.094769
0.092691
0.095501
0.092871
0.10136
0.099092
0.099237
0.098511
0.098283
0.096628
0.096459
0.094285
0.094722
0.092562
0.095369
0.092403
0.10068
0.099117
0.09926
0.098532
0.098301
0.096636
0.096461
0.094257
0.094674
0.092434
0.095236
0.091941
0.10001
0.099142
0.099285
0.098553
0.09832
0.096645
0.096464
0.094228
0.094627
0.092307
0.095099
0.091486
0.099359
0.099167
0.099309
0.098575
0.098339
0.096654
0.096466
0.094198
0.094579
0.092181
0.094961
0.091038
0.098715
0.099193
0.099334
0.098598
0.098358
0.096663
0.096469
0.094168
0.094531
0.092056
0.094821
0.090596
0.098083
0.09922
0.09936
0.098621
0.098378
0.096673
0.096472
0.094137
0.094484
0.091931
0.094678
0.090162
0.097463
0.099248
0.099387
0.098644
0.098399
0.096683
0.096474
0.094106
0.094436
0.091807
0.094533
0.089734
0.096854
0.099276
0.099414
0.098669
0.098419
0.096693
0.096477
0.094074
0.094389
0.091683
0.094385
0.089314
0.096257
0.099305
0.099442
0.098694
0.098441
0.096704
0.09648
0.094041
0.094342
0.09156
0.094236
0.0889
0.095671
0.099335
0.09947
0.098719
0.098462
0.096715
0.096483
0.094008
0.094295
0.091436
0.094085
0.088494
0.095096
0.099365
0.099499
0.098745
0.098485
0.096726
0.096486
0.093974
0.094249
0.091314
0.093931
0.088094
0.094532
0.099396
0.099529
0.098772
0.098507
0.096738
0.096488
0.09394
0.094204
0.091191
0.093776
0.087702
0.093977
0.099428
0.099559
0.0988
0.098531
0.09675
0.096491
0.093905
0.094159
0.091068
0.093619
0.087316
0.093433
0.09946
0.09959
0.098828
0.098554
0.096762
0.096494
0.093869
0.094115
0.090945
0.09346
0.086938
0.092899
0.099493
0.099621
0.098856
0.098578
0.096775
0.096497
0.093834
0.094072
0.090822
0.093299
0.086566
0.092375
0.099527
0.099654
0.098886
0.098603
0.096788
0.0965
0.093797
0.094029
0.090698
0.093137
0.086201
0.09186
0.099561
0.099687
0.098915
0.098628
0.096802
0.096502
0.09376
0.093987
0.090574
0.092974
0.085842
0.091354
0.099596
0.09972
0.098946
0.098653
0.096816
0.096505
0.093723
0.093946
0.09045
0.092809
0.08549
0.090857
0.099632
0.099754
0.098977
0.098679
0.09683
0.096508
0.093686
0.093906
0.090325
0.092642
0.085143
0.090369
0.099669
0.099789
0.099009
0.098705
0.096845
0.096511
0.093648
0.093867
0.0902
0.092475
0.084803
0.089889
0.099706
0.099825
0.099042
0.098732
0.09686
0.096514
0.09361
0.093828
0.090075
0.092306
0.08447
0.089417
0.099744
0.099861
0.099075
0.09876
0.096876
0.096516
0.093572
0.09379
0.089948
0.092137
0.084141
0.088953
0.099782
0.099898
0.099109
0.098787
0.096892
0.096519
0.093534
0.093753
0.089822
0.091966
0.083819
0.088496
0.099822
0.099935
0.099143
0.098816
0.096908
0.096522
0.093496
0.093716
0.089694
0.091795
0.083502
0.088047
0.099862
0.099973
0.099178
0.098845
0.096925
0.096524
0.093457
0.09368
0.089567
0.091623
0.083191
0.087605
0.099903
0.10001
0.099214
0.098874
0.096942
0.096527
0.093419
0.093644
0.089438
0.09145
0.082885
0.08717
0.099944
0.10005
0.09925
0.098903
0.09696
0.09653
0.093381
0.093609
0.08931
0.091276
0.082584
0.086742
0.099986
0.10009
0.099287
0.098934
0.096978
0.096533
0.093343
0.093574
0.089181
0.091102
0.082287
0.08632
0.10003
0.10013
0.099325
0.098964
0.096996
0.096535
0.093304
0.09354
0.089051
0.090928
0.081996
0.085904
0.10007
0.10017
0.099364
0.098995
0.097015
0.096538
0.093266
0.093506
0.088921
0.090753
0.08171
0.085494
0.10012
0.10022
0.099403
0.099027
0.097034
0.096541
0.093229
0.093472
0.088791
0.090577
0.081428
0.085091
0.10016
0.10026
0.099443
0.099059
0.097054
0.096544
0.093191
0.093438
0.088661
0.090402
0.08115
0.084692
0.10021
0.1003
0.099483
0.099092
0.097074
0.096547
0.093154
0.093404
0.088531
0.090226
0.080877
0.0843
0.10026
0.10035
0.099524
0.099125
0.097095
0.09655
0.093117
0.09337
0.0884
0.09005
0.080608
0.083912
0.1003
0.10039
0.099566
0.099158
0.097116
0.096554
0.09308
0.093336
0.088269
0.089874
0.080343
0.08353
0.10035
0.10044
0.099609
0.099192
0.097138
0.096557
0.093044
0.093302
0.088139
0.089697
0.080082
0.083153
0.1004
0.10049
0.099652
0.099227
0.09716
0.096561
0.093008
0.093267
0.088008
0.089521
0.079825
0.082781
0.10045
0.10053
0.099696
0.099262
0.097182
0.096565
0.092972
0.093232
0.087878
0.089345
0.079572
0.082413
0.1005
0.10058
0.099741
0.099297
0.097205
0.096569
0.092937
0.093197
0.087748
0.089169
0.079322
0.08205
0.10055
0.10063
0.099786
0.099333
0.097228
0.096573
0.092902
0.093162
0.087618
0.088992
0.079077
0.081692
0.1006
0.10068
0.099832
0.09937
0.097252
0.096578
0.092867
0.093125
0.087489
0.088816
0.078834
0.081338
0.10066
0.10073
0.099879
0.099407
0.097276
0.096583
0.092833
0.093089
0.08736
0.088641
0.078595
0.080988
0.10071
0.10078
0.099927
0.099444
0.0973
0.096588
0.092799
0.093051
0.087231
0.088465
0.078359
0.080642
0.10076
0.10083
0.099975
0.099482
0.097325
0.096594
0.092765
0.093014
0.087103
0.08829
0.078127
0.0803
0.10082
0.10089
0.10002
0.099521
0.09735
0.0966
0.092732
0.092975
0.086975
0.088115
0.077898
0.079963
0.10087
0.10094
0.10007
0.09956
0.097376
0.096607
0.092699
0.092936
0.086848
0.08794
0.077672
0.079629
0.10093
0.10099
0.10012
0.0996
0.097402
0.096614
0.092666
0.092896
0.086722
0.087765
0.077448
0.079299
0.10099
0.10105
0.10018
0.09964
0.097429
0.096621
0.092634
0.092855
0.086596
0.087591
0.077228
0.078972
0.10105
0.1011
0.10023
0.099681
0.097456
0.096629
0.092602
0.092814
0.086471
0.087417
0.077011
0.078649
0.1011
0.10116
0.10028
0.099722
0.097484
0.096638
0.09257
0.092771
0.086347
0.087244
0.076797
0.07833
0.10116
0.10122
0.10033
0.099764
0.097512
0.096647
0.092538
0.092728
0.086223
0.087071
0.076585
0.078014
0.10123
0.10128
0.10039
0.099807
0.09754
0.096657
0.092507
0.092685
0.0861
0.086898
0.076376
0.077702
0.10129
0.10133
0.10044
0.09985
0.097569
0.096668
0.092475
0.09264
0.085978
0.086726
0.07617
0.077393
0.10135
0.10139
0.1005
0.099894
0.097598
0.096679
0.092444
0.092594
0.085857
0.086555
0.075966
0.077087
0.10141
0.10145
0.10056
0.099938
0.097627
0.096691
0.092413
0.092548
0.085736
0.086383
0.075765
0.076784
0.10148
0.10152
0.10061
0.099983
0.097657
0.096703
0.092383
0.092501
0.085617
0.086212
0.075566
0.076484
0.10154
0.10158
0.10067
0.10003
0.097688
0.096717
0.092352
0.092453
0.085498
0.086042
0.075369
0.076187
0.10161
0.10164
0.10073
0.10008
0.097719
0.096731
0.092322
0.092404
0.08538
0.085872
0.075175
0.075894
0.10167
0.10171
0.10079
0.10012
0.09775
0.096745
0.092292
0.092355
0.085262
0.085702
0.074983
0.075603
0.10174
0.10177
0.10085
0.10017
0.097782
0.096761
0.092261
0.092305
0.085146
0.085533
0.074794
0.075314
0.10181
0.10184
0.10092
0.10022
0.097814
0.096777
0.092231
0.092254
0.08503
0.085364
0.074606
0.075029
0.10188
0.1019
0.10098
0.10027
0.097847
0.096794
0.092202
0.092202
0.084915
0.085196
0.074421
0.074746
0.10195
0.10197
0.10104
0.10032
0.09788
0.096812
0.092172
0.092149
0.084801
0.085028
0.074237
0.074466
0.10202
0.10204
0.10111
0.10037
0.097914
0.096831
0.092143
0.092096
0.084688
0.08486
0.074056
0.074188
0.1021
0.10211
0.10117
0.10042
0.097948
0.09685
0.092113
0.092042
0.084576
0.084693
0.073876
0.073912
0.10217
0.10218
0.10124
0.10047
0.097983
0.09687
0.092084
0.091987
0.084464
0.084526
0.073699
0.073639
0.10224
0.10226
0.10131
0.10053
0.098018
0.096891
0.092055
0.091932
0.084353
0.08436
0.073523
0.073368
0.10232
0.10233
0.10138
0.10058
0.098054
0.096913
0.092027
0.091876
0.084243
0.084194
0.073348
0.0731
0.1024
0.1024
0.10145
0.10064
0.098091
0.096936
0.091999
0.091819
0.084133
0.084028
0.073176
0.072833
0.10248
0.10248
0.10152
0.1007
0.098128
0.096959
0.091971
0.091762
0.084024
0.083862
0.073005
0.072569
0.10256
0.10256
0.10159
0.10075
0.098165
0.096984
0.091943
0.091704
0.083916
0.083697
0.072835
0.072306
0.10264
0.10264
0.10166
0.10081
0.098204
0.097009
0.091916
0.091646
0.083809
0.083532
0.072667
0.072046
0.10272
0.10272
0.10174
0.10087
0.098243
0.097035
0.091889
0.091587
0.083702
0.083367
0.072501
0.071787
0.1028
0.1028
0.10181
0.10093
0.098282
0.097062
0.091863
0.091528
0.083596
0.083202
0.072335
0.07153
0.10289
0.10288
0.10189
0.101
0.098323
0.097089
0.091837
0.091468
0.083491
0.083037
0.072171
0.071275
0.10297
0.10296
0.10197
0.10106
0.098364
0.097118
0.091812
0.091408
0.083386
0.082873
0.072009
0.071021
0.10306
0.10305
0.10205
0.10113
0.098407
0.097148
0.091788
0.091347
0.083282
0.082708
0.071847
0.070769
0.10315
0.10314
0.10213
0.10119
0.09845
0.097178
0.091764
0.091286
0.083178
0.082544
0.071687
0.070518
0.10324
0.10323
0.10221
0.10126
0.098494
0.097209
0.091741
0.091225
0.083075
0.08238
0.071527
0.070268
0.10333
0.10332
0.1023
0.10133
0.098539
0.097242
0.091719
0.091164
0.082973
0.082216
0.071369
0.07002
0.10343
0.10341
0.10238
0.1014
0.098585
0.097275
0.091697
0.091102
0.082872
0.082052
0.071211
0.069773
0.10353
0.10351
0.10247
0.10148
0.098633
0.097309
0.091677
0.09104
0.082771
0.081888
0.071055
0.069527
0.10362
0.1036
0.10256
0.10155
0.098681
0.097344
0.091657
0.090978
0.082671
0.081724
0.070899
0.069282
0.10372
0.1037
0.10265
0.10163
0.098731
0.097381
0.091639
0.090917
0.082571
0.08156
0.070744
0.069038
0.10383
0.1038
0.10275
0.10171
0.098783
0.097418
0.091622
0.090855
0.082473
0.081396
0.070589
0.068795
0.10393
0.10391
0.10284
0.10179
0.098835
0.097457
0.091606
0.090793
0.082375
0.081232
0.070435
0.068552
0.10404
0.10401
0.10294
0.10187
0.09889
0.097497
0.091591
0.090731
0.082277
0.081068
0.070282
0.06831
0.10415
0.10412
0.10304
0.10196
0.098946
0.097538
0.091578
0.09067
0.082181
0.080904
0.070129
0.068069
0.10426
0.10423
0.10314
0.10205
0.099004
0.097581
0.091567
0.090609
0.082085
0.080739
0.069977
0.067829
0.10437
0.10434
0.10325
0.10214
0.099063
0.097625
0.091557
0.090548
0.08199
0.080575
0.069825
0.067588
0.10449
0.10446
0.10335
0.10223
0.099125
0.09767
0.091548
0.090487
0.081896
0.080411
0.069673
0.067348
0.10461
0.10458
0.10346
0.10233
0.099189
0.097717
0.091541
0.090428
0.081802
0.080247
0.069522
0.067109
0.10473
0.1047
0.10358
0.10243
0.099255
0.097766
0.091537
0.090368
0.08171
0.080082
0.069371
0.066869
0.10486
0.10483
0.10369
0.10253
0.099324
0.097817
0.091534
0.09031
0.081619
0.079918
0.06922
0.06663
0.10498
0.10496
0.10381
0.10263
0.099395
0.097869
0.091533
0.090252
0.081529
0.079753
0.069069
0.06639
0.10512
0.10509
0.10393
0.10274
0.099469
0.097923
0.091535
0.090196
0.081439
0.079588
0.068918
0.066151
0.10525
0.10523
0.10406
0.10285
0.099545
0.09798
0.091539
0.09014
0.081351
0.079424
0.068767
0.065911
0.10539
0.10537
0.10419
0.10297
0.099625
0.098039
0.091546
0.090085
0.081264
0.079259
0.068617
0.065671
0.10554
0.10551
0.10432
0.10309
0.099708
0.0981
0.091555
0.090032
0.081179
0.079095
0.068466
0.065431
0.10568
0.10566
0.10446
0.10321
0.099795
0.098163
0.091566
0.08998
0.081094
0.07893
0.068315
0.06519
0.10583
0.10581
0.1046
0.10334
0.099885
0.09823
0.091581
0.08993
0.081011
0.078766
0.068164
0.064948
0.10599
0.10597
0.10475
0.10347
0.099979
0.098299
0.091599
0.089881
0.08093
0.078602
0.068012
0.064706
0.10615
0.10613
0.1049
0.10361
0.10008
0.098371
0.09162
0.089834
0.08085
0.078438
0.06786
0.064463
0.10632
0.1063
0.10505
0.10375
0.10018
0.098447
0.091645
0.089789
0.080772
0.078274
0.067708
0.064219
0.10649
0.10647
0.10521
0.1039
0.10029
0.098525
0.091673
0.089746
0.080695
0.07811
0.067556
0.063974
0.10666
0.10665
0.10538
0.10405
0.1004
0.098608
0.091704
0.089705
0.080621
0.077946
0.067403
0.063728
0.10684
0.10683
0.10555
0.10421
0.10051
0.098694
0.09174
0.089666
0.080548
0.077783
0.06725
0.063481
0.10703
0.10702
0.10572
0.10437
0.10064
0.098784
0.09178
0.08963
0.080477
0.07762
0.067097
0.063232
0.10722
0.10722
0.10591
0.10454
0.10076
0.098879
0.091824
0.089597
0.080409
0.077458
0.066942
0.062982
0.10742
0.10742
0.1061
0.10472
0.1009
0.098977
0.091872
0.089567
0.080342
0.077296
0.066788
0.062731
0.10763
0.10763
0.10629
0.1049
0.10103
0.099081
0.091925
0.089539
0.080278
0.077135
0.066632
0.062478
0.10784
0.10785
0.10649
0.10509
0.10118
0.099189
0.091983
0.089515
0.080217
0.076974
0.066476
0.062223
0.10806
0.10807
0.1067
0.10528
0.10133
0.099303
0.092046
0.089494
0.080158
0.076813
0.066319
0.061966
0.10828
0.1083
0.10692
0.10549
0.10149
0.099422
0.092115
0.089477
0.080101
0.076654
0.066162
0.061707
0.10851
0.10854
0.10715
0.1057
0.10166
0.099547
0.092189
0.089464
0.080048
0.076495
0.066003
0.061446
0.10876
0.10879
0.10738
0.10592
0.10183
0.099678
0.092268
0.089454
0.079997
0.076337
0.065844
0.061183
0.109
0.10904
0.10762
0.10615
0.10201
0.099815
0.092354
0.089449
0.07995
0.076179
0.065684
0.060917
0.10926
0.10931
0.10787
0.10638
0.1022
0.099958
0.092446
0.089447
0.079906
0.076023
0.065523
0.060649
0.10953
0.10958
0.10813
0.10663
0.1024
0.10011
0.092544
0.08945
0.079864
0.075867
0.06536
0.060378
0.1098
0.10987
0.1084
0.10688
0.10261
0.10027
0.092649
0.089458
0.079826
0.075712
0.065197
0.060104
0.11009
0.11016
0.10867
0.10715
0.10282
0.10043
0.092761
0.089471
0.079792
0.075559
0.065032
0.059827
0.11038
0.11046
0.10896
0.10742
0.10305
0.1006
0.09288
0.089488
0.079761
0.075406
0.064866
0.059547
0.11068
0.11077
0.10926
0.1077
0.10328
0.10078
0.093007
0.089511
0.079734
0.075254
0.064698
0.059263
0.11099
0.1111
0.10957
0.108
0.10353
0.10097
0.09314
0.089539
0.07971
0.075103
0.064529
0.058976
0.11132
0.11143
0.10989
0.1083
0.10378
0.10117
0.093282
0.089572
0.07969
0.074953
0.064358
0.058684
0.11165
0.11177
0.11022
0.10862
0.10405
0.10137
0.093431
0.089611
0.079673
0.074803
0.064185
0.058389
0.11199
0.11213
0.11056
0.10895
0.10433
0.10159
0.093589
0.089655
0.07966
0.074655
0.06401
0.058089
0.11235
0.1125
0.11091
0.10929
0.10462
0.10181
0.093755
0.089705
0.079651
0.074507
0.063833
0.057785
0.11271
0.11288
0.11128
0.10964
0.10492
0.10205
0.093929
0.089761
0.079646
0.07436
0.063653
0.057475
0.11309
0.11327
0.11166
0.11
0.10523
0.10229
0.094112
0.089823
0.079644
0.074213
0.063471
0.05716
0.11348
0.11367
0.11205
0.11038
0.10555
0.10254
0.094304
0.08989
0.079646
0.074067
0.063285
0.05684
0.11388
0.11409
0.11245
0.11076
0.10589
0.10281
0.094505
0.089963
0.079652
0.07392
0.063096
0.056513
0.11429
0.11452
0.11287
0.11116
0.10624
0.10308
0.094715
0.090042
0.079661
0.073774
0.062904
0.05618
0.11471
0.11496
0.1133
0.11158
0.1066
0.10336
0.094933
0.090127
0.079673
0.073627
0.062708
0.05584
0.11515
0.11541
0.11375
0.11201
0.10698
0.10366
0.095161
0.090218
0.079688
0.07348
0.062507
0.055493
0.1156
0.11588
0.11421
0.11245
0.10737
0.10396
0.095398
0.090314
0.079705
0.073332
0.062302
0.055139
0.11606
0.11636
0.11468
0.11291
0.10777
0.10428
0.095644
0.090416
0.079726
0.073183
0.062091
0.054775
0.11654
0.11686
0.11517
0.11337
0.10819
0.10461
0.0959
0.090523
0.079748
0.073032
0.061875
0.054404
0.11703
0.11737
0.11567
0.11386
0.10862
0.10495
0.096165
0.090635
0.079773
0.072879
0.061652
0.054022
0.11753
0.11789
0.11619
0.11436
0.10907
0.1053
0.096438
0.090752
0.079799
0.072724
0.061423
0.053631
0.11804
0.11843
0.11672
0.11487
0.10953
0.10566
0.096722
0.090874
0.079827
0.072565
0.061187
0.053229
0.11857
0.11899
0.11727
0.1154
0.11001
0.10603
0.097014
0.091
0.079855
0.072403
0.060942
0.052816
0.11912
0.11956
0.11784
0.11594
0.1105
0.10642
0.097315
0.091131
0.079884
0.072237
0.060689
0.05239
0.11967
0.12014
0.11842
0.11651
0.111
0.10681
0.097625
0.091265
0.079912
0.072066
0.060426
0.051952
0.12025
0.12074
0.11902
0.11708
0.11153
0.10722
0.097945
0.091403
0.07994
0.071889
0.060153
0.0515
0.12083
0.12135
0.11964
0.11767
0.11207
0.10764
0.098273
0.091545
0.079966
0.071707
0.059868
0.051033
0.12144
0.12199
0.12028
0.11828
0.11262
0.10808
0.09861
0.091689
0.079991
0.071517
0.059572
0.050551
0.12206
0.12264
0.12093
0.11891
0.1132
0.10852
0.098957
0.091836
0.080014
0.07132
0.059263
0.050053
0.12269
0.1233
0.12161
0.11956
0.11379
0.10898
0.099312
0.091985
0.080034
0.071115
0.058941
0.049537
0.12334
0.12399
0.1223
0.12023
0.1144
0.10945
0.099676
0.092136
0.08005
0.0709
0.058603
0.049003
0.12402
0.1247
0.12302
0.12091
0.11503
0.10994
0.10005
0.092289
0.080062
0.070675
0.05825
0.048449
0.12471
0.12542
0.12376
0.12162
0.11568
0.11044
0.10043
0.092444
0.08007
0.07044
0.057881
0.047875
0.12542
0.12617
0.12452
0.12235
0.11635
0.11096
0.10083
0.092601
0.080073
0.070193
0.057493
0.047279
0.12615
0.12695
0.12531
0.12311
0.11705
0.11149
0.10123
0.092759
0.08007
0.069933
0.057087
0.04666
0.12691
0.12775
0.12613
0.12389
0.11777
0.11204
0.10165
0.092919
0.080062
0.06966
0.056661
0.046017
0.1277
0.12857
0.12698
0.1247
0.11852
0.11261
0.10207
0.09308
0.080047
0.069373
0.056214
0.045348
0.12851
0.12943
0.12787
0.12554
0.1193
0.11321
0.10251
0.093243
0.080025
0.069072
0.055745
0.044653
0.12935
0.13032
0.12879
0.12642
0.1201
0.11382
0.10297
0.093408
0.079996
0.068754
0.055253
0.043929
0.13022
0.13125
0.12975
0.12733
0.12095
0.11446
0.10343
0.093576
0.07996
0.06842
0.054737
0.043175
0.13113
0.13221
0.13075
0.12829
0.12183
0.11512
0.10392
0.093746
0.079916
0.068069
0.054195
0.04239
0.13208
0.13322
0.1318
0.12929
0.12274
0.11581
0.10441
0.09392
0.079863
0.0677
0.053626
0.041572
0.13307
0.13427
0.1329
0.13033
0.12371
0.11654
0.10493
0.094097
0.079802
0.067311
0.053029
0.04072
0.13411
0.13538
0.13405
0.13144
0.12471
0.1173
0.10547
0.094278
0.079731
0.066902
0.052402
0.039831
0.13519
0.13654
0.13526
0.1326
0.12578
0.11809
0.10603
0.094463
0.07965
0.06647
0.051744
0.038904
0.13633
0.13776
0.13654
0.13382
0.12689
0.11893
0.10661
0.094652
0.079557
0.066015
0.051052
0.037936
0.13752
0.13904
0.13789
0.13511
0.12806
0.11981
0.10721
0.094845
0.079451
0.065535
0.050324
0.036925
0.13877
0.1404
0.13932
0.13648
0.1293
0.12074
0.10784
0.095041
0.079331
0.065026
0.049557
0.035869
0.14009
0.14183
0.14083
0.13792
0.13061
0.12171
0.1085
0.095239
0.079193
0.064485
0.048748
0.034765
0.14147
0.14333
0.14242
0.13946
0.13199
0.12274
0.10917
0.095438
0.079034
0.063909
0.047893
0.033609
0.14292
0.14492
0.14411
0.14108
0.13344
0.12382
0.10987
0.095635
0.078851
0.063293
0.046987
0.032398
0.14444
0.1466
0.1459
0.1428
0.13497
0.12495
0.1106
0.095827
0.078638
0.062632
0.046026
0.031127
0.14603
0.14837
0.14778
0.14462
0.13659
0.12614
0.11134
0.096009
0.078389
0.061919
0.045001
0.02979
0.14769
0.15023
0.14978
0.14655
0.13828
0.12738
0.1121
0.096176
0.078098
0.061146
0.043907
0.028382
0.14943
0.1522
0.15188
0.14859
0.14007
0.12868
0.11287
0.096323
0.077756
0.060306
0.042735
0.026895
0.15123
0.15425
0.1541
0.15074
0.14194
0.13003
0.11365
0.09644
0.077353
0.059387
0.041474
0.025321
0.1531
0.15641
0.15644
0.15301
0.1439
0.13142
0.11442
0.096519
0.076879
0.058379
0.040116
0.02365
0.15504
0.15868
0.1589
0.15541
0.14595
0.13287
0.11519
0.096551
0.076322
0.057272
0.038648
0.021874
0.15703
0.16104
0.16149
0.15793
0.14809
0.13435
0.11595
0.096522
0.07567
0.056052
0.037058
0.019979
0.15908
0.16351
0.16422
0.16058
0.15033
0.13587
0.11667
0.09642
0.074908
0.054706
0.035335
0.017954
0.16118
0.16609
0.16708
0.16337
0.15265
0.13741
0.11736
0.096232
0.074023
0.053222
0.033465
0.015788
0.16333
0.16878
0.17011
0.1663
0.15506
0.13897
0.11799
0.095939
0.072998
0.051584
0.031435
0.013467
0.16551
0.17158
0.1733
0.1694
0.15757
0.14055
0.11855
0.095524
0.071816
0.049779
0.029234
0.01098
0.16773
0.17452
0.17668
0.17267
0.16019
0.14212
0.11903
0.094964
0.070456
0.04779
0.026848
0.0083166
0.16999
0.17761
0.18028
0.17613
0.1629
0.14368
0.11939
0.094233
0.068895
0.045598
0.024262
0.0054665
0.17227
0.18085
0.18413
0.17981
0.16572
0.1452
0.11962
0.093297
0.067104
0.043182
0.021463
0.0024206
0.17456
0.18428
0.18826
0.18372
0.16864
0.14667
0.11966
0.092115
0.065045
0.040513
0.01843
-0.00083063
0.17686
0.18791
0.19271
0.1879
0.17166
0.14804
0.11947
0.090633
0.062673
0.037555
0.01514
-0.0042979
0.17912
0.19176
0.19753
0.19236
0.17476
0.14927
0.119
0.088786
0.05993
0.034262
0.011561
-0.0079953
0.1813
0.19584
0.20274
0.1971
0.1779
0.15029
0.11815
0.086494
0.056746
0.030578
0.0076546
-0.011941
0.18331
0.20014
0.20836
0.20213
0.18103
0.15101
0.11682
0.083662
0.053041
0.02644
0.0033741
-0.016159
0.18504
0.20462
0.21439
0.2074
0.18404
0.15131
0.11489
0.080184
0.048728
0.021778
-0.0013297
-0.020675
0.18631
0.20921
0.22078
0.21282
0.18681
0.15103
0.11223
0.075945
0.043721
0.016528
-0.0065019
-0.025514
0.1869
0.21379
0.22743
0.21825
0.18914
0.14999
0.10866
0.070831
0.037945
0.010644
-0.012171
-0.030688
0.1865
0.21815
0.23413
0.22344
0.19076
0.14795
0.10402
0.064735
0.031344
0.0041059
-0.018336
-0.036186
0.18474
0.22196
0.24054
0.22802
0.19132
0.14463
0.098128
0.057562
0.023891
-0.0030686
-0.024954
-0.04196
0.18119
0.22473
0.24607
0.23139
0.19033
0.1397
0.090793
0.04924
0.015589
-0.010822
-0.031937
-0.047919
0.17536
0.22567
0.24973
0.23262
0.18711
0.13276
0.081837
0.039722
0.0064734
-0.019067
-0.039163
-0.053936
0.1668
0.22357
0.24983
0.23024
0.18071
0.12333
0.071098
0.029008
-0.0033847
-0.027692
-0.046493
-0.059868
0.15519
0.21657
0.24369
0.22198
0.16977
0.11085
0.058457
0.017173
-0.013855
-0.036562
-0.053783
-0.065582
0.14058
0.20201
0.22727
0.20452
0.15243
0.094596
0.043838
0.0043865
-0.024721
-0.045495
-0.060894
-0.070974
0.12372
0.17662
0.19516
0.1734
0.12622
0.073633
0.027126
-0.0091278
-0.035691
-0.054261
-0.067681
-0.075975
0.10636
0.13735
0.14174
0.12366
0.088232
0.046717
0.0080111
-0.023254
-0.04651
-0.062633
-0.074012
-0.080551
0.09077
0.081825
0.063156
0.051575
0.035769
0.012348
-0.014171
-0.038175
-0.057129
-0.07051
-0.079835
-0.084737
0.079921
0.0052747
-0.045249
-0.046245
-0.034162
-0.031753
-0.040842
-0.054696
-0.067996
-0.078171
-0.085379
-0.088794
0.087979
-0.084833
-0.17771
-0.16536
-0.12033
-0.086574
-0.073602
-0.074316
-0.080373
-0.086647
-0.0915
-0.093486
0.12757
-0.16598
-0.30806
-0.28247
-0.20641
-0.1433
-0.10875
-0.095917
-0.094193
-0.096177
-0.098503
-0.098983
0.10284
0.063465
0.053364
0.047348
0.043199
0.040099
0.037624
0.035503
0.033689
0.031863
0.030407
0.028023
0.12219
0.078729
0.06618
0.058176
0.052718
0.04869
0.045504
0.042796
0.040504
0.038199
0.036415
0.033634
0.10954
0.073624
0.06227
0.054394
0.049006
0.045049
0.041939
0.03931
0.037109
0.034889
0.033233
0.030535
0.10448
0.073284
0.06226
0.054294
0.04877
0.044701
0.041506
0.03881
0.036569
0.034303
0.032646
0.029824
0.10382
0.075432
0.06425
0.05607
0.050303
0.046029
0.042667
0.039831
0.03748
0.035103
0.033377
0.030399
0.10315
0.077222
0.065971
0.057659
0.051695
0.047245
0.043736
0.040774
0.038323
0.035848
0.034055
0.030965
0.10201
0.078478
0.067302
0.058941
0.052832
0.048238
0.044604
0.041536
0.038998
0.036446
0.034593
0.031435
0.1008
0.079502
0.068491
0.060133
0.05391
0.04919
0.045441
0.042274
0.039655
0.037038
0.035128
0.031941
0.099662
0.080381
0.069603
0.061291
0.054986
0.050152
0.046296
0.043036
0.040339
0.037666
0.035704
0.032524
0.098576
0.081107
0.070625
0.062403
0.056049
0.05112
0.047166
0.04382
0.041049
0.038332
0.036322
0.033186
0.097522
0.08168
0.071547
0.063456
0.057088
0.052086
0.048046
0.044623
0.041784
0.039032
0.036981
0.033923
0.096498
0.082115
0.072366
0.064441
0.058094
0.053042
0.048933
0.045443
0.042544
0.039767
0.037683
0.034733
0.095507
0.082426
0.073083
0.065352
0.059058
0.053981
0.049819
0.046275
0.043324
0.040533
0.038423
0.035605
0.094551
0.082631
0.073703
0.066186
0.059973
0.054894
0.050697
0.047112
0.044119
0.041323
0.039195
0.036527
0.09363
0.082744
0.074228
0.066941
0.060831
0.055773
0.051558
0.047945
0.044921
0.04213
0.039991
0.037482
0.092746
0.08278
0.074667
0.067617
0.061628
0.056609
0.052394
0.048767
0.045721
0.042944
0.040799
0.038454
0.091901
0.082752
0.075027
0.068216
0.062362
0.0574
0.053199
0.04957
0.046513
0.043756
0.041609
0.039426
0.091092
0.08267
0.075315
0.068743
0.063033
0.05814
0.053966
0.050348
0.047288
0.044556
0.042412
0.04038
0.090321
0.082545
0.075539
0.069202
0.063642
0.058829
0.054693
0.051095
0.048039
0.045338
0.043198
0.041303
0.089585
0.082385
0.075707
0.069599
0.064192
0.059466
0.055378
0.051807
0.048763
0.046094
0.04396
0.042184
0.088883
0.082197
0.075826
0.069938
0.064684
0.060052
0.056018
0.052482
0.049455
0.046819
0.044692
0.043014
0.088214
0.081986
0.075902
0.070226
0.065123
0.060589
0.056614
0.053118
0.050113
0.047509
0.045389
0.043786
0.087575
0.081758
0.07594
0.070466
0.065513
0.061077
0.057167
0.053714
0.050735
0.048162
0.046048
0.044499
0.086964
0.081516
0.075946
0.070664
0.065857
0.061521
0.057677
0.054271
0.051319
0.048775
0.046668
0.04515
0.086381
0.081263
0.075923
0.070825
0.066159
0.061923
0.058147
0.054789
0.051868
0.04935
0.047249
0.045741
0.085821
0.081002
0.075876
0.070952
0.066422
0.062285
0.058579
0.05527
0.052379
0.049884
0.04779
0.046275
0.085285
0.080735
0.075809
0.071048
0.06665
0.06261
0.058974
0.055714
0.052856
0.050381
0.048293
0.046754
0.084769
0.080463
0.075723
0.071118
0.066846
0.062901
0.059334
0.056124
0.053299
0.05084
0.048759
0.047185
0.084273
0.080189
0.075621
0.071163
0.067013
0.063161
0.059663
0.0565
0.053709
0.051264
0.04919
0.04757
0.083794
0.079912
0.075506
0.071187
0.067154
0.063391
0.059961
0.056846
0.054089
0.051655
0.049588
0.047916
0.083333
0.079635
0.07538
0.071192
0.06727
0.063594
0.060231
0.057163
0.05444
0.052015
0.049955
0.048226
0.082887
0.079357
0.075244
0.07118
0.067365
0.063773
0.060475
0.057452
0.054763
0.052346
0.050293
0.048505
0.082455
0.07908
0.075099
0.071153
0.067439
0.063928
0.060695
0.057716
0.055061
0.05265
0.050606
0.048758