/*--------------------------------*- C++ -*----------------------------------*\
  =========                 |
  \\      /  F ield         | OpenFOAM: The Open Source CFD Toolbox
   \\    /   O peration     | Website:  https://openfoam.org
    \\  /    A nd           | Version:  6.0
     \\/     M anipulation  |
\*---------------------------------------------------------------------------*/
FoamFile
{
    version     2.0;
    format      ascii;
    class       surfaceScalarField;
    location    "1.22";
    object      phi;
}
// * * * * * * * * * * * * * * * * * * * * * * * * * * * * * * * * * * * * * //

dimensions      [0 3 -1 0 0 0 0];

internalField   nonuniform List<scalar> 
26699
(
2.0051e-05
0.005201
3.7094e-10
4.0126e-05
0.0051116
5.9638e-05
0.0049351
7.8187e-05
0.0046741
9.5415e-05
0.0043332
0.00011102
0.0039182
0.00012472
0.0034362
0.00013626
0.0028953
0.00014546
0.002305
0.00015183
0.0016755
0.00015719
0.0010154
0.00046496
3.4434e-05
2.0051e-05
0.0051809
1.1587e-09
4.0128e-05
0.0050916
5.964e-05
0.0049156
7.819e-05
0.0046556
9.5417e-05
0.004316
0.00011102
0.0039026
0.00012471
0.0034225
0.00013624
0.0028838
0.00014543
0.0022958
0.00015113
0.0016698
0.00015897
0.0010076
0.00055889
6.5041e-05
2.0051e-05
0.0051609
2.0058e-09
4.0129e-05
0.0050715
5.9642e-05
0.004896
7.8193e-05
0.004637
9.542e-05
0.0042988
0.00011102
0.003887
0.00012471
0.0034088
0.00013622
0.0028723
0.00014543
0.0022866
0.00015042
0.0016648
0.00016031
0.00099768
0.00062902
9.0175e-05
2.0052e-05
0.0051408
2.8592e-09
4.013e-05
0.0050514
5.9645e-05
0.0048765
7.8196e-05
0.0046185
9.5422e-05
0.0042815
0.00011102
0.0038714
0.0001247
0.0033951
0.0001362
0.0028608
0.00014545
0.0022773
0.00014975
0.0016605
0.00016112
0.00098631
0.00067979
0.00011035
2.0052e-05
0.0051208
3.7133e-09
4.0132e-05
0.0050313
5.9647e-05
0.004857
7.8199e-05
0.0045999
9.5425e-05
0.0042643
0.00011103
0.0038558
0.0001247
0.0033815
0.00013618
0.0028493
0.00014549
0.002268
0.00014914
0.0016568
0.00016143
0.00097402
0.00071488
0.00012635
2.0052e-05
0.0051007
4.5683e-09
4.0133e-05
0.0050112
5.9649e-05
0.0048375
7.8202e-05
0.0045814
9.5428e-05
0.0042471
0.00011103
0.0038402
0.0001247
0.0033678
0.00013615
0.0028379
0.00014555
0.0022586
0.0001486
0.0016538
0.00016132
0.00096131
0.00073733
0.00013886
2.0053e-05
0.0050807
5.4241e-09
4.0135e-05
0.0049912
5.9652e-05
0.004818
7.8205e-05
0.0045628
9.5431e-05
0.0042299
0.00011103
0.0038246
0.00012469
0.0033541
0.00013612
0.0028264
0.00014561
0.0022491
0.00014817
0.0016512
0.00016086
0.00094862
0.00074974
0.00014845
2.0053e-05
0.0050606
6.2807e-09
4.0136e-05
0.0049711
5.9654e-05
0.0047985
7.8208e-05
0.0045443
9.5433e-05
0.0042126
0.00011103
0.003809
0.00012469
0.0033405
0.0001361
0.002815
0.00014568
0.0022395
0.00014783
0.0016491
0.00016015
0.00093629
0.00075427
0.00015562
2.0053e-05
0.0050405
7.1383e-09
4.0137e-05
0.004951
5.9656e-05
0.0047789
7.8211e-05
0.0045257
9.5436e-05
0.0041954
0.00011103
0.0037934
0.00012469
0.0033268
0.00013607
0.0028037
0.00014575
0.0022299
0.0001476
0.0016472
0.00015929
0.0009246
0.00075275
0.00016081
2.0053e-05
0.0050205
7.9968e-09
4.0139e-05
0.0049309
5.9658e-05
0.0047594
7.8213e-05
0.0045071
9.5439e-05
0.0041782
0.00011103
0.0037778
0.00012469
0.0033131
0.00013604
0.0027923
0.00014582
0.0022201
0.00014747
0.0016456
0.00015833
0.00091374
0.00074668
0.0001644
2.0054e-05
0.0050004
8.8563e-09
4.014e-05
0.0049108
5.9661e-05
0.0047399
7.8216e-05
0.0044886
9.5442e-05
0.004161
0.00011104
0.0037622
0.00012469
0.0032995
0.00013601
0.002781
0.00014589
0.0022102
0.00014744
0.001644
0.00015735
0.00090383
0.00073731
0.00016672
2.0054e-05
0.0049804
9.7168e-09
4.0141e-05
0.0048907
5.9663e-05
0.0047204
7.8219e-05
0.00447
9.5445e-05
0.0041437
0.00011104
0.0037466
0.0001247
0.0032858
0.00013598
0.0027697
0.00014594
0.0022002
0.0001475
0.0016425
0.00015639
0.00089495
0.00072563
0.00016807
2.0054e-05
0.0049603
1.0579e-08
4.0143e-05
0.0048706
5.9665e-05
0.0047009
7.8222e-05
0.0044515
9.5448e-05
0.0041265
0.00011104
0.003731
0.0001247
0.0032722
0.00013595
0.0027585
0.00014599
0.0021902
0.00014764
0.0016408
0.00015549
0.00088709
0.00071246
0.00016866
2.0054e-05
0.0049402
1.1441e-08
4.0144e-05
0.0048506
5.9668e-05
0.0046813
7.8225e-05
0.0044329
9.5452e-05
0.0041093
0.00011104
0.0037154
0.0001247
0.0032585
0.00013592
0.0027473
0.00014602
0.0021801
0.00014784
0.001639
0.00015468
0.00088026
0.00069843
0.00016871
2.0055e-05
0.0049202
1.2305e-08
4.0145e-05
0.0048305
5.967e-05
0.0046618
7.8228e-05
0.0044144
9.5455e-05
0.0040921
0.00011104
0.0036998
0.00012471
0.0032448
0.00013589
0.0027361
0.00014604
0.0021699
0.00014809
0.0016369
0.00015396
0.00087438
0.00068403
0.00016836
2.0055e-05
0.0049001
1.3171e-08
4.0147e-05
0.0048104
5.9672e-05
0.0046423
7.8231e-05
0.0043958
9.5458e-05
0.0040748
0.00011105
0.0036843
0.00012471
0.0032312
0.00013586
0.0027249
0.00014605
0.0021597
0.00014838
0.0016346
0.00015336
0.0008694
0.00066963
0.00016776
2.0055e-05
0.00488
1.4037e-08
4.0148e-05
0.0047903
5.9675e-05
0.0046228
7.8234e-05
0.0043772
9.5462e-05
0.0040576
0.00011105
0.0036687
0.00012472
0.0032175
0.00013584
0.0027138
0.00014604
0.0021495
0.00014868
0.001632
0.00015287
0.00086522
0.00065549
0.000167
2.0056e-05
0.00486
1.4905e-08
4.015e-05
0.0047702
5.9677e-05
0.0046032
7.8237e-05
0.0043587
9.5465e-05
0.0040404
0.00011105
0.0036531
0.00012473
0.0032038
0.00013581
0.0027027
0.00014603
0.0021393
0.00014901
0.001629
0.00015248
0.00086175
0.00064181
0.00016616
2.0056e-05
0.0048399
1.5775e-08
4.0151e-05
0.0047501
5.968e-05
0.0045837
7.824e-05
0.0043401
9.5469e-05
0.0040232
0.00011105
0.0036375
0.00012473
0.0031901
0.00013579
0.0026917
0.000146
0.0021291
0.00014933
0.0016257
0.0001522
0.00085888
0.00062871
0.0001653
2.0056e-05
0.0048198
1.6646e-08
4.0152e-05
0.00473
5.9682e-05
0.0045642
7.8244e-05
0.0043216
9.5472e-05
0.0040059
0.00011105
0.0036219
0.00012474
0.0031765
0.00013578
0.0026806
0.00014597
0.0021189
0.00014965
0.001622
0.00015201
0.00085652
0.00061625
0.00016447
2.0056e-05
0.0047997
1.7518e-08
4.0154e-05
0.0047099
5.9684e-05
0.0045446
7.8247e-05
0.004303
9.5476e-05
0.0039887
0.00011105
0.0036063
0.00012475
0.0031628
0.00013576
0.0026696
0.00014592
0.0021088
0.00014996
0.0016179
0.0001519
0.00085458
0.00060446
0.00016369
2.0057e-05
0.0047797
1.8392e-08
4.0155e-05
0.0046898
5.9687e-05
0.0045251
7.825e-05
0.0042844
9.548e-05
0.0039715
0.00011106
0.0035908
0.00012476
0.0031491
0.00013575
0.0026586
0.00014587
0.0020986
0.00015025
0.0016136
0.00015186
0.00085297
0.00059334
0.00016298
2.0057e-05
0.0047596
1.9268e-08
4.0156e-05
0.0046697
5.9689e-05
0.0045056
7.8253e-05
0.0042659
9.5484e-05
0.0039542
0.00011106
0.0035752
0.00012477
0.0031354
0.00013575
0.0026476
0.00014582
0.0020886
0.00015052
0.0016089
0.00015188
0.0008516
0.00058287
0.00016236
2.0057e-05
0.0047395
2.0145e-08
4.0158e-05
0.0046496
5.9692e-05
0.004486
7.8256e-05
0.0042473
9.5488e-05
0.003937
0.00011106
0.0035596
0.00012478
0.0031216
0.00013574
0.0026367
0.00014577
0.0020785
0.00015077
0.0016039
0.00015195
0.00085041
0.000573
0.00016182
2.0058e-05
0.0047194
2.1025e-08
4.0159e-05
0.0046295
5.9694e-05
0.0044665
7.8259e-05
0.0042287
9.5492e-05
0.0039198
0.00011106
0.0035441
0.00012479
0.0031079
0.00013574
0.0026257
0.00014571
0.0020686
0.00015099
0.0015986
0.00015206
0.00084934
0.0005637
0.00016136
2.0058e-05
0.0046993
2.1905e-08
4.016e-05
0.0046094
5.9697e-05
0.004447
7.8262e-05
0.0042102
9.5497e-05
0.0039025
0.00011106
0.0035285
0.0001248
0.0030942
0.00013574
0.0026148
0.00014565
0.0020587
0.00015119
0.001593
0.0001522
0.00084834
0.00055491
0.00016099
2.0058e-05
0.0046793
2.2788e-08
4.0162e-05
0.0045893
5.9699e-05
0.0044274
7.8265e-05
0.0041916
9.5501e-05
0.0038853
0.00011107
0.0035129
0.00012481
0.0030804
0.00013575
0.0026038
0.0001456
0.0020488
0.00015137
0.0015873
0.00015235
0.00084735
0.00054657
0.00016068
2.0058e-05
0.0046592
2.3673e-08
4.0163e-05
0.0045692
5.9702e-05
0.0044079
7.8268e-05
0.004173
9.5506e-05
0.0038681
0.00011107
0.0034974
0.00012482
0.0030667
0.00013576
0.0025929
0.00014555
0.002039
0.00015153
0.0015813
0.00015252
0.00084636
0.00053865
0.00016045
2.0059e-05
0.0046391
2.456e-08
4.0165e-05
0.0045491
5.9705e-05
0.0043883
7.8271e-05
0.0041545
9.5511e-05
0.0038508
0.00011107
0.0034818
0.00012483
0.0030529
0.00013577
0.0025819
0.0001455
0.0020293
0.00015166
0.0015751
0.0001527
0.00084532
0.00053109
0.00016026
2.0059e-05
0.004619
2.5448e-08
4.0166e-05
0.004529
5.9707e-05
0.0043688
7.8275e-05
0.0041359
9.5516e-05
0.0038336
0.00011107
0.0034663
0.00012484
0.0030392
0.00013578
0.002571
0.00014546
0.0020196
0.00015178
0.0015688
0.00015288
0.00084422
0.00052384
0.00016013
2.0059e-05
0.0045989
2.6339e-08
4.0167e-05
0.0045089
5.971e-05
0.0043493
7.8278e-05
0.0041173
9.5521e-05
0.0038163
0.00011107
0.0034507
0.00012485
0.0030254
0.0001358
0.00256
0.00014542
0.00201
0.00015189
0.0015623
0.00015306
0.00084305
0.00051687
0.00016003
2.006e-05
0.0045788
2.7232e-08
4.0169e-05
0.0044888
5.9713e-05
0.0043297
7.8281e-05
0.0040988
9.5526e-05
0.0037991
0.00011107
0.0034352
0.00012486
0.0030116
0.00013582
0.0025491
0.00014539
0.0020004
0.00015198
0.0015558
0.00015324
0.0008418
0.00051015
0.00015996
2.006e-05
0.0045588
2.8127e-08
4.017e-05
0.0044687
5.9715e-05
0.0043102
7.8284e-05
0.0040802
9.5532e-05
0.0037818
0.00011108
0.0034196
0.00012487
0.0029978
0.00013584
0.0025381
0.00014536
0.0019909
0.00015206
0.001549
0.00015341
0.00084045
0.00050364
0.00015992
2.006e-05
0.0045387
2.9025e-08
4.0172e-05
0.0044485
5.9718e-05
0.0042906
7.8287e-05
0.0040616
9.5537e-05
0.0037646
0.00011108
0.0034041
0.00012488
0.002984
0.00013586
0.0025271
0.00014534
0.0019814
0.00015213
0.0015423
0.00015358
0.000839
0.00049732
0.0001599
2.0061e-05
0.0045186
2.9924e-08
4.0173e-05
0.0044284
5.9721e-05
0.0042711
7.8291e-05
0.0040431
9.5543e-05
0.0037473
0.00011108
0.0033885
0.00012489
0.0029702
0.00013589
0.0025161
0.00014532
0.001972
0.0001522
0.0015354
0.00015374
0.00083746
0.00049117
0.00015989
2.0061e-05
0.0044985
3.0827e-08
4.0174e-05
0.0044083
5.9724e-05
0.0042515
7.8294e-05
0.0040245
9.5549e-05
0.0037301
0.00011108
0.003373
0.00012491
0.0029563
0.00013591
0.0025051
0.00014531
0.0019626
0.00015226
0.0015284
0.0001539
0.00083582
0.00048518
0.0001599
2.0061e-05
0.0044784
3.1731e-08
4.0176e-05
0.0043882
5.9727e-05
0.004232
7.8297e-05
0.0040059
9.5556e-05
0.0037128
0.00011109
0.0033575
0.00012492
0.0029425
0.00013594
0.0024941
0.0001453
0.0019532
0.00015231
0.0015214
0.00015405
0.00083408
0.00047932
0.00015991
2.0062e-05
0.0044583
3.2638e-08
4.0177e-05
0.0043681
5.973e-05
0.0042124
7.83e-05
0.0039874
9.5562e-05
0.0036956
0.00011109
0.0033419
0.00012493
0.0029287
0.00013597
0.0024831
0.00014529
0.0019439
0.00015236
0.0015143
0.00015419
0.00083226
0.00047358
0.00015992
2.0062e-05
0.0044382
3.3548e-08
4.0179e-05
0.004348
5.9733e-05
0.0041929
7.8304e-05
0.0039688
9.5569e-05
0.0036783
0.00011109
0.0033264
0.00012494
0.0029148
0.000136
0.002472
0.00014529
0.0019346
0.00015241
0.0015072
0.00015433
0.00083034
0.00046796
0.00015995
2.0062e-05
0.0044181
3.446e-08
4.018e-05
0.0043278
5.9736e-05
0.0041733
7.8307e-05
0.0039502
9.5576e-05
0.003661
0.0001111
0.0033109
0.00012495
0.002901
0.00013603
0.0024609
0.0001453
0.0019254
0.00015245
0.0015001
0.00015446
0.00082834
0.00046245
0.00015997
2.0063e-05
0.004398
3.5375e-08
4.0182e-05
0.0043077
5.9739e-05
0.0041538
7.831e-05
0.0039316
9.5583e-05
0.0036438
0.0001111
0.0032954
0.00012496
0.0028871
0.00013606
0.0024498
0.0001453
0.0019161
0.0001525
0.0014929
0.00015458
0.00082625
0.00045704
0.00015999
2.0063e-05
0.0043779
3.6293e-08
4.0183e-05
0.0042876
5.9742e-05
0.0041342
7.8314e-05
0.0039131
9.559e-05
0.0036265
0.00011111
0.0032799
0.00012497
0.0028732
0.00013609
0.0024387
0.00014531
0.0019069
0.00015254
0.0014857
0.0001547
0.00082409
0.00045172
0.00016002
2.0064e-05
0.0043578
3.7213e-08
4.0185e-05
0.0042675
5.9745e-05
0.0041146
7.8317e-05
0.0038945
9.5597e-05
0.0036092
0.00011111
0.0032643
0.00012499
0.0028594
0.00013613
0.0024276
0.00014533
0.0018977
0.00015258
0.0014784
0.00015482
0.00082185
0.0004465
0.00016004
2.0064e-05
0.0043377
3.8137e-08
4.0186e-05
0.0042474
5.9748e-05
0.0040951
7.8321e-05
0.0038759
9.5605e-05
0.0035919
0.00011112
0.0032488
0.000125
0.0028455
0.00013616
0.0024164
0.00014534
0.0018885
0.00015262
0.0014711
0.00015493
0.00081954
0.00044137
0.00016006
2.0064e-05
0.0043176
3.9063e-08
4.0188e-05
0.0042272
5.9752e-05
0.0040755
7.8325e-05
0.0038573
9.5613e-05
0.0035746
0.00011113
0.0032333
0.00012501
0.0028316
0.00013619
0.0024052
0.00014535
0.0018794
0.00015266
0.0014638
0.00015504
0.00081716
0.00043632
0.00016009
2.0065e-05
0.0042975
3.9992e-08
4.0189e-05
0.0042071
5.9755e-05
0.004056
7.8329e-05
0.0038388
9.5621e-05
0.0035573
0.00011114
0.0032178
0.00012502
0.0028177
0.00013623
0.002394
0.00014537
0.0018702
0.0001527
0.0014565
0.00015514
0.00081471
0.00043135
0.00016011
2.0065e-05
0.0042774
4.0925e-08
4.0191e-05
0.004187
5.9758e-05
0.0040364
7.8333e-05
0.0038202
9.5629e-05
0.00354
0.00011114
0.0032023
0.00012504
0.0028038
0.00013626
0.0023828
0.00014539
0.0018611
0.00015273
0.0014492
0.00015524
0.0008122
0.00042646
0.00016013
2.0066e-05
0.0042573
4.186e-08
4.0192e-05
0.0041669
5.9762e-05
0.0040168
7.8337e-05
0.0038016
9.5637e-05
0.0035227
0.00011115
0.0031868
0.00012505
0.0027899
0.0001363
0.0023716
0.00014541
0.001852
0.00015277
0.0014418
0.00015534
0.00080963
0.00042166
0.00016015
2.0066e-05
0.0042372
4.2798e-08
4.0194e-05
0.0041467
5.9766e-05
0.0039972
7.8341e-05
0.003783
9.5646e-05
0.0035054
0.00011117
0.0031713
0.00012506
0.002776
0.00013633
0.0023603
0.00014543
0.0018429
0.00015281
0.0014344
0.00015544
0.000807
0.00041693
0.00016017
2.0067e-05
0.0042171
4.374e-08
4.0196e-05
0.0041266
5.9769e-05
0.0039777
7.8346e-05
0.0037645
9.5655e-05
0.0034881
0.00011118
0.0031557
0.00012508
0.0027621
0.00013636
0.002349
0.00014545
0.0018338
0.00015284
0.001427
0.00015553
0.00080432
0.00041227
0.00016019
2.0067e-05
0.004197
4.4684e-08
4.0197e-05
0.0041065
5.9773e-05
0.0039581
7.8351e-05
0.0037459
9.5664e-05
0.0034708
0.00011119
0.0031402
0.00012509
0.0027482
0.00013639
0.0023377
0.00014547
0.0018247
0.00015288
0.0014196
0.00015562
0.00080158
0.00040769
0.0001602
2.0068e-05
0.0041768
4.5631e-08
4.0199e-05
0.0040864
5.9777e-05
0.0039385
7.8356e-05
0.0037273
9.5674e-05
0.0034535
0.0001112
0.0031247
0.00012511
0.0027343
0.00013643
0.0023264
0.00014549
0.0018157
0.00015291
0.0014122
0.00015571
0.00079878
0.00040318
0.00016022
2.0068e-05
0.0041567
4.6581e-08
4.0201e-05
0.0040662
5.9781e-05
0.0039189
7.8361e-05
0.0037087
9.5684e-05
0.0034362
0.00011122
0.0031091
0.00012512
0.0027204
0.00013646
0.0023151
0.00014551
0.0018066
0.00015295
0.0014047
0.00015579
0.00079594
0.00039874
0.00016023
2.0069e-05
0.0041366
4.7534e-08
4.0203e-05
0.0040461
5.9786e-05
0.0038994
7.8367e-05
0.0036902
9.5694e-05
0.0034188
0.00011123
0.0030936
0.00012513
0.0027065
0.00013649
0.0023037
0.00014553
0.0017976
0.00015298
0.0013973
0.00015588
0.00079305
0.00039436
0.00016025
2.0069e-05
0.0041165
4.849e-08
4.0205e-05
0.0040259
5.979e-05
0.0038798
7.8372e-05
0.0036716
9.5704e-05
0.0034015
0.00011124
0.0030781
0.00012515
0.0026926
0.00013652
0.0022923
0.00014555
0.0017885
0.00015302
0.0013898
0.00015596
0.0007901
0.00039006
0.00016027
2.007e-05
0.0040964
4.9448e-08
4.0207e-05
0.0040058
5.9794e-05
0.0038602
7.8378e-05
0.003653
9.5715e-05
0.0033842
0.00011126
0.0030625
0.00012516
0.0026787
0.00013655
0.0022809
0.00014557
0.0017795
0.00015305
0.0013823
0.00015604
0.00078711
0.00038582
0.00016028
2.0071e-05
0.0040762
5.0408e-08
4.0209e-05
0.0039857
5.9799e-05
0.0038406
7.8385e-05
0.0036344
9.5726e-05
0.0033668
0.00011127
0.003047
0.00012518
0.0026648
0.00013658
0.0022695
0.00014559
0.0017705
0.00015308
0.0013748
0.00015612
0.00078408
0.00038164
0.00016029
2.0072e-05
0.0040561
5.137e-08
4.0211e-05
0.0039655
5.9804e-05
0.003821
7.8392e-05
0.0036158
9.5737e-05
0.0033495
0.00011129
0.0030314
0.00012519
0.0026509
0.00013661
0.0022581
0.00014561
0.0017615
0.00015312
0.0013673
0.00015619
0.000781
0.00037753
0.00016031
2.0072e-05
0.004036
5.2334e-08
4.0214e-05
0.0039454
5.9809e-05
0.0038014
7.8399e-05
0.0035972
9.5748e-05
0.0033321
0.00011131
0.0030159
0.00012521
0.002637
0.00013664
0.0022467
0.00014563
0.0017525
0.00015315
0.0013598
0.00015627
0.00077788
0.00037348
0.00016032
2.0073e-05
0.0040159
5.3299e-08
4.0216e-05
0.0039252
5.9814e-05
0.0037818
7.8406e-05
0.0035786
9.5759e-05
0.0033148
0.00011132
0.0030003
0.00012522
0.0026231
0.00013666
0.0022353
0.00014566
0.0017435
0.00015318
0.0013523
0.00015634
0.00077471
0.00036948
0.00016033
2.0074e-05
0.0039957
5.4265e-08
4.0219e-05
0.0039051
5.9819e-05
0.0037622
7.8414e-05
0.00356
9.5771e-05
0.0032974
0.00011134
0.0029847
0.00012524
0.0026092
0.00013669
0.0022238
0.00014568
0.0017345
0.00015321
0.0013448
0.00015641
0.00077151
0.00036555
0.00016035
2.0075e-05
0.0039756
5.5231e-08
4.0222e-05
0.003885
5.9825e-05
0.0037426
7.8422e-05
0.0035414
9.5783e-05
0.0032801
0.00011136
0.0029692
0.00012525
0.0025953
0.00013672
0.0022123
0.0001457
0.0017255
0.00015324
0.0013372
0.00015648
0.00076827
0.00036167
0.00016036
2.0076e-05
0.0039555
5.6196e-08
4.0224e-05
0.0038648
5.9831e-05
0.003723
7.843e-05
0.0035228
9.5795e-05
0.0032627
0.00011137
0.0029536
0.00012526
0.0025814
0.00013674
0.0022009
0.00014572
0.0017166
0.00015327
0.0013297
0.00015655
0.00076498
0.00035785
0.00016037
2.0077e-05
0.0039353
5.7161e-08
4.0227e-05
0.0038447
5.9836e-05
0.0037034
7.8439e-05
0.0035042
9.5807e-05
0.0032453
0.00011139
0.002938
0.00012528
0.0025675
0.00013677
0.0021894
0.00014574
0.0017076
0.0001533
0.0013221
0.00015662
0.00076166
0.00035409
0.00016039
2.0078e-05
0.0039152
5.8125e-08
4.023e-05
0.0038245
5.9842e-05
0.0036838
7.8448e-05
0.0034856
9.5819e-05
0.003228
0.00011141
0.0029224
0.00012529
0.0025536
0.00013679
0.0021779
0.00014577
0.0016986
0.00015333
0.0013146
0.00015669
0.0007583
0.00035038
0.0001604
2.0079e-05
0.0038951
5.9086e-08
4.0234e-05
0.0038044
5.9849e-05
0.0036642
7.8457e-05
0.003467
9.5832e-05
0.0032106
0.00011142
0.0029068
0.0001253
0.0025398
0.00013682
0.0021663
0.00014579
0.0016897
0.00015336
0.001307
0.00015675
0.00075491
0.00034672
0.00016041
2.008e-05
0.0038749
6.0044e-08
4.0237e-05
0.0037842
5.9855e-05
0.0036445
7.8466e-05
0.0034484
9.5844e-05
0.0031932
0.00011144
0.0028912
0.00012532
0.0025259
0.00013684
0.0021548
0.00014581
0.0016807
0.00015339
0.0012994
0.00015681
0.00075148
0.00034311
0.00016042
2.0081e-05
0.0038548
6.0998e-08
4.024e-05
0.003764
5.9861e-05
0.0036249
7.8475e-05
0.0034298
9.5856e-05
0.0031758
0.00011145
0.0028756
0.00012533
0.002512
0.00013687
0.0021433
0.00014583
0.0016717
0.00015341
0.0012918
0.00015687
0.00074802
0.00033955
0.00016043
2.0083e-05
0.0038346
6.1947e-08
4.0244e-05
0.0037439
5.9868e-05
0.0036053
7.8485e-05
0.0034112
9.5868e-05
0.0031585
0.00011147
0.00286
0.00012534
0.0024981
0.00013689
0.0021317
0.00014585
0.0016628
0.00015344
0.0012842
0.00015694
0.00074453
0.00033603
0.00016045
2.0084e-05
0.0038145
6.2891e-08
4.0248e-05
0.0037237
5.9875e-05
0.0035857
7.8494e-05
0.0033926
9.588e-05
0.0031411
0.00011149
0.0028444
0.00012535
0.0024843
0.00013691
0.0021202
0.00014588
0.0016538
0.00015347
0.0012767
0.000157
0.000741
0.00033257
0.00016046
2.0085e-05
0.0037944
6.3829e-08
4.0252e-05
0.0037035
5.9882e-05
0.003566
7.8504e-05
0.0033739
9.5891e-05
0.0031237
0.0001115
0.0028288
0.00012536
0.0024704
0.00013694
0.0021086
0.0001459
0.0016448
0.0001535
0.0012691
0.00015705
0.00073744
0.00032915
0.00016047
2.0087e-05
0.0037742
6.4758e-08
4.0256e-05
0.0036834
5.9888e-05
0.0035464
7.8514e-05
0.0033553
9.5903e-05
0.0031063
0.00011152
0.0028132
0.00012538
0.0024566
0.00013696
0.002097
0.00014592
0.0016359
0.00015352
0.0012615
0.00015711
0.00073386
0.00032578
0.00016048
2.0088e-05
0.003754
6.568e-08
4.026e-05
0.0036632
5.9895e-05
0.0035268
7.8524e-05
0.0033367
9.5914e-05
0.0030889
0.00011153
0.0027976
0.00012539
0.0024427
0.00013698
0.0020854
0.00014595
0.0016269
0.00015355
0.0012539
0.00015717
0.00073024
0.00032245
0.0001605
2.009e-05
0.0037339
6.6593e-08
4.0264e-05
0.003643
5.9902e-05
0.0035071
7.8533e-05
0.0033181
9.5926e-05
0.0030715
0.00011155
0.002782
0.0001254
0.0024288
0.000137
0.0020738
0.00014597
0.0016179
0.00015358
0.0012463
0.00015722
0.00072659
0.00031916
0.00016051
2.0092e-05
0.0037137
6.7495e-08
4.0268e-05
0.0036229
5.9909e-05
0.0034875
7.8543e-05
0.0032994
9.5936e-05
0.0030541
0.00011156
0.0027663
0.00012541
0.002415
0.00013703
0.0020622
0.00014599
0.001609
0.0001536
0.0012386
0.00015728
0.00072292
0.00031591
0.00016052
2.0093e-05
0.0036936
6.8387e-08
4.0272e-05
0.0036027
5.9916e-05
0.0034678
7.8552e-05
0.0032808
9.5947e-05
0.0030367
0.00011157
0.0027507
0.00012542
0.0024012
0.00013705
0.0020506
0.00014602
0.0016
0.00015363
0.001231
0.00015733
0.00071922
0.00031271
0.00016054
2.0095e-05
0.0036734
6.9268e-08
4.0276e-05
0.0035825
5.9923e-05
0.0034482
7.8562e-05
0.0032622
9.5957e-05
0.0030193
0.00011159
0.0027351
0.00012543
0.0023873
0.00013707
0.0020389
0.00014604
0.001591
0.00015366
0.0012234
0.00015738
0.00071549
0.00030954
0.00016055
2.0097e-05
0.0036532
7.0136e-08
4.0281e-05
0.0035623
5.993e-05
0.0034285
7.8571e-05
0.0032435
9.5967e-05
0.0030019
0.0001116
0.0027194
0.00012544
0.0023735
0.00013709
0.0020273
0.00014607
0.001582
0.00015368
0.0012158
0.00015743
0.00071174
0.00030641
0.00016056
2.0098e-05
0.0036331
7.0992e-08
4.0285e-05
0.0035421
5.9937e-05
0.0034089
7.858e-05
0.0032249
9.5977e-05
0.0029845
0.00011161
0.0027038
0.00012545
0.0023596
0.00013711
0.0020156
0.00014609
0.0015731
0.00015371
0.0012082
0.00015749
0.00070796
0.00030333
0.00016057
2.01e-05
0.0036129
7.1835e-08
4.0289e-05
0.0035219
5.9943e-05
0.0033892
7.8589e-05
0.0032062
9.5987e-05
0.0029671
0.00011163
0.0026882
0.00012546
0.0023458
0.00013714
0.0020039
0.00014612
0.0015641
0.00015373
0.0012006
0.00015754
0.00070416
0.00030027
0.00016059
2.0102e-05
0.0035927
7.2665e-08
4.0293e-05
0.0035017
5.995e-05
0.0033696
7.8598e-05
0.0031876
9.5996e-05
0.0029497
0.00011164
0.0026725
0.00012547
0.002332
0.00013716
0.0019923
0.00014614
0.0015551
0.00015376
0.001193
0.00015758
0.00070034
0.00029725
0.0001606
2.0104e-05
0.0035725
7.3481e-08
4.0298e-05
0.0034815
5.9957e-05
0.0033499
7.8606e-05
0.0031689
9.6005e-05
0.0029323
0.00011165
0.0026569
0.00012548
0.0023181
0.00013718
0.0019806
0.00014617
0.0015461
0.00015378
0.0011853
0.00015763
0.00069649
0.00029427
0.00016062
2.0105e-05
0.0035524
7.4284e-08
4.0302e-05
0.0034614
5.9963e-05
0.0033303
7.8614e-05
0.0031503
9.6014e-05
0.0029149
0.00011166
0.0026412
0.00012549
0.0023043
0.0001372
0.0019689
0.00014619
0.0015371
0.00015381
0.0011777
0.00015768
0.00069262
0.00029132
0.00016063
2.0107e-05
0.0035322
7.5073e-08
4.0306e-05
0.0034412
5.9969e-05
0.0033106
7.8623e-05
0.0031316
9.6023e-05
0.0028975
0.00011168
0.0026256
0.0001255
0.0022905
0.00013722
0.0019571
0.00014622
0.0015281
0.00015383
0.0011701
0.00015773
0.00068873
0.00028841
0.00016064
2.0109e-05
0.003512
7.5848e-08
4.031e-05
0.003421
5.9975e-05
0.0032909
7.8631e-05
0.003113
9.6031e-05
0.0028801
0.00011169
0.0026099
0.00012552
0.0022766
0.00013724
0.0019454
0.00014625
0.0015191
0.00015386
0.0011625
0.00015777
0.00068481
0.00028552
0.00016066
2.011e-05
0.0034918
7.6611e-08
4.0314e-05
0.0034007
5.9981e-05
0.0032713
7.8638e-05
0.0030943
9.6039e-05
0.0028627
0.0001117
0.0025943
0.00012553
0.0022628
0.00013727
0.0019337
0.00014627
0.0015101
0.00015388
0.0011549
0.00015782
0.00068088
0.00028267
0.00016067
2.0112e-05
0.0034716
7.736e-08
4.0318e-05
0.0033805
5.9987e-05
0.0032516
7.8646e-05
0.0030756
9.6047e-05
0.0028453
0.00011171
0.0025786
0.00012554
0.002249
0.00013729
0.0019219
0.0001463
0.0015011
0.00015391
0.0011473
0.00015786
0.00067693
0.00027985
0.00016069
2.0113e-05
0.0034514
7.8098e-08
4.0321e-05
0.0033603
5.9992e-05
0.0032319
7.8653e-05
0.003057
9.6055e-05
0.0028279
0.00011172
0.0025629
0.00012555
0.0022352
0.00013731
0.0019102
0.00014633
0.0014921
0.00015393
0.0011397
0.00015791
0.00067295
0.00027705
0.0001607
2.0115e-05
0.0034312
7.8823e-08
4.0325e-05
0.0033401
5.9998e-05
0.0032123
7.866e-05
0.0030383
9.6063e-05
0.0028105
0.00011174
0.0025473
0.00012556
0.0022213
0.00013733
0.0018984
0.00014635
0.0014831
0.00015396
0.0011321
0.00015795
0.00066896
0.00027429
0.00016072
2.0117e-05
0.003411
7.9538e-08
4.0329e-05
0.0033199
6.0003e-05
0.0031926
7.8668e-05
0.0030197
9.6071e-05
0.0027931
0.00011175
0.0025316
0.00012557
0.0022075
0.00013735
0.0018866
0.00014638
0.001474
0.00015398
0.0011245
0.00015799
0.00066495
0.00027155
0.00016073
2.0118e-05
0.0033908
8.0243e-08
4.0332e-05
0.0032997
6.0008e-05
0.0031729
7.8674e-05
0.003001
9.6078e-05
0.0027757
0.00011176
0.0025159
0.00012558
0.0021937
0.00013737
0.0018748
0.00014641
0.001465
0.00015401
0.0011168
0.00015804
0.00066093
0.00026884
0.00016075
2.0119e-05
0.0033706
8.0938e-08
4.0336e-05
0.0032795
6.0013e-05
0.0031532
7.8681e-05
0.0029823
9.6086e-05
0.0027583
0.00011177
0.0025002
0.00012559
0.0021799
0.00013739
0.001863
0.00014643
0.001456
0.00015403
0.0011092
0.00015808
0.00065688
0.00026616
0.00016076
2.0121e-05
0.0033504
8.1625e-08
4.0339e-05
0.0032593
6.0018e-05
0.0031335
7.8688e-05
0.0029637
9.6094e-05
0.0027409
0.00011179
0.0024845
0.00012561
0.0021661
0.00013742
0.0018512
0.00014646
0.0014469
0.00015406
0.0011017
0.00015812
0.00065282
0.0002635
0.00016078
2.0122e-05
0.0033302
8.2304e-08
4.0342e-05
0.003239
6.0023e-05
0.0031139
7.8695e-05
0.002945
9.6101e-05
0.0027235
0.0001118
0.0024688
0.00012562
0.0021522
0.00013744
0.0018394
0.00014649
0.0014379
0.00015408
0.0010941
0.00015816
0.00064875
0.00026087
0.00016079
2.0123e-05
0.00331
8.2977e-08
4.0345e-05
0.0032188
6.0027e-05
0.0030942
7.8701e-05
0.0029263
9.6109e-05
0.0027061
0.00011181
0.0024531
0.00012563
0.0021384
0.00013746
0.0018276
0.00014652
0.0014288
0.00015411
0.0010865
0.0001582
0.00064465
0.00025826
0.00016081
2.0125e-05
0.0032898
8.3645e-08
4.0348e-05
0.0031986
6.0032e-05
0.0030745
7.8708e-05
0.0029076
9.6116e-05
0.0026887
0.00011182
0.0024374
0.00012564
0.0021246
0.00013748
0.0018157
0.00014655
0.0014197
0.00015413
0.0010789
0.00015824
0.00064055
0.00025568
0.00016082
2.0126e-05
0.0032696
8.4308e-08
4.0351e-05
0.0031784
6.0036e-05
0.0030548
7.8714e-05
0.002889
9.6124e-05
0.0026713
0.00011183
0.0024217
0.00012566
0.0021108
0.0001375
0.0018039
0.00014657
0.0014107
0.00015416
0.0010713
0.00015828
0.00063642
0.00025312
0.00016084
2.0127e-05
0.0032494
8.4968e-08
4.0354e-05
0.0031581
6.0041e-05
0.0030351
7.8721e-05
0.0028703
9.6131e-05
0.0026539
0.00011185
0.002406
0.00012567
0.0020969
0.00013753
0.001792
0.0001466
0.0014016
0.00015418
0.0010637
0.00015832
0.00063229
0.00025058
0.00016086
2.0128e-05
0.0032292
8.5626e-08
4.0357e-05
0.0031379
6.0045e-05
0.0030154
7.8727e-05
0.0028516
9.6139e-05
0.0026365
0.00011186
0.0023903
0.00012568
0.0020831
0.00013755
0.0017802
0.00014663
0.0013925
0.00015421
0.0010561
0.00015836
0.00062814
0.00024807
0.00016087
2.0129e-05
0.003209
8.6282e-08
4.036e-05
0.0031177
6.0049e-05
0.0029958
7.8734e-05
0.0028329
9.6147e-05
0.002619
0.00011187
0.0023745
0.0001257
0.0020693
0.00013757
0.0017683
0.00014666
0.0013834
0.00015423
0.0010486
0.0001584
0.00062397
0.00024557
0.00016089
2.013e-05
0.0031888
8.6939e-08
4.0363e-05
0.0030975
6.0054e-05
0.0029761
7.8741e-05
0.0028142
9.6154e-05
0.0026016
0.00011189
0.0023588
0.00012571
0.0020555
0.00013759
0.0017564
0.00014669
0.0013743
0.00015426
0.001041
0.00015843
0.00061979
0.00024309
0.00016091
2.0131e-05
0.0031685
8.7596e-08
4.0366e-05
0.0030772
6.0058e-05
0.0029564
7.8747e-05
0.0027955
9.6162e-05
0.0025842
0.0001119
0.0023431
0.00012572
0.0020417
0.00013761
0.0017445
0.00014672
0.0013652
0.00015428
0.0010334
0.00015847
0.0006156
0.00024064
0.00016093
2.0132e-05
0.0031483
8.8256e-08
4.0368e-05
0.003057
6.0062e-05
0.0029367
7.8754e-05
0.0027768
9.617e-05
0.0025668
0.00011191
0.0023273
0.00012574
0.0020278
0.00013764
0.0017326
0.00014675
0.0013561
0.00015431
0.0010259
0.00015851
0.0006114
0.0002382
0.00016095
2.0133e-05
0.0031281
8.8918e-08
4.0371e-05
0.0030367
6.0066e-05
0.002917
7.876e-05
0.0027581
9.6178e-05
0.0025494
0.00011193
0.0023116
0.00012575
0.002014
0.00013766
0.0017207
0.00014678
0.001347
0.00015433
0.0010183
0.00015855
0.00060719
0.00023579
0.00016096
2.0134e-05
0.0031079
8.9583e-08
4.0374e-05
0.0030165
6.007e-05
0.0028973
7.8767e-05
0.0027394
9.6187e-05
0.002532
0.00011194
0.0022958
0.00012577
0.0020002
0.00013768
0.0017088
0.00014681
0.0013379
0.00015436
0.0010108
0.00015858
0.00060296
0.00023339
0.00016098
2.0135e-05
0.0030876
9.0254e-08
4.0376e-05
0.0029963
6.0075e-05
0.0028776
7.8774e-05
0.0027207
9.6195e-05
0.0025145
0.00011195
0.0022801
0.00012578
0.0019863
0.0001377
0.0016969
0.00014684
0.0013287
0.00015438
0.0010032
0.00015862
0.00059872
0.00023101
0.000161
2.0136e-05
0.0030674
9.093e-08
4.0379e-05
0.002976
6.0079e-05
0.0028579
7.8781e-05
0.002702
9.6203e-05
0.0024971
0.00011197
0.0022643
0.0001258
0.0019725
0.00013773
0.0016849
0.00014687
0.0013196
0.00015441
0.00099569
0.00015866
0.00059447
0.00022865
0.00016102
2.0137e-05
0.0030472
9.1612e-08
4.0382e-05
0.0029558
6.0083e-05
0.0028382
7.8788e-05
0.0026833
9.6212e-05
0.0024797
0.00011198
0.0022485
0.00012581
0.0019587
0.00013775
0.001673
0.0001469
0.0013104
0.00015444
0.00098815
0.00015869
0.00059022
0.0002263
0.00016104
2.0138e-05
0.003027
9.23e-08
4.0384e-05
0.0029355
6.0088e-05
0.0028185
7.8795e-05
0.0026646
9.6221e-05
0.0024623
0.000112
0.0022327
0.00012583
0.0019449
0.00013777
0.0016611
0.00014693
0.0013013
0.00015446
0.00098062
0.00015873
0.00058595
0.00022397
0.00016106
2.0139e-05
0.0030067
9.2997e-08
4.0387e-05
0.0029153
6.0092e-05
0.0027988
7.8802e-05
0.0026459
9.6229e-05
0.0024448
0.00011201
0.002217
0.00012585
0.001931
0.00013779
0.0016491
0.00014696
0.0012921
0.00015449
0.00097309
0.00015877
0.00058167
0.00022165
0.00016108
2.014e-05
0.0029865
9.3702e-08
4.039e-05
0.002895
6.0096e-05
0.0027791
7.8809e-05
0.0026272
9.6238e-05
0.0024274
0.00011203
0.0022012
0.00012586
0.0019172
0.00013782
0.0016372
0.00014699
0.0012829
0.00015451
0.00096557
0.0001588
0.00057738
0.00021935
0.0001611
2.0141e-05
0.0029663
9.4416e-08
4.0393e-05
0.0028748
6.0101e-05
0.0027594
7.8817e-05
0.0026085
9.6247e-05
0.00241
0.00011204
0.0021854
0.00012588
0.0019033
0.00013784
0.0016252