/*--------------------------------*- C++ -*----------------------------------*\
  =========                 |
  \\      /  F ield         | OpenFOAM: The Open Source CFD Toolbox
   \\    /   O peration     | Website:  https://openfoam.org
    \\  /    A nd           | Version:  6.0
     \\/     M anipulation  |
\*---------------------------------------------------------------------------*/
FoamFile
{
    version     2.0;
    format      ascii;
    class       volVectorField;
    location    "1.22";
    object      U;
}
// * * * * * * * * * * * * * * * * * * * * * * * * * * * * * * * * * * * * * //

dimensions      [0 1 -1 0 0 0 0];

internalField   nonuniform List<vector> 
13500
(
(1 1.7871e-06 -4.3502e-18)
(1 -3.8087e-06 2.945e-18)
(1 -5.5831e-06 -1.2651e-17)
(1 -9.0491e-06 -8.7717e-18)
(1 -8.3919e-06 1.6495e-17)
(1 -6.2284e-06 3.0776e-17)
(1 1.0796e-09 2.6445e-17)
(0.99997 1.676e-05 -4.2641e-18)
(0.99991 4.3186e-05 1.5733e-17)
(0.99977 8.4295e-05 3.3772e-18)
(0.99595 0.00070651 2.9126e-17)
(1.0191 0.01084 8.0229e-18)
(1 5.5701e-06 2.6951e-18)
(1 -1.1177e-05 -8.944e-18)
(1 -1.5708e-05 6.0414e-18)
(1 -2.6279e-05 -3.4602e-19)
(1 -2.3252e-05 -4.399e-19)
(1 -1.7553e-05 -3.7006e-17)
(1 2.7762e-06 -4.5674e-17)
(0.99993 5.1389e-05 -2.4398e-17)
(0.99972 0.00013693 -1.5702e-17)
(0.99968 0.00022619 -1.6698e-18)
(0.98711 0.0020017 -1.3793e-17)
(1.0536 0.030638 -4.8578e-18)
(1 9.4103e-06 -3.481e-18)
(1 -1.8722e-05 1.777e-17)
(1 -2.5786e-05 3.1423e-18)
(1 -4.3952e-05 1.0114e-17)
(1 -3.7963e-05 -3.8038e-18)
(1 -2.9511e-05 2.9643e-17)
(1 6.0544e-06 -6.4294e-18)
(0.99988 8.5652e-05 5.5421e-18)
(0.99953 0.00023591 -1.9049e-17)
(0.99997 0.00039759 2.5368e-17)
(0.97784 0.0028989 -7.2127e-18)
(1.0821 0.045184 1.7091e-18)
(1 1.329e-05 9.1001e-18)
(1 -2.6476e-05 -1.7228e-17)
(1 -3.5981e-05 -1.4896e-17)
(1 -6.2101e-05 -7.0963e-19)
(1 -5.2822e-05 5.8719e-18)
(1 -4.2057e-05 -8.2272e-19)
(1 9.4098e-06 6.3347e-17)
(0.99985 0.00011929 9.9848e-18)
(0.99931 0.00033827 2.2525e-17)
(1.0006 0.00060516 -9.1892e-18)
(0.96855 0.0034189 3.5126e-17)
(1.1032 0.055766 -7.7794e-18)
(1 1.7237e-05 -6.3942e-18)
(1 -3.4339e-05 1.489e-17)
(1 -4.6146e-05 1.268e-17)
(1 -8.0414e-05 1.2944e-17)
(1 -6.7645e-05 2.8791e-18)
(1 -5.4817e-05 2.1787e-17)
(1 1.2941e-05 -2.8288e-17)
(0.99982 0.0001523 2.0279e-18)
(0.99907 0.0004419 -1.3812e-17)
(1.0015 0.00085235 -2.1927e-18)
(0.95965 0.0036098 -9.1078e-18)
(1.1171 0.063521 2.1553e-18)
(1 2.125e-05 6.4709e-18)
(1 -4.2311e-05 -6.1726e-18)
(1 -5.6282e-05 3.8724e-18)
(1 -9.8896e-05 -2.5641e-17)
(1.0001 -8.2432e-05 -8.4367e-20)
(1.0001 -6.782e-05 -4.3132e-17)
(1 1.6645e-05 1.0855e-18)
(0.99981 0.00018458 -1.6279e-17)
(0.99879 0.00054476 5.2593e-18)
(1.0027 0.0011463 -2.209e-17)
(0.95148 0.0035139 -2.1935e-17)
(1.1244 0.069064 2.0866e-18)
(0.99999 2.5331e-05 -1.0712e-18)
(1 -5.0399e-05 -7.3825e-18)
(1 -6.6385e-05 -3.1472e-18)
(1.0001 -0.00011757 1.9354e-17)
(1.0001 -9.7171e-05 -2.6666e-17)
(1.0001 -8.1112e-05 1.6503e-17)
(1 2.0563e-05 1.8921e-17)
(0.9998 0.00021614 5.7273e-18)
(0.99848 0.00064491 1.1758e-17)
(1.0041 0.0014932 1.1892e-17)
(0.9443 0.0031713 9.4521e-18)
(1.1261 0.072826 3.3558e-18)
(0.99999 2.9481e-05 -2.2109e-18)
(1 -5.8607e-05 -1.4523e-18)
(1 -7.6455e-05 -2.7111e-17)
(1.0001 -0.00013644 -9.2416e-18)
(1.0001 -0.00011186 7.4639e-18)
(1.0001 -9.4727e-05 2.7046e-17)
(1 2.4716e-05 1.2043e-17)
(0.9998 0.00024699 5.1127e-18)
(0.99814 0.00074043 -7.6859e-18)
(1.0057 0.0018962 1.6657e-17)
(0.9383 0.0026221 7.6351e-18)
(1.1233 0.075167 -1.0679e-17)
(0.99999 3.37e-05 -6.8632e-18)
(1 -6.6939e-05 6.2437e-18)
(1 -8.6493e-05 4.5584e-17)
(1.0001 -0.00015553 -1.1085e-17)
(1.0001 -0.00012649 2.795e-17)
(1.0001 -0.00010869 -5.3398e-17)
(1 2.9112e-05 -4.0117e-17)
(0.99981 0.00027718 9.9345e-18)
(0.99777 0.00082947 -5.773e-18)
(1.0073 0.0023557 -9.1869e-18)
(0.93359 0.0019069 -1.4105e-17)
(1.117 0.076394 1.3977e-17)
(0.99999 3.799e-05 4.5217e-18)
(1 -7.5398e-05 2.3502e-18)
(1 -9.65e-05 -3.8613e-17)
(1.0001 -0.00017485 1.5776e-17)
(1.0001 -0.00014107 -1.2188e-17)
(1.0001 -0.00012304 2.2774e-17)
(1 3.3761e-05 1.4256e-17)
(0.99984 0.00030676 2.5112e-18)
(0.99736 0.00091031 5.4465e-19)
(1.0089 0.0028697 1.4557e-18)
(0.93022 0.001065 4.4886e-18)
(1.1081 0.076758 -7.2913e-19)
(0.99999 4.2351e-05 -2.4825e-18)
(1 -8.3987e-05 -7.7077e-18)
(1 -0.00010648 9.465e-18)
(1.0001 -0.0001944 -2.7836e-18)
(1.0001 -0.0001556 1.8814e-18)
(1.0001 -0.00013781 -2.4959e-17)
(1 3.8671e-05 -3.2835e-17)
(0.99988 0.00033581 -3.1897e-17)
(0.99693 0.00098147 1.6137e-17)
(1.0104 0.0034342 1.8912e-18)
(0.92816 0.00013429 -1.1385e-17)
(1.0974 0.076464 -6.0299e-18)
(0.99998 4.6783e-05 3.4266e-18)
(1 -9.2709e-05 2.9113e-18)
(1 -0.00011643 4.5615e-18)
(1.0001 -0.00021419 -2.2183e-18)
(1.0001 -0.00017008 -5.6397e-18)
(1.0001 -0.00015303 9.44e-18)
(1 4.3855e-05 1.9007e-17)
(0.99993 0.00036439 1.9705e-17)
(0.99647 0.0010417 1.037e-17)
(1.0119 0.0040438 -2.3877e-17)
(0.92733 -0.00084978 1.1945e-19)
(1.0857 0.075678 -6.989e-18)
(0.99998 5.1286e-05 -3.426e-18)
(1 -0.00010157 5.7251e-18)
(1 -0.00012635 8.27e-18)
(1.0001 -0.00023424 5.7924e-18)
(1.0001 -0.0001845 -5.2307e-18)
(1.0002 -0.00016874 4.6408e-18)
(1.0001 4.9327e-05 4.3342e-18)
(0.99999 0.00039258 -1.7596e-18)
(0.996 0.0010901 -1.676e-17)
(1.0133 0.0046917 2.2143e-17)
(0.92764 -0.0018547 1.065e-19)
(1.0736 0.074535 1.4926e-18)
(0.99998 5.5862e-05 5.2098e-18)
(1 -0.00011057 -4.469e-18)
(1 -0.00013624 7.2388e-19)
(1.0001 -0.00025456 -4.8321e-18)
(1.0001 -0.00019886 1.1879e-17)
(1.0002 -0.00018497 5.6623e-18)
(1.0001 5.5102e-05 1.7439e-17)
(1.0001 0.00042044 -6.5348e-18)
(0.99553 0.0011259 -2.0482e-19)
(1.0146 0.0053704 5.4402e-18)
(0.92894 -0.0028515 1.7281e-17)
(1.0615 0.073142 9.5188e-19)
(0.99997 6.0511e-05 1.2565e-18)
(1 -0.00011971 9.9182e-18)
(1 -0.00014611 1.3829e-17)
(1.0001 -0.00027515 -4.8177e-18)
(1.0002 -0.00021317 8.6014e-18)
(1.0002 -0.00020178 -2.6433e-18)
(1.0001 6.1195e-05 -3.0544e-17)
(1.0002 0.00044802 2.0684e-17)
(0.99504 0.0011487 -1.8905e-17)
(1.0156 0.0060717 -3.1376e-17)
(0.93107 -0.0038151 -3.794e-18)
(1.0499 0.071584 8.8259e-19)
(0.99997 6.5232e-05 -3.2056e-18)
(0.99999 -0.000129 -1.0548e-17)
(1 -0.00015595 -3.3192e-17)
(1.0001 -0.00029604 8.1168e-18)
(1.0002 -0.00022741 -1.3053e-17)
(1.0002 -0.00021921 8.4751e-18)
(1.0001 6.7626e-05 -2.8578e-18)
(1.0003 0.00047535 -1.2451e-17)
(0.99457 0.0011586 4.1493e-18)
(1.0165 0.0067875 1.8737e-17)
(0.93389 -0.0047244 -7.9613e-18)
(1.039 0.069928 1.2311e-17)
(0.99997 7.0025e-05 3.3727e-19)
(0.99999 -0.00013844 7.8888e-18)
(1 -0.00016578 2.2915e-17)
(1.0001 -0.00031724 -1.8281e-18)
(1.0002 -0.00024159 -1.2967e-17)
(1.0002 -0.0002373 -1.5793e-17)
(1.0001 7.4417e-05 1.0916e-17)
(1.0004 0.00050243 7.1405e-18)
(0.9941 0.0011556 2.3997e-17)
(1.0172 0.0075095 -2.6242e-18)
(0.93722 -0.0055626 1.9781e-18)
(1.029 0.068225 -4.9109e-18)
(0.99996 7.4891e-05 -1.8923e-18)
(0.99999 -0.00014804 -9.5587e-18)
(1 -0.00017558 -1.034e-17)
(1.0001 -0.00033875 6.1088e-18)
(1.0002 -0.0002557 -7.2824e-18)
(1.0003 -0.0002561 -1.2668e-17)
(1.0001 8.1588e-05 1.0612e-17)
(1.0005 0.00052925 -4.8443e-18)
(0.99364 0.0011401 -2.9702e-17)
(1.0177 0.0082296 -1.471e-17)
(0.94092 -0.0063173 8.5839e-18)
(1.0201 0.066513 -5.3327e-18)
(0.99996 7.9829e-05 -2.7095e-18)
(0.99999 -0.00015779 -3.6127e-18)
(1 -0.00018536 -7.6629e-19)
(1.0001 -0.0003606 -2.675e-17)
(1.0002 -0.00026973 6.1106e-18)
(1.0003 -0.00027567 5.5163e-18)
(1.0001 8.9163e-05 -2.0165e-17)
(1.0007 0.00055577 -1.6538e-17)
(0.99321 0.0011128 4.342e-18)
(1.0181 0.0089404 -1.1081e-18)
(0.94485 -0.0069797 -9.9123e-18)
(1.0122 0.064819 1.0082e-18)
(0.99995 8.4839e-05 3.5243e-18)
(0.99998 -0.00016771 1.6562e-17)
(1 -0.00019513 1.9731e-17)
(1.0002 -0.00038279 2.5193e-18)
(1.0002 -0.00028369 1.6891e-17)
(1.0003 -0.00029606 9.6668e-18)
(1.0001 9.7165e-05 2.9107e-18)
(1.0008 0.0005819 1.8101e-17)
(0.9928 0.0010745 2.159e-17)
(1.0183 0.0096348 1.7567e-17)
(0.94889 -0.007545 7.3965e-18)
(1.0054 0.063165 1.1978e-18)
(0.99995 8.992e-05 -1.6798e-18)
(0.99998 -0.00017778 -3.9738e-18)
(1 -0.00020487 -2.1021e-17)
(1.0002 -0.00040534 -2.3852e-18)
(1.0002 -0.00029756 -1.2802e-17)
(1.0003 -0.00031733 -5.2301e-18)
(1.0001 0.00010561 -1.8679e-18)
(1.001 0.00060757 -1.6367e-17)
(0.99242 0.001026 -2.065e-17)
(1.0183 0.010307 9.0064e-18)
(0.95294 -0.0080115 5.0684e-19)
(0.99975 0.061561 6.8827e-19)
(0.99994 9.5071e-05 4.4526e-18)
(0.99998 -0.00018803 -5.1915e-18)
(1 -0.00021461 -1.9715e-17)
(1.0002 -0.00042827 4.5347e-17)
(1.0002 -0.00031135 1.857e-17)
(1.0004 -0.00033953 -1.2798e-17)
(1.0001 0.00011452 2.5114e-17)
(1.0012 0.00063265 2.212e-17)
(0.99207 0.00096837 3.3512e-17)
(1.0182 0.01095 -3.3014e-17)
(0.9569 -0.0083804 -1.3583e-17)
(0.99505 0.060018 1.8202e-19)
(0.99994 0.00010029 -3.2591e-18)
(0.99997 -0.00019844 -1.0418e-18)
(1 -0.00022434 3.3658e-17)
(1.0002 -0.00045159 -3.4279e-17)
(1.0002 -0.00032504 -1.7877e-18)
(1.0004 -0.00036274 4.2404e-17)
(1 0.0001239 7.7828e-18)
(1.0013 0.00065705 -3.4168e-18)
(0.99175 0.0009025 -2.0786e-17)
(1.018 0.011561 3.8908e-17)
(0.96071 -0.0086552 -5.753e-18)
(0.99128 0.058537 -2.8867e-19)
(0.99993 0.00010558 -1.6614e-18)
(0.99997 -0.00020903 -2.0758e-18)
(1 -0.00023405 1.7524e-18)
(1.0002 -0.00047532 3.5662e-17)
(1.0002 -0.00033862 -1.0078e-17)
(1.0004 -0.00038701 -3.1342e-17)
(1 0.00013373 -1.9844e-17)
(1.0015 0.00068061 -3.679e-18)
(0.99147 0.00082939 6.5747e-18)
(1.0178 0.012136 -3.2827e-17)
(0.96433 -0.0088414 9.6366e-18)
(0.98833 0.05712 3.1333e-18)
(0.99992 0.00011093 2.7456e-18)
(0.99997 -0.00021979 1.4448e-17)
(1 -0.00024377 -1.2926e-17)
(1.0002 -0.00049947 -3.7341e-18)
(1.0003 -0.00035211 -1.9341e-17)
(1.0005 -0.0004124 3.4098e-17)
(1 0.00014401 -1.7419e-17)
(1.0017 0.00070322 1.5251e-17)
(0.99122 0.00074994 -2.0262e-18)
(1.0174 0.012672 3.0779e-17)
(0.96772 -0.0089456 -9.4024e-18)
(0.98612 0.055766 -5.2288e-18)
(0.99992 0.00011635 -5.2658e-19)
(0.99996 -0.00023073 -8.3094e-18)
(1 -0.00025348 -1.8099e-17)
(1.0002 -0.00052405 -1.0232e-17)
(1.0003 -0.00036548 1.876e-17)
(1.0005 -0.00043898 -4.348e-17)
(0.99999 0.00015468 -2.6877e-18)
(1.002 0.00072474 -2.0605e-17)
(0.99101 0.00066499 3.2753e-18)
(1.0171 0.013166 -8.8779e-18)
(0.97085 -0.0089756 1.0008e-17)
(0.98454 0.054471 2.2192e-18)
(0.99991 0.00012183 2.7585e-18)
(0.99996 -0.00024185 -8.9006e-18)
(1 -0.00026319 -1.7878e-18)
(1.0002 -0.0005491 2.4861e-18)
(1.0003 -0.00037873 5.9374e-18)
(1.0005 -0.0004668 1.2564e-17)
(0.99996 0.00016568 4.4067e-17)
(1.0022 0.00074506 2.4624e-18)
(0.99083 0.00057527 5.3391e-18)
(1.0166 0.013619 9.7864e-18)
(0.97372 -0.0089398 -8.559e-18)
(0.9835 0.053234 1.7066e-18)
(0.9999 0.00012737 -1.5818e-18)
(0.99995 -0.00025315 8.8924e-18)
(1 -0.00027291 2.5726e-17)
(1.0002 -0.00057462 -2.5049e-17)
(1.0003 -0.00039187 -9.2354e-18)
(1.0006 -0.00049593 -2.2107e-18)
(0.99993 0.00017691 -1.4525e-17)
(1.0024 0.00076407 1.9105e-18)
(0.99069 0.00048139 -9.2487e-18)
(1.0162 0.014029 -3.5965e-18)
(0.97633 -0.0088465 -2.4206e-19)
(0.98291 0.052048 -2.0847e-18)
(0.9999 0.00013297 -1.7e-18)
(0.99995 -0.00026464 5.3226e-18)
(1 -0.00028264 -6.2233e-19)
(1.0002 -0.00060063 8.3061e-18)
(1.0003 -0.0004049 -1.704e-17)
(1.0006 -0.00052642 2.5013e-17)
(0.9999 0.00018823 7.2446e-18)
(1.0026 0.00078168 -1.8225e-17)
(0.99058 0.00038387 -1.1865e-17)
(1.0158 0.014397 -1.4241e-17)
(0.97869 -0.0087041 1.3564e-18)
(0.98268 0.050911 -3.8249e-18)
(0.99989 0.00013863 5.9076e-19)
(0.99994 -0.00027632 -1.2711e-17)
(1 -0.00029239 1.593e-17)
(1.0002 -0.00062714 2.2973e-17)
(1.0003 -0.00041781 3.3399e-17)
(1.0006 -0.00055832 -1.837e-17)
(0.99987 0.00019948 -1.8012e-17)
(1.0028 0.00079782 3.6984e-18)
(0.9905 0.00028311 1.1118e-17)
(1.0154 0.014723 1.1147e-17)
(0.98081 -0.0085207 6.3152e-18)
(0.98275 0.049818 3.8017e-18)
(0.99988 0.00014433 1.1321e-18)
(0.99994 -0.00028819 1.0108e-17)
(1 -0.00030217 -3.6599e-17)
(1.0002 -0.00065419 -3.3287e-18)
(1.0003 -0.00043062 -2.7744e-17)
(1.0007 -0.00059166 -1.1571e-17)
(0.99983 0.00021045 2.5346e-20)
(1.0031 0.00081242 -4.2306e-18)
(0.99046 0.00017943 -2.1916e-17)
(1.015 0.015011 -1.7798e-17)
(0.98271 -0.0083039 -8.6264e-18)
(0.98304 0.048764 -1.8762e-18)
(0.99987 0.00015008 -7.3378e-19)
(0.99993 -0.00030025 -6.5736e-18)
(1 -0.00031197 2.8796e-17)
(1.0002 -0.00068177 -3.176e-17)
(1.0003 -0.00044333 -2.0862e-18)
(1.0007 -0.00062649 2.4641e-17)
(0.99979 0.00022087 7.2069e-19)
(1.0033 0.00082545 4.0342e-18)
(0.99044 7.3059e-05 1.9185e-17)
(1.0146 0.01526 2.3135e-17)
(0.98442 -0.0080607 4.9348e-18)
(0.98351 0.047748 -1.0496e-18)
(0.99986 0.00015587 -1.9102e-18)
(0.99993 -0.0003125 -2.4241e-18)
(1 -0.00032181 -1.2765e-17)
(1.0003 -0.00070992 1.5822e-17)
(1.0003 -0.00045598 3.049e-17)
(1.0008 -0.00066283 -1.089e-17)
(0.99975 0.00023045 2.2432e-17)
(1.0036 0.0008369 3.0239e-18)
(0.99045 -3.5803e-05 -2.175e-18)
(1.0143 0.015474 1.0465e-17)
(0.98595 -0.0077972 -5.5164e-18)
(0.98411 0.046764 -7.3303e-19)
(0.99985 0.0001617 4.7773e-19)
(0.99992 -0.00032495 -6.4107e-18)
(1 -0.0003317 4.7784e-18)
(1.0003 -0.00073865 -1.6125e-17)
(1.0003 -0.00046858 -3.2249e-17)
(1.0008 -0.00070072 6.8626e-18)
(0.99971 0.00023885 -3.2361e-17)
(1.0038 0.00084674 -6.914e-18)
(0.99049 -0.00014701 7.0537e-18)
(1.014 0.015655 -3.2846e-17)
(0.98732 -0.0075191 3.7761e-18)
(0.9848 0.04581 2.0633e-18)
(0.99984 0.00016757 8.3891e-19)
(0.99991 -0.0003376 1.7369e-17)
(1 -0.00034165 8.0007e-18)
(1.0003 -0.00076797 6.5684e-18)
(1.0003 -0.00048117 2.5787e-17)
(1.0009 -0.00074015 2.0461e-18)
(0.99966 0.00024568 2.2346e-17)
(1.004 0.00085499 4.959e-18)
(0.99055 -0.00026041 -2.1446e-17)
(1.0137 0.015805 1.1308e-17)
(0.98855 -0.0072311 2.5539e-18)
(0.98555 0.044884 2.1424e-18)
(0.99983 0.00017346 -2.9292e-18)
(0.99991 -0.00035044 -5.7171e-18)
(0.99999 -0.00035167 -7.0295e-18)
(1.0003 -0.0007979 1.0787e-17)
(1.0003 -0.0004938 1.2457e-17)
(1.001 -0.00078114 -4.0748e-18)
(0.99962 0.00025054 -1.877e-17)
(1.0043 0.00086167 2.258e-17)
(0.99063 -0.00037587 3.9684e-18)
(1.0134 0.015928 -3.4157e-18)
(0.98967 -0.0069373 1.0569e-17)
(0.98634 0.043983 -1.4903e-18)
(0.99982 0.00017937 6.0189e-18)
(0.9999 -0.00036348 6.8464e-18)
(0.99999 -0.00036178 -7.4721e-18)
(1.0003 -0.00082846 -6.7192e-18)
(1.0003 -0.00050652 -1.7876e-17)
(1.001 -0.00082369 -6.9985e-18)
(0.99957 0.00025297 9.2544e-18)
(1.0045 0.00086681 -3.6218e-17)
(0.99074 -0.00049322 9.7228e-18)
(1.0132 0.016025 -4.0372e-18)
(0.99069 -0.006641 -1.1193e-17)
(0.98714 0.043106 4.3325e-18)
(0.99981 0.0001853 -2.6564e-18)
(0.99989 -0.00037672 -1.2029e-17)
(0.99998 -0.00037199 -7.2415e-18)
(1.0003 -0.00085967 -1.275e-17)
(1.0003 -0.00051941 -5.4577e-18)
(1.0011 -0.00086779 2.0577e-17)
(0.99952 0.00025251 -9.0909e-18)
(1.0047 0.00087045 4.0292e-17)
(0.99086 -0.00061226 9.1714e-18)
(1.013 0.016099 1.2251e-17)
(0.99163 -0.006345 4.7187e-18)
(0.98795 0.042249 -7.0297e-18)
(0.9998 0.00019124 -1.409e-18)
(0.99988 -0.00039016 8.9456e-18)
(0.99997 -0.00038232 1.4348e-17)
(1.0003 -0.00089154 3.4377e-17)
(1.0003 -0.00053254 7.2343e-18)
(1.0012 -0.00091343 -1.4114e-17)
(0.99948 0.00024869 4.387e-18)
(1.005 0.00087265 -4.3349e-17)
(0.99101 -0.00073276 -1.1127e-17)
(1.0128 0.016152 -6.8115e-18)
(0.9925 -0.0060516 4.6316e-18)
(0.98876 0.041413 7.0746e-18)
(0.99979 0.00019718 1.0783e-18)
(0.99988 -0.0004038 2.1176e-18)
(0.99997 -0.00039279 -1.409e-17)
(1.0003 -0.00092409 -5.7263e-18)
(1.0003 -0.00054601 9.1851e-18)
(1.0012 -0.00096061 1.6894e-17)
(0.99943 0.00024102 1.5255e-17)
(1.0052 0.00087345 4.2901e-18)
(0.99117 -0.00085445 1.2449e-17)
(1.0127 0.016188 -3.1557e-18)
(0.9933 -0.0057625 -8.2683e-18)
(0.98955 0.040596 -1.8236e-18)
(0.99978 0.00020311 -4.4163e-20)
(0.99987 -0.00041765 2.4133e-18)
(0.99996 -0.00040342 3.149e-18)
(1.0003 -0.00095734 -7.4336e-18)
(1.0003 -0.00055993 8.5253e-20)
(1.0013 -0.0010093 -1.5317e-17)
(0.99939 0.00022905 -1.0319e-17)
(1.0054 0.00087294 3.1746e-17)
(0.99134 -0.00097701 -1.8817e-17)
(1.0126 0.016207 1.2254e-17)
(0.99406 -0.005479 4.3679e-18)
(0.99032 0.039797 -5.1613e-18)
(0.99977 0.00020903 -3.3397e-18)
(0.99986 -0.0004317 -1.1319e-17)
(0.99995 -0.00041425 8.0392e-18)
(1.0003 -0.0009913 -2.0302e-17)
(1.0003 -0.00057444 -2.3228e-17)
(1.0014 -0.0010595 -2.116e-17)
(0.99935 0.00021234 -2.1029e-17)
(1.0056 0.00087119 -3.2508e-18)
(0.99153 -0.0011001 1.6446e-17)
(1.0125 0.016212 -1.0511e-17)
(0.99478 -0.0052021 4.3483e-19)
(0.99107 0.039015 4.8641e-18)
(0.99975 0.00021492 6.4459e-18)
(0.99985 -0.00044595 1.1829e-17)
(0.99994 -0.0004253 -1.2965e-17)
(1.0003 -0.001026 1.6668e-17)
(1.0003 -0.00058967 -2.7234e-18)
(1.0014 -0.0011112 1.3869e-17)
(0.99931 0.00019048 2.5277e-17)
(1.0058 0.00086828 -2.4628e-17)
(0.99173 -0.0012233 -8.3403e-18)
(1.0124 0.016204 1.1099e-17)
(0.99546 -0.0049324 3.7783e-18)
(0.9918 0.03825 -2.3027e-18)
(0.99974 0.00022078 -4.8367e-18)
(0.99984 -0.00046042 -3.4959e-18)
(0.99994 -0.0004366 -2.7105e-18)
(1.0004 -0.0010615 1.9071e-17)
(1.0003 -0.00060578 -5.8304e-18)
(1.0015 -0.0011644 -1.7574e-19)
(0.99928 0.00016311 -4.9461e-18)
(1.0061 0.00086432 1.9727e-17)
(0.99194 -0.0013464 -7.9203e-18)
(1.0123 0.016184 -7.6211e-18)
(0.99612 -0.0046705 -1.117e-17)
(0.99251 0.0375 2.6795e-18)
(0.99973 0.0002266 3.2877e-18)
(0.99983 -0.0004751 -4.4325e-18)
(0.99993 -0.0004482 6.2056e-18)
(1.0004 -0.0010977 -2.8936e-17)
(1.0003 -0.00062295 3.9502e-17)
(1.0016 -0.001219 5.7461e-18)
(0.99925 0.00012995 1.9515e-17)
(1.0063 0.00085941 -1.2207e-17)
(0.99216 -0.0014688 1.0378e-19)
(1.0123 0.016155 5.6669e-18)
(0.99675 -0.0044165 -2.1762e-18)
(0.9932 0.036765 -1.0079e-18)
(0.99971 0.00023236 -9.4052e-19)
(0.99982 -0.00049 8.6638e-19)
(0.99992 -0.00046014 1.5119e-17)
(1.0004 -0.0011347 7.8885e-18)
(1.0003 -0.00064135 -1.9748e-17)
(1.0017 -0.0012751 -1.1255e-17)
(0.99923 9.0759e-05 3.407e-18)
(1.0064 0.00085368 -5.9353e-18)
(0.99238 -0.0015902 1.3252e-17)
(1.0122 0.016117 -3.7201e-18)
(0.99736 -0.0041708 1.0464e-17)
(0.99386 0.036044 -3.6847e-18)
(0.9997 0.00023806 -1.637e-18)
(0.99981 -0.00050513 -8.3516e-18)
(0.99991 -0.00047247 -4.4955e-18)
(1.0004 -0.0011726 3.1677e-17)
(1.0003 -0.00066117 -1.7593e-17)
(1.0018 -0.0013327 -9.5329e-19)
(0.99921 4.539e-05 -5.0955e-17)
(1.0066 0.00084723 5.8336e-18)
(0.99262 -0.0017102 -2.4784e-17)
(1.0121 0.01607 -8.033e-18)
(0.99795 -0.0039332 -1.0469e-17)
(0.9945 0.035338 2.1881e-18)
(0.99968 0.00024367 -7.0667e-19)
(0.9998 -0.00052048 5.1742e-18)
(0.9999 -0.00048524 -1.8557e-18)
(1.0004 -0.0012114 -1.8444e-17)
(1.0003 -0.00068263 2.5282e-17)
(1.0018 -0.0013917 -2.3433e-18)
(0.9992 -6.2286e-06 2.6991e-17)
(1.0068 0.00084021 -3.5867e-18)
(0.99285 -0.0018285 1.2033e-17)
(1.0121 0.016016 1.0047e-17)
(0.99852 -0.0037037 8.6368e-18)
(0.99512 0.034646 -5.3023e-19)
(0.99967 0.0002492 4.0059e-18)
(0.99979 -0.00053608 -3.0957e-18)
(0.99989 -0.0004985 -6.4914e-18)
(1.0004 -0.001251 2.013e-17)
(1.0003 -0.00070592 1.8552e-18)
(1.0019 -0.0014522 2.9053e-17)
(0.99919 -6.4085e-05 4.6559e-18)
(1.007 0.00083274 1.7136e-17)
(0.99309 -0.0019447 4.5143e-18)
(1.0121 0.015956 -3.2506e-18)
(0.99908 -0.0034823 1.1248e-18)
(0.99571 0.033967 4.7943e-19)
(0.99965 0.00025463 1.1421e-18)
(0.99978 -0.00055193 1.2658e-18)
(0.99987 -0.00051232 -5.886e-18)
(1.0004 -0.0012916 -4.0088e-17)
(1.0003 -0.00073125 5.6181e-18)
(1.002 -0.0015141 2.5196e-18)
(0.99918 -0.00012808 -2.0188e-17)
(1.0072 0.00082498 2.4114e-19)
(0.99333 -0.0020587 1.3303e-17)
(1.012 0.01589 -2.0897e-18)
(0.99963 -0.0032688 -5.476e-18)
(0.99629 0.033301 2.8306e-18)
(0.99964 0.00025994 -4.8911e-18)
(0.99976 -0.00056805 5.3646e-18)
(0.99986 -0.00052676 9.7053e-19)
(1.0004 -0.0013332 2.226e-17)
(1.0003 -0.00075882 -2.5629e-17)
(1.0021 -0.0015774 -1.1129e-17)
(0.99919 -0.00019805 2.0648e-17)
(1.0073 0.00081704 -1.1607e-17)
(0.99358 -0.0021701 -2.1031e-17)
(1.012 0.015818 -1.0326e-17)
(1.0002 -0.0030631 6.976e-18)
(0.99686 0.032648 9.4559e-19)
(0.99962 0.00026512 -5.1752e-19)
(0.99975 -0.00058445 -5.3983e-18)
(0.99985 -0.0005419 1.0334e-17)
(1.0004 -0.0013758 9.8697e-18)
(1.0003 -0.00078883 3.1653e-17)
(1.0022 -0.0016422 4.2753e-18)
(0.9992 -0.00027372 1.8339e-17)
(1.0075 0.00080907 2.9427e-17)
(0.99382 -0.0022788 -9.2936e-19)
(1.012 0.01574 1.8163e-17)
(1.0007 -0.002865 -7.3766e-19)
(0.9974 0.032008 -2.7559e-18)
(0.9996 0.00027015 5.0163e-18)
(0.99974 -0.00060116 -7.8592e-18)
(0.99984 -0.00055781 -1.5684e-17)
(1.0005 -0.0014195 -2.6235e-18)
(1.0003 -0.00082146 -3.4354e-17)
(1.0023 -0.0017082 -1.2721e-17)
(0.99921 -0.00035478 -6.366e-18)
(1.0077 0.00080118 2.2017e-19)
(0.99407 -0.0023847 2.737e-17)
(1.0119 0.015658 4.1853e-18)
(1.0012 -0.0026744 -9.5821e-18)
(0.99793 0.031379 1.6549e-18)
(0.99958 0.00027502 -5.6237e-18)
(0.99973 -0.00061818 9.8176e-18)
(0.99982 -0.00057457 8.2101e-18)
(1.0005 -0.0014644 -5.2276e-18)
(1.0003 -0.00085686 2.7627e-17)
(1.0024 -0.0017756 1.5219e-17)
(0.99923 -0.00044085 -5.0322e-18)
(1.0078 0.00079348 -2.9655e-17)
(0.99432 -0.0024876 -9.304e-19)
(1.0119 0.015571 -1.196e-17)
(1.0017 -0.002491 1.1346e-17)
(0.99845 0.030763 -2.1673e-18)
(0.99957 0.00027972 3.3791e-18)
(0.99971 -0.00063556 -1.8785e-18)
(0.99981 -0.00059226 1.087e-17)
(1.0005 -0.0015104 -2.1992e-17)
(1.0003 -0.00089519 9.0202e-18)
(1.0024 -0.0018441 -5.4671e-18)
(0.99925 -0.00053148 -1.0842e-17)
(1.0079 0.00078607 -2.3803e-18)
(0.99456 -0.0025875 -3.303e-17)
(1.0119 0.015479 7.8906e-18)
(1.0022 -0.0023147 -1.0394e-17)
(0.99895 0.030159 7.2372e-19)
(0.99955 0.00028422 2.6715e-19)
(0.9997 -0.0006533 -5.9095e-18)
(0.9998 -0.00061095 6.1726e-18)
(1.0005 -0.0015576 2.8945e-17)
(1.0003 -0.00093655 -2.1485e-17)
(1.0025 -0.0019138 1.7586e-17)
(0.99928 -0.00062621 -6.269e-18)
(1.0081 0.00077902 5.5123e-18)
(0.99481 -0.0026845 3.9241e-17)
(1.0119 0.015383 -1.4648e-17)
(1.0026 -0.0021454 1.5893e-17)
(0.99944 0.029566 2.0484e-18)
(0.99953 0.00028851 4.7949e-19)
(0.99969 -0.00067144 -1.2229e-18)
(0.99978 -0.00063073 -8.8806e-18)
(1.0005 -0.0016061 -4.3577e-18)
(1.0003 -0.00098105 1.8724e-17)
(1.0026 -0.0019845 1.3974e-19)
(0.99931 -0.00072453 -1.2322e-17)
(1.0082 0.00077239 -1.3159e-17)
(0.99505 -0.0027784 -1.6427e-17)
(1.0118 0.015282 -1.3831e-18)
(1.0031 -0.0019829 2.9151e-18)
(0.99992 0.028984 2.1588e-19)
(0.99951 0.00029257 -7.7164e-19)
(0.99967 -0.00069001 1.4554e-17)
(0.99977 -0.00065168 -5.9229e-18)
(1.0005 -0.0016559 -2.4625e-17)
(1.0002 -0.0010287 8.6313e-18)
(1.0027 -0.0020561 -4.4806e-17)
(0.99934 -0.00082593 6.1468e-18)
(1.0083 0.00076621 8.286e-18)
(0.99529 -0.0028695 7.6305e-19)
(1.0118 0.015177 1.4878e-17)
(1.0036 -0.0018271 -9.6838e-19)
(1.0004 0.028413 -5.7267e-18)
(0.99949 0.00029639 -2.0373e-19)
(0.99966 -0.00070903 -2.8566e-19)
(0.99975 -0.00067388 7.973e-18)
(1.0005 -0.0017071 1.5203e-17)
(1.0002 -0.0010796 -3.4297e-17)
(1.0028 -0.0021284 1.9356e-18)
(0.99938 -0.0009299 1.1009e-17)
(1.0084 0.00076048 1.2977e-17)
(0.99554 -0.0029578 -1.0389e-17)
(1.0118 0.015068 -1.4486e-17)
(1.004 -0.0016777 -1.5781e-17)
(1.0008 0.027852 6.0501e-18)
(0.99947 0.00029995 -1.333e-18)
(0.99964 -0.00072854 4.0667e-19)
(0.99974 -0.00069738 -3.8443e-18)
(1.0006 -0.0017596 -1.015e-17)
(1.0002 -0.0011337 1.9011e-17)
(1.0029 -0.0022012 2.405e-17)
(0.99941 -0.0010359 3.2108e-18)
(1.0086 0.00075519 6.5756e-18)
(0.99578 -0.0030434 1.6569e-17)
(1.0118 0.014954 2.4379e-18)
(1.0044 -0.0015348 1.1673e-17)
(1.0013 0.027303 -3.6729e-18)
(0.99944 0.00030322 2.4534e-18)
(0.99962 -0.00074857 7.4979e-19)
(0.99972 -0.00072226 -5.4936e-18)
(1.0006 -0.0018135 1.4995e-18)
(1.0002 -0.0011908 -1.0308e-17)
(1.003 -0.0022745 -5.7688e-18)
(0.99945 -0.0011435 -1.1868e-18)
(1.0087 0.0007503 -2.9692e-17)
(0.99602 -0.0031264 3.2523e-18)
(1.0117 0.014837 -4.944e-18)
(1.0049 -0.001398 -4.7473e-18)
(1.0017 0.026763 -4.4299e-18)
(0.99942 0.0003062 -5.0068e-18)
(0.99961 -0.00076915 9.7956e-19)
(0.9997 -0.00074856 2.9139e-18)
(1.0006 -0.0018688 -1.8841e-17)
(1.0002 -0.001251 -1.175e-17)
(1.003 -0.0023479 -2.6781e-17)
(0.9995 -0.0012522 5.7269e-18)
(1.0088 0.00074574 1.2125e-17)
(0.99626 -0.0032071 -3.4878e-17)
(1.0117 0.014715 2.2797e-17)
(1.0053 -0.0012675 -5.1378e-18)
(1.0021 0.026234 2.8562e-18)
(0.9994 0.00030888 4.5959e-18)
(0.99959 -0.0007903 2.1922e-18)
(0.99969 -0.00077634 1.1206e-18)
(1.0006 -0.0019254 5.976e-18)
(1.0002 -0.0013142 -2.5949e-18)
(1.0031 -0.0024212 5.1907e-17)
(0.99954 -0.0013616 2.0561e-17)
(1.0089 0.00074142 -1.8856e-17)
(0.9965 -0.0032855 3.3569e-17)
(1.0117 0.014589 -8.5054e-18)
(1.0057 -0.0011429 -3.3909e-18)
(1.0026 0.025714 -1.4264e-18)
(0.99938 0.00031122 1.1272e-18)
(0.99957 -0.00081205 -1.3882e-17)
(0.99967 -0.00080563 2.2426e-18)
(1.0006 -0.0019833 2.6835e-17)
(1.0002 -0.00138 2.0084e-17)
(1.0032 -0.0024944 -8.3835e-19)
(0.99958 -0.0014713 -2.8486e-17)
(1.0089 0.00073723 5.7104e-18)
(0.99673 -0.0033619 -7.5704e-18)
(1.0117 0.01446 -1.1773e-17)
(1.0061 -0.0010243 8.625e-18)
(1.003 0.025204 1.3288e-18)
(0.99935 0.00031323 -4.4586e-18)
(0.99955 -0.00083442 -4.6277e-18)
(0.99965 -0.00083643 -1.2148e-17)
(1.0006 -0.0020425 -2.2505e-17)
(1.0002 -0.0014484 -2.0209e-17)
(1.0033 -0.0025671 -2.3588e-17)
(0.99963 -0.0015809 5.2601e-18)
(1.009 0.00073305 4.4385e-17)
(0.99697 -0.0034363 3.2995e-18)
(1.0117 0.014326 -1.0289e-18)
(1.0065 -0.00091144 -3.0462e-18)
(1.0034 0.024703 -3.5744e-18)
(0.99933 0.0003149 3.3084e-18)
(0.99953 -0.00085742 4.2991e-18)
(0.99963 -0.00086877 1.872e-17)
(1.0006 -0.0021029 1.5586e-17)
(1.0002 -0.0015192 1.966e-17)
(1.0034 -0.0026393 -8.7679e-19)
(0.99967 -0.0016902 -2.9308e-17)
(1.0091 0.00072873 -2.3991e-17)
(0.9972 -0.0035091 8.1885e-18)
(1.0117 0.014189 4.0751e-18)
(1.0068 -0.00080429 6.8727e-18)
(1.0037 0.024212 2.7615e-18)
(0.9993 0.0003162 -2.3364e-18)
(0.99951 -0.00088107 6.7437e-18)
(0.99961 -0.00090262 -1.2386e-17)
(1.0006 -0.0021644 2.2557e-18)
(1.0002 -0.001592 9.1403e-18)
(1.0034 -0.0027105 -2.3058e-18)
(0.99972 -0.001799 6.5803e-18)
(1.0092 0.00072412 6.6613e-18)
(0.99744 -0.0035803 2.6953e-18)
(1.0117 0.014047 1.0076e-17)
(1.0072 -0.00070275 -8.2666e-18)
(1.0041 0.023729 5.575e-19)
(0.99927 0.00031714 3.5274e-18)
(0.99949 -0.00090537 4.1793e-19)
(0.99959 -0.00093796 -5.7973e-18)
(1.0007 -0.0022269 8.9773e-19)
(1.0002 -0.0016667 -1.5023e-18)
(1.0035 -0.0027809 -2.2778e-17)
(0.99976 -0.001907 1.8373e-17)
(1.0093 0.00071905 2.364e-17)
(0.99767 -0.0036501 -1.3417e-17)
(1.0117 0.013902 -1.4021e-17)
(1.0076 -0.00060671 -2.4187e-18)
(1.0045 0.023255 4.7533e-18)
(0.99924 0.00031772 -2.5624e-18)
(0.99947 -0.00093032 -3.2188e-19)
(0.99957 -0.00097476 7.2081e-18)
(1.0007 -0.0022904 -1.7246e-17)
(1.0002 -0.0017429 -1.3578e-17)
(1.0036 -0.0028501 2.8756e-17)
(0.99981 -0.0020142 -2.8096e-18)
(1.0093 0.00071334 -2.5031e-17)
(0.9979 -0.0037186 3.4183e-18)
(1.0117 0.013753 1.3202e-17)
(1.0079 -0.00051608 8.1974e-18)
(1.0049 0.02279 -1.7141e-18)
(0.99922 0.00031792 2.5462e-19)
(0.99945 -0.0009559 2.3575e-18)
(0.99955 -0.0010129 3.9384e-18)
(1.0007 -0.0023546 8.9156e-18)
(1.0002 -0.0018205 2.6612e-17)
(1.0036 -0.002918 6.7044e-18)
(0.99985 -0.0021203 -2.4465e-17)
(1.0094 0.00070681 2.3452e-18)
(0.99814 -0.0037861 8.8059e-18)
(1.0117 0.013601 -1.1896e-17)
(1.0083 -0.00043078 -5.5443e-18)
(1.0052 0.022333 -1.9836e-18)
(0.99919 0.00031775 7.2293e-19)
(0.99943 -0.00098211 -4.1014e-19)
(0.99953 -0.0010524 -1.0391e-17)
(1.0007 -0.0024195 -1.9172e-19)
(1.0002 -0.0018991 -5.2614e-17)
(1.0037 -0.0029845 8.266e-18)
(0.99989 -0.0022255 2.4032e-17)
(1.0095 0.0006993 -6.7385e-18)
(0.99837 -0.0038527 -9.2212e-18)
(1.0117 0.013445 1.9757e-17)
(1.0086 -0.00035071 6.6376e-18)
(1.0056 0.021884 5.1423e-18)
(0.99916 0.00031722 7.7654e-19)
(0.9994 -0.0010089 -8.5097e-19)
(0.9995 -0.0010932 1.8792e-17)
(1.0007 -0.0024848 4.1119e-18)
(1.0002 -0.0019785 4.6623e-17)
(1.0038 -0.0030497 -2.9133e-17)
(0.99993 -0.0023296 -8.0476e-18)
(1.0095 0.0006906 6.3417e-18)
(0.9986 -0.0039185 3.1777e-18)
(1.0117 0.013285 -1.1116e-17)
(1.0089 -0.0002758 -1.0734e-18)
(1.0059 0.021443 -3.7921e-18)
(0.99912 0.00031633 -3.0348e-18)
(0.99938 -0.0010363 1.4286e-18)
(0.99948 -0.001135 -1.1045e-17)
(1.0007 -0.0025505 5.4065e-18)
(1.0002 -0.0020584 -1.7715e-17)
(1.0038 -0.0031133 3.9508e-18)
(0.99998 -0.0024327 3.2222e-17)
(1.0096 0.00068056 -2.3734e-17)
(0.99883 -0.0039836 -1.1679e-17)
(1.0117 0.013122 -1.0999e-17)
(1.0093 -0.00020596 -5.2811e-18)
(1.0063 0.02101 -1.0415e-18)
(0.99909 0.00031509 3.7801e-18)
(0.99936 -0.0010642 -3.393e-18)
(0.99946 -0.0011779 -1.0718e-17)
(1.0007 -0.0026164 -8.6214e-18)
(1.0002 -0.0021386 -2.8962e-17)
(1.0039 -0.0031754 -1.8324e-17)
(1 -0.0025348 -1.9757e-17)
(1.0096 0.00066899 2.2068e-17)
(0.99906 -0.0040483 1.1323e-17)
(1.0117 0.012956 1.6657e-17)
(1.0096 -0.00014112 -2.0694e-18)
(1.0066 0.020584 5.0284e-18)
(0.99906 0.00031352 -6.0753e-18)
(0.99933 -0.0010926 5.4974e-18)
(0.99943 -0.0012217 2.6244e-17)
(1.0007 -0.0026823 -2.0335e-18)
(1.0002 -0.002219 3.2043e-17)
(1.0039 -0.0032361 1.382e-18)
(1.0001 -0.0026361 -1.8923e-17)
(1.0097 0.00065574 8.6355e-18)
(0.99929 -0.0041125 -4.0834e-18)
(1.0117 0.012786 -3.4878e-18)
(1.0099 -8.1194e-05 6.7127e-18)
(1.007 0.020166 -3.4004e-18)
(0.99902 0.00031162 4.9785e-18)
(0.9993 -0.0011214 -7.4711e-18)
(0.9994 -0.0012663 -3.0597e-17)
(1.0007 -0.0027481 1.3302e-17)
(1.0002 -0.0022992 -2.2828e-17)
(1.004 -0.0032952 2.5329e-17)
(1.0001 -0.0027365 6.1678e-18)
(1.0097 0.00064063 -8.2212e-18)
(0.99951 -0.0041763 -1.9599e-18)
(1.0117 0.012613 -8.7372e-18)
(1.0102 -2.6121e-05 -1.0949e-17)
(1.0073 0.019754 4.7018e-18)
(0.99899 0.00030942 -3.667e-18)
(0.99927 -0.0011506 2.4842e-18)
(0.99938 -0.0013116 1.8591e-17)
(1.0007 -0.0028137 -1.7535e-17)
(1.0002 -0.0023792 3.6729e-17)
(1.0041 -0.003353 -1.9659e-17)
(1.0001 -0.0028363 3.5955e-18)
(1.0098 0.00062351 -1.2991e-17)
(0.99974 -0.0042401 6.398e-18)
(1.0117 0.012437 -1.2231e-18)
(1.0105 2.4175e-05 4.6855e-18)
(1.0076 0.01935 -2.0905e-18)
(0.99895 0.00030694 4.4975e-18)
(0.99924 -0.0011801 1.934e-18)
(0.99935 -0.0013574 -1.2394e-17)
(1.0007 -0.0028789 -3.5635e-19)
(1.0002 -0.0024589 -1.6222e-18)
(1.0041 -0.0034094 4.7545e-18)
(1.0002 -0.0029355 3.4141e-17)
(1.0098 0.00060425 8.8864e-18)
(0.99997 -0.0043037 -1.8964e-17)
(1.0117 0.012258 -6.3387e-18)
(1.0108 6.9761e-05 -4.4128e-18)
(1.0079 0.018953 2.1977e-18)
(0.99892 0.00030419 -5.1549e-18)
(0.99921 -0.0012098 -7.1667e-18)
(0.99932 -0.0014036 5.1999e-18)