/*--------------------------------*- C++ -*----------------------------------*\
  =========                 |
  \\      /  F ield         | OpenFOAM: The Open Source CFD Toolbox
   \\    /   O peration     | Website:  https://openfoam.org
    \\  /    A nd           | Version:  6.0
     \\/     M anipulation  |
\*---------------------------------------------------------------------------*/
FoamFile
{
    version     2.0;
    format      ascii;
    class       surfaceScalarField;
    location    "5";
    object      phi;
}
// * * * * * * * * * * * * * * * * * * * * * * * * * * * * * * * * * * * * * //

dimensions      [0 3 -1 0 0 0 0];

internalField   nonuniform List<scalar> 
9714
(
-0.000105368
8.23637e-05
0.000111595
-9.68968e-05
0.0001145
-8.52117e-05
0.00015918
-6.8958e-05
0.000221305
-4.62776e-05
0.000307619
-1.44822e-05
0.000427473
3.02457e-05
0.000593654
9.31102e-05
0.000823493
0.000181072
0.00113925
0.000303285
0.00156652
0.000470497
0.00212575
0.000692871
0.00280394
0.000971538
0.00347474
0.00127097
0.00370759
0.00235551
0.00144428
-0.000100089
7.67759e-05
0.000105827
-9.2239e-05
0.00010674
-8.1402e-05
0.000148388
-6.63248e-05
0.00020628
-4.52871e-05
0.000286619
-1.58099e-05
0.000398029
2.56281e-05
0.000552247
8.38517e-05
0.000765299
0.000165391
0.00105777
0.000278737
0.00145322
0.000434023
0.00197059
0.000640802
0.00259743
0.000899798
0.00321631
0.00117625
0.00343236
0.00220075
0.00133436
-9.55751e-05
7.15891e-05
0.000100965
-8.82808e-05
9.95345e-05
-7.82016e-05
0.000138366
-6.41939e-05
0.000192323
-4.46425e-05
0.000267107
-1.72481e-05
0.000370667
2.12603e-05
0.000513766
7.53756e-05
0.000711216
0.000151156
0.000982011
0.000256562
0.00134789
0.000400993
0.00182623
0.000593288
0.00240524
0.000833716
0.00297611
0.00109054
0.00317591
0.00204972
0.00124044
-9.11105e-05
6.67536e-05
9.60256e-05
-8.43331e-05
9.28122e-05
-7.49633e-05
0.000129016
-6.19125e-05
0.000179308
-4.37041e-05
0.000248925
-1.81988e-05
0.000345191
1.76285e-05
0.000477963
6.79457e-05
0.000660919
0.000138423
0.00091158
0.000236398
0.00124992
0.000370657
0.00169206
0.000549293
0.00222677
0.000772311
0.00275342
0.00101101
0.00293783
0.00190942
0.00115313
-8.62706e-05
6.22859e-05
9.09468e-05
-7.99719e-05
8.65962e-05
-7.1262e-05
0.000120362
-5.91565e-05
0.00016725
-4.22593e-05
0.000232063
-1.85844e-05
0.000321546
1.46859e-05
0.000444718
6.14222e-05
0.000614208
0.000126849
0.000846153
0.00021785
0.00115899
0.000342484
0.00156744
0.000508247
0.00206101
0.000715025
0.00254669
0.000936695
0.00271612
0.0017741
0.00107049
-8.14098e-05
5.8132e-05
8.55942e-05
-7.55947e-05
8.08129e-05
-6.75244e-05
0.00011231
-5.62832e-05
0.000156035
-4.05863e-05
0.000216392
-1.85992e-05
0.000299585
1.22799e-05
0.000413857
5.56315e-05
0.000570866
0.000116345
0.000785484
0.00020072
0.0010746
0.000316309
0.00145193
0.000469997
0.00190745
0.000661638
0.00235527
0.000867278
0.00251089
0.00164999
0.000992482
-7.62981e-05
5.43166e-05
8.03459e-05
-7.09048e-05
7.54986e-05
-6.3438e-05
0.000104902
-5.30641e-05
0.0001457
-3.85664e-05
0.000201927
-1.82383e-05
0.000279281
1.03456e-05
0.000385292
5.05107e-05
0.000530722
0.000106738
0.00072925
0.000184951
0.000996467
0.000292039
0.00134483
0.000434423
0.00176501
0.000611983
0.00217763
0.000802627
0.00232001
0.00153143
0.000919423
-7.16037e-05
5.07644e-05
7.51642e-05
-6.66416e-05
7.05498e-05
-5.97253e-05
9.80074e-05
-5.00994e-05
0.000136092
-3.6639e-05
0.000188496
-1.7784e-05
0.000260451
8.70099e-06
0.000358821
4.58914e-05
0.000493537
9.79852e-05
0.000677201
0.000170372
0.000924045
0.000269541
0.00124573
0.000401389
0.00163326
0.000565867
0.00201337
0.000742537
0.00214369
0.00142353
0.000851261
-6.68311e-05
4.7511e-05
7.03598e-05
-6.22046e-05
6.60173e-05
-5.58201e-05
9.16852e-05
-4.6949e-05
0.000127265
-3.45481e-05
0.000176127
-1.71491e-05
0.000243075
7.33119e-06
0.000334355
4.17435e-05
0.00045914
8.992e-05
0.000629005
0.000156955
0.000857094
0.000248723
0.00115391
0.000370769
0.0015111
0.000523112
0.00186091
0.000686828
0.00197956
0.00132044
0.000788003
-6.26807e-05
4.44706e-05
6.57156e-05
-5.84343e-05
6.17808e-05
-5.25063e-05
8.57825e-05
-4.42652e-05
0.000119038
-3.27371e-05
0.000164626
-1.65922e-05
0.000226949
6.08419e-06
0.000311681
3.79294e-05
0.00042729
8.2546e-05
0.000584433
0.000144532
0.000795056
0.000229458
0.00106904
0.00034242
0.00139825
0.000483517
0.00172006
0.000635247
0.00182826
0.00122692
0.000729427
-5.8458e-05
4.16926e-05
6.15302e-05
-5.44955e-05
5.79099e-05
-4.90338e-05
8.03807e-05
-4.14556e-05
0.00011149
-3.085e-05
0.000154042
-1.59607e-05
0.000212071
4.99939e-06
0.000290726
3.44662e-05
0.000397829
7.57124e-05
0.000543161
0.000133105
0.000737748
0.000211663
0.000990412
0.000316207
0.00129357
0.000446905
0.00158915
0.000587563
0.00168704
0.00113732
0.000675309
-5.49261e-05
3.90867e-05
5.74761e-05
-5.13126e-05
5.42777e-05
-4.62388e-05
7.5319e-05
-3.91889e-05
0.000104434
-2.93076e-05
0.000144177
-1.54643e-05
0.000198243
3.96837e-06
0.000271286
3.12473e-05
0.000370536
6.94573e-05
0.000504989
0.000122514
0.000684616
0.000195218
0.000917772
0.00029198
0.00119692
0.000413072
0.00146837
0.000543508
0.00155713
0.00105623
0.000625309
-5.12896e-05
3.67107e-05
5.38717e-05
-4.79243e-05
5.09648e-05
-4.32535e-05
7.06917e-05
-3.67725e-05
9.79631e-05
-2.76754e-05
0.000135098
-1.4901e-05
0.000185477
3.06741e-06
0.000253309
2.83164e-05
0.000345275
6.36385e-05
0.000469609
0.000112792
0.00063554
0.000180045
0.000850405
0.00026962
0.00110718
0.000381847
0.00135593
0.000502844
0.00143553
0.000978126
0.000579177
-4.82996e-05
3.44719e-05
5.03896e-05
-4.52358e-05
4.78418e-05
-4.08709e-05
6.63388e-05
-3.4826e-05
9.18965e-05
-2.63345e-05
0.000126621
-1.44537e-05
0.0001736
2.20212e-06
0.000236618
2.55707e-05
0.000321844
5.83296e-05
0.000436898
0.000103785
0.000590045
0.000166041
0.000788221
0.000248987
0.00102439
0.000353035
0.00125226
0.000465318
0.00132386
0.000907723
0.000536592
-4.51019e-05
3.24407e-05
4.73761e-05
-4.22057e-05
4.5008e-05
-3.81876e-05
6.23772e-05
-3.26612e-05
8.63503e-05
-2.487e-05
0.000118833
-1.39392e-05
0.000162645
1.43073e-06
0.000221178
2.31172e-05
0.000300202
5.34146e-05
0.000406612
9.55267e-05
0.000548025
0.000153137
0.000730524
0.000229964
0.000947399
0.000326478
0.00115546
0.00043071
0.00121881
0.000839935
0.000497313
-4.25021e-05
3.052e-05
4.43457e-05
-3.98723e-05
4.23295e-05
-3.61068e-05
5.86459e-05
-3.09417e-05
8.11508e-05
-2.36785e-05
0.000111568
-1.35505e-05
0.000152464
7.90346e-07
0.000206903
2.0837e-05
0.000280146
4.89214e-05
0.000378607
8.78791e-05
0.000509105
0.000141228
0.000677255
0.000212426
0.000876373
0.000302
0.00106629
0.000398806
0.00112262
0.000778783
0.000461038
-3.96698e-05
2.87816e-05
4.17029e-05
-3.71909e-05
3.99053e-05
-3.37692e-05
5.52578e-05
-2.90383e-05
7.64091e-05
-2.24135e-05
0.00010491
-1.29915e-05
0.000143107
1.67979e-07
0.000193681
1.87825e-05
0.000261617
4.47766e-05
0.000352676
8.08541e-05
0.000473049
0.000130261
0.000627725
0.000196278
0.00081015
0.000279464
0.00098274
0.000369405
0.00103188
0.00072003
0.00042756
-3.75065e-05
2.71321e-05
3.9085e-05
-3.52596e-05
3.76052e-05
-3.20338e-05
5.20536e-05
-2.76145e-05
7.1943e-05
-2.13789e-05
9.867e-05
-1.27055e-05
0.000134354
-3.57932e-07
0.00018143
1.68653e-05
0.00024439
4.0946e-05
0.000328609
7.43562e-05
0.000439638
0.000120151
0.00058199
0.000181412
0.000749092
0.000258727
0.000905857
0.000342318
0.000948904
0.000666866
0.000396618
-3.5171e-05
2.56393e-05
3.68604e-05
-3.30743e-05
3.55208e-05
-3.01202e-05
4.91374e-05
-2.60536e-05
6.78597e-05
-2.03398e-05
9.29354e-05
-1.22078e-05
0.000126302
-8.86549e-07
0.000170041
1.51174e-05
0.000228452
3.74364e-05
0.000306323
6.84001e-05
0.000408644
0.000110858
0.000539363
0.000167747
0.000691919
0.000239661
0.000833482
0.000317359
0.000870353
0.000616226
0.000368067
-3.33152e-05
2.42177e-05
3.46044e-05
-3.14109e-05
3.35359e-05
-2.86072e-05
4.6373e-05
-2.48039e-05
6.4008e-05
-1.9419e-05
8.75592e-05
-1.19453e-05
0.000118766
-1.30271e-06
0.000159504
1.3504e-05
0.000213627
3.41934e-05
0.000285624
6.28969e-05
0.000379919
0.0001023
0.000500014
0.000155194
0.000639268
0.000222146
0.000767001
0.000294371
0.00079868
0.000569988
0.00034165
-3.12109e-05
2.29388e-05
3.2695e-05
-2.94029e-05
3.17489e-05
-2.68719e-05
4.38711e-05
-2.33841e-05
6.05019e-05
-1.84771e-05
8.26312e-05
-1.14787e-05
0.000111843
-1.74065e-06
0.0001497
1.20368e-05
0.000199919
3.12325e-05
0.000266448
5.7865e-05
0.000353225
9.44515e-05
0.000463218
0.000143684
0.00058974
0.000206066
0.000704091
0.000273194
0.000730777
0.000526394
0.000317264
-2.96039e-05
2.17193e-05
3.07303e-05
-2.79611e-05
3.00469e-05
-2.55566e-05
4.15002e-05
-2.22912e-05
5.7196e-05
-1.76725e-05
7.80108e-05
-1.12408e-05
0.000105359
-2.069e-06
0.000140637
1.06816e-05
0.000187146
2.84969e-05
0.000248613
5.32228e-05
0.000328483
8.72468e-05
0.000429285
0.000133142
0.00054419
0.000191325
0.000646459
0.000253684
0.000668962
0.00048617
0.000294683
-2.78354e-05
2.06173e-05
2.90604e-05
-2.62993e-05
2.85052e-05
-2.41107e-05
3.93401e-05
-2.11059e-05
5.41681e-05
-1.68704e-05
7.37562e-05
-1.08282e-05
9.93838e-05
-2.42472e-06
0.00013218
9.46289e-06
0.00017533
2.60191e-05
0.000232072
4.89979e-05
0.000305426
8.06666e-05
0.000397409
0.000123508
0.000500981
0.000177811
0.000591584
0.000235704
0.000610442
0.000448647
0.000273837
-2.64284e-05
1.95659e-05
2.73653e-05
-2.50259e-05
2.70358e-05
-2.29407e-05
3.72937e-05
-2.01248e-05
5.13141e-05
-1.61397e-05
6.97677e-05
-1.05797e-05
9.37874e-05
-2.65784e-06
0.00012436
8.34695e-06
0.000164289
2.37371e-05
0.000216665
4.5118e-05
0.000284054
7.46458e-05
0.000368015
0.000114729
0.000461374
0.000165448
0.000541488
0.000219115
0.000557327
0.00041369
0.000254526
-2.48719e-05
1.86172e-05
2.59401e-05
-2.35369e-05
2.57066e-05
-2.1653e-05
3.54297e-05
-1.90609e-05
4.86996e-05
-1.54014e-05
6.6094e-05
-1.01843e-05
8.86252e-05
-2.92741e-06
0.000117045
7.36285e-06
0.00015408
2.16908e-05
0.000202351
4.16073e-05
0.000264053
6.9181e-05
0.000340206
0.00010674
0.000423462
0.000154128
0.000493494
0.00020381
0.000507145
0.00038152
0.000236694
-2.36252e-05
1.77096e-05
2.44721e-05
-2.23876e-05
2.44402e-05
-2.05897e-05
3.36686e-05
-1.81505e-05
4.62455e-05
-1.47193e-05
6.26608e-05
-9.92192e-06
8.37983e-05
-3.06668e-06
0.000110292
6.46462e-06
0.000144511
1.98155e-05
0.000188992
3.84007e-05
0.000245502
6.42237e-05
0.000314613
9.95086e-05
0.000388811
0.000143782
0.000449922
0.000189657
0.000461874
0.000351299
0.000220166
-2.2235e-05
1.69068e-05
2.32276e-05
-2.10775e-05
2.33146e-05
-1.94469e-05
3.20841e-05
-1.7216e-05
4.40105e-05
-1.4061e-05
5.9502e-05
-9.54929e-06
7.93392e-05
-3.25223e-06
0.000103952
5.69231e-06
0.000135654
1.81569e-05
0.000176535
3.55333e-05
0.000228026
5.97663e-05
0.000290101
9.29615e-05
0.000355201
0.000134312
0.000407961
0.000176578
0.0004192
0.000323704
0.00020488
-2.12645e-05
1.61097e-05
2.1864e-05
-2.02167e-05
2.21989e-05
-1.86448e-05
3.0535e-05
-1.65047e-05
4.18567e-05
-1.34979e-05
5.64987e-05
-9.29836e-06
7.51271e-05
-3.3191e-06
9.80633e-05
4.99149e-06
0.000127289
1.66521e-05
0.000164862
3.2941e-05
0.000211781
5.57785e-05
0.000267587
8.70882e-05
0.000324661
0.000125648
0.000370115
0.000164443
0.000381072
0.000297699
0.000190688
-2.00195e-05
1.54066e-05
2.0801e-05
-1.90043e-05
2.12093e-05
-1.75934e-05
2.91424e-05
-1.56312e-05
3.98961e-05
-1.28623e-05
5.37338e-05
-8.92014e-06
7.12229e-05
-3.41462e-06
9.2504e-05
4.42098e-06
0.000119526
1.53524e-05
0.0001539
3.067e-05
0.000196323
5.22454e-05
0.00024572
8.17965e-05
0.000294639
0.000117706
0.000333565
0.000153203
0.000345283
0.000274238
0.000177534
-1.90406e-05
1.47281e-05
1.96465e-05
-1.80956e-05
2.02592e-05
-1.67454e-05
2.7819e-05
-1.48915e-05
3.80441e-05
-1.2287e-05
5.11287e-05
-8.62561e-06
6.75403e-05
-3.38868e-06
8.73287e-05
3.91409e-06
0.000112135
1.42013e-05
0.00014358
2.86715e-05
0.000181937
4.91555e-05
0.000225694
7.70939e-05
0.000267606
0.000110409
0.000300949
0.000142737
0.000313744
0.000252121
0.000165311
-1.79757e-05
1.41128e-05
1.865e-05
-1.70773e-05
1.9392e-05
-1.58511e-05
2.65987e-05
-1.41368e-05
3.63237e-05
-1.17087e-05
4.86974e-05
-8.2473e-06
6.4093e-05
-3.38784e-06
8.24062e-05
3.54138e-06
0.000105248
1.32605e-05
0.000133797
2.69903e-05
0.000168038
4.64766e-05
0.000205813
7.28649e-05
0.000240718
0.000103692
0.000269502
0.000133016
0.000284118
0.000231789
0.000153952
-1.71047e-05
1.35212e-05
1.76342e-05
-1.62702e-05
1.85603e-05
-1.51011e-05
2.54357e-05
-1.34668e-05
3.46905e-05
-1.11692e-05
4.63917e-05
-7.91871e-06
6.08232e-05
-3.27638e-06
7.77926e-05
3.23207e-06
9.86077e-05
1.24757e-05
0.000124518
2.55828e-05
0.000155035
4.42297e-05
0.000187774
6.91358e-05
0.000216802
9.74665e-05
0.000241778
0.000123931
0.000258575
0.000213141
0.000143393
-1.61794e-05
1.29818e-05
1.67409e-05
-1.53859e-05
1.77972e-05
-1.43024e-05
2.43579e-05
-1.2779e-05
3.31664e-05
-1.06164e-05
4.42277e-05
-7.53042e-06
5.77395e-05
-3.18638e-06
7.33644e-05
3.07786e-06
9.2419e-05
1.19108e-05
0.000115581
2.45037e-05
0.000142269
4.23379e-05
0.000169546
6.57607e-05
0.000192884
9.16917e-05
0.000215259
0.000115462
0.0002346
0.000195745
0.000133551
-1.53596e-05
1.24651e-05
1.58294e-05
-1.46215e-05
1.70673e-05
-1.35867e-05
2.33338e-05
-1.21432e-05
3.1717e-05
-1.0089e-05
4.2169e-05
-7.16989e-06
5.48052e-05
-2.95351e-06
6.92152e-05
2.98496e-06
8.63372e-05
1.15353e-05
0.00010706
2.37201e-05
0.000130277
4.08495e-05
0.000153229
6.27846e-05
0.000172013
8.62701e-05
0.0001923
0.000107525
0.00021452
0.000180366
0.000124407
-1.45391e-05
1.19834e-05
1.50095e-05
-1.38318e-05
1.63826e-05
-1.28719e-05
2.23658e-05
-1.15069e-05
3.03448e-05
-9.53891e-06
4.02221e-05
-6.72841e-06
5.20075e-05
-2.73744e-06
6.5158e-05
3.08544e-06
8.06366e-05
1.13996e-05
9.8651e-05
2.32659e-05
0.000118207
3.96305e-05
0.000136403
6.00339e-05
0.000151156
8.119e-05
0.00017053
0.000100094
0.000195208
0.00016479
0.000115852
-1.38098e-05
1.15191e-05
1.42188e-05
-1.31373e-05
1.57229e-05
-1.22145e-05
2.14349e-05
-1.08768e-05
2.90259e-05
-9.01198e-06
3.83231e-05
-6.29811e-06
4.92886e-05
-2.36212e-06
6.12673e-05
3.24782e-06
7.48513e-05
1.14692e-05
9.04859e-05
2.31193e-05
0.00010681
3.8771e-05
0.000121733
5.7581e-05
0.000133395
7.63517e-05
0.000152169
9.31199e-05
0.000179903
0.000152335
0.000107915
-1.30755e-05
1.10865e-05
1.35058e-05
-1.24312e-05
1.51004e-05
-1.15373e-05
2.05442e-05
-1.02956e-05
2.77397e-05
-8.44803e-06
3.64852e-05
-5.80289e-06
4.66083e-05
-1.99957e-06
5.73554e-05
3.61145e-06
6.93389e-05
1.17938e-05
8.2193e-05
2.32757e-05
9.51423e-05
3.80591e-05
0.000106426
5.52281e-05
0.000115826
7.17641e-05
0.000135048
8.6553e-05
0.000164664
0.0001385
0.000100452
-1.24353e-05
1.06651e-05
1.28124e-05
-1.18207e-05
1.44913e-05
-1.09569e-05
1.96715e-05
-9.69926e-06
2.64837e-05
-7.9185e-06
3.46516e-05
-5.30509e-06
4.39559e-05
-1.47885e-06
5.35194e-05
4.05551e-06
6.36105e-05
1.23542e-05
7.40436e-05
2.37278e-05
8.41249e-05
3.76405e-05
9.36892e-05
5.30885e-05
0.000101429
6.73375e-05
0.000121195
8.03894e-05
0.000153533
0.000128883
9.35398e-05
-1.17995e-05
1.02651e-05
1.21827e-05
-1.12041e-05
1.39063e-05
-1.03603e-05
1.8823e-05
-9.1469e-06
2.52443e-05
-7.35249e-06
3.28489e-05
-4.7507e-06
4.12833e-05
-9.30059e-07
4.95965e-05
4.72734e-06
5.80495e-05
1.31774e-05
6.54417e-05
2.44076e-05
7.2625e-05
3.72198e-05
8.01813e-05
5.09415e-05
8.73118e-05
6.30957e-05
0.00010824
7.4543e-05
0.000141186
0.000115997
8.69991e-05
-1.12099e-05
9.87385e-06
1.15797e-05
-1.06316e-05
1.33318e-05
-9.79841e-06
1.79879e-05
-8.57578e-06
2.40166e-05
-6.80943e-06
3.10189e-05
-4.14918e-06
3.8592e-05
-2.11394e-07
4.56181e-05
5.50981e-06
5.20637e-05
1.42564e-05
5.69589e-05
2.53553e-05
6.19455e-05
3.70297e-05
6.97998e-05
4.8955e-05
7.64089e-05
5.89694e-05
9.86154e-05
6.90699e-05
0.000133483
0.000108947
8.09438e-05
-1.06359e-05
9.5004e-06
1.1031e-05
-1.00644e-05
1.27763e-05
-9.24626e-06
1.7166e-05
-8.04426e-06
2.27844e-05
-6.21524e-06
2.91774e-05
-3.48784e-06
3.57966e-05
5.76413e-07
4.14226e-05
6.57959e-06
4.61867e-05
1.55844e-05
4.77354e-05
2.64112e-05
5.07096e-05
3.66938e-05
5.85886e-05
4.68895e-05
6.57563e-05
5.49817e-05
8.95291e-05
6.38235e-05
0.00012335
9.68544e-05
7.51556e-05
-1.01295e-05
9.12975e-06
1.05016e-05
-9.57015e-06
1.22197e-05
-8.74634e-06
1.63366e-05
-7.50895e-06
2.1527e-05
-5.63138e-06
2.72594e-05
-2.76156e-06
3.28802e-05
1.58709e-06
3.69882e-05
7.81481e-06
3.96311e-05
1.71692e-05
3.87952e-05
2.77122e-05
4.06885e-05
3.65702e-05
5.10564e-05
4.49809e-05
5.83208e-05
5.11038e-05
8.38142e-05
5.89048e-05
0.00011845
9.21343e-05
6.97779e-05
-9.6553e-06
8.76448e-06
1.00128e-05
-9.09055e-06
1.16634e-05
-8.2702e-06
1.54912e-05
-6.99161e-06
2.02307e-05
-5.01548e-06
2.52443e-05
-1.95727e-06
2.97025e-05
2.7427e-06
3.21788e-05
9.4254e-06
3.30699e-05
1.89628e-05
2.89155e-05
2.89635e-05
3.00835e-05
3.61896e-05
4.25988e-05
4.29652e-05
5.10952e-05
4.7345e-05
7.80596e-05
5.41149e-05
0.000109823
8.06277e-05
6.45688e-05
-9.20592e-06
8.40152e-06
9.55079e-06
-8.65867e-06
1.11004e-05
-7.80951e-06
1.46277e-05
-6.50158e-06
1.88611e-05
-4.41453e-06
2.30871e-05
-1.01932e-06
2.6297e-05
4.17493e-06
2.68191e-05
1.13172e-05
2.5423e-05
2.09987e-05
1.96931e-05
3.04666e-05
2.11603e-05
3.6074e-05
3.80931e-05
4.11333e-05
4.68793e-05
4.37214e-05
7.59636e-05
4.96516e-05
0.000107301
7.80436e-05
5.97275e-05
-8.79756e-06
8.04065e-06
9.12337e-06
-8.24e-06
1.0532e-05
-7.41231e-06
1.37274e-05
-6.01571e-06
1.74523e-05
-3.74815e-06
2.07947e-05
-1.4544e-08
2.24138e-05
5.82027e-06
2.08977e-05
1.37672e-05
1.75959e-05
2.32259e-05
9.70335e-06
3.17893e-05
1.17784e-05
3.57027e-05
3.24235e-05
3.91364e-05
4.29319e-05
4.00794e-05
7.32414e-05
4.5246e-05
9.95939e-05
6.66959e-05
5.49966e-05
-8.4181e-06
7.6791e-06
8.73781e-06
-7.89139e-06
9.95507e-06
-6.97403e-06
1.28356e-05
-5.54688e-06
1.59648e-05
-3.10635e-06
1.83153e-05
1.14891e-06
1.82203e-05
7.83396e-06
1.39234e-05
1.68783e-05
7.84904e-06
2.57904e-05
1.34935e-06
3.35321e-05
4.4733e-06
3.58555e-05
3.08418e-05
3.72132e-05
4.22419e-05
3.6459e-05
7.46227e-05
4.12712e-05
9.85799e-05
6.58279e-05
5.07257e-05
-8.06589e-06
7.32779e-06
8.37076e-06
-7.47838e-06
9.39634e-06
-6.6231e-06
1.19129e-05
-5.08044e-06
1.44605e-05
-2.39655e-06
1.56375e-05
2.33249e-06
1.32166e-05
1.01805e-05
6.06062e-06
2.11384e-05
-3.04006e-06
2.88465e-05
-7.14725e-06
3.51784e-05
-2.76702e-06
3.56453e-05
2.81451e-05
3.4688e-05
4.29159e-05
3.26469e-05
7.48053e-05
3.74054e-05
9.12437e-05
5.5731e-05
4.67153e-05
-7.69688e-06
6.98127e-06
8.0136e-06
-7.17293e-06
8.82852e-06
-6.22069e-06
1.10125e-05
-4.6504e-06
1.28395e-05
-1.74281e-06
1.26466e-05
3.72198e-06
7.86435e-06
1.31558e-05
-3.84219e-06
2.74518e-05
-1.82287e-05
3.30364e-05
-1.19916e-05
3.65424e-05
-6.0682e-06
3.49196e-05
2.9784e-05
3.19029e-05
4.65546e-05
2.90455e-05
7.84626e-05
3.42103e-05
9.01047e-05
5.58146e-05
4.34022e-05
-7.37544e-06
6.63721e-06
7.66075e-06
-6.80308e-06
8.2758e-06
-5.91108e-06
1.00695e-05
-4.20287e-06
1.11657e-05
-9.869e-07
9.42966e-06
5.09045e-06
1.42275e-06
1.69691e-05
-1.56072e-05
3.23552e-05
-3.34484e-05
3.38746e-05
-1.4448e-05
3.42503e-05
-7.55585e-06
3.06218e-05
3.11581e-05
2.79524e-05
4.92619e-05
2.56925e-05
7.87561e-05
3.14757e-05
8.14423e-05
4.61987e-05
4.04839e-05
-7.02285e-06
6.30266e-06
7.31511e-06
-6.49754e-06
7.72715e-06
-5.52246e-06
9.14156e-06
-3.72829e-06
9.32379e-06
-3.33964e-07
5.96083e-06
6.63745e-06
-5.37754e-06
2.3579e-05
-3.30728e-05
3.38556e-05
-4.49655e-05
2.92158e-05
-8.93825e-06
3.03624e-05
-8.70662e-06
2.45666e-05
3.63386e-05
2.32397e-05
5.11613e-05
2.25495e-05
8.03755e-05
2.9234e-05
7.87464e-05
4.66092e-05
3.80428e-05
-6.67882e-06
5.97609e-06
6.96117e-06
-6.12888e-06
7.18653e-06
-5.15796e-06
8.14105e-06
-3.21882e-06
7.42753e-06
3.18394e-07
2.41381e-06
7.92923e-06
-1.33555e-05
3.00567e-05
-5.48554e-05
3.12777e-05
-4.58398e-05
2.44114e-05
-2.73831e-06
2.63903e-05
-1.20286e-05
1.79629e-05
4.26081e-05
1.84079e-05
5.11733e-05
1.95433e-05
7.75129e-05
2.6876e-05
6.89954e-05
3.81767e-05
3.55579e-05
-6.32083e-06
5.65596e-06
6.60434e-06
-5.77844e-06
6.63574e-06
-4.72527e-06
7.11806e-06
-2.76266e-06
5.4195e-06
9.02752e-07
-1.28896e-06
9.04236e-06
-2.12358e-05
3.03527e-05
-7.67462e-05
2.0985e-05
-3.73095e-05
1.74577e-05
1.81409e-06
1.88588e-05
-1.30434e-05
1.05021e-05
5.04195e-05
1.35544e-05
4.9281e-05
1.66548e-05
7.54144e-05
2.45878e-05
6.4849e-05
3.84332e-05
3.31632e-05
-5.94591e-06
5.33106e-06
6.23084e-06
-5.39231e-06
6.06744e-06
-4.37339e-06
6.08295e-06
-2.28461e-06
3.40257e-06
1.70044e-06
-5.28783e-06
1.01353e-05
-2.99933e-05
2.70094e-05
-9.3081e-05
9.91189e-06
-1.972e-05
9.36819e-06
1.84746e-06
7.90404e-06
-1.31828e-05
1.45981e-06
5.44848e-05
7.95692e-06
4.37295e-05
1.35214e-05
6.83307e-05
2.20298e-05
5.4507e-05
3.08848e-05
3.06484e-05
-5.53773e-06
4.9925e-06
5.82505e-06
-5.00858e-06
5.54719e-06
-4.03995e-06
5.16617e-06
-1.74067e-06
1.07211e-06
2.67723e-06
-9.67714e-06
1.07117e-05
-3.77499e-05
2.10556e-05
-0.000103758
3.47506e-07
5.25654e-07
-8.15776e-08
3.44762e-06
-5.52503e-06
-6.80175e-06
-8.5921e-06
5.76153e-05
1.21e-06
3.73353e-05
1.01882e-05
6.024e-05
1.93952e-05
4.83053e-05
2.95603e-05
2.81924e-05
-5.02713e-06
4.67077e-06
5.37613e-06
-4.61132e-06
5.14255e-06
-3.80649e-06
4.36969e-06
-9.42215e-07
-1.66566e-06
3.65999e-06
-1.43196e-05
9.63204e-06
-4.39406e-05
9.65022e-06
-0.000103456
-1.06722e-05
2.11566e-05
-9.5259e-06
2.35077e-06
-1.87283e-05
1.39026e-06
-1.76118e-05
5.50208e-05
-6.48092e-06
2.90393e-05
6.71153e-06
4.59786e-05
1.64683e-05
3.80131e-05
2.35143e-05
2.56558e-05
-4.43333e-06
4.26812e-06
4.81287e-06
-4.06939e-06
4.805e-06
-3.60981e-06
3.99142e-06
1.75082e-07
-5.51912e-06
3.69067e-06
-1.78467e-05
3.9854e-06
-4.4144e-05
-1.11102e-05
-8.85497e-05
-2.51135e-05
3.48685e-05
-2.37709e-05
1.79729e-06
-2.78984e-05
5.99053e-06
-2.27829e-05
5.00484e-05
-1.20806e-05
2.11011e-05
3.23426e-06
3.0823e-05
1.33502e-05
2.9417e-05
1.89136e-05
2.30581e-05
-3.54005e-06
3.582e-06
4.26213e-06
-2.93179e-06
4.23141e-06
-3.55447e-06
4.5617e-06
9.98908e-07
-9.9131e-06
4.92302e-07
-1.7441e-05
-8.67963e-06
-3.51783e-05
-3.90145e-05
-5.83989e-05
-4.07779e-05
3.66165e-05
-3.45861e-05
-3.89684e-06
-3.34969e-05
4.45657e-06
-2.35514e-05
3.96651e-05
-1.41454e-05
1.29255e-05
-8.07906e-07
1.67957e-05
9.77033e-06
1.9149e-05
1.23818e-05
2.01033e-05
-2.62163e-06
2.18974e-06
4.02902e-06
-1.58111e-06
3.15089e-06
-2.3271e-06
5.39591e-06
-2.97656e-06
-9.31382e-06
-1.23026e-05
-8.19471e-06
-3.36712e-05
-1.39944e-05
-6.90798e-05
-2.32427e-05
-4.85148e-05
1.57832e-05
-4.45853e-05
-7.13e-06
-3.79771e-05
-2.63079e-06
-2.23601e-05
2.37574e-05
-1.47676e-05
6.29574e-06
-4.50652e-06
5.91158e-06
5.99378e-06
9.18434e-06
6.17008e-06
1.63552e-05
-1.55503e-06
1.29573e-06
2.41227e-06
-1.26475e-06
2.87721e-06
-2.09091e-07
4.32755e-06
-6.04395e-06
-3.50047e-06
-1.31837e-05
-1.10329e-06
-2.49545e-05
-2.33032e-06
-3.94018e-05
-8.936e-06
-2.72656e-05
3.40401e-06
-2.78825e-05
-5.94934e-06
-2.94342e-05
-1.4696e-06
-1.40345e-05
8.07441e-06
-9.64489e-06
2.83463e-06
-4.83265e-06
4.54201e-07
2.789e-06
2.13686e-06
2.5609e-06
1.089e-05
8.05843e-08
1.15051e-06
2.95412e-06
7.27915e-06
3.77377e-06
2.66448e-06
3.30136e-07
-8.61101e-06
-5.20285e-06
-1.1154e-05
-1.26243e-05
-4.5486e-06
-1.71445e-06
-1.25999e-06
8.78028e-07
3.4389e-06
0.00145145
4.19783e-05
0.00145898
4.10297e-05
0.00146674
4.10085e-05
0.00147449
4.14775e-05
0.00148214
4.21441e-05
0.00148958
4.28783e-05
0.00149683
4.36147e-05
0.0015039
4.4279e-05
0.0015106
4.51168e-05
4.55142e-05
0.0015172
0.00134099
3.55189e-05
0.00134851
3.36754e-05
0.00135619
3.34611e-05
0.00136378
3.40237e-05
0.00137119
3.48569e-05
0.00137843
3.57476e-05
0.00138557
3.65713e-05
0.00139274
3.72045e-05
0.00140025
3.77051e-05
3.79871e-05
0.0014078
0.0012433
3.28263e-05
0.00124802
2.90894e-05
0.00125377
2.78335e-05
0.00126002
2.78667e-05
0.00126652
2.84334e-05
0.00127314
2.91919e-05
0.00127984
2.99273e-05
0.00128664
3.04513e-05
0.00129361
3.07938e-05
3.08705e-05
0.00130072
0.00115411
3.20159e-05
0.00115704
2.63029e-05
0.00116124
2.37227e-05
0.00116623
2.29523e-05
0.0011717
2.30173e-05
0.00117746
2.3447e-05
0.00118345
2.39467e-05
0.00118964
2.42707e-05
0.00119608
2.43926e-05
2.42196e-05
0.00120273
0.00107096
3.17253e-05
0.00107303
2.43577e-05
0.00107628
2.05643e-05
0.00108031
1.89578e-05
0.0010849
1.84441e-05
0.00108986
1.84666e-05
0.00109514
1.86568e-05
0.00110068
1.87086e-05
0.00110654
1.8552e-05
1.81155e-05
0.00111263
0.000992871
3.1522e-05
0.000994565
2.27873e-05
0.000997249
1.79387e-05
0.00100066
1.55687e-05
0.00100461
1.44962e-05
0.00100895
1.40965e-05
0.00101363
1.39569e-05
0.00101859
1.37301e-05
0.00102389
1.32961e-05
1.26348e-05
0.00102936
0.00091989
3.12456e-05
0.000921418
2.13722e-05
0.000923765
1.56351e-05
0.00092675
1.25791e-05
0.000930223
1.09861e-05
0.000934084
1.01799e-05
0.000938268
9.71739e-06
0.000942748
9.2105e-06
0.000947571
8.47749e-06
7.61687e-06
0.000952548
0.000851769
3.08914e-05
0.000853221
2.00727e-05
0.00085534
1.35141e-05
0.000858047
9.87531e-06
0.000861176
7.78099e-06
0.000864679
6.61333e-06
0.000868474
5.83748e-06
0.000872542
5.07069e-06
0.000876941
4.09082e-06
3.15519e-06
0.000881428
0.000788618
3.064e-05
0.000789905
1.88761e-05
0.000791922
1.16997e-05
0.000794336
7.46989e-06
0.000797234
4.99501e-06
0.000800406
3.46334e-06
0.000803881
2.42171e-06
0.000807626
1.43746e-06
0.000811751
2.31486e-07
-8.47902e-07
0.000815791
0.00072993
3.03404e-05
0.000731226
1.78909e-05
0.000733012
1.00717e-05
0.000735309
5.42832e-06
0.000737937
2.55921e-06
0.000740883
7.56095e-07
0.000744097
-5.20123e-07
0.000747585
-1.70734e-06
0.000751337
-3.24038e-06
-4.2689e-06
0.000754996
0.000675807
3.00078e-05
0.000676976
1.68881e-05
0.000678646
8.56244e-06
0.000680739
3.48573e-06
0.000683168
2.90387e-07
0.000685879
-1.78359e-06
0.000688842
-3.2812e-06
0.000692
-4.67905e-06
0.000695595
-6.35619e-06
-7.61391e-06
0.000698816
0.000625728
2.96327e-05
0.000626771
1.59129e-05
0.000628301
7.08007e-06
0.000630242
1.6224e-06
0.000632485
-1.87707e-06
0.000634982
-4.17226e-06
0.000637697
-5.85418e-06
0.000640666
-7.38222e-06
0.000643808
-9.455e-06
-1.04217e-05
0.000646895
0.000579548
2.92004e-05
0.000580456
1.49256e-05
0.000581875
5.62918e-06
0.000583646
-2.0402e-07
0.000585702
-3.97026e-06
0.000587973
-6.48021e-06
0.000590453
-8.34483e-06
0.000593081
-1.00453e-05
0.000596129
-1.22102e-05
-1.34532e-05
0.000598784
0.000536856
2.87862e-05
0.000537643
1.39892e-05
0.000538941
4.27272e-06
0.000540558
-1.85598e-06
0.000542425
-5.81832e-06
0.000544474
-8.49196e-06
0.00054671
-1.04868e-05
0.00054914
-1.22928e-05
0.000551756
-1.48805e-05
-1.56577e-05
0.000554352
0.000497501
2.82489e-05
0.000498219
1.30082e-05
0.000499381
2.88146e-06
0.000500837
-3.50494e-06
0.00050249
-7.67903e-06
0.000504312
-1.05189e-05
0.000506297
-1.26712e-05
0.000508409
-1.46268e-05
0.000510934
-1.73305e-05
-1.84804e-05
0.000513109
0.000461168
2.77995e-05
0.000461799
1.21458e-05
0.000462829
1.69857e-06
0.00046411
-4.83723e-06
0.000465555
-9.14396e-06
0.000467143
-1.20665e-05
0.00046887
-1.43222e-05
0.000470759
-1.63626e-05
0.00047288
-1.95055e-05
-2.01251e-05
0.000475031
0.000427701
2.71436e-05
0.000428256
1.11193e-05
0.000429166
3.74514e-07
0.000430249
-6.35032e-06
0.000431484
-1.08283e-05
0.000432816
-1.38882e-05
0.000434282
-1.63007e-05
0.000435864
-1.84857e-05
0.000437867
-2.18017e-05
-2.28944e-05
0.00043967
0.000396788
2.66739e-05
0.000397259
1.03066e-05
0.000398052
-5.58781e-07
0.000398928
-7.36672e-06
0.000399953
-1.18633e-05
0.000401022
-1.49766e-05
0.00040223
-1.74531e-05
0.000403566
-1.9717e-05
0.000405218
-2.34844e-05
-2.40377e-05
0.000407017
0.000368291
2.58173e-05
0.000368725
9.23229e-06
0.000369376
-1.93442e-06
0.000370052
-8.83374e-06
0.000370846
-1.35278e-05
0.000371661
-1.67486e-05
0.000372607
-1.94211e-05
0.000373665
-2.18523e-05
0.000375189
-2.58531e-05
-2.69505e-05
0.000376702
0.000341971
2.53127e-05
0.000342318
8.56584e-06
0.000342858
-2.6183e-06
0.000343304
-9.46629e-06
0.000343894
-1.41403e-05
0.00034444
-1.73462e-05
0.000345137
-2.00794e-05
0.000345962
-2.25832e-05
0.000347211
-2.70782e-05
-2.77634e-05
0.000348833
0.0003177
2.44404e-05
0.000317981
7.49829e-06
0.000318402
-3.89903e-06
0.000318619
-1.08309e-05
0.000319009
-1.5662e-05
0.000319293
-1.89836e-05
0.000319753
-2.19348e-05
0.000320317
-2.4631e-05
0.000321439
-2.94358e-05
-3.07725e-05
0.000322856
0.000295231
2.40003e-05
0.000295431
7.13537e-06
0.000295744
-4.08312e-06
0.000295737
-1.08468e-05
0.000295939
-1.55634e-05
0.00029596
-1.88143e-05
0.000296191
-2.17676e-05
0.000296528
-2.45122e-05
0.000297426
-2.98343e-05
-3.09773e-05
0.000298881
0.000274502
2.30795e-05
0.00027463
6.08082e-06
0.000274823
-5.28689e-06
0.000274603
-1.21257e-05
0.000274621
-1.69335e-05
0.000274404
-2.02878e-05
0.000274421
-2.34569e-05
0.000274531
-2.64405e-05
0.000275283
-3.21381e-05
-3.40729e-05
0.000276552
0.000255288
2.26778e-05
0.000255333
6.11111e-06
0.000255413
-4.94996e-06
0.000254999
-1.14566e-05
0.000254838
-1.61018e-05
0.000254384
-1.92876e-05
0.000254187
-2.24182e-05
0.000254094
-2.54018e-05
0.000254651
-3.16805e-05
-3.36301e-05
0.000255965
0.000237553
2.18586e-05
0.000237511
5.19354e-06
0.000237477
-5.81179e-06
0.000236869
-1.24466e-05
0.000236545
-1.70267e-05
0.000235883
-2.03526e-05
0.000235497
-2.36268e-05
0.000235203
-2.69096e-05
0.000235606
-3.36062e-05
-3.64573e-05
0.00023677
0.000221085
2.16173e-05
0.00022098
5.79977e-06
0.000220813
-4.71857e-06
0.000220051
-1.08903e-05
0.000219551
-1.52461e-05
0.000218694
-1.83451e-05
0.000218104
-2.15015e-05
0.000217628
-2.47138e-05
0.000217864
-3.20096e-05
-3.52043e-05
0.000219037
0.000205872
2.0588e-05
0.000205682
4.89799e-06
0.000205386
-5.49586e-06
0.000204468
-1.17497e-05
0.000203817
-1.59848e-05
0.000202806
-1.91427e-05
0.00020205
-2.24105e-05
0.000201406
-2.59393e-05
0.000201474
-3.37051e-05
-3.79557e-05
0.000202497
0.000191735
2.04383e-05
0.00019147
6.01223e-06
0.000191036
-3.81867e-06
0.000189994
-9.52604e-06
0.000189193
-1.35485e-05
0.00018803
-1.64581e-05
0.000187093
-1.95534e-05
0.000186288
-2.2926e-05
0.000186205
-3.13032e-05
-3.60673e-05
0.0001872
0.000178648
1.92455e-05
0.000178274
5.13222e-06
0.000177715
-4.50474e-06
0.000176551
-1.0356e-05
0.000175634
-1.42134e-05
0.000174368
-1.7178e-05
0.000173301
-2.03456e-05
0.000172355
-2.40565e-05
0.000172116
-3.29129e-05
-3.8867e-05
0.000172985
0.000166474
1.93362e-05
0.000165996