/*--------------------------------*- C++ -*----------------------------------*\
  =========                 |
  \\      /  F ield         | OpenFOAM: The Open Source CFD Toolbox
   \\    /   O peration     | Website:  https://openfoam.org
    \\  /    A nd           | Version:  6.0
     \\/     M anipulation  |
\*---------------------------------------------------------------------------*/
FoamFile
{
    version     2.0;
    format      ascii;
    class       volVectorField;
    location    "5";
    object      U;
}
// * * * * * * * * * * * * * * * * * * * * * * * * * * * * * * * * * * * * * //

dimensions      [0 1 -1 0 0 0 0];

internalField   nonuniform List<vector> 
4920
(
(0.996176 0.0874359 -1.479e-19)
(0.996183 0.087464 2.37482e-19)
(0.996184 0.0875105 -6.60486e-19)
(0.99618 0.0875206 9.22018e-19)
(0.996174 0.0875266 2.90066e-19)
(0.996162 0.0875089 -3.80045e-19)
(0.996148 0.087497 8.77563e-19)
(0.996127 0.0874746 -2.15362e-19)
(0.996088 0.0874214 4.21126e-19)
(0.995977 0.0873185 2.6502e-18)
(0.995733 0.0871159 -3.93361e-18)
(0.995253 0.0865815 4.64476e-18)
(0.994549 0.0851204 2.18714e-18)
(0.994047 0.0823334 8.43307e-19)
(0.987237 0.0736537 -8.44297e-18)
(0.996008 0.0898044 1.00143e-19)
(0.996079 0.0897003 -6.06713e-19)
(0.996122 0.0897217 2.98268e-19)
(0.99614 0.0896946 1.32332e-19)
(0.996134 0.0896578 6.19212e-19)
(0.996095 0.0895578 2.0681e-19)
(0.996021 0.0894973 -1.74811e-18)
(0.995903 0.0894349 6.18865e-20)
(0.995725 0.0892841 5.28667e-19)
(0.995369 0.0889378 -5.00518e-18)
(0.994711 0.088189 6.57808e-18)
(0.993596 0.0864477 -9.3685e-18)
(0.992237 0.0824707 7.55564e-19)
(0.991549 0.0764464 1.94177e-17)
(0.983699 0.0604132 2.66565e-17)
(0.995383 0.0928709 6.88713e-20)
(0.995521 0.0926275 -5.75377e-19)
(0.995623 0.0925052 1.94566e-19)
(0.995686 0.0923669 4.55525e-19)
(0.995709 0.0922175 -1.33136e-18)
(0.995684 0.0919728 3.50733e-19)
(0.995584 0.0917702 4.839e-19)
(0.99539 0.0915382 -1.09213e-18)
(0.995109 0.091109 1.40969e-18)
(0.994638 0.0903348 -1.44806e-18)
(0.993879 0.0889379 3.29446e-18)
(0.992761 0.0862546 -4.35858e-18)
(0.991727 0.0810361 -4.02605e-18)
(0.991674 0.0745236 -8.39744e-18)
(0.988255 0.0613284 -1.40852e-17)
(0.99437 0.0955431 2.23311e-20)
(0.994545 0.0951944 -1.86116e-19)
(0.994697 0.0949569 2.8689e-19)
(0.994801 0.0947375 -4.49602e-19)
(0.994855 0.0944984 1.7361e-19)
(0.994851 0.094135 5.7826e-19)
(0.994747 0.0937844 1.35515e-18)
(0.994501 0.0933432 -5.11519e-19)
(0.994146 0.0926069 6.75954e-19)
(0.993636 0.0913926 3.67234e-18)
(0.992925 0.0893965 -6.12468e-18)
(0.992037 0.0860264 3.092e-18)
(0.991608 0.0801601 6.34703e-18)
(0.992303 0.0739312 -1.88803e-17)
(0.993431 0.0645708 -1.80768e-18)
(0.993013 0.0977579 1.85792e-19)
(0.993193 0.0974112 -4.29544e-19)
(0.993387 0.0970824 -6.14128e-20)
(0.993537 0.0967824 -2.20046e-19)
(0.993632 0.0964517 7.47504e-21)
(0.99366 0.0959743 7.02218e-19)
(0.993563 0.0954919 -3.40079e-19)
(0.993276 0.0948695 -2.00589e-18)
(0.99286 0.0938547 1.34315e-19)
(0.992318 0.0922604 -3.02295e-18)
(0.991653 0.0897774 1.91565e-19)
(0.990983 0.0858547 4.43249e-18)
(0.991122 0.0794779 -3.3892e-18)
(0.992455 0.0734551 5.80466e-18)
(0.997283 0.0668196 -3.66774e-18)
(0.991589 0.0993226 7.51755e-20)
(0.991717 0.0989518 2.17874e-19)
(0.991906 0.0986201 -6.98991e-19)
(0.992067 0.0983158 5.53262e-19)
(0.992179 0.0979717 3.58707e-19)
(0.992219 0.0974543 -7.51565e-19)
(0.992119 0.0968987 5.48015e-19)
(0.991789 0.0961347 1.97769e-18)
(0.991307 0.0949017 5.6567e-19)
(0.990719 0.0929921 1.20494e-18)
(0.990072 0.0900825 5.65871e-18)
(0.989554 0.0856809 -1.47856e-18)
(0.990168 0.0788273 -6.83392e-18)
(0.992048 0.0728227 -2.8302e-18)
(0.999795 0.0680697 1.66016e-18)
(0.99012 0.100742 -1.23756e-20)
(0.990162 0.100421 2.24355e-19)
(0.990316 0.100059 -3.50926e-19)
(0.990462 0.0997149 -1.65987e-19)
(0.990571 0.0993161 8.12553e-19)
(0.990601 0.098729 -4.49742e-19)
(0.990481 0.0980958 3.58751e-19)
(0.990096 0.0972133 -3.08877e-18)
(0.989539 0.0957882 2.17829e-18)
(0.988882 0.093609 1.25061e-20)
(0.988214 0.0903485 -4.7593e-18)
(0.987779 0.0855186 -6.49071e-19)
(0.988784 0.0781913 6.18301e-18)
(0.991159 0.0720398 2.94081e-17)
(1.00138 0.068796 4.03107e-18)
(0.988635 0.101787 -3.23287e-20)
(0.988567 0.101447 1.37097e-19)
(0.988655 0.101115 -3.27139e-19)
(0.988761 0.100794 8.39751e-19)
(0.988842 0.100403 1.56951e-19)
(0.988842 0.0998007 -5.01118e-19)
(0.988687 0.0991229 -1.25091e-19)
(0.988235 0.0981442 9.38244e-19)
(0.987585 0.0965691 -8.37354e-19)
(0.986845 0.0941609 3.41011e-19)
(0.986118 0.0905769 6.7384e-18)
(0.985703 0.0853484 7.8964e-20)
(0.98702 0.0775291 1.39858e-17)
(0.989883 0.0710899 -3.42024e-17)
(1.00226 0.0690379 1.31181e-18)
(0.987104 0.102927 8.36154e-20)
(0.986918 0.102603 -3.2908e-19)
(0.986927 0.102234 1.95742e-19)
(0.986974 0.101878 -1.70745e-19)
(0.987009 0.101446 -1.72861e-19)
(0.986965 0.100791 -1.8795e-19)
(0.986757 0.100058 9.94283e-19)
(0.986225 0.0989994 -6.6304e-19)
(0.985476 0.0972818 1.16431e-18)
(0.984631 0.0946677 -3.49791e-18)
(0.983803 0.0908054 -6.61286e-19)
(0.983358 0.0851899 -4.90222e-18)
(0.98492 0.0768306 -1.0341e-17)
(0.988288 0.0699698 4.37649e-18)
(1.00276 0.0690801 -2.7121e-18)
(0.985572 0.10384 -7.22297e-20)
(0.985251 0.103485 5.4058e-20)
(0.985158 0.103148 -1.83009e-19)
(0.985121 0.102811 -1.33421e-19)
(0.985089 0.102392 8.97689e-20)
(0.984978 0.101717 -9.03248e-20)
(0.9847 0.100944 5.83549e-19)
(0.984082 0.0998073 -5.87519e-19)
(0.983223 0.0979693 1.89797e-19)
(0.982253 0.0951694 -2.38268e-19)
(0.981299 0.0910255 -1.12031e-19)
(0.980772 0.0850118 3.78971e-19)
(0.982525 0.0760539 -1.32149e-18)
(0.98646 0.0686511 7.92467e-18)
(1.00306 0.0688412 -1.69817e-19)
(0.983942 0.105027 -6.48153e-22)
(0.983484 0.104658 -2.47243e-20)
(0.983286 0.104267 -4.31188e-19)
(0.983157 0.103885 6.98653e-19)
(0.983048 0.103411 4.79818e-19)
(0.982864 0.102671 -8.16054e-19)
(0.98251 0.101832 2.87963e-19)
(0.9818 0.100617 -4.52915e-19)
(0.980827 0.0986542 -2.75e-20)
(0.979719 0.095672 3.89272e-18)
(0.978607 0.0912657 -2.63911e-18)
(0.97795 0.0848275 -1.95303e-18)
(0.979867 0.0751877 1.08353e-18)
(0.984455 0.0671164 -2.2229e-18)
(1.0033 0.0684755 -2.03127e-18)
(0.982227 0.106017 9.20382e-21)
(0.981619 0.105612 3.10975e-19)
(0.981301 0.10524 -1.44287e-19)
(0.981067 0.104864 -3.64441e-19)
(0.98087 0.104388 2.2941e-19)
(0.980605 0.103615 2.67926e-20)
(0.980169 0.102723 -3.17805e-19)
(0.97937 0.101431 -5.98593e-19)
(0.978281 0.0993565 -5.36577e-19)
(0.977025 0.0961978 -3.10016e-18)
(0.97573 0.091505 -4.50312e-18)
(0.974905 0.0846013 9.61747e-18)
(0.976969 0.0741864 -2.82833e-18)
(0.982344 0.0653423 7.45492e-18)
(1.00352 0.067842 1.60213e-17)
(0.980419 0.107261 4.9165e-20)
(0.979653 0.106799 4.96708e-20)
(0.979202 0.10637 1.99158e-19)
(0.97885 0.105946 1.64965e-19)
(0.978551 0.105418 -2.37995e-19)
(0.978194 0.104586 4.8775e-19)
(0.977671 0.103629 -4.03766e-19)
(0.976782 0.102266 -4.09153e-20)
(0.975578 0.100077 3.66534e-19)
(0.974184 0.0967493 9.15406e-19)
(0.972661 0.0917687 3.84438e-18)
(0.971632 0.0843443 3.80817e-18)
(0.973841 0.0730235 9.82747e-18)
(0.980156 0.0632841 -2.37449e-18)
(1.00384 0.0671176 -2.78384e-17)
(0.978611 0.108284 -1.02772e-19)
(0.977658 0.107779 -2.27901e-20)
(0.977044 0.107381 2.71795e-19)
(0.976542 0.106958 -8.76753e-20)
(0.976114 0.106428 1.5379e-19)
(0.975642 0.105563 8.20018e-20)
(0.975017 0.104552 -6.19151e-19)
(0.974042 0.103121 2.3328e-19)
(0.972746 0.100817 -5.65628e-19)
(0.971175 0.0973226 2.08583e-18)
(0.9694 0.0920448 -9.08638e-19)
(0.96812 0.0840194 -6.71846e-18)
(0.970482 0.0716522 -1.20847e-17)
(0.977932 0.060894 1.59719e-18)
(1.00424 0.0661258 2.3786e-18)
(0.976692 0.10963 5.04776e-20)
(0.975546 0.109079 5.54762e-20)
(0.974764 0.108611 -4.2855e-19)
(0.974105 0.108131 8.37784e-19)
(0.97354 0.107531 -2.80445e-19)
(0.972948 0.106595 2.01663e-19)
(0.972218 0.105501 -1.71817e-19)
(0.97116 0.103974 -5.85144e-19)
(0.969739 0.101571 2.4316e-18)
(0.967968 0.0979308 -2.32349e-18)
(0.965903 0.0923327 1.89903e-18)
(0.964335 0.0836284 -2.0229e-18)
(0.966888 0.0700372 6.61982e-18)
(0.975707 0.0581422 1.58466e-18)
(1.00487 0.0650769 1.41446e-17)
(0.974755 0.11073 2.90567e-20)
(0.973406 0.110154 2.18664e-19)
(0.972433 0.109699 -3.64816e-19)
(0.97159 0.109206 1.74694e-19)
(0.970857 0.108593 -2.58119e-19)
(0.970117 0.107616 4.14894e-20)
(0.969242 0.106447 1.21615e-18)
(0.968071 0.10486 -1.93472e-18)
(0.966501 0.102351 -9.33177e-20)
(0.964509 0.0985407 2.44379e-18)
(0.96212 0.0925953 -5.95132e-18)
(0.960255 0.0831207 9.86796e-19)
(0.963052 0.0681204 -2.3345e-19)
(0.973528 0.0549903 -2.39268e-18)
(1.00568 0.0637408 2.18927e-17)
(0.972581 0.112255 1.55133e-20)
(0.971035 0.111635 -7.40087e-22)
(0.96988 0.111104 -1.18367e-19)
(0.96885 0.110564 4.38882e-19)
(0.967939 0.109856 -3.33085e-19)
(0.967029 0.108782 1.45336e-19)
(0.965999 0.107488 2.60164e-19)
(0.964705 0.10577 -6.77666e-19)
(0.962984 0.103135 6.73765e-19)
(0.960743 0.0991468 -4.55974e-18)
(0.958019 0.0928185 4.37434e-18)
(0.955843 0.0824749 1.33271e-18)
(0.958976 0.0658571 -1.35046e-18)
(0.971419 0.0513827 2.56249e-18)
(1.00677 0.0622781 -6.13566e-17)
(0.970022 0.113561 1.29883e-19)
(0.968277 0.112969 -2.81169e-19)
(0.966936 0.112459 2.4361e-19)
(0.965733 0.111894 1.25905e-19)
(0.964664 0.11114 -4.19774e-19)
(0.963604 0.109968 3.36319e-19)
(0.962441 0.108532 -3.52763e-19)
(0.961043 0.106689 2.82546e-19)
(0.959168 0.103917 4.11209e-18)
(0.956675 0.0997228 -2.25661e-18)
(0.953587 0.0929633 -1.07156e-18)
(0.951077 0.0816317 -8.47926e-19)
(0.954648 0.0631774 -4.63497e-19)
(0.969395 0.0472348 3.98147e-18)
(1.0081 0.060401 3.43733e-17)
(0.967302 0.115074 1.42817e-20)
(0.965326 0.1144 1.03081e-19)
(0.963778 0.113824 -3.60215e-19)
(0.962381 0.113199 7.66231e-19)
(0.961135 0.112384 -2.80726e-19)
(0.959928 0.111128 3.94966e-19)
(0.958618 0.109542 2.38805e-19)
(0.957111 0.107581 8.5082e-19)
(0.955073 0.104675 -1.37836e-18)
(0.952299 0.100269 2.62285e-18)
(0.948791 0.0930276 6.45663e-18)
(0.945906 0.0805541 5.63196e-18)
(0.950055 0.0600139 -5.69595e-18)
(0.967511 0.042554 -7.22167e-18)
(1.00984 0.0584484 7.38715e-18)
(0.964717 0.116359 -1.16288e-19)
(0.962449 0.115676 1.05967e-19)
(0.960627 0.115109 -1.13961e-19)
(0.958961 0.114433 -2.28898e-19)
(0.957472 0.113579 4.65643e-19)
(0.956052 0.112254 -1.19679e-18)
(0.954549 0.110545 -5.77864e-19)
(0.952906 0.108459 3.51441e-19)
(0.950678 0.105414 1.89885e-19)
(0.947582 0.100768 1.24429e-18)
(0.943587 0.0929725 -1.12204e-17)
(0.940309 0.0791863 -2.96346e-18)
(0.945209 0.0562827 4.02842e-18)
(0.965808 0.0372651 7.43882e-18)
(1.01189 0.0560771 1.76752e-17)
(0.961897 0.118191 1.02894e-19)
(0.959328 0.117439 -3.76425e-20)
(0.957227 0.116756 -3.88848e-19)
(0.955278 0.115981 3.35316e-19)
(0.953524 0.114972 8.56384e-19)
(0.951871 0.113483 -4.20273e-19)
(0.950154 0.111553 -1.10524e-19)
(0.948363 0.10931 -1.57805e-18)
(0.945933 0.106108 -1.33845e-18)
(0.942471 0.101204 5.71213e-19)
(0.937923 0.0927702 9.27495e-18)
(0.934229 0.0774561 -3.96882e-19)
(0.940115 0.0519199 2.89746e-19)
(0.964347 0.0313746 -3.07438e-18)
(1.01444 0.0536354 -8.60641e-18)
(0.958646 0.119809 -1.22007e-20)
(0.955768 0.119064 7.68013e-20)
(0.953372 0.118326 -4.51564e-19)
(0.951142 0.117442 -2.96832e-19)
(0.949134 0.116295 -1.03861e-19)
(0.947262 0.114637 7.55151e-19)
(0.945353 0.112498 2.9172e-19)
(0.943422 0.11008 2.47191e-18)
(0.940774 0.106714 2.80018e-18)
(0.936903 0.101528 -9.41804e-19)
(0.931737 0.0923631 -4.0964e-19)
(0.927634 0.0752695 3.59797e-18)
(0.934802 0.046813 2.38607e-18)
(0.963165 0.0247938 -7.31531e-18)
(1.01739 0.0506816 -9.6408e-19)
(0.955124 0.121774 2.10194e-20)
(0.951899 0.120907 6.05846e-20)
(0.94918 0.120003 6.34603e-20)
(0.94664 0.118949 -3.70926e-19)
(0.944349 0.117585 1.76004e-19)
(0.942242 0.115696 1.30894e-18)
(0.940127 0.113295 -2.15501e-18)
(0.938033 0.11071 -1.29801e-18)
(0.93515 0.107185 -1.44623e-19)
(0.930814 0.101697 -1.21074e-18)
(0.924955 0.0916769 -2.55841e-18)
(0.920448 0.0725018 -2.43848e-18)
(0.929286 0.0408873 3.45025e-18)
(0.962356 0.017601 4.52755e-18)
(1.02096 0.0477416 -1.20981e-17)
(0.951551 0.123487 -1.9152e-20)
(0.947914 0.122543 7.4937e-20)
(0.944797 0.121543 -2.75914e-20)
(0.941871 0.120313 9.42762e-20)
(0.93923 0.11875 -5.95757e-20)
(0.936821 0.116626 -9.82846e-19)
(0.934448 0.113967 9.93897e-19)
(0.932162 0.111176 -2.08626e-19)
(0.929 0.107473 -6.46685e-18)
(0.924125 0.101651 4.96096e-19)
(0.917486 0.0906264 -7.7025e-18)
(0.912684 0.0690464 -8.27742e-18)
(0.92366 0.0340247 -1.09357e-17)
(0.961982 0.00974709 3.51149e-19)
(1.02501 0.0443184 -3.51955e-17)
(0.94763 0.125739 -2.85665e-20)
(0.943542 0.124693 -7.67938e-20)
(0.940009 0.123452 1.6612e-19)
(0.936664 0.121968 -7.67608e-19)
(0.933642 0.120042 7.24801e-19)
(0.930901 0.117543 -9.46017e-19)
(0.928244 0.114484 6.34796e-19)
(0.925739 0.111447 3.44238e-18)
(0.922253 0.107548 -6.30051e-19)
(0.916754 0.101327 3.42809e-18)
(0.909268 0.0890865 -3.94078e-18)
(0.904298 0.0647307 9.3152e-18)
(0.917981 0.0261793 4.35927e-18)
(0.962169 0.00138364 1.65508e-17)
(1.02977 0.0411232 2.87877e-17)
(0.943282 0.127687 -3.17018e-21)
(0.938703 0.126542 -3.82981e-20)
(0.934701 0.12511 -1.73246e-19)
(0.930916 0.123363 -4.65957e-19)
(0.927497 0.121114 9.03369e-19)
(0.924409 0.118246 2.33601e-19)
(0.921458 0.114791 1.93854e-18)
(0.918697 0.111457 -6.44184e-18)
(0.914821 0.107336 2.09406e-18)
(0.908599 0.100633 -9.5689e-18)
(0.900229 0.0869451 5.60357e-18)
(0.895327 0.0593861 -7.82203e-18)
(0.912394 0.0172224 1.17331e-17)
(0.962979 -0.00750438 -1.83845e-17)
(1.03506 0.0375074 3.16639e-17)
(0.938447 0.130145 1.62197e-20)
(0.933396 0.128781 -1.13257e-19)
(0.928935 0.126998 -2.56375e-19)
(0.924686 0.124896 3.89553e-20)
(0.92082 0.122188 7.04986e-19)
(0.917344 0.118815 -1.24903e-19)
(0.914032 0.114839 -2.49616e-18)
(0.910949 0.111183 3.85005e-18)
(0.90661 0.106795 2.5449e-18)
(0.89959 0.099469 6.07562e-18)
(0.890287 0.0839771 -9.56604e-19)
(0.885747 0.0527967 1.30531e-17)
(0.906999 0.0071533 -8.13013e-19)
(0.964546 -0.0167171 -1.57365e-17)
(1.04109 0.0343975 -2.31982e-17)
(0.933594 0.132166 2.4938e-20)
(0.927939 0.130718 -2.91435e-19)
(0.922868 0.128748 -1.62455e-19)
(0.91802 0.126277 2.57084e-19)
(0.913602 0.123121 -1.18105e-18)
(0.909633 0.119199 -1.70709e-18)
(0.90588 0.114665 3.97744e-19)
(0.902406 0.110564 3.67064e-18)
(0.897526 0.105814 1.90863e-18)
(0.889595 0.0976997 4.30056e-18)
(0.879389 0.0800368 5.25371e-18)
(0.8757 0.0447628 -8.45165e-19)
(0.902009 -0.00413456 -1.26954e-17)
(0.966904 -0.0262272 1.09813e-17)
(1.04763 0.0309182 2.51076e-18)
(0.928367 0.135085 2.05907e-20)
(0.921999 0.133522 -4.60424e-19)
(0.916278 0.131101 -6.17427e-20)
(0.910756 0.128091 2.40972e-19)
(0.905709 0.124195 1.16391e-18)
(0.90117 0.1195 8.38016e-19)
(0.896897 0.114198 -9.96609e-19)
(0.892969 0.109555 -1.49663e-18)
(0.887473 0.104335 -2.28867e-18)
(0.878573 0.0951693 -1.24971e-17)
(0.86753 0.074825 2.47546e-19)
(0.865235 0.0350905 -1.41987e-17)
(0.897562 -0.0165426 5.87992e-18)
(0.970201 -0.035743 -1.34966e-17)
(1.0549 0.0283207 2.0734e-17)
(0.922604 0.137609 -3.14147e-20)
(0.915475 0.135772 -3.09083e-19)
(0.909001 0.133022 5.93653e-19)
(0.902744 0.129549 -2.61978e-19)
(0.897001 0.125028 9.84006e-19)
(0.891826 0.119541 -9.38592e-19)
(0.886997 0.113406 2.52005e-18)
(0.882572 0.108053 -3.37528e-18)
(0.876364 0.102187 9.6089e-19)
(0.866401 0.0916849 -1.56137e-18)
(0.854677 0.0681167 5.16027e-18)
(0.854582 0.0235307 -2.21735e-17)
(0.893906 -0.0301469 -4.6029e-18)
(0.974396 -0.0452209 -9.54821e-18)
(1.06263 0.0253766 -1.28713e-17)
(0.916301 0.141043 -6.40066e-20)
(0.908323 0.139118 1.54873e-19)
(0.901038 0.135738 -6.41611e-19)
(0.893936 0.131514 -5.12904e-19)
(0.887408 0.125968 9.71772e-19)
(0.881546 0.11937 6.83857e-19)
(0.876113 0.112147 -4.81059e-18)
(0.871107 0.105976 3.92379e-18)
(0.864093 0.099288 -2.47993e-19)
(0.853037 0.0869911 1.06194e-17)
(0.840841 0.0594947 -1.91198e-17)
(0.843847 0.00996662 3.00115e-17)
(0.891171 -0.0447298 -5.41307e-18)
(0.979612 -0.0543582 4.74984e-17)
(1.07099 0.0236398 -6.50164e-18)
(0.909175 0.144107 -1.30721e-19)
(0.900304 0.141853 -4.07603e-20)
(0.892141 0.137957 2.02423e-19)
(0.884198 0.133022 9.93939e-19)
(0.876891 0.126499 -1.39595e-18)
(0.870308 0.118746 -3.20851e-18)
(0.864231 0.110399 4.00818e-18)
(0.858526 0.103226 -4.70906e-18)
(0.850545 0.0953718 1.63632e-19)
(0.838317 0.0807926 -9.90482e-18)
(0.826116 0.048695 2.39627e-17)
(0.833377 -0.00589888 -9.35266e-18)
(0.889591 -0.0603407 8.66213e-19)
(0.985688 -0.0631038 1.85057e-17)
(1.07972 0.0214609 -5.10034e-17)
(0.901903 0.147609 -1.52902e-19)
(0.892019 0.145104 -9.01189e-20)
(0.882862 0.140435 -6.61942e-20)
(0.873928 0.134554 4.48098e-20)
(0.86568 0.126829 6.39544e-19)
(0.858273 0.117744 8.84539e-19)
(0.851327 0.108082 -1.77495e-18)
(0.84466 0.0997232 2.57417e-18)
(0.835525 0.0903062 1.10318e-17)
(0.822266 0.0726988 1.60019e-18)
(0.810656 0.0353008 -1.30469e-17)
(0.823328 -0.0239508 -8.65807e-18)
(0.889255 -0.0765739 5.30445e-18)
(0.992757 -0.0710563 -1.56582e-17)
(1.08893 0.0209527 1.90986e-17)
(0.894564 0.150723 6.60049e-20)
(0.883604 0.147732 -2.30204e-19)
(0.8733 0.14254 3.77621e-19)
(0.863215 0.135817 -1.20628e-18)
(0.853841 0.126913 3.63822e-19)
(0.845279 0.116427 3.50613e-18)
(0.837163 0.105356 1.68291e-18)
(0.829268 0.095303 1.10181e-18)
(0.818864 0.0836031 -3.42258e-18)
(0.804775 0.0622492 7.92519e-18)
(0.794643 0.0189278 -1.74869e-17)
(0.814143 -0.0445184 4.78907e-17)
(0.890338 -0.0934816 8.60892e-19)
(1.0005 -0.0782063 -2.00122e-17)
(1.09839 0.0198434 6.68631e-17)
(0.886696 0.154899 -3.77158e-20)
(0.874518 0.151844 8.67955e-20)
(0.862996 0.145679 -4.46982e-19)
(0.851534 0.137703 1.71138e-18)
(0.840797 0.12726 -8.37284e-19)
(0.830834 0.115058 -2.54878e-18)
(0.821366 0.101934 3.12183e-20)
(0.81199 0.0896519 2.55485e-19)
(0.800364 0.0749354 -2.45422e-17)
(0.785898 0.0488467 2.07673e-17)
(0.77832 -0.000717898 1.65677e-17)
(0.80592 -0.0671644 -2.35462e-17)
(0.892773 -0.110532 1.32735e-18)
(1.00903 -0.0842165 -2.73933e-17)
(1.10806 0.020721 -3.77798e-17)
(0.877074 0.158736 -6.38932e-20)
(0.863622 0.155382 -1.78255e-19)
(0.850766 0.148461 3.1985e-19)
(0.838016 0.139391 -1.15592e-18)
(0.82587 0.127342 3.75983e-19)
(0.814582 0.113052 -2.12661e-20)
(0.803607 0.0976747 4.78424e-18)
(0.792768 0.0824548 -9.78442e-18)
(0.779969 0.0636383 2.50663e-17)
(0.76572 0.0319664 -1.50322e-17)
(0.762099 -0.0240801 1.48794e-17)
(0.79915 -0.0922817 -1.5519e-17)
(0.896622 -0.127866 3.49159e-19)
(1.01786 -0.0890862 -3.61698e-17)
(1.11781 0.0206977 -9.27492e-18)
(0.866785 0.163039 -8.23107e-20)
(0.851701 0.15935 -9.51381e-20)
(0.837288 0.151269 5.85097e-19)
(0.822922 0.140685 -2.06108e-19)
(0.80936 0.126801 3.66887e-19)
(0.796526 0.110278 -2.21455e-18)
(0.783996 0.0921234 -3.44713e-18)
(0.771603 0.0734171 1.73609e-17)
(0.757656 0.0493817 -1.13357e-17)
(0.744531 0.011033 -1.8031e-17)
(0.746337 -0.0509309 -3.06559e-17)
(0.793755 -0.118988 3.02492e-17)
(0.901611 -0.144752 -4.60427e-18)
(1.0271 -0.0924074 5.51854e-17)
(1.12739 0.0231353 3.76467e-17)
(0.855937 0.167305 -9.18804e-20)
(0.839093 0.163113 2.6418e-19)
(0.822866 0.153928 -3.56181e-19)
(0.806768 0.141712 4.64894e-19)
(0.791425 0.125671 -2.53425e-19)
(0.776918 0.106553 1.30098e-18)
(0.762658 0.0853379 -3.60938e-18)
(0.748417 0.0622553 7.06568e-18)
(0.733416 0.0313529 -2.00355e-17)
(0.722567 -0.0145223 -3.79814e-18)
(0.731598 -0.0819077 -2.63004e-17)
(0.790255 -0.147772 -5.53287e-18)
(0.907715 -0.161552 1.70572e-20)
(1.03614 -0.0942294 4.73027e-17)
(1.13686 0.0243078 -1.00135e-16)
(0.844836 0.172066 2.71798e-20)
(0.825944 0.167363 -1.05294e-19)
(0.807672 0.156669 5.24618e-20)
(0.789453 0.142506 -8.83911e-19)
(0.772147 0.123983 1.69219e-18)
(0.755673 0.101845 -2.4646e-18)
(0.739318 0.0768293 4.014e-18)
(0.723061 0.0485386 -2.6661e-17)
(0.707125 0.00890112 3.70202e-17)
(0.700266 -0.045129 1.67436e-18)
(0.718088 -0.11602 3.42564e-17)
(0.788171 -0.177358 -3.5714e-18)
(0.914298 -0.17744 1.27083e-17)
(1.04501 -0.0942682 -3.73003e-17)
(1.14559 0.0283516 1.20036e-16)
(0.833042 0.176839 3.09698e-20)
(0.811971 0.171524 -2.28394e-19)
(0.791355 0.159391 -2.69167e-19)
(0.770806 0.143052 2.16358e-18)
(0.751164 0.121559 -1.82669e-18)
(0.732529 0.0958086 3.13914e-18)
(0.713727 0.0663759 -7.01593e-18)
(0.695211 0.0315563 4.2731e-18)
(0.678867 -0.0190905 9.59808e-18)
(0.678075 -0.0813495 6.7837e-17)
(0.706514 -0.154426 -5.99589e-18)
(0.78799 -0.208554 2.61368e-17)
(0.921284 -0.193225 1.23582e-17)
(1.053 -0.0925278 -4.63182e-17)
(1.15388 0.0301966 -5.25055e-17)
(0.820356 0.18219 7.19571e-20)
(0.796807 0.176357 -3.15941e-20)
(0.773653 0.162276 -9.48883e-20)
(0.750405 0.143305 2.93382e-19)
(0.728303 0.118223 1.90059e-18)
(0.707118 0.0881235 3.06091e-18)
(0.685452 0.0531793 1.35618e-18)
(0.664832 0.0105781 1.292e-17)
(0.648729 -0.0535449 -1.65798e-17)
(0.656645 -0.123127 -9.73848e-17)
(0.696635 -0.194983 4.73013e-17)
(0.788745 -0.239666 -6.4553e-17)
(0.92764 -0.207686 -3.5683e-17)
(1.06009 -0.0888075 7.96481e-17)
(1.16071 0.0361025 -4.31346e-17)
(0.806281 0.187631 -3.67825e-20)
(0.780201 0.181156 -2.4298e-19)
(0.754267 0.165009 2.63426e-19)
(0.728182 0.142933 -1.4574e-18)
(0.703173 0.113594 6.09093e-19)
(0.679175 0.0783345 1.04113e-18)
(0.65425 0.0366279 5.34389e-18)
(0.63161 -0.0156054 2.17988e-18)
(0.617001 -0.0959756 -8.61173e-18)
(0.636518 -0.170952 1.1784e-17)
(0.689417 -0.240237 -5.60511e-17)
(0.79105 -0.272156 5.6476e-18)
(0.93347 -0.222393 3.60092e-17)
(1.06551 -0.0834467 -7.33016e-17)
(1.16691 0.0421495 4.74953e-17)
(0.791714 0.192989 -4.62859e-20)
(0.762723 0.18575 4.1792e-19)
(0.733642 0.167354 -1.13566e-18)
(0.70413 0.141853 1.08769e-18)
(0.675816 0.107599 -2.96495e-18)
(0.648347 0.065952 -2.26057e-19)
(0.619625 0.0154628 -1.00734e-18)
(0.595701 -0.0481343 -1.71404e-17)
(0.58408 -0.147581 1.5245e-17)
(0.618391 -0.224031 5.13019e-17)
(0.683742 -0.286417 6.85208e-17)
(0.793517 -0.30358 2.00883e-17)
(0.937263 -0.235555 -5.07054e-17)
(1.06904 -0.0762983 4.57764e-17)
(1.17025 0.0542149 -8.68463e-18)
(0.777022 0.198443 -1.22647e-19)
(0.744793 0.19058 -5.49664e-20)
(0.711992 0.169847 9.34231e-19)
(0.678507 0.140364 -1.04383e-18)
(0.646049 0.100289 -4.01669e-18)
(0.614447 0.0505178 4.35774e-18)
(0.581638 -0.0112446 -1.92736e-17)
(0.556822 -0.0885823 1.26906e-17)
(0.550468 -0.210816 -7.71642e-18)
(0.602496 -0.28289 1.21027e-17)
(0.681125 -0.339068 2.35413e-17)
(0.796815 -0.337065 5.77078e-19)
(0.939184 -0.250069 6.65445e-17)
(1.06956 -0.0693633 4.4049e-17)
(1.17163 0.0649614 3.67218e-17)
(0.762073 0.204191 1.27305e-19)
(0.726297 0.195758 -3.23992e-20)
(0.689361 0.17248 -2.27201e-19)
(0.65114 0.138607 6.20537e-19)
(0.613713 0.091402 3.40694e-18)
(0.576514 0.0311233 -1.25001e-17)
(0.54006 -0.0446664 3.57772e-18)
(0.51566 -0.138303 -4.84813e-18)
(0.517306 -0.287672 -2.24989e-17)
(0.589556 -0.346053 2.83967e-17)
(0.679429 -0.392451 -1.41479e-16)
(0.799312 -0.369017 3.24088e-18)
(0.938003 -0.258673 -3.10581e-17)
(1.06637 -0.0595654 -1.00531e-16)
(1.16784 0.0781161 -2.60968e-17)
(0.746961 0.210166 6.10905e-20)
(0.707367 0.201366 -3.10875e-20)
(0.665756 0.175537 -7.93613e-19)
(0.622065 0.136536 2.46962e-18)
(0.57822 0.08085 9.49346e-19)
(0.534706 0.00717484 1.11091e-17)
(0.494654 -0.0868094 3.42403e-18)
(0.471771 -0.201755 5.08002e-19)
(0.485968 -0.384018 2.9218e-17)
(0.579295 -0.414747 -8.26355e-17)
(0.681898 -0.459834 1.43175e-16)
(0.800025 -0.407211 -7.14749e-18)
(0.936683 -0.261363 -3.24685e-18)
(1.06279 -0.0470738 4.64185e-17)
(1.16379 0.0898862 8.30835e-17)
(0.731838 0.216556 -1.74978e-20)
(0.688208 0.207532 1.35176e-19)
(0.641401 0.179014 -9.41773e-19)
(0.591093 0.134475 1.66847e-18)
(0.539983 0.0680809 -2.61132e-18)
(0.488562 -0.0226322 -3.74941e-18)
(0.445995 -0.139225 -1.78067e-17)
(0.426751 -0.281357 -1.85281e-17)
(0.459922 -0.506471 3.85682e-17)
(0.573263 -0.490496 -4.15937e-17)
(0.688048 -0.527173 -1.04807e-16)
(0.801425 -0.432147 3.78635e-18)
(0.93672 -0.243774 -4.7408e-17)
(1.06104 -0.022811 -3.90509e-17)
(1.15865 0.108401 -1.52406e-16)
(0.71687 0.223252 -1.34227e-19)
(0.669136 0.214362 2.43362e-20)
(0.616724 0.183226 5.41008e-19)
(0.558985 0.131832 1.53825e-18)
(0.498498 0.0522862 1.29417e-18)
(0.439463 -0.0596417 -1.49737e-18)
(0.39391 -0.205328 1.88824e-17)
(0.378979 -0.390023 2.1442e-17)
(0.445416 -0.676609 -8.53456e-17)
(0.568542 -0.579659 9.72455e-19)
(0.71132 -0.58158 4.13696e-17)
(0.825244 -0.442818 -1.23805e-18)
(0.955636 -0.205026 3.28968e-17)
(1.07152 0.0144361 9.19353e-17)
(1.16299 0.13297 4.12783e-17)
(0.702545 0.230233 6.00417e-21)
(0.650792 0.221823 -5.76623e-20)
(0.592289 0.187985 1.03766e-18)
(0.525964 0.128365 -5.86567e-18)
(0.455849 0.0320424 -7.49823e-19)
(0.387503 -0.10455 -3.23418e-18)
(0.338702 -0.288781 -2.01501e-18)
(0.335855 -0.53237 1.41363e-17)
(0.473779 -0.761415 4.45219e-17)
(0.58329 -0.644281 -1.09559e-16)
(0.754505 -0.535031 2.36079e-18)
(0.883954 -0.375745 -3.71163e-18)
(0.997689 -0.133879 2.57947e-17)
(1.09734 0.0588739 -4.0462e-18)
(1.17633 0.163216 2.40165e-18)
(0.688757 0.237206 1.14093e-19)
(0.633106 0.22962 -1.91693e-19)
(0.568506 0.19243 -1.64624e-18)
(0.493025 0.122011 2.88573e-18)
(0.412897 0.0063761 -1.66712e-18)
(0.335876 -0.155635 5.18744e-18)
(0.279921 -0.400727 -2.41387e-17)
(0.298248 -0.76952 -1.3448e-16)
(0.538339 -0.646476 -6.49569e-17)
(0.625966 -0.654861 4.25174e-16)
(0.826821 -0.418957 -1.68116e-17)
(0.959677 -0.248535 8.05158e-18)
(1.04904 -0.0429267 -9.69539e-19)
(1.13 0.108088 -1.07052e-16)
(1.19776 0.199252 3.40573e-17)
(0.675885 0.244174 -3.45279e-19)
(0.616774 0.237012 2.00019e-19)
(0.545563 0.194937 7.29169e-19)
(0.461065 0.111676 6.72494e-18)
(0.374967 -0.0225883 -4.09062e-18)
(0.288487 -0.211877 2.16234e-17)
(0.220595 -0.552734 4.82964e-17)
(0.351189 -0.919825 2.65346e-16)
(0.638342 -0.47173 1.29528e-16)
(0.722276 -0.637003 -3.67045e-16)
(0.950662 -0.237523 -1.43853e-17)
(1.05715 -0.0768136 7.52049e-19)
(1.10215 0.0568338 1.87125e-17)
(1.15965 0.161059 1.1767e-16)
(1.21532 0.239347 2.5515e-17)
(0.664122 0.250597 2.62894e-19)
(0.601822 0.242858 -9.81774e-20)
(0.525393 0.194419 -9.22974e-19)
(0.435172 0.0978438 -8.52761e-18)
(0.346514 -0.0530044 2.32656e-18)
(0.253365 -0.27429 -2.31506e-17)
(0.1906 -0.728633 1.09629e-16)
(0.526341 -0.706625 -8.43751e-17)
(0.770416 -0.243794 -1.21091e-16)
(0.89597 -0.454465 2.63883e-16)
(1.127 0.038512 -1.28411e-17)
(1.17144 0.128411 -8.60194e-18)
(1.15294 0.165578 -1.35139e-18)
(1.18167 0.220545 -8.80331e-17)
(1.2272 0.285911 -7.07426e-17)
(0.65361 0.254777 4.26641e-19)
(0.5893 0.244882 8.86567e-19)
(0.510393 0.189915 4.65225e-19)
(0.420497 0.0828334 -3.67382e-19)
(0.334227 -0.0880269 1.54914e-17)
(0.249689 -0.345187 5.38059e-18)
(0.233047 -0.902678 1.03939e-16)
(0.726169 -0.360295 2.06269e-17)
(0.938802 0.0195011 7.34303e-17)
(1.14295 -0.104677 -1.44301e-16)
(1.35815 0.465942 -8.97253e-19)
(1.32465 0.43119 -1.82926e-17)
(1.20214 0.305517 -6.71927e-17)
(1.19501 0.29217 -9.92091e-17)
(1.22855 0.338361 1.37605e-17)
(0.644305 0.254548 -3.41027e-19)
(0.580846 0.241955 -2.13091e-20)
(0.506263 0.18141 1.74376e-19)
(0.420908 0.0629431 -3.19814e-18)
(0.349197 -0.130459 -2.60472e-17)
(0.300293 -0.427621 4.93078e-17)
(0.439533 -0.949551 -1.22123e-16)
(0.991556 -0.0207874 -1.4261e-16)
(1.1668 0.390156 -7.85903e-17)
(1.54381 0.528988 -4.6405e-17)
(1.57902 0.978952 7.29913e-17)
(1.5303 0.890123 -2.19485e-17)
(1.24598 0.481297 1.32987e-16)
(1.19779 0.38499 1.72487e-16)
(1.22096 0.406502 -5.57265e-17)
(0.637039 0.248027 -1.97237e-19)
(0.581278 0.232704 -1.07832e-18)
(0.518577 0.168583 -1.13433e-18)
(0.445541 0.0319975 4.32147e-18)
(0.416521 -0.180652 2.88228e-17)
(0.472698 -0.492248 -2.16549e-16)
(0.906714 -0.831543 -2.83683e-16)
(1.33495 0.461987 1.76359e-16)
(1.44144 0.912524 6.80448e-17)
(1.85656 1.18376 1.08958e-16)
(1.58477 1.32563 -1.54692e-17)
(1.74248 1.42914 1.77879e-16)
(1.26291 0.661792 -1.61652e-16)
(1.18534 0.494275 -1.07234e-16)
(1.20033 0.486033 4.12742e-17)
(0.636265 0.233915 -2.60059e-19)
(0.598805 0.214489 1.49926e-18)
(0.560672 0.143343 6.99311e-19)
(0.5267 -0.0162179 -4.40961e-18)
(0.586937 -0.237181 -3.17402e-17)
(0.884874 -0.476036 2.23639e-16)
(1.69119 -0.325298 -1.8366e-16)
(1.67583 1.14172 -1.22504e-16)
(1.74229 1.7665 9.30778e-17)
(1.6926 1.7383 -1.1322e-16)
(1.38967 1.60464 -2.18002e-18)
(1.61303 1.73124 -1.84326e-16)
(1.23643 0.805534 2.17994e-16)
(1.14972 0.62557 8.94489e-17)
(1.16304 0.582972 5.89035e-18)
(0.633377 0.20684 4.77424e-19)
(0.63547 0.172861 -7.42681e-19)
(0.675862 0.0861039 2.03883e-18)
(0.758526 -0.0933279 1.89715e-17)
(1.03018 -0.259583 3.30403e-17)
(1.74068 -0.175869 -1.24742e-16)
(2.95697 0.730418 -6.09976e-17)
(2.28864 2.2234 1.29629e-17)
(2.05144 2.75794 -1.30071e-17)
(1.55199 2.14434 2.73944e-17)
(1.13996 1.72333 -9.87956e-19)
(1.24753 1.6456 3.84371e-17)
(1.18346 1.02127 -2.30639e-16)
(1.08046 0.773231 2.91486e-17)
(1.0941 0.690347 3.82197e-17)
(0.737198 0.160494 -3.06423e-19)
(0.909851 0.105386 -2.67956e-18)
(1.32548 0.0170665 -6.87977e-18)
(1.77674 -0.154278 -2.66318e-17)
(2.30572 -0.0319534 2.96988e-17)
(3.54694 0.652562 -2.02136e-17)
(4.89643 2.49417 7.73505e-17)
(2.5885 2.54548 1.01505e-16)
(2.51203 3.75113 -8.71216e-17)
(1.53999 2.71528 6.59733e-17)
(0.906082 1.7766 -1.2013e-17)
(0.938339 1.50032 4.77567e-17)
(1.02695 1.18375 6.72722e-17)
(0.963134 0.938707 -8.88752e-17)
(0.966446 0.769511 4.90564e-17)
(0.787832 -0.00914287 5.48658e-19)
(1.024 -0.0839114 3.75703e-18)
(1.58371 -0.194668 1.07716e-17)
(2.63353 -0.206516 -2.29133e-17)
(3.31419 0.220785 -5.14658e-17)
(3.96888 0.968857 1.99946e-16)
(4.05656 1.94753 3.98958e-17)
(2.37411 1.60249 -4.7894e-17)
(2.56477 2.77625 -1.56936e-16)
(1.36015 2.39983 8.72078e-17)
(0.671754 1.31405 2.60202e-17)
(0.613181 0.994333 -3.17166e-17)
(0.704132 0.912397 4.20045e-17)
(0.722682 0.832621 -9.91747e-18)
(0.719196 0.63488 1.41367e-17)
(0.556352 -0.458572 -3.9976e-19)
(0.764106 -0.506772 1.25351e-18)
(0.992449 -0.699541 2.41178e-18)
(1.05656 -0.791364 1.25849e-17)
(1.3723 -0.432139 -4.41903e-18)
(1.49742 -0.0716087 -1.00117e-16)
(1.28822 0.150526 5.77793e-17)
(1.20706 0.455271 9.24428e-17)
(1.49915 1.80075 1.64995e-16)
(0.944156 1.65717 -4.57952e-17)
(0.532716 0.953993 1.48164e-17)
(0.339724 0.478074 1.18595e-17)
(0.294503 0.327956 -3.42116e-16)