/*--------------------------------*- C++ -*----------------------------------*\
  =========                 |
  \\      /  F ield         | OpenFOAM: The Open Source CFD Toolbox
   \\    /   O peration     | Website:  https://openfoam.org
    \\  /    A nd           | Version:  6.0
     \\/     M anipulation  |
\*---------------------------------------------------------------------------*/
FoamFile
{
    version     2.0;
    format      ascii;
    class       volScalarField;
    location    "4";
    object      p;
}
// * * * * * * * * * * * * * * * * * * * * * * * * * * * * * * * * * * * * * //

dimensions      [0 2 -2 0 0 0 0];

internalField   nonuniform List<scalar> 
13500
(
0.098763
0.098933
0.098257
0.098068
0.096653
0.096529
0.095099
0.095837
0.096847
0.099698
0.12286
0.16405
0.098764
0.098934
0.098257
0.098069
0.096652
0.09653
0.095097
0.095838
0.096844
0.099759
0.12218
0.159
0.098764
0.098935
0.098257
0.09807
0.096651
0.096532
0.095095
0.095837
0.096836
0.099802
0.1213
0.15451
0.098765
0.098936
0.098257
0.098072
0.09665
0.096534
0.095091
0.095835
0.096822
0.099821
0.12033
0.151
0.098766
0.098938
0.098258
0.098075
0.096649
0.096535
0.095086
0.095832
0.096803
0.099825
0.11929
0.14803
0.098768
0.098941
0.098259
0.098078
0.096648
0.096537
0.095081
0.095829
0.096778
0.099817
0.11822
0.14539
0.09877
0.098944
0.09826
0.098081
0.096647
0.096539
0.095075
0.095824
0.096749
0.099795
0.11714
0.14299
0.098773
0.098947
0.098262
0.098084
0.096647
0.096541
0.095069
0.095819
0.096715
0.09976
0.11606
0.14078
0.098776
0.098951
0.098264
0.098088
0.096646
0.096542
0.095062
0.095813
0.096676
0.099711
0.11501
0.13874
0.09878
0.098955
0.098267
0.098092
0.096646
0.096544
0.095055
0.095805
0.096632
0.099649
0.11399
0.13684
0.098784
0.09896
0.09827
0.098096
0.096646
0.096546
0.095047
0.095797
0.096582
0.099573
0.11301
0.13505
0.098788
0.098965
0.098273
0.098101
0.096647
0.096547
0.095038
0.095788
0.096527
0.099486
0.11207
0.13336
0.098794
0.09897
0.098277
0.098106
0.096647
0.096549
0.095029
0.095778
0.096467
0.099389
0.11118
0.13177
0.098799
0.098976
0.098282
0.098111
0.096648
0.096551
0.09502
0.095767
0.096402
0.099282
0.11032
0.13025
0.098805
0.098983
0.098287
0.098117
0.096648
0.096553
0.095009
0.095755
0.096331
0.099167
0.10951
0.1288
0.098812
0.09899
0.098292
0.098123
0.096649
0.096554
0.094999
0.095742
0.096255
0.099047
0.10873
0.12742
0.098819
0.098997
0.098298
0.098129
0.096651
0.096556
0.094987
0.095728
0.096173
0.098921
0.10799
0.1261
0.098827
0.099005
0.098304
0.098136
0.096652
0.096558
0.094975
0.095713
0.096086
0.098792
0.10727
0.12483
0.098835
0.099014
0.098311
0.098143
0.096654
0.09656
0.094963
0.095696
0.095994
0.098661
0.10659
0.1236
0.098844
0.099022
0.098318
0.098151
0.096655
0.096562
0.094949
0.095679
0.095896
0.098528
0.10593
0.12243
0.098854
0.099032
0.098326
0.098159
0.096657
0.096563
0.094936
0.09566
0.095795
0.098396
0.10529
0.12129
0.098864
0.099042
0.098334
0.098167
0.09666
0.096565
0.094922
0.09564
0.095688
0.098263
0.10466
0.12019
0.098874
0.099052
0.098342
0.098175
0.096662
0.096567
0.094907
0.095619
0.095577
0.098132
0.10406
0.11912
0.098885
0.099063
0.098351
0.098184
0.096665
0.096569
0.094892
0.095597
0.095463
0.098002
0.10346
0.11808
0.098897
0.099075
0.098361
0.098194
0.096668
0.096571
0.094876
0.095573
0.095344
0.097873
0.10288
0.11707
0.098909
0.099087
0.098371
0.098203
0.096671
0.096573
0.094859
0.095548
0.095223
0.097746
0.10231
0.11609
0.098921
0.099099
0.098382
0.098214
0.096674
0.096575
0.094842
0.095521
0.095098
0.097621
0.10175
0.11513
0.098935
0.099112
0.098393
0.098224
0.096678
0.096577
0.094825
0.095493
0.094971
0.097498
0.10119
0.11419
0.098949
0.099126
0.098404
0.098235
0.096681
0.096579
0.094807
0.095464
0.094842
0.097377
0.10064
0.11327
0.098963
0.09914
0.098416
0.098246
0.096685
0.096581
0.094788
0.095433
0.094711
0.097256
0.10009
0.11237
0.098978
0.099154
0.098429
0.098258
0.09669
0.096583
0.094769
0.095401
0.094578
0.097137
0.099551
0.11149
0.098994
0.099169
0.098442
0.09827
0.096694
0.096585
0.09475
0.095368
0.094444
0.097019
0.099016
0.11063
0.09901
0.099185
0.098456
0.098283
0.096699
0.096587
0.094729
0.095333
0.09431
0.096902
0.098485
0.10978
0.099027
0.099201
0.09847
0.098296
0.096704
0.096589
0.094709
0.095296
0.094175
0.096784
0.097958
0.10895
0.099044
0.099218
0.098484
0.098309
0.096709
0.096592
0.094687
0.095259
0.09404
0.096667
0.097436
0.10813
0.099062
0.099236
0.0985
0.098323
0.096715
0.096594
0.094665
0.09522
0.093905
0.096549
0.096918
0.10733
0.099081
0.099254
0.098515
0.098337
0.09672
0.096596
0.094643
0.09518
0.09377
0.096431
0.096405
0.10654
0.0991
0.099272
0.098532
0.098351
0.096727
0.096598
0.09462
0.095138
0.093635
0.096311
0.095897
0.10577
0.09912
0.099291
0.098548
0.098367
0.096733
0.096601
0.094596
0.095096
0.093501
0.096191
0.095394
0.10501
0.09914
0.099311
0.098566
0.098382
0.096739
0.096603
0.094572
0.095052
0.093368
0.096069
0.094896
0.10427
0.099161
0.099331
0.098584
0.098398
0.096746
0.096606
0.094547
0.095008
0.093235
0.095945
0.094404
0.10353
0.099183
0.099352
0.098602
0.098414
0.096753
0.096608
0.094521
0.094963
0.093104
0.09582
0.093917
0.10282
0.099205
0.099374
0.098621
0.098431
0.096761
0.096611
0.094495
0.094917
0.092973
0.095692
0.093436
0.10211
0.099228
0.099396
0.098641
0.098448
0.096768
0.096613
0.094468
0.09487
0.092844
0.095563
0.092961
0.10142
0.099252
0.099418
0.098661
0.098466
0.096776
0.096616
0.094441
0.094823
0.092715
0.095432
0.092493
0.10074
0.099276
0.099441
0.098682
0.098484
0.096785
0.096619
0.094413
0.094776
0.092587
0.095298
0.092031
0.10007
0.099301
0.099465
0.098703
0.098502
0.096793
0.096621
0.094384
0.094728
0.092461
0.095162
0.091576
0.099411
0.099327
0.09949
0.098725
0.098521
0.096802
0.096624
0.094354
0.09468
0.092335
0.095024
0.091127
0.098767
0.099353
0.099515
0.098748
0.098541
0.096812
0.096627
0.094324
0.094632
0.09221
0.094883
0.090685
0.098136
0.09938
0.09954
0.098771
0.098561
0.096821
0.09663
0.094293
0.094584
0.092085
0.094741
0.09025
0.097515
0.099407
0.099567
0.098794
0.098581
0.096831
0.096633
0.094262
0.094537
0.091961
0.094596
0.089823
0.096907
0.099435
0.099594
0.098819
0.098602
0.096841
0.096636
0.09423
0.094489
0.091838
0.094449
0.089402
0.096309
0.099464
0.099621
0.098844
0.098623
0.096852
0.096638
0.094197
0.094442
0.091715
0.0943
0.088988
0.095723
0.099494
0.099649
0.098869
0.098645
0.096862
0.096641
0.094164
0.094396
0.091593
0.094148
0.088582
0.095148
0.099524
0.099678
0.098895
0.098667
0.096874
0.096644
0.09413
0.094349
0.09147
0.093995
0.088182
0.094583
0.099555
0.099708
0.098922
0.098689
0.096885
0.096647
0.094095
0.094304
0.091348
0.09384
0.087789
0.094029
0.099586
0.099738
0.098949
0.098712
0.096897
0.09665
0.09406
0.094259
0.091225
0.093683
0.087404
0.093485
0.099619
0.099768
0.098977
0.098736
0.096909
0.096653
0.094025
0.094215
0.091103
0.093524
0.087025
0.09295
0.099651
0.0998
0.099006
0.09876
0.096922
0.096656
0.093989
0.094171
0.09098
0.093364
0.086653
0.092426
0.099685
0.099832
0.099035
0.098784
0.096935
0.096659
0.093952
0.094129
0.090857
0.093202
0.086287
0.091911
0.099719
0.099864
0.099065
0.098809
0.096948
0.096662
0.093915
0.094087
0.090734
0.093038
0.085928
0.091405
0.099754
0.099898
0.099095
0.098835
0.096962
0.096665
0.093878
0.094045
0.09061
0.092873
0.085576
0.090908
0.09979
0.099931
0.099126
0.09886
0.096976
0.096668
0.09384
0.094005
0.090486
0.092707
0.08523
0.090419
0.099826
0.099966
0.099158
0.098887
0.096991
0.096671
0.093802
0.093965
0.090361
0.09254
0.08489
0.089939
0.099863
0.1
0.09919
0.098913
0.097005
0.096674
0.093764
0.093926
0.090236
0.092371
0.084556
0.089467
0.099901
0.10004
0.099223
0.098941
0.097021
0.096677
0.093726
0.093888
0.090111
0.092202
0.084228
0.089003
0.09994
0.10007
0.099257
0.098968
0.097036
0.09668
0.093687
0.093851
0.089984
0.092031
0.083905
0.088547
0.099979
0.10011
0.099291
0.098996
0.097052
0.096683
0.093649
0.093814
0.089858
0.09186
0.083588
0.088097
0.10002
0.10015
0.099326
0.099025
0.097069
0.096686
0.09361
0.093777
0.08973
0.091688
0.083277
0.087655
0.10006
0.10019
0.099361
0.099054
0.097086
0.096689
0.093572
0.093741
0.089603
0.091515
0.082971
0.08722
0.1001
0.10023
0.099398
0.099084
0.097103
0.096691
0.093533
0.093706
0.089474
0.091342
0.08267
0.086792
0.10014
0.10027
0.099434
0.099114
0.097121
0.096694
0.093494
0.093671
0.089346
0.091168
0.082374
0.08637
0.10019
0.10031
0.099472
0.099144
0.097139
0.096697
0.093456
0.093636
0.089217
0.090993
0.082082
0.085954
0.10023
0.10035
0.09951
0.099175
0.097157
0.0967
0.093418
0.093602
0.089087
0.090818
0.081796
0.085544
0.10027
0.10039
0.099549
0.099207
0.097176
0.096703
0.09338
0.093568
0.088958
0.090643
0.081514
0.08514
0.10032
0.10043
0.099588
0.099239
0.097196
0.096706
0.093342
0.093534
0.088828
0.090467
0.081237
0.084742
0.10036
0.10048
0.099629
0.099271
0.097215
0.096709
0.093304
0.093499
0.088698
0.090291
0.080964
0.084349
0.10041
0.10052
0.09967
0.099304
0.097236
0.096713
0.093267
0.093465
0.088567
0.090115
0.080695
0.083962
0.10046
0.10057
0.099711
0.099337
0.097256
0.096716
0.09323
0.093431
0.088437
0.089939
0.08043
0.08358
0.1005
0.10061
0.099753
0.099371
0.097277
0.096719
0.093193
0.093396
0.088307
0.089763
0.080169
0.083202
0.10055
0.10066
0.099796
0.099406
0.097299
0.096723
0.093157
0.093362
0.088176
0.089587
0.079912
0.08283
0.1006
0.1007
0.09984
0.09944
0.09732
0.096727
0.093121
0.093326
0.088046
0.08941
0.079659
0.082462
0.10065
0.10075
0.099884
0.099476
0.097343
0.096731
0.093085
0.093291
0.087916
0.089234
0.07941
0.082099
0.1007
0.1008
0.099929
0.099511
0.097365
0.096735
0.09305
0.093255
0.087786
0.089058
0.079164
0.081741
0.10075
0.10085
0.099975
0.099548
0.097389
0.09674
0.093015
0.093219
0.087657
0.088882
0.078922
0.081386
0.10081
0.1009
0.10002
0.099584
0.097412
0.096744
0.092981
0.093182
0.087528
0.088706
0.078683
0.081036
0.10086
0.10095
0.10007
0.099622
0.097436
0.09675
0.092946
0.093144
0.087399
0.088531
0.078448
0.08069
0.10091
0.101
0.10012
0.09966
0.09746
0.096755
0.092913
0.093106
0.087271
0.088355
0.078216
0.080349
0.10097
0.10105
0.10016
0.099698
0.097485
0.096761
0.092879
0.093067
0.087143
0.08818
0.077987
0.080011
0.10102
0.10111
0.10021
0.099737
0.09751
0.096767
0.092846
0.093027
0.087016
0.088006
0.077761
0.079677
0.10108
0.10116
0.10026
0.099776
0.097536
0.096774
0.092813
0.092987
0.08689
0.087831
0.077538
0.079347
0.10114
0.10121
0.10032
0.099816
0.097562
0.096781
0.09278
0.092946
0.086764
0.087657
0.077318
0.07902
0.10119
0.10127
0.10037
0.099856
0.097588
0.096789
0.092748
0.092904
0.086638
0.087483
0.077101
0.078697
0.10125
0.10133
0.10042
0.099897
0.097615
0.096797
0.092716
0.092862
0.086514
0.08731
0.076887
0.078378
0.10131
0.10138
0.10047
0.099939
0.097643
0.096806
0.092684
0.092818
0.08639
0.087137
0.076675
0.078062
0.10137
0.10144
0.10053
0.099981
0.09767
0.096816
0.092653
0.092774
0.086267
0.086965
0.076467
0.077749
0.10143
0.1015
0.10058
0.10002
0.097698
0.096826
0.092621
0.092729
0.086144
0.086793
0.076261
0.07744
0.1015
0.10156
0.10064
0.10007
0.097727
0.096836
0.09259
0.092683
0.086023
0.086621
0.076057
0.077134
0.10156
0.10162
0.10069
0.10011
0.097756
0.096848
0.092559
0.092637
0.085902
0.08645
0.075856
0.076831
0.10162
0.10168
0.10075
0.10016
0.097785
0.09686
0.092528
0.092589
0.085782
0.086279
0.075658
0.076531
0.10169
0.10174
0.10081
0.1002
0.097815
0.096873
0.092498
0.092541
0.085662
0.086109
0.075462
0.076234
0.10175
0.1018
0.10087
0.10025
0.097845
0.096886
0.092467
0.092492
0.085544
0.085939
0.075268
0.07594
0.10182
0.10187
0.10093
0.10029
0.097876
0.0969
0.092437
0.092442
0.085426
0.08577
0.075076
0.075649
0.10188
0.10193
0.10099
0.10034
0.097907
0.096915
0.092406
0.092391
0.085309
0.085601
0.074887
0.075361
0.10195
0.102
0.10105
0.10039
0.097939
0.096931
0.092376
0.09234
0.085193
0.085432
0.0747
0.075075
0.10202
0.10206
0.10111
0.10044
0.097971
0.096947
0.092346
0.092288
0.085077
0.085264
0.074514
0.074793
0.10209
0.10213
0.10117
0.10049
0.098003
0.096965
0.092316
0.092235
0.084963
0.085096
0.074331
0.074512
0.10216
0.1022
0.10124
0.10054
0.098036
0.096983
0.092287
0.092181
0.084849
0.084929
0.07415
0.074235
0.10223
0.10227
0.1013
0.10059
0.09807
0.097002
0.092257
0.092127
0.084735
0.084762
0.073971
0.073959
0.10231
0.10234
0.10137
0.10064
0.098104
0.097021
0.092228
0.092072
0.084623
0.084596
0.073793
0.073686
0.10238
0.10241
0.10144
0.10069
0.098138
0.097042
0.092199
0.092017
0.084511
0.084429
0.073618
0.073415
0.10246
0.10248
0.1015
0.10075
0.098174
0.097063
0.09217
0.09196
0.0844
0.084263
0.073444
0.073147
0.10253
0.10256
0.10157
0.1008
0.098209
0.097085
0.092141
0.091903
0.08429
0.084098
0.073272
0.072881
0.10261
0.10263
0.10164
0.10086
0.098246
0.097108
0.092113
0.091846
0.08418
0.083932
0.073101
0.072616
0.10269
0.10271
0.10171
0.10092
0.098283
0.097132
0.092085
0.091788
0.084071
0.083767
0.072932
0.072354
0.10277
0.10279
0.10179
0.10097
0.098321
0.097157
0.092058
0.091729
0.083963
0.083603
0.072764
0.072094
0.10285
0.10287
0.10186
0.10103
0.098359
0.097182
0.092031
0.09167
0.083855
0.083438
0.072598
0.071835
0.10294
0.10295
0.10194
0.10109
0.098398
0.097209
0.092004
0.091611
0.083748
0.083274
0.072433
0.071578
0.10302
0.10303
0.10201
0.10116
0.098438
0.097236
0.091978
0.091551
0.083642
0.083109
0.072269
0.071323
0.10311
0.10311
0.10209
0.10122
0.098479
0.097264
0.091952
0.091491
0.083537
0.082945
0.072107
0.07107
0.10319
0.1032
0.10217
0.10128
0.098521
0.097293
0.091927
0.09143
0.083432
0.082781
0.071946
0.070818
0.10328
0.10328
0.10225
0.10135
0.098563
0.097323
0.091903
0.091369
0.083327
0.082617
0.071786
0.070567
0.10337
0.10337
0.10233
0.10142
0.098607
0.097354
0.09188
0.091308
0.083223
0.082454
0.071627
0.070318
0.10346
0.10346
0.10242
0.10149
0.098651
0.097386
0.091857
0.091246
0.08312
0.08229
0.071468
0.070071
0.10356
0.10356
0.1025
0.10156
0.098697
0.097419
0.091835
0.091185
0.083018
0.082126
0.071311
0.069824
0.10365
0.10365
0.10259
0.10163
0.098744
0.097453
0.091814
0.091123
0.082916
0.081963
0.071155
0.069579
0.10375
0.10375
0.10268
0.1017
0.098792
0.097488
0.091794
0.091061
0.082815
0.081799
0.070999
0.069334
0.10385
0.10384
0.10277
0.10178
0.098842
0.097524
0.091776
0.090999
0.082715
0.081636
0.070845
0.069091
0.10395
0.10394
0.10286
0.10186
0.098893
0.097561
0.091758
0.090938
0.082615
0.081472
0.070691
0.068848
0.10406
0.10405
0.10296
0.10194
0.098945
0.0976
0.091742
0.090876
0.082516
0.081309
0.070537
0.068606
0.10416
0.10415
0.10306
0.10202
0.098999
0.097639
0.091727
0.090815
0.082418
0.081145
0.070384
0.068365
0.10427
0.10426
0.10316
0.10211
0.099055
0.09768
0.091713
0.090753
0.082321
0.080981
0.070232
0.068125
0.10438
0.10437
0.10326
0.10219
0.099112
0.097723
0.091701
0.090693
0.082224
0.080818
0.07008
0.067885
0.10449
0.10448
0.10336
0.10228
0.099172
0.097766
0.09169
0.090632
0.082129
0.080654
0.069929
0.067645
0.10461
0.1046
0.10347
0.10238
0.099233
0.097812
0.091682
0.090572
0.082034
0.08049
0.069777
0.067406
0.10473
0.10472
0.10358
0.10247
0.099297
0.097859
0.091675
0.090513
0.08194
0.080326
0.069627
0.067168
0.10485
0.10484
0.10369
0.10257
0.099363
0.097907
0.09167
0.090454
0.081847
0.080163
0.069476
0.066929
0.10498
0.10496
0.10381
0.10267
0.099431
0.097958
0.091667
0.090396
0.081755
0.079999
0.069326
0.06669
0.10511
0.10509
0.10393
0.10278
0.099502
0.09801
0.091666
0.090339
0.081664
0.079835
0.069175
0.066452
0.10524
0.10522
0.10405
0.10289
0.099576
0.098064
0.091667
0.090283
0.081574
0.079671
0.069025
0.066213
0.10537
0.10536
0.10417
0.103
0.099652
0.098121
0.091671
0.090228
0.081486
0.079507
0.068875
0.065975
0.10551
0.1055
0.1043
0.10311
0.099732
0.09818
0.091678
0.090174
0.081399
0.079343
0.068725
0.065736
0.10565
0.10564
0.10444
0.10323
0.099815
0.098241
0.091687
0.090122
0.081313
0.07918
0.068575
0.065496
0.1058
0.10579
0.10457
0.10336
0.099902
0.098305
0.091699
0.090071
0.081228
0.079016
0.068424
0.065256
0.10595
0.10594
0.10471
0.10348
0.099992
0.098371
0.091714
0.090021
0.081145
0.078853
0.068274
0.065016
0.10611
0.1061
0.10486
0.10362
0.10009
0.09844
0.091732
0.089973
0.081063
0.078689
0.068123
0.064775
0.10627
0.10626
0.10501
0.10375
0.10018
0.098513
0.091753
0.089927
0.080984
0.078526
0.067972
0.064533
0.10643
0.10643
0.10517
0.10389
0.10029
0.098589
0.091778
0.089883
0.080905
0.078363
0.067821
0.064291
0.1066
0.1066
0.10533
0.10404
0.10039
0.098668
0.091806
0.089842
0.080829
0.078201
0.06767
0.064047
0.10678
0.10678
0.10549
0.10419
0.10051
0.09875
0.091838
0.089802
0.080755
0.078038
0.067518
0.063802
0.10696
0.10696
0.10566
0.10435
0.10062
0.098837
0.091874
0.089765
0.080682
0.077877
0.067366
0.063557
0.10715
0.10715
0.10584
0.10451
0.10074
0.098928
0.091915
0.089731
0.080612
0.077715
0.067213
0.06331
0.10734
0.10735
0.10602
0.10468
0.10087
0.099023
0.091959
0.089699
0.080544
0.077554
0.06706
0.063061
0.10754
0.10755
0.10621
0.10486
0.10101
0.099122
0.092009
0.08967
0.080478
0.077394
0.066906
0.062811
0.10774
0.10776
0.10641
0.10504
0.10115
0.099226
0.092062
0.089645
0.080415
0.077234
0.066752
0.06256
0.10796
0.10798
0.10661
0.10523
0.10129
0.099335
0.092121
0.089622
0.080354
0.077075
0.066597
0.062307
0.10818
0.1082
0.10682
0.10543
0.10144
0.09945
0.092185
0.089603
0.080296
0.076916
0.066442
0.062052
0.1084
0.10843
0.10704
0.10563
0.1016
0.09957
0.092255
0.089588
0.080241
0.076758
0.066286
0.061795
0.10864
0.10867
0.10727
0.10585
0.10177
0.099695
0.09233
0.089577
0.080189
0.076601
0.066129
0.061536
0.10888
0.10892
0.1075
0.10607
0.10195
0.099827
0.092411
0.089569
0.080139
0.076445
0.065971
0.061275
0.10913
0.10918
0.10774
0.10629
0.10213
0.099965
0.092498
0.089566
0.080093
0.07629
0.065813
0.061011
0.10938
0.10944
0.10799
0.10653
0.10232
0.10011
0.092591
0.089567
0.08005
0.076135
0.065653
0.060745
0.10965
0.10972
0.10825
0.10678
0.10252
0.10026
0.092691
0.089573
0.08001
0.075982
0.065492
0.060476
0.10992
0.11
0.10852
0.10703
0.10273
0.10042
0.092797
0.089583
0.079974
0.07583
0.065331
0.060205
0.11021
0.11029
0.1088
0.1073
0.10294
0.10059
0.092911
0.089598
0.079941
0.075678
0.065168
0.05993
0.1105
0.1106
0.10909
0.10757
0.10317
0.10076
0.093031
0.089618
0.079912
0.075528
0.065004
0.059652
0.1108
0.11091
0.10939
0.10786
0.10341
0.10094
0.093159
0.089644
0.079887
0.075378
0.064838
0.059371
0.11112
0.11123
0.1097
0.10815
0.10365
0.10113
0.093295
0.089674
0.079865
0.07523
0.064671
0.059086
0.11144
0.11157
0.11002
0.10846
0.10391
0.10133
0.093438
0.08971
0.079847
0.075083
0.064502
0.058797
0.11177
0.11191
0.11035
0.10878
0.10418
0.10154
0.093589
0.089752
0.079832
0.074936
0.064332
0.058505
0.11212
0.11227
0.11069
0.1091
0.10446
0.10175
0.093749
0.089799
0.079822
0.07479
0.064159
0.058208
0.11247
0.11263
0.11105
0.10944
0.10475
0.10198
0.093916
0.089852
0.079815
0.074645
0.063984
0.057906
0.11284
0.11301
0.11141
0.1098
0.10505
0.10221
0.094092
0.089911
0.079812
0.074501
0.063807
0.057599
0.11321
0.11341
0.11179
0.11016
0.10536
0.10246
0.094277
0.089975
0.079813
0.074357
0.063627
0.057287
0.1136
0.11381
0.11218
0.11054
0.10569
0.10271
0.094471
0.090046
0.079817
0.074214
0.063444
0.05697
0.114
0.11423
0.11259
0.11093
0.10603
0.10298
0.094673
0.090122
0.079825
0.074071
0.063258
0.056646
0.11442
0.11465
0.11301
0.11133
0.10638
0.10325
0.094884
0.090204
0.079836
0.073928
0.063068
0.056317
0.11484
0.1151
0.11344
0.11174
0.10674
0.10354
0.095105
0.090292
0.079851
0.073784
0.062874
0.05598
0.11528
0.11555
0.11388
0.11217
0.10712
0.10383
0.095334
0.090385
0.079868
0.07364
0.062677
0.055636
0.11572
0.11602
0.11434
0.11261
0.10751
0.10414
0.095572
0.090484
0.079888
0.073496
0.062474
0.055285
0.11618
0.1165
0.11481
0.11307
0.10792
0.10446
0.09582
0.090589
0.079911
0.073349
0.062266
0.054925
0.11666
0.117
0.1153
0.11354
0.10833
0.10479
0.096077
0.090698
0.079936
0.073202
0.062053
0.054557
0.11715
0.1175
0.1158
0.11402
0.10877
0.10513
0.096343
0.090813
0.079963
0.073052
0.061833
0.054179
0.11765
0.11803
0.11632
0.11452
0.10921
0.10548
0.096618
0.090933
0.079991
0.072899
0.061607
0.053791
0.11816
0.11856
0.11685
0.11504
0.10967
0.10584
0.096902
0.091057
0.08002
0.072744
0.061373
0.053393
0.11869
0.11912
0.1174
0.11556
0.11015
0.10621
0.097195
0.091185
0.080051
0.072585
0.061131
0.052983
0.11923
0.11968
0.11797
0.11611
0.11064
0.1066
0.097497
0.091318
0.080081
0.072422
0.06088
0.052561
0.11978
0.12026
0.11855
0.11667
0.11115
0.107
0.097808
0.091454
0.080111
0.072253
0.06062
0.052126
0.12035
0.12086
0.11914
0.11724
0.11167
0.1074
0.098127
0.091594
0.080141
0.07208
0.06035
0.051678
0.12093
0.12147
0.11976
0.11783
0.11221
0.10782
0.098456
0.091737
0.080169
0.0719
0.060069
0.051215
0.12153
0.1221
0.12039
0.11844
0.11277
0.10826
0.098793
0.091883
0.080195
0.071713
0.059775
0.050737
0.12215
0.12275
0.12104
0.11907
0.11334
0.1087
0.09914
0.092031
0.08022
0.071519
0.059469
0.050242
0.12278
0.12341
0.12172
0.11971
0.11393
0.10916
0.099495
0.092182
0.080241
0.071316
0.059149
0.04973
0.12343
0.1241
0.12241
0.12037
0.11454
0.10963
0.09986
0.092334
0.080258
0.071104
0.058815
0.0492
0.1241
0.1248
0.12312
0.12106
0.11517
0.11012
0.10023
0.092489
0.080272
0.070882
0.058464
0.04865
0.12478
0.12552
0.12386
0.12176
0.11582
0.11062
0.10062
0.092645
0.080281
0.070649
0.058097
0.04808
0.12549
0.12627
0.12462
0.12249
0.11649
0.11114
0.10101
0.092802
0.080285
0.070404
0.057713
0.047488
0.12622
0.12704
0.12541
0.12325
0.11719
0.11167
0.10141
0.092962
0.080284
0.070148
0.05731
0.046873
0.12697
0.12783
0.12623
0.12403
0.11791
0.11222
0.10183
0.093122
0.080277
0.069878
0.056887
0.046234
0.12775
0.12866
0.12707
0.12483
0.11865
0.11279
0.10226
0.093285
0.080264
0.069594
0.056443
0.045569
0.12856
0.12951
0.12795
0.12567
0.11943
0.11338
0.1027
0.09345
0.080244
0.069295
0.055977
0.044878
0.12939
0.13039
0.12887
0.12655
0.12024
0.11399
0.10315
0.093616
0.080217
0.068981
0.055489
0.044159
0.13026
0.13132
0.12982
0.12746
0.12108
0.11463
0.10362
0.093786
0.080183
0.068651
0.054976
0.04341
0.13117
0.13228
0.13082
0.12841
0.12196
0.1153
0.1041
0.093958
0.080141
0.068303
0.054438
0.042629
0.13211
0.13328
0.13187
0.12941
0.12288
0.11599
0.1046
0.094134
0.080091
0.067938
0.053874
0.041817
0.13309
0.13433
0.13297
0.13046
0.12384
0.11672
0.10512
0.094314
0.080033
0.067553
0.053281
0.040969
0.13413
0.13543
0.13412
0.13156
0.12485
0.11748
0.10566
0.094497
0.079966
0.067149
0.052659
0.040086
0.1352
0.13659
0.13533
0.13272
0.12591
0.11827
0.10623
0.094686
0.079888
0.066722
0.052005
0.039164
0.13634
0.1378
0.13661
0.13394
0.12703
0.11911
0.10681
0.094878
0.0798
0.066272
0.051318
0.038202
0.13752
0.13909
0.13796
0.13523
0.12821
0.12
0.10742
0.095075
0.079699
0.065797
0.050596
0.037198
0.13877
0.14044
0.13939
0.1366
0.12945
0.12093
0.10805
0.095276
0.079583
0.065293
0.049834
0.036149
0.14008
0.14186
0.1409
0.13805
0.13076
0.1219
0.10871
0.095479
0.07945
0.064759
0.049031
0.035051
0.14146
0.14336
0.14249
0.13958
0.13214
0.12293
0.10939
0.095682
0.079297
0.064189
0.048182
0.033902
0.1429
0.14495
0.14418
0.1412
0.1336
0.12402
0.1101
0.095884
0.07912
0.063579
0.047282
0.032698
0.14441
0.14662
0.14596
0.14292
0.13513
0.12515
0.11083
0.096081
0.078912
0.062923
0.046327
0.031433
0.14599
0.14838
0.14785
0.14475
0.13675
0.12634
0.11157
0.096269
0.078669
0.062216
0.045308
0.030104
0.14764
0.15024
0.14984
0.14667
0.13845
0.12759
0.11234
0.096441
0.078384
0.061449
0.04422
0.028703
0.14937
0.15219
0.15194
0.14871
0.14024
0.12889
0.11312
0.096593
0.078047
0.060614
0.043053
0.027222
0.15116
0.15424
0.15415
0.15086
0.14212
0.13024
0.1139
0.096716
0.07765
0.0597
0.041798
0.025655
0.15301
0.15638
0.15649
0.15313
0.14408
0.13165
0.11468
0.0968
0.077182
0.058698
0.040445
0.023991
0.15492
0.15863
0.15894
0.15552
0.14613
0.13309
0.11546
0.096837
0.076632
0.057596
0.038982
0.022221
0.15689
0.16097
0.16152
0.15803
0.14827
0.13458
0.11622
0.096815
0.075986
0.056382
0.037398
0.020332
0.15891
0.16342
0.16423
0.16068
0.1505
0.1361
0.11695
0.09672
0.075232
0.055042
0.035681
0.018314
0.16098
0.16597
0.16708
0.16346
0.15282
0.13764
0.11764
0.096538
0.074355
0.053565
0.033817
0.016153
0.16309
0.16863
0.17009
0.16639
0.15524
0.13921
0.11828
0.096254
0.073339
0.051936
0.031795
0.013839
0.16524
0.17141
0.17326
0.16948
0.15775
0.14079
0.11885
0.095848
0.072167
0.05014
0.029603
0.011359
0.16741
0.17432
0.17663
0.17274
0.16036
0.14237
0.11933
0.095299
0.070819
0.048162
0.027227
0.0087044
0.16962
0.17737
0.18021
0.1762
0.16308
0.14393
0.11971
0.09458
0.069271
0.045984
0.024654
0.0058644
0.17185
0.18058
0.18404
0.17988
0.1659
0.14547
0.11994
0.093658
0.067494
0.043582
0.021868
0.0028304
0.17408
0.18397
0.18815
0.18379
0.16883
0.14695
0.12
0.09249
0.06545
0.040928
0.01885
-0.00040722
0.1763
0.18756
0.19259
0.18797
0.17186
0.14833
0.11983
0.091024
0.063093
0.037986
0.015576
-0.0038595
0.17848
0.19136
0.19739
0.19243
0.17497
0.14958
0.11937
0.089193
0.060365
0.034709
0.012013
-0.0075409
0.18056
0.19538
0.20259
0.19719
0.17813
0.15062
0.11853
0.086917
0.057196
0.03104
0.0081218
-0.011471
0.18246
0.19961
0.20819
0.20223
0.18128
0.15137
0.11722
0.084102
0.053505
0.026915
0.0038548
-0.015674
0.18404
0.20401
0.2142
0.2075
0.18432
0.15169
0.11532
0.080642
0.049207
0.022265
-0.00083753
-0.020178
0.18514
0.20851
0.22056
0.21294
0.18712
0.15145
0.11268
0.076425
0.044216
0.017029
-0.0059994
-0.025006
0.18551
0.21295
0.22716
0.21837
0.18948
0.15044
0.10915
0.071337
0.03846
0.01116
-0.011658
-0.030172
0.18484
0.21715
0.23381
0.22358
0.19114
0.14844
0.10455
0.065272
0.031883
0.0046409
-0.01781
-0.035662
0.18274
0.22076
0.24016
0.22817
0.19174
0.14517
0.098705
0.058138
0.024461
-0.0025089
-0.02441
-0.041426
0.17876
0.22327
0.2456
0.23156
0.19081
0.1403
0.091428
0.049861
0.016194
-0.010234
-0.031372
-0.047371
0.17241
0.22388
0.24913
0.23281
0.18766
0.13344
0.082538
0.040393
0.0071149
-0.018449
-0.038574
-0.053371
0.1632
0.22135
0.24906
0.23042
0.18133
0.1241
0.071872
0.029732
-0.0027078
-0.027047
-0.045879
-0.059284
0.15081
0.21378
0.24265
0.22212
0.17046
0.11171
0.059309
0.017951
-0.013145
-0.035896
-0.053152
-0.06498
0.13524
0.19847
0.22581
0.20452
0.15314
0.095528
0.044763
0.0052209
-0.023979
-0.044812
-0.06025
-0.070359
0.11727
0.1721
0.19306
0.17311
0.12686
0.074593
0.028107
-0.0082415
-0.034915
-0.053562
-0.067028
-0.07535
0.0987
0.13163
0.13868
0.12281
0.088637
0.047613
0.008999
-0.022337
-0.045705
-0.061918
-0.073351
-0.07992
0.081891
0.074716
0.058807
0.049815
0.035675
0.013019
-0.013266
-0.037274
-0.056313
-0.069782
-0.079166
-0.0841
0.069944
-0.0033254
-0.051265
-0.049389
-0.035145
-0.031553
-0.040155
-0.053881
-0.067204
-0.077443
-0.084704
-0.088153
0.077215
-0.094737
-0.18551
-0.17021
-0.12255
-0.087101
-0.07328
-0.073663
-0.079643
-0.085936
-0.090827
-0.092843
0.11638
-0.17677
-0.31728
-0.28883
-0.20983
-0.14458
-0.10884
-0.095458
-0.093544
-0.095495
-0.097838
-0.098342
0.10287
0.063497
0.0534
0.047388
0.043243
0.040147
0.037676
0.035559
0.033748
0.031925
0.030471
0.028089
0.12223
0.078767
0.066222
0.058223
0.05277
0.048747
0.045566
0.042863
0.040574
0.038273
0.036492
0.033715
0.10957
0.07366
0.062308
0.054437
0.049053
0.045101
0.041996
0.03937
0.037174
0.034958
0.033304
0.030609
0.10451
0.07332
0.062298
0.054337
0.048817
0.044752
0.041562
0.03887
0.036633
0.03437
0.032716
0.029898
0.10386
0.075469
0.064289
0.056113
0.05035
0.046081
0.042724
0.039892
0.037545
0.035172
0.033448
0.030475
0.10319
0.077261
0.066011
0.057703
0.051743
0.047298
0.043794
0.040836
0.038389
0.035919
0.034128
0.031043
0.10205
0.078518
0.067343
0.058987
0.052881
0.048293
0.044663
0.041599
0.039066
0.036518
0.034668
0.031515
0.10084
0.079542
0.068532
0.060179
0.053961
0.049245
0.0455
0.042338
0.039724
0.037111
0.035204
0.032022
0.099707
0.080422
0.069645
0.061337
0.055037
0.050207
0.046356
0.043101
0.040408
0.037741
0.035781
0.032607
0.098621
0.081149
0.070668
0.06245
0.0561
0.051176
0.047227
0.043886
0.041119
0.038407
0.0364
0.03327
0.097569
0.081723
0.07159
0.063503
0.057139
0.052142
0.048107
0.044689
0.041855
0.039108
0.03706
0.034008
0.096546
0.082158
0.072409
0.064488
0.058145
0.053098
0.048994
0.045509
0.042614
0.039843
0.037762
0.034818
0.095556
0.082471
0.073127
0.0654
0.05911
0.054037
0.04988
0.046341
0.043394
0.040609
0.038502
0.03569
0.0946
0.082676
0.073747
0.066234
0.060024
0.05495
0.050758
0.047178
0.044189
0.041399
0.039274
0.036612
0.09368
0.08279
0.074273
0.066989
0.060882
0.055828
0.051618
0.048011
0.04499
0.042205
0.040069
0.037568
0.092797
0.082826
0.074712
0.067665
0.06168
0.056665
0.052454
0.048832
0.04579
0.043019
0.040877
0.038539
0.091952
0.082798
0.075072
0.068265
0.062414
0.057455
0.053258
0.049635
0.046581
0.043829
0.041686
0.03951
0.091144
0.082717
0.07536
0.068792
0.063085
0.058195
0.054025
0.050412
0.047355
0.044629
0.042488
0.040463
0.090374
0.082593
0.075585
0.069251
0.063693
0.058884
0.054752
0.051158
0.048106
0.04541
0.043273
0.041385
0.089638
0.082433
0.075753
0.069647
0.064242
0.05952
0.055435
0.051869
0.048829
0.046165
0.044034
0.042265
0.088937
0.082245
0.075872
0.069987
0.064735
0.060106
0.056075
0.052543
0.04952
0.046889
0.044764
0.043093
0.088268
0.082035
0.075948
0.070274
0.065174
0.060642
0.05667
0.053178
0.050177
0.047578
0.04546
0.043864
0.08763
0.081807
0.075987
0.070515
0.065563
0.061131
0.057223
0.053774
0.050798
0.048229
0.046118
0.044575
0.08702
0.081565
0.075992
0.070713
0.065907
0.061574
0.057733
0.05433
0.051382
0.048842
0.046737
0.045225
0.086437
0.081313
0.07597
0.070874
0.066209
0.061976
0.058202
0.054848
0.051929
0.049415
0.047317
0.045815
0.085878
0.081052
0.075924
0.071
0.066472
0.062337
0.058633
0.055328
0.05244
0.049949
0.047857
0.046347
0.085341
0.080785
0.075856
0.071097
0.0667
0.062662
0.059028
0.055771
0.052916
0.050444
0.048358
0.046825
0.084826
0.080514
0.07577
0.071166
0.066896
0.062953
0.059388
0.05618
0.053358
0.050903
0.048823
0.047254
0.08433
0.08024
0.075669
0.071212
0.067063
0.063212
0.059716
0.056557
0.053768
0.051326
0.049253
0.047638
0.083853
0.079963
0.075554
0.071236
0.067203
0.063442
0.060014
0.056902
0.054147
0.051717
0.049651
0.047983
0.083391
0.079686
0.075428
0.071241
0.06732
0.063646
0.060284
0.057218
0.054497
0.052076
0.050017
0.048292
0.082945
0.079409
0.075292
0.07123
0.067414
0.063824
0.060528
0.057508
0.05482
0.052406
0.050355
0.04857
0.082514
0.079132
0.075147
0.071202
0.067489
0.063979
0.060748
0.057771
0.055117
0.052709
0.050666
0.048823
0.082095