/*--------------------------------*- C++ -*----------------------------------*\
  =========                 |
  \\      /  F ield         | OpenFOAM: The Open Source CFD Toolbox
   \\    /   O peration     | Website:  https://openfoam.org
    \\  /    A nd           | Version:  6.0
     \\/     M anipulation  |
\*---------------------------------------------------------------------------*/
FoamFile
{
    version     2.0;
    format      ascii;
    class       volVectorField;
    location    "3.44";
    object      U;
}
// * * * * * * * * * * * * * * * * * * * * * * * * * * * * * * * * * * * * * //

dimensions      [0 1 -1 0 0 0 0];

internalField   nonuniform List<vector> 
13500
(
(1 2.5582e-06 -4.2572e-18)
(1 -3.0918e-06 2.8828e-18)
(1 -5.861e-06 -1.2389e-17)
(1 -1.0269e-05 -8.5782e-18)
(1 -9.2786e-06 1.6111e-17)
(1 -9.3035e-06 3.0022e-17)
(1 -1.2558e-06 2.5669e-17)
(0.99998 1.4754e-05 -4.1446e-18)
(0.99992 3.6526e-05 1.5193e-17)
(0.9998 7.5304e-05 3.2381e-18)
(0.99571 0.00075718 2.8545e-17)
(1.019 0.010845 7.707e-18)
(1 7.9857e-06 2.6375e-18)
(1 -8.3106e-06 -8.7548e-18)
(1 -1.5502e-05 5.9164e-18)
(1 -2.8153e-05 -3.3836e-19)
(1 -2.3866e-05 -4.2965e-19)
(1 -2.4432e-05 -3.6099e-17)
(1 1.9091e-06 -4.4334e-17)
(0.99993 4.7491e-05 -2.3714e-17)
(0.99975 0.00012197 -1.5163e-17)
(0.99982 0.00018725 -1.6013e-18)
(0.98616 0.0021926 -1.3518e-17)
(1.0534 0.03066 -4.6664e-18)
(1 1.3407e-05 -3.4066e-18)
(1 -1.363e-05 1.7394e-17)
(1 -2.5329e-05 3.0774e-18)
(1 -4.6421e-05 9.8905e-18)
(1 -3.8657e-05 -3.7151e-18)
(1 -4.0344e-05 2.8917e-17)
(1 5.4064e-06 -6.2404e-18)
(0.99989 7.9131e-05 5.3868e-18)
(0.99956 0.00021553 -1.8395e-17)
(1.0003 0.00031495 2.4327e-17)
(0.97595 0.0032772 -7.0676e-18)
(1.0819 0.045218 1.6359e-18)
(1 1.8772e-05 8.9056e-18)
(1 -1.9193e-05 -1.6864e-17)
(1 -3.56e-05 -1.4588e-17)
(1 -6.5371e-05 -6.9396e-19)
(1 -5.4106e-05 5.735e-18)
(1.0001 -5.7173e-05 -8.0243e-19)
(1 8.5605e-06 6.1487e-17)
(0.99986 0.0001094 9.7054e-18)
(0.99933 0.00031612 2.1752e-17)
(1.0013 0.00046259 -8.8117e-18)
(0.96548 0.0040373 3.4415e-17)
(1.1032 0.055794 -7.446e-18)
(1 2.4131e-05 -6.2575e-18)
(1 -2.4788e-05 1.4575e-17)
(1 -4.5933e-05 1.2418e-17)
(1 -8.4417e-05 1.2659e-17)
(1 -6.9638e-05 2.812e-18)
(1.0001 -7.4138e-05 2.1254e-17)
(1 1.1828e-05 -2.7457e-17)
(0.99984 0.00013865 1.9714e-18)
(0.99905 0.00042267 -1.3337e-17)
(1.0026 0.00063216 -2.1025e-18)
(0.95514 0.0045229 -8.9263e-18)
(1.1172 0.063516 2.0649e-18)
(0.99999 2.9484e-05 6.3327e-18)
(1 -3.0411e-05 -6.0421e-18)
(1 -5.6332e-05 3.7925e-18)
(1 -0.00010355 -2.5076e-17)
(1.0001 -8.5263e-05 -8.2375e-20)
(1.0001 -9.1251e-05 -4.2076e-17)
(1 1.5206e-05 1.0535e-18)
(0.99983 0.00016669 -1.5824e-17)
(0.99871 0.00053378 5.0787e-18)
(1.0043 0.00083028 -2.1185e-17)
(0.94527 0.0047763 -2.1487e-17)
(1.1246 0.068997 1.9953e-18)
(0.99999 3.4833e-05 -1.0482e-18)
(1 -3.6066e-05 -7.2264e-18)
(1 -6.6797e-05 -3.0822e-18)
(1.0001 -0.00012278 1.8927e-17)
(1.0001 -0.00010097 -2.6045e-17)
(1.0001 -0.00010855 1.61e-17)
(1 1.8738e-05 1.8364e-17)
(0.99983 0.00019342 5.5672e-18)
(0.99831 0.00064814 1.1354e-17)
(1.0064 0.0010633 1.1405e-17)
(0.93618 0.0048354 9.2566e-18)
(1.1264 0.072663 3.202e-18)
(0.99999 4.0178e-05 -2.1636e-18)
(1 -4.1754e-05 -1.4216e-18)
(1 -7.7332e-05 -2.6552e-17)
(1.0001 -0.00014212 -9.0378e-18)
(1.0001 -0.00011677 7.29e-18)
(1.0001 -0.00012604 2.6385e-17)
(1 2.2443e-05 1.1688e-17)
(0.99985 0.00021877 4.9702e-18)
(0.99783 0.00076441 -7.4209e-18)
(1.0088 0.0013349 1.5974e-17)
(0.92808 0.0047366 7.4753e-18)
(1.1235 0.074874 -1.0181e-17)
(0.99999 4.5517e-05 -6.7167e-18)
(1 -4.7478e-05 6.1117e-18)
(1 -8.7939e-05 4.4644e-17)
(1.0001 -0.00016158 -1.0841e-17)
(1.0001 -0.00013267 2.73e-17)
(1.0001 -0.00014376 -5.2093e-17)
(1 2.6322e-05 -3.8937e-17)
(0.99988 0.00024268 9.6581e-18)
(0.99728 0.00088123 -5.5734e-18)
(1.0114 0.0016467 -8.8103e-18)
(0.92114 0.0045146 -1.3813e-17)
(1.117 0.075937 1.3318e-17)
(0.99999 5.0852e-05 4.4252e-18)
(1 -5.3237e-05 2.3005e-18)
(1 -9.8622e-05 -3.7817e-17)
(1.0001 -0.00018115 1.5428e-17)
(1.0001 -0.00014867 -1.1905e-17)
(1.0001 -0.0001617 2.2218e-17)
(1 3.0374e-05 1.3837e-17)
(0.99993 0.00026512 2.4418e-18)
(0.99664 0.00099732 5.264e-19)
(1.0141 0.001998 1.3955e-18)
(0.91546 0.0042015 4.3941e-18)
(1.1077 0.076104 -6.9831e-19)
(0.99998 5.618e-05 -2.4296e-18)
(1 -5.9034e-05 -7.5448e-18)
(1 -0.00010938 9.2699e-18)
(1.0001 -0.00020084 -2.7222e-18)
(1.0001 -0.00016479 1.8377e-18)
(1.0002 -0.00017989 -2.435e-17)
(1 3.4601e-05 -3.1869e-17)
(1 0.0002861 -3.1011e-17)
(0.99592 0.0011115 1.5579e-17)
(1.017 0.002387 1.8125e-18)
(0.91108 0.0038269 -1.1146e-17)
(1.0965 0.075581 -5.7375e-18)
(0.99998 6.1503e-05 3.3536e-18)
(0.99999 -6.487e-05 2.8498e-18)
(1 -0.00012023 4.4675e-18)
(1.0001 -0.00022065 -2.1696e-18)
(1.0001 -0.00018102 -5.5086e-18)
(1.0002 -0.00019835 9.2095e-18)
(1.0001 3.8999e-05 1.8448e-17)
(1.0001 0.00030565 1.9158e-17)
(0.99511 0.0012226 1.0009e-17)
(1.0199 0.0028104 -2.2891e-17)
(0.90801 0.003417 1.169e-19)
(1.0841 0.074539 -6.6401e-18)
(0.99998 6.6818e-05 -3.353e-18)
(0.99999 -7.0745e-05 5.6042e-18)
(1 -0.00013116 8.1e-18)
(1.0001 -0.00024059 5.6648e-18)
(1.0001 -0.00019738 -5.1093e-18)
(1.0002 -0.00021708 4.5276e-18)
(1.0001 4.3565e-05 4.2066e-18)
(1.0002 0.00032381 -1.7108e-18)
(0.99422 0.0013296 -1.6178e-17)
(1.0228 0.0032642 2.1227e-17)
(0.90621 0.002995 1.04e-19)
(1.0711 0.073117 1.4227e-18)
(0.99997 7.2127e-05 5.099e-18)
(0.99999 -7.6661e-05 -4.3747e-18)
(1 -0.00014218 7.0917e-19)
(1.0001 -0.00026066 -4.7258e-18)
(1.0002 -0.00021387 1.1603e-17)
(1.0002 -0.00023611 5.5244e-18)
(1.0001 4.829e-05 1.6926e-17)
(1.0004 0.00034066 -6.3544e-18)
(0.99326 0.0014316 -1.9766e-19)
(1.0257 0.0037434 5.2126e-18)
(0.90561 0.0025809 1.6918e-17)
(1.058 0.071429 9.0746e-19)
(0.99997 7.7427e-05 1.2298e-18)
(0.99999 -8.2619e-05 9.709e-18)
(1 -0.0001533 1.3545e-17)
(1.0001 -0.00028088 -4.7119e-18)
(1.0002 -0.00023051 8.4022e-18)
(1.0002 -0.00025545 -2.5789e-18)
(1.0001 5.3163e-05 -2.9644e-17)
(1.0005 0.0003563 2.0114e-17)
(0.99221 0.0015278 -1.8242e-17)
(1.0285 0.0042431 -3.0067e-17)
(0.90613 0.0021913 -3.7136e-18)
(1.0451 0.069566 8.4058e-19)
(0.99996 8.272e-05 -3.1375e-18)
(0.99999 -8.8621e-05 -1.0326e-17)
(1 -0.0001645 -3.2511e-17)
(1.0001 -0.00030123 7.9384e-18)
(1.0002 -0.00024729 -1.275e-17)
(1.0003 -0.00027512 8.2692e-18)
(1.0001 5.8167e-05 -2.7735e-18)
(1.0008 0.00037086 -1.2108e-17)
(0.99109 0.0016176 4.006e-18)
(1.0311 0.0047579 1.7954e-17)
(0.90766 0.0018398 -7.7947e-18)
(1.0329 0.067602 1.1666e-17)
(0.99996 8.8004e-05 3.3014e-19)
(0.99998 -9.4669e-05 7.7227e-18)
(1 -0.00017581 2.2446e-17)
(1.0001 -0.00032173 -1.788e-18)
(1.0002 -0.00026424 -1.2667e-17)
(1.0003 -0.00029514 -1.541e-17)
(1.0001 6.3282e-05 1.0595e-17)
(1.001 0.00038446 6.9447e-18)
(0.98991 0.0017002 2.315e-17)
(1.0337 0.0052824 -2.5136e-18)
(0.91008 0.0015368 1.937e-18)
(1.0215 0.065596 -4.6546e-18)
(0.99996 9.3279e-05 -1.8522e-18)
(0.99998 -0.00010076 -9.3576e-18)
(1 -0.00018723 -1.0128e-17)
(1.0001 -0.00034238 5.9748e-18)
(1.0002 -0.00028134 -7.1144e-18)
(1.0003 -0.00031552 -1.2361e-17)
(1 6.8483e-05 1.0299e-17)
(1.0013 0.00039727 -4.7111e-18)
(0.98868 0.0017752 -2.8647e-17)
(1.036 0.0058117 -1.4086e-17)
(0.91329 0.0012901 8.408e-18)
(1.0112 0.063593 -5.047e-18)
(0.99995 9.8546e-05 -2.6522e-18)
(0.99997 -0.00010691 -3.5369e-18)
(1 -0.00019875 -7.5062e-19)
(1.0001 -0.00036319 -2.6164e-17)
(1.0002 -0.00029862 5.9691e-18)
(1.0003 -0.00033627 5.3822e-18)
(1 7.3739e-05 -1.9571e-17)
(1.0016 0.00040947 -1.6086e-17)
(0.98739 0.0018421 4.191e-18)
(1.0381 0.0063408 -1.0572e-18)
(0.91715 0.0011047 -9.709e-18)
(1.0019 0.061629 9.5464e-19)
(0.99994 0.0001038 3.4498e-18)
(0.99997 -0.0001131 1.6214e-17)
(1 -0.00021038 1.9329e-17)
(1.0002 -0.00038416 2.4636e-18)
(1.0002 -0.00031608 1.6502e-17)
(1.0004 -0.00035741 9.4326e-18)
(1 7.9013e-05 2.8249e-18)
(1.0019 0.00042125 1.7607e-17)
(0.98607 0.0019004 2.0816e-17)
(1.0399 0.0068654 1.6819e-17)
(0.92156 0.00098349 7.2478e-18)
(0.99385 0.059731 1.1324e-18)
(0.99994 0.00010905 -1.6443e-18)
(0.99997 -0.00011934 -3.8903e-18)
(1 -0.00022213 -2.0593e-17)
(1.0002 -0.0004053 -2.3334e-18)
(1.0002 -0.00033374 -1.2507e-17)
(1.0004 -0.00037896 -5.1039e-18)
(0.99999 8.4263e-05 -1.8128e-18)
(1.0023 0.00043282 -1.5921e-17)
(0.98471 0.00195 -1.9902e-17)
(1.0416 0.0073815 8.6191e-18)
(0.92639 0.00092716 4.9852e-19)
(0.98696 0.057918 6.4984e-19)
(0.99993 0.00011429 4.3587e-18)
(0.99996 -0.00012564 -5.0827e-18)
(1 -0.00023399 -1.9315e-17)
(1.0002 -0.0004266 4.4356e-17)
(1.0002 -0.00035159 1.8143e-17)
(1.0004 -0.00040093 -1.249e-17)
(0.99995 8.944e-05 2.4373e-17)
(1.0027 0.0004444 2.1519e-17)
(0.98333 0.0019904 3.2293e-17)
(1.0429 0.0078856 -3.1588e-17)
(0.93155 0.00093484 -1.3314e-17)
(0.98124 0.056202 1.7123e-19)
(0.99993 0.00011951 -3.1904e-18)
(0.99996 -0.00013199 -1.02e-18)
(1 -0.00024598 3.2976e-17)
(1.0002 -0.00044809 -3.3531e-17)
(1.0002 -0.00036965 -1.7464e-18)
(1.0005 -0.00042334 4.1382e-17)
(0.99991 9.449e-05 7.5532e-18)
(1.0032 0.00045623 -3.3236e-18)
(0.98194 0.0020215 -2.0026e-17)
(1.044 0.0083744 3.7224e-17)
(0.93694 0.0010042 -5.6415e-18)
(0.97664 0.054592 -2.7234e-19)
(0.99992 0.00012473 -1.6265e-18)
(0.99995 -0.0001384 -2.0325e-18)
(1 -0.0002581 1.7175e-18)
(1.0002 -0.00046975 3.4884e-17)
(1.0003 -0.00038793 -9.847e-18)
(1.0005 -0.00044619 -3.0588e-17)
(0.99987 9.9351e-05 -1.9258e-17)
(1.0037 0.00046854 -3.579e-18)
(0.98055 0.002043 6.3321e-18)
(1.0449 0.0088453 -3.1399e-17)
(0.94247 0.0011318 9.4482e-18)
(0.97311 0.053092 2.9506e-18)
(0.99991 0.00012993 2.6879e-18)
(0.99995 -0.00014487 1.4146e-17)
(1 -0.00027034 -1.2665e-17)
(1.0002 -0.0004916 -3.6522e-18)
(1.0003 -0.00040644 -1.8898e-17)
(1.0005 -0.00046951 3.3279e-17)
(0.99981 0.00010395 -1.6905e-17)
(1.0042 0.0004816 1.484e-17)
(0.97918 0.0020548 -1.9515e-18)
(1.0454 0.0092961 2.9436e-17)
(0.94804 0.0013135 -9.2228e-18)
(0.97055 0.051704 -4.9234e-18)
(0.9999 0.00013512 -5.1553e-19)
(0.99994 -0.00015139 -8.1358e-18)
(1 -0.00028273 -1.7734e-17)
(1.0002 -0.00051365 -1.0009e-17)
(1.0003 -0.00042518 1.833e-17)
(1.0006 -0.00049329 -4.2437e-17)
(0.99974 0.00010822 -2.6084e-18)
(1.0048 0.00049565 -2.0049e-17)
(0.97782 0.0020568 3.1515e-18)
(1.0457 0.0097249 -8.4901e-18)
(0.9536 0.0015442 9.8167e-18)
(0.9689 0.050424 2.0881e-18)
(0.9999 0.0001403 2.7008e-18)
(0.99993 -0.00015798 -8.7152e-18)
(1 -0.00029525 -1.7525e-18)
(1.0002 -0.00053588 2.4324e-18)
(1.0003 -0.00044418 5.8017e-18)
(1.0006 -0.00051755 1.2262e-17)
(0.99966 0.00011207 4.2767e-17)
(1.0054 0.00051097 2.3962e-18)
(0.97649 0.0020489 5.1346e-18)
(1.0457 0.01013 9.3562e-18)
(0.95908 0.0018186 -8.3981e-18)
(0.96804 0.04925 1.6029e-18)
(0.99989 0.00014547 -1.5486e-18)
(0.99993 -0.00016463 8.7072e-18)
(1 -0.00030792 2.5209e-17)
(1.0002 -0.00055833 -2.4506e-17)
(1.0003 -0.00046343 -9.0248e-18)
(1.0006 -0.00054231 -2.1581e-18)
(0.99957 0.00011542 -1.4097e-17)
(1.006 0.00052782 1.8591e-18)
(0.97521 0.002031 -8.8975e-18)
(1.0455 0.010511 -3.4392e-18)
(0.96442 0.0021313 -2.387e-19)
(0.9679 0.048177 -1.959e-18)
(0.99988 0.00015062 -1.6646e-18)
(0.99992 -0.00017135 5.212e-18)
(1 -0.00032073 -6.0953e-19)
(1.0002 -0.00058097 8.1259e-18)
(1.0003 -0.00048296 -1.6653e-17)
(1.0007 -0.00056755 2.4417e-17)
(0.99947 0.00011816 7.0309e-18)
(1.0067 0.00054647 -1.7736e-17)
(0.97397 0.002003 -1.1407e-17)
(1.045 0.010866 -1.3614e-17)
(0.96958 0.0024766 1.3303e-18)
(0.96837 0.047198 -3.588e-18)
(0.99987 0.00015576 5.7846e-19)
(0.99991 -0.00017813 -1.2447e-17)
(1 -0.0003337 1.5612e-17)
(1.0002 -0.00060384 2.2476e-17)
(1.0003 -0.00050276 3.264e-17)
(1.0007 -0.0005933 -1.7932e-17)
(0.99936 0.00012018 -1.7481e-17)
(1.0074 0.00056719 3.5988e-18)
(0.9728 0.0019651 1.0688e-17)
(1.0443 0.011196 1.0656e-17)
(0.97452 0.0028488 6.1974e-18)
(0.96935 0.046308 3.5661e-18)
(0.99986 0.00016088 1.1086e-18)
(0.99991 -0.00018498 9.8984e-18)
(1 -0.00034683 -3.5868e-17)
(1.0002 -0.00062691 -3.2563e-18)
(1.0003 -0.00052286 -2.7115e-17)
(1.0008 -0.00061955 -1.1296e-17)
(0.99924 0.00012137 2.4613e-20)
(1.0081 0.00059024 -4.1174e-18)
(0.9717 0.0019172 -2.1054e-17)
(1.0434 0.011499 -1.7013e-17)
(0.97919 0.0032425 -8.4658e-18)
(0.97077 0.045498 -1.7567e-18)
(0.99985 0.000166 -7.1852e-19)
(0.9999 -0.00019191 -6.4376e-18)
(1 -0.00036012 2.8223e-17)
(1.0002 -0.00065022 -3.1076e-17)
(1.0003 -0.00054327 -2.0399e-18)
(1.0008 -0.00064631 2.4056e-17)
(0.9991 0.00012162 6.9942e-19)
(1.0089 0.00061588 3.9259e-18)
(0.97067 0.0018595 1.8432e-17)
(1.0423 0.011776 2.2116e-17)
(0.98359 0.0036524 4.8429e-18)
(0.97253 0.044762 -9.8067e-19)
(0.99984 0.00017109 -1.8707e-18)
(0.99989 -0.0001989 -2.3742e-18)
(1 -0.00037358 -1.2512e-17)
(1.0002 -0.00067375 1.5481e-17)
(1.0003 -0.00056399 2.9801e-17)
(1.0009 -0.00067357 -1.0632e-17)
(0.99894 0.00012079 2.177e-17)
(1.0096 0.00064437 2.9428e-18)
(0.96973 0.001792 -2.0873e-18)
(1.041 0.012026 1.0004e-17)
(0.98769 0.0040736 -5.4132e-18)
(0.97457 0.044092 -6.8283e-19)
(0.99983 0.00017617 4.6782e-19)
(0.99988 -0.00020597 -6.2788e-18)
(0.99999 -0.00038722 4.684e-18)
(1.0002 -0.00069752 -1.5779e-17)
(1.0004 -0.00058505 -3.1523e-17)
(1.0009 -0.00070134 6.7005e-18)
(0.99878 0.00011873 -3.1407e-17)
(1.0104 0.00067594 -6.7291e-18)
(0.96888 0.0017149 6.7714e-18)
(1.0395 0.01225 -3.1401e-17)
(0.99147 0.0045013 3.7058e-18)
(0.9768 0.043481 1.9296e-18)
(0.99982 0.00018123 8.2161e-19)
(0.99987 -0.00021312 1.7011e-17)
(0.99999 -0.00040103 7.8433e-18)
(1.0002 -0.00072152 6.427e-18)
(1.0004 -0.00060646 2.5207e-17)
(1.001 -0.0007296 1.9982e-18)
(0.9986 0.0001153 2.1687e-17)
(1.0112 0.00071084 4.8262e-18)
(0.96813 0.0016285 -2.0578e-17)
(1.0379 0.012448 1.0811e-17)
(0.99493 0.0049312 2.5062e-18)
(0.97916 0.042922 2e-18)
(0.99981 0.00018628 -2.8691e-18)
(0.99986 -0.00022034 -5.5995e-18)
(0.99998 -0.00041502 -6.8904e-18)
(1.0002 -0.00074578 1.0556e-17)
(1.0004 -0.00062823 1.2178e-17)
(1.0011 -0.00075835 -3.9786e-18)
(0.9984 0.00011035 -1.8216e-17)
(1.0121 0.00074928 2.1976e-17)
(0.96749 0.001533 3.8117e-18)
(1.0361 0.012621 -3.266e-18)
(0.99807 0.0053593 1.0368e-17)
(0.9816 0.042408 -1.3898e-18)
(0.9998 0.00019131 5.8955e-18)
(0.99985 -0.00022765 6.7062e-18)
(0.99998 -0.00042921 -7.3251e-18)
(1.0002 -0.00077028 -6.5759e-18)
(1.0004 -0.00065037 -1.7475e-17)
(1.0011 -0.00078758 -6.8342e-18)
(0.99819 0.00010371 8.9814e-18)
(1.0129 0.00079148 -3.5249e-17)
(0.96696 0.0014287 9.3279e-18)
(1.0342 0.012768 -3.8608e-18)
(1.0009 0.0057818 -1.0979e-17)
(0.98407 0.041934 4.0354e-18)
(0.99979 0.00019632 -2.602e-18)
(0.99984 -0.00023504 -1.1783e-17)
(0.99997 -0.00044358 -7.0998e-18)
(1.0002 -0.00079504 -1.2479e-17)
(1.0004 -0.00067291 -5.336e-18)
(1.0012 -0.00081727 2.0096e-17)
(0.99797 9.5209e-05 -8.8227e-18)
(1.0137 0.00083764 3.9212e-17)
(0.96654 0.0013159 8.7943e-18)
(1.0322 0.012892 1.1715e-17)
(1.0034 0.0061956 4.6274e-18)
(0.98652 0.041492 -6.5433e-18)
(0.99978 0.00020132 -1.3803e-18)
(0.99983 -0.00024251 8.7629e-18)
(0.99996 -0.00045816 1.4067e-17)
(1.0003 -0.00082007 3.3646e-17)
(1.0004 -0.00069586 7.073e-18)
(1.0013 -0.00084741 -1.3784e-17)
(0.99773 8.4658e-05 4.2576e-18)
(1.0146 0.00088792 -4.2187e-17)
(0.96624 0.0011952 -1.0666e-17)
(1.0302 0.012991 -6.5142e-18)
(1.0055 0.0065976 4.5394e-18)
(0.98891 0.041077 6.5784e-18)
(0.99976 0.0002063 1.0563e-18)
(0.99982 -0.00025007 2.0746e-18)
(0.99996 -0.00047295 -1.3816e-17)
(1.0003 -0.00084536 -5.6042e-18)
(1.0004 -0.00071924 8.9814e-18)
(1.0014 -0.00087798 1.65e-17)
(0.99748 7.187e-05 1.4805e-17)
(1.0154 0.0009425 4.1755e-18)
(0.96606 0.0010669 1.1932e-17)
(1.0281 0.013068 -3.0186e-18)
(1.0074 0.0069853 -8.1037e-18)
(0.99122 0.040686 -1.6966e-18)
(0.99975 0.00021125 -4.3259e-20)
(0.99981 -0.00025772 2.3646e-18)
(0.99995 -0.00048794 3.0876e-18)
(1.0003 -0.00087093 -7.2761e-18)
(1.0004 -0.00074307 8.3929e-20)
(1.0015 -0.00090894 -1.496e-17)
(0.99721 5.6646e-05 -1.0014e-17)
(1.0163 0.0010015 3.0893e-17)
(0.966 0.00093154 -1.8031e-17)
(1.0259 0.013122 1.1722e-17)
(1.009 0.0073564 4.2796e-18)
(0.99342 0.040312 -4.7899e-18)
(0.99974 0.00021619 -3.2722e-18)
(0.9998 -0.00026546 -1.1089e-17)
(0.99994 -0.00050315 7.8838e-18)
(1.0003 -0.00089678 -1.9873e-17)
(1.0004 -0.00076736 -2.2715e-17)
(1.0016 -0.00094028 -2.0669e-17)
(0.99694 3.8778e-05 -2.0409e-17)
(1.0171 0.0010651 -3.1637e-18)
(0.96606 0.00078978 1.5758e-17)
(1.0237 0.013154 -1.0055e-17)
(1.0103 0.0077088 4.2509e-19)
(0.99549 0.039951 4.511e-18)
(0.99972 0.00022111 6.3159e-18)
(0.99979 -0.0002733 1.159e-17)
(0.99993 -0.00051859 -1.2715e-17)
(1.0003 -0.00092291 1.6316e-17)
(1.0004 -0.00079215 -2.6643e-18)
(1.0017 -0.00097196 1.3548e-17)
(0.99664 1.8051e-05 2.4531e-17)
(1.0179 0.0011333 -2.3965e-17)
(0.96624 0.00064219 -7.9899e-18)
(1.0216 0.013166 1.0618e-17)
(1.0113 0.008041 3.698e-18)
(0.99742 0.039601 -2.1337e-18)
(0.99971 0.00022601 -4.7393e-18)
(0.99978 -0.00028123 -3.425e-18)
(0.99992 -0.00053425 -2.6591e-18)
(1.0003 -0.00094933 1.867e-17)
(1.0004 -0.00081744 -5.7036e-18)
(1.0018 -0.0010039 -1.7186e-19)
(0.99634 -5.756e-06 -4.8002e-18)
(1.0187 0.0012063 1.9196e-17)
(0.96654 0.00048945 -7.5858e-18)
(1.0194 0.013157 -7.2913e-18)
(1.0121 0.0083515 -1.0932e-17)
(0.99919 0.039256 2.4795e-18)
(0.99969 0.00023089 3.2217e-18)
(0.99976 -0.00028926 -4.3432e-18)
(0.99992 -0.00055015 6.0863e-18)
(1.0003 -0.00097605 -2.833e-17)
(1.0004 -0.00084327 3.8637e-17)
(1.0019 -0.0010362 5.6139e-18)
(0.99602 -3.2873e-05 1.8938e-17)
(1.0195 0.001284 -1.1878e-17)
(0.96696 0.00033228 1.0039e-19)
(1.0173 0.01313 5.4223e-18)
(1.0127 0.0086392 -2.126e-18)
(1.0008 0.038916 -9.3294e-19)
(0.99968 0.00023574 -9.2163e-19)
(0.99975 -0.0002974 8.4905e-19)
(0.99991 -0.00056629 1.4831e-17)
(1.0003 -0.0010031 7.7231e-18)
(1.0004 -0.00086966 -1.9317e-17)
(1.002 -0.0010686 -1.0997e-17)
(0.99569 -6.3534e-05 3.3063e-18)
(1.0202 0.0013665 -5.7749e-18)
(0.96749 0.00017143 1.2692e-17)
(1.0152 0.013083 -3.5595e-18)
(1.0131 0.0089032 1.0234e-17)
(1.0023 0.038576 -3.4038e-18)
(0.99966 0.00024058 -1.6044e-18)
(0.99974 -0.00030563 -8.1846e-18)
(0.9999 -0.00058268 -4.4095e-18)
(1.0003 -0.0010304 3.1017e-17)
(1.0004 -0.00089663 -1.7211e-17)
(1.0021 -0.0011013 -9.3206e-19)
(0.99536 -9.7979e-05 -4.945e-17)
(1.021 0.0014539 5.6765e-18)
(0.96814 7.7088e-06 -2.3734e-17)
(1.0132 0.013019 -7.687e-18)
(1.0133 0.0091429 -1.0232e-17)
(1.0035 0.038234 2.0211e-18)
(0.99964 0.00024539 -6.9271e-19)
(0.99972 -0.00031398 5.0707e-18)
(0.99989 -0.00059933 -1.8202e-18)
(1.0003 -0.001058 -1.806e-17)
(1.0004 -0.00092422 2.4733e-17)
(1.0023 -0.001134 -2.2906e-18)
(0.99501 -0.00013645 2.6193e-17)
(1.0216 0.001546 -3.4898e-18)
(0.96889 -0.00015807 1.1523e-17)
(1.0112 0.012939 9.6141e-18)
(1.0133 0.0093577 8.4403e-18)
(1.0047 0.037889 -4.8853e-19)
(0.99963 0.00025018 3.9266e-18)
(0.99971 -0.00032243 -3.0343e-18)
(0.99988 -0.00061623 -6.369e-18)
(1.0003 -0.001086 1.9714e-17)
(1.0004 -0.00095245 1.8156e-18)
(1.0024 -0.0011668 2.8392e-17)
(0.99466 -0.0001792 4.5182e-18)
(1.0223 0.0016428 1.6673e-17)
(0.96975 -0.00032506 4.323e-18)
(1.0094 0.012842 -3.1107e-18)
(1.0132 0.0095476 1.0979e-18)
(1.0056 0.037538 4.4227e-19)
(0.99961 0.00025495 1.1198e-18)
(0.99969 -0.00033099 1.2404e-18)
(0.99987 -0.00063341 -5.7759e-18)
(1.0003 -0.0011143 -3.9259e-17)
(1.0004 -0.00098135 5.4978e-18)
(1.0026 -0.0011995 2.4637e-18)
(0.99429 -0.00022647 -1.9591e-17)
(1.0229 0.0017442 2.3458e-19)
(0.97069 -0.00049239 1.2739e-17)
(1.0076 0.012731 -1.9999e-18)
(1.013 0.0097124 -5.3452e-18)
(1.0065 0.037181 2.6061e-18)
(0.99959 0.00025969 -4.7948e-18)
(0.99968 -0.00033967 5.2584e-18)
(0.99985 -0.00065086 9.5176e-19)
(1.0003 -0.0011429 2.1802e-17)
(1.0003 -0.001011 -2.5079e-17)
(1.0027 -0.0012322 -1.0877e-17)
(0.99393 -0.00027851 2.0037e-17)
(1.0235 0.0018501 -1.1293e-17)
(0.97173 -0.0006592 -2.0139e-17)
(1.0059 0.012605 -9.8823e-18)
(1.0126 0.0098522 6.8072e-18)
(1.0072 0.036815 8.6821e-19)
(0.99957 0.00026441 -5.0749e-19)
(0.99966 -0.00034847 -5.2918e-18)
(0.99984 -0.00066859 1.0141e-17)
(1.0003 -0.0011718 9.6681e-18)
(1.0003 -0.0010413 3.0977e-17)
(1.0029 -0.0012647 4.1797e-18)
(0.99356 -0.00033556 1.7796e-17)
(1.024 0.0019603 2.8632e-17)
(0.97286 -0.0008246 -8.9048e-19)
(1.0043 0.012466 1.7382e-17)
(1.0122 0.0099673 -7.2041e-19)
(1.0077 0.036441 -2.5353e-18)
(0.99956 0.0002691 4.9183e-18)
(0.99965 -0.00035739 -7.7051e-18)
(0.99983 -0.00068662 -1.5394e-17)
(1.0003 -0.0012011 -2.5685e-18)
(1.0003 -0.0010724 -3.3622e-17)
(1.003 -0.001297 -1.2435e-17)
(0.99318 -0.00039788 -6.1779e-18)
(1.0245 0.0020746 2.1473e-19)
(0.97405 -0.00098773 2.6211e-17)
(1.0029 0.012315 4.0053e-18)
(1.0117 0.010058 -9.3406e-18)
(1.0082 0.036058 1.5198e-18)
(0.99954 0.00027377 -5.5142e-18)
(0.99963 -0.00036643 9.6247e-18)
(0.99982 -0.00070494 8.0579e-18)
(1.0003 -0.0012307 -5.1198e-18)
(1.0003 -0.0011043 2.704e-17)
(1.0032 -0.001329 1.4879e-17)
(0.99281 -0.00046569 -4.8834e-18)
(1.0249 0.0021928 -2.8855e-17)
(0.97532 -0.0011477 -8.9072e-19)
(1.0016 0.012154 -1.1446e-17)
(1.0112 0.010125 1.1057e-17)
(1.0085 0.035664 -1.9911e-18)
(0.99952 0.00027841 3.3136e-18)
(0.99961 -0.0003756 -1.842e-18)
(0.9998 -0.00072356 1.0671e-17)
(1.0003 -0.0012607 -2.1545e-17)
(1.0003 -0.0011371 8.8309e-18)
(1.0034 -0.0013606 -5.3442e-18)
(0.99243 -0.00053923 -1.0521e-17)
(1.0253 0.0023147 -2.3168e-18)
(0.97664 -0.0013038 -3.1634e-17)
(1.0003 0.011982 7.5511e-18)
(1.0106 0.01017 -1.0124e-17)
(1.0088 0.03526 6.6387e-19)
(0.9995 0.00028303 2.6207e-19)
(0.99959 -0.00038489 -5.7949e-18)
(0.99979 -0.0007425 6.0605e-18)
(1.0003 -0.001291 2.8359e-17)
(1.0003 -0.0011708 -2.1032e-17)
(1.0036 -0.0013916 1.7197e-17)
(0.99206 -0.0006187 -6.083e-18)
(1.0256 0.0024398 5.3636e-18)
(0.97802 -0.0014551 3.7585e-17)
(0.99927 0.011801 -1.4018e-17)
(1.01 0.010192 1.5473e-17)
(1.009 0.034845 1.8782e-18)
(0.99948 0.00028762 4.7037e-19)
(0.99958 -0.00039432 -1.1998e-18)
(0.99978 -0.00076176 -8.7182e-18)
(1.0003 -0.0013217 -4.2684e-18)
(1.0002 -0.0012054 1.8332e-17)
(1.0038 -0.0014221 1.3874e-19)
(0.99169 -0.00070433 -1.1956e-17)
(1.0259 0.0025679 -1.2807e-17)
(0.97944 -0.0016009 -1.5734e-17)
(0.99832 0.011612 -1.3232e-18)
(1.0094 0.010192 2.8319e-18)
(1.0091 0.03442 1.9612e-19)
(0.99945 0.00029218 -7.5675e-19)
(0.99956 -0.00040389 1.4272e-17)
(0.99976 -0.00078135 -5.8155e-18)
(1.0003 -0.0013528 -2.4129e-17)
(1.0002 -0.001241 8.453e-18)
(1.004 -0.0014519 -4.3816e-17)
(0.99133 -0.00079629 5.9644e-18)
(1.0261 0.0026986 8.0633e-18)
(0.9809 -0.0017405 7.3079e-19)
(0.9975 0.011416 1.4236e-17)
(1.0088 0.010173 -9.4715e-19)
(1.0091 0.033985 -5.2465e-18)
(0.99943 0.00029671 -1.9978e-19)
(0.99954 -0.00041359 -2.7992e-19)
(0.99975 -0.00080128 7.8294e-18)
(1.0003 -0.0013842 1.4898e-17)
(1.0002 -0.0012776 -3.3583e-17)
(1.0042 -0.0014809 1.8918e-18)
(0.99097 -0.00089476 1.0682e-17)
(1.0263 0.0028315 1.2631e-17)
(0.98239 -0.0018733 -9.9525e-18)
(0.9968 0.011215 -1.3861e-17)
(1.0082 0.010134 -1.5345e-17)
(1.0091 0.033539 5.5393e-18)
(0.99941 0.00030122 -1.3076e-18)
(0.99952 -0.00042344 3.991e-19)
(0.99973 -0.00082155 -3.7749e-18)
(1.0003 -0.0014159 -9.9473e-18)
(1.0001 -0.0013153 1.8618e-17)
(1.0044 -0.0015091 2.3522e-17)
(0.99062 -0.0009999 3.1152e-18)
(1.0264 0.002966 6.4018e-18)
(0.98389 -0.0019986 1.5873e-17)
(0.99623 0.011009 2.3329e-18)
(1.0076 0.010076 1.1344e-17)
(1.0091 0.033084 -3.3621e-18)
(0.99939 0.0003057 2.407e-18)
(0.9995 -0.00043343 7.3573e-19)
(0.99971 -0.00084217 -5.3955e-18)
(1.0003 -0.0014481 1.4694e-18)
(1.0001 -0.0013541 -1.0094e-17)
(1.0046 -0.0015362 -5.6422e-18)
(0.99028 -0.0011118 -1.1515e-18)
(1.0264 0.0031018 -2.8908e-17)
(0.98541 -0.0021159 3.1164e-18)
(0.99578 0.0108 -4.7293e-18)
(1.0071 0.010002 -4.614e-18)
(1.009 0.03262 -4.0514e-18)
(0.99936 0.00031015 -4.9124e-18)
(0.99947 -0.00044357 9.6125e-19)
(0.9997 -0.00086316 2.862e-18)
(1.0003 -0.0014806 -1.8468e-17)
(1.0001 -0.0013941 -1.1509e-17)
(1.0048 -0.0015623 -2.6198e-17)
(0.98996 -0.0012306 5.5562e-18)
(1.0264 0.0032382 1.1804e-17)
(0.98693 -0.0022248 -3.3419e-17)
(0.99544 0.010588 2.1808e-17)
(1.0066 0.0099122 -4.9887e-18)
(1.0089 0.032147 2.6131e-18)
(0.99934 0.00031456 4.5095e-18)
(0.99945 -0.00045386 2.151e-18)
(0.99968 -0.00088452 1.1007e-18)
(1.0003 -0.0015135 5.8565e-18)
(1 -0.0014354 -2.5431e-18)
(1.005 -0.0015873 5.078e-17)
(0.98964 -0.0013564 1.9948e-17)
(1.0264 0.0033748 -1.8366e-17)
(0.98844 -0.0023249 3.2165e-17)
(0.99522 0.010375 -8.1364e-18)
(1.0062 0.0098078 -3.2897e-18)
(1.0089 0.031666 -1.3029e-18)
(0.99931 0.00031895 1.1063e-18)
(0.99943 -0.00046431 -1.3619e-17)
(0.99966 -0.00090626 2.2033e-18)
(1.0003 -0.0015468 2.6307e-17)
(1 -0.0014779 1.9676e-17)
(1.0053 -0.001611 -8.1816e-19)
(0.98934 -0.0014892 -2.7637e-17)
(1.0263 0.0035109 5.558e-18)
(0.98995 -0.0024159 -7.2544e-18)
(0.99511 0.010161 -1.126e-17)
(1.0058 0.00969 8.369e-18)
(1.0088 0.031178 1.2151e-18)
(0.99929 0.00032331 -4.3756e-18)
(0.99941 -0.00047491 -4.5411e-18)
(0.99964 -0.00092839 -1.1936e-17)
(1.0003 -0.0015805 -2.2064e-17)
(0.99995 -0.0015217 -1.98e-17)
(1.0055 -0.0016333 -2.3078e-17)
(0.98906 -0.001629 5.1032e-18)
(1.0261 0.0036459 4.3239e-17)
(0.99143 -0.0024976 3.1619e-18)
(0.99509 0.0099485 -9.8341e-19)
(1.0055 0.0095603 -2.9548e-18)
(1.0087 0.030684 -3.2635e-18)
(0.99926 0.00032763 3.2471e-18)
(0.99938 -0.00048568 4.2177e-18)
(0.99962 -0.00095092 1.8394e-17)
(1.0003 -0.0016146 1.5282e-17)
(0.99991 -0.001567 1.9264e-17)
(1.0057 -0.0016543 -8.5763e-19)
(0.98879 -0.0017758 -2.8433e-17)
(1.0259 0.0037791 -2.3373e-17)
(0.99289 -0.0025699 7.8482e-18)
(0.99517 0.0097374 3.8975e-18)
(1.0052 0.0094198 6.661e-18)
(1.0086 0.030184 2.5224e-18)
(0.99923 0.00033193 -2.2933e-18)
(0.99936 -0.00049662 6.6174e-18)
(0.9996 -0.00097386 -1.2171e-17)
(1.0003 -0.001649 2.2123e-18)
(0.99986 -0.0016137 8.9585e-18)
(1.006 -0.0016737 -2.2562e-18)
(0.98854 -0.0019295 6.3841e-18)
(1.0256 0.00391 6.4919e-18)
(0.99433 -0.0026328 2.5838e-18)
(0.99534 0.0095288 9.6345e-18)
(1.005 0.0092698 -8.0109e-18)
(1.0086 0.029679 5.0973e-19)
(0.99921 0.00033619 3.4627e-18)
(0.99933 -0.00050773 4.1017e-19)
(0.99958 -0.00099721 -5.6982e-18)
(1.0003 -0.0016839 8.8096e-19)
(0.9998 -0.0016619 -1.4708e-18)
(1.0062 -0.0016916 -2.2292e-17)
(0.98832 -0.00209 1.7824e-17)
(1.0253 0.0040377 2.3046e-17)
(0.99572 -0.0026863 -1.286e-17)
(0.99559 0.0093236 -1.3406e-17)
(1.0048 0.0091116 -2.3416e-18)
(1.0085 0.02917 4.3372e-18)
(0.99918 0.00034042 -2.5155e-18)
(0.99931 -0.00051902 -3.1588e-19)
(0.99956 -0.001021 7.0843e-18)
(1.0003 -0.0017191 -1.6914e-17)
(0.99975 -0.0017117 -1.3308e-17)
(1.0065 -0.0017078 2.8144e-17)
(0.98811 -0.0022573 -2.7257e-18)
(1.025 0.0041617 -2.44e-17)
(0.99708 -0.0027306 3.2767e-18)
(0.99591 0.0091226 1.2622e-17)
(1.0047 0.0089464 7.9369e-18)
(1.0085 0.028658 -1.5639e-18)
(0.99915 0.00034461 2.5e-19)
(0.99928 -0.00053048 2.3141e-18)
(0.99954 -0.0010452 3.8714e-18)
(1.0003 -0.0017548 8.7441e-18)
(0.99969 -0.0017631 2.6089e-17)
(1.0067 -0.0017224 6.5632e-18)
(0.98793 -0.002431 -2.3734e-17)
(1.0246 0.0042812 2.2879e-18)
(0.99839 -0.002766 8.4412e-18)
(0.99629 0.0089265 -1.1372e-17)
(1.0047 0.0087752 -5.3662e-18)
(1.0085 0.028143 -1.8092e-18)
(0.99912 0.00034877 7.099e-19)
(0.99926 -0.00054214 -4.024e-19)
(0.99951 -0.0010699 -1.0216e-17)
(1.0003 -0.0017909 -1.8813e-19)
(0.99963 -0.0018162 -5.1583e-17)
(1.007 -0.0017352 8.093e-18)
(0.98776 -0.0026111 2.3314e-17)
(1.0241 0.0043955 -6.5718e-18)
(0.99966 -0.0027926 -8.8393e-18)
(0.99674 0.0087358 1.8884e-17)
(1.0047 0.0085993 6.4203e-18)
(1.0086 0.027628 4.6886e-18)
(0.99909 0.0003529 7.6267e-19)
(0.99923 -0.00055397 -8.3526e-19)
(0.99949 -0.001095 1.8476e-17)
(1.0003 -0.0018273 4.0338e-18)
(0.99957 -0.0018711 4.5715e-17)
(1.0072 -0.0017463 -2.852e-17)
(0.98762 -0.0027972 -7.8073e-18)
(1.0237 0.0045039 6.1873e-18)
(1.0009 -0.002811 3.0462e-18)
(0.99723 0.0085511 -1.0625e-17)
(1.0048 0.0084195 -1.0395e-18)
(1.0086 0.027111 -3.4573e-18)
(0.99906 0.00035699 -2.9804e-18)
(0.9992 -0.00056601 1.4027e-18)
(0.99947 -0.0011206 -1.086e-17)
(1.0004 -0.0018642 5.3047e-18)
(0.9995 -0.0019278 -1.7371e-17)
(1.0074 -0.0017556 3.8677e-18)
(0.98751 -0.0029891 3.126e-17)
(1.0232 0.0046058 -2.3162e-17)
(1.002 -0.0028216 -1.1197e-17)
(0.99776 0.0083728 -1.0511e-17)
(1.0049 0.008237 -5.1051e-18)
(1.0087 0.026595 -9.4948e-19)
(0.99902 0.00036105 3.7128e-18)
(0.99917 -0.00057824 -3.3314e-18)
(0.99944 -0.0011467 -1.0541e-17)
(1.0004 -0.0019016 -8.4587e-18)
(0.99943 -0.0019863 -2.8406e-17)
(1.0077 -0.0017632 -1.7942e-17)
(0.98742 -0.0031864 -1.9167e-17)
(1.0227 0.0047004 2.1538e-17)
(1.0031 -0.002825 1.0855e-17)
(0.99833 0.0082013 1.5918e-17)
(1.0051 0.0080526 -1.9981e-18)
(1.0088 0.026079 4.5828e-18)
(0.99899 0.00036508 -5.9675e-18)
(0.99914 -0.00059067 5.3982e-18)
(0.99941 -0.0011732 2.581e-17)
(1.0004 -0.0019393 -1.9954e-18)
(0.99936 -0.0020468 3.1428e-17)
(1.0079 -0.001769 1.3517e-18)
(0.98735 -0.0033887 -1.8358e-17)
(1.0221 0.0047871 8.4329e-18)
(1.0042 -0.0028216 -3.9147e-18)
(0.99894 0.0080369 -3.3331e-18)
(1.0053 0.0078671 6.4827e-18)
(1.009 0.025565 -3.0991e-18)
(0.99896 0.00036906 4.8905e-18)
(0.99911 -0.00060331 -7.3366e-18)
(0.99939 -0.0012003 -3.0095e-17)
(1.0004 -0.0019774 1.3054e-17)
(0.99929 -0.0021092 -2.2394e-17)
(1.0082 -0.0017731 2.4804e-17)
(0.98731 -0.0035957 5.9836e-18)
(1.0215 0.0048652 -8.0262e-18)
(1.0052 -0.0028123 -1.8791e-18)
(0.99956 0.0078796 -8.3477e-18)
(1.0055 0.0076813 -1.0569e-17)
(1.0092 0.025054 4.2834e-18)
(0.99892 0.00037301 -3.6026e-18)
(0.99908 -0.00061617 2.4397e-18)
(0.99936 -0.0012278 1.8287e-17)
(1.0004 -0.002016 -1.7209e-17)
(0.99921 -0.0021736 3.6035e-17)
(1.0084 -0.0017754 -1.9254e-17)
(0.98729 -0.003807 3.4882e-18)
(1.0209 0.0049342 -1.2691e-17)
(1.0061 -0.0027977 6.1339e-18)
(1.0002 0.0077295 -1.1681e-18)
(1.0058 0.0074959 4.5239e-18)
(1.0094 0.024545 -1.9046e-18)
(0.99889 0.00037693 4.4188e-18)
(0.99904 -0.00062925 1.8996e-18)
(0.99933 -0.0012559 -1.2194e-17)
(1.0004 -0.0020551 -3.5038e-19)
(0.99913 -0.0022401 -1.5894e-18)
(1.0086 -0.0017762 4.656e-18)
(0.9873 -0.0040221 3.3126e-17)
(1.0203 0.0049935 8.6815e-18)
(1.0069 -0.0027785 -1.8182e-17)
(1.0009 0.0075866 -6.0545e-18)
(1.0062 0.0073114 -4.2543e-18)
(1.0096 0.024039 2.0016e-18)
(0.99885 0.00038081 -5.0652e-18)
(0.99901 -0.00064255 -7.0397e-18)
(0.9993 -0.0012846 5.1154e-18)
(1.0004 -0.0020945 1.4892e-17)
(0.99905 -0.0023088 -3.2693e-17)