/*--------------------------------*- C++ -*----------------------------------*\
  =========                 |
  \\      /  F ield         | OpenFOAM: The Open Source CFD Toolbox
   \\    /   O peration     | Website:  https://openfoam.org
    \\  /    A nd           | Version:  6.0
     \\/     M anipulation  |
\*---------------------------------------------------------------------------*/
FoamFile
{
    version     2.0;
    format      ascii;
    class       volVectorField;
    location    "0.4";
    object      U;
}
// * * * * * * * * * * * * * * * * * * * * * * * * * * * * * * * * * * * * * //

dimensions      [0 1 -1 0 0 0 0];

internalField   nonuniform List<vector> 
13500
(
(1 1.5689e-06 -4.5633e-18)
(1 -5.2353e-06 3.0892e-18)
(1 -5.0667e-06 -1.3249e-17)
(1 -1.2757e-05 -9.2137e-18)
(1 -5.5028e-06 1.7201e-17)
(1 -1.418e-05 3.2494e-17)
(0.99999 6.7136e-06 2.7298e-17)
(1 1.3666e-06 -4.5479e-18)
(0.99988 5.241e-05 1.593e-17)
(0.9998 7.5686e-05 3.6423e-18)
(0.99712 0.00047918 2.8305e-17)
(1.0155 0.011001 8.5242e-18)
(1 4.6176e-06 2.8271e-18)
(1 -1.5578e-05 -9.3817e-18)
(1 -1.4712e-05 6.3267e-18)
(1 -3.8605e-05 -3.6367e-19)
(1 -1.4453e-05 -4.5874e-19)
(1 -4.5642e-05 -3.9072e-17)
(0.99997 2.6633e-05 -4.7145e-17)
(1 -7.9843e-06 -2.6025e-17)
(0.99965 0.00017505 -1.59e-17)
(0.99968 0.00018675 -1.8005e-18)
(0.99142 0.0012589 -1.3404e-17)
(1.0414 0.030908 -5.161e-18)
(1 7.4733e-06 -3.6515e-18)
(1 -2.6074e-05 1.864e-17)
(1 -2.4684e-05 3.2907e-18)
(1 -6.5457e-05 1.0623e-17)
(1 -2.3189e-05 -3.9662e-18)
(1.0001 -8.0511e-05 3.13e-17)
(0.99995 4.9259e-05 -6.6333e-18)
(1 -2.7899e-05 5.9113e-18)
(0.99941 0.00030764 -1.9284e-17)
(0.9998 0.00030054 2.7351e-17)
(0.9861 0.0016448 -7.0164e-18)
(1.0601 0.045204 1.8211e-18)
(1 1.0127e-05 9.5458e-18)
(1 -3.6739e-05 -1.8071e-17)
(1 -3.5209e-05 -1.5599e-17)
(1 -9.3153e-05 -7.4549e-19)
(1 -3.2559e-05 6.1223e-18)
(1.0001 -0.00011801 -8.6787e-19)
(0.99993 7.1966e-05 6.5378e-17)
(1.0001 -5.6752e-05 1.0653e-17)
(0.99916 0.00044223 2.2803e-17)
(1.0001 0.00042369 -9.9074e-18)
(0.98145 0.0016825 3.4201e-17)
(1.0705 0.055308 -8.2896e-18)
(1 1.2584e-05 -6.7074e-18)
(1 -4.751e-05 1.5619e-17)
(1 -4.629e-05 1.3279e-17)
(1.0001 -0.00012144 1.3597e-17)
(1 -4.2912e-05 3.0017e-18)
(1.0001 -0.00015774 2.3009e-17)
(0.99992 9.3158e-05 -2.9194e-17)
(1.0002 -9.4348e-05 2.1648e-18)
(0.99892 0.00057286 -1.3979e-17)
(1.0006 0.00055609 -2.3639e-18)
(0.9777 0.0014555 -8.8449e-18)
(1.0736 0.062481 2.2937e-18)
(1 1.483e-05 6.7879e-18)
(1 -5.8415e-05 -6.4748e-18)
(1 -5.803e-05 4.0551e-18)
(1.0001 -0.0001504 -2.6935e-17)
(1 -5.4625e-05 -8.8151e-20)
(1.0002 -0.00020007 -4.5549e-17)
(0.9999 0.00011158 1.1196e-18)
(1.0003 -0.0001414 -1.7373e-17)
(0.99867 0.00069513 5.3235e-18)
(1.0012 0.00069834 -2.3818e-17)
(0.97492 0.0010486 -2.1386e-17)
(1.071 0.067416 2.2256e-18)
(0.99999 1.6848e-05 -1.1236e-18)
(1 -6.9498e-05 -7.7439e-18)
(1 -7.0555e-05 -3.2958e-18)
(1.0001 -0.00018021 2.0331e-17)
(1.0001 -6.8144e-05 -2.7801e-17)
(1.0002 -0.00024551 1.743e-17)
(0.99989 0.00012582 1.9522e-17)
(1.0004 -0.00019833 6.1119e-18)
(0.99844 0.00080497 1.1898e-17)
(1.0019 0.00085101 1.2823e-17)
(0.97311 0.00053803 9.2423e-18)
(1.0646 0.070595 3.5931e-18)
(0.99999 1.8616e-05 -2.3192e-18)
(1 -8.0824e-05 -1.5234e-18)
(1 -8.4027e-05 -2.839e-17)
(1.0001 -0.00021108 -9.7082e-18)
(1.0001 -8.406e-05 7.7819e-18)
(1.0003 -0.00029463 2.8566e-17)
(0.99989 0.00013415 1.2423e-17)
(1.0005 -0.00026507 5.4578e-18)
(0.99823 0.00089858 -7.777e-18)
(1.0026 0.0010138 1.7965e-17)
(0.97216 -1.2179e-05 7.4946e-18)
(1.0561 0.072418 -1.1453e-17)
(0.99999 2.0108e-05 -7.1994e-18)
(1 -9.2478e-05 6.5494e-18)
(1 -9.8659e-05 4.7735e-17)
(1.0001 -0.0002433 -1.1645e-17)
(1.0001 -0.00010309 2.9139e-17)
(1.0003 -0.00034807 -5.6399e-17)
(0.99989 0.00013475 -4.1388e-17)
(1.0007 -0.0003411 1.0606e-17)
(0.99804 0.00097299 -5.8406e-18)
(1.0033 0.0011858 -9.9066e-18)
(0.97192 -0.00055245 -1.3813e-17)
(1.0468 0.073213 1.5006e-17)
(0.99999 2.1289e-05 4.7432e-18)
(1 -0.00010458 2.4652e-18)
(1 -0.00011471 -4.0434e-17)
(1.0001 -0.00027725 1.6573e-17)
(1.0001 -0.00012606 -1.2707e-17)
(1.0004 -0.00040653 2.4055e-17)
(0.9999 0.00012593 1.4707e-17)
(1.0008 -0.00042542 2.6823e-18)
(0.99788 0.0010264 5.5097e-19)
(1.0039 0.0013658 1.5722e-18)
(0.97224 -0.0010483 4.4185e-18)
(1.0378 0.07324 -7.7378e-19)
(0.99999 2.2114e-05 -2.6041e-18)
(1 -0.00011727 -8.085e-18)
(1 -0.00013249 9.9115e-18)
(1.0001 -0.00031339 -2.9243e-18)
(1.0001 -0.00015383 1.9612e-18)
(1.0004 -0.00047067 -2.6364e-17)
(0.99992 0.00010629 -3.3869e-17)
(1.001 -0.00051662 -3.4057e-17)
(0.99776 0.0010583 1.6325e-17)
(1.0045 0.0015528 2.0431e-18)
(0.97294 -0.0014794 -1.1204e-17)
(1.0298 0.072706 -6.4926e-18)
(0.99998 2.253e-05 3.5944e-18)
(1 -0.00013075 3.0539e-18)
(1 -0.00015237 4.7766e-18)
(1.0002 -0.00035227 -2.3306e-18)
(1.0001 -0.00018729 -5.8792e-18)
(1.0005 -0.0005411 9.9714e-18)
(0.99995 7.488e-05 1.9606e-17)
(1.0012 -0.00061285 2.1041e-17)
(0.99767 0.0010696 1.049e-17)
(1.005 0.0017455 -2.5772e-17)
(0.97388 -0.0018372 1.0968e-19)
(1.0231 0.071771 -7.5497e-18)
(0.99998 2.2472e-05 -3.5938e-18)
(1 -0.00014524 6.0054e-18)
(1 -0.00017474 8.6599e-18)
(1.0002 -0.00039444 6.0851e-18)
(1.0001 -0.00022724 -5.4525e-18)
(1.0005 -0.00061821 4.9022e-18)
(1 3.1369e-05 4.4708e-18)
(1.0014 -0.00071194 -1.8788e-18)
(0.99761 0.0010619 -1.6955e-17)
(1.0054 0.0019428 2.3905e-17)
(0.97496 -0.0021217 9.8147e-20)
(1.0177 0.070558 1.6017e-18)
(0.99998 2.1869e-05 5.465e-18)
(1 -0.00016099 -4.6878e-18)
(1 -0.00020002 7.5795e-19)
(1.0002 -0.00044049 -5.0764e-18)
(1.0002 -0.00027435 1.2383e-17)
(1.0006 -0.00070211 5.9819e-18)
(1 -2.3917e-05 1.7986e-17)
(1.0016 -0.0008115 -6.9801e-18)
(0.99758 0.001038 -2.0791e-19)
(1.0058 0.0021436 5.8785e-18)
(0.9761 -0.002339 1.7104e-17)
(1.0136 0.069163 1.0215e-18)
(0.99997 2.0643e-05 1.318e-18)
(1 -0.00017824 1.0404e-17)
(1.0001 -0.0002286 1.448e-17)
(1.0002 -0.00049091 -5.0616e-18)
(1.0002 -0.00032902 8.9656e-18)
(1.0007 -0.00079253 -2.7925e-18)
(1.0001 -8.9981e-05 -3.15e-17)
(1.0018 -0.00090911 2.2095e-17)
(0.99758 0.0010009 -1.9124e-17)
(1.0062 0.0023466 -3.3894e-17)
(0.97724 -0.0024981 -3.7448e-18)
(1.0105 0.067654 9.4944e-19)
(0.99997 1.8715e-05 -3.3626e-18)
(1 -0.00019727 -1.1064e-17)
(1.0001 -0.00026084 -3.4756e-17)
(1.0002 -0.00054607 8.5274e-18)
(1.0002 -0.00039135 -1.3606e-17)
(1.0008 -0.00088884 8.9543e-18)
(1.0002 -0.00016523 -2.9463e-18)
(1.002 -0.0010024 -1.3301e-17)
(0.9976 0.00095392 4.1963e-18)
(1.0064 0.0025506 2.0243e-17)
(0.97834 -0.0026092 -7.8916e-18)
(1.0084 0.066083 1.3363e-17)
(0.99996 1.6013e-05 3.5379e-19)
(1 -0.00021828 8.2751e-18)
(1.0001 -0.00029699 2.3995e-17)
(1.0003 -0.00060617 -1.9206e-18)
(1.0003 -0.0004611 -1.3516e-17)
(1.0009 -0.00098998 -1.6687e-17)
(1.0003 -0.00024761 1.1257e-17)
(1.0022 -0.0010894 7.6289e-18)
(0.99763 0.00090005 2.4274e-17)
(1.0067 0.0027544 -2.8368e-18)
(0.9794 -0.0026826 1.9675e-18)
(1.007 0.064487 -5.3294e-18)
(0.99996 1.2477e-05 -1.985e-18)
(1 -0.00024143 -1.0027e-17)
(1.0001 -0.00033716 -1.0827e-17)
(1.0003 -0.00067114 6.418e-18)
(1.0003 -0.00053762 -7.5902e-18)
(1.001 -0.0010946 -1.3385e-17)
(1.0003 -0.00033478 1.0942e-17)
(1.0024 -0.0011683 -5.1753e-18)
(0.99768 0.00084206 -3.0049e-17)
(1.0069 0.0029566 -1.5904e-17)
(0.9804 -0.002727 8.5413e-18)
(1.0061 0.062889 -5.7994e-18)
(0.99995 8.0691e-06 -2.8422e-18)
(1 -0.00026682 -3.7896e-18)
(1.0001 -0.00038131 -8.0243e-19)
(1.0003 -0.00074069 -2.8104e-17)
(1.0004 -0.00061992 6.3693e-18)
(1.0011 -0.001201 5.8282e-18)
(1.0004 -0.0004243 -2.0792e-17)
(1.0026 -0.0012379 -1.7673e-17)
(0.99773 0.00078217 4.3912e-18)
(1.007 0.0031561 -1.2016e-18)
(0.98136 -0.00275 -9.857e-18)
(1.0056 0.061307 1.0963e-18)
(0.99994 2.7767e-06 3.6969e-18)
(1 -0.00029443 1.7372e-17)
(1.0001 -0.00042923 2.0661e-17)
(1.0003 -0.00081424 2.6466e-18)
(1.0004 -0.0007067 1.7606e-17)
(1.0011 -0.0013074 1.0214e-17)
(1.0005 -0.00051384 3.0017e-18)
(1.0028 -0.0012974 1.9343e-17)
(0.99779 0.00072209 2.1842e-17)
(1.0072 0.0033517 1.8996e-17)
(0.98226 -0.0027578 7.3705e-18)
(1.0052 0.05975 1.3044e-18)
(0.99994 -3.3811e-06 -1.762e-18)
(1 -0.00032415 -4.1683e-18)
(1.0001 -0.00048051 -2.2012e-17)
(1.0004 -0.00089099 -2.5061e-18)
(1.0005 -0.00079645 -1.3343e-17)
(1.0012 -0.0014121 -5.527e-18)
(1.0006 -0.0006013 -1.9254e-18)
(1.0029 -0.0013467 -1.7492e-17)
(0.99785 0.00066301 -2.0895e-17)
(1.0073 0.0035425 9.7411e-18)
(0.98312 -0.0027546 5.1172e-19)
(1.0051 0.058226 7.5049e-19)
(0.99993 -1.0352e-05 4.6706e-18)
(0.99999 -0.00035575 -5.4457e-18)
(1.0001 -0.00053457 -2.0644e-17)
(1.0004 -0.00096992 4.7643e-17)
(1.0005 -0.00088753 1.9354e-17)
(1.0013 -0.0015133 -1.3525e-17)
(1.0007 -0.00068495 2.5892e-17)
(1.0031 -0.0013858 2.3642e-17)
(0.99791 0.00060565 3.3912e-17)
(1.0074 0.0037274 -3.5712e-17)
(0.98394 -0.0027441 -1.3544e-17)
(1.005 0.056736 1.9925e-19)
(0.99992 -1.8049e-05 -3.4187e-18)
(0.99999 -0.0003889 -1.0927e-18)
(1.0001 -0.00059069 3.5244e-17)
(1.0004 -0.0010499 -3.6015e-17)
(1.0005 -0.00097831 -1.8633e-18)
(1.0014 -0.0016096 4.4811e-17)
(1.0007 -0.0007635 8.0235e-18)
(1.0032 -0.0014153 -3.6514e-18)
(0.99797 0.00055036 -2.1036e-17)
(1.0075 0.0039059 4.2089e-17)
(0.98473 -0.0027284 -5.7462e-18)
(1.0051 0.055284 -3.1509e-19)
(0.99991 -2.6359e-05 -1.7428e-18)
(0.99999 -0.00042321 -2.1774e-18)
(1.0001 -0.00064807 1.8349e-18)
(1.0005 -0.0011298 3.7468e-17)
(1.0006 -0.0010672 -1.0504e-17)
(1.0015 -0.0016999 -3.3122e-17)
(1.0008 -0.00083609 -2.0457e-17)
(1.0033 -0.0014361 -3.9317e-18)
(0.99803 0.00049719 6.6546e-18)
(1.0075 0.0040773 -3.5513e-17)
(0.9855 -0.0027092 9.6207e-18)
(1.0051 0.053868 3.4197e-18)
(0.9999 -3.5143e-05 2.88e-18)
(0.99998 -0.00045822 1.5155e-17)
(1.0001 -0.00070585 -1.3535e-17)
(1.0005 -0.0012084 -3.9233e-18)
(1.0006 -0.001153 -2.0157e-17)
(1.0015 -0.0017832 3.6035e-17)
(1.0008 -0.0009023 -1.7957e-17)
(1.0034 -0.0014489 1.6305e-17)
(0.9981 0.000446 -2.0514e-18)
(1.0076 0.0042412 3.3296e-17)
(0.98624 -0.0026876 -9.3971e-18)
(1.0051 0.052489 -5.7056e-18)
(0.99989 -4.4249e-05 -5.5236e-19)
(0.99998 -0.00049343 -8.7161e-18)
(1.0001 -0.00076316 -1.8951e-17)
(1.0005 -0.0012846 -1.075e-17)
(1.0007 -0.0012343 1.9552e-17)
(1.0016 -0.0018591 -4.5952e-17)
(1.0009 -0.00096208 -2.7703e-18)
(1.0035 -0.0014551 -2.2028e-17)
(0.99816 0.00039654 3.3156e-18)
(1.0077 0.0043973 -9.6044e-18)
(0.98696 -0.0026642 1.0004e-17)
(1.0052 0.051146 2.4223e-18)
(0.99988 -5.3515e-05 2.8935e-18)
(0.99997 -0.00052836 -9.3362e-18)
(1.0001 -0.00081919 -1.8719e-18)
(1.0005 -0.0013575 2.612e-18)
(1.0007 -0.0013106 6.1878e-18)
(1.0017 -0.0019275 1.3278e-17)
(1.0009 -0.0010157 4.5427e-17)
(1.0035 -0.0014555 2.6328e-18)
(0.99822 0.00034851 5.4064e-18)
(1.0077 0.0045453 1.0585e-17)
(0.98766 -0.0026395 -8.5639e-18)
(1.0052 0.049837 1.8629e-18)
(0.99986 -6.2785e-05 -1.6592e-18)
(0.99997 -0.00056254 9.3276e-18)
(1.0001 -0.00087325 2.6938e-17)
(1.0005 -0.0014264 -2.6318e-17)
(1.0007 -0.0013811 -9.625e-18)
(1.0017 -0.0019884 -2.3366e-18)
(1.001 -0.0010636 -1.4973e-17)
(1.0036 -0.0014514 2.0424e-18)
(0.99828 0.00030158 -9.3655e-18)
(1.0078 0.0046853 -3.8911e-18)
(0.98833 -0.0026138 -2.4693e-19)
(1.0053 0.048561 -2.2747e-18)
(0.99985 -7.1911e-05 -1.7832e-18)
(0.99996 -0.00059557 5.583e-18)
(1.0001 -0.00092473 -6.5165e-19)
(1.0006 -0.0014908 8.7269e-18)
(1.0008 -0.0014456 -1.7758e-17)
(1.0018 -0.0020423 2.6437e-17)
(1.001 -0.0011064 7.4679e-18)
(1.0037 -0.0014436 -1.9488e-17)
(0.99834 0.00025544 -1.2018e-17)
(1.0078 0.0048171 -1.54e-17)
(0.989 -0.0025871 1.3538e-18)
(1.0054 0.047318 -4.1721e-18)
(0.99984 -8.0763e-05 6.1967e-19)
(0.99995 -0.00062709 -1.3333e-17)
(1.0001 -0.00097318 1.668e-17)
(1.0006 -0.0015503 2.4137e-17)
(1.0008 -0.0015042 3.4807e-17)
(1.0018 -0.0020897 -1.9416e-17)
(1.001 -0.0011449 -1.8567e-17)
(1.0037 -0.001433 3.954e-18)
(0.9984 0.00020983 1.126e-17)
(1.0079 0.0049409 1.2052e-17)
(0.98964 -0.0025597 6.3268e-18)
(1.0054 0.046107 4.147e-18)
(0.99982 -8.9232e-05 1.1875e-18)
(0.99994 -0.00065685 1.0602e-17)
(1.0001 -0.0010183 -3.8322e-17)
(1.0006 -0.0016048 -3.4975e-18)
(1.0008 -0.0015571 -2.8913e-17)
(1.0018 -0.0021312 -1.223e-17)
(1.001 -0.0011797 2.6263e-20)
(1.0038 -0.0014204 -4.5239e-18)
(0.99846 0.00016454 -2.2204e-17)
(1.0079 0.0050566 -1.9238e-17)
(0.99027 -0.0025314 -8.6553e-18)
(1.0055 0.044926 -2.0458e-18)
(0.99981 -9.7234e-05 -7.6969e-19)
(0.99993 -0.00068468 -6.8951e-18)
(1.0001 -0.00106 3.0152e-17)
(1.0006 -0.0016544 -3.3369e-17)
(1.0008 -0.0016046 -2.1739e-18)
(1.0019 -0.0021677 2.6044e-17)
(1.0011 -0.0012116 7.4297e-19)
(1.0039 -0.0014065 4.3136e-18)
(0.99853 0.00011936 1.9436e-17)
(1.008 0.0051644 2.5003e-17)
(0.99088 -0.0025025 4.9482e-18)
(1.0055 0.043774 -1.1423e-18)
(0.99979 -0.00010471 -2.0037e-18)
(0.99991 -0.00071046 -2.5427e-18)
(1.0001 -0.0010981 -1.3366e-17)
(1.0006 -0.0016993 1.6623e-17)
(1.0008 -0.0016472 3.1775e-17)
(1.0019 -0.0021998 -1.151e-17)
(1.0011 -0.0012412 2.3123e-17)
(1.0039 -0.0013917 3.2334e-18)
(0.9986 7.4182e-05 -2.2055e-18)
(1.008 0.0052645 1.1302e-17)
(0.99148 -0.0024729 -5.5451e-18)
(1.0055 0.042651 -7.9644e-19)
(0.99977 -0.00011164 5.0112e-19)
(0.9999 -0.00073419 -6.7241e-18)
(1.0001 -0.0011329 5.0034e-18)
(1.0006 -0.0017399 -1.6942e-17)
(1.0008 -0.0016855 -3.3608e-17)
(1.0019 -0.0022283 7.2539e-18)
(1.0011 -0.0012691 -3.3358e-17)
(1.004 -0.0013765 -7.3945e-18)
(0.99867 2.8885e-05 7.1491e-18)
(1.008 0.005357 -3.5482e-17)
(0.99206 -0.0024427 3.7898e-18)
(1.0056 0.041555 2.2485e-18)
(0.99975 -0.00011799 8.7996e-19)
(0.99989 -0.00075591 1.8218e-17)
(1.0001 -0.0011644 8.3773e-18)
(1.0006 -0.0017764 6.9011e-18)
(1.0008 -0.0017201 2.6874e-17)
(1.0019 -0.0022538 2.1627e-18)
(1.0011 -0.0012958 2.3035e-17)
(1.004 -0.0013612 5.3029e-18)
(0.99874 -1.6598e-05 -2.1744e-17)
(1.0081 0.005442 1.2213e-17)
(0.99263 -0.0024119 2.5651e-18)
(1.0056 0.040486 2.3318e-18)
(0.99973 -0.0001238 -3.0725e-18)
(0.99987 -0.00077571 -5.9966e-18)
(1.0001 -0.001193 -7.3604e-18)
(1.0006 -0.0018095 1.1333e-17)
(1.0008 -0.0017516 1.2982e-17)
(1.0019 -0.002277 -4.307e-18)
(1.0011 -0.0013217 -1.9349e-17)
(1.0041 -0.0013461 2.4149e-17)
(0.99881 -6.2318e-05 4.0199e-18)
(1.0081 0.0055198 -3.687e-18)
(0.99318 -0.0023806 1.0639e-17)
(1.0057 0.039444 -1.6202e-18)
(0.99971 -0.00012907 6.3134e-18)
(0.99986 -0.00079375 7.181e-18)
(1.0001 -0.0012189 -7.8238e-18)
(1.0006 -0.0018395 -7.0595e-18)
(1.0008 -0.0017805 -1.8629e-17)
(1.002 -0.0022984 -7.3977e-18)
(1.0011 -0.0013471 9.5398e-18)
(1.0041 -0.0013315 -3.8735e-17)
(0.99889 -0.00010831 9.8587e-18)
(1.0081 0.0055904 -4.3556e-18)
(0.99372 -0.0023488 -1.1274e-17)
(1.0057 0.038426 4.707e-18)
(0.99969 -0.00013385 -2.7864e-18)
(0.99984 -0.00081019 -1.2617e-17)
(1.0001 -0.0012425 -7.5824e-18)
(1.0006 -0.0018669 -1.3396e-17)
(1.0008 -0.0018073 -5.6878e-18)
(1.002 -0.0023185 2.1751e-17)
(1.0011 -0.0013725 -9.3715e-18)
(1.0041 -0.0013174 4.3091e-17)
(0.99896 -0.00015458 9.3022e-18)
(1.0082 0.0056542 1.3218e-17)
(0.99425 -0.0023166 4.7553e-18)
(1.0058 0.037434 -7.6331e-18)
(0.99967 -0.00013819 -1.4779e-18)
(0.99982 -0.00082521 9.3827e-18)
(1.0001 -0.0012641 1.5023e-17)
(1.0006 -0.0018922 3.6118e-17)
(1.0008 -0.0018325 7.5391e-18)
(1.002 -0.0023376 -1.4919e-17)
(1.0011 -0.0013979 4.5225e-18)
(1.0042 -0.0013041 -4.6361e-17)
(0.99904 -0.00020115 -1.129e-17)
(1.0082 0.0057112 -7.3468e-18)
(0.99476 -0.002284 4.6756e-18)
(1.0058 0.036466 7.6765e-18)
(0.99965 -0.00014213 1.131e-18)
(0.9998 -0.000839 2.221e-18)
(1 -0.0012839 -1.4753e-17)
(1.0006 -0.0019158 -6.0163e-18)
(1.0008 -0.0018566 9.5721e-18)
(1.002 -0.002356 1.7857e-17)
(1.0011 -0.0014235 1.5727e-17)
(1.0042 -0.0012915 4.5884e-18)
(0.99912 -0.00024802 1.2634e-17)
(1.0082 0.0057616 -3.4009e-18)
(0.99526 -0.0022512 -8.3479e-18)
(1.0059 0.035521 -1.9791e-18)
(0.99963 -0.00014573 -4.6323e-20)
(0.99978 -0.00085175 2.5312e-18)
(1 -0.0013024 3.2972e-18)
(1.0006 -0.001938 -7.8101e-18)
(1.0008 -0.0018798 8.8861e-20)
(1.002 -0.0023741 -1.6191e-17)
(1.0012 -0.0014495 -1.0638e-17)
(1.0043 -0.0012799 3.395e-17)
(0.99921 -0.00029518 -1.9103e-17)
(1.0082 0.0058056 1.3208e-17)
(0.99575 -0.0022181 4.4133e-18)
(1.0059 0.034599 -5.5895e-18)
(0.99961 -0.00014904 -3.503e-18)
(0.99976 -0.00086363 -1.1872e-17)
(1 -0.0013198 8.4176e-18)
(1.0006 -0.0019591 -2.1329e-17)
(1.0008 -0.0019024 -2.4207e-17)
(1.002 -0.002392 -2.2366e-17)
(1.0012 -0.001476 -2.1681e-17)
(1.0043 -0.0012692 -3.4769e-18)
(0.99929 -0.00034263 1.6697e-17)
(1.0083 0.0058434 -1.1325e-17)
(0.99622 -0.0021848 4.4143e-19)
(1.006 0.0337 5.2653e-18)
(0.99959 -0.00015211 6.7612e-18)
(0.99974 -0.0008748 1.2406e-17)
(1 -0.0013362 -1.3575e-17)
(1.0006 -0.0019795 1.7512e-17)
(1.0008 -0.0019247 -2.8382e-18)
(1.002 -0.0024098 1.466e-17)
(1.0012 -0.0015031 2.6061e-17)
(1.0044 -0.0012595 -2.6336e-17)
(0.99938 -0.00039037 -8.4711e-18)
(1.0083 0.0058752 1.1952e-17)
(0.99668 -0.0021514 3.8275e-18)
(1.0061 0.032822 -2.4897e-18)
(0.99957 -0.00015498 -5.0732e-18)
(0.99972 -0.00088541 -3.6667e-18)
(0.99998 -0.001352 -2.8381e-18)
(1.0006 -0.0019993 2.0036e-17)
(1.0008 -0.0019469 -6.0764e-18)
(1.002 -0.0024278 -1.8571e-19)
(1.0012 -0.0015308 -5.0996e-18)
(1.0044 -0.0012509 2.1095e-17)
(0.99946 -0.00043838 -8.0493e-18)
(1.0083 0.005901 -8.2068e-18)
(0.99713 -0.002118 -1.1317e-17)
(1.0061 0.031965 2.8942e-18)
(0.99954 -0.0001577 3.4484e-18)
(0.9997 -0.00089558 -4.6489e-18)
(0.99996 -0.0013674 6.4978e-18)
(1.0005 -0.0020188 -3.04e-17)
(1.0008 -0.0019691 4.1168e-17)
(1.0021 -0.002446 6.0737e-18)
(1.0012 -0.0015591 2.0122e-17)
(1.0044 -0.0012433 -1.3053e-17)
(0.99955 -0.00048666 1.0125e-19)
(1.0083 0.0059211 6.0974e-18)
(0.99757 -0.0020847 -2.2134e-18)
(1.0062 0.03113 -1.0892e-18)
(0.99952 -0.0001603 -9.8651e-19)
(0.99968 -0.00090543 9.0865e-19)
(0.99995 -0.0013824 1.5831e-17)
(1.0005 -0.002038 8.2877e-18)
(1.0008 -0.0019914 -2.0581e-17)
(1.0021 -0.0024644 -1.1896e-17)
(1.0012 -0.001588 3.5145e-18)
(1.0045 -0.0012369 -6.3454e-18)
(0.99964 -0.0005352 1.3467e-17)
(1.0084 0.0059356 -4.0043e-18)
(0.998 -0.0020514 1.0617e-17)
(1.0063 0.030315 -3.9706e-18)
(0.9995 -0.00016282 -1.717e-18)
(0.99966 -0.00091505 -8.7592e-18)
(0.99993 -0.0013972 -4.7071e-18)
(1.0005 -0.0020572 3.3279e-17)
(1.0008 -0.0020139 -1.8335e-17)
(1.0021 -0.0024832 -1.0075e-18)
(1.0012 -0.0016177 -5.2545e-17)
(1.0045 -0.0012316 6.2382e-18)
(0.99973 -0.000584 -2.5203e-17)
(1.0084 0.0059446 -8.6368e-18)
(0.99842 -0.0020183 -1.0638e-17)
(1.0063 0.029519 2.3587e-18)
(0.99947 -0.00016527 -7.4122e-19)
(0.99964 -0.00092452 5.4267e-18)
(0.99991 -0.0014119 -1.9432e-18)
(1.0005 -0.0020764 -1.9377e-17)
(1.0008 -0.0020368 2.6349e-17)
(1.0021 -0.0025024 -2.4767e-18)
(1.0012 -0.0016481 2.7833e-17)
(1.0046 -0.0012275 -3.834e-18)
(0.99983 -0.00063305 1.2232e-17)
(1.0084 0.0059484 1.0799e-17)
(0.99882 -0.0019854 8.7784e-18)
(1.0064 0.028743 -5.6906e-19)
(0.99945 -0.00016769 4.2017e-18)
(0.99962 -0.0009339 -3.2467e-18)
(0.99989 -0.0014266 -6.797e-18)
(1.0005 -0.0020957 2.1147e-17)
(1.0008 -0.0020599 1.9339e-18)
(1.0021 -0.0025219 3.0708e-17)
(1.0013 -0.0016792 4.8018e-18)
(1.0046 -0.0012245 1.8318e-17)
(0.99992 -0.00068234 4.5888e-18)
(1.0084 0.0059471 -3.4939e-18)
(0.99922 -0.0019528 1.1455e-18)
(1.0065 0.027985 5.1668e-19)
(0.99942 -0.00017008 1.198e-18)
(0.99959 -0.00094325 1.3276e-18)
(0.99987 -0.0014414 -6.1631e-18)
(1.0005 -0.0021151 -4.2114e-17)
(1.0007 -0.0020835 5.8554e-18)
(1.0021 -0.002542 2.6625e-18)
(1.0013 -0.0017111 -2.0822e-17)
(1.0047 -0.0012228 2.574e-19)
(1 -0.00073187 1.3538e-17)
(1.0084 0.0059407 -2.2442e-18)
(0.99961 -0.0019206 -5.5793e-18)
(1.0065 0.027246 3.0378e-18)
(0.9994 -0.00017247 -5.1302e-18)
(0.99957 -0.0009526 5.6263e-18)
(0.99985 -0.0014562 1.0163e-18)
(1.0005 -0.0021347 2.3385e-17)
(1.0007 -0.0021076 -2.6711e-17)
(1.0021 -0.0025625 -1.1763e-17)
(1.0013 -0.0017437 2.1296e-17)
(1.0047 -0.0012224 -1.2406e-17)
(1.0001 -0.00078165 -2.1412e-17)
(1.0085 0.0059295 -1.108e-17)
(0.99998 -0.0018887 7.112e-18)
(1.0066 0.026525 1.011e-18)
(0.99937 -0.00017487 -5.4281e-19)
(0.99955 -0.000962 -5.6614e-18)
(0.99983 -0.0014713 1.082e-17)
(1.0005 -0.0021546 1.0368e-17)
(1.0007 -0.0021321 3.2991e-17)
(1.0021 -0.0025835 4.5182e-18)
(1.0013 -0.0017771 1.8918e-17)
(1.0047 -0.0012232 3.1448e-17)
(1.0002 -0.00083166 -9.5237e-19)
(1.0085 0.0059136 1.9487e-17)
(1.0003 -0.0018573 -7.5068e-19)
(1.0067 0.025822 -2.9537e-18)
(0.99935 -0.00017728 5.2614e-18)
(0.99952 -0.00097146 -8.2422e-18)
(0.99981 -0.0014865 -1.6423e-17)
(1.0005 -0.0021748 -2.7562e-18)
(1.0007 -0.002157 -3.5806e-17)
(1.0021 -0.002605 -1.3445e-17)
(1.0013 -0.0018112 -6.5656e-18)
(1.0048 -0.0012252 2.3281e-19)
(1.0003 -0.00088191 2.788e-17)
(1.0085 0.0058931 4.4829e-18)
(1.0007 -0.0018265 -9.7901e-18)
(1.0068 0.025135 1.7693e-18)
(0.99932 -0.00017972 -5.8985e-18)
(0.9995 -0.00098102 1.0296e-17)
(0.99979 -0.0015019 8.5968e-18)
(1.0004 -0.0021953 -5.4917e-18)
(1.0007 -0.0021825 2.8795e-17)
(1.0021 -0.002627 1.6084e-17)
(1.0013 -0.0018461 -5.1906e-18)
(1.0048 -0.0012286 -3.1687e-17)
(1.0004 -0.00093239 -9.4515e-19)
(1.0085 0.0058681 -1.2822e-17)
(1.0011 -0.0017962 1.1599e-17)
(1.0069 0.024466 -2.3168e-18)
(0.9993 -0.00018219 3.5443e-18)
(0.99947 -0.00099068 -1.9701e-18)
(0.99976 -0.0015176 1.1382e-17)
(1.0004 -0.0022161 -2.3102e-17)
(1.0007 -0.0022085 9.4022e-18)
(1.0022 -0.0026496 -5.7784e-18)
(1.0014 -0.0018818 -1.1186e-17)
(1.0048 -0.0012333 -2.542e-18)
(1.0005 -0.00098312 -3.3676e-17)
(1.0085 0.0058389 8.4523e-18)
(1.0014 -0.0017666 -1.0638e-17)
(1.0069 0.023812 7.7247e-19)
(0.99927 -0.00018469 2.802e-19)
(0.99945 -0.0010005 -6.1974e-18)
(0.99974 -0.0015335 6.4634e-18)
(1.0004 -0.0022372 3.0406e-17)
(1.0007 -0.002235 -2.2394e-17)
(1.0022 -0.0026728 1.8586e-17)
(1.0014 -0.0019182 -6.4684e-18)
(1.0049 -0.0012393 5.8891e-18)
(1.0006 -0.0010341 4.0018e-17)
(1.0086 0.0058054 -1.5685e-17)
(1.0017 -0.0017376 1.6279e-17)
(1.007 0.023174 2.182e-18)
(0.99924 -0.00018724 5.0291e-19)
(0.99942 -0.0010104 -1.2824e-18)
(0.99972 -0.0015496 -9.2989e-18)
(1.0004 -0.0022587 -4.5778e-18)
(1.0007 -0.0022621 1.9517e-17)
(1.0022 -0.0026965 1.4698e-19)
(1.0014 -0.0019554 -1.2716e-17)
(1.0049 -0.0012467 -1.4053e-17)
(1.0007 -0.0010853 -1.6756e-17)
(1.0086 0.0057679 -1.4759e-18)
(1.002 -0.0017093 2.9987e-18)
(1.0071 0.022552 2.2694e-19)
(0.99921 -0.00018983 -8.0934e-19)
(0.9994 -0.0010204 1.5263e-17)
(0.9997 -0.0015661 -6.2019e-18)
(1.0004 -0.0022805 -2.5867e-17)
(1.0007 -0.0022897 8.9975e-18)
(1.0022 -0.0027209 -4.7352e-17)
(1.0014 -0.0019934 6.342e-18)
(1.005 -0.0012555 8.851e-18)
(1.0008 -0.0011368 7.7822e-19)
(1.0086 0.0057264 1.5916e-17)
(1.0024 -0.0016818 -9.8266e-19)
(1.0072 0.021946 -6.0924e-18)
(0.99919 -0.00019246 -2.1368e-19)
(0.99937 -0.0010306 -2.996e-19)
(0.99967 -0.0015829 8.3487e-18)
(1.0004 -0.0023027 1.5969e-17)
(1.0007 -0.0023179 -3.5751e-17)
(1.0022 -0.0027458 2.0459e-18)
(1.0014 -0.0020322 1.1362e-17)
(1.005 -0.0012656 1.3857e-17)
(1.0009 -0.0011885 -1.061e-17)
(1.0086 0.005681 -1.5488e-17)
(1.0027 -0.0016552 -1.6205e-17)
(1.0073 0.021353 6.4293e-18)
(0.99916 -0.00019514 -1.3981e-18)
(0.99935 -0.001041 4.2644e-19)
(0.99965 -0.0015999 -4.0254e-18)
(1.0004 -0.0023253 -1.0662e-17)
(1.0007 -0.0023466 1.9818e-17)
(1.0022 -0.0027713 2.5415e-17)
(1.0014 -0.0020718 3.3145e-18)
(1.005 -0.0012771 7.0196e-18)
(1.001 -0.0012404 1.6922e-17)
(1.0086 0.0056319 2.6087e-18)
(1.003 -0.0016294 1.2001e-17)
(1.0074 0.020776 -3.9003e-18)
(0.99913 -0.00019788 2.5732e-18)
(0.99932 -0.0010515 7.8624e-19)
(0.99963 -0.0016172 -5.7525e-18)
(1.0003 -0.0023482 1.575e-18)
(1.0006 -0.002376 -1.0745e-17)
(1.0022 -0.0027975 -6.0962e-18)
(1.0015 -0.0021122 -1.2245e-18)
(1.0051 -0.0012901 -3.1694e-17)
(1.0011 -0.0012927 3.3262e-18)
(1.0087 0.0055792 -5.2761e-18)
(1.0032 -0.0016045 -4.8804e-18)
(1.0075 0.020212 -4.694e-18)
(0.9991 -0.00020066 -5.2513e-18)
(0.99929 -0.0010622 1.0272e-18)
(0.9996 -0.0016349 3.0512e-18)
(1.0003 -0.0023716 -1.979e-17)
(1.0006 -0.0024059 -1.2249e-17)
(1.0022 -0.0028243 -2.8299e-17)
(1.0015 -0.0021534 5.9133e-18)
(1.0051 -0.0013045 1.2943e-17)
(1.0012 -0.0013452 -3.5658e-17)
(1.0087 0.005523 2.4337e-17)
(1.0035 -0.0015805 -5.2917e-18)
(1.0076 0.019662 3.0292e-18)
(0.99907 -0.0002035 4.8203e-18)
(0.99927 -0.001073 2.2987e-18)
(0.99958 -0.0016529 1.1735e-18)
(1.0003 -0.0023954 6.2773e-18)
(1.0006 -0.0024365 -2.7052e-18)
(1.0022 -0.0028518 5.4847e-17)
(1.0015 -0.0021955 2.1233e-17)
(1.0051 -0.0013203 -2.0118e-17)
(1.0013 -0.001398 3.4325e-17)
(1.0087 0.0054634 -9.0797e-18)
(1.0038 -0.0015576 -3.4995e-18)
(1.0076 0.019125 -1.506e-18)
(0.99904 -0.00020639 1.1823e-18)
(0.99924 -0.001084 -1.4557e-17)
(0.99955 -0.0016712 2.3484e-18)
(1.0003 -0.0024196 2.8186e-17)
(1.0006 -0.0024676 2.0938e-17)
(1.0022 -0.00288 -8.8724e-19)
(1.0015 -0.0022383 -2.9414e-17)
(1.0052 -0.0013377 6.0971e-18)
(1.0014 -0.0014511 -7.7436e-18)
(1.0087 0.0054005 -1.2555e-17)
(1.0041 -0.0015356 8.8967e-18)
(1.0077 0.018602 1.4075e-18)
(0.99901 -0.00020934 -4.6763e-18)
(0.99921 -0.0010952 -4.8526e-18)
(0.99953 -0.0016898 -1.2721e-17)
(1.0003 -0.0024442 -2.3638e-17)
(1.0006 -0.0024994 -2.1068e-17)
(1.0022 -0.0029089 -2.4923e-17)
(1.0015 -0.002282 5.4332e-18)
(1.0052 -0.0013564 4.7348e-17)
(1.0015 -0.0015045 3.3779e-18)
(1.0087 0.0053344 -1.0914e-18)
(1.0043 -0.0015147 -3.1447e-18)
(1.0078 0.018091 -3.7694e-18)
(0.99898 -0.00021234 3.47e-18)
(0.99918 -0.0011066 4.5081e-18)
(0.9995 -0.0017088 1.9603e-17)
(1.0003 -0.0024692 1.6371e-17)
(1.0006 -0.0025318 2.0497e-17)
(1.0022 -0.0029384 -9.2661e-19)
(1.0016 -0.0023265 -3.0273e-17)
(1.0052 -0.0013767 -2.5589e-17)
(1.0016 -0.0015582 8.3885e-18)
(1.0088 0.0052652 4.3458e-18)
(1.0046 -0.0014949 7.1058e-18)
(1.0079 0.017592 2.9174e-18)
(0.99895 -0.0002154 -2.4505e-18)
(0.99915 -0.0011181 7.0715e-18)
(0.99948 -0.0017281 -1.297e-17)
(1.0002 -0.0024947 2.3689e-18)
(1.0006 -0.0025648 9.5301e-18)
(1.0023 -0.0029687 -2.436e-18)
(1.0016 -0.0023719 6.7951e-18)
(1.0053 -0.0013985 7.1029e-18)
(1.0017 -0.0016122 2.7667e-18)
(1.0088 0.0051929 1.0729e-17)
(1.0048 -0.0014763 -8.5498e-18)
(1.008 0.017106 5.9032e-19)
(0.99891 -0.00021853 3.6996e-18)
(0.99912 -0.0011299 4.3824e-19)
(0.99945 -0.0017478 -6.0708e-18)
(1.0002 -0.0025207 9.4281e-19)
(1.0006 -0.0025986 -1.5658e-18)
(1.0023 -0.0029998 -2.4063e-17)
(1.0016 -0.0024181 1.8981e-17)
(1.0053 -0.0014218 2.5201e-17)
(1.0019 -0.0016666 -1.3748e-17)
(1.0088 0.0051177 -1.4922e-17)
(1.0051 -0.0014587 -2.5071e-18)
(1.0081 0.016631 5.0034e-18)
(0.99888 -0.00022171 -2.6875e-18)
(0.99909 -0.0011418 -3.3752e-19)
(0.99943 -0.0017678 7.5481e-18)
(1.0002 -0.0025471 -1.8113e-17)
(1.0006 -0.0026329 -1.4157e-17)
(1.0023 -0.0030316 3.0379e-17)
(1.0016 -0.0024651 -2.9032e-18)
(1.0053 -0.0014467 -2.6685e-17)
(1.002 -0.0017213 3.5065e-18)
(1.0088 0.0050397 1.4045e-17)
(1.0053 -0.0014424 8.4939e-18)
(1.0082 0.016168 -1.8039e-18)
(0.99885 -0.00022495 2.6704e-19)
(0.99906 -0.0011539 2.472e-18)
(0.9994 -0.0017882 4.1242e-18)
(1.0002 -0.0025739 9.3636e-18)
(1.0006 -0.002668 2.7749e-17)
(1.0023 -0.0030641 7.0819e-18)
(1.0017 -0.0025131 -2.5285e-17)
(1.0054 -0.0014731 2.4982e-18)
(1.0021 -0.0017763 9.0368e-18)
(1.0089 0.004959 -1.2647e-17)
(1.0055 -0.0014273 -5.7494e-18)
(1.0083 0.015716 -2.0832e-18)
(0.99881 -0.00022826 7.5821e-19)
(0.99903 -0.0011662 -4.3009e-19)
(0.99937 -0.001809 -1.0882e-17)
(1.0002 -0.0026013 -2.0138e-19)
(1.0006 -0.0027037 -5.4862e-17)
(1.0023 -0.0030975 8.7305e-18)
(1.0017 -0.0025619 2.4837e-17)
(1.0054 -0.001501 -7.1809e-18)
(1.0022 -0.0018318 -9.4595e-18)
(1.0089 0.0048756 2.0993e-17)
(1.0058 -0.0014134 6.8911e-18)
(1.0084 0.015274 5.3957e-18)
(0.99878 -0.00023164 8.1444e-19)
(0.999 -0.0011787 -8.923e-19)
(0.99934 -0.0018301 1.9679e-17)
(1.0002 -0.0026291 4.3183e-18)
(1.0005 -0.0027401 4.8618e-17)
(1.0023 -0.0031316 -3.0772e-17)
(1.0017 -0.0026116 -8.32e-18)
(1.0054 -0.0015306 6.7547e-18)
(1.0023 -0.0018877 3.2644e-18)
(1.0089 0.0047896 -1.181e-17)
(1.006 -0.0014008 -1.1115e-18)
(1.0085 0.014844 -3.9778e-18)
(0.99875 -0.00023507 -3.1829e-18)
(0.99896 -0.0011915 1.4979e-18)
(0.99932 -0.0018516 -1.1567e-17)
(1.0001 -0.0026575 5.6777e-18)
(1.0005 -0.0027773 -1.8473e-17)
(1.0023 -0.0031666 4.1731e-18)
(1.0017 -0.0026622 3.3316e-17)
(1.0055 -0.0015617 -2.5277e-17)
(1.0024 -0.0019439 -1.1996e-17)
(1.0089 0.0047011 -1.1673e-17)
(1.0062 -0.0013895 -5.4901e-18)
(1.0086 0.014423 -1.0904e-18)
(0.99871 -0.00023858 3.9646e-18)
(0.99893 -0.0012044 -3.5577e-18)
(0.99929 -0.0018736 -1.1224e-17)
(1.0001 -0.0026863 -9.054e-18)
(1.0005 -0.0028151 -3.0204e-17)
(1.0023 -0.0032024 -1.9351e-17)
(1.0018 -0.0027137 -2.0428e-17)
(1.0055 -0.0015944 2.35e-17)
(1.0025 -0.0020006 1.1636e-17)
(1.009 0.0046101 1.7673e-17)
(1.0064 -0.0013795 -2.1556e-18)
(1.0087 0.014013 5.2613e-18)
(0.99868 -0.00024215 -6.3718e-18)
(0.9989 -0.0012175 5.7641e-18)
(0.99926 -0.0018959 2.7483e-17)
(1.0001 -0.0027157 -2.1355e-18)
(1.0005 -0.0028537 3.3417e-17)
(1.0023 -0.0032391 1.4609e-18)
(1.0018 -0.0027661 -1.9571e-17)
(1.0055 -0.0016287 9.191e-18)
(1.0026 -0.0020578 -4.1964e-18)
(1.009 0.0045168 -3.7013e-18)
(1.0066 -0.0013709 6.9904e-18)
(1.0088 0.013613 -3.5577e-18)
(0.99864 -0.0002458 5.2215e-18)
(0.99886 -0.0012309 -7.8335e-18)
(0.99923 -0.0019186 -3.2042e-17)
(1.0001 -0.0027456 1.3969e-17)
(1.0005 -0.0028931 -2.3808e-17)
(1.0023 -0.0032766 2.6748e-17)
(1.0018 -0.0028195 6.3776e-18)
(1.0055 -0.0016647 -8.7524e-18)
(1.0027 -0.0021154 -2.0151e-18)
(1.009 0.0044212 -9.2595e-18)
(1.0068 -0.0013636 -1.1413e-17)
(1.0089 0.013222 4.9097e-18)
(0.9986 -0.00024951 -3.846e-18)
(0.99883 -0.0012445 2.6047e-18)
(0.9992 -0.0019418 1.947e-17)
(1.0001 -0.0027761 -1.8414e-17)
(1.0005 -0.0029332 3.8308e-17)
(1.0023 -0.0033151 -2.0759e-17)
(1.0018 -0.0028738 3.7182e-18)
(1.0056 -0.0017023 -1.3824e-17)
(1.0028 -0.0021735 6.5858e-18)
(1.009 0.0043234 -1.2922e-18)
(1.007 -0.0013577 4.8826e-18)
(1.009 0.01284 -2.1859e-18)
(0.99856 -0.0002533 4.7169e-18)
(0.99879 -0.0012583 2.0277e-18)
(0.99917 -0.0019653 -1.298e-17)
(1 -0.0028071 -3.741e-19)
(1.0005 -0.002974 -1.6911e-18)
(1.0023 -0.0033544 5.0212e-18)
(1.0019 -0.002929 3.5329e-17)
(1.0056 -0.0017415 9.4546e-18)
(1.0029 -0.0022321 -1.9527e-17)
(1.0091 0.0042234 -6.7057e-18)
(1.0072 -0.0013532 -4.6108e-18)
(1.0091 0.012468 2.2887e-18)
(0.99853 -0.00025716 -5.4064e-18)
(0.99876 -0.0012724 -7.5141e-18)
(0.99914 -0.0019893 5.4456e-18)