/*--------------------------------*- C++ -*----------------------------------*\
  =========                 |
  \\      /  F ield         | OpenFOAM: The Open Source CFD Toolbox
   \\    /   O peration     | Website:  https://openfoam.org
    \\  /    A nd           | Version:  6.0
     \\/     M anipulation  |
\*---------------------------------------------------------------------------*/
FoamFile
{
    version     2.0;
    format      ascii;
    class       volScalarField;
    location    "6";
    object      p;
}
// * * * * * * * * * * * * * * * * * * * * * * * * * * * * * * * * * * * * * //

dimensions      [0 2 -2 0 0 0 0];

internalField   nonuniform List<scalar> 
62000
(
0.0311108
0.0308011
0.0304742
0.0301349
0.0297898
0.0294429
0.0290944
0.0287432
0.0283869
0.0280236
0.0276506
0.027266
0.0268676
0.0264532
0.0260209
0.025568
0.0250928
0.0245926
0.0240653
0.0235086
0.0229205
0.022299
0.0216426
0.0209498
0.0202196
0.0194516
0.0186459
0.0178029
0.0169242
0.0160114
0.0150675
0.0140947
0.0130976
0.0120782
0.0110407
0.00998595
0.00891138
0.0078102
0.00667163
0.00548057
0.0042171
0.00285766
0.00137769
-0.000243562
-0.00201707
-0.00393641
-0.00597072
-0.00806236
-0.0101219
-0.0120443
-0.013702
-0.0149823
-0.0157645
-0.015987
-0.015584
-0.0145106
-0.012742
-0.0101163
-0.00693109
-0.0103622
0.0315114
0.0312465
0.0309475
0.0306104
0.0302484
0.0298746
0.0294968
0.0291189
0.0287403
0.028359
0.0279718
0.0275758
0.027168
0.0267456
0.026306
0.0258465
0.0253646
0.0248578
0.0243239
0.0237604
0.0231653
0.0225366
0.0218726
0.0211719
0.0204334
0.0196565
0.0188413
0.0179884
0.0170991
0.0161755
0.0152197
0.0142345
0.0132232
0.0121904
0.0111407
0.0100756
0.00899208
0.00788287
0.00673701
0.00553846
0.00426495
0.00288866
0.00137851
-0.00029563
-0.00215661
-0.00421178
-0.00644401
-0.00880697
-0.0112158
-0.0135606
-0.0156932
-0.0174662
-0.0186968
-0.0192528
-0.0189671
-0.0176686
-0.0151964
-0.0112774
-0.00644667
-0.00342232
0.0321229
0.0319566
0.0317419
0.0314621
0.0311288
0.030758
0.0303642
0.0299579
0.0295434
0.0291219
0.0286916
0.0282507
0.0277966
0.0273269
0.0268394
0.0263315
0.0258013
0.025246
0.0246639
0.0240522
0.023409
0.0227321
0.0220197
0.0212702
0.0204824
0.0196556
0.0187896
0.0178851
0.0169434
0.0159668
0.0149578
0.0139192
0.0128554
0.011773
0.0106796
0.00957955
0.00847307
0.00735642
0.00622349
0.0050639
0.00386089
0.00259181
0.00122959
-0.000254084
-0.00188313
-0.00366933
-0.00560323
-0.00764907
-0.00973307
-0.0117557
-0.0135743
-0.0150438
-0.0159722
-0.0162173
-0.0155968
-0.0139364
-0.0111185
-0.00711529
-0.00261308
0.000351276
0.0332793
0.033192
0.0330506
0.0328342
0.0325465
0.0322003
0.0318119
0.0313962
0.0309614
0.0305116
0.030047
0.0295668
0.0290694
0.0285529
0.0280159
0.0274562
0.0268724
0.0262623
0.0256244
0.0249564
0.0242563
0.0235222
0.0227522
0.0219445
0.0210981
0.0202118
0.0192855
0.0183197
0.0173158
0.016276
0.0152029
0.0140997
0.0129713
0.011826
0.0106745
0.00952406
0.00837859
0.00723855
0.00610341
0.00496953
0.00382748
0.00266225
0.00145403
0.000180095
-0.0011804
-0.00263979
-0.0041934
-0.00581491
-0.00744386
-0.00899712
-0.0103494
-0.0113746
-0.0118959
-0.0117916
-0.0109054
-0.00910879
-0.00637533
-0.00291277
0.000685841
0.00333002
0.034853
0.0348028
0.0347035
0.0345347
0.0342904
0.0339773
0.0336105
0.033206
0.032774
0.0323205
0.0318467
0.0313527
0.0308371
0.0302984
0.0297355
0.0291465
0.0285303
0.0278854
0.0272106
0.0265038
0.0257637
0.0249884
0.0241763
0.0233255
0.022435
0.0215037
0.0205313
0.0195182
0.0184654
0.0173753
0.01625
0.0150928
0.0139083
0.0127067
0.0114992
0.0102961
0.0091039
0.00792621
0.00676684
0.00562764
0.00450555
0.00339265
0.00227635
0.00114019
-3.22351e-05
-0.00125177
-0.00251611
-0.00380613
-0.00507294
-0.00624959
-0.00722955
-0.00790942
-0.00813408
-0.00780879
-0.00680693
-0.00504337
-0.00255031
0.000348984
0.003414
0.00589806
0.036604
0.0365586
0.0364758
0.0363361
0.0361254
0.0358443
0.0355053
0.0351238
0.0347104
0.0342718
0.0338098
0.0333249
0.0328157
0.0322806
0.0317182
0.0311269
0.0305054
0.0298523
0.0291667
0.0284468
0.0276913
0.0268988
0.0260676
0.0251964
0.024284
0.0233294
0.0223322
0.0212925
0.0202114
0.0190906
0.0179322
0.0167388
0.0155151
0.0142705
0.0130183
0.0117692
0.0105316
0.00931131
0.00811484
0.006948
0.00581258
0.00470643
0.0036232
0.00255235
0.00148228
0.000404783
-0.000678331
-0.00175247
-0.00277762
-0.00369991
-0.00442944
-0.00488242
-0.00492309
-0.00448019
-0.00345088
-0.0017745
0.000497705
0.00300895
0.00589273
0.00835505
0.0384364
0.0383807
0.0382987
0.0381719
0.0379813
0.0377229
0.037407
0.037048
0.0366562
0.0362385
0.0357969
0.0353318
0.0348417
0.0343248
0.0337794
0.0332034
0.0325954
0.0319539
0.0312777
0.0305652
0.029815
0.029026
0.0281964
0.0273249
0.0264107
0.0254523
0.0244496
0.0234025
0.0223117
0.0211786
0.020005
0.0187928
0.0175459
0.0162744
0.0149901
0.0137054
0.0124292
0.0111682
0.0099309
0.00872555
0.00755749
0.00642902
0.00533896
0.00428197
0.00325112
0.00224141
0.00125558
0.000305766
-0.000573931
-0.00133962
-0.00191387
-0.00222885
-0.00216403
-0.00166585
-0.000644964
0.000949488
0.00307173
0.00536307
0.00826186
0.0107867
0.040311
0.0402409
0.0401534
0.0400312
0.0398516
0.0396078
0.0393084
0.038967
0.0385936
0.038195
0.0377733
0.037329
0.0368607
0.0363661
0.0358435
0.0352904
0.034705
0.0340853
0.03343
0.0327372
0.0320055
0.0312334
0.0304192
0.0295615
0.0286594
0.0277115
0.0267174
0.0256768
0.0245902
0.0234588
0.0222836
0.0210661
0.01981
0.0185233
0.0172193
0.0159093
0.0146027
0.0133066
0.0120304
0.010784
0.00957521
0.00840964
0.0072902
0.00621603
0.00518448
0.004194
0.00324909
0.00236112
0.00156052
0.000884428
0.000400891
0.000166577
0.00029112
0.000815923
0.00182195
0.00336075
0.00540273
0.00759585
0.0106141
0.0132574
0.0422577
0.042174
0.0420781
0.0419541
0.0417772
0.0415393
0.0412478
0.0409162
0.0405541
0.0401684
0.0397613
0.0393333
0.0388827
0.0384078
0.0379059
0.0373749
0.0368123
0.0362161
0.0355845
0.0349154
0.0342071
0.0334579
0.0326658
0.0318293
0.0309472
0.0300179
0.0290408
0.0280153
0.0269418
0.0258208
0.024653
0.0234395
0.0221825
0.0208911
0.019576
0.0182491
0.0169195
0.0155943
0.0142832
0.0129972
0.0117456
0.0105367
0.00937657
0.0082682
0.0072128
0.00621223
0.00527332
0.00440775
0.00364419
0.00301517
0.00258279
0.00239509
0.00255439
0.0030932
0.00408992
0.00560107
0.00761609
0.00978783
0.0129751
0.0157712
0.0442403
0.0441454
0.0440427
0.0439169
0.0437416
0.0435075
0.0432215
0.0428965
0.0425423
0.0421659
0.0417694
0.0413536
0.0409171
0.0404578
0.0399736
0.0394616
0.0389196
0.0383451
0.0377362
0.0370904
0.0364058
0.0356804
0.034912
0.0340989
0.0332394
0.0323319
0.0313754
0.030369
0.0293126
0.0282066
0.0270511
0.0258465
0.024595
0.0233033
0.0219835
0.0206457
0.0192988
0.0179498
0.0166085
0.0152862
0.0139936
0.0127407
0.0115364
0.0103866
0.0092962
0.00827017
0.00731798
0.00645243
0.00570157
0.00509534
0.00469155
0.00453295
0.0047169
0.00526975
0.00626826
0.00777663
0.00980268
0.0120021
0.0153831
0.0183536
0.0462904
0.0461867
0.0460776
0.0459487
0.0457727
0.0455394
0.0452554
0.0449338
0.0445842
0.0442136
0.0438242
0.0434169
0.0429902
0.0425423
0.0420708
0.0415733
0.041047
0.0404897
0.0398993
0.0392731
0.038609
0.0379049
0.0371582
0.036367
0.0355294
0.0346433
0.0337075
0.0327206
0.0316824
0.0305925
0.0294508
0.0282572
0.0270126
0.0257249
0.0244029
0.0230578
0.0216974
0.0203283
0.0189603
0.0176049
0.0162737
0.0149781
0.0137291
0.0125354
0.0114049
0.0103458
0.00937009
0.00849224
0.00774064
0.00714373
0.00675706
0.00661929
0.00682427
0.00739347
0.00840437
0.00992907
0.0119915
0.0142473
0.0178301
0.0209865
0.0483915
0.0482812
0.0481682
0.0480381
0.0478624
0.0476304
0.0473484
0.0470293
0.0466828
0.0463159
0.0459312
0.0455296
0.0451098
0.0446701
0.0442081
0.0437214
0.0432074
0.0426637
0.0420879
0.0414776
0.0408303
0.0401438
0.0394154
0.0386429
0.0378242
0.036957
0.0360397
0.0350706
0.034049
0.0329743
0.0318457
0.0306626
0.0294262
0.0281414
0.0268191
0.0254681
0.0240962
0.0227095
0.0213175
0.0199321
0.0185652
0.0172295
0.0159378
0.014701
0.0135297
0.0124351
0.011432
0.0105364
0.00977789
0.00918426
0.00880955
0.00869028
0.00891765
0.00950972
0.0105438
0.0121003
0.0142171
0.0165492
0.0203385
0.0236877
0.0505963
0.0504811
0.0503637
0.0502301
0.0500516
0.0498173
0.0495334
0.0492131
0.048866
0.0484996
0.048116
0.0477166
0.0472997
0.0468641
0.0464072
0.0459269
0.0454202
0.0448852
0.0443193
0.0437202
0.043085
0.0424118
0.0416974
0.0409397
0.0401361
0.0392842
0.0383821
0.0374277
0.03642
0.0353578
0.0342403
0.0330662
0.0318353
0.0305542
0.0292303
0.0278736
0.0264906
0.0250871
0.0236726
0.0222587
0.0208579
0.019484
0.018151
0.0168721
0.0156604
0.0145295
0.0134971
0.0125813
0.0118128
0.0112195
0.0108552
0.0107541
0.011006
0.0116253
0.0126909
0.0142907
0.0164742
0.0188944
0.02289
0.026434
0.05285
0.0527317
0.0526124
0.0524782
0.0522997
0.0520655
0.0517817
0.0514615
0.0511148
0.0507489
0.0503664
0.0499684
0.0495537
0.049121
0.0486678
0.048192
0.0476908
0.0471621
0.0466033
0.0460121
0.0453856
0.0447219
0.0440176
0.0432705
0.0424781
0.0416375
0.0407467
0.0398034
0.038806
0.0377533
0.0366437
0.0354756
0.0342491
0.0329681
0.0316419
0.0302781
0.0288835
0.0274634
0.0260269
0.0245858
0.0231529
0.0217426
0.0203705
0.0190514
0.0178007
0.0166346
0.0155732
0.0146369
0.0138579
0.0132647
0.0129106
0.0128294
0.0131093
0.0137624
0.0148677
0.0165208
0.0187811
0.0213001
0.0255035
0.0292434
0.0551966
0.0550758
0.0549544
0.0548185
0.0546384
0.0544026
0.0541175
0.0537963
0.053449
0.0530829
0.0527005
0.0523031
0.0518891
0.0514576
0.0510058
0.0505319
0.050033
0.0495072
0.048952
0.048365
0.0477435
0.0470854
0.0463874
0.0456471
0.0448619
0.0440287
0.0431453
0.0422091
0.0412183
0.0401714
0.0390664
0.0379014
0.0366751
0.0353932
0.0340616
0.0326892
0.0312816
0.0298437
0.0283847
0.0269162
0.0254513
0.0240052
0.0225947
0.0212361
0.0199469
0.0187458
0.0176554
0.0166983
0.0159083
0.0153148
0.0149716
0.0149115
0.015222
0.0159124
0.0170634
0.0187773
0.0211222
0.0237468
0.0281573
0.0320911
0.0576088
0.0574868
0.0573652
0.0572299
0.0570504
0.0568149
0.0565297
0.0562083
0.0558606
0.0554941
0.0551114
0.0547138
0.0543001
0.0538689
0.0534179
0.052945
0.0524475
0.0519233
0.05137
0.0507852
0.0501661
0.0495108
0.0488158
0.0480789
0.0472972
0.0464677
0.0455878
0.044655
0.0436671
0.0426222
0.0415182
0.0403526
0.0391247
0.0378372
0.0364983
0.0351147
0.0336921
0.0322352
0.0307527
0.0292565
0.0277599
0.0262787
0.0248306
0.0234336
0.0221071
0.0208719
0.0197532
0.0187756
0.0179751
0.017382
0.0170503
0.0170129
0.0173572
0.01809
0.0192931
0.0210752
0.0235122
0.0262504
0.0308706
0.0349973
0.0601529
0.0600299
0.0599064
0.0597684
0.0595854
0.059346
0.0590566
0.0587311
0.0583795
0.0580097
0.0576237
0.0572234
0.056807
0.0563735
0.0559203
0.0554455
0.0549461
0.0544205
0.0538659
0.0532803
0.0526606
0.0520051
0.05131
0.0505733
0.0497918
0.0489626
0.0480828
0.0471497
0.0461611
0.0451146
0.044008
0.0428386
0.0416043
0.0403098
0.03896
0.0375627
0.0361227
0.0346445
0.0331368
0.0316114
0.0300819
0.0285646
0.0270784
0.0256426
0.0242783
0.0230085
0.021861
0.0208625
0.0200511
0.019458
0.0191382
0.0191243
0.0195039
0.0202814
0.0215409
0.0233972
0.0259324
0.0287899
0.0336203
0.0379369
0.0627574
0.0626345
0.0625114
0.0623739
0.0621908
0.0619506
0.0616597
0.0613322
0.0609784
0.0606059
0.0602175
0.0598146
0.0593957
0.0589598
0.0585044
0.0580274
0.0575259
0.0569981
0.0564413
0.0558534
0.0552313
0.0545734
0.0538757
0.0531364
0.0523522
0.05152
0.050637
0.0497003
0.0487073
0.0476558
0.0465431
0.0453662
0.0441235
0.0428169
0.0414538
0.0400397
0.0385797
0.0370781
0.0355433
0.0339875
0.0324241
0.0308703
0.0293458
0.0278711
0.0264692
0.0251649
0.0239885
0.022969
0.0221468
0.0215541
0.0212462
0.0212566
0.0216738
0.0225002
0.0238213
0.0257582
0.0283985
0.0313826
0.0364266
0.0409315
0.0654764
0.0653533
0.0652294
0.0650905
0.0649051
0.064662
0.0643677
0.0640369
0.0636797
0.0633041
0.0629124
0.0625062
0.0620838
0.0616442
0.0611847
0.0607035
0.0601974
0.0596649
0.0591033
0.0585105
0.0578835
0.0572205
0.0565177
0.0557731
0.0549833
0.0541453
0.053256
0.0523124
0.0513119
0.0502519
0.0491297
0.047942
0.0466861
0.0453661
0.0439856
0.0425519
0.0410691
0.0395412
0.0379769
0.0363881
0.0347888
0.0331966
0.031632
0.0301169
0.0286759
0.0273358
0.026129
0.0250874
0.0242535
0.0236603
0.0233639
0.0233987
0.0238541
0.0247308
0.026117
0.0281395
0.0308906
0.0340065
0.0392657
0.0439554
0.0682728
0.0681501
0.0680273
0.0678892
0.0677039
0.0674598
0.0671639
0.0668305
0.0664705
0.0660915
0.0656963
0.0652864
0.0648602
0.0644165
0.0639529
0.0634671
0.0629564
0.0624187
0.0618516
0.0612528
0.0606194
0.0599496
0.0592395
0.0584872
0.0576893
0.0568427
0.0559442
0.0549907
0.0539795
0.0529078
0.0517727
0.0505708
0.0492998
0.0479609
0.0465608
0.0451041
0.0435955
0.0420387
0.0404425
0.0388189
0.037182
0.0355499
0.0339441
0.0323878
0.0309068
0.0295299
0.0282921
0.0272276
0.0263813
0.0257872
0.0255018
0.0255612
0.0260564
0.0269867
0.0284424
0.0305565
0.0334249
0.03668
0.0421586
0.0470317
0.071223
0.0711003
0.0709756
0.0708341
0.0706438
0.0703936
0.0700907
0.0697505
0.0693833
0.0689976
0.0685955
0.0681789
0.0677458
0.0672953
0.0668244
0.0663314
0.0658128
0.0652674
0.0646921
0.0640849
0.0634427
0.0627639
0.0620443
0.061282
0.0604736
0.0596158
0.0587054
0.0577391
0.0567142
0.0556276
0.0544766
0.0532573
0.0519663
0.0506075
0.0491834
0.0477007
0.0461632
0.0445744
0.0429432
0.0412818
0.0396044
0.0379298
0.0362803
0.0346802
0.033157
0.0317411
0.03047
0.0293807
0.0285205
0.0279241
0.0276486
0.0277319
0.0282668
0.0292513
0.0307794
0.0329897
0.035981
0.0393806
0.0450809
0.0501343
0.0742407
0.0741185
0.0739944
0.0738528
0.0736612
0.0734084
0.0731018
0.0727569
0.0723845
0.0719931
0.0715851
0.0711622
0.0707227
0.0702655
0.0697878
0.0692876
0.0687615
0.0682079
0.067624
0.0670075
0.0663553
0.0656658
0.0649348
0.0641604
0.0633391
0.0624676
0.0615427
0.0605609
0.0595192
0.0584149
0.0572446
0.0560045
0.054692
0.0533076
0.0518573
0.0503452
0.0487756
0.0471519
0.045483
0.0437813
0.0420613
0.0403421
0.038647
0.0370014
0.0354342
0.0339777
0.0326717
0.0315562
0.0306807
0.030081
0.0298144
0.0299214
0.0304973
0.0315389
0.0331435
0.0354558
0.0385767
0.0421278
0.0480546
0.0532865
0.0773874
0.0772652
0.0771398
0.0769955
0.0767999
0.0765419
0.0762294
0.0758782
0.0754994
0.0751016
0.0746868
0.074257
0.0738098
0.0733447
0.0728582
0.0723488
0.0718126
0.0712486
0.0706534
0.0700253
0.0693608
0.0686584
0.0679138
0.0671251
0.0662886
0.065401
0.0644589
0.0634588
0.0623978
0.0612726
0.0600801
0.0588163
0.0574773
0.0560664
0.0545856
0.0530409
0.051436
0.049774
0.048064
0.0463187
0.0445525
0.0427854
0.0410415
0.0393473
0.0377329
0.0362327
0.034889
0.0337447
0.0328516
0.0322468
0.0319874
0.0321176
0.0327336
0.0338324
0.0355161
0.0379347
0.0411906
0.0448987
0.0510548
0.0564621
0.08062
0.0804981
0.0803733
0.0802289
0.0800319
0.0797709
0.0794542
0.0790978
0.0787131
0.0783085
0.0778868
0.0774494
0.0769946
0.076521
0.0760258
0.075507
0.0749609
0.0743859
0.0737792
0.0731385
0.0724604
0.0717436
0.0709835
0.0701783
0.0693244
0.0684183
0.0674565
0.0664355
0.0653521
0.0642034
0.0629855
0.0616947
0.0603278
0.0588848
0.0573712
0.0557906
0.054147
0.0524436
0.0506895
0.0488976
0.0470827
0.045265
0.0434697
0.0417242
0.0400603
0.038514
0.0371303
0.0359551
0.0350422
0.0344307
0.0341776
0.0343305
0.0349877
0.0361461
0.0379129
0.0404436
0.0438413
0.0477134
0.0541037
0.0596849
0.0840236
0.0839012
0.0837734
0.0836238
0.0834194
0.0831496
0.0828227
0.082456
0.0820606
0.0816456
0.0812131
0.080765
0.0802989
0.079814
0.0793067
0.0787756
0.0782162
0.0776277
0.0770065
0.0763508
0.0756568
0.0749235
0.0741458
0.0733221
0.0724485
0.0715216
0.0705377
0.0694932
0.0683849
0.0672095
0.0659637
0.064643
0.0632432
0.0617674
0.0602168
0.058597
0.0569114
0.055163
0.053361
0.0515188
0.0496511
0.047779
0.0459284
0.0441278
0.0424103
0.0408144
0.039387
0.0381779
0.0372419
0.0366218
0.0363729
0.0365478
0.0372445
0.0384623
0.0403147
0.0429617
0.0465066
0.0505484
0.0571764
0.0629289
0.0875024
0.0873798
0.0872517
0.0871005
0.0868928
0.0866178
0.0862844
0.0859098
0.0855058
0.0850813
0.084639
0.0841804
0.0837036
0.0832074
0.0826885
0.0821449
0.0815726
0.08097
0.080334
0.0796623
0.0789513
0.0781997
0.0774027
0.0765584
0.075663
0.0747129
0.0737045
0.072634
0.0714981
0.0702935
0.0690164
0.0676628
0.066229
0.0647147
0.0631248
0.0614624
0.0597313
0.0579345
0.0560814
0.0541855
0.0522619
0.0503322
0.048423
0.0465642
0.0447898
0.0431412
0.041667
0.0404212
0.0394593
0.0388288
0.0385829
0.0387804
0.0395166
0.040796
0.0427381
0.0455071
0.0492061
0.0534246
0.0602953
0.0662174
0.0911228
0.0909992
0.0908684
0.0907127
0.0904985
0.0902155
0.089873
0.0894887
0.0890746
0.0886399
0.0881867
0.0877169
0.0872279
0.086719
0.0861861
0.085628
0.0850398
0.0844208
0.0837671
0.0830771
0.0823466
0.0815747
0.080756
0.079889
0.0789697
0.0779942
0.0769589
0.0758599
0.0746938
0.0734572
0.0721465
0.0707571
0.0692845
0.0677312
0.0660977
0.0643893
0.0626093
0.0607603
0.058852
0.0568981
0.0549143
0.0529224
0.0509502
0.0490284
0.0471931
0.0454871
0.0439624
0.0426756
0.0416844
0.0410404
0.0407961
0.0410149
0.0417886
0.0431293
0.0451635
0.0480589
0.0519172
0.0563181
0.0634353
0.0695247
0.0948377
0.0947133
0.0945816
0.0944239
0.0942059
0.0939171
0.0935671
0.0931741
0.0927502
0.0923048
0.0918404
0.0913586
0.0908572
0.0903349
0.0897882
0.0892151
0.0886112
0.0879752
0.0873035
0.0865941
0.085843
0.0850492
0.0842072
0.0833156
0.0823701
0.0813671
0.0803026
0.0791727
0.0779739
0.0767029
0.0753555
0.0739276
0.0724149
0.0708169
0.0691376
0.0673798
0.0655472
0.0636422
0.0616751
0.0596598
0.057612
0.0555544
0.0535155
0.051527
0.0496267
0.0478599
0.0462808
0.0449496
0.0439259
0.0432659
0.0430225
0.0432621
0.0440734
0.0454774
0.0476077
0.0506352
0.0546598
0.0592501
0.0666188
0.0728738
0.0987373
0.0986108
0.098474
0.0983082
0.0980794
0.0977779
0.0974137
0.097006
0.0965669
0.0961066
0.0956266
0.0951294
0.0946116
0.094073
0.0935088
0.0929179
0.0922949
0.0916394
0.090947
0.0902161
0.0894422
0.0886246
0.0877574
0.0868393
0.0858658
0.0848332
0.0837374
0.0825743
0.0813405
0.0800323
0.0786461
0.0771767
0.0756194
0.0739762
0.0722468
0.070436
0.068547
0.0665822
0.0645519
0.0624706
0.0603543
0.0582261
0.0561155
0.0540555
0.0520852
0.0502527
0.0486146
0.0472343
0.0461739
0.0454946
0.0452501
0.0455088
0.046355
0.0478218
0.0500505
0.0532144
0.0574106
0.0621962
0.0698208
0.0762398
0.102712
0.102584
0.102445
0.102275
0.10204
0.10173
0.101355
0.100936
0.100484
0.10001
0.0995153
0.099003
0.0984699
0.0979149
0.0973341
0.0967255
0.0960841
0.0954088
0.0946956
0.0939425
0.0931449
0.0923022
0.0914083
0.0904619
0.0894585
0.0883942
0.0872649
0.0860665
0.0847952
0.0834477
0.0820195
0.0805063
0.0789031
0.077209
0.0754272
0.0735598
0.0716107
0.0695822
0.067485
0.065334
0.0631454
0.0609427
0.0587564
0.0566206
0.0545762
0.0526737
0.0509723
0.0495389
0.048438
0.0477365
0.0474896
0.0477675
0.0486476
0.0501788
0.0525099
0.0558158
0.0601905
0.065178
0.0730635
0.0796448
0.106833
0.106702
0.106557
0.10638
0.106135
0.105813
0.105426
0.104993
0.104527
0.104038
0.103529
0.103001
0.102451
0.101879
0.101279
0.100651
0.0999885
0.0992913
0.0985547
0.0977772
0.0969538
0.096084
0.0951615
0.0941849
0.0931497
0.0920517
0.0908868
0.0896508
0.08834
0.0869505
0.0854785
0.0839185
0.0822649
0.0805195
0.0786807
0.0767532
0.0747402
0.0726439
0.0704757
0.0682504
0.0659847
0.0637025
0.0614353
0.0592184
0.0570945
0.0551167
0.0533467
0.051855
0.0507089
0.0499811
0.0497293
0.0500234
0.050935
0.0525299
0.0549654
0.0584173
0.0629758
0.0681711
0.0763224
0.0830649
0.111049
0.110914
0.110767
0.110585
0.110333
0.110002
0.109604
0.109158
0.108679
0.108176
0.107651
0.107107
0.106541
0.105951
0.105333
0.104685
0.104002
0.103282
0.102522
0.10172
0.100869
0.0999712
0.0990185
0.0980099
0.0969409
0.0958072
0.0946047
0.093329
0.0919763
0.0905429
0.0890239
0.0874147
0.0857096
0.0839068
0.0820089
0.0800178
0.0779373
0.0757699
0.0735269
0.0712238
0.0688771
0.0665115
0.064159
0.0618567
0.0596485
0.0575909
0.0557474
0.0541931
0.0529973
0.0522398
0.0519807
0.0522897
0.0532319
0.0548918
0.0574352
0.0610383
0.0657873
0.0711969
0.0796189
0.0865211
0.11546
0.115322
0.115166
0.114973
0.114707
0.114359
0.113943
0.113478
0.112979
0.112457
0.111913
0.111349
0.110762
0.110151
0.109511
0.108841
0.108133
0.107389
0.106603
0.105773
0.104894
0.103965
0.10298
0.101938
0.100833
0.0996621
0.09842
0.0971025
0.0957059
0.0942259
0.0926582
0.0909968
0.0892353
0.087375
0.0854136
0.0833557
0.0812046
0.0789623
0.0766404
0.0742549
0.0718224
0.069368
0.066925
0.0645314
0.0622335
0.0600901
0.0581676
0.0565445
0.0552941
0.0545017
0.0542316
0.0545513
0.0555216
0.0572456
0.0598986
0.0636565
0.0686011
0.0742309
0.0829291
0.0899915
0.11995
0.119807
0.119647
0.119447
0.119172
0.118813
0.118382
0.117902
0.117387
0.116847
0.116284
0.115701
0.115094
0.114462
0.113801
0.113108
0.112377
0.111608
0.110795
0.109937
0.109027
0.108067
0.107049
0.105971
0.104828
0.103618
0.102334
0.100973
0.0995299
0.0980013
0.0963817
0.0946657
0.092847
0.0909232
0.0888969
0.0867694
0.0845445
0.0822241
0.0798201
0.0773485
0.0748262
0.0722788
0.0697406
0.0672511
0.0648585
0.0626241
0.0606174
0.0589205
0.0576107
0.0567789
0.0564943
0.0568228
0.0578203
0.0596092
0.0623743
0.0662919
0.0714384
0.0772946
0.0862738
0.0934958
0.124596
0.124448
0.124281
0.124071
0.123782
0.123409
0.122962
0.122465
0.121931
0.121373
0.120791
0.120188
0.11956
0.118906
0.11822
0.117502
0.116745
0.115947
0.115104
0.114215
0.113273
0.112278
0.111224
0.110109
0.108927
0.107675
0.106348
0.104941
0.10345
0.10187
0.100197
0.0984241
0.0965436
0.0945574
0.092462
0.0902621
0.0879604
0.0855582
0.0830677
0.0805052
0.0778879
0.075242
0.0726029
0.0700115
0.067518
0.0651864
0.0630892
0.0613122
0.0599372
0.05906
0.0587561
0.0590884
0.0601107
0.0619634
0.0648417
0.0689221
0.0742755
0.0803641
0.0896299
0.0970133
0.129369
0.129215
0.129041
0.128823
0.128525
0.128138
0.127675
0.12716
0.126608
0.126029
0.125426
0.124801
0.124149
0.12347
0.122759
0.122014
0.121228
0.120401
0.119527
0.118605
0.117629
0.116599
0.115507
0.114353
0.11313
0.111835
0.110463
0.109009
0.107468
0.105836
0.104107
0.102275
0.100333
0.0982778
0.0961124
0.0938371
0.0914552
0.0889679
0.0863873
0.0837302
0.0810137
0.0782647
0.0755198
0.0728213
0.0702214
0.0677871
0.0655937
0.0637313
0.0622854
0.061358
0.0610299
0.0613634
0.0624096
0.0643263
0.0673196
0.0715672
0.0771332
0.08346
0.0930168
0.100563
0.134434
0.134271
0.134079
0.133835
0.133504
0.133084
0.132587
0.132039
0.131453
0.130843
0.130208
0.129553
0.128871
0.128162
0.12742
0.126645
0.125827
0.124968
0.124061
0.123105
0.122094
0.121027
0.119897
0.118703
0.117439
0.1161
0.114682
0.11318
0.111588
0.109901
0.108115
0.106222
0.104213
0.102091
0.0998515
0.0974977
0.0950323
0.0924557
0.0897805
0.0870235
0.0842023
0.0813443
0.0784874
0.0756755
0.0729626
0.0704188
0.0681223
0.0661677
0.0646443
0.0636604
0.0633019
0.0636311
0.0646985
0.0666779
0.0697868
0.0742044
0.079988
0.0865591
0.0964124
0.104125
0.139252
0.139088
0.138901
0.138666
0.138345
0.13793
0.137436
0.136887
0.136297
0.135679
0.135033
0.134363
0.133663
0.132935
0.132171
0.13137
0.130526
0.129638
0.128701
0.127713
0.126667
0.125565
0.124396
0.123162
0.121856
0.120473
0.119008
0.117455
0.115811
0.114069
0.112223
0.110268
0.108194
0.105998
0.103682
0.101247
0.0986944
0.0960251
0.0932514
0.0903904
0.0874598
0.0844879
0.0815137
0.0785827
0.0757511
0.0730918
0.0706862
0.0686333
0.0670264
0.0659803
0.0655859
0.0659079
0.0669951
0.0690368
0.0722627
0.076854
0.0828606
0.0896815
0.099835
0.107716
0.144604
0.144426
0.144214
0.143946
0.143586
0.143131
0.142595
0.142007
0.141379
0.140726
0.140046
0.139343
0.138612
0.137852
0.137056
0.136225
0.135349
0.134429
0.133458
0.132436
0.131354
0.130215
0.129008
0.127733
0.126384
0.124955
0.123443
0.12184
0.120142
0.118343
0.116437
0.114416
0.112271
0.110004
0.107608
0.105088
0.102445
0.099678
0.0968007
0.0938302
0.0907843
0.0876921
0.084594
0.0815371
0.0785797
0.0757977
0.0732756
0.0711172
0.0694196
0.0683043
0.0678676
0.0681764
0.0692804
0.0713828
0.074726
0.0794938
0.0857283
0.0928051
0.103263
0.111318
0.149675
0.149495
0.149289
0.14903
0.148679
0.148228
0.147694
0.147103
0.146469
0.145804
0.145111
0.144392
0.143642
0.142861
0.142043
0.141186
0.140283
0.139333
0.138332
0.137276
0.13616
0.134983
0.133737
0.13242
0.131027
0.129553
0.127991
0.126337
0.124583
0.122726
0.120757
0.11867
0.116455
0.114109
0.111632
0.109023
0.106285
0.103417
0.100432
0.097348
0.0941819
0.0909643
0.0877367
0.084548
0.0814585
0.0785472
0.0759021
0.0736315
0.0718367
0.070646
0.070161
0.0704533
0.0715722
0.0737344
0.077196
0.0821436
0.088611
0.0959492
0.106714
0.114946
0.155324
0.155128
0.154894
0.154599
0.154206
0.153712
0.153134
0.152501
0.151826
0.151124
0.150393
0.14964
0.148855
0.14804
0.147188
0.146297
0.145359
0.144375
0.143338
0.142246
0.141092
0.139876
0.138588
0.137229
0.135791
0.134269
0.132657
0.130949
0.129139
0.127221
0.125188
0.123032
0.120743
0.118319
0.115756
0.113055
0.110219
0.107245
0.104147
0.100943
0.0976503
0.0943004
0.0909364
0.0876085
0.0843794
0.0813312
0.0785553
0.0761646
0.0742652
0.0729915
0.0724515
0.0727207
0.0738507
0.0760708
0.0796511
0.0847814
0.0914864
0.0990925
0.110168
0.118581
0.160634
0.160437
0.160212
0.159929
0.159548
0.159063
0.15849
0.157857
0.157179
0.156468
0.155727
0.154957
0.154154
0.153318
0.152442
0.151525
0.150559
0.149544
0.148473
0.147346
0.146154
0.144898
0.143569
0.142165
0.14068
0.139109
0.137445
0.135682
0.133813
0.131833
0.129733
0.127506
0.125141
0.122634
0.119983
0.117186
0.114247
0.111164
0.107948
0.10462
0.101196
0.0977083
0.0942019
0.0907286
0.0873534
0.0841614
0.0812475
0.0787296
0.0767183
0.0753547
0.0747533
0.0749959
0.0761343
0.0784109
0.0821107
0.0874268
0.0943742
0.102254
0.11364
0.122239
0.166505
0.166296
0.16605
0.165742
0.165331
0.164813
0.164206
0.163538
0.162824
0.162078
0.161302
0.160497
0.159659
0.158787
0.157874
0.15692
0.155916
0.154863
0.153753
0.152586
0.151353
0.150055
0.148682
0.147232
0.145699
0.144076
0.142359
0.140538
0.138609
0.136564
0.134396
0.132095
0.12965
0.127059
0.124315
0.121419
0.118373
0.115175
0.111836
0.108377
0.104816
0.101184
0.0975274
0.0939011
0.0903718
0.0870277
0.0839677
0.0813142
0.0791831
0.0777216
0.077052
0.0772608
0.078403
0.0807342
0.084554
0.0900589
0.0972534
0.105414
0.117114
0.125904
0.1724
0.172185
0.171929
0.171608
0.171178
0.170638
0.170004
0.169307
0.168563
0.167786
0.166979
0.166143
0.165274
0.16437
0.163427
0.162441
0.161404
0.160316
0.15917
0.157964
0.15669
0.155349
0.153931
0.152433
0.15085
0.149175
0.147402
0.145522
0.14353
0.141418
0.139178
0.136801
0.134276
0.131594
0.128755
0.125756
0.122599
0.119281
0.115816
0.112221
0.108517
0.104734
0.100923
0.0971367
0.0934463
0.089943
0.086729
0.0839322
0.0816735
0.0801067
0.0793618
0.0795328
0.0806754
0.0830594
0.0869996
0.0926964
0.100142
0.108589
0.120606
0.129593
0.178386
0.178165
0.177903
0.177573
0.177133
0.176579
0.175929
0.175215
0.174451
0.173652
0.172819
0.171956
0.171056
0.170121
0.169143
0.168121
0.167047
0.16592
0.164734
0.163487
0.162171
0.160785
0.15932
0.157774
0.156139
0.154409
0.152578
0.150638
0.148581
0.1464
0.144086
0.14163
0.139017
0.136247
0.133307
0.1302
0.126927
0.123485
0.119886
0.11615
0.112296
0.108356
0.104381
0.100428
0.0965678
0.0928964
0.0895199
0.0865709
0.0841764
0.0824958
0.0816684
0.0817935
0.0829312
0.0853659
0.0894272
0.0953191
0.103022
0.111762
0.124099
0.133291
0.184414
0.184186
0.183918
0.183582
0.183133
0.182567
0.181904
0.181174
0.180394
0.179578
0.178728
0.177846
0.176927
0.175969
0.174968
0.17392
0.172817
0.171658
0.170437
0.169152
0.167795
0.166365
0.164853
0.163256
0.161569
0.159783
0.157893
0.155889
0.153765
0.151512
0.149121
0.146583
0.143883
0.141014
0.137972
0.134753
0.13136
0.127789
0.124053
0.12017
0.116161
0.112058
0.107913
0.103785
0.0997489
0.0959017
0.0923545
0.0892448
0.0867063
0.0849039
0.0839865
0.084061
0.0851895
0.0876726
0.0918555
0.0979454
0.105909
0.114949
0.12761
0.137011
0.190669
0.190434
0.190157
0.189809
0.189347
0.188766
0.188086
0.187338
0.186539
0.185704
0.184832
0.183926
0.182981
0.181996
0.180964
0.179884
0.178747
0.177552
0.176293
0.174968
0.173568
0.172093
0.170534
0.168886
0.167145
0.165301
0.16335
0.16128
0.159086
0.156759
0.154288
0.151664
0.148871
0.145905
0.142754
0.139419
0.1359
0.132195
0.128315
0.12428
0.120108
0.115834
0.111512
0.107201
0.10298
0.0989475
0.0952204
0.0919408
0.0892497
0.087317
0.0863023
0.086317
0.0874304
0.0899596
0.0942652
0.100557
0.108785
0.118133
0.131122
0.140738
0.197047
0.196804
0.196519
0.196161
0.195686
0.195089
0.194391
0.193623
0.192803
0.191947
0.191054
0.190126
0.189159
0.188151
0.187095
0.185988
0.184822
0.183594
0.182301
0.180937
0.179495
0.177975
0.176367
0.174667
0.17287
0.170967
0.168952
0.166815
0.164548
0.162143
0.159589
0.156876
0.153989
0.150917
0.147656
0.144199
0.140551
0.136706
0.132678
0.128485
0.124145
0.119695
0.115189
0.110688
0.106273
0.102048
0.0981325
0.0946737
0.0918219
0.0897506
0.0886307
0.0885799
0.0896731
0.0922457
0.0966742
0.10317
0.111668
0.12133
0.134653
0.144487
0.203678
0.203426
0.203132
0.202761
0.20227
0.201655
0.200937
0.200148
0.199307
0.198426
0.197507
0.196552
0.195555
0.194515
0.193425
0.192282
0.191079
0.189813
0.188479
0.187072
0.185585
0.184017
0.182358
0.180604
0.17875
0.176785
0.174704
0.172497
0.170155
0.167669
0.165029
0.162223
0.159234
0.156058
0.152679
0.149098
0.145314
0.141325
0.137141
0.132784
0.128269
0.123635
0.118936
0.114237
0.10962
0.105191
0.101078
0.0974301
0.094409
0.0921909
0.0909581
0.0908312
0.0918972
0.0945113
0.0990642
0.105767
0.114541
0.124523
0.138185
0.148242
0.210448
0.210188
0.209883
0.209502
0.208997
0.208364
0.207626
0.206814
0.205949
0.205044
0.2041
0.203119
0.202096
0.201028
0.19991
0.198736
0.197499
0.196196
0.194823
0.193373
0.191841
0.190224
0.188512
0.186702
0.184787
0.182759
0.180609
0.178328
0.175908
0.173339
0.170609
0.167707
0.164617
0.161326
0.157828
0.154116
0.150193
0.146054
0.141711
0.137184
0.132489
0.127664
0.122766
0.11786
0.113032
0.108392
0.104071
0.100226
0.0970266
0.0946535
0.0933007
0.0930897
0.0941226
0.0967751
0.101453
0.108366
0.117418
0.127727
0.141734
0.152019
0.217487
0.217217
0.216902
0.216506
0.215983
0.21533
0.214569
0.213733
0.212841
0.211908
0.210934