/*--------------------------------*- C++ -*----------------------------------*\
  =========                 |
  \\      /  F ield         | OpenFOAM: The Open Source CFD Toolbox
   \\    /   O peration     | Website:  https://openfoam.org
    \\  /    A nd           | Version:  6.0
     \\/     M anipulation  |
\*---------------------------------------------------------------------------*/
FoamFile
{
    version     2.0;
    format      ascii;
    class       surfaceScalarField;
    location    "6";
    object      phi;
}
// * * * * * * * * * * * * * * * * * * * * * * * * * * * * * * * * * * * * * //

dimensions      [0 3 -1 0 0 0 0];

internalField   nonuniform List<scalar> 
123526
(
5.55083e-05
2.30498e-05
-5.51223e-05
5.59343e-05
2.49143e-05
5.63871e-05
2.69296e-05
5.68835e-05
2.91079e-05
5.74123e-05
3.14618e-05
5.79908e-05
3.4005e-05
5.86089e-05
3.67525e-05
5.92841e-05
3.97204e-05
6.00077e-05
4.29254e-05
6.07983e-05
4.63875e-05
6.16456e-05
5.01272e-05
6.25698e-05
5.41658e-05
6.35612e-05
5.85264e-05
6.46444e-05
6.32322e-05
6.58105e-05
6.83112e-05
6.70807e-05
7.3796e-05
6.84465e-05
7.97147e-05
6.99376e-05
8.60948e-05
7.15463e-05
9.29792e-05
7.32929e-05
0.000100407
7.51814e-05
0.000108407
7.72344e-05
0.000117031
7.9448e-05
0.000126327
8.18564e-05
0.000136325
8.44557e-05
0.000147097
8.72733e-05
0.00015868
9.03198e-05
0.00017113
9.36147e-05
0.00018451
9.71779e-05
0.000198863
0.000101027
0.000214262
0.000105186
0.000230748
0.000109673
0.000248388
0.000114512
0.000267225
0.000119728
0.000287308
0.000125346
0.000308673
0.000131399
0.000331339
0.000137908
0.000355324
0.000144902
0.000380606
0.00015241
0.000407143
0.000160455
0.000434855
0.000169062
0.00046361
0.00017825
0.000493212
0.000188034
0.000523393
0.000198419
0.000553785
0.000209402
0.000583898
0.000220963
0.000613096
0.000233068
0.00064056
0.000245661
0.000665245
0.000258659
0.000685834
0.000271951
0.000700668
0.00028538
0.000707686
0.000298749
0.000704334
0.000311793
0.000687493
0.000324183
0.000653357
0.000335491
0.000597389
0.000345208
0.000514176
0.000352697
0.000397554
0.000355719
0.000241507
0.000362768
2.46092e-05
-0.000236846
0.000383497
5.40415e-05
2.26655e-05
-5.36592e-05
5.44637e-05
2.44972e-05
5.49129e-05
2.64779e-05
5.54061e-05
2.8619e-05
5.59329e-05
3.09325e-05
5.65099e-05
3.34319e-05
5.71279e-05
3.61321e-05
5.78035e-05
3.90488e-05
5.85284e-05
4.21975e-05
5.93201e-05
4.55995e-05
6.01688e-05
4.92753e-05
6.10936e-05
5.32448e-05
6.20851e-05
5.75311e-05
6.31664e-05
6.21545e-05
6.43297e-05
6.7144e-05
6.55939e-05
7.25351e-05
6.69524e-05
7.83527e-05
6.84321e-05
8.46181e-05
7.00273e-05
9.1381e-05
7.17558e-05
9.86805e-05
7.36238e-05
0.000106537
7.56511e-05
0.000115006
7.78365e-05
0.00012414
8.0211e-05
0.000133952
8.27741e-05
0.000144532
8.55496e-05
0.000155905
8.85517e-05
0.000168127
9.17964e-05
0.000181265
9.53072e-05
0.000195352
9.90982e-05
0.000210471
0.000103197
0.00022665
0.000107619
0.000243966
0.00011239
0.000262452
0.000117534
0.000282161
0.000123077
0.000303129
0.00012905
0.000325366
0.000135474
0.000348901
0.000142378
0.000373704
0.000149788
0.000399735
0.000157726
0.000426919
0.000166216
0.000455124
0.000175277
0.000484157
0.000184919
0.000513759
0.000195146
0.000543567
0.000205952
0.000573103
0.000217319
0.000601744
0.00022921
0.000628687
0.00024157
0.000652907
0.000254319
0.00067311
0.000267349
0.000687669
0.000280506
0.000694561
0.000293601
0.000691279
0.000306371
0.000674761
0.000318494
0.000641276
0.00032955
0.000586371
0.000339032
0.000504736
0.000346306
0.000390292
0.000350396
0.000237411
0.000351395
2.3523e-05
-0.000236693
0.000351204
5.35804e-05
2.22834e-05
-5.32002e-05
5.39973e-05
2.40853e-05
5.44384e-05
2.60343e-05
5.49203e-05
2.81413e-05
5.54325e-05
3.04176e-05
5.59919e-05
3.28765e-05
5.65892e-05
3.55324e-05
5.72411e-05
3.84007e-05
5.79398e-05
4.14959e-05
5.87026e-05
4.48404e-05
5.95203e-05
4.84544e-05
6.04118e-05
5.2357e-05
6.13684e-05
5.65708e-05
6.24127e-05
6.11135e-05
6.35378e-05
6.60151e-05
6.4762e-05
7.1314e-05
6.60793e-05
7.70319e-05
6.75162e-05
8.3184e-05
6.90675e-05
8.98269e-05
7.07504e-05
9.69998e-05
7.25716e-05
0.000104714
7.45502e-05
0.000113029
7.66856e-05
0.000122002
7.90079e-05
0.000131631
8.15171e-05
0.000142022
8.42364e-05
0.000153186
8.71805e-05
0.000165182
9.03645e-05
0.00017808
9.38126e-05
0.000191903
9.75379e-05
0.000206745
0.000101568
0.000222619
0.000105919
0.000239615
0.000110616
0.000257753
0.000115681
0.000277091
0.000121141
0.000297666
0.000127026
0.00031948
0.000133355
0.000342571
0.000140156
0.000366903
0.000147454
0.000392436
0.000155271
0.000419103
0.000163626
0.000446769
0.000172537
0.000475246
0.000182014
0.000504283
0.000192058
0.000533524
0.000202664
0.000562499
0.000213812
0.000590598
0.000225466
0.000617034
0.000237575
0.0006408
0.000250057
0.000660626
0.000262812
0.000674915
0.000275689
0.000681677
0.000288505
0.000678455
0.000301002
0.000662239
0.000312868
0.000629373
0.00032369
0.000575484
0.000332981
0.000495367
0.000340128
0.000383019
0.000344549
0.000232845
0.000345704
2.20854e-05
-0.000236389
0.000345174
5.34463e-05
2.19081e-05
-5.30726e-05
5.38549e-05
2.36815e-05
5.42871e-05
2.55998e-05
5.47588e-05
2.76737e-05
5.52598e-05
2.99142e-05
5.58061e-05
3.23341e-05
5.63886e-05
3.49476e-05
5.70233e-05
3.77696e-05
5.77027e-05
4.08137e-05
5.84436e-05
4.4103e-05
5.92369e-05
4.76578e-05
6.01013e-05
5.14962e-05
6.10282e-05
5.56401e-05
6.204e-05
6.0105e-05
6.31299e-05
6.49214e-05
6.43164e-05
7.01307e-05
6.55936e-05
7.57513e-05
6.69877e-05
8.17926e-05
6.8494e-05
8.83177e-05
7.01296e-05
9.53663e-05
7.19013e-05
0.00010294
7.3828e-05
0.000111103
7.59094e-05
0.000119919
7.81753e-05
0.000129366
8.06257e-05
0.00013957
8.32837e-05
0.000150528
8.61637e-05
0.000162301
8.92806e-05
0.000174963
9.26584e-05
0.000188524
9.631e-05
0.000203093
0.000100263
0.000218667
0.000104532
0.000235345
0.000109142
0.000253141
0.000114115
0.000272113
0.000119477
0.000292301
0.000125257
0.000313698
0.000131473
0.000336353
0.000138153
0.000360222
0.00014532
0.000385268
0.000152993
0.000411427
0.000161193
0.000438566
0.000169935
0.000466502
0.000179228
0.000494988
0.000189073
0.000523676
0.000199464
0.000552106
0.000210382
0.000579679
0.000221792
0.000605623
0.000233643
0.000628949
0.000245859
0.000648409
0.00025834
0.000662436
0.000270941
0.000669075
0.000283484
0.000665913
0.000295717
0.000649995
0.000307335
0.000617736
0.00031794
0.000564847
0.000327064
0.000486202
0.000334122
0.000375881
0.000338689
0.000228154
0.000339651
2.08519e-05
-0.000235186
0.000338269
5.32058e-05
2.15431e-05
-5.28423e-05
5.3604e-05
2.3288e-05
5.40263e-05
2.51753e-05
5.4488e-05
2.72159e-05
5.49795e-05
2.94204e-05
5.55158e-05
3.18015e-05
5.60884e-05
3.43729e-05
5.67123e-05
3.71493e-05
5.73805e-05
4.0143e-05
5.81087e-05
4.33783e-05
5.88883e-05
4.68753e-05
5.97369e-05
5.0651e-05
6.06466e-05
5.4727e-05
6.16387e-05
5.91162e-05
6.27069e-05
6.38498e-05
6.38685e-05
6.8972e-05
6.51187e-05
7.4498e-05
6.64825e-05
8.04314e-05
6.79557e-05
8.68418e-05
6.9555e-05
9.37691e-05
7.12874e-05
0.000101205
7.31715e-05
0.000109221
7.52072e-05
0.000117882
7.74238e-05
0.00012715
7.98216e-05
0.00013717
8.24233e-05
0.000147926
8.52432e-05
0.00015948
8.82962e-05
0.000171909
9.16056e-05
0.000185214
9.51845e-05
0.000199514
9.90596e-05
0.000214792
0.000103246
0.000231159
0.000107766
0.000248617
0.000112644
0.000267231
0.000117904
0.000287038
0.000123573
0.000308026
0.000129671
0.000330253
0.000136223
0.000353668
0.000143251
0.000378237
0.000150775
0.000403901
0.000158813
0.000430525
0.00016738
0.000457931
0.000176485
0.00048588
0.000186129
0.000514029
0.000196305
0.000541927
0.000206994
0.000568986
0.000218164
0.000594448
0.000229765
0.000617343
0.000241722
0.000636444
0.00025394
0.000650212
0.000266276
0.000656725
0.000278558
0.000653617
0.000290538
0.000637984
0.000301922
0.000606309
0.00031232
0.00055438
0.000321284
0.000477158
0.000328248
0.000368799
0.000332806
0.000223466
0.000333753
1.96629e-05
-0.000233561
0.000331943
5.27861e-05
2.11874e-05
-5.2432e-05
5.31749e-05
2.29036e-05
5.35882e-05
2.47599e-05
5.40408e-05
2.6767e-05
5.45235e-05
2.89355e-05
5.5051e-05
3.12776e-05
5.5615e-05
3.38068e-05
5.62302e-05
3.65375e-05
5.68897e-05
3.9481e-05
5.76087e-05
4.26626e-05
5.8379e-05
4.61022e-05
5.92173e-05
4.9816e-05
6.0116e-05
5.3825e-05
6.10957e-05
5.81398e-05
6.21499e-05
6.27921e-05
6.32958e-05
6.78291e-05
6.45281e-05
7.32626e-05
6.58714e-05
7.90906e-05
6.73216e-05
8.53891e-05
6.88947e-05
9.21979e-05
7.05978e-05
9.94997e-05
7.24489e-05
0.000107371
7.44483e-05
0.00011588
7.66244e-05
0.000124974
7.89779e-05
0.000134815
8.1531e-05
0.000145373
8.42978e-05
0.000156712
8.7293e-05
0.000168913
9.05396e-05
0.000181967
9.40503e-05
0.000196002
9.78517e-05
0.00021099
0.000101958
0.000227052
0.000106392
0.00024418
0.000111177
0.000262442
0.000116335
0.000281876
0.000121895
0.000302464
0.000127875
0.000324271
0.000134298
0.000347242
0.000141188
0.000371344
0.000148563
0.000396523
0.00015644
0.000422645
0.000164835
0.000449533
0.000173754
0.000476956
0.0001832
0.000504578
0.000193166
0.000531956
0.000203634
0.000558513
0.000214571
0.000583504
0.000225932
0.000605977
0.000237642
0.000624727
0.000249608
0.00063824
0.000261691
0.000644632
0.000273724
0.000641573
0.000285464
0.00062622
0.000296623
0.000595117
0.000306824
0.00054413
0.000315629
0.000468289
0.000322488
0.000361839
0.000326971
0.00021883
0.000327959
1.83606e-05
-0.000231673
0.000325855
5.22177e-05
2.0839e-05
-5.18706e-05
5.2599e-05
2.25267e-05
5.30047e-05
2.43522e-05
5.34492e-05
2.63262e-05
5.39237e-05
2.84588e-05
5.44426e-05
3.07622e-05
5.49981e-05
3.32493e-05
5.56045e-05
3.59344e-05
5.62554e-05
3.88278e-05
5.69654e-05
4.19558e-05
5.77267e-05
4.53383e-05
5.85554e-05
4.89904e-05
5.94445e-05
5.29329e-05
6.04134e-05
5.71738e-05
6.14565e-05
6.17459e-05
6.25897e-05
6.66987e-05
6.38082e-05
7.20412e-05
6.51356e-05
7.77657e-05
6.65679e-05
8.39543e-05
6.81206e-05
9.06471e-05
6.98006e-05
9.78177e-05
7.16253e-05
0.000105548
7.35949e-05
0.000113909
7.57373e-05
0.000122833
7.80532e-05
0.000132498
8.05641e-05
0.000142862
8.32841e-05
0.00015399
8.62276e-05
0.000165969
8.94169e-05
0.000178776
9.28649e-05
0.000192554
9.65973e-05
0.000207258
0.000100628
0.000223021
0.00010498
0.000239825
0.000109675
0.000257743
0.000114736
0.000276812
0.000120189
0.000297008
0.000126054
0.000318405
0.000132352
0.000340942
0.000139107
0.000364587
0.000146336
0.000389291
0.000154056
0.000414921
0.000162282
0.000441304
0.000171021
0.000468213
0.000180275
0.00049532
0.000190038
0.000522189
0.000200293
0.000548254
0.000211008
0.000572783
0.000222138
0.000594842
0.000233611
0.000613246
0.000245337
0.000626509
0.000257179
0.000632778
0.000268974
0.000629769
0.000280486
0.000614686
0.00029143
0.000584137
0.000301439
0.000534065
0.000310087
0.000459577
0.000316831
0.000355002
0.000321222
0.000214344
0.000322257
1.71528e-05
-0.000229484
0.000319935
5.15461e-05
2.04965e-05
-5.12049e-05
5.19208e-05
2.21561e-05
5.23196e-05
2.39515e-05
5.27563e-05
2.58928e-05
5.3223e-05
2.79902e-05
5.37332e-05
3.02551e-05
5.42799e-05
3.27007e-05
5.48768e-05
3.53405e-05
5.55181e-05
3.81843e-05
5.6218e-05
4.1259e-05
5.6969e-05
4.45846e-05
5.77871e-05
4.81754e-05
5.86653e-05
5.20517e-05
5.96227e-05
5.62194e-05
6.06537e-05
6.07117e-05
6.1774e-05
6.55811e-05
6.29787e-05
7.08336e-05
6.42909e-05
7.64559e-05
6.57065e-05
8.25362e-05
6.72406e-05
8.91149e-05
6.88997e-05
9.61566e-05
7.07008e-05
0.000103748
7.2644e-05
0.000111964
7.47564e-05
0.000120721
7.70386e-05
0.000130214
7.95117e-05
0.000140389
8.21893e-05
0.000151312
8.50854e-05
0.000163072
8.82221e-05
0.000175639
9.16117e-05
0.000189163
9.52795e-05
0.00020359
9.92391e-05
0.00021906
0.000103513
0.000235549
0.000108122
0.00025313
0.000113089
0.000271842
0.000118441
0.000291654
0.000124194
0.00031265
0.000130372
0.000334762
0.000136996
0.00035796
0.000144083
0.000382201
0.000151651
0.000407349
0.000159714
0.000433237
0.00016828
0.000459643
0.000177349
0.000486244
0.000186918
0.000512615
0.000196968
0.000538197
0.00020747
0.000562274
0.00021838
0.000583926
0.000229627
0.00060199
0.000241123
0.000615005
0.000252735
0.000621153
0.000264303
0.000618188
0.000275595
0.000603369
0.000286332
0.000573365
0.000296156
0.00052419
0.000304648
0.000451018
0.000311277
0.000348271
0.000315574
0.000209893
0.000316636
1.57776e-05
-0.000227216
0.000314152
5.081e-05
2.01595e-05
-5.04742e-05
5.11785e-05
2.17917e-05
5.15706e-05
2.35576e-05
5.19998e-05
2.5467e-05
5.24585e-05
2.75296e-05
5.29599e-05
2.97569e-05
5.34973e-05
3.21615e-05
5.40841e-05
3.47568e-05
5.47149e-05
3.75515e-05
5.54034e-05
4.05735e-05
5.61429e-05
4.38429e-05
5.69485e-05
4.73728e-05
5.7814e-05
5.11835e-05
5.87578e-05
5.52784e-05
5.9775e-05
5.96918e-05
6.08803e-05
6.44785e-05
6.20696e-05
6.96417e-05
6.33649e-05
7.51628e-05
6.47627e-05
8.11361e-05
6.62773e-05
8.76022e-05
6.79152e-05
9.45168e-05
6.96928e-05
0.000101971
7.16102e-05
0.000110045
7.36937e-05
0.000118638
7.59437e-05
0.000127963
7.83808e-05
0.000137952
8.10183e-05
0.000148673
8.38697e-05
0.00016022
8.69566e-05
0.000172551
9.02909e-05
0.000185829
9.38973e-05
0.000199984
9.77893e-05
0.000215168
0.000101989
0.000231347
0.000106516
0.000248599
0.000111393
0.000266961
0.000116647
0.000286398
0.000122293
0.000307002
0.000128354
0.000328698
0.000134852
0.00035146
0.000141804
0.000375246
0.000149226
0.000399924
0.000157132
0.000425327
0.000165531
0.000451241
0.000174424
0.000477348
0.000183805
0.000503229
0.00019366
0.000528339
0.000203958
0.000551971
0.000214657
0.000573224
0.000225688
0.000590953
0.000236965
0.000603726
0.000248355
0.000609755
0.000259706
0.000606835
0.000270786
0.000592274
0.000281324
0.000562802
0.000290969
0.000514506
0.000299308
0.000442635
0.000305821
0.000341695
0.000310026
0.000205631
0.000311096
1.46083e-05
-0.000224677
0.000308485
5.00352e-05
1.98281e-05
-4.97052e-05
5.03972e-05
2.14334e-05
5.07826e-05
2.31704e-05
5.12042e-05
2.50484e-05
5.16548e-05
2.7077e-05
5.21472e-05
2.92674e-05
5.26753e-05
3.16317e-05
5.32516e-05
3.41833e-05
5.38714e-05
3.69297e-05
5.45479e-05
3.98998e-05
5.52748e-05
4.31137e-05
5.60668e-05
4.65836e-05
5.69181e-05
5.03294e-05
5.78468e-05
5.43525e-05
5.88481e-05
5.86877e-05
5.99366e-05
6.33925e-05
6.11084e-05
6.84673e-05
6.2385e-05
7.38885e-05
6.3763e-05
7.97559e-05
6.52562e-05
8.61106e-05
6.68714e-05
9.28998e-05
6.86242e-05
0.00010022
7.05148e-05
0.000108153
7.25687e-05
0.000116585
7.47864e-05
0.000125744
7.71878e-05
0.00013555
7.97858e-05
0.000146074
8.25935e-05
0.000157411
8.5632e-05
0.000169512
8.89128e-05
0.000182547
9.24601e-05
0.000196437
9.62868e-05
0.000211341
0.000100414
0.000227217
0.000104863
0.000244146
0.000109654
0.000262167
0.000114813
0.000281238
0.000120356
0.000301457
0.000126306
0.000322747
0.000132683
0.000345081
0.000139503
0.000368422
0.000146785
0.000392639
0.000154541
0.000417567
0.000162779
0.000442998
0.000171502
0.00046862
0.000180704
0.000494021
0.000190371
0.000518666
0.000200474
0.000541861
0.000210971
0.00056272
0.000221794
0.00058012
0.00023286
0.000592653
0.000244039
0.000598562
0.00025518
0.000595683
0.000266056
0.000581375
0.000276402
0.000552425
0.000285872
0.000504989
0.000294061
0.000434384
0.00030046
0.000335204
0.000304576
0.000201374
0.000305637
1.32587e-05
-0.000222173
0.000302931
4.92393e-05
1.95025e-05
-4.89147e-05
4.95949e-05
2.10815e-05
4.99734e-05
2.27901e-05
5.03874e-05
2.46375e-05
5.083e-05
2.66327e-05
5.13134e-05
2.87868e-05
5.18319e-05
3.11117e-05
5.23976e-05
3.36203e-05
5.30061e-05
3.63193e-05
5.36702e-05
3.92385e-05
5.4384e-05
4.23978e-05
5.51618e-05
4.58087e-05
5.59981e-05
4.94906e-05
5.69105e-05
5.34428e-05
5.78949e-05
5.77008e-05
5.8965e-05
6.23247e-05
6.01177e-05
6.73123e-05
6.13736e-05
7.26346e-05
6.273e-05
7.83975e-05
6.42001e-05
8.46421e-05
6.57906e-05
9.13075e-05
6.75168e-05
9.84947e-05
6.9379e-05
0.00010629
7.1402e-05
0.000114562
7.35864e-05
0.000123558
7.59513e-05
0.000133185
7.85094e-05
0.000143515
8.12734e-05
0.000154647
8.42638e-05
0.000166521
8.74919e-05
0.000179319
9.09811e-05
0.000192948
9.47441e-05
0.000207577
9.88018e-05
0.000223157
0.000103174
0.000239771
0.000107881
0.000257457
0.000112949
0.000276168
0.000118393
0.000296011
0.000124234
0.000316903
0.000130494
0.000338818
0.000137189
0.000361725
0.000144335
0.00038549
0.000151946
0.000409952
0.00016003
0.00043491
0.00016859
0.000460057
0.00017762
0.000484988
0.000187107
0.000509176
0.000197022
0.000531942
0.000207324
0.000552416
0.000217948
0.000569493
0.00022881
0.00058179
0.000239784
0.000587584
0.000250723
0.000584749
0.000261403
0.000570688
0.000271562
0.000542251
0.000280862
0.000495662
0.000288905
0.000426311
0.000295191
0.000328878
0.000299222
0.000197317
0.00030026
1.21802e-05
-0.000219426
0.000297485
4.84327e-05
1.91825e-05
-4.81143e-05
4.87816e-05
2.07357e-05
4.91533e-05
2.24166e-05
4.95597e-05
2.42338e-05
4.99943e-05
2.61963e-05
5.04687e-05
2.83148e-05
5.09778e-05
3.0601e-05
5.15331e-05
3.30675e-05
5.21304e-05
3.572e-05
5.27822e-05
3.85893e-05
5.34828e-05
4.1695e-05
5.42462e-05
4.50479e-05
5.50673e-05
4.8667e-05
5.59631e-05
5.25495e-05
5.69297e-05
5.67316e-05
5.79808e-05
6.12759e-05
5.91132e-05
6.61775e-05
6.03475e-05
7.14024e-05
6.16808e-05
7.70621e-05
6.31263e-05
8.31982e-05
6.46907e-05
8.97414e-05
6.63888e-05
9.67977e-05
6.8221e-05
0.000104456
7.02117e-05
0.000112572
7.23613e-05
0.000121408
7.46886e-05
0.000130858
7.7206e-05
0.000140997
7.99257e-05
0.000151926
8.28678e-05
0.000163578
8.60432e-05
0.000176143
8.94749e-05
0.000189516
9.31751e-05
0.000203876
9.71641e-05
0.000219165
0.000101461
0.00023547
0.000106087
0.000252829
0.000111066
0.000271188
0.000116413
0.000290662
0.00012215
0.000311164
0.000128297
0.000332669
0.00013487
0.000355149
0.000141885
0.000378471
0.000149357
0.000402477
0.000157292
0.000426971
0.000165694
0.00045165
0.000174558
0.000476118
0.000183871
0.000499858
0.000193605
0.000522202
0.000203719
0.000542294
0.00021415
0.000559052
0.000224817
0.000571116
0.000235593
0.000576794
0.000246335
0.000573997
0.000256824
0.00056018
0.000266802
0.000532245
0.000275937
0.000486485
0.000283837
0.000418355
0.000290013
0.000322618
0.00029396
0.00019324
0.000294966
1.09067e-05
-0.00021679
0.000292145
4.76236e-05
1.88685e-05
-4.73106e-05
4.79664e-05
2.03964e-05
4.83314e-05
2.205e-05
4.87304e-05
2.38376e-05
4.91571e-05
2.5768e-05
4.96228e-05
2.78517e-05
5.01224e-05
3.00999e-05
5.06674e-05
3.25251e-05
5.12537e-05
3.51321e-05
5.18932e-05
3.79523e-05
5.25808e-05
4.10056e-05
5.33298e-05
4.43015e-05
5.41357e-05
4.78591e-05
5.50146e-05
5.16732e-05
5.59634e-05
5.57807e-05
5.6995e-05
6.02467e-05
5.81068e-05
6.50636e-05
5.93185e-05
7.01926e-05
6.06281e-05
7.57508e-05
6.20479e-05
8.17799e-05
6.3585e-05
8.82027e-05
6.52538e-05
9.51299e-05
6.70549e-05
0.000102653
6.9012e-05
0.000110616
7.11257e-05
0.000119293
7.34143e-05
0.000128569
7.589e-05
0.00013852
7.85647e-05
0.000149251
8.14581e-05
0.000160684
8.45806e-05
0.00017302
8.79547e-05
0.000186142
9.15925e-05
0.000200238
9.55138e-05
0.000215242
9.97374e-05
0.000231243
0.000104283
0.00024828
0.000109175
0.000266294
0.000114428
0.000285408
0.000120063
0.000305527
0.0001261
0.00032663
0.000132555
0.000348692
0.000139443
0.00037158
0.00014678
0.000395138
0.000154571
0.000419176
0.000162821
0.000443397
0.000171524
0.000467411
0.000180668
0.000490711
0.000190227
0.000512641
0.00020016
0.00053236
0.000210404
0.000548806
0.00022088
0.000560643
0.000231464
0.000566208
0.000242015
0.000563454
0.000252319
0.000549876
0.00026212
0.000522436
0.000271095
0.000477494
0.000278855
0.000410578
0.000284922
0.000316532
0.000288789
0.000189373
0.000289759
9.94916e-06
-0.000213926
0.000286905
4.68167e-05
1.856e-05
-4.65098e-05
4.7153e-05
2.0063e-05
4.75114e-05
2.16898e-05
4.79029e-05
2.34484e-05
4.83219e-05
2.53474e-05
4.8779e-05
2.73968e-05
4.92697e-05
2.96078e-05
4.98045e-05
3.19925e-05
5.03801e-05
3.45548e-05
5.10076e-05
3.7327e-05
5.16825e-05
4.03288e-05
5.24175e-05
4.3569e-05
5.32082e-05
4.70661e-05
5.40706e-05
5.08131e-05
5.50015e-05
5.48474e-05
5.60137e-05
5.92366e-05
5.71047e-05
6.39704e-05
5.8294e-05
6.90051e-05
5.95794e-05
7.44635e-05
6.09733e-05
8.03874e-05
6.24826e-05
8.66918e-05
6.41216e-05
9.34919e-05
6.58908e-05
0.000100883
6.78136e-05
0.000108693
6.98906e-05
0.000117215
7.21397e-05
0.00012632
7.4573e-05
0.000136086
7.7202e-05
0.000146621
8.00461e-05
0.000157839
8.31155e-05
0.00016995
8.64321e-05
0.000182826
9.00077e-05
0.000196662
9.38617e-05
0.000211386
9.80124e-05
0.000227089
0.000102479
0.000243811
0.000107285
0.000261486
0.000112446
0.000280246
0.000117982
0.00029999
0.000123912
0.000320698
0.000130251
0.000342349
0.000137017
0.000364811
0.000144222
0.00038793
0.000151874
0.00041152
0.000159975
0.000435291
0.000168523
0.000458859
0.000177504
0.000481725
0.000186891
0.000503246
0.000196648
0.000522598
0.000206711
0.000538734
0.000217001
0.000550345
0.000227398
0.000555799
0.000237765
0.000553081
0.000247887
0.000539738
0.000257517
0.000512784
0.000266334
0.000468641
0.000273958
0.000402904
0.000279917
0.000310499
0.000283707
0.000185469
0.000284637
8.77955e-06
-0.000211226
0.000281769
4.60167e-05
1.82572e-05
-4.57151e-05
4.63468e-05
1.97359e-05
4.66987e-05
2.13364e-05
4.7083e-05
2.30665e-05
4.74943e-05
2.49346e-05
4.79428e-05
2.69504e-05
4.84243e-05
2.9125e-05
4.89492e-05
3.14699e-05
4.9514e-05
3.39884e-05
5.01299e-05
3.67135e-05
5.07922e-05
3.96648e-05
5.15133e-05
4.28503e-05
5.22893e-05
4.62882e-05
5.31354e-05
4.99694e-05
5.40488e-05
5.3932e-05
5.50419e-05
5.82457e-05
5.61124e-05
6.28979e-05
5.72792e-05
6.78402e-05
5.85406e-05
7.32004e-05
5.99085e-05
7.90209e-05
6.13899e-05
8.52089e-05
6.29987e-05
9.18841e-05
6.47358e-05
9.91446e-05
6.66238e-05
0.000106806
6.86637e-05
0.000115174
7.08729e-05
0.000124111
7.32634e-05
0.000133695
7.58464e-05
0.000144038
7.86409e-05
0.000155044
8.1657e-05
0.000166933
8.49161e-05
0.000179567
8.84297e-05
0.000193148
9.22168e-05
0.000207597
9.62954e-05
0.000223008
0.000100684
0.00023942
0.000105406
0.000256763
0.000110476
0.000275174
0.000115914
0.00029455
0.000121739
0.000314871
0.000127967
0.000336119
0.000134612
0.000358163
0.000141689
0.00038085
0.000149205
0.000404002
0.000157162
0.000427331
0.000165558
0.00045046
0.00017438
0.000472902
0.000183602
0.000494023
0.000193187
0.000513013
0.000203072
0.000528848
0.000213183
0.000540239
0.000223397
0.000545584
0.000233583
0.000542907
0.000243529
0.000529797
0.00025299
0.000503321
0.000261654
0.00045997
0.000269143
0.000395408
0.000274997
0.00030464
0.000278711
0.000181776
0.000279601
7.94304e-06
-0.000208311
0.000276728
4.52249e-05
1.79598e-05
-4.49294e-05
4.55486e-05
1.94146e-05
4.5894e-05
2.09892e-05
4.6271e-05
2.26914e-05
4.66748e-05
2.45291e-05
4.7115e-05
2.6512e-05
4.75878e-05
2.86507e-05
4.81029e-05
3.09567e-05
4.86575e-05
3.34322e-05
4.92619e-05
3.61111e-05
4.9912e-05
3.90129e-05
5.06196e-05
4.21449e-05
5.13811e-05
4.55247e-05
5.22114e-05
4.91414e-05
5.31076e-05
5.30335e-05
5.4082e-05
5.72734e-05
5.51324e-05
6.18456e-05
5.62771e-05
6.6697e-05
5.75148e-05
7.1961e-05
5.8857e-05
7.768e-05
6.03107e-05
8.37537e-05
6.18896e-05
9.03061e-05
6.35945e-05
9.74385e-05
6.54479e-05
0.000104953
6.74506e-05
0.00011317
6.96198e-05
0.000121942
7.19673e-05
0.000131346
7.45042e-05
0.0001415
7.72491e-05
0.000152299
8.02118e-05
0.00016397
8.34135e-05
0.000176365
8.68653e-05
0.000189696
9.0586e-05
0.000203874
9.45932e-05
0.000218998
9.8905e-05
0.000235106
0.000103544
0.000252122
0.000108525
0.000270192
0.000113867
0.000289206
0.000119589
0.000309147
0.000125707
0.00033
0.000132235
0.000351632
0.000139186
0.000373896
0.000146569
0.000396616
0.000154386
0.00041951
0.000162634
0.000442208
0.0001713
0.000464231
0.00018036
0.000484957
0.000189777
0.000503591
0.00019949
0.000519127
0.000209424
0.000530299
0.000219461
0.000535536
0.00022947
0.000532895
0.000239243
0.000520011
0.000248539
0.000494005
0.000257052
0.000451426
0.000264411
0.000388004
0.000270162
0.000298823
0.000273802
0.000178033
0.000274651
6.87284e-06
-0.000205598
0.000271786
4.4444e-05
1.7668e-05
-4.41532e-05
4.47619e-05
1.90994e-05
4.51011e-05
2.06487e-05
4.54712e-05
2.23235e-05
4.58676e-05
2.41314e-05
4.62997e-05
2.60819e-05
4.67637e-05
2.81855e-05
4.72692e-05
3.04532e-05
4.78135e-05
3.28866e-05
4.84066e-05
3.55202e-05
4.90447e-05
3.83735e-05
4.97391e-05
4.14528e-05
5.04865e-05
4.47757e-05
5.13011e-05
4.83291e-05
5.21807e-05
5.21523e-05
5.31366e-05
5.63196e-05
5.41672e-05
6.08133e-05
5.52902e-05
6.55757e-05
5.65046e-05
7.07452e-05
5.78213e-05
7.63645e-05
5.92477e-05
8.2326e-05
6.07969e-05
8.87577e-05
6.247e-05
9.57642e-05
6.42889e-05
0.000103135
6.62547e-05
0.000111203
6.83841e-05
0.000119812
7.06887e-05
0.000129041
7.31797e-05
0.000139009
7.58751e-05
0.000149603
7.87847e-05
0.00016106
8.19293e-05
0.000173221
8.53198e-05
0.000186305
8.89746e-05
0.000200218
9.2911e-05
0.000215059
9.71467e-05
0.000230868
0.000101704
0.000247563
0.000106597
0.000265298
0.000111845
0.000283957
0.000117466
0.000303523
0.000123476
0.000323988
0.000129888
0.000345217
0.000136717
0.000367064
0.00014397
0.00038936
0.000151649
0.000411828
0.000159752
0.000434103
0.000168267
0.000455715
0.000177168
0.000476054
0.000186421
0.00049434
0.000195965
0.000509583
0.000205727
0.000520543
0.000215589
0.000525675
0.000225425
0.000523074
0.000235029
0.000510415
0.000244164
0.000484872
0.000252529
0.000443059
0.000259759
0.000380775
0.000265409
0.000293182
0.000268976
0.000174504
0.000269788
6.14998e-06
-0.000202672
0.000266934
4.36741e-05
1.73814e-05
-4.33892e-05
4.39859e-05
1.87897e-05
4.43188e-05
2.03141e-05
4.4682e-05
2.19619e-05
4.50713e-05
2.37406e-05
4.54953e-05
2.56594e-05
4.5951e-05
2.77286e-05
4.64472e-05
2.99588e-05
4.69817e-05
3.23508e-05
4.75638e-05
3.49399e-05
4.81902e-05
3.77455e-05
4.88717e-05
4.07733e-05
4.96053e-05
4.40404e-05
5.04047e-05
4.75317e-05
5.12678e-05
5.12872e-05
5.22058e-05
5.53835e-05
5.32171e-05
5.98002e-05
5.43191e-05
6.44753e-05
5.55106e-05
6.95522e-05
5.68025e-05
7.50737e-05
5.82021e-05
8.0925e-05
5.97222e-05
8.72385e-05
6.1364e-05
9.41213e-05
6.31489e-05
0.00010135
6.50781e-05
0.000109273
6.71681e-05
0.000117722
6.94304e-05
0.000126778
7.18758e-05
0.000136563
7.45222e-05
0.000146956
7.73791e-05
0.000158203
8.0467e-05
0.000170133
8.37967e-05
0.000182975
8.73863e-05
0.000196626
9.12525e-05
0.00021119
9.54131e-05
0.000226705
9.98896e-05
0.000243085
0.000104696
0.00026049
0.000109851
0.0002788
0.000115373
0.000298
0.000121276
0.000318082
0.000127576
0.000338915
0.000134285
0.000360353
0.00014141
0.000382232
0.000148954
0.000404279
0.000156916
0.000426138
0.000165281
0.000447345
0.000174028
0.000467302
0.00018312
0.000485244
0.000192498
0.000500198
0.000202091
0.000510947
0.000211782
0.000515974
0.000221448
0.000513408
0.000230886
0.000500969
0.000239864
0.000475879
0.000248084
0.000434813
0.000255188
0.000373633
0.000260737
0.000287575
0.000264235
0.000170916
0.000265009
5.18087e-06
-0.000199972
0.000262177
4.29173e-05
1.71002e-05
-4.26373e-05
4.32234e-05
1.84859e-05
4.35503e-05
1.99859e-05
4.39067e-05
2.16072e-05
4.42888e-05
2.33572e-05
4.47049e-05
2.52449e-05
4.51522e-05
2.72802e-05
4.56391e-05
2.94736e-05
4.61637e-05
3.1825e-05
4.67351e-05
3.43705e-05
4.73499e-05
3.71294e-05
4.80188e-05
4.01066e-05
4.87388e-05
4.33189e-05
4.95234e-05
4.67494e-05
5.03706e-05
5.04385e-05
5.12911e-05
5.4465e-05
5.22836e-05
5.88062e-05
5.33648e-05
6.33956e-05
5.4534e-05
6.83816e-05
5.58016e-05
7.38072e-05
5.7175e-05
7.95504e-05
5.86664e-05
8.57477e-05
6.02775e-05
9.25092e-05
6.2029e-05
9.95989e-05
6.39223e-05
0.000107379
6.59735e-05
0.000115671
6.81939e-05
0.000124557
7.05943e-05
0.000134162
7.31921e-05
0.000144357
7.5997e-05
0.000155398
7.90288e-05
0.000167102
8.22984e-05
0.000179706
8.58234e-05
0.0001931
8.96205e-05
0.000207391
9.37068e-05
0.000222617
9.81036e-05
0.000238687
0.000102825
0.000255768
0.000107888
0.000273735
0.000113312
0.000292574
0.000119111
0.000312281
0.0001253
0.000332724
0.00013189
0.00035376
0.00013889
0.00037523
0.000146303
0.000396865
0.000154125
0.000418314
0.000162345
0.000439124
0.000170939
0.000458707
0.000179873
0.000476312
0.000189089
0.000490983
0.000198516
0.000501526
0.00020804
0.000506452
0.000217539
0.000503925
0.000226815
0.000491704
0.000235637
0.000467063
0.000243715
0.000426738
0.000250695
0.000366661
0.000256146
0.000282142
0.000259575
0.000167541
0.000260316
4.56108e-06
-0.000197064
0.000257507
4.21729e-05
1.68239e-05
-4.18987e-05
4.2473e-05
1.81874e-05
4.27938e-05
1.96634e-05
4.31435e-05
2.12588e-05
4.35185e-05
2.29807e-05
4.3927e-05
2.48377e-05
4.43661e-05
2.68398e-05
4.48441e-05
2.8997e-05
4.53592e-05
3.13086e-05
4.592e-05
3.38113e-05
4.65237e-05
3.65244e-05
4.71803e-05
3.94519e-05
4.78871e-05
4.26105e-05
4.86572e-05
4.59812e-05
4.94888e-05
4.96052e-05
5.03922e-05
5.35633e-05
5.13662e-05
5.78305e-05
5.24274e-05
6.23359e-05
5.35748e-05
6.72328e-05
5.48187e-05
7.25644e-05
5.61664e-05
7.82015e-05
5.763e-05
8.42849e-05
5.92109e-05
9.09273e-05
6.09297e-05
9.78804e-05
6.27877e-05
0.00010552
6.48007e-05
0.000113658
6.698e-05
0.000122377
6.9336e-05
0.000131806
7.18861e-05
0.000141807
7.46396e-05
0.000152644
7.76162e-05
0.000164125
8.08264e-05
0.000176495
8.42877e-05
0.000189637
8.80164e-05
0.00020366
9.20294e-05
0.000218602
9.63476e-05
0.000234368
0.000100984
0.00025113
0.000105958
0.00026876
0.000111286
0.000287244
0.000116983
0.000306582
0.000123062
0.000326642
0.000129536
0.000347283
0.000136413
0.00036835
0.000143696
0.000389579
0.000151381
0.000410625
0.000159458
0.000431044
0.000167902
0.000450259
0.000176681
0.00046753
0.000185738
0.000481922
0.000195003
0.00049226
0.000204362
0.000497085
0.000213697
0.000494592
0.000222813
0.000482583
0.000231483
0.000458381
0.000239421
0.000418778
0.00024628
0.000359768
0.000251635
0.000276735
0.000254997
0.000164097
0.000255705
3.68239e-06
-0.000194401
0.000252926
4.14421e-05
1.6553e-05
-4.11722e-05
4.1737e-05
1.78947e-05
4.2052e-05
1.93472e-05
4.23953e-05
2.09171e-05
4.27636e-05
2.26113e-05
4.31645e-05
2.44383e-05
4.35955e-05
2.64078e-05
4.40646e-05
2.85295e-05
4.45702e-05
3.0802e-05
4.51206e-05
3.32627e-05
4.57132e-05
3.59308e-05
4.63577e-05
3.88096e-05
4.70515e-05
4.19154e-05
4.78074e-05
4.52276e-05
4.86236e-05
4.87877e-05
4.95102e-05
5.26786e-05
5.04663e-05
5.68732e-05
5.15076e-05
6.12961e-05
5.26336e-05
6.61055e-05
5.38543e-05
7.13447e-05
5.51769e-05
7.68779e-05