/*--------------------------------*- C++ -*----------------------------------*\
  =========                 |
  \\      /  F ield         | OpenFOAM: The Open Source CFD Toolbox
   \\    /   O peration     | Website:  https://openfoam.org
    \\  /    A nd           | Version:  6.0
     \\/     M anipulation  |
\*---------------------------------------------------------------------------*/
FoamFile
{
    version     2.0;
    format      ascii;
    class       volScalarField;
    location    "1";
    object      p;
}
// * * * * * * * * * * * * * * * * * * * * * * * * * * * * * * * * * * * * * //

dimensions      [0 2 -2 0 0 0 0];

internalField   nonuniform List<scalar> 
19500
(
0.088774
0.088663
0.08773
0.08741
0.085782
0.085684
0.084109
0.08519
0.08587
0.090858
0.11155
0.16195
0.088774
0.088664
0.08773
0.087411
0.085781
0.085685
0.084107
0.085191
0.085866
0.090913
0.11087
0.15689
0.088774
0.088665
0.08773
0.087413
0.085779
0.085687
0.084103
0.085191
0.085857
0.09095
0.10999
0.15237
0.088775
0.088667
0.087729
0.087416
0.085777
0.085689
0.084098
0.085189
0.085841
0.090964
0.10901
0.1488
0.088776
0.088669
0.087729
0.087418
0.085775
0.085691
0.084093
0.085186
0.08582
0.090962
0.10797
0.14576
0.088777
0.088671
0.087729
0.087421
0.085773
0.085693
0.084086
0.085182
0.085795
0.090948
0.10689
0.14302
0.088779
0.088673
0.087729
0.087424
0.085771
0.085694
0.084079
0.085176
0.085764
0.090921
0.1058
0.1405
0.088781
0.088676
0.08773
0.087427
0.085769
0.085695
0.084072
0.085168
0.085729
0.090882
0.10472
0.13818
0.088783
0.088679
0.08773
0.08743
0.085766
0.085695
0.084063
0.085159
0.085689
0.090829
0.10366
0.13602
0.088785
0.088682
0.087731
0.087433
0.085764
0.085696
0.084054
0.085149
0.085644
0.090766
0.10263
0.134
0.088788
0.088686
0.087732
0.087436
0.085762
0.085696
0.084044
0.085137
0.085595
0.090692
0.10164
0.13209
0.088791
0.08869
0.087733
0.08744
0.08576
0.085696
0.084033
0.085123
0.085542
0.090609
0.10068
0.13029
0.088794
0.088694
0.087735
0.087443
0.085757
0.085695
0.084022
0.085108
0.085484
0.090519
0.099764
0.12858
0.088798
0.088698
0.087736
0.087447
0.085755
0.085694
0.08401
0.085092
0.085423
0.090421
0.098884
0.12695
0.088802
0.088703
0.087738
0.087451
0.085752
0.085693
0.083997
0.085074
0.085357
0.090319
0.098041
0.1254
0.088806
0.088708
0.087741
0.087455
0.08575
0.085692
0.083983
0.085054
0.085287
0.090211
0.09723
0.12392
0.08881
0.088713
0.087743
0.087459
0.085747
0.085691
0.083968
0.085033
0.085213
0.0901
0.096448
0.1225
0.088815
0.088719
0.087746
0.087463
0.085745
0.085689
0.083953
0.085011
0.085136
0.089986
0.095693
0.12115
0.088821
0.088725
0.087748
0.087468
0.085742
0.085686
0.083937
0.084987
0.085056
0.089869
0.094962
0.11984
0.088826
0.088731
0.087751
0.087472
0.08574
0.085684
0.083921
0.084962
0.084972
0.089749
0.094251
0.11858
0.088832
0.088737
0.087755
0.087477
0.085737
0.085681
0.083903
0.084936
0.084885
0.089628
0.093559
0.11737
0.088838
0.088744
0.087758
0.087482
0.085735
0.085678
0.083885
0.084908
0.084794
0.089504
0.092882
0.11619
0.088845
0.088751
0.087762
0.087487
0.085732
0.085675
0.083866
0.084879
0.084701
0.089378
0.09222
0.11505
0.088852
0.088759
0.087766
0.087492
0.085729
0.085671
0.083847
0.084848
0.084605
0.08925
0.091571
0.11395
0.088859
0.088767
0.087771
0.087497
0.085727
0.085667
0.083827
0.084816
0.084506
0.08912
0.090933
0.11287
0.088867
0.088775
0.087775
0.087502
0.085724
0.085663
0.083806
0.084783
0.084404
0.088988
0.090306
0.11183
0.088874
0.088783
0.08778
0.087508
0.085721
0.085658
0.083784
0.084749
0.0843
0.088854
0.089688
0.11081
0.088883
0.088792
0.087785
0.087513
0.085719
0.085653
0.083762
0.084713
0.084193
0.088718
0.08908
0.10981
0.088892
0.088801
0.087791
0.087519
0.085716
0.085648
0.083739
0.084676
0.084084
0.088579
0.08848
0.10884
0.088901
0.088811
0.087797
0.087525
0.085713
0.085642
0.083715
0.084638
0.083972
0.088439
0.087889
0.10789
0.08891
0.088821
0.087803
0.087532
0.085711
0.085637
0.083691
0.084599
0.083858
0.088296
0.087307
0.10697
0.08892
0.088831
0.087809
0.087538
0.085708
0.08563
0.083666
0.084559
0.083741
0.08815
0.086732
0.10606
0.08893
0.088841
0.087816
0.087544
0.085705
0.085624
0.08364
0.084517
0.083623
0.088003
0.086165
0.10517
0.088941
0.088852
0.087822
0.087551
0.085703
0.085617
0.083614
0.084474
0.083502
0.087853
0.085606
0.1043
0.088952
0.088864
0.08783
0.087558
0.0857
0.08561
0.083586
0.084431
0.083379
0.087701
0.085055
0.10344
0.088963
0.088875
0.087837
0.087565
0.085698
0.085603
0.083559
0.084386
0.083254
0.087547
0.084512
0.1026
0.088975
0.088887
0.087845
0.087572
0.085695
0.085595
0.08353
0.08434
0.083128
0.087391
0.083977
0.10178
0.088987
0.0889
0.087853
0.087579
0.085693
0.085587
0.083501
0.084293
0.082999
0.087233
0.08345
0.10097
0.089
0.088913
0.087862
0.087587
0.085691
0.085578
0.083472
0.084245
0.082869
0.087072
0.08293
0.10018
0.089013
0.088926
0.087871
0.087595
0.085689
0.08557
0.083442
0.084197
0.082737
0.08691
0.082418
0.099393
0.089027
0.08894
0.08788
0.087603
0.085686
0.085561
0.083411
0.084147
0.082603
0.086745
0.081914
0.098624
0.089041
0.088954
0.08789
0.087611
0.085684
0.085552
0.083379
0.084096
0.082468
0.086579
0.081417
0.097868
0.089055
0.088968
0.0879
0.087619
0.085682
0.085542
0.083347
0.084044
0.082331
0.086411
0.080928
0.097123
0.08907
0.088983
0.08791
0.087627
0.08568
0.085532
0.083315
0.083992
0.082193
0.086241
0.080447
0.096389
0.089085
0.088998
0.087921
0.087636
0.085679
0.085522
0.083281
0.083938
0.082054
0.086069
0.079973
0.095667
0.089101
0.089014
0.087932
0.087645
0.085677
0.085512
0.083248
0.083884
0.081913
0.085895
0.079506
0.094955
0.089117
0.08903
0.087943
0.087654
0.085675
0.085501
0.083213
0.083828
0.081771
0.08572
0.079047
0.094253
0.089134
0.089047
0.087955
0.087663
0.085674
0.08549
0.083178
0.083772
0.081628
0.085543
0.078595
0.093561
0.089151
0.089064
0.087967
0.087673
0.085672
0.085479
0.083143
0.083715
0.081484
0.085365
0.07815
0.092879
0.089169
0.089081
0.08798
0.087683
0.085671
0.085468
0.083107
0.083657
0.081338
0.085185
0.077713
0.092206
0.089187
0.089099
0.087993
0.087692
0.08567
0.085456
0.08307
0.083598
0.081192
0.085003
0.077282
0.091542
0.089206
0.089117
0.088006
0.087703
0.085669
0.085444
0.083033
0.083539
0.081045
0.08482
0.076859
0.090887
0.089225
0.089136
0.08802
0.087713
0.085668
0.085432
0.082995
0.083479
0.080897
0.084636
0.076442
0.09024
0.089245
0.089156
0.088035
0.087724
0.085667
0.08542
0.082957
0.083417
0.080748
0.08445
0.076032
0.089601
0.089265
0.089175
0.088049
0.087735
0.085666
0.085408
0.082918
0.083356
0.080599
0.084263
0.075629
0.088971
0.089286
0.089196
0.088065
0.087746
0.085666
0.085395
0.082879
0.083293
0.080448
0.084075
0.075233
0.088349
0.089308
0.089217
0.08808
0.087757
0.085666
0.085382
0.08284
0.08323
0.080297
0.083885
0.074843
0.087734
0.089329
0.089238
0.088096
0.087769
0.085666
0.085369
0.0828
0.083165
0.080146
0.083694
0.074459
0.087127
0.089352
0.08926
0.088113
0.087781
0.085666
0.085356
0.082759
0.083101
0.079994
0.083502
0.074081
0.086527
0.089375
0.089282
0.08813
0.087793
0.085666
0.085343
0.082718
0.083035
0.079842
0.083309
0.07371
0.085934
0.089399
0.089305
0.088148
0.087805
0.085666
0.085329
0.082677
0.082969
0.079689
0.083115
0.073345
0.085349
0.089423
0.089328
0.088166
0.087818
0.085667
0.085315
0.082635
0.082902
0.079536
0.082919
0.072986
0.08477
0.089448
0.089352
0.088185
0.087831
0.085668
0.085302
0.082593
0.082834
0.079382
0.082723
0.072633
0.084198
0.089473
0.089377
0.088204
0.087845
0.085669
0.085288
0.08255
0.082766
0.079228
0.082526
0.072286
0.083633
0.089499
0.089402
0.088224
0.087859
0.08567
0.085274
0.082507
0.082697
0.079074
0.082327
0.071944
0.083075
0.089526
0.089428
0.088244
0.087873
0.085671
0.08526
0.082464
0.082628
0.07892
0.082128
0.071608
0.082522
0.089553
0.089454
0.088265
0.087887
0.085673
0.085246
0.08242
0.082557
0.078765
0.081928
0.071278
0.081976
0.089581
0.089481
0.088286
0.087902
0.085675
0.085231
0.082376
0.082487
0.078611
0.081727
0.070953
0.081437
0.08961
0.089508
0.088308
0.087917
0.085677
0.085217
0.082332
0.082415
0.078456
0.081525
0.070633
0.080903
0.089639
0.089536
0.08833
0.087933
0.08568
0.085202
0.082287
0.082343
0.078302
0.081323
0.070318
0.080375
0.089669
0.089565
0.088353
0.087949
0.085683
0.085188
0.082242
0.082271
0.078147
0.081119
0.070009
0.079853
0.0897
0.089594
0.088377
0.087965
0.085686
0.085173
0.082197
0.082198
0.077993
0.080915
0.069704
0.079337
0.089732
0.089624
0.088401
0.087982
0.085689
0.085159
0.082152
0.082124
0.077838
0.08071
0.069405
0.078827
0.089764
0.089655
0.088426
0.087999
0.085693
0.085144
0.082106
0.08205
0.077684
0.080505
0.06911
0.078322
0.089797
0.089686
0.088452
0.088016
0.085697
0.08513
0.08206
0.081976
0.07753
0.080299
0.06882
0.077822
0.08983
0.089718
0.088478
0.088034
0.085701
0.085115
0.082014
0.081901
0.077376
0.080092
0.068534
0.077328
0.089865
0.089751
0.088505
0.088053
0.085706
0.085101
0.081968
0.081825
0.077222
0.079885
0.068253
0.07684
0.0899
0.089785
0.088533
0.088072
0.085711
0.085086
0.081921
0.081749
0.077069
0.079677
0.067977
0.076356
0.089936
0.089819
0.088561
0.088091
0.085716
0.085072
0.081875
0.081672
0.076916
0.079469
0.067704
0.075878
0.089973
0.089854
0.08859
0.088111
0.085722
0.085057
0.081828
0.081595
0.076763
0.07926
0.067436
0.075405
0.09001
0.08989
0.08862
0.088131
0.085728
0.085043
0.081781
0.081518
0.076611
0.07905
0.067172
0.074937
0.090049
0.089926
0.088651
0.088152
0.085734
0.085029
0.081734
0.08144
0.076459
0.078841
0.066913
0.074474
0.090088
0.089964
0.088682
0.088174
0.085741
0.085014
0.081687
0.081362
0.076307
0.07863
0.066657
0.074015
0.090128
0.090002
0.088714
0.088196
0.085749
0.085
0.08164
0.081283
0.076156
0.07842
0.066404
0.073562
0.090169
0.090041
0.088747
0.088219
0.085757
0.084987
0.081593
0.081204
0.076005
0.078209
0.066156
0.073113
0.090211
0.090081
0.088781
0.088242
0.085765
0.084973
0.081546
0.081125
0.075855
0.077998
0.065911
0.072669
0.090254
0.090121
0.088815
0.088266
0.085774
0.084959
0.081499
0.081045
0.075705
0.077786
0.06567
0.072229
0.090298
0.090163
0.088851
0.08829
0.085783
0.084946
0.081452
0.080965
0.075556
0.077574
0.065432
0.071794
0.090343
0.090205
0.088887
0.088315
0.085793
0.084932
0.081405
0.080885
0.075407
0.077362
0.065198
0.071363
0.090389
0.090249
0.088924
0.088341
0.085803
0.084919
0.081358
0.080804
0.075259
0.07715
0.064967
0.070937
0.090436
0.090293
0.088962
0.088367
0.085814
0.084907
0.081311
0.080723
0.075112
0.076937
0.064739
0.070515
0.090484
0.090339
0.089002
0.088394
0.085826
0.084894
0.081265
0.080642
0.074965
0.076724
0.064514
0.070097
0.090533
0.090385
0.089042
0.088422
0.085838
0.084882
0.081218
0.080561
0.074819
0.076512
0.064293
0.069683
0.090583
0.090433
0.089083
0.088451
0.08585
0.08487
0.081172
0.080479
0.074674
0.076298
0.064074
0.069273
0.090634
0.090481
0.089125
0.08848
0.085864
0.084858
0.081125
0.080397
0.074529
0.076085
0.063858
0.068868
0.090686
0.090531
0.089168
0.088511
0.085878
0.084847
0.081079
0.080315
0.074385
0.075872
0.063645
0.068466
0.09074
0.090581
0.089212
0.088542
0.085893
0.084836
0.081033
0.080233
0.074242
0.075659
0.063434
0.068068
0.090794
0.090633
0.089257
0.088574
0.085908
0.084825
0.080988
0.08015
0.074099
0.075445
0.063226
0.067674
0.09085
0.090686
0.089303
0.088606
0.085924
0.084815
0.080943
0.080067
0.073957
0.075232
0.063021
0.067284
0.090907
0.09074
0.089351
0.08864
0.085941
0.084805
0.080898
0.079985
0.073816
0.075018
0.062818
0.066897
0.090966
0.090796
0.0894
0.088675
0.085959
0.084796
0.080853
0.079902
0.073676
0.074805
0.062618
0.066514
0.091025
0.090853
0.08945
0.08871
0.085978
0.084787
0.080809
0.079819
0.073536
0.074591
0.06242
0.066134
0.091086
0.09091
0.089501
0.088747
0.085997
0.084779
0.080765
0.079736
0.073398
0.074378
0.062224
0.065758
0.091149
0.09097
0.089553
0.088785
0.086017
0.084771
0.080721
0.079652
0.07326
0.074164
0.06203
0.065385
0.091213
0.09103
0.089607
0.088823
0.086039
0.084764
0.080678
0.079569
0.073123
0.073951
0.061838
0.065016
0.091278
0.091092
0.089662
0.088863
0.086061
0.084757
0.080636
0.079486
0.072987
0.073738
0.061648
0.064649
0.091345
0.091156
0.089719
0.088904
0.086084
0.084751
0.080594
0.079403
0.072852
0.073524
0.06146
0.064286
0.091413
0.091221
0.089777
0.088946
0.086108
0.084746
0.080553
0.07932
0.072718
0.073311
0.061274
0.063926
0.091483
0.091287
0.089836
0.08899
0.086134
0.084741
0.080512
0.079237
0.072584
0.073099
0.06109
0.063569
0.091555
0.091355
0.089897
0.089034
0.08616
0.084738
0.080471
0.079154
0.072452
0.072886
0.060908
0.063216
0.091628
0.091425
0.08996
0.08908
0.086188
0.084734
0.080432
0.079071
0.07232
0.072673
0.060727
0.062864
0.091703
0.091496
0.090024
0.089128
0.086216
0.084732
0.080393
0.078988
0.07219
0.072461
0.060547
0.062516
0.09178
0.09157
0.09009
0.089176
0.086246
0.08473
0.080355
0.078905
0.07206
0.072249
0.06037
0.062171
0.091858
0.091644
0.090157
0.089226
0.086277
0.08473
0.080317
0.078823
0.071931
0.072037
0.060193
0.061828
0.091939
0.091721
0.090226
0.089278
0.08631
0.08473
0.080281
0.07874
0.071804
0.071825
0.060018
0.061488
0.092021
0.091799
0.090298
0.089331
0.086344
0.084731
0.080245
0.078658
0.071677
0.071614
0.059844
0.06115
0.092105
0.09188
0.090371
0.089386
0.086379
0.084734
0.08021
0.078576
0.071551
0.071403
0.059672
0.060815
0.092191
0.091962
0.090445
0.089443
0.086416
0.084737
0.080176
0.078495
0.071427
0.071192
0.0595
0.060482
0.09228
0.092047
0.090522
0.089501
0.086454
0.084741
0.080143
0.078414
0.071303
0.070981
0.05933
0.060152
0.09237
0.092133
0.090601
0.089561
0.086494
0.084747
0.080111
0.078333
0.071181
0.070771
0.05916
0.059823
0.092463
0.092222
0.090682
0.089623
0.086536
0.084754
0.080081
0.078252
0.071059
0.070561
0.058992
0.059497
0.092558
0.092313
0.090766
0.089686
0.086579
0.084762
0.080051
0.078172
0.070939
0.070351
0.058824
0.059173
0.092655
0.092406
0.090851
0.089752
0.086624
0.084771
0.080022
0.078093
0.070819
0.070142
0.058658
0.058851
0.092755
0.092501
0.090939
0.08982
0.086671
0.084782
0.079995
0.078014
0.070701
0.069933
0.058492
0.058531
0.092857
0.0926
0.091029
0.08989
0.08672
0.084794
0.079969
0.077935
0.070584
0.069724
0.058326
0.058213
0.092962
0.0927
0.091122
0.089962
0.086771
0.084807
0.079944
0.077857
0.070468
0.069516
0.058162
0.057897
0.09307
0.092803
0.091217
0.090036
0.086823
0.084823
0.07992
0.07778
0.070353
0.069309
0.057998
0.057582
0.09318
0.092909
0.091315
0.090113
0.086878
0.084839
0.079898
0.077703
0.070239
0.069101
0.057834
0.057269
0.093293
0.093018
0.091416
0.090192
0.086935
0.084858
0.079878
0.077628
0.070127
0.068894
0.057671
0.056958
0.093409
0.093129
0.091519
0.090274
0.086995
0.084878
0.079859
0.077552
0.070015
0.068688
0.057508
0.056648
0.093528
0.093244
0.091625
0.090358
0.087057
0.0849
0.079842
0.077478
0.069905
0.068482
0.057346
0.056339
0.09365
0.093362
0.091735
0.090445
0.087121
0.084924
0.079826
0.077404
0.069796
0.068276
0.057184
0.056032
0.093775
0.093482
0.091847
0.090535
0.087188
0.08495
0.079812
0.077332
0.069688
0.068071
0.057022
0.055726
0.093903
0.093606
0.091963
0.090627
0.087257
0.084979
0.0798
0.07726
0.069582
0.067866
0.05686
0.055421
0.094035
0.093734
0.092082
0.090723
0.087329
0.085009
0.07979
0.077189
0.069477
0.067662
0.056698
0.055117
0.094171
0.093865
0.092204
0.090822
0.087404
0.085041
0.079782
0.07712
0.069373
0.067458
0.056536
0.054814
0.09431
0.093999
0.09233
0.090924
0.087482
0.085076
0.079776
0.077051
0.06927
0.067255
0.056375
0.054511
0.094452
0.094137
0.09246
0.091029
0.087563
0.085114
0.079772
0.076984
0.069169
0.067052
0.056213
0.05421
0.094599
0.09428
0.092593
0.091138
0.087647
0.085153
0.079771
0.076918
0.069069
0.066849
0.056051
0.053909
0.094749
0.094426
0.092731
0.091251
0.087735
0.085196
0.079771
0.076853
0.06897
0.066648
0.055888
0.053609
0.094904
0.094576
0.092872
0.091367
0.087825
0.085241
0.079774
0.07679
0.068873
0.066446
0.055726
0.053309
0.095063
0.09473
0.093018
0.091487
0.08792
0.085289
0.07978
0.076728
0.068777
0.066246
0.055563
0.05301
0.095226
0.094889
0.093167
0.091611
0.088018
0.08534
0.079788
0.076667
0.068683
0.066045
0.055399
0.052711
0.095394
0.095052
0.093322
0.091739
0.08812
0.085395
0.079799
0.076608
0.06859
0.065846
0.055235
0.052412
0.095566
0.09522
0.093481
0.091872
0.088225
0.085452
0.079812
0.076551
0.068498
0.065646
0.055071
0.052113
0.095743
0.095393
0.093644
0.092009
0.088335
0.085513
0.079828
0.076495
0.068408
0.065448
0.054906
0.051814
0.095926
0.095571
0.093813
0.09215
0.088449
0.085577
0.079848
0.076441
0.06832
0.06525
0.05474
0.051515
0.096113
0.095754
0.093986
0.092297
0.088567
0.085644
0.07987
0.076389
0.068233
0.065052
0.054573
0.051216
0.096305
0.095942
0.094165
0.092448
0.08869
0.085716
0.079895
0.076339
0.068147
0.064855
0.054405
0.050916
0.096503
0.096136
0.09435
0.092604
0.088817
0.085791
0.079924
0.076291
0.068063
0.064658
0.054237
0.050616
0.096707
0.096335
0.09454
0.092766
0.08895
0.08587
0.079956
0.076245
0.067981
0.064462
0.054067
0.050315
0.096916
0.09654
0.094735
0.092932
0.089087
0.085953
0.079992
0.076201
0.0679
0.064266
0.053897
0.050013
0.097132
0.096751
0.094937
0.093105
0.089229
0.086041
0.080031
0.076159
0.067821
0.064071
0.053725
0.049711
0.097353
0.096969
0.095145
0.093283
0.089377
0.086133
0.080074
0.07612
0.067743
0.063877
0.053552
0.049407
0.097581
0.097193
0.095359
0.093468
0.08953
0.086229
0.080121
0.076083
0.067667
0.063682
0.053377
0.049102
0.097815
0.097423
0.09558
0.093658
0.089689
0.086331
0.080171
0.076048
0.067593
0.063488
0.053201
0.048796
0.098056
0.097661
0.095807
0.093855
0.089854
0.086437
0.080226
0.076016
0.06752
0.063295
0.053023
0.048488
0.098304
0.097905
0.096042
0.094059
0.090024
0.086548
0.080285
0.075986
0.067449
0.063102
0.052844
0.048178
0.09856
0.098157
0.096284
0.094269
0.090201
0.086664
0.080348
0.07596
0.067379
0.062909
0.052663
0.047867
0.098822
0.098417
0.096533
0.094486
0.090385
0.086786
0.080416
0.075936
0.067312
0.062716
0.05248
0.047553
0.099092
0.098684
0.09679
0.094711
0.090575
0.086914
0.080488
0.075914
0.067245
0.062524
0.052294
0.047238
0.09937
0.098959
0.097054
0.094943
0.090772
0.087047
0.080565
0.075896
0.067181
0.062331
0.052107
0.04692
0.099657
0.099242
0.097327
0.095183
0.090976
0.087186
0.080647
0.075881
0.067118
0.062139
0.051917
0.046599
0.099951
0.099534
0.097609
0.095431
0.091187
0.087331
0.080733
0.075868
0.067057
0.061947
0.051725
0.046275
0.10025
0.099835
0.097899
0.095688
0.091406
0.087482
0.080825
0.075859
0.066997
0.061755
0.05153
0.045948
0.10057
0.10014
0.098198
0.095953
0.091633
0.08764
0.080922
0.075853
0.066939
0.061562
0.051332
0.045618
0.10089
0.10046
0.098506
0.096226
0.091868
0.087804
0.081024
0.07585
0.066882
0.06137
0.051131
0.045285
0.10122
0.10079
0.098824
0.096509
0.092111
0.087976
0.081131
0.075851
0.066827
0.061177
0.050927
0.044947
0.10156
0.10113
0.099152
0.096801
0.092362
0.088154
0.081244
0.075855
0.066773
0.060983
0.05072
0.044606
0.10191
0.10148
0.09949
0.097103
0.092623
0.08834
0.081363
0.075862
0.06672
0.060789
0.050509
0.04426
0.10227
0.10184
0.099838
0.097415
0.092892
0.088533
0.081488
0.075873
0.066669
0.060594
0.050294
0.043909
0.10264
0.10221
0.1002
0.097737
0.093171
0.088734
0.081618
0.075887
0.066619
0.060399
0.050074
0.043553
0.10302
0.10259
0.10057
0.09807
0.093459
0.088943
0.081755
0.075905
0.06657
0.060202
0.049851
0.043192
0.10341
0.10298
0.10095
0.098414
0.093757
0.08916
0.081898
0.075926
0.066522
0.060004
0.049623
0.042825
0.10382
0.10339
0.10134
0.098769
0.094066
0.089385
0.082047
0.075951
0.066475
0.059804
0.04939
0.042452
0.10424
0.10381
0.10175
0.099136
0.094385
0.089619
0.082202
0.07598
0.066429
0.059603
0.049151
0.042072
0.10467
0.10424
0.10217
0.099516
0.094714
0.089862
0.082364
0.076012
0.066383
0.059401
0.048907
0.041685
0.10511
0.10468
0.1026
0.099907
0.095056
0.090114
0.082533
0.076048
0.066338
0.059196
0.048657
0.041291
0.10556
0.10514
0.10305
0.10031
0.095408
0.090376
0.082709
0.076087
0.066293
0.058988
0.048401
0.040889
0.10603
0.10561
0.10351
0.10073
0.095773
0.090647
0.082891
0.07613
0.066248
0.058778
0.048138
0.040479
0.10652
0.1061
0.10398
0.10116
0.09615
0.090928
0.083081
0.076177
0.066204
0.058565
0.047868
0.04006
0.10702
0.1066
0.10447
0.10161
0.09654
0.09122
0.083278
0.076227
0.066159
0.058349
0.04759
0.039631
0.10753
0.10712
0.10498
0.10207
0.096943
0.091522
0.083482
0.076281
0.066114
0.058129
0.047304
0.039192
0.10806
0.10766
0.1055
0.10255
0.097361
0.091835
0.083694
0.076338
0.066068
0.057905
0.04701
0.038742
0.10861
0.10821
0.10604
0.10304
0.097792
0.092159
0.083914
0.0764
0.066021
0.057677
0.046706
0.038282
0.10917
0.10878
0.1066
0.10355
0.098238
0.092496
0.084142
0.076464
0.065974
0.057444
0.046393
0.037809
0.10975
0.10937
0.10717
0.10408
0.0987
0.092844
0.084378
0.076533
0.065925
0.057206
0.046069
0.037323
0.11036
0.10998
0.10777
0.10463
0.099179
0.093205
0.084622
0.076604
0.065874
0.056963
0.045735
0.036824
0.11098
0.11061
0.10838
0.10519
0.099674
0.09358
0.084875
0.076679
0.065821
0.056713
0.045389
0.036311
0.11162
0.11126
0.10902
0.10578
0.10019
0.093968
0.085136
0.076758
0.065766
0.056456
0.045031
0.035782
0.11228
0.11193
0.10968
0.10639
0.10072
0.09437
0.085407
0.07684
0.065709
0.056192
0.044659
0.035238
0.11297
0.11263
0.11037
0.10702
0.10127
0.094787
0.085688
0.076926
0.065648
0.055921
0.044274
0.034676
0.11368
0.11336
0.11108
0.10767
0.10184
0.09522
0.085978
0.077015
0.065585
0.055641
0.043875
0.034097
0.11442
0.11411
0.11181
0.10835
0.10243
0.095669
0.086278
0.077107
0.065518
0.055352
0.043459
0.033498
0.11518
0.11488
0.11258
0.10906
0.10305
0.096136
0.086589
0.077203
0.065446
0.055053
0.043028
0.03288
0.11597
0.11569
0.11337
0.10979
0.10369
0.096621
0.08691
0.077302
0.06537
0.054744
0.042579
0.03224
0.11679
0.11653
0.11419
0.11056
0.10435
0.097124
0.087243
0.077404
0.065289
0.054424
0.042111
0.031577
0.11765
0.11741
0.11505
0.11135
0.10505
0.097647
0.087588
0.07751
0.065203
0.054091
0.041624
0.030891
0.11854
0.11831
0.11595
0.11218
0.10577
0.098192
0.087945
0.077619
0.06511
0.053745
0.041116
0.030179
0.11946
0.11926
0.11688
0.11304
0.10652
0.098759
0.088315
0.07773
0.065011
0.053385
0.040586
0.029441
0.12042
0.12025
0.11785
0.11394
0.1073
0.099349
0.088699
0.077845
0.064904
0.05301
0.040032
0.028674
0.12142
0.12127
0.11886
0.11488
0.10812
0.099963
0.089096
0.077962
0.064789
0.052618
0.039453
0.027877
0.12247
0.12235
0.11992
0.11586
0.10897
0.1006
0.089507
0.078081
0.064665
0.052208
0.038847
0.027048
0.12356
0.12347
0.12103
0.11689
0.10986
0.10127
0.089933
0.078202
0.06453
0.051779
0.038213
0.026184
0.12469
0.12464
0.12219
0.11796
0.11079
0.10197
0.090374
0.078325
0.064384
0.051328
0.037548
0.025285
0.12588
0.12587
0.12341
0.11909
0.11176
0.10269
0.090831
0.078448
0.064225
0.050854
0.036849
0.024346
0.12713
0.12715
0.12468
0.12027
0.11278
0.10345
0.091303
0.078571
0.064051
0.050354
0.036115
0.023367
0.12843
0.1285
0.12601
0.1215
0.11384
0.10424
0.091791
0.078693
0.06386
0.049827
0.035343
0.022343
0.12979
0.12991
0.12741
0.1228
0.11496
0.10506
0.092294
0.078812
0.06365
0.049268
0.034529
0.021272
0.13122
0.13139
0.12888
0.12416
0.11613
0.10592
0.092812
0.078927
0.063418
0.048675
0.033671
0.02015
0.13271
0.13294
0.13043
0.1256
0.11735
0.10682
0.093345
0.079035
0.063162
0.048044
0.032763
0.018974
0.13428
0.13457
0.13205
0.1271
0.11863
0.10775
0.093891
0.079134
0.062877
0.047371
0.031803
0.01774
0.13592
0.13629
0.13376
0.12868
0.11997
0.10872
0.094449
0.07922
0.062559
0.04665
0.030784
0.016442
0.13765
0.13809
0.13556
0.13034
0.12138
0.10972
0.095018
0.079292
0.062204
0.045878
0.029702
0.015076
0.13946
0.13998
0.13745
0.13208
0.12285
0.11077
0.095594
0.079343
0.061806
0.045047
0.028551
0.013637
0.14136
0.14197
0.13944
0.13392
0.12439
0.11185
0.096175
0.079369
0.061359
0.044152
0.027324
0.012117
0.14336
0.14407
0.14154
0.13585
0.126
0.11297
0.096757
0.079365
0.060856
0.043183
0.026014
0.010511
0.14545
0.14628
0.14375
0.13788
0.12768
0.11413
0.097336
0.079323
0.060288
0.042135
0.024612
0.0088108
0.14766
0.14861
0.14608
0.14002
0.12944
0.11532
0.097907
0.079237
0.059648
0.040996
0.023111
0.0070083
0.14998
0.15106
0.14855
0.14228
0.13128
0.11654
0.098462
0.079096
0.058924
0.039757
0.0215
0.0050948
0.15242
0.15365
0.15115
0.14465
0.1332
0.1178
0.098994
0.07889
0.058105
0.038407
0.01977
0.0030606
0.15499
0.1564
0.15391
0.14716
0.1352
0.11907
0.099495
0.078608
0.057179
0.036933
0.017908
0.00089557
0.15771
0.1593
0.15683
0.14981
0.13729
0.12037
0.099951
0.078235
0.056129
0.035321
0.015902
-0.0014113
0.16058
0.16239
0.15993
0.1526
0.13946
0.12169
0.10035
0.077754
0.054939
0.033556
0.013739
-0.0038716
0.16362
0.16567
0.16323
0.15556
0.14173
0.12301
0.10068
0.077146
0.053588
0.031619
0.011404
-0.0064981
0.16685
0.16917
0.16675
0.15869
0.14408
0.12431
0.10091
0.076386
0.052054
0.029491
0.0088785
-0.0093043
0.17027
0.1729
0.17051
0.16202
0.14652
0.1256
0.10102
0.075446
0.050309
0.027146
0.0061442
-0.012305
0.17392
0.17691
0.17454
0.16554
0.14904
0.12684
0.10098
0.074292
0.04832
0.024559
0.0031789
-0.015516
0.1778
0.18121
0.17887
0.16927
0.15163
0.12801
0.10075
0.072881
0.04605
0.021697
-4.2711e-05
-0.018955
0.18195
0.18583
0.18352
0.17323
0.15428
0.12906
0.10028
0.071164
0.043452
0.018523
-0.0035496
-0.022642
0.18638
0.19082
0.18852
0.17741
0.15695
0.12994
0.099512
0.069082
0.040475
0.014993
-0.0073747
-0.026599
0.19111
0.19621
0.19391
0.18182
0.15961
0.1306
0.098367
0.066562
0.037058
0.011061
-0.011554
-0.03085
0.19617
0.20204
0.19971
0.18643
0.1622
0.13093
0.096753
0.063522
0.033133
0.0066725
-0.016128
-0.03542
0.20158
0.20835
0.20594
0.19122
0.16463
0.13084
0.094561
0.059867
0.028624
0.0017722
-0.021135
-0.04033
0.20735
0.21517
0.21262
0.19611
0.16678
0.13017
0.091655
0.055486
0.023451
-0.0036968
-0.026613
-0.0456
0.2135
0.22255
0.21972
0.20103
0.16848
0.12875
0.087878
0.050257
0.017529
-0.0097875
-0.03259
-0.051237
0.22006
0.23052
0.22721
0.20581
0.16952
0.12635
0.083042
0.044049
0.010775
-0.016545
-0.039083
-0.057234
0.22704
0.23909
0.23499
0.21022
0.16961
0.12269
0.076937
0.036722
0.0031111
-0.023999
-0.046087
-0.06356
0.23449
0.24826
0.24285
0.2139
0.16833
0.11744
0.069328
0.028138
-0.0055235
-0.032158
-0.05357
-0.070158
0.24247
0.25793
0.25043
0.21632
0.16516
0.1102
0.059973
0.018183
-0.015158
-0.040994
-0.061467
-0.076938
0.25106
0.26786
0.25706
0.21665
0.15943
0.10053
0.048657
0.0067919
-0.025768
-0.050434
-0.069673
-0.083784
0.26042
0.27756
0.26163
0.21373
0.15027
0.087996
0.035234
-0.0060038
-0.037238
-0.060335
-0.078035
-0.09055
0.27078
0.28609
0.26241
0.20594
0.13671
0.072202
0.019702
-0.020028
-0.049338
-0.070474
-0.086356
-0.097078
0.28252
0.29185
0.25679
0.19116
0.11767
0.052912
0.0022544
-0.034939
-0.061717
-0.080553
-0.094401
-0.10321
0.29613
0.29248
0.24132
0.16696
0.092177
0.030105
-0.016727
-0.050273
-0.073957
-0.090245
-0.10194
-0.10881
0.3121
0.28514
0.21235
0.13108
0.059592
0.0040149
-0.036748
-0.06555
-0.085675
-0.099277
-0.10881
-0.11381
0.32998
0.26617
0.16723
0.082614
0.020064
-0.024848
-0.057308
-0.080399
-0.096626
-0.10751
-0.11494
-0.11824
0.34881
0.22874
0.10275
0.021534
-0.025994
-0.056301
-0.078399
-0.094913
-0.10697
-0.11514
-0.12057
-0.12238
0.37706
0.17167
0.017402
-0.051469
-0.078357
-0.09115
-0.10123
-0.1103
-0.1178
-0.12313
-0.12654
-0.12701
0.42629
0.11134
-0.076129
-0.12806
-0.13196
-0.12702
-0.12512
-0.12663
-0.12944
-0.13182
-0.1332
-0.13234
0.096437
0.055695
0.044387
0.037237
0.032178
0.028553
0.026055
0.024587
0.024029
0.024296
0.025146
0.026402
0.11458
0.069575
0.055569
0.046177
0.039573
0.034829
0.03149
0.029414
0.028445
0.028492
0.02927
0.030676
0.10251
0.065283
0.052605
0.043439
0.036956
0.032264
0.028895
0.026704
0.025541
0.025335
0.025828
0.026958
0.097465
0.06503
0.052717
0.043471
0.036836
0.031987
0.028451
0.026086
0.024744
0.024367
0.024697
0.025682
0.09653
0.066914
0.05443
0.044937
0.038012
0.032902
0.029135
0.026571
0.025058
0.024548
0.024775
0.025697
0.095575
0.068451
0.055893
0.046247
0.039091
0.033761
0.029794
0.027055
0.025389
0.024757
0.024885
0.025749
0.094179
0.069498
0.057028
0.04733
0.040011
0.034509
0.030376
0.027485
0.025681
0.024932
0.024959
0.025753
0.092729
0.070336
0.058056
0.048372
0.040939
0.035295
0.031019
0.027991
0.026058
0.025194
0.025118
0.025832
0.091361
0.071049
0.059038
0.049427
0.041925
0.036167
0.031767
0.028615
0.02656
0.025581
0.025395
0.026018
0.090061
0.071631
0.059964
0.050482
0.04296
0.03712
0.032618
0.029355
0.027184
0.026088
0.025787
0.026307
0.088813
0.072084
0.06082
0.051522
0.044028
0.038141
0.03356
0.0302
0.02792
0.026708
0.026285
0.026689
0.087613
0.072419
0.061602
0.05253
0.04511
0.039211
0.034576
0.031136
0.028754
0.027427
0.026878
0.027156
0.086463
0.072651
0.062305
0.053494
0.046188
0.040309
0.035645
0.032141
0.029669
0.028229
0.027553
0.027699
0.085364
0.072792
0.062927
0.054401
0.047242
0.041413
0.036743
0.033193
0.030641
0.029094
0.028293
0.028302
0.084316
0.072854
0.063469
0.055244
0.048256
0.042503
0.037849
0.034269
0.03165
0.030003
0.02908
0.028952
0.083316
0.07285
0.063934
0.056017
0.049219
0.043562
0.038943
0.035347
0.032674
0.030936
0.029897
0.029634
0.082365
0.072789
0.064326
0.056717
0.050122
0.044577
0.040007
0.036411
0.033695
0.031876
0.030728
0.030333
0.081459
0.072681
0.064649
0.057346
0.05096
0.045538
0.041031
0.037447
0.034698
0.032807
0.031559
0.031039
0.080598
0.072534
0.064911
0.057905
0.051731
0.04644
0.042005
0.038442
0.035672
0.033718
0.032379
0.031741
0.079778
0.072355
0.065117
0.058398
0.052435
0.04728
0.042924
0.039391
0.036608
0.034601
0.033179
0.032431
0.078997
0.07215
0.065272
0.058829
0.053074
0.048057
0.043785
0.040288
0.037499
0.035447
0.033952
0.033102
0.078253
0.071923
0.065383
0.059203
0.05365
0.048772
0.044587
0.041131
0.038344
0.036254
0.034694
0.033749
0.077543
0.07168
0.065453
0.059525
0.054168
0.049427
0.045331
0.04192
0.039139
0.037019
0.035401
0.034371
0.076866
0.071423
0.06549
0.059798
0.054631
0.050024
0.046019
0.042655
0.039886
0.037741
0.036073
0.034964
0.076219
0.071156
0.065495
0.060029
0.055043
0.050568
0.046652
0.043338
0.040584
0.03842
0.036708
0.035528
0.0756
0.070881
0.065474
0.06022
0.055408
0.051061
0.047234
0.04397
0.041235
0.039056
0.037307
0.036063
0.075008
0.070601
0.06543
0.060376
0.055729
0.051507
0.047767
0.044556
0.041841
0.039652
0.037871
0.036568
0.074441
0.070317
0.065366
0.0605
0.056012
0.05191
0.048255
0.045096
0.042403
0.040208
0.038399
0.037045
0.073898