/*--------------------------------*- C++ -*----------------------------------*\
  =========                 |
  \\      /  F ield         | OpenFOAM: The Open Source CFD Toolbox
   \\    /   O peration     | Website:  https://openfoam.org
    \\  /    A nd           | Version:  6.0
     \\/     M anipulation  |
\*---------------------------------------------------------------------------*/
FoamFile
{
    version     2.0;
    format      ascii;
    class       volScalarField;
    location    "1";
    object      p;
}
// * * * * * * * * * * * * * * * * * * * * * * * * * * * * * * * * * * * * * //

dimensions      [0 2 -2 0 0 0 0];

internalField   nonuniform List<scalar> 
17000
(
0.1043
0.10423
0.10329
0.10294
0.10124
0.101
0.099239
0.099979
0.10024
0.1044
0.124
0.17079
0.1043
0.10423
0.10329
0.10294
0.10124
0.101
0.099237
0.09998
0.10024
0.10446
0.12332
0.16574
0.1043
0.10423
0.10329
0.10294
0.10123
0.101
0.099234
0.099981
0.10023
0.10449
0.12244
0.16127
0.1043
0.10423
0.10329
0.10294
0.10123
0.101
0.09923
0.09998
0.10021
0.10451
0.12147
0.15777
0.1043
0.10423
0.10329
0.10295
0.10123
0.10101
0.099224
0.099977
0.10019
0.10451
0.12043
0.15482
0.1043
0.10424
0.10329
0.10295
0.10123
0.10101
0.099219
0.099973
0.10017
0.1045
0.11936
0.15218
0.1043
0.10424
0.10329
0.10295
0.10123
0.10101
0.099212
0.099968
0.10014
0.10447
0.11829
0.14978
0.1043
0.10424
0.10329
0.10296
0.10123
0.10101
0.099205
0.099962
0.10011
0.10444
0.11722
0.14758
0.10431
0.10425
0.10329
0.10296
0.10122
0.10101
0.099198
0.099955
0.10007
0.10439
0.11617
0.14553
0.10431
0.10425
0.10329
0.10296
0.10122
0.10101
0.099189
0.099946
0.10003
0.10433
0.11516
0.14363
0.10431
0.10425
0.10329
0.10297
0.10122
0.10101
0.099181
0.099935
0.09998
0.10426
0.11418
0.14184
0.10432
0.10426
0.10329
0.10297
0.10122
0.10102
0.099171
0.099924
0.09993
0.10419
0.11324
0.14015
0.10432
0.10426
0.10329
0.10298
0.10122
0.10102
0.099161
0.099911
0.099875
0.1041
0.11234
0.13855
0.10432
0.10427
0.1033
0.10298
0.10121
0.10102
0.09915
0.099897
0.099817
0.10402
0.11148
0.13704
0.10433
0.10427
0.1033
0.10298
0.10121
0.10102
0.099139
0.099881
0.099755
0.10392
0.11065
0.13559
0.10433
0.10428
0.1033
0.10299
0.10121
0.10102
0.099127
0.099864
0.09969
0.10382
0.10986
0.13422
0.10434
0.10428
0.1033
0.10299
0.10121
0.10102
0.099114
0.099846
0.09962
0.10372
0.1091
0.13291
0.10434
0.10429
0.10331
0.103
0.10121
0.10102
0.0991
0.099827
0.099548
0.10362
0.10836
0.13165
0.10435
0.1043
0.10331
0.103
0.10121
0.10102
0.099087
0.099806
0.099472
0.10351
0.10765
0.13044
0.10435
0.1043
0.10331
0.10301
0.1012
0.10101
0.099072
0.099785
0.099394
0.1034
0.10696
0.12928
0.10436
0.10431
0.10332
0.10301
0.1012
0.10101
0.099057
0.099762
0.099312
0.1033
0.10629
0.12816
0.10437
0.10432
0.10332
0.10302
0.1012
0.10101
0.099041
0.099737
0.099227
0.10318
0.10564
0.12707
0.10437
0.10432
0.10333
0.10303
0.1012
0.10101
0.099025
0.099712
0.09914
0.10307
0.105
0.12602
0.10438
0.10433
0.10333
0.10303
0.1012
0.10101
0.099008
0.099686
0.09905
0.10296
0.10437
0.125
0.10439
0.10434
0.10334
0.10304
0.1012
0.10101
0.09899
0.099658
0.098958
0.10284
0.10376
0.12402
0.1044
0.10435
0.10334
0.10305
0.1012
0.101
0.098972
0.099629
0.098863
0.10272
0.10316
0.12306
0.10441
0.10436
0.10335
0.10305
0.10119
0.101
0.098953
0.099599
0.098766
0.1026
0.10257
0.12212
0.10441
0.10437
0.10335
0.10306
0.10119
0.101
0.098934
0.099569
0.098666
0.10248
0.10198
0.12121
0.10442
0.10438
0.10336
0.10307
0.10119
0.101
0.098914
0.099537
0.098564
0.10236
0.10141
0.12032
0.10443
0.10439
0.10337
0.10307
0.10119
0.10099
0.098893
0.099504
0.09846
0.10224
0.10085
0.11945
0.10444
0.1044
0.10337
0.10308
0.10119
0.10099
0.098872
0.09947
0.098354
0.10211
0.10029
0.1186
0.10445
0.10441
0.10338
0.10309
0.10119
0.10099
0.098851
0.099435
0.098246
0.10198
0.099749
0.11777
0.10446
0.10442
0.10339
0.1031
0.10119
0.10098
0.098829
0.099399
0.098136
0.10185
0.099212
0.11696
0.10448
0.10443
0.1034
0.1031
0.10119
0.10098
0.098806
0.099363
0.098024
0.10172
0.098683
0.11616
0.10449
0.10445
0.1034
0.10311
0.10119
0.10097
0.098783
0.099325
0.097911
0.10159
0.098163
0.11538
0.1045
0.10446
0.10341
0.10312
0.10119
0.10097
0.098759
0.099286
0.097795
0.10145
0.097652
0.11462
0.10451
0.10447
0.10342
0.10313
0.10119
0.10096
0.098735
0.099247
0.097678
0.10131
0.097148
0.11387
0.10453
0.10449
0.10343
0.10314
0.10119
0.10096
0.09871
0.099207
0.09756
0.10117
0.096653
0.11313
0.10454
0.1045
0.10344
0.10315
0.10119
0.10095
0.098685
0.099166
0.09744
0.10103
0.096166
0.1124
0.10455
0.10451
0.10345
0.10316
0.10119
0.10095
0.098659
0.099124
0.097318
0.10089
0.095687
0.11169
0.10457
0.10453
0.10346
0.10317
0.10119
0.10094
0.098633
0.099081
0.097195
0.10075
0.095216
0.11099
0.10458
0.10454
0.10347
0.10318
0.10119
0.10094
0.098606
0.099038
0.097071
0.1006
0.094753
0.11031
0.1046
0.10456
0.10348
0.10319
0.10119
0.10093
0.098579
0.098994
0.096945
0.10045
0.094299
0.10963
0.10461
0.10458
0.1035
0.1032
0.10119
0.10092
0.098551
0.098949
0.096819
0.1003
0.093852
0.10896
0.10463
0.10459
0.10351
0.10321
0.10119
0.10092
0.098523
0.098903
0.096691
0.10015
0.093412
0.10831
0.10465
0.10461
0.10352
0.10322
0.10119
0.10091
0.098494
0.098856
0.096562
0.1
0.092981
0.10766
0.10467
0.10463
0.10353
0.10323
0.10119
0.1009
0.098465
0.098809
0.096432
0.099847
0.092557
0.10703
0.10468
0.10465
0.10355
0.10324
0.10119
0.1009
0.098435
0.098762
0.096302
0.099692
0.092141
0.1064
0.1047
0.10466
0.10356
0.10325
0.10119
0.10089
0.098405
0.098713
0.09617
0.099535
0.091732
0.10578
0.10472
0.10468
0.10358
0.10327
0.10119
0.10088
0.098375
0.098664
0.096037
0.099378
0.091331
0.10517
0.10474
0.1047
0.10359
0.10328
0.1012
0.10088
0.098344
0.098614
0.095904
0.099219
0.090936
0.10457
0.10476
0.10472
0.10361
0.10329
0.1012
0.10087
0.098313
0.098564
0.09577
0.099059
0.090549
0.10398
0.10478
0.10474
0.10362
0.1033
0.1012
0.10086
0.098282
0.098513
0.095636
0.098898
0.090169
0.1034
0.1048
0.10476
0.10364
0.10332
0.1012
0.10085
0.09825
0.098461
0.095501
0.098735
0.089796
0.10282
0.10482
0.10478
0.10365
0.10333
0.10121
0.10085
0.098217
0.098409
0.095365
0.098572
0.08943
0.10225
0.10485
0.10481
0.10367
0.10334
0.10121
0.10084
0.098185
0.098356
0.095229
0.098407
0.089071
0.10169
0.10487
0.10483
0.10369
0.10336
0.10121
0.10083
0.098152
0.098302
0.095093
0.098241
0.088718
0.10113
0.10489
0.10485
0.10371
0.10337
0.10122
0.10082
0.098118
0.098248
0.094956
0.098074
0.088372
0.10059
0.10492
0.10488
0.10373
0.10339
0.10122
0.10081
0.098085
0.098194
0.094819
0.097907
0.088032
0.10004
0.10494
0.1049
0.10375
0.1034
0.10122
0.1008
0.098051
0.098139
0.094681
0.097738
0.087698
0.099511
0.10497
0.10492
0.10377
0.10342
0.10123
0.1008
0.098016
0.098083
0.094544
0.097568
0.087371
0.098983
0.10499
0.10495
0.10379
0.10343
0.10123
0.10079
0.097982
0.098027
0.094406
0.097398
0.08705
0.098462
0.10502
0.10498
0.10381
0.10345
0.10124
0.10078
0.097947
0.09797
0.094268
0.097227
0.086734
0.097948
0.10505
0.105
0.10383
0.10347
0.10124
0.10077
0.097912
0.097913
0.09413
0.097054
0.086425
0.097439
0.10507
0.10503
0.10385
0.10348
0.10125
0.10076
0.097876
0.097855
0.093992
0.096881
0.086121
0.096937
0.1051
0.10506
0.10387
0.1035
0.10125
0.10075
0.097841
0.097797
0.093854
0.096708
0.085823
0.096441
0.10513
0.10509
0.1039
0.10352
0.10126
0.10075
0.097805
0.097738
0.093716
0.096533
0.085531
0.095951
0.10516
0.10511
0.10392
0.10354
0.10126
0.10074
0.097769
0.097679
0.093578
0.096358
0.085244
0.095466
0.10519
0.10514
0.10395
0.10355
0.10127
0.10073
0.097733
0.09762
0.09344
0.096182
0.084963
0.094987
0.10522
0.10517
0.10397
0.10357
0.10128
0.10072
0.097696
0.09756
0.093303
0.096005
0.084686
0.094514
0.10526
0.10521
0.104
0.10359
0.10129
0.10071
0.09766
0.097499
0.093165
0.095828
0.084415
0.094046
0.10529
0.10524
0.10402
0.10361
0.10129
0.1007
0.097623
0.097439
0.093028
0.09565
0.084149
0.093583
0.10532
0.10527
0.10405
0.10363
0.1013
0.1007
0.097586
0.097377
0.092891
0.095472
0.083887
0.093126
0.10536
0.1053
0.10408
0.10365
0.10131
0.10069
0.097549
0.097316
0.092754
0.095293
0.083631
0.092674
0.10539
0.10534
0.10411
0.10367
0.10132
0.10068
0.097512
0.097254
0.092618
0.095113
0.083379
0.092227
0.10543
0.10537
0.10414
0.1037
0.10133
0.10067
0.097475
0.097192
0.092482
0.094933
0.083132
0.091785
0.10546
0.10541
0.10417
0.10372
0.10134
0.10066
0.097438
0.097129
0.092346
0.094753
0.082889
0.091349
0.1055
0.10544
0.1042
0.10374
0.10135
0.10066
0.0974
0.097066
0.092211
0.094572
0.08265
0.090917
0.10554
0.10548
0.10423
0.10377
0.10136
0.10065
0.097363
0.097003
0.092077
0.094391
0.082416
0.09049
0.10558
0.10552
0.10426
0.10379
0.10137
0.10064
0.097326
0.096939
0.091942
0.094209
0.082186
0.090067
0.10562
0.10555
0.10429
0.10381
0.10138
0.10063
0.097289
0.096875
0.091809
0.094027
0.08196
0.08965
0.10566
0.10559
0.10433
0.10384
0.10139
0.10063
0.097251
0.096811
0.091675
0.093844
0.081739
0.089237
0.1057
0.10563
0.10436
0.10386
0.1014
0.10062
0.097214
0.096747
0.091543
0.093662
0.081521
0.088828
0.10574
0.10567
0.1044
0.10389
0.10142
0.10061
0.097177
0.096682
0.091411
0.093478
0.081306
0.088424
0.10579
0.10572
0.10443
0.10392
0.10143
0.10061
0.09714
0.096617
0.091279
0.093295
0.081096
0.088024
0.10583
0.10576
0.10447
0.10394
0.10144
0.1006
0.097103
0.096552
0.091149
0.093111
0.080889
0.087629
0.10588
0.1058
0.10451
0.10397
0.10146
0.10059
0.097066
0.096487
0.091018
0.092927
0.080686
0.087238
0.10592
0.10585
0.10455
0.104
0.10147
0.10059
0.097029
0.096421
0.090889
0.092743
0.080486
0.086851
0.10597
0.10589
0.10459
0.10403
0.10149
0.10058
0.096993
0.096355
0.09076
0.092559
0.080289
0.086468
0.10602
0.10594
0.10463
0.10406
0.10151
0.10058
0.096956
0.096289
0.090632
0.092374
0.080095
0.08609
0.10607
0.10599
0.10467
0.10409
0.10152
0.10057
0.09692
0.096223
0.090505
0.09219
0.079905
0.085715
0.10612
0.10604
0.10471
0.10413
0.10154
0.10057
0.096884
0.096157
0.090378
0.092005
0.079718
0.085344
0.10617
0.10608
0.10476
0.10416
0.10156
0.10057
0.096849
0.09609
0.090252
0.09182
0.079534
0.084977
0.10623
0.10614
0.1048
0.10419
0.10158
0.10056
0.096813
0.096024
0.090127
0.091635
0.079352
0.084614
0.10628
0.10619
0.10485
0.10423
0.1016
0.10056
0.096778
0.095957
0.090003
0.09145
0.079173
0.084255
0.10634
0.10624
0.10489
0.10426
0.10162
0.10056
0.096743
0.09589
0.08988
0.091265
0.078998
0.083899
0.10639
0.10629
0.10494
0.1043
0.10164
0.10055
0.096709
0.095824
0.089757
0.091079
0.078824
0.083547
0.10645
0.10635
0.10499
0.10433
0.10166
0.10055
0.096675
0.095757
0.089635
0.090894
0.078653
0.083198
0.10651
0.10641
0.10504
0.10437
0.10168
0.10055
0.096641
0.09569
0.089514
0.090709
0.078485
0.082853
0.10657
0.10646
0.10509
0.10441
0.10171
0.10055
0.096608
0.095623
0.089394
0.090524
0.078319
0.082511
0.10663
0.10652
0.10515
0.10445
0.10173
0.10055
0.096575
0.095556
0.089275
0.090338
0.078155
0.082173
0.10669
0.10658
0.1052
0.10449
0.10176
0.10055
0.096542
0.095489
0.089157
0.090153
0.077994
0.081838
0.10676
0.10664
0.10526
0.10453
0.10178
0.10055
0.09651
0.095422
0.08904
0.089968
0.077834
0.081506
0.10682
0.10671
0.10531
0.10458
0.10181
0.10055
0.096479
0.095355
0.088923
0.089783
0.077677
0.081177
0.10689
0.10677
0.10537
0.10462
0.10184
0.10055
0.096448
0.095288
0.088808
0.089598
0.077522
0.080851
0.10696
0.10684
0.10543
0.10467
0.10187
0.10056
0.096418
0.095221
0.088693
0.089413
0.077368
0.080528
0.10703
0.1069
0.10549
0.10471
0.1019
0.10056
0.096388
0.095154
0.08858
0.089228
0.077216
0.080208
0.1071
0.10697
0.10556
0.10476
0.10193
0.10056
0.096359
0.095088
0.088467
0.089044
0.077066
0.079891
0.10717
0.10704
0.10562
0.10481
0.10196
0.10057
0.096331
0.095021
0.088355
0.088859
0.076918
0.079577
0.10725
0.10711
0.10569
0.10486
0.102
0.10057
0.096303
0.094955
0.088245
0.088675
0.076771
0.079266
0.10733
0.10719
0.10575
0.10491
0.10203
0.10058
0.096276
0.094889
0.088135
0.088491
0.076626
0.078957
0.1074
0.10726
0.10582
0.10497
0.10207
0.10059
0.09625
0.094823
0.088027
0.088307
0.076483
0.078651
0.10748
0.10734
0.10589
0.10502
0.10211
0.1006
0.096225
0.094757
0.087919
0.088123
0.07634
0.078347
0.10757
0.10742
0.10597
0.10508
0.10215
0.10061
0.096201
0.094692
0.087812
0.08794
0.076199
0.078046
0.10765
0.1075
0.10604
0.10513
0.10219
0.10062
0.096177
0.094627
0.087707
0.087756
0.076059
0.077747
0.10774
0.10758
0.10612
0.10519
0.10223
0.10063
0.096155
0.094562
0.087602
0.087573
0.075921
0.07745
0.10783
0.10767
0.10619
0.10525
0.10227
0.10064
0.096133
0.094497
0.087499
0.087391
0.075783
0.077156
0.10792
0.10775
0.10627
0.10532
0.10232
0.10065
0.096112
0.094433
0.087397
0.087208
0.075647
0.076864
0.10801
0.10784
0.10636
0.10538
0.10236
0.10067
0.096093
0.094369
0.087295
0.087026
0.075511
0.076574
0.1081
0.10793
0.10644
0.10545
0.10241
0.10069
0.096074
0.094306
0.087195
0.086844
0.075377
0.076286
0.1082
0.10803
0.10653
0.10552
0.10246
0.1007
0.096057
0.094243
0.087096
0.086662
0.075243
0.076
0.1083
0.10812
0.10661
0.10559
0.10251
0.10072
0.096041
0.094181
0.086998
0.086481
0.07511
0.075716
0.1084
0.10822
0.10671
0.10566
0.10257
0.10074
0.096026
0.094119
0.086901
0.0863
0.074978
0.075433
0.1085
0.10832
0.1068
0.10573
0.10262
0.10076
0.096013
0.094058
0.086806
0.086119
0.074846
0.075153
0.10861
0.10842
0.10689
0.10581
0.10268
0.10079
0.096
0.093997
0.086711
0.085939
0.074715
0.074874
0.10872
0.10853
0.10699
0.10589
0.10274
0.10081
0.09599
0.093937
0.086618
0.085759
0.074584
0.074597
0.10883
0.10863
0.10709
0.10597
0.1028
0.10084
0.09598
0.093878
0.086526
0.085579
0.074454
0.074321
0.10894
0.10875
0.1072
0.10605
0.10286
0.10087
0.095972
0.093819
0.086435
0.0854
0.074325
0.074046
0.10906
0.10886
0.1073
0.10614
0.10293
0.10089
0.095966
0.093762
0.086345
0.085221
0.074195
0.073773
0.10918
0.10898
0.10741
0.10623
0.103
0.10093
0.095962
0.093705
0.086256
0.085043
0.074066
0.073501
0.1093
0.10909
0.10753
0.10632
0.10307
0.10096
0.095959
0.093648
0.086169
0.084865
0.073937
0.073231
0.10943
0.10922
0.10764
0.10642
0.10314
0.101
0.095957
0.093593
0.086083
0.084687
0.073808
0.072961
0.10956
0.10934
0.10776
0.10651
0.10322
0.10103
0.095958
0.093539
0.085998
0.08451
0.07368
0.072693
0.10969
0.10947
0.10788
0.10661
0.1033
0.10107
0.095961
0.093486
0.085914
0.084333
0.073551
0.072425
0.10983
0.1096
0.10801
0.10672
0.10338
0.10111
0.095965
0.093433
0.085832
0.084156
0.073422
0.072159
0.10997
0.10974
0.10813
0.10682
0.10346
0.10116
0.095972
0.093382
0.085751
0.08398
0.073293
0.071893
0.11011
0.10988
0.10827
0.10693
0.10355
0.10121
0.095981
0.093332
0.085671
0.083805
0.073164
0.071627
0.11026
0.11002
0.1084
0.10704
0.10364
0.10125
0.095991
0.093283
0.085592
0.08363
0.073035
0.071363
0.11041
0.11017
0.10854
0.10716
0.10373
0.10131
0.096005
0.093236
0.085515
0.083455
0.072905
0.071098
0.11057
0.11032
0.10869
0.10728
0.10383
0.10136
0.09602
0.09319
0.085439
0.083281
0.072775
0.070834
0.11073
0.11048
0.10883
0.10741
0.10393
0.10142
0.096038
0.093145
0.085365
0.083107
0.072645
0.070571
0.11089
0.11064
0.10899
0.10753
0.10403
0.10148
0.096059
0.093102
0.085292
0.082934
0.072514
0.070307
0.11106
0.1108
0.10914
0.10767
0.10414
0.10154
0.096082
0.09306
0.08522
0.082761
0.072382
0.070044
0.11123
0.11097
0.1093
0.1078
0.10425
0.10161
0.096108
0.09302
0.08515
0.082588
0.07225
0.069781
0.11141
0.11114
0.10947
0.10794
0.10437
0.10168
0.096136
0.092981
0.085081
0.082416
0.072117
0.069517
0.11159
0.11132
0.10964
0.10809
0.10449
0.10175
0.096168
0.092944
0.085014
0.082245
0.071983
0.069253
0.11178
0.1115
0.10981
0.10824
0.10461
0.10183
0.096203
0.092909
0.084948
0.082074
0.071849
0.068989
0.11197
0.11169
0.10999
0.10839
0.10474
0.10191
0.09624
0.092876
0.084884
0.081903
0.071713
0.068725
0.11217
0.11189
0.11018
0.10855
0.10487
0.10199
0.096281
0.092845
0.084821
0.081733
0.071577
0.068459
0.11237
0.11209
0.11037
0.10871
0.10501
0.10208
0.096325
0.092815
0.08476
0.081563
0.071439
0.068193
0.11258
0.11229
0.11057
0.10888
0.10515
0.10217
0.096373
0.092788
0.0847
0.081394
0.0713
0.067927
0.11279
0.1125
0.11077
0.10906
0.1053
0.10227
0.096424
0.092763
0.084642
0.081225
0.07116
0.067659
0.11301
0.11272
0.11098
0.10924
0.10545
0.10237
0.096479
0.09274
0.084585
0.081056
0.071018
0.06739
0.11324
0.11294
0.11119
0.10943
0.10561
0.10247
0.096537
0.09272
0.08453
0.080888
0.070875
0.06712
0.11347
0.11317
0.11142
0.10962
0.10578
0.10258
0.0966
0.092702
0.084477
0.08072
0.070731
0.066848
0.11371
0.11341
0.11164
0.10982
0.10595
0.1027
0.096666
0.092686
0.084425
0.080552
0.070584
0.066574
0.11396
0.11365
0.11188
0.11003
0.10612
0.10282
0.096736
0.092673
0.084375
0.080385
0.070436
0.066299
0.11421
0.1139
0.11212
0.11024
0.1063
0.10294
0.096811
0.092662
0.084326
0.080217
0.070286
0.066022
0.11447
0.11416
0.11237
0.11046
0.10649
0.10307
0.09689
0.092654
0.084279
0.08005
0.070134
0.065743
0.11474
0.11443
0.11263
0.11068
0.10668
0.1032
0.096973
0.092649
0.084233
0.079884
0.06998
0.065462
0.11501
0.1147
0.11289
0.11092
0.10689
0.10334
0.097061
0.092647
0.084189
0.079717
0.069824
0.065178
0.1153
0.11498
0.11316
0.11116
0.10709
0.10349
0.097154
0.092647
0.084147
0.07955
0.069665
0.064891
0.11559
0.11527
0.11344
0.11141
0.10731
0.10364
0.097251
0.092651
0.084106
0.079383
0.069503
0.064601
0.11589
0.11557
0.11373
0.11166
0.10753
0.1038
0.097354
0.092658
0.084066
0.079216
0.069339
0.064308
0.1162
0.11587
0.11403
0.11193
0.10776
0.10397
0.097461
0.092667
0.084028
0.079049
0.069172
0.064012
0.11651
0.11619
0.11433
0.1122
0.108
0.10414
0.097574
0.09268
0.083992
0.078881
0.069002
0.063712
0.11684
0.11652
0.11465
0.11249
0.10824
0.10431
0.097691
0.092696
0.083956
0.078713
0.068828
0.063409
0.11718
0.11685
0.11498
0.11278
0.1085
0.1045
0.097815
0.092715
0.083922
0.078544
0.068651
0.063101
0.11752
0.11719
0.11531
0.11308
0.10876
0.10469
0.097944
0.092737
0.08389
0.078375
0.068471
0.062788
0.11788
0.11755
0.11566
0.11339
0.10903
0.10489
0.098078
0.092763
0.083859
0.078205
0.068286
0.062471
0.11824
0.11792
0.11601
0.11371
0.10931
0.1051
0.098218
0.092792
0.083828
0.078034
0.068097
0.062149
0.11862
0.11829
0.11638
0.11404
0.1096
0.10531
0.098364
0.092825
0.083799
0.077862
0.067904
0.061821
0.119
0.11868
0.11676
0.11438
0.1099
0.10553
0.098516
0.092861
0.083771
0.077689
0.067706
0.061487
0.1194
0.11908
0.11714
0.11473
0.11021
0.10576
0.098674
0.0929
0.083743
0.077514
0.067503
0.061147
0.11981
0.11949
0.11755
0.1151
0.11053
0.106
0.098839
0.092943
0.083717
0.077338
0.067295
0.060801
0.12023
0.11991
0.11796
0.11547
0.11086
0.10625
0.09901
0.092989
0.083691
0.077159
0.067081
0.060447
0.12067
0.12035
0.11838
0.11586
0.1112
0.1065
0.099187
0.093039
0.083665
0.076979
0.066861
0.060086
0.12111
0.1208
0.11882
0.11626
0.11155
0.10677
0.099371
0.093093
0.08364
0.076796
0.066635
0.059718
0.12157
0.12126
0.11928
0.11668
0.11191
0.10704
0.099561
0.09315
0.083615
0.07661
0.066402
0.05934
0.12205
0.12174
0.11974
0.1171
0.11229
0.10733
0.099759
0.09321
0.083589
0.076422
0.066162
0.058954
0.12253
0.12223
0.12022
0.11754
0.11268
0.10762
0.099963
0.093274
0.083564
0.07623
0.065914
0.058558
0.12304
0.12274
0.12072
0.118
0.11308
0.10792
0.10017
0.093341
0.083538
0.076034
0.065658
0.058152
0.12356
0.12326
0.12123
0.11847
0.11349
0.10824
0.10039
0.093412
0.083511
0.075835
0.065394
0.057736
0.12409
0.1238
0.12176
0.11895
0.11392
0.10856
0.10062
0.093486
0.083484
0.075631
0.06512
0.057308
0.12464
0.12436
0.12231
0.11946
0.11436
0.1089
0.10085
0.093564
0.083455
0.075423
0.064837
0.056868
0.12521
0.12493
0.12287
0.11997
0.11481
0.10925
0.1011
0.093644
0.083425
0.075209
0.064544
0.056416
0.12579
0.12553
0.12345
0.12051
0.11529
0.10961
0.10135
0.093729
0.083394
0.07499
0.06424
0.055949
0.1264
0.12614
0.12405
0.12106
0.11577
0.10998
0.1016
0.093816
0.08336
0.074765
0.063924
0.055469
0.12702
0.12678
0.12468
0.12164
0.11628
0.11037
0.10187
0.093907
0.083324
0.074533
0.063596
0.054974
0.12766
0.12743
0.12532
0.12223
0.1168
0.11077
0.10215
0.094001
0.083286
0.074294
0.063256
0.054462
0.12833
0.12811
0.12599
0.12285
0.11734
0.11118
0.10243
0.094098
0.083245
0.074048
0.062901
0.053934
0.12902
0.12881
0.12668
0.12349
0.1179
0.11161
0.10272
0.094199
0.0832
0.073793
0.062533
0.053388
0.12973
0.12954
0.12739
0.12415
0.11848
0.11205
0.10303
0.094302
0.083152
0.073529
0.062149
0.052823
0.13047
0.13029
0.12813
0.12483
0.11908
0.11251
0.10334
0.094409
0.0831
0.073256
0.061749
0.052239
0.13124
0.13107
0.1289
0.12554
0.11971
0.11299
0.10366
0.094519
0.083044
0.072973
0.061332
0.051633
0.13203
0.13188
0.1297
0.12628
0.12036
0.11349
0.104
0.094632
0.082983
0.072678
0.060896
0.051005
0.13285
0.13272
0.13053
0.12705
0.12103
0.114
0.10434
0.094748
0.082916
0.072372
0.060442
0.050353
0.13371
0.1336
0.13139
0.12785
0.12173
0.11453
0.1047
0.094867
0.082844
0.072053
0.059967
0.049676
0.13459
0.13451
0.13229
0.12869
0.12246
0.11509
0.10507
0.094989
0.082765
0.071721
0.059471
0.048973
0.13552
0.13546
0.13322
0.12956
0.12322
0.11567
0.10545
0.095114
0.082679
0.071374
0.058951
0.048242
0.13648
0.13645
0.1342
0.13046
0.12401
0.11627
0.10585
0.095241
0.082585
0.071011
0.058408
0.047482
0.13748
0.13748
0.13522
0.13141
0.12484
0.11689
0.10625
0.095371
0.082483
0.070631
0.057838
0.04669
0.13853
0.13855
0.13628
0.1324
0.1257
0.11754
0.10668
0.095503
0.082371
0.070232
0.057241
0.045865
0.13961
0.13967
0.13739
0.13343
0.12659
0.11822
0.10712
0.095637
0.082249
0.069814
0.056614
0.045005
0.14075
0.14085
0.13856
0.13451
0.12753
0.11893
0.10757
0.095772
0.082114
0.069373
0.055956
0.044107
0.14194
0.14207
0.13977
0.13564
0.12851
0.11966
0.10804
0.095907
0.081967
0.068909
0.055264
0.043169
0.14318
0.14336
0.14105
0.13683
0.12954
0.12043
0.10852
0.096042
0.081804
0.068419
0.054535
0.042189
0.14448
0.14471
0.14239
0.13807
0.13062
0.12123
0.10902
0.096176
0.081624
0.0679
0.053768
0.041164
0.14584
0.14612
0.14379
0.13937
0.13174
0.12206
0.10954
0.096307
0.081425
0.06735
0.052958
0.04009
0.14727
0.1476
0.14527
0.14074
0.13292
0.12293
0.11007
0.096433
0.081204
0.066764
0.052102
0.038964
0.14876
0.14915
0.14682
0.14218
0.13415
0.12384
0.11061
0.096553
0.080958
0.066141
0.051197
0.037783
0.15032
0.15078
0.14844
0.14369
0.13544
0.12478
0.11117
0.096664
0.080683
0.065475
0.050238
0.036541
0.15196
0.15249
0.15015
0.14527
0.13679
0.12576
0.11174
0.096762
0.080376
0.064761
0.049219
0.035236
0.15368
0.15429
0.15195
0.14694
0.1382
0.12678
0.11232
0.096845
0.080031
0.063994
0.048137
0.033861
0.15548
0.15618
0.15384
0.14869
0.13968
0.12783
0.11291
0.096909
0.079643
0.063169
0.046985
0.032411
0.15738
0.15817
0.15584
0.15053
0.14123
0.12893
0.1135
0.096947
0.079205
0.062278
0.045756
0.03088
0.15936
0.16026
0.15794
0.15247
0.14285
0.13006
0.1141
0.096955
0.078712
0.061315
0.044443
0.029261
0.16145
0.16246
0.16015
0.15451
0.14455
0.13123
0.11469
0.096926
0.078154
0.060271
0.043038
0.027547
0.16364
0.16478
0.16248
0.15665
0.14632
0.13243
0.11527
0.096852
0.077524
0.059136
0.041533
0.025729
0.16595
0.16723
0.16495
0.15891
0.14816
0.13367
0.11584
0.096724
0.07681
0.057901
0.039918
0.023799
0.16838
0.16982
0.16755
0.16129
0.15009
0.13494
0.11639
0.096533
0.076001
0.056555
0.038182
0.021748
0.17093
0.17255
0.1703
0.1638
0.15211
0.13623
0.11691
0.096265
0.075085
0.055085
0.036314
0.019565
0.17363
0.17544
0.17322
0.16646
0.1542
0.13755
0.11738
0.095907
0.074046
0.053477
0.034303
0.017239
0.17648
0.17852
0.17632
0.16926
0.15639
0.13888
0.1178
0.095443
0.072868
0.051716
0.032134
0.014759
0.17949
0.18178
0.17962
0.17223
0.15867
0.14021
0.11814
0.094852
0.07153
0.049784
0.029792
0.012112
0.18269
0.18526
0.18314
0.17537
0.16104
0.14154
0.1184
0.094111
0.07001
0.047661
0.027261
0.0092857
0.18608
0.18898
0.18689
0.1787
0.16349
0.14285
0.11853
0.093191
0.068279
0.045323
0.024521
0.0062644
0.18969
0.19296
0.19092
0.18223
0.16604
0.14412
0.11852
0.092059
0.066307
0.042742
0.02155
0.0030326
0.19353
0.19724
0.19524
0.18598
0.16865
0.14531
0.11832
0.090673
0.064053
0.039888
0.018323
-0.00042742
0.19763
0.20184
0.19988
0.18995
0.17132
0.14639
0.11788
0.088983
0.061474
0.036721
0.014811
-0.0041356
0.202
0.2068
0.20489
0.19415
0.17403
0.14731
0.11714
0.08693
0.058518
0.033201
0.010981
-0.0081137
0.20666
0.21215
0.21027
0.19858
0.17672
0.14801
0.11603
0.084442
0.055123
0.029279
0.0067968
-0.012386
0.21164
0.21794
0.21607
0.20321
0.17935
0.14839
0.11446
0.081438
0.051222
0.024901
0.0022189
-0.016976
0.21695
0.22419
0.2223
0.20803
0.18182
0.14835
0.11232
0.077822
0.046739
0.020013
-0.0027924
-0.021907
0.22261
0.23096
0.22897
0.21297
0.18403
0.14774
0.10947
0.073484
0.041595
0.014558
-0.0082735
-0.027198
0.22862
0.23826
0.23607
0.21792
0.1858
0.14638
0.10575
0.068305
0.035706
0.0084821
-0.014254
-0.032856
0.23501
0.24615
0.24356
0.22276
0.18692
0.14406
0.10099
0.062151
0.028987
0.0017421
-0.020748
-0.038873
0.24178
0.25461
0.25133
0.22723
0.18709
0.1405
0.09496
0.054884
0.021363
-0.0056925
-0.027752
-0.045219
0.24898
0.26365
0.25919
0.23099
0.18592
0.13535
0.087441
0.046367
0.012772
-0.01383
-0.035234
-0.051834
0.25663
0.27314
0.26676
0.2335
0.18288
0.12824
0.078188
0.036485
0.0031824
-0.022644
-0.043129
-0.05863
0.26482
0.28286
0.27337
0.23394
0.1773
0.11872
0.066983
0.025171
-0.0073797
-0.032061
-0.051332
-0.06549
0.27369
0.29228
0.27791
0.23114
0.16832
0.10634
0.05368
0.012456
-0.018803
-0.041942
-0.059693
-0.072269
0.28345
0.30044
0.2786
0.22345
0.15493
0.090707
0.038273
-0.0014867
-0.030857
-0.052062
-0.068013
-0.078808
0.29447
0.30572
0.27281
0.20873
0.13605
0.071574
0.020944
-0.016321
-0.043194
-0.062123
-0.076058
-0.084947
0.30727
0.30576
0.25705
0.18449
0.11065
0.048886
0.0020594
-0.03159
-0.055398
-0.071801
-0.083598
-0.090553
0.32236
0.2977
0.2276
0.14839
0.078015
0.022829
-0.017913
-0.046829
-0.067092
-0.080822
-0.090461
-0.095557
0.33941
0.27793
0.18178
0.099425
0.038214
-0.0061465
-0.038506
-0.06168
-0.078039
-0.089049
-0.096592
-0.099987
0.35759
0.23969
0.11629
0.03745
-0.0084482
-0.037927
-0.059747
-0.076254
-0.088404
-0.096685
-0.10222
-0.10412
0.38556
0.18208
0.029847
-0.036758
-0.061729
-0.073327
-0.082853
-0.091759
-0.099278
-0.10469
-0.10818
-0.10874
0.43488
0.12163
-0.064477
-0.1144
-0.11622
-0.10978
-0.10706
-0.10824
-0.11098
-0.1134
-0.11484
-0.11405
0.10205
0.062058
0.051171
0.044404
0.039686
0.036364
0.034131
0.032894
0.032531
0.032951
0.033928
0.035073
0.12128
0.077067
0.063552
0.054619
0.048421
0.044038
0.041015
0.039211
0.03847
0.03869
0.039619
0.040995
0.10869
0.072087
0.05982
0.051058
0.044934
0.040564
0.037477
0.035529
0.03457
0.034517
0.035153
0.036238
0.10361
0.071733
0.059786
0.050914
0.044618
0.040074
0.036808
0.034678
0.033533
0.033301
0.033776
0.034677
0.1029
0.073807
0.061663
0.05253
0.045936
0.041129
0.03763
0.0353
0.033985
0.033617
0.033992
0.03481
0.10218
0.075537
0.063298
0.053994
0.04716
0.042128
0.038426
0.035918
0.03445
0.033958
0.034236
0.034979
0.101
0.07676
0.064586
0.055211
0.048204
0.04299
0.039118
0.036455
0.034847
0.034234
0.034412
0.035072
0.099766
0.077777
0.065772
0.056393
0.049259
0.043894
0.039873
0.03707
0.03533
0.0346
0.034676
0.035244
0.098615
0.078673
0.066919
0.057594
0.050379
0.044892
0.040742
0.037811
0.035947
0.0351
0.035069
0.035539
0.097531
0.07944
0.068013
0.0588
0.051553
0.045976
0.041718
0.038672
0.036691
0.035727
0.035583
0.035948
0.096494
0.080077
0.069037
0.05999
0.05276
0.047128
0.042786
0.03964
0.037549
0.036468
0.03621
0.036462
0.095501
0.080593
0.069984
0.061149
0.053982
0.048329
0.043928
0.040699
0.038508
0.037312
0.036936
0.037073
0.094552
0.081002
0.07085
0.062262
0.055198
0.049557
0.045122
0.041826
0.039546
0.03824
0.037748
0.037769
0.093648
0.081316
0.071632
0.063316
0.056388
0.05079
0.046344
0.043
0.040642
0.039234
0.038626
0.038535
0.092788
0.081548
0.072331
0.064303
0.057537
0.052007
0.047573
0.044196
0.041773
0.040271
0.039553
0.039355
0.091971
0.081709
0.07295
0.065218
0.058632
0.053191
0.048787
0.045394
0.042919
0.041332
0.040509
0.040211
0.091196
0.081809
0.073492
0.066058
0.059666
0.054329
0.049971
0.046576
0.044061
0.042399
0.041479
0.041088
0.090462
0.081858
0.073963
0.066824
0.060633
0.055413
0.051113
0.047727
0.045184
0.043458
0.042447
0.041972
0.089766
0.081864
0.074369
0.067518
0.061531
0.056436
0.052204
0.048839
0.046275
0.044495
0.043401
0.042851
0.089107
0.081834
0.074716
0.068145
0.06236
0.057395
0.053239
0.049902
0.047328
0.045503
0.044332
0.043713
0.088482
0.081775
0.07501
0.068707
0.063123
0.058291
0.054215
0.050913
0.048335
0.046474
0.045234
0.044552
0.08789
0.081691
0.075256
0.06921
0.063822
0.059123
0.055132
0.05187
0.049293
0.047403
0.0461
0.045362
0.087328
0.081586
0.075461
0.069658
0.064461
0.059895
0.055989
0.052771
0.050202
0.048288
0.046928
0.046138
0.086795
0.081466
0.075627
0.070057
0.065044
0.060608
0.056788
0.053617
0.051059
0.049129
0.047717
0.046878
0.086288
0.081332
0.075762
0.070411
0.065574
0.061266
0.057532
0.054411
0.051866
0.049924
0.048465
0.047582
0.085806
0.081188
0.075867
0.070724
0.066056
0.061872
0.058224
0.055153
0.052625
0.050674
0.049174
0.048248
0.085347
0.081035
0.075947
0.071
0.066493
0.06243
0.058866
0.055846
0.053337
0.051381
0.049843
0.048877
0.084911
0.080877
0.076005
0.071243
0.066889
0.062943
0.059461
0.056493
0.054004
0.052045
0.050474
0.049471
0.084495
0.080713
0.076043
0.071455
0.067248
0.063414
0.060013
0.057096
0.054628
0.05267
0.051069
0.05003
0.084099
0.080547
0.076064
0.07164
0.067573
0.063847
0.060524
0.057657
0.055213
0.053256
0.051629
0.050555
0.08372
0.080378
0.07607
0.071801
0.067866
0.064244
0.060997
0.05818
0.055759
0.053805
0.052155
0.051049
0.083359
0.080208
0.076063
0.07194
0.068129
0.064607
0.061433
0.058666
0.056269
0.05432
0.05265
0.051514
0.083013
0.080038
0.076044
0.072058
0.068367
0.06494
0.061837
0.059118
0.056745
0.054802
0.053115
0.05195
0.082683
0.079867
0.076016
0.072158
0.06858
0.065244
0.06221
0.059538
0.05719
0.055253
0.053551
0.052359
0.082366
0.079697
0.075978
0.072242
0.06877
0.065521
0.062553
0.059927
0.057604
0.055675
0.05396
0.052743
0.082063
0.079527
0.075932
0.07231
0.068939
0.065774
0.062869
0.060288
0.05799
0.05607
0.054344
0.053104
0.081771
0.079359
0.075879
0.072365
0.06909
0.066003
0.063161
0.060623
0.058349
0.056438
0.054704
0.053442
0.081491
0.079191
0.07582
0.072408
0.069223
0.066212
0.063428
0.060933
0.058683
0.056781
0.055041
0.053758
0.081222
0.079025
0.075755
0.072438
0.069339
0.0664
0.063673
0.061219
0.058994
0.057102
0.055356
0.054055
0.080962
0.078861
0.075686
0.072459
0.069441
0.06657
0.063897
0.061483
0.059282
0.0574
0.055651
0.054333
0.080712