/*--------------------------------*- C++ -*----------------------------------*\
  =========                 |
  \\      /  F ield         | OpenFOAM: The Open Source CFD Toolbox
   \\    /   O peration     | Website:  https://openfoam.org
    \\  /    A nd           | Version:  6.0
     \\/     M anipulation  |
\*---------------------------------------------------------------------------*/
FoamFile
{
    version     2.0;
    format      ascii;
    class       surfaceScalarField;
    location    "1";
    object      phi;
}
// * * * * * * * * * * * * * * * * * * * * * * * * * * * * * * * * * * * * * //

dimensions      [0 3 -1 0 0 0 0];

internalField   nonuniform List<scalar> 
28697
(
2.0051e-05
0.005201
1.8494e-10
4.0126e-05
0.0051116
5.9638e-05
0.0049351
7.8187e-05
0.0046741
9.5414e-05
0.0043332
0.00011102
0.0039182
0.00012471
0.0034362
0.00013627
0.0028953
0.00014545
0.002305
0.00015185
0.0016754
0.00015755
0.0010151
0.00046357
3.6185e-05
2.0052e-05
0.0051809
5.5397e-10
4.0128e-05
0.0050916
5.9639e-05
0.0049156
7.8191e-05
0.0046556
9.5415e-05
0.004316
0.00011103
0.0039026
0.00012471
0.0034225
0.00013625
0.0028838
0.00014542
0.0022958
0.00015111
0.0016698
0.00015996
0.0010062
0.00055264
7.0883e-05
2.0052e-05
0.0051609
9.2117e-10
4.013e-05
0.0050715
5.9642e-05
0.004896
7.8194e-05
0.004637
9.5417e-05
0.0042988
0.00011103
0.003887
0.0001247
0.0034088
0.00013623
0.0028723
0.00014542
0.0022866
0.00015031
0.0016649
0.00016166
0.00099486
0.00061517
9.9135e-05
2.0053e-05
0.0051408
1.2885e-09
4.0131e-05
0.0050514
5.9644e-05
0.0048765
7.8196e-05
0.0046185
9.5419e-05
0.0042816
0.00011103
0.0038714
0.0001247
0.0033951
0.00013621
0.0028607
0.00014545
0.0022774
0.00014955
0.0016608
0.00016249
0.00098192
0.00065681
0.00012085
2.0053e-05
0.0051208
1.656e-09
4.0133e-05
0.0050313
5.9646e-05
0.004857
7.8199e-05
0.0045999
9.5422e-05
0.0042643
0.00011103
0.0038558
0.0001247
0.0033815
0.00013619
0.0028493
0.00014549
0.0022681
0.00014888
0.0016574
0.00016251
0.00096829
0.00068219
0.00013713
2.0054e-05
0.0051007
2.0236e-09
4.0134e-05
0.0050112
5.9648e-05
0.0048375
7.8202e-05
0.0045814
9.5424e-05
0.0042471
0.00011103
0.0038402
0.00012469
0.0033678
0.00013616
0.0028378
0.00014556
0.0022587
0.00014835
0.0016546
0.00016188
0.00095477
0.00069518
0.00014889
2.0054e-05
0.0050807
2.3913e-09
4.0135e-05
0.0049912
5.9651e-05
0.004818
7.8204e-05
0.0045628
9.5427e-05
0.0042299
0.00011103
0.0038246
0.00012469
0.0033542
0.00013614
0.0028263
0.00014563
0.0022492
0.00014799
0.0016522
0.00016081
0.00094195
0.00069901
0.00015698
2.0055e-05
0.0050606
2.7591e-09
4.0137e-05
0.0049711
5.9653e-05
0.0047985
7.8207e-05
0.0045442
9.5429e-05
0.0042127
0.00011103
0.003809
0.00012469
0.0033405
0.00013611
0.0028149
0.00014569
0.0022396
0.00014781
0.0016501
0.0001595
0.00093025
0.00069638
0.00016214
2.0056e-05
0.0050406
3.1271e-09
4.0138e-05
0.004951
5.9655e-05
0.004779
7.8209e-05
0.0045257
9.5432e-05
0.0041954
0.00011103
0.0037934
0.00012469
0.0033268
0.00013608
0.0028035
0.00014575
0.00223
0.00014778
0.0016481
0.00015811
0.00091993
0.0006894
0.00016508
2.0056e-05
0.0050205
3.4952e-09
4.014e-05
0.0049309
5.9657e-05
0.0047594
7.8212e-05
0.0045071
9.5434e-05
0.0041782
0.00011103
0.0037778
0.00012469
0.0033132
0.00013606
0.0027921
0.00014579
0.0022202
0.0001479
0.001646
0.00015674
0.00091109
0.00067973
0.00016641
2.0057e-05
0.0050004
3.8635e-09
4.0141e-05
0.0049108
5.9659e-05
0.0047399
7.8214e-05
0.0044886
9.5437e-05
0.004161
0.00011103
0.0037622
0.00012469
0.0032995
0.00013603
0.0027808
0.00014582
0.0022104
0.00014814
0.0016436
0.0001555
0.00090372
0.0006686
0.00016664
2.0057e-05
0.0049804
4.232e-09
4.0142e-05
0.0048908
5.9662e-05
0.0047204
7.8217e-05
0.00447
9.544e-05
0.0041438
0.00011104
0.0037466
0.00012469
0.0032859
0.000136
0.0027695
0.00014583
0.0022006
0.00014845
0.001641
0.00015444
0.00089773
0.00065687
0.00016617
2.0058e-05
0.0049603
4.6007e-09
4.0144e-05
0.0048707
5.9664e-05
0.0047009
7.822e-05
0.0044515
9.5443e-05
0.0041266
0.00011104
0.003731
0.00012469
0.0032722
0.00013598
0.0027582
0.00014582
0.0021908
0.00014881
0.001638
0.00015357
0.00089297
0.00064514
0.00016531
2.0059e-05
0.0049402
4.9695e-09
4.0145e-05
0.0048506
5.9666e-05
0.0046814
7.8222e-05
0.0044329
9.5445e-05
0.0041093
0.00011104
0.0037154
0.00012469
0.0032586
0.00013596
0.0027469
0.00014579
0.0021809
0.00014919
0.0016346
0.00015291
0.00088925
0.00063376
0.00016429
2.0059e-05
0.0049202
5.3386e-09
4.0147e-05
0.0048305
5.9668e-05
0.0046618
7.8225e-05
0.0044144
9.5448e-05
0.0040921
0.00011104
0.0036998
0.0001247
0.0032449
0.00013594
0.0027357
0.00014574
0.0021711
0.00014957
0.0016308
0.00015244
0.00088637
0.00062294
0.00016327
2.006e-05
0.0049001
5.7079e-09
4.0148e-05
0.0048104
5.9671e-05
0.0046423
7.8227e-05
0.0043958
9.5451e-05
0.0040749
0.00011104
0.0036842
0.0001247
0.0032313
0.00013592
0.0027245
0.00014569
0.0021614
0.00014992
0.0016266
0.00015214
0.00088415
0.00061274
0.00016234
2.006e-05
0.00488
6.0774e-09
4.0149e-05
0.0047903
5.9673e-05
0.0046228
7.823e-05
0.0043772
9.5454e-05
0.0040577
0.00011104
0.0036686
0.0001247
0.0032176
0.0001359
0.0027133
0.00014563
0.0021516
0.00015023
0.001622
0.00015198
0.00088241
0.00060316
0.00016155
2.0061e-05
0.00486
6.4472e-09
4.0151e-05
0.0047702
5.9675e-05
0.0046033
7.8232e-05
0.0043587
9.5457e-05
0.0040404
0.00011104
0.003653
0.00012471
0.0032039
0.00013589
0.0027021
0.00014556
0.002142
0.00015051
0.001617
0.00015192
0.000881
0.00059417
0.00016091
2.0061e-05
0.0048399
6.8173e-09
4.0152e-05
0.0047501
5.9678e-05
0.0045837
7.8235e-05
0.0043401
9.546e-05
0.0040232
0.00011104
0.0036375
0.00012471
0.0031903
0.00013588
0.0026909
0.0001455
0.0021323
0.00015074
0.0016118
0.00015195
0.00087979
0.00058569
0.00016043
2.0062e-05
0.0048198
7.1877e-09
4.0154e-05
0.00473
5.968e-05
0.0045642
7.8237e-05
0.0043216
9.5463e-05
0.004006
0.00011104
0.0036219
0.00012472
0.0031766
0.00013588
0.0026798
0.00014543
0.0021228
0.00015094
0.0016063
0.00015204
0.00087869
0.00057764
0.00016008
2.0063e-05
0.0047998
7.5584e-09
4.0155e-05
0.0047099
5.9682e-05
0.0045447
7.824e-05
0.004303
9.5467e-05
0.0039888
0.00011104
0.0036063
0.00012472
0.0031629
0.00013587
0.0026686
0.00014538
0.0021133
0.00015109
0.0016005
0.00015216
0.00087762
0.00056995
0.00015985
2.0063e-05
0.0047797
7.9294e-09
4.0156e-05
0.0046899
5.9684e-05
0.0045252
7.8242e-05
0.0042845
9.547e-05
0.0039715
0.00011104
0.0035907
0.00012473
0.0031492
0.00013587
0.0026575
0.00014532
0.0021038
0.00015122
0.0015946
0.00015231
0.00087654
0.00056256
0.0001597
2.0064e-05
0.0047596
8.3007e-09
4.0158e-05
0.0046698
5.9687e-05
0.0045056
7.8245e-05
0.0042659
9.5474e-05
0.0039543
0.00011104
0.0035752
0.00012473
0.0031355
0.00013587
0.0026463
0.00014528
0.0020944
0.00015133
0.0015886
0.00015247
0.0008754
0.00055542
0.00015961
2.0064e-05
0.0047396
8.6724e-09
4.0159e-05
0.0046497
5.9689e-05
0.0044861
7.8247e-05
0.0042473
9.5477e-05
0.0039371
0.00011104
0.0035596
0.00012474
0.0031218
0.00013587
0.0026352
0.00014524
0.0020851
0.00015141
0.0015824
0.00015263
0.00087419
0.00054847
0.00015958
2.0065e-05
0.0047195
9.0446e-09
4.016e-05
0.0046296
5.9691e-05
0.0044666
7.825e-05
0.0042288
9.5481e-05
0.0039198
0.00011104
0.003544
0.00012474
0.0031081
0.00013588
0.0026241
0.00014521
0.0020757
0.00015149
0.0015761
0.00015279
0.00087288
0.0005417
0.00015957
2.0065e-05
0.0046994
9.4171e-09
4.0162e-05
0.0046095
5.9694e-05
0.004447
7.8252e-05
0.0042102
9.5484e-05
0.0039026
0.00011105
0.0035285
0.00012475
0.0030944
0.00013588
0.0026129
0.00014519
0.0020664
0.00015155
0.0015698
0.00015295
0.00087148
0.00053507
0.00015958
2.0066e-05
0.0046793
9.7901e-09
4.0163e-05
0.0045894
5.9696e-05
0.0044275
7.8255e-05
0.0041917
9.5488e-05
0.0038854
0.00011105
0.0035129
0.00012475
0.0030807
0.00013589
0.0026018
0.00014517
0.0020571
0.00015161
0.0015634
0.0001531
0.00086998
0.00052856
0.00015961
2.0067e-05
0.0046593
1.0164e-08
4.0164e-05
0.0045693
5.9699e-05
0.004408
7.8257e-05
0.0041731
9.5492e-05
0.0038681
0.00011105
0.0034974
0.00012476
0.003067
0.0001359
0.0025907
0.00014516
0.0020479
0.00015166
0.0015569
0.00015325
0.00086839
0.00052218
0.00015964
2.0067e-05
0.0046392
1.0538e-08
4.0166e-05
0.0045492
5.9701e-05
0.0043884
7.8259e-05
0.0041545
9.5496e-05
0.0038509
0.00011105
0.0034818
0.00012477
0.0030533
0.00013592
0.0025795
0.00014516
0.0020386
0.00015171
0.0015503
0.00015339
0.00086671
0.0005159
0.00015967
2.0068e-05
0.0046191
1.0912e-08
4.0167e-05
0.0045291
5.9703e-05
0.0043689
7.8262e-05
0.004136
9.55e-05
0.0038337
0.00011105
0.0034663
0.00012477
0.0030396
0.00013593
0.0025683
0.00014516
0.0020294
0.00015176
0.0015437
0.00015352
0.00086494
0.00050972
0.0001597
2.0068e-05
0.004599
1.1287e-08
4.0168e-05
0.004509
5.9706e-05
0.0043494
7.8264e-05
0.0041174
9.5505e-05
0.0038164
0.00011105
0.0034507
0.00012478
0.0030258
0.00013595
0.0025572
0.00014517
0.0020202
0.0001518
0.0015371
0.00015365
0.00086309
0.00050364
0.00015973
2.0069e-05
0.0045789
1.1663e-08
4.017e-05
0.0044889
5.9708e-05
0.0043298
7.8267e-05
0.0040989
9.5509e-05
0.0037992
0.00011105
0.0034352
0.00012478
0.0030121
0.00013597
0.002546
0.00014517
0.002011
0.00015185
0.0015304
0.00015378
0.00086116
0.00049766
0.00015976
2.0069e-05
0.0045589
1.2039e-08
4.0171e-05
0.0044688
5.9711e-05
0.0043103
7.8269e-05
0.0040803
9.5513e-05
0.0037819
0.00011105
0.0034196
0.00012479
0.0029984
0.00013599
0.0025348
0.00014518
0.0020018
0.00015189
0.0015237
0.0001539
0.00085915
0.00049177
0.00015979
2.007e-05
0.0045388
1.2416e-08
4.0173e-05
0.0044487
5.9713e-05
0.0042907
7.8272e-05
0.0040618
9.5517e-05
0.0037647
0.00011105
0.0034041
0.0001248
0.0029846
0.00013602
0.0025236
0.0001452
0.0019926
0.00015193
0.001517
0.00015402
0.00085707
0.00048598
0.00015981
2.0071e-05
0.0045187
1.2794e-08
4.0174e-05
0.0044286
5.9715e-05
0.0042712
7.8274e-05
0.0040432
9.5522e-05
0.0037474
0.00011106
0.0033886
0.0001248
0.0029709
0.00013604
0.0025123
0.00014521
0.0019834
0.00015198
0.0015102
0.00015413
0.00085492
0.00048027
0.00015983
2.0071e-05
0.0044986
1.3173e-08
4.0175e-05
0.0044085
5.9718e-05
0.0042517
7.8277e-05
0.0040246
9.5526e-05
0.0037302
0.00011106
0.003373
0.00012481
0.0029571
0.00013607
0.0025011
0.00014523
0.0019743
0.00015202
0.0015034
0.00015424
0.0008527
0.00047465
0.00015986
2.0072e-05
0.0044785
1.3552e-08
4.0177e-05
0.0043884
5.972e-05
0.0042321
7.8279e-05
0.0040061
9.553e-05
0.0037129
0.00011106
0.0033575
0.00012482
0.0029434
0.00013609
0.0024898
0.00014524
0.0019651
0.00015206
0.0014966
0.00015434
0.00085041
0.00046912
0.00015987
2.0072e-05
0.0044584
1.3932e-08
4.0178e-05
0.0043683
5.9723e-05
0.0042126
7.8282e-05
0.0039875
9.5535e-05
0.0036957
0.00011107
0.003342
0.00012483
0.0029296
0.00013612
0.0024785
0.00014526
0.001956
0.0001521
0.0014897
0.00015445
0.00084806
0.00046368
0.00015989
2.0073e-05
0.0044383
1.4314e-08
4.0179e-05
0.0043482
5.9725e-05
0.004193
7.8285e-05
0.003969
9.5539e-05
0.0036784
0.00011107
0.0033264
0.00012485
0.0029158
0.00013615
0.0024672
0.00014527
0.0019469
0.00015214
0.0014829
0.00015455
0.00084565
0.00045833
0.00015991
2.0074e-05
0.0044183
1.4696e-08
4.0181e-05
0.004328
5.9728e-05
0.0041735
7.8288e-05
0.0039504
9.5544e-05
0.0036612
0.00011108
0.0033109
0.00012486
0.002902
0.00013617
0.0024559
0.00014529
0.0019377
0.00015218
0.001476
0.00015465
0.00084319
0.00045306
0.00015992
2.0074e-05
0.0043982
1.5079e-08
4.0182e-05
0.0043079
5.973e-05
0.0041539
7.8291e-05
0.0039318
9.5549e-05
0.0036439
0.00011109
0.0032954
0.00012487
0.0028883
0.0001362
0.0024446
0.00014531
0.0019286
0.00015222
0.0014691
0.00015474
0.00084066
0.00044787
0.00015993
2.0075e-05
0.0043781
1.5464e-08
4.0184e-05
0.0042878
5.9733e-05
0.0041344
7.8294e-05
0.0039133
9.5554e-05
0.0036267
0.0001111
0.0032798
0.00012489
0.0028745
0.00013622
0.0024332
0.00014532
0.0019195
0.00015225
0.0014621
0.00015484
0.00083808
0.00044276
0.00015994
2.0075e-05
0.004358
1.585e-08
4.0185e-05
0.0042677
5.9736e-05
0.0041148
7.8297e-05
0.0038947
9.556e-05
0.0036094
0.00011111
0.0032643
0.0001249
0.0028607
0.00013625
0.0024219
0.00014534
0.0019104
0.00015229
0.0014552
0.00015493
0.00083544
0.00043774
0.00015995
2.0076e-05
0.0043379
1.6237e-08
4.0187e-05
0.0042476
5.9738e-05
0.0040953
7.83e-05
0.0038762
9.5567e-05
0.0035921
0.00011112
0.0032487
0.00012492
0.0028469
0.00013627
0.0024105
0.00014535
0.0019014
0.00015233
0.0014482
0.00015502
0.00083275
0.00043279
0.00015996
2.0077e-05
0.0043178
1.6625e-08
4.0188e-05
0.0042275
5.9741e-05
0.0040757
7.8304e-05
0.0038576
9.5574e-05
0.0035749
0.00011114
0.0032331
0.00012494
0.0028331
0.0001363
0.0023992
0.00014537
0.0018923
0.00015236
0.0014412
0.0001551
0.00083
0.00042792
0.00015997
2.0077e-05
0.0042977
1.7014e-08
4.019e-05
0.0042074
5.9744e-05
0.0040562
7.8308e-05
0.003839
9.5582e-05
0.0035576
0.00011115
0.0032176
0.00012495
0.0028193
0.00013632
0.0023878
0.00014538
0.0018832
0.0001524
0.0014342
0.00015519
0.00082721
0.00042313
0.00015998
2.0078e-05
0.0042776
1.7405e-08
4.0191e-05
0.0041873
5.9747e-05
0.0040366
7.8312e-05
0.0038205
9.5591e-05
0.0035403
0.00011117
0.003202
0.00012497
0.0028055
0.00013634
0.0023764
0.0001454
0.0018742
0.00015243
0.0014272
0.00015527
0.00082437
0.00041841
0.00015999
2.0078e-05
0.0042575
1.7798e-08
4.0193e-05
0.0041672
5.975e-05
0.0040171
7.8317e-05
0.0038019
9.56e-05
0.003523
0.00011118
0.0031864
0.00012499
0.0027917
0.00013636
0.0023651
0.00014541
0.0018651
0.00015246
0.0014201
0.00015535
0.00082148
0.00041377
0.00016
2.0079e-05
0.0042374
1.8192e-08
4.0195e-05
0.004147
5.9753e-05
0.0039975
7.8323e-05
0.0037833
9.5611e-05
0.0035057
0.0001112
0.0031708
0.000125
0.0027779
0.00013638
0.0023537
0.00014543
0.0018561
0.0001525
0.0014131
0.00015543
0.00081854
0.0004092
0.00016
2.008e-05
0.0042173
1.8587e-08
4.0196e-05
0.0041269
5.9756e-05
0.0039779
7.8329e-05
0.0037648
9.5622e-05
0.0034884
0.00011122
0.0031552
0.00012501
0.0027641
0.0001364
0.0023423
0.00014544
0.001847
0.00015253
0.001406
0.00015551
0.00081555
0.0004047
0.00016001
2.008e-05
0.0041972
1.8984e-08
4.0198e-05
0.0041068
5.976e-05
0.0039584
7.8336e-05
0.0037462
9.5634e-05
0.0034711
0.00011123
0.0031396
0.00012503
0.0027503
0.00013642
0.0023309
0.00014546
0.001838
0.00015256
0.0013989
0.00015559
0.00081253
0.00040028
0.00016002
2.0081e-05
0.0041771
1.9382e-08
4.02e-05
0.0040867
5.9764e-05
0.0039388
7.8344e-05
0.0037276
9.5647e-05
0.0034538
0.00011125
0.003124
0.00012504
0.0027365
0.00013644
0.0023195
0.00014547
0.001829
0.00015259
0.0013917
0.00015566
0.00080946
0.00039592
0.00016002
2.0082e-05
0.004157
1.9781e-08
4.0203e-05
0.0040666
5.9769e-05
0.0039192
7.8352e-05
0.003709
9.566e-05
0.0034365
0.00011126
0.0031084
0.00012505
0.0027227
0.00013646
0.0023081
0.00014549
0.00182
0.00015262
0.0013846
0.00015574
0.00080634
0.00039162
0.00016003
2.0083e-05
0.0041369
2.0182e-08
4.0205e-05
0.0040464
5.9774e-05
0.0038997
7.8361e-05
0.0036904
9.5673e-05
0.0034192
0.00011128
0.0030928
0.00012506
0.0027089
0.00013648
0.0022967
0.0001455
0.0018109
0.00015266
0.0013775
0.00015581
0.00080319
0.0003874
0.00016004
2.0084e-05
0.0041168
2.0584e-08
4.0208e-05
0.0040263
5.9779e-05
0.0038801
7.8371e-05
0.0036718
9.5686e-05
0.0034019
0.00011129
0.0030772
0.00012507
0.0026951
0.00013649
0.0022853
0.00014552
0.0018019
0.00015269
0.0013703
0.00015588
0.0008
0.00038323
0.00016004
2.0085e-05
0.0040967
2.0987e-08
4.0211e-05
0.0040062
5.9785e-05
0.0038605
7.8381e-05
0.0036532
9.57e-05
0.0033846
0.00011131
0.0030616
0.00012508
0.0026813
0.00013651
0.0022738
0.00014554
0.0017929
0.00015272
0.0013631
0.00015595
0.00079677
0.00037913
0.00016005
2.0086e-05
0.0040766
2.139e-08
4.0214e-05
0.0039861
5.9792e-05
0.003841
7.8391e-05
0.0036346
9.5712e-05
0.0033673
0.00011132
0.003046
0.00012509
0.0026676
0.00013653
0.0022624
0.00014555
0.0017839
0.00015275
0.0013559
0.00015602
0.0007935
0.0003751
0.00016005
2.0088e-05
0.0040565
2.1793e-08
4.0218e-05
0.0039659
5.9799e-05
0.0038214
7.8402e-05
0.003616
9.5725e-05
0.0033499
0.00011133
0.0030304
0.0001251
0.0026538
0.00013654
0.002251
0.00014557
0.0017748
0.00015278
0.0013487
0.00015608
0.00079019
0.00037112
0.00016006
2.0089e-05
0.0040364
2.2196e-08
4.0222e-05
0.0039458
5.9806e-05
0.0038018
7.8413e-05
0.0035974
9.5737e-05
0.0033326
0.00011134
0.0030148
0.00012511
0.00264
0.00013656
0.0022395
0.00014559
0.0017658
0.0001528
0.0013415
0.00015615
0.00078685
0.0003672
0.00016007
2.0091e-05
0.0040163
2.2597e-08
4.0226e-05
0.0039257
5.9814e-05
0.0037822
7.8424e-05
0.0035788
9.5748e-05
0.0033153
0.00011135
0.0029992
0.00012512
0.0026263
0.00013658
0.002228
0.0001456
0.0017568
0.00015283
0.0013343
0.00015621
0.00078347
0.00036334
0.00016007
2.0093e-05
0.0039962
2.2996e-08
4.0231e-05
0.0039055
5.9822e-05
0.0037626
7.8434e-05
0.0035602
9.5759e-05
0.003298
0.00011136
0.0029836
0.00012512
0.0026125
0.00013659
0.0022166
0.00014562
0.0017477
0.00015286
0.001327
0.00015627
0.00078006
0.00035953
0.00016008
2.0095e-05
0.003976
2.3391e-08
4.0236e-05
0.0038854
5.983e-05
0.003743
7.8444e-05
0.0035416
9.5769e-05
0.0032806
0.00011137
0.002968
0.00012513
0.0025988
0.00013661
0.0022051
0.00014564
0.0017387
0.00015289
0.0013198
0.00015633
0.00077662
0.00035578
0.00016008
2.0097e-05
0.0039559
2.378e-08
4.0241e-05
0.0038652
5.9838e-05
0.0037234
7.8454e-05
0.003523
9.5778e-05
0.0032633
0.00011138
0.0029524
0.00012514
0.002585
0.00013663
0.0021936
0.00014566
0.0017297
0.00015292
0.0013125
0.00015639
0.00077314
0.00035209
0.00016009
2.0099e-05
0.0039358
2.4163e-08
4.0246e-05
0.0038451
5.9846e-05
0.0037038
7.8463e-05
0.0035044
9.5786e-05
0.003246
0.00011139
0.0029368
0.00012515
0.0025712
0.00013664
0.0021821
0.00014568
0.0017207
0.00015295
0.0013052
0.00015645
0.00076964
0.00034845
0.0001601
2.0102e-05
0.0039157
2.4537e-08
4.0251e-05
0.0038249
5.9853e-05
0.0036842
7.8472e-05
0.0034857
9.5794e-05
0.0032287
0.0001114
0.0029212
0.00012515
0.0025575
0.00013666
0.0021706
0.00014569
0.0017116
0.00015297
0.001298
0.00015651
0.0007661
0.00034485
0.0001601
2.0104e-05
0.0038955
2.4901e-08
4.0257e-05
0.0038048
5.9861e-05
0.0036646
7.848e-05
0.0034671
9.5801e-05
0.0032114
0.00011141
0.0029056
0.00012516
0.0025437
0.00013668
0.0021591
0.00014571
0.0017026
0.000153
0.0012907
0.00015657
0.00076253
0.00034131
0.00016011
2.0106e-05
0.0038754
2.5254e-08
4.0262e-05
0.0037846
5.9868e-05
0.003645
7.8488e-05
0.0034485
9.5808e-05
0.003194
0.00011141
0.0028899
0.00012517
0.00253
0.00013669
0.0021476
0.00014573
0.0016935
0.00015303
0.0012834
0.00015662
0.00075894
0.00033782
0.00016012
2.0109e-05
0.0038553
2.5594e-08
4.0267e-05
0.0037645
5.9874e-05
0.0036254
7.8495e-05
0.0034299
9.5814e-05
0.0031767
0.00011142
0.0028743
0.00012518
0.0025162
0.00013671
0.002136
0.00014575
0.0016845
0.00015305
0.0012761
0.00015668
0.00075531
0.00033438
0.00016012
2.0111e-05
0.0038351
2.592e-08
4.0271e-05
0.0037443
5.9881e-05
0.0036058
7.8501e-05
0.0034113
9.582e-05
0.0031594
0.00011143
0.0028587
0.00012518
0.0025025
0.00013673
0.0021245
0.00014577
0.0016754
0.00015308
0.0012688
0.00015673
0.00075166
0.00033098
0.00016013
2.0113e-05
0.003815
2.6232e-08
4.0276e-05
0.0037242
5.9886e-05
0.0035862
7.8507e-05
0.0033926
9.5825e-05
0.0031421
0.00011144
0.0028431
0.00012519
0.0024887
0.00013674
0.0021129
0.00014579
0.0016664
0.00015311
0.0012615
0.00015679
0.00074798
0.00032762
0.00016014
2.0116e-05
0.0037948
2.6529e-08
4.028e-05
0.003704
5.9891e-05
0.0035666
7.8512e-05
0.003374
9.583e-05
0.0031248
0.00011144
0.0028275
0.0001252
0.002475
0.00013676
0.0021014
0.00014581
0.0016573
0.00015313
0.0012541
0.00015684
0.00074428
0.00032432
0.00016015
2.0118e-05
0.0037747
2.6811e-08
4.0284e-05
0.0036838
5.9896e-05
0.003547
7.8517e-05
0.0033554
9.5835e-05
0.0031074
0.00011145
0.0028119
0.00012521
0.0024612
0.00013678
0.0020898
0.00014583
0.0016483
0.00015316
0.0012468
0.00015689
0.00074055
0.00032105
0.00016015
2.012e-05
0.0037546
2.7079e-08
4.0287e-05
0.0036637
5.99e-05
0.0035273
7.8522e-05
0.0033368
9.584e-05
0.0030901
0.00011146
0.0027963
0.00012521
0.0024475
0.00013679
0.0020782
0.00014585
0.0016392
0.00015318
0.0012395
0.00015694
0.00073679
0.00031783
0.00016016
2.0121e-05
0.0037344
2.7332e-08
4.029e-05
0.0036435
5.9904e-05
0.0035077
7.8526e-05
0.0033182
9.5845e-05
0.0030728
0.00011147
0.0027806
0.00012522
0.0024337
0.00013681
0.0020666
0.00014587
0.0016302
0.00015321
0.0012321
0.00015699
0.00073301
0.00031464
0.00016017
2.0123e-05
0.0037143
2.7573e-08
4.0293e-05
0.0036233
5.9908e-05
0.0034881
7.8531e-05
0.0032995
9.585e-05
0.0030555
0.00011147
0.002765
0.00012523
0.0024199
0.00013683
0.002055
0.0001459
0.0016211
0.00015324
0.0012248
0.00015704
0.00072921
0.0003115
0.00016018
2.0124e-05
0.0036941
2.7802e-08
4.0296e-05
0.0036031
5.9911e-05
0.0034685
7.8535e-05
0.0032809
9.5854e-05
0.0030382
0.00011148
0.0027494
0.00012524
0.0024062
0.00013684
0.0020434
0.00014592
0.001612
0.00015326
0.0012175
0.00015708
0.00072539
0.0003084
0.00016019
2.0126e-05
0.003674
2.8021e-08
4.0299e-05
0.003583
5.9914e-05
0.0034489
7.8538e-05
0.0032623
9.5859e-05
0.0030208
0.00011149
0.0027338
0.00012525
0.0023924
0.00013686
0.0020318
0.00014594
0.001603
0.00015328
0.0012101
0.00015713
0.00072154
0.00030533
0.0001602
2.0127e-05
0.0036538
2.8231e-08
4.0301e-05
0.0035628
5.9917e-05
0.0034293
7.8542e-05
0.0032437
9.5864e-05
0.0030035
0.0001115
0.0027181
0.00012526
0.0023787
0.00013688
0.0020202
0.00014596
0.0015939
0.00015331
0.0012028
0.00015718
0.00071767
0.00030231
0.00016021
2.0128e-05
0.0036336
2.8433e-08
4.0303e-05
0.0035426
5.992e-05
0.0034096
7.8546e-05
0.003225
9.5869e-05
0.0029862
0.00011151
0.0027025
0.00012527
0.0023649
0.0001369
0.0020086
0.00014598
0.0015848
0.00015333
0.0011954
0.00015722
0.00071378
0.00029932
0.00016022
2.0129e-05
0.0036135
2.8628e-08
4.0305e-05
0.0035224
5.9923e-05
0.00339
7.855e-05
0.0032064
9.5873e-05
0.0029689
0.00011151
0.0026869
0.00012527
0.0023511
0.00013691
0.0019969
0.000146
0.0015757
0.00015336
0.0011881
0.00015727
0.00070988
0.00029636
0.00016022
2.013e-05
0.0035933
2.8819e-08
4.0307e-05
0.0035023
5.9926e-05
0.0033704
7.8554e-05
0.0031878
9.5878e-05
0.0029516
0.00011152
0.0026712
0.00012528
0.0023374
0.00013693
0.0019853
0.00014603
0.0015666
0.00015338
0.0011807
0.00015731
0.00070595
0.00029344
0.00016023
2.0131e-05
0.0035732
2.9006e-08
4.0309e-05
0.0034821
5.9928e-05
0.0033508
7.8558e-05
0.0031692
9.5883e-05
0.0029342
0.00011153
0.0026556
0.00012529
0.0023236
0.00013695
0.0019736
0.00014605
0.0015575
0.00015341
0.0011733
0.00015736
0.000702
0.00029055
0.00016024
2.0131e-05
0.003553
2.9191e-08
4.031e-05
0.0034619
5.9931e-05
0.0033312
7.8561e-05
0.0031505
9.5888e-05
0.0029169
0.00011154
0.0026399
0.0001253
0.0023099
0.00013697
0.001962
0.00014607
0.0015484
0.00015343
0.001166
0.0001574
0.00069803
0.00028769
0.00016025
2.0132e-05
0.0035328
2.9374e-08
4.0312e-05
0.0034417
5.9933e-05
0.0033116
7.8565e-05
0.0031319
9.5894e-05
0.0028996
0.00011155
0.0026243
0.00012531
0.0022961
0.00013698
0.0019503
0.00014609
0.0015393
0.00015345
0.0011586
0.00015744
0.00069405
0.00028487
0.00016027
2.0133e-05
0.0035127
2.9556e-08
4.0314e-05
0.0034216
5.9936e-05
0.0032919
7.8569e-05
0.0031133
9.5899e-05
0.0028822
0.00011156
0.0026086
0.00012532
0.0022823
0.000137
0.0019386
0.00014612
0.0015302
0.00015348
0.0011512
0.00015748
0.00069004
0.00028207
0.00016028
2.0134e-05
0.0034925
2.9739e-08
4.0315e-05
0.0034014
5.9938e-05
0.0032723
7.8573e-05
0.0030946
9.5904e-05
0.0028649
0.00011157
0.0025929
0.00012533
0.0022686
0.00013702
0.0019269
0.00014614
0.0015211
0.0001535
0.0011439
0.00015752
0.00068602
0.00027931
0.00016029
2.0134e-05
0.0034724
2.9921e-08
4.0317e-05
0.0033812
5.9941e-05
0.0032527
7.8578e-05
0.003076
9.591e-05
0.0028476
0.00011157
0.0025773
0.00012534
0.0022548
0.00013704
0.0019152
0.00014616
0.0015119
0.00015353
0.0011365
0.00015756
0.00068198
0.00027657
0.0001603
2.0135e-05
0.0034522
3.0105e-08
4.0318e-05
0.003361
5.9944e-05
0.0032331
7.8582e-05
0.0030573
9.5915e-05
0.0028302
0.00011158
0.0025616
0.00012535
0.002241
0.00013706
0.0019035
0.00014619
0.0015028
0.00015355
0.0011292
0.0001576
0.00067793
0.00027387
0.00016031
2.0136e-05
0.003432
3.0291e-08
4.032e-05
0.0033408
5.9946e-05
0.0032134
7.8586e-05
0.0030387
9.5921e-05
0.0028129
0.00011159
0.0025459
0.00012536
0.0022273
0.00013707
0.0018918
0.00014621
0.0014937
0.00015357
0.0011218
0.00015764
0.00067386
0.00027119
0.00016032
2.0136e-05
0.0034119
3.0479e-08
4.0322e-05
0.0033206
5.9949e-05
0.0031938
7.859e-05
0.0030201
9.5927e-05
0.0027956
0.0001116
0.0025303
0.00012538
0.0022135
0.00013709
0.0018801
0.00014623
0.0014845
0.0001536
0.0011144
0.00015768
0.00066978
0.00026853
0.00016033
2.0137e-05
0.0033917
3.0668e-08
4.0323e-05
0.0033005
5.9952e-05
0.0031742
7.8595e-05
0.0030014
9.5933e-05
0.0027782
0.00011161
0.0025146
0.00012539
0.0021997
0.00013711
0.0018684
0.00014626
0.0014754
0.00015362
0.0011071
0.00015772
0.00066568
0.00026591
0.00016035
2.0138e-05
0.0033715
3.086e-08
4.0325e-05
0.0032803
5.9955e-05
0.0031545
7.8599e-05
0.0029828
9.5938e-05
0.0027609
0.00011162
0.0024989
0.0001254
0.0021859
0.00013713
0.0018566
0.00014628
0.0014662
0.00015364
0.0010997
0.00015776
0.00066157
0.00026331
0.00016036
2.0139e-05
0.0033513
3.1055e-08
4.0327e-05
0.0032601
5.9958e-05
0.0031349
7.8604e-05
0.0029641
9.5945e-05
0.0027436
0.00011163
0.0024832
0.00012541
0.0021722
0.00013715
0.0018449
0.0001463
0.0014571
0.00015367
0.0010923
0.00015779
0.00065744
0.00026073
0.00016037
2.0139e-05
0.0033312
3.1252e-08
4.0329e-05
0.0032399
5.996e-05
0.0031153
7.8609e-05
0.0029455
9.5951e-05
0.0027262
0.00011164
0.0024675
0.00012542
0.0021584
0.00013717
0.0018332
0.00014633
0.0014479
0.00015369
0.001085
0.00015783
0.0006533
0.00025818
0.00016038
2.014e-05
0.003311
3.1452e-08
4.0331e-05
0.0032197
5.9964e-05
0.0030957
7.8613e-05
0.0029268
9.5957e-05
0.0027089
0.00011165
0.0024518
0.00012543
0.0021446
0.00013718
0.0018214
0.00014635
0.0014388
0.00015371
0.0010776
0.00015787
0.00064914
0.00025565
0.0001604
2.0141e-05
0.0032908
3.1655e-08
4.0333e-05
0.0031995
5.9967e-05
0.003076
7.8618e-05
0.0029082
9.5964e-05
0.0026915
0.00011166
0.0024361
0.00012544
0.0021308
0.0001372
0.0018096
0.00014638
0.0014296
0.00015374
0.0010703
0.0001579
0.00064497
0.00025314
0.00016041
2.0142e-05
0.0032707
3.1862e-08
4.0334e-05
0.0031793
5.997e-05
0.0030564
7.8623e-05
0.0028895
9.597e-05
0.0026742
0.00011167
0.0024204
0.00012546
0.002117
0.00013722
0.0017979
0.0001464
0.0014204
0.00015376
0.0010629
0.00015794
0.00064079
0.00025066
0.00016042
2.0143e-05
0.0032505
3.2071e-08
4.0336e-05
0.0031591
5.9973e-05
0.0030367
7.8628e-05
0.0028709
9.5977e-05
0.0026568
0.00011168
0.0024047
0.00012547
0.0021032
0.00013724
0.0017861
0.00014643
0.0014112
0.00015378
0.0010555
0.00015797
0.0006366
0.0002482
0.00016044
2.0143e-05
0.0032303
3.2284e-08
4.0338e-05
0.0031389
5.9976e-05
0.0030171
7.8633e-05
0.0028522
9.5984e-05
0.0026395
0.00011169
0.002389
0.00012548
0.0020894
0.00013726
0.0017743
0.00014645
0.001402
0.00015381
0.0010482
0.00015801
0.0006324
0.00024575
0.00016045
2.0144e-05
0.0032101
3.2499e-08
4.034e-05
0.0031187
5.9979e-05
0.0029975
7.8639e-05
0.0028336
9.599e-05
0.0026221
0.0001117
0.0023733
0.00012549
0.0020757
0.00013728
0.0017625
0.00014648
0.0013928
0.00015383
0.0010408
0.00015804
0.00062818
0.00024333
0.00016047
2.0145e-05
0.00319
3.2719e-08
4.0342e-05
0.0030985
5.9983e-05
0.0029778
7.8644e-05
0.0028149
9.5997e-05
0.0026048
0.00011172
0.0023576
0.00012551
0.0020619
0.0001373
0.0017508
0.0001465
0.0013836
0.00015385
0.0010335
0.00015808
0.00062396
0.00024093
0.00016048
2.0146e-05
0.0031698
3.2941e-08
4.0345e-05
0.0030783
5.9986e-05
0.0029582
7.8649e-05
0.0027962
9.6005e-05
0.0025874
0.00011173
0.0023419
0.00012552
0.0020481
0.00013732
0.001739
0.00014653
0.0013744
0.00015388
0.0010261
0.00015811
0.00061972
0.00023855
0.00016049
2.0147e-05
0.0031496
3.3168e-08
4.0347e-05
0.0030581
5.999e-05
0.0029385
7.8655e-05
0.0027776
9.6012e-05
0.0025701
0.00011174
0.0023261
0.00012553
0.0020343
0.00013734
0.0017272
0.00014655
0.0013652
0.0001539
0.0010188
0.00015815
0.00061547
0.00023618
0.00016051
2.0148e-05
0.0031294
3.3398e-08
4.0349e-05
0.0030379
5.9993e-05
0.0029189
7.8661e-05
0.0027589
9.6019e-05
0.0025527
0.00011175
0.0023104
0.00012555
0.0020205
0.00013735
0.0017154
0.00014658
0.001356
0.00015392
0.0010114
0.00015818
0.00061122
0.00023384
0.00016053
2.0149e-05
0.0031092
3.3631e-08
4.0351e-05
0.0030177
5.9997e-05
0.0028993
7.8666e-05
0.0027402
9.6027e-05
0.0025353
0.00011176
0.0022947
0.00012556
0.0020067
0.00013737
0.0017035
0.0001466
0.0013467
0.00015394
0.0010041
0.00015821
0.00060695
0.00023151
0.00016054
2.015e-05
0.003089
3.3868e-08
4.0353e-05
0.0029975
6.0001e-05
0.0028796
7.8672e-05
0.0027216
9.6034e-05
0.002518
0.00011177
0.0022789
0.00012558
0.0019929
0.00013739
0.0016917
0.00014663
0.0013375
0.00015397
0.00099676
0.00015824
0.00060267
0.00022919
0.00016056
2.0151e-05
0.0030689
3.411e-08
4.0356e-05
0.0029773
6.0005e-05
0.00286
7.8678e-05
0.0027029
9.6042e-05
0.0025006
0.00011178
0.0022632
0.00012559
0.0019791
0.00013741
0.0016799
0.00014665
0.0013283
0.00015399
0.00098943
0.00015828
0.00059839
0.0002269
0.00016057
2.0152e-05
0.0030487
3.4355e-08
4.0358e-05
0.0029571
6.0008e-05
0.0028403
7.8684e-05
0.0026842
9.605e-05
0.0024833
0.0001118
0.0022474
0.0001256
0.0019653
0.00013743
0.0016681
0.00014668
0.001319
0.00015402
0.00098209
0.00015831
0.00059409
0.00022462
0.00016059
2.0153e-05
0.0030285
3.4604e-08
4.0361e-05
0.0029369
6.0012e-05
0.0028207
7.869e-05
0.0026655
9.6058e-05
0.0024659
0.00011181
0.0022317
0.00012562
0.0019514
0.00013745
0.0016562
0.00014671
0.0013098
0.00015404
0.00097476
0.00015834
0.00058979
0.00022236
0.00016061
2.0154e-05
0.0030083
3.4857e-08
4.0363e-05
0.0029167
6.0016e-05
0.002801
7.8697e-05
0.0026468
9.6066e-05
0.0024485
0.00011182
0.0022159
0.00012563
0.0019376
0.00013747
0.0016444
0.00014673
0.0013005
0.00015406
0.00096743
0.00015837
0.00058548
0.00022011
0.00016062
2.0155e-05
0.0029881
3.5114e-08
4.0366e-05
0.0028965
6.002e-05
0.0027813
7.8703e-05
0.0026282
9.6075e-05
0.0024311
0.00011183
0.0022002
0.00012565
0.0019238
0.00013749
0.0016326
0.00014676
0.0012912
0.00015409
0.0009601
0.00015841
0.00058116
0.00021787
0.00016064
2.0156e-05
0.0029679
3.5376e-08
4.0368e-05
0.0028763
6.0025e-05
0.0027617
7.8709e-05
0.0026095
9.6083e-05
0.0024138
0.00011184
0.0021844
0.00012566
0.00191
0.00013751
0.0016207
0.00014679