/*--------------------------------*- C++ -*----------------------------------*\
  =========                 |
  \\      /  F ield         | OpenFOAM: The Open Source CFD Toolbox
   \\    /   O peration     | Website:  https://openfoam.org
    \\  /    A nd           | Version:  6.0
     \\/     M anipulation  |
\*---------------------------------------------------------------------------*/
FoamFile
{
    version     2.0;
    format      ascii;
    class       surfaceScalarField;
    location    "1";
    object      phi;
}
// * * * * * * * * * * * * * * * * * * * * * * * * * * * * * * * * * * * * * //

dimensions      [0 3 -1 0 0 0 0];

internalField   nonuniform List<scalar> 
38687
(
2.0052e-05
0.005201
1.252e-10
4.0126e-05
0.0051116
5.9639e-05
0.0049351
7.8188e-05
0.0046741
9.5416e-05
0.0043332
0.00011102
0.0039182
0.00012472
0.0034362
0.00013626
0.0028953
0.00014545
0.002305
0.00015184
0.0016755
0.00015714
0.0010155
0.00046524
3.4107e-05
2.0052e-05
0.0051809
3.4031e-10
4.0129e-05
0.0050916
5.9642e-05
0.0049156
7.8193e-05
0.0046556
9.5419e-05
0.004316
0.00011103
0.0039026
0.00012471
0.0034225
0.00013625
0.0028838
0.00014542
0.0022958
0.00015117
0.0016697
0.00015885
0.0010078
0.00055978
6.4307e-05
2.0054e-05
0.0051609
5.4066e-10
4.0132e-05
0.0050715
5.9645e-05
0.004896
7.8197e-05
0.004637
9.5423e-05
0.0042988
0.00011103
0.003887
0.00012471
0.0034088
0.00013623
0.0028723
0.00014541
0.0022866
0.0001505
0.0016646
0.00016014
0.00099814
0.00063075
8.9172e-05
2.0055e-05
0.0051408
7.4656e-10
4.0134e-05
0.0050514
5.9649e-05
0.0048765
7.8202e-05
0.0046185
9.5427e-05
0.0042816
0.00011103
0.0038714
0.00012471
0.0033951
0.00013621
0.0028608
0.00014542
0.0022774
0.00014988
0.0016602
0.00016092
0.0009871
0.00068251
0.00010917
2.0056e-05
0.0051208
9.5327e-10
4.0137e-05
0.0050313
5.9652e-05
0.004857
7.8206e-05
0.0045999
9.5432e-05
0.0042643
0.00011104
0.0038558
0.00012471
0.0033815
0.00013619
0.0028493
0.00014545
0.0022681
0.00014932
0.0016563
0.00016122
0.0009752
0.00071868
0.00012505
2.0057e-05
0.0051007
1.1608e-09
4.0139e-05
0.0050112
5.9656e-05
0.0048375
7.821e-05
0.0045813
9.5436e-05
0.0042471
0.00011104
0.0038402
0.00012471
0.0033678
0.00013617
0.0028378
0.00014549
0.0022588
0.00014885
0.0016529
0.0001611
0.00096296
0.0007423
0.00013747
2.0058e-05
0.0050807
1.369e-09
4.0141e-05
0.0049912
5.9659e-05
0.004818
7.8215e-05
0.0045628
9.5441e-05
0.0042299
0.00011104
0.0038246
0.00012471
0.0033541
0.00013615
0.0028264
0.00014553
0.0022494
0.00014848
0.00165
0.00016065
0.00095079
0.00075596
0.00014699
2.0059e-05
0.0050606
1.5781e-09
4.0144e-05
0.0049711
5.9663e-05
0.0047985
7.8219e-05
0.0045442
9.5446e-05
0.0042126
0.00011105
0.003809
0.00012471
0.0033405
0.00013612
0.002815
0.00014558
0.00224
0.00014821
0.0016474
0.00015996
0.00093903
0.00076182
0.0001541
2.006e-05
0.0050405
1.7879e-09
4.0146e-05
0.004951
5.9667e-05
0.0047789
7.8223e-05
0.0045257
9.545e-05
0.0041954
0.00011105
0.0037934
0.00012471
0.0033268
0.0001361
0.0028036
0.00014563
0.0022304
0.00014804
0.001645
0.00015913
0.00092795
0.0007617
0.00015924
2.0061e-05
0.0050205
1.9984e-09
4.0149e-05
0.0049309
5.967e-05
0.0047594
7.8228e-05
0.0045071
9.5455e-05
0.0041782
0.00011105
0.0037778
0.00012471
0.0033132
0.00013608
0.0027922
0.00014568
0.0022208
0.00014798
0.0016427
0.00015821
0.00091772
0.00075712
0.00016279
2.0063e-05
0.0050004
2.2098e-09
4.0151e-05
0.0049108
5.9674e-05
0.0047399
7.8232e-05
0.0044886
9.546e-05
0.004161
0.00011106
0.0037622
0.00012471
0.0032995
0.00013605
0.0027809
0.00014572
0.0022112
0.000148
0.0016404
0.00015728
0.00090844
0.0007493
0.0001651
2.0064e-05
0.0049803
2.4219e-09
4.0153e-05
0.0048907
5.9677e-05
0.0047204
7.8237e-05
0.00447
9.5465e-05
0.0041437
0.00011106
0.0037466
0.00012472
0.0032858
0.00013603
0.0027696
0.00014576
0.0022014
0.0001481
0.001638
0.00015637
0.00090016
0.00073922
0.00016645
2.0065e-05
0.0049603
2.6347e-09
4.0156e-05
0.0048706
5.9681e-05
0.0047008
7.8241e-05
0.0044514
9.547e-05
0.0041265
0.00011106
0.003731
0.00012472
0.0032722
0.00013601
0.0027583
0.00014578
0.0021917
0.00014826
0.0016356
0.00015553
0.00089289
0.00072768
0.00016707
2.0066e-05
0.0049402
2.8482e-09
4.0158e-05
0.0048505
5.9685e-05
0.0046813
7.8245e-05
0.0044329
9.5475e-05
0.0041093
0.00011107
0.0037154
0.00012473
0.0032585
0.00013598
0.002747
0.0001458
0.0021818
0.00014847
0.0016329
0.00015477
0.00088658
0.00071527
0.00016718
2.0067e-05
0.0049201
3.0624e-09
4.0161e-05
0.0048304
5.9688e-05
0.0046618
7.825e-05
0.0044143
9.548e-05
0.004092
0.00011107
0.0036998
0.00012474
0.0032449
0.00013597
0.0027358
0.00014581
0.002172
0.00014872
0.00163
0.00015412
0.00088118
0.00070247
0.00016692
2.0068e-05
0.0049001
3.2773e-09
4.0163e-05
0.0048104
5.9692e-05
0.0046423
7.8254e-05
0.0043958
9.5485e-05
0.0040748
0.00011107
0.0036842
0.00012474
0.0032312
0.00013595
0.0027246
0.0001458
0.0021621
0.00014898
0.0016268
0.00015358
0.00087659
0.00068961
0.00016644
2.0069e-05
0.00488
3.4929e-09
4.0165e-05
0.0047903
5.9696e-05
0.0046227
7.8259e-05
0.0043772
9.5491e-05
0.0040576
0.00011108
0.0036686
0.00012475
0.0032175
0.00013593
0.0027134
0.00014579
0.0021523
0.00014927
0.0016233
0.00015314
0.00087272
0.00067693
0.00016582
2.007e-05
0.0048599
3.7091e-09
4.0168e-05
0.0047702
5.97e-05
0.0046032
7.8263e-05
0.0043586
9.5496e-05
0.0040404
0.00011108
0.0036531
0.00012476
0.0032038
0.00013592
0.0027023
0.00014578
0.0021424
0.00014955
0.0016196
0.0001528
0.00086946
0.00066458
0.00016515
2.0072e-05
0.0048398
3.9259e-09
4.017e-05
0.0047501
5.9703e-05
0.0045837
7.8267e-05
0.0043401
9.5502e-05
0.0040231
0.00011108
0.0036375
0.00012477
0.0031901
0.00013591
0.0026911
0.00014575
0.0021326
0.00014982
0.0016155
0.00015256
0.00086672
0.00065267
0.00016447
2.0073e-05
0.0048198
4.1432e-09
4.0172e-05
0.00473
5.9707e-05
0.0045641
7.8272e-05
0.0043215
9.5508e-05
0.0040059
0.00011109
0.0036219
0.00012478
0.0031765
0.0001359
0.00268
0.00014573
0.0021228
0.00015009
0.0016111
0.00015241
0.0008644
0.00064125
0.00016383
2.0074e-05
0.0047997
4.3612e-09
4.0175e-05
0.0047099
5.9711e-05
0.0045446
7.8276e-05
0.0043029
9.5514e-05
0.0039886
0.00011109
0.0036063
0.00012479
0.0031628
0.0001359
0.0026689
0.0001457
0.002113
0.00015034
0.0016065
0.00015233
0.00086241
0.00063034
0.00016324
2.0075e-05
0.0047796
4.5796e-09
4.0177e-05
0.0046898
5.9715e-05
0.0045251
7.8281e-05
0.0042844
9.552e-05
0.0039714
0.0001111
0.0035907
0.0001248
0.0031491
0.0001359
0.0026578
0.00014567
0.0021032
0.00015057
0.0016016
0.0001523
0.00086068
0.00061992
0.00016272
2.0076e-05
0.0047595
4.7986e-09
4.018e-05
0.0046697
5.9719e-05
0.0045055
7.8285e-05
0.0042658
9.5526e-05
0.0039542
0.0001111
0.0035752
0.00012481
0.0031353
0.0001359
0.0026467
0.00014563
0.0020935
0.00015078
0.0015964
0.00015233
0.00085912
0.00060997
0.00016228
2.0077e-05
0.0047394
5.018e-09
4.0182e-05
0.0046495
5.9722e-05
0.004486
7.829e-05
0.0042472
9.5533e-05
0.0039369
0.0001111
0.0035596
0.00012483
0.0031216
0.0001359
0.0026356
0.0001456
0.0020838
0.00015097
0.0015911
0.0001524
0.00085768
0.00060047
0.00016191
2.0079e-05
0.0047194
5.2379e-09
4.0184e-05
0.0046294
5.9726e-05
0.0044664
7.8294e-05
0.0042287
9.5539e-05
0.0039197
0.00011111
0.003544
0.00012484
0.0031079
0.00013591
0.0026246
0.00014558
0.0020741
0.00015114
0.0015855
0.0001525
0.00085632
0.00059136
0.00016161
2.008e-05
0.0046993
5.4582e-09
4.0187e-05
0.0046093
5.973e-05
0.0044469
7.8299e-05
0.0042101
9.5546e-05
0.0039024
0.00011111
0.0035285
0.00012485
0.0030941
0.00013592
0.0026135
0.00014555
0.0020645
0.00015129
0.0015798
0.00015262
0.00085498
0.00058262
0.00016137
2.0081e-05
0.0046792
5.6789e-09
4.0189e-05
0.0045892
5.9734e-05
0.0044273
7.8303e-05
0.0041915
9.5553e-05
0.0038852
0.00011111
0.0035129
0.00012487
0.0030804
0.00013594
0.0026024
0.00014553
0.0020549
0.00015142
0.0015739
0.00015276
0.00085364
0.0005742
0.00016118
2.0082e-05
0.0046591
5.9001e-09
4.0192e-05
0.0045691
5.9738e-05
0.0044078
7.8308e-05
0.004173
9.556e-05
0.0038679
0.00011112
0.0034973
0.00012488
0.0030666
0.00013595
0.0025914
0.00014551
0.0020453
0.00015155
0.0015679
0.00015291
0.00085228
0.00056608
0.00016104
2.0083e-05
0.004639
6.1216e-09
4.0194e-05
0.004549
5.9742e-05
0.0043882
7.8313e-05
0.0041544
9.5568e-05
0.0038507
0.00011112
0.0034818
0.0001249
0.0030529
0.00013597
0.0025803
0.0001455
0.0020358
0.00015165
0.0015617
0.00015306
0.00085087
0.00055821
0.00016093
2.0085e-05
0.0046189
6.3436e-09
4.0197e-05
0.0045289
5.9747e-05
0.0043687
7.8317e-05
0.0041358
9.5575e-05
0.0038334
0.00011113
0.0034662
0.00012491
0.0030391
0.00013599
0.0025692
0.00014549
0.0020263
0.00015175
0.0015554
0.00015322
0.0008494
0.00055057
0.00016085
2.0086e-05
0.0045988
6.5658e-09
4.0199e-05
0.0045088
5.9751e-05
0.0043491
7.8322e-05
0.0041173
9.5583e-05
0.0038162
0.00011113
0.0034507
0.00012493
0.0030253
0.00013602
0.0025581
0.00014548
0.0020168
0.00015184
0.0015491
0.00015337
0.00084786
0.00054315
0.0001608
2.0087e-05
0.0045787
6.7885e-09
4.0202e-05
0.0044887
5.9755e-05
0.0043296
7.8327e-05
0.0040987
9.5591e-05
0.0037989
0.00011114
0.0034351
0.00012494
0.0030115
0.00013604
0.002547
0.00014548
0.0020074
0.00015192
0.0015427
0.00015353
0.00084624
0.00053591
0.00016077
2.0088e-05
0.0045586
7.0115e-09
4.0204e-05
0.0044686
5.9759e-05
0.00431
7.8332e-05
0.0040801
9.56e-05
0.0037816
0.00011115
0.0034196
0.00012496
0.0029977
0.00013607
0.0025359
0.00014548
0.001998
0.00015199
0.0015361
0.00015368
0.00084455
0.00052884
0.00016075
2.009e-05
0.0045385
7.2349e-09
4.0207e-05
0.0044484
5.9764e-05
0.0042905
7.8337e-05
0.0040615
9.5609e-05
0.0037643
0.00011116
0.003404
0.00012497
0.0029839
0.0001361
0.0025248
0.00014548
0.0019886
0.00015206
0.0015296
0.00015382
0.00084279
0.00052193
0.00016073
2.0091e-05
0.0045184
7.4586e-09
4.0209e-05
0.0044283
5.9768e-05
0.0042709
7.8342e-05
0.004043
9.5618e-05
0.0037471
0.00011116
0.0033885
0.00012499
0.00297
0.00013613
0.0025136
0.00014549
0.0019792
0.00015212
0.0015229
0.00015397
0.00084094
0.00051517
0.00016073
2.0092e-05
0.0044983
7.6827e-09
4.0212e-05
0.0044082
5.9773e-05
0.0042514
7.8348e-05
0.0040244
9.5627e-05
0.0037298
0.00011117
0.0033729
0.00012501
0.0029562
0.00013616
0.0025025
0.00014549
0.0019699
0.00015218
0.0015162
0.0001541
0.00083901
0.00050855
0.00016073
2.0093e-05
0.0044782
7.9071e-09
4.0214e-05
0.0043881
5.9778e-05
0.0042318
7.8353e-05
0.0040058
9.5637e-05
0.0037125
0.00011118
0.0033574
0.00012502
0.0029424
0.00013619
0.0024913
0.0001455
0.0019606
0.00015224
0.0015095
0.00015424
0.00083701
0.00050206
0.00016073
2.0095e-05
0.0044581
8.1319e-09
4.0217e-05
0.004368
5.9782e-05
0.0042122
7.8359e-05
0.0039872
9.5647e-05
0.0036952
0.00011119
0.0033418
0.00012504
0.0029285
0.00013622
0.0024801
0.00014551
0.0019513
0.00015229
0.0015027
0.00015437
0.00083494
0.00049569
0.00016074
2.0096e-05
0.004438
8.3571e-09
4.022e-05
0.0043478
5.9787e-05
0.0041927
7.8365e-05
0.0039687
9.5657e-05
0.0036779
0.0001112
0.0033263
0.00012506
0.0029147
0.00013625
0.0024689
0.00014553
0.001942
0.00015234
0.0014959
0.00015449
0.00083279
0.00048944
0.00016074
2.0097e-05
0.0044179
8.5826e-09
4.0223e-05
0.0043277
5.9792e-05
0.0041731
7.8371e-05
0.0039501
9.5667e-05
0.0036606
0.00011122
0.0033108
0.00012507
0.0029008
0.00013628
0.0024577
0.00014554
0.0019328
0.00015239
0.0014891
0.00015461
0.00083057
0.0004833
0.00016075
2.0099e-05
0.0043978
8.8085e-09
4.0225e-05
0.0043076
5.9797e-05
0.0041535
7.8377e-05
0.0039315
9.5678e-05
0.0036433
0.00011123
0.0032952
0.00012509
0.0028869
0.00013631
0.0024465
0.00014555
0.0019235
0.00015244
0.0014822
0.00015473
0.00082829
0.00047727
0.00016075
2.01e-05
0.0043777
9.0348e-09
4.0228e-05
0.0042875
5.9803e-05
0.0041339
7.8384e-05
0.0039129
9.569e-05
0.003626
0.00011124
0.0032796
0.00012511
0.0028731
0.00013634
0.0024353
0.00014557
0.0019143
0.00015249
0.0014753
0.00015484
0.00082594
0.00047135
0.00016076
2.0102e-05
0.0043576
9.2614e-09
4.0231e-05
0.0042673
5.9808e-05
0.0041144
7.8391e-05
0.0038943
9.5701e-05
0.0036087
0.00011126
0.0032641
0.00012513
0.0028592
0.00013638
0.002424
0.00014559
0.0019051
0.00015254
0.0014683
0.00015495
0.00082353
0.00046554
0.00016077
2.0103e-05
0.0043375
9.4884e-09
4.0234e-05
0.0042472
5.9814e-05
0.0040948
7.8398e-05
0.0038758
9.5713e-05
0.0035914
0.00011127
0.0032485
0.00012514
0.0028453
0.00013641
0.0024128
0.0001456
0.0018959
0.00015259
0.0014613
0.00015506
0.00082105
0.00045983
0.00016077
2.0105e-05
0.0043174
9.7157e-09
4.0238e-05
0.0042271
5.9819e-05
0.0040752
7.8406e-05
0.0038572
9.5726e-05
0.0035741
0.00011129
0.003233
0.00012516
0.0028315
0.00013644
0.0024015
0.00014562
0.0018867
0.00015263
0.0014543
0.00015516
0.00081852
0.00045421
0.00016078
2.0106e-05
0.0042973
9.9434e-09
4.0241e-05
0.0042069
5.9825e-05
0.0040556
7.8414e-05
0.0038386
9.5738e-05
0.0035568
0.00011131
0.0032174
0.00012518
0.0028176
0.00013646
0.0023902
0.00014563
0.0018775
0.00015268
0.0014473
0.00015526
0.00081593
0.00044869
0.00016078
2.0108e-05
0.0042771
1.0171e-08
4.0244e-05
0.0041868
5.9832e-05
0.004036
7.8423e-05
0.00382
9.5751e-05
0.0035394
0.00011132
0.0032018
0.00012519
0.0028037
0.00013649
0.0023789
0.00014565
0.0018684
0.00015272
0.0014402
0.00015536
0.00081329
0.00044327
0.00016079
2.011e-05
0.004257
1.0399e-08
4.0248e-05
0.0041666
5.9838e-05
0.0040164
7.8431e-05
0.0038014
9.5764e-05
0.0035221
0.00011134
0.0031863
0.00012521
0.0027898
0.00013652
0.0023676
0.00014567
0.0018592
0.00015276
0.0014331
0.00015546
0.00081059
0.00043794
0.00016079
2.0112e-05
0.0042369
1.0628e-08
4.0252e-05
0.0041465
5.9845e-05
0.0039969
7.844e-05
0.0037828
9.5778e-05
0.0035048
0.00011135
0.0031707
0.00012523
0.002776
0.00013655
0.0023563
0.00014569
0.0018501
0.0001528
0.001426
0.00015555
0.00080784
0.0004327
0.00016079
2.0113e-05
0.0042168
1.0856e-08
4.0256e-05
0.0041264
5.9851e-05
0.0039773
7.845e-05
0.0037642
9.5791e-05
0.0034874
0.00011137
0.0031551
0.00012524
0.0027621
0.00013657
0.0023449
0.0001457
0.001841
0.00015285
0.0014188
0.00015564
0.00080505
0.00042754
0.0001608
2.0115e-05
0.0041966
1.1084e-08
4.026e-05
0.0041062
5.9858e-05
0.0039577
7.846e-05
0.0037456
9.5805e-05
0.0034701
0.00011139
0.0031395
0.00012526
0.0027482
0.0001366
0.0023336
0.00014572
0.0018318
0.00015289
0.0014117
0.00015573
0.0008022
0.00042248
0.0001608
2.0117e-05
0.0041765
1.1312e-08
4.0264e-05
0.0040861
5.9865e-05
0.0039381
7.847e-05
0.003727
9.5818e-05
0.0034527
0.00011141
0.0031239
0.00012527
0.0027344
0.00013663
0.0023222
0.00014574
0.0018227
0.00015293
0.0014045
0.00015582
0.0007993
0.00041749
0.00016081
2.0119e-05
0.0041564
1.1539e-08
4.0268e-05
0.0040659
5.9873e-05
0.0039185
7.848e-05
0.0037084
9.5832e-05
0.0034354
0.00011142
0.0031083
0.00012529
0.0027205
0.00013665
0.0023109
0.00014576
0.0018136
0.00015297
0.0013973
0.00015591
0.00079636
0.00041259
0.00016081
2.0121e-05
0.0041363
1.1766e-08
4.0272e-05
0.0040458
5.988e-05
0.0038988
7.849e-05
0.0036898
9.5846e-05
0.003418
0.00011144
0.0030927
0.0001253
0.0027066
0.00013667
0.0022995
0.00014577
0.0018045
0.000153
0.00139
0.00015599
0.00079337
0.00040777
0.00016081
2.0123e-05
0.0041161
1.1993e-08
4.0277e-05
0.0040256
5.9888e-05
0.0038792
7.8501e-05
0.0036712
9.5859e-05
0.0034007
0.00011145
0.0030771
0.00012531
0.0026928
0.0001367
0.0022881
0.00014579
0.0017954
0.00015304
0.0013828
0.00015607
0.00079034
0.00040303
0.00016082
2.0126e-05
0.004096
1.2218e-08
4.0282e-05
0.0040055
5.9896e-05
0.0038596
7.8511e-05
0.0036525
9.5872e-05
0.0033833
0.00011147
0.0030616
0.00012533
0.0026789
0.00013672
0.0022767
0.00014581
0.0017863
0.00015308
0.0013755
0.00015616
0.00078727
0.00039836
0.00016082
2.0128e-05
0.0040758
1.2442e-08
4.0286e-05
0.0039853
5.9904e-05
0.00384
7.8522e-05
0.0036339
9.5885e-05
0.0033659
0.00011149
0.003046
0.00012534
0.0026651
0.00013674
0.0022653
0.00014583
0.0017773
0.00015312
0.0013682
0.00015623
0.00078415
0.00039377
0.00016083
2.013e-05
0.0040557
1.2664e-08
4.0291e-05
0.0039651
5.9912e-05
0.0038204
7.8532e-05
0.0036153
9.5898e-05
0.0033486
0.0001115
0.0030304
0.00012535
0.0026512
0.00013677
0.0022539
0.00014585
0.0017682
0.00015315
0.0013609
0.00015631
0.00078099
0.00038925
0.00016083
2.0133e-05
0.0040356
1.2884e-08
4.0296e-05
0.003945
5.992e-05
0.0038008
7.8543e-05
0.0035967
9.5911e-05
0.0033312
0.00011151
0.0030147
0.00012536
0.0026374
0.00013679
0.0022425
0.00014587
0.0017591
0.00015319
0.0013536
0.00015639
0.0007778
0.0003848
0.00016083
2.0135e-05
0.0040154
1.3102e-08
4.0301e-05
0.0039248
5.9928e-05
0.0037811
7.8554e-05
0.0035781
9.5923e-05
0.0033138
0.00011153
0.0029991
0.00012537
0.0026235
0.00013681
0.002231
0.00014589
0.00175
0.00015323
0.0013463
0.00015646
0.00077456
0.00038042
0.00016084
2.0137e-05
0.0039953
1.3318e-08
4.0306e-05
0.0039046
5.9935e-05
0.0037615
7.8564e-05
0.0035594
9.5935e-05
0.0032965
0.00011154
0.0029835
0.00012538
0.0026097
0.00013683
0.0022196
0.00014591
0.001741
0.00015326
0.0013389
0.00015653
0.00077129
0.00037612
0.00016084
2.014e-05
0.0039751
1.3531e-08
4.0312e-05
0.0038845
5.9943e-05
0.0037419
7.8574e-05
0.0035408
9.5946e-05
0.0032791
0.00011155
0.0029679
0.00012539
0.0025958
0.00013685
0.0022081
0.00014593
0.0017319
0.0001533
0.0013315
0.00015661
0.00076798
0.00037187
0.00016085
2.0142e-05
0.0039549
1.3741e-08
4.0317e-05
0.0038643
5.9951e-05
0.0037222
7.8584e-05
0.0035222
9.5957e-05
0.0032617
0.00011157
0.0029523
0.0001254
0.002582
0.00013688
0.0021967
0.00014595
0.0017228
0.00015333
0.0013242
0.00015668
0.00076464
0.00036769
0.00016085
2.0145e-05
0.0039348
1.3947e-08
4.0322e-05
0.0038441
5.9959e-05
0.0037026
7.8594e-05
0.0035035
9.5967e-05
0.0032443
0.00011158
0.0029367
0.00012541
0.0025682
0.0001369
0.0021852
0.00014597
0.0017137
0.00015337
0.0013168
0.00015674
0.00076126
0.00036358
0.00016086
2.0147e-05
0.0039146
1.415e-08
4.0327e-05
0.0038239
5.9966e-05
0.003683
7.8603e-05
0.0034849
9.5978e-05
0.003227
0.00011159
0.0029211
0.00012542
0.0025543
0.00013692
0.0021737
0.00014599
0.0017047
0.0001534
0.0013093
0.00015681
0.00075784
0.00035953
0.00016086
2.015e-05
0.0038945
1.4348e-08
4.0332e-05
0.0038038
5.9974e-05
0.0036633
7.8613e-05
0.0034663
9.5987e-05
0.0032096
0.0001116
0.0029055
0.00012543
0.0025405
0.00013694
0.0021622
0.00014601
0.0016956
0.00015343
0.0013019
0.00015688
0.0007544
0.00035553
0.00016087
2.0152e-05
0.0038743
1.4543e-08
4.0337e-05
0.0037836
5.9981e-05
0.0036437
7.8622e-05
0.0034476
9.5997e-05
0.0031922
0.00011162
0.0028899
0.00012544
0.0025267
0.00013696
0.0021507
0.00014603
0.0016865
0.00015347
0.0012945
0.00015694
0.00075092
0.0003516
0.00016088
2.0154e-05
0.0038541
1.4733e-08
4.0342e-05
0.0037634
5.9988e-05
0.003624
7.863e-05
0.003429
9.6006e-05
0.0031748
0.00011163
0.0028742
0.00012545
0.0025129
0.00013698
0.0021391
0.00014605
0.0016775
0.0001535
0.001287
0.00015701
0.00074741
0.00034772
0.00016088
2.0157e-05
0.003834
1.4919e-08
4.0346e-05
0.0037432
5.9995e-05
0.0036044
7.8638e-05
0.0034103
9.6015e-05
0.0031575
0.00011164
0.0028586
0.00012546
0.002499
0.000137
0.0021276
0.00014607
0.0016684
0.00015353
0.0012796
0.00015707
0.00074387
0.0003439
0.00016089
2.0159e-05
0.0038138
1.51e-08
4.0351e-05
0.003723
6.0001e-05
0.0035847
7.8646e-05
0.0033917
9.6023e-05
0.0031401
0.00011165
0.002843
0.00012547
0.0024852
0.00013703
0.002116
0.0001461
0.0016593
0.00015356
0.0012721
0.00015713
0.0007403
0.00034014
0.0001609
2.0161e-05
0.0037936
1.5277e-08
4.0356e-05
0.0037028
6.0008e-05
0.0035651
7.8654e-05
0.003373
9.6031e-05
0.0031227
0.00011166
0.0028274
0.00012548
0.0024714
0.00013705
0.0021045
0.00014612
0.0016503
0.00015359
0.0012646
0.00015719
0.0007367
0.00033643
0.0001609
2.0164e-05
0.0037734
1.5449e-08
4.036e-05
0.0036826
6.0014e-05
0.0035454
7.8662e-05
0.0033544
9.6039e-05
0.0031053
0.00011167
0.0028117
0.00012549
0.0024576
0.00013707
0.0020929
0.00014614
0.0016412
0.00015362
0.0012572
0.00015725
0.00073307
0.00033277
0.00016091
2.0166e-05
0.0037532
1.5617e-08
4.0364e-05
0.0036624
6.002e-05
0.0035258
7.8669e-05
0.0033357
9.6046e-05
0.003088
0.00011168
0.0027961
0.0001255
0.0024437
0.00013709
0.0020813
0.00014617
0.0016321
0.00015366
0.0012497
0.00015731
0.00072942
0.00032916
0.00016092
2.0168e-05
0.0037331
1.578e-08
4.0368e-05
0.0036422
6.0025e-05
0.0035061
7.8676e-05
0.0033171
9.6054e-05
0.0030706
0.00011169
0.0027805
0.00012551
0.0024299
0.00013711
0.0020697
0.00014619
0.001623
0.00015369
0.0012422
0.00015737
0.00072574
0.0003256
0.00016093
2.017e-05
0.0037129
1.5938e-08
4.0372e-05
0.003622
6.0031e-05
0.0034865
7.8682e-05
0.0032984
9.6061e-05
0.0030532
0.0001117
0.0027648
0.00012552
0.0024161
0.00013713
0.0020581
0.00014621
0.0016139
0.00015372
0.0012347
0.00015742
0.00072203
0.00032208
0.00016094
2.0172e-05
0.0036927
1.6093e-08
4.0376e-05
0.0036018
6.0036e-05
0.0034668
7.8689e-05
0.0032798
9.6068e-05
0.0030358
0.00011171
0.0027492
0.00012553
0.0024023
0.00013715
0.0020465
0.00014624
0.0016049
0.00015375
0.0012272
0.00015748
0.0007183
0.00031862
0.00016095
2.0173e-05
0.0036725
1.6243e-08
4.0379e-05
0.0035816
6.0041e-05
0.0034471
7.8695e-05
0.0032611
9.6075e-05
0.0030184
0.00011172
0.0027335
0.00012554
0.0023884
0.00013717
0.0020348
0.00014626
0.0015958
0.00015378
0.0012196
0.00015754
0.00071454
0.0003152
0.00016095
2.0175e-05
0.0036523
1.6389e-08
4.0383e-05
0.0035614
6.0045e-05
0.0034275
7.8701e-05
0.0032425
9.6082e-05
0.0030011
0.00011173
0.0027179
0.00012555
0.0023746
0.0001372
0.0020232
0.00014628
0.0015867
0.00015381
0.0012121
0.00015759
0.00071075
0.00031182
0.00016096
2.0177e-05
0.0036321
1.6532e-08
4.0386e-05
0.0035412
6.005e-05
0.0034078
7.8707e-05
0.0032238
9.6088e-05
0.0029837
0.00011174
0.0027022
0.00012556
0.0023608
0.00013722
0.0020115
0.00014631
0.0015776
0.00015384
0.0012046
0.00015764
0.00070695
0.00030849
0.00016097
2.0179e-05
0.0036119
1.6672e-08
4.0389e-05
0.003521
6.0054e-05
0.0033881
7.8713e-05
0.0032052
9.6095e-05
0.0029663
0.00011175
0.0026866
0.00012557
0.002347
0.00013724
0.0019999
0.00014633
0.0015685
0.00015386
0.0011971
0.00015769
0.00070312
0.0003052
0.00016098
2.018e-05
0.0035917
1.6809e-08
4.0393e-05
0.0035008
6.0059e-05
0.0033685
7.8719e-05
0.0031865
9.6102e-05
0.0029489
0.00011176
0.0026709
0.00012559
0.0023332
0.00013726
0.0019882
0.00014636
0.0015594
0.00015389
0.0011895
0.00015775
0.00069926
0.00030195
0.00016099
2.0182e-05
0.0035715
1.6943e-08
4.0396e-05
0.0034806
6.0063e-05
0.0033488
7.8725e-05
0.0031678
9.6108e-05
0.0029315
0.00011177
0.0026552
0.0001256
0.0023193
0.00013728
0.0019765
0.00014639
0.0015503
0.00015392
0.001182
0.0001578
0.00069539
0.00029875
0.00016101
2.0183e-05
0.0035513
1.7074e-08
4.0398e-05
0.0034603
6.0067e-05
0.0033291
7.873e-05
0.0031492
9.6115e-05
0.0029141
0.00011178
0.0026396
0.00012561
0.0023055
0.0001373
0.0019648
0.00014641
0.0015412
0.00015395
0.0011745
0.00015785
0.00069149
0.00029558
0.00016102
2.0184e-05
0.0035311
1.7204e-08
4.0401e-05
0.0034401
6.0071e-05
0.0033095
7.8736e-05
0.0031305
9.6122e-05
0.0028968
0.0001118
0.0026239
0.00012562
0.0022917
0.00013733
0.0019531
0.00014644
0.0015321
0.00015398
0.0011669
0.0001579
0.00068758
0.00029244
0.00016103
2.0186e-05
0.0035109
1.7332e-08
4.0404e-05
0.0034199
6.0075e-05
0.0032898
7.8741e-05
0.0031118
9.6128e-05
0.0028794
0.00011181
0.0026082
0.00012563
0.0022779
0.00013735
0.0019414
0.00014646
0.001523
0.00015401
0.0011594
0.00015795
0.00068364
0.00028935
0.00016104
2.0187e-05
0.0034907
1.7459e-08
4.0407e-05
0.0033997
6.0079e-05
0.0032701
7.8747e-05
0.0030932
9.6135e-05
0.002862
0.00011182
0.0025925
0.00012564
0.002264
0.00013737
0.0019297
0.00014649
0.0015139
0.00015404
0.0011518
0.00015799
0.00067968
0.00028629
0.00016105
2.0188e-05
0.0034705
1.7584e-08
4.0409e-05
0.0033795
6.0083e-05
0.0032505
7.8753e-05
0.0030745
9.6142e-05
0.0028446
0.00011183
0.0025768
0.00012566
0.0022502
0.00013739
0.0019179
0.00014652
0.0015047
0.00015406
0.0011443
0.00015804
0.00067571
0.00028327
0.00016106
2.019e-05
0.0034503
1.7709e-08
4.0412e-05
0.0033592
6.0086e-05
0.0032308
7.8758e-05
0.0030558
9.6149e-05
0.0028272
0.00011184
0.0025612
0.00012567
0.0022364
0.00013741
0.0019062
0.00014654
0.0014956
0.00015409
0.0011367
0.00015809
0.00067171
0.00028028
0.00016108
2.0191e-05
0.0034301
1.7833e-08
4.0415e-05
0.003339
6.009e-05
0.0032111
7.8764e-05
0.0030372
9.6156e-05
0.0028098
0.00011185
0.0025455
0.00012568
0.0022225
0.00013744
0.0018944
0.00014657
0.0014865
0.00015412
0.0011292
0.00015813
0.0006677
0.00027732
0.00016109
2.0192e-05
0.0034099
1.7957e-08
4.0417e-05
0.0033188
6.0094e-05
0.0031914
7.877e-05
0.0030185
9.6163e-05
0.0027924
0.00011186
0.0025298
0.00012569
0.0022087
0.00013746
0.0018827
0.0001466
0.0014773
0.00015415
0.0011216
0.00015818
0.00066367
0.0002744
0.0001611
2.0193e-05
0.0033897
1.8081e-08
4.042e-05
0.0032986
6.0098e-05
0.0031717
7.8775e-05
0.0029998
9.617e-05
0.002775
0.00011188
0.0025141
0.00012571
0.0021949
0.00013748
0.0018709
0.00014662
0.0014682
0.00015418
0.0011141
0.00015822
0.00065962
0.00027151
0.00016112
2.0194e-05
0.0033695
1.8205e-08
4.0422e-05
0.0032783
6.0102e-05
0.0031521
7.8781e-05
0.0029811
9.6177e-05
0.0027576
0.00011189
0.0024983
0.00012572
0.0021811
0.0001375
0.0018591
0.00014665
0.001459
0.0001542
0.0011065
0.00015827
0.00065555
0.00026865
0.00016113
2.0195e-05
0.0033492
1.833e-08
4.0425e-05
0.0032581
6.0105e-05
0.0031324
7.8787e-05
0.0029624
9.6185e-05
0.0027402
0.0001119
0.0024826
0.00012573
0.0021672
0.00013753
0.0018473
0.00014668
0.0014499
0.00015423
0.001099
0.00015831
0.00065147
0.00026582
0.00016114
2.0197e-05
0.003329
1.8456e-08
4.0427e-05
0.0032379
6.0109e-05
0.0031127
7.8793e-05
0.0029438
9.6192e-05
0.0027228
0.00011191
0.0024669
0.00012575
0.0021534
0.00013755
0.0018355
0.00014671
0.0014407
0.00015426
0.0010914
0.00015836
0.00064737
0.00026301
0.00016116
2.0198e-05
0.0033088
1.8582e-08
4.043e-05
0.0032176
6.0113e-05
0.003093
7.8799e-05
0.0029251
9.62e-05
0.0027054
0.00011192
0.0024512
0.00012576
0.0021396
0.00013757
0.0018237
0.00014674
0.0014316
0.00015429
0.0010839
0.0001584
0.00064326
0.00026024
0.00016117
2.0199e-05
0.0032886
1.8709e-08
4.0432e-05
0.0031974
6.0117e-05
0.0030733
7.8805e-05
0.0029064
9.6208e-05
0.002688
0.00011194
0.0024355
0.00012577
0.0021257
0.00013759
0.0018119
0.00014676
0.0014224
0.00015431
0.0010763
0.00015844
0.00063913
0.00025749
0.00016119
2.02e-05
0.0032684
1.8838e-08
4.0435e-05
0.0031772
6.0121e-05
0.0030536
7.8812e-05
0.0028877
9.6216e-05
0.0026706
0.00011195
0.0024197
0.00012579
0.0021119
0.00013762
0.0018
0.00014679
0.0014132
0.00015434
0.0010688
0.00015848
0.00063499
0.00025477
0.0001612
2.0201e-05
0.0032481
1.8968e-08
4.0437e-05
0.0031569
6.0125e-05
0.003034
7.8818e-05
0.002869
9.6224e-05
0.0026532
0.00011196
0.002404
0.0001258
0.002098
0.00013764
0.0017882
0.00014682
0.001404
0.00015437
0.0010612
0.00015853
0.00063083
0.00025208
0.00016122
2.0202e-05
0.0032279
1.9099e-08
4.044e-05
0.0031367
6.0129e-05
0.0030143
7.8825e-05
0.0028503
9.6232e-05
0.0026358
0.00011198
0.0023882
0.00012582
0.0020842
0.00013766
0.0017764
0.00014685
0.0013949
0.0001544
0.0010537
0.00015857
0.00062666
0.00024941
0.00016124
2.0204e-05
0.0032077
1.9232e-08
4.0443e-05
0.0031165
6.0133e-05
0.0029946
7.8831e-05
0.0028316
9.624e-05
0.0026184
0.00011199
0.0023725
0.00012583
0.0020704
0.00013769
0.0017645
0.00014688
0.0013857
0.00015442
0.0010461
0.00015861
0.00062247
0.00024676
0.00016125
2.0205e-05
0.0031875
1.9367e-08
4.0446e-05
0.0030962
6.0138e-05
0.0029749
7.8838e-05
0.0028129
9.6249e-05
0.002601
0.000112
0.0023567
0.00012585
0.0020565
0.00013771
0.0017526
0.00014691
0.0013765
0.00015445
0.0010386
0.00015865
0.00061827
0.00024414
0.00016127
2.0206e-05
0.0031673
1.9504e-08
4.0448e-05
0.003076
6.0142e-05
0.0029552
7.8845e-05
0.0027942
9.6257e-05
0.0025836
0.00011202
0.002341
0.00012586
0.0020427
0.00013773
0.0017408
0.00014694
0.0013673
0.00015448
0.0010311
0.00015869
0.00061406
0.00024154
0.00016129
2.0207e-05
0.003147
1.9642e-08
4.0451e-05
0.0030557
6.0146e-05
0.0029355
7.8852e-05
0.0027755
9.6266e-05
0.0025662
0.00011203
0.0023252
0.00012588
0.0020288
0.00013776
0.0017289
0.00014697
0.001358
0.0001545
0.0010235
0.00015873
0.00060984
0.00023896
0.00016131
2.0209e-05
0.0031268
1.9783e-08
4.0454e-05
0.0030355
6.0151e-05
0.0029158
7.8859e-05
0.0027568
9.6275e-05
0.0025488
0.00011204
0.0023094
0.00012589
0.002015
0.00013778
0.001717
0.000147
0.0013488
0.00015453
0.001016
0.00015877
0.0006056
0.00023641
0.00016132
2.021e-05
0.0031066
1.9926e-08
4.0457e-05
0.0030152
6.0155e-05
0.0028961
7.8866e-05
0.0027381
9.6284e-05
0.0025313
0.00011206
0.0022937
0.00012591
0.0020011
0.0001378
0.0017051
0.00014703
0.0013396
0.00015456
0.0010084
0.00015881
0.00060135
0.00023388
0.00016134
2.0211e-05
0.0030863
2.007e-08
4.046e-05
0.002995
6.016e-05
0.0028764
7.8873e-05
0.0027194
9.6293e-05
0.0025139
0.00011207
0.0022779
0.00012593
0.0019873
0.00013783
0.0016932
0.00014706
0.0013304
0.00015459
0.0010009
0.00015885
0.00059709
0.00023136
0.00016136
2.0212e-05
0.0030661
2.0218e-08
4.0463e-05
0.0029747
6.0164e-05
0.0028567
7.888e-05
0.0027007
9.6302e-05
0.0024965
0.00011209
0.0022621
0.00012594
0.0019734
0.00013785
0.0016813
0.00014709
0.0013211
0.00015462
0.00099339
0.00015889
0.00059282
0.00022887
0.00016138
2.0214e-05
0.0030459
2.0367e-08
4.0466e-05
0.0029545
6.0169e-05
0.002837
7.8888e-05
0.0026819
9.6312e-05
0.0024791
0.0001121
0.0022463
0.00012596
0.0019596
0.00013787
0.0016694
0.00014712
0.0013119
0.00015464
0.00098587
0.00015893
0.00058854
0.0002264
0.0001614
2.0215e-05
0.0030256
2.0519e-08
4.0469e-05
0.0029342
6.0174e-05
0.0028173
7.8895e-05
0.0026632
9.6321e-05
0.0024616
0.00011212
0.0022305
0.00012598
0.0019457
0.0001379
0.0016575
0.00014715
0.0013026
0.00015467
0.00097835
0.00015896
0.00058424
0.00022394
0.00016142
2.0217e-05
0.0030054
2.0674e-08
4.0472e-05
0.002914
6.0179e-05
0.0027976
7.8903e-05
0.0026445
9.6331e-05
0.0024442
0.00011213
0.0022147
0.00012599
0.0019319
0.00013792
0.0016455
0.00014718
0.0012934
0.0001547
0.00097083
0.000159
0.00057994
0.0002215
0.00016144
2.0218e-05
0.0029852
2.0831e-08
4.0475e-05
0.0028937
6.0184e-05
0.0027779
7.8911e-05
0.0026258
9.6341e-05
0.0024268
0.00011215
0.0021989
0.00012601
0.001918
0.00013795
0.0016336
0.00014721
0.0012841
0.00015473
0.00096331
0.00015904
0.00057563
0.00021908
0.00016146
2.0219e-05
0.0029649
2.0991e-08
4.0479e-05
0.0028735
6.0189e-05
0.0027582
7.8919e-05
0.002607
9.6351e-05
0.0024094
0.00011216
0.0021831
0.00012603
0.0019041
0.00013797
0.0016216
0.00014724