/*--------------------------------*- C++ -*----------------------------------*\
  =========                 |
  \\      /  F ield         | OpenFOAM: The Open Source CFD Toolbox
   \\    /   O peration     | Website:  https://openfoam.org
    \\  /    A nd           | Version:  6.0
     \\/     M anipulation  |
\*---------------------------------------------------------------------------*/
FoamFile
{
    version     2.0;
    format      ascii;
    class       surfaceScalarField;
    location    "1";
    object      phi;
}
// * * * * * * * * * * * * * * * * * * * * * * * * * * * * * * * * * * * * * //

dimensions      [0 3 -1 0 0 0 0];

internalField   nonuniform List<scalar> 
33692
(
2.0051e-05
0.005201
2.0933e-10
4.0126e-05
0.0051116
5.9639e-05
0.0049351
7.8188e-05
0.0046741
9.5416e-05
0.0043332
0.00011102
0.0039182
0.00012472
0.0034362
0.00013627
0.0028953
0.00014546
0.002305
0.00015186
0.0016755
0.00015718
0.0010154
0.00046499
3.4392e-05
2.0052e-05
0.0051809
6.1466e-10
4.0129e-05
0.0050916
5.9642e-05
0.0049156
7.8194e-05
0.0046556
9.542e-05
0.004316
0.00011103
0.0039026
0.00012471
0.0034225
0.00013625
0.0028838
0.00014544
0.0022958
0.0001512
0.0016697
0.00015895
0.0010077
0.00055901
6.4936e-05
2.0053e-05
0.0051609
1.0315e-09
4.0132e-05
0.0050715
5.9646e-05
0.004896
7.8198e-05
0.004637
9.5425e-05
0.0042988
0.00011103
0.003887
0.00012471
0.0034088
0.00013624
0.0028723
0.00014543
0.0022866
0.00015055
0.0016646
0.00016029
0.00099795
0.00062929
9.0005e-05
2.0054e-05
0.0051408
1.4528e-09
4.0134e-05
0.0050514
5.9649e-05
0.0048765
7.8203e-05
0.0046185
9.543e-05
0.0042815
0.00011104
0.0038714
0.00012471
0.0033951
0.00013622
0.0028608
0.00014545
0.0022774
0.00014995
0.0016601
0.0001611
0.0009868
0.00068029
0.0001101
2.0055e-05
0.0051208
1.8736e-09
4.0137e-05
0.0050313
5.9653e-05
0.004857
7.8208e-05
0.0045999
9.5435e-05
0.0042643
0.00011104
0.0038558
0.00012472
0.0033815
0.00013621
0.0028493
0.00014548
0.0022681
0.0001494
0.0016562
0.00016142
0.00097478
0.0007157
0.00012601
2.0056e-05
0.0051007
2.2938e-09
4.0139e-05
0.0050112
5.9657e-05
0.0048375
7.8212e-05
0.0045813
9.544e-05
0.0042471
0.00011105
0.0038402
0.00012472
0.0033678
0.00013619
0.0028378
0.00014553
0.0022588
0.00014895
0.0016527
0.00016132
0.00096242
0.0007386
0.00013841
2.0057e-05
0.0050807
2.7135e-09
4.0141e-05
0.0049912
5.966e-05
0.004818
7.8217e-05
0.0045628
9.5446e-05
0.0042299
0.00011105
0.0038246
0.00012472
0.0033541
0.00013617
0.0028263
0.00014558
0.0022493
0.00014859
0.0016497
0.00016088
0.00095012
0.0007516
0.00014788
2.0058e-05
0.0050606
3.1328e-09
4.0144e-05
0.0049711
5.9664e-05
0.0047984
7.8222e-05
0.0045442
9.5451e-05
0.0042126
0.00011106
0.003809
0.00012472
0.0033404
0.00013615
0.0028149
0.00014564
0.0022399
0.00014833
0.001647
0.00016021
0.00093825
0.00075688
0.00015493
2.0059e-05
0.0050405
3.5515e-09
4.0146e-05
0.004951
5.9668e-05
0.0047789
7.8227e-05
0.0045257
9.5456e-05
0.0041954
0.00011106
0.0037934
0.00012473
0.0033268
0.00013613
0.0028035
0.00014569
0.0022303
0.00014817
0.0016446
0.00015938
0.00092704
0.00075625
0.00016
2.006e-05
0.0050205
3.9698e-09
4.0149e-05
0.0049309
5.9672e-05
0.0047594
7.8231e-05
0.0045071
9.5462e-05
0.0041782
0.00011106
0.0037778
0.00012473
0.0033131
0.00013611
0.0027921
0.00014575
0.0022207
0.00014811
0.0016422
0.00015847
0.00091668
0.00075123
0.00016349
2.0061e-05
0.0050004
4.3877e-09
4.0151e-05
0.0049108
5.9675e-05
0.0047399
7.8236e-05
0.0044886
9.5467e-05
0.0041609
0.00011107
0.0037622
0.00012474
0.0032994
0.00013609
0.0027808
0.00014579
0.002211
0.00014814
0.0016398
0.00015755
0.00090728
0.00074304
0.00016574
2.0062e-05
0.0049803
4.8051e-09
4.0153e-05
0.0048907
5.9679e-05
0.0047204
7.8241e-05
0.00447
9.5473e-05
0.0041437
0.00011107
0.0037466
0.00012474
0.0032858
0.00013607
0.0027694
0.00014583
0.0022012
0.00014825
0.0016374
0.00015665
0.00089888
0.00073266
0.00016703
2.0063e-05
0.0049603
5.2222e-09
4.0156e-05
0.0048706
5.9683e-05
0.0047008
7.8245e-05
0.0044514
9.5478e-05
0.0041265
0.00011108
0.003731
0.00012475
0.0032721
0.00013605
0.0027581
0.00014586
0.0021914
0.00014842
0.0016349
0.00015582
0.00089148
0.00072086
0.00016761
2.0064e-05
0.0049402
5.6388e-09
4.0158e-05
0.0048505
5.9687e-05
0.0046813
7.825e-05
0.0044329
9.5484e-05
0.0041092
0.00011108
0.0037154
0.00012476
0.0032584
0.00013603
0.0027469
0.00014588
0.0021815
0.00014863
0.0016321
0.00015507
0.00088504
0.00070825
0.00016768
2.0065e-05
0.0049201
6.0552e-09
4.0161e-05
0.0048304
5.9691e-05
0.0046618
7.8255e-05
0.0044143
9.549e-05
0.004092
0.00011109
0.0036998
0.00012476
0.0032448
0.00013602
0.0027356
0.00014589
0.0021717
0.00014888
0.0016291
0.00015442
0.0008795
0.00069527
0.0001674
2.0066e-05
0.0049001
6.4712e-09
4.0163e-05
0.0048103
5.9694e-05
0.0046422
7.826e-05
0.0043957
9.5496e-05
0.0040748
0.00011109
0.0036842
0.00012477
0.0032311
0.000136
0.0027244
0.00014589
0.0021618
0.00014915
0.0016259
0.00015388
0.00087478
0.00068226
0.00016689
2.0067e-05
0.00488
6.887e-09
4.0165e-05
0.0047902
5.9698e-05
0.0046227
7.8264e-05
0.0043772
9.5502e-05
0.0040575
0.0001111
0.0036686
0.00012478
0.0032174
0.00013599
0.0027132
0.00014589
0.0021519
0.00014944
0.0016223
0.00015345
0.00087077
0.00066945
0.00016625
2.0068e-05
0.0048599
7.3025e-09
4.0168e-05
0.0047701
5.9702e-05
0.0046032
7.8269e-05
0.0043586
9.5508e-05
0.0040403
0.0001111
0.003653
0.00012479
0.0032037
0.00013598
0.002702
0.00014587
0.002142
0.00014972
0.0016185
0.00015311
0.00086738
0.000657
0.00016556
2.007e-05
0.0048398
7.7177e-09
4.017e-05
0.00475
5.9706e-05
0.0045836
7.8274e-05
0.00434
9.5514e-05
0.0040231
0.00011111
0.0036374
0.0001248
0.00319
0.00013597
0.0026908
0.00014585
0.0021321
0.00015
0.0016143
0.00015287
0.0008645
0.000645
0.00016488
2.0071e-05
0.0048197
8.1327e-09
4.0173e-05
0.0047299
5.971e-05
0.0045641
7.8279e-05
0.0043215
9.552e-05
0.0040058
0.00011111
0.0036218
0.00012482
0.0031763
0.00013596
0.0026797
0.00014583
0.0021222
0.00015026
0.0016099
0.00015272
0.00086205
0.00063349
0.00016422
2.0072e-05
0.0047997
8.5475e-09
4.0175e-05
0.0047098
5.9714e-05
0.0045446
7.8284e-05
0.0043029
9.5527e-05
0.0039886
0.00011111
0.0036062
0.00012483
0.0031626
0.00013596
0.0026686
0.0001458
0.0021124
0.00015051
0.0016052
0.00015264
0.00085993
0.0006225
0.00016363
2.0073e-05
0.0047796
8.9621e-09
4.0177e-05
0.0046897
5.9718e-05
0.004525
7.8288e-05
0.0042843
9.5534e-05
0.0039713
0.00011112
0.0035906
0.00012484
0.0031489
0.00013596
0.0026574
0.00014577
0.0021026
0.00015074
0.0016002
0.00015261
0.00085806
0.00061202
0.0001631
2.0074e-05
0.0047595
9.3765e-09
4.018e-05
0.0046696
5.9722e-05
0.0045055
7.8293e-05
0.0042658
9.554e-05
0.0039541
0.00011112
0.003575
0.00012485
0.0031351
0.00013596
0.0026463
0.00014574
0.0020928
0.00015095
0.001595
0.00015264
0.00085637
0.00060201
0.00016265
2.0075e-05
0.0047394
9.7908e-09
4.0182e-05
0.0046495
5.9726e-05
0.0044859
7.8298e-05
0.0042472
9.5547e-05
0.0039368
0.00011113
0.0035595
0.00012487
0.0031214
0.00013597
0.0026352
0.00014572
0.0020831
0.00015114
0.0015896
0.0001527
0.00085481
0.00059244
0.00016227
2.0076e-05
0.0047193
1.0205e-08
4.0185e-05
0.0046294
5.973e-05
0.0044664
7.8303e-05
0.0042286
9.5554e-05
0.0039196
0.00011113
0.0035439
0.00012488
0.0031076
0.00013598
0.0026241
0.00014569
0.0020733
0.00015131
0.0015839
0.0001528
0.00085333
0.00058328
0.00016196
2.0077e-05
0.0046992
1.0619e-08
4.0187e-05
0.0046093
5.9734e-05
0.0044468
7.8308e-05
0.00421
9.5562e-05
0.0039023
0.00011114
0.0035283
0.0001249
0.0030939
0.00013599
0.002613
0.00014567
0.0020637
0.00015146
0.0015781
0.00015292
0.00085187
0.00057449
0.00016171
2.0078e-05
0.0046792
1.1033e-08
4.0189e-05
0.0045892
5.9738e-05
0.0044273
7.8312e-05
0.0041915
9.5569e-05
0.0038851
0.00011114
0.0035127
0.00012491
0.0030801
0.00013601
0.0026019
0.00014564
0.002054
0.0001516
0.0015722
0.00015305
0.00085042
0.00056602
0.00016151
2.0079e-05
0.0046591
1.1447e-08
4.0192e-05
0.0045691
5.9742e-05
0.0044077
7.8317e-05
0.0041729
9.5577e-05
0.0038678
0.00011115
0.0034972
0.00012493
0.0030663
0.00013602
0.0025908
0.00014563
0.0020444
0.00015172
0.0015661
0.00015319
0.00084895
0.00055785
0.00016136
2.008e-05
0.004639
1.1861e-08
4.0194e-05
0.004549
5.9746e-05
0.0043882
7.8322e-05
0.0041543
9.5585e-05
0.0038505
0.00011115
0.0034816
0.00012494
0.0030525
0.00013604
0.0025797
0.00014561
0.0020349
0.00015182
0.0015599
0.00015334
0.00084744
0.00054995
0.00016125
2.0081e-05
0.0046189
1.2276e-08
4.0197e-05
0.0045288
5.9751e-05
0.0043686
7.8327e-05
0.0041357
9.5593e-05
0.0038333
0.00011116
0.003466
0.00012496
0.0030387
0.00013607
0.0025686
0.0001456
0.0020253
0.00015192
0.0015536
0.00015349
0.00084587
0.00054228
0.00016116
2.0082e-05
0.0045988
1.269e-08
4.0199e-05
0.0045087
5.9755e-05
0.0043491
7.8332e-05
0.0041172
9.5601e-05
0.003816
0.00011116
0.0034505
0.00012497
0.0030249
0.00013609
0.0025575
0.0001456
0.0020158
0.00015201
0.0015471
0.00015364
0.00084424
0.00053482
0.0001611
2.0084e-05
0.0045787
1.3105e-08
4.0202e-05
0.0044886
5.9759e-05
0.0043295
7.8337e-05
0.0040986
9.561e-05
0.0037987
0.00011117
0.0034349
0.00012499
0.0030111
0.00013612
0.0025464
0.00014559
0.0020063
0.00015208
0.0015407
0.00015379
0.00084253
0.00052755
0.00016105
2.0085e-05
0.0045586
1.352e-08
4.0204e-05
0.0044685
5.9764e-05
0.00431
7.8342e-05
0.00408
9.5619e-05
0.0037815
0.00011118
0.0034193
0.00012501
0.0029973
0.00013614
0.0025352
0.00014559
0.0019969
0.00015215
0.0015341
0.00015393
0.00084076
0.00052046
0.00016102
2.0086e-05
0.0045385
1.3936e-08
4.0207e-05
0.0044484
5.9768e-05
0.0042904
7.8348e-05
0.0040614
9.5628e-05
0.0037642
0.00011119
0.0034038
0.00012502
0.0029835
0.00013617
0.0025241
0.00014559
0.0019875
0.00015222
0.0015275
0.00015407
0.00083891
0.00051353
0.000161
2.0087e-05
0.0045184
1.4352e-08
4.0209e-05
0.0044282
5.9773e-05
0.0042708
7.8353e-05
0.0040428
9.5637e-05
0.0037469
0.0001112
0.0033882
0.00012504
0.0029696
0.0001362
0.0025129
0.0001456
0.0019781
0.00015228
0.0015208
0.00015421
0.00083699
0.00050675
0.00016098
2.0088e-05
0.0044983
1.4768e-08
4.0212e-05
0.0044081
5.9777e-05
0.0042513
7.8358e-05
0.0040243
9.5646e-05
0.0037296
0.0001112
0.0033727
0.00012506
0.0029558
0.00013623
0.0025018
0.00014561
0.0019687
0.00015234
0.001514
0.00015434
0.00083499
0.00050012
0.00016097
2.0089e-05
0.0044782
1.5186e-08
4.0214e-05
0.004388
5.9782e-05
0.0042317
7.8364e-05
0.0040057
9.5656e-05
0.0037123
0.00011122
0.0033571
0.00012507
0.0029419
0.00013626
0.0024906
0.00014562
0.0019593
0.0001524
0.0015073
0.00015447
0.00083292
0.00049361
0.00016097
2.0091e-05
0.0044581
1.5604e-08
4.0217e-05
0.0043679
5.9787e-05
0.0042121
7.837e-05
0.0039871
9.5667e-05
0.003695
0.00011123
0.0033415
0.00012509
0.002928
0.00013629
0.0024794
0.00014563
0.00195
0.00015245
0.0015004
0.00015459
0.00083078
0.00048724
0.00016096
2.0092e-05
0.004438
1.6023e-08
4.022e-05
0.0043477
5.9792e-05
0.0041926
7.8376e-05
0.0039685
9.5677e-05
0.0036777
0.00011124
0.003326
0.00012511
0.0029142
0.00013633
0.0024681
0.00014564
0.0019407
0.0001525
0.0014936
0.00015471
0.00082857
0.00048099
0.00016096
2.0093e-05
0.0044179
1.6443e-08
4.0222e-05
0.0043276
5.9797e-05
0.004173
7.8382e-05
0.0039499
9.5688e-05
0.0036604
0.00011125
0.0033104
0.00012512
0.0029003
0.00013636
0.0024569
0.00014565
0.0019314
0.00015255
0.0014867
0.00015482
0.00082629
0.00047485
0.00016096
2.0094e-05
0.0043977
1.6864e-08
4.0225e-05
0.0043075
5.9802e-05
0.0041534
7.8389e-05
0.0039313
9.5699e-05
0.0036431
0.00011126
0.0032949
0.00012514
0.0028864
0.00013639
0.0024457
0.00014566
0.0019221
0.0001526
0.0014798
0.00015493
0.00082396
0.00046883
0.00016096
2.0096e-05
0.0043776
1.7286e-08
4.0228e-05
0.0042874
5.9807e-05
0.0041338
7.8396e-05
0.0039128
9.571e-05
0.0036258
0.00011128
0.0032793
0.00012516
0.0028725
0.00013642
0.0024344
0.00014568
0.0019129
0.00015264
0.0014728
0.00015504
0.00082156
0.00046292
0.00016095
2.0097e-05
0.0043575
1.7709e-08
4.0231e-05
0.0042672
5.9813e-05
0.0041142
7.8403e-05
0.0038942
9.5722e-05
0.0036085
0.00011129
0.0032637
0.00012518
0.0028586
0.00013645
0.0024231
0.00014569
0.0019036
0.00015269
0.0014658
0.00015515
0.0008191
0.00045711
0.00016095
2.0098e-05
0.0043374
1.8133e-08
4.0234e-05
0.0042471
5.9818e-05
0.0040947
7.841e-05
0.0038756
9.5734e-05
0.0035911
0.00011131
0.0032481
0.00012519
0.0028448
0.00013648
0.0024118
0.00014571
0.0018944
0.00015273
0.0014588
0.00015525
0.00081658
0.00045141
0.00016095
2.01e-05
0.0043173
1.8559e-08
4.0237e-05
0.0042269
5.9824e-05
0.0040751
7.8418e-05
0.003857
9.5747e-05
0.0035738
0.00011132
0.0032326
0.00012521
0.0028309
0.00013651
0.0024005
0.00014572
0.0018852
0.00015277
0.0014517
0.00015535
0.00081401
0.00044581
0.00016095
2.0101e-05
0.0042972
1.8985e-08
4.024e-05
0.0042068
5.983e-05
0.0040555
7.8426e-05
0.0038384
9.5759e-05
0.0035565
0.00011134
0.003217
0.00012523
0.002817
0.00013654
0.0023892
0.00014574
0.001876
0.00015282
0.0014446
0.00015544
0.00081138
0.00044031
0.00016094
2.0103e-05
0.004277
1.9412e-08
4.0244e-05
0.0041867
5.9836e-05
0.0040359
7.8434e-05
0.0038198
9.5772e-05
0.0035391
0.00011135
0.0032014
0.00012524
0.0028031
0.00013657
0.0023779
0.00014575
0.0018668
0.00015286
0.0014375
0.00015554
0.0008087
0.00043491
0.00016094
2.0104e-05
0.0042569
1.984e-08
4.0247e-05
0.0041665
5.9843e-05
0.0040163
7.8443e-05
0.0038012
9.5785e-05
0.0035218
0.00011137
0.0031858
0.00012526
0.0027892
0.00013659
0.0023666
0.00014577
0.0018576
0.0001529
0.0014304
0.00015563
0.00080597
0.0004296
0.00016094
2.0106e-05
0.0042368
2.0269e-08
4.0251e-05
0.0041464
5.9849e-05
0.0039967
7.8452e-05
0.0037826
9.5799e-05
0.0035045
0.00011139
0.0031702
0.00012528
0.0027753
0.00013662
0.0023552
0.00014579
0.0018485
0.00015294
0.0014233
0.00015572
0.00080319
0.00042439
0.00016094
2.0108e-05
0.0042167
2.0698e-08
4.0255e-05
0.0041262
5.9856e-05
0.0039771
7.8461e-05
0.003764
9.5812e-05
0.0034871
0.0001114
0.0031546
0.00012529
0.0027614
0.00013664
0.0023439
0.0001458
0.0018393
0.00015298
0.0014161
0.00015581
0.00080036
0.00041926
0.00016093
2.0109e-05
0.0041965
2.1127e-08
4.0258e-05
0.0041061
5.9863e-05
0.0039575
7.8471e-05
0.0037454
9.5826e-05
0.0034698
0.00011142
0.003139
0.00012531
0.0027475
0.00013667
0.0023325
0.00014582
0.0018302
0.00015302
0.0014089
0.00015589
0.00079748
0.00041422
0.00016093
2.0111e-05
0.0041764
2.1556e-08
4.0262e-05
0.0040859
5.987e-05
0.0039379
7.8481e-05
0.0037268
9.5839e-05
0.0034524
0.00011144
0.0031234
0.00012532
0.0027337
0.00013669
0.0023212
0.00014583
0.001821
0.00015305
0.0014017
0.00015597
0.00079456
0.00040927
0.00016093
2.0113e-05
0.0041563
2.1985e-08
4.0267e-05
0.0040658
5.9877e-05
0.0039183
7.8491e-05
0.0037081
9.5853e-05
0.003435
0.00011145
0.0031078
0.00012533
0.0027198
0.00013672
0.0023098
0.00014585
0.0018119
0.00015309
0.0013944
0.00015606
0.0007916
0.0004044
0.00016092
2.0115e-05
0.0041361
2.2412e-08
4.0271e-05
0.0040456
5.9884e-05
0.0038987
7.8501e-05
0.0036895
9.5866e-05
0.0034177
0.00011147
0.0030922
0.00012535
0.0027059
0.00013674
0.0022984
0.00014587
0.0018028
0.00015313
0.0013872
0.00015614
0.00078859
0.00039962
0.00016092
2.0117e-05
0.004116
2.2838e-08
4.0275e-05
0.0040255
5.9892e-05
0.003879
7.8512e-05
0.0036709
9.5879e-05
0.0034003
0.00011149
0.0030766
0.00012536
0.002692
0.00013677
0.002287
0.00014589
0.0017936
0.00015316
0.0013799
0.00015621
0.00078554
0.00039491
0.00016092
2.0119e-05
0.0040958
2.3261e-08
4.028e-05
0.0040053
5.99e-05
0.0038594
7.8522e-05
0.0036523
9.5892e-05
0.0033829
0.0001115
0.003061
0.00012537
0.0026782
0.00013679
0.0022756
0.0001459
0.0017845
0.0001532
0.0013726
0.00015629
0.00078245
0.00039028
0.00016092
2.0121e-05
0.0040757
2.3682e-08
4.0284e-05
0.0039851
5.9907e-05
0.0038398
7.8533e-05
0.0036337
9.5905e-05
0.0033656
0.00011152
0.0030454
0.00012538
0.0026643
0.00013681
0.0022641
0.00014592
0.0017754
0.00015323
0.0013653
0.00015636
0.00077932
0.00038573
0.00016092
2.0123e-05
0.0040556
2.41e-08
4.0289e-05
0.003965
5.9915e-05
0.0038202
7.8543e-05
0.003615
9.5918e-05
0.0033482
0.00011153
0.0030298
0.0001254
0.0026504
0.00013683
0.0022527
0.00014594
0.0017663
0.00015327
0.001358
0.00015644
0.00077615
0.00038125
0.00016091
2.0125e-05
0.0040354
2.4514e-08
4.0294e-05
0.0039448
5.9923e-05
0.0038005
7.8554e-05
0.0035964
9.593e-05
0.0033308
0.00011155
0.0030142
0.00012541
0.0026366
0.00013685
0.0022412
0.00014595
0.0017572
0.0001533
0.0013506
0.00015651
0.00077294
0.00037685
0.00016091
2.0128e-05
0.0040152
2.4923e-08
4.0299e-05
0.0039246
5.9931e-05
0.0037809
7.8564e-05
0.0035778
9.5942e-05
0.0033134
0.00011156
0.0029986
0.00012542
0.0026227
0.00013687
0.0022298
0.00014597
0.0017481
0.00015334
0.0013432
0.00015658
0.0007697
0.00037251
0.00016091
2.013e-05
0.0039951
2.5327e-08
4.0304e-05
0.0039045
5.9939e-05
0.0037613
7.8574e-05
0.0035591
9.5954e-05
0.0032961
0.00011157
0.002983
0.00012543
0.0026088
0.0001369
0.0022183
0.00014599
0.001739
0.00015337
0.0013359
0.00015665
0.00076642
0.00036825
0.00016091
2.0132e-05
0.0039749
2.5725e-08
4.0309e-05
0.0038843
5.9946e-05
0.0037416
7.8584e-05
0.0035405
9.5965e-05
0.0032787
0.00011158
0.0029673
0.00012544
0.002595
0.00013692
0.0022068
0.00014601
0.0017299
0.0001534
0.0013285
0.00015672
0.0007631
0.00036405
0.00016091
2.0134e-05
0.0039548
2.6117e-08
4.0314e-05
0.0038641
5.9954e-05
0.003722
7.8594e-05
0.0035218
9.5975e-05
0.0032613
0.0001116
0.0029517
0.00012545
0.0025811
0.00013694
0.0021954
0.00014603
0.0017208
0.00015343
0.0013211
0.00015678
0.00075976
0.00035992
0.00016091
2.0137e-05
0.0039346
2.6502e-08
4.0319e-05
0.0038439
5.9962e-05
0.0037024
7.8604e-05
0.0035032
9.5986e-05
0.0032439
0.00011161
0.0029361
0.00012546
0.0025673
0.00013696
0.0021839
0.00014605
0.0017117
0.00015346
0.0013137
0.00015685
0.00075637
0.00035586
0.00016091
2.0139e-05
0.0039144
2.688e-08
4.0324e-05
0.0038237
5.9969e-05
0.0036827
7.8613e-05
0.0034846
9.5996e-05
0.0032265
0.00011162
0.0029205
0.00012547
0.0025534
0.00013698
0.0021723
0.00014607
0.0017026
0.0001535
0.0013062
0.00015691
0.00075296
0.00035185
0.00016091
2.0141e-05
0.0038943
2.7249e-08
4.0328e-05
0.0038035
5.9976e-05
0.0036631
7.8622e-05
0.0034659
9.6005e-05
0.0032091
0.00011163
0.0029048
0.00012548
0.0025396
0.000137
0.0021608
0.00014609
0.0016936
0.00015353
0.0012988
0.00015697
0.00074952
0.00034791
0.00016091
2.0144e-05
0.0038741
2.761e-08
4.0333e-05
0.0037834
5.9983e-05
0.0036434
7.8631e-05
0.0034473
9.6014e-05
0.0031918
0.00011164
0.0028892
0.00012549
0.0025257
0.00013702
0.0021493
0.00014611
0.0016845
0.00015356
0.0012913
0.00015703
0.00074604
0.00034403
0.00016092
2.0146e-05
0.0038539
2.7963e-08
4.0338e-05
0.0037632
5.999e-05
0.0036238
7.8639e-05
0.0034286
9.6023e-05
0.0031744
0.00011165
0.0028736
0.0001255
0.0025119
0.00013704
0.0021377
0.00014613
0.0016754
0.00015359
0.0012839
0.00015709
0.00074253
0.0003402
0.00016092
2.0148e-05
0.0038338
2.8307e-08
4.0342e-05
0.003743
5.9997e-05
0.0036041
7.8647e-05
0.00341
9.6032e-05
0.003157
0.00011166
0.0028579
0.0001255
0.0024981
0.00013706
0.0021262
0.00014615
0.0016663
0.00015362
0.0012764
0.00015715
0.000739
0.00033644
0.00016092
2.015e-05
0.0038136
2.8642e-08
4.0347e-05
0.0037228
6.0003e-05
0.0035845
7.8655e-05
0.0033913
9.604e-05
0.0031396
0.00011168
0.0028423
0.00012551
0.0024842
0.00013708
0.0021146
0.00014617
0.0016572
0.00015365
0.0012689
0.00015721
0.00073543
0.00033273
0.00016092
2.0152e-05
0.0037934
2.8968e-08
4.0351e-05
0.0037026
6.0009e-05
0.0035648
7.8662e-05
0.0033727
9.6047e-05
0.0031222
0.00011169
0.0028267
0.00012552
0.0024704
0.0001371
0.002103
0.00014619
0.0016481
0.00015367
0.0012614
0.00015727
0.00073184
0.00032907
0.00016092
2.0154e-05
0.0037732
2.9285e-08
4.0355e-05
0.0036824
6.0015e-05
0.0035451
7.867e-05
0.003354
9.6055e-05
0.0031048
0.0001117
0.002811
0.00012553
0.0024566
0.00013712
0.0020915
0.00014621
0.001639
0.0001537
0.0012539
0.00015732
0.00072822
0.00032546
0.00016093
2.0156e-05
0.003753
2.9594e-08
4.036e-05
0.0036622
6.0021e-05
0.0035255
7.8677e-05
0.0033354
9.6062e-05
0.0030874
0.00011171
0.0027954
0.00012554
0.0024427
0.00013714
0.0020799
0.00014623
0.0016299
0.00015373
0.0012465
0.00015738
0.00072458
0.00032191
0.00016093
2.0158e-05
0.0037328
2.9894e-08
4.0363e-05
0.003642
6.0026e-05
0.0035058
7.8683e-05
0.0033167
9.6069e-05
0.0030701
0.00011172
0.0027797
0.00012555
0.0024289
0.00013716
0.0020682
0.00014625
0.0016209
0.00015376
0.0012389
0.00015743
0.0007209
0.0003184
0.00016094
2.016e-05
0.0037126
3.0185e-08
4.0367e-05
0.0036218
6.0031e-05
0.0034861
7.869e-05
0.003298
9.6076e-05
0.0030527
0.00011173
0.0027641
0.00012556
0.0024151
0.00013718
0.0020566
0.00014628
0.0016118
0.00015379
0.0012314
0.00015748
0.00071721
0.00031495
0.00016094
2.0162e-05
0.0036925
3.0469e-08
4.0371e-05
0.0036016
6.0036e-05
0.0034665
7.8696e-05
0.0032794
9.6083e-05
0.0030353
0.00011174
0.0027484
0.00012557
0.0024012
0.0001372
0.002045
0.0001463
0.0016027
0.00015382
0.0012239
0.00015754
0.00071349
0.00031154
0.00016094
2.0163e-05
0.0036723
3.0746e-08
4.0374e-05
0.0035813
6.0041e-05
0.0034468
7.8702e-05
0.0032607
9.609e-05
0.0030179
0.00011175
0.0027328
0.00012558
0.0023874
0.00013722
0.0020333
0.00014632
0.0015936
0.00015384
0.0012164
0.00015759
0.00070974
0.00030818
0.00016095
2.0165e-05
0.0036521
3.1015e-08
4.0378e-05
0.0035611
6.0046e-05
0.0034271
7.8708e-05
0.0032421
9.6096e-05
0.0030005
0.00011176
0.0027171
0.00012559
0.0023736
0.00013724
0.0020217
0.00014634
0.0015845
0.00015387
0.0012089
0.00015764
0.00070597
0.00030486
0.00016096
2.0167e-05
0.0036319
3.1278e-08
4.0381e-05
0.0035409
6.005e-05
0.0034075
7.8714e-05
0.0032234
9.6102e-05
0.0029831
0.00011177
0.0027015
0.0001256
0.0023597
0.00013726
0.00201
0.00014637
0.0015754
0.0001539
0.0012013
0.00015769
0.00070218
0.00030159
0.00016096
2.0168e-05
0.0036117
3.1536e-08
4.0384e-05
0.0035207
6.0054e-05
0.0033878
7.8719e-05
0.0032047
9.6109e-05
0.0029657
0.00011178
0.0026858
0.00012561
0.0023459
0.00013728
0.0019983
0.00014639
0.0015663
0.00015392
0.0011938
0.00015774
0.00069837
0.00029836
0.00016097
2.017e-05
0.0035915
3.1788e-08
4.0387e-05
0.0035005
6.0058e-05
0.0033681
7.8725e-05
0.0031861
9.6115e-05
0.0029483
0.00011179
0.0026701
0.00012562
0.0023321
0.00013731
0.0019867
0.00014641
0.0015571
0.00015395
0.0011863
0.00015779
0.00069453
0.00029517
0.00016097
2.0171e-05
0.0035713
3.2035e-08
4.039e-05
0.0034803
6.0062e-05
0.0033485
7.873e-05
0.0031674
9.6121e-05
0.002931
0.0001118
0.0026544
0.00012563
0.0023182
0.00013733
0.001975
0.00014644
0.001548
0.00015398
0.0011787
0.00015783
0.00069068
0.00029202
0.00016098
2.0172e-05
0.0035511
3.2279e-08
4.0392e-05
0.00346
6.0066e-05
0.0033288
7.8736e-05
0.0031487
9.6128e-05
0.0029136
0.00011181
0.0026388
0.00012564
0.0023044
0.00013735
0.0019633
0.00014646
0.0015389
0.000154
0.0011712
0.00015788
0.0006868
0.00028891
0.00016099
2.0173e-05
0.0035309
3.2519e-08
4.0395e-05
0.0034398
6.007e-05
0.0033091
7.8741e-05
0.0031301
9.6134e-05
0.0028962
0.00011182
0.0026231
0.00012565
0.0022906
0.00013737
0.0019515
0.00014649
0.0015298
0.00015403
0.0011636
0.00015793
0.00068291
0.00028584
0.000161
2.0175e-05
0.0035106
3.2756e-08
4.0398e-05
0.0034196
6.0074e-05
0.0032894
7.8746e-05
0.0031114
9.6141e-05
0.0028788
0.00011183
0.0026074
0.00012566
0.0022767
0.00013739
0.0019398
0.00014651
0.0015207
0.00015405
0.0011561
0.00015797
0.00067899
0.00028281
0.000161
2.0176e-05
0.0034904
3.2991e-08
4.04e-05
0.0033994
6.0078e-05
0.0032698
7.8752e-05
0.0030927
9.6147e-05
0.0028614
0.00011184
0.0025917
0.00012567
0.0022629
0.00013741
0.0019281
0.00014653
0.0015116
0.00015408
0.0011486
0.00015802
0.00067506
0.00027981
0.00016101
2.0177e-05
0.0034702
3.3225e-08
4.0403e-05
0.0033791
6.0081e-05
0.0032501
7.8757e-05
0.003074
9.6153e-05
0.002844
0.00011185
0.002576
0.00012568
0.002249
0.00013743
0.0019163
0.00014656
0.0015024
0.00015411
0.001141
0.00015806
0.0006711
0.00027685
0.00016102
2.0178e-05
0.00345
3.3457e-08
4.0405e-05
0.0033589
6.0085e-05
0.0032304
7.8762e-05
0.0030554
9.616e-05
0.0028266
0.00011186
0.0025603
0.0001257
0.0022352
0.00013745
0.0019046
0.00014658
0.0014933
0.00015413
0.0011335
0.0001581
0.00066713
0.00027392
0.00016103
2.0179e-05
0.0034298
3.3689e-08
4.0407e-05
0.0033387
6.0088e-05
0.0032107
7.8768e-05
0.0030367
9.6167e-05
0.0028092
0.00011187
0.0025446
0.00012571
0.0022214
0.00013747
0.0018928
0.00014661
0.0014842
0.00015416
0.0011259
0.00015815
0.00066314
0.00027103
0.00016104
2.018e-05
0.0034096
3.392e-08
4.041e-05
0.0033185
6.0092e-05
0.003191
7.8773e-05
0.003018
9.6173e-05
0.0027918
0.00011188
0.0025289
0.00012572
0.0022075
0.00013749
0.001881
0.00014664
0.001475
0.00015418
0.0011184
0.00015819
0.00065914
0.00026817
0.00016105
2.0181e-05
0.0033894
3.4152e-08
4.0412e-05
0.0032982
6.0095e-05
0.0031714
7.8779e-05
0.0029993
9.618e-05
0.0027744
0.00011189
0.0025132
0.00012573
0.0021937
0.00013751
0.0018692
0.00014666
0.0014659
0.00015421
0.0011108
0.00015823
0.00065511
0.00026534
0.00016106
2.0182e-05
0.0033692
3.4385e-08
4.0415e-05
0.003278
6.0099e-05
0.0031517
7.8784e-05
0.0029806
9.6187e-05
0.002757
0.0001119
0.0024975
0.00012574
0.0021799
0.00013754
0.0018575
0.00014669
0.0014567
0.00015423
0.0011033
0.00015827
0.00065107
0.00026254
0.00016107
2.0183e-05
0.0033489
3.4619e-08
4.0417e-05
0.0032578
6.0103e-05
0.003132
7.879e-05
0.0029619
9.6194e-05
0.0027396
0.00011192
0.0024818
0.00012576
0.002166
0.00013756
0.0018457
0.00014671
0.0014476
0.00015426
0.0010957
0.00015831
0.00064702
0.00025977
0.00016108
2.0184e-05
0.0033287
3.4854e-08
4.0419e-05
0.0032375
6.0106e-05
0.0031123
7.8796e-05
0.0029432
9.6201e-05
0.0027222
0.00011193
0.002466
0.00012577
0.0021522
0.00013758
0.0018338
0.00014674
0.0014384
0.00015428
0.0010882
0.00015835
0.00064295
0.00025703
0.00016109
2.0185e-05
0.0033085
3.5091e-08
4.0422e-05
0.0032173
6.011e-05
0.0030926
7.8801e-05
0.0029246
9.6208e-05
0.0027048
0.00011194
0.0024503
0.00012578
0.0021383
0.0001376
0.001822
0.00014676
0.0014292
0.00015431
0.0010806
0.00015839
0.00063886
0.00025432
0.0001611
2.0186e-05
0.0032883
3.533e-08
4.0424e-05
0.0031971
6.0114e-05
0.0030729
7.8807e-05
0.0029059
9.6216e-05
0.0026874
0.00011195
0.0024346
0.00012579
0.0021245
0.00013762
0.0018102
0.00014679
0.0014201
0.00015433
0.0010731
0.00015843
0.00063476
0.00025163
0.00016112
2.0187e-05
0.0032681
3.5572e-08
4.0426e-05
0.0031768
6.0117e-05
0.0030532
7.8813e-05
0.0028872
9.6223e-05
0.0026699
0.00011196
0.0024188
0.00012581
0.0021107
0.00013764
0.0017984
0.00014682
0.0014109
0.00015436
0.0010656
0.00015847
0.00063065
0.00024897
0.00016113
2.0188e-05
0.0032478
3.5816e-08
4.0429e-05
0.0031566
6.0121e-05
0.0030335
7.8819e-05
0.0028685
9.6231e-05
0.0026525
0.00011198
0.0024031
0.00012582
0.0020968
0.00013766
0.0017865
0.00014685
0.0014017
0.00015438
0.001058
0.00015851
0.00062652
0.00024634
0.00016114
2.0189e-05
0.0032276
3.6064e-08
4.0431e-05
0.0031363
6.0125e-05
0.0030138
7.8825e-05
0.0028498
9.6238e-05
0.0026351
0.00011199
0.0023873
0.00012583
0.002083
0.00013769
0.0017747
0.00014687
0.0013925
0.00015441
0.0010505
0.00015855
0.00062238
0.00024373
0.00016115
2.019e-05
0.0032074
3.6314e-08
4.0434e-05
0.0031161
6.0129e-05
0.0029942
7.8832e-05
0.0028311
9.6246e-05
0.0026177
0.000112
0.0023716
0.00012585
0.0020691
0.00013771
0.0017628
0.0001469
0.0013833
0.00015443
0.001043
0.00015859
0.00061822
0.00024115
0.00016117
2.0192e-05
0.0031871
3.6568e-08
4.0436e-05
0.0030958
6.0133e-05
0.0029745
7.8838e-05
0.0028124
9.6254e-05
0.0026003
0.00011201
0.0023558
0.00012586
0.0020553
0.00013773
0.0017509
0.00014693
0.0013741
0.00015446
0.0010354
0.00015862
0.00061406
0.00023859
0.00016118
2.0193e-05
0.0031669
3.6825e-08
4.0439e-05
0.0030756
6.0137e-05
0.0029548
7.8844e-05
0.0027937
9.6262e-05
0.0025829
0.00011203
0.00234
0.00012588
0.0020414
0.00013775
0.0017391
0.00014695
0.0013649
0.00015448
0.0010279
0.00015866
0.00060988
0.00023606
0.0001612
2.0194e-05
0.0031467
3.7086e-08
4.0441e-05
0.0030554
6.0141e-05
0.0029351
7.8851e-05
0.0027749
9.627e-05
0.0025655
0.00011204
0.0023243
0.00012589
0.0020276
0.00013777
0.0017272
0.00014698
0.0013557
0.00015451
0.0010204
0.0001587
0.00060568
0.00023354
0.00016121
2.0195e-05
0.0031265
3.7351e-08
4.0444e-05
0.0030351
6.0145e-05
0.0029154
7.8858e-05
0.0027562
9.6279e-05
0.002548
0.00011205
0.0023085
0.00012591
0.0020137
0.0001378
0.0017153
0.00014701
0.0013465
0.00015453
0.0010129
0.00015873
0.00060148
0.00023105
0.00016123
2.0196e-05
0.0031062
3.762e-08
4.0447e-05
0.0030149
6.0149e-05
0.0028957
7.8864e-05
0.0027375
9.6287e-05
0.0025306
0.00011207
0.0022927
0.00012592
0.0019999
0.00013782
0.0017034
0.00014704
0.0013373
0.00015456
0.0010053
0.00015877
0.00059727
0.00022858
0.00016124
2.0197e-05
0.003086
3.7893e-08
4.045e-05
0.0029946
6.0153e-05
0.002876
7.8871e-05
0.0027188
9.6296e-05
0.0025132
0.00011208
0.0022769
0.00012594
0.001986
0.00013784
0.0016915
0.00014707
0.0013281
0.00015458
0.00099783
0.00015881
0.00059304
0.00022613
0.00016126
2.0198e-05
0.0030658
3.817e-08
4.0452e-05
0.0029743
6.0158e-05
0.0028562
7.8878e-05
0.0027001
9.6305e-05
0.0024958
0.00011209
0.0022611
0.00012595
0.0019721
0.00013786
0.0016796
0.00014709
0.0013188
0.00015461
0.00099032
0.00015884
0.0005888
0.0002237
0.00016127
2.0199e-05
0.0030455
3.8452e-08
4.0455e-05
0.0029541
6.0162e-05
0.0028365
7.8885e-05
0.0026814
9.6314e-05
0.0024783
0.00011211
0.0022453
0.00012597
0.0019583
0.00013788
0.0016677
0.00014712
0.0013096
0.00015463
0.00098281
0.00015888
0.00058455
0.00022129
0.00016129
2.0201e-05
0.0030253
3.8738e-08
4.0458e-05
0.0029338
6.0167e-05
0.0028168
7.8893e-05
0.0026626
9.6323e-05
0.0024609
0.00011212
0.0022295
0.00012598
0.0019444
0.00013791
0.0016558
0.00014715
0.0013003
0.00015466
0.00097531
0.00015892
0.00058029
0.0002189
0.00016131
2.0202e-05
0.003005
3.9029e-08
4.0461e-05
0.0029136
6.0171e-05
0.0027971
7.89e-05
0.0026439
9.6332e-05
0.0024435
0.00011214
0.0022137
0.000126
0.0019306
0.00013793
0.0016438
0.00014718
0.0012911
0.00015468
0.0009678
0.00015895
0.00057603
0.00021652
0.00016133
2.0203e-05
0.0029848
3.9325e-08
4.0464e-05
0.0028933
6.0176e-05
0.0027774
7.8907e-05
0.0026252
9.6341e-05
0.002426
0.00011215
0.0021979
0.00012602
0.0019167
0.00013795
0.0016319
0.00014721
0.0012818
0.00015471
0.00096031
0.00015899
0.00057175
0.00021416
0.00016134
2.0204e-05
0.0029645
3.9626e-08
4.0467e-05
0.002873
6.0181e-05
0.0027577
7.8915e-05
0.0026064
9.6351e-05
0.0024086
0.00011217
0.0021821
0.00012603
0.0019028
0.00013798
0.0016199