/*--------------------------------*- C++ -*----------------------------------*\
  =========                 |
  \\      /  F ield         | OpenFOAM: The Open Source CFD Toolbox
   \\    /   O peration     | Website:  https://openfoam.org
    \\  /    A nd           | Version:  6.0
     \\/     M anipulation  |
\*---------------------------------------------------------------------------*/
FoamFile
{
    version     2.0;
    format      ascii;
    class       volVectorField;
    location    "1";
    object      U;
}
// * * * * * * * * * * * * * * * * * * * * * * * * * * * * * * * * * * * * * //

dimensions      [0 1 -1 0 0 0 0];

internalField   nonuniform List<vector> 
19500
(
(1 -3.3151e-07 -3.8625e-18)
(1 -7.2741e-06 2.6097e-18)
(1 -8.7316e-06 -1.1162e-17)
(1 -1.3534e-05 -7.7256e-18)
(1 -1.2088e-05 1.4423e-17)
(1 -1.1292e-05 2.6899e-17)
(1 -3.3512e-06 2.2897e-17)
(0.99998 1.2803e-05 -3.7072e-18)
(0.99991 4.1708e-05 1.3582e-17)
(0.99974 9.3938e-05 2.959e-18)
(0.99608 0.00068309 2.6028e-17)
(1.0184 0.010902 7.6131e-18)
(1 -9.3282e-07 2.393e-18)
(1 -2.1607e-05 -7.9254e-18)
(1 -2.5181e-05 5.3305e-18)
(1 -4.0109e-05 -3.0484e-19)
(1 -3.4093e-05 -3.8468e-19)
(1 -3.3311e-05 -3.2344e-17)
(1 -6.677e-06 -3.9547e-17)
(0.99995 3.858e-05 -2.1212e-17)
(0.99973 0.00013303 -1.3555e-17)
(0.99957 0.00025922 -1.4633e-18)
(0.98765 0.0019118 -1.2325e-17)
(1.0517 0.030866 -4.6092e-18)
(1 -1.4593e-06 -3.0907e-18)
(1 -3.6147e-05 1.5746e-17)
(1 -4.1559e-05 2.7725e-18)
(1 -6.726e-05 8.9074e-18)
(1 -5.5825e-05 -3.3259e-18)
(1 -5.6351e-05 2.5909e-17)
(1 -9.0713e-06 -5.5661e-18)
(0.99992 6.316e-05 4.8184e-18)
(0.99955 0.00023001 -1.6444e-17)
(0.99974 0.00045611 2.223e-17)
(0.97899 0.0027281 -6.4355e-18)
(1.0789 0.045637 1.6138e-18)
(1 -1.9102e-06 8.0799e-18)
(1 -5.0924e-05 -1.5266e-17)
(1 -5.8028e-05 -1.3143e-17)
(1 -9.4946e-05 -6.2502e-19)
(1.0001 -7.7654e-05 5.1341e-18)
(1.0001 -8.0196e-05 -7.1888e-19)
(1 -1.1154e-05 5.4846e-17)
(0.9999 8.6583e-05 8.6811e-18)
(0.99935 0.0003304 1.9445e-17)
(1.0002 0.00069082 -8.0526e-18)
(0.97047 0.0031518 3.1309e-17)
(1.0989 0.056475 -7.3429e-18)
(1 -2.2892e-06 -5.6773e-18)
(1 -6.5833e-05 1.3194e-17)
(1 -7.4459e-05 1.1188e-17)
(1.0001 -0.00012286 1.1401e-17)
(1.0001 -9.9407e-05 2.5173e-18)
(1.0001 -0.00010441 1.9044e-17)
(1 -1.2898e-05 -2.4492e-17)
(0.99988 0.00010894 1.7632e-18)
(0.99913 0.00043202 -1.1921e-17)
(1.001 0.00096566 -1.9218e-18)
(0.9625 0.0032321 -8.1364e-18)
(1.1117 0.064508 2.0388e-18)
(1 -2.5964e-06 5.7455e-18)
(1 -8.0874e-05 -5.4698e-18)
(1 -9.085e-05 3.4167e-18)
(1.0001 -0.00015101 -2.2584e-17)
(1.0001 -0.00012108 -7.3859e-20)
(1.0001 -0.00012904 -3.77e-17)
(1 -1.4277e-05 9.3963e-19)
(0.99988 0.00013004 -1.4154e-17)
(0.99889 0.00053306 4.54e-18)
(1.0019 0.001286 -1.9355e-17)
(0.95537 0.0030157 -1.9527e-17)
(1.1179 0.070345 1.966e-18)
(1 -2.8324e-06 -9.5107e-19)
(1 -9.6053e-05 -6.5419e-18)
(1 -0.0001072 -2.7768e-18)
(1.0001 -0.00017942 1.7046e-17)
(1.0001 -0.00014265 -2.3315e-17)
(1.0001 -0.00015415 1.4425e-17)
(1.0001 -1.5213e-05 1.638e-17)
(0.99989 0.00014978 4.9796e-18)
(0.99862 0.00063188 1.0148e-17)
(1.003 0.0016558 1.0419e-17)
(0.94932 0.0025483 8.3968e-18)
(1.1186 0.074414 3.1492e-18)
(0.99999 -2.9983e-06 -1.963e-18)
(1 -0.00011138 -1.287e-18)
(1 -0.0001235 -2.392e-17)
(1.0001 -0.00020811 -8.1399e-18)
(1.0001 -0.00016411 6.5259e-18)
(1.0002 -0.00017981 2.3641e-17)
(1.0001 -1.5659e-05 1.0425e-17)
(0.9999 0.00016807 4.4453e-18)
(0.99833 0.00072688 -6.6327e-18)
(1.0042 0.0020761 1.4591e-17)
(0.9445 0.0018771 6.7647e-18)
(1.1149 0.077073 -1e-17)
(0.99999 -3.0953e-06 -6.0938e-18)
(1 -0.00012684 5.5328e-18)
(1 -0.00013977 4.0219e-17)
(1.0001 -0.00023709 -9.7637e-18)
(1.0001 -0.00018546 2.4437e-17)
(1.0002 -0.00020605 -4.6675e-17)
(1.0001 -1.5583e-05 -3.4729e-17)
(0.99993 0.00018484 8.6374e-18)
(0.99802 0.00081658 -4.9809e-18)
(1.0055 0.0025448 -8.048e-18)
(0.94097 0.0010497 -1.2516e-17)
(1.1078 0.078626 1.3072e-17)
(0.99999 -3.1246e-06 4.0148e-18)
(1 -0.00014246 2.0826e-18)
(1 -0.000156 -3.4068e-17)
(1.0001 -0.00026639 1.3895e-17)
(1.0001 -0.0002067 -1.0656e-17)
(1.0002 -0.00023292 1.9907e-17)
(1.0001 -1.495e-05 1.2341e-17)
(0.99997 0.0002 2.1831e-18)
(0.99768 0.00089971 4.708e-19)
(1.0067 0.0030577 1.2741e-18)
(0.93872 0.00011251 3.9713e-18)
(1.0983 0.079323 -6.9009e-19)
(0.99999 -3.0878e-06 -2.2043e-18)
(1 -0.00015823 -6.8302e-18)
(1.0001 -0.0001722 8.351e-18)
(1.0001 -0.000296 -2.4518e-18)
(1.0002 -0.00022783 1.6448e-18)
(1.0002 -0.00026047 -2.1817e-17)
(1.0001 -1.3721e-05 -2.8422e-17)
(1 0.00021347 -2.7731e-17)
(0.99733 0.00097517 1.3922e-17)
(1.0079 0.0036087 1.6549e-18)
(0.93769 -0.00089045 -1.0072e-17)
(1.0872 0.079366 -5.6199e-18)
(0.99998 -2.987e-06 3.0425e-18)
(1 -0.00017415 2.5798e-18)
(1.0001 -0.00018837 4.0246e-18)
(1.0001 -0.00032594 -1.954e-18)
(1.0002 -0.00024885 -4.9306e-18)
(1.0003 -0.00028876 8.2517e-18)
(1.0001 -1.1856e-05 1.6452e-17)
(1.0001 0.00022517 1.7131e-17)
(0.99696 0.0010421 8.9443e-18)
(1.009 0.0041905 -2.0905e-17)
(0.93775 -0.0019188 1.1065e-19)
(1.0754 0.078916 -6.4891e-18)
(0.99998 -2.8241e-06 -3.0419e-18)
(1 -0.00019023 5.0734e-18)
(1.0001 -0.00020451 7.2965e-18)
(1.0002 -0.00035624 5.1021e-18)
(1.0002 -0.00026974 -4.5728e-18)
(1.0003 -0.00031786 4.0566e-18)
(1.0001 -9.3159e-06 3.7515e-18)
(1.0002 0.00023501 -1.5298e-18)
(0.99659 0.0011 -1.4457e-17)
(1.01 0.0047951 1.9385e-17)
(0.93876 -0.0029369 9.8729e-20)
(1.0633 0.078104 1.3977e-18)
(0.99998 -2.6018e-06 4.6258e-18)
(1 -0.00020647 -3.9602e-18)
(1.0001 -0.00022062 6.3864e-19)
(1.0002 -0.00038689 -4.2562e-18)
(1.0002 -0.00029052 1.0385e-17)
(1.0003 -0.00034782 4.9496e-18)
(1.0001 -6.0657e-06 1.5094e-17)
(1.0003 0.00024291 -5.681e-18)
(0.99622 0.0011484 -1.7667e-19)
(1.0109 0.005414 4.7601e-18)
(0.94057 -0.0039142 1.5235e-17)
(1.0516 0.077032 8.9197e-19)
(0.99997 -2.3228e-06 1.1157e-18)
(1 -0.00022287 8.7892e-18)
(1.0001 -0.00023672 1.2201e-17)
(1.0002 -0.00041793 -4.2437e-18)
(1.0002 -0.00031117 7.5193e-18)
(1.0004 -0.00037871 -2.3106e-18)
(1.0001 -2.0773e-06 -2.6435e-17)
(1.0004 0.00024876 1.7981e-17)
(0.99584 0.001187 -1.63e-17)
(1.0116 0.0060385 -2.7457e-17)
(0.94299 -0.0048259 -3.3519e-18)
(1.0405 0.07578 8.2444e-19)
(0.99997 -1.9904e-06 -2.8463e-18)
(1 -0.00023943 -9.3473e-18)
(1.0001 -0.00025281 -2.9284e-17)
(1.0002 -0.00044936 7.1496e-18)
(1.0002 -0.00033169 -1.1411e-17)
(1.0004 -0.00041061 7.4083e-18)
(1.0001 2.6661e-06 -2.4726e-18)
(1.0005 0.00025247 -1.0824e-17)
(0.99548 0.0012158 3.5795e-18)
(1.0122 0.0066605 1.6396e-17)
(0.94588 -0.0056531 -7.0095e-18)
(1.0303 0.074411 1.1359e-17)
(0.99996 -1.6081e-06 2.9948e-19)
(1 -0.00025616 6.9909e-18)
(1.0001 -0.00026888 2.0217e-17)
(1.0002 -0.0004812 -1.6102e-18)
(1.0002 -0.0003521 -1.1336e-17)
(1.0004 -0.00044359 -1.3805e-17)
(1.0002 8.165e-06 9.4471e-18)
(1.0006 0.00025394 6.2067e-18)
(0.99513 0.0012348 2.0686e-17)
(1.0127 0.0072726 -2.2956e-18)
(0.94906 -0.0063827 1.7374e-18)
(1.0213 0.072972 -4.5323e-18)
(0.99996 -1.1798e-06 -1.6802e-18)
(1 -0.00027306 -8.4708e-18)
(1.0001 -0.00028496 -9.1226e-18)
(1.0002 -0.00051346 5.381e-18)
(1.0003 -0.00037237 -6.3658e-18)
(1.0005 -0.00047772 -1.1073e-17)
(1.0002 1.4398e-05 9.1828e-18)
(1.0008 0.00025309 -4.2111e-18)
(0.99479 0.0012443 -2.5599e-17)
(1.013 0.0078678 -1.2864e-17)
(0.95242 -0.0070066 7.5308e-18)
(1.0133 0.071496 -4.9045e-18)
(0.99995 -7.1008e-07 -2.4059e-18)
(1 -0.00029012 -3.2016e-18)
(1.0001 -0.00030104 -6.7605e-19)
(1.0002 -0.00054618 -2.3563e-17)
(1.0003 -0.00039252 5.3419e-18)
(1.0005 -0.00051308 4.822e-18)
(1.0002 2.1314e-05 -1.7448e-17)
(1.0009 0.00024984 -1.4375e-17)
(0.99448 0.0012442 3.7444e-18)
(1.0133 0.0084403 -9.6563e-19)
(0.95582 -0.0075218 -8.7001e-18)
(1.0066 0.070011 9.2913e-19)
(0.99995 -2.0368e-07 3.1293e-18)
(1 -0.00030736 1.4677e-17)
(1.0001 -0.00031713 1.7408e-17)
(1.0002 -0.00057935 2.219e-18)
(1.0003 -0.00041256 1.4765e-17)
(1.0005 -0.00054974 8.4499e-18)
(1.0001 2.8828e-05 2.5191e-18)
(1.0011 0.00024413 1.5732e-17)
(0.99419 0.0012349 1.8603e-17)
(1.0134 0.0089854 1.536e-17)
(0.95919 -0.0079289 6.4761e-18)
(1.001 0.068532 1.0995e-18)
(0.99994 3.3405e-07 -1.4915e-18)
(1 -0.00032477 -3.5215e-18)
(1.0001 -0.00033325 -1.8546e-17)
(1.0003 -0.00061301 -2.1011e-18)
(1.0003 -0.00043248 -1.119e-17)
(1.0006 -0.00058778 -4.5717e-18)
(1.0001 3.6812e-05 -1.6154e-18)
(1.0013 0.00023593 -1.4225e-17)
(0.99393 0.0012166 -1.7788e-17)
(1.0135 0.0094994 7.8711e-18)
(0.96244 -0.0082321 4.3508e-19)
(0.99644 0.067074 6.2997e-19)
(0.99994 8.9732e-07 3.9536e-18)
(1 -0.00034235 -4.6007e-18)
(1.0001 -0.0003494 -1.7394e-17)
(1.0003 -0.00064716 3.9945e-17)
(1.0003 -0.00045231 1.6232e-17)
(1.0006 -0.00062728 -1.1187e-17)
(1.0001 4.5089e-05 2.1727e-17)
(1.0015 0.00022523 1.9223e-17)
(0.99369 0.0011894 2.8864e-17)
(1.0135 0.0099795 -2.8846e-17)
(0.96552 -0.0084381 -1.1878e-17)
(0.99286 0.065643 1.6587e-19)
(0.99993 1.4798e-06 -2.8939e-18)
(1 -0.00036011 -9.2323e-19)
(1.0001 -0.0003656 2.9695e-17)
(1.0003 -0.00068183 -3.0196e-17)
(1.0003 -0.00047207 -1.5628e-18)
(1.0007 -0.0006683 3.7066e-17)
(1.0001 5.3428e-05 6.7318e-18)
(1.0017 0.00021205 -2.9698e-18)
(0.99348 0.0011535 -1.7901e-17)
(1.0134 0.010424 3.399e-17)
(0.96841 -0.0085553 -5.0177e-18)
(0.99015 0.064244 -2.6401e-19)
(0.99992 2.0747e-06 -1.4752e-18)
(0.99999 -0.00037804 -1.8397e-18)
(1.0001 -0.00038185 1.546e-18)
(1.0003 -0.00071704 3.1414e-17)
(1.0003 -0.00049177 -8.8092e-18)
(1.0007 -0.0007109 -2.7396e-17)
(1.0001 6.1541e-05 -1.7166e-17)
(1.0019 0.00019644 -3.1972e-18)
(0.99331 0.0011092 5.6607e-18)
(1.0134 0.010833 -2.8668e-17)
(0.97107 -0.0085932 8.4119e-18)
(0.98818 0.062879 2.8506e-18)
(0.99992 2.6746e-06 2.4379e-18)
(0.99999 -0.00039615 1.2804e-17)
(1.0001 -0.00039817 -1.1404e-17)
(1.0003 -0.0007528 -3.2893e-18)
(1.0003 -0.00051147 -1.6905e-17)
(1.0008 -0.00075516 2.9804e-17)
(1.0001 6.9082e-05 -1.5066e-17)
(1.0021 0.00017849 1.325e-17)
(0.99317 0.0010566 -1.7447e-18)
(1.0133 0.011205 2.6872e-17)
(0.97351 -0.008562 -8.1879e-18)
(0.98685 0.06155 -4.7543e-18)
(0.99991 3.2718e-06 -4.6757e-19)
(0.99999 -0.00041444 -7.364e-18)
(1.0001 -0.00041458 -1.5968e-17)
(1.0003 -0.00078914 -9.0129e-18)
(1.0004 -0.0005312 1.6397e-17)
(1.0008 -0.00080112 -3.8005e-17)
(1.0001 7.5645e-05 -2.3234e-18)
(1.0023 0.00015831 -1.7902e-17)
(0.99306 0.00099607 2.8181e-18)
(1.0131 0.011543 -7.7505e-18)
(0.97572 -0.0084718 8.716e-18)
(0.98603 0.060256 2.0153e-18)
(0.9999 3.8577e-06 2.4494e-18)
(0.99998 -0.0004329 -7.888e-18)
(1.0001 -0.00043111 -1.5771e-18)
(1.0003 -0.00082606 2.19e-18)
(1.0004 -0.00055103 5.1893e-18)
(1.0009 -0.00084883 1.0982e-17)
(1 8.077e-05 3.8111e-17)
(1.0026 0.00013606 2.1391e-18)
(0.99298 0.00092777 4.5924e-18)
(1.013 0.011846 8.5355e-18)
(0.97772 -0.0083325 -7.4366e-18)
(0.98564 0.058997 1.5447e-18)
(0.99989 4.4234e-06 -1.4045e-18)
(0.99998 -0.00045154 7.8808e-18)
(1.0001 -0.00044776 2.2697e-17)
(1.0003 -0.0008636 -2.2066e-17)
(1.0004 -0.00057103 -8.0716e-18)
(1.0009 -0.00089835 -1.9321e-18)
(1 8.3951e-05 -1.2562e-17)
(1.0028 0.0001119 1.6592e-18)
(0.99293 0.00085208 -7.9571e-18)
(1.0129 0.012118 -3.1403e-18)
(0.97953 -0.0081532 -2.014e-19)
(0.98558 0.05777 -1.8874e-18)
(0.99989 4.9594e-06 -1.5095e-18)
(0.99997 -0.00047036 4.7171e-18)
(1.0001 -0.00046457 -5.4905e-19)
(1.0004 -0.00090178 7.3168e-18)
(1.0004 -0.0005913 -1.4892e-17)
(1.001 -0.00094971 2.1863e-17)
(1 8.4643e-05 6.2636e-18)
(1.0031 8.6055e-05 -1.583e-17)
(0.9929 0.0007694 -1.0203e-17)
(1.0128 0.012359 -1.2416e-17)
(0.98116 -0.0079423 1.1848e-18)
(0.98579 0.056575 -3.4516e-18)
(0.99988 5.4558e-06 5.2457e-19)
(0.99997 -0.00048936 -1.1265e-17)
(1.0001 -0.00048156 1.4053e-17)
(1.0004 -0.00094061 2.0237e-17)
(1.0004 -0.00061195 2.9189e-17)
(1.001 -0.001003 -1.6056e-17)
(0.99998 8.2278e-05 -1.5574e-17)
(1.0033 5.8753e-05 3.213e-18)
(0.99291 0.0006802 9.5601e-18)
(1.0127 0.012574 9.7139e-18)
(0.98263 -0.0077075 5.4753e-18)
(0.98618 0.05541 3.4307e-18)
(0.99987 5.9018e-06 1.0053e-18)
(0.99996 -0.00050854 8.9582e-18)
(1.0001 -0.00049877 -3.2288e-17)
(1.0004 -0.00098012 -2.9323e-18)
(1.0004 -0.0006331 -2.4246e-17)
(1.0011 -0.0010581 -1.0113e-17)
(0.99996 7.628e-05 2.2047e-20)
(1.0035 3.0251e-05 -3.673e-18)
(0.99294 0.00058505 -1.8836e-17)
(1.0126 0.012762 -1.5502e-17)
(0.98397 -0.0074551 -7.459e-18)
(0.98672 0.054273 -1.6879e-18)
(0.99986 6.2864e-06 -6.5156e-19)
(0.99996 -0.0005279 -5.8259e-18)
(1.0001 -0.00051624 2.5404e-17)
(1.0004 -0.0010203 -2.7978e-17)
(1.0004 -0.00065491 -1.8226e-18)
(1.0012 -0.0011152 2.1535e-17)
(0.99994 6.6082e-05 6.2313e-19)
(1.0038 8.279e-07 3.5041e-18)
(0.993 0.00048457 1.6489e-17)
(1.0126 0.012928 2.0144e-17)
(0.98518 -0.0071908 4.2728e-18)
(0.98735 0.053164 -9.396e-19)
(0.99985 6.5978e-06 -1.6962e-18)
(0.99995 -0.00054746 -2.1485e-18)
(1 -0.000534 -1.1262e-17)
(1.0004 -0.0010613 1.3938e-17)
(1.0004 -0.00067754 2.6645e-17)
(1.0012 -0.0011743 -9.5174e-18)
(0.99992 5.1146e-05 1.939e-17)
(1.004 -2.9223e-05 2.6263e-18)
(0.99308 0.00037945 -1.8678e-18)
(1.0125 0.013074 9.1009e-18)
(0.9863 -0.0069192 -4.7539e-18)
(0.98804 0.05208 -6.5279e-19)
(0.99984 6.8237e-06 4.2421e-19)
(0.99995 -0.00056721 -5.6817e-18)
(1 -0.0005521 4.2155e-18)
(1.0004 -0.0011031 -1.4204e-17)
(1.0004 -0.00070119 -2.8181e-17)
(1.0013 -0.0012354 5.9975e-18)
(0.9999 3.0982e-05 -2.7972e-17)
(1.0043 -5.9595e-05 -6.0016e-18)
(0.99318 0.00027043 6.0586e-18)
(1.0125 0.0132 -2.8576e-17)
(0.98733 -0.0066441 3.2649e-18)
(0.98878 0.051021 1.8523e-18)
(0.99983 6.9513e-06 7.4493e-19)
(0.99994 -0.00058717 1.5393e-17)
(1 -0.0005706 7.0581e-18)
(1.0004 -0.0011456 5.7861e-18)
(1.0004 -0.00072606 2.2534e-17)
(1.0014 -0.0012984 1.788e-18)
(0.99989 5.163e-06 1.9313e-17)
(1.0045 -8.9972e-05 4.3059e-18)
(0.99329 0.00015829 -1.8412e-17)
(1.0124 0.013311 9.8347e-18)
(0.9883 -0.0063685 2.205e-18)
(0.98953 0.049986 1.9169e-18)
(0.99981 6.9672e-06 -2.6011e-18)
(0.99993 -0.00060733 -5.067e-18)
(1 -0.00058955 -6.2014e-18)
(1.0004 -0.0011891 9.5021e-18)
(1.0004 -0.00075237 1.0885e-17)
(1.0015 -0.0013636 -3.561e-18)
(0.99988 -2.6651e-05 -1.6221e-17)
(1.0047 -0.00012004 1.9599e-17)
(0.99343 4.3793e-05 3.4108e-18)
(1.0124 0.013406 -2.9681e-18)
(0.9892 -0.0060948 9.0893e-18)
(0.99029 0.048973 -1.3303e-18)
(0.9998 6.8572e-06 5.3447e-18)
(0.99993 -0.00062773 6.068e-18)
(1 -0.00060902 -6.5918e-18)
(1.0005 -0.0012334 -5.9191e-18)
(1.0004 -0.00078035 -1.5619e-17)
(1.0015 -0.0014307 -6.1158e-18)
(0.99988 -6.4706e-05 7.9972e-18)
(1.0049 -0.00014947 -3.1433e-17)
(0.99357 -7.2275e-05 8.3463e-18)
(1.0124 0.013489 -3.505e-18)
(0.99005 -0.0058249 -9.6163e-18)
(0.99103 0.047982 3.8601e-18)
(0.99979 6.6067e-06 -2.3589e-18)
(0.99992 -0.00064836 -1.0661e-17)
(1 -0.00062907 -6.3883e-18)
(1.0005 -0.0012787 -1.1232e-17)
(1.0004 -0.00081024 -4.7686e-18)
(1.0016 -0.0014999 1.7981e-17)
(0.99988 -0.00010914 -7.8548e-18)
(1.0052 -0.00017795 3.4964e-17)
(0.99373 -0.00018918 7.868e-18)
(1.0123 0.013559 1.0637e-17)
(0.99087 -0.00556 4.0513e-18)
(0.99177 0.047012 -6.2556e-18)
(0.99978 6.2004e-06 -1.2512e-18)
(0.99991 -0.00066925 7.9286e-18)
(1 -0.0006498 1.2657e-17)
(1.0005 -0.0013251 3.0284e-17)
(1.0004 -0.00084229 6.3209e-18)
(1.0017 -0.001571 -1.2334e-17)
(0.99989 -0.00015997 3.7907e-18)
(1.0054 -0.00020519 -3.7612e-17)
(0.9939 -0.00030622 -9.5417e-18)
(1.0123 0.013619 -5.9119e-18)
(0.99165 -0.0053012 3.967e-18)
(0.99249 0.046062 6.2856e-18)
(0.99976 5.6226e-06 9.5751e-19)
(0.9999 -0.00069042 1.8769e-18)
(1 -0.00067127 -1.243e-17)
(1.0005 -0.0013726 -5.0444e-18)
(1.0004 -0.00087672 8.0249e-18)
(1.0018 -0.0016441 1.4761e-17)
(0.9999 -0.00021711 1.3178e-17)
(1.0056 -0.00023091 3.7246e-18)
(0.99407 -0.00042277 1.0674e-17)
(1.0123 0.013669 -2.7358e-18)
(0.9924 -0.005049 -7.0771e-18)
(0.99319 0.045131 -1.6212e-18)
(0.99975 4.8567e-06 -3.9211e-20)
(0.99989 -0.00071189 2.1391e-18)
(1 -0.00069358 2.778e-18)
(1.0005 -0.0014212 -6.5485e-18)
(1.0004 -0.00091376 7.4188e-20)
(1.0019 -0.0017191 -1.3384e-17)
(0.99991 -0.00028035 -8.9138e-18)
(1.0058 -0.00025484 2.7538e-17)
(0.99425 -0.00053827 -1.6126e-17)
(1.0123 0.013709 1.0623e-17)
(0.99312 -0.0048041 3.7357e-18)
(0.99386 0.04422 -4.5688e-18)
(0.99974 3.8861e-06 -2.9657e-18)
(0.99988 -0.0007337 -1.0032e-17)
(1 -0.00071682 7.0919e-18)
(1.0005 -0.0014711 -1.7884e-17)
(1.0005 -0.00095361 -2.0293e-17)
(1.002 -0.0017959 -1.8487e-17)
(0.99994 -0.00034938 -1.8163e-17)
(1.006 -0.00027678 -2.8205e-18)
(0.99444 -0.00065224 1.4092e-17)
(1.0123 0.013742 -9.1086e-18)
(0.99383 -0.0045666 3.7069e-19)
(0.99452 0.043326 4.3015e-18)
(0.99972 2.6934e-06 5.7241e-18)
(0.99988 -0.00075588 1.0484e-17)
(0.99999 -0.00074108 -1.1437e-17)
(1.0006 -0.0015223 1.4683e-17)
(1.0005 -0.00099644 -2.3788e-18)
(1.002 -0.0018743 1.2118e-17)
(0.99996 -0.00042377 2.1831e-17)
(1.0062 -0.00029651 -2.1356e-17)
(0.99463 -0.00076429 -7.143e-18)
(1.0123 0.013766 9.6102e-18)
(0.99451 -0.0043366 3.219e-18)
(0.99515 0.042451 -2.0324e-18)
(0.99971 1.2612e-06 -4.2951e-18)
(0.99987 -0.00077847 -3.0986e-18)
(0.99998 -0.00076646 -2.3911e-18)
(1.0006 -0.0015749 1.68e-17)
(1.0005 -0.0010424 -5.0929e-18)
(1.0021 -0.0019541 -1.5344e-19)
(0.99999 -0.00050305 -4.2716e-18)
(1.0063 -0.0003139 1.7106e-17)
(0.99482 -0.00087412 -6.7787e-18)
(1.0123 0.013783 -6.5985e-18)
(0.99518 -0.0041141 -9.5124e-18)
(0.99577 0.041592 2.3602e-18)
(0.99969 -4.2784e-07 2.9195e-18)
(0.99986 -0.00080149 -3.9288e-18)
(0.99997 -0.00079304 5.4743e-18)
(1.0006 -0.0016289 -2.549e-17)
(1.0005 -0.0010916 3.4508e-17)
(1.0022 -0.0020353 5.0199e-18)
(1 -0.00058664 1.6849e-17)
(1.0065 -0.00032884 -1.0582e-17)
(0.99502 -0.00098151 9.2842e-20)
(1.0123 0.013793 4.9005e-18)
(0.99583 -0.0038992 -1.8434e-18)
(0.99636 0.040751 -8.8846e-19)
(0.99968 -2.3911e-06 -8.352e-19)
(0.99984 -0.00082499 7.6792e-19)
(0.99997 -0.00082093 1.3337e-17)
(1.0006 -0.0016845 6.9492e-18)
(1.0005 -0.0011441 -1.7251e-17)
(1.0023 -0.0021175 -9.8319e-18)
(1.0001 -0.00067395 2.9395e-18)
(1.0067 -0.00034128 -5.1428e-18)
(0.99522 -0.0010863 1.1341e-17)
(1.0123 0.013796 -3.2186e-18)
(0.99646 -0.0036917 8.8936e-18)
(0.99694 0.039926 -3.2334e-18)
(0.99966 -4.6453e-06 -1.4537e-18)
(0.99983 -0.00084901 -7.4028e-18)
(0.99996 -0.00085021 -3.9657e-18)
(1.0006 -0.0017416 2.7904e-17)
(1.0005 -0.0011998 -1.5367e-17)
(1.0024 -0.0022005 -8.3239e-19)
(1.0001 -0.00076433 -4.3988e-17)
(1.0068 -0.00035118 5.0577e-18)
(0.99541 -0.0011885 -2.1195e-17)
(1.0123 0.013792 -6.9406e-18)
(0.99708 -0.0034915 -8.8799e-18)
(0.9975 0.039117 1.9207e-18)
(0.99964 -7.2064e-06 -6.2757e-19)
(0.99982 -0.00087359 4.5863e-18)
(0.99995 -0.00088094 -1.6371e-18)
(1.0006 -0.0018002 -1.6248e-17)
(1.0005 -0.0012588 2.2084e-17)
(1.0025 -0.002284 -2.0465e-18)
(1.0001 -0.00085716 2.3299e-17)
(1.007 -0.00035861 -3.1061e-18)
(0.99561 -0.0012879 1.0294e-17)
(1.0123 0.013782 8.6764e-18)
(0.99769 -0.0032985 7.3245e-18)
(0.99804 0.038324 -4.6238e-19)
(0.99962 -1.0089e-05 3.5575e-18)
(0.99981 -0.00089877 -2.744e-18)
(0.99994 -0.00091318 -5.7263e-18)
(1.0007 -0.0018604 1.7733e-17)
(1.0005 -0.001321 1.6204e-18)
(1.0026 -0.0023677 2.5376e-17)
(1.0002 -0.00095179 4.0181e-18)
(1.0071 -0.00036362 1.4846e-17)
(0.99581 -0.0013848 3.8619e-18)
(1.0123 0.013765 -2.8072e-18)
(0.99829 -0.0031125 9.517e-19)
(0.99857 0.037546 4.2044e-19)
(0.9996 -1.3307e-05 1.0143e-18)
(0.9998 -0.00092457 1.122e-18)
(0.99993 -0.000947 -5.1922e-18)
(1.0007 -0.0019221 -3.5314e-17)
(1.0005 -0.0013861 4.9068e-18)
(1.0027 -0.0024513 2.1998e-18)
(1.0002 -0.0010476 -1.7422e-17)
(1.0072 -0.00036634 2.0839e-19)
(0.99601 -0.0014791 1.1367e-17)
(1.0123 0.013742 -1.8028e-18)
(0.99887 -0.0029334 -4.6276e-18)
(0.99908 0.036784 2.4673e-18)
(0.99959 -1.687e-05 -4.3437e-18)
(0.99978 -0.00095103 4.7554e-18)
(0.99992 -0.0009824 8.5615e-19)
(1.0007 -0.0019853 1.9609e-17)
(1.0005 -0.001454 -2.2384e-17)
(1.0027 -0.0025344 -9.7207e-18)
(1.0003 -0.0011441 1.7817e-17)
(1.0074 -0.00036693 -1.0052e-17)
(0.9962 -0.0015711 -1.7961e-17)
(1.0123 0.013712 -8.8986e-18)
(0.99944 -0.0027609 5.8915e-18)
(0.99958 0.036036 8.1927e-19)
(0.99957 -2.0788e-05 -4.5962e-19)
(0.99977 -0.00097818 -4.7852e-18)
(0.99991 -0.0010194 9.1158e-18)
(1.0007 -0.0020499 8.6943e-18)
(1.0006 -0.0015244 2.7645e-17)
(1.0028 -0.0026167 3.7331e-18)
(1.0003 -0.0012407 1.5821e-17)
(1.0075 -0.0003656 2.5479e-17)
(0.9964 -0.0016607 -7.8802e-19)
(1.0123 0.013677 1.5649e-17)
(0.99999 -0.0025951 -6.2434e-19)
(1.0001 0.035302 -2.3973e-18)
(0.99954 -2.5066e-05 4.4549e-18)
(0.99976 -0.001006 -6.9668e-18)
(0.99989 -0.001058 -1.3836e-17)
(1.0007 -0.0021157 -2.3111e-18)
(1.0006 -0.001597 -3.0003e-17)
(1.0029 -0.0026979 -1.111e-17)
(1.0004 -0.0013371 -5.4941e-18)
(1.0076 -0.00036255 1.871e-19)
(0.9966 -0.0017483 2.3361e-17)
(1.0123 0.013635 3.5988e-18)
(1.0005 -0.0024356 -8.0679e-18)
(1.0005 0.034582 1.4339e-18)
(0.99952 -2.9706e-05 -4.9944e-18)
(0.99974 -0.0010345 8.7028e-18)
(0.99988 -0.0010982 7.2425e-18)
(1.0007 -0.0021828 -4.605e-18)
(1.0006 -0.0016716 2.4127e-17)
(1.003 -0.0027777 1.3289e-17)
(1.0004 -0.0014327 -4.3424e-18)
(1.0077 -0.00035804 -2.5669e-17)
(0.9968 -0.001834 -7.9674e-19)
(1.0123 0.013587 -1.0295e-17)
(1.0011 -0.0022825 9.5478e-18)
(1.001 0.033876 -1.8778e-18)
(0.9995 -3.4708e-05 3.0011e-18)
(0.99973 -0.0010638 -1.6653e-18)
(0.99987 -0.0011398 9.5892e-18)
(1.0008 -0.0022508 -1.9373e-17)
(1.0006 -0.0017477 7.8769e-18)
(1.0031 -0.0028559 -4.7745e-18)
(1.0005 -0.0015274 -9.352e-18)
(1.0078 -0.00035233 -2.0583e-18)
(0.997 -0.0019179 -2.8167e-17)
(1.0123 0.013533 6.7841e-18)
(1.0016 -0.0021355 -8.7319e-18)
(1.0015 0.033183 6.2535e-19)
(0.99948 -4.0067e-05 2.3727e-19)
(0.99971 -0.0010937 -5.2388e-18)
(0.99986 -0.0011829 5.445e-18)
(1.0008 -0.0023196 2.5497e-17)
(1.0006 -0.0018251 -1.8762e-17)
(1.0031 -0.0029321 1.5355e-17)
(1.0005 -0.0016208 -5.4062e-18)
(1.0079 -0.00034569 4.7706e-18)
(0.99719 -0.0020004 3.3455e-17)
(1.0123 0.013473 -1.259e-17)
(1.0021 -0.0019945 1.3337e-17)
(1.0019 0.032503 1.7649e-18)
(0.99946 -4.5772e-05 4.2587e-19)
(0.99969 -0.0011242 -1.0842e-18)
(0.99984 -0.0012272 -7.8338e-18)
(1.0008 -0.0023891 -3.8387e-18)
(1.0006 -0.0019033 1.635e-17)
(1.0032 -0.0030062 1.2068e-19)
(1.0005 -0.0017129 -1.0624e-17)
(1.008 -0.00033842 -1.1381e-17)
(0.99739 -0.0020814 -1.4001e-17)
(1.0123 0.013407 -1.1837e-18)
(1.0026 -0.0018595 2.433e-18)
(1.0023 0.031836 1.8194e-19)
(0.99943 -5.1812e-05 -6.8532e-19)
(0.99968 -0.0011553 1.2902e-17)
(0.99983 -0.0012728 -5.2247e-18)
(1.0008 -0.0024589 -2.1691e-17)
(1.0006 -0.0019819 7.5361e-18)
(1.0033 -0.0030779 -3.9119e-17)
(1.0006 -0.0018035 5.3009e-18)
(1.0081 -0.0003308 7.1687e-18)
(0.99759 -0.0021613 6.504e-19)
(1.0123 0.013335 1.2772e-17)
(1.0031 -0.0017302 -8.2224e-19)
(1.0028 0.031182 -4.9237e-18)
(0.99941 -5.8169e-05 -1.8093e-19)
(0.99966 -0.001187 -2.5318e-19)
(0.99982 -0.0013194 7.0333e-18)
(1.0008 -0.0025289 1.3392e-17)
(1.0006 -0.0020608 -2.9948e-17)
(1.0033 -0.0031473 1.6906e-18)
(1.0006 -0.0018926 9.4913e-18)
(1.0082 -0.00032311 1.1221e-17)
(0.99779 -0.0022401 -8.8442e-18)
(1.0123 0.013258 -1.2426e-17)
(1.0036 -0.0016066 -1.3199e-17)
(1.0032 0.03054 5.1924e-18)
(0.99938 -6.4821e-05 -1.1839e-18)
(0.99964 -0.0012192 3.6059e-19)
(0.9998 -0.0013668 -3.3911e-18)
(1.0008 -0.0025989 -8.941e-18)
(1.0006 -0.0021394 1.66e-17)
(1.0034 -0.0032142 2.0995e-17)
(1.0007 -0.0019801 2.7673e-18)
(1.0083 -0.00031562 5.6834e-18)
(0.99799 -0.0023181 1.4104e-17)
(1.0123 0.013176 2.0938e-18)
(1.004 -0.0014886 9.7481e-18)
(1.0036 0.02991 -3.1487e-18)
(0.99935 -7.1745e-05 2.1791e-18)
(0.99962 -0.0012518 6.648e-19)
(0.99978 -0.001415 -4.8461e-18)
(1.0008 -0.0026686 1.3208e-18)
(1.0007 -0.0022176 -8.9999e-18)
(1.0035 -0.0032786 -5.036e-18)
(1.0007 -0.0020663 -1.0231e-18)
(1.0084 -0.0003086 -2.5661e-17)
(0.99819 -0.0023953 2.7649e-18)
(1.0123 0.013087 -4.2311e-18)
(1.0045 -0.0013761 -3.9646e-18)
(1.004 0.029291 -3.7843e-18)
(0.99932 -7.8912e-05 -4.447e-18)
(0.9996 -0.0012847 8.685e-19)
(0.99977 -0.0014637 2.5705e-18)
(1.0008 -0.0027378 -1.6596e-17)
(1.0007 -0.002295 -1.0259e-17)
(1.0035 -0.0033404 -2.3376e-17)
(1.0007 -0.0021512 4.9346e-18)
(1.0084 -0.0003023 1.0479e-17)
(0.99839 -0.002472 -2.9662e-17)
(1.0123 0.012994 1.9518e-17)
(1.0049 -0.001269 -4.2804e-18)
(1.0044 0.028684 2.4436e-18)
(0.9993 -8.6291e-05 4.0821e-18)
(0.99958 -0.0013178 1.9437e-18)
(0.99975 -0.0015128 9.885e-19)
(1.0009 -0.0028063 5.2641e-18)
(1.0007 -0.0023715 -2.2651e-18)
(1.0036 -0.0033998 4.5305e-17)
(1.0008 -0.0022348 1.7714e-17)
(1.0085 -0.00029697 -1.6286e-17)
(0.99859 -0.0025482 2.8543e-17)
(1.0124 0.012895 -7.2817e-18)
(1.0054 -0.0011673 -2.8172e-18)
(1.0048 0.028088 -1.2112e-18)
(0.99927 -9.3851e-05 1.0013e-18)
(0.99955 -0.0013511 -1.2308e-17)
(0.99973 -0.001562 1.9783e-18)
(1.0009 -0.0028739 2.3638e-17)
(1.0007 -0.0024469 1.7534e-17)
(1.0036 -0.0034569 -7.3336e-19)
(1.0008 -0.0023174 -2.4543e-17)
(1.0086 -0.00029282 4.937e-18)
(0.99879 -0.002624 -6.4348e-18)
(1.0124 0.012791 -1.0065e-17)
(1.0058 -0.0010707 7.1712e-18)
(1.0052 0.027503 1.1346e-18)
(0.99923 -0.00010156 -3.9603e-18)
(0.99953 -0.0013845 -4.1031e-18)
(0.99971 -0.0016112 -1.0716e-17)
(1.0009 -0.0029405 -1.9824e-17)
(1.0007 -0.002521 -1.7642e-17)
(1.0037 -0.0035118 -2.0586e-17)
(1.0008 -0.0023991 4.5309e-18)
(1.0087 -0.00029007 3.8326e-17)
(0.99899 -0.0026996 2.8024e-18)
(1.0124 0.012682 -8.7415e-19)
(1.0062 -0.0009793 -2.5296e-18)
(1.0055 0.026929 -3.029e-18)
(0.9992 -0.00010937 2.9387e-18)
(0.9995 -0.0014178 3.8115e-18)
(0.99969 -0.0016603 1.6514e-17)
(1.0009 -0.0030058 1.373e-17)
(1.0007 -0.0025937 1.7163e-17)
(1.0037 -0.0035645 -7.6539e-19)
(1.0009 -0.0024802 -2.5242e-17)
(1.0087 -0.00028891 -2.0713e-17)
(0.99919 -0.002775 6.951e-18)
(1.0124 0.012568 3.4839e-18)
(1.0066 -0.00089297 5.6968e-18)
(1.0059 0.026365 2.3474e-18)
(0.99917 -0.00011727 -2.0754e-18)
(0.99948 -0.001451 5.9793e-18)
(0.99967 -0.0017091 -1.0926e-17)
(1.0009 -0.0030699 1.9868e-18)
(1.0007 -0.002665 7.9785e-18)
(1.0038 -0.0036154 -2.0122e-18)
(1.0009 -0.0025607 5.6692e-18)
(1.0088 -0.0002895 5.7487e-18)
(0.99939 -0.0028503 2.2834e-18)
(1.0124 0.012449 8.5981e-18)
(1.007 -0.00081164 -6.8491e-18)
(1.0063 0.025812 4.7585e-19)
(0.99914 -0.00012521 3.1335e-18)
(0.99945 -0.001484 3.7059e-19)
(0.99964 -0.0017574 -5.1142e-18)
(1.0009 -0.0031325 7.9085e-19)
(1.0007 -0.002735 -1.3117e-18)
(1.0038 -0.0036646 -1.9874e-17)
(1.0009 -0.0026409 1.5821e-17)
(1.0088 -0.00029201 2.0395e-17)
(0.9996 -0.0029256 -1.1387e-17)
(1.0124 0.012326 -1.1956e-17)
(1.0074 -0.00073524 -1.9976e-18)
(1.0066 0.025268 4.0148e-18)
(0.9991 -0.00013316 -2.2762e-18)
(0.99942 -0.0015166 -2.8538e-19)
(0.99962 -0.0018051 6.3587e-18)
(1.0009 -0.0031937 -1.5192e-17)
(1.0007 -0.0028035 -1.1852e-17)
(1.0039 -0.0037123 2.509e-17)
(1.001 -0.002721 -2.419e-18)
(1.0089 -0.00029658 -2.1596e-17)
(0.9998 -0.0030009 2.8985e-18)
(1.0125 0.012198 1.1252e-17)
(1.0078 -0.00066371 6.7745e-18)
(1.007 0.024734 -1.4472e-18)
(0.99906 -0.00014109 2.2619e-19)
(0.9994 -0.0015489 2.0905e-18)
(0.99959 -0.0018522 3.4743e-18)
(1.0009 -0.0032534 7.8534e-18)
(1.0007 -0.0028707 2.3228e-17)
(1.0039 -0.0037587 5.8484e-18)
(1.001 -0.002801 -2.1059e-17)
(1.009 -0.00030334 2.0214e-18)
(1 -0.0030764 7.4624e-18)
(1.0125 0.012065 -1.013e-17)
(1.0082 -0.00059699 -4.577e-18)
(1.0073 0.024209 -1.6686e-18)
(0.99903 -0.00014898 6.4224e-19)
(0.99937 -0.0015808 -3.6365e-19)
(0.99956 -0.0018985 -9.167e-18)
(1.0009 -0.0033115 -1.6893e-19)
(1.0007 -0.0029367 -4.5923e-17)
(1.0039 -0.003804 7.2099e-18)
(1.001 -0.0028813 2.0687e-17)
(1.009 -0.0003124 -5.8107e-18)
(1.0002 -0.0031521 -7.8172e-18)
(1.0125 0.011928 1.6812e-17)
(1.0086 -0.00053501 5.4714e-18)
(1.0077 0.023694 4.3181e-18)
(0.99899 -0.00015679 6.899e-19)
(0.99933 -0.0016122 -7.5455e-19)
(0.99954 -0.0019439 1.6578e-17)
(1.0009 -0.0033683 3.6219e-18)
(1.0006 -0.0030015 4.0693e-17)
(1.004 -0.0038485 -2.5413e-17)
(1.0011 -0.0029619 -6.9253e-18)
(1.0091 -0.00032387 5.4656e-18)
(1.0004 -0.003228 2.6897e-18)
(1.0125 0.011787 -9.4576e-18)
(1.0089 -0.00047771 -8.8774e-19)
(1.008 0.023188 -3.1826e-18)
(0.99895 -0.00016451 -2.6961e-18)
(0.9993 -0.0016431 1.2669e-18)
(0.99951 -0.0019886 -9.7441e-18)
(1.0009 -0.0034236 4.7624e-18)
(1.0006 -0.0030653 -1.5462e-17)
(1.004 -0.0038923 3.4463e-18)
(1.0011 -0.003043 2.7727e-17)
(1.0091 -0.00033784 -2.0452e-17)
(1.0006 -0.0033042 -9.8895e-18)
(1.0126 0.011641 -9.3446e-18)
(1.0093 -0.00042505 -4.3451e-18)
(1.0083 0.02269 -8.7086e-19)
(0.99891 -0.00017213 3.3584e-18)
(0.99927 -0.0016734 -3.0089e-18)
(0.99947 -0.0020324 -9.4558e-18)
(1.0009 -0.0034775 -7.5944e-18)
(1.0006 -0.0031283 -2.5276e-17)
(1.004 -0.0039357 -1.5981e-17)
(1.0011 -0.0031247 -1.7e-17)
(1.0092 -0.00035438 1.9013e-17)
(1.0008 -0.0033808 9.5829e-18)
(1.0126 0.011491 1.4147e-17)
(1.0096 -0.00037696 -1.6979e-18)
(1.0087 0.022201 4.1993e-18)
(0.99887 -0.00017962 -5.3977e-18)
(0.99924 -0.0017031 4.8753e-18)
(0.99944 -0.0020753 2.3153e-17)
(1.0008 -0.0035302 -1.7913e-18)
(1.0006 -0.0031905 2.7965e-17)
(1.0041 -0.0039789 1.2066e-18)
(1.0012 -0.0032071 -1.6278e-17)
(1.0093 -0.00037358 7.4357e-18)
(1.001 -0.0034578 -3.4562e-18)
(1.0126 0.011338 -2.9627e-18)
(1.01 -0.00033341 5.5101e-18)
(1.009 0.021721 -2.8394e-18)
(0.99883 -0.00018699 4.4233e-18)
(0.9992 -0.0017322 -6.6257e-18)
(0.99941 -0.0021174 -2.6994e-17)
(1.0008 -0.0035818 1.1717e-17)
(1.0006 -0.0032522 -1.9922e-17)
(1.0041 -0.004022 2.2089e-17)
(1.0012 -0.0032904 5.3068e-18)
(1.0093 -0.00039549 -7.0811e-18)
(1.0012 -0.0035352 -1.658e-18)
(1.0127 0.01118 -7.4089e-18)
(1.0103 -0.00029433 -8.9737e-18)
(1.0093 0.021249 3.9103e-18)
(0.99878 -0.00019421 -3.2582e-18)
(0.99916 -0.0017608 2.2032e-18)
(0.99938 -0.0021587 1.6402e-17)
(1.0008 -0.0036323 -1.5446e-17)
(1.0006 -0.0033135 3.2052e-17)
(1.0041 -0.0040653 -1.7142e-17)
(1.0012 -0.0033746 3.0933e-18)
(1.0094 -0.00042018 -1.1183e-17)
(1.0014 -0.0036131 5.4067e-18)
(1.0127 0.011019 -1.0328e-18)
(1.0106 -0.00025969 3.8423e-18)
(1.0096 0.020784 -1.7437e-18)
(0.99874 -0.0002013 3.9962e-18)
(0.99913 -0.0017888 1.7153e-18)
(0.99934 -0.0021993 -1.0935e-17)
(1.0008 -0.0036819 -3.1402e-19)
(1.0006 -0.0033746 -1.4161e-18)
(1.0042 -0.0041088 4.1464e-18)
(1.0013 -0.0034597 2.9359e-17)
(1.0094 -0.0004477 7.6485e-18)
(1.0016 -0.0036915 -1.6023e-17)
(1.0127 0.010854 -5.3618e-18)
(1.0109 -0.00022944 -3.6046e-18)
(1.0099 0.020327 1.8169e-18)
(0.99869 -0.00020825 -4.5805e-18)
(0.99909 -0.0018162 -6.3564e-18)