/*--------------------------------*- C++ -*----------------------------------*\
  =========                 |
  \\      /  F ield         | OpenFOAM: The Open Source CFD Toolbox
   \\    /   O peration     | Website:  https://openfoam.org
    \\  /    A nd           | Version:  6.0
     \\/     M anipulation  |
\*---------------------------------------------------------------------------*/
FoamFile
{
    version     2.0;
    format      ascii;
    class       volScalarField;
    location    "11";
    object      p;
}
// * * * * * * * * * * * * * * * * * * * * * * * * * * * * * * * * * * * * * //

dimensions      [0 2 -2 0 0 0 0];

internalField   nonuniform List<scalar> 
15500
(
0.019001
0.0190487
0.0191043
0.0191673
0.0192409
0.0193252
0.0194236
0.0195366
0.0196675
0.0198166
0.0199878
0.0201794
0.0203938
0.0206237
0.0208655
0.02111
0.0213483
0.0215653
0.0217376
0.0218427
0.0218402
0.0216881
0.0213424
0.020776
0.0199735
0.0189626
0.0177732
0.0160773
0.0143819
0.0133272
0.0190962
0.0191394
0.019192
0.0192534
0.0193257
0.0194089
0.0195058
0.0196166
0.0197447
0.0198903
0.0200571
0.0202455
0.0204572
0.0206868
0.0209291
0.0211785
0.0214297
0.021673
0.0219005
0.0220861
0.0221928
0.0221828
0.0220192
0.021673
0.0211208
0.0203903
0.0195593
0.0182296
0.0174029
0.0156707
0.0192539
0.0192909
0.0193373
0.0193941
0.0194627
0.0195439
0.0196397
0.0197504
0.0198786
0.0200241
0.0201902
0.0203767
0.0205858
0.0208125
0.0210516
0.0212969
0.0215404
0.0217777
0.021995
0.0221613
0.0222308
0.0221509
0.0218651
0.0213052
0.0203978
0.0191341
0.0176665
0.0157109
0.0146396
0.0124117
0.0195152
0.0195506
0.0195931
0.0196444
0.0197064
0.01978
0.0198677
0.0199704
0.0200909
0.0202295
0.0203893
0.0205703
0.0207745
0.0209978
0.0212377
0.0214862
0.021738
0.0219851
0.0222183
0.0224058
0.0225065
0.0224679
0.022227
0.0216866
0.0207208
0.0192522
0.0174276
0.0149833
0.0133147
0.0114189
0.019905
0.0199324
0.0199637
0.0200015
0.0200485
0.0201066
0.0201787
0.0202665
0.0203727
0.0204988
0.0206474
0.0208191
0.0210167
0.0212367
0.0214784
0.0217359
0.0220035
0.0222811
0.0225553
0.0228093
0.0230137
0.0231371
0.0231285
0.0228882
0.0222522
0.0210566
0.0193454
0.0167174
0.0143764
0.0123421
0.0203148
0.0203395
0.0203668
0.0203981
0.0204359
0.0204822
0.0205403
0.0206129
0.0207037
0.0208152
0.0209508
0.0211123
0.0213023
0.0215172
0.0217574
0.0220162
0.0222931
0.0225818
0.0228809
0.0231763
0.0234551
0.0237075
0.0239049
0.0239637
0.0237048
0.0228949
0.0214495
0.0187612
0.015785
0.0128939
0.0207464
0.0207613
0.0207793
0.0208012
0.0208296
0.0208663
0.0209145
0.020977
0.0210573
0.0211585
0.021284
0.0214366
0.0216193
0.0218267
0.0220582
0.0223067
0.0225674
0.0228395
0.0231131
0.0233793
0.0236341
0.0238802
0.0241133
0.0242724
0.0241888
0.0235975
0.0223216
0.0195764
0.0160993
0.0122118
0.0211109
0.0211269
0.0211479
0.0211731
0.0212039
0.0212414
0.0212885
0.0213478
0.0214232
0.0215185
0.0216373
0.0217833
0.0219585
0.0221562
0.0223729
0.0225971
0.0228242
0.0230432
0.0232472
0.0234184
0.0235534
0.0236591
0.0237481
0.0237846
0.0236284
0.0230253
0.0217649
0.0189474
0.0151283
0.0105469
0.0214899
0.0214963
0.0215104
0.0215312
0.0215605
0.0215989
0.0216484
0.0217109
0.0217889
0.0218857
0.0220037
0.0221467
0.0223162
0.0225034
0.0227007
0.0228937
0.0230707
0.0232237
0.0233262
0.0233612
0.0233136
0.0231917
0.0230149
0.0227726
0.0223592
0.0215612
0.0201824
0.0172709
0.0132393
0.00835855
0.021814
0.0218245
0.021845
0.021874
0.021912
0.0219591
0.0220166
0.022086
0.0221696
0.0222702
0.0223898
0.0225318
0.0226964
0.0228728
0.0230499
0.0232077
0.0233355
0.0234083
0.0234052
0.0232913
0.0230431
0.0226633
0.0221715
0.0215778
0.0208108
0.0197137
0.0181365
0.0151121
0.0109339
0.00602731
0.0222207
0.0222217
0.0222348
0.022259
0.0222956
0.022345
0.0224076
0.0224843
0.0225754
0.0226826
0.0228063
0.0229487
0.0231097
0.0232762
0.0234335
0.0235594
0.0236344
0.0236381
0.0235309
0.0232733
0.0228332
0.0222008
0.0213968
0.0204417
0.0192959
0.0178573
0.0160331
0.0128639
0.00855277
0.00374803
0.022622
0.0226317
0.0226542
0.022688
0.0227335
0.0227904
0.0228597
0.0229416
0.0230374
0.0231479
0.0232734
0.0234154
0.023572
0.0237288
0.0238684
0.0239638
0.0239961
0.0239314
0.023736
0.0233548
0.022748
0.0218938
0.0208095
0.0195202
0.0180103
0.0162281
0.0141372
0.0107908
0.00631849
0.00162121
0.0231669
0.0231677
0.0231816
0.023208
0.023249
0.0233047
0.0233755
0.0234617
0.0235623
0.0236775
0.0238057
0.0239471
0.0240996
0.0242474
0.0243702
0.0244399
0.0244304
0.0243165
0.0240417
0.0235572
0.0228071
0.0217651
0.0204386
0.0188563
0.0170153
0.0149049
0.0125328
0.00896747
0.00429048
-0.000352756
0.0237082
0.0237238
0.0237526
0.0237927
0.0238451
0.0239093
0.0239863
0.0240761
0.0241793
0.0242954
0.0244233
0.0245625
0.0247092
0.0248473
0.024955
0.0250005
0.024962
0.0247959
0.0244611
0.0238906
0.0230239
0.0218263
0.020295
0.0184584
0.0163189
0.0138985
0.0112404
0.00741936
0.00248775
-0.00218898
0.0244395
0.0244484
0.0244701
0.0245038
0.0245521
0.0246148
0.0246928
0.0247856
0.0248919
0.0250104
0.0251383
0.0252745
0.0254155
0.0255439
0.0256367
0.0256629
0.0255917
0.0253906
0.0249987
0.0243516
0.0233841
0.0220494
0.0203401
0.0182778
0.0158676
0.0131517
0.0101972
0.00608245
0.000853364
-0.00393857
0.0251819
0.0252114
0.0252532
0.0253047
0.0253671
0.0254394
0.0255234
0.0256181
0.0257246
0.0258412
0.0259664
0.0260981
0.0262316
0.0263495
0.0264286
0.0264343
0.026339
0.0260953
0.025656
0.024942
0.0238847
0.0224274
0.0205563
0.0182848
0.0156176
0.0126125
0.00935387
0.00491707
-0.000646621
-0.00563324
0.0261506
0.0261721
0.0262053
0.0262488
0.0263062
0.0263764
0.0264611
0.0265587
0.0266683
0.0267871
0.0269122
0.0270404
0.0271674
0.027275
0.0273395
0.0273265
0.0272006
0.0269282
0.0264349
0.0256549
0.0245047
0.0229265
0.0208955
0.0184212
0.0155024
0.0122087
0.00863179
0.00384554
-0.00207818
-0.00731709
0.027103
0.0271496
0.0272085
0.0272752
0.0273519
0.0274361
0.0275305
0.027633
0.0277453
0.0278641
0.0279875
0.028112
0.0282316
0.0283283
0.0283783
0.0283445
0.0281968
0.0278791
0.0273394
0.0264904
0.025247
0.0235455
0.021351
0.0186688
0.0154911
0.0118996
0.00799343
0.00283792
-0.00346522
-0.00900959
0.0283198
0.0283586
0.0284093
0.028469
0.0285423
0.0286265
0.0287242
0.0288322
0.0289497
0.0290722
0.0291965
0.0293181
0.0294319
0.0295179
0.0295528
0.0295006
0.0293198
0.0289691
0.0283706
0.0274424
0.0260961
0.0242565
0.0218866
0.0189835
0.0155374
0.0116364
0.00738444
0.0018409
-0.00485359
-0.0107359
0.0295316
0.0295992
0.0296795
0.0297657
0.0298609
0.0299608
0.0300694
0.0301827
0.0303033
0.0304262
0.0305495
0.0306682
0.0307752
0.0308509
0.0308714
0.030797
0.0305892
0.0301874
0.0295313
0.0285197
0.0270614
0.0250723
0.0225113
0.0193687
0.0156334
0.0114042
0.00679206
0.000847379
-0.00624891
-0.0125022
0.0310441
0.0311003
0.0311684
0.0312444
0.0313339
0.0314328
0.0315448
0.0316647
0.0317924
0.0319212
0.0320477
0.0321654
0.032268
0.0323344
0.0323396
0.0322434
0.0319974
0.0315571
0.0308265
0.0297207
0.0281308
0.0259733
0.0231982
0.0197955
0.0157515
0.0111768
0.00618621
-0.000173542
-0.00767756
-0.0143207
0.032516
0.0326047
0.032707
0.0328142
0.0329303
0.0330492
0.0331762
0.0333053
0.0334398
0.0335726
0.0337014
0.0338188
0.0339167
0.0339739
0.0339642
0.0338431
0.033568
0.0330653
0.0322653
0.0310549
0.029323
0.0269806
0.02397
0.0202817
0.0159012
0.0109558
0.00557166
-0.00121501
-0.00913304
-0.0161899
0.0343299
0.0344061
0.0344957
0.0345927
0.0347041
0.0348239
0.0349567
0.0350953
0.0352396
0.0353807
0.0355148
0.0356331
0.0357286
0.0357775
0.0357526
0.035609
0.0352907
0.0347399
0.0338523
0.0325209
0.0306292
0.0280763
0.0248059
0.0208052
0.0160658
0.0107289
0.00493227
-0.00229345
-0.0106308
-0.018114
0.0361159
0.0362282
0.0363554
0.0364862
0.0366259
0.0367665
0.0369148
0.0370628
0.0372145
0.0373604
0.0374983
0.0376183
0.0377108
0.0377523
0.0377132
0.0375435
0.0371895
0.036568
0.0355946
0.0341355
0.0320707
0.0292896
0.0257352
0.021393
0.0162626
0.0105062
0.00427967
-0.00339596
-0.0121604
-0.0200885
0.0382759
0.0383717
0.0384817
0.0385987
0.0387313
0.0388717
0.0390263
0.0391851
0.0393491
0.0395065
0.0396533
0.0397774
0.0398703
0.0399059
0.0398524
0.0396576
0.0392555
0.0385798
0.0374998
0.0358996
0.0336378
0.0306048
0.0267367
0.0220259
0.016479
0.0102816
0.00360532
-0.0045321
-0.0137306
-0.022114
0.0403609
0.0404975
0.040651
0.0408077
0.0409745
0.0411412
0.0413165
0.0414898
0.0416664
0.0418341
0.0419895
0.0421198
0.0422134
0.0422443
0.0421776
0.0419554
0.0415169
0.0407591
0.0395805
0.0378286
0.0353576
0.0320527
0.0278452
0.0227343
0.016736
0.0100663
0.00292263
-0.00568917
-0.0153301
-0.0241866
0.0428515
0.0429721
0.0431098
0.0432548
0.0434178
0.0435885
0.0437749
0.0439642
0.0441583
0.044342
0.0445107
0.0446493
0.0447474
0.0447754
0.0446965
0.0444507
0.0439617
0.0431409
0.0418426
0.0399205
0.0372205
0.0336146
0.0290394
0.0234972
0.0170221
0.00985726
0.00222598
-0.00687201
-0.0169647
-0.0263044
0.0452776
0.0454447
0.0456313
0.0458206
0.0460215
0.0462213
0.0464312
0.0466374
0.0468471
0.0470443
0.0472259
0.0473751
0.0474784
0.0475058
0.0474174
0.0471478
0.046619
0.0457102
0.0442969
0.042198
0.0392537
0.0353263
0.0303551
0.0243479
0.0173579
0.00966494
0.00152656
-0.00806981
-0.0186256
-0.0284637
0.0481347
0.0482832
0.0484514
0.0486275
0.0488245
0.04903
0.0492542
0.0494808
0.0497133
0.0499327
0.0501342
0.0502981
0.0504113
0.050443
0.050349
0.0500602
0.0494852
0.0485085
0.0469528
0.0446605
0.0414444
0.0371683
0.0317675
0.0252644
0.0177315
0.00948784
0.000821554
-0.00928518
-0.0203145
-0.0306612
0.0508686
0.0510708
0.0512962
0.0515255
0.0517694
0.0520125
0.0522689
0.0525211
0.0527782
0.05302
0.0532431
0.0534257
0.0535544
0.0535947
0.0535012
0.053204
0.0525847
0.0515058
0.0498248
0.0473276
0.0438247
0.0391757
0.0333152
0.0262793
0.0181629
0.00933234
0.000119511
-0.0105113
-0.0220248
-0.0328946
0.0540579
0.0542433
0.0544537
0.0546745
0.0549209
0.0551776
0.055457
0.0557389
0.0560284
0.0563018
0.0565553
0.0567648
0.0569149
0.0569703
0.0568892
0.05656
0.0558935
0.0547465
0.0529093
0.0501912
0.0463794
0.0413249
0.0349719
0.0273676
0.0186401
0.0091992
-0.00058108
-0.0117467
-0.023756
-0.0351585
0.0571188
0.0573659
0.0576415
0.0579231
0.0582239
0.0585254
0.0588451
0.0591607
0.0594849
0.0597921
0.0600802
0.0603219
0.060498
0.0605742
0.0604807
0.060151
0.0594418
0.058187
0.0562252
0.0532781
0.0491386
0.0436539
0.0367747
0.0285631
0.0191803
0.0090917
-0.00127555
-0.0129878
-0.0255049
-0.0374521
0.0606269
0.0608582
0.0611231
0.0614034
0.0617172
0.0620451
0.0624026
0.0627634
0.0631358
0.06349
0.0638224
0.0641028
0.0643102
0.0644018
0.0643313
0.0639718
0.0632157
0.0619103
0.0597733
0.0565784
0.0520824
0.0461375
0.0386938
0.0298391
0.0197713
0.00901253
-0.00196205
-0.0142304
-0.0272663
-0.0397682
0.0640106
0.064316
0.0646622
0.0650202
0.0654056
0.0657923
0.0662031
0.0666088
0.0670269
0.0674256
0.0678038
0.0681278
0.068372
0.0684959
0.0684212
0.0680689
0.0672861
0.0658575
0.0635744
0.0601141
0.0552438
0.0488104
0.0407671
0.0312275
0.0204288
0.00896015
-0.00263894
-0.0154748
-0.0290397
-0.0421084
0.0681414
0.0684322
0.0687558
0.0690907
0.0694618
0.0698488
0.0702744
0.0707091
0.0711652
0.0716078
0.072033
0.0724036
0.0726917
0.0728468
0.0728097
0.0724413
0.0716067
0.0701075
0.0676189
0.0638697
0.0586008
0.0516436
0.0429632
0.0326988
0.021141
0.00894076
-0.00330218
-0.0167115
-0.0308161
-0.0444631
0.0718207
0.0721885
0.0726054
0.0730385
0.0735068
0.0739805
0.0744867
0.0749908
0.0755139
0.0760189
0.0765057
0.0769349
0.0772764
0.0774813
0.0774572
0.0771057
0.0762332
0.0745897
0.0719232
0.0678734
0.0621837
0.0546731
0.0453168
0.0342854
0.0219197
0.00894911
-0.00395401
-0.0179437
-0.0325992
-0.046835
0.0762635
0.0766307
0.0770438
0.0774764
0.0779543
0.0784516
0.0789943
0.079546
0.0801239
0.0806876
0.0812356
0.081726
0.0821272
0.0823804
0.0824101
0.0820453
0.0811158
0.0793845
0.0764818
0.0721108
0.0659683
0.0578695
0.047794
0.0359563
0.0227544
0.00899407
-0.00458583
-0.0191585
-0.0343737
-0.0492127
0.0807849
0.0812091
0.0816745
0.0821562
0.0826746
0.083208
0.0837859
0.0843758
0.0849998
0.0856182
0.0862282
0.0867848
0.0872514
0.087569
0.0876235
0.0872818
0.0863126
0.0844202
0.0813188
0.0766082
0.0699885
0.0612645
0.0504295
0.0377406
0.0236542
0.00906479
-0.005203
-0.0203634
-0.0361465
-0.0516024
0.0854837
0.0859181
0.0864059
0.08692
0.0874864
0.0880795
0.0887272
0.0893922
0.0900939
0.0907896
0.0914772
0.0921099
0.0926504
0.0930306
0.0931487
0.0928017
0.0917752
0.0897838
0.0864248
0.0813483
0.0742192
0.0648276
0.0531888
0.0396063
0.0246101
0.00917499
-0.00579409
-0.0215385
-0.037897
-0.0539892
0.0904815
0.0909674
0.091503
0.092062
0.0926699
0.0933032
0.093996
0.0947112
0.0954739
0.0962397
0.0970045
0.0977175
0.0983372
0.0987926
0.0989468
0.0986313
0.0975618
0.0954039
0.0918202
0.0863609
0.0786892
0.068589
0.0561007
0.0415812
0.0256256
0.00930913
-0.00636832
-0.0226939
-0.0396374
-0.0563817
0.0957368
0.0962359
0.0967944
0.097384
0.0980368
0.098726
0.0994855
0.100274
0.101116
0.101963
0.102812
0.103611
0.104315
0.104843
0.105071
0.104754
0.103631
0.101365
0.0974948
0.0916248
0.0833702
0.0725176
0.0591306
0.0436325
0.0266945
0.00948479
-0.00690835
-0.0238048
-0.0413392
-0.0587625
0.101234
0.101794
0.102408
0.103049
0.103749
0.104482
0.10529
0.106134
0.107042
0.107967
0.108903
0.109793
0.110588
0.111203
0.111476
0.111198
0.110034
0.10759
0.103469
0.0971617
0.0882875
0.0766337
0.0623025
0.0457825
0.027816
0.00968029
-0.00742619
-0.0248852
-0.0430179
-0.0611452
0.106893
0.107478
0.108128
0.108815
0.109574
0.110379
0.111269
0.112201
0.113202
0.114225
0.115262
0.116254
0.117148
0.117851
0.118209
0.11794
0.116724
0.114158
0.10972
0.102942
0.0934078
0.0809049
0.0655813
0.0479977
0.0289864
0.00991921
-0.00790054
-0.0259016
-0.0446389
-0.063508
0.112753
0.113407
0.114124
0.114876
0.115697
0.116564
0.117521
0.118528
0.119617
0.120738
0.121883
0.122987
0.123991
0.124798
0.125219
0.125
0.123741
0.120986
0.11626
0.108985
0.0987451
0.0853433
0.0689802
0.0502968
0.0301971
0.0101747
-0.00834727
-0.0268704
-0.0462246
-0.0658685
0.118793
0.119481
0.120243
0.121049
0.121939
0.122888
0.123939
0.125047
0.126246
0.127482
0.128748
0.129976
0.131102
0.132018
0.132541
0.132342
0.131036
0.128142
0.123059
0.115251
0.104261
0.089914
0.0724644
0.052645
0.0314483
0.0104741
-0.00873743
-0.0277521
-0.0477305
-0.0682026
0.125
0.125762
0.126596
0.127474
0.128435
0.129456
0.130588
0.131787
0.133091
0.134447
0.135842
0.137206
0.138468
0.13951
0.140119
0.139985
0.138637
0.135537
0.130124
0.121747
0.109961
0.0946147
0.0760379
0.055053
0.032725
0.0107841
-0.00908945
-0.0285683
-0.0491842
-0.0705359
0.131331
0.132133
0.133021
0.133962
0.135004
0.136119
0.13736
0.138678
0.140112
0.141606
0.143148
0.144662
0.146071
0.14725
0.147983
0.147885
0.146491
0.143229
0.137414
0.128427
0.1158
0.0994103
0.0796662
0.0574861
0.0340301
0.0111386
-0.00936906
-0.0292681
-0.0505342
-0.0728389
0.137809
0.138689
0.139655
0.140674
0.141795
0.142995
0.144331
0.145758
0.147319
0.148955
0.150652
0.152329
0.153901
0.155234
0.156077
0.156057
0.154614
0.151127
0.144927
0.135293
0.121771
0.104287
0.0833389
0.0599489
0.0353399
0.0114991
-0.00959867
-0.0298768
-0.0518175
-0.0751432
0.144409
0.145336
0.146361
0.147451
0.148659
0.149961
0.151415
0.152973
0.154678
0.156473
0.158338
0.160192
0.161938
0.163434
0.164422
0.164449
0.162958
0.159275
0.152618
0.142291
0.127828
0.109208
0.0870246
0.0624061
0.0366615
0.0119041
-0.00973379
-0.0303348
-0.0529718
-0.0774161
0.151106
0.152115
0.153222
0.154395
0.155691
0.157087
0.158651
0.160333
0.162183
0.164143
0.166189
0.168232
0.170169
0.171843
0.172964
0.173076
0.171526
0.167586
0.160478
0.149412
0.133952
0.114145
0.0907017
0.0648532
0.0379643
0.0123097
-0.00979874
-0.0306744
-0.0540419
-0.0797012
0.157873
0.158935
0.160108
0.16136
0.162753
0.164263
0.165958
0.167788
0.169804
0.171945
0.174186
0.176435
0.178574
0.180437
0.181719
0.181885
0.180274
0.176094
0.168458
0.156599
0.140093
0.119066
0.0943416
0.067256
0.0392582
0.0127621
-0.00974163
-0.0308228
-0.0549588
-0.0819583
0.164722
0.165868
0.167128
0.168469
0.169957
0.171572
0.17339
0.175361
0.177542
0.179871
0.182319
0.184785
0.187143
0.189206
0.190636
0.190887
0.189195
0.184713
0.176541
0.163836
0.146223
0.123928
0.097908
0.0696039
0.0405044
0.0132143
-0.00959104
-0.0308176
-0.0557807
-0.0842419
0.171636
0.172841
0.174173
0.175598
0.177189
0.178925
0.180883
0.183014
0.185375
0.187906
0.190572
0.19327
0.195856
0.19813
0.199729
0.200029
0.198251
0.193466
0.184675
0.171063
0.152292
0.128702
0.101378
0.0718627
0.0417183
0.0137174
-0.00928143
-0.0305775
-0.0564282
-0.0865074
0.17858
0.179873
0.181296
0.182818
0.184513
0.186364
0.188458
0.190746
0.193291
0.196031
0.198929
0.20187
0.2047
0.207194
0.208949
0.20932
0.207423
0.20227
0.192838
0.178252
0.158262
0.133332
0.104706
0.0740146
0.042856
0.0142214
-0.008843
-0.030151
-0.056971
-0.0888263
0.185547
0.186905
0.188408
0.190021
0.191829
0.193811
0.19606
0.198523
0.201267
0.204231
0.207371
0.210572
0.213655
0.21638
0.218309
0.2187
0.216672
0.211135
0.200973
0.185346
0.164081
0.137795
0.107873
0.0760275
0.0439365
0.014788
-0.00819972
-0.0294426
-0.0573246
-0.0911432
0.192537
0.193985
0.195583
0.197297
0.199214
0.201322
0.203717
0.206351
0.209297
0.212491
0.215891
0.219362
0.222718
0.225689
0.22774
0.228172
0.225969
0.219986
0.209053
0.19231
0.169704
0.142025
0.110819
0.0778796
0.0449114
0.0153682
-0.00738734
-0.0285105
-0.0575768
-0.0935435
0.199553
0.201073
0.202753
0.204561
0.206591
0.208832
0.211385
0.214204
0.217365
0.220808
0.224478
0.228239
0.231884
0.235055
0.237265
0.237681
0.23529
0.228825
0.217025
0.199084
0.175083
0.146004
0.113536
0.0795394
0.0458077
0.0160324
-0.00631219
-0.0272513
-0.0576343
-0.0959656
0.206582
0.208184
0.209948
0.211848
0.213985
0.216354
0.219064
0.222072
0.22546
0.229165
0.233125
0.237187
0.241095
0.244509
0.24683
0.247243
0.244623
0.237593
0.224853
0.205626
0.180164
0.149653
0.115954
0.0809796
0.0465772
0.0167328
-0.00501281
-0.0257397
-0.0576014
-0.0985142
0.213544
0.215207
0.217053
0.219054
0.221318
0.223839
0.226732
0.22995
0.23358
0.237564
0.241821
0.246189
0.250394
0.25402
0.256473
0.256852
0.253947
0.246273
0.232484
0.211877
0.184899
0.152965
0.118072
0.0821751
0.0472531
0.0175558
-0.00338306
-0.0238605
-0.0573827
-0.101118
0.220392
0.222166
0.224137
0.226266
0.228673
0.231352
0.234429
0.23786
0.241741
0.24601
0.250581
0.255271
0.259765
0.263632
0.266195
0.266502
0.26323
0.254814
0.239871
0.217789
0.189231
0.155854
0.119808
0.0830971
0.0477883
0.018459
-0.00147102
-0.0217046
-0.0571053
-0.103896
0.227541
0.22937
0.231404
0.233611
0.236123
0.238937
0.242185
0.245823
0.249952
0.254513
0.259406
0.264431
0.269241
0.273331
0.275988
0.276164
0.272449
0.263177
0.246967
0.223304
0.193114
0.158319
0.121174
0.0837257
0.0482315
0.019542
0.000848181
-0.0191536
-0.0566681
-0.106771
0.234374
0.236325
0.238494
0.24084
0.243506
0.246487
0.249928
0.253791
0.258186
0.263055
0.268291
0.273668
0.278794
0.283118
0.285832
0.28582
0.281563
0.271332
0.253719
0.228368
0.196493
0.160267
0.122084
0.0840302
0.0485426
0.0207656
0.00351823
-0.0163239
-0.0562186
-0.10988
0.241324
0.243355
0.245613
0.248068
0.250867
0.254014
0.257656
0.261758
0.266433
0.271629
0.277222
0.282968
0.288429
0.292967
0.295713
0.295448
0.29056
0.279228
0.260088
0.232933
0.199322
0.161711
0.122558
0.0840066
0.0487851
0.0222513
0.00667447
-0.0130903
-0.0556566
-0.113138
0.248036
0.250191
0.252592
0.2552
0.258171
0.261508
0.265371
0.269728
0.274701
0.280238
0.286209
0.292336
0.29813
0.302882
0.305621
0.305041
0.299413
0.286863
0.266017
0.236943
0.201548
0.162554
0.122501
0.0836283
0.0489266
0.0239671
0.0102417
-0.00959375
-0.0551548
-0.116694
0.254948
0.257185
0.259681
0.262404
0.265519
0.269036
0.273119
0.277738
0.283017
0.288909
0.295264
0.301784
0.307917
0.312863
0.315563
0.314594
0.308117
0.294165
0.271484
0.240358
0.203137
0.162823
0.121956
0.0829066
0.049058
0.0260518
0.0143696
-0.00571232
-0.054609
-0.120456
0.261758
0.264111
0.266739
0.269607
0.272889
0.276601
0.280915
0.285806
0.291405
0.297663
0.304419
0.311335
0.317805
0.322932
0.325546
0.324111
0.316651
0.301158
0.27642
0.243115
0.204037
0.162413
0.120826
0.0818192
0.0491614
0.028473
0.0189628
-0.00162015
-0.0542136
-0.12459
0.268717
0.271163
0.273895
0.276889
0.280327
0.284233
0.288783
0.293958
0.29989
0.306532
0.313698
0.321024
0.327826
0.333112
0.335593
0.333598
0.325014
0.307754
0.280813
0.24519
0.204215
0.161373
0.119171
0.0804107
0.0493526
0.0313932
0.0241726
0.00280461
-0.0538652
-0.128991
0.275588
0.278157
0.28103
0.28418
0.287801
0.291922
0.296729
0.302207
0.308493
0.315537
0.323136
0.330877
0.338015
0.34343
0.34572
0.343065
0.333192
0.313997
0.28458
0.246512
0.203624
0.159596
0.116894
0.0786715
0.0496251
0.0347792
0.0298708
0.00735655
-0.0537809
-0.133837
0.28261
0.285282
0.288271
0.291561
0.295357
0.299697
0.304772
0.310572
0.317233
0.324707
0.332758
0.340935
0.348401
0.353909
0.355948
0.352522
0.341182
0.319769
0.287724
0.247061
0.20224
0.157147
0.114085
0.0766789
0.050132
0.0388052
0.0362093
0.0121486
-0.0538533
-0.139013
0.289591
0.292386
0.295519
0.298975
0.30297
0.30755
0.312916
0.319062
0.326133
0.334065
0.342599
0.351233
0.358996
0.364585
0.366303
0.361985
0.348972
0.325138
0.290143
0.246753
0.200016
0.153914
0.110658
0.0744353
0.0508816
0.0434228
0.0430243
0.0169395
-0.0543163
-0.144705
0.296647
0.299565
0.302836
0.306456
0.310655
0.315491
0.321172
0.327698
0.335212
0.343641
0.352697
0.36177
0.369871
0.375494
0.376831
0.371476
0.356558
0.329959
0.291846
0.245587
0.196931
0.149996
0.106734
0.0720716
0.0520551
0.0488178
0.0504533
0.021837
-0.0550611
-0.150786
0.303667
0.306722
0.310154
0.313963
0.318393
0.323512
0.32954
0.336484
0.344485
0.353454
0.36305
0.372628
0.381053
0.386708
0.387588
0.381023
0.363933
0.334319
0.292708
0.243464
0.192937
0.145283
0.102235
0.0696109
0.0536628
0.0549201
0.0582856
0.0265701
-0.0563348
-0.157448
0.31075
0.313945
0.317536
0.321535
0.326204
0.331626
0.338029
0.345431
0.353961
0.363522
0.373721
0.38384
0.392633
0.398302
0.398616
0.390634
0.371073
0.338028
0.292756
0.240389
0.188031
0.139903
0.0973401
0.0672315
0.0559196
0.0619075
0.0666427
0.0312369
-0.0580211
-0.164557
0.317817
0.321163
0.32493
0.329141
0.334074
0.339827
0.346644
0.354549
0.363672
0.373888
0.384763
0.395482
0.404673
0.410316
0.409941
0.400322
0.377964
0.341193
0.291833
0.236251
0.18217
0.133755
0.0919922
0.0649735
0.0588321
0.0696695
0.0752662
0.0355389
-0.0603734
-0.17231
0.324853
0.328366
0.332323
0.336764
0.341988
0.348112
0.35539
0.36386
0.373646
0.3846
0.396218
0.407607
0.417213
0.422786
0.421588
0.410083
0.384563
0.343589
0.289979
0.231081
0.175364
0.127022
0.0864208
0.0630766
0.0626268
0.0783688
0.0842512
0.0395708
-0.0632675
-0.180557
0.331806
0.335505
0.339682
0.344392
0.349947
0.356487
0.364283
0.373381
0.383909
0.395681
0.408134
0.420245
0.430289
0.435745
0.433587
0.41993
0.39086
0.34533
0.287009
0.224755
0.167582
0.119628
0.0805973
0.0615979
0.0672845
0.087844
0.0932902
0.0430167
-0.0669562
-0.189489
0.338798
0.342688
0.347092
0.352081
0.357992
0.364989
0.373353
0.383145
0.394491
0.407172
0.420533
0.433445
0.443948
0.449239
0.445963
0.429853
0.396784
0.346151
0.282986
0.21733
0.158878
0.11181
0.0748214
0.0608186
0.0730332
0.0982215
0.102452
0.04597
-0.0713043
-0.198943
0.345857
0.349947
0.354585
0.359871
0.366163
0.373651
0.382634
0.393185
0.405431
0.419106
0.433475
0.447249
0.458238
0.463309
0.458748
0.439862
0.402316
0.346173
0.2777
0.208681
0.149245
0.103534
0.0690953
0.0607959
0.0798108
0.109274
0.111387
0.0481064
-0.0765586
-0.209099
0.352998
0.357296
0.36218
0.367777
0.374476
0.382497
0.392155
0.403535
0.416767
0.431535
0.446995
0.461717
0.473213
0.478001
0.471963
0.44993
0.407355
0.3451
0.271237
0.198913
0.138787
0.0951134
0.0637766
0.0618457
0.087813
0.121082
0.120137
0.0495248
-0.0825722
-0.219781
0.360151
0.364675
0.369827
0.375767
0.382913
0.391521
0.401922
0.414217
0.428533
0.444498
0.461157
0.476897
0.488918
0.493349
0.485636
0.46005
0.41186
0.343037
0.263368
0.187915
0.127543
0.0865682
0.0588964
0.0640057
0.0969074
0.133349
0.128322
0.0499048
-0.0895763
-0.231159
0.367302
0.372069
0.37751
0.383822
0.39146
0.400714
0.411939
0.425246
0.440759
0.45804
0.476
0.492833
0.505396
0.509404
0.499793
0.47017
0.415683
0.339654
0.254214
0.175842
0.115705
0.078285
0.0548598
0.0675849
0.107239
0.146098
0.135965
0.0493552
-0.0974119
-0.243043
0.374407
0.379437
0.385194
0.391915
0.400096
0.410068
0.422206
0.436634
0.453467
0.472199
0.491553
0.509579
0.522699
0.526216
0.514453
0.480239
0.418729
0.335033
0.243547
0.16263
0.10338
0.0703486
0.0517063
0.0725685
0.118587
0.158963
0.142671
0.0475736
-0.106293
-0.255586
0.381474
0.386781
0.392876
0.40004
0.408817
0.419581
0.43273
0.448391
0.466688
0.486973
0.507884
0.527175
0.540883
0.543823
0.529596
0.490153
0.420796
0.328828
0.231528
0.148511
0.0908703
0.0632102
0.0498468
0.0792225
0.131019
0.17191
0.148455
0.0446832
-0.116047
-0.268588
0.388479
0.394085
0.400545
0.408191
0.41762
0.429256
0.443517
0.460542
0.48042
0.502444
0.525023
0.545684
0.559987
0.562229
0.545198
0.499801
0.421716
0.321085
0.217957
0.133493
0.0783855
0.0569956
0.0493072
0.0874408
0.144214
0.184516
0.152932
0.0404081
-0.126861
-0.282185
0.395468
0.401385
0.408232
0.416393
0.426532
0.43912
0.454602
0.473117
0.494745
0.518649
0.543057
0.565163
0.58004
0.581441
0.561209
0.509011
0.421243
0.311445
0.203073
0.117907
0.066366
0.0521775
0.0504488
0.0973908
0.158153
0.1967
0.156117
0.034892
-0.138554
-0.296166
0.40247
0.408721
0.415982
0.424698
0.435604
0.449232
0.466052
0.486205
0.509738
0.535689
0.562051
0.585652
0.601058
0.601466
0.577541
0.517616
0.419092
0.299987
0.186732
0.101898
0.0551361
0.0488762
0.0532264
0.108845
0.172417
0.208004
0.157654
0.0278975
-0.151286
-0.310646
0.409587
0.416178
0.423864
0.433165
0.4449
0.459661
0.47795
0.499892
0.525502
0.553636
0.582055
0.607163
0.623064
0.622301
0.594121
0.525371
0.414989
0.286401
0.169306
0.0859387
0.0452762
0.0474696
0.0578747
0.121832
0.1869
0.218312
0.157571
0.0195883
-0.164867
-0.325407
0.416808
0.42377
0.431917
0.441856
0.454489
0.470485
0.490375
0.514272
0.542117
0.572583
0.603126
0.6297
0.64606
0.643922
0.610792
0.531993
0.408584
0.270862
0.150758
0.0703811
0.0372303
0.0479336
0.0642167
0.135971
0.201119
0.227158
0.155568
0.00976804
-0.179425
-0.340545
0.424214
0.431578
0.440224
0.450849
0.464459
0.481795
0.503431
0.529443
0.559703
0.592614
0.62533
0.653334
0.670092
0.666317
0.627391
0.537194
0.399596
0.253184
0.131691
0.0559886
0.0316068
0.0503254
0.0722276
0.151128
0.214894
0.234416
0.151695
-0.00137509
-0.194763
-0.355836
0.43192
0.439714
0.448894
0.460263
0.474926
0.493715
0.517238
0.545542
0.578375
0.613875
0.648758
0.678105
0.695134
0.689328
0.643677
0.540575
0.387698
0.233868
0.112262
0.0439901
0.0288666
0.0542368
0.0813989
0.166761
0.227708
0.239651
0.145717
-0.0139884
-0.21098
-0.371357
0.440079
0.448328
0.458076
0.470236
0.486034
0.506388
0.531952
0.562712
0.598314
0.636465
0.6735
0.704071
0.721183
0.712893
0.659497
0.541813
0.37263
0.212784
0.0942237
0.0364361
0.0293529
0.0593582
0.091231
0.182547
0.239339
0.24275
0.137725
-0.0278607
-0.227874
-0.386888
0.448886
0.457609
0.467949
0.480949
0.497957
0.519993
0.547739
0.581141
0.619616
0.660552
0.699671
0.731349
0.748221
0.736878
0.674611
0.540459
0.354316
0.191461
0.0802687
0.0340449
0.0319283
0.0651242
0.100873
0.197805
0.249281
0.243329
0.127567
-0.0430922
-0.245511
-0.402485
0.458551
0.467763
0.47872
0.492598
0.510888
0.534706
0.564793
0.600947
0.642483
0.686208
0.727362
0.760116
0.776463
0.761398
0.688973
0.536147
0.333376
0.174197
0.0718098
0.0344849
0.0350188
0.0712659
0.109704
0.21217
0.257299
0.241316
0.115372
-0.0594476
-0.263688
-0.417913
0.469327
0.479035
0.49062
0.505406
0.525029
0.550738
0.583272
0.622391
0.66706
0.713609
0.756658
0.790451
0.805968
0.786519
0.702293
0.528008
0.310607
0.164218
0.0667973
0.035338
0.0381998
0.0790569
0.118095
0.225107
0.262929
0.236416
0.101066
-0.0769807
-0.28243
-0.433195
0.481528
0.491725
0.503945
0.519652
0.540664
0.568341
0.603506
0.645712
0.693605
0.74289
0.787718
0.8225
0.836883
0.812807
0.715071
0.517472
0.292775
0.156143
0.0636693
0.0369652
0.0420006
0.0907398
0.127741
0.236449
0.265912
0.228634
0.0848291
-0.0954234
-0.301509
-0.448126
0.49558
0.506265
0.519108
0.535743
0.558166
0.587893
0.625759
0.671212
0.722328
0.77412
0.82053
0.855898
0.868883
0.840127
0.726277
0.505561
0.283792
0.14643
0.0641541
0.0411698
0.0463809
0.106801
0.139498
0.245538
0.26578
0.217832
0.0666936
-0.11476
-0.320912
-0.462751
0.511954
0.523113
0.536566
0.554105
0.577945
0.609726
0.650384
0.69908
0.753373
0.807368
0.855105
0.890193
0.901888
0.869504
0.738158
0.497577
0.275022
0.142128
0.0711088
0.0489516
0.0508973
0.125091
0.152421
0.251523
0.262232
0.204181
0.0468856
-0.134673
-0.340435
-0.476857
0.531207
0.542818
0.556835
0.575234
0.600441
0.634265
0.677624
0.729498
0.786697
0.842534
0.891213
0.924858
0.936125
0.901004
0.75128
0.497874
0.266187
0.15279
0.0841723
0.0598765
0.0561297
0.142064
0.164358
0.253208
0.254982
0.187725
0.0255017
-0.155121
-0.36005
-0.490426
0.553974
0.565993
0.580516
0.599691
0.626186
0.661952
0.707943
0.762595
0.822092
0.879398
0.927796
0.959064
0.971827
0.935385
0.765506
0.505124
0.263503
0.175396
0.100964
0.0724559
0.0629752
0.15491
0.17264
0.249767
0.243946
0.168726
0.00276988
-0.175854
-0.379571
-0.503229
0.581018
0.593404
0.608351
0.628194
0.655846
0.693439
0.741787
0.798738
0.859639
0.917983
0.963112
0.993322
1.01092
0.972372
0.787043
0.519691
0.267913
0.201014
0.119039
0.0857311
0.0718276
0.163434
0.175063
0.240337
0.228932
0.147329
-0.0212127
-0.196949
-0.398965
-0.515235
0.613243
0.625945
0.641227
0.661599
0.690254
0.729464
0.77985
0.838285
0.89974
0.957298
0.996365
1.0291
1.05569
1.01501
0.823756
0.54175
0.275578
0.22372
0.136122
0.0981102
0.0820511
0.168348
0.170682
0.224349
0.209651
0.123894
-0.0463433
-0.21828
-0.418076
-0.526248
0.651662
0.66464
0.680156
0.70091
0.730374
0.770939
0.822675
0.8818
0.943878
0.99653
1.03173
1.07089
1.10549
1.06701
0.87381
0.567842
0.285407
0.243123
0.149297
0.106866
0.0923659
0.169316
0.15926
0.201301
0.185702
0.0985639
-0.0726708
-0.239959
-0.436854
-0.536276
0.697366
0.710577
0.72623
0.747184
0.7772
0.818653
0.871088
0.929886
0.992232