/*--------------------------------*- C++ -*----------------------------------*\
  =========                 |
  \\      /  F ield         | OpenFOAM: The Open Source CFD Toolbox
   \\    /   O peration     | Website:  https://openfoam.org
    \\  /    A nd           | Version:  6.0
     \\/     M anipulation  |
\*---------------------------------------------------------------------------*/
FoamFile
{
    version     2.0;
    format      ascii;
    class       volScalarField;
    location    "3";
    object      p;
}
// * * * * * * * * * * * * * * * * * * * * * * * * * * * * * * * * * * * * * //

dimensions      [0 2 -2 0 0 0 0];

internalField   nonuniform List<scalar> 
47000
(
0.0249375
0.0261235
0.0278559
0.029683
0.0311721
0.0319191
0.031776
0.0306983
0.0288762
0.0264984
0.0238484
0.0211082
0.0184711
0.0160161
0.0138211
0.0118811
0.0102066
0.00876147
0.00753099
0.0064748
0.00557436
0.00479786
0.00412908
0.00354403
0.00302946
0.00256781
0.00214738
0.00175576
0.00140638
0.00120484
0.0248505
0.0260785
0.0279069
0.0299032
0.0316439
0.0327195
0.032958
0.0322793
0.0308366
0.0287855
0.0263913
0.0238262
0.0212888
0.0188648
0.016648
0.0146423
0.0128734
0.0113111
0.00995112
0.00875461
0.00770929
0.00678267
0.00596163
0.00521991
0.00454511
0.00391705
0.00332364
0.00275349
0.00222728
0.00186828
0.0246966
0.025903
0.0277041
0.0296987
0.0314901
0.0326837
0.0331031
0.0326493
0.0314482
0.0296273
0.0274317
0.0250193
0.0225865
0.0202194
0.0180198
0.0159974
0.0141875
0.0125647
0.011132
0.00985255
0.00871873
0.0076984
0.00678101
0.00593977
0.00516408
0.0044341
0.00374122
0.00308085
0.0024792
0.00206443
0.0244755
0.0256322
0.0273515
0.0292675
0.0310162
0.0322273
0.0327285
0.0324115
0.0313802
0.0297387
0.0277109
0.0254401
0.023116
0.0208223
0.0186648
0.0166565
0.0148398
0.0131928
0.0117246
0.0104002
0.00921606
0.00814084
0.00716671
0.00626719
0.0054341
0.00464919
0.00390786
0.00321139
0.0025836
0.00214078
0.0241904
0.0252862
0.0269011
0.0287045
0.0303664
0.0315435
0.0320729
0.0318418
0.0309372
0.0294428
0.0275627
0.0254254
0.023212
0.0210021
0.0189031
0.0169296
0.015129
0.0134826
0.0120041
0.0106607
0.00945217
0.00834845
0.0073442
0.00641369
0.00555113
0.00473986
0.00397849
0.00327124
0.00263439
0.00217427
0.0238397
0.0248698
0.0263715
0.0280474
0.0296004
0.0307156
0.0312411
0.0310639
0.030257
0.0288871
0.0271397
0.025129
0.0230265
0.0209071
0.0188773
0.0169529
0.0151846
0.0135563
0.0120857
0.0107414
0.00952687
0.00841288
0.00739653
0.00645293
0.00557838
0.00475758
0.00399116
0.00328436
0.00264445
0.00216752
0.0234316
0.0243951
0.0257845
0.0273313
0.0287694
0.0298109
0.0303166
0.0301748
0.0294477
0.0281869
0.0265613
0.0246715
0.0226793
0.0206539
0.0187004
0.0168343
0.0151093
0.0135108
0.01206
0.0107272
0.00951854
0.00840608
0.00738908
0.00644342
0.00556728
0.0047463
0.00398247
0.00328065
0.00263922
0.00215091
0.0229632
0.0238622
0.0251446
0.0265668
0.0278911
0.0288556
0.0293331
0.0292154
0.0285552
0.027392
0.0258791
0.0241046
0.0222206
0.0202906
0.0184173
0.0166156
0.0149409
0.0133803
0.0119577
0.0106447
0.00945021
0.00834725
0.00733705
0.00639631
0.00552475
0.00470876
0.00395099
0.00325549
0.00261262
0.00211193
0.0224413
0.0232812
0.0244652
0.0257721
0.0269897
0.02788
0.0283278
0.0282285
0.0276277
0.0265539
0.0251467
0.0234826
0.0217045
0.0198698
0.0180787
0.0163449
0.0147252
0.0132075
0.0118184
0.0105307
0.00935556
0.00826705
0.00726826
0.00633654
0.00547307
0.00466469
0.00391449
0.00322528
0.00258046
0.00207163
0.0218635
0.0226496
0.0237443
0.0249461
0.0260656
0.0268868
0.0273053
0.0272213
0.026674
0.0256829
0.024375
0.0228165
0.0211411
0.0194008
0.0176924
0.0160286
0.0144666
0.0129955
0.0116436
0.0103851
0.00923299
0.00816245
0.00717816
0.00625818
0.00540488
0.0046055
0.00386322
0.00317977
0.00253261
0.00201434
0.0212382
0.0219768
0.0229923
0.0241006
0.0251326
0.025892
0.0262848
0.0262155
0.0257185
0.0248053
0.0235918
0.0221346
0.0205591
0.0189116
0.0172858
0.0156927
0.0141903
0.0127678
0.0114556
0.0102286
0.0091019
0.00805145
0.00708358
0.00617688
0.00533489
0.00454505
0.00381066
0.00313229
0.0024823
0.00195819
0.0205622
0.0212584
0.022204
0.0232296
0.024184
0.0248889
0.0252596
0.0252052
0.0247557
0.0239162
0.0227925
0.0214324
0.0199536
0.0183969
0.0168529
0.015331
0.013889
0.0125168
0.011246
0.0100525
0.00895303
0.0079244
0.00697439
0.00608213
0.00525218
0.00447219
0.00374538
0.00307146
0.00241853
0.0018871
0.019844
0.0205039
0.0213888
0.0223427
0.0232302
0.0238886
0.0242422
0.0242042
0.0238012
0.0230324
0.0219948
0.0207284
0.0193434
0.0178757
0.0164126
0.0149615
0.0135805
0.0122593
0.011031
0.00987213
0.00880113
0.00779537
0.00686412
0.00598693
0.0051694
0.00439922
0.00367971
0.00300968
0.00235353
0.00181791
0.0190792
0.0197071
0.0205396
0.0214317
0.0222614
0.0228809
0.0232216
0.0232014
0.0228437
0.022143
0.0211881
0.020012
0.018718
0.0173372
0.0159538
0.0145733
0.0132534
0.0119841
0.0107993
0.00967615
0.00863466
0.00765279
0.00674112
0.00587964
0.00507484
0.00431453
0.00360196
0.00293544
0.00227621
0.00173478
0.0182766
0.0188778
0.0196659
0.0205056
0.0212872
0.0218752
0.0222083
0.0222082
0.0218958
0.0212614
0.0203866
0.0192979
0.0180926
0.0167969
0.015492
0.0141815
0.0129228
0.0117055
0.0105649
0.00947812
0.00846685
0.00750947
0.00661791
0.00577244
0.00498053
0.00422993
0.00352408
0.00286071
0.00219826
0.00165381
0.0174308
0.0180088
0.0187593
0.019555
0.0202966
0.0208599
0.0211897
0.0212116
0.0209443
0.0203745
0.0195773
0.0185735
0.0174545
0.016242
0.0150145
0.0137736
0.0125761
0.0114113
0.0103154
0.0092658
0.00828551
0.00735337
0.00648249
0.0056535
0.00487467
0.00413382
0.00343445
0.00277406
0.00210864
0.00155949
0.0165506
0.0171098
0.0178295
0.0185893
0.0192989
0.0198443
0.0201757
0.0202221
0.0200006
0.0194945
0.0187733
0.0178522
0.0168175
0.0156868
0.0145357
0.0133636
0.0122272
0.011115
0.0100641
0.00905216
0.00810337
0.00719687
0.00634706
0.00553471
0.00476906
0.00403783
0.0033448
0.00268719
0.00201873
0.00146741
0.0156295
0.0161726
0.0168672
0.0175982
0.0182828
0.0188161
0.0191532
0.0192264
0.0190509
0.0186076
0.0179605
0.0171203
0.0161682
0.0151178
0.0140421
0.0129384
0.011863
0.0108038
0.00979846
0.00882476
0.00790808
0.00702787
0.00619958
0.00540429
0.00465198
0.00393044
0.00324365
0.00258879
0.0019176
0.00136237
0.0146764
0.0152072
0.0158824
0.0165914
0.017258
0.0177852
0.0181325
0.0182349
0.0181067
0.0177257
0.0171519
0.0163911
0.01552
0.0145487
0.0135475
0.0125118
0.0114973
0.010491
0.00953149
0.00859635
0.00771219
0.00685857
0.00605213
0.00527402
0.00453514
0.0038232
0.00314257
0.00249034
0.00181637
0.00125958
0.0136838
0.0142044
0.014865
0.0155579
0.0162124
0.0167387
0.0170999
0.017234
0.0171536
0.0168348
0.016333
0.0156502
0.014859
0.0139657
0.0130384
0.0120703
0.0111166
0.0101636
0.00925042
0.00835444
0.00750335
0.00667689
0.00589272
0.00513216
0.0044069
0.00370468
0.0030302
0.00238065
0.00170423
0.00114413
0.0126609
0.0131747
0.0138254
0.0145079
0.0151564
0.0156869
0.0160662
0.0162345
0.0162034
0.0159469
0.0155168
0.0149111
0.0141987
0.0133825
0.0125285
0.0116276
0.0107346
0.00983493
0.00896826
0.00811169
0.00729403
0.00649499
0.00573336
0.00499046
0.00427889
0.00358632
0.00291797
0.00227105
0.0015921
0.00103089
0.0115991
0.0121077
0.0127526
0.0134298
0.0140773
0.0146168
0.0150176
0.0152224
0.0152416
0.0150475
0.0146885
0.0141592
0.0135248
0.0127851
0.0120038
0.01117
0.0103379
0.00949189
0.00867219
0.00785559
0.00707189
0.00630081
0.00556212
0.00483723
0.00413957
0.00345681
0.00279462
0.00215044
0.00146931
0.000905244
0.0105078
0.0110143
0.0116575
0.0123344
0.0129861
0.0135391
0.0139653
0.0142092
0.0142803
0.0141493
0.0138614
0.0134078
0.0128509
0.012187
0.0114782
0.0107112
0.00993993
0.00914766
0.0083752
0.00759881
0.00684937
0.00610646
0.00539096
0.00468418
0.00400049
0.00332749
0.00267148
0.00202999
0.00134659
0.000781765
0.00937782
0.00988334
0.0105285
0.0112094
0.0118698
0.0124404
0.0128952
0.0131806
0.0133048
0.0132373
0.0130204
0.0126425
0.0121626
0.0115743
0.0109376
0.0102375
0.00952729
0.00878918
0.0080644
0.00732879
0.00661413
0.00589993
0.005208
0.00451968
0.00385018
0.00318714
0.00253738
0.00189872
0.00121339
0.000646069
0.00821866
0.00872612
0.00937667
0.0100659
0.0107396
0.0113321
0.0118191
0.0121485
0.0123277
0.0123247
0.0121792
0.0118766
0.0114736
0.0109605
0.0103959
0.00976259
0.00911349
0.00842963
0.00775281
0.00705819
0.00637862
0.00569331
0.00502517
0.00435539
0.00370016
0.00304702
0.00240352
0.00176767
0.00108029
0.000512486
0.00702034
0.00753066
0.00818977
0.00889125
0.00958217
0.0102003
0.0107224
0.0110982
0.0113338
0.0113962
0.0113224
0.0110954
0.0107691
0.0103313
0.0098389
0.00927258
0.00868494
0.00805584
0.00742748
0.00677445
0.00613048
0.00547458
0.0048306
0.00417973
0.00353898
0.00289596
0.00225885
0.00162594
0.00093684
0.000366838
0.00579269
0.00630861
0.00697946
0.00769697
0.0084093
0.00905676
0.00961764
0.0100423
0.0103364
0.0104652
0.010464
0.0103128
0.0100634
0.00970076
0.00928055
0.00878126
0.00825526
0.00768108
0.00710148
0.00649025
0.00588215
0.00525584
0.00463624
0.00400432
0.00337813
0.00274517
0.00211445
0.00148445
0.000793504
0.00022323
0.00452503
0.00504726
0.00573265
0.00646972
0.00720696
0.00788731
0.00848969
0.00896572
0.00931986
0.00951635
0.00958824
0.00951332
0.00934114
0.0090541
0.00870639
0.00827459
0.00781072
0.00729204
0.00676175
0.00619294
0.00562126
0.00502506
0.00443021
0.00381761
0.00320621
0.00258353
0.00195933
0.0013324
0.000639911
6.76815e-05
0.00322748
0.00375863
0.00446148
0.00522153
0.00598756
0.00670434
0.0073516
0.00788155
0.00829791
0.00856345
0.00870954
0.00871143
0.00861687
0.00840557
0.00813066
0.00776651
0.00736504
0.00690209
0.00642144
0.00589527
0.00536028
0.00479434
0.00422444
0.0036312
0.00303464
0.0024222
0.00180451
0.0011806
0.000486413
-8.59164e-05
0.00188868
0.00242933
0.00315219
0.00393847
0.00473649
0.00549301
0.00618787
0.00677422
0.00725453
0.00759061
0.00781186
0.00789142
0.00787511
0.00774019
0.00753861
0.00724275
0.0069043
0.00649777
0.00606738
0.00558451
0.00508678
0.00455164
0.00400706
0.00343353
0.00285206
0.00225008
0.00163905
0.00101831
0.000322717
-0.000251367
0.000519092
0.00107177
0.00181735
0.00263305
0.00346671
0.00426631
0.00501209
0.00565746
0.00620405
0.00661224
0.00690998
0.00706799
0.00713061
0.00707249
0.00694471
0.00671745
0.00644241
0.00609257
0.00571282
0.00527349
0.00481327
0.00430908
0.00379001
0.00323624
0.00266988
0.00207828
0.00147389
0.000856242
0.000159081
-0.000414971
-0.000893295
-0.000328137
0.000442566
0.00129072
0.002163
0.00300886
0.00380822
0.00451515
0.00512993
0.00561196
0.00598745
0.00622508
0.00636755
0.00638713
0.00633393
0.00617609
0.00596522
0.00567288
0.00534445
0.00494937
0.00452726
0.00405457
0.00356139
0.00302773
0.00247673
0.00189575
0.00129813
0.000683739
-1.47234e-05
-0.000590369
-0.00233769
-0.00175756
-0.000959164
-7.55653e-05
0.000838841
0.00173422
0.00259045
0.0033616
0.00404706
0.00460471
0.00505951
0.00537781
0.00560104
0.00569896
0.00572099
0.00563303
0.00548682
0.00525231
0.00497563
0.00462505
0.00424133
0.00380027
0.00333317
0.00281962
0.00228401
0.00171355
0.00112267
0.000511427
-0.000188533
-0.000764047
-0.00382672
-0.00323124
-0.00240287
-0.00148091
-0.000521566
0.00042642
0.00134217
0.00218017
0.00293837
0.0035736
0.00410924
0.00450966
0.00481488
0.00499229
0.00509055
0.00507348
0.00499284
0.00481708
0.00459292
0.00428759
0.00394289
0.00353404
0.00309339
0.00260034
0.00208035
0.00152064
0.000936628
0.000328689
-0.000372514
-0.000949501
-0.00534925
-0.00473594
-0.00387512
-0.00291192
-0.00190419
-0.000900412
7.81814e-05
0.000985784
0.00181935
0.00253414
0.00315241
0.00363623
0.00402458
0.00428233
0.00445764
0.00451205
0.00449757
0.00438099
0.0042098
0.00395001
0.00364461
0.0032681
0.00285407
0.00238151
0.00187714
0.00132807
0.000750855
0.000146089
-0.00055658
-0.00113338
-0.0069185
-0.00628706
-0.00539155
-0.00438429
-0.00332548
-0.00226284
-0.00121876
-0.00023882
0.000672348
0.00146888
0.00217158
0.00274052
0.00321349
0.00355298
0.00380657
0.00393365
0.00398641
0.00393001
0.00381267
0.00359924
0.00333379
0.00299022
0.00260322
0.0021515
0.001663
0.00112478
0.000554505
-4.69524e-05
-0.000750852
-0.00132905
-0.008523
-0.00787094
-0.00693832
-0.00588416
-0.00477086
-0.00364617
-0.00253321
-0.00147809
-0.000486526
0.000393917
0.00118305
0.00183862
0.00239757
0.00281984
0.00315269
0.00335318
0.00347386
0.00347815
0.00341514
0.00324838
0.0030232
0.00271269
0.00235287
0.00192199
0.00144933
0.000921823
0.000358372
-0.000239935
-0.00094532
-0.00152331
-0.0101766
-0.0095036
-0.00853167
-0.00742782
-0.0062574
-0.0050676
-0.00388308
-0.00274991
-0.00167555
-0.000708792
0.000168826
0.000913014
0.00155969
0.00206639
0.00247997
0.00275523
0.00294506
0.00301117
0.00300347
0.00288424
0.00270002
0.0024232
0.00209096
0.00168129
0.0012247
0.000708119
0.00015163
-0.000443405
-0.00115006
-0.00172941
-0.0118673
-0.011171
-0.0101573
-0.00900097
-0.00776995
-0.00651183
-0.00525226
-0.00403807
-0.00287796
-0.00182251
-0.000854199
-1.96714e-05
0.000716297
0.00130865
0.0018041
0.00215501
0.00241477
0.00254328
0.00259141
0.00252007
0.00237712
0.00213412
0.00182963
0.00144111
0.00100055
0.000494719
-5.49572e-05
-0.000646914
-0.00135513
-0.0019343
-0.0136097
-0.0128897
-0.0118321
-0.0106204
-0.00932628
-0.00799671
-0.00665936
-0.00536117
-0.00411271
-0.00296596
-0.00190464
-0.000977528
-0.000150246
0.000529655
0.00110865
0.00153675
0.00186784
0.00205999
0.00216503
0.00214251
0.00204159
0.00183303
0.0015567
0.00118971
0.000765413
0.000270522
-0.000272214
-0.000860989
-0.00157056
-0.0021511
-0.0153915
-0.0146453
-0.0135413
-0.0122715
-0.0109107
-0.00950636
-0.00808759
-0.00670227
-0.00536234
-0.00412172
-0.00296498
-0.00194335
-0.001023
-0.00025414
0.000409696
0.000915992
0.00131929
0.00157574
0.00173827
0.00176494
0.00170637
0.00153241
0.00128438
0.000938859
0.000530735
4.6586e-05
-0.000489405
-0.00107523
-0.00178649
-0.00236691
-0.0172276
-0.016455
-0.0153024
-0.0139716
-0.0125415
-0.0110593
-0.00955632
-0.00808073
-0.00664655
-0.0053092
-0.00405448
-0.00293584
-0.00192013
-0.00106019
-0.000309606
0.000276619
0.000753681
0.00107579
0.00129699
0.00137385
0.00135842
0.00121972
0.00100041
0.000676722
0.000285004
-0.000188231
-0.000717357
-0.00130015
-0.00201291
-0.00259475
-0.0191056
-0.0183039
-0.0171002
-0.0157056
-0.0142026
-0.012639
-0.011048
-0.00947888
-0.00794711
-0.00651028
-0.00515497
-0.00393716
-0.00282415
-0.00187154
-0.00103276
-0.000365473
0.00018633
0.000574839
0.000855328
0.000982787
0.00101083
0.000907528
0.000717088
0.000415153
3.97165e-05
-0.000422844
-0.00094535
-0.00152538
-0.00224001
-0.00282186
-0.0210408
-0.0202099
-0.0189527
-0.0174913
-0.0159129
-0.0142648
-0.0125829
-0.0109169
-0.00928453
-0.00774514
-0.0062864
-0.00496668
-0.00375382
-0.00270617
-0.00177706
-0.0010268
-0.000398532
5.78635e-05
0.000398915
0.00057804
0.000650412
0.000583193
0.000422043
0.000142214
-0.000216717
-0.00066845
-0.00118423
-0.00176143
-0.00247778
-0.00306114
-0.0230206
-0.0221577
-0.0208446
-0.0193135
-0.0176557
-0.0159194
-0.0141426
-0.0123762
-0.0106398
-0.00899488
-0.00742991
-0.00600592
-0.00469107
-0.00354661
-0.00252559
-0.00169108
-0.00098528
-0.000460188
-5.79024e-05
0.000173325
0.000290375
0.000259382
0.000127666
-0.000130158
-0.000472746
-0.000913936
-0.00142328
-0.00199798
-0.00271645
-0.00329999
-0.0250608
-0.0241657
-0.0227943
-0.0211904
-0.0194508
-0.0176229
-0.0157481
-0.013878
-0.0120343
-0.0102805
-0.00860619
-0.00707492
-0.00565526
-0.00441139
-0.0032961
-0.00237524
-0.00159001
-0.00099461
-0.000529713
-0.000245244
-8.26239e-05
-7.6674e-05
-0.000178536
-0.00041401
-0.000740045
-0.00117056
-0.00167338
-0.00224554
-0.00296599
-0.00355119
-0.0271485
-0.0262187
-0.0247863
-0.0231064
-0.0212807
-0.0193575
-0.0173805
-0.0154028
-0.0134481
-0.0115823
-0.00979564
-0.00815453
-0.00662773
-0.0052825
-0.0040712
-0.00306259
-0.00219677
-0.00153017
-0.00100195
-0.000663775
-0.000455213
-0.000412181
-0.000484047
-0.0006973
-0.00100699
-0.00142716
-0.00192382
-0.00249382
-0.0032167
-0.00380229
-0.0293
-0.0283351
-0.0268393
-0.0250803
-0.023166
-0.0211438
-0.0190615
-0.0169726
-0.0149035
-0.0129221
-0.0110198
-0.00926551
-0.00762847
-0.00617904
-0.00486913
-0.00377049
-0.00282201
-0.00208248
-0.00148945
-0.00109635
-0.000840911
-0.000760054
-0.000801508
-0.000992208
-0.00128536
-0.00169509
-0.0021855
-0.00275331
-0.00347851
-0.00406596
-0.0315025
-0.0304998
-0.0289377
-0.0270962
-0.0250887
-0.0229635
-0.0207714
-0.0185673
-0.0163798
-0.0142794
-0.0122581
-0.010388
-0.0086382
-0.00708244
-0.00567205
-0.00448184
-0.00344943
-0.00263601
-0.00197742
-0.0015289
-0.00122619
-0.00110737
-0.00111827
-0.00128658
-0.00156344
-0.00196312
-0.00244772
-0.00301378
-0.0037418
-0.00432991
-0.0337723
-0.0327314
-0.0311008
-0.0291734
-0.02707
-0.0248381
-0.0225328
-0.0202098
-0.0179002
-0.015677
-0.0135331
-0.0115435
-0.00967759
-0.0080124
-0.00649869
-0.00521443
-0.00409585
-0.00320667
-0.00248093
-0.00197571
-0.00162474
-0.00146719
-0.00144714
-0.00159274
-0.00185314
-0.00224269
-0.00272141
-0.00328573
-0.00401647
-0.00460669
-0.0360966
-0.0350152
-0.0333124
-0.0312956
-0.0290912
-0.0267484
-0.024325
-0.0218789
-0.019443
-0.0170934
-0.0148235
-0.0127114
-0.0107267
-0.00894974
-0.00733069
-0.00595071
-0.0047446
-0.00377863
-0.00298494
-0.00242249
-0.00202284
-0.00182643
-0.0017753
-0.0018984
-0.00214265
-0.00252252
-0.00299586
-0.00355895
-0.00429297
-0.00488419
-0.0384918
-0.0373692
-0.0355922
-0.0334824
-0.0311744
-0.0287167
-0.0261719
-0.0235985
-0.0210325
-0.0185524
-0.0161525
-0.0139141
-0.0118068
-0.00991479
-0.00818733
-0.00670895
-0.00541289
-0.00436812
-0.00350479
-0.00288375
-0.0024344
-0.00219834
-0.00211573
-0.00221603
-0.002444
-0.00281415
-0.00328206
-0.00384394
-0.00458113
-0.00517479
-0.0409453
-0.0397791
-0.0379238
-0.035717
-0.0333
-0.0307229
-0.0280516
-0.0253466
-0.0226461
-0.0200316
-0.017498
-0.0151301
-0.0128974
-0.0108878
-0.00904972
-0.00747114
-0.00608368
-0.00495901
-0.00402518
-0.00334499
-0.0028455
-0.00256967
-0.00245548
-0.00253323
-0.00274527
-0.00310622
-0.0035693
-0.00413052
-0.00487153
-0.0054666
-0.0434729
-0.0422629
-0.040327
-0.0380198
-0.035491
-0.0327906
-0.0299892
-0.0271483
-0.024309
-0.0215557
-0.0188842
-0.0163826
-0.0140205
-0.0118897
-0.00993768
-0.00825602
-0.00677455
-0.00556783
-0.00456171
-0.00382093
-0.00327024
-0.00295384
-0.0028077
-0.00286264
-0.00305864
-0.00341039
-0.00386858
-0.00442921
-0.00517391
-0.0057718
-0.0460621
-0.0448057
-0.0427848
-0.0403731
-0.037727
-0.0348985
-0.0319617
-0.0289802
-0.0259976
-0.0231015
-0.0202881
-0.0176494
-0.0151547
-0.0129
-0.0108318
-0.0090451
-0.00746808
-0.00617812
-0.0050988
-0.00429683
-0.00369449
-0.00333742
-0.00315924
-0.00319167
-0.00337207
-0.00371521
-0.00416919
-0.00472984
-0.00547894
-0.00607874
-0.048729
-0.0474247
-0.0453177
-0.042798
-0.0400319
-0.0370713
-0.0339953
-0.0308688
-0.0277383
-0.0246946
-0.0217348
-0.0189545
-0.016323
-0.0139405
-0.0117524
-0.00985759
-0.00818223
-0.00680676
-0.00565233
-0.00478767
-0.00413257
-0.00373404
-0.00352349
-0.00353318
-0.0036979
-0.00403246
-0.0044822
-0.00504294
-0.0057963
-0.00639938
-0.0514606
-0.0501053
-0.0479075
-0.0452758
-0.0423842
-0.0392867
-0.036066
-0.0327897
-0.0295064
-0.0263109
-0.0232005
-0.0202748
-0.0175032
-0.01499
-0.0126796
-0.0106746
-0.00889919
-0.00743693
-0.00620641
-0.00527844
-0.00457014
-0.00413006
-0.00388709
-0.00387441
-0.00402395
-0.0043506
-0.00479686
-0.00535836
-0.00611675
-0.00672236
-0.054273
-0.0528664
-0.0505761
-0.0478291
-0.0448092
-0.0415707
-0.0382012
-0.0347703
-0.0313295
-0.0279771
-0.0247112
-0.0216353
-0.018719
-0.0160709
-0.0136343
-0.0115157
-0.00963732
-0.00808584
-0.00677724
-0.00578439
-0.00502175
-0.00453935
-0.00426366
-0.00422842
-0.00436274
-0.00468156
-0.0051243
-0.00568665
-0.00644996
-0.00705933
-0.0571536
-0.0556917
-0.0533044
-0.050438
-0.0472842
-0.0438996
-0.0403759
-0.0367853
-0.033182
-0.029668
-0.0262421
-0.0230121
-0.0199474
-0.0171613
-0.0145958
-0.0123615
-0.0103784
-0.0087363
-0.00734858
-0.00629021
-0.00547279
-0.00494802
-0.00463961
-0.00458225
-0.00470193
-0.00501365
-0.00545374
-0.00601767
-0.00678672
-0.00739932
-0.0601193
-0.0586009
-0.0561157
-0.0531266
-0.049836
-0.0463011
-0.0426187
-0.0388634
-0.0350923
-0.0314114
-0.0278201
-0.0244309
-0.0212129
-0.0182843
-0.0155859
-0.0132322
-0.0111411
-0.00940589
-0.00793696
-0.00681146
-0.00593811
-0.00537022
-0.00502885
-0.00494921
-0.00505425
-0.00535899
-0.00579641
-0.00636202
-0.0071367
-0.00775363
-0.0631568
-0.0615776
-0.0589897
-0.0558736
-0.0524406
-0.0487502
-0.0449034
-0.0409781
-0.0370339
-0.0331811
-0.0294198
-0.025867
-0.0224919
-0.0194175
-0.0165832
-0.0141077
-0.0119069
-0.010077
-0.00852578
-0.00733248
-0.00640279
-0.00579179
-0.0054175
-0.00531611
-0.00540716
-0.00570575
-0.00614145
-0.00670955
-0.00749072
-0.00811157
-0.066284
-0.0646435
-0.0619516
-0.0587051
-0.0551265
-0.051276
-0.04726
-0.0431593
-0.0390363
-0.0350059
-0.0310689
-0.027347
-0.0238095
-0.0205844
-0.0176098
-0.0150089
-0.0126948
-0.0107677
-0.00913196
-0.0078692
-0.00688202
-0.00622717
-0.00581979
-0.00569654
-0.00577364
-0.00606625
-0.00650021
-0.0070709
-0.00785846
-0.00848402
-0.0694878
-0.0677814
-0.0649803
-0.0615985
-0.0578682
-0.0538522
-0.0496611
-0.0453794
-0.0410721
-0.0368589
-0.032741
-0.0288454
-0.0251414
-0.021762
-0.0186441
-0.0159151
-0.0134858
-0.0114598
-0.00973843
-0.00840557
-0.00736051
-0.00666191
-0.00622155
-0.00607703
-0.00614094
-0.00642847
-0.00686176
-0.00743591
-0.00823065
-0.00886055
-0.0727867
-0.0710141
-0.0681025
-0.0645815
-0.0606961
-0.0565095
-0.052138
-0.0476694
-0.0431718
-0.0387695
-0.0344646
-0.0303895
-0.0265133
-0.0229746
-0.0197087
-0.0168476
-0.0142996
-0.0121718
-0.0103626
-0.00895793
-0.00785385
-0.00711079
-0.00663734
-0.00647151
-0.0065223
-0.00680498
-0.00723759
-0.00781532
-0.0086171
-0.00925192
-0.0761668
-0.0743238
-0.0712955
-0.0676302
-0.0635831
-0.0592203
-0.0546622
-0.0500009
-0.0453069
-0.04071
-0.0362128
-0.0319532
-0.0279004
-0.0241984
-0.0207812
-0.0177852
-0.0151163
-0.0128852
-0.0109869
-0.00950978
-0.00834637
-0.00755903
-0.00705266
-0.00686621
-0.00690471
-0.00718357
-0.00761667
-0.00819891
-0.00900855
-0.00964815
-0.0796475
-0.0777342
-0.0745879
-0.0707738
-0.0665613
-0.0620166
-0.0572662
-0.0524059
-0.0475091
-0.0427109
-0.0380147
-0.0335643
-0.029329
-0.0254583
-0.0218849
-0.0187498
-0.0159563
-0.0136189
-0.0116292
-0.010078
-0.00885411
-0.00802182
-0.00748248
-0.00727541
-0.00730177
-0.00757707
-0.0080107
-0.00859756
-0.00941494
-0.0100601
-0.0832147
-0.0812266
-0.0779556
-0.0739873
-0.0696023
-0.0648697
-0.0599205
-0.0548549
-0.049749
-0.0447435
-0.0398426
-0.0351961
-0.0307734
-0.0267299
-0.0229967
-0.0197196
-0.0167992
-0.0143538
-0.0122714
-0.0106455
-0.00936091
-0.00848396
-0.00791191
-0.00768499
-0.00770014
-0.00797302
-0.00840848
-0.00900097
-0.00982693
-0.0104776
-0.086888
-0.0848255
-0.0814286
-0.0773011
-0.0727394
-0.067813
-0.0626587
-0.0573811
-0.0520589
-0.0468389
-0.0417263
-0.036877
-0.0322608
-0.0280387
-0.0241405
-0.020717
-0.0176658
-0.0151094
-0.0129321
-0.0112297
-0.00988335
-0.00896112
-0.00835638
-0.00810968
-0.0081138
-0.00838461
-0.00882196
-0.00942022
-0.0102546
-0.0109115
-0.0906531
-0.0885116
-0.0849813
-0.080689
-0.0759431
-0.0708163
-0.0654501
-0.0599539
-0.0544089
-0.0489681
-0.0436375
-0.0385798
-0.0337648
-0.0293597
-0.0252926
-0.0217196
-0.0185353
-0.0158661
-0.0135924
-0.011813
-0.0104048
-0.00943766
-0.00880054
-0.00853494
-0.00852906
-0.00879907
-0.00923978
-0.00984489
-0.0106886
-0.0113517
-0.0945296
-0.0923098
-0.0886448
-0.0841825
-0.0792481
-0.0739145
-0.0683296
-0.0626073
-0.0568318
-0.0511626
-0.0456066
-0.0403334
-0.035313
-0.0307188
-0.0264777
-0.0227504
-0.019429
-0.0166438
-0.0142716
-0.0124136
-0.0109424
-0.00992977
-0.00926037
-0.00897599
-0.00896034
-0.00922998
-0.00967417
-0.0102863
-0.0111392
-0.0118092
-0.098504
-0.0962008
-0.0923932
-0.0877545
-0.0826235
-0.0770763
-0.0712655
-0.0653101
-0.0592971
-0.0533926
-0.0476045
-0.0421098
-0.0368785
-0.0320906
-0.0276711
-0.0237864
-0.0203253
-0.0174224
-0.0149502
-0.013013
-0.0114789
-0.0104213
-0.00972
-0.00941782
-0.00939357
-0.00966427
-0.0101136
-0.0107339
-0.0115968
-0.0122735
-0.102595
-0.100209
-0.096258
-0.0914375
-0.0861053
-0.0803376
-0.0742935
-0.0680971
-0.0618383
-0.0556904
-0.0496624
-0.0439386
-0.0384895
-0.0335015
-0.0288982
-0.0248513
-0.0212465
-0.0182226
-0.0156481
-0.0136303
-0.0120322
-0.0109291
-0.010196
-0.00987622
-0.0098436
-0.0101159
-0.0105706
-0.0111993
-0.0120719
-0.0127557
-0.10679
-0.104316
-0.100212
-0.0952034
-0.0896615
-0.0836661
-0.0773811
-0.0709363
-0.0644242
-0.0580255
-0.0517505
-0.0457913
-0.0401186
-0.0349254
-0.0301339
-0.0259213
-0.0221702
-0.0190235
-0.0163452
-0.0142462
-0.0125844
-0.0114364
-0.010672
-0.0103356
-0.010296
-0.0105715
-0.0110334
-0.0116717
-0.012555
-0.0132453
-0.111107
-0.108546
-0.104288
-0.0990857
-0.0933292
-0.0870986
-0.0805649
-0.073863
-0.0670889
-0.0604308
-0.0539005
-0.047698
-0.0417944
-0.0363895
-0.0314041
-0.0270209
-0.0231194
-0.0198465
-0.0170623
-0.0148806
-0.0131541
-0.0119607
-0.0111651
-0.0108125
-0.0107662
-0.0110455
-0.0115149
-0.0121631
-0.0130568
-0.0137533
-0.115536
-0.112881
-0.10846
-0.103056
-0.0970755
-0.090602
-0.0838115
-0.0768447
-0.0698006
-0.0628753
-0.0560821
-0.0496295
-0.0434888
-0.037867
-0.0326828
-0.0281255
-0.0240708
-0.02067
-0.0177783
-0.0155135
-0.0137228
-0.0124847
-0.0116583
-0.0112907
-0.0112395
-0.0115245
-0.0120032
-0.0126627
-0.0135678
-0.0142691
-0.120091
-0.117344
-0.112758
-0.107147
-0.100938
-0.0942142
-0.0871582
-0.0799173
-0.0725938
-0.0653922
-0.0583274
-0.0516165
-0.0452313
-0.0393855
-0.033997
-0.0292604
-0.0250484
-0.0215163
-0.0185149
-0.0161656
-0.0143098
-0.0130266
-0.0121696
-0.0117875
-0.0117318
-0.012023
-0.0125116
-0.0131827
-0.0140993
-0.0148043
-0.124765
-0.121917
-0.117157
-0.111331
-0.104884
-0.0979009
-0.0905711
-0.0830477
-0.0754362
-0.06795
-0.0606056
-0.0536293
-0.046993
-0.0409179
-0.0353197
-0.0304002
-0.0260282
-0.022363
-0.0192501
-0.0168162
-0.014896
-0.0135685
-0.0126813
-0.0122862
-0.0122283
-0.0125277
-0.013028
-0.0137122
-0.0146417
-0.0153502
-0.12957
-0.126624
-0.121688
-0.115642
-0.108951
-0.101701
-0.0940881
-0.0862723
-0.0783629
-0.0705825
-0.0629493
-0.0556991
-0.0488039
-0.0424922
-0.0366785
-0.031571
-0.0270348
-0.0232332
-0.0200069
-0.0174869
-0.0155016
-0.0141292
-0.0132122
-0.0128047
-0.0127451
-0.0130535
-0.0135658
-0.0142635
-0.0152064
-0.0159195
-0.134503
-0.131448
-0.126325
-0.120051
-0.113106
-0.105579
-0.0976745
-0.0895574
-0.0813411
-0.0732577
-0.0653273
-0.0577956
-0.0506346
-0.0440807
-0.038046
-0.0327466
-0.0280436
-0.0241038
-0.0207625
-0.0181565
-0.0161068
-0.0146905
-0.0137443
-0.0133262
-0.0132679
-0.013587
-0.014113
-0.0148256
-0.0157837
-0.016502
-0.139571
-0.136411
-0.1311
-0.124591
-0.117387
-0.109576
-0.101369
-0.0929401
-0.0844064
-0.0760098
-0.0677726
-0.0599505
-0.0525158
-0.0457122
-0.0394504
-0.0339539
-0.0290801
-0.0249988
-0.0215405
-0.0188471
-0.0167324
-0.0152716
-0.0142966
-0.0138689
-0.0138127
-0.0141432
-0.014683
-0.0154113
-0.0163848
-0.0171091
-0.144772
-0.141496
-0.135986
-0.129234
-0.12176
-0.113654
-0.105136
-0.0963861
-0.0875252
-0.0788062
-0.0702532
-0.0621329
-0.0544174
-0.0473581
-0.0408635
-0.0351662
-0.030119
-0.0258947
-0.0223182
-0.0195376
-0.0173585
-0.0158543
-0.0148514
-0.0144162
-0.0143651
-0.0147082
-0.0152634
-0.0160085
-0.0169995
-0.0177298
-0.150113
-0.146726
-0.141016
-0.134015
-0.126264
-0.117856
-0.109015
-0.0999329
-0.090734
-0.0816819
-0.0728032
-0.0643754
-0.0563705
-0.049048
-0.0423142
-0.036411
-0.0311864
-0.0268159
-0.0231194
-0.0202502
-0.0180061
-0.0164582
-0.0154279
-0.0149861
-0.0149418
-0.0152973
-0.0158685
-0.0166305
-0.0176398
-0.0183761
-0.155593
-0.152083
-0.146162
-0.138903
-0.130865
-0.122143
-0.112971
-0.103546
-0.0939984
-0.0846035
-0.0753895
-0.0666461
-0.0583449
-0.0507528
-0.0437744
-0.0376613
-0.032257
-0.0277388
-0.0239221
-0.020964
-0.0186554
-0.0170645
-0.0160084
-0.0155624
-0.0155267
-0.0158956
-0.0164841
-0.0172644
-0.018294
-0.019036
-0.161219
-0.15759
-0.151458
-0.143934
-0.135603
-0.126557
-0.117042
-0.107263
-0.0973557
-0.0876068
-0.078047
-0.0689782
-0.0603718
-0.0525026
-0.045273
-0.0389449
-0.0333569
-0.0286881
-0.0247495
-0.0217013
-0.0193271
-0.0176934
-0.0166119
-0.0161629
-0.0161359
-0.016518
-0.0171244
-0.0179236
-0.0189743
-0.0197221
-0.166988
-0.163229
-0.156874
-0.149078
-0.140441
-0.131062
-0.121193
-0.111049
-0.100771
-0.0906574
-0.0807422
-0.0713398
-0.062421
-0.0542683
-0.0467823
-0.0402355
-0.0344612
-0.0296404
-0.0255798
-0.0224405
-0.0200011
-0.018325
-0.0172206
-0.0167696
-0.0167526
-0.0171484
-0.0177746
-0.018594
-0.0196683
-0.0204218
-0.172909
-0.169026
-0.162447
-0.154371
-0.145422
-0.135699
-0.125464
-0.114943
-0.104281
-0.0937923
-0.0835104
-0.0737643
-0.064524
-0.0560799
-0.048331
-0.04156
-0.0355956
-0.0306198
-0.0264368
-0.0232039
-0.0206991
-0.0189801
-0.017854
-0.0174007
-0.0173936
-0.017803
-0.0184499
-0.0192903
-0.0203892
-0.0211491
-0.17898
-0.174961
-0.168147
-0.159782
-0.150507
-0.140429
-0.129818
-0.118909
-0.107852
-0.0969762
-0.0863182
-0.0762199
-0.0666507
-0.0579088
-0.0498928
-0.0428935
-0.0367358
-0.0316034
-0.0272966
-0.0239685
-0.0213984
-0.0196371
-0.018492
-0.0180373
-0.0180406
-0.0184647
-0.0191345
-0.0199979
-0.021124
-0.0218906
-0.185209
-0.18106
-0.17401
-0.165348
-0.155742
-0.145297
-0.134297
-0.122986
-0.111521
-0.100247
-0.0892011
-0.07874
-0.0688323
-0.0597845
-0.0514947
-0.0442615
-0.0379061
-0.0326142
-0.0281812
-0.0247557
-0.0221201
-0.0203167
-0.0191537
-0.018697
-0.018711
-0.0191497
-0.0198443
-0.0207316
-0.0218865
-0.0226606
-0.191595
-0.187305
-0.180006
-0.171038
-0.161085
-0.150263
-0.138862
-0.127137
-0.115253
-0.103569
-0.0921265
-0.0812939
-0.0710398
-0.0616796
-0.053112
-0.0456392
-0.0390826
-0.0336276
-0.0290662
-0.025541
-0.0228405
-0.020996
-0.0198183
-0.0193603
-0.0193861
-0.0198416
-0.0205633
-0.0214771
-0.0226634
-0.0234459
-0.198149
-0.193722
-0.186173
-0.176891
-0.166584
-0.155371
-0.143556
-0.131404
-0.119087
-0.106981
-0.0951292
-0.0839138
-0.0733031
-0.0636217
-0.0547705
-0.047051
-0.0402893
-0.0346664