/*--------------------------------*- C++ -*----------------------------------*\
  =========                 |
  \\      /  F ield         | OpenFOAM: The Open Source CFD Toolbox
   \\    /   O peration     | Website:  https://openfoam.org
    \\  /    A nd           | Version:  6.0
     \\/     M anipulation  |
\*---------------------------------------------------------------------------*/
FoamFile
{
    version     2.0;
    format      ascii;
    class       surfaceScalarField;
    location    "3";
    object      phi;
}
// * * * * * * * * * * * * * * * * * * * * * * * * * * * * * * * * * * * * * //

dimensions      [0 3 -1 0 0 0 0];

internalField   nonuniform List<scalar> 
93586
(
2.28593e-05
0.00154725
3.25306e-08
4.61522e-05
0.00154271
6.97423e-05
0.00153405
9.34756e-05
0.00152118
0.000117214
0.00150399
0.000140806
0.00148246
0.000164126
0.00145663
0.000187034
0.00142665
0.00020944
0.00139267
0.00023124
0.0013549
0.000252375
0.00131351
0.000272776
0.00126866
0.000292402
0.00122047
0.000311196
0.00116908
0.000329124
0.00111459
0.000346132
0.00105714
0.000362185
0.000996854
0.000377232
0.000933872
0.000391241
0.000868339
0.000404167
0.000800429
0.000415978
0.000730306
0.000426638
0.000658159
0.000436119
0.000584171
0.000444393
0.000508546
0.000451437
0.000431477
0.000457231
0.000353171
0.000461758
0.000273824
0.000465009
0.00019361
0.000466785
0.000112802
2.89261e-05
0.000465789
2.26506e-05
0.00152452
7.09032e-08
4.57536e-05
0.0015196
6.91206e-05
0.00151067
9.25899e-05
0.00149769
0.000116022
0.00148054
0.000139269
0.00145918
0.000162216
0.00143365
0.000184734
0.00140408
0.000206742
0.00137062
0.000228146
0.00133344
0.000248894
0.00129271
0.00026892
0.00124857
0.000288188
0.00120114
0.000306642
0.00115056
0.00032425
0.00109692
0.000340957
0.00104037
0.00035673
0.000981023
0.000371516
0.000919022
0.000385285
0.000854513
0.000397991
0.000787663
0.000409602
0.000718637
0.000420083
0.000647618
0.000429406
0.00057479
0.00043754
0.000500349
0.000444467
0.000424488
0.000450163
0.000347408
0.000454609
0.000269305
0.00045778
0.000190359
0.000459531
0.000110959
2.90552e-05
0.000459259
2.2436e-05
0.001502
8.69603e-08
4.5316e-05
0.00149672
6.84245e-05
0.00148756
9.15959e-05
0.00147451
0.000114693
0.00145744
0.000137577
0.00143628
0.000160142
0.00141108
0.00018227
0.00138194
0.000203891
0.00134899
0.000224916
0.00131241
0.000245299
0.00127232
0.000264974
0.00122888
0.000283909
0.0011822
0.000302047
0.00113241
0.000319355
0.00107961
0.00033578
0.00102394
0.000351288
0.000965517
0.000365829
0.000904482
0.00037937
0.000840979
0.000391865
0.000775172
0.000403286
0.000707226
0.000413594
0.00063732
0.000422764
0.000565634
0.000430766
0.000492362
0.000437578
0.000417694
0.000443178
0.000341829
0.000447545
0.000264964
0.000450645
0.000187291
0.000452392
0.000109249
2.90077e-05
0.000452538
2.21798e-05
0.00147972
9.75537e-08
4.47945e-05
0.0014741
6.76119e-05
0.00146474
9.04649e-05
0.00145165
0.000113219
0.00143467
0.000135743
0.00141374
0.000157938
0.00138886
0.000179696
0.00136015
0.000200951
0.00132771
0.00022162
0.00129171
0.000241659
0.00125226
0.000261005
0.0012095
0.000279624
0.00116355
0.000297462
0.00111453
0.000314486
0.00106256
0.000330641
0.00100775
0.000345896
0.000950229
0.0003602
0.000890139
0.000373521
0.000827623
0.000385814
0.00076284
0.000397051
0.000695954
0.000407192
0.000627138
0.000416214
0.000556574
0.000424085
0.000484448
0.000430786
0.00041095
0.000436292
0.000336275
0.000440582
0.000260621
0.000443623
0.000184193
0.000445361
0.000107447
2.85777e-05
0.00044569
2.19038e-05
0.00145771
1.0467e-07
4.42323e-05
0.00145177
6.67426e-05
0.00144223
8.92681e-05
0.00142912
0.000111677
0.00141226
0.000133845
0.00139157
0.000155679
0.00136703
0.000177078
0.00133875
0.000197981
0.00130681
0.000218308
0.00127138
0.000238017
0.00123255
0.000257046
0.00119047
0.000275363
0.00114524
0.000292912
0.00109699
0.000309661
0.00104582
0.000325556
0.00099186
0.000340567
0.000935233
0.000354641
0.000876075
0.000367749
0.000814531
0.000379845
0.000750758
0.000390902
0.000684916
0.000400881
0.000617176
0.000409758
0.000547718
0.000417503
0.000476725
0.000424095
0.000404384
0.000429511
0.000330888
0.000433727
0.000256437
0.000436715
0.000181246
0.00043844
0.000105769
2.82576e-05
0.000438865
2.1613e-05
0.00143598
1.12415e-07
4.36403e-05
0.00142974
6.58329e-05
0.00142003
8.80255e-05
0.00140692
0.00011009
0.00139019
0.000131906
0.00136974
0.000153387
0.00134554
0.000174438
0.00131768
0.000195
0.00128624
0.000214997
0.00125136
0.000234388
0.00121315
0.000253112
0.00117172
0.000271136
0.0011272
0.000288405
0.00107969
0.000304889
0.00102932
0.000320532
0.000976189
0.000335304
0.000920437
0.000349155
0.000862195
0.000362056
0.000801605
0.000373961
0.000738823
0.000384842
0.000674006
0.000394663
0.000607323
0.000403399
0.000538951
0.00041102
0.000469069
0.000417507
0.000397862
0.000422834
0.000325521
0.00042698
0.000252247
0.00042992
0.000178258
0.000431632
0.000104004
2.77094e-05
0.0004321
2.1312e-05
0.00141456
1.12196e-07
4.30278e-05
0.00140802
6.48959e-05
0.00139817
8.67532e-05
0.00138506
0.000108474
0.00136847
0.000129944
0.00134827
0.000151081
0.0013244
0.000171792
0.00129697
0.000192024
0.00126601
0.000211701
0.00123168
0.000230784
0.00119407
0.000249211
0.0011533
0.000266952
0.00110947
0.000283949
0.0010627
0.000300174
0.00101311
0.000315572
0.000960801
0.000330113
0.000905912
0.000343746
0.000848573
0.000356444
0.000788926
0.000368161
0.000727121
0.000378872
0.000663316
0.000388538
0.000597676
0.000397136
0.000530376
0.000404637
0.000461592
0.000411019
0.000391506
0.00041626
0.00032031
0.000420339
0.000248202
0.000423234
0.000175405
0.000424929
0.000102356
2.73157e-05
0.000425423
2.10045e-05
0.00139344
1.0771e-07
4.24023e-05
0.00138662
6.39426e-05
0.00137662
8.54644e-05
0.00136353
0.000106845
0.00134708
0.000127974
0.00132713
0.000148773
0.00130359
0.000169154
0.00127657
0.000189063
0.00124609
0.00020843
0.0012123
0.000227212
0.00117528
0.000245352
0.00113514
0.000262815
0.00109199
0.000279548
0.00104595
0.000295521
0.000997117
0.000310679
0.000945619
0.000324993
0.000891579
0.000338414
0.000835127
0.000350914
0.000776405
0.000362448
0.000715561
0.000372991
0.000652749
0.000382505
0.000588133
0.000390969
0.000521885
0.000398351
0.000454178
0.000404632
0.000385193
0.00040979
0.000315117
0.000413803
0.000244149
0.000416655
0.000172511
0.000418332
0.000100631
2.67443e-05
0.000418833
2.06931e-05
0.00137264
1.05056e-07
4.17698e-05
0.00136555
6.29813e-05
0.00135541
8.41691e-05
0.00134235
0.000105213
0.00132604
0.000126007
0.00130633
0.000146475
0.00128313
0.000166533
0.00125652
0.000186128
0.0012265
0.00020519
0.00119324
0.00022368
0.0011568
0.000241538
0.00111729
0.000258731
0.00107481
0.000275206
0.00102948
0.000290931
0.000981406
0.000305855
0.000930706
0.000319947
0.000877502
0.00033316
0.000821927
0.000345466
0.000764118
0.000356821
0.000704221
0.0003672
0.000642391
0.000376565
0.000578786
0.000384896
0.000513577
0.000392162
0.000446935
0.000398345
0.000379038
0.00040342
0.00031007
0.00040737
0.000240232
0.000410179
0.000169743
0.000411836
9.90201e-05
2.63307e-05
0.000412343
2.03802e-05
0.00135216
1.02717e-07
4.1135e-05
0.00134479
6.20185e-05
0.00133452
8.28748e-05
0.00132148
0.000103587
0.00130532
0.000124051
0.00128586
0.000144195
0.00126298
0.000163936
0.00123676
0.000183223
0.00120721
0.000201988
0.00117446
0.000220191
0.00113859
0.000237773
0.00109969
0.000254702
0.00105787
0.000270923
0.00101324
0.000286406
0.000965909
0.0003011
0.000915991
0.000314976
0.00086361
0.000327984
0.000808896
0.0003401
0.000751984
0.000351278
0.000693019
0.000361496
0.000632152
0.000370716
0.00056954
0.000378917
0.000505352
0.000386069
0.000439754
0.000392155
0.000372923
0.00039715
0.000305042
0.000401038
0.000236307
0.000403805
0.000166938
0.000405442
9.73393e-05
2.57639e-05
0.000405946
2.00674e-05
0.00133199
1.0045e-07
4.05012e-05
0.00132436
6.10588e-05
0.00131397
8.15872e-05
0.00130096
0.000101972
0.00128494
0.000122112
0.00126572
0.000141937
0.00124316
0.000161368
0.00121734
0.000180353
0.00118823
0.000198827
0.00115599
0.000216748
0.00112068
0.000234061
0.00108238
0.000250729
0.00104121
0.000266702
0.000997276
0.000281948
0.000950677
0.000296416
0.000901533
0.000310078
0.000849965
0.000322886
0.0007961
0.000334815
0.000740074
0.000345821
0.000682028
0.00035588
0.000622113
0.000364957
0.000560481
0.00037303
0.000497301
0.000380071
0.000432735
0.000386061
0.000366959
0.000390978
0.000300153
0.000394805
0.000232512
0.000397531
0.000164252
0.000399146
9.57682e-05
2.53485e-05
0.000399649
1.97563e-05
0.00131213
9.75742e-08
3.98711e-05
0.00130424
6.01059e-05
0.00129373
8.03105e-05
0.00128075
0.000100373
0.00126487
0.000120194
0.00124589
0.000139707
0.00122364
0.000158832
0.0011982
0.000177522
0.00116953
0.00019571
0.00113779
0.000213355
0.00110302
0.000230401
0.00106532
0.000246814
0.00102479
0.000262543
0.000981531
0.000277555
0.000935652
0.000291802
0.000887268
0.000305254
0.000836498
0.000317866
0.000783468
0.00032961
0.000728312
0.000340446
0.000671171
0.00035035
0.00061219
0.000359286
0.000551521
0.000367234
0.00048933
0.000374165
0.000425778
0.000380062
0.000361035
0.000384902
0.000295282
0.000388671
0.00022871
0.000391356
0.000161531
0.000392949
9.4134e-05
2.47947e-05
0.000393445
1.94477e-05
0.00129259
9.5679e-08
3.92466e-05
0.00128445
5.91622e-05
0.00127382
7.90473e-05
0.00126086
9.87917e-05
0.00124513
0.0001183
0.00122638
0.000137505
0.00120444
0.000156331
0.00117938
0.00017473
0.00115114
0.000192637
0.00111989
0.00021001
0.00108566
0.000226796
0.00104854
0.000242958
0.00100864
0.000258446
0.000966051
0.000273229
0.000920884
0.000287258
0.000873249
0.000300504
0.000823268
0.000312921
0.000771062
0.000324486
0.000716766
0.000335155
0.000660516
0.000344906
0.000602459
0.000353703
0.000542741
0.000361528
0.000481527
0.000368352
0.000418976
0.000374156
0.000355256
0.000378921
0.000290545
0.000382632
0.000225031
0.000385277
0.000158925
0.000386847
9.26051e-05
2.43842e-05
0.000387339
1.91423e-05
0.00127335
9.37151e-08
3.86289e-05
0.00126495
5.82296e-05
0.00125421
7.77999e-05
0.00124129
9.72317e-05
0.0012257
0.000116432
0.00120718
0.000135335
0.00118553
0.000153867
0.00116083
0.00017198
0.00113302
0.00018961
0.00110224
0.000206716
0.00106854
0.000223244
0.001032
0.00023916
0.000992715
0.000254411
0.000950784
0.000268968
0.000906315
0.000282783
0.000859418
0.000295826
0.000810211
0.000308053
0.000758816
0.00031944
0.000705364
0.000329945
0.000649992
0.000339545
0.00059284
0.000348207
0.000534056
0.000355911
0.000473802
0.000362628
0.000412233
0.000368343
0.000349516
0.000373034
0.000285825
0.000376687
0.000221346
0.000379292
0.000156287
0.000380841
9.10181e-05
2.3846e-05
0.000381325
1.88407e-05
0.00125443
9.16899e-08
3.8019e-05
0.00124578
5.73093e-05
0.00123493
7.65695e-05
0.00122203
9.56937e-05
0.00120658
0.000114591
0.00118828
0.000133197
0.00116693
0.00015144
0.00114259
0.000169271
0.0011152
0.000186629
0.00108489
0.000203472
0.00105171
0.000219748
0.00101573
0.000235419
0.000977055
0.000250438
0.000935774
0.000264773
0.000891994
0.000278376
0.000845825
0.00029122
0.000797383
0.00030326
0.000746788
0.000314472
0.00069417
0.000324815
0.000639663
0.000334267
0.000583406
0.000342796
0.000525545
0.00035038
0.000466239
0.000356994
0.000405641
0.00036262
0.000343915
0.000367238
0.000281233
0.000370835
0.000217779
0.000373402
0.000153758
0.000374927
8.95318e-05
2.34432e-05
0.000375407
1.85432e-05
0.00123579
8.95977e-08
3.74176e-05
0.0012269
5.64019e-05
0.00121594
7.5357e-05
0.00120307
9.41786e-05
0.00118775
0.000112778
0.00116967
0.000131092
0.00114861
0.00014905
0.00112463
0.000166605
0.00109763
0.000183695
0.00106779
0.000200279
0.00103512
0.000216305
0.000999696
0.000231737
0.000961614
0.000246526
0.000920971
0.000260642
0.000877868
0.000274038
0.000832415
0.000286685
0.000784723
0.00029854
0.000734915
0.00030958
0.000683117
0.000319764
0.00062946
0.000329072
0.000574083
0.000337468
0.000517127
0.000344936
0.000458751
0.000351447
0.000399106
0.000356986
0.000338352
0.000361533
0.000276659
0.000365075
0.000214208
0.000367603
0.000151199
0.000369107
8.79917e-05
2.29212e-05
0.000369578
1.82499e-05
0.00121746
8.73968e-08
3.68249e-05
0.00120833
5.55081e-05
0.00119726
7.41629e-05
0.00118442
9.26868e-05
0.00116923
0.000110993
0.00115137
0.00012902
0.00113059
0.000146698
0.00110695
0.00016398
0.00108036
0.000180806
0.00105097
0.000197135
0.0010188
0.000212916
0.000983923
0.000228112
0.00094643
0.000242675
0.000906416
0.000256575
0.000863982
0.000269766
0.000819234
0.00028222
0.000772285
0.000293894
0.000723253
0.000304764
0.000672263
0.000314792
0.000619446
0.000323956
0.000564937
0.000332224
0.000508876
0.000339576
0.00045142
0.000345987
0.000392715
0.00035144
0.000332922
0.000355917
0.000272208
0.000359404
0.00021075
0.000361894
0.000148746
0.000363376
8.65479e-05
2.25273e-05
0.000363842
1.79612e-05
0.00119941
8.51325e-08
3.62414e-05
0.00119005
5.46281e-05
0.00117887
7.29874e-05
0.00116605
9.12185e-05
0.001151
0.000109237
0.00113335
0.000126981
0.00111284
0.000144383
0.00108954
0.000161397
0.00106334
0.000177963
0.0010344
0.000194041
0.00100272
0.00020958
0.000968374
0.000224543
0.000931458
0.000238884
0.000892062
0.000252572
0.000850285
0.000265561
0.000806231
0.000277824
0.000760011
0.00028932
0.000711742
0.000300023
0.000661547
0.000309897
0.000609554
0.00031892
0.000555899
0.00032706
0.000500716
0.0003343
0.000444162
0.000340611
0.000386381
0.000345981
0.00032753
0.000350389
0.000267774
0.000353823
0.000207287
0.000356275
0.000146265
0.000357735
8.50537e-05
2.20212e-05
0.000358193
1.76769e-05
0.00118165
8.27793e-08
3.56669e-05
0.00117207
5.3762e-05
0.00116078
7.18306e-05
0.00114799
8.97737e-05
0.00113306
0.000107508
0.00111562
0.000124974
0.00109538
0.000142105
0.00107242
0.000158855
0.0010466
0.000175165
0.00101809
0.000190996
0.000986895
0.000206296
0.000953081
0.00022103
0.000916736
0.000235152
0.000877949
0.000248631
0.00083682
0.000261421
0.00079345
0.000273497
0.00074795
0.000284816
0.000700434
0.000295356
0.000651024
0.000305078
0.000599846
0.000313962
0.000547032
0.000321977
0.000492717
0.000329105
0.000437055
0.00033532
0.000380186
0.000340606
0.000322267
0.000344947
0.000263459
0.000348328
0.000203934
0.000350743
0.000143885
0.000352181
8.36516e-05
2.16367e-05
0.000352634
1.73973e-05
0.00116417
8.03995e-08
3.51016e-05
0.00115436
5.29098e-05
0.00114297
7.06924e-05
0.0011302
8.83522e-05
0.00111539
0.000105808
0.00109815
0.000123
0.00107819
0.000139864
0.00105555
0.000156354
0.0010301
0.000172412
0.00100202
0.000187999
0.000971302
0.000203064
0.000938006
0.000217573
0.000902219
0.000231478
0.000864032
0.000244751
0.000823539
0.000257346
0.000780842
0.000269236
0.000736049
0.000280382
0.000689273
0.00029076
0.000640634
0.000300334
0.000590256
0.000309082
0.000538269
0.000316974
0.000484807
0.000323991
0.000430019
0.00033011
0.000374046
0.000335315
0.00031704
0.000339589
0.000259161
0.000342919
0.000200577
0.000345297
0.00014148
0.000346714
8.22022e-05
2.11462e-05
0.000347159
1.71221e-05
0.00114698
7.79652e-08
3.45455e-05
0.00113694
5.20714e-05
0.00112545
6.95727e-05
0.00111271
8.69539e-05
0.00109802
0.000104135
0.00108098
0.000121058
0.00106127
0.000137659
0.00103895
0.000153892
0.00101388
0.000169703
0.000986221
0.000185049
0.000955966
0.000199883
0.00092318
0.000214169
0.000887945
0.000227862
0.000850348
0.000240931
0.000810483
0.000253334
0.000768449
0.000265042
0.000724354
0.000276018
0.000678309
0.000286237
0.000630431
0.000295663
0.000580843
0.000304277
0.000529673
0.000312047
0.000477052
0.000318957
0.000423129
0.000324982
0.000368041
0.000330107
0.000311938
0.000334316
0.000254977
0.000337594
0.000197325
0.000339937
0.000139171
0.000341332
8.08409e-05
2.07711e-05
0.000341773
1.68514e-05
0.00113005
7.55424e-08
3.39985e-05
0.00111979
5.12467e-05
0.0011082
6.84714e-05
0.00109548
8.55784e-05
0.00108091
0.00010249
0.00106406
0.000119147
0.00104461
0.000135489
0.0010226
0.000151471
0.000997892
0.000167037
0.000970647
0.000182147
0.00094085
0.000196753
0.000908565
0.00021082
0.000873871
0.000224303
0.000836854
0.000237172
0.000797605
0.000249384
0.000756225
0.000260914
0.000712815
0.000271721
0.000667487
0.000281783
0.000620357
0.000291065
0.000571545
0.000299547
0.000521178
0.000307198
0.000469383
0.000314002
0.000416308
0.000319934
0.000362088
0.00032498
0.000306871
0.000329124
0.00025081
0.000332353
0.000194071
0.00033466
0.000136838
0.000336035
7.94349e-05
2.02955e-05
0.000336467
1.65852e-05
0.00111339
7.30964e-08
3.34604e-05
0.00110292
5.04354e-05
0.00109123
6.7388e-05
0.00107853
8.42253e-05
0.00106408
0.000100871
0.00104742
0.000117268
0.00102822
0.000133355
0.00100652
0.000149088
0.000982167
0.000164413
0.000955329
0.00017929
0.000925983
0.000193671
0.000894192
0.000207523
0.000860031
0.000220799
0.000823586
0.000233471
0.000784946
0.000245497
0.000744209
0.000256849
0.000701476
0.000267491
0.000656857
0.000277399
0.000610465
0.000286539
0.000562419
0.00029489
0.000512843
0.000302424
0.000461864
0.000309124
0.000409628
0.000314965
0.000356266
0.000319934
0.000301924
0.000324014
0.000246753
0.000327193
0.000190918
0.000329465
0.000134598
0.000330819
7.81134e-05
1.99298e-05
0.000331247
1.63234e-05
0.001097
7.06923e-08
3.29311e-05
0.00108631
4.96375e-05
0.00107452
6.63224e-05
0.00106184
8.28944e-05
0.0010475
9.92787e-05
0.00103103
0.000115419
0.00101207
0.000131255
0.000990679
0.000146744
0.000966673
0.000161832
0.000940234
0.000176479
0.000911331
0.000190639
0.000880023
0.000204277
0.000846387
0.00021735
0.000810503
0.000229828
0.000772461
0.00024167
0.000732356
0.000252849
0.000690288
0.000263327
0.000646365
0.000273084
0.000600697
0.000282083
0.000553404
0.000290306
0.000504607
0.000297725
0.000454429
0.000304321
0.000403015
0.000310073
0.000350495
0.000314965
0.000297011
0.000318983
0.000242714
0.000322114
0.000187762
0.000324352
0.000132336
0.000325686
7.67495e-05
1.94687e-05
0.000326106
1.60658e-05
0.00108087
6.82871e-08
3.24105e-05
0.00106997
4.88527e-05
0.00105808
6.52742e-05
0.00104543
8.15853e-05
0.00103119
9.77124e-05
0.00101491
0.0001136
0.000996191
0.000129189
0.000975096
0.000144438
0.000951434
0.000159292
0.000925387
0.000173713
0.00089692
0.000187655
0.000866089
0.000201084
0.000832969
0.000213956
0.000797639
0.000226242
0.000760187
0.000237902
0.000720706
0.00024891
0.000679294
0.000259228
0.000636057
0.000268835
0.000591106
0.000277697
0.000544556
0.000285794
0.000496526
0.000293098
0.000447139
0.000299594
0.000396538
0.000305257
0.00034485
0.000310075
0.000292215
0.000314031
0.00023878
0.000317114
0.000184704
0.000319318
0.000130163
0.000320632
7.54667e-05
1.91122e-05
0.000321048
1.58125e-05
0.00106499
6.59439e-08
3.18985e-05
0.00105388
4.80808e-05
0.0010419
6.42433e-05
0.00102926
8.02976e-05
0.00101514
9.61716e-05
0.00099903
0.000111811
0.000980548
0.000127157
0.000959743
0.000142168
0.000936418
0.000156792
0.000910756
0.000170991
0.000882716
0.000184718
0.000852354
0.00019794
0.000819741
0.000210615
0.000784955
0.000222713
0.000748082
0.000234194
0.000709213
0.000245033
0.000668446
0.000255193
0.000625884
0.000264653
0.000581636
0.000273379
0.000535816
0.000281352
0.000488541
0.000288544
0.000439931
0.00029494
0.000390127
0.000300517
0.000339255
0.000305261
0.000287452
0.000309157
0.000234864
0.000312193
0.000181644
0.000314363
0.00012797
0.000315658
7.41436e-05
1.86652e-05
0.000316066
1.55634e-05
0.00104937
6.36136e-08
3.13949e-05
0.00103806
4.73215e-05
0.00102597
6.32291e-05
0.00101336
7.90308e-05
0.000999341
9.46558e-05
0.000983411
0.00011005
0.000965161
0.000125157
0.000944643
0.000139935
0.000921649
0.000154333
0.000896366
0.000168312
0.000868747
0.000181827
0.000838847
0.000194846
0.000806733
0.000207326
0.000772484
0.000219238
0.000736182
0.000230544
0.000697917
0.000241217
0.000657786
0.000251221
0.00061589
0.000260536
0.000572336
0.000269128
0.000527236
0.000276979
0.000480706
0.000284061
0.000432863
0.000290359
0.000383847
0.00029585
0.000333781
0.000300522
0.000282801
0.000304358
0.000231049
0.000307348
0.000178678
0.000309486
0.000125862
0.000310761
7.28983e-05
1.83178e-05
0.000311164
1.53184e-05
0.00103398
6.13577e-08
3.08995e-05
0.00102248
4.65746e-05
0.0010103
6.22316e-05
0.000997699
7.77847e-05
0.000983784
9.31647e-05
0.000968027
0.000108318
0.000950002
0.00012319
0.000929765
0.000137738
0.000907097
0.000151912
0.000882185
0.000165675
0.00085498
0.000178982
0.000825532
0.000191801
0.000793909
0.000204089
0.000760186
0.000215819
0.000724445
0.000226951
0.000686775
0.00023746
0.000647269
0.000247311
0.000606027
0.000256483
0.000563154
0.000264944
0.000518762
0.000272674
0.000472963
0.000279648
0.000425874
0.00028585
0.000377631
0.000291257
0.000328357
0.000295857
0.000278183
0.000299634
0.000227252
0.000302579
0.000175712
0.000304685
0.000123735
0.000305941
7.16148e-05
1.78842e-05
0.000306337
1.50773e-05
0.00101885
5.91209e-08
3.04123e-05
0.00100715
4.584e-05
0.000994875
6.12503e-05
0.000982295
7.65589e-05
0.000968482
9.16977e-05
0.000952894
0.000106614
0.000935093
0.000121254
0.000915132
0.000135576
0.000892784
0.000149531
0.000868238
0.000163081
0.00084144
0.000176183
0.000812438
0.000188804
0.000781299
0.000200903
0.000748096
0.000212452
0.000712908
0.000223414
0.000675823
0.000233762
0.000636934
0.000243462
0.000596337
0.000252494
0.000554138
0.000260825
0.000510443
0.000268437
0.000465366
0.000275304
0.000419021
0.000281411
0.000371542
0.000286735
0.000323049
0.000291264
0.000273673
0.000294985
0.000223552
0.000297884
0.000172835
0.000299958
0.00012169
0.000301195
7.04058e-05
1.75456e-05
0.000301587
1.48402e-05
0.00100395
5.69643e-08
2.9933e-05
0.000992052
4.51173e-05
0.000979687
6.0285e-05
0.000967124
7.5353e-05
0.00095341
9.02545e-05
0.000937988
0.000104938
0.000920406
0.000119349
0.000900715
0.000133448
0.00087868
0.000147187
0.000854493
0.000160527
0.000828094
0.000173427
0.000799531
0.000185854
0.000768867
0.000197767
0.000736174
0.000209139
0.00070153
0.000219932
0.00066502
0.000230122
0.000626736
0.000239674
0.000586774
0.000248567
0.000545235
0.00025677
0.000502227
0.000264266
0.000457859
0.000271028
0.000412244
0.000277041
0.000365515
0.000282284
0.000317789
0.000286744
0.000269195
0.000290408
0.00021987
0.000293263
0.000169958
0.000295306
0.000119626
0.000296525
6.91606e-05
1.71251e-05
0.00029691
1.46069e-05
0.000989297
5.48287e-08
2.94615e-05
0.000977205
4.44064e-05
0.000964749
5.93353e-05
0.000952201
7.41666e-05
0.000938585
8.88346e-05
0.000923327
0.000103288
0.00090596
0.000117475
0.000886536
0.000131355
0.000864809
0.00014488
0.000840975
0.000158014
0.000814971
0.000170715
0.000786839
0.00018295
0.000756643
0.00019468
0.000724452
0.000205878
0.000690344
0.000216505
0.000654402
0.000226539
0.000616715
0.000235944
0.000577379
0.000244701
0.000536492
0.000252779
0.000494161
0.00026016
0.000450493
0.000266818
0.000405599
0.000272739
0.000359611
0.000277902
0.000312643
0.000282294
0.000264822
0.000285902
0.000216282
0.000288715
0.000167168
0.000290726
0.000117642
0.000291927
6.7987e-05
1.67952e-05
0.000292308
1.43775e-05
0.000974865
5.27755e-08
2.89976e-05
0.000962582
4.3707e-05
0.000950036
5.84011e-05
0.000937504
7.29994e-05
0.000923983
8.74376e-05
0.000908884
0.000101665
0.000891728
0.000115631
0.000872565
0.000129295
0.000851141
0.000142611
0.000827654
0.000155541
0.000802035
0.000168046
0.000774327
0.000180093
0.000744591
0.000191642
0.000712894
0.000202668
0.000679313
0.000213132
0.000643928
0.000223012
0.000606828
0.000232273
0.000568106
0.000240896
0.000527861
0.00024885
0.000486194
0.000256118
0.000443214
0.000262675
0.000399028
0.000268505
0.000353767
0.000273589
0.000307543
0.000277914
0.00026048
0.000281467
0.000212712
0.000284237
0.000164378
0.000286218
0.000115641
0.000287402
6.67788e-05
1.63872e-05
0.000287776
1.41518e-05
0.000960668
5.07413e-08
2.85413e-05
0.0009482
4.3019e-05
0.000935565
5.7482e-05
0.000923048
7.18511e-05
0.00090962
8.60631e-05
0.000894679
0.000100068
0.00087773
0.000113816
0.000858824
0.000127268
0.000837698
0.000140377
0.000814553
0.000153108
0.000789315
0.000165419
0.000762024
0.00017728
0.000732741
0.000188652
0.000701531
0.000199508
0.000668469
0.000209812
0.000633634
0.00021954
0.000597113
0.000228659
0.000558997
0.00023715
0.000519384
0.000244983
0.000478374
0.000252139
0.000436072
0.000258596
0.000392585
0.000264337
0.000348042
0.000269344
0.000302552
0.000273603
0.000256239
0.000277102
0.000209232
0.000279829
0.000161671
0.000281781
0.000113716
0.000282946
6.56394e-05
1.60659e-05
0.000283316
1.39297e-05
0.000946687
4.87882e-08
2.80924e-05
0.000934034
4.23421e-05
0.000921312
5.65777e-05
0.000908809
7.07213e-05
0.000895473
8.47107e-05
0.000880685
9.84971e-05
0.000863939
0.000112031
0.000845285
0.000125273
0.000824452
0.000138179
0.000801641
0.000150712
0.000776776
0.000162834
0.000749896
0.000174512
0.000721057
0.000185709
0.000690326
0.000196398
0.000657773
0.000206544
0.000623479
0.000216123
0.000587527
0.000225102
0.000550007
0.000233463
0.000511014
0.000241176
0.000470649
0.000248223
0.000429014
0.000254581
0.000386214
0.000260234
0.000342376
0.000265164
0.000297607
0.000269359
0.000252029
0.000272805
0.00020577
0.000275491
0.000158965
0.000277413
0.000111775
0.000278561
6.44671e-05
1.567e-05
0.000278925
1.37112e-05
0.000932935
4.68509e-08
2.76508e-05
0.000920102
4.16761e-05
0.000907293
5.5688e-05
0.000894804
6.96096e-05
0.000881558
8.338e-05
0.000866922
9.69509e-05
0.000850376
0.000110274
0.00083197
0.00012331
0.000811425
0.000136016
0.000788944
0.000148355
0.000764447
0.000160289
0.000737971
0.000171787
0.00070957
0.000182812
0.00067931
0.000193337
0.00064726
0.000203327
0.000613498
0.000212759
0.000578107
0.000221601
0.000541175
0.000229834
0.000502795
0.000237428
0.000463066
0.000244368
0.000422089
0.000250629
0.000379966
0.000256196
0.000336824
0.000261051
0.000292767
0.000265181
0.000247916
0.000268575
0.000202395
0.00027122
0.00015634
0.000273114
0.000109908
0.000274244
6.3361e-05
1.53571e-05
0.000274604
1.34963e-05
0.000919392
4.49924e-08
2.72163e-05
0.00090638
4.10209e-05
0.000893485
5.48127e-05
0.000881009
6.85159e-05
0.000867851
8.20707e-05
0.000853363
9.54296e-05
0.000837013
0.000108545
0.00081885
0.000121378
0.000798587
0.000133887
0.00077643
0.000146035
0.000752294
0.000157785
0.000726214
0.000169106
0.000698245
0.000179961
0.000668448
0.000190324
0.000636891
0.000200161
0.000603653
0.000209448
0.000568813
0.000218155
0.000532458
0.000226261
0.00049468
0.00023374
0.000455576
0.000240573
0.000415245
0.000246738
0.000373788
0.000252221
0.000331329
0.000257001
0.000287972
0.000261069
0.000243833
0.000264411
0.000199037
0.000267017
0.000153716
0.000268881
0.000108025
0.000269996
6.22235e-05
1.49729e-05
0.000270349
1.32847e-05
0.00090607
4.31448e-08
2.67888e-05
0.000892884
4.03762e-05
0.000879905
5.39514e-05
0.000867441
6.74397e-05
0.00085437
8.07823e-05
0.000840027
9.39325e-05
0.000823871
0.000106843
0.000805947
0.000119477
0.000785962
0.000131792
0.000764124
0.000143752
0.000740344
0.00015532
0.000714655
0.000166466
0.000687109
0.000177154
0.000657769
0.000187358
0.000626699
0.000197044
0.000593977
0.000206189
0.00055968
0.000214762
0.000523895
0.000222745
0.000486711
0.000230109
0.000448223
0.000236838
0.00040853
0.000242909
0.000367729
0.000248308
0.000325946
0.000253016
0.000283278
0.000257022
0.000239844
0.000260313
0.000195764
0.000262879
0.000151169
0.000264716
0.000106213
0.000265813
6.11496e-05
1.46681e-05
0.000266163
1.30767e-05
0.00089295
4.13721e-08
2.63681e-05
0.00087959
3.97419e-05
0.000866528
5.31039e-05
0.000854076
6.63807e-05
0.000841089
7.95146e-05
0.00082689
9.24593e-05
0.000810922
0.000105169
0.000793233
0.000117606
0.00077352
0.00012973
0.000751996
0.000141505
0.000728564
0.000152895
0.000703259
0.000163869
0.00067613
0.000174392
0.000647238
0.000184439
0.000616647
0.000193976
0.000584431
0.000202981
0.000550668
0.000211423
0.000515443
0.000219283
0.000478842
0.000226535
0.000440961
0.000233161
0.000401894
0.000239139
0.000361739
0.000244456
0.000320617
0.000249092
0.000278628
0.000253037
0.000235884
0.000256278
0.000192507
0.000258806
0.000148624
0.000260615
0.000104386
0.000261697
6.00457e-05
1.42952e-05
0.00026204
1.28719e-05
0.000880045
3.9606e-08
2.59542e-05
0.000866515
3.91178e-05
0.000853371
5.22701e-05
0.000840932
6.53387e-05
0.000828028
7.82671e-05
0.000813969
9.10096e-05
0.000798187
0.000103521
0.000780729
0.000115765
0.000761285
0.0001277
0.000740069
0.000139293
0.000716982
0.000150507
0.000692054
0.000161312
0.000665336
0.000171673
0.000636885
0.000181566
0.000606766
0.000190956
0.00057505
0.000199823
0.000541814
0.000208136
0.00050714
0.000215876
0.000471115
0.000223017
0.000433831
0.000229542
0.000395382
0.000235429
0.000355864
0.000240665
0.000315396
0.00024523
0.000274076
0.000249115
0.000232016
0.000252307
0.000189333
0.000254797
0.000146154
0.000256579
0.000102628
0.000257644
5.9003e-05
1.39982e-05
0.000257984
1.26704e-05
0.000867334
3.79109e-08
2.5547e-05
0.000853636
3.85037e-05
0.000840411
5.14496e-05
0.000827983
6.43133e-05
0.00081516
7.70395e-05
0.000801239
8.95831e-05
0.000785639
0.0001019
0.000768408
0.000113953
0.000749228
0.000125703
0.000728314
0.000137117
0.000705564
0.000148157
0.000681008
0.000158796
0.000654693
0.000168997
0.000626676
0.000178738
0.00059702
0.000187984
0.000565795
0.000196715
0.000533076
0.0002049
0.000498945
0.000212522
0.000463485
0.000219554
0.000426789
0.00022598
0.000388947
0.000231777
0.000350054
0.000236933
0.000310229
0.000241429
0.000269566
0.000245255
0.000228175
0.000248399
0.000186174
0.000250851
0.000143684
0.000252606
0.000100856
0.000253656
5.79317e-05
1.36364e-05
0.00025399
1.24722e-05
0.000854832
3.62179e-08
2.51463e-05
0.00084097
3.78994e-05
0.000827665
5.06422e-05
0.000815248
6.33044e-05
0.000802505
7.58315e-05
0.000788719
8.81792e-05
0.000773299
0.000100304
0.000756291
0.00011217
0.00073737
0.000123738
0.000716754
0.000134975
0.000694338
0.000145844
0.000670147
0.000156319
0.00064423
0.000166364
0.00061664
0.000175954
0.000587441
0.000185059
0.0005567
0.000193656
0.000524491
0.000201716
0.000490894
0.000209221
0.000455993
0.000216145
0.000419875
0.000222473
0.000382633
0.000228182
0.000344357
0.000233259
0.000305166
0.000237687
0.000265152
0.000241455
0.000224423