/*--------------------------------*- C++ -*----------------------------------*\
  =========                 |
  \\      /  F ield         | OpenFOAM: The Open Source CFD Toolbox
   \\    /   O peration     | Website:  https://openfoam.org
    \\  /    A nd           | Version:  6.0
     \\/     M anipulation  |
\*---------------------------------------------------------------------------*/
FoamFile
{
    version     2.0;
    format      ascii;
    class       volVectorField;
    location    "3";
    object      U;
}
// * * * * * * * * * * * * * * * * * * * * * * * * * * * * * * * * * * * * * //

dimensions      [0 1 -1 0 0 0 0];

internalField   nonuniform List<vector> 
47000
(
(1.00005 0.000190165 7.54907e-20)
(1 0.000392156 1.50837e-19)
(0.999914 0.000497979 -1.17431e-18)
(0.999781 0.000480964 -2.27876e-18)
(0.999606 0.000337014 1.804e-18)
(0.9994 8.79427e-05 -1.2236e-18)
(0.999179 -0.000231211 5.10352e-18)
(0.998961 -0.000580751 1.66943e-19)
(0.998763 -0.00092623 8.88671e-19)
(0.998598 -0.00124307 -6.93299e-18)
(0.998471 -0.00151852 4.46921e-18)
(0.998387 -0.00174873 1.47863e-18)
(0.99834 -0.00193788 2.14405e-18)
(0.998327 -0.00209231 2.53979e-18)
(0.99834 -0.0022223 -2.3286e-18)
(0.998377 -0.00233453 -1.08934e-18)
(0.998428 -0.00243825 -1.26185e-19)
(0.998492 -0.00253806 -1.24212e-18)
(0.998563 -0.00264191 -1.04167e-19)
(0.998642 -0.00275267 -3.72312e-19)
(0.998724 -0.00287785 -2.09764e-18)
(0.998811 -0.00302158 -7.73969e-19)
(0.9989 -0.00319392 -8.5587e-19)
(0.998992 -0.00340372 -1.39469e-19)
(0.999089 -0.0036689 5.0333e-19)
(0.999191 -0.00401353 -1.61448e-19)
(0.999301 -0.00448205 4.54848e-19)
(0.999417 -0.00515411 -2.69219e-19)
(0.999614 -0.0061205 3.48885e-20)
(0.996819 -0.00947671 -3.85191e-20)
(1.00005 8.2059e-05 -1.64548e-19)
(0.999914 -0.000120949 -5.21643e-19)
(0.999658 -0.000411861 -1.85316e-20)
(0.999306 -0.000798079 2.91933e-18)
(0.998888 -0.00127011 -1.52688e-18)
(0.998439 -0.00179461 4.23764e-18)
(0.997996 -0.00233121 -3.3846e-18)
(0.997592 -0.00284217 1.02711e-18)
(0.997249 -0.00329894 -5.55656e-18)
(0.996983 -0.00368783 -4.66666e-19)
(0.996795 -0.00400669 -8.31488e-19)
(0.996684 -0.00426271 1.61061e-18)
(0.996639 -0.00446835 -3.41322e-18)
(0.996651 -0.00463721 3.01066e-19)
(0.996707 -0.00478418 8.02239e-19)
(0.996798 -0.00491959 -4.18664e-19)
(0.996915 -0.00505426 1.81797e-18)
(0.997051 -0.00519466 -1.22432e-18)
(0.9972 -0.00534952 -2.28732e-18)
(0.997361 -0.00552324 2.77919e-18)
(0.997528 -0.0057241 8.36992e-19)
(0.997702 -0.00595817 2.15474e-19)
(0.997882 -0.00623696 5.47103e-19)
(0.998069 -0.00657133 6.20874e-19)
(0.998264 -0.00697958 -2.80928e-19)
(0.998471 -0.00748347 -2.69617e-20)
(0.998693 -0.00811556 -1.69159e-19)
(0.99893 -0.00891911 -4.5987e-19)
(0.999197 -0.00984002 3.15382e-19)
(0.998062 -0.0124797 8.41452e-20)
(0.999958 -4.42998e-05 1.90484e-19)
(0.999789 -0.000567909 4.81777e-20)
(0.999491 -0.00114272 -7.19811e-20)
(0.999088 -0.00175826 -5.01655e-18)
(0.998618 -0.0023978 4.96762e-19)
(0.998119 -0.00302902 -3.67538e-18)
(0.997634 -0.00361921 3.35902e-18)
(0.997194 -0.00414283 -2.75535e-18)
(0.996823 -0.00458353 5.49501e-18)
(0.996537 -0.00493964 3.35587e-18)
(0.996337 -0.00521753 -1.31328e-18)
(0.99622 -0.00543125 -9.73909e-19)
(0.996175 -0.00559656 5.43338e-18)
(0.996193 -0.00572967 -1.53927e-18)
(0.99626 -0.00584575 9.43691e-19)
(0.996368 -0.00595574 5.34281e-19)
(0.996504 -0.00606928 -1.89792e-18)
(0.996664 -0.00619272 2.5238e-18)
(0.996839 -0.00633326 1.42729e-18)
(0.997028 -0.00649494 1.6188e-20)
(0.997226 -0.00668413 2.42785e-18)
(0.997432 -0.00690591 2.19958e-18)
(0.997645 -0.00716899 1.52327e-18)
(0.997867 -0.00748155 4.38258e-19)
(0.998098 -0.00785615 -5.48479e-19)
(0.99834 -0.00830667 1.17628e-19)
(0.998596 -0.00885167 -6.7427e-19)
(0.998861 -0.00951317 5.41164e-19)
(0.999105 -0.0101966 -1.02252e-19)
(0.998881 -0.0124072 -1.30429e-19)
(0.999786 -0.000123741 -2.6391e-19)
(0.999612 -0.000852457 1.18102e-19)
(0.999309 -0.00160559 1.15327e-18)
(0.998903 -0.00236178 3.73016e-18)
(0.998431 -0.0031007 3.66823e-19)
(0.997933 -0.00379208 5.15988e-19)
(0.997447 -0.0044093 -3.72201e-18)
(0.997006 -0.00493536 -1.85261e-19)
(0.996635 -0.00536196 -2.89783e-18)
(0.996347 -0.00569483 -1.01368e-18)
(0.996144 -0.00594533 1.45791e-18)
(0.996026 -0.00613127 -8.46182e-19)
(0.995982 -0.00627003 -2.33858e-18)
(0.996002 -0.00637902 1.35493e-18)
(0.996073 -0.00647341 6.41917e-20)
(0.996187 -0.0065643 2.86957e-18)
(0.996333 -0.00666058 -7.78514e-19)
(0.996504 -0.00676839 -1.27916e-18)
(0.996693 -0.00689401 -1.60879e-18)
(0.996896 -0.00704116 -4.11093e-18)
(0.99711 -0.00721508 -7.49901e-19)
(0.997334 -0.00742017 -2.02252e-18)
(0.997565 -0.00766367 -1.68845e-18)
(0.997805 -0.00795252 -1.22265e-18)
(0.998054 -0.00829702 1.51032e-18)
(0.998313 -0.00870874 -7.97277e-19)
(0.998582 -0.00920313 3.9846e-19)
(0.998858 -0.00979932 4.01599e-19)
(0.999086 -0.0103983 -3.20335e-19)
(0.999274 -0.0124907 7.36785e-20)
(0.999563 -0.000180664 5.10496e-20)
(0.99939 -0.00105531 -1.39369e-19)
(0.999094 -0.00193227 -1.25687e-19)
(0.9987 -0.0027835 -8.2714e-20)
(0.998245 -0.00358716 -2.04632e-18)
(0.997764 -0.00431551 5.52853e-19)
(0.997296 -0.00494723 -1.13986e-18)
(0.99687 -0.00547193 -1.84762e-18)
(0.996512 -0.00588719 3.56434e-18)
(0.996232 -0.00620378 -8.73865e-19)
(0.996037 -0.00643621 3.52749e-18)
(0.995923 -0.00660443 3.4825e-18)
(0.995882 -0.00672654 -2.85225e-18)
(0.995906 -0.00682045 -2.65455e-18)
(0.995981 -0.00690103 -3.7231e-18)
(0.996101 -0.00697943 -2.88579e-18)
(0.996253 -0.00706391 5.36981e-19)
(0.996431 -0.00716052 -8.79283e-19)
(0.996629 -0.00727491 4.22847e-18)
(0.996842 -0.00741076 8.62608e-19)
(0.997067 -0.00757258 -2.7193e-18)
(0.997302 -0.00776457 -8.31818e-19)
(0.997545 -0.00799324 4.42268e-19)
(0.997796 -0.00826523 5.69585e-19)
(0.998056 -0.00858996 -1.02014e-18)
(0.998324 -0.00897856 7.00384e-19)
(0.9986 -0.00944553 1.80406e-19)
(0.998882 -0.0100085 -7.77655e-19)
(0.999103 -0.0105642 1.46555e-19)
(0.999515 -0.0125999 2.09483e-20)
(0.999302 -0.000218875 -5.12008e-20)
(0.999137 -0.00119399 2.12239e-19)
(0.998857 -0.00215322 -1.82776e-18)
(0.998485 -0.00306547 -7.92518e-19)
(0.998058 -0.00390866 1.3233e-18)
(0.997606 -0.00465783 3.82155e-18)
(0.997167 -0.00529609 4.0563e-18)
(0.996767 -0.00581809 2.8156e-19)
(0.996429 -0.00622558 3.47721e-19)
(0.996166 -0.00653255 3.35038e-18)
(0.995983 -0.00675529 -2.84447e-18)
(0.995877 -0.00691472 -4.11491e-18)
(0.995842 -0.00702901 1.16243e-18)
(0.99587 -0.00711601 4.30424e-18)
(0.995949 -0.00719022 8.05342e-18)
(0.996072 -0.00726264 -1.32131e-20)
(0.996229 -0.0073411 1.08075e-18)
(0.996412 -0.00743156 3.63747e-18)
(0.996616 -0.00753937 -3.48684e-18)
(0.996836 -0.0076682 2.15811e-18)
(0.997068 -0.00782228 2.53178e-18)
(0.99731 -0.00800578 1.35685e-18)
(0.99756 -0.00822494 9.45203e-19)
(0.997819 -0.00848645 -8.97289e-20)
(0.998084 -0.0087995 -2.69793e-19)
(0.998358 -0.00917515 8.07138e-19)
(0.998637 -0.0096273 3.19173e-19)
(0.998923 -0.0101721 3.92291e-19)
(0.999141 -0.0107033 1.44358e-19)
(0.999676 -0.0127154 -9.80236e-20)
(0.999016 -0.000242034 7.84774e-20)
(0.998863 -0.0012834 3.63525e-19)
(0.998603 -0.00229404 9.47805e-19)
(0.998259 -0.00324286 9.24859e-19)
(0.997864 -0.00410835 3.09377e-18)
(0.997447 -0.0048682 -2.26897e-18)
(0.997042 -0.00550913 -2.98576e-18)
(0.996672 -0.00602942 1.85582e-18)
(0.99636 -0.00643362 -3.57253e-18)
(0.996117 -0.00673756 -1.24134e-18)
(0.995949 -0.0069583 -6.30253e-18)
(0.995854 -0.00711688 4.00731e-18)
(0.995827 -0.00723109 1.87432e-18)
(0.99586 -0.00731839 2.02527e-19)
(0.995944 -0.00739282 -4.58022e-18)
(0.996071 -0.00746515 7.03248e-19)
(0.996231 -0.00754289 -1.25608e-18)
(0.996419 -0.00763198 -4.41239e-18)
(0.996627 -0.00773761 -5.50796e-20)
(0.996852 -0.00786359 -3.31042e-18)
(0.997089 -0.00801402 -2.88849e-18)
(0.997337 -0.00819323 -1.12918e-18)
(0.997592 -0.00840739 -8.08269e-19)
(0.997856 -0.00866339 -7.81982e-19)
(0.998126 -0.00897035 -3.76186e-19)
(0.998403 -0.00933934 -1.88788e-18)
(0.998683 -0.00978366 5.58103e-20)
(0.998974 -0.0103181 4.7331e-19)
(0.99919 -0.0108348 4.14218e-20)
(0.999805 -0.0128399 9.7142e-20)
(0.998716 -0.000253846 2.83662e-19)
(0.998574 -0.001336 -7.15977e-19)
(0.998336 -0.00237554 -1.07795e-18)
(0.998021 -0.00334372 -7.28354e-19)
(0.997661 -0.00421992 -9.36589e-19)
(0.997281 -0.00498419 -1.15418e-18)
(0.996911 -0.00562614 2.14002e-18)
(0.996574 -0.00614654 -4.7047e-18)
(0.99629 -0.00655169 -1.924e-18)
(0.99607 -0.00685822 3.56796e-18)
(0.995919 -0.00708326 5.13385e-18)
(0.995837 -0.00724736 -2.16454e-18)
(0.995819 -0.00736767 -5.33942e-18)
(0.995859 -0.00746103 -2.08208e-18)
(0.995948 -0.00754096 1.11958e-19)
(0.99608 -0.00761797 1.63579e-19)
(0.996244 -0.00769933 5.86047e-19)
(0.996436 -0.00779096 -6.66704e-19)
(0.996648 -0.00789804 2.93038e-18)
(0.996878 -0.00802456 2.22628e-18)
(0.99712 -0.00817463 1.84796e-18)
(0.997372 -0.00835275 4.64195e-19)
(0.997632 -0.0085652 -8.8221e-19)
(0.9979 -0.00881906 -3.94506e-19)
(0.998173 -0.00912345 8.26588e-19)
(0.998453 -0.0094894 1.21798e-18)
(0.998736 -0.00992963 -1.00288e-18)
(0.99903 -0.0104579 -7.39962e-19)
(0.999247 -0.0109655 8.19298e-20)
(0.999906 -0.012972 -4.8926e-20)
(0.998408 -0.000256969 3.18297e-21)
(0.998278 -0.00136126 2.73481e-19)
(0.998061 -0.00241381 1.27895e-18)
(0.997775 -0.0033894 -2.55421e-20)
(0.99745 -0.00426862 -1.3554e-18)
(0.997106 -0.0050336 -1.48263e-19)
(0.996772 -0.00567612 -1.63298e-18)
(0.996468 -0.00619863 2.50551e-18)
(0.996212 -0.00660836 3.02469e-19)
(0.996015 -0.00692199 -3.68517e-18)
(0.995883 -0.00715622 -5.4986e-18)
(0.995816 -0.00733076 -2.68493e-18)
(0.995809 -0.00746189 4.52367e-18)
(0.995857 -0.00756571 3.29336e-18)
(0.995953 -0.00765519 -2.19363e-18)
(0.99609 -0.00774056 -4.53709e-18)
(0.996259 -0.00782886 6.2681e-19)
(0.996456 -0.00792605 3.25584e-18)
(0.996673 -0.00803735 -3.00268e-18)
(0.996907 -0.00816694 1.66284e-18)
(0.997154 -0.00831904 -1.38388e-18)
(0.997411 -0.00849834 -2.35875e-19)
(0.997675 -0.00871126 6.88419e-19)
(0.997947 -0.0089651 9.53939e-19)
(0.998224 -0.00926898 -1.48724e-19)
(0.998506 -0.00963387 -7.62171e-19)
(0.998791 -0.010072 -1.28021e-19)
(0.999091 -0.0105964 2.08353e-20)
(0.999307 -0.0110982 -2.76499e-20)
(1 -0.0131106 -2.43017e-20)
(0.998096 -0.000254049 -6.40476e-20)
(0.997978 -0.00136697 1.58093e-19)
(0.997782 -0.00242148 -4.15602e-19)
(0.997524 -0.00339647 -1.9256e-19)
(0.997231 -0.00427379 -1.39934e-18)
(0.996922 -0.00503738 -3.84697e-19)
(0.996622 -0.00568066 2.29792e-19)
(0.996351 -0.00620707 -1.67582e-18)
(0.996123 -0.00662421 -9.11677e-19)
(0.995951 -0.0069483 5.94314e-19)
(0.995838 -0.00719531 1.34095e-18)
(0.995786 -0.00738382 2.70572e-18)
(0.995792 -0.00752919 1.59587e-19)
(0.995849 -0.00764663 -6.40445e-18)
(0.995953 -0.0077486 -1.12075e-18)
(0.996097 -0.00784498 7.41945e-19)
(0.996272 -0.00794265 2.4354e-18)
(0.996474 -0.00804759 -8.03135e-19)
(0.996696 -0.00816512 1.61292e-18)
(0.996936 -0.0082996 1.81294e-18)
(0.997188 -0.00845539 9.92491e-19)
(0.99745 -0.00863741 -4.84588e-19)
(0.997719 -0.00885222 -9.52319e-19)
(0.997995 -0.00910731 7.21036e-19)
(0.998275 -0.00941185 -5.79394e-19)
(0.998561 -0.00977671 1.35755e-18)
(0.998849 -0.0102137 -1.34563e-19)
(0.999154 -0.0107358 8.80919e-20)
(0.999372 -0.0112337 -2.45362e-19)
(1.00008 -0.0132542 2.54096e-20)
(0.997784 -0.000246887 -2.61246e-19)
(0.997676 -0.00135883 -1.13375e-19)
(0.9975 -0.0024079 -4.6928e-20)
(0.997268 -0.00337704 8.7191e-19)
(0.997006 -0.00424945 2.22143e-18)
(0.99673 -0.00501058 2.74838e-18)
(0.996464 -0.00565509 2.44215e-18)
(0.996223 -0.00618692 9.25214e-20)
(0.996024 -0.0066136 3.05119e-18)
(0.995875 -0.0069506 -7.80587e-19)
(0.995783 -0.00721291 6.75949e-22)
(0.995747 -0.00741788 3.86155e-18)
(0.995766 -0.00757984 4.14626e-18)
(0.995834 -0.00771312 1.02374e-18)
(0.995947 -0.00782964 2.48861e-18)
(0.996098 -0.00793891 4.73217e-19)
(0.99628 -0.00804768 -1.35295e-18)
(0.996489 -0.00816193 1.98823e-18)
(0.996717 -0.00828708 5.96337e-19)
(0.996963 -0.00842771 -3.89902e-18)
(0.997221 -0.00858832 5.70065e-19)
(0.997488 -0.00877403 7.50768e-19)
(0.997762 -0.00899159 1.1443e-19)
(0.998043 -0.00924867 -1.11498e-18)
(0.998328 -0.00955447 4.18381e-19)
(0.998617 -0.00991985 -1.14124e-18)
(0.998909 -0.0103564 5.42657e-19)
(0.99922 -0.0108769 -2.23979e-19)
(0.999438 -0.0113723 -7.0437e-20)
(1.00017 -0.0134022 3.67207e-21)
(0.997473 -0.000237144 1.79848e-19)
(0.997376 -0.00134149 -2.53338e-19)
(0.997218 -0.00238029 6.33757e-19)
(0.997011 -0.00334037 -5.66397e-19)
(0.996778 -0.00420618 -2.08263e-18)
(0.996533 -0.00496449 -1.08217e-18)
(0.996298 -0.00561079 -4.7975e-18)
(0.996087 -0.00614921 2.56871e-18)
(0.995914 -0.00658694 -4.18706e-19)
(0.995789 -0.00693848 2.90023e-19)
(0.995717 -0.00721775 7.24531e-19)
(0.995698 -0.00744077 -5.1398e-18)
(0.995731 -0.00762085 -3.52528e-18)
(0.995811 -0.00777141 3.79546e-18)
(0.995934 -0.00790382 5.20267e-19)
(0.996094 -0.00802724 1.33229e-18)
(0.996284 -0.00814826 -2.39854e-18)
(0.996499 -0.00827287 -1.66405e-18)
(0.996735 -0.0084066 1.09335e-18)
(0.996987 -0.0085542 1.24336e-18)
(0.997251 -0.00872037 -1.43938e-18)
(0.997525 -0.00891039 -6.97561e-19)
(0.997805 -0.00913121 9.34955e-19)
(0.998091 -0.00939068 3.81854e-19)
(0.99838 -0.00969807 4.80468e-19)
(0.998674 -0.0100642 2.11224e-19)
(0.998971 -0.0105006 1.5809e-19)
(0.999288 -0.0110201 5.39768e-19)
(0.999508 -0.0115139 -1.22955e-19)
(1.00024 -0.0135539 -4.50044e-20)
(0.997166 -0.000225788 -5.46062e-20)
(0.997078 -0.00131809 8.04031e-19)
(0.996938 -0.00234375 5.42241e-19)
(0.996753 -0.00329295 -5.86019e-20)
(0.996546 -0.00415139 -1.16353e-19)
(0.99633 -0.00490689 1.47112e-18)
(0.996125 -0.00555556 1.94807e-18)
(0.995942 -0.00610147 -1.71185e-18)
(0.995796 -0.00655129 -1.95691e-18)
(0.995694 -0.00691842 -6.79637e-19)
(0.995641 -0.00721569 -2.85948e-19)
(0.99564 -0.00745774 3.21698e-18)
(0.995687 -0.00765687 -5.35864e-18)
(0.99578 -0.0078256 -8.09467e-19)
(0.995913 -0.00797475 -7.16902e-19)
(0.996083 -0.00811312 1.02822e-18)
(0.996282 -0.00824715 2.30677e-18)
(0.996506 -0.0083828 3.39289e-18)
(0.996749 -0.00852573 -3.91815e-18)
(0.997009 -0.00868085 2.42834e-19)
(0.99728 -0.00885302 1.67731e-18)
(0.99756 -0.00904773 1.08694e-18)
(0.997846 -0.00927209 1.63838e-20)
(0.998138 -0.00953415 3.0602e-19)
(0.998434 -0.00984324 8.54818e-19)
(0.998733 -0.0102103 5.71985e-19)
(0.999034 -0.0106466 8.81185e-19)
(0.999359 -0.0111656 -5.35522e-20)
(0.999579 -0.0116583 2.08867e-19)
(1.00032 -0.0137088 3.71513e-20)
(0.996863 -0.00021375 -8.51164e-20)
(0.996784 -0.00129128 -4.54779e-19)
(0.99666 -0.00230221 -8.07375e-19)
(0.996496 -0.00323975 8.18246e-20)
(0.996314 -0.00409065 1.35401e-18)
(0.996125 -0.00484365 5.03321e-19)
(0.995946 -0.00549524 -1.13182e-19)
(0.99579 -0.00604929 9.00463e-19)
(0.995669 -0.00651185 1.54089e-18)
(0.995589 -0.00689518 8.54717e-19)
(0.995557 -0.00721096 8.77452e-19)
(0.995573 -0.00747253 -6.16094e-20)
(0.995635 -0.00769118 1.66818e-18)
(0.995741 -0.00787853 7.61551e-19)
(0.995886 -0.00804488 1.53574e-18)
(0.996066 -0.00819866 -9.07058e-19)
(0.996275 -0.00834613 -1.43799e-20)
(0.996508 -0.00849324 -1.56177e-18)
(0.99676 -0.00864575 -7.43006e-19)
(0.997028 -0.00880872 -3.471e-20)
(0.997306 -0.00898718 4.72478e-19)
(0.997594 -0.00918677 -9.95018e-19)
(0.997887 -0.00941482 -3.22731e-19)
(0.998186 -0.00967954 -4.05736e-19)
(0.998487 -0.00999038 -7.86059e-19)
(0.998792 -0.0103583 -2.79271e-19)
(0.999099 -0.0107948 -1.33735e-18)
(0.999431 -0.0113134 -4.57838e-19)
(0.999653 -0.0118056 -4.22618e-20)
(1.0004 -0.0138666 4.58061e-20)
(0.996565 -0.000201466 -6.13928e-20)
(0.996495 -0.00126266 -3.62172e-19)
(0.996384 -0.00225831 -5.54506e-20)
(0.99624 -0.00318404 -9.65728e-19)
(0.99608 -0.00402763 8.52048e-20)
(0.995916 -0.00477857 -2.50557e-19)
(0.995763 -0.0054336 4.00285e-19)
(0.995632 -0.00599628 8.2273e-19)
(0.995535 -0.00647197 -1.36593e-18)
(0.995477 -0.00687178 6.63743e-19)
(0.995465 -0.00720631 1.25806e-18)
(0.995498 -0.00748757 -9.26276e-19)
(0.995576 -0.00772591 2.93646e-18)
(0.995696 -0.00793207 -2.52203e-19)
(0.995853 -0.00811582 -3.43913e-18)
(0.996044 -0.00828523 -1.92857e-18)
(0.996263 -0.00844638 -7.77917e-19)
(0.996506 -0.00860519 -7.96944e-19)
(0.996767 -0.0087675 1.98668e-18)
(0.997044 -0.00893851 -1.155e-19)
(0.997331 -0.00912339 -1.84858e-18)
(0.997627 -0.00932797 1.40596e-18)
(0.997928 -0.00955974 1.22261e-18)
(0.998233 -0.00982713 4.27115e-19)
(0.998541 -0.0101397 -4.66712e-19)
(0.998852 -0.0105085 -3.21779e-20)
(0.999165 -0.0109452 1.05497e-18)
(0.999504 -0.0114638 5.91846e-19)
(0.999727 -0.0119555 -3.78291e-20)
(1.00048 -0.0140272 -4.33284e-20)
(0.996271 -0.000189426 8.05576e-20)
(0.996209 -0.00123369 6.17449e-19)
(0.996112 -0.00221406 -3.83901e-19)
(0.995986 -0.00312836 7.93883e-19)
(0.995847 -0.00396516 -2.99147e-19)
(0.995706 -0.00471458 -2.59825e-18)
(0.995577 -0.00537353 4.32347e-19)
(0.99547 -0.00594519 -2.43213e-18)
(0.995395 -0.00643419 -7.68848e-19)
(0.995359 -0.00685055 -1.3742e-18)
(0.995365 -0.0072038 -3.04327e-18)
(0.995416 -0.00750469 -7.09011e-19)
(0.99551 -0.00776265 5.33338e-19)
(0.995643 -0.00798758 -7.02792e-19)
(0.995814 -0.00818875 4.89708e-18)
(0.996017 -0.00837383 3.90332e-19)
(0.996247 -0.00854874 5.00351e-19)
(0.9965 -0.00871935 1.04285e-18)
(0.996771 -0.00889155 -3.04714e-19)
(0.997058 -0.00907068 1.5019e-18)
(0.997354 -0.00926206 6.27523e-19)
(0.997658 -0.00947164 5.71485e-19)
(0.997967 -0.00970714 -1.23887e-18)
(0.998281 -0.00997715 1.98976e-19)
(0.998595 -0.0102914 1.41183e-19)
(0.998913 -0.0106611 -6.25293e-19)
(0.999233 -0.011098 -2.64385e-19)
(0.99958 -0.0116166 -1.31693e-19)
(0.999805 -0.0121081 8.14585e-20)
(1.00056 -0.0141904 -2.39909e-21)
(0.995983 -0.000177761 -1.01433e-19)
(0.995928 -0.00120509 -2.11626e-19)
(0.995844 -0.00217072 9.49927e-19)
(0.995733 -0.00307421 -1.11136e-18)
(0.995614 -0.00390489 -4.3575e-19)
(0.995494 -0.0046534 1.23679e-18)
(0.995388 -0.0053167 -1.45193e-18)
(0.995303 -0.00589759 2.1201e-18)
(0.99525 -0.00639999 2.7011e-18)
(0.995234 -0.00683283 2.47712e-19)
(0.99526 -0.00720465 2.05689e-18)
(0.995328 -0.00752497 -1.49923e-18)
(0.995437 -0.00780237 -2.07e-18)
(0.995586 -0.00804592 -8.03003e-19)
(0.995769 -0.0082644 -6.69081e-19)
(0.995985 -0.0084651 2.26587e-18)
(0.996227 -0.00865377 -8.37215e-19)
(0.996491 -0.00883618 -1.94484e-18)
(0.996773 -0.0090183 3.92264e-19)
(0.997069 -0.00920557 -2.42827e-18)
(0.997375 -0.00940344 4.69095e-20)
(0.997689 -0.00961801 -1.88013e-18)
(0.998007 -0.00985718 1.37849e-18)
(0.998328 -0.0101297 -6.8407e-19)
(0.998651 -0.0104456 -1.93248e-19)
(0.998976 -0.0108161 2.93115e-19)
(0.999302 -0.0112533 -1.0008e-19)
(0.999657 -0.0117719 -3.40371e-19)
(0.999884 -0.0122633 2.32632e-20)
(1.00064 -0.0143561 7.41741e-21)
(0.995699 -0.000166721 8.01093e-20)
(0.995651 -0.00117762 -2.46902e-19)
(0.995579 -0.00212928 -2.51301e-20)
(0.995483 -0.00302282 1.75268e-18)
(0.995381 -0.00384817 1.16311e-18)
(0.995281 -0.00459641 -1.52833e-19)
(0.995196 -0.00526449 3.31705e-18)
(0.995132 -0.00585481 -1.12394e-18)
(0.9951 -0.0063706 -2.20294e-18)
(0.995104 -0.00681976 -7.50014e-19)
(0.995148 -0.00720989 -1.17859e-18)
(0.995234 -0.00754935 -1.28369e-18)
(0.995359 -0.00784591 1.48824e-18)
(0.995522 -0.00810783 2.4744e-18)
(0.99572 -0.00834344 -4.56333e-19)
(0.995948 -0.00855962 2.70969e-19)
(0.996202 -0.00876195 -5.53916e-19)
(0.996478 -0.0089561 1.23699e-18)
(0.996771 -0.00914811 -9.86348e-19)
(0.997079 -0.00934349 1.19987e-18)
(0.997395 -0.00954782 -3.16372e-19)
(0.997718 -0.00976732 -9.00572e-20)
(0.998045 -0.0100101 -4.21068e-19)
(0.998376 -0.0102851 4.89302e-19)
(0.998706 -0.0106024 3.39107e-19)
(0.999039 -0.0109737 2.67894e-19)
(0.999373 -0.0114111 -1.07169e-19)
(0.999737 -0.0119298 1.93944e-19)
(0.999965 -0.0124212 4.19638e-20)
(1.00072 -0.0145243 8.04951e-21)
(0.995421 -0.000156275 -6.13177e-20)
(0.995379 -0.00115151 -1.61908e-19)
(0.995317 -0.00209021 -2.84384e-19)
(0.995235 -0.00297476 -9.19842e-19)
(0.995149 -0.00379562 -8.80104e-20)
(0.995068 -0.00454422 1.06857e-18)
(0.995002 -0.00521747 -2.30685e-18)
(0.994958 -0.00581739 6.19997e-19)
(0.994946 -0.00634653 1.46496e-18)
(0.994969 -0.00681183 1.28497e-18)
(0.995032 -0.00721998 1.12636e-18)
(0.995134 -0.00757828 3.91297e-20)
(0.995276 -0.00789368 2.74981e-19)
(0.995454 -0.0081737 -2.32835e-18)
(0.995665 -0.00842621 2.39305e-18)
(0.995908 -0.00865771 -9.28592e-19)
(0.996174 -0.00887358 -8.47282e-20)
(0.996463 -0.00907939 -6.69335e-19)
(0.996767 -0.00928121 8.18576e-19)
(0.997086 -0.00948464 -8.74178e-19)
(0.997414 -0.00969536 -7.30312e-19)
(0.997747 -0.00991972 5.1566e-19)
(0.998084 -0.010166 -1.26123e-18)
(0.998423 -0.0104434 -7.3242e-19)
(0.998763 -0.0107621 2.73123e-19)
(0.999104 -0.011134 -4.66519e-19)
(0.999446 -0.0115715 -1.28854e-19)
(0.999818 -0.0120904 3.68336e-20)
(1.00005 -0.0125816 -1.3001e-20)
(1.00081 -0.0146949 -3.52493e-20)
(0.995146 -0.000146552 2.51434e-20)
(0.99511 -0.00112716 3.53829e-19)
(0.995058 -0.00205395 -6.72735e-19)
(0.994988 -0.00293057 7.48067e-19)
(0.994918 -0.00374781 -2.5838e-19)
(0.994854 -0.00449744 -2.15331e-18)
(0.994806 -0.00517627 7.08761e-19)
(0.994782 -0.00578595 -4.56269e-19)
(0.994788 -0.00632838 -5.72645e-19)
(0.99483 -0.0068096 -5.54361e-19)
(0.99491 -0.00723548 5.44006e-19)
(0.99503 -0.00761225 2.29344e-18)
(0.995187 -0.00794616 -1.24053e-18)
(0.995381 -0.00824398 1.37589e-18)
(0.995607 -0.00851313 -2.30577e-18)
(0.995863 -0.00875974 -8.43298e-19)
(0.996143 -0.00898899 1.1614e-18)
(0.996444 -0.00920635 9.15914e-19)
(0.996761 -0.0094179 -5.27007e-19)
(0.997092 -0.00962928 2.16559e-18)
(0.997431 -0.00984631 1.95158e-18)
(0.997776 -0.0100754 -8.15473e-19)
(0.998123 -0.0103251 1.0243e-18)
(0.998472 -0.0106048 3.7797e-19)
(0.99882 -0.0109248 -5.86079e-19)
(0.99917 -0.0112972 3.49475e-19)
(0.99952 -0.0117348 5.65224e-19)
(0.999901 -0.0122537 8.92619e-20)
(1.00013 -0.0127447 -4.46432e-20)
(1.00089 -0.0148681 2.31707e-20)
(0.994876 -0.000137449 1.5269e-19)
(0.994846 -0.00110452 4.33507e-20)
(0.994802 -0.00202061 4.84608e-19)
(0.994744 -0.00289034 -6.83271e-19)
(0.994688 -0.00370485 3.92022e-19)
(0.994639 -0.00445615 -2.52767e-19)
(0.994609 -0.00514094 1.05802e-18)
(0.994602 -0.00576054 -3.63152e-19)
(0.994627 -0.00631621 -4.90244e-19)
(0.994686 -0.00681316 -6.44093e-19)
(0.994784 -0.00725648 -2.00973e-18)
(0.994921 -0.00765141 6.44071e-19)
(0.995094 -0.00800351 3.36109e-19)
(0.995303 -0.00831882 6.05529e-19)
(0.995544 -0.00860437 -2.31835e-19)
(0.995815 -0.0088659 8.21952e-19)
(0.996109 -0.00910838 -1.68196e-18)
(0.996423 -0.00933715 -1.69376e-18)
(0.996753 -0.00955831 2.05398e-20)
(0.997096 -0.00977757 -1.39472e-18)
(0.997447 -0.0100008 -7.07849e-21)
(0.997803 -0.0102346 7.92214e-19)
(0.998161 -0.0104876 -4.88651e-19)
(0.99852 -0.0107693 5.5311e-20)
(0.998879 -0.0110905 2.61995e-19)
(0.999237 -0.0114633 -1.23776e-19)
(0.999596 -0.0119009 -5.66681e-19)
(0.999986 -0.0124198 -2.18474e-19)
(1.00022 -0.0129105 4.03093e-20)
(1.00098 -0.0150437 2.07754e-20)
(0.99461 -0.000129037 -1.03128e-19)
(0.994584 -0.00108382 1.05223e-19)
(0.994548 -0.00199035 -1.62125e-19)
(0.994501 -0.00285428 3.91879e-19)
(0.994458 -0.00366694 -5.65705e-19)
(0.994424 -0.00442056 -2.92708e-19)
(0.99441 -0.00511172 -1.44439e-18)
(0.99442 -0.0057414 1.60134e-18)
(0.994462 -0.00631029 2.24766e-18)
(0.994539 -0.00682279 5.41166e-19)
(0.994654 -0.00728328 4.33353e-19)
(0.994807 -0.00769606 -2.61657e-19)
(0.994997 -0.00806603 2.49706e-19)
(0.995221 -0.00839856 -1.18234e-19)
(0.995478 -0.00870026 1.38558e-18)
(0.995763 -0.00897649 5.26396e-19)
(0.996071 -0.00923202 6.14096e-19)
(0.996399 -0.00947207 1.19439e-19)
(0.996743 -0.00970274 1.18699e-18)
(0.997099 -0.00992976 6.83356e-19)
(0.997462 -0.0101591 -9.29246e-19)
(0.99783 -0.0103974 -5.70108e-19)
(0.9982 -0.0106536 3.68341e-19)
(0.99857 -0.0109373 8.63994e-20)
(0.998938 -0.0112595 6.09528e-20)
(0.999306 -0.0116326 -3.95377e-20)
(0.999673 -0.0120701 3.13919e-19)
(1.00007 -0.0125887 1.08945e-19)
(1.00031 -0.0130791 -1.86619e-19)
(1.00107 -0.0152219 -3.99981e-21)
(0.994348 -0.000121188 4.17195e-20)
(0.994326 -0.00106487 2.24917e-20)
(0.994297 -0.00196307 3.32862e-19)
(0.99426 -0.00282224 -1.92171e-19)
(0.994229 -0.00363392 -7.33529e-19)
(0.994209 -0.00439051 1.41996e-19)
(0.99421 -0.00508843 -1.3186e-18)
(0.994236 -0.00572837 2.72158e-19)
(0.994295 -0.00631046 -1.60123e-18)
(0.994388 -0.00683838 -4.82416e-19)
(0.99452 -0.00731582 -2.92995e-19)
(0.99469 -0.00774619 4.85816e-19)
(0.994896 -0.00813376 -4.09041e-19)
(0.995136 -0.00848324 4.20535e-20)
(0.995407 -0.00880086 -3.7974e-19)
(0.995707 -0.00909161 -1.22426e-18)
(0.996031 -0.00936005 -1.11314e-19)
(0.996373 -0.00961124 7.68492e-19)
(0.996731 -0.0098513 -8.32325e-19)
(0.9971 -0.010086 5.24642e-19)
(0.997477 -0.0103213 -1.18554e-18)
(0.997857 -0.0105641 6.37072e-19)
(0.998238 -0.0108232 -7.58688e-19)
(0.99862 -0.0111089 2.38761e-19)
(0.998999 -0.0114319 -1.57638e-19)
(0.999377 -0.0118051 5.82648e-21)
(0.999753 -0.0122423 -1.68394e-19)
(1.00016 -0.0127606 -1.25282e-19)
(1.0004 -0.0132505 9.08723e-20)
(1.00117 -0.0154025 3.22971e-21)
(0.994088 -0.000113945 -9.40256e-20)
(0.99407 -0.00104782 -3.70024e-19)
(0.994048 -0.00193879 -3.29001e-19)
(0.99402 -0.00279427 1.38675e-19)
(0.994 -0.00360584 2.10834e-19)
(0.993993 -0.00436603 1.1389e-18)
(0.994008 -0.00507113 1.95954e-18)
(0.99405 -0.00572155 -2.29545e-18)
(0.994124 -0.00631687 3.66889e-19)
(0.994234 -0.00686009 -2.15762e-19)
(0.994382 -0.00735429 2.26063e-18)
(0.994568 -0.007802 -8.42053e-19)
(0.99479 -0.00820692 -2.62858e-19)
(0.995046 -0.00857312 1.21924e-19)
(0.995333 -0.00890646 -1.61726e-18)
(0.995649 -0.00921153 5.01454e-19)
(0.995987 -0.00949272 3.10237e-19)
(0.996345 -0.00975492 1.72754e-19)
(0.996716 -0.0100042 2.70515e-19)
(0.9971 -0.0102464 -3.23331e-19)
(0.99749 -0.0104877 3.53258e-19)
(0.997884 -0.0107347 -4.83832e-19)
(0.998277 -0.0109968 6.47302e-19)
(0.99867 -0.0112841 5.03832e-19)
(0.99906 -0.0116078 5.82789e-19)
(0.999449 -0.0119811 -2.24094e-20)
(0.999835 -0.0124177 6.77535e-20)
(1.00025 -0.0129356 2.44118e-20)
(1.0005 -0.0134248 -2.6138e-20)
(1.00127 -0.0155858 -1.18721e-20)
(0.993832 -0.000107177 7.70539e-20)
(0.993817 -0.00103241 2.15315e-19)
(0.993801 -0.00191734 -1.44484e-20)
(0.993781 -0.00277013 5.77519e-20)
(0.993771 -0.00358241 -1.81985e-20)
(0.993776 -0.00434684 -6.82831e-19)
(0.993805 -0.00505953 -9.82617e-20)
(0.993861 -0.00572064 8.85163e-19)
(0.993951 -0.00632926 1.071e-18)
(0.994076 -0.00688772 2.03144e-18)
(0.994241 -0.00739854 5.78138e-19)
(0.994443 -0.00786342 6.63179e-19)
(0.994681 -0.00828548 -6.13042e-19)
(0.994953 -0.0086682 -9.47852e-19)
(0.995256 -0.00901707 2.31311e-18)
(0.995587 -0.00933632 1.07328e-18)
(0.995941 -0.00963012 -1.84206e-18)
(0.996314 -0.0099032 -9.58673e-19)
(0.996701 -0.0101617 -1.57181e-18)
(0.997099 -0.0104113 -6.31449e-19)
(0.997503 -0.0106583 6.54402e-19)
(0.99791 -0.0109095 9.58812e-19)
(0.998317 -0.0111743 -1.18556e-18)
(0.998722 -0.0114632 -2.12885e-19)
(0.999123 -0.0117874 -4.74386e-19)
(0.999523 -0.0121605 1.25924e-19)
(0.999918 -0.0125965 -1.84793e-19)
(1.00035 -0.0131137 -1.21908e-19)
(1.00059 -0.0136019 3.18569e-20)
(1.00137 -0.0157716 -4.71347e-21)
(0.993577 -0.00010092 8.68189e-21)
(0.993566 -0.00101876 1.11001e-19)
(0.993555 -0.00189868 1.80308e-19)
(0.993542 -0.00274978 -3.41946e-19)
(0.993542 -0.00356361 2.18272e-19)
(0.993558 -0.00433292 3.29721e-19)
(0.9936 -0.00505363 -5.66448e-19)
(0.99367 -0.0057257 5.62048e-19)
(0.993774 -0.00634771 -1.55557e-20)
(0.993915 -0.0069214 -2.0866e-18)
(0.994095 -0.00744872 -9.13917e-19)
(0.994313 -0.00793061 -9.69686e-19)
(0.994568 -0.00836965 1.54016e-19)
(0.994856 -0.00876872 7.04588e-19)
(0.995175 -0.00913295 -1.25734e-18)
(0.995523 -0.00946623 -5.3221e-19)
(0.995893 -0.0097725 1.60974e-18)
(0.996281 -0.0100564 1.49967e-18)
(0.996683 -0.0103239 2.56049e-19)
(0.997097 -0.0105808 9.90004e-19)
(0.997515 -0.0108334 -4.80684e-19)
(0.997936 -0.0110887 4.32176e-20)
(0.998356 -0.0113561 1.66367e-18)
(0.998774 -0.0116463 -5.09356e-19)
(0.999188 -0.0119709 -8.74056e-20)
(0.999598 -0.0123436 -1.50433e-19)
(1 -0.0127787 -8.53068e-21)
(1.00044 -0.0132951 3.34978e-19)
(1.0007 -0.0137821 3.16978e-20)
(1.00147 -0.0159601 7.59207e-21)
(0.993325 -9.50469e-05 -1.48742e-20)
(0.993316 -0.00100658 -1.68464e-19)
(0.993311 -0.00188262 8.33621e-22)
(0.993305 -0.00273297 -8.92418e-20)
(0.993313 -0.00354913 -1.16867e-19)
(0.99334 -0.00432393 -3.88791e-19)
(0.993393 -0.00505311 -6.75623e-20)
(0.993477 -0.0057364 -7.22879e-19)
(0.993595 -0.00637193 -1.41256e-18)
(0.993751 -0.00696087 1.08678e-18)
(0.993947 -0.00750466 -2.09556e-18)
(0.994181 -0.00800346 2.92487e-19)
(0.994451 -0.00845936 2.26377e-19)
(0.994756 -0.00887463 4.97154e-19)
(0.995092 -0.00925411 -3.96422e-19)
(0.995456 -0.00960131 -1.53916e-19)
(0.995842 -0.00991995 1.59887e-19)
(0.996246 -0.0102145 -1.49276e-18)
(0.996664 -0.0104909 9.25899e-19)
(0.997093 -0.010755 -1.42908e-19)
(0.997527 -0.0110132 3.34324e-19)
(0.997963 -0.0112723 7.15181e-19)
(0.998396 -0.0115422 -1.03736e-18)
(0.998828 -0.0118336 5.72089e-20)
(0.999254 -0.0121583 1.46747e-19)
(0.999676 -0.0125304 -1.19705e-19)
(1.00009 -0.0129645 4.33066e-19)
(1.00054 -0.0134797 -8.57358e-21)
(1.0008 -0.0139654 -2.66199e-20)
(1.00158 -0.0161512 -2.69091e-21)
(0.993075 -8.95928e-05 -2.10467e-20)
(0.993068 -0.000995988 4.62233e-21)
(0.993067 -0.00186909 7.13248e-20)
(0.993067 -0.00271964 -2.89766e-20)
(0.993083 -0.00353893 -6.63153e-21)
(0.99312 -0.00431985 -1.87099e-19)
(0.993185 -0.00505795 3.01669e-19)
(0.993281 -0.00575278 4.195e-19)
(0.993413 -0.006402 -4.04589e-19)
(0.993584 -0.00700625 3.10462e-19)
(0.993794 -0.00756649 2.66963e-18)
(0.994044 -0.00808213 6.07676e-19)
(0.994331 -0.00855478 -1.34331e-18)
(0.994652 -0.00898617 -4.28952e-19)
(0.995005 -0.00938079 7.92653e-19)
(0.995385 -0.00974179 2.53208e-19)
(0.995788 -0.0100727 7.20973e-19)
(0.996209 -0.0103778 9.4207e-19)
(0.996644 -0.0106631 6.73066e-19)
(0.997089 -0.0109343 -6.9827e-19)
(0.997538 -0.0111978 -7.33751e-19)
(0.997989 -0.0114606 -1.01314e-18)
(0.998437 -0.0117328 8.42706e-20)
(0.998882 -0.0120252 3.7481e-19)
(0.999321 -0.0123499 3.51218e-19)
(0.999755 -0.0127211 2.62667e-20)
(1.00018 -0.0131539 1.54054e-20)
(1.00065 -0.0136677 9.81853e-21)