/*--------------------------------*- C++ -*----------------------------------*\
  =========                 |
  \\      /  F ield         | OpenFOAM: The Open Source CFD Toolbox
   \\    /   O peration     | Website:  https://openfoam.org
    \\  /    A nd           | Version:  6.0
     \\/     M anipulation  |
\*---------------------------------------------------------------------------*/
FoamFile
{
    version     2.0;
    format      ascii;
    class       volScalarField;
    location    "16";
    object      p;
}
// * * * * * * * * * * * * * * * * * * * * * * * * * * * * * * * * * * * * * //

dimensions      [0 2 -2 0 0 0 0];

internalField   nonuniform List<scalar> 
62000
(
0.0147386
0.0147459
0.0147495
0.0147472
0.0147406
0.0147285
0.0147123
0.0146907
0.014665
0.0146334
0.0145975
0.014555
0.0145074
0.0144518
0.0143897
0.0143179
0.0142379
0.0141467
0.0140455
0.0139317
0.0138055
0.013665
0.0135092
0.013337
0.0131461
0.0129359
0.0127031
0.0124467
0.0121631
0.0118505
0.0115045
0.0111209
0.0106962
0.010225
0.00970283
0.00912205
0.00847546
0.00775736
0.00696211
0.00608474
0.00512167
0.00407252
0.00294038
0.00173344
0.00046538
-0.000844541
-0.00216886
-0.00347709
-0.00473048
-0.00589148
-0.00692277
-0.00778875
-0.00846529
-0.00890293
-0.00909185
-0.00897017
-0.00853147
-0.00752289
-0.00689119
-0.0113536
0.0146803
0.0147035
0.0147224
0.014734
0.0147393
0.0147369
0.0147282
0.0147122
0.0146903
0.0146604
0.014624
0.0145795
0.0145294
0.0144715
0.014408
0.0143359
0.0142567
0.0141672
0.0140687
0.0139582
0.0138365
0.0137009
0.0135513
0.0133856
0.0132027
0.0130009
0.012778
0.0125322
0.0122606
0.0119608
0.0116293
0.011262
0.0108552
0.0104037
0.00990061
0.00933761
0.00870788
0.0080047
0.00722084
0.00634887
0.00538275
0.00431893
0.00315696
0.0019009
0.000560003
-0.00085052
-0.00230653
-0.00377939
-0.00522897
-0.00661416
-0.0078886
-0.00900627
-0.00992629
-0.010579
-0.0109439
-0.0109256
-0.0104912
-0.00940232
-0.00898602
-0.0096191
0.0145262
0.0145505
0.0145701
0.0145835
0.0145916
0.0145923
0.0145868
0.0145745
0.0145561
0.0145288
0.0144923
0.014444
0.0143866
0.0143192
0.0142452
0.0141624
0.0140732
0.0139738
0.0138661
0.0137464
0.0136157
0.0134711
0.0133127
0.0131382
0.0129466
0.0127361
0.0125048
0.012251
0.0119721
0.011666
0.0113296
0.0109599
0.0105532
0.0101051
0.00960742
0.00905301
0.00843588
0.00775013
0.00698866
0.00614438
0.00521149
0.00418662
0.0030691
0.00186226
0.000574198
-0.000781272
-0.0021817
-0.00359967
-0.00499525
-0.00632684
-0.00754448
-0.00860293
-0.00945681
-0.0100544
-0.0104114
-0.0104903
-0.010323
-0.00983515
-0.0105303
-0.0124535
0.0144001
0.0144185
0.0144329
0.0144432
0.0144494
0.0144483
0.0144403
0.0144259
0.0144071
0.0143809
0.0143453
0.0142955
0.0142323
0.0141554
0.0140694
0.013974
0.0138723
0.0137615
0.0136427
0.0135126
0.0133714
0.0132161
0.0130467
0.0128606
0.0126571
0.0124342
0.0121903
0.0119237
0.0116322
0.0113138
0.0109658
0.0105855
0.0101703
0.00971473
0.00921223
0.00865538
0.00803905
0.00735742
0.00660344
0.00577004
0.00485165
0.00384472
0.00274788
0.00156297
0.000295643
-0.00104349
-0.00243643
-0.00386075
-0.00528131
-0.00666088
-0.00794961
-0.00910471
-0.0100774
-0.0108246
-0.011377
-0.0117259
-0.0119194
-0.011916
-0.013126
-0.0149517
0.0142755
0.0142898
0.0143011
0.0143099
0.014316
0.0143135
0.0143016
0.0142811
0.0142569
0.0142277
0.014191
0.0141392
0.0140708
0.0139836
0.0138832
0.0137707
0.0136514
0.0135234
0.0133887
0.0132433
0.0130876
0.0129179
0.0127339
0.0125329
0.012314
0.012075
0.0118144
0.0115305
0.0112212
0.0108847
0.0105184
0.01012
0.00968621
0.00921314
0.0086934
0.00812092
0.00749059
0.00679639
0.00603098
0.00518737
0.00426012
0.00324568
0.00214214
0.000950065
-0.000326947
-0.00168152
-0.0031003
-0.00456665
-0.00605226
-0.00752553
-0.00894018
-0.0102528
-0.0114108
-0.0123626
-0.0131314
-0.0136982
-0.0140819
-0.0142398
-0.0153942
-0.0170418
0.0141622
0.014171
0.014177
0.0141822
0.0141864
0.0141822
0.014166
0.0141381
0.0141055
0.0140702
0.0140306
0.0139776
0.0139059
0.013811
0.0136969
0.0135664
0.0134258
0.0132759
0.0131191
0.0129523
0.0127753
0.0125846
0.0123793
0.0121565
0.0119151
0.0116529
0.0113683
0.0110595
0.0107246
0.0103616
0.00996815
0.00954153
0.00907953
0.00857693
0.00802825
0.00742736
0.00676962
0.00604887
0.00525774
0.00438959
0.00343973
0.00240551
0.00128588
8.20387e-05
-0.00120215
-0.00255963
-0.0039788
-0.00544615
-0.00693854
-0.00843044
-0.00988083
-0.0112515
-0.0124931
-0.0135539
-0.0144551
-0.0151771
-0.0157275
-0.0160993
-0.0174796
-0.0194863
0.0140343
0.0140375
0.0140369
0.0140359
0.0140363
0.0140299
0.0140102
0.0139759
0.0139351
0.0138929
0.0138502
0.0137978
0.0137277
0.013632
0.0135124
0.0133709
0.0132151
0.0130469
0.0128704
0.0126829
0.0124847
0.012272
0.012044
0.0117975
0.0115314
0.0112436
0.0109324
0.0105959
0.0102322
0.0098394
0.00941478
0.00895635
0.00846056
0.00792385
0.00733984
0.00670334
0.00600978
0.00525277
0.00442484
0.00351966
0.00253332
0.00146432
0.000313167
-0.000917241
-0.00222098
-0.00358902
-0.00500855
-0.00646609
-0.00794118
-0.00941277
-0.0108476
-0.0122162
-0.0134822
-0.0146059
-0.0156251
-0.0165382
-0.0173578
-0.0180971
-0.0199145
-0.0223144
0.0138712
0.0138702
0.013863
0.0138541
0.0138481
0.0138375
0.0138135
0.0137724
0.0137219
0.0136698
0.0136195
0.0135637
0.0134932
0.013398
0.0132765
0.0131302
0.0129656
0.0127866
0.0125972
0.0123964
0.0121839
0.0119562
0.0117119
0.0114479
0.0111629
0.0108549
0.0105221
0.0101629
0.00977525
0.00935709
0.00890601
0.00841913
0.00789408
0.00732577
0.00670887
0.00603764
0.00530725
0.00451053
0.00363927
0.0026866
0.00164842
0.000523453
-0.000687217
-0.00197957
-0.00334588
-0.00477464
-0.00625056
-0.00775799
-0.00927617
-0.0107859
-0.0122584
-0.0136735
-0.0150072
-0.0162354
-0.0174122
-0.018551
-0.0196521
-0.0206947
-0.0227547
-0.0252778
0.0136267
0.0136284
0.0136197
0.0136055
0.0135942
0.0135798
0.0135524
0.0135055
0.0134454
0.0133808
0.013318
0.0132516
0.0131732
0.0130714
0.0129435
0.0127889
0.0126146
0.0124241
0.0122232
0.0120108
0.0117872
0.0115485
0.0112929
0.011017
0.0107192
0.0103971
0.0100492
0.0096738
0.00926862
0.00883191
0.0083606
0.00785265
0.00730423
0.00671136
0.00606765
0.00536711
0.004604
0.00376985
0.00285493
0.00185089
0.000752199
-0.000443646
-0.00173659
-0.00312325
-0.00459563
-0.00614097
-0.0077418
-0.00937946
-0.0110307
-0.0126737
-0.0142801
-0.0158304
-0.0173063
-0.0186874
-0.0200332
-0.0213543
-0.0226155
-0.0237421
-0.0257407
-0.0281105
0.0133261
0.0133341
0.0133271
0.0133096
0.0132929
0.013274
0.0132428
0.0131907
0.013122
0.0130447
0.0129663
0.0128835
0.0127885
0.0126704
0.0125251
0.0123518
0.0121569
0.0119452
0.011723
0.0114905
0.0112483
0.0109926
0.0107211
0.0104299
0.0101169
0.00977939
0.00941558
0.00902362
0.00860127
0.00814644
0.00765643
0.0071282
0.00655905
0.00594374
0.0052763
0.00454994
0.00375782
0.0028899
0.0019346
0.000881493
-0.000277148
-0.00154614
-0.00292781
-0.00442096
-0.0060191
-0.00770975
-0.00947437
-0.0112914
-0.0131334
-0.0149734
-0.0167766
-0.0185182
-0.0201739
-0.0217165
-0.0231955
-0.0246055
-0.0258709
-0.0268839
-0.0286463
-0.0307219
0.0129436
0.0129622
0.0129617
0.0129453
0.0129266
0.0129059
0.0128736
0.0128203
0.0127477
0.0126629
0.0125733
0.0124762
0.0123647
0.0122276
0.0120606
0.011862
0.0116385
0.0113951
0.0111398
0.0108738
0.0105991
0.0103123
0.0100114
0.00969197
0.00935181
0.00898773
0.00859762
0.00817947
0.00773075
0.00724952
0.0067324
0.0061773
0.00558029
0.00493715
0.00424149
0.00348616
0.00266355
0.00176225
0.000769066
-0.000328374
-0.00154004
-0.00287324
-0.00433314
-0.00592161
-0.00763478
-0.00946187
-0.0113846
-0.0133793
-0.0154147
-0.0174565
-0.0194619
-0.0213942
-0.0232176
-0.0248888
-0.0264421
-0.0278553
-0.0290249
-0.0298496
-0.0313577
-0.0331146
0.0125252
0.0125537
0.0125599
0.0125458
0.0125261
0.0125036
0.0124706
0.0124173
0.0123439
0.0122562
0.0121605
0.0120545
0.0119307
0.0117779
0.0115906
0.011367
0.0111125
0.0108336
0.0105383
0.01023
0.00991138
0.00958057
0.0092358
0.00887322
0.00849052
0.00808438
0.00765256
0.00719293
0.00670292
0.00618032
0.00562219
0.0050256
0.00438782
0.00370421
0.00296884
0.00217473
0.00131389
0.000374064
-0.00065889
-0.00179864
-0.00305687
-0.00444285
-0.00596422
-0.00762584
-0.00942684
-0.0113588
-0.0134047
-0.0155401
-0.017731
-0.0199366
-0.022105
-0.0241886
-0.0261369
-0.0278919
-0.0294723
-0.0308463
-0.0319001
-0.0325632
-0.0338886
-0.0353717
0.0120525
0.0120909
0.0121051
0.0120954
0.0120773
0.0120549
0.0120226
0.0119708
0.0118994
0.0118126
0.0117167
0.0116082
0.01148
0.0113193
0.0111204
0.0108795
0.010602
0.0102929
0.00996164
0.00961172
0.00924734
0.00886764
0.0084719
0.00805684
0.00762067
0.00716022
0.00667348
0.00615843
0.00561249
0.00503384
0.00441901
0.00376629
0.0030721
0.00233295
0.00154354
0.000697175
-0.000213653
-0.00120141
-0.00228034
-0.00346451
-0.00476641
-0.00619638
-0.00776358
-0.00947525
-0.0113332
-0.0133316
-0.0154554
-0.0176808
-0.0199725
-0.0222856
-0.0245621
-0.0267441
-0.028771
-0.0305714
-0.0321553
-0.0334905
-0.0344651
-0.0350467
-0.0362826
-0.0375548
0.0115773
0.0116195
0.0116369
0.0116291
0.0116103
0.011586
0.0115521
0.0115002
0.0114295
0.0113441
0.0112493
0.0111418
0.0110132
0.0108509
0.0106473
0.010398
0.0101064
0.00977756
0.0094197
0.00903704
0.00863384
0.00821029
0.00776616
0.00729893
0.00680736
0.00628869
0.00574133
0.00516357
0.00455324
0.0039086
0.00322697
0.00250606
0.00174368
0.000936646
8.02493e-05
-0.000830973
-0.00180379
-0.0028503
-0.0039841
-0.00521878
-0.0065668
-0.00803854
-0.00964364
-0.0113908
-0.0132837
-0.0153188
-0.0174835
-0.0197554
-0.0220998
-0.0244701
-0.026805
-0.0290415
-0.0311119
-0.0329386
-0.0345277
-0.0358531
-0.0368084
-0.0373903
-0.0386141
-0.0397383
0.0110523
0.0110949
0.0111139
0.0111078
0.0110892
0.0110641
0.0110298
0.0109785
0.0109096
0.010827
0.0107358
0.0106322
0.0105081
0.0103497
0.0101492
0.00990033
0.00960587
0.00926902
0.00889769
0.00849513
0.00806582
0.00760994
0.00712767
0.00661682
0.00607663
0.00550467
0.0048998
0.00426073
0.00358561
0.00287343
0.00212127
0.00132834
0.000491929
-0.000390052
-0.00132096
-0.00230562
-0.0033494
-0.00446358
-0.00566059
-0.00695287
-0.00835215
-0.00986803
-0.0115097
-0.0132862
-0.0152027
-0.0172572
-0.0194394
-0.0217291
-0.0240936
-0.0264869
-0.028848
-0.0311114
-0.0332086
-0.0350586
-0.0366689
-0.038022
-0.0390156
-0.0396626
-0.0409231
-0.0419466
0.0105254
0.0105627
0.0105784
0.0105704
0.0105494
0.0105212
0.0104842
0.0104317
0.0103629
0.0102818
0.0101931
0.0100932
0.00997332
0.00982014
0.00962428
0.00937982
0.00908758
0.00875061
0.00837509
0.00796409
0.00752102
0.00704602
0.00653881
0.00599727
0.0054206
0.00480648
0.00415399
0.00346212
0.00272946
0.00195515
0.00113724
0.000274485
-0.000634448
-0.00159096
-0.00259805
-0.00365887
-0.00477766
-0.0059647
-0.00723096
-0.00858738
-0.0100445
-0.0116106
-0.0132937
-0.0151027
-0.0170429
-0.0191138
-0.0213067
-0.0236038
-0.0259753
-0.0283774
-0.0307513
-0.0330332
-0.0351552
-0.0370388
-0.0386937
-0.0401109
-0.0411863
-0.0419353
-0.0432567
-0.0442153
0.00996167
0.00999297
0.010005
0.00999483
0.00997169
0.00994082
0.00990136
0.00984698
0.0097777
0.00969707
0.00961024
0.00951325
0.00939774
0.00924958
0.00906008
0.00882188
0.00853603
0.0082039
0.00783153
0.00742055
0.00697406
0.00649131
0.00597165
0.00541248
0.00481273
0.00416984
0.0034828
0.00275064
0.00197201
0.00114655
0.000271999
-0.000651519
-0.00162579
-0.00265156
-0.00373024
-0.00486461
-0.00605742
-0.00731789
-0.00865554
-0.0100797
-0.0115996
-0.0132218
-0.014953
-0.0168011
-0.0187714
-0.0208639
-0.0230714
-0.0253785
-0.0277582
-0.0301698
-0.0325585
-0.034863
-0.03702
-0.0389527
-0.0406746
-0.0421826
-0.0433662
-0.0442346
-0.0456224
-0.0465376
0.00942257
0.00944288
0.00944617
0.0094296
0.0094001
0.00936264
0.00931699
0.00925747
0.00918424
0.00910104
0.00901269
0.00891555
0.0088007
0.00865477
0.0084681
0.00823414
0.00795276
0.0076258
0.00725797
0.00685084
0.00640633
0.00592328
0.00540012
0.00483371
0.00422234
0.00356294
0.00285415
0.00209468
0.00128318
0.000418985
-0.000499481
-0.00147291
-0.00250202
-0.00358691
-0.00472927
-0.00593033
-0.00719206
-0.00852278
-0.0099307
-0.0114237
-0.0130096
-0.0146934
-0.0164802
-0.0183769
-0.0203881
-0.0225139
-0.0247482
-0.0270772
-0.0294771
-0.0319102
-0.0343257
-0.0366666
-0.038873
-0.0408725
-0.0426809
-0.0442982
-0.0456028
-0.0465916
-0.0480423
-0.0489293
0.00884525
0.0088543
0.00884896
0.0088261
0.00879091
0.0087479
0.00869693
0.00863302
0.00855634
0.00847085
0.00838126
0.00828382
0.00816982
0.00802535
0.00784145
0.00761084
0.00733399
0.00701186
0.00664942
0.00624736
0.00580748
0.00532782
0.00480633
0.00423921
0.00362411
0.00295733
0.00223697
0.00146124
0.000628346
-0.000262379
-0.0012133
-0.00222415
-0.00329644
-0.00443027
-0.00562587
-0.00688474
-0.00820787
-0.00960285
-0.0110769
-0.0126367
-0.0142888
-0.016037
-0.0178847
-0.0198377
-0.0218998
-0.024071
-0.0263457
-0.0287115
-0.031147
-0.0336173
-0.036076
-0.0384692
-0.0407423
-0.0428245
-0.044733
-0.046469
-0.0478971
-0.0490006
-0.0505054
-0.0513725
0.00828107
0.00827616
0.00825937
0.00822769
0.00818431
0.00813339
0.00807515
0.00800508
0.00792339
0.00783419
0.00774174
0.00764243
0.00752677
0.00738161
0.00719701
0.0069668
0.00669064
0.00637048
0.00601051
0.00561187
0.00517562
0.00469971
0.00418137
0.00361638
0.00300166
0.00233293
0.00160762
0.000823354
-2.20985e-05
-0.000930164
-0.00190292
-0.00294144
-0.00404663
-0.00521824
-0.00645753
-0.00776479
-0.00914095
-0.0105932
-0.012128
-0.0137512
-0.0154684
-0.0172823
-0.0191951
-0.0212113
-0.0233342
-0.0255629
-0.0278922
-0.0303108
-0.032799
-0.0353242
-0.0378432
-0.0403058
-0.0426598
-0.0448379
-0.0468566
-0.0487161
-0.0502652
-0.0514733
-0.0530243
-0.0538788
0.00768301
0.00766701
0.00764129
0.00760235
0.00755251
0.00749503
0.00743059
0.00735471
0.00726827
0.00717502
0.00707971
0.00697798
0.00686088
0.00671414
0.00652889
0.00629793
0.00602199
0.00570221
0.00534353
0.00494653
0.00451258
0.00403918
0.00352344
0.00296071
0.00234747
0.00167889
0.000951864
0.000163391
-0.000689393
-0.00160822
-0.00259629
-0.00365412
-0.00478371
-0.00598549
-0.00725948
-0.00860687
-0.0100283
-0.0115306
-0.01312
-0.0148019
-0.0165812
-0.0184598
-0.0204389
-0.0225222
-0.024712
-0.0270072
-0.0294022
-0.0318864
-0.0344416
-0.0370364
-0.0396306
-0.042176
-0.0446244
-0.046908
-0.0490422
-0.0510251
-0.0526896
-0.053993
-0.0555823
-0.056429
0.00711868
0.00708892
0.00705114
0.0070021
0.00694256
0.00687548
0.00680184
0.00671758
0.00662368
0.00652412
0.00642321
0.00631675
0.00619497
0.00604422
0.00585461
0.00562
0.00534035
0.00501788
0.00465692
0.00425868
0.00382408
0.00335079
0.00283553
0.00227348
0.00166071
0.000991991
0.000263755
-0.000527562
-0.00138523
-0.00231188
-0.00331056
-0.00438343
-0.00553221
-0.00675716
-0.00805993
-0.00944084
-0.010901
-0.0124474
-0.0140862
-0.0158225
-0.0176609
-0.0196029
-0.021649
-0.0238022
-0.0260641
-0.0284328
-0.0309029
-0.0334636
-0.036098
-0.0387752
-0.0414572
-0.0440974
-0.0466486
-0.0490445
-0.0512976
-0.053403
-0.0551774
-0.0565677
-0.0581913
-0.0590351
0.00651447
0.00647283
0.00642508
0.00636789
0.00630089
0.00622669
0.00614609
0.00605551
0.00595596
0.00585158
0.00574663
0.00563656
0.00551163
0.00535744
0.00516471
0.00492654
0.0046437
0.0043178
0.00395388
0.00355273
0.0031157
0.00264024
0.00212311
0.0015594
0.000944947
0.000274286
-0.00045648
-0.00125132
-0.00211404
-0.00304751
-0.00405594
-0.00514104
-0.00630571
-0.0075513
-0.0088783
-0.0102884
-0.0117827
-0.0133684
-0.0150519
-0.0168385
-0.0187326
-0.0207355
-0.0228474
-0.0250708
-0.0274066
-0.0298527
-0.0324032
-0.0350476
-0.0377692
-0.0405374
-0.0433155
-0.0460582
-0.0487197
-0.0512321
-0.053605
-0.0558301
-0.0577089
-0.0591795
-0.0608337
-0.0616794
0.00592724
0.00587227
0.00581298
0.00574627
0.00567039
0.0055877
0.00549918
0.00540156
0.00529581
0.00518629
0.00507668
0.00496251
0.00483302
0.00467443
0.00447631
0.00423286
0.00394401
0.00361253
0.00324283
0.00283645
0.00239432
0.0019142
0.00139257
0.00082455
0.000205795
-0.000469337
-0.00120495
-0.00200537
-0.00287457
-0.00381622
-0.00483426
-0.00593203
-0.00711223
-0.00837601
-0.00972579
-0.0111624
-0.012688
-0.0143101
-0.0160354
-0.0178694
-0.0198169
-0.0218791
-0.024056
-0.0263499
-0.0287613
-0.0312876
-0.0339228
-0.0366561
-0.0394711
-0.0423368
-0.0452179
-0.0480692
-0.0508443
-0.0534755
-0.055969
-0.058312
-0.0602911
-0.061838
-0.0635226
-0.0643752
0.00530511
0.00524111
0.00517416
0.00510079
0.00501897
0.00493028
0.004836
0.00473275
0.00462213
0.00450814
0.00439495
0.00427721
0.0041446
0.00398202
0.00378002
0.00353168
0.00323795
0.0029008
0.00252545
0.00211291
0.00166459
0.00117803
0.000649853
7.51298e-05
-0.000550522
-0.00123283
-0.00197602
-0.00278459
-0.00366286
-0.00461451
-0.00564455
-0.00675569
-0.00795178
-0.00923509
-0.0106069
-0.0120694
-0.0136251
-0.0152818
-0.0170468
-0.018926
-0.0209246
-0.0230439
-0.0252841
-0.0276475
-0.0301342
-0.0327414
-0.0354626
-0.0382873
-0.0411984
-0.0441653
-0.047152
-0.0501154
-0.0530074
-0.0557588
-0.0583722
-0.0608304
-0.0629064
-0.0645263
-0.0662409
-0.0671061
0.00472449
0.00464929
0.00457212
0.00448987
0.00439942
0.00430222
0.00419972
0.00408885
0.00397124
0.00385113
0.0037322
0.00360921
0.00347083
0.00330256
0.00309377
0.00283859
0.00253712
0.00219239
0.00180899
0.00138855
0.000932028
0.000437199
-9.95793e-05
-0.000683194
-0.00131814
-0.00201021
-0.00276368
-0.00358322
-0.00447315
-0.00543775
-0.00648156
-0.00760882
-0.00882302
-0.0101261
-0.0115213
-0.0130101
-0.0145958
-0.0162869
-0.0180909
-0.0200146
-0.0220635
-0.0242391
-0.0265421
-0.0289746
-0.0315368
-0.0342254
-0.0370341
-0.0399519
-0.0429616
-0.0460322
-0.0491278
-0.0522058
-0.0552151
-0.0580873
-0.0608205
-0.0633929
-0.0655639
-0.067256
-0.0690025
-0.0698854
0.00410739
0.00402358
0.00393906
0.00385068
0.00375465
0.0036522
0.0035445
0.00342881
0.00330677
0.00318276
0.00306037
0.00293389
0.00279203
0.00261931
0.0024058
0.00214474
0.00183705
0.0014851
0.00109415
0.000665343
0.000200017
-0.000304295
-0.00085116
-0.00144551
-0.00209185
-0.00279602
-0.00356231
-0.00439543
-0.00529992
-0.0062799
-0.0073408
-0.00848607
-0.00972024
-0.0110462
-0.012466
-0.0139824
-0.015599
-0.0173247
-0.0191678
-0.0211355
-0.0232338
-0.0254648
-0.0278295
-0.0303301
-0.0329668
-0.0357363
-0.038632
-0.0416432
-0.0447516
-0.0479269
-0.0511311
-0.0543248
-0.057453
-0.0604466
-0.0632992
-0.065984
-0.0682481
-0.0700113
-0.0717905
-0.0726979
0.00351655
0.00342298
0.00332988
0.00323447
0.00313187
0.00302323
0.00290976
0.00278895
0.00266232
0.00253444
0.00240826
0.00227811
0.00213155
0.00195373
0.00173347
0.00146512
0.00114879
0.000787977
0.000387333
-5.13671e-05
-0.000527228
-0.00104251
-0.00160109
-0.00220786
-0.00286746
-0.00358578
-0.00436711
-0.00521628
-0.0061377
-0.00713598
-0.00821594
-0.0093824
-0.0106394
-0.0119894
-0.0134362
-0.0149818
-0.0166306
-0.0183923
-0.0202753
-0.0222877
-0.024436
-0.0267227
-0.0291492
-0.0317178
-0.0344291
-0.0372796
-0.0402629
-0.0433677
-0.0465759
-0.0498564
-0.0531716
-0.0564813
-0.0597281
-0.0628433
-0.0658153
-0.0686125
-0.0709695
-0.0728047
-0.0746195
-0.0755555
0.00289895
0.00280061
0.00270351
0.00260448
0.00249877
0.0023868
0.00227006
0.00214575
0.00201605
0.00188507
0.00175632
0.00162307
0.00147338
0.0012909
0.00106556
0.000790479
0.000466914
9.74782e-05
-0.0003123
-0.000761249
-0.00124804
-0.00177523
-0.00234662
-0.00296721
-0.00364165
-0.00437589
-0.00517424
-0.00604151
-0.00698228
-0.0080009
-0.00910299
-0.0102924
-0.0115741
-0.0129515
-0.0144268
-0.0160035
-0.0176864
-0.0194852
-0.0214093
-0.023467
-0.0256655
-0.0280079
-0.0304958
-0.033132
-0.0359173
-0.0388482
-0.0419181
-0.0451163
-0.0484233
-0.0518095
-0.0552342
-0.0586612
-0.0620275
-0.0652647
-0.068356
-0.0712647
-0.0737139
-0.075621
-0.0774731
-0.0784431
0.00233639
0.00223109
0.00212744
0.00202267
0.00191121
0.00179341
0.00167088
0.00154103
0.001406
0.00127012
0.00113635
0.00099806
0.000842224
0.00065312
0.000419476
0.000135511
-0.000198335
-0.000578324
-0.000999556
-0.00146027
-0.00195962
-0.00249998
-0.00308552
-0.00372124
-0.00441195
-0.00516367
-0.00598072
-0.006868
-0.00782995
-0.00887129
-0.00999698
-0.0112122
-0.0125211
-0.0139267
-0.0154331
-0.0170427
-0.0187612
-0.0205991
-0.0225659
-0.0246705
-0.0269206
-0.0293196
-0.0318697
-0.0345741
-0.0374337
-0.0404452
-0.0436024
-0.0468941
-0.0503009
-0.0537929
-0.0573294
-0.0608739
-0.0643592
-0.0677185
-0.0709295
-0.0739501
-0.0764921
-0.0784731
-0.0803662
-0.0813711
0.00174445
0.0016349
0.00152779
0.00142031
0.00130644
0.00118639
0.00106138
0.000929039
0.000791461
0.000653019
0.000516617
0.000375051
0.00021536
2.07813e-05
-0.000219157
-0.000511131
-0.000853757
-0.00124397
-0.0016761
-0.0021489
-0.00266116
-0.00321554
-0.00381619
-0.00446822
-0.00517649
-0.00594711
-0.00678442
-0.00769331
-0.00867832
-0.0097439
-0.0108957
-0.0121378
-0.0134754
-0.0149124
-0.0164509
-0.0180954
-0.0198514
-0.0217299
-0.0237407
-0.0258933
-0.0281957
-0.0306519
-0.0332644
-0.0360369
-0.0389706
-0.0420626
-0.0453064
-0.0486913
-0.0521972
-0.0557957
-0.059443
-0.0631058
-0.0667114
-0.0701934
-0.0735243
-0.0766565
-0.079291
-0.081346
-0.0832824
-0.0843258
0.00118872
0.00107356
0.000961622
0.000850445
0.000733142
0.000609839
0.000481715
0.000346529
0.000206141
6.50996e-05
-7.44451e-05
-0.000219638
-0.000384674
-0.000585621
-0.000834202
-0.00113584
-0.00148995
-0.00189219
-0.0023375
-0.00282393
-0.00335076
-0.00392044
-0.0045375
-0.00520706
-0.00593416
-0.00672501
-0.00758398
-0.00851601
-0.00952552
-0.0106173
-0.0117962
-0.0130675
-0.014436
-0.0159043
-0.0174775
-0.0191582
-0.0209535
-0.0228744
-0.0249311
-0.0271335
-0.0294898
-0.0320045
-0.0346806
-0.0375222
-0.0405308
-0.0437038
-0.0470351
-0.0505138
-0.0541198
-0.0578256
-0.0615861
-0.0653671
-0.0690929
-0.0726978
-0.076149
-0.0793932
-0.0821213
-0.0842526
-0.0862358
-0.0873171
0.00061072
0.000495119
0.000383114
0.000271815
0.000154649
3.09969e-05
-9.7718e-05
-0.000234205
-0.000375912
-0.000518913
-0.000660414
-0.000808775
-0.000977596
-0.00118453
-0.00144005
-0.00175081
-0.00211496
-0.002529
-0.00298688
-0.00348727
-0.00402899
-0.00461478
-0.00524915
-0.00593735
-0.00668449
-0.00749684
-0.00837881
-0.00933533
-0.0103709
-0.0114899
-0.012698
-0.0139994
-0.0153995
-0.0169024
-0.0185109
-0.0202297
-0.0220658
-0.0240305
-0.0261343
-0.0283872
-0.0307983
-0.0333721
-0.0361123
-0.0390233
-0.0421069
-0.045361
-0.0487796
-0.0523522
-0.0560583
-0.0598719
-0.0637453
-0.0676458
-0.0714931
-0.0752214
-0.0787929
-0.0821489
-0.0849703
-0.0871778
-0.0892096
-0.090333
9.81772e-05
-2.06128e-05
-0.00013581
-0.000249934
-0.000370199
-0.000497279
-0.000629686
-0.000769982
-0.000915784
-0.00106291
-0.00120927
-0.00136305
-0.00153908
-0.00175424
-0.00202028
-0.00234256
-0.00272006
-0.00314799
-0.00362093
-0.0041369
-0.00469517
-0.00529836
-0.00595132
-0.00665936
-0.00742773
-0.00826282
-0.00916907
-0.0101514
-0.0112141
-0.012362
-0.0136
-0.0149335
-0.0163675
-0.0179047
-0.0195508
-0.021309
-0.0231872
-0.0251971
-0.0273493
-0.0296545
-0.0321218
-0.0347563
-0.0375618
-0.0405433
-0.043703
-0.0470391
-0.0505461
-0.0542135
-0.0580212
-0.0619438
-0.0659326
-0.0699527
-0.0739217
-0.0777732
-0.081465
-0.0849328
-0.0878485
-0.0901346
-0.0922175
-0.0933819
-0.000438845
-0.00055832
-0.000673831
-0.000787934
-0.000908215
-0.0010354
-0.00116853
-0.00130993
-0.0014574
-0.00160668
-0.00175584
-0.0019136
-0.0020948
-0.0023173
-0.00259203
-0.00292513
-0.00331458
-0.0037562
-0.00424373
-0.00477569
-0.00535098
-0.00597247
-0.00664503
-0.00737404
-0.00816483
-0.00902387
-0.00995557
-0.0109648
-0.0120561
-0.0132339
-0.0145039
-0.0158704
-0.0173388
-0.0189137
-0.0205977
-0.0223965
-0.0243176
-0.0263734
-0.0285748
-0.0309328
-0.033457
-0.0361527
-0.0390242
-0.0420766
-0.0453127
-0.0487311
-0.0523268
-0.0560893
-0.0599988
-0.0640312
-0.0681356
-0.0722769
-0.0763686
-0.0803437
-0.0841555
-0.0877349
-0.0907442
-0.0931082
-0.0952434
-0.0964528
-0.000934894
-0.00105544
-0.00117182
-0.00128628
-0.00140749
-0.00153608
-0.00167144
-0.00181549
-0.00196637
-0.00211924
-0.00227302
-0.00243611
-0.00262474
-0.00285601
-0.00314209
-0.0034879
-0.00389216
-0.00434945
-0.00485396
-0.00540363
-0.00599768
-0.00663885
-0.00733228
-0.00808343
-0.00889773
-0.00978178
-0.01074
-0.0117774
-0.0128983
-0.0141075
-0.0154102
-0.0168115
-0.0183167
-0.0199281
-0.021652
-0.0234921
-0.025457
-0.0275597
-0.0298114
-0.0322236
-0.034806
-0.0375643
-0.040503
-0.0436277
-0.0469415
-0.0504434
-0.0541289
-0.0579877
-0.0620005
-0.0661442
-0.0703664
-0.074629
-0.0788437
-0.0829418
-0.0868731
-0.0905636
-0.0936671
-0.0961112
-0.0983001
-0.099553
-0.00149638
-0.00161091
-0.00172098
-0.00182904
-0.00194396
-0.00206754
-0.00219897
-0.00234102
-0.00249077
-0.00264429
-0.00279932
-0.00296593
-0.003159
-0.00339762
-0.00369235
-0.00404968
-0.00446673
-0.0049391
-0.00545973
-0.00602722
-0.00664017
-0.00730163
-0.00801659
-0.00879067
-0.00962927
-0.0105392
-0.0115247
-0.0125911
-0.0137428
-0.0149842
-0.0163211
-0.0177578
-0.0192994
-0.0209506
-0.0227141
-0.0245962
-0.0266057
-0.028756
-0.0310585
-0.0335253
-0.0361665
-0.0389878
-0.0419942
-0.0451916
-0.0485835
-0.0521693
-0.0559451
-0.0599008
-0.0640173
-0.068273
-0.0726131
-0.0769986
-0.081337
-0.0855582
-0.0896086
-0.0934095
-0.0966061
-0.0991291
-0.101372
-0.102672
-0.0019268
-0.00204657
-0.0021615
-0.00227398
-0.00239341
-0.00252138
-0.00265786
-0.00280521
-0.00296159
-0.00312218
-0.00328608
-0.00346205
-0.00366684
-0.00391798
-0.00422749
-0.00460025
-0.0050344
-0.00552429
-0.0060635
-0.00665013
-0.00728314
-0.0079655
-0.0087025
-0.00949986
-0.0103631
-0.0112991
-0.0123125
-0.0134083
-0.0145911
-0.0158655
-0.0172367
-0.0187097
-0.0202898
-0.021979
-0.0237841
-0.0257093
-0.0277642
-0.0299629
-0.0323174
-0.0348399
-0.0375412
-0.040427
-0.0435024
-0.0467738
-0.050245
-0.0539161
-0.0577832
-0.0618371
-0.0660588
-0.0704277
-0.0748875
-0.079396
-0.0838583
-0.0882019
-0.0923703
-0.0962807
-0.0995704
-0.102174
-0.104472
-0.105816
-0.00257717
-0.00269117
-0.00279842
-0.0029018
-0.00301069
-0.00312819
-0.00325393
-0.00339185
-0.00353924
-0.0036931
-0.00385144
-0.00402534
-0.00422987
-0.0044845
-0.00479939
-0.00518084
-0.00562538
-0.00612824
-0.00668189
-0.00728494
-0.00793584
-0.00863772
-0.00939575
-0.0102157
-0.011103
-0.0120649
-0.0131057
-0.0142308
-0.0154447
-0.016752
-0.0181583
-0.0196679
-0.0212856
-0.0230164
-0.0248627
-0.0268317
-0.0289328
-0.0311806
-0.0335876
-0.0361663
-0.038928
-0.0418786
-0.0450234
-0.0483693
-0.0519204
-0.055677
-0.0596362
-0.0637886
-0.068116
-0.0725986
-0.0771783
-0.0818108
-0.0863977
-0.0908636
-0.0951495
-0.0991684
-0.10255
-0.105232
-0.107584
-0.108975
-0.00305038
-0.00317233
-0.00328781
-0.00339936
-0.00351635
-0.00364112
-0.00377382
-0.00391764
-0.00407098
-0.00423003
-0.00439453
-0.00457461
-0.00478751
-0.00505139
-0.00537778
-0.00577141
-0.00622972
-0.00674679
-0.00731576
-0.00793485
-0.00860299
-0.00932324
-0.0101011
-0.0109424
-0.0118528
-0.0128395
-0.013907
-0.0150607
-0.0163053
-0.0176455
-0.0190864
-0.0206331
-0.0222906
-0.0240606
-0.0259501
-0.0279637
-0.0301118
-0.0324099
-0.0348705
-0.0375066
-0.0403299
-0.0433466
-0.0465622
-0.0499837
-0.0536158
-0.0574593
-0.0615116
-0.0657638
-0.0701981
-0.0747955
-0.0794961
-0.0842528
-0.0889641
-0.0935516
-0.0979537
-0.10208
-0.105552
-0.108315
-0.11072
-0.112156
-0.00376382
-0.00388222
-0.0039924
-0.0040975
-0.00420661
-0.00432348
-0.00444757
-0.00458343
-0.00472825
-0.00487984
-0.00503689
-0.00521198
-0.00542103
-0.00568434
-0.0060119
-0.00640982
-0.00687411
-0.00739961
-0.0079786
-0.00860976
-0.00929169
-0.0100276
-0.0108231
-0.0116838
-0.0126155
-0.0136256
-0.0147186
-0.0159001
-0.0171747
-0.0185471
-0.0200231
-0.0216064
-0.0233021
-0.0251145
-0.0270465
-0.0291054
-0.0313015
-0.0336504
-0.0361652
-0.0388592
-0.0417444
-0.0448275
-0.0481141
-0.0516116
-0.0553253
-0.0592561
-0.063402
-0.0677544
-0.0722959
-0.0770083
-0.0818298
-0.0867114
-0.0915476
-0.0962568
-0.100775
-0.105007
-0.108569
-0.111409
-0.113867
-0.115347
-0.00430796
-0.00443893
-0.00456215
-0.00468029
-0.00480182
-0.00492951
-0.00506294
-0.00520598
-0.00535665
-0.00551214
-0.00567273
-0.0058504
-0.00606338
-0.0063311
-0.00666505
-0.00707003
-0.00754297
-0.00807761
-0.00866691
-0.0093092
-0.0100036
-0.0107534
-0.0115645
-0.0124427
-0.013394
-0.0144259
-0.015543
-0.0167509
-0.0180545
-0.0194586
-0.0209683
-0.0225883
-0.0243237
-0.0261759
-0.0281522
-0.0302571
-0.0325018
-0.0349027
-0.0374728
-0.0402258
-0.0431742
-0.0463249
-0.0496837
-0.0532585
-0.0570548
-0.061074
-0.0653146
-0.0697683
-0.0744179
-0.0792459
-0.0841893
-0.0891958
-0.0941567
-0.0989867
-0.103619
-0.107955
-0.111606
-0.114526
-0.117034
-0.118558
-0.00505644
-0.00519166
-0.00531749
-0.00543749
-0.00555928
-0.00568646
-0.00581769
-0.00595768
-0.00610336
-0.00625305
-0.0064064
-0.00657757
-0.00678422
-0.00704776
-0.0073789
-0.00778361
-0.00825793
-0.00879612
-0.00939058
-0.01004
-0.0107434
-0.0115041
-0.0123282
-0.0132217
-0.0141905
-0.0152423
-0.0163818
-0.0176147
-0.018946
-0.0203804
-0.0219236
-0.0235794
-0.0253527
-0.0272478
-0.0292672
-0.0314187
-0.0337127
-0.036166
-0.0387918
-0.0416042
-0.044616
-0.0478345
-0.0512658
-0.0549182
-0.0587975
-0.0629056
-0.0672413
-0.0717966
-0.0765547
-0.0814985
-0.0865634
-0.0916953
-0.0967814
-0.101732
-0.106479
-0.110918
-0.114655
-0.117652
-0.120211
-0.121779
-0.00571776
-0.00586151
-0.00599686
-0.00612726
-0.00625936
-0.00639648
-0.00653647
-0.00668347
-0.00683406
-0.0069862
-0.00714042
-0.00731078
-0.00751712
-0.00778054
-0.00811334
-0.00852046
-0.00899884
-0.00954169
-0.010142
-0.0107981
-0.0115096
-0.0122798
-0.0131153
-0.0140221
-0.0150065
-0.0160763
-0.0172364
-0.0184928
-0.0198503
-0.021314
-0.0228891
-0.0245803
-0.0263928
-0.0283274
-0.0303915
-0.0325896
-0.0349335
-0.03744
-0.0401226
-0.0429956
-0.0460721
-0.0493597
-0.0528646
-0.0565958
-0.0605593
-0.0647572
-0.0691891
-0.0738469
-0.0787141
-0.083774
-0.0889611
-0.0942184
-0.0994294
-0.104501
-0.10936
-0.113901
-0.117723
-0.120797
-0.123405
-0.125015
-0.00642114
-0.0065729
-0.00671729
-0.00685714
-0.00699964
-0.00714721
-0.0072974
-0.00745344
-0.00761109
-0.00776792
-0.00792393
-0.00809454
-0.00829926
-0.00856118
-0.00889223
-0.00929893
-0.00977759
-0.0103223
-0.0109255
-0.011586
-0.0123033
-0.013081
-0.013926
-0.0148443
-0.0158425
-0.0169286