/*--------------------------------*- C++ -*----------------------------------*\
  =========                 |
  \\      /  F ield         | OpenFOAM: The Open Source CFD Toolbox
   \\    /   O peration     | Website:  https://openfoam.org
    \\  /    A nd           | Version:  6.0
     \\/     M anipulation  |
\*---------------------------------------------------------------------------*/
FoamFile
{
    version     2.0;
    format      ascii;
    class       volScalarField;
    location    "4";
    object      p;
}
// * * * * * * * * * * * * * * * * * * * * * * * * * * * * * * * * * * * * * //

dimensions      [0 2 -2 0 0 0 0];

internalField   nonuniform List<scalar> 
15500
(
0.0245138
0.0244907
0.0244914
0.0245111
0.0245589
0.0246305
0.0247379
0.0248772
0.0250641
0.0252972
0.0255961
0.0259635
0.0264244
0.0269935
0.0277088
0.0286052
0.0297338
0.0311439
0.0328907
0.0350184
0.0375058
0.0401814
0.0426313
0.0441544
0.043831
0.040877
0.0351572
0.0273432
0.019056
0.0143285
0.0244275
0.0243864
0.0243694
0.0243747
0.0244111
0.0244751
0.0245779
0.024716
0.0249034
0.025139
0.0254403
0.0258125
0.0262756
0.0268472
0.0275603
0.0284599
0.0296038
0.0310575
0.0328977
0.0351941
0.0379669
0.0411058
0.0442789
0.0468484
0.0478863
0.0464316
0.0419793
0.0347075
0.0259675
0.0197251
0.0241709
0.0241498
0.0241461
0.0241602
0.0242004
0.0242644
0.0243642
0.0244974
0.0246786
0.0249074
0.0252013
0.0255648
0.0260154
0.0265686
0.0272527
0.0281098
0.0291947
0.0305751
0.0323283
0.0345262
0.0371966
0.0402606
0.0434406
0.0461736
0.0475888
0.0467003
0.0428513
0.0359718
0.0271629
0.0198602
0.0238665
0.0238693
0.0238825
0.0239079
0.0239535
0.024018
0.0241131
0.0242374
0.0244051
0.024617
0.0248901
0.0252285
0.0256487
0.0261644
0.0267996
0.0275899
0.0285835
0.0298422
0.0314348
0.0334262
0.0358426
0.0386201
0.0415253
0.0440695
0.045465
0.0447684
0.0412626
0.0347401
0.0260379
0.0184259
0.0234556
0.0234829
0.0235169
0.0235584
0.0236142
0.0236823
0.023774
0.0238879
0.0240387
0.0242276
0.024472
0.0247758
0.0251545
0.025621
0.0261964
0.0269095
0.0278013
0.0289236
0.0303387
0.0320987
0.0342258
0.0366626
0.0392104
0.0414428
0.0426555
0.041969
0.038665
0.0324634
0.0239591
0.0164125
0.0229412
0.0229809
0.0230233
0.0230703
0.0231282
0.0231955
0.023282
0.0233866
0.0235223
0.0236904
0.0239069
0.0241753
0.0245105
0.0249245
0.0254363
0.0260693
0.0268568
0.0278453
0.0290831
0.0306152
0.0324558
0.0345512
0.0367294
0.0386172
0.0395897
0.0388372
0.0356604
0.0297357
0.0214105
0.0140904
0.022186
0.0222449
0.0223058
0.0223691
0.0224398
0.022515
0.0226039
0.0227046
0.0228298
0.0229807
0.0231725
0.0234086
0.0237022
0.0240653
0.0245148
0.0250694
0.0257577
0.0266159
0.0276874
0.0290067
0.0305802
0.0323586
0.0341878
0.0357398
0.0364554
0.035594
0.0324907
0.0267965
0.0186371
0.0115559
0.0213362
0.0213964
0.0214564
0.0215179
0.021586
0.0216585
0.0217432
0.0218382
0.0219536
0.02209
0.0222607
0.022468
0.0227241
0.0230399
0.0234307
0.0239115
0.0245051
0.0252439
0.0261605
0.0272836
0.0286138
0.030103
0.0316127
0.0328532
0.0333234
0.0323466
0.0292869
0.0237791
0.0157251
0.00885729
0.0202588
0.0203298
0.0204009
0.0204723
0.0205478
0.0206242
0.0207085
0.0207984
0.020904
0.0210256
0.0211758
0.0213563
0.0215775
0.0218496
0.0221857
0.0225975
0.023104
0.0237289
0.0245044
0.0254485
0.0265603
0.0277907
0.0290158
0.0299745
0.0302146
0.0291147
0.0260728
0.0207089
0.0127311
0.00600783
0.0191186
0.019182
0.019243
0.019304
0.0193688
0.0194355
0.0195101
0.0195904
0.0196843
0.0197914
0.0199223
0.0200778
0.020267
0.0204984
0.0207835
0.0211305
0.0215532
0.0220759
0.0227185
0.0234992
0.0244118
0.0254082
0.0263767
0.0270814
0.027114
0.0258992
0.0228611
0.0176045
0.00964711
0.00301132
0.0177366
0.0178057
0.0178735
0.0179403
0.0180088
0.018076
0.0181474
0.0182206
0.0183037
0.0183962
0.0185082
0.0186399
0.0187984
0.0189915
0.019228
0.0195131
0.019859
0.0202816
0.0208022
0.0214326
0.0221633
0.0229503
0.0236892
0.0241671
0.0240086
0.0226801
0.0196305
0.0144491
0.00648799
-0.000129449
0.0163027
0.0163599
0.0164136
0.0164662
0.0165211
0.0165761
0.016636
0.0166982
0.016769
0.016847
0.0169405
0.0170489
0.0171783
0.0173342
0.0175237
0.0177495
0.0180198
0.0183505
0.0187543
0.0192428
0.0198048
0.0203982
0.0209273
0.0211997
0.0208696
0.0194383
0.0163689
0.0112366
0.00322786
-0.00342161
0.0146497
0.0147102
0.0147683
0.0148243
0.0148803
0.0149328
0.0149864
0.0150385
0.0150957
0.0151567
0.0152298
0.0153139
0.0154132
0.0155321
0.0156753
0.0158429
0.0160413
0.0162787
0.0165726
0.0169265
0.0173322
0.0177473
0.0180872
0.018173
0.0176852
0.0161533
0.0130555
0.00794899
-0.000124395
-0.00686067
0.0129824
0.013027
0.0130661
0.0131028
0.0131396
0.0131746
0.0132114
0.0132475
0.0132877
0.0133302
0.0133817
0.0134403
0.0135092
0.0135906
0.0136872
0.0137965
0.0139206
0.0140714
0.014255
0.0144797
0.0147349
0.0149814
0.0151437
0.015058
0.0144281
0.0128052
0.00967534
0.00457558
-0.00359579
-0.0104598
0.0110828
0.0111284
0.0111701
0.0112083
0.0112441
0.0112744
0.0113025
0.011326
0.01135
0.0113731
0.0114017
0.0114339
0.0114709
0.0115137
0.0115622
0.0116116
0.011664
0.0117232
0.0118003
0.0118997
0.0120102
0.0120992
0.0120968
0.0118542
0.0110918
0.00938132
0.00621427
0.00110555
-0.00717733
-0.0142094
0.009169
0.00919726
0.00921863
0.00923636
0.00925221
0.00926398
0.00927442
0.0092807
0.00928637
0.00928913
0.00929388
0.00929805
0.009302
0.00930435
0.00930318
0.00929142
0.00926799
0.00923886
0.0092075
0.00918106
0.00914965
0.0090846
0.00892445
0.00853496
0.00765229
0.0058637
0.00265763
-0.00247318
-0.0108939
-0.0181293
0.0070449
0.00707286
0.00709554
0.00711309
0.00712617
0.00713103
0.00713015
0.00712071
0.00710681
0.0070864
0.0070644
0.00703823
0.00700631
0.00696598
0.00691244
0.00683703
0.00673748
0.00661283
0.00647391
0.00632146
0.00615176
0.00593792
0.00563014
0.00510328
0.0041089
0.00224525
-0.00100122
-0.00616579
-0.014736
-0.0222048
0.0049358
0.0049438
0.00494264
0.00493585
0.00492449
0.00490616
0.00488262
0.00485094
0.00481351
0.00476755
0.00471667
0.00465744
0.00458749
0.00450141
0.00439267
0.00424999
0.00406769
0.00385004
0.003597
0.00331722
0.0030069
0.00264503
0.00219207
0.00153489
0.000439142
-0.00149105
-0.00477756
-0.00998574
-0.0187271
-0.0264631
0.0026026
0.00260844
0.00260687
0.00259819
0.00258224
0.00255499
0.00251784
0.00246778
0.00240769
0.00233505
0.00225333
0.00215899
0.00204763
0.00191273
0.00174452
0.00153008
0.00126401
0.000943227
0.000575056
0.000165864
-0.000286078
-0.000792211
-0.00138501
-0.00216403
-0.0033552
-0.00534696
-0.00867329
-0.0139334
-0.0228579
-0.0308809
0.000277816
0.000263318
0.000237694
0.000204433
0.000163942
0.000112987
5.25121e-05
-2.12188e-05
-0.000106894
-0.000208192
-0.000322893
-0.000455406
-0.000610901
-0.000798726
-0.00103044
-0.00132122
-0.0016788
-0.00210319
-0.00259369
-0.0031386
-0.00373561
-0.00438944
-0.00512147
-0.00601784
-0.00729506
-0.00933993
-0.012705
-0.0180242
-0.0271497
-0.0354881
-0.00224119
-0.00225965
-0.0022876
-0.00232509
-0.00237272
-0.00243568
-0.0025133
-0.00260952
-0.0027225
-0.00285588
-0.00300743
-0.00318168
-0.00338592
-0.00363089
-0.00393144
-0.00430381
-0.0047568
-0.00529644
-0.00591276
-0.0065987
-0.0073427
-0.00814458
-0.00901107
-0.0100195
-0.0113761
-0.0134692
-0.01687
-0.0222557
-0.0315938
-0.0402625
-0.00472576
-0.00476712
-0.00482269
-0.00488895
-0.00496604
-0.00505803
-0.00516489
-0.00529105
-0.00543632
-0.00560541
-0.00579733
-0.00601773
-0.00627466
-0.00658212
-0.00695673
-0.00741755
-0.00797598
-0.00863206
-0.00938564
-0.010219
-0.0111177
-0.0120722
-0.0130755
-0.0141922
-0.0156196
-0.0177525
-0.0211871
-0.026645
-0.0362114
-0.0452363
-0.00741842
-0.00746571
-0.0075256
-0.00759818
-0.00768484
-0.00779166
-0.00791905
-0.00807172
-0.00824907
-0.00845583
-0.00869125
-0.00896123
-0.00927613
-0.0096512
-0.0101069
-0.0106634
-0.0113319
-0.0121187
-0.0130147
-0.0140023
-0.0150617
-0.0161697
-0.0173085
-0.0185278
-0.0200207
-0.0221861
-0.0256507
-0.0311872
-0.0409955
-0.0503897
-0.0100862
-0.0101568
-0.0102448
-0.0103467
-0.0104634
-0.0106005
-0.0107588
-0.0109441
-0.0111574
-0.011405
-0.0116874
-0.0120116
-0.0123889
-0.0128379
-0.013381
-0.0140409
-0.0148305
-0.0157525
-0.0168027
-0.0179557
-0.0191841
-0.0204535
-0.0217307
-0.0230501
-0.0245996
-0.0267891
-0.0302816
-0.0359016
-0.0459662
-0.0557551
-0.0129396
-0.0130175
-0.0131113
-0.0132216
-0.0133505
-0.0135058
-0.0136887
-0.0139055
-0.0141568
-0.0144491
-0.014783
-0.0151661
-0.0156119
-0.0161409
-0.0167793
-0.0175505
-0.0184688
-0.0195415
-0.0207539
-0.0220822
-0.023486
-0.0249213
-0.0263352
-0.0277513
-0.0293505
-0.0315566
-0.0350713
-0.040782
-0.0511182
-0.0613131
-0.015746
-0.01585
-0.0159757
-0.0161198
-0.0162839
-0.0164748
-0.0166948
-0.0169507
-0.0172453
-0.0175864
-0.0179762
-0.0184235
-0.0189431
-0.0195592
-0.0203002
-0.0211928
-0.0222527
-0.0234817
-0.024872
-0.0263868
-0.0279785
-0.0295883
-0.0311442
-0.0326541
-0.0342942
-0.036508
-0.0400426
-0.0458487
-0.0564711
-0.067096
-0.0187634
-0.0188756
-0.019008
-0.0191613
-0.0193389
-0.0195499
-0.0197973
-0.0200883
-0.0204256
-0.0208173
-0.0212662
-0.0217817
-0.0223815
-0.0230914
-0.0239445
-0.0249678
-0.0261785
-0.0275814
-0.0291602
-0.0308729
-0.0326628
-0.0344519
-0.036151
-0.0377501
-0.039425
-0.0416366
-0.0451857
-0.051095
-0.0620215
-0.0730858
-0.0217406
-0.0218792
-0.0220436
-0.0222305
-0.0224434
-0.0226905
-0.022976
-0.0233084
-0.0236925
-0.0241383
-0.0246502
-0.0252395
-0.0259249
-0.0267367
-0.0277098
-0.0288759
-0.0302504
-0.0318377
-0.0336204
-0.0355472
-0.0375485
-0.039529
-0.0413766
-0.0430628
-0.0447624
-0.0469632
-0.0505249
-0.0565427
-0.0677873
-0.0793151
-0.0249044
-0.0250524
-0.0252247
-0.0254225
-0.025651
-0.0259208
-0.0262373
-0.0266091
-0.0270416
-0.0275449
-0.0281246
-0.0287926
-0.0295709
-0.0304924
-0.0315967
-0.0329145
-0.0344665
-0.0362561
-0.0382554
-0.0404117
-0.0426362
-0.0448167
-0.0468138
-0.0485842
-0.0503006
-0.0524805
-0.0560485
-0.0621848
-0.0737676
-0.0857669
-0.0279995
-0.0281768
-0.028385
-0.0286207
-0.0288891
-0.0292
-0.0295602
-0.0299796
-0.0304661
-0.0310319
-0.0316846
-0.032438
-0.0333164
-0.0343565
-0.0356007
-0.0370847
-0.0388271
-0.0408279
-0.0430674
-0.0454705
-0.0479371
-0.0503307
-0.0524846
-0.054336
-0.056059
-0.0582095
-0.0617827
-0.0680439
-0.0799793
-0.0924727
-0.0312994
-0.0314864
-0.0317026
-0.0319493
-0.0322341
-0.0325693
-0.0329633
-0.033426
-0.0339665
-0.0345972
-0.0353275
-0.0361721
-0.0371581
-0.0383255
-0.0397211
-0.0413786
-0.0433247
-0.045563
-0.0480559
-0.0507261
-0.0534517
-0.056068
-0.0583822
-0.0603102
-0.0620323
-0.0641411
-0.067715
-0.0741133
-0.0864242
-0.0994171
-0.0345279
-0.0347438
-0.0349958
-0.0352802
-0.0356052
-0.0359822
-0.0364217
-0.0369351
-0.0375347
-0.0382353
-0.0390486
-0.0399906
-0.041092
-0.0423956
-0.0439497
-0.0458004
-0.0479677
-0.0504548
-0.0532286
-0.0561878
-0.0591906
-0.0620454
-0.0645262
-0.066528
-0.068238
-0.0702976
-0.0738727
-0.0804163
-0.0931169
-0.106631
-0.0379573
-0.0381797
-0.0384368
-0.0387299
-0.0390707
-0.0394725
-0.0399482
-0.040509
-0.0411685
-0.041942
-0.0428423
-0.0438882
-0.0451125
-0.0465619
-0.0482946
-0.0503471
-0.0527556
-0.055521
-0.0585905
-0.0618587
-0.065155
-0.0682597
-0.0709099
-0.0729822
-0.0746704
-0.0766692
-0.080242
-0.0869473
-0.100062
-0.114099
-0.041302
-0.041552
-0.0418431
-0.0421722
-0.0425528
-0.0429964
-0.0435194
-0.0441333
-0.0448566
-0.0457064
-0.0466994
-0.0478558
-0.0492126
-0.0508224
-0.0527421
-0.0550246
-0.0576952
-0.0607518
-0.0641462
-0.0677443
-0.0713555
-0.0747252
-0.0775524
-0.0796907
-0.0813465
-0.0832783
-0.0868521
-0.0937297
-0.107274
-0.121851
-0.0448762
-0.0451363
-0.0454309
-0.045764
-0.0461518
-0.0466118
-0.0471624
-0.047818
-0.0485984
-0.0495229
-0.0506095
-0.0518818
-0.0533797
-0.0551614
-0.0572934
-0.059818
-0.0627738
-0.0661546
-0.0698931
-0.0738449
-0.0777911
-0.0814379
-0.0844466
-0.0866461
-0.0882606
-0.0901133
-0.0936888
-0.100759
-0.114759
-0.129875
-0.0481729
-0.0484666
-0.0488064
-0.0491892
-0.0496318
-0.0501482
-0.0507598
-0.0514807
-0.0523366
-0.0533493
-0.0545426
-0.0559428
-0.0575964
-0.0595671
-0.061923
-0.0647208
-0.0679866
-0.0717134
-0.0758287
-0.0801632
-0.0844679
-0.0884108
-0.0916078
-0.0938648
-0.0954272
-0.0971978
-0.100782
-0.108059
-0.122528
-0.138196
-0.0516626
-0.0519676
-0.0523127
-0.0527033
-0.0531602
-0.0537023
-0.0543536
-0.05513
-0.056059
-0.0571647
-0.0584726
-0.0600134
-0.0618374
-0.0640149
-0.0666234
-0.0697111
-0.0733183
-0.077427
-0.081948
-0.0866955
-0.0913832
-0.0956381
-0.0990282
-0.10134
-0.10284
-0.104519
-0.108118
-0.115627
-0.130593
-0.146805
-0.0548877
-0.0552308
-0.0556189
-0.056056
-0.05656
-0.0571547
-0.0578643
-0.0587106
-0.0597242
-0.0609345
-0.0623708
-0.0640672
-0.0660801
-0.0684864
-0.0713656
-0.0747803
-0.0787577
-0.083279
-0.0882453
-0.0934392
-0.0985406
-0.103128
-0.106721
-0.109082
-0.110512
-0.112102
-0.115727
-0.123488
-0.138963
-0.155726
-0.0579253
-0.0582999
-0.0587271
-0.0592107
-0.0597719
-0.0604338
-0.0612231
-0.0621612
-0.0632819
-0.0646177
-0.0662018
-0.0680742
-0.0702969
-0.0729553
-0.0761385
-0.0799035
-0.0842896
-0.0892641
-0.0947122
-0.10039
-0.105935
-0.110874
-0.114677
-0.117084
-0.118437
-0.11993
-0.123595
-0.131639
-0.147653
-0.164951
-0.060862
-0.0612713
-0.0617384
-0.0622675
-0.0628806
-0.0636044
-0.0644681
-0.0654967
-0.0667279
-0.0681981
-0.0699446
-0.0720108
-0.074466
-0.0774021
-0.0809139
-0.0850709
-0.0898992
-0.0953679
-0.101341
-0.107543
-0.113567
-0.118882
-0.122903
-0.125353
-0.126624
-0.128029
-0.131755
-0.140106
-0.156668
-0.174503
-0.0636741
-0.0641101
-0.064609
-0.0651764
-0.0658392
-0.0666252
-0.0675678
-0.0686927
-0.0700425
-0.0716575
-0.0735788
-0.0758562
-0.0785639
-0.0818038
-0.0856797
-0.0902573
-0.0955745
-0.10158
-0.108123
-0.114893
-0.121429
-0.127143
-0.13139
-0.133884
-0.135066
-0.136385
-0.140192
-0.148888
-0.166026
-0.184376
-0.0663097
-0.0667786
-0.0673151
-0.0679265
-0.0686398
-0.0694888
-0.0705088
-0.0717315
-0.0732038
-0.0749717
-0.0770813
-0.079587
-0.0825707
-0.0861406
-0.0904088
-0.0954529
-0.101296
-0.107887
-0.115049
-0.122431
-0.129518
-0.135657
-0.140142
-0.142675
-0.14377
-0.14502
-0.14894
-0.158011
-0.175732
-0.194588
-0.0687201
-0.0692183
-0.0697903
-0.0704447
-0.0712137
-0.0721321
-0.0732403
-0.0745712
-0.0761779
-0.0781117
-0.080424
-0.0831774
-0.0864593
-0.0903883
-0.0950861
-0.10063
-0.107051
-0.114275
-0.122108
-0.130151
-0.137828
-0.144415
-0.149147
-0.151721
-0.152729
-0.153918
-0.157985
-0.167476
-0.185806
-0.205135
-0.0709016
-0.0714318
-0.0720418
-0.0727414
-0.0735647
-0.074552
-0.0757471
-0.0771887
-0.0789354
-0.0810452
-0.0835759
-0.0865963
-0.090203
-0.0945206
-0.0996827
-0.105776
-0.112817
-0.120733
-0.129286
-0.13804
-0.146349
-0.153412
-0.158401
-0.161016
-0.161946
-0.163106
-0.167363
-0.177309
-0.196249
-0.216032
-0.0728124
-0.0733712
-0.0740156
-0.0747571
-0.0756362
-0.0766951
-0.0779839
-0.0795437
-0.0814408
-0.0837395
-0.0865041
-0.0898132
-0.0937693
-0.0985095
-0.104177
-0.110861
-0.118583
-0.127236
-0.136574
-0.146092
-0.155072
-0.162637
-0.167894
-0.170555
-0.171412
-0.172566
-0.177061
-0.187513
-0.207082
-0.227277
-0.0743961
-0.0749871
-0.0756702
-0.0764595
-0.0773966
-0.0785311
-0.0799163
-0.0816006
-0.0836567
-0.0861571
-0.0891738
-0.0927932
-0.0971286
-0.102324
-0.108539
-0.115868
-0.124316
-0.133779
-0.143953
-0.154288
-0.163985
-0.172078
-0.177614
-0.180325
-0.18113
-0.182325
-0.187115
-0.198114
-0.218307
-0.238881
-0.075618
-0.0762395
-0.0769606
-0.0777965
-0.078796
-0.0800106
-0.081501
-0.0833189
-0.0855458
-0.0882625
-0.0915488
-0.0955029
-0.100245
-0.105936
-0.112742
-0.120765
-0.130008
-0.140328
-0.151409
-0.162619
-0.173075
-0.181724
-0.187552
-0.190321
-0.191092
-0.192365
-0.197513
-0.209117
-0.229944
-0.250842
-0.0764534
-0.0771054
-0.0778644
-0.0787482
-0.0798088
-0.0811049
-0.082702
-0.0846592
-0.0870662
-0.0900133
-0.0935897
-0.0979031
-0.103087
-0.109309
-0.116756
-0.125531
-0.135619
-0.14688
-0.158922
-0.171064
-0.182325
-0.191556
-0.197686
-0.200525
-0.201296
-0.202715
-0.208296
-0.220546
-0.241993
-0.26317
-0.0768514
-0.0775338
-0.0783298
-0.0792596
-0.0803833
-0.0817631
-0.0834733
-0.0855775
-0.0881762
-0.0913695
-0.0952556
-0.0999563
-0.105613
-0.112411
-0.120547
-0.130131
-0.141142
-0.153391
-0.166476
-0.179612
-0.191721
-0.201561
-0.208008
-0.210933
-0.211735
-0.213359
-0.21945
-0.232409
-0.254473
-0.27586
-0.076744
-0.0774573
-0.0782926
-0.0792738
-0.0804636
-0.0819337
-0.0837629
-0.0860243
-0.0888274
-0.0922841
-0.0965036
-0.101619
-0.107787
-0.115203
-0.124085
-0.13454
-0.146531
-0.159863
-0.174044
-0.188232
-0.201237
-0.211713
-0.21849
-0.221521
-0.222409
-0.224325
-0.231018
-0.244729
-0.267381
-0.288921
-0.0760938
-0.0768398
-0.0777158
-0.0787484
-0.0800085
-0.0815726
-0.0835289
-0.0859564
-0.0889771
-0.092715
-0.0972899
-0.102852
-0.109567
-0.11765
-0.12733
-0.138723
-0.151777
-0.166242
-0.181611
-0.196915
-0.210859
-0.221996
-0.229122
-0.232285
-0.23331
-0.235601
-0.24299
-0.257513
-0.280737
-0.302346
-0.0748676
-0.0756423
-0.0765567
-0.077641
-0.0789708
-0.0806322
-0.0827199
-0.0853227
-0.0885741
-0.0926115
-0.0975679
-0.103607
-0.110912
-0.119709
-0.130252
-0.142649
-0.15683
-0.172534
-0.189142
-0.205624
-0.220553
-0.232379
-0.239868
-0.243199
-0.244438
-0.247217
-0.255409
-0.270786
-0.294534
-0.316139
-0.073012
-0.0738169
-0.0747693
-0.075903
-0.0773041
-0.0790639
-0.0812888
-0.0840751
-0.0875706
-0.0919271
-0.0972895
-0.103842
-0.111776
-0.121342
-0.132805
-0.146283
-0.161681
-0.178672
-0.196622
-0.214347
-0.230303
-0.242843
-0.250721
-0.254261
-0.255788
-0.259162
-0.268266
-0.284552
-0.308789
-0.330294
-0.0704513
-0.0712835
-0.0722738
-0.0734609
-0.074936
-0.0768019
-0.0791722
-0.0821547
-0.0859108
-0.0906078
-0.0964058
-0.103505
-0.112117
-0.122503
-0.134958
-0.149586
-0.166273
-0.184671
-0.204009
-0.223039
-0.240069
-0.253348
-0.261637
-0.265441
-0.267361
-0.271472
-0.281605
-0.298837
-0.323493
-0.344809
-0.0671413
-0.0680032
-0.0690333
-0.0702728
-0.0718253
-0.0737997
-0.0763231
-0.0795122
-0.0835448
-0.0886051
-0.094867
-0.102552
-0.111884
-0.12315
-0.136656
-0.152518
-0.170592
-0.190447
-0.211289
-0.231688
-0.249831
-0.263877
-0.272612
-0.276739
-0.279157
-0.284137
-0.295418
-0.313643
-0.338661
-0.359676
-0.063009
-0.0638962
-0.0649637
-0.066258
-0.0678907
-0.0699824
-0.0726699
-0.0760819
-0.0804122
-0.0858619
-0.092621
-0.100931
-0.111033
-0.123233
-0.137865
-0.155041
-0.174579
-0.196024
-0.218412
-0.240243
-0.259543
-0.274383
-0.283597
-0.288128
-0.291181
-0.297195
-0.309752
-0.328993
-0.354279
-0.374889
-0.057954
-0.0588724
-0.0599842
-0.0613387
-0.0630629
-0.0652832
-0.0681523
-0.0718067
-0.0764592
-0.0823277
-0.089619
-0.0985972
-0.109518
-0.122717
-0.138548
-0.157123
-0.178233
-0.201311
-0.225367
-0.248691
-0.269184
-0.284849
-0.29459
-0.29961
-0.303432
-0.310639
-0.324595
-0.344886
-0.370358
-0.390439
-0.0518321
-0.0527941
-0.0539708
-0.0554165
-0.0572593
-0.0596403
-0.0627173
-0.0666419
-0.0716436
-0.0779603
-0.0858203
-0.0955075
-0.107307
-0.121565
-0.138676
-0.158743
-0.181496
-0.206343
-0.232099
-0.256973
-0.278704
-0.295221
-0.30554
-0.311162
-0.315926
-0.324513
-0.339995
-0.361345
-0.386883
-0.406313
-0.0448167
-0.0458374
-0.04709
-0.0486246
-0.0505829
-0.0531153
-0.0563954
-0.0605902
-0.0659464
-0.0727301
-0.0811836
-0.0916266
-0.10435
-0.119748
-0.138219
-0.159863
-0.18437
-0.211021
-0.238598
-0.265079
-0.288078
-0.305485
-0.31645
-0.322789
-0.328664
-0.33881
-0.355939
-0.378361
-0.403857
-0.4225
-0.0371324
-0.0381537
-0.0394229
-0.0409974
-0.0430316
-0.0456878
-0.0491534
-0.0536087
-0.0593243
-0.0665865
-0.0756645
-0.0868981
-0.100618
-0.117213
-0.137134
-0.160453
-0.186788
-0.215382
-0.244802
-0.272942
-0.297253
-0.315586
-0.327269
-0.334476
-0.341668
-0.353576
-0.372474
-0.395957
-0.421265
-0.438983
-0.0285214
-0.0295602
-0.030847
-0.0324511
-0.0345444
-0.0373061
-0.040942
-0.045652
-0.0517269
-0.0594842
-0.0692098
-0.0812834
-0.096039
-0.113924
-0.135377
-0.160461
-0.188741
-0.219312
-0.250701
-0.280552
-0.306203
-0.325511
-0.338007
-0.346232
-0.354943
-0.368806
-0.389582
-0.414115
-0.439104
-0.455748
-0.0189174
-0.0199317
-0.0212103
-0.0228304
-0.0249772
-0.0278457
-0.0316567
-0.036628
-0.0430786
-0.0513507
-0.0617614
-0.0747131
-0.0905849
-0.109814
-0.132895
-0.159852
-0.190157
-0.222851
-0.256223
-0.287835
-0.314876
-0.335206
-0.348618
-0.358053
-0.368521
-0.384549
-0.407307
-0.432856
-0.457355
-0.472773
-0.00799476
-0.00903016
-0.0103352
-0.0119966
-0.0142148
-0.0172037
-0.0212028
-0.0264533
-0.0332985
-0.0421176
-0.0532483
-0.0671386
-0.0841712
-0.104848
-0.129644
-0.158568
-0.191018
-0.225871
-0.261358
-0.294782
-0.323241
-0.344663
-0.35912
-0.369953
-0.382407
-0.400796
-0.425625
-0.452156
-0.47601
-0.490042
0.00403243
0.0030311
0.00174022
6.50263e-05
-0.00220872
-0.00531312
-0.00950448
-0.0150442
-0.0223079
-0.0317033
-0.0436027
-0.0584803
-0.0767672
-0.0989507
-0.125568
-0.156573
-0.191258
-0.228418
-0.266028
-0.301314
-0.331254
-0.353835
-0.369477
-0.38194
-0.396644
-0.4176
-0.444579
-0.472027
-0.495049
-0.507527
0.0174922
0.0164892
0.0151899
0.013488
0.0111503
0.00792328
0.00352934
-0.00231888
-0.0100246
-0.0200361
-0.032749
-0.0486861
-0.0682813
-0.0920909
-0.120622
-0.153812
-0.190854
-0.230356
-0.270225
-0.307424
-0.338881
-0.362721
-0.379715
-0.394033
-0.411236
-0.434947
-0.464133
-0.492436
-0.514457
-0.52521
0.0322299
0.0312827
0.0300177
0.0283164
0.0259292
0.0225818
0.0179776
0.0118064
0.00362898
-0.00703521
-0.0206192
-0.0376749
-0.0586859
-0.0841878
-0.114754
-0.15025
-0.189743
-0.231737
-0.273865
-0.313033
-0.346091
-0.371282
-0.389811
-0.406256
-0.426234
-0.45289
-0.484326
-0.513393
-0.53421
-0.543059
0.0486654
0.0477196
0.0464458
0.0447133
0.0422534
0.0387663
0.0339328
0.0274124
0.018734
0.00737039
-0.007138
-0.0253949
-0.0478864
-0.0752162
-0.107916
-0.145828
-0.187897
-0.232418
-0.276947
-0.31814
-0.35285
-0.379531
-0.399804
-0.418631
-0.441641
-0.471408
-0.505112
-0.534854
-0.55429
-0.561055
0.0664971
0.065616
0.064383
0.0626554
0.0601447
0.0565272
0.0514606
0.0445777
0.035366
0.0232607
0.00776296
-0.0117641
-0.0358545
-0.0650865
-0.100058
-0.140516
-0.18526
-0.232456
-0.279383
-0.322669
-0.359145
-0.387444
-0.409686
-0.431195
-0.457516
-0.490551
-0.526525
-0.556821
-0.574671
-0.579162
0.0861375
0.0852803
0.0840596
0.0823176
0.0797415
0.0759791
0.0706616
0.0633879
0.0536084
0.0407098
0.0241622
0.0032766
-0.0224854
-0.0537727
-0.0911256
-0.134251
-0.181797
-0.231705
-0.281178
-0.326626
-0.364945
-0.395047
-0.419508
-0.443975
-0.473856
-0.510289
-0.548506
-0.579237
-0.595327
-0.597362
0.107386
0.106611
0.105447
0.103721
0.101095
0.0971899
0.09161
0.083925
0.0735411
0.0598
0.0421337
0.0198177
-0.00775443
-0.0411904
-0.0810738
-0.127005
-0.177459
-0.230226
-0.282246
-0.329944
-0.370262
-0.402335
-0.429279
-0.457022
-0.490721
-0.530669
-0.571084
-0.602102
-0.616231
-0.615622
0.130683
0.129938
0.128788
0.127044
0.124342
0.120271
0.114404
0.106276
0.095247
0.080606
0.0617574
0.0378876
0.00841274
-0.0273278
-0.069864
-0.11872
-0.172205
-0.227874
-0.2826
-0.332642
-0.375071
-0.409352
-0.43906
-0.47036
-0.508104
-0.55165
-0.594186
-0.625345
-0.637352
-0.633925
0.155729
0.155073
0.153984
0.152258
0.149501
0.145271
0.139109
0.130517
0.118799
0.103202
0.0830608
0.0575584
0.0260315
-0.0121316
-0.0574565
-0.109376
-0.165998
-0.224714
-0.28216
-0.334664
-0.379413
-0.416109
-0.448878
-0.484049
-0.526066
-0.573269
-0.617836
-0.64896
-0.658658
-0.652236
0.182917
0.182313
0.181262
0.179536
0.176713
0.172308
0.165833
0.156739
0.144286
0.127647
0.106147
0.0788594
0.0451661
0.00443901
-0.0438073
-0.0989095
-0.158791
-0.220606
-0.280949
-0.336048
-0.383272
-0.42267
-0.4588
-0.498112
-0.544585
-0.595475
-0.64195
-0.672864
-0.680114
-0.670538
0.212042
0.211552
0.210592
0.208909
0.206044
0.201476
0.194672
0.185049
0.171801
0.154052
0.131054
0.101893
0.0658776
0.0224433
-0.0288709
-0.0873001
-0.150552
-0.215615
-0.278895
-0.336755
-0.386722
-0.429067
-0.468865
-0.512612
-0.56372
-0.618297
-0.666546
-0.697047
-0.701686
-0.688797
0.24359
0.243187
0.242294
0.240633
0.237701
0.232935
0.225765
0.215555
0.201445
0.182484
0.157912
0.126705
0.0882348
0.0419386
-0.0125894
-0.0744748
-0.141225
-0.209611
-0.276039
-0.336841
-0.389755
-0.435374
-0.479143
-0.527564
-0.583439
-0.641668
-0.691527
-0.721416
-0.72333
-0.707002
0.277582
0.277285
0.27646
0.274806
0.271785
0.266791
0.259209
0.248359
0.233308
0.213049
0.186749
0.1534
0.112302
0.0629833
0.00508114
-0.060415
-0.130789
-0.202663
-0.272325
-0.336292
-0.39248
-0.44164
-0.489681
-0.54303
-0.603792
-0.665608
-0.71691
-0.745957
-0.745011
-0.725119
0.314103
0.313898
0.31313
0.311478
0.308355
0.303108
0.295079
0.283531
0.267469
0.245801
0.217687
0.182007
0.138141
0.0856365
0.0242062
-0.0450407
-0.119181
-0.194654
-0.267809
-0.335187
-0.394895
-0.447948
-0.500543
-0.559015
-0.624732
-0.690035
-0.742588
-0.770568
-0.766677
-0.743142
0.353102
0.353018
0.352328
0.350687
0.347462
0.341952
0.333443
0.321152
0.304001
0.280836
0.250744
0.212632
0.165809
0.109948
0.0448207
-0.0283412
-0.106393
-0.185662
-0.262457
-0.333539
-0.397138
-0.454354
-0.511777
-0.575574
-0.646299
-0.714961
-0.768575
-0.795233
-0.78829
-0.761039
0.394682
0.394719
0.394115
0.392495
0.389171
0.383386
0.374375
0.361289
0.34298
0.318203
0.28604
0.24529
0.195363
0.135977
0.0669957
-0.0102331
-0.0923629
-0.175592
-0.256351
-0.331445
-0.39921
-0.460941
-0.523434
-0.592698
-0.668432
-0.740287
-0.794754
-0.819848
-0.809791
-0.77881
0.438836
0.439031
0.438542
0.436964
0.43355
0.427488
0.417948
0.404025
0.384479
0.357997
0.32359
0.280094
0.226856
0.163766
0.0907546
0.00928219
-0.0770992
-0.164533
-0.249485
-0.328948
-0.401269
-0.467762
-0.535554
-0.610431
-0.69116
-0.766015
-0.82114
-0.844397
-0.831136
-0.796426
0.485707
0.486069
0.485709
0.484186
0.480689
0.474338
0.464245
0.449433
0.428581
0.400276
0.363528
0.317054
0.260348
0.19338
0.116174
0.0302879
-0.0605495
-0.152422
-0.241965
-0.326165
-0.403311
-0.474889
-0.548166
-0.628749
-0.714403
-0.792037
-0.847608
-0.868777
-0.852258
-0.813894
0.535321
0.535886
0.535684
0.534237
0.530664
0.524022
0.513349
0.497603
0.475365
0.445153
0.405855
0.35627
0.295876
0.224846
0.143258
0.0527624
-0.0427436
-0.139366
-0.233818
-0.32316
-0.405499
-0.482361
-0.561295
-0.64768
-0.738181
-0.818343
-0.87417
-0.892977
-0.873109
-0.831184
0.58782
0.588601
0.58857
0.587212
0.583568
0.576621
0.565341
0.548606
0.524921
0.492622
0.45066
0.397721
0.333473
0.258216
0.172075
0.0767829
-0.0236468
-0.125338
-0.225174
-0.320059
-0.407809
-0.49022
-0.574942
-0.667186
-0.762398
-0.844813
-0.900696
-0.916901
-0.893612
-0.848311
0.643223
0.644254
0.644424
0.643175
0.639464
0.632203
0.620277
0.602501
0.577222
0.54276
0.497919
0.441449
0.37314
0.293464
0.202599
0.1023
-0.00331516
-0.110469
-0.216091
-0.31694
-0.410392
-0.498481
-0.589104
-0.687281
-0.787058
-0.871432
-0.927193
-0.940547
-0.913714
-0.865247
0.701657
0.702946
0.703322
0.702182
0.6984
0.690799
0.678191
0.659285
0.632365
0.595542
0.547699
0.487501
0.414926
0.330642
0.234899
0.129376
0.0182662
-0.094777
-0.206719
-0.313926
-0.413191
-0.507145
-0.603747
-0.707916
-0.812049
-0.898076
-0.953521
-0.963834
-0.93333
-0.882012
0.763001
0.764582
0.765196
0.764197
0.76036
0.752424
0.739103
0.719028
0.690317
0.651069
0.600045
0.535948
0.458906
0.369801
0.268939
0.157948
0.0409953
-0.0784183
-0.197142
-0.31109
-0.416318
-0.51619
-0.618832
-0.729086
-0.837356
-0.924719
-0.97968
-0.986769
-0.952397
-0.898575
0.827136
0.829064
0.829974
0.829168
0.82532
0.81706
0.803018
0.78171
0.751183
0.709326
0.655004
0.586836
0.505168
0.411037
0.304805
0.188056
0.0648556
-0.0614625
-0.187522
-0.308535
-0.419673
-0.525564
-0.634283
-0.750736
-0.862844
-0.951238
-1.00552
-1.00929
-0.970822
-0.914961
0.894076
0.896402
0.897663
0.897105
0.893278
0.884717
0.869938
0.847374
0.814898
0.770386
0.712604
0.640205
0.553723
0.454312
0.342418
0.219588
0.0896902
-0.0441022
-0.177956
-0.306313
-0.423304
-0.535196
-0.650015
-0.772853
-0.888473
-0.977607
-1.03102
-1.03143
-0.988536
-0.931138
0.963824
0.966595
0.968258
0.96799
0.964224
0.955371
0.939854
0.915976
0.88153
0.834189
0.772841
0.696077
0.60461
0.499681
0.381815
0.252544
0.115429
-0.026456
-0.168606
-0.304485
-0.427056
-0.544978
-0.665894
-0.79538
-0.914073
-1.00371
-1.056
-1.05314
-1.00544
-0.947132
1.03634
1.0396
1.04172
1.04179
1.03812
1.029
1.01273
0.987517
0.950978
0.90077
0.835691
0.754406
0.657784
0.547059
0.422869
0.286736
0.141843
-0.00875311
-0.159565
-0.303058
-0.430903
-0.55479
-0.681777
-0.818288
-0.939562
-1.02952
-1.08044
-1.07446
-1.02146
-0.962903
1.11156
1.11536
1.11798
1.11844
1.11491
1.10553
1.08852
1.06192
1.02328
0.970007
0.901088
0.815149
0.713222
0.596429
0.465554
0.322086
0.168802
0.00883404
-0.150977
-0.302032
-0.434626
-0.564463
-0.697451
-0.841522
-0.964719
-1.05492
-1.10413
-1.09538
-1.03648
-0.978478
1.18935
1.19375
1.19692
1.19784
1.19448
1.18489
1.16712
1.13916
1.09826
1.04188
0.968929
0.878235
0.770781
0.647578
0.509623
0.358323
0.195995
0.0260467
-0.142913
-0.301347
-0.438123
-0.573835
-0.7127
-0.865048
-0.989393
-1.07989
-1.12699
-1.11596
-1.05048
-0.99379
1.26958
1.27462
1.27841
1.27983
1.2767
1.26691
1.24843
1.21898
1.17583
1.11618
1.03906
0.943439
0.830229
0.70036
0.554957
0.395291
0.223229
0.0426792
-0.135481
-0.300922
-0.441134
-0.582664
-0.727136
-0.888735
-1.01327
-1.10433
-1.14877
-1.1362
-1.06357
-1.00876
1.35197
1.35773
1.36219
1.36418
1.36132
1.35137
1.33211
1.30123
1.25573
1.19277
1.11132
1.01037
0.891056
0.754417
0.6012
0.432619
0.250124
0.0584449
-0.12871
-0.300593
-0.443503
-0.591077
-0.740938
-0.912285
-1.03601
-1.12817
-1.16935
-1.15611
-1.07599
-1.02318
1.43627
1.44279
1.44799
1.4506
1.44807
1.43797
1.418
1.38562
1.3378
1.27151
1.18567
1.07897
0.953103
0.809547
0.648151
0.470073
0.276418
0.0731088
-0.122674
-0.300172
-0.445121
-0.599861
-0.755353
-0.935577
-1.05721
-1.15128
-1.18843
-1.17566
-1.08776
-1.03698
1.52215
1.5295
1.5355
1.53881
1.53666
1.52648
1.50578
1.47198
1.42182
1.35222
1.26193
1.14921
1.01633
0.865386
0.695374
0.507184
0.301678
0.08636
-0.117361
-0.29932
-0.447047
-0.610267
-0.771653
-0.958847
-1.07709
-1.1737
-1.20591
-1.19481
-1.09882
-1.05004
1.60932
1.61755
1.62443
1.6285
1.62681
1.61657
1.59525
1.55998
1.50751
1.43458
1.33959
1.22073
1.08064
0.921739