/*--------------------------------*- C++ -*----------------------------------*\
  =========                 |
  \\      /  F ield         | OpenFOAM: The Open Source CFD Toolbox
   \\    /   O peration     | Website:  https://openfoam.org
    \\  /    A nd           | Version:  6.0
     \\/     M anipulation  |
\*---------------------------------------------------------------------------*/
FoamFile
{
    version     2.0;
    format      ascii;
    class       surfaceScalarField;
    location    "4";
    object      phi;
}
// * * * * * * * * * * * * * * * * * * * * * * * * * * * * * * * * * * * * * //

dimensions      [0 3 -1 0 0 0 0];

internalField   nonuniform List<scalar> 
30763
(
-5.20801e-05
4.48239e-05
5.35944e-05
-5.02729e-05
5.25521e-05
-4.81855e-05
6.16145e-05
-4.57189e-05
7.22419e-05
-4.28489e-05
8.47013e-05
-3.94671e-05
9.93137e-05
-3.55236e-05
0.000116453
-3.0866e-05
0.000136528
-2.54171e-05
0.000160089
-1.89813e-05
0.000187677
-1.14129e-05
0.000220026
-2.49216e-06
0.000257921
8.02621e-06
0.000302286
2.04438e-05
0.000354182
3.50731e-05
0.000414848
5.22935e-05
0.000485628
7.25432e-05
0.00056798
9.63203e-05
0.000663445
0.000124183
0.000773485
0.000156757
0.00089928
0.000194715
0.00104132
0.000238705
0.00119879
0.000289308
0.00136834
0.000346837
0.00154241
0.000411033
0.00170662
0.000480604
0.00183607
0.000552673
0.00189023
0.00062213
0.00180621
0.000679262
0.00149291
0.000787521
0.000701138
-5.15664e-05
4.33436e-05
5.30358e-05
-4.98157e-05
5.08168e-05
-4.77888e-05
5.95809e-05
-4.5394e-05
6.98591e-05
-4.26053e-05
8.19065e-05
-3.93199e-05
9.60375e-05
-3.54881e-05
0.000112616
-3.09661e-05
0.000132012
-2.56781e-05
0.000154798
-1.94399e-05
0.000181442
-1.21099e-05
0.000212695
-3.48229e-06
0.000249295
6.68087e-06
0.000292124
1.86712e-05
0.000342193
3.28006e-05
0.000400721
4.944e-05
0.000468989
6.9025e-05
0.000548398
9.20387e-05
0.000640434
0.000119028
0.000746502
0.000150602
0.000867712
0.000187421
0.00100451
0.000230111
0.0011561
0.000279214
0.00131923
0.000334991
0.00148663
0.000397135
0.00164447
0.000464366
0.00176884
0.000533899
0.0018207
0.000600739
0.00173932
0.000654497
0.00143883
0.000767258
0.000674081
-5.09517e-05
4.19103e-05
5.23768e-05
-4.92612e-05
4.91356e-05
-4.72956e-05
5.76095e-05
-4.4976e-05
6.7548e-05
-4.22707e-05
7.91944e-05
-3.90826e-05
9.2857e-05
-3.53623e-05
0.00010889
-3.09703e-05
0.000127626
-2.58333e-05
0.000149657
-1.9773e-05
0.000175385
-1.26525e-05
0.000205574
-4.27298e-06
0.000240917
5.59598e-06
0.000282256
1.72374e-05
0.000330553
3.09546e-05
0.000387005
4.71108e-05
0.000452836
6.61278e-05
0.000529382
8.84779e-05
0.000618088
0.000114686
0.000720299
0.000145337
0.000837066
0.000181058
0.000968792
0.000222436
0.00111472
0.000269966
0.0012717
0.000323868
0.00143272
0.000383821
0.00158451
0.000448584
0.00170408
0.000515478
0.00175383
0.000579639
0.00167517
0.000631433
0.00138699
0.000746626
0.000651987
-4.99731e-05
4.05249e-05
5.13514e-05
-4.83357e-05
4.75107e-05
-4.6435e-05
5.57041e-05
-4.41909e-05
6.5314e-05
-4.1573e-05
7.65725e-05
-3.84891e-05
8.97814e-05
-3.48877e-05
0.000105285
-3.06368e-05
0.000123381
-2.56621e-05
0.000144681
-1.97922e-05
0.000169518
-1.28924e-05
0.000198674
-4.77013e-06
0.000232797
4.79854e-06
0.000272689
1.60864e-05
0.000319266
2.93888e-05
0.000373705
4.50548e-05
0.000437171
6.34962e-05
0.000510944
8.51655e-05
0.000596421
0.000110571
0.000694898
0.000140271
0.000807371
0.000174862
0.000934205
0.000214895
0.00107469
0.000260828
0.00122576
0.000312853
0.00138068
0.000370645
0.00152671
0.000433011
0.0016417
0.000497366
0.00168946
0.000558988
0.00161351
0.00060911
0.00133659
0.000724461
0.000630533
-4.87247e-05
3.91901e-05
5.00521e-05
-4.71517e-05
4.59443e-05
-4.53192e-05
5.38665e-05
-4.3157e-05
6.31587e-05
-4.06324e-05
7.4042e-05
-3.76565e-05
8.68121e-05
-3.41804e-05
0.000101804
-3.00744e-05
0.00011928
-2.52681e-05
0.000139872
-1.95937e-05
0.000163847
-1.29215e-05
0.000192001
-5.06376e-06
0.000224941
4.19604e-06
0.00026343
1.51222e-05
0.000308342
2.79988e-05
0.00036083
4.31653e-05
0.000422008
6.10159e-05
0.000493095
8.19914e-05
0.000575451
0.000106577
0.000670317
0.000135309
0.000778643
0.000168755
0.00090076
0.000207436
0.001036
0.000251781
0.0011814
0.000301961
0.00133049
0.000357656
0.001471
0.000417716
0.00158165
0.00047965
0.00162755
0.000538885
0.0015543
0.000587349
0.00128809
0.000702611
0.000609132
-4.73296e-05
3.7906e-05
4.86102e-05
-4.58112e-05
4.44377e-05
-4.40473e-05
5.2099e-05
-4.19641e-05
6.10852e-05
-3.9532e-05
7.16067e-05
-3.66652e-05
8.39532e-05
-3.33145e-05
9.84505e-05
-2.93564e-05
0.000115328
-2.47199e-05
0.000135234
-1.92443e-05
0.000158375
-1.28019e-05
0.000185559
-5.21146e-06
0.000217352
3.73717e-06
0.000254483
1.42979e-05
0.000297783
2.67462e-05
0.000348384
4.14073e-05
0.000407348
5.86651e-05
0.000475841
7.89397e-05
0.000555179
0.000102701
0.000646561
0.000130461
0.000750887
0.000162763
0.000868461
0.000200101
0.000998662
0.000242879
0.00113862
0.000291256
0.0012821
0.00034492
0.00141733
0.000402762
0.00152379
0.000462386
0.00156792
0.000519373
0.00149728
0.000566172
0.00124106
0.000680103
0.000587937
-4.58626e-05
3.66698e-05
4.70941e-05
-4.44053e-05
4.29867e-05
-4.27065e-05
5.03961e-05
-4.07016e-05
5.9087e-05
-3.83598e-05
6.92594e-05
-3.55974e-05
8.11973e-05
-3.23692e-05
9.52175e-05
-2.8553e-05
0.000111516
-2.40825e-05
0.00013076
-1.88004e-05
0.000153096
-1.25844e-05
0.000179343
-5.25804e-06
0.000210028
3.38122e-06
0.000245846
1.35787e-05
0.000287587
2.55985e-05
0.000336366
3.97568e-05
0.000393193
5.64202e-05
0.00045918
7.5997e-05
0.000535608
9.89359e-05
0.000623627
0.00012573
0.000724097
0.000156897
0.000837294
0.000192911
0.000962645
0.000234154
0.00109736
0.000280776
0.00123547
0.000332475
0.00136562
0.000388186
0.00146808
0.000445605
0.00151053
0.000500464
0.00144245
0.000545611
0.00119588
0.000658543
0.000567124
-4.43707e-05
3.54802e-05
4.55576e-05
-4.29631e-05
4.15908e-05
-4.13279e-05
4.87582e-05
-3.93963e-05
5.71651e-05
-3.71404e-05
6.70015e-05
-3.44809e-05
7.85456e-05
-3.13705e-05
9.21057e-05
-2.76951e-05
0.000107847
-2.33868e-05
0.000126452
-1.82961e-05
0.000148008
-1.23028e-05
0.00017335
-5.2368e-06
0.000202964
3.09767e-06
0.000237513
1.29357e-05
0.000277751
2.45329e-05
0.000324772
3.81919e-05
0.000379536
5.42693e-05
0.000443107
7.31539e-05
0.000516726
9.52807e-05
0.000601506
0.000121121
0.000698261
0.000151173
0.000807244
0.000185889
0.000927927
0.000225634
0.00105761
0.000270553
0.00119054
0.000320355
0.00131581
0.000374019
0.00141441
0.000429327
0.00145521
0.000482169
0.00138958
0.0005257
0.00115214
0.00063671
0.000546811
-4.28797e-05
3.43345e-05
4.40219e-05
-4.15294e-05
4.02459e-05
-3.99544e-05
4.71798e-05
-3.8096e-05
5.53127e-05
-3.59242e-05
6.48252e-05
-3.33622e-05
7.59897e-05
-3.03666e-05
8.91062e-05
-2.68245e-05
0.000104309
-2.26729e-05
0.000122298
-1.77657e-05
0.000143104
-1.19878e-05
0.000167572
-5.17477e-06
0.000196153
2.8618e-06
0.000229478
1.23487e-05
0.000268266
2.35304e-05
0.000313592
3.67009e-05
0.000366368
5.22e-05
0.00042761
7.04071e-05
0.000498526
9.17362e-05
0.000580183
0.000116643
0.000673359
0.000145604
0.000778284
0.000179053
0.000894473
0.000217343
0.00101931
0.000260612
0.00114726
0.000308585
0.00126783
0.000360281
0.00136272
0.000413568
0.00140195
0.000464484
0.00133871
0.000506449
0.00111015
0.000616051
0.000527079
-4.14218e-05
3.32313e-05
4.25244e-05
-4.01162e-05
3.89516e-05
-3.85991e-05
4.5661e-05
-3.68075e-05
5.35305e-05
-3.47147e-05
6.27311e-05
-3.22474e-05
7.353e-05
-2.93611e-05
8.62191e-05
-2.59499e-05
0.000100904
-2.195e-05
0.000118298
-1.72223e-05
0.00013838
-1.16542e-05
0.000162005
-5.08797e-06
0.000189588
2.65857e-06
0.000221734
1.18023e-05
0.000259124
2.25796e-05
0.000302817
3.52713e-05
0.000353679
5.02088e-05
0.000412678
6.77521e-05
0.000480986
8.83033e-05
0.000559638
0.000112299
0.000649369
0.000140198
0.000750388
0.000172419
0.000862251
0.000209299
0.000982425
0.000250974
0.00110557
0.000297183
0.00122161
0.000346986
0.00131291
0.000398333
0.0013506
0.000447409
0.00128961
0.000487865
0.00106951
0.000595257
0.000507962
-3.99946e-05
3.21684e-05
4.10573e-05
-3.87418e-05
3.7704e-05
-3.72798e-05
4.41968e-05
-3.55556e-05
5.1812e-05
-3.354e-05
6.07118e-05
-3.11626e-05
7.11583e-05
-2.83824e-05
8.34355e-05
-2.50945e-05
9.76205e-05
-2.12401e-05
0.000114442
-1.66836e-05
0.000133827
-1.13176e-05
0.000156639
-4.98945e-06
0.000183263
2.47575e-06
0.00021427
1.12871e-05
0.000250315
2.16704e-05
0.000292436
3.38989e-05
0.000341454
4.82878e-05
0.000398292
6.5188e-05
0.000464093
8.49835e-05
0.000539849
0.000108095
0.000626262
0.000134965
0.00072352
0.000165994
0.000831219
0.000201511
0.000946901
0.000241647
0.00106543
0.000286157
0.0011771
0.00033414
0.00126494
0.000383622
0.00130115
0.000430933
0.00124235
0.000469938
0.00103048
0.000575696
0.000489485
-3.86212e-05
3.11442e-05
3.9645e-05
-3.74091e-05
3.65024e-05
-3.59997e-05
4.2787e-05
-3.43364e-05
5.01578e-05
-3.23925e-05
5.87684e-05
-3.01022e-05
6.88756e-05
-2.74221e-05
8.0756e-05
-2.42555e-05
9.44595e-05
-2.05417e-05
0.000110729
-1.61526e-05
0.000129441
-1.09827e-05
0.000151471
-4.88574e-06
0.000177168
2.30703e-06
0.00020708
1.07956e-05
0.000241829
2.07986e-05
0.000282436
3.25765e-05
0.000329678
4.64365e-05
0.000384438
6.27118e-05
0.000447822
8.17757e-05
0.000520793
0.000104032
0.000604012
0.000129905
0.00069765
0.000159784
0.000801339
0.000193985
0.000912694
0.000232638
0.00102677
0.000275512
0.00113422
0.000321741
0.0012187
0.000369433
0.00125345
0.000415048
0.0011967
0.000452661
0.00099271
0.000556045
0.000471641
-3.72803e-05
3.01576e-05
3.82686e-05
-3.61179e-05
3.53444e-05
-3.47599e-05
4.14278e-05
-3.31599e-05
4.85627e-05
-3.12882e-05
5.68941e-05
-2.90817e-05
6.66742e-05
-2.65001e-05
7.81723e-05
-2.34481e-05
9.14122e-05
-1.98695e-05
0.00010715
-1.56396e-05
0.000125215
-1.06578e-05
0.00014649
-4.78314e-06
0.000171296
2.14661e-06
0.000200153
1.03243e-05
0.000233654
1.99587e-05
0.000272803
3.13032e-05
0.000318338
4.4649e-05
0.000371094
6.03232e-05
0.000432157
7.86796e-05
0.000502443
0.000100109
0.000582589
0.000125021
0.000672739
0.00015379
0.000772567
0.000186722
0.000879755
0.000223946
0.000989535
0.000265244
0.00109292
0.000309787
0.00117417
0.000355754
0.00120752
0.00039974
0.00115277
0.000436013
0.000956416
0.00053763
0.000454431
-3.6001e-05
2.92068e-05
3.69536e-05
-3.48761e-05
3.42289e-05
-3.35667e-05
4.01191e-05
-3.20226e-05
4.70271e-05
-3.02173e-05
5.50901e-05
-2.80912e-05
6.45552e-05
-2.56028e-05
7.5685e-05
-2.26632e-05
8.8478e-05
-1.92154e-05
0.000103704
-1.5141e-05
0.000121144
-1.03417e-05
0.000141693
-4.68237e-06
0.000165639
1.99338e-06
0.00019348
9.87003e-06
0.00022578
1.91498e-05
0.000263527
3.00736e-05
0.000307416
4.29271e-05
0.000358248
5.80185e-05
0.000417071
7.56932e-05
0.000484777
9.63261e-05
0.000561963
0.000120311
0.000648759
0.00014801
0.000744868
0.00017972
0.00084804
0.000215569
0.00095368
0.000255349
0.00105313
0.000298268
0.00113125
0.000342576
0.0011632
0.000384993
0.00111033
0.000419982
0.000921293
0.000519128
0.000437835
-3.47538e-05
2.8291e-05
3.56744e-05
-3.36748e-05
3.31539e-05
-3.24132e-05
3.88573e-05
-3.09279e-05
4.55462e-05
-2.91897e-05
5.33499e-05
-2.71412e-05
6.25115e-05
-2.47442e-05
7.32864e-05
-2.19109e-05
8.56492e-05
-1.85886e-05
0.000100382
-1.46622e-05
0.000117221
-1.0038e-05
0.00013707
-4.58572e-06
0.000160189
1.84499e-06
0.000187052
9.43215e-06
0.000218195
1.83686e-05
0.000254592
2.88895e-05
0.0002969
4.1265e-05
0.000345876
5.57974e-05
0.000402548
7.28152e-05
0.000467767
9.26802e-05
0.000542105
0.000115773
0.000625668
0.000142442
0.000718196
0.000172975
0.0008175
0.000207499
0.00091915
0.000245818
0.00101481
0.000287175
0.0010899
0.000329886
0.00112053
0.000370792
0.00106948
0.000404544
0.000887524
0.000501864
0.000421844
-3.35697e-05
2.74079e-05
3.44549e-05
-3.25251e-05
3.21179e-05
-3.13078e-05
3.7642e-05
-2.98736e-05
4.41204e-05
-2.8196e-05
5.16751e-05
-2.62216e-05
6.05444e-05
-2.39104e-05
7.09776e-05
-2.11814e-05
8.29257e-05
-1.79804e-05
9.71826e-05
-1.41988e-05
0.000113443
-9.74446e-06
0.000132618
-4.49264e-06
0.00015494
1.70167e-06
0.00018086
9.0088e-06
0.000210891
1.76159e-05
0.000245988
2.77463e-05
0.000286772
3.96648e-05
0.000333965
5.36563e-05
0.000388562
7.0042e-05
0.000451391
8.9168e-05
0.000522986
0.000111402
0.00060344
0.00013708
0.000692519
0.000166481
0.000788095
0.00019973
0.000885896
0.000236644
0.000977896
0.000276497
0.00105005
0.00031767
0.00107935
0.000357121
0.00103
0.000389685
0.000854846
0.000484497
0.000406435
-3.24088e-05
2.65578e-05
3.32663e-05
-3.14073e-05
3.112e-05
-3.02351e-05
3.64706e-05
-2.88565e-05
4.27456e-05
-2.72421e-05
5.00597e-05
-2.53405e-05
5.86473e-05
-2.31147e-05
6.87511e-05
-2.04846e-05
8.03e-05
-1.74003e-05
9.40992e-05
-1.37561e-05
0.000109802
-9.46426e-06
0.000128329
-4.40474e-06
0.000149884
1.56197e-06
0.000174896
8.60049e-06
0.000203855
1.68892e-05
0.000237702
2.6646e-05
0.00027702
3.81206e-05
0.000322493
5.1595e-05
0.000375098
6.73715e-05
0.000435623
8.57869e-05
0.000504578
0.000107194
0.000582034
0.000131918
0.000667791
0.00016023
0.000759776
0.000192253
0.000853867
0.000227815
0.000942335
0.000266219
0.00101166
0.000305912
0.00103969
0.000343961
0.000992014
0.000375381
0.000823417
0.00046836
0.000391604
-3.13139e-05
2.57378e-05
3.21378e-05
-3.03442e-05
3.01581e-05
-2.92129e-05
3.53423e-05
-2.7881e-05
4.14218e-05
-2.63226e-05
4.85047e-05
-2.44894e-05
5.6821e-05
-2.23432e-05
6.66077e-05
-1.98097e-05
7.77718e-05
-1.68381e-05
9.11298e-05
-1.3328e-05
0.000106296
-9.19377e-06
0.000124197
-4.32015e-06
0.000145013
1.42724e-06
0.000169152
8.20602e-06
0.000197079
1.61894e-05
0.000229722
2.55837e-05
0.000267628
3.66359e-05
0.000311449
4.96089e-05
0.000362131
6.48003e-05
0.000420441
8.25321e-05
0.000486855
0.000103144
0.000561428
0.000126951
0.000643987
0.000154216
0.000732509
0.000185059
0.000823021
0.000219319
0.000908076
0.000256331
0.000974648
0.000294598
0.00100142
0.000331296
0.00095529
0.000361618
0.000793008
0.000452071
0.000377316
-3.02367e-05
2.49486e-05
3.10364e-05
-2.93068e-05
2.92316e-05
-2.82177e-05
3.42546e-05
-2.69377e-05
4.01452e-05
-2.54383e-05
4.70048e-05
-2.36726e-05
5.50595e-05
-2.16057e-05
6.45405e-05
-1.91638e-05
7.53342e-05
-1.63004e-05
8.82676e-05
-1.29176e-05
0.000102916
-8.93438e-06
0.000120216
-4.23943e-06
0.000140321
1.2967e-06
0.000163619
7.82622e-06
0.000190553
1.55141e-05
0.000222037
2.45627e-05
0.000258584
3.52039e-05
0.000300812
4.7698e-05
0.000349648
6.23264e-05
0.000405822
7.94e-05
0.000469789
9.92477e-05
0.000541583
0.000122172
0.000621058
0.000148429
0.000706245
0.000178138
0.000793306
0.000211146
0.000875066
0.000246817
0.000938989
0.000283712
0.000964561
0.00031911
0.00091995
0.000348371
0.000763745
0.000436973
0.000363566
-2.92265e-05
2.41868e-05
2.9992e-05
-2.83255e-05
2.83381e-05
-2.7273e-05
3.32066e-05
-2.60352e-05
3.89159e-05
-2.45863e-05
4.55609e-05
-2.28833e-05
5.3364e-05
-2.08894e-05
6.25508e-05
-1.85372e-05
7.29876e-05
-1.57782e-05
8.55118e-05
-1.25203e-05
9.96624e-05
-8.68362e-06
0.000116382
-4.16131e-06
0.000135802
1.1712e-06
0.00015829
7.45976e-06
0.000184267
1.48648e-05
0.000214635
2.35781e-05
0.000249874
3.3828e-05
0.000290571
4.5858e-05
0.000337624
5.99451e-05
0.000391746
7.6386e-05
0.000453356
9.54988e-05
0.000522477
0.000117575
0.000598984
0.000142863
0.000680957
0.000171481
0.000764688
0.000203284
0.000843266
0.000237665
0.000904612
0.000273239
0.000928984
0.000307383
0.000885782
0.000335627
0.000735434
0.000421736
0.000350311
-2.82213e-05
2.34543e-05
2.89677e-05
-2.73578e-05
2.7478e-05
-2.63456e-05
3.2197e-05
-2.51573e-05
3.77308e-05
-2.37645e-05
4.41685e-05
-2.21254e-05
5.17288e-05
-2.02058e-05
6.06319e-05
-1.79389e-05
7.0725e-05
-1.52804e-05
8.28553e-05
-1.21407e-05
9.65264e-05
-8.44378e-06
0.000112688
-4.087e-06
0.000131448
1.04972e-06
0.000153156
7.10756e-06
0.000178213
1.42391e-05
0.000207506
2.26324e-05
0.000241486
3.2501e-05
0.000280706
4.40891e-05
0.000326048
5.76543e-05
0.00037819
7.34872e-05
0.000437531
9.18923e-05
0.000504074
0.000113153
0.00057772
0.000137509
0.000656593
0.000165076
0.000737112
0.000195722
0.000812619
0.000228861
0.000871483
0.000263164
0.000894713
0.000296102
0.0008529
0.000323358
0.000708187
0.000407637
0.00033755
-2.72883e-05
2.27467e-05
2.80004e-05
-2.64517e-05
2.66481e-05
-2.54731e-05
3.12236e-05
-2.43233e-05
3.65892e-05
-2.29767e-05
4.28278e-05
-2.13952e-05
5.01545e-05
-1.95431e-05
5.87845e-05
-1.73591e-05
6.85464e-05
-1.47974e-05
8.02969e-05
-1.17731e-05
9.35058e-05
-8.21174e-06
0.00010913
-4.0147e-06
0.000127254
9.33534e-07
0.000148212
6.76831e-06
0.000172381
1.36382e-05
0.00020064
2.17201e-05
0.000233406
3.12278e-05
0.000271207
4.23857e-05
0.000314897
5.54503e-05
0.000365136
7.06982e-05
0.000422294
8.8423e-05
0.000486356
0.000108899
0.000557248
0.000132358
0.000633134
0.000158917
0.000710556
0.000188448
0.000783094
0.000220393
0.000839543
0.000253473
0.000861633
0.000285248
0.000821102
0.000311556
0.000681834
0.000393422
0.000325259
-2.63541e-05
2.20666e-05
2.705e-05
-2.55524e-05
2.58495e-05
-2.46118e-05
3.02859e-05
-2.35085e-05
3.54884e-05
-2.22145e-05
4.15344e-05
-2.06923e-05
4.86356e-05
-1.89093e-05
5.70022e-05
-1.68042e-05
6.64453e-05
-1.43353e-05
7.78303e-05
-1.14204e-05
9.05947e-05
-7.9886e-06
0.000105701
-3.94507e-06
0.000123214
8.21852e-07
0.000143448
6.44287e-06
0.000166764
1.30591e-05
0.000194026
2.08453e-05
0.000225625
3.00002e-05
0.000262057
4.07487e-05
0.000304161
5.33313e-05
0.000352564
6.80158e-05
0.000407617
8.50865e-05
0.000469287
0.000104807
0.000537523
0.000127405
0.000610527
0.000152992
0.00068496
0.000181451
0.00075463
0.000212248
0.000808756
0.000244151
0.000829759
0.000274808
0.0007905
0.000300197
0.000656461
0.000380287
0.000313432
-2.54931e-05
2.1409e-05
2.61539e-05
-2.47157e-05
2.50783e-05
-2.38049e-05
2.93816e-05
-2.27362e-05
3.44279e-05
-2.14836e-05
4.02892e-05
-2.00143e-05
4.71738e-05
-1.8293e-05
5.5287e-05
-1.62649e-05
6.44228e-05
-1.38857e-05
7.54555e-05
-1.10782e-05
8.7791e-05
-7.77228e-06
0.000102399
-3.87686e-06
0.000119322
7.1538e-07
0.000138859
6.12971e-06
0.000161353
1.25038e-05
0.000187656
2.00023e-05
0.000218129
2.88229e-05
0.000253246
3.91732e-05
0.000293816
5.12927e-05
0.000340457
6.54354e-05
0.000393484
8.18771e-05
0.000452854
0.000100872
0.000518532
0.00012264
0.000588762
0.000147294
0.00066031
0.000174723
0.00072721
0.000204415
0.000779071
0.000235186
0.00079899
0.000264765
0.0007609
0.000289272
0.000631926
0.000367044
0.000302043
-2.46198e-05
2.07777e-05
2.52688e-05
-2.38752e-05
2.43369e-05
-2.3001e-05
2.85111e-05
-2.19768e-05
3.3406e-05
-2.07746e-05
3.90884e-05
-1.93613e-05
4.57635e-05
-1.77048e-05
5.36321e-05
-1.57502e-05
6.2472e-05
-1.34574e-05
7.31654e-05
-1.07512e-05
8.50884e-05
-7.56494e-06
9.92159e-05
-3.81145e-06
0.000115571
6.13011e-07
0.000134438
5.82983e-06
0.00015614
1.19695e-05
0.000181519
1.91945e-05
0.00021091
2.76874e-05
0.000244756
3.76604e-05
0.000283858
4.93325e-05
0.000328794
6.29547e-05
0.000379869
7.87904e-05
0.00043702
9.70865e-05
0.00050023
0.000118057
0.000567781
0.000141813
0.000636543
0.000168251
0.000700767
0.000196881
0.000750447
0.000226564
0.000769334
0.000255105
0.000732409
0.000278758
0.000608297
0.000354818
0.000291084
-2.38236e-05
2.01668e-05
2.44366e-05
-2.3102e-05
2.36205e-05
-2.22554e-05
2.76709e-05
-2.1263e-05
3.24208e-05
-2.00986e-05
3.79317e-05
-1.87341e-05
4.44055e-05
-1.71345e-05
5.20388e-05
-1.52511e-05
6.05933e-05
-1.3041e-05
7.09596e-05
-1.04339e-05
8.24847e-05
-7.36387e-06
9.61494e-05
-3.74713e-06
0.000111958
5.15946e-07
0.000130179
5.54171e-06
0.000151117
1.14576e-05
0.000175607
1.84153e-05
0.000203955
2.66004e-05
0.000236581
3.62038e-05
0.00027426
4.74473e-05
0.000317562
6.05686e-05
0.00036676
7.58214e-05
0.000421775
9.34459e-05
0.000482611
0.000113649
0.000547581
0.000136542
0.000613659
0.000162027
0.000675293
0.000189637
0.000722848
0.000218272
0.000740703
0.000245814
0.000704847
0.000268648
0.000585455
0.000342498
0.000280532
-2.30118e-05
1.95804e-05
2.3614e-05
-2.23211e-05
2.29318e-05
-2.15089e-05
2.68621e-05
-2.05582e-05
3.14711e-05
-1.94409e-05
3.68157e-05
-1.81284e-05
4.30949e-05
-1.65889e-05
5.05011e-05
-1.47732e-05
5.87808e-05
-1.26427e-05
6.88322e-05
-1.01292e-05
7.99745e-05
-7.16997e-06
9.31936e-05
-3.68464e-06
0.000108476
4.23331e-07
0.000126074
5.26633e-06
0.000146278
1.09649e-05
0.00016991
1.767e-05
0.000197255
2.55518e-05
0.000228703
3.48056e-05
0.00026502
4.5636e-05
0.000306742
5.82742e-05
0.000354128
7.29667e-05
0.000407083
8.99443e-05
0.000465627
0.00010941
0.000528104
0.000131472
0.000591584
0.000156041
0.000650715
0.000182669
0.000696225
0.000210298
0.000713097
0.000236879
0.000678312
0.000258919
0.000563445
0.000331136
0.000270385
-2.22756e-05
1.90124e-05
2.28421e-05
-2.16056e-05
2.22657e-05
-2.08178e-05
2.60811e-05
-1.98957e-05
3.05555e-05
-1.88124e-05
3.57409e-05
-1.75446e-05
4.18332e-05
-1.60574e-05
4.90208e-05
-1.43078e-05
5.70357e-05
-1.22541e-05
6.67834e-05
-9.83268e-06
7.75563e-05
-6.98133e-06
9.03458e-05
-3.62269e-06
0.000105121
3.35919e-07
0.000122119
5.00177e-06
0.000141615
1.04932e-05
0.000164422
1.69513e-05
0.000190798
2.45482e-05
0.000221116
3.346e-05
0.000256112
4.3894e-05
0.00029632
5.60676e-05
0.000341964
7.0221e-05
0.000392939
8.65763e-05
0.000449276
0.000105332
0.000509354
0.000126596
0.00057033
0.000150285
0.000627041
0.00017597
0.000670552
0.000202631
0.000686443
0.000228286
0.000652639
0.000249564
0.000542173
0.000319683
0.000260618
-2.15131e-05
1.84682e-05
2.20749e-05
-2.08727e-05
2.16264e-05
-2.0118e-05
2.53302e-05
-1.92362e-05
2.96736e-05
-1.81982e-05
3.47045e-05
-1.69797e-05
4.0616e-05
-1.55492e-05
4.75925e-05
-1.38629e-05
5.53521e-05
-1.18834e-05
6.48072e-05
-9.54867e-06
7.52247e-05
-6.79979e-06
8.76006e-05
-3.56252e-06
0.000101887
2.51947e-07
0.000118307
4.74882e-06
0.000137122
1.0039e-05
0.000159133
1.62635e-05
0.000184578
2.35793e-05
0.000213802
3.21706e-05
0.00024754
4.22201e-05
0.00028628
5.39473e-05
0.000330243
6.75807e-05
0.000379305
8.33375e-05
0.000433511
0.00010141
0.000491268
0.000121906
0.000549819
0.00014475
0.000604189
0.000169528
0.000645775
0.000195259
0.000660732
0.000220025
0.000627914
0.000240564
0.000521671
0.000309118
0.000251228
-2.08325e-05
1.79402e-05
2.13577e-05
-2.02117e-05
2.10074e-05
-1.94797e-05
2.46044e-05
-1.86239e-05
2.88226e-05
-1.7617e-05
3.37055e-05
-1.64395e-05
3.94434e-05
-1.50571e-05
4.62168e-05
-1.34315e-05
5.37303e-05
-1.15228e-05
6.29032e-05
-9.2729e-06
7.29778e-05
-6.6234e-06
8.49547e-05
-3.50393e-06
9.87694e-05
1.72841e-07
0.000114634
4.50549e-06
0.000132791
9.60343e-06
0.000154037
1.56007e-05
0.000178586
2.26562e-05
0.000206764
3.0928e-05
0.000239274
4.06109e-05
0.000276612
5.19079e-05
0.000318959
6.50411e-05
0.000366179
8.02225e-05
0.000418337
9.76384e-05
0.000473858
0.000117397
0.000530075
0.000139427
0.000582176
0.000163335
0.000621882
0.000188172
0.000635905
0.00021208
0.000603989
0.00023191
0.000501861
0.000298469
0.000242192
-2.01236e-05
1.74346e-05
2.06447e-05
-1.95309e-05
2.04132e-05
-1.883e-05
2.39064e-05
-1.8012e-05
2.80028e-05
-1.70474e-05
3.2742e-05
-1.59155e-05
3.83117e-05
-1.45855e-05
4.48888e-05
-1.30182e-05
5.21652e-05
-1.11777e-05
6.10663e-05
-9.00802e-06
7.08107e-05
-6.45376e-06
8.24035e-05
-3.44601e-06
9.57644e-05
9.77251e-08
0.000111093
4.27278e-06
0.000128618
9.18873e-06
0.000149129
1.49696e-05
0.000172814
2.1763e-05
0.000199978
2.97384e-05
0.000231324
3.90651e-05
0.000267297
4.99473e-05
0.000308083
6.25999e-05
0.000353525
7.72268e-05
0.000403701
9.40113e-05
0.000457058
0.00011306
0.00051101
0.00013431
0.000560914
0.000157381
0.000598811
0.000181359
0.000611942
0.000204443
0.000580942
0.000223585
0.000482759
0.000288646
0.000233507
-1.94945e-05
1.69437e-05
1.99784e-05
-1.89201e-05
1.98377e-05
-1.82397e-05
2.32316e-05
-1.74453e-05
2.72118e-05
-1.65087e-05
3.18135e-05
-1.54146e-05
3.72217e-05
-1.41285e-05
4.36098e-05
-1.26174e-05
5.06573e-05
-1.08424e-05
5.92959e-05
-8.75073e-06
6.87216e-05
-6.28817e-06
7.99437e-05
-3.38805e-06
9.28672e-05
2.75707e-08
0.000107679
4.05556e-06
0.000124596
8.78989e-06
0.000144395
1.43617e-05
0.000167252
2.09139e-05
0.000193447
2.85905e-05
0.000223649
3.75781e-05
0.000258325
4.80617e-05
0.00029761
6.0252e-05
0.000341346
7.43455e-05
0.000389613
9.05232e-05
0.00044089
0.000108891
0.000492658
0.00012939
0.000540437
0.000151658
0.000576559
0.000174811
0.000588803
0.0001971
0.000558637
0.000215583
0.000464307
0.00027874
0.000225151
-1.88333e-05
1.64742e-05
1.93119e-05
-1.82871e-05
1.92859e-05
-1.76376e-05
2.2583e-05
-1.68798e-05
2.64495e-05
-1.59832e-05
3.09171e-05
-1.49314e-05
3.61685e-05
-1.36932e-05
4.23737e-05
-1.22352e-05
4.92005e-05
-1.05219e-05
5.75861e-05
-8.50371e-06
6.67049e-05
-6.12744e-06
7.75701e-05
-3.33066e-06
9.0072e-05
-3.53672e-08
0.000104386
3.84389e-06
0.000120715
8.41306e-06
0.000139835
1.37832e-05
0.000161889
2.00884e-05
0.000187141
2.74933e-05
0.000216269
3.61493e-05
0.000249676
4.62503e-05
0.000287514
5.79947e-05
0.000329598
7.15754e-05
0.000376021
8.71692e-05
0.000425279
0.000104882
0.000474926
0.00012466
0.000520644
0.000146157
0.000555059
0.000168517
0.000566455
0.000190043
0.00053714
0.000207885
0.000446509
0.000269594
0.000217121
-1.82482e-05
1.60162e-05
1.8688e-05
-1.77194e-05
1.87485e-05
-1.70894e-05
2.19529e-05
-1.6352e-05
2.5711e-05
-1.54803e-05
3.00506e-05
-1.4462e-05
3.51518e-05
-1.32644e-05
4.11813e-05
-1.18581e-05
4.77956e-05
-1.02058e-05
5.59373e-05
-8.25991e-06
6.47602e-05
-5.96898e-06
7.52811e-05
-3.27164e-06
8.73767e-05
-9.54876e-08
0.000101211
3.64946e-06
0.000116976
8.0489e-06
0.000135435
1.32229e-05
0.000156721
1.93074e-05
0.000181076
2.64333e-05
0.000209141
3.47758e-05
0.000241347
4.45082e-05
0.000277795
5.58236e-05
0.000318291
6.89115e-05
0.000362942
8.39437e-05
0.000410257
0.000101028
0.000457863
0.000120115
0.000501581
0.000140871
0.000534322
0.00016247
0.000544874
0.000183259
0.000516336
0.000200486
0.000429323
0.000260372
0.000209396
-1.76253e-05
1.55815e-05
1.80789e-05
-1.71149e-05
1.82376e-05
-1.65081e-05
2.13523e-05
-1.58034e-05
2.50048e-05
-1.49703e-05
2.92196e-05
-1.39941e-05
3.41747e-05
-1.28447e-05
4.00334e-05
-1.14907e-05
4.64418e-05
-9.89862e-06
5.43475e-05
-8.0228e-06
6.28846e-05
-5.8133e-06
7.30733e-05
-3.21264e-06
8.47769e-05
-1.48295e-07
9.81489e-05
3.45838e-06
0.000113369
7.70415e-06
0.000131197
1.26918e-05
0.000151739
1.85469e-05
0.00017522
2.54211e-05
0.00020229
3.34575e-05
0.000233319
4.28338e-05
0.000268422
5.37373e-05
0.000307383
6.63503e-05
0.000350315
8.08432e-05
0.000395744
9.73229e-05
0.000441363
0.000115746
0.000483141
0.000135792
0.000514271
0.000156658
0.000524014
0.00017674
0.000496277
0.000193369
0.00041274
0.00025185
0.000201974
-1.70824e-05
1.51561e-05
1.74877e-05
-1.65935e-05
1.77383e-05
-1.60082e-05
2.07664e-05
-1.53238e-05
2.43175e-05
-1.45132e-05
2.84128e-05
-1.35663e-05
3.32275e-05
-1.24516e-05
3.89224e-05
-1.11426e-05
4.51328e-05
-9.60459e-06
5.28114e-05
-7.79357e-06
6.10736e-05
-5.66193e-06
7.09425e-05
-3.15268e-06
8.2269e-05
-1.98573e-07
9.51954e-05
3.28344e-06
0.000109892
7.37072e-06
0.000127108
1.21779e-05
0.000146938
1.78281e-05
0.000169588
2.44435e-05
0.00019567
3.21896e-05
0.000225587
4.12238e-05
0.000259398
5.17309e-05
0.000296887
6.38872e-05
0.000338166
7.78623e-05
0.000381783
9.37623e-05
0.000425485
0.000111549
0.000465381
0.000130913
0.000494927
0.000151076
0.000503871
0.000170475
0.000476865
0.000186529
0.000396733
0.000243256
0.000194836
-1.65036e-05
1.47484e-05
1.69116e-05
-1.60317e-05
1.7259e-05
-1.54684e-05
2.02031e-05
-1.48117e-05
2.36558e-05
-1.40352e-05
2.76352e-05
-1.31246e-05
3.23145e-05
-1.20533e-05
3.78511e-05
-1.0792e-05
4.38709e-05
-9.30997e-06
5.13308e-05
-7.56476e-06
5.93278e-05
-5.50964e-06
6.88883e-05
-3.09119e-06
7.98506e-05
-2.41628e-07
9.23475e-05
3.11052e-06
0.000106538
7.05704e-06
0.00012317
1.16906e-05
0.000142309
1.71267e-05
0.000164147
2.35116e-05
0.00018931
3.09719e-05
0.000218132
3.96776e-05
0.000250696
4.98023e-05
0.000286756
6.15201e-05
0.000326432
7.49972e-05
0.000368285
9.03404e-05
0.000410119
0.000107516
0.000448187
0.000126226
0.000476208
0.000145714
0.000484386
0.000164456
0.000458139
0.00017995
0.000381286
0.000235302
0.000187978
-1.59812e-05
1.43558e-05
1.63797e-05
-1.5519e-05
1.67984e-05
-1.49699e-05
1.96626e-05
-1.43311e-05
2.30215e-05
-1.35778e-05
2.68899e-05
-1.26987e-05
3.14385e-05
-1.16653e-05
3.68223e-05
-1.04509e-05
4.26574e-05
-9.02369e-06
4.99052e-05
-7.34188e-06
5.76458e-05
-5.36151e-06
6.69082e-05
-3.02938e-06
7.75192e-05
-2.83324e-07
8.96013e-05
2.95373e-06
0.000103306
6.75252e-06
0.000119369
1.12178e-05
0.000137849
1.64668e-05
0.000158917
2.26096e-05
0.000183161
2.98015e-05
0.000210954
3.81908e-05
0.00024232
4.79477e-05
0.000277007
5.92442e-05
0.000315146
7.2243e-05
0.000355299
8.70533e-05
0.000395336
0.000103643
0.000431625
0.000121725
0.000458147
0.000140564
0.00046557
0.000158672
0.000440018
0.000173627
0.000366382
0.000227279
0.000181382
-1.54482e-05
1.39764e-05
1.58296e-05
-1.50089e-05
1.63524e-05
-1.44843e-05
1.91384e-05
-1.38726e-05
2.24058e-05
-1.31499e-05
2.61664e-05
-1.23021e-05
3.05889e-05
-1.13055e-05
3.58255e-05
-1.01319e-05
4.14832e-05
-8.75327e-06
4.85273e-05
-7.12991e-06
5.60214e-05
-5.21854e-06
6.4997e-05
-2.96921e-06
7.52695e-05
-3.19218e-07
8.69523e-05
2.79791e-06
0.000100187
6.46601e-06
0.000115709
1.0771e-05
0.000133548
1.58214e-05
0.000153864
2.17506e-05
0.000177257
2.86788e-05
0.000204033
3.67622e-05
0.000234238
4.61662e-05
0.000267596
5.70571e-05
0.000304237
6.95971e-05
0.000342735
8.38952e-05
0.000381013
9.99233e-05
0.000415575
0.000117404
0.000440654
0.000135619
0.000447352
0.000153116
0.000422531
0.000167546
0.000352001
0.000219849
0.000175044
-1.4965e-05
1.36102e-05
1.53322e-05
-1.45362e-05
1.59226e-05
-1.40253e-05
1.8634e-05
-1.3431e-05
2.18139e-05
-1.27295e-05
2.5471e-05
-1.19107e-05
2.97718e-05
-1.09481e-05
3.48659e-05
-9.81701e-06
4.03519e-05
-8.48787e-06
4.71988e-05
-6.92198e-06
5.44547e-05
-5.07871e-06
6.31533e-05
-2.90849e-06
7.30995e-05
-3.53655e-07
8.43971e-05
2.65708e-06
9.71805e-05
6.18755e-06
0.000112175
1.03384e-05
0.000129404
1.52146e-05
0.000149006
2.09192e-05
0.000171545
2.7599e-05
0.000197368
3.53888e-05
0.000226459
4.44535e-05
0.000258542
5.49545e-05
0.000293743
6.70548e-05
0.000330653
8.08627e-05
0.000367234
9.63533e-05
0.000400115
0.000113257
0.000423772
0.000130872