/*--------------------------------*- C++ -*----------------------------------*\
  =========                 |
  \\      /  F ield         | OpenFOAM: The Open Source CFD Toolbox
   \\    /   O peration     | Website:  https://openfoam.org
    \\  /    A nd           | Version:  6.0
     \\/     M anipulation  |
\*---------------------------------------------------------------------------*/
FoamFile
{
    version     2.0;
    format      ascii;
    class       volVectorField;
    location    "4";
    object      U;
}
// * * * * * * * * * * * * * * * * * * * * * * * * * * * * * * * * * * * * * //

dimensions      [0 1 -1 0 0 0 0];

internalField   nonuniform List<vector> 
15500
(
(0.996211 0.0872234 -2.06426e-20)
(0.996225 0.0872216 2.4494e-21)
(0.996238 0.0872399 4.86071e-20)
(0.996248 0.0872557 1.26014e-19)
(0.996256 0.0872715 -2.3647e-19)
(0.996262 0.0872885 -4.42288e-20)
(0.996266 0.0873087 3.34145e-19)
(0.996266 0.0873323 2.50213e-20)
(0.996265 0.0873619 1.08276e-20)
(0.996261 0.0873964 -2.64508e-19)
(0.996254 0.0874378 7.12791e-19)
(0.996244 0.0874848 -5.24031e-19)
(0.996232 0.0875504 -3.81973e-20)
(0.996216 0.087635 -5.10343e-19)
(0.996195 0.0877339 3.22904e-19)
(0.996162 0.087842 -5.13242e-19)
(0.996113 0.0879582 1.24367e-18)
(0.996037 0.0880741 -1.68642e-18)
(0.995921 0.0881774 7.28419e-19)
(0.99575 0.0882397 -2.5785e-18)
(0.995507 0.0882075 3.17457e-18)
(0.995173 0.0879995 8.9337e-19)
(0.994731 0.0875105 -6.03147e-19)
(0.994178 0.0866242 -8.22239e-18)
(0.99355 0.0852447 1.51366e-17)
(0.992948 0.0833423 7.26188e-18)
(0.992565 0.0809562 -5.912e-18)
(0.992672 0.0781663 -6.70095e-18)
(0.99354 0.0751517 -8.70655e-18)
(0.984208 0.0621918 9.35708e-18)
(0.99608 0.0897174 -2.40247e-20)
(0.996109 0.0896441 7.92089e-20)
(0.99614 0.0895981 -2.34373e-20)
(0.996171 0.0895543 8.37818e-20)
(0.996201 0.0895083 -2.78723e-19)
(0.996229 0.0894597 -2.10872e-19)
(0.996253 0.089415 5.81884e-20)
(0.996273 0.0893709 -3.04468e-19)
(0.996288 0.0893377 5.52979e-19)
(0.996297 0.0893073 -1.91734e-19)
(0.996299 0.0892925 1.74089e-19)
(0.996291 0.0892864 3.38218e-19)
(0.996267 0.0893253 -1.53485e-19)
(0.996217 0.089393 8.74312e-20)
(0.996149 0.0894703 -1.19301e-19)
(0.996051 0.0895307 -3.58624e-19)
(0.995912 0.0895546 8.89596e-19)
(0.995709 0.0895135 -1.20428e-19)
(0.995412 0.0893799 1.78946e-18)
(0.99499 0.0890956 3.55085e-18)
(0.994414 0.0885522 -2.99144e-18)
(0.993661 0.0875974 1.87174e-18)
(0.992718 0.0860633 -3.24369e-18)
(0.991613 0.0838 -1.07303e-18)
(0.990441 0.0807236 -1.06768e-17)
(0.989408 0.0768639 -9.89179e-20)
(0.988872 0.0722943 1.05054e-18)
(0.989255 0.0671111 1.98849e-18)
(0.990868 0.0616304 2.16601e-17)
(0.980574 0.0416887 1.21363e-18)
(0.995766 0.0920409 6.4038e-20)
(0.995783 0.0919486 -6.14788e-20)
(0.995812 0.0918493 -3.74724e-20)
(0.995845 0.0917591 -1.14141e-19)
(0.995884 0.0916611 2.28038e-19)
(0.995925 0.0915578 -3.24552e-19)
(0.995967 0.091454 2.0041e-19)
(0.996007 0.0913446 1.52879e-19)
(0.996044 0.0912406 -8.89417e-20)
(0.996076 0.0911288 -2.96417e-19)
(0.9961 0.091026 1.1275e-19)
(0.996112 0.0909201 4.18968e-19)
(0.996098 0.0908547 -2.12398e-19)
(0.996037 0.0908025 2.34489e-19)
(0.995948 0.090738 -5.07039e-19)
(0.995824 0.0906268 7.7466e-19)
(0.995656 0.090436 -1.29285e-18)
(0.995421 0.0901315 1.05038e-18)
(0.995088 0.0896832 -2.13131e-18)
(0.994627 0.0890317 1.58427e-18)
(0.994012 0.088067 1.70186e-18)
(0.993226 0.0866389 -2.26274e-18)
(0.992265 0.0845929 5.52128e-18)
(0.991163 0.0818064 -6.15135e-19)
(0.990015 0.0782299 -7.26167e-18)
(0.989025 0.0739183 -9.68972e-18)
(0.988567 0.0689353 -1.54358e-17)
(0.989048 0.0633494 5.0585e-18)
(0.990728 0.0578775 -1.55358e-17)
(0.984205 0.0404493 -1.46845e-17)
(0.995304 0.0935928 -2.25943e-20)
(0.995301 0.0935078 9.63871e-20)
(0.995318 0.0933913 -4.33467e-20)
(0.995344 0.0932892 -3.33817e-20)
(0.995382 0.0931758 -8.20045e-20)
(0.995427 0.0930536 -2.67152e-19)
(0.995478 0.0929253 2.03827e-19)
(0.995533 0.0927849 1.79539e-19)
(0.995588 0.0926421 -9.0159e-20)
(0.99564 0.0924816 1.38614e-19)
(0.995687 0.0923203 -6.6414e-20)
(0.995723 0.0921434 4.80581e-20)
(0.995724 0.091994 -4.57101e-20)
(0.995661 0.0918372 1.76923e-21)
(0.99556 0.091647 -6.61061e-19)
(0.995425 0.0913881 1.39856e-18)
(0.995249 0.0910203 -1.2778e-18)
(0.995014 0.0905081 4.62306e-19)
(0.994693 0.0898232 2.11446e-18)
(0.994259 0.0889121 -2.12325e-18)
(0.993694 0.0876735 -9.16221e-19)
(0.992986 0.0859712 2.81937e-18)
(0.992134 0.083671 -2.30698e-18)
(0.991164 0.080674 -1.70881e-18)
(0.99016 0.0769493 2.10383e-17)
(0.989297 0.0725541 8.54944e-18)
(0.98894 0.067538 9.38538e-18)
(0.989469 0.0619458 -5.50245e-18)
(0.990997 0.0568491 6.01545e-18)
(0.987875 0.0416438 5.96024e-18)
(0.994789 0.0946602 -1.57342e-20)
(0.994759 0.0945918 -6.00017e-20)
(0.994757 0.0944697 5.53372e-20)
(0.994769 0.0943617 2.57343e-19)
(0.994796 0.0942397 -2.79479e-19)
(0.994836 0.094108 -3.4962e-20)
(0.994887 0.0939688 1.62863e-19)
(0.994946 0.0938154 -3.94563e-19)
(0.99501 0.0936556 -2.89961e-19)
(0.995073 0.0934716 8.1704e-19)
(0.995135 0.093279 -4.62249e-19)
(0.995187 0.0930598 6.09212e-19)
(0.995199 0.092854 -3.46042e-19)
(0.995134 0.0926195 4.25826e-19)
(0.99502 0.0923331 -7.43013e-20)
(0.994874 0.0919607 -7.56657e-20)
(0.99469 0.091457 2.84838e-19)
(0.994454 0.0907877 -6.52625e-19)
(0.994144 0.0899271 -1.92203e-18)
(0.993739 0.0888267 7.59357e-19)
(0.993223 0.0873949 -1.29044e-18)
(0.992593 0.0855094 -1.40191e-18)
(0.991847 0.0830525 -3.576e-19)
(0.991011 0.0799422 1.49186e-17)
(0.990155 0.0761573 -6.63529e-18)
(0.98943 0.0717498 -1.55497e-17)
(0.989185 0.0667533 -8.44198e-18)
(0.989775 0.0611873 3.23275e-18)
(0.991119 0.0563491 -2.48562e-17)
(0.99048 0.0424303 -3.30256e-18)
(0.994326 0.0953272 3.17919e-20)
(0.994261 0.0952667 3.7959e-21)
(0.994229 0.0951596 -8.2655e-20)
(0.994214 0.0950666 -3.06864e-20)
(0.994218 0.094958 -9.9119e-21)
(0.994238 0.094837 5.1708e-19)
(0.994274 0.0947044 -2.63787e-19)
(0.994322 0.0945536 -1.47632e-20)
(0.994379 0.094391 -1.01273e-20)
(0.99444 0.0941985 -4.51098e-20)
(0.994502 0.0939899 -2.46194e-19)
(0.994557 0.0937464 1.99716e-19)
(0.994571 0.0935027 9.39073e-19)
(0.994497 0.0932105 8.44198e-20)
(0.994368 0.092851 -1.70411e-19)
(0.994208 0.0923915 -6.72517e-19)
(0.994013 0.0917845 7.8092e-19)
(0.99377 0.0909967 -4.37001e-19)
(0.993465 0.0900038 1.0157e-18)
(0.993078 0.0887637 -1.70812e-19)
(0.9926 0.0871929 2.20931e-18)
(0.992031 0.0851813 -6.41563e-19)
(0.991373 0.0826247 -2.62164e-18)
(0.990652 0.0794524 -1.44205e-17)
(0.989928 0.075646 -6.46373e-18)
(0.989336 0.071247 1.33435e-17)
(0.989207 0.0662714 2.30928e-18)
(0.989881 0.0607155 1.16954e-17)
(0.991069 0.056025 2.99853e-17)
(0.992181 0.0429228 8.33136e-18)
(0.993916 0.0958691 -2.19156e-21)
(0.993812 0.0958244 -4.60475e-20)
(0.993746 0.0957174 -1.53883e-20)
(0.993698 0.0956223 4.28712e-20)
(0.99367 0.0955108 -8.39606e-20)
(0.993661 0.095387 -8.24763e-20)
(0.993671 0.0952525 1.46678e-19)
(0.993695 0.0951005 3.12764e-19)
(0.993733 0.0949361 -2.96104e-19)
(0.993777 0.0947394 3.55803e-19)
(0.993824 0.0945223 -7.22859e-19)
(0.993869 0.0942643 1.83503e-19)
(0.993875 0.0939951 -3.41191e-19)
(0.993786 0.093661 6.05766e-19)
(0.993637 0.0932474 -1.89979e-19)
(0.993458 0.0927239 -1.10889e-19)
(0.993246 0.0920414 4.34191e-19)
(0.992992 0.091167 -8.54376e-19)
(0.992682 0.090079 7.60652e-19)
(0.992302 0.0887385 2.18939e-19)
(0.991846 0.08707 -1.86145e-18)
(0.991318 0.0849725 -9.94152e-19)
(0.990725 0.0823514 2.16797e-18)
(0.990092 0.0791417 4.13314e-18)
(0.989476 0.0753238 3.90472e-18)
(0.989004 0.0709255 -1.90906e-18)
(0.988988 0.0659469 7.24291e-18)
(0.989765 0.0603649 -9.22357e-18)
(0.990849 0.0557309 -1.67814e-17)
(0.99321 0.0431522 -2.04653e-18)
(0.993545 0.0962102 -1.09087e-20)
(0.993402 0.0961704 3.86762e-20)
(0.993299 0.0960799 4.9081e-20)
(0.993213 0.0960018 -4.62266e-20)
(0.993149 0.0959059 -1.2342e-19)
(0.993104 0.0957944 3.76972e-22)
(0.99308 0.0956683 3.44055e-19)
(0.993072 0.095521 -4.98391e-19)
(0.99308 0.0953577 3.08836e-19)
(0.993097 0.095159 4.61772e-19)
(0.99312 0.0949357 -6.85432e-19)
(0.993144 0.0946678 -1.08443e-19)
(0.993133 0.0943807 -1.08117e-19)
(0.993023 0.0940157 1.46721e-19)
(0.992851 0.0935628 -6.4755e-19)
(0.99265 0.0929934 6.82884e-19)
(0.992416 0.0922577 1.74268e-19)
(0.992144 0.0913226 -6.03701e-19)
(0.99182 0.0901672 8.79535e-20)
(0.991434 0.0887565 1.71509e-19)
(0.990984 0.0870196 1.23122e-18)
(0.990475 0.0848629 -1.47466e-18)
(0.989921 0.0821974 1.79908e-18)
(0.989348 0.0789598 5.88761e-18)
(0.988815 0.0751254 -1.72552e-18)
(0.988444 0.0707063 -1.23326e-17)
(0.98854 0.0656899 -5.94459e-18)
(0.989439 0.0600385 3.41379e-18)
(0.99048 0.0553899 3.25056e-18)
(0.993765 0.0431556 2.31118e-18)
(0.993183 0.0965756 2.01914e-20)
(0.993 0.0965481 -1.25331e-20)
(0.992861 0.0964534 5.42866e-20)
(0.992739 0.0963695 9.32211e-21)
(0.992636 0.0962673 1.00647e-19)
(0.992554 0.0961501 -2.60317e-19)
(0.992492 0.0960194 2.0196e-19)
(0.992448 0.095869 6.63128e-20)
(0.992421 0.095703 -2.65279e-19)
(0.992404 0.0955013 3.06166e-20)
(0.992397 0.095273 5.44522e-19)
(0.992393 0.094998 -4.97477e-19)
(0.992359 0.0946978 3.62891e-19)
(0.992226 0.0943104 -2.11956e-19)
(0.992028 0.0938296 -7.37191e-20)
(0.991801 0.0932286 3.31616e-19)
(0.991542 0.0924557 5.80515e-19)
(0.991245 0.0914787 6.95146e-19)
(0.990899 0.0902779 -4.55409e-19)
(0.990496 0.0888189 -1.15512e-18)
(0.990036 0.0870346 -1.43257e-18)
(0.989528 0.0848361 -1.31665e-18)
(0.988989 0.0821363 -1.10049e-18)
(0.988452 0.078871 2.35564e-18)
(0.987978 0.0750074 1.33754e-18)
(0.987692 0.070543 2.4415e-18)
(0.987896 0.065454 3.07164e-18)
(0.988933 0.0596958 -4.55144e-18)
(0.989986 0.054981 5.04544e-18)
(0.993997 0.0429677 -2.18284e-18)
(0.992832 0.0968135 -3.33552e-20)
(0.992611 0.0967802 7.06261e-20)
(0.992435 0.0966971 -2.63246e-20)
(0.992274 0.0966276 -9.14266e-21)
(0.992132 0.0965395 7.07891e-20)
(0.992009 0.0964335 -1.84377e-19)
(0.991907 0.0963104 1.93128e-19)
(0.991823 0.0961643 1.64413e-19)
(0.991756 0.0959992 -2.40717e-19)
(0.991702 0.0957966 9.6431e-20)
(0.991658 0.0955646 3.41547e-19)
(0.991622 0.0952849 -5.92624e-19)
(0.991562 0.0949758 -1.29997e-19)
(0.991405 0.0945724 1.27927e-19)
(0.99118 0.0940724 6.66779e-20)
(0.990927 0.0934492 5.19564e-20)
(0.990639 0.0926517 -3.42194e-19)
(0.990312 0.0916474 -6.72182e-19)
(0.989938 0.0904155 6.09686e-19)
(0.989508 0.0889233 1.40048e-19)
(0.989024 0.0871054 2.59599e-18)
(0.988501 0.0848749 -4.13797e-19)
(0.987957 0.082145 -8.83215e-19)
(0.987434 0.0788476 -6.11074e-18)
(0.986998 0.0749404 -8.43726e-19)
(0.986783 0.0704063 8.0362e-19)
(0.987092 0.0652125 -3.23902e-18)
(0.98828 0.0593144 6.80383e-18)
(0.989397 0.0544974 5.75176e-18)
(0.99401 0.042628 -1.81715e-18)
(0.992488 0.0971262 -2.10713e-20)
(0.992229 0.0970978 1.39837e-20)
(0.992017 0.0970058 9.73416e-20)
(0.991817 0.0969265 -1.32248e-19)
(0.991634 0.0968297 1.70238e-19)
(0.991471 0.0967165 -3.24623e-20)
(0.991326 0.0965883 -8.22911e-20)
(0.991199 0.0964391 -2.54548e-19)
(0.99109 0.0962723 1.40887e-19)
(0.990994 0.0960683 1.1051e-19)
(0.990909 0.0958339 -2.51234e-21)
(0.990837 0.0955509 7.18801e-20)
(0.990748 0.0952357 -4.61633e-19)
(0.990566 0.0948217 2.4832e-19)
(0.990316 0.0943084 1.08272e-19)
(0.990035 0.0936708 -2.76757e-20)
(0.989717 0.092857 5.46411e-19)
(0.989357 0.0918344 -1.45401e-20)
(0.988948 0.0905827 -6.7011e-19)
(0.988482 0.0890673 -4.39318e-19)
(0.987965 0.0872243 -4.5309e-19)
(0.987412 0.0849668 5.83028e-19)
(0.986849 0.0822066 -1.04887e-19)
(0.986321 0.0788691 -1.02943e-18)
(0.985907 0.0749025 -4.86115e-18)
(0.98575 0.0702759 -9.34527e-19)
(0.986162 0.0649506 8.76101e-18)
(0.987513 0.0588865 -5.10908e-18)
(0.988736 0.0539428 9.40995e-19)
(0.993879 0.0421563 1.17684e-18)
(0.992151 0.0973308 1.17719e-20)
(0.991854 0.097296 -3.00599e-20)
(0.991605 0.0972161 -1.50128e-20)
(0.991365 0.0971524 1.33105e-19)
(0.991141 0.0970706 -4.61248e-20)
(0.990934 0.0969696 -1.93156e-19)
(0.990745 0.0968495 1.35874e-19)
(0.990573 0.0967049 -2.92643e-19)
(0.990418 0.0965397 6.34216e-20)
(0.990278 0.0963353 7.18011e-20)
(0.990151 0.0960983 9.61227e-20)
(0.990041 0.0958128 -3.56865e-19)
(0.989922 0.0954936 7.09276e-19)
(0.989716 0.0950723 -1.99627e-19)
(0.989441 0.0945501 -8.09946e-19)
(0.989133 0.0939029 5.48906e-19)
(0.988782 0.0930795 -1.33596e-19)
(0.988387 0.0920454 -4.09324e-19)
(0.987938 0.0907794 -3.11269e-19)
(0.987431 0.0892469 2.23323e-19)
(0.986872 0.0873826 -2.10188e-19)
(0.986278 0.0850995 -6.83075e-20)
(0.985681 0.0823055 2.63718e-18)
(0.985134 0.0789191 2.79045e-18)
(0.984728 0.0748779 4.07075e-19)
(0.984621 0.0701378 -1.84645e-18)
(0.985134 0.0646575 -2.23085e-18)
(0.98666 0.058405 1.70221e-18)
(0.988026 0.0533181 -2.25465e-18)
(0.993651 0.0415771 1.13281e-20)
(0.991798 0.0976491 -9.46835e-21)
(0.991464 0.0976207 -6.3886e-21)
(0.991178 0.0975298 1.50044e-20)
(0.990901 0.0974546 -3.66191e-20)
(0.990637 0.0973626 1.89615e-20)
(0.990388 0.097253 6.88894e-20)
(0.990155 0.097127 5.0843e-20)
(0.989938 0.0969789 -8.29646e-20)
(0.989739 0.0968118 1.84834e-19)
(0.989553 0.0966062 -2.54146e-19)
(0.989383 0.0963675 2.2562e-19)
(0.989234 0.0960804 -3.40581e-19)
(0.989086 0.095759 2.53997e-19)
(0.988857 0.0953336 -3.91077e-19)
(0.988558 0.094806 5.08036e-19)
(0.988222 0.0941538 1.90299e-19)
(0.98784 0.0933234 -7.98764e-19)
(0.987406 0.0922815 8.70763e-19)
(0.986914 0.0910059 -2.13942e-19)
(0.986361 0.0894592 -8.24008e-19)
(0.985752 0.087575 1.22935e-19)
(0.985109 0.0852649 4.78232e-19)
(0.984468 0.0824314 -1.19408e-18)
(0.983891 0.0789857 -1.74237e-18)
(0.983482 0.0748539 3.45348e-18)
(0.983418 0.0699816 3.32888e-18)
(0.984033 0.064326 -2.11443e-18)
(0.985742 0.0578684 1.66338e-18)
(0.987282 0.0526273 -1.15905e-18)
(0.993363 0.0409019 -1.92604e-18)
(0.991442 0.0978696 -5.47668e-21)
(0.991071 0.0978282 5.4891e-21)
(0.990749 0.0977461 -1.6212e-21)
(0.990432 0.0976848 8.9267e-21)
(0.990127 0.0976071 -5.79748e-20)
(0.989836 0.0975099 3.71737e-20)
(0.98956 0.0973929 -9.84612e-20)
(0.989297 0.0972508 1.84772e-19)
(0.989052 0.0970871 -1.55033e-19)
(0.988821 0.0968835 3.93849e-20)
(0.988607 0.0966452 1.97405e-19)
(0.988419 0.096359 1.89072e-20)
(0.988242 0.0960379 -2.05365e-20)
(0.987991 0.0956114 -2.33504e-19)
(0.98767 0.0950816 8.93584e-20)
(0.987307 0.0944259 -2.4774e-19)
(0.986892 0.0935919 5.3831e-19)
(0.986419 0.0925451 2.27872e-19)
(0.985882 0.0912607 -9.81087e-20)
(0.985277 0.0897004 6.04445e-19)
(0.984613 0.0877956 8.87138e-19)
(0.983913 0.0854546 -1.08055e-18)
(0.983219 0.0825748 -2.37016e-18)
(0.982603 0.0790588 5.26894e-19)
(0.982182 0.0748217 -8.49317e-19)
(0.982156 0.0697991 -7.46586e-19)
(0.982874 0.0639496 1.89498e-18)
(0.984777 0.0572719 -9.82682e-19)
(0.98652 0.0518697 -1.00023e-18)
(0.993033 0.0401433 -3.50386e-18)
(0.991087 0.0982056 5.43564e-21)
(0.990678 0.0981654 1.14817e-20)
(0.99032 0.0980694 -4.72691e-22)
(0.989965 0.0979947 1.13951e-20)
(0.98962 0.0979062 -7.77842e-20)
(0.989286 0.097801 6.09152e-20)
(0.988965 0.0976796 1.03768e-19)
(0.988656 0.0975366 -1.19609e-19)
(0.988364 0.0973743 -1.90678e-20)
(0.988086 0.0971732 -6.19372e-20)
(0.987827 0.0969372 2.28181e-19)
(0.987599 0.0966534 -8.62763e-20)
(0.987392 0.0963348 -1.01632e-19)
(0.987121 0.0959098 -2.59931e-20)
(0.986778 0.0953795 1.78316e-19)
(0.986389 0.0947228 5.77717e-20)
(0.98594 0.0938862 -1.19544e-19)
(0.985426 0.092835 -1.67297e-20)
(0.984842 0.0915433 -1.03267e-19)
(0.984181 0.0899688 -2.62914e-19)
(0.983457 0.088041 -6.02918e-19)
(0.982694 0.085664 9.68119e-19)
(0.98194 0.08273 9.69893e-19)
(0.981277 0.0791315 1.37262e-19)
(0.98084 0.0747738 1.05435e-18)
(0.980848 0.0695839 -5.14255e-19)
(0.981671 0.0635244 -1.04836e-18)
(0.983779 0.056614 -8.50419e-20)
(0.985749 0.0510468 5.43073e-18)
(0.992685 0.0393089 5.7904e-18)
(0.990738 0.098439 -1.60543e-21)
(0.990291 0.0983877 4.75548e-21)
(0.989896 0.0983026 1.94482e-22)
(0.989502 0.0982442 -4.95477e-20)
(0.989115 0.0981718 -3.71057e-22)
(0.988737 0.0980806 5.4173e-20)
(0.98837 0.0979699 -6.77891e-20)
(0.988015 0.0978346 1.01919e-19)
(0.987675 0.097678 4.14111e-20)
(0.987349 0.0974813 4.1318e-22)
(0.987044 0.0972482 -1.63804e-19)
(0.986775 0.0969679 7.75347e-20)
(0.986538 0.0966533 2.08708e-19)
(0.986247 0.0962315 -1.49413e-19)
(0.985883 0.0957021 1.01005e-19)
(0.985468 0.0950452 -1.21613e-19)
(0.984984 0.0942078 1.00184e-19)
(0.984429 0.0931527 -8.04148e-20)
(0.983793 0.0918521 3.56929e-19)
(0.983075 0.0902615 1.46871e-19)
(0.982286 0.0883067 4.99406e-19)
(0.981455 0.0858882 -4.80191e-19)
(0.980636 0.0828909 -8.90085e-19)
(0.979919 0.0791981 4.10943e-19)
(0.97946 0.0747048 -1.42628e-18)
(0.979501 0.0693304 9.26488e-19)
(0.980434 0.063045 -2.14299e-19)
(0.982759 0.0558902 -1.69316e-18)
(0.98498 0.050156 -6.89244e-19)
(0.992326 0.0384021 3.24235e-18)
(0.990373 0.0988078 2.47899e-21)
(0.989889 0.0987612 1.4862e-21)
(0.989459 0.0986619 -1.83821e-20)
(0.989027 0.09859 4.97808e-21)
(0.988599 0.0985068 4.02614e-21)
(0.98818 0.0984075 1.32508e-21)
(0.987769 0.0982925 -1.03911e-20)
(0.987368 0.0981567 8.30148e-20)
(0.986981 0.0980024 -1.21841e-19)
(0.986608 0.0978093 9.81321e-20)
(0.986257 0.0975801 -1.31622e-20)
(0.985947 0.0973044 -6.21969e-20)
(0.985681 0.0969952 6.8643e-20)
(0.98537 0.0965782 -1.0148e-19)
(0.984985 0.0960509 2.41703e-20)
(0.984542 0.0953956 -6.19107e-20)
(0.984024 0.0945563 1.54726e-19)
(0.983426 0.0934965 1.32662e-19)
(0.982737 0.0921868 1.7785e-19)
(0.981959 0.0905777 -1.03956e-19)
(0.981101 0.0885916 -3.36739e-19)
(0.980197 0.0861252 -1.4582e-19)
(0.979306 0.0830547 3.68613e-19)
(0.978532 0.0792549 4.65238e-19)
(0.978047 0.0746101 3.68466e-19)
(0.978122 0.0690349 -9.09183e-19)
(0.97917 0.062508 1.89218e-19)
(0.981724 0.0550989 2.62117e-18)
(0.984217 0.0491974 -6.54126e-18)
(0.99199 0.0374354 -4.1031e-18)
(0.990007 0.0990764 6.54816e-22)
(0.989486 0.0990143 -7.03433e-21)
(0.989019 0.0989238 -4.40054e-21)
(0.988549 0.0988672 1.23445e-20)
(0.988082 0.0988 -2.23283e-20)
(0.98762 0.0987153 1.41968e-20)
(0.987165 0.0986121 -2.85983e-20)
(0.986718 0.098486 -1.18802e-20)
(0.986284 0.0983398 7.00894e-21)
(0.985865 0.0981539 2.03947e-20)
(0.985467 0.0979312 -2.52646e-21)
(0.985117 0.0976626 2.08873e-20)
(0.984821 0.0973611 1.37441e-20)
(0.98449 0.0969508 9.73893e-20)
(0.984084 0.096427 -2.49881e-20)
(0.983614 0.0957726 3.41063e-20)
(0.98306 0.0949322 -1.72161e-19)
(0.982416 0.0938675 -7.23963e-20)
(0.981674 0.0925459 -1.50298e-19)
(0.980831 0.0909151 3.08459e-20)
(0.9799 0.0888933 1.98574e-19)
(0.97892 0.0863713 -6.93047e-20)
(0.977952 0.083218 1.06836e-19)
(0.977116 0.0792983 -1.53474e-19)
(0.976603 0.0744862 -1.8555e-19)
(0.976712 0.0686929 6.62963e-20)
(0.977883 0.0619087 1.29558e-18)
(0.980681 0.0542352 1.14628e-18)
(0.983469 0.0481676 -2.39331e-18)
(0.991654 0.0364025 -1.08135e-18)
(0.989644 0.0994706 3.30675e-22)
(0.989086 0.099409 -4.34941e-21)
(0.988584 0.099303 7.54884e-21)
(0.988076 0.0992329 -1.12307e-20)
(0.987568 0.0991561 1.43679e-20)
(0.987064 0.0990653 1.16682e-20)
(0.986566 0.0989604 -1.41338e-20)
(0.986072 0.0988372 5.81653e-21)
(0.98559 0.0986972 -2.48681e-20)
(0.985122 0.0985191 8.32775e-21)
(0.984678 0.0983045 -4.44859e-21)
(0.984286 0.0980445 -3.79344e-20)
(0.98396 0.0977523 8.01617e-21)
(0.983608 0.0973502 3.33408e-20)
(0.983179 0.0968302 -1.32277e-20)
(0.982682 0.0961776 2.1007e-21)
(0.982091 0.0953351 -2.29536e-21)
(0.9814 0.0942641 -7.00921e-21)
(0.9806 0.0929296 6.20867e-20)
(0.979689 0.0912739 1.85208e-20)
(0.978684 0.0892112 9.4765e-21)
(0.977621 0.0866262 -1.37332e-19)
(0.976573 0.0833799 1.19738e-19)
(0.975671 0.0793259 1.34391e-19)
(0.975129 0.0743303 4.60173e-19)
(0.975274 0.0683012 4.96996e-19)
(0.976577 0.0612447 -6.8013e-19)
(0.979634 0.0532971 -3.2873e-18)
(0.982738 0.0470657 1.1481e-17)
(0.991363 0.0353071 1.65104e-18)
(0.98929 0.0997573 1.60601e-22)
(0.988694 0.0996857 -3.93723e-23)
(0.988156 0.0995924 4.90943e-22)
(0.987609 0.0995413 -1.4359e-22)
(0.98706 0.0994834 -3.88303e-22)
(0.986513 0.0994095 -1.78081e-23)
(0.985969 0.0993184 -1.1163e-21)
(0.985427 0.0992068 -1.35563e-22)
(0.984897 0.0990773 -2.00975e-21)
(0.98438 0.0989087 -1.85001e-21)
(0.983888 0.0987028 7.59842e-21)
(0.983454 0.0984522 5.59473e-21)
(0.983097 0.0981703 8.22662e-21)
(0.982723 0.0977774 -1.74232e-20)
(0.982271 0.0972612 -2.56662e-20)
(0.981744 0.0966099 1.56207e-20)
(0.981114 0.0957659 -2.15149e-20)
(0.980374 0.0946874 6.70529e-20)
(0.979515 0.0933369 -9.12833e-20)
(0.978533 0.0916528 5.5482e-20)
(0.977448 0.0895434 1.7734e-19)
(0.976299 0.0868878 1.91877e-19)
(0.975166 0.0835375 -1.34646e-19)
(0.974195 0.0793358 1.26902e-18)
(0.973622 0.0741396 -1.56838e-18)
(0.973809 0.0678562 -1.0147e-18)
(0.975254 0.0605108 -1.97935e-18)
(0.978587 0.0522798 1.02441e-18)
(0.982033 0.0458872 -1.41565e-17)
(0.991071 0.0341547 5.5232e-18)
(0.988917 0.100187 3.60021e-22)
(0.988285 0.100122 4.44448e-21)
(0.987712 0.100015 -1.90769e-21)
(0.987128 0.099952 -1.14875e-20)
(0.98654 0.0998858 1.5154e-20)
(0.985952 0.0998066 2.91889e-23)
(0.985364 0.0997147 -7.2901e-22)
(0.984778 0.0996065 -3.37455e-21)
(0.9842 0.099484 -2.71666e-22)
(0.983635 0.0993239 1.12881e-21)
(0.983095 0.0991272 -7.4187e-21)
(0.982619 0.0988865 -3.94791e-20)
(0.982231 0.0986158 4.72124e-20)
(0.981835 0.0982326 -1.8497e-20)
(0.981358 0.0977206 3.77644e-20)
(0.980799 0.0970715 2.15957e-20)
(0.980129 0.0962238 -3.04068e-20)
(0.979338 0.0951362 -1.22384e-19)
(0.978415 0.0937684 1.65428e-19)
(0.977361 0.0920522 -5.1628e-19)
(0.976191 0.0898906 -4.06012e-19)
(0.974952 0.0871567 1.96504e-19)
(0.97373 0.0836908 2.63849e-19)
(0.972686 0.0793265 -2.04591e-18)
(0.972083 0.0739115 1.80909e-18)
(0.972315 0.0673553 1.14983e-18)
(0.973914 0.0597044 1.10197e-18)
(0.977544 0.0511808 -1.18981e-18)
(0.981355 0.044632 1.22788e-17)
(0.990799 0.0329411 -1.17195e-17)
(0.988539 0.100511 9.95716e-22)
(0.98787 0.100435 8.20106e-21)
(0.987262 0.10034 6.44922e-23)
(0.986642 0.100296 -1.30932e-20)
(0.986014 0.10025 7.5429e-21)
(0.985385 0.100189 -2.90596e-20)
(0.984754 0.100112 4.56379e-20)
(0.984122 0.100017 -1.47564e-20)
(0.983498 0.0999074 -4.17413e-20)
(0.982885 0.0997592 8.87999e-20)
(0.982298 0.0995741 -5.4826e-22)
(0.981779 0.0993458 1.64732e-20)
(0.98136 0.099088 -3.62011e-20)
(0.98094 0.0987159 7.47617e-21)
(0.980438 0.0982087 -3.15128e-20)
(0.979847 0.0975605 1.94589e-19)
(0.979134 0.0967092 -3.94267e-20)
(0.978289 0.0956116 1.5368e-19)
(0.977302 0.0942232 -1.07888e-19)
(0.976169 0.0924711 -1.41027e-19)
(0.97491 0.090252 4.69528e-19)
(0.973576 0.0874309 5.7831e-19)
(0.97226 0.0838382 -1.08307e-18)
(0.971142 0.0792961 1.74067e-18)
(0.970508 0.0736437 -2.2734e-19)
(0.970792 0.0667944 -1.01797e-18)
(0.972559 0.0588202 -1.05043e-18)
(0.976507 0.0499949 6.80603e-18)
(0.980712 0.0432962 7.23063e-18)
(0.990552 0.0316711 8.82354e-18)
(0.988157 0.100967 -2.462e-21)
(0.987451 0.100894 1.64653e-21)
(0.98681 0.100784 1.14884e-20)
(0.986153 0.100729 -1.50389e-20)
(0.985487 0.100677 2.65029e-20)
(0.984817 0.100613 -4.63609e-20)
(0.984143 0.100539 5.40209e-20)
(0.983466 0.100451 -3.1719e-20)
(0.982794 0.100353 6.4783e-20)
(0.982132 0.100217 -1.33383e-19)
(0.981498 0.100045 6.42216e-20)
(0.980935 0.0998304 -6.47646e-20)
(0.980484 0.0995871 2.77473e-19)
(0.98004 0.0992273 -1.52117e-19)
(0.97951 0.0987249 1.65684e-20)
(0.978885 0.0980777 -9.08991e-20)
(0.978128 0.0972218 1.24448e-19)
(0.977226 0.0961126 -7.90849e-20)
(0.97617 0.0947023 -9.13922e-20)
(0.974954 0.0929106 4.38572e-19)
(0.973604 0.0906284 -8.55177e-19)
(0.972169 0.0877114 -1.24411e-19)
(0.970756 0.08398 1.92156e-18)
(0.969558 0.0792433 -5.9473e-19)
(0.968896 0.0733342 -4.35735e-19)
(0.969239 0.0661707 2.85504e-18)
(0.971189 0.0578557 1.32124e-18)
(0.97548 0.0487192 -2.49962e-17)
(0.980105 0.0418783 2.30939e-18)
(0.990353 0.0303477 -1.3369e-19)
(0.987782 0.101304 1.60228e-21)
(0.987039 0.101225 -4.99755e-21)
(0.986361 0.101132 6.59215e-21)
(0.985666 0.101101 6.53438e-22)
(0.98496 0.101073 -7.85662e-21)
(0.984247 0.10103 -1.86163e-21)
(0.98353 0.100974 -7.56101e-21)
(0.982806 0.100903 6.36756e-20)
(0.982087 0.100819 -1.38571e-19)
(0.981376 0.100699 4.33335e-20)
(0.980693 0.100541 -1.41116e-20)
(0.980086 0.100341 -1.38503e-21)
(0.979602 0.100113 7.29025e-20)
(0.979132 0.0997669 1.49924e-20)
(0.978574 0.0992689 -3.40394e-19)
(0.977912 0.0986226 -7.30579e-20)
(0.977107 0.0977625 -2.50827e-19)
(0.976148 0.0966404 -9.28293e-20)
(0.975019 0.0952053 6.2673e-19)
(0.973717 0.0933704 -4.69994e-19)
(0.972269 0.0910185 3.50949e-19)
(0.970728 0.0879972 -1.59983e-18)
(0.969212 0.0841142 -2.37282e-18)
(0.967933 0.0791665 -1.98208e-18)
(0.967243 0.0729798 -3.28231e-18)
(0.967653 0.0654796 -2.15453e-18)
(0.969805 0.0568047 1.92662e-18)
(0.974464 0.0473485 7.58817e-19)
(0.97954 0.0403742 1.14765e-18)
(0.990196 0.0289723 -1.15003e-17)
(0.98738 0.101795 4.89394e-22)
(0.9866 0.101723 -1.2166e-20)
(0.985889 0.101615 4.22457e-20)
(0.985159 0.101575 -9.10197e-21)
(0.984415 0.101541 3.20057e-20)
(0.983663 0.101497 -6.29839e-20)
(0.982903 0.101445 1.77706e-20)
(0.982135 0.101381 -3.48067e-20)
(0.981369 0.101311 2.68169e-20)
(0.980611 0.101204 9.57547e-20)
(0.97988 0.101061 -1.51618e-19)
(0.979229 0.100877 1.63586e-19)
(0.978712 0.100666 -3.04537e-19)
(0.978215 0.100334 1.38853e-19)
(0.977627 0.099841 1.19115e-19)
(0.976927 0.0991966 4.51117e-19)
(0.976073 0.0983305 3.8931e-19)
(0.975051 0.0971946 -2.54923e-19)
(0.973845 0.0957333 -1.22446e-19)
(0.972454 0.0938517 4.09147e-19)
(0.970901 0.0914241 4.731e-19)
(0.96925 0.0882897 3.84268e-20)
(0.967624 0.0842412 1.45737e-18)
(0.966262 0.0790646 1.2826e-18)
(0.965547 0.072578 4.90562e-18)
(0.966034 0.0647184 -6.10985e-19)
(0.968406 0.0556639 9.40686e-19)
(0.973462 0.045879 3.51018e-17)
(0.979021 0.0387824 -2.08881e-17)
(0.990099 0.0275465 -1.93201e-17)
(0.986972 0.102162 -4.54993e-21)
(0.986155 0.10208 -5.08578e-21)
(0.985409 0.101988 1.33959e-20)
(0.984642 0.101972 -8.5805e-20)
(0.98386 0.101964 1.3226e-19)
(0.983068 0.101943 -8.30427e-20)
(0.982267 0.10191 -4.86804e-20)
(0.981454 0.101866 1.41272e-19)
(0.980643 0.101814 -1.39768e-19)
(0.979837 0.101726 2.43606e-19)
(0.979058 0.101601 -3.09693e-19)
(0.978363 0.101436 -1.17399e-20)
(0.977813 0.101244 2.83226e-19)
(0.977288 0.100928 -6.81492e-20)
(0.976668 0.100441 -2.94628e-20)
(0.975928 0.0997981 -4.69158e-20)
(0.975022 0.0989266 -3.50043e-19)
(0.973935 0.0977761 5.07075e-19)
(0.972649 0.0962864 -8.81196e-19)
(0.971161 0.0943541 -2.9643e-20)
(0.969499 0.091845 -8.20879e-19)
(0.96773 0.0885873 2.47534e-18)
(0.96599 0.0843598 -1.26924e-19)
(0.964541 0.0789354 2.41095e-19)
(0.963803 0.0721256 -5.86534e-19)
(0.964379 0.0638813 -4.2833e-18)
(0.966993 0.0544267 1.25883e-18)
(0.972478 0.0443052 -1.85408e-17)
(0.978553 0.037099 1.85057e-17)
(0.990059 0.0260715 1.21326e-17)
(0.986557 0.102671 -1.76322e-21)
(0.985703 0.10259 5.21035e-21)
(0.984923 0.102482 4.99849e-20)
(0.984121 0.102456 -6.77467e-20)
(0.983301 0.102444 1.67271e-20)
(0.982469 0.102424 4.52713e-21)
(0.981626 0.102399 3.59466e-20)
(0.980769 0.102368 -5.51144e-20)
(0.979911 0.102334 1.11023e-19)
(0.979057 0.102266 4.61205e-20)
(0.97823 0.102162 -9.62627e-20)
(0.977488 0.102017 1.72225e-19)
(0.976904 0.101847 1.12378e-19)
(0.97635 0.101549 -1.05884e-19)
(0.975696 0.101069 1.55787e-19)
(0.974914 0.100427 1.61841e-19)
(0.973954 0.0995503 -6.68718e-19)
(0.972797 0.0983849 2.47734e-19)
(0.971427 0.0968657 -1.2687e-19)
(0.969836 0.0948794 4.28843e-19)
(0.968058 0.0922828 2.55771e-20)
(0.966164 0.0888913 -2.25324e-18)
(0.964305 0.0844702 -3.77196e-19)
(0.962766 0.0787771 5.27893e-19)
(0.962009 0.0716198 -2.00797e-18)
(0.962685 0.0629649 3.29379e-18)
(0.965567 0.0530894 -4.29969e-18)
(0.971515 0.0426228 3.55023e-17)
(0.978141 0.0353211 -1.43373e-17)
(0.990096 0.024548 3.71765e-17)
(0.986154 0.10304 -2.98733e-21)
(0.985261 0.10295 9.72068e-21)
(0.984445 0.102862 -4.16392e-20)
(0.983604 0.102865 -5.89823e-21)
(0.982743 0.102882 9.0242e-20)
(0.981869 0.10289 -2.19542e-20)
(0.980983 0.102889 -1.97717e-20)
(0.980079 0.10288 -2.82283e-20)
(0.979174 0.10287 -1.6834e-20)
(0.97827 0.102824 2.0843e-20)
(0.977393 0.102742 1.73534e-19)
(0.976604 0.102621 5.59595e-21)
(0.975986 0.102475 -2.54022e-19)
(0.9754 0.102196 -4.99047e-20)
(0.97471 0.101723 -2.82655e-19)
(0.973885 0.101085 -2.00183e-19)
(0.972867 0.100203 2.96959e-19)
(0.97164 0.0990226 -7.88112e-20)
(0.970178 0.097472 1.09923e-18)
(0.968478 0.0954283 9.39547e-19)
(0.966577 0.0927367 1.4026e-18)
(0.96455 0.0892012 3.79843e-18)
(0.962565 0.0845705 6.40716e-19)
(0.960934 0.0785877 -3.2545e-18)
(0.96016 0.0710564 5.64432e-18)
(0.960952 0.0619628 1.77249e-19)
(0.964127 0.0516443 5.35435e-19)
(0.970575 0.0408262 -2.43009e-17)
(0.977791 0.0334448 9.82201e-18)
(0.990208 0.0229766 -6.60976e-18)
(0.985723 0.103576 7.08373e-21)
(0.984793 0.10349 3.38189e-21)
(0.983943 0.103384 -4.34905e-20)
(0.983066 0.103376 1.593e-20)
(0.982168 0.103391 1.33321e-20)
(0.981255 0.103401 -3.62588e-20)
(0.980326 0.103409 2.29543e-20)
(0.979378 0.103416 -8.29774e-20)
(0.978426 0.103426 1.11152e-19)
(0.977473 0.103403 1.15471e-19)
(0.976546 0.103345 2.0885e-20)
(0.975709 0.103249 -1.59726e-19)
(0.975055 0.103128 1.01514e-19)
(0.974437 0.102869 -2.9312e-19)
(0.973711 0.102405 3.9722e-19)
(0.97284 0.10177 2.00938e-19)
(0.971765 0.100884 -5.80324e-19)
(0.97046 0.0996895 1.33909e-19)
(0.9689 0.0981085 -3.39025e-19)
(0.967084 0.0960033 -4.24661e-19)
(0.965049 0.093209 -3.40907e-19)
(0.962883 0.0895184 -3.67597e-18)
(0.960765 0.0846606 -9.69191e-19)
(0.959039 0.0783653 5.95161e-19)
(0.958254 0.0704317 -2.52964e-18)
(0.959178 0.0608712 1.08746e-18)
(0.962675 0.0500871 -9.30408e-18)
(0.969664 0.0389104 -1.91124e-17)
(0.977509 0.0314679 -1.62679e-17)
(0.990412 0.0213564 -2.34451e-17)
(0.985285 0.103966 2.5588e-20)
(0.984317 0.103867 -2.65774e-20)
(0.983432 0.103779 3.43944e-20)
(0.982518 0.103801 -1.19377e-20)
(0.981581 0.103847 6.7269e-21)
(0.980628 0.103885 9.42459e-20)
(0.979657 0.10392 6.26875e-24)
(0.978665 0.103953 -3.2382e-19)
(0.977666 0.10399 9.93652e-20)
(0.976664 0.103994 -1.18877e-19)
(0.975687 0.103964 2.59987e-19)
(0.974802 0.103896 -4.56311e-19)
(0.974113 0.103802 -1.45435e-19)
(0.973461 0.103568 -1.58705e-19)
(0.9727 0.103111 2.49111e-19)
(0.971782 0.10248 -5.2376e-19)
(0.970643 0.101594 6.91989e-19)
(0.969254 0.100388 6.09707e-19)