/*--------------------------------*- C++ -*----------------------------------*\
  =========                 |
  \\      /  F ield         | OpenFOAM: The Open Source CFD Toolbox
   \\    /   O peration     | Website:  https://openfoam.org
    \\  /    A nd           | Version:  6.0
     \\/     M anipulation  |
\*---------------------------------------------------------------------------*/
FoamFile
{
    version     2.0;
    format      ascii;
    class       surfaceScalarField;
    location    "12";
    object      phi;
}
// * * * * * * * * * * * * * * * * * * * * * * * * * * * * * * * * * * * * * //

dimensions      [0 3 -1 0 0 0 0];

internalField   nonuniform List<scalar> 
123526
(
3.82164e-07
2.34148e-05
2.42723e-08
8.1354e-07
2.53156e-05
1.27879e-06
2.73707e-05
1.78137e-06
2.95924e-05
2.32342e-06
3.19944e-05
2.90963e-06
3.45912e-05
3.54217e-06
3.73984e-05
4.2266e-06
4.04333e-05
4.96639e-06
4.37132e-05
5.76771e-06
4.7259e-05
6.63327e-06
5.10929e-05
7.56995e-06
5.52371e-05
8.58221e-06
5.97166e-05
9.68009e-06
6.45561e-05
1.08701e-05
6.97858e-05
1.2158e-05
7.54409e-05
1.35504e-05
8.15523e-05
1.50636e-05
8.81495e-05
1.67034e-05
9.52802e-05
1.84777e-05
0.000102987
2.04035e-05
0.000111305
2.24935e-05
0.000120289
2.47532e-05
0.000129995
2.72116e-05
0.000140459
2.9872e-05
0.000151764
3.27568e-05
0.000163954
3.58855e-05
0.000177099
3.92722e-05
0.000191273
4.29463e-05
0.000206534
4.69202e-05
0.000222976
5.12271e-05
0.000240654
5.58836e-05
0.000259666
6.0922e-05
0.000280075
6.63681e-05
0.000301964
7.22478e-05
0.00032541
7.86e-05
0.000350466
8.54466e-05
0.000377206
9.28238e-05
0.000405659
0.000100767
0.000435845
0.000109305
0.000467763
0.000118469
0.000501358
0.000128296
0.000536527
0.000138812
0.000573106
0.000150039
0.000610837
0.000161994
0.000649347
0.000174685
0.000688125
0.000188104
0.000726475
0.000202226
0.000763477
0.000217
0.000797922
0.000232349
0.000828245
0.000248159
0.000852436
0.000264272
0.000867944
0.000280478
0.000871567
0.00029649
0.000859375
0.000311939
0.000826599
0.000326334
0.000767601
0.000339075
0.00067568
0.000349549
0.000543153
0.000356488
0.000360969
0.000120142
0.000353341
3.99331e-07
2.30249e-05
2.03487e-09
8.2574e-07
2.48941e-05
1.28564e-06
2.6915e-05
1.7824e-06
2.90999e-05
2.3181e-06
3.14619e-05
2.89735e-06
3.40154e-05
3.52223e-06
3.67759e-05
4.19815e-06
3.97601e-05
4.92853e-06
4.29843e-05
5.71934e-06
4.64703e-05
6.57328e-06
5.024e-05
7.49703e-06
5.43149e-05
8.49501e-06
5.87194e-05
9.57698e-06
6.34754e-05
1.07494e-05
6.8614e-05
1.20178e-05
7.41739e-05
1.33887e-05
8.01821e-05
1.48781e-05
8.66615e-05
1.64916e-05
9.36675e-05
1.8237e-05
0.000101243
2.01308e-05
0.000109412
2.21856e-05
0.000118235
2.44066e-05
0.000127775
2.68221e-05
0.000138045
2.94355e-05
0.000149151
3.22686e-05
0.000161122
3.53404e-05
0.000174028
3.86648e-05
0.000187949
4.22704e-05
0.000202929
4.61694e-05
0.000219077
5.03942e-05
0.00023643
5.49614e-05
0.000255099
5.99022e-05
0.000275134
6.52426e-05
0.000296624
7.1008e-05
0.000319645
7.7237e-05
0.000344237
8.39515e-05
0.000370492
9.1187e-05
0.000398424
9.89792e-05
0.000428053
0.000107356
0.000459386
0.00011635
0.000492364
0.000125996
0.000526881
0.000136319
0.000562782
0.000147341
0.000599812
0.000159079
0.000637607
0.000171537
0.000675664
0.000184708
0.000713301
0.000198564
0.000749616
0.000213058
0.000783423
0.000228115
0.000813182
0.000243627
0.000836916
0.000259441
0.000852117
0.000275356
0.000855642
0.00029109
0.000843628
0.00030628
0.000811399
0.000320443
0.000753426
0.000332978
0.000663137
0.000343304
0.000532816
0.000349778
0.000354503
0.000119718
0.000350205
3.95917e-07
2.2642e-05
-1.47475e-09
8.1487e-07
2.44802e-05
1.2666e-06
2.64675e-05
1.7546e-06
2.8616e-05
2.28078e-06
3.09388e-05
2.84976e-06
3.34499e-05
3.46354e-06
3.61644e-05
4.12751e-06
3.90988e-05
4.84496e-06
4.22684e-05
5.6218e-06
4.56955e-05
6.46062e-06
4.94023e-05
7.36803e-06
5.34091e-05
8.34826e-06
5.774e-05
9.41098e-06
6.24141e-05
1.05624e-05
6.74633e-05
1.1808e-05
7.29296e-05
1.31542e-05
7.88366e-05
1.46165e-05
8.52006e-05
1.62006e-05
9.20841e-05
1.7914e-05
9.95315e-05
1.97729e-05
0.000107554
2.17896e-05
0.00011622
2.39694e-05
0.000125596
2.63398e-05
0.000135675
2.89042e-05
0.000146588
3.16839e-05
0.000158343
3.46978e-05
0.000171014
3.79593e-05
0.000184689
4.14967e-05
0.000199392
4.53219e-05
0.000215253
4.9467e-05
0.000232285
5.39481e-05
0.000250618
5.87964e-05
0.000270286
6.40374e-05
0.000291384
6.96963e-05
0.000313987
7.58114e-05
0.000338123
8.24043e-05
0.0003639
8.95103e-05
0.000391319
9.71645e-05
0.0004204
0.000105394
0.000451158
0.000114231
0.000483527
0.000123709
0.000517403
0.000133851
0.00055264
0.000144679
0.000588985
0.000156206
0.00062608
0.000168437
0.000663433
0.000181364
0.000700375
0.000194962
0.000736019
0.000209185
0.0007692
0.000223963
0.000798403
0.000239194
0.000821687
0.000254731
0.000836583
0.000270374
0.000840006
0.000285846
0.000828166
0.000300787
0.000796476
0.000314723
0.000739509
0.000327048
0.000650843
0.000337119
0.00052278
0.000343854
0.000347821
0.000118282
0.000345371
3.80378e-07
2.22662e-05
5.89641e-09
7.91151e-07
2.4074e-05
1.2342e-06
2.60284e-05
1.71285e-06
2.81413e-05
2.22902e-06
3.04256e-05
2.78723e-06
3.2895e-05
3.38943e-06
3.55644e-05
4.04086e-06
3.845e-05
4.7448e-06
4.1566e-05
5.50699e-06
4.49353e-05
6.33006e-06
4.85802e-05
7.22039e-06
5.25202e-05
8.18233e-06
5.67788e-05
9.22515e-06
6.13724e-05
1.03552e-05
6.63339e-05
1.15777e-05
7.17084e-05
1.28989e-05
7.75161e-05
1.43343e-05
8.37665e-05
1.58892e-05
9.05299e-05
1.7571e-05
9.7851e-05
1.93958e-05
0.00010573
2.13755e-05
0.000114241
2.35152e-05
0.000123457
2.58422e-05
0.000133349
2.83597e-05
0.000144071
3.10888e-05
0.000155615
3.40477e-05
0.000168056
3.72499e-05
0.000181487
4.07232e-05
0.00019592
4.44792e-05
0.000211497
4.85495e-05
0.000228215
5.29503e-05
0.000246217
5.77119e-05
0.000265524
6.28597e-05
0.000286237
6.84184e-05
0.000308429
7.44257e-05
0.000332117
8.09027e-05
0.000357424
8.78844e-05
0.000384338
9.54047e-05
0.000412881
0.00010349
0.000443074
0.000112172
0.000474847
0.000121481
0.000508095
0.000131442
0.000542681
0.000142072
0.000578356
0.000153387
0.000614767
0.00016539
0.000651431
0.000178073
0.000687693
0.000191415
0.000722679
0.000205374
0.000755243
0.000219882
0.000783897
0.000234842
0.000806729
0.00025011
0.000821317
0.00026549
0.000824632
0.000280706
0.000812957
0.000295402
0.000781792
0.000309109
0.000725815
0.000321228
0.000638743
0.000331065
0.000512964
0.000337684
0.000341245
0.000116895
0.00033913
3.6564e-07
2.1898e-05
1.51997e-08
7.69264e-07
2.36759e-05
1.20409e-06
2.5598e-05
1.67399e-06
2.7676e-05
2.18031e-06
2.99225e-05
2.72806e-06
3.23509e-05
3.31867e-06
3.49761e-05
3.95788e-06
3.78137e-05
4.64838e-06
4.0877e-05
5.39637e-06
4.41895e-05
6.20392e-06
4.77737e-05
7.07784e-06
5.16479e-05
8.02181e-06
5.58355e-05
9.04554e-06
6.03501e-05
1.01547e-05
6.52253e-05
1.13549e-05
7.05095e-05
1.2652e-05
7.62196e-05
1.40612e-05
8.23586e-05
1.5588e-05
8.90039e-05
1.72394e-05
9.62009e-05
1.90313e-05
0.000103939
2.09754e-05
0.000112298
2.30769e-05
0.000121356
2.53623e-05
0.000131065
2.78349e-05
0.000141599
3.05153e-05
0.000152935
3.34217e-05
0.00016515
3.65671e-05
0.000178342
3.99789e-05
0.000192509
4.36684e-05
0.000207808
4.76668e-05
0.000224217
5.19897e-05
0.000241895
5.66674e-05
0.000260847
6.17243e-05
0.00028118
6.71849e-05
0.00030297
7.30858e-05
0.000326217
7.9448e-05
0.000351064
8.63054e-05
0.000377482
9.36912e-05
0.000405497
0.000101631
0.000435135
0.000110155
0.000466325
0.000119294
0.000498958
0.00012907
0.000532906
0.000139502
0.000567926
0.000150603
0.000603668
0.000162379
0.000639657
0.000174823
0.00067525
0.000187916
0.000709589
0.000201617
0.000741544
0.000215865
0.000769652
0.000230562
0.000792035
0.000245568
0.000806315
0.00026069
0.00080952
0.000275655
0.000798005
0.000290107
0.000767359
0.000303586
0.000712358
0.000315502
0.000626858
0.000325142
0.000503358
0.000331602
0.000334832
0.000115519
0.000333047
3.52397e-07
2.15363e-05
2.00206e-08
7.48249e-07
2.32848e-05
1.17499e-06
2.51752e-05
1.63617e-06
2.72189e-05
2.13326e-06
2.94283e-05
2.67105e-06
3.18166e-05
3.25101e-06
3.43983e-05
3.87859e-06
3.71888e-05
4.55658e-06
4.02003e-05
5.29088e-06
4.34571e-05
6.08376e-06
4.69817e-05
6.9416e-06
5.07914e-05
7.86846e-06
5.49092e-05
8.8734e-06
5.93462e-05
9.96252e-06
6.41367e-05
1.11408e-05
6.93323e-05
1.24145e-05
7.49465e-05
1.37982e-05
8.0976e-05
1.52975e-05
8.75054e-05
1.69191e-05
9.45804e-05
1.86789e-05
0.000102179
2.05881e-05
0.00011039
2.26519e-05
0.000119293
2.48964e-05
0.000128821
2.73248e-05
0.000139171
2.99574e-05
0.000150304
3.2812e-05
0.000162296
3.59014e-05
0.000175254
3.92524e-05
0.000189158
4.28763e-05
0.000204185
4.68034e-05
0.00022029
5.10494e-05
0.000237649
5.56435e-05
0.000256254
6.06101e-05
0.000276215
6.59729e-05
0.000297608
7.17678e-05
0.000320424
7.80151e-05
0.000344818
8.47481e-05
0.000370751
9.19991e-05
0.000398247
9.97932e-05
0.000427343
0.00010816
0.00045796
0.000117129
0.000489991
0.000126722
0.000523315
0.000136958
0.000557692
0.000147851
0.000592777
0.000159407
0.000628105
0.00017162
0.00066304
0.000184472
0.00069674
0.000197927
0.000728093
0.000211923
0.000755661
0.000226368
0.000777597
0.00024112
0.000791568
0.000255989
0.000794661
0.000270706
0.000783301
0.000284918
0.000753164
0.000298169
0.000699126
0.000309884
0.000615169
0.000319339
0.000493933
0.000325709
0.000328513
0.000113892
0.000327411
3.4278e-07
2.11815e-05
2.37957e-08
7.31667e-07
2.29012e-05
1.15061e-06
2.47604e-05
1.60336e-06
2.67705e-05
2.09126e-06
2.89434e-05
2.61907e-06
3.12922e-05
3.18824e-06
3.38312e-05
3.80423e-06
3.65756e-05
4.46971e-06
3.95363e-05
5.19059e-06
4.27383e-05
5.96892e-06
4.62044e-05
6.81121e-06
4.99508e-05
7.72105e-06
5.40001e-05
8.70779e-06
5.83608e-05
9.77694e-06
6.30682e-05
1.09338e-05
6.81767e-05
1.21842e-05
7.36968e-05
1.35427e-05
7.96187e-05
1.50146e-05
8.60342e-05
1.66068e-05
9.29895e-05
1.83345e-05
0.000100452
2.02091e-05
0.000108516
2.22355e-05
0.000117268
2.44393e-05
0.000126618
2.68239e-05
0.000136787
2.94089e-05
0.000147719
3.22119e-05
0.000159494
3.52455e-05
0.000172221
3.8536e-05
0.000185869
4.20944e-05
0.000200627
4.59507e-05
0.000216434
5.01198e-05
0.00023348
5.46309e-05
0.000251743
5.95075e-05
0.000271339
6.47728e-05
0.000292344
7.04622e-05
0.000314736
7.65955e-05
0.000338686
8.3205e-05
0.000364143
9.03226e-05
0.000391131
9.79727e-05
0.000419695
0.000106184
0.00044975
0.000114987
0.00048119
0.000124402
0.000513902
0.000134449
0.000547647
0.00014514
0.000582087
0.000156484
0.000616763
0.000168476
0.00065105
0.0001811
0.000684118
0.000194319
0.000714876
0.000208074
0.000741907
0.000222274
0.0007634
0.000236779
0.000777065
0.000251401
0.000780047
0.000265872
0.00076884
0.000279846
0.000739208
0.00029287
0.000686121
0.000304381
0.000603684
0.000313657
0.000484684
0.00031995
0.000322257
0.000111933
0.000321961
3.34205e-07
2.08326e-05
2.38698e-08
7.15549e-07
2.2524e-05
1.12682e-06
2.43527e-05
1.57125e-06
2.63296e-05
2.05044e-06
2.84668e-05
2.5688e-06
3.0777e-05
3.1279e-06
3.32741e-05
3.73281e-06
3.59731e-05
4.38639e-06
3.8884e-05
5.09411e-06
4.20324e-05
5.85836e-06
4.54409e-05
6.68509e-06
4.91252e-05
7.57844e-06
5.31073e-05
8.54689e-06
5.73933e-05
9.59658e-06
6.20191e-05
1.07321e-05
6.70422e-05
1.19597e-05
7.24699e-05
1.32932e-05
7.82862e-05
1.47382e-05
8.45899e-05
1.63011e-05
9.14277e-05
1.79972e-05
9.87571e-05
1.98374e-05
0.000106677
2.18267e-05
0.000115279
2.39902e-05
0.000124456
2.63311e-05
0.000134447
2.88689e-05
0.000145182
3.16207e-05
0.000156743
3.45988e-05
0.000169244
3.78293e-05
0.000182639
4.13227e-05
0.000197134
4.51085e-05
0.000212649
4.92015e-05
0.000229388
5.363e-05
0.000247315
5.84174e-05
0.000266552
6.35863e-05
0.000287176
6.91714e-05
0.000309152
7.5192e-05
0.000332667
8.168e-05
0.000357657
8.86665e-05
0.000384146
9.61757e-05
0.000412187
0.000104236
0.000441691
0.000112877
0.000472551
0.00012212
0.000504661
0.000131983
0.000537786
0.000142482
0.000571591
0.000153623
0.000605624
0.000165403
0.000639273
0.000177807
0.000671718
0.0001908
0.000701887
0.000204324
0.000728389
0.000218286
0.000749444
0.000232549
0.000762808
0.000246927
0.00076568
0.000261155
0.000754626
0.000274891
0.000725491
0.000287688
0.000673344
0.000298995
0.000592405
0.000308092
0.000475618
0.00031429
0.000316109
0.000109775
0.000316522
3.31583e-07
2.04909e-05
2.29728e-08
7.06764e-07
2.21546e-05
1.11059e-06
2.39533e-05
1.54712e-06
2.58978e-05
2.01719e-06
2.79998e-05
2.52587e-06
3.0272e-05
3.07412e-06
3.2728e-05
3.66768e-06
3.53824e-05
4.30866e-06
3.82443e-05
5.00325e-06
4.134e-05
5.75297e-06
4.46921e-05
6.56451e-06
4.83154e-05
7.44096e-06
5.22315e-05
8.39167e-06
5.6444e-05
9.42165e-06
6.09896e-05
1.05363e-05
6.59288e-05
1.17409e-05
7.12657e-05
1.30499e-05
7.69785e-05
1.4468e-05
8.31724e-05
1.60021e-05
8.98947e-05
1.76668e-05
9.70929e-05
1.94731e-05
0.000104872
2.14257e-05
0.000113327
2.35493e-05
0.000122333
2.58471e-05
0.00013215
2.83381e-05
0.000142692
3.10393e-05
0.000154042
3.39626e-05
0.000166321
3.71336e-05
0.000179469
4.05628e-05
0.000193706
4.4279e-05
0.000208933
4.82968e-05
0.00022537
5.26439e-05
0.000242969
5.73434e-05
0.000261854
6.24173e-05
0.000282103
6.78998e-05
0.00030367
7.38099e-05
0.000326758
8.01788e-05
0.000351289
8.70373e-05
0.00037729
9.44092e-05
0.000404817
0.000102323
0.00043378
0.000110806
0.000464069
0.000119882
0.000495587
0.000129569
0.000528101
0.000139882
0.00056128
0.000150828
0.00059468
0.000162406
0.000627697
0.000174599
0.000659527
0.000187373
0.000689114
0.000200671
0.000715093
0.000214401
0.000735716
0.000228426
0.000748783
0.000242562
0.000751549
0.000256549
0.000740647
0.000270047
0.000712005
0.000282619
0.000660786
0.000293721
0.000581321
0.000302644
0.000466714
0.000308723
0.000310055
0.000107469
0.000311057
3.28453e-07
2.01548e-05
1.68669e-08
6.95915e-07
2.17913e-05
1.09205e-06
2.35606e-05
1.52025e-06
2.54732e-05
1.98173e-06
2.75408e-05
2.48111e-06
2.97758e-05
3.01955e-06
3.21914e-05
3.60226e-06
3.48021e-05
4.23169e-06
3.7616e-05
4.9134e-06
4.06599e-05
5.64946e-06
4.39567e-05
6.44581e-06
4.75201e-05
7.30627e-06
5.13714e-05
8.23916e-06
5.55119e-05
9.25029e-06
5.99789e-05
1.03441e-05
6.48358e-05
1.15267e-05
7.00837e-05
1.28113e-05
7.56948e-05
1.42034e-05
8.1781e-05
1.57091e-05
8.83901e-05
1.73431e-05
9.54596e-05
1.91159e-05
0.0001031
2.10325e-05
0.000111411
2.31169e-05
0.00012025
2.53722e-05
0.000129895
2.78173e-05
0.000140248
3.04686e-05
0.000151392
3.33381e-05
0.000163452
3.64507e-05
0.000176357
3.98168e-05
0.00019034
4.34646e-05
0.000205286
4.74085e-05
0.000221427
5.16758e-05
0.000238702
5.62889e-05
0.000257241
6.12699e-05
0.000277123
6.6652e-05
0.00029829
7.24541e-05
0.000320957
7.8707e-05
0.000345038
8.54408e-05
0.000370557
9.26791e-05
0.00039758
0.00010045
0.000426011
0.000108782
0.000455739
0.000117697
0.000486674
0.000127213
0.000518586
0.000137346
0.000551149
0.000148104
0.000583924
0.000159485
0.000616319
0.000171473
0.000647543
0.000184034
0.000676557
0.000197111
0.000702021
0.000210612
0.000722221
0.000224403
0.000734998
0.000238299
0.000737662
0.000252045
0.000726914
0.000265307
0.00069876
0.000277654
0.000648459
0.000288552
0.000570448
0.000297304
0.000457992
0.000303252
0.000304153
0.000105201
0.00030559
3.27291e-07
1.98255e-05
1.30418e-08
6.88206e-07
2.14353e-05
1.07692e-06
2.31757e-05
1.49704e-06
2.50571e-05
1.94976e-06
2.70909e-05
2.43952e-06
2.92892e-05
2.96767e-06
3.16652e-05
3.53932e-06
3.4233e-05
4.15689e-06
3.69997e-05
4.82595e-06
3.99928e-05
5.54831e-06
4.32353e-05
6.33009e-06
4.67399e-05
7.17452e-06
5.05277e-05
8.09039e-06
5.45974e-05
9.08271e-06
5.89871e-05
1.01565e-05
6.37633e-05
1.13171e-05
6.89237e-05
1.25781e-05
7.44349e-05
1.39443e-05
8.04154e-05
1.54222e-05
8.69133e-05
1.7026e-05
9.38564e-05
1.87662e-05
0.000101361
2.06474e-05
0.000109531
2.26934e-05
0.000118204
2.49072e-05
0.000127682
2.73072e-05
0.000137848
2.99098e-05
0.00014879
3.27266e-05
0.000160636
3.57821e-05
0.000173302
3.90864e-05
0.000187036
4.26674e-05
0.000201705
4.65391e-05
0.000217555
5.07284e-05
0.000234513
5.52574e-05
0.000252713
6.01476e-05
0.000272234
6.54318e-05
0.000293006
7.11288e-05
0.000315261
7.72687e-05
0.000338899
8.38813e-05
0.000363946
9.09901e-05
0.000390473
9.86226e-05
0.00041838
0.000106807
0.000447556
0.000115566
0.000477917
0.000124917
0.000509236
0.000134876
0.000541191
0.000145451
0.00057335
0.00015664
0.000605131
0.000168428
0.000635756
0.00018078
0.000664205
0.000193639
0.000689162
0.000206914
0.000708946
0.000220471
0.000721439
0.000234129
0.000724007
0.000247635
0.000713412
0.000260662
0.000685742
0.000272785
0.000636345
0.000283481
0.000559764
0.000292067
0.000449417
0.000297879
0.000298354
0.000102937
0.000300155
3.22684e-07
1.95016e-05
8.42078e-09
6.76106e-07
2.10851e-05
1.05753e-06
2.27972e-05
1.4697e-06
2.46479e-05
1.91431e-06
2.66485e-05
2.39524e-06
2.88109e-05
2.91414e-06
3.1148e-05
3.47547e-06
3.36737e-05
4.0821e-06
3.63942e-05
4.73887e-06
3.93375e-05
5.44824e-06
4.25267e-05
6.21547e-06
4.59736e-05
7.0447e-06
4.9699e-05
7.94349e-06
5.36992e-05
8.91785e-06
5.80133e-05
9.97174e-06
6.27101e-05
1.11113e-05
6.77848e-05
1.23491e-05
7.3198e-05
1.36904e-05
7.90747e-05
1.51412e-05
8.54635e-05
1.67157e-05
9.22826e-05
1.8424e-05
9.96538e-05
2.02708e-05
0.000107685
2.22793e-05
0.000116197
2.44527e-05
0.00012551
2.68089e-05
0.000135493
2.93639e-05
0.000146235
3.21293e-05
0.000157871
3.5129e-05
0.000170303
3.83732e-05
0.000183793
4.18891e-05
0.00019819
4.56905e-05
0.000213754
4.98039e-05
0.0002304
5.42509e-05
0.000248267
5.90528e-05
0.000267433
6.42419e-05
0.000287818
6.98366e-05
0.000309668
7.58667e-05
0.00033287
8.23617e-05
0.000357452
8.93446e-05
0.000383491
9.68428e-05
0.000410883
0.000104884
0.000439516
0.000113491
0.000469313
0.000122681
0.000500048
0.000132471
0.000531404
0.000142867
0.000562957
0.000153868
0.000594133
0.000165459
0.000624169
0.000177605
0.000652064
0.000190248
0.000676524
0.000203299
0.000695901
0.000216624
0.000708119
0.000230044
0.000710595
0.000243311
0.000700157
0.000256103
0.000672967
0.000268004
0.000624464
0.0002785
0.000549292
0.000286923
0.000441021
0.000292601
0.000292718
0.000100819
0.000294781
3.20214e-07
1.91846e-05
8.97415e-09
6.68328e-07
2.07425e-05
1.04297e-06
2.24267e-05
1.44798e-06
2.42473e-05
1.88409e-06
2.62152e-05
2.35606e-06
2.83424e-05
2.86474e-06
3.06413e-05
3.41555e-06
3.31256e-05
4.01039e-06
3.58006e-05
4.65507e-06
3.86949e-05
5.35093e-06
4.18316e-05
6.10429e-06
4.52219e-05
6.91786e-06
4.88859e-05
7.80048e-06
5.2818e-05
8.75667e-06
5.70575e-05
9.79153e-06
6.16764e-05
1.091e-05
6.66669e-05
1.21253e-05
7.19838e-05
1.34421e-05
7.77585e-05
1.48665e-05
8.404e-05
1.64124e-05
9.07373e-05
1.80896e-05
9.79774e-05
1.99029e-05
0.000105872
2.18751e-05
0.000114225
2.40091e-05
0.000123376
2.63226e-05
0.00013318
2.88314e-05
0.000143727
3.15468e-05
0.000155157
3.44924e-05
0.000167358
3.76781e-05
0.000180608
4.11307e-05
0.000194738
4.48638e-05
0.000210021
4.89033e-05
0.000226361
5.32707e-05
0.0002439
5.79868e-05
0.000262718
6.30834e-05
0.000282723
6.85788e-05
0.000304174
7.45022e-05
0.000326948
8.08828e-05
0.000351073
8.77433e-05
0.000376632
9.51108e-05
0.000403517
0.000103013
0.000431615
0.000111472
0.000460855
0.000120505
0.000491016
0.000130128
0.000521781
0.000140349
0.000552737
0.000151165
0.000583318
0.000162561
0.000612774
0.000174502
0.000640122
0.000186932
0.000664094
0.000199759
0.000683073
0.000212853
0.000695023
0.000226036
0.000697412
0.000239066
0.00068713
0.000251624
0.000660413
0.000263304
0.000612789
0.000273602
0.000539001
0.000281865
0.000432763
0.000287412
0.000287175
9.8742e-05
0.000289485
3.12789e-07
1.88725e-05
6.95681e-09
6.53637e-07
2.04051e-05
1.02131e-06
2.20619e-05
1.41873e-06
2.3853e-05
1.8472e-06
2.57889e-05
2.31083e-06
2.78814e-05
2.81085e-06
3.01429e-05
3.35193e-06
3.25866e-05
3.93649e-06
3.5217e-05
4.56956e-06
3.80632e-05
5.25319e-06
4.11486e-05
5.99276e-06
4.44832e-05
6.792e-06
4.8087e-05
7.65845e-06
5.19521e-05
8.5977e-06
5.61186e-05
9.61374e-06
6.0661e-05
1.07123e-05
6.55688e-05
1.19057e-05
7.07912e-05
1.3199e-05
7.64659e-05
1.45978e-05
8.26421e-05
1.6116e-05
8.92197e-05
1.77631e-05
9.63311e-05
1.95439e-05
0.000104092
2.14807e-05
0.000112289
2.35764e-05
0.000121281
2.58485e-05
0.000130909
2.83125e-05
0.000141264
3.09793e-05
0.00015249
3.38723e-05
0.000164465
3.70012e-05
0.000177479
4.03922e-05
0.000191347
4.40589e-05
0.000206355
4.80268e-05
0.000222393
5.23167e-05
0.000239611
5.69494e-05
0.000258086
6.19561e-05
0.000277717
6.73548e-05
0.000298776
7.31744e-05
0.00032113
7.94436e-05
0.000344805
8.61849e-05
0.000369892
9.3425e-05
0.000396278
0.000101191
0.00042385
0.000109505
0.000452543
0.000118384
0.000482138
0.000127844
0.000512324
0.000137892
0.000542691
0.000148526
0.000572687
0.000159728
0.000601574
0.000171467
0.000628387
0.000183683
0.000651882
0.000196288
0.000670473
0.000209152
0.000682163
0.0002221
0.000684471
0.000234893
0.000674348
0.00024722
0.0006481
0.000258681
0.000601345
0.000268783
0.000528921
0.000276887
0.000424682
0.000282309
0.000281789
9.68281e-05
0.000284277
3.06409e-07
1.85666e-05
9.43607e-09
6.41536e-07
2.00744e-05
1.00256e-06
2.17044e-05
1.39272e-06
2.34664e-05
1.81327e-06
2.53709e-05
2.26818e-06
2.74293e-05
2.75886e-06
2.96539e-05
3.28995e-06
3.20578e-05
3.86383e-06
3.46443e-05
4.48555e-06
3.74433e-05
5.15689e-06
4.04781e-05
5.88348e-06
4.3758e-05
6.66834e-06
4.73028e-05
7.51963e-06
5.11021e-05
8.44201e-06
5.51968e-05
9.44015e-06
5.96641e-05
1.0519e-05
6.44904e-05
1.16912e-05
6.962e-05
1.29614e-05
7.51963e-05
1.43353e-05
8.12691e-05
1.58265e-05
8.77292e-05
1.74444e-05
9.47141e-05
1.91935e-05
0.000102343
2.10959e-05
0.000110388
2.31545e-05
0.000119223
2.53864e-05
0.000128677
2.78067e-05
0.000138844
3.04263e-05
0.000149871
3.32682e-05
0.000161624
3.63418e-05
0.000174406
3.96731e-05
0.000188016
4.32752e-05
0.000202753
4.71732e-05
0.000218496
5.13879e-05
0.000235397
5.59394e-05
0.000253535
6.08586e-05
0.000272799
6.61631e-05
0.000293473
7.18815e-05
0.000315413
7.8042e-05
0.000338646
8.46668e-05
0.000363269
9.17823e-05
0.000389164
9.94154e-05
0.000416218
0.000107587
0.000444373
0.000116315
0.000473411
0.000125614
0.000503025
0.000135491
0.000532814
0.000145943
0.000562235
0.000156955
0.000590562
0.000168492
0.00061685
0.000180496
0.000639877
0.00019288
0.000658087
0.000205514
0.000669525
0.000218228
0.000671755
0.000230787
0.000661789
0.000242885
0.000636004
0.00025413
0.000590102
0.000264038
0.000519016
0.000271987
0.000416732
0.000277288
0.000276483
9.49377e-05
0.000279159
2.95696e-07
1.82652e-05
1.08662e-08
6.23846e-07
1.97486e-05
9.78326e-07
2.13522e-05
1.36131e-06
2.30856e-05
1.77473e-06
2.49593e-05
2.22182e-06
2.69843e-05
2.70444e-06
2.91728e-05
3.22639e-06
3.15375e-05
3.79068e-06
3.4081e-05
4.40145e-06
3.68337e-05
5.06132e-06
3.98188e-05
5.77489e-06
4.30451e-05
6.54631e-06
4.65318e-05
7.38231e-06
5.02665e-05
8.28877e-06
5.42908e-05
9.26912e-06
5.86842e-05
1.03293e-05
6.34308e-05
1.14808e-05
6.84692e-05
1.27288e-05
7.39489e-05
1.40786e-05
7.99202e-05
1.55436e-05
8.62648e-05
1.7133e-05
9.31254e-05
1.88515e-05
0.000100625
2.07204e-05
0.000108519
2.27429e-05
0.000117201
2.49356e-05
0.000126485
2.73134e-05
0.000136467
2.98872e-05
0.000147298
3.26792e-05
0.000158832
3.56991e-05
0.000171387
3.8972e-05
0.000184743
4.25113e-05
0.000199214
4.63414e-05
0.000214666
5.04825e-05
0.000231256
5.49548e-05
0.000249063
5.97886e-05
0.000267966
6.50011e-05
0.000288261
7.06206e-05
0.000309794
7.66748e-05
0.000332593
8.31855e-05
0.000356759
9.01788e-05
0.000382172
9.7681e-05
0.000408717
0.000105713
0.000436343
0.000114292
0.000464834
0.000123432
0.000493887
0.00013314
0.000523109
0.000143413
0.000551964
0.000154234
0.000579743
0.000165571
0.000605517
0.000177364
0.000628087
0.000189529
0.000645928
0.000201936
0.000657121
0.000214418
0.000659279
0.000226744
0.000649473
0.000238616
0.000624146
0.000249648
0.000579085
0.000259365
0.000509318
0.000267159
0.000408959
0.000272346
0.000271328
9.31953e-05
0.000274133
2.88296e-07
1.79702e-05
1.77103e-08
6.12063e-07
1.94297e-05
9.6054e-07
2.10074e-05
1.33723e-06
2.27128e-05
1.74295e-06
2.45561e-05
2.18199e-06
2.65483e-05
2.6553e-06
2.87012e-05
3.16779e-06
3.10273e-05
3.72137e-06
3.35285e-05
4.32133e-06
3.62355e-05
4.96903e-06
3.91719e-05
5.67024e-06
4.23454e-05
6.42758e-06
4.5775e-05
7.2492e-06
4.94462e-05
8.13934e-06
5.34011e-05
9.10274e-06
5.77219e-05
1.0144e-05
6.239e-05
1.12755e-05
6.73387e-05
1.25014e-05
7.27234e-05
1.38277e-05
7.85948e-05
1.5267e-05
8.4826e-05
1.68287e-05
9.15645e-05
1.85172e-05
9.89376e-05
2.03536e-05
0.000106683
2.23408e-05
0.000115214
2.44953e-05
0.000124331
2.68317e-05
0.000134131
2.93606e-05
0.00014477
3.21042e-05
0.000156089
3.50715e-05
0.00016842
3.82877e-05
0.000181528
4.17654e-05
0.000195736
4.5529e-05
0.000210903
4.95984e-05
0.000227187
5.39933e-05
0.000244669
5.87435e-05
0.000263216
6.3866e-05
0.000283139
6.93886e-05
0.000304272
7.53384e-05
0.000326644
8.17372e-05
0.000350361
8.86103e-05
0.0003753
9.59838e-05
0.000401345
0.000103878
0.00042845
0.000112309
0.000456403
0.000121292
0.000484904
0.000130833
0.000513568
0.000140929
0.000541868
0.000151562
0.000569109
0.000162699
0.000594378
0.000174283
0.0006165
0.00018623
0.00063398
0.000198412
0.000644934
0.000210665
0.000647024
0.000222762
0.000637373
0.00023441
0.000612497
0.000245233
0.000568262
0.000254761
0.000499788
0.000262405
0.00040131
0.000267481
0.000266239
9.14511e-05
0.000269195
2.7664e-07
1.76792e-05
2.01347e-08
5.93686e-07
1.91153e-05
9.35902e-07
2.06675e-05
1.30574e-06
2.23454e-05
1.70469e-06
2.41589e-05
2.13631e-06
2.61189e-05
2.60199e-06
2.82369e-05
3.10582e-06
3.05252e-05
3.65032e-06
3.29849e-05
4.23986e-06
3.56471e-05
4.87668e-06
3.85355e-05
5.56548e-06
4.16572e-05
6.31005e-06
4.50307e-05
7.1171e-06
4.86395e-05
7.99211e-06
5.25263e-05
8.93857e-06
5.67759e-05
9.96204e-06
6.13669e-05
1.10738e-05
6.62276e-05
1.22787e-05
7.15191e-05
1.35819e-05
7.72924e-05
1.49963e-05
8.34121e-05
1.6531e-05
9.00306e-05
1.81902e-05
9.72789e-05
1.99947e-05
0.00010488
2.19475e-05
0.000113262
2.40646e-05
0.000122215
2.63606e-05
0.000131835
2.88457e-05
0.000142285
3.15417e-05
0.000153394
3.44577e-05
0.000165504
3.76181e-05
0.000178367
4.10358e-05
0.000192319
4.47343e-05
0.000207205
4.87334e-05
0.000223189
5.30524e-05
0.000240351
5.77205e-05
0.000258549
6.27547e-05
0.000278106
6.81821e-05
0.000298846
7.40295e-05
0.000320798
8.03181e-05
0.000344074
8.70729e-05
0.000368546
9.43194e-05
0.000394099
0.000102077
0.000420693
0.000110364
0.000448118
0.000119191
0.000476078
0.000128566
0.000504194
0.000138486
0.000531951
0.000148932
0.000558665
0.000159872
0.000583441
0.000171249
0.000605126
0.00018298
0.000622253
0.000194939
0.000632977
0.000206965
0.000635002
0.000218837
0.00062551
0.000230266
0.00060108
0.000240882
0.00055766
0.000250227
0.000490459
0.000257721
0.000393833
0.000262692
0.000261294
8.98336e-05
0.000264344
2.67952e-07
1.7394e-05
2.57619e-08
5.79933e-07
1.8807e-05
9.16116e-07
2.03343e-05
1.27937e-06
2.19851e-05
1.6711e-06
2.37693e-05
2.09474e-06
2.56976e-05
2.55191e-06
2.77812e-05
3.04663e-06
3.00323e-05
3.58142e-06
3.24511e-05
4.16071e-06
3.50693e-05
4.78639e-06
3.79107e-05
5.46351e-06
4.09814e-05
6.19503e-06
4.42998e-05
6.98843e-06
4.78473e-05
7.84814e-06
5.16672e-05
8.77844e-06
5.58467e-05
9.78402e-06
6.03618e-05
1.08766e-05
6.5136e-05
1.20605e-05
7.03357e-05
1.33412e-05
7.60125e-05
1.47311e-05
8.20226e-05
1.62392e-05
8.85233e-05
1.78697e-05
9.56489e-05
1.96431e-05
0.000103107
2.15621e-05
0.000111344
2.36426e-05
0.000120135
2.58989e-05
0.000129579
2.8341e-05
0.000139843
3.09905e-05
0.000150745
3.3856e-05
0.000162639
3.69619e-05
0.000175262
4.03206e-05
0.00018896
4.39552e-05
0.00020357
4.78852e-05
0.000219259
5.21297e-05
0.000236107
5.67172e-05
0.000253962
6.16645e-05
0.000273159
6.69982e-05
0.000293513
7.27447e-05
0.000315052
7.89247e-05
0.000337894
8.55628e-05
0.000361909
9.26841e-05
0.000386979
0.000100308
0.00041307
0.00010845
0.000439976
0.000117124
0.000467404
0.000126335
0.000494983
0.00013608
0.000522206
0.000146341
0.000548402
0.000157086
0.000572694
0.000168259
0.000593951
0.000179776
0.000610734
0.000191515
0.000621232
0.000203319
0.000623195
0.000214968
0.000613858
0.000226181
0.000589865
0.000236595
0.000547243
0.00024576
0.00048129
0.000253109
0.000386473
0.000257978
0.000256406
8.81933e-05
0.000259576
2.55957e-07
1.71125e-05
2.87221e-08
5.61399e-07
1.8503e-05
8.91617e-07
2.00058e-05
1.24827e-06
2.163e-05
1.63357e-06
2.33854e-05
2.05012e-06
2.52826e-05
2.50005e-06
2.73325e-05
2.98648e-06
2.95472e-05
3.51262e-06
3.19259e-05
4.08192e-06
3.45008e-05
4.69722e-06
3.7296e-05
5.36242e-06
4.03166e-05
6.08175e-06
4.35809e-05
6.86115e-06
4.70681e-05
7.70638e-06
5.08224e-05
8.62041e-06
5.49331e-05
9.60896e-06
5.93738e-05
1.06826e-05
6.40629e-05
1.18463e-05
6.91726e-05
1.31048e-05
7.47547e-05
1.44709e-05
8.06572e-05
1.59529e-05
8.70419e-05
1.75553e-05
9.40471e-05
1.9298e-05
0.000101365
2.11838e-05
0.000109458
2.32284e-05
0.000118091
2.54457e-05
0.000127362
2.78457e-05
0.000137444
3.04493e-05
0.000148142
3.32654e-05
0.000159823
3.63175e-05
0.00017221
3.96181e-05
0.00018566
4.319e-05
0.000199998
4.7052e-05
0.000215397
5.12231e-05
0.000231936
5.57312e-05
0.000249454
6.05929e-05
0.000268298
6.58343e-05
0.000288273
7.14812e-05
0.000309406
7.75542e-05
0.000331822
8.40771e-05
0.000355387
9.10746e-05
0.000379982
9.85654e-05
0.000405581
0.000106566
0.000431977
0.000115088
0.000458883
0.000124137
0.000485935
0.000133709
0.000512635
0.000143787
0.000538325
0.000154339
0.000562145
0.000165309
0.000582983
0.000176616
0.00059943
0.000188139
0.00060971
0.000199723
0.000611615
0.000211154
0.000602434
0.000222155
0.000578873
0.000232371
0.000537039
0.00024136
0.000472316
0.000248568
0.000379282
0.000253339
0.000251655
8.66638e-05
0.000254892
2.4849e-07
1.68373e-05
3.63756e-08
5.50112e-07
1.82056e-05
8.74838e-07
1.96843e-05
1.22578e-06
2.12824e-05
1.60394e-06
2.30095e-05
2.01307e-06
2.4876e-05
2.45432e-06
2.68927e-05
2.93202e-06
2.90715e-05
3.44821e-06
3.14106e-05
4.00757e-06
3.39431e-05
4.61157e-06
3.66926e-05
5.26544e-06
3.96641e-05
5.97173e-06
4.28751e-05
6.73792e-06
4.63031e-05
7.56806e-06
4.99926e-05
8.46649e-06
5.40356e-05
9.43757e-06
5.84031e-05
1.04928e-05
6.30086e-05
1.1636e-05
6.80297e-05
1.28729e-05
7.35187e-05
1.42152e-05
7.93153e-05
1.56716e-05