/*--------------------------------*- C++ -*----------------------------------*\
  =========                 |
  \\      /  F ield         | OpenFOAM: The Open Source CFD Toolbox
   \\    /   O peration     | Website:  https://openfoam.org
    \\  /    A nd           | Version:  6.0
     \\/     M anipulation  |
\*---------------------------------------------------------------------------*/
FoamFile
{
    version     2.0;
    format      ascii;
    class       volScalarField;
    location    "3.89";
    object      p;
}
// * * * * * * * * * * * * * * * * * * * * * * * * * * * * * * * * * * * * * //

dimensions      [0 2 -2 0 0 0 0];

internalField   nonuniform List<scalar> 
13500
(
0.098528
0.098661
0.09804
0.097794
0.096438
0.096298
0.094873
0.095686
0.096628
0.099612
0.12271
0.164
0.098528
0.098661
0.098039
0.097795
0.096438
0.096299
0.094872
0.095686
0.096625
0.099673
0.12204
0.15894
0.098529
0.098663
0.098039
0.097797
0.096436
0.096301
0.094869
0.095685
0.096617
0.099715
0.12116
0.15445
0.09853
0.098665
0.098039
0.097799
0.096435
0.096302
0.094865
0.095683
0.096603
0.099734
0.12019
0.15094
0.098531
0.098667
0.098039
0.097802
0.096433
0.096304
0.094861
0.095681
0.096584
0.099738
0.11915
0.14798
0.098532
0.098669
0.09804
0.097805
0.096432
0.096306
0.094855
0.095677
0.09656
0.099729
0.11808
0.14533
0.098535
0.098673
0.098041
0.097808
0.096431
0.096308
0.09485
0.095672
0.096531
0.099708
0.11699
0.14293
0.098537
0.098676
0.098043
0.097812
0.096431
0.09631
0.094844
0.095667
0.096497
0.099673
0.11592
0.14072
0.09854
0.09868
0.098045
0.097816
0.09643
0.096312
0.094837
0.095661
0.096458
0.099623
0.11487
0.13868
0.098544
0.098684
0.098047
0.09782
0.09643
0.096313
0.094829
0.095654
0.096413
0.099561
0.11385
0.13678
0.098548
0.098689
0.09805
0.097824
0.09643
0.096315
0.094821
0.095645
0.096364
0.099485
0.11287
0.13499
0.098553
0.098695
0.098054
0.097829
0.09643
0.096317
0.094813
0.095636
0.096309
0.099398
0.11193
0.1333
0.098558
0.0987
0.098057
0.097834
0.09643
0.096319
0.094803
0.095626
0.096249
0.0993
0.11104
0.1317
0.098563
0.098706
0.098062
0.09784
0.096431
0.09632
0.094794
0.095615
0.096184
0.099193
0.11018
0.13018
0.09857
0.098713
0.098066
0.097846
0.096431
0.096322
0.094783
0.095603
0.096113
0.099078
0.10937
0.12873
0.098576
0.09872
0.098071
0.097852
0.096432
0.096324
0.094772
0.09559
0.096036
0.098958
0.10859
0.12735
0.098583
0.098728
0.098077
0.097859
0.096433
0.096326
0.094761
0.095576
0.095955
0.098832
0.10785
0.12603
0.098591
0.098736
0.098083
0.097865
0.096434
0.096327
0.094749
0.09556
0.095868
0.098703
0.10713
0.12476
0.098599
0.098745
0.098089
0.097873
0.096436
0.096329
0.094736
0.095544
0.095775
0.098571
0.10645
0.12353
0.098608
0.098754
0.098096
0.09788
0.096437
0.096331
0.094723
0.095526
0.095678
0.098439
0.10579
0.12236
0.098617
0.098763
0.098104
0.097888
0.096439
0.096333
0.094709
0.095508
0.095576
0.098306
0.10515
0.12122
0.098627
0.098773
0.098112
0.097897
0.096441
0.096334
0.094695
0.095488
0.095469
0.098173
0.10452
0.12012
0.098637
0.098784
0.09812
0.097905
0.096444
0.096336
0.09468
0.095467
0.095359
0.098042
0.10392
0.11905
0.098648
0.098795
0.098129
0.097914
0.096446
0.096338
0.094665
0.095444
0.095244
0.097911
0.10333
0.11801
0.09866
0.098806
0.098138
0.097924
0.096449
0.09634
0.094649
0.09542
0.095125
0.097783
0.10274
0.117
0.098672
0.098819
0.098148
0.097934
0.096452
0.096342
0.094632
0.095395
0.095004
0.097656
0.10217
0.11602
0.098684
0.098831
0.098159
0.097944
0.096455
0.096344
0.094615
0.095369
0.094879
0.097531
0.10161
0.11505
0.098698
0.098844
0.098169
0.097954
0.096458
0.096345
0.094598
0.095341
0.094752
0.097408
0.10105
0.11412
0.098711
0.098858
0.098181
0.097965
0.096462
0.096347
0.094579
0.095312
0.094622
0.097286
0.1005
0.1132
0.098726
0.098872
0.098193
0.097977
0.096466
0.096349
0.094561
0.095281
0.094491
0.097166
0.099954
0.1123
0.098741
0.098887
0.098205
0.097988
0.09647
0.096351
0.094542
0.095249
0.094358
0.097046
0.099414
0.11142
0.098756
0.098902
0.098218
0.098
0.096475
0.096353
0.094522
0.095215
0.094224
0.096928
0.098879
0.11055
0.098772
0.098918
0.098232
0.098013
0.096479
0.096355
0.094502
0.09518
0.094089
0.09681
0.098348
0.10971
0.098789
0.098934
0.098246
0.098026
0.096484
0.096357
0.094481
0.095144
0.093954
0.096693
0.097822
0.10888
0.098806
0.098951
0.09826
0.098039
0.096489
0.096359
0.094459
0.095106
0.093819
0.096575
0.0973
0.10806
0.098824
0.098969
0.098275
0.098053
0.096495
0.096361
0.094437
0.095067
0.093683
0.096457
0.096783
0.10726
0.098843
0.098987
0.098291
0.098067
0.0965
0.096363
0.094415
0.095027
0.093548
0.096338
0.09627
0.10647
0.098862
0.099005
0.098307
0.098082
0.096506
0.096365
0.094391
0.094986
0.093413
0.096219
0.095762
0.1057
0.098881
0.099024
0.098324
0.098097
0.096512
0.096367
0.094368
0.094943
0.093278
0.096098
0.095259
0.10494
0.098902
0.099044
0.098341
0.098112
0.096519
0.09637
0.094343
0.0949
0.093145
0.095976
0.094762
0.10419
0.098923
0.099065
0.098359
0.098128
0.096526
0.096372
0.094318
0.094855
0.093012
0.095852
0.09427
0.10346
0.098944
0.099085
0.098377
0.098144
0.096533
0.096374
0.094292
0.09481
0.09288
0.095727
0.093783
0.10274
0.098967
0.099107
0.098396
0.098161
0.09654
0.096376
0.094266
0.094764
0.092749
0.095599
0.093303
0.10204
0.09899
0.099129
0.098415
0.098178
0.096548
0.096379
0.094239
0.094718
0.092618
0.09547
0.092828
0.10134
0.099013
0.099152
0.098436
0.098196
0.096556
0.096381
0.094211
0.094671
0.092489
0.095338
0.09236
0.10066
0.099037
0.099175
0.098456
0.098214
0.096564
0.096383
0.094183
0.094623
0.092361
0.095204
0.091898
0.099996
0.099062
0.099199
0.098477
0.098232
0.096573
0.096386
0.094154
0.094576
0.092234
0.095068
0.091443
0.09934
0.099088
0.099224
0.098499
0.098251
0.096582
0.096388
0.094125
0.094528
0.092107
0.094929
0.090995
0.098697
0.099114
0.099249
0.098522
0.09827
0.096591
0.09639
0.094094
0.09448
0.091981
0.094789
0.090554
0.098065
0.099141
0.099274
0.098545
0.09829
0.0966
0.096393
0.094063
0.094432
0.091856
0.094646
0.090119
0.097445
0.099168
0.099301
0.098568
0.09831
0.09661
0.096395
0.094032
0.094385
0.091731
0.094501
0.089692
0.096837
0.099196
0.099328
0.098593
0.098331
0.09662
0.096398
0.094
0.094337
0.091607
0.094353
0.089271
0.096239
0.099225
0.099355
0.098617
0.098352
0.096631
0.0964
0.093967
0.09429
0.091483
0.094204
0.088858
0.095654
0.099254
0.099384
0.098643
0.098373
0.096642
0.096403
0.093934
0.094244
0.09136
0.094053
0.088451
0.095078
0.099285
0.099412
0.098669
0.098395
0.096653
0.096405
0.0939
0.094198
0.091236
0.093899
0.088052
0.094514
0.099315
0.099442
0.098696
0.098418
0.096665
0.096408
0.093865
0.094152
0.091113
0.093744
0.08766
0.09396
0.099347
0.099472
0.098723
0.098441
0.096677
0.09641
0.09383
0.094108
0.090989
0.093586
0.087274
0.093416
0.099379
0.099503
0.098751
0.098464
0.096689
0.096413
0.093794
0.094063
0.090866
0.093427
0.086895
0.092882
0.099412
0.099534
0.098779
0.098488
0.096702
0.096415
0.093758
0.09402
0.090742
0.093267
0.086524
0.092358
0.099446
0.099566
0.098808
0.098512
0.096715
0.096418
0.093722
0.093977
0.090618
0.093105
0.086158
0.091843
0.09948
0.099599
0.098838
0.098537
0.096728
0.09642
0.093685
0.093936
0.090494
0.092941
0.085799
0.091337
0.099515
0.099633
0.098869
0.098562
0.096742
0.096422
0.093648
0.093895
0.090369
0.092776
0.085447
0.09084
0.099551
0.099667
0.0989
0.098588
0.096757
0.096425
0.09361
0.093854
0.090244
0.09261
0.085101
0.090352
0.099587
0.099701
0.098931
0.098614
0.096771
0.096427
0.093573
0.093815
0.090118
0.092442
0.084761
0.089872
0.099624
0.099737
0.098964
0.098641
0.096786
0.09643
0.093535
0.093776
0.089992
0.092273
0.084427
0.0894
0.099662
0.099773
0.098997
0.098668
0.096802
0.096432
0.093496
0.093738
0.089865
0.092104
0.084099
0.088936
0.0997
0.099809
0.099031
0.098695
0.096818
0.096434
0.093458
0.093701
0.089738
0.091933
0.083776
0.088479
0.099739
0.099847
0.099065
0.098724
0.096834
0.096437
0.09342
0.093664
0.08961
0.091762
0.083459
0.08803
0.099779
0.099885
0.0991
0.098752
0.096851
0.096439
0.093381
0.093628
0.089482
0.091589
0.083148
0.087588
0.09982
0.099924
0.099136
0.098781
0.096868
0.096441
0.093343
0.093592
0.089353
0.091417
0.082842
0.087153
0.099861
0.099963
0.099172
0.09881
0.096885
0.096444
0.093304
0.093557
0.089224
0.091243
0.08254
0.086725
0.099903
0.1
0.099209
0.09884
0.096903
0.096446
0.093266
0.093522
0.089095
0.091069
0.082244
0.086303
0.099946
0.10004
0.099246
0.098871
0.096922
0.096449
0.093228
0.093488
0.088965
0.090894
0.081953
0.085887
0.09999
0.10009
0.099285
0.098902
0.096941
0.096451
0.09319
0.093453
0.088834
0.090719
0.081666
0.085477
0.10003
0.10013
0.099324
0.098933
0.09696
0.096454
0.093152
0.093419
0.088704
0.090544
0.081384
0.085073
0.10008
0.10017
0.099364
0.098965
0.09698
0.096456
0.093114
0.093385
0.088573
0.090368
0.081106
0.084675
0.10012
0.10021
0.099404
0.098997
0.097
0.096459
0.093077
0.093351
0.088442
0.090192
0.080833
0.084282
0.10017
0.10026
0.099445
0.09903
0.09702
0.096462
0.09304
0.093317
0.088311
0.090016
0.080564
0.083895
0.10022
0.1003
0.099487
0.099063
0.097041
0.096465
0.093003
0.093283
0.08818
0.089839
0.080299
0.083513
0.10027
0.10035
0.099529
0.099097
0.097063
0.096468
0.092967
0.093249
0.088049
0.089663
0.080037
0.083136
0.10032
0.1004
0.099572
0.099131
0.097085
0.096471
0.09293
0.093214
0.087918
0.089487
0.07978
0.082763
0.10036
0.10044
0.099616
0.099166
0.097107
0.096475
0.092895
0.093179
0.087787
0.08931
0.079527
0.082396
0.10042
0.10049
0.099661
0.099201
0.09713
0.096479
0.092859
0.093144
0.087657
0.089134
0.079277
0.082033
0.10047
0.10054
0.099706
0.099237
0.097153
0.096483
0.092824
0.093108
0.087527
0.088957
0.079031
0.081674
0.10052
0.10059
0.099752
0.099273
0.097177
0.096487
0.092789
0.093072
0.087397
0.088781
0.078788
0.08132
0.10057
0.10064
0.099799
0.09931
0.097201
0.096492
0.092754
0.093035
0.087268
0.088605
0.078549
0.08097
0.10062
0.10069
0.099846
0.099347
0.097225
0.096497
0.09272
0.092998
0.087139
0.08843
0.078313
0.080625
0.10068
0.10074
0.099895
0.099385
0.09725
0.096502
0.092686
0.09296
0.08701
0.088254
0.07808
0.080283
0.10073
0.10079
0.099944
0.099423
0.097275
0.096508
0.092653
0.092921
0.086882
0.088079
0.077851
0.079945
0.10079
0.10085
0.099993
0.099462
0.097301
0.096515
0.09262
0.092882
0.086755
0.087904
0.077624
0.079611
0.10084
0.1009
0.10004
0.099502
0.097327
0.096522
0.092587
0.092842
0.086629
0.087729
0.077401
0.079281
0.1009
0.10096
0.10009
0.099542
0.097354
0.096529
0.092554
0.092801
0.086503
0.087555
0.07718
0.078955
0.10096
0.10101
0.10015
0.099582
0.097381
0.096537
0.092522
0.092759
0.086377
0.087381
0.076963
0.078632
0.10102
0.10107
0.1002
0.099624
0.097408
0.096546
0.092489
0.092717
0.086253
0.087207
0.076748
0.078313
0.10108
0.10113
0.10025
0.099665
0.097436
0.096555
0.092457
0.092674
0.086129
0.087034
0.076536
0.077997
0.10114
0.10118
0.10031
0.099708
0.097464
0.096564
0.092426
0.09263
0.086006
0.086861
0.076327
0.077684
0.1012
0.10124
0.10036
0.099751
0.097493
0.096575
0.092394
0.092585
0.085884
0.086688
0.07612
0.077375
0.10126
0.1013
0.10042
0.099794
0.097522
0.096586
0.092363
0.09254
0.085762
0.086516
0.075916
0.077069
0.10133
0.10136
0.10048
0.099839
0.097552
0.096598
0.092331
0.092493
0.085642
0.086345
0.075714
0.076766
0.10139
0.10142
0.10053
0.099884
0.097582
0.09661
0.0923
0.092446
0.085522
0.086174
0.075515
0.076467
0.10146
0.10149
0.10059
0.099929
0.097612
0.096623
0.092269
0.092398
0.085403
0.086003
0.075318
0.07617
0.10152
0.10155
0.10065
0.099976
0.097643
0.096637
0.092239
0.092349
0.085285
0.085832
0.075124
0.075876
0.10159
0.10161
0.10071
0.10002
0.097675
0.096652
0.092208
0.0923
0.085168
0.085663
0.074932
0.075585
0.10166
0.10168
0.10077
0.10007
0.097706
0.096667
0.092178
0.092249
0.085051
0.085493
0.074742
0.075297
0.10172
0.10175
0.10083
0.10012
0.097739
0.096683
0.092147
0.092198
0.084936
0.085324
0.074554
0.075011
0.10179
0.10181
0.1009
0.10017
0.097771
0.0967
0.092117
0.092146
0.084821
0.085155
0.074368
0.074728
0.10186
0.10188
0.10096
0.10022
0.097805
0.096718
0.092087
0.092093
0.084707
0.084987
0.074184
0.074448
0.10194
0.10195
0.10103
0.10027
0.097838
0.096736
0.092058
0.09204
0.084594
0.084819
0.074002
0.07417
0.10201
0.10202
0.10109
0.10032
0.097873
0.096756
0.092028
0.091986
0.084481
0.084651
0.073823
0.073894
0.10208
0.10209
0.10116
0.10037
0.097907
0.096776
0.091999
0.091931
0.08437
0.084484
0.073644
0.073621
0.10216
0.10216
0.10123
0.10043
0.097943
0.096797
0.09197
0.091875
0.084259
0.084317
0.073468
0.07335
0.10223
0.10224
0.10129
0.10048
0.097978
0.096819
0.091941
0.091819
0.084149
0.08415
0.073293
0.073081
0.10231
0.10231
0.10136
0.10054
0.098015
0.096841
0.091912
0.091762
0.084039
0.083984
0.073121
0.072814
0.10239
0.10239
0.10143
0.1006
0.098052
0.096865
0.091884
0.091705
0.08393
0.083818
0.072949
0.07255
0.10247
0.10247
0.10151
0.10065
0.09809
0.096889
0.091857
0.091647
0.083822
0.083652
0.072779
0.072287
0.10255
0.10254
0.10158
0.10071
0.098128
0.096914
0.091829
0.091588
0.083715
0.083487
0.072611
0.072026
0.10263
0.10262
0.10165
0.10077
0.098167
0.09694
0.091802
0.091529
0.083609
0.083321
0.072444
0.071767
0.10272
0.10271
0.10173
0.10083
0.098207
0.096966
0.091776
0.09147
0.083503
0.083156
0.072278
0.07151
0.1028
0.10279
0.10181
0.1009
0.098247
0.096994
0.09175
0.09141
0.083397
0.082991
0.072114
0.071254
0.10289
0.10287
0.10189
0.10096
0.098289
0.097023
0.091725
0.091349
0.083293
0.082826
0.071951
0.071
0.10298
0.10296
0.10197
0.10103
0.098331
0.097052
0.0917
0.091288
0.083189
0.082661
0.071789
0.070747
0.10307
0.10305
0.10205
0.10109
0.098374
0.097082
0.091676
0.091227
0.083086
0.082497
0.071628
0.070496
0.10316
0.10314
0.10213
0.10116
0.098418
0.097113
0.091653
0.091166
0.082983
0.082332
0.071468
0.070246
0.10325
0.10323
0.10222
0.10123
0.098463
0.097146
0.091631
0.091104
0.082881
0.082167
0.07131
0.069997
0.10334
0.10332
0.1023
0.1013
0.09851
0.097179
0.09161
0.091042
0.08278
0.082003
0.071152
0.06975
0.10344
0.10342
0.10239
0.10138
0.098557
0.097213
0.091589
0.09098
0.08268
0.081839
0.070995
0.069503
0.10354
0.10351
0.10248
0.10145
0.098606
0.097248
0.09157
0.090918
0.08258
0.081674
0.070838
0.069258
0.10364
0.10361
0.10257
0.10153
0.098656
0.097285
0.091551
0.090856
0.08248
0.08151
0.070683
0.069013
0.10374
0.10371
0.10266
0.10161
0.098707
0.097322
0.091534
0.090794
0.082382
0.081345
0.070528
0.06877
0.10385
0.10382
0.10276
0.10169
0.09876
0.097361
0.091518
0.090731
0.082284
0.081181
0.070374
0.068527
0.10395
0.10392
0.10286
0.10177
0.098814
0.0974
0.091504
0.09067
0.082187
0.081016
0.07022
0.068285
0.10406
0.10403
0.10296
0.10186
0.09887
0.097442
0.091491
0.090608
0.082091
0.080851
0.070067
0.068043
0.10417
0.10414
0.10306
0.10195
0.098928
0.097484
0.091479
0.090546
0.081995
0.080687
0.069914
0.067802
0.10429
0.10426
0.10316
0.10204
0.098988
0.097528
0.091469
0.090485
0.081901
0.080522
0.069762
0.067561
0.10441
0.10437
0.10327
0.10213
0.09905
0.097573
0.091461
0.090425
0.081807
0.080357
0.06961
0.06732
0.10453
0.10449
0.10338
0.10223
0.099114
0.097621
0.091454
0.090364
0.081714
0.080192
0.069458
0.06708
0.10465
0.10461
0.1035
0.10233
0.09918
0.097669
0.091449
0.090305
0.081622
0.080027
0.069307
0.06684
0.10477
0.10474
0.10361
0.10243
0.099248
0.09772
0.091447
0.090246
0.081531
0.079863
0.069155
0.0666
0.1049
0.10487
0.10373
0.10254
0.09932
0.097772
0.091446
0.090188
0.08144
0.079698
0.069004
0.06636
0.10504
0.105
0.10385
0.10265
0.099393
0.097827
0.091448
0.090131
0.081351
0.079532
0.068853
0.066119
0.10517
0.10514
0.10398
0.10276
0.09947
0.097883
0.091452
0.090075
0.081264
0.079367
0.068702
0.065879
0.10531
0.10528
0.10411
0.10287
0.09955
0.097942
0.091458
0.09002
0.081177
0.079202
0.06855
0.065638
0.10545
0.10542
0.10424
0.10299
0.099633
0.098003
0.091467
0.089966
0.081091
0.079037
0.068399
0.065397
0.1056
0.10557
0.10438
0.10312
0.09972
0.098067
0.091479
0.089914
0.081007
0.078872
0.068248
0.065155
0.10575
0.10572
0.10452
0.10325
0.09981
0.098133
0.091494
0.089863
0.080924
0.078707
0.068096
0.064913
0.10591
0.10588
0.10467
0.10338
0.099904
0.098202
0.091512
0.089814
0.080843
0.078543
0.067944
0.06467
0.10607
0.10605
0.10482
0.10352
0.1
0.098274
0.091533
0.089766
0.080763
0.078378
0.067792
0.064426
0.10624
0.10621
0.10497
0.10366
0.1001
0.09835
0.091557
0.08972
0.080685
0.078213
0.06764
0.064181
0.10641
0.10639
0.10513
0.1038
0.10021
0.098429
0.091585
0.089677
0.080609
0.078049
0.067487
0.063935
0.10658
0.10656
0.1053
0.10396
0.10032
0.098511
0.091617
0.089636
0.080534
0.077885
0.067334
0.063688
0.10676
0.10675
0.10547
0.10411
0.10044
0.098597
0.091652
0.089596
0.080461
0.077721
0.06718
0.06344
0.10695
0.10694
0.10565
0.10428
0.10056
0.098687
0.091692
0.08956
0.080391
0.077558
0.067026
0.063191
0.10714
0.10714
0.10583
0.10445
0.10069
0.098782
0.091736
0.089526
0.080322
0.077395
0.066871
0.06294
0.10734
0.10734
0.10602
0.10462
0.10082
0.098881
0.091784
0.089495
0.080256
0.077232
0.066716
0.062687
0.10755
0.10755
0.10621
0.10481
0.10096
0.098984
0.091837
0.089467
0.080191
0.07707
0.06656
0.062433
0.10776
0.10776
0.10642
0.10499
0.1011
0.099093
0.091895
0.089442
0.08013
0.076908
0.066403
0.062177
0.10798
0.10799
0.10662
0.10519
0.10126
0.099206
0.091958
0.089421
0.080071
0.076747
0.066246
0.061919
0.1082
0.10822
0.10684
0.10539
0.10142
0.099325
0.092026
0.089403
0.080014
0.076587
0.066087
0.061659
0.10844
0.10846
0.10707
0.10561
0.10158
0.09945
0.0921
0.089388
0.07996
0.076427
0.065928
0.061397
0.10868
0.10871
0.1073
0.10583
0.10175
0.09958
0.092179
0.089378
0.079909
0.076268
0.065768
0.061133
0.10893
0.10896
0.10754
0.10605
0.10194
0.099717
0.092265
0.089371
0.079862
0.07611
0.065608
0.060866
0.10918
0.10923
0.10779
0.10629
0.10213
0.099861
0.092356
0.089369
0.079817
0.075953
0.065446
0.060596
0.10945
0.1095
0.10805
0.10653
0.10232
0.10001
0.092454
0.089372
0.079775
0.075796
0.065282
0.060324
0.10972
0.10978
0.10832
0.10679
0.10253
0.10017
0.092559
0.089379
0.079737
0.07564
0.065118
0.060049
0.11001
0.11008
0.10859
0.10705
0.10275
0.10033
0.09267
0.08939
0.079702
0.075485
0.064952
0.05977
0.1103
0.11038
0.10888
0.10733
0.10297
0.1005
0.092789
0.089407
0.07967
0.075331
0.064785
0.059489
0.1106
0.11069
0.10918
0.10761
0.10321
0.10068
0.092915
0.089428
0.079642
0.075178
0.064617
0.059204
0.11092
0.11101
0.10949
0.1079
0.10345
0.10087
0.093048
0.089455
0.079617
0.075026
0.064446
0.058915
0.11124
0.11135
0.10981
0.10821
0.10371
0.10107
0.093189
0.089487
0.079596
0.074875
0.064274
0.058622
0.11157
0.11169
0.11014
0.10852
0.10397
0.10128
0.093338
0.089525
0.079579
0.074724
0.0641
0.058325
0.11192
0.11205
0.11048
0.10885
0.10425
0.10149
0.093495
0.089568
0.079566
0.074574
0.063924
0.058023
0.11227
0.11241
0.11083
0.10919
0.10454
0.10171
0.09366
0.089616
0.079556
0.074425
0.063746
0.057717
0.11264
0.11279
0.1112
0.10954
0.10484
0.10195
0.093834
0.089671
0.079549
0.074276
0.063565
0.057406
0.11301
0.11318
0.11158
0.1099
0.10515
0.10219
0.094016
0.089731
0.079547
0.074128
0.063381
0.057089
0.1134
0.11359
0.11197
0.11028
0.10547
0.10244
0.094207
0.089797
0.079548
0.07398
0.063194
0.056767
0.1138
0.114
0.11237
0.11067
0.10581
0.1027
0.094407
0.089869
0.079552
0.073832
0.063004
0.056439
0.11421
0.11443
0.11279
0.11107
0.10616
0.10298
0.094616
0.089947
0.079559
0.073684
0.06281
0.056104
0.11464
0.11488
0.11322
0.11148
0.10652
0.10326
0.094834
0.09003
0.07957
0.073536
0.062612
0.055762
0.11508
0.11533
0.11367
0.11191
0.1069
0.10355
0.095061
0.090119
0.079584
0.073387
0.06241
0.055413
0.11553
0.1158
0.11413
0.11235
0.10728
0.10386
0.095297
0.090214
0.079601
0.073237
0.062203
0.055056
0.11599
0.11628
0.1146
0.11281
0.10769
0.10418
0.095542
0.090314
0.07962
0.073086
0.061991
0.054691
0.11646
0.11678
0.11509
0.11328
0.1081
0.1045
0.095797
0.09042
0.079641
0.072934
0.061773
0.054317
0.11695
0.11729
0.11559
0.11376
0.10854
0.10484
0.096061
0.090531
0.079664
0.072779
0.061549
0.053933
0.11746
0.11781
0.11611
0.11426
0.10898
0.10519
0.096334
0.090646
0.079689
0.072622
0.061318
0.05354
0.11797
0.11835
0.11664
0.11477
0.10944
0.10555
0.096616
0.090767
0.079715
0.072461
0.06108
0.053136
0.1185
0.1189
0.11719
0.1153
0.10992
0.10592
0.096907
0.090891
0.079742
0.072297
0.060833
0.05272
0.11904
0.11947
0.11776
0.11584
0.11041
0.10631
0.097207
0.09102
0.079769
0.072129
0.060578
0.052292
0.1196
0.12006
0.11834
0.1164
0.11091
0.1067
0.097517
0.091153
0.079796
0.071956
0.060313
0.051852
0.12018
0.12066
0.11894
0.11698
0.11144
0.10711
0.097835
0.09129
0.079822
0.071777
0.060038
0.051397
0.12076
0.12127
0.11956
0.11757
0.11198
0.10753
0.098163
0.091429
0.079847
0.071593
0.059752
0.050928
0.12137
0.12191
0.1202
0.11818
0.11253
0.10796
0.098499
0.091572
0.079871
0.071401
0.059454
0.050444
0.12199
0.12256
0.12085
0.11881
0.11311
0.10841
0.098844
0.091718
0.079892
0.071202
0.059143
0.049943
0.12263
0.12323
0.12153
0.11946
0.1137
0.10887
0.099199
0.091865
0.07991
0.070995
0.058818
0.049424
0.12328
0.12392
0.12222
0.12013
0.11431
0.10934
0.099563
0.092015
0.079925
0.070778
0.058479
0.048888
0.12395
0.12462
0.12294
0.12081
0.11494
0.10983
0.099936
0.092167
0.079936
0.070551
0.058124
0.048331
0.12465
0.12535
0.12368
0.12152
0.11559
0.11033
0.10032
0.092321
0.079942
0.070313
0.057752
0.047755
0.12536
0.1261
0.12445
0.12225
0.11626
0.11084
0.10071
0.092476
0.079943
0.070064
0.057363
0.047156
0.1261
0.12688
0.12524
0.12301
0.11696
0.11138
0.10111
0.092633
0.079939
0.069803
0.056954
0.046534
0.12686
0.12768
0.12606
0.12379
0.11768
0.11193
0.10153
0.092791
0.079929
0.069528
0.056526
0.045888
0.12764
0.12851
0.12691
0.12461
0.11843
0.1125
0.10195
0.092952
0.079913
0.069239
0.056077
0.045217
0.12846
0.12937
0.1278
0.12545
0.1192
0.11309
0.10239
0.093113
0.079889
0.068935
0.055606
0.044518
0.1293
0.13026
0.12872
0.12633
0.12001
0.1137
0.10284
0.093277
0.079859
0.068616
0.055112
0.043792
0.13018
0.13119
0.12968
0.12724
0.12085
0.11434
0.10331
0.093444
0.079821
0.06828
0.054593
0.043035
0.13109
0.13216
0.13068
0.1282
0.12173
0.11501
0.10379
0.093613
0.079775
0.067926
0.054049
0.042247
0.13204
0.13317
0.13173
0.1292
0.12265
0.1157
0.10429
0.093785
0.079721
0.067555
0.053478
0.041426
0.13304
0.13423
0.13283
0.13025
0.12361
0.11642
0.10481
0.093961
0.079658
0.067163
0.052878
0.040571
0.13408
0.13533
0.13399
0.13135
0.12462
0.11718
0.10535
0.09414
0.079585
0.066752
0.052249
0.039679
0.13516
0.1365
0.13521
0.13251
0.12568
0.11798
0.1059
0.094323
0.079501
0.066318
0.051587
0.038748
0.1363
0.13772
0.13649
0.13374
0.12679
0.11881
0.10648
0.094511
0.079407
0.06586
0.050892
0.037777
0.1375
0.13901
0.13784
0.13503
0.12797
0.11969
0.10708
0.094702
0.079299
0.065377
0.050161
0.036763
0.13876
0.14036
0.13927
0.1364
0.12921
0.12062
0.10771
0.094896
0.079176
0.064865
0.049391
0.035704
0.14008
0.1418
0.14078
0.13784
0.13051
0.12159
0.10836
0.095092
0.079035
0.064321
0.048579
0.034596
0.14146
0.14331
0.14238
0.13938
0.13189
0.12262
0.10904
0.095288
0.078874
0.063742
0.047721
0.033436
0.14292
0.1449
0.14407
0.141
0.13334
0.12369
0.10973
0.095483
0.078687
0.063123
0.046812
0.032221
0.14444
0.14658
0.14585
0.14272
0.13487
0.12482
0.11045
0.095672
0.078471
0.062458
0.045846
0.030945
0.14604
0.14836
0.14774
0.14454
0.13648
0.12601
0.11119
0.095851
0.078219
0.061742
0.044818
0.029604
0.14771
0.15023
0.14974
0.14647
0.13818
0.12725
0.11195
0.096015
0.077924
0.060965
0.04372
0.028192
0.14945
0.15219
0.15184
0.14851
0.13996
0.12855
0.11272
0.096158
0.077578
0.060121
0.042543
0.026701
0.15126
0.15426
0.15407
0.15066
0.14183
0.12989
0.11349
0.096272
0.077171
0.059198
0.041279
0.025122
0.15314
0.15642
0.15641
0.15293
0.14379
0.13129
0.11427
0.096348
0.076693
0.058187
0.039916
0.023447
0.15509
0.15869
0.15887
0.15533
0.14584
0.13273
0.11503
0.096375
0.076133
0.057075
0.038444
0.021666
0.15709
0.16106
0.16147
0.15785
0.14798
0.13421
0.11578
0.096342
0.075476
0.055851
0.03685
0.019767
0.15916
0.16354
0.1642
0.1605
0.15021
0.13572
0.1165
0.096237
0.074711
0.054501
0.035123
0.017738
0.16127
0.16613
0.16707
0.16329
0.15253
0.13726
0.11719
0.096043
0.073821
0.053012
0.033248
0.015566
0.16343
0.16883
0.1701
0.16623
0.15495
0.13882
0.11781
0.095746
0.072791
0.05137
0.031214
0.013241
0.16564
0.17165
0.1733
0.16933
0.15746
0.14039
0.11837
0.095325
0.071604
0.049559
0.029008
0.010749
0.16789
0.17461
0.17669
0.1726
0.16007
0.14196
0.11884
0.09476
0.070238
0.047565
0.026617
0.0080811
0.17017
0.17771
0.18029
0.17607
0.16278
0.14351
0.1192
0.094022
0.068671
0.045367
0.024026
0.0052259
0.17248
0.18098
0.18415
0.17974
0.16559
0.14503
0.11942
0.093079
0.066872
0.042945
0.02122
0.0021745
0.17481
0.18443
0.18829
0.18366
0.16851
0.14649
0.11945
0.091889
0.064806
0.040268
0.018181
-0.0010827
0.17715
0.18809
0.19276
0.18784
0.17153
0.14786
0.11926
0.090398
0.062425
0.037301
0.014883
-0.0045567
0.17946
0.19197
0.19759
0.19229
0.17462
0.14908
0.11877
0.088542
0.059672
0.034
0.011296
-0.0082613
0.18169
0.19608
0.20281
0.19704
0.17775
0.15009
0.11791
0.086239
0.056479
0.030307
0.0073808
-0.012215
0.18378
0.20041
0.20845
0.20206
0.18087
0.15079
0.11657
0.083395
0.052763
0.026158
0.0030914
-0.016441
0.18559
0.20494
0.21449
0.20732
0.18387
0.15108
0.11463
0.079904
0.048439
0.021486
-0.0016215
-0.020966
0.18696
0.20959
0.2209
0.21274
0.18662
0.15079
0.11195
0.075652
0.043421
0.016227
-0.0068027
-0.025813
0.18767
0.21424
0.22756
0.21816
0.18893
0.14972
0.10836
0.070523
0.037633
0.010332
-0.012481
-0.030996
0.18742
0.21869
0.23429
0.22334
0.19052
0.14766
0.1037
0.06441
0.031018
0.0037831
-0.018654
-0.036502
0.18585
0.22261
0.24073
0.22791
0.19106
0.14431
0.097785
0.057217
0.023549
-0.0034034
-0.025281
-0.042283
0.18253
0.22553
0.24632
0.23128
0.19003
0.13934
0.09042
0.048871
0.01523
-0.011171
-0.032275
-0.04825
0.17699
0.22666
0.25004
0.2325
0.18678
0.13235
0.081427
0.039326
0.0060937
-0.01943
-0.039512
-0.054275
0.16879
0.2248
0.25024
0.23012
0.18033
0.12288
0.070647
0.028582
-0.0037859
-0.028071
-0.046853
-0.060216
0.15763
0.21812
0.24426
0.22188
0.16936
0.11035
0.057962
0.016715
-0.014278
-0.036956
-0.054155
-0.065939
0.14355
0.20398
0.22807
0.2045
0.15201
0.094051
0.0433
0.0038971
-0.025164
-0.045902
-0.061276
-0.071338
0.12731
0.17913
0.19633
0.17355
0.12583
0.073067
0.026556
-0.0096439
-0.036151
-0.054679
-0.068071
-0.076345
0.11063
0.14054
0.14343
0.12412
0.087979
0.046185
0.0074351
-0.023785
-0.046983
-0.063059
-0.074408
-0.080927
0.095732
0.085787
0.065574
0.052546
0.0358
0.011942
-0.014704
-0.038698
-0.057604
-0.070941
-0.080235
-0.085116
0.085504
0.010075
-0.041898
-0.044498
-0.033629
-0.031892
-0.041256
-0.055174
-0.068458
-0.0786
-0.085781
-0.089175
0.094006
-0.079297
-0.17337
-0.16265
-0.1191
-0.086302
-0.073811
-0.074706
-0.080803
-0.087067
-0.0919
-0.093867
0.13384
-0.15995
-0.30291
-0.27892
-0.20451
-0.1426
-0.10873
-0.0962
-0.094579
-0.096581
-0.098898
-0.099363
0.10283
0.063447
0.053345
0.047326
0.043175
0.040073
0.037595
0.035472
0.033657
0.031829
0.030372
0.027987
0.12218
0.078708
0.066157
0.05815
0.052689
0.048659
0.04547
0.04276
0.040465
0.038159
0.036374
0.033591
0.10952
0.073605
0.062248
0.05437
0.04898
0.04502
0.041908
0.039276
0.037074
0.034852
0.033195
0.030495
0.10446
0.073265
0.062239
0.054271
0.048745
0.044673
0.041476
0.038777
0.036534
0.034266
0.032608
0.029785
0.1038
0.075412
0.064229
0.056046
0.050276
0.046
0.042636
0.039797
0.037444
0.035065
0.033338
0.030358
0.10313
0.077202
0.065949
0.057634
0.051667
0.047215
0.043704
0.040739
0.038286
0.035809
0.034015
0.030923
0.10199
0.078457
0.06728
0.058916
0.052804
0.048208
0.044572
0.0415
0.03896
0.036406
0.034552
0.031392
0.10078
0.079481
0.068468
0.060107
0.053883
0.049159
0.045408
0.042238
0.039617
0.036997
0.035087
0.031897
0.099642
0.080359
0.06958
0.061265
0.054958
0.050121
0.046262
0.043
0.0403
0.037626
0.035662
0.03248
0.098555
0.081085
0.070602
0.062377
0.056021
0.051089
0.047132
0.043784
0.04101
0.03829
0.036279
0.033141
0.0975
0.081658
0.071523
0.063429
0.057059
0.052054
0.048012
0.044587
0.041745
0.03899
0.036938
0.033878
0.096476
0.082092
0.072342
0.064414
0.058065
0.053011
0.048899
0.045407
0.042505
0.039725
0.03764
0.034686
0.095484
0.082403
0.073059
0.065326
0.05903
0.05395
0.049786
0.046239
0.043285
0.040491
0.03838
0.035558
0.094527
0.082608
0.073678
0.06616
0.059944
0.054863
0.050664
0.047076
0.04408
0.041282
0.039153
0.03648
0.093606
0.082721
0.074204
0.066915
0.060803
0.055742
0.051525
0.04791
0.044883
0.042089
0.039948
0.037436
0.092722
0.082756
0.074643
0.067591
0.0616
0.056579
0.052361
0.048732
0.045684
0.042903
0.040757
0.038409
0.091876
0.082728
0.075002
0.06819
0.062335
0.05737
0.053166
0.049536
0.046476
0.043716
0.041568
0.039381
0.091068
0.082646
0.07529
0.068717
0.063006
0.05811
0.053934
0.050314
0.047251
0.044517
0.042371
0.040336
0.090296
0.082521
0.075515
0.069176
0.063615
0.0588
0.054662
0.051061
0.048004
0.045299
0.043158
0.04126
0.08956
0.082361
0.075683
0.069573
0.064164
0.059437
0.055346
0.051774
0.048728
0.046056
0.043921
0.042141
0.088858
0.082172
0.075802
0.069912
0.064657
0.060023
0.055987
0.052449
0.049421
0.046782
0.044653
0.042972
0.088188
0.081962
0.075877
0.0702
0.065096
0.06056
0.056584
0.053086
0.050079
0.047473
0.045351
0.043745
0.087549
0.081733
0.075915
0.07044
0.065486
0.061049
0.057137
0.053683
0.050701
0.048126
0.046011
0.044459
0.086938
0.081491
0.075921
0.070639
0.06583
0.061493
0.057648
0.05424
0.051287
0.048741
0.046632
0.045111
0.086354
0.081238
0.075898
0.070799
0.066132
0.061895
0.058118
0.054759
0.051835
0.049315
0.047213
0.045703
0.085795
0.080977
0.075852
0.070926
0.066396
0.062257
0.05855
0.055239
0.052348
0.049851
0.047755
0.046238
0.085258
0.08071
0.075784
0.071022
0.066624
0.062583
0.058945
0.055684
0.052825
0.050348
0.048259
0.046718
0.084742
0.080438
0.075698
0.071092
0.06682
0.062874
0.059306
0.056094
0.053268
0.050808
0.048725
0.047149
0.084246
0.080163
0.075596
0.071138
0.066987
0.063134
0.059635
0.056471
0.053679
0.051232
0.049157
0.047535
0.083767
0.079887
0.075481
0.071162
0.067128
0.063364
0.059933
0.056817
0.054059
0.051624
0.049555
0.047882
0.083306
0.079609
0.075355
0.071167
0.067244
0.063567
0.060204
0.057134
0.05441
0.051984
0.049923
0.048192
0.082859
0.079331
0.075219
0.071155
0.067339
0.063746
0.060448
0.057424
0.054734
0.052315
0.050262
0.048473
0.082427
0.079054
0.075074
0.071128
0.067413
0.063902
0.060668
0.057688
0.055032
0.05262
0.050575
0.048726
0.082009
0.078778