/*--------------------------------*- C++ -*----------------------------------*\
  =========                 |
  \\      /  F ield         | OpenFOAM: The Open Source CFD Toolbox
   \\    /   O peration     | Website:  https://openfoam.org
    \\  /    A nd           | Version:  6.0
     \\/     M anipulation  |
\*---------------------------------------------------------------------------*/
FoamFile
{
    version     2.0;
    format      ascii;
    class       volScalarField;
    location    "2.48";
    object      p;
}
// * * * * * * * * * * * * * * * * * * * * * * * * * * * * * * * * * * * * * //

dimensions      [0 2 -2 0 0 0 0];

internalField   nonuniform List<scalar> 
13500
(
0.097701
0.097727
0.097257
0.096778
0.095861
0.095366
0.094544
0.095287
0.096301
0.10052
0.12225
0.16506
0.097701
0.097728
0.097258
0.096779
0.095861
0.095367
0.094544
0.095287
0.096297
0.10058
0.12157
0.16
0.097702
0.097728
0.097258
0.096779
0.09586
0.095367
0.094541
0.095286
0.096288
0.10063
0.12069
0.15551
0.097702
0.097729
0.097259
0.09678
0.09586
0.095367
0.094538
0.095284
0.096272
0.10065
0.11971
0.152
0.097704
0.097731
0.09726
0.096781
0.09586
0.095367
0.094535
0.095281
0.096251
0.10066
0.11867
0.14905
0.097705
0.097732
0.097262
0.096783
0.09586
0.095367
0.09453
0.095277
0.096225
0.10065
0.1176
0.14641
0.097707
0.097734
0.097263
0.096784
0.095861
0.095367
0.094525
0.095271
0.096194
0.10063
0.11652
0.14402
0.09771
0.097737
0.097266
0.096786
0.095861
0.095366
0.09452
0.095265
0.096158
0.1006
0.11544
0.14183
0.097712
0.097739
0.097268
0.096788
0.095861
0.095366
0.094514
0.095257
0.096117
0.10056
0.11439
0.13981
0.097716
0.097743
0.097271
0.09679
0.095862
0.095365
0.094507
0.095248
0.09607
0.1005
0.11338
0.13792
0.097719
0.097746
0.097274
0.096792
0.095862
0.095363
0.0945
0.095238
0.096019
0.10043
0.1124
0.13615
0.097723
0.09775
0.097277
0.096795
0.095863
0.095362
0.094492
0.095226
0.095962
0.10035
0.11146
0.13448
0.097728
0.097754
0.097281
0.096798
0.095864
0.095361
0.094484
0.095214
0.0959
0.10026
0.11056
0.13289
0.097732
0.097759
0.097285
0.096801
0.095865
0.095359
0.094475
0.0952
0.095832
0.10016
0.10971
0.13139
0.097738
0.097763
0.09729
0.096804
0.095866
0.095357
0.094465
0.095184
0.095759
0.10005
0.10889
0.12996
0.097743
0.097769
0.097294
0.096808
0.095867
0.095355
0.094455
0.095168
0.095681
0.099934
0.10811
0.12859
0.097749
0.097775
0.097299
0.096811
0.095869
0.095353
0.094445
0.09515
0.095597
0.099815
0.10736
0.12728
0.097756
0.097781
0.097305
0.096815
0.09587
0.09535
0.094433
0.09513
0.095509
0.099693
0.10665
0.12602
0.097763
0.097787
0.097311
0.09682
0.095872
0.095348
0.094422
0.095109
0.095415
0.099568
0.10596
0.12481
0.09777
0.097794
0.097317
0.096824
0.095873
0.095345
0.094409
0.095087
0.095316
0.099443
0.10529
0.12364
0.097778
0.097801
0.097324
0.096829
0.095875
0.095342
0.094396
0.095063
0.095212
0.099317
0.10464
0.12251
0.097786
0.097809
0.097331
0.096834
0.095877
0.095338
0.094383
0.095038
0.095104
0.099191
0.10401
0.12141
0.097795
0.097817
0.097338
0.096839
0.095879
0.095335
0.094369
0.095011
0.094992
0.099066
0.1034
0.12035
0.097804
0.097826
0.097346
0.096844
0.095882
0.095331
0.094355
0.094983
0.094875
0.098942
0.1028
0.11932
0.097814
0.097835
0.097354
0.09685
0.095884
0.095327
0.09434
0.094953
0.094756
0.09882
0.10221
0.11831
0.097824
0.097844
0.097362
0.096856
0.095887
0.095323
0.094324
0.094922
0.094633
0.098699
0.10162
0.11733
0.097834
0.097854
0.097371
0.096862
0.09589
0.095318
0.094308
0.094889
0.094507
0.09858
0.10105
0.11637
0.097845
0.097864
0.097381
0.096869
0.095892
0.095314
0.094292
0.094854
0.094379
0.098462
0.10048
0.11544
0.097857
0.097875
0.09739
0.096875
0.095895
0.095309
0.094275
0.094818
0.094249
0.098346
0.099925
0.11453
0.097869
0.097886
0.0974
0.096883
0.095899
0.095304
0.094258
0.09478
0.094116
0.09823
0.099371
0.11363
0.097881
0.097898
0.097411
0.09689
0.095902
0.095299
0.09424
0.094741
0.093983
0.098115
0.098822
0.11276
0.097894
0.09791
0.097422
0.096897
0.095906
0.095294
0.094221
0.0947
0.093848
0.098001
0.098279
0.1119
0.097908
0.097922
0.097433
0.096905
0.095909
0.095288
0.094202
0.094658
0.093712
0.097887
0.097741
0.11106
0.097922
0.097935
0.097445
0.096913
0.095913
0.095282
0.094183
0.094615
0.093575
0.097773
0.097208
0.11023
0.097936
0.097949
0.097457
0.096922
0.095917
0.095276
0.094163
0.09457
0.093438
0.097659
0.09668
0.10942
0.097951
0.097963
0.09747
0.096931
0.095922
0.09527
0.094142
0.094525
0.0933
0.097543
0.096158
0.10863
0.097966
0.097977
0.097483
0.09694
0.095926
0.095264
0.094121
0.094478
0.093162
0.097427
0.09564
0.10785
0.097982
0.097992
0.097496
0.096949
0.095931
0.095257
0.0941
0.09443
0.093025
0.09731
0.095129
0.10709
0.097999
0.098007
0.09751
0.096959
0.095936
0.09525
0.094078
0.094382
0.092887
0.097192
0.094623
0.10634
0.098016
0.098023
0.097525
0.096969
0.095941
0.095244
0.094055
0.094332
0.092749
0.097072
0.094123
0.1056
0.098033
0.09804
0.09754
0.096979
0.095946
0.095236
0.094032
0.094282
0.092612
0.09695
0.093629
0.10488
0.098052
0.098056
0.097555
0.09699
0.095951
0.095229
0.094008
0.094232
0.092475
0.096826
0.093141
0.10417
0.09807
0.098074
0.097571
0.097001
0.095957
0.095222
0.093984
0.094181
0.092337
0.096701
0.09266
0.10348
0.098089
0.098092
0.097587
0.097012
0.095963
0.095214
0.09396
0.094129
0.092201
0.096573
0.092185
0.10279
0.098109
0.09811
0.097604
0.097024
0.095969
0.095207
0.093935
0.094078
0.092064
0.096443
0.091718
0.10212
0.098129
0.098129
0.097621
0.097036
0.095976
0.095199
0.093909
0.094026
0.091927
0.096311
0.091257
0.10147
0.09815
0.098149
0.097639
0.097048
0.095982
0.095191
0.093883
0.093974
0.09179
0.096176
0.090803
0.10082
0.098172
0.098169
0.097657
0.09706
0.095989
0.095183
0.093856
0.093922
0.091654
0.096039
0.090356
0.10019
0.098194
0.098189
0.097675
0.097074
0.095996
0.095175
0.093829
0.09387
0.091517
0.0959
0.089916
0.099565
0.098216
0.09821
0.097695
0.097087
0.096003
0.095167
0.093802
0.093818
0.091381
0.095759
0.089483
0.098954
0.098239
0.098232
0.097714
0.097101
0.096011
0.095159
0.093773
0.093767
0.091244
0.095615
0.089057
0.098354
0.098263
0.098254
0.097734
0.097115
0.096018
0.095151
0.093745
0.093715
0.091107
0.095469
0.088638
0.097765
0.098287
0.098277
0.097755
0.097129
0.096026
0.095142
0.093716
0.093664
0.090969
0.095321
0.088226
0.097186
0.098312
0.0983
0.097776
0.097144
0.096035
0.095134
0.093686
0.093613
0.090832
0.095171
0.087822
0.096617
0.098338
0.098324
0.097798
0.097159
0.096043
0.095126
0.093656
0.093562
0.090694
0.095018
0.087424
0.096058
0.098364
0.098349
0.09782
0.097175
0.096052
0.095117
0.093626
0.093512
0.090556
0.094864
0.087033
0.095509
0.098391
0.098374
0.097843
0.097191
0.096061
0.095109
0.093595
0.093461
0.090417
0.094707
0.086648
0.094969
0.098418
0.098399
0.097866
0.097208
0.09607
0.095101
0.093564
0.093411
0.090279
0.094549
0.086271
0.094438
0.098446
0.098426
0.09789
0.097225
0.096079
0.095093
0.093532
0.093362
0.090139
0.094388
0.0859
0.093915
0.098475
0.098453
0.097914
0.097242
0.096089
0.095085
0.0935
0.093312
0.09
0.094226
0.085535
0.093402
0.098504
0.09848
0.097939
0.09726
0.096099
0.095077
0.093467
0.093263
0.08986
0.094062
0.085177
0.092896
0.098534
0.098508
0.097964
0.097278
0.096109
0.095069
0.093434
0.093214
0.08972
0.093896
0.084825
0.092399
0.098564
0.098537
0.09799
0.097297
0.09612
0.095061
0.0934
0.093165
0.089579
0.093729
0.084479
0.09191
0.098595
0.098566
0.098017
0.097316
0.09613
0.095053
0.093366
0.093117
0.089438
0.09356
0.084139
0.091428
0.098627
0.098596
0.098044
0.097335
0.096141
0.095046
0.093332
0.093068
0.089297
0.09339
0.083805
0.090954
0.09866
0.098627
0.098072
0.097355
0.096153
0.095039
0.093297
0.09302
0.089156
0.093218
0.083477
0.090487
0.098693
0.098658
0.0981
0.097376
0.096164
0.095031
0.093262
0.092972
0.089015
0.093045
0.083154
0.090027
0.098727
0.09869
0.098129
0.097397
0.096176
0.095025
0.093227
0.092924
0.088873
0.092871
0.082837
0.089574
0.098761
0.098723
0.098158
0.097418
0.096188
0.095018
0.093191
0.092876
0.088732
0.092695
0.082526
0.089128
0.098797
0.098756
0.098188
0.09744
0.0962
0.095011
0.093155
0.092828
0.08859
0.092519
0.08222
0.088688
0.098833
0.09879
0.098219
0.097463
0.096213
0.095005
0.093118
0.092779
0.088448
0.092341
0.081919
0.088254
0.098869
0.098825
0.09825
0.097486
0.096226
0.094999
0.093081
0.092731
0.088307
0.092162
0.081623
0.087827
0.098907
0.098861
0.098282
0.097509
0.096239
0.094993
0.093044
0.092683
0.088165
0.091982
0.081332
0.087406
0.098945
0.098897
0.098315
0.097533
0.096253
0.094987
0.093006
0.092635
0.088024
0.091802
0.081046
0.08699
0.098984
0.098933
0.098348
0.097558
0.096266
0.094982
0.092968
0.092587
0.087883
0.09162
0.080764
0.086581
0.099023
0.098971
0.098381
0.097583
0.09628
0.094977
0.09293
0.092538
0.087742
0.091438
0.080487
0.086177
0.099063
0.099009
0.098416
0.097609
0.096295
0.094973
0.092892
0.09249
0.087601
0.091254
0.080215
0.085778
0.099104
0.099048
0.098451
0.097635
0.096309
0.094968
0.092853
0.092441
0.087461
0.091071
0.079947
0.085385
0.099146
0.099088
0.098486
0.097662
0.096324
0.094964
0.092814
0.092392
0.087321
0.090886
0.079684
0.084997
0.099189
0.099129
0.098523
0.097689
0.09634
0.09496
0.092775
0.092343
0.087182
0.090701
0.079425
0.084614
0.099232
0.09917
0.09856
0.097717
0.096355
0.094957
0.092735
0.092294
0.087043
0.090515
0.07917
0.084235
0.099276
0.099212
0.098597
0.097746
0.096371
0.094954
0.092696
0.092244
0.086904
0.090329
0.078919
0.083862
0.099321
0.099255
0.098636
0.097775
0.096387
0.094951
0.092656
0.092195
0.086766
0.090142
0.078672
0.083493
0.099367
0.099299
0.098675
0.097805
0.096404
0.094949
0.092616
0.092145
0.086628
0.089955
0.078428
0.083129
0.099413
0.099343
0.098715
0.097835
0.096421
0.094947
0.092575
0.092094
0.086492
0.089767
0.078189
0.082769
0.099461
0.099389
0.098755
0.097866
0.096438
0.094946
0.092535
0.092044
0.086355
0.089579
0.077953
0.082414
0.099509
0.099435
0.098796
0.097898
0.096456
0.094944
0.092494
0.091993
0.08622
0.089391
0.07772
0.082062
0.099558
0.099482
0.098838
0.097931
0.096474
0.094944
0.092454
0.091942
0.086085
0.089203
0.077491
0.081715
0.099608
0.09953
0.098881
0.097964
0.096492
0.094943
0.092413
0.091891
0.08595
0.089014
0.077266
0.081372
0.099659
0.099579
0.098924
0.097997
0.096511
0.094944
0.092372
0.091839
0.085817
0.088825
0.077044
0.081032
0.09971
0.099628
0.098969
0.098032
0.09653
0.094944
0.092331
0.091787
0.085684
0.088635
0.076825
0.080697
0.099763
0.099679
0.099014
0.098067
0.09655
0.094945
0.09229
0.091735
0.085552
0.088446
0.076609
0.080365
0.099816
0.09973
0.099059
0.098103
0.09657
0.094947
0.092249
0.091682
0.08542
0.088256
0.076396
0.080037
0.099871
0.099783
0.099106
0.09814
0.09659
0.094949
0.092208
0.091629
0.08529
0.088066
0.076186
0.079712
0.099926
0.099836
0.099154
0.098177
0.096611
0.094951
0.092167
0.091576
0.08516
0.087876
0.075978
0.07939
0.099982
0.09989
0.099202
0.098215
0.096633
0.094954
0.092126
0.091522
0.085031
0.087686
0.075774
0.079072
0.10004
0.099946
0.099251
0.098254
0.096655
0.094957
0.092085
0.091468
0.084903
0.087496
0.075572
0.078757
0.1001
0.1
0.099301
0.098294
0.096677
0.094961
0.092044
0.091413
0.084776
0.087305
0.075373
0.078444
0.10016
0.10006
0.099352
0.098335
0.0967
0.094966
0.092003
0.091358
0.084649
0.087115
0.075176
0.078135
0.10022
0.10012
0.099404
0.098376
0.096723
0.094971
0.091962
0.091303
0.084524
0.086925
0.074982
0.077829
0.10028
0.10018
0.099457
0.098418
0.096747
0.094977
0.091921
0.091248
0.084399
0.086734
0.07479
0.077526
0.10034
0.10024
0.099511
0.098461
0.096772
0.094983
0.09188
0.091192
0.084276
0.086544
0.0746
0.077225
0.1004
0.1003
0.099565
0.098505
0.096797
0.09499
0.091839
0.091135
0.084153
0.086354
0.074413
0.076927
0.10047
0.10036
0.099621
0.09855
0.096822
0.094997
0.091799
0.091079
0.084031
0.086163
0.074228
0.076631
0.10053
0.10043
0.099678
0.098596
0.096849
0.095005
0.091759
0.091022
0.08391
0.085973
0.074044
0.076338
0.1006
0.10049
0.099736
0.098643
0.096875
0.095014
0.091719
0.090964
0.08379
0.085782
0.073863
0.076047
0.10067
0.10056
0.099795
0.09869
0.096903
0.095023
0.091679
0.090906
0.08367
0.085592
0.073684
0.075758
0.10074
0.10063
0.099855
0.098739
0.096931
0.095033
0.091639
0.090848
0.083552
0.085402
0.073506
0.075472
0.10081
0.10069
0.099916
0.098789
0.09696
0.095044
0.0916
0.09079
0.083435
0.085211
0.07333
0.075187
0.10088
0.10076
0.099979
0.09884
0.09699
0.095056
0.091561
0.090731
0.083318
0.085021
0.073156
0.074904
0.10095
0.10084
0.10004
0.098892
0.09702
0.095068
0.091522
0.090672
0.083202
0.084831
0.072983
0.074624
0.10103
0.10091
0.10011
0.098945
0.097051
0.095081
0.091483
0.090612
0.083088
0.084641
0.072812
0.074345
0.10111
0.10098
0.10017
0.098999
0.097083
0.095095
0.091445
0.090552
0.082974
0.084451
0.072642
0.074068
0.10118
0.10106
0.10024
0.099054
0.097116
0.095109
0.091408
0.090492
0.082861
0.084261
0.072474
0.073792
0.10126
0.10114
0.10031
0.099111
0.09715
0.095125
0.09137
0.090431
0.082749
0.084071
0.072307
0.073518
0.10134
0.10121
0.10038
0.099169
0.097184
0.095141
0.091334
0.090371
0.082638
0.083881
0.072141
0.073245
0.10142
0.10129
0.10045
0.099228
0.09722
0.095158
0.091297
0.090309
0.082527
0.083691
0.071976
0.072974
0.10151
0.10138
0.10053
0.099289
0.097256
0.095176
0.091262
0.090248
0.082418
0.083501
0.071812
0.072704
0.10159
0.10146
0.1006
0.099351
0.097294
0.095195
0.091226
0.090186
0.082309
0.083311
0.07165
0.072435
0.10168
0.10155
0.10068
0.099414
0.097332
0.095215
0.091192
0.090124
0.082201
0.083121
0.071488
0.072167
0.10177
0.10163
0.10076
0.099479
0.097372
0.095236
0.091158
0.090062
0.082095
0.082931
0.071327
0.0719
0.10186
0.10172
0.10083
0.099546
0.097413
0.095259
0.091125
0.09
0.081989
0.082742
0.071167
0.071634
0.10195
0.10181
0.10092
0.099614
0.097455
0.095282
0.091093
0.089938
0.081883
0.082552
0.071008
0.071369
0.10204
0.10191
0.101
0.099684
0.097498
0.095306
0.091061
0.089875
0.081779
0.082362
0.070849
0.071105
0.10214
0.102
0.10109
0.099756
0.097543
0.095332
0.091031
0.089812
0.081675
0.082173
0.070691
0.070841
0.10224
0.1021
0.10117
0.099829
0.097589
0.095359
0.091001
0.089749
0.081573
0.081983
0.070533
0.070578
0.10234
0.1022
0.10126
0.099905
0.097637
0.095387
0.090972
0.089686
0.081471
0.081793
0.070376
0.070315
0.10244
0.1023
0.10135
0.099982
0.097686
0.095416
0.090944
0.089623
0.08137
0.081603
0.070219
0.070052
0.10255
0.1024
0.10145
0.10006
0.097736
0.095447
0.090918
0.08956
0.08127
0.081414
0.070062
0.06979
0.10265
0.10251
0.10154
0.10014
0.097788
0.095479
0.090892
0.089498
0.08117
0.081224
0.069906
0.069528
0.10276
0.10262
0.10164
0.10023
0.097843
0.095513
0.090868
0.089435
0.081072
0.081034
0.06975
0.069266
0.10288
0.10273
0.10174
0.10031
0.097898
0.095548
0.090845
0.089372
0.080974
0.080844
0.069594
0.069004
0.10299
0.10284
0.10185
0.1004
0.097956
0.095585
0.090824
0.08931
0.080877
0.080654
0.069438
0.068742
0.10311
0.10296
0.10195
0.10049
0.098016
0.095624
0.090804
0.089247
0.080782
0.080464
0.069281
0.068479
0.10323
0.10308
0.10206
0.10059
0.098078
0.095664
0.090785
0.089185
0.080686
0.080274
0.069125
0.068217
0.10335
0.1032
0.10217
0.10068
0.098142
0.095707
0.090768
0.089123
0.080592
0.080084
0.068969
0.067954
0.10348
0.10333
0.10229
0.10078
0.098208
0.095751
0.090753
0.089062
0.080499
0.079894
0.068812
0.06769
0.10361
0.10346
0.10241
0.10089
0.098277
0.095797
0.09074
0.089001
0.080406
0.079704
0.068655
0.067426
0.10375
0.10359
0.10253
0.10099
0.098349
0.095846
0.090728
0.088941
0.080315
0.079514
0.068497
0.067161
0.10388
0.10372
0.10265
0.1011
0.098423
0.095897
0.090718
0.088881
0.080224
0.079323
0.068339
0.066895
0.10402
0.10386
0.10278
0.10121
0.0985
0.09595
0.090711
0.088822
0.080134
0.079133
0.068181
0.066628
0.10417
0.10401
0.10291
0.10133
0.09858
0.096005
0.090706
0.088763
0.080045
0.078942
0.068021
0.06636
0.10432
0.10416
0.10305
0.10145
0.098663
0.096063
0.090703
0.088706
0.079958
0.078752
0.067861
0.066091
0.10447
0.10431
0.10319
0.10157
0.098749
0.096124
0.090702
0.088649
0.079871
0.078561
0.067701
0.06582
0.10462
0.10446
0.10333
0.1017
0.098839
0.096188
0.090704
0.088593
0.079785
0.07837
0.067539
0.065549
0.10478
0.10462
0.10348
0.10183
0.098932
0.096254
0.090709
0.088539
0.0797
0.078179
0.067377
0.065275
0.10495
0.10479
0.10363
0.10197
0.099029
0.096324
0.090716
0.088485
0.079617
0.077988
0.067213
0.065001
0.10512
0.10496
0.10379
0.10211
0.09913
0.096397
0.090726
0.088433
0.079534
0.077797
0.067049
0.064724
0.1053
0.10514
0.10395
0.10226
0.099236
0.096473
0.09074
0.088382
0.079453
0.077606
0.066883
0.064445
0.10548
0.10532
0.10412
0.10241
0.099345
0.096553
0.090756
0.088332
0.079373
0.077415
0.066716
0.064165
0.10566
0.1055
0.1043
0.10256
0.099459
0.096637
0.090776
0.088285
0.079294
0.077223
0.066548
0.063882
0.10585
0.10569
0.10447
0.10272
0.099578
0.096724
0.090799
0.088238
0.079216
0.077032
0.066378
0.063597
0.10605
0.10589
0.10466
0.10289
0.099701
0.096815
0.090826
0.088194
0.07914
0.07684
0.066207
0.06331
0.10625
0.1061
0.10485
0.10306
0.09983
0.096911
0.090857
0.088152
0.079065
0.076649
0.066035
0.06302
0.10646
0.10631
0.10505
0.10324
0.099965
0.097011
0.090892
0.088111
0.078991
0.076457
0.06586
0.062727
0.10668
0.10652
0.10525
0.10343
0.1001
0.097116
0.090931
0.088073
0.078919
0.076265
0.065684
0.062432
0.1069
0.10675
0.10546
0.10362
0.10025
0.097225
0.090974
0.088037
0.078849
0.076073
0.065506
0.062133
0.10713
0.10698
0.10567
0.10382
0.1004
0.09734
0.091022
0.088003
0.07878
0.075881
0.065327
0.061831
0.10736
0.10722
0.1059
0.10402
0.10056
0.097459
0.091074
0.087973
0.078712
0.075689
0.065145
0.061526
0.10761
0.10746
0.10613
0.10423
0.10073
0.097585
0.091132
0.087944
0.078647
0.075496
0.064961
0.061218
0.10786
0.10771
0.10637
0.10445
0.1009
0.097715
0.091194
0.087919
0.078583
0.075303
0.064774
0.060905
0.10812
0.10798
0.10662
0.10468
0.10108
0.097852
0.091261
0.087896
0.07852
0.075111
0.064586
0.060589
0.10838
0.10825
0.10687
0.10492
0.10126
0.097995
0.091334
0.087877
0.07846
0.074918
0.064395
0.060269
0.10866
0.10853
0.10714
0.10516
0.10146
0.098144
0.091413
0.087861
0.078401
0.074724
0.064201
0.059945
0.10894
0.10882
0.10741
0.10542
0.10166
0.0983
0.091497
0.087848
0.078344
0.074531
0.064004
0.059616
0.10924
0.10911
0.10769
0.10568
0.10187
0.098462
0.091587
0.087839
0.078289
0.074337
0.063805
0.059282
0.10954
0.10942
0.10798
0.10595
0.10209
0.098632
0.091684
0.087833
0.078236
0.074142
0.063602
0.058943
0.10985
0.10974
0.10829
0.10624
0.10232
0.098809
0.091787
0.087831
0.078185
0.073948
0.063396
0.058599
0.11017
0.11007
0.1086
0.10653
0.10255
0.098993
0.091896
0.087833
0.078136
0.073752
0.063187
0.05825
0.1105
0.1104
0.10892
0.10683
0.1028
0.099185
0.092012
0.087839
0.078089
0.073556
0.062974
0.057895
0.11085
0.11075
0.10926
0.10714
0.10306
0.099385
0.092135
0.087849
0.078043
0.07336
0.062757
0.057534
0.1112
0.11111
0.1096
0.10747
0.10333
0.099594
0.092266
0.087863
0.078
0.073162
0.062536
0.057166
0.11157
0.11149
0.10996
0.1078
0.1036
0.09981
0.092403
0.087881
0.077958
0.072964
0.06231
0.056792
0.11194
0.11187
0.11033
0.10815
0.10389
0.10004
0.092548
0.087903
0.077918
0.072764
0.06208
0.056411
0.11233
0.11227
0.11071
0.10851
0.10419
0.10027
0.0927
0.08793
0.07788
0.072563
0.061846
0.056022
0.11273
0.11268
0.11111
0.10888
0.1045
0.10051
0.092861
0.087961
0.077843
0.072361
0.061605
0.055626
0.11314
0.1131
0.11151
0.10926
0.10483
0.10077
0.093029
0.087996
0.077808
0.072157
0.06136
0.055221
0.11357
0.11353
0.11193
0.10966
0.10516
0.10103
0.093205
0.088036
0.077774
0.07195
0.061108
0.054808
0.114
0.11398
0.11237
0.11007
0.10551
0.1013
0.093389
0.088081
0.077742
0.071742
0.060851
0.054386
0.11445
0.11445
0.11282
0.11049
0.10587
0.10159
0.093581
0.088129
0.077711
0.071531
0.060586
0.053954
0.11492
0.11492
0.11328
0.11093
0.10625
0.10188
0.093782
0.088182
0.07768
0.071318
0.060315
0.053512
0.1154
0.11542
0.11376
0.11138
0.10663
0.10218
0.093991
0.088239
0.07765
0.071101
0.060035
0.05306
0.11589
0.11592
0.11425
0.11185
0.10703
0.1025
0.094209
0.088301
0.077621
0.070881
0.059748
0.052596
0.1164
0.11645
0.11477
0.11233
0.10745
0.10282
0.094435
0.088366
0.077592
0.070657
0.059452
0.052121
0.11692
0.11699
0.11529
0.11283
0.10788
0.10316
0.09467
0.088436
0.077562
0.070428
0.059147
0.051633
0.11746
0.11754
0.11584
0.11334
0.10833
0.10351
0.094914
0.088509
0.077532
0.070195
0.058832
0.051132
0.11802
0.11812
0.1164
0.11387
0.10879
0.10387
0.095167
0.088586
0.077501
0.069956
0.058507
0.050617
0.11859
0.11871
0.11698
0.11442
0.10927
0.10424
0.095428
0.088666
0.077469
0.069712
0.058171
0.050087
0.11918
0.11932
0.11758
0.11499
0.10976
0.10462
0.095699
0.08875
0.077436
0.06946
0.057822
0.049542
0.11979
0.11995
0.1182
0.11557
0.11027
0.10502
0.095978
0.088837
0.0774
0.069202
0.057461
0.048981
0.12042
0.12059
0.11884
0.11618
0.1108
0.10543
0.096267
0.088927
0.077362
0.068936
0.057087
0.048403
0.12107
0.12126
0.1195
0.1168
0.11135
0.10585
0.096565
0.08902
0.077321
0.068662
0.056698
0.047806
0.12173
0.12195
0.12018
0.11745
0.11191
0.10629
0.096873
0.089115
0.077276
0.068378
0.056294
0.047191
0.12242
0.12267
0.12089
0.11811
0.1125
0.10674
0.09719
0.089213
0.077228
0.068084
0.055874
0.046556
0.12313
0.1234
0.12162
0.1188
0.11311
0.10721
0.097517
0.089313
0.077174
0.06778
0.055437
0.045899
0.12387
0.12417
0.12238
0.11952
0.11374
0.10769
0.097854
0.089415
0.077116
0.067465
0.054982
0.04522
0.12463
0.12496
0.12316
0.12026
0.11439
0.10819
0.098201
0.089519
0.077053
0.067137
0.054507
0.044518
0.12542
0.12577
0.12398
0.12103
0.11507
0.10871
0.098559
0.089625
0.076983
0.066796
0.054012
0.043791
0.12623
0.12662
0.12483
0.12182
0.11578
0.10924
0.098929
0.089732
0.076907
0.06644
0.053496
0.043038
0.12708
0.1275
0.12571
0.12265
0.11651
0.1098
0.09931
0.089841
0.076823
0.06607
0.052958
0.042258
0.12796
0.12841
0.12662
0.12352
0.11727
0.11037
0.099703
0.089952
0.076732
0.065684
0.052395
0.041449
0.12887
0.12937
0.12758
0.12441
0.11806
0.11097
0.10011
0.090064
0.076632
0.065281
0.051807
0.040609
0.12982
0.13036
0.12857
0.12535
0.11889
0.11159
0.10053
0.090178
0.076522
0.064859
0.051193
0.039738
0.13081
0.13139
0.12961
0.12633
0.11976
0.11224
0.10096
0.090293
0.076403
0.064418
0.05055
0.038833
0.13185
0.13247
0.1307
0.12735
0.12066
0.11292
0.10141
0.090409
0.076274
0.063957
0.049878
0.037892
0.13293
0.1336
0.13185
0.12843
0.1216
0.11362
0.10188
0.090527
0.076132
0.063474
0.049174
0.036914
0.13406
0.13479
0.13304
0.12955
0.1226
0.11436
0.10236
0.090646
0.075978
0.062966
0.048437
0.035896
0.13524
0.13603
0.1343
0.13074
0.12363
0.11513
0.10286
0.090766
0.075809
0.062434
0.047664
0.034837
0.13648
0.13733
0.13562
0.13198
0.12473
0.11593
0.10338
0.090885
0.075625
0.061873
0.046853
0.033734
0.13778
0.1387
0.13702
0.13329
0.12587
0.11678
0.10391
0.091004
0.075422
0.061283
0.046001
0.032583
0.13914
0.14015
0.13849
0.13468
0.12708
0.11767
0.10447
0.091121
0.0752
0.060659
0.045106
0.031383
0.14058
0.14167
0.14003
0.13613
0.12835
0.11859
0.10504
0.091234
0.074955
0.059998
0.044163
0.03013
0.14208
0.14327
0.14167
0.13767
0.12968
0.11957
0.10563
0.091342
0.074683
0.059297
0.043168
0.02882
0.14367
0.14496
0.1434
0.1393
0.13109
0.12058
0.10624
0.091441
0.07438
0.058551
0.042118
0.02745
0.14533
0.14674
0.14522
0.14102
0.13257
0.12165
0.10687
0.091528
0.074042
0.057754
0.041005
0.026014
0.14708
0.14862
0.14715
0.14284
0.13412
0.12276
0.1075
0.091599
0.073661
0.0569
0.039825
0.024507
0.14892
0.1506
0.14919
0.14476
0.13575
0.12392
0.10815
0.091648
0.073233
0.055981
0.03857
0.022923
0.15084
0.1527
0.15134
0.14678
0.13747
0.12513
0.1088
0.091669
0.072747
0.054989
0.037232
0.021256
0.15286
0.1549
0.15361
0.14893
0.13927
0.12638
0.10945
0.091654
0.072196
0.053915
0.035802
0.019497
0.15498
0.15723
0.15602
0.15119
0.14116
0.12767
0.1101
0.091595
0.071568
0.052748
0.03427
0.017637
0.1572
0.15968
0.15856
0.15357
0.14313
0.12901
0.11073
0.09148
0.070852
0.051477
0.032625
0.015668
0.15952
0.16226
0.16124
0.15609
0.1452
0.13037
0.11134
0.091298
0.070036
0.05009
0.030856
0.013578
0.16194
0.16498
0.16407
0.15874
0.14735
0.13177
0.11192
0.091035
0.069104
0.048572
0.028949
0.011355
0.16448
0.16785
0.16708
0.16154
0.14959
0.13318
0.11244
0.090675
0.06804
0.046908
0.026892
0.0089888
0.16713
0.17088
0.17026
0.1645
0.15193
0.13461
0.11291
0.090201
0.066827
0.045084
0.02467
0.0064657
0.1699
0.17408
0.17363
0.16762
0.15436
0.13604
0.11329
0.08959
0.065444
0.043081
0.022269
0.0037733
0.1728
0.17747
0.17723
0.17092
0.15688
0.13746
0.11357
0.088818
0.063868
0.040879
0.019672
0.00089894
0.17583
0.18107
0.18107
0.17441
0.15949
0.13885
0.11373
0.087855
0.062071
0.038458
0.016863
-0.0021702
0.17901
0.1849
0.18518
0.17812
0.16219
0.14018
0.11371
0.086665
0.060022
0.03579
0.013822
-0.0054468
0.18235
0.189
0.18959
0.18205
0.16497
0.14142
0.11349
0.085201
0.05768
0.032846
0.010527
-0.0089443
0.18586
0.1934
0.19435
0.18623
0.1678
0.14254
0.11301
0.083409
0.054998
0.029586
0.0069518
-0.012677
0.18952
0.19811
0.19948
0.19065
0.17068
0.14347
0.1122
0.081223
0.051919
0.025967
0.0030643
-0.016662
0.19335
0.20318
0.20503
0.19533
0.17353
0.14414
0.11097
0.07856
0.048373
0.021935
-0.0011722
-0.020917
0.19732
0.20864
0.21101
0.20024
0.1763
0.14445
0.10922
0.075325
0.044284
0.01743
-0.0057993
-0.025464
0.2014
0.21448
0.21744
0.20533
0.17888
0.14426
0.10682
0.07141
0.039566
0.012389
-0.01086
-0.030323
0.20553
0.22072
0.22428
0.21052
0.18112
0.14342
0.10361
0.066695
0.034132
0.0067518
-0.016393
-0.035511
0.20962
0.22731
0.23148
0.21566
0.18282
0.1417
0.099426
0.061055
0.0279
0.00046889
-0.022423
-0.041032
0.21356
0.23418
0.23889
0.22051
0.18368
0.13886
0.094071
0.054366
0.020803
-0.0064863
-0.028951
-0.04687
0.21722
0.24118
0.24625
0.22471
0.18333
0.13458
0.087336
0.046512
0.012797
-0.014108
-0.03594
-0.052976
0.22044
0.24806
0.2531
0.22769
0.18127
0.1285
0.079007
0.037401
0.0038728
-0.022353
-0.043316
-0.059264
0.22308
0.25436
0.25866
0.22861
0.17682
0.1202
0.068889
0.026982
-0.0059355
-0.031134
-0.050961
-0.065615
0.22505
0.25928
0.2616
0.22619
0.16911
0.10924
0.056828
0.015268
-0.016535
-0.040323
-0.058728
-0.071886
0.22637
0.26156
0.25983
0.21856
0.15699
0.095133
0.042766
0.002378
-0.027754
-0.049746
-0.06645
-0.077932
0.22728
0.2592
0.25018
0.20315
0.13907
0.077443
0.026764
-0.011439
-0.039323
-0.059179
-0.07395
-0.083628
0.22841
0.24951
0.22845
0.17667
0.11374
0.055745
0.008979
-0.025837
-0.050896
-0.068358
-0.081058
-0.088884
0.23078
0.2296
0.19017
0.13575
0.079401
0.029636
-0.010441
-0.04049
-0.062145
-0.07704
-0.08763
-0.093654
0.23513
0.19634
0.13217
0.078257
0.034982
-0.0012341
-0.031495
-0.055257
-0.072899
-0.085092
-0.093613
-0.097971
0.24221
0.14384
0.050531
0.0026885
-0.020548
-0.037714
-0.054783
-0.070538
-0.083434
-0.092738
-0.099222
-0.1021
0.26298
0.074598
-0.053262
-0.088804
-0.086575
-0.080681
-0.081667
-0.08766
-0.094913
-0.10096
-0.1053
-0.10679
0.3093
0.0074
-0.16087
-0.1816
-0.15336
-0.12508
-0.1102
-0.10619
-0.10748
-0.11004
-0.11215
-0.11223
0.1031
0.06377
0.053686
0.047691
0.043568
0.040476
0.038011
0.035845
0.034006
0.032013
0.030502
0.027696
0.12247
0.079049
0.066518
0.058538
0.05311
0.049089
0.045918
0.043155
0.040841
0.038336
0.036509
0.033208
0.10975
0.073876
0.062534
0.054677
0.049315
0.045363
0.042269
0.039588
0.037376
0.034968
0.033298
0.030097
0.10466
0.073504
0.062488
0.054538
0.049038
0.044971
0.041793
0.039044
0.036798
0.034342
0.032689
0.029349
0.104
0.075642
0.064464
0.056295
0.050551
0.046277
0.042933
0.04004
0.037689
0.035113
0.0334
0.029876
0.10333
0.07743
0.066177
0.057872
0.051929
0.047476
0.043984
0.040963
0.038514
0.035833
0.034058
0.030399
0.10219
0.078689
0.067508
0.059149
0.053057
0.048456
0.044839
0.041708
0.039174
0.03641
0.034579
0.030837
0.10099
0.079723
0.068704
0.060342
0.054133
0.049401
0.045667
0.042435
0.039821
0.036987
0.035102
0.031322
0.09987
0.080617
0.069829
0.061509
0.055214
0.050365
0.046521
0.043192
0.040501
0.037609
0.035672
0.0319
0.098801
0.081363
0.070871
0.062636
0.056288
0.051341
0.047397
0.043979
0.041214
0.038276
0.036292
0.032571
0.097768
0.081961
0.071816
0.063709
0.057345
0.05232
0.048289
0.044792
0.041958
0.038988
0.036963
0.033335
0.096767
0.082421
0.072663
0.064719
0.058373
0.053296
0.049192
0.045629
0.042733
0.039743
0.037684
0.034188
0.095799
0.082761
0.07341
0.065659
0.059364
0.05426
0.050101
0.046483
0.043536
0.040538
0.038454
0.03512
0.094867
0.082994
0.07406
0.066524
0.060309
0.055201
0.051006
0.047348
0.044359
0.041367
0.039265
0.036116
0.09397
0.083137
0.074617
0.067311
0.061199
0.056111
0.051897
0.048215
0.045194
0.042219
0.040106
0.03716
0.09311
0.083201
0.075088
0.06802
0.062029
0.056982
0.052767
0.049074
0.046032
0.043086
0.040968
0.038231
0.092287
0.083201
0.075479
0.068653
0.062798
0.057809
0.053607
0.049918
0.046865
0.043956
0.041838
0.039311
0.0915
0.083146
0.075798
0.069213
0.063504
0.058586
0.054413
0.050738
0.047685
0.044819
0.042705
0.040381
0.090749
0.083047
0.076052
0.069705
0.064147
0.059313
0.055178
0.051531
0.048484
0.045667
0.043559
0.041426
0.090032
0.082911
0.076249
0.070134
0.064731
0.059988
0.055902
0.05229
0.049256
0.046493
0.044391
0.042431
0.089347
0.082746
0.076394
0.070504
0.065257
0.060611
0.056582
0.053012
0.049998
0.047289
0.045195
0.043386
0.088694
0.082556
0.076495
0.07082
0.065728
0.061185
0.057217
0.053697
0.050706
0.048051
0.045966
0.044283
0.08807
0.082348
0.076557
0.071089
0.066149
0.06171
0.057809
0.054341
0.051378
0.048775
0.046698
0.045119
0.087472
0.082124
0.076585
0.071314
0.066523
0.062189
0.058358
0.054946
0.052013
0.04946
0.047391
0.045891
0.0869
0.081888
0.076583
0.0715
0.066854
0.062625
0.058865
0.05551
0.052611
0.050104
0.048043
0.046598
0.086352
0.081642
0.076556
0.07165
0.067145
0.063021
0.059333
0.056037
0.053171
0.050706
0.048653
0.047243
0.085826
0.08139
0.076506
0.07177
0.067399
0.063378
0.059763
0.056525
0.053695
0.051268
0.049223
0.047828
0.08532
0.081132
0.076437
0.071861
0.06762
0.063699
0.060157
0.056978
0.054183
0.051791
0.049753
0.048357
0.084832
0.08087
0.076352
0.071927
0.067811
0.063988
0.060518
0.057396
0.054637
0.052275
0.050244
0.048834
0.084363
0.080605
0.076252
0.07197
0.067974
0.064246
0.060847
0.057781
0.055059
0.052722
0.0507
0.049264
0.08391
0.080339
0.07614
0.071993
0.068112
0.064476
0.061147
0.058135
0.05545
0.053135
0.051122
0.049651
0.083472
0.080073
0.076017
0.071999
0.068227
0.06468
0.06142
0.05846
0.055811
0.053516
0.051511
0.049999
0.083048
0.079806
0.075886