/*--------------------------------*- C++ -*----------------------------------*\
  =========                 |
  \\      /  F ield         | OpenFOAM: The Open Source CFD Toolbox
   \\    /   O peration     | Website:  https://openfoam.org
    \\  /    A nd           | Version:  6.0
     \\/     M anipulation  |
\*---------------------------------------------------------------------------*/
FoamFile
{
    version     2.0;
    format      ascii;
    class       surfaceScalarField;
    location    "0.81";
    object      phi;
}
// * * * * * * * * * * * * * * * * * * * * * * * * * * * * * * * * * * * * * //

dimensions      [0 3 -1 0 0 0 0];

internalField   nonuniform List<scalar> 
26699
(
2.0051e-05
0.005201
3.3309e-10
4.0126e-05
0.0051116
5.9638e-05
0.0049351
7.8187e-05
0.0046741
9.5414e-05
0.0043332
0.00011102
0.0039182
0.00012471
0.0034362
0.00013627
0.0028953
0.00014545
0.002305
0.00015187
0.0016754
0.00015714
0.0010155
0.00046491
3.4433e-05
2.0051e-05
0.0051809
1.0524e-09
4.0128e-05
0.0050916
5.9639e-05
0.0049156
7.8192e-05
0.0046556
9.5415e-05
0.004316
0.00011103
0.0039026
0.00012471
0.0034225
0.00013625
0.0028838
0.00014541
0.0022958
0.00015126
0.0016696
0.00015886
0.0010079
0.00055875
6.5023e-05
2.0051e-05
0.0051609
1.8327e-09
4.013e-05
0.0050715
5.9641e-05
0.004896
7.8195e-05
0.004637
9.5417e-05
0.0042988
0.00011103
0.003887
0.0001247
0.0034088
0.00013623
0.0028723
0.0001454
0.0022866
0.00015066
0.0016643
0.00016013
0.00099843
0.00062878
9.0088e-05
2.0052e-05
0.0051408
2.6184e-09
4.0131e-05
0.0050514
5.9644e-05
0.0048765
7.8197e-05
0.0046185
9.542e-05
0.0042816
0.00011103
0.0038714
0.0001247
0.0033951
0.00013621
0.0028607
0.0001454
0.0022775
0.00015011
0.0016596
0.00016088
0.00098767
0.00067954
0.00011012
2.0052e-05
0.0051208
3.4051e-09
4.0132e-05
0.0050313
5.9646e-05
0.004857
7.82e-05
0.0045999
9.5423e-05
0.0042643
0.00011103
0.0038558
0.0001247
0.0033815
0.00013619
0.0028493
0.00014541
0.0022682
0.00014964
0.0016554
0.00016114
0.00097617
0.00071477
0.00012592
2.0052e-05
0.0051007
4.1927e-09
4.0134e-05
0.0050112
5.9649e-05
0.0048375
7.8203e-05
0.0045813
9.5426e-05
0.0042471
0.00011103
0.0038402
0.00012469
0.0033678
0.00013617
0.0028378
0.00014544
0.002259
0.00014925
0.0016516
0.00016099
0.00096443
0.00073759
0.00013816
2.0053e-05
0.0050807
4.981e-09
4.0135e-05
0.0049912
5.9651e-05
0.004818
7.8206e-05
0.0045628
9.5429e-05
0.0042299
0.00011103
0.0038246
0.00012469
0.0033542
0.00013615
0.0028263
0.00014547
0.0022496
0.00014896
0.0016481
0.00016051
0.00095289
0.00075066
0.00014744
2.0053e-05
0.0050606
5.7703e-09
4.0137e-05
0.0049711
5.9653e-05
0.0047985
7.8209e-05
0.0045442
9.5433e-05
0.0042127
0.00011103
0.003809
0.00012469
0.0033405
0.00013612
0.0028149
0.0001455
0.0022403
0.00014877
0.0016448
0.00015981
0.00094185
0.00075618
0.00015429
2.0053e-05
0.0050405
6.5605e-09
4.0138e-05
0.004951
5.9656e-05
0.0047789
7.8212e-05
0.0045257
9.5436e-05
0.0041954
0.00011103
0.0037934
0.00012469
0.0033268
0.0001361
0.0028035
0.00014553
0.0022308
0.00014868
0.0016416
0.00015898
0.00093155
0.00075599
0.00015917
2.0054e-05
0.0050205
7.3516e-09
4.0139e-05
0.0049309
5.9658e-05
0.0047594
7.8215e-05
0.0045071
9.5439e-05
0.0041782
0.00011104
0.0037778
0.0001247
0.0033132
0.00013608
0.0027921
0.00014556
0.0022214
0.00014867
0.0016385
0.00015809
0.00092214
0.00075158
0.00016249
2.0054e-05
0.0050004
8.1437e-09
4.0141e-05
0.0049108
5.9661e-05
0.0047399
7.8218e-05
0.0044886
9.5443e-05
0.004161
0.00011104
0.0037622
0.0001247
0.0032995
0.00013606
0.0027807
0.00014559
0.0022118
0.00014874
0.0016354
0.00015719
0.00091368
0.00074416
0.00016461
2.0055e-05
0.0049804
8.9369e-09
4.0142e-05
0.0048907
5.9663e-05
0.0047204
7.822e-05
0.00447
9.5446e-05
0.0041438
0.00011104
0.0037466
0.0001247
0.0032859
0.00013604
0.0027694
0.00014561
0.0022023
0.00014886
0.0016321
0.00015634
0.0009062
0.00073468
0.00016583
2.0055e-05
0.0049603
9.7311e-09
4.0144e-05
0.0048706
5.9666e-05
0.0047009
7.8223e-05
0.0044515
9.545e-05
0.0041265
0.00011104
0.003731
0.00012471
0.0032722
0.00013602
0.0027581
0.00014562
0.0021927
0.00014903
0.0016287
0.00015557
0.00089966
0.00072387
0.00016638
2.0055e-05
0.0049402
1.0526e-08
4.0145e-05
0.0048506
5.9669e-05
0.0046813
7.8226e-05
0.0044329
9.5454e-05
0.0041093
0.00011104
0.0037154
0.00012471
0.0032585
0.000136
0.0027468
0.00014562
0.002183
0.00014924
0.0016251
0.00015489
0.00089401
0.00071228
0.00016648
2.0056e-05
0.0049202
1.1323e-08
4.0146e-05
0.0048305
5.9671e-05
0.0046618
7.8229e-05
0.0044143
9.5458e-05
0.0040921
0.00011104
0.0036998
0.00012472
0.0032448
0.00013599
0.0027355
0.00014563
0.0021734
0.00014946
0.0016213
0.00015433
0.00088914
0.00070033
0.00016628
2.0056e-05
0.0049001
1.2121e-08
4.0148e-05
0.0048104
5.9674e-05
0.0046423
7.8232e-05
0.0043958
9.5462e-05
0.0040749
0.00011105
0.0036842
0.00012472
0.0032312
0.00013598
0.0027243
0.00014562
0.0021638
0.00014969
0.0016172
0.00015387
0.00088496
0.00068831
0.00016589
2.0057e-05
0.00488
1.292e-08
4.0149e-05
0.0047903
5.9677e-05
0.0046228
7.8235e-05
0.0043772
9.5467e-05
0.0040576
0.00011105
0.0036687
0.00012473
0.0032175
0.00013597
0.002713
0.00014561
0.0021541
0.00014992
0.0016129
0.00015352
0.00088137
0.00067641
0.00016542
2.0057e-05
0.00486
1.372e-08
4.0151e-05
0.0047702
5.9679e-05
0.0046032
7.8238e-05
0.0043587
9.5471e-05
0.0040404
0.00011105
0.0036531
0.00012474
0.0032038
0.00013596
0.0027018
0.0001456
0.0021445
0.00015015
0.0016083
0.00015326
0.00087826
0.00066476
0.00016491
2.0057e-05
0.0048399
1.4522e-08
4.0152e-05
0.0047501
5.9682e-05
0.0045837
7.8241e-05
0.0043401
9.5476e-05
0.0040232
0.00011105
0.0036375
0.00012475
0.0031901
0.00013596
0.0026906
0.00014559
0.0021348
0.00015036
0.0016036
0.00015309
0.00087553
0.00065343
0.00016442
2.0058e-05
0.0048198
1.5325e-08
4.0153e-05
0.00473
5.9685e-05
0.0045642
7.8245e-05
0.0043215
9.5481e-05
0.0040059
0.00011105
0.0036219
0.00012476
0.0031764
0.00013596
0.0026794
0.00014558
0.0021252
0.00015056
0.0015986
0.00015299
0.0008731
0.00064247
0.00016396
2.0058e-05
0.0047997
1.6129e-08
4.0155e-05
0.0047099
5.9688e-05
0.0045446
7.8248e-05
0.004303
9.5487e-05
0.0039887
0.00011106
0.0036064
0.00012477
0.0031627
0.00013596
0.0026682
0.00014557
0.0021156
0.00015074
0.0015934
0.00015296
0.00087089
0.00063187
0.00016355
2.0059e-05
0.0047797
1.6935e-08
4.0156e-05
0.0046898
5.9691e-05
0.0045251
7.8251e-05
0.0042844
9.5492e-05
0.0039714
0.00011106
0.0035908
0.00012479
0.0031489
0.00013597
0.002657
0.00014555
0.002106
0.00015091
0.0015881
0.00015297
0.00086883
0.00062164
0.0001632
2.0059e-05
0.0047596
1.7742e-08
4.0158e-05
0.0046697
5.9694e-05
0.0045056
7.8254e-05
0.0042659
9.5498e-05
0.0039542
0.00011106
0.0035752
0.0001248
0.0031352
0.00013598
0.0026459
0.00014555
0.0020965
0.00015106
0.0015825
0.00015302
0.00086688
0.00061175
0.0001629
2.006e-05
0.0047395
1.8551e-08
4.0159e-05
0.0046496
5.9697e-05
0.004486
7.8258e-05
0.0042473
9.5504e-05
0.0039369
0.00011107
0.0035597
0.00012481
0.0031215
0.00013599
0.0026347
0.00014554
0.0020869
0.00015119
0.0015769
0.00015309
0.00086498
0.00060219
0.00016266
2.006e-05
0.0047194
1.9362e-08
4.0161e-05
0.0046295
5.97e-05
0.0044665
7.8261e-05
0.0042287
9.5511e-05
0.0039197
0.00011107
0.0035441
0.00012483
0.0031077
0.00013601
0.0026235
0.00014553
0.0020774
0.00015131
0.0015711
0.00015319
0.0008631
0.00059293
0.00016246
2.0061e-05
0.0046993
2.0174e-08
4.0163e-05
0.0046094
5.9703e-05
0.004447
7.8265e-05
0.0042102
9.5518e-05
0.0039024
0.00011108
0.0035285
0.00012484
0.0030939
0.00013602
0.0026123
0.00014553
0.0020679
0.00015142
0.0015652
0.00015331
0.00086122
0.00058394
0.00016229
2.0061e-05
0.0046793
2.0988e-08
4.0164e-05
0.0045893
5.9707e-05
0.0044274
7.8269e-05
0.0041916
9.5525e-05
0.0038852
0.00011108
0.003513
0.00012486
0.0030802
0.00013604
0.0026011
0.00014553
0.0020584
0.00015152
0.0015592
0.00015343
0.00085931
0.0005752
0.00016216
2.0062e-05
0.0046592
2.1803e-08
4.0166e-05
0.0045692
5.971e-05
0.0044079
7.8273e-05
0.0041731
9.5533e-05
0.0038679
0.00011109
0.0034974
0.00012488
0.0030664
0.00013607
0.0025899
0.00014553
0.0020489
0.00015161
0.0015531
0.00015355
0.00085737
0.00056671
0.00016205
2.0062e-05
0.0046391
2.2619e-08
4.0168e-05
0.0045491
5.9714e-05
0.0043883
7.8278e-05
0.0041545
9.5541e-05
0.0038507
0.0001111
0.0034819
0.00012489
0.0030526
0.00013609
0.0025787
0.00014553
0.0020395
0.00015169
0.001547
0.00015368
0.00085538
0.00055842
0.00016196
2.0063e-05
0.004619
2.3437e-08
4.0169e-05
0.004529
5.9717e-05
0.0043688
7.8282e-05
0.0041359
9.555e-05
0.0038334
0.00011111
0.0034663
0.00012491
0.0030388
0.00013612
0.0025675
0.00014554
0.0020301
0.00015176
0.0015407
0.00015381
0.00085334
0.00055034
0.00016189
2.0063e-05
0.0045989
2.4256e-08
4.0171e-05
0.0045089
5.9721e-05
0.0043492
7.8287e-05
0.0041174
9.5559e-05
0.0038161
0.00011112
0.0034507
0.00012493
0.003025
0.00013614
0.0025563
0.00014554
0.0020207
0.00015183
0.0015345
0.00015393
0.00085124
0.00054246
0.00016182
2.0064e-05
0.0045788
2.5075e-08
4.0173e-05
0.0044888
5.9725e-05
0.0043297
7.8293e-05
0.0040988
9.5569e-05
0.0037989
0.00011113
0.0034352
0.00012495
0.0030112
0.00013617
0.0025451
0.00014555
0.0020113
0.0001519
0.0015281
0.00015405
0.00084908
0.00053475
0.00016176
2.0065e-05
0.0045587
2.5895e-08
4.0175e-05
0.0044687
5.973e-05
0.0043101
7.8299e-05
0.0040802
9.5579e-05
0.0037816
0.00011114
0.0034196
0.00012496
0.0029974
0.00013619
0.0025339
0.00014556
0.0020019
0.00015196
0.0015217
0.00015417
0.00084686
0.00052721
0.00016171
2.0066e-05
0.0045386
2.6715e-08
4.0178e-05
0.0044485
5.9734e-05
0.0042906
7.8305e-05
0.0040616
9.559e-05
0.0037643
0.00011116
0.003404
0.00012498
0.0029835
0.00013622
0.0025226
0.00014557
0.0019926
0.00015202
0.0015153
0.00015429
0.00084459
0.00051983
0.00016167
2.0066e-05
0.0045186
2.7535e-08
4.018e-05
0.0044284
5.9739e-05
0.004271
7.8312e-05
0.0040431
9.5602e-05
0.003747
0.00011117
0.0033885
0.000125
0.0029697
0.00013625
0.0025114
0.00014557
0.0019833
0.00015207
0.0015088
0.0001544
0.00084226
0.00051261
0.00016162
2.0067e-05
0.0044985
2.8354e-08
4.0182e-05
0.0044083
5.9744e-05
0.0042514
7.8319e-05
0.0040245
9.5613e-05
0.0037297
0.00011119
0.0033729
0.00012502
0.0029559
0.00013627
0.0025001
0.00014558
0.0019739
0.00015212
0.0015022
0.00015451
0.00083987
0.00050554
0.00016158
2.0068e-05
0.0044784
2.9172e-08
4.0185e-05
0.0043882
5.975e-05
0.0042319
7.8327e-05
0.0040059
9.5626e-05
0.0037124
0.0001112
0.0033573
0.00012503
0.002942
0.0001363
0.0024889
0.00014559
0.0019646
0.00015218
0.0014956
0.00015462
0.00083743
0.00049862
0.00016154
2.0069e-05
0.0044583
2.9987e-08
4.0188e-05
0.0043681
5.9755e-05
0.0042123
7.8335e-05
0.0039873
9.5638e-05
0.0036951
0.00011122
0.0033417
0.00012505
0.0029282
0.00013632
0.0024776
0.0001456
0.0019554
0.00015223
0.001489
0.00015472
0.00083494
0.00049183
0.0001615
2.007e-05
0.0044382
3.0798e-08
4.0191e-05
0.004348
5.9761e-05
0.0041927
7.8343e-05
0.0039688
9.5651e-05
0.0036778
0.00011123
0.0033262
0.00012507
0.0029144
0.00013635
0.0024663
0.00014562
0.0019461
0.00015227
0.0014824
0.00015482
0.00083239
0.00048519
0.00016147
2.0072e-05
0.0044181
3.1606e-08
4.0194e-05
0.0043278
5.9767e-05
0.0041732
7.8352e-05
0.0039502
9.5665e-05
0.0036605
0.00011125
0.0033106
0.00012508
0.0029005
0.00013637
0.002455
0.00014563
0.0019368
0.00015232
0.0014757
0.00015492
0.0008298
0.00047867
0.00016143
2.0073e-05
0.004398
3.2408e-08
4.0198e-05
0.0043077
5.9774e-05
0.0041536
7.8361e-05
0.0039316
9.5678e-05
0.0036432
0.00011126
0.003295
0.0001251
0.0028867
0.00013639
0.0024437
0.00014564
0.0019276
0.00015237
0.0014689
0.00015501
0.00082715
0.00047229
0.00016139
2.0074e-05
0.0043778
3.3204e-08
4.0202e-05
0.0042876
5.9781e-05
0.004134
7.8371e-05
0.003913
9.5692e-05
0.0036258
0.00011128
0.0032794
0.00012511
0.0028729
0.00013641
0.0024324
0.00014565
0.0019184
0.00015241
0.0014622
0.0001551
0.00082446
0.00046603
0.00016136
2.0076e-05
0.0043577
3.3991e-08
4.0205e-05
0.0042674
5.9788e-05
0.0041144
7.8381e-05
0.0038944
9.5705e-05
0.0036085
0.0001113
0.0032638
0.00012513
0.002859
0.00013644
0.0024211
0.00014566
0.0019091
0.00015246
0.0014554
0.00015519
0.00082173
0.0004599
0.00016133
2.0077e-05
0.0043376
3.477e-08
4.021e-05
0.0042473
5.9795e-05
0.0040948
7.8391e-05
0.0038758
9.5718e-05
0.0035912
0.00011131
0.0032482
0.00012514
0.0028452
0.00013646
0.0024098
0.00014567
0.0018999
0.0001525
0.0014485
0.00015528
0.00081895
0.00045388
0.00016129
2.0079e-05
0.0043175
3.5538e-08
4.0214e-05
0.0042272
5.9802e-05
0.0040753
7.8402e-05
0.0038572
9.5732e-05
0.0035739
0.00011132
0.0032326
0.00012515
0.0028314
0.00013648
0.0023985
0.00014568
0.0018907
0.00015254
0.0014417
0.00015536
0.00081613
0.00044799
0.00016126
2.0081e-05
0.0042974
3.6293e-08
4.0218e-05
0.004207
5.981e-05
0.0040557
7.8412e-05
0.0038386
9.5745e-05
0.0035565
0.00011134
0.003217
0.00012516
0.0028175
0.0001365
0.0023872
0.00014569
0.0018815
0.00015258
0.0014348
0.00015545
0.00081327
0.0004422
0.00016123
2.0083e-05
0.0042773
3.7035e-08
4.0223e-05
0.0041869
5.9818e-05
0.0040361
7.8422e-05
0.00382
9.5757e-05
0.0035392
0.00011135
0.0032014
0.00012518
0.0028037
0.00013651
0.0023758
0.0001457
0.0018723
0.00015262
0.0014279
0.00015553
0.00081037
0.00043653
0.0001612
2.0085e-05
0.0042571
3.7763e-08
4.0227e-05
0.0041668
5.9825e-05
0.0040165
7.8433e-05
0.0038014
9.5769e-05
0.0035219
0.00011137
0.0031858
0.00012519
0.0027899
0.00013653
0.0023645
0.00014571
0.0018632
0.00015266
0.0014209
0.0001556
0.00080743
0.00043097
0.00016117
2.0087e-05
0.004237
3.8473e-08
4.0232e-05
0.0041466
5.9833e-05
0.0039969
7.8443e-05
0.0037828
9.5781e-05
0.0035045
0.00011138
0.0031703
0.0001252
0.0027761
0.00013655
0.0023531
0.00014573
0.001854
0.0001527
0.0014139
0.00015568
0.00080445
0.00042551
0.00016114
2.0089e-05
0.0042169
3.9167e-08
4.0237e-05
0.0041265
5.9841e-05
0.0039773
7.8453e-05
0.0037642
9.5792e-05
0.0034872
0.00011139
0.0031547
0.00012521
0.0027623
0.00013657
0.0023418
0.00014574
0.0018448
0.00015274
0.0014069
0.00015576
0.00080144
0.00042015
0.00016111
2.0091e-05
0.0041968
3.9841e-08
4.0242e-05
0.0041063
5.9848e-05
0.0039577
7.8463e-05
0.0037456
9.5803e-05
0.0034698
0.0001114
0.0031391
0.00012521
0.0027485
0.00013659
0.0023304
0.00014575
0.0018357
0.00015278
0.0013999
0.00015583
0.00079838
0.0004149
0.00016108
2.0093e-05
0.0041766
4.0496e-08
4.0247e-05
0.0040862
5.9856e-05
0.003938
7.8472e-05
0.0037269
9.5813e-05
0.0034525
0.00011141
0.0031235
0.00012522
0.0027347
0.0001366
0.002319
0.00014576
0.0018265
0.00015281
0.0013928
0.0001559
0.0007953
0.00040974
0.00016106
2.0095e-05
0.0041565
4.1131e-08
4.0251e-05
0.004066
5.9863e-05
0.0039184
7.8481e-05
0.0037083
9.5823e-05
0.0034352
0.00011142
0.0031079
0.00012523
0.0027208
0.00013662
0.0023076
0.00014578
0.0018173
0.00015285
0.0013858
0.00015597
0.00079218
0.00040468
0.00016103
2.0097e-05
0.0041364
4.1744e-08
4.0256e-05
0.0040458
5.987e-05
0.0038988
7.849e-05
0.0036897
9.5832e-05
0.0034178
0.00011143
0.0030923
0.00012524
0.002707
0.00013664
0.0022962
0.00014579
0.0018082
0.00015289
0.0013787
0.00015604
0.00078902
0.00039972
0.00016101
2.0099e-05
0.0041162
4.2336e-08
4.0261e-05
0.0040257
5.9877e-05
0.0038792
7.8498e-05
0.0036711
9.5841e-05
0.0034005
0.00011144
0.0030767
0.00012525
0.0026932
0.00013666
0.0022848
0.0001458
0.001799
0.00015292
0.0013716
0.00015611
0.00078584
0.00039484
0.00016098
2.0101e-05
0.0040961
4.2906e-08
4.0265e-05
0.0040055
5.9884e-05
0.0038596
7.8506e-05
0.0036525
9.5849e-05
0.0033831
0.00011145
0.0030611
0.00012525
0.0026794
0.00013667
0.0022734
0.00014582
0.0017899
0.00015295
0.0013644
0.00015617
0.00078262
0.00039006
0.00016096
2.0103e-05
0.0040759
4.3455e-08
4.027e-05
0.0039854
5.989e-05
0.00384
7.8514e-05
0.0036338
9.5856e-05
0.0033658
0.00011146
0.0030455
0.00012526
0.0026656
0.00013669
0.002262
0.00014583
0.0017808
0.00015299
0.0013573
0.00015624
0.00077937
0.00038536
0.00016094
2.0105e-05
0.0040558
4.3983e-08
4.0274e-05
0.0039652
5.9896e-05
0.0038203
7.8521e-05
0.0036152
9.5864e-05
0.0033484
0.00011147
0.0030298
0.00012527
0.0026518
0.00013671
0.0022505
0.00014585
0.0017716
0.00015302
0.0013501
0.0001563
0.00077609
0.00038074
0.00016091
2.0107e-05
0.0040356
4.4489e-08
4.0278e-05
0.003945
5.9902e-05
0.0038007
7.8527e-05
0.0035966
9.587e-05
0.0033311
0.00011148
0.0030142
0.00012527
0.002638
0.00013672
0.0022391
0.00014586
0.0017625
0.00015305
0.0013429
0.00015636
0.00077278
0.00037621
0.00016089
2.0109e-05
0.0040155
4.4975e-08
4.0282e-05
0.0039248
5.9907e-05
0.0037811
7.8534e-05
0.003578
9.5877e-05
0.0033138
0.00011148
0.0029986
0.00012528
0.0026242
0.00013674
0.0022276
0.00014588
0.0017533
0.00015308
0.0013357
0.00015642
0.00076944
0.00037176
0.00016087
2.0111e-05
0.0039953
4.5442e-08
4.0285e-05
0.0039047
5.9912e-05
0.0037615
7.854e-05
0.0035593
9.5883e-05
0.0032964
0.00011149
0.002983
0.00012529
0.0026104
0.00013676
0.0022161
0.00014589
0.0017442
0.00015312
0.0013285
0.00015648
0.00076608
0.00036739
0.00016085
2.0112e-05
0.0039752
4.5891e-08
4.0289e-05
0.0038845
5.9917e-05
0.0037418
7.8545e-05
0.0035407
9.5889e-05
0.0032791
0.0001115
0.0029674
0.0001253
0.0025966
0.00013677
0.0022047
0.00014591
0.0017351
0.00015315
0.0013212
0.00015654
0.00076268
0.00036309
0.00016084
2.0114e-05
0.003955
4.6322e-08
4.0292e-05
0.0038643
5.9921e-05
0.0037222
7.855e-05
0.0035221
9.5894e-05
0.0032617
0.00011151
0.0029518
0.0001253
0.0025828
0.00013679
0.0021932
0.00014592
0.0017259
0.00015318
0.001314
0.0001566
0.00075926
0.00035887
0.00016082
2.0115e-05
0.0039348
4.6737e-08
4.0295e-05
0.0038441
5.9926e-05
0.0037026
7.8556e-05
0.0035034
9.5899e-05
0.0032444
0.00011151
0.0029362
0.00012531
0.002569
0.00013681
0.0021817
0.00014594
0.0017168
0.00015321
0.0013067
0.00015665
0.00075582
0.00035472
0.0001608
2.0117e-05
0.0039147
4.7138e-08
4.0298e-05
0.003824
5.993e-05
0.003683
7.856e-05
0.0034848
9.5905e-05
0.003227
0.00011152
0.0029206
0.00012532
0.0025552
0.00013683
0.0021702
0.00014596
0.0017077
0.00015323
0.0012994
0.00015671
0.00075234
0.00035064
0.00016079
2.0118e-05
0.0038945
4.7525e-08
4.0301e-05
0.0038038
5.9933e-05
0.0036633
7.8565e-05
0.0034662
9.591e-05
0.0032097
0.00011153
0.002905
0.00012532
0.0025415
0.00013684
0.0021586
0.00014597
0.0016986
0.00015326
0.0012921
0.00015676
0.00074885
0.00034663
0.00016077
2.0119e-05
0.0038743
4.79e-08
4.0303e-05
0.0037836
5.9937e-05
0.0036437
7.8569e-05
0.0034476
9.5914e-05
0.0031923
0.00011154
0.0028893
0.00012533
0.0025277
0.00013686
0.0021471
0.00014599
0.0016894
0.00015329
0.0012848
0.00015681
0.00074532
0.00034269
0.00016076
2.012e-05
0.0038542
4.8265e-08
4.0306e-05
0.0037634
5.994e-05
0.0036241
7.8574e-05
0.0034289
9.5919e-05
0.003175
0.00011154
0.0028737
0.00012534
0.0025139
0.00013688
0.0021356
0.00014601
0.0016803
0.00015332
0.0012775
0.00015687
0.00074178
0.00033881
0.00016074
2.0121e-05
0.003834
4.862e-08
4.0308e-05
0.0037432
5.9943e-05
0.0036044
7.8578e-05
0.0034103
9.5924e-05
0.0031577
0.00011155
0.0028581
0.00012535
0.0025001
0.0001369
0.002124
0.00014602
0.0016712
0.00015335
0.0012702
0.00015692
0.00073821
0.000335
0.00016073
2.0122e-05
0.0038138
4.8967e-08
4.031e-05
0.003723
5.9946e-05
0.0035848
7.8582e-05
0.0033917
9.5929e-05
0.0031403
0.00011156
0.0028425
0.00012535
0.0024863
0.00013691
0.0021125
0.00014604
0.001662
0.00015337
0.0012629
0.00015697
0.00073462
0.00033125
0.00016072
2.0123e-05
0.0037937
4.9308e-08
4.0312e-05
0.0037028
5.9949e-05
0.0035651
7.8586e-05
0.003373
9.5933e-05
0.003123
0.00011157
0.0028268
0.00012536
0.0024725
0.00013693
0.0021009
0.00014606
0.0016529
0.0001534
0.0012555
0.00015702
0.000731
0.00032756
0.0001607
2.0124e-05
0.0037735
4.9643e-08
4.0314e-05
0.0036826
5.9952e-05
0.0035455
7.859e-05
0.0033544
9.5938e-05
0.0031056
0.00011157
0.0028112
0.00012537
0.0024587
0.00013695
0.0020893
0.00014608
0.0016438
0.00015343
0.0012482
0.00015706
0.00072736
0.00032393
0.00016069
2.0125e-05
0.0037533
4.9975e-08
4.0316e-05
0.0036625
5.9955e-05
0.0035259
7.8594e-05
0.0033357
9.5943e-05
0.0030883
0.00011158
0.0027956
0.00012538
0.0024449
0.00013697
0.0020777
0.0001461
0.0016346
0.00015345
0.0012408
0.00015711
0.00072371
0.00032036
0.00016068
2.0126e-05
0.0037331
5.0303e-08
4.0318e-05
0.0036423
5.9958e-05
0.0035062
7.8597e-05
0.0033171
9.5947e-05
0.0030709
0.00011159
0.0027799
0.00012539
0.0024311
0.00013698
0.0020661
0.00014612
0.0016255
0.00015348
0.0012335
0.00015716
0.00072003
0.00031685
0.00016067
2.0126e-05
0.003713
5.0629e-08
4.0319e-05
0.0036221
5.996e-05
0.0034866
7.8601e-05
0.0032985
9.5952e-05
0.0030536
0.0001116
0.0027643
0.00012539
0.0024173
0.000137
0.0020545
0.00014613
0.0016164
0.0001535
0.0012261
0.0001572
0.00071633
0.00031338
0.00016067
2.0127e-05
0.0036928
5.0954e-08
4.0321e-05
0.0036019
5.9963e-05
0.0034669
7.8605e-05
0.0032798
9.5957e-05
0.0030362
0.00011161
0.0027486
0.0001254
0.0024035
0.00013702
0.0020429
0.00014615
0.0016072
0.00015353
0.0012187
0.00015725
0.00071261
0.00030998
0.00016066
2.0128e-05
0.0036726
5.1278e-08
4.0323e-05
0.0035817
5.9965e-05
0.0034473
7.8609e-05
0.0032612
9.5962e-05
0.0030189
0.00011161
0.002733
0.00012541
0.0023897
0.00013704
0.0020313
0.00014617
0.0015981
0.00015355
0.0012113
0.00015729
0.00070887
0.00030662
0.00016065
2.0128e-05
0.0036524
5.1603e-08
4.0324e-05
0.0035615
5.9968e-05
0.0034277
7.8613e-05
0.0032425
9.5967e-05
0.0030015
0.00011162
0.0027173
0.00012542
0.0023759
0.00013705
0.0020197
0.00014619
0.001589
0.00015358
0.0012039
0.00015734
0.00070511
0.00030331
0.00016064
2.0129e-05
0.0036322
5.1929e-08
4.0326e-05
0.0035413
5.997e-05
0.003408
7.8617e-05
0.0032239
9.5972e-05
0.0029841
0.00011163
0.0027017
0.00012543
0.0023621
0.00013707
0.002008
0.00014621
0.0015798
0.0001536
0.0011966
0.00015738
0.00070134
0.00030005
0.00016064
2.013e-05
0.0036121
5.2257e-08
4.0328e-05
0.0035211
5.9973e-05
0.0033884
7.8621e-05
0.0032052
9.5977e-05
0.0029668
0.00011164
0.002686
0.00012544
0.0023483
0.00013709
0.0019964
0.00014623
0.0015707
0.00015363
0.0011892
0.00015742
0.00069755
0.00029684
0.00016063
2.013e-05
0.0035919
5.2587e-08
4.0329e-05
0.0035009
5.9975e-05
0.0033687
7.8625e-05
0.0031866
9.5982e-05
0.0029494
0.00011165
0.0026703
0.00012545
0.0023345
0.00013711
0.0019847
0.00014625
0.0015615
0.00015365
0.0011818
0.00015746
0.00069373
0.00029368
0.00016063
2.0131e-05
0.0035717
5.292e-08
4.0331e-05
0.0034807
5.9978e-05
0.0033491
7.8629e-05
0.0031679
9.5988e-05
0.0029321
0.00011166
0.0026547
0.00012546
0.0023207
0.00013713
0.001973
0.00014627
0.0015524
0.00015367
0.0011744
0.0001575
0.0006899
0.00029056
0.00016062
2.0131e-05
0.0035515
5.3256e-08
4.0333e-05
0.0034605
5.9981e-05
0.0033294
7.8633e-05
0.0031493
9.5993e-05
0.0029147
0.00011167
0.002639
0.00012547
0.0023069
0.00013715
0.0019614
0.00014629
0.0015432
0.0001537
0.001167
0.00015754
0.00068606
0.00028749
0.00016062
2.0132e-05
0.0035313
5.3596e-08
4.0334e-05
0.0034403
5.9983e-05
0.0033098
7.8638e-05
0.0031306
9.5998e-05
0.0028974
0.00011167
0.0026233
0.00012548
0.0022931
0.00013716
0.0019497
0.00014631
0.0015341
0.00015372
0.0011596
0.00015758
0.0006822
0.00028446
0.00016061
2.0133e-05
0.0035111
5.3939e-08
4.0336e-05
0.0034201
5.9986e-05
0.0032901
7.8642e-05
0.003112
9.6004e-05
0.00288
0.00011168
0.0026076
0.00012549
0.0022793
0.00013718
0.001938
0.00014634
0.0015249
0.00015374
0.0011521
0.00015762
0.00067832
0.00028147
0.00016061
2.0133e-05
0.0034909
5.4287e-08
4.0337e-05
0.0033999
5.9989e-05
0.0032705
7.8646e-05
0.0030933
9.601e-05
0.0028626
0.00011169
0.0025919
0.0001255
0.0022655
0.0001372
0.0019263
0.00014636
0.0015158
0.00015377
0.0011447
0.00015766
0.00067443
0.00027852
0.00016061
2.0134e-05
0.0034708
5.464e-08
4.0339e-05
0.0033797
5.9992e-05
0.0032508
7.8651e-05
0.0030747
9.6015e-05
0.0028453
0.0001117
0.0025763
0.00012551
0.0022517
0.00013722
0.0019146
0.00014638
0.0015066
0.00015379
0.0011373
0.0001577
0.00067052
0.00027561
0.00016061
2.0134e-05
0.0034506
5.4997e-08
4.0341e-05
0.0033595
5.9994e-05
0.0032312
7.8656e-05
0.003056
9.6021e-05
0.0028279
0.00011171
0.0025606
0.00012552
0.0022379
0.00013724
0.0019028
0.0001464
0.0014975
0.00015381
0.0011299
0.00015774
0.00066659
0.00027273
0.00016061
2.0135e-05
0.0034304
5.536e-08
4.0343e-05
0.0033393
5.9997e-05
0.0032115
7.866e-05
0.0030373
9.6027e-05
0.0028105
0.00011172
0.0025449
0.00012553
0.0022241
0.00013726
0.0018911
0.00014642
0.0014883
0.00015383
0.0011225
0.00015777
0.00066265
0.0002699
0.00016061
2.0136e-05
0.0034102
5.5728e-08
4.0344e-05
0.003319
6e-05
0.0031919
7.8665e-05
0.0030187
9.6033e-05
0.0027932
0.00011173
0.0025292
0.00012554
0.0022102
0.00013728
0.0018794
0.00014644
0.0014791
0.00015386
0.0011151
0.00015781
0.0006587
0.0002671
0.00016061
2.0136e-05
0.00339
5.6101e-08
4.0346e-05
0.0032988
6.0003e-05
0.0031722
7.867e-05
0.003
9.604e-05
0.0027758
0.00011174
0.0025135
0.00012555
0.0021964
0.00013729
0.0018676
0.00014647
0.00147
0.00015388
0.0011077
0.00015785
0.00065473
0.00026434
0.00016061
2.0137e-05
0.0033698
5.6479e-08
4.0348e-05
0.0032786
6.0006e-05
0.0031525
7.8675e-05
0.0029813
9.6046e-05
0.0027584
0.00011175
0.0024978
0.00012556
0.0021826
0.00013731
0.0018559
0.00014649
0.0014608
0.0001539
0.0011003
0.00015788
0.00065075
0.00026161
0.00016061
2.0138e-05
0.0033496
5.6864e-08
4.035e-05
0.0032584
6.0009e-05
0.0031329
7.868e-05
0.0029627
9.6052e-05
0.002741
0.00011176
0.0024821
0.00012558
0.0021688
0.00013733
0.0018441
0.00014651
0.0014516
0.00015392
0.0010928
0.00015792
0.00064676
0.00025891
0.00016061
2.0138e-05
0.0033294
5.7255e-08
4.0352e-05
0.0032382
6.0012e-05
0.0031132
7.8685e-05
0.002944
9.6059e-05
0.0027237
0.00011177
0.0024663
0.00012559
0.002155
0.00013735
0.0018324
0.00014653
0.0014424
0.00015394
0.0010854
0.00015795
0.00064275
0.00025624
0.00016062
2.0139e-05
0.0033092
5.7651e-08
4.0354e-05
0.003218
6.0016e-05
0.0030936
7.869e-05
0.0029253
9.6066e-05
0.0027063
0.00011178
0.0024506
0.0001256
0.0021412
0.00013737
0.0018206
0.00014656
0.0014332
0.00015397
0.001078
0.00015799
0.00063873
0.00025361
0.00016062
2.014e-05
0.003289
5.8054e-08
4.0356e-05
0.0031978
6.0019e-05
0.0030739
7.8695e-05
0.0029066
9.6072e-05
0.0026889
0.0001118
0.0024349
0.00012561
0.0021274
0.00013739
0.0018088
0.00014658
0.001424
0.00015399
0.0010706
0.00015802
0.0006347
0.00025101
0.00016062
2.0141e-05
0.0032688
5.8464e-08
4.0358e-05
0.0031776
6.0022e-05
0.0030542
7.8701e-05
0.002888
9.6079e-05
0.0026715
0.00011181
0.0024192
0.00012562
0.0021136
0.00013741
0.001797
0.0001466
0.0014149
0.00015401
0.0010632
0.00015805
0.00063066
0.00024844
0.00016063
2.0141e-05
0.0032486
5.888e-08
4.036e-05
0.0031573
6.0026e-05
0.0030346
7.8706e-05
0.0028693
9.6086e-05
0.0026542
0.00011182
0.0024034
0.00012564
0.0020997
0.00013743
0.0017852
0.00014663
0.0014057
0.00015403
0.0010558
0.00015809
0.0006266
0.00024589
0.00016063
2.0142e-05
0.0032284
5.9303e-08
4.0362e-05
0.0031371
6.0029e-05
0.0030149
7.8712e-05
0.0028506
9.6093e-05
0.0026368
0.00011183
0.0023877
0.00012565
0.0020859
0.00013745
0.0017734
0.00014665
0.0013965
0.00015405
0.0010484
0.00015812
0.00062254
0.00024337
0.00016064
2.0143e-05
0.0032082
5.9733e-08
4.0364e-05
0.0031169
6.0033e-05
0.0029952
7.8717e-05
0.0028319
9.6101e-05
0.0026194
0.00011184
0.002372
0.00012566
0.0020721
0.00013747
0.0017616
0.00014667
0.0013872
0.00015408
0.001041
0.00015815
0.00061846
0.00024088
0.00016064
2.0144e-05
0.003188
6.0169e-08
4.0366e-05
0.0030967
6.0036e-05
0.0029756
7.8723e-05
0.0028132
9.6108e-05
0.002602
0.00011185
0.0023562
0.00012567
0.0020583
0.00013749
0.0017498
0.0001467
0.001378
0.0001541
0.0010336
0.00015819
0.00061437
0.00023842
0.00016065
2.0145e-05
0.0031678
6.0613e-08
4.0369e-05
0.0030764
6.004e-05
0.0029559
7.8729e-05
0.0027945
9.6116e-05
0.0025846
0.00011186
0.0023405
0.00012569
0.0020445
0.00013751
0.001738
0.00014672
0.0013688
0.00015412
0.0010262
0.00015822
0.00061027
0.00023598
0.00016066
2.0145e-05
0.0031476
6.1065e-08
4.0371e-05
0.0030562
6.0044e-05
0.0029362
7.8735e-05
0.0027758
9.6123e-05
0.0025672
0.00011188
0.0023247
0.0001257
0.0020306
0.00013753
0.0017262
0.00014674
0.0013596
0.00015414
0.0010188
0.00015825
0.00060616
0.00023357
0.00016066
2.0146e-05
0.0031274
6.1524e-08
4.0373e-05
0.003036
6.0047e-05
0.0029165
7.8741e-05
0.0027571
9.6131e-05
0.0025499
0.00011189
0.002309
0.00012572
0.0020168
0.00013754
0.0017144
0.00014677
0.0013504
0.00015416
0.0010114
0.00015828
0.00060205
0.00023118
0.00016067
2.0147e-05
0.0031072
6.199e-08
4.0376e-05
0.0030158
6.0051e-05
0.0028969
7.8747e-05
0.0027384
9.6139e-05
0.0025325
0.0001119
0.0022932
0.00012573
0.002003
0.00013756
0.0017025
0.00014679
0.0013411
0.00015418
0.001004
0.00015831
0.00059792
0.00022881
0.00016068
2.0148e-05
0.003087
6.2465e-08
4.0378e-05
0.0029955
6.0055e-05
0.0028772
7.8754e-05
0.0027197
9.6147e-05
0.0025151
0.00011191
0.0022774
0.00012574
0.0019891
0.00013759
0.0016907
0.00014682
0.0013319
0.00015421
0.00099662
0.00015835
0.00059378
0.00022647
0.00016069
2.0149e-05
0.0030668
6.2947e-08
4.038e-05
0.0029753
6.0059e-05
0.0028575
7.876e-05
0.002701
9.6155e-05
0.0024977
0.00011192
0.0022617
0.00012576
0.0019753
0.00013761
0.0016788
0.00014684
0.0013227
0.00015423
0.00098923
0.00015838
0.00058963
0.00022415
0.0001607
2.015e-05
0.0030465
6.3438e-08
4.0383e-05
0.0029551
6.0063e-05
0.0028378
7.8767e-05
0.0026823
9.6164e-05
0.0024803
0.00011194
0.0022459
0.00012577
0.0019615
0.00013763
0.001667
0.00014687
0.0013134
0.00015425
0.00098185
0.00015841
0.00058547
0.00022185
0.00016071
2.0151e-05
0.0030263
6.3937e-08
4.0385e-05
0.0029348
6.0067e-05
0.0028182
7.8773e-05
0.0026636
9.6172e-05
0.0024629
0.00011195
0.0022301
0.00012579
0.0019476
0.00013765
0.0016551
0.00014689
0.0013042
0.00015427
0.00097447
0.00015844
0.00058131
0.00021956
0.00016072
2.0152e-05
0.0030061
6.4444e-08
4.0388e-05
0.0029146
6.0072e-05
0.0027985
7.878e-05
0.0026449
9.6181e-05
0.0024455
0.00011196
0.0022143
0.0001258
0.0019338
0.00013767
0.0016433
0.00014692
0.0012949
0.0001543
0.00096709
0.00015847
0.00057713
0.0002173
0.00016073
2.0153e-05
0.0029859
6.4961e-08
4.0391e-05
0.0028944
6.0076e-05
0.0027788
7.8787e-05
0.0026262
9.619e-05
0.0024281
0.00011198
0.0021985
0.00012582
0.00192
0.00013769
0.0016314
0.00014694
0.0012857
0.00015432
0.00095972
0.0001585
0.00057295
0.00021506
0.00016074
2.0154e-05
0.0029657
6.5486e-08
4.0393e-05
0.0028741
6.008e-05
0.0027591
7.8794e-05
0.0026075
9.6198e-05
0.0024107
0.00011199
0.0021828
0.00012583
0.0019061
0.00013771