/*--------------------------------*- C++ -*----------------------------------*\
  =========                 |
  \\      /  F ield         | OpenFOAM: The Open Source CFD Toolbox
   \\    /   O peration     | Website:  https://openfoam.org
    \\  /    A nd           | Version:  6.0
     \\/     M anipulation  |
\*---------------------------------------------------------------------------*/
FoamFile
{
    version     2.0;
    format      ascii;
    class       volScalarField;
    location    "3";
    object      p;
}
// * * * * * * * * * * * * * * * * * * * * * * * * * * * * * * * * * * * * * //

dimensions      [0 2 -2 0 0 0 0];

internalField   nonuniform List<scalar> 
15000
(
0.775127
0.777599
0.781934
0.787877
0.794218
0.801296
0.807184
0.81317
0.812279
0.808726
0.765826
0.642229
0.7749
0.775651
0.776698
0.778033
0.778668
0.779241
0.777834
0.776127
0.765534
0.750779
0.680622
0.500386
0.77497
0.776435
0.77889
0.782257
0.785428
0.788873
0.79058
0.79211
0.785295
0.774781
0.713595
0.572911
0.775023
0.777079
0.780682
0.785673
0.790845
0.796507
0.800518
0.804285
0.799887
0.791872
0.736387
0.623825
0.774983
0.776935
0.780333
0.785025
0.789832
0.795048
0.798439
0.801393
0.795693
0.786001
0.726909
0.615199
0.774919
0.776625
0.77955
0.783568
0.787559
0.79186
0.794179
0.795933
0.788557
0.776906
0.713664
0.600122
0.774869
0.776483
0.779229
0.782984
0.786653
0.790595
0.792473
0.793712
0.785535
0.772946
0.708015
0.598384
0.774823
0.776428
0.779151
0.782855
0.786439
0.790266
0.791956
0.792925
0.784245
0.771034
0.705321
0.600952
0.774772
0.776351
0.779023
0.782641
0.786086
0.789722
0.79113
0.791721
0.782421
0.768464
0.701882
0.601372
0.774713
0.776244
0.778822
0.782307
0.785556
0.788932
0.789986
0.79013
0.780152
0.765409
0.698017
0.600531
0.774649
0.776127
0.778608
0.781963
0.785025
0.788154
0.788869
0.788587
0.777979
0.76252
0.694583
0.600021
0.774581
0.776009
0.778395
0.78163
0.784526
0.787431
0.787832
0.787148
0.77596
0.759847
0.691603
0.599873
0.77451
0.775884
0.778171
0.781281
0.784011
0.786698
0.78679
0.78571
0.773965
0.757233
0.688851
0.599727
0.774434
0.775753
0.777933
0.780905
0.783464
0.785931
0.785719
0.784246
0.771968
0.754653
0.686284
0.599558
0.774355
0.775619
0.777689
0.780515
0.7829
0.785151
0.784643
0.782791
0.770014
0.752161
0.683952
0.599478
0.774273
0.775485
0.777449
0.780126
0.782335
0.784375
0.783585
0.781372
0.768132
0.749788
0.681874
0.59953
0.774187
0.775353
0.777217
0.779747
0.781778
0.78361
0.782547
0.779988
0.766321
0.74753
0.680026
0.599693
0.774099
0.775225
0.776995
0.779383
0.781237
0.782859
0.78153
0.778638
0.764575
0.745378
0.678384
0.599954
0.774008
0.775098
0.776784
0.779036
0.780717
0.78213
0.780539
0.777323
0.762893
0.743328
0.67693
0.600306
0.773913
0.774971
0.776579
0.778708
0.780221
0.781427
0.779579
0.776047
0.761277
0.741378
0.675652
0.600747
0.773815
0.774842
0.776378
0.778391
0.779745
0.780749
0.778649
0.774809
0.759721
0.73952
0.674531
0.601268
0.773713
0.774709
0.776174
0.778079
0.779281
0.780088
0.777742
0.773603
0.75822
0.737745
0.67355
0.601859
0.773607
0.77457
0.775962
0.777762
0.778819
0.779435
0.77685
0.772419
0.756762
0.736041
0.672692
0.602515
0.773498
0.774424
0.775741
0.777435
0.778349
0.778779
0.775964
0.771252
0.755342
0.734405
0.671947
0.603237
0.773386
0.774272
0.775511
0.777096
0.777869
0.778118
0.775081
0.770097
0.753957
0.732832
0.671309
0.604025
0.77327
0.774116
0.775274
0.776748
0.77738
0.777451
0.7742
0.768958
0.752612
0.731327
0.670776
0.604886
0.773153
0.773956
0.775034
0.776395
0.776887
0.776783
0.773327
0.767838
0.751309
0.729892
0.670344
0.605818
0.773032
0.773795
0.774794
0.776043
0.776395
0.77612
0.772466
0.766743
0.750054
0.728531
0.670013
0.606821
0.77291
0.773634
0.774557
0.775696
0.775911
0.775467
0.771623
0.765676
0.748846
0.727241
0.669772
0.60789
0.772785
0.773473
0.774324
0.775356
0.775438
0.77483
0.770802
0.76464
0.747689
0.726021
0.669617
0.609018
0.772659
0.773312
0.774093
0.775025
0.774977
0.774207
0.770001
0.763634
0.746577
0.724866
0.669537
0.610198
0.772531
0.77315
0.773865
0.774698
0.774525
0.773599
0.769221
0.762655
0.745509
0.723772
0.669524
0.611426
0.772402
0.772987
0.773636
0.774375
0.774081
0.773001
0.768456
0.761702
0.744479
0.722732
0.66957
0.612695
0.772272
0.772823
0.773406
0.774051
0.773639
0.772411
0.767705
0.76077
0.743487
0.721745
0.669672
0.614003
0.77214
0.772657
0.773174
0.773726
0.773197
0.771824
0.766965
0.759857
0.742527
0.720807
0.669823
0.615347
0.772007
0.77249
0.77294
0.773398
0.772755
0.77124
0.766235
0.758964
0.741603
0.719919
0.670023
0.616726
0.771873
0.772323
0.772707
0.77307
0.772313
0.77066
0.765515
0.758091
0.740712
0.719081
0.670268
0.618137
0.771738
0.772156
0.772474
0.772744
0.771875
0.770087
0.764808
0.757241
0.739859
0.718294
0.670558
0.619578
0.771602
0.771989
0.772245
0.772423
0.771443
0.769523
0.764117
0.756415
0.739043
0.717557
0.670889
0.621045
0.771466
0.771824
0.77202
0.772109
0.771022
0.768973
0.763446
0.755617
0.738266
0.71687
0.67126
0.622536
0.771328
0.771661
0.7718
0.771803
0.770611
0.768438
0.762794
0.754846
0.737527
0.716231
0.671665
0.624045
0.77119
0.771497
0.771583
0.771505
0.770212
0.767918
0.762163
0.754103
0.736824
0.715637
0.672101
0.62557
0.771051
0.771335
0.771369
0.771212
0.769823
0.767411
0.76155
0.753383
0.736154
0.715084
0.672564
0.627106
0.770911
0.771171
0.771156
0.770924
0.769441
0.766916
0.760953
0.752686
0.735515
0.71457
0.67305
0.628651
0.770771
0.771007
0.770942
0.770637
0.769064
0.766429
0.760369
0.752009
0.734903
0.714091
0.673556
0.630202
0.770629
0.770841
0.770727
0.77035
0.76869
0.765948
0.759797
0.75135
0.734317
0.713647
0.674081
0.631757
0.770488
0.770675
0.770511
0.770063
0.768318
0.765473
0.759235
0.750707
0.733756
0.713235
0.674622
0.633315
0.770345
0.770508
0.770295
0.769776
0.767947
0.765002
0.758683
0.750082
0.733221
0.712857
0.675181
0.634875
0.770203
0.77034
0.770078
0.769489
0.767579
0.764537
0.758142
0.749474
0.73271
0.71251
0.675754
0.636435
0.77006
0.770173
0.769862
0.769205
0.767215
0.76408
0.757613
0.748885
0.732226
0.712196
0.676342
0.637993
0.769918
0.770007
0.769649
0.768925
0.766857
0.763632
0.757098
0.748315
0.731766
0.711913
0.676943
0.639547
0.769776
0.769842
0.769438
0.768649
0.766506
0.763194
0.756597
0.747765
0.731332
0.71166
0.677555
0.641097
0.769634
0.769679
0.769229
0.768379
0.766163
0.762766
0.756111
0.747234
0.730921
0.711435
0.678177
0.64264
0.769493
0.769516
0.769024
0.768113
0.765827
0.762349
0.755638
0.746722
0.730535
0.711238
0.678809
0.644175
0.769352
0.769356
0.768821
0.767852
0.765497
0.761941
0.755179
0.746227
0.730169
0.711066
0.679446
0.645701
0.769212
0.769196
0.768621
0.767594
0.765174
0.761542
0.754732
0.74575
0.729824
0.710919
0.680091
0.647217
0.769074
0.769038
0.768423
0.76734
0.764856
0.761151
0.754296
0.745288
0.729499
0.710794
0.68074
0.648721
0.768935
0.768882
0.768227
0.767089
0.764542
0.760767
0.753872
0.744842
0.729193
0.710692
0.681394
0.650214
0.768798
0.768727
0.768033
0.766842
0.764234
0.760391
0.753458
0.744411
0.728906
0.710612
0.682053
0.651694
0.768662
0.768574
0.767842
0.766599
0.763932
0.760023
0.753057
0.743997
0.728639
0.710554
0.682716
0.653162
0.768527
0.768423
0.767655
0.766361
0.763636
0.759664
0.752667
0.743599
0.72839
0.710517
0.683381
0.654615
0.768393
0.768274
0.767471
0.766128
0.763347
0.759315
0.752291
0.743218
0.72816
0.7105
0.68405
0.656054
0.768261
0.768127
0.767291
0.7659
0.763066
0.758976
0.751928
0.742853
0.727947
0.710502
0.68472
0.657478
0.768129
0.767983
0.767114
0.765677
0.762792
0.758647
0.751577
0.742504
0.727752
0.710522
0.685391
0.658886
0.767999
0.76784
0.76694
0.76546
0.762525
0.758327
0.751238
0.742169
0.727572
0.710558
0.686061
0.660276
0.767869
0.767699
0.766769
0.765247
0.762265
0.758016
0.750911
0.741849
0.727408
0.71061
0.686732
0.661651
0.767741
0.767559
0.7666
0.765037
0.762009
0.757712
0.750594
0.741542
0.727257
0.710676
0.687399
0.663007
0.767615
0.767421
0.766434
0.764831
0.761759
0.757416
0.750286
0.741247
0.72712
0.710756
0.688066
0.664346
0.767489
0.767285
0.76627
0.764627
0.761513
0.757126
0.749987
0.740964
0.726994
0.710847
0.68873
0.665666
0.767365
0.767151
0.766107
0.764427
0.761272
0.756843
0.749698
0.740693
0.726881
0.710952
0.689392
0.66697
0.767243
0.767018
0.765947
0.76423
0.761034
0.756566
0.749417
0.740433
0.72678
0.711068
0.69005
0.668254
0.767123
0.766888
0.76579
0.764036
0.760803
0.756297
0.749146
0.740185
0.726691
0.711197
0.690707
0.669521
0.767004
0.76676
0.765636
0.763846
0.760576
0.756034
0.748884
0.739949
0.726613
0.711335
0.691359
0.670769
0.766887
0.766634
0.765485
0.763661
0.760356
0.75578
0.748632
0.739725
0.726547
0.711485
0.692009
0.671999
0.766773
0.766511
0.765337
0.763481
0.760141
0.755534
0.74839
0.739512
0.726491
0.711643
0.692654
0.673209
0.76666
0.766391
0.765194
0.763305
0.759933
0.755296
0.748157
0.739311
0.726447
0.711812
0.693296
0.674402
0.76655
0.766273
0.765053
0.763134
0.759731
0.755065
0.747934
0.73912
0.726411
0.711988
0.693933
0.675575
0.766441
0.766159
0.764917
0.762968
0.759535
0.754842
0.74772
0.73894
0.726386
0.712173
0.694566
0.676731
0.766336
0.766047
0.764784
0.762807
0.759344
0.754627
0.747514
0.738769
0.726369
0.712364
0.695193
0.677866
0.766232
0.765938
0.764655
0.76265
0.75916
0.754419
0.747317
0.73861
0.726361
0.712564
0.695816
0.678984
0.766131
0.765833
0.76453
0.762499
0.758982
0.754218
0.747128
0.738459
0.726361
0.71277
0.696434
0.680082
0.766033
0.76573
0.764408
0.762352
0.75881
0.754024
0.746949
0.738319
0.726371
0.712983
0.697047
0.681163
0.765937
0.76563
0.764291
0.76221
0.758643
0.753838
0.746777
0.738187
0.726387
0.7132
0.697653
0.682224
0.765843
0.765534
0.764177
0.762073
0.758483
0.75366
0.746614
0.738066
0.726413
0.713424
0.698255
0.683267
0.765753
0.76544
0.764068
0.761941
0.758328
0.753488
0.746459
0.737953
0.726444
0.713652
0.69885
0.684291
0.765665
0.76535
0.763962
0.761814
0.75818
0.753325
0.746313
0.737849
0.726483
0.713886
0.699439
0.685297
0.76558
0.765262
0.76386
0.761692
0.758038
0.753168
0.746173
0.737753
0.726528
0.714122
0.700021
0.686283
0.765497
0.765178
0.763762
0.761575
0.757901
0.753018
0.746042
0.737666
0.72658
0.714363
0.700598
0.687253
0.765418
0.765097
0.763667
0.761462
0.757769
0.752874
0.745916
0.737585
0.726635
0.714605
0.701166
0.688202
0.765341
0.76502
0.763577
0.761354
0.757642
0.752736
0.745798
0.737513
0.726697
0.714851
0.701728
0.689134
0.765267
0.764945
0.76349
0.761249
0.75752
0.752605
0.745686
0.737446
0.726763
0.715098
0.702282
0.690047
0.765197
0.764874
0.763407
0.76115
0.757403
0.752479
0.745581
0.737387
0.726834
0.715348
0.70283
0.690943
0.76513
0.764806
0.763327
0.761055
0.757291
0.75236
0.745481
0.737334
0.726908
0.715598
0.703369
0.69182
0.765066
0.764742
0.763252
0.760964
0.757185
0.752247
0.745389
0.737288
0.726988
0.715851
0.703902
0.692681
0.765005
0.764681
0.763181
0.760878
0.757084
0.752139
0.745302
0.737248
0.727071
0.716104
0.704426
0.693522
0.764948
0.764625
0.763114
0.760798
0.756989
0.752039
0.745222
0.737215
0.727159
0.716359
0.704944
0.694347
0.764895
0.764572
0.763052
0.760722
0.756899
0.751945
0.745148
0.737187
0.727249
0.716613
0.705453
0.695153
0.764845
0.764524
0.762995
0.760652
0.756815
0.751858
0.745081
0.737166
0.727343
0.716869
0.705955
0.695944
0.764799
0.764479
0.762942
0.760587
0.756737
0.751776
0.745019
0.73715
0.72744
0.717123
0.706448
0.696715
0.764756
0.764439
0.762894
0.760528
0.756666
0.751702
0.744964
0.737141
0.72754
0.717378
0.706934
0.697471
0.764718
0.764403
0.76285
0.760474
0.756599
0.751633
0.744915
0.737135
0.727642
0.717631
0.70741
0.698208
0.764683
0.764371
0.762812
0.760425
0.756539
0.751571
0.744871
0.737136
0.727748
0.717884
0.70788
0.69893
0.764652
0.764343
0.762778
0.760382
0.756485
0.751514
0.744833
0.73714
0.727854
0.718135
0.70834
0.699633
0.764625
0.76432
0.76275
0.760344
0.756436
0.751464
0.7448
0.73715
0.727963
0.718385
0.708793
0.700321
0.764603
0.764302
0.762726
0.760311
0.756393
0.751419
0.744772
0.737163
0.728073
0.718632
0.709235
0.70099
0.764584
0.764288
0.762707
0.760284
0.756357
0.75138
0.74475
0.737182
0.728185
0.718879
0.709671
0.701645
0.76457
0.764278
0.762693
0.760262
0.756325
0.751346
0.744732
0.737203
0.728297
0.719122
0.710095
0.702282
0.76456
0.764273
0.762684
0.760245
0.7563
0.751318
0.74472
0.737229
0.728412
0.719363
0.710513
0.702903
0.764554
0.764273
0.76268
0.760234
0.756279
0.751295
0.744711
0.737257
0.728525
0.7196
0.71092
0.703507
0.764552
0.764278
0.762681
0.760228
0.756265
0.751278
0.744708
0.737289
0.728641
0.719836
0.71132
0.704096
0.764556
0.764287
0.762687
0.760228
0.756255
0.751265
0.744708
0.737323
0.728755
0.720067
0.711708
0.704667
0.764563
0.764301
0.762699
0.760233
0.756252
0.751258
0.744713
0.737361
0.728871
0.720296
0.71209
0.705225
0.764575
0.764321
0.762715
0.760243
0.756253
0.751255
0.744721
0.7374
0.728985
0.720519
0.71246
0.705764
0.764592
0.764345
0.762738
0.760259
0.75626
0.751258
0.744733
0.737443
0.7291
0.72074
0.712823
0.706289
0.764614
0.764375
0.762765
0.76028
0.756272
0.751265
0.744749
0.737487
0.729214
0.720956
0.713174
0.706797
0.764641
0.764409
0.762798
0.760308
0.75629
0.751277
0.74477
0.737535
0.729328
0.721169
0.713518
0.707291
0.764673
0.76445
0.762836
0.76034
0.756313
0.751294
0.744793
0.737583
0.72944
0.721376
0.71385
0.707767
0.764709
0.764496
0.762881
0.760379
0.756343
0.751316
0.744821
0.737635
0.729553
0.721581
0.714175
0.70823
0.764752
0.764547
0.762931
0.760423
0.756377
0.751342
0.744852
0.737687
0.729664
0.721779
0.714489
0.708676
0.764799
0.764604
0.762987
0.760474
0.756418
0.751375
0.744888
0.737743
0.729774
0.721974
0.714794
0.709108
0.764852
0.764667
0.763049
0.76053
0.756464
0.751411
0.744926
0.737799
0.729882
0.722162
0.715088
0.709523
0.76491
0.764736
0.763118
0.760593
0.756516
0.751453
0.744968
0.737857
0.72999
0.722347
0.715374
0.709924
0.764974
0.764811
0.763192
0.760662
0.756573
0.751499
0.745013
0.737916
0.730095
0.722525
0.715648
0.710309
0.765043
0.764892
0.763273
0.760737
0.756637
0.751551
0.745062
0.737977
0.7302
0.7227
0.715914
0.71068
0.765119
0.76498
0.76336
0.760819
0.756706
0.751606
0.745113
0.738038
0.730301
0.722867
0.716168
0.711035
0.7652
0.765073
0.763454
0.760907
0.756782
0.751668
0.745169
0.738101
0.730401
0.72303
0.716414
0.711376
0.765287
0.765173
0.763554
0.761
0.756862
0.751733
0.745226
0.738163
0.730498
0.723185
0.716647
0.7117
0.765381
0.76528
0.763661
0.761101
0.756949
0.751803
0.745287
0.738227
0.730593
0.723336
0.716872
0.712012
0.76548
0.765393
0.763774
0.761208
0.757042
0.751877
0.74535
0.738291
0.730684
0.723479
0.717085
0.712306
0.765586
0.765512
0.763895
0.761322
0.757141
0.751957
0.745416
0.738355
0.730774
0.723617
0.717289
0.712587
0.765699
0.765639
0.764022
0.761442
0.757245
0.75204
0.745484
0.738419
0.730859
0.723746
0.71748
0.712851
0.765817
0.765772
0.764156
0.76157
0.757355
0.752128
0.745555
0.738483
0.730942
0.723871
0.717663
0.713103
0.765943
0.765913
0.764297
0.761703
0.757471
0.75222
0.745628
0.738546
0.73102
0.723987
0.717833
0.713338
0.766076
0.76606
0.764446
0.761844
0.757593
0.752317
0.745703
0.73861
0.731096
0.724098
0.717993
0.71356
0.766215
0.766216
0.764602
0.761992
0.757721
0.752418
0.74578
0.738672
0.731167
0.724199
0.718141
0.713764
0.766362
0.766378
0.764766
0.762147
0.757856
0.752524
0.74586
0.738735
0.731236
0.724295
0.71828
0.713956
0.766516
0.766548
0.764937
0.762309
0.757996
0.752633
0.74594
0.738795
0.731298
0.724382
0.718405
0.714131
0.766677
0.766726
0.765116
0.762479
0.758143
0.752748
0.746024
0.738856
0.731358
0.724462
0.718521
0.714293
0.766846
0.766912
0.765303
0.762656
0.758295
0.752866
0.746108
0.738914
0.731412
0.724533
0.718623
0.714438
0.767023
0.767106
0.765499
0.762841
0.758455
0.752989
0.746195
0.738972
0.731463
0.724598
0.718716
0.71457
0.767207
0.767309
0.765702
0.763034
0.758621
0.753116
0.746283
0.739028
0.731508
0.724652
0.718795
0.714685
0.7674
0.76752
0.765915
0.763234
0.758793
0.753248
0.746373
0.739083
0.731549
0.7247
0.718864
0.714787
0.767601
0.767739
0.766136
0.763443
0.758972
0.753383
0.746464
0.739135
0.731583
0.724737
0.718919
0.714871
0.767809
0.767968
0.766365
0.76366
0.759158
0.753524
0.746557
0.739187
0.731613
0.724767
0.718964
0.714943
0.768027
0.768205
0.766604
0.763885
0.75935
0.753668
0.74665
0.739235
0.731636
0.724786
0.718994
0.714996
0.768253
0.768452
0.766852
0.764119
0.75955
0.753817
0.746745
0.739282
0.731655
0.724798
0.719014
0.715037
0.768489
0.768708
0.76711
0.764361
0.759756
0.75397
0.74684
0.739325
0.731666
0.724798
0.719019
0.715059
0.768733
0.768973
0.767377
0.764612
0.759969
0.754127
0.746937
0.739366
0.731672
0.724791
0.719014
0.715068
0.768987
0.769249
0.767654
0.764872
0.760189
0.754288
0.747033
0.739403
0.73167
0.724771
0.718992
0.715059
0.769249
0.769534
0.767941
0.765142
0.760417
0.754454
0.747131
0.739438
0.731662
0.724743
0.71896
0.715037
0.769522
0.76983
0.768237
0.76542
0.760651
0.754622
0.747228
0.739469
0.731646
0.724702
0.718912
0.714996
0.769805
0.770136
0.768545
0.765708
0.760893
0.754796
0.747326
0.739497
0.731623
0.724653
0.718852
0.714941
0.770098
0.770453
0.768863
0.766006
0.761142
0.754973
0.747423
0.739519
0.731591
0.72459
0.718776
0.714867
0.7704
0.770781
0.769193
0.766314
0.761398
0.755155
0.747521
0.739538
0.731553
0.724518
0.718689
0.714779
0.770714
0.771121
0.769533
0.766631
0.761662
0.755339
0.747618
0.739552
0.731505
0.724432
0.718584
0.714672
0.771039
0.771472
0.769885
0.766959
0.761934
0.755528
0.747714
0.739562
0.731449
0.724336
0.718467
0.714551
0.771375
0.771835
0.770249
0.767298
0.762213
0.75572
0.747809
0.739565
0.731383
0.724225
0.718333
0.71441
0.771721
0.77221
0.770625
0.767647
0.762501
0.755917
0.747904
0.739564
0.731309
0.724105
0.718185
0.714254
0.772081
0.772598
0.771013
0.768007
0.762796
0.756116
0.747997
0.739556
0.731224
0.723968
0.71802
0.714078
0.772451
0.772998
0.771415
0.768379
0.7631
0.75632
0.748089
0.739543
0.73113
0.723821
0.717841
0.713887
0.772834
0.773412
0.771829
0.768762
0.763411
0.756526
0.748179
0.739523
0.731024
0.723658
0.717644
0.713676
0.77323
0.773839
0.772256
0.769158
0.763732
0.756737
0.748267
0.739496
0.730908
0.723483
0.717433
0.713448
0.773639
0.774281
0.772698
0.769565
0.76406
0.756949
0.748352
0.739462
0.73078
0.723291
0.717202
0.7132
0.774061
0.774736
0.773154
0.769984
0.764397
0.757166
0.748436
0.73942
0.730641
0.723087
0.716957
0.712936
0.774496
0.775207
0.773624
0.770417
0.764742
0.757385
0.748515
0.739369
0.730489
0.722865
0.716692
0.71265
0.774946
0.775692
0.774109
0.770862
0.765096
0.757608
0.748592
0.739311
0.730325
0.722629
0.716411
0.712347
0.77541
0.776193
0.77461
0.77132
0.765459
0.757832
0.748664
0.739242
0.730146
0.722375
0.71611
0.712023
0.775889
0.77671
0.775127
0.771793
0.765831
0.758059
0.748733
0.739165
0.729955
0.722106
0.715792
0.71168
0.776384
0.777244
0.77566
0.772279
0.766212
0.758288
0.748797
0.739076
0.729748
0.721818
0.715454
0.711316
0.776893
0.777795
0.77621
0.77278
0.766602
0.75852
0.748856
0.738977
0.729528
0.721514
0.715097
0.710933
0.77742
0.778363
0.776777
0.773295
0.767001
0.758752
0.748908
0.738865
0.72929
0.72119
0.714719
0.710526
0.777962
0.778949
0.777362
0.773826
0.767409
0.758987
0.748955
0.738743
0.729037
0.720849
0.714322
0.710101
0.778523
0.779554
0.777966
0.774372
0.767827
0.759221
0.748995
0.738606
0.728767
0.720487
0.713903
0.709652
0.7791
0.780179
0.778589
0.774934
0.768254
0.759458
0.749028
0.738457
0.728479
0.720106
0.713464
0.709183
0.779697
0.780823
0.779231
0.775512
0.768689
0.759693
0.749051
0.738292
0.728172
0.719703
0.713001
0.708689
0.780311
0.781488
0.779894
0.776108
0.769135
0.75993
0.749067
0.738114
0.727848
0.719281
0.712518
0.708174
0.780946
0.782174
0.780578
0.77672
0.769589
0.760164
0.749072
0.737917
0.727502
0.718834
0.71201
0.707635
0.781601
0.782882
0.781284
0.77735
0.770054
0.760399
0.749067
0.737705
0.727136
0.718367
0.71148
0.707073
0.782276
0.783613
0.782012
0.777998
0.770526
0.76063
0.74905
0.737474
0.726747
0.717874
0.710924
0.706485
0.782973
0.784368
0.782764
0.778665
0.771009
0.76086
0.749022
0.737224
0.726337
0.717359
0.710346
0.705875
0.783692
0.785146
0.78354
0.779351
0.7715
0.761086
0.748979
0.736953
0.725902
0.716818
0.709741
0.705237
0.784434
0.785951
0.784341
0.780056
0.772
0.761309
0.748922
0.736662
0.725444
0.716252
0.709111
0.704576
0.7852
0.786781
0.785167
0.780782
0.772509
0.761526
0.748849
0.736348
0.724959
0.715658
0.708454
0.703887
0.785991
0.787639
0.786021
0.781529
0.773026
0.761739
0.748759
0.73601
0.724448
0.715038
0.70777
0.703173
0.786807
0.788525
0.786903
0.782296
0.773551
0.761943
0.748649
0.735646
0.723908
0.714388
0.707058
0.70243
0.78765
0.789441
0.787814
0.783085
0.774084
0.76214
0.748521
0.735256
0.72334
0.713711
0.706318
0.70166
0.78852
0.790387
0.788755
0.783896
0.774623
0.762327
0.748369
0.734837
0.722741
0.713001
0.705548
0.700861
0.789419
0.791365
0.789727
0.78473
0.77517
0.762503
0.748195
0.734389
0.722111
0.712262
0.704749
0.700035
0.790348
0.792376
0.790732
0.785587
0.775722
0.762667
0.747995
0.733909
0.721447
0.71149
0.703918
0.699177
0.791307
0.793422
0.79177
0.786468
0.77628
0.762817
0.747768
0.733396
0.72075
0.710685
0.703057
0.698291
0.792298
0.794504
0.792844
0.787373
0.776841
0.76295
0.74751
0.732846
0.720015
0.709845
0.702162
0.697372
0.793323
0.795624
0.793955
0.788303
0.777406
0.763065
0.747222
0.73226
0.719245
0.708971
0.701235
0.696424
0.794382
0.796783
0.795104
0.789256
0.777972
0.763159
0.746898
0.731634
0.718434
0.708059
0.700274
0.695442
0.795478
0.797983
0.796292
0.790236
0.778539
0.763231
0.746537
0.730967
0.717583
0.70711
0.699279
0.694429
0.796611
0.799226
0.797522
0.79124
0.779105
0.763276
0.746136
0.730255
0.71669
0.706122
0.698247
0.693382
0.797783
0.800515
0.798796
0.792271
0.779668
0.763293
0.745692
0.729497
0.715753
0.705094
0.69718
0.692301
0.798997
0.801851
0.800114
0.793326
0.780225
0.763277
0.745201
0.728689
0.714769
0.704025
0.696075
0.691185
0.800254
0.803236
0.801479
0.794408
0.780776
0.763226
0.74466
0.72783
0.713739
0.702913
0.694932
0.690035
0.801555
0.804673
0.802893
0.795514
0.781315
0.763134
0.744066
0.726916
0.712658
0.701758
0.69375
0.688847
0.802904
0.806166
0.804358
0.796645
0.781841
0.762998
0.743414
0.725946
0.711526
0.700558
0.692529
0.687624
0.804302
0.807716
0.805875
0.7978
0.78235
0.762812
0.742699
0.724914
0.710341
0.699311
0.691267
0.686362
0.805751
0.809327
0.807448
0.798979
0.782838
0.762572
0.741919
0.723819
0.7091
0.698017
0.689964
0.685063
0.807254
0.811002
0.809079
0.800179
0.783299
0.762271
0.741066
0.722656
0.707802
0.696674
0.688618
0.683725
0.808815
0.812746
0.810769
0.8014
0.783729
0.761904
0.740138
0.721424
0.706444
0.695282
0.687229
0.682347
0.810435
0.81456
0.812521
0.802638
0.784122
0.761464
0.739128
0.720117
0.705024
0.693837
0.685796
0.680928
0.812119
0.816451
0.814338
0.803893
0.784471
0.760943
0.73803
0.718734
0.703542
0.692341
0.684319
0.679469
0.813869
0.818422
0.816221
0.805159
0.784769
0.760333
0.736839
0.71727
0.701993
0.690791
0.682796
0.677967
0.815689
0.820479
0.818172
0.806434
0.785007
0.759626
0.735549
0.715722
0.700378
0.689187
0.681227
0.676423
0.817583
0.822626
0.820194
0.807712
0.785175
0.758812
0.734153
0.714085
0.698692
0.687526
0.679611
0.674836
0.819556
0.824869
0.822289
0.808988
0.785264
0.757881
0.732644
0.712358
0.696935
0.685809
0.677947
0.673205
0.821612
0.827215
0.824457
0.810254
0.78526
0.756823
0.731016
0.710534
0.695104
0.684034
0.676235
0.67153
0.823757
0.82967
0.826701
0.811503
0.785151
0.755625
0.729262
0.708612
0.6932
0.6822
0.674474
0.66981
0.825995
0.832241
0.829019
0.812724
0.784922
0.754276
0.727374
0.706588
0.691218
0.680307
0.672663
0.668045
0.828334
0.834935
0.831414
0.813906
0.784556
0.752762
0.725345
0.704459
0.689159
0.678353
0.670803
0.666235
0.830781
0.837762
0.833882
0.815036
0.784035
0.75107
0.723169
0.702221
0.68702
0.676339
0.668892
0.664378
0.833342
0.840729
0.836423
0.816097
0.78334
0.749186
0.720837
0.699872
0.684801
0.674264
0.66693
0.662475
0.836026
0.843847
0.839031
0.81707
0.782447
0.747093
0.718344
0.697409
0.682502
0.672128
0.664918
0.660526
0.838843
0.847123
0.841703
0.817934
0.781333
0.744777
0.715682
0.694831
0.680121
0.66993
0.662854
0.65853
0.841802
0.85057
0.84443
0.818663
0.779971
0.742221
0.712845
0.692136
0.677658
0.66767
0.66074
0.656486
0.844916
0.854197
0.847202
0.81923
0.778333
0.73941
0.709829
0.689322
0.675114
0.66535
0.658574
0.654395
0.848196
0.858014
0.850004
0.8196
0.776386
0.736327
0.706628
0.68639
0.672489
0.662969
0.656357
0.652257
0.851659
0.862033
0.85282
0.819735
0.774099
0.732957
0.703238
0.68334
0.669785
0.660528
0.654089
0.650071
0.855321
0.866263
0.855627
0.819591
0.771436
0.729284
0.699658
0.680172
0.667001
0.658029
0.651772
0.647837
0.859199
0.870714
0.858397
0.81912
0.768359
0.725294
0.695886
0.676889
0.664141
0.655471
0.649404
0.645556
0.863315
0.875393
0.861093
0.818266
0.764829
0.720976
0.691923
0.673494
0.661206
0.652858
0.646987
0.643227
0.867692
0.880307
0.863673
0.816966
0.760807
0.716318
0.687773
0.669991
0.658199
0.65019
0.644521
0.64085
0.872358
0.885457
0.866083
0.815151
0.756253
0.711315
0.683439
0.666385
0.655124
0.64747
0.642007
0.638425
0.877343
0.890842
0.868261
0.812746
0.751127
0.705962
0.67893
0.662681
0.651984
0.644699
0.639446
0.635954
0.88268
0.896453
0.870128
0.809665
0.745392
0.700261
0.674256
0.658887
0.648784
0.641882
0.63684
0.633436
0.888409
0.902276
0.871593
0.805819
0.739012
0.694218
0.669431
0.655011
0.645529
0.639019
0.634188
0.630871
0.894573
0.908283
0.872547
0.80111
0.73196
0.687848
0.664469
0.651062
0.642224
0.636115
0.631493
0.62826
0.90122
0.914434
0.872865
0.795437
0.724214
0.681169
0.65939
0.64705
0.638875
0.633172
0.628755
0.625604
0.908404
0.92067
0.872398
0.788696
0.715762
0.674212
0.654215
0.642987
0.635488
0.630195
0.625976
0.622905
0.916184
0.926914
0.870976
0.780781
0.706607
0.667013
0.648969
0.638883
0.632069
0.627186
0.623156
0.620163
0.924622
0.933056
0.868408
0.771592
0.696769
0.65962
0.643678
0.634751
0.628627
0.62415
0.620298
0.61738
0.933785
0.938956
0.864474
0.761037
0.686287
0.652089
0.638369
0.630602
0.625167
0.62109
0.617403
0.614559
0.943742
0.944431
0.858933
0.74904
0.675225
0.644486
0.63307
0.626449
0.621698
0.618011
0.614473
0.611702
0.95456
0.949246
0.851523
0.735552
0.663678
0.63688
0.627808
0.622303
0.618226
0.614918
0.611511
0.608812
0.9663
0.953105
0.84196
0.72056
0.651768
0.629351
0.622611
0.618175
0.614759
0.611815
0.608523
0.605893
0.979007
0.955639
0.82995
0.704102
0.639651
0.621978
0.6175
0.614077
0.611306
0.608709
0.605516
0.602949
0.992703
0.956388
0.815201
0.686284
0.627513
0.614835
0.612493
0.610015
0.607874
0.605608
0.6025
0.599983
1.00737
0.954786
0.797433
0.667301
0.615566
0.607994
0.607606
0.605999
0.604471
0.602514
0.599473
0.59699
1.02291
0.950144
0.776414
0.647448
0.604034
0.601503
0.60284
0.602039
0.601123
0.599477
0.596493
0.594012
1.03914
0.941621
0.752
0.627157
0.593169
0.595418
0.59819
0.598102
0.597764
0.596397
0.593449
0.59096
1.05571
0.928206
0.724205
0.606928
0.583116
0.589723
0.593724
0.594379
0.594709
0.593628
0.590611
0.587966
1.07206
0.908714
0.69342
0.587627
0.574228
0.58428
0.588959
0.590146
0.591084
0.590383
0.587344
0.584618
1.08716
0.881656
0.660083
0.569404
0.566875
0.580348
0.58584
0.587687
0.589059
0.588396
0.584855
0.581634
1.09979
0.846275
0.627589
0.552627
0.557914
0.573225
0.579548
0.582811
0.585606
0.585623
0.581846
0.57822
1.10611
0.797832
0.600281
0.54648
0.558275
0.572846
0.577824
0.580897
0.584192
0.584381
0.580278
0.576447
1.10795
0.721248
0.547578
0.521396
0.547426
0.567772
0.575267
0.579761
0.583871
0.584318
0.580254
0.576413
-0.0565468
-0.0461649
-0.0241156
-0.0136605
-0.00731688
-0.00251409
0.00080297
0.0027818
0.00368819
0.00401517
0.00417437
0.00419401
-0.0597538
-0.0497687
-0.0184787
-0.00578626
0.000922587
0.00658386
0.0104967
0.0124627
0.0129315
0.012679
0.0123455
0.0118453
0.0592406
0.0253613
0.0298256
0.0273642
0.0239283
0.0233557
0.0234742
0.0230127
0.0221315
0.021283
0.0208259
0.0204908
0.123277
0.0641085
0.0544039
0.0463131
0.0386745
0.0353835
0.0342495
0.0333369
0.0324559
0.0318822
0.0318242
0.0320275
0.145903
0.0864195
0.0752167
0.0669079
0.0578152
0.0528311
0.0506076
0.0490203
0.0476901
0.0468267
0.0465808
0.0468733
0.176101
0.11904
0.104796
0.0939785
0.0821662
0.0744795
0.0702449
0.0672744
0.0649736
0.0635107
0.0630199
0.0634443
0.213437
0.154509
0.134963
0.120872
0.106571
0.0965762
0.0906437
0.086601
0.0836255
0.0817847
0.0811533
0.0816268
0.246165
0.185769
0.162548
0.146419
0.130612
0.119016
0.111783
0.10687
0.103294
0.101037
0.100147
0.10051
0.273349
0.213959
0.188968
0.171527
0.154609
0.141706
0.133304
0.127554
0.12339
0.120721
0.119561
0.119764
0.297787
0.240458
0.214394
0.195844
0.178039
0.164113
0.154744
0.148273
0.143596
0.140548
0.139091
0.139046
0.320317
0.26508
0.238299
0.218954
0.200594
0.185971
0.175854
0.168772
0.163624
0.160193
0.158404
0.158061
0.34074
0.287657
0.260627
0.24086
0.22222
0.207129
0.196417
0.188799
0.183215
0.179411
0.177288
0.176636
0.359179
0.30842
0.281533
0.261599
0.242843
0.227438
0.216256
0.20818
0.202206
0.198057
0.195615
0.194666
0.376006
0.32763
0.301105
0.281155
0.262401
0.246815
0.23528
0.226823
0.220507
0.216042
0.213311
0.212097
0.391499
0.345441
0.319393
0.299544
0.280895
0.265235
0.253443
0.244673
0.238064
0.233327
0.230353
0.228917
0.405808
0.361967
0.336476
0.316822
0.298354
0.282701
0.270732
0.261715
0.25487
0.249917
0.246751
0.245135
0.419044
0.377324
0.352444
0.33305
0.314818
0.299236
0.287163
0.277967
0.270951
0.26584
0.262529
0.260766
0.431322
0.391623
0.367381
0.34829
0.330336
0.314884
0.302779
0.293475
0.286349
0.281131
0.277712
0.275826
0.442742
0.404959
0.381364
0.362609
0.344971
0.329706
0.317636
0.308289
0.301108
0.295823
0.292323
0.290332
0.453383
0.417413
0.39447
0.37608
0.358798
0.343772
0.331797
0.322461
0.315268
0.309946
0.306383
0.304305
0.463312
0.429061
0.406775
0.388782
0.37189
0.357149
0.345316
0.336034
0.32886
0.323521
0.319913
0.317768
0.472594
0.439979
0.418359
0.400791
0.384319
0.369895
0.358238
0.349043
0.34191
0.336573
0.332938
0.330746
0.481293
0.450242
0.429297
0.412174
0.396142
0.382057
0.370601
0.361516
0.354442
0.349125
0.345482
0.343267
0.489475
0.459921
0.439654
0.422991
0.407406
0.393674
0.382434
0.37348
0.366482
0.361203
0.357574
0.35536
0.497199
0.469076
0.449483