/*--------------------------------*- C++ -*----------------------------------*\
  =========                 |
  \\      /  F ield         | OpenFOAM: The Open Source CFD Toolbox
   \\    /   O peration     | Website:  https://openfoam.org
    \\  /    A nd           | Version:  6.0
     \\/     M anipulation  |
\*---------------------------------------------------------------------------*/
FoamFile
{
    version     2.0;
    format      ascii;
    class       volVectorField;
    location    "3";
    object      U;
}
// * * * * * * * * * * * * * * * * * * * * * * * * * * * * * * * * * * * * * //

dimensions      [0 1 -1 0 0 0 0];

internalField   nonuniform List<vector> 
15000
(
(1.0002 5.4387e-05 -6.12823e-17)
(1.00178 0.000471521 8.37038e-17)
(1.00478 0.00181362 -1.46963e-16)
(1.00896 0.004666 1.65824e-16)
(1.01402 0.00966151 -8.00015e-16)
(1.01955 0.0174561 -4.66411e-16)
(1.02524 0.0290846 4.67852e-16)
(1.03043 0.0455431 -1.01126e-15)
(1.03514 0.0704464 2.87684e-16)
(1.03777 0.105635 -1.88102e-16)
(1.03978 0.171355 -1.37301e-16)
(1.06155 0.289022 -5.82399e-17)
(1.00037 9.44872e-05 8.98085e-17)
(1.00326 0.000841063 -1.23327e-16)
(1.00875 0.00325795 2.73359e-16)
(1.01638 0.00839737 -6.76632e-17)
(1.02561 0.0174058 3.51941e-16)
(1.03574 0.0314216 4.66192e-16)
(1.0462 0.0522826 -2.57322e-16)
(1.05595 0.0815455 1.03225e-15)
(1.06513 0.12566 -1.99522e-16)
(1.07258 0.186963 1.03561e-17)
(1.08304 0.301322 2.83574e-17)
(1.14745 0.508282 2.39003e-17)
(1.00035 0.000121043 -6.84018e-17)
(1.00294 0.000855203 1.66208e-16)
(1.00786 0.00306252 -9.44708e-17)
(1.01469 0.00766029 3.45625e-16)
(1.02299 0.0156811 1.90776e-16)
(1.03216 0.028101 1.75281e-16)
(1.04175 0.0465906 3.81804e-16)
(1.05111 0.0722849 -4.54831e-16)
(1.06046 0.111062 -2.36121e-16)
(1.07125 0.163861 -7.30682e-17)
(1.08903 0.262244 -9.30192e-18)
(1.19737 0.434938 6.36219e-17)
(1.00032 0.000159834 -2.92092e-17)
(1.00253 0.000895525 -1.57388e-16)
(1.00672 0.00286565 -2.42942e-16)
(1.01255 0.00683296 -1.71577e-16)
(1.01967 0.0136963 -9.99508e-17)
(1.02766 0.0242681 -6.8306e-16)
(1.03619 0.0400623 -1.05545e-15)
(1.04501 0.0618808 1.15999e-16)
(1.05437 0.0950405 2.88908e-17)
(1.06795 0.139401 3.54888e-16)
(1.08948 0.221484 -1.51973e-16)
(1.23407 0.357471 -8.46646e-17)
(1.00034 0.000201134 5.20331e-17)
(1.00254 0.00102373 2.54349e-17)
(1.0067 0.00306535 1.23183e-16)
(1.01253 0.0070765 -5.80972e-17)
(1.01967 0.0139603 1.58527e-16)
(1.02774 0.0245029 1.42115e-16)
(1.03646 0.0402735 1.06763e-15)
(1.04582 0.0619774 -6.73506e-17)
(1.05603 0.0950968 -1.78019e-16)
(1.07234 0.1389 3.9474e-17)
(1.09529 0.218747 1.05892e-16)
(1.26515 0.34692 -2.11766e-17)
(1.00038 0.000235679 3.00951e-18)
(1.00267 0.00115846 -1.45869e-17)
(1.00703 0.0033495 -1.63796e-17)
(1.01313 0.00758556 -2.94639e-18)
(1.02061 0.0148066 -6.56472e-16)
(1.0291 0.0257908 7.93211e-16)
(1.03831 0.042187 1.95358e-17)
(1.04843 0.064616 1.01824e-16)
(1.05957 0.0988117 4.42652e-16)
(1.0785 0.143491 -1.863e-16)
(1.10191 0.223201 1.87691e-16)
(1.28786 0.349365 5.32988e-17)
(1.00042 0.000264185 -2.72551e-18)
(1.00274 0.00126427 1.57551e-16)
(1.00714 0.00353897 -1.59555e-16)
(1.01333 0.00786501 -7.75605e-17)
(1.02092 0.0151938 3.37294e-16)
(1.02958 0.0262625 -1.64022e-16)
(1.03903 0.0427438 -4.41407e-16)
(1.04966 0.0651205 -2.18766e-16)
(1.06148 0.099182 7.73136e-17)
(1.08287 0.143075 3.24323e-16)
(1.10624 0.219204 -4.44428e-16)
(1.30155 0.336884 4.89828e-17)
(1.00045 0.000289926 -4.02339e-17)
(1.00274 0.00135477 6.09753e-17)
(1.0071 0.00367192 1.83867e-16)
(1.01326 0.00800198 3.46922e-16)
(1.02082 0.0152972 1.83327e-16)
(1.02952 0.0262422 -2.00737e-16)
(1.03907 0.0425116 -2.12184e-16)
(1.05009 0.0644435 -9.70321e-17)
(1.06246 0.0977899 3.02271e-17)
(1.08618 0.140227 -7.12458e-17)
(1.10919 0.211386 3.82878e-16)
(1.30857 0.318022 -8.73303e-17)
(1.00049 0.000314171 1.58409e-17)
(1.00276 0.0014439 -1.49739e-16)
(1.00708 0.00380623 1.12239e-17)
(1.01321 0.00814705 -5.54245e-17)
(1.02077 0.015425 5.53945e-17)
(1.02953 0.0262787 -4.58716e-17)
(1.0392 0.0423897 3.74199e-17)
(1.05065 0.0639683 3.88186e-16)
(1.06354 0.096724 -4.41834e-17)
(1.08948 0.137993 -4.24528e-16)
(1.11199 0.204659 -3.2392e-16)
(1.31113 0.301795 1.60051e-16)
(1.00054 0.000336915 5.62848e-17)
(1.0028 0.00153274 3.74581e-18)
(1.00711 0.0039488 1.41564e-16)
(1.01323 0.00831837 -3.69873e-16)
(1.02082 0.0156105 -8.75533e-17)
(1.02967 0.0264227 3.90181e-16)
(1.03951 0.0424458 -3.22051e-16)
(1.05139 0.0637727 -4.63952e-16)
(1.06478 0.0960574 1.28625e-16)
(1.0928 0.136403 1.10164e-16)
(1.1149 0.198999 2.42951e-16)
(1.31042 0.288011 -2.33491e-17)
(1.00059 0.000358229 -7.71907e-17)
(1.00285 0.00161882 -1.77584e-17)
(1.00714 0.00408878 -1.68675e-16)
(1.01327 0.00848685 2.80313e-17)
(1.02088 0.0157906 1.26719e-16)
(1.02983 0.0265575 -2.6953e-16)
(1.03982 0.0424843 1.96909e-16)
(1.05211 0.0635509 5.21439e-16)
(1.06595 0.0953225 -3.53677e-16)
(1.09589 0.134764 1.19374e-16)
(1.11781 0.193341 -3.15003e-16)
(1.30729 0.274584 -1.57452e-16)
(1.00064 0.000378423 5.01335e-18)
(1.00289 0.00170179 1.47506e-16)
(1.00718 0.00422342 -1.47637e-16)
(1.0133 0.00864505 1.13794e-16)
(1.02092 0.0159493 -3.46459e-16)
(1.02995 0.0266538 -1.52206e-16)
(1.04009 0.042459 4.83443e-17)
(1.05278 0.0632385 -2.09363e-16)
(1.06701 0.0944348 -2.46683e-16)
(1.09872 0.132966 1.92374e-16)
(1.12075 0.187583 1.08088e-16)
(1.30257 0.261325 1.84496e-18)
(1.0007 0.000397762 1.88509e-17)
(1.00295 0.0017824 -1.47566e-17)
(1.00723 0.00435547 4.06736e-16)
(1.01334 0.00880065 1.16834e-16)
(1.02098 0.0161022 1.98014e-16)
(1.03008 0.026739 -2.17767e-16)
(1.04035 0.042415 -1.06592e-16)
(1.05343 0.0629064 8.27799e-17)
(1.06801 0.0935049 2.91856e-16)
(1.10133 0.131167 -6.47493e-16)
(1.12379 0.182008 -1.82263e-16)
(1.29698 0.248771 1.00434e-16)
(1.00076 0.000416401 -5.82002e-17)
(1.00301 0.00186092 -5.17778e-17)
(1.00728 0.00448602 -3.21333e-16)
(1.0134 0.00895734 -2.52781e-16)
(1.02105 0.0162574 -1.7542e-16)
(1.03023 0.0268268 2.71501e-16)
(1.04063 0.0423718 1.81439e-16)
(1.05408 0.0625813 -1.90186e-16)
(1.06899 0.0925714 -2.31291e-16)
(1.10372 0.129408 -6.92458e-17)
(1.12693 0.176689 2.62917e-16)
(1.29104 0.237036 -9.2005e-17)
(1.00083 0.000434461 3.13298e-17)
(1.00307 0.00193713 2.47296e-17)
(1.00734 0.0046139 3.7973e-17)
(1.01346 0.0091127 6.03282e-17)
(1.02113 0.0164112 6.22113e-17)
(1.03039 0.0269106 -1.10237e-16)
(1.04092 0.0423179 5.7421e-18)
(1.05472 0.0622435 -2.62393e-16)
(1.06992 0.0916042 2.26408e-16)
(1.10589 0.127634 7.31334e-16)
(1.13012 0.171552 -7.77863e-17)
(1.28507 0.225957 1.32021e-16)
(1.00089 0.000452108 -3.02332e-17)
(1.00314 0.00201082 1.12853e-18)
(1.00741 0.00473765 1.13184e-16)
(1.01354 0.00926335 1.59292e-16)
(1.02122 0.0165584 1.74535e-16)
(1.03056 0.0269836 -1.1147e-16)
(1.0412 0.0422431 -1.73814e-16)
(1.05534 0.0618773 4.05083e-16)
(1.0708 0.0905825 8.91529e-17)
(1.10783 0.12581 -7.86836e-16)
(1.13331 0.166552 9.09029e-17)
(1.27934 0.215436 4.50501e-18)
(1.00097 0.00046953 6.91788e-17)
(1.0032 0.00208204 2.53743e-17)
(1.00748 0.00485646 -2.44495e-16)
(1.01361 0.00940699 1.0495e-16)
(1.02131 0.0166959 -4.22913e-17)
(1.03072 0.0270434 2.72221e-16)
(1.04147 0.0421463 4.49427e-16)
(1.05593 0.061483 7.16557e-17)
(1.07163 0.0895101 3.1677e-16)
(1.10953 0.123935 6.53981e-16)
(1.13645 0.161694 5.53145e-16)
(1.27396 0.205464 -1.11598e-16)
(1.00104 0.000486939 2.65797e-17)
(1.00327 0.00215098 -2.10676e-17)
(1.00754 0.00496997 2.32512e-16)
(1.01368 0.00954196 -2.10986e-16)
(1.0214 0.0168215 2.95474e-16)
(1.03088 0.0270884 2.78707e-18)
(1.04174 0.0420281 -2.91731e-16)
(1.05651 0.0610641 8.70027e-17)
(1.07242 0.0883963 -2.74783e-16)
(1.11101 0.122019 -1.14535e-16)
(1.13948 0.156984 -2.24145e-16)
(1.26904 0.196031 -2.28289e-17)
(1.00112 0.000504541 -3.18734e-17)
(1.00334 0.00221794 -1.77214e-16)
(1.0076 0.00507817 -9.67131e-17)
(1.01375 0.00966702 1.18069e-16)
(1.02149 0.0169323 -2.13792e-17)
(1.03104 0.0271156 -1.93861e-16)
(1.042 0.0418863 -3.89672e-17)
(1.05706 0.0606198 -2.34678e-17)
(1.07317 0.0872445 -3.28687e-16)
(1.11229 0.120061 -2.05236e-16)
(1.14236 0.152417 -6.73879e-16)
(1.26457 0.187103 2.25308e-16)
(1.0012 0.000522533 -3.0358e-17)
(1.00341 0.00228328 1.84443e-16)
(1.00766 0.00518145 -1.31225e-16)
(1.01381 0.00978183 5.82235e-17)
(1.02157 0.0170269 -1.41599e-16)
(1.03119 0.0271222 -3.1479e-16)
(1.04224 0.0417178 3.88746e-17)
(1.05758 0.0601476 -4.73373e-17)
(1.07388 0.086056 1.78145e-16)
(1.11336 0.118061 2.35386e-16)
(1.14506 0.147984 6.07517e-16)
(1.26053 0.178643 -2.23735e-16)
(1.00128 0.000541071 2.18354e-17)
(1.00349 0.00234739 -8.59985e-18)
(1.00772 0.00528056 2.08682e-17)
(1.01387 0.00988721 -4.83381e-17)
(1.02164 0.0171054 -1.77658e-16)
(1.03133 0.0271079 -6.71163e-18)
(1.04248 0.0415223 -8.9422e-17)
(1.05808 0.0596477 -4.54827e-16)
(1.07456 0.0848352 2.49575e-16)
(1.11426 0.116024 1.14892e-16)
(1.14753 0.143681 2.56418e-17)
(1.25688 0.170625 5.15579e-17)
(1.00137 0.000560271 2.49658e-17)
(1.00356 0.00241055 -2.02225e-16)
(1.00778 0.00537636 3.94722e-16)
(1.01393 0.00998491 3.73008e-17)
(1.02171 0.0171702 1.07704e-16)
(1.03147 0.027075 6.40995e-16)
(1.0427 0.0413027 5.1032e-16)
(1.05855 0.0591241 2.45528e-16)
(1.0752 0.0835903 -5.92437e-16)
(1.11499 0.113959 -1.47987e-16)
(1.14975 0.139509 3.66799e-17)
(1.25357 0.163027 -7.97338e-18)
(1.00146 0.000580188 -4.67734e-17)
(1.00364 0.00247293 8.05526e-17)
(1.00785 0.00546955 -5.32535e-17)
(1.01399 0.0100768 -6.71932e-17)
(1.02179 0.0172244 -1.91373e-16)
(1.0316 0.0270278 -3.71953e-16)
(1.04292 0.0410639 -1.95856e-16)
(1.059 0.0585827 -1.47396e-17)
(1.07582 0.0823308 1.72278e-16)
(1.11557 0.111877 -1.40062e-16)
(1.15171 0.135469 -6.2847e-16)
(1.25052 0.155827 1.93524e-16)
(1.00155 0.000600839 3.4145e-17)
(1.00373 0.00253449 4.86822e-18)
(1.00792 0.00556042 -1.44734e-16)
(1.01406 0.0101643 -1.09995e-16)
(1.02186 0.0172709 -6.02066e-17)
(1.03174 0.0269701 -8.74649e-17)
(1.04313 0.0408109 -1.54572e-16)
(1.05943 0.0580288 -1.56422e-16)
(1.07642 0.0810648 -4.11434e-17)
(1.11603 0.109786 -1.29756e-16)
(1.15341 0.131557 3.8001e-17)
(1.24767 0.148996 -3.92812e-17)
(1.00164 0.000622194 1.16985e-17)
(1.00381 0.00259503 1.14354e-16)
(1.008 0.00564875 3.11882e-17)
(1.01414 0.0102479 -1.18736e-17)
(1.02195 0.0173112 7.41696e-17)
(1.03188 0.0269046 2.042e-16)
(1.04335 0.0405468 7.60596e-17)
(1.05985 0.0574656 1.80692e-16)
(1.077 0.0797964 1.93763e-16)
(1.11637 0.107689 -1.61479e-16)
(1.15484 0.127763 4.09503e-16)
(1.24496 0.142498 -1.59344e-16)
(1.00174 0.000644213 -1.58617e-17)
(1.00391 0.00265425 -1.49712e-17)
(1.00809 0.00573394 -1.12644e-16)
(1.01422 0.0103271 -7.36125e-17)
(1.02204 0.0173454 -2.59758e-17)
(1.03203 0.0268318 -1.31379e-16)
(1.04356 0.0402726 7.36272e-18)
(1.06025 0.0568932 -2.09839e-16)
(1.07756 0.0785264 -1.64861e-17)
(1.11661 0.105587 5.57609e-16)
(1.15601 0.124075 2.03595e-16)
(1.24234 0.1363 1.38283e-17)
(1.00184 0.000666835 -7.54273e-18)
(1.004 0.00271183 -8.77192e-17)
(1.00817 0.00581518 -3.8477e-17)
(1.01431 0.0104006 -5.7073e-17)
(1.02214 0.0173724 4.16914e-16)
(1.03218 0.0267508 -9.46581e-17)
(1.04377 0.0399872 1.09016e-16)
(1.06063 0.05631 -1.07276e-16)
(1.0781 0.0772532 -1.57016e-16)
(1.11676 0.103477 -1.41074e-16)
(1.15693 0.120481 -8.2496e-18)
(1.23976 0.130375 -5.4071e-17)
(1.00194 0.000690006 2.61128e-17)
(1.0041 0.00276747 -3.12302e-17)
(1.00826 0.00589169 1.30755e-16)
(1.01441 0.0104671 2.62195e-16)
(1.02224 0.0173902 -3.93938e-16)
(1.03233 0.0266595 3.65624e-16)
(1.04398 0.0396887 -1.95637e-16)
(1.06099 0.0557134 -9.64459e-17)
(1.07862 0.0759753 -1.19079e-16)
(1.11683 0.101359 -1.88793e-16)
(1.15761 0.116973 -6.28263e-17)
(1.23719 0.124699 -3.33491e-17)
(1.00204 0.000713657 -4.46153e-18)
(1.0042 0.00282096 -1.19608e-17)
(1.00836 0.00596288 -1.20183e-17)
(1.0145 0.0105254 -2.53584e-16)
(1.02234 0.0173972 -1.07396e-16)
(1.03248 0.0265558 -9.73558e-18)
(1.04419 0.0393751 -2.75733e-16)
(1.06132 0.0551015 4.83016e-16)
(1.0791 0.0746916 -2.97038e-18)
(1.11684 0.0992335 1.33752e-16)
(1.15807 0.113544 7.45451e-17)
(1.23461 0.11926 -1.82697e-18)
(1.00215 0.000737724 -1.44631e-17)
(1.0043 0.00287216 8.24486e-17)
(1.00845 0.00602847 2.4449e-17)
(1.01459 0.0105748 3.48379e-16)
(1.02244 0.0173922 1.87857e-16)
(1.03262 0.0264384 -3.08828e-16)
(1.04438 0.0390452 1.3589e-16)
(1.06164 0.0544734 -2.54073e-16)
(1.07957 0.073403 8.07153e-16)
(1.11678 0.0971043 -5.43682e-17)
(1.15832 0.110193 9.4796e-18)
(1.23201 0.114046 -4.06752e-17)
(1.00225 0.000762113 -1.5084e-17)
(1.0044 0.00292102 5.75635e-17)
(1.00854 0.0060885 -6.88753e-17)
(1.01468 0.0106153 -3.37896e-16)
(1.02254 0.0173749 3.45418e-16)
(1.03276 0.0263069 1.98098e-16)
(1.04456 0.0386989 2.42387e-16)
(1.06192 0.0538294 1.03093e-16)
(1.08 0.0721115 -6.76101e-17)
(1.11668 0.0949761 2.92385e-16)
(1.15839 0.106921 -4.22641e-16)
(1.22939 0.10905 3.28081e-16)
(1.00236 0.000786724 2.10159e-17)
(1.0045 0.00296753 -1.10149e-16)
(1.00863 0.00614322 -6.40161e-17)
(1.01478 0.0106473 -2.01641e-17)
(1.02263 0.017346 -1.3215e-16)
(1.0329 0.0261619 -3.7542e-18)
(1.04474 0.0383374 -1.98945e-16)
(1.06219 0.0531712 -1.4282e-16)
(1.08041 0.0708202 -7.41384e-16)
(1.11653 0.0928548 -2.13444e-16)
(1.1583 0.103728 -1.09804e-16)
(1.22673 0.104265 -8.69763e-18)
(1.00247 0.000811422 8.05514e-18)
(1.00461 0.00301166 -9.03967e-18)
(1.00873 0.00619296 -3.23468e-17)
(1.01487 0.0106718 2.45573e-16)
(1.02273 0.0173067 -4.11446e-16)
(1.03303 0.026005 -2.99206e-16)
(1.04491 0.0379626 2.48674e-16)
(1.06244 0.052501 -1.53278e-17)
(1.08079 0.0695322 4.54715e-17)
(1.11635 0.0907457 2.26172e-16)
(1.15806 0.100616 -7.29975e-17)
(1.22405 0.0996836 9.3138e-17)
(1.00258 0.00083606 -1.16023e-17)
(1.00471 0.00305338 1.29774e-16)
(1.00883 0.00623802 2.19194e-16)
(1.01496 0.0106897 -7.24763e-17)
(1.02282 0.0172586 3.25685e-17)
(1.03316 0.0258381 1.32956e-16)
(1.04508 0.0375768 -2.96543e-16)
(1.06266 0.0518213 2.96691e-16)
(1.08115 0.0682506 2.12672e-16)
(1.11614 0.0886531 -1.53307e-16)
(1.1577 0.0975826 1.3861e-18)
(1.22134 0.0952955 -5.42445e-18)
(1.00269 0.000860466 -3.28184e-18)
(1.00482 0.0030926 -1.88455e-16)
(1.00892 0.00627856 -3.68453e-17)
(1.01506 0.0107015 4.36578e-17)
(1.02292 0.0172029 4.84777e-16)
(1.03329 0.0256628 3.79664e-17)
(1.04523 0.0371821 2.75226e-16)
(1.06287 0.0511342 -4.83888e-16)
(1.08148 0.0669773 2.24089e-16)
(1.1159 0.08658 -2.36075e-16)
(1.15722 0.0946265 4.12119e-16)
(1.21863 0.09109 -1.47918e-16)
(1.0028 0.000884477 1.64003e-17)
(1.00493 0.00312918 8.3539e-17)
(1.00903 0.00631455 -8.82965e-17)
(1.01516 0.0107077 3.60525e-17)
(1.02302 0.0171404 -2.91453e-16)
(1.03341 0.0254804 -1.00433e-16)
(1.04539 0.0367798 1.58797e-17)
(1.06306 0.0504407 3.46957e-16)
(1.08178 0.0657129 1.92771e-16)
(1.11564 0.0845275 -1.15631e-17)
(1.15665 0.0917439 5.47525e-16)
(1.2159 0.0870554 -1.97967e-16)
(1.00291 0.000907917 1.09946e-18)
(1.00504 0.00316297 9.11189e-17)
(1.00913 0.00634578 9.06165e-17)
(1.01526 0.0107081 -1.08566e-17)
(1.02312 0.0170712 2.12938e-16)
(1.03354 0.025291 2.69739e-16)
(1.04554 0.0363704 -7.96489e-17)
(1.06323 0.049741 3.47933e-16)
(1.08206 0.0644572 -7.37194e-16)
(1.11536 0.0824954 -7.18777e-17)
(1.156 0.0889301 -7.94121e-16)
(1.21318 0.0831805 4.63513e-17)
(1.00303 0.000930637 -4.75331e-17)
(1.00515 0.00319384 5.66504e-17)
(1.00924 0.006372 -1.61306e-17)
(1.01536 0.0107022 1.16598e-16)
(1.02323 0.0169947 -1.58494e-16)
(1.03367 0.0250941 -3.78179e-16)
(1.04569 0.0359533 -2.81375e-17)
(1.06338 0.0490343 -2.48139e-16)
(1.08231 0.0632087 7.85831e-16)
(1.11506 0.0804831 -2.31895e-17)
(1.15527 0.0861807 1.71728e-16)
(1.21047 0.0794554 2.37449e-16)
(1.00314 0.00095249 1.18228e-17)
(1.00527 0.00322165 -2.42875e-16)
(1.00934 0.00639292 8.32852e-17)
(1.01547 0.0106894 -3.83237e-16)
(1.02333 0.0169101 1.89102e-16)
(1.03379 0.0248886 6.13274e-16)
(1.04583 0.0355275 -1.53731e-16)
(1.06352 0.0483195 -3.46104e-16)
(1.08253 0.061966 -2.50362e-16)
(1.11475 0.0784899 -4.35586e-17)
(1.15448 0.0834924 1.7953e-16)
(1.20777 0.0758721 -2.21039e-16)
(1.00326 0.000973357 2.70926e-17)
(1.00538 0.00324637 7.05571e-17)
(1.00945 0.00640839 -2.52868e-16)
(1.01557 0.0106694 3.47387e-16)
(1.02343 0.0168165 -5.15097e-16)
(1.03391 0.0246735 -5.03996e-16)
(1.04596 0.0350921 1.85894e-16)
(1.06364 0.0475957 6.21453e-16)
(1.08272 0.0607282 -3.23933e-16)
(1.11441 0.0765158 1.15964e-16)
(1.15364 0.0808628 -7.79795e-17)
(1.20508 0.0724245 2.10056e-17)
(1.00337 0.000993122 -4.61343e-18)
(1.00549 0.00326797 1.52161e-16)
(1.00955 0.00641838 2.01671e-16)
(1.01567 0.0106418 -2.38045e-16)
(1.02353 0.0167134 1.14379e-16)
(1.03402 0.0244479 3.1018e-16)
(1.04609 0.0346463 1.0086e-16)
(1.06374 0.0468625 -6.46754e-17)
(1.08289 0.059495 4.5459e-16)
(1.11405 0.0745619 2.05814e-16)
(1.15275 0.0782912 3.24879e-17)
(1.20243 0.0691079 2.26317e-17)
(1.00349 0.00101169 1.03649e-17)
(1.0056 0.0032865 -1.69685e-16)
(1.00965 0.00642305 -4.46155e-17)
(1.01577 0.0106067 9.32045e-17)
(1.02363 0.0166008 5.55467e-16)
(1.03413 0.0242119 -2.79001e-16)
(1.0462 0.0341903 -2.29949e-16)
(1.06382 0.0461203 -4.9945e-17)
(1.08302 0.0582672 -4.49839e-16)
(1.11368 0.07263 2.33091e-16)
(1.15181 0.0757777 -2.73466e-17)
(1.1998 0.0659187 1.37577e-16)
(1.0036 0.00102895 -8.22375e-18)
(1.00572 0.00330201 1.06206e-16)
(1.00976 0.00642265 -7.29004e-17)
(1.01587 0.0105646 2.71217e-16)
(1.02372 0.0164791 -5.21567e-16)
(1.03423 0.0239659 3.58713e-16)
(1.04631 0.033725 -3.36614e-17)
(1.06388 0.0453704 -3.37736e-17)
(1.08312 0.057046 4.65857e-16)
(1.11329 0.0707225 -1.60705e-16)
(1.15085 0.0733228 -1.11258e-16)
(1.19721 0.0628532 -3.50329e-17)
(1.00372 0.00104482 1.15616e-18)
(1.00583 0.00331456 -1.97928e-17)
(1.00986 0.00641751 8.88026e-17)
(1.01597 0.010516 -3.00759e-16)
(1.02381 0.0163492 2.57367e-16)
(1.03433 0.023711 8.40933e-17)
(1.04641 0.0332517 1.17567e-16)
(1.06393 0.0446145 -5.83958e-16)
(1.08319 0.0558332 -2.27805e-16)
(1.11288 0.0688417 -7.33534e-16)
(1.14985 0.0709268 -3.26455e-16)
(1.19465 0.059907 -2.6763e-16)
(1.00384 0.0010592 -1.50125e-17)
(1.00594 0.00332418 1.37044e-17)
(1.00996 0.00640789 -1.66301e-16)
(1.01606 0.0104616 1.08601e-17)
(1.0239 0.016212 -6.53554e-17)
(1.03442 0.0234484 3.56894e-18)
(1.04651 0.032772 2.16872e-16)
(1.06396 0.0438545 7.89508e-16)
(1.08324 0.0546303 6.38136e-17)
(1.11246 0.0669893 4.5959e-16)
(1.14883 0.0685894 -5.79459e-17)
(1.19212 0.0570753 4.94117e-16)
(1.00396 0.00107199 1.44402e-17)
(1.00606 0.00333087 8.31148e-18)
(1.01007 0.00639402 2.24669e-16)
(1.01616 0.0104019 -1.30207e-16)
(1.02399 0.0160685 -1.50333e-16)
(1.03451 0.0231793 -1.702e-16)
(1.04659 0.0322874 -9.9931e-17)
(1.06398 0.0430919 -3.16727e-16)
(1.08326 0.0534386 5.29576e-17)
(1.11202 0.0651664 4.57736e-16)
(1.14778 0.0663092 3.81324e-16)
(1.18964 0.0543524 -4.45839e-16)
(1.00407 0.00108311 -1.47348e-17)
(1.00617 0.00333458 -1.81828e-16)
(1.01017 0.00637594 -9.63075e-17)
(1.01626 0.0103371 2.19356e-17)
(1.02408 0.0159192 3.76723e-16)
(1.03459 0.0229045 -2.92464e-16)
(1.04668 0.0317988 -2.52622e-16)
(1.06399 0.0423279 -2.97633e-16)
(1.08326 0.0522584 -3.32585e-16)
(1.11157 0.0633731 -9.92231e-16)
(1.14671 0.0640845 -2.86305e-16)
(1.18719 0.0517326 2.2993e-16)
(1.00419 0.00109249 7.3738e-18)
(1.00629 0.00333525 1.51823e-16)
(1.01028 0.00635365 4.55354e-17)
(1.01636 0.0102674 2.7849e-16)
(1.02416 0.0157645 -4.34593e-16)
(1.03468 0.0226245 4.14646e-16)
(1.04676 0.0313069 -4.64735e-18)
(1.06398 0.0415628 7.01511e-16)
(1.08323 0.0510897 2.36399e-16)
(1.1111 0.061609 1.29822e-15)
(1.14563 0.0619129 1.60107e-16)
(1.18478 0.0492101 2.18358e-16)
(1.00431 0.00110005 -1.50422e-17)
(1.00641 0.00333281 3.25895e-17)
(1.01039 0.00632701 7.05838e-17)
(1.01646 0.0101926 -1.0888e-16)
(1.02425 0.0156041 3.71125e-16)
(1.03476 0.0223392 -4.37335e-16)
(1.04683 0.0308115 3.86607e-16)
(1.06396 0.0407966 -9.50149e-17)
(1.08318 0.0499319 1.44246e-16)
(1.11061 0.0598734 -9.49833e-16)
(1.14452 0.0597922 4.90791e-16)
(1.1824 0.0467799 -4.93577e-16)
(1.00443 0.00110578 1.61787e-17)
(1.00652 0.00332721 -9.01934e-17)
(1.0105 0.00629589 -1.30431e-16)
(1.01656 0.0101125 -1.2776e-16)
(1.02434 0.0154378 3.83232e-17)
(1.03484 0.0220482 -1.14936e-16)
(1.0469 0.0303124 -2.10572e-16)
(1.06394 0.0400291 -4.45953e-16)
(1.08311 0.0487842 -1.49298e-16)
(1.11011 0.0581654 2.22764e-16)
(1.1434 0.0577205 -4.8555e-16)
(1.18005 0.0444373 2.89989e-16)
(1.00455 0.00110964 3.89571e-17)
(1.00664 0.00331839 1.09749e-17)
(1.01061 0.00626019 -3.46744e-17)
(1.01666 0.0100268 9.28382e-17)
(1.02443 0.0152653 -5.06179e-16)
(1.03491 0.0217511 8.40076e-17)
(1.04696 0.0298092 3.51984e-16)
(1.0639 0.03926 -1.87572e-16)
(1.08301 0.0476461 5.89774e-17)
(1.10959 0.0564846 -7.02359e-17)
(1.14227 0.0556964 1.11589e-16)
(1.17774 0.0421789 -2.21836e-16)
(1.00467 0.00111164 -2.54284e-17)
(1.00676 0.00330637 5.56997e-17)
(1.01071 0.00621986 -1.01316e-16)
(1.01676 0.00993548 -6.01475e-17)
(1.02451 0.0150863 3.76432e-16)
(1.03498 0.0214477 1.52446e-16)
(1.04701 0.0293017 -1.56034e-16)
(1.06385 0.0384893 3.05452e-16)
(1.08289 0.0465175 9.4073e-17)
(1.10905 0.0548308 1.69364e-16)
(1.14112 0.053719 -1.53688e-16)
(1.17546 0.0400015 -4.94011e-18)
(1.00479 0.00111178 -3.89162e-17)
(1.00687 0.00329116 -2.02073e-17)
(1.01082 0.00617493 1.04468e-16)
(1.01685 0.00983843 9.14869e-17)
(1.0246 0.0149008 1.17207e-16)
(1.03505 0.0211378 3.10456e-16)
(1.04706 0.02879 -1.35141e-16)
(1.06378 0.0377173 -5.75636e-17)
(1.08275 0.0453984 -1.14409e-16)
(1.1085 0.0532042 -3.83421e-18)
(1.13996 0.0517878 3.12539e-18)
(1.17321 0.0379023 1.67265e-16)
(1.00491 0.0011101 6.54467e-17)
(1.00699 0.00327281 -1.05827e-17)
(1.01092 0.00612552 1.20656e-16)
(1.01695 0.00973586 -5.46119e-17)
(1.02468 0.0147091 -1.03264e-16)
(1.03511 0.020822 -4.08716e-16)
(1.0471 0.0282745 -2.39833e-16)
(1.06371 0.0369446 1.49297e-16)
(1.08259 0.0442893 2.2053e-17)
(1.10794 0.0516053 3.0722e-17)
(1.13879 0.0499023 4.19725e-17)
(1.171 0.0358787 1.53548e-17)
(1.00503 0.00110663 -6.52526e-17)
(1.0071 0.0032514 9.95808e-17)
(1.01103 0.00607179 -1.77547e-16)
(1.01704 0.00962804 1.21057e-16)
(1.02476 0.0145115 -2.81417e-18)
(1.03517 0.0205005 2.77277e-16)
(1.04713 0.0277559 2.34076e-16)
(1.06363 0.036172 -1.49541e-16)
(1.08241 0.0431909 2.30948e-16)
(1.10736 0.0500344 -1.37326e-16)
(1.13761 0.048062 3.65089e-16)
(1.16881 0.0339278 3.22964e-16)
(1.00515 0.00110142 4.99857e-17)
(1.00722 0.00322702 -7.20727e-17)
(1.01113 0.00601389 -3.00676e-17)
(1.01713 0.00951529 9.0027e-17)
(1.02483 0.0143086 -1.11457e-16)
(1.03522 0.0201742 -1.69757e-16)
(1.04716 0.027235 2.51242e-16)
(1.06353 0.0354005 -1.40818e-16)
(1.08221 0.0421037 -2.81728e-16)
(1.10676 0.0484917 1.39239e-16)
(1.13643 0.0462661 -2.1092e-16)
(1.16665 0.0320465 -2.55357e-16)
(1.00527 0.00109453 2.07641e-17)
(1.00733 0.00319973 -7.65957e-17)
(1.01124 0.00595199 3.11271e-16)
(1.01723 0.00939789 -1.50764e-16)
(1.02491 0.0141007 6.07155e-17)
(1.03527 0.0198435 -1.3788e-16)
(1.04718 0.0267123 -3.3033e-16)
(1.06343 0.0346307 2.7467e-16)
(1.08199 0.0410281 2.97785e-16)
(1.10616 0.0469771 -3.4617e-16)
(1.13523 0.0445134 -1.21196e-16)
(1.16451 0.0302317 -8.10746e-17)
(1.00539 0.00108604 -5.95175e-17)
(1.00745 0.00316961 2.31398e-17)
(1.01134 0.00588621 -1.40858e-16)
(1.01732 0.00927606 1.9082e-17)
(1.02498 0.0138884 8.37273e-17)
(1.03531 0.0195089 3.34929e-16)
(1.0472 0.0261884 3.53137e-18)
(1.06332 0.0338631 -1.63112e-17)
(1.08176 0.0399639 -4.10126e-16)
(1.10554 0.04549 5.55638e-17)
(1.13403 0.0428026 -7.05604e-17)
(1.16241 0.02848 3.38278e-17)
(1.00551 0.00107601 -9.60078e-18)
(1.00756 0.00313675 -1.76212e-17)
(1.01144 0.00581664 -2.05396e-16)
(1.01741 0.00914991 -3.71955e-17)
(1.02505 0.0136716 -1.31795e-16)
(1.03535 0.0191705 -9.34662e-17)
(1.04721 0.0256634 -9.23732e-17)
(1.0632 0.0330978 1.08725e-16)
(1.08152 0.0389111 1.15499e-16)
(1.10491 0.0440299 1.82667e-16)
(1.13282 0.0411322 2.32339e-16)
(1.16033 0.0267885 -1.07607e-16)
(1.00563 0.00106454 2.32231e-17)
(1.00767 0.00310125 1.20492e-17)
(1.01155 0.00574334 1.96062e-16)
(1.01749 0.00901951 -3.90126e-17)
(1.02512 0.0134505 -7.09459e-17)
(1.03539 0.0188285 -1.07135e-16)
(1.04721 0.0251374 3.08245e-16)
(1.06308 0.0323348 -1.98319e-16)
(1.08125 0.0378692 6.61168e-17)
(1.10427 0.0425957 2.3867e-16)
(1.13161 0.0395007 -1.37613e-16)
(1.15827 0.0251543 -1.94153e-17)
(1.00574 0.00105173 -3.17311e-17)
(1.00778 0.00306317 3.27527e-17)
(1.01165 0.00566639 6.67685e-17)
(1.01758 0.00888485 1.40956e-16)
(1.02518 0.013225 2.50396e-16)
(1.03542 0.0184827 -1.82528e-16)
(1.04721 0.02461 -1.17632e-16)
(1.06294 0.031574 1.18907e-17)
(1.08098 0.0368377 -1.96495e-16)
(1.10362 0.0411869 -2.62436e-16)
(1.13039 0.0379069 3.17823e-16)
(1.15624 0.0235751 1.20952e-16)
(1.00586 0.00103769 5.10587e-17)
(1.00789 0.00302267 6.22026e-17)
(1.01174 0.00558589 -6.34248e-17)
(1.01766 0.00874599 -1.27785e-16)
(1.02525 0.0129952 3.2679e-17)
(1.03545 0.0181329 2.98847e-16)
(1.0472 0.0240813 -2.07128e-16)
(1.0628 0.0308151 -7.1938e-18)
(1.08069 0.0358163 2.51133e-16)
(1.10296 0.0398029 -2.28825e-16)
(1.12918 0.0363501 -2.71515e-16)
(1.15424 0.022049 -6.32855e-17)
(1.00598 0.00102253 6.3093e-18)
(1.008 0.00297985 6.35304e-18)
(1.01184 0.00550196 -2.08519e-16)
(1.01775 0.00860299 -1.68482e-16)
(1.02531 0.0127609 -2.79566e-16)
(1.03547 0.0177793 3.72322e-17)
(1.04718 0.0235511 5.94521e-17)
(1.06265 0.0300582 -3.97008e-17)
(1.08039 0.034805 -2.06618e-16)
(1.10229 0.0384434 4.3113e-16)
(1.12796 0.0348294 2.04258e-16)
(1.15226 0.0205743 -5.77614e-17)
(1.00609 0.00100639 -2.99682e-17)
(1.00811 0.00293489 -5.82522e-17)
(1.01193 0.00541478 2.77902e-16)
(1.01782 0.00845605 2.50776e-16)
(1.02536 0.0125225 -5.40219e-18)
(1.03549 0.0174218 5.1737e-17)
(1.04716 0.0230196 -7.81265e-17)
(1.06249 0.0293037 5.51913e-17)
(1.08007 0.0338039 2.20246e-16)
(1.10161 0.0371083 -1.06785e-16)
(1.12674 0.0333447 6.99874e-17)
(1.15031 0.0191496 1.08741e-16)
(1.0062 0.00098937 -1.87255e-18)
(1.00821 0.00288792 4.02785e-17)
(1.01203 0.00532456 -1.21617e-16)
(1.0179 0.0083054 -2.36864e-16)
(1.02542 0.01228 1.41447e-16)
(1.0355 0.0170608 -3.17875e-16)
(1.04712 0.0224871 9.13294e-17)
(1.06232 0.0285519 -1.30326e-16)
(1.07975 0.0328133 1.95215e-17)
(1.10093 0.0357978 1.09903e-16)
(1.12552 0.0318954 -8.69689e-17)
(1.14838 0.0177734 -2.44938e-16)
(1.00631 0.000971616 1.7308e-17)
(1.00832 0.00283912 -1.11795e-16)
(1.01212 0.00523154 1.24717e-16)
(1.01797 0.00815136 2.07576e-16)
(1.02547 0.0120341 -2.63158e-16)
(1.03551 0.0166968 -2.17682e-17)
(1.04709 0.0219541 1.52595e-16)
(1.06215 0.0278034 -1.77126e-16)
(1.07941 0.0318337 -2.03881e-16)
(1.10024 0.0345119 5.40152e-17)
(1.1243 0.0304812 -1.52673e-16)
(1.14648 0.0164441 2.1806e-16)
(1.00642 0.000953227 1.13658e-17)
(1.00842 0.00278862 5.89118e-17)
(1.01221 0.00513593 -5.78642e-17)
(1.01804 0.00799423 1.74784e-16)
(1.02551 0.011785 1.27909e-16)
(1.03551 0.0163302 1.05565e-16)
(1.04704 0.0214211 -1.72575e-16)
(1.06197 0.0270588 2.532e-16)
(1.07906 0.0308654 -2.12657e-18)
(1.09954 0.0332506 -4.2939e-16)
(1.12309 0.0291014 7.60138e-17)
(1.1446 0.0151601 -1.37423e-17)
(1.00653 0.000934334 -1.81195e-17)
(1.00852 0.00273659 6.08147e-17)
(1.0123 0.00503794 -2.01415e-16)
(1.01811 0.00783431 -1.46445e-16)
(1.02556 0.0115331 2.94097e-17)
(1.03551 0.0159614 1.10922e-16)
(1.04699 0.0208885 1.80238e-16)
(1.06178 0.0263185 2.36872e-17)
(1.07871 0.0299086 1.78421e-17)
(1.09885 0.0320136 2.86784e-16)
(1.12188 0.0277555 8.10999e-17)
(1.14274 0.0139195 -1.21713e-16)
(1.00664 0.000915031 -1.43132e-17)
(1.00862 0.00268312 -1.68777e-17)
(1.01238 0.00493774 2.13432e-16)
(1.01818 0.0076718 3.35987e-18)
(1.0256 0.0112787 1.79625e-16)
(1.0355 0.0155908 -1.66019e-16)
(1.04694 0.0203568 -1.05748e-16)
(1.06159 0.0255828 -3.02664e-17)
(1.07835 0.0289634 3.47716e-18)
(1.09814 0.0308005 1.74794e-16)
(1.12068 0.0264422 -2.53586e-16)
(1.14092 0.0127204 -1.41697e-16)
(1.00675 0.000895436 3.90411e-18)
(1.00872 0.00262834 -5.92327e-17)
(1.01247 0.00483546 -2.06335e-16)
(1.01825 0.00750687 3.64226e-17)
(1.02564 0.011022 1.67385e-17)
(1.0355 0.0152185 2.13232e-18)
(1.04688 0.0198259 -5.58564e-17)
(1.06139 0.0248519 2.34126e-16)
(1.07798 0.0280297 2.44705e-16)
(1.09744 0.0296107 -1.53391e-16)
(1.11948 0.0251608 3.86448e-16)
(1.13911 0.0115612 3.37153e-16)
(1.00685 0.000875633 2.58084e-17)
(1.00881 0.00257234 4.29079e-17)
(1.01255 0.00473118 3.60294e-16)
(1.01831 0.00733959 3.84111e-18)
(1.02567 0.010763 -8.61217e-17)
(1.03548 0.0148447 6.26836e-18)
(1.04682 0.019296 -1.62306e-16)
(1.06119 0.0241257 -1.226e-16)
(1.0776 0.0271071 -2.30474e-16)
(1.09673 0.0284435 1.61809e-16)
(1.11828 0.02391 -2.41914e-16)
(1.13734 0.0104399 -1.05632e-16)
(1.00695 0.00085573 -3.04882e-17)
(1.00891 0.0025152 -6.3812e-17)
(1.01263 0.00462497 -3.53527e-16)
(1.01837 0.00717 -5.68621e-17)
(1.02571 0.0105019 -2.57168e-17)
(1.03547 0.0144693 8.70928e-17)
(1.04674 0.018767 1.10156e-16)
(1.06098 0.023404 5.33353e-17)
(1.07722 0.0261954 -2.3069e-16)
(1.09602 0.0272984 -6.05335e-17)
(1.1171 0.0226891 7.31575e-17)
(1.13558 0.00935522 7.29961e-17)
(1.00705 0.000835795 -1.61002e-17)
(1.009 0.002457 8.72182e-17)
(1.01271 0.00451688 2.44888e-16)
(1.01843 0.00699809 -2.61651e-16)
(1.02574 0.0102384 -2.41388e-17)
(1.03545 0.0140922 6.26585e-17)
(1.04667 0.0182386 3.19919e-18)
(1.06077 0.0226868 1.34767e-17)
(1.07683 0.0252942 3.43514e-16)
(1.09531 0.0261747 -6.41412e-18)
(1.11592 0.0214971 -2.0759e-16)
(1.13386 0.00830557 -2.24712e-16)
(1.00715 0.000815925 2.59422e-17)
(1.00909 0.00239781 -3.43169e-17)
(1.01278 0.00440695 2.84061e-17)
(1.01848 0.00682386 4.07718e-16)
(1.02577 0.0099727 -2.50486e-17)
(1.03542 0.0137134 -9.35613e-17)
(1.04659 0.0177109 3.08637e-16)
(1.06055 0.0219739 -2.37807e-16)
(1.07644 0.0244034 -4.31298e-16)
(1.0946 0.025072 9.51404e-18)
(1.11475 0.0203333 2.78365e-16)
(1.13216 0.00728999 8.15494e-17)
(1.00724 0.000796172 -3.14998e-18)
(1.00918 0.0023377 4.88674e-17)
(1.01286 0.00429525 -5.93474e-17)
(1.01854 0.00664734 -2.24597e-16)
(1.02579 0.00970465 -1.37185e-16)
(1.0354 0.0133328 2.48245e-16)
(1.0465 0.0171837 -1.32972e-16)
(1.06033 0.0212654 8.74538e-17)
(1.07604 0.0235228 1.01614e-16)
(1.09389 0.0239898 -2.37552e-16)
(1.11359 0.0191972 -2.47439e-16)
(1.13048 0.00630711 1.29932e-16)
(1.00734 0.000776615 -3.35138e-18)
(1.00926 0.00227675 -1.16004e-17)