/*--------------------------------*- C++ -*----------------------------------*\
  =========                 |
  \\      /  F ield         | OpenFOAM: The Open Source CFD Toolbox
   \\    /   O peration     | Website:  https://openfoam.org
    \\  /    A nd           | Version:  6.0
     \\/     M anipulation  |
\*---------------------------------------------------------------------------*/
FoamFile
{
    version     2.0;
    format      ascii;
    class       volScalarField;
    location    "2";
    object      p;
}
// * * * * * * * * * * * * * * * * * * * * * * * * * * * * * * * * * * * * * //

dimensions      [0 2 -2 0 0 0 0];

internalField   nonuniform List<scalar> 
62000
(
0.0961156
0.0955413
0.0949495
0.0943369
0.0936954
0.093022
0.0923119
0.0915638
0.0907736
0.0899401
0.0890592
0.0881293
0.0871461
0.0861072
0.0850081
0.0838452
0.0826136
0.0813087
0.0799249
0.0784564
0.0768974
0.075241
0.0734809
0.0716096
0.0696206
0.0675055
0.0652583
0.0628706
0.0603364
0.0576495
0.0548047
0.0518015
0.0486358
0.0453145
0.0418415
0.0382293
0.0344953
0.0306619
0.026759
0.0228237
0.0189008
0.0150417
0.0113028
0.00774227
0.00441765
0.00138136
-0.00132435
-0.0036661
-0.00563158
-0.00721173
-0.00842802
-0.00928987
-0.00984385
-0.0100999
-0.010097
-0.00984482
-0.00937207
-0.00868445
-0.00816637
-0.00838251
0.0968758
0.0962665
0.0956521
0.0950324
0.0943947
0.093733
0.0930408
0.0923154
0.0915519
0.0907489
0.0899014
0.0890079
0.0880634
0.087066
0.0860104
0.0848937
0.08371
0.0824558
0.0811244
0.0797114
0.0782094
0.0766131
0.0749146
0.0731073
0.0711836
0.0691356
0.0669559
0.0646362
0.0621691
0.0595472
0.0567645
0.0538165
0.0507004
0.0474159
0.0439663
0.0403599
0.0366085
0.0327293
0.028746
0.0246898
0.0205992
0.0165199
0.0125035
0.00860477
0.0048798
0.00138183
-0.00184345
-0.00475653
-0.00733714
-0.00956459
-0.0114502
-0.0129854
-0.0142086
-0.0151014
-0.0156785
-0.0159106
-0.0157861
-0.0152591
-0.0146632
-0.0143988
0.0973026
0.0966453
0.0959943
0.0953514
0.0947006
0.094034
0.0933431
0.0926245
0.0918725
0.0910851
0.0902572
0.0893867
0.0884688
0.0875008
0.0864774
0.0853955
0.0842488
0.0830336
0.0817429
0.0803723
0.0789139
0.0773627
0.0757103
0.0739505
0.0720749
0.070076
0.0679455
0.0656752
0.0632567
0.0606821
0.0579441
0.0550372
0.0519565
0.0486997
0.0452687
0.0416679
0.0379058
0.0339953
0.0299554
0.025812
0.0215986
0.0173557
0.0131303
0.00897348
0.00493923
0.00108046
-0.00255535
-0.00592451
-0.00900044
-0.0117538
-0.0141859
-0.0162758
-0.0180498
-0.0194686
-0.0205296
-0.0211755
-0.0213695
-0.0210436
-0.0205004
-0.020235
0.0976763
0.0969816
0.0963
0.0956332
0.0949647
0.0942856
0.093587
0.092865
0.0921135
0.0913302
0.0905097
0.0896498
0.0887453
0.0877936
0.0867891
0.0857285
0.0846053
0.0834159
0.082153
0.080812
0.0793849
0.0778665
0.076248
0.0745233
0.0726835
0.070721
0.068627
0.066393
0.0640103
0.0614701
0.0587647
0.0558871
0.0528312
0.049594
0.0461738
0.0425737
0.0387986
0.0348582
0.0307674
0.0265479
0.0222285
0.0178452
0.0134405
0.00906209
0.00476126
0.000589834
-0.00340374
-0.00717322
-0.0106868
-0.0139084
-0.016831
-0.0194226
-0.0217013
-0.0236101
-0.025128
-0.02618
-0.0267116
-0.0266458
-0.0262563
-0.0260477
0.0980485
0.0973304
0.0966278
0.0959426
0.0952585
0.0945665
0.0938578
0.0931281
0.0923713
0.0915849
0.0907639
0.0899057
0.0890054
0.0880602
0.0870646
0.0860151
0.0849053
0.0837312
0.0824854
0.0811632
0.0797564
0.0782596
0.0766637
0.0749626
0.073147
0.0712093
0.0691402
0.066931
0.0645725
0.0620553
0.0593712
0.0565123
0.0534721
0.0502442
0.0468277
0.0432218
0.0394293
0.035457
0.0313164
0.0270252
0.0226082
0.018097
0.0135299
0.0089509
0.00440854
-4.69426e-05
-0.00436701
-0.0085036
-0.0124208
-0.0160774
-0.0194579
-0.0225225
-0.0252784
-0.027655
-0.0296178
-0.0310775
-0.0319665
-0.0321988
-0.0320128
-0.0318924
0.0985384
0.0978036
0.097084
0.0963816
0.0956812
0.0949737
0.0942508
0.0935081
0.09274
0.0919438
0.0911143
0.0902493
0.0893436
0.0883946
0.0873968
0.0863469
0.0852383
0.0840674
0.0828265
0.0815111
0.0801127
0.0786259
0.0770415
0.0753531
0.0735509
0.0716273
0.0695726
0.0673778
0.0650331
0.0625287
0.059856
0.0570061
0.053971
0.0507456
0.047324
0.0437054
0.0398898
0.0358813
0.0316885
0.0273256
0.0228136
0.0181804
0.01346
0.00869309
0.00392508
-0.000795698
-0.00542109
-0.00990226
-0.0141998
-0.0182686
-0.022086
-0.0256051
-0.0288254
-0.0316636
-0.0340697
-0.0359441
-0.0372061
-0.0377592
-0.0378012
-0.0377904
0.0991067
0.0983593
0.0976266
0.0969107
0.0961965
0.0954752
0.0947388
0.0939828
0.0932018
0.0923931
0.0915521
0.0906763
0.0897609
0.0888033
0.0877983
0.0867423
0.0856291
0.0844546
0.0832117
0.0818953
0.0804973
0.0790119
0.07743
0.0757449
0.0739469
0.072028
0.0699783
0.0677884
0.0654482
0.0629476
0.060277
0.0574271
0.0543899
0.0511564
0.0477228
0.0440843
0.0402392
0.0361895
0.0319409
0.0275044
0.0228975
0.0181441
0.0132747
0.00832612
0.00334079
-0.00163513
-0.00655444
-0.0113679
-0.0160335
-0.0205028
-0.0247464
-0.0287117
-0.0323887
-0.0356832
-0.0385335
-0.0408293
-0.0424771
-0.0433655
-0.0436491
-0.0437619
0.0997938
0.0990345
0.0982891
0.0975597
0.0968315
0.0960958
0.0953448
0.0945744
0.0937792
0.0929566
0.0921017
0.0912124
0.0902837
0.0893134
0.0882958
0.0872279
0.0861034
0.0849186
0.0836661
0.0823412
0.0809358
0.079444
0.0778566
0.0761669
0.0743651
0.0724427
0.0703898
0.0681967
0.0658528
0.0633476
0.060671
0.0578132
0.0547642
0.051517
0.048063
0.0443976
0.0405167
0.0364199
0.0321105
0.0275965
0.0228923
0.0180181
0.0130007
0.00787356
0.00267595
-0.00254842
-0.00775348
-0.0128903
-0.0179147
-0.0227757
-0.0274381
-0.0318438
-0.0359758
-0.0397296
-0.0430285
-0.0457535
-0.0477966
-0.0490286
-0.0495609
-0.0498105
0.100534
0.0997647
0.0990092
0.0982694
0.0975306
0.0967839
0.0960217
0.0952394
0.094432
0.0935968
0.0927293
0.0918268
0.0908853
0.0899017
0.0888713
0.0877904
0.0866532
0.0854557
0.084191
0.0828539
0.0814366
0.0799333
0.0783348
0.0766343
0.074822
0.0728895
0.0708264
0.0686228
0.066268
0.0637509
0.0610609
0.0581875
0.0551211
0.0518508
0.04837
0.0446708
0.0407476
0.0365981
0.032223
0.0276276
0.0228229
0.017826
0.0126599
0.00735455
0.00194616
-0.00352409
-0.00901172
-0.0144682
-0.0198479
-0.0250977
-0.0301766
-0.0350224
-0.0396086
-0.0438219
-0.0475737
-0.0507348
-0.0531816
-0.0547642
-0.0555511
-0.0559476
0.101406
0.100626
0.0998583
0.0991059
0.0983538
0.0975934
0.0968169
0.0960202
0.095198
0.0943478
0.0934649
0.0925468
0.091589
0.090589
0.0895417
0.0884439
0.0872895
0.0860749
0.084793
0.0834391
0.0820052
0.0804855
0.0788708
0.0771544
0.0753263
0.0733778
0.0712986
0.0690785
0.0667065
0.064171
0.0614612
0.0585658
0.0554736
0.0521757
0.0486607
0.0449212
0.0409496
0.0367414
0.032295
0.0276131
0.0227039
0.0175809
0.0122641
0.00677976
0.00116107
-0.00455351
-0.0103212
-0.0160944
-0.0218261
-0.0274618
-0.0329553
-0.0382403
-0.0432835
-0.0479619
-0.0521726
-0.0557769
-0.0586339
-0.0605717
-0.0616171
-0.0621719
0.10234
0.101549
0.100771
0.100007
0.0992434
0.0984707
0.0976815
0.0968711
0.0960348
0.0951697
0.0942715
0.0933376
0.0923638
0.0913473
0.0902834
0.0891684
0.0879968
0.0867644
0.0854645
0.084092
0.0826392
0.0811002
0.0794661
0.0777298
0.0758815
0.0739124
0.0718122
0.0695703
0.0671755
0.0646161
0.0618804
0.0589569
0.0558346
0.0525006
0.0489461
0.0451603
0.0411342
0.0368618
0.0323391
0.0275662
0.0225483
0.0172961
0.0118257
0.00616047
0.000330136
-0.0056295
-0.0116776
-0.0177676
-0.0238518
-0.0298743
-0.0357839
-0.0415108
-0.0470129
-0.0521587
-0.0568335
-0.0608876
-0.064162
-0.0664604
-0.0677695
-0.0684922
0.103382
0.102578
0.101787
0.10101
0.100232
0.0994452
0.098641
0.0978154
0.0969635
0.0960825
0.0951678
0.094217
0.0932254
0.0921907
0.0911078
0.0899733
0.0887814
0.0875284
0.0862074
0.0848133
0.0833386
0.0817774
0.0801204
0.0783609
0.0764888
0.0744952
0.0723697
0.0701016
0.0676794
0.0650909
0.0623245
0.0593676
0.0562079
0.0528345
0.049234
0.0453961
0.0413101
0.0369678
0.0323634
0.0274942
0.0223631
0.0169775
0.0113504
0.00550166
-0.000541905
-0.0067474
-0.013076
-0.0194827
-0.0259188
-0.032328
-0.0386543
-0.0448247
-0.05079
-0.0564098
-0.0615553
-0.0660659
-0.0697634
-0.0724268
-0.0740038
-0.0749056
0.104456
0.10364
0.102838
0.10205
0.101261
0.100463
0.0996469
0.0988088
0.0979438
0.0970488
0.0961196
0.0951532
0.0941458
0.0930939
0.0919936
0.0908404
0.0896293
0.0883559
0.0870137
0.0855974
0.0840996
0.0825141
0.0808322
0.0790468
0.0771478
0.0751265
0.0729721
0.0706739
0.06822
0.0655983
0.0627961
0.059801
0.0566006
0.0531805
0.0495295
0.0456342
0.0414829
0.0370657
0.0323747
0.027405
0.0221564
0.0166336
0.0108463
0.00481122
-0.00144818
-0.00790178
-0.014513
-0.0212383
-0.0280288
-0.0348274
-0.0415736
-0.0481916
-0.0546233
-0.0607205
-0.0663425
-0.0713163
-0.0754441
-0.0784783
-0.0803297
-0.0814204
0.105658
0.104829
0.104012
0.103209
0.102405
0.101591
0.100759
0.0999042
0.0990223
0.09811
0.0971628
0.0961779
0.0951509
0.0940791
0.0929575
0.0917827
0.0905487
0.089252
0.0878856
0.0864444
0.0849209
0.083309
0.0815997
0.0797858
0.0778574
0.0758054
0.0736191
0.0712874
0.0687985
0.0661394
0.0632978
0.0602602
0.057013
0.0535435
0.0498364
0.045879
0.0416574
0.0371603
0.0323777
0.0273023
0.0219317
0.0162674
0.0103161
0.00409144
-0.00238634
-0.00909006
-0.0159854
-0.0230307
-0.0301766
-0.037366
-0.0445341
-0.0516024
-0.0585058
-0.0650874
-0.0711926
-0.0766365
-0.0812006
-0.0846106
-0.0867418
-0.0880329
0.106908
0.106066
0.105235
0.104419
0.103601
0.102773
0.101926
0.101056
0.100157
0.0992275
0.0982624
0.0972587
0.0962126
0.0951206
0.0939786
0.0927822
0.0915262
0.0902061
0.0888155
0.0873488
0.0857988
0.084159
0.0824206
0.0805764
0.0786164
0.0765313
0.0743103
0.0719422
0.0694148
0.0667152
0.0638301
0.0607462
0.0574496
0.0539245
0.0501576
0.0461333
0.0418368
0.0372553
0.0323767
0.0271915
0.0216948
0.0158852
0.00976646
0.00334879
-0.00335058
-0.0103074
-0.0174899
-0.0248581
-0.0323631
-0.0399471
-0.0475413
-0.0550648
-0.062444
-0.0695139
-0.0761086
-0.0820297
-0.0870376
-0.0908305
-0.0932493
-0.0947514
0.108263
0.107405
0.106558
0.105725
0.10489
0.104044
0.103179
0.102291
0.101374
0.100425
0.0994402
0.0984164
0.0973488
0.096235
0.0950698
0.0938497
0.0925686
0.0912229
0.0898055
0.0883112
0.0867325
0.085063
0.0832936
0.0814171
0.0794234
0.0773029
0.0750448
0.0726377
0.0700692
0.0673258
0.0643944
0.0612605
0.0579094
0.0543267
0.0504952
0.0463999
0.0420243
0.0373538
0.0323746
0.0270751
0.0214477
0.0154886
0.00919838
0.0025842
-0.00433983
-0.0115525
-0.0190245
-0.0267179
-0.0345839
-0.0425649
-0.050588
-0.0585702
-0.066431
-0.0739967
-0.0810879
-0.0874933
-0.0929516
-0.0971334
-0.0998466
-0.101572
0.109636
0.108762
0.107901
0.107054
0.106206
0.105346
0.104467
0.103563
0.102631
0.101665
0.100663
0.0996198
0.098533
0.0973983
0.0962119
0.0949688
0.0936641
0.092293
0.0908493
0.089327
0.0877189
0.0860185
0.0842168
0.0823064
0.0802771
0.0781193
0.0758219
0.0733735
0.0707612
0.0679715
0.0649904
0.0618035
0.0583959
0.0547501
0.0508511
0.0466808
0.0422219
0.0374584
0.0323748
0.026957
0.0211954
0.0150831
0.00861776
0.00180353
-0.00534867
-0.0128206
-0.0205856
-0.028608
-0.0368394
-0.045222
-0.0536788
-0.0621254
-0.0704721
-0.0785381
-0.0861325
-0.0930299
-0.098947
-0.103526
-0.106543
-0.108502
0.111134
0.110242
0.109364
0.108498
0.107631
0.106752
0.105854
0.10493
0.103977
0.102991
0.101966
0.100902
0.0997915
0.0986331
0.0974214
0.0961525
0.0948205
0.0934216
0.0919488
0.0903964
0.0887571
0.0870242
0.0851886
0.0832427
0.0811762
0.0789793
0.0766408
0.0741489
0.0714907
0.068652
0.065619
0.0623761
0.0589077
0.0551975
0.0512266
0.0469778
0.0424319
0.0375716
0.0323793
0.0268391
0.0209389
0.0146692
0.00802489
0.00100692
-0.00637684
-0.0141112
-0.0221721
-0.0305265
-0.0391259
-0.0479131
-0.0568072
-0.0657219
-0.0745612
-0.0831352
-0.0912402
-0.0986371
-0.10502
-0.110003
-0.113332
-0.115538
0.112668
0.111759
0.110863
0.109982
0.109098
0.108201
0.107285
0.106342
0.105369
0.104362
0.103317
0.10223
0.101097
0.0999149
0.098679
0.0973846
0.0960264
0.0945998
0.0930983
0.0915155
0.0898445
0.0880782
0.0862075
0.0842249
0.0821197
0.0798821
0.0775008
0.0749636
0.0722573
0.0693677
0.0662799
0.0629786
0.0594477
0.0556683
0.0516232
0.0472925
0.0426561
0.0376954
0.032391
0.0267249
0.0206826
0.0142521
0.00742517
0.000199878
-0.00741908
-0.0154196
-0.0237804
-0.0324709
-0.0414433
-0.0506403
-0.059977
-0.0693662
-0.0787027
-0.0877896
-0.0964123
-0.104317
-0.111175
-0.116572
-0.120222
-0.122688
0.1143
0.113372
0.112456
0.111554
0.110649
0.109732
0.108794
0.10783
0.106835
0.105805
0.104737
0.103626
0.102468
0.101261
0.0999979
0.0986761
0.0972889
0.0958327
0.0943001
0.0926854
0.0909809
0.0891798
0.0872728
0.0852521
0.0831069
0.0808272
0.0784014
0.0758172
0.0730611
0.0701182
0.066974
0.0636117
0.0600148
0.0561651
0.0520422
0.0476265
0.0428964
0.0378318
0.0324115
0.0266155
0.0204271
0.0138318
0.00681841
-0.000617956
-0.00847569
-0.0167458
-0.0254099
-0.0344399
-0.0437885
-0.0533989
-0.0631821
-0.0730499
-0.0828908
-0.0924987
-0.101647
-0.110067
-0.117409
-0.123227
-0.127209
-0.129946
0.115936
0.114989
0.114055
0.113137
0.112216
0.111282
0.110327
0.109345
0.108332
0.107282
0.106194
0.105061
0.103881
0.102649
0.101362
0.100013
0.0985987
0.0971131
0.0955502
0.093903
0.0921647
0.090328
0.0883836
0.0863235
0.0841371
0.0818138
0.0793422
0.0767094
0.0739017
0.0709041
0.0677008
0.0642758
0.0606115
0.0566874
0.0524846
0.047981
0.0431541
0.0379825
0.0324432
0.0265141
0.0201765
0.013413
0.00620965
-0.00144137
-0.00954158
-0.0180852
-0.0270567
-0.0364308
-0.0461609
-0.0561902
-0.0664262
-0.0767793
-0.0871291
-0.0972634
-0.106945
-0.11589
-0.123724
-0.129975
-0.1343
-0.137323
0.117697
0.116728
0.115772
0.114832
0.113889
0.112932
0.111954
0.110949
0.109912
0.108839
0.107725
0.106567
0.10536
0.104102
0.102785
0.101408
0.0999626
0.0984456
0.0968497
0.0951686
0.093395
0.0915214
0.0895386
0.0874382
0.0852094
0.0828415
0.0803227
0.0776399
0.0747793
0.071725
0.0684616
0.0649714
0.0612367
0.0572375
0.0529517
0.0483575
0.043431
0.0381491
0.0324873
0.0264216
0.0199309
0.0129954
0.0055984
-0.00227101
-0.0106173
-0.0194381
-0.0287207
-0.0384426
-0.0485577
-0.0590102
-0.0697029
-0.080546
-0.0914127
-0.102082
-0.112305
-0.121783
-0.130119
-0.13681
-0.141489
-0.144811
0.119483
0.118493
0.117518
0.116558
0.115595
0.114619
0.11362
0.112593
0.111533
0.110436
0.109298
0.108115
0.106882
0.105596
0.104253
0.102846
0.101371
0.0998231
0.0981949
0.0964797
0.0946704
0.0927594
0.0907373
0.0885957
0.0863235
0.0839099
0.0813428
0.0786089
0.0756938
0.0725816
0.0692558
0.0656992
0.0618929
0.0578149
0.0534444
0.048757
0.0437281
0.0383332
0.0325461
0.0263408
0.0196939
0.0125833
0.00498927
-0.00310194
-0.0116982
-0.0208
-0.0303981
-0.0404724
-0.0509782
-0.0618594
-0.0730162
-0.084356
-0.0957442
-0.106954
-0.117726
-0.127748
-0.136596
-0.14374
-0.148784
-0.152421
0.121366
0.120353
0.119353
0.118369
0.117382
0.116382
0.115358
0.114306
0.113221
0.112099
0.110935
0.109725
0.108464
0.107149
0.105776
0.104339
0.102832
0.101251
0.0995879
0.0978373
0.0959911
0.0940418
0.0919795
0.0897957
0.0874793
0.085019
0.0824026
0.0796164
0.0766457
0.073474
0.0700849
0.0664596
0.0625791
0.0584218
0.0539636
0.0491808
0.0440469
0.0385362
0.0326206
0.0262723
0.0194658
0.0121764
0.00438178
-0.00393497
-0.0127846
-0.0221714
-0.0320885
-0.0425194
-0.0534195
-0.0647345
-0.0763593
-0.0882011
-0.100119
-0.111878
-0.123209
-0.133782
-0.143152
-0.150758
-0.15618
-0.160145
0.123238
0.122203
0.121184
0.120181
0.119175
0.118155
0.117113
0.116041
0.114935
0.11379
0.112603
0.111368
0.110083
0.108741
0.10734
0.105873
0.104336
0.102722
0.101026
0.0992399
0.0973566
0.0953681
0.093265
0.0910383
0.0886767
0.0861688
0.0835021
0.0806626
0.077635
0.0744028
0.0709484
0.0672534
0.0632977
0.0590577
0.0545104
0.0496297
0.0443883
0.0387592
0.0327126
0.0262186
0.0192497
0.0117787
0.00378019
-0.00476535
-0.0138722
-0.0235476
-0.0337885
-0.0445804
-0.0558809
-0.067635
-0.0797367
-0.0920867
-0.104539
-0.116854
-0.128752
-0.139887
-0.149791
-0.157872
-0.163685
-0.167995
0.125236
0.124176
0.123131
0.122102
0.121071
0.120026
0.118957
0.117859
0.116727
0.115556
0.11434
0.113078
0.111762
0.110391
0.108959
0.10746
0.105889
0.104242
0.10251
0.100687
0.0987657
0.0967377
0.0945931
0.0923229
0.0899156
0.0873594
0.0846417
0.0817478
0.0786625
0.0753683
0.0718478
0.068081
0.0640478
0.0597245
0.0550856
0.050105
0.0447537
0.0390035
0.0328231
0.0261804
0.0190459
0.0113898
0.00318412
-0.0055937
-0.0149614
-0.0249291
-0.0354976
-0.0466545
-0.0583596
-0.0705579
-0.0831406
-0.0960052
-0.109001
-0.12188
-0.134354
-0.146062
-0.156509
-0.165075
-0.171292
-0.17596
0.12725
0.126165
0.125097
0.124046
0.122993
0.121925
0.120833
0.119711
0.118553
0.117356
0.116114
0.114824
0.11348
0.11208
0.110618
0.109088
0.107485
0.105804
0.104038
0.102178
0.100219
0.0981508
0.0959643
0.0936501
0.0911965
0.0885913
0.0858216
0.0828726
0.0797284
0.0763714
0.0727829
0.0689435
0.0648316
0.0604221
0.05569
0.0506072
0.0451439
0.0392705
0.0329538
0.02616
0.0188574
0.0110135
0.0025977
-0.00641568
-0.0160476
-0.0263115
-0.0372121
-0.0487385
-0.0608544
-0.0735024
-0.0865757
-0.0999604
-0.113504
-0.126956
-0.140016
-0.152306
-0.163309
-0.172375
-0.179009
-0.184054
0.129357
0.128245
0.12715
0.126072
0.124991
0.123896
0.122777
0.121627
0.120442
0.119217
0.117947
0.116628
0.115254
0.113823
0.112329
0.110767
0.10913
0.107414
0.105612
0.103715
0.101717
0.0996083
0.0973794
0.0950206
0.09252
0.0898651
0.0870428
0.0840377
0.0808338
0.0774125
0.0737553
0.0698411
0.0656486
0.0611521
0.0563245
0.0511377
0.0455603
0.0395614
0.033106
0.0261583
0.0186845
0.0106498
0.00202073
-0.0072316
-0.0171311
-0.0276952
-0.0389314
-0.0508317
-0.0633623
-0.0764654
-0.0900332
-0.103946
-0.118047
-0.13208
-0.145735
-0.158618
-0.170188
-0.179764
-0.18683
-0.192265
0.131442
0.130306
0.129188
0.128089
0.126988
0.125873
0.124733
0.123562
0.122354
0.121105
0.119811
0.118465
0.117066
0.115606
0.114083
0.112489
0.110821
0.109071
0.107233
0.105299
0.103261
0.101111
0.0988395
0.0964354
0.0938871
0.0911817
0.0883059
0.085244
0.0819792
0.0784928
0.074765
0.0707755
0.0665008
0.0619148
0.0569904
0.0516975
0.0460041
0.0398777
0.0332815
0.0261777
0.0185304
0.0103024
0.00145712
-0.00803705
-0.0182078
-0.0290755
-0.0406519
-0.0529304
-0.0658821
-0.0794457
-0.0935181
-0.107963
-0.122627
-0.13725
-0.151511
-0.165
-0.177149
-0.18725
-0.194763
-0.200607
0.133662
0.132497
0.131351
0.130224
0.129095
0.127951
0.126783
0.125583
0.124347
0.12307
0.121745
0.12037
0.118939
0.117448
0.115892
0.114265
0.112562
0.110776
0.108901
0.106929
0.104851
0.10266
0.100345
0.0978948
0.0952983
0.0925419
0.0896121
0.0864924
0.0831659
0.0796129
0.0758142
0.0717468
0.0673887
0.0627121
0.0576888
0.0522883
0.046477
0.0402209
0.0334816
0.0262192
0.0183957
0.00997139
0.000907029
-0.00883239
-0.0192776
-0.0304528
-0.042373
-0.0550342
-0.0684109
-0.0824404
-0.0970209
-0.112008
-0.127245
-0.142467
-0.157344
-0.171448
-0.184189
-0.194826
-0.202799
-0.209068
0.135898
0.134707
0.133535
0.132383
0.13123
0.130062
0.128868
0.127642
0.126379
0.125074
0.123721
0.122317
0.120856
0.119334
0.117747
0.116087
0.11435
0.112528
0.110617
0.108606
0.106489
0.104256
0.101896
0.0994004
0.0967552
0.0939472
0.0909625
0.0877843
0.084395
0.0807749
0.0769029
0.0727576
0.0683143
0.0635452
0.0584216
0.0529117
0.0469806
0.0405931
0.0337086
0.0262855
0.0182836
0.00966056
0.000374381
-0.00961313
-0.0203361
-0.0318224
-0.0440907
-0.0571392
-0.0709468
-0.0854479
-0.100546
-0.11608
-0.131897
-0.147728
-0.163232
-0.177964
-0.19131
-0.202499
-0.210949
-0.217662
0.138238
0.137016
0.135813
0.134632
0.133449
0.132251
0.131028
0.129773
0.12848
0.127145
0.125762
0.124326
0.122833
0.121279
0.119658
0.117964
0.116191
0.114333
0.112384
0.110334
0.108176
0.105901
0.103497
0.100954
0.0982594
0.0953992
0.092359
0.0891214
0.0856686
0.0819797
0.0780344
0.0738087
0.0692792
0.0644166
0.0591909
0.0535699
0.0475171
0.0409959
0.0339641
0.0263778
0.0181948
0.00937029
-0.000140679
-0.0103794
-0.0213836
-0.0331847
-0.0458049
-0.0592448
-0.0734878
-0.0884651
-0.104086
-0.120177
-0.136583
-0.153033
-0.169175
-0.184546
-0.198509
-0.210262
-0.219203
-0.226376
0.140552
0.139303
0.138076
0.136872
0.135667
0.134448
0.133203
0.131924
0.130608
0.129247
0.127838
0.126375
0.124854
0.123269
0.121618
0.11989
0.118084
0.11619
0.114203
0.112114
0.109915
0.107596
0.105148
0.102557
0.0998131
0.0969
0.0938034
0.0905057
0.0869882
0.0832301
0.0792094
0.0749034
0.0702861
0.065328
0.059999
0.0542649
0.0480885
0.0414317
0.0342504
0.0264988
0.0181326
0.00910434
-0.000633911
-0.0111267
-0.0224152
-0.0345345
-0.0475109
-0.061347
-0.076031
-0.0914908
-0.107642
-0.124295
-0.141299
-0.158379
-0.17517
-0.191194
-0.205789
-0.218121
-0.227572
-0.235225
0.143017
0.141737
0.140478
0.139243
0.138007
0.136757
0.135481
0.134172
0.132824
0.131433
0.129992
0.128497
0.126942
0.125324
0.123637
0.121875
0.120031
0.1181
0.116075
0.113946
0.111706
0.109344
0.10685
0.104213
0.101418
0.0984515
0.095298
0.0919393
0.0883565
0.0845277
0.0804315
0.0760428
0.0713367
0.0662823
0.0608476
0.0549987
0.0486966
0.041902
0.034569
0.0266498
0.0180978
0.00886317
-0.00110517
-0.0118552
-0.0234313
-0.0358728
-0.049209
-0.0634458
-0.0785748
-0.0945222
-0.111209
-0.128436
-0.146048
-0.163767
-0.181218
-0.197907
-0.213145
-0.226071
-0.236045
-0.244193
0.145496
0.144185
0.142899
0.141637
0.140374
0.139097
0.137793
0.136456
0.135079
0.133657
0.132186
0.13066
0.129074
0.127424
0.125705
0.123908
0.12203
0.120063
0.118001
0.115833
0.113552
0.111147
0.108608
0.105923
0.103077
0.100057
0.0968453
0.0934247
0.0897753
0.0858753
0.0817013
0.0772298
0.0724331
0.0672798
0.0617385
0.0557729
0.0493432
0.042409
0.0349224
0.0268336
0.018094
0.00865083
-0.00154997
-0.0125597
-0.0244265
-0.0371935
-0.0508938
-0.0655361
-0.0811159
-0.0975574
-0.114787
-0.132593
-0.150823
-0.169192
-0.187317
-0.204684
-0.220582
-0.234117
-0.244632
-0.253299
0.148067
0.146724
0.145404
0.144109
0.142815
0.141507
0.140171
0.138804
0.137396
0.135945
0.134443
0.132887
0.131269
0.129587
0.127835
0.126005
0.124092
0.122089
0.119989
0.117781
0.115459
0.11301
0.110425
0.107691
0.104794
0.101718
0.0984478
0.094964
0.091247
0.0872737
0.0830217
0.0784644
0.0735757
0.068323
0.0626727
0.0565888
0.0500299
0.0429541
0.0353119
0.0270513
0.0181217
0.00846763
-0.00196833
-0.0132409
-0.0254017
-0.0384981
-0.0525664
-0.0676189
-0.0836537
-0.100595
-0.118373
-0.13677
-0.155628
-0.174658
-0.193467
-0.211525
-0.228094
-0.242252
-0.253323
-0.262523
0.150555
0.149185
0.147845
0.146534
0.145225
0.143902
0.142553
0.141168
0.139743
0.138271
0.136748
0.135167
0.133525
0.131814
0.130033
0.128171
0.126224
0.124184
0.122046
0.119798
0.117433
0.114939
0.112307
0.109522
0.106571
0.103438
0.100108
0.096559
0.0927723
0.0887248
0.0843918
0.0797486
0.0747662
0.0694115
0.0636515
0.0574479
0.0507581
0.0435392
0.0357398
0.027306
0.0181848
0.00831789
-0.00235533
-0.0138931
-0.0263508
-0.0397798
-0.0542205
-0.0696879
-0.086184
-0.103632
-0.121967
-0.14096
-0.160455
-0.180159
-0.199665
-0.218428
-0.235686
-0.250483
-0.262129
-0.271886
0.153486
0.152077
0.150692
0.149333
0.147975
0.146603
0.145203
0.143771
0.142299
0.140783
0.139216
0.137592
0.135907
0.134156
0.132333
0.13043
0.128442
0.126361
0.12418
0.121888
0.119477
0.116936
0.114254
0.111417
0.108411
0.105219
0.101826
0.0982104
0.0943526
0.0902284
0.0858142
0.0810821
0.0760047
0.0705477
0.0646759
0.0583512
0.0515292
0.0441656
0.0362074
0.0275985
0.0182836
0.00820161
-0.00271141
-0.0145173
-0.0272753
-0.0410409
-0.055858
-0.0717453
-0.0887074
-0.106667
-0.125566
-0.145168
-0.165311
-0.185697
-0.205913
-0.225393
-0.243352
-0.258801
-0.271037
-0.281367
0.156116
0.154683
0.153281
0.15191
0.150543
0.14916
0.147751
0.146304
0.144817
0.143281
0.141693
0.140044
0.138334
0.136551
0.134697
0.132758
0.130733
0.128612
0.126389
0.124052
0.121595
0.119004
0.11627
0.113378
0.110314
0.107061
0.103603
0.0999191
0.0959881
0.0917863
0.0872879
0.0824669
0.0772928
0.0717309
0.0657469
0.0592997
0.0523443
0.0448351
0.0367169
0.0279317
0.0184219
0.00812341
-0.00303124
-0.0151075
-0.0281685
-0.042274
-0.0574718
-0.0737839
-0.0912185
-0.109698
-0.129168
-0.149385
-0.170185
-0.191268
-0.212206
-0.23242
-0.251096
-0.267216
-0.28006
-0.290988
0.159242
0.157769
0.156322
0.154903
0.153485
0.152052
0.150592
0.149097
0.147561
0.145979
0.144345
0.142652
0.140895
0.139069
0.137169
0.135186
0.133115
0.130948
0.128678
0.126292
0.123785
0.121142
0.118353
0.115405
0.112281
0.108965
0.10544
0.101686
0.09768
0.093398
0.0888153
0.0839022
0.0786301
0.0729634
0.0668651
0.0602947
0.0532049
0.0455487
0.0372694
0.0283064
0.0185999
0.00808279
-0.00331589
-0.0156654
-0.0290327
-0.043482
-0.0590649
-0.075807
-0.0937193
-0.112725
-0.132773
-0.153618
-0.175086
-0.196874
-0.218547
-0.239506
-0.258913
-0.275716
-0.289184
-0.300727
0.162043
0.160548
0.159086
0.157657
0.156232
0.15479
0.15332
0.151811
0.150259
0.148656
0.146999
0.145279
0.143494
0.141634
0.1397
0.137678
0.135567
0.133356
0.13104
0.128605
0.126047
0.12335
0.120505
0.117497
0.114311
0.11093
0.107337
0.10351
0.0994277
0.0950647
0.0903946
0.0853897
0.0800183
0.0742443
0.0680317
0.061337
0.054112
0.0463084
0.0378671
0.0287255
0.0188215
0.00808469
-0.00355954
-0.0161842
-0.0298605
-0.0446569
-0.0606293
-0.0778065
-0.0962033
-0.115742
-0.136378
-0.157856
-0.180003
-0.202509
-0.224932
-0.246653
-0.266808
-0.284311
-0.298423
-0.310605
0.165376
0.16384
0.162332
0.160853
0.159375
0.15788
0.156356
0.154795
0.153192
0.151539
0.149832
0.148064
0.146229
0.144323
0.142339
0.140269
0.138108
0.135847
0.133479
0.130992
0.128379
0.125627
0.122723
0.119654
0.116404
0.112957
0.109293
0.105392
0.101232
0.0967854
0.092028
0.0869284
0.0814569
0.0755759
0.0692473
0.0624278
0.0550669
0.0471149
0.0385107
0.0291895
0.0190864
0.00812801
-0.00376406
-0.0166667
-0.0306554
-0.0458028
-0.0621691
-0.0797868
-0.0986738
-0.118753
-0.139984
-0.162108
-0.184943
-0.208179
-0.231362
-0.253857
-0.274773
-0.292991
-0.30776
-0.320598
0.168397
0.166834
0.165305
0.163808
0.162315
0.160803
0.159263
0.157683
0.156059
0.154382
0.15265
0.150852
0.148987
0.147045
0.145025
0.142915
0.140711
0.138404
0.135987
0.133448
0.130781
0.127971
0.125007
0.121875
0.11856
0.115043
0.111308
0.107331
0.103091
0.0985611
0.0937137
0.0885201
0.0829472
0.0769571
0.0705127
0.0635677
0.0560706
0.04797
0.0392028
0.0297015
0.0193989
0.00821808
-0.00392307
-0.0171055
-0.031409
-0.0469107
-0.0636754
-0.081739
-0.101123
-0.121751
-0.143586
-0.166362
-0.189896
-0.213874
-0.237834
-0.261121
-0.282815
-0.301764
-0.317211
-0.33073
0.171699
0.1701
0.168537
0.167006
0.16548
0.163936
0.162363
0.160749
0.15909
0.157378
0.155608
0.15377
0.151862
0.149877
0.14781
0.145651
0.143397
0.141038
0.138568
0.135973
0.133249
0.130379
0.127353
0.124158
0.120775
0.117189
0.11338
0.109326
0.105006
0.10039
0.0954533
0.090163
0.0844881
0.0783899
0.0718284
0.0647578
0.0571242
0.0488746
0.0399436
0.0302613
0.0197579
0.00835307
-0.00403935
-0.0175043
-0.0321259
-0.047986
-0.0651537
-0.0836687
-0.103557
-0.124739
-0.147187
-0.170627
-0.194871
-0.219602
-0.24435
-0.26844
-0.290925
-0.31062
-0.326759
-0.340975
0.175085
0.173449
0.171848
0.170282
0.16872
0.167139
0.165528
0.163876
0.162178
0.160426
0.158616
0.156737
0.154788
0.15276
0.15065
0.148446
0.146144
0.143735
0.141212
0.138562
0.13578
0.13285
0.129761
0.1265
0.123049
0.119391
0.115507
0.111376
0.106973
0.102272
0.0972438
0.0918582
0.0860808
0.0798728
0.0731952
0.065999
0.0582289
0.0498305
0.0407359
0.0308727
0.0201683
0.00853884
-0.00410583
-0.0178549
-0.032797
-0.0490187
-0.0665941
-0.0855659
-0.105965
-0.127712
-0.150781
-0.174892
-0.199855
-0.225355
-0.250907
-0.275818
-0.299111
-0.319568
-0.33642
-0.351358
0.17863
0.176955
0.175317
0.173712
0.172111
0.170492
0.168841
0.167148
0.165408
0.163613
0.161756
0.159831
0.157832
0.155752
0.153589
0.15133
0.148972
0.146506
0.143926
0.141216
0.138373
0.13538
0.132226
0.128898
0.125377
0.121647
0.117688
0.113478
0.108993
0.104205
0.0990866
0.0936036
0.0877244
0.0814082
0.0746137
0.067292
0.0593855
0.0508382
0.0415796
0.0315348
0.0206283
0.00877274
-0.00412631
-0.0181621
-0.0334281
-0.0500153
-0.0680031
-0.0874375
-0.108354
-0.130672
-0.154371
-0.179165
-0.20486
-0.231137
-0.257505
-0.283249
-0.307364
-0.328596
-0.346174
-0.361851
0.18217
0.180457
0.178782
0.177142
0.175505
0.173848
0.17216
0.170427
0.168646
0.166809
0.164911
0.162942
0.1609
0.158775
0.156565
0.154257
0.151849
0.149329
0.146693
0.143925
0.14102
0.137965
0.134745
0.131349
0.127757
0.123954
0.119919
0.115631
0.111063
0.106189
0.100979
0.0954011
0.0894199
0.0829942
0.0760843
0.0686375
0.0605953
0.0518996
0.0424777
0.0322516
0.0211432
0.00906123
-0.00409274
-0.0184169
-0.0340087
-0.0509651
-0.0693694
-0.0892729
-0.110714
-0.133613
-0.157951
-0.183434
-0.209871
-0.236941
-0.264143
-0.290737
-0.315691
-0.337716
-0.35604
-0.372479
0.185851
0.184099
0.182384
0.180705
0.179029
0.177333
0.175603
0.173829
0.172005
0.170123
0.168177
0.166159
0.164065
0.161887
0.159621
0.157257
0.15479
0.152212
0.149515
0.146686
0.143718
0.140598
0.137312
0.133848
0.130186
0.126309
0.122199
0.117831
0.113182
0.108222
0.102922
0.097248
0.0911658
0.0846335
0.0776076
0.0700365
0.0618589
0.0530151
0.0434296
0.0330218
0.0217105
0.00940085
-0.00401028
-0.0186249
-0.0345463
-0.0518752
-0.0707016
-0.0910791
-0.113053
-0.136541
-0.161526
-0.18771
-0.2149
-0.242774
-0.270821
-0.298277
-0.324082
-0.346913
-0.365997
-0.383215
0.189515
0.187724
0.185971
0.184255
0.182541
0.180806
0.179037
0.177221
0.175354
0.173429
0.17144
0.169376
0.167237
0.165011
0.162698
0.160283
0.157764
0.155131
0.152377
0.149488
0.146459
0.143275
0.139923
0.136391
0.132658
0.12871
0.124524
0.120079
0.115348
0.110303
0.104913
0.0991459
0.0929637
0.0863236
0.0791842
0.0714898
0.0631777
0.0541867
0.0444386
0.0338497
0.0223361
0.00979869
-0.00386984
-0.0187767
-0.0350291
-0.0527346
-0.0719865
-0.0928458
-0.115359
-0.139447
-0.165088
-0.191979
-0.219933
-0.248628
-0.277537
-0.305874
-0.332547
-0.356199
-0.376063
-0.394084
0.193296
0.191463
0.18967
0.187913
0.186159
0.184383
0.182572
0.180713
0.178802
0.176831
0.174793
0.17268
0.170487
0.168208
0.165838
0.163367
0.160788
0.158097
0.155282
0.152332
0.14924
0.145993
0.142575
0.138975
0.135173
0.131153
0.126893
0.122371
0.11756
0.112431
0.106954
0.101093
0.0948119
0.0880679
0.0808147
0.072998
0.0645522
0.0554144
0.0455036