/*--------------------------------*- C++ -*----------------------------------*\
  =========                 |
  \\      /  F ield         | OpenFOAM: The Open Source CFD Toolbox
   \\    /   O peration     | Website:  https://openfoam.org
    \\  /    A nd           | Version:  6.0
     \\/     M anipulation  |
\*---------------------------------------------------------------------------*/
FoamFile
{
    version     2.0;
    format      ascii;
    class       volVectorField;
    location    "16";
    object      U;
}
// * * * * * * * * * * * * * * * * * * * * * * * * * * * * * * * * * * * * * //

dimensions      [0 1 -1 0 0 0 0];

internalField   nonuniform List<vector> 
15500
(
(0.996166 0.0875263 -1.04859e-20)
(0.996165 0.087527 1.19777e-21)
(0.996163 0.0875274 2.49362e-20)
(0.996162 0.0875249 6.52346e-20)
(0.996161 0.0875228 -1.22547e-19)
(0.996161 0.0875187 -2.33822e-20)
(0.99616 0.0875146 1.75492e-19)
(0.99616 0.0875087 1.37819e-20)
(0.996159 0.0875028 6.23804e-21)
(0.996159 0.0874949 -1.41275e-19)
(0.996158 0.0874863 3.83468e-19)
(0.996156 0.0874753 -2.82298e-19)
(0.996153 0.087464 -2.0781e-20)
(0.996149 0.0874525 -2.76516e-19)
(0.996142 0.0874396 1.75246e-19)
(0.996131 0.0874244 -2.76244e-19)
(0.996115 0.0874059 6.64774e-19)
(0.996088 0.0873838 -8.93324e-19)
(0.996048 0.0873564 3.7842e-19)
(0.995986 0.0873178 -1.30935e-18)
(0.995897 0.0872576 1.55592e-18)
(0.995766 0.0871579 4.26252e-19)
(0.995583 0.0869898 -2.75006e-19)
(0.995334 0.0867072 -3.71742e-18)
(0.995018 0.086241 6.87065e-18)
(0.994651 0.0855055 3.34584e-18)
(0.994291 0.0843663 -3.11371e-18)
(0.994038 0.0826965 -3.65021e-18)
(0.994088 0.0796778 -5.77001e-18)
(0.986715 0.0708906 7.46164e-18)
(0.996158 0.0882514 -1.24895e-20)
(0.996152 0.08826 4.13347e-20)
(0.996145 0.0882679 -1.21528e-20)
(0.996137 0.0882707 4.43382e-20)
(0.99613 0.0882733 -1.47561e-19)
(0.996123 0.0882715 -1.12914e-19)
(0.996115 0.0882697 3.02497e-20)
(0.996108 0.0882638 -1.64526e-19)
(0.9961 0.0882581 2.9763e-19)
(0.996092 0.0882486 -1.04079e-19)
(0.996082 0.0882391 9.47603e-20)
(0.996071 0.0882264 1.84666e-19)
(0.996059 0.0882145 -8.37559e-20)
(0.996042 0.0882036 4.87734e-20)
(0.996019 0.0881911 -6.50934e-20)
(0.995985 0.0881729 -1.94112e-19)
(0.99594 0.088146 4.82607e-19)
(0.995873 0.088107 -6.97712e-20)
(0.995779 0.0880477 9.3902e-19)
(0.995645 0.0879524 1.79737e-18)
(0.995461 0.0877961 -1.4942e-18)
(0.995207 0.0875412 8.96652e-19)
(0.994866 0.0871313 -1.49693e-18)
(0.994424 0.0864863 -4.77907e-19)
(0.99389 0.0854968 -4.81711e-18)
(0.99331 0.0840589 -1.81775e-19)
(0.992804 0.0819787 3.76847e-19)
(0.992424 0.0792091 1.33172e-18)
(0.992921 0.0744622 1.40927e-17)
(0.985667 0.0638386 4.2279e-19)
(0.996153 0.0889439 3.40974e-20)
(0.996147 0.0889551 -3.27123e-20)
(0.996138 0.0889626 -2.01277e-20)
(0.996127 0.0889666 -6.165e-20)
(0.996115 0.0889704 1.23081e-19)
(0.996102 0.0889699 -1.76182e-19)
(0.996087 0.0889692 1.08703e-19)
(0.996072 0.0889638 8.36884e-20)
(0.996055 0.0889587 -4.8533e-20)
(0.996036 0.0889482 -1.64088e-19)
(0.996016 0.0889376 6.22391e-20)
(0.995993 0.0889226 2.32926e-19)
(0.995967 0.0889083 -1.17203e-19)
(0.995937 0.0888931 1.3157e-19)
(0.995898 0.0888729 -2.83622e-19)
(0.995848 0.0888417 4.28071e-19)
(0.995783 0.0887952 -7.06283e-19)
(0.9957 0.0887282 5.70962e-19)
(0.995589 0.0886306 -1.13952e-18)
(0.995446 0.0884825 8.44828e-19)
(0.995259 0.0882567 8.55081e-19)
(0.995017 0.0879133 -1.05724e-18)
(0.994707 0.0873951 2.57068e-18)
(0.994327 0.0866259 -3.21438e-19)
(0.993895 0.0855054 -3.309e-18)
(0.993462 0.0839804 -4.37711e-18)
(0.993168 0.0818982 -7.38805e-18)
(0.99287 0.0793754 2.63897e-18)
(0.993885 0.0754974 -9.66751e-18)
(0.989363 0.0691669 -1.04088e-17)
(0.99611 0.0895954 -1.23326e-20)
(0.996107 0.0896058 5.27416e-20)
(0.9961 0.0896141 -2.36361e-20)
(0.99609 0.0896192 -1.83399e-20)
(0.996077 0.0896254 -4.53376e-20)
(0.996061 0.0896267 -1.48539e-19)
(0.996042 0.0896272 1.12795e-19)
(0.99602 0.0896218 1.00134e-19)
(0.995995 0.0896151 -5.04654e-20)
(0.995968 0.0896009 7.7514e-20)
(0.995936 0.0895848 -3.7143e-20)
(0.995901 0.0895621 2.75483e-20)
(0.995861 0.0895381 -2.48589e-20)
(0.995815 0.0895083 1.85458e-21)
(0.99576 0.0894688 -3.80811e-19)
(0.995691 0.0894115 7.9795e-19)
(0.995609 0.0893317 -7.26703e-19)
(0.99551 0.0892228 2.61713e-19)
(0.995388 0.0890735 1.16431e-18)
(0.995239 0.0888642 -1.12261e-18)
(0.995055 0.0885665 -4.76995e-19)
(0.994827 0.0881405 1.49364e-18)
(0.994548 0.087528 -1.08362e-18)
(0.994218 0.0866553 -9.61085e-19)
(0.993861 0.0854165 9.83884e-18)
(0.993522 0.0837832 4.27228e-18)
(0.993363 0.0816155 4.53098e-18)
(0.993072 0.0790598 -3.23241e-18)
(0.994366 0.0755292 3.80809e-18)
(0.99129 0.0700585 4.09769e-18)
(0.996016 0.0903086 -8.83622e-21)
(0.996021 0.090309 -3.38015e-20)
(0.996018 0.0903054 3.1095e-20)
(0.996011 0.0902995 1.45664e-19)
(0.995999 0.0902951 -1.58127e-19)
(0.995982 0.0902878 -2.00225e-20)
(0.995961 0.0902807 9.32115e-20)
(0.995935 0.0902689 -2.26708e-19)
(0.995904 0.0902561 -1.68406e-19)
(0.995868 0.0902348 4.7258e-19)
(0.995827 0.0902102 -2.68773e-19)
(0.995779 0.0901766 3.55971e-19)
(0.995724 0.0901386 -2.02782e-19)
(0.995661 0.0900898 2.48234e-19)
(0.995587 0.090026 -4.55846e-20)
(0.995499 0.0899388 -4.41801e-20)
(0.995398 0.0898213 1.57829e-19)
(0.99528 0.0896666 -3.88133e-19)
(0.995141 0.089463 -1.10563e-18)
(0.994977 0.0891901 4.3545e-19)
(0.994781 0.0888188 -7.43143e-19)
(0.994548 0.0883072 -6.22599e-19)
(0.994273 0.0875951 -1.47203e-19)
(0.993956 0.0866079 7.54358e-18)
(0.99362 0.0852254 -3.00134e-18)
(0.993298 0.0834182 -7.73291e-18)
(0.993185 0.0810352 -4.67005e-18)
(0.992849 0.0781658 1.44692e-18)
(0.994195 0.0743451 -1.98437e-17)
(0.992458 0.0685565 -3.60898e-18)
(0.99587 0.09105 1.84356e-20)
(0.99588 0.0910441 2.26691e-21)
(0.995883 0.0910343 -4.81068e-20)
(0.995879 0.0910195 -1.80562e-20)
(0.99587 0.0910048 -6.03415e-21)
(0.995854 0.0909861 3.04405e-19)
(0.995832 0.0909665 -1.54645e-19)
(0.995803 0.0909422 -8.421e-21)
(0.995768 0.0909164 -5.56275e-21)
(0.995725 0.090882 -2.58421e-20)
(0.995676 0.0908434 -1.48718e-19)
(0.995617 0.0907945 1.21125e-19)
(0.995548 0.0907389 5.7418e-19)
(0.995467 0.0906677 5.0627e-20)
(0.995375 0.0905778 -1.0648e-19)
(0.995269 0.0904586 -4.14043e-19)
(0.99515 0.0903038 4.77974e-19)
(0.995014 0.0901042 -2.80691e-19)
(0.994859 0.0898467 6.2112e-19)
(0.99468 0.0895121 -9.46699e-20)
(0.994478 0.0890704 1.30055e-18)
(0.994251 0.0884804 -2.62976e-19)
(0.994001 0.0876858 -1.4505e-18)
(0.993727 0.0866194 -7.85965e-18)
(0.993453 0.0851605 -3.40964e-18)
(0.993194 0.0832827 7.48556e-18)
(0.993163 0.080837 1.07401e-18)
(0.992827 0.0778459 7.74539e-18)
(0.994103 0.0738667 2.47677e-17)
(0.993883 0.068547 9.18514e-18)
(0.995679 0.0918362 -1.32644e-21)
(0.99569 0.0918235 -2.79579e-20)
(0.995694 0.0918032 -9.44033e-21)
(0.995693 0.0917771 2.60569e-20)
(0.995686 0.0917478 -5.14444e-20)
(0.995671 0.0917141 -5.10449e-20)
(0.99565 0.0916785 8.99096e-20)
(0.99562 0.0916383 1.94589e-19)
(0.995582 0.0915967 -1.84022e-19)
(0.995534 0.0915463 2.2376e-19)
(0.995478 0.0914911 -4.56754e-19)
(0.99541 0.0914243 1.16108e-19)
(0.995328 0.0913482 -2.18066e-19)
(0.995231 0.0912528 3.88298e-19)
(0.995121 0.091134 -1.23795e-19)
(0.994999 0.0909818 -8.0663e-20)
(0.994861 0.0907883 2.77877e-19)
(0.994708 0.0905423 -5.61228e-19)
(0.994536 0.0902306 5.00018e-19)
(0.994345 0.0898321 1.62972e-19)
(0.99414 0.0893182 -1.18e-18)
(0.993928 0.0886502 -5.13302e-19)
(0.99372 0.087781 1.34458e-18)
(0.993521 0.0866604 2.14779e-18)
(0.993358 0.0851833 2.36731e-18)
(0.993226 0.0833401 -6.56041e-19)
(0.993334 0.0810022 4.59598e-18)
(0.993067 0.0781332 -6.73e-18)
(0.99422 0.0742764 -1.72927e-17)
(0.995095 0.0694068 -2.03154e-18)
(0.995458 0.0925618 -6.99432e-21)
(0.995462 0.0925551 2.48443e-20)
(0.995463 0.0925408 3.16171e-20)
(0.99546 0.0925177 -2.96873e-20)
(0.995452 0.0924876 -7.97374e-20)
(0.995438 0.0924482 6.37601e-24)
(0.995416 0.0924032 2.2398e-19)
(0.995385 0.0923503 -3.25766e-19)
(0.995345 0.0922933 2.03521e-19)
(0.995294 0.0922261 3.07751e-19)
(0.995233 0.0921523 -4.57004e-19)
(0.995158 0.092066 -7.10878e-20)
(0.995065 0.0919679 -7.80787e-20)
(0.994952 0.0918468 9.98073e-20)
(0.994824 0.0916985 -4.4551e-19)
(0.994681 0.091512 4.67118e-19)
(0.994522 0.091279 1.03344e-19)
(0.994345 0.0909854 -4.19616e-19)
(0.994148 0.0906151 6.64967e-20)
(0.993934 0.0901468 1.70698e-19)
(0.993711 0.0895503 8.25209e-19)
(0.993496 0.0887893 -9.40473e-19)
(0.993309 0.087824 1.36135e-18)
(0.993164 0.0866234 3.81458e-18)
(0.993098 0.0851026 -9.47437e-19)
(0.99309 0.0832746 -8.07998e-18)
(0.993344 0.0810395 -4.41725e-18)
(0.993194 0.078305 2.68718e-18)
(0.994248 0.0745948 1.23007e-18)
(0.995499 0.0694349 6.17768e-18)
(0.995221 0.0932629 1.3954e-20)
(0.995214 0.0932607 -8.65055e-21)
(0.995206 0.0932482 3.75084e-20)
(0.995197 0.0932281 6.52275e-21)
(0.995184 0.0931986 6.97869e-20)
(0.995167 0.093158 -1.80564e-19)
(0.995142 0.0931091 1.40702e-19)
(0.995109 0.0930498 4.67625e-20)
(0.995066 0.0929838 -1.85474e-19)
(0.995012 0.0929049 2.15394e-20)
(0.994945 0.092817 3.9107e-19)
(0.994863 0.0927142 -3.55807e-19)
(0.994759 0.092596 2.58778e-19)
(0.99463 0.0924515 -1.56365e-19)
(0.994481 0.0922755 -5.00431e-20)
(0.994313 0.0920567 2.55941e-19)
(0.994125 0.0917846 4.30637e-19)
(0.993915 0.0914431 5.39731e-19)
(0.99368 0.0910138 -3.50991e-19)
(0.993423 0.0904707 -8.53104e-19)
(0.993154 0.0897811 -1.12826e-18)
(0.992899 0.0889069 -1.06081e-18)
(0.992683 0.0878105 -6.10538e-19)
(0.992534 0.0864734 2.18894e-18)
(0.992503 0.0848261 1.19247e-18)
(0.992568 0.0829003 1.70386e-18)
(0.992932 0.0806291 2.12659e-18)
(0.992932 0.0778705 -4.84729e-18)
(0.993977 0.0741516 4.98514e-18)
(0.995185 0.0682298 -2.18434e-18)
(0.994982 0.0938777 -2.50115e-20)
(0.994961 0.0938879 5.29518e-20)
(0.994942 0.0938905 -1.97236e-20)
(0.994923 0.0938851 -6.82889e-21)
(0.994901 0.0938691 5.32754e-20)
(0.994876 0.0938381 -1.38906e-19)
(0.994845 0.0937952 1.4587e-19)
(0.994806 0.0937375 1.24541e-19)
(0.994757 0.0936686 -1.82661e-19)
(0.994697 0.0935834 7.5724e-20)
(0.994622 0.0934855 2.6954e-19)
(0.99453 0.0933703 -4.59331e-19)
(0.994413 0.0932358 -1.0481e-19)
(0.994265 0.0930713 1.06082e-19)
(0.994092 0.0928718 6.54535e-20)
(0.993896 0.0926237 4.79757e-20)
(0.993672 0.0923169 -2.79867e-19)
(0.993419 0.0919313 -5.70657e-19)
(0.993134 0.0914442 5.27644e-19)
(0.992817 0.0908269 1.09318e-19)
(0.99248 0.0900406 2.25311e-18)
(0.99215 0.0890414 -5.03853e-19)
(0.991862 0.0877888 -6.42558e-19)
(0.991651 0.0862662 -4.94653e-18)
(0.991589 0.0844133 -5.14919e-19)
(0.99167 0.0822699 7.68683e-19)
(0.992104 0.0798083 -4.26247e-18)
(0.992283 0.0768536 8.60799e-18)
(0.993449 0.0729732 1.19719e-17)
(0.994592 0.0663608 -7.82502e-18)
(0.994739 0.0945129 -1.74789e-20)
(0.99471 0.0945254 1.15791e-20)
(0.99468 0.094529 8.07033e-20)
(0.99465 0.0945282 -1.09607e-19)
(0.994617 0.0945184 1.41328e-19)
(0.994581 0.0944952 -2.67291e-20)
(0.99454 0.09446 -6.83258e-20)
(0.99449 0.094409 -2.145e-19)
(0.994431 0.0943445 1.16651e-19)
(0.994359 0.0942602 9.42039e-20)
(0.994272 0.0941596 -1.39618e-21)
(0.994165 0.0940378 6.52098e-20)
(0.994033 0.0938924 -4.0585e-19)
(0.993863 0.0937132 2.22947e-19)
(0.993663 0.0934945 1.13127e-19)
(0.993433 0.0932227 -2.30056e-20)
(0.993169 0.0928855 5.02506e-19)
(0.992869 0.0924605 -3.74023e-20)
(0.992528 0.0919229 -6.20482e-19)
(0.992143 0.0912375 -4.64574e-19)
(0.991727 0.0903603 -3.13227e-19)
(0.991306 0.0892393 4.66082e-19)
(0.990922 0.0878261 -5.63313e-20)
(0.990619 0.0860997 -1.18193e-18)
(0.990491 0.0840002 -5.37922e-18)
(0.990555 0.0815696 -1.02581e-18)
(0.991037 0.0788213 1.10367e-17)
(0.991418 0.0755752 -8.38694e-18)
(0.992825 0.0714685 8.29271e-18)
(0.994155 0.0645266 -1.01658e-17)
(0.994484 0.095131 1.09075e-20)
(0.994453 0.0951475 -2.78e-20)
(0.994418 0.0951622 -1.38615e-20)
(0.994379 0.0951725 1.23156e-19)
(0.994335 0.0951756 -4.25482e-20)
(0.994286 0.0951642 -1.79386e-19)
(0.994231 0.0951397 1.26691e-19)
(0.994168 0.0950973 -2.73954e-19)
(0.994093 0.0950383 5.67743e-20)
(0.994006 0.0949568 6.68881e-20)
(0.993901 0.094855 9.16251e-20)
(0.993775 0.0947294 -3.46933e-19)
(0.993622 0.0945763 6.8911e-19)
(0.993427 0.0943855 -1.92286e-19)
(0.993196 0.0941517 -8.15365e-19)
(0.992931 0.0938597 5.65504e-19)
(0.992625 0.0934975 -1.29095e-19)
(0.992277 0.0930393 -4.80745e-19)
(0.991879 0.0924569 -3.62477e-19)
(0.99143 0.0917129 1.96712e-19)
(0.990937 0.0907563 -1.68753e-19)
(0.990428 0.0895274 -1.46243e-19)
(0.98995 0.0879674 3.36807e-18)
(0.989553 0.0860478 3.34966e-18)
(0.989355 0.0837026 -2.36523e-19)
(0.989399 0.0809725 -2.95211e-18)
(0.989928 0.0779106 -2.79102e-18)
(0.990528 0.0743593 2.8785e-18)
(0.99226 0.0700388 -3.96293e-18)
(0.994056 0.063121 7.43215e-18)
(0.994184 0.0958826 -9.96583e-21)
(0.994164 0.09589 -6.70296e-21)
(0.994131 0.0958929 1.5824e-20)
(0.99409 0.0958949 -3.86413e-20)
(0.99404 0.0958927 2.00935e-20)
(0.993981 0.0958802 7.33835e-20)
(0.993913 0.0958573 5.35255e-20)
(0.993834 0.0958188 -8.81048e-20)
(0.993743 0.0957638 1.97667e-19)
(0.993636 0.0956853 -2.74624e-19)
(0.99351 0.0955841 2.51149e-19)
(0.993361 0.0954564 -3.76221e-19)
(0.993183 0.0952972 2.76132e-19)
(0.99296 0.0950975 -4.39116e-19)
(0.992697 0.0948503 5.78054e-19)
(0.992394 0.0945413 2.30673e-19)
(0.992048 0.0941559 -9.76202e-19)
(0.991654 0.093668 1.01292e-18)
(0.991205 0.0930485 -3.16493e-19)
(0.990698 0.0922546 -1.14841e-18)
(0.990139 0.0912317 1.85941e-19)
(0.989557 0.0899128 6.86912e-19)
(0.989 0.088229 -1.14032e-18)
(0.988529 0.0861423 -2.53025e-18)
(0.988278 0.0835788 5.06223e-18)
(0.988322 0.0805746 5.60034e-18)
(0.988911 0.0772201 -4.51971e-18)
(0.989737 0.0733982 6.24488e-18)
(0.991835 0.0689147 -2.30753e-18)
(0.994319 0.0622432 6.37018e-18)
(0.993817 0.0966797 -6.66048e-21)
(0.993817 0.0966798 6.6584e-21)
(0.993797 0.0966835 -1.86097e-21)
(0.993762 0.0966849 1.07217e-20)
(0.993712 0.0966833 -7.08463e-20)
(0.993648 0.0966706 4.61297e-20)
(0.993571 0.0966473 -1.21781e-19)
(0.993479 0.096608 2.27443e-19)
(0.993371 0.0965513 -1.92477e-19)
(0.993244 0.0964707 4.98636e-20)
(0.993096 0.0963657 2.58726e-19)
(0.992921 0.0962332 2.75131e-20)
(0.992717 0.0960666 -2.78903e-20)
(0.992464 0.0958571 -3.13605e-19)
(0.992166 0.0955966 1.09361e-19)
(0.991828 0.095269 -3.55169e-19)
(0.991442 0.094862 7.26457e-19)
(0.991005 0.0943468 3.40436e-19)
(0.990512 0.0936919 -2.05505e-19)
(0.989955 0.0928544 8.1566e-19)
(0.989345 0.0917751 1.40672e-18)
(0.988706 0.0903808 -1.68477e-18)
(0.988093 0.0885953 -3.87947e-18)
(0.987573 0.0863697 6.96476e-19)
(0.987297 0.0836228 -1.48434e-18)
(0.987366 0.080383 -1.26563e-18)
(0.988035 0.0767755 5.9625e-18)
(0.98909 0.0727305 -3.44315e-18)
(0.991566 0.0681351 -3.54542e-19)
(0.994825 0.0617837 5.43288e-18)
(0.993363 0.0976515 7.88292e-21)
(0.993392 0.0976336 1.66699e-20)
(0.993393 0.0976154 -7.02607e-22)
(0.993372 0.0975968 1.63595e-20)
(0.993331 0.0975771 -1.13347e-19)
(0.99327 0.0975501 8.86637e-20)
(0.993189 0.0975156 1.54118e-19)
(0.993088 0.0974681 -1.78425e-19)
(0.992967 0.0974051 -2.79824e-20)
(0.992822 0.097319 -9.02594e-20)
(0.992652 0.0972075 3.57839e-19)
(0.992452 0.0970675 -1.26171e-19)
(0.99222 0.0968906 -1.57727e-19)
(0.991936 0.0966697 -6.06816e-20)
(0.991605 0.0963929 2.84562e-19)
(0.991231 0.0960458 1.05669e-19)
(0.990807 0.0956145 -2.10155e-19)
(0.990332 0.0950701 -1.04747e-20)
(0.989799 0.0943818 -2.92302e-19)
(0.989201 0.0935023 -5.25831e-19)
(0.98855 0.0923714 -1.1746e-18)
(0.98787 0.0909107 2.05576e-18)
(0.987221 0.0890378 1.9195e-18)
(0.986675 0.0866942 2.9939e-20)
(0.986401 0.0837917 3.06319e-18)
(0.986522 0.080351 -1.57947e-18)
(0.987291 0.0765267 -3.42593e-18)
(0.988576 0.0723 -3.22135e-18)
(0.991426 0.0676266 -1.78721e-17)
(0.995461 0.0615796 -9.11686e-18)
(0.992816 0.0986543 -2.88189e-21)
(0.992878 0.0986251 8.56151e-21)
(0.992905 0.0986055 1.43087e-22)
(0.992906 0.0985827 -8.90811e-20)
(0.992879 0.0985575 -6.57087e-22)
(0.992826 0.0985222 9.75916e-20)
(0.992748 0.0984774 -1.22401e-19)
(0.992644 0.0984186 1.84725e-19)
(0.992514 0.098343 7.77511e-20)
(0.992356 0.0982443 4.36368e-21)
(0.992168 0.0981191 -2.99851e-19)
(0.991946 0.0979658 1.56203e-19)
(0.991689 0.0977736 4.2316e-19)
(0.991374 0.097537 -3.36264e-19)
(0.99101 0.0972405 2.35816e-19)
(0.990602 0.0968693 -2.45629e-19)
(0.990143 0.0964115 1.80106e-19)
(0.989632 0.0958355 -1.68011e-19)
(0.989062 0.0951089 7.22507e-19)
(0.988429 0.0941856 2.9847e-19)
(0.987743 0.0930016 1.30002e-18)
(0.987034 0.091476 -9.71602e-19)
(0.986361 0.0895198 -2.73992e-18)
(0.985807 0.0870679 8.41856e-19)
(0.985554 0.0840237 -4.86449e-18)
(0.98575 0.0804037 5.94785e-18)
(0.986638 0.0763845 -4.34977e-18)
(0.988155 0.0720012 1.17573e-17)
(0.99137 0.0672616 4.56724e-18)
(0.996096 0.0614492 -2.83987e-18)
(0.992166 0.0998346 5.85576e-21)
(0.992263 0.0997856 3.48421e-21)
(0.99232 0.0997394 -4.39947e-20)
(0.992346 0.0996914 1.18511e-20)
(0.99234 0.0996413 9.29664e-21)
(0.992302 0.099584 4.19166e-21)
(0.992234 0.0995192 -2.21032e-20)
(0.992133 0.0994428 2.02052e-19)
(0.992001 0.0993506 -3.00855e-19)
(0.991835 0.0992361 2.52045e-19)
(0.991634 0.0990944 -2.25771e-20)
(0.991394 0.0989243 -1.61572e-19)
(0.991115 0.0987125 1.99142e-19)
(0.990773 0.0984571 -3.24632e-19)
(0.990378 0.0981367 1.11501e-19)
(0.989936 0.0977384 -2.26703e-19)
(0.989444 0.097248 5.39752e-19)
(0.988899 0.0966352 4.97459e-19)
(0.988294 0.0958676 7.32787e-19)
(0.987629 0.0948948 -3.51316e-19)
(0.986911 0.0936524 -1.37444e-18)
(0.986176 0.0920563 -3.37651e-19)
(0.985487 0.0900125 9.8015e-19)
(0.984934 0.0874495 2.36947e-18)
(0.984715 0.0842641 2.10713e-18)
(0.985001 0.08047 -1.18174e-17)
(0.986025 0.0762635 2.86877e-18)
(0.987781 0.0717321 -1.3304e-17)
(0.991355 0.0669264 1.11661e-17)
(0.996681 0.0612735 4.25644e-18)
(0.991424 0.101 2.25435e-21)
(0.991551 0.10094 -2.43448e-20)
(0.991638 0.100893 -1.56502e-20)
(0.991691 0.10084 4.32449e-20)
(0.991709 0.100783 -7.97609e-20)
(0.991691 0.100713 5.18191e-20)
(0.991637 0.100634 -1.01252e-19)
(0.991545 0.100539 -4.60653e-20)
(0.991417 0.100427 2.36328e-20)
(0.99125 0.100293 8.98924e-20)
(0.991042 0.100129 -2.05894e-21)
(0.99079 0.0999383 9.94177e-20)
(0.990495 0.0997027 7.55804e-20)
(0.990128 0.0994242 3.76485e-19)
(0.989703 0.0990766 -6.54498e-20)
(0.989231 0.0986455 1.46487e-19)
(0.988707 0.0981195 -8.04738e-19)
(0.988127 0.0974657 -3.07461e-19)
(0.987489 0.0966489 -9.09231e-19)
(0.986789 0.0956195 3.84779e-19)
(0.986041 0.0943101 1.08478e-18)
(0.985279 0.0926328 2.26546e-19)
(0.984575 0.0904903 5.56427e-19)
(0.984027 0.087804 2.85779e-19)
(0.98385 0.0844666 2.76841e-18)
(0.984236 0.0804901 5.98354e-18)
(0.985412 0.0760918 -5.00855e-18)
(0.987415 0.0714074 -1.43197e-18)
(0.991351 0.0665275 1.7663e-18)
(0.997155 0.0609632 9.06681e-19)
(0.9906 0.102295 2.26226e-21)
(0.990755 0.102216 -2.88255e-20)
(0.99087 0.102142 5.08566e-20)
(0.99095 0.102064 -7.53782e-20)
(0.990992 0.101982 9.93748e-20)
(0.990995 0.101891 8.67059e-20)
(0.990959 0.10179 -9.91063e-20)
(0.990881 0.101677 4.98458e-20)
(0.990761 0.101546 -2.07246e-19)
(0.990597 0.101392 5.79372e-20)
(0.990387 0.101208 -4.35942e-20)
(0.990129 0.100995 -3.23454e-19)
(0.989822 0.100734 7.15361e-20)
(0.989434 0.10043 4.25286e-19)
(0.988982 0.100052 -1.08232e-19)
(0.988481 0.0995859 8.71431e-20)
(0.987926 0.0990189 -2.87368e-19)
(0.987313 0.0983181 5.5279e-19)
(0.986639 0.0974484 -2.17902e-19)
(0.985902 0.096354 -1.30582e-18)
(0.985121 0.0949673 -1.90132e-19)
(0.98433 0.0931961 2.583e-19)
(0.983608 0.0909393 -4.25986e-19)
(0.983065 0.0881119 -2.62996e-18)
(0.982931 0.0846038 -4.05932e-18)
(0.983425 0.0804283 -1.96429e-18)
(0.984766 0.0758248 3.74041e-18)
(0.98703 0.0709774 6.56965e-18)
(0.991336 0.0660135 -1.21835e-17)
(0.997522 0.0604953 -8.85482e-19)
(0.989718 0.103507 1.12076e-20)
(0.989893 0.103422 -2.94811e-21)
(0.99003 0.103353 4.3956e-20)
(0.990132 0.103278 -1.10555e-20)
(0.990196 0.103194 -6.01814e-20)
(0.99022 0.103095 4.86736e-20)
(0.990202 0.102983 6.50184e-20)
(0.990139 0.102854 -1.22865e-19)
(0.990031 0.102704 2.55744e-19)
(0.989874 0.102529 1.04335e-19)
(0.989668 0.102321 -1.75758e-19)
(0.989408 0.102084 -2.71475e-20)
(0.989094 0.101796 -3.95304e-20)
(0.988688 0.101464 -8.78248e-20)
(0.988213 0.101054 3.55964e-19)
(0.987684 0.100549 -5.59939e-20)
(0.987096 0.0999396 1.22671e-19)
(0.986449 0.0991886 -6.28894e-19)
(0.985738 0.0982575 1.05605e-18)
(0.984963 0.0970909 2.51207e-19)
(0.984143 0.0956159 -8.76997e-19)
(0.983319 0.0937375 -1.37272e-18)
(0.982575 0.0913487 1.02883e-18)
(0.982034 0.0883604 -3.96359e-18)
(0.981944 0.0846584 5.45922e-18)
(0.982551 0.0802635 2.99606e-18)
(0.98407 0.0754365 4.12258e-18)
(0.98661 0.070414 -1.57757e-18)
(0.991298 0.0653567 1.22047e-17)
(0.997758 0.0598601 -2.62257e-18)
(0.98878 0.104831 -3.02029e-21)
(0.988969 0.104731 -3.52235e-20)
(0.989123 0.104637 1.46567e-20)
(0.989244 0.104539 9.12166e-20)
(0.989328 0.104433 -1.17674e-19)
(0.989372 0.104315 5.23335e-21)
(0.989372 0.104185 -5.28469e-22)
(0.989325 0.104039 2.52427e-20)
(0.98923 0.103872 -2.24621e-20)
(0.989083 0.103679 -3.06984e-20)
(0.988883 0.103451 8.30188e-20)
(0.988625 0.103191 2.40342e-19)
(0.988308 0.102876 -2.24246e-19)
(0.987889 0.102516 2.98602e-20)
(0.987391 0.102072 -1.92079e-19)
(0.986834 0.101529 -7.67863e-20)
(0.986216 0.100873 -9.02309e-21)
(0.985534 0.100067 6.18728e-19)
(0.984782 0.0990727 -7.18151e-19)
(0.983967 0.0978265 1.83445e-18)
(0.983103 0.0962538 1.35785e-18)
(0.982241 0.0942552 -5.02678e-19)
(0.98147 0.0917176 -5.80041e-19)
(0.980927 0.0885476 5.76064e-18)
(0.980882 0.0846285 -4.47557e-18)
(0.981605 0.0799917 -2.45272e-18)
(0.983315 0.0749235 -2.24379e-18)
(0.986148 0.0697135 1.26998e-18)
(0.991231 0.0645607 -9.57413e-18)
(0.997907 0.0590833 5.64979e-18)
(0.987797 0.106036 -3.84371e-21)
(0.987994 0.105935 -3.18983e-20)
(0.988161 0.105848 -6.02085e-22)
(0.988296 0.105755 5.03617e-20)
(0.988396 0.10565 -2.94037e-20)
(0.988457 0.105528 1.10761e-19)
(0.988474 0.105388 -1.70342e-19)
(0.988443 0.10523 5.60293e-20)
(0.988362 0.105046 1.49357e-19)
(0.988227 0.104835 -3.22881e-19)
(0.988035 0.104586 1.34364e-20)
(0.987782 0.104304 -6.58457e-20)
(0.987464 0.103963 1.20662e-19)
(0.987034 0.103574 -1.4969e-20)
(0.986516 0.103098 1.73277e-19)
(0.985932 0.102514 -5.61744e-19)
(0.985283 0.101811 7.15532e-20)
(0.984564 0.10095 -3.4235e-19)
(0.983772 0.0998857 2.03821e-19)
(0.982909 0.0985546 5.35106e-20)
(0.982 0.0968764 -1.02177e-18)
(0.981094 0.0947454 -9.30633e-19)
(0.980291 0.0920441 1.92872e-18)
(0.979743 0.0886727 -3.1851e-18)
(0.979742 0.084515 7.97319e-19)
(0.980587 0.0796143 1.57601e-18)
(0.982501 0.0742891 1.10852e-18)
(0.985642 0.0688805 -6.30874e-18)
(0.991138 0.0636342 -4.17098e-18)
(0.997969 0.0581836 -3.67592e-18)
(0.986784 0.107321 6.37569e-21)
(0.986984 0.107205 -4.1794e-21)
(0.987157 0.107094 -2.98235e-20)
(0.987303 0.106982 3.86129e-20)
(0.987416 0.106858 -6.78125e-20)
(0.98749 0.106721 1.17746e-19)
(0.987521 0.106568 -1.33546e-19)
(0.987504 0.106398 7.97991e-20)
(0.987436 0.106202 -1.57326e-19)
(0.987312 0.105977 3.28022e-19)
(0.987129 0.105712 -1.58266e-19)
(0.986881 0.105411 1.58398e-19)
(0.986564 0.105045 -6.46142e-19)
(0.986126 0.104628 3.62421e-19)
(0.985588 0.10412 -1.52852e-21)
(0.984977 0.103498 1.92284e-19)
(0.984295 0.102746 -2.49267e-19)
(0.983538 0.101827 2.81241e-19)
(0.982702 0.100694 8.02296e-20)
(0.981791 0.0992732 -8.81675e-19)
(0.980831 0.097483 1.40539e-18)
(0.979877 0.0952102 4.87246e-19)
(0.979039 0.0923319 -2.9113e-18)
(0.978483 0.0887421 1.08567e-18)
(0.978527 0.084326 7.36903e-19)
(0.979498 0.0791425 -3.30855e-18)
(0.981628 0.0735461 -1.5195e-18)
(0.985095 0.067932 2.00339e-17)
(0.991018 0.0625967 -5.5217e-19)
(0.997991 0.057197 2.32672e-19)
(0.985751 0.108454 -3.16337e-21)
(0.985949 0.10834 9.76352e-21)
(0.986125 0.108243 -1.30149e-20)
(0.986277 0.10814 -1.34263e-21)
(0.986397 0.108022 1.44754e-20)
(0.98648 0.107886 5.03156e-21)
(0.986522 0.107729 1.65329e-20)
(0.986515 0.107552 -1.2189e-19)
(0.986458 0.107344 2.57317e-19)
(0.986343 0.107106 -8.13645e-20)
(0.986169 0.106824 2.61402e-20)
(0.985926 0.106504 1.62083e-21)
(0.98561 0.106115 -1.17272e-19)
(0.985165 0.105671 -2.53259e-20)
(0.984607 0.105133 5.92062e-19)
(0.983968 0.104471 6.35591e-20)
(0.983252 0.103673 4.15263e-19)
(0.982455 0.102697 1.93066e-19)
(0.981573 0.101489 -9.03527e-19)
(0.980611 0.0999774 5.83254e-19)
(0.979596 0.0980696 -5.14111e-19)
(0.978591 0.0956481 1.95991e-18)
(0.977712 0.0925811 2.7895e-18)
(0.977148 0.088759 2.14564e-18)
(0.977238 0.0840668 3.32581e-18)
(0.978342 0.0785845 2.47036e-18)
(0.980701 0.0727046 -1.63251e-18)
(0.984512 0.0668819 -2.32955e-18)
(0.990876 0.0614633 2.05986e-19)
(0.997965 0.0561427 3.79357e-18)
(0.984694 0.109678 -7.6398e-22)
(0.984887 0.109552 1.90641e-20)
(0.985063 0.109432 -6.64092e-20)
(0.985216 0.10931 1.43791e-20)
(0.98534 0.109175 -5.0491e-20)
(0.985431 0.109025 9.85164e-20)
(0.985479 0.108858 -2.76257e-20)
(0.985481 0.108672 5.2783e-20)
(0.985433 0.108455 -4.33984e-20)
(0.985326 0.108207 -1.45134e-19)
(0.985158 0.107911 2.29789e-19)
(0.98492 0.107575 -2.35744e-19)
(0.984604 0.107165 4.29601e-19)
(0.984152 0.106696 -2.10092e-19)
(0.983575 0.106128 -1.83625e-19)
(0.982906 0.105429 -6.49003e-19)
(0.982155 0.104583 -4.9756e-19)
(0.981316 0.103549 3.10282e-19)
(0.980385 0.102271 2.26411e-19)
(0.979369 0.100666 -5.15549e-19)
(0.978296 0.0986378 -4.43142e-19)
(0.977235 0.0960617 -2.41709e-19)
(0.976314 0.0927971 -1.55468e-18)
(0.975739 0.0887301 -1.40499e-18)
(0.975878 0.083747 -4.69997e-18)
(0.977123 0.0779516 5.68827e-19)
(0.979723 0.0717794 -5.24222e-19)
(0.983894 0.0657461 -2.28925e-17)
(0.990714 0.0602549 1.00936e-17)
(0.997931 0.0550452 5.37187e-18)
(0.983609 0.110754 6.06859e-21)
(0.983796 0.110632 6.77636e-21)
(0.983969 0.110525 -1.7932e-20)
(0.984122 0.110412 1.14213e-19)
(0.984249 0.110282 -1.76035e-19)
(0.984343 0.110133 1.08729e-19)
(0.984398 0.109961 6.3202e-20)
(0.984406 0.109769 -1.8475e-19)
(0.984364 0.109542 1.8268e-19)
(0.984263 0.109283 -3.15774e-19)
(0.984101 0.108973 3.91681e-19)
(0.983866 0.108621 1.57763e-20)
(0.983549 0.108191 -3.56423e-19)
(0.983089 0.107698 8.21774e-20)
(0.982491 0.107102 4.07878e-20)
(0.981791 0.106365 8.88604e-20)
(0.981003 0.105475 4.18413e-19)
(0.98012 0.104385 -5.89735e-19)
(0.979139 0.103034 9.13345e-19)
(0.978065 0.101335 1.52474e-20)
(0.976931 0.0991847 7.83898e-19)
(0.975811 0.0964489 -2.19913e-18)
(0.974844 0.0929799 1.19389e-19)
(0.974258 0.0886568 -2.04066e-19)
(0.974449 0.0833705 5.83654e-19)
(0.975841 0.0772491 3.05976e-18)
(0.978699 0.0707783 -5.48103e-19)
(0.983247 0.0645338 1.10943e-17)
(0.990539 0.0589824 -7.75627e-18)
(0.997873 0.0539145 -3.91907e-18)
(0.982501 0.111909 2.05603e-21)
(0.982682 0.111772 -6.02032e-21)
(0.982851 0.111641 -5.7904e-20)
(0.983002 0.11151 7.90101e-20)
(0.983129 0.111364 -1.96403e-20)
(0.983225 0.111203 -6.05978e-21)
(0.983283 0.111023 -4.10202e-20)
(0.983295 0.110823 6.42776e-20)
(0.983257 0.11059 -1.26032e-19)
(0.983159 0.110323 -5.04197e-20)
(0.982999 0.110003 1.04966e-19)
(0.982766 0.109638 -1.93602e-19)
(0.982446 0.109189 -1.10575e-19)
(0.981977 0.108673 1.09928e-19)
(0.981356 0.10805 -1.66956e-19)
(0.980624 0.107279 -1.36176e-19)
(0.979797 0.106343 6.68943e-19)
(0.978868 0.105198 -2.38012e-19)
(0.977834 0.103778 7.43167e-20)
(0.976698 0.101985 -3.5614e-19)
(0.9755 0.0997119 -4.4121e-20)
(0.974317 0.0968134 1.74628e-18)
(0.973303 0.0931335 2.80492e-19)
(0.972704 0.0885447 -3.43632e-19)
(0.972953 0.0829433 1.39285e-18)
(0.974501 0.0764849 -2.47608e-18)
(0.97763 0.06971 2.83216e-18)
(0.982573 0.0632568 -1.78665e-17)
(0.990351 0.0576562 5.8225e-18)
(0.997827 0.0527673 -9.36053e-18)
(0.981375 0.112909 3.10385e-21)
(0.981548 0.112778 -1.00308e-20)
(0.981711 0.112662 4.30902e-20)
(0.981858 0.112541 6.19095e-21)
(0.981983 0.112402 -9.32914e-20)
(0.982079 0.112242 2.24545e-20)
(0.982137 0.112059 2.08408e-20)
(0.982149 0.111854 2.96874e-20)
(0.982113 0.111613 1.49013e-20)
(0.982016 0.111337 -1.69337e-20)
(0.981856 0.111005 -1.68081e-19)
(0.981621 0.110626 3.67282e-21)
(0.981295 0.11016 2.50627e-19)
(0.980817 0.109621 4.86126e-20)
(0.980172 0.108971 2.53921e-19)
(0.979405 0.108165 1.84936e-19)
(0.978537 0.107188 -2.77492e-19)
(0.977563 0.105989 6.34396e-20)
(0.97647 0.104499 -8.72193e-19)
(0.975271 0.102614 -6.72021e-19)
(0.974003 0.100217 -9.5351e-19)
(0.972754 0.0971533 -2.53577e-18)
(0.971689 0.0932561 -4.03907e-19)
(0.971079 0.0883933 1.99557e-18)
(0.971388 0.0824651 -3.4332e-18)
(0.973104 0.0756601 -1.68003e-19)
(0.97652 0.0685758 -2.40005e-19)
(0.981878 0.0619185 1.24569e-17)
(0.990158 0.0562799 -3.41943e-18)
(0.997774 0.0516057 1.86378e-18)
(0.980218 0.114013 -6.63465e-21)
(0.980383 0.113864 -3.15812e-21)
(0.98054 0.113724 4.09661e-20)
(0.980683 0.113585 -1.49887e-20)
(0.980805 0.113428 -1.25117e-20)
(0.980899 0.113255 3.34866e-20)
(0.980956 0.113063 -2.14739e-20)
(0.980968 0.11285 7.78056e-20)
(0.98093 0.112603 -1.0462e-19)
(0.980832 0.112319 -1.04054e-19)
(0.98067 0.111977 -1.2314e-20)
(0.98043 0.111586 1.51224e-19)
(0.980096 0.111102 -9.13892e-20)
(0.979607 0.110541 2.66805e-19)
(0.978937 0.109865 -3.56518e-19)
(0.978136 0.109025 -1.72412e-19)
(0.97723 0.108004 4.47595e-19)
(0.976203 0.106756 -1.08885e-19)
(0.975049 0.105202 2.91632e-19)
(0.973781 0.103226 3.35689e-19)
(0.972439 0.100703 3.14639e-19)
(0.97112 0.097472 2.30705e-18)
(0.970001 0.0933514 5.62869e-19)
(0.96938 0.0882052 -4.84064e-19)
(0.969755 0.0819389 1.58038e-18)
(0.971651 0.0747774 -6.24565e-19)
(0.975372 0.0673801 4.57763e-18)
(0.981165 0.0605224 8.29804e-18)
(0.989963 0.0548605 5.43533e-18)
(0.99775 0.0504335 5.0119e-18)
(0.979019 0.114982 -2.21414e-20)
(0.979177 0.114839 2.31914e-20)
(0.979329 0.114711 -2.98654e-20)
(0.979469 0.114578 1.05383e-20)
(0.979588 0.114424 -5.9492e-21)
(0.97968 0.114249 -8.23264e-20)
(0.979735 0.114051 6.72577e-22)
(0.979745 0.113831 2.79141e-19)
(0.979706 0.113573 -8.62391e-20)
(0.979605 0.11328 1.01051e-19)
(0.979439 0.112926 -2.15558e-19)
(0.979192 0.112521 3.80851e-19)
(0.978849 0.112017 1.16656e-19)
(0.978347 0.111432 1.24823e-19)
(0.977654 0.110729 -1.88018e-19)
(0.97682 0.109852 4.17487e-19)
(0.975867 0.108797 -5.26253e-19)
(0.974785 0.107505 -4.22331e-19)
(0.973566 0.105883 6.39789e-19)
(0.972224 0.103817 6.11167e-19)