/*--------------------------------*- C++ -*----------------------------------*\
  =========                 |
  \\      /  F ield         | OpenFOAM: The Open Source CFD Toolbox
   \\    /   O peration     | Website:  https://openfoam.org
    \\  /    A nd           | Version:  6.0
     \\/     M anipulation  |
\*---------------------------------------------------------------------------*/
FoamFile
{
    version     2.0;
    format      ascii;
    class       volScalarField;
    location    "2";
    object      p;
}
// * * * * * * * * * * * * * * * * * * * * * * * * * * * * * * * * * * * * * //

dimensions      [0 2 -2 0 0 0 0];

internalField   nonuniform List<scalar> 
62000
(
0.0801813
0.0801915
0.0802032
0.0802163
0.0802307
0.0802462
0.0802624
0.0802794
0.0802964
0.0803135
0.0803296
0.0803448
0.0803576
0.080368
0.080374
0.0803753
0.0803693
0.0803555
0.08033
0.0802919
0.0802361
0.0801607
0.080059
0.0799279
0.0797583
0.0795453
0.0792772
0.078946
0.0785365
0.0780367
0.0774264
0.0766884
0.0757989
0.074738
0.073482
0.072002
0.0702658
0.0682421
0.0659022
0.0632222
0.0601863
0.0567909
0.0530491
0.0489943
0.0446842
0.0401987
0.0356394
0.0311195
0.0267535
0.0226517
0.0188893
0.0155376
0.0125955
0.0101012
0.00800784
0.00631355
0.00493857
0.00385699
0.00300046
0.00250037
0.0802912
0.0803016
0.0803135
0.080327
0.0803418
0.0803579
0.080375
0.0803931
0.0804118
0.0804309
0.0804497
0.0804682
0.0804851
0.0805006
0.0805127
0.0805217
0.0805248
0.0805221
0.08051
0.0804879
0.0804513
0.0803985
0.080324
0.0802246
0.080093
0.0799241
0.0797085
0.079438
0.0791003
0.078683
0.0781699
0.0775424
0.076781
0.0758667
0.0747772
0.0734852
0.0719592
0.0701677
0.0680809
0.0656724
0.0629221
0.0598196
0.056369
0.0525929
0.048536
0.0442647
0.0398679
0.0354478
0.0311124
0.0269695
0.0230968
0.0195743
0.0164039
0.0136451
0.0112607
0.00926939
0.00759244
0.00622065
0.00508268
0.00434565
0.0805189
0.0805297
0.0805421
0.0805561
0.0805715
0.0805884
0.0806065
0.0806257
0.0806457
0.0806664
0.0806872
0.080708
0.0807279
0.0807469
0.0807634
0.0807775
0.0807869
0.0807916
0.0807883
0.0807766
0.0807523
0.0807142
0.080657
0.080578
0.0804706
0.0803302
0.0801482
0.079917
0.0796258
0.0792627
0.0788129
0.0782591
0.0775831
0.0767672
0.0757913
0.0746288
0.0732494
0.0716224
0.069718
0.0675086
0.0649716
0.0620927
0.0588699
0.0553176
0.0514709
0.0473852
0.0431382
0.0388222
0.0345376
0.0303887
0.026453
0.0228154
0.0194828
0.0165295
0.0139256
0.0117059
0.00979548
0.0082005
0.00685687
0.00597937
0.0808613
0.0808722
0.0808846
0.0808987
0.0809143
0.0809315
0.08095
0.0809699
0.0809909
0.0810129
0.0810352
0.081058
0.0810801
0.081102
0.0811217
0.0811397
0.0811537
0.0811638
0.081167
0.0811631
0.081148
0.0811208
0.0810765
0.0810127
0.0809232
0.0808039
0.0806469
0.0804451
0.0801886
0.079866
0.0794641
0.078966
0.0783549
0.077615
0.0767264
0.0756643
0.0743996
0.0729024
0.0711432
0.0690941
0.0667312
0.0640373
0.0610059
0.0576454
0.0539827
0.0500641
0.0459576
0.041746
0.0375228
0.0333868
0.0294154
0.0256949
0.0222358
0.0191224
0.0163376
0.0139249
0.0118191
0.0100387
0.00853329
0.00756334
0.0812878
0.0812993
0.0813129
0.0813283
0.0813454
0.0813643
0.0813847
0.0814066
0.0814296
0.0814537
0.0814784
0.0815036
0.0815287
0.0815534
0.0815767
0.0815984
0.0816168
0.0816318
0.0816407
0.0816432
0.0816356
0.0816171
0.081583
0.0815312
0.0814558
0.0813532
0.0812157
0.0810371
0.0808077
0.0805173
0.0801529
0.0796992
0.0791403
0.0784605
0.0776425
0.0766617
0.0754904
0.0740997
0.0724608
0.0705458
0.0683299
0.0657941
0.0629283
0.0597359
0.0562373
0.0524708
0.0484955
0.0443858
0.0402276
0.0361145
0.0321225
0.0283385
0.0247769
0.0215302
0.0185904
0.0160104
0.0137347
0.0117958
0.0101573
0.00911839
0.0818334
0.081845
0.0818585
0.0818737
0.0818907
0.0819095
0.0819299
0.0819519
0.0819753
0.0820001
0.0820256
0.0820521
0.0820783
0.0821049
0.08213
0.0821542
0.0821755
0.082194
0.0822071
0.0822146
0.0822132
0.0822018
0.0821762
0.0821344
0.0820709
0.0819821
0.0818609
0.0817014
0.0814947
0.0812308
0.080898
0.0804812
0.0799655
0.079337
0.0785779
0.0776657
0.0765734
0.0752733
0.0737372
0.0719375
0.0698491
0.0674514
0.0647318
0.0616897
0.0583398
0.0547136
0.0508623
0.0468521
0.0427623
0.0386803
0.0346806
0.0308487
0.0272017
0.023837
0.0207604
0.0180291
0.0156013
0.0135198
0.0117647
0.010668
0.0824587
0.0824709
0.082485
0.082501
0.0825188
0.0825385
0.0825597
0.0825826
0.082607
0.0826327
0.0826594
0.0826871
0.0827151
0.0827434
0.0827709
0.0827978
0.0828223
0.0828444
0.0828618
0.0828741
0.0828783
0.0828734
0.0828554
0.0828225
0.0827694
0.0826928
0.082586
0.0824433
0.0822563
0.0820159
0.0817103
0.0813259
0.0808484
0.0802638
0.0795566
0.0787043
0.0776813
0.0764609
0.0750156
0.0733181
0.0713433
0.0690695
0.0664819
0.0635765
0.0603632
0.0568671
0.0531326
0.049218
0.045196
0.041148
0.0371464
0.0332751
0.0295538
0.0260848
0.0228826
0.0200117
0.0174419
0.0152287
0.0133656
0.0122151
0.0831887
0.0832006
0.0832142
0.0832296
0.0832468
0.0832658
0.0832865
0.0833092
0.0833335
0.0833595
0.0833866
0.0834151
0.083444
0.0834737
0.0835026
0.0835315
0.0835582
0.0835832
0.083604
0.0836206
0.0836297
0.0836308
0.0836198
0.0835951
0.0835515
0.0834862
0.0833926
0.0832654
0.0830966
0.0828773
0.0825969
0.0822417
0.0817984
0.0812544
0.0805937
0.0797955
0.078835
0.0776864
0.0763229
0.0747178
0.0728458
0.0706845
0.0682174
0.0654375
0.0623505
0.0589761
0.0553521
0.0515299
0.0475755
0.0435644
0.0395669
0.0356635
0.0318762
0.0283091
0.0249898
0.0219857
0.0192811
0.0169411
0.0149738
0.0137701
0.0839717
0.0839845
0.0839996
0.0840167
0.0840359
0.0840571
0.0840802
0.084105
0.0841317
0.0841598
0.0841894
0.0842201
0.0842515
0.0842836
0.0843155
0.0843472
0.0843773
0.0844058
0.0844306
0.0844514
0.0844657
0.0844725
0.0844683
0.0844514
0.0844171
0.0843624
0.0842814
0.0841689
0.0840172
0.0838181
0.083561
0.0832334
0.0828225
0.0823154
0.0816982
0.08095
0.0800472
0.0789649
0.0776769
0.0761571
0.0743802
0.0723231
0.0699676
0.0673045
0.0643355
0.0610755
0.0575559
0.0538217
0.0499325
0.0459581
0.0419657
0.0380334
0.034185
0.0305267
0.0270946
0.0239619
0.0211253
0.0186613
0.0165904
0.0153315
0.0848766
0.0848891
0.0849034
0.0849197
0.0849379
0.084958
0.0849802
0.0850044
0.0850306
0.0850586
0.0850881
0.0851193
0.0851511
0.0851841
0.0852169
0.0852502
0.0852821
0.0853131
0.0853409
0.0853657
0.0853846
0.085397
0.0853994
0.0853903
0.085365
0.085321
0.0852522
0.085154
0.0850191
0.0848393
0.0846051
0.0843036
0.0839232
0.0834521
0.0828757
0.0821748
0.0813262
0.0803059
0.0790885
0.0776481
0.0759596
0.0739993
0.071748
0.0691938
0.0663354
0.063183
0.0597625
0.0561125
0.0522869
0.0483492
0.0443644
0.0404066
0.0365003
0.0327529
0.0292115
0.0259521
0.0229854
0.0203973
0.0182214
0.0169051
0.085841
0.0858541
0.0858693
0.0858864
0.0859056
0.0859267
0.0859497
0.0859747
0.0860016
0.0860304
0.0860608
0.0860928
0.0861261
0.0861606
0.0861956
0.0862311
0.086266
0.0863002
0.0863319
0.086361
0.086385
0.0864031
0.0864123
0.086411
0.0863947
0.0863612
0.0863047
0.0862207
0.0861022
0.0859416
0.0857293
0.0854539
0.0851034
0.0846662
0.0841294
0.0834736
0.0826766
0.0817154
0.0805649
0.0791996
0.0775948
0.075726
0.0735729
0.0711216
0.0683676
0.065317
0.0619903
0.0584204
0.0546551
0.0507522
0.0467739
0.0427906
0.0388283
0.034995
0.0313452
0.0279601
0.0248625
0.0221493
0.0198655
0.0184883
0.0869092
0.0869217
0.0869358
0.0869518
0.0869695
0.0869893
0.0870111
0.0870353
0.0870615
0.0870901
0.0871203
0.0871529
0.0871865
0.0872221
0.087258
0.0872954
0.0873321
0.0873691
0.0874039
0.0874371
0.0874659
0.0874898
0.0875057
0.0875123
0.0875053
0.0874823
0.0874382
0.0873684
0.0872663
0.0871246
0.0869346
0.0866842
0.0863629
0.0859596
0.0854609
0.0848488
0.0841016
0.0831969
0.0821102
0.0808163
0.0792906
0.0775083
0.0754478
0.0730936
0.0704382
0.0674838
0.0642462
0.0607524
0.0570449
0.0531758
0.0492044
0.0451967
0.0411791
0.0372598
0.0335023
0.0299911
0.026762
0.0239211
0.0215261
0.0200848
0.0880088
0.0880224
0.0880383
0.0880565
0.0880769
0.0880995
0.0881243
0.0881512
0.0881804
0.0882116
0.0882449
0.0882799
0.0883167
0.0883549
0.0883943
0.0884345
0.0884751
0.0885156
0.0885547
0.0885923
0.0886264
0.0886561
0.0886789
0.0886934
0.0886956
0.0886835
0.0886517
0.0885962
0.0885106
0.0883882
0.0882197
0.0879949
0.0877026
0.087332
0.086871
0.0863015
0.0856026
0.0847526
0.0837275
0.0825023
0.0810525
0.079353
0.0773809
0.0751192
0.0725576
0.0696947
0.0665416
0.06312
0.0594668
0.0556286
0.0516616
0.0476282
0.0435554
0.0395512
0.0356853
0.0320468
0.0286833
0.0257119
0.0232014
0.021692
0.0892369
0.0892498
0.0892646
0.0892815
0.0893004
0.0893214
0.0893448
0.0893707
0.0893989
0.0894298
0.0894627
0.089498
0.0895348
0.089574
0.089614
0.0896559
0.0896982
0.0897414
0.0897837
0.0898255
0.0898645
0.0899002
0.0899301
0.0899528
0.0899645
0.0899633
0.0899442
0.0899033
0.0898345
0.0897311
0.089585
0.089385
0.0891215
0.088784
0.0883599
0.0878323
0.0871806
0.0863839
0.0854182
0.084259
0.0828819
0.0812613
0.0793735
0.0771996
0.0747271
0.0719511
0.0688781
0.0655249
0.0619232
0.058114
0.0541509
0.0500914
0.0459625
0.0418718
0.0378967
0.0341292
0.0306293
0.0275236
0.0248934
0.0233126
0.090512
0.0905257
0.0905415
0.0905595
0.0905795
0.0906018
0.0906261
0.0906528
0.0906819
0.0907134
0.0907473
0.0907835
0.090822
0.0908626
0.0909051
0.0909494
0.090995
0.0910417
0.0910882
0.0911346
0.0911791
0.0912211
0.0912583
0.0912894
0.0913108
0.0913209
0.0913147
0.0912887
0.0912369
0.0911531
0.0910288
0.0908546
0.09062
0.0903147
0.0899276
0.0894413
0.088836
0.0880913
0.0871837
0.0860888
0.0847823
0.083238
0.0814312
0.0793417
0.0769545
0.0742613
0.0712645
0.0679759
0.064422
0.0606386
0.0566762
0.0525882
0.0484022
0.0442249
0.0401386
0.0362398
0.0325994
0.0293554
0.0266005
0.024944
0.0918924
0.0919052
0.0919197
0.091936
0.0919542
0.0919746
0.0919973
0.0920227
0.0920507
0.0920819
0.0921153
0.0921519
0.0921905
0.0922322
0.0922754
0.0923216
0.092369
0.0924187
0.0924685
0.0925196
0.0925693
0.0926177
0.0926623
0.0927021
0.0927336
0.0927552
0.0927623
0.0927514
0.092717
0.0926528
0.0925514
0.0924024
0.0921967
0.0919244
0.0915738
0.0911284
0.0905689
0.0898754
0.0890244
0.0879919
0.0867534
0.0852825
0.0835535
0.0815447
0.0792387
0.0766244
0.0736999
0.0704722
0.0669632
0.0632032
0.0592404
0.0551228
0.0508777
0.0466113
0.0424119
0.0383791
0.0345952
0.0312083
0.028324
0.0265883
0.0932869
0.0933012
0.0933179
0.093337
0.0933584
0.0933822
0.0934085
0.0934373
0.0934688
0.0935029
0.0935398
0.0935792
0.0936214
0.093666
0.0937131
0.0937626
0.0938142
0.0938679
0.0939225
0.0939784
0.0940341
0.094089
0.0941414
0.09419
0.0942317
0.0942652
0.0942858
0.0942905
0.0942737
0.0942298
0.0941509
0.0940282
0.0938518
0.093612
0.0932981
0.0928935
0.0923794
0.0917363
0.0909411
0.0899699
0.088798
0.0873986
0.0857451
0.0838142
0.0815864
0.0790475
0.0761917
0.0730215
0.0695536
0.0658136
0.0618465
0.0576963
0.0533905
0.0490342
0.0447189
0.0405486
0.0366163
0.0330818
0.0300626
0.0282431
0.0948139
0.0948273
0.0948427
0.09486
0.0948796
0.0949014
0.0949259
0.0949532
0.0949836
0.0950172
0.0950535
0.0950932
0.0951354
0.095181
0.0952288
0.0952802
0.0953337
0.0953906
0.0954488
0.0955096
0.095571
0.0956328
0.0956932
0.0957512
0.0958037
0.0958494
0.0958842
0.0959049
0.0959064
0.0958829
0.0958277
0.0957308
0.095584
0.0953775
0.0951002
0.0947364
0.0942674
0.0936743
0.092934
0.0920225
0.0909155
0.0895853
0.0880044
0.0861483
0.0839955
0.0815285
0.078738
0.0756217
0.0721921
0.0684695
0.0644966
0.0603122
0.0559428
0.0514933
0.0470594
0.0427483
0.0386637
0.0349765
0.0318171
0.0299102
0.0963748
0.0963891
0.0964057
0.0964244
0.0964453
0.0964686
0.0964943
0.0965226
0.0965539
0.0965884
0.0966258
0.0966666
0.0967107
0.0967582
0.0968089
0.0968631
0.0969207
0.0969816
0.0970449
0.0971111
0.0971791
0.0972482
0.0973171
0.0973849
0.0974486
0.0975071
0.0975564
0.0975937
0.0976138
0.0976117
0.0975799
0.0975103
0.0973935
0.09722
0.0969799
0.0966568
0.0962329
0.0956895
0.0950036
0.0941513
0.0931081
0.0918457
0.0903359
0.0885524
0.0864719
0.084074
0.0813455
0.0782798
0.0748847
0.0711759
0.0671932
0.0629712
0.0585364
0.0539919
0.049436
0.0449799
0.0407374
0.0368918
0.0335865
0.0315871
0.0980392
0.0980526
0.0980674
0.0980842
0.0981028
0.0981239
0.0981475
0.0981744
0.0982045
0.0982386
0.0982757
0.098317
0.0983613
0.0984103
0.0984621
0.0985187
0.0985787
0.0986435
0.098711
0.0987829
0.0988573
0.0989341
0.099012
0.09909
0.0991654
0.0992372
0.0993017
0.0993561
0.0993957
0.099415
0.0994081
0.0993653
0.0992791
0.0991397
0.0989367
0.0986548
0.0982759
0.097782
0.0971498
0.0963557
0.0953748
0.0941785
0.0927374
0.0910242
0.0890131
0.0866812
0.0840118
0.0809936
0.0776302
0.0739324
0.0699381
0.0656765
0.0611726
0.0565295
0.0518482
0.0472429
0.042838
0.0388283
0.0353713
0.0332756
0.0997007
0.0997157
0.0997333
0.0997534
0.099776
0.0998012
0.0998292
0.0998601
0.0998945
0.0999322
0.0999736
0.100018
0.100067
0.10012
0.100176
0.100237
0.100302
0.100372
0.100446
0.100524
0.100605
0.10069
0.100777
0.100866
0.100953
0.101039
0.101119
0.101191
0.101251
0.101293
0.10131
0.101296
0.101241
0.101136
0.100971
0.10073
0.100396
0.0999518
0.0993733
0.0986369
0.0977178
0.0965867
0.0952131
0.0935682
0.0916245
0.0893562
0.0867429
0.0837689
0.0804336
0.0767433
0.0727331
0.0684282
0.0638537
0.0591097
0.054299
0.0495396
0.0449659
0.0407859
0.0371706
0.0349729
0.101497
0.101511
0.101527
0.101545
0.101566
0.101589
0.101615
0.101644
0.101677
0.101715
0.101756
0.101801
0.101851
0.101905
0.101963
0.102026
0.102094
0.102168
0.102247
0.102331
0.10242
0.102513
0.102611
0.10271
0.102811
0.102911
0.103008
0.103099
0.103179
0.103244
0.103288
0.103302
0.103278
0.103208
0.103081
0.102882
0.102594
0.102199
0.101674
0.100994
0.100136
0.0990687
0.0977608
0.0961823
0.0943038
0.0920965
0.0895365
0.086604
0.0832942
0.0796086
0.0755806
0.0712304
0.0665805
0.0617314
0.0567872
0.0518689
0.047121
0.0427644
0.0389847
0.0366812
0.103316
0.103331
0.103349
0.103368
0.103391
0.103416
0.103443
0.103474
0.103509
0.103547
0.10359
0.103637
0.103689
0.103746
0.103808
0.103875
0.103949
0.104028
0.104113
0.104204
0.104301
0.104404
0.104512
0.104624
0.104738
0.104853
0.104967
0.105077
0.105179
0.105268
0.105338
0.105382
0.105391
0.105357
0.105268
0.105112
0.104869
0.104524
0.104052
0.103429
0.102631
0.101627
0.100384
0.0988706
0.0970554
0.0949071
0.0923978
0.0895039
0.0862161
0.0825317
0.0784813
0.0740817
0.0693555
0.0643989
0.0593165
0.0542335
0.0493045
0.0447641
0.0408127
0.0383971
0.105237
0.105251
0.105266
0.105284
0.105304
0.105326
0.105352
0.105381
0.105415
0.105454
0.105497
0.105545
0.105598
0.105657
0.105721
0.105792
0.105869
0.105953
0.106044
0.106143
0.106249
0.106361
0.10648
0.106605
0.106733
0.106865
0.106997
0.107127
0.107252
0.107365
0.107463
0.107537
0.107579
0.107581
0.107532
0.107418
0.107221
0.106925
0.106507
0.105941
0.105203
0.104261
0.103081
0.101631
0.0998777
0.0977862
0.0953255
0.0924677
0.0891996
0.0855137
0.0814388
0.0769876
0.0721796
0.0671106
0.0618853
0.0566321
0.0515159
0.0467848
0.042655
0.0401233
0.107139
0.107155
0.107174
0.107196
0.107221
0.107248
0.107279
0.107314
0.107353
0.107396
0.107444
0.107497
0.107556
0.10762
0.10769
0.107766
0.10785
0.107941
0.10804
0.108147
0.108262
0.108385
0.108516
0.108654
0.108797
0.108946
0.109097
0.109248
0.109395
0.109535
0.109661
0.109766
0.109842
0.10988
0.109872
0.109801
0.109651
0.109405
0.109039
0.10853
0.107852
0.106972
0.105855
0.104468
0.102775
0.100738
0.0983238
0.0954996
0.0922478
0.088557
0.0844526
0.0799461
0.0750557
0.0698715
0.064498
0.0590679
0.0537567
0.0488267
0.0445104
0.0418557
0.109179
0.109195
0.109212
0.109232
0.109254
0.109279
0.109308
0.109342
0.10938
0.109423
0.109472
0.109526
0.109586
0.109653
0.109726
0.109807
0.109895
0.109993
0.110098
0.110214
0.110339
0.110473
0.110617
0.110769
0.110929
0.111095
0.111266
0.111439
0.111611
0.111777
0.111933
0.112069
0.11218
0.112256
0.112288
0.11226
0.112157
0.111961
0.11165
0.111197
0.110578
0.109759
0.108705
0.10738
0.105745
0.103762
0.101393
0.0986001
0.0953623
0.0916642
0.0875281
0.082963
0.0779843
0.0726794
0.0671522
0.0615391
0.0560259
0.0508896
0.0463798
0.0435977
0.111232
0.111249
0.111268
0.11129
0.111314
0.111342
0.111374
0.111409
0.111449
0.111495
0.111546
0.111604
0.111668
0.111739
0.111817
0.111903
0.111999
0.112104
0.112219
0.112344
0.11248
0.112626
0.112784
0.112952
0.113128
0.113314
0.113506
0.113702
0.113898
0.114092
0.114277
0.114446
0.114592
0.114706
0.114779
0.114796
0.11474
0.114596
0.114338
0.113943
0.113383
0.112626
0.111634
0.110369
0.108793
0.106863
0.104535
0.101772
0.0985456
0.0948371
0.0906639
0.0860372
0.0809691
0.0755399
0.069853
0.0640494
0.0583256
0.0529737
0.0482613
0.0453444
0.113387
0.113402
0.113419
0.113439
0.113461
0.113486
0.113516
0.11355
0.11359
0.113637
0.113689
0.113749
0.113815
0.11389
0.113973
0.114065
0.114167
0.11428
0.114403
0.114538
0.114686
0.114846
0.115018
0.115202
0.115396
0.115602
0.115815
0.116035
0.116258
0.116479
0.116695
0.116897
0.11708
0.117232
0.117347
0.117409
0.117401
0.117308
0.117105
0.116767
0.116267
0.115572
0.114641
0.113437
0.111919
0.110039
0.107753
0.105018
0.101801
0.0980794
0.0938672
0.0891746
0.0840104
0.0784506
0.0725977
0.0665965
0.0606543
0.0550786
0.0501564
0.0471001
0.115511
0.115529
0.11555
0.115575
0.115603
0.115635
0.115672
0.115713
0.11576
0.115813
0.115873
0.115939
0.116014
0.116095
0.116186
0.116286
0.116397
0.116519
0.116653
0.116799
0.11696
0.117132
0.11732
0.117521
0.117734
0.11796
0.118196
0.11844
0.11869
0.118941
0.119187
0.119424
0.119642
0.119834
0.119992
0.120099
0.12014
0.120099
0.119952
0.119672
0.119233
0.118599
0.11773
0.116587
0.115124
0.113295
0.111049
0.10834
0.105129
0.101393
0.0971362
0.0923755
0.0871129
0.0814178
0.075392
0.0691849
0.0630144
0.0572047
0.0520625
0.0488587
0.117786
0.117803
0.117823
0.117845
0.117871
0.117901
0.117936
0.117976
0.118024
0.118078
0.118139
0.118209
0.118286
0.118373
0.118468
0.118575
0.118693
0.118824
0.118967
0.119125
0.119298
0.119486
0.119689
0.119908
0.120141
0.120388
0.120648
0.120918
0.121195
0.121475
0.121755
0.122025
0.122281
0.122513
0.122714
0.122868
0.122959
0.122971
0.122879
0.122658
0.12228
0.121708
0.120901
0.119818
0.118412
0.116633
0.114426
0.111741
0.108535
0.104781
0.100479
0.0956438
0.0902758
0.0844384
0.0782324
0.0718114
0.0654042
0.0593517
0.053982
0.050626
0.120075
0.120093
0.120115
0.12014
0.12017
0.120203
0.120241
0.120284
0.120335
0.120392
0.120458
0.120531
0.120614
0.120707
0.12081
0.120924
0.121052
0.121193
0.121348
0.121518
0.121705
0.121908
0.122128
0.122366
0.122619
0.122889
0.123172
0.123469
0.123774
0.124085
0.124397
0.124704
0.124997
0.12527
0.125515
0.125716
0.125858
0.125924
0.12589
0.125728
0.125411
0.124901
0.124157
0.123134
0.121785
0.120054
0.117885
0.115224
0.112021
0.108247
0.103894
0.0989824
0.0935052
0.0875195
0.0811254
0.0744811
0.0678262
0.0615196
0.0559114
0.0523943
0.122477
0.122494
0.122514
0.122537
0.122564
0.122595
0.122631
0.122674
0.122725
0.122785
0.122852
0.122929
0.123016
0.123114
0.123222
0.123344
0.12348
0.123631
0.123797
0.12398
0.124182
0.1244
0.124639
0.124895
0.12517
0.125463
0.125771
0.126095
0.12643
0.126772
0.127118
0.12746
0.127793
0.128107
0.128397
0.128647
0.12884
0.128961
0.128984
0.128882
0.128627
0.128181
0.127499
0.126537
0.125244
0.123562
0.121431
0.118792
0.11559
0.111794
0.107389
0.102393
0.096799
0.0906571
0.0840668
0.0771904
0.0702783
0.0637084
0.0578538
0.054171
0.124847
0.124867
0.124892
0.124921
0.124955
0.124994
0.125039
0.12509
0.125149
0.125217
0.125293
0.125378
0.125474
0.125581
0.1257
0.125831
0.125978
0.12614
0.126319
0.126515
0.126731
0.126966
0.127223
0.1275
0.127796
0.128112
0.128447
0.128798
0.129163
0.129538
0.129917
0.130297
0.13067
0.131027
0.131362
0.131661
0.131906
0.132083
0.132164
0.132123
0.131931
0.131549
0.130931
0.13003
0.128793
0.127159
0.125064
0.122446
0.119244
0.115425
0.110962
0.105882
0.100165
0.0938595
0.0870639
0.0799448
0.0727633
0.0659175
0.0598048
0.0559468
0.12739
0.127409
0.127432
0.127459
0.12749
0.127527
0.12757
0.127621
0.12768
0.127749
0.127827
0.127916
0.128016
0.128128
0.128252
0.128392
0.128547
0.12872
0.128911
0.129121
0.129353
0.129606
0.129881
0.130179
0.130498
0.130839
0.1312
0.13158
0.131976
0.132383
0.132799
0.133216
0.133629
0.13403
0.134412
0.13476
0.135059
0.135292
0.135432
0.135453
0.135325
0.135007
0.134453
0.133614
0.132433
0.130848
0.12879
0.126191
0.122988
0.119142
0.114621
0.109446
0.103598
0.0971214
0.0901118
0.0827401
0.0752793
0.068148
0.0617692
0.0577313
0.129948
0.129969
0.129994
0.130024
0.130059
0.130099
0.130145
0.130199
0.130262
0.130334
0.130417
0.130511
0.130618
0.130737
0.130871
0.13102
0.131187
0.131373
0.131577
0.131803
0.132052
0.132323
0.132619
0.132938
0.13328
0.133647
0.134035
0.134444
0.13487
0.135312
0.135763
0.136219
0.136673
0.137118
0.137547
0.137946
0.138298
0.138589
0.138789
0.138873
0.13881
0.138558
0.138069
0.137292
0.136169
0.134631
0.132609
0.130029
0.126823
0.122949
0.118364
0.113093
0.107109
0.100452
0.0932182
0.085582
0.0778285
0.0703981
0.0637409
0.0595133
0.132619
0.132638
0.132661
0.132689
0.132721
0.132759
0.132804
0.132859
0.132924
0.133
0.133087
0.133187
0.1333
0.133428
0.13357
0.13373
0.133908
0.134107
0.134325
0.134567
0.134833
0.135122
0.135438
0.135779
0.136145
0.136536
0.136952
0.13739
0.137848
0.138322
0.138811
0.139305
0.139801
0.140291
0.140769
0.14122
0.141627
0.141975
0.142237
0.142385
0.142388
0.142204
0.141781
0.141067
0.140001
0.138512
0.136525
0.133963
0.130752
0.126847
0.122197
0.116821
0.110691
0.103845
0.0963774
0.0884662
0.0804094
0.0726698
0.065726
0.0613041
0.135202
0.135228
0.135263
0.135305
0.135355
0.135411
0.135475
0.135546
0.135628
0.135719
0.135822
0.135935
0.136062
0.136202
0.136358
0.136529
0.136722
0.136933
0.137166
0.137422
0.137704
0.13801
0.138345
0.138707
0.139095
0.139511
0.139952
0.14042
0.140909
0.141418
0.141941
0.142476
0.143014
0.14355
0.144077
0.144581
0.145044
0.145453
0.145777
0.14599
0.146062
0.145946
0.145591
0.144941
0.143933
0.142493
0.140541
0.137996
0.134779
0.130839
0.126119
0.120636
0.114354
0.10731
0.099598
0.0913984
0.0830235
0.0749603
0.0677173
0.0630912
0.138328
0.138345
0.138363
0.138384
0.13841
0.138442
0.138482
0.138532
0.138594
0.13867
0.138758
0.138862
0.138981
0.139118
0.139272
0.139445
0.139641
0.13986
0.140102
0.14037
0.140666
0.140988
0.14134
0.141721
0.14213
0.14257
0.143038
0.143533
0.144053
0.144596
0.145157
0.14573
0.146313
0.146895
0.147473
0.148031
0.148551
0.149021
0.149411
0.149691
0.149832
0.149787
0.1495
0.148916
0.147967
0.146576
0.144659
0.14213
0.138904
0.134928
0.130134
0.124534
0.118092
0.110841
0.102873
0.0943744
0.0856702
0.0772732
0.0697225
0.0648877
0.141035
0.141064
0.141101
0.141146
0.141199
0.141258
0.141324
0.141399
0.141484
0.14158
0.141688
0.141807
0.141941
0.14209
0.142257
0.142441
0.142649
0.142877
0.143131
0.14341
0.143719
0.144055
0.144424
0.144823
0.145252
0.145715
0.146207
0.146731
0.147281
0.147858
0.148455
0.14907
0.149696
0.150326
0.150956
0.151569
0.152149
0.152683
0.153139
0.153489
0.153702
0.153728
0.153513
0.152996
0.152107
0.150766
0.148883
0.146369
0.143132
0.139116
0.134243
0.128524
0.121915
0.114448
0.106212
0.0973993
0.0883501
0.0796041
0.0717329
0.0666797
0.144357
0.144376
0.144398
0.144422
0.14445
0.144485
0.144527
0.144581
0.144647
0.144728
0.144822
0.144932
0.145058
0.145203
0.145366
0.145551
0.14576
0.145994
0.146253
0.146542
0.146862
0.147211
0.147594
0.14801
0.148459
0.148943
0.14946
0.150011
0.150592
0.151202
0.151839
0.152493
0.153164
0.153843
0.154526
0.155197
0.155838
0.156437
0.156962
0.157384
0.157671
0.157772
0.157629
0.157181
0.156354
0.155062
0.153214
0.150713
0.147464
0.143405
0.138449
0.1326
0.125815
0.118122
0.109608
0.100469
0.0910633
0.0819579
0.0737577
0.0684814
0.147232
0.147266
0.147309
0.14736
0.147418
0.147482
0.147554
0.147633
0.147724
0.147825
0.147939
0.148064
0.148206
0.148362
0.148538
0.148731
0.148951
0.149193
0.149462
0.14976
0.150091
0.150452
0.15085
0.151282
0.151749
0.152255
0.152796
0.153374
0.153986
0.15463
0.155303
0.156
0.156717
0.157446
0.158184
0.158915
0.15962
0.160286
0.160883
0.161379
0.161743
0.161921
0.161854
0.161476
0.160711
0.15947
0.157656
0.155167
0.151904
0.147798
0.142753
0.136773
0.129806
0.121876
0.113069
0.103589
0.0938094
0.0843288
0.0757866
0.0702777
0.150773
0.150798
0.150824
0.150852
0.150883
0.150921
0.150965
0.151021
0.151089
0.151171
0.151267
0.15138
0.15151
0.15166
0.151829
0.152021
0.152239
0.152485
0.152758
0.153063
0.153403
0.153776
0.154187
0.154635
0.15512
0.155647
0.156212
0.156817
0.15746
0.158139
0.158851
0.15959
0.160355
0.161135
0.16193
0.162722
0.163493
0.16423
0.164901
0.165475
0.165918
0.166176
0.166186
0.16588
0.165179
0.16399
0.16221
0.159732
0.156452
0.152295
0.147158
0.141035
0.133876
0.1257
0.116589
0.106755
0.09659
0.0867235
0.0778305
0.0720841
0.153893
0.153928
0.153969
0.154015
0.154066
0.154123
0.154187
0.15426
0.154345
0.154443
0.154555
0.15468
0.154823
0.154983
0.155164
0.155365
0.155594
0.155847
0.15613
0.156444
0.156795
0.157179
0.157604
0.158068
0.158571
0.159118
0.159708
0.160341
0.161014
0.161729
0.16248
0.163264
0.164076
0.16491
0.165764
0.16662
0.16746
0.168271
0.169019
0.169673
0.170199
0.17054
0.17063
0.170399
0.169764
0.168627
0.16688
0.164413
0.161112
0.156901
0.151666
0.145397
0.13804
0.129606
0.120177
0.109971
0.0994031
0.0891346
0.0798778
0.0738841
0.157298
0.157334
0.157377
0.157423
0.157475
0.157533
0.1576
0.157675
0.157764
0.157864
0.157978
0.158107
0.158252
0.158414
0.158596
0.158801
0.159032
0.159291
0.15958
0.159902
0.160262
0.160657
0.161096
0.161576
0.162097
0.162666
0.16328
0.163941
0.164647
0.165397
0.16619
0.167018
0.167881
0.168771
0.169686
0.170609
0.17152
0.172408
0.173237
0.173975
0.174586
0.175013
0.175185
0.175031
0.174464
0.17338
0.171667
0.169209
0.165886
0.161616
0.156278
0.149853
0.142287
0.133584
0.123825
0.113235
0.102252
0.0915702
0.0819405
0.0756942
0.160768
0.160805
0.160847
0.160894
0.160946
0.161004
0.16107
0.161145
0.161233
0.161334
0.161451
0.161581
0.161731
0.161898
0.162087
0.162298
0.162537
0.162804
0.1631
0.163432
0.163802
0.164209
0.164661
0.165157
0.165697
0.166288
0.166927
0.167617
0.168356
0.169144
0.169978
0.170854
0.171769
0.172717
0.173697
0.174689
0.175676
0.176644
0.177557
0.178383
0.179084
0.1796
0.179858
0.179783
0.179285
0.178256
0.176577
0.174126
0.170777
0.166444
0.160996
0.154413
0.146632
0.137647
0.127541
0.116549
0.105132
0.0940215
0.0840055
0.0774966
0.164396
0.164432
0.164473
0.164517
0.164567
0.164622
0.164685
0.164757
0.164842
0.164941
0.165053
0.165181
0.165326
0.165491
0.165677
0.165887
0.166125
0.166394
0.166695
0.167033
0.167411
0.16783
0.168295
0.168808
0.169367
0.16998
0.170645
0.171365
0.172139
0.172965
0.173845
0.174769
0.175741
0.176749
0.177796
0.178862
0.179926
0.180979
0.18198
0.182896
0.18369
0.184299
0.184646
0.184653
0.184227
0.183252
0.181607
0.179163
0.175785
0.171385
0.165823
0.15907
0.151062
0.141786
0.131319
0.119912
0.10805
0.0964982
0.0860865
0.0793093
0.168
0.168037
0.16808
0.168125
0.168176
0.168231
0.168294
0.168366
0.168452
0.168551
0.168666
0.168796
0.168946
0.169114
0.169305
0.16952
0.169766
0.170041
0.170349
0.170695
0.171084
0.171514
0.171993
0.172523
0.173102
0.173739
0.174431
0.175184
0.175993
0.176862
0.177787
0.178765
0.179794
0.180867
0.181985
0.183127
0.184274
0.185414
0.186508
0.187519
0.188411
0.189115
0.189555
0.189648
0.189294
0.188377
0.186766
0.184325
0.180917
0.176444
0.17076
0.163836
0.155594
0.146011
0.135167
0.123326
0.110999
0.0989901
0.0881692
0.0811132
0.171739
0.171776
0.171818
0.171861
0.171909
0.171962
0.172023
0.172093
0.172177
0.172273
0.172384
0.172512
0.172657
0.172823
0.173011
0.173225
0.17347
0.173748
0.17406
0.174414
0.174812
0.175255
0.175749
0.176297
0.176898
0.177561
0.178283
0.179069
0.179918
0.18083
0.181806
0.182838
0.18393
0.185071
0.186262
0.187485
0.188718
0.18995
0.19114
0.192251
0.193243
0.194048
0.194583
0.194764
0.194486
0.193627
0.19205
0.189613
0.18617
0.18162
0.175811
0.168703
0.160214
0.150313
0.139079
0.12679
0.113986
0.101508
0.0902683
0.0829274
0.17544
0.175479
0.175521
0.175567
0.175616
0.175669
0.17573
0.1758
0.175884
0.175981
0.176095
0.176224
0.176374
0.176544
0.176739
0.176958
0.177211
0.177497
0.177818
0.178181
0.178591
0.179048
0.17956
0.180128
0.180752
0.181442
0.182196
0.18302
0.183911
0.184871
0.185899
0.186992
0.188148
0.18936
0.19063
0.191938
0.193262
0.19459
0.195881
0.197095
0.198193
0.199103
0.199737
0.200009
0.19981
0.19901
0.197468
0.195032
0.191551
0.186917
0.180975
0.173682
0.164939
0.154704
0.143061
0.130305
0.117004
0.104041
0.0923683
0.0847319
0.179252
0.17929
0.179332
0.179376
0.179423
0.179474
0.179533
0.179601
0.179683
0.179779
0.17989
0.180018
0.180164
0.180334
0.180526
0.180747
0.181001
0.181293
0.18162
0.181994
0.182417
0.182889
0.18342
0.184011
0.184661
0.185382
0.186171
0.187034
0.18797
0.188981
0.190067
0.191221
0.192448
0.193736
0.195089
0.196485
0.197904
0.199333
0.200729
0.202051
0.203259
0.204276
0.205014
0.205381
0.205262
0.204524
0.203016
0.200582
0.19706
0.192337
0.186257
0.178766
0.169755
0.159174
0.147109
0.133872
0.120062
0.106601
0.0944851
0.0865467
0.183002
0.183042
0.183086
0.183132
0.183181
0.183235
0.183295
0.183365
0.183449
0.183548
0.183663
0.183796
0.18395
0.184125
0.184327
0.184556
0.18482
0.185122
0.185461
0.185848
0.186286
0.186776
0.187329
0.187944
0.188623
0.189378
0.190205
0.191111
0.192096
0.193161
0.194306
0.19553
0.196829
0.198197
0.199638
0.201127
0.202646
0.204181
0.205687
0.207122
0.208445
0.209576
0.210421
0.210886
0.210852
0.210176
0.208704
0.206267
0.202702
0.197881
0.191659
0.183967
0.174679
0.163735
0.151228
0.137488
0.12315
0.109174
0.0966023
0.0883509
0.186867
0.186907
0.18695
0.186994
0.187042
0.187093
0.187152
0.187221
0.187304
0.187402
0.187516
0.187648
0.187801
0.187978
0.188179
0.188412
0.188681
0.18899
0.18934
0.189741
0.190196
0.190707
0.191283
0.191926
0.192637
0.193428
0.194296
0.195248
0.196285
0.197409
0.19862
0.199912
0.201291
0.202745
0.204277
0.205865
0.207488
0.209133
0.210754
0.212307
0.213749
0.214997
0.215955
0.216521
0.216573
0.215963
0.214527
0.212089
0.208477
0.203556
0.197182
0.189276
0.179697
0.168377
0.155414
0.14116
0.126279
0.111776
0.0987365
0.0901654
0.190672
0.190713
0.190758
0.190804
0.190854
0.190907
0.190968
0.191038
0.191123
0.191225
0.191344
0.191481
0.191642