/*--------------------------------*- C++ -*----------------------------------*\
  =========                 |
  \\      /  F ield         | OpenFOAM: The Open Source CFD Toolbox
   \\    /   O peration     | Website:  https://openfoam.org
    \\  /    A nd           | Version:  6.0
     \\/     M anipulation  |
\*---------------------------------------------------------------------------*/
FoamFile
{
    version     2.0;
    format      ascii;
    class       surfaceScalarField;
    location    "2";
    object      phi;
}
// * * * * * * * * * * * * * * * * * * * * * * * * * * * * * * * * * * * * * //

dimensions      [0 3 -1 0 0 0 0];

internalField   nonuniform List<scalar> 
123526
(
3.01323e-07
2.34158e-05
6.27618e-08
7.14141e-07
2.53167e-05
1.16216e-06
2.73719e-05
1.64965e-06
2.95938e-05
2.17799e-06
3.19959e-05
2.75191e-06
3.45929e-05
3.37319e-06
3.74004e-05
4.04758e-06
4.04354e-05
4.77751e-06
4.37156e-05
5.57041e-06
4.72618e-05
6.42648e-06
5.10959e-05
7.35566e-06
5.52404e-05
8.35807e-06
5.97203e-05
9.44853e-06
6.45601e-05
1.06278e-05
6.97901e-05
1.19077e-05
7.54456e-05
1.32884e-05
8.15571e-05
1.47927e-05
8.81545e-05
1.64198e-05
9.52851e-05
1.81844e-05
0.000102992
2.00967e-05
0.000111309
2.21764e-05
0.000120292
2.44223e-05
0.000129997
2.687e-05
0.000140459
2.95168e-05
0.00015176
3.23916e-05
0.000163946
3.55084e-05
0.000177083
3.88874e-05
0.000191249
4.25536e-05
0.000206498
4.65253e-05
0.000222923
5.08323e-05
0.00024058
5.54955e-05
0.000259563
6.05431e-05
0.000279935
6.60041e-05
0.000301775
7.1908e-05
0.000325156
7.82962e-05
0.000350127
8.51909e-05
0.000376759
9.26283e-05
0.000405072
0.000100644
0.000435082
0.000109263
0.00046678
0.000118517
0.000500103
0.000128437
0.000534942
0.000139042
0.000571128
0.000150349
0.000608399
0.00016237
0.000646384
0.000175106
0.000684575
0.000188548
0.000722282
0.000202674
0.000758593
0.000217436
0.000792311
0.000232767
0.000821885
0.000248554
0.000845332
0.000264651
0.000860134
0.000280829
0.000863174
0.000296817
0.000850537
0.000312225
0.000817497
0.000326589
0.000758298
0.00033929
0.000666201
0.000349595
0.000533134
0.000356547
0.000349604
9.79031e-05
0.000358501
3.0045e-07
2.30253e-05
6.48608e-08
7.12141e-07
2.48945e-05
1.15853e-06
2.69154e-05
1.64398e-06
2.91002e-05
2.16987e-06
3.14622e-05
2.74088e-06
3.40157e-05
3.35884e-06
3.67762e-05
4.02957e-06
3.97604e-05
4.75544e-06
4.29846e-05
5.5439e-06
4.64705e-05
6.39507e-06
5.02401e-05
7.31891e-06
5.43149e-05
8.31541e-06
5.87193e-05
9.39931e-06
6.3475e-05
1.05715e-05
6.86133e-05
1.18432e-05
7.41728e-05
1.32152e-05
8.01805e-05
1.47093e-05
8.66592e-05
1.63258e-05
9.36642e-05
1.80777e-05
0.000101239
1.99768e-05
0.000109406
2.20405e-05
0.000118226
2.42697e-05
0.000127763
2.66972e-05
0.000138029
2.93226e-05
0.000149131
3.21714e-05
0.000161094
3.52602e-05
0.000173991
3.86054e-05
0.000187901
4.22347e-05
0.000202865
4.6162e-05
0.000218993
5.04202e-05
0.00023632
5.5025e-05
0.000254955
6.00061e-05
0.000274947
6.53905e-05
0.000296382
7.12059e-05
0.000319332
7.74922e-05
0.000343834
8.42703e-05
0.000369974
9.15745e-05
0.000397762
9.94386e-05
0.000427212
0.000107888
0.000458324
0.000116953
0.000491034
0.000126662
0.000525229
0.000137038
0.00056075
0.000148096
0.000597341
0.000159851
0.000634634
0.000172306
0.000672128
0.000185454
0.000709149
0.000199273
0.000744797
0.000213721
0.000777896
0.000228731
0.000806922
0.000244192
0.000829928
0.000259965
0.000844444
0.000275821
0.000847392
0.000291495
0.000834942
0.000306602
0.000802449
0.00032069
0.000744284
0.000333147
0.000653805
0.000343257
0.000523104
0.000350074
0.000342851
9.61247e-05
0.000351993
2.9471e-07
2.26394e-05
6.50643e-08
7.00917e-07
2.44774e-05
1.14156e-06
2.64645e-05
1.62079e-06
2.86127e-05
2.1399e-06
3.09352e-05
2.70363e-06
3.34459e-05
3.31364e-06
3.61601e-05
3.97555e-06
3.9094e-05
4.69184e-06
4.22631e-05
5.46956e-06
4.56895e-05
6.3093e-06
4.93956e-05
7.22027e-06
5.34015e-05
8.20333e-06
5.77315e-05
9.27204e-06
6.24045e-05
1.04282e-05
6.74525e-05
1.16821e-05
7.29173e-05
1.30353e-05
7.88227e-05
1.45085e-05
8.51846e-05
1.61024e-05
9.20658e-05
1.78296e-05
9.95104e-05
1.97018e-05
0.000107529
2.17359e-05
0.000116191
2.3933e-05
0.000125562
2.6325e-05
0.000135635
2.89118e-05
0.00014654
3.17181e-05
0.000158286
3.47604e-05
0.000170945
3.80544e-05
0.000184604
4.16276e-05
0.000199288
4.54931e-05
0.000215125
4.96832e-05
0.000232127
5.42131e-05
0.000250422
5.91117e-05
0.000270042
6.44048e-05
0.00029108
7.01201e-05
0.000313608
7.62957e-05
0.00033765
8.29521e-05
0.00036331
9.01228e-05
0.000390583
9.78405e-05
0.000419486
0.00010613
0.000450027
0.000115021
0.000482135
0.000124543
0.0005157
0.000134717
0.000550571
0.00014556
0.000586493
0.000157086
0.000623105
0.000169298
0.000659913
0.000182191
0.000696253
0.000195744
0.000731241
0.000209915
0.000763719
0.00022464
0.000792193
0.000239807
0.000814744
0.000255283
0.000828954
0.000270839
0.000831799
0.00028622
0.000819533
0.000301042
0.000787568
0.000314867
0.000730409
0.00032709
0.000641501
0.000337007
0.000513105
0.000343687
0.000336045
9.39253e-05
0.000345667
2.90426e-07
2.22606e-05
6.72628e-08
6.9112e-07
2.40678e-05
1.12524e-06
2.60216e-05
1.59712e-06
2.81339e-05
2.10807e-06
3.04174e-05
2.66272e-06
3.28859e-05
3.26279e-06
3.55544e-05
3.91414e-06
3.84389e-05
4.61888e-06
4.15536e-05
5.38452e-06
4.49215e-05
6.2109e-06
4.85649e-05
7.10798e-06
5.25032e-05
8.07538e-06
5.67598e-05
9.12776e-06
6.13513e-05
1.02655e-05
6.63104e-05
1.15e-05
7.16822e-05
1.28316e-05
7.74868e-05
1.42816e-05
8.37337e-05
1.585e-05
9.04931e-05
1.75497e-05
9.78096e-05
1.93919e-05
0.000105683
2.13933e-05
0.000114188
2.3555e-05
0.000123397
2.59082e-05
0.00013328
2.84528e-05
0.000143991
3.1213e-05
0.000155523
3.42051e-05
0.000167949
3.74441e-05
0.000181362
4.09575e-05
0.000195772
4.47573e-05
0.000211322
4.88761e-05
0.000228006
5.33278e-05
0.000245966
5.81409e-05
0.000265222
6.33411e-05
0.000285871
6.89547e-05
0.000307985
7.50193e-05
0.000331577
8.15547e-05
0.000356767
8.85937e-05
0.000383536
9.61685e-05
0.000411903
0.000104304
0.000441883
0.000113028
0.000473402
0.00012237
0.000506348
0.000132351
0.000540579
0.00014299
0.000575844
0.000154298
0.000611786
0.000166281
0.000647919
0.000178932
0.000683591
0.000192232
0.000717932
0.00020614
0.000749806
0.00022059
0.000777742
0.000235477
0.000799859
0.000250667
0.00081378
0.000265934
0.000816533
0.000281029
0.000804439
0.000295577
0.000773007
0.000309145
0.000716837
0.000321139
0.000629495
0.000330869
0.000503374
0.000337414
0.00032948
9.19089e-05
0.000339433
2.80543e-07
2.18862e-05
6.42937e-08
6.72743e-07
2.36631e-05
1.09897e-06
2.55841e-05
1.56234e-06
2.7661e-05
2.06506e-06
2.99062e-05
2.61057e-06
3.23333e-05
3.20165e-06
3.4957e-05
3.84233e-06
3.77929e-05
4.53647e-06
4.08543e-05
5.28925e-06
4.41648e-05
6.10284e-06
4.77468e-05
6.98452e-06
5.16185e-05
7.93675e-06
5.58034e-05
8.97096e-06
6.03149e-05
1.00904e-05
6.51867e-05
1.13037e-05
7.04671e-05
1.26135e-05
7.6173e-05
1.40387e-05
8.23071e-05
1.5581e-05
8.8947e-05
1.72516e-05
9.61378e-05
1.90625e-05
0.000103868
2.10296e-05
0.00011222
2.31541e-05
0.000121268
2.54667e-05
0.000130966
2.79672e-05
0.000141487
3.06794e-05
0.000152808
3.36193e-05
0.000165006
3.68016e-05
0.000178176
4.0253e-05
0.000192317
4.39858e-05
0.000207586
4.80312e-05
0.000223958
5.24034e-05
0.000241591
5.71304e-05
0.00026049
6.22366e-05
0.000280756
6.77485e-05
0.000302465
7.37025e-05
0.000325616
8.01182e-05
0.000350343
8.70275e-05
0.000376619
9.44623e-05
0.00040446
0.000102447
0.000433891
0.000111009
0.000464832
0.000120178
0.000497171
0.000129974
0.000530775
0.000140416
0.000565395
0.000151515
0.000600678
0.000163277
0.000636148
0.000175697
0.000671161
0.000188754
0.000704863
0.000202407
0.000736136
0.000216594
0.000763536
0.000231209
0.000785214
0.000246121
0.000798838
0.000261109
0.000801493
0.000275926
0.000789577
0.000290206
0.000758659
0.000303524
0.00070346
0.000315296
0.000617638
0.000324841
0.000493745
0.000331258
0.00032294
8.96688e-05
0.000333295
2.75807e-07
2.15201e-05
6.88409e-08
6.62488e-07
2.32672e-05
1.08191e-06
2.51561e-05
1.53739e-06
2.71982e-05
2.03122e-06
2.94057e-05
2.56671e-06
3.17921e-05
3.1467e-06
3.43717e-05
3.7757e-06
3.71599e-05
4.4569e-06
4.01689e-05
5.1964e-06
4.34229e-05
5.99509e-06
4.69445e-05
6.86159e-06
5.07509e-05
7.79634e-06
5.4865e-05
8.81277e-06
5.92979e-05
9.91186e-06
6.40839e-05
1.1104e-05
6.92745e-05
1.239e-05
7.48831e-05
1.379e-05
8.09064e-05
1.53044e-05
8.74288e-05
1.69452e-05
9.4496e-05
1.87237e-05
0.000102086
2.06555e-05
0.000110287
2.2742e-05
0.000119178
2.50131e-05
0.000128694
2.74688e-05
0.000139028
3.01321e-05
0.000150143
3.30191e-05
0.000162115
3.61438e-05
0.000175049
3.95328e-05
0.000188925
4.31976e-05
0.000203918
4.71696e-05
0.000219984
5.1462e-05
0.000237295
5.61023e-05
0.000255843
6.11153e-05
0.000275736
6.6526e-05
0.000297047
7.23706e-05
0.000319764
7.86681e-05
0.000344039
8.545e-05
0.00036983
9.27476e-05
0.000397155
0.000100585
0.000426046
0.000108989
0.000456418
0.000117989
0.000488162
0.000127606
0.000521148
0.000137857
0.000555133
0.000148754
0.000589768
0.000160303
0.000624585
0.000172498
0.000658951
0.000185319
0.000692027
0.000198726
0.000722714
0.000212657
0.000749593
0.000227007
0.00077085
0.000241649
0.000784194
0.000256366
0.00078676
0.000270912
0.000775009
0.000284931
0.000744607
0.000298005
0.000690361
0.000309559
0.000606053
0.000318925
0.000484355
0.000325217
0.000316608
8.75921e-05
0.000327258
2.67639e-07
2.11594e-05
6.69724e-08
6.46526e-07
2.28772e-05
1.05824e-06
2.47345e-05
1.50563e-06
2.67424e-05
1.9908e-06
2.89131e-05
2.51724e-06
3.12595e-05
3.08738e-06
3.37959e-05
3.70541e-06
3.65373e-05
4.37475e-06
3.94949e-05
5.10069e-06
4.26935e-05
5.88515e-06
4.61557e-05
6.73527e-06
4.9898e-05
7.65348e-06
5.39428e-05
8.65064e-06
5.82985e-05
9.73018e-06
6.30004e-05
1.09e-05
6.81029e-05
1.21631e-05
7.36163e-05
1.35373e-05
7.95308e-05
1.50245e-05
8.5938e-05
1.66353e-05
9.2884e-05
1.83814e-05
0.000100337
2.02778e-05
0.000108389
2.23262e-05
0.000117127
2.45556e-05
0.000126463
2.69662e-05
0.000136614
2.95806e-05
0.000147526
3.24145e-05
0.000159278
3.54817e-05
0.000171979
3.88082e-05
0.000185596
4.24056e-05
0.000200318
4.63039e-05
0.000216084
5.0517e-05
0.000233079
5.50719e-05
0.000251283
5.9992e-05
0.000270808
6.53028e-05
0.000291729
7.10393e-05
0.000314021
7.72204e-05
0.000337852
8.38771e-05
0.000363167
9.10402e-05
0.000389985
9.8733e-05
0.000418346
0.000106983
0.000448162
0.000115819
0.000479319
0.000125261
0.0005117
0.000135325
0.000545061
0.000146026
0.00057906
0.000157367
0.000613236
0.000169344
0.000646966
0.000181935
0.000679424
0.000195102
0.000709532
0.000208783
0.000735895
0.000222876
0.00075673
0.000237254
0.000769791
0.000251704
0.000772265
0.000265987
0.000760686
0.000279751
0.000730783
0.000292586
0.000677475
0.000303928
0.000594637
0.000313117
0.000475095
0.00031929
0.000310332
8.53912e-05
0.000321324
2.6529e-07
2.08076e-05
7.05001e-08
6.38902e-07
2.24967e-05
1.04351e-06
2.4323e-05
1.48288e-06
2.62974e-05
1.95863e-06
2.84318e-05
2.47468e-06
3.07389e-05
3.03309e-06
3.32327e-05
3.6391e-06
3.59281e-05
4.2949e-06
3.88351e-05
5.00739e-06
4.19792e-05
5.77642e-06
4.53831e-05
6.61137e-06
4.90624e-05
7.51157e-06
5.30389e-05
8.49104e-06
5.73189e-05
9.5497e-06
6.1938e-05
1.06984e-05
6.69539e-05
1.19373e-05
7.23736e-05
1.32863e-05
7.81812e-05
1.47454e-05
8.44752e-05
1.63263e-05
9.13022e-05
1.80398e-05
9.86196e-05
1.9901e-05
0.000106527
2.19112e-05
0.000115113
2.40992e-05
0.000124273
2.6465e-05
0.000134245
2.90308e-05
0.000144959
3.18119e-05
0.000156494
3.4822e-05
0.000168966
3.80866e-05
0.000182329
4.16168e-05
0.000196785
4.54428e-05
0.000212256
4.95774e-05
0.000228942
5.40472e-05
0.000246808
5.88763e-05
0.000265973
6.40884e-05
0.00028651
6.97186e-05
0.000308386
7.57853e-05
0.00033178
8.2319e-05
0.000356627
8.93501e-05
0.000382948
9.69016e-05
0.000410788
0.000105001
0.000440055
0.000113675
0.000470637
0.000122946
0.000502421
0.000132829
0.000535168
0.000143337
0.000568541
0.000154475
0.000602085
0.000166238
0.000635189
0.000178605
0.000667043
0.000191537
0.000696584
0.000204973
0.000722445
0.000218814
0.000742874
0.000232935
0.000755665
0.000247126
0.000758054
0.000261149
0.000746636
0.000274665
0.000717232
0.000287265
0.000664845
0.000298399
0.00058347
0.000307418
0.000466049
0.000313474
0.000304236
8.33341e-05
0.000315494
2.54294e-07
2.04594e-05
6.37695e-08
6.18062e-07
2.212e-05
1.01399e-06
2.39159e-05
1.44419e-06
2.58574e-05
1.91153e-06
2.79562e-05
2.41824e-06
3.0225e-05
2.96789e-06
3.26772e-05
3.56302e-06
3.53276e-05
4.2085e-06
3.81851e-05
4.90764e-06
4.12759e-05
5.66406e-06
4.46228e-05
6.48281e-06
4.82404e-05
7.36803e-06
5.21503e-05
8.32837e-06
5.6356e-05
9.3688e-06
6.08943e-05
1.04954e-05
6.58254e-05
1.17124e-05
7.11535e-05
1.30358e-05
7.68564e-05
1.44683e-05
8.30396e-05
1.60195e-05
8.97499e-05
1.77012e-05
9.69348e-05
1.95275e-05
0.000104699
2.15001e-05
0.000113137
2.3647e-05
0.000122125
2.59685e-05
0.000131921
2.84862e-05
0.000142439
3.12152e-05
0.000153762
3.4169e-05
0.00016601
3.73723e-05
0.000179123
4.08367e-05
0.000193319
4.45907e-05
0.0002085
4.86481e-05
0.000224882
5.30349e-05
0.000242417
5.77737e-05
0.000261228
6.28889e-05
0.000281389
6.84146e-05
0.000302855
7.43688e-05
0.000325821
8.07817e-05
0.000350209
8.76832e-05
0.000376042
9.5096e-05
0.00040337
0.000103047
0.000432099
0.000111564
0.000462115
0.000120666
0.000493314
0.000130371
0.000525459
0.000140691
0.000558216
0.00015163
0.00059114
0.000163183
0.000623629
0.00017533
0.000654887
0.000188033
0.00068387
0.00020123
0.000709234
0.000214824
0.000729258
0.000228692
0.000741778
0.000242629
0.000744083
0.000256399
0.000732833
0.00026967
0.000703914
0.000282042
0.000652433
0.000292973
0.000572482
0.000301824
0.000457143
0.000307767
0.000298213
8.12078e-05
0.000309765
2.52825e-07
2.01203e-05
6.83615e-08
6.11898e-07
2.17533e-05
1.00123e-06
2.35193e-05
1.42375e-06
2.54285e-05
1.88197e-06
2.74924e-05
2.37848e-06
2.97233e-05
2.91653e-06
3.21346e-05
3.49984e-06
3.47407e-05
4.13185e-06
3.75495e-05
4.81783e-06
4.0588e-05
5.55891e-06
4.38788e-05
6.36286e-06
4.74358e-05
7.23014e-06
5.12801e-05
8.17321e-06
5.54129e-05
9.19291e-06
5.98715e-05
1.02989e-05
6.47193e-05
1.14919e-05
6.99571e-05
1.27906e-05
7.55572e-05
1.41955e-05
8.16313e-05
1.57174e-05
8.8227e-05
1.73672e-05
9.52819e-05
1.9159e-05
0.000102906
2.10945e-05
0.000111199
2.3201e-05
0.000120017
2.54788e-05
0.00012964
2.79491e-05
0.000139967
3.06268e-05
0.000151082
3.3525e-05
0.00016311
3.66683e-05
0.000175977
4.00673e-05
0.000189918
4.37513e-05
0.000204815
4.77326e-05
0.000220898
5.20371e-05
0.000238108
5.66878e-05
0.000256571
6.17077e-05
0.000276364
6.71307e-05
0.000297427
7.29745e-05
0.000319972
7.92689e-05
0.00034391
8.60433e-05
0.000369262
9.33201e-05
0.000396088
0.000101126
0.000424287
0.000109488
0.000453746
0.000118426
0.000484368
0.000127956
0.00051592
0.00013809
0.000548071
0.000148834
0.000580385
0.000160182
0.00061227
0.000172113
0.000642942
0.00018459
0.000671378
0.000197552
0.000696258
0.000210905
0.000715891
0.000224525
0.000728152
0.000238212
0.000730377
0.000251735
0.000719285
0.000264767
0.000690849
0.000276914
0.000640258
0.000287646
0.000561721
0.000296333
0.000448432
0.000302167
0.000292347
7.92067e-05
0.00030414
2.44455e-07
1.97858e-05
6.52631e-08
5.95764e-07
2.13915e-05
9.77566e-07
2.31282e-05
1.39251e-06
2.50058e-05
1.84246e-06
2.70355e-05
2.33072e-06
2.92294e-05
2.8595e-06
3.16006e-05
3.43255e-06
3.41633e-05
4.05327e-06
3.69245e-05
4.7262e-06
3.99116e-05
5.45364e-06
4.31475e-05
6.24155e-06
4.6645e-05
7.09308e-06
5.0425e-05
8.01724e-06
5.44863e-05
9.01836e-06
5.8867e-05
1.01026e-05
6.36331e-05
1.12739e-05
6.87827e-05
1.25476e-05
7.4282e-05
1.39265e-05
8.02494e-05
1.54196e-05
8.67328e-05
1.70385e-05
9.366e-05
1.87964e-05
0.000101147
2.06955e-05
0.000109297
2.27621e-05
0.000117949
2.4997e-05
0.000127403
2.74208e-05
0.000137541
3.00481e-05
0.000148452
3.28918e-05
0.000160264
3.59758e-05
0.00017289
3.93113e-05
0.00018658
4.29257e-05
0.000201198
4.68324e-05
0.000216989
5.10567e-05
0.00023388
5.56204e-05
0.000252002
6.05469e-05
0.000271432
6.58691e-05
0.0002921
7.16045e-05
0.000314233
7.77826e-05
0.000337728
8.44322e-05
0.000362608
9.15755e-05
0.00038894
9.92388e-05
0.00041662
0.000107449
0.000445532
0.000116225
0.000475589
0.000125583
0.000506558
0.000135536
0.000538114
0.000146088
0.000569828
0.000157234
0.000601119
0.000168953
0.000631216
0.000181209
0.000659114
0.00019394
0.000683515
0.000207055
0.00070276
0.000220433
0.000714762
0.000233876
0.000716907
0.000247155
0.000705979
0.000259953
0.000678015
0.00027188
0.000628299
0.000282416
0.000551138
0.000290944
0.000439863
0.000296671
0.000286559
7.71639e-05
0.000298615
2.44743e-07
1.94605e-05
6.9182e-08
5.91847e-07
2.10396e-05
9.67026e-07
2.27476e-05
1.37453e-06
2.45941e-05
1.81524e-06
2.65901e-05
2.29345e-06
2.87476e-05
2.8105e-06
3.10794e-05
3.37198e-06
3.35993e-05
3.97926e-06
3.63136e-05
4.63949e-06
3.92501e-05
5.35175e-06
4.24319e-05
6.12558e-06
4.5871e-05
6.95943e-06
4.95877e-05
7.8672e-06
5.35787e-05
8.84801e-06
5.78826e-05
9.91258e-06
6.25685e-05
1.10605e-05
6.76311e-05
1.23106e-05
7.30314e-05
1.36627e-05
7.88938e-05
1.51276e-05
8.52668e-05
1.67156e-05
9.20688e-05
1.84404e-05
9.94212e-05
2.03035e-05
0.000107431
2.23312e-05
0.00011592
2.4524e-05
0.000125207
2.6902e-05
0.000135162
2.94798e-05
0.000145872
3.22699e-05
0.000157472
3.52961e-05
0.000169862
3.85685e-05
0.000183306
4.21154e-05
0.00019765
4.59489e-05
0.000213154
5.00938e-05
0.000229731
5.45727e-05
0.000247519
5.94074e-05
0.000266593
6.46307e-05
0.000286873
7.02599e-05
0.0003086
7.63238e-05
0.00033166
8.28509e-05
0.000356077
8.98632e-05
0.000381923
9.73865e-05
0.000409091
0.000105447
0.000437466
0.000114064
0.000466965
0.000123254
0.00049736
0.000133029
0.000528331
0.000143392
0.000559455
0.000154339
0.000590161
0.00016585
0.000619693
0.000177888
0.000647063
0.000190394
0.000670996
0.000203276
0.000689865
0.000216415
0.000701618
0.000229618
0.000703688
0.000242659
0.000692914
0.000255227
0.000665417
0.000266938
0.000616562
0.000277284
0.000540767
0.000285654
0.000431472
0.000291276
0.000280912
7.52325e-05
0.000293191
2.33339e-07
1.91374e-05
5.95726e-08
5.70069e-07
2.06902e-05
9.36666e-07
2.23699e-05
1.33515e-06
2.4186e-05
1.76815e-06
2.61491e-05
2.23763e-06
2.82709e-05
2.74711e-06
3.05642e-05
3.29848e-06
3.30425e-05
3.89683e-06
3.5711e-05
4.54446e-06
3.85982e-05
5.24565e-06
4.17273e-05
6.00399e-06
4.51092e-05
6.8246e-06
4.87642e-05
7.7141e-06
5.26865e-05
8.67851e-06
5.69155e-05
9.72209e-06
6.15228e-05
1.085e-05
6.65006e-05
1.2076e-05
7.18039e-05
1.34036e-05
7.75637e-05
1.48406e-05
8.38286e-05
1.63991e-05
9.05078e-05
1.80911e-05
9.7728e-05
1.99192e-05
0.0001056
2.19085e-05
0.000113929
2.40599e-05
0.000123053
2.63931e-05
0.000132827
2.89223e-05
0.00014334
3.16599e-05
0.000154732
3.4629e-05
0.000166891
3.78403e-05
0.000180093
4.13203e-05
0.000194169
4.5082e-05
0.000209391
4.91498e-05
0.00022566
5.35449e-05
0.000243119
5.82898e-05
0.000261844
6.3416e-05
0.000281743
6.89409e-05
0.000303072
7.48928e-05
0.000325705
8.12997e-05
0.000349667
8.81834e-05
0.000375036
9.55693e-05
0.000401702
0.000103483
0.000429549
0.000111944
0.000458501
0.000120969
0.000488333
0.000130568
0.000518729
0.000140746
0.000549273
0.000151498
0.000579405
0.000162804
0.000608382
0.000174629
0.000635232
0.000186912
0.000658705
0.000199565
0.000677199
0.000212469
0.000688704
0.000225437
0.0006907
0.000238244
0.000680086
0.000250587
0.000653046
0.000262087
0.000605038
0.000272245
0.000530574
0.000280463
0.000423223
0.000285982
0.000275348
7.32754e-05
0.000287866
2.33786e-07
1.88237e-05
6.48606e-08
5.66846e-07
2.03508e-05
9.27454e-07
2.20029e-05
1.31892e-06
2.3789e-05
1.74321e-06
2.57197e-05
2.203e-06
2.78065e-05
2.70118e-06
3.00618e-05
3.24137e-06
3.2499e-05
3.8267e-06
3.51224e-05
4.46212e-06
3.79611e-05
5.14859e-06
4.10382e-05
5.89342e-06
4.43639e-05
6.69685e-06
4.79581e-05
7.5706e-06
5.18128e-05
8.51529e-06
5.59681e-05
9.53989e-06
6.04981e-05
1.06452e-05
6.53923e-05
1.18483e-05
7.06002e-05
1.315e-05
7.62589e-05
1.45599e-05
8.24177e-05
1.60886e-05
8.89762e-05
1.77487e-05
9.60667e-05
1.95422e-05
0.000103804
2.14939e-05
0.000111976
2.36048e-05
0.00012094
2.5894e-05
0.000130536
2.83757e-05
0.000140856
3.10617e-05
0.000152044
3.39753e-05
0.000163976
3.71259e-05
0.00017694
4.0541e-05
0.000190753
4.42322e-05
0.000205698
4.82238e-05
0.000221665
5.25373e-05
0.000238802
5.71939e-05
0.000257183
6.2225e-05
0.000276709
6.76476e-05
0.000297646
7.34896e-05
0.00031986
7.97787e-05
0.000343374
8.65361e-05
0.000368275
9.37871e-05
0.000394447
0.000101557
0.000421774
0.000109865
0.000450187
0.000118726
0.000479465
0.000128153
0.000509294
0.000138149
0.000539268
0.000148709
0.000568835
0.000159814
0.000597265
0.000171428
0.000623606
0.000183493
0.000646628
0.000195921
0.000664759
0.000208596
0.000676025
0.000221332
0.000677949
0.00023391
0.000667486
0.000246031
0.000640898
0.000257324
0.000593722
0.000267299
0.000520578
0.000275367
0.00041514
0.000280785
0.000269913
7.14204e-05
0.000282637
2.25382e-07
1.85136e-05
6.10182e-08
5.50839e-07
2.00154e-05
9.04479e-07
2.16403e-05
1.28896e-06
2.33971e-05
1.70578e-06
2.52962e-05
2.15821e-06
2.73487e-05
2.64812e-06
2.9567e-05
3.17902e-06
3.1964e-05
3.75412e-06
3.45433e-05
4.37742e-06
3.73344e-05
5.05141e-06
4.03606e-05
5.78115e-06
4.36312e-05
6.5702e-06
4.71659e-05
7.42613e-06
5.09543e-05
8.35382e-06
5.50374e-05
9.3581e-06
5.94918e-05
1.04434e-05
6.43042e-05
1.16233e-05
6.94188e-05
1.29011e-05
7.49786e-05
1.42842e-05
8.10332e-05
1.57843e-05
8.74736e-05
1.7413e-05
9.44368e-05
1.91728e-05
0.000102042
2.10877e-05
0.00011006
2.31588e-05
0.000118866
2.54049e-05
0.000128288
2.78399e-05
0.000138419
3.04756e-05
0.000149407
3.33342e-05
0.000161115
3.64261e-05
0.000173847
3.97768e-05
0.000187401
4.33992e-05
0.000202074
4.73165e-05
0.000217745
5.15495e-05
0.000234564
5.61197e-05
0.000252609
6.10575e-05
0.000271768
6.63797e-05
0.000292321
7.21139e-05
0.000314123
7.82872e-05
0.000337198
8.49208e-05
0.000361639
9.20392e-05
0.000387326
9.96679e-05
0.000414143
0.000107825
0.000442028
0.000116526
0.000470761
0.000125784
0.000500035
0.000135601
0.000529448
0.000145973
0.000558461
0.00015688
0.000586355
0.000168287
0.000612194
0.000180137
0.000634771
0.000192344
0.000652543
0.000204793
0.00066357
0.000217302
0.000665424
0.000229655
0.000655116
0.00024156
0.000628971
0.000252649
0.000582614
0.000262444
0.000510757
0.000270365
0.000407196
0.000275685
0.000264561
6.95482e-05
0.000277505
2.27121e-07
1.82129e-05
6.58988e-08
5.49369e-07
1.969e-05
8.97075e-07
2.12883e-05
1.27484e-06
2.30163e-05
1.68295e-06
2.48841e-05
2.12592e-06
2.69029e-05
2.60457e-06
2.90846e-05
3.12464e-06
3.1442e-05
3.68686e-06
3.39777e-05
4.29851e-06
3.67219e-05
4.95806e-06
3.96979e-05
5.67504e-06
4.29144e-05
6.44728e-06
4.63904e-05
7.28839e-06
5.01137e-05
8.19686e-06
5.41255e-05
9.18318e-06
5.85055e-05
1.02466e-05
6.32373e-05
1.14047e-05
6.82601e-05
1.26574e-05
7.37226e-05
1.40146e-05
7.96749e-05
1.54861e-05
8.59992e-05
1.70841e-05
9.28376e-05
1.88106e-05
0.000100313
2.06895e-05
0.00010818
2.27217e-05
0.000116832
2.49255e-05
0.000126083
2.73148e-05
0.000136028
2.99009e-05
0.000146819
3.27062e-05
0.000158308
3.57398e-05
0.000170811
3.90283e-05
0.000184112
4.25828e-05
0.000198518
4.6427e-05
0.000213898
5.05815e-05
0.000230407
5.50667e-05
0.000248121
5.99131e-05
0.000266919
6.51369e-05
0.000287095
7.07654e-05
0.000308492
7.68252e-05
0.000331135
8.33371e-05
0.000355124
9.03255e-05
0.000380334
9.78153e-05
0.000406649
0.000105825
0.000434014
0.000114369
0.000462211
0.000123459
0.000490937
0.000133101
0.000519799
0.000143287
0.000548265
0.000154
0.000575632
0.000165204
0.000600979
0.000176843
0.000623121
0.000188833
0.000640543
0.00020106
0.00065134
0.000213346
0.000653125
0.000225478
0.000642963
0.00023717
0.000617255
0.00024806
0.000571703
0.000257679
0.00050112
0.000265456
0.000399407
0.000270679
0.000259327
6.77723e-05
0.000272467
2.15116e-07
1.79132e-05
5.52953e-08
5.26881e-07
1.93659e-05
8.66527e-07
2.09381e-05
1.23565e-06
2.26379e-05
1.63697e-06
2.44752e-05
2.07198e-06
2.6461e-05
2.54427e-06
2.86071e-05
3.05512e-06
3.09259e-05
3.60978e-06
3.34193e-05
4.20974e-06
3.61178e-05
4.85965e-06
3.9045e-05
5.56212e-06
4.22085e-05
6.32272e-06
4.56273e-05
7.14667e-06
4.9287e-05
8.04047e-06
5.32295e-05
9.00718e-06
5.75367e-05
1.00525e-05
6.219e-05
1.11882e-05
6.71229e-05
1.24184e-05
7.24902e-05
1.37498e-05
7.83423e-05
1.5194e-05
8.45528e-05
1.67617e-05
9.12686e-05
1.84559e-05
9.86164e-05
2.02993e-05
0.000106335
2.22933e-05
0.000114836
2.44558e-05
0.000123919
2.68002e-05
0.000133682
2.93379e-05
0.000144279
3.20904e-05
0.000155554
3.50677e-05
0.000167833
3.82942e-05
0.000180884
4.17826e-05
0.000195029
4.55555e-05
0.000210123
4.96326e-05
0.000226326
5.40348e-05
0.000243716
5.87914e-05
0.00026216
6.39186e-05
0.000281965
6.94433e-05
0.000302965
7.53917e-05
0.000325185
8.17842e-05
0.000348729
8.8645e-05
0.000373471
9.59984e-05
0.000399294
0.000103862
0.000426148
0.000112252
0.00045382
0.000121179
0.000482009
0.000130647
0.00051033
0.000140652
0.00053826
0.000151173
0.000565109
0.000162178
0.000589971
0.000173609
0.000611685
0.000185386
0.000628759
0.000197395
0.000639326
0.000209462
0.000641046
0.000221377
0.000631035
0.00023286
0.000605755
0.000243555
0.000560994
0.000253001
0.000491655
0.000260637
0.000391755
0.000265766
0.000254176
6.59807e-05
0.000267521
2.16676e-07
1.76229e-05
6.14883e-08
5.25679e-07
1.90519e-05
8.59976e-07
2.05984e-05
1.22278e-06
2.22704e-05
1.61591e-06
2.40777e-05
2.04183e-06
2.60311e-05
2.50332e-06
2.81419e-05
3.00375e-06
3.04227e-05
3.54598e-06
3.28742e-05
4.13475e-06
3.55277e-05
4.7707e-06
3.84067e-05
5.46093e-06
4.15182e-05
6.20523e-06
4.48807e-05
7.01492e-06
4.84777e-05
7.89012e-06
5.23518e-05
8.83951e-06
5.65874e-05
9.8636e-06
6.11631e-05
1.09783e-05
6.60076e-05
1.21845e-05
7.12812e-05
1.34909e-05
7.70349e-05
1.49075e-05
8.31336e-05
1.64458e-05
8.97291e-05
1.81081e-05
9.69518e-05
1.99168e-05
0.000104525
2.18734e-05
0.000112877
2.39952e-05
0.000121796
2.62958e-05
0.000131379
2.87859e-05
0.000141788
3.14872e-05
0.000152851
3.44084e-05
0.00016491
3.75753e-05
0.000177717
4.09984e-05
0.000191604
4.4701e-05
0.000206418
4.87027e-05
0.000222322
5.30232e-05
0.000239393
5.76918e-05
0.000257489
6.27245e-05
0.000276931
6.81474e-05
0.00029754
7.39865e-05
0.000319343
8.02619e-05
0.000342451
8.69973e-05
0.000366732
9.42168e-05
0.000392071
0.000101938
0.000418423
0.000110176
0.000445577
0.000118942
0.000473237
0.00012824
0.000501025
0.000138066
0.000528428
0.000148399
0.000554767
0.000159208
0.000579154
0.000170436
0.000600447
0.000182003
0.000617185
0.000193798
0.00062753
0.00020565
0.000629182
0.000217352
0.000619313
0.000228629
0.000594456
0.000239133
0.000550472
0.000248409
0.000482363
0.000255908
0.000384248
0.000260944
0.000249137
6.42852e-05
0.000262666
2.08234e-07
1.73354e-05
5.72312e-08
5.09919e-07
1.8741e-05
8.37756e-07
2.02624e-05
1.19419e-06
2.19073e-05
1.58055e-06
2.36853e-05
1.99994e-06
2.56069e-05
2.45401e-06
2.76834e-05
2.94603e-06
2.99269e-05
3.47898e-06
3.23376e-05
4.05651e-06
3.4947e-05
4.68107e-06
3.77789e-05
5.35712e-06
4.08393e-05
6.08835e-06
4.41466e-05
6.8813e-06
4.76822e-05
7.74104e-06
5.14894e-05
8.67145e-06
5.56549e-05
9.67732e-06
6.01549e-05
1.07705e-05
6.49128e-05
1.19547e-05
7.00948e-05
1.32363e-05
7.57519e-05
1.46266e-05
8.17409e-05
1.61359e-05
8.82185e-05
1.7767e-05
9.53184e-05
1.95418e-05
0.000102749
2.14618e-05
0.000110955
2.35439e-05
0.000119712
2.58014e-05
0.00012912
2.8245e-05
0.000139343
3.08956e-05
0.000150199
3.37628e-05
0.000162042
3.687e-05
0.000174608
4.02298e-05
0.000188243
4.38637e-05
0.000202782
4.77911e-05
0.000218392
5.20318e-05
0.000235149
5.6614e-05
0.000252905
6.15538e-05
0.000271989
6.68768e-05
0.000292215
7.26087e-05
0.00031361
7.87691e-05
0.000336289
8.53815e-05
0.000360119
9.24695e-05
0.000384982
0.000100051
0.000410841
0.00010814
0.000437487
0.000116748
0.000464629
0.000125879
0.000491894
0.000135528
0.000518779
0.000145677
0.000544617
0.000156293
0.000568537
0.00016732
0.000589416
0.000178682
0.000605818
0.000190266
0.000615941
0.000201907
0.000617532
0.0002134
0.000607809
0.000224477
0.000583366
0.000234792
0.000540146
0.000243902
0.000473239
0.000251266
0.000376876
0.000256211
0.000244181
6.25733e-05
0.000257901
2.11029e-07
1.70572e-05
6.262e-08
5.1032e-07
1.844e-05
8.32688e-07
1.99367e-05
1.18303e-06
2.15549e-05
1.56107e-06
2.33039e-05
1.97158e-06
2.51942e-05
2.41479e-06
2.72367e-05
2.8967e-06
2.94435e-05
3.4173e-06
3.18138e-05
3.98413e-06
3.43798e-05
4.59495e-06
3.71651e-05
5.25946e-06
4.01753e-05
5.97472e-06
4.34281e-05
6.75428e-06
4.69033e-05
7.59587e-06
5.06444e-05
8.50995e-06
5.47409e-05
9.49526e-06
5.91661e-05
1.05685e-05
6.38389e-05
1.17294e-05
6.89306e-05
1.29872e-05
7.4493e-05
1.43511e-05
8.03743e-05
1.58321e-05
8.67361e-05
1.74326e-05
9.37156e-05
1.91742e-05
0.000101006
2.10582e-05
0.000109069
2.31013e-05
0.000117668
2.53167e-05
0.000126903
2.77146e-05
0.000136943
3.0316e-05
0.000147596
3.31293e-05
0.000159227
3.61793e-05
0.000171558
3.94762e-05
0.000184945
4.30427e-05
0.000199214
4.68976e-05
0.000214535
5.10598e-05
0.000230985
5.55574e-05
0.000248406
6.04061e-05
0.000267139
6.56313e-05
0.000286988
7.12579e-05
0.000307982
7.73055e-05
0.000330239
8.37971e-05
0.000353625
9.07561e-05
0.00037802
9.81995e-05
0.000403395
0.000106142
0.000429541
0.000114595
0.000456172
0.000123562
0.000482922
0.000133038
0.000509298
0.000143006
0.000534644
0.000153433
0.000558105
0.000164263
0.000578578
0.000175421
0.000594655
0.000186799
0.000604564
0.000198233
0.000606088
0.000209521
0.000596502
0.0002204
0.000572466
0.000230531
0.000529998
0.000239479
0.000464279
0.000246709
0.000369639
0.000251565
0.000239329
6.0958e-05
0.000253224
1.98604e-07
1.67792e-05
5.09752e-08
4.87334e-07
1.81394e-05
8.02005e-07
1.96119e-05
1.144e-06
2.12039e-05
1.51597e-06
2.29247e-05
1.9191e-06
2.47845e-05
2.35693e-06
2.6794e-05
2.83031e-06
2.89651e-05
3.34453e-06
3.12961e-05
3.90042e-06
3.38198e-05
4.50294e-06
3.65598e-05
5.15376e-06
3.9521e-05
5.8589e-06
4.27209e-05
6.62229e-06
4.61371e-05
7.45091e-06
4.9814e-05
8.34663e-06
5.3843e-05
9.31563e-06
5.81954e-05
1.0368e-05
6.27849e-05
1.15085e-05
6.77884e-05
1.27423e-05
7.32578e-05
1.40811e-05
7.90336e-05
1.55342e-05
8.52817e-05