/*--------------------------------*- C++ -*----------------------------------*\
  =========                 |
  \\      /  F ield         | OpenFOAM: The Open Source CFD Toolbox
   \\    /   O peration     | Website:  https://openfoam.org
    \\  /    A nd           | Version:  6.0
     \\/     M anipulation  |
\*---------------------------------------------------------------------------*/
FoamFile
{
    version     2.0;
    format      ascii;
    class       surfaceScalarField;
    location    "15";
    object      phi;
}
// * * * * * * * * * * * * * * * * * * * * * * * * * * * * * * * * * * * * * //

dimensions      [0 3 -1 0 0 0 0];

internalField   nonuniform List<scalar> 
123526
(
4.01582e-07
2.34132e-05
-1.37588e-08
8.26336e-07
2.53139e-05
1.28552e-06
2.73688e-05
1.78304e-06
2.95905e-05
2.32109e-06
3.19923e-05
2.90369e-06
3.4589e-05
3.53386e-06
3.73962e-05
4.2161e-06
4.0431e-05
4.95488e-06
4.37109e-05
5.75525e-06
4.72568e-05
6.62052e-06
5.10907e-05
7.55714e-06
5.5235e-05
8.56941e-06
5.97147e-05
9.66749e-06
6.45543e-05
1.08573e-05
6.97843e-05
1.2145e-05
7.54398e-05
1.35367e-05
8.15516e-05
1.50489e-05
8.81495e-05
1.66871e-05
9.52809e-05
1.84594e-05
0.000102989
2.03825e-05
0.000111308
2.24692e-05
0.000120293
2.47247e-05
0.000130001
2.7178e-05
0.000140467
2.98321e-05
0.000151774
3.27096e-05
0.000163967
3.58294e-05
0.000177115
3.9206e-05
0.000191293
4.28682e-05
0.000206559
4.68292e-05
0.000223006
5.11218e-05
0.000240691
5.57632e-05
0.00025971
6.07849e-05
0.000280128
6.62134e-05
0.000302027
7.20757e-05
0.000325483
7.84122e-05
0.000350549
8.52457e-05
0.0003773
9.26131e-05
0.000405763
0.000100551
0.000435959
0.000109088
0.000467883
0.000118258
0.000501481
0.000128095
0.000536645
0.000138625
0.00057321
0.000149869
0.000610911
0.000161843
0.000649372
0.000174554
0.000688071
0.000187994
0.000726305
0.000202141
0.000763144
0.000216944
0.000797377
0.000232329
0.000827446
0.000248177
0.000851372
0.000264329
0.000866661
0.000280559
0.000870196
0.000296582
0.00085811
0.000312022
0.000825672
0.000326403
0.000767215
0.000339127
0.000676048
0.000349525
0.000544686
0.000356484
0.000364135
0.000121853
0.000353902
3.71135e-07
2.30262e-05
7.98941e-09
7.86387e-07
2.48955e-05
1.23539e-06
2.69165e-05
1.72183e-06
2.91015e-05
2.24802e-06
3.14636e-05
2.81771e-06
3.40172e-05
3.43406e-06
3.67779e-05
4.10132e-06
3.97622e-05
4.82405e-06
4.29866e-05
5.60707e-06
4.64727e-05
6.45379e-06
5.02426e-05
7.37037e-06
5.43177e-05
8.36127e-06
5.87225e-05
9.43622e-06
6.34789e-05
1.06014e-05
6.86179e-05
1.18625e-05
7.41783e-05
1.32258e-05
8.01871e-05
1.47073e-05
8.66673e-05
1.63129e-05
9.36741e-05
1.80499e-05
0.000101251
1.99354e-05
0.000109421
2.19816e-05
0.000118246
2.41941e-05
0.000127787
2.6601e-05
0.000138059
2.92056e-05
0.000149168
3.203e-05
0.000161142
3.50932e-05
0.000174051
3.8409e-05
0.000187977
4.20065e-05
0.000202961
4.58979e-05
0.000219114
5.01164e-05
0.000236472
5.46784e-05
0.000255147
5.96151e-05
0.00027519
6.49527e-05
0.000296688
7.07173e-05
0.000319717
7.69484e-05
0.000344317
8.36683e-05
0.000370579
9.09132e-05
0.000398517
9.87188e-05
0.000428152
0.000107113
0.000459488
0.000116128
0.000492465
0.000125798
0.000526975
0.000136147
0.000562861
0.000147196
0.000599863
0.00015896
0.000637608
0.000171447
0.000675587
0.000184649
0.000713107
0.000198541
0.000749258
0.000213075
0.000782849
0.000228176
0.000812354
0.000243728
0.000835831
0.000259574
0.000850829
0.000275496
0.000854285
0.000291216
0.000842401
0.000306368
0.000810527
0.00032049
0.000753102
0.000332975
0.000663567
0.000343191
0.000534475
0.000349795
0.00035752
0.000120869
0.000350767
3.52578e-07
2.26461e-05
1.98289e-08
7.60438e-07
2.44846e-05
1.20153e-06
2.64723e-05
1.67931e-06
2.86211e-05
2.19618e-06
3.09442e-05
2.7557e-06
3.34556e-05
3.3611e-06
3.61705e-05
4.01639e-06
3.91053e-05
4.7262e-06
4.22752e-05
5.49512e-06
4.57027e-05
6.32661e-06
4.94098e-05
7.22664e-06
5.3417e-05
8.19967e-06
5.77483e-05
9.2552e-06
6.24228e-05
1.03993e-05
6.74725e-05
1.16376e-05
7.29394e-05
1.29764e-05
7.88471e-05
1.44313e-05
8.52117e-05
1.6008e-05
9.20961e-05
1.7714e-05
9.95445e-05
1.95658e-05
0.000107568
2.15757e-05
0.000116235
2.37489e-05
0.000125613
2.61133e-05
0.000135694
2.86722e-05
0.000146608
3.14471e-05
0.000158366
3.44569e-05
0.00017104
3.77151e-05
0.000184717
4.12504e-05
0.000199425
4.50747e-05
0.000215289
4.92206e-05
0.000232326
5.37042e-05
0.000250663
5.85562e-05
0.000270336
6.38021e-05
0.00029144
6.94677e-05
0.000314049
7.55914e-05
0.000338191
8.21949e-05
0.000363974
8.93135e-05
0.000391397
9.69822e-05
0.000420482
0.000105228
0.000451241
0.000114083
0.000483608
0.00012358
0.000517477
0.000133744
0.000552697
0.000144594
0.000589012
0.000156147
0.000626055
0.000168408
0.000663326
0.00018137
0.000700146
0.000195008
0.000735621
0.000209274
0.000768583
0.000224094
0.000797536
0.000239354
0.00082057
0.000254902
0.00083528
0.000270526
0.000838654
0.000285957
0.000826964
0.000300835
0.000795634
0.00031471
0.000739213
0.000326969
0.000651284
0.000336962
0.000524457
0.000343717
0.000350727
0.000119292
0.000345236
3.43436e-07
2.22722e-05
2.28861e-08
7.44572e-07
2.40804e-05
1.17845e-06
2.60353e-05
1.64834e-06
2.81487e-05
2.15676e-06
3.04334e-05
2.70703e-06
3.29033e-05
3.30247e-06
3.55732e-05
3.94691e-06
3.84593e-05
4.645e-06
4.15757e-05
5.40114e-06
4.49455e-05
6.21883e-06
4.85909e-05
7.10381e-06
5.25313e-05
8.06054e-06
5.67905e-05
9.09827e-06
6.13846e-05
1.02231e-05
6.63466e-05
1.14403e-05
7.17217e-05
1.27562e-05
7.753e-05
1.41862e-05
8.37812e-05
1.57358e-05
9.05453e-05
1.74124e-05
9.78672e-05
1.92322e-05
0.000105747
2.12072e-05
0.000114259
2.33426e-05
0.000123476
2.56658e-05
0.00013337
2.81801e-05
0.000144093
3.09065e-05
0.000155639
3.38636e-05
0.000168082
3.70647e-05
0.000181515
4.05379e-05
0.000195951
4.4295e-05
0.000211531
4.83679e-05
0.000228252
5.27724e-05
0.000246258
5.75384e-05
0.000265569
6.26914e-05
0.000286285
6.82563e-05
0.000308482
7.4271e-05
0.000332175
8.07566e-05
0.000357487
8.77478e-05
0.000384404
9.52788e-05
0.000412949
0.000103376
0.000443141
0.000112072
0.000474911
0.000121398
0.000508149
0.000131378
0.000542715
0.000142032
0.000578355
0.000153376
0.000614709
0.000165414
0.000651286
0.000178138
0.00068742
0.000191525
0.000722232
0.000205526
0.000754581
0.000220068
0.000782993
0.00023504
0.000805596
0.000250297
0.000820024
0.00026563
0.000823316
0.000280779
0.000811809
0.000295389
0.000781013
0.00030902
0.00072557
0.000321067
0.00063922
0.000330851
0.000514654
0.000337421
0.00034412
0.000117774
0.000338886
3.35892e-07
2.19044e-05
2.36832e-08
7.3013e-07
2.36827e-05
1.15674e-06
2.56054e-05
1.61869e-06
2.76839e-05
2.11869e-06
2.99309e-05
2.65974e-06
3.23599e-05
3.24537e-06
3.49856e-05
3.87903e-06
3.78239e-05
4.56558e-06
4.08877e-05
5.30903e-06
4.42008e-05
6.11311e-06
4.77856e-05
6.98315e-06
5.16605e-05
7.92384e-06
5.58487e-05
8.94396e-06
6.03639e-05
1.00497e-05
6.52397e-05
1.12462e-05
7.05247e-05
1.25396e-05
7.62355e-05
1.39449e-05
8.23751e-05
1.54679e-05
8.90212e-05
1.71153e-05
9.6219e-05
1.89036e-05
0.000103958
2.0844e-05
0.000112318
2.29421e-05
0.000121377
2.52245e-05
0.000131087
2.76944e-05
0.000141622
3.03726e-05
0.00015296
3.32773e-05
0.000165176
3.64215e-05
0.00017837
3.98327e-05
0.000192538
4.35228e-05
0.00020784
4.75229e-05
0.000224251
5.18484e-05
0.000241932
5.65292e-05
0.000260887
6.15895e-05
0.000281223
6.70545e-05
0.000303016
7.2961e-05
0.000326267
7.93301e-05
0.000351116
8.61956e-05
0.000377537
9.35913e-05
0.000405551
0.000101543
0.000435187
0.000110083
0.00046637
0.000119241
0.000498989
0.000129041
0.000532913
0.000139503
0.000567891
0.000150641
0.00060357
0.00016246
0.000639466
0.000174951
0.000674927
0.000188089
0.000709093
0.000201828
0.00074084
0.000216097
0.000768724
0.000230787
0.000790902
0.000245759
0.00080505
0.000260808
0.000808258
0.000275681
0.000796927
0.00029003
0.000766648
0.000303421
0.000712163
0.000315264
0.000627354
0.000324857
0.000505038
0.000331275
0.000337669
0.000116018
0.000332983
3.2776e-07
2.15428e-05
2.59421e-08
7.15278e-07
2.32919e-05
1.13464e-06
2.51829e-05
1.58866e-06
2.72271e-05
2.08014e-06
2.9437e-05
2.61187e-06
3.18259e-05
3.18747e-06
3.44082e-05
3.81024e-06
3.71994e-05
4.48503e-06
4.02116e-05
5.21572e-06
4.3469e-05
6.00602e-06
4.69943e-05
6.86113e-06
5.08047e-05
7.78567e-06
5.49232e-05
8.78822e-06
5.93609e-05
9.87492e-06
6.41521e-05
1.10506e-05
6.93484e-05
1.23217e-05
7.49634e-05
1.37026e-05
8.09937e-05
1.5199e-05
8.75238e-05
1.68176e-05
9.45997e-05
1.85745e-05
0.0001022
2.04809e-05
0.000110411
2.2542e-05
0.000119315
2.4784e-05
0.000128844
2.72102e-05
0.000139195
2.98409e-05
0.000150328
3.26938e-05
0.000162322
3.5782e-05
0.000175281
3.91323e-05
0.000189187
4.27563e-05
0.000204215
4.66847e-05
0.000220322
5.09328e-05
0.000237683
5.55294e-05
0.000256289
6.0499e-05
0.000276252
6.58657e-05
0.000297647
7.16662e-05
0.000320464
7.79208e-05
0.00034486
8.46632e-05
0.000370793
9.19262e-05
0.000398286
9.97355e-05
0.000427376
0.000108122
0.000457982
0.000117115
0.000489993
0.000126739
0.000523287
0.000137012
0.000557616
0.000147947
0.000592632
0.00015955
0.00062786
0.00017181
0.000662663
0.000184705
0.000696195
0.000198187
0.000727354
0.000212189
0.000754719
0.000226605
0.00077648
0.0002413
0.000790352
0.000256075
0.000793474
0.00027068
0.00078231
0.000284775
0.000752537
0.000297931
0.00069899
0.000309575
0.000615689
0.000318992
0.000495595
0.00032532
0.0003313
0.000113842
0.000327433
3.18755e-07
2.11875e-05
2.85337e-08
6.99433e-07
2.29078e-05
1.11153e-06
2.47676e-05
1.55761e-06
2.67782e-05
2.0406e-06
2.89517e-05
2.56308e-06
3.13011e-05
3.12876e-06
3.38408e-05
3.74068e-06
3.65857e-05
4.40381e-06
3.95471e-05
5.12173e-06
4.27498e-05
5.89832e-06
4.62166e-05
6.73846e-06
4.99637e-05
7.64694e-06
5.40137e-05
8.63194e-06
5.83752e-05
9.69972e-06
6.30833e-05
1.08549e-05
6.81927e-05
1.21037e-05
7.37136e-05
1.34605e-05
7.96363e-05
1.49307e-05
8.60526e-05
1.6521e-05
9.30087e-05
1.8247e-05
0.000100473
2.01198e-05
0.000108537
2.21446e-05
0.000117289
2.4347e-05
0.000126641
2.67303e-05
0.000136811
2.93143e-05
0.000147744
3.21166e-05
0.000159519
3.51498e-05
0.000172247
3.84404e-05
0.000185896
4.19997e-05
0.000200655
4.58579e-05
0.000216463
5.00299e-05
0.00023351
5.45443e-05
0.000251774
5.94247e-05
0.00027137
6.46952e-05
0.000292375
7.03916e-05
0.000314767
7.65339e-05
0.000338716
8.31551e-05
0.00036417
9.02875e-05
0.000391152
9.79564e-05
0.000419706
0.000106191
0.000449745
0.000115022
0.000481161
0.000124471
0.000513836
0.000134557
0.000547529
0.000145293
0.000581895
0.000156682
0.00061647
0.000168717
0.000650628
0.000181372
0.000683539
0.000194604
0.00071412
0.000208347
0.000740976
0.000222498
0.000762326
0.000236925
0.000775923
0.000251435
0.000778958
0.000265782
0.000767957
0.000279631
0.000738676
0.000292559
0.00068605
0.000304006
0.000604223
0.000313258
0.000486327
0.000319492
0.000325042
0.000111447
0.000321855
3.10267e-07
2.08386e-05
3.13071e-08
6.84232e-07
2.25307e-05
1.08902e-06
2.43599e-05
1.52714e-06
2.63374e-05
2.00154e-06
2.84751e-05
2.51467e-06
3.07858e-05
3.07027e-06
3.32835e-05
3.6713e-06
3.5983e-05
4.32268e-06
3.88945e-05
5.02792e-06
4.20435e-05
5.79085e-06
4.54527e-05
6.61624e-06
4.91376e-05
7.50875e-06
5.31204e-05
8.47648e-06
5.7407e-05
9.52552e-06
6.20335e-05
1.06604e-05
6.70573e-05
1.18873e-05
7.24858e-05
1.32202e-05
7.83028e-05
1.46645e-05
8.46073e-05
1.62268e-05
9.14458e-05
1.79224e-05
9.87759e-05
1.97622e-05
0.000106697
2.17512e-05
0.000115299
2.39147e-05
0.000124477
2.62557e-05
0.000134469
2.8794e-05
0.000145205
3.15465e-05
0.000156766
3.45258e-05
0.000169267
3.77578e-05
0.000182663
4.12536e-05
0.000197159
4.50429e-05
0.000212674
4.91404e-05
0.000229412
5.35738e-05
0.000247339
5.83668e-05
0.000266576
6.35427e-05
0.000287198
6.91366e-05
0.000309171
7.51684e-05
0.000332682
8.16702e-05
0.000357666
8.86738e-05
0.000384147
9.62039e-05
0.000412174
0.000104289
0.000441658
0.00011296
0.000472488
0.000122236
0.000504557
0.000132138
0.000537625
0.000142676
0.000571353
0.000153855
0.000605288
0.000165667
0.000638813
0.000178089
0.000671114
0.000191078
0.000701127
0.000204569
0.000727481
0.000218464
0.000748426
0.000232633
0.000761751
0.000246887
0.000764696
0.000260984
0.000753849
0.000274594
0.00072505
0.0002873
0.000673328
0.000298555
0.000592947
0.00030765
0.000477205
0.000313771
0.000318881
0.000108982
0.000316174
2.99945e-07
2.04956e-05
3.43875e-08
6.66924e-07
2.216e-05
1.06445e-06
2.39591e-05
1.49466e-06
2.59041e-05
1.96072e-06
2.80066e-05
2.46476e-06
3.02793e-05
3.01072e-06
3.27358e-05
3.60115e-06
3.53907e-05
4.24121e-06
3.82532e-05
4.93398e-06
4.13494e-05
5.68358e-06
4.47021e-05
6.49434e-06
4.83259e-05
7.37123e-06
5.22426e-05
8.3218e-06
5.64558e-05
9.35242e-06
6.1002e-05
1.04672e-05
6.59419e-05
1.16725e-05
7.12795e-05
1.29818e-05
7.69929e-05
1.44007e-05
8.31875e-05
1.59353e-05
8.99105e-05
1.7601e-05
9.71093e-05
1.94081e-05
0.000104889
2.13619e-05
0.000113345
2.3487e-05
0.000122351
2.57865e-05
0.000132169
2.82796e-05
0.000142711
3.09831e-05
0.000154062
3.39093e-05
0.00016634
3.70836e-05
0.000179488
4.0517e-05
0.000193725
4.42384e-05
0.000208952
4.82623e-05
0.000225388
5.26163e-05
0.000242984
5.73231e-05
0.000261867
6.24058e-05
0.000282114
6.78988e-05
0.000303677
7.38215e-05
0.000326758
8.02055e-05
0.000351281
8.70819e-05
0.000377269
9.44748e-05
0.000404779
0.000102413
0.000433718
0.000110924
0.000463975
0.000120031
0.000495449
0.000129749
0.000527905
0.000140093
0.000561009
0.000151066
0.000594314
0.00016266
0.000627218
0.000174854
0.00065892
0.000187605
0.000688375
0.000200852
0.000714234
0.0002145
0.000734777
0.000228419
0.000747831
0.000242426
0.000750686
0.00025628
0.00073999
0.000269658
0.000711663
0.000282147
0.000660832
0.000293213
0.000581868
0.000302161
0.000468249
0.000308166
0.000312863
0.00010665
0.000310483
2.90048e-07
2.01589e-05
3.92541e-08
6.50747e-07
2.17961e-05
1.04133e-06
2.35657e-05
1.46396e-06
2.54787e-05
1.92175e-06
2.75467e-05
2.41678e-06
2.9782e-05
2.95293e-06
3.2198e-05
3.5328e-06
3.48092e-05
4.16139e-06
3.76235e-05
4.84183e-06
4.06678e-05
5.57805e-06
4.39651e-05
6.37442e-06
4.75289e-05
7.23567e-06
5.13807e-05
8.16938e-06
5.55216e-05
9.18162e-06
5.99891e-05
1.02766e-05
6.48465e-05
1.14604e-05
7.00949e-05
1.27464e-05
7.57064e-05
1.41399e-05
8.17931e-05
1.56471e-05
8.84026e-05
1.72831e-05
9.54725e-05
1.9058e-05
0.000103114
2.09769e-05
0.000111425
2.30641e-05
0.000120263
2.53225e-05
0.000129909
2.7771e-05
0.000140262
3.04261e-05
0.000151406
3.32999e-05
0.000163466
3.64173e-05
0.00017637
3.9789e-05
0.000190352
4.34435e-05
0.000205297
4.73951e-05
0.000221436
5.16704e-05
0.000238708
5.62922e-05
0.000257244
6.12829e-05
0.000277122
6.66763e-05
0.000298282
7.24915e-05
0.000320942
7.87592e-05
0.000345012
8.55101e-05
0.000370517
9.27677e-05
0.00039752
0.00010056
0.000425924
0.000108915
0.000455618
0.000117853
0.000486509
0.000127393
0.000518363
0.000137546
0.000550853
0.000148316
0.000583541
0.000159697
0.000615834
0.000171668
0.000646945
0.000184189
0.000675849
0.0001972
0.000701219
0.000210607
0.000721365
0.000224284
0.00073415
0.00023805
0.000736912
0.000251669
0.000726362
0.000264821
0.000698497
0.000277097
0.00064854
0.000287977
0.000570969
0.000296781
0.000459422
0.000302681
0.000306927
0.00010439
0.000304883
2.80444e-07
1.98281e-05
4.24036e-08
6.3457e-07
2.14384e-05
1.01819e-06
2.31791e-05
1.43328e-06
2.50608e-05
1.88296e-06
2.70948e-05
2.36922e-06
2.92934e-05
2.89591e-06
3.16697e-05
3.46545e-06
3.42378e-05
4.08289e-06
3.70049e-05
4.75109e-06
3.99983e-05
5.47417e-06
4.32411e-05
6.25616e-06
4.6746e-05
7.10202e-06
5.05341e-05
8.01887e-06
5.46041e-05
9.013e-06
5.89941e-05
1.00882e-05
6.37706e-05
1.12509e-05
6.89314e-05
1.25137e-05
7.44429e-05
1.38823e-05
8.04236e-05
1.53625e-05
8.69218e-05
1.69691e-05
9.38651e-05
1.87121e-05
0.00010137
2.05966e-05
0.00010954
2.26461e-05
0.000118213
2.48639e-05
0.000127691
2.72684e-05
0.000137857
2.98757e-05
0.000148798
3.26976e-05
0.000160643
3.57588e-05
0.000173308
3.90696e-05
0.000187041
4.26581e-05
0.000201708
4.6538e-05
0.000217555
5.0736e-05
0.000234509
5.52738e-05
0.000252705
6.01739e-05
0.00027222
6.54691e-05
0.000292986
7.11781e-05
0.000315232
7.73313e-05
0.000338857
8.39585e-05
0.000363888
9.10829e-05
0.000390394
9.87318e-05
0.000418274
0.000106933
0.000447416
0.000115707
0.000477734
0.00012507
0.000508999
0.000135036
0.000540887
0.000145609
0.000572967
0.000156782
0.00060466
0.000168537
0.000635191
0.000180834
0.000663552
0.000193614
0.000688439
0.000206788
0.000708192
0.00022023
0.000720709
0.000233762
0.000723379
0.00024715
0.000712972
0.00026008
0.000685562
0.000272148
0.000636468
0.000282844
0.000560266
0.000291507
0.000450756
0.000297313
0.000301115
0.00010228
0.000299423
2.73227e-07
1.95037e-05
4.48562e-08
6.21188e-07
2.10876e-05
9.97909e-07
2.27998e-05
1.4055e-06
2.46507e-05
1.84695e-06
2.66515e-05
2.32428e-06
2.8814e-05
2.84125e-06
3.11513e-05
3.40037e-06
3.36771e-05
4.00648e-06
3.63978e-05
4.66259e-06
3.93412e-05
5.3725e-06
4.25304e-05
6.14042e-06
4.59775e-05
6.97092e-06
4.97029e-05
7.87128e-06
5.37033e-05
8.84739e-06
5.80174e-05
9.90324e-06
6.27143e-05
1.10448e-05
6.77891e-05
1.22848e-05
7.32023e-05
1.36286e-05
7.9079e-05
1.5082e-05
8.54678e-05
1.66595e-05
9.22867e-05
1.83709e-05
9.96578e-05
2.02213e-05
0.000107689
2.22338e-05
0.0001162
2.44114e-05
0.000125513
2.67722e-05
0.000135495
2.93323e-05
0.000146237
3.21031e-05
0.000157872
3.51087e-05
0.000170301
3.83594e-05
0.00018379
4.18826e-05
0.000198184
4.56921e-05
0.000213745
4.98135e-05
0.000230387
5.42688e-05
0.000248249
5.90794e-05
0.000267409
6.42779e-05
0.000287786
6.98826e-05
0.000309626
7.59231e-05
0.000332816
8.24288e-05
0.000357381
8.94224e-05
0.000383399
9.69307e-05
0.000410764
0.000104981
0.000439364
0.000113594
0.00046912
0.000122785
0.000499805
0.000132569
0.0005311
0.000142949
0.000562584
0.000153921
0.000593685
0.000165465
0.000623644
0.000177544
0.000651469
0.000190101
0.000675879
0.000203047
0.000695241
0.00021626
0.000707493
0.000229563
0.00071007
0.000242724
0.000699801
0.000255436
0.000672838
0.000267299
0.00062459
0.000277812
0.000549735
0.000286332
0.000442215
0.000292053
0.000295362
0.000100174
0.000294107
2.6576e-07
1.91846e-05
4.4647e-08
6.06847e-07
2.07427e-05
9.76562e-07
2.2427e-05
1.37654e-06
2.42476e-05
1.81006e-06
2.62156e-05
2.27874e-06
2.83428e-05
2.78661e-06
3.06418e-05
3.33564e-06
3.31262e-05
3.93103e-06
3.58012e-05
4.57522e-06
3.86956e-05
5.27247e-06
4.18323e-05
6.02636e-06
4.52226e-05
6.84198e-06
4.88866e-05
7.72588e-06
5.28186e-05
8.68441e-06
5.70582e-05
9.721e-06
6.1677e-05
1.0842e-05
6.66674e-05
1.20594e-05
7.19842e-05
1.33789e-05
7.77588e-05
1.48058e-05
8.40402e-05
1.63546e-05
9.07371e-05
1.80349e-05
9.79768e-05
1.98516e-05
0.000105871
2.18275e-05
0.000114224
2.39654e-05
0.000123374
2.62833e-05
0.000133177
2.87968e-05
0.000143723
3.1517e-05
0.000155151
3.44679e-05
0.00016735
3.76593e-05
0.000180598
4.11183e-05
0.000194725
4.48582e-05
0.000210005
4.89045e-05
0.00022634
5.32784e-05
0.000243874
5.80012e-05
0.000262685
6.31046e-05
0.000282682
6.86068e-05
0.000304123
7.45367e-05
0.000326885
8.09233e-05
0.000350993
8.77889e-05
0.000376533
9.51597e-05
0.000403393
0.000103063
0.00043146
0.000111518
0.000460664
0.000120542
0.00049078
0.000130149
0.000521494
0.000140342
0.000552391
0.000151117
0.00058291
0.000162456
0.000612305
0.000174324
0.000639601
0.000186664
0.00066354
0.000199388
0.000682518
0.000212376
0.000694508
0.000225454
0.000696992
0.000238393
0.000686862
0.000250889
0.000660339
0.000262548
0.000612929
0.00027288
0.000539401
0.000281255
0.000433841
0.000286893
0.000289726
9.81557e-05
0.000288922
2.60646e-07
1.88719e-05
4.56348e-08
5.95918e-07
2.04045e-05
9.59013e-07
2.20613e-05
1.35179e-06
2.38523e-05
1.77733e-06
2.57882e-05
2.23737e-06
2.78806e-05
2.73573e-06
3.0142e-05
3.27463e-06
3.25857e-05
3.85893e-06
3.5216e-05
4.49133e-06
3.80621e-05
5.1757e-06
4.11473e-05
5.91587e-06
4.44818e-05
6.71645e-06
4.80855e-05
7.58428e-06
5.19504e-05
8.52519e-06
5.61167e-05
9.54288e-06
6.06589e-05
1.06433e-05
6.55664e-05
1.18384e-05
7.07885e-05
1.31337e-05
7.64628e-05
1.45345e-05
8.26387e-05
1.60551e-05
8.92158e-05
1.77047e-05
9.63266e-05
1.94882e-05
0.000104087
2.14279e-05
0.000112283
2.35268e-05
0.000121274
2.58024e-05
0.000130901
2.82699e-05
0.000141254
3.09405e-05
0.00015248
3.38375e-05
0.000164452
3.69706e-05
0.000177464
4.03664e-05
0.000191329
4.40381e-05
0.000206333
4.80104e-05
0.000222367
5.23045e-05
0.000239579
5.6941e-05
0.000258047
6.19513e-05
0.00027767
6.73529e-05
0.00029872
7.31747e-05
0.000321062
7.94447e-05
0.000344722
8.61851e-05
0.000369791
9.34218e-05
0.000396154
0.000101181
0.000423699
0.000109483
0.00045236
0.000118345
0.000481916
0.000127778
0.000512058
0.00013779
0.000542377
0.000148374
0.000572322
0.000159515
0.000601161
0.000171176
0.000627936
0.000183304
0.000651409
0.00019581
0.000670007
0.000208579
0.000681737
0.000221435
0.00068413
0.000234154
0.000674134
0.000246437
0.000648045
0.000257895
0.000601459
0.000268044
0.000529237
0.000276273
0.000425593
0.000281827
0.000284144
9.60909e-05
0.000283847
2.55168e-07
1.85645e-05
4.46589e-08
5.84122e-07
2.00722e-05
9.40595e-07
2.17021e-05
1.32623e-06
2.34639e-05
1.74409e-06
2.53683e-05
2.19586e-06
2.74267e-05
2.6853e-06
2.96511e-05
3.21443e-06
3.20548e-05
3.78817e-06
3.46412e-05
4.40896e-06
3.744e-05
5.08083e-06
4.04746e-05
5.80732e-06
4.37543e-05
6.59331e-06
4.72988e-05
7.44509e-06
5.10979e-05
8.36882e-06
5.51923e-05
9.36778e-06
5.96593e-05
1.04481e-05
6.44854e-05
1.16214e-05
6.96146e-05
1.2893e-05
7.51904e-05
1.42682e-05
8.12629e-05
1.5761e-05
8.77224e-05
1.73804e-05
9.47066e-05
1.91313e-05
0.000102335
2.10356e-05
0.000110378
2.30962e-05
0.000119213
2.53301e-05
0.000128666
2.77526e-05
0.000138831
3.03745e-05
0.000149857
3.32185e-05
0.000161608
3.62945e-05
0.000174387
3.96283e-05
0.000187994
4.32329e-05
0.000202728
4.7133e-05
0.000218466
5.13487e-05
0.000235362
5.59008e-05
0.000253494
6.08198e-05
0.00027275
6.61232e-05
0.000293416
7.18391e-05
0.000315345
7.79954e-05
0.000338565
8.46137e-05
0.000363172
9.17195e-05
0.000389048
9.93391e-05
0.000416079
0.000107492
0.000444206
0.000116195
0.000473213
0.000125461
0.000502791
0.000135295
0.000532542
0.000145694
0.000561924
0.000156641
0.000590215
0.000168101
0.000616476
0.000180021
0.000639492
0.000192315
0.000657714
0.000204866
0.00066919
0.000217504
0.000671494
0.000230006
0.000661634
0.000242077
0.000635975
0.000253334
0.000590202
0.000263303
0.000519269
0.000271384
0.000417517
0.00027685
0.000278687
9.40993e-05
0.000278863
2.51501e-07
1.82634e-05
4.45373e-08
5.74854e-07
1.97466e-05
9.24855e-07
2.135e-05
1.3035e-06
2.30832e-05
1.71354e-06
2.49567e-05
2.1569e-06
2.69815e-05
2.63704e-06
2.91697e-05
3.15634e-06
3.15341e-05
3.71929e-06
3.40774e-05
4.32869e-06
3.68297e-05
4.98809e-06
3.98146e-05
5.70138e-06
4.30406e-05
6.47281e-06
4.65269e-05
7.30913e-06
5.02613e-05
8.21586e-06
5.42851e-05
9.19662e-06
5.86782e-05
1.02571e-05
6.34243e-05
1.14089e-05
6.84622e-05
1.26573e-05
7.39414e-05
1.40073e-05
7.99122e-05
1.54728e-05
8.62562e-05
1.70626e-05
9.31162e-05
1.87815e-05
0.000100616
2.06511e-05
0.000108508
2.26741e-05
0.000117189
2.48673e-05
0.000126472
2.72456e-05
0.000136452
2.98197e-05
0.000147283
3.26119e-05
0.000158815
3.56319e-05
0.000171367
3.8905e-05
0.000184721
4.24441e-05
0.000199188
4.62732e-05
0.000214637
5.04125e-05
0.000231222
5.48819e-05
0.000249024
5.97118e-05
0.00026792
6.49192e-05
0.000288207
7.05319e-05
0.000309731
7.65771e-05
0.000332518
8.30762e-05
0.000356671
9.00545e-05
0.000382068
9.75378e-05
0.000408594
0.000105545
0.000436197
0.000114094
0.000464662
0.000123197
0.000493687
0.000132859
0.000522878
0.000143076
0.000551703
0.000153834
0.000579455
0.000165098
0.000605209
0.000176813
0.000627772
0.000188898
0.000645625
0.000201236
0.00065685
0.000213658
0.000659067
0.000225944
0.00064934
0.000237805
0.000624104
0.000248864
0.000579131
0.000258653
0.000509466
0.000266586
0.000409567
0.000271958
0.00027329
9.20631e-05
0.000273957
2.45796e-07
1.79671e-05
4.24011e-08
5.62543e-07
1.94262e-05
9.05973e-07
2.10036e-05
1.27746e-06
2.27088e-05
1.68017e-06
2.45519e-05
2.11549e-06
2.65438e-05
2.58727e-06
2.86964e-05
3.0972e-06
3.10224e-05
3.65028e-06
3.35233e-05
4.24858e-06
3.62301e-05
4.89625e-06
3.91662e-05
5.59644e-06
4.23394e-05
6.35409e-06
4.57687e-05
7.17503e-06
4.94395e-05
8.06544e-06
5.33941e-05
9.02825e-06
5.77147e-05
1.00696e-05
6.23824e-05
1.12004e-05
6.73307e-05
1.24261e-05
7.27151e-05
1.37516e-05
7.85861e-05
1.51905e-05
8.48167e-05
1.67513e-05
9.15547e-05
1.84391e-05
9.89273e-05
2.02746e-05
0.000106672
2.22608e-05
0.000115203
2.44142e-05
0.000124319
2.67493e-05
0.000134117
2.92767e-05
0.000144755
3.20182e-05
0.000156073
3.49835e-05
0.000168401
3.81973e-05
0.000181507
4.16723e-05
0.000195713
4.54322e-05
0.000210876
4.94967e-05
0.000227157
5.38855e-05
0.000244634
5.86284e-05
0.000263176
6.3742e-05
0.000283093
6.92539e-05
0.000304218
7.51907e-05
0.000326581
8.15737e-05
0.000350287
8.84277e-05
0.000375213
9.5778e-05
0.000401243
0.000103644
0.000428331
0.000112042
0.000456264
0.000120985
0.000484744
0.000130479
0.000513384
0.00014052
0.000541663
0.000151092
0.000568884
0.000162163
0.00059414
0.000173678
0.000616259
0.000185556
0.000633749
0.000197683
0.000644728
0.000209891
0.000646862
0.000221964
0.000637269
0.000233616
0.000612453
0.000244478
0.000568271
0.000254089
0.000499859
0.000261875
0.00040179
0.00026715
0.000268029
9.01192e-05
0.000269123
2.41616e-07
1.76767e-05
4.3371e-08
5.53165e-07
1.91122e-05
8.9051e-07
2.06641e-05
1.2554e-06
2.23417e-05
1.65069e-06
2.4155e-05
2.078e-06
2.61147e-05
2.5409e-06
2.82323e-05
3.04144e-06
3.05204e-05
3.58417e-06
3.29798e-05
4.17157e-06
3.56418e-05
4.80726e-06
3.853e-05
5.49481e-06
4.16514e-05
6.23849e-06
4.50246e-05
7.04464e-06
4.86331e-05
7.91872e-06
5.25196e-05
8.8641e-06
5.67689e-05
9.88639e-06
6.13596e-05
1.09967e-05
6.62199e-05
1.22001e-05
7.15111e-05
1.35015e-05
7.72841e-05
1.49142e-05
8.34033e-05
1.64468e-05
9.00215e-05
1.8104e-05
9.72695e-05
1.99063e-05
0.000104869
2.18566e-05
0.000113252
2.3971e-05
0.000122204
2.6264e-05
0.000131823
2.87457e-05
0.000142272
3.14378e-05
0.00015338
3.43496e-05
0.000165489
3.75055e-05
0.00017835
4.0918e-05
0.0001923
4.46102e-05
0.000207183
4.86018e-05
0.000223165
5.29119e-05
0.000240323
5.75698e-05
0.000258517
6.2592e-05
0.00027807
6.80054e-05
0.000298804
7.38366e-05
0.000320749
8.01062e-05
0.000344017
8.68388e-05
0.00036848
9.40595e-05
0.000394021
0.000101787
0.000420601
0.000110038
0.000448011
0.000118826
0.000475954
0.000128155
0.000504053
0.000138022
0.000531793
0.000148413
0.000558491
0.000159293
0.000583256
0.000170612
0.000604938
0.000182286
0.000622071
0.000194204
0.000632809
0.0002062
0.000634861
0.000218062
0.000625401
0.000229507
0.000600998
0.000240174
0.000557595
0.000249608
0.000490412
0.000257247
0.000394137
0.000262421
0.000262834
8.81537e-05
0.000264357
2.35513e-07
1.73913e-05
4.33058e-08
5.41234e-07
1.88035e-05
8.72524e-07
2.03304e-05
1.2309e-06
2.19809e-05
1.61919e-06
2.37649e-05
2.039e-06
2.56929e-05
2.49377e-06
2.77763e-05
2.98541e-06
3.00272e-05
3.51849e-06
3.24458e-05
4.09526e-06
3.50638e-05
4.71951e-06
3.7905e-05
5.39448e-06
4.09755e-05
6.12479e-06
4.42936e-05
6.91619e-06
4.78409e-05
7.77454e-06
5.16606e-05
8.70275e-06
5.584e-05
9.70667e-06
6.03551e-05
1.07969e-05
6.5129e-05
1.19787e-05
7.03287e-05
1.32566e-05
7.60055e-05
1.4644e-05
8.20154e-05
1.6149e-05
8.85159e-05
1.77763e-05
9.56416e-05
1.95462e-05
0.000103099
2.14614e-05
0.000111336
2.35379e-05
0.000120127
2.57897e-05
0.000129571
2.82268e-05
0.000139835
3.08707e-05
0.000150736
3.37302e-05
0.000162629
3.68296e-05
0.000175251
4.0181e-05
0.000188949
4.38073e-05
0.000203557
4.77275e-05
0.000219244
5.19608e-05
0.000236089
5.65358e-05
0.000253942
6.14687e-05
0.000273136
6.67861e-05
0.000293486
7.2514e-05
0.00031502
7.86728e-05
0.000337857
8.52869e-05
0.000361865
9.23808e-05
0.000386926
9.99732e-05
0.000413009
0.000108081
0.000439903
0.000116715
0.00046732
0.000125883
0.000494886
0.00013558
0.000522096
0.000145792
0.000548281
0.000156485
0.000572564
0.000167609
0.000593817
0.000179082
0.000610601
0.000190793
0.000621103
0.00020258
0.000623078
0.000214232
0.000613752
0.000225473
0.000589761
0.000235945
0.000547126
0.000245204
0.000481159
0.000252698
0.000386654
0.00025777
0.000257781
8.63025e-05
0.000259659
2.3076e-07
1.71115e-05
4.51489e-08
5.31544e-07
1.8501e-05
8.5696e-07
2.00033e-05
1.20902e-06
2.16272e-05
1.59013e-06
2.33824e-05
2.00225e-06
2.52793e-05
2.44846e-06
2.7329e-05
2.93112e-06
2.95434e-05
3.45427e-06
3.19219e-05
4.02066e-06
3.44967e-05
4.63347e-06
3.72916e-05
5.29643e-06
4.03121e-05
6.01341e-06
4.35762e-05
6.79076e-06
4.70633e-05
7.63354e-06
5.08174e-05
8.54519e-06
5.49281e-05
9.53096e-06
5.93688e-05
1.06017e-05
6.40579e-05
1.17622e-05
6.91676e-05
1.30172e-05
7.47498e-05
1.43797e-05
8.06523e-05
1.58577e-05
8.70372e-05
1.74559e-05
9.40428e-05
1.91941e-05
0.00010136
2.10752e-05
0.000109454
2.31145e-05
0.000118087
2.53261e-05
0.000127359
2.77198e-05
0.000137441
3.03165e-05
0.000148138
3.3125e-05
0.00015982
3.61693e-05
0.000172206
3.94611e-05
0.000185657
4.30228e-05
0.000199994
4.68736e-05
0.000215393
5.10318e-05
0.000231931
5.55257e-05
0.000249447
6.03714e-05
0.00026829
6.55948e-05
0.000288262
7.12218e-05
0.000309392
7.72724e-05
0.000331806
8.37704e-05
0.000355366
9.07401e-05
0.000379955
9.82001e-05
0.000405547
0.000106166
0.000431936
0.000114651
0.000458833
0.00012366
0.000485875
0.00013319
0.000512564
0.000143226
0.000538244
0.000153735
0.000562053
0.000164666
0.000582883
0.00017594
0.000599324
0.000187447
0.000609596
0.000199026
0.000611495
0.00021047
0.000602302
0.000221508
0.000578715
0.000231789
0.000536836
0.000240875
0.000472062
0.000248226
0.000379291
0.000253194
0.000252797
8.44472e-05
0.000255028
2.23383e-07
1.68359e-05
4.48636e-08
5.18017e-07
1.82031e-05
8.3743e-07
1.96812e-05
1.18293e-06
2.12791e-05
1.55742e-06
2.3006e-05
1.96225e-06
2.48724e-05
2.40095e-06
2.6889e-05
2.87512e-06
2.90676e-05
3.38938e-06
3.14068e-05
3.94568e-06
3.39391e-05
4.54791e-06
3.66887e-05
5.19893e-06
3.96601e-05
5.90346e-06
4.28711e-05
6.66679e-06
4.62992e-05
7.4948e-06
4.99889e-05
8.3901e-06
5.40321e-05
9.35851e-06
5.83998e-05
1.04101e-05
6.30056e-05
1.15501e-05
6.80271e-05
1.27828e-05
7.35165e-05
1.4121e-05
7.93135e-05
1.55728e-05