/*--------------------------------*- C++ -*----------------------------------*\
  =========                 |
  \\      /  F ield         | OpenFOAM: The Open Source CFD Toolbox
   \\    /   O peration     | Website:  https://openfoam.org
    \\  /    A nd           | Version:  6.0
     \\/     M anipulation  |
\*---------------------------------------------------------------------------*/
FoamFile
{
    version     2.0;
    format      ascii;
    class       volScalarField;
    location    "1.93";
    object      p;
}
// * * * * * * * * * * * * * * * * * * * * * * * * * * * * * * * * * * * * * //

dimensions      [0 2 -2 0 0 0 0];

internalField   nonuniform List<scalar> 
13500
(
0.098832
0.098843
0.098384
0.097891
0.097078
0.096479
0.095981
0.096371
0.097971
0.10211
0.12348
0.16733
0.098833
0.098843
0.098384
0.097891
0.097078
0.096479
0.095981
0.096371
0.097968
0.10217
0.1228
0.16227
0.098833
0.098844
0.098384
0.097892
0.097079
0.096478
0.09598
0.096369
0.097959
0.10222
0.12192
0.15778
0.098834
0.098845
0.098385
0.097893
0.097079
0.096478
0.095978
0.096365
0.097945
0.10224
0.12094
0.1543
0.098835
0.098846
0.098386
0.097894
0.097079
0.096477
0.095975
0.09636
0.097925
0.10225
0.1199
0.15136
0.098836
0.098848
0.098387
0.097895
0.097079
0.096476
0.095972
0.096354
0.0979
0.10224
0.11882
0.14875
0.098838
0.09885
0.098388
0.097896
0.097079
0.096475
0.095968
0.096347
0.097871
0.10223
0.11773
0.14638
0.09884
0.098853
0.09839
0.097898
0.09708
0.096474
0.095964
0.096338
0.097837
0.10219
0.11666
0.14421
0.098843
0.098856
0.098392
0.0979
0.09708
0.096473
0.095958
0.096328
0.097797
0.10215
0.1156
0.14221
0.098846
0.098859
0.098395
0.097902
0.097081
0.096471
0.095953
0.096316
0.097753
0.10209
0.11458
0.14034
0.098849
0.098862
0.098397
0.097904
0.097081
0.096469
0.095947
0.096303
0.097704
0.10202
0.11359
0.13858
0.098852
0.098866
0.0984
0.097906
0.097082
0.096467
0.09594
0.096289
0.09765
0.10194
0.11264
0.13693
0.098856
0.09887
0.098403
0.097909
0.097082
0.096464
0.095932
0.096273
0.097591
0.10185
0.11174
0.13536
0.098861
0.098874
0.098407
0.097911
0.097083
0.096462
0.095924
0.096256
0.097527
0.10175
0.11087
0.13387
0.098866
0.098879
0.098411
0.097914
0.097084
0.096459
0.095915
0.096238
0.097457
0.10164
0.11004
0.13245
0.098871
0.098884
0.098415
0.097918
0.097085
0.096456
0.095906
0.096218
0.097383
0.10153
0.10925
0.13109
0.098876
0.09889
0.09842
0.097921
0.097086
0.096453
0.095896
0.096196
0.097304
0.10141
0.10849
0.12979
0.098882
0.098896
0.098424
0.097925
0.097087
0.09645
0.095886
0.096173
0.09722
0.10129
0.10775
0.12854
0.098888
0.098902
0.098429
0.097928
0.097088
0.096446
0.095875
0.096149
0.097132
0.10116
0.10705
0.12733
0.098895
0.098908
0.098435
0.097932
0.097089
0.096442
0.095863
0.096123
0.097039
0.10104
0.10636
0.12617
0.098902
0.098915
0.098441
0.097937
0.09709
0.096438
0.095851
0.096096
0.096942
0.10091
0.1057
0.12504
0.09891
0.098923
0.098447
0.097941
0.097091
0.096434
0.095838
0.096067
0.096842
0.10079
0.10505
0.12396
0.098918
0.09893
0.098453
0.097946
0.097093
0.09643
0.095825
0.096037
0.096737
0.10066
0.10442
0.1229
0.098926
0.098938
0.09846
0.097951
0.097094
0.096425
0.095811
0.096005
0.09663
0.10054
0.1038
0.12188
0.098935
0.098947
0.098467
0.097956
0.097096
0.09642
0.095797
0.095972
0.09652
0.10041
0.10319
0.12088
0.098944
0.098956
0.098475
0.097961
0.097097
0.096415
0.095782
0.095937
0.096407
0.10029
0.1026
0.11991
0.098954
0.098965
0.098483
0.097967
0.097099
0.09641
0.095766
0.095901
0.096291
0.10017
0.10201
0.11896
0.098964
0.098975
0.098491
0.097973
0.097101
0.096404
0.09575
0.095864
0.096174
0.10005
0.10143
0.11803
0.098975
0.098985
0.098499
0.097979
0.097103
0.096399
0.095734
0.095826
0.096054
0.099934
0.10086
0.11713
0.098986
0.098995
0.098508
0.097985
0.097105
0.096393
0.095716
0.095786
0.095933
0.099815
0.1003
0.11624
0.098997
0.099006
0.098517
0.097992
0.097107
0.096387
0.095699
0.095746
0.095811
0.099697
0.09974
0.11538
0.099009
0.099018
0.098527
0.097999
0.097109
0.096381
0.09568
0.095704
0.095687
0.099579
0.099189
0.11453
0.099021
0.099029
0.098537
0.098006
0.097112
0.096375
0.095661
0.095661
0.095562
0.099461
0.098645
0.1137
0.099034
0.099042
0.098548
0.098014
0.097114
0.096368
0.095642
0.095617
0.095437
0.099342
0.098108
0.11289
0.099047
0.099054
0.098558
0.098021
0.097117
0.096361
0.095622
0.095573
0.09531
0.099222
0.097576
0.11209
0.099061
0.099067
0.098569
0.098029
0.097119
0.096354
0.095601
0.095527
0.095183
0.099102
0.097052
0.11131
0.099075
0.099081
0.098581
0.098038
0.097122
0.096348
0.09558
0.095481
0.095054
0.09898
0.096534
0.11055
0.09909
0.099095
0.098593
0.098046
0.097125
0.09634
0.095559
0.095434
0.094926
0.098857
0.096023
0.1098
0.099105
0.099109
0.098605
0.098055
0.097128
0.096333
0.095536
0.095387
0.094796
0.098732
0.095519
0.10906
0.099121
0.099124
0.098618
0.098065
0.097131
0.096326
0.095514
0.095339
0.094666
0.098606
0.095021
0.10834
0.099137
0.09914
0.098631
0.098074
0.097134
0.096318
0.09549
0.09529
0.094535
0.098478
0.094531
0.10763
0.099154
0.099156
0.098645
0.098084
0.097138
0.096311
0.095466
0.095241
0.094404
0.098348
0.094048
0.10693
0.099171
0.099172
0.098659
0.098094
0.097141
0.096303
0.095442
0.095192
0.094272
0.098217
0.093572
0.10625
0.099189
0.099189
0.098673
0.098104
0.097145
0.096295
0.095417
0.095142
0.094139
0.098083
0.093103
0.10558
0.099207
0.099206
0.098688
0.098115
0.097148
0.096287
0.095391
0.095093
0.094006
0.097948
0.092641
0.10492
0.099226
0.099224
0.098703
0.098126
0.097152
0.096279
0.095365
0.095042
0.093872
0.09781
0.092187
0.10428
0.099245
0.099242
0.098719
0.098138
0.097156
0.096271
0.095338
0.094992
0.093737
0.097671
0.09174
0.10364
0.099265
0.099261
0.098735
0.098149
0.097161
0.096263
0.09531
0.094941
0.093601
0.097529
0.0913
0.10302
0.099286
0.099281
0.098752
0.098162
0.097165
0.096255
0.095282
0.09489
0.093465
0.097386
0.090868
0.1024
0.099307
0.0993
0.098769
0.098174
0.09717
0.096246
0.095254
0.094839
0.093328
0.097241
0.090443
0.1018
0.099328
0.099321
0.098786
0.098187
0.097174
0.096238
0.095225
0.094788
0.09319
0.097093
0.090025
0.10121
0.09935
0.099342
0.098804
0.0982
0.097179
0.09623
0.095195
0.094736
0.093052
0.096944
0.089615
0.10062
0.099373
0.099363
0.098823
0.098213
0.097184
0.096222
0.095165
0.094685
0.092913
0.096793
0.089211
0.10005
0.099396
0.099385
0.098842
0.098227
0.097189
0.096213
0.095135
0.094633
0.092773
0.096641
0.088814
0.099485
0.09942
0.099408
0.098861
0.098242
0.097195
0.096205
0.095103
0.094581
0.092632
0.096486
0.088425
0.09893
0.099444
0.099431
0.098881
0.098256
0.0972
0.096197
0.095072
0.094529
0.092491
0.09633
0.088042
0.098383
0.099469
0.099455
0.098901
0.098271
0.097206
0.096188
0.095039
0.094477
0.09235
0.096173
0.087666
0.097845
0.099494
0.099479
0.098922
0.098287
0.097212
0.09618
0.095006
0.094425
0.092207
0.096013
0.087297
0.097315
0.09952
0.099504
0.098943
0.098303
0.097218
0.096172
0.094973
0.094373
0.092065
0.095853
0.086934
0.096793
0.099547
0.099529
0.098965
0.098319
0.097224
0.096163
0.094939
0.09432
0.091921
0.09569
0.086577
0.096279
0.099575
0.099555
0.098987
0.098335
0.097231
0.096155
0.094905
0.094268
0.091777
0.095527
0.086227
0.095773
0.099602
0.099582
0.09901
0.098352
0.097237
0.096147
0.09487
0.094215
0.091633
0.095361
0.085883
0.095274
0.099631
0.099609
0.099034
0.09837
0.097244
0.096139
0.094835
0.094162
0.091489
0.095195
0.085545
0.094782
0.09966
0.099637
0.099058
0.098388
0.097251
0.096131
0.094799
0.094109
0.091344
0.095027
0.085214
0.094297
0.09969
0.099665
0.099082
0.098406
0.097259
0.096123
0.094763
0.094056
0.091199
0.094858
0.084888
0.093819
0.099721
0.099694
0.099107
0.098425
0.097266
0.096115
0.094727
0.094003
0.091053
0.094688
0.084568
0.093348
0.099752
0.099724
0.099133
0.098444
0.097274
0.096107
0.09469
0.09395
0.090908
0.094517
0.084253
0.092883
0.099784
0.099754
0.099159
0.098464
0.097282
0.0961
0.094652
0.093897
0.090762
0.094344
0.083944
0.092424
0.099816
0.099785
0.099185
0.098484
0.097291
0.096092
0.094614
0.093843
0.090616
0.094171
0.08364
0.091972
0.099849
0.099817
0.099213
0.098504
0.0973
0.096084
0.094576
0.093789
0.09047
0.093996
0.083342
0.091525
0.099883
0.099849
0.099241
0.098525
0.097308
0.096077
0.094537
0.093736
0.090324
0.093821
0.083049
0.091085
0.099918
0.099882
0.099269
0.098547
0.097318
0.09607
0.094498
0.093682
0.090179
0.093644
0.082761
0.09065
0.099953
0.099916
0.099298
0.098569
0.097327
0.096063
0.094459
0.093628
0.090033
0.093467
0.082478
0.090221
0.099989
0.09995
0.099328
0.098591
0.097337
0.096056
0.094419
0.093574
0.089887
0.093289
0.082199
0.089797
0.10003
0.099985
0.099358
0.098614
0.097347
0.096049
0.094379
0.09352
0.089742
0.09311
0.081926
0.089379
0.10006
0.10002
0.099389
0.098637
0.097358
0.096042
0.094339
0.093465
0.089596
0.09293
0.081657
0.088966
0.1001
0.10006
0.09942
0.098661
0.097368
0.096036
0.094298
0.093411
0.089451
0.092749
0.081393
0.088558
0.10014
0.10009
0.099453
0.098686
0.097379
0.096029
0.094257
0.093356
0.089306
0.092568
0.081132
0.088155
0.10018
0.10013
0.099485
0.098711
0.097391
0.096023
0.094215
0.093302
0.089162
0.092386
0.080877
0.087757
0.10022
0.10017
0.099519
0.098736
0.097403
0.096018
0.094174
0.093247
0.089017
0.092203
0.080625
0.087363
0.10026
0.10021
0.099553
0.098762
0.097415
0.096012
0.094132
0.093192
0.088874
0.092019
0.080378
0.086974
0.1003
0.10025
0.099588
0.098789
0.097427
0.096007
0.094089
0.093137
0.08873
0.091835
0.080134
0.08659
0.10035
0.10029
0.099624
0.098816
0.09744
0.096001
0.094047
0.093081
0.088587
0.091651
0.079895
0.08621
0.10039
0.10033
0.09966
0.098843
0.097453
0.095996
0.094004
0.093026
0.088444
0.091465
0.079659
0.085834
0.10043
0.10038
0.099697
0.098872
0.097467
0.095992
0.093961
0.09297
0.088302
0.09128
0.079427
0.085463
0.10048
0.10042
0.099735
0.098901
0.097481
0.095988
0.093918
0.092914
0.088161
0.091093
0.079198
0.085095
0.10052
0.10046
0.099773
0.09893
0.097495
0.095984
0.093875
0.092858
0.08802
0.090906
0.078973
0.084732
0.10057
0.10051
0.099812
0.09896
0.09751
0.09598
0.093831
0.092802
0.087879
0.090719
0.078752
0.084372
0.10062
0.10055
0.099852
0.098991
0.097525
0.095976
0.093787
0.092746
0.087739
0.090532
0.078533
0.084016
0.10067
0.1006
0.099893
0.099022
0.097541
0.095973
0.093744
0.092689
0.0876
0.090343
0.078318
0.083664
0.10072
0.10065
0.099935
0.099054
0.097557
0.095971
0.0937
0.092633
0.087461
0.090155
0.078106
0.083316
0.10077
0.1007
0.099978
0.099086
0.097573
0.095968
0.093656
0.092576
0.087322
0.089966
0.077897
0.082971
0.10082
0.10075
0.10002
0.09912
0.09759
0.095967
0.093611
0.092518
0.087185
0.089777
0.077691
0.082629
0.10087
0.1008
0.10007
0.099154
0.097608
0.095965
0.093567
0.092461
0.087048
0.089587
0.077488
0.082291
0.10092
0.10085
0.10011
0.099188
0.097626
0.095964
0.093523
0.092403
0.086912
0.089397
0.077288
0.081956
0.10098
0.1009
0.10016
0.099224
0.097644
0.095963
0.093478
0.092346
0.086776
0.089207
0.07709
0.081624
0.10103
0.10095
0.1002
0.09926
0.097663
0.095963
0.093434
0.092288
0.086641
0.089016
0.076894
0.081296
0.10109
0.10101
0.10025
0.099297
0.097682
0.095963
0.09339
0.092229
0.086507
0.088826
0.076702
0.08097
0.10115
0.10106
0.1003
0.099334
0.097702
0.095964
0.093345
0.092171
0.086374
0.088635
0.076511
0.080647
0.10121
0.10112
0.10035
0.099373
0.097723
0.095965
0.093301
0.092112
0.086241
0.088443
0.076323
0.080326
0.10127
0.10118
0.1004
0.099412
0.097744
0.095967
0.093257
0.092053
0.086109
0.088252
0.076137
0.080009
0.10133
0.10123
0.10045
0.099452
0.097765
0.095969
0.093213
0.091994
0.085978
0.08806
0.075954
0.079694
0.10139
0.10129
0.1005
0.099493
0.097787
0.095972
0.093169
0.091934
0.085847
0.087868
0.075772
0.079382
0.10145
0.10135
0.10056
0.099535
0.09781
0.095975
0.093125
0.091875
0.085718
0.087676
0.075592
0.079072
0.10151
0.10142
0.10061
0.099578
0.097834
0.095979
0.093081
0.091815
0.085589
0.087483
0.075414
0.078764
0.10158
0.10148
0.10067
0.099621
0.097858
0.095984
0.093037
0.091754
0.085461
0.087291
0.075238
0.078459
0.10165
0.10154
0.10073
0.099666
0.097882
0.095989
0.092994
0.091694
0.085333
0.087098
0.075064
0.078155
0.10171
0.10161
0.10078
0.099712
0.097908
0.095995
0.092951
0.091633
0.085206
0.086905
0.074892
0.077854
0.10178
0.10167
0.10084
0.099759
0.097934
0.096001
0.092908
0.091572
0.085081
0.086712
0.07472
0.077555
0.10185
0.10174
0.1009
0.099807
0.097961
0.096009
0.092866
0.091511
0.084955
0.086518
0.074551
0.077258
0.10193
0.10181
0.10097
0.099855
0.097989
0.096016
0.092823
0.09145
0.084831
0.086325
0.074383
0.076963
0.102
0.10188
0.10103
0.099906
0.098017
0.096025
0.092781
0.091388
0.084708
0.086131
0.074216
0.076669
0.10207
0.10195
0.10109
0.099957
0.098046
0.096034
0.09274
0.091326
0.084585
0.085937
0.07405
0.076377
0.10215
0.10203
0.10116
0.10001
0.098076
0.096044
0.092699
0.091264
0.084463
0.085743
0.073886
0.076087
0.10223
0.1021
0.10123
0.10006
0.098108
0.096055
0.092658
0.091202
0.084342
0.085549
0.073722
0.075798
0.10231
0.10218
0.1013
0.10012
0.09814
0.096067
0.092618
0.09114
0.084221
0.085355
0.07356
0.07551
0.10239
0.10226
0.10137
0.10017
0.098173
0.09608
0.092578
0.091077
0.084102
0.08516
0.073399
0.075224
0.10247
0.10234
0.10144
0.10023
0.098207
0.096093
0.092539
0.091014
0.083983
0.084965
0.073238
0.074939
0.10255
0.10242
0.10151
0.10029
0.098242
0.096107
0.0925
0.090951
0.083865
0.08477
0.073078
0.074655
0.10264
0.1025
0.10159
0.10035
0.098278
0.096123
0.092462
0.090888
0.083747
0.084575
0.072919
0.074372
0.10273
0.10259
0.10166
0.10041
0.098315
0.096139
0.092425
0.090825
0.083631
0.08438
0.07276
0.07409
0.10282
0.10268
0.10174
0.10048
0.098354
0.096156
0.092388
0.090761
0.083515
0.084185
0.072602
0.073809
0.10291
0.10276
0.10182
0.10054
0.098393
0.096175
0.092352
0.090698
0.0834
0.083989
0.072445
0.073529
0.103
0.10285
0.10191
0.10061
0.098434
0.096194
0.092317
0.090634
0.083286
0.083793
0.072288
0.073249
0.1031
0.10295
0.10199
0.10068
0.098477
0.096215
0.092283
0.090571
0.083173
0.083597
0.072131
0.07297
0.10319
0.10304
0.10208
0.10075
0.098521
0.096237
0.09225
0.090507
0.08306
0.083401
0.071974
0.072692
0.10329
0.10314
0.10216
0.10082
0.098566
0.09626
0.092217
0.090443
0.082948
0.083205
0.071818
0.072414
0.10339
0.10324
0.10225
0.1009
0.098613
0.096284
0.092186
0.09038
0.082837
0.083008
0.071662
0.072136
0.1035
0.10334
0.10235
0.10098
0.098662
0.09631
0.092155
0.090316
0.082727
0.082811
0.071505
0.071858
0.1036
0.10345
0.10244
0.10106
0.098712
0.096337
0.092126
0.090252
0.082618
0.082614
0.071349
0.071581
0.10371
0.10355
0.10254
0.10114
0.098764
0.096365
0.092097
0.090189
0.082509
0.082417
0.071192
0.071303
0.10383
0.10366
0.10264
0.10122
0.098818
0.096396
0.09207
0.090126
0.082401
0.08222
0.071035
0.071025
0.10394
0.10377
0.10274
0.10131
0.098874
0.096427
0.092044
0.090062
0.082294
0.082022
0.070878
0.070748
0.10406
0.10389
0.10285
0.1014
0.098932
0.096461
0.09202
0.089999
0.082188
0.081824
0.070721
0.070469
0.10418
0.10401
0.10295
0.10149
0.098992
0.096496
0.091997
0.089937
0.082082
0.081625
0.070563
0.070191
0.1043
0.10413
0.10306
0.10158
0.099054
0.096533
0.091976
0.089874
0.081978
0.081427
0.070404
0.069912
0.10443
0.10425
0.10318
0.10168
0.099118
0.096571
0.091956
0.089812
0.081874
0.081228
0.070245
0.069632
0.10456
0.10438
0.10329
0.10178
0.099186
0.096612
0.091937
0.08975
0.081771
0.081029
0.070085
0.069351
0.10469
0.10451
0.10341
0.10188
0.099255
0.096655
0.091921
0.089689
0.081669
0.080829
0.069925
0.06907
0.10483
0.10465
0.10354
0.10199
0.099328
0.0967
0.091906
0.089628
0.081568
0.08063
0.069763
0.068788
0.10497
0.10478
0.10367
0.1021
0.099403
0.096748
0.091893
0.089568
0.081467
0.08043
0.069601
0.068504
0.10511
0.10493
0.1038
0.10221
0.099481
0.096797
0.091882
0.089508
0.081368
0.080229
0.069437
0.06822
0.10526
0.10507
0.10393
0.10233
0.099562
0.09685
0.091874
0.089449
0.081269
0.080029
0.069273
0.067934
0.10541
0.10522
0.10407
0.10245
0.099646
0.096904
0.091867
0.089391
0.081171
0.079828
0.069107
0.067646
0.10556
0.10538
0.10421
0.10257
0.099734
0.096962
0.091863
0.089334
0.081074
0.079626
0.06894
0.067357
0.10572
0.10553
0.10436
0.1027
0.099825
0.097023
0.091861
0.089277
0.080979
0.079424
0.068772
0.067067
0.10589
0.1057
0.10451
0.10283
0.09992
0.097086
0.091862
0.089222
0.080884
0.079222
0.068602
0.066774
0.10606
0.10587
0.10466
0.10297
0.10002
0.097153
0.091866
0.089167
0.08079
0.07902
0.068431
0.06648
0.10623
0.10604
0.10483
0.10311
0.10012
0.097222
0.091872
0.089114
0.080697
0.078817
0.068258
0.066183
0.10641
0.10622
0.10499
0.10326
0.10023
0.097296
0.091881
0.089062
0.080605
0.078614
0.068084
0.065884
0.10659
0.1064
0.10516
0.10341
0.10034
0.097372
0.091893
0.089011
0.080514
0.07841
0.067907
0.065583
0.10678
0.10659
0.10534
0.10357
0.10046
0.097453
0.091909
0.088962
0.080425
0.078206
0.067729
0.065279
0.10698
0.10679
0.10552
0.10373
0.10058
0.097537
0.091928
0.088914
0.080336
0.078002
0.067549
0.064973
0.10718
0.10699
0.10571
0.1039
0.1007
0.097626
0.09195
0.088868
0.080249
0.077797
0.067367
0.064664
0.10739
0.10719
0.1059
0.10407
0.10083
0.097719
0.091976
0.088823
0.080163
0.077592
0.067182
0.064351
0.1076
0.10741
0.1061
0.10425
0.10097
0.097816
0.092006
0.08878
0.080078
0.077386
0.066995
0.064036
0.10782
0.10763
0.10631
0.10444
0.10111
0.097917
0.092039
0.08874
0.079994
0.07718
0.066806
0.063717
0.10805
0.10786
0.10652
0.10463
0.10126
0.098024
0.092077
0.088701
0.079911
0.076973
0.066615
0.063395
0.10828
0.10809
0.10674
0.10483
0.10141
0.098136
0.092119
0.088664
0.07983
0.076766
0.06642
0.063069
0.10852
0.10833
0.10697
0.10503
0.10157
0.098252
0.092166
0.08863
0.07975
0.076558
0.066223
0.062739
0.10877
0.10858
0.10721
0.10525
0.10174
0.098374
0.092217
0.088598
0.079672
0.076349
0.066023
0.062404
0.10903
0.10884
0.10745
0.10547
0.10192
0.098502
0.092273
0.088568
0.079595
0.07614
0.06582
0.062066
0.10929
0.10911
0.1077
0.1057
0.1021
0.098636
0.092334
0.088541
0.079519
0.075931
0.065614
0.061723
0.10957
0.10938
0.10796
0.10594
0.10229
0.098776
0.0924
0.088517
0.079445
0.07572
0.065405
0.061375
0.10985
0.10967
0.10823
0.10618
0.10248
0.098922
0.092471
0.088496
0.079372
0.075509
0.065192
0.061023
0.11014
0.10996
0.10851
0.10644
0.10269
0.099074
0.092548
0.088478
0.0793
0.075297
0.064975
0.060665
0.11044
0.11026
0.1088
0.1067
0.1029
0.099233
0.09263
0.088462
0.07923
0.075084
0.064755
0.060302
0.11074
0.11057
0.10909
0.10698
0.10312
0.0994
0.092719
0.08845
0.079162
0.074871
0.064531
0.059932
0.11106
0.1109
0.1094
0.10726
0.10335
0.099573
0.092813
0.088441
0.079095
0.074656
0.064302
0.059557
0.11139
0.11123
0.10972
0.10755
0.10359
0.099754
0.092914
0.088435
0.079029
0.07444
0.06407
0.059176
0.11173
0.11157
0.11005
0.10786
0.10384
0.099942
0.093021
0.088433
0.078964
0.074222
0.063832
0.058788
0.11208
0.11193
0.11039
0.10817
0.1041
0.10014
0.093135
0.088435
0.078901
0.074003
0.06359
0.058393
0.11244
0.11229
0.11074
0.10849
0.10437
0.10034
0.093255
0.088439
0.07884
0.073783
0.063342
0.05799
0.11281
0.11267
0.1111
0.10883
0.10464
0.10056
0.093383
0.088448
0.078779
0.073561
0.063089
0.05758
0.1132
0.11306
0.11148
0.10918
0.10493
0.10078
0.093517
0.08846
0.078719
0.073337
0.062831
0.057162
0.11359
0.11347
0.11186
0.10954
0.10524
0.10101
0.093658
0.088476
0.078661
0.073111
0.062566
0.056736
0.114
0.11388
0.11226
0.10991
0.10555
0.10125
0.093807
0.088496
0.078603
0.072883
0.062295
0.0563
0.11442
0.11431
0.11268
0.1103
0.10587
0.1015
0.093964
0.088519
0.078547
0.072652
0.062018
0.055856
0.11486
0.11475
0.11311
0.1107
0.10621
0.10176
0.094128
0.088547
0.078491
0.072419
0.061733
0.055401
0.1153
0.11521
0.11355
0.11111
0.10656
0.10203
0.0943
0.088578
0.078435
0.072182
0.061441
0.054936
0.11576
0.11568
0.11401
0.11154
0.10692
0.1023
0.09448
0.088612
0.078379
0.071942
0.061141
0.054461
0.11624
0.11617
0.11448
0.11198
0.1073
0.10259
0.094667
0.088651
0.078324
0.071698
0.060832
0.053974
0.11673
0.11667
0.11497
0.11243
0.10769
0.10289
0.094863
0.088693
0.078269
0.07145
0.060515
0.053475
0.11724
0.11719
0.11547
0.1129
0.10809
0.1032
0.095067
0.088739
0.078213
0.071198
0.060188
0.052963
0.11776
0.11773
0.11599
0.11339
0.10851
0.10352
0.09528
0.088788
0.078156
0.07094
0.059851
0.052439
0.1183
0.11828
0.11653
0.1139
0.10894
0.10386
0.0955
0.08884
0.078098
0.070677
0.059503
0.0519
0.11885
0.11885
0.11708
0.11442
0.10939
0.1042
0.09573
0.088896
0.078039
0.070408
0.059144
0.051346
0.11942
0.11943
0.11766
0.11495
0.10985
0.10456
0.095968
0.088955
0.077978
0.070133
0.058773
0.050778
0.12001
0.12004
0.11825
0.11551
0.11033
0.10493
0.096215
0.089016
0.077915
0.069851
0.05839
0.050193
0.12062
0.12067
0.11887
0.11608
0.11083
0.10531
0.09647
0.089081
0.077849
0.069561
0.057993
0.04959
0.12125
0.12132
0.1195
0.11668
0.11135
0.10571
0.096735
0.089148
0.077781
0.069263
0.057581
0.04897
0.1219
0.12198
0.12016
0.11729
0.11188
0.10611
0.097008
0.089218
0.077709
0.068955
0.057155
0.048331
0.12257
0.12267
0.12084
0.11793
0.11244
0.10654
0.097292
0.08929
0.077633
0.068639
0.056712
0.047672
0.12327
0.12339
0.12155
0.11859
0.11301
0.10697
0.097584
0.089364
0.077552
0.068311
0.056253
0.046992
0.12398
0.12413
0.12228
0.11927
0.11361
0.10743
0.097886
0.08944
0.077467
0.067973
0.055776
0.04629
0.12472
0.12489
0.12303
0.11998
0.11423
0.10789
0.098199
0.089518
0.077376
0.067622
0.05528
0.045565
0.12549
0.12569
0.12382
0.12072
0.11487
0.10838
0.098521
0.089597
0.077279
0.067259
0.054763
0.044816
0.12629
0.12651
0.12463
0.12148
0.11553
0.10888
0.098854
0.089679
0.077175
0.066882
0.054226
0.04404
0.12711
0.12736
0.12548
0.12227
0.11623
0.1094
0.099199
0.089761
0.077065
0.06649
0.053666
0.043238
0.12797
0.12825
0.12636
0.12309
0.11695
0.10994
0.099554
0.089845
0.076946
0.066082
0.053083
0.042407
0.12886
0.12917
0.12728
0.12395
0.1177
0.11051
0.099922
0.08993
0.076819
0.065658
0.052474
0.041546
0.12979
0.13013
0.12824
0.12485
0.11848
0.11109
0.1003
0.090016
0.076682
0.065216
0.05184
0.040654
0.13075
0.13113
0.12924
0.12578
0.11929
0.1117
0.1007
0.090102
0.076536
0.064754
0.051177
0.039729
0.13176
0.13218
0.13028
0.12676
0.12015
0.11233
0.1011
0.09019
0.076379
0.064273
0.050485
0.038768
0.13281
0.13327
0.13138
0.12778
0.12104
0.11299
0.10152
0.090278
0.076209
0.063769
0.049762
0.03777
0.13391
0.13442
0.13252
0.12885
0.12197
0.11368
0.10196
0.090367
0.076027
0.063242
0.049006
0.036734
0.13506
0.13561
0.13373
0.12997
0.12295
0.1144
0.10241
0.090455
0.075831
0.062691
0.048215
0.035657
0.13626
0.13687
0.13499
0.13115
0.12397
0.11515
0.10288
0.090543
0.075619
0.062111
0.047387
0.034536
0.13752
0.13819
0.13632
0.13239
0.12504
0.11594
0.10337
0.090629
0.075389
0.061503
0.046518
0.033368
0.13884
0.13957
0.13771
0.1337
0.12617
0.11677
0.10387
0.090713
0.07514
0.060862
0.045607
0.032153
0.14023
0.14103
0.13918
0.13507
0.12736
0.11763
0.10439
0.090793
0.074869
0.060187
0.04465
0.030885
0.14169
0.14257
0.14074
0.13652
0.12861
0.11853
0.10493
0.090868
0.074573
0.059473
0.043644
0.029562
0.14322
0.14419
0.14238
0.13806
0.12992
0.11948
0.10548
0.090934
0.074248
0.058716
0.042583
0.02818
0.14484
0.1459
0.1441
0.13967
0.1313
0.12047
0.10605
0.090991
0.073891
0.057911
0.041464
0.026735
0.14653
0.1477
0.14593
0.14138
0.13275
0.1215
0.10663
0.091032
0.073495
0.057053
0.040281
0.025222
0.14832
0.1496
0.14786
0.14319
0.13428
0.12258
0.10722
0.091055
0.073055
0.056136
0.039028
0.023635
0.15019
0.15161
0.1499
0.14509
0.13589
0.12371
0.10782
0.091054
0.072565
0.055152
0.037697
0.021969
0.15216
0.15373
0.15206
0.14711
0.13757
0.12487
0.10842
0.091022
0.072015
0.054093
0.036281
0.020216
0.15423
0.15596
0.15434
0.14924
0.13934
0.12608
0.10902
0.090952
0.071397
0.052949
0.034771
0.018369
0.15641
0.15832
0.15675
0.15148
0.14119
0.12734
0.10961
0.090834
0.070701
0.051711
0.033156
0.01642
0.1587
0.16081
0.1593
0.15385
0.14313
0.12862
0.11018
0.090659
0.069914
0.050366
0.031427
0.014358
0.16109
0.16344
0.162
0.15636
0.14516
0.12995
0.11073
0.090413
0.069024
0.048902
0.029571
0.012173
0.16361
0.16622
0.16486
0.159
0.14728
0.13129
0.11124
0.090084
0.068016
0.047304
0.027575
0.0098532
0.16626
0.16916
0.16788
0.16179
0.14948
0.13266
0.11171
0.089654
0.066872
0.045559
0.025427
0.0073874
0.16903
0.17227
0.1711
0.16474
0.15178
0.13403
0.1121
0.089105
0.065576
0.043648
0.023111
0.0047625
0.17195
0.17557
0.17451
0.16785
0.15417
0.13541
0.11241
0.088415
0.064104
0.041555
0.020611
0.0019656
0.17502
0.17907
0.17815
0.17115
0.15665
0.13676
0.11262
0.087558
0.062434
0.039258
0.017912
-0.0010167
0.17826
0.1828
0.18204
0.17464
0.15922
0.13808
0.11268
0.086503
0.060537
0.036734
0.014995
-0.0041979
0.18167
0.18679
0.18621
0.17834
0.16186
0.13934
0.11258
0.085212
0.05838
0.033956
0.011839
-0.0075918
0.18528
0.19106
0.19069
0.18226
0.16458
0.1405
0.11226
0.08364
0.055921
0.030893
0.0084222
-0.011213
0.1891
0.19564
0.19552
0.18642
0.16735
0.14153
0.11166
0.081729
0.053112
0.027505
0.004716
-0.015077
0.19314
0.20058
0.20073
0.19083
0.17014
0.14235
0.11072
0.079413
0.049896
0.023748
0.00068891
-0.019201
0.1974
0.20592
0.20635
0.19547
0.17289
0.1429
0.10936
0.076609
0.046204
0.019569
-0.0036958
-0.023604
0.20189
0.21167
0.21242
0.20034
0.17555
0.14307
0.10745
0.073221
0.041959
0.01491
-0.0084787
-0.028308
0.20659
0.21787
0.21894
0.20537
0.17798
0.14272
0.10488
0.06914
0.037076
0.0097071
-0.013702
-0.03333
0.21147
0.22454
0.2259
0.21048
0.18005
0.14168
0.10148
0.064244
0.031466
0.0039009
-0.019402
-0.038686
0.21649
0.23166
0.23323
0.21552
0.18154
0.13974
0.097073
0.058404
0.025046
-0.0025582
-0.025603
-0.044378
0.22158
0.2392
0.24082
0.22025
0.18217
0.13663
0.091466
0.051491
0.017745
-0.0096992
-0.032306
-0.050388
0.22668
0.24705
0.24841
0.22432
0.18153
0.13204
0.084439
0.043383
0.0095141
-0.01752
-0.039478
-0.056666
0.2317
0.25502
0.2556
0.22716
0.17913
0.12559
0.07577
0.033983
0.00034098
-0.025979
-0.047043
-0.063127
0.2366
0.26273
0.26164
0.22795
0.17429
0.11686
0.065256
0.023236
-0.0097407
-0.034991
-0.054887
-0.06965
0.24138
0.26953
0.26531
0.22546
0.16614
0.10539
0.052749
0.011161
-0.020632
-0.04442
-0.062857
-0.076092
0.24614
0.27427
0.26465
0.21793
0.15361
0.090748
0.038203
-0.0021109
-0.032147
-0.054081
-0.070778
-0.082301
0.2512
0.27513
0.25674
0.20296
0.13542
0.072558
0.02172
-0.016306
-0.043998
-0.063733
-0.078459
-0.088144
0.25714
0.26957
0.23766
0.17758
0.11019
0.050536
0.0035358
-0.031038
-0.055821
-0.073102
-0.085719
-0.09352
0.26479
0.25473
0.20324
0.13882
0.076661
0.024511
-0.016074
-0.045922
-0.067263
-0.081932
-0.09241
-0.098382
0.27446
0.22729
0.15051
0.085004
0.034215
-0.0055527
-0.036925
-0.060726
-0.078114
-0.090081
-0.098473
-0.10276
0.28631
0.18099
0.075761
0.015149
-0.01764
-0.040118
-0.059394
-0.075737
-0.088607
-0.097756
-0.10412
-0.10691
0.3104
0.117
-0.020664
-0.069187
-0.078448
-0.080027
-0.084782
-0.092242
-0.099879
-0.10593
-0.11019
-0.11161
0.35844
0.053183
-0.12255
-0.15571
-0.14022
-0.12123
-0.11161
-0.10999
-0.11214
-0.1149
-0.11701
-0.11703
0.10399
0.064779
0.054721
0.048711
0.044526
0.041309
0.038673
0.036249
0.034146
0.031744
0.02999
0.026543
0.12352
0.080241
0.067741
0.059748
0.054253
0.05009
0.046724
0.043659
0.041041
0.038042
0.035947
0.031817
0.11072
0.074962
0.063646
0.05578
0.050363
0.046285
0.04302
0.040066
0.037589
0.034717
0.03283
0.028794
0.10562
0.074576
0.063582
0.055624
0.050072
0.045884
0.042543
0.039525
0.037027
0.034101
0.032251
0.02803
0.10498
0.076743
0.065585
0.057406
0.05161
0.047213
0.043705
0.040537
0.037932
0.034865
0.032958
0.028492
0.10435
0.078558
0.067323
0.059005
0.053009
0.048432
0.044776
0.041471
0.038767
0.035577
0.033608
0.028957
0.10324
0.079837
0.068671
0.060297
0.054152
0.049426
0.045645
0.042226
0.039437
0.036149
0.034125
0.029353
0.10207
0.080889
0.069881
0.061502
0.055241
0.050383
0.046486
0.042963
0.040095
0.036726
0.034648
0.029813
0.10097
0.0818
0.07102
0.062679
0.056331
0.051356
0.047352
0.043732
0.040789
0.037355
0.035226
0.030383
0.099921
0.082561
0.072073
0.063814
0.057414
0.052341
0.04824
0.044533
0.04152
0.038039
0.035865
0.031069
0.09891
0.083172
0.073028
0.064894
0.058477
0.053329
0.049144
0.045362
0.042288
0.038777
0.036566
0.031872
0.09793
0.083646
0.073883
0.06591
0.059512
0.054314
0.050063
0.046219
0.043092
0.03957
0.037333
0.032788
0.096982
0.083998
0.074639
0.066856
0.060509
0.055288
0.050988
0.047099
0.043931
0.040414
0.038162
0.033807
0.096068
0.084244
0.075298
0.067727
0.061461
0.056241
0.051912
0.047994
0.044796
0.041304
0.039045
0.034916
0.09519
0.0844
0.075865
0.068522
0.06236
0.057165
0.052826
0.048895
0.04568
0.042228
0.039972
0.036093
0.094349
0.084478
0.076348
0.069241
0.063202
0.058052
0.053721
0.049794
0.046574
0.043176
0.04093
0.037318
0.093543
0.084493
0.076752
0.069886
0.063985
0.058898
0.05459
0.050682
0.047468
0.044137
0.041907
0.03857
0.092775
0.084454
0.077085
0.070461
0.064708
0.059699
0.055428
0.051552
0.048353
0.045099
0.04289
0.039826
0.092042
0.084372
0.077356
0.07097
0.065372
0.060452
0.05623
0.052398
0.049222
0.046053
0.043866
0.041068
0.091343
0.084254
0.077571
0.071419
0.065978
0.061158
0.056994
0.053215
0.05007
0.04699
0.044827
0.042279
0.090678
0.084109
0.077738
0.071812
0.06653
0.061815
0.057717
0.053999
0.05089
0.047902
0.045763
0.043447
0.090044
0.08394
0.077862
0.072154
0.067031
0.062426
0.058399
0.054748
0.051678
0.048783
0.046668
0.044562
0.08944
0.083754
0.077949
0.072451
0.067484
0.062991
0.05904
0.055461
0.052433
0.049629
0.047536
0.045615
0.088864
0.083554
0.078003
0.072706
0.067893
0.063514
0.059641
0.056136
0.053153
0.050437
0.048365
0.046604
0.088314
0.083344
0.07803
0.072924
0.06826
0.063995
0.060202
0.056774
0.053836
0.051205
0.049152
0.047527
0.087788
0.083124
0.078032
0.073109
0.06859
0.064438
0.060726
0.057374
0.054483
0.051931
0.049896
0.048382
0.087285
0.082899
0.078013
0.073263
0.068885
0.064844
0.061213
0.057938
0.055094
0.052616
0.050597
0.049173
0.086802
0.082669
0.077976
0.073391
0.069148
0.065217
0.061666
0.058466
0.055669
0.05326
0.051256
0.049901
0.086339
0.082436
0.077923
0.073495
0.069382
0.065557
0.062086
0.058961
0.056209
0.053863
0.051874
0.05057
0.085894
0.082202
0.077857
0.073577
0.069588
0.065868
0.062475
0.059422
0.056716
0.054427
0.052452
0.051184
0.085466
0.081966
0.077779
0.07364
0.06977
0.066151
0.062835
0.059852
0.05719
0.054953
0.052992
0.051746
0.085053
0.081729
0.077691
0.073685
0.06993
0.066407
0.063167
0.060251
0.057634
0.055444
0.053495
0.052261
0.084655
0.081493
0.077593
0.073714
0.070068
0.06664
0.063472
0.060622
0.058048
0.0559