/*--------------------------------*- C++ -*----------------------------------*\
  =========                 |
  \\      /  F ield         | OpenFOAM: The Open Source CFD Toolbox
   \\    /   O peration     | Website:  https://openfoam.org
    \\  /    A nd           | Version:  6.0
     \\/     M anipulation  |
\*---------------------------------------------------------------------------*/
FoamFile
{
    version     2.0;
    format      ascii;
    class       volVectorField;
    location    "17";
    object      U;
}
// * * * * * * * * * * * * * * * * * * * * * * * * * * * * * * * * * * * * * //

dimensions      [0 1 -1 0 0 0 0];

internalField   nonuniform List<vector> 
62000
(
(0.939362 0.342804 -2.41924e-21)
(0.939369 0.342773 2.04645e-21)
(0.939368 0.342746 2.13809e-21)
(0.939359 0.342723 -9.56445e-21)
(0.939343 0.342702 -1.11711e-20)
(0.939323 0.342681 3.93326e-20)
(0.939299 0.342664 -4.42064e-20)
(0.939276 0.342646 2.62639e-20)
(0.939254 0.342628 -1.26291e-20)
(0.939235 0.342609 -6.61389e-20)
(0.939222 0.342589 -8.94174e-21)
(0.939214 0.342567 9.70443e-20)
(0.939212 0.342542 2.0452e-20)
(0.939215 0.342516 -7.30998e-20)
(0.939222 0.342488 1.17393e-19)
(0.939234 0.342458 -6.39917e-20)
(0.939249 0.342428 6.84729e-20)
(0.939266 0.342398 -8.19844e-20)
(0.939284 0.342369 4.18474e-20)
(0.939303 0.342341 -1.32982e-19)
(0.939323 0.342315 1.78348e-19)
(0.939342 0.342291 5.53191e-20)
(0.939361 0.34227 8.18894e-20)
(0.93938 0.342252 -3.76737e-19)
(0.939398 0.342237 1.41273e-19)
(0.939415 0.342225 -9.19945e-20)
(0.939433 0.342216 -2.42853e-21)
(0.939449 0.34221 -7.98447e-20)
(0.939466 0.342209 2.49614e-19)
(0.93948 0.342213 -1.44962e-19)
(0.939497 0.342224 3.5777e-19)
(0.939511 0.342241 -7.58939e-19)
(0.939526 0.342262 6.99308e-20)
(0.939539 0.342281 -2.79334e-19)
(0.939547 0.342308 -9.39318e-20)
(0.939549 0.342346 -3.09895e-19)
(0.939548 0.342393 -1.03886e-19)
(0.939543 0.342446 -1.1829e-19)
(0.939532 0.342505 3.36135e-19)
(0.939512 0.342569 1.69422e-18)
(0.93948 0.34264 -4.26369e-19)
(0.939432 0.342719 -2.55195e-18)
(0.93936 0.3428 -4.23116e-18)
(0.939259 0.342875 2.41613e-18)
(0.939122 0.342924 7.16708e-19)
(0.938942 0.342919 -3.86626e-18)
(0.938711 0.342825 1.09408e-18)
(0.938428 0.342592 -1.7632e-18)
(0.938086 0.342177 -8.91979e-18)
(0.93768 0.341534 -2.06692e-18)
(0.93721 0.340629 -1.12153e-18)
(0.936659 0.339448 -1.57999e-17)
(0.936042 0.337939 1.5829e-18)
(0.93536 0.336041 1.88754e-17)
(0.934671 0.333555 5.29485e-18)
(0.934064 0.330361 1.73562e-17)
(0.93362 0.325892 -2.3788e-18)
(0.933424 0.319981 -4.21648e-18)
(0.933429 0.308827 8.4697e-18)
(0.9162 0.284848 1.733e-18)
(0.939296 0.344295 -6.3864e-22)
(0.939355 0.344307 6.2179e-21)
(0.939414 0.344304 2.63237e-21)
(0.939467 0.344303 -1.14785e-20)
(0.939506 0.3443 4.8625e-21)
(0.939525 0.344296 -3.43484e-20)
(0.939523 0.344295 3.20931e-20)
(0.939498 0.344296 1.90642e-20)
(0.939454 0.344299 -3.64576e-20)
(0.939394 0.344304 1.55159e-21)
(0.939322 0.344312 3.71756e-20)
(0.939245 0.34432 2.01071e-22)
(0.939167 0.344326 1.14153e-20)
(0.939094 0.344329 -9.95008e-20)
(0.939027 0.34433 2.05557e-19)
(0.938972 0.344324 -1.86496e-19)
(0.938927 0.344314 9.01725e-20)
(0.938895 0.344296 -1.93149e-20)
(0.938874 0.344273 -5.51037e-20)
(0.938863 0.344243 1.57092e-19)
(0.938861 0.344207 -2.54982e-19)
(0.938866 0.344165 1.52663e-19)
(0.938877 0.34412 -2.00978e-19)
(0.938892 0.34407 1.2226e-19)
(0.938911 0.344019 1.18483e-19)
(0.938931 0.343966 -7.99549e-20)
(0.938954 0.343914 -2.12635e-21)
(0.938976 0.343863 9.30361e-20)
(0.939002 0.343817 8.19051e-20)
(0.939026 0.343779 -1.78864e-19)
(0.939058 0.343758 3.70635e-19)
(0.939087 0.343743 8.17111e-20)
(0.939126 0.343728 2.54482e-19)
(0.939159 0.343703 2.49923e-20)
(0.939182 0.343702 8.10527e-20)
(0.939191 0.343738 -8.7317e-20)
(0.93919 0.343807 -2.92634e-19)
(0.939179 0.3439 -1.42272e-19)
(0.939151 0.344014 -9.02416e-19)
(0.9391 0.344146 -1.11737e-18)
(0.939016 0.344296 8.98271e-19)
(0.938888 0.344451 5.55637e-19)
(0.93871 0.344584 4.39881e-18)
(0.938473 0.344657 2.78542e-19)
(0.938171 0.344624 -7.48891e-18)
(0.937807 0.344414 3.16202e-18)
(0.937372 0.343973 2.84881e-18)
(0.936875 0.343226 3.53649e-18)
(0.936295 0.342154 8.2766e-19)
(0.935623 0.340728 1.61006e-19)
(0.934834 0.338944 6.94007e-18)
(0.933841 0.336837 1.95786e-17)
(0.93272 0.33422 -1.35782e-17)
(0.931476 0.330962 -3.36016e-17)
(0.930289 0.326645 -8.2829e-18)
(0.929283 0.321253 -5.63108e-18)
(0.928579 0.313768 -1.36641e-17)
(0.927798 0.304423 -6.82174e-18)
(0.927763 0.286929 1.10908e-17)
(0.903812 0.254126 4.26027e-18)
(0.939098 0.345498 -3.13567e-21)
(0.939066 0.345556 -4.53199e-22)
(0.939078 0.345593 5.01022e-22)
(0.93913 0.345619 2.33607e-21)
(0.939212 0.345634 6.73211e-21)
(0.939312 0.345639 -6.50949e-21)
(0.939414 0.345639 3.54462e-20)
(0.939507 0.345637 -1.72355e-20)
(0.93958 0.345637 -9.44209e-21)
(0.939626 0.345642 -5.94647e-20)
(0.939641 0.345658 5.12312e-20)
(0.939625 0.345685 3.87939e-21)
(0.939581 0.345723 -1.23053e-20)
(0.939514 0.345772 3.35001e-20)
(0.939431 0.345831 -5.88187e-20)
(0.939338 0.345896 2.51939e-22)
(0.939242 0.345966 -2.86093e-20)
(0.939148 0.346033 3.13638e-22)
(0.939061 0.346098 6.98428e-20)
(0.938983 0.346153 -1.09747e-19)
(0.938916 0.346199 7.01194e-20)
(0.938861 0.346231 2.83889e-19)
(0.938817 0.34625 -3.6689e-20)
(0.938784 0.346253 -4.19092e-19)
(0.93876 0.346242 2.21565e-19)
(0.938744 0.346217 -1.25441e-19)
(0.938734 0.346181 2.10061e-19)
(0.938727 0.346134 -1.3036e-19)
(0.938728 0.346082 -2.72691e-19)
(0.93873 0.346029 2.99235e-19)
(0.938743 0.345987 -2.20307e-19)
(0.938756 0.345943 3.09616e-19)
(0.938783 0.345881 -8.91426e-19)
(0.938806 0.345797 8.30776e-19)
(0.938816 0.345735 -4.61641e-19)
(0.938809 0.345716 1.95012e-19)
(0.938791 0.345734 1.50821e-19)
(0.938761 0.345776 -2.22106e-20)
(0.938715 0.345835 -6.17376e-20)
(0.938644 0.345909 1.12382e-18)
(0.938533 0.346001 -4.77695e-19)
(0.938375 0.346077 7.66449e-19)
(0.938167 0.346098 -2.83378e-18)
(0.937907 0.346018 -1.46034e-18)
(0.937597 0.345785 1.67024e-18)
(0.937248 0.345331 -6.0323e-18)
(0.936853 0.34462 8.53071e-19)
(0.936431 0.3436 -5.92655e-18)
(0.935948 0.342306 8.74942e-18)
(0.935389 0.340742 2.39162e-18)
(0.934714 0.338926 1.30312e-18)
(0.933794 0.336926 -3.58103e-19)
(0.932772 0.334478 5.86415e-18)
(0.931641 0.331441 5.76382e-19)
(0.930673 0.327414 -1.26295e-17)
(0.929865 0.322577 -6.93247e-18)
(0.929428 0.316114 -5.50429e-18)
(0.928146 0.308668 -1.66377e-17)
(0.928611 0.295921 -1.07602e-18)
(0.907344 0.276164 1.57327e-18)
(0.939702 0.346036 -3.23779e-21)
(0.939481 0.346152 1.00571e-20)
(0.939293 0.346259 -1.55587e-21)
(0.93915 0.346365 -1.0672e-20)
(0.939066 0.346461 1.6332e-20)
(0.939045 0.346543 2.85678e-20)
(0.939081 0.346612 -3.78878e-20)
(0.939165 0.346665 4.16695e-21)
(0.939279 0.346708 1.34986e-20)
(0.939406 0.346746 2.85333e-20)
(0.939529 0.346783 -5.38016e-20)
(0.939633 0.346826 -1.68108e-20)
(0.939707 0.346879 -1.9083e-20)
(0.939746 0.346947 8.90179e-20)
(0.939746 0.347033 -6.04837e-20)
(0.939711 0.347135 1.43895e-19)
(0.939644 0.347255 -1.78218e-19)
(0.939552 0.347384 -2.66719e-20)
(0.939442 0.347523 1.96125e-19)
(0.939323 0.347661 -6.98795e-20)
(0.9392 0.347798 -2.62026e-20)
(0.939079 0.347922 -2.87806e-20)
(0.938964 0.348035 -2.6947e-19)
(0.938859 0.348126 1.57917e-19)
(0.938763 0.348199 -7.51225e-20)
(0.93868 0.348248 1.23047e-19)
(0.938607 0.348277 5.90152e-20)
(0.938545 0.348281 3.0571e-19)
(0.938494 0.348269 -1.95604e-19)
(0.938452 0.348243 -2.67638e-19)
(0.938423 0.348213 4.358e-19)
(0.938402 0.348167 -3.67636e-19)
(0.938398 0.348083 7.10749e-19)
(0.938396 0.347964 -4.52808e-19)
(0.938383 0.347855 1.88225e-19)
(0.938355 0.347781 3.43788e-19)
(0.938316 0.347733 -1.56167e-19)
(0.938267 0.347696 2.15903e-19)
(0.938206 0.347661 -1.00747e-19)
(0.938125 0.347627 3.50326e-19)
(0.938004 0.347596 -1.01446e-18)
(0.937834 0.347523 2.89349e-19)
(0.937621 0.347364 6.60011e-19)
(0.937368 0.347078 1.67953e-18)
(0.937078 0.346622 2.34166e-18)
(0.936764 0.345938 5.93567e-19)
(0.936417 0.345016 4.0937e-18)
(0.936057 0.343821 4.73005e-18)
(0.935636 0.342422 5.80547e-18)
(0.93514 0.340826 -4.39005e-18)
(0.934521 0.339033 -6.28158e-18)
(0.933629 0.3371 4.21312e-18)
(0.932661 0.3347 5.7934e-18)
(0.931579 0.331647 1.46305e-17)
(0.930722 0.32756 9.57106e-18)
(0.929949 0.322682 1.56705e-17)
(0.929664 0.316445 2.8447e-17)
(0.927933 0.3095 -1.9865e-18)
(0.929255 0.299442 -1.487e-17)
(0.909041 0.285737 -1.05426e-17)
(0.941158 0.346235 6.47216e-21)
(0.941007 0.346384 -2.18205e-21)
(0.940784 0.346531 3.73313e-21)
(0.940513 0.346708 -5.33231e-21)
(0.940232 0.346895 1.21346e-20)
(0.939973 0.347086 -6.09988e-21)
(0.939763 0.347273 3.29917e-21)
(0.939616 0.347449 -4.99449e-20)
(0.939537 0.34761 4.24328e-20)
(0.939522 0.347755 -8.55743e-20)
(0.939557 0.347886 9.57088e-20)
(0.939626 0.348005 -1.1783e-20)
(0.93971 0.348116 -2.61174e-20)
(0.939791 0.348227 -1.19372e-20)
(0.939853 0.348343 -2.52046e-21)
(0.939886 0.348467 -1.25866e-19)
(0.939882 0.348605 6.37454e-21)
(0.939841 0.348754 1.41949e-19)
(0.939763 0.348917 -4.67581e-20)
(0.939654 0.349086 -5.01282e-20)
(0.93952 0.349262 8.62621e-20)
(0.939369 0.349433 -4.38159e-20)
(0.939208 0.349598 1.87985e-19)
(0.939044 0.349748 1.06272e-19)
(0.938882 0.349881 8.41171e-20)
(0.938727 0.34999 -2.63567e-19)
(0.938583 0.350077 -3.82023e-20)
(0.938451 0.350134 -2.19999e-19)
(0.938332 0.35017 4.17205e-20)
(0.938228 0.350181 -8.02505e-20)
(0.93814 0.350178 -3.19979e-20)
(0.938067 0.350147 2.73288e-19)
(0.938015 0.350061 -7.03727e-19)
(0.937972 0.349927 -3.07891e-20)
(0.937925 0.349793 -3.92882e-19)
(0.937867 0.349682 -1.99897e-19)
(0.937801 0.349582 6.59657e-20)
(0.937729 0.349477 -7.06193e-19)
(0.93765 0.349357 1.14359e-18)
(0.937555 0.349219 1.88998e-19)
(0.937422 0.349063 1.3738e-18)
(0.937237 0.348842 -1.05245e-18)
(0.937012 0.348514 -7.27002e-19)
(0.936751 0.348045 -2.94154e-19)
(0.936457 0.347401 1.73866e-18)
(0.936141 0.346534 2.65535e-18)
(0.93579 0.345451 6.82497e-19)
(0.935426 0.344122 1.23688e-18)
(0.934992 0.342626 -2.03419e-18)
(0.934478 0.340959 1.12866e-17)
(0.93384 0.339089 2.95549e-18)
(0.932908 0.337052 -3.08239e-18)
(0.931907 0.334472 8.31516e-19)
(0.930752 0.331095 1.12936e-17)
(0.929819 0.326503 -4.6431e-19)
(0.928853 0.320878 -1.23926e-17)
(0.928496 0.313778 -2.8776e-17)
(0.926295 0.305641 2.65265e-17)
(0.928221 0.294871 -1.53066e-17)
(0.909858 0.28075 1.22829e-17)
(0.941907 0.34762 -2.49067e-21)
(0.942186 0.347689 1.01727e-20)
(0.942297 0.347765 -1.69641e-20)
(0.942249 0.34789 1.28318e-20)
(0.942068 0.348049 8.41725e-21)
(0.941792 0.348236 -9.07176e-21)
(0.941462 0.348445 7.65351e-22)
(0.941118 0.348666 -6.9853e-21)
(0.940795 0.34889 -2.38155e-20)
(0.940517 0.34911 4.63984e-20)
(0.9403 0.349319 -7.28615e-20)
(0.940145 0.349514 6.47816e-20)
(0.940048 0.349694 5.7649e-20)
(0.939996 0.349859 -9.07511e-20)
(0.939973 0.350015 -2.98763e-20)
(0.939961 0.350164 1.14274e-19)
(0.939946 0.350311 -1.40293e-19)
(0.939913 0.350459 1.96758e-19)
(0.939856 0.350613 -3.84476e-20)
(0.939769 0.350769 2.16734e-20)
(0.939652 0.350932 -3.63412e-20)
(0.939508 0.351093 -4.62517e-20)
(0.939341 0.351254 -8.74609e-20)
(0.939159 0.351404 1.54548e-19)
(0.938967 0.351545 -1.0843e-19)
(0.938773 0.351666 -1.08995e-19)
(0.938581 0.351771 2.29831e-19)
(0.938397 0.351849 -2.26923e-19)
(0.938224 0.351907 3.72548e-19)
(0.938064 0.351939 -2.03106e-19)
(0.937918 0.351953 1.63971e-19)
(0.93779 0.35193 -2.8359e-19)
(0.937683 0.351843 3.21288e-19)
(0.93759 0.351701 -2.29056e-20)
(0.937498 0.35155 -1.54049e-20)
(0.937398 0.351412 -5.93717e-21)
(0.937292 0.351274 -2.01708e-19)
(0.937184 0.351115 6.26581e-19)
(0.937072 0.350926 -5.05372e-19)
(0.93695 0.350705 -3.06693e-18)
(0.936792 0.350444 -1.35447e-18)
(0.936581 0.350103 9.98521e-19)
(0.936332 0.349645 -1.13546e-18)
(0.936052 0.349041 -1.32665e-18)
(0.93574 0.348265 -1.26917e-19)
(0.935412 0.347274 3.64086e-18)
(0.935051 0.346084 -5.62421e-18)
(0.934687 0.344665 -6.0186e-18)
(0.934264 0.343099 -4.27157e-18)
(0.933785 0.34138 -7.57749e-18)
(0.933213 0.339463 5.09713e-18)
(0.932364 0.337384 -2.08639e-18)
(0.931464 0.33477 -1.78601e-17)
(0.930368 0.331333 3.46074e-18)
(0.929448 0.32662 5.58696e-18)
(0.928333 0.320709 -1.0615e-17)
(0.927866 0.313209 8.09213e-18)
(0.925162 0.3043 6.98923e-18)
(0.927163 0.292833 2.47287e-17)
(0.912475 0.279333 -3.23044e-19)
(0.940817 0.35114 2.87526e-21)
(0.941579 0.351061 -1.30627e-20)
(0.942189 0.350986 6.45951e-21)
(0.942624 0.350948 1.2084e-20)
(0.942868 0.350946 -2.62073e-20)
(0.942925 0.350981 2.22542e-20)
(0.942817 0.351055 -1.49954e-20)
(0.942577 0.351161 1.29238e-20)
(0.942247 0.351295 2.0843e-20)
(0.94187 0.351449 -5.10716e-20)
(0.941482 0.351613 7.48797e-20)
(0.941115 0.35178 3.22639e-20)
(0.94079 0.351942 -1.30817e-19)
(0.940515 0.352096 -2.4743e-20)
(0.940293 0.352238 7.2135e-20)
(0.940117 0.35237 4.71679e-20)
(0.939974 0.352493 -5.82715e-20)
(0.939853 0.352607 5.21628e-20)
(0.939738 0.352719 8.17656e-20)
(0.93962 0.352828 -4.07855e-20)
(0.939491 0.352939 -2.37558e-20)
(0.939344 0.353047 8.59454e-20)
(0.93918 0.353157 1.80893e-19)
(0.938999 0.353261 -1.33132e-19)
(0.938805 0.353359 -1.51024e-19)
(0.938603 0.353446 1.71206e-19)
(0.938397 0.353523 -1.34786e-19)
(0.938195 0.353581 -5.73252e-20)
(0.937998 0.353626 4.82603e-19)
(0.93781 0.353651 -2.17198e-19)
(0.937632 0.353659 -1.75875e-19)
(0.937467 0.353629 2.35338e-19)
(0.937321 0.353531 1.70851e-19)
(0.937189 0.353375 -1.5658e-19)
(0.937057 0.353205 -1.12351e-19)
(0.936916 0.353043 3.84746e-19)
(0.936769 0.352871 9.72787e-20)
(0.93662 0.352667 1.37434e-19)
(0.93647 0.35242 -8.08579e-19)
(0.93631 0.352129 -8.37019e-19)
(0.936116 0.351785 1.68786e-18)
(0.935871 0.35135 1.42189e-18)
(0.935589 0.350793 2.4948e-18)
(0.93528 0.350089 -2.33162e-18)
(0.934942 0.349217 -2.71845e-18)
(0.934592 0.348132 -1.93341e-18)
(0.934217 0.346853 5.0173e-18)
(0.933857 0.345347 5.18792e-18)
(0.933468 0.343697 -6.13125e-18)
(0.933069 0.341904 -9.47794e-18)
(0.932637 0.339934 -1.83499e-18)
(0.931984 0.337859 2.08013e-18)
(0.931323 0.335355 2.392e-19)
(0.93045 0.332158 -6.46254e-18)
(0.929711 0.327815 5.85533e-18)
(0.928603 0.322309 3.59992e-18)
(0.928108 0.315261 5.47854e-18)
(0.924974 0.306544 -2.16473e-17)
(0.926659 0.295498 -1.54761e-18)
(0.915897 0.283938 1.6295e-19)
(0.938236 0.356209 -4.58227e-21)
(0.939205 0.356013 -3.61547e-21)
(0.940139 0.355811 5.0747e-21)
(0.940993 0.355614 1.77791e-20)
(0.941712 0.355431 -3.86294e-20)
(0.942256 0.35527 4.46293e-20)
(0.942606 0.35514 -2.11782e-21)
(0.94276 0.355044 -2.87969e-21)
(0.942734 0.354984 -1.65578e-20)
(0.942557 0.354959 4.06811e-20)
(0.942267 0.354963 -6.39877e-20)
(0.941905 0.354989 2.46531e-20)
(0.941509 0.35503 -8.12735e-22)
(0.94111 0.355079 4.04475e-20)
(0.940732 0.35513 1.97759e-20)
(0.940389 0.355178 -1.06536e-19)
(0.940085 0.35522 9.45406e-20)
(0.939818 0.355254 3.81853e-20)
(0.939583 0.355282 -1.12704e-19)
(0.93937 0.355304 5.63505e-20)
(0.939171 0.355325 2.71289e-20)
(0.938976 0.355343 -1.78386e-20)
(0.93878 0.355362 2.36215e-20)
(0.93858 0.355378 -1.37053e-20)
(0.938375 0.355394 -1.63042e-19)
(0.938167 0.355404 1.10175e-19)
(0.937957 0.355412 -1.72665e-19)
(0.937751 0.355411 3.25577e-19)
(0.937549 0.355406 -6.21849e-20)
(0.937355 0.355391 -3.80406e-20)
(0.937167 0.355368 -1.01207e-20)
(0.936991 0.355312 3.87881e-19)
(0.936829 0.35519 -1.58391e-19)
(0.936678 0.35501 -9.86406e-20)
(0.936524 0.354816 2.78385e-19)
(0.936359 0.354626 2.52752e-19)
(0.936185 0.35442 -4.40674e-19)
(0.936008 0.354174 8.11086e-20)
(0.935825 0.353878 9.61893e-19)
(0.935629 0.35353 -7.2822e-20)
(0.935398 0.353117 6.75713e-19)
(0.935113 0.352607 -1.04394e-18)
(0.934788 0.351971 1.58183e-18)
(0.934432 0.351185 3.68579e-18)
(0.934041 0.350223 1.1665e-18)
(0.933634 0.349037 -1.61889e-18)
(0.933202 0.347641 -5.3434e-18)
(0.932795 0.345988 1.07401e-18)
(0.93238 0.344162 1.89312e-18)
(0.932001 0.342167 4.15579e-18)
(0.93165 0.339993 -4.49394e-19)
(0.931146 0.337758 -8.61995e-18)
(0.930697 0.335219 7.76153e-18)
(0.930053 0.332178 -5.41392e-18)
(0.929536 0.328216 1.10609e-17)
(0.928529 0.32324 2.7629e-18)
(0.928111 0.316877 1.26111e-17)
(0.924757 0.308625 1.69349e-17)
(0.926035 0.298271 2.71223e-18)
(0.918119 0.287482 3.66152e-18)
(0.935251 0.36167 -2.05556e-21)
(0.93608 0.361447 1.78593e-21)
(0.937009 0.361201 8.83158e-21)
(0.937993 0.360928 1.38704e-20)
(0.938968 0.360638 -4.17174e-20)
(0.939871 0.36034 2.41593e-20)
(0.940648 0.360048 -4.33027e-20)
(0.941259 0.35977 6.85974e-20)
(0.941681 0.359515 -3.26049e-20)
(0.941909 0.359289 5.81644e-21)
(0.941957 0.359096 6.47511e-20)
(0.941849 0.358934 -1.50046e-19)
(0.94162 0.3588 1.04499e-19)
(0.941306 0.358689 1.55431e-20)
(0.940942 0.358594 2.52333e-20)
(0.940559 0.358509 -1.07274e-19)
(0.940177 0.358428 5.43402e-20)
(0.939813 0.358345 -6.95087e-20)
(0.939473 0.35826 1.40984e-19)
(0.939159 0.358169 -1.72033e-20)
(0.938868 0.358076 -1.88776e-19)
(0.938595 0.357978 7.81984e-20)
(0.938336 0.357882 -4.04648e-21)
(0.938087 0.357782 -3.03284e-19)
(0.937844 0.357684 2.27806e-19)
(0.937607 0.357583 1.77273e-19)
(0.937377 0.357488 1.2412e-19)
(0.937156 0.357392 -1.64297e-19)
(0.936944 0.357303 -1.8789e-19)
(0.936741 0.357215 8.99197e-20)
(0.936548 0.357132 1.34303e-19)
(0.936366 0.357025 -1.72374e-19)
(0.9362 0.356861 -2.6796e-19)
(0.936043 0.356645 5.62566e-19)
(0.935882 0.356417 6.83697e-20)
(0.935708 0.356194 -9.39693e-19)
(0.935524 0.355951 8.39711e-20)
(0.935332 0.355665 6.92371e-19)
(0.93513 0.355324 5.94096e-20)
(0.934905 0.354928 1.02207e-18)
(0.934639 0.35446 -1.55429e-18)
(0.93431 0.35389 -1.1385e-19)
(0.933931 0.353187 -1.07828e-18)
(0.933506 0.352324 3.98721e-19)
(0.933028 0.351269 1.9559e-18)
(0.932516 0.349962 6.26023e-18)
(0.931963 0.348403 1.06117e-18)
(0.931426 0.34653 -4.67225e-18)
(0.930883 0.344411 3.85781e-18)
(0.930397 0.342051 1.45813e-17)
(0.929978 0.339456 -1.24086e-17)
(0.929462 0.33679 1.56214e-17)
(0.929066 0.33389 -9.96583e-18)
(0.928519 0.330637 -5.60619e-18)
(0.928142 0.326674 -2.28398e-17)
(0.927246 0.321852 -1.26851e-18)
(0.926988 0.315843 -7.5565e-18)
(0.923709 0.307743 -8.27817e-18)
(0.924697 0.297645 5.93379e-18)
(0.918557 0.285928 6.15331e-19)
(0.932733 0.366673 2.61674e-21)
(0.933208 0.366488 8.63247e-22)
(0.933867 0.36627 -9.44052e-21)
(0.934688 0.366008 9.01297e-21)
(0.935622 0.365707 -3.99634e-21)
(0.936612 0.36537 7.09859e-21)
(0.937595 0.365009 2.37092e-21)
(0.93851 0.364633 -3.58825e-20)
(0.939305 0.364255 1.58669e-20)
(0.939942 0.363885 -1.07237e-20)
(0.940401 0.363533 6.72009e-21)
(0.940675 0.363204 2.63787e-20)
(0.940778 0.362903 -4.82454e-21)
(0.94073 0.36263 1.69133e-20)
(0.940563 0.362382 -7.30215e-20)
(0.940308 0.362153 2.8665e-20)
(0.939996 0.361939 1.36283e-20)
(0.939652 0.361731 -3.66843e-20)
(0.939297 0.361527 7.55535e-20)
(0.938944 0.361319 2.65322e-20)
(0.938601 0.361109 -2.08355e-21)
(0.938272 0.360892 -2.79231e-20)
(0.937956 0.360674 1.24905e-19)
(0.937653 0.360449 -3.56086e-19)
(0.937362 0.360225 1.86509e-19)
(0.937083 0.359999 8.16265e-20)
(0.936816 0.359779 -1.46627e-19)
(0.936563 0.359562 2.66655e-19)
(0.936323 0.359361 -1.31013e-19)
(0.936098 0.359173 -7.29039e-20)
(0.935886 0.359001 -1.47748e-19)
(0.935689 0.358819 -6.0149e-20)
(0.935511 0.358591 1.72583e-19)
(0.935344 0.35832 -5.46991e-19)
(0.935176 0.358044 1.06662e-18)
(0.934997 0.357776 -6.88581e-20)
(0.934808 0.35749 6.15815e-19)
(0.934609 0.357162 -1.62015e-18)
(0.934393 0.356779 -5.53308e-19)
(0.934145 0.35634 -1.88272e-20)
(0.933846 0.355828 -4.45081e-19)
(0.93347 0.35521 -8.23169e-20)
(0.933028 0.354449 -1.758e-18)
(0.932518 0.353517 5.39246e-19)
(0.931933 0.352369 9.21065e-19)
(0.931286 0.350933 -5.78792e-18)
(0.930571 0.349191 7.77391e-18)
(0.929849 0.347059 1.28571e-18)
(0.929103 0.344586 2.99444e-19)
(0.928412 0.341767 -9.73238e-18)
(0.927797 0.338615 3.82e-18)
(0.927121 0.335321 -8.24295e-18)
(0.926614 0.331791 1.65874e-17)
(0.92601 0.327982 3.66891e-18)
(0.925656 0.323605 -1.48929e-17)
(0.924836 0.318482 5.72481e-18)
(0.924786 0.312386 -1.62427e-17)
(0.921847 0.304074 -3.44248e-18)
(0.922743 0.293805 -2.27215e-17)
(0.917986 0.280672 -5.28976e-18)
(0.93102 0.370962 -5.27973e-22)
(0.931089 0.370838 -2.05705e-21)
(0.931364 0.370682 -1.74143e-21)
(0.931847 0.370479 1.72556e-20)
(0.93252 0.370227 -9.70703e-21)
(0.933348 0.369923 -1.1443e-20)
(0.93428 0.369574 -4.20033e-21)
(0.935259 0.369185 -1.76027e-20)
(0.936226 0.368767 1.14439e-20)
(0.937122 0.368331 1.7821e-21)
(0.937903 0.367889 6.32714e-22)
(0.938533 0.367451 4.93992e-20)
(0.938996 0.367026 -3.56655e-20)
(0.939289 0.366622 -4.61273e-21)
(0.939425 0.366242 4.29119e-20)
(0.939423 0.365883 -2.39656e-20)
(0.939308 0.365545 -9.2604e-21)
(0.939109 0.36522 1.62473e-20)
(0.938851 0.364905 5.3706e-20)
(0.938556 0.364592 3.18895e-20)
(0.93824 0.364278 1.40128e-20)
(0.937915 0.363957 -8.177e-20)
(0.937588 0.363632 4.3287e-20)
(0.937265 0.363297 9.17442e-20)
(0.936948 0.362957 -1.89849e-19)
(0.936639 0.362609 6.50904e-20)
(0.936339 0.362263 -2.63617e-19)
(0.936052 0.36192 2.20738e-19)
(0.935778 0.361595 2.04267e-19)
(0.935519 0.361288 -3.254e-19)
(0.935275 0.361009 -1.55411e-19)
(0.935049 0.360731 2.18738e-19)
(0.934844 0.360418 7.52235e-20)
(0.934655 0.360074 -2.27186e-19)
(0.934468 0.359733 -2.91109e-19)
(0.934274 0.359406 -3.68245e-19)
(0.934074 0.359066 2.31638e-19)
(0.933862 0.358688 5.94529e-19)
(0.933629 0.358261 2.13337e-19)
(0.933357 0.35778 -2.34295e-19)
(0.933023 0.357228 2.51494e-18)
(0.932599 0.35657 -2.17345e-19)
(0.932092 0.355761 2.87077e-18)
(0.9315 0.354769 -5.4179e-18)
(0.930809 0.35354 7.83842e-19)
(0.930033 0.351989 1.82213e-19)
(0.929163 0.350083 -6.01128e-19)
(0.928258 0.347716 -5.48981e-18)
(0.927304 0.344915 -9.74295e-18)
(0.926385 0.341659 9.45038e-18)
(0.925531 0.337959 1.33766e-17)
(0.924626 0.334017 7.50056e-18)
(0.92392 0.329787 -1.59082e-17)
(0.923164 0.325283 8.82876e-18)
(0.922746 0.320283 2.2371e-17)
(0.921968 0.3146 8.9654e-18)
(0.922129 0.308155 1.58429e-17)
(0.919697 0.299495 7.5769e-18)
(0.920669 0.28898 2.08253e-17)
(0.917606 0.275128 -1.36857e-17)
(0.930074 0.374561 6.25566e-22)
(0.929788 0.374492 -1.88031e-21)
(0.929685 0.374401 6.64589e-21)
(0.929785 0.374269 1.63631e-21)
(0.930098 0.374089 -9.15397e-21)
(0.930614 0.373856 -1.03595e-20)
(0.931308 0.373569 2.48124e-20)
(0.932142 0.373227 -2.71008e-20)
(0.933063 0.372837 -6.50939e-21)
(0.934018 0.372404 1.69933e-20)
(0.934948 0.371941 1.57212e-20)
(0.935803 0.371458 4.81668e-20)
(0.936543 0.370967 -2.77935e-20)
(0.937141 0.370479 -4.81367e-20)
(0.937586 0.370003 1.06645e-20)
(0.937878 0.369542 -4.11524e-20)
(0.938028 0.3691 3.10694e-20)
(0.938055 0.368674 -5.47599e-20)
(0.937982 0.368262 8.11462e-21)
(0.937831 0.367856 -1.96653e-20)
(0.937623 0.367454 -1.38259e-20)
(0.937375 0.367048 -5.97425e-20)
(0.937101 0.366637 2.4252e-21)
(0.93681 0.366212 1.3275e-19)
(0.936509 0.365777 -4.59151e-20)
(0.936204 0.365328 1.47136e-20)
(0.935899 0.364874 4.49996e-20)
(0.935596 0.364417 -6.92566e-20)
(0.9353 0.363973 -1.36416e-20)
(0.935013 0.363549 1.05125e-19)
(0.934736 0.363156 1.2256e-19)
(0.934476 0.362773 -9.77005e-20)
(0.934235 0.362363 -3.11281e-19)
(0.934012 0.36193 -4.5471e-19)
(0.933793 0.361509 7.45364e-19)
(0.933572 0.361108 2.04587e-19)
(0.933346 0.360701 1.28566e-19)
(0.933111 0.360263 7.34818e-19)
(0.932851 0.359784 -7.30029e-19)
(0.932549 0.359258 4.70244e-19)
(0.932177 0.358667 -1.20273e-20)
(0.931705 0.357973 7.22674e-20)
(0.93114 0.357123 -1.04749e-18)
(0.930479 0.356082 2.4298e-18)
(0.929709 0.354792 -3.3466e-18)
(0.92884 0.353159 2.15934e-18)
(0.927861 0.351138 -6.59783e-18)
(0.926826 0.348607 2.15544e-18)
(0.92572 0.345572 5.08253e-18)
(0.924626 0.341998 -9.3381e-18)
(0.923571 0.337886 -2.91802e-18)
(0.922461 0.333433 -1.04403e-18)
(0.921555 0.328621 -2.58351e-18)
(0.920627 0.3235 -8.94377e-18)
(0.920107 0.317902 6.56601e-19)
(0.919349 0.311637 7.90539e-18)
(0.91969 0.304806 -8.74558e-18)
(0.917817 0.295875 -2.39471e-18)
(0.91898 0.285303 -3.19514e-18)
(0.918184 0.271802 9.87881e-18)
(0.929695 0.377633 1.07235e-21)
(0.929146 0.37761 -9.20601e-22)
(0.928734 0.377572 8.12262e-22)
(0.928489 0.377502 5.22399e-21)
(0.92844 0.377392 7.5142e-21)
(0.928599 0.377232 -2.98741e-20)
(0.928965 0.377021 2.16794e-20)
(0.929521 0.37675 4.39303e-21)
(0.930239 0.376422 -1.474e-21)
(0.931074 0.376038 -9.85699e-21)
(0.931977 0.375604 3.01901e-20)
(0.932893 0.375129 -1.01865e-20)
(0.933771 0.374624 -1.406e-20)
(0.934568 0.3741 -4.20812e-20)
(0.935254 0.373569 8.59875e-20)
(0.935806 0.373039 -1.81485e-20)
(0.936219 0.372519 -1.57147e-20)
(0.936495 0.37201 -4.7212e-20)
(0.936648 0.371515 5.3489e-20)
(0.936694 0.371029 3.11651e-20)
(0.936651 0.370551 -1.29601e-20)
(0.936539 0.370073 2.76595e-20)
(0.936372 0.369592 -1.1644e-19)
(0.936165 0.369098 6.10654e-21)
(0.935928 0.368591 7.07931e-20)
(0.935669 0.368065 -1.51295e-20)
(0.935393 0.367526 -2.4069e-19)
(0.935107 0.366977 1.81137e-20)
(0.934813 0.366435 2.34604e-19)
(0.934518 0.365908 -6.18916e-20)
(0.934224 0.365411 -1.35438e-19)
(0.933937 0.364925 7.4095e-20)
(0.933664 0.364416 2.55754e-19)
(0.933405 0.363888 6.41938e-19)
(0.933149 0.363377 -1.06757e-19)
(0.932891 0.362892 1.45214e-19)
(0.932629 0.362407 -1.17282e-18)
(0.932358 0.361901 -3.78784e-19)
(0.932062 0.361361 2.48401e-19)
(0.931721 0.360783 -1.06633e-18)
(0.931311 0.360148 -2.65545e-19)
(0.930794 0.359416 5.52637e-19)
(0.930183 0.358528 4.14049e-19)
(0.929477 0.357449 1.30859e-18)
(0.928664 0.356119 4.70875e-18)
(0.927753 0.354443 -3.99344e-18)
(0.926729 0.352368 6.73906e-18)
(0.925642 0.349763 5.61177e-18)
(0.924469 0.346619 8.05719e-21)
(0.923288 0.342888 8.36168e-18)
(0.922118 0.338559 -1.25437e-17)
(0.920876 0.333814 -1.59728e-17)
(0.919825 0.328643 1.30782e-17)
(0.918757 0.32311 1.16649e-17)
(0.91814 0.31708 -4.77891e-18)
(0.917395 0.310365 -2.8896e-17)
(0.917867 0.303235 6.95526e-18)
(0.916528 0.294196 -6.2446e-18)
(0.917939 0.283825 -9.2732e-18)
(0.919924 0.271454 6.64118e-18)
(0.92968 0.380273 -1.06961e-21)
(0.92896 0.380277 1.18508e-21)
(0.928327 0.380276 7.9238e-21)
(0.927815 0.380253 -1.04365e-20)
(0.927458 0.380201 1.87758e-20)
(0.927283 0.380108 -2.77388e-20)
(0.927308 0.379971 7.94373e-21)
(0.927539 0.379778 -3.32319e-22)
(0.927966 0.379527 1.7421e-20)
(0.928566 0.379215 -9.29214e-21)
(0.929303 0.378843 2.6655e-21)
(0.930133 0.378415 2.8067e-21)
(0.931005 0.377939 -4.48028e-20)
(0.93187 0.377425 1.37624e-20)
(0.932686 0.376883 3.1961e-20)
(0.933417 0.376323 9.38288e-22)
(0.934038 0.375758 -5.53182e-20)
(0.934535 0.375192 2.24671e-20)
(0.934909 0.374633 1.10157e-19)
(0.935163 0.37408 -7.28321e-20)
(0.93531 0.373536 -5.70143e-20)
(0.935365 0.372993 5.04527e-20)
(0.935342 0.372452 3.2899e-20)
(0.935256 0.3719 3.98927e-20)
(0.935119 0.371337 -7.71805e-20)
(0.934941 0.370752 -1.79653e-19)
(0.934729 0.370151 1.38036e-19)
(0.93449 0.369533 2.17379e-19)
(0.93423 0.368915 6.2748e-20)
(0.933954 0.368306 -1.1652e-19)
(0.933664 0.367723 6.2817e-20)
(0.93337 0.367148 1.0219e-19)
(0.933078 0.366548 -1.93981e-19)
(0.932792 0.365929 -3.59154e-20)
(0.932502 0.365327 -4.01089e-19)
(0.932207 0.364753 -1.31307e-19)
(0.931906 0.364185 -1.13985e-19)
(0.931593 0.363603 3.42164e-19)
(0.931255 0.362994 -4.80736e-19)
(0.930873 0.362356 1.62035e-19)
(0.930425 0.36167 2.55143e-19)
(0.929869 0.360897 6.82898e-20)
(0.929225 0.359969 -1.87595e-18)
(0.928499 0.35886 -2.70297e-18)
(0.927679 0.357508 -2.58552e-18)
(0.926774 0.355821 5.19764e-18)
(0.925766 0.353746 -1.46352e-19)
(0.924698 0.35115 -2.48204e-18)
(0.923541 0.348014 1.34866e-18)
(0.922362 0.344278 -9.28705e-18)
(0.921167 0.339921 4.96486e-18)
(0.91988 0.3351 1.43912e-17)
(0.91876 0.3298 -1.57966e-18)
(0.917607 0.324084 -1.38484e-17)
(0.91692 0.317828 7.02119e-18)
(0.916197 0.310835 6.78058e-18)
(0.916754 0.30352 7.64964e-18)
(0.915889 0.294507 1.648e-17)
(0.917573 0.2845 1.42099e-17)
(0.922537 0.273502 -1.48095e-17)
(0.929878 0.382587 -8.43933e-22)
(0.929063 0.382609 1.22727e-21)
(0.928291 0.38263 2.44117e-22)
(0.927591 0.382638 4.60199e-21)
(0.927001 0.382626 -7.0642e-21)
(0.926552 0.382584 -1.4341e-20)
(0.926274 0.382507 5.31851e-21)
(0.926187 0.382383 -6.74316e-21)
(0.926299 0.382208 1.51205e-20)
(0.926608 0.381974 -3.02885e-21)
(0.927096 0.381679 -9.97576e-21)
(0.927732 0.381321 8.48059e-21)
(0.928479 0.380903 1.3717e-20)
(0.929289 0.380432 3.8026e-20)
(0.930119 0.379917 -7.01384e-20)
(0.930925 0.379364 3.63523e-20)
(0.931669 0.378788 5.71526e-21)
(0.932325 0.378195 -3.7086e-20)
(0.932878 0.377597 -2.36236e-20)
(0.933318 0.376995 7.91834e-20)
(0.933648 0.376397 -8.49841e-20)
(0.933875 0.3758 2.57669e-20)
(0.93401 0.375204 -7.43582e-20)
(0.934063 0.374601 1.24404e-19)
(0.934048 0.373989 -2.56513e-20)
(0.933974 0.373356 -7.8131e-20)
(0.933851 0.372706 6.27739e-20)
(0.933686 0.372037 1.28738e-19)
(0.933484 0.371364 -1.31666e-19)
(0.933251 0.370695 8.70018e-20)
(0.932991 0.370045 -3.03388e-19)
(0.932712 0.369398 -4.13588e-20)
(0.932421 0.368722 1.4867e-19)
(0.932124 0.368021 -8.92259e-20)
(0.931813 0.367335 -1.93157e-19)
(0.931489 0.366675 -5.10466e-19)
(0.931152 0.366024 6.861e-19)
(0.930799 0.365363 -2.71696e-19)
(0.930419 0.364682 2.3566e-19)
(0.929997 0.363977 4.92903e-19)
(0.929515 0.363231 3.95496e-19)
(0.928929 0.36241 -2.83293e-19)
(0.928265 0.361441 1.03848e-18)
(0.927539 0.360302 2.01758e-18)
(0.926738 0.358939 -1.99031e-19)
(0.925873 0.357261 -3.01473e-18)
(0.924923 0.355224 -4.35242e-18)
(0.923925 0.352694 -3.87512e-19)
(0.92284 0.349647 3.38022e-18)
(0.921727 0.346019 -2.73823e-19)
(0.920575 0.341772 7.08861e-18)
(0.919313 0.337039 -1.2631e-17)
(0.918188 0.331791 -7.36211e-18)
(0.917009 0.32607 -2.09683e-18)
(0.91629 0.319752 -6.32621e-18)
(0.915608 0.312621 4.15695e-18)
(0.916225 0.3052 -5.7163e-18)
(0.915777 0.296271 -1.98427e-17)
(0.917746 0.286653 -2.07711e-17)
(0.925595 0.276838 7.26191e-18)
(0.930185 0.384631 -1.19333e-21)
(0.929331 0.384658 9.77659e-22)
(0.928484 0.384691 7.62007e-22)
(0.927669 0.384719 -5.44174e-21)
(0.926918 0.384734 5.6637e-21)
(0.926266 0.38473 -2.77987e-21)
(0.925743 0.384701 9.0553e-21)
(0.92538 0.384635 -1.35412e-20)
(0.925198 0.384527 8.36992e-22)
(0.925209 0.384366 1.08518e-21)
(0.925413 0.384149 -1.00605e-20)
(0.925796 0.383869 2.84968e-20)