/*--------------------------------*- C++ -*----------------------------------*\
  =========                 |
  \\      /  F ield         | OpenFOAM: The Open Source CFD Toolbox
   \\    /   O peration     | Website:  https://openfoam.org
    \\  /    A nd           | Version:  6.0
     \\/     M anipulation  |
\*---------------------------------------------------------------------------*/
FoamFile
{
    version     2.0;
    format      ascii;
    class       volScalarField;
    location    "16";
    object      p;
}
// * * * * * * * * * * * * * * * * * * * * * * * * * * * * * * * * * * * * * //

dimensions      [0 2 -2 0 0 0 0];

internalField   nonuniform List<scalar> 
248000
(
0.019409
0.0193999
0.0193909
0.0193822
0.0193737
0.0193654
0.0193574
0.0193497
0.0193422
0.0193351
0.0193282
0.0193218
0.0193156
0.0193099
0.0193045
0.0192996
0.019295
0.0192909
0.0192873
0.0192841
0.0192814
0.0192793
0.0192776
0.0192766
0.0192761
0.0192762
0.0192769
0.0192784
0.0192804
0.0192833
0.0192869
0.0192913
0.0192965
0.0193027
0.0193097
0.0193179
0.0193271
0.0193375
0.0193491
0.0193622
0.0193766
0.0193928
0.0194107
0.0194306
0.0194525
0.0194769
0.0195036
0.0195333
0.0195653
0.0195998
0.0196366
0.0196762
0.0197187
0.0197648
0.0198148
0.0198694
0.019929
0.0199945
0.0200664
0.0201457
0.020233
0.0203293
0.0204356
0.020553
0.0206823
0.0208248
0.0209815
0.0211537
0.0213424
0.0215483
0.0217721
0.0220141
0.0222746
0.0225533
0.0228496
0.0231621
0.0234889
0.0238277
0.0241754
0.0245284
0.0248827
0.0252342
0.0255787
0.025912
0.0262308
0.0265321
0.0268137
0.027074
0.0273114
0.0275236
0.0277072
0.0278563
0.0279623
0.028013
0.0279948
0.0278919
0.0276927
0.0273878
0.0269809
0.0264817
0.0259187
0.0253219
0.0247374
0.0241967
0.0237371
0.0233637
0.0230779
0.0228517
0.0226406
0.0223915
0.0220521
0.0215762
0.0209332
0.0201047
0.0191071
0.0179257
0.0167065
0.0151563
0.014461
0.0163677
0.0194311
0.0194188
0.0194071
0.0193961
0.0193857
0.0193759
0.0193666
0.0193579
0.0193497
0.019342
0.0193349
0.0193282
0.0193221
0.0193164
0.0193112
0.0193065
0.0193022
0.0192984
0.019295
0.0192921
0.0192896
0.0192877
0.0192861
0.0192851
0.0192845
0.0192846
0.0192851
0.0192863
0.0192881
0.0192906
0.0192938
0.0192978
0.0193025
0.0193081
0.0193145
0.0193219
0.0193303
0.0193399
0.0193506
0.0193627
0.0193762
0.0193914
0.0194083
0.0194272
0.0194482
0.0194717
0.0194978
0.0195268
0.0195584
0.0195925
0.0196289
0.0196682
0.0197107
0.0197568
0.019807
0.0198619
0.0199222
0.0199885
0.0200614
0.020142
0.0202309
0.0203292
0.0204379
0.020558
0.0206906
0.020837
0.0209983
0.0211758
0.0213707
0.0215838
0.021816
0.0220678
0.0223396
0.0226313
0.0229425
0.0232722
0.0236187
0.0239798
0.0243529
0.0247346
0.0251212
0.0255089
0.0258936
0.0262717
0.0266402
0.0269963
0.0273386
0.0276658
0.027977
0.0282707
0.0285439
0.028791
0.0290034
0.0291679
0.0292691
0.0292882
0.0292093
0.0290182
0.0287136
0.0283004
0.0278049
0.0272568
0.0267065
0.0261914
0.0257594
0.0254252
0.0252009
0.0250641
0.0249701
0.02486
0.0246699
0.0243362
0.0238085
0.0230451
0.0220474
0.0207698
0.0193864
0.0175238
0.0171232
0.0180035
0.0194276
0.0194159
0.0194047
0.019394
0.0193837
0.0193739
0.0193645
0.0193557
0.0193472
0.0193392
0.0193317
0.0193247
0.019318
0.0193119
0.0193062
0.0193009
0.0192962
0.0192919
0.019288
0.0192847
0.0192818
0.0192795
0.0192776
0.0192763
0.0192755
0.0192753
0.0192757
0.0192767
0.0192784
0.0192809
0.019284
0.0192879
0.0192925
0.0192981
0.0193045
0.0193118
0.0193201
0.0193296
0.0193401
0.019352
0.0193653
0.0193802
0.0193967
0.0194153
0.0194359
0.0194589
0.0194845
0.019513
0.019544
0.0195772
0.0196127
0.0196508
0.0196918
0.0197362
0.0197845
0.0198372
0.019895
0.0199584
0.0200281
0.0201049
0.0201897
0.0202832
0.0203865
0.0205005
0.0206264
0.0207652
0.0209182
0.0210866
0.0212716
0.0214739
0.0216943
0.0219333
0.0221914
0.0224683
0.0227636
0.0230763
0.0234046
0.0237464
0.024099
0.024459
0.0248225
0.0251856
0.0255442
0.0258947
0.026234
0.0265595
0.02687
0.0271649
0.0274439
0.0277066
0.0279513
0.0281736
0.0283658
0.0285153
0.0286058
0.0286161
0.0285262
0.0283155
0.0279742
0.027498
0.026904
0.0262144
0.0254752
0.0247246
0.0240162
0.0233771
0.022836
0.0223881
0.0220074
0.0216524
0.0212723
0.020812
0.0202255
0.0194707
0.0185505
0.0174201
0.0162627
0.0148038
0.0149711
0.0156147
0.0194376
0.019429
0.0194201
0.0194114
0.0194027
0.0193941
0.0193856
0.0193773
0.0193691
0.0193612
0.0193534
0.019346
0.0193387
0.0193318
0.0193251
0.0193189
0.0193129
0.0193073
0.0193021
0.0192973
0.019293
0.0192892
0.0192858
0.019283
0.0192807
0.019279
0.019278
0.0192777
0.019278
0.0192791
0.0192809
0.0192836
0.0192871
0.0192915
0.0192967
0.019303
0.0193102
0.0193186
0.0193281
0.019339
0.0193513
0.0193651
0.0193807
0.0193982
0.0194177
0.0194397
0.0194643
0.0194916
0.0195215
0.0195535
0.0195876
0.0196241
0.0196633
0.0197058
0.0197519
0.0198023
0.0198574
0.0199178
0.0199842
0.0200574
0.020138
0.020227
0.0203251
0.0204335
0.0205531
0.020685
0.0208306
0.0209911
0.0211675
0.0213606
0.0215711
0.0217996
0.0220465
0.0223117
0.0225946
0.0228942
0.0232089
0.0235366
0.0238745
0.0242191
0.0245668
0.0249134
0.0252548
0.0255875
0.0259084
0.0262155
0.0265081
0.0267864
0.0270518
0.027306
0.0275497
0.0277818
0.0279977
0.0281878
0.028338
0.0284279
0.0284357
0.0283364
0.0281128
0.0277502
0.0272533
0.0266315
0.0259193
0.0251471
0.0243645
0.0236018
0.0228974
0.0222593
0.0216784
0.0211319
0.0205867
0.0200022
0.0193437
0.0185756
0.0177073
0.0167015
0.0157458
0.0146302
0.0151161
0.0163082
0.0194659
0.0194581
0.0194498
0.0194415
0.0194329
0.0194243
0.0194157
0.019407
0.0193984
0.0193899
0.0193814
0.0193732
0.019365
0.0193571
0.0193494
0.0193419
0.0193346
0.0193277
0.0193211
0.0193148
0.0193089
0.0193035
0.0192985
0.019294
0.01929
0.0192867
0.0192839
0.0192819
0.0192804
0.0192799
0.0192799
0.0192809
0.0192827
0.0192854
0.0192889
0.0192935
0.0192991
0.0193058
0.0193137
0.0193229
0.0193335
0.0193457
0.0193596
0.0193754
0.0193932
0.0194135
0.0194364
0.0194621
0.0194902
0.0195206
0.0195529
0.0195875
0.0196246
0.019665
0.0197088
0.0197566
0.019809
0.0198665
0.0199296
0.0199992
0.0200759
0.0201605
0.0202539
0.020357
0.0204708
0.0205965
0.0207354
0.0208887
0.0210575
0.0212426
0.0214447
0.0216645
0.0219024
0.022158
0.0224308
0.0227199
0.0230238
0.0233402
0.0236664
0.0239988
0.0243336
0.0246665
0.0249932
0.0253099
0.0256136
0.0259023
0.0261758
0.0264353
0.0266836
0.0269248
0.0271629
0.0274011
0.0276398
0.027875
0.028098
0.028293
0.028441
0.0285173
0.028501
0.0283706
0.0281196
0.0277443
0.0272641
0.0266953
0.0260751
0.025426
0.0247839
0.0241587
0.0235478
0.022939
0.0223105
0.0216323
0.0208783
0.0200186
0.0190674
0.0179923
0.0169828
0.0158413
0.0162359
0.0174383
0.0195084
0.0194994
0.01949
0.0194804
0.0194706
0.0194606
0.0194506
0.0194405
0.0194303
0.0194202
0.0194101
0.0194002
0.0193903
0.0193806
0.0193711
0.0193618
0.0193526
0.0193438
0.0193352
0.019327
0.019319
0.0193116
0.0193046
0.0192981
0.0192921
0.0192868
0.0192822
0.0192783
0.019275
0.0192727
0.0192711
0.0192704
0.0192705
0.0192715
0.0192734
0.0192764
0.0192803
0.0192854
0.0192917
0.0192992
0.0193081
0.0193186
0.0193307
0.0193447
0.0193607
0.019379
0.0193998
0.0194234
0.0194494
0.0194776
0.0195076
0.0195398
0.0195744
0.019612
0.0196528
0.0196974
0.0197462
0.0197997
0.0198585
0.0199232
0.0199945
0.0200732
0.0201599
0.0202557
0.0203613
0.020478
0.0206072
0.02075
0.0209077
0.0210811
0.0212709
0.0214776
0.0217012
0.0219415
0.0221978
0.0224692
0.022754
0.0230499
0.0233539
0.023662
0.0239699
0.0242727
0.0245655
0.0248436
0.0251034
0.025342
0.0255588
0.0257549
0.0259337
0.0261008
0.0262627
0.0264265
0.0265979
0.0267794
0.0269696
0.0271602
0.027339
0.0274865
0.027584
0.0276088
0.0275488
0.0273912
0.0271429
0.0268064
0.0264044
0.0259465
0.0254598
0.0249484
0.0244086
0.0238316
0.023201
0.0224928
0.0216869
0.0207591
0.0197296
0.0185738
0.0174895
0.0162999
0.0165758
0.0176501
0.0195598
0.0195494
0.0195385
0.0195275
0.0195162
0.0195048
0.0194931
0.0194814
0.0194695
0.0194576
0.0194456
0.0194336
0.0194216
0.0194097
0.0193978
0.0193861
0.0193744
0.019363
0.0193517
0.0193407
0.0193299
0.0193196
0.0193097
0.0193004
0.0192916
0.0192835
0.0192762
0.0192697
0.019264
0.0192593
0.0192555
0.0192527
0.0192507
0.0192498
0.0192498
0.019251
0.0192531
0.0192564
0.0192608
0.0192666
0.0192738
0.0192824
0.0192927
0.0193048
0.0193188
0.019335
0.0193535
0.0193747
0.0193982
0.0194238
0.0194512
0.0194806
0.0195124
0.0195469
0.0195844
0.0196253
0.0196701
0.0197193
0.0197733
0.0198328
0.0198984
0.0199707
0.0200504
0.0201385
0.0202356
0.0203431
0.0204622
0.0205945
0.0207412
0.0209033
0.0210814
0.0212757
0.0214861
0.021712
0.0219528
0.0222075
0.0224746
0.0227513
0.0230343
0.0233191
0.0236005
0.0238728
0.0241301
0.0243662
0.0245758
0.0247548
0.0249005
0.0250128
0.025094
0.0251493
0.0251863
0.0252141
0.0252422
0.0252786
0.0253289
0.0253934
0.0254685
0.025543
0.0256052
0.0256366
0.0256261
0.0255579
0.0254327
0.0252438
0.0250028
0.0247078
0.0243758
0.0240033
0.0235827
0.0231052
0.022556
0.0219142
0.0211646
0.0202884
0.0193133
0.0182261
0.0172323
0.0161924
0.0165242
0.0177392
0.0196067
0.0195965
0.0195856
0.0195743
0.0195624
0.0195502
0.0195375
0.0195246
0.0195113
0.0194978
0.0194841
0.0194703
0.0194563
0.0194422
0.019428
0.0194138
0.0193995
0.0193854
0.0193712
0.0193572
0.0193434
0.0193298
0.0193166
0.019304
0.0192918
0.0192804
0.0192698
0.01926
0.0192512
0.0192435
0.0192367
0.0192311
0.0192264
0.0192229
0.0192204
0.0192191
0.0192188
0.0192198
0.019222
0.0192255
0.0192304
0.0192369
0.0192449
0.0192548
0.0192665
0.0192803
0.0192964
0.0193149
0.0193357
0.0193586
0.0193833
0.01941
0.019439
0.0194707
0.0195053
0.0195432
0.0195849
0.0196308
0.0196814
0.0197373
0.0197991
0.0198675
0.0199431
0.0200267
0.0201193
0.0202219
0.0203362
0.0204639
0.0206066
0.0207655
0.0209411
0.0211335
0.0213421
0.0215666
0.0218066
0.0220612
0.022329
0.0226071
0.0228919
0.0231786
0.0234613
0.0237334
0.0239878
0.0242169
0.0244133
0.0245707
0.0246839
0.0247503
0.0247697
0.0247452
0.0246832
0.0245923
0.0244838
0.0243685
0.0242573
0.0241571
0.0240728
0.0240021
0.0239421
0.0238819
0.0238157
0.0237302
0.0236257
0.0234919
0.0233348
0.023144
0.0229294
0.0226811
0.0223874
0.0220382
0.0216181
0.0211072
0.0204921
0.0197578
0.0189362
0.0180221
0.0172171
0.0164094
0.0168399
0.0182419
0.0196318
0.0196229
0.0196128
0.019602
0.0195904
0.0195782
0.0195652
0.0195518
0.0195377
0.0195233
0.0195084
0.0194933
0.0194777
0.019462
0.019446
0.0194299
0.0194136
0.0193972
0.0193808
0.0193643
0.0193479
0.0193317
0.0193157
0.0193002
0.019285
0.0192706
0.0192569
0.0192441
0.0192321
0.0192214
0.0192116
0.0192029
0.0191953
0.019189
0.0191836
0.0191795
0.0191764
0.0191746
0.019174
0.0191749
0.019177
0.0191808
0.0191862
0.0191934
0.0192025
0.0192137
0.0192272
0.0192431
0.0192612
0.0192815
0.0193037
0.019328
0.0193547
0.0193842
0.0194168
0.0194528
0.0194926
0.0195369
0.0195862
0.0196409
0.0197018
0.0197695
0.0198449
0.0199287
0.0200219
0.0201258
0.0202421
0.0203731
0.0205208
0.0206866
0.0208711
0.0210742
0.0212955
0.0215348
0.0217924
0.0220678
0.0223599
0.0226661
0.0229828
0.0233052
0.0236273
0.0239418
0.0242407
0.0245152
0.0247562
0.024955
0.0251039
0.025197
0.0252309
0.0252052
0.0251233
0.0249917
0.0248202
0.0246201
0.0244045
0.0241843
0.0239704
0.0237676
0.0235813
0.0234086
0.0232509
0.0231
0.0229597
0.0228202
0.0226859
0.0225424
0.0223953
0.0222301
0.0220322
0.0217895
0.0214846
0.0210959
0.0206091
0.0200084
0.0193242
0.0185524
0.0178773
0.0171935
0.0175896
0.0189465
0.0196269
0.0196188
0.0196094
0.019599
0.0195876
0.0195753
0.0195622
0.0195483
0.0195337
0.0195185
0.0195028
0.0194866
0.01947
0.0194531
0.0194358
0.0194183
0.0194006
0.0193827
0.0193647
0.0193467
0.0193286
0.0193106
0.0192927
0.0192752
0.0192581
0.0192416
0.0192257
0.0192107
0.0191965
0.0191834
0.0191713
0.0191602
0.0191502
0.0191413
0.0191335
0.0191268
0.0191211
0.0191167
0.0191134
0.0191115
0.0191109
0.0191119
0.0191146
0.0191191
0.0191255
0.0191341
0.019145
0.0191584
0.0191741
0.019192
0.019212
0.0192342
0.019259
0.0192868
0.0193178
0.0193526
0.0193915
0.0194351
0.0194841
0.019539
0.0196004
0.0196692
0.0197463
0.0198326
0.0199291
0.0200374
0.0201593
0.0202976
0.0204547
0.0206322
0.0208309
0.0210508
0.0212918
0.0215544
0.0218391
0.0221467
0.0224764
0.0228263
0.0231933
0.0235729
0.0239593
0.0243455
0.0247231
0.0250825
0.0254135
0.0257057
0.025949
0.0261344
0.0262553
0.0263073
0.0262899
0.0262058
0.0260618
0.0258672
0.0256342
0.025375
0.0251032
0.0248283
0.0245613
0.024306
0.0240702
0.0238518
0.0236586
0.023484
0.0233331
0.0231905
0.0230595
0.0229237
0.0227659
0.022572
0.0223217
0.0219904
0.0215601
0.0210109
0.0203675
0.0196225
0.0189377
0.0182027
0.0183945
0.019457
0.0195925
0.0195835
0.0195733
0.0195622
0.01955
0.019537
0.0195231
0.0195085
0.0194931
0.0194771
0.0194605
0.0194435
0.0194259
0.0194081
0.0193898
0.0193714
0.0193527
0.0193338
0.0193148
0.0192958
0.0192767
0.0192578
0.0192389
0.0192204
0.0192023
0.0191847
0.0191677
0.0191515
0.0191361
0.0191217
0.0191082
0.0190958
0.0190842
0.0190738
0.0190642
0.0190557
0.0190481
0.0190416
0.0190362
0.0190321
0.0190292
0.0190279
0.0190281
0.0190302
0.0190343
0.0190405
0.0190491
0.0190603
0.0190738
0.0190897
0.0191076
0.0191279
0.0191508
0.0191767
0.0192061
0.0192393
0.0192768
0.0193193
0.0193674
0.0194215
0.0194825
0.0195512
0.0196286
0.0197158
0.019814
0.0199247
0.0200502
0.0201932
0.0203567
0.0205425
0.0207515
0.0209839
0.0212402
0.0215213
0.0218288
0.0221642
0.0225277
0.0229178
0.0233327
0.0237685
0.02422
0.0246811
0.0251435
0.0255978
0.0260333
0.0264385
0.0268019
0.0271121
0.0273596
0.0275365
0.0276381
0.0276631
0.027614
0.0274967
0.0273208
0.027097
0.0268388
0.0265577
0.0262675
0.0259761
0.0256961
0.02543
0.0251898
0.0249723
0.0247841
0.0246107
0.0244548
0.0242988
0.0241244
0.0239158
0.0236497
0.0232981
0.0228391
0.0222479
0.0215425
0.0207131
0.0199025
0.0189975
0.0188931
0.0195539
0.0195334
0.0195221
0.0195097
0.0194966
0.0194826
0.0194679
0.0194524
0.0194363
0.0194196
0.0194023
0.0193846
0.0193664
0.0193479
0.019329
0.0193099
0.0192906
0.0192711
0.0192515
0.0192319
0.0192122
0.0191926
0.0191731
0.0191538
0.0191348
0.0191163
0.0190983
0.0190809
0.0190644
0.0190486
0.0190337
0.0190197
0.0190068
0.0189946
0.0189834
0.018973
0.0189636
0.0189549
0.0189473
0.0189406
0.018935
0.0189305
0.0189275
0.0189259
0.0189261
0.0189282
0.0189325
0.0189392
0.0189484
0.01896
0.0189739
0.0189897
0.0190078
0.0190285
0.019052
0.0190787
0.0191093
0.0191439
0.0191834
0.0192282
0.019279
0.0193364
0.0194013
0.0194748
0.0195582
0.0196526
0.0197596
0.0198817
0.0200216
0.0201824
0.0203663
0.0205742
0.0208063
0.0210639
0.0213485
0.0216625
0.0220085
0.0223872
0.0227982
0.0232406
0.0237117
0.0242073
0.0247224
0.0252495
0.0257801
0.0263037
0.0268085
0.0272824
0.027713
0.0280883
0.0283979
0.0286335
0.0287902
0.0288659
0.0288629
0.0287865
0.0286451
0.0284497
0.0282118
0.027945
0.0276599
0.0273705
0.0270834
0.0268124
0.0265581
0.0263279
0.0261093
0.0259049
0.0256974
0.0254679
0.0251994
0.024867
0.0244404
0.0238945
0.0232018
0.0223755
0.0214073
0.0204291
0.0193321
0.0189404
0.0192348
0.0194509
0.0194361
0.0194208
0.0194049
0.0193885
0.0193717
0.0193543
0.0193365
0.0193182
0.0192996
0.0192806
0.0192614
0.0192419
0.0192222
0.0192023
0.0191823
0.0191622
0.0191421
0.0191219
0.0191019
0.0190819
0.0190622
0.0190426
0.0190236
0.0190049
0.0189869
0.0189695
0.0189529
0.0189372
0.0189224
0.0189084
0.0188954
0.0188831
0.0188718
0.0188612
0.0188515
0.0188425
0.0188344
0.018827
0.0188206
0.0188152
0.018811
0.0188082
0.018807
0.0188076
0.0188104
0.0188153
0.0188228
0.0188325
0.0188443
0.0188579
0.0188734
0.0188909
0.018911
0.0189338
0.0189599
0.0189896
0.0190235
0.0190621
0.0191059
0.0191555
0.0192118
0.019276
0.0193492
0.0194327
0.0195281
0.0196376
0.0197641
0.0199107
0.0200796
0.0202715
0.0204872
0.0207281
0.0209966
0.0212956
0.0216286
0.0219972
0.0224016
0.0228422
0.0233172
0.0238239
0.0243585
0.0249149
0.0254855
0.0260611
0.0266301
0.027181
0.0277007
0.0281765
0.0285961
0.0289486
0.0292262
0.0294232
0.0295379
0.0295718
0.0295298
0.0294199
0.0292515
0.029037
0.0287869
0.0285156
0.0282315
0.0279494
0.0276721
0.0274077
0.0271454
0.0268887
0.0266204
0.0263224
0.0259775
0.0255603
0.0250402
0.0243909
0.0235847
0.0226336
0.0215349
0.0204165
0.01918
0.0185754
0.0186121
0.0193481
0.0193302
0.019312
0.0192935
0.0192746
0.0192556
0.0192362
0.0192166
0.0191968
0.0191768
0.0191566
0.0191364
0.019116
0.0190955
0.0190749
0.0190544
0.0190338
0.0190133
0.0189928
0.0189725
0.0189523
0.0189325
0.0189129
0.0188937
0.0188751
0.0188571
0.0188398
0.0188233
0.0188077
0.018793
0.0187792
0.0187663
0.0187542
0.018743
0.0187325
0.0187228
0.0187137
0.0187054
0.0186977
0.018691
0.018685
0.0186801
0.0186764
0.0186742
0.0186735
0.0186748
0.0186782
0.0186839
0.0186916
0.0187011
0.018712
0.0187242
0.0187378
0.0187533
0.0187707
0.0187906
0.0188132
0.018839
0.0188683
0.0189017
0.0189396
0.0189828
0.0190325
0.0190897
0.0191555
0.0192317
0.0193203
0.0194239
0.0195455
0.0196871
0.0198496
0.0200337
0.0202413
0.0204752
0.0207389
0.0210365
0.0213703
0.0217412
0.0221505
0.0225977
0.0230812
0.0235987
0.0241454
0.0247154
0.0253007
0.0258908
0.0264754
0.0270414
0.0275763
0.0280672
0.0285015
0.0288695
0.0291628
0.0293766
0.0295089
0.0295611
0.029538
0.0294463
0.0292961
0.0290969
0.0288617
0.0285998
0.028325
0.0280425
0.0277593
0.0274669
0.0271692
0.02685
0.0264921
0.0260796
0.0255876
0.024987
0.0242524
0.0233587
0.022319
0.021139
0.0199459
0.0186533
0.0179296
0.0178297
0.0192278
0.0192073
0.0191867
0.019166
0.0191452
0.0191244
0.0191034
0.0190824
0.0190614
0.0190403
0.0190192
0.0189981
0.018977
0.018956
0.0189349
0.018914
0.0188931
0.0188723
0.0188516
0.0188312
0.0188109
0.0187909
0.0187713
0.0187521
0.0187334
0.0187155
0.0186982
0.0186818
0.0186662
0.0186516
0.0186378
0.018625
0.018613
0.0186018
0.0185913
0.0185816
0.0185725
0.018564
0.0185561
0.018549
0.0185426
0.0185371
0.0185325
0.0185292
0.0185273
0.0185272
0.0185288
0.0185325
0.018538
0.0185448
0.0185524
0.0185607
0.0185696
0.0185794
0.0185903
0.0186025
0.0186163
0.018632
0.0186498
0.0186703
0.0186936
0.0187205
0.0187518
0.0187888
0.0188324
0.018884
0.0189455
0.0190194
0.0191083
0.0192142
0.0193376
0.0194794
0.0196416
0.0198276
0.0200412
0.0202868
0.0205672
0.0208838
0.0212389
0.0216329
0.0220653
0.0225352
0.0230393
0.0235732
0.0241304
0.024702
0.0252789
0.0258493
0.026401
0.0269215
0.0273977
0.027819
0.028175
0.0284589
0.0286658
0.0287945
0.0288465
0.028826
0.0287401
0.028597
0.0284075
0.0281806
0.027929
0.0276584
0.027375
0.0270719
0.0267532
0.0264039
0.0260085
0.0255526
0.0250131
0.0243636
0.0235814
0.0226449
0.0215702
0.0203717
0.0191759
0.0179064
0.0171448
0.017005
0.019095
0.0190731
0.019051
0.0190289
0.0190067
0.0189846
0.0189625
0.0189404
0.0189183
0.0188963
0.0188744
0.0188527
0.018831
0.0188094
0.0187879
0.0187666
0.0187454
0.0187244
0.0187036
0.0186829
0.0186625
0.0186425
0.0186228
0.0186035
0.0185848
0.0185668
0.0185494
0.0185329
0.0185172
0.0185025
0.0184887
0.0184757
0.0184635
0.0184522
0.0184415
0.0184316
0.0184221
0.0184134
0.0184051
0.0183975
0.0183904
0.0183841
0.0183786
0.0183741
0.0183708
0.0183689
0.0183685
0.0183699
0.0183727
0.0183764
0.0183803
0.018384
0.0183876
0.0183911
0.0183945
0.0183982
0.0184022
0.0184068
0.0184119
0.018418
0.0184253
0.0184342
0.0184456
0.0184603
0.0184793
0.0185038
0.0185355
0.0185764
0.0186291
0.0186951
0.0187749
0.0188692
0.0189803
0.0191116
0.0192673
0.0194519
0.0196686
0.0199191
0.0202063
0.0205314
0.0208949
0.0212972
0.0217361
0.0222088
0.0227105
0.0232338
0.023771
0.0243119
0.0248454
0.0253598
0.0258424
0.0262822
0.0266681
0.0269921
0.0272473
0.0274304
0.0275403
0.027579
0.0275508
0.0274623
0.0273217
0.0271376
0.0269205
0.0266767
0.0264104
0.0261164
0.0257988
0.0254438
0.0250373
0.0245674
0.0240132
0.0233516
0.022563
0.0216303
0.0205722
0.0194111
0.0182706
0.0170799
0.0163355
0.0162179
0.0189521
0.0189294
0.0189066
0.0188838
0.018861
0.0188382
0.0188155
0.0187928
0.0187702
0.0187478
0.0187254
0.0187032
0.0186811
0.0186592
0.0186374
0.0186158
0.0185944
0.0185732
0.0185521
0.0185314
0.0185108
0.0184906
0.0184708
0.0184514
0.0184325
0.0184143
0.0183967
0.01838
0.0183641
0.0183491
0.0183349
0.0183216
0.018309
0.0182972
0.0182861
0.0182756
0.0182656
0.0182562
0.0182472
0.0182387
0.0182307
0.0182233
0.0182165
0.0182105
0.0182054
0.0182015
0.0181988
0.0181975
0.0181972
0.0181974
0.0181971
0.018196
0.0181938
0.0181905
0.0181863
0.0181812
0.0181751
0.0181683
0.0181606
0.0181523
0.0181435
0.0181345
0.0181259
0.0181186
0.0181131
0.0181107
0.0181127
0.018121
0.0181376
0.0181639
0.0182003
0.0182471
0.0183069
0.0183831
0.0184799
0.018602
0.0187526
0.0189337
0.0191484
0.0193989
0.0196861
0.0200114
0.0203741
0.0207722
0.0212026
0.0216596
0.0221369
0.0226259
0.0231169
0.0235994
0.0240616
0.0244928
0.0248821
0.0252205
0.0255004
0.0257168
0.025867
0.0259508
0.0259707
0.0259311
0.0258384
0.0256998
0.0255242
0.0253174
0.0250819
0.0248134
0.0245158
0.0241766
0.0237832
0.0233258
0.0227862
0.0221444
0.0213843
0.0204926
0.0194902
0.0184049
0.0173552
0.0162719
0.0155727
0.0155067
0.0188045
0.018782
0.0187592
0.0187364
0.0187134
0.0186904
0.0186674
0.0186444
0.0186214
0.0185986
0.0185758
0.0185533
0.0185308
0.0185085
0.0184864
0.0184645
0.0184427
0.0184212
0.0183999
0.0183788
0.018358
0.0183375
0.0183174
0.0182977
0.0182785
0.01826
0.018242
0.0182249
0.0182085
0.018193
0.0181782
0.0181644
0.0181511
0.0181386
0.0181267
0.0181154
0.0181045
0.0180941
0.018084
0.0180744
0.0180651
0.0180562
0.0180478
0.01804
0.0180328
0.0180265
0.0180211
0.0180167
0.018013
0.0180094
0.0180047
0.0179985
0.0179904
0.0179805
0.0179686
0.0179549
0.0179392
0.0179215
0.0179017
0.0178799
0.0178561
0.0178305
0.0178036
0.0177759
0.0177481
0.017721
0.0176959
0.0176743
0.017658
0.0176481
0.0176447
0.0176482
0.0176609
0.0176864
0.0177287
0.0177925
0.0178808
0.0179961
0.0181414
0.0183193
0.0185314
0.0187798
0.0190645
0.0193849
0.019739
0.0201226
0.0205308
0.0209565
0.0213916
0.0218269
0.0222517
0.0226562
0.0230299
0.0233639
0.0236501
0.0238829
0.0240578
0.024174
0.0242315
0.0242339
0.0241849
0.0240916
0.0239598
0.023796
0.0235996
0.0233679
0.0231038
0.022796
0.0224332
0.022008
0.021504
0.0209045
0.0201962
0.019369
0.0184445
0.0174542
0.016509
0.0155382
0.0148911
0.0148835
0.018654
0.0186321
0.0186099
0.0185875
0.018565
0.0185422
0.0185194
0.0184965
0.0184735
0.0184506
0.0184276
0.0184048
0.018382
0.0183594
0.0183368
0.0183145
0.0182923
0.0182703
0.0182484
0.0182269
0.0182056
0.0181846
0.0181639
0.0181437
0.018124
0.0181049
0.0180863
0.0180686
0.0180515
0.0180353
0.0180197
0.018005
0.0179908
0.0179774
0.0179644
0.017952
0.0179399
0.0179282
0.0179167
0.0179056
0.0178947
0.0178841
0.0178737
0.0178637
0.0178541
0.0178451
0.0178367
0.017829
0.0178217
0.0178141
0.0178049
0.0177936
0.0177798
0.0177635
0.0177444
0.0177227
0.0176982
0.0176707
0.0176401
0.0176064
0.0175695
0.0175295
0.0174866
0.0174416
0.0173946
0.0173464
0.0172981
0.0172512
0.0172069
0.0171662
0.0171291
0.0170957
0.0170682
0.0170502
0.0170458
0.017059
0.0170933
0.0171507
0.0172344
0.0173473
0.0174915
0.0176692
0.0178815
0.0181284
0.0184091
0.0187204
0.0190589
0.0194188
0.0197935
0.0201751
0.0205544
0.0209222
0.0212692
0.0215867
0.0218665
0.0221029
0.0222908
0.0224283
0.022514
0.0225506
0.02254
0.0224884
0.0223998
0.0222801
0.0221266
0.0219369
0.0217136
0.0214459
0.0211239
0.0207417
0.0202851
0.0197399
0.0190948
0.018342
0.0175029
0.0166107
0.015767
0.0148981
0.0142974
0.0143401
0.0185037
0.0184831
0.0184618
0.0184402
0.0184183
0.018396
0.0183734
0.0183507
0.0183277
0.0183047
0.0182816
0.0182584
0.0182353
0.0182122
0.0181892
0.0181662
0.0181434
0.0181208
0.0180982
0.018076
0.0180539
0.0180321
0.0180107
0.0179897
0.0179691
0.0179492
0.0179298
0.0179111
0.0178931
0.0178759
0.0178593
0.0178435
0.0178282
0.0178136
0.0177993
0.0177856
0.017772
0.0177589
0.0177458
0.0177329
0.0177201
0.0177075
0.0176949
0.0176826
0.0176704
0.0176585
0.0176469
0.0176357
0.0176247
0.017613
0.0175995
0.0175833
0.0175641
0.0175418
0.0175163
0.0174875
0.0174552
0.0174192
0.0173794
0.0173357
0.0172879
0.017236
0.0171803
0.017121
0.0170586
0.0169935
0.0169267
0.0168595
0.0167929
0.0167277
0.0166637
0.0166009
0.0165414
0.0164886
0.0164465
0.0164188
0.0164089
0.0164186
0.0164512
0.0165096
0.0165961
0.0167133
0.0168626
0.0170448
0.0172597
0.0175055
0.0177794
0.0180772
0.0183933
0.0187212
0.0190531
0.0193808
0.0196959
0.0199903
0.0202564
0.0204881
0.0206803
0.0208306
0.0209366
0.0210001
0.0210218
0.0210071
0.0209583
0.0208807
0.0207693
0.0206226
0.0204418
0.0202169
0.019939
0.0196036
0.0191979
0.0187097
0.0181294
0.0174505
0.0166931
0.0158909
0.0151355
0.0143495
0.0137827
0.0138617
0.0183502
0.0183308
0.0183108
0.0182903
0.0182693
0.0182479
0.018226
0.0182038
0.0181812
0.0181585
0.0181354
0.0181122
0.0180889
0.0180655
0.018042
0.0180186
0.0179951
0.0179718
0.0179485
0.0179254
0.0179025
0.0178798
0.0178574
0.0178354
0.0178138
0.0177928
0.0177723
0.0177526
0.0177334
0.0177151
0.0176973
0.0176802
0.0176635
0.0176475
0.0176318
0.0176165
0.0176013
0.0175864
0.0175715
0.0175568
0.0175419
0.0175271
0.0175122
0.0174973
0.0174824
0.0174675
0.0174527
0.017438
0.0174233
0.0174077
0.0173899
0.0173692
0.017345
0.0173174
0.0172861
0.0172512
0.0172124
0.0171694
0.017122
0.0170703
0.0170138
0.0169527
0.0168869
0.0168168
0.0167426
0.0166647
0.0165839
0.0165015
0.0164182
0.0163347
0.0162506
0.0161659
0.0160823
0.0160033
0.0159326
0.0158737
0.0158297
0.0158024
0.0157948
0.0158099
0.01585
0.0159179
0.0160154
0.0161436
0.016303
0.0164924
0.0167101
0.0169527
0.017216
0.0174943
0.0177813
0.0180696
0.0183519
0.0186208
0.0188693
0.0190916
0.0192824
0.0194392
0.0195589
0.0196429
0.0196907
0.019707
0.019693
0.0196533
0.0195807
0.0194739
0.0193331
0.0191491
0.0189135
0.0186229
0.0182656
0.017831
0.0173104
0.016698
0.0160119
0.0152857
0.0146009
0.0138766
0.0133298
0.0134292
0.0181949
0.0181771
0.0181584
0.0181391
0.0181192
0.0180986
0.0180775
0.0180558
0.0180337
0.0180112
0.0179884
0.0179652
0.0179418
0.0179182
0.0178944
0.0178705
0.0178464
0.0178224
0.0177983
0.0177744
0.0177505
0.0177268
0.0177034
0.0176803
0.0176575
0.0176353
0.0176136
0.0175926
0.0175721
0.0175524
0.0175332
0.0175146
0.0174965
0.0174789
0.0174615
0.0174445
0.0174276
0.0174109
0.017394
0.0173772
0.0173602
0.0173431
0.0173258
0.0173084
0.0172907
0.0172729
0.0172549
0.0172368
0.0172185
0.0171992
0.0171775
0.0171525
0.0171239
0.0170916
0.0170554
0.0170154
0.0169712
0.0169225
0.0168692
0.0168112
0.0167482
0.01668
0.0166068
0.0165288
0.0164462
0.0163591
0.0162685
0.0161752
0.0160803
0.0159839
0.0158858
0.0157857
0.0156852
0.0155877
0.0154966
0.0154152
0.0153463
0.0152918
0.0152541
0.0152364
0.015241
0.0152706
0.0153272
0.0154122
0.0155265
0.0156697
0.0158404
0.0160363
0.0162539
0.0164888
0.0167355
0.0169877
0.017239
0.0174827
0.0177125
0.0179229
0.0181089
0.0182677
0.0183962
0.0184951
0.0185632
0.0186049
0.01862
0.0186127
0.0185737
0.0185019
0.0183965
0.0182486
0.0180504
0.0177992
0.0174843
0.017096
0.0166262
0.0160694
0.0154416
0.0147753
0.0141428
0.01346
0.0129208
0.0130265
0.0180346
0.0180183
0.0180012
0.0179833
0.0179646
0.0179453
0.0179252
0.0179044
0.0178831
0.0178612
0.0178387
0.0178158
0.0177925
0.0177688
0.0177448
0.0177205
0.017696
0.0176714
0.0176466
0.0176218
0.017597
0.0175724
0.0175478
0.0175235
0.0174995
0.017476
0.017453
0.0174305
0.0174086
0.0173874
0.0173667
0.0173466
0.0173268
0.0173075
0.0172885
0.0172697
0.017251
0.0172323
0.0172134
0.0171945
0.0171753
0.017156
0.0171363
0.0171163
0.0170959
0.0170752
0.0170542
0.0170329
0.0170112
0.0169884
0.016963
0.0169342
0.0169017
0.0168654
0.0168251
0.0167808
0.0167322
0.0166791
0.0166211
0.0165584
0.0164906
0.0164175
0.016339
0.0162556
0.0161671
0.016074
0.0159767
0.0158763
0.0157737
0.015669
0.0155618
0.0154517
0.0153401
0.0152304
0.0151257
0.015029
0.0149429
0.0148692
0.0148101
0.0147686
0.0147469
0.0147477
0.0147732
0.0148248
0.0149037
0.0150099
0.0151426
0.0153001
0.0154797
0.0156776
0.0158896
0.01611
0.0163333
0.0165535
0.0167649
0.0169626
0.0171417
0.0172997
0.0174329
0.0175422
0.0176255
0.017687
0.0177257
0.0177449
0.0177338
0.017691
0.017615
0.017497
0.0173299
0.0171113
0.016831
0.0164806
0.0160517
0.015539
0.014956
0.0143346
0.0137381
0.0130801
0.0125385
0.0126387
0.0178705
0.017856
0.0178403
0.0178238
0.0178064
0.0177882
0.017769
0.0177492
0.0177286
0.0177073
0.0176853
0.0176628
0.0176396
0.017616
0.0175919
0.0175674
0.0175425
0.0175174
0.017492
0.0174664
0.0174408
0.0174151
0.0173895
0.017364
0.0173388
0.017314
0.0172895
0.0172657
0.0172423
0.0172195
0.0171972
0.0171755
0.017154
0.017133
0.0171122
0.0170916
0.017071
0.0170504
0.0170296
0.0170086
0.0169872
0.0169656
0.0169436
0.0169212
0.0168982
0.0168749
0.016851
0.0168266
0.0168018
0.0167757
0.016747
0.0167149
0.016679
0.0166392
0.0165954
0.0165477
0.0164956
0.016439
0.0163776
0.0163114
0.0162401
0.0161635
0.0160815
0.0159944
0.0159023
0.0158052
0.0157038
0.0155991
0.015492
0.0153823
0.0152697
0.0151536
0.0150354
0.0149181
0.0148049
0.0146984
0.0146012
0.0145146
0.0144408
0.0143826
0.0143421
0.0143219
0.0143242
0.0143504
0.0144019
0.0144791
0.0145816
0.014708
0.0148564
0.0150237
0.0152063
0.0153992
0.0155979
0.015797
0.0159913
0.0161763
0.0163476
0.0165026
0.0166378
0.0167538
0.0168481
0.0169247
0.0169817
0.0170221
0.0170331
0.0170137
0.016961
0.0168668
0.0167242
0.0165311
0.0162779
0.0159567
0.0155593
0.0150799
0.0145301
0.0139406
0.0133668
0.0127207
0.0121699
0.012256
0.0176983
0.0176853
0.0176712
0.0176562
0.0176403
0.0176234
0.0176055
0.0175869
0.0175673
0.0175469
0.0175257
0.0175037
0.017481
0.0174577
0.0174337
0.0174092
0.0173842
0.0173587
0.0173329
0.0173067
0.0172803
0.0172538
0.0172272
0.0172007
0.0171743
0.0171483
0.0171225
0.0170972
0.0170724
0.0170482
0.0170243
0.0170009
0.0169778
0.0169551
0.0169326
0.0169102
0.0168877
0.0168652
0.0168424
0.0168194
0.016796
0.0167722
0.016748
0.0167233
0.0166979
0.016672
0.0166454
0.0166183
0.0165905
0.0165615
0.0165298
0.0164948
0.0164559
0.0164132
0.0163665
0.0163159
0.0162611
0.0162017
0.0161377
0.016069
0.0159952
0.0159162
0.0158319
0.0157425
0.015648
0.0155486
0.0154449
0.0153378
0.0152281
0.0151159
0.0150004
0.0148811
0.0147593
0.0146379
0.0145197
0.0144073
0.0143031
0.0142083
0.0141247
0.014055
0.0140013
0.0139658