/*--------------------------------*- C++ -*----------------------------------*\
  =========                 |
  \\      /  F ield         | OpenFOAM: The Open Source CFD Toolbox
   \\    /   O peration     | Website:  https://openfoam.org
    \\  /    A nd           | Version:  6.0
     \\/     M anipulation  |
\*---------------------------------------------------------------------------*/
FoamFile
{
    version     2.0;
    format      ascii;
    class       volScalarField;
    location    "10";
    object      p;
}
// * * * * * * * * * * * * * * * * * * * * * * * * * * * * * * * * * * * * * //

dimensions      [0 2 -2 0 0 0 0];

internalField   nonuniform List<scalar> 
34500
(
1.00887
1.01012
1.01011
1.0085
1.007
1.00669
1.00719
1.00745
1.00713
1.00624
1.00512
1.00401
1.00291
1.00226
1.0019
1.00886
1.01017
1.01027
1.00871
1.00714
1.00682
1.00749
1.00806
1.00807
1.00739
1.00635
1.0052
1.00394
1.00326
1.00273
1.00884
1.01016
1.01028
1.00863
1.00675
1.00603
1.00637
1.00687
1.00699
1.00653
1.00571
1.00477
1.0037
1.00325
1.00288
1.00882
1.01019
1.01046
1.00891
1.00687
1.00579
1.00576
1.00606
1.00616
1.00584
1.00521
1.00448
1.00363
1.00338
1.00328
1.00879
1.01029
1.01084
1.00963
1.00774
1.00653
1.00623
1.00632
1.00632
1.00602
1.00546
1.00481
1.00404
1.00382
1.00379
1.00874
1.01037
1.01125
1.0105
1.00895
1.00781
1.00737
1.00728
1.00714
1.00676
1.00615
1.00547
1.00463
1.00433
1.00423
1.00868
1.01038
1.01153
1.01122
1.01006
1.00909
1.00862
1.00839
1.00811
1.0076
1.00689
1.0061
1.00514
1.00471
1.00451
1.00859
1.01029
1.0116
1.01164
1.01083
1.01007
1.00962
1.00929
1.00889
1.00827
1.00745
1.00655
1.00548
1.00493
1.00466
1.00848
1.01011
1.01147
1.01172
1.01121
1.01064
1.01024
1.00987
1.00938
1.00867
1.00777
1.00679
1.00564
1.00501
1.00472
1.00835
1.00986
1.01117
1.01154
1.01124
1.01083
1.01049
1.01011
1.00958
1.00882
1.00786
1.00685
1.00566
1.005
1.00473
1.0082
1.00956
1.01077
1.01117
1.011
1.01072
1.01046
1.01009
1.00955
1.00877
1.0078
1.00678
1.0056
1.00494
1.0047
1.00803
1.00924
1.01032
1.01069
1.01061
1.01042
1.01022
1.00988
1.00935
1.00858
1.00763
1.00663
1.00549
1.00484
1.00465
1.00785
1.00892
1.00985
1.01017
1.01013
1.01001
1.00987
1.00956
1.00906
1.00832
1.0074
1.00645
1.00536
1.00474
1.00459
1.00767
1.0086
1.00939
1.00964
1.00962
1.00955
1.00946
1.00919
1.00873
1.00803
1.00716
1.00626
1.00522
1.00464
1.00452
1.00748
1.00829
1.00896
1.00914
1.00913
1.00909
1.00904
1.00881
1.00839
1.00773
1.00692
1.00608
1.00509
1.00454
1.00445
1.00728
1.008
1.00856
1.00868
1.00867
1.00865
1.00863
1.00844
1.00806
1.00745
1.00669
1.00591
1.00498
1.00444
1.00438
1.00708
1.00772
1.00819
1.00826
1.00825
1.00825
1.00826
1.00809
1.00776
1.00719
1.00648
1.00575
1.00487
1.00435
1.00431
1.00688
1.00746
1.00785
1.00789
1.00788
1.00789
1.00792
1.00778
1.00748
1.00695
1.00629
1.00561
1.00477
1.00426
1.00423
1.00668
1.0072
1.00754
1.00755
1.00754
1.00756
1.00761
1.00749
1.00722
1.00674
1.00611
1.00548
1.00467
1.00418
1.00415
1.00647
1.00696
1.00725
1.00724
1.00723
1.00727
1.00732
1.00723
1.00698
1.00653
1.00595
1.00535
1.00458
1.00409
1.00407
1.00626
1.00672
1.00698
1.00695
1.00695
1.00699
1.00706
1.00698
1.00677
1.00635
1.0058
1.00523
1.00449
1.004
1.00398
1.00605
1.00648
1.00671
1.00667
1.00668
1.00674
1.00682
1.00675
1.00656
1.00617
1.00565
1.00512
1.00439
1.00392
1.00388
1.00583
1.00624
1.00645
1.00641
1.00643
1.00649
1.00658
1.00653
1.00636
1.00599
1.00551
1.005
1.0043
1.00382
1.00379
1.0056
1.006
1.00619
1.00615
1.00618
1.00625
1.00635
1.00632
1.00616
1.00582
1.00536
1.00489
1.0042
1.00373
1.00368
1.00538
1.00576
1.00593
1.00589
1.00593
1.00602
1.00613
1.00611
1.00597
1.00565
1.00522
1.00477
1.0041
1.00363
1.00357
1.00514
1.00552
1.00567
1.00563
1.00568
1.00578
1.0059
1.0059
1.00578
1.00548
1.00508
1.00465
1.004
1.00352
1.00346
1.0049
1.00527
1.00541
1.00536
1.00543
1.00554
1.00567
1.00568
1.00558
1.00531
1.00493
1.00452
1.00389
1.00341
1.00334
1.00465
1.00501
1.00514
1.00509
1.00517
1.00529
1.00544
1.00547
1.00539
1.00514
1.00478
1.00439
1.00378
1.0033
1.00322
1.0044
1.00475
1.00487
1.00482
1.00491
1.00504
1.0052
1.00525
1.00519
1.00496
1.00462
1.00426
1.00366
1.00317
1.00309
1.00413
1.00448
1.00458
1.00454
1.00464
1.00479
1.00496
1.00502
1.00498
1.00478
1.00446
1.00412
1.00353
1.00305
1.00296
1.00387
1.00421
1.0043
1.00425
1.00436
1.00452
1.00471
1.00479
1.00477
1.00459
1.0043
1.00398
1.0034
1.00292
1.00282
1.00359
1.00393
1.00401
1.00395
1.00407
1.00425
1.00445
1.00455
1.00456
1.0044
1.00413
1.00383
1.00327
1.00278
1.00267
1.0033
1.00364
1.00371
1.00365
1.00378
1.00397
1.00419
1.00431
1.00434
1.0042
1.00396
1.00367
1.00312
1.00263
1.00251
1.00301
1.00334
1.0034
1.00334
1.00348
1.00368
1.00392
1.00406
1.00411
1.004
1.00378
1.00351
1.00298
1.00248
1.00235
1.00271
1.00304
1.00309
1.00302
1.00317
1.00339
1.00364
1.00381
1.00388
1.00379
1.0036
1.00335
1.00282
1.00233
1.00218
1.0024
1.00273
1.00276
1.00269
1.00285
1.00308
1.00336
1.00355
1.00364
1.00358
1.00341
1.00318
1.00267
1.00216
1.00201
1.00209
1.00241
1.00243
1.00236
1.00252
1.00277
1.00306
1.00328
1.0034
1.00336
1.00321
1.00301
1.0025
1.00199
1.00182
1.00176
1.00209
1.0021
1.00201
1.00218
1.00245
1.00276
1.003
1.00315
1.00314
1.00301
1.00282
1.00233
1.00181
1.00162
1.00143
1.00175
1.00175
1.00166
1.00184
1.00212
1.00245
1.00272
1.0029
1.00291
1.00281
1.00264
1.00215
1.00163
1.00142
1.00109
1.00141
1.0014
1.0013
1.00148
1.00178
1.00214
1.00243
1.00264
1.00268
1.0026
1.00245
1.00197
1.00144
1.0012
1.00074
1.00106
1.00104
1.00093
1.00112
1.00143
1.00181
1.00213
1.00237
1.00244
1.00238
1.00225
1.00178
1.00124
1.00098
1.00038
1.0007
1.00066
1.00055
1.00074
1.00107
1.00148
1.00183
1.0021
1.00219
1.00216
1.00204
1.00159
1.00104
1.00076
1.00002
1.00033
1.00028
1.00016
1.00036
1.00071
1.00114
1.00152
1.00182
1.00194
1.00193
1.00183
1.00139
1.00082
1.00052
0.999641
0.999953
0.999894
0.999764
0.999967
1.00033
1.00079
1.0012
1.00153
1.00168
1.0017
1.00162
1.00118
1.00061
1.00028
0.999259
0.999569
0.999498
0.999358
0.999566
0.999948
1.00043
1.00087
1.00123
1.00141
1.00146
1.0014
1.00096
1.00038
1.00003
0.998865
0.999172
0.999088
0.998938
0.999151
0.999551
1.00006
1.00053
1.00093
1.00114
1.00121
1.00117
1.00074
1.00015
0.999772
0.998466
0.998769
0.998673
0.998511
0.998729
0.999147
0.99968
1.00019
1.00062
1.00086
1.00095
1.00093
1.00052
0.999911
0.99951
0.998054
0.998354
0.998243
0.998071
0.998293
0.998729
0.999291
0.999836
1.0003
1.00057
1.00069
1.00069
1.00028
0.999665
0.999242
0.997637
0.997932
0.997807
0.997623
0.997849
0.998304
0.998894
0.999475
0.999974
1.00028
1.00043
1.00044
1.00004
0.999414
0.998967
0.997207
0.997497
0.997357
0.99716
0.997391
0.997865
0.998485
0.999103
0.999639
0.99998
1.00015
1.00018
0.999793
0.999154
0.998687
0.996771
0.997056
0.9969
0.99669
0.996924
0.997418
0.998068
0.998723
0.999297
0.999672
0.99987
0.999924
0.99954
0.99889
0.9984
0.996321
0.996601
0.996428
0.996204
0.996442
0.996956
0.997638
0.998331
0.998945
0.999354
0.999579
0.999653
0.999278
0.998617
0.998108
0.995866
0.996139
0.995948
0.99571
0.995952
0.996486
0.9972
0.997933
0.998586
0.99903
0.999284
0.999378
0.999011
0.99834
0.99781
0.995397
0.995663
0.995454
0.9952
0.995445
0.996
0.996747
0.997521
0.998215
0.998696
0.998979
0.999094
0.998735
0.998054
0.997505
0.994922
0.99518
0.994951
0.994682
0.99493
0.995505
0.996286
0.997102
0.997838
0.998356
0.998668
0.998804
0.998454
0.997763
0.997194
0.994433
0.994683
0.994432
0.994146
0.994397
0.994994
0.99581
0.996669
0.997449
0.998005
0.998348
0.998505
0.998163
0.997464
0.996876
0.993938
0.994178
0.993905
0.993602
0.993856
0.994474
0.995326
0.996228
0.997053
0.997649
0.998021
0.9982
0.997868
0.997159
0.996553
0.993428
0.993658
0.993362
0.993041
0.993296
0.993937
0.994826
0.995773
0.996644
0.99728
0.997684
0.997886
0.997562
0.996845
0.996222
0.992912
0.993131
0.99281
0.992469
0.992727
0.993391
0.994317
0.99531
0.996228
0.996905
0.997342
0.997566
0.997252
0.996527
0.995886
0.992381
0.992588
0.992241
0.99188
0.992139
0.992826
0.993791
0.994832
0.995798
0.996518
0.996988
0.997236
0.996931
0.996199
0.995541
0.991844
0.992037
0.991662
0.99128
0.991541
0.992252
0.993257
0.994346
0.995362
0.996125
0.996629
0.9969
0.996606
0.995866
0.99519
0.991291
0.991471
0.991066
0.990662
0.990924
0.991659
0.992705
0.993844
0.994911
0.995719
0.996258
0.996554
0.996269
0.995522
0.994831
0.990731
0.990896
0.99046
0.990033
0.990296
0.991055
0.992143
0.993334
0.994453
0.995307
0.995881
0.996202
0.995928
0.995174
0.994466
0.990157
0.990305
0.989836
0.989385
0.989648
0.990432
0.991563
0.992807
0.99398
0.994881
0.995492
0.995839
0.995575
0.994816
0.994091
0.989575
0.989705
0.989202
0.988725
0.988988
0.989798
0.990973
0.992271
0.993499
0.994449
0.995097
0.99547
0.995218
0.994452
0.993711
0.988977
0.989088
0.988549
0.988045
0.988308
0.989144
0.990364
0.991718
0.993003
0.994003
0.99469
0.99509
0.994849
0.994077
0.99332
0.988372
0.988463
0.987886
0.987354
0.987616
0.988479
0.989745
0.991156
0.992499
0.99355
0.994276
0.994704
0.994475
0.993697
0.992925
0.987751
0.98782
0.987203
0.986642
0.986903
0.987792
0.989107
0.990576
0.991979
0.993083
0.99385
0.994306
0.994088
0.993305
0.992517
0.987123
0.987169
0.98651
0.985918
0.986177
0.987094
0.988457
0.989987
0.991451
0.992609
0.993417
0.993902
0.993697
0.992908
0.992104
0.986478
0.986499
0.985796
0.985171
0.985429
0.986374
0.987788
0.989379
0.990906
0.99212
0.992971
0.993485
0.993292
0.992499
0.991679
0.985826
0.98582
0.985071
0.984413
0.984668
0.985642
0.987107
0.988761
0.990353
0.991623
0.992518
0.993063
0.992883
0.992085
0.991249
0.985156
0.985123
0.984325
0.983632
0.983884
0.984888
0.986405
0.988124
0.989783
0.991112
0.992052
0.992627
0.99246
0.991657
0.990805
0.98448
0.984417
0.983568
0.982838
0.983087
0.98412
0.985691
0.987477
0.989204
0.990593
0.991579
0.992186
0.992032
0.991224
0.990357
0.983786
0.983691
0.982789
0.982021
0.982266
0.98333
0.984956
0.98681
0.988607
0.990058
0.991091
0.991731
0.99159
0.990777
0.989894
0.983085
0.982956
0.981999
0.981191
0.981432
0.982526
0.984209
0.986133
0.988001
0.989515
0.990597
0.99127
0.991143
0.990326
0.989426
0.982366
0.982202
0.981186
0.980336
0.980572
0.981698
0.983439
0.985435
0.987377
0.988956
0.990088
0.990794
0.990681
0.989859
0.988944
0.98164
0.981438
0.980362
0.979469
0.979699
0.980857
0.982657
0.984727
0.986744
0.988389
0.989572
0.990313
0.990214
0.989387
0.988456
0.980896
0.980654
0.979514
0.978576
0.9788
0.979991
0.981852
0.983997
0.986091
0.987805
0.98904
0.989816
0.989732
0.988901
0.987952
0.980145
0.97986
0.978655
0.977669
0.977887
0.979111
0.981034
0.983256
0.985429
0.987213
0.988502
0.989313
0.989245
0.988408
0.987443
0.979375
0.979046
0.977772
0.976737
0.976947
0.978205
0.980192
0.982493
0.984747
0.986603
0.987947
0.988795
0.988741
0.9879
0.986918
0.978598
0.978223
0.976877
0.975791
0.975993
0.977285
0.979337
0.981719
0.984056
0.985985
0.987386
0.988271
0.988232
0.987386
0.986388
0.977803
0.977378
0.975958
0.974819
0.975011
0.976339
0.978458
0.980922
0.983344
0.985349
0.986807
0.98773
0.987707
0.986856
0.98584
0.977001
0.976524
0.975027
0.973832
0.974015
0.975378
0.977565
0.980114
0.982623
0.984704
0.986221
0.987183
0.987176
0.98632
0.985287
0.97618
0.975649
0.97407
0.972818
0.972991
0.974391
0.976647
0.979283
0.98188
0.984041
0.985618
0.986619
0.986628
0.985767
0.984715
0.975351
0.974764
0.973102
0.97179
0.971952
0.973388
0.975715
0.978439
0.981127
0.983369
0.985007
0.986049
0.986074
0.985208
0.984139
0.974505
0.973857
0.972108
0.970734
0.970884
0.972358
0.974757
0.977572
0.980353
0.982677
0.984379
0.985462
0.985503
0.984631
0.983543
0.973651
0.972941
0.971101
0.969664
0.9698
0.971312
0.973785
0.976693
0.979568
0.981976
0.983743
0.984867
0.984925
0.984048
0.982942
0.972778
0.972003
0.970069
0.968565
0.968688
0.970238
0.972787
0.975788
0.978761
0.981255
0.983088
0.984255
0.98433
0.983447
0.982322
0.971899
0.971055
0.969025
0.967452
0.96756
0.969149
0.971774
0.974872
0.977943
0.980526
0.982425
0.983636
0.983728
0.98284
0.981696
0.971001
0.970086
0.967954
0.96631
0.966402
0.96803
0.970734
0.97393
0.977102
0.979775
0.981743
0.982999
0.983107
0.982213
0.981049
0.970096
0.969107
0.966871
0.965152
0.965228
0.966897
0.96968
0.972976
0.97625
0.979015
0.981054
0.982354
0.98248
0.981581
0.980397
0.969172
0.968106
0.965761
0.963966
0.964024
0.965733
0.968597
0.971995
0.975374
0.978233
0.980344
0.98169
0.981834
0.980928
0.979724
0.968242
0.967095
0.964639
0.962765
0.962804
0.964554
0.9675
0.971002
0.974488
0.977442
0.979626
0.98102
0.981182
0.980269
0.979046
0.967293
0.966062
0.96349
0.961534
0.961553
0.963344
0.966374
0.969982
0.973577
0.976629
0.978888
0.980329
0.980509
0.979591
0.978345
0.966338
0.96502
0.962329
0.960288
0.960286
0.962119
0.965234
0.968949
0.972654
0.975806
0.978141
0.979631
0.97983
0.978905
0.977639
0.965365
0.963956
0.961141
0.959013
0.958988
0.960862
0.964064
0.967888
0.971706
0.97496
0.977373
0.978913
0.979131
0.978199
0.97691
0.964385
0.962883
0.959941
0.957722
0.957674
0.95959
0.96288
0.966815
0.970747
0.974104
0.976596
0.978187
0.978425
0.977486
0.976176
0.963388
0.961788
0.958713
0.956401
0.956329
0.958287
0.961665
0.965713
0.969762
0.973225
0.975798
0.977441
0.977698
0.976751
0.975418
0.962385
0.960685
0.957474
0.955066
0.954967
0.956968
0.960436
0.964598
0.968766
0.972335
0.974991
0.976686
0.976964
0.97601
0.974655
0.961363
0.959559
0.956208
0.953701
0.953574
0.955617
0.959176
0.963454
0.967742
0.971421
0.974161
0.975911
0.976209
0.975248
0.973868
0.960337
0.958425
0.95493
0.952321
0.952165
0.954251
0.957901
0.962297
0.966707
0.970497
0.973323
0.975127
0.975447
0.974478
0.973076
0.959294
0.95727
0.953626
0.95091
0.950724
0.952852
0.956596
0.96111
0.965645
0.969547
0.972461
0.974322
0.974663
0.973686
0.972259
0.958245
0.956107
0.95231
0.949486
0.949267
0.951438
0.955276
0.95991
0.96457
0.968587
0.97159
0.973509
0.973872
0.972887
0.971436
0.95718
0.954922
0.950967
0.948032
0.947779
0.949992
0.953924
0.95868
0.963468
0.967602
0.970696
0.972673
0.973059
0.972066
0.970589
0.95611
0.953731
0.949614
0.946564
0.946276
0.94853
0.952557
0.957437
0.962353
0.966605
0.969792
0.97183
0.972238
0.971237
0.969735
0.955024
0.952518
0.948235
0.945066
0.944741
0.947037
0.95116
0.956163
0.96121
0.965582
0.968864
0.970963
0.971396
0.970386
0.968857
0.953934
0.951299
0.946846
0.943556
0.943191
0.945528
0.949747
0.954875
0.960055
0.964549
0.967927
0.970089
0.970546
0.969527
0.967972
0.952828
0.95006
0.945431
0.942016
0.94161
0.943988
0.948303
0.953557
0.95887
0.963488
0.966965
0.969191
0.969673
0.968645
0.967062
0.95172
0.948815
0.944007
0.940464
0.940015
0.942433
0.946844
0.952225
0.957673
0.962416
0.965993
0.968285
0.968793
0.967756
0.966146
0.950595
0.94755
0.942557
0.938883
0.93839
0.940846
0.945354
0.950862
0.956447
0.961317
0.964996
0.967355
0.967889
0.966844
0.965205
0.949469
0.94628
0.9411
0.937291
0.936751
0.939245
0.94385
0.949486
0.955208
0.960207
0.963989
0.966417
0.966979
0.965924
0.964257
0.948328
0.944991
0.939618
0.935671
0.935083
0.937614
0.942314
0.948078
0.953939
0.959069
0.962957
0.965455
0.966045
0.96498
0.963283
0.947186
0.943699
0.93813
0.934041
0.933402
0.935969
0.940765
0.946657
0.952657
0.957919
0.961915
0.964485
0.965104
0.96403
0.962303
0.946029
0.942388
0.936618
0.932385
0.931692
0.934294
0.939184
0.945205
0.951345
0.956741
0.960847
0.963491
0.96414
0.963055
0.961297
0.944872
0.941075
0.9351
0.93072
0.929972
0.932606
0.937591
0.943739
0.95002
0.955551
0.959768
0.962488
0.963168
0.962073
0.960285
0.943702
0.939744
0.93356
0.929029
0.928224
0.930889
0.935967
0.942242
0.948666
0.954333
0.958664
0.961461
0.962172
0.961067
0.959246
0.942533
0.938412
0.932016
0.927331
0.926466
0.929161
0.93433
0.940732
0.947297
0.953103
0.95755
0.960426
0.96117
0.960054
0.958201
0.94135
0.937064
0.930451
0.925609
0.924682
0.927405
0.932663
0.939191
0.945899
0.951844
0.956408
0.959366
0.960144
0.959016
0.957129
0.94017
0.935716
0.928884
0.923882
0.92289
0.925638
0.930985
0.937638
0.944488
0.950573
0.955257
0.958298
0.959111
0.957972
0.956053
0.938978
0.934352
0.927297
0.922133
0.921074
0.923845
0.929277
0.936054
0.943046
0.949274
0.954079
0.957205
0.958054
0.956904
0.954948
0.937788
0.93299
0.92571
0.92038
0.919251
0.922043
0.927559
0.934457
0.941592
0.947962
0.952892
0.956104
0.95699
0.955829
0.953839
0.936588
0.931615
0.924105
0.918608
0.917406
0.920216
0.925813
0.93283
0.940107
0.946621
0.951677
0.954978
0.955903
0.954729
0.952701
0.935391
0.930242
0.922502
0.916834
0.915558
0.918381
0.924056
0.931191
0.938609
0.945268
0.950452
0.953845
0.954809
0.953623
0.95156
0.934185
0.928857
0.920883
0.915042
0.913689
0.916524
0.922273
0.929523
0.937081
0.943886
0.9492
0.952686
0.953692
0.952492
0.95039
0.932983
0.927477
0.919268
0.913252
0.911818
0.914661
0.920482
0.927843
0.93554
0.942492
0.947938
0.95152
0.952569
0.951356
0.949215
0.931772
0.926086
0.917639
0.911447
0.90993
0.912777
0.918664
0.926134
0.933969
0.941068
0.946649
0.95033
0.951422
0.950195
0.948013
0.930567
0.924701
0.916016
0.909646
0.908043
0.910891
0.91684
0.924415
0.932385
0.939633
0.94535
0.949132
0.950269
0.949029
0.946806
0.929354
0.923307
0.914383
0.907832
0.906141
0.908984
0.914991
0.922667
0.930772
0.938168
0.944024
0.947909
0.949094
0.947838
0.945571
0.928148
0.921921
0.912757
0.906026
0.904243
0.907078
0.913137
0.920909
0.929146
0.936691
0.942689
0.94668
0.947913
0.946642
0.944332
0.926935
0.920528
0.911124
0.904211
0.902333
0.905154
0.91126
0.919124
0.92749
0.935186
0.941326
0.945426
0.946709
0.945423
0.943064
0.925729
0.919144
0.909502
0.902405
0.90043
0.903233
0.909379
0.917329
0.925823
0.933668
0.939954
0.944166
0.945501
0.944198
0.941792
0.924518
0.917755
0.907874
0.900595
0.898519
0.901297
0.907477
0.915508
0.924126
0.932121
0.938556
0.942882
0.94427
0.94295
0.940491
0.923315
0.916378
0.906261
0.898798
0.896618
0.899366
0.905573
0.913679
0.922418
0.930563
0.937148
0.941591
0.943036
0.941698
0.939187
0.922107
0.914997
0.904645
0.896999
0.894713
0.897424
0.903649
0.911824
0.92068
0.928976
0.935714
0.940278
0.94178
0.940423
0.937853
0.920908
0.91363
0.903046
0.895217
0.892821
0.89549
0.901726
0.909961
0.918931
0.927377
0.93427
0.938959
0.94052
0.939145
0.936516
0.919706
0.912261
0.901448
0.893438
0.890928
0.893547
0.899785
0.908074
0.917153
0.925749
0.932801
0.937617
0.93924
0.937843
0.935151
0.918513
0.910908
0.899871
0.89168
0.889054
0.891615
0.897845
0.90618
0.915364
0.92411
0.931323
0.93627
0.937957
0.936538
0.933781
0.917317
0.909556
0.898298
0.889928
0.887182
0.889677
0.895891
0.904262
0.913547
0.922443
0.92982
0.934902
0.936655
0.93521
0.932382
0.916132
0.908221
0.896749
0.888202
0.885333
0.887754
0.89394
0.902339
0.911719
0.920764
0.928308
0.933529
0.93535
0.933879
0.930977
0.914944
0.906889
0.895208
0.886487
0.883491
0.885829
0.891975
0.900393
0.909862
0.919058
0.926772
0.932135
0.934027
0.932527
0.92954
0.913768
0.905577
0.893694
0.884802
0.881675
0.883921
0.890017
0.898442
0.907996
0.91734
0.925227
0.930738
0.932703
0.931171
0.928095
0.91259
0.90427
0.892194
0.883133
0.879871
0.882015
0.888047
0.89647
0.906101
0.915595
0.923659
0.929321
0.931361
0.929793
0.926616
0.911424
0.902985
0.890724
0.881498
0.878098
0.880129
0.886084
0.894493
0.904196
0.913839
0.922084
0.927901
0.930018
0.928412
0.925128
0.910258
0.901708
0.889271
0.879885
0.876342
0.878249
0.884113
0.892495
0.902264
0.912056
0.920486
0.926464
0.928659
0.927008
0.923606
0.909103
0.900455
0.887852
0.87831
0.874621
0.876392
0.882151
0.890494
0.900322
0.910262
0.918881
0.925025
0.927299
0.925602
0.922077
0.907949
0.899212
0.886456
0.876763
0.872922
0.874545
0.880182
0.888473
0.898353
0.908442
0.917255
0.92357
0.925924
0.924173
0.920515
0.906806
0.897995
0.885098
0.875259
0.871263
0.872726
0.878224
0.886449
0.896373
0.906611
0.915623
0.922114
0.924548
0.922741
0.918946
0.905664
0.896792
0.883767
0.873788
0.869632
0.870919
0.876261
0.884406
0.894368
0.904756
0.913972
0.920643
0.923158
0.921287
0.917348
0.904535
0.895617
0.882479
0.872367
0.868044
0.869143
0.874311
0.882361
0.892352
0.902889
0.912316
0.919172
0.921767
0.91983
0.915744
0.903408
0.894459
0.881223
0.870984
0.86649
0.867384
0.872359
0.880297
0.89031
0.901
0.910644
0.917688
0.920363
0.91835
0.914111
0.902292
0.89333
0.880015
0.869656
0.864986
0.865658
0.870421
0.878231
0.888258
0.8991
0.908967
0.916205
0.918958
0.916867
0.912471
0.90118
0.892222
0.878844
0.868373
0.863519
0.863954
0.868482
0.876148
0.886181
0.897179
0.907276
0.914711
0.91754
0.91536
0.910799
0.900079
0.891147
0.877725
0.86715
0.862107
0.862286
0.866558
0.874063
0.884094
0.895249
0.905581
0.913219
0.916122
0.913849
0.909119
0.898983
0.890095
0.87665
0.865979
0.860739
0.860643
0.864636
0.871961
0.881983
0.893299
0.903875
0.911718
0.914691
0.912315
0.907404
0.897898
0.889079
0.875633
0.864874
0.85943
0.85904
0.862731
0.869857
0.879862
0.891341
0.902168
0.910219
0.913259
0.910776
0.90568
0.896818
0.88809
0.874665
0.863828
0.858171
0.857465
0.860828
0.867736
0.877719
0.889367
0.900451
0.908714
0.911816
0.909212
0.903919
0.89575
0.88714
0.873759
0.862853
0.856976
0.855933
0.858943
0.865614
0.875566
0.887385
0.898735
0.907212
0.910372
0.907644
0.902147
0.894689
0.886221
0.872911
0.861944
0.855836
0.854432
0.857062
0.863477
0.873393
0.88539
0.897014
0.905706
0.908917
0.906051
0.900334
0.893639
0.885344
0.87213
0.861112
0.854764
0.852977
0.855198
0.861337
0.871211
0.88339
0.895296
0.904206
0.907464
0.904452
0.898504
0.892598
0.884503
0.871412
0.860353
0.853754
0.851556
0.853341
0.859184
0.869012
0.881381
0.893576
0.902704
0.905999
0.902828
0.896628
0.891569
0.883707
0.870769
0.859677
0.852815
0.850181
0.851501
0.857028
0.866804
0.879368
0.891861
0.90121
0.904537
0.901199
0.894734
0.890549
0.882953
0.870196
0.859081
0.851943
0.848845
0.849668
0.85486
0.864582
0.877351
0.89015
0.899718
0.903065
0.899546
0.892793
0.889543
0.882248
0.869702
0.858574
0.851147
0.847556
0.847853
0.852689
0.862353
0.875334
0.888447
0.898235
0.901598
0.897887
0.890833
0.888548
0.88159
0.869287
0.858154
0.850422
0.846307
0.846046
0.850508
0.860114
0.873318
0.886754
0.896759
0.900123
0.896203
0.888827
0.887567
0.880984
0.868957
0.857828
0.849776
0.845107
0.844255
0.848324
0.85787
0.871306
0.885073
0.895296
0.898654
0.894512
0.886802
0.8866
0.880432
0.868713
0.857595
0.849205
0.843948
0.842473
0.846132
0.855621
0.869301
0.883406
0.893843
0.89718
0.892795
0.88473
0.885649
0.879938
0.86856
0.857461
0.848716
0.842838
0.840707
0.843939
0.853371
0.867305
0.881758
0.892408
0.895713
0.891073
0.882636
0.884714
0.879503
0.868501
0.857427
0.848305
0.84177
0.838951
0.84174
0.85112
0.865322
0.88013
0.890988
0.894243
0.889323
0.880492
0.883797
0.87913
0.868539
0.857496
0.847977
0.840749
0.837209
0.83954
0.848873
0.863355
0.878527
0.889589
0.892783
0.887566
0.878325
0.882901
0.878825
0.868679
0.85767
0.847731
0.83977
0.835477
0.837338
0.846632
0.86141
0.876952
0.88821
0.89132
0.885781
0.876103
0.882024
0.878587
0.868921
0.85795
0.847566
0.838836
0.833758
0.835138
0.844399
0.859486
0.875408
0.886858
0.88987
0.883989
0.873855
0.881172
0.878423
0.869273
0.858341
0.847484
0.837944
0.83205
0.832938
0.842179
0.857593
0.8739
0.88553
0.888418
0.882166
0.871547
0.880343
0.878333
0.869732
0.858839
0.847481
0.837093
0.830353
0.830742
0.839973
0.855731
0.872431
0.884234
0.88698
0.880334
0.869208
0.879544
0.878326
0.870307
0.859452
0.847561
0.836281
0.828666
0.828552
0.837789
0.853908
0.871006
0.882967
0.885541
0.878468
0.866805
0.878771
0.878399
0.870995
0.860173
0.847717
0.835507
0.826989
0.826368
0.835626
0.852125
0.869628
0.881737
0.884117
0.87659
0.864365
0.878035
0.878563
0.871806
0.861009
0.847951
0.834768
0.825323
0.824195
0.833493
0.850392
0.868303
0.880541
0.882692
0.874675
0.861853
0.87733
0.878813
0.872733
0.861952
0.848257
0.83406
0.823663
0.82203
0.831389
0.84871
0.867035
0.879388
0.881281
0.872745
0.859298
0.87667
0.879164
0.87379
0.86301
0.848637
0.833385
0.822014
0.819881
0.829326
0.847088
0.865827
0.878271
0.879869
0.870772
0.856663
0.876046
0.879608
0.874965
0.86417
0.849079
0.832732
0.820368
0.817743
0.8273
0.845528
0.864686
0.877202
0.878471
0.86878
0.853977
0.875475
0.880163
0.876274
0.865442
0.849589
0.832104
0.818732
0.815627
0.825325
0.844041
0.863615
0.876174
0.877069
0.866739
0.851201
0.874948
0.880818
0.877702
0.86681
0.85015
0.83149
0.817095
0.813526
0.823397
0.842627
0.86262
0.875198
0.875682
0.864674
0.848364
0.874485
0.881595
0.879267
0.868285
0.850769
0.830894
0.815465
0.811451
0.821531
0.841299
0.861703
0.874266
0.874287
0.862555
0.845429
0.874074
0.882481
0.88095
0.869846
0.851426
0.8303
0.81383
0.809396
0.819723
0.840058
0.860873
0.873391
0.872905
0.860407
0.84243
0.87374
0.883498
0.88277
0.871505
0.852127
0.829713
0.812198
0.807372
0.817989
0.838915
0.86013
0.872561
0.871513
0.858198
0.83933
0.87347
0.88463
0.884707
0.873238
0.852849
0.829113
0.810555
0.805372
0.816325
0.837874
0.859484
0.871792
0.87013
0.855955
0.83616
0.873291
0.885904
0.88678
0.875056
0.853599
0.828509
0.80891
0.80341
0.814746
0.836945
0.858934
0.871071
0.868732
0.853643
0.83288
0.873189
0.887302
0.888966
0.876932
0.854349
0.827875
0.807246
0.801474
0.81325
0.836133
0.85849
0.870414
0.867338
0.851288
0.829518
0.873195
0.888851
0.891284
0.878876
0.855107
0.827219
0.805573
0.799583
0.811853
0.83545
0.858152
0.869805
0.865924
0.848854
0.826032
0.873293
0.890533
0.893706
0.880857
0.855839
0.826515
0.803872
0.797723
0.810553
0.8349
0.85793
0.869263
0.864511
0.846368
0.822455
0.873518
0.892377
0.896255
0.882886
0.856555
0.825769
0.802155
0.795913
0.809368
0.834494
0.857823
0.86877
0.86307
0.843795
0.818745
0.873853
0.894363
0.898898
0.884928
0.857217
0.824951
0.800399
0.79414
0.808295
0.83424
0.857844
0.868345
0.861624
0.841161
0.814933
0.874337
0.896522
0.901657
0.886992
0.857832
0.824069
0.798618
0.792423
0.807354
0.834147
0.857988
0.867968
0.860142
0.838429
0.810978
0.874954
0.898832
0.904495
0.889038
0.85836
0.823087
0.796785
0.790749
0.806545
0.834224
0.858271
0.86766
0.858649
0.835627
0.80691
0.875743
0.901325
0.907434
0.891077
0.858806
0.822014
0.794916
0.789139
0.805886
0.834482
0.858686
0.867398
0.857112
0.832718
0.80269
0.876691
0.903979
0.910434
0.893063
0.859124
0.82081
0.792983
0.78758
0.805378
0.834931
0.85925
0.867205
0.855554
0.829729
0.798347
0.877841
0.906826
0.913516
0.895006
0.859322
0.819485
0.791002
0.786094
0.805043
0.835579
0.859955
0.867056
0.853944
0.826622
0.793841
0.879179
0.90984
0.916636
0.896854
0.859347
0.817995
0.788942
0.784669
0.804882
0.83644
0.860819
0.866974
0.852306
0.823424
0.789203
0.880749
0.913057
0.919812
0.898616
0.859205
0.816349
0.786822
0.783329
0.804918
0.837522
0.861832
0.866932
0.850605
0.820097
0.784392
0.88254
0.91645
0.922998
0.900238
0.858841
0.8145
0.78461
0.782061
0.805154
0.838838
0.863012
0.866952
0.848865
0.816669
0.779439
0.884599
0.920052
0.92621
0.901725
0.858261
0.812457
0.782325
0.780891
0.805614
0.840395
0.864348
0.867006
0.84705
0.8131
0.774305
0.886915
0.923836
0.929397
0.90302
0.857402
0.81017
0.779936
0.77981
0.806304
0.842208
0.865857
0.867116
0.845186
0.809417
0.769018
0.889538
0.927836
0.932574
0.904128
0.856272
0.807649
0.777463
0.778845
0.807246
0.844282
0.867525
0.867249
0.843234
0.80558
0.763541
0.892458
0.932021
0.935685
0.904986
0.854806
0.804841
0.774874
0.777987
0.80845
0.846633
0.869369
0.867429
0.841218
0.801617
0.757903
0.89573
0.936427
0.938746
0.905601
0.853008
0.801759
0.772193
0.777267
0.809938
0.849263
0.871372
0.86762
0.839099
0.797484
0.752063
0.899344
0.941018
0.941695
0.905907
0.850813
0.798345
0.769388
0.776678
0.811721
0.852188
0.87355
0.867842
0.8369
0.793211
0.746052
0.903357
0.945831
0.944548
0.905911
0.848225
0.794614
0.766485
0.776254
0.813822
0.855408
0.875882
0.868057
0.834579
0.788753
0.73983
0.907762
0.950828
0.947242
0.905546
0.845177
0.79051
0.763454
0.77599
0.816253
0.858936
0.878379
0.868284
0.832158
0.784137
0.733426
0.91262
0.956044
0.94979
0.904821
0.841675
0.786047
0.760324
0.775924
0.819035
0.862769
0.881017
0.86848
0.829592
0.779318
0.7268
0.917925
0.96144
0.952131
0.903671
0.83765
0.781171
0.757069
0.776055
0.822182
0.866919
0.883805
0.868662
0.826902
0.774321
0.719978
0.92374
0.967049
0.954277
0.902106
0.833111
0.775898
0.753722
0.776421
0.825715
0.871377
0.886713
0.868783
0.824043
0.769102
0.712922
0.930064
0.972831
0.956167
0.900066
0.827992
0.770176
0.75026
0.777028
0.829646
0.876152
0.889744
0.868855
0.821029
0.763683
0.705655
0.936964
0.978818
0.957818
0.897565
0.822303
0.764027
0.746722
0.777917
0.833994
0.88123
0.892864
0.86883
0.817816
0.75802
0.698143
0.94444
0.984967
0.95917
0.89455
0.815981
0.757401
0.74309
0.779095
0.838769
0.886613
0.89607
0.868715
0.814414
0.752133
0.690416
0.952563
0.99131
0.960243
0.89104
0.809042
0.750324
0.739409
0.780608
0.843988
0.892281
0.89932
0.868456
0.810774
0.745983
0.682442
0.961338
0.997804
0.960985
0.886993
0.801429
0.742755
0.73567
0.782468
0.849657
0.898229
0.902608
0.868056
0.806907
0.739587
0.674241
0.970841
1.00448
0.961421
0.882437
0.793162
0.734727
0.731923
0.784721
0.855788
0.904429
0.905882
0.867458
0.802762
0.732902
0.665779
0.981077
1.01129
0.961506
0.87734
0.784197
0.726212
0.728171
0.787382
0.862381
0.910867
0.909128
0.866659
0.798344
0.725941
0.657075
0.992126
1.01827
0.961273
0.871744
0.774563
0.717255
0.724474
0.7905
0.869439
0.917504
0.91229
0.865598
0.793604
0.718662
0.648097
1.004
1.02536
0.960688
0.865634
0.764232
0.707845
0.720848
0.794092
0.876953
0.924314
0.915341
0.864267
0.788542
0.711079
0.638866
1.01678
1.0326
0.959792
0.859065
0.753248
0.698049
0.717368
0.798203
0.884914
0.931244
0.918219
0.8626
0.783105
0.703152
0.629349
1.03047
1.03994
0.958565
0.852041
0.741611
0.68789
0.714066
0.802852
0.8933
0.938256
0.920886
0.860582
0.777292
0.69489
0.619567
1.04516
1.04739
0.957053
0.844634
0.729393
0.677472
0.711038
0.80808
0.902085
0.94528
0.92327
0.858144
0.77105
0.686254
0.609496
1.06085
1.05491
0.955252
0.836871
0.71664
0.666876
0.708346
0.813899
0.911225
0.95226
0.925324
0.855265
0.764371
0.67725
0.599151
1.07763
1.06251
0.95321
0.828837
0.703482
0.656279
0.706115
0.820344
0.920671
0.959105
0.926961
0.851871
0.757202
0.667837
0.588507
1.09549
1.07013
0.950928
0.820576
0.690053
0.64587
0.704448
0.827415
0.930351
0.965737
0.928121
0.847931
0.74953
0.658019
0.57758
1.11449
1.07777
0.948449
0.812176
0.676593
0.635968