/*--------------------------------*- C++ -*----------------------------------*\
  =========                 |
  \\      /  F ield         | OpenFOAM: The Open Source CFD Toolbox
   \\    /   O peration     | Website:  https://openfoam.org
    \\  /    A nd           | Version:  6.0
     \\/     M anipulation  |
\*---------------------------------------------------------------------------*/
FoamFile
{
    version     2.0;
    format      ascii;
    class       surfaceScalarField;
    location    "10";
    object      phi;
}
// * * * * * * * * * * * * * * * * * * * * * * * * * * * * * * * * * * * * * //

dimensions      [0 3 -1 0 0 0 0];

internalField   nonuniform List<scalar> 
68636
(
3.70796e-05
0.00309877
4.71256e-09
7.4771e-05
0.00306373
0.000112129
0.00299516
0.000148427
0.00289387
0.000183062
0.00276158
0.000215696
0.00259933
0.000245984
0.00240808
0.000273621
0.00218932
0.000298264
0.0019458
0.000319625
0.00168059
0.000337442
0.00139707
0.000351529
0.00109811
0.000361793
0.000787363
0.000367761
0.000466845
0.000124291
0.000363802
3.66554e-05
0.00306206
3.87705e-08
7.39524e-05
0.00302641
0.00011088
0.00295815
0.000146709
0.00285795
0.000180877
0.00272726
0.000213092
0.00256697
0.000243022
0.00237797
0.000270355
0.00216182
0.00029473
0.00192123
0.000315859
0.00165928
0.000333478
0.00137924
0.000347392
0.00108397
0.000357581
0.000776893
0.000363108
0.000460944
0.000125994
0.000360734
3.62798e-05
0.00302572
5.24754e-08
7.3168e-05
0.00298951
0.000109628
0.00292165
0.000144969
0.00282258
0.000178688
0.00269349
0.000210519
0.00253512
0.000240118
0.00234832
0.000267162
0.00213476
0.000291273
0.00189708
0.000312168
0.00163838
0.000329586
0.00136181
0.000343316
0.00107025
0.000353344
0.000766886
0.000359097
0.000455239
0.000126945
0.000358378
3.59048e-05
0.00298975
5.49281e-08
7.23639e-05
0.00295302
0.000108347
0.00288561
0.000143215
0.00278765
0.000176511
0.0026601
0.000207983
0.00250356
0.000237265
0.00231892
0.000264022
0.00210789
0.00028787
0.0018731
0.000308529
0.00161759
0.000325747
0.00134444
0.0003393
0.00105653
0.000349141
0.000756827
0.000354879
0.000449203
0.000126524
0.000354782
3.5514e-05
0.00295418
4.97786e-08
7.15303e-05
0.002917
0.000107042
0.00285008
0.000141459
0.00275324
0.000174358
0.00262717
0.000205484
0.00247244
0.000234456
0.00228994
0.000260927
0.00208143
0.000284511
0.00184952
0.000304934
0.00159719
0.00032195
0.00132744
0.000335337
0.00104318
0.000345
0.000747209
0.000350608
0.000443673
0.00012668
0.000350725
3.5109e-05
0.00291901
4.00743e-08
7.06777e-05
0.00288141
0.000105731
0.00281498
0.000139717
0.0027192
0.000172239
0.00259458
0.000203028
0.00244159
0.000231692
0.00226119
0.000257874
0.00205516
0.000281195
0.00182609
0.00030138
0.0015769
0.000318193
0.0013105
0.000331419
0.0010298
0.000340926
0.000737517
0.000346424
0.000437922
0.000125961
0.000346707
3.46951e-05
0.00288429
2.96029e-08
6.98174e-05
0.00284629
0.000104427
0.00278036
0.000138002
0.00268563
0.000170159
0.00256241
0.000200617
0.00241114
0.000228973
0.00223283
0.000254866
0.00202929
0.00027792
0.00180305
0.000297868
0.00155698
0.000314478
0.00129392
0.000327544
0.00101678
0.000336911
0.000728208
0.000342336
0.000432593
0.000125781
0.000342806
3.42767e-05
0.00284998
1.49538e-08
6.89584e-05
0.00281159
0.00010314
0.00274614
0.00013632
0.00265241
0.000168124
0.00253055
0.000198253
0.00238096
0.000226301
0.00220472
0.000251901
0.00200361
0.000274688
0.00178017
0.000294397
0.00153717
0.000310803
0.00127741
0.000323709
0.00100374
0.000332946
0.000718805
0.000338317
0.000426996
0.000124726
0.000338983
3.38577e-05
0.00281612
-1.25287e-10
6.81076e-05
0.00277734
0.000101876
0.00271236
0.000134674
0.00261962
0.000166132
0.00249908
0.000195935
0.00235117
0.000223671
0.00217698
0.000248978
0.00197833
0.000271496
0.00175767
0.000290968
0.00151774
0.00030717
0.00126124
0.000319915
0.000991052
0.000329025
0.000709762
0.000334347
0.000421783
0.000124184
0.000335189
3.34418e-05
0.00278267
-1.31009e-08
6.72701e-05
0.00274349
0.000100638
0.00267896
0.000133066
0.00258715
0.000164182
0.00246792
0.000193658
0.00232164
0.000221083
0.0021495
0.000246094
0.00195325
0.000268344
0.00173534
0.000287577
0.00149842
0.000303577
0.00124514
0.00031616
0.00097835
0.000325148
0.000700624
0.000330419
0.000416308
0.00012284
0.000331407
3.30314e-05
0.00274966
-2.01994e-08
6.64493e-05
0.00271007
9.9429e-05
0.00264598
0.000131495
0.0025551
0.000162271
0.00243714
0.000191421
0.00229251
0.000218532
0.0021224
0.000243247
0.00192856
0.000265227
0.00171338
0.000284224
0.00147946
0.000300023
0.00122938
0.000312446
0.000965984
0.000321314
0.00069183
0.000326529
0.000411212
0.000122046
0.00032763
3.26282e-05
0.00271704
-2.12522e-08
6.56467e-05
0.00267703
9.82478e-05
0.00261335
0.000129957
0.00252335
0.000160396
0.00240666
0.000189217
0.00226365
0.000216013
0.00209555
0.000240432
0.00190408
0.000262145
0.0016916
0.000280907
0.00146062
0.000296507
0.00121369
0.000308771
0.000953609
0.000317522
0.000682938
0.000322678
0.000405866
0.00012053
0.000323862
3.22332e-05
0.00268482
-1.70883e-08
6.48624e-05
0.0026444
9.70929e-05
0.00258112
0.00012845
0.002492
0.000158552
0.00237656
0.000187044
0.00223518
0.000213525
0.00206908
0.000237649
0.00187998
0.000259095
0.00167018
0.000277625
0.00144213
0.000293028
0.00119833
0.000305135
0.000941562
0.000313772
0.000674382
0.000318867
0.000400898
0.000119599
0.000320108
3.18466e-05
0.00265297
-8.08663e-09
6.40958e-05
0.00261213
9.59623e-05
0.00254923
0.00012697
0.00246096
0.000156735
0.00234675
0.000184898
0.00220697
0.000211064
0.00204286
0.000234893
0.00185609
0.000256076
0.00164893
0.000274375
0.00142375
0.000289585
0.00118304
0.000301537
0.000929505
0.000310063
0.000665724
0.000315096
0.00039569
0.000118007
0.000316375
3.14681e-05
0.0026215
4.07781e-09
6.33454e-05
0.00258026
9.4853e-05
0.00251772
0.000125514
0.00243031
0.000154942
0.00231733
0.000182775
0.00217916
0.000208627
0.00201703
0.000232165
0.00183258
0.000253086
0.00162803
0.000271157
0.00140572
0.000286176
0.00116807
0.000297978
0.000917767
0.000306395
0.000657391
0.000311365
0.000390854
0.000117015
0.000312668
3.10974e-05
0.00259036
1.78843e-08
6.26096e-05
0.00254872
9.37626e-05
0.00248654
0.000124078
0.00239997
0.00015317
0.0022882
0.000180674
0.00215162
0.000206214
0.00199144
0.000229462
0.00180928
0.000250125
0.00160731
0.000267971
0.0013878
0.000282803
0.00115316
0.000294455
0.000906015
0.000302767
0.000648953
0.000307675
0.000385779
0.0001154
0.000308992
3.07337e-05
0.0025596
3.13634e-08
6.18865e-05
0.00251757
9.26882e-05
0.00245574
0.00012266
0.00237
0.000151415
0.00225945
0.000178592
0.00212446
0.000203822
0.00196623
0.000226784
0.00178635
0.000247191
0.00158693
0.000264816
0.00137022
0.000279463
0.00113856
0.00029097
0.000894574
0.000299178
0.000640833
0.000304025
0.000381071
0.000114389
0.000305348
3.03762e-05
0.00252917
4.32961e-08
6.11746e-05
0.00248675
9.16277e-05
0.00242527
0.000121257
0.00234035
0.000149678
0.002231
0.000176529
0.00209757
0.000201452
0.00194126
0.00022413
0.00176362
0.000244285
0.00156672
0.000261693
0.00135274
0.000276158
0.00112402
0.000287522
0.000883116
0.000295629
0.000632606
0.000300416
0.000376126
0.000112778
0.000301742
3.00242e-05
0.00249909
5.30496e-08
6.04721e-05
0.00245631
9.05792e-05
0.00239516
0.000119867
0.00231107
0.000147955
0.00220292
0.000174483
0.00207106
0.000199101
0.00191667
0.0002215
0.00174125
0.000241407
0.00154684
0.0002586
0.00133559
0.000272887
0.00110978
0.00028411
0.00087196
0.000292118
0.000624688
0.000296848
0.000371541
0.000111767
0.000298171
2.9677e-05
0.00246934
6.02642e-08
5.97779e-05
0.00242619
8.95411e-05
0.00236538
0.00011849
0.00228209
0.000146246
0.00217513
0.000172454
0.00204482
0.000196772
0.00189231
0.000218894
0.00171908
0.000238557
0.00152712
0.000255538
0.00131855
0.00026965
0.0010956
0.000280735
0.000860784
0.000288646
0.00061666
0.000293319
0.000366716
0.000110171
0.000294641
2.9334e-05
0.00243995
6.50474e-08
5.9091e-05
0.00239644
8.85124e-05
0.00233596
0.000117124
0.00225349
0.000144551
0.00214771
0.000170442
0.00201895
0.000194462
0.00186831
0.000216313
0.00169725
0.000235734
0.00150773
0.000252508
0.00130182
0.000266447
0.00108171
0.000277397
0.000849902
0.000285213
0.000608936
0.000289831
0.000362246
0.000109164
0.000291148
2.89949e-05
0.00241086
6.76052e-08
5.84105e-05
0.002367
8.74924e-05
0.00230686
0.000115769
0.00222519
0.00014287
0.00212058
0.000168447
0.00199334
0.000192173
0.00184454
0.000213756
0.00167562
0.00023294
0.0014885
0.000249509
0.00128518
0.000263278
0.00106787
0.000274096
0.000838998
0.000281818
0.000601101
0.000286382
0.000357538
0.000107588
0.000287695
2.8659e-05
0.00238214
6.85019e-08
5.77359e-05
0.00233793
8.64804e-05
0.00227812
0.000114425
0.00219725
0.000141201
0.00209382
0.000166469
0.00196809
0.000189905
0.00182113
0.000211224
0.00165433
0.000230174
0.00146958
0.000246542
0.00126886
0.000260145
0.00105432
0.000270831
0.000828381
0.000278462
0.000593563
0.000282974
0.000353178
0.000106593
0.00028428
2.83263e-05
0.00235373
6.81953e-08
5.70669e-05
0.00230917
8.54762e-05
0.00224969
0.000113091
0.00216961
0.000139547
0.00206733
0.000164508
0.0019431
0.000187659
0.00179794
0.000208717
0.00163323
0.000227437
0.00145081
0.000243607
0.00125263
0.000257045
0.00104081
0.000267603
0.000817738
0.000275145
0.000585913
0.000279604
0.000348579
0.000105038
0.000280905
2.79965e-05
0.00232568
6.71464e-08
5.64033e-05
0.00228077
8.44799e-05
0.00222162
0.000111767
0.00214234
0.000137906
0.0020412
0.000162564
0.00191846
0.000185434
0.00177509
0.000206236
0.00161246
0.000224729
0.00143235
0.000240704
0.0012367
0.00025398
0.00102759
0.000264412
0.000807377
0.000271865
0.000578554
0.000276274
0.000344324
0.000104052
0.000277569
2.76696e-05
0.00229792
6.56505e-08
5.57449e-05
0.00225268
8.34914e-05
0.00219385
0.000110454
0.00211535
0.00013628
0.00201535
0.000160639
0.00189407
0.000183231
0.00175247
0.000203781
0.00159186
0.000222051
0.00141403
0.000237832
0.00122085
0.00025095
0.0010144
0.000261258
0.000796987
0.000268623
0.000571083
0.000272982
0.000339831
0.000102521
0.000274272
2.73453e-05
0.00227052
6.4017e-08
5.50919e-05
0.00222494
8.2511e-05
0.00216645
0.000109153
0.00208872
0.000134668
0.00198985
0.000158733
0.00187003
0.000181051
0.00173017
0.000201351
0.00157159
0.000219401
0.00139602
0.000234993
0.00120531
0.000247954
0.0010015
0.00025814
0.000786874
0.00026542
0.000563898
0.000269729
0.000335677
0.000101551
0.000271012
2.70238e-05
0.00224342
6.24015e-08
5.44443e-05
0.0021975
8.15389e-05
0.00213933
0.000107863
0.00206237
0.000133072
0.00196461
0.000156845
0.00184622
0.000178893
0.00170809
0.000198949
0.00155149
0.000216781
0.00137813
0.000232187
0.00118984
0.000244993
0.000988622
0.000255058
0.000776728
0.000262253
0.000556599
0.000266515
0.000331285
0.00010005
0.000267791
2.67051e-05
0.00221666
6.09245e-08
5.38022e-05
0.00217041
8.05753e-05
0.00211257
0.000106585
0.00203638
0.000131491
0.00193972
0.000154977
0.00182276
0.000176758
0.00168633
0.000196572
0.00153171
0.000214191
0.00136055
0.000229412
0.00117466
0.000242067
0.000976024
0.000252013
0.000766855
0.000259125
0.000549582
0.000263338
0.00032723
9.90893e-05
0.000264607
2.63893e-05
0.00219019
5.95975e-08
5.31659e-05
0.00214361
7.96205e-05
0.00208609
0.000105319
0.00201065
0.000129926
0.00191509
0.000153129
0.00179952
0.000174647
0.00166478
0.000194222
0.00151209
0.00021163
0.0013431
0.00022667
0.00115956
0.000239174
0.000963453
0.000249003
0.000756947
0.000256033
0.000542452
0.000260199
0.000322939
9.76261e-05
0.00026146
2.60763e-05
0.00216407
5.84726e-08
5.25354e-05
0.00211716
7.86748e-05
0.00205996
0.000104066
0.00198528
0.000128377
0.00189079
0.0001513
0.00177662
0.000172559
0.00164355
0.000191899
0.00149278
0.000209099
0.00132593
0.000223959
0.00114475
0.000236316
0.000951153
0.000246029
0.000747307
0.000252978
0.000535598
0.000257097
0.00031898
9.67288e-05
0.000258349
2.57663e-05
0.00213823
5.75125e-08
5.1911e-05
0.002091
7.77384e-05
0.00203412
0.000102825
0.00196016
0.000126844
0.00186675
0.000149491
0.00175394
0.000170495
0.00162251
0.000189603
0.00147363
0.000206597
0.00130889
0.000221281
0.00113001
0.000233491
0.000938877
0.00024309
0.00073763
0.00024996
0.000528629
0.000254032
0.000314786
9.53098e-05
0.000255276
2.54593e-05
0.00211272
5.67294e-08
5.12927e-05
0.00206518
7.68114e-05
0.00200861
0.000101598
0.00193539
0.000125328
0.00184303
0.000147703
0.00173159
0.000168454
0.00160178
0.000187333
0.00145478
0.000204124
0.00129214
0.000218634
0.00111554
0.0002307
0.000926867
0.000240187
0.000728216
0.000246978
0.000521934
0.000251005
0.000310923
9.44488e-05
0.000252238
2.51555e-05
0.00208749
5.60622e-08
5.06808e-05
0.00203963
7.58942e-05
0.00198338
0.000100383
0.00191088
0.000123828
0.00181956
0.000145934
0.00170946
0.000166436
0.00158125
0.000185089
0.00143609
0.000201681
0.0012755
0.000216018
0.00110115
0.000227942
0.000914879
0.000237318
0.000718764
0.000244031
0.000515125
0.000248014
0.000306825
9.30635e-05
0.000249237
2.48548e-05
0.00206259
5.55272e-08
5.00752e-05
0.00201442
7.49867e-05
0.00195848
9.91824e-05
0.0018867
0.000122346
0.00179642
0.000144186
0.00168764
0.000164442
0.00156102
0.000182873
0.00141769
0.000199267
0.00125914
0.000213434
0.00108702
0.000225217
0.000903152
0.000234484
0.00070957
0.000241121
0.000508584
0.000245059
0.000303051
9.22634e-05
0.00024627
2.45573e-05
0.00203796
5.50629e-08
4.94762e-05
0.00198949
7.40892e-05
0.00193384
9.79948e-05
0.00186277
0.00012088
0.0017735
0.000142458
0.00166603
0.000162472
0.00154097
0.000180682
0.00139944
0.000196881
0.0012429
0.000210881
0.00107297
0.000222525
0.000891443
0.000231684
0.000700337
0.000238245
0.000501928
0.000242141
0.000299043
9.08985e-05
0.00024334
2.42631e-05
0.00201366
5.46886e-08
4.88838e-05
0.00196488
7.32017e-05
0.00190954
9.68206e-05
0.00183917
0.000119431
0.00175091
0.000140751
0.00164474
0.000160525
0.00152123
0.000178517
0.00138148
0.000194524
0.00122693
0.000208358
0.00105918
0.000219865
0.000879992
0.000228918
0.000691358
0.000235404
0.000495538
0.000239258
0.000295355
9.01258e-05
0.000240444
2.39721e-05
0.00198961
5.43447e-08
4.8298e-05
0.00194053
7.23243e-05
0.00188549
9.56599e-05
0.00181581
0.000118
0.00172855
0.000139063
0.00162364
0.000158601
0.00150166
0.000176379
0.00136366
0.000192195
0.00121107
0.000205866
0.00104545
0.000217238
0.000868557
0.000226185
0.000682338
0.000232597
0.000489033
0.000236411
0.000291432
8.87672e-05
0.000237585
2.36845e-05
0.00196589
5.40592e-08
4.77188e-05
0.00191651
7.14569e-05
0.00186177
9.45127e-05
0.00179277
0.000116585
0.00170649
0.000137396
0.00160285
0.0001567
0.00148238
0.000174266
0.00134613
0.000189895
0.00119548
0.000203404
0.00103199
0.000214642
0.000857374
0.000223485
0.000673568
0.000229824
0.00048279
0.000233598
0.000287824
8.79944e-05
0.00023476
2.34001e-05
0.00194242
5.37767e-08
4.71463e-05
0.00189275
7.05997e-05
0.00183829
9.33789e-05
0.00176997
0.000115186
0.00168466
0.000135748
0.00158226
0.000154821
0.00146327
0.000172179
0.00132873
0.000187622
0.00117999
0.000200971
0.00101858
0.000212078
0.000846205
0.000220818
0.000664755
0.000227084
0.000476432
0.000230819
0.000283981
8.66346e-05
0.000231969
2.31191e-05
0.00191926
5.35298e-08
4.65804e-05
0.0018693
6.97524e-05
0.00181514
9.22586e-05
0.00174748
0.000113805
0.00166313
0.00013412
0.00156197
0.000152966
0.00144446
0.000170116
0.00131161
0.000185377
0.00116477
0.000198568
0.00100544
0.000209544
0.000835284
0.000218183
0.00065619
0.000224378
0.000470331
0.000228074
0.000280449
8.58499e-05
0.000229212
2.28414e-05
0.00189635
5.32664e-08
4.60213e-05
0.0018461
6.89153e-05
0.00179222
9.11516e-05
0.00172522
0.000112439
0.00164182
0.000132512
0.00154187
0.000151133
0.0014258
0.000168079
0.00129463
0.000183159
0.00114965
0.000196195
0.000992346
0.000207042
0.000824375
0.00021558
0.00064758
0.000221705
0.000464117
0.000225363
0.000276684
8.44909e-05
0.00022649
2.2567e-05
0.00187374
5.3024e-08
4.54687e-05
0.00182321
6.8088e-05
0.00176962
9.00578e-05
0.00170326
0.000111091
0.00162081
0.000130923
0.00152206
0.000149322
0.00140743
0.000166067
0.00127791
0.000180967
0.00113478
0.00019385
0.000979508
0.000204569
0.000813711
0.000213009
0.000639214
0.000219064
0.000458157
0.000222684
0.000273226
8.36946e-05
0.0002238
2.22959e-05
0.00185137
5.27532e-08
4.49227e-05
0.00180056
6.72707e-05
0.00174725
8.89771e-05
0.00168153
0.000109758
0.0016
0.000129354
0.00150244
0.000147533
0.00138922
0.000164078
0.00126133
0.000178803
0.00112002
0.000191533
0.000966724
0.000202127
0.000803054
0.000210469
0.000630802
0.000216455
0.000452081
0.000220038
0.000269536
8.23412e-05
0.000221143
2.2028e-05
0.00182931
5.24945e-08
4.43833e-05
0.00177822
6.64632e-05
0.00172519
8.79095e-05
0.0016601
0.000108442
0.00157949
0.000127803
0.0014831
0.000145765
0.00137129
0.000162114
0.00124501
0.000176664
0.0011055
0.000189245
0.000954188
0.000199714
0.00079264
0.000207959
0.00062263
0.000213878
0.000446257
0.000217423
0.000266151
8.15388e-05
0.000218517
2.17634e-05
0.00180748
5.22006e-08
4.38504e-05
0.00175612
6.56654e-05
0.00170335
8.68548e-05
0.00163889
0.000107142
0.00155918
0.000126272
0.00146394
0.00014402
0.00135351
0.000160174
0.00122882
0.000174552
0.00109109
0.000186984
0.000941704
0.000197331
0.000782232
0.00020548
0.000614411
0.000211331
0.000440318
0.00021484
0.000262537
8.01996e-05
0.000215923
2.1502e-05
0.00178593
5.19148e-08
4.33239e-05
0.00173431
6.48773e-05
0.00168181
8.58129e-05
0.00161797
0.000105857
0.00153915
0.000124758
0.00144506
0.000142295
0.001336
0.000158258
0.00121289
0.000172466
0.00107692
0.000184751
0.000929462
0.000194977
0.000772061
0.000203031
0.00060643
0.000208816
0.000434628
0.000212288
0.000259224
7.93978e-05
0.00021336
2.12437e-05
0.00176462
5.15915e-08
4.28038e-05
0.00171273
6.40988e-05
0.0016605
8.47836e-05
0.00159727
0.000104588
0.00151933
0.000123264
0.00142636
0.000140592
0.00131864
0.000156365
0.00119708
0.000170404
0.00106284
0.000182545
0.00091727
0.000192651
0.000761894
0.000200612
0.000598399
0.000206331
0.000428821
0.000209767
0.000255685
7.8077e-05
0.000210828
2.09887e-05
0.0017436
5.12752e-08
4.229e-05
0.00169144
6.33297e-05
0.00163948
8.37668e-05
0.00157685
0.000103334
0.00149978
0.000121787
0.00140793
0.000138909
0.00130155
0.000154495
0.00118152
0.000168368
0.001049
0.000180366
0.000905316
0.000190353
0.000751961
0.000198222
0.000590603
0.000203876
0.000423261
0.000207276
0.000252443
7.7281e-05
0.000208326
2.07367e-05
0.00172279
5.09216e-08
4.17825e-05
0.00167038
6.25699e-05
0.00161867
8.27625e-05
0.00155663
0.000102096
0.00148042
0.000120329
0.00138967
0.000137246
0.0012846
0.000152648
0.00116609
0.000166357
0.00103525
0.000178213
0.000893409
0.000188084
0.00074203
0.000195861
0.000582758
0.000201451
0.000417586
0.000204814
0.000248979
7.59839e-05
0.000205854
2.04878e-05
0.00170227
5.05757e-08
4.12811e-05
0.0016496
6.18194e-05
0.00159815
8.17703e-05
0.0015367
0.000100873
0.00146134
0.000118888
0.00137168
0.000135604
0.00126792
0.000150823
0.0011509
0.00016437
0.00102174
0.000176087
0.000881736
0.000185842
0.000732329
0.000193529
0.000575143
0.000199056
0.000412153
0.000202383
0.000245809
7.51979e-05
0.000203412
2.0242e-05
0.00168196
5.01941e-08
4.07859e-05
0.00162904
6.10781e-05
0.00157784
8.07902e-05
0.00151697
9.96645e-05
0.00144244
0.000117465
0.00135385
0.000133982
0.00125137
0.00014902
0.00113583
0.000162408
0.00100831
0.000173987
0.000870106
0.000183627
0.000722628
0.000191225
0.000567476
0.000196689
0.000406604
0.00019998
0.000242417
7.39253e-05
0.000200998
1.99992e-05
0.00166193
4.98216e-08
4.02967e-05
0.00160876
6.03458e-05
0.00155781
7.98221e-05
0.00149751
9.84709e-05
0.00142382
0.000116059
0.00133629
0.00013238
0.00123508
0.00014724
0.001121
0.000160469
0.000995123
0.000171912
0.000858708
0.000181439
0.000713155
0.00018895
0.000560039
0.000194351
0.000401296
0.000197606
0.000239318
7.31519e-05
0.000198614
1.97594e-05
0.0016421
4.94159e-08
3.98135e-05
0.00158869
5.96224e-05
0.00153798
7.88658e-05
0.00147825
9.72919e-05
0.00140537
0.000114671
0.00131888
0.000130798
0.00121892
0.000145481
0.00110628
0.000158554
0.000982011
0.000169862
0.00084735
0.000179278
0.000703679
0.000186701
0.000552549
0.000192042
0.000395872
0.000195261
0.000236
7.19063e-05
0.000196259
1.95225e-05
0.00162255
4.90214e-08
3.93361e-05
0.00156889
5.89079e-05
0.00151842
7.79211e-05
0.00145925
9.61273e-05
0.00138718
0.000113299
0.00130173
0.000129234
0.00120301
0.000143744
0.0010918
0.000156662
0.000969131
0.000167837
0.000836219
0.000177143
0.000694427
0.00018448
0.000545284
0.00018976
0.000390686
0.000192945
0.00023297
7.11474e-05
0.000193931
1.92885e-05
0.00160319
4.85965e-08
3.88646e-05
0.0015493
5.82021e-05
0.00149907
7.6988e-05
0.00144044
9.49769e-05
0.00136917
0.000111944
0.00128474
0.00012769
0.00118724
0.000142028
0.00107743
0.000154794
0.000956326
0.000165837
0.000825125
0.000175034
0.00068517
0.000182287
0.000537965
0.000187506
0.000385383
0.000190656
0.000229723
6.99278e-05
0.000191632
1.90573e-05
0.0015841
4.81852e-08
3.83989e-05
0.00152997
5.75049e-05
0.00147998
7.60663e-05
0.0014219
9.38405e-05
0.00135142
0.000110605
0.001268
0.000126164
0.00117171
0.000140332
0.00106329
0.000152948
0.000943749
0.000163862
0.000814255
0.000172951
0.000676134
0.000180119
0.000530869
0.000185279
0.000380317
0.000188394
0.000226763
6.91843e-05
0.00018936
1.88291e-05
0.00156521
4.77468e-08
3.79389e-05
0.00151084
5.68162e-05
0.00146108
7.51558e-05
0.00140354
9.2718e-05
0.00133383
0.000109283
0.00125141
0.000124658
0.00115631
0.000138658
0.00104926
0.000151125
0.000931244
0.00016191
0.000803421
0.000170893
0.000667092
0.000177978
0.000523719
0.00018308
0.000375134
0.00018616
0.000223586
6.79921e-05
0.000187116
1.86036e-05
0.00154658
4.73243e-08
3.74845e-05
0.00149198
5.61359e-05
0.00144245
7.42564e-05
0.00138544
9.16091e-05
0.0013165
0.000107977
0.00123506
0.000123169
0.00114114
0.000137004
0.00103546
0.000149323
0.000918963
0.000159982
0.000792806
0.00016886
0.000658267
0.000175863
0.000516788
0.000180907
0.000370184
0.000183953
0.000220693
6.72651e-05
0.000184899
1.83808e-05
0.00152813
4.68774e-08
3.70356e-05
0.00147331
5.54639e-05
0.001424
7.3368e-05
0.00136751
9.05138e-05
0.00129933
0.000106687
0.00121886
0.000121699
0.0011261
0.00013537
0.00102175
0.000147544
0.000906751
0.000158078
0.000782224
0.000166852
0.000649433
0.000173774
0.0005098
0.00017876
0.000365116
0.000181773
0.000217586
6.60985e-05
0.000182708
1.81608e-05
0.00150994
4.64479e-08
3.65922e-05
0.00145489
5.48001e-05
0.00140581
7.24904e-05
0.00134984
8.94318e-05
0.00128241
0.000105413
0.00120291
0.000120246
0.0011113
0.000133756
0.00100828
0.000145787
0.000894759
0.000156197
0.000771858
0.000164869
0.000640815
0.00017171
0.000503031
0.000176639
0.000360281
0.000179619
0.000214759
6.53882e-05
0.000180544
1.79435e-05
0.00149194
4.59973e-08
3.61543e-05
0.00143666
5.41445e-05
0.00138781
7.16235e-05
0.00133234
8.83631e-05
0.00126565
0.000104154
0.00118709
0.000118812
0.00109661
0.000132161
0.000994893
0.000144051
0.000882832
0.000154338
0.000761522
0.000162909
0.000632186
0.000169671
0.000496204
0.000174544
0.000355328
0.000177491
0.00021172
6.4248e-05
0.000178406
1.77288e-05
0.00147418
4.55658e-08
3.57217e-05
0.00141869
5.34968e-05
0.00137005
7.07672e-05
0.00131509
8.73074e-05
0.00124913
0.000102911
0.00117151
0.000117395
0.00108216
0.000130586
0.000981733
0.000142336
0.000871122
0.000152503
0.000751399
0.000160973
0.000623769
0.000167657
0.000489592
0.000172475
0.000350604
0.000175389
0.000208959
6.35549e-05
0.000176295
1.75168e-05
0.0014566
4.51155e-08
3.52943e-05
0.00140089
5.2857e-05
0.00135247
6.99214e-05
0.00129801
8.62645e-05
0.00123277
0.000101683
0.00115607
0.000115995
0.00106782
0.000129031
0.000968664
0.000140642
0.000859474
0.00015069
0.000741303
0.000159061
0.000615339
0.000165668
0.00048292
0.00017043
0.000345761
0.000173312
0.000205985
6.24392e-05
0.000174208
1.73073e-05
0.00143927
4.46859e-08
3.48722e-05
0.00138334
5.2225e-05
0.00133513
6.90858e-05
0.00128117
8.52344e-05
0.00121664
0.000100469
0.00114086
0.000114612
0.00105371
0.000127494
0.000955815
0.000138968
0.000848039
0.000148898
0.000731417
0.000157173
0.000607118
0.000163703
0.000476462
0.000168411
0.000341147
0.00017126
0.000203288
6.1763e-05
0.000172147
1.71005e-05
0.00142211
4.42407e-08
3.44553e-05
0.00136597
5.16007e-05
0.00131797
6.82605e-05
0.00126449
8.42168e-05
0.00120067
9.9271e-05
0.00112578
0.000113246
0.00103971
0.000125976
0.000943053
0.000137315
0.000836663
0.000147129
0.000721557
0.000155307
0.000598883
0.000161761
0.000469944
0.000166415
0.000336414
0.000169233
0.00020038
6.06724e-05
0.00017011
1.68961e-05
0.00140518
4.38173e-08
3.40434e-05
0.00134884
5.09841e-05
0.00130105
6.74451e-05
0.00124805
8.32117e-05
0.00118492
9.80871e-05
0.00111093
0.000111897
0.00102592
0.000124477
0.000930506
0.000135683
0.000825497
0.000145381
0.000711902
0.000153464
0.000590855
0.000159843
0.000463636
0.000164445
0.000331907
0.000167231
0.000197745
6.00137e-05
0.000168099
1.66942e-05
0.00138843
4.33802e-08
3.36365e-05
0.00133188
5.03749e-05
0.00128429
6.66398e-05
0.00123176
8.22188e-05
0.00116932
9.69178e-05
0.00109621
0.000110564
0.00101225
0.000122996
0.000918042
0.00013407
0.000814386
0.000143655
0.00070227
0.000151643
0.000582809
0.000157949
0.000457266
0.000162498
0.000327278
0.000165253
0.0001949
5.89462e-05
0.000166112
1.64948e-05
0.00137191
4.29655e-08
3.32346e-05
0.00131516
4.97732e-05
0.00126777
6.58443e-05
0.00121571
8.1238e-05
0.00115395
9.57626e-05
0.0010817
0.000109248
0.000998796
0.000121532
0.00090579
0.000132477
0.000803481
0.00014195
0.000692841
0.000149844
0.000574968
0.000156078
0.000451105
0.000160574
0.000322876
0.000163299
0.000192327
5.83045e-05
0.000164149
1.62979e-05
0.00135556
4.25399e-08
3.28377e-05
0.00129861
4.91788e-05
0.00125141
6.50584e-05
0.00119981
8.02692e-05
0.00113872
9.46216e-05
0.00106733
0.000107947
0.000985444
0.000120087
0.000893619
0.000130903
0.00079263
0.000140265
0.000683433
0.000148068
0.000567109
0.000154229
0.000444881
0.000158674
0.000318352
0.000161369
0.000189544
5.72607e-05
0.000162209
1.61033e-05
0.00133943
4.21377e-08
3.24455e-05
0.00128228
4.85917e-05
0.00123529
6.42821e-05
0.00118414
7.93121e-05
0.00112371
9.34945e-05
0.00105317
0.000106663
0.000972305
0.00011866
0.000881654
0.000129348
0.000781981
0.000138601
0.000674225
0.000146313
0.00055945
0.000152403
0.000438864
0.000156798
0.000314052
0.000159462
0.000187031
5.66361e-05
0.000160294
1.59111e-05
0.00132346
4.17262e-08
3.20582e-05
0.00126612
4.80117e-05
0.00121932
6.35154e-05
0.00116862
7.83668e-05
0.00110884
9.23811e-05
0.00103913
0.000105394
0.000959267
0.00011725
0.000869767
0.000127813
0.000771382
0.000136957
0.000665035
0.00014458
0.000551772
0.000150599
0.000432781
0.000154944
0.000309629
0.000157578
0.000184309
5.5614e-05
0.000158401
1.57212e-05
0.00130771
4.13385e-08
3.16755e-05
0.00125018
4.74388e-05
0.00120357
6.27579e-05
0.00115332
7.7433e-05
0.00109419
9.12814e-05
0.00102531
0.00010414
0.000946437
0.000115857
0.000858084
0.000126296
0.000760983
0.000135334
0.000656042
0.000142867
0.000544291
0.000148817
0.000426904
0.000153112
0.000305428
0.000155717
0.000181854
5.50062e-05
0.000156531
1.55337e-05
0.00129213
4.09445e-08
3.12975e-05
0.0012344
4.68728e-05
0.00118798
6.20097e-05
0.00113816
7.65106e-05
0.00107967
9.0195e-05
0.0010116
0.000102902
0.000933705
0.000114481
0.000846475
0.000124798
0.000750631
0.00013373
0.000647065
0.000141176
0.00053679
0.000147057
0.000420961
0.000151303
0.000301105
0.000153879
0.000179192
5.40063e-05
0.000154684
1.53484e-05
0.00127675
4.0575e-08
3.09241e-05
0.00121884
4.63138e-05
0.00117261
6.12706e-05
0.00112323
7.55994e-05
0.00106536
8.91219e-05
0.000998103
0.000101679
0.000921177
0.000113122
0.000835066
0.000123318
0.000740475
0.000132145
0.000638282
0.000139505
0.000529484
0.000145318
0.00041522
0.000149516
0.000297002
0.000152063
0.000176795
5.34154e-05
0.00015286
1.51654e-05
0.00126154
4.02003e-08
3.05553e-05
0.00120344
4.57616e-05
0.00115739
6.05405e-05
0.00110843
7.46993e-05
0.00105118
8.8062e-05
0.000984718
0.000100471
0.000908743
0.000111779
0.000823728
0.000121856
0.000730364
0.000130581
0.000629512
0.000137855
0.000522155
0.000143601
0.000409412
0.00014775
0.000292775
0.000150269
0.00017419
5.24359e-05
0.000151058
1.49846e-05
0.00124653
3.98499e-08
3.0191e-05
0.00118825
4.5216e-05
0.00114238
5.98193e-05
0.00109385
7.38102e-05
0.00103721
8.70149e-05
0.000971538
9.92779e-05
0.000896509
0.000110453
0.000812586
0.000120412
0.000720445
0.000129035
0.000620934
0.000136224
0.00051502
0.000141904
0.000403804
0.000146006
0.000288768
0.000148497
0.000171849
5.18613e-05
0.000149278
1.4806e-05
0.00123167
3.94972e-08
2.98311e-05
0.00117321
4.46772e-05
0.00112752
5.91069e-05
0.0010794
7.2932e-05
0.00102337
8.59807e-05
0.000958467
9.80992e-05
0.000884366
0.000109143
0.000801512
0.000118985
0.000710569
0.000127508
0.000612368
0.000134614
0.00050786
0.000140228
0.000398129
0.000144284
0.000284637
0.000146746
0.000169301
5.09029e-05
0.000147519
1.46296e-05
0.00121702
3.91693e-08
2.94756e-05
0.00115838
4.41449e-05
0.00111287
5.84032e-05
0.00106516
7.20645e-05
0.00100973
8.49591e-05
0.000945597
9.69349e-05
0.000872419
0.000107849
0.000790631
0.000117576
0.000700883
0.000126
0.00060399
0.000133023
0.00050089
0.000138573
0.000392652
0.000142582
0.000280722
0.000145017
0.000167015
5.03445e-05
0.000145782
1.44553e-05
0.00120251
3.88401e-08
2.91244e-05
0.0011437
4.36191e-05
0.00109836
5.7708e-05
0.00105105
7.12076e-05
0.00099621
8.395e-05
0.000932833
9.57849e-05
0.00086056
0.000106571
0.000779816
0.000116185
0.000691236
0.00012451
0.000595622
0.000131452
0.000493894
0.000136937
0.000387106
0.000140901
0.000276682
0.000143309
0.000164522
4.94051e-05
0.000144066
1.42832e-05
0.00118821
3.85356e-08
2.87775e-05
0.00112922
4.30996e-05
0.00108405
5.70213e-05
0.00103715
7.03611e-05
0.000982891
8.29532e-05
0.000920265
9.46489e-05
0.000848893
0.000105309
0.000769189
0.00011481
0.000681775
0.000123038
0.000587439
0.0001299
0.000487086
0.000135322
0.000381756
0.00013924
0.000272859
0.000141622
0.000162289
4.88626e-05
0.000142371
1.41131e-05
0.00117404
3.82329e-08
2.84348e-05
0.00111488
4.25866e-05
0.00106989
5.63431e-05
0.00102338
6.9525e-05
0.000969692
8.19686e-05
0.0009078
9.35269e-05
0.000837312