/*--------------------------------*- C++ -*----------------------------------*\
  =========                 |
  \\      /  F ield         | OpenFOAM: The Open Source CFD Toolbox
   \\    /   O peration     | Website:  https://openfoam.org
    \\  /    A nd           | Version:  6.0
     \\/     M anipulation  |
\*---------------------------------------------------------------------------*/
FoamFile
{
    version     2.0;
    format      ascii;
    class       surfaceScalarField;
    location    "3.62";
    object      phi;
}
// * * * * * * * * * * * * * * * * * * * * * * * * * * * * * * * * * * * * * //

dimensions      [0 3 -1 0 0 0 0];

internalField   nonuniform List<scalar> 
26699
(
2.0051e-05
0.005201
5.7813e-10
4.0126e-05
0.0051116
5.9639e-05
0.0049351
7.8187e-05
0.0046741
9.5415e-05
0.0043332
0.00011102
0.0039182
0.00012471
0.0034362
0.00013626
0.0028953
0.00014546
0.002305
0.00015181
0.0016755
0.00015717
0.0010154
0.00046503
3.435e-05
2.0051e-05
0.0051809
1.7858e-09
4.0127e-05
0.0050916
5.964e-05
0.0049155
7.819e-05
0.0046556
9.5417e-05
0.004316
0.00011102
0.0039026
0.00012471
0.0034225
0.00013625
0.0028838
0.00014545
0.0022958
0.00015105
0.0016699
0.0001589
0.0010076
0.00055905
6.488e-05
2.0051e-05
0.0051609
3.0798e-09
4.0128e-05
0.0050715
5.9643e-05
0.004896
7.8193e-05
0.004637
9.542e-05
0.0042988
0.00011103
0.003887
0.00012471
0.0034088
0.00013623
0.0028723
0.00014546
0.0022865
0.00015029
0.0016651
0.00016016
0.00099768
0.00062922
8.9992e-05
2.0051e-05
0.0051408
4.3907e-09
4.013e-05
0.0050514
5.9645e-05
0.0048765
7.8196e-05
0.0046185
9.5423e-05
0.0042815
0.00011103
0.0038714
0.0001247
0.0033951
0.0001362
0.0028608
0.00014551
0.0022772
0.00014955
0.001661
0.00016089
0.00098634
0.00067993
0.00011018
2.0051e-05
0.0051208
5.7047e-09
4.0131e-05
0.0050313
5.9647e-05
0.004857
7.8199e-05
0.0045999
9.5427e-05
0.0042643
0.00011103
0.0038558
0.0001247
0.0033815
0.00013618
0.0028493
0.00014558
0.0022678
0.00014885
0.0016578
0.0001611
0.00097409
0.00071482
0.00012621
2.0051e-05
0.0051007
7.0215e-09
4.0132e-05
0.0050112
5.965e-05
0.0048375
7.8202e-05
0.0045814
9.543e-05
0.0042471
0.00011103
0.0038402
0.0001247
0.0033678
0.00013615
0.0028378
0.00014567
0.0022583
0.00014822
0.0016552
0.00016085
0.00096146
0.0007369
0.00013877
2.0051e-05
0.0050807
8.3411e-09
4.0133e-05
0.0049912
5.9652e-05
0.004818
7.8205e-05
0.0045628
9.5433e-05
0.0042299
0.00011103
0.0038246
0.0001247
0.0033541
0.00013612
0.0028264
0.00014578
0.0022486
0.00014769
0.0016533
0.00016025
0.0009489
0.00074875
0.00014841
2.0051e-05
0.0050606
9.6636e-09
4.0134e-05
0.0049711
5.9654e-05
0.0047984
7.8208e-05
0.0045443
9.5436e-05
0.0042126
0.00011104
0.003809
0.0001247
0.0033405
0.00013608
0.002815
0.00014591
0.0022388
0.00014725
0.001652
0.00015937
0.00093677
0.00075251
0.00015561
2.0051e-05
0.0050405
1.0989e-08
4.0136e-05
0.004951
5.9657e-05
0.0047789
7.8212e-05
0.0045257
9.544e-05
0.0041954
0.00011104
0.0037934
0.0001247
0.0033268
0.00013604
0.0028037
0.00014604
0.0022288
0.00014691
0.0016511
0.00015832
0.00092537
0.00075
0.00016083
2.0051e-05
0.0050205
1.2317e-08
4.0137e-05
0.0049309
5.9659e-05
0.0047594
7.8215e-05
0.0045071
9.5443e-05
0.0041782
0.00011104
0.0037778
0.0001247
0.0033132
0.00013599
0.0027924
0.00014618
0.0022186
0.00014669
0.0016506
0.00015715
0.00091491
0.00074273
0.00016442
2.0051e-05
0.0050004
1.3649e-08
4.0138e-05
0.0049108
5.9661e-05
0.0047399
7.8218e-05
0.0044886
9.5446e-05
0.004161
0.00011104
0.0037622
0.0001247
0.0032995
0.00013595
0.0027812
0.00014632
0.0022082
0.00014658
0.0016503
0.00015595
0.00090554
0.00073196
0.00016672
2.0051e-05
0.0049803
1.4983e-08
4.0139e-05
0.0048907
5.9664e-05
0.0047204
7.8221e-05
0.00447
9.545e-05
0.0041437
0.00011104
0.0037466
0.00012471
0.0032858
0.00013589
0.00277
0.00014646
0.0021977
0.00014656
0.0016502
0.00015475
0.00089735
0.00071872
0.000168
2.005e-05
0.0049603
1.6321e-08
4.014e-05
0.0048706
5.9666e-05
0.0047008
7.8224e-05
0.0044515
9.5453e-05
0.0041265
0.00011105
0.003731
0.00012472
0.0032722
0.00013584
0.0027589
0.00014659
0.0021869
0.00014665
0.0016502
0.00015362
0.00089038
0.00070383
0.00016851
2.005e-05
0.0049402
1.7661e-08
4.0141e-05
0.0048506
5.9668e-05
0.0046813
7.8227e-05
0.0044329
9.5457e-05
0.0041093
0.00011105
0.0037154
0.00012472
0.0032585
0.00013578
0.0027478
0.00014671
0.002176
0.00014682
0.00165
0.00015257
0.00088463
0.00068798
0.00016842
2.005e-05
0.0049201
1.9005e-08
4.0143e-05
0.0048305
5.9671e-05
0.0046618
7.823e-05
0.0044144
9.5461e-05
0.004092
0.00011105
0.0036998
0.00012473
0.0032448
0.00013571
0.0027368
0.00014682
0.0021649
0.00014707
0.0016498
0.00015163
0.00088007
0.0006717
0.00016792
2.005e-05
0.0049001
2.0352e-08
4.0144e-05
0.0048104
5.9673e-05
0.0046422
7.8233e-05
0.0043958
9.5464e-05
0.0040748
0.00011105
0.0036842
0.00012475
0.0032311
0.00013565
0.0027259
0.00014691
0.0021536
0.00014739
0.0016493
0.00015083
0.00087663
0.0006554
0.00016712
2.005e-05
0.00488
2.1703e-08
4.0145e-05
0.0047903
5.9676e-05
0.0046227
7.8236e-05
0.0043772
9.5468e-05
0.0040576
0.00011106
0.0036686
0.00012476
0.0032174
0.00013558
0.0027151
0.00014699
0.0021422
0.00014776
0.0016485
0.00015015
0.00087424
0.00063942
0.00016613
2.005e-05
0.0048599
2.3057e-08
4.0146e-05
0.0047702
5.9678e-05
0.0046032
7.824e-05
0.0043587
9.5472e-05
0.0040403
0.00011106
0.0036531
0.00012477
0.0032037
0.00013551
0.0027044
0.00014705
0.0021307
0.00014818
0.0016474
0.00014962
0.0008728
0.00062399
0.00016505
2.005e-05
0.0048399
2.4414e-08
4.0147e-05
0.0047501
5.968e-05
0.0045836
7.8243e-05
0.0043401
9.5476e-05
0.0040231
0.00011106
0.0036375
0.00012479
0.00319
0.00013544
0.0026937
0.00014709
0.002119
0.00014863
0.0016459
0.00014922
0.00087221
0.00060928
0.00016393
2.005e-05
0.0048198
2.5775e-08
4.0148e-05
0.00473
5.9683e-05
0.0045641
7.8246e-05
0.0043215
9.548e-05
0.0040059
0.00011106
0.0036219
0.00012481
0.0031762
0.00013537
0.0026832
0.00014712
0.0021073
0.0001491
0.0016439
0.00014896
0.00087235
0.0005954
0.00016284
2.005e-05
0.0047997
2.7139e-08
4.015e-05
0.0047099
5.9685e-05
0.0045446
7.8249e-05
0.004303
9.5484e-05
0.0039886
0.00011106
0.0036063
0.00012483
0.0031624
0.00013531
0.0026727
0.00014712
0.0020955
0.00014958
0.0016414
0.00014882
0.00087311
0.00058243
0.0001618
2.005e-05
0.0047796
2.8507e-08
4.0151e-05
0.0046898
5.9688e-05
0.004525
7.8253e-05
0.0042844
9.5488e-05
0.0039714
0.00011106
0.0035907
0.00012486
0.0031486
0.00013524
0.0026623
0.0001471
0.0020836
0.00015007
0.0016385
0.0001488
0.00087438
0.00057038
0.00016084
2.005e-05
0.0047595
2.9879e-08
4.0152e-05
0.0046697
5.969e-05
0.0045055
7.8256e-05
0.0042658
9.5492e-05
0.0039542
0.00011106
0.0035752
0.00012488
0.0031348
0.00013517
0.002652
0.00014706
0.0020717
0.00015055
0.001635
0.00014888
0.00087605
0.00055928
0.00015999
2.005e-05
0.0047395
3.1254e-08
4.0153e-05
0.0046496
5.9692e-05
0.004486
7.8259e-05
0.0042473
9.5497e-05
0.0039369
0.00011106
0.0035596
0.00012491
0.003121
0.00013511
0.0026418
0.00014701
0.0020598
0.00015103
0.001631
0.00014905
0.00087803
0.00054908
0.00015924
2.005e-05
0.0047194
3.2633e-08
4.0154e-05
0.0046295
5.9695e-05
0.0044664
7.8262e-05
0.0042287
9.5501e-05
0.0039197
0.00011106
0.003544
0.00012494
0.0031071
0.00013505
0.0026317
0.00014693
0.0020479
0.00015148
0.0016264
0.0001493
0.00088021
0.00053977
0.00015862
2.005e-05
0.0046993
3.4016e-08
4.0155e-05
0.0046094
5.9697e-05
0.0044469
7.8266e-05
0.0042101
9.5506e-05
0.0039024
0.00011106
0.0035285
0.00012497
0.0030932
0.000135
0.0026216
0.00014684
0.0020361
0.00015192
0.0016213
0.00014962
0.0008825
0.00053128
0.00015811
2.005e-05
0.0046792
3.5404e-08
4.0157e-05
0.0045893
5.97e-05
0.0044273
7.8269e-05
0.0041916
9.5511e-05
0.0038852
0.00011106
0.0035129
0.000125
0.0030793
0.00013495
0.0026117
0.00014674
0.0020243
0.00015232
0.0016157
0.00015
0.00088483
0.00052355
0.00015772
2.005e-05
0.0046591
3.6795e-08
4.0158e-05
0.0045691
5.9702e-05
0.0044078
7.8272e-05
0.004173
9.5516e-05
0.003868
0.00011106
0.0034974
0.00012503
0.0030653
0.00013491
0.0026018
0.00014661
0.0020126
0.0001527
0.0016097
0.00015042
0.00088712
0.00051653
0.00015744
2.005e-05
0.004639
3.819e-08
4.0159e-05
0.004549
5.9705e-05
0.0043882
7.8276e-05
0.0041544
9.5521e-05
0.0038507
0.00011106
0.0034819
0.00012506
0.0030513
0.00013487
0.002592
0.00014648
0.002001
0.00015305
0.0016031
0.00015087
0.0008893
0.00051015
0.00015725
2.0049e-05
0.0046189
3.9589e-08
4.016e-05
0.0045289
5.9707e-05
0.0043687
7.8279e-05
0.0041359
9.5526e-05
0.0038335
0.00011106
0.0034663
0.0001251
0.0030372
0.00013484
0.0025823
0.00014633
0.0019895
0.00015336
0.0015961
0.00015134
0.00089131
0.00050433
0.00015715
2.0049e-05
0.0045989
4.0993e-08
4.0161e-05
0.0045088
5.971e-05
0.0043492
7.8282e-05
0.0041173
9.5531e-05
0.0038162
0.00011105
0.0034508
0.00012514
0.0030232
0.00013481
0.0025726
0.00014618
0.0019781
0.00015363
0.0015886
0.00015182
0.00089312
0.00049902
0.00015714
2.0049e-05
0.0045788
4.2401e-08
4.0163e-05
0.0044887
5.9712e-05
0.0043296
7.8286e-05
0.0040987
9.5537e-05
0.003799
0.00011105
0.0034353
0.00012517
0.003009
0.00013479
0.002563
0.00014601
0.0019669
0.00015387
0.0015808
0.00015231
0.00089467
0.00049415
0.00015719
2.0049e-05
0.0045587
4.3814e-08
4.0164e-05
0.0044686
5.9715e-05
0.0043101
7.8289e-05
0.0040801
9.5543e-05
0.0037817
0.00011105
0.0034198
0.00012521
0.0029949
0.00013479
0.0025534
0.00014584
0.0019559
0.00015407
0.0015725
0.0001528
0.00089594
0.00048965
0.0001573
2.0049e-05
0.0045386
4.5231e-08
4.0165e-05
0.0044485
5.9717e-05
0.0042905
7.8292e-05
0.0040616
9.5549e-05
0.0037645
0.00011104
0.0034043
0.00012525
0.0029807
0.00013478
0.0025439
0.00014566
0.001945
0.00015423
0.001564
0.00015328
0.0008969
0.00048547
0.00015745
2.0049e-05
0.0045185
4.6653e-08
4.0166e-05
0.0044284
5.972e-05
0.0042709
7.8296e-05
0.004043
9.5555e-05
0.0037472
0.00011104
0.0033888
0.00012529
0.0029664
0.00013479
0.0025344
0.00014549
0.0019343
0.00015436
0.0015551
0.00015374
0.00089752
0.00048156
0.00015765
2.0049e-05
0.0044984
4.8079e-08
4.0167e-05
0.0044082
5.9723e-05
0.0042514
7.8299e-05
0.0040244
9.5561e-05
0.0037299
0.00011103
0.0033733
0.00012533
0.0029521
0.0001348
0.0025249
0.0001453
0.0019238
0.00015445
0.0015459
0.00015418
0.00089779
0.00047787
0.00015787
2.0049e-05
0.0044783
4.951e-08
4.0169e-05
0.0043881
5.9725e-05
0.0042318
7.8303e-05
0.0040058
9.5568e-05
0.0037127
0.00011103
0.0033579
0.00012536
0.0029378
0.00013483
0.0025154
0.00014512
0.0019135
0.00015451
0.0015366
0.0001546
0.00089771
0.00047435
0.00015812
2.0049e-05
0.0044582
5.0946e-08
4.017e-05
0.004368
5.9728e-05
0.0042123
7.8306e-05
0.0039873
9.5575e-05
0.0036954
0.00011102
0.0033424
0.0001254
0.0029234
0.00013486
0.002506
0.00014495
0.0019034
0.00015454
0.001527
0.00015498
0.00089727
0.00047096
0.00015837
2.0049e-05
0.0044381
5.2387e-08
4.0171e-05
0.0043479
5.9731e-05
0.0041927
7.831e-05
0.0039687
9.5582e-05
0.0036781
0.00011101
0.003327
0.00012544
0.002909
0.0001349
0.0024965
0.00014477
0.0018935
0.00015454
0.0015172
0.00015535
0.00089646
0.00046768
0.00015863
2.0049e-05
0.004418
5.3834e-08
4.0172e-05
0.0043278
5.9733e-05
0.0041732
7.8313e-05
0.0039501
9.5589e-05
0.0036609
0.00011101
0.0033116
0.00012547
0.0028945
0.00013494
0.002487
0.0001446
0.0018839
0.00015451
0.0015073
0.00015567
0.0008953
0.00046446
0.0001589
2.0049e-05
0.0043979
5.5285e-08
4.0173e-05
0.0043076
5.9736e-05
0.0041536
7.8317e-05
0.0039315
9.5597e-05
0.0036436
0.000111
0.0032962
0.00012551
0.00288
0.000135
0.0024776
0.00014444
0.0018744
0.00015446
0.0014973
0.00015597
0.00089378
0.00046128
0.00015915
2.0049e-05
0.0043778
5.6741e-08
4.0175e-05
0.0042875
5.9739e-05
0.004134
7.832e-05
0.0039129
9.5605e-05
0.0036263
0.00011099
0.0032808
0.00012554
0.0028655
0.00013506
0.002468
0.00014429
0.0018652
0.00015438
0.0014872
0.00015624
0.00089193
0.00045811
0.0001594
2.0048e-05
0.0043577
5.8203e-08
4.0176e-05
0.0042674
5.9741e-05
0.0041145
7.8323e-05
0.0038944
9.5613e-05
0.003609
0.00011098
0.0032654
0.00012557
0.0028509
0.00013513
0.0024585
0.00014414
0.0018562
0.00015429
0.001477
0.00015647
0.00088975
0.00045495
0.00015963
2.0048e-05
0.0043376
5.967e-08
4.0177e-05
0.0042472
5.9744e-05
0.0040949
7.8327e-05
0.0038758
9.5622e-05
0.0035917
0.00011097
0.0032501
0.0001256
0.0028362
0.00013521
0.0024489
0.00014401
0.0018474
0.00015418
0.0014669
0.00015667
0.00088725
0.00045177
0.00015985
2.0048e-05
0.0043174
6.1143e-08
4.0178e-05
0.0042271
5.9747e-05
0.0040753
7.833e-05
0.0038572
9.5631e-05
0.0035744
0.00011097
0.0032348
0.00012563
0.0028216
0.00013529
0.0024392
0.00014388
0.0018388
0.00015405
0.0014567
0.00015684
0.00088446
0.00044855
0.00016006
2.0048e-05
0.0042973
6.2622e-08
4.018e-05
0.004207
5.975e-05
0.0040558
7.8334e-05
0.0038386
9.564e-05
0.0035571
0.00011096
0.0032194
0.00012565
0.0028069
0.00013538
0.0024295
0.00014377
0.0018304
0.00015391
0.0014465
0.00015698
0.00088139
0.0004453
0.00016024
2.0048e-05
0.0042772
6.4106e-08
4.0181e-05
0.0041869
5.9752e-05
0.0040362
7.8337e-05
0.00382
9.5649e-05
0.0035398
0.00011095
0.0032041
0.00012568
0.0027921
0.00013548
0.0024197
0.00014367
0.0018222
0.00015377
0.0014364
0.0001571
0.00087806
0.00044199
0.0001604
2.0048e-05
0.0042571
6.5596e-08
4.0182e-05
0.0041667
5.9755e-05
0.0040166
7.8341e-05
0.0038014
9.5659e-05
0.0035225
0.00011094
0.0031889
0.0001257
0.0027774
0.00013558
0.0024098
0.00014358
0.0018142
0.00015361
0.0014264
0.00015719
0.00087449
0.00043863
0.00016055
2.0048e-05
0.004237
6.7092e-08
4.0183e-05
0.0041466
5.9758e-05
0.003997
7.8344e-05
0.0037829
9.5669e-05
0.0035051
0.00011093
0.0031736
0.00012572
0.0027626
0.00013569
0.0023998
0.00014351
0.0018064
0.00015345
0.0014165
0.00015725
0.00087069
0.00043521
0.00016067
2.0048e-05
0.0042169
6.8595e-08
4.0185e-05
0.0041264
5.9761e-05
0.0039775
7.8348e-05
0.0037643
9.568e-05
0.0034878
0.00011092
0.0031584
0.00012573
0.0027478
0.0001358
0.0023897
0.00014346
0.0017987
0.00015329
0.0014066
0.00015729
0.00086669
0.00043173
0.00016077
2.0048e-05
0.0041968
7.0103e-08
4.0186e-05
0.0041063
5.9764e-05
0.0039579
7.8351e-05
0.0037457
9.569e-05
0.0034705
0.00011091
0.0031431
0.00012574
0.002733
0.00013591
0.0023796
0.00014341
0.0017912
0.00015313
0.0013969
0.00015732
0.00086251
0.00042819
0.00016086
2.0048e-05
0.0041766
7.1618e-08
4.0187e-05
0.0040862
5.9767e-05
0.0039383
7.8354e-05
0.0037271
9.5701e-05
0.0034531
0.00011091
0.0031279
0.00012575
0.0027181
0.00013603
0.0023693
0.00014339
0.0017839
0.00015298
0.0013873
0.00015732
0.00085816
0.00042459
0.00016093
2.0048e-05
0.0041565
7.3139e-08
4.0189e-05
0.004066
5.977e-05
0.0039187
7.8358e-05
0.0037085
9.5713e-05
0.0034358
0.0001109
0.0031127
0.00012576
0.0027033
0.00013615
0.0023589
0.00014337
0.0017767
0.00015282
0.0013779
0.00015731
0.00085367
0.00042092
0.00016098
2.0048e-05
0.0041364
7.4667e-08
4.019e-05
0.0040459
5.9773e-05
0.0038991
7.8361e-05
0.0036899
9.5724e-05
0.0034184
0.00011089
0.0030976
0.00012576
0.0026884
0.00013627
0.0023484
0.00014337
0.0017695
0.00015267
0.0013686
0.00015729
0.00084905
0.0004172
0.00016101
2.0048e-05
0.0041163
7.6202e-08
4.0191e-05
0.0040257
5.9776e-05
0.0038796
7.8364e-05
0.0036713
9.5736e-05
0.003401
0.00011088
0.0030824
0.00012576
0.0026735
0.00013639
0.0023378
0.00014339
0.0017625
0.00015253
0.0013594
0.00015726
0.00084432
0.00041343
0.00016103
2.0048e-05
0.0040961
7.7743e-08
4.0193e-05
0.0040056
5.9779e-05
0.00386
7.8368e-05
0.0036527
9.5748e-05
0.0033837
0.00011088
0.0030673
0.00012576
0.0026586
0.00013651
0.002327
0.00014342
0.0017556
0.0001524
0.0013504
0.00015722
0.0008395
0.00040961
0.00016104
2.0047e-05
0.004076
7.9291e-08
4.0194e-05
0.0039854
5.9782e-05
0.0038404
7.8371e-05
0.0036341
9.5761e-05
0.0033663
0.00011087
0.0030522
0.00012575
0.0026438
0.00013663
0.0023161
0.00014346
0.0017488
0.00015228
0.0013416
0.00015718
0.00083461
0.00040575
0.00016104
2.0047e-05
0.0040559
8.0847e-08
4.0195e-05
0.0039653
5.9785e-05
0.0038208
7.8374e-05
0.0036156
9.5773e-05
0.0033489
0.00011087
0.0030371
0.00012574
0.0026289
0.00013675
0.0023051
0.00014351
0.001742
0.00015217
0.001333
0.00015713
0.00082965
0.00040185
0.00016103
2.0047e-05
0.0040358
8.2409e-08
4.0197e-05
0.0039452
5.9788e-05
0.0038012
7.8378e-05
0.003597
9.5786e-05
0.0033315
0.00011087
0.003022
0.00012573
0.002614
0.00013686
0.002294
0.00014358
0.0017353
0.00015207
0.0013245
0.00015708
0.00082464
0.00039791
0.00016101
2.0047e-05
0.0040156
8.3979e-08
4.0198e-05
0.003925
5.9792e-05
0.0037816
7.8381e-05
0.0035784
9.5799e-05
0.003314
0.00011086
0.0030069
0.00012571
0.0025992
0.00013698
0.0022827
0.00014366
0.0017287
0.00015198
0.0013161
0.00015702
0.0008196
0.00039395
0.00016099
2.0047e-05
0.0039955
8.5557e-08
4.02e-05
0.0039048
5.9795e-05
0.003762
7.8384e-05
0.0035598
9.5813e-05
0.0032966
0.00011086
0.0029919
0.00012569
0.0025843
0.00013709
0.0022713
0.00014374
0.001722
0.00015191
0.001308
0.00015697
0.00081454
0.00038997
0.00016096
2.0047e-05
0.0039754
8.7142e-08
4.0201e-05
0.0038847
5.9798e-05
0.0037424
7.8387e-05
0.0035412
9.5826e-05
0.0032792
0.00011086
0.0029769
0.00012567
0.0025695
0.0001372
0.0022598
0.00014384
0.0017154
0.00015185
0.0013
0.00015692
0.00080947
0.00038597
0.00016092
2.0047e-05
0.0039552
8.8735e-08
4.0203e-05
0.0038645
5.9801e-05
0.0037228
7.8391e-05
0.0035226
9.584e-05
0.0032617
0.00011086
0.0029618
0.00012565
0.0025548
0.0001373
0.0022482
0.00014395
0.0017087
0.0001518
0.0012921
0.00015688
0.00080439
0.00038195
0.00016089
2.0047e-05
0.0039351
9.0337e-08
4.0204e-05
0.0038444
5.9805e-05
0.0037032
7.8394e-05
0.003504
9.5854e-05
0.0032443
0.00011087
0.0029468
0.00012562
0.00254
0.0001374
0.0022364
0.00014406
0.0017021
0.00015177
0.0012844
0.00015684
0.00079932
0.00037794
0.00016085
2.0047e-05
0.003915
9.1946e-08
4.0205e-05
0.0038242
5.9808e-05
0.0036836
7.8397e-05
0.0034854
9.5867e-05
0.0032268
0.00011087
0.0029318
0.00012559
0.0025253
0.0001375
0.0022245
0.00014418
0.0016954
0.00015175
0.0012768
0.0001568
0.00079427
0.00037392
0.00016082
2.0047e-05
0.0038948
9.3563e-08
4.0207e-05
0.0038041
5.9812e-05
0.003664
7.84e-05
0.0034668
9.5881e-05
0.0032093
0.00011088
0.0029168
0.00012556
0.0025106
0.00013758
0.0022125
0.00014431
0.0016887
0.00015174
0.0012694
0.00015677
0.00078923
0.00036991
0.00016078
2.0047e-05
0.0038747
9.5189e-08
4.0208e-05
0.0037839
5.9815e-05
0.0036444
7.8403e-05
0.0034483
9.5895e-05
0.0031918
0.00011088
0.0029018
0.00012553
0.0024959
0.00013767
0.0022003
0.00014444
0.0016819
0.00015174
0.0012621
0.00015675
0.00078422
0.00036591
0.00016075
2.0047e-05
0.0038545
9.6824e-08
4.021e-05
0.0037637
5.9819e-05
0.0036248
7.8407e-05
0.0034297
9.5909e-05
0.0031743
0.00011089
0.0028869
0.0001255
0.0024813
0.00013775
0.0021881
0.00014457
0.0016751
0.00015176
0.0012549
0.00015674
0.00077924
0.00036193
0.00016072
2.0047e-05
0.0038344
9.8467e-08
4.0211e-05
0.0037436
5.9822e-05
0.0036052
7.841e-05
0.0034111
9.5923e-05
0.0031568
0.0001109
0.0028719
0.00012546
0.0024668
0.00013782
0.0021757
0.00014471
0.0016682
0.00015178
0.0012478
0.00015673
0.0007743
0.00035796
0.00016069
2.0047e-05
0.0038142
1.0012e-07
4.0213e-05
0.0037234
5.9826e-05
0.0035856
7.8413e-05
0.0033925
9.5937e-05
0.0031393
0.00011091
0.0028569
0.00012543
0.0024522
0.00013788
0.0021633
0.00014485
0.0016612
0.00015182
0.0012409
0.00015673
0.00076939
0.00035402
0.00016067
2.0047e-05
0.0037941
1.0178e-07
4.0215e-05
0.0037032
5.9829e-05
0.003566
7.8416e-05
0.0033739
9.5951e-05
0.0031217
0.00011093
0.0028419
0.00012539
0.0024378
0.00013794
0.0021507
0.00014499
0.0016542
0.00015187
0.001234
0.00015673
0.00076452
0.0003501
0.00016065
2.0047e-05
0.0037739
1.0345e-07
4.0216e-05
0.0036831
5.9833e-05
0.0035463
7.8419e-05
0.0033553
9.5965e-05
0.0031042
0.00011094
0.002827
0.00012535
0.0024234
0.00013799
0.0021381
0.00014513
0.001647
0.00015192
0.0012272
0.00015675
0.00075969
0.00034621
0.00016063
2.0047e-05
0.0037538
1.0513e-07
4.0218e-05
0.0036629
5.9837e-05
0.0035267
7.8423e-05
0.0033367
9.5978e-05
0.0030866
0.00011096
0.002812
0.00012531
0.002409
0.00013804
0.0021253
0.00014527
0.0016398
0.00015198
0.0012205
0.00015677
0.00075491
0.00034236
0.00016062
2.0047e-05
0.0037336
1.0682e-07
4.0219e-05
0.0036427
5.9841e-05
0.0035071
7.8426e-05
0.0033182
9.5992e-05
0.0030691
0.00011098
0.002797
0.00012528
0.0023947
0.00013808
0.0021125
0.0001454
0.0016325
0.00015206
0.0012138
0.0001568
0.00075017
0.00033854
0.00016061
2.0046e-05
0.0037135
1.0852e-07
4.0221e-05
0.0036226
5.9844e-05
0.0034875
7.8429e-05
0.0032996
9.6005e-05
0.0030515
0.000111
0.002782
0.00012524
0.0023805
0.00013811
0.0020997
0.00014554
0.0016251
0.00015213
0.0012072
0.00015683
0.00074547
0.00033477
0.00016061
2.0046e-05
0.0036933
1.1023e-07
4.0223e-05
0.0036024
5.9848e-05
0.0034678
7.8433e-05
0.003281
9.6018e-05
0.0030339
0.00011102
0.002767
0.0001252
0.0023663
0.00013814
0.0020867
0.00014567
0.0016175
0.00015222
0.0012007
0.00015688
0.00074081
0.00033103
0.00016061
2.0046e-05
0.0036732
1.1195e-07
4.0224e-05
0.0035822
5.9852e-05
0.0034482
7.8436e-05
0.0032624
9.6031e-05
0.0030163
0.00011104
0.002752
0.00012517
0.0023522
0.00013816
0.0020737
0.0001458
0.0016099
0.0001523
0.0011942
0.00015692
0.00073619
0.00032733
0.00016062
2.0046e-05
0.003653
1.1368e-07
4.0226e-05
0.003562
5.9856e-05
0.0034286
7.8439e-05
0.0032438
9.6043e-05
0.0029987
0.00011107
0.002737
0.00012513
0.0023381
0.00013818
0.0020607
0.00014592
0.0016021
0.00015239
0.0011877
0.00015698
0.00073161
0.00032368
0.00016063
2.0046e-05
0.0036328
1.1542e-07
4.0228e-05
0.0035418
5.986e-05
0.003409
7.8443e-05
0.0032252
9.6055e-05
0.0029811
0.00011109
0.0027219
0.0001251
0.0023241
0.00013819
0.0020476
0.00014605
0.0015943
0.00015249
0.0011813
0.00015703
0.00072706
0.00032007
0.00016064
2.0046e-05
0.0036127
1.1717e-07
4.0229e-05
0.0035217
5.9864e-05
0.0033893
7.8447e-05
0.0032067
9.6067e-05
0.0029635
0.00011112
0.0027069
0.00012506
0.0023102
0.0001382
0.0020344
0.00014616
0.0015863
0.00015259
0.0011748
0.0001571
0.00072255
0.00031651
0.00016066
2.0046e-05
0.0035925
1.1894e-07
4.0231e-05
0.0035015
5.9868e-05
0.0033697
7.845e-05
0.0031881
9.6079e-05
0.0029459
0.00011115
0.0026918
0.00012503
0.0022963
0.0001382
0.0020213
0.00014627
0.0015782
0.00015268
0.0011684
0.00015716
0.00071807
0.00031299
0.00016068
2.0046e-05
0.0035723
1.2071e-07
4.0233e-05
0.0034813
5.9873e-05
0.00335
7.8454e-05
0.0031695
9.609e-05
0.0029282
0.00011118
0.0026767
0.000125
0.0022824
0.00013819
0.0020081
0.00014638
0.0015701
0.00015278
0.001162
0.00015723
0.00071363
0.00030952
0.0001607
2.0046e-05
0.0035522
1.225e-07
4.0235e-05
0.0034611
5.9877e-05
0.0033304
7.8458e-05
0.0031509
9.6101e-05
0.0029106
0.00011121
0.0026616
0.00012498
0.0022687
0.00013819
0.0019949
0.00014648
0.0015618
0.00015288
0.0011556
0.0001573
0.00070921
0.00030609
0.00016073
2.0046e-05
0.003532
1.243e-07
4.0236e-05
0.0034409
5.9881e-05
0.0033108
7.8462e-05
0.0031323
9.6111e-05
0.0028929
0.00011124
0.0026465
0.00012495
0.002255
0.00013818
0.0019817
0.00014657
0.0015534
0.00015298
0.0011492
0.00015738
0.00070481
0.00030271
0.00016076
2.0046e-05
0.0035118
1.2611e-07
4.0238e-05
0.0034207
5.9885e-05
0.0032911
7.8466e-05
0.0031137
9.6121e-05
0.0028753
0.00011128
0.0026313
0.00012493
0.0022413
0.00013816
0.0019684
0.00014666
0.0015449
0.00015308
0.0011428
0.00015746
0.00070044
0.00029937
0.00016079
2.0046e-05
0.0034917
1.2793e-07
4.024e-05
0.0034005
5.989e-05
0.0032715
7.847e-05
0.0030952
9.6131e-05
0.0028576
0.00011131
0.0026161
0.00012491
0.0022277
0.00013814
0.0019552
0.00014674
0.0015363
0.00015318
0.0011363
0.00015753
0.00069608
0.00029608
0.00016083
2.0046e-05
0.0034715
1.2976e-07
4.0242e-05
0.0033803
5.9894e-05
0.0032518
7.8474e-05
0.0030766
9.614e-05
0.0028399
0.00011135
0.0026009
0.00012489
0.0022142
0.00013812
0.001942
0.00014682
0.0015276
0.00015328
0.0011299
0.00015761
0.00069174
0.00029283
0.00016086
2.0046e-05
0.0034513
1.3161e-07
4.0244e-05
0.0033601
5.9899e-05
0.0032322
7.8479e-05
0.003058
9.6149e-05
0.0028223
0.00011138
0.0025857
0.00012488
0.0022007
0.0001381
0.0019287
0.00014689
0.0015188
0.00015337
0.0011234
0.0001577
0.00068742
0.00028963
0.0001609
2.0046e-05
0.0034311
1.3347e-07
4.0246e-05
0.0033399
5.9903e-05
0.0032125
7.8483e-05
0.0030394
9.6157e-05
0.0028046
0.00011142
0.0025704
0.00012487
0.0021872
0.00013808
0.0019155
0.00014696
0.0015099
0.00015346
0.0011169
0.00015778
0.00068311
0.00028646
0.00016094
2.0046e-05
0.0034109
1.3534e-07
4.0248e-05
0.0033197
5.9908e-05
0.0031928
7.8488e-05
0.0030208
9.6165e-05
0.0027869
0.00011146
0.0025551
0.00012486
0.0021738
0.00013805
0.0019023
0.00014702
0.0015009
0.00015355
0.0011104
0.00015786
0.0006788
0.00028334
0.00016098
2.0046e-05
0.0033908
1.3723e-07
4.025e-05
0.0032995
5.9912e-05
0.0031732
7.8493e-05
0.0030023
9.6173e-05
0.0027692
0.0001115
0.0025398
0.00012485
0.0021605
0.00013803
0.0018891
0.00014708
0.0014919
0.00015364
0.0011038
0.00015794
0.0006745
0.00028026
0.00016102
2.0046e-05
0.0033706
1.3913e-07
4.0252e-05
0.0032793
5.9917e-05
0.0031535
7.8498e-05
0.0029837
9.618e-05
0.0027516
0.00011154
0.0025245
0.00012485
0.0021472
0.000138
0.001876
0.00014713
0.0014828
0.00015373
0.0010972
0.00015802
0.00067021
0.00027721
0.00016106
2.0046e-05
0.0033504
1.4105e-07
4.0254e-05
0.0032591
5.9922e-05
0.0031338
7.8503e-05
0.0029651
9.6187e-05
0.0027339
0.00011157
0.0025091
0.00012485
0.0021339
0.00013797
0.0018629
0.00014718
0.0014736
0.00015381
0.0010906
0.0001581
0.00066592
0.00027421
0.00016111
2.0046e-05
0.0033302
1.4298e-07
4.0256e-05
0.0032389
5.9926e-05
0.0031142
7.8509e-05
0.0029465
9.6194e-05
0.0027162
0.00011161
0.0024937
0.00012485
0.0021207
0.00013795
0.0018498
0.00014722
0.0014643
0.00015389
0.0010839
0.00015818
0.00066162
0.00027123
0.00016115
2.0046e-05
0.00331
1.4493e-07
4.0258e-05
0.0032187
5.9931e-05
0.0030945
7.8514e-05
0.0029279
9.62e-05
0.0026985
0.00011165
0.0024782
0.00012486
0.0021074
0.00013792
0.0018367
0.00014726
0.001455
0.00015396
0.0010772
0.00015826
0.00065733
0.0002683
0.00016119
2.0046e-05
0.0032898
1.4689e-07
4.026e-05
0.0031985
5.9936e-05
0.0030748
7.852e-05
0.0029094
9.6205e-05
0.0026808
0.00011169
0.0024627
0.00012486
0.0020943
0.0001379
0.0018237
0.00014729
0.0014456
0.00015403
0.0010705
0.00015833
0.00065303
0.00026539
0.00016124
2.0046e-05
0.0032696
1.4886e-07
4.0262e-05
0.0031783
5.9941e-05
0.0030551
7.8526e-05
0.0028908
9.6211e-05
0.0026631
0.00011173
0.0024472
0.00012487
0.0020811
0.00013787
0.0018107
0.00014733
0.0014361
0.0001541
0.0010637
0.00015841
0.00064872
0.00026252
0.00016128
2.0046e-05
0.0032494
1.5085e-07
4.0264e-05
0.003158
5.9946e-05
0.0030355
7.8532e-05
0.0028722
9.6216e-05
0.0026455
0.00011177
0.0024317
0.00012489
0.002068
0.00013785
0.0017977
0.00014736
0.0014266
0.00015417
0.0010569
0.00015848
0.00064441
0.00025967
0.00016133
2.0046e-05
0.0032292
1.5286e-07
4.0266e-05
0.0031378
5.9951e-05
0.0030158
7.8539e-05
0.0028536
9.6221e-05
0.0026278
0.00011181
0.0024161
0.0001249
0.0020549
0.00013782
0.0017848
0.00014738
0.001417
0.00015424
0.00105
0.00015856
0.00064009
0.00025686
0.00016137
2.0046e-05
0.003209
1.5488e-07
4.0269e-05
0.0031176
5.9956e-05
0.0029961
7.8545e-05
0.002835
9.6226e-05
0.0026101
0.00011184
0.0024004
0.00012492
0.0020418
0.0001378
0.0017719
0.00014741
0.0014074
0.0001543
0.0010431
0.00015863
0.00063576
0.00025407
0.00016142
2.0046e-05
0.0031888
1.5692e-07
4.0271e-05
0.0030974
5.9961e-05
0.0029764
7.8552e-05
0.0028164
9.623e-05
0.0025924
0.00011188
0.0023848
0.00012494
0.0020288
0.00013778
0.0017591
0.00014743
0.0013978
0.00015436
0.0010362
0.0001587
0.00063141
0.00025131
0.00016146
2.0046e-05
0.0031686
1.5898e-07
4.0273e-05
0.0030771
5.9966e-05
0.0029567
7.8559e-05
0.0027978
9.6234e-05
0.0025747
0.00011192
0.0023691
0.00012496
0.0020157
0.00013777
0.0017463
0.00014745
0.0013881
0.00015441
0.0010292
0.00015877
0.00062706
0.00024857
0.00016151
2.0046e-05
0.0031484
1.6106e-07
4.0275e-05
0.0030569
5.9971e-05
0.002937
7.8566e-05
0.0027792
9.6238e-05
0.0025571
0.00011196
0.0023534
0.00012499
0.0020027
0.00013775
0.0017335
0.00014747
0.0013784
0.00015447
0.0010222
0.00015884
0.00062269
0.00024586
0.00016155
2.0046e-05
0.0031282
1.6315e-07
4.0278e-05
0.0030367
5.9976e-05
0.0029173
7.8573e-05
0.0027606
9.6242e-05
0.0025394
0.00011199
0.0023376
0.00012502
0.0019897
0.00013774
0.0017208
0.00014748
0.0013686
0.00015452
0.0010152
0.0001589
0.00061831
0.00024317
0.0001616
2.0046e-05
0.003108
1.6526e-07
4.028e-05
0.0030164
5.9982e-05
0.0028976
7.8581e-05
0.002742
9.6246e-05
0.0025217
0.00011203
0.0023219
0.00012504
0.0019767
0.00013772
0.0017081
0.0001475
0.0013589
0.00015457
0.0010081
0.00015897
0.00061391
0.0002405
0.00016164
2.0046e-05
0.0030878
1.6739e-07
4.0283e-05
0.0029962
5.9987e-05
0.0028779
7.8589e-05
0.0027234
9.625e-05
0.0025041
0.00011206
0.0023061
0.00012507
0.0019636
0.00013771
0.0016955
0.00014751
0.0013491
0.00015462
0.001001
0.00015903
0.00060949
0.00023785
0.00016168
2.0047e-05
0.0030676
1.6954e-07
4.0285e-05
0.002976
5.9992e-05
0.0028582
7.8596e-05
0.0027048
9.6253e-05
0.0024864
0.0001121
0.0022902
0.00012511
0.0019506
0.00013771
0.0016829
0.00014753
0.0013393
0.00015467
0.00099388
0.0001591
0.00060506
0.00023522
0.00016173
2.0047e-05
0.0030473
1.7171e-07
4.0287e-05
0.0029557
5.9998e-05
0.0028385
7.8605e-05
0.0026862
9.6257e-05
0.0024688
0.00011213
0.0022743
0.00012514
0.0019376
0.0001377
0.0016703
0.00014754
0.0013294
0.00015471
0.00098671
0.00015916
0.00060062
0.0002326
0.00016177
2.0047e-05
0.0030271
1.739e-07
4.029e-05
0.0029355
6.0003e-05
0.0028188
7.8613e-05
0.0026676
9.626e-05
0.0024511
0.00011216
0.0022584
0.00012517
0.0019246
0.0001377
0.0016578
0.00014755
0.0013196
0.00015475
0.0009795
0.00015922
0.00059615
0.00023001
0.00016181
2.0047e-05
0.0030069
1.7611e-07
4.0292e-05
0.0029152
6.0009e-05
0.0027991
7.8621e-05
0.002649
9.6264e-05
0.0024335
0.0001122
0.0022425
0.00012521
0.0019116
0.0001377
0.0016453
0.00014756
0.0013097
0.0001548
0.00097227
0.00015927
0.00059167
0.00022743
0.00016186
2.0047e-05
0.0029867
1.7834e-07
4.0295e-05
0.002895
6.0014e-05
0.0027793
7.863e-05
0.0026304
9.6267e-05
0.0024158
0.00011223
0.0022265
0.00012525
0.0018986
0.0001377
0.0016328
0.00014758
0.0012998
0.00015484
0.00096501
0.00015933
0.00058718
0.00022486
0.0001619
2.0047e-05
0.0029664
1.8059e-07
4.0298e-05
0.0028747
6.002e-05
0.0027596
7.8639e-05
0.0026118
9.6271e-05
0.0023982
0.00011226
0.0022106
0.00012529
0.0018856
0.0001377
0.0016204
0.00014759
0.0012899
0.00015487
0.00095773