/*--------------------------------*- C++ -*----------------------------------*\
  =========                 |
  \\      /  F ield         | OpenFOAM: The Open Source CFD Toolbox
   \\    /   O peration     | Website:  https://openfoam.org
    \\  /    A nd           | Version:  6.0
     \\/     M anipulation  |
\*---------------------------------------------------------------------------*/
FoamFile
{
    version     2.0;
    format      ascii;
    class       volScalarField;
    location    "8";
    object      p;
}
// * * * * * * * * * * * * * * * * * * * * * * * * * * * * * * * * * * * * * //

dimensions      [0 2 -2 0 0 0 0];

internalField   nonuniform List<scalar> 
47000
(
0.02329
0.0230185
0.0220743
0.0205192
0.0185434
0.0164072
0.0144328
0.0128453
0.0118023
0.0112682
0.0111486
0.0112375
0.0113748
0.0114007
0.0112467
0.0108715
0.0103039
0.00957639
0.00874998
0.00786821
0.00698114
0.00611746
0.00530438
0.00455266
0.00387267
0.00326417
0.00273911
0.00224688
0.00206364
0.00243172
0.0233333
0.023107
0.0222377
0.0207681
0.018865
0.0167697
0.0147974
0.0131837
0.0121109
0.0115718
0.0114974
0.0116901
0.011987
0.0122085
0.0122645
0.0120871
0.0116878
0.0110841
0.010334
0.009479
0.00857645
0.0076608
0.0067701
0.0059227
0.00514006
0.0044299
0.0038214
0.00327853
0.00314143
0.00342214
0.0234172
0.0232169
0.0223803
0.0209333
0.0190193
0.0168557
0.0147431
0.0129195
0.0115878
0.0107741
0.0104463
0.0104369
0.0106018
0.010765
0.0108298
0.0107135
0.010412
0.0099267
0.00930465
0.00857869
0.00780323
0.0070111
0.00624313
0.00552051
0.00487101
0.00430923
0.00387493
0.00355902
0.00366254
0.00408946
0.0235399
0.0233859
0.0226186
0.0212475
0.0193892
0.0172319
0.015052
0.0130794
0.0115277
0.0104505
0.00985209
0.00959943
0.00957582
0.00961884
0.0096354
0.00953488
0.00930288
0.00892641
0.0084416
0.0078702
0.00726121
0.0066422
0.00605357
0.00551544
0.00505802
0.00469814
0.00447687
0.00439477
0.00470137
0.00529861
0.0237012
0.023625
0.0229867
0.0217793
0.0200923
0.0180798
0.0159866
0.0140229
0.0124007
0.0111889
0.0104196
0.00999039
0.00981251
0.00974167
0.00969439
0.00957921
0.00937688
0.0090647
0.00867043
0.0082063
0.00771547
0.00721963
0.00675653
0.00634303
0.00600802
0.00576669
0.00565484
0.00567188
0.00603093
0.0066241
0.0238966
0.0239182
0.0234466
0.0224606
0.0210234
0.019255
0.0173645
0.0155356
0.0139686
0.0127372
0.0118923
0.0113557
0.0110645
0.0108934
0.0107724
0.0106135
0.0103975
0.0100959
0.00973142
0.00930853
0.00886589
0.00841923
0.00800366
0.00763192
0.00733114
0.00711412
0.00701218
0.00702428
0.00734444
0.00785611
0.0241245
0.0242485
0.0239526
0.0232036
0.0220425
0.0205579
0.018924
0.0172956
0.0158559
0.0146762
0.0138185
0.013223
0.012849
0.0125894
0.0123883
0.0121643
0.0119011
0.0115678
0.0111844
0.01075
0.0102998
0.00984515
0.00941895
0.00903106
0.00870771
0.00846118
0.00832102
0.00828892
0.00854816
0.00897344
0.0243761
0.024598
0.0244654
0.0239388
0.0230414
0.0218359
0.020465
0.0190558
0.0177723
0.0166793
0.0158444
0.015221
0.0147867
0.0144504
0.0141704
0.0138723
0.013545
0.0131568
0.0127273
0.0122517
0.0117636
0.0112708
0.0108056
0.0103758
0.0100083
0.00971597
0.00952865
0.00945099
0.00965726
0.0100137
0.0246488
0.0249593
0.0249674
0.0246331
0.0239675
0.0230121
0.0218838
0.0206846
0.0195599
0.0185654
0.0177708
0.0171386
0.0166608
0.0162602
0.0159076
0.0155363
0.0151406
0.0146898
0.0142041
0.0136762
0.0131393
0.012599
0.0120874
0.0116115
0.0111994
0.010865
0.0106387
0.0105269
0.0106943
0.0109983
0.0249369
0.0253237
0.0254469
0.0252702
0.024797
0.0240537
0.0231357
0.0221239
0.0211465
0.0202498
0.0195027
0.0188739
0.0183666
0.0179149
0.017501
0.0170647
0.0166065
0.0160967
0.0155573
0.0149794
0.0143964
0.0138123
0.0132598
0.0127453
0.0122983
0.0119335
0.0116814
0.0115484
0.0116894
0.0119563
0.0252404
0.0256922
0.0259067
0.0258549
0.0255366
0.0249669
0.0242251
0.0233743
0.0225277
0.0217218
0.021024
0.0204063
0.0198809
0.0193907
0.0189277
0.0184378
0.0179268
0.0173669
0.0167818
0.0161619
0.015541
0.014922
0.0143385
0.0137962
0.0133259
0.0129424
0.0126761
0.0125318
0.0126554
0.0128946
0.025554
0.0260605
0.0263466
0.026392
0.0261962
0.0257665
0.0251698
0.0244548
0.0237218
0.0229984
0.0223494
0.0217486
0.021215
0.0206984
0.0201993
0.0196684
0.019117
0.0185184
0.0178989
0.0172476
0.0165996
0.0159565
0.0153529
0.0147938
0.014311
0.0139189
0.0136473
0.0134985
0.0136107
0.0138304
0.0258799
0.0264332
0.026776
0.0268971
0.0267982
0.0264813
0.026004
0.0254034
0.0247688
0.0241196
0.0235177
0.0229378
0.0224038
0.0218711
0.0213471
0.0207867
0.0202058
0.0195792
0.0189351
0.0182621
0.0175963
0.0169383
0.0163234
0.015756
0.0152685
0.0148746
0.014603
0.0144537
0.0145578
0.0147616
0.0262148
0.0268072
0.0271959
0.0273772
0.0273561
0.0271313
0.0267536
0.0262502
0.0257017
0.0251198
0.0245638
0.024008
0.0234804
0.0229406
0.0224019
0.0218224
0.0212223
0.0205774
0.0199182
0.0192323
0.018557
0.0178919
0.0172731
0.0167039
0.0162174
0.015826
0.0155578
0.01541
0.0155081
0.0157003
0.0265621
0.0271883
0.027616
0.0278469
0.0278904
0.0277428
0.0274496
0.0270305
0.0265583
0.0260382
0.0255266
0.0249972
0.024481
0.0239409
0.0233951
0.0228044
0.0221928
0.0215368
0.0208691
0.0201765
0.0194973
0.0188301
0.0182118
0.0176447
0.0171621
0.0167754
0.0165118
0.0163661
0.0164589
0.0166403
0.0269179
0.0275727
0.0280352
0.0283091
0.0284085
0.0283279
0.0281089
0.0277646
0.0273617
0.0268993
0.0264314
0.0259303
0.0254301
0.0248954
0.0243492
0.023754
0.0231375
0.0224765
0.0218059
0.0211116
0.020433
0.0197676
0.0191531
0.0185906
0.0181139
0.017733
0.0174745
0.0173307
0.0174186
0.0175917
0.0272858
0.0279665
0.0284618
0.0287751
0.028925
0.0289048
0.0287527
0.0284765
0.0281376
0.0277297
0.0273045
0.0268332
0.0263517
0.0258266
0.0252843
0.0246892
0.0240718
0.0234097
0.0227394
0.0220462
0.0213703
0.0207086
0.0200992
0.0195421
0.0190715
0.0186961
0.0184421
0.0182995
0.0183824
0.0185469
0.0276612
0.0283647
0.0288923
0.0292434
0.0294411
0.0294772
0.0293875
0.029175
0.0288966
0.0285412
0.0281586
0.0277183
0.0272583
0.0267461
0.0262119
0.0256206
0.0250063
0.0243462
0.0236791
0.0229892
0.0223181
0.0216612
0.0210579
0.0205067
0.0200423
0.0196722
0.019422
0.01928
0.0193577
0.0195153
0.0280485
0.0287736
0.0293338
0.0297227
0.029967
0.0300571
0.0300268
0.0298749
0.0296544
0.0293499
0.0290094
0.028601
0.028164
0.027667
0.0271429
0.0265579
0.0259483
0.0252919
0.024629
0.0239431
0.023277
0.0226251
0.0220274
0.0214816
0.0210225
0.0206565
0.0204091
0.0202667
0.0203387
0.0204886
0.0284417
0.0291869
0.0297807
0.0302082
0.0304991
0.0306425
0.0306701
0.030577
0.030413
0.0301586
0.0298605
0.0294848
0.0290727
0.028593
0.0280817
0.027505
0.0269023
0.0262511
0.0255938
0.0249128
0.0242522
0.0236054
0.0230134
0.0224725
0.0220181
0.0216555
0.02141
0.0212665
0.0213328
0.0214764
0.0288456
0.0296112
0.0302399
0.0307073
0.0310455
0.0312419
0.0313265
0.0312911
0.0311824
0.0309775
0.0307215
0.0303792
0.0299928
0.0295315
0.0290339
0.0284666
0.0278714
0.0272258
0.026574
0.0258976
0.025242
0.0245996
0.0240123
0.0234752
0.0230243
0.0226638
0.0224191
0.0222735
0.0223337
0.02247
0.0292536
0.0300391
0.0307041
0.0312131
0.0315998
0.0318498
0.0319914
0.0320133
0.0319598
0.0318043
0.0315909
0.0312828
0.0309235
0.0304821
0.03
0.0294434
0.028857
0.0282178
0.0275723
0.0269007
0.0262501
0.0256118
0.0250287
0.0244948
0.0240468
0.0236876
0.0234429
0.0232947
0.0233486
0.0234791
0.0296711
0.0304776
0.0311805
0.0317329
0.0321693
0.0324735
0.0326723
0.0327512
0.0327525
0.0326462
0.0324756
0.0322021
0.0318704
0.0314497
0.0309834
0.030438
0.0298604
0.0292276
0.0285877
0.0279203
0.0272737
0.0266385
0.0260585
0.0255267
0.0250802
0.0247211
0.0244754
0.0243238
0.0243711
0.0244946
0.0300909
0.0309184
0.0316606
0.0322583
0.032746
0.0331056
0.0333622
0.0334985
0.033555
0.0334984
0.0333714
0.0331333
0.0328306
0.0324316
0.0319826
0.0314494
0.0308816
0.0302556
0.0296218
0.0289586
0.0283161
0.0276836
0.0271063
0.0265759
0.0261304
0.0257707
0.0255235
0.025368
0.0254085
0.0255264
0.0305188
0.0313691
0.0321521
0.032797
0.0333374
0.0337533
0.0340682
0.0342624
0.0343741
0.0343674
0.0342841
0.0340821
0.0338086
0.0334319
0.0330003
0.0324795
0.0319213
0.0313018
0.0306735
0.0300137
0.0293742
0.0287434
0.0281676
0.0276375
0.0271917
0.0268305
0.0265808
0.0264208
0.0264543
0.0265654
0.0309472
0.0318205
0.0326456
0.0333395
0.0339345
0.0344079
0.0347823
0.035035
0.0352028
0.0352468
0.0352083
0.0350433
0.0348003
0.0344471
0.0340343
0.0335267
0.032979
0.0323664
0.031744
0.0310877
0.0304512
0.0298217
0.0292471
0.0287167
0.0282703
0.0279069
0.0276543
0.0274894
0.0275159
0.0276216
0.0313825
0.0322808
0.0331494
0.0338943
0.0345451
0.0350773
0.0355119
0.0358238
0.0360481
0.0361433
0.03615
0.0360224
0.0358105
0.0354811
0.0350871
0.0345929
0.0340553
0.0334493
0.0328319
0.0321784
0.0315438
0.0309148
0.0303403
0.0298086
0.0293603
0.0289939
0.0287375
0.0285672
0.0285864
0.0286856
0.0318164
0.0327399
0.0336534
0.0344509
0.0351594
0.0357518
0.036248
0.0366201
0.0369022
0.0370496
0.0371027
0.0370138
0.0368342
0.0365297
0.0361559
0.0356759
0.0351494
0.0345505
0.0339387
0.0332879
0.0326554
0.0320264
0.0314518
0.0309184
0.030468
0.0300981
0.0298376
0.0296617
0.0296736
0.0297675
0.032256
0.0332069
0.0341667
0.0350187
0.0357862
0.0364401
0.0369988
0.0374321
0.0377726
0.0379728
0.038073
0.0380234
0.0378765
0.0375974
0.0372438
0.036778
0.0362622
0.03567
0.035063
0.0344142
0.0337827
0.033153
0.0325771
0.0320411
0.0315876
0.0312133
0.030948
0.030766
0.0307703
0.0308579
0.0326922
0.0336707
0.0346782
0.0355863
0.0364148
0.0371318
0.0377546
0.0382504
0.0386506
0.0389051
0.0390538
0.0390448
0.038932
0.0386796
0.0383474
0.0378968
0.0373927
0.0368076
0.0362059
0.0355593
0.034929
0.0342984
0.0337212
0.0331821
0.0327252
0.0323462
0.032076
0.0318876
0.0318844
0.0319669
0.033133
0.0341413
0.0351978
0.0361639
0.0370548
0.0378363
0.0385244
0.0390838
0.0395448
0.0398544
0.0400522
0.0400845
0.0400063
0.0397809
0.0394703
0.0390348
0.0385419
0.0379636
0.0373665
0.0367214
0.0360913
0.0354588
0.0348793
0.0343363
0.0338751
0.0334906
0.0332147
0.0330196
0.0330086
0.0330849
0.0335684
0.0346067
0.0357136
0.0367395
0.0376948
0.0385425
0.0392976
0.0399222
0.0404456
0.0408118
0.0410606
0.0411356
0.0410936
0.0408964
0.0406088
0.0401894
0.0397088
0.0391377
0.0385459
0.0379023
0.0372727
0.0366383
0.0360564
0.0355093
0.0350436
0.0346534
0.0343717
0.0341696
0.034151
0.0342223
0.034007
0.0350777
0.0362365
0.037324
0.0383452
0.0392607
0.0400842
0.0407754
0.0413623
0.0417863
0.0420867
0.0422053
0.0421999
0.0420315
0.0417667
0.0413634
0.0408946
0.0403305
0.039743
0.0391004
0.0384703
0.0378331
0.0372479
0.0366958
0.0362247
0.0358281
0.0355399
0.0353305
0.035304
0.0353692
0.0344381
0.0355412
0.0367534
0.0379044
0.0389937
0.039979
0.0408728
0.0416324
0.0422848
0.0427683
0.0431223
0.043286
0.043319
0.0431806
0.0429402
0.042554
0.0420981
0.0415413
0.040959
0.0403175
0.0396872
0.0390473
0.0384588
0.0379016
0.037425
0.0370218
0.036727
0.0365102
0.0364758
0.0365362
0.0348712
0.0360092
0.0372763
0.0384927
0.0396518
0.0407085
0.0416743
0.0425039
0.0432231
0.0437675
0.0441759
0.0443857
0.0444575
0.0443495
0.0441335
0.0437643
0.0433208
0.0427711
0.0421931
0.041552
0.0409206
0.0402771
0.0396843
0.0391212
0.0386384
0.0382279
0.0379259
0.0377013
0.0376588
0.0377132
0.0352946
0.0364674
0.0377912
0.039075
0.040306
0.0414364
0.0424764
0.0433781
0.0441664
0.0447734
0.0452385
0.045496
0.0456085
0.0455323
0.0453423
0.0449912
0.0445612
0.0440191
0.0434461
0.0428058
0.0421737
0.0415266
0.0409297
0.0403606
0.0398714
0.0394534
0.0391443
0.0389118
0.0388612
0.0389109
0.0357186
0.0369288
0.0383108
0.0396641
0.040969
0.042175
0.043291
0.0442666
0.0451254
0.0457967
0.0463194
0.0466256
0.0467793
0.0467355
0.0465713
0.0462382
0.0458212
0.0452864
0.0447176
0.0440773
0.0434434
0.042792
0.0421902
0.0416142
0.0411179
0.0406919
0.040375
0.0401341
0.0400753
0.040119
0.0361306
0.0373781
0.0388202
0.040245
0.0416263
0.0429102
0.0441047
0.0451566
0.0460884
0.0468262
0.0474088
0.0477656
0.0479624
0.0479524
0.0478157
0.0475017
0.0470989
0.0465719
0.0460082
0.0453682
0.0447331
0.0440775
0.0434708
0.042888
0.0423846
0.0419504
0.0416257
0.0413765
0.0413095
0.0413484
0.0365416
0.0378291
0.0393332
0.0408317
0.0422914
0.0436555
0.0449305
0.0460607
0.0470673
0.0478731
0.0485169
0.0489253
0.0491659
0.0491901
0.0490808
0.0487858
0.0483967
0.0478771
0.0473174
0.0466772
0.0460399
0.0453792
0.0447668
0.0441764
0.0436651
0.0432222
0.0428892
0.0426312
0.0425558
0.0425887
0.0369384
0.0382657
0.0398335
0.0414082
0.0429489
0.0443957
0.045754
0.0469651
0.0480493
0.0489256
0.0496329
0.050095
0.0503814
0.0504414
0.0503613
0.0500864
0.0497122
0.0492007
0.048646
0.0480058
0.0473668
0.0467013
0.0460835
0.0454855
0.0449664
0.0445146
0.0441733
0.0439065
0.0438226
0.0438509
0.0373326
0.0387025
0.0403363
0.0419894
0.0436133
0.0451453
0.0465891
0.0478835
0.0490471
0.0499958
0.050768
0.051285
0.0516176
0.051714
0.0516629
0.051408
0.0510481
0.0505442
0.0499937
0.0493528
0.0487111
0.0480401
0.0474159
0.0468096
0.046282
0.0458208
0.0454705
0.0451946
0.0451021
0.0451243
0.0377099
0.0391222
0.040824
0.0425581
0.0442681
0.045888
0.0474204
0.048801
0.0500471
0.0510707
0.0519105
0.0524845
0.0528657
0.053
0.0529798
0.0527461
0.0524019
0.0519063
0.0513608
0.0507196
0.0500759
0.0493994
0.0487693
0.0481548
0.0476188
0.0471481
0.046789
0.0465038
0.0464026
0.0464201
0.0380831
0.0395408
0.0413129
0.0431305
0.044929
0.0466394
0.048263
0.0497323
0.0510631
0.0521637
0.0530725
0.0537046
0.054135
0.0543078
0.0543183
0.0541057
0.0537765
0.0532887
0.0527473
0.0521051
0.0514584
0.0507758
0.0501388
0.0495154
0.0489703
0.0484896
0.048121
0.0478262
0.0477162
0.0477275
0.0384369
0.0399397
0.0417843
0.0436881
0.0455781
0.0473822
0.0491002
0.0506615
0.0520802
0.0532606
0.0542413
0.054934
0.0554159
0.0556289
0.055672
0.0554817
0.0551689
0.0546897
0.0541534
0.0535107
0.0528616
0.0521731
0.0515297
0.0508976
0.0503435
0.0498528
0.0494748
0.0491703
0.0490513
0.0490578
0.0387847
0.0403357
0.0422554
0.0442483
0.0462323
0.048133
0.0499482
0.0516042
0.0531133
0.0543758
0.0554299
0.0561844
0.0567185
0.0569722
0.0570477
0.0568797
0.0565826
0.0561114
0.0555792
0.0549353
0.0542829
0.0535878
0.052937
0.0522955
0.0517318
0.0512305
0.0508425
0.050528
0.0503998
0.0504
0.0391103
0.0407093
0.0427066
0.0447913
0.0468727
0.0488731
0.0507892
0.0525435
0.0541465
0.0554942
0.0566248
0.0574436
0.0580323
0.0583285
0.0584385
0.058294
0.0580141
0.0575517
0.0570247
0.0563801
0.055725
0.0550236
0.0543661
0.0537153
0.0531422
0.0526303
0.0522325
0.0519077
0.0517704
0.0517654
0.039428
0.0410783
0.0431558
0.0453354
0.047517
0.0496205
0.0516404
0.0534961
0.0551958
0.0566309
0.0578397
0.0587242
0.0593683
0.0597076
0.0598518
0.0597306
0.0594671
0.059013
0.0584902
0.0578441
0.0571854
0.0564771
0.0558119
0.0551513
0.054568
0.054045
0.0536368
0.0533014
0.0531545
0.0531432
0.0397205
0.0414217
0.0435821
0.0458598
0.0481451
0.0503552
0.052483
0.0544439
0.056244
0.05777
0.0590602
0.060013
0.0607151
0.0610993
0.0612799
0.0611834
0.060938
0.060493
0.0599754
0.0593284
0.0586669
0.057952
0.0572798
0.0566095
0.0560164
0.0554823
0.0550637
0.0547176
0.0545612
0.0545444
0.0400026
0.0417581
0.0440043
0.0463835
0.0487757
0.051096
0.0533352
0.0554048
0.0573082
0.0589277
0.0603011
0.0613237
0.0620844
0.0625142
0.0627308
0.0626588
0.0624307
0.0619943
0.0614809
0.0608322
0.0601669
0.0594448
0.0587646
0.0580841
0.0574805
0.0569348
0.0565053
0.0561481
0.0559818
0.0559583
0.040256
0.0420653
0.0444
0.0468842
0.0493874
0.0518221
0.054177
0.0563593
0.0583703
0.0600867
0.0615468
0.0626419
0.0634641
0.0639414
0.0641964
0.0641503
0.063941
0.0635141
0.0630061
0.0623564
0.0616881
0.0609592
0.0602719
0.0595814
0.0589677
0.0584104
0.05797
0.0576015
0.0574251
0.0573959
0.0404962
0.0423628
0.044789
0.0473819
0.0499999
0.0525531
0.0550277
0.0573266
0.0594482
0.0612644
0.062813
0.0639822
0.0648666
0.065392
0.065685
0.0656647
0.0654735
0.0650554
0.0645517
0.0639002
0.0632281
0.0624918
0.0617964
0.0610954
0.0604708
0.0599015
0.0594496
0.0590694
0.0588827
0.0588464
0.0407033
0.0426264
0.0451471
0.0478527
0.0505904
0.0532668
0.055866
0.058286
0.0605227
0.0624424
0.0640832
0.0653293
0.0662789
0.0668545
0.067188
0.0671949
0.0670235
0.0666152
0.066117
0.0654644
0.0647893
0.0640461
0.0633435
0.0626324
0.0619973
0.0614159
0.0609526
0.0605606
0.0603634
0.0603209
0.0408941
0.0428769
0.0454951
0.048318
0.0511798
0.0539843
0.0567124
0.0592577
0.0616129
0.063639
0.065374
0.0666988
0.0677142
0.0683407
0.0687142
0.0687481
0.0685957
0.0681966
0.0677029
0.0670485
0.0663694
0.0656188
0.0649081
0.0641864
0.0635402
0.0629462
0.0624709
0.0620665
0.0618584
0.0618084
0.0410479
0.0430878
0.0458075
0.0487523
0.0517439
0.0546818
0.0575444
0.0602198
0.0626981
0.0648347
0.0666677
0.0680742
0.0691587
0.0698382
0.0702542
0.0703168
0.0701852
0.0697963
0.0693083
0.0686528
0.0679709
0.0672135
0.0664956
0.0657636
0.0651067
0.0645002
0.0640129
0.063596
0.0633769
0.0633203
0.0411824
0.043282
0.0461064
0.0491783
0.052305
0.0553818
0.0583836
0.0611936
0.0637988
0.0660488
0.0679819
0.0694719
0.0706262
0.0713594
0.0718177
0.0719087
0.071797
0.0714178
0.0709344
0.0702771
0.0695915
0.0688267
0.0681009
0.0673582
0.0666899
0.0660704
0.0655704
0.0651404
0.0649099
0.0648451
0.0412755
0.0434329
0.0463652
0.0495696
0.0528378
0.0560594
0.0592063
0.0621561
0.0648929
0.0672605
0.0692979
0.0708745
0.072102
0.0728913
0.0733944
0.0735155
0.0734257
0.0730573
0.0725799
0.0719217
0.0712335
0.070462
0.0697293
0.0689763
0.0682971
0.0676646
0.067152
0.0667087
0.0664665
0.0663947
0.0413469
0.0435649
0.0466084
0.0499506
0.0533659
0.0567382
0.0600352
0.0631295
0.0660018
0.0684902
0.070634
0.0722991
0.0736006
0.0744468
0.0749945
0.0751456
0.0750768
0.0747185
0.0742462
0.0735864
0.0728948
0.0721162
0.0713758
0.070612
0.0699212
0.0692751
0.0687492
0.0682921
0.0680378
0.0679573
0.0413745
0.04365
0.0468086
0.0502942
0.0538632
0.0573922
0.0608456
0.0640896
0.0671024
0.069716
0.0719704
0.0737275
0.0751066
0.0760121
0.0766072
0.07679
0.0767445
0.0763976
0.0759318
0.0752713
0.0745777
0.0737927
0.0730456
0.0722716
0.0715697
0.0709101
0.0703708
0.0698996
0.069633
0.0695449
0.0413787
0.0437154
0.0469924
0.0506267
0.054355
0.0580465
0.0616613
0.0650598
0.0682169
0.070959
0.0733264
0.0751774
0.076635
0.0776008
0.078243
0.0784576
0.0784344
0.0780984
0.0776382
0.0769766
0.07628
0.0754884
0.0747339
0.0739492
0.0732355
0.0725617
0.0720083
0.0715223
0.0712429
0.0711456
0.0413374
0.043734
0.0471324
0.0509204
0.054814
0.0586739
0.0624561
0.0660145
0.0693211
0.0721961
0.074681
0.0766296
0.0781695
0.0791983
0.0798907
0.080139
0.0801404
0.0798168
0.0793638
0.0787022
0.0780042
0.0772067
0.076446
0.075651
0.074926
0.074238
0.0736706
0.0731695
0.0728771
0.0727716
0.0412729
0.0437339
0.047257
0.0512032
0.0552671
0.0593008
0.0632554
0.0669782
0.0704381
0.0734494
0.0760542
0.0781026
0.0797259
0.0808186
0.0815611
0.0818432
0.0818686
0.081557
0.0811105
0.0804484
0.0797482
0.0789445
0.0781769
0.0773712
0.0766341
0.0759313
0.075349
0.0748321
0.0745261
0.0744108
0.0411619
0.0436876
0.0473382
0.0514466
0.055686
0.0598988
0.0640315
0.0679239
0.0715423
0.0746945
0.0774239
0.079576
0.0812868
0.0824465
0.0832424
0.0835606
0.0836124
0.0833145
0.0828763
0.082215
0.0815143
0.0807053
0.0799319
0.0791161
0.0783674
0.0776498
0.0770525
0.0765195
0.0761996
0.0760752
0.0410277
0.0436243
0.0474054
0.0516797
0.0560986
0.0604955
0.0648106
0.0688772
0.0726578
0.0759543
0.078811
0.0810691
0.0828687
0.0840966
0.0849461
0.0853005
0.0853783
0.0850939
0.0846635
0.0840027
0.0833007
0.0824863
0.0817063
0.0808798
0.0801188
0.0793857
0.0787725
0.0782226
0.077888
0.0777527
0.0408463
0.0435152
0.0474295
0.0518728
0.0564756
0.061061
0.0655641
0.0698099
0.0737578
0.0772034
0.0801924
0.0825607
0.0844536
0.0857531
0.0866596
0.0870529
0.0871595
0.0868905
0.0864699
0.0858111
0.0851096
0.0842906
0.0835053
0.0826687
0.0818957
0.0811471
0.080518
0.0799509
0.0796013
0.0794554
0.040642
0.0433898
0.0474405
0.0520557
0.0568457
0.061624
0.0663191
0.0707481
0.0748672
0.0784654
0.0815894
0.0840706
0.0860582
0.0874307
0.0883948
0.0888275
0.0889627
0.0887092
0.088298
0.0876411
0.0869395
0.0861158
0.0853244
0.0844771
0.0836914
0.0829264
0.0822804
0.0816953
0.0813298
0.081172
0.0403892
0.0432175
0.0474075
0.0521971
0.0571781
0.0621533
0.0670454
0.0716626
0.0759579
0.0797137
0.082978
0.0855767
0.087664
0.0891133
0.0901389
0.0906139
0.0907807
0.0905449
0.0901457
0.0894923
0.0887924
0.0879648
0.0871686
0.0863112
0.0855132
0.0847317
0.0840687
0.0834654
0.0830837
0.0829147
0.0401125
0.043028
0.0473601
0.0523272
0.0575021
0.0626781
0.0677709
0.0725804
0.0770556
0.0809726
0.0843802
0.0870993
0.0892881
0.0908161
0.0919039
0.0924221
0.0926207
0.0924031
0.0920156
0.0913657
0.090667
0.0898355
0.0890336
0.0881655
0.0873542
0.0865555
0.0858745
0.0852519
0.0848534
0.0846718
0.0397854
0.0427888
0.0472658
0.0524131
0.0577854
0.0631661
0.0684645
0.0734709
0.0781313
0.0822146
0.0857713
0.0886159
0.0909114
0.0925223
0.0936768
0.0942415
0.0944753
0.0942784
0.0939053
0.0932609
0.0925651
0.0917307
0.0909244
0.090046
0.089222
0.0884059
0.0877067
0.0870646
0.0866491
0.0864556
0.0394327
0.0425295
0.0471546
0.0524851
0.0580579
0.0636469
0.0691545
0.0743617
0.079211
0.0834646
0.0871736
0.0901468
0.0925514
0.0942475
0.0954699
0.0960823
0.0963518
0.0961764
0.0958179
0.095179
0.0944859
0.0936483
0.0928368
0.0919475
0.0911098
0.0902753
0.089557
0.0888943
0.0884609
0.0882542
0.0390262
0.0422162
0.0469923
0.052509
0.0582859
0.0640872
0.0698086
0.0752216
0.0802651
0.0846944
0.0885618
0.0916692
0.0941887
0.0959747
0.0972697
0.0979336
0.0982428
0.0980917
0.0977508
0.0971195
0.0964309
0.0955912
0.0947756
0.0938759
0.0930248
0.092172
0.0914342
0.0907507
0.0902993
0.0900799
0.0385908
0.0418786
0.0468086
0.0525152
0.0584997
0.0645169
0.0704558
0.0760784
0.0813201
0.0859291
0.0899586
0.0932039
0.095841
0.0977196
0.099089
0.0998061
0.100156
0.10003
0.0997072
0.0990838
0.0983993
0.0975573
0.0967369
0.095826
0.0949607
0.0940885
0.0933301
0.0926246
0.0921543
0.0919208
0.0380972
0.0414814
0.0465683
0.0524684
0.0586646
0.0649019
0.0710631
0.0769002
0.0823457
0.0871403
0.0913384
0.0947276
0.0974886
0.099465
0.100914
0.101689
0.102083
0.101986
0.101684
0.101071
0.100393
0.0995492
0.0987251
0.0978036
0.0969244
0.0960327
0.0952534
0.0945257
0.0940362
0.0937892
0.0375705
0.0410546
0.0463018
0.0523994
0.0588111
0.0652724
0.0716596
0.0777154
0.0833688
0.0883534
0.0927241
0.0962613
0.0991493
0.101227
0.102758
0.103592
0.104032
0.103965
0.103686
0.103083
0.10241
0.101565
0.100737
0.0998038
0.0989097
0.0979976
0.0971961
0.0964451
0.0959353
0.0956731
0.0369803
0.0405622
0.0459727
0.0522722
0.0589039
0.0655936
0.0722118
0.0784914
0.0843588
0.0895395
0.0940901
0.0977816
0.100804
0.102988
0.104607
0.105504
0.105995
0.105962
0.105708
0.105119
0.104453
0.103607
0.102775
0.101832
0.100923
0.0999907
0.0991667
0.0983918
0.0978616
0.0975845
0.0363513
0.0400343
0.0456116
0.0521177
0.0589738
0.0658963
0.0727494
0.0792572
0.0853428
0.0907247
0.0954591
0.0993097
0.102469
0.104764
0.106473
0.107437
0.10798
0.107983
0.107755
0.107179
0.106521
0.105674
0.104838
0.103883
0.102959
0.102005
0.101157
0.100357
0.0998053
0.0995116
0.0356527
0.0394342
0.0451818
0.0518994
0.0589849
0.0661449
0.0732384
0.0799799
0.0862904
0.0918798
0.0968061
0.100822
0.104126
0.106538
0.108343
0.109379
0.109978
0.110021
0.109824
0.109264
0.108614
0.107768
0.106929
0.105963
0.105024
0.104048
0.103176
0.10235
0.101776
0.101466
0.0349094
0.0387922
0.0447142
0.0516486
0.0589685
0.0663707
0.0737089
0.0806887
0.0872287
0.0930311
0.0981535
0.10234
0.105793
0.108325
0.11023
0.111341
0.111998
0.112082
0.111918
0.111374
0.110732
0.109886
0.109044
0.108067
0.107111
0.106112
0.105215
0.104362
0.103764
0.103435
0.0340898
0.0380716
0.0441722
0.0513288
0.0588885
0.0665381
0.0741266
0.0813509
0.0881275
0.0941498
0.0994766
0.103841
0.10745
0.11011
0.112121
0.113311
0.114032
0.114161
0.114033
0.113509
0.112877
0.112031
0.111187
0.110198
0.109227
0.108205
0.107281
0.1064
0.105778
0.105431
0.0332189
0.0373025
0.0435863
0.0509714
0.0587764
0.0666784
0.0745221
0.081996
0.089014
0.095262
0.100798
0.105345
0.109114
0.111906
0.114027
0.115299
0.116086
0.116262
0.116172
0.115669
0.115046
0.114201
0.113353
0.112354
0.111365
0.110319
0.109367
0.108457
0.107809
0.107441
0.0322642
0.0364486
0.0429204
0.05054
0.0585961
0.0667562
0.0748613
0.0825913
0.0898587
0.0963397
0.102093
0.106831
0.110767
0.113697
0.115935
0.117296
0.118153
0.118381
0.118332
0.117853
0.11724
0.116396
0.115547
0.114536
0.11353
0.112459
0.111479
0.110539
0.109864
0.109474
0.031252
0.0355402
0.0422058
0.0500662
0.0583793
0.0668029
0.0751747
0.0831665
0.0906885
0.0974086
0.103385
0.108318
0.112426
0.115499
0.117858
0.119311
0.120239
0.12052
0.120516
0.12006
0.119458
0.118615
0.117764
0.116742
0.115717
0.11462
0.113609
0.112638
0.111935
0.111521
0.0301517
0.034542
0.0414066
0.049514
0.0580904
0.0667836
0.0754289
0.0836895
0.0914744
0.0984415
0.104649
0.109784
0.114072
0.117295
0.119783
0.121333
0.122337
0.122675
0.122718
0.12229
0.121699
0.120858
0.120006
0.118972
0.117928
0.116804
0.115762
0.11476
0.114027
0.113589
0.0289897
0.0334855
0.0405546
0.0489155
0.0577611
0.0667297
0.0756542
0.0841899
0.0922434
0.0994637
0.105908
0.111251
0.115722
0.119099
0.121719
0.123371
0.124453
0.12485
0.124941
0.12454
0.123961
0.123122
0.122269
0.121223
0.120158
0.119006
0.117933
0.116898
0.116136
0.115672
0.0277367
0.0323365
0.0396148
0.0482352
0.0573563
0.0666068
0.0758178
0.0846362
0.0929673
0.100449
0.107139
0.112697
0.117359
0.120897
0.123657
0.125415
0.126579
0.127037
0.127179
0.126808
0.126242
0.125406
0.124552
0.123493
0.122407
0.121229
0.120124
0.119058
0.118266
0.117778
0.0264206
0.0311272
0.0386198
0.0475053
0.0569078
0.0664461
0.07595
0.085058
0.0936724
0.101422
0.108363
0.114141
0.118997
0.1227
0.125604
0.127472
0.12872
0.129239
0.129432
0.129092
0.12854
0.127708
0.126852
0.12578
0.124673
0.123468
0.122333
0.121237
0.120416
0.119902
0.0250151
0.0298256
0.0375358
0.0466915
0.0563813
0.0662143
0.0760186
0.0854244
0.094332
0.102358
0.10956
0.115565
0.120621
0.124495
0.127549
0.129533
0.130867
0.131451
0.131695
0.131388
0.130851
0.130025
0.129166
0.128083
0.126954
0.125726
0.124562
0.123439
0.122591
0.122054
0.0235475
0.0284646
0.0363955
0.045826
0.0558086
0.0659423
0.0760539
0.0857646
0.0949715
0.103281
0.110748
0.116986
0.122245
0.126292
0.1295
0.131602
0.133025
0.133672
0.133966
0.133693
0.133172
0.132354
0.131493
0.130399
0.12925
0.128001
0.12681
0.125663
0.12479
0.124231
0.0219941
0.0270128
0.0351659
0.0448752
0.0551565
0.0655978
0.0760245
0.0860491
0.0955657
0.104166
0.111909
0.118385
0.123853
0.128078
0.131445
0.133669
0.135184
0.135897
0.13624
0.136004
0.135502
0.134694
0.13383
0.132728
0.131562
0.130296
0.129083
0.127915
0.12702
0.126443
0.0203811
0.0255025
0.0338794
0.043871
0.0544561
0.0652111
0.0759602
0.0863063
0.0961386
0.105037
0.113059
0.119779
0.125457
0.129862
0.133387
0.135737
0.137346
0.138126
0.138518
0.138321
0.13784
0.137045
0.136181
0.135072
0.13389
0.132612
0.131381
0.130195
0.129281
0.128687
0.018685
0.0239033
0.0325038
0.0427809
0.0536753
0.0647513
0.075831
0.0865077
0.0966667
0.105871
0.114181
0.12115
0.127043
0.131632
0.135317
0.137797
0.139502
0.140353
0.140795
0.140643
0.140186
0.13941
0.138545
0.137433
0.13624
0.134954
0.133709
0.132511
0.131579
0.130973
0.0169302
0.0222457
0.0310692
0.0416345
0.0528437
0.0642474
0.0756654
0.0866809
0.0971723
0.106688
0.115288
0.12251
0.128621
0.133392
0.137235
0.139847
0.141653
0.142579
0.143076
0.142972
0.142545
0.14179
0.140927
0.139815
0.138614
0.137323
0.136068
0.13486
0.133914
0.133296
0.0150936
0.020499
0.0295437
0.0404002
0.0519303
0.0636698
0.0754348
0.0867984
0.097633
0.107467
0.116365
0.123843
0.130176
0.135133
0.139134
0.141883
0.143792
0.144802
0.145356
0.14531
0.144918
0.14419
0.143331
0.142223
0.141018
0.139726
0.138465
0.137249
0.13629
0.135661
0.0131972
0.0186906
0.0279546
0.0391045
0.0509622
0.063045
0.0751655
0.0868854
0.0980684
0.108224
0.11742
0.125158
0.131714
0.136857
0.141017
0.143907
0.145926
0.147026
0.147646
0.147663
0.147312
0.146616
0.145765
0.144662
0.143455
0.142163
0.140898
0.139675
0.138705
0.138066
0.0112167
0.0167907
0.02627
0.0377162
0.0499092
0.0623446
0.07483
0.0869156
0.0984573
0.108941
0.118436
0.12644
0.133223
0.138557
0.142876
0.145915
0.148052
0.149253
0.149946
0.150036
0.149731
0.149072
0.148231
0.147138
0.14593
0.144641
0.143372
0.142144
0.141162
0.140513
0.0091717
0.0148239
0.024515
0.0362587
0.0487946
0.0615917
0.074451
0.0869104
0.0988151
0.10963
0.119422
0.127693
0.134705
0.140235
0.14472
0.147915
0.150178
0.15149
0.152267
0.152434
0.152184
0.151564
0.150736
0.149654
0.148447
0.147159
0.145887
0.144652
0.143658
0.142997
0.00703889
0.0127612
0.0226602
0.0347031
0.0475893
0.0607584
0.0740018
0.0868444
0.0991214
0.110271
0.120364
0.128907
0.136154
0.141889
0.146544
0.149908
0.152305
0.153742
0.154609
0.154863
0.154671
0.154094
0.153282
0.152213
0.151007
0.149721
0.148444
0.147202
0.146195
0.145521
0.00483503
0.0106256
0.0207294
0.0330711
0.0463142
0.0598648
0.073501
0.0867351
0.099388
0.110876
0.121269
0.130088
0.137574
0.143525
0.148362
0.151904
0.154447
0.156018
0.156986
0.157329
0.157199
0.156667
0.155874
0.154816
0.153612
0.152324
0.151042
0.149791
0.14877
0.148081
0.0025382
0.00839126
0.0186961
0.0313366
0.0449415
0.0588836
0.0729215
0.0865579
0.0995935
0.111429
0.122126
0.131231
0.138965
0.145144
0.150175
0.153908
0.156607
0.158322
0.159396
0.159832
0.159768
0.159283
0.158508
0.157463
0.156261
0.154971
0.153682
0.15242
0.151383
0.150678
0.000163572
0.0060802
0.0165845
0.0295222
0.043493
0.0578339
0.072282
0.0863277
0.0997511
0.111939
0.122947
0.132344
0.140337
0.146757
0.151997
0.155932
0.158797
0.160663
0.161849
0.162378
0.162381
0.161941
0.161188
0.160155
0.158952
0.157659
0.156361
0.155086
0.154033
0.15331
-0.00230769
0.0036692
0.014373
0.027607
0.041945
0.0566917
0.071558
0.0860237
0.0998424
0.112396
0.123724
0.13343
0.141691
0.148371
0.153831
0.157978
0.161019
0.163041
0.164341
0.164965
0.165034
0.16464
0.163908
0.162887
0.161685
0.160388
0.15908
0.157791
0.156719
0.155977
-0.00486198
0.00118035
0.0120867
0.0256154
0.0403218
0.0554793
0.0707708
0.0856635
0.0998846
0.112813
0.124474