/*--------------------------------*- C++ -*----------------------------------*\
  =========                 |
  \\      /  F ield         | OpenFOAM: The Open Source CFD Toolbox
   \\    /   O peration     | Website:  https://openfoam.org
    \\  /    A nd           | Version:  6.0
     \\/     M anipulation  |
\*---------------------------------------------------------------------------*/
FoamFile
{
    version     2.0;
    format      ascii;
    class       volScalarField;
    location    "8";
    object      p;
}
// * * * * * * * * * * * * * * * * * * * * * * * * * * * * * * * * * * * * * //

dimensions      [0 2 -2 0 0 0 0];

internalField   nonuniform List<scalar> 
14500
(
0.070369
0.070234
0.069831
0.069297
0.068644
0.068067
0.067865
0.068005
0.070334
0.072948
0.093412
0.12505
0.070369
0.070234
0.069831
0.069297
0.068644
0.068067
0.067865
0.068004
0.070333
0.072969
0.09287
0.12186
0.070369
0.070235
0.069831
0.069297
0.068644
0.068066
0.067864
0.068
0.070329
0.072973
0.092105
0.11852
0.07037
0.070236
0.069832
0.069298
0.068644
0.068065
0.067863
0.067994
0.07032
0.072955
0.091236
0.1156
0.070371
0.070237
0.069832
0.069299
0.068644
0.068064
0.06786
0.067987
0.070307
0.072923
0.090315
0.11307
0.070372
0.070238
0.069833
0.069299
0.068644
0.068063
0.067857
0.067979
0.070288
0.072878
0.089373
0.11079
0.070374
0.07024
0.069834
0.0693
0.068644
0.068061
0.067853
0.067969
0.070265
0.072817
0.088436
0.10866
0.070375
0.070241
0.069836
0.069301
0.068643
0.068059
0.067849
0.067959
0.070237
0.07274
0.087524
0.10665
0.070377
0.070243
0.069837
0.069302
0.068643
0.068057
0.067843
0.067947
0.070204
0.072647
0.086649
0.10476
0.070379
0.070245
0.069838
0.069303
0.068643
0.068055
0.067837
0.067935
0.070166
0.07254
0.085819
0.10299
0.070381
0.070248
0.06984
0.069304
0.068642
0.068052
0.06783
0.067921
0.070122
0.072418
0.085037
0.10132
0.070384
0.07025
0.069842
0.069305
0.068641
0.068049
0.067823
0.067906
0.070072
0.072285
0.084303
0.099757
0.070387
0.070253
0.069844
0.069307
0.068641
0.068046
0.067814
0.06789
0.070017
0.072142
0.083613
0.098287
0.07039
0.070256
0.069846
0.069308
0.06864
0.068043
0.067805
0.067872
0.069955
0.071992
0.082964
0.096902
0.070393
0.070259
0.069848
0.06931
0.068639
0.068039
0.067795
0.067854
0.069887
0.071837
0.082351
0.095596
0.070396
0.070262
0.06985
0.069311
0.068638
0.068035
0.067784
0.067834
0.069812
0.071678
0.081769
0.094361
0.0704
0.070266
0.069853
0.069313
0.068637
0.068031
0.067773
0.067812
0.069732
0.071518
0.081213
0.093188
0.070404
0.07027
0.069856
0.069314
0.068635
0.068026
0.06776
0.06779
0.069645
0.071358
0.080678
0.092071
0.070408
0.070274
0.069859
0.069316
0.068634
0.068022
0.067747
0.067765
0.069552
0.0712
0.08016
0.091004
0.070413
0.070278
0.069862
0.069318
0.068633
0.068017
0.067733
0.06774
0.069454
0.071044
0.079655
0.08998
0.070418
0.070283
0.069865
0.06932
0.068631
0.068012
0.067719
0.067713
0.06935
0.070891
0.07916
0.088994
0.070423
0.070287
0.069868
0.069322
0.06863
0.068006
0.067703
0.067684
0.069242
0.070742
0.078672
0.088042
0.070428
0.070292
0.069872
0.069324
0.068628
0.068
0.067687
0.067653
0.069129
0.070596
0.07819
0.08712
0.070433
0.070298
0.069876
0.069327
0.068626
0.067994
0.06767
0.067621
0.069012
0.070455
0.077711
0.086224
0.070439
0.070303
0.06988
0.069329
0.068625
0.067988
0.067652
0.067586
0.068891
0.070317
0.077234
0.085352
0.070445
0.070309
0.069884
0.069332
0.068623
0.067982
0.067634
0.06755
0.068767
0.070183
0.076759
0.084501
0.070452
0.070315
0.069888
0.069334
0.068621
0.067975
0.067615
0.067512
0.068641
0.070051
0.076284
0.083669
0.070458
0.070321
0.069893
0.069337
0.068619
0.067968
0.067595
0.067472
0.068513
0.069923
0.07581
0.082854
0.070465
0.070328
0.069898
0.06934
0.068617
0.067961
0.067574
0.06743
0.068383
0.069796
0.075336
0.082056
0.070473
0.070335
0.069903
0.069343
0.068615
0.067954
0.067552
0.067385
0.068252
0.069672
0.074862
0.081274
0.07048
0.070342
0.069908
0.069346
0.068612
0.067946
0.06753
0.067339
0.068121
0.069548
0.074388
0.080505
0.070488
0.07035
0.069913
0.06935
0.06861
0.067938
0.067506
0.067291
0.06799
0.069425
0.073915
0.079751
0.070496
0.070357
0.069919
0.069353
0.068608
0.06793
0.067482
0.06724
0.067858
0.069303
0.073443
0.07901
0.070505
0.070365
0.069925
0.069357
0.068605
0.067922
0.067457
0.067188
0.067728
0.06918
0.072972
0.078281
0.070513
0.070374
0.069931
0.06936
0.068603
0.067913
0.067431
0.067133
0.067598
0.069057
0.072503
0.077566
0.070523
0.070382
0.069937
0.069364
0.0686
0.067904
0.067404
0.067077
0.067469
0.068932
0.072036
0.076863
0.070532
0.070391
0.069944
0.069368
0.068597
0.067895
0.067376
0.067019
0.067342
0.068807
0.071572
0.076173
0.070542
0.070401
0.069951
0.069372
0.068595
0.067886
0.067348
0.06696
0.067216
0.068679
0.071111
0.075495
0.070552
0.07041
0.069958
0.069377
0.068592
0.067877
0.067318
0.066899
0.067092
0.06855
0.070653
0.074829
0.070562
0.07042
0.069965
0.069381
0.068589
0.067867
0.067287
0.066836
0.066969
0.068419
0.0702
0.074175
0.070573
0.07043
0.069972
0.069386
0.068587
0.067857
0.067255
0.066773
0.066848
0.068286
0.069751
0.073534
0.070584
0.070441
0.06998
0.069391
0.068584
0.067847
0.067223
0.066708
0.066729
0.06815
0.069306
0.072904
0.070596
0.070452
0.069988
0.069396
0.068581
0.067837
0.067189
0.066642
0.066611
0.068013
0.068867
0.072287
0.070608
0.070463
0.069996
0.069401
0.068578
0.067827
0.067154
0.066576
0.066494
0.067872
0.068433
0.071681
0.07062
0.070475
0.070005
0.069407
0.068575
0.067816
0.067118
0.066509
0.066379
0.06773
0.068005
0.071087
0.070633
0.070487
0.070014
0.069412
0.068572
0.067805
0.06708
0.066442
0.066266
0.067585
0.067582
0.070505
0.070646
0.070499
0.070023
0.069418
0.068569
0.067794
0.067042
0.066374
0.066153
0.067438
0.067166
0.069934
0.070659
0.070512
0.070033
0.069424
0.068566
0.067783
0.067003
0.066306
0.066041
0.067289
0.066756
0.069375
0.070673
0.070525
0.070042
0.06943
0.068564
0.067772
0.066962
0.066239
0.06593
0.067137
0.066352
0.068827
0.070687
0.070539
0.070052
0.069437
0.068561
0.06776
0.06692
0.066172
0.065819
0.066984
0.065954
0.06829
0.070702
0.070553
0.070063
0.069444
0.068558
0.067749
0.066877
0.066105
0.065709
0.066829
0.065563
0.067764
0.070717
0.070567
0.070073
0.069451
0.068555
0.067737
0.066833
0.066039
0.065599
0.066671
0.065178
0.067248
0.070733
0.070582
0.070084
0.069458
0.068552
0.067725
0.066788
0.065973
0.065489
0.066513
0.0648
0.066743
0.070748
0.070597
0.070096
0.069465
0.068549
0.067713
0.066742
0.065909
0.065378
0.066352
0.064428
0.066248
0.070765
0.070613
0.070107
0.069473
0.068547
0.0677
0.066695
0.065845
0.065267
0.06619
0.064062
0.065763
0.070782
0.070629
0.07012
0.069481
0.068544
0.067688
0.066647
0.065782
0.065155
0.066027
0.063703
0.065288
0.070799
0.070645
0.070132
0.069489
0.068541
0.067675
0.066598
0.06572
0.065043
0.065863
0.06335
0.064821
0.070817
0.070662
0.070145
0.069498
0.068539
0.067662
0.066548
0.06566
0.06493
0.065697
0.063003
0.064364
0.070835
0.07068
0.070158
0.069507
0.068537
0.067649
0.066497
0.0656
0.064816
0.06553
0.062661
0.063916
0.070854
0.070697
0.070171
0.069516
0.068534
0.067635
0.066446
0.065541
0.0647
0.065362
0.062326
0.063476
0.070873
0.070716
0.070185
0.069525
0.068532
0.067622
0.066394
0.065484
0.064584
0.065194
0.061996
0.063045
0.070893
0.070735
0.0702
0.069535
0.06853
0.067608
0.066341
0.065428
0.064466
0.065024
0.061672
0.062621
0.070913
0.070754
0.070214
0.069545
0.068528
0.067594
0.066287
0.065372
0.064347
0.064854
0.061352
0.062205
0.070934
0.070774
0.07023
0.069556
0.068526
0.06758
0.066234
0.065318
0.064227
0.064683
0.061038
0.061796
0.070955
0.070794
0.070245
0.069567
0.068524
0.067566
0.066179
0.065265
0.064106
0.064511
0.060729
0.061394
0.070977
0.070815
0.070261
0.069578
0.068523
0.067551
0.066125
0.065212
0.063983
0.064338
0.060425
0.060999
0.071
0.070837
0.070278
0.069589
0.068521
0.067536
0.06607
0.065161
0.063859
0.064165
0.060126
0.060611
0.071023
0.070859
0.070295
0.069601
0.06852
0.067521
0.066015
0.06511
0.063734
0.063992
0.05983
0.060228
0.071047
0.070882
0.070312
0.069613
0.068519
0.067506
0.06596
0.065059
0.063608
0.063818
0.059539
0.059852
0.071071
0.070905
0.07033
0.069626
0.068518
0.067491
0.065905
0.065009
0.06348
0.063643
0.059253
0.059481
0.071096
0.070929
0.070349
0.069639
0.068518
0.067475
0.065851
0.06496
0.063352
0.063468
0.05897
0.059116
0.071121
0.070953
0.070367
0.069653
0.068517
0.06746
0.065796
0.064911
0.063223
0.063293
0.058691
0.058755
0.071147
0.070978
0.070387
0.069667
0.068517
0.067444
0.065742
0.064862
0.063092
0.063117
0.058416
0.0584
0.071174
0.071004
0.070407
0.069681
0.068517
0.067428
0.065688
0.064813
0.062962
0.062941
0.058144
0.05805
0.071201
0.07103
0.070427
0.069696
0.068517
0.067411
0.065634
0.064764
0.06283
0.062765
0.057876
0.057704
0.071229
0.071057
0.070449
0.069711
0.068518
0.067395
0.065581
0.064715
0.062698
0.062588
0.057611
0.057362
0.071258
0.071085
0.07047
0.069727
0.068518
0.067379
0.065529
0.064666
0.062565
0.062412
0.057349
0.057025
0.071288
0.071113
0.070492
0.069743
0.068519
0.067362
0.065477
0.064616
0.062432
0.062235
0.05709
0.056691
0.071318
0.071142
0.070515
0.06976
0.068521
0.067346
0.065426
0.064566
0.062298
0.062058
0.056835
0.056362
0.071349
0.071172
0.070539
0.069777
0.068522
0.067329
0.065376
0.064516
0.062165
0.061881
0.056582
0.056036
0.07138
0.071203
0.070563
0.069795
0.068524
0.067313
0.065326
0.064465
0.062031
0.061704
0.056332
0.055714
0.071413
0.071234
0.070588
0.069814
0.068527
0.067297
0.065278
0.064413
0.061897
0.061527
0.056085
0.055395
0.071446
0.071266
0.070613
0.069833
0.068529
0.06728
0.06523
0.064361
0.061763
0.06135
0.05584
0.05508
0.07148
0.071299
0.070639
0.069853
0.068532
0.067264
0.065183
0.064308
0.061629
0.061174
0.055598
0.054767
0.071515
0.071332
0.070666
0.069873
0.068535
0.067248
0.065137
0.064254
0.061495
0.060997
0.055358
0.054458
0.07155
0.071367
0.070694
0.069894
0.068539
0.067233
0.065092
0.0642
0.061362
0.060821
0.055121
0.054152
0.071587
0.071402
0.070722
0.069915
0.068542
0.067217
0.065048
0.064144
0.061229
0.060645
0.054886
0.053849
0.071624
0.071438
0.070751
0.069938
0.068547
0.067202
0.065004
0.064088
0.061096
0.060469
0.054654
0.053549
0.071662
0.071475
0.070781
0.069961
0.068551
0.067188
0.064962
0.064031
0.060963
0.060293
0.054424
0.053252
0.071702
0.071513
0.070811
0.069984
0.068556
0.067174
0.06492
0.063973
0.060831
0.060118
0.054196
0.052957
0.071742
0.071552
0.070843
0.070009
0.068562
0.06716
0.06488
0.063915
0.060699
0.059943
0.05397
0.052666
0.071783
0.071592
0.070875
0.070034
0.068568
0.067147
0.06484
0.063855
0.060568
0.059769
0.053747
0.052377
0.071825
0.071633
0.070908
0.07006
0.068574
0.067135
0.064801
0.063795
0.060438
0.059595
0.053526
0.05209
0.071868
0.071675
0.070942
0.070086
0.06858
0.067123
0.064763
0.063734
0.060308
0.059422
0.053307
0.051806
0.071912
0.071717
0.070977
0.070114
0.068588
0.067112
0.064725
0.063673
0.060178
0.059249
0.05309
0.051525
0.071957
0.071761
0.071013
0.070142
0.068595
0.067102
0.064689
0.063611
0.06005
0.059076
0.052876
0.051246
0.072003
0.071806
0.07105
0.070172
0.068603
0.067093
0.064653
0.063548
0.059922
0.058905
0.052663
0.05097
0.07205
0.071852
0.071088
0.070202
0.068612
0.067085
0.064617
0.063484
0.059794
0.058733
0.052452
0.050697
0.072099
0.071899
0.071126
0.070233
0.068621
0.067078
0.064582
0.063421
0.059668
0.058563
0.052244
0.050426
0.072148
0.071947
0.071166
0.070265
0.068631
0.067072
0.064548
0.063356
0.059542
0.058393
0.052038
0.050157
0.072199
0.071997
0.071207
0.070298
0.068641
0.067067
0.064515
0.063292
0.059417
0.058224
0.051833
0.049891
0.07225
0.072047
0.071249
0.070332
0.068652
0.067063
0.064481
0.063227
0.059292
0.058055
0.051631
0.049627
0.072304
0.072099
0.071292
0.070367
0.068663
0.06706
0.064449
0.063162
0.059169
0.057887
0.05143
0.049365
0.072358
0.072152
0.071336
0.070403
0.068675
0.067059
0.064417
0.063097
0.059046
0.05772
0.051232
0.049106
0.072413
0.072207
0.071382
0.07044
0.068688
0.067059
0.064385
0.063031
0.058924
0.057554
0.051035
0.04885
0.07247
0.072262
0.071428
0.070478
0.068702
0.067061
0.064353
0.062966
0.058803
0.057388
0.050841
0.048595
0.072529
0.072319
0.071476
0.070518
0.068716
0.067063
0.064322
0.0629
0.058683
0.057223
0.050648
0.048343
0.072588
0.072378
0.071525
0.070558
0.068731
0.067068
0.064292
0.062835
0.058564
0.057059
0.050457
0.048093
0.072649
0.072438
0.071576
0.0706
0.068747
0.067073
0.064262
0.06277
0.058445
0.056895
0.050268
0.047845
0.072712
0.072499
0.071627
0.070643
0.068764
0.067081
0.064232
0.062704
0.058328
0.056733
0.050081
0.0476
0.072776
0.072562
0.071681
0.070687
0.068781
0.067089
0.064202
0.06264
0.058211
0.05657
0.049896
0.047357
0.072842
0.072626
0.071735
0.070733
0.0688
0.0671
0.064173
0.062575
0.058095
0.056409
0.049712
0.047115
0.072909
0.072692
0.071791
0.07078
0.06882
0.067111
0.064144
0.062511
0.057981
0.056248
0.04953
0.046876
0.072977
0.072759
0.071849
0.070828
0.06884
0.067125
0.064116
0.062447
0.057867
0.056088
0.04935
0.046639
0.073048
0.072829
0.071908
0.070877
0.068862
0.06714
0.064088
0.062383
0.057754
0.055929
0.049171
0.046404
0.07312
0.072899
0.071969
0.070929
0.068885
0.067156
0.064061
0.06232
0.057642
0.055771
0.048994
0.04617
0.073194
0.072972
0.072031
0.070981
0.068909
0.067174
0.064034
0.062257
0.057531
0.055613
0.048819
0.045939
0.073269
0.073046
0.072095
0.071035
0.068935
0.067194
0.064008
0.062195
0.057421
0.055456
0.048645
0.045709
0.073347
0.073122
0.072161
0.071091
0.068962
0.067215
0.063983
0.062133
0.057312
0.055299
0.048472
0.045481
0.073426
0.073201
0.072228
0.071148
0.06899
0.067238
0.063958
0.062072
0.057205
0.055143
0.048301
0.045255
0.073507
0.07328
0.072298
0.071207
0.06902
0.067262
0.063934
0.062012
0.057098
0.054988
0.048132
0.04503
0.07359
0.073362
0.072369
0.071267
0.069051
0.067288
0.063911
0.061952
0.056992
0.054833
0.047963
0.044807
0.073675
0.073446
0.072442
0.071329
0.069084
0.067315
0.063888
0.061893
0.056887
0.054679
0.047796
0.044585
0.073763
0.073532
0.072517
0.071393
0.069119
0.067344
0.063867
0.061835
0.056784
0.054525
0.04763
0.044364
0.073852
0.073621
0.072595
0.071459
0.069156
0.067374
0.063846
0.061777
0.056681
0.054372
0.047466
0.044145
0.073944
0.073711
0.072674
0.071527
0.069194
0.067406
0.063827
0.06172
0.05658
0.05422
0.047302
0.043927
0.074037
0.073804
0.072756
0.071597
0.069234
0.06744
0.063809
0.061664
0.056479
0.054068
0.047139
0.04371
0.074134
0.073899
0.07284
0.071668
0.069276
0.067474
0.063792
0.061609
0.05638
0.053917
0.046978
0.043494
0.074232
0.073996
0.072926
0.071742
0.069321
0.067511
0.063776
0.061555
0.056282
0.053766
0.046817
0.04328
0.074333
0.074096
0.073014
0.071818
0.069367
0.067549
0.063762
0.061501
0.056185
0.053615
0.046657
0.043066
0.074437
0.074198
0.073105
0.071896
0.069416
0.067588
0.063749
0.061449
0.056089
0.053465
0.046497
0.042852
0.074543
0.074303
0.073199
0.071976
0.069467
0.067628
0.063738
0.061397
0.055994
0.053316
0.046339
0.04264
0.074651
0.074411
0.073295
0.072059
0.06952
0.067671
0.063728
0.061347
0.0559
0.053167
0.046181
0.042428
0.074763
0.074521
0.073394
0.072144
0.069576
0.067714
0.06372
0.061297
0.055808
0.053018
0.046024
0.042216
0.074877
0.074634
0.073495
0.072231
0.069634
0.067759
0.063713
0.061249
0.055716
0.05287
0.045867
0.042005
0.074994
0.07475
0.0736
0.072321
0.069695
0.067806
0.063709
0.061202
0.055626
0.052722
0.04571
0.041794
0.075114
0.07487
0.073707
0.072414
0.069759
0.067854
0.063706
0.061156
0.055537
0.052574
0.045554
0.041583
0.075238
0.074992
0.073817
0.07251
0.069825
0.067904
0.063705
0.061111
0.055449
0.052427
0.045398
0.041372
0.075364
0.075117
0.073931
0.072608
0.069895
0.067955
0.063706
0.061067
0.055362
0.05228
0.045243
0.041161
0.075494
0.075246
0.074047
0.072709
0.069967
0.068008
0.063709
0.061025
0.055277
0.052134
0.045087
0.04095
0.075627
0.075378
0.074167
0.072814
0.070042
0.068063
0.063714
0.060984
0.055192
0.051988
0.044932
0.040739
0.075763
0.075513
0.07429
0.072921
0.07012
0.068119
0.063721
0.060944
0.055109
0.051842
0.044776
0.040528
0.075903
0.075652
0.074417
0.073032
0.070202
0.068177
0.063731
0.060906
0.055027
0.051696
0.04462
0.040315
0.076046
0.075795
0.074547
0.073146
0.070286
0.068237
0.063742
0.060869
0.054947
0.051551
0.044465
0.040103
0.076194
0.075941
0.074681
0.073264
0.070374
0.068299
0.063756
0.060834
0.054867
0.051406
0.044309
0.039889
0.076345
0.076091
0.074819
0.073385
0.070466
0.068362
0.063772
0.0608
0.054789
0.051261
0.044152
0.039675
0.0765
0.076246
0.074961
0.07351
0.070561
0.068428
0.063791
0.060768
0.054712
0.051117
0.043996
0.03946
0.076659
0.076404
0.075107
0.073639
0.070659
0.068497
0.063812
0.060737
0.054636
0.050973
0.043838
0.039244
0.076823
0.076567
0.075257
0.073772
0.070761
0.068567
0.063835
0.060708
0.054562
0.050829
0.043681
0.039027
0.076991
0.076734
0.075411
0.073909
0.070867
0.06864
0.063861
0.06068
0.054488
0.050685
0.043522
0.038808
0.077163
0.076906
0.07557
0.07405
0.070977
0.068715
0.063889
0.060655
0.054416
0.050541
0.043363
0.038589
0.07734
0.077083
0.075734
0.074196
0.071091
0.068793
0.06392
0.060631
0.054346
0.050398
0.043203
0.038367
0.077522
0.077264
0.075902
0.074347
0.071209
0.068873
0.063954
0.060608
0.054276
0.050254
0.043043
0.038145
0.077709
0.07745
0.076075
0.074503
0.071331
0.068957
0.06399
0.060588
0.054208
0.050111
0.042881
0.03792
0.077901
0.077642
0.076253
0.074663
0.071458
0.069043
0.06403
0.060569
0.054141
0.049968
0.042719
0.037694
0.078099
0.077839
0.076436
0.074829
0.071588
0.069133
0.064072
0.060552
0.054075
0.049825
0.042555
0.037465
0.078301
0.078042
0.076625
0.075
0.071724
0.069226
0.064117
0.060536
0.05401
0.049682
0.04239
0.037235
0.07851
0.07825
0.07682
0.075177
0.071864
0.069322
0.064164
0.060523
0.053947
0.049539
0.042224
0.037003
0.078724
0.078464
0.07702
0.075359
0.072009
0.069422
0.064215
0.060512
0.053885
0.049396
0.042057
0.036768
0.078945
0.078684
0.077226
0.075547
0.07216
0.069526
0.064269
0.060502
0.053824
0.049253
0.041888
0.036531
0.079171
0.078911
0.077438
0.075742
0.072315
0.069634
0.064327
0.060494
0.053764
0.049109
0.041717
0.036291
0.079404
0.079144
0.077657
0.075943
0.072476
0.069746
0.064387
0.060489
0.053705
0.048966
0.041545
0.036049
0.079644
0.079385
0.077883
0.07615
0.072642
0.069862
0.064451
0.060485
0.053648
0.048822
0.041372
0.035803
0.079891
0.079632
0.078115
0.076365
0.072814
0.069982
0.064519
0.060484
0.053591
0.048678
0.041196
0.035555
0.080145
0.079886
0.078354
0.076586
0.072992
0.070108
0.06459
0.060484
0.053536
0.048534
0.041018
0.035304
0.080406
0.080148
0.078601
0.076815
0.073176
0.070238
0.064665
0.060487
0.053482
0.048389
0.040839
0.03505
0.080675
0.080418
0.078855
0.077052
0.073367
0.070373
0.064744
0.060491
0.053429
0.048244
0.040657
0.034792
0.080952
0.080696
0.079118
0.077296
0.073565
0.070514
0.064826
0.060498
0.053377
0.048099
0.040473
0.03453
0.081238
0.080982
0.079388
0.077548
0.073769
0.07066
0.064913
0.060507
0.053325
0.047952
0.040287
0.034265
0.081532
0.081277
0.079668
0.077809
0.073981
0.070812
0.065005
0.060519
0.053275
0.047805
0.040097
0.033996
0.081834
0.081582
0.079956
0.078079
0.0742
0.07097
0.0651
0.060533
0.053226
0.047657
0.039906
0.033723
0.082146
0.081895
0.080253
0.078358
0.074427
0.071135
0.065201
0.060549
0.053178
0.047509
0.039711
0.033446
0.082468
0.082219
0.08056
0.078646
0.074663
0.071306
0.065306
0.060568
0.05313
0.047359
0.039513
0.033164
0.0828
0.082552
0.080877
0.078943
0.074907
0.071484
0.065416
0.060589
0.053084
0.047208
0.039312
0.032877
0.083142
0.082896
0.081204
0.079251
0.07516
0.071668
0.065532
0.060612
0.053038
0.047056
0.039107
0.032585
0.083495
0.083251
0.081542
0.079569
0.075422
0.071861
0.065653
0.060639
0.052993
0.046902
0.038899
0.032288
0.083859
0.083618
0.081891
0.079898
0.075694
0.072061
0.065779
0.060668
0.052949
0.046747
0.038687
0.031986
0.084235
0.083996
0.082252
0.080238
0.075976
0.072269
0.065911
0.0607
0.052905
0.04659
0.038471
0.031677
0.084623
0.084387
0.082625
0.08059
0.076268
0.072485
0.06605
0.060735
0.052862
0.046432
0.038251
0.031363
0.085023
0.08479
0.083011
0.080954
0.076572
0.072711
0.066195
0.060773
0.05282
0.046271
0.038025
0.031042
0.085437
0.085207
0.08341
0.08133
0.076887
0.072945
0.066346
0.060814
0.052777
0.046109
0.037795
0.030714
0.085864
0.085638
0.083823
0.081719
0.077214
0.073189
0.066504
0.060858
0.052736
0.045943
0.03756
0.03038
0.086306
0.086084
0.08425
0.082122
0.077553
0.073443
0.06667
0.060906
0.052695
0.045776
0.037319
0.030037
0.086763
0.086544
0.084692
0.082539
0.077906
0.073707
0.066842
0.060957
0.052654
0.045605
0.037073
0.029687
0.087236
0.087021
0.08515
0.082971
0.078272
0.073982
0.067023
0.061011
0.052613
0.045431
0.03682
0.029328
0.087724
0.087514
0.085624
0.083417
0.078652
0.074268
0.067211
0.06107
0.052572
0.045254
0.03656
0.02896
0.08823
0.088025
0.086116
0.08388
0.079047
0.074566
0.067408
0.061132
0.052531
0.045074
0.036294
0.028583
0.088754
0.088554
0.086625
0.084359
0.079458
0.074876
0.067614
0.061198
0.05249
0.044889
0.03602
0.028196
0.089296
0.089101
0.087153
0.084856
0.079885
0.075199
0.067828
0.061268
0.052449
0.0447
0.035737
0.027798
0.089858
0.089669
0.087701
0.08537
0.080328
0.075535
0.068052
0.061342
0.052407
0.044507
0.035447
0.027389
0.09044
0.090257
0.08827
0.085904
0.080789
0.075885
0.068286
0.06142
0.052365
0.044308
0.035146
0.026968
0.091044
0.090868
0.08886
0.086457
0.081268
0.07625
0.068529
0.061502
0.052322
0.044104
0.034837
0.026534
0.09167
0.091501
0.089472
0.087031
0.081766
0.076629
0.068783
0.061589
0.052277
0.043894
0.034516
0.026086
0.09232
0.092158
0.090109
0.087626
0.082285
0.077024
0.069048
0.061681
0.052232
0.043678
0.034185
0.025624
0.092995
0.092841
0.09077
0.088244
0.082823
0.077435
0.069324
0.061777
0.052184
0.043455
0.033841
0.025147
0.093696
0.09355
0.091458
0.088887
0.083384
0.077864
0.069611
0.061877
0.052135
0.043223
0.033485
0.024653
0.094425
0.094287
0.092173
0.089554
0.083967
0.07831
0.06991
0.061982
0.052083
0.042984
0.033114
0.024142
0.095182
0.095054
0.092917
0.090247
0.084574
0.078774
0.070222
0.062091
0.052029
0.042735
0.032729
0.023613
0.09597
0.095852
0.093692
0.090968
0.085206
0.079258
0.070546
0.062205
0.051971
0.042477
0.032328
0.023063
0.09679
0.096683
0.094499
0.091719
0.085864
0.079761
0.070882
0.062323
0.051909
0.042207
0.03191
0.022493
0.097644
0.097548
0.09534
0.0925
0.086549
0.080285
0.071232
0.062446
0.051843
0.041926
0.031473
0.021899
0.098534
0.098451
0.096217
0.093313
0.087262
0.08083
0.071595
0.062572
0.051771
0.041631
0.031016
0.021282
0.099462
0.099392
0.097132
0.094161
0.088005
0.081398
0.071972
0.062702
0.051694
0.041323
0.030538
0.020639
0.10043
0.10037
0.098088
0.095045
0.088779
0.081989
0.072362
0.062834
0.051609
0.040999
0.030037
0.019968
0.10144
0.1014
0.099086
0.095967
0.089586
0.082603
0.072767
0.06297
0.051516
0.040657
0.029512
0.019268
0.1025
0.10247
0.10013
0.09693
0.090427
0.083243
0.073186
0.063108
0.051413
0.040297
0.028959
0.018536
0.1036
0.10359
0.10122
0.097935
0.091305
0.083908
0.073618
0.063247
0.051299
0.039916
0.028377
0.01777
0.10476
0.10477
0.10236
0.098987
0.09222
0.0846
0.074065
0.063386
0.051173
0.039512
0.027764
0.016968
0.10597
0.106
0.10356
0.10009
0.093175
0.08532
0.074526
0.063524
0.051032
0.039083
0.027117
0.016127
0.10723
0.10729
0.10482
0.10124
0.094173
0.086068
0.075
0.06366
0.050874
0.038626
0.026433
0.015244
0.10856
0.10864
0.10613
0.10244
0.095215
0.086846
0.075487
0.063793
0.050698
0.038138
0.025708
0.014317
0.10996
0.11006
0.10752
0.10371
0.096303
0.087653
0.075987
0.06392
0.050499
0.037617
0.024941
0.013341
0.11143
0.11156
0.10897
0.10504
0.097441
0.088493
0.076498
0.064039
0.050275
0.037057
0.024126
0.012313
0.11297
0.11313
0.1105
0.10643
0.098632
0.089364
0.07702
0.064148
0.050022
0.036456
0.02326
0.01123
0.1146
0.11479
0.11211
0.1079
0.099877
0.090268
0.077552
0.064243
0.049736
0.035808
0.022338
0.010087
0.11631
0.11654
0.11381
0.10944
0.10118
0.091206
0.07809
0.064321
0.049413
0.035108
0.021354
0.0088786
0.11812
0.11838
0.11561
0.11106
0.10255
0.092178
0.078634
0.064378
0.049046
0.034351
0.020304
0.0076004
0.12003
0.12033
0.11751
0.11278
0.10397
0.093184
0.07918
0.064408
0.048629
0.033529
0.019181
0.0062465
0.12205
0.1224
0.11952
0.11458
0.10547
0.094224
0.079725
0.064406
0.048156
0.032636
0.017977
0.0048106
0.1242
0.12459
0.12165
0.11649
0.10704
0.095298
0.080265
0.064365
0.047617
0.031662
0.016685
0.0032857
0.12647
0.12692
0.1239
0.11851
0.10869
0.096405
0.080794
0.064276
0.047003
0.030599
0.015297
0.0016643
0.12889
0.12939
0.1263
0.12065
0.11042
0.097544
0.081306
0.064129
0.046303
0.029434
0.013801
-6.2295e-05
0.13146
0.13203
0.12886
0.12291
0.11223
0.098711
0.081792
0.063914
0.045504
0.028156
0.012188
-0.0019034
0.1342
0.13484
0.13158
0.12532
0.11412
0.099903
0.082243
0.063615
0.044591
0.02675
0.010445
-0.0038695
0.13713
0.13784
0.13449
0.12787
0.11611
0.10111
0.082645
0.063217
0.043547
0.0252
0.0085581
-0.0059723
0.14027
0.14106
0.1376
0.13058
0.11819
0.10234
0.082984
0.062699
0.04235
0.023487
0.006511
-0.0082247
0.14364
0.14452
0.14093
0.13346
0.12037
0.10356
0.083239
0.062039
0.040977
0.02159
0.0042863
-0.010641
0.14726
0.14823
0.1445
0.13653
0.12263
0.10477
0.083386
0.061206
0.039401
0.019485
0.0018639
-0.013237
0.15116
0.15224
0.14835
0.1398
0.12498
0.10594
0.083394
0.060168
0.037588
0.017142
-0.00077887
-0.016032
0.15538
0.15657
0.15249
0.14327
0.12742
0.10706
0.083225
0.058881
0.035501
0.014531
-0.0036675
-0.019043
0.15995
0.16126
0.15696
0.14697
0.12992
0.10807
0.082829
0.057297
0.033093
0.011614
-0.0068307
-0.022294
0.16492
0.16637
0.16179
0.15091
0.13246
0.10894
0.082147
0.055355
0.030312
0.008349
-0.010301
-0.025807
0.17035
0.17193
0.16702
0.15507
0.13501
0.1096
0.081101
0.05298
0.027097
0.0046882
-0.014113
-0.02961
0.17629
0.17802
0.17269
0.15947
0.13751
0.10996
0.079595
0.050085
0.023376
0.00057756
-0.018308
-0.033728
0.18283
0.18472
0.17885
0.16408
0.13989
0.10991
0.077506
0.046564
0.019065
-0.0040437
-0.022929
-0.038192
0.19005
0.1921
0.18554
0.16887
0.14203
0.10929
0.074683
0.04229
0.01407
-0.0092426
-0.028021
-0.043031
0.19807
0.20027
0.19278
0.17376
0.14376
0.10791
0.070936
0.037113
0.0082824
-0.015092
-0.033635
-0.048272
0.20705
0.20936
0.20061
0.17861
0.14484
0.10548
0.066034
0.03086
0.0015841
-0.021667
-0.039816
-0.053938
0.21715
0.21951
0.209
0.18321
0.14493
0.10167
0.059694
0.023335
-0.0061501
-0.029042
-0.046605
-0.06004
0.22861
0.2309
0.21787
0.1872
0.14354
0.096025
0.051585
0.014325
-0.015043
-0.03728
-0.054025
-0.066567
0.24175
0.24368
0.227
0.19001
0.14003
0.088
0.041338
0.0036194
-0.025193
-0.04641
-0.062065
-0.073476
0.25698
0.25801
0.23591
0.19078
0.1335
0.076942
0.028575
-0.0089495
-0.03664
-0.0564
-0.070652
-0.080665
0.27489
0.27388
0.24372
0.1882
0.12283
0.062156
0.012994
-0.023431
-0.049301
-0.06711
-0.079616
-0.087964
0.29627
0.29094
0.2488
0.18044
0.10674
0.043066
-0.0054722
-0.039631
-0.062881
-0.078231
-0.088666
-0.095121
0.32215
0.30798
0.24849
0.16517
0.084085
0.019548
-0.026404
-0.056958
-0.076797
-0.08926
-0.097383
-0.10182
0.35346
0.32237
0.239
0.14003
0.054501
-0.0075643
-0.048625
-0.074321
-0.090169
-0.099534
-0.10528
-0.10775
0.38966
0.32889
0.21629
0.1043
0.019551
-0.036031
-0.070151
-0.090259
-0.10199
-0.10839
-0.11194
-0.11268
0.42625
0.31824
0.17644
0.060209
-0.016934
-0.062749
-0.088984
-0.10363
-0.11167
-0.11557
-0.11729
-0.11668
0.46134
0.28385
0.11713
0.010323
-0.052028
-0.08636
-0.10497
-0.11483
-0.1198
-0.12169
-0.12194
-0.12033
0.50259
0.23882
0.049255
-0.040908
-0.084674
-0.10719
-0.11893
-0.12474
-0.12715
-0.12737
-0.12638
-0.12395
0.12701
0.075606
0.058922
0.05072
0.044934
0.040796
0.037562
0.034966
0.032704
0.030785
0.028986
0.027308
0.10927
0.066155
0.052626
0.04541
0.040147
0.036398
0.033468
0.031119
0.029075
0.027346
0.025731
0.024299
0.086113
0.054317
0.043775
0.037748
0.033226
0.030017
0.027516
0.02552
0.023788
0.022335
0.020979
0.019759
0.082547
0.05519
0.044313
0.038124
0.033455
0.030136
0.027556
0.025506
0.023731
0.022252
0.020873
0.019643
0.08365
0.05831
0.046614
0.040061
0.035096
0.031541
0.028785
0.026604
0.024716
0.023152
0.021693
0.020409
0.083548
0.0602
0.04819
0.041435
0.036261
0.032518
0.029621
0.027333
0.025355
0.023728
0.022206
0.020882
0.082571
0.061416
0.049435
0.042563
0.037234
0.033327
0.030299
0.027913
0.02585
0.024168
0.022589
0.021242
0.081487
0.062453
0.050665
0.043712
0.038255
0.034192
0.03103
0.028541
0.026388
0.024645
0.023006
0.021643
0.080445
0.063328
0.051853
0.044866
0.039317
0.035114
0.031822
0.029227
0.026981
0.025172
0.02347
0.022092
0.079395
0.063986
0.052931
0.045967
0.040367
0.036053
0.032642
0.029946
0.027607
0.025733
0.023967
0.022574
0.078318
0.064431
0.053873
0.046984
0.041376
0.036982
0.033471
0.030682
0.028256
0.026317
0.024487
0.023081
0.077233
0.064694
0.054677
0.047905
0.042325
0.037883
0.034292
0.031422
0.028917
0.026916
0.025025
0.023604
0.076159
0.064807
0.055346
0.048724
0.043202
0.03874
0.03509
0.032154
0.029579
0.027523
0.025574
0.024135
0.075112
0.064799
0.055889
0.04944
0.043999
0.039543
0.035853
0.032865
0.030231
0.028126
0.026123
0.024664
0.074099
0.064694
0.056316
0.050055
0.044714
0.040284
0.036573
0.033547
0.030865
0.028717
0.026666
0.025183
0.073126
0.064514
0.05664
0.050578
0.045347
0.040961
0.037245
0.034193
0.031472
0.02929
0.027194
0.025687
0.072196
0.064275
0.056874
0.051013
0.045903
0.041573
0.037864
0.034799
0.032049
0.029838
0.027704
0.02617
0.071308
0.063993
0.057031
0.051371
0.046386
0.042122
0.038432
0.035362
0.032591
0.030358
0.028191
0.026631
0.070463
0.063678
0.057121
0.05166
0.046802
0.042612
0.038948
0.035883
0.033099
0.030848
0.028654
0.027067
0.069658
0.063339
0.057154
0.051887
0.047158
0.043045
0.039416
0.036361
0.033571
0.031308
0.02909
0.02748
0.06889
0.062983
0.05714
0.05206
0.047458
0.043427
0.039838
0.036799
0.034008
0.031737
0.029501
0.027869
0.068157
0.062615
0.057085
0.052185
0.047709
0.043761
0.040216
0.037199
0.034412
0.032136
0.029885
0.028236
0.067456
0.062239
0.056996
0.052269
0.047916
0.044052
0.040555
0.037563
0.034783
0.032507
0.030245
0.02858
0.066784
0.061858
0.056879
0.052316
0.048084
0.044303
0.040858
0.037893
0.035125
0.03285
0.030581
0.028904
0.066139
0.061474
0.056737
0.052331
0.048216
0.044519
0.041126
0.038192
0.035439
0.033168
0.030894
0.029208
0.065519
0.061089
0.056574
0.052318
0.048317
0.044703
0.041364
0.038462
0.035727
0.033462
0.031186
0.029493
0.06492