/*--------------------------------*- C++ -*----------------------------------*\
  =========                 |
  \\      /  F ield         | OpenFOAM: The Open Source CFD Toolbox
   \\    /   O peration     | Website:  https://openfoam.org
    \\  /    A nd           | Version:  6.0
     \\/     M anipulation  |
\*---------------------------------------------------------------------------*/
FoamFile
{
    version     2.0;
    format      ascii;
    class       volScalarField;
    location    "4";
    object      p;
}
// * * * * * * * * * * * * * * * * * * * * * * * * * * * * * * * * * * * * * //

dimensions      [0 2 -2 0 0 0 0];

internalField   nonuniform List<scalar> 
34500
(
1.01266
1.01707
1.0221
1.02459
1.02321
1.01958
1.01534
1.01153
1.00853
1.00626
1.0046
1.00334
1.00235
1.00163
1.00111
1.0126
1.01707
1.02241
1.02549
1.02479
1.02168
1.01767
1.01387
1.01072
1.00822
1.00629
1.00475
1.00344
1.00245
1.00158
1.01247
1.01676
1.02201
1.02525
1.02489
1.02213
1.01834
1.01461
1.01142
1.00882
1.00677
1.00507
1.00359
1.00245
1.00143
1.01227
1.01628
1.02126
1.02443
1.02426
1.02177
1.01818
1.01457
1.01141
1.00879
1.00668
1.00491
1.00335
1.00217
1.00114
1.01203
1.01573
1.02036
1.02339
1.02331
1.02102
1.01763
1.01414
1.01105
1.00844
1.00633
1.00453
1.00296
1.00177
1.00078
1.01174
1.01512
1.01941
1.02223
1.0222
1.02008
1.01687
1.01351
1.0105
1.00794
1.00584
1.00406
1.0025
1.00132
1.00039
1.01141
1.0145
1.01844
1.02105
1.02103
1.01905
1.016
1.01278
1.00986
1.00735
1.00529
1.00354
1.00201
1.00084
0.99997
1.01104
1.01385
1.01747
1.01986
1.01984
1.01798
1.01509
1.012
1.00917
1.00673
1.00472
1.00299
1.0015
1.00035
0.999532
1.01064
1.0132
1.01652
1.01871
1.01867
1.01691
1.01417
1.01121
1.00847
1.00609
1.00413
1.00244
1.00099
0.999855
0.999073
1.0102
1.01252
1.01557
1.01757
1.01752
1.01585
1.01325
1.0104
1.00776
1.00545
1.00353
1.00189
1.00048
0.999351
0.998602
1.00973
1.01185
1.01464
1.01647
1.0164
1.01481
1.01233
1.0096
1.00705
1.0048
1.00294
1.00133
0.999957
0.998839
0.998113
1.00923
1.01115
1.01372
1.01538
1.01529
1.01378
1.01142
1.0088
1.00633
1.00415
1.00234
1.00077
0.999431
0.99832
0.997615
1.0087
1.01045
1.0128
1.01432
1.01421
1.01277
1.01052
1.008
1.00561
1.0035
1.00173
1.00021
0.9989
0.997793
0.997101
1.00814
1.00972
1.01189
1.01326
1.01313
1.01176
1.00961
1.00719
1.00489
1.00284
1.00112
0.999637
0.998361
0.997258
0.996578
1.00756
1.00899
1.01098
1.01222
1.01208
1.01076
1.00871
1.00639
1.00417
1.00218
1.00051
0.99906
0.997814
0.996715
0.996042
1.00694
1.00823
1.01006
1.01119
1.01102
1.00976
1.00781
1.00558
1.00344
1.00151
0.99989
0.998476
0.997257
0.996162
0.995496
1.00631
1.00747
1.00914
1.01016
1.00998
1.00877
1.00691
1.00477
1.0027
1.00084
0.999261
0.997883
0.996693
0.995601
0.994937
1.00564
1.00668
1.00821
1.00913
1.00894
1.00778
1.006
1.00395
1.00196
1.00015
0.998622
0.99728
0.996117
0.99503
0.994369
1.00495
1.00588
1.00728
1.0081
1.0079
1.00679
1.00509
1.00312
1.00121
0.99946
0.997976
0.996669
0.995533
0.99445
0.99379
1.00423
1.00505
1.00633
1.00707
1.00685
1.00579
1.00417
1.00228
1.00044
0.998755
0.997317
0.996047
0.994936
0.993859
0.993201
1.0035
1.00422
1.00538
1.00604
1.00581
1.00479
1.00325
1.00144
0.999668
0.998041
0.99665
0.995416
0.994331
0.993259
0.992601
1.00273
1.00336
1.00442
1.005
1.00476
1.00378
1.00232
1.00059
0.998882
0.997315
0.995971
0.994772
0.993713
0.992647
0.991991
1.00195
1.0025
1.00345
1.00396
1.00372
1.00278
1.00138
0.999724
0.99809
0.99658
0.995282
0.994119
0.993086
0.992027
0.99137
1.00113
1.0016
1.00246
1.00291
1.00266
1.00176
1.00043
0.998848
0.997282
0.995831
0.99458
0.993454
0.992446
0.991394
0.990739
1.0003
1.0007
1.00147
1.00186
1.0016
1.00074
0.999481
0.997967
0.996468
0.995073
0.993869
0.992779
0.991797
0.990752
0.990097
0.999444
0.999773
1.00047
1.00079
1.00053
0.999705
0.998513
0.99707
0.995637
0.994301
0.993144
0.99209
0.991134
0.990097
0.989444
0.998572
0.998837
0.99945
0.999726
0.999457
0.99867
0.99754
0.996167
0.9948
0.99352
0.99241
0.991392
0.990462
0.989433
0.988781
0.997669
0.997874
0.998417
0.998643
0.998369
0.997618
0.996552
0.995248
0.993946
0.992723
0.991661
0.990679
0.989775
0.988756
0.988107
0.996755
0.996903
0.997376
0.997556
0.997281
0.996566
0.995559
0.994322
0.993084
0.991918
0.990902
0.989957
0.989079
0.988069
0.987422
0.995809
0.995904
0.996315
0.996452
0.996175
0.995495
0.99455
0.993379
0.992205
0.991096
0.990128
0.98922
0.988367
0.987367
0.986725
0.994853
0.994897
0.995247
0.995345
0.995068
0.994422
0.993535
0.992429
0.991319
0.990265
0.989345
0.988473
0.987647
0.986656
0.986015
0.993865
0.993863
0.994158
0.994219
0.993942
0.993331
0.992502
0.991462
0.990415
0.989418
0.988546
0.987711
0.98691
0.985929
0.985294
0.992868
0.992821
0.993062
0.993088
0.992813
0.992236
0.991464
0.990487
0.989502
0.988562
0.987736
0.986938
0.986164
0.985192
0.984558
0.991839
0.99175
0.991943
0.991937
0.991664
0.991121
0.990406
0.989494
0.988572
0.987688
0.986911
0.98615
0.985401
0.98444
0.98381
0.990801
0.990671
0.990815
0.99078
0.990511
0.990002
0.989343
0.988493
0.987633
0.986805
0.986075
0.985351
0.984629
0.983676
0.983046
0.98973
0.989563
0.989665
0.989602
0.989337
0.988863
0.988259
0.987472
0.986675
0.985903
0.985222
0.984535
0.983839
0.982896
0.982269
0.988651
0.988447
0.988506
0.988418
0.988158
0.987718
0.987169
0.986444
0.985708
0.984992
0.984359
0.983709
0.983039
0.982105
0.981475
0.987539
0.987301
0.987322
0.98721
0.986957
0.986551
0.986058
0.985395
0.984722
0.984063
0.983478
0.982866
0.982222
0.981296
0.980668
0.986419
0.986147
0.986129
0.985996
0.98575
0.985379
0.98494
0.984339
0.983727
0.983123
0.982587
0.982012
0.981394
0.980476
0.979844
0.985265
0.984963
0.984911
0.984758
0.98452
0.984183
0.9838
0.98326
0.982711
0.982165
0.981677
0.98114
0.980548
0.979639
0.979009
0.984103
0.98377
0.983683
0.983512
0.983283
0.982982
0.982652
0.982174
0.981686
0.981196
0.980757
0.980257
0.979692
0.97879
0.978156
0.982908
0.982546
0.982429
0.98224
0.982021
0.981755
0.981481
0.981065
0.98064
0.980207
0.979817
0.979356
0.978816
0.977923
0.977292
0.981704
0.981313
0.981164
0.98096
0.980752
0.980521
0.980301
0.979947
0.979584
0.979207
0.978867
0.978443
0.97793
0.977045
0.976411
0.980466
0.980048
0.979872
0.979653
0.979456
0.979262
0.979098
0.978805
0.978506
0.978187
0.977897
0.977512
0.977025
0.976148
0.975518
0.97922
0.978774
0.978568
0.978337
0.978153
0.977995
0.977885
0.977655
0.977418
0.977156
0.976916
0.976569
0.976109
0.97524
0.974608
0.977939
0.977468
0.977236
0.976992
0.976821
0.976701
0.976648
0.97648
0.976307
0.976104
0.975914
0.975607
0.975172
0.974313
0.973685
0.976649
0.976152
0.975893
0.975638
0.975481
0.975399
0.9754
0.975295
0.975186
0.975041
0.974901
0.974633
0.974225
0.973375
0.972745
0.975324
0.974802
0.974519
0.974254
0.974112
0.974068
0.974127
0.974085
0.97404
0.973955
0.973867
0.973638
0.973258
0.972417
0.971792
0.97399
0.973442
0.973134
0.97286
0.972734
0.972729
0.972843
0.972865
0.972885
0.972858
0.972821
0.972632
0.972279
0.971447
0.970823
0.972619
0.972049
0.971717
0.971435
0.971324
0.971359
0.971532
0.971619
0.971704
0.971738
0.971754
0.971605
0.971279
0.970458
0.969839
0.97124
0.970644
0.970288
0.969998
0.969906
0.96998
0.970211
0.970362
0.970513
0.970606
0.970674
0.970565
0.970268
0.969457
0.968838
0.969823
0.969204
0.968826
0.968529
0.968454
0.96857
0.96886
0.969077
0.969295
0.96945
0.969572
0.969505
0.969235
0.968435
0.967822
0.968397
0.967753
0.967351
0.967048
0.966992
0.96715
0.967499
0.967781
0.968067
0.968283
0.968457
0.968431
0.968191
0.967402
0.96679
0.966933
0.966266
0.965842
0.965533
0.965497
0.965697
0.966107
0.966457
0.966811
0.96709
0.967319
0.967336
0.967124
0.966347
0.965741
0.965459
0.964766
0.964319
0.964006
0.96399
0.964233
0.964703
0.965121
0.965544
0.965885
0.966169
0.966227
0.966045
0.96528
0.964677
0.963947
0.96323
0.962761
0.962443
0.962448
0.962736
0.963269
0.963756
0.964249
0.964655
0.964994
0.965096
0.964943
0.964191
0.963593
0.962423
0.961681
0.961189
0.960867
0.960894
0.961226
0.961822
0.962378
0.962942
0.963412
0.963806
0.963952
0.96383
0.963089
0.962495
0.96086
0.960094
0.95958
0.959254
0.959303
0.959682
0.960342
0.96097
0.961606
0.962142
0.962594
0.962784
0.962692
0.961965
0.961376
0.959287
0.958494
0.957957
0.957627
0.957699
0.958125
0.95885
0.959549
0.960258
0.960859
0.961368
0.961602
0.961542
0.960828
0.960242
0.957672
0.956855
0.956295
0.955961
0.956057
0.956532
0.957323
0.958096
0.95888
0.959549
0.960116
0.960396
0.960367
0.959667
0.959088
0.956046
0.955201
0.954617
0.954281
0.954402
0.954925
0.955783
0.95663
0.957489
0.958225
0.958851
0.959176
0.95918
0.958493
0.957917
0.954378
0.953508
0.9529
0.95256
0.952707
0.953281
0.954208
0.955131
0.956066
0.956873
0.957559
0.957931
0.957968
0.957295
0.956725
0.952698
0.951799
0.951167
0.950824
0.950998
0.951622
0.952619
0.953619
0.954631
0.955507
0.956253
0.956672
0.956742
0.956083
0.955517
0.950976
0.95005
0.949392
0.949047
0.949247
0.949924
0.950992
0.952071
0.953163
0.954111
0.954919
0.955386
0.95549
0.954846
0.954286
0.94924
0.948284
0.947601
0.947253
0.947481
0.948212
0.949352
0.950511
0.951682
0.952702
0.953571
0.954086
0.954225
0.953595
0.953039
0.947461
0.946477
0.945766
0.945416
0.945672
0.946458
0.947673
0.948913
0.950167
0.951261
0.952194
0.952759
0.952932
0.952318
0.951768
0.945669
0.944652
0.943915
0.943562
0.943848
0.944689
0.945979
0.947302
0.948639
0.949807
0.950803
0.951417
0.951626
0.951027
0.950481
0.943831
0.942784
0.942018
0.941663
0.941979
0.942878
0.944245
0.945653
0.947075
0.94832
0.949382
0.950046
0.950292
0.949708
0.949169
0.94198
0.940899
0.940104
0.939746
0.940093
0.94105
0.942496
0.94399
0.945497
0.94682
0.947946
0.948661
0.948944
0.948375
0.94784
0.940082
0.938969
0.938144
0.937782
0.938161
0.939179
0.940705
0.942288
0.943884
0.945285
0.946479
0.947247
0.947566
0.947014
0.946484
0.93817
0.937021
0.936164
0.9358
0.936211
0.93729
0.938899
0.940571
0.942255
0.943736
0.944997
0.945816
0.946174
0.945638
0.945112
0.936211
0.935027
0.934137
0.933769
0.934213
0.935356
0.937049
0.938813
0.940589
0.942153
0.943483
0.944356
0.944752
0.944232
0.943713
0.934236
0.933013
0.932091
0.93172
0.932197
0.933405
0.935182
0.93704
0.938908
0.940554
0.941954
0.94288
0.943314
0.942811
0.942296
0.932213
0.930953
0.929994
0.929619
0.930132
0.931405
0.933271
0.935225
0.937188
0.938919
0.940391
0.941371
0.941846
0.94136
0.940851
0.930174
0.928872
0.927878
0.927499
0.928047
0.929388
0.931343
0.933394
0.935453
0.937269
0.938812
0.939847
0.940362
0.939893
0.939389
0.928085
0.926743
0.92571
0.925326
0.925911
0.927321
0.929368
0.93152
0.933678
0.935582
0.937199
0.93829
0.938845
0.938394
0.937897
0.925979
0.924593
0.923521
0.923132
0.923754
0.925236
0.927376
0.929629
0.931887
0.933879
0.935569
0.936717
0.937313
0.93688
0.936387
0.923823
0.922392
0.921278
0.920885
0.921545
0.923099
0.925335
0.927694
0.930054
0.932138
0.933904
0.935109
0.935747
0.935332
0.934845
0.921649
0.920171
0.919014
0.918615
0.919314
0.920943
0.923276
0.925741
0.928204
0.93038
0.932222
0.933484
0.934165
0.933768
0.933286
0.919423
0.917897
0.916695
0.91629
0.917028
0.918734
0.921167
0.923742
0.926312
0.928582
0.930502
0.931824
0.932548
0.93217
0.931695
0.917179
0.915602
0.914354
0.913942
0.914721
0.916504
0.91904
0.921725
0.924403
0.926768
0.928766
0.930146
0.930914
0.930554
0.930085
0.914882
0.913253
0.911955
0.911536
0.912356
0.91422
0.916861
0.91966
0.922449
0.924912
0.926991
0.928432
0.929244
0.928904
0.928441
0.912566
0.910881
0.909534
0.909106
0.909969
0.911915
0.914662
0.917577
0.920478
0.923039
0.925199
0.9267
0.927556
0.927235
0.926779
0.910195
0.908454
0.907053
0.906617
0.907523
0.909553
0.91241
0.915444
0.918461
0.921123
0.923366
0.924929
0.925832
0.925531
0.925081
0.907805
0.906004
0.904549
0.904103
0.905054
0.907169
0.910138
0.913293
0.916426
0.91919
0.921516
0.92314
0.924088
0.923808
0.923365
0.905359
0.903498
0.901983
0.901527
0.902523
0.904726
0.90781
0.91109
0.914343
0.917212
0.919624
0.921312
0.922307
0.922047
0.921612
0.902893
0.900966
0.899393
0.898926
0.899967
0.902261
0.905462
0.908868
0.912242
0.915216
0.917713
0.919464
0.920506
0.920267
0.919838
0.90037
0.898378
0.896739
0.896261
0.897349
0.899735
0.903056
0.906592
0.910091
0.913174
0.91576
0.917575
0.918666
0.918448
0.918028
0.897826
0.895763
0.894061
0.89357
0.894705
0.897186
0.900629
0.904298
0.907922
0.911113
0.913788
0.915667
0.916806
0.916609
0.916196
0.895224
0.89309
0.891317
0.890812
0.891996
0.894574
0.898143
0.901947
0.905701
0.909005
0.91177
0.913716
0.914904
0.91473
0.914326
0.8926
0.89039
0.888548
0.888027
0.889261
0.891938
0.895634
0.899576
0.903461
0.906878
0.909734
0.911745
0.912982
0.91283
0.912435
0.889917
0.887629
0.885711
0.885174
0.886459
0.889237
0.893065
0.897148
0.901168
0.9047
0.907651
0.90973
0.911018
0.910889
0.910503
0.887212
0.884841
0.882847
0.882293
0.883629
0.88651
0.890473
0.8947
0.898856
0.902504
0.905548
0.907694
0.909032
0.908926
0.908549
0.884446
0.881991
0.879914
0.879341
0.880729
0.883717
0.887817
0.892192
0.896488
0.900256
0.903397
0.905612
0.907002
0.90692
0.906554
0.881658
0.879113
0.876953
0.876361
0.877802
0.880898
0.885138
0.889663
0.8941
0.897988
0.901225
0.903508
0.90495
0.904892
0.904535
0.878808
0.876172
0.873921
0.873307
0.874802
0.87801
0.882393
0.887072
0.891655
0.895667
0.899003
0.901357
0.902853
0.902819
0.902474
0.875935
0.873201
0.87086
0.870224
0.871774
0.875095
0.879625
0.88446
0.889189
0.893326
0.896761
0.899184
0.900732
0.900723
0.900388
0.872999
0.870166
0.867726
0.867065
0.868671
0.872109
0.876788
0.881784
0.886664
0.890929
0.894466
0.896962
0.898564
0.898581
0.898258
0.87004
0.867101
0.864563
0.863876
0.865539
0.869095
0.873928
0.879086
0.884118
0.888511
0.892149
0.894717
0.896372
0.896414
0.896104
0.867017
0.863969
0.861324
0.860609
0.86233
0.866008
0.870997
0.876322
0.881511
0.886035
0.889779
0.89242
0.894132
0.894201
0.893903
0.863969
0.860807
0.858056
0.857311
0.85909
0.862892
0.868041
0.873535
0.878882
0.883539
0.887386
0.890101
0.891866
0.891961
0.891677
0.860857
0.857576
0.854709
0.853933
0.855771
0.8597
0.865012
0.87068
0.87619
0.880982
0.884937
0.887727
0.88955
0.889673
0.889403
0.857721
0.854316
0.851332
0.850522
0.85242
0.856479
0.861958
0.867802
0.873475
0.878404
0.882466
0.88533
0.887207
0.887358
0.887103
0.854518
0.850985
0.847875
0.847029
0.848988
0.85318
0.858829
0.864854
0.870695
0.875764
0.879936
0.882878
0.884813
0.884993
0.884753
0.851291
0.847623
0.844387
0.843503
0.845524
0.84985
0.855673
0.861882
0.867892
0.873102
0.877382
0.8804
0.882391
0.882599
0.882376
0.847997
0.84419
0.840817
0.839892
0.841976
0.84644
0.852441
0.858837
0.865021
0.870375
0.874768
0.877865
0.879915
0.880154
0.879948
0.844679
0.840725
0.837215
0.836247
0.838394
0.842999
0.849181
0.855768
0.862127
0.867626
0.87213
0.875305
0.877411
0.877679
0.877492
0.841293
0.837187
0.833529
0.832516
0.834727
0.839476
0.845843
0.852624
0.859162
0.86481
0.869429
0.872685
0.874851
0.875151
0.874982
0.837882
0.833618
0.829811
0.828749
0.831026
0.835921
0.842476
0.849455
0.856174
0.86197
0.866703
0.870038
0.872262
0.872592
0.872443
0.834402
0.829974
0.826006
0.824894
0.827236
0.832281
0.839028
0.846209
0.853113
0.859062
0.863912
0.867329
0.869614
0.869978
0.869849
0.830899
0.826299
0.822169
0.821003
0.823411
0.828608
0.835552
0.842937
0.850027
0.856129
0.861095
0.864593
0.866936
0.867332
0.867224
0.827325
0.822547
0.818243
0.817021
0.819496
0.824849
0.831992
0.839586
0.846867
0.853125
0.858211
0.861792
0.864198
0.864629
0.864543
0.823728
0.818764
0.814285
0.813003
0.815546
0.821056
0.828403
0.836209
0.843682
0.850097
0.8553
0.858963
0.861428
0.861893
0.86183
0.820061
0.814903
0.810237
0.808891
0.811503
0.817174
0.824728
0.83275
0.840418
0.846994
0.852318
0.856067
0.858595
0.859097
0.859058
0.81637
0.811011
0.806155
0.804743
0.807424
0.813259
0.821024
0.829265
0.83713
0.843866
0.849309
0.853142
0.85573
0.856267
0.856254
0.812609
0.80704
0.801981
0.800499
0.80325
0.809252
0.817232
0.825695
0.833761
0.840661
0.846227
0.850147
0.8528
0.853375
0.853389
0.808824
0.803039
0.797774
0.796219
0.79904
0.805212
0.81341
0.822099
0.830366
0.83743
0.843117
0.847122
0.849835
0.850448
0.850489
0.804968
0.798957
0.793474
0.791841
0.794733
0.801078
0.809497
0.818415
0.826888
0.83412
0.839931
0.844025
0.846804
0.847457
0.847527
0.801091
0.794844
0.789139
0.787426
0.790389
0.796909
0.805555
0.814705
0.823383
0.830783
0.836716
0.840896
0.843737
0.844429
0.844529
0.797141
0.790651
0.78471
0.782912
0.785947
0.792645
0.80152
0.810905
0.819793
0.827363
0.833422
0.837692
0.8406
0.841335
0.841467
0.79317
0.786427
0.780248
0.778361
0.781467
0.788347
0.797455
0.807078
0.816176
0.823916
0.830098
0.834455
0.837426
0.838201
0.838367
0.789128
0.782121
0.775689
0.773709
0.776888
0.783952
0.793294
0.803159
0.81247
0.820384
0.826693
0.831141
0.834181
0.835001
0.835201
0.785066
0.777787
0.771096
0.76902
0.772271
0.779522
0.789104
0.799213
0.808737
0.816823
0.823256
0.827792
0.830896
0.831758
0.831996
0.780931
0.773369
0.766406
0.764228
0.767553
0.774992
0.784817
0.795172
0.804912
0.813173
0.819734
0.824363
0.827536
0.828447
0.828723
0.776778
0.768923
0.761684
0.7594
0.762798
0.770429
0.780499
0.791103
0.801059
0.809495
0.81618
0.820898
0.824136
0.825091
0.825409
0.772553
0.764393
0.756862
0.754468
0.757939
0.765764
0.776082
0.786937
0.797112
0.805724
0.812538
0.817349
0.820659
0.821664
0.822024
0.768311
0.759837
0.752008
0.749499
0.753044
0.761066
0.771635
0.782743
0.793136
0.801923
0.808862
0.813763
0.81714
0.818191
0.818597
0.763997
0.755196
0.747055
0.744425
0.748044
0.756265
0.767087
0.77845
0.789062
0.798028
0.805095
0.81009
0.81354
0.814644
0.815098
0.759668
0.750529
0.74207
0.739316
0.743009
0.751431
0.762509
0.774128
0.784959
0.794101
0.801293
0.806378
0.809896
0.811049
0.811555
0.755268
0.745778
0.736985
0.7341
0.737867
0.746492
0.757827
0.769704
0.780756
0.790075
0.797396
0.802576
0.806169
0.807377
0.807938
0.750855
0.741003
0.731869
0.72885
0.73269
0.74152
0.753117
0.765252
0.776522
0.786017
0.793463
0.798734
0.802395
0.803654
0.804276
0.746371
0.736143
0.726653
0.723493
0.727407
0.736443
0.7483
0.760694
0.772185
0.781857
0.789431
0.794798
0.798535
0.799851
0.800539
0.741876
0.731261
0.721407
0.718102
0.72209
0.731335
0.743455
0.756109
0.767817
0.777663
0.785361
0.79082
0.794626
0.795994
0.796757
0.737311
0.726295
0.71606
0.712604
0.716665
0.726119
0.738502
0.751415
0.763342
0.773363
0.781189
0.786743
0.790628
0.792053
0.792897
0.732738
0.721308
0.710686
0.707073
0.711207
0.720873
0.733521
0.746693
0.758835
0.769028
0.776977
0.782623
0.786577
0.788055
0.788981
0.728097
0.716238
0.705211
0.701435
0.705642
0.715518
0.72843
0.74186
0.754218
0.764583
0.772659
0.778401
0.782434
0.783968
0.784977
0.723449
0.711149
0.69971
0.695767
0.700045
0.710135
0.723312
0.736998
0.749568
0.760102
0.7683
0.774132
0.778235
0.77982
0.780913
0.718736
0.705977
0.694108
0.689991
0.694341
0.704642
0.718082
0.732023
0.744803
0.755506
0.763829
0.769758
0.773939
0.775582
0.77676
0.714019
0.70079
0.688483
0.684186
0.688607
0.699122
0.712825
0.727018
0.740005
0.750872
0.759315
0.765334
0.769583
0.771278
0.772543
0.709238
0.69552
0.682757
0.678275
0.682765
0.693491
0.707455
0.721897
0.735088
0.746119
0.754685
0.7608
0.765125
0.766881
0.768235
0.704456
0.690238
0.677011
0.672338
0.676897
0.687836
0.702059
0.716747
0.730137
0.741326
0.750009
0.756213
0.760603
0.762415
0.763861
0.699613
0.684876
0.671166
0.666295
0.67092
0.682069
0.696547
0.711476
0.725063
0.736409
0.745212
0.751511
0.755976
0.757853
0.759392
0.694774
0.679504
0.665302
0.660229
0.66492
0.676279
0.69101
0.706175
0.719952
0.73145
0.740367
0.74675
0.751279
0.753219
0.754855
0.689876
0.674054
0.659343
0.654058
0.658813
0.670378
0.685355
0.700751
0.714714
0.726362
0.735395
0.741869
0.746473
0.748486
0.750225
0.684985
0.668598
0.653367
0.647868
0.652686
0.664455
0.679677
0.695297
0.709439
0.721228
0.73037
0.736924
0.741594
0.743678
0.745526
0.68004
0.663065
0.647298
0.641576
0.646452
0.658421
0.673879
0.689715
0.704031
0.71596
0.725212
0.731853
0.736599
0.738768
0.740735
0.675106
0.657532
0.641217
0.635268
0.640201
0.652369
0.668057
0.684103
0.698583
0.710644
0.719995
0.726713
0.731527
0.73378
0.735876
0.670122
0.651925
0.635046
0.62886
0.633846
0.646205
0.662113
0.678358
0.692997
0.705187
0.714638
0.721441
0.726336
0.72869
0.730928
0.665153
0.646322
0.628867
0.622442
0.627478
0.640025
0.656148
0.672583
0.687369
0.699676
0.709217
0.716095
0.721063
0.72352
0.725913
0.66014
0.640649
0.622601
0.615927
0.621008
0.633733
0.650058
0.666671
0.681596
0.694018
0.703649
0.71061
0.715668
0.718248
0.720812
0.655148
0.634985
0.616333
0.609407
0.61453
0.627429
0.643947
0.660726
0.675779
0.6883
0.698011
0.705044
0.710186
0.712895
0.715644
0.650116
0.629257
0.609983
0.602795
0.607952
0.621013
0.63771
0.65464
0.669811
0.682426
0.692218
0.699334
0.704579
0.707439
0.710393
0.645113
0.623543
0.603637
0.596183
0.601371
0.614588
0.631452
0.64852
0.663794
0.676487
0.686347
0.693537
0.698883
0.701901
0.705076
0.640076
0.617772
0.597216
0.589485
0.594694
0.608052
0.625065
0.642254
0.657618
0.670384
0.680315
0.687591
0.693059
0.696261
0.699677
0.635074
0.612021
0.590804
0.582793
0.588019
0.60151
0.618658
0.635952
0.651387
0.664209
0.674197
0.681551
0.687141
0.690538
0.694211
0.630046
0.606219
0.584324
0.576023
0.581252
0.594858
0.61212
0.629497
0.64499
0.657862
0.667909
0.675357
0.681094
0.684714
0.688666
0.625061
0.600446
0.577863
0.569266
0.574494
0.588204
0.605561
0.623003
0.638532
0.651435
0.661529
0.669065
0.674952
0.678805
0.683053
0.620059
0.59463
0.571341
0.562438
0.56765
0.581441
0.598869
0.616351
0.631901
0.644828
0.654972
0.662614
0.668678
0.672795
0.677362
0.615109
0.588852
0.564847
0.555632
0.560819
0.574677
0.592157
0.609655
0.625201
0.638132
0.648315
0.656059
0.662306
0.666701
0.671605
0.610151
0.583041
0.558303
0.548764
0.553909
0.567808
0.585308
0.602795
0.61832
0.631247
0.641475
0.649342
0.655801
0.660505
0.665769
0.605254
0.577277
0.551797
0.541929
0.54702
0.560942
0.578438
0.595886
0.611364
0.624265
0.634527
0.642516
0.649195
0.654224
0.659867
0.600361
0.571492
0.545252
0.535041
0.540059
0.553973
0.57143
0.588808
0.604218
0.617087
0.62739
0.635524
0.642455
0.647842
0.653889
0.59554
0.565766
0.538757
0.528196
0.533126
0.54701
0.564398
0.581676
0.596989
0.609803
0.620138
0.628419
0.635612
0.641374
0.647844
0.590735
0.56003
0.532236
0.521312
0.526129
0.539946
0.557226
0.57437
0.589561
0.602314
0.612692
0.621145
0.628632
0.634804
0.641725
0.586013
0.554367
0.525779
0.514482
0.519169
0.532892
0.550031
0.567003
0.582042
0.594712
0.605123
0.613752
0.621546
0.628147
0.635538
0.581323
0.54871
0.519313
0.507627
0.512155
0.525741
0.542693
0.559456
0.574318
0.586897
0.597355
0.606185
0.614322
0.621388
0.629279
0.576729
0.543138
0.512924
0.500839
0.505187
0.518604
0.535331
0.551843
0.566493
0.578959
0.589457
0.598495
0.606989
0.614541
0.622953
0.572182
0.53759
0.506544
0.494042
0.498174
0.511374
0.527826
0.544043
0.558454
0.570802
0.581353
0.590628
0.599515
0.607591
0.616556
0.567745
0.532143
0.500258
0.487328
0.491218
0.504164
0.520295
0.536172
0.550305
0.562512
0.573112
0.582631
0.591928
0.600552
0.610093
0.563373
0.526739
0.494002
0.480623
0.484231
0.496868
0.51262
0.528108
0.541935
0.553996
0.564659
0.574452
0.584198
0.593409
0.60356
0.559128
0.521455
0.487859
0.474016
0.477313
0.489598
0.504917
0.519965
0.533446
0.545337
0.556059
0.566138
0.576351
0.586175
0.596962
0.554966
0.516234
0.481767
0.467438
0.470378
0.482247
0.49707
0.511623
0.524726
0.536443
0.547242
0.557637
0.568357
0.578835
0.590296
0.550949
0.511154
0.475811
0.460978
0.463526
0.474929
0.489194
0.503194
0.515876
0.527396
0.538269
0.548994
0.560242
0.571404
0.583566
0.547037
0.506161
0.469933
0.45457
0.456675
0.467539
0.481173
0.49456
0.506788
0.518105
0.529071
0.540159
0.551977
0.563865
0.576769
0.543289
0.50133
0.464212
0.448302
0.449924
0.460188
0.47312
0.48583
0.497557
0.50865
0.519709
0.531175
0.543588
0.556231
0.569911
0.539668
0.496614
0.458599
0.442113
0.443191
0.452773
0.46492
0.476887
0.488079
0.498941
0.510113
0.521993
0.535044
0.548488
0.562987
0.536234
0.492086
0.45317
0.436089
0.436575
0.445403
0.456685
0.467837
0.478443
0.489054
0.500342
0.512655
0.526371
0.540648
0.556004
0.532952
0.487702
0.447882
0.430173
0.429998
0.437978
0.448301
0.458567
0.46855
0.478906
0.490331
0.503115
0.517539
0.532697
0.548958
0.529879
0.483534
0.442809
0.42445
0.423558
0.430604
0.439875
0.449176
0.458485
0.468565
0.480133
0.493411
0.508574
0.524646
0.541855
0.526987
0.479543
0.437914
0.418867
0.417177
0.423182
0.431298
0.439555
0.44815
0.457952
0.469687
0.483498
0.499446
0.516479
0.534693
0.52433
0.475799
0.433272
0.413509
0.410951
0.415814
0.42267
0.429797
0.437627
0.447133
0.459045
0.473415
0.49018
0.50821
0.527477
0.521883
0.472269
0.428849
0.408325
0.404808
0.408404
0.413886
0.4198
0.426824
0.436031
0.448146
0.463117
0.480748
0.499821
0.520204
0.519698
0.469023
0.424719
0.403399
0.398837
0.401049
0.40504
0.409648
0.415815
0.424709
0.437041
0.452643
0.471175
0.491326
0.512883
0.517755
0.466031
0.420852
0.398683
0.392969
0.393656
0.39603
0.399244
0.404513
0.413092
0.42567
0.441949
0.461432
0.482705
0.505509
0.516104
0.463365
0.417322
0.394261
0.38729
0.386317
0.386945
0.388667
0.392988
0.40124
0.414084
0.431071
0.451546
0.47397
0.49809
0.514728
0.461
0.414103
0.390086
0.381731
0.378941
0.377687
0.377825
0.381158
0.389083
0.402228
0.419968
0.441489
0.465103
0.490606
0.513679
0.459006
0.411267
0.386241
0.376374
0.371615
0.368336
0.36679
0.369088
0.376675
0.390147
0.408675
0.431287
0.456116
0.483038
0.51294
0.457362
0.408791
0.382681
0.371149
0.36425
0.3588
0.355475
0.356702
0.363953
0.377792
0.397154
0.420914
0.446994
0.475369
0.512564
0.45614
0.406747
0.379485
0.366136
0.356926
0.349152
0.343947
0.344057
0.350967
0.365204
0.385437
0.410396
0.437753
0.46761
0.512535
0.455319
0.405113
0.376606
0.361266
0.349559
0.339308
0.332127
0.331085
0.337659
0.352337
0.373491
0.399707
0.428378
0.459753
0.512908
0.454972
0.403959
0.374122
0.35661
0.34222
0.32933
0.320074
0.317839
0.324075
0.339231
0.361347
0.388875
0.418886
0.451809
0.513668
0.455079
0.403263
0.371982
0.352102
0.334829
0.319141
0.307715
0.304256
0.310164
0.325844
0.348974
0.377873
0.409262
0.44377
0.514869
0.455715
0.403096
0.370261
0.347808
0.32745
0.308796
0.295102
0.290384
0.295968
0.312215
0.336403
0.36673
0.399526
0.435648
0.516494
0.456857
0.40343
0.368906
0.343661
0.320005
0.298227
0.282172
0.276169
0.281442
0.298305
0.323603
0.355423
0.38966
0.427434
0.518601
0.458583
0.404335
0.367987
0.339719
0.312554
0.287479
0.26897
0.261653
0.266623
0.284152
0.310607
0.34398
0.379688
0.419143
0.521169
0.460866
0.40578
0.367446
0.335917
0.30502
0.276491
0.255439
0.246789
0.251473
0.269722
0.297388
0.332378
0.369593
0.410763
0.524257
0.463786
0.407832
0.367351
0.332305
0.297457
0.2653
0.241618
0.231613
0.236029
0.255049
0.283976
0.320646
0.359398
0.402311
0.527842
0.467311
0.410455
0.367639
0.328819
0.289793
0.253855
0.22746
0.216088
0.220256
0.240105
0.270349
0.308763
0.349088
0.393775
0.531985
0.47152
0.413712
0.368369
0.325503
0.282073
0.242185
0.212998
0.200245
0.20419
0.224924
0.256537
0.296758
0.33869
0.385172
0.536656
0.476377
0.417562
0.369475
0.322292
0.274229
0.230244
0.198191
0.184052
0.187802
0.20948
0.24252
0.284612
0.328186
0.376492
0.541919
0.481962
0.422065
0.371011
0.319223
0.2663
0.218056
0.183068
0.167538
0.171126
0.193804
0.228329
0.272353
0.317607
0.367752
0.547737
0.488233
0.427175
0.372905
0.316233
0.258222
0.205583
0.167597
0.150678
0.15414
0.177879
0.213948
0.259964
0.306938
0.35894
0.554177
0.495268
0.432946
0.375205
0.313352
0.250027
0.192843
0.1518
0.133497
0.136873
0.161733
0.199406
0.247475
0.296208
0.350077
0.561194
0.503019
0.439325
0.377835
0.310516
0.241656
0.179804
0.135653
0.115976
0.119311
0.145351
0.18469
0.234868
0.285404
0.341149
0.568856
0.511564
0.446363
0.380835
0.307749
0.233136
0.166479
0.119173
0.098138
0.101482
0.128764
0.16983
0.222176
0.274559
0.33218
0.577115
0.52085
0.454
0.384128
0.30499
0.224412
0.152844
0.102345
0.0799717
0.083375
0.111959
0.154815
0.209383
0.263662
0.323155
0.586036
0.530951
0.46228
0.387746
0.302256
0.215506
0.138907
0.0851838
0.0614965
0.0650179
0.0949672
0.139675
0.196521
0.252745
0.314099
0.595566
0.541812
0.471138
0.39161
0.299485
0.206369
0.124649
0.0676775
0.0427071
0.0464049
0.0777799
0.124402
0.183575
0.241802
0.304999
0.605772
0.553502
0.48061
0.395744
0.296691
0.197017
0.110077
0.0498403
0.0236221
0.0275622
0.060427
0.109026
0.170578
0.230867
0.295879
0.616595
0.56596
0.490626
0.400068
0.293815
0.18741
0.0951785
0.031668
0.00424195
0.00848953
0.0429051
0.0935412
0.157519
0.219935
0.286727
0.628101
0.579253
0.501213
0.404599
0.290865
0.17756
0.0799576
0.0131726
-0.0154151
-0.0107874
0.0252438
0.0779778
0.144428
0.209046
0.277573
0.640228
0.593313
0.512296
0.409256
0.287786
0.167431
0.0644085
-0.00564387
-0.0353436
-0.0302647
0.00744339
0.062332
0.131293
0.19818
0.268414
0.653039
0.6082
0.523893
0.414052
0.284583
0.157037
0.0485356
-0.0247691
-0.0555242
-0.049916
-0.0104655
0.0466357
0.118148
0.187338
0.25929
0.666469
0.623843
0.535921
0.418903
0.281204
0.146347
0.0323397
-0.0441943
-0.0759457
-0.0697323
-0.0284789
0.030888
0.104987
0.1765
0.250196
0.680577
0.640291
0.54839
0.423816
0.277653
0.135375
0.0158267
-0.0639059
-0.0965873
-0.0896862
-0.0465648
0.0151217
0.0918453
0.165703
0.241162
0.695295
0.657464
0.561209
0.428709
0.273885
0.124099
-0.000995784
-0.0838886
-0.117432
-0.109764
-0.0647153
-0.000661138
0.0787202
0.154945
0.232179
0.710675
0.675403
0.574376
0.433584
0.269904
0.112534
-0.0181179
-0.104125
-0.138456
-0.129936
-0.0828965
-0.0164262
0.0656483
0.144261
0.223285
0.726646
0.694017
0.587794
0.438361
0.265669
0.100667
-0.0355241
-0.124593
-0.159635
-0.150184
-0.101096
-0.0321678
0.0526258
0.133643
0.214491
0.743251
0.713331
0.601448
0.443036
0.261187
0.0885185
-0.0531988
-0.145271
-0.180942
-0.170473
-0.119277
-0.0478497
0.0396876
0.123122
0.20584
0.76041
0.733241
0.615231
0.447532
0.256427
0.0760838
-0.0711171
-0.166126
-0.202345
-0.190779
-0.137423
-0.0634619
0.0268327
0.112695
0.197328
0.778153
0.753755
0.629119
0.451844
0.2514
0.0633916
-0.0892548
-0.187129
-0.22381
-0.211064
-0.155493
-0.0789655
0.0140995
0.102397
0.188987