/*--------------------------------*- C++ -*----------------------------------*\
  =========                 |
  \\      /  F ield         | OpenFOAM: The Open Source CFD Toolbox
   \\    /   O peration     | Website:  https://openfoam.org
    \\  /    A nd           | Version:  6.0
     \\/     M anipulation  |
\*---------------------------------------------------------------------------*/
FoamFile
{
    version     2.0;
    format      ascii;
    class       surfaceScalarField;
    location    "4";
    object      phi;
}
// * * * * * * * * * * * * * * * * * * * * * * * * * * * * * * * * * * * * * //

dimensions      [0 3 -1 0 0 0 0];

internalField   nonuniform List<scalar> 
68636
(
3.69611e-05
0.00309901
-2.91848e-08
7.44759e-05
0.00306454
0.000111726
0.00299616
0.000148091
0.0028935
0.000182927
0.00275802
0.000215742
0.00259229
0.00024614
0.00239898
0.000273792
0.0021803
0.000298415
0.00193833
0.000319734
0.00167544
0.000337524
0.00139415
0.000351581
0.00109751
0.000361824
0.000788851
0.000367706
0.000471666
0.000140221
0.00036573
3.64832e-05
0.00306252
3.40334e-09
7.36055e-05
0.00302742
0.000110501
0.00295922
0.000146502
0.0028575
0.000180949
0.00272356
0.00021336
0.00255991
0.000243364
0.00236904
0.000270653
0.0021531
0.000294955
0.00191414
0.000315997
0.00165451
0.000333561
0.00137671
0.000347439
0.00108377
0.000357589
0.000778852
0.000363014
0.000466435
0.000142072
0.000361581
3.61271e-05
0.00302638
2.62458e-08
7.28993e-05
0.00299067
0.000109411
0.00292266
0.000144992
0.00282191
0.000179004
0.00268953
0.000210991
0.00252792
0.000240601
0.00233942
0.000267532
0.00212615
0.000291518
0.00189015
0.000312288
0.0016337
0.000329626
0.00135934
0.000343323
0.00107001
0.00035331
0.000768804
0.000358898
0.000460743
0.000142202
0.000358417
3.57797e-05
0.00299055
4.16577e-08
7.21918e-05
0.00295424
0.000108306
0.0028865
0.000143459
0.00278673
0.00017704
0.0026559
0.000208614
0.00249633
0.00023784
0.0023102
0.000264425
0.00209958
0.000288104
0.0018665
0.000308609
0.00161322
0.000325727
0.00134227
0.000339246
0.00105654
0.000349063
0.000759045
0.00035473
0.000455153
0.00014224
0.000354885
3.54274e-05
0.0029551
5.24943e-08
7.14691e-05
0.00291822
0.000107179
0.00285076
0.000141906
0.00275199
0.000175063
0.00262273
0.000206234
0.00246514
0.000235089
0.00228132
0.000261338
0.0020733
0.000284719
0.00184309
0.000304966
0.00159293
0.000321867
0.00132533
0.000335213
0.00104312
0.000344872
0.000749318
0.000350538
0.000449373
0.00014132
0.000351097
3.50702e-05
0.00291995
6.20666e-08
7.07332e-05
0.00288253
0.000106036
0.00281542
0.000140338
0.00271766
0.000173079
0.00258994
0.000203858
0.00243433
0.000232352
0.00225281
0.000258274
0.00204737
0.000281363
0.00182001
0.000301358
0.00157294
0.000318048
0.00130866
0.000331225
0.00102997
0.000340738
0.000739824
0.000346367
0.000443766
0.000140587
0.000347198
3.47064e-05
0.00288519
7.81513e-08
6.9984e-05
0.00284727
0.000104878
0.0027805
0.00013876
0.00268377
0.000171094
0.0025576
0.00020149
0.00240393
0.000229631
0.00222466
0.000255234
0.00202174
0.00027804
0.00179718
0.000297788
0.00155314
0.000314272
0.00129213
0.000327283
0.00101689
0.000336661
0.000730385
0.000342239
0.000438083
0.000139234
0.000343251
3.43364e-05
0.00285076
8.14167e-08
6.92229e-05
0.00281236
0.000103708
0.00274599
0.000137175
0.00265028
0.000169109
0.00252562
0.000199131
0.00237387
0.000226929
0.00219684
0.00025222
0.00199644
0.000274748
0.00177464
0.000294256
0.00153363
0.000310537
0.00127586
0.000323387
0.00100405
0.000332638
0.000721134
0.000338155
0.000432562
0.000138144
0.000339296
3.39611e-05
0.00281675
7.98561e-08
6.84528e-05
0.00277789
0.00010253
0.0027119
0.000135589
0.00261722
0.000167131
0.00249408
0.000196787
0.00234421
0.000224248
0.00216937
0.000249234
0.00197143
0.00027149
0.00175237
0.000290761
0.00151432
0.000306844
0.00125974
0.000319536
0.000991309
0.000328667
0.000711955
0.00033412
0.000427018
0.000136611
0.00033535
3.3582e-05
0.00278308
7.74493e-08
6.76765e-05
0.00274376
0.000101348
0.0026782
0.000134004
0.00258454
0.000165161
0.00246288
0.000194458
0.00231488
0.00022159
0.00214222
0.000246277
0.00194673
0.000268266
0.00173038
0.000287305
0.00149528
0.000303193
0.00124385
0.000315731
0.000978778
0.000324746
0.000702931
0.000330132
0.000421611
0.000135345
0.000331427
3.32003e-05
0.00274984
7.45597e-08
6.68971e-05
0.00271008
0.000100166
0.00264493
0.000132424
0.00255228
0.000163204
0.0024321
0.000192149
0.00228594
0.000218957
0.00211541
0.00024335
0.00192233
0.000265077
0.00170864
0.000283888
0.00147644
0.000299584
0.00122813
0.00031197
0.000966351
0.000320873
0.000693989
0.000326194
0.00041621
0.000133733
0.000327533
3.28174e-05
0.00271693
7.03607e-08
6.61167e-05
0.00267675
9.89861e-05
0.00261204
0.000130853
0.00252039
0.000161261
0.00240166
0.00018986
0.00225731
0.00021635
0.0020889
0.000240454
0.00189821
0.000261922
0.00168716
0.000280509
0.00145784
0.000296017
0.00121262
0.000308253
0.000954119
0.000317047
0.000685181
0.000322303
0.000410926
0.000132378
0.000323674
3.24345e-05
0.00268447
6.62929e-08
6.5338e-05
0.00264386
9.78115e-05
0.00257956
0.000129292
0.00248891
0.000159335
0.00237162
0.000187594
0.00222906
0.00021377
0.00206272
0.00023759
0.00187438
0.000258803
0.00166594
0.00027717
0.00143945
0.000292491
0.00119728
0.000304581
0.000941998
0.000313268
0.000676464
0.00031846
0.000405667
0.000130747
0.000319851
3.20525e-05
0.00265234
6.40548e-08
6.45623e-05
0.00261132
9.66443e-05
0.00254747
0.000127744
0.00245779
0.000157427
0.00234191
0.00018535
0.00220111
0.000211218
0.00203684
0.000234757
0.00185083
0.00025572
0.00164497
0.000273868
0.0014213
0.000289007
0.00118214
0.000300952
0.000930059
0.000309535
0.000667865
0.000314662
0.000400506
0.000129349
0.000316068
3.16723e-05
0.00262064
6.21554e-08
6.37915e-05
0.00257922
9.54861e-05
0.00251577
0.00012621
0.00242707
0.000155538
0.00231259
0.00018313
0.00217352
0.000208694
0.00201128
0.000231956
0.00182757
0.000252671
0.00162425
0.000270605
0.00140335
0.000285564
0.00116716
0.000297366
0.000918232
0.000305846
0.000659362
0.000310911
0.000395383
0.00012772
0.000312325
3.12944e-05
0.00258927
6.13596e-08
6.30263e-05
0.00254745
9.43381e-05
0.00248445
0.000124692
0.0023967
0.000153669
0.00228358
0.000180935
0.00214623
0.000206198
0.001986
0.000229187
0.00180457
0.000249658
0.00160377
0.00026738
0.00138561
0.000282161
0.00115238
0.000293822
0.000906576
0.000302202
0.000650965
0.000307205
0.000390342
0.000126305
0.000308624
3.09195e-05
0.00255833
6.05016e-08
6.22681e-05
0.00251612
9.32013e-05
0.00245352
0.000123189
0.00236672
0.000151821
0.00225496
0.000178765
0.0021193
0.000203731
0.00196104
0.00022645
0.00178185
0.00024668
0.00158354
0.000264193
0.00136809
0.000278799
0.00113776
0.000290321
0.000895035
0.000298601
0.00064267
0.000303544
0.000385351
0.0001247
0.000304963
3.05479e-05
0.00252771
6.08335e-08
6.15169e-05
0.00248512
9.20763e-05
0.00242295
0.000121703
0.00233707
0.000149994
0.00222664
0.000176619
0.00209264
0.000201292
0.00193636
0.000223745
0.00175938
0.000243737
0.00156353
0.000261043
0.00135078
0.000275476
0.00112333
0.000286862
0.000883655
0.000295043
0.00063447
0.000299926
0.000380428
0.000123284
0.000301345
3.01799e-05
0.00249751
6.07651e-08
6.07738e-05
0.00245454
9.09637e-05
0.00239276
0.000120234
0.00230781
0.000148188
0.0021987
0.000174499
0.00206635
0.000198882
0.00191198
0.000221072
0.0017372
0.000240829
0.00154378
0.000257931
0.00133366
0.000272193
0.00110906
0.000283443
0.000872391
0.000291528
0.000626376
0.000296353
0.000375562
0.000121707
0.000297767
2.98157e-05
0.00246762
6.16294e-08
6.00387e-05
0.00242428
8.98638e-05
0.00236293
0.000118782
0.00227887
0.000146403
0.00217105
0.000172403
0.00204032
0.000196501
0.00188787
0.00021843
0.00171526
0.000237955
0.00152424
0.000254855
0.00131676
0.000268948
0.00109497
0.000280066
0.000861279
0.000288055
0.000618366
0.000292822
0.000370754
0.0001203
0.000294231
2.94555e-05
0.00243816
6.18246e-08
5.93121e-05
0.00239445
8.87768e-05
0.00233347
0.000117347
0.00225031
0.00014464
0.00214377
0.000170333
0.00201464
0.000194148
0.00186407
0.000215819
0.00169359
0.000235115
0.00150495
0.000251816
0.00130005
0.000265743
0.00108103
0.000276729
0.000850285
0.000284624
0.000610468
0.000289334
0.00036601
0.00011876
0.000290736
2.90994e-05
0.00240898
6.29141e-08
5.85939e-05
0.00236492
8.77027e-05
0.00230435
0.00011593
0.00222206
0.000142898
0.00211678
0.000168287
0.00198922
0.000191822
0.00184052
0.00021324
0.00167216
0.000232309
0.00148587
0.000248813
0.00128353
0.000262575
0.00106727
0.000273432
0.000839435
0.000281233
0.000602645
0.000285886
0.000361315
0.000117367
0.000287282
2.87475e-05
0.00238022
6.31981e-08
5.78844e-05
0.0023358
8.66416e-05
0.0022756
0.00011453
0.00219418
0.000141177
0.00209014
0.000166267
0.00196415
0.000189525
0.00181727
0.000210691
0.001651
0.000229536
0.00146703
0.000245846
0.00126722
0.000259446
0.00105367
0.000270174
0.000828702
0.000277883
0.000594936
0.000282481
0.000356689
0.000115866
0.000283869
2.83996e-05
0.00235175
6.43773e-08
5.71834e-05
0.00230699
8.55936e-05
0.00224718
0.000113147
0.00216661
0.000139477
0.00206379
0.00016427
0.00193933
0.000187255
0.00179428
0.000208173
0.00163007
0.000226796
0.0014484
0.000242914
0.00125109
0.000256353
0.00104023
0.000266955
0.000818108
0.000274574
0.000587296
0.000279117
0.000352103
0.000114492
0.000280496
2.80561e-05
0.00232368
6.46135e-08
5.64911e-05
0.00227857
8.45584e-05
0.00221912
0.000111782
0.0021394
0.000137798
0.00203779
0.000162298
0.00191484
0.000185012
0.00177157
0.000205684
0.00160941
0.000224089
0.00143
0.000240018
0.00123516
0.000253298
0.00102695
0.000263775
0.00080763
0.000271303
0.000579772
0.000275793
0.000347591
0.00011303
0.000277162
2.77167e-05
0.00229589
6.57622e-08
5.58072e-05
0.00225045
8.35361e-05
0.00219139
0.000110433
0.00211249
0.000136139
0.00201205
0.000160349
0.00189061
0.000182797
0.00174911
0.000203226
0.00158897
0.000221414
0.0014118
0.000237155
0.00121941
0.000250279
0.00101382
0.000260633
0.000797284
0.000268072
0.00057231
0.000272508
0.000343113
0.000111679
0.000273869
2.73815e-05
0.0022685
6.59259e-08
5.5132e-05
0.00222272
8.25264e-05
0.002164
0.0001091
0.00208592
0.000134501
0.00198667
0.000158425
0.0018667
0.000180608
0.00172694
0.000200797
0.00156879
0.000218771
0.00139383
0.000234327
0.00120386
0.000247296
0.00100085
0.000257528
0.000787054
0.00026488
0.000564966
0.000269263
0.000338713
0.000110263
0.000270614
2.70503e-05
0.00224138
6.70313e-08
5.4465e-05
0.00219527
8.15293e-05
0.00213693
0.000107785
0.00205965
0.000132883
0.00196154
0.000156523
0.00184303
0.000178445
0.00170501
0.000198397
0.00154882
0.00021616
0.00137606
0.000231533
0.00118847
0.000244349
0.000988037
0.000254461
0.000776951
0.000261725
0.000557678
0.000266056
0.000334341
0.000108946
0.000267399
2.67234e-05
0.00221465
6.70933e-08
5.38065e-05
0.00216821
8.05447e-05
0.0021102
0.000106485
0.00203372
0.000131284
0.00193676
0.000154645
0.00181969
0.000176309
0.00168336
0.000196026
0.00152912
0.00021358
0.00135851
0.000228772
0.00117328
0.000241438
0.00097537
0.00025143
0.000766963
0.000258609
0.000550509
0.000262888
0.000330049
0.000107566
0.000264222
2.64004e-05
0.00218817
6.81254e-08
5.31561e-05
0.00214143
7.95723e-05
0.00208378
0.000105202
0.00200808
0.000129706
0.00191223
0.00015279
0.00179658
0.000174198
0.00166194
0.000193683
0.00150962
0.000211031
0.00134116
0.000226044
0.00115826
0.000238561
0.000962856
0.000248436
0.000757096
0.00025553
0.000543391
0.000259757
0.000325782
0.000106298
0.000261084
2.60815e-05
0.00216209
6.81039e-08
5.2514e-05
0.00211502
7.8612e-05
0.00205769
0.000103935
0.00198277
0.000128146
0.00188803
0.000150957
0.00177378
0.000172113
0.0016408
0.000191369
0.00149037
0.000208513
0.00132402
0.000223349
0.00114342
0.000235718
0.000950487
0.000245477
0.000747343
0.000252488
0.000536393
0.000256665
0.000321595
0.000104951
0.000257983
2.57666e-05
0.00213625
6.90857e-08
5.18797e-05
0.00208887
7.76638e-05
0.0020319
0.000102683
0.00195773
0.000126606
0.00186408
0.000149147
0.00175122
0.000170053
0.00161988
0.000189083
0.00147133
0.000206024
0.00130707
0.000220686
0.00112875
0.00023291
0.000938264
0.000242555
0.000737708
0.000249482
0.000529441
0.000253609
0.000317431
0.000103742
0.00025492
2.54556e-05
0.00211079
6.89804e-08
5.12536e-05
0.0020631
7.67273e-05
0.00200643
0.000101447
0.00193302
0.000125085
0.00184046
0.000147358
0.00172896
0.000168018
0.00159924
0.000186823
0.00145254
0.000203566
0.00129033
0.000218056
0.00111427
0.000230136
0.000926186
0.000239667
0.000728185
0.000246512
0.000522609
0.00025059
0.000313346
0.000102425
0.000251894
2.51484e-05
0.00208557
6.99063e-08
5.0635e-05
0.00203758
7.58025e-05
0.00198126
0.000100226
0.00190859
0.000123582
0.00181708
0.000145592
0.00170693
0.000166008
0.00157881
0.000184592
0.00143394
0.000201137
0.00127378
0.000215456
0.00109994
0.000227394
0.00091425
0.000236814
0.000718774
0.000243578
0.000515819
0.000247607
0.000309282
0.000101279
0.000248905
2.48452e-05
0.00206072
6.97449e-08
5.00244e-05
0.00201242
7.48891e-05
0.00195641
9.90199e-05
0.00188447
0.000122098
0.00179402
0.000143847
0.00168519
0.000164022
0.00155865
0.000182387
0.00141559
0.000198738
0.00125743
0.000212888
0.00108579
0.000224686
0.000902454
0.000233995
0.000709476
0.000240679
0.000509149
0.000244661
0.000305297
9.99788e-05
0.000245953
2.45456e-05
0.00203611
7.06436e-08
4.94212e-05
0.00198752
7.39872e-05
0.00193183
9.7829e-05
0.00186061
0.000120632
0.00177119
0.000142123
0.00166368
0.00016206
0.0015387
0.000180208
0.00139743
0.000196367
0.00124126
0.000210351
0.00107179
0.00022201
0.000890796
0.00023121
0.000700284
0.000237815
0.000502517
0.000241749
0.000301329
9.88863e-05
0.000243039
2.42498e-05
0.00201186
7.04321e-08
4.88257e-05
0.00196297
7.30964e-05
0.00190758
9.66527e-05
0.00183707
0.000119184
0.00174867
0.00014042
0.00164246
0.000160121
0.00151902
0.000178056
0.00137951
0.000194024
0.00122531
0.000207844
0.00105798
0.000219366
0.000879278
0.000228458
0.000691204
0.000234986
0.000496005
0.000238873
0.000297439
9.75923e-05
0.00024016
2.39577e-05
0.00198784
7.13055e-08
4.82375e-05
0.00193866
7.22166e-05
0.00188359
9.5491e-05
0.00181378
0.000117754
0.00172638
0.000138738
0.00162145
0.000158206
0.00149954
0.00017593
0.00136177
0.00019171
0.00120951
0.000205367
0.00104431
0.000216754
0.000867892
0.00022574
0.000682226
0.00023219
0.000489527
0.000236031
0.000293563
9.6526e-05
0.000237318
2.36692e-05
0.00196417
7.10654e-08
4.76567e-05
0.0019147
7.13478e-05
0.00185991
9.43435e-05
0.00179079
0.000116341
0.0017044
0.000137076
0.00160073
0.000156315
0.00148031
0.000173829
0.00134427
0.000189424
0.00119393
0.00020292
0.00103082
0.000214174
0.000856643
0.000223054
0.000673359
0.000229428
0.000483168
0.000233225
0.000289762
9.52372e-05
0.000234505
2.33843e-05
0.00194072
7.19355e-08
4.7083e-05
0.00189097
7.04897e-05
0.0018365
9.32103e-05
0.00176806
0.000114946
0.00168264
0.000135434
0.00158022
0.000154446
0.00146129
0.000171754
0.00132695
0.000187165
0.00117851
0.000200503
0.00101747
0.000211624
0.000845522
0.000220401
0.00066459
0.0002267
0.000476839
0.000230451
0.000285973
9.41867e-05
0.000231724
2.3103e-05
0.00191762
7.16665e-08
4.65165e-05
0.00186758
6.96422e-05
0.00181339
9.20909e-05
0.00174562
0.000113568
0.00166118
0.000133813
0.00155999
0.0001526
0.00144252
0.000169704
0.00130986
0.000184934
0.00116329
0.000198115
0.00100429
0.000209105
0.000834538
0.000217779
0.00065593
0.000224004
0.000470629
0.000227712
0.00028226
9.29194e-05
0.000228974
2.2825e-05
0.00189473
7.25284e-08
4.59569e-05
0.00184442
6.88052e-05
0.00179053
9.09853e-05
0.00172343
0.000112206
0.00163993
0.000132211
0.00153996
0.000150776
0.00142395
0.000167678
0.00129294
0.000182729
0.00114822
0.000195755
0.000991254
0.000206617
0.000823676
0.00021519
0.000647364
0.000221341
0.000464445
0.000225004
0.000278555
9.18843e-05
0.000226257
2.25506e-05
0.00187218
7.22457e-08
4.54044e-05
0.00182159
6.79784e-05
0.00176797
8.98932e-05
0.00170153
0.000110861
0.00161898
0.000130629
0.0015202
0.000148974
0.00140562
0.000165677
0.00127625
0.000180551
0.00113336
0.000193424
0.000978388
0.000204158
0.000812948
0.000212631
0.000638907
0.000218711
0.000458381
0.000222331
0.000274927
9.06458e-05
0.000223572
2.22795e-05
0.00184984
7.3113e-08
4.48586e-05
0.00179899
6.71619e-05
0.00174566
8.88146e-05
0.00167986
0.000109533
0.00159824
0.000129066
0.00150065
0.000147194
0.00138748
0.0001637
0.00125974
0.000178399
0.00111865
0.00019112
0.000965653
0.000201729
0.000802338
0.000210103
0.00063054
0.000216112
0.000452337
0.000219688
0.000271303
8.96222e-05
0.000220918
2.20119e-05
0.00182784
7.28092e-08
4.43197e-05
0.0017767
6.63554e-05
0.00172364
8.77492e-05
0.00165848
0.00010822
0.00157778
0.000127521
0.00148136
0.000145436
0.00136958
0.000161747
0.00124344
0.000176273
0.00110414
0.000188845
0.000953088
0.000199329
0.000791862
0.000207606
0.00062228
0.000213544
0.000446414
0.000217079
0.000267759
8.84172e-05
0.000218296
2.17474e-05
0.00180603
7.36729e-08
4.37872e-05
0.00175464
6.55589e-05
0.00170187
8.66969e-05
0.00163733
0.000106924
0.00155753
0.000125996
0.00146227
0.000143699
0.00135187
0.000159818
0.00122731
0.000174173
0.00108977
0.000186597
0.000940649
0.000196958
0.000781499
0.000205138
0.000614106
0.000211007
0.000440509
0.0002145
0.000264213
8.74042e-05
0.000215705
2.14864e-05
0.00178455
7.33607e-08
4.32615e-05
0.00173289
6.47721e-05
0.00168037
8.56574e-05
0.00161646
0.000105644
0.00153756
0.000124489
0.00144343
0.000141983
0.00133439
0.000157912
0.00121139
0.000172098
0.0010756
0.000184376
0.000928379
0.000194616
0.000771268
0.000202701
0.00060604
0.000208501
0.000434724
0.000211953
0.00026075
8.62352e-05
0.000213145
2.12284e-05
0.00176327
7.4231e-08
4.27422e-05
0.00171135
6.3995e-05
0.00165911
8.46307e-05
0.00159581
0.000104379
0.00151779
0.000123001
0.00142479
0.000140287
0.0013171
0.000156029
0.00119564
0.000170048
0.00106156
0.000182182
0.000916229
0.000192302
0.000761144
0.000200293
0.000598054
0.000206025
0.000428952
0.000209435
0.000257281
8.52319e-05
0.000210617
2.09737e-05
0.0017423
7.39018e-08
4.22293e-05
0.00169012
6.32275e-05
0.00163813
8.36165e-05
0.00157543
0.000103129
0.00149829
0.00012153
0.0014064
0.000138612
0.00130003
0.000154168
0.0011801
0.000168022
0.00104772
0.000180014
0.000904247
0.000190016
0.000751153
0.000197913
0.000590177
0.000203579
0.000423302
0.000206949
0.0002539
8.41004e-05
0.000208118
2.07221e-05
0.00172152
7.47665e-08
4.17227e-05
0.0016691
6.24693e-05
0.00161738
8.26147e-05
0.00155527
0.000101895
0.00147898
0.000120078
0.0013882
0.000136958
0.00128314
0.00015233
0.00116471
0.000166022
0.00103402
0.000177873
0.00089238
0.000187758
0.000741264
0.000195563
0.000582375
0.000201162
0.000417662
0.000204492
0.000250506
8.31076e-05
0.00020565
2.04737e-05
0.00170106
7.44283e-08
4.12224e-05
0.00164837
6.17205e-05
0.00159689
8.16251e-05
0.00153538
0.000100676
0.00145995
0.000118643
0.00137025
0.000135323
0.00126648
0.000150515
0.00114954
0.000164045
0.0010205
0.000175757
0.000880677
0.000185526
0.000731506
0.000193241
0.000574682
0.000198775
0.000412143
0.000202066
0.000247204
8.20135e-05
0.000203211
2.02282e-05
0.00168078
7.52919e-08
4.07281e-05
0.00162786
6.09808e-05
0.00157664
8.06477e-05
0.0015157
9.94716e-05
0.0014411
0.000117225
0.00135247
0.000133709
0.00124999
0.000148721
0.00113451
0.000162092
0.00100712
0.000173667
0.000869086
0.000183322
0.000721847
0.000190947
0.000567059
0.000196416
0.000406631
0.000199668
0.000243884
8.10312e-05
0.000200802
1.99858e-05
0.0016608
7.49333e-08
4.024e-05
0.00160762
6.02501e-05
0.00155664
7.96821e-05
0.00149628
9.8282e-05
0.00142252
0.000115825
0.00133494
0.000132114
0.00123372
0.000146949
0.00111969
0.000160163
0.000993917
0.000171602
0.000857657
0.000181144
0.000712317
0.00018868
0.000559546
0.000194086
0.000401241
0.0001973
0.00024066
7.9974e-05
0.000198422
1.97463e-05
0.001641
7.57834e-08
3.97578e-05
0.0015876
5.95285e-05
0.00153687
7.87284e-05
0.00147707
9.71067e-05
0.00140411
0.000114441
0.00131758
0.000130538
0.00121761
0.000145198
0.00110502
0.000158257
0.000980844
0.000169562
0.000846335
0.000178993
0.000702881
0.000186442
0.000552099
0.000191784
0.000395854
0.000194959
0.000237413
7.9003e-05
0.000196071
1.95099e-05
0.0016215
7.54122e-08
3.92816e-05
0.00156784
5.88156e-05
0.00151735
7.77863e-05
0.00145811
9.59458e-05
0.00138597
0.000113075
0.00130047
0.000128981
0.00120172
0.000143469
0.00109054
0.000156375
0.000967954
0.000167547
0.000835174
0.000176867
0.000693574
0.000184229
0.00054476
0.000189509
0.000390589
0.000192648
0.000234265
7.79815e-05
0.000193748
1.92763e-05
0.00160218
7.62526e-08
3.88111e-05
0.0015483
5.81115e-05
0.00149804
7.68556e-05
0.00143935
9.4799e-05
0.001368
0.000111725
0.00128352
0.000127443
0.00118599
0.000141761
0.00107621
0.000154515
0.000955185
0.000165556
0.000824114
0.000174768
0.000684355
0.000182044
0.000537484
0.000187262
0.000385325
0.000190364
0.000231089
7.70218e-05
0.000191453
1.90456e-05
0.00158314
7.58597e-08
3.83465e-05
0.00152901
5.74159e-05
0.00147899
7.59363e-05
0.00142085
9.36662e-05
0.00135029
0.000110391
0.00126681
0.000125924
0.00117048
0.000140073
0.00106208
0.000152677
0.000942597
0.000163589
0.000813215
0.000172693
0.000675266
0.000179885
0.000530317
0.000185043
0.000380183
0.000188108
0.000228016
7.60347e-05
0.000189186
1.88176e-05
0.00156428
7.66782e-08
3.78876e-05
0.00150993
5.67288e-05
0.00146015
7.50282e-05
0.00140254
9.25471e-05
0.00133275
0.000109074
0.00125026
0.000124423
0.00115512
0.000138405
0.00104809
0.000150862
0.000930125
0.000161646
0.000802411
0.000170644
0.00066626
0.000177753
0.000523208
0.00018285
0.000375039
0.000185879
0.00022491
7.5087e-05
0.000186947
1.85926e-05
0.0015457
7.62677e-08
3.74342e-05
0.00149111
5.60501e-05
0.00144155
7.41312e-05
0.00138447
9.14416e-05
0.00131545
0.000107773
0.00123395
0.000122941
0.00113998
0.000136758
0.00103429
0.000149068
0.000917831
0.000159727
0.000791766
0.00016862
0.000657382
0.000175646
0.000516208
0.000180684
0.000370016
0.000183677
0.00022191
7.41327e-05
0.000184735
1.83702e-05
0.00152728
7.70641e-08
3.69864e-05
0.00147248
5.53798e-05
0.00142315
7.3245e-05
0.00136659
9.03495e-05
0.00129833
0.000106487
0.00121779
0.000121476
0.00112498
0.000135131
0.00102062
0.000147297
0.00090565
0.00015783
0.000781213
0.00016662
0.000648584
0.000173565
0.000509262
0.000178544
0.000364989
0.000181502
0.000218872
7.31967e-05
0.000182549
1.81507e-05
0.00150914
7.66267e-08
3.65441e-05
0.00145411
5.47175e-05
0.00140499
7.23697e-05
0.00134895
8.92708e-05
0.00128144
0.000105217
0.00120185
0.000120029
0.00111019
0.000133523
0.00100714
0.000145547
0.000893644
0.000155957
0.000770816
0.000164644
0.000639914
0.000171508
0.000502426
0.00017643
0.000360083
0.000179353
0.000215944
7.22738e-05
0.000180391
1.79337e-05
0.00149117
7.73906e-08
3.61072e-05
0.00143593
5.40634e-05
0.00138703
7.1505e-05
0.0013315
8.82051e-05
0.00126472
0.000103962
0.00118608
0.0001186
0.00109554
0.000131935
0.000993789
0.000143818
0.000881746
0.000154106
0.000760508
0.000162692
0.000631318
0.000169477
0.000495638
0.000174341
0.00035517
0.000177231
0.000212973
7.13503e-05
0.000178258
1.77195e-05
0.00147346
7.69308e-08
3.56757e-05
0.00141799
5.34172e-05
0.00136931
7.06508e-05
0.00131428
8.71523e-05
0.00124823
0.000102723
0.00117052
0.000117187
0.00108109
0.000130366
0.000980629
0.00014211
0.000870021
0.000152278
0.000750353
0.000160764
0.00062285
0.000167471
0.000488961
0.000172278
0.000350379
0.000175134
0.000210114
7.04571e-05
0.000176152
1.75078e-05
0.00145591
7.76627e-08
3.52494e-05
0.00140024
5.27789e-05
0.00135177
6.9807e-05
0.00129724
8.61124e-05
0.0012319
0.000101499
0.00115511
0.000115793
0.00106679
0.000128817
0.000967589
0.000140422
0.000858398
0.000150472
0.000740283
0.00015886
0.000614451
0.000165488
0.000482328
0.00017024
0.000345577
0.000173063
0.000207208
6.95455e-05
0.00017407
1.72988e-05
0.00143862
7.71743e-08
3.48283e-05
0.00138273
5.21483e-05
0.00133447
6.89735e-05
0.00128043
8.5085e-05
0.00121581
0.000100289
0.00113992
0.000114414
0.00105269
0.000127286
0.000954738
0.000138756
0.000846948
0.000148688
0.000730366
0.000156978
0.000606181
0.00016353
0.000475807
0.000168227
0.000340897
0.000171017
0.000204418
6.86807e-05
0.000172015
1.70922e-05
0.0014215
7.7865e-08
3.44123e-05
0.0013654
5.15255e-05
0.00131735
6.81501e-05
0.00126379
8.40702e-05
0.00119987
9.90942e-05
0.00112488
0.000113053
0.00103871
0.000125773
0.000942002
0.000137109
0.000835595
0.000146926
0.000720528
0.000155119
0.000597975
0.000161596
0.000469326
0.000166238
0.000336204
0.000168995
0.000201576
6.77819e-05
0.000169984
1.68883e-05
0.00140462
7.73493e-08
3.40014e-05
0.00134831
5.09101e-05
0.00130046
6.73367e-05
0.00124738
8.30676e-05
0.00118415
9.79139e-05
0.00111005
0.000111708
0.00102494
0.000124279
0.000929453
0.000135482
0.000824412
0.000145185
0.000710841
0.000153283
0.000589897
0.000159685
0.000462956
0.000164273
0.000331633
0.000166999
0.000198851
6.69441e-05
0.000167978
1.66868e-05
0.0013879
7.79958e-08
3.35956e-05
0.00133139
5.03024e-05
0.00128375
6.65331e-05
0.00123114
8.20773e-05
0.00116859
9.67478e-05
0.00109536
0.00011038
0.0010113
0.000122803
0.000917013
0.000133875
0.000813322
0.000143465
0.00070123
0.000151469
0.000581878
0.000157797
0.000456622
0.000162332
0.000327046
0.000165026
0.000196071
6.60573e-05
0.000165997
1.64878e-05
0.00137142
7.74472e-08
3.31946e-05
0.0013147
4.97019e-05
0.00126726
6.57394e-05
0.00121511
8.10989e-05
0.00115324
9.5596e-05
0.00108088
0.000109067
0.000997851
0.000121345
0.000904757
0.000132288
0.0008024
0.000141766
0.00069177
0.000149678
0.000573989
0.000155932
0.0004504
0.000160415
0.000322582
0.000163078
0.000193412
6.52453e-05
0.00016404
1.62912e-05
0.0013551
7.80434e-08
3.27986e-05
0.00129819
4.91088e-05
0.00125094
6.49553e-05
0.00119925
8.01324e-05
0.00113804
9.44581e-05
0.00106653
0.000107771
0.000984526
0.000119904
0.000892606
0.00013072
0.000791567
0.000140087
0.000682379
0.000147908
0.000566154
0.00015409
0.00044421
0.000158521
0.000318099
0.000161154
0.000190693
6.43712e-05
0.000162106
1.60971e-05
0.00133901
7.74639e-08
3.24074e-05
0.0012819
4.85229e-05
0.00123485
6.41806e-05
0.00118361
7.91777e-05
0.00112306
9.3334e-05
0.00105239
0.00010649
0.000971394
0.000118482
0.000880637
0.000129171
0.0007809
0.00013843
0.000673139
0.000146159
0.000558448
0.00015227
0.000438133
0.00015665
0.000313738
0.000159253
0.000188096
6.35838e-05
0.000160197
1.59053e-05
0.00132308
7.80078e-08
3.2021e-05
0.00126578
4.79441e-05
0.00121892
6.34155e-05
0.00116813
7.82345e-05
0.00110822
9.22236e-05
0.00103838
0.000105225
0.000958379
0.000117076
0.000868769
0.000127641
0.000770317
0.000136792
0.000663965
0.000144432
0.000550791
0.000150473
0.000432083
0.000154802
0.000309355
0.000157375
0.000185436
6.27218e-05
0.00015831
1.57159e-05
0.00130737
7.73954e-08
3.16392e-05
0.00124988
4.73723e-05
0.0012032
6.26595e-05
0.00115286
7.73028e-05
0.00109359
9.11267e-05
0.00102457
0.000103975
0.000945556
0.000115688
0.00085708
0.000126129
0.000759898
0.000135174
0.000654939
0.000142726
0.000543264
0.000148697
0.000426148
0.000152977
0.000305095
0.00015552
0.000182901
6.19578e-05
0.000156447
1.55287e-05
0.00129182
7.78824e-08
3.12622e-05
0.00123414
4.68076e-05
0.00118765
6.19128e-05
0.00113774
7.63824e-05
0.0010791
9.0043e-05
0.00101089
0.000102741
0.000932845
0.000114316
0.000845487
0.000124636
0.00074956
0.000133576
0.000645976
0.00014104
0.000535782
0.000146943
0.000420235
0.000151174
0.000300812
0.000153688
0.0001803
6.11085e-05
0.000154606
1.53439e-05
0.00127648
7.72358e-08
3.08897e-05
0.00121861
4.62496e-05
0.00117231
6.11751e-05
0.00112283
7.54732e-05
0.00106482
8.89726e-05
0.000997407
0.000101521
0.000920322
0.000112961
0.000834071
0.000123161
0.000739384
0.000131997
0.00063716
0.000139376
0.00052843
0.00014521
0.000414437
0.000149393
0.00029665
0.000151879
0.000177823
6.03671e-05
0.000152788
1.51613e-05
0.0012613
7.76609e-08
3.05218e-05
0.00120325
4.56984e-05
0.00115713
6.04464e-05
0.00110807
7.4575e-05
0.00105067
8.79151e-05
0.000984048
0.000100316
0.000907907
0.000111622
0.000822747
0.000121704
0.000729283
0.000130438
0.000628401
0.000137731
0.000521117
0.000143499
0.000408657
0.000147633
0.000292463
0.000150091
0.000175279
5.95297e-05
0.000150992
1.4981e-05
0.00124633
7.69789e-08
3.01583e-05
0.00118809
4.51539e-05
0.00114215
5.97265e-05
0.00109351
7.36877e-05
0.00103673
8.68705e-05
0.000970881
9.91261e-05
0.000895678
0.0001103
0.000811597
0.000120265
0.000719344
0.000128898
0.00061979
0.000136107
0.000513936
0.000141809
0.000402994
0.000145895
0.000288398
0.000148325
0.000172861
5.88099e-05
0.000149219
1.48028e-05
0.00123151
7.73408e-08
2.97993e-05
0.0011731
4.46161e-05
0.00112733
5.90154e-05
0.0010791
7.28112e-05
0.00102291
8.58386e-05
0.000957835
9.79505e-05
0.000883553
0.000108994
0.000800536
0.000118843
0.000709477
0.000127376
0.000611232
0.000134502
0.000506789
0.000140139
0.000397345
0.000144179
0.000284305
0.000146581
0.000170372
5.7985e-05
0.000147467
1.46269e-05
0.00121689
7.66232e-08
2.94446e-05
0.0011583
4.40847e-05
0.00111271
5.83129e-05
0.00106489
7.19453e-05
0.00100929
8.48192e-05
0.000944977
9.67891e-05
0.000871609
0.000107704
0.000789646
0.000117438
0.000699768
0.000125873
0.00060282
0.000132917
0.000499774
0.000138489
0.000391812
0.000142483
0.000280334
0.000144858
0.000168011
5.72859e-05
0.000145736
1.4453e-05
0.00120242
7.69183e-08
2.90942e-05
0.00114366
4.35599e-05
0.00109824
5.76189e-05
0.00105082
7.10899e-05
0.000995806
8.38122e-05
0.000932236
9.56419e-05
0.000859766
0.00010643
0.00077884
0.000116051
0.000690127
0.000124388
0.000594457
0.000131352
0.000492789
0.00013686
0.000386289
0.000140808
0.000276332
0.000143157
0.000165576
5.64727e-05
0.000144027
1.42814e-05
0.00118814
7.61668e-08
2.87481e-05
0.00112921
4.30413e-05
0.00108396
5.69334e-05
0.00103694
7.0245e-05
0.000982508
8.28174e-05
0.000919681
9.45086e-05
0.000848102
0.000105171
0.000768204
0.000114681
0.000680644
0.000122922
0.00058624
0.000129805
0.000485936
0.000135251
0.000380885
0.000139154
0.000272452
0.000141476
0.00016327
5.57936e-05
0.000142339
1.41117e-05
0.00117402
7.63952e-08
2.84063e-05
0.00111492
4.25291e-05
0.00106984
5.62561e-05
0.0010232
6.94103e-05
0.000969337
8.18348e-05
0.000907238
9.33892e-05
0.000836534
0.000103927