/*--------------------------------*- C++ -*----------------------------------*\
  =========                 |
  \\      /  F ield         | OpenFOAM: The Open Source CFD Toolbox
   \\    /   O peration     | Website:  https://openfoam.org
    \\  /    A nd           | Version:  6.0
     \\/     M anipulation  |
\*---------------------------------------------------------------------------*/
FoamFile
{
    version     2.0;
    format      ascii;
    class       volVectorField;
    location    "4";
    object      U;
}
// * * * * * * * * * * * * * * * * * * * * * * * * * * * * * * * * * * * * * //

dimensions      [0 1 -1 0 0 0 0];

internalField   nonuniform List<vector> 
34500
(
(1 0.000207354 -9.47588e-18)
(0.999927 0.000467758 9.12869e-17)
(0.999699 0.00040033 2.32255e-17)
(0.999329 -1.04538e-05 -1.36503e-17)
(0.998949 -0.000585815 1.3487e-16)
(0.998674 -0.0011259 3.10488e-16)
(0.998559 -0.00154096 1.56298e-17)
(0.99857 -0.00183252 -2.42438e-16)
(0.998664 -0.00204851 3.73664e-16)
(0.998806 -0.00222991 -2.14314e-17)
(0.998968 -0.0024247 -2.82898e-16)
(0.999155 -0.00265832 -4.65444e-16)
(0.999342 -0.00296059 2.16883e-16)
(1.0001 -0.00343735 4.45607e-16)
(0.990463 -0.00742899 -3.96066e-16)
(1.00004 0.000377047 -2.99987e-17)
(0.999782 0.000567635 -8.12151e-17)
(0.999197 0.000106319 1.92334e-16)
(0.998426 -0.000869765 -1.06801e-16)
(0.997729 -0.00196479 -6.97787e-17)
(0.997279 -0.00286457 -6.10013e-16)
(0.997119 -0.00350821 1.00476e-16)
(0.997174 -0.00395513 1.61908e-16)
(0.99736 -0.00431083 -2.79275e-16)
(0.997622 -0.00464876 -4.57373e-16)
(0.997921 -0.00504618 -1.93945e-16)
(0.998261 -0.00555833 -3.98788e-16)
(0.998589 -0.00625645 -3.08689e-16)
(0.999864 -0.00716708 -5.89789e-16)
(0.990599 -0.0120863 7.10767e-16)
(1.00009 0.000321596 -2.23419e-17)
(0.999776 0.000219873 9.94417e-17)
(0.999103 -0.000522104 3.56951e-17)
(0.998248 -0.00169773 -4.64891e-17)
(0.997482 -0.00289543 -1.11649e-16)
(0.996987 -0.00381392 6.5916e-17)
(0.996803 -0.00444174 -5.84188e-17)
(0.996855 -0.00486593 -9.01184e-17)
(0.997053 -0.00520808 4.69276e-16)
(0.997342 -0.00554497 -2.59221e-16)
(0.997676 -0.00595141 3.58995e-16)
(0.998061 -0.00647831 5.21354e-16)
(0.998422 -0.00718508 -3.4811e-16)
(0.999668 -0.00789231 3.16973e-16)
(0.993803 -0.0113261 -5.24494e-17)
(1.00011 0.00023561 4.03541e-18)
(0.999828 -0.000125109 -1.64896e-16)
(0.999188 -0.00104308 -1.6644e-16)
(0.998359 -0.00228737 7.55057e-17)
(0.99759 -0.00347856 -2.79386e-16)
(0.997076 -0.00434838 1.40685e-16)
(0.996864 -0.00491966 3.41551e-16)
(0.996892 -0.00529357 -2.5083e-16)
(0.997075 -0.00559338 -9.84002e-16)
(0.997355 -0.00589667 3.19039e-16)
(0.997689 -0.00626808 -4.93607e-17)
(0.99808 -0.00675258 2.7088e-16)
(0.99844 -0.00739877 4.36207e-16)
(0.99951 -0.00788736 -2.61037e-16)
(0.995884 -0.0105919 -2.00119e-16)
(1.0001 0.000149076 4.88973e-17)
(0.999867 -0.000431953 9.40887e-17)
(0.999283 -0.00147373 -1.21272e-16)
(0.998508 -0.0027393 5.11945e-17)
(0.997762 -0.00389347 3.4297e-16)
(0.997245 -0.00470338 4.39569e-16)
(0.997013 -0.00521773 -8.84566e-16)
(0.997016 -0.00554455 3.41248e-16)
(0.997178 -0.00580547 9.38121e-16)
(0.997441 -0.00607689 -3.91047e-16)
(0.997764 -0.006416 -1.14459e-16)
(0.998147 -0.00686433 -3.02403e-17)
(0.998498 -0.00746894 -2.70136e-16)
(0.999385 -0.00783215 5.96865e-16)
(0.997097 -0.0101497 -3.9287e-16)
(1.00008 6.49478e-05 2.83723e-17)
(0.999881 -0.000704044 3.51644e-17)
(0.999357 -0.0018337 1.27829e-16)
(0.998647 -0.00309341 -1.47537e-16)
(0.997937 -0.00419647 -6.63702e-17)
(0.997429 -0.00494551 -4.1345e-16)
(0.997184 -0.00540866 3.27167e-16)
(0.997167 -0.00569624 -8.29687e-17)
(0.997308 -0.00592593 -3.75662e-16)
(0.997552 -0.00617194 7.52305e-16)
(0.99786 -0.00648631 1.43392e-16)
(0.998229 -0.00690878 4.01635e-17)
(0.998569 -0.00748803 4.24023e-16)
(0.9993 -0.00777862 -1.21241e-15)
(0.997867 -0.0098345 4.58277e-16)
(1.00003 -1.08741e-05 -4.93806e-17)
(0.999867 -0.000935078 5.58085e-17)
(0.999402 -0.00212524 9.84691e-17)
(0.998757 -0.00336465 2.77885e-16)
(0.99809 -0.00441402 7.70995e-17)
(0.9976 -0.00510882 3.5032e-16)
(0.99735 -0.00553054 -1.50244e-16)
(0.997316 -0.00578892 -6.44178e-16)
(0.997439 -0.0059964 -5.81868e-16)
(0.997666 -0.00622494 -7.98154e-16)
(0.997958 -0.00652268 -3.38841e-16)
(0.998312 -0.00692876 1.29564e-17)
(0.998642 -0.00749322 -3.12503e-16)
(0.99925 -0.00773985 1.03282e-15)
(0.998385 -0.00960192 -1.35079e-16)
(0.999957 -7.60365e-05 -3.21531e-17)
(0.999828 -0.00112468 -2.2707e-17)
(0.999414 -0.00235489 -4.57747e-17)
(0.99883 -0.00356813 -1.49093e-16)
(0.998209 -0.00456776 1.09938e-16)
(0.997741 -0.00521831 3.94764e-18)
(0.997491 -0.00560972 1.06763e-16)
(0.997447 -0.00584946 6.93076e-16)
(0.997555 -0.00604383 5.66068e-17)
(0.997768 -0.0062627 -3.12658e-16)
(0.998047 -0.00655135 4.3317e-16)
(0.998388 -0.00694898 -3.96196e-17)
(0.998711 -0.00750609 -7.63938e-18)
(0.999224 -0.00772619 1.85167e-16)
(0.998752 -0.00944447 -3.90679e-16)
(0.999872 -0.000129679 -2.76635e-18)
(0.999766 -0.00127561 -1.19723e-16)
(0.999395 -0.00253054 -2.7458e-17)
(0.998867 -0.00371612 1.91923e-16)
(0.99829 -0.00467282 -1.46459e-16)
(0.997847 -0.00528989 2.3281e-16)
(0.997603 -0.00566154 1.52697e-16)
(0.997554 -0.00589192 1.02431e-17)
(0.997652 -0.00608099 1.39921e-16)
(0.997854 -0.0062967 3.54799e-17)
(0.998124 -0.0065821 -4.10001e-16)
(0.998454 -0.00697656 2.54067e-16)
(0.998773 -0.00752999 -1.60063e-16)
(0.999215 -0.00773194 -8.19345e-16)
(0.999021 -0.00933424 4.91256e-16)
(0.999775 -0.000172137 9.14009e-17)
(0.999685 -0.00139209 7.32349e-17)
(0.99935 -0.00266036 -3.27016e-17)
(0.99887 -0.00381958 -1.65381e-16)
(0.998337 -0.00474093 -1.67338e-16)
(0.997921 -0.00533453 -6.38313e-16)
(0.997687 -0.00569571 4.5016e-16)
(0.997637 -0.00592479 9.46012e-18)
(0.99773 -0.0061151 7.74022e-16)
(0.997925 -0.00633295 7.82014e-16)
(0.998189 -0.0066196 -2.24996e-16)
(0.99851 -0.00701474 -6.69359e-17)
(0.99883 -0.00756687 3.89499e-16)
(0.999218 -0.00775619 6.82937e-16)
(0.999226 -0.00926826 -5.26852e-16)
(0.99967 -0.000204419 -2.6647e-17)
(0.999588 -0.00147905 4.98952e-17)
(0.999282 -0.00275228 2.1534e-17)
(0.998845 -0.00388736 -4.16217e-17)
(0.998353 -0.00478078 -1.41964e-16)
(0.997965 -0.00535979 -2.02834e-17)
(0.997745 -0.00571823 -4.7679e-16)
(0.997698 -0.00595232 -6.67439e-16)
(0.99779 -0.00614893 -8.33766e-16)
(0.997982 -0.0063729 -4.92248e-16)
(0.998242 -0.00666395 2.80917e-16)
(0.998559 -0.00706192 -3.29722e-16)
(0.998882 -0.00761342 -2.39438e-16)
(0.999231 -0.00779212 -8.92749e-16)
(0.999387 -0.00922767 2.98254e-16)
(0.999556 -0.000227729 -7.46247e-17)
(0.999479 -0.00154126 -1.11601e-16)
(0.999197 -0.00281342 -5.42944e-18)
(0.998797 -0.00392737 9.68771e-17)
(0.998344 -0.0047995 1.25552e-16)
(0.997984 -0.00537118 -1.62743e-16)
(0.99778 -0.00573311 -1.74242e-16)
(0.99774 -0.00597734 2.16843e-16)
(0.997835 -0.00618422 1.05195e-15)
(0.998027 -0.00641736 -9.86328e-17)
(0.998286 -0.00671508 -1.56675e-16)
(0.998602 -0.0071175 2.7639e-16)
(0.99893 -0.00766905 4.3314e-18)
(0.99925 -0.00783915 2.29391e-16)
(0.999518 -0.00921422 4.89099e-17)
(0.999438 -0.00024363 1.07504e-16)
(0.999361 -0.00158329 7.08335e-17)
(0.999099 -0.00285014 -1.84458e-16)
(0.998731 -0.0039457 -7.49808e-17)
(0.998314 -0.00480233 5.49507e-18)
(0.997983 -0.00537271 3.08051e-16)
(0.997797 -0.005743 4.18938e-16)
(0.997767 -0.00600104 3.09104e-16)
(0.997866 -0.00622109 -4.94803e-16)
(0.998062 -0.0064655 6.68455e-16)
(0.998323 -0.00677139 -2.12454e-16)
(0.998639 -0.00717889 1.67556e-16)
(0.998975 -0.00773029 7.82099e-16)
(0.999275 -0.00789196 -2.45318e-17)
(0.999627 -0.00921335 1.7078e-18)
(0.999316 -0.000253156 -6.29435e-18)
(0.999237 -0.001609 -6.12129e-17)
(0.998991 -0.00286767 2.52577e-16)
(0.998651 -0.00394779 1.08024e-16)
(0.998269 -0.00479369 -4.09932e-17)
(0.997965 -0.00536736 3.4892e-16)
(0.997798 -0.0057497 -7.16776e-16)
(0.99778 -0.00602445 -4.52685e-16)
(0.997887 -0.00625983 -3.86437e-16)
(0.998088 -0.00651709 -5.62103e-16)
(0.998353 -0.0068322 3.33225e-16)
(0.998672 -0.00724539 -1.42998e-16)
(0.999017 -0.00779689 -1.04692e-15)
(0.999304 -0.00795115 4.69763e-16)
(0.999721 -0.0092299 1.02517e-16)
(0.99919 -0.000257863 -3.53832e-17)
(0.999107 -0.00162195 2.34425e-17)
(0.998876 -0.00287058 -3.07974e-17)
(0.998561 -0.00393761 -1.88084e-16)
(0.99821 -0.00477682 1.43535e-17)
(0.997934 -0.00535745 1.83118e-16)
(0.997788 -0.00575463 3.23137e-16)
(0.997783 -0.00604797 4.72575e-16)
(0.9979 -0.0063002 2.21648e-16)
(0.998107 -0.00657129 -2.01389e-16)
(0.998379 -0.00689626 3.14048e-17)
(0.998703 -0.00731518 2.22634e-16)
(0.999059 -0.00786652 -1.24316e-16)
(0.999337 -0.00801312 -5.52544e-16)
(0.999803 -0.00925283 1.80834e-17)
(0.999062 -0.000258348 -2.61326e-17)
(0.998975 -0.00162485 1.12007e-17)
(0.998755 -0.00286243 6.13158e-17)
(0.998463 -0.00391879 7.52476e-17)
(0.998142 -0.0047545 -1.06889e-16)
(0.997892 -0.00534475 -7.02056e-16)
(0.997767 -0.00575877 -2.06993e-16)
(0.997777 -0.00607218 -3.46742e-16)
(0.997905 -0.00634233 -6.00846e-16)
(0.998122 -0.00662799 6.55241e-16)
(0.998401 -0.00696327 3.7828e-16)
(0.998731 -0.00738818 -4.09577e-16)
(0.9991 -0.00793964 1.0498e-15)
(0.999372 -0.00807937 2.10251e-16)
(0.999876 -0.00928838 6.95002e-17)
(0.998933 -0.000256059 1.63076e-17)
(0.99884 -0.00162021 -8.07673e-17)
(0.998631 -0.00284623 -3.38048e-16)
(0.998359 -0.00389376 7.9461e-17)
(0.998067 -0.00472865 3.36307e-16)
(0.997843 -0.00533063 3.01578e-17)
(0.997739 -0.00576294 6.44726e-17)
(0.997764 -0.0060972 -1.26258e-17)
(0.997905 -0.00638596 7.33285e-16)
(0.998132 -0.00668655 -1.90721e-16)
(0.99842 -0.00703237 -5.13941e-16)
(0.998758 -0.00746307 -1.0907e-16)
(0.99914 -0.00801439 -4.59968e-17)
(0.999411 -0.00814684 2.26793e-16)
(0.999943 -0.00932621 -3.74126e-16)
(0.998803 -0.000251077 2.16331e-17)
(0.998704 -0.00160975 5.906e-17)
(0.998504 -0.00282419 2.21878e-16)
(0.998251 -0.00386482 -1.9859e-16)
(0.997986 -0.00470099 -2.06032e-16)
(0.997787 -0.00531609 1.10921e-16)
(0.997703 -0.00576765 2.12884e-16)
(0.997746 -0.00612338 4.20191e-16)
(0.9979 -0.00643119 -5.59299e-16)
(0.998138 -0.00674697 1.20414e-17)
(0.998437 -0.00710349 -1.65369e-16)
(0.998784 -0.00754007 1.63026e-17)
(0.99918 -0.00809155 -2.11954e-16)
(0.999451 -0.00821739 6.47043e-17)
(1.00001 -0.00937362 6.20196e-16)
(0.998672 -0.000244712 -2.80011e-18)
(0.998568 -0.0015952 1.01387e-16)
(0.998377 -0.00279828 -1.00577e-16)
(0.998141 -0.00383339 2.7909e-16)
(0.9979 -0.00467259 9.82507e-17)
(0.997725 -0.00530197 1.57601e-16)
(0.997663 -0.00577344 2.96653e-16)
(0.997723 -0.00615083 -6.6147e-16)
(0.997891 -0.00647792 1.51601e-16)
(0.998142 -0.00680896 -4.33234e-17)
(0.998452 -0.00717617 4.66288e-16)
(0.998809 -0.0076184 -2.79357e-16)
(0.99922 -0.00816982 -1.35154e-16)
(0.999494 -0.00828858 -4.65815e-17)
(1.00006 -0.00942154 -1.35978e-16)
(0.998541 -0.000236642 -3.16697e-17)
(0.998432 -0.00157757 -2.4225e-17)
(0.998248 -0.0027698 3.19827e-16)
(0.998028 -0.00380094 -2.12384e-16)
(0.997811 -0.00464455 1.50292e-16)
(0.997659 -0.00528888 -2.7893e-16)
(0.997618 -0.00578066 -5.99304e-17)
(0.997696 -0.0061799 4.83632e-16)
(0.997879 -0.00652636 2.31851e-16)
(0.998143 -0.0068727 3.41804e-16)
(0.998466 -0.00725061 -5.83084e-16)
(0.998833 -0.00769857 6.49163e-16)
(0.999261 -0.00825026 -1.706e-16)
(0.999538 -0.00836257 -1.59963e-16)
(1.00012 -0.00947773 -1.10987e-16)
(0.99841 -0.000228137 4.08839e-17)
(0.998296 -0.00155801 1.22196e-17)
(0.998119 -0.00273997 -3.79341e-16)
(0.997914 -0.00376818 -1.5676e-17)
(0.99772 -0.00461741 -1.21999e-16)
(0.99759 -0.00527733 2.27132e-16)
(0.99757 -0.00578961 -9.81874e-17)
(0.997665 -0.00621059 -1.99011e-16)
(0.997865 -0.00657641 3.1249e-16)
(0.998143 -0.00693797 -7.11272e-17)
(0.998478 -0.00732649 7.41381e-16)
(0.998858 -0.0077799 -7.58261e-16)
(0.999301 -0.00833161 2.31294e-16)
(0.999585 -0.0084369 -7.67525e-17)
(1.00017 -0.00953288 -1.59248e-16)
(0.998279 -0.000218523 -5.51553e-18)
(0.998161 -0.00153701 -1.7221e-16)
(0.997991 -0.00270945 1.46943e-16)
(0.9978 -0.00373604 5.5512e-17)
(0.997626 -0.00459181 -7.48634e-17)
(0.997518 -0.00526759 -7.52095e-17)
(0.997518 -0.00580047 1.68392e-16)
(0.997632 -0.00624315 3.44657e-16)
(0.997847 -0.00662825 -3.73797e-16)
(0.99814 -0.00700495 -7.82323e-17)
(0.99849 -0.00740401 -4.09821e-16)
(0.998882 -0.00786292 7.58699e-16)
(0.999342 -0.00841491 -8.34736e-17)
(0.999632 -0.00851367 -4.25835e-17)
(1.00023 -0.00959515 1.50483e-16)
(0.998148 -0.000209033 5.93502e-18)
(0.998027 -0.00151538 1.09969e-16)
(0.997862 -0.00267903 -5.27665e-18)
(0.997684 -0.00370481 1.23973e-16)
(0.99753 -0.00456798 -1.57963e-16)
(0.997444 -0.00525998 5.55421e-17)
(0.997464 -0.00581347 -5.51009e-17)
(0.997596 -0.00627761 -2.8717e-16)
(0.997828 -0.00668186 7.80564e-17)
(0.998137 -0.00707354 -3.02263e-16)
(0.9985 -0.007483 9.276e-17)
(0.998906 -0.00794713 -4.18681e-16)
(0.999384 -0.00849916 -5.33329e-17)
(0.999681 -0.00859073 8.4019e-17)
(1.00028 -0.00965555 -1.40046e-16)
(0.998018 -0.000198765 -2.97189e-17)
(0.997893 -0.0014933 -2.78756e-17)
(0.997734 -0.00264904 -8.36213e-18)
(0.997569 -0.00367511 -1.76301e-16)
(0.997433 -0.00454637 -7.27299e-18)
(0.997367 -0.00525467 1.20152e-16)
(0.997407 -0.00582874 2.16004e-17)
(0.997557 -0.00631422 2.93726e-16)
(0.997807 -0.0067375 -1.15491e-16)
(0.998131 -0.00714406 4.23704e-16)
(0.99851 -0.00756382 -5.35325e-17)
(0.99893 -0.00803322 -2.88221e-18)
(0.999426 -0.00858555 -1.53132e-16)
(0.999731 -0.00867034 -3.58025e-16)
(1.00033 -0.00972266 1.6414e-16)
(0.997889 -0.000188978 2.49937e-17)
(0.99776 -0.00147134 8.63351e-17)
(0.997607 -0.00261993 3.17665e-17)
(0.997453 -0.00364697 -3.30376e-17)
(0.997335 -0.00452699 3.36269e-16)
(0.997288 -0.00525183 -7.24307e-17)
(0.997347 -0.00584641 -3.10429e-16)
(0.997517 -0.00635294 -1.6426e-16)
(0.997784 -0.00679508 1.78702e-16)
(0.998125 -0.00721633 -4.59247e-16)
(0.99852 -0.00764626 -2.31794e-16)
(0.998954 -0.00812062 -7.25233e-17)
(0.999468 -0.00867295 2.92466e-16)
(0.999782 -0.00875015 -1.52318e-16)
(1.00037 -0.0097874 -1.29746e-16)
(0.99776 -0.000178578 -5.20786e-17)
(0.997628 -0.00144946 -5.40219e-17)
(0.99748 -0.00259181 -1.03308e-16)
(0.997337 -0.00362078 2.39753e-17)
(0.997236 -0.0045101 5.25443e-17)
(0.997208 -0.00525148 -8.96226e-17)
(0.997286 -0.0058665 -3.23777e-17)
(0.997474 -0.00639395 -3.20057e-17)
(0.997759 -0.00685481 3.44657e-17)
(0.998117 -0.00729061 1.08596e-16)
(0.998528 -0.00773061 4.99312e-16)
(0.998979 -0.00820995 1.89934e-16)
(0.999511 -0.00876246 -1.71793e-16)
(0.999834 -0.00883232 3.21448e-16)
(1.00042 -0.00985828 5.8934e-17)
(0.997632 -0.000168849 3.57146e-17)
(0.997497 -0.00142812 -1.1684e-16)
(0.997353 -0.00256497 1.28612e-16)
(0.99722 -0.00359644 -1.39439e-16)
(0.997135 -0.00449563 -1.07347e-16)
(0.997126 -0.00525374 -9.95302e-17)
(0.997223 -0.00588912 -4.0977e-17)
(0.99743 -0.00643724 -1.17501e-16)
(0.997733 -0.00691663 -2.13894e-16)
(0.998109 -0.00736683 2.2479e-16)
(0.998537 -0.00781672 -2.87659e-16)
(0.999003 -0.00830074 -2.50152e-16)
(0.999555 -0.00885309 1.74054e-16)
(0.999888 -0.00891468 -1.79268e-16)
(1.00047 -0.00992576 -8.44607e-17)
(0.997504 -0.000158568 1.08771e-17)
(0.997367 -0.00140717 -1.65079e-17)
(0.997227 -0.0025394 -4.02218e-17)
(0.997104 -0.00357428 3.73735e-17)
(0.997034 -0.00448379 -1.21372e-16)
(0.997042 -0.00525865 9.31257e-17)
(0.997158 -0.00591433 3.15943e-16)
(0.997384 -0.00648302 4.42461e-16)
(0.997705 -0.00698083 -1.15549e-16)
(0.998099 -0.00744531 -2.50553e-16)
(0.998545 -0.007905 -1.2865e-16)
(0.999028 -0.00839375 1.99565e-16)
(0.9996 -0.00894609 -2.44726e-16)
(0.999942 -0.0089996 7.97241e-16)
(1.00052 -0.00999808 3.59229e-16)
(0.997378 -0.000149073 -4.39306e-17)
(0.997237 -0.00138696 7.14724e-17)
(0.997101 -0.0025153 1.06568e-16)
(0.996987 -0.00355408 1.14457e-16)
(0.996932 -0.00447443 -1.41559e-16)
(0.996957 -0.00526625 -2.78964e-17)
(0.997091 -0.00594216 7.21878e-17)
(0.997336 -0.00653121 1.84187e-17)
(0.997676 -0.00704728 3.49032e-16)
(0.998089 -0.00752591 2.20599e-16)
(0.998553 -0.00799522 3.92641e-16)
(0.999054 -0.0084884 5.26351e-17)
(0.999645 -0.00904031 8.8954e-17)
(0.999998 -0.00908462 -3.61022e-16)
(1.00057 -0.0100677 -3.43662e-16)
(0.997251 -0.000139027 1.8715e-17)
(0.997108 -0.00136724 4.83586e-17)
(0.996976 -0.00249255 -2.06197e-16)
(0.99687 -0.00353608 1.90202e-16)
(0.996829 -0.00446767 1.54457e-16)
(0.996871 -0.00527648 2.97415e-16)
(0.997023 -0.0059726 -5.77704e-17)
(0.997287 -0.00658197 -3.25839e-17)
(0.997646 -0.00711618 -1.1233e-16)
(0.998078 -0.00760888 6.55119e-17)
(0.99856 -0.00808771 -6.89101e-16)
(0.999079 -0.00858533 5.38082e-16)
(0.999691 -0.00913691 -5.07688e-17)
(1.00005 -0.0091721 -5.12301e-16)
(1.00062 -0.0101403 2.6396e-16)
(0.997126 -0.000129823 3.32095e-17)
(0.99698 -0.00134837 7.03187e-17)
(0.996851 -0.0024713 2.24819e-16)
(0.996753 -0.00352003 -3.19616e-16)
(0.996725 -0.00446335 2.54352e-17)
(0.996783 -0.00528939 -2.28835e-16)
(0.996953 -0.0060057 2.22603e-17)
(0.997236 -0.00663524 -4.40765e-16)
(0.997615 -0.00718748 2.97767e-16)
(0.998066 -0.00769412 -3.59833e-16)
(0.998568 -0.00818231 5.20773e-16)
(0.999105 -0.00868406 -5.98214e-16)
(0.999739 -0.00923488 -2.96655e-16)
(1.00011 -0.00925972 2.10407e-16)
(1.00067 -0.0102085 -2.11163e-16)
(0.997001 -0.000120036 -3.92588e-17)
(0.996853 -0.00133004 -3.35126e-17)
(0.996726 -0.00245143 -3.95989e-17)
(0.996636 -0.00350618 1.25811e-17)
(0.99662 -0.00446164 -1.87627e-17)
(0.996693 -0.00530498 -2.7329e-16)
(0.996881 -0.00604152 -2.55568e-16)
(0.997183 -0.00669124 1.74071e-16)
(0.997582 -0.00726146 8.3005e-17)
(0.998053 -0.00778197 5.45609e-16)
(0.998575 -0.00827945 -4.07984e-16)
(0.999132 -0.00878535 1.05778e-16)
(0.999787 -0.00933552 3.93593e-17)
(1.00017 -0.00934991 -8.40363e-17)
(1.00072 -0.0102786 3.18204e-16)
(0.996877 -0.000111126 2.30725e-17)
(0.996726 -0.00131258 -3.95036e-17)
(0.996601 -0.00243305 1.61971e-17)
(0.996518 -0.00349423 1.63322e-16)
(0.996514 -0.00446232 7.98716e-17)
(0.996603 -0.00532324 4.15389e-16)
(0.996808 -0.00608005 8.34914e-17)
(0.997129 -0.00674984 -7.34798e-17)
(0.997548 -0.00733798 -2.57597e-16)
(0.99804 -0.00787225 -3.53619e-16)
(0.998582 -0.00837889 3.09958e-16)
(0.999159 -0.0088886 2.49636e-17)
(0.999836 -0.00943769 1.5451e-16)
(1.00023 -0.00944022 1.76887e-16)
(1.00078 -0.0103447 -7.356e-17)
(0.996753 -0.000101583 -2.87997e-17)
(0.996599 -0.00129564 -1.03216e-16)
(0.996476 -0.00241599 -6.53232e-17)
(0.9964 -0.00348438 1.15319e-16)
(0.996407 -0.00446549 7.46641e-17)
(0.996511 -0.00534411 4.86874e-17)
(0.996734 -0.00612128 1.93555e-17)
(0.997074 -0.00681121 3.32971e-16)
(0.997513 -0.00741724 1.116e-16)
(0.998026 -0.00796523 -2.35753e-16)
(0.998589 -0.00848095 -4.74848e-17)
(0.999186 -0.0089945 -2.45883e-16)
(0.999886 -0.00954253 -2.27232e-16)
(1.00029 -0.00953325 5.66222e-17)
(1.00083 -0.0104124 -1.16889e-16)
(0.99663 -9.29318e-05 2.33154e-17)
(0.996473 -0.00127953 1.2565e-16)
(0.996351 -0.00240035 -7.43118e-17)
(0.996281 -0.00347635 -5.33551e-17)
(0.996299 -0.00447097 7.48562e-17)
(0.996417 -0.0053676 -4.86151e-17)
(0.996657 -0.00616524 -7.85358e-17)
(0.997017 -0.00687526 -2.05535e-16)
(0.997477 -0.00749915 4.46013e-17)
(0.998012 -0.0080608 5.152e-16)
(0.998596 -0.00858546 1.73439e-16)
(0.999214 -0.00910251 4.62303e-16)
(0.999938 -0.00964903 1.96401e-16)
(1.00036 -0.0096266 2.73478e-16)
(1.00089 -0.010477 2.4764e-17)
(0.996507 -8.35848e-05 2.79818e-17)
(0.996347 -0.00126392 3.48259e-17)
(0.996226 -0.00238597 9.07561e-17)
(0.996162 -0.00347036 -1.61871e-16)
(0.99619 -0.00447891 -4.14967e-16)
(0.996323 -0.00539374 -7.06385e-17)
(0.99658 -0.00621199 -3.36954e-18)
(0.996959 -0.00694223 4.48707e-17)
(0.99744 -0.00758401 2.33286e-17)
(0.997997 -0.00815931 -3.23112e-16)
(0.998603 -0.00869287 1.93052e-16)
(0.999243 -0.00921348 -3.13299e-16)
(0.999991 -0.00975853 -1.02018e-16)
(1.00042 -0.00972319 -3.3754e-16)
(1.00095 -0.0105446 -1.91586e-17)
(0.996385 -7.51365e-05 -3.89955e-17)
(0.996221 -0.00124911 -6.67719e-17)
(0.996101 -0.00237294 -5.94026e-17)
(0.996042 -0.00346611 -3.04529e-17)
(0.99608 -0.00448909 6.19047e-17)
(0.996226 -0.00542248 -1.63647e-16)
(0.996501 -0.00626149 6.9569e-17)
(0.9969 -0.00701199 1.82965e-16)
(0.997402 -0.00767166 -2.43547e-16)
(0.997981 -0.00826058 1.06081e-16)
(0.998611 -0.00880288 1.17408e-16)
(0.999272 -0.00932673 9.06533e-17)
(1.00005 -0.0098698 6.41367e-16)
(1.00049 -0.00982047 3.3632e-17)
(1.00102 -0.0106111 -1.5747e-16)
(0.996263 -6.59227e-05 9.40377e-18)
(0.996095 -0.00123473 -3.7623e-18)
(0.995976 -0.00236107 -6.55569e-17)
(0.995922 -0.00346378 2.60307e-16)
(0.995968 -0.00450161 7.99645e-18)
(0.996129 -0.00545379 1.71778e-16)
(0.99642 -0.00631376 -9.54596e-17)
(0.996839 -0.00708469 -4.90731e-16)
(0.997363 -0.00776231 2.26728e-16)
(0.997965 -0.00836487 1.46695e-17)
(0.998618 -0.00891587 -5.49952e-16)
(0.999302 -0.009443 3.59878e-18)
(1.0001 -0.00998407 -4.11282e-16)
(1.00055 -0.00992144 2.22525e-16)
(1.00109 -0.0106843 5.57083e-17)
(0.996141 -5.76118e-05 1.31461e-17)
(0.99597 -0.00122108 -9.5927e-18)
(0.99585 -0.00235044 1.56743e-16)
(0.9958 -0.00346309 -1.03131e-16)
(0.995856 -0.00451627 -1.59475e-16)
(0.99603 -0.00548767 -3.8936e-16)
(0.996338 -0.0063688 -1.88289e-16)
(0.996777 -0.00716024 2.077e-16)
(0.997323 -0.00785586 5.01041e-17)
(0.997949 -0.00847205 -2.72949e-16)
(0.998625 -0.00903162 1.77266e-16)
(0.999333 -0.0095617 -4.78904e-17)
(1.00016 -0.0101002 1.52027e-16)
(1.00063 -0.0100238 -4.02301e-17)
(1.00115 -0.010755 -1.05685e-16)
(0.99602 -4.84661e-05 -3.24439e-17)
(0.995844 -0.00120782 2.76639e-17)
(0.995724 -0.00234093 -9.11822e-17)
(0.995678 -0.00346427 -5.55342e-17)
(0.995743 -0.00453326 2.48324e-16)
(0.995929 -0.00552415 6.01429e-16)
(0.996254 -0.00642671 3.95839e-16)
(0.996713 -0.00723891 1.57065e-16)
(0.997282 -0.00795264 2.84239e-17)
(0.997932 -0.0085825 3.37956e-17)
(0.998633 -0.00915064 1.20429e-16)
(0.999365 -0.00968372 -1.80794e-16)
(1.00022 -0.0102198 -2.49442e-17)
(1.0007 -0.0101305 1.33249e-16)
(1.00122 -0.0108364 2.76674e-16)
(0.995899 -4.02286e-05 9.84142e-18)
(0.995719 -0.00119523 -3.47606e-17)
(0.995598 -0.00233257 8.36955e-19)
(0.995555 -0.003467 8.03768e-17)
(0.995628 -0.00455235 5.39405e-17)
(0.995827 -0.00556318 -3.47993e-16)
(0.996169 -0.00648744 -1.71099e-16)
(0.996648 -0.00732051 -3.01561e-16)
(0.99724 -0.00805246 -6.60708e-17)
(0.997914 -0.00869598 7.10239e-16)
(0.998641 -0.00927257 8.38148e-18)
(0.999398 -0.00980832 -1.31942e-16)
(1.00028 -0.0103414 -4.09605e-16)
(1.00077 -0.0102384 -1.94475e-17)
(1.00129 -0.0109155 -7.24278e-17)
(0.995778 -3.10869e-05 2.20764e-17)
(0.995593 -0.00118294 -2.87634e-18)
(0.995471 -0.00232523 2.83946e-17)
(0.995431 -0.00347148 -7.21741e-17)
(0.995512 -0.00457365 -2.12121e-17)
(0.995724 -0.00560474 1.41926e-16)
(0.996082 -0.00655102 -2.00635e-16)
(0.996582 -0.00740524 2.52675e-16)
(0.997197 -0.00815556 4.11625e-18)
(0.997897 -0.00881281 -3.79078e-16)
(0.998649 -0.00939786 -8.17108e-17)
(0.999431 -0.00993631 5.07589e-16)
(1.00034 -0.0104664 1.79505e-16)
(1.00085 -0.0103505 -4.75935e-16)
(1.00135 -0.0110044 -3.65263e-17)
(0.995657 -2.28605e-05 -1.60753e-17)
(0.995467 -0.00117125 5.10255e-17)
(0.995344 -0.00231893 9.3559e-18)
(0.995307 -0.00347742 -1.53825e-16)
(0.995394 -0.00459697 1.77731e-17)
(0.995619 -0.00564882 -6.11414e-18)
(0.995994 -0.00661743 4.65909e-16)
(0.996515 -0.00749298 2.57437e-16)
(0.997153 -0.00826181 -6.41908e-16)
(0.997879 -0.00893282 -2.83958e-16)
(0.998658 -0.00952621 1.69591e-16)
(0.999466 -0.010067 2.10659e-18)
(1.0004 -0.0105937 4.28894e-16)
(1.00093 -0.0104639 4.37136e-16)
(1.00142 -0.01109 1.21817e-16)
(0.995536 -1.36626e-05 -7.24471e-18)
(0.995341 -0.00115981 6.48827e-18)
(0.995215 -0.00231361 1.02415e-16)
(0.995181 -0.00348507 2.64708e-16)
(0.995275 -0.00462251 -3.1676e-17)
(0.995512 -0.00569549 -3.01576e-16)
(0.995904 -0.00668683 -3.48328e-16)
(0.996446 -0.00758404 -6.57556e-16)
(0.997109 -0.00837157 4.21812e-16)
(0.99786 -0.00905645 3.37056e-16)
(0.998666 -0.00965819 -1.5297e-16)
(0.999501 -0.0102014 -2.64746e-16)
(1.00047 -0.0107248 -4.21053e-16)
(1.00101 -0.0105819 -3.49777e-17)
(1.00149 -0.0111855 -3.64354e-16)
(0.995416 -5.38891e-06 1.07885e-17)
(0.995215 -0.00114892 -3.2038e-17)
(0.995087 -0.00230924 -1.20591e-16)
(0.995054 -0.00349412 -2.08975e-16)
(0.995155 -0.00465002 -4.39314e-17)
(0.995404 -0.00574469 2.86873e-16)
(0.995812 -0.00675909 2.15353e-16)
(0.996376 -0.00767822 6.66054e-16)
(0.997063 -0.00848461 6.85043e-18)
(0.997842 -0.00918342 -1.43789e-16)
(0.998676 -0.00979337 1.14509e-17)
(0.999538 -0.0103387 -2.63306e-16)
(1.00053 -0.0108583 -3.58256e-16)
(1.0011 -0.0107012 -3.23198e-16)
(1.00157 -0.0112768 3.80513e-16)
(0.995295 3.92382e-06 -3.66937e-17)
(0.995088 -0.0011382 8.11056e-17)
(0.994957 -0.00230574 -9.37434e-18)
(0.994926 -0.00350476 2.51266e-16)
(0.995033 -0.00467964 -9.81025e-17)
(0.995294 -0.00579642 -6.95089e-17)
(0.995719 -0.00683432 7.21841e-17)
(0.996305 -0.00777575 -4.19753e-16)
(0.997017 -0.00860121 -3.01064e-16)
(0.997823 -0.00931408 -1.06391e-17)
(0.998685 -0.00993225 9.30523e-17)
(0.999576 -0.0104798 1.45633e-16)
(1.0006 -0.0109955 3.75039e-16)
(1.00118 -0.0108248 3.82349e-16)
(1.00164 -0.0113779 -5.36758e-17)
(0.995174 1.23039e-05 3.1198e-18)
(0.994961 -0.00112794 -2.69354e-17)
(0.994827 -0.00230311 -1.64697e-16)
(0.994796 -0.00351672 -2.58442e-16)
(0.99491 -0.00471118 9.34717e-17)
(0.995182 -0.00585067 1.32146e-16)
(0.995625 -0.00691246 -3.27157e-16)
(0.996232 -0.00787647 -8.0325e-17)
(0.99697 -0.00872122 2.89583e-16)
(0.997804 -0.00944823 -1.15532e-16)
(0.998696 -0.0100745 1.2521e-16)
(0.999615 -0.0106238 1.30153e-16)
(1.00067 -0.0111353 5.78005e-17)
(1.00127 -0.0109498 -4.73049e-16)
(1.00172 -0.0114739 -1.07884e-16)
(0.995053 2.17857e-05 2.54885e-17)
(0.994834 -0.00111781 -4.40374e-17)
(0.994695 -0.0023013 1.21705e-16)
(0.994666 -0.00353025 2.1822e-16)
(0.994785 -0.00474485 7.01347e-17)
(0.995069 -0.00590752 -2.55273e-16)
(0.995529 -0.00699371 1.64392e-16)
(0.996158 -0.00798074 1.33305e-16)
(0.996922 -0.00884505 2.51892e-16)
(0.997785 -0.00958635 1.64361e-16)
(0.998707 -0.0102208 -3.05842e-16)
(0.999655 -0.0107719 3.47079e-17)
(1.00074 -0.0112792 -5.01851e-17)
(1.00136 -0.0110795 -1.3011e-17)
(1.0018 -0.0115801 4.20317e-17)
(0.994932 3.03236e-05 3.0895e-17)
(0.994705 -0.00110808 4.89186e-18)
(0.994563 -0.00230028 1.69977e-16)
(0.994534 -0.00354503 -6.35058e-17)
(0.994659 -0.00478043 1.45571e-16)
(0.994954 -0.00596689 1.26697e-16)
(0.995431 -0.00707794 4.72659e-17)
(0.996083 -0.00808831 9.29318e-17)
(0.996873 -0.00897245 -1.17497e-16)
(0.997766 -0.00972811 -1.13174e-17)
(0.998718 -0.0103706 -8.76144e-17)
(0.999697 -0.0109232 -3.40226e-17)
(1.00081 -0.0114257 1.21503e-16)
(1.00146 -0.0112103 -9.26477e-19)
(1.00189 -0.0116805 -1.23763e-16)
(0.99481 4.0024e-05 4.88512e-18)
(0.994577 -0.0010984 -8.55964e-17)
(0.99443 -0.0023 -1.85353e-16)
(0.9944 -0.00356128 -1.16689e-16)
(0.994531 -0.00481805 -9.49784e-17)
(0.994837 -0.00602883 3.06831e-18)
(0.995331 -0.00716528 -5.14795e-17)
(0.996006 -0.00819944 -1.07585e-16)
(0.996824 -0.00910372 -5.3625e-17)
(0.997747 -0.00987391 -1.60164e-16)
(0.99873 -0.0105245 2.70392e-16)
(0.99974 -0.0110785 4.24743e-17)
(1.00089 -0.0115764 -2.59176e-16)
(1.00155 -0.0113457 2.49572e-16)
(1.00197 -0.0117908 4.2971e-17)
(0.994689 4.87694e-05 -4.84689e-17)
(0.994447 -0.00108904 6.65861e-17)
(0.994296 -0.00230042 -6.80745e-18)
(0.994266 -0.00357871 -1.879e-17)
(0.994401 -0.00485753 -1.38151e-16)
(0.994719 -0.00609329 1.77218e-16)
(0.99523 -0.00725565 -5.11334e-18)
(0.995928 -0.00831399 1.7179e-16)
(0.996774 -0.00923869 1.38002e-17)
(0.997728 -0.0100235 -4.09767e-18)
(0.998743 -0.010682 -4.04095e-16)
(0.999785 -0.0112371 -9.92945e-17)
(1.00097 -0.0117297 2.94254e-16)
(1.00165 -0.0114823 -1.87449e-16)
(1.00207 -0.0118949 1.04109e-16)
(0.994567 5.87345e-05 1.59892e-17)
(0.994317 -0.00107969 5.32121e-17)
(0.99416 -0.00230154 -5.51177e-17)
(0.994129 -0.00359761 -5.47886e-17)
(0.994269 -0.0048991 9.48031e-17)
(0.994598 -0.00616041 -1.60076e-16)
(0.995127 -0.00734929 -1.82932e-16)
(0.995849 -0.00843234 -8.98436e-18)
(0.996723 -0.0093778 -3.67964e-17)
(0.997708 -0.0101775 2.57739e-16)
(0.998756 -0.010844 2.38835e-16)
(0.999831 -0.0114002 1.1759e-16)
(1.00105 -0.0118874 7.01903e-17)
(1.00175 -0.0116238 4.19682e-16)
(1.00216 -0.0120092 -2.04681e-16)
(0.994444 6.77346e-05 -2.78342e-17)
(0.994187 -0.0010706 -7.0769e-17)
(0.994024 -0.00230329 2.69526e-16)
(0.993991 -0.00361764 2.2169e-16)
(0.994136 -0.0049425 -5.43253e-17)
(0.994476 -0.00623009 -8.29573e-17)
(0.995022 -0.00744602 8.74616e-18)
(0.995768 -0.00855422 -2.32812e-16)
(0.996671 -0.00952075 -2.77952e-16)
(0.997689 -0.0103355 8.09958e-17)
(0.998771 -0.0110099 2.13648e-16)
(0.999878 -0.0115667 -1.32263e-16)
(1.00113 -0.0120479 -1.7673e-16)
(1.00186 -0.0117664 -4.11125e-16)
(1.00226 -0.0121171 2.33846e-17)
(0.994322 7.80126e-05 5.80509e-17)
(0.994055 -0.00106145 8.28318e-17)
(0.993886 -0.00230564 -2.47195e-16)
(0.993852 -0.00363905 -1.05112e-16)
(0.994 -0.00498792 1.73414e-16)
(0.994351 -0.0063024 2.47682e-16)
(0.994916 -0.00754603 9.21045e-17)
(0.995686 -0.00867995 1.42138e-16)
(0.996618 -0.00966792 1.92587e-17)
(0.997669 -0.0104979 -2.97767e-16)
(0.998786 -0.0111802 -2.08414e-16)
(0.999927 -0.0117377 8.10734e-17)
(1.00121 -0.0122129 -2.87436e-16)
(1.00197 -0.0119139 4.94239e-16)
(1.00236 -0.0122349 1.34904e-16)
(0.994198 8.73176e-05 -5.05788e-17)
(0.993923 -0.00105248 -6.43722e-17)
(0.993747 -0.00230854 3.24423e-17)
(0.993711 -0.00366153 -7.88519e-17)
(0.993863 -0.00503514 -1.89848e-16)
(0.994225 -0.00637728 -1.15604e-16)
(0.994808 -0.00764921 8.25629e-17)
(0.995602 -0.00880933 9.71052e-18)
(0.996565 -0.00981908 3.00114e-16)
(0.99765 -0.0106645 3.14446e-16)
(0.998802 -0.0113546 1.50045e-17)
(0.999978 -0.0119123 1.95464e-17)
(1.0013 -0.0123806 6.23977e-16)
(1.00208 -0.0120625 3.26836e-17)
(1.00246 -0.0123461 4.21668e-17)
(0.994075 9.79532e-05 1.12106e-17)
(0.993789 -0.00104341 2.2239e-17)
(0.993606 -0.00231202 1.73274e-17)
(0.993568 -0.00368538 1.04665e-16)
(0.993724 -0.00508442 -8.52877e-17)
(0.994096 -0.00645491 -2.20259e-16)
(0.994698 -0.00775585 -1.19998e-16)
(0.995517 -0.0089428 -2.1049e-17)
(0.996511 -0.00997475 -2.11284e-16)
(0.997631 -0.0108358 -2.44795e-16)
(0.998819 -0.0115338 -2.94649e-17)
(1.00003 -0.0120917 -5.64225e-17)
(1.00139 -0.0125532 5.34932e-18)