/*--------------------------------*- C++ -*----------------------------------*\
  =========                 |
  \\      /  F ield         | OpenFOAM: The Open Source CFD Toolbox
   \\    /   O peration     | Website:  https://openfoam.org
    \\  /    A nd           | Version:  6.0
     \\/     M anipulation  |
\*---------------------------------------------------------------------------*/
FoamFile
{
    version     2.0;
    format      ascii;
    class       volScalarField;
    location    "17";
    object      p;
}
// * * * * * * * * * * * * * * * * * * * * * * * * * * * * * * * * * * * * * //

dimensions      [0 2 -2 0 0 0 0];

internalField   nonuniform List<scalar> 
62000
(
0.0204032
0.0203977
0.0203986
0.0204024
0.0204132
0.0204274
0.0204494
0.0204756
0.0205107
0.0205503
0.0206
0.0206546
0.020721
0.0207924
0.0208773
0.0209679
0.0210739
0.0211867
0.0213171
0.021456
0.0216149
0.0217842
0.0219763
0.0221811
0.0224118
0.0226575
0.0229324
0.0232263
0.0235524
0.0239028
0.0242916
0.024716
0.0251834
0.0256832
0.0262116
0.026779
0.027398
0.0280749
0.0288145
0.029621
0.0304977
0.0314424
0.0324467
0.0334898
0.0345366
0.0355459
0.0364519
0.0372182
0.0377749
0.0381014
0.038168
0.0378392
0.0372856
0.0361061
0.0346451
0.0326385
0.0307717
0.0282816
0.0277644
0.0304254
0.02046
0.0204503
0.0204473
0.0204477
0.0204556
0.0204674
0.0204877
0.0205126
0.0205473
0.0205871
0.0206378
0.0206941
0.0207625
0.0208367
0.0209242
0.0210178
0.0211259
0.021241
0.0213718
0.0215111
0.021668
0.0218355
0.0220228
0.0222237
0.022447
0.0226875
0.0229534
0.0232417
0.023559
0.0239051
0.0242847
0.0247026
0.0251611
0.0256554
0.0261874
0.0267659
0.0273999
0.0280969
0.0288643
0.0297105
0.0306422
0.0316617
0.032765
0.033937
0.0351484
0.0363636
0.0375227
0.0385942
0.0395121
0.0402599
0.0408086
0.0410054
0.0410054
0.0403383
0.0393363
0.0376592
0.0361144
0.0337456
0.0343496
0.0360201
0.0205157
0.0205134
0.0205143
0.0205162
0.0205231
0.0205318
0.0205471
0.0205656
0.0205928
0.0206243
0.0206665
0.0207142
0.0207746
0.0208412
0.0209223
0.0210102
0.0211139
0.0212254
0.0213537
0.0214912
0.021647
0.0218139
0.0220009
0.0222018
0.022425
0.0226661
0.0229321
0.0232213
0.0235389
0.0238862
0.0242652
0.0246802
0.0251322
0.0256204
0.0261482
0.0267218
0.0273467
0.0280282
0.0287742
0.0295927
0.03049
0.0314676
0.0325205
0.0336326
0.0347732
0.0359051
0.0369663
0.0379235
0.0387128
0.0393196
0.0397275
0.0397826
0.0396107
0.0387204
0.0374296
0.0353843
0.0334307
0.0307468
0.0310406
0.0308691
0.0206986
0.0206933
0.0206906
0.020688
0.02069
0.020693
0.0207019
0.0207132
0.0207322
0.0207548
0.0207871
0.0208243
0.0208735
0.0209287
0.020998
0.0210746
0.021167
0.021268
0.0213864
0.021515
0.0216626
0.0218223
0.0220029
0.0221983
0.0224169
0.022654
0.0229166
0.0232032
0.0235186
0.0238644
0.0242417
0.0246535
0.0251008
0.0255832
0.0261056
0.0266719
0.0272856
0.0279516
0.0286776
0.0294718
0.0303403
0.0312847
0.0322999
0.0333698
0.0344632
0.0355417
0.0365428
0.0374324
0.0381513
0.0386959
0.0390696
0.0391478
0.0390456
0.0382875
0.0371411
0.0352456
0.0333669
0.0307648
0.030833
0.0307626
0.0209592
0.0209428
0.0209291
0.0209155
0.0209067
0.0208992
0.0208981
0.0208998
0.0209095
0.0209229
0.0209461
0.0209738
0.0210133
0.0210581
0.0211167
0.0211817
0.0212625
0.0213512
0.0214576
0.021574
0.0217101
0.0218587
0.022029
0.0222149
0.0224247
0.0226539
0.0229094
0.0231894
0.023499
0.0238395
0.0242125
0.0246197
0.0250614
0.0255391
0.0260555
0.0266144
0.0272187
0.0278735
0.0285871
0.0293677
0.0302226
0.0311543
0.0321587
0.0332208
0.0343096
0.035386
0.0363859
0.0372734
0.0379919
0.0385478
0.0389715
0.0391757
0.0392954
0.0388738
0.038171
0.0367768
0.0353321
0.033002
0.0330867
0.0332127
0.0212037
0.0211858
0.021169
0.0211508
0.0211359
0.021121
0.0211114
0.0211037
0.0211034
0.0211063
0.0211186
0.0211352
0.0211632
0.0211964
0.021243
0.0212959
0.021364
0.0214401
0.0215335
0.021637
0.0217604
0.0218967
0.0220552
0.0222301
0.0224297
0.0226497
0.0228967
0.0231691
0.0234717
0.0238059
0.0241732
0.0245748
0.0250111
0.025482
0.0259911
0.0265403
0.0271326
0.0277735
0.0284714
0.0292351
0.0300726
0.0309874
0.031976
0.0330238
0.0340983
0.0351565
0.0361279
0.0369672
0.0376102
0.0380626
0.0383688
0.0384847
0.0385768
0.0382516
0.0377764
0.0367531
0.0356985
0.0336659
0.0338672
0.0338007
0.0214244
0.0214143
0.0214026
0.0213872
0.0213725
0.0213556
0.0213417
0.0213277
0.0213194
0.021313
0.0213147
0.0213197
0.0213353
0.0213554
0.0213883
0.0214269
0.0214805
0.0215415
0.0216198
0.0217081
0.0218165
0.0219382
0.0220828
0.0222444
0.0224318
0.0226405
0.0228774
0.0231407
0.0234352
0.0237619
0.0241225
0.0245173
0.0249463
0.0254104
0.0259107
0.0264494
0.0270295
0.0276567
0.0283399
0.0290889
0.0299128
0.0308167
0.0317984
0.032844
0.0339197
0.034978
0.0359388
0.0367418
0.0373044
0.0376165
0.0377217
0.0375981
0.0374484
0.0369377
0.0364024
0.035489
0.0346707
0.0329241
0.0332552
0.03325
0.0215973
0.0215917
0.021583
0.0215694
0.0215551
0.021537
0.0215204
0.0215024
0.0214886
0.0214755
0.0214695
0.0214661
0.0214727
0.0214833
0.0215063
0.0215347
0.0215777
0.0216278
0.0216946
0.0217711
0.0218671
0.021976
0.0221077
0.0222563
0.022431
0.0226274
0.0228527
0.023105
0.0233894
0.0237068
0.0240586
0.024445
0.0248666
0.0253224
0.0258152
0.0263461
0.0269188
0.02754
0.0282201
0.0289709
0.0298044
0.0307294
0.0317473
0.0328477
0.0339986
0.0351508
0.0362168
0.0371195
0.0377527
0.0380778
0.0381141
0.0378426
0.0374696
0.0367299
0.0360076
0.0350488
0.0343002
0.0327371
0.0330526
0.0333015
0.021719
0.0217045
0.0216877
0.0216665
0.0216453
0.0216206
0.0215978
0.0215738
0.0215542
0.0215355
0.021524
0.0215154
0.0215171
0.0215231
0.0215418
0.0215661
0.0216051
0.0216512
0.0217138
0.0217856
0.0218763
0.0219791
0.0221038
0.0222444
0.0224102
0.022597
0.0228122
0.0230542
0.0233283
0.0236358
0.0239781
0.0243556
0.0247684
0.0252174
0.0257037
0.02623
0.0268003
0.0274229
0.0281102
0.0288773
0.0297406
0.0307142
0.0318061
0.033013
0.0343098
0.0356518
0.03695
0.0381168
0.0390234
0.0395983
0.0398244
0.0396549
0.0392772
0.0384426
0.0375811
0.0365115
0.035675
0.0340507
0.0340471
0.034233
0.0217394
0.0217052
0.0216715
0.0216354
0.0216014
0.0215659
0.0215341
0.0215025
0.0214768
0.0214532
0.0214381
0.021427
0.0214273
0.0214331
0.0214527
0.0214789
0.0215206
0.0215702
0.0216367
0.0217124
0.0218067
0.0219123
0.0220386
0.0221796
0.022344
0.0225277
0.0227382
0.0229742
0.0232412
0.023541
0.0238752
0.0242445
0.02465
0.0250915
0.0255716
0.0260925
0.0266591
0.0272808
0.0279722
0.0287517
0.0296407
0.0306593
0.0318233
0.0331396
0.0345941
0.0361521
0.0377312
0.0392412
0.0405386
0.0415222
0.0421313
0.0422791
0.0420967
0.0413361
0.040416
0.0392209
0.0381513
0.0362092
0.0355748
0.035102
0.0216528
0.0215949
0.0215405
0.0214865
0.0214374
0.0213895
0.0213476
0.0213084
0.0212771
0.0212498
0.0212326
0.021221
0.0212221
0.02123
0.0212529
0.0212836
0.0213311
0.0213875
0.0214617
0.0215459
0.0216491
0.0217636
0.0218984
0.0220467
0.0222171
0.0224051
0.0226176
0.0228538
0.023119
0.0234153
0.0237448
0.0241084
0.0245067
0.0249409
0.0254116
0.0259212
0.0264744
0.0270808
0.0277561
0.028521
0.0294004
0.0304196
0.0316021
0.0329652
0.0345082
0.0362109
0.0380042
0.0398056
0.0414678
0.0428706
0.0439176
0.044475
0.0446125
0.0440379
0.0431445
0.0418379
0.0404786
0.0380709
0.0366431
0.0351092
0.0214583
0.02138
0.0213078
0.0212383
0.0211761
0.0211174
0.0210672
0.0210216
0.0209862
0.0209565
0.0209388
0.0209282
0.0209318
0.0209434
0.0209712
0.0210081
0.0210628
0.0211275
0.021211
0.0213055
0.0214197
0.0215457
0.0216921
0.0218518
0.0220327
0.0222298
0.0224497
0.0226912
0.0229594
0.0232566
0.0235847
0.0239445
0.024337
0.0247609
0.0252171
0.0257057
0.02623
0.026799
0.0274279
0.0281379
0.0289557
0.0299098
0.0310293
0.0323408
0.0338567
0.0355731
0.0374389
0.0393862
0.041276
0.0429817
0.0443829
0.0453094
0.0457592
0.0454061
0.0445829
0.0432146
0.0415974
0.0387516
0.0365592
0.0339118
0.0212002
0.0211071
0.0210215
0.02094
0.0208674
0.0208
0.0207428
0.0206923
0.0206536
0.0206225
0.020605
0.0205961
0.0206027
0.0206185
0.0206515
0.0206945
0.0207561
0.0208285
0.0209207
0.0210246
0.021149
0.021286
0.0214438
0.0216152
0.0218074
0.0220153
0.0222447
0.022494
0.022768
0.0230684
0.0233971
0.023754
0.024139
0.0245505
0.0249854
0.0254422
0.0259215
0.0264302
0.0269818
0.027596
0.028299
0.0291201
0.0300916
0.0312468
0.0326092
0.0341912
0.0359611
0.0378722
0.0398018
0.0416318
0.0432342
0.0444149
0.0451216
0.0449789
0.0442682
0.0429134
0.0411618
0.0380323
0.035256
0.0317476
0.0208946
0.0207948
0.0207028
0.0206153
0.0205373
0.0204653
0.0204043
0.0203509
0.0203106
0.020279
0.0202624
0.0202555
0.0202654
0.0202856
0.0203238
0.0203728
0.0204411
0.0205208
0.0206207
0.0207329
0.0208661
0.0210123
0.0211797
0.021361
0.0215631
0.0217806
0.0220188
0.0222755
0.0225551
0.0228587
0.0231874
0.0235404
0.0239167
0.0243111
0.024719
0.0251347
0.0255561
0.0259872
0.0264387
0.026928
0.0274785
0.0281187
0.0288812
0.0298034
0.0309173
0.0322487
0.0337855
0.0355028
0.0373014
0.0390804
0.0407181
0.042015
0.042874
0.0429003
0.042318
0.0410615
0.0393201
0.03612
0.0329948
0.0289922
0.0205803
0.0204801
0.0203875
0.0202992
0.0202203
0.0201473
0.0200856
0.0200317
0.0199914
0.0199604
0.0199449
0.01994
0.0199525
0.019976
0.0200182
0.0200718
0.0201453
0.0202305
0.0203364
0.0204548
0.0205945
0.0207475
0.020922
0.0211104
0.0213196
0.0215438
0.0217882
0.02205
0.0223329
0.0226375
0.0229642
0.0233109
0.0236747
0.0240493
0.0244253
0.0247943
0.0251508
0.0254956
0.0258364
0.026187
0.0265675
0.0270033
0.0275259
0.0281741
0.028985
0.0299954
0.0312097
0.0326254
0.0341682
0.035762
0.0373028
0.0385982
0.0395337
0.0396921
0.0392598
0.0381752
0.036586
0.0335084
0.0302595
0.0261223
0.0202744
0.0201799
0.0200923
0.0200082
0.0199327
0.0198625
0.019803
0.0197508
0.0197118
0.0196819
0.0196677
0.0196642
0.0196785
0.0197042
0.0197491
0.0198058
0.0198829
0.0199722
0.0200823
0.0202051
0.0203493
0.0205068
0.0206857
0.0208784
0.0210916
0.0213195
0.0215666
0.02183
0.0221129
0.0224152
0.0227364
0.0230735
0.0234226
0.0237737
0.0241156
0.0244361
0.0247267
0.0249857
0.0252176
0.0254328
0.0256476
0.0258838
0.0261703
0.026545
0.0270478
0.0277223
0.0285867
0.0296573
0.0308846
0.0322183
0.0335781
0.0347903
0.0357249
0.0359737
0.0356876
0.0348213
0.033472
0.0306519
0.0274375
0.0234211
0.0200091
0.0199223
0.0198414
0.0197631
0.0196927
0.0196267
0.0195705
0.0195211
0.0194843
0.0194561
0.0194432
0.0194407
0.019456
0.0194827
0.0195287
0.0195868
0.0196654
0.0197565
0.0198686
0.0199935
0.0201399
0.0202995
0.0204803
0.0206746
0.0208889
0.0211172
0.0213638
0.0216255
0.0219048
0.0222012
0.0225136
0.022838
0.0231688
0.0234958
0.0238031
0.0240768
0.024306
0.0244868
0.0246212
0.0247161
0.0247844
0.0248438
0.0249198
0.0250484
0.0252695
0.025631
0.0261606
0.0268906
0.0277924
0.0288419
0.0299845
0.0310702
0.031974
0.0322898
0.0321488
0.0315169
0.0304529
0.0279515
0.024866
0.0211195
0.0197768
0.0197006
0.0196293
0.0195597
0.0194968
0.0194372
0.0193864
0.0193412
0.0193077
0.0192819
0.0192708
0.0192694
0.0192855
0.0193125
0.0193588
0.019417
0.0194958
0.0195871
0.0196994
0.0198245
0.0199711
0.0201306
0.0203111
0.0205046
0.0207175
0.0209436
0.0211868
0.0214437
0.0217164
0.0220038
0.0223043
0.0226131
0.0229248
0.0232262
0.0235008
0.023732
0.0239077
0.0240227
0.0240769
0.024075
0.0240263
0.0239452
0.0238537
0.0237845
0.0237761
0.0238776
0.0241231
0.0245559
0.0251653
0.0259482
0.026875
0.0278215
0.0286624
0.0290154
0.028994
0.0285816
0.0277905
0.0256058
0.0226733
0.0192411
0.019585
0.0195203
0.0194599
0.0194003
0.0193466
0.0192951
0.0192515
0.0192123
0.0191838
0.0191619
0.0191535
0.0191539
0.0191708
0.0191979
0.0192437
0.0193009
0.0193783
0.0194679
0.0195785
0.0197018
0.0198463
0.0200036
0.0201815
0.0203721
0.0205813
0.0208028
0.0210403
0.0212901
0.0215536
0.0218297
0.0221162
0.022408
0.0226987
0.0229761
0.0232205
0.0234151
0.023547
0.0236103
0.0236037
0.0235299
0.0233956
0.023212
0.0229978
0.0227822
0.022601
0.0225027
0.0225246
0.0227176
0.0230835
0.0236377
0.0243716
0.0251861
0.0259678
0.0263463
0.0264241
0.0261982
0.025644
0.0237312
0.0209427
0.017807
0.0194298
0.0193786
0.019331
0.0192833
0.0192406
0.0191989
0.0191639
0.019132
0.0191095
0.0190923
0.0190874
0.0190901
0.0191081
0.0191354
0.0191805
0.0192362
0.0193116
0.0193987
0.0195062
0.0196262
0.0197671
0.0199204
0.0200939
0.0202796
0.0204831
0.0206982
0.0209281
0.0211688
0.0214216
0.0216846
0.0219557
0.0222293
0.0224999
0.0227537
0.0229718
0.0231359
0.0232336
0.0232591
0.0232103
0.023089
0.0228998
0.0226514
0.0223594
0.0220494
0.0217539
0.0215193
0.0213838
0.0214019
0.021585
0.02196
0.0225362
0.0232366
0.0239486
0.024329
0.0244694
0.0243824
0.0240017
0.0222924
0.019607
0.016708
0.0193268
0.0192874
0.0192509
0.0192138
0.0191811
0.0191487
0.0191223
0.0190981
0.0190823
0.0190707
0.0190702
0.0190761
0.0190961
0.0191241
0.0191688
0.019223
0.019296
0.0193797
0.0194833
0.0195987
0.0197345
0.0198822
0.0200497
0.0202288
0.0204252
0.0206322
0.020853
0.0210834
0.0213241
0.0215732
0.0218283
0.0220838
0.0223339
0.0225668
0.0227616
0.0229011
0.0229734
0.0229729
0.0228976
0.0227483
0.0225284
0.0222445
0.0219095
0.0215457
0.021182
0.020862
0.0206228
0.0205212
0.0205728
0.0208142
0.0212666
0.0218726
0.02253
0.0229061
0.0230845
0.02309
0.0228245
0.021248
0.0186288
0.0158978
0.0192616
0.0192348
0.0192103
0.0191847
0.0191626
0.01914
0.0191225
0.0191062
0.0190974
0.0190917
0.0190961
0.0191057
0.0191284
0.0191578
0.0192028
0.0192561
0.0193271
0.0194077
0.0195073
0.0196178
0.0197479
0.0198893
0.0200497
0.0202211
0.020409
0.0206068
0.0208174
0.0210365
0.0212645
0.0214992
0.021738
0.0219753
0.0222068
0.0224194
0.0225943
0.0227141
0.0227678
0.0227507
0.0226609
0.022499
0.0222675
0.0219716
0.0216219
0.0212376
0.0208439
0.0204812
0.0201851
0.0200116
0.019979
0.0201282
0.0204887
0.02102
0.021616
0.021968
0.0221506
0.0222018
0.0219898
0.0204792
0.017883
0.0152522
0.0192349
0.0192199
0.019207
0.0191926
0.0191813
0.019169
0.0191612
0.0191539
0.0191532
0.0191546
0.019165
0.0191794
0.0192055
0.0192371
0.019283
0.0193357
0.019405
0.0194827
0.0195782
0.0196835
0.0198076
0.0199419
0.0200946
0.0202574
0.020436
0.0206238
0.0208234
0.0210304
0.0212451
0.0214653
0.021688
0.0219079
0.0221205
0.0223151
0.0224722
0.0225762
0.0226165
0.022589
0.0224923
0.022327
0.022095
0.0218003
0.0214517
0.0210657
0.0206643
0.0202847
0.0199599
0.0197451
0.0196585
0.0197441
0.0200354
0.0205057
0.0210548
0.0213808
0.0215501
0.0216121
0.0214114
0.0199171
0.0173224
0.0147373
0.0192418
0.0192399
0.01924
0.019238
0.0192385
0.0192373
0.0192397
0.0192417
0.0192492
0.0192579
0.0192745
0.019294
0.0193241
0.0193584
0.0194057
0.0194586
0.0195268
0.0196021
0.019694
0.0197945
0.0199125
0.0200398
0.0201844
0.0203383
0.0205071
0.0206841
0.0208721
0.0210667
0.021268
0.0214735
0.0216803
0.0218829
0.0220782
0.0222547
0.0223963
0.0224868
0.0225165
0.0224823
0.0223832
0.02222
0.0219943
0.0217091
0.021372
0.0209968
0.0206031
0.0202244
0.0198922
0.0196588
0.0195424
0.0195866
0.0198262
0.0202469
0.0207399
0.0210233
0.0211556
0.0211983
0.0209704
0.019454
0.0168386
0.0142589
0.0192973
0.0193059
0.019316
0.0193239
0.0193342
0.0193426
0.0193543
0.0193653
0.0193813
0.0193978
0.0194214
0.0194467
0.0194818
0.0195197
0.0195694
0.0196234
0.0196912
0.0197647
0.0198535
0.0199495
0.0200618
0.0201822
0.0203187
0.0204634
0.0206221
0.0207882
0.0209644
0.0211463
0.0213339
0.0215248
0.021716
0.0219021
0.0220796
0.0222397
0.0223663
0.0224446
0.0224652
0.0224255
0.0223249
0.0221643
0.0219452
0.02167
0.0213448
0.0209817
0.0205979
0.0202243
0.0198904
0.0196462
0.0195091
0.0195219
0.0197192
0.0200951
0.020543
0.0207857
0.020874
0.0208806
0.0206083
0.0190509
0.016416
0.0138149
0.0193913
0.0194109
0.0194319
0.0194501
0.0194703
0.0194881
0.0195086
0.0195278
0.0195515
0.0195751
0.0196051
0.0196363
0.0196762
0.0197181
0.0197707
0.0198263
0.0198946
0.0199672
0.0200537
0.0201459
0.0202532
0.0203671
0.020496
0.0206319
0.0207806
0.0209358
0.0211001
0.0212693
0.0214433
0.0216197
0.0217954
0.021965
0.022126
0.0222692
0.0223814
0.0224476
0.0224587
0.022413
0.0223103
0.0221511
0.0219375
0.0216704
0.0213562
0.0210038
0.0206308
0.0202627
0.0199311
0.0196799
0.0195294
0.0195174
0.0196788
0.0200133
0.0204041
0.0205927
0.0206234
0.0205801
0.0202479
0.0186364
0.0159785
0.0133429
0.0195228
0.0195525
0.0195834
0.0196114
0.0196413
0.0196684
0.0196982
0.0197261
0.0197582
0.0197894
0.0198265
0.0198638
0.0199089
0.019955
0.0200108
0.0200684
0.0201373
0.0202094
0.020294
0.020383
0.0204856
0.0205936
0.0207151
0.0208425
0.0209816
0.021126
0.0212786
0.0214352
0.0215956
0.0217577
0.0219182
0.0220718
0.0222157
0.0223429
0.0224402
0.0224938
0.0224945
0.0224412
0.022333
0.0221716
0.0219575
0.0216925
0.021381
0.0210318
0.0206601
0.0202906
0.019953
0.0196896
0.0195213
0.0194832
0.0196098
0.0199015
0.0202434
0.0203823
0.0203562
0.0202601
0.019869
0.0182064
0.0155416
0.0128646
0.0196916
0.0197329
0.0197752
0.0198142
0.0198545
0.0198914
0.0199301
0.0199665
0.0200061
0.0200443
0.0200874
0.0201302
0.0201799
0.0202299
0.0202885
0.0203481
0.0204179
0.0204897
0.0205728
0.020659
0.0207574
0.0208599
0.0209747
0.021094
0.0212237
0.0213577
0.0214988
0.0216429
0.0217901
0.021938
0.0220836
0.0222212
0.022349
0.0224591
0.0225413
0.0225812
0.0225697
0.0225062
0.0223895
0.0222217
0.0220024
0.0217339
0.0214188
0.021066
0.0206891
0.0203113
0.0199628
0.0196823
0.019494
0.0194287
0.0195206
0.0197673
0.0200476
0.0201255
0.0200355
0.0198833
0.0194312
0.0177193
0.0150534
0.0123377
0.0199125
0.0199619
0.0200119
0.0200586
0.0201064
0.020151
0.0201973
0.0202411
0.020288
0.020333
0.0203827
0.0204311
0.020486
0.0205401
0.0206021
0.0206638
0.0207348
0.0208066
0.0208885
0.0209721
0.0210668
0.0211642
0.0212726
0.0213843
0.0215051
0.0216291
0.021759
0.0218911
0.0220252
0.0221595
0.0222904
0.0224127
0.0225235
0.0226171
0.0226834
0.0227082
0.0226831
0.0226061
0.0224772
0.0222967
0.0220656
0.0217841
0.0214558
0.0210878
0.0206939
0.0202956
0.0199235
0.019615
0.0193968
0.0192979
0.0193524
0.0195504
0.0197744
0.0197965
0.0196475
0.0194437
0.0189411
0.0171937
0.0145486
0.0117961
0.0201771
0.0202355
0.020294
0.0203486
0.0204039
0.0204553
0.020508
0.0205577
0.0206101
0.0206603
0.0207149
0.0207678
0.0208267
0.0208843
0.0209491
0.0210128
0.021085
0.0211569
0.0212379
0.0213194
0.0214108
0.0215037
0.0216063
0.0217109
0.0218234
0.0219379
0.0220573
0.0221778
0.0222995
0.0224205
0.0225373
0.0226441
0.0227392
0.0228155
0.0228652
0.0228739
0.0228326
0.0227397
0.0225945
0.0223974
0.0221487
0.0218487
0.0215
0.0211094
0.0206903
0.0202631
0.0198597
0.0195155
0.0192618
0.0191251
0.0191395
0.0192845
0.0194393
0.0193956
0.0191836
0.0189294
0.0183797
0.0166036
0.0139872
0.0112071
0.0204776
0.0205436
0.0206096
0.0206714
0.0207338
0.020792
0.0208513
0.0209073
0.0209657
0.0210214
0.021081
0.0211383
0.021201
0.0212618
0.0213291
0.0213946
0.0214677
0.0215396
0.0216197
0.0216993
0.0217877
0.0218764
0.0219736
0.0220716
0.0221764
0.022282
0.0223914
0.022501
0.0226109
0.0227193
0.0228225
0.0229149
0.0229935
0.0230538
0.0230857
0.0230775
0.0230178
0.0229065
0.0227407
0.022522
0.0222488
0.0219223
0.0215435
0.0211199
0.0206637
0.0201959
0.019748
0.0193563
0.019056
0.0188734
0.0188434
0.0189312
0.0190199
0.0189151
0.0186462
0.0183487
0.0177651
0.0159778
0.0134124
0.0106085
0.0208119
0.0208877
0.0209632
0.0210339
0.0211045
0.0211702
0.0212361
0.0212979
0.0213613
0.0214214
0.0214847
0.0215453
0.0216107
0.0216736
0.0217425
0.0218089
0.0218823
0.0219538
0.0220327
0.0221102
0.0221955
0.0222802
0.0223722
0.0224641
0.0225616
0.0226589
0.022759
0.0228584
0.0229574
0.0230539
0.0231444
0.0232225
0.0232867
0.0233289
0.023344
0.0233169
0.0232382
0.0231054
0.0229169
0.0226724
0.0223713
0.0220128
0.021599
0.0211354
0.020636
0.0201192
0.0196203
0.0191731
0.01882
0.0185861
0.018508
0.0185312
0.0185429
0.018368
0.0180392
0.0177004
0.0170873
0.0152961
0.0127881
0.00997109
0.0211911
0.0212726
0.0213532
0.0214289
0.0215043
0.0215748
0.0216456
0.0217122
0.0217804
0.021845
0.0219125
0.0219768
0.0220455
0.0221111
0.0221821
0.0222499
0.0223239
0.0223953
0.0224732
0.0225488
0.0226313
0.0227122
0.0227994
0.0228855
0.0229762
0.0230658
0.0231572
0.0232474
0.0233362
0.0234219
0.0235003
0.0235655
0.0236137
0.0236401
0.0236372
0.0235915
0.0234927
0.0233369
0.0231225
0.0228483
0.0225138
0.0221172
0.0216606
0.0211487
0.0205959
0.0200203
0.0194586
0.0189453
0.0185283
0.0182345
0.018102
0.018057
0.017993
0.0177521
0.0173691
0.0169965
0.0163674
0.0145901
0.0121604
0.00933273
0.021602
0.0216909
0.0217785
0.0218605
0.0219416
0.0220171
0.0220923
0.0221628
0.0222346
0.0223024
0.0223728
0.0224397
0.0225106
0.0225779
0.0226501
0.0227184
0.0227924
0.0228629
0.0229392
0.0230125
0.0230919
0.0231689
0.0232514
0.0233321
0.0234165
0.0234992
0.0235829
0.0236646
0.0237443
0.0238198
0.0238873
0.0239395
0.0239739
0.0239837
0.0239636
0.0238999
0.0237799
0.0236004
0.0233581
0.0230527
0.022682
0.0222446
0.0217409
0.0211766
0.0205649
0.0199249
0.0192942
0.0187084
0.0182208
0.0178614
0.017669
0.0175477
0.0173987
0.0170837
0.016644
0.0162391
0.0155974
0.01384
0.0114933
0.00866494
0.0220364
0.0221324
0.0222267
0.0223151
0.0224024
0.0224836
0.0225644
0.0226397
0.0227159
0.0227873
0.0228607
0.0229298
0.0230022
0.0230704
0.0231426
0.0232106
0.0232834
0.0233525
0.0234265
0.0234971
0.0235731
0.0236462
0.0237241
0.0237998
0.0238785
0.0239551
0.024032
0.0241063
0.0241777
0.0242445
0.0243016
0.0243425
0.0243628
0.0243583
0.0243222
0.0242407
0.0240998
0.0238954
0.0236239
0.0232845
0.0228743
0.0223911
0.0218351
0.0212113
0.0205331
0.0198201
0.0191108
0.0184429
0.0178742
0.0174401
0.0171799
0.016979
0.0167457
0.0163598
0.0158683
0.0154384
0.0147971
0.0130769
0.0108323
0.00800467
0.0225255
0.0226304
0.0227331
0.0228284
0.0229213
0.0230066
0.0230903
0.0231673
0.0232441
0.0233152
0.0233875
0.0234549
0.0235252
0.0235908
0.0236602
0.0237249
0.0237944
0.02386
0.0239304
0.0239974
0.0240694
0.0241387
0.0242123
0.0242836
0.0243575
0.024429
0.0245003
0.0245685
0.0246333
0.0246924
0.0247411
0.0247714
0.0247808
0.0247619
0.0247111
0.0246122
0.0244507
0.0242213
0.0239203
0.0235462
0.0230954
0.0225648
0.0219539
0.0212677
0.0205193
0.0197288
0.018936
0.0181804
0.0175242
0.017009
0.0166739
0.0163851
0.0160596
0.0155961
0.0150501
0.0145964
0.013958
0.0122798
0.0101409
0.00732324
0.0230812
0.0231825
0.0232794
0.0233687
0.0234559
0.0235367
0.0236169
0.0236914
0.0237663
0.023836
0.0239074
0.0239738
0.0240429
0.0241072
0.0241751
0.0242383
0.0243059
0.0243696
0.0244379
0.0245025
0.024572
0.0246385
0.0247093
0.0247775
0.0248482
0.0249162
0.0249836
0.0250477
0.0251075
0.0251613
0.0252031
0.0252255
0.0252238
0.0251938
0.0251287
0.0250134
0.0248317
0.0245777
0.0242466
0.0238365
0.0233427
0.0227613
0.0220914
0.0213373
0.0205124
0.0196373
0.0187527
0.0179005
0.0171469
0.0165409
0.0161216
0.0157418
0.0153243
0.014786
0.0141904
0.0137201
0.0130977
0.0114788
0.00946365
0.00665727
0.0234719
0.0235896
0.023704
0.0238095
0.0239113
0.0240042
0.0240944
0.0241766
0.0242578
0.024332
0.0244071
0.0244758
0.0245469
0.0246121
0.0246806
0.0247436
0.024811
0.0248739
0.0249413
0.0250048
0.0250732
0.0251387
0.0252083
0.0252755
0.0253451
0.0254118
0.0254777
0.0255399
0.0255974
0.0256478
0.0256853
0.0257011
0.025692
0.0256506
0.0255732
0.0254425
0.0252416
0.0249636
0.0246031
0.024157
0.0236199
0.0229868
0.0222562
0.0214321
0.0205278
0.0195644
0.0185839
0.0176301
0.0167728
0.0160693
0.0155583
0.0150788
0.0145629
0.0139443
0.0132969
0.012811
0.0122068
0.0106515
0.00876338
0.00597687
0.0239192
0.0240369
0.0241501
0.0242547
0.024356
0.0244496
0.0245414
0.0246262
0.0247104
0.0247883
0.024867
0.0249399
0.0250147
0.0250839
0.0251558
0.0252222
0.0252923
0.025358
0.0254277
0.0254935
0.0255638
0.0256312
0.0257025
0.0257716
0.0258428
0.0259112
0.0259784
0.0260416
0.0260993
0.0261493
0.0261847
0.0261971
0.026181
0.026132
0.0260432
0.0258987
0.0256798
0.0253785
0.0249884
0.0245056
0.0239233
0.0232359
0.0224411
0.0215424
0.0205532
0.0194951
0.0184115
0.0173477
0.0163775
0.0155662
0.0149539
0.0143718
0.0137578
0.0130615
0.012367
0.0118735
0.0113012
0.00982673
0.00808295
0.00531836
0.0242039
0.024338
0.0244687
0.0245904
0.0247078
0.0248157
0.0249203
0.0250161
0.0251103
0.0251967
0.0252836
0.0253633
0.0254451
0.0255202
0.0255982
0.0256701
0.0257458
0.0258166
0.0258915
0.0259623
0.0260377
0.0261103
0.0261867
0.0262609
0.0263372
0.0264105
0.0264823
0.0265496
0.0266109
0.0266631
0.0266997
0.0267105
0.0266917
0.0266355
0.0265378
0.0263807
0.026145
0.0258213
0.0254024
0.0248831
0.0242556
0.0235132
0.0226528
0.0216776
0.0206009
0.019445
0.0182542
0.017076
0.0159869
0.0150614
0.0143405
0.0136474
0.0129299
0.0121516
0.0114086
0.0109088
0.0103706
0.0089814
0.00738521
0.00465013
0.0245241
0.0246568
0.0247858
0.0249066
0.0250247
0.0251354
0.0252444
0.0253465
0.0254479
0.025543
0.0256388
0.0257284
0.0258197
0.0259052
0.0259928
0.0260748
0.0261601
0.0262407
0.0263249
0.0264052
0.0264898
0.0265715
0.0266569
0.0267401
0.0268251
0.026907
0.026987
0.027062
0.02713
0.0271881
0.0272287
0.0272416
0.0272208
0.0271612
0.0270559
0.0268879
0.0266365
0.0262911
0.0258433
0.0252869
0.0246125
0.0238124
0.0228832
0.0218272
0.0206579
0.0193982
0.0180937
0.0167932
0.0155766
0.0145268
0.0136879
0.0128814
0.0120605
0.0112026
0.0104164
0.00991932
0.00942984
0.00814382
0.00671172
0.0040087
0.0246466
0.0247956
0.0249429
0.0250827
0.0252198
0.0253487
0.0254756
0.0255944
0.0257122
0.0258227
0.0259338
0.0260378
0.0261437
0.0262427
0.0263442
0.0264392
0.0265377
0.0266311
0.0267282
0.0268213
0.0269186
0.0270131
0.0271113
0.0272073
0.0273049
0.0273992
0.0274911
0.0275774
0.0276558
0.0277229
0.0277708
0.0277878
0.0277694
0.027707
0.0275964
0.027419
0.0271531
0.0267868
0.0263107
0.0257172
0.0249956
0.0241371
0.0231375
0.0219988
0.0207344
0.0193677
0.0179456
0.0165188
0.0151695
0.0139897
0.0130267
0.0120988
0.0111699
0.0102293
0.00939933
0.00890679
0.0084687
0.00729058
0.00602607
0.00336149
0.0247553
0.0249132
0.0250708
0.0252222
0.025372
0.0255147
0.0256559
0.0257896
0.0259226
0.0260484
0.0261747
0.0262944
0.0264157
0.0265307
0.026648
0.0267594
0.0268742
0.0269844
0.0270982
0.0272081
0.0273223
0.0274338
0.0275488
0.0276616
0.0277756
0.0278862
0.0279938
0.0280951
0.0281873
0.0282668
0.0283248
0.0283497
0.0283346
0.0282734
0.0281591
0.0279738
0.0276943
0.0273075
0.0268028
0.0261711
0.0254005
0.0244811
0.0234077
0.0221819
0.0208174
0.019338
0.0177922
0.0162317
0.0147419
0.0134226
0.0123272
0.0112763
0.0102394
0.00921859
0.00835048
0.00787277
0.00750142
0.00644904
0.00536767
0.002745
0.024862
0.0250242
0.0251864
0.0253435
0.0255001
0.0256508
0.0258015
0.0259459
0.0260911
0.0262303
0.0263714
0.0265066
0.0266446
0.0267767
0.026912
0.0270416
0.0271753
0.0273046
0.027438
0.0275678
0.0277022
0.0278341
0.0279696
0.028103
0.0282374
0.028368
0.028495
0.0286148
0.0287244
0.0288195
0.028891
0.028926
0.0289185
0.0288593
0.0287434
0.0285513
0.028259
0.0278522
0.0273191
0.0266491
0.0258288
0.0248472
0.0236983
0.0223833
0.0209158
0.0193207
0.0176474
0.0159498
0.0143149
0.0128516
0.0116188
0.0104382
0.00928959
0.00818629
0.00728017
0.00681972
0.00651809
0.00559621
0.00470137
0.00212628
0.0248944
0.0250631
0.0252328
0.0253981
0.0255644
0.0257259
0.0258887
0.0260465
0.026206
0.0263607
0.0265182
0.0266709
0.0268271
0.0269787
0.027134
0.0272848
0.0274401
0.0275921
0.0277482
0.0279017
0.0280598
0.0282158
0.0283755
0.0285331
0.0286915
0.0288458
0.0289958
0.0291378
0.029268
0.0293822
0.02947
0.0295186
0.0295197
0.0294659
0.0293497
0.029152
0.0288475
0.0284206
0.0278584
0.0271488
0.0262767
0.0252299
0.0240019
0.0225932
0.0210179
0.0193011
0.0174944
0.0156529
0.0138665
0.0122505
0.0108732
0.00956212
0.00830171
0.00711828
0.00618065
0.00574882
0.00553282
0.00475877
0.00406498
0.00154075
0.0248494
0.0250292
0.0252111
0.0253892
0.025569
0.0257446
0.0259225
0.0260961
0.0262727
0.0264454
0.0266221
0.0267948
0.0269723
0.0271456
0.0273237
0.0274976
0.0276772
0.0278537
0.0280354
0.0282148
0.0283995
0.0285826
0.0287697
0.0289549
0.0291407
0.0293221
0.0294986
0.029666
0.0298204
0.0299563
0.0300637
0.0301277
0.030141
0.0300933
0.0299784
0.0297758
0.0294595
0.0290126
0.0284211
0.0276711
0.026746
0.0256324
0.0243231
0.0228182
0.0211318
0.0192902
0.0173467
0.0153582
0.0134167
0.0116447
0.0101195
0.00867245
0.00729747
0.00603246
0.00506393
0.00466331
0.00453627
0.00391456
0.00342493
0.000955978
0.0247275
0.0249206
0.0251171
0.0253109
0.0255075
0.025701
0.0258976
0.0260907
0.0262876
0.0264814
0.0266799
0.0268756
0.0270766
0.0272749
0.0274785
0.0276794
0.0278862
0.0280913
0.0283017
0.0285108
0.0287254
0.0289389
0.0291566
0.0293726
0.0295891
0.0298009
0.0300068
0.0302028
0.030384
0.030545
0.030674
0.0307565
0.0307828
0.0307438
0.0306312
0.0304244
0.0300963
0.029629
0.029007
0.0282148
0.027234
0.0260503
0.0246556
0.0230497
0.021247
0.0192748
0.0171885
0.015047
0.0129451
0.0110104
0.00933174
0.0077484
0.00625872
0.00491437
0.00392195
0.00356454
0.00354218
0.00308895
0.00281626
0.00040564
0.024571
0.0247787
0.024991
0.0252018
0.0254164
0.0256288
0.0258453
0.0260593
0.026278
0.0264946
0.026717
0.0269371
0.0271638
0.0273882
0.027619
0.0278476
0.0280834
0.028318
0.0285589
0.0287994
0.0290461
0.0292924
0.0295432
0.0297927
0.0300425
0.0302873
0.0305255
0.0307527
0.0309635
0.0311515
0.0313048
0.031407
0.0314492
0.0314193
0.0313099
0.0310992
0.0307591
0.0302708
0.0296173
0.0287815
0.0277433
0.0264872
0.0250043
0.0232942
0.0213718
0.0192657
0.0170332
0.014736
0.0124717
0.0103722
0.0085383
0.00681439
0.00520795
0.00378342
0.00276816
0.00245656
0.00254198
0.0022609
0.00220726
-0.000141679
0.0243829
0.0246055
0.0248343
0.0250629
0.0252968
0.0255297
0.0257679
0.0260046
0.0262469
0.0264881
0.0267357
0.0269824
0.0272362
0.0274891
0.0277489
0.0280081
0.0282749
0.0285418
0.0288155
0.0290897
0.0293707
0.0296518
0.0299379
0.030223
0.0305082
0.0307882
0.0310608
0.0313213
0.0315636
0.031781
0.03196
0.0320841
0.0321423
0.0321232
0.0320174
0.0318028
0.0314502
0.0309397
0.0302531
0.0293712
0.0282723
0.0269398
0.0253641
0.0235448
0.0214967
0.0192506
0.016866
0.0144078
0.0119769
0.00970922
0.00771608
0.00585084
0.00412676
0.00262443
0.00159403
0.00134071
0.00154905
0.0014548
0.001631
-0.000653736
0.0242112
0.0244496
0.0246955
0.0249423
0.0251952
0.0254482
0.0257074
0.0259662
0.0262316
0.0264969
0.0267698
0.0270426
0.0273237
0.0276047
0.0278937
0.0281828