/*--------------------------------*- C++ -*----------------------------------*\
  =========                 |
  \\      /  F ield         | OpenFOAM: The Open Source CFD Toolbox
   \\    /   O peration     | Website:  https://openfoam.org
    \\  /    A nd           | Version:  6.0
     \\/     M anipulation  |
\*---------------------------------------------------------------------------*/
FoamFile
{
    version     2.0;
    format      ascii;
    class       surfaceScalarField;
    location    "17";
    object      phi;
}
// * * * * * * * * * * * * * * * * * * * * * * * * * * * * * * * * * * * * * //

dimensions      [0 3 -1 0 0 0 0];

internalField   nonuniform List<scalar> 
123526
(
-5.40244e-05
2.30579e-05
5.44235e-05
-5.35987e-05
2.49351e-05
-5.3139e-05
2.69655e-05
-5.26429e-05
2.91618e-05
-5.21069e-05
3.15377e-05
-5.15285e-05
3.41078e-05
-5.09035e-05
3.68882e-05
-5.02293e-05
3.98963e-05
-4.94992e-05
4.31499e-05
-4.87114e-05
4.667e-05
-4.78581e-05
5.04792e-05
-4.69386e-05
5.46008e-05
-4.59416e-05
5.90603e-05
-4.48652e-05
6.38832e-05
-4.36937e-05
6.91011e-05
-4.24318e-05
7.47509e-05
-4.10622e-05
8.08647e-05
-3.95794e-05
8.74741e-05
-3.79662e-05
9.46295e-05
-3.62269e-05
0.000102377
-3.43319e-05
0.000110754
-3.22802e-05
0.000119819
-3.00554e-05
0.000129637
-2.7638e-05
0.000140244
-2.50148e-05
0.000151734
-2.21727e-05
0.000164159
-1.90817e-05
0.000177596
-1.57367e-05
0.000192133
-1.20976e-05
0.00020784
-8.15991e-06
0.000224828
-3.88035e-06
0.000243169
7.54264e-07
0.000262985
5.78356e-06
0.000284363
1.12348e-05
0.000307418
1.71332e-05
0.000332258
2.35256e-05
0.000358974
3.04356e-05
0.000387696
3.79067e-05
0.000418502
4.59829e-05
0.000451475
5.46976e-05
0.000486689
6.40949e-05
0.000524169
7.4224e-05
0.000563904
8.51252e-05
0.000605838
9.68395e-05
0.000649829
0.000109406
0.000695632
0.000122857
0.000742875
0.000137213
0.000791012
0.000152477
0.00083928
0.000168634
0.000886636
0.000185634
0.000931683
0.00020342
0.000972567
0.000221858
0.00100691
0.000240808
0.00103167
0.000259997
0.00104306
0.000279134
0.0010363
0.000297727
0.00100562
0.000315318
0.000943388
0.000331073
0.000841391
0.0003439
0.000683067
0.00044373
0.000339787
-5.33248e-05
2.26772e-05
5.37117e-05
-5.29102e-05
2.45231e-05
-5.24614e-05
2.65195e-05
-5.19766e-05
2.8679e-05
-5.14516e-05
3.10149e-05
-5.08843e-05
3.35419e-05
-5.02698e-05
3.62756e-05
-4.96064e-05
3.92333e-05
-4.88866e-05
4.24318e-05
-4.81096e-05
4.58924e-05
-4.72668e-05
4.96382e-05
-4.63587e-05
5.36913e-05
-4.53734e-05
5.8077e-05
-4.431e-05
6.28179e-05
-4.31529e-05
6.79464e-05
-4.19069e-05
7.3503e-05
-4.05556e-05
7.95162e-05
-3.90931e-05
8.601e-05
-3.7504e-05
9.30431e-05
-3.57908e-05
0.000100663
-3.39268e-05
0.000108892
-3.19083e-05
0.0001178
-2.97226e-05
0.000127454
-2.73466e-05
0.000137868
-2.47716e-05
0.000149162
-2.19803e-05
0.000161368
-1.8948e-05
0.000174566
-1.56647e-05
0.000188851
-1.20964e-05
0.000204274
-8.23342e-06
0.000220966
-4.03853e-06
0.000238976
5.05525e-07
0.000258443
5.43613e-06
0.000279439
1.07798e-05
0.000302082
1.6562e-05
0.000326482
2.28286e-05
0.000352711
2.96042e-05
0.000380923
3.69328e-05
0.000411175
4.48588e-05
0.00044355
5.34165e-05
0.000478131
6.265e-05
0.000514935
7.26087e-05
0.000553942
8.33323e-05
0.000595107
9.48604e-05
0.000638289
0.000107229
0.000683245
0.000120468
0.000729608
0.000134592
0.000776847
0.000149602
0.000824212
0.000165482
0.00087068
0.000182185
0.000914874
0.000199657
0.000954973
0.000217769
0.000988631
0.000236389
0.00101287
0.000255246
0.00102399
0.000274042
0.00101727
0.000292292
0.00098708
0.000309499
0.000925937
0.000324924
0.000825687
0.000334794
0.000672896
0.00044547
0.000332548
-5.25757e-05
2.23029e-05
5.29558e-05
-5.2169e-05
2.41188e-05
-5.17297e-05
2.60829e-05
-5.12561e-05
2.82072e-05
-5.07439e-05
3.05049e-05
-5.01912e-05
3.29904e-05
-4.95928e-05
3.56791e-05
-4.89469e-05
3.85879e-05
-4.82457e-05
4.17326e-05
-4.74883e-05
4.51349e-05
-4.66659e-05
4.88181e-05
-4.57789e-05
5.28036e-05
-4.48152e-05
5.71162e-05
-4.37742e-05
6.17757e-05
-4.26399e-05
6.68155e-05
-4.14179e-05
7.22796e-05
-4.00914e-05
7.81931e-05
-3.86553e-05
8.45726e-05
-3.70938e-05
9.1485e-05
-3.54103e-05
9.89783e-05
-3.35782e-05
0.000107063
-3.15944e-05
0.000115815
-2.94463e-05
0.000125309
-2.71113e-05
0.000135533
-2.45814e-05
0.000146635
-2.1839e-05
0.000158627
-1.88607e-05
0.00017159
-1.56359e-05
0.000185628
-1.21321e-05
0.000200772
-8.33912e-06
0.000217175
-4.22108e-06
0.000234858
2.39738e-07
0.000253985
5.07962e-06
0.000274604
1.03261e-05
0.000296843
1.60038e-05
0.000320811
2.21587e-05
0.000346561
2.88154e-05
0.00037427
3.6018e-05
0.000403975
4.38109e-05
0.000435759
5.22281e-05
0.000469715
6.1313e-05
0.000505849
7.11133e-05
0.000544139
8.16671e-05
0.000584549
9.30114e-05
0.000626937
0.000105179
0.000671065
0.000118198
0.000716575
0.00013208
0.000762944
0.000146828
0.000809438
0.000162429
0.000855051
0.000178839
0.000898426
0.000196008
0.000937774
0.000213808
0.000970782
0.00023211
0.00099454
0.000250644
0.00100541
0.000269104
0.000998792
0.000287026
0.000969124
0.000303841
0.000909155
0.000318957
0.000810562
0.000329486
0.000662421
0.000445273
0.000329945
-5.17993e-05
2.19321e-05
5.21738e-05
-5.13974e-05
2.37184e-05
-5.09632e-05
2.56506e-05
-5.04958e-05
2.77407e-05
-4.99909e-05
3.00016e-05
-4.94473e-05
3.24472e-05
-4.88597e-05
3.50929e-05
-4.82271e-05
3.7955e-05
-4.75411e-05
4.10481e-05
-4.68018e-05
4.43944e-05
-4.59993e-05
4.80174e-05
-4.5135e-05
5.19373e-05
-4.41953e-05
5.61789e-05
-4.31808e-05
6.07589e-05
-4.20742e-05
6.57117e-05
-4.08818e-05
7.1085e-05
-3.95858e-05
7.69002e-05
-3.81819e-05
8.31669e-05
-3.66539e-05
8.99602e-05
-3.50056e-05
9.73287e-05
-3.32102e-05
0.000105271
-3.12652e-05
0.00011387
-2.91581e-05
0.000123205
-2.68667e-05
0.000133242
-2.43834e-05
0.000144155
-2.16907e-05
0.000155935
-1.87658e-05
0.000168668
-1.55984e-05
0.000182463
-1.21567e-05
0.000197332
-8.43031e-06
0.000213451
-4.38437e-06
0.000230813
-1.2323e-09
0.000249604
4.75589e-06
0.000269853
9.9132e-06
0.000291693
1.54958e-05
0.000315235
2.15484e-05
0.000340512
2.80954e-05
0.000367726
3.51804e-05
0.000396893
4.28469e-05
0.000428095
5.11279e-05
0.000461436
6.00654e-05
0.000496914
6.97055e-05
0.0005345
8.00844e-05
0.00057417
9.1237e-05
0.000615783
0.000103195
0.000659103
0.000115985
0.000703779
0.00012962
0.000749297
0.000144106
0.000794935
0.000159432
0.000839701
0.000175558
0.00088226
0.000192434
0.000920856
0.000209932
0.000953211
0.000227919
0.000976489
0.000246131
0.000987114
0.000264255
0.00098057
0.000281848
0.000951391
0.000298299
0.000892595
0.00031309
0.000795636
0.000324078
0.000651286
0.000443104
0.000326029
-5.10744e-05
2.15685e-05
5.14437e-05
-5.06782e-05
2.33244e-05
-5.0249e-05
2.52242e-05
-4.97862e-05
2.72796e-05
-4.92856e-05
2.95034e-05
-4.87467e-05
3.19094e-05
-4.81644e-05
3.45125e-05
-4.75378e-05
3.73289e-05
-4.68597e-05
4.0372e-05
-4.61295e-05
4.36641e-05
-4.53388e-05
4.7229e-05
-4.44881e-05
5.10859e-05
-4.35653e-05
5.52589e-05
-4.25697e-05
5.97621e-05
-4.14854e-05
6.46307e-05
-4.03176e-05
6.99157e-05
-3.90492e-05
7.56352e-05
-3.76754e-05
8.17917e-05
-3.61801e-05
8.84682e-05
-3.45668e-05
9.57142e-05
-3.28089e-05
0.000103517
-3.09039e-05
0.000111964
-2.88391e-05
0.000121143
-2.65929e-05
0.000130996
-2.41574e-05
0.000141722
-2.15158e-05
0.000153295
-1.86453e-05
0.0001658
-1.55359e-05
0.000179355
-1.21561e-05
0.000193954
-8.4961e-06
0.000209792
-4.52108e-06
0.000226839
-2.13524e-07
0.000245299
4.4622e-06
0.000265182
9.53318e-06
0.00028663
1.50226e-05
0.000309751
2.09745e-05
0.000334564
2.74129e-05
0.00036129
3.43801e-05
0.000389928
4.19188e-05
0.000420558
5.00608e-05
0.000453296
5.88471e-05
0.000488128
6.8322e-05
0.000525025
7.85207e-05
0.00056397
8.94771e-05
0.000604824
0.000101223
0.000647353
0.000113784
0.000691213
0.000127177
0.000735897
0.000141408
0.000780696
0.000156468
0.000824633
0.000172321
0.000866396
0.000188912
0.000904262
0.000206113
0.000935996
0.000223787
0.000958824
0.000241672
0.000969229
0.000259459
0.000962809
0.00027672
0.000934137
0.000292839
0.000876539
0.000307257
0.000781241
0.00031819
0.000640443
0.00043984
0.000321745
-5.03664e-05
2.1215e-05
5.07237e-05
-4.99813e-05
2.29406e-05
-4.95627e-05
2.48075e-05
-4.91099e-05
2.68277e-05
-4.86185e-05
2.90137e-05
-4.8088e-05
3.13792e-05
-4.75131e-05
3.39391e-05
-4.6894e-05
3.67094e-05
-4.62228e-05
3.97024e-05
-4.55005e-05
4.29407e-05
-4.4718e-05
4.64483e-05
-4.38775e-05
5.02433e-05
-4.29659e-05
5.43495e-05
-4.19843e-05
5.87782e-05
-4.0916e-05
6.35651e-05
-3.97671e-05
6.87646e-05
-3.85203e-05
7.43913e-05
-3.71713e-05
8.04407e-05
-3.57037e-05
8.70037e-05
-3.41213e-05
9.41304e-05
-3.23975e-05
0.000101796
-3.05298e-05
0.000110096
-2.85054e-05
0.000119122
-2.6303e-05
0.000128794
-2.39146e-05
0.000139337
-2.13233e-05
0.000150704
-1.8507e-05
0.000162986
-1.54553e-05
0.000176306
-1.21375e-05
0.000190639
-8.54361e-06
0.0002062
-4.63949e-06
0.000222936
-4.078e-07
0.000241069
4.18737e-06
0.000260593
9.1708e-06
0.000281653
1.45663e-05
0.000304362
2.04165e-05
0.000328718
2.67446e-05
0.000354965
3.35921e-05
0.000383083
4.10005e-05
0.000413152
4.90011e-05
0.000445297
5.76337e-05
0.000479498
6.69418e-05
0.000515719
7.69598e-05
0.000553954
8.77214e-05
0.000594064
9.92582e-05
0.000635817
0.000111597
0.000678874
0.000124756
0.000722736
0.000138742
0.000766705
0.000153548
0.00080982
0.000169135
0.000850792
0.000185448
0.000887935
0.000202356
0.000919053
0.000219718
0.000941439
0.00023728
0.000951631
0.000254731
0.00094531
0.000271664
0.000917124
0.000287474
0.00086067
0.000301518
0.000767121
0.000312386
0.000629491
0.000434648
0.000317469
-4.96059e-05
2.08732e-05
4.99523e-05
-4.92338e-05
2.257e-05
-4.88294e-05
2.44055e-05
-4.83919e-05
2.63912e-05
-4.79161e-05
2.85398e-05
-4.74014e-05
3.0865e-05
-4.68422e-05
3.33815e-05
-4.62382e-05
3.61054e-05
-4.55818e-05
3.90478e-05
-4.48737e-05
4.2232e-05
-4.41054e-05
4.56822e-05
-4.32788e-05
4.94156e-05
-4.2382e-05
5.34555e-05
-4.14158e-05
5.78106e-05
-4.03645e-05
6.2517e-05
-3.92341e-05
6.76326e-05
-3.80079e-05
7.31685e-05
-3.6682e-05
7.91133e-05
-3.52403e-05
8.55653e-05
-3.36864e-05
9.25753e-05
-3.19943e-05
0.000100107
-3.01613e-05
0.000108262
-2.81749e-05
0.000117138
-2.6014e-05
0.000126633
-2.36705e-05
0.000136996
-2.11278e-05
0.000148163
-1.83639e-05
0.000160225
-1.53687e-05
0.000173312
-1.21116e-05
0.000187383
-8.583e-06
0.000202673
-4.74887e-06
0.000219103
-5.92087e-07
0.000236915
3.92165e-06
0.000256084
8.81811e-06
0.000276763
1.41192e-05
0.000299066
1.98671e-05
0.000322973
2.60843e-05
0.00034875
3.28116e-05
0.000376357
4.00897e-05
0.000405876
4.7949e-05
0.000437439
5.64287e-05
0.000471019
6.55717e-05
0.000506576
7.54121e-05
0.000544113
8.59834e-05
0.000583492
9.73176e-05
0.000624481
0.000109442
0.000666747
0.000122375
0.000709799
0.000136124
0.000752951
0.000150682
0.000795259
0.000166008
0.000835459
0.000182045
0.000871899
0.00019866
0.000902429
0.000215714
0.000924399
0.000232954
0.000934401
0.000250078
0.000928215
0.000266691
0.000900527
0.000282214
0.00084521
0.000295924
0.00075344
0.000306744
0.000618764
0.000428804
0.000312858
-4.88029e-05
2.05389e-05
4.91399e-05
-4.84415e-05
2.22092e-05
-4.80499e-05
2.40154e-05
-4.76272e-05
2.59689e-05
-4.71681e-05
2.8082e-05
-4.66717e-05
3.03684e-05
-4.61316e-05
3.28428e-05
-4.55479e-05
3.55209e-05
-4.49119e-05
3.84133e-05
-4.42248e-05
4.15435e-05
-4.34772e-05
4.49363e-05
-4.26718e-05
4.86081e-05
-4.17956e-05
5.25817e-05
-4.08508e-05
5.68632e-05
-3.98208e-05
6.14898e-05
-3.87129e-05
6.65222e-05
-3.75097e-05
7.19684e-05
-3.62085e-05
7.781e-05
-3.4793e-05
8.41529e-05
-3.32674e-05
9.10483e-05
-3.16061e-05
9.84485e-05
-2.98066e-05
0.000106462
-2.78565e-05
0.000115191
-2.57351e-05
0.000124511
-2.34346e-05
0.000134698
-2.09385e-05
0.000145668
-1.8225e-05
0.000157514
-1.52843e-05
0.000170373
-1.20862e-05
0.000184187
-8.621e-06
0.00019921
-4.85551e-06
0.000215338
-7.72914e-07
0.000232834
3.66137e-06
0.000251655
8.4708e-06
0.00027196
1.36783e-05
0.000293863
1.93248e-05
0.00031733
2.54322e-05
0.000342645
3.20405e-05
0.000369751
3.91897e-05
0.000398728
4.69099e-05
0.000429721
5.52395e-05
0.000462691
6.42211e-05
0.000497596
7.38882e-05
0.000534448
8.42745e-05
0.000573108
9.54118e-05
0.000613346
0.000107328
0.000654833
0.00012004
0.000697088
0.000133556
0.000739435
0.000147867
0.000780947
0.000162933
0.000820386
0.000178692
0.000856137
0.000195014
0.000886087
0.000211758
0.000907648
0.00022868
0.000917461
0.000245484
0.00091138
0.000261786
0.000884167
0.000277039
0.000829917
0.000290466
0.00073996
0.00030115
0.000608019
0.00042223
0.000307656
-4.80267e-05
2.02082e-05
4.83623e-05
-4.76697e-05
2.18537e-05
-4.72846e-05
2.36327e-05
-4.6871e-05
2.55563e-05
-4.64234e-05
2.76365e-05
-4.5941e-05
2.98865e-05
-4.54175e-05
3.23209e-05
-4.4852e-05
3.49554e-05
-4.42364e-05
3.77994e-05
-4.35704e-05
4.0877e-05
-4.28455e-05
4.42134e-05
-4.20627e-05
4.78242e-05
-4.12105e-05
5.17321e-05
-4.02893e-05
5.59406e-05
-3.92841e-05
6.04876e-05
-3.82008e-05
6.54373e-05
-3.70235e-05
7.07942e-05
-3.57486e-05
7.65335e-05
-3.4361e-05
8.27683e-05
-3.28644e-05
8.95505e-05
-3.12341e-05
9.6821e-05
-2.94676e-05
0.000104695
-2.75529e-05
0.000113279
-2.54699e-05
0.000122428
-2.32107e-05
0.000132442
-2.07593e-05
0.000143217
-1.80944e-05
0.000154851
-1.52062e-05
0.000167486
-1.20651e-05
0.000181048
-8.66158e-06
0.000195807
-4.96282e-06
0.00021164
-9.52289e-07
0.000228826
3.40293e-06
0.000247304
8.1276e-06
0.000267242
1.32429e-05
0.000288753
1.87895e-05
0.000311786
2.4789e-05
0.000336647
3.12806e-05
0.000363261
3.83036e-05
0.000391706
4.58876e-05
0.000422138
5.40706e-05
0.000454508
6.28946e-05
0.000488772
7.23928e-05
0.000524949
8.25986e-05
0.000562901
9.35434e-05
0.000602399
0.000105254
0.00064312
0.000117749
0.000684591
0.000131033
0.000726147
0.000145097
0.000766881
0.000159899
0.000805578
0.000175377
0.000840658
0.000191402
0.000870054
0.000207836
0.000891225
0.000224443
0.000900865
0.000240933
0.000894913
0.000256934
0.000868181
0.000271932
0.000814971
0.000285115
0.000726807
0.00029558
0.000597644
0.000415994
0.000302059
-4.73475e-05
1.98763e-05
4.76824e-05
-4.69908e-05
2.14976e-05
-4.66068e-05
2.32504e-05
-4.61956e-05
2.51455e-05
-4.57522e-05
2.71945e-05
-4.5276e-05
2.94103e-05
-4.47609e-05
3.18071e-05
-4.42065e-05
3.44003e-05
-4.3604e-05
3.71982e-05
-4.29539e-05
4.02255e-05
-4.22462e-05
4.35074e-05
-4.14831e-05
4.70589e-05
-4.06513e-05
5.09024e-05
-3.97524e-05
5.50391e-05
-3.87701e-05
5.95078e-05
-3.77109e-05
6.43758e-05
-3.65583e-05
6.96444e-05
-3.53095e-05
7.52827e-05
-3.39489e-05
8.14106e-05
-3.24808e-05
8.8081e-05
-3.08805e-05
9.52236e-05
-2.91461e-05
0.000102959
-2.72657e-05
0.000111401
-2.52195e-05
0.000120382
-2.30001e-05
0.000130225
-2.05918e-05
0.00014081
-1.79736e-05
0.000152235
-1.5136e-05
0.00016465
-1.205e-05
0.000177963
-8.70605e-06
0.000192465
-5.07226e-06
0.000208007
-1.13247e-06
0.000224888
3.14657e-06
0.00024303
7.7875e-06
0.000262606
1.28127e-05
0.000283732
1.82616e-05
0.00030634
2.41554e-05
0.000330755
3.05328e-05
0.000356885
3.74324e-05
0.000384808
4.48834e-05
0.000414688
5.29232e-05
0.00044647
6.15931e-05
0.000480104
7.09262e-05
0.000515618
8.09551e-05
0.000552874
9.17107e-05
0.000591646
0.000103219
0.000631615
0.000115497
0.000672315
0.00012855
0.000713096
0.000142364
0.000753068
0.000156899
0.000791039
0.000172093
0.000825466
0.000187821
0.000854315
0.000203945
0.000875099
0.00022024
0.000884559
0.000236425
0.000878703
0.000252133
0.000852426
0.000266886
0.000800184
0.000279858
0.000713792
0.000290107
0.000587343
0.0004096
0.000296447
-4.67855e-05
1.95433e-05
4.71223e-05
-4.64267e-05
2.11398e-05
-4.60405e-05
2.28662e-05
-4.56275e-05
2.47329e-05
-4.51828e-05
2.67515e-05
-4.47068e-05
2.89343e-05
-4.41933e-05
3.12951e-05
-4.36424e-05
3.38489e-05
-4.30457e-05
3.66031e-05
-4.24033e-05
3.95823e-05
-4.1706e-05
4.28121e-05
-4.0955e-05
4.63066e-05
-4.01379e-05
5.00879e-05
-3.92552e-05
5.41549e-05
-3.82915e-05
5.8547e-05
-3.72522e-05
6.33349e-05
-3.61216e-05
6.85168e-05
-3.48959e-05
7.40555e-05
-3.35605e-05
8.00781e-05
-3.21189e-05
8.66382e-05
-3.05471e-05
9.36546e-05
-2.88431e-05
0.000101255
-2.69954e-05
0.000109556
-2.49844e-05
0.000118371
-2.28032e-05
0.000128046
-2.04361e-05
0.000138444
-1.78629e-05
0.000149664
-1.5074e-05
0.000161863
-1.20411e-05
0.000174932
-8.75509e-06
0.00018918
-5.18421e-06
0.000204437
-1.31275e-06
0.000221018
2.89097e-06
0.00023883
7.45102e-06
0.000258052
1.2388e-05
0.000278799
1.77415e-05
0.000300989
2.35321e-05
0.000324966
2.97979e-05
0.00035062
3.65768e-05
0.00037803
4.38976e-05
0.000407368
5.17972e-05
0.000438571
6.03162e-05
0.000471585
6.9487e-05
0.000506447
7.93416e-05
0.000543019
8.99101e-05
0.000581075
0.000101218
0.000620305
0.00011328
0.00066025
0.0001261
0.000700273
0.000139665
0.0007395
0.000153933
0.000776765
0.000168842
0.000810553
0.000184273
0.000838875
0.000200092
0.000859288
0.000216082
0.00086858
0.000231969
0.000862834
0.000247394
0.000837014
0.000261909
0.000785714
0.000274695
0.000701039
0.000284803
0.000577323
0.000403512
0.000291113
-4.63225e-05
1.92102e-05
4.66576e-05
-4.59634e-05
2.07808e-05
-4.55756e-05
2.24797e-05
-4.51601e-05
2.43174e-05
-4.47126e-05
2.63051e-05
-4.42336e-05
2.8455e-05
-4.37176e-05
3.07803e-05
-4.31653e-05
3.32957e-05
-4.25683e-05
3.60074e-05
-4.19279e-05
3.89403e-05
-4.12342e-05
4.212e-05
-4.04896e-05
4.55597e-05
-3.96805e-05
4.92811e-05
-3.88088e-05
5.32806e-05
-3.78577e-05
5.75985e-05
-3.68338e-05
6.23085e-05
-3.57201e-05
6.7406e-05
-3.45138e-05
7.28472e-05
-3.31996e-05
7.87668e-05
-3.17815e-05
8.52187e-05
-3.02354e-05
9.21112e-05
-2.85594e-05
9.95779e-05
-2.67422e-05
0.000107741
-2.47645e-05
0.000116394
-2.26194e-05
0.000125903
-2.02918e-05
0.000136117
-1.77617e-05
0.000147136
-1.50197e-05
0.000159123
-1.20382e-05
0.000171952
-8.80804e-06
0.000185952
-5.29838e-06
0.000200928
-1.49382e-06
0.000217215
2.63763e-06
0.000234703
7.11803e-06
0.000253576
1.19692e-05
0.000273952
1.72294e-05
0.000295731
2.29191e-05
0.000319277
2.90756e-05
0.000344465
3.57363e-05
0.000371371
4.29295e-05
0.000400176
5.06913e-05
0.00043081
5.90617e-05
0.000463216
6.80725e-05
0.000497438
7.77548e-05
0.000533339
8.81379e-05
0.000570695
9.92459e-05
0.000609201
0.000111093
0.000648407
0.000123682
0.000687687
0.000136998
0.000726187
0.000151
0.000762761
0.000165628
0.000795928
0.000180767
0.000823729
0.000196288
0.000843767
0.000211981
0.000852878
0.000227581
0.000847209
0.000242734
0.00082182
0.000257016
0.000771398
0.000269634
0.000688382
0.000279692
0.000567214
0.000397021
0.000286134
-4.59157e-05
1.88809e-05
4.62496e-05
-4.55583e-05
2.04245e-05
-4.51714e-05
2.20949e-05
-4.47558e-05
2.39026e-05
-4.43074e-05
2.58585e-05
-4.38268e-05
2.79746e-05
-4.33091e-05
3.0264e-05
-4.27547e-05
3.2741e-05
-4.21565e-05
3.54108e-05
-4.15152e-05
3.82981e-05
-4.08223e-05
4.1429e-05
-4.00794e-05
4.48155e-05
-3.92748e-05
4.84788e-05
-3.84087e-05
5.24129e-05
-3.74663e-05
5.66589e-05
-3.64527e-05
6.12933e-05
-3.53524e-05
6.63085e-05
-3.41615e-05
7.16548e-05
-3.28655e-05
7.74735e-05
-3.14676e-05
8.38196e-05
-2.99446e-05
9.05908e-05
-2.8294e-05
9.79267e-05
-2.6505e-05
0.000105955
-2.45585e-05
0.000114447
-2.24477e-05
0.000123795
-2.01577e-05
0.000133828
-1.76689e-05
0.000144649
-1.49722e-05
0.000156427
-1.20404e-05
0.000169022
-8.86455e-06
0.000182777
-5.41418e-06
0.000197479
-1.67428e-06
0.000213477
2.38573e-06
0.000230646
6.78924e-06
0.000249178
1.15564e-05
0.000269189
1.67254e-05
0.000290564
2.23162e-05
0.000313687
2.83655e-05
0.000338416
3.491e-05
0.000364827
4.19775e-05
0.000393109
4.96035e-05
0.000423185
5.78272e-05
0.000454992
6.66796e-05
0.000488585
7.61912e-05
0.000523826
8.63901e-05
0.000560495
9.72998e-05
0.00059829
0.000108933
0.000636771
0.000121292
0.000675325
0.000134362
0.000713113
0.000148101
0.000749014
0.000162454
0.000781571
0.000177308
0.000808865
0.00019254
0.000828541
0.000207948
0.00083748
0.000223274
0.000831897
0.000238165
0.000806939
0.00025222
0.000757383
0.000264681
0.000675956
0.000274754
0.000557229
0.000390528
0.000281451
-4.55281e-05
1.85572e-05
4.58543e-05
-4.51767e-05
2.00732e-05
-4.47946e-05
2.17143e-05
-4.43829e-05
2.34909e-05
-4.39371e-05
2.54139e-05
-4.3458e-05
2.74953e-05
-4.29408e-05
2.97479e-05
-4.23865e-05
3.21859e-05
-4.17878e-05
3.48134e-05
-4.11465e-05
3.76553e-05
-4.04538e-05
4.07377e-05
-3.97123e-05
4.40718e-05
-3.89097e-05
4.76783e-05
-3.8048e-05
5.15486e-05
-3.71112e-05
5.57246e-05
-3.61057e-05
6.02854e-05
-3.50152e-05
6.52206e-05
-3.38368e-05
7.04745e-05
-3.25557e-05
7.61951e-05
-3.11754e-05
8.24379e-05
-2.96726e-05
8.90906e-05
-2.80452e-05
9.62985e-05
-2.62822e-05
0.000104194
-2.43649e-05
0.00011253
-2.22866e-05
0.000121719
-2.00325e-05
0.000131575
-1.75835e-05
0.000142202
-1.49305e-05
0.000153776
-1.20468e-05
0.000166139
-8.92352e-06
0.000179655
-5.53108e-06
0.000194086
-1.8546e-06
0.000209802
2.13669e-06
0.000226659
6.46427e-06
0.000244854
1.11493e-05
0.000264507
1.62289e-05
0.000285486
2.17226e-05
0.000308195
2.76664e-05
0.000332473
3.40964e-05
0.000358397
4.10398e-05
0.000386166
4.85315e-05
0.000415694
5.66099e-05
0.000446915
6.53053e-05
0.000479892
7.46474e-05
0.000514487
8.46636e-05
0.000550482
9.53763e-05
0.000587581
0.000106798
0.000625353
0.00011893
0.000663197
0.000131757
0.000700289
0.00014524
0.00073553
0.000159325
0.000767491
0.000173904
0.000794282
0.000188859
0.000813587
0.000203992
0.000822339
0.000219055
0.000816812
0.000233697
0.000792258
0.00024753
0.000743519
0.00025984
0.000663611
0.000269949
0.000547073
0.000383492
0.000276939
-4.5128e-05
1.82417e-05
4.54471e-05
-4.47842e-05
1.97301e-05
-4.44097e-05
2.13416e-05
-4.40053e-05
2.30867e-05
-4.3566e-05
2.49761e-05
-4.30929e-05
2.70219e-05
-4.25806e-05
2.92369e-05
-4.20304e-05
3.1635e-05
-4.14351e-05
3.42195e-05
-4.07964e-05
3.70156e-05
-4.01062e-05
4.00494e-05
-3.93671e-05
4.33313e-05
-3.8568e-05
4.68815e-05
-3.771e-05
5.06891e-05
-3.6779e-05
5.47962e-05
-3.57802e-05
5.9285e-05
-3.4699e-05
6.41421e-05
-3.35316e-05
6.93056e-05
-3.22642e-05
7.49303e-05
-3.08997e-05
8.10723e-05
-2.94158e-05
8.7609e-05
-2.78098e-05
9.46919e-05
-2.60713e-05
0.000102458
-2.41816e-05
0.00011064
-2.21343e-05
0.000119674
-1.99147e-05
0.000129356
-1.7504e-05
0.000139793
-1.48934e-05
0.000151166
-1.20564e-05
0.000163304
-8.9846e-06
0.000176584
-5.64845e-06
0.000190751
-2.0336e-06
0.000206188
1.88949e-06
0.000222738
6.1434e-06
0.000240605
1.07477e-05
0.000259906
1.57393e-05
0.000280496
2.11373e-05
0.000302797
2.69771e-05
0.000326634
3.32939e-05
0.000352081
4.01146e-05
0.000379346
4.74733e-05
0.000408335
5.54077e-05
0.000438981
6.39474e-05
0.000471351
7.31215e-05
0.000505312
8.29565e-05
0.000540645
9.34743e-05
0.000577062
0.000104687
0.000614138
0.000116595
0.000651285
0.000129185
0.000687695
0.000142419
0.000722289
0.000156244
0.000753661
0.000170559
0.000779958
0.000185247
0.000798904
0.000200119
0.000807477
0.00021493
0.000802014
0.000229334
0.000777866
0.000242951
0.000729939
0.000255111
0.000651492
0.000265243
0.00053703
0.000376435
0.000272494
-4.47019e-05
1.79342e-05
4.50108e-05
-4.43677e-05
1.93955e-05
-4.40027e-05
2.09778e-05
-4.36078e-05
2.26913e-05
-4.31776e-05
2.45471e-05
-4.27132e-05
2.6557e-05
-4.22089e-05
2.87337e-05
-4.16661e-05
3.10913e-05
-4.10775e-05
3.36321e-05
-4.04453e-05
3.63818e-05
-3.97609e-05
3.93666e-05
-3.90279e-05
4.2596e-05
-3.82343e-05
4.609e-05
-3.73829e-05
4.98352e-05
-3.64586e-05
5.38744e-05
-3.54682e-05
5.82923e-05
-3.4396e-05
6.30726e-05
-3.32399e-05
6.81476e-05
-3.19854e-05
7.36785e-05
-3.06363e-05
7.97218e-05
-2.91701e-05
8.61453e-05
-2.75846e-05
9.31057e-05
-2.58695e-05
0.000100745
-2.40064e-05
0.000108777
-2.1989e-05
0.000117658
-1.98027e-05
0.00012717
-1.74293e-05
0.000137422
-1.48598e-05
0.000148598
-1.20685e-05
0.000160513
-9.04676e-06
0.000173563
-5.76598e-06
0.00018747
-2.21183e-06
0.000202635
1.64523e-06
0.000218885
5.82602e-06
0.000236428
1.0351e-05
0.000255384
1.52559e-05
0.000275592
2.05595e-05
0.000297494
2.62964e-05
0.000320897
3.25013e-05
0.000345876
3.92006e-05
0.000372647
4.64276e-05
0.000401109
5.42193e-05
0.000431191
6.26048e-05
0.000462968
7.16125e-05
0.000496308
8.12684e-05
0.000530993
9.15938e-05
0.000566741
0.000102601
0.000603136
0.00011429
0.0006396
0.000126649
0.00067534
0.00013964
0.000709297
0.000153215
0.000740091
0.000167277
0.000765897
0.00018171
0.000784472
0.000196331
0.00079285
0.000210901
0.000787424
0.000225077
0.000763655
0.000238484
0.000716504
0.000250492
0.000639453
0.000260609
0.000526869
0.000368959
0.000268043
-4.42414e-05
1.7636e-05
4.45439e-05
-4.3916e-05
1.90709e-05
-4.35609e-05
2.06247e-05
-4.31764e-05
2.23072e-05
-4.27573e-05
2.41296e-05
-4.23041e-05
2.61035e-05
-4.18112e-05
2.8242e-05
-4.12793e-05
3.05587e-05
-4.07014e-05
3.30556e-05
-4.0079e-05
3.57583e-05
-3.94044e-05
3.86936e-05
-3.86801e-05
4.18703e-05
-3.78959e-05
4.53079e-05
-3.7053e-05
4.89908e-05
-3.61385e-05
5.29623e-05
-3.51577e-05
5.73099e-05
-3.40969e-05
6.20142e-05
-3.29528e-05
6.70021e-05
-3.17126e-05
7.24406e-05
-3.0379e-05
7.83872e-05
-2.8931e-05
8.46994e-05
-2.73658e-05
9.154e-05
-2.56738e-05
9.90551e-05
-2.38367e-05
0.00010694
-2.18485e-05
0.000115672
-1.96949e-05
0.000125017
-1.73579e-05
0.000135086
-1.48288e-05
0.00014607
-1.20822e-05
0.000157768
-9.10979e-06
0.000170592
-5.88307e-06
0.000184244
-2.38834e-06
0.000199141
1.40289e-06
0.000215096
5.51234e-06
0.000232323
9.9589e-06
0.00025094
1.47782e-05
0.000270774
1.99885e-05
0.000292284
2.56237e-05
0.000315262
3.17181e-05
0.000339782
3.82971e-05
0.000366068
4.53939e-05
0.000394013
5.30445e-05
0.00042354
6.12776e-05
0.000454735
7.0121e-05
0.000487463
7.96004e-05
0.000521512
8.97368e-05
0.000556603
0.000100542
0.000592328
0.000112018
0.00062812
0.000124152
0.000663201
0.000136909
0.000696531
0.000150243
0.000726751
0.00016406
0.000752071
0.00017825
0.000770288
0.00019263
0.00077848
0.000206967
0.000773098
0.000220923
0.000749711
0.000234127
0.000703335
0.000245978
0.000627647
0.000256036
0.000516902
0.000361617
0.000263562
-4.37505e-05
1.73455e-05
4.40429e-05
-4.34348e-05
1.87551e-05
-4.30899e-05
2.02811e-05
-4.27164e-05
2.19335e-05
-4.23088e-05
2.37231e-05
-4.18675e-05
2.56619e-05
-4.13868e-05
2.77623e-05
-4.08673e-05
3.00385e-05
-4.03018e-05
3.24913e-05
-3.9692e-05
3.5147e-05
-3.90296e-05
3.80326e-05
-3.83176e-05
4.11562e-05
-3.7545e-05
4.45372e-05
-3.67144e-05
4.81577e-05
-3.58117e-05
5.20618e-05
-3.48436e-05
5.63395e-05
-3.37955e-05
6.09687e-05
-3.26655e-05
6.58703e-05
-3.14403e-05
7.12179e-05
-3.01235e-05
7.70692e-05
-2.86941e-05
8.32723e-05
-2.71498e-05
8.99951e-05
-2.5481e-05
9.73883e-05
-2.36699e-05
0.000105129
-2.17109e-05
0.000113715
-1.95896e-05
0.000122897
-1.72886e-05
0.000132787
-1.47992e-05
0.000143582
-1.20966e-05
0.000155066
-9.17258e-06
0.000167669
-5.99946e-06
0.000181071
-2.56348e-06
0.000195706
1.16364e-06
0.000211372
5.20202e-06
0.000228287
9.57132e-06
0.000246573
1.4306e-05
0.00026604
1.94241e-05
0.000287167
2.49589e-05
0.000309728
3.09439e-05
0.000333798
3.74043e-05
0.000359609
4.43724e-05
0.000387046
5.18839e-05
0.00041603
5.99669e-05
0.000446654
6.86487e-05
0.000478785
7.79548e-05
0.00051221
8.79059e-05
0.000546656
9.85141e-05
0.000581725
0.000109782
0.000616857
0.000121698
0.000651289
0.000134229
0.000684
0.00014733
0.000713655
0.000160914
0.000738491
0.000174868
0.000756337
0.000189016
0.000764327
0.000203128
0.00075897
0.00021687
0.000735941
0.000229873
0.000690308
0.000241564
0.000615931
0.000251522
0.000506905
0.000354054
0.000259049
-4.32295e-05
1.70628e-05
4.35154e-05
-4.29221e-05
1.8448e-05
-4.25868e-05
1.99473e-05
-4.22239e-05
2.15705e-05
-4.18279e-05
2.33285e-05
-4.13993e-05
2.52327e-05
-4.09318e-05
2.7296e-05
-4.04263e-05
2.9532e-05
-3.9875e-05
3.19413e-05
-3.92794e-05
3.45502e-05
-3.86314e-05
3.73862e-05
-3.79335e-05
4.04569e-05
-3.71755e-05
4.37813e-05
-3.63589e-05
4.73396e-05
-3.54711e-05
5.11764e-05
-3.45174e-05
5.53843e-05
-3.34851e-05
5.99387e-05
-3.2371e-05
6.47549e-05
-3.11633e-05
7.00124e-05
-2.98647e-05
7.57696e-05
-2.84554e-05
8.1865e-05
-2.69328e-05
8.8472e-05
-2.52881e-05
9.57455e-05
-2.35035e-05
0.000103344
-2.15737e-05
0.000111787
-1.94848e-05
0.000120809
-1.72196e-05
0.000130523
-1.47697e-05
0.000141133
-1.21107e-05
0.000152408
-9.23476e-06
0.000164794
-6.11423e-06
0.000177951
-2.73614e-06
0.000192329
9.26887e-07
0.000207711
4.89565e-06
0.000224322
9.18842e-06
0.000242283
1.38395e-05
0.00026139
1.88666e-05
0.00028214
2.43023e-05
0.000304292
3.01794e-05
0.00032792
3.65229e-05
0.000353265
4.33644e-05
0.000380204
5.07392e-05
0.000408655
5.86747e-05
0.000438718
6.71981e-05
0.00047026
7.63345e-05
0.000503071
8.61048e-05
0.000536884
9.65211e-05
0.000571305
0.000107587
0.000605787
0.000119292
0.000639579
0.000131604
0.000671678
0.000144481
0.000700772
0.000157838
0.000725128
0.000171564
0.000742615
0.000185488
0.000750415
0.00019938
0.00074509
0.000212912
0.000722422
0.000225718
0.000677537
0.000237243
0.000604455
0.000247066
0.000497176
0.000346773
0.000254525
-4.26861e-05
1.67866e-05
4.29635e-05
-4.23871e-05
1.81482e-05
-4.20604e-05
1.96218e-05
-4.17074e-05
2.1217e-05
-4.13221e-05
2.29442e-05
-4.09051e-05
2.48151e-05
-4.04501e-05
2.68422e-05
-3.99581e-05
2.90391e-05
-3.94211e-05
3.14056e-05
-3.88407e-05
3.39683e-05
-3.82083e-05
3.67553e-05
-3.75268e-05
3.97733e-05
-3.67849e-05
4.30413e-05
-3.59852e-05
4.65376e-05
-3.5114e-05
5.03075e-05
-3.41778e-05
5.4446e-05
-3.31626e-05
5.8926e-05
-3.20669e-05
6.36575e-05
-3.08779e-05
6.88259e-05
-2.95994e-05
7.44899e-05
-2.82115e-05
8.04792e-05
-2.6712e-05
8.6972e-05
-2.50922e-05
9.41276e-05
-2.33349e-05
0.000101587
-2.14349e-05
0.000109888
-1.93787e-05
0.000118753
-1.71494e-05
0.000128295
-1.47389e-05
0.000138723
-1.21234e-05
0.000149794
-9.29487e-06
0.000161966
-6.22683e-06
0.000174883
-2.90614e-06
0.000189009
6.94174e-07
0.000204114
4.59353e-06
0.000220426
8.81085e-06
0.000238068
1.33794e-05
0.000256822
1.83167e-05
0.000277203
2.36546e-05
0.000298954
2.94257e-05
0.00032215
3.56542e-05
0.000347037
4.23714e-05
0.000373488
4.9612e-05
0.000401416
5.74032e-05
0.000430929
6.57717e-05
0.000461895
7.47428e-05
0.000494104
8.43369e-05
0.000527295
9.45668e-05
0.00056108
0.000105437
0.000594922
0.000116937
0.000628084
0.000129038
0.000659578
0.000141697
0.000688118
0.000154834
0.000711996
0.00016834
0.000729114
0.000182044
0.00073671
0.000195719
0.000731401
0.000209045
0.000709073
0.000221655