/*--------------------------------*- C++ -*----------------------------------*\
  =========                 |
  \\      /  F ield         | OpenFOAM: The Open Source CFD Toolbox
   \\    /   O peration     | Website:  https://openfoam.org
    \\  /    A nd           | Version:  6.0
     \\/     M anipulation  |
\*---------------------------------------------------------------------------*/
FoamFile
{
    version     2.0;
    format      ascii;
    class       volVectorField;
    location    "17";
    object      U;
}
// * * * * * * * * * * * * * * * * * * * * * * * * * * * * * * * * * * * * * //

dimensions      [0 1 -1 0 0 0 0];

internalField   nonuniform List<vector> 
62000
(
(0.984694 0.173823 -3.67014e-21)
(0.98469 0.173817 3.08429e-21)
(0.984688 0.173817 3.19628e-21)
(0.984689 0.173816 -1.41587e-20)
(0.984691 0.173814 -1.63637e-20)
(0.984694 0.173811 5.71774e-20)
(0.984698 0.173809 -6.36141e-20)
(0.984703 0.173806 3.7413e-20)
(0.984708 0.173804 -1.77663e-20)
(0.984712 0.173801 -9.19949e-20)
(0.984717 0.173799 -1.2103e-20)
(0.984721 0.173798 1.31916e-19)
(0.984725 0.173797 2.73562e-20)
(0.984728 0.173796 -9.69024e-20)
(0.98473 0.173796 1.53432e-19)
(0.984732 0.173797 -8.23592e-20)
(0.984734 0.173799 8.68336e-20)
(0.984736 0.173801 -1.0306e-19)
(0.984738 0.173804 5.17715e-20)
(0.98474 0.173806 -1.61829e-19)
(0.984743 0.17381 2.14054e-19)
(0.984745 0.173813 6.47305e-20)
(0.984748 0.173816 9.49924e-20)
(0.984752 0.173819 -4.32953e-19)
(0.984755 0.173821 1.60828e-19)
(0.984759 0.173823 -1.01137e-19)
(0.984763 0.173826 -1.71532e-21)
(0.984766 0.173827 -8.44491e-20)
(0.984769 0.173829 2.64425e-19)
(0.984771 0.173831 -1.50648e-19)
(0.984773 0.173836 3.67237e-19)
(0.984773 0.173838 -7.68235e-19)
(0.984772 0.173839 7.19821e-20)
(0.984771 0.173835 -2.558e-19)
(0.984765 0.173832 -8.31796e-20)
(0.984754 0.173834 -2.58365e-19)
(0.984737 0.173838 -8.02191e-20)
(0.984714 0.173844 -8.36686e-20)
(0.984683 0.173848 2.50921e-19)
(0.98464 0.17385 1.18605e-18)
(0.984584 0.173847 -2.8922e-19)
(0.984512 0.173832 -1.69117e-18)
(0.98442 0.1738 -2.73443e-18)
(0.984306 0.173742 1.51532e-18)
(0.984168 0.173647 4.60964e-19)
(0.984002 0.173504 -2.25631e-18)
(0.983806 0.173305 5.24957e-19)
(0.983576 0.173038 -9.72461e-19)
(0.983309 0.17269 -4.63792e-18)
(0.983001 0.172247 -1.09937e-18)
(0.982658 0.171676 -5.7427e-19)
(0.982285 0.170958 -7.60695e-18)
(0.981899 0.170027 1.07667e-18)
(0.981548 0.168867 8.77178e-18)
(0.981239 0.167398 2.29865e-18)
(0.981025 0.165578 7.8001e-18)
(0.980915 0.163052 -9.05951e-19)
(0.980949 0.159732 -1.46917e-18)
(0.981464 0.152876 3.41622e-18)
(0.962901 0.135238 6.67952e-19)
(0.9847 0.174923 -9.86436e-22)
(0.984677 0.174893 9.52857e-21)
(0.984654 0.174877 3.99048e-21)
(0.984632 0.174862 -1.72995e-20)
(0.984613 0.174846 7.26208e-21)
(0.984598 0.174829 -5.07392e-20)
(0.984586 0.174812 4.69774e-20)
(0.984579 0.174793 2.75605e-20)
(0.984576 0.174772 -5.21499e-20)
(0.984576 0.17475 2.2439e-21)
(0.98458 0.174727 5.18968e-20)
(0.984585 0.174703 2.07654e-22)
(0.984592 0.174678 1.54596e-20)
(0.9846 0.174654 -1.33403e-19)
(0.984608 0.17463 2.71822e-19)
(0.984616 0.174608 -2.43261e-19)
(0.984624 0.174588 1.15876e-19)
(0.984631 0.174569 -2.46242e-20)
(0.984638 0.174554 -6.85088e-20)
(0.984644 0.17454 1.9274e-19)
(0.984651 0.17453 -3.08162e-19)
(0.984656 0.174521 1.81634e-19)
(0.984663 0.174515 -2.35326e-19)
(0.984668 0.174511 1.41562e-19)
(0.984674 0.17451 1.33829e-19)
(0.984678 0.17451 -8.94763e-20)
(0.984683 0.174514 -9.11374e-22)
(0.984684 0.174519 1.02128e-19)
(0.984686 0.174527 8.75994e-20)
(0.984683 0.174538 -1.84869e-19)
(0.98468 0.174556 3.80881e-19)
(0.984674 0.174577 8.04087e-20)
(0.984667 0.174599 2.48163e-19)
(0.984655 0.174615 1.99576e-20)
(0.98463 0.174633 6.96978e-20)
(0.98459 0.174658 -7.6102e-20)
(0.984538 0.174684 -2.37521e-19)
(0.984474 0.174701 -1.15528e-19)
(0.984395 0.174704 -6.68572e-19)
(0.984295 0.174686 -7.82658e-19)
(0.984172 0.174637 6.15532e-19)
(0.984021 0.174546 3.73828e-19)
(0.983839 0.174402 2.86875e-18)
(0.983623 0.17419 1.74051e-19)
(0.983369 0.173902 -4.62238e-18)
(0.983072 0.173528 1.88143e-18)
(0.982723 0.173063 1.60834e-18)
(0.982317 0.172496 1.93327e-18)
(0.981844 0.171809 4.13354e-19)
(0.981299 0.170968 8.01477e-20)
(0.980707 0.169902 3.4596e-18)
(0.980067 0.168594 9.50456e-18)
(0.979448 0.166939 -6.50119e-18)
(0.978938 0.164941 -1.59095e-17)
(0.978543 0.162512 -3.86509e-18)
(0.978303 0.15965 -2.5823e-18)
(0.978253 0.155751 -6.17434e-18)
(0.978012 0.150876 -3.06658e-18)
(0.979572 0.140968 5.08047e-18)
(0.958004 0.120112 2.08192e-18)
(0.984793 0.17573 -4.8284e-21)
(0.984787 0.175706 -6.8875e-22)
(0.984772 0.175686 7.64062e-22)
(0.98475 0.175676 3.51524e-21)
(0.984722 0.175666 1.00523e-20)
(0.98469 0.175657 -9.62969e-21)
(0.984658 0.17565 5.19684e-20)
(0.984627 0.175643 -2.50216e-20)
(0.984599 0.175634 -1.35829e-20)
(0.984576 0.175625 -8.46651e-20)
(0.984558 0.175613 7.21753e-20)
(0.984545 0.1756 5.38398e-21)
(0.984537 0.175584 -1.6947e-20)
(0.984534 0.175566 4.56002e-20)
(0.984534 0.175546 -7.90741e-20)
(0.984538 0.175525 4.20392e-22)
(0.984543 0.175505 -3.74501e-20)
(0.98455 0.175483 4.5746e-22)
(0.984558 0.175464 8.91407e-20)
(0.984566 0.175444 -1.37956e-19)
(0.984574 0.175427 8.71567e-20)
(0.984582 0.175411 3.45727e-19)
(0.984589 0.175398 -4.51613e-20)
(0.984595 0.175385 -4.95659e-19)
(0.984601 0.175377 2.58455e-19)
(0.984603 0.17537 -1.43373e-19)
(0.984606 0.175368 2.37268e-19)
(0.984603 0.175366 -1.45755e-19)
(0.984601 0.17537 -2.96136e-19)
(0.984591 0.175376 3.2172e-19)
(0.984583 0.175391 -2.31703e-19)
(0.984571 0.175411 3.17065e-19)
(0.984559 0.175434 -8.82761e-19)
(0.984539 0.175449 7.79564e-19)
(0.9845 0.175462 -4.13196e-19)
(0.984442 0.175478 1.68371e-19)
(0.984372 0.175488 1.2679e-19)
(0.984292 0.175479 -1.07248e-20)
(0.984199 0.175445 -3.61641e-20)
(0.984089 0.175376 8.00352e-19)
(0.983959 0.175262 -3.23626e-19)
(0.983809 0.175094 5.12769e-19)
(0.983636 0.174863 -1.84722e-18)
(0.983439 0.174561 -9.27487e-19)
(0.983213 0.174189 1.03718e-18)
(0.982955 0.173744 -3.58973e-18)
(0.982652 0.173233 4.97122e-19)
(0.982296 0.172645 -3.24966e-18)
(0.981877 0.171956 4.64733e-18)
(0.981385 0.171126 1.22974e-18)
(0.980864 0.170059 6.32126e-19)
(0.980301 0.168759 -2.04424e-19)
(0.979803 0.167149 2.79604e-18)
(0.979456 0.16527 3.74618e-19)
(0.979265 0.163123 -5.78437e-18)
(0.979193 0.160779 -3.18114e-18)
(0.979333 0.157715 -2.34273e-18)
(0.978648 0.154054 -7.29586e-18)
(0.98085 0.147057 -5.27292e-19)
(0.965068 0.135966 7.63757e-19)
(0.984747 0.176326 -4.87501e-21)
(0.984785 0.176315 1.50194e-20)
(0.984812 0.176298 -2.31708e-21)
(0.984829 0.176288 -1.56764e-20)
(0.984833 0.176279 2.37911e-20)
(0.984824 0.176271 4.13042e-20)
(0.984805 0.176268 -5.42988e-20)
(0.984777 0.176266 5.93356e-21)
(0.984743 0.176266 1.90912e-20)
(0.984706 0.176268 4.00525e-20)
(0.984669 0.176271 -7.4673e-20)
(0.984633 0.176274 -2.32008e-20)
(0.984601 0.176277 -2.61579e-20)
(0.984574 0.176279 1.20405e-19)
(0.984552 0.17628 -8.10699e-20)
(0.984535 0.176279 1.91184e-19)
(0.984524 0.176278 -2.34079e-19)
(0.984516 0.176273 -3.47417e-20)
(0.984512 0.176269 2.5197e-19)
(0.984511 0.176261 -8.87307e-20)
(0.984512 0.176255 -3.29397e-20)
(0.984514 0.176246 -3.5622e-20)
(0.984517 0.176238 -3.28085e-19)
(0.98452 0.176229 1.90656e-19)
(0.984522 0.176221 -8.79954e-20)
(0.984521 0.176212 1.43312e-19)
(0.98452 0.176207 6.7956e-20)
(0.984513 0.176199 3.41661e-19)
(0.984505 0.176196 -2.17051e-19)
(0.98449 0.176191 -2.88843e-19)
(0.984477 0.176194 4.63282e-19)
(0.98446 0.1762 -3.85853e-19)
(0.984443 0.176207 7.16013e-19)
(0.984414 0.1762 -4.30595e-19)
(0.984363 0.176186 1.77049e-19)
(0.984294 0.176169 3.02343e-19)
(0.984212 0.176138 -1.28804e-19)
(0.984122 0.176082 1.61824e-19)
(0.984022 0.175993 -7.9632e-20)
(0.983909 0.175864 2.4387e-19)
(0.983782 0.175686 -6.98056e-19)
(0.983639 0.175453 1.95551e-19)
(0.983481 0.175159 4.31213e-19)
(0.983305 0.174802 1.07243e-18)
(0.983108 0.17439 1.44768e-18)
(0.982886 0.173921 3.49542e-19)
(0.982623 0.173406 2.33642e-18)
(0.982311 0.172828 2.59526e-18)
(0.981937 0.172152 3.03667e-18)
(0.981489 0.171326 -2.23577e-18)
(0.981015 0.170231 -3.09954e-18)
(0.980487 0.168879 2.01982e-18)
(0.980027 0.167203 2.74118e-18)
(0.97972 0.165251 6.87084e-18)
(0.979587 0.163076 4.40311e-18)
(0.979532 0.16078 7.12218e-18)
(0.979762 0.157947 1.26656e-17)
(0.978716 0.154561 -9.37554e-19)
(0.981093 0.148973 -6.76597e-18)
(0.968827 0.140636 -5.15975e-18)
(0.984558 0.17711 9.54728e-21)
(0.984595 0.177094 -3.21719e-21)
(0.984638 0.177076 5.38927e-21)
(0.984684 0.177055 -7.6713e-21)
(0.984727 0.177033 1.7265e-20)
(0.984762 0.177009 -8.609e-21)
(0.984785 0.176987 4.63678e-21)
(0.984796 0.176966 -6.95101e-20)
(0.984794 0.176948 5.85633e-20)
(0.984781 0.176934 -1.1758e-19)
(0.984758 0.176925 1.3024e-19)
(0.984729 0.176919 -1.58597e-20)
(0.984695 0.176917 -3.51562e-20)
(0.98466 0.176918 -1.61468e-20)
(0.984626 0.176922 -3.52089e-21)
(0.984594 0.176928 -1.66226e-19)
(0.984565 0.176936 7.49241e-21)
(0.98454 0.176943 1.83653e-19)
(0.98452 0.176952 -6.01534e-20)
(0.984503 0.176959 -6.39916e-20)
(0.98449 0.176966 1.08533e-19)
(0.984479 0.176969 -5.45683e-20)
(0.98447 0.176973 2.31236e-19)
(0.984462 0.176974 1.28624e-19)
(0.984455 0.176974 9.95991e-20)
(0.984445 0.17697 -3.11393e-19)
(0.984435 0.176968 -4.44145e-20)
(0.984421 0.17696 -2.50931e-19)
(0.984405 0.176953 4.73856e-20)
(0.984382 0.17694 -8.70244e-20)
(0.984361 0.176932 -3.46293e-20)
(0.984336 0.176923 2.85823e-19)
(0.984309 0.176911 -7.17253e-19)
(0.984268 0.176878 -3.17904e-20)
(0.984206 0.176834 -3.59278e-19)
(0.984123 0.176781 -1.7432e-19)
(0.984029 0.17671 4.83011e-20)
(0.983927 0.17661 -5.56283e-19)
(0.983817 0.176474 8.53731e-19)
(0.983695 0.176296 1.38786e-19)
(0.983561 0.176069 9.46672e-19)
(0.983414 0.175788 -7.0038e-19)
(0.983254 0.17545 -4.78538e-19)
(0.98308 0.175056 -1.90971e-19)
(0.982889 0.174612 1.06387e-18)
(0.982677 0.174119 1.5732e-18)
(0.98243 0.173584 3.81336e-19)
(0.982138 0.172987 6.63386e-19)
(0.981787 0.172282 -1.07677e-18)
(0.981358 0.17141 5.69399e-18)
(0.980899 0.170234 1.43747e-18)
(0.980357 0.16876 -1.50045e-18)
(0.979855 0.166911 3.42483e-19)
(0.979467 0.164708 5.28421e-18)
(0.979243 0.162204 -2.16407e-19)
(0.979064 0.159487 -5.62217e-18)
(0.97928 0.156243 -1.29195e-17)
(0.978033 0.152328 1.17602e-17)
(0.980146 0.146606 -7.00107e-18)
(0.970869 0.137795 6.04837e-18)
(0.984436 0.177934 -3.66517e-21)
(0.984411 0.177921 1.4867e-20)
(0.984409 0.177907 -2.46135e-20)
(0.984428 0.177888 1.84775e-20)
(0.984462 0.177862 1.20417e-20)
(0.984506 0.177831 -1.28549e-20)
(0.984554 0.177798 1.07404e-21)
(0.984598 0.177761 -9.75515e-21)
(0.984636 0.177725 -3.29919e-20)
(0.984665 0.177691 6.37212e-20)
(0.984682 0.17766 -9.9375e-20)
(0.984687 0.177634 8.75458e-20)
(0.984683 0.177614 7.75958e-20)
(0.984669 0.177599 -1.20925e-19)
(0.98465 0.17759 -3.97033e-20)
(0.984625 0.177587 1.5012e-19)
(0.984599 0.17759 -1.83005e-19)
(0.984571 0.177596 2.54713e-19)
(0.984544 0.177606 -4.88037e-20)
(0.984518 0.177617 2.79626e-20)
(0.984494 0.17763 -4.55206e-20)
(0.984471 0.177642 -5.76133e-20)
(0.984449 0.177654 -1.08073e-19)
(0.984428 0.177662 1.88708e-19)
(0.984407 0.17767 -1.30779e-19)
(0.984385 0.177673 -1.29499e-19)
(0.984361 0.177675 2.69164e-19)
(0.984334 0.177669 -2.61432e-19)
(0.984305 0.177662 4.21517e-19)
(0.984271 0.177645 -2.27487e-19)
(0.984237 0.177628 1.772e-19)
(0.9842 0.177608 -3.04117e-19)
(0.984159 0.177578 3.28896e-19)
(0.984102 0.177524 -2.68391e-20)
(0.984025 0.177456 -1.58163e-20)
(0.983929 0.177376 -7.39622e-21)
(0.983822 0.177275 -1.71138e-19)
(0.983707 0.177142 4.92698e-19)
(0.983584 0.176972 -3.80607e-19)
(0.983452 0.17676 -2.18431e-18)
(0.983309 0.176499 -9.24785e-19)
(0.983157 0.176185 6.64987e-19)
(0.982995 0.175816 -7.41134e-19)
(0.982826 0.175392 -8.38098e-19)
(0.982646 0.174921 -7.23431e-20)
(0.982458 0.174403 2.17665e-18)
(0.982248 0.173844 -3.22693e-18)
(0.982011 0.173227 -3.3108e-18)
(0.981733 0.172509 -2.24183e-18)
(0.981389 0.171637 -3.80516e-18)
(0.981021 0.170472 2.45151e-18)
(0.980546 0.169017 -1.00748e-18)
(0.980071 0.167184 -8.39583e-18)
(0.97965 0.164951 1.54938e-18)
(0.97935 0.162345 2.59855e-18)
(0.979034 0.159417 -4.82064e-18)
(0.979184 0.155946 3.65327e-18)
(0.977808 0.151725 3.11285e-18)
(0.979319 0.145972 1.13149e-17)
(0.973146 0.137786 -1.66101e-19)
(0.984573 0.178497 4.36311e-21)
(0.984479 0.178505 -1.97641e-20)
(0.984407 0.178508 9.68948e-21)
(0.984357 0.178512 1.81547e-20)
(0.984333 0.178508 -3.91452e-20)
(0.984331 0.178497 3.29936e-20)
(0.98435 0.17848 -2.20996e-20)
(0.984382 0.178458 1.88403e-20)
(0.984422 0.178431 3.01851e-20)
(0.984465 0.178401 -7.3007e-20)
(0.984506 0.178372 1.05955e-19)
(0.98454 0.178343 4.50293e-20)
(0.984566 0.178317 -1.81073e-19)
(0.984582 0.178296 -3.40079e-20)
(0.984589 0.178281 9.73455e-20)
(0.984587 0.178271 6.29832e-20)
(0.984577 0.178269 -7.69541e-20)
(0.984561 0.178271 6.79054e-20)
(0.98454 0.178279 1.05831e-19)
(0.984516 0.178289 -5.17717e-20)
(0.984489 0.178304 -2.98599e-20)
(0.98446 0.178319 1.07661e-19)
(0.98443 0.178335 2.2352e-19)
(0.984398 0.178348 -1.62573e-19)
(0.984364 0.17836 -1.82149e-19)
(0.984328 0.178365 2.03726e-19)
(0.98429 0.178371 -1.5852e-19)
(0.984248 0.178365 -6.61522e-20)
(0.984204 0.178357 5.49315e-19)
(0.984154 0.178336 -2.43875e-19)
(0.984105 0.178312 -1.91798e-19)
(0.984051 0.178281 2.55367e-19)
(0.983992 0.178237 1.77989e-19)
(0.983918 0.178166 -1.56133e-19)
(0.983824 0.17808 -1.05724e-19)
(0.983712 0.177979 3.39229e-19)
(0.98359 0.177855 7.74882e-20)
(0.98346 0.177697 1.1208e-19)
(0.983322 0.177501 -6.11061e-19)
(0.983176 0.177262 -5.99485e-19)
(0.983021 0.176972 1.17004e-18)
(0.982858 0.176627 9.49263e-19)
(0.982689 0.176224 1.62217e-18)
(0.982519 0.175762 -1.50853e-18)
(0.982349 0.175248 -1.70775e-18)
(0.982184 0.174683 -1.15563e-18)
(0.982019 0.174078 2.87981e-18)
(0.981853 0.173421 2.86085e-18)
(0.981677 0.172684 -3.21197e-18)
(0.981464 0.171832 -4.7616e-18)
(0.981248 0.170745 -8.84225e-19)
(0.980921 0.16943 9.67898e-19)
(0.980565 0.167798 1.28331e-19)
(0.980203 0.165784 -2.98459e-18)
(0.979902 0.163376 2.64846e-18)
(0.9795 0.160561 1.63863e-18)
(0.979566 0.157181 2.47077e-18)
(0.978101 0.152952 -9.66855e-18)
(0.97887 0.147422 -6.99824e-19)
(0.974902 0.139803 1.18888e-19)
(0.984941 0.178814 -7.40147e-21)
(0.98484 0.178845 -5.9368e-21)
(0.984735 0.17887 8.11209e-21)
(0.984633 0.178902 2.88246e-20)
(0.984544 0.17893 -6.24001e-20)
(0.984475 0.178954 7.1739e-20)
(0.984428 0.178973 -3.28414e-21)
(0.984404 0.178985 -4.54745e-21)
(0.984399 0.178992 -2.59599e-20)
(0.984409 0.178993 6.31952e-20)
(0.984429 0.17899 -9.79349e-20)
(0.984454 0.178984 3.71129e-20)
(0.98448 0.178977 -1.23021e-21)
(0.984503 0.17897 5.85476e-20)
(0.98452 0.178965 2.79038e-20)
(0.98453 0.178963 -1.49814e-19)
(0.984531 0.178965 1.30761e-19)
(0.984524 0.17897 5.16058e-20)
(0.98451 0.178981 -1.49502e-19)
(0.984489 0.178993 7.38302e-20)
(0.984462 0.179009 3.44918e-20)
(0.98443 0.179025 -2.28954e-20)
(0.984394 0.179043 2.92364e-20)
(0.984354 0.179057 -1.67894e-20)
(0.984309 0.17907 -1.97685e-19)
(0.984261 0.179077 1.31136e-19)
(0.984209 0.179081 -2.02037e-19)
(0.984153 0.179074 3.75829e-19)
(0.984092 0.179063 -7.16442e-20)
(0.984027 0.179036 -4.29641e-20)
(0.98396 0.179004 -1.16819e-20)
(0.983889 0.178963 4.18102e-19)
(0.983811 0.178906 -1.68391e-19)
(0.983716 0.178821 -9.99519e-20)
(0.983603 0.178719 2.6148e-19)
(0.983473 0.178601 2.2332e-19)
(0.98333 0.178456 -3.72435e-19)
(0.983179 0.178276 6.66171e-20)
(0.983018 0.178055 7.2949e-19)
(0.982847 0.177786 -5.83564e-20)
(0.982664 0.177463 4.71575e-19)
(0.982472 0.177077 -7.00572e-19)
(0.982274 0.176624 1.06236e-18)
(0.982075 0.176099 2.38445e-18)
(0.981879 0.175508 7.1218e-19)
(0.981699 0.17485 -9.97024e-19)
(0.981534 0.174139 -3.13436e-18)
(0.981392 0.173374 6.36364e-19)
(0.981271 0.172544 9.83046e-19)
(0.981145 0.171637 2.02233e-18)
(0.981049 0.17056 -1.70571e-19)
(0.980856 0.169336 -4.06348e-18)
(0.980627 0.167881 3.57478e-18)
(0.980355 0.166093 -2.45077e-18)
(0.980098 0.163918 4.9764e-18)
(0.979669 0.161264 1.24018e-18)
(0.979685 0.158 5.68523e-18)
(0.978234 0.153727 7.63659e-18)
(0.978383 0.148253 1.28768e-18)
(0.97531 0.14004 1.91845e-18)
(0.98531 0.1792 -3.60219e-21)
(0.985281 0.179232 3.10999e-21)
(0.985217 0.179263 1.56611e-20)
(0.985126 0.179305 2.48492e-20)
(0.985021 0.179349 -7.38614e-20)
(0.984913 0.179394 4.26559e-20)
(0.984813 0.17944 -7.64621e-20)
(0.984727 0.179483 1.20117e-19)
(0.984659 0.179522 -5.6509e-20)
(0.984608 0.179556 9.99274e-21)
(0.984575 0.179586 1.09455e-19)
(0.984555 0.17961 -2.50149e-19)
(0.984545 0.17963 1.71129e-19)
(0.98454 0.179647 2.40417e-20)
(0.984537 0.179662 3.89762e-20)
(0.984532 0.179676 -1.64566e-19)
(0.984524 0.17969 8.12004e-20)
(0.98451 0.179705 -1.00886e-19)
(0.98449 0.179721 1.99923e-19)
(0.984463 0.179738 -2.67623e-20)
(0.98443 0.179756 -2.55596e-19)
(0.98439 0.179773 1.02034e-19)
(0.984345 0.17979 -5.85325e-21)
(0.984295 0.179803 -3.79106e-19)
(0.984239 0.179815 2.83818e-19)
(0.984178 0.179819 2.14665e-19)
(0.984113 0.179821 1.4704e-19)
(0.984041 0.179809 -1.91309e-19)
(0.983966 0.179791 -2.1325e-19)
(0.983884 0.179757 1.00344e-19)
(0.983801 0.179715 1.48981e-19)
(0.983711 0.179664 -1.86591e-19)
(0.983613 0.179594 -2.78896e-19)
(0.983497 0.179496 5.66502e-19)
(0.983363 0.17938 6.258e-20)
(0.98321 0.179245 -8.43851e-19)
(0.983042 0.179081 7.3663e-20)
(0.982862 0.178879 5.61416e-19)
(0.982668 0.178631 4.7771e-20)
(0.982458 0.17833 7.5212e-19)
(0.982232 0.177966 -1.07208e-18)
(0.981989 0.177528 -7.17305e-20)
(0.981733 0.177009 -7.17829e-19)
(0.981469 0.176397 2.71872e-19)
(0.981203 0.175695 1.24066e-18)
(0.980952 0.174898 3.90198e-18)
(0.980719 0.174021 5.83746e-19)
(0.980521 0.173069 -2.6633e-18)
(0.980363 0.172045 2.12106e-18)
(0.980227 0.170962 7.58852e-18)
(0.980152 0.169751 -6.20637e-18)
(0.980006 0.168456 7.51665e-18)
(0.979842 0.167003 -4.64346e-18)
(0.979631 0.165265 -2.62472e-18)
(0.979429 0.163152 -1.03302e-17)
(0.979031 0.1605 -5.73285e-19)
(0.979075 0.1572 -3.40916e-18)
(0.977812 0.152742 -3.77611e-18)
(0.977646 0.147115 2.84284e-18)
(0.974805 0.137855 3.27795e-19)
(0.985415 0.179944 4.98722e-21)
(0.985512 0.179953 1.7381e-21)
(0.985552 0.179967 -1.81744e-20)
(0.985542 0.179992 1.73776e-20)
(0.985489 0.180025 -7.72284e-21)
(0.985406 0.180063 1.38221e-20)
(0.985305 0.180107 4.71723e-21)
(0.985196 0.180153 -6.94087e-20)
(0.985089 0.1802 3.03386e-20)
(0.984989 0.180247 -2.05292e-20)
(0.984901 0.180292 1.26409e-20)
(0.984826 0.180333 4.88134e-20)
(0.984764 0.180371 -9.19907e-21)
(0.984711 0.180404 2.99038e-20)
(0.984667 0.180434 -1.26943e-19)
(0.984626 0.180461 4.92444e-20)
(0.984588 0.180485 2.17309e-20)
(0.984549 0.180507 -5.9065e-20)
(0.984507 0.180527 1.17633e-19)
(0.984461 0.180545 3.86224e-20)
(0.984411 0.180563 -4.40663e-21)
(0.984355 0.180577 -4.23192e-20)
(0.984295 0.18059 1.70907e-19)
(0.984229 0.180598 -4.7237e-19)
(0.984158 0.180604 2.46254e-19)
(0.984083 0.180602 1.04707e-19)
(0.984001 0.180596 -1.7726e-19)
(0.983915 0.180576 3.15726e-19)
(0.983823 0.18055 -1.53899e-19)
(0.983726 0.180504 -8.15322e-20)
(0.983625 0.180451 -1.61738e-19)
(0.983517 0.180388 -6.52851e-20)
(0.983398 0.180305 1.82535e-19)
(0.983261 0.180195 -5.47194e-19)
(0.983103 0.180065 1.01772e-18)
(0.982925 0.179914 -6.61107e-20)
(0.982729 0.179732 5.22937e-19)
(0.982517 0.179508 -1.32066e-18)
(0.982286 0.179233 -4.21987e-19)
(0.982033 0.178899 -6.04196e-21)
(0.981755 0.178493 -3.12452e-19)
(0.981452 0.178002 -4.95832e-20)
(0.981124 0.177411 -1.19087e-18)
(0.980777 0.176706 3.78739e-19)
(0.980416 0.175882 6.06002e-19)
(0.980059 0.174929 -3.62175e-18)
(0.979713 0.17386 4.7642e-18)
(0.979399 0.17268 7.44721e-19)
(0.97913 0.171404 2.24747e-19)
(0.978897 0.170059 -5.20253e-18)
(0.978748 0.168599 1.87748e-18)
(0.978558 0.167085 -3.98625e-18)
(0.97838 0.16546 7.99501e-18)
(0.978184 0.163582 1.63879e-18)
(0.978032 0.161344 -6.99376e-18)
(0.97772 0.158531 2.63624e-18)
(0.977876 0.155077 -7.53081e-18)
(0.976962 0.15042 -1.61704e-18)
(0.976824 0.144671 -1.07671e-17)
(0.974401 0.134956 -2.75868e-18)
(0.985119 0.181157 -1.09118e-21)
(0.985346 0.181128 -4.28667e-21)
(0.985514 0.181107 -3.72203e-21)
(0.985625 0.181095 3.6154e-20)
(0.985679 0.181092 -2.01564e-20)
(0.98568 0.181095 -2.41573e-20)
(0.98564 0.181108 -9.03021e-21)
(0.985566 0.181128 -3.7296e-20)
(0.985471 0.181153 2.35878e-20)
(0.985364 0.181182 3.50451e-21)
(0.985253 0.181214 1.29672e-21)
(0.985144 0.181247 1.0061e-19)
(0.985041 0.18128 -7.16216e-20)
(0.984946 0.18131 -8.83263e-21)
(0.984858 0.181339 8.23727e-20)
(0.984777 0.181364 -4.5577e-20)
(0.9847 0.181387 -1.74839e-20)
(0.984626 0.181406 2.85486e-20)
(0.984554 0.181422 9.18569e-20)
(0.98448 0.181434 5.06083e-20)
(0.984405 0.181445 1.85521e-20)
(0.984326 0.18145 -1.2879e-19)
(0.984245 0.181454 6.52145e-20)
(0.984159 0.181451 1.26541e-19)
(0.98407 0.181445 -2.63979e-19)
(0.983976 0.181431 8.52612e-20)
(0.983877 0.181413 -3.39779e-19)
(0.983774 0.18138 2.7787e-19)
(0.983665 0.181341 2.45523e-19)
(0.983551 0.181282 -3.82422e-19)
(0.983432 0.181215 -1.82973e-19)
(0.983306 0.181137 2.46507e-19)
(0.983167 0.181041 8.27123e-20)
(0.983008 0.180918 -2.28033e-19)
(0.982827 0.180773 -2.81948e-19)
(0.982624 0.180607 -3.35091e-19)
(0.982402 0.180407 2.04851e-19)
(0.982161 0.180162 4.93896e-19)
(0.981897 0.179863 1.73209e-19)
(0.981606 0.179499 -1.68448e-19)
(0.981284 0.179058 1.78301e-18)
(0.980928 0.17852 -1.64541e-19)
(0.980537 0.17787 1.95164e-18)
(0.980115 0.177086 -3.61691e-18)
(0.979667 0.176158 5.33665e-19)
(0.979207 0.17507 1.1984e-19)
(0.978743 0.17383 -3.32905e-19)
(0.9783 0.172441 -3.30774e-18)
(0.977895 0.170921 -5.62594e-18)
(0.977525 0.169306 5.23996e-18)
(0.977252 0.167566 7.12686e-18)
(0.976961 0.165775 3.86134e-18)
(0.976719 0.163891 -7.76309e-18)
(0.976504 0.161771 4.19353e-18)
(0.976395 0.159311 1.03812e-17)
(0.976202 0.156273 4.20088e-18)
(0.97653 0.152652 7.3478e-18)
(0.97605 0.147914 3.5299e-18)
(0.976186 0.142263 9.81761e-18)
(0.974827 0.133023 -6.83561e-18)
(0.98445 0.182753 1.3808e-21)
(0.984767 0.182688 -4.1492e-21)
(0.985044 0.182632 1.48056e-20)
(0.985274 0.182579 3.82246e-21)
(0.98545 0.182531 -2.04199e-20)
(0.985568 0.182488 -2.34545e-20)
(0.985629 0.182453 5.57295e-20)
(0.985641 0.182426 -6.08809e-20)
(0.985609 0.182407 -1.48543e-20)
(0.985545 0.182396 3.7742e-20)
(0.985457 0.18239 3.48824e-20)
(0.985354 0.18239 1.06028e-19)
(0.985243 0.182394 -6.02147e-20)
(0.98513 0.1824 -1.03025e-19)
(0.985017 0.182406 2.27207e-20)
(0.984907 0.182412 -8.42702e-20)
(0.9848 0.182418 6.35559e-20)
(0.984695 0.18242 -1.06784e-19)
(0.984593 0.182421 1.75807e-20)
(0.984492 0.182417 -3.48184e-20)
(0.98439 0.182411 -2.19538e-20)
(0.984288 0.182399 -9.73572e-20)
(0.984184 0.182385 9.07594e-21)
(0.984077 0.182365 2.12523e-19)
(0.983967 0.182342 -7.23561e-20)
(0.983854 0.182309 2.29238e-20)
(0.983736 0.182274 6.67238e-20)
(0.983615 0.182224 -8.97414e-20)
(0.983489 0.182168 -1.85462e-20)
(0.983357 0.182092 1.28447e-19)
(0.983221 0.182008 1.43991e-19)
(0.983076 0.181914 -1.09376e-19)
(0.982918 0.181802 -3.45364e-19)
(0.982738 0.181663 -4.82439e-19)
(0.982536 0.181504 7.36584e-19)
(0.982313 0.181321 1.95798e-19)
(0.98207 0.181103 1.20876e-19)
(0.981807 0.180839 6.17652e-19)
(0.981521 0.180519 -5.75501e-19)
(0.981206 0.180133 3.55506e-19)
(0.980857 0.179666 -8.79269e-21)
(0.98047 0.179098 4.86375e-20)
(0.980043 0.178409 -7.15769e-19)
(0.979576 0.177576 1.63617e-18)
(0.979071 0.176583 -2.19804e-18)
(0.978541 0.175407 1.37283e-18)
(0.977992 0.174052 -4.12129e-18)
(0.977447 0.172517 1.30735e-18)
(0.976925 0.170818 2.96108e-18)
(0.97643 0.168993 -5.21445e-18)
(0.97603 0.16702 -1.51531e-18)
(0.975629 0.16498 -4.8549e-19)
(0.975308 0.162847 -1.3085e-18)
(0.97506 0.160483 -4.32329e-18)
(0.974986 0.157799 3.15783e-19)
(0.974923 0.154557 3.70086e-18)
(0.975435 0.150826 -4.05934e-18)
(0.975386 0.146154 -1.11106e-18)
(0.975903 0.140826 -1.54953e-18)
(0.976205 0.132698 4.8567e-18)
(0.983536 0.184581 2.50773e-21)
(0.983885 0.184492 -2.12905e-21)
(0.98422 0.184409 1.93232e-21)
(0.984534 0.184322 1.24123e-20)
(0.98481 0.184234 1.80178e-20)
(0.985039 0.184147 -7.07105e-20)
(0.985214 0.184064 5.12385e-20)
(0.985332 0.183986 1.06036e-20)
(0.985398 0.183915 -3.29683e-21)
(0.985415 0.183851 -2.31849e-20)
(0.985391 0.183794 7.1026e-20)
(0.985335 0.183745 -2.33898e-20)
(0.985255 0.183703 -3.22791e-20)
(0.985157 0.183666 -9.60431e-20)
(0.985049 0.183634 1.92969e-19)
(0.984934 0.183604 -4.03495e-20)
(0.984816 0.183577 -3.39307e-20)
(0.984696 0.183549 -1.00025e-19)
(0.984576 0.183521 1.10901e-19)
(0.984456 0.18349 6.16176e-20)
(0.984335 0.183458 -2.78773e-20)
(0.984213 0.183422 4.925e-20)
(0.984089 0.183384 -2.0949e-19)
(0.983964 0.183339 1.43006e-20)
(0.983836 0.183292 1.17321e-19)
(0.983705 0.183237 -2.25384e-20)
(0.98357 0.183179 -3.62999e-19)
(0.983432 0.183107 3.28641e-20)
(0.983289 0.183029 3.27314e-19)
(0.983142 0.182933 -8.67013e-20)
(0.982989 0.182829 -1.72254e-19)
(0.982827 0.182715 9.82804e-20)
(0.982652 0.182585 2.98927e-19)
(0.982453 0.182429 6.99141e-19)
(0.982232 0.182252 -1.07888e-19)
(0.981993 0.182051 1.38246e-19)
(0.981737 0.181816 -1.05501e-18)
(0.981464 0.181534 -3.12323e-19)
(0.981169 0.181196 1.95457e-19)
(0.980847 0.180794 -8.00127e-19)
(0.980493 0.180312 -1.87923e-19)
(0.980101 0.179731 3.86494e-19)
(0.979667 0.179028 2.80405e-19)
(0.979192 0.178179 8.6675e-19)
(0.978672 0.177164 3.0583e-18)
(0.978117 0.175958 -2.52907e-18)
(0.97753 0.174557 4.16649e-18)
(0.976931 0.172956 3.38351e-18)
(0.976338 0.171167 1.53869e-20)
(0.975756 0.169225 4.69314e-18)
(0.975261 0.167109 -6.78368e-18)
(0.974769 0.164901 -8.28812e-18)
(0.974378 0.162585 6.56648e-18)
(0.974099 0.160032 5.67101e-18)
(0.974053 0.157174 -2.26577e-18)
(0.974111 0.153789 -1.34711e-17)
(0.974786 0.150011 3.23278e-18)
(0.975104 0.145498 -2.8477e-18)
(0.975991 0.140606 -4.26237e-18)
(0.978258 0.133758 3.08708e-18)
(0.982537 0.186468 -2.62523e-21)
(0.982856 0.186371 2.8872e-21)
(0.983193 0.186275 1.95523e-20)
(0.983536 0.18617 -2.56162e-20)
(0.983868 0.186058 4.64347e-20)
(0.984174 0.18594 -6.83727e-20)
(0.984442 0.185819 1.94209e-20)
(0.984661 0.185699 -9.05514e-22)
(0.984829 0.18558 4.2974e-20)
(0.984944 0.185466 -2.27217e-20)
(0.985009 0.185357 6.63602e-21)
(0.98503 0.185256 6.88098e-21)
(0.985011 0.185161 -1.08003e-19)
(0.984962 0.185073 3.26207e-20)
(0.984889 0.184992 7.52226e-20)
(0.984797 0.184916 2.1998e-21)
(0.984692 0.184846 -1.26024e-19)
(0.984578 0.184777 5.12427e-20)
(0.984458 0.184711 2.40744e-19)
(0.984333 0.184645 -1.57542e-19)
(0.984204 0.184579 -1.19494e-19)
(0.984073 0.18451 1.02061e-19)
(0.983938 0.184441 6.48639e-20)
(0.983801 0.184367 7.30242e-20)
(0.98366 0.184291 -1.41595e-19)
(0.983516 0.184208 -3.073e-19)
(0.983368 0.184123 2.33488e-19)
(0.983217 0.184026 3.35635e-19)
(0.98306 0.183923 9.10564e-20)
(0.982899 0.183803 -1.80237e-19)
(0.982731 0.183676 8.50244e-20)
(0.982556 0.18354 1.40041e-19)
(0.982366 0.183388 -2.46737e-19)
(0.982151 0.183212 -4.22273e-20)
(0.981916 0.183015 -4.30602e-19)
(0.981667 0.182794 -1.20575e-19)
(0.981405 0.18254 -1.02179e-19)
(0.98113 0.18224 2.92959e-19)
(0.980838 0.181888 -3.94513e-19)
(0.980524 0.181476 1.21097e-19)
(0.980183 0.180989 1.8209e-19)
(0.979808 0.180407 4.40687e-20)
(0.979395 0.179711 -1.25114e-18)
(0.978941 0.178873 -1.75426e-18)
(0.978442 0.177875 -1.66149e-18)
(0.977903 0.176687 3.23659e-18)
(0.977323 0.175302 -1.6003e-19)
(0.976719 0.17371 -1.49339e-18)
(0.976103 0.171914 7.75538e-19)
(0.975483 0.169946 -5.17656e-18)
(0.974935 0.167779 2.67583e-18)
(0.974388 0.165491 7.45883e-18)
(0.97395 0.163072 -8.03114e-19)
(0.973651 0.1604 -6.70832e-18)
(0.973628 0.157429 3.3261e-18)
(0.973789 0.153956 3.15505e-18)
(0.974589 0.150164 3.48738e-18)
(0.975186 0.145825 7.44811e-18)
(0.976368 0.141346 6.32899e-18)
(0.980551 0.135583 -6.87056e-18)
(0.981586 0.188299 -2.15949e-21)
(0.981832 0.188204 3.12647e-21)
(0.982119 0.188108 6.39611e-22)
(0.982438 0.187999 1.1814e-20)
(0.982775 0.187876 -1.79937e-20)
(0.983111 0.187743 -3.67511e-20)
(0.983431 0.187601 1.32943e-20)
(0.983722 0.187452 -1.74083e-20)
(0.983974 0.1873 3.82104e-20)
(0.984179 0.187147 -7.68756e-21)
(0.984336 0.186996 -2.5226e-20)
(0.984443 0.186848 2.10704e-20)
(0.984504 0.186704 3.40542e-20)
(0.984524 0.186567 9.37671e-20)
(0.984509 0.186436 -1.70809e-19)
(0.984465 0.186312 8.73598e-20)
(0.984397 0.186194 1.33297e-20)
(0.98431 0.18608 -8.63424e-20)
(0.984209 0.185971 -5.37804e-20)
(0.984096 0.185863 1.77079e-19)
(0.983974 0.185758 -1.85691e-19)
(0.983846 0.185652 5.58982e-20)
(0.983711 0.185547 -1.50571e-19)
(0.983571 0.185439 2.50939e-19)
(0.983426 0.185331 -5.08967e-20)
(0.983276 0.185217 -1.43035e-19)
(0.98312 0.185102 1.15601e-19)
(0.98296 0.184976 2.1754e-19)
(0.982794 0.184846 -2.0719e-19)
(0.982623 0.1847 1.28267e-19)
(0.982446 0.184547 -4.31407e-19)
(0.982259 0.184386 -4.81257e-20)
(0.982058 0.18421 1.88627e-19)
(0.981831 0.184011 -1.08892e-19)
(0.981586 0.183791 -2.16459e-19)
(0.981332 0.183548 -5.10938e-19)
(0.98107 0.183273 6.45182e-19)
(0.9808 0.182956 -2.44434e-19)
(0.98052 0.18259 1.95289e-19)
(0.980223 0.18217 3.80983e-19)
(0.979905 0.181683 2.84395e-19)
(0.979561 0.181109 -1.83372e-19)
(0.979184 0.180432 6.74438e-19)
(0.978771 0.179625 1.28206e-18)
(0.978316 0.178667 -1.27057e-19)
(0.97782 0.177531 -1.85183e-18)
(0.977279 0.176204 -2.61092e-18)
(0.976704 0.174671 -2.19344e-19)
(0.976105 0.17293 1.87325e-18)
(0.975486 0.171003 -1.09319e-19)
(0.974924 0.168855 3.70813e-18)
(0.974356 0.166556 -6.47435e-18)
(0.973898 0.164098 -3.6674e-18)
(0.973596 0.161361 -9.59996e-19)
(0.973596 0.15832 -2.9293e-18)
(0.973843 0.154789 1.89531e-18)
(0.974733 0.150983 -2.60525e-18)
(0.975531 0.146772 -8.84847e-18)
(0.976916 0.142593 -9.15164e-18)
(0.982729 0.137554 3.31639e-18)
(0.980767 0.189997 -3.16172e-21)
(0.980916 0.189912 2.56508e-21)
(0.981121 0.189824 2.00998e-21)
(0.981377 0.189721 -1.43369e-20)
(0.981671 0.189602 1.48277e-20)
(0.98199 0.189468 -7.28782e-21)
(0.982318 0.18932 2.36807e-20)
(0.982639 0.18916 -3.52484e-20)
(0.982941 0.188991 2.06629e-21)
(0.983211 0.188814 2.73897e-21)
(0.983443 0.188634 -2.59892e-20)
(0.98363 0.188452 7.265e-20)