/*--------------------------------*- C++ -*----------------------------------*\
  =========                 |
  \\      /  F ield         | OpenFOAM: The Open Source CFD Toolbox
   \\    /   O peration     | Website:  https://openfoam.org
    \\  /    A nd           | Version:  6.0
     \\/     M anipulation  |
\*---------------------------------------------------------------------------*/
FoamFile
{
    version     2.0;
    format      ascii;
    class       surfaceScalarField;
    location    "3.23";
    object      phi;
}
// * * * * * * * * * * * * * * * * * * * * * * * * * * * * * * * * * * * * * //

dimensions      [0 3 -1 0 0 0 0];

internalField   nonuniform List<scalar> 
26699
(
2.0051e-05
0.005201
5.8207e-10
4.0126e-05
0.0051116
5.9639e-05
0.0049351
7.8187e-05
0.0046741
9.5416e-05
0.0043332
0.00011102
0.0039182
0.00012471
0.0034362
0.00013626
0.0028953
0.00014546
0.002305
0.00015181
0.0016755
0.00015717
0.0010154
0.00046502
3.4356e-05
2.0051e-05
0.0051809
1.7388e-09
4.0127e-05
0.0050916
5.9641e-05
0.0049155
7.819e-05
0.0046556
9.5418e-05
0.004316
0.00011102
0.0039026
0.00012471
0.0034225
0.00013625
0.0028838
0.00014545
0.0022958
0.00015106
0.0016699
0.0001589
0.0010076
0.00055902
6.4896e-05
2.0051e-05
0.0051609
2.9652e-09
4.0128e-05
0.0050715
5.9643e-05
0.004896
7.8193e-05
0.004637
9.5421e-05
0.0042988
0.00011103
0.003887
0.00012471
0.0034088
0.00013623
0.0028723
0.00014546
0.0022865
0.00015029
0.0016651
0.00016016
0.0009977
0.00062917
9.0016e-05
2.0051e-05
0.0051408
4.2082e-09
4.013e-05
0.0050514
5.9645e-05
0.0048765
7.8196e-05
0.0046185
9.5424e-05
0.0042815
0.00011103
0.0038714
0.0001247
0.0033951
0.0001362
0.0028608
0.00014551
0.0022772
0.00014955
0.001661
0.00016089
0.00098636
0.00067985
0.00011021
2.0051e-05
0.0051208
5.4533e-09
4.0131e-05
0.0050313
5.9648e-05
0.004857
7.8199e-05
0.0045999
9.5427e-05
0.0042643
0.00011103
0.0038558
0.0001247
0.0033815
0.00013618
0.0028493
0.00014557
0.0022678
0.00014886
0.0016577
0.00016109
0.00097413
0.0007147
0.00012624
2.0051e-05
0.0051007
6.7007e-09
4.0132e-05
0.0050112
5.965e-05
0.0048375
7.8202e-05
0.0045814
9.543e-05
0.0042471
0.00011103
0.0038402
0.0001247
0.0033678
0.00013615
0.0028378
0.00014567
0.0022583
0.00014823
0.0016552
0.00016085
0.00096152
0.00073674
0.0001388
2.0051e-05
0.0050807
7.9503e-09
4.0133e-05
0.0049912
5.9653e-05
0.004818
7.8205e-05
0.0045628
9.5434e-05
0.0042299
0.00011103
0.0038246
0.0001247
0.0033541
0.00013611
0.0028264
0.00014578
0.0022486
0.0001477
0.0016532
0.00016024
0.00094897
0.00074855
0.00014843
2.0051e-05
0.0050606
9.2023e-09
4.0134e-05
0.0049711
5.9655e-05
0.0047984
7.8208e-05
0.0045443
9.5437e-05
0.0042126
0.00011103
0.003809
0.0001247
0.0033405
0.00013608
0.0028151
0.0001459
0.0022388
0.00014726
0.0016519
0.00015936
0.00093687
0.00075227
0.00015564
2.0051e-05
0.0050405
1.0457e-08
4.0136e-05
0.004951
5.9657e-05
0.0047789
7.8211e-05
0.0045257
9.544e-05
0.0041954
0.00011104
0.0037934
0.0001247
0.0033268
0.00013604
0.0028037
0.00014603
0.0022288
0.00014693
0.001651
0.0001583
0.0009255
0.00074973
0.00016084
2.0051e-05
0.0050205
1.1713e-08
4.0137e-05
0.0049309
5.966e-05
0.0047594
7.8214e-05
0.0045071
9.5444e-05
0.0041782
0.00011104
0.0037778
0.0001247
0.0033131
0.00013599
0.0027924
0.00014617
0.0022186
0.0001467
0.0016505
0.00015713
0.00091507
0.00074244
0.00016443
2.0051e-05
0.0050004
1.2973e-08
4.0138e-05
0.0049108
5.9662e-05
0.0047399
7.8217e-05
0.0044886
9.5447e-05
0.0041609
0.00011104
0.0037622
0.0001247
0.0032995
0.00013594
0.0027812
0.00014631
0.0022083
0.00014659
0.0016502
0.00015592
0.00090573
0.00073165
0.00016672
2.0051e-05
0.0049803
1.4235e-08
4.0139e-05
0.0048907
5.9664e-05
0.0047203
7.822e-05
0.00447
9.5451e-05
0.0041437
0.00011104
0.0037466
0.00012471
0.0032858
0.00013589
0.00277
0.00014645
0.0021977
0.00014658
0.0016501
0.00015473
0.00089758
0.00071838
0.00016799
2.0051e-05
0.0049603
1.5499e-08
4.0141e-05
0.0048706
5.9667e-05
0.0047008
7.8224e-05
0.0044515
9.5454e-05
0.0041265
0.00011104
0.003731
0.00012472
0.0032721
0.00013583
0.0027589
0.00014658
0.002187
0.00014666
0.00165
0.00015359
0.00089066
0.00070348
0.00016849
2.0051e-05
0.0049402
1.6766e-08
4.0142e-05
0.0048506
5.9669e-05
0.0046813
7.8227e-05
0.0044329
9.5458e-05
0.0041092
0.00011105
0.0037154
0.00012473
0.0032585
0.00013577
0.0027478
0.0001467
0.002176
0.00014684
0.0016498
0.00015254
0.00088495
0.00068762
0.0001684
2.0051e-05
0.0049201
1.8036e-08
4.0143e-05
0.0048305
5.9672e-05
0.0046618
7.823e-05
0.0044144
9.5462e-05
0.004092
0.00011105
0.0036999
0.00012474
0.0032448
0.00013571
0.0027369
0.00014681
0.0021649
0.00014709
0.0016496
0.0001516
0.00088044
0.00067133
0.00016789
2.0051e-05
0.0049001
1.9309e-08
4.0144e-05
0.0048104
5.9674e-05
0.0046422
7.8233e-05
0.0043958
9.5465e-05
0.0040748
0.00011105
0.0036843
0.00012475
0.0032311
0.00013564
0.002726
0.0001469
0.0021537
0.0001474
0.0016491
0.00015079
0.00087705
0.00065503
0.00016709
2.0051e-05
0.00488
2.0584e-08
4.0145e-05
0.0047903
5.9676e-05
0.0046227
7.8236e-05
0.0043772
9.5469e-05
0.0040576
0.00011105
0.0036687
0.00012476
0.0032174
0.00013557
0.0027152
0.00014698
0.0021423
0.00014777
0.0016483
0.00015011
0.00087471
0.00063905
0.0001661
2.0051e-05
0.0048599
2.1862e-08
4.0147e-05
0.0047702
5.9679e-05
0.0046032
7.8239e-05
0.0043587
9.5473e-05
0.0040403
0.00011105
0.0036531
0.00012478
0.0032036
0.00013551
0.0027044
0.00014704
0.0021307
0.00014819
0.0016471
0.00014957
0.00087333
0.00062361
0.00016501
2.0051e-05
0.0048399
2.3143e-08
4.0148e-05
0.0047501
5.9681e-05
0.0045836
7.8242e-05
0.0043401
9.5477e-05
0.0040231
0.00011105
0.0036375
0.00012479
0.0031899
0.00013544
0.0026938
0.00014708
0.0021191
0.00014863
0.0016456
0.00014917
0.00087278
0.00060889
0.00016389
2.0051e-05
0.0048198
2.4427e-08
4.0149e-05
0.00473
5.9684e-05
0.0045641
7.8246e-05
0.0043216
9.5481e-05
0.0040058
0.00011106
0.003622
0.00012481
0.0031761
0.00013537
0.0026832
0.0001471
0.0021074
0.0001491
0.0016436
0.00014891
0.00087298
0.00059501
0.00016279
2.0051e-05
0.0047997
2.5715e-08
4.015e-05
0.0047099
5.9686e-05
0.0045446
7.8249e-05
0.004303
9.5485e-05
0.0039886
0.00011106
0.0036064
0.00012484
0.0031624
0.0001353
0.0026728
0.0001471
0.0020956
0.00014958
0.0016411
0.00014876
0.0008738
0.00058202
0.00016175
2.0051e-05
0.0047796
2.7005e-08
4.0152e-05
0.0046898
5.9689e-05
0.004525
7.8252e-05
0.0042844
9.549e-05
0.0039714
0.00011106
0.0035908
0.00012486
0.0031486
0.00013523
0.0026624
0.00014709
0.0020837
0.00015006
0.0016381
0.00014873
0.00087513
0.00056996
0.00016079
2.0051e-05
0.0047595
2.8298e-08
4.0153e-05
0.0046697
5.9691e-05
0.0045055
7.8255e-05
0.0042659
9.5494e-05
0.0039541
0.00011106
0.0035753
0.00012488
0.0031347
0.00013517
0.0026521
0.00014705
0.0020718
0.00015054
0.0016346
0.00014881
0.00087686
0.00055883
0.00015994
2.0051e-05
0.0047395
2.9595e-08
4.0154e-05
0.0046496
5.9694e-05
0.004486
7.8259e-05
0.0042473
9.5498e-05
0.0039369
0.00011106
0.0035597
0.00012491
0.0031209
0.00013511
0.0026419
0.00014699
0.0020599
0.00015101
0.0016306
0.00014897
0.0008789
0.00054861
0.00015919
2.0051e-05
0.0047194
3.0895e-08
4.0155e-05
0.0046295
5.9696e-05
0.0044664
7.8262e-05
0.0042287
9.5503e-05
0.0039197
0.00011106
0.0035441
0.00012494
0.003107
0.00013505
0.0026318
0.00014692
0.0020481
0.00015146
0.001626
0.00014922
0.00088115
0.00053927
0.00015857
2.0051e-05
0.0046993
3.2198e-08
4.0157e-05
0.0046094
5.9699e-05
0.0044469
7.8265e-05
0.0042102
9.5508e-05
0.0039024
0.00011106
0.0035286
0.00012497
0.0030931
0.00013499
0.0026218
0.00014683
0.0020362
0.00015189
0.001621
0.00014953
0.00088351
0.00053074
0.00015806
2.0051e-05
0.0046792
3.3505e-08
4.0158e-05
0.0045893
5.9701e-05
0.0044273
7.8269e-05
0.0041916
9.5513e-05
0.0038852
0.00011106
0.003513
0.000125
0.0030791
0.00013495
0.0026119
0.00014672
0.0020244
0.0001523
0.0016154
0.0001499
0.0008859
0.00052298
0.00015766
2.0051e-05
0.0046591
3.4816e-08
4.0159e-05
0.0045692
5.9704e-05
0.0044078
7.8272e-05
0.004173
9.5518e-05
0.0038679
0.00011105
0.0034975
0.00012503
0.0030652
0.0001349
0.002602
0.0001466
0.0020127
0.00015267
0.0016093
0.00015031
0.00088826
0.00051592
0.00015737
2.0051e-05
0.004639
3.6129e-08
4.016e-05
0.0045491
5.9706e-05
0.0043882
7.8275e-05
0.0041545
9.5523e-05
0.0038507
0.00011105
0.003482
0.00012507
0.0030511
0.00013487
0.0025922
0.00014647
0.0020011
0.00015301
0.0016028
0.00015075
0.00089052
0.0005095
0.00015717
2.0051e-05
0.0046189
3.7447e-08
4.0162e-05
0.0045289
5.9709e-05
0.0043687
7.8279e-05
0.0041359
9.5528e-05
0.0038334
0.00011105
0.0034665
0.0001251
0.0030371
0.00013484
0.0025825
0.00014633
0.0019896
0.00015331
0.0015958
0.00015121
0.00089262
0.00050364
0.00015707
2.0051e-05
0.0045989
3.8768e-08
4.0163e-05
0.0045088
5.9711e-05
0.0043491
7.8282e-05
0.0041173
9.5533e-05
0.0038162
0.00011105
0.0034509
0.00012514
0.003023
0.00013481
0.0025728
0.00014617
0.0019783
0.00015358
0.0015884
0.00015169
0.00089452
0.00049829
0.00015704
2.0051e-05
0.0045788
4.0093e-08
4.0164e-05
0.0044887
5.9714e-05
0.0043296
7.8285e-05
0.0040988
9.5539e-05
0.0037989
0.00011104
0.0034354
0.00012517
0.0030089
0.0001348
0.0025632
0.00014601
0.0019671
0.00015381
0.0015806
0.00015216
0.00089617
0.00049337
0.00015708
2.0051e-05
0.0045587
4.1422e-08
4.0165e-05
0.0044686
5.9716e-05
0.00431
7.8289e-05
0.0040802
9.5545e-05
0.0037817
0.00011104
0.0034199
0.00012521
0.0029947
0.00013479
0.0025536
0.00014585
0.001956
0.00015401
0.0015725
0.00015264
0.00089754
0.00048883
0.00015718
2.0051e-05
0.0045386
4.2755e-08
4.0167e-05
0.0044485
5.9719e-05
0.0042905
7.8292e-05
0.0040616
9.5551e-05
0.0037644
0.00011104
0.0034045
0.00012525
0.0029805
0.00013479
0.002544
0.00014567
0.0019451
0.00015417
0.001564
0.00015311
0.0008986
0.00048462
0.00015732
2.0051e-05
0.0045185
4.4092e-08
4.0168e-05
0.0044284
5.9721e-05
0.0042709
7.8296e-05
0.004043
9.5557e-05
0.0037471
0.00011103
0.003389
0.00012528
0.0029662
0.0001348
0.0025345
0.0001455
0.0019344
0.00015429
0.0015552
0.00015356
0.00089933
0.00048067
0.0001575
2.0051e-05
0.0044984
4.5433e-08
4.0169e-05
0.0044083
5.9724e-05
0.0042514
7.8299e-05
0.0040245
9.5564e-05
0.0037299
0.00011103
0.0033735
0.00012532
0.0029519
0.00013482
0.002525
0.00014533
0.0019239
0.00015438
0.0015461
0.00015399
0.00089973
0.00047695
0.00015771
2.0051e-05
0.0044783
4.6778e-08
4.017e-05
0.0043881
5.9727e-05
0.0042318
7.8303e-05
0.0040059
9.557e-05
0.0037126
0.00011102
0.0033581
0.00012536
0.0029376
0.00013484
0.0025155
0.00014515
0.0019136
0.00015444
0.0015368
0.0001544
0.00089977
0.00047341
0.00015794
2.0051e-05
0.0044582
4.8128e-08
4.0172e-05
0.004368
5.9729e-05
0.0042123
7.8306e-05
0.0039873
9.5577e-05
0.0036953
0.00011101
0.0033426
0.00012539
0.0029232
0.00013487
0.0025061
0.00014498
0.0019035
0.00015447
0.0015273
0.00015478
0.00089947
0.00047001
0.00015818
2.0051e-05
0.0044381
4.9482e-08
4.0173e-05
0.0043479
5.9732e-05
0.0041927
7.831e-05
0.0039687
9.5584e-05
0.0036781
0.00011101
0.0033272
0.00012543
0.0029088
0.00013492
0.0024966
0.00014482
0.0018936
0.00015447
0.0015177
0.00015513
0.00089881
0.00046671
0.00015843
2.0051e-05
0.004418
5.084e-08
4.0174e-05
0.0043278
5.9735e-05
0.0041731
7.8313e-05
0.0039502
9.5592e-05
0.0036608
0.000111
0.0033118
0.00012546
0.0028944
0.00013497
0.0024871
0.00014466
0.0018839
0.00015444
0.0015079
0.00015545
0.0008978
0.00046349
0.00015867
2.0051e-05
0.0043979
5.2203e-08
4.0176e-05
0.0043076
5.9737e-05
0.0041536
7.8317e-05
0.0039316
9.5599e-05
0.0036435
0.000111
0.0032964
0.00012549
0.0028799
0.00013502
0.0024775
0.00014451
0.0018744
0.00015439
0.001498
0.00015574
0.00089644
0.00046032
0.00015891
2.0051e-05
0.0043778
5.3571e-08
4.0177e-05
0.0042875
5.974e-05
0.004134
7.832e-05
0.003913
9.5607e-05
0.0036262
0.00011099
0.003281
0.00012552
0.0028653
0.00013509
0.0024679
0.00014436
0.0018651
0.00015432
0.0014881
0.00015601
0.00089476
0.00045718
0.00015915
2.0051e-05
0.0043577
5.4943e-08
4.0178e-05
0.0042674
5.9743e-05
0.0041145
7.8324e-05
0.0038944
9.5615e-05
0.0036089
0.00011098
0.0032657
0.00012555
0.0028508
0.00013516
0.0024583
0.00014423
0.0018561
0.00015423
0.0014781
0.00015624
0.00089276
0.00045404
0.00015937
2.0051e-05
0.0043376
5.632e-08
4.0179e-05
0.0042473
5.9746e-05
0.0040949
7.8327e-05
0.0038758
9.5623e-05
0.0035916
0.00011098
0.0032503
0.00012557
0.0028362
0.00013524
0.0024487
0.0001441
0.0018472
0.00015413
0.001468
0.00015644
0.00089044
0.0004509
0.00015958
2.0051e-05
0.0043175
5.7702e-08
4.0181e-05
0.0042271
5.9748e-05
0.0040753
7.8331e-05
0.0038572
9.5632e-05
0.0035743
0.00011097
0.003235
0.0001256
0.0028215
0.00013533
0.0024389
0.00014399
0.0018385
0.00015401
0.001458
0.00015661
0.00088784
0.00044774
0.00015978
2.0051e-05
0.0042973
5.909e-08
4.0182e-05
0.004207
5.9751e-05
0.0040558
7.8334e-05
0.0038387
9.5641e-05
0.003557
0.00011096
0.0032197
0.00012562
0.0028069
0.00013542
0.0024291
0.00014389
0.0018301
0.00015388
0.001448
0.00015676
0.00088497
0.00044454
0.00015995
2.0051e-05
0.0042772
6.0482e-08
4.0184e-05
0.0041869
5.9754e-05
0.0040362
7.8338e-05
0.0038201
9.565e-05
0.0035397
0.00011095
0.0032043
0.00012563
0.0027922
0.00013551
0.0024193
0.00014381
0.0018218
0.00015375
0.0014381
0.00015688
0.00088184
0.00044131
0.00016011
2.0051e-05
0.0042571
6.1879e-08
4.0185e-05
0.0041667
5.9757e-05
0.0040166
7.8341e-05
0.0038015
9.5659e-05
0.0035224
0.00011095
0.0031891
0.00012565
0.0027775
0.00013561
0.0024093
0.00014373
0.0018137
0.00015361
0.0014282
0.00015698
0.00087847
0.00043803
0.00016026
2.0051e-05
0.004237
6.3282e-08
4.0186e-05
0.0041466
5.976e-05
0.003997
7.8345e-05
0.0037829
9.5669e-05
0.0035051
0.00011094
0.0031738
0.00012566
0.0027628
0.00013572
0.0023992
0.00014368
0.0018057
0.00015346
0.0014184
0.00015705
0.00087488
0.0004347
0.00016038
2.0051e-05
0.0042169
6.469e-08
4.0188e-05
0.0041265
5.9762e-05
0.0039775
7.8348e-05
0.0037643
9.5678e-05
0.0034877
0.00011094
0.0031585
0.00012567
0.002748
0.00013582
0.0023891
0.00014363
0.0017979
0.00015332
0.0014087
0.00015711
0.00087109
0.00043131
0.00016049
2.0051e-05
0.0041968
6.6104e-08
4.0189e-05
0.0041063
5.9765e-05
0.0039579
7.8352e-05
0.0037457
9.5688e-05
0.0034704
0.00011093
0.0031433
0.00012568
0.0027333
0.00013593
0.0023788
0.0001436
0.0017902
0.00015318
0.0013992
0.00015715
0.00086712
0.00042788
0.00016058
2.0051e-05
0.0041767
6.7523e-08
4.019e-05
0.0040862
5.9768e-05
0.0039383
7.8356e-05
0.0037272
9.5699e-05
0.0034531
0.00011093
0.0031281
0.00012569
0.0027185
0.00013604
0.0023685
0.00014358
0.0017827
0.00015303
0.0013897
0.00015717
0.00086298
0.00042439
0.00016066
2.0051e-05
0.0041565
6.8949e-08
4.0192e-05
0.004066
5.9771e-05
0.0039187
7.8359e-05
0.0037086
9.5709e-05
0.0034357
0.00011092
0.0031128
0.00012569
0.0027038
0.00013616
0.002358
0.00014358
0.0017753
0.0001529
0.0013804
0.00015718
0.0008587
0.00042085
0.00016072
2.0051e-05
0.0041364
7.038e-08
4.0193e-05
0.0040459
5.9774e-05
0.0038992
7.8363e-05
0.00369
9.572e-05
0.0034184
0.00011092
0.0030976
0.00012569
0.002689
0.00013627
0.0023474
0.00014359
0.0017679
0.00015277
0.0013712
0.00015718
0.00085428
0.00041726
0.00016077
2.0051e-05
0.0041163
7.1817e-08
4.0195e-05
0.0040258
5.9777e-05
0.0038796
7.8366e-05
0.0036714
9.5731e-05
0.003401
0.00011092
0.0030825
0.00012568
0.0026742
0.00013638
0.0023367
0.00014361
0.0017607
0.00015265
0.0013622
0.00015718
0.00084976
0.00041362
0.00016081
2.0051e-05
0.0040962
7.326e-08
4.0196e-05
0.0040056
5.978e-05
0.00386
7.837e-05
0.0036528
9.5742e-05
0.0033836
0.00011091
0.0030673
0.00012567
0.0026595
0.00013649
0.0023259
0.00014364
0.0017536
0.00015253
0.0013533
0.00015716
0.00084513
0.00040994
0.00016084
2.0051e-05
0.004076
7.4709e-08
4.0198e-05
0.0039855
5.9783e-05
0.0038404
7.8374e-05
0.0036342
9.5753e-05
0.0033662
0.00011091
0.0030521
0.00012566
0.0026447
0.0001366
0.002315
0.00014369
0.0017465
0.00015243
0.0013445
0.00015714
0.00084042
0.00040622
0.00016086
2.0051e-05
0.0040559
7.6165e-08
4.0199e-05
0.0039653
5.9786e-05
0.0038208
7.8377e-05
0.0036156
9.5764e-05
0.0033489
0.00011091
0.003037
0.00012565
0.00263
0.00013671
0.0023039
0.00014374
0.0017394
0.00015234
0.0013359
0.00015712
0.00083564
0.00040246
0.00016088
2.0051e-05
0.0040358
7.7628e-08
4.02e-05
0.0039452
5.979e-05
0.0038012
7.8381e-05
0.003597
9.5775e-05
0.0033315
0.00011091
0.0030218
0.00012564
0.0026153
0.00013681
0.0022927
0.00014381
0.0017324
0.00015226
0.0013275
0.00015709
0.0008308
0.00039867
0.00016088
2.0051e-05
0.0040157
7.9097e-08
4.0202e-05
0.003925
5.9793e-05
0.0037816
7.8384e-05
0.0035784
9.5787e-05
0.0033141
0.00011092
0.0030067
0.00012562
0.0026006
0.00013692
0.0022814
0.00014389
0.0017255
0.00015218
0.0013192
0.00015707
0.00082592
0.00039485
0.00016088
2.0051e-05
0.0039955
8.0573e-08
4.0203e-05
0.0039049
5.9796e-05
0.003762
7.8388e-05
0.0035598
9.5798e-05
0.0032966
0.00011092
0.0029916
0.0001256
0.0025859
0.00013701
0.00227
0.00014397
0.0017185
0.00015212
0.001311
0.00015704
0.000821
0.00039102
0.00016088
2.0051e-05
0.0039754
8.2055e-08
4.0205e-05
0.0038847
5.9799e-05
0.0037424
7.8392e-05
0.0035412
9.581e-05
0.0032792
0.00011092
0.0029765
0.00012558
0.0025712
0.00013711
0.0022585
0.00014406
0.0017116
0.00015208
0.001303
0.00015702
0.00081605
0.00038716
0.00016088
2.0051e-05
0.0039553
8.3545e-08
4.0207e-05
0.0038646
5.9802e-05
0.0037228
7.8395e-05
0.0035227
9.5822e-05
0.0032618
0.00011093
0.0029614
0.00012555
0.0025566
0.0001372
0.0022469
0.00014416
0.0017046
0.00015204
0.0012951
0.000157
0.00081109
0.00038329
0.00016087
2.0051e-05
0.0039351
8.5042e-08
4.0208e-05
0.0038444
5.9806e-05
0.0037033
7.8399e-05
0.0035041
9.5833e-05
0.0032444
0.00011094
0.0029463
0.00012553
0.002542
0.00013728
0.0022351
0.00014426
0.0016976
0.00015201
0.0012874
0.00015699
0.00080612
0.00037941
0.00016086
2.0051e-05
0.003915
8.6547e-08
4.021e-05
0.0038242
5.9809e-05
0.0036837
7.8403e-05
0.0034855
9.5845e-05
0.0032269
0.00011094
0.0029312
0.0001255
0.0025275
0.00013736
0.0022233
0.00014437
0.0016906
0.000152
0.0012798
0.00015697
0.00080114
0.00037553
0.00016085
2.0051e-05
0.0038948
8.8058e-08
4.0211e-05
0.0038041
5.9812e-05
0.0036641
7.8407e-05
0.0034669
9.5857e-05
0.0032095
0.00011095
0.0029161
0.00012548
0.0025129
0.00013743
0.0022113
0.00014448
0.0016836
0.00015199
0.0012722
0.00015697
0.00079617
0.00037165
0.00016085
2.0051e-05
0.0038747
8.9578e-08
4.0213e-05
0.0037839
5.9816e-05
0.0036444
7.841e-05
0.0034483
9.5868e-05
0.003192
0.00011097
0.002901
0.00012545
0.0024985
0.0001375
0.0021992
0.00014459
0.0016765
0.000152
0.0012648
0.00015696
0.0007912
0.00036778
0.00016084
2.0051e-05
0.0038546
9.1105e-08
4.0214e-05
0.0037638
5.9819e-05
0.0036248
7.8414e-05
0.0034297
9.588e-05
0.0031745
0.00011098
0.0028859
0.00012542
0.002484
0.00013757
0.0021871
0.00014471
0.0016693
0.00015201
0.0012575
0.00015697
0.00078624
0.00036391
0.00016083
2.0051e-05
0.0038344
9.2641e-08
4.0216e-05
0.0037436
5.9823e-05
0.0036052
7.8418e-05
0.0034111
9.5891e-05
0.0031571
0.00011099
0.0028708
0.00012539
0.0024696
0.00013762
0.0021749
0.00014482
0.0016621
0.00015204
0.0012503
0.00015698
0.0007813
0.00036006
0.00016083
2.0051e-05
0.0038143
9.4184e-08
4.0218e-05
0.0037234
5.9826e-05
0.0035856
7.8422e-05
0.0033925
9.5903e-05
0.0031396
0.00011101
0.0028557
0.00012536
0.0024553
0.00013768
0.0021625
0.00014494
0.0016549
0.00015207
0.0012432
0.00015699
0.00077638
0.00035622
0.00016083
2.0051e-05
0.0037941
9.5736e-08
4.0219e-05
0.0037033
5.983e-05
0.003566
7.8426e-05
0.0033739
9.5914e-05
0.0031221
0.00011102
0.0028406
0.00012533
0.0024409
0.00013772
0.0021502
0.00014506
0.0016475
0.0001521
0.0012361
0.00015701
0.00077148
0.0003524
0.00016083
2.0051e-05
0.003774
9.7297e-08
4.0221e-05
0.0036831
5.9833e-05
0.0035464
7.843e-05
0.0033553
9.5925e-05
0.0031046
0.00011104
0.0028255
0.0001253
0.0024267
0.00013776
0.0021377
0.00014517
0.0016401
0.00015215
0.0012292
0.00015703
0.0007666
0.0003486
0.00016083
2.0051e-05
0.0037538
9.8866e-08
4.0223e-05
0.0036629
5.9837e-05
0.0035268
7.8434e-05
0.0033367
9.5936e-05
0.0030871
0.00011106
0.0028103
0.00012527
0.0024125
0.0001378
0.0021252
0.00014529
0.0016326
0.0001522
0.0012223
0.00015706
0.00076174
0.00034483
0.00016083
2.0051e-05
0.0037337
1.0044e-07
4.0224e-05
0.0036427
5.984e-05
0.0035072
7.8438e-05
0.0033181
9.5947e-05
0.0030696
0.00011108
0.0027952
0.00012525
0.0023983
0.00013783
0.0021126
0.0001454
0.0016251
0.00015226
0.0012154
0.00015709
0.0007569
0.00034108
0.00016084
2.0051e-05
0.0037135
1.0203e-07
4.0226e-05
0.0036226
5.9844e-05
0.0034876
7.8442e-05
0.0032995
9.5957e-05
0.0030521
0.0001111
0.0027801
0.00012522
0.0023842
0.00013786
0.0020999
0.00014551
0.0016174
0.00015232
0.0012086
0.00015713
0.00075209
0.00033736
0.00016085
2.0051e-05
0.0036934
1.0363e-07
4.0228e-05
0.0036024
5.9848e-05
0.0034679
7.8447e-05
0.0032809
9.5968e-05
0.0030346
0.00011112
0.0027649
0.00012519
0.0023701
0.00013788
0.0020872
0.00014561
0.0016097
0.00015238
0.0012018
0.00015717
0.0007473
0.00033367
0.00016086
2.0051e-05
0.0036732
1.0523e-07
4.023e-05
0.0035822
5.9852e-05
0.0034483
7.8451e-05
0.0032623
9.5978e-05
0.003017
0.00011114
0.0027497
0.00012517
0.0023561
0.0001379
0.0020745
0.00014571
0.0016019
0.00015245
0.0011951
0.00015722
0.00074253
0.00033001
0.00016087
2.0051e-05
0.003653
1.0685e-07
4.0232e-05
0.003562
5.9855e-05
0.0034287
7.8456e-05
0.0032437
9.5988e-05
0.0029995
0.00011117
0.0027346
0.00012514
0.0023421
0.00013791
0.0020617
0.00014581
0.001594
0.00015252
0.0011884
0.00015726
0.00073779
0.00032638
0.00016089
2.0051e-05
0.0036329
1.0847e-07
4.0233e-05
0.0035419
5.9859e-05
0.0034091
7.846e-05
0.0032251
9.5998e-05
0.002982
0.00011119
0.0027194
0.00012512
0.0023282
0.00013793
0.0020489
0.00014591
0.001586
0.00015259
0.0011817
0.00015731
0.00073307
0.00032279
0.00016091
2.0052e-05
0.0036127
1.1011e-07
4.0235e-05
0.0035217
5.9863e-05
0.0033894
7.8465e-05
0.0032065
9.6008e-05
0.0029644
0.00011122
0.0027041
0.0001251
0.0023143
0.00013793
0.0020361
0.000146
0.0015779
0.00015267
0.001175
0.00015737
0.00072836
0.00031923
0.00016093
2.0052e-05
0.0035926
1.1176e-07
4.0237e-05
0.0035015
5.9867e-05
0.0033698
7.8469e-05
0.0031879
9.6017e-05
0.0029469
0.00011125
0.0026889
0.00012508
0.0023005
0.00013794
0.0020233
0.00014609
0.0015698
0.00015274
0.0011684
0.00015742
0.00072368
0.0003157
0.00016095
2.0052e-05
0.0035724
1.1341e-07
4.0239e-05
0.0034813
5.9871e-05
0.0033502
7.8474e-05
0.0031693
9.6026e-05
0.0029293
0.00011127
0.0026737
0.00012507
0.0022867
0.00013794
0.0020104
0.00014617
0.0015616
0.00015282
0.0011617
0.00015748
0.00071901
0.00031221
0.00016097
2.0052e-05
0.0035522
1.1508e-07
4.0241e-05
0.0034611
5.9875e-05
0.0033305
7.8479e-05
0.0031507
9.6035e-05
0.0029118
0.0001113
0.0026584
0.00012505
0.0022729
0.00013794
0.0019975
0.00014625
0.0015532
0.00015289
0.0011551
0.00015754
0.00071436
0.00030876
0.000161
2.0052e-05
0.0035321
1.1676e-07
4.0243e-05
0.0034409
5.9879e-05
0.0033109
7.8484e-05
0.0031321
9.6044e-05
0.0028942
0.00011133
0.0026431
0.00012504
0.0022592
0.00013794
0.0019846
0.00014633
0.0015448
0.00015297
0.0011484
0.0001576
0.00070973
0.00030534
0.00016102
2.0052e-05
0.0035119
1.1845e-07
4.0245e-05
0.0034207
5.9883e-05
0.0032913
7.8489e-05
0.0031135
9.6053e-05
0.0028766
0.00011136
0.0026278
0.00012503
0.0022455
0.00013793
0.0019717
0.0001464
0.0015364
0.00015304
0.0011418
0.00015767
0.00070511
0.00030196
0.00016105
2.0052e-05
0.0034917
1.2015e-07
4.0247e-05
0.0034005
5.9887e-05
0.0032716
7.8494e-05
0.0030949
9.6062e-05
0.0028591
0.00011139
0.0026125
0.00012502
0.0022319
0.00013793
0.0019588
0.00014647
0.0015278
0.00015312
0.0011352
0.00015773
0.0007005
0.00029861
0.00016108
2.0052e-05
0.0034715
1.2186e-07
4.0249e-05
0.0033803
5.9892e-05
0.003252
7.8499e-05
0.0030763
9.607e-05
0.0028415
0.00011141
0.0025972
0.00012502
0.0022183
0.00013792
0.0019459
0.00014653
0.0015192
0.00015319
0.0011285
0.00015779
0.0006959
0.0002953
0.0001611
2.0052e-05
0.0034514
1.2358e-07
4.0251e-05
0.0033601
5.9896e-05
0.0032323
7.8505e-05
0.0030577
9.6078e-05
0.0028239
0.00011144
0.0025818
0.00012501
0.0022047
0.00013792
0.001933
0.00014659
0.0015106
0.00015327
0.0011218
0.00015786
0.00069131
0.00029203
0.00016113
2.0052e-05
0.0034312
1.2532e-07
4.0253e-05
0.0033399
5.99e-05
0.0032127
7.851e-05
0.0030391
9.6086e-05
0.0028064
0.00011147
0.0025664
0.00012501
0.0021912
0.00013791
0.0019201
0.00014665
0.0015018
0.00015334
0.0011151
0.00015792
0.00068673
0.00028878
0.00016116
2.0052e-05
0.003411
1.2707e-07
4.0255e-05
0.0033197
5.9905e-05
0.003193
7.8516e-05
0.0030204
9.6094e-05
0.0027888
0.0001115
0.002551
0.00012501
0.0021777
0.0001379
0.0019072
0.00014671
0.001493
0.00015341
0.0011084
0.00015799
0.00068216
0.00028557
0.00016119
2.0052e-05
0.0033908
1.2883e-07
4.0257e-05
0.0032995
5.9909e-05
0.0031734
7.8521e-05
0.0030018
9.6102e-05
0.0027712
0.00011153
0.0025356
0.00012501
0.0021642
0.00013789
0.0018943
0.00014676
0.0014841
0.00015348
0.0011017
0.00015805
0.00067759
0.0002824
0.00016123
2.0052e-05
0.0033707
1.306e-07
4.0259e-05
0.0032793
5.9913e-05
0.0031537
7.8527e-05
0.0029832
9.611e-05
0.0027536
0.00011156
0.0025201
0.00012501
0.0021508
0.00013788
0.0018814
0.00014681
0.0014752
0.00015355
0.001095
0.00015811
0.00067303
0.00027926
0.00016126
2.0053e-05
0.0033505
1.3239e-07
4.0261e-05
0.0032591
5.9918e-05
0.0031341
7.8533e-05
0.0029646
9.6118e-05
0.002736
0.00011159
0.0025046
0.00012502
0.0021373
0.00013787
0.0018686
0.00014685
0.0014662
0.00015362
0.0010882
0.00015818
0.00066847
0.00027614
0.00016129
2.0053e-05
0.0033303
1.3419e-07
4.0263e-05
0.0032389
5.9922e-05
0.0031144
7.8539e-05
0.002946
9.6125e-05
0.0027184
0.00011162
0.0024891
0.00012502
0.0021239
0.00013787
0.0018557
0.0001469
0.0014572
0.00015368
0.0010814
0.00015824
0.00066391
0.00027306
0.00016132
2.0053e-05
0.0033101
1.36e-07
4.0265e-05
0.0032187
5.9927e-05
0.0030948
7.8545e-05
0.0029274
9.6133e-05
0.0027009
0.00011165
0.0024736
0.00012503
0.0021106
0.00013786
0.0018429
0.00014694
0.0014481
0.00015375
0.0010746
0.00015831
0.00065935
0.00027002
0.00016135
2.0053e-05
0.0032899
1.3783e-07
4.0268e-05
0.0031985
5.9932e-05
0.0030751
7.8551e-05
0.0029087
9.614e-05
0.0026833
0.00011169
0.0024581
0.00012504
0.0020972
0.00013785
0.0018301
0.00014698
0.001439
0.00015381
0.0010678
0.00015837
0.00065479
0.000267
0.00016139
2.0053e-05
0.0032697
1.3967e-07
4.027e-05
0.0031783
5.9936e-05
0.0030554
7.8558e-05
0.0028901
9.6148e-05
0.0026657
0.00011172
0.0024425
0.00012505
0.0020839
0.00013784
0.0018173
0.00014702
0.0014298
0.00015387
0.0010609
0.00015843
0.00065024
0.00026401
0.00016142
2.0053e-05
0.0032495
1.4153e-07
4.0272e-05
0.003158
5.9941e-05
0.0030358
7.8564e-05
0.0028715
9.6155e-05
0.0026481
0.00011175
0.0024269
0.00012507
0.0020705
0.00013784
0.0018045
0.00014706
0.0014206
0.00015394
0.001054
0.00015849
0.00064568
0.00026105
0.00016145
2.0053e-05
0.0032293
1.434e-07
4.0275e-05
0.0031378
5.9946e-05
0.0030161
7.8571e-05
0.0028529
9.6162e-05
0.0026305
0.00011178
0.0024113
0.00012508
0.0020572
0.00013783
0.0017918
0.00014709
0.0014113
0.000154
0.0010471
0.00015855
0.00064112
0.00025811
0.00016149
2.0053e-05
0.0032091
1.4529e-07
4.0277e-05
0.0031176
5.9951e-05
0.0029964
7.8577e-05
0.0028343
9.6169e-05
0.0026129
0.00011181
0.0023957
0.0001251
0.0020439
0.00013783
0.0017791
0.00014713
0.001402
0.00015405
0.0010402
0.00015862
0.00063656
0.00025521
0.00016152
2.0054e-05
0.0031889
1.4719e-07
4.0279e-05
0.0030974
5.9956e-05
0.0029767
7.8584e-05
0.0028156
9.6177e-05
0.0025953
0.00011183
0.00238
0.00012512
0.0020307
0.00013783
0.0017664
0.00014716
0.0013927
0.00015411
0.0010333
0.00015868
0.00063199
0.00025232
0.00016156
2.0054e-05
0.0031687
1.4911e-07
4.0282e-05
0.0030771
5.9961e-05
0.0029571
7.8591e-05
0.002797
9.6184e-05
0.0025777
0.00011186
0.0023643
0.00012514
0.0020174
0.00013783
0.0017537
0.00014719
0.0013833
0.00015417
0.0010263
0.00015874
0.00062742
0.00024947
0.00016159
2.0054e-05
0.0031485
1.5105e-07
4.0284e-05
0.0030569
5.9966e-05
0.0029374
7.8598e-05
0.0027784
9.6191e-05
0.0025601
0.00011189
0.0023486
0.00012516
0.0020041
0.00013782
0.001741
0.00014722
0.0013739
0.00015422
0.0010193
0.00015879
0.00062285
0.00024664
0.00016162
2.0054e-05
0.0031283
1.53e-07
4.0286e-05
0.0030367
5.9972e-05
0.0029177
7.8605e-05
0.0027597
9.6198e-05
0.0025425
0.00011192
0.0023329
0.00012518
0.0019909
0.00013782
0.0017283
0.00014725
0.0013645
0.00015428
0.0010122
0.00015885
0.00061828
0.00024383
0.00016166
2.0054e-05
0.0031081
1.5497e-07
4.0289e-05
0.0030164
5.9977e-05
0.002898
7.8612e-05
0.0027411
9.6206e-05
0.0025249
0.00011195
0.0023171
0.0001252
0.0019776
0.00013783
0.0017157
0.00014728
0.0013551
0.00015433
0.0010052
0.00015891
0.00061369
0.00024105
0.00016169
2.0054e-05
0.0030879
1.5695e-07
4.0291e-05
0.0029962
5.9982e-05
0.0028783
7.8619e-05
0.0027225
9.6213e-05
0.0025073
0.00011198
0.0023014
0.00012522
0.0019644
0.00013783
0.0017031
0.00014731
0.0013456
0.00015438
0.00099813
0.00015897
0.00060911
0.00023829
0.00016173
2.0055e-05
0.0030677
1.5896e-07
4.0294e-05
0.002976
5.9988e-05
0.0028586
7.8626e-05
0.0027038
9.622e-05
0.0024898
0.00011201
0.0022856
0.00012525
0.0019511
0.00013783
0.0016905
0.00014734
0.0013361
0.00015443
0.00099104
0.00015902
0.00060451
0.00023555
0.00016176
2.0055e-05
0.0030475
1.6098e-07
4.0296e-05
0.0029557
5.9993e-05
0.0028389
7.8634e-05
0.0026852
9.6227e-05
0.0024722
0.00011204
0.0022698
0.00012527
0.0019379
0.00013784
0.001678
0.00014737
0.0013265
0.00015448
0.00098392
0.00015908
0.00059992
0.00023284
0.0001618
2.0055e-05
0.0030272
1.6302e-07
4.0299e-05
0.0029355
5.9999e-05
0.0028192
7.8641e-05
0.0026665
9.6234e-05
0.0024546
0.00011207
0.0022539
0.0001253
0.0019247
0.00013784
0.0016654
0.00014739
0.001317
0.00015453
0.00097678
0.00015914
0.00059531
0.00023014
0.00016183
2.0055e-05
0.003007
1.6508e-07
4.0302e-05
0.0029152
6.0005e-05
0.0027995
7.8649e-05
0.0026479
9.6241e-05
0.002437
0.0001121
0.0022381
0.00012533
0.0019115
0.00013785
0.0016529
0.00014742
0.0013074
0.00015458
0.00096962
0.00015919
0.0005907
0.00022746
0.00016187
2.0055e-05
0.0029868
1.6716e-07
4.0304e-05
0.002895
6.0011e-05
0.0027798
7.8657e-05
0.0026292
9.6248e-05
0.0024194
0.00011213
0.0022222
0.00012536
0.0018982
0.00013786
0.0016404
0.00014745
0.0012978
0.00015463
0.00096243
0.00015925
0.00058609
0.00022481
0.0001619
2.0056e-05
0.0029666
1.6925e-07
4.0307e-05
0.0028747
6.0016e-05
0.0027601
7.8665e-05
0.0026106
9.6256e-05
0.0024018
0.00011215
0.0022063
0.00012538
0.001885
0.00013787