/*--------------------------------*- C++ -*----------------------------------*\
  =========                 |
  \\      /  F ield         | OpenFOAM: The Open Source CFD Toolbox
   \\    /   O peration     | Website:  https://openfoam.org
    \\  /    A nd           | Version:  6.0
     \\/     M anipulation  |
\*---------------------------------------------------------------------------*/
FoamFile
{
    version     2.0;
    format      ascii;
    class       volVectorField;
    location    "15";
    object      U;
}
// * * * * * * * * * * * * * * * * * * * * * * * * * * * * * * * * * * * * * //

dimensions      [0 1 -1 0 0 0 0];

internalField   nonuniform List<vector> 
62000
(
(1 1.07593e-05 -7.00889e-21)
(1 1.83689e-05 5.53602e-21)
(1 2.36957e-05 5.40139e-21)
(1 2.92582e-05 -2.25249e-20)
(0.999999 3.46587e-05 -2.45182e-20)
(0.999999 4.00386e-05 8.08051e-20)
(0.999999 4.53024e-05 -8.48488e-20)
(0.999998 5.04188e-05 4.71596e-20)
(0.999998 5.53763e-05 -2.1164e-20)
(0.999997 6.00898e-05 -1.03796e-19)
(0.999997 6.47389e-05 -1.27967e-20)
(0.999996 6.91542e-05 1.34248e-19)
(0.999996 7.35274e-05 2.64072e-20)
(0.999995 7.77592e-05 -8.93426e-20)
(0.999994 8.20114e-05 1.34866e-19)
(0.999993 8.62498e-05 -6.9243e-20)
(0.999992 9.05276e-05 6.97058e-20)
(0.999991 9.48453e-05 -7.95651e-20)
(0.99999 9.91768e-05 3.82339e-20)
(0.999988 0.000103522 -1.15007e-19)
(0.999986 0.000107814 1.46648e-19)
(0.999984 0.000112035 4.24168e-20)
(0.999981 0.000116131 6.00937e-20)
(0.999978 0.000120038 -2.67016e-19)
(0.999974 0.000123716 9.62274e-20)
(0.99997 0.000127099 -5.82907e-20)
(0.999964 0.000130105 -6.43435e-22)
(0.999958 0.000132635 -4.56802e-20)
(0.99995 0.000134519 1.40689e-19)
(0.999941 0.00013551 -7.75041e-20)
(0.999931 0.00013528 1.8451e-19)
(0.999918 0.000133521 -3.77702e-19)
(0.999903 0.000129872 3.54724e-20)
(0.999886 0.000123937 -1.25456e-19)
(0.999865 0.000115159 -3.9122e-20)
(0.999841 0.000102629 -1.29472e-19)
(0.999812 8.52649e-05 -3.41786e-20)
(0.999779 6.18189e-05 -3.84013e-20)
(0.999741 3.10577e-05 1.24252e-19)
(0.999697 -8.2295e-06 5.80786e-19)
(0.999648 -5.72027e-05 -1.41839e-19)
(0.999593 -0.000116911 -7.94177e-19)
(0.999531 -0.000188257 -1.24866e-18)
(0.999464 -0.00027201 6.66176e-19)
(0.999393 -0.000368729 2.14846e-19)
(0.999318 -0.000478813 -9.07837e-19)
(0.999242 -0.000602018 1.47321e-19)
(0.99917 -0.000737404 -3.62037e-19)
(0.999106 -0.000882554 -1.56706e-18)
(0.999052 -0.00103408 -3.6779e-19)
(0.999013 -0.00118943 -1.68984e-19)
(0.998988 -0.00134735 -2.02073e-18)
(0.998971 -0.00151756 3.4209e-19)
(0.998961 -0.00171882 1.97107e-18)
(0.998955 -0.00198454 4.58762e-19)
(0.998961 -0.00235159 1.57199e-18)
(0.998998 -0.00289367 -1.48109e-19)
(0.999057 -0.00361249 -2.0949e-19)
(0.999701 -0.00502619 5.20209e-19)
(0.992382 -0.0103862 9.1947e-20)
(1.00008 8.31835e-05 -1.8763e-21)
(1.00008 9.92988e-05 1.70553e-20)
(1.00008 0.000113153 6.73027e-21)
(1.00008 0.000126869 -2.74499e-20)
(1.00008 0.000140436 1.08606e-20)
(1.00007 0.000154178 -7.15624e-20)
(1.00007 0.000168011 6.25593e-20)
(1.00007 0.000181804 3.4673e-20)
(1.00006 0.00019552 -6.20927e-20)
(1.00006 0.000208985 2.55178e-21)
(1.00005 0.000222518 5.55101e-20)
(1.00005 0.0002358 1.71234e-22)
(1.00004 0.00024913 1.48851e-20)
(1.00004 0.000262291 -1.22809e-19)
(1.00003 0.000275565 2.38693e-19)
(1.00003 0.000288807 -2.04313e-19)
(1.00002 0.000302111 9.31147e-20)
(1.00002 0.000315325 -1.90195e-20)
(1.00001 0.000328345 -5.06592e-20)
(1 0.000340996 1.36843e-19)
(0.999994 0.000353007 -2.10956e-19)
(0.999985 0.000364141 1.1999e-19)
(0.999976 0.000374074 -1.49922e-19)
(0.999966 0.000382451 8.75708e-20)
(0.999954 0.000388913 7.99097e-20)
(0.999941 0.000393035 -5.1912e-20)
(0.999927 0.000394477 -3.0253e-22)
(0.999911 0.00039263 5.62383e-20)
(0.999893 0.000387016 4.68592e-20)
(0.999872 0.000376923 -9.56213e-20)
(0.999848 0.000361746 1.92715e-19)
(0.999821 0.000340496 3.92539e-20)
(0.999791 0.000311964 1.21069e-19)
(0.999757 0.000274782 8.95344e-21)
(0.999717 0.000229013 3.41136e-20)
(0.999672 0.000174547 -3.92086e-20)
(0.999621 0.000110259 -1.18953e-19)
(0.999562 3.4416e-05 -5.97345e-20)
(0.999495 -5.44611e-05 -3.35672e-19)
(0.99942 -0.000157494 -3.84248e-19)
(0.999337 -0.000275566 3.01883e-19)
(0.999245 -0.000409332 1.78827e-19)
(0.999145 -0.000559312 1.33854e-18)
(0.999039 -0.000726072 7.89428e-20)
(0.998928 -0.000909677 -2.01839e-18)
(0.998818 -0.0011097 7.82226e-19)
(0.998714 -0.00132333 6.17003e-19)
(0.998624 -0.00154492 7.16782e-19)
(0.998556 -0.00176522 1.18354e-19)
(0.998513 -0.001972 2.3379e-20)
(0.998498 -0.00215916 1.02237e-18)
(0.998502 -0.00232287 2.54847e-18)
(0.998506 -0.0024952 -1.5946e-18)
(0.998512 -0.00272066 -3.60292e-18)
(0.998516 -0.00306688 -8.12232e-19)
(0.99854 -0.00358127 -5.60996e-19)
(0.998646 -0.00436378 -1.14275e-18)
(0.998664 -0.00533416 -5.54293e-19)
(0.999648 -0.00716332 8.15416e-19)
(0.996894 -0.0114639 3.44072e-19)
(1.00018 0.000124162 -9.12063e-21)
(1.00018 0.000143106 -1.22756e-21)
(1.00018 0.000160817 1.27594e-21)
(1.00018 0.000176413 5.53649e-21)
(1.00017 0.000191204 1.49398e-20)
(1.00017 0.000205734 -1.34953e-20)
(1.00016 0.000220082 6.87923e-20)
(1.00015 0.000234015 -3.13076e-20)
(1.00015 0.000247577 -1.61098e-20)
(1.00014 0.000260526 -9.50906e-20)
(1.00013 0.000273304 7.6976e-20)
(1.00012 0.000285552 5.44388e-21)
(1.00011 0.000297683 -1.63541e-20)
(1.0001 0.000309437 4.19296e-20)
(1.00009 0.000321167 -6.93934e-20)
(1.00008 0.00033273 4.10524e-22)
(1.00007 0.0003442 -3.00123e-20)
(1.00006 0.000355401 4.69259e-22)
(1.00005 0.000366099 6.59669e-20)
(1.00003 0.000376107 -9.80648e-20)
(1.00002 0.000384923 5.97733e-20)
(1.00001 0.000392293 2.27973e-19)
(0.999994 0.000397647 -2.94827e-20)
(0.999979 0.000400568 -3.05797e-19)
(0.999963 0.00040048 1.54742e-19)
(0.999946 0.000396863 -8.27735e-20)
(0.999928 0.000389249 1.33363e-19)
(0.999908 0.000376912 -8.01102e-20)
(0.999887 0.000359249 -1.57571e-19)
(0.999864 0.000335541 1.66219e-19)
(0.999839 0.000305213 -1.16905e-19)
(0.999811 0.000267365 1.56308e-19)
(0.99978 0.000220298 -4.31524e-19)
(0.999747 0.000162748 3.846e-19)
(0.99971 9.53781e-05 -2.0532e-19)
(0.999669 1.88786e-05 8.52597e-20)
(0.999622 -6.71797e-05 6.42664e-20)
(0.999569 -0.000164204 -2.39649e-21)
(0.999508 -0.000273355 -1.27074e-20)
(0.999441 -0.00039547 3.97465e-19)
(0.999365 -0.000531353 -1.57537e-19)
(0.999282 -0.000681765 2.46748e-19)
(0.999191 -0.000847547 -8.64004e-19)
(0.999095 -0.00102973 -4.2099e-19)
(0.998997 -0.00122841 4.46627e-19)
(0.998902 -0.0014423 -1.52106e-18)
(0.99882 -0.0016657 1.96121e-19)
(0.998758 -0.00188747 -1.2301e-18)
(0.998728 -0.00209041 1.6608e-18)
(0.998734 -0.00225211 4.00516e-19)
(0.998778 -0.0023583 2.18817e-19)
(0.998846 -0.00239783 -4.11158e-20)
(0.998917 -0.00240533 7.01628e-19)
(0.998989 -0.00243625 3.54289e-20)
(0.999052 -0.00257041 -1.2118e-18)
(0.999116 -0.00286324 -6.21416e-19)
(0.999264 -0.0034092 -3.93811e-19)
(0.999178 -0.00416096 -1.22515e-18)
(0.999873 -0.00559217 -8.05849e-20)
(0.998742 -0.00805655 1.53022e-19)
(1.00024 0.000137554 -9.10533e-21)
(1.00024 0.000158868 2.63948e-20)
(1.00023 0.000179101 -3.8246e-21)
(1.00023 0.000195035 -2.44457e-20)
(1.00022 0.000209149 3.49806e-20)
(1.00022 0.000222334 5.73417e-20)
(1.00021 0.000234767 -7.11747e-20)
(1.0002 0.00024612 7.36163e-21)
(1.00019 0.000256505 2.2438e-20)
(1.00018 0.000265638 4.46367e-20)
(1.00017 0.000274068 -7.90277e-20)
(1.00016 0.000281456 -2.33458e-20)
(1.00015 0.000288322 -2.50617e-20)
(1.00014 0.000294451 1.10089e-19)
(1.00012 0.000300272 -7.08354e-20)
(1.00011 0.000305748 1.59733e-19)
(1.0001 0.000310953 -1.87448e-19)
(1.00008 0.000315786 -2.65657e-20)
(1.00007 0.000319934 1.85902e-19)
(1.00005 0.000323288 -6.31226e-20)
(1.00003 0.000325186 -2.25556e-20)
(1.00002 0.000325445 -2.35063e-20)
(0.999999 0.00032335 -2.08789e-19)
(0.999981 0.000318519 1.18079e-19)
(0.999962 0.00031029 -5.221e-20)
(0.999941 0.000298165 8.32396e-20)
(0.99992 0.000281667 3.81966e-20)
(0.999899 0.000260098 1.86317e-19)
(0.999875 0.000232861 -1.15718e-19)
(0.999851 0.000199299 -1.49438e-19)
(0.999824 0.000158949 2.32942e-19)
(0.999796 0.000110939 -1.89857e-19)
(0.999766 5.33992e-05 3.49151e-19)
(0.999733 -1.49083e-05 -2.10712e-19)
(0.999698 -9.3142e-05 8.88317e-20)
(0.99966 -0.000180087 1.51468e-19)
(0.999616 -0.000276028 -6.39379e-20)
(0.999567 -0.000382403 7.80275e-20)
(0.99951 -0.000500554 -4.04645e-20)
(0.999445 -0.000631677 1.17724e-19)
(0.999371 -0.000777184 -3.42836e-19)
(0.999288 -0.000938662 9.48308e-20)
(0.999196 -0.00111801 2.03022e-19)
(0.999095 -0.00131743 4.93965e-19)
(0.99899 -0.00153798 6.38015e-19)
(0.998885 -0.00177876 1.32178e-19)
(0.998789 -0.00203334 9.61164e-19)
(0.998713 -0.00228834 1.01512e-18)
(0.998669 -0.0025228 1.15919e-18)
(0.998664 -0.00270905 -8.08907e-19)
(0.998707 -0.00282727 -9.68159e-19)
(0.998784 -0.0028602 6.48911e-19)
(0.998881 -0.00283789 8.31752e-19)
(0.998993 -0.00281881 1.53255e-18)
(0.999112 -0.00288677 8.43391e-19)
(0.99923 -0.0031107 1.5041e-18)
(0.999437 -0.00358562 2.34255e-18)
(0.999354 -0.00435446 -2.68313e-19)
(0.999777 -0.0057674 -1.11358e-18)
(0.998675 -0.00883511 -9.55787e-19)
(1.00024 0.000145904 1.76104e-20)
(1.00024 0.000170106 -5.57163e-21)
(1.00024 0.000192956 8.83413e-21)
(1.00023 0.000209804 -1.18234e-20)
(1.00023 0.000223891 2.51392e-20)
(1.00022 0.000236465 -1.18024e-20)
(1.00022 0.000247744 6.04101e-21)
(1.00021 0.000257284 -8.54781e-20)
(1.0002 0.000265228 6.8209e-20)
(1.00019 0.000271242 -1.30014e-19)
(1.00018 0.000275951 1.36747e-19)
(1.00016 0.000279036 -1.58211e-20)
(1.00015 0.000281102 -3.34633e-20)
(1.00014 0.000281996 -1.47005e-20)
(1.00012 0.000282219 -3.05353e-21)
(1.00011 0.000281856 -1.38084e-19)
(1.00009 0.000281013 6.09691e-21)
(1.00008 0.00027968 1.40598e-19)
(1.00006 0.000277519 -4.42139e-20)
(1.00004 0.000274503 -4.52042e-20)
(1.00002 0.000269887 7.4213e-20)
(1 0.000263557 -3.58577e-20)
(0.999983 0.000254736 1.47146e-19)
(0.999962 0.000243075 7.87906e-20)
(0.999941 0.000227904 5.87924e-20)
(0.999918 0.000208745 -1.80532e-19)
(0.999895 0.000185168 -2.49879e-20)
(0.999871 0.000156504 -1.36778e-19)
(0.999846 0.000122215 2.54711e-20)
(0.99982 8.16621e-05 -4.45702e-20)
(0.999793 3.44487e-05 -1.71616e-20)
(0.999764 -2.02738e-05 1.39533e-19)
(0.999733 -8.47885e-05 -3.49719e-19)
(0.999701 -0.000160333 -1.5345e-20)
(0.999667 -0.000245879 -1.77329e-19)
(0.99963 -0.000340087 -8.6757e-20)
(0.999588 -0.000443126 2.41348e-20)
(0.999541 -0.000556704 -2.75617e-19)
(0.999487 -0.000682528 4.206e-19)
(0.999424 -0.000822192 6.61509e-20)
(0.999351 -0.000977566 4.6228e-19)
(0.999266 -0.00115076 -3.31974e-19)
(0.99917 -0.00134434 -2.24374e-19)
(0.999062 -0.00156141 -9.30472e-20)
(0.998943 -0.00180411 4.7126e-19)
(0.998817 -0.00207292 6.77351e-19)
(0.998691 -0.00236306 1.54464e-19)
(0.998575 -0.00266301 2.6114e-19)
(0.998482 -0.00295382 -3.90698e-19)
(0.998422 -0.00320934 2.05394e-18)
(0.99841 -0.0034103 4.91727e-19)
(0.99844 -0.00353717 -4.41187e-19)
(0.99851 -0.00361397 2.26935e-19)
(0.998623 -0.00369432 1.39411e-18)
(0.998779 -0.00385321 -1.38567e-19)
(0.99896 -0.00415815 -1.14882e-18)
(0.999259 -0.00468534 -2.62561e-18)
(0.999299 -0.00551204 2.14908e-18)
(0.999642 -0.00691778 -1.25117e-18)
(0.999328 -0.00983169 1.14753e-18)
(1.00021 0.000157543 -6.6851e-21)
(1.00021 0.000185412 2.55361e-20)
(1.00021 0.000211344 -3.98445e-20)
(1.0002 0.0002299 2.82e-20)
(1.0002 0.00024483 1.73684e-20)
(1.00019 0.000257699 -1.74779e-20)
(1.00019 0.000268728 1.39204e-21)
(1.00018 0.000277438 -1.18905e-20)
(1.00017 0.000283964 -3.81756e-20)
(1.00016 0.00028796 6.99148e-20)
(1.00015 0.000290053 -1.03687e-19)
(1.00014 0.000289975 8.69227e-20)
(1.00012 0.000288343 7.35022e-20)
(1.00011 0.000285085 -1.09286e-19)
(1.00009 0.000280725 -3.4323e-20)
(1.00008 0.000275476 1.24265e-19)
(1.00006 0.000269449 -1.45267e-19)
(1.00005 0.00026272 1.94166e-19)
(1.00003 0.000254946 -3.58741e-20)
(1.00001 0.000246161 1.96129e-20)
(0.999991 0.000235575 -3.11292e-20)
(0.999971 0.000223122 -3.79808e-20)
(0.999951 0.000208005 -6.87213e-20)
(0.999929 0.000189887 1.16037e-19)
(0.999907 0.000168127 -7.81334e-20)
(0.999885 0.000142265 -7.47187e-20)
(0.999861 0.000111941 1.51178e-19)
(0.999838 7.65134e-05 -1.42107e-19)
(0.999814 3.55368e-05 2.23469e-19)
(0.999789 -1.15948e-05 -1.17884e-19)
(0.999764 -6.51544e-05 8.88871e-20)
(0.999738 -0.00012609 -1.48413e-19)
(0.999711 -0.00019681 1.58972e-19)
(0.999684 -0.000278695 -1.36984e-20)
(0.999657 -0.000370571 -8.1181e-21)
(0.999628 -0.000470584 -3.79386e-21)
(0.999597 -0.000578685 -8.21737e-20)
(0.999562 -0.000696524 2.42289e-19)
(0.999522 -0.000825822 -1.89451e-19)
(0.999474 -0.000968039 -1.05961e-18)
(0.999419 -0.00112471 -4.41735e-19)
(0.999354 -0.00129745 3.18718e-19)
(0.999277 -0.00148831 -3.3152e-19)
(0.999188 -0.00170008 -3.81705e-19)
(0.999084 -0.0019351 -2.73795e-20)
(0.998967 -0.00219494 9.19684e-19)
(0.99884 -0.00247719 -1.31559e-18)
(0.998712 -0.00277441 -1.3119e-18)
(0.998592 -0.0030733 -8.73348e-19)
(0.998491 -0.00335432 -1.37966e-18)
(0.998428 -0.00360384 8.29544e-19)
(0.998405 -0.00380446 -3.31101e-19)
(0.99843 -0.00397568 -2.51443e-18)
(0.99852 -0.00416277 4.50658e-19)
(0.998688 -0.00442345 6.38602e-19)
(0.998912 -0.00481001 -1.12885e-18)
(0.999284 -0.00536324 7.33834e-19)
(0.999453 -0.00614802 6.09385e-19)
(0.999753 -0.00739014 1.99779e-18)
(1.00049 -0.00976725 -4.16553e-20)
(1.00015 0.000172036 7.87543e-21)
(1.00015 0.000203464 -3.36043e-20)
(1.00015 0.000233019 1.55068e-20)
(1.00014 0.000254027 2.74463e-20)
(1.00014 0.000270527 -5.58716e-20)
(1.00013 0.000284341 4.44686e-20)
(1.00013 0.000295742 -2.81959e-20)
(1.00012 0.000304255 2.27613e-20)
(1.00011 0.000310006 3.46305e-20)
(1.0001 0.000312639 -7.94998e-20)
(1.00009 0.000312783 1.09741e-19)
(1.00008 0.000310212 4.45356e-20)
(1.00007 0.000305552 -1.70337e-19)
(1.00006 0.00029879 -3.06085e-20)
(1.00004 0.000290466 8.36945e-20)
(1.00003 0.000280884 5.19125e-20)
(1.00001 0.000270157 -6.08271e-20)
(0.999995 0.000258419 5.16087e-20)
(0.999978 0.000245316 7.73111e-20)
(0.99996 0.000230921 -3.65569e-20)
(0.999941 0.000214404 -2.03579e-20)
(0.999922 0.000195734 7.06046e-20)
(0.999901 0.000174101 1.41543e-19)
(0.999881 0.000149176 -1.00373e-19)
(0.99986 0.000120358 -1.08521e-19)
(0.999839 8.71939e-05 1.17559e-19)
(0.999817 4.94034e-05 -8.91573e-20)
(0.999796 6.37409e-06 -3.57026e-20)
(0.999774 -4.2242e-05 2.90759e-19)
(0.999753 -9.69871e-05 -1.25701e-19)
(0.999732 -0.000158014 -9.53068e-20)
(0.999712 -0.000226165 1.25538e-19)
(0.999692 -0.000304143 8.61877e-20)
(0.999674 -0.000393269 -7.55871e-20)
(0.999657 -0.000492027 -5.14222e-20)
(0.999642 -0.000598147 1.64817e-19)
(0.999626 -0.000710921 3.84477e-20)
(0.99961 -0.000831628 5.51416e-20)
(0.999592 -0.000961599 -2.95243e-19)
(0.999572 -0.00110166 -2.80374e-19)
(0.999549 -0.00125229 5.59237e-19)
(0.99952 -0.00141368 4.38901e-19)
(0.999484 -0.00158622 7.34372e-19)
(0.999438 -0.00177113 -6.61573e-19)
(0.999379 -0.00196972 -7.1615e-19)
(0.999307 -0.00218353 -4.85987e-19)
(0.99922 -0.00241197 1.13477e-18)
(0.999121 -0.00265185 1.05997e-18)
(0.999017 -0.00289675 -1.15176e-18)
(0.998916 -0.00313605 -1.57123e-18)
(0.998838 -0.00336512 -3.50095e-19)
(0.998787 -0.00357264 2.82703e-19)
(0.99878 -0.00377752 5.87112e-20)
(0.998844 -0.00401917 -8.50667e-19)
(0.999001 -0.00433934 6.71013e-19)
(0.999235 -0.00477467 3.92618e-19)
(0.999625 -0.00533415 5.43075e-19)
(0.99986 -0.00607153 -1.85931e-18)
(1.00007 -0.0071858 -1.28681e-19)
(1.00136 -0.00950895 1.64023e-20)
(1.00007 0.000189082 -1.32609e-20)
(1.00007 0.000224857 -1.00319e-20)
(1.00007 0.000258436 1.28911e-20)
(1.00007 0.000282444 4.32758e-20)
(1.00006 0.000301022 -8.84368e-20)
(1.00006 0.00031621 9.60785e-20)
(1.00005 0.000328327 -4.09284e-21)
(1.00004 0.000336975 -5.40376e-21)
(1.00003 0.000342265 -2.95702e-20)
(1.00002 0.000343845 6.84906e-20)
(1.00001 0.000342346 -1.00901e-19)
(1 0.000337579 3.64155e-20)
(0.999991 0.000330188 -1.15293e-21)
(0.999979 0.000320207 5.24755e-20)
(0.999965 0.000308201 2.39853e-20)
(0.999951 0.000294549 -1.23117e-19)
(0.999936 0.000279364 1.03144e-19)
(0.99992 0.000262821 3.91604e-20)
(0.999903 0.000244558 -1.09144e-19)
(0.999886 0.000224667 5.19502e-20)
(0.999868 0.000202273 2.33851e-20)
(0.999849 0.000177367 -1.51384e-20)
(0.99983 0.000149108 1.84341e-20)
(0.99981 0.000117168 -1.04475e-20)
(0.99979 8.09611e-05 -1.17819e-19)
(0.999769 4.0033e-05 7.57123e-20)
(0.999749 -5.83943e-06 -1.13115e-19)
(0.999729 -5.72675e-05 2.04697e-19)
(0.999709 -0.00011452 -3.84686e-20)
(0.99969 -0.000178119 -2.23643e-20)
(0.999672 -0.000248056 -6.20185e-21)
(0.999655 -0.000325207 2.03131e-19)
(0.999639 -0.000412247 -8.21158e-20)
(0.999627 -0.000510624 -4.89244e-20)
(0.999618 -0.000618653 1.2666e-19)
(0.999611 -0.000733386 1.07858e-19)
(0.999607 -0.000853656 -1.80446e-19)
(0.999605 -0.000980187 3.21461e-20)
(0.999605 -0.00111378 3.51054e-19)
(0.999607 -0.00125451 -2.8318e-20)
(0.999611 -0.0014016 2.21502e-19)
(0.999616 -0.00155342 -3.19304e-19)
(0.99962 -0.00170824 4.77211e-19)
(0.99962 -0.00186507 1.03357e-18)
(0.999613 -0.00202328 3.0615e-19)
(0.999595 -0.00218351 -3.94741e-19)
(0.999563 -0.0023459 -1.17033e-18)
(0.999517 -0.00251068 1.84846e-19)
(0.999458 -0.00267771 3.48349e-19)
(0.99939 -0.00284542 7.5561e-19)
(0.999331 -0.0030191 -1.07612e-19)
(0.999284 -0.00319582 -1.18047e-18)
(0.999271 -0.00339733 9.76257e-19)
(0.999323 -0.00366204 -6.30172e-19)
(0.99947 -0.00402171 1.15845e-18)
(0.999698 -0.00450419 2.87602e-19)
(1.00007 -0.00509916 1.1673e-18)
(1.00033 -0.00586171 1.43853e-18)
(1.00044 -0.0069893 2.13086e-19)
(1.00182 -0.00967114 3.53395e-19)
(0.999963 0.000210246 -6.43426e-21)
(0.999971 0.000251907 5.23161e-21)
(0.99997 0.000289392 2.48815e-20)
(0.999966 0.0003164 3.72983e-20)
(0.999962 0.000337049 -1.0453e-19)
(0.999956 0.000353511 5.70499e-20)
(0.99995 0.000366276 -9.69445e-20)
(0.999943 0.000375008 1.44225e-19)
(0.999934 0.000379855 -6.43479e-20)
(0.999925 0.000380444 1.08242e-20)
(0.999915 0.000377432 1.12991e-19)
(0.999904 0.00037066 -2.45887e-19)
(0.999893 0.00036079 1.60478e-19)
(0.99988 0.000347902 2.16227e-20)
(0.999867 0.000332578 3.35563e-20)
(0.999853 0.000315251 -1.35446e-19)
(0.999838 0.000296035 6.41412e-20)
(0.999823 0.000275128 -7.66599e-20)
(0.999806 0.000252168 1.46211e-19)
(0.999789 0.000227233 -1.89648e-20)
(0.999771 0.000199426 -1.73946e-19)
(0.999752 0.000168728 6.70846e-20)
(0.999733 0.000134264 -3.77664e-21)
(0.999712 9.57007e-05 -2.33285e-19)
(0.999692 5.24397e-05 1.70074e-19)
(0.999671 3.99628e-06 1.24575e-19)
(0.999649 -4.98144e-05 8.25955e-20)
(0.999628 -0.000109655 -1.04843e-19)
(0.999607 -0.000175753 -1.13048e-19)
(0.999586 -0.000248692 5.18383e-20)
(0.999566 -0.000328373 7.53337e-20)
(0.999547 -0.000415614 -9.12751e-20)
(0.99953 -0.000513313 -1.34232e-19)
(0.999516 -0.000622933 2.76616e-19)
(0.999505 -0.000742664 2.91578e-20)
(0.999498 -0.000869284 -4.12708e-19)
(0.999493 -0.00100126 3.54503e-20)
(0.999492 -0.00113896 2.76094e-19)
(0.999496 -0.00128278 2.56316e-20)
(0.999504 -0.00143233 3.65578e-19)
(0.999518 -0.00158582 -5.00982e-19)
(0.999538 -0.00173999 -3.10403e-20)
(0.999562 -0.00189125 -3.22854e-19)
(0.999589 -0.00203645 1.22072e-19)
(0.999616 -0.00217289 5.11417e-19)
(0.99964 -0.00229979 1.53225e-18)
(0.999655 -0.00241726 2.11563e-19)
(0.999658 -0.00252765 -9.33467e-19)
(0.999649 -0.00263561 6.78421e-19)
(0.999629 -0.002747 2.32365e-18)
(0.99961 -0.00287584 -1.79703e-18)
(0.999595 -0.00302728 2.05666e-18)
(0.999605 -0.00322721 -1.21243e-18)
(0.999673 -0.00351582 -6.04363e-19)
(0.999833 -0.00391979 -2.39214e-18)
(1.00007 -0.00446381 -1.18384e-19)
(1.00045 -0.0051267 -6.84585e-19)
(1.00072 -0.0059643 -6.93096e-19)
(1.00081 -0.00717906 4.78612e-19)
(1.00211 -0.0102649 6.46616e-20)
(0.99984 0.000232914 8.94299e-21)
(0.999849 0.000280602 2.9592e-21)
(0.999848 0.000322368 -2.90214e-20)
(0.999845 0.000352418 2.6189e-20)
(0.99984 0.000375137 -1.09962e-20)
(0.999835 0.000392899 1.86471e-20)
(0.999829 0.000406351 6.0694e-21)
(0.999822 0.000415285 -8.40638e-20)
(0.999814 0.000419848 3.47648e-20)
(0.999805 0.000419692 -2.25047e-20)
(0.999795 0.000415459 1.30792e-20)
(0.999785 0.000407058 4.8381e-20)
(0.999774 0.000395147 -8.71262e-21)
(0.999761 0.000379873 2.70723e-20)
(0.999749 0.000361816 -1.09923e-19)
(0.999735 0.000341483 4.08125e-20)
(0.99972 0.000318958 1.72229e-20)
(0.999705 0.000294487 -4.52451e-20)
(0.999688 0.000267682 8.66369e-20)
(0.999671 0.000238613 2.73918e-20)
(0.999652 0.000206353 -3.07235e-21)
(0.999633 0.000170874 -2.81319e-20)
(0.999612 0.000131244 1.09351e-19)
(0.999591 8.71326e-05 -2.92609e-19)
(0.999568 3.79004e-05 1.48358e-19)
(0.999545 -1.69788e-05 6.11739e-20)
(0.999521 -7.76752e-05 -1.00189e-19)
(0.999496 -0.000144947 1.73565e-19)
(0.999471 -0.000219005 -8.28455e-20)
(0.999445 -0.000300589 -4.23888e-20)
(0.999419 -0.000389526 -8.12028e-20)
(0.999393 -0.000486788 -3.21368e-20)
(0.999368 -0.000595229 8.9206e-20)
(0.999346 -0.000716576 -2.67205e-19)
(0.999325 -0.000849168 5.02409e-19)
(0.999307 -0.00098944 -3.43246e-20)
(0.999291 -0.00113602 2.57847e-19)
(0.999278 -0.00128914 -6.57695e-19)
(0.999269 -0.00144908 -2.06102e-19)
(0.999266 -0.00161541 4.67386e-21)
(0.99927 -0.00178584 -1.56652e-19)
(0.999283 -0.00195608 -2.366e-20)
(0.999305 -0.00212127 -5.61943e-19)
(0.999335 -0.0022767 1.97987e-19)
(0.999371 -0.00241802 2.67958e-19)
(0.999412 -0.00254304 -1.42349e-18)
(0.999452 -0.00265137 1.79831e-18)
(0.999489 -0.00274638 2.54955e-19)
(0.999521 -0.00283558 8.99321e-20)
(0.999547 -0.00292987 -1.58314e-18)
(0.999579 -0.00304926 5.24857e-19)
(0.999614 -0.00320469 -1.06803e-18)
(0.999675 -0.003425 2.01231e-18)
(0.999793 -0.00375202 4.01368e-19)
(1 -0.0042091 -1.54589e-18)
(1.00029 -0.00481909 5.49898e-19)
(1.0007 -0.00555279 -1.47718e-18)
(1.00103 -0.00645572 -3.0194e-19)
(1.00118 -0.00772934 -1.83878e-18)
(1.00248 -0.0110594 -5.04438e-19)
(0.999698 0.000253033 -1.97887e-21)
(0.999707 0.000306895 -7.3505e-21)
(0.999706 0.000353387 -6.05332e-21)
(0.999703 0.000386633 5.52868e-20)
(0.9997 0.000411487 -2.90588e-20)
(0.999695 0.000430611 -3.30755e-20)
(0.999689 0.000444888 -1.17774e-20)
(0.999682 0.000454245 -4.59719e-20)
(0.999675 0.00045882 2.73755e-20)
(0.999667 0.000458307 3.78319e-21)
(0.999658 0.000453332 1.30333e-21)
(0.999648 0.000443875 1.0127e-19)
(0.999637 0.00043058 -6.87189e-20)
(0.999626 0.000413666 -8.09991e-21)
(0.999613 0.000393716 7.23005e-20)
(0.9996 0.000371281 -3.83298e-20)
(0.999586 0.000346437 -1.41475e-20)
(0.99957 0.000319452 2.2073e-20)
(0.999554 0.000289941 6.84132e-20)
(0.999536 0.000257936 3.61689e-20)
(0.999517 0.000222507 1.26151e-20)
(0.999496 0.000183609 -8.61218e-20)
(0.999474 0.000140247 4.21301e-20)
(0.999451 9.21084e-05 7.87395e-20)
(0.999427 3.8503e-05 -1.59969e-19)
(0.9994 -2.11495e-05 4.99535e-20)
(0.999373 -8.70043e-05 -1.93899e-19)
(0.999343 -0.000159939 1.54399e-19)
(0.999313 -0.000240163 1.32296e-19)
(0.99928 -0.000328623 -2.01293e-19)
(0.999247 -0.000425153 -9.42699e-20)
(0.999212 -0.000530786 1.2349e-19)
(0.999176 -0.00064862 4.10869e-20)
(0.999142 -0.00078047 -1.12399e-19)
(0.999107 -0.000924855 -1.41492e-19)
(0.999073 -0.00107828 -1.69453e-19)
(0.999039 -0.00123962 1.05179e-19)
(0.999006 -0.00140934 2.52715e-19)
(0.998976 -0.00158789 8.99478e-20)
(0.998951 -0.00177521 -8.06251e-20)
(0.998933 -0.00196905 8.94182e-19)
(0.998925 -0.00216473 -9.73167e-20)
(0.998927 -0.00235691 9.32458e-19)
(0.99894 -0.00254011 -1.67558e-18)
(0.998966 -0.00270894 2.79343e-19)
(0.999003 -0.00286021 4.3777e-20)
(0.999049 -0.00299288 -5.76058e-20)
(0.999103 -0.00311046 -1.25184e-18)
(0.999164 -0.00322164 -1.93187e-18)
(0.999231 -0.00333974 1.68348e-18)
(0.999314 -0.00348768 2.13379e-18)
(0.999412 -0.00367889 1.08962e-18)
(0.999543 -0.00394256 -1.97116e-18)
(0.999737 -0.00432012 1.00219e-18)
(1.00002 -0.00483089 2.30117e-18)
(1.0004 -0.00549448 9.26133e-19)
(1.00088 -0.00627374 1.43926e-18)
(1.00131 -0.00719384 6.51833e-19)
(1.00157 -0.00844888 1.71797e-18)
(1.00303 -0.0118337 -1.32773e-18)
(0.999543 0.000269052 2.54692e-21)
(0.999552 0.000328186 -7.22662e-21)
(0.999551 0.000379186 2.44119e-20)
(0.999548 0.000415561 6.03285e-21)
(0.999545 0.00044256 -3.00687e-20)
(0.99954 0.000463272 -3.2811e-20)
(0.999535 0.000478733 7.3682e-20)
(0.999529 0.000488976 -7.63546e-20)
(0.999523 0.000494094 -1.77955e-20)
(0.999515 0.000493794 4.26455e-20)
(0.999507 0.000488713 3.75799e-20)
(0.999498 0.000478855 1.08903e-19)
(0.999488 0.000464912 -5.87889e-20)
(0.999478 0.000447125 -9.62714e-20)
(0.999466 0.00042613 2.03257e-20)
(0.999453 0.000402511 -7.20492e-20)
(0.999439 0.000376339 5.22067e-20)
(0.999424 0.00034792 -8.40367e-20)
(0.999408 0.00031686 1.34685e-20)
(0.99939 0.000283172 -2.52296e-20)
(0.999371 0.000245908 -1.51816e-20)
(0.99935 0.000205037 -6.54492e-20)
(0.999327 0.000159473 6.33031e-21)
(0.999303 0.000108949 1.34413e-19)
(0.999276 5.27172e-05 -4.43793e-20)
(0.999247 -9.84902e-06 1.37214e-20)
(0.999217 -7.88917e-05 3.86702e-20)
(0.999184 -0.000155402 -4.99928e-20)
(0.999148 -0.000239595 -1.00473e-20)
(0.99911 -0.000332624 6.7916e-20)
(0.999069 -0.000434353 7.40562e-20)
(0.999026 -0.000546018 -5.48431e-20)
(0.99898 -0.000670703 -1.72033e-19)
(0.998934 -0.00081049 -2.41951e-19)
(0.998885 -0.000964216 3.72567e-19)
(0.998836 -0.00112833 1.00609e-19)
(0.998784 -0.00130224 6.37445e-20)
(0.998731 -0.00148684 3.25596e-19)
(0.998678 -0.00168296 -3.00934e-19)
(0.998629 -0.00189118 1.88763e-19)
(0.998586 -0.00210977 4.68735e-21)
(0.99855 -0.00233423 1.33131e-20)
(0.998526 -0.00255938 -3.44916e-19)
(0.998516 -0.00277972 7.89292e-19)
(0.998521 -0.00298953 -1.04197e-18)
(0.998544 -0.00318512 6.20385e-19)
(0.998584 -0.00336491 -1.72578e-18)
(0.998644 -0.00353199 4.38677e-19)
(0.998723 -0.00369491 1.03122e-18)
(0.998825 -0.00386725 -1.72555e-18)
(0.99896 -0.00407195 -3.57963e-19)
(0.999124 -0.0043219 -4.59736e-20)
(0.999336 -0.0046436 -3.96377e-19)
(0.999622 -0.00507564 -1.09803e-18)
(1.00001 -0.00563177 6.88101e-20)
(1.00049 -0.00632646 9.2972e-19)
(1.00108 -0.00711509 -8.72694e-19)
(1.00161 -0.00799837 -2.11578e-19)
(1.00201 -0.00916247 -2.44902e-19)
(1.00374 -0.0124653 9.6717e-19)
(0.99938 0.000282121 4.71531e-21)
(0.999387 0.000346621 -3.76738e-21)
(0.999386 0.000401474 3.26468e-21)
(0.999384 0.000440529 1.98113e-20)
(0.999381 0.000469286 2.72791e-20)
(0.999377 0.00049125 -1.00865e-19)
(0.999372 0.000507745 6.9211e-20)
(0.999367 0.000518839 1.3672e-20)
(0.999362 0.000524621 -3.94605e-21)
(0.999355 0.000524786 -2.68064e-20)
(0.999348 0.000519978 7.82118e-20)
(0.99934 0.000510225 -2.44022e-20)
(0.999331 0.00049622 -3.2186e-20)
(0.999322 0.000478243 -9.15785e-20)
(0.999311 0.000456964 1.75678e-19)
(0.999299 0.000432972 -3.51881e-20)
(0.999286 0.000406356 -2.82854e-20)
(0.999272 0.00037742 -8.0014e-20)
(0.999257 0.000345823 8.52464e-20)
(0.999239 0.000311509 4.53717e-20)
(0.99922 0.000273564 -2.01064e-20)
(0.9992 0.000231947 3.34418e-20)
(0.999177 0.000185515 -1.38273e-19)
(0.999152 0.000134022 9.4724e-21)
(0.999124 7.67032e-05 7.24652e-20)
(0.999095 1.28633e-05 -1.34085e-20)
(0.999062 -5.75997e-05 -2.10102e-19)
(0.999027 -0.000135786 1.91578e-20)
(0.998988 -0.000221898 1.79385e-19)
(0.998946 -0.000317278 -4.62622e-20)
(0.9989 -0.00042187 -8.95174e-20)
(0.998851 -0.000536964 4.98002e-20)
(0.998799 -0.00066591 1.49715e-19)
(0.998744 -0.000810802 3.51289e-19)
(0.998686 -0.00097072 -5.47722e-20)
(0.998624 -0.00114236 7.15498e-20)
(0.998558 -0.00132546 -5.50056e-19)
(0.99849 -0.00152158 -1.6241e-19)
(0.99842 -0.00173205 1.03349e-19)
(0.998351 -0.0019582 -4.28723e-19)
(0.998286 -0.00219912 -9.57591e-20)
(0.998228 -0.00245092 2.05011e-19)
(0.998181 -0.00270904 1.66172e-19)
(0.998149 -0.00296852 4.67943e-19)
(0.998134 -0.00322394 1.54961e-18)
(0.998141 -0.00347156 -1.22357e-18)
(0.998173 -0.00370944 1.93915e-18)
(0.998234 -0.00394006 1.43979e-18)
(0.998329 -0.00417089 -6.19359e-21)
(0.998462 -0.00441423 1.77094e-18)
(0.998646 -0.00469091 -2.292e-18)
(0.998877 -0.0050108 -2.61192e-18)
(0.999172 -0.00539548 1.92462e-18)
(0.999557 -0.00587849 1.55106e-18)
(1.00005 -0.00646693 -6.1419e-19)
(1.00065 -0.00716895 -3.14672e-18)
(1.00135 -0.00793396 6.75449e-19)
(1.00199 -0.00874018 -6.07722e-19)
(1.00251 -0.00976935 -8.0988e-19)
(1.00456 -0.0129194 6.84951e-19)
(0.999215 0.000293222 -5.03472e-21)
(0.99922 0.000360896 5.2177e-21)
(0.999218 0.000418911 3.36248e-20)
(0.999216 0.000459996 -4.15609e-20)
(0.999214 0.000490008 7.15253e-20)
(0.99921 0.000512977 -9.95828e-20)
(0.999207 0.000530426 2.67295e-20)
(0.999202 0.000542456 -1.22039e-21)
(0.999198 0.000549069 5.34555e-20)
(0.999192 0.000549952 -2.6817e-20)
(0.999186 0.00054572 7.49586e-21)
(0.999179 0.000536439 7.35587e-21)
(0.999172 0.000522803 -1.09946e-19)
(0.999163 0.000505132 3.16826e-20)
(0.999154 0.000484103 6.97283e-20)
(0.999144 0.000460363 1.92396e-21)
(0.999132 0.000433949 -1.0675e-19)
(0.999119 0.000405225 4.18707e-20)
(0.999104 0.000373838 1.87317e-19)
(0.999088 0.000339715 -1.1826e-19)
(0.99907 0.000301927 -8.59843e-20)
(0.99905 0.00026047 7.07108e-20)
(0.999028 0.000214113 4.32016e-20)
(0.999004 0.000162658 4.66734e-20)
(0.998977 0.000105328 -8.8219e-20)
(0.998947 4.1367e-05 -1.84226e-19)
(0.998914 -2.92793e-05 1.36701e-19)
(0.998879 -0.000107792 1.89357e-19)
(0.998839 -0.000194361 4.89873e-20)
(0.998796 -0.000290459 -9.65369e-20)
(0.998748 -0.000396114 4.40141e-20)
(0.998697 -0.000512757 7.03987e-20)
(0.998641 -0.000643749 -1.23701e-19)
(0.998582 -0.00079135 -2.20563e-20)
(0.998519 -0.000954908 -2.19101e-19)
(0.998451 -0.00113115 -6.23441e-20)
(0.998378 -0.00132025 -5.31774e-20)
(0.998301 -0.00152442 1.55543e-19)
(0.998222 -0.00174553 -2.11938e-19)
(0.998142 -0.00198566 6.48701e-20)
(0.998065 -0.00224487 1.01781e-19)
(0.997993 -0.00252014 2.59987e-20)
(0.997932 -0.00280777 -6.82993e-19)
(0.997885 -0.00310372 -9.52792e-19)
(0.997857 -0.00340329 -8.55795e-19)
(0.997854 -0.00370307 1.67458e-18)
(0.997883 -0.00400098 1.22329e-20)
(0.997949 -0.00429876 -6.75533e-19)
(0.99806 -0.00460238 3.44583e-19)
(0.998224 -0.00492185 -2.08628e-18)
(0.998455 -0.00527456 9.75975e-19)
(0.99875 -0.0056658 2.57252e-18)
(0.999127 -0.00611083 -1.60768e-19)
(0.999607 -0.00663679 -1.99412e-18)
(1.00021 -0.00724385 8.87801e-19)
(1.00092 -0.00793371 7.71428e-19)