/*--------------------------------*- C++ -*----------------------------------*\
  =========                 |
  \\      /  F ield         | OpenFOAM: The Open Source CFD Toolbox
   \\    /   O peration     | Website:  https://openfoam.org
    \\  /    A nd           | Version:  6.0
     \\/     M anipulation  |
\*---------------------------------------------------------------------------*/
FoamFile
{
    version     2.0;
    format      ascii;
    class       volVectorField;
    location    "3.29";
    object      U;
}
// * * * * * * * * * * * * * * * * * * * * * * * * * * * * * * * * * * * * * //

dimensions      [0 1 -1 0 0 0 0];

internalField   nonuniform List<vector> 
13500
(
(1 2.4285e-06 -4.2501e-18)
(1 -3.0459e-06 2.8766e-18)
(1 -5.9376e-06 -1.237e-17)
(1 -1.017e-05 -8.5597e-18)
(1 -9.2342e-06 1.6087e-17)
(1 -9.2543e-06 2.9965e-17)
(1 -8.7047e-07 2.5631e-17)
(0.99998 1.4543e-05 -4.1405e-18)
(0.99992 3.7196e-05 1.5169e-17)
(0.9998 7.528e-05 3.2391e-18)
(0.99571 0.0007567 2.8517e-17)
(1.019 0.010845 7.7076e-18)
(1 7.5515e-06 2.6331e-18)
(1 -8.1816e-06 -8.7361e-18)
(1 -1.6012e-05 5.9071e-18)
(1 -2.7792e-05 -3.3764e-19)
(1 -2.4164e-05 -4.2901e-19)
(1 -2.4329e-05 -3.6031e-17)
(1 2.7372e-06 -4.4269e-17)
(0.99993 4.6546e-05 -2.3691e-17)
(0.99975 0.00012403 -1.5139e-17)
(0.99982 0.00018665 -1.6018e-18)
(0.98617 0.0021914 -1.3505e-17)
(1.0534 0.030659 -4.6668e-18)
(1 1.264e-05 -3.4009e-18)
(1 -1.3455e-05 1.7357e-17)
(1 -2.6178e-05 3.0725e-18)
(1 -4.5915e-05 9.8691e-18)
(1 -3.9158e-05 -3.7095e-18)
(1 -4.0272e-05 2.8862e-17)
(1 6.7755e-06 -6.2313e-18)
(0.9999 7.7408e-05 5.3815e-18)
(0.99955 0.00021917 -1.8366e-17)
(1.0003 0.0003136 2.4335e-17)
(0.97597 0.0032754 -7.0607e-18)
(1.0819 0.045217 1.636e-18)
(1 1.7661e-05 8.8907e-18)
(1 -1.8971e-05 -1.6828e-17)
(1 -3.6731e-05 -1.4565e-17)
(1 -6.4746e-05 -6.9246e-19)
(1 -5.472e-05 5.7264e-18)
(1.0001 -5.7143e-05 -8.0093e-19)
(1 1.0552e-05 6.1397e-17)
(0.99987 0.00010688 9.6957e-18)
(0.99932 0.00032149 2.1717e-17)
(1.0013 0.00046032 -8.8145e-18)
(0.9655 0.004035 3.4381e-17)
(1.1031 0.05579 -7.4466e-18)
(1 2.2677e-05 -6.2471e-18)
(1 -2.4512e-05 1.4544e-17)
(1 -4.7358e-05 1.2398e-17)
(1 -8.3653e-05 1.2631e-17)
(1 -7.0386e-05 2.8078e-18)
(1.0001 -7.4129e-05 2.1214e-17)
(1 1.4433e-05 -2.7417e-17)
(0.99985 0.00013531 1.9694e-18)
(0.99903 0.00042987 -1.3316e-17)
(1.0026 0.00062885 -2.1032e-18)
(0.95516 0.0045204 -8.9177e-18)
(1.1171 0.06351 2.0651e-18)
(0.99999 2.7686e-05 6.3221e-18)
(1 -3.0078e-05 -6.0292e-18)
(1 -5.8056e-05 3.7864e-18)
(1 -0.00010264 -2.5022e-17)
(1.0001 -8.6155e-05 -8.2252e-20)
(1.0001 -9.1248e-05 -4.1997e-17)
(1 1.842e-05 1.052e-18)
(0.99984 0.00016252 -1.5808e-17)
(0.99869 0.00054291 5.0707e-18)
(1.0044 0.00082577 -2.1191e-17)
(0.9453 0.0047738 -2.1466e-17)
(1.1245 0.068989 1.9955e-18)
(0.99999 3.2689e-05 -1.0465e-18)
(1 -3.5675e-05 -7.2111e-18)
(1 -6.8825e-05 -3.0773e-18)
(1.0001 -0.00012172 1.8886e-17)
(1.0001 -0.00010202 -2.6006e-17)
(1.0001 -0.00010854 1.6069e-17)
(1 2.2556e-05 1.8338e-17)
(0.99984 0.0001884 5.5617e-18)
(0.99829 0.00065931 1.1336e-17)
(1.0064 0.0010574 1.1408e-17)
(0.93621 0.0048334 9.2473e-18)
(1.1263 0.072652 3.2023e-18)
(0.99999 3.7685e-05 -2.16e-18)
(1 -4.1303e-05 -1.4186e-18)
(1 -7.9667e-05 -2.651e-17)
(1.0001 -0.0001409 -9.0184e-18)
(1.0001 -0.00011799 7.279e-18)
(1.0001 -0.00012601 2.6335e-17)
(1 2.6859e-05 1.1671e-17)
(0.99986 0.00021288 4.9653e-18)
(0.99781 0.00077771 -7.4091e-18)
(1.0088 0.0013276 1.5979e-17)
(0.92812 0.0047354 7.4677e-18)
(1.1234 0.074862 -1.0182e-17)
(0.99999 4.2674e-05 -6.7055e-18)
(1 -4.6966e-05 6.0987e-18)
(1 -9.0586e-05 4.4573e-17)
(1.0001 -0.00016019 -1.0817e-17)
(1.0001 -0.00013406 2.7259e-17)
(1.0001 -0.00014369 -5.1994e-17)
(1 3.133e-05 -3.888e-17)
(0.99989 0.0002359 9.6485e-18)
(0.99725 0.00089678 -5.5646e-18)
(1.0114 0.0016376 -8.8131e-18)
(0.92119 0.0045146 -1.3799e-17)
(1.1168 0.075922 1.3319e-17)
(0.99999 4.7656e-05 4.4178e-18)
(1 -5.2663e-05 2.2956e-18)
(1 -0.00010158 -3.7756e-17)
(1.0001 -0.00017958 1.5395e-17)
(1.0001 -0.00015025 -1.1887e-17)
(1.0002 -0.00016159 2.2176e-17)
(1 3.5966e-05 1.3817e-17)
(0.99994 0.00025744 2.4394e-18)
(0.99661 0.0010152 5.2558e-19)
(1.0141 0.0019871 1.396e-18)
(0.91551 0.0042034 4.3896e-18)
(1.1075 0.076087 -6.9836e-19)
(0.99998 5.2629e-05 -2.4256e-18)
(1 -5.8397e-05 -7.5289e-18)
(1 -0.00011267 9.2552e-18)
(1.0001 -0.00019909 -2.7164e-18)
(1.0001 -0.00016656 1.8349e-18)
(1.0002 -0.00017972 -2.4304e-17)
(1 4.0767e-05 -3.1822e-17)
(1 0.00027751 -3.098e-17)
(0.99588 0.0011318 1.5554e-17)
(1.017 0.0023742 1.8132e-18)
(0.91113 0.0038312 -1.1135e-17)
(1.0963 0.075563 -5.738e-18)
(0.99998 5.7593e-05 3.348e-18)
(1 -6.4167e-05 2.8437e-18)
(1 -0.00012384 4.4604e-18)
(1.0001 -0.00021871 -2.1649e-18)
(1.0001 -0.000183 -5.5003e-18)
(1.0002 -0.00019809 9.1921e-18)
(1 4.5729e-05 1.8421e-17)
(1.0001 0.00029613 1.9139e-17)
(0.99507 0.0012453 9.9934e-18)
(1.0199 0.0027956 -2.2899e-17)
(0.90806 0.0034244 1.168e-19)
(1.0839 0.07452 -6.6408e-18)
(0.99998 6.2549e-05 -3.3474e-18)
(0.99999 -6.9976e-05 5.5924e-18)
(1 -0.00013509 8.0871e-18)
(1.0001 -0.00023845 5.6527e-18)
(1.0001 -0.00019958 -5.1016e-18)
(1.0002 -0.00021673 4.519e-18)
(1 5.0845e-05 4.2005e-18)
(1.0002 0.00031336 -1.7091e-18)
(0.99418 0.0013549 -1.6152e-17)
(1.0228 0.0032472 2.1235e-17)
(0.90626 0.0030061 1.0392e-19)
(1.0709 0.073097 1.4228e-18)
(0.99997 6.7494e-05 5.0904e-18)
(0.99999 -7.5824e-05 -4.3655e-18)
(1 -0.00014645 7.0802e-19)
(1.0001 -0.00025832 -4.7156e-18)
(1.0002 -0.0002163 1.1586e-17)
(1.0002 -0.00023564 5.5139e-18)
(1 5.6106e-05 1.6901e-17)
(1.0004 0.00032929 -6.3479e-18)
(0.9932 0.0014594 -1.9736e-19)
(1.0257 0.0037243 5.2145e-18)
(0.90566 0.0025963 1.69e-17)
(1.0577 0.071408 9.0754e-19)
(0.99997 7.243e-05 1.2278e-18)
(0.99999 -8.1713e-05 9.6886e-18)
(1 -0.00015789 1.3523e-17)
(1.0001 -0.00027832 -4.7017e-18)
(1.0002 -0.00023318 8.3895e-18)
(1.0002 -0.00025484 -2.574e-18)
(1 6.1496e-05 -2.9601e-17)
(1.0006 0.00034403 2.0094e-17)
(0.99215 0.0015582 -1.8213e-17)
(1.0285 0.0042218 -3.0078e-17)
(0.90617 0.0022117 -3.7098e-18)
(1.0449 0.069544 8.4065e-19)
(0.99997 7.7355e-05 -3.1322e-18)
(0.99999 -8.7645e-05 -1.0304e-17)
(1 -0.00016944 -3.2459e-17)
(1.0001 -0.00029846 7.9213e-18)
(1.0002 -0.00025023 -1.2731e-17)
(1.0003 -0.00027435 8.2533e-18)
(1 6.6998e-05 -2.7695e-18)
(1.0008 0.0003577 -1.2096e-17)
(0.99103 0.0016505 3.9997e-18)
(1.0312 0.0047344 1.7961e-17)
(0.9077 0.0018658 -7.7866e-18)
(1.0327 0.067579 1.1668e-17)
(0.99996 8.227e-05 3.2958e-19)
(0.99998 -9.362e-05 7.7064e-18)
(1 -0.0001811 2.241e-17)
(1.0001 -0.00031873 -1.7841e-18)
(1.0002 -0.00026744 -1.2648e-17)
(1.0003 -0.00029418 -1.538e-17)
(1 7.2586e-05 1.0579e-17)
(1.001 0.00037045 6.9376e-18)
(0.98985 0.0017355 2.3113e-17)
(1.0337 0.0052568 -2.5146e-18)
(0.91011 0.0015692 1.935e-18)
(1.0213 0.065572 -4.6552e-18)
(0.99996 8.7174e-05 -1.8491e-18)
(0.99998 -9.9641e-05 -9.3379e-18)
(1 -0.00019286 -1.0112e-17)
(1.0001 -0.00033914 5.9619e-18)
(1.0002 -0.00028483 -7.1037e-18)
(1.0003 -0.00031435 -1.2337e-17)
(1 7.8233e-05 1.0284e-17)
(1.0013 0.00038247 -4.7063e-18)
(0.98861 0.0018128 -2.8601e-17)
(1.036 0.0057841 -1.4091e-17)
(0.9133 0.0013294 8.3992e-18)
(1.0109 0.063568 -5.0477e-18)
(0.99995 9.2066e-05 -2.6477e-18)
(0.99998 -0.00010571 -3.5295e-18)
(1 -0.00020473 -7.4941e-19)
(1.0001 -0.0003597 -2.6108e-17)
(1.0002 -0.00030241 5.9601e-18)
(1.0003 -0.00033487 5.3719e-18)
(1 8.3901e-05 -1.9542e-17)
(1.0016 0.00039395 -1.6069e-17)
(0.98732 0.0018818 4.1843e-18)
(1.0381 0.0063115 -1.0577e-18)
(0.91715 0.0011517 -9.6988e-18)
(1.0017 0.061603 9.5477e-19)
(0.99994 9.6946e-05 3.4439e-18)
(0.99997 -0.00011182 1.618e-17)
(1 -0.00021672 1.9298e-17)
(1.0002 -0.00038041 2.4584e-18)
(1.0002 -0.00032018 1.6477e-17)
(1.0004 -0.00035576 9.4144e-18)
(0.99999 8.955e-05 2.8208e-18)
(1.002 0.0004051 1.7588e-17)
(0.98599 0.0019421 2.0782e-17)
(1.04 0.0068345 1.6826e-17)
(0.92154 0.0010386 7.2401e-18)
(0.99359 0.059704 1.1326e-18)
(0.99994 0.00010181 -1.6415e-18)
(0.99997 -0.00011799 -3.8821e-18)
(1 -0.00022883 -2.056e-17)
(1.0002 -0.00040128 -2.3284e-18)
(1.0002 -0.00033816 -1.2488e-17)
(1.0004 -0.00037702 -5.094e-18)
(0.99997 9.5132e-05 -1.8102e-18)
(1.0023 0.00041615 -1.5905e-17)
(0.98463 0.0019932 -1.987e-17)
(1.0416 0.0073493 8.6226e-18)
(0.92636 0.00099107 4.9795e-19)
(0.98669 0.057888 6.4993e-19)
(0.99993 0.00010667 4.3513e-18)
(0.99996 -0.00012421 -5.072e-18)
(1 -0.00024106 -1.9284e-17)
(1.0002 -0.00042232 4.426e-17)
(1.0002 -0.00035636 1.8115e-17)
(1.0004 -0.00039868 -1.2465e-17)
(0.99993 0.00010059 2.4338e-17)
(1.0028 0.00042735 2.1496e-17)
(0.98325 0.0020348 3.224e-17)
(1.043 0.0078524 -3.1601e-17)
(0.9315 0.0010081 -1.3299e-17)
(0.98096 0.056171 1.7126e-19)
(0.99993 0.00011151 -3.185e-18)
(0.99996 -0.00013048 -1.0179e-18)
(1 -0.00025341 3.2922e-17)
(1.0002 -0.00044351 -3.3458e-17)
(1.0002 -0.00037479 -1.7437e-18)
(1.0005 -0.00042073 4.1302e-17)
(0.99989 0.00010586 7.5423e-18)
(1.0032 0.00043898 -3.3201e-18)
(0.98187 0.0020666 -1.9994e-17)
(1.0441 0.0083406 3.7239e-17)
(0.93687 0.0010874 -5.6354e-18)
(0.97636 0.054558 -2.7238e-19)
(0.99992 0.00011634 -1.6237e-18)
(0.99995 -0.0001368 -2.0282e-18)
(1 -0.0002659 1.7146e-18)
(1.0002 -0.00046488 3.4809e-17)
(1.0003 -0.00039344 -9.8321e-18)
(1.0005 -0.0004432 -3.0528e-17)
(0.99984 0.00011088 -1.923e-17)
(1.0037 0.00045129 -3.5752e-18)
(0.98048 0.0020883 6.3217e-18)
(1.0449 0.0088113 -3.1412e-17)
(0.94236 0.0012254 9.438e-18)
(0.97281 0.053056 2.9511e-18)
(0.99991 0.00012116 2.6833e-18)
(0.99995 -0.00014318 1.4116e-17)
(1 -0.00027853 -1.2644e-17)
(1.0002 -0.00048643 -3.6443e-18)
(1.0003 -0.00041235 -1.887e-17)
(1.0005 -0.00046608 3.3213e-17)
(0.99978 0.00011556 -1.6881e-17)
(1.0043 0.00046459 1.4824e-17)
(0.9791 0.0020997 -1.9483e-18)
(1.0454 0.0092624 2.9449e-17)
(0.94792 0.0014179 -9.2128e-18)
(0.97025 0.051663 -4.9242e-18)
(0.99991 0.00012596 -5.1465e-19)
(0.99994 -0.00014962 -8.1187e-18)
(1 -0.00029129 -1.7705e-17)
(1.0002 -0.00050815 -9.987e-18)
(1.0003 -0.00043151 1.8303e-17)
(1.0006 -0.0004894 -4.2353e-17)
(0.99971 0.00011983 -2.6046e-18)
(1.0048 0.00047917 -2.0027e-17)
(0.97775 0.0021005 3.1462e-18)
(1.0457 0.009692 -8.4938e-18)
(0.95345 0.00166 9.806e-18)
(0.96858 0.05038 2.0884e-18)
(0.9999 0.00013075 2.6962e-18)
(0.99994 -0.00015612 -8.6969e-18)
(1 -0.0003042 -1.7495e-18)
(1.0002 -0.00053006 2.427e-18)
(1.0003 -0.00045094 5.7929e-18)
(1.0006 -0.00051316 1.2238e-17)
(0.99963 0.00012357 4.2705e-17)
(1.0054 0.00049534 2.3936e-18)
(0.97643 0.0020905 5.126e-18)
(1.0458 0.010099 9.3604e-18)
(0.9589 0.0019464 -8.3889e-18)
(0.96771 0.049202 1.6032e-18)
(0.99989 0.00013552 -1.546e-18)
(0.99993 -0.00016269 8.6889e-18)
(1 -0.00031726 2.5168e-17)
(1.0002 -0.00055217 -2.4452e-17)
(1.0003 -0.00047065 -9.0111e-18)
(1.0006 -0.00053736 -2.1538e-18)
(0.99954 0.00012669 -1.4076e-17)
(1.0061 0.00051342 1.8571e-18)
(0.97515 0.0020696 -8.8827e-18)
(1.0455 0.010481 -3.4407e-18)
(0.96421 0.0022714 -2.3837e-19)
(0.96755 0.048125 -1.9593e-18)
(0.99988 0.00014028 -1.6617e-18)
(0.99992 -0.00016931 5.2011e-18)
(1 -0.00033047 -6.0855e-19)
(1.0002 -0.00057447 8.1082e-18)
(1.0003 -0.00049065 -1.6627e-17)
(1.0007 -0.000562 2.4368e-17)
(0.99944 0.00012908 7.0208e-18)
(1.0067 0.00053371 -1.7716e-17)
(0.97392 0.0020377 -1.1387e-17)
(1.0451 0.010839 -1.362e-17)
(0.96934 0.0026293 1.3289e-18)
(0.968 0.047143 -3.5886e-18)
(0.99987 0.00014502 5.7746e-19)
(0.99991 -0.000176 -1.2421e-17)
(1 -0.00034384 1.5586e-17)
(1.0002 -0.00059697 2.2427e-17)
(1.0003 -0.00051095 3.259e-17)
(1.0007 -0.00058709 -1.7896e-17)
(0.99933 0.00013061 -1.7455e-17)
(1.0074 0.00055653 3.595e-18)
(0.97276 0.0019947 1.067e-17)
(1.0444 0.011172 1.0661e-17)
(0.97424 0.0030147 6.1905e-18)
(0.96896 0.046248 3.5667e-18)
(0.99986 0.00014975 1.1067e-18)
(0.99991 -0.00018276 9.8776e-18)
(1 -0.00035737 -3.5809e-17)
(1.0002 -0.00061967 -3.2492e-18)
(1.0003 -0.00053157 -2.7074e-17)
(1.0008 -0.00061263 -1.1274e-17)
(0.9992 0.00013115 2.4576e-20)
(1.0082 0.00058221 -4.1127e-18)
(0.97167 0.0019406 -2.1019e-17)
(1.0434 0.011478 -1.7021e-17)
(0.97889 0.0034219 -8.4563e-18)
(0.97036 0.045434 -1.757e-18)
(0.99985 0.00015446 -7.1728e-19)
(0.9999 -0.00018959 -6.424e-18)
(1 -0.00037107 2.8176e-17)
(1.0002 -0.00064259 -3.1008e-17)
(1.0003 -0.00055252 -2.0368e-18)
(1.0008 -0.00063861 2.4007e-17)
(0.99906 0.00013055 6.9842e-19)
(1.0089 0.00061105 3.9217e-18)
(0.97066 0.0018753 1.84e-17)
(1.0423 0.011759 2.2126e-17)
(0.98326 0.0038457 4.8375e-18)
(0.9721 0.044694 -9.8085e-19)
(0.99984 0.00015915 -1.8674e-18)
(0.99989 -0.00019649 -2.3692e-18)
(1 -0.00038494 -1.2491e-17)
(1.0002 -0.00066573 1.5447e-17)
(1.0003 -0.00057382 2.9756e-17)
(1.0009 -0.00066503 -1.061e-17)
(0.99891 0.00012867 2.1739e-17)
(1.0097 0.00064337 2.9396e-18)
(0.96974 0.001799 -2.0837e-18)
(1.041 0.012014 1.0009e-17)
(0.98733 0.0042811 -5.407e-18)
(0.9741 0.04402 -6.8297e-19)
(0.99983 0.00016383 4.6701e-19)
(0.99988 -0.00020347 -6.2656e-18)
(1 -0.00039899 4.6762e-18)
(1.0002 -0.00068909 -1.5744e-17)
(1.0004 -0.00059547 -3.1475e-17)
(1.0009 -0.00069188 6.6868e-18)
(0.99875 0.00012534 -3.1362e-17)
(1.0105 0.00067945 -6.7214e-18)
(0.96891 0.0017116 6.7597e-18)
(1.0395 0.012243 -3.1417e-17)
(0.99109 0.0047233 3.7016e-18)
(0.9763 0.043405 1.93e-18)
(0.99982 0.00016849 8.2018e-19)
(0.99987 -0.00021052 1.6975e-17)
(0.99999 -0.00041322 7.8301e-18)
(1.0002 -0.00071268 6.4129e-18)
(1.0004 -0.00061749 2.5169e-17)
(1.001 -0.00071915 1.994e-18)
(0.99857 0.0001204 2.1656e-17)
(1.0113 0.0007196 4.8208e-18)
(0.96819 0.0016135 -2.0542e-17)
(1.0379 0.012447 1.0816e-17)
(0.99453 0.0051678 2.5033e-18)
(0.97864 0.042843 2.0004e-18)
(0.99981 0.00017313 -2.864e-18)
(0.99987 -0.00021765 -5.5877e-18)
(0.99999 -0.00042764 -6.8789e-18)
(1.0002 -0.0007365 1.0532e-17)
(1.0004 -0.0006399 1.216e-17)
(1.0011 -0.00074682 -3.9704e-18)
(0.99838 0.00011365 -1.819e-17)
(1.0121 0.00076407 2.195e-17)
(0.96757 0.0015048 3.8052e-18)
(1.0362 0.012626 -3.2677e-18)
(0.99764 0.0056108 1.0355e-17)
(0.98105 0.042326 -1.3901e-18)
(0.9998 0.00017776 5.8851e-18)
(0.99986 -0.00022485 6.692e-18)
(0.99998 -0.00044225 -7.3128e-18)
(1.0002 -0.00076056 -6.5613e-18)
(1.0004 -0.00066272 -1.7449e-17)
(1.0011 -0.00077489 -6.8201e-18)
(0.99817 0.00010492 8.9686e-18)
(1.0129 0.00081314 -3.5208e-17)
(0.96707 0.0013859 9.3116e-18)
(1.0343 0.01278 -3.8628e-18)
(1.0004 0.0060484 -1.0966e-17)
(0.98348 0.041849 4.0362e-18)
(0.99979 0.00018237 -2.5974e-18)
(0.99985 -0.00023214 -1.1758e-17)
(0.99997 -0.00045705 -7.0879e-18)
(1.0002 -0.00078487 -1.2452e-17)
(1.0004 -0.00068597 -5.3279e-18)
(1.0012 -0.00080332 2.0054e-17)
(0.99795 9.3988e-05 -8.8101e-18)
(1.0137 0.00086704 3.9167e-17)
(0.96668 0.001257 8.7787e-18)
(1.0323 0.01291 1.1721e-17)
(1.0029 0.0064774 4.622e-18)
(0.9859 0.041405 -6.5447e-18)
(0.99978 0.00018695 -1.3778e-18)
(0.99984 -0.00023952 8.7444e-18)
(0.99997 -0.00047206 1.4044e-17)
(1.0003 -0.00080943 3.3571e-17)
(1.0004 -0.00070965 7.0622e-18)
(1.0013 -0.0008321 -1.3755e-17)
(0.99772 8.066e-05 4.2516e-18)
(1.0145 0.00092599 -4.2137e-17)
(0.96641 0.0011187 -1.0647e-17)
(1.0303 0.013017 -6.5176e-18)
(1.0051 0.0068946 4.534e-18)
(0.98827 0.04099 6.5799e-18)
(0.99976 0.00019152 1.0545e-18)
(0.99982 -0.00024698 2.0702e-18)
(0.99996 -0.00048728 -1.3793e-17)
(1.0003 -0.00083424 -5.5918e-18)
(1.0004 -0.0007338 8.9677e-18)
(1.0014 -0.00086119 1.6466e-17)
(0.99747 6.4712e-05 1.4784e-17)
(1.0154 0.00099018 4.1708e-18)
(0.96626 0.00097142 1.1911e-17)
(1.0282 0.013101 -3.0202e-18)
(1.0069 0.0072976 -8.094e-18)
(0.99055 0.040597 -1.697e-18)
(0.99975 0.00019607 -4.3182e-20)
(0.99981 -0.00025453 2.3596e-18)
(0.99995 -0.00050272 3.0824e-18)
(1.0003 -0.00085931 -7.2598e-18)
(1.0004 -0.00075842 8.3798e-20)
(1.0015 -0.00089056 -1.4929e-17)
(0.99721 4.5918e-05 -9.9999e-18)
(1.0162 0.0010598 3.0857e-17)
(0.96623 0.0008158 -1.7999e-17)
(1.0261 0.013162 1.1728e-17)
(1.0085 0.0076838 4.2745e-18)
(0.99272 0.040223 -4.7911e-18)
(0.99974 0.0002006 -3.2664e-18)
(0.9998 -0.00026218 -1.1066e-17)
(0.99995 -0.00051837 7.8705e-18)
(1.0003 -0.00088465 -1.9829e-17)
(1.0004 -0.00078355 -2.268e-17)
(1.0016 -0.00092019 -2.0625e-17)
(0.99694 2.4045e-05 -2.038e-17)
(1.017 0.001135 -3.16e-18)
(0.96633 0.0006525 1.5729e-17)
(1.0239 0.013202 -1.0061e-17)
(1.0098 0.0080512 4.2459e-19)
(0.99477 0.039864 4.5121e-18)
(0.99972 0.00020511 6.3046e-18)
(0.99979 -0.00026991 1.1565e-17)
(0.99994 -0.00053425 -1.2693e-17)
(1.0003 -0.00091026 1.628e-17)
(1.0004 -0.0008092 -2.6603e-18)
(1.0017 -0.00095002 1.3519e-17)
(0.99665 -1.1505e-06 2.4497e-17)
(1.0178 0.0012158 -2.3936e-17)
(0.96654 0.00048223 -7.9752e-18)
(1.0218 0.013221 1.0624e-17)
(1.0109 0.0083983 3.6935e-18)
(0.99668 0.039515 -2.1343e-18)
(0.99971 0.00020959 -4.7309e-18)
(0.99978 -0.00027775 -3.4178e-18)
(0.99993 -0.00055037 -2.6545e-18)
(1.0003 -0.00093614 1.8628e-17)
(1.0004 -0.00083541 -5.6949e-18)
(1.0018 -0.00098001 -1.7146e-19)
(0.99636 -2.9913e-05 -4.7934e-18)
(1.0185 0.0013024 1.9173e-17)
(0.96688 0.0003058 -7.5716e-18)
(1.0196 0.01322 -7.2953e-18)
(1.0117 0.0087234 -1.0919e-17)
(0.99843 0.039173 2.4802e-18)
(0.99969 0.00021406 3.216e-18)
(0.99977 -0.00028568 -4.3339e-18)
(0.99992 -0.00056672 6.076e-18)
(1.0003 -0.00096231 -2.8266e-17)
(1.0004 -0.00086218 3.8578e-17)
(1.0019 -0.0010101 5.6018e-18)
(0.99605 -6.2495e-05 1.8912e-17)
(1.0193 0.0013948 -1.1864e-17)
(0.96733 0.00012405 1.0043e-19)
(1.0175 0.013199 5.4254e-18)
(1.0123 0.0090254 -2.1233e-18)
(1 0.038835 -9.332e-19)
(0.99968 0.0002185 -9.1999e-19)
(0.99975 -0.00029372 8.4724e-19)
(0.99991 -0.00058331 1.4806e-17)
(1.0003 -0.00098877 7.7057e-18)
(1.0004 -0.00088956 -1.9287e-17)
(1.002 -0.0010403 -1.0973e-17)
(0.99574 -9.9152e-05 3.3017e-18)
(1.02 0.001493 -5.7677e-18)
(0.9679 -6.2085e-05 1.2668e-17)
(1.0155 0.01316 -3.5615e-18)
(1.0127 0.0093033 1.0221e-17)
(1.0015 0.038498 -3.4048e-18)
(0.99966 0.00022293 -1.6015e-18)
(0.99974 -0.00030185 -8.1671e-18)
(0.9999 -0.00060016 -4.402e-18)
(1.0003 -0.0010155 3.0947e-17)
(1.0004 -0.00091756 -1.7185e-17)
(1.0021 -0.0010704 -9.299e-19)
(0.99542 -0.00014014 -4.9381e-17)
(1.0207 0.001597 5.6695e-18)
(0.96858 -0.00025166 -2.3689e-17)
(1.0135 0.013102 -7.6914e-18)
(1.0129 0.0095565 -1.022e-17)
(1.0028 0.038161 2.0217e-18)
(0.99965 0.00022733 -6.9146e-19)
(0.99972 -0.0003101 5.0599e-18)
(0.99989 -0.00061726 -1.8171e-18)
(1.0003 -0.0010426 -1.8019e-17)
(1.0004 -0.00094621 2.4696e-17)
(1.0023 -0.0011005 -2.2854e-18)
(0.99509 -0.00018571 2.6157e-17)
(1.0213 0.0017066 -3.4854e-18)
(0.96936 -0.00044367 1.1501e-17)
(1.0116 0.013028 9.6197e-18)
(1.013 0.0097845 8.4298e-18)
(1.0039 0.03782 -4.8869e-19)
(0.99963 0.00023171 3.9195e-18)
(0.99971 -0.00031846 -3.0278e-18)
(0.99988 -0.00063463 -6.358e-18)
(1.0003 -0.0010699 1.9669e-17)
(1.0004 -0.00097556 1.8128e-18)
(1.0024 -0.0011305 2.8329e-17)
(0.99475 -0.00023613 4.5119e-18)
(1.0219 0.0018219 1.6652e-17)
(0.97023 -0.00063708 4.3148e-18)
(1.0097 0.012937 -3.1125e-18)
(1.0129 0.0099869 1.0965e-18)
(1.0049 0.037475 4.4241e-19)
(0.99961 0.00023606 1.1178e-18)
(0.99969 -0.00032693 1.2378e-18)
(0.99987 -0.00065227 -5.7659e-18)
(1.0003 -0.0010976 -3.9169e-17)
(1.0004 -0.0010056 5.4894e-18)
(1.0025 -0.0011603 2.4579e-18)
(0.99441 -0.00029165 -1.9564e-17)
(1.0225 0.0019426 2.3426e-19)
(0.9712 -0.00083083 1.2714e-17)
(1.008 0.012831 -2.0011e-18)
(1.0127 0.010164 -5.3385e-18)
(1.0057 0.037124 2.607e-18)
(0.9996 0.0002404 -4.7861e-18)
(0.99968 -0.00033551 5.2471e-18)
(0.99986 -0.00067019 9.5013e-19)
(1.0003 -0.0011256 2.1752e-17)
(1.0004 -0.0010364 -2.504e-17)
(1.0027 -0.0011898 -1.0852e-17)
(0.99407 -0.00035251 2.0009e-17)
(1.023 0.0020685 -1.1279e-17)
(0.97226 -0.0010239 -2.0099e-17)
(1.0064 0.012711 -9.8881e-18)
(1.0125 0.010315 6.7986e-18)
(1.0065 0.036766 8.6854e-19)
(0.99958 0.0002447 -5.0656e-19)
(0.99966 -0.00034422 -5.2804e-18)
(0.99985 -0.00068839 1.0124e-17)
(1.0003 -0.0011539 9.6457e-18)
(1.0003 -0.001068 3.0929e-17)
(1.0028 -0.0012189 4.17e-18)
(0.99372 -0.00041895 1.7772e-17)
(1.0235 0.0021995 2.8596e-17)
(0.9734 -0.0012152 -8.8832e-19)
(1.0048 0.012577 1.7393e-17)
(1.0121 0.010441 -7.195e-19)
(1.0071 0.036399 -2.5362e-18)
(0.99956 0.00024899 4.9094e-18)
(0.99965 -0.00035304 -7.6884e-18)
(0.99984 -0.00070688 -1.5367e-17)
(1.0003 -0.0011825 -2.5627e-18)
(1.0003 -0.0011005 -3.3571e-17)
(1.003 -0.0012476 -1.2407e-17)
(0.99337 -0.0004912 -6.1693e-18)
(1.0239 0.0023351 2.1431e-19)
(0.9746 -0.0014036 2.6157e-17)
(1.0034 0.01243 4.0078e-18)
(1.0117 0.010542 -9.3286e-18)
(1.0076 0.036023 1.5204e-18)
(0.99954 0.00025325 -5.5041e-18)
(0.99963 -0.000362 9.6039e-18)
(0.99983 -0.00072567 8.0439e-18)
(1.0003 -0.0012115 -5.1081e-18)
(1.0003 -0.0011337 2.6999e-17)
(1.0032 -0.0012758 1.4844e-17)
(0.99303 -0.00056947 -4.8767e-18)
(1.0243 0.002475 -2.8818e-17)
(0.97587 -0.0015882 -8.8909e-19)
(1.0021 0.012272 -1.1453e-17)
(1.0112 0.010619 1.1043e-17)
(1.008 0.035637 -1.9918e-18)
(0.99952 0.00025748 3.3075e-18)
(0.99961 -0.00037107 -1.838e-18)
(0.99981 -0.00074476 1.0652e-17)
(1.0003 -0.0012407 -2.1495e-17)
(1.0003 -0.0011679 8.8173e-18)
(1.0033 -0.0013034 -5.3321e-18)
(0.99268 -0.00065397 -1.0506e-17)
(1.0246 0.002619 -2.3137e-18)
(0.97719 -0.0017679 -3.1569e-17)
(1.001 0.012104 7.5558e-18)
(1.0107 0.010672 -1.0111e-17)
(1.0083 0.035242 6.6413e-19)
(0.9995 0.00026169 2.6158e-19)
(0.99959 -0.00038028 -5.7823e-18)
(0.9998 -0.00076417 6.0499e-18)
(1.0003 -0.0012704 2.8293e-17)
(1.0003 -0.001203 -2.0999e-17)
(1.0035 -0.0013302 1.7156e-17)
(0.99234 -0.00074487 -6.0747e-18)
(1.0249 0.0027665 5.3567e-18)
(0.97856 -0.0019419 3.7506e-17)
(0.99991 0.011927 -1.4027e-17)
(1.0101 0.010703 1.5453e-17)
(1.0085 0.034836 1.8789e-18)
(0.99948 0.00026588 4.695e-19)
(0.99958 -0.00038963 -1.1972e-18)
(0.99979 -0.0007839 -8.7029e-18)
(1.0003 -0.0013004 -4.2586e-18)
(1.0003 -0.0012392 1.8304e-17)
(1.0037 -0.0013563 1.3798e-19)
(0.99201 -0.00084234 -1.194e-17)
(1.0251 0.002917 -1.279e-17)
(0.97996 -0.0021092 -1.5701e-17)
(0.99899 0.011741 -1.3241e-18)
(1.0096 0.010711 2.8281e-18)
(1.0087 0.03442 1.9623e-19)
(0.99946 0.00027004 -7.5536e-19)
(0.99956 -0.00039911 1.4241e-17)
(0.99977 -0.00080396 -5.8053e-18)
(1.0003 -0.0013307 -2.4072e-17)
(1.0002 -0.0012763 8.44e-18)
(1.0039 -0.0013816 -4.3713e-17)
(0.99168 -0.00094652 5.9563e-18)
(1.0253 0.0030701 8.0528e-18)
(0.9814 -0.0022689 7.2926e-19)
(0.99819 0.011549 1.4245e-17)
(1.0091 0.010699 -9.4599e-19)
(1.0088 0.033994 -5.2487e-18)
(0.99944 0.00027417 -1.9941e-19)
(0.99954 -0.00040874 -2.7932e-19)
(0.99976 -0.00082435 7.8156e-18)
(1.0003 -0.0013614 1.4863e-17)
(1.0002 -0.0013145 -3.3532e-17)
(1.0041 -0.0014058 1.8876e-18)
(0.99136 -0.0010575 1.0668e-17)
(1.0254 0.0032252 1.2614e-17)
(0.98285 -0.0024204 -9.9308e-18)
(0.99752 0.01135 -1.3869e-17)
(1.0086 0.010666 -1.5325e-17)
(1.0088 0.033558 5.5416e-18)
(0.99941 0.00027828 -1.3052e-18)
(0.99952 -0.00041851 3.9822e-19)
(0.99974 -0.00084509 -3.7683e-18)
(1.0003 -0.0013924 -9.9239e-18)
(1.0002 -0.0013538 1.8589e-17)
(1.0043 -0.0014291 2.3466e-17)
(0.99105 -0.0011754 3.1111e-18)
(1.0255 0.0033816 6.3932e-18)
(0.98432 -0.0025629 1.5839e-17)
(0.99696 0.011147 2.3343e-18)
(1.0081 0.010615 1.1329e-17)
(1.0089 0.033113 -3.3635e-18)
(0.99939 0.00028236 2.4025e-18)
(0.9995 -0.00042843 7.341e-19)
(0.99972 -0.00086618 -5.386e-18)
(1.0003 -0.0014238 1.466e-18)
(1.0001 -0.0013943 -1.0079e-17)
(1.0045 -0.0014512 -5.6287e-18)
(0.99075 -0.0013002 -1.1499e-18)
(1.0255 0.0035388 -2.8869e-17)
(0.9858 -0.0026959 3.1093e-18)
(0.99652 0.01094 -4.7324e-18)
(1.0076 0.010546 -4.6078e-18)
(1.0089 0.032659 -4.0531e-18)
(0.99937 0.00028641 -4.9032e-18)
(0.99948 -0.0004385 9.5913e-19)
(0.99971 -0.00088763 2.8569e-18)
(1.0003 -0.0014556 -1.8424e-17)
(1.0001 -0.0014361 -1.1492e-17)
(1.0047 -0.0014721 -2.6134e-17)
(0.99047 -0.001432 5.549e-18)
(1.0255 0.003696 1.1788e-17)
(0.98727 -0.0028189 -3.3344e-17)
(0.99619 0.010731 2.1822e-17)
(1.0072 0.010461 -4.982e-18)
(1.0089 0.032196 2.6142e-18)
(0.99934 0.00029043 4.5011e-18)
(0.99945 -0.00044873 2.1463e-18)
(0.99969 -0.00090945 1.0988e-18)
(1.0003 -0.0014877 5.8427e-18)
(1.0001 -0.001479 -2.5392e-18)
(1.0049 -0.0014917 5.0656e-17)
(0.9902 -0.0015707 1.9923e-17)
(1.0254 0.0038526 -1.834e-17)
(0.98873 -0.0029315 3.2093e-17)
(0.99597 0.010521 -8.1417e-18)
(1.0068 0.010361 -3.2852e-18)
(1.0089 0.031725 -1.3035e-18)
(0.99932 0.00029443 1.1042e-18)
(0.99943 -0.00045912 -1.359e-17)
(0.99967 -0.00093164 2.1994e-18)
(1.0003 -0.0015202 2.6244e-17)
(1 -0.0015233 1.9646e-17)
(1.0051 -0.00151 -8.1655e-19)
(0.98994 -0.0017163 -2.7601e-17)
(1.0252 0.0040078 5.5507e-18)
(0.99018 -0.0030335 -7.2379e-18)
(0.99584 0.01031 -1.1268e-17)
(1.0065 0.010246 8.3576e-18)
(1.0089 0.031248 1.2156e-18)
(0.99929 0.0002984 -4.3673e-18)
(0.99941 -0.00046967 -4.5311e-18)
(0.99965 -0.00095422 -1.1915e-17)
(1.0003 -0.0015532 -2.2011e-17)
(1 -0.001569 -1.977e-17)
(1.0053 -0.0015268 -2.3022e-17)
(0.9897 -0.0018687 5.0967e-18)
(1.025 0.0041609 4.3179e-17)
(0.9916 -0.0031245 3.1546e-18)
(0.99581 0.0101 -9.8402e-19)
(1.0062 0.010119 -2.9507e-18)
(1.0089 0.030763 -3.265e-18)
(0.99927 0.00030234 3.241e-18)
(0.99938 -0.0004804 4.2085e-18)
(0.99964 -0.00097719 1.8362e-17)
(1.0003 -0.0015865 1.5245e-17)
(0.99996 -0.0016161 1.9234e-17)
(1.0055 -0.0015422 -8.5556e-19)
(0.98948 -0.0020278 -2.8397e-17)
(1.0248 0.004311 -2.3341e-17)
(0.99299 -0.0032046 7.8298e-18)
(0.99587 0.0098918 3.9001e-18)
(1.006 0.0099813 6.6517e-18)
(1.0089 0.030274 2.5235e-18)
(0.99924 0.00030625 -2.289e-18)
(0.99936 -0.00049129 6.6028e-18)
(0.99962 -0.0010006 -1.2149e-17)
(1.0003 -0.0016201 2.2069e-18)
(0.99992 -0.0016647 8.9446e-18)
(1.0057 -0.0015561 -2.2506e-18)
(0.98927 -0.0021934 6.3758e-18)
(1.0245 0.0044575 6.4827e-18)
(0.99436 -0.0032737 2.5774e-18)
(0.99601 0.0096861 9.6408e-18)
(1.0058 0.009833 -7.9997e-18)
(1.0089 0.029779 5.0995e-19)
(0.99921 0.00031013 3.4562e-18)
(0.99934 -0.00050237 4.0926e-19)
(0.9996 -0.0010243 -5.6879e-18)
(1.0003 -0.0016542 8.7878e-19)
(0.99987 -0.0017147 -1.4686e-18)
(1.006 -0.0015685 -2.2236e-17)
(0.98909 -0.0023652 1.7801e-17)
(1.0242 0.0045995 2.3013e-17)
(0.99568 -0.0033321 -1.283e-17)
(0.99622 0.0094837 -1.3415e-17)
(1.0057 0.0096758 -2.3382e-18)
(1.0089 0.02928 4.3391e-18)
(0.99918 0.00031399 -2.5107e-18)
(0.99931 -0.00051363 -3.1519e-19)
(0.99958 -0.0010485 7.0715e-18)
(1.0003 -0.0016887 -1.6873e-17)
(0.99983 -0.0017664 -1.3288e-17)
(1.0062 -0.0015793 2.8074e-17)
(0.98892 -0.0025431 -2.7223e-18)
(1.0239 0.0047363 -2.4365e-17)
(0.99696 -0.0033799 3.2688e-18)
(0.9965 0.0092856 1.263e-17)
(1.0056 0.0095109 7.9256e-18)
(1.009 0.028778 -1.5646e-18)
(0.99915 0.00031781 2.4953e-19)
(0.99928 -0.00052508 2.309e-18)
(0.99955 -0.0010732 3.8643e-18)
(1.0003 -0.0017236 8.7229e-18)
(0.99977 -0.0018196 2.6048e-17)
(1.0064 -0.0015885 6.5465e-18)
(0.98878 -0.0027267 -2.3704e-17)
(1.0235 0.004867 2.2845e-18)
(0.99819 -0.0034174 8.4207e-18)
(0.99683 0.0090922 -1.1379e-17)
(1.0056 0.0093394 -5.3585e-18)
(1.009 0.028273 -1.81e-18)
(0.99912 0.00032161 7.0854e-19)
(0.99926 -0.00053672 -4.0151e-19)
(0.99953 -0.0010982 -1.0197e-17)
(1.0003 -0.001759 -1.8766e-19)
(0.99972 -0.0018745 -5.1503e-17)
(1.0066 -0.0015962 8.0722e-18)
(0.98866 -0.0029158 2.3285e-17)
(1.0231 0.004991 -6.5623e-18)
(0.99938 -0.0034452 -8.8179e-18)
(0.99722 0.0089041 1.8896e-17)
(1.0056 0.0091623 6.411e-18)
(1.0091 0.027766 4.6908e-18)
(0.99909 0.00032538 7.612e-19)
(0.99923 -0.00054855 -8.3341e-19)
(0.99951 -0.0011238 1.8443e-17)
(1.0003 -0.0017947 4.0239e-18)
(0.99967 -0.0019312 4.5644e-17)
(1.0068 -0.0016023 -2.8447e-17)
(0.98856 -0.0031099 -7.7977e-18)
(1.0226 0.0051074 6.1781e-18)
(1.0005 -0.0034635 3.0386e-18)
(0.99765 0.0087219 -1.0632e-17)
(1.0057 0.0089807 -1.038e-18)
(1.0092 0.027259 -3.4589e-18)
(0.99906 0.00032912 -2.9746e-18)
(0.9992 -0.00056059 1.3996e-18)
(0.99948 -0.0011497 -1.084e-17)
(1.0003 -0.0018309 5.2917e-18)
(0.99961 -0.0019896 -1.7344e-17)
(1.0071 -0.0016069 3.8578e-18)
(0.98848 -0.0033087 3.1222e-17)
(1.0222 0.0052156 -2.3127e-17)
(1.0016 -0.0034732 -1.1169e-17)
(0.99812 0.0085459 -1.0518e-17)
(1.0058 0.0087956 -5.0976e-18)
(1.0093 0.026751 -9.499e-19)
(0.99903 0.00033283 3.7056e-18)
(0.99917 -0.00057284 -3.3239e-18)
(0.99946 -0.0011761 -1.0521e-17)
(1.0003 -0.0018675 -8.438e-18)
(0.99955 -0.0020497 -2.8361e-17)
(1.0073 -0.00161 -1.7896e-17)
(0.98842 -0.0035117 -1.9144e-17)
(1.0217 0.0053149 2.1505e-17)
(1.0026 -0.0034747 1.0828e-17)
(0.99862 0.0083763 1.5928e-17)
(1.006 0.0086077 -1.9951e-18)
(1.0095 0.026243 4.5848e-18)
(0.999 0.00033651 -5.956e-18)
(0.99914 -0.00058531 5.3862e-18)
(0.99944 -0.0012031 2.5763e-17)
(1.0003 -0.0019045 -1.9905e-18)
(0.99949 -0.0021118 3.1379e-17)
(1.0075 -0.0016117 1.3484e-18)
(0.98838 -0.0037186 -1.8336e-17)
(1.0212 0.0054047 8.42e-18)
(1.0036 -0.0034688 -3.905e-18)
(0.99915 0.0082134 -3.3352e-18)
(1.0062 0.0084179 6.4731e-18)
(1.0097 0.025737 -3.1005e-18)
(0.99896 0.00034017 4.881e-18)
(0.99911 -0.00059799 -7.3202e-18)
(0.99941 -0.0012304 -3.004e-17)
(1.0003 -0.001942 1.3022e-17)
(0.99942 -0.0021757 -2.2359e-17)
(1.0077 -0.0016121 2.474e-17)
(0.98837 -0.0039287 5.9763e-18)
(1.0206 0.0054843 -8.0141e-18)
(1.0045 -0.0034562 -1.8744e-18)
(0.9997 0.0080571 -8.3528e-18)
(1.0065 0.0082269 -1.0553e-17)
(1.0099 0.025232 4.2854e-18)
(0.99893 0.00034379 -3.5956e-18)
(0.99908 -0.0006109 2.4342e-18)
(0.99938 -0.0012583 1.8254e-17)
(1.0003 -0.00198 -1.7166e-17)
(0.99936 -0.0022415 3.5978e-17)
(1.0079 -0.0016112 -1.9204e-17)
(0.98838 -0.0041418 3.4839e-18)
(1.0201 0.0055533 -1.2671e-17)
(1.0054 -0.0034378 6.1183e-18)
(1.0003 0.0079076 -1.1687e-18)
(1.0067 0.0080352 4.5171e-18)
(1.0101 0.024729 -1.9055e-18)
(0.99889 0.00034739 4.4102e-18)
(0.99905 -0.00062404 1.8953e-18)
(0.99936 -0.0012867 -1.2171e-17)
(1.0003 -0.0020184 -3.4947e-19)
(0.99929 -0.0023092 -1.5869e-18)
(1.0081 -0.0016092 4.6439e-18)
(0.98841 -0.0043572 3.3085e-17)
(1.0195 0.005611 8.668e-18)
(1.0062 -0.0034143 -1.8136e-17)
(1.0008 0.0077647 -6.058e-18)
(1.007 0.0078436 -4.2477e-18)
(1.0103 0.024229 2.0025e-18)
(0.99886 0.00035096 -5.0553e-18)
(0.99901 -0.00063742 -7.0239e-18)
(0.99933 -0.0013156 5.106e-18)
(1.0003 -0.0020573 1.4855e-17)
(0.99922 -0.0023789 -3.2642e-17)
(1.0083 -0.0016062 1.5605e-17)
(0.98845 -0.0045745 -3.1856e-17)