/*--------------------------------*- C++ -*----------------------------------*\
  =========                 |
  \\      /  F ield         | OpenFOAM: The Open Source CFD Toolbox
   \\    /   O peration     | Website:  https://openfoam.org
    \\  /    A nd           | Version:  6.0
     \\/     M anipulation  |
\*---------------------------------------------------------------------------*/
FoamFile
{
    version     2.0;
    format      ascii;
    class       volScalarField;
    location    "10";
    object      p;
}
// * * * * * * * * * * * * * * * * * * * * * * * * * * * * * * * * * * * * * //

dimensions      [0 2 -2 0 0 0 0];

internalField   nonuniform List<scalar> 
62000
(
0.00755033
0.00755026
0.00754895
0.00754562
0.00754142
0.00753552
0.0075289
0.0075206
0.00751143
0.00750026
0.00748786
0.0074731
0.00745677
0.00743773
0.00741681
0.00739294
0.00736687
0.00733771
0.00730608
0.00727135
0.00723408
0.00719391
0.00715144
0.0071065
0.00705989
0.00701149
0.00696214
0.00691176
0.00686051
0.00680834
0.00675464
0.00669925
0.00664126
0.00657785
0.00650668
0.00642265
0.0063188
0.00618656
0.00601729
0.00580307
0.00553753
0.00521707
0.00484229
0.00441914
0.00395797
0.00347273
0.00297522
0.0024696
0.00195217
0.00139663
0.00078969
8.88592e-05
-0.000666119
-0.00148954
-0.00228992
-0.00298888
-0.00348927
-0.00354664
-0.00360804
-0.00399933
0.00752534
0.0075313
0.00753565
0.00753701
0.00753607
0.00753162
0.00752468
0.00751468
0.00750288
0.00748855
0.00747261
0.0074541
0.00743371
0.00741055
0.00738522
0.00735697
0.00732623
0.00729249
0.00725603
0.0072166
0.00717442
0.00712945
0.007082
0.00703215
0.00698041
0.00692698
0.00687235
0.00681683
0.00676054
0.00670349
0.00664554
0.0065859
0.00652369
0.00645692
0.00638274
0.00629585
0.00618819
0.00605062
0.0058741
0.00565012
0.00537134
0.00503301
0.00463488
0.0041825
0.00368698
0.00316433
0.00262976
0.00209136
0.00154854
0.000973989
0.000350907
-0.000378628
-0.00118182
-0.00209695
-0.00303019
-0.00389202
-0.00456271
-0.00470084
-0.00496271
-0.00514426
0.00745497
0.00746781
0.00747865
0.00748608
0.00749029
0.00748926
0.0074832
0.00747156
0.00745587
0.00743607
0.00741345
0.00738735
0.00735864
0.00732644
0.00729155
0.00725306
0.00721164
0.00716649
0.00711813
0.00706602
0.00701051
0.00695139
0.00688898
0.00682328
0.00675472
0.00668342
0.00660978
0.00653406
0.00645624
0.00637659
0.00629461
0.00621002
0.00612113
0.00602634
0.00592245
0.0058034
0.00566031
0.00548327
0.00526284
0.00498985
0.00465589
0.0042551
0.00378641
0.00325546
0.00267523
0.00206624
0.00145187
0.000851616
0.000279463
-0.000277885
-0.000825127
-0.00141891
-0.00203811
-0.0027476
-0.00348267
-0.00419446
-0.0048175
-0.00506839
-0.005685
-0.00653087
0.0073983
0.00741411
0.00742697
0.00743665
0.0074436
0.00744519
0.00744069
0.00742872
0.00741081
0.00738717
0.00735958
0.00732773
0.00729261
0.00725356
0.00721124
0.00716505
0.00711541
0.00706188
0.00700472
0.00694365
0.00687883
0.00681019
0.00673799
0.00666226
0.0065835
0.00650177
0.00641763
0.00633124
0.00624289
0.0061526
0.00606063
0.00596619
0.00586846
0.00576524
0.00565337
0.0055259
0.00537331
0.00518498
0.00495056
0.00465949
0.00430112
0.0038667
0.00335188
0.00275906
0.00209908
0.00139233
0.000665566
-5.39256e-05
-0.000740034
-0.00139061
-0.00199484
-0.00259957
-0.00318616
-0.00383705
-0.00451652
-0.0052115
-0.00590241
-0.00634569
-0.00726477
-0.00847099
0.00731564
0.0073295
0.00733936
0.00734631
0.00735179
0.00735317
0.00734875
0.00733612
0.00731622
0.00728944
0.00725794
0.0072218
0.00718227
0.00713863
0.00709177
0.00704077
0.0069864
0.00692787
0.00686582
0.00679969
0.00672999
0.00665652
0.00657979
0.00649983
0.00641732
0.00633244
0.00624591
0.00615811
0.0060694
0.00598039
0.0058912
0.00580237
0.00571244
0.0056204
0.00552225
0.00541105
0.0052768
0.00510842
0.00489475
0.00462357
0.00428152
0.00385581
0.00333681
0.0027208
0.0020122
0.00122575
0.00038492
-0.000482608
-0.00134503
-0.00218981
-0.00299098
-0.00378141
-0.00453449
-0.00533482
-0.00615066
-0.00697802
-0.00780166
-0.00835719
-0.00933255
-0.0104082
0.00715975
0.00716819
0.00717162
0.00717185
0.00717148
0.00716856
0.00716081
0.0071447
0.00712038
0.00708812
0.00705042
0.00700783
0.00696175
0.00691178
0.0068585
0.00680128
0.00674041
0.00667548
0.0066067
0.0065338
0.00645706
0.00637646
0.00629246
0.00620522
0.00611553
0.00602367
0.00593059
0.00583679
0.00574306
0.00564994
0.00555862
0.00546929
0.00538236
0.00529594
0.00520735
0.00510925
0.00499179
0.00484408
0.00465485
0.00441105
0.00409737
0.00369764
0.0031972
0.00258578
0.0018601
0.00102671
0.000101897
-0.000890995
-0.0019203
-0.00296735
-0.00399471
-0.00501965
-0.00600028
-0.00701075
-0.00801121
-0.00898512
-0.009901
-0.0104553
-0.011324
-0.0121583
0.00690536
0.00690999
0.00690801
0.0069014
0.00689412
0.0068853
0.00687232
0.00685086
0.00681996
0.00677975
0.00673282
0.00668026
0.00662387
0.00656335
0.00649949
0.00643135
0.00635937
0.00628268
0.00620173
0.00611585
0.00602547
0.00593036
0.00583106
0.00572763
0.00562093
0.00551125
0.00539958
0.00528661
0.00517309
0.00506017
0.00494874
0.0048406
0.00473538
0.0046334
0.00453136
0.00442298
0.0042989
0.00414902
0.00396293
0.00372796
0.00342839
0.00304639
0.00256412
0.00196642
0.00124356
0.000394482
-0.000572264
-0.00163975
-0.00277923
-0.00397038
-0.00516753
-0.00637579
-0.00753813
-0.00871627
-0.00985438
-0.0109213
-0.0118673
-0.0123654
-0.0131074
-0.013761
0.00657789
0.0065807
0.00657497
0.00656256
0.00654838
0.00653282
0.00651353
0.00648543
0.00644668
0.0063968
0.00633841
0.00627302
0.00620268
0.00612768
0.00604852
0.00596475
0.00587622
0.00578247
0.00568334
0.00557841
0.00546762
0.00535081
0.00522821
0.00509982
0.00496638
0.00482805
0.00468583
0.00454027
0.00439237
0.00424295
0.00409375
0.00394594
0.00380128
0.00365906
0.00351809
0.00337219
0.00321309
0.00303199
0.00282011
0.00256633
0.00225595
0.00187139
0.00139382
0.000805552
9.26833e-05
-0.000751608
-0.0017254
-0.00281801
-0.00400538
-0.0052677
-0.00655582
-0.00786601
-0.00912966
-0.0103962
-0.0116002
-0.0126982
-0.0136328
-0.0140715
-0.0147282
-0.0152734
0.00618876
0.00619227
0.0061854
0.00616948
0.0061503
0.00612921
0.00610437
0.0060703
0.00602426
0.00596517
0.00589547
0.00581685
0.00573184
0.00564081
0.00554482
0.00544299
0.00533561
0.0052216
0.00510115
0.00497325
0.004838
0.00469485
0.00454398
0.0043851
0.0042188
0.00404502
0.00386457
0.00367793
0.00348577
0.00328925
0.00308944
0.0028889
0.00268813
0.00248903
0.00228959
0.00208524
0.00186864
0.00163243
0.00136988
0.00107204
0.000726234
0.000316554
-0.000174949
-0.000766341
-0.00147337
-0.00230628
-0.00326785
-0.00435275
-0.00554143
-0.0068168
-0.00812864
-0.00946957
-0.0107638
-0.0120543
-0.0132679
-0.0143575
-0.0152644
-0.0156624
-0.0162783
-0.0167622
0.00576184
0.00576528
0.00575715
0.00573843
0.00571481
0.00568863
0.00565864
0.00561922
0.00556694
0.00550004
0.00542052
0.00533018
0.00523155
0.00512559
0.0050131
0.00489381
0.0047674
0.00463332
0.00449109
0.00434
0.0041796
0.00400939
0.00382913
0.00363843
0.00343761
0.00322634
0.00300525
0.00277451
0.00253479
0.00228665
0.00203175
0.00177152
0.0015085
0.00124301
0.000975381
0.000701025
0.000413858
0.000107951
-0.000221372
-0.000580603
-0.000979924
-0.00143274
-0.00195492
-0.0025634
-0.00327397
-0.00409839
-0.00504241
-0.00610457
-0.00726969
-0.00852355
-0.00981778
-0.0111438
-0.0124227
-0.0136934
-0.0148825
-0.0159429
-0.0168205
-0.0171975
-0.0178007
-0.0182455
0.00528333
0.00528658
0.00527816
0.00525839
0.0052326
0.00520372
0.00517085
0.0051286
0.00507274
0.00500114
0.00491513
0.00481648
0.00470775
0.00458995
0.00446426
0.00433012
0.00418756
0.00403556
0.00387394
0.00370148
0.0035179
0.00332234
0.0031145
0.00289371
0.00266011
0.0024131
0.00215302
0.00187986
0.0015938
0.00129561
0.00098593
0.000667377
0.000340672
8.72711e-06
-0.000329437
-0.000676857
-0.00103888
-0.00142028
-0.00182385
-0.00225379
-0.00271775
-0.00322636
-0.0037928
-0.00443192
-0.00515833
-0.00598377
-0.00691533
-0.00795422
-0.0090885
-0.0103074
-0.0115647
-0.0128538
-0.0140951
-0.015328
-0.0164794
-0.0175074
-0.0183621
-0.0187335
-0.0193388
-0.0197549
0.00477316
0.00477413
0.00476405
0.00474278
0.00471475
0.00468334
0.00464811
0.00460375
0.00454571
0.00447123
0.00438113
0.00427696
0.00416098
0.0040346
0.00389859
0.00375301
0.00359729
0.00343096
0.0032532
0.00306313
0.00285992
0.00264284
0.00241119
0.00216423
0.00190184
0.00162317
0.00132839
0.00101709
0.000689447
0.000345463
-1.37239e-05
-0.00038699
-0.000771688
-0.00116708
-0.00157188
-0.00198954
-0.0024245
-0.00288058
-0.00335902
-0.00386202
-0.00439494
-0.00496568
-0.00558462
-0.00626419
-0.00701713
-0.00785429
-0.00878304
-0.00980603
-0.010914
-0.0120987
-0.0133174
-0.0145654
-0.0157647
-0.0169552
-0.0180685
-0.0190675
-0.0199074
-0.0202825
-0.0208958
-0.0212854
0.0042219
0.00422051
0.00420904
0.00418664
0.00415729
0.00412429
0.00408761
0.00404205
0.00398284
0.00390687
0.00381454
0.00370706
0.00358673
0.00345458
0.00331189
0.00315811
0.00299322
0.00281607
0.00262627
0.00242235
0.00220372
0.00196925
0.00171825
0.00144973
0.0011634
0.000858196
0.000534029
0.000190329
-0.000173231
-0.000556484
-0.000959382
-0.00137972
-0.00181708
-0.00226813
-0.00273346
-0.00321516
-0.00371741
-0.00424339
-0.00479319
-0.0053674
-0.00596947
-0.0066049
-0.00728143
-0.00800897
-0.00879809
-0.00965816
-0.010596
-0.0116149
-0.0127071
-0.013867
-0.0150542
-0.0162676
-0.0174308
-0.0185861
-0.019669
-0.0206487
-0.0214826
-0.0218674
-0.022491
-0.022856
0.00364712
0.00364106
0.00362601
0.00360095
0.00356881
0.00353305
0.0034939
0.00344637
0.00338562
0.00330821
0.00321422
0.00310461
0.0029813
0.00284559
0.00269818
0.00253914
0.0023677
0.00218332
0.00198485
0.00177119
0.00154116
0.00129377
0.00102793
0.000742589
0.000437264
0.000110667
-0.000237428
-0.000607923
-0.00100114
-0.00141766
-0.00185692
-0.0023184
-0.00279969
-0.00330014
-0.00381808
-0.00435642
-0.00491887
-0.00550813
-0.00612345
-0.00676426
-0.00743243
-0.00813146
-0.0088668
-0.00964602
-0.0104775
-0.0113691
-0.0123265
-0.013353
-0.014442
-0.0155891
-0.0167571
-0.0179472
-0.0190851
-0.0202151
-0.0212774
-0.0222467
-0.023082
-0.0234795
-0.0241137
-0.024454
0.00302431
0.00301391
0.00299604
0.0029692
0.00293558
0.00289854
0.00285821
0.00281001
0.00274875
0.00267116
0.00257679
0.00246659
0.00234225
0.00220484
0.00205528
0.00189314
0.00171805
0.00152884
0.00132475
0.00110411
0.000865955
0.00060892
0.0003319
3.36483e-05
-0.000286496
-0.00062998
-0.000997264
-0.00138937
-0.00180708
-0.00225077
-0.00272098
-0.00321605
-0.00373606
-0.00427765
-0.00484143
-0.00542911
-0.00604452
-0.00669016
-0.00736475
-0.0080669
-0.0087973
-0.00955788
-0.0103521
-0.0111855
-0.0120645
-0.0129949
-0.0139813
-0.0150267
-0.0161246
-0.0172721
-0.0184334
-0.0196127
-0.0207375
-0.0218543
-0.0229071
-0.0238759
-0.0247192
-0.0251316
-0.0257771
-0.0260954
0.00237497
0.00235902
0.00233704
0.00230745
0.00227137
0.00223223
0.00219023
0.00214086
0.00207893
0.00200098
0.00190637
0.00179592
0.00167093
0.00153274
0.00138165
0.00121783
0.00104014
0.000848089
0.000640114
0.000414984
0.000171116
-9.26815e-05
-0.000377931
-0.000685891
-0.00101745
-0.00137423
-0.00175682
-0.00216654
-0.00260411
-0.00307065
-0.00356612
-0.00409062
-0.00464208
-0.00522018
-0.00582315
-0.00645383
-0.00711583
-0.00781151
-0.00853931
-0.00929728
-0.0100853
-0.0109039
-0.0117552
-0.0126428
-0.0135713
-0.014545
-0.0155671
-0.0166397
-0.0177567
-0.0189153
-0.0200814
-0.0212614
-0.0223844
-0.0234978
-0.0245502
-0.0255257
-0.026382
-0.0268104
-0.0274675
-0.0277656
0.00168595
0.00166599
0.00164126
0.00160967
0.00157219
0.00153181
0.00148879
0.00143865
0.00137616
0.00129789
0.0012031
0.00109248
0.000967392
0.000828764
0.000677297
0.000512491
0.000333737
0.00013979
-7.04289e-05
-0.000298798
-0.00054662
-0.000815502
-0.00110695
-0.00142243
-0.001763
-0.00213042
-0.00252549
-0.00294964
-0.003404
-0.00388947
-0.00440708
-0.00495571
-0.00553592
-0.00614448
-0.00678222
-0.00745075
-0.00815405
-0.00889455
-0.00967053
-0.0104798
-0.0113215
-0.0121955
-0.0131023
-0.0140442
-0.0150242
-0.0160449
-0.0171081
-0.0182153
-0.0193596
-0.0205387
-0.0217192
-0.0229097
-0.0240401
-0.0251594
-0.0262194
-0.0272084
-0.0280818
-0.0285275
-0.029198
-0.0294804
0.000979188
0.00095397
0.000924871
0.000890022
0.000849586
0.000806624
0.000761383
0.000709393
0.000645499
0.00056616
0.000470588
0.000359453
0.000233797
9.48643e-05
-5.72929e-05
-0.000222547
-0.000402331
-0.000597214
-0.000809092
-0.00103941
-0.0012901
-0.00156259
-0.00185881
-0.00218023
-0.00252812
-0.0029044
-0.00330999
-0.00374657
-0.00421521
-0.00471752
-0.00525387
-0.00582497
-0.00642905
-0.00706613
-0.00773449
-0.00843708
-0.00917775
-0.00995898
-0.010779
-0.0116356
-0.0125274
-0.0134534
-0.0144134
-0.0154083
-0.0164398
-0.0175088
-0.0186161
-0.019762
-0.0209394
-0.0221453
-0.0233472
-0.0245552
-0.0257003
-0.0268318
-0.0279052
-0.0289121
-0.0298055
-0.0302692
-0.0309545
-0.031224
0.000228555
0.000199603
0.000167955
0.000131494
9.00026e-05
4.64167e-05
5.8703e-07
-5.16579e-05
-0.0001159
-0.000195266
-0.0002909
-0.000401924
-0.000527404
-0.000666298
-0.000818282
-0.000983806
-0.00116383
-0.00135962
-0.00157259
-0.0018048
-0.0020579
-0.00233371
-0.00263412
-0.00296081
-0.00331521
-0.00369935
-0.00411437
-0.00456202
-0.00504379
-0.00556101
-0.00611515
-0.00670556
-0.00733324
-0.00799508
-0.00869215
-0.00942609
-0.0102013
-0.0110203
-0.0118816
-0.0127827
-0.0137221
-0.0146983
-0.0157102
-0.0167577
-0.0178411
-0.0189602
-0.0201141
-0.0213026
-0.0225175
-0.0237555
-0.0249841
-0.0262153
-0.02738
-0.0285288
-0.0296201
-0.030649
-0.031565
-0.0320477
-0.0327502
-0.0330125
-0.000540359
-0.000573618
-0.000608662
-0.000647348
-0.000690677
-0.000735583
-0.000782339
-0.000835224
-0.000899821
-0.000979423
-0.00107518
-0.00118622
-0.00131188
-0.00145077
-0.0016032
-0.00176895
-0.0019498
-0.00214627
-0.0023606
-0.00259435
-0.00284979
-0.00312853
-0.00343287
-0.00376449
-0.00412499
-0.00451659
-0.00494051
-0.00539877
-0.00589275
-0.0064245
-0.00699477
-0.00760479
-0.00825306
-0.00893988
-0.00966361
-0.0104273
-0.0112352
-0.0120901
-0.0129905
-0.0139339
-0.0149188
-0.015943
-0.0170048
-0.0181034
-0.0192379
-0.0204068
-0.0216082
-0.0228406
-0.0240953
-0.0253681
-0.0266265
-0.0278839
-0.0290721
-0.0302415
-0.0313536
-0.0324066
-0.0333469
-0.0338493
-0.0345712
-0.0348294
-0.00133975
-0.00137513
-0.00141152
-0.00145117
-0.00149484
-0.00153989
-0.00158666
-0.00163954
-0.00170425
-0.00178398
-0.00187991
-0.00199116
-0.0021169
-0.00225611
-0.00240861
-0.00257492
-0.0027562
-0.00295377
-0.00316932
-0.00340506
-0.00366293
-0.00394495
-0.00425337
-0.00459006
-0.00495678
-0.00535583
-0.00578866
-0.00625735
-0.00676366
-0.00730933
-0.00789625
-0.00852416
-0.00919444
-0.00990407
-0.0106543
-0.0114468
-0.0122865
-0.0131762
-0.0141145
-0.0150991
-0.0161284
-0.0171997
-0.0183109
-0.0194604
-0.0206462
-0.0218657
-0.0231156
-0.0243938
-0.0256904
-0.0270004
-0.0282911
-0.0295775
-0.030791
-0.031983
-0.0331181
-0.0341976
-0.0351639
-0.0356871
-0.0364309
-0.0366909
-0.00214622
-0.00218486
-0.00222416
-0.00226589
-0.00231139
-0.00235786
-0.00240575
-0.0024596
-0.00252507
-0.00260552
-0.00270207
-0.00281383
-0.0029402
-0.0030798
-0.00323309
-0.00339989
-0.00358225
-0.00378073
-0.00399788
-0.00423542
-0.00449593
-0.00478121
-0.00509392
-0.00543588
-0.00580906
-0.00621591
-0.00665793
-0.00713746
-0.00765613
-0.00821641
-0.00881936
-0.00946671
-0.0101571
-0.0108912
-0.0116672
-0.0124884
-0.0133594
-0.0142833
-0.0152589
-0.0162839
-0.0173564
-0.0184736
-0.019633
-0.0208322
-0.0220682
-0.0233375
-0.0246355
-0.0259593
-0.027298
-0.0286457
-0.0299694
-0.0312854
-0.032526
-0.0337422
-0.0349019
-0.036009
-0.0370023
-0.0375472
-0.0383152
-0.0385798
-0.00298457
-0.00302474
-0.00306481
-0.00310669
-0.00315185
-0.00319758
-0.00324484
-0.00329791
-0.00336301
-0.00344305
-0.0035395
-0.00365119
-0.00377759
-0.00391747
-0.00407097
-0.00423855
-0.00442169
-0.00462172
-0.00484063
-0.0050808
-0.00534445
-0.00563378
-0.00595139
-0.0062993
-0.00667958
-0.0070948
-0.00754666
-0.00803751
-0.00856941
-0.00914442
-0.0097648
-0.0104307
-0.0111437
-0.0119009
-0.0127036
-0.0135536
-0.0144561
-0.0154143
-0.0164271
-0.0174923
-0.0186081
-0.0197713
-0.0209789
-0.0222278
-0.0235145
-0.0248339
-0.0261807
-0.0275508
-0.0289326
-0.030319
-0.0316769
-0.0330237
-0.0342913
-0.0355322
-0.0367172
-0.0378534
-0.038875
-0.0394428
-0.0402378
-0.0405128
-0.00382883
-0.00387121
-0.00391297
-0.00395562
-0.00400126
-0.004047
-0.00409396
-0.00414664
-0.0042113
-0.00429107
-0.00438738
-0.00449907
-0.00462581
-0.00476603
-0.00492047
-0.00508889
-0.00527364
-0.00547527
-0.00569659
-0.00593948
-0.00620679
-0.00650048
-0.00682356
-0.00717799
-0.00756604
-0.00799041
-0.00845284
-0.00895595
-0.00950161
-0.0100926
-0.0107304
-0.011417
-0.0121514
-0.0129342
-0.0137637
-0.0146431
-0.0155775
-0.0165703
-0.0176203
-0.0187257
-0.0198843
-0.0210928
-0.0223477
-0.0236456
-0.0249817
-0.0263504
-0.027745
-0.0291607
-0.0305846
-0.0320091
-0.0334005
-0.0347776
-0.0360736
-0.0373401
-0.0385516
-0.0397175
-0.0407684
-0.04136
-0.0421841
-0.0424716
-0.00468963
-0.00473205
-0.00477338
-0.00481556
-0.00486018
-0.00490481
-0.00495065
-0.00500239
-0.00506651
-0.005146
-0.00524236
-0.00535432
-0.00548143
-0.00562243
-0.00577758
-0.00594738
-0.00613355
-0.00633746
-0.00656136
-0.00680781
-0.00707932
-0.00737824
-0.00770751
-0.00806931
-0.00846598
-0.00890035
-0.00937432
-0.00989051
-0.0104512
-0.0110588
-0.0117158
-0.0124227
-0.0131814
-0.0139889
-0.0148466
-0.0157562
-0.0167232
-0.0177512
-0.0188391
-0.0199852
-0.0211872
-0.0224415
-0.0237443
-0.0250916
-0.0264779
-0.0278963
-0.0293393
-0.0308008
-0.0322674
-0.0337303
-0.035156
-0.036564
-0.0378873
-0.0391792
-0.0404175
-0.0416142
-0.0426954
-0.0433125
-0.0441682
-0.0444738
-0.00554628
-0.00559008
-0.00563274
-0.00567558
-0.00572071
-0.00576549
-0.00581128
-0.005863
-0.00592706
-0.00600673
-0.00610337
-0.00621577
-0.00634364
-0.00648537
-0.00664186
-0.00681292
-0.00700117
-0.00720726
-0.00743427
-0.0076843
-0.0079605
-0.00826499
-0.00860111
-0.00897099
-0.00937713
-0.00982247
-0.010309
-0.0108394
-0.0114159
-0.0120416
-0.0127181
-0.0134479
-0.0142299
-0.015065
-0.0159513
-0.0168921
-0.0178926
-0.0189565
-0.0200827
-0.0212696
-0.022515
-0.0238148
-0.0251651
-0.0265609
-0.0279964
-0.0294634
-0.0309538
-0.03246
-0.0339683
-0.0354679
-0.0369277
-0.0383647
-0.0397169
-0.0410356
-0.0423016
-0.04353
-0.0446425
-0.0452858
-0.0461749
-0.0464998
-0.00642013
-0.00646357
-0.00650532
-0.00654685
-0.00659029
-0.0066331
-0.00667718
-0.00672722
-0.0067903
-0.00686916
-0.00696559
-0.00707803
-0.00720626
-0.00734888
-0.00750639
-0.00767931
-0.00786967
-0.00807892
-0.00830955
-0.00856437
-0.00884613
-0.00915739
-0.00950139
-0.00988045
-0.0102971
-0.0107545
-0.0112547
-0.0118005
-0.0123943
-0.0130389
-0.013737
-0.0144892
-0.015298
-0.0161598
-0.0170765
-0.0180494
-0.0190843
-0.020185
-0.0213505
-0.0225792
-0.0238688
-0.0252152
-0.0266137
-0.028059
-0.0295444
-0.0310608
-0.0325992
-0.0341505
-0.0357007
-0.0372374
-0.0387315
-0.0401982
-0.0415779
-0.0429226
-0.0442168
-0.0454778
-0.0466227
-0.0472939
-0.0482187
-0.048568
-0.00728732
-0.00733107
-0.00737286
-0.00741366
-0.00745626
-0.00749788
-0.00754061
-0.00758948
-0.00765154
-0.00772989
-0.00782614
-0.00793886
-0.00806791
-0.00821163
-0.00837106
-0.00854608
-0.00873954
-0.00895218
-0.00918729
-0.00944722
-0.00973533
-0.010054
-0.0104067
-0.0107959
-0.0112242
-0.0116948
-0.0122098
-0.0127723
-0.0133844
-0.0140496
-0.0147695
-0.0155472
-0.0163814
-0.0172732
-0.0182205
-0.0192266
-0.020297
-0.0214353
-0.0226407
-0.0239117
-0.0252458
-0.0266386
-0.028085
-0.0295793
-0.0311138
-0.0326787
-0.034264
-0.0358593
-0.0374502
-0.0390226
-0.0405506
-0.0420454
-0.0434538
-0.0448261
-0.0461495
-0.0474441
-0.0486222
-0.049322
-0.0502839
-0.0506578
-0.00815408
-0.00819589
-0.00823554
-0.00827449
-0.00831487
-0.00835444
-0.00839538
-0.00844292
-0.00850436
-0.00858265
-0.00867946
-0.00879324
-0.0089237
-0.00906948
-0.00923111
-0.00940928
-0.00960615
-0.00982336
-0.0100636
-0.0103299
-0.0106253
-0.0109525
-0.0113151
-0.0117156
-0.0121566
-0.0126416
-0.0131728
-0.013753
-0.014385
-0.0150716
-0.0158157
-0.0166182
-0.0174817
-0.0184023
-0.0193821
-0.0204224
-0.0215292
-0.0227063
-0.0239528
-0.0252673
-0.0266472
-0.0280877
-0.0295833
-0.0311275
-0.0327122
-0.0343265
-0.0359598
-0.0375995
-0.0392316
-0.0408399
-0.0424023
-0.0439256
-0.0453612
-0.0467604
-0.0481131
-0.049442
-0.0506544
-0.0513843
-0.0523855
-0.0527886
-0.00900671
-0.00904798
-0.00908729
-0.00912542
-0.00916506
-0.00920381
-0.00924397
-0.00929112
-0.00935243
-0.0094312
-0.00952885
-0.00964395
-0.00977629
-0.00992422
-0.0100888
-0.0102702
-0.0104713
-0.0106932
-0.0109392
-0.0112122
-0.0115156
-0.0118521
-0.0122255
-0.0126382
-0.0130932
-0.0135939
-0.0141424
-0.0147419
-0.0153948
-0.0161046
-0.0168732
-0.0177036
-0.0185946
-0.0195476
-0.0205601
-0.0216356
-0.0227799
-0.0239968
-0.0252853
-0.0266438
-0.0280699
-0.0295583
-0.0311028
-0.0326968
-0.0343311
-0.0359942
-0.0376743
-0.0393577
-0.0410298
-0.0426733
-0.0442697
-0.0458195
-0.0472836
-0.0487108
-0.050094
-0.0514581
-0.0527055
-0.0534659
-0.0545071
-0.0549387
-0.00986375
-0.00990266
-0.00993928
-0.00997463
-0.0100114
-0.0100472
-0.0100852
-0.0101305
-0.0101911
-0.0102697
-0.0103681
-0.0104845
-0.0106188
-0.0107695
-0.0109372
-0.0111229
-0.0113287
-0.0115567
-0.0118096
-0.0120908
-0.0124035
-0.0127507
-0.0131362
-0.0135626
-0.0140329
-0.0145505
-0.0151178
-0.0157379
-0.0164134
-0.0171472
-0.0179426
-0.0188001
-0.0197228
-0.0207064
-0.0217536
-0.0228653
-0.0240481
-0.025306
-0.0266378
-0.0280421
-0.0295159
-0.0310537
-0.0326488
-0.0342938
-0.035979
-0.0376921
-0.0394202
-0.041148
-0.0428609
-0.0445398
-0.0461704
-0.0477473
-0.0492384
-0.0506925
-0.052106
-0.0535057
-0.0547888
-0.0555811
-0.0566643
-0.0571285
-0.0107057
-0.010743
-0.010778
-0.0108111
-0.0108458
-0.0108797
-0.0109158
-0.01096
-0.0110199
-0.0110987
-0.0111981
-0.0113163
-0.0114532
-0.0116071
-0.0117792
-0.0119696
-0.0121815
-0.012416
-0.0126767
-0.0129667
-0.0132897
-0.0136485
-0.0140472
-0.0144885
-0.0149753
-0.0155113
-0.0160987
-0.0167409
-0.0174401
-0.0182
-0.0190223
-0.0199103
-0.0208625
-0.0218807
-0.0229624
-0.0241114
-0.0253338
-0.0266338
-0.02801
-0.0294607
-0.0309828
-0.0325703
-0.0342159
-0.0359118
-0.0376477
-0.0394102
-0.0411858
-0.0429573
-0.0447103
-0.046424
-0.0480889
-0.0496913
-0.0512095
-0.0526912
-0.0541356
-0.0555714
-0.0568905
-0.0577144
-0.0588398
-0.0593352
-0.0115393
-0.0115727
-0.0116039
-0.0116339
-0.0116653
-0.0116966
-0.0117307
-0.0117738
-0.0118338
-0.0119138
-0.0120152
-0.0121363
-0.0122767
-0.012435
-0.0126119
-0.0128083
-0.0130267
-0.0132691
-0.0135386
-0.0138388
-0.0141732
-0.014545
-0.0149583
-0.0154158
-0.0159206
-0.0164763
-0.0170854
-0.0177509
-0.0184756
-0.0192622
-0.0201139
-0.0210315
-0.0220178
-0.0230687
-0.0241869
-0.025374
-0.0266371
-0.0279805
-0.0294025
-0.0309012
-0.0324733
-0.0341122
-0.0358102
-0.0375587
-0.0393468
-0.0411601
-0.0429844
-0.0448007
-0.0465946
-0.0483436
-0.0500427
-0.051671
-0.0532151
-0.0547229
-0.056197
-0.0576688
-0.0590241
-0.0598809
-0.0610502
-0.0615807
-0.0123576
-0.012389
-0.0124185
-0.0124465
-0.0124765
-0.0125064
-0.0125395
-0.0125824
-0.0126428
-0.0127241
-0.0128275
-0.0129515
-0.0130956
-0.0132582
-0.0134405
-0.0136428
-0.0138686
-0.014119
-0.014398
-0.0147089
-0.0150557
-0.0154414
-0.0158704
-0.0163453
-0.0168694
-0.0174463
-0.0180785
-0.018769
-0.0195201
-0.0203355
-0.021217
-0.0221675
-0.0231859
-0.0242732
-0.0254278
-0.0266542
-0.0279591
-0.0293469
-0.0308156
-0.0323631
-0.0339858
-0.0356765
-0.037427
-0.039228
-0.0410681
-0.042932
-0.0448045
-0.0466653
-0.0484995
-0.050284
-0.0520169
-0.0536702
-0.0552395
-0.0567732
-0.0582771
-0.0597846
-0.0611756
-0.0620643
-0.0632771
-0.0638407
-0.0131828
-0.0132103
-0.0132356
-0.0132593
-0.013285
-0.0133107
-0.0133408
-0.0133812
-0.0134408
-0.0135222
-0.0136273
-0.0137538
-0.0139017
-0.0140693
-0.0142574
-0.0144672
-0.0147011
-0.0149616
-0.0152516
-0.0155754
-0.0159362
-0.0163377
-0.0167841
-0.0172782
-0.0178231
-0.0184227
-0.0190793
-0.019796
-0.0205754
-0.0214203
-0.0223338
-0.0233164
-0.0243709
-0.0254929
-0.026686
-0.0279526
-0.0293005
-0.030734
-0.0322509
-0.0338487
-0.0355236
-0.037268
-0.0390727
-0.0409281
-0.0428219
-0.0447379
-0.04666
-0.0485665
-0.050442
-0.0522622
-0.0540288
-0.0557074
-0.0573008
-0.0588583
-0.06039
-0.0619323
-0.0633587
-0.0642803
-0.065538
-0.0661385
-0.0139852
-0.0140081
-0.0140292
-0.0140486
-0.0140708
-0.0140938
-0.0141219
-0.0141616
-0.0142216
-0.0143049
-0.0144131
-0.0145441
-0.0146976
-0.0148719
-0.0150681
-0.0152866
-0.0155309
-0.0158026
-0.0161053
-0.0164429
-0.0168192
-0.0172376
-0.0177027
-0.0182171
-0.0187841
-0.0194075
-0.0200897
-0.0208339
-0.0216423
-0.0225184
-0.0234638
-0.0244815
-0.0255699
-0.0267305
-0.0279624
-0.0292707
-0.0306628
-0.032143
-0.0337089
-0.0353577
-0.0370855
-0.0388838
-0.040743
-0.0426529
-0.0446002
-0.0465682
-0.0485396
-0.0504914
-0.0524078
-0.054264
-0.0560635
-0.0577668
-0.0593831
-0.0609639
-0.0625227
-0.0640986
-0.0655592
-0.0665119
-0.0678135
-0.0684486
-0.0147974
-0.0148084
-0.0148194
-0.0148316
-0.0148476
-0.0148669
-0.0148927
-0.0149324
-0.0149937
-0.0150804
-0.0151928
-0.0153298
-0.0154898
-0.0156724
-0.0158771
-0.0161061
-0.0163615
-0.0166461
-0.0169625
-0.0173156
-0.0177086
-0.0181452
-0.0186299
-0.0191656
-0.0197554
-0.0204034
-0.021112
-0.0218843
-0.0227228
-0.0236302
-0.0246095
-0.0256611
-0.0267877
-0.0279853
-0.0292582
-0.0306094
-0.0320469
-0.0335751
-0.0351912
-0.0368926
-0.0386747
-0.0405288
-0.0424445
-0.0444107
-0.0464135
-0.0484351
-0.050457
-0.0524554
-0.0544135
-0.056306
-0.0581384
-0.0598665
-0.0615046
-0.063106
-0.0646893
-0.0662971
-0.0677908
-0.0687755
-0.0701223
-0.0707952
-0.0154864
-0.0155015
-0.0155177
-0.015534
-0.0155571
-0.0155839
-0.0156197
-0.0156698
-0.015743
-0.0158412
-0.0159662
-0.0161146
-0.0162869
-0.0164807
-0.0166977
-0.0169384
-0.0172066
-0.0175042
-0.0178349
-0.0182031
-0.0186127
-0.0190672
-0.0195714
-0.0201283
-0.020741
-0.0214137
-0.0221488
-0.0229495
-0.0238181
-0.024758
-0.0257706
-0.0268592
-0.0280218
-0.0292603
-0.0305744
-0.0319697
-0.0334538
-0.035031
-0.0366983
-0.0384528
-0.0402899
-0.0422002
-0.0441725
-0.0461952
-0.0482534
-0.0503285
-0.0524007
-0.0544454
-0.0564447
-0.0583733
-0.0602378
-0.0619899
-0.0636488
-0.0652701
-0.0668766
-0.0685143
-0.0700391
-0.0710534
-0.072444
-0.0731523
-0.0164896
-0.0164914
-0.0164909
-0.0164908
-0.016495
-0.0165045
-0.0165235
-0.0165601
-0.0166218
-0.016712
-0.0168307
-0.0169762
-0.0171469
-0.0173422
-0.0175618
-0.017808
-0.0180832
-0.0183905
-0.0187323
-0.0191138
-0.0195384
-0.0200098
-0.0205326
-0.0211098
-0.0217447
-0.0224416
-0.0232028
-0.0240316
-0.0249306
-0.0259024
-0.0269501
-0.0280738
-0.0292766
-0.030554
-0.0319115
-0.033352
-0.0348838
-0.0365112
-0.0382311
-0.0400403
-0.0419342
-0.0439026
-0.0459336
-0.0480147
-0.0501303
-0.0522605
-0.0543845
-0.0564764
-0.0585177
-0.0604825
-0.0623788
-0.0641549
-0.0658332
-0.0674715
-0.0690982
-0.0707635
-0.0723181
-0.0733626
-0.0747981
-0.0755446
-0.0172794
-0.0172889
-0.0172979
-0.0173057
-0.0173196
-0.0173376
-0.0173659
-0.0174107
-0.0174811
-0.017579
-0.0177056
-0.0178576
-0.0180353
-0.0182363
-0.0184626
-0.018715
-0.0189978
-0.0193129
-0.0196644
-0.0200567
-0.020494
-0.0209798
-0.0215192
-0.022115
-0.0227705
-0.0234903
-0.0242765
-0.0251328
-0.0260613
-0.0270655
-0.0281468
-0.0293084
-0.0305482
-0.0318686
-0.0332693
-0.0347563
-0.0363371
-0.0380159
-0.0397892
-0.0416541
-0.0436054
-0.0456325
-0.0477226
-0.0498626
-0.0520356
-0.0542208
-0.0563961
-0.0585348
-0.0606174
-0.062618
-0.0645449
-0.0663441
-0.0680407
-0.0696952
-0.0713406
-0.0730312
-0.0746126
-0.0756847
-0.0771632
-0.0779455
-0.0183952
-0.018394
-0.018389
-0.0183829
-0.0183798
-0.0183815
-0.018393
-0.0184232
-0.0184803
-0.0185675
-0.0186848
-0.0188303
-0.0190023
-0.0192002
-0.0194241
-0.0196767
-0.0199608
-0.0202798
-0.0206367
-0.0210369
-0.0214839
-0.0219816
-0.0225351
-0.0231471
-0.0238213
-0.024562
-0.0253719
-0.0262542
-0.0272115
-0.0282467
-0.0293628
-0.0305597
-0.0318408
-0.0332015
-0.0346477
-0.0361822
-0.0378132
-0.0395448
-0.0413733
-0.0432956
-0.0453065
-0.0473944
-0.049546
-0.0517469
-0.0539794
-0.0562213
-0.0584495
-0.0606358
-0.0627602
-0.0647963
-0.0667536
-0.0685753
-0.0702886
-0.0719564
-0.0736173
-0.0753305
-0.0769373
-0.0780375
-0.0795599
-0.0803807
-0.0193056
-0.0193174
-0.019327
-0.0193336
-0.0193438
-0.0193563
-0.0193778
-0.0194154
-0.019479
-0.0195705
-0.0196916
-0.0198386
-0.0200123
-0.0202102
-0.020435
-0.0206875
-0.0209731
-0.0212936
-0.0216539
-0.0220586
-0.0225124
-0.0230187
-0.0235833
-0.0242089
-0.0248991
-0.0256587
-0.0264901
-0.0273969
-0.0283815
-0.0294474
-0.0305962
-0.031831
-0.0331497
-0.0345548
-0.0360459
-0.037629
-0.0393114
-0.0410971
-0.0429821
-0.0449631
-0.0470345
-0.0491843
-0.051398
-0.0536605
-0.0559528
-0.0582513
-0.0605318
-0.0627652
-0.0649303
-0.0670009
-0.0689869
-0.0708302
-0.0725592
-0.0742395
-0.0759141
-0.0776473
-0.0792762
-0.0804017
-0.0819662
-0.0828232
-0.02054
-0.0205512
-0.0205549
-0.0205527
-0.0205501
-0.0205477
-0.0205526
-0.0205737
-0.0206213
-0.0206983
-0.0208057
-0.0209412
-0.0211039
-0.0212931
-0.0215098
-0.0217566
-0.0220375
-0.0223557
-0.0227153
-0.0231215
-0.023579
-0.0240913
-0.0246644
-0.0253008
-0.0260047
-0.0267807
-0.0276316
-0.028561
-0.0295717
-0.0306666
-0.0318488
-0.0331184
-0.0344786
-0.0359246
-0.0374628
-0.0390954
-0.0408306
-0.0426722
-0.0446157
-0.0466577
-0.0487923
-0.0510065
-0.0532849
-0.0556114
-0.0579657
-0.0603228
-0.062657
-0.0649381
-0.0671443
-0.0692489
-0.0712632
-0.0731268
-0.0748694
-0.0765591
-0.0782443
-0.079995
-0.0816445
-0.0827957
-0.0844033
-0.0852995
-0.0216652
-0.0216818
-0.0216924
-0.0216976
-0.0217003
-0.0217014
-0.0217068
-0.0217267
-0.0217711
-0.0218438
-0.0219464
-0.022076
-0.0222334
-0.0224165
-0.0226282
-0.0228695
-0.0231465
-0.0234609
-0.0238186
-0.024224
-0.0246828
-0.0251983
-0.0257773
-0.0264221
-0.0271373
-0.0279275
-0.0287958
-0.0297462
-0.030781
-0.0319043
-0.0331175
-0.0344239
-0.0358214
-0.0373125
-0.0388968
-0.0405803
-0.0423697
-0.0442687
-0.0462725
-0.048377
-0.0505762
-0.0528563
-0.0552006
-0.0575919
-0.0600087
-0.0624244
-0.0648119