/*--------------------------------*- C++ -*----------------------------------*\
  =========                 |
  \\      /  F ield         | OpenFOAM: The Open Source CFD Toolbox
   \\    /   O peration     | Website:  https://openfoam.org
    \\  /    A nd           | Version:  6.0
     \\/     M anipulation  |
\*---------------------------------------------------------------------------*/
FoamFile
{
    version     2.0;
    format      ascii;
    class       surfaceScalarField;
    location    "10";
    object      phi;
}
// * * * * * * * * * * * * * * * * * * * * * * * * * * * * * * * * * * * * * //

dimensions      [0 3 -1 0 0 0 0];

internalField   nonuniform List<scalar> 
123526
(
2.77436e-05
2.33225e-05
-2.73474e-05
2.817e-05
2.52129e-05
2.86323e-05
2.72564e-05
2.91308e-05
2.94652e-05
2.96708e-05
3.18525e-05
3.02535e-05
3.44327e-05
3.08847e-05
3.72212e-05
3.15662e-05
4.02347e-05
3.23054e-05
4.34902e-05
3.31041e-05
4.70086e-05
3.39692e-05
5.08111e-05
3.49031e-05
5.49196e-05
3.59146e-05
5.93584e-05
3.7009e-05
6.41513e-05
3.81972e-05
6.93277e-05
3.94803e-05
7.49218e-05
4.08693e-05
8.0963e-05
4.23757e-05
8.748e-05
4.40094e-05
9.45184e-05
4.57743e-05
0.000102119
4.76905e-05
0.000110315
4.9767e-05
0.000119157
5.20125e-05
0.000128701
5.44519e-05
0.000138979
5.7091e-05
0.000150067
5.99496e-05
0.000162008
6.30476e-05
0.000174864
6.63979e-05
0.000188704
7.00291e-05
0.00020358
7.39531e-05
0.000219574
7.8202e-05
0.000236736
8.27921e-05
0.000255148
8.77544e-05
0.000274863
9.3114e-05
0.000295949
9.88959e-05
0.000318461
0.000105136
0.000342438
0.000111855
0.000367925
0.000119088
0.000394927
0.000126865
0.000423435
0.000135211
0.000453409
0.000144154
0.000484757
0.000153719
0.000517332
0.000163924
0.000550919
0.00017478
0.000585204
0.000186293
0.000619753
0.000198457
0.000653978
0.000211252
0.000687105
0.000224642
0.000718117
0.000238567
0.000745709
0.000252936
0.000768222
0.000267622
0.000783575
0.000282444
0.000789206
0.000297166
0.000781977
0.000311465
0.000758142
0.000324941
0.000713226
0.000337085
0.000642013
0.000347276
0.000538642
0.000354582
0.000396214
0.000358168
0.000210173
-1.70465e-05
0.00036555
2.72486e-05
2.29356e-05
-2.68601e-05
2.76664e-05
2.47948e-05
2.81191e-05
2.68047e-05
2.86072e-05
2.8977e-05
2.91359e-05
3.13247e-05
2.97064e-05
3.38621e-05
3.03243e-05
3.66041e-05
3.09915e-05
3.95671e-05
3.17153e-05
4.27672e-05
3.24976e-05
4.6226e-05
3.33449e-05
4.99646e-05
3.426e-05
5.40041e-05
3.52512e-05
5.83682e-05
3.63239e-05
6.30781e-05
3.74888e-05
6.8164e-05
3.8747e-05
7.36632e-05
4.01093e-05
7.96018e-05
4.15872e-05
8.6002e-05
4.31901e-05
9.29166e-05
4.49223e-05
0.000100387
4.68032e-05
0.000108435
4.8842e-05
0.000117119
5.10469e-05
0.000126497
5.34428e-05
0.000136583
5.60353e-05
0.000147476
5.88441e-05
0.0001592
6.18887e-05
0.00017182
6.51821e-05
0.000185411
6.87521e-05
0.000200011
7.26111e-05
0.000215716
7.67898e-05
0.000232558
8.1305e-05
0.000250634
8.61865e-05
0.000269983
9.14589e-05
0.000290678
9.71465e-05
0.000312775
0.000103284
0.000336301
0.000109893
0.000361317
0.000117006
0.000387816
0.000124652
0.00041579
0.000132855
0.000445207
0.000141641
0.000475971
0.000151034
0.000507939
0.000161053
0.000540901
0.000171708
0.000574549
0.000183006
0.000608454
0.000194942
0.000642041
0.000207499
0.000674546
0.000220643
0.000704971
0.000234317
0.000732033
0.000248432
0.000754104
0.000262862
0.000769143
0.000277426
0.000774641
0.000291891
0.000767522
0.000305939
0.000744112
0.000319175
0.000700024
0.000331087
0.000630145
0.000341105
0.000528693
0.00034843
0.00038899
0.000352002
0.000206768
-1.60718e-05
0.000351322
2.68994e-05
2.25553e-05
-2.65176e-05
2.73099e-05
2.43841e-05
2.77545e-05
2.6361e-05
2.82337e-05
2.84976e-05
2.87526e-05
3.08067e-05
2.93124e-05
3.33021e-05
2.99186e-05
3.59987e-05
3.05731e-05
3.89124e-05
3.12829e-05
4.20583e-05
3.20499e-05
4.54586e-05
3.28807e-05
4.91347e-05
3.37779e-05
5.31065e-05
3.47498e-05
5.73974e-05
3.58018e-05
6.20257e-05
3.69442e-05
6.70227e-05
3.81785e-05
7.24287e-05
3.95151e-05
7.82664e-05
4.09654e-05
8.45516e-05
4.25388e-05
9.13444e-05
4.42394e-05
9.86865e-05
4.60864e-05
0.000106589
4.80889e-05
0.000115117
5.02549e-05
0.000124332
5.2609e-05
0.00013423
5.51565e-05
0.000144929
5.79169e-05
0.00015644
6.09092e-05
0.000168829
6.41463e-05
0.000182175
6.76553e-05
0.000196503
7.14483e-05
0.000211924
7.55553e-05
0.000228452
7.99927e-05
0.000246197
8.47894e-05
0.000265188
8.99694e-05
0.0002855
9.55558e-05
0.000307191
0.000101583
0.000330276
0.000108071
0.00035483
0.000115052
0.000380837
0.000122554
0.000408289
0.000130601
0.000437161
0.000139219
0.000467355
0.000148431
0.000498727
0.000158257
0.000531076
0.000168707
0.000564098
0.00017979
0.000597371
0.000191503
0.000630328
0.000203831
0.000662218
0.000216738
0.000692062
0.000230171
0.000718599
0.000244038
0.000740235
0.000258216
0.000754967
0.000272521
0.000760335
0.000286725
0.000753327
0.000300514
0.000730334
0.000313497
0.000687058
0.000325169
0.00061849
0.000334979
0.000518907
0.000342197
0.00038179
0.000346103
0.000202881
-1.65549e-05
0.000346574
2.65309e-05
2.21822e-05
-2.61564e-05
2.69337e-05
2.3981e-05
2.73702e-05
2.59253e-05
2.78411e-05
2.80265e-05
2.83512e-05
3.02974e-05
2.89018e-05
3.27513e-05
2.94981e-05
3.54031e-05
3.0142e-05
3.82682e-05
3.08405e-05
4.13606e-05
3.15953e-05
4.47034e-05
3.24128e-05
4.8318e-05
3.32956e-05
5.22233e-05
3.42518e-05
5.64421e-05
3.52867e-05
6.09904e-05
3.64105e-05
6.59e-05
3.76244e-05
7.12144e-05
3.89388e-05
7.69531e-05
4.0365e-05
8.31254e-05
4.19119e-05
8.97985e-05
4.35839e-05
9.70146e-05
4.53996e-05
0.000104774
4.7368e-05
0.000113149
4.94971e-05
0.000122204
5.18108e-05
0.000131917
5.43144e-05
0.000142426
5.7027e-05
0.000153728
5.99673e-05
0.00016589
6.31478e-05
0.000178996
6.65949e-05
0.000193057
7.03206e-05
0.000208199
7.43541e-05
0.00022442
7.87113e-05
0.000241841
8.34206e-05
0.00026048
8.85051e-05
0.000280417
9.39877e-05
0.00030171
9.99014e-05
0.000324364
0.000106266
0.000348467
0.000113113
0.000373992
0.000120471
0.000400933
0.000128363
0.000429271
0.000136814
0.000458906
0.00014585
0.000489693
0.000155488
0.00052144
0.000165742
0.000553846
0.000176621
0.000586495
0.000188121
0.00061883
0.000200228
0.000650114
0.000212909
0.000679384
0.000226107
0.000705405
0.000239733
0.000726612
0.000253661
0.000741046
0.000267711
0.000746293
0.000281656
0.000739402
0.000295187
0.000716832
0.000307922
0.000674365
0.000319365
0.0006071
0.000328969
0.000509382
0.00033604
0.000374828
0.000339994
0.000199105
-1.70287e-05
0.000340777
2.61379e-05
2.18165e-05
-2.57708e-05
2.65331e-05
2.35856e-05
2.69614e-05
2.54979e-05
2.74238e-05
2.75642e-05
2.79247e-05
2.97972e-05
2.84656e-05
3.22103e-05
2.90516e-05
3.48178e-05
2.96847e-05
3.76349e-05
3.03715e-05
4.06745e-05
3.11139e-05
4.39607e-05
3.19181e-05
4.75147e-05
3.27866e-05
5.13544e-05
3.37273e-05
5.55024e-05
3.47455e-05
5.99719e-05
3.58509e-05
6.47956e-05
3.70451e-05
7.00201e-05
3.83379e-05
7.56614e-05
3.97405e-05
8.17228e-05
4.12616e-05
8.82784e-05
4.29054e-05
9.53709e-05
4.46903e-05
0.000102991
4.6625e-05
0.000111214
4.87174e-05
0.000120113
5.09908e-05
0.000129644
5.34507e-05
0.000139968
5.61155e-05
0.000151064
5.90036e-05
0.000163003
6.21273e-05
0.000175873
6.55125e-05
0.000189673
6.91709e-05
0.000204542
7.3131e-05
0.00022046
7.74085e-05
0.000237565
8.2031e-05
0.000255859
8.70216e-05
0.000275429
9.24022e-05
0.000296331
9.82055e-05
0.000318563
0.000104451
0.000342223
0.000111169
0.000367276
0.000118389
0.000393715
0.000126132
0.000421529
0.000134426
0.000450614
0.000143294
0.000480827
0.000152755
0.000511981
0.000162823
0.000543779
0.000173507
0.000575812
0.000184804
0.000607534
0.0001967
0.000638218
0.000209161
0.000666923
0.000222132
0.000692436
0.00023552
0.000713223
0.000249204
0.000727365
0.000263002
0.000732494
0.000276693
0.000725718
0.000289973
0.00070356
0.000302467
0.000661884
0.000313695
0.000595883
0.000323107
0.000499984
0.00033003
0.00036791
0.000333891
0.000195242
-1.78657e-05
0.000334679
2.57605e-05
2.1457e-05
-2.53997e-05
2.6149e-05
2.3197e-05
2.65701e-05
2.50776e-05
2.70245e-05
2.71097e-05
2.75167e-05
2.93057e-05
2.80482e-05
3.16788e-05
2.86238e-05
3.42429e-05
2.92457e-05
3.70129e-05
2.99202e-05
4.00007e-05
3.06496e-05
4.32311e-05
3.14394e-05
4.67255e-05
3.22927e-05
5.05008e-05
3.32168e-05
5.45791e-05
3.42171e-05
5.89712e-05
3.53031e-05
6.37105e-05
3.64764e-05
6.88465e-05
3.77465e-05
7.43922e-05
3.91244e-05
8.03448e-05
4.06187e-05
8.67851e-05
4.22335e-05
9.37562e-05
4.39867e-05
0.000101238
4.5887e-05
0.000109314
4.79419e-05
0.000118059
5.01746e-05
0.000127412
5.259e-05
0.000137553
5.52067e-05
0.000148448
5.80424e-05
0.000160168
6.11092e-05
0.000172807
6.44327e-05
0.00018635
6.80241e-05
0.000200951
7.19115e-05
0.000216574
7.61103e-05
0.000233367
8.06479e-05
0.000251323
8.55463e-05
0.000270532
9.08279e-05
0.000291052
9.65243e-05
0.000312868
0.000102655
0.000336095
0.000109249
0.000360683
0.000116336
0.000386631
0.000123939
0.000413929
0.000132082
0.000442474
0.00014079
0.000472121
0.000150083
0.000502691
0.000159973
0.000533892
0.00017047
0.000565319
0.000181571
0.000596436
0.000193261
0.000626532
0.000205507
0.000654682
0.000218253
0.000679697
0.000231407
0.000700074
0.000244848
0.000713933
0.000258399
0.000718953
0.00027184
0.000712298
0.000284874
0.000690556
0.000297134
0.000649667
0.000308153
0.000584919
0.000317385
0.000490828
0.000324172
0.000361229
0.000327921
0.000191663
-1.8166e-05
0.00032852
2.54179e-05
2.11028e-05
-2.50625e-05
2.58007e-05
2.28142e-05
2.62152e-05
2.46639e-05
2.66625e-05
2.66625e-05
2.71465e-05
2.88224e-05
2.76691e-05
3.11562e-05
2.82347e-05
3.36779e-05
2.88456e-05
3.64019e-05
2.95079e-05
3.9339e-05
3.02241e-05
4.25148e-05
3.09993e-05
4.59509e-05
3.18369e-05
4.9663e-05
3.27438e-05
5.3673e-05
3.37257e-05
5.79891e-05
3.47914e-05
6.26456e-05
3.59429e-05
6.76949e-05
3.71893e-05
7.31468e-05
3.85417e-05
7.89925e-05
4.00082e-05
8.53195e-05
4.15931e-05
9.21714e-05
4.33137e-05
9.95187e-05
4.51788e-05
0.000107449
4.71956e-05
0.000116043
4.93869e-05
0.000125221
5.17577e-05
0.000135183
5.43259e-05
0.00014588
5.71091e-05
0.000157386
6.01193e-05
0.000169797
6.33813e-05
0.000183089
6.69064e-05
0.000197427
7.07222e-05
0.000212759
7.48438e-05
0.000229246
7.92977e-05
0.00024687
8.41064e-05
0.000265725
8.92914e-05
0.000285869
9.4884e-05
0.000307278
0.000100903
0.000330077
0.000107379
0.00035421
0.000114338
0.000379673
0.000121804
0.000406465
0.000129802
0.000434478
0.000138357
0.000463568
0.000147486
0.000493563
0.000157204
0.000524175
0.000167519
0.000555006
0.000178428
0.000585528
0.000189916
0.000615045
0.000201949
0.000642648
0.000214471
0.000667175
0.000227393
0.000687151
0.000240594
0.000700733
0.000253898
0.000705646
0.000267091
0.000699108
0.000279883
0.000677768
0.000291914
0.000637644
0.000302728
0.000574109
0.000311788
0.000481772
0.000318454
0.000354554
0.000322103
0.000187992
-1.86027e-05
0.000322456
2.51149e-05
2.07537e-05
-2.47645e-05
2.5492e-05
2.24371e-05
2.59e-05
2.42566e-05
2.63401e-05
2.62225e-05
2.68162e-05
2.83469e-05
2.733e-05
3.06425e-05
2.78857e-05
3.31227e-05
2.84859e-05
3.58017e-05
2.91361e-05
3.86893e-05
2.98391e-05
4.18118e-05
3.05998e-05
4.51907e-05
3.14215e-05
4.8841e-05
3.23111e-05
5.2784e-05
3.32741e-05
5.70258e-05
3.43193e-05
6.16011e-05
3.54487e-05
6.65653e-05
3.66711e-05
7.19252e-05
3.79975e-05
7.7666e-05
3.94359e-05
8.3882e-05
4.09905e-05
9.0617e-05
4.26782e-05
9.78317e-05
4.4508e-05
0.00010562
4.64865e-05
0.000114065
4.86365e-05
0.000123071
5.09626e-05
0.000132858
5.34827e-05
0.000143361
5.62138e-05
0.000154655
5.91678e-05
0.000166844
6.23692e-05
0.000179888
6.5829e-05
0.000193968
6.95744e-05
0.000209014
7.362e-05
0.000225201
7.79926e-05
0.000242499
8.27133e-05
0.000261006
8.78042e-05
0.00028078
9.32956e-05
0.000301788
9.92068e-05
0.000324168
0.000105566
0.000347852
0.000112402
0.000372839
0.000119736
0.000399133
0.000127593
0.000426623
0.000135998
0.000455165
0.000144969
0.000484596
0.000154518
0.000514629
0.000164654
0.000544874
0.000175373
0.000574813
0.000186661
0.000603762
0.000198483
0.000630832
0.000210783
0.000654882
0.000223473
0.000674467
0.000236434
0.000687783
0.000249493
0.000692597
0.000262441
0.00068618
0.000274994
0.000665245
0.000286798
0.000625881
0.000297411
0.000563549
0.000306305
0.000472951
0.000312857
0.000348105
0.000316417
0.000184593
-1.84451e-05
0.000316543
2.48447e-05
2.04103e-05
-2.45001e-05
2.52156e-05
2.20664e-05
2.56165e-05
2.38564e-05
2.60491e-05
2.57902e-05
2.65167e-05
2.78798e-05
2.70216e-05
3.01379e-05
2.75673e-05
3.25774e-05
2.81567e-05
3.52124e-05
2.87949e-05
3.80515e-05
2.94849e-05
4.11218e-05
3.02313e-05
4.44448e-05
3.10375e-05
4.80346e-05
3.191e-05
5.19121e-05
3.28547e-05
5.6081e-05
3.38797e-05
6.05768e-05
3.49873e-05
6.54576e-05
3.6186e-05
7.07272e-05
3.74868e-05
7.63653e-05
3.88973e-05
8.24723e-05
4.04221e-05
8.90924e-05
4.20773e-05
9.61772e-05
4.38721e-05
0.000103826
4.58129e-05
0.000112125
4.7922e-05
0.000120963
5.02041e-05
0.000130576
5.26768e-05
0.000140889
5.53567e-05
0.000151976
5.82556e-05
0.000163946
6.13976e-05
0.000176747
6.47934e-05
0.000190573
6.84698e-05
0.000205339
7.24415e-05
0.000221231
7.67341e-05
0.000238207
8.13694e-05
0.000256372
8.63682e-05
0.000275782
9.17611e-05
0.000296397
9.75668e-05
0.000318364
0.000103813
0.000341607
0.000110528
0.000366126
0.000117733
0.00039193
0.000125453
0.000418905
0.000133711
0.000446909
0.000142526
0.000475783
0.000151909
0.000505247
0.000161868
0.000534916
0.000172399
0.000564282
0.000183488
0.000592674
0.0001951
0.00061922
0.000207179
0.000642803
0.000219638
0.000662006
0.00023236
0.00067506
0.000245177
0.000679775
0.000257883
0.000673473
0.000270199
0.000652928
0.000281781
0.000614301
0.000292196
0.00055313
0.000300928
0.000464213
0.000307366
0.000341645
0.000310843
0.000181072
-1.85034e-05
0.000310783
2.45929e-05
2.00732e-05
-2.42546e-05
2.4957e-05
2.17025e-05
2.53506e-05
2.34635e-05
2.57753e-05
2.53657e-05
2.62344e-05
2.74213e-05
2.67301e-05
2.96425e-05
2.72659e-05
3.20421e-05
2.78446e-05
3.46338e-05
2.84711e-05
3.74253e-05
2.91484e-05
4.04445e-05
2.9881e-05
4.37127e-05
3.06722e-05
4.72432e-05
3.15283e-05
5.10565e-05
3.24551e-05
5.51539e-05
3.34607e-05
5.95718e-05
3.45473e-05
6.43709e-05
3.57232e-05
6.9552e-05
3.69993e-05
7.50892e-05
3.83829e-05
8.10893e-05
3.98787e-05
8.75969e-05
4.15025e-05
9.45541e-05
4.32633e-05
0.000102065
4.51674e-05
0.000110222
4.72369e-05
0.000118894
4.94762e-05
0.000128338
5.19026e-05
0.000138463
5.45327e-05
0.000149347
5.7378e-05
0.000161101
6.0462e-05
0.000173664
6.37955e-05
0.00018724
6.74047e-05
0.00020173
7.13041e-05
0.000217332
7.55191e-05
0.000233994
8.00706e-05
0.000251822
8.49799e-05
0.000270875
9.02765e-05
0.000291102
9.5979e-05
0.000312663
0.000102115
0.000335473
0.000108712
0.000359532
0.00011579
0.000384854
0.000123375
0.000411322
0.000131489
0.000438797
0.000140149
0.000467126
0.000149368
0.000496032
0.000159151
0.000525136
0.000169497
0.000553941
0.000180388
0.000581788
0.00019179
0.000607823
0.000203649
0.000630951
0.000215879
0.000649783
0.000228365
0.000662584
0.000240942
0.000667207
0.000253408
0.000661026
0.000265492
0.000640872
0.000276855
0.000602976
0.000287076
0.000542958
0.000295647
0.00045571
0.000301971
0.000335415
0.000305369
0.000177823
-1.80337e-05
0.000305165
2.43442e-05
1.97427e-05
-2.40125e-05
2.47013e-05
2.13457e-05
2.50874e-05
2.3078e-05
2.55043e-05
2.49492e-05
2.59548e-05
2.69712e-05
2.64415e-05
2.91561e-05
2.69675e-05
3.15165e-05
2.75358e-05
3.40657e-05
2.8151e-05
3.68105e-05
2.88162e-05
3.97793e-05
2.95354e-05
4.29939e-05
3.03125e-05
4.64661e-05
3.1153e-05
5.02165e-05
3.2063e-05
5.42438e-05
3.30501e-05
5.85852e-05
3.41169e-05
6.33042e-05
3.5271e-05
6.83985e-05
3.65236e-05
7.38368e-05
3.78816e-05
7.9732e-05
3.93497e-05
8.61291e-05
4.09434e-05
9.2961e-05
4.26716e-05
0.000100337
4.45405e-05
0.000108354
4.65718e-05
0.000116863
4.87698e-05
0.000126141
5.11517e-05
0.000136082
5.37335e-05
0.000146766
5.65268e-05
0.000158309
5.95546e-05
0.000170637
6.28276e-05
0.000183968
6.63715e-05
0.000198187
7.02008e-05
0.000213504
7.43398e-05
0.000229856
7.881e-05
0.000247353
8.36316e-05
0.000266055
8.88341e-05
0.000285901
9.44357e-05
0.000307063
0.000100464
0.000329447
0.000106944
0.000353053
0.000113898
0.000377901
0.00012135
0.000403872
0.000129321
0.000430827
0.000137829
0.00045862
0.000146884
0.000486977
0.000156495
0.000515527
0.000166655
0.00054378
0.00017735
0.000571093
0.000188545
0.000596627
0.000200186
0.000619309
0.000212189
0.000637776
0.000224441
0.00065033
0.000236781
0.00065486
0.000249011
0.000648791
0.000260867
0.000629012
0.000272016
0.000591824
0.000282047
0.000532919
0.00029046
0.000447283
0.000296668
0.000329175
0.000299987
0.000174445
-1.78648e-05
0.000299673
2.40876e-05
1.94186e-05
-2.37624e-05
2.44381e-05
2.09955e-05
2.4817e-05
2.26997e-05
2.52262e-05
2.45404e-05
2.56685e-05
2.65294e-05
2.61464e-05
2.86786e-05
2.66629e-05
3.10005e-05
2.7221e-05
3.35078e-05
2.78253e-05
3.62066e-05
2.84787e-05
3.9126e-05
2.91852e-05
4.22877e-05
2.99486e-05
4.57027e-05
3.07742e-05
4.93912e-05
3.16682e-05
5.33498e-05
3.26378e-05
5.76161e-05
3.36857e-05
6.22563e-05
3.48192e-05
6.72655e-05
3.60495e-05
7.26067e-05
3.73832e-05
7.83989e-05
3.8825e-05
8.46876e-05
4.03901e-05
9.13966e-05
4.20872e-05
9.86407e-05
4.39225e-05
0.000106519
4.59172e-05
0.000114869
4.80756e-05
0.000123983
5.04146e-05
0.000133743
5.295e-05
0.000144231
5.56931e-05
0.000155566
5.86666e-05
0.000167664
6.18811e-05
0.000180754
6.53617e-05
0.000194707
6.91224e-05
0.000209744
7.3188e-05
0.000225791
7.75786e-05
0.000242964
8.23147e-05
0.00026132
8.74251e-05
0.000280792
9.29277e-05
0.000301562
9.88492e-05
0.000323527
0.000105215
0.000346689
0.000112047
0.000371072
0.000119367
0.000396555
0.000127198
0.000422999
0.000135555
0.000450266
0.000144449
0.000478086
0.000153887
0.000506092
0.000163865
0.000533807
0.000174365
0.000560598
0.000185354
0.000585644
0.00019678
0.00060789
0.000208559
0.000626004
0.000220581
0.000638318
0.000232688
0.000642762
0.000244687
0.00063681
0.000256319
0.000617407
0.000267258
0.000580922
0.000277102
0.000523123
0.000285359
0.00043909
0.000291451
0.000323172
0.000294693
0.000171343
-1.72159e-05
0.000294297
2.38171e-05
1.91007e-05
-2.34979e-05
2.41611e-05
2.06521e-05
2.45329e-05
2.23285e-05
2.49347e-05
2.41392e-05
2.53688e-05
2.60957e-05
2.58381e-05
2.82099e-05
2.63452e-05
3.04937e-05
2.68935e-05
3.29599e-05
2.7487e-05
3.56133e-05
2.81291e-05
3.84841e-05
2.88233e-05
4.15937e-05
2.95736e-05
4.49525e-05
3.03849e-05
4.85801e-05
3.12637e-05
5.2471e-05
3.22166e-05
5.66636e-05
3.32465e-05
6.12265e-05
3.43605e-05
6.61519e-05
3.55697e-05
7.13978e-05
3.68802e-05
7.7089e-05
3.82971e-05
8.3271e-05
3.98349e-05
8.98594e-05
4.15024e-05
9.69736e-05
4.33055e-05
0.000104716
4.52652e-05
0.00011291
4.73857e-05
0.000121863
4.96835e-05
0.000131446
5.21742e-05
0.000141741
5.48689e-05
0.000152872
5.77899e-05
0.000164744
6.09475e-05
0.000177597
6.43666e-05
0.000191289
6.80611e-05
0.00020605
7.20547e-05
0.000221798
7.63679e-05
0.000238652
8.10204e-05
0.000256669
8.60406e-05
0.000275773
9.14462e-05
0.000296157
9.72632e-05
0.000317711
0.000103517
0.000340436
0.000110228
0.000364362
0.000117418
0.000389366
0.00012511
0.000415309
0.000133318
0.000442059
0.000142053
0.000469351
0.000151321
0.000496825
0.000161117
0.000524011
0.000171425
0.00055029
0.000182212
0.000574855
0.000193425
0.000596675
0.000204983
0.000614442
0.00021678
0.000626518
0.000228658
0.000630874
0.000240431
0.000625031
0.000251844
0.000605987
0.000262578
0.00057018
0.000272239
0.000513449
0.000280343
0.000430965
0.00028632
0.000317155
0.000289486
0.000168103
-1.69227e-05
0.000289025
2.35302e-05
1.87887e-05
-2.32169e-05
2.3868e-05
2.03149e-05
2.4233e-05
2.19641e-05
2.46275e-05
2.37453e-05
2.50537e-05
2.56699e-05
2.55146e-05
2.77496e-05
2.60126e-05
2.9996e-05
2.65512e-05
3.24217e-05
2.71342e-05
3.50306e-05
2.77651e-05
3.78534e-05
2.84473e-05
4.09118e-05
2.91848e-05
4.42152e-05
2.99823e-05
4.77828e-05
3.08462e-05
5.16071e-05
3.1783e-05
5.57271e-05
3.27957e-05
6.02139e-05
3.38909e-05
6.50571e-05
3.50797e-05
7.02092e-05
3.63681e-05
7.5801e-05
3.7761e-05
8.18785e-05
3.92727e-05
8.83483e-05
4.09118e-05
9.5335e-05
4.26841e-05
0.000102945
4.46102e-05
0.000110984
4.66941e-05
0.00011978
4.89522e-05
0.000129188
5.13997e-05
0.000139294
5.40476e-05
0.000150225
5.69177e-05
0.000161874
6.00203e-05
0.000174495
6.33797e-05
0.00018793
6.70094e-05
0.000202421
7.09331e-05
0.000217876
7.51704e-05
0.000234415
7.97412e-05
0.000252099
8.46731e-05
0.000270843
8.99835e-05
0.000290848
9.56979e-05
0.000311998
0.000101841
0.000334295
0.000108433
0.000357772
0.000115496
0.000382305
0.00012305
0.000407757
0.000131111
0.000434001
0.000139689
0.000460776
0.000148789
0.000487729
0.000158406
0.000514398
0.000168525
0.000540176
0.000179112
0.000564274
0.000190116
0.000585679
0.000201458
0.000603107
0.000213033
0.000614953
0.000224687
0.000619228
0.000236238
0.000613495
0.000247438
0.000594813
0.000257972
0.00055968
0.000267454
0.000504011
0.000275408
0.00042307
0.00028127
0.000311376
0.000284363
0.000165139
-1.6177e-05
0.000283855
2.32271e-05
1.84824e-05
-2.29196e-05
2.35588e-05
1.99838e-05
2.39171e-05
2.16063e-05
2.43046e-05
2.33585e-05
2.4723e-05
2.52518e-05
2.51757e-05
2.72976e-05
2.56647e-05
2.95073e-05
2.61939e-05
3.1893e-05
2.67665e-05
3.4458e-05
2.73866e-05
3.72337e-05
2.80569e-05
4.02416e-05
2.87819e-05
4.34904e-05
2.95658e-05
4.69991e-05
3.04153e-05
5.07578e-05
3.13363e-05
5.48063e-05
3.23321e-05
5.92183e-05
3.3409e-05
6.39805e-05
3.45781e-05
6.90405e-05
3.5845e-05
7.45346e-05
3.72147e-05
8.05092e-05
3.87011e-05
8.68625e-05
4.03127e-05
9.37238e-05
4.20551e-05
0.000101203
4.39487e-05
0.000109091
4.59972e-05
0.000117732
4.82169e-05
0.000126969
5.06225e-05
0.000136889
5.32249e-05
0.000147623
5.60456e-05
0.000159054
5.90946e-05
0.000171447
6.23957e-05
0.00018463
6.59625e-05
0.000198855
6.98176e-05
0.000214021
7.3981e-05
0.000230253
7.84717e-05
0.00024761
8.33169e-05
0.000265999
8.85339e-05
0.000285633
9.41475e-05
0.000306386
0.000100182
0.000328262
0.000106657
0.000351299
0.000113594
0.00037537
0.000121013
0.000400339
0.000128929
0.000426086
0.000137352
0.000452354
0.000146286
0.000478794
0.000155727
0.000504956
0.000165659
0.000530243
0.00017605
0.000553881
0.000186849
0.000574877
0.000197979
0.000591971
0.000209337
0.000603591
0.000220773
0.000607781
0.000232108
0.000602152
0.000243099
0.000583814
0.000253438
0.000549331
0.000262745
0.000494688
0.000270552
0.000415237
0.000276302
0.000305578
0.000279325
0.000162031
-1.58181e-05
0.000278779
2.29097e-05
1.81815e-05
-2.26076e-05
2.32357e-05
1.96586e-05
2.35876e-05
2.12548e-05
2.39683e-05
2.29786e-05
2.43793e-05
2.48412e-05
2.4824e-05
2.68537e-05
2.53042e-05
2.90273e-05
2.5824e-05
3.13738e-05
2.63866e-05
3.38957e-05
2.69957e-05
3.66249e-05
2.76543e-05
3.95831e-05
2.83667e-05
4.27781e-05
2.91372e-05
4.62287e-05
2.99722e-05
4.99229e-05
3.08776e-05
5.3901e-05
3.18567e-05
5.82393e-05
3.29157e-05
6.29219e-05
3.40653e-05
6.78912e-05
3.53111e-05
7.32892e-05
3.66581e-05
7.91626e-05
3.81197e-05
8.54014e-05
3.97045e-05
9.21395e-05
4.14177e-05
9.94901e-05
4.32795e-05
0.00010723
4.52936e-05
0.000115718
4.74757e-05
0.000124788
4.98405e-05
0.000134525
5.23987e-05
0.000145066
5.51711e-05
0.000156283
5.81677e-05
0.000168451
6.1412e-05
0.000181386
6.49168e-05
0.00019535
6.87053e-05
0.000210234
7.27959e-05
0.000226163
7.72081e-05
0.000243198
8.19683e-05
0.000261239
8.70934e-05
0.000280509
9.26079e-05
0.000300873
9.85355e-05
0.000322336
0.000104895
0.00034494
0.000111708
0.000368559
0.000118994
0.000393056
0.000126767
0.000418316
0.000135037
0.000444087
0.000143809
0.000470026
0.000153077
0.000495692
0.000162826
0.000520499
0.000173025
0.000543688
0.000183623
0.000564285
0.000194545
0.000581056
0.000205692
0.000592455
0.000216914
0.000596565
0.000228038
0.000591043
0.000238825
0.000573051
0.000248974
0.000539216
0.00025811
0.000485594
0.000265774
0.00040763
0.000271414
0.000300017
0.000274368
0.0001592
-1.50239e-05
0.000273797
2.25809e-05
1.78859e-05
-2.22841e-05
2.29012e-05
1.93392e-05
2.32468e-05
2.09096e-05
2.36207e-05
2.26056e-05
2.40242e-05
2.44379e-05
2.4461e-05
2.64177e-05
2.49326e-05
2.85558e-05
2.54433e-05
3.08639e-05
2.59957e-05
3.33433e-05
2.65942e-05
3.60269e-05
2.72411e-05
3.89362e-05
2.79412e-05
4.20783e-05
2.86982e-05
4.54717e-05
2.9519e-05
4.91023e-05
3.04089e-05
5.30112e-05
3.13716e-05
5.7277e-05
3.24126e-05
6.18811e-05
3.3543e-05
6.67612e-05
3.47679e-05
7.20647e-05
3.60925e-05
7.78385e-05
3.75296e-05
8.39646e-05
3.9088e-05
9.05817e-05
4.07726e-05
9.7806e-05
4.26032e-05
0.0001054
4.45834e-05
0.000113739
4.67287e-05
0.000122643
4.90535e-05
0.000132201
5.15681e-05
0.000142552
5.42933e-05
0.000153558
5.72386e-05
0.000165506
6.0427e-05
0.000178198
6.38715e-05
0.000191907
6.75939e-05
0.000206512
7.16135e-05
0.000222145
7.59485e-05
0.000238864
8.06252e-05
0.000256564
8.56601e-05
0.000275476
9.10771e-05
0.000295458
9.68995e-05
0.000316515
0.000103146
0.000338695
0.000109837
0.000361869
0.000116992
0.000385902
0.000124625
0.000410684
0.000132745
0.000435967
0.000141356
0.000461415
0.000150455
0.000486593
0.000160024
0.000510928
0.000170034
0.000533675
0.000180436
0.00055388
0.000191156
0.00057033
0.000202095
0.00058151
0.000213109
0.000585539
0.000224028
0.000580114
0.000234616
0.000562452
0.000244579
0.000529241
0.000253548
0.000476605
0.000261072
0.000400075
0.000266606
0.00029443
0.000269494
0.000156216
-1.46393e-05
0.000268905
2.22436e-05
1.75956e-05
-2.19521e-05
2.25583e-05
1.90255e-05
2.28977e-05
2.05707e-05
2.3265e-05
2.22392e-05
2.36612e-05
2.40419e-05
2.40902e-05
2.59896e-05
2.45533e-05
2.80929e-05
2.50548e-05
3.03631e-05
2.55973e-05
3.28008e-05
2.61851e-05
3.54395e-05
2.68205e-05
3.83007e-05
2.75082e-05
4.13908e-05
2.8252e-05
4.47279e-05
2.90585e-05
4.8296e-05
2.9933e-05
5.21367e-05
3.08791e-05
5.63311e-05
3.19024e-05
6.0858e-05
3.30136e-05
6.56503e-05
3.42178e-05
7.08608e-05
3.55201e-05
7.65368e-05
3.6933e-05
8.25521e-05
3.84652e-05
8.905e-05
4.01215e-05
9.61502e-05
4.19212e-05
0.0001036
4.38679e-05
0.000111792
4.5977e-05
0.000120534
4.82623e-05
0.000129916
5.07341e-05
0.00014008
5.34127e-05
0.00015088
5.63075e-05
0.000162612
5.9441e-05
0.000175065
6.28258e-05
0.000188522
6.64839e-05
0.000202854
7.04332e-05
0.000218196
7.46924e-05
0.000234606
7.9287e-05
0.00025197
8.42331e-05
0.000270531
8.95542e-05
0.000290138
9.52732e-05
0.000310797
0.000101408
0.000332562
0.000107979
0.0003553
0.000115005
0.000378878
0.0001225
0.000403192
0.000130473
0.000427997
0.000138927
0.000452964
0.000147859
0.000477665
0.000157253
0.000501539
0.000167078
0.000523855
0.000177288
0.000543676
0.00018781
0.000559815
0.000198547
0.000570783
0.000209358
0.000574734
0.000220076
0.000569411
0.000230471
0.000552079
0.000240252
0.00051949
0.000249059
0.000467838
0.000256446
0.000392742
0.000261875
0.000289074
0.000264702
0.000153503
-1.38318e-05
0.000264101
2.19005e-05
1.73105e-05
-2.16143e-05
2.22096e-05
1.87175e-05
2.25428e-05
2.02378e-05
2.29035e-05
2.18795e-05
2.32925e-05
2.36531e-05
2.37138e-05
2.55692e-05
2.41685e-05
2.76383e-05
2.4661e-05
2.98713e-05
2.51937e-05
3.22681e-05
2.57711e-05
3.48627e-05
2.63951e-05
3.76766e-05
2.70707e-05
4.07156e-05
2.78011e-05
4.39973e-05
2.85935e-05
4.75039e-05
2.94527e-05
5.12776e-05
3.03824e-05
5.54017e-05
3.13878e-05
5.98527e-05
3.248e-05
6.45586e-05
3.36635e-05
6.96777e-05
3.49435e-05
7.52573e-05
3.63323e-05
8.11637e-05
3.78385e-05
8.75445e-05
3.94665e-05
9.45226e-05
4.12357e-05
0.000101832
4.31493e-05
0.000109879
4.52224e-05
0.000118462
4.74687e-05
0.00012767
4.98982e-05
0.000137651
5.25308e-05
0.000148248
5.53757e-05
0.000159768
5.84551e-05
0.000171986
6.17814e-05
0.000185197
6.53755e-05
0.00019926
6.9256e-05
0.000214316
7.34404e-05
0.000230423
7.79542e-05
0.000247458
8.2813e-05
0.000265673
8.80398e-05
0.000284912
9.3657e-05
0.000305181
9.96823e-05
0.000326538
0.000106136
0.000348848
0.000113035
0.000371979
0.000120395
0.000395833
0.000128223
0.00042017
0.000136523
0.000444662
0.000145292
0.000468895
0.000154513
0.000492315
0.000164158
0.000514207
0.00017418
0.00053365
0.000184508
0.00054948
0.000195048
0.000560236
0.000205661
0.000564108
0.000216183
0.000558877
0.000226389
0.000541861
0.000235994
0.000509871
0.000244642
0.000459167
0.000251896
0.000385453
0.000257224
0.000283688
0.00025999
0.000150632
-1.34474e-05
0.000259384
2.1554e-05
1.70305e-05
-2.1273e-05
2.18577e-05
1.8415e-05
2.21849e-05
1.99109e-05
2.25393e-05
2.15262e-05
2.29213e-05
2.32713e-05
2.33351e-05
2.51565e-05
2.37815e-05
2.7192e-05
2.42652e-05
2.93885e-05
2.47882e-05
3.1745e-05
2.53552e-05
3.42963e-05
2.59679e-05
3.70639e-05
2.66313e-05
4.00525e-05
2.73486e-05
4.32798e-05
2.81268e-05
4.6726e-05
2.89706e-05
5.04337e-05
2.98839e-05
5.44887e-05
3.08716e-05
5.88651e-05
3.19447e-05
6.3486e-05
3.31075e-05
6.85151e-05
3.43653e-05
7.4e-05
3.57301e-05
7.97993e-05
3.72103e-05
8.60649e-05
3.88103e-05
9.2923e-05
4.05491e-05
0.000100094
4.24297e-05
0.000107999
4.44672e-05
0.000116425
4.66748e-05
0.000125463
4.90624e-05
0.000135264
5.16495e-05
0.000145662
5.44451e-05
0.000156973
5.74711e-05
0.000168961
6.07393e-05
0.000181929
6.42709e-05
0.00019573
6.80831e-05
0.000210504
7.2194e-05
0.000226312
7.66281e-05
0.000243025
8.14009e-05
0.000260902
8.65348e-05
0.00027978
9.20519e-05
0.000299666
9.79695e-05
0.000320622
0.000104307
0.000342512
0.000111082
0.000365205
0.000118308
0.000388609
0.000125995
0.000412486
0.000134144
0.000436516
0.000142753
0.00046029
0.000151806
0.000483266
0.000161274
0.000504743
0.000171113
0.000523817
0.000181251
0.000539346
0.000191599
0.000549898
0.000202018
0.000553694
0.000212349
0.00054856
0.000222371
0.000531861
0.000231803
0.00050047
0.000240296
0.000450713
0.00024742
0.000378382
0.000252649
0.000278529
0.000255359
0.000148028
-1.26483e-05
0.000254752
2.12063e-05
1.67557e-05
-2.09302e-05
2.15046e-05
1.8118e-05
2.18258e-05
1.959e-05
2.21738e-05
2.11794e-05
2.25488e-05
2.28965e-05
2.29552e-05
2.47512e-05
2.33935e-05
2.67537e-05
2.38685e-05
2.89144e-05
2.43819e-05
3.12315e-05
2.49387e-05
3.37402e-05
2.55402e-05
3.64622e-05
2.61917e-05
3.94015e-05
2.68959e-05
4.25753e-05
2.76602e-05
4.59621e-05
2.84887e-05
4.9605e-05
2.93858e-05
5.35921e-05
3.03558e-05
5.7895e-05
3.141e-05
6.24325e-05
3.25521e-05
6.73731e-05
3.3788e-05
7.27648e-05