/*--------------------------------*- C++ -*----------------------------------*\
  =========                 |
  \\      /  F ield         | OpenFOAM: The Open Source CFD Toolbox
   \\    /   O peration     | Website:  https://openfoam.org
    \\  /    A nd           | Version:  6.0
     \\/     M anipulation  |
\*---------------------------------------------------------------------------*/
FoamFile
{
    version     2.0;
    format      ascii;
    class       volVectorField;
    location    "10";
    object      U;
}
// * * * * * * * * * * * * * * * * * * * * * * * * * * * * * * * * * * * * * //

dimensions      [0 1 -1 0 0 0 0];

internalField   nonuniform List<vector> 
62000
(
(0.996208 -0.0869155 -2.0348e-21)
(0.996204 -0.0869165 1.67065e-21)
(0.996201 -0.0869241 1.69055e-21)
(0.996198 -0.086938 -7.3044e-21)
(0.996195 -0.0869547 -8.21665e-21)
(0.996192 -0.0869721 2.80115e-20)
(0.996189 -0.0869886 -3.03278e-20)
(0.996187 -0.0870038 1.73709e-20)
(0.996186 -0.0870174 -7.99879e-21)
(0.996185 -0.0870298 -4.02004e-20)
(0.996185 -0.087041 -4.93923e-21)
(0.996185 -0.0870514 5.45891e-20)
(0.996185 -0.0870607 1.08933e-20)
(0.996186 -0.0870693 -3.76808e-20)
(0.996187 -0.0870768 5.77832e-20)
(0.996188 -0.0870836 -3.02413e-20)
(0.996189 -0.0870894 3.06105e-20)
(0.996189 -0.0870944 -3.55526e-20)
(0.99619 -0.0870984 1.71094e-20)
(0.996191 -0.0871015 -5.19439e-20)
(0.996192 -0.0871036 6.68473e-20)
(0.996192 -0.0871047 1.90377e-20)
(0.996193 -0.0871048 2.68859e-20)
(0.996193 -0.0871037 -1.2241e-19)
(0.996192 -0.0871018 4.42892e-20)
(0.996192 -0.087099 -2.63322e-20)
(0.99619 -0.0870955 2.25833e-22)
(0.996189 -0.0870919 -2.01264e-20)
(0.996187 -0.0870883 6.34575e-20)
(0.996184 -0.0870851 -3.45292e-20)
(0.99618 -0.0870827 8.16763e-20)
(0.996176 -0.0870809 -1.64762e-19)
(0.99617 -0.0870808 1.56505e-20)
(0.996164 -0.0870831 -5.14394e-20)
(0.996157 -0.0870884 -1.55885e-20)
(0.996149 -0.0870981 -5.24195e-20)
(0.996142 -0.0871127 -1.29609e-20)
(0.996135 -0.0871322 -1.31738e-20)
(0.996129 -0.0871558 4.98167e-20)
(0.996125 -0.0871825 2.10607e-19)
(0.996123 -0.0872105 -4.82294e-20)
(0.996125 -0.0872377 -2.59539e-19)
(0.996129 -0.0872615 -3.85266e-19)
(0.996138 -0.0872792 1.90128e-19)
(0.996151 -0.0872885 5.07614e-20)
(0.996167 -0.0872882 -2.10584e-19)
(0.996187 -0.0872789 4.3454e-20)
(0.996211 -0.0872619 -6.59521e-20)
(0.996241 -0.0872394 -2.2999e-19)
(0.996281 -0.0872088 -3.56953e-20)
(0.996341 -0.0871643 2.60024e-21)
(0.996433 -0.0870824 2.56009e-20)
(0.996563 -0.0869359 -7.32125e-20)
(0.996749 -0.0866678 -4.81602e-19)
(0.996984 -0.0862092 -1.77391e-19)
(0.99726 -0.085463 -9.65459e-19)
(0.99752 -0.0842424 1.02767e-19)
(0.997919 -0.0825234 1.40752e-19)
(0.996958 -0.0784867 -6.477e-19)
(1.0068 -0.064671 -9.13354e-20)
(0.996252 -0.0870062 -5.43637e-22)
(0.996252 -0.0869925 5.13592e-21)
(0.996256 -0.0869724 2.10405e-21)
(0.99626 -0.0869615 -8.89831e-21)
(0.996262 -0.0869586 3.64416e-21)
(0.996261 -0.0869629 -2.47878e-20)
(0.99626 -0.086972 2.23806e-20)
(0.996258 -0.0869831 1.27384e-20)
(0.996256 -0.0869936 -2.34669e-20)
(0.996254 -0.087003 1.02335e-21)
(0.996252 -0.0870107 2.20059e-20)
(0.996251 -0.0870174 1.6984e-23)
(0.99625 -0.0870229 6.07638e-21)
(0.99625 -0.0870278 -5.15746e-20)
(0.99625 -0.0870316 1.01785e-19)
(0.99625 -0.087035 -8.86053e-20)
(0.99625 -0.0870374 4.08226e-20)
(0.996251 -0.0870393 -8.48705e-21)
(0.996251 -0.0870406 -2.26342e-20)
(0.996252 -0.0870417 6.12411e-20)
(0.996252 -0.0870425 -9.526e-20)
(0.996252 -0.0870433 5.4497e-20)
(0.996251 -0.0870442 -6.77139e-20)
(0.99625 -0.0870455 4.00581e-20)
(0.996248 -0.0870475 3.62169e-20)
(0.996245 -0.0870508 -2.34163e-20)
(0.996241 -0.087056 4.25479e-23)
(0.996236 -0.0870642 2.54336e-20)
(0.99623 -0.0870762 2.07701e-20)
(0.996223 -0.0870928 -4.24476e-20)
(0.996214 -0.0871144 8.44305e-20)
(0.996204 -0.087141 1.72203e-20)
(0.996194 -0.0871731 4.85123e-20)
(0.996182 -0.0872106 5.86751e-21)
(0.996169 -0.0872538 1.26355e-20)
(0.996157 -0.0873041 -1.40636e-20)
(0.996146 -0.0873616 -4.92483e-20)
(0.99614 -0.0874247 -2.31298e-20)
(0.996138 -0.0874896 -1.19911e-19)
(0.99614 -0.0875519 -1.39731e-19)
(0.996148 -0.0876067 9.97783e-20)
(0.996162 -0.0876491 7.55921e-20)
(0.99618 -0.0876748 3.77987e-19)
(0.996201 -0.087682 5.77769e-21)
(0.996223 -0.0876718 -4.47789e-19)
(0.996243 -0.0876496 1.64696e-19)
(0.996261 -0.0876253 1.43917e-19)
(0.996278 -0.0876096 8.57351e-20)
(0.996301 -0.0876123 9.13678e-20)
(0.996343 -0.0876293 3.50533e-20)
(0.996426 -0.0876471 2.35701e-20)
(0.996571 -0.0876123 -9.89531e-20)
(0.99679 -0.0874697 1.96226e-19)
(0.997106 -0.0871252 1.06045e-18)
(0.9975 -0.0864733 3.94481e-19)
(0.997948 -0.0853908 2.74371e-19)
(0.998273 -0.0836567 1.172e-18)
(0.998949 -0.0814862 6.51776e-19)
(0.998701 -0.0765382 -1.47005e-18)
(0.997113 -0.0669454 -7.02944e-19)
(0.996269 -0.0875997 -2.62469e-21)
(0.996279 -0.087577 -3.70731e-22)
(0.996298 -0.0875313 3.94816e-22)
(0.996315 -0.0874955 1.78568e-21)
(0.996327 -0.0874674 4.99093e-21)
(0.996336 -0.08745 -4.66306e-21)
(0.996343 -0.0874439 2.44695e-20)
(0.996346 -0.0874464 -1.15196e-20)
(0.996349 -0.0874524 -6.09019e-21)
(0.99635 -0.0874589 -3.65885e-20)
(0.99635 -0.087464 3.04006e-20)
(0.99635 -0.087468 2.17972e-21)
(0.996349 -0.0874707 -6.69056e-21)
(0.996349 -0.087473 1.74295e-20)
(0.996348 -0.0874746 -2.92791e-20)
(0.996348 -0.0874761 2.65767e-22)
(0.996348 -0.0874772 -1.28302e-20)
(0.996348 -0.0874785 4.23007e-22)
(0.996348 -0.0874798 2.89769e-20)
(0.996349 -0.0874818 -4.31087e-20)
(0.99635 -0.0874845 2.6503e-20)
(0.996351 -0.0874883 1.00118e-19)
(0.996352 -0.0874934 -1.42284e-20)
(0.996352 -0.0875003 -1.34635e-19)
(0.996353 -0.0875092 6.84067e-20)
(0.996354 -0.0875209 -3.54275e-20)
(0.996354 -0.0875357 5.71683e-20)
(0.996354 -0.0875549 -3.48755e-20)
(0.996354 -0.0875791 -6.69218e-20)
(0.996353 -0.0876088 6.7797e-20)
(0.996352 -0.0876443 -4.77832e-20)
(0.996351 -0.0876849 6.43173e-20)
(0.996351 -0.0877301 -1.72051e-19)
(0.996353 -0.0877783 1.51926e-19)
(0.996355 -0.0878287 -7.91817e-20)
(0.996359 -0.0878814 3.44786e-20)
(0.996367 -0.0879358 2.32866e-20)
(0.996383 -0.0879891 3.75379e-21)
(0.996406 -0.0880362 6.3915e-21)
(0.996437 -0.0880708 1.24102e-19)
(0.996477 -0.0880872 -5.13659e-20)
(0.996524 -0.0880803 8.02901e-20)
(0.996577 -0.0880472 -2.21841e-19)
(0.996632 -0.0879889 -9.52278e-20)
(0.996685 -0.0879112 1.3942e-19)
(0.99673 -0.0878263 -1.92786e-19)
(0.996766 -0.0877519 4.65923e-20)
(0.99679 -0.0877066 -8.27473e-20)
(0.996808 -0.0877078 6.93819e-20)
(0.996831 -0.0877563 1.44415e-20)
(0.996879 -0.0878417 -7.26526e-20)
(0.996971 -0.0879084 -6.47769e-20)
(0.997121 -0.0878974 -2.06869e-19)
(0.997353 -0.087721 2.30316e-19)
(0.997651 -0.087275 8.61258e-19)
(0.99801 -0.0864492 4.63645e-19)
(0.998211 -0.0850438 7.45069e-19)
(0.998891 -0.0832634 2.1477e-18)
(0.999093 -0.0790209 -1.99166e-19)
(1.00104 -0.0695595 -5.91534e-19)
(0.996278 -0.088084 -2.60774e-21)
(0.996297 -0.0880402 7.86361e-21)
(0.996322 -0.0879784 -1.17926e-21)
(0.996339 -0.0879306 -7.85551e-21)
(0.996352 -0.087888 1.16422e-20)
(0.996363 -0.0878557 1.97129e-20)
(0.996372 -0.0878392 -2.52859e-20)
(0.996378 -0.0878381 2.68304e-21)
(0.996383 -0.0878472 8.38155e-21)
(0.996386 -0.0878608 1.70264e-20)
(0.996388 -0.0878747 -3.10367e-20)
(0.99639 -0.0878877 -9.26351e-21)
(0.99639 -0.0878995 -1.00692e-20)
(0.99639 -0.0879109 4.54052e-20)
(0.99639 -0.0879215 -2.96615e-20)
(0.99639 -0.087932 6.73601e-20)
(0.996389 -0.0879422 -8.01271e-20)
(0.996389 -0.0879526 -1.11084e-20)
(0.996389 -0.0879631 8.02371e-20)
(0.996389 -0.0879742 -2.76466e-20)
(0.996389 -0.0879861 -9.82664e-21)
(0.99639 -0.0879993 -1.01873e-20)
(0.996391 -0.0880138 -8.95736e-20)
(0.996392 -0.0880302 5.18325e-20)
(0.996393 -0.0880484 -2.17341e-20)
(0.996395 -0.0880695 3.59099e-20)
(0.996396 -0.0880934 1.59337e-20)
(0.996398 -0.0881214 7.7267e-20)
(0.9964 -0.0881538 -4.81298e-20)
(0.996402 -0.0881909 -6.08839e-20)
(0.996404 -0.0882327 9.17132e-20)
(0.996406 -0.0882783 -7.43016e-20)
(0.996411 -0.0883264 1.34045e-19)
(0.996418 -0.0883746 -7.77664e-20)
(0.996426 -0.0884215 3.3555e-20)
(0.996437 -0.0884667 5.54165e-20)
(0.996453 -0.0885093 -2.23437e-20)
(0.996477 -0.0885463 2.27885e-20)
(0.996512 -0.0885718 -1.21967e-20)
(0.996557 -0.0885798 2.97791e-20)
(0.996614 -0.0885646 -9.68812e-20)
(0.996682 -0.0885218 2.69123e-20)
(0.99676 -0.0884495 4.59431e-20)
(0.996846 -0.0883503 9.08419e-20)
(0.996934 -0.0882319 1.1031e-19)
(0.99702 -0.0881087 4.37769e-20)
(0.9971 -0.0880004 4.34746e-20)
(0.997169 -0.0879279 6.42e-21)
(0.99723 -0.0879104 -1.23354e-19)
(0.997288 -0.0879506 1.12982e-19)
(0.99736 -0.0880402 1.38219e-19)
(0.997455 -0.0881255 -2.33565e-19)
(0.997588 -0.0881448 -4.28635e-19)
(0.997786 -0.0880152 -6.17767e-19)
(0.998042 -0.0876244 -4.2827e-19)
(0.998373 -0.0868431 -1.61483e-18)
(0.998567 -0.0854517 -3.14993e-18)
(0.999287 -0.0834826 9.08635e-19)
(0.999718 -0.0789809 2.75876e-18)
(1.0024 -0.0676661 3.00419e-18)
(0.996312 -0.0884236 4.99236e-21)
(0.996331 -0.0883556 -1.63739e-21)
(0.99635 -0.0882862 2.70877e-21)
(0.996356 -0.088233 -3.75725e-21)
(0.99636 -0.0881818 8.26672e-21)
(0.996363 -0.0881378 -4.0201e-21)
(0.996367 -0.0881104 2.10359e-21)
(0.996369 -0.0881038 -3.0816e-20)
(0.99637 -0.0881143 2.52929e-20)
(0.996371 -0.0881349 -4.91334e-20)
(0.996372 -0.0881586 5.29946e-20)
(0.996372 -0.0881824 -6.25392e-21)
(0.996372 -0.088205 -1.33553e-20)
(0.996372 -0.0882269 -5.90465e-21)
(0.996372 -0.0882479 -1.14031e-21)
(0.996371 -0.0882687 -5.69418e-20)
(0.99637 -0.0882889 3.21696e-21)
(0.99637 -0.0883094 5.9685e-20)
(0.996369 -0.0883296 -1.86023e-20)
(0.996368 -0.0883503 -1.89317e-20)
(0.996368 -0.0883713 3.19439e-20)
(0.996367 -0.0883933 -1.50286e-20)
(0.996366 -0.0884162 6.20174e-20)
(0.996365 -0.0884407 3.21075e-20)
(0.996364 -0.0884665 2.31774e-20)
(0.996363 -0.0884948 -7.51882e-20)
(0.996361 -0.0885254 -1.01694e-20)
(0.996359 -0.0885595 -5.45363e-20)
(0.996356 -0.0885974 1.07224e-20)
(0.996353 -0.0886395 -1.69945e-20)
(0.996349 -0.0886856 -5.71446e-21)
(0.996345 -0.088735 5.25431e-20)
(0.996342 -0.0887864 -1.32187e-19)
(0.996341 -0.0888371 -4.57226e-21)
(0.996341 -0.0888858 -6.41798e-20)
(0.996343 -0.0889322 -3.09679e-20)
(0.996349 -0.0889757 9.21898e-21)
(0.996363 -0.0890136 -8.98075e-20)
(0.996388 -0.0890406 1.29729e-19)
(0.996426 -0.0890507 1.8107e-20)
(0.996478 -0.089039 1.28388e-19)
(0.996547 -0.0890016 -7.93309e-20)
(0.996633 -0.0889365 -4.87939e-20)
(0.996735 -0.0888461 -2.07725e-20)
(0.996851 -0.0887371 6.04532e-20)
(0.99698 -0.0886215 6.21697e-20)
(0.997117 -0.0885164 -1.51702e-20)
(0.99726 -0.0884385 -3.6261e-20)
(0.997409 -0.0884027 -2.34386e-20)
(0.997563 -0.0884077 -3.6311e-19)
(0.997737 -0.088442 -1.47011e-19)
(0.997931 -0.0884497 8.20785e-20)
(0.998154 -0.0883641 -3.30723e-19)
(0.998432 -0.0881007 -8.94163e-19)
(0.998762 -0.0875361 2.66569e-19)
(0.999166 -0.0865173 1.15211e-18)
(0.999443 -0.0848159 4.25575e-18)
(1.00021 -0.0823806 -4.41985e-18)
(1.00065 -0.077369 4.08039e-18)
(1.00261 -0.0661575 -4.08492e-18)
(0.996347 -0.088762 -1.85327e-21)
(0.996359 -0.0886925 7.35401e-21)
(0.99637 -0.0886277 -1.19109e-20)
(0.996367 -0.0885767 8.73876e-21)
(0.996363 -0.0885228 5.55652e-21)
(0.996361 -0.0884695 -5.79462e-21)
(0.99636 -0.0884291 4.73481e-22)
(0.996358 -0.0884117 -4.16876e-21)
(0.996356 -0.088417 -1.37023e-20)
(0.996354 -0.0884383 2.57432e-20)
(0.996352 -0.0884666 -3.88666e-20)
(0.996351 -0.0884968 3.33228e-20)
(0.996351 -0.0885258 2.83788e-20)
(0.99635 -0.0885539 -4.30406e-20)
(0.99635 -0.0885805 -1.3486e-20)
(0.996351 -0.0886066 4.9909e-20)
(0.996351 -0.0886318 -5.8688e-20)
(0.996352 -0.0886569 7.87539e-20)
(0.996352 -0.0886814 -1.51269e-20)
(0.996352 -0.088706 7.48059e-21)
(0.996353 -0.0887308 -1.3123e-20)
(0.996352 -0.0887561 -1.56212e-20)
(0.996352 -0.0887819 -2.8137e-20)
(0.99635 -0.088809 4.64593e-20)
(0.996348 -0.0888371 -3.14075e-20)
(0.996345 -0.0888672 -2.92538e-20)
(0.996341 -0.0888993 5.90793e-20)
(0.996336 -0.0889346 -5.28523e-20)
(0.99633 -0.0889735 8.55123e-20)
(0.996321 -0.0890162 -4.42552e-20)
(0.996311 -0.0890632 3.31945e-20)
(0.9963 -0.0891138 -5.16312e-20)
(0.996289 -0.089167 5.75745e-20)
(0.996278 -0.0892204 -4.45624e-21)
(0.996267 -0.0892728 -2.85775e-21)
(0.996257 -0.0893248 -5.4226e-22)
(0.996251 -0.0893762 -2.03058e-20)
(0.99625 -0.0894252 7.72304e-20)
(0.99626 -0.0894671 -6.23808e-20)
(0.996284 -0.0894967 -2.95351e-19)
(0.996325 -0.0895096 -1.10172e-19)
(0.996386 -0.0895022 7.92878e-20)
(0.99647 -0.0894723 -5.56479e-20)
(0.99658 -0.0894207 -6.52769e-20)
(0.996717 -0.0893515 1.28479e-21)
(0.996883 -0.0892727 5.91307e-20)
(0.997076 -0.0891954 -2.71276e-21)
(0.997295 -0.0891295 7.33778e-20)
(0.997541 -0.0890822 7.59244e-20)
(0.997811 -0.0890449 3.02924e-19)
(0.998114 -0.0890004 -3.7017e-19)
(0.998444 -0.088889 1.0379e-19)
(0.998801 -0.0886403 1.41627e-18)
(0.999204 -0.0881699 -5.44779e-19)
(0.999647 -0.0873517 -5.12487e-19)
(1.00014 -0.0860253 1.61789e-18)
(1.0005 -0.0839866 -8.93073e-19)
(1.00129 -0.0812074 -1.89019e-18)
(1.00163 -0.0760067 -6.46794e-18)
(1.00247 -0.065375 -1.85002e-19)
(0.99633 -0.089207 2.09964e-21)
(0.996338 -0.0891463 -9.30388e-21)
(0.996349 -0.0890894 4.4576e-21)
(0.996345 -0.0890462 8.15902e-21)
(0.996343 -0.088996 -1.7176e-20)
(0.996345 -0.0889381 1.41227e-20)
(0.996349 -0.0888863 -9.20427e-21)
(0.996351 -0.0888557 7.65879e-21)
(0.996352 -0.0888509 1.18415e-20)
(0.996353 -0.0888669 -2.79319e-20)
(0.996354 -0.088894 3.92214e-20)
(0.996355 -0.088925 1.59e-20)
(0.996357 -0.0889554 -6.28155e-20)
(0.99636 -0.0889844 -1.09708e-20)
(0.996363 -0.0890115 3.17241e-20)
(0.996367 -0.0890374 1.95302e-20)
(0.996371 -0.0890619 -2.32259e-20)
(0.996375 -0.0890859 1.97613e-20)
(0.99638 -0.089109 2.89112e-20)
(0.996384 -0.0891317 -1.46192e-20)
(0.996388 -0.0891543 -8.11585e-21)
(0.996392 -0.089177 2.61551e-20)
(0.996396 -0.0891998 5.18045e-20)
(0.996398 -0.0892237 -3.86807e-20)
(0.9964 -0.0892481 -4.0119e-20)
(0.9964 -0.0892744 4.22812e-20)
(0.996399 -0.0893025 -3.21971e-20)
(0.996396 -0.0893335 -1.29475e-20)
(0.996391 -0.0893682 9.98061e-20)
(0.996385 -0.0894066 -4.13829e-20)
(0.996376 -0.0894495 -3.14962e-20)
(0.996365 -0.0894967 4.49369e-20)
(0.996352 -0.0895477 2.93701e-20)
(0.996339 -0.0896003 -1.90557e-20)
(0.996326 -0.0896538 -1.48875e-20)
(0.996313 -0.0897092 4.80863e-20)
(0.996302 -0.0897673 1.95605e-20)
(0.996296 -0.0898274 1.22712e-20)
(0.9963 -0.0898854 -7.03695e-20)
(0.996317 -0.0899368 -4.36064e-20)
(0.996352 -0.0899781 1.32336e-19)
(0.996409 -0.0900059 8.72964e-20)
(0.996493 -0.0900175 1.28291e-19)
(0.99661 -0.0900122 -7.24652e-20)
(0.996764 -0.0899911 -3.79117e-20)
(0.996958 -0.0899576 -3.22971e-20)
(0.997195 -0.0899165 -4.58097e-20)
(0.997477 -0.0898702 -1.60661e-19)
(0.997804 -0.0898179 2.71117e-19)
(0.998172 -0.0897434 6.67236e-19)
(0.998588 -0.0896238 2.87421e-20)
(0.999036 -0.0893971 -2.41902e-19)
(0.999511 -0.0889915 4.59737e-20)
(1.00002 -0.0883272 7.00044e-19)
(1.00056 -0.0872838 -8.99193e-19)
(1.00113 -0.0857077 -5.05842e-19)
(1.00152 -0.0834334 -8.87729e-19)
(1.0023 -0.0804875 5.56707e-18)
(1.00256 -0.0753044 3.29255e-19)
(1.0024 -0.0651327 -4.23407e-19)
(0.996241 -0.0897994 -3.35451e-21)
(0.996257 -0.0897507 -2.63357e-21)
(0.99628 -0.0897024 3.51709e-21)
(0.996286 -0.0896686 1.21744e-20)
(0.996294 -0.0896255 -2.57102e-20)
(0.996309 -0.0895669 2.88185e-20)
(0.996326 -0.0895056 -1.32091e-21)
(0.996341 -0.0894605 -1.76679e-21)
(0.996353 -0.0894413 -9.61525e-21)
(0.996364 -0.0894463 2.2475e-20)
(0.996374 -0.0894663 -3.39115e-20)
(0.996383 -0.0894928 1.25246e-20)
(0.996392 -0.0895198 -3.50974e-22)
(0.996402 -0.0895454 1.82252e-20)
(0.996412 -0.0895687 8.14706e-21)
(0.996423 -0.08959 -4.31297e-20)
(0.996433 -0.0896095 3.62981e-20)
(0.996445 -0.089628 1.34463e-20)
(0.996456 -0.0896453 -3.8425e-20)
(0.996468 -0.0896617 1.82159e-20)
(0.99648 -0.0896778 7.93402e-21)
(0.996491 -0.0896936 -5.90187e-21)
(0.996502 -0.0897092 5.57269e-21)
(0.996512 -0.0897258 -4.34035e-21)
(0.996522 -0.0897426 -3.75368e-20)
(0.99653 -0.0897611 2.37119e-20)
(0.996537 -0.0897812 -3.46626e-20)
(0.996543 -0.0898041 5.83806e-20)
(0.996547 -0.0898307 -1.43934e-20)
(0.996549 -0.0898609 -6.15864e-21)
(0.996549 -0.0898961 -2.22256e-21)
(0.996546 -0.089936 5.24439e-20)
(0.996542 -0.0899811 -2.00029e-20)
(0.996538 -0.0900291 -2.87825e-21)
(0.996532 -0.0900797 2.65631e-20)
(0.996528 -0.0901347 1.91164e-20)
(0.996524 -0.0901953 -3.00569e-20)
(0.996526 -0.0902621 5.51625e-21)
(0.996536 -0.0903318 6.80673e-20)
(0.996559 -0.0904003 3.24768e-20)
(0.9966 -0.090465 1.2567e-20)
(0.996663 -0.0905227 -3.5198e-20)
(0.996755 -0.0905703 1.16371e-20)
(0.996883 -0.0906057 6.41747e-20)
(0.997052 -0.0906274 6.32978e-20)
(0.99727 -0.0906345 3.29131e-20)
(0.997541 -0.0906264 1.78452e-19)
(0.997867 -0.0905986 -1.39444e-19)
(0.998252 -0.0905432 -8.65833e-20)
(0.998689 -0.0904379 -1.36684e-19)
(0.999184 -0.090255 -5.63007e-20)
(0.999716 -0.0899319 9.83911e-19)
(1.00027 -0.0893978 -1.04934e-18)
(1.00086 -0.0885801 8.62263e-19)
(1.00145 -0.0873679 -2.19484e-18)
(1.00205 -0.085619 -5.54513e-19)
(1.00246 -0.0832017 -3.20447e-18)
(1.00322 -0.0801848 -4.99794e-18)
(1.00345 -0.0750415 -1.17184e-18)
(1.00251 -0.0651089 -2.21102e-18)
(0.996102 -0.0905281 -1.52397e-21)
(0.996138 -0.0904806 1.28455e-21)
(0.996182 -0.090433 6.33071e-21)
(0.996202 -0.0904052 9.78229e-21)
(0.996224 -0.0903694 -2.8413e-20)
(0.996256 -0.0903135 1.59912e-20)
(0.996291 -0.0902472 -2.78449e-20)
(0.996325 -0.0901906 4.25699e-20)
(0.996354 -0.0901578 -1.94951e-20)
(0.99638 -0.0901503 3.31331e-21)
(0.996403 -0.0901606 3.48468e-20)
(0.996425 -0.0901797 -7.72028e-20)
(0.996446 -0.0902007 5.10903e-20)
(0.996466 -0.0902205 6.68403e-21)
(0.996486 -0.0902379 1.01647e-20)
(0.996506 -0.0902528 -4.32926e-20)
(0.996527 -0.0902653 2.05419e-20)
(0.996547 -0.0902767 -2.42533e-20)
(0.996568 -0.0902864 4.53109e-20)
(0.996589 -0.0902948 -6.38603e-21)
(0.99661 -0.0903026 -5.26934e-20)
(0.996631 -0.0903099 2.1155e-20)
(0.996652 -0.0903166 -1.13051e-21)
(0.996672 -0.0903243 -6.58425e-20)
(0.996692 -0.0903319 4.87956e-20)
(0.996712 -0.0903409 3.33399e-20)
(0.996731 -0.0903517 1.891e-20)
(0.996749 -0.090365 -2.76496e-20)
(0.996765 -0.0903822 -2.83476e-20)
(0.996781 -0.0904028 1.36072e-20)
(0.996795 -0.0904286 1.22742e-20)
(0.996808 -0.0904597 -1.821e-20)
(0.99682 -0.0904968 -2.01904e-20)
(0.996832 -0.090538 4.90989e-20)
(0.996843 -0.0905833 8.77934e-21)
(0.996856 -0.090635 -6.00093e-20)
(0.996871 -0.0906945 1.69682e-20)
(0.996891 -0.0907636 2.25157e-20)
(0.996919 -0.0908396 -1.2604e-20)
(0.996959 -0.0909188 3.75402e-20)
(0.997017 -0.0909992 -2.03758e-20)
(0.997096 -0.0910781 2.30319e-20)
(0.997205 -0.0911517 -2.77397e-20)
(0.99735 -0.091217 -7.68065e-20)
(0.997538 -0.0912701 -2.70495e-20)
(0.997778 -0.0913068 -3.05419e-19)
(0.998075 -0.0913217 2.47203e-20)
(0.998432 -0.0913051 2.73965e-19)
(0.998855 -0.0912435 -3.70409e-19)
(0.999337 -0.0911096 -1.44567e-18)
(0.999881 -0.0908728 1.42744e-18)
(1.00046 -0.0904705 -2.07485e-18)
(1.00107 -0.0898346 1.48061e-18)
(1.00169 -0.0888998 1.08029e-18)
(1.00232 -0.0875652 4.54741e-18)
(1.00292 -0.0856979 3.09535e-19)
(1.00333 -0.0831884 2.00349e-18)
(1.00407 -0.0801294 2.65031e-18)
(1.00429 -0.0749859 -2.63393e-18)
(1.0028 -0.0651179 -6.91203e-19)
(0.995947 -0.0913328 1.96354e-21)
(0.996009 -0.0912864 6.69727e-22)
(0.996073 -0.0912384 -6.84111e-21)
(0.996108 -0.0912136 6.38673e-21)
(0.996146 -0.0911837 -2.76466e-21)
(0.996195 -0.0911316 4.81292e-21)
(0.996249 -0.0910631 1.57265e-21)
(0.996302 -0.0909983 -2.27769e-20)
(0.99635 -0.0909535 9.76331e-21)
(0.996394 -0.0909341 -6.17442e-21)
(0.996434 -0.090934 3.88674e-21)
(0.996471 -0.090945 1.38935e-20)
(0.996505 -0.0909593 -2.49547e-21)
(0.996539 -0.0909732 7.68375e-21)
(0.996571 -0.0909846 -3.1412e-20)
(0.996603 -0.0909933 1.2097e-20)
(0.996634 -0.0909991 5.2913e-21)
(0.996665 -0.0910035 -1.2242e-20)
(0.996696 -0.091006 2.37569e-20)
(0.996727 -0.0910068 7.0158e-21)
(0.996758 -0.091007 -1.00381e-21)
(0.996789 -0.0910066 -6.25548e-21)
(0.996821 -0.0910052 2.63355e-20)
(0.996853 -0.0910049 -6.769e-20)
(0.996884 -0.0910042 3.2791e-20)
(0.996916 -0.0910049 1.15387e-20)
(0.996948 -0.0910072 -2.05855e-20)
(0.99698 -0.091012 3.16161e-20)
(0.997011 -0.0910206 -1.68661e-20)
(0.997043 -0.0910325 -6.38146e-21)
(0.997074 -0.09105 -1.37035e-20)
(0.997105 -0.0910727 1.02523e-22)
(0.997137 -0.0911021 1.14184e-20)
(0.997169 -0.0911367 -2.53237e-20)
(0.997203 -0.0911761 3.79695e-20)
(0.997238 -0.0912234 3.48195e-23)
(0.997278 -0.0912799 1.08505e-20)
(0.997323 -0.0913482 -5.65276e-21)
(0.997377 -0.0914264 2.20673e-23)
(0.997443 -0.0915108 -1.95397e-20)
(0.997525 -0.0915998 4.25725e-20)
(0.99763 -0.0916912 3.19767e-20)
(0.997763 -0.0917805 1.24059e-19)
(0.997931 -0.0918637 -1.23688e-19)
(0.998142 -0.0919355 -9.06516e-20)
(0.998405 -0.0919887 3.61813e-19)
(0.998725 -0.0920144 -6.81968e-19)
(0.999107 -0.0919988 -1.23443e-19)
(0.999556 -0.0919241 -1.40391e-19)
(1.00007 -0.0917596 1.12708e-18)
(1.00064 -0.0914729 -4.18058e-19)
(1.00125 -0.0910023 1.12627e-18)
(1.00188 -0.0902821 -2.83332e-18)
(1.00252 -0.0892542 -5.79441e-19)
(1.00316 -0.0878257 3.40828e-18)
(1.00376 -0.0858698 -1.44833e-18)
(1.00416 -0.0832884 4.78123e-18)
(1.0049 -0.0801861 1.23505e-18)
(1.00511 -0.0750004 9.6839e-18)
(1.00321 -0.0650887 2.78041e-18)
(0.995805 -0.0921532 -3.95381e-22)
(0.995889 -0.0921025 -1.52674e-21)
(0.995969 -0.0920514 -1.29184e-21)
(0.996016 -0.0920273 1.22652e-20)
(0.996066 -0.0920021 -6.68225e-21)
(0.996131 -0.0919555 -7.75037e-21)
(0.996202 -0.091889 -2.7903e-21)
(0.996273 -0.0918212 -1.1201e-20)
(0.996339 -0.0917696 7.08828e-21)
(0.9964 -0.0917418 1.16591e-21)
(0.996456 -0.0917338 5.11661e-22)
(0.996509 -0.0917381 2.59628e-20)
(0.996559 -0.091747 -1.78885e-20)
(0.996606 -0.0917563 -2.02295e-21)
(0.996651 -0.0917635 1.83493e-20)
(0.996695 -0.0917678 -9.8337e-21)
(0.996738 -0.0917691 -3.2528e-21)
(0.99678 -0.0917688 5.66778e-21)
(0.996822 -0.0917665 1.58505e-20)
(0.996864 -0.0917623 7.22995e-21)
(0.996905 -0.0917574 1.30485e-21)
(0.996947 -0.0917517 -1.89013e-20)
(0.996989 -0.0917449 7.64417e-21)
(0.997032 -0.0917392 1.43492e-20)
(0.997075 -0.091733 -2.87318e-20)
(0.997119 -0.0917281 7.04099e-21)
(0.997163 -0.0917248 -2.79581e-20)
(0.997209 -0.0917238 1.95815e-20)
(0.997255 -0.0917267 1.16839e-20)
(0.997303 -0.0917327 -2.07874e-20)
(0.997352 -0.0917442 -2.52178e-21)
(0.997402 -0.091761 3.5711e-21)
(0.997454 -0.091785 3.2612e-22)
(0.997508 -0.0918145 6.66147e-23)
(0.997565 -0.0918494 1.047e-20)
(0.997626 -0.0918929 1.4527e-20)
(0.997693 -0.0919464 -7.02296e-21)
(0.997766 -0.0920128 -2.11672e-20)
(0.99785 -0.0920907 -5.84752e-21)
(0.997946 -0.0921765 2.76224e-21)
(0.998059 -0.0922689 -1.55605e-19)
(0.998193 -0.0923656 3.52841e-20)
(0.998355 -0.0924619 -2.0416e-19)
(0.998552 -0.0925529 4.75347e-19)
(0.99879 -0.0926317 -1.44821e-19)
(0.999078 -0.0926893 7.45343e-21)
(0.999421 -0.0927139 -6.90916e-20)
(0.999826 -0.0926888 7.84442e-19)
(1.0003 -0.0925931 1.34659e-18)
(1.00083 -0.0923939 -1.44248e-18)
(1.00142 -0.0920576 -2.19056e-18)
(1.00204 -0.0915236 -1.37654e-18)
(1.00268 -0.090729 2.84185e-18)
(1.00333 -0.0896212 -1.78397e-18)
(1.00398 -0.0881134 -4.91492e-18)
(1.00457 -0.0860822 -2.45311e-18)
(1.00497 -0.0834334 -4.66356e-18)
(1.0057 -0.0802782 -2.69515e-18)
(1.00591 -0.0750216 -9.37711e-18)
(1.00369 -0.0649942 8.4221e-18)
(0.995687 -0.0929346 4.5784e-22)
(0.995788 -0.0928855 -1.35293e-21)
(0.995878 -0.092836 4.70277e-21)
(0.995932 -0.0928129 1.17313e-21)
(0.995991 -0.0927917 -6.18153e-21)
(0.996067 -0.0927503 -6.86731e-21)
(0.996152 -0.092687 1.59048e-20)
(0.996237 -0.0926186 -1.68236e-20)
(0.996318 -0.0925631 -3.83574e-21)
(0.996394 -0.0925297 9.79987e-21)
(0.996465 -0.0925162 8.51174e-21)
(0.996532 -0.092516 2.42853e-20)
(0.996596 -0.0925215 -1.40629e-20)
(0.996657 -0.0925283 -2.17409e-20)
(0.996715 -0.0925336 4.61375e-21)
(0.996772 -0.0925361 -1.53173e-20)
(0.996827 -0.0925356 1.14632e-20)
(0.99688 -0.0925334 -1.63985e-20)
(0.996933 -0.0925294 3.63655e-21)
(0.996985 -0.0925233 -3.29891e-21)
(0.997037 -0.0925166 -1.08853e-21)
(0.997089 -0.0925092 -9.45387e-21)
(0.997141 -0.0925006 2.81322e-21)
(0.997194 -0.0924932 1.96188e-20)
(0.997248 -0.0924852 -4.52733e-21)
(0.997303 -0.0924784 2.46469e-21)
(0.997359 -0.0924733 3.74972e-21)
(0.997417 -0.0924704 -3.15618e-21)
(0.997477 -0.0924713 6.96103e-22)
(0.99754 -0.092475 2.44259e-22)
(0.997605 -0.0924843 1.185e-21)
(0.997673 -0.0924987 -1.60011e-21)
(0.997745 -0.0925203 8.99577e-21)
(0.997821 -0.0925478 2.71173e-20)
(0.997901 -0.0925806 -3.28684e-20)
(0.997987 -0.0926223 -1.4843e-20)
(0.99808 -0.0926739 -1.1329e-20)
(0.998183 -0.0927388 -8.14853e-20)
(0.998296 -0.0928158 6.5031e-20)
(0.998424 -0.092901 -5.05689e-20)
(0.998569 -0.0929933 -2.88879e-20)
(0.998736 -0.0930905 1.97705e-20)
(0.998931 -0.0931872 8.52666e-20)
(0.999159 -0.093278 -2.63824e-19)
(0.999427 -0.0933548 4.49997e-19)
(0.999742 -0.093407 -3.32096e-19)
(1.00011 -0.0934208 9.65164e-19)
(1.00054 -0.0933772 -1.89267e-19)
(1.00103 -0.0932532 -7.37766e-19)
(1.00158 -0.0930146 1.54234e-18)
(1.00218 -0.0926272 2.83888e-19)
(1.00282 -0.0920316 -1.21737e-20)
(1.00346 -0.0911671 6.41756e-19)
(1.00412 -0.0899857 2.00875e-18)
(1.00477 -0.0884051 -1.19826e-19)
(1.00536 -0.0863029 -2.5293e-18)
(1.00575 -0.083585 2.8856e-18)
(1.00649 -0.0803677 8.93223e-19)
(1.00668 -0.0750211 1.21729e-18)
(1.00421 -0.0648387 -6.3819e-18)
(0.995586 -0.0936531 7.46834e-22)
(0.995696 -0.0936002 -6.20301e-22)
(0.995792 -0.0935496 5.48394e-22)
(0.995851 -0.0935263 3.44711e-21)
(0.995916 -0.093508 4.85658e-21)
(0.996001 -0.0934721 -1.86373e-20)
(0.996096 -0.0934143 1.31177e-20)
(0.996191 -0.0933492 2.55988e-21)
(0.996284 -0.0932943 -8.66568e-22)
(0.996372 -0.0932596 -5.31549e-21)
(0.996455 -0.0932443 1.52227e-20)
(0.996535 -0.0932425 -5.25374e-21)
(0.996611 -0.0932474 -6.54919e-21)
(0.996684 -0.0932544 -1.72447e-20)
(0.996755 -0.0932605 3.29897e-20)
(0.996823 -0.0932641 -7.29357e-21)
(0.99689 -0.0932649 -5.64912e-21)
(0.996954 -0.0932643 -1.31632e-20)
(0.997018 -0.0932618 1.38821e-20)
(0.99708 -0.0932574 6.28329e-21)
(0.997142 -0.0932524 -2.86727e-21)
(0.997203 -0.0932469 3.76516e-21)
(0.997265 -0.0932401 -1.52003e-20)
(0.997328 -0.0932348 2.00076e-21)
(0.997392 -0.0932289 6.88338e-21)
(0.997457 -0.0932243 -1.31434e-21)
(0.997524 -0.0932213 -5.4896e-21)
(0.997594 -0.0932204 3.8794e-21)
(0.997666 -0.0932233 -2.64365e-22)
(0.997742 -0.0932289 3.3323e-21)
(0.997822 -0.0932398 4.24497e-21)
(0.997907 -0.0932556 -8.43383e-21)
(0.997996 -0.0932785 -1.76234e-20)
(0.998091 -0.0933071 -4.98162e-20)
(0.998193 -0.0933409 5.62825e-21)
(0.998302 -0.0933834 -2.8488e-20)
(0.998421 -0.0934352 1.3257e-19)
(0.998551 -0.0934999 3.11549e-20)
(0.998694 -0.0935764 -2.85385e-20)
(0.998852 -0.0936605 1.44929e-19)
(0.99903 -0.0937511 1.98666e-20)
(0.99923 -0.0938459 -7.0706e-20)
(0.999457 -0.093939 -1.00411e-19)
(0.999718 -0.0940241 -2.46808e-19)
(1.00002 -0.0940926 -8.34479e-19)
(1.00036 -0.0941324 7.40038e-19)
(1.00076 -0.0941282 -1.33094e-18)
(1.00121 -0.0940595 -1.07571e-18)
(1.00172 -0.0939019 2.92772e-20)
(1.00229 -0.0936203 -1.79146e-18)
(1.00291 -0.0931804 2.60998e-18)
(1.00356 -0.0925238 3.51343e-18)
(1.00421 -0.0915919 -3.02925e-18)
(1.00488 -0.0903399 -2.90472e-18)
(1.00553 -0.0886891 1.39548e-18)
(1.00612 -0.0865168 8.4964e-18)
(1.00652 -0.0837267 -2.22366e-18)
(1.00726 -0.0804407 2.71556e-18)
(1.00743 -0.0749939 4.75476e-18)
(1.00475 -0.0646268 -5.40151e-18)
(0.99549 -0.0942891 -6.87087e-22)
(0.995605 -0.0942404 7.40634e-22)
(0.995705 -0.0941932 4.89256e-21)
(0.995767 -0.0941702 -6.26419e-21)
(0.995836 -0.0941536 1.09965e-20)
(0.995928 -0.0941213 -1.57583e-20)
(0.99603 -0.0940675 4.36744e-21)
(0.996135 -0.0940053 -1.7321e-22)
(0.996235 -0.0939518 8.83059e-21)
(0.996332 -0.0939175 -4.53341e-21)
(0.996424 -0.0939021 1.12804e-21)
(0.996514 -0.0939008 1.12458e-21)
(0.9966 -0.0939068 -1.76381e-20)
(0.996684 -0.0939158 5.62356e-21)
(0.996765 -0.0939246 1.09154e-20)
(0.996844 -0.0939314 4.34527e-24)
(0.996922 -0.0939357 -1.48168e-20)
(0.996997 -0.0939388 5.81186e-21)
(0.99707 -0.0939405 2.20123e-20)
(0.997142 -0.0939403 -1.42945e-20)
(0.997214 -0.0939401 -7.78028e-21)
(0.997285 -0.0939395 6.4249e-21)
(0.997356 -0.0939379 1.61272e-21)
(0.997428 -0.093938 1.0671e-21)
(0.997501 -0.0939376 -2.90744e-21)
(0.997575 -0.0939386 1.48079e-21)
(0.997652 -0.0939413 1.32938e-21)
(0.997733 -0.0939461 -7.42344e-21)
(0.997816 -0.0939547 -9.79991e-21)
(0.997904 -0.0939657 1.07264e-20)
(0.997997 -0.093982 -6.08361e-21)
(0.998096 -0.0940027 -1.87694e-20)
(0.998201 -0.0940304 2.08435e-20)
(0.998313 -0.0940635 -5.92189e-21)
(0.998434 -0.0941013 5.46418e-20)
(0.998564 -0.0941473 1.30373e-20)
(0.998706 -0.0942017 3.147e-20)
(0.998861 -0.0942679 -5.16326e-20)
(0.999032 -0.094345 8.78646e-20)
(0.999219 -0.0944285 -2.19511e-20)
(0.999427 -0.094517 -5.68361e-20)
(0.999659 -0.094608 -2.07117e-20)
(0.99992 -0.0946952 3.55407e-19)
(1.00021 -0.0947716 5.58515e-19)
(1.00055 -0.0948278 4.96585e-19)
(1.00092 -0.0948509 -1.16378e-18)
(1.00135 -0.0948244 -1.53521e-19)
(1.00183 -0.0947267 5.34329e-19)
(1.00236 -0.0945323 -3.34427e-19)
(1.00295 -0.0942058 2.24911e-18)
(1.00359 -0.0937128 -1.18314e-18)
(1.00425 -0.092996 -3.65629e-18)
(1.00492 -0.0919986 1.76057e-19)
(1.0056 -0.0906781 3.92512e-18)
(1.00626 -0.0889585 -2.01506e-18)
(1.00686 -0.086716 -2.10907e-18)
(1.00727 -0.0838517 -3.00764e-18)
(1.00802 -0.0804926 -7.69305e-18)
(1.00816 -0.0749388 -8.77511e-18)
(1.0053 -0.0643722 1.24118e-17)
(0.995391 -0.0948433 -4.76845e-22)
(0.995508 -0.0947961 6.78333e-22)
(0.995612 -0.0947517 1.30333e-22)
(0.995676 -0.0947294 2.40825e-21)
(0.99575 -0.0947144 -3.58705e-21)
(0.995847 -0.0946857 -7.03822e-21)
(0.995956 -0.0946365 2.54196e-21)
(0.996066 -0.0945786 -3.00657e-21)
(0.996172 -0.0945283 6.60906e-21)
(0.996274 -0.0944961 -1.23788e-21)
(0.996373 -0.0944824 -3.71962e-21)
(0.996469 -0.0944826 3.20745e-21)
(0.996563 -0.0944909 4.49304e-21)
(0.996655 -0.0945028 1.07435e-20)
(0.996745 -0.0945153 -1.88932e-20)
(0.996833 -0.0945265 8.77674e-21)
(0.99692 -0.0945357 9.76414e-22)
(0.997004 -0.0945443 -6.77176e-21)
(0.997087 -0.0945519 -2.93939e-21)
(0.997169 -0.0945581 9.15158e-21)
(0.99725 -0.0945645 -7.11875e-21)