/*--------------------------------*- C++ -*----------------------------------*\
  =========                 |
  \\      /  F ield         | OpenFOAM: The Open Source CFD Toolbox
   \\    /   O peration     | Website:  https://openfoam.org
    \\  /    A nd           | Version:  6.0
     \\/     M anipulation  |
\*---------------------------------------------------------------------------*/
FoamFile
{
    version     2.0;
    format      ascii;
    class       volScalarField;
    location    "18";
    object      p;
}
// * * * * * * * * * * * * * * * * * * * * * * * * * * * * * * * * * * * * * //

dimensions      [0 2 -2 0 0 0 0];

internalField   nonuniform List<scalar> 
62000
(
0.0198049
0.0197197
0.0196454
0.01957
0.0195057
0.0194409
0.0193884
0.0193372
0.0193
0.0192647
0.0192451
0.0192283
0.0192296
0.0192345
0.0192597
0.0192901
0.0193435
0.0194057
0.0194943
0.0195968
0.0197308
0.0198848
0.0200776
0.0202973
0.0205655
0.0208688
0.0212316
0.0216403
0.0221199
0.0226578
0.0232832
0.0239923
0.0248129
0.0257343
0.026761
0.0279079
0.0291951
0.0306356
0.032242
0.0340295
0.0360159
0.0382187
0.0406712
0.0434178
0.0465118
0.0500104
0.0539278
0.0582721
0.0628687
0.0675711
0.0719288
0.0756259
0.0783385
0.0796507
0.0800185
0.0787798
0.0774422
0.0743236
0.0755178
0.0825148
0.0193748
0.0192824
0.0191983
0.0191124
0.0190381
0.0189642
0.0189047
0.0188489
0.018811
0.0187783
0.0187664
0.018761
0.0187792
0.0188044
0.0188546
0.0189124
0.0189959
0.0190888
0.0192086
0.0193417
0.0195047
0.0196873
0.0199053
0.0201513
0.0204407
0.0207687
0.0211495
0.0215818
0.0220771
0.0226358
0.0232674
0.0239836
0.0247997
0.025721
0.0267525
0.0279037
0.0291877
0.0306174
0.0322074
0.0339776
0.0359486
0.0381433
0.0405991
0.0433681
0.046514
0.0501103
0.0541945
0.058806
0.0638069
0.0690909
0.0742467
0.0789669
0.0829046
0.085612
0.0875186
0.0878338
0.0881747
0.0864632
0.0904756
0.0972
0.0193368
0.0192524
0.0191677
0.0190728
0.0189815
0.0188835
0.0187931
0.0187008
0.0186214
0.018543
0.0184826
0.0184259
0.0183928
0.0183658
0.0183674
0.0183778
0.0184206
0.0184761
0.0185672
0.0186764
0.0188245
0.0189977
0.0192142
0.0194647
0.019765
0.0201099
0.0205126
0.0209735
0.0215016
0.0220984
0.0227675
0.0235202
0.0243734
0.025341
0.0264282
0.0276391
0.0289786
0.0304548
0.0320819
0.0338777
0.0358593
0.0380436
0.0404622
0.0431613
0.0461977
0.0496421
0.0535291
0.057902
0.0626291
0.0676107
0.0724611
0.0768519
0.0803975
0.0826444
0.0839982
0.0836577
0.0831325
0.0803763
0.0823785
0.0838535
0.0194277
0.0193895
0.0193441
0.0192822
0.0192151
0.0191328
0.0190489
0.0189538
0.0188628
0.0187642
0.0186755
0.0185832
0.0185079
0.0184331
0.0183818
0.0183365
0.0183214
0.0183192
0.0183539
0.0184101
0.01851
0.0186407
0.0188224
0.0190452
0.0193264
0.0196599
0.020059
0.0205235
0.0210621
0.0216761
0.0223657
0.023141
0.0240216
0.0250217
0.0261519
0.0274088
0.0287922
0.0303071
0.0319654
0.0337827
0.0357711
0.0379421
0.0403215
0.0429512
0.0458834
0.0491875
0.0528983
0.057066
0.0615695
0.0663192
0.0709608
0.0751697
0.0785305
0.0806512
0.0819256
0.0816554
0.08113
0.0783919
0.0794284
0.0799178
0.0194442
0.0194293
0.0194064
0.0193663
0.0193199
0.0192557
0.019187
0.0191034
0.0190197
0.0189237
0.0188331
0.0187334
0.0186459
0.0185528
0.0184787
0.0184038
0.0183555
0.0183145
0.0183087
0.0183215
0.0183794
0.0184691
0.018614
0.0188046
0.0190601
0.0193741
0.0197607
0.0202188
0.0207573
0.021377
0.022078
0.0228691
0.0237683
0.0247956
0.0259536
0.0272405
0.0286518
0.03019
0.0318652
0.0336909
0.0356763
0.037829
0.0401719
0.042745
0.0455995
0.0488078
0.0524093
0.0564663
0.0608725
0.0655511
0.0701797
0.0744428
0.0779112
0.0802402
0.0818772
0.0822094
0.0824144
0.0804663
0.0821301
0.083391
0.0192789
0.019197
0.0191165
0.0190301
0.0189484
0.0188602
0.0187783
0.0186911
0.0186129
0.01853
0.0184589
0.018384
0.0183244
0.0182611
0.0182163
0.0181695
0.0181449
0.0181232
0.0181299
0.0181488
0.0182057
0.0182883
0.0184214
0.0185971
0.0188368
0.0191357
0.0195094
0.0199573
0.0204892
0.0211066
0.0218103
0.02261
0.0235267
0.0245737
0.0257585
0.0270722
0.0285087
0.0300682
0.0317587
0.0335908
0.0355707
0.0377023
0.0400048
0.0425156
0.0452847
0.0483858
0.0518613
0.0557814
0.060051
0.0645956
0.0691047
0.0732614
0.0765917
0.0787813
0.0803084
0.0806972
0.0811125
0.0795272
0.0816815
0.0826042
0.0188977
0.0186697
0.0184581
0.0182557
0.0180751
0.0179055
0.0177606
0.0176298
0.0175272
0.0174395
0.0173822
0.0173388
0.0173269
0.0173248
0.0173527
0.0173857
0.0174462
0.0175097
0.0175998
0.0176959
0.0178225
0.0179644
0.0181461
0.0183592
0.0186263
0.0189436
0.0193285
0.0197816
0.0203137
0.0209282
0.0216282
0.0224265
0.0233443
0.0244024
0.0255994
0.0269286
0.02838
0.0299519
0.0316507
0.0334838
0.0354537
0.03756
0.0398175
0.0422612
0.04494
0.0479296
0.0512755
0.0550572
0.0591892
0.063599
0.0679748
0.0719796
0.0750728
0.0768901
0.0779219
0.0777744
0.0777377
0.0758284
0.0776553
0.0777571
0.0180966
0.0177225
0.0173759
0.0170486
0.0167542
0.0164828
0.0162486
0.0160424
0.0158795
0.0157484
0.0156663
0.0156185
0.0156236
0.015661
0.01575
0.0158658
0.0160275
0.0162084
0.0164271
0.0166591
0.0169232
0.0171998
0.017509
0.0178388
0.0182097
0.0186167
0.0190766
0.0195897
0.020167
0.0208124
0.0215307
0.022338
0.0232623
0.0243209
0.0255206
0.0268497
0.0282984
0.0298654
0.0315566
0.0333781
0.0353299
0.0374086
0.0396259
0.0420168
0.0446316
0.0475512
0.0508304
0.0545638
0.0586855
0.0631328
0.0675949
0.0717101
0.0748383
0.0765347
0.0772039
0.0765112
0.0758047
0.073251
0.0741303
0.0737071
0.0170651
0.0165929
0.0161518
0.0157324
0.0153492
0.0149923
0.0146766
0.014393
0.0141578
0.0139603
0.0138195
0.0137223
0.0136904
0.0137054
0.0137905
0.0139223
0.0141232
0.0143667
0.0146722
0.0150126
0.0154049
0.0158243
0.0162866
0.0167741
0.0173022
0.0178615
0.0184645
0.019108
0.0197996
0.0205407
0.0213351
0.0221996
0.0231625
0.02425
0.0254637
0.0267968
0.0282403
0.0297952
0.0314696
0.0332701
0.0351962
0.0372436
0.039423
0.0417702
0.0443384
0.0472168
0.0504742
0.0542302
0.0584503
0.0631017
0.0678911
0.0724437
0.0760344
0.0780882
0.0788809
0.0780223
0.0768527
0.0736006
0.0732612
0.0723254
0.0158816
0.0153739
0.0148955
0.0144366
0.014012
0.0136115
0.0132502
0.0129184
0.0126323
0.0123811
0.0121841
0.0120288
0.0119381
0.011896
0.011928
0.0120154
0.0121837
0.0124114
0.0127208
0.0130887
0.013533
0.01403
0.0145936
0.0152037
0.0158722
0.0165848
0.0173493
0.0181567
0.019009
0.0199009
0.0208309
0.0218118
0.022873
0.024034
0.0253035
0.0266723
0.0281344
0.0296944
0.0313633
0.0331487
0.0350513
0.0370664
0.0392032
0.0414964
0.0439996
0.0468078
0.0500051
0.0537382
0.0580143
0.0628444
0.0679737
0.0730402
0.0772482
0.0799257
0.0811752
0.0805155
0.07913
0.075263
0.0736021
0.0715088
0.014815
0.0143124
0.013835
0.0133729
0.0129412
0.0125299
0.0121543
0.0118047
0.0114968
0.0112191
0.0109899
0.0107955
0.0106583
0.0105617
0.0105322
0.0105519
0.01065
0.0108078
0.0110534
0.0113679
0.0117755
0.012256
0.0128279
0.013473
0.0142039
0.0150059
0.0158843
0.0168266
0.0178287
0.0188789
0.0199677
0.0211007
0.0222987
0.0235828
0.0249521
0.0264001
0.0279209
0.0295209
0.031212
0.0330015
0.0348895
0.0368694
0.0389451
0.0411451
0.0435169
0.0461559
0.0491551
0.0526866
0.0567992
0.0615599
0.0667698
0.0721127
0.0767757
0.0800127
0.0817858
0.0814799
0.0800865
0.0757299
0.0727997
0.0688786
0.0138963
0.0134264
0.0129773
0.0125389
0.0121257
0.0117284
0.0113618
0.011017
0.0107096
0.0104282
0.0101906
0.00998275
0.00982557
0.00970135
0.00963497
0.00960808
0.0096489
0.00974015
0.00991102
0.0101467
0.010475
0.0108817
0.0113907
0.0119898
0.0126968
0.013501
0.0144109
0.0154144
0.0165063
0.0176703
0.0188901
0.0201636
0.0215059
0.0229249
0.0244206
0.0259791
0.0275933
0.0292681
0.0310126
0.0328302
0.0347169
0.0366601
0.0386536
0.0407132
0.042874
0.045223
0.047855
0.0509578
0.0546177
0.0589561
0.0638423
0.0690307
0.0737246
0.0771843
0.0792655
0.0792674
0.0779453
0.0732856
0.0692287
0.063238
0.0132665
0.0128336
0.0124178
0.0120083
0.0116203
0.0112439
0.0108951
0.0105646
0.010269
0.00999655
0.00976568
0.00956122
0.00940424
0.00927501
0.00919794
0.00915155
0.00916365
0.00921407
0.00933253
0.00950322
0.00975647
0.0100801
0.0105027
0.011017
0.0116472
0.0123891
0.0132574
0.014245
0.0153501
0.0165566
0.0178463
0.0192119
0.0206598
0.0221967
0.0238097
0.0254828
0.0272033
0.0289708
0.0307875
0.0326488
0.0345424
0.0364449
0.0383349
0.0402111
0.0420909
0.0440475
0.046168
0.0486473
0.0515979
0.0551924
0.059368
0.0639703
0.0682679
0.0715623
0.0736719
0.0738433
0.0726532
0.0678923
0.0629617
0.055264
0.0128006
0.0124117
0.0120376
0.0116667
0.0113137
0.0109688
0.0106476
0.010341
0.0100661
0.00981165
0.00959672
0.00940677
0.00926299
0.00914562
0.00907821
0.00903846
0.00905185
0.00909645
0.00919915
0.00934246
0.00955487
0.00982396
0.0101792
0.0106159
0.0111624
0.0118198
0.0126097
0.0135317
0.0145902
0.0157737
0.0170659
0.0184589
0.0199588
0.0215625
0.0232584
0.025022
0.0268351
0.0286899
0.0305792
0.0324874
0.0343904
0.0362505
0.038028
0.039703
0.0412736
0.0427951
0.0443419
0.0461054
0.0482146
0.0508791
0.0540998
0.0578148
0.0613684
0.0641638
0.0660227
0.0662101
0.0651482
0.0604768
0.0549247
0.0462093
0.0125536
0.0122071
0.0118737
0.0115413
0.0112247
0.0109136
0.0106237
0.0103458
0.010097
0.00986617
0.00967267
0.00950223
0.00937669
0.00927667
0.00922612
0.00920222
0.0092303
0.0092867
0.0093971
0.00954124
0.00974561
0.00999505
0.0103176
0.0107076
0.0111942
0.0117809
0.0124932
0.0133364
0.014321
0.0154416
0.0166871
0.0180527
0.0195442
0.0211636
0.0228915
0.0247038
0.0265761
0.0284926
0.0304361
0.0323791
0.034285
0.0360995
0.0377643
0.0392426
0.0405146
0.0416174
0.0426089
0.0436714
0.044937
0.0466425
0.0488363
0.0515477
0.0542144
0.0563418
0.0577945
0.0578881
0.0569611
0.0525062
0.0465799
0.0376174
0.0124223
0.0121237
0.0118375
0.0115502
0.0112764
0.0110051
0.0107517
0.0105067
0.0102874
0.0100829
0.009913
0.00976429
0.00965917
0.00957919
0.00954884
0.0095462
0.0095963
0.00967562
0.0098084
0.00997329
0.0101942
0.0104536
0.0107768
0.0111554
0.0116169
0.0121641
0.0128235
0.0136028
0.0145165
0.0155642
0.01674
0.0180442
0.019489
0.0210742
0.0227881
0.024603
0.0264923
0.0284342
0.0304027
0.03236
0.0342583
0.036028
0.0375942
0.0389071
0.0399319
0.0406892
0.0412203
0.0416926
0.0422342
0.0430912
0.0443469
0.0461033
0.0478713
0.0492804
0.0502453
0.0501706
0.0493283
0.0451384
0.0389881
0.0303617
0.0124811
0.0122224
0.0119748
0.0117249
0.0114873
0.0112507
0.0110309
0.0108176
0.0106283
0.0104513
0.0103069
0.010181
0.0100971
0.0100367
0.0100256
0.0100421
0.0101127
0.0102138
0.0103706
0.0105607
0.0108076
0.0110915
0.0114356
0.0118285
0.0122947
0.0128346
0.0134725
0.0142158
0.0150799
0.0160669
0.017175
0.0184089
0.0197839
0.0213101
0.0229737
0.024753
0.0266202
0.0285499
0.0305106
0.0324571
0.0343331
0.0360579
0.0375449
0.0387345
0.0395808
0.0400917
0.0402929
0.0403349
0.0403325
0.040532
0.0410314
0.0419919
0.0429945
0.0437613
0.0442595
0.043984
0.0431838
0.03923
0.0329545
0.0250111
0.0125835
0.0123677
0.0121631
0.0119555
0.0117593
0.0115626
0.0113807
0.0112031
0.0110472
0.010901
0.0107849
0.010685
0.010625
0.0105867
0.0105966
0.0106337
0.0107252
0.0108485
0.0110292
0.0112455
0.0115206
0.0118344
0.0122084
0.0126293
0.0131189
0.0136745
0.0143175
0.0150527
0.0158941
0.0168436
0.0179003
0.0190719
0.0203797
0.0218335
0.0234303
0.0251493
0.0269653
0.0288528
0.0307779
0.0326919
0.0345345
0.0362191
0.0376528
0.0387697
0.0395172
0.0398936
0.0399113
0.0397021
0.0393644
0.0391306
0.0391024
0.0394764
0.0398708
0.0401012
0.0401711
0.0396697
0.0388197
0.035012
0.0286134
0.0214355
0.0127911
0.0126131
0.0124463
0.0122764
0.0121181
0.0119588
0.0118144
0.0116734
0.011553
0.0114405
0.0113559
0.0112846
0.0112504
0.0112352
0.0112658
0.0113214
0.0114306
0.0115713
0.0117705
0.0120072
0.0123055
0.0126453
0.0130481
0.0134993
0.0140189
0.0146018
0.0152661
0.0160138
0.0168554
0.017791
0.0188188
0.0199468
0.0211969
0.0225871
0.0241135
0.0257628
0.0275122
0.0293382
0.0312079
0.0330728
0.0348728
0.0365212
0.0379237
0.0390115
0.0397286
0.0400677
0.0400291
0.0397272
0.0392383
0.0387777
0.0384333
0.0384274
0.0384081
0.0382433
0.0379588
0.0372229
0.0362524
0.0324763
0.0259403
0.0194431
0.0130278
0.0128924
0.0127689
0.0126416
0.0125252
0.0124065
0.012301
0.0121972
0.012112
0.0120327
0.0119793
0.0119371
0.0119298
0.0119391
0.011992
0.012068
0.0121958
0.0123541
0.0125705
0.012825
0.0131425
0.0135037
0.0139306
0.0144086
0.014957
0.0155693
0.0162613
0.0170321
0.0178891
0.0188292
0.019848
0.0209523
0.0221657
0.0235033
0.0249696
0.0265518
0.0282317
0.0299891
0.0317946
0.0336032
0.0353588
0.0369787
0.0383718
0.0394693
0.0402146
0.0405964
0.0406058
0.0403389
0.0398514
0.0393329
0.0388533
0.0386411
0.0383451
0.0378858
0.0372921
0.0363024
0.0351142
0.0312426
0.0245028
0.0184863
0.0133952
0.0132922
0.0132002
0.0131042
0.0130192
0.012932
0.0128586
0.0127869
0.012734
0.0126862
0.0126634
0.0126501
0.0126699
0.0127039
0.0127793
0.0128751
0.0130206
0.0131946
0.0134256
0.013694
0.014026
0.0144028
0.0148477
0.0153462
0.0159179
0.0165559
0.0172747
0.0180714
0.0189507
0.0199063
0.0209313
0.0220295
0.0232219
0.0245277
0.0259477
0.0274744
0.0290918
0.0307834
0.0325245
0.0342757
0.0359873
0.0375845
0.0389819
0.0401128
0.0409217
0.0413959
0.0415175
0.0413669
0.0409769
0.0405136
0.0400178
0.0397217
0.0392757
0.0386161
0.037763
0.0365106
0.0350475
0.030977
0.0239946
0.0182359
0.0137551
0.0136883
0.0136335
0.0135741
0.0135257
0.0134743
0.0134359
0.0133981
0.0133783
0.0133624
0.0133707
0.0133871
0.0134355
0.0134961
0.0135965
0.0137149
0.0138809
0.0140729
0.01432
0.0146027
0.014948
0.0153379
0.0157963
0.01631
0.0168991
0.017557
0.0182979
0.019118
0.0200202
0.020996
0.0220352
0.0231393
0.0243284
0.025616
0.0270076
0.028494
0.0300616
0.0316976
0.0333822
0.0350825
0.0367567
0.0383393
0.0397528
0.0409337
0.0418286
0.0424237
0.0426939
0.0427046
0.0424687
0.0421259
0.0416891
0.0413835
0.0408392
0.0400175
0.038918
0.0373817
0.0355757
0.0312138
0.0239279
0.018212
0.0141781
0.0141419
0.014118
0.0140898
0.0140735
0.0140545
0.0140496
0.0140455
0.0140598
0.0140774
0.0141184
0.0141661
0.014244
0.0143322
0.0144577
0.0145987
0.0147848
0.0149944
0.0152567
0.0155525
0.0159094
0.0163098
0.0167785
0.0173029
0.017904
0.018576
0.0193332
0.020172
0.0210941
0.0220898
0.023147
0.0242643
0.0254582
0.0267442
0.0281218
0.029584
0.0311175
0.0327116
0.034351
0.0360093
0.0376526
0.0392253
0.0406584
0.0418917
0.0428749
0.0435932
0.0440153
0.044193
0.0441213
0.0439167
0.043561
0.0432738
0.0426751
0.0417235
0.0403934
0.0385658
0.0363945
0.0316908
0.0240884
0.018247
0.0145983
0.0145987
0.0146124
0.0146213
0.0146417
0.0146586
0.0146885
0.014718
0.014765
0.0148142
0.0148863
0.0149641
0.0150714
0.0151875
0.0153398
0.0155055
0.0157143
0.0159442
0.0162243
0.0165353
0.0169049
0.0173162
0.0177942
0.0183273
0.0189372
0.0196188
0.0203875
0.0212398
0.0221777
0.0231907
0.0242653
0.0253987
0.0266062
0.0278974
0.0292746
0.030727
0.0322414
0.0338088
0.0354174
0.037046
0.0386683
0.0402378
0.0416936
0.0429788
0.0440455
0.0448781
0.0454399
0.0457707
0.0458504
0.0457745
0.0454966
0.0452259
0.0445569
0.0434632
0.0418906
0.0397554
0.0371869
0.0320993
0.0241501
0.0180621
0.0151309
0.0151565
0.0151946
0.0152279
0.015273
0.0153153
0.0153718
0.0154288
0.0155044
0.0155827
0.0156842
0.015791
0.0159269
0.0160708
0.0162497
0.0164403
0.0166723
0.0169231
0.017222
0.0175492
0.0179327
0.0183555
0.0188432
0.0193845
0.0200017
0.0206908
0.0214676
0.0223298
0.0232795
0.0243066
0.0253973
0.0265473
0.0277693
0.0290749
0.0304601
0.0319147
0.0334237
0.0349785
0.0365693
0.0381792
0.0397876
0.0413562
0.0428311
0.044158
0.0452913
0.0462139
0.0468851
0.047333
0.0475273
0.0475445
0.047314
0.0470319
0.0462871
0.0450468
0.0432297
0.0407862
0.0378292
0.0323549
0.0240771
0.0176706
0.0156383
0.0156949
0.015765
0.0158299
0.0159067
0.0159797
0.0160666
0.016153
0.0162578
0.0163649
0.0164952
0.0166305
0.0167952
0.016967
0.0171735
0.0173904
0.0176476
0.0179216
0.0182417
0.0185876
0.0189876
0.0194241
0.0199232
0.0204739
0.0210989
0.0217949
0.0225787
0.0234486
0.0244078
0.0254465
0.0265508
0.0277167
0.0289569
0.030278
0.0316786
0.0331442
0.0346589
0.0362133
0.0377993
0.0394019
0.0410057
0.0425773
0.0440705
0.0454294
0.0466143
0.0476008
0.0483518
0.0488761
0.0491474
0.0492135
0.0489988
0.048665
0.0477997
0.0463802
0.0442991
0.0415381
0.0381848
0.0323132
0.0236993
0.0169433
0.0161975
0.0162791
0.0163747
0.0164654
0.0165692
0.0166697
0.0167855
0.0169013
0.0170363
0.0171734
0.0173338
0.0174984
0.0176917
0.0178913
0.0181244
0.0183668
0.0186481
0.0189449
0.019286
0.0196513
0.0200685
0.0205203
0.0210324
0.0215942
0.0222285
0.0229326
0.0237237
0.0246012
0.0255687
0.0266178
0.0277352
0.0289166
0.0301735
0.031515
0.0329344
0.0344179
0.0359466
0.0375109
0.0391012
0.0407052
0.0423087
0.0438844
0.0453879
0.0467663
0.0479788
0.0490005
0.0497901
0.0503475
0.0506447
0.0507126
0.0504666
0.0500389
0.0490315
0.0474168
0.0450653
0.0419923
0.0382667
0.0320201
0.0231053
0.0159951
0.0167544
0.0168682
0.0169969
0.0171201
0.0172559
0.0173873
0.0175329
0.0176773
0.0178402
0.0180043
0.0181917
0.0183829
0.018603
0.0188288
0.0190884
0.0193563
0.0196628
0.0199834
0.0203474
0.0207337
0.0211704
0.0216397
0.0221674
0.0227427
0.0233887
0.0241029
0.0249032
0.0257895
0.0267664
0.0278262
0.0289565
0.0301536
0.0314301
0.0327913
0.0342335
0.0357392
0.0372882
0.0388699
0.0404731
0.0420868
0.0436961
0.0452787
0.0467896
0.0481783
0.0494021
0.0504343
0.0512318
0.0517835
0.0520668
0.0520932
0.0517808
0.0512117
0.0500163
0.0481721
0.0455324
0.0421431
0.0380461
0.031425
0.0222104
0.0147643
0.0174314
0.0175645
0.0177112
0.0178521
0.0180058
0.0181558
0.0183213
0.0184868
0.0186721
0.0188595
0.019071
0.0192868
0.0195318
0.0197829
0.0200675
0.0203604
0.0206914
0.0210361
0.0214233
0.0218319
0.0222896
0.0227784
0.0233241
0.0239158
0.0245763
0.0253038
0.0261159
0.0270137
0.0280022
0.0290747
0.0302199
0.0314343
0.0327299
0.0341147
0.035582
0.037113
0.0386878
0.0402912
0.041914
0.0435407
0.0451596
0.0467463
0.0482591
0.0496447
0.0508614
0.051878
0.0526501
0.0531579
0.0533848
0.0533278
0.0529072
0.0521621
0.0507579
0.048669
0.0457367
0.0420387
0.0375979
0.0306321
0.0211577
0.0133983
0.0180761
0.0182355
0.0184093
0.0185764
0.0187561
0.0189309
0.0191205
0.019309
0.0195171
0.019727
0.0199615
0.0202002
0.0204694
0.0207443
0.021054
0.0213715
0.0217279
0.0220972
0.022509
0.0229411
0.0234218
0.0239323
0.0244985
0.0251094
0.0257878
0.0265318
0.0273595
0.0282722
0.0292758
0.0303643
0.0315269
0.0327612
0.03408
0.0354893
0.0369842
0.038544
0.0401469
0.0417774
0.0434237
0.0450695
0.046701
0.0482946
0.0498068
0.0511834
0.0523811
0.053365
0.0540896
0.0545256
0.0546663
0.0544936
0.0539381
0.0529774
0.0513262
0.0489659
0.0457281
0.0417181
0.0369331
0.0296206
0.0198859
0.0118474
0.018757
0.0189364
0.0191304
0.0193178
0.0195189
0.0197155
0.0199283
0.0201405
0.0203732
0.0206076
0.0208667
0.0211297
0.0214228
0.0217218
0.0220549
0.0223962
0.0227761
0.0231693
0.0236048
0.0240607
0.0245649
0.0250986
0.0256873
0.02632
0.0270192
0.0277834
0.0286305
0.0295624
0.0305851
0.0316938
0.0328783
0.0341362
0.03548
0.0369194
0.0384434
0.0400354
0.0416688
0.0433298
0.045002
0.0466695
0.0483143
0.0499135
0.0514196
0.0527789
0.053944
0.0548783
0.0555314
0.0558701
0.0558931
0.0555743
0.0548522
0.053655
0.0517427
0.0491004
0.0455551
0.0412399
0.0361348
0.0285043
0.0185473
0.0102546
0.019413
0.0196205
0.0198436
0.0200592
0.020288
0.0205108
0.0207487
0.0209845
0.0212402
0.0214965
0.021778
0.0220629
0.022379
0.0227005
0.0230576
0.0234223
0.0238268
0.0242444
0.0247048
0.0251855
0.0257147
0.0262732
0.0268865
0.0275435
0.0282666
0.0290543
0.0299248
0.0308802
0.031927
0.0330607
0.0342712
0.0355572
0.0369328
0.038402
0.0399611
0.0415864
0.0432547
0.044948
0.0466509
0.0483426
0.0500051
0.0516107
0.0531119
0.0544497
0.0555783
0.0564518
0.0570231
0.0572453
0.0571343
0.056646
0.0557419
0.0542735
0.0520759
0.0491331
0.0452709
0.0406461
0.0352162
0.0272598
0.0170758
0.00856084
0.0201762
0.0203976
0.0206329
0.0208605
0.0211014
0.0213372
0.0215894
0.0218412
0.0221143
0.0223895
0.0226907
0.0229967
0.0233342
0.0236785
0.0240584
0.0244472
0.024876
0.0253187
0.0258045
0.0263112
0.0268666
0.0274515
0.0280913
0.0287751
0.029525
0.0303398
0.0312376
0.032221
0.0332965
0.0344599
0.0357021
0.0370212
0.0384299
0.039937
0.0415332
0.0431971
0.0449036
0.0466327
0.0483681
0.0500862
0.0517666
0.0533781
0.0548708
0.0561829
0.0572666
0.0580702
0.0585443
0.0586352
0.0583677
0.0576891
0.0565775
0.0548306
0.0523396
0.0490899
0.0449098
0.0399809
0.0342469
0.0259919
0.0156157
0.00689453
0.0208661
0.0211106
0.02137
0.0216208
0.0218848
0.0221426
0.0224163
0.0226884
0.022982
0.0232773
0.0235995
0.0239264
0.0242865
0.024653
0.025057
0.0254694
0.0259233
0.0263909
0.0269027
0.0274354
0.0280176
0.0286297
0.0292975
0.0300099
0.0307892
0.0316342
0.0325632
0.0335786
0.0346873
0.0358855
0.0371637
0.0385204
0.0399695
0.0415169
0.0431563
0.0448642
0.0466125
0.0483822
0.0501534
0.0519022
0.0536034
0.0552241
0.0567096
0.0579972
0.0590343
0.059765
0.0601357
0.0600875
0.0596516
0.0587703
0.0574365
0.0553882
0.0525885
0.0490203
0.0445157
0.0392771
0.0332294
0.0246632
0.0140864
0.00518189
0.0215673
0.0218296
0.0221075
0.022377
0.0226614
0.02294
0.0232363
0.0235315
0.0238491
0.0241681
0.024514
0.024864
0.0252464
0.0256353
0.0260608
0.0264953
0.0269711
0.0274618
0.027997
0.0285547
0.0291629
0.0298025
0.0304991
0.0312419
0.0320528
0.0329312
0.0338947
0.0349462
0.0360925
0.03733
0.0386494
0.0400492
0.0415424
0.0431387
0.044827
0.046584
0.0483797
0.0501933
0.052004
0.0537853
0.0555093
0.0571391
0.0586166
0.0598772
0.060864
0.0615164
0.0617754
0.0615786
0.0609591
0.0598584
0.0582828
0.0559349
0.0528228
0.0489323
0.0441021
0.0385586
0.0322161
0.0233652
0.0126197
0.00353878
0.0222689
0.0225592
0.0228656
0.0231618
0.0234717
0.0237737
0.0240918
0.0244066
0.0247429
0.0250789
0.025442
0.0258082
0.0262082
0.0266137
0.0270576
0.0275103
0.0280064
0.0285179
0.0290762
0.0296583
0.030293
0.0309611
0.0316882
0.0324637
0.0333091
0.034224
0.0352257
0.0363174
0.0375057
0.0387874
0.0401531
0.0416015
0.0431475
0.044796
0.0465404
0.0483519
0.0502001
0.0520629
0.053918
0.0557365
0.0574876
0.0591308
0.0606035
0.0618389
0.0627767
0.0633504
0.0634963
0.0631472
0.0623371
0.0610084
0.0591796
0.0565152
0.0530816
0.0488625
0.0437019
0.0378479
0.031199
0.0220489
0.0111239
0.00188053
0.0231589
0.023447
0.0237476
0.0240358
0.0243384
0.0246363
0.0249545
0.0252719
0.0256144
0.0259595
0.0263349
0.0267147
0.0271299
0.0275522
0.028014
0.0284867
0.0290039
0.029539
0.0301222
0.0307316
0.0313956
0.0320952
0.0328559
0.0336676
0.0345511
0.0355065
0.0365507
0.037687
0.0389223
0.0402532
0.041671
0.0431742
0.0447762
0.0464864
0.0482913
0.0501634
0.0520699
0.0539872
0.0558909
0.0577497
0.0595305
0.0611886
0.0626568
0.0638657
0.0647527
0.0652444
0.0652725
0.0647647
0.0637532
0.0621822
0.060085
0.0571092
0.0533533
0.0488027
0.0433112
0.0371526
0.0302175
0.0207961
0.00972282
0.000317995
0.0234964
0.0238334
0.0241873
0.0245301
0.0248853
0.0252316
0.0255943
0.0259509
0.0263299
0.026707
0.0271138
0.0275217
0.0279657
0.0284146
0.0289043
0.0294036
0.029949
0.0305122
0.0311252
0.0317656
0.0324627
0.0331976
0.033996
0.0348477
0.0357738
0.0367742
0.0378656
0.0390516
0.0403387
0.0417243
0.0431991
0.0447622
0.0464286
0.0482026
0.0500751
0.0520136
0.0539845
0.0559622
0.0579201
0.0598245
0.0616399
0.0633176
0.0647851
0.0659707
0.0668089
0.0672196
0.0671301
0.0664623
0.0652452
0.0634258
0.0610517
0.057751
0.0536678
0.0487831
0.0429581
0.0364899
0.0292574
0.0195498
0.0083176
-0.00124353
0.0242338
0.0245645
0.0249086
0.0252405
0.0255875
0.0259299
0.0262935
0.0266563
0.0270455
0.0274371
0.0278608
0.0282889
0.0287544
0.029227
0.0297413
0.0302672
0.0308407
0.0314341
0.0320794
0.0327543
0.0334886
0.034263
0.0351038
0.0360005
0.036974
0.0380246
0.0391683
0.040409
0.0417532
0.0431983
0.0447358
0.0463644
0.0480978
0.0499445
0.0518888
0.0538998
0.0559407
0.0579841
0.0600008
0.0619545
0.0638072
0.0655061
0.0669739
0.0681362
0.0689242
0.0692515
0.0690413
0.0682085
0.066778
0.0646983
0.0620358
0.0584166
0.0540063
0.0487844
0.0426262
0.0358566
0.0283493
0.0183852
0.00702391
-0.00269421
0.0244278
0.0248014
0.0251931
0.0255746
0.02597
0.0263578
0.0267638
0.0271652
0.0275913
0.0280169
0.0284751
0.0289355
0.029435
0.0299407
0.0304904
0.0310512
0.0316618
0.0322925
0.0329774
0.0336931
0.0344707
0.0352902
0.0361788
0.0371257
0.038152
0.0392578
0.0404592
0.0417598
0.0431661
0.044676
0.0462808
0.0479797
0.0497877
0.0517085
0.0537309
0.055819
0.0579352
0.0600498
0.062131
0.0641395
0.0660343
0.0677589
0.0692311
0.0703732
0.071113
0.0713581
0.0710278
0.0700302
0.0683838
0.0660408
0.0630843
0.0591348
0.0543942
0.0488342
0.0423426
0.0352688
0.0274768
0.0172415
0.00574115
-0.00413656
0.0249863
0.02535
0.02573
0.0260999
0.0264878
0.0268732
0.0272828
0.0276936
0.0281341
0.0285786
0.0290588
0.029545
0.0300722
0.0306081
0.0311898
0.031785
0.0324324
0.0331024
0.0338292
0.0345893
0.0354141
0.0362835
0.0372246
0.0382269
0.0393109
0.0404772
0.0417412
0.0431069
0.0445804
0.04616
0.0478374
0.0496113
0.0514957
0.0534979
0.0556011
0.0577708
0.0599669
0.0621573
0.064307
0.0663736
0.0683133
0.0700651
0.0715424
0.0726641
0.0733544
0.0735152
0.0730621
0.0718958
0.070028
0.0674127
0.0641537
0.0598803
0.054808
0.0489059
0.0420827
0.0347173
0.0266662
0.0161913
0.00458105
-0.00546103
0.0249489
0.0253538
0.0257814
0.0262032
0.0266436
0.0270804
0.0275398
0.027998
0.0284849
0.0289739
0.0294992
0.0300285
0.0306007
0.0311806
0.0318081
0.0324487
0.0331432
0.0338607
0.0346368
0.0354474
0.036325
0.0372491
0.0382477
0.0393098
0.0404563
0.0416877
0.0430193
0.0444549
0.0460006
0.0476547
0.0494086
0.0512616
0.0532284
0.0553125
0.0575008
0.0597554
0.0620351
0.0643056
0.0665286
0.0686582
0.070647
0.07243
0.0739159
0.07502
0.0756622
0.0757398
0.0751645
0.0738302
0.0717405
0.0688526
0.0652883
0.0606807
0.0552738
0.0490305
0.0418772
0.0342198
0.0259006
0.0151724
0.00344267
-0.00677537
0.0252135
0.0256258
0.0260618
0.0264939
0.0269484
0.0274028
0.0278839
0.0283664
0.0288806
0.0293987
0.0299551
0.0305175
0.0311245
0.0317411
0.0324075
0.0330892
0.0338279
0.0345919
0.0354177
0.0362806
0.0372137
0.0381958
0.0392554
0.0403814
0.0415945
0.0428954
0.044299
0.0458091
0.0474315
0.0491644
0.0509995
0.0529354
0.0549861
0.0571579
0.0594331
0.0617754
0.0641417
0.0664953
0.0687945
0.0709895
0.0730291
0.074844
0.0763387
0.0774246
0.0780173
0.0780095
0.0773094
0.0758039
0.0734889
0.070322
0.066447
0.0615112
0.0557663
0.0491767
0.0416972
0.0337637
0.0252039
0.0142534
0.00243084
-0.00797162
0.0253875
0.0258097
0.0262566
0.0267018
0.0271709
0.0276419
0.0281426
0.0286475
0.0291885
0.0297366
0.0303282
0.030928
0.0315773
0.032238
0.0329525
0.0336834
0.0344743
0.0352917
0.0361734
0.0370937
0.0380869
0.0391311
0.0402557
0.0414492
0.0427327
0.0441069
0.0455866
0.0471752
0.0488785
0.0506945
0.0526145
0.0546372
0.056777
0.0590363
0.0614017
0.0638337
0.0662889
0.0687284
0.0711071
0.0733708
0.0754645
0.0773142
0.0788204
0.0798902
0.0804346
0.0803421
0.0795175
0.0778418
0.0753023
0.0718584
0.0676722
0.0623989
0.0563132
0.0493798
0.0415775
0.0333692
0.02456
0.0133727
0.00144618
-0.0091583
0.0254985
0.025939
0.0264072
0.0268754
0.0273705
0.0278697
0.0284006
0.0289372
0.0295111
0.0300933
0.0307198
0.0313567
0.0320443
0.0327458
0.0335031
0.0342797
0.0351193
0.0359885
0.0369252
0.0379035
0.0389579
0.0400663
0.0412583
0.0425222
0.0438791
0.0453298
0.0468888
0.0485598
0.0503478
0.0522507
0.0542599
0.0563728
0.0586028
0.0609548
0.0634113
0.0659351
0.0684811
0.0710081
0.0734674
0.0758008
0.0779489
0.0798333
0.0813504
0.0824031
0.0828972
0.0827177
0.0817658
0.0799168
0.0771515
0.0734267
0.0689256
0.0633194
0.0568877
0.0496049
0.041486
0.0330219
0.0239919
0.0125971
0.00058953
-0.0102294
0.025529
0.0259916
0.0264842
0.0269792
0.0275027
0.0280316
0.0285943
0.0291643
0.0297745
0.0303949
0.0310631
0.0317429
0.032477
0.0332263
0.0340346
0.0348632
0.0357577
0.0366832
0.0376789
0.0387182
0.0398367
0.0410115
0.0422732
0.0436097
0.0450425
0.0465722
0.0482135
0.0499697
0.0518457
0.053839
0.0559402
0.0581466
0.0604713
0.062916
0.0654667
0.068084
0.0707223
0.0733385
0.0758801
0.0782851
0.0804894
0.0824102
0.0839402
0.0849773
0.0854219
0.0851554
0.0840761
0.0820547
0.0790652
0.0750625
0.0702472
0.0643005
0.0575216
0.0498931
0.0414625
0.0327434
0.023484
0.011866
-0.000236107
-0.0112921
0.0256181
0.0261014
0.0266167
0.0271359
0.0276862
0.0282445
0.0288387
0.0294424
0.0300877
0.030745
0.0314511
0.0321712
0.0329469
0.0337402
0.0345945
0.0354721
0.0364183
0.0373988
0.0384524
0.0395529
0.0407359
0.0419783
0.0433111
0.0447219
0.0462322
0.0478429
0.0495684
0.0514122
0.0533785
0.0554647
0.0576612
0.0599637
0.0623845
0.064927
0.0675732
0.070286
0.0730181
0.0757239
0.078348
0.0808242
0.083084
0.0850402
0.0865817
0.0876016
0.0879939
0.0876377
0.0864273
0.0842308
0.0810164
0.0767349
0.0716036
0.0653185
0.0581861
0.0502066
0.0414724
0.0325191
0.0230573
0.0112422
-0.00093749
-0.012244
0.0256968
0.0262041
0.0267448
0.0272908
0.0278687
0.0284556
0.0290801
0.0297157
0.0303959
0.0310903
0.0318373
0.0325999
0.033422
0.0342634
0.0351691
0.0360996
0.0371018
0.0381399
0.0392542
0.0404175
0.0416666
0.0429778
0.0443826
0.0458687
0.0474577
0.0491505
0.0509615
0.0528941
0.0549525
0.0571336
0.0594272
0.0618288
0.0643499
0.0669902
0.0697353
0.0725453
0.0753725
0.0781693
0.0808768
0.0834251
0.0857416
0.0877343
0.0892885
0.0902914
0.0906315
0.0901848
0.0888428
0.0864709
0.0830342
0.0784765
0.0730304
0.0664009
0.0589156
0.0505903
0.0415583
0.0323709
0.0226967
0.0106671
-0.00160776
-0.0131892
0.0258253
0.0263577
0.0269255
0.0275002
0.0281095
0.0287295
0.029389
0.030061
0.0307784
0.0315112
0.032297
0.0331006
0.0339646
0.0348503
0.0358022
0.0367819
0.0378362
0.0389297
0.0401025
0.0413277
0.042642
0.0440217
0.0454986
0.0470601
0.0487278
0.050503
0.0523999
0.0544222
0.0565736
0.0588509
0.0612439
0.0637463
0.0663685
0.0691115
0.0719569
0.0748663
0.0777903
0.0806787
0.0834696
0.0860894
0.0884613
0.0904893
0.092054
0.0930371
0.0933214
0.0927806
0.091302
0.0887521
0.085092
0.0802615
0.0744986
0.0675237
0.0596773
0.0510028
0.041683
0.0322833
0.022422
0.010201
-0.0021576
-0.0140273
0.025971
0.0265311
0.0271281
0.0277335
0.0283742
0.0290268
0.0297202
0.0304275
0.0311827
0.0319549
0.0327834
0.0336306
0.0345416