/*--------------------------------*- C++ -*----------------------------------*\
  =========                 |
  \\      /  F ield         | OpenFOAM: The Open Source CFD Toolbox
   \\    /   O peration     | Website:  https://openfoam.org
    \\  /    A nd           | Version:  6.0
     \\/     M anipulation  |
\*---------------------------------------------------------------------------*/
FoamFile
{
    version     2.0;
    format      ascii;
    class       surfaceScalarField;
    location    "18";
    object      phi;
}
// * * * * * * * * * * * * * * * * * * * * * * * * * * * * * * * * * * * * * //

dimensions      [0 3 -1 0 0 0 0];

internalField   nonuniform List<scalar> 
123526
(
-0.000106769
2.20022e-05
0.000107158
-0.000106362
2.37997e-05
-0.00010592
2.57448e-05
-0.000105447
2.78498e-05
-0.000104934
3.01279e-05
-0.000104382
3.25936e-05
-0.000103785
3.52626e-05
-0.000103141
3.81522e-05
-0.000102444
4.128e-05
-0.000101692
4.46666e-05
-0.000100877
4.83348e-05
-9.99992e-05
5.23077e-05
-9.90469e-05
5.66111e-05
-9.80199e-05
6.12707e-05
-9.69021e-05
6.63181e-05
-9.56997e-05
7.17909e-05
-9.43956e-05
7.77217e-05
-9.2985e-05
8.41426e-05
-9.14515e-05
9.11055e-05
-8.97995e-05
9.86585e-05
-8.80007e-05
0.000106839
-8.60525e-05
0.00011571
-8.39419e-05
0.000125339
-8.16455e-05
0.000135765
-7.9154e-05
0.000147088
-7.64511e-05
0.000159364
-7.35082e-05
0.000172679
-7.03186e-05
0.000187131
-6.68413e-05
0.000202795
-6.30716e-05
0.000219802
-5.8964e-05
0.000238236
-5.45063e-05
0.000258239
-4.96551e-05
0.000279919
-4.4378e-05
0.000303416
-3.86442e-05
0.000328872
-3.2398e-05
0.000356413
-2.56142e-05
0.000386221
-1.82424e-05
0.000418423
-1.02308e-05
0.000453164
-1.54089e-06
0.000490596
7.87764e-06
0.00053083
1.808e-05
0.000573956
2.91089e-05
0.000620041
4.10077e-05
0.000669082
5.38203e-05
0.000720993
6.75912e-05
0.00077558
8.23622e-05
0.000832491
9.81803e-05
0.000891166
0.000115085
0.000950761
0.000133103
0.00101008
0.000152237
0.00106745
0.000172432
0.00112067
0.000193549
0.00116689
0.000215355
0.00120242
0.000237605
0.00122243
0.000259874
0.00122095
0.00028181
0.00118983
0.000302483
0.00112009
0.000321014
0.000992441
0.00077795
0.000323966
-0.000105253
2.16341e-05
0.00010563
-0.000104853
2.34017e-05
-0.00010442
2.53149e-05
-0.000103954
2.73858e-05
-0.00010345
2.96273e-05
-0.000102909
3.20534e-05
-0.000102324
3.46797e-05
-0.000101695
3.75228e-05
-0.000101012
4.05993e-05
-0.000100277
4.39296e-05
-9.9478e-05
4.7537e-05
-9.8618e-05
5.14439e-05
-9.76805e-05
5.56757e-05
-9.66698e-05
6.02554e-05
-9.5565e-05
6.52158e-05
-9.43765e-05
7.05983e-05
-9.3084e-05
7.64322e-05
-9.1686e-05
8.27418e-05
-9.0165e-05
8.95878e-05
-8.8527e-05
9.70191e-05
-8.67449e-05
0.00010506
-8.48157e-05
0.00011378
-8.2729e-05
0.000123255
-8.04595e-05
0.000133495
-7.80018e-05
0.000144632
-7.53359e-05
0.000156699
-7.24387e-05
0.000169783
-6.92988e-05
0.000183992
-6.58812e-05
0.000199379
-6.21769e-05
0.000216099
-5.81463e-05
0.000234205
-5.37725e-05
0.000253866
-4.90145e-05
0.000275165
-4.38419e-05
0.000298248
-3.82251e-05
0.000323261
-3.21115e-05
0.000350304
-2.5476e-05
0.000379589
-1.82688e-05
0.000411219
-1.04392e-05
0.000445337
-1.94928e-06
0.000482109
7.24976e-06
0.000521635
1.72128e-05
0.000563996
2.79844e-05
0.000609272
3.96127e-05
0.000657455
5.21487e-05
0.000708456
6.56454e-05
0.00076208
8.01532e-05
0.000817975
9.57241e-05
0.000875581
0.000112395
0.000934065
0.000130183
0.000992252
0.00014907
0.0010485
0.000168984
0.00110067
0.00018978
0.001146
0.00021123
0.00118084
0.000233096
0.00120039
0.000254964
0.00119883
0.000276412
0.00116814
0.000296452
0.00109975
0.000310869
0.000977526
0.000774827
0.000313263
-0.000103747
2.12773e-05
0.000104112
-0.000103357
2.30133e-05
-0.000102931
2.4893e-05
-0.000102473
2.69285e-05
-0.000101975
2.91329e-05
-0.000101441
3.152e-05
-0.000100864
3.41051e-05
-0.000100245
3.69044e-05
-9.95762e-05
3.99332e-05
-9.88588e-05
4.32116e-05
-9.80814e-05
4.6763e-05
-9.72474e-05
5.06085e-05
-9.63403e-05
5.4773e-05
-9.53631e-05
5.92763e-05
-9.42945e-05
6.41523e-05
-9.3144e-05
6.9446e-05
-9.18901e-05
7.51835e-05
-9.05313e-05
8.13815e-05
-8.90485e-05
8.81097e-05
-8.74484e-05
9.54181e-05
-8.57026e-05
0.000103318
-8.38097e-05
0.000111887
-8.17585e-05
0.000121207
-7.95252e-05
0.000131263
-7.71049e-05
0.000142215
-7.44784e-05
0.000154074
-7.16236e-05
0.000166931
-6.853e-05
0.0001809
-6.51638e-05
0.000196015
-6.15166e-05
0.000212453
-5.75495e-05
0.000230239
-5.32458e-05
0.000249564
-4.85664e-05
0.000270488
-4.34807e-05
0.000293169
-3.79636e-05
0.000317749
-3.19631e-05
0.000344307
-2.54554e-05
0.000373085
-1.83914e-05
0.000404157
-1.07209e-05
0.000437669
-2.40722e-06
0.000473798
6.5992e-06
0.000512629
1.63558e-05
0.00055424
2.69108e-05
0.000598716
3.83167e-05
0.000646047
5.063e-05
0.000696139
6.39078e-05
0.000748796
7.82028e-05
0.000803669
9.35632e-05
0.000860207
0.000110017
0.000917591
0.000127568
0.000974676
0.000146179
0.00102986
0.000165778
0.00108104
0.000186222
0.00112553
0.000207306
0.0011597
0.000228785
0.00117886
0.000250267
0.00117728
0.000271209
0.00114718
0.000290739
0.00108018
0.000305165
0.000963096
0.000771821
0.000308368
-0.000102133
2.09437e-05
0.000102469
-0.000101768
2.26486e-05
-0.000101368
2.44941e-05
-0.000100931
2.64924e-05
-0.000100454
2.86569e-05
-9.99369e-05
3.1002e-05
-9.93734e-05
3.35429e-05
-9.87673e-05
3.62964e-05
-9.81089e-05
3.92765e-05
-9.74042e-05
4.25033e-05
-9.66398e-05
4.60006e-05
-9.58244e-05
4.9788e-05
-9.49384e-05
5.38897e-05
-9.39899e-05
5.83222e-05
-9.29539e-05
6.31197e-05
-9.18434e-05
6.83306e-05
-9.0633e-05
7.39771e-05
-8.93233e-05
8.00684e-05
-8.78919e-05
8.66825e-05
-8.63462e-05
9.38708e-05
-8.46557e-05
0.000101631
-8.28192e-05
0.000110051
-8.0824e-05
0.000119216
-7.86469e-05
0.000129087
-7.62822e-05
0.000139853
-7.37115e-05
0.000151505
-7.0913e-05
0.000164135
-6.78768e-05
0.000177867
-6.45702e-05
0.000192711
-6.09851e-05
0.00020887
-5.70839e-05
0.000226338
-5.28506e-05
0.000245332
-4.82455e-05
0.000265888
-4.32428e-05
0.000288171
-3.78158e-05
0.000312328
-3.19157e-05
0.000338411
-2.55188e-05
0.000366691
-1.85769e-05
0.000397218
-1.10408e-05
0.000430136
-2.87442e-06
0.000465634
5.97261e-06
0.000503785
1.55604e-05
0.000544654
2.59393e-05
0.000588339
3.71634e-05
0.000634824
4.929e-05
0.000684013
6.23758e-05
0.000735711
7.64701e-05
0.000789572
9.16152e-05
0.000845058
0.00010783
0.000901367
0.000125112
0.000957381
0.000143417
0.00101153
0.000162681
0.00106176
0.00018277
0.00110541
0.000203495
0.00113893
0.000224599
0.00115768
0.000245705
0.00115605
0.000266183
0.00112659
0.000285314
0.00106092
0.000299964
0.000948196
0.000768276
0.000303198
-0.000100379
2.063e-05
0.0001007
-0.00010004
2.23105e-05
-9.96692e-05
2.41276e-05
-9.92685e-05
2.6093e-05
-9.88287e-05
2.82203e-05
-9.83496e-05
3.05238e-05
-9.7824e-05
3.30196e-05
-9.7252e-05
3.57246e-05
-9.6626e-05
3.86526e-05
-9.59478e-05
4.18244e-05
-9.52089e-05
4.52644e-05
-9.44143e-05
4.89916e-05
-9.35508e-05
5.30297e-05
-9.26232e-05
5.73921e-05
-9.16124e-05
6.21133e-05
-9.05291e-05
6.72447e-05
-8.9352e-05
7.28044e-05
-8.80799e-05
7.8794e-05
-8.66924e-05
8.52992e-05
-8.51952e-05
9.23721e-05
-8.35579e-05
9.99979e-05
-8.17784e-05
0.000108271
-7.98429e-05
0.000117284
-7.7728e-05
0.000126972
-7.54268e-05
0.000137555
-7.2921e-05
0.000149001
-7.01883e-05
0.000161405
-6.72189e-05
0.0001749
-6.39805e-05
0.000189475
-6.04654e-05
0.000205357
-5.6636e-05
0.00022251
-5.24772e-05
0.000241175
-4.79518e-05
0.000261366
-4.30319e-05
0.000283258
-3.76949e-05
0.000306995
-3.18914e-05
0.000332611
-2.55988e-05
0.000360401
-1.87697e-05
0.000390391
-1.13555e-05
0.000422723
-3.32065e-06
0.0004576
5.38545e-06
0.000495079
1.48239e-05
0.000535215
2.50455e-05
0.000578116
3.61034e-05
0.000623764
4.80531e-05
0.000672059
6.09482e-05
0.00072281
7.48337e-05
0.000775678
8.97463e-05
0.000830136
0.000105701
0.000885399
0.000122692
0.000940375
0.000140678
0.000993527
0.000159603
0.00104282
0.000179343
0.00108567
0.000199717
0.00111854
0.000220457
0.00113693
0.00024119
0.00113529
0.000261239
0.00110656
0.000279962
0.00104221
0.000294367
0.000933847
0.000763884
0.000299018
-9.87514e-05
2.03071e-05
9.90773e-05
-9.8411e-05
2.19701e-05
-9.80478e-05
2.37664e-05
-9.76621e-05
2.57072e-05
-9.72455e-05
2.78052e-05
-9.67966e-05
3.00743e-05
-9.63058e-05
3.25302e-05
-9.57731e-05
3.51901e-05
-9.51864e-05
3.80672e-05
-9.45486e-05
4.11832e-05
-9.38462e-05
4.45635e-05
-9.30868e-05
4.82271e-05
-9.22527e-05
5.21979e-05
-9.13531e-05
5.64868e-05
-9.03663e-05
6.11293e-05
-8.93068e-05
6.61801e-05
-8.81525e-05
7.16536e-05
-8.69057e-05
7.75435e-05
-8.55459e-05
8.39431e-05
-8.40807e-05
9.09049e-05
-8.24802e-05
9.84011e-05
-8.07426e-05
0.000106533
-7.88541e-05
0.000115398
-7.67911e-05
0.00012491
-7.45459e-05
0.000135313
-7.21e-05
0.000146557
-6.94306e-05
0.000158739
-6.65274e-05
0.000171999
-6.33582e-05
0.000186308
-5.99144e-05
0.000201916
-5.61597e-05
0.000218757
-5.20788e-05
0.000237096
-4.76337e-05
0.000256926
-4.28005e-05
0.00027843
-3.75541e-05
0.000301754
-3.18477e-05
0.000326907
-2.56586e-05
0.000354214
-1.89401e-05
0.000383675
-1.16443e-05
0.000415429
-3.73572e-06
0.000449694
4.83575e-06
0.00048651
1.41305e-05
0.000525922
2.41984e-05
0.00056805
3.50908e-05
0.000612873
4.68604e-05
0.000660291
5.95577e-05
0.000710114
7.32239e-05
0.000762012
8.78924e-05
0.000815467
0.000103576
0.000869711
0.000120272
0.000923675
0.000137942
0.000975847
0.000156539
0.00102422
0.000175943
0.00106626
0.000195978
0.00109848
0.000216365
0.0011165
0.000236729
0.00111485
0.000256372
0.00108685
0.000274674
0.00102384
0.000289041
0.000919326
0.000757085
0.000295685
-9.75606e-05
1.99571e-05
9.7915e-05
-9.71925e-05
2.16023e-05
-9.68034e-05
2.338e-05
-9.63969e-05
2.53008e-05
-9.59655e-05
2.7376e-05
-9.55101e-05
2.96186e-05
-9.50214e-05
3.20432e-05
-9.44985e-05
3.46662e-05
-9.39291e-05
3.74997e-05
-9.33132e-05
4.05654e-05
-9.26366e-05
4.38897e-05
-9.19037e-05
4.74914e-05
-9.10967e-05
5.13947e-05
-9.02218e-05
5.56087e-05
-8.92579e-05
6.01701e-05
-8.82187e-05
6.51377e-05
-8.70831e-05
7.05228e-05
-8.58538e-05
7.63117e-05
-8.45118e-05
8.26055e-05
-8.3066e-05
8.94573e-05
-8.14874e-05
9.68265e-05
-7.97759e-05
0.00010482
-7.79179e-05
0.000113544
-7.58908e-05
0.000122883
-7.36871e-05
0.000133112
-7.12883e-05
0.000144159
-6.86714e-05
0.000156124
-6.58258e-05
0.000169156
-6.27189e-05
0.000183204
-5.93422e-05
0.000198541
-5.56588e-05
0.000215075
-5.16531e-05
0.000233092
-4.72896e-05
0.000252566
-4.2541e-05
0.000273687
-3.73859e-05
0.000296603
-3.17764e-05
0.000321301
-2.56907e-05
0.00034813
-1.90825e-05
0.000377068
-1.19045e-05
0.000408252
-4.12126e-06
0.000441911
4.31645e-06
0.000478072
1.34674e-05
0.00051677
2.33798e-05
0.000558135
3.41029e-05
0.000602147
4.56872e-05
0.000648702
5.81804e-05
0.000697615
7.16215e-05
0.000748562
8.60422e-05
0.000801038
0.000101456
0.000854286
0.000117862
0.000907257
0.000135227
0.000958467
0.000153508
0.00100593
0.000172589
0.00104718
0.000192293
0.00107877
0.000212334
0.00109645
0.000232337
0.00109483
0.000251595
0.00106763
0.0002695
0.00100596
0.000284037
0.000904853
0.000749098
0.000292265
-9.68479e-05
1.95823e-05
9.72235e-05
-9.64496e-05
2.12029e-05
-9.60256e-05
2.2957e-05
-9.55804e-05
2.48546e-05
-9.51101e-05
2.69064e-05
-9.46173e-05
2.91244e-05
-9.40952e-05
3.1522e-05
-9.3546e-05
3.41144e-05
-9.29568e-05
3.69117e-05
-9.23306e-05
3.99349e-05
-9.16499e-05
4.32106e-05
-9.09208e-05
4.67566e-05
-9.01209e-05
5.05972e-05
-8.92579e-05
5.47394e-05
-8.8306e-05
5.92215e-05
-8.72802e-05
6.41064e-05
-8.61562e-05
6.94026e-05
-8.49385e-05
7.509e-05
-8.36068e-05
8.12778e-05
-8.21717e-05
8.802e-05
-8.06049e-05
9.52634e-05
-7.89075e-05
0.000103122
-7.70669e-05
0.000111707
-7.50621e-05
0.000120879
-7.28858e-05
0.000130939
-7.05204e-05
0.000141795
-6.79433e-05
0.00015355
-6.51437e-05
0.000166358
-6.20895e-05
0.000180151
-5.8771e-05
0.000195225
-5.51524e-05
0.000211457
-5.12177e-05
0.000229159
-4.69296e-05
0.000248283
-4.22646e-05
0.000269027
-3.71979e-05
0.000291541
-3.1684e-05
0.000315789
-2.57005e-05
0.000342147
-1.92019e-05
0.00037057
-1.21413e-05
0.000401192
-4.48336e-06
0.000434254
3.82018e-06
0.000469769
1.2826e-05
0.000507766
2.25806e-05
0.000548383
3.31314e-05
0.000591598
4.4527e-05
0.000637308
5.68135e-05
0.000685331
7.00282e-05
0.000735349
8.42028e-05
0.000786865
9.93514e-05
0.000839136
0.000115476
0.000891131
0.000132546
0.000941391
0.000150521
0.00098796
0.000169284
0.00102842
0.000188658
0.00105938
0.000208353
0.00107672
0.000227996
0.00107512
0.000246892
0.00104868
0.000264437
0.000988368
0.000279069
0.000890098
0.000739828
0.000288239
-9.63936e-05
1.92033e-05
9.67778e-05
-9.59819e-05
2.0792e-05
-9.55366e-05
2.25145e-05
-9.5063e-05
2.43814e-05
-9.45579e-05
2.64035e-05
-9.40258e-05
2.85922e-05
-9.34627e-05
3.09604e-05
-9.28716e-05
3.35223e-05
-9.22444e-05
3.62861e-05
-9.15831e-05
3.92716e-05
-9.0875e-05
4.25048e-05
-9.01236e-05
4.60022e-05
-8.93102e-05
4.97871e-05
-8.84383e-05
5.38639e-05
-8.74845e-05
5.82719e-05
-8.64595e-05
6.30779e-05
-8.53403e-05
6.82877e-05
-8.41282e-05
7.3875e-05
-8.28037e-05
7.99574e-05
-8.1376e-05
8.65902e-05
-7.98174e-05
9.37084e-05
-7.81294e-05
0.000101433
-7.63002e-05
0.000109881
-7.431e-05
0.000118888
-7.21524e-05
0.000128784
-6.98107e-05
0.000139455
-6.72631e-05
0.000151004
-6.44995e-05
0.000163596
-6.14879e-05
0.000177142
-5.82193e-05
0.000191957
-5.46571e-05
0.000207896
-5.07857e-05
0.000225289
-4.65696e-05
0.000244069
-4.19818e-05
0.000264445
-3.70005e-05
0.000286563
-3.1579e-05
0.000310369
-2.56955e-05
0.000336265
-1.93048e-05
0.00036418
-1.23605e-05
0.000394248
-4.8276e-06
0.00042672
3.3413e-06
0.000461599
1.22009e-05
0.000498904
2.17962e-05
0.000538784
3.21732e-05
0.000581217
4.33791e-05
0.000626097
5.54588e-05
0.000673246
6.84489e-05
0.000722351
8.23813e-05
0.000772925
9.7271e-05
0.000824236
0.000113122
0.00087527
0.000129904
0.000924594
0.000147576
0.000970284
0.000166022
0.00100997
0.00018506
0.00104033
0.000204403
0.00105737
0.000223684
0.00105583
0.000242238
0.00103015
0.000259444
0.000971202
0.000273996
0.000875605
0.000730346
0.000283683
-9.59569e-05
1.88356e-05
9.63262e-05
-9.55537e-05
2.03879e-05
-9.51109e-05
2.2073e-05
-9.46324e-05
2.39021e-05
-9.41147e-05
2.58866e-05
-9.35622e-05
2.80384e-05
-9.29714e-05
3.03704e-05
-9.23481e-05
3.28966e-05
-9.16846e-05
3.56235e-05
-9.09874e-05
3.85702e-05
-9.02438e-05
4.17624e-05
-8.94616e-05
4.52143e-05
-8.86207e-05
4.89483e-05
-8.77287e-05
5.29655e-05
-8.67597e-05
5.73056e-05
-8.5726e-05
6.20385e-05
-8.46022e-05
6.71672e-05
-8.33902e-05
7.26589e-05
-8.20685e-05
7.86393e-05
-8.06459e-05
8.51651e-05
-7.90943e-05
9.21602e-05
-7.74149e-05
9.97527e-05
-7.55961e-05
0.000108065
-7.36186e-05
0.000116911
-7.14766e-05
0.000126645
-6.91544e-05
0.000137134
-6.6631e-05
0.000148483
-6.38969e-05
0.000160864
-6.09213e-05
0.000174168
-5.7695e-05
0.000188733
-5.41828e-05
0.000204384
-5.0369e-05
0.000221476
-4.62169e-05
0.000239922
-4.17028e-05
0.000259934
-3.68019e-05
0.000281666
-3.14692e-05
0.000305038
-2.56826e-05
0.000330478
-1.93976e-05
0.000357895
-1.2568e-05
0.000387419
-5.1593e-06
0.000419312
2.87507e-06
0.000453565
1.15883e-05
0.000490191
2.10241e-05
0.00052935
3.12274e-05
0.000571016
4.22444e-05
0.000615081
5.41193e-05
0.000661374
6.68885e-05
0.000709583
8.0584e-05
0.000759232
9.52209e-05
0.000809599
0.000110803
0.000859687
0.000127303
0.00090809
0.000144675
0.000952916
0.0001628
0.000991845
0.000181496
0.00102162
0.00020048
0.00103835
0.000219395
0.00103685
0.00023762
0.00101188
0.000254506
0.000954271
0.000268886
0.000861114
0.000720214
0.000278936
-9.53935e-05
1.84892e-05
9.57433e-05
-9.50104e-05
2.00047e-05
-9.45858e-05
2.16504e-05
-9.41222e-05
2.34381e-05
-9.3614e-05
2.53799e-05
-9.3065e-05
2.74884e-05
-9.24708e-05
2.97772e-05
-9.18366e-05
3.22606e-05
-9.11562e-05
3.49445e-05
-9.04362e-05
3.78475e-05
-8.96668e-05
4.09953e-05
-8.88569e-05
4.44008e-05
-8.799e-05
4.80848e-05
-8.70736e-05
5.20452e-05
-8.6085e-05
5.63213e-05
-8.50363e-05
6.0986e-05
-8.39031e-05
6.60384e-05
-8.26867e-05
7.14393e-05
-8.13654e-05
7.7322e-05
-7.99471e-05
8.37446e-05
-7.84028e-05
9.06195e-05
-7.67335e-05
9.80823e-05
-7.49268e-05
0.000106261
-7.29637e-05
0.000114948
-7.08385e-05
0.000124522
-6.85359e-05
0.000134832
-6.60358e-05
0.000145985
-6.33294e-05
0.000158159
-6.03864e-05
0.000171226
-5.71989e-05
0.000185546
-5.37319e-05
0.000200918
-4.99701e-05
0.000217716
-4.58792e-05
0.000235833
-4.14324e-05
0.000255493
-3.66082e-05
0.000276844
-3.13604e-05
0.000299791
-2.56675e-05
0.000324786
-1.94852e-05
0.000351712
-1.27681e-05
0.000380701
-5.48213e-06
0.000412024
2.41857e-06
0.000445662
1.09861e-05
0.000481621
2.02633e-05
0.000520069
3.02944e-05
0.00056098
4.11248e-05
0.000604246
5.27983e-05
0.000649695
6.53508e-05
0.000697023
7.88147e-05
0.000745761
9.32047e-05
0.000795198
0.000108524
0.000844357
0.000124743
0.000891856
0.000141816
0.000935841
0.000159618
0.000974043
0.000177969
0.00100327
0.000196591
0.00101972
0.000215139
0.00101829
0.000233047
0.000993998
0.000249634
0.000937733
0.000263876
0.000846929
0.000709945
0.000274326
-9.46712e-05
1.81634e-05
9.4997e-05
-9.43123e-05
1.9644e-05
-9.39127e-05
2.12514e-05
-9.34736e-05
2.29975e-05
-9.29882e-05
2.48949e-05
-9.24585e-05
2.69569e-05
-9.18787e-05
2.91979e-05
-9.12537e-05
3.16327e-05
-9.05757e-05
3.42672e-05
-8.98528e-05
3.71202e-05
-8.90744e-05
4.0218e-05
-8.8252e-05
4.35724e-05
-8.73687e-05
4.72036e-05
-8.6436e-05
5.1106e-05
-8.5431e-05
5.53191e-05
-8.43686e-05
5.99177e-05
-8.32243e-05
6.48975e-05
-8.20015e-05
7.02121e-05
-8.06779e-05
7.60019e-05
-7.92618e-05
8.23257e-05
-7.77238e-05
8.90849e-05
-7.60646e-05
9.64218e-05
-7.42712e-05
0.000104471
-7.23244e-05
0.000113001
-7.02182e-05
0.000122418
-6.79375e-05
0.000132552
-6.54623e-05
0.000143512
-6.27842e-05
0.000155483
-5.98742e-05
0.000168318
-5.67242e-05
0.000182398
-5.33009e-05
0.000197494
-4.95896e-05
0.000214006
-4.55549e-05
0.000231803
-4.11739e-05
0.000251115
-3.64224e-05
0.000272096
-3.12563e-05
0.000294626
-2.56539e-05
0.000319183
-1.95716e-05
0.000345629
-1.29646e-05
0.000374093
-5.79924e-06
0.000404859
1.96952e-06
0.000437894
1.03931e-05
0.000473198
1.95138e-05
0.00051095
2.93751e-05
0.000551121
4.00221e-05
0.000593601
5.14979e-05
0.000638222
6.38384e-05
0.000684685
7.70755e-05
0.000732527
9.1223e-05
0.000781051
0.000106283
0.000829297
0.000122224
0.000875911
0.000138998
0.000919074
0.000156477
0.000956562
0.000174483
0.000985243
0.000192746
0.00100142
0.000210932
0.00100004
0.000228532
0.000976343
0.000244853
0.000921367
0.000259053
0.000832624
0.000698939
0.000269983
-9.38018e-05
1.7857e-05
9.41125e-05
-9.34634e-05
1.93059e-05
-9.30877e-05
2.08778e-05
-9.26746e-05
2.25845e-05
-9.22168e-05
2.44386e-05
-9.17147e-05
2.64541e-05
-9.11615e-05
2.86457e-05
-9.05594e-05
3.10291e-05
-8.9901e-05
3.361e-05
-8.91914e-05
3.64081e-05
-8.84217e-05
3.94504e-05
-8.76014e-05
4.27485e-05
-8.67168e-05
4.63221e-05
-8.5778e-05
5.01631e-05
-8.4766e-05
5.4311e-05
-8.36951e-05
5.88428e-05
-8.25441e-05
6.37507e-05
-8.13164e-05
6.8981e-05
-7.99914e-05
7.46807e-05
-7.85774e-05
8.09092e-05
-7.70457e-05
8.75566e-05
-7.53967e-05
9.47714e-05
-7.36172e-05
0.000102694
-7.16879e-05
0.000111071
-6.96023e-05
0.000120335
-6.73454e-05
0.000130296
-6.48972e-05
0.000141066
-6.22497e-05
0.000152836
-5.93739e-05
0.000165443
-5.6263e-05
0.000179288
-5.28833e-05
0.000194115
-4.92212e-05
0.000210345
-4.52437e-05
0.000227827
-4.09251e-05
0.000246802
-3.62449e-05
0.000267418
-3.1158e-05
0.00028954
-2.56435e-05
0.000313668
-1.96585e-05
0.000339643
-1.3159e-05
0.000367592
-6.112e-06
0.000397809
1.52704e-06
0.000430252
9.80899e-06
0.000464912
1.87757e-05
0.000501979
2.84702e-05
0.000541422
3.89369e-05
0.000583129
5.02186e-05
0.000626934
6.23507e-05
0.000672545
7.53643e-05
0.000719506
8.92724e-05
0.000767133
0.000104076
0.000814484
0.00011974
0.000860231
0.000136216
0.000902597
0.000153374
0.000939405
0.000171038
0.000967576
0.000188951
0.000983503
0.000206786
0.000982198
0.000224091
0.000959071
0.000240181
0.000905335
0.000254427
0.000818433
0.000687639
0.000265884
-9.28198e-05
1.75641e-05
9.31134e-05
-9.24999e-05
1.89845e-05
-9.21452e-05
2.05241e-05
-9.17563e-05
2.21944e-05
-9.13251e-05
2.4008e-05
-9.08514e-05
2.59789e-05
-9.03272e-05
2.81221e-05
-8.97543e-05
3.04537e-05
-8.9123e-05
3.29794e-05
-8.84386e-05
3.57196e-05
-8.76897e-05
3.87025e-05
-8.68865e-05
4.19396e-05
-8.60134e-05
4.5451e-05
-8.50828e-05
4.92261e-05
-8.40743e-05
5.33051e-05
-8.3005e-05
5.77677e-05
-8.18535e-05
6.26024e-05
-8.06257e-05
6.77488e-05
-7.93016e-05
7.33599e-05
-7.78908e-05
7.94956e-05
-7.63654e-05
8.60343e-05
-7.47264e-05
9.31308e-05
-7.29604e-05
0.000100931
-7.10487e-05
0.000109159
-6.89844e-05
0.000118273
-6.67524e-05
0.000128064
-6.43328e-05
0.000138648
-6.17174e-05
0.000150222
-5.88779e-05
0.000162605
-5.58069e-05
0.000176218
-5.24726e-05
0.000190781
-4.88611e-05
0.000206734
-4.49389e-05
0.000223909
-4.0684e-05
0.000242549
-3.60734e-05
0.00026281
-3.10644e-05
0.000284531
-2.56362e-05
0.000308239
-1.97466e-05
0.000333752
-1.33525e-05
0.000361197
-6.42145e-06
0.000390877
1.0903e-06
0.00042274
9.23315e-06
0.00045677
1.80486e-05
0.000493164
2.75791e-05
0.000531893
3.78685e-05
0.000572842
4.8959e-05
0.000615847
6.08852e-05
0.000660622
7.36777e-05
0.000706718
8.73477e-05
0.000753464
0.000101895
0.000799938
0.000117283
0.00084484
0.000133464
0.000886426
0.000150305
0.000922562
0.000167635
0.00095023
0.00018521
0.000965893
0.00020271
0.000964637
0.000219735
0.000941992
0.000235626
0.000889405
0.000249959
0.000804004
0.000675621
0.000261909
-9.17493e-05
1.72829e-05
9.20334e-05
-9.14426e-05
1.86773e-05
-9.11046e-05
2.01876e-05
-9.07359e-05
2.18248e-05
-9.03279e-05
2.36013e-05
-8.9881e-05
2.55306e-05
-8.9386e-05
2.76279e-05
-8.88439e-05
2.99095e-05
-8.82441e-05
3.23808e-05
-8.75901e-05
3.50626e-05
-8.68703e-05
3.79846e-05
-8.60925e-05
4.11582e-05
-8.52424e-05
4.46037e-05
-8.43296e-05
4.83092e-05
-8.33363e-05
5.23155e-05
-8.22779e-05
5.67053e-05
-8.11356e-05
6.1464e-05
-7.99149e-05
6.65246e-05
-7.85979e-05
7.20464e-05
-7.71945e-05
7.80896e-05
-7.56783e-05
8.45212e-05
-7.40507e-05
9.15018e-05
-7.22992e-05
9.91819e-05
-7.04055e-05
0.000107265
-6.83628e-05
0.000116232
-6.61561e-05
0.000125858
-6.37657e-05
0.000136259
-6.11834e-05
0.000147641
-5.83811e-05
0.000159803
-5.5352e-05
0.000173189
-5.20637e-05
0.000187493
-4.85031e-05
0.000203174
-4.46388e-05
0.000220046
-4.04462e-05
0.000238361
-3.59056e-05
0.000258271
-3.09738e-05
0.000279599
-2.56307e-05
0.000302895
-1.98351e-05
0.000327955
-1.35445e-05
0.000354904
-6.72732e-06
0.000384058
6.59383e-07
0.00041535
8.66548e-06
0.00044876
1.7332e-05
0.000484493
2.67009e-05
0.000522519
3.68153e-05
0.000562721
4.77165e-05
0.00060494
5.94383e-05
0.000648892
7.20105e-05
0.000694139
8.54431e-05
0.000740021
9.97347e-05
0.000785636
0.000114848
0.00082971
0.000130735
0.00087054
0.000147265
0.000906035
0.000164272
0.000933224
0.000181524
0.00094864
0.000198708
0.000947453
0.000215472
0.000925266
0.000231187
0.000873759
0.000245595
0.000789655
0.000663407
0.000257951
-9.06184e-05
1.70091e-05
9.08915e-05
-9.0323e-05
1.83796e-05
-8.99979e-05
1.9863e-05
-8.9645e-05
2.147e-05
-8.92557e-05
2.32124e-05
-8.88306e-05
2.51035e-05
-8.83604e-05
2.71581e-05
-8.78464e-05
2.93927e-05
-8.72766e-05
3.18117e-05
-8.66547e-05
3.44365e-05
-8.59668e-05
3.72978e-05
-8.52214e-05
4.0407e-05
-8.44006e-05
4.3785e-05
-8.35159e-05
4.74182e-05
-8.25463e-05
5.13487e-05
-8.15093e-05
5.56624e-05
-8.03843e-05
6.03422e-05
-7.91791e-05
6.53147e-05
-7.78752e-05
7.07459e-05
-7.64845e-05
7.66958e-05
-7.49812e-05
8.30209e-05
-7.33678e-05
8.98868e-05
-7.16324e-05
9.74491e-05
-6.97577e-05
0.00010539
-6.77371e-05
0.000114214
-6.55561e-05
0.000123678
-6.31953e-05
0.0001339
-6.06465e-05
0.000145093
-5.78823e-05
0.00015704
-5.48951e-05
0.000170203
-5.16541e-05
0.000184252
-4.81459e-05
0.000199666
-4.43381e-05
0.000216242
-4.02098e-05
0.000234235
-3.57388e-05
0.000253802
-3.0884e-05
0.000274743
-2.56255e-05
0.000297635
-1.99229e-05
0.000322251
-1.37346e-05
0.000348714
-7.0296e-06
0.000377351
2.33968e-07
0.000408085
8.10534e-06
0.000440888
1.66251e-05
0.000475975
2.58343e-05
0.000513312
3.57752e-05
0.000552783
4.64885e-05
0.000594231
5.80069e-05
0.000637377
7.03593e-05
0.000681791
8.35547e-05
0.000726827
9.75911e-05
0.000771602
0.000112431
0.000814867
0.000128028
0.000854955
0.000144255
0.000889808
0.000160951
0.000916514
0.000177896
0.000931663
0.000194786
0.000930508
0.000211305
0.000908701
0.000226859
0.000858173
0.000241294
0.000775134
0.000650711
0.000253931
-8.94406e-05
1.67427e-05
8.97109e-05
-8.9152e-05
1.80909e-05
-8.88365e-05
1.95495e-05
-8.84955e-05
2.11286e-05
-8.81215e-05
2.28397e-05
-8.77147e-05
2.46957e-05
-8.72668e-05
2.67109e-05
-8.67776e-05
2.89016e-05
-8.62364e-05
3.12715e-05
-8.56446e-05
3.3842e-05
-8.49896e-05
3.66445e-05
-8.42765e-05
3.96904e-05
-8.34897e-05
4.30008e-05
-8.26363e-05
4.65608e-05
-8.1698e-05
5.04137e-05
-8.06884e-05
5.46489e-05
-7.95896e-05
5.92468e-05
-7.8407e-05
6.41286e-05
-7.71245e-05
6.94666e-05
-7.57529e-05
7.53215e-05
-7.42682e-05
8.1539e-05
-7.26733e-05
8.82902e-05
-7.09574e-05
9.57354e-05
-6.91039e-05
0.000103536
-6.71068e-05
0.000112219
-6.49524e-05
0.000121523
-6.26218e-05
0.000131571
-6.01071e-05
0.000142579
-5.73809e-05
0.000154315
-5.44366e-05
0.000167259
-5.12427e-05
0.000181058
-4.77865e-05
0.000196211
-4.40375e-05
0.000212494
-3.99721e-05
0.000230173
-3.55713e-05
0.000249402
-3.07933e-05
0.000269965
-2.5619e-05
0.000292459
-2.00087e-05
0.000316638
-1.39217e-05
0.000342625
-7.32767e-06
0.000370754
-1.85707e-07
0.00040094
7.5526e-06
0.000433146
1.59271e-05
0.000467595
2.4978e-05
0.000504256
3.47467e-05
0.000543008
4.52729e-05
0.000583699
5.65885e-05
0.000626053
6.87216e-05
0.000669651
8.16805e-05
0.000713857
9.54631e-05
0.000757809
0.000110032
0.000800283
0.000125345
0.000839645
0.000141277
0.000873882
0.000157675
0.000900122
0.00017433
0.00091501
0.000190946
0.000913897
0.000207235
0.000892451
0.000222635
0.00084285
0.000237034
0.000760793
0.000638042
0.00024983
-8.82345e-05
1.64809e-05
8.84965e-05
-8.79534e-05
1.78078e-05
-8.76459e-05
1.92428e-05
-8.73149e-05
2.07959e-05
-8.69525e-05
2.2478e-05
-8.656e-05
2.43015e-05
-8.61288e-05
2.62803e-05
-8.56602e-05
2.84304e-05
-8.51424e-05
3.07544e-05
-8.45781e-05
3.32737e-05
-8.39527e-05
3.60201e-05
-8.32725e-05
3.90048e-05
-8.25188e-05
4.2249e-05
-8.17005e-05
4.57363e-05
-8.07957e-05
4.95114e-05
-7.98195e-05
5.3667e-05
-7.87513e-05
5.81816e-05
-7.75981e-05
6.29709e-05
-7.63423e-05
6.82139e-05
-7.49959e-05
7.3972e-05
-7.3535e-05
8.00809e-05
-7.19635e-05
8.67169e-05
-7.02708e-05
9.4045e-05
-6.84416e-05
0.000101706
-6.64705e-05
0.000110249
-6.43443e-05
0.000119398
-6.2045e-05
0.000129272
-5.95648e-05
0.0001401
-5.68775e-05
0.000151628
-5.39757e-05
0.000164357
-5.08297e-05
0.000177911
-4.74261e-05
0.000192808
-4.37341e-05
0.000208805
-3.97332e-05
0.000226174
-3.5402e-05
0.000245072
-3.07008e-05
0.000265263
-2.56104e-05
0.000287366
-2.00919e-05
0.000311118
-1.41055e-05
0.000336636
-7.62144e-06
0.000364269
-5.99745e-07
0.000393917
7.00693e-06
0.000425539
1.52374e-05
0.000459366
2.41312e-05
0.000495364
3.37287e-05
0.000533414
4.40688e-05
0.000573363
5.51826e-05
0.000614943
6.70976e-05
0.000657741
7.98215e-05
0.000701134
9.33529e-05
0.00074428
0.000107656
0.000785977
0.000122691
0.000824624
0.000138338
0.000858236
0.000154451
0.000883998
0.000170833
0.000898602
0.000187192
0.000897492
0.000203265
0.000876341
0.00021851
0.000827584
0.000232813
0.000746418
0.000625155
0.000245651
-8.70047e-05
1.62244e-05
8.72637e-05
-8.67287e-05
1.75307e-05
-8.64277e-05
1.89433e-05
-8.61047e-05
2.04716e-05
-8.5752e-05
2.21263e-05
-8.53719e-05
2.39195e-05
-8.49554e-05
2.58645e-05
-8.45043e-05
2.79769e-05
-8.4007e-05
3.02583e-05
-8.3466e-05
3.27297e-05
-8.28675e-05
3.54234e-05
-8.22162e-05
3.83499e-05
-8.1495e-05
4.15305e-05
-8.07096e-05
4.4947e-05
-7.98403e-05
4.86454e-05
-7.88987e-05
5.27216e-05
-7.78659e-05
5.71521e-05
-7.67462e-05
6.18478e-05
-7.55233e-05
6.69941e-05
-7.42076e-05
7.26537e-05
-7.27765e-05
7.86523e-05
-7.12333e-05
8.5172e-05
-6.95686e-05
9.23825e-05
-6.77676e-05
9.99041e-05
-6.58256e-05
0.000108309
-6.37301e-05
0.000117302
-6.14638e-05
0.000127007
-5.90195e-05
0.000137656
-5.63715e-05
0.00014898
-5.35133e-05
0.000161499
-5.04145e-05
0.000174813
-4.70633e-05
0.000189457
-4.343e-05
0.000205173
-3.94919e-05
0.000222239
-3.52306e-05
0.000240812
-3.06056e-05
0.000260637
-2.55987e-05
0.000282358
-2.01715e-05
0.000305688
-1.42849e-05
0.000330747
-7.90996e-06
0.000357891
-1.00749e-06
0.000387011
6.46862e-06
0.000418058
1.45561e-05
0.000451273
2.32938e-05
0.00048662
3.27214e-05
0.00052398
4.28767e-05
0.000563201
5.37901e-05
0.000604021
6.54888e-05
0.000646034
7.79806e-05
0.000688631
9.1265e-05
0.000730986
0.000105307
0.00077192
0.000120072
0.000809864
0.000135445
0.00084287
0.000151286
0.000868166
0.000167409
0.000882485
0.000183528
0.000881382
0.000199394
0.000860518
0.000214483
0.000812575
0.000228639
0.00073232
0.000612477
0.000241431
-8.5764e-05
1.59712e-05
8.6016e-05
-8.54937e-05
1.72575e-05
-8.51982e-05
1.86483e-05
-8.48819e-05
2.01529e-05
-8.45366e-05
2.17816e-05
-8.41655e-05
2.35461e-05
-8.37597e-05
2.54594e-05
-8.33223e-05
2.75366e-05
-8.28412e-05
2.97781e-05
-8.23204e-05
3.22048e-05
-8.17447e-05
3.4849e-05
-8.11207e-05
3.77205e-05
-8.04284e-05
4.08405e-05
-7.96763e-05
4.41889e-05
-7.88406e-05
4.78126e-05
-7.79355e-05
5.18109e-05
-7.69384e-05
5.61582e-05
-7.58554e-05
6.07604e-05
-7.4668e-05
6.58098e-05
-7.33873e-05
7.137e-05
-7.19899e-05
7.72576e-05
-7.04798e-05
8.36601e-05
-6.88473e-05
9.07521e-05
-6.70785e-05
9.81346e-05
-6.5169e-05
0.000106401
-6.31071e-05
0.00011524
-6.08762e-05
0.000124777
-5.84695e-05
0.00013525
-5.58623e-05
0.000146373
-5.30478e-05
0.000158685
-4.99976e-05
0.000171762
-4.66991e-05
0.000186158
-4.31227e-05
0.000201599
-3.92487e-05
0.000218367
-3.50565e-05
0.00023662
-3.05075e-05
0.000256087
-2.55836e-05
0.000277431
-2.02471e-05
0.000300349
-1.44597e-05
0.000324957
-8.19308e-06
0.000351622
-1.40884e-06
0.000380225
5.93776e-06
0.000410711
1.38834e-05
0.000443328
2.24664e-05
0.000478039
3.17255e-05
0.000514723
4.16979e-05
0.000553232
5.24133e-05
0.000593309
6.3899e-05
0.000634553
7.61627e-05
0.000676369
8.92055e-05
0.000717946
0.000102994
0.000758128
0.000117499