/*--------------------------------*- C++ -*----------------------------------*\
  =========                 |
  \\      /  F ield         | OpenFOAM: The Open Source CFD Toolbox
   \\    /   O peration     | Website:  https://openfoam.org
    \\  /    A nd           | Version:  6.0
     \\/     M anipulation  |
\*---------------------------------------------------------------------------*/
FoamFile
{
    version     2.0;
    format      ascii;
    class       volVectorField;
    location    "18";
    object      U;
}
// * * * * * * * * * * * * * * * * * * * * * * * * * * * * * * * * * * * * * //

dimensions      [0 1 -1 0 0 0 0];

internalField   nonuniform List<vector> 
62000
(
(0.939378 0.342308 -2.16078e-21)
(0.939375 0.342273 1.82931e-21)
(0.939368 0.342254 1.8934e-21)
(0.939357 0.342236 -8.42819e-21)
(0.939346 0.342219 -9.75384e-21)
(0.939336 0.342204 3.43796e-20)
(0.939329 0.34219 -3.84433e-20)
(0.939325 0.342177 2.27809e-20)
(0.939325 0.342164 -1.08586e-20)
(0.939331 0.34215 -5.65276e-20)
(0.93934 0.342136 -7.30934e-21)
(0.939353 0.342122 8.25745e-20)
(0.939368 0.342108 1.72085e-20)
(0.939384 0.342095 -6.15393e-20)
(0.939401 0.342084 9.83084e-20)
(0.939417 0.342074 -5.35264e-20)
(0.939432 0.342067 5.68112e-20)
(0.939446 0.342063 -6.8007e-20)
(0.939458 0.342064 3.44223e-20)
(0.939468 0.342068 -1.09321e-19)
(0.939477 0.342076 1.46328e-19)
(0.939484 0.342088 4.50521e-20)
(0.93949 0.342104 6.66561e-20)
(0.939495 0.342123 -3.07129e-19)
(0.9395 0.342145 1.15131e-19)
(0.939503 0.34217 -7.48596e-20)
(0.939506 0.342197 -1.9586e-21)
(0.939507 0.342224 -6.53296e-20)
(0.939508 0.342254 2.03879e-19)
(0.939508 0.342285 -1.19281e-19)
(0.939509 0.34232 2.94967e-19)
(0.93951 0.342357 -6.27384e-19)
(0.939511 0.342393 5.69571e-20)
(0.939511 0.342421 -2.35147e-19)
(0.93951 0.342447 -7.98509e-20)
(0.939507 0.342471 -2.63918e-19)
(0.939506 0.342493 -9.02352e-20)
(0.939505 0.34251 -1.0376e-19)
(0.939505 0.342522 2.8906e-19)
(0.939502 0.342529 1.46884e-18)
(0.939496 0.342531 -3.70092e-19)
(0.93948 0.342534 -2.21179e-18)
(0.939449 0.34254 -3.65132e-18)
(0.939394 0.342551 2.07331e-18)
(0.939304 0.342562 6.10439e-19)
(0.939169 0.342563 -3.27741e-18)
(0.938975 0.342529 9.29677e-19)
(0.938712 0.342422 -1.49304e-18)
(0.938371 0.342186 -7.61922e-18)
(0.937948 0.341753 -1.79757e-18)
(0.937447 0.341049 -9.99152e-19)
(0.936874 0.340012 -1.42738e-17)
(0.936253 0.338581 1.44018e-18)
(0.935588 0.336717 1.77048e-17)
(0.934921 0.334275 5.02859e-18)
(0.934324 0.331134 1.66203e-17)
(0.933902 0.326788 -2.29413e-18)
(0.933731 0.32108 -4.0729e-18)
(0.933812 0.310603 8.12496e-18)
(0.916585 0.287891 1.66788e-18)
(0.939386 0.3438 -5.67086e-22)
(0.939432 0.34376 5.49328e-21)
(0.939468 0.343734 2.28376e-21)
(0.939489 0.343712 -1.00642e-20)
(0.939492 0.343693 4.23749e-21)
(0.939477 0.343676 -2.96707e-20)
(0.939448 0.343663 2.77129e-20)
(0.939408 0.343652 1.62785e-20)
(0.939362 0.34364 -3.10612e-20)
(0.939314 0.343628 1.38568e-21)
(0.93927 0.343613 3.13255e-20)
(0.939232 0.343594 8.58484e-23)
(0.939203 0.34357 9.43341e-21)
(0.939185 0.343539 -8.2714e-20)
(0.939177 0.343503 1.70151e-19)
(0.939178 0.343461 -1.54097e-19)
(0.939188 0.343416 7.42239e-20)
(0.939204 0.343367 -1.58734e-20)
(0.939225 0.343319 -4.51576e-20)
(0.939248 0.343271 1.2805e-19)
(0.939272 0.343227 -2.07687e-19)
(0.939295 0.343186 1.24176e-19)
(0.939317 0.343152 -1.63075e-19)
(0.939336 0.343123 9.92112e-20)
(0.939353 0.343102 9.6228e-20)
(0.939365 0.343087 -6.47654e-20)
(0.939375 0.34308 -1.95518e-21)
(0.939379 0.343078 7.5301e-20)
(0.939383 0.343085 6.65451e-20)
(0.939382 0.343101 -1.47187e-19)
(0.939385 0.343134 3.04872e-19)
(0.939384 0.343178 6.84009e-20)
(0.939387 0.343226 2.12381e-19)
(0.93938 0.343265 2.21497e-20)
(0.939361 0.343317 6.95524e-20)
(0.939331 0.343386 -7.3331e-20)
(0.939297 0.343472 -2.49466e-19)
(0.93926 0.343569 -1.20894e-19)
(0.939215 0.343676 -7.80278e-19)
(0.939156 0.343792 -9.69129e-19)
(0.93908 0.343919 7.80663e-19)
(0.938974 0.34406 4.80854e-19)
(0.938828 0.34421 3.79792e-18)
(0.938628 0.34435 2.37875e-19)
(0.93836 0.34445 -6.38226e-18)
(0.938016 0.344455 2.6796e-18)
(0.937579 0.344302 2.4134e-18)
(0.93705 0.343894 2.98786e-18)
(0.936415 0.343153 7.32e-19)
(0.935677 0.341987 1.44923e-19)
(0.934833 0.340323 6.11793e-18)
(0.933851 0.33815 1.76598e-17)
(0.932792 0.335375 -1.25051e-17)
(0.931631 0.331937 -3.13494e-17)
(0.930502 0.327511 -7.80495e-18)
(0.92951 0.322009 -5.45317e-18)
(0.92887 0.314524 -1.304e-17)
(0.928222 0.305258 -6.55703e-18)
(0.928316 0.288742 1.05334e-17)
(0.903823 0.256778 4.05982e-18)
(0.939059 0.345169 -2.76147e-21)
(0.939096 0.345142 -3.82995e-22)
(0.939161 0.345119 4.53638e-22)
(0.939243 0.345093 2.03824e-21)
(0.939329 0.345065 5.8111e-21)
(0.939406 0.345038 -5.61274e-21)
(0.939466 0.345017 3.02313e-20)
(0.939504 0.345002 -1.47728e-20)
(0.939516 0.344994 -8.05059e-21)
(0.939504 0.344995 -4.99243e-20)
(0.939473 0.345002 4.29776e-20)
(0.939428 0.345016 3.21348e-21)
(0.939376 0.345033 -1.01899e-20)
(0.939324 0.34505 2.76008e-20)
(0.939277 0.345065 -4.82661e-20)
(0.939238 0.345075 2.77552e-22)
(0.939211 0.34508 -2.32094e-20)
(0.939196 0.345075 3.91189e-22)
(0.939193 0.345064 5.65649e-20)
(0.9392 0.345042 -8.85825e-20)
(0.939215 0.345014 5.65116e-20)
(0.939235 0.344978 2.28346e-19)
(0.939258 0.34494 -2.96493e-20)
(0.93928 0.344896 -3.36841e-19)
(0.939302 0.344853 1.7808e-19)
(0.939318 0.344809 -1.00972e-19)
(0.939331 0.34477 1.69205e-19)
(0.939336 0.344731 -1.04922e-19)
(0.939338 0.3447 -2.21304e-19)
(0.939332 0.344678 2.43696e-19)
(0.93933 0.344678 -1.80423e-19)
(0.939322 0.344691 2.55475e-19)
(0.939315 0.344706 -7.40784e-19)
(0.939291 0.344713 6.95501e-19)
(0.939244 0.344742 -3.89041e-19)
(0.939178 0.344804 1.64263e-19)
(0.939103 0.344896 1.28072e-19)
(0.939021 0.345012 -2.13292e-20)
(0.938926 0.345152 -5.69198e-20)
(0.938812 0.345312 9.76983e-19)
(0.938672 0.345499 -4.14818e-19)
(0.938498 0.345705 6.6394e-19)
(0.938281 0.34591 -2.44782e-18)
(0.938012 0.34608 -1.25319e-18)
(0.937685 0.346171 1.4246e-18)
(0.937301 0.346105 -5.09744e-18)
(0.936856 0.345816 7.23437e-19)
(0.936366 0.345199 -4.9887e-18)
(0.935817 0.344208 7.41059e-18)
(0.935216 0.342791 2.06065e-18)
(0.934543 0.340918 1.09473e-18)
(0.933716 0.338663 -3.65939e-19)
(0.932834 0.335914 5.31028e-18)
(0.931827 0.332623 8.06272e-19)
(0.930904 0.328431 -1.15902e-17)
(0.930079 0.323377 -6.59692e-18)
(0.92968 0.316725 -4.93393e-18)
(0.928604 0.309098 -1.55704e-17)
(0.928997 0.297002 -1.19131e-18)
(0.907181 0.277073 1.41835e-18)
(0.939154 0.346072 -2.7836e-21)
(0.939002 0.34609 8.62181e-21)
(0.938911 0.346107 -1.35023e-21)
(0.938879 0.346117 -9.08367e-21)
(0.938905 0.346117 1.3837e-20)
(0.938976 0.34611 2.4042e-20)
(0.939077 0.346098 -3.1941e-20)
(0.93919 0.346086 3.4848e-21)
(0.939301 0.346078 1.12379e-20)
(0.939396 0.346078 2.36146e-20)
(0.939465 0.346091 -4.46292e-20)
(0.939506 0.346118 -1.38038e-20)
(0.939518 0.34616 -1.55779e-20)
(0.939504 0.346216 7.28168e-20)
(0.93947 0.346285 -4.93475e-20)
(0.939425 0.346361 1.16769e-19)
(0.939373 0.346443 -1.44324e-19)
(0.939323 0.346523 -2.13494e-20)
(0.939277 0.3466 1.57698e-19)
(0.93924 0.346665 -5.61595e-20)
(0.939212 0.346721 -2.09583e-20)
(0.939193 0.346761 -2.29956e-20)
(0.939182 0.346788 -2.15129e-19)
(0.939178 0.346798 1.26024e-19)
(0.939176 0.346797 -6.01627e-20)
(0.939175 0.346781 9.84228e-20)
(0.939174 0.346757 4.72452e-20)
(0.939168 0.346723 2.46622e-19)
(0.93916 0.346687 -1.57675e-19)
(0.939147 0.34665 -2.17765e-19)
(0.939136 0.346627 3.5702e-19)
(0.939119 0.346613 -3.02137e-19)
(0.939101 0.346591 5.89815e-19)
(0.939063 0.34656 -3.80263e-19)
(0.938998 0.34655 1.5663e-19)
(0.938911 0.346575 2.90886e-19)
(0.93881 0.346632 -1.34925e-19)
(0.938699 0.346715 1.88892e-19)
(0.938574 0.346824 -8.747e-20)
(0.938429 0.346955 3.07304e-19)
(0.938253 0.347119 -8.8513e-19)
(0.938041 0.347293 2.52072e-19)
(0.937789 0.347445 5.70715e-19)
(0.937494 0.347535 1.44571e-18)
(0.937155 0.347514 1.99582e-18)
(0.93678 0.347301 5.06592e-19)
(0.936366 0.346837 3.42773e-18)
(0.935941 0.346027 3.95525e-18)
(0.935484 0.34486 4.8404e-18)
(0.934997 0.343309 -3.69301e-18)
(0.934451 0.34136 -5.44165e-18)
(0.933726 0.339117 3.64069e-18)
(0.932957 0.336433 5.05681e-18)
(0.932029 0.33322 1.34659e-17)
(0.931211 0.329086 9.00799e-18)
(0.930411 0.324085 1.42683e-17)
(0.930136 0.31768 2.63883e-17)
(0.928649 0.310569 -1.32267e-18)
(0.929606 0.300995 -1.37153e-17)
(0.909101 0.286685 -9.69242e-18)
(0.940446 0.346393 5.40705e-21)
(0.94017 0.346475 -1.83528e-21)
(0.939897 0.346561 3.08703e-21)
(0.939645 0.346656 -4.43517e-21)
(0.939443 0.346745 9.99537e-21)
(0.939305 0.346827 -5.04791e-21)
(0.939236 0.346899 2.68394e-21)
(0.93923 0.346961 -4.08885e-20)
(0.939276 0.347014 3.47118e-20)
(0.939354 0.347063 -6.96895e-20)
(0.939447 0.347112 7.7889e-20)
(0.939538 0.347166 -9.54567e-21)
(0.939612 0.34723 -2.11036e-20)
(0.939661 0.347308 -9.64299e-21)
(0.93968 0.347402 -1.97666e-21)
(0.93967 0.347511 -1.00984e-19)
(0.939633 0.347637 5.31944e-21)
(0.939577 0.347771 1.13744e-19)
(0.939507 0.347914 -3.72829e-20)
(0.939431 0.348055 -3.99353e-20)
(0.939354 0.348192 6.87873e-20)
(0.93928 0.348317 -3.48462e-20)
(0.939212 0.348428 1.49338e-19)
(0.939152 0.348518 8.44959e-20)
(0.939098 0.348588 6.7174e-20)
(0.93905 0.348635 -2.09796e-19)
(0.939007 0.348664 -3.04711e-20)
(0.938967 0.348669 -1.76657e-19)
(0.938929 0.348661 3.32837e-20)
(0.938892 0.348639 -6.57388e-20)
(0.938859 0.348619 -2.64549e-20)
(0.938823 0.348597 2.264e-19)
(0.938785 0.348556 -5.8336e-19)
(0.93873 0.348498 -2.59887e-20)
(0.93865 0.348455 -3.32023e-19)
(0.938547 0.348441 -1.69858e-19)
(0.93843 0.348452 5.62459e-20)
(0.938302 0.348482 -6.12563e-19)
(0.938162 0.348531 9.97998e-19)
(0.938002 0.348598 1.69221e-19)
(0.937808 0.348692 1.20292e-18)
(0.937573 0.34878 -9.20712e-19)
(0.937301 0.348824 -6.33488e-19)
(0.93699 0.348783 -2.52321e-19)
(0.93664 0.348611 1.4779e-18)
(0.936262 0.348227 2.23894e-18)
(0.935851 0.347587 5.60604e-19)
(0.935437 0.346602 1.01432e-18)
(0.934991 0.34528 -1.73641e-18)
(0.934519 0.343607 9.47632e-18)
(0.933987 0.341556 2.51053e-18)
(0.933255 0.33923 -2.71299e-18)
(0.932483 0.336446 5.72378e-19)
(0.931518 0.333061 1.00745e-17)
(0.930661 0.328627 -2.71836e-19)
(0.92972 0.323127 -1.13748e-17)
(0.929401 0.316109 -2.58226e-17)
(0.927475 0.308156 2.4018e-17)
(0.928793 0.298117 -1.32764e-17)
(0.910195 0.283571 1.09845e-17)
(0.94197 0.34708 -2.03077e-21)
(0.941932 0.347162 8.26906e-21)
(0.941772 0.347259 -1.37484e-20)
(0.941515 0.347391 1.03697e-20)
(0.941206 0.347538 6.74367e-21)
(0.940886 0.347694 -7.28768e-21)
(0.940588 0.347853 6.06725e-22)
(0.940338 0.348005 -5.55723e-21)
(0.94015 0.348147 -1.88908e-20)
(0.940026 0.348277 3.67558e-20)
(0.939958 0.348395 -5.75771e-20)
(0.939934 0.348503 5.11711e-20)
(0.939936 0.348605 4.543e-20)
(0.939947 0.348706 -7.1413e-20)
(0.939953 0.348812 -2.35039e-20)
(0.939943 0.348926 8.98964e-20)
(0.93991 0.349053 -1.10281e-19)
(0.939852 0.349191 1.5465e-19)
(0.939772 0.349343 -3.01797e-20)
(0.939673 0.349501 1.70609e-20)
(0.939561 0.349665 -2.84873e-20)
(0.939443 0.349825 -3.62361e-20)
(0.939322 0.34998 -6.91426e-20)
(0.939205 0.350119 1.21971e-19)
(0.939093 0.350242 -8.55437e-20)
(0.93899 0.350341 -8.66616e-20)
(0.938894 0.350419 1.82953e-19)
(0.938806 0.350468 -1.81949e-19)
(0.938727 0.350497 3.00422e-19)
(0.938654 0.350504 -1.6393e-19)
(0.938587 0.350503 1.34509e-19)
(0.938522 0.350488 -2.34433e-19)
(0.938455 0.350443 2.68306e-19)
(0.938374 0.350373 -1.79443e-20)
(0.938272 0.350309 -1.24417e-20)
(0.93815 0.350263 -4.77648e-21)
(0.938014 0.350231 -1.76884e-19)
(0.937869 0.350208 5.45273e-19)
(0.937712 0.350193 -4.39437e-19)
(0.937539 0.350186 -2.6933e-18)
(0.937331 0.350195 -1.19094e-18)
(0.937078 0.350182 8.71566e-19)
(0.936787 0.350106 -9.92269e-19)
(0.936463 0.349932 -1.13986e-18)
(0.936102 0.349618 -1.06041e-19)
(0.935718 0.349087 3.06669e-18)
(0.935302 0.348309 -4.68589e-18)
(0.934889 0.347196 -4.98709e-18)
(0.934449 0.345769 -3.55911e-18)
(0.933994 0.34402 -6.33003e-18)
(0.933503 0.341916 4.26604e-18)
(0.932822 0.339562 -1.80503e-18)
(0.932134 0.336773 -1.56038e-17)
(0.931246 0.333397 2.97369e-18)
(0.930458 0.328964 5.00912e-18)
(0.92947 0.323393 -9.35675e-18)
(0.929132 0.31626 7.39838e-18)
(0.926777 0.308001 5.87258e-18)
(0.928047 0.297772 2.15545e-17)
(0.912925 0.284226 -4.71118e-19)
(0.942149 0.349384 2.32267e-21)
(0.942625 0.349359 -1.05044e-20)
(0.942908 0.349361 5.20355e-21)
(0.943004 0.349408 9.60011e-21)
(0.942932 0.349489 -2.06934e-20)
(0.942727 0.349601 1.75035e-20)
(0.942431 0.349738 -1.16857e-20)
(0.942087 0.34989 1.00417e-20)
(0.941736 0.350047 1.60086e-20)
(0.941406 0.350202 -3.92013e-20)
(0.941118 0.350348 5.72059e-20)
(0.940881 0.350481 2.44717e-20)
(0.940694 0.350598 -9.93947e-20)
(0.940548 0.350702 -1.86151e-20)
(0.94043 0.350797 5.4751e-20)
(0.940328 0.350886 3.58209e-20)
(0.940228 0.350976 -4.41636e-20)
(0.940121 0.35107 3.98917e-20)
(0.94 0.351174 6.24111e-20)
(0.939864 0.351286 -3.10589e-20)
(0.939714 0.35141 -1.8172e-20)
(0.939554 0.351538 6.61184e-20)
(0.939387 0.351671 1.40423e-19)
(0.939219 0.351799 -1.02751e-19)
(0.939055 0.351921 -1.18e-19)
(0.938898 0.352026 1.34684e-19)
(0.938751 0.352117 -1.0608e-19)
(0.938617 0.352183 -4.6549e-20)
(0.938496 0.352231 3.8782e-19)
(0.938386 0.352256 -1.75626e-19)
(0.938286 0.35227 -1.4543e-19)
(0.93819 0.352265 1.93026e-19)
(0.938095 0.352224 1.42164e-19)
(0.93799 0.35215 -1.32469e-19)
(0.937866 0.352073 -9.58346e-20)
(0.937724 0.352003 3.32323e-19)
(0.937569 0.351936 8.31458e-20)
(0.937406 0.351865 1.20576e-19)
(0.937232 0.351791 -7.13463e-19)
(0.937044 0.351714 -7.45458e-19)
(0.936819 0.351637 1.48957e-18)
(0.936545 0.351526 1.24987e-18)
(0.936234 0.351338 2.17326e-18)
(0.935891 0.351045 -2.02406e-18)
(0.935511 0.350609 -2.3277e-18)
(0.93511 0.349957 -1.62862e-18)
(0.934676 0.349064 4.17074e-18)
(0.93425 0.347843 4.2714e-18)
(0.933806 0.346318 -5.0428e-18)
(0.933367 0.344485 -7.79669e-18)
(0.932935 0.342312 -1.58014e-18)
(0.932358 0.339922 1.74746e-18)
(0.931839 0.337165 2.28658e-19)
(0.93115 0.333937 -5.66922e-18)
(0.930581 0.329809 5.11437e-18)
(0.92971 0.324669 3.17891e-18)
(0.929477 0.318124 4.83436e-18)
(0.926815 0.310415 -1.84107e-17)
(0.927769 0.301122 -1.38246e-18)
(0.916248 0.28986 -4.80448e-20)
(0.940465 0.353475 -3.69434e-21)
(0.941389 0.353306 -2.85414e-21)
(0.942166 0.353165 4.0771e-21)
(0.942773 0.353053 1.39533e-20)
(0.943182 0.352974 -3.00733e-20)
(0.943391 0.352933 3.44476e-20)
(0.943416 0.352929 -1.76019e-21)
(0.943286 0.352959 -2.28915e-21)
(0.94304 0.353017 -1.24489e-20)
(0.942722 0.353093 3.00563e-20)
(0.942369 0.353179 -4.71528e-20)
(0.942013 0.353265 1.81276e-20)
(0.941677 0.353343 -5.53654e-22)
(0.941372 0.353409 2.93956e-20)
(0.941102 0.35346 1.43366e-20)
(0.940863 0.353496 -7.70618e-20)
(0.940646 0.353522 6.84338e-20)
(0.940443 0.353541 2.78685e-20)
(0.940244 0.353559 -8.25568e-20)
(0.940042 0.353579 4.11738e-20)
(0.939834 0.353608 2.02819e-20)
(0.939619 0.353644 -1.31511e-20)
(0.939399 0.353691 1.81334e-20)
(0.939177 0.353742 -1.02376e-20)
(0.938958 0.353799 -1.23819e-19)
(0.938746 0.35385 8.50499e-20)
(0.938547 0.353899 -1.35093e-19)
(0.938363 0.353934 2.55752e-19)
(0.938197 0.35396 -4.87519e-20)
(0.938048 0.353972 -3.00482e-20)
(0.937913 0.353978 -7.57786e-21)
(0.937788 0.35397 3.22695e-19)
(0.937667 0.353924 -1.30803e-19)
(0.937542 0.353844 -8.36915e-20)
(0.937402 0.353755 2.3978e-19)
(0.937245 0.353665 2.21133e-19)
(0.937078 0.353567 -3.87605e-19)
(0.936902 0.353455 7.12944e-20)
(0.936716 0.353329 8.52396e-19)
(0.936513 0.353189 -7.2584e-20)
(0.936271 0.353037 6.0462e-19)
(0.935973 0.352838 -9.23199e-19)
(0.935632 0.352551 1.398e-18)
(0.935256 0.352153 3.20082e-18)
(0.934835 0.351609 9.94023e-19)
(0.934383 0.350843 -1.36601e-18)
(0.933888 0.349829 -4.43218e-18)
(0.933394 0.348472 8.64135e-19)
(0.93288 0.346791 1.55489e-18)
(0.932385 0.344772 3.47647e-18)
(0.931932 0.342387 -4.21891e-19)
(0.931387 0.339772 -7.23424e-18)
(0.930976 0.336836 6.61279e-18)
(0.930456 0.333553 -4.6637e-18)
(0.930117 0.329581 9.4948e-18)
(0.929427 0.324808 2.38921e-18)
(0.929401 0.3189 1.07069e-17)
(0.926662 0.31184 1.41248e-17)
(0.927289 0.303662 2.1096e-18)
(0.918364 0.29363 2.71712e-18)
(0.937599 0.35855 -1.66759e-21)
(0.938659 0.358289 1.44991e-21)
(0.939702 0.358041 6.98134e-21)
(0.940682 0.357793 1.07246e-20)
(0.941539 0.357556 -3.23152e-20)
(0.942228 0.35734 1.85232e-20)
(0.942725 0.357156 -3.24267e-20)
(0.943024 0.357005 5.09532e-20)
(0.943136 0.356892 -2.40123e-20)
(0.943088 0.356812 4.19038e-21)
(0.942915 0.356759 4.58849e-20)
(0.942655 0.356727 -1.058e-19)
(0.942344 0.356704 7.31877e-20)
(0.942012 0.356683 1.06969e-20)
(0.94168 0.356656 1.72102e-20)
(0.941361 0.356617 -7.379e-20)
(0.941059 0.356566 3.73822e-20)
(0.940774 0.3565 -4.80497e-20)
(0.9405 0.356425 9.76283e-20)
(0.940232 0.356342 -1.10474e-20)
(0.939965 0.35626 -1.32466e-19)
(0.939696 0.356179 5.59152e-20)
(0.939422 0.356108 -2.65059e-21)
(0.939147 0.356042 -2.22729e-19)
(0.938873 0.355986 1.66031e-19)
(0.938605 0.355934 1.31962e-19)
(0.938349 0.355889 9.46374e-20)
(0.938109 0.355842 -1.26582e-19)
(0.937889 0.355798 -1.49164e-19)
(0.937691 0.355753 7.19983e-20)
(0.937512 0.355716 1.08559e-19)
(0.937349 0.355674 -1.42831e-19)
(0.937197 0.355603 -2.2694e-19)
(0.937047 0.355502 4.74619e-19)
(0.93689 0.35539 5.93871e-20)
(0.936722 0.355274 -8.18902e-19)
(0.936546 0.355144 7.07039e-20)
(0.936362 0.354994 6.16201e-19)
(0.936166 0.354823 5.59696e-20)
(0.93595 0.35463 9.14206e-19)
(0.93569 0.354412 -1.38975e-18)
(0.935363 0.354138 -1.02481e-19)
(0.934984 0.353768 -9.50397e-19)
(0.934557 0.35328 3.51215e-19)
(0.93407 0.352637 1.67629e-18)
(0.933534 0.351759 5.27118e-18)
(0.932932 0.350614 8.85859e-19)
(0.932311 0.349089 -3.82358e-18)
(0.93165 0.347184 3.10422e-18)
(0.931002 0.344871 1.18026e-17)
(0.93041 0.342108 -1.01196e-17)
(0.929762 0.339041 1.29077e-17)
(0.929315 0.335628 -8.38995e-18)
(0.928829 0.331926 -4.65104e-18)
(0.928614 0.327698 -1.95122e-17)
(0.928068 0.322854 -1.06792e-18)
(0.928293 0.317167 -6.38544e-18)
(0.925734 0.310359 -6.79896e-18)
(0.926171 0.302826 4.48967e-18)
(0.919009 0.292745 1.66708e-19)
(0.934582 0.363653 2.13125e-21)
(0.935465 0.363382 6.60813e-22)
(0.936458 0.363106 -7.49652e-21)
(0.937521 0.362802 7.07404e-21)
(0.938589 0.36248 -3.09583e-21)
(0.939594 0.362151 5.3407e-21)
(0.940482 0.361828 1.67025e-21)
(0.941211 0.361522 -2.61684e-20)
(0.941757 0.36124 1.16423e-20)
(0.942114 0.36099 -7.42441e-21)
(0.942294 0.360772 4.87012e-21)
(0.942319 0.360586 1.81442e-20)
(0.94222 0.360426 -3.30528e-21)
(0.942033 0.360284 1.12666e-20)
(0.941787 0.360152 -4.84018e-20)
(0.941509 0.360021 1.90347e-20)
(0.941216 0.359886 9.10044e-21)
(0.94092 0.359739 -2.40144e-20)
(0.940626 0.359581 4.97765e-20)
(0.940334 0.359408 1.79837e-20)
(0.940041 0.359228 -1.00779e-21)
(0.939746 0.35904 -1.81489e-20)
(0.939444 0.358853 8.62012e-20)
(0.939138 0.358666 -2.49603e-19)
(0.938828 0.358486 1.29943e-19)
(0.938518 0.358309 5.85611e-20)
(0.938214 0.358142 -1.09478e-19)
(0.937922 0.357979 2.024e-19)
(0.937646 0.357828 -9.88125e-20)
(0.937392 0.357688 -5.7664e-20)
(0.937159 0.357569 -1.21915e-19)
(0.936945 0.35746 -5.106e-20)
(0.936749 0.357334 1.43535e-19)
(0.936563 0.357186 -4.67439e-19)
(0.936378 0.357032 9.20874e-19)
(0.93619 0.356875 -5.85727e-20)
(0.935999 0.356704 5.48e-19)
(0.935803 0.356512 -1.45058e-18)
(0.935594 0.356295 -4.99014e-19)
(0.935361 0.356053 -1.24359e-20)
(0.935078 0.35578 -4.07818e-19)
(0.934719 0.355444 -7.49818e-20)
(0.934297 0.355005 -1.56969e-18)
(0.933814 0.354443 4.8468e-19)
(0.933255 0.353718 7.93788e-19)
(0.932628 0.352744 -4.86242e-18)
(0.93191 0.351477 6.39665e-18)
(0.931146 0.349788 1.03643e-18)
(0.930314 0.347654 1.84174e-19)
(0.929475 0.345018 -7.77273e-18)
(0.928683 0.341825 3.15304e-18)
(0.92785 0.33821 -6.79925e-18)
(0.92726 0.334165 1.34784e-17)
(0.926685 0.329817 3.24468e-18)
(0.92647 0.325029 -1.19186e-17)
(0.925994 0.319741 4.68166e-18)
(0.926453 0.313887 -1.3072e-17)
(0.924258 0.306992 -2.6475e-18)
(0.924654 0.299736 -1.73769e-17)
(0.91914 0.289588 -4.21691e-18)
(0.93211 0.368264 -4.3401e-22)
(0.932632 0.368033 -1.65529e-21)
(0.933345 0.36779 -1.34743e-21)
(0.934228 0.367501 1.35268e-20)
(0.935231 0.367173 -7.61528e-21)
(0.936295 0.366812 -8.65014e-21)
(0.937356 0.366431 -2.98671e-21)
(0.938353 0.366038 -1.25967e-20)
(0.939235 0.365646 8.54579e-21)
(0.939966 0.365266 1.49158e-21)
(0.940526 0.364906 6.43209e-22)
(0.940911 0.364574 3.35658e-20)
(0.941134 0.364269 -2.40394e-20)
(0.941214 0.363992 -2.98773e-21)
(0.941182 0.363739 2.79655e-20)
(0.941064 0.363501 -1.55645e-20)
(0.940887 0.363272 -5.85347e-21)
(0.940672 0.363043 1.0443e-20)
(0.940433 0.36281 3.4342e-20)
(0.940179 0.362565 2.0626e-20)
(0.939914 0.36231 9.70379e-21)
(0.939639 0.362042 -5.2815e-20)
(0.939352 0.361767 2.86809e-20)
(0.939054 0.361483 6.34228e-20)
(0.938745 0.361197 -1.30276e-19)
(0.938426 0.360906 4.62122e-20)
(0.938103 0.36062 -1.89833e-19)
(0.937781 0.360335 1.6197e-19)
(0.937467 0.360064 1.56818e-19)
(0.937165 0.359809 -2.51281e-19)
(0.93688 0.359585 -1.23337e-19)
(0.936612 0.359381 1.78814e-19)
(0.936363 0.359172 6.23577e-20)
(0.93613 0.358952 -1.96277e-19)
(0.935904 0.358732 -2.5613e-19)
(0.935682 0.358515 -3.27864e-19)
(0.935463 0.358287 2.05236e-19)
(0.935243 0.358041 5.36462e-19)
(0.93501 0.357773 1.92287e-19)
(0.934751 0.357481 -2.11673e-19)
(0.934441 0.357155 2.29518e-18)
(0.934049 0.356767 -2.08484e-19)
(0.933586 0.356271 2.57133e-18)
(0.933058 0.35565 -4.76886e-18)
(0.932445 0.354864 6.93163e-19)
(0.931753 0.353821 1.5943e-19)
(0.930955 0.352471 -5.05999e-19)
(0.930093 0.350669 -4.34594e-18)
(0.929139 0.348369 -7.62352e-18)
(0.928154 0.345492 7.27855e-18)
(0.927194 0.341959 1.02639e-17)
(0.926187 0.337888 5.70257e-18)
(0.925436 0.333287 -1.27044e-17)
(0.924723 0.328326 7.07213e-18)
(0.924432 0.32295 1.8366e-17)
(0.923956 0.317126 6.77422e-18)
(0.924587 0.310977 1.27522e-17)
(0.922823 0.303935 5.85074e-18)
(0.923258 0.296941 1.51781e-17)
(0.919845 0.287636 -9.46065e-18)
(0.930422 0.372239 5.20444e-22)
(0.930541 0.372068 -1.54465e-21)
(0.930874 0.371884 5.3595e-21)
(0.931422 0.37165 1.21713e-21)
(0.932165 0.371368 -7.18334e-21)
(0.933063 0.371038 -7.83467e-21)
(0.934065 0.370666 1.86913e-20)
(0.935112 0.370259 -1.99953e-20)
(0.936143 0.369827 -4.47177e-21)
(0.937105 0.369382 1.22708e-20)
(0.937953 0.368935 1.09641e-20)
(0.938656 0.368497 3.27577e-20)
(0.939202 0.368075 -1.92646e-20)
(0.93959 0.367677 -3.21744e-20)
(0.939833 0.367304 7.10493e-21)
(0.939952 0.366953 -2.65983e-20)
(0.939969 0.366623 2.02204e-20)
(0.93991 0.366304 -3.50191e-20)
(0.939794 0.365993 5.2442e-21)
(0.939639 0.36568 -1.26907e-20)
(0.939453 0.365362 -9.26117e-21)
(0.939245 0.365033 -3.94177e-20)
(0.939015 0.364695 5.77384e-22)
(0.938766 0.364343 8.77766e-20)
(0.938497 0.363981 -3.12862e-20)
(0.938209 0.363605 9.80892e-21)
(0.937905 0.363224 3.08736e-20)
(0.937589 0.362836 -5.15471e-20)
(0.937266 0.362455 -1.10247e-20)
(0.936943 0.362088 8.26035e-20)
(0.936624 0.361753 9.87314e-20)
(0.936314 0.361445 -8.00021e-20)
(0.936018 0.361137 -2.61352e-19)
(0.935736 0.360825 -3.93136e-19)
(0.935463 0.360521 6.50039e-19)
(0.935198 0.360225 1.81801e-19)
(0.93494 0.359923 1.14323e-19)
(0.934682 0.35961 6.78862e-19)
(0.934414 0.359281 -6.73584e-19)
(0.934122 0.358931 4.37627e-19)
(0.93378 0.35855 -1.11965e-21)
(0.933356 0.358111 5.56353e-20)
(0.932863 0.357565 -9.37036e-19)
(0.93231 0.356897 2.15769e-18)
(0.931678 0.356069 -2.90611e-18)
(0.930972 0.354988 1.8048e-18)
(0.93016 0.353605 -5.37018e-18)
(0.929279 0.351765 1.75153e-18)
(0.928295 0.349407 3.95952e-18)
(0.927263 0.346432 -7.09887e-18)
(0.926231 0.342745 -2.44519e-18)
(0.925135 0.338436 -1.07462e-18)
(0.924279 0.333516 -1.75704e-18)
(0.923448 0.328173 -6.73209e-18)
(0.923056 0.322407 5.75953e-19)
(0.922531 0.316193 5.1653e-18)
(0.923245 0.309839 -6.30307e-18)
(0.921886 0.302774 -1.76087e-18)
(0.922373 0.296214 -2.59619e-18)
(0.921561 0.288626 6.5188e-18)
(0.92945 0.375654 9.15639e-22)
(0.929214 0.375536 -7.89437e-22)
(0.92917 0.375412 6.64633e-22)
(0.929343 0.375243 4.21048e-21)
(0.929734 0.375027 5.87503e-21)
(0.930331 0.374758 -2.35017e-20)
(0.931105 0.374439 1.68229e-20)
(0.932012 0.374069 3.22072e-21)
(0.933001 0.373654 -1.23061e-21)
(0.934015 0.373203 -7.288e-21)
(0.934998 0.372726 2.15799e-20)
(0.935904 0.372235 -7.46927e-21)
(0.936696 0.37174 -9.927e-21)
(0.937353 0.371252 -2.89121e-20)
(0.937867 0.370779 5.84464e-20)
(0.938241 0.370324 -1.24399e-20)
(0.938489 0.369892 -1.05044e-20)
(0.938629 0.369479 -3.12874e-20)
(0.938683 0.369083 3.5353e-20)
(0.938669 0.368695 2.05745e-20)
(0.938602 0.368313 -8.79901e-21)
(0.938495 0.367929 1.83634e-20)
(0.938355 0.36754 -7.78757e-20)
(0.938184 0.367138 3.54484e-21)
(0.937986 0.366725 4.81672e-20)
(0.93776 0.366291 -1.05924e-20)
(0.937508 0.365844 -1.74481e-19)
(0.937231 0.365381 9.95371e-21)
(0.936934 0.364915 1.76254e-19)
(0.936622 0.364455 -4.8855e-20)
(0.936299 0.364024 -1.07876e-19)
(0.935972 0.363616 6.27928e-20)
(0.935647 0.36321 2.15979e-19)
(0.935329 0.362802 5.56525e-19)
(0.935016 0.362403 -9.26465e-20)
(0.934709 0.362015 1.38761e-19)
(0.934408 0.361628 -1.0762e-18)
(0.934107 0.361235 -3.47835e-19)
(0.933798 0.360832 2.31632e-19)
(0.933467 0.360415 -1.00469e-18)
(0.933093 0.359972 -2.42414e-19)
(0.932642 0.359477 5.15346e-19)
(0.932132 0.358879 4.00394e-19)
(0.931578 0.358167 1.19561e-18)
(0.930964 0.357309 4.12482e-18)
(0.930295 0.356217 -3.36484e-18)
(0.929535 0.354843 5.4672e-18)
(0.928718 0.353035 4.37533e-18)
(0.927799 0.350723 2.50844e-20)
(0.926825 0.347799 6.07092e-18)
(0.925828 0.344153 -9.06274e-18)
(0.924742 0.339853 -1.14079e-17)
(0.923863 0.334895 9.31696e-18)
(0.922966 0.329465 8.29428e-18)
(0.922482 0.323587 -3.22362e-18)
(0.921884 0.317222 -2.07585e-17)
(0.922596 0.310827 5.1276e-18)
(0.921571 0.303889 -4.05453e-18)
(0.922085 0.297899 -6.02219e-18)
(0.924126 0.292319 3.56733e-18)
(0.929019 0.378597 -9.40572e-22)
(0.92851 0.378524 1.04104e-21)
(0.928152 0.378451 6.73897e-21)
(0.927978 0.378342 -8.83378e-21)
(0.928012 0.378191 1.54576e-20)
(0.92826 0.377992 -2.26061e-20)
(0.928718 0.377742 6.46545e-21)
(0.929365 0.377435 -2.01213e-22)
(0.930166 0.377074 1.34225e-20)
(0.931074 0.376661 -7.17404e-21)
(0.932037 0.376204 1.98656e-21)
(0.933003 0.37571 1.99653e-21)
(0.933923 0.37519 -3.26077e-20)
(0.934759 0.374657 1.01185e-20)
(0.935484 0.37412 2.28619e-20)
(0.936084 0.373588 6.29377e-22)
(0.936555 0.373071 -3.89099e-20)
(0.936904 0.372569 1.60577e-20)
(0.937147 0.372086 7.70672e-20)
(0.937298 0.371618 -5.10312e-20)
(0.937374 0.371165 -4.02891e-20)
(0.937391 0.370718 3.52463e-20)
(0.937358 0.370275 2.40932e-20)
(0.937284 0.369827 2.90074e-20)
(0.937173 0.369371 -5.58661e-20)
(0.937027 0.368896 -1.33759e-19)
(0.936847 0.368403 1.00985e-19)
(0.936634 0.367889 1.6589e-19)
(0.936389 0.367364 5.48149e-20)
(0.936117 0.366837 -9.43077e-20)
(0.935819 0.366329 5.26865e-20)
(0.935504 0.36584 9.22188e-20)
(0.935177 0.365347 -1.65635e-19)
(0.934844 0.364847 -2.34993e-20)
(0.934507 0.364356 -3.61828e-19)
(0.934169 0.363875 -1.18909e-19)
(0.933832 0.363397 -1.16161e-19)
(0.933491 0.362918 3.21719e-19)
(0.933142 0.362432 -4.63881e-19)
(0.932775 0.361937 1.53037e-19)
(0.932373 0.361421 2.51334e-19)
(0.931903 0.360862 6.78879e-20)
(0.931389 0.360205 -1.74716e-18)
(0.930854 0.359446 -2.46834e-18)
(0.930285 0.358559 -2.25926e-18)
(0.929688 0.357465 4.43043e-18)
(0.929026 0.356125 -1.08954e-19)
(0.928326 0.354392 -1.93463e-18)
(0.927537 0.352198 9.98565e-19)
(0.926694 0.349431 -6.6244e-18)
(0.925811 0.345976 3.46995e-18)
(0.924814 0.341874 9.8221e-18)
(0.923981 0.337104 -1.29349e-18)
(0.92307 0.331829 -9.25115e-18)
(0.922514 0.326075 4.80665e-18)
(0.921841 0.319765 4.66308e-18)
(0.922491 0.313453 4.88942e-18)
(0.92174 0.306707 1.02212e-17)
(0.92226 0.301256 7.99531e-18)
(0.927008 0.297344 -7.83232e-18)
(0.928951 0.38117 -7.72559e-22)
(0.928255 0.381126 1.11574e-21)
(0.927662 0.38109 2.09628e-22)
(0.927209 0.381028 4.00584e-21)
(0.926928 0.380932 -6.13958e-21)
(0.926843 0.380797 -1.20884e-20)
(0.926967 0.380616 4.63064e-21)
(0.927299 0.380381 -5.39424e-21)
(0.927825 0.38009 1.23905e-20)
(0.928517 0.379741 -2.38744e-21)
(0.929333 0.379335 -7.8094e-21)
(0.930228 0.378878 6.6727e-21)
(0.931151 0.378375 1.05749e-20)
(0.932055 0.377839 2.90696e-20)
(0.932903 0.377279 -5.36095e-20)
(0.933661 0.376706 2.76033e-20)
(0.934312 0.376131 4.17121e-21)
(0.934849 0.375561 -2.79867e-20)
(0.935273 0.375003 -1.78891e-20)
(0.935593 0.374459 5.99373e-20)
(0.935821 0.373932 -6.46347e-20)
(0.935972 0.373417 1.94466e-20)
(0.936058 0.372914 -5.68436e-20)
(0.936089 0.372415 9.69216e-20)
(0.936074 0.371913 -2.02801e-20)
(0.936015 0.371398 -6.28743e-20)
(0.935915 0.370869 5.0077e-20)
(0.935776 0.370316 1.04973e-19)
(0.935599 0.36975 -1.07401e-19)
(0.935386 0.369175 7.14159e-20)
(0.935136 0.368613 -2.63854e-19)
(0.934856 0.368061 -3.84334e-20)
(0.934551 0.367499 1.31103e-19)
(0.934228 0.366922 -8.12181e-20)
(0.933889 0.366347 -1.83746e-19)
(0.933537 0.36578 -4.8824e-19)
(0.933178 0.365214 6.56547e-19)
(0.932809 0.364646 -2.72121e-19)
(0.932429 0.364073 2.27748e-19)
(0.932033 0.363493 4.92598e-19)
(0.931612 0.362895 4.07528e-19)
(0.93113 0.362262 -2.77602e-19)
(0.930621 0.361536 9.87312e-19)
(0.930116 0.36072 1.87772e-18)
(0.929605 0.359796 -1.88353e-19)
(0.929093 0.358695 -2.59719e-18)
(0.928544 0.357391 -3.54592e-18)
(0.92798 0.355744 -2.82988e-19)
(0.927342 0.353694 2.493e-18)
(0.926657 0.351132 -1.78127e-19)
(0.925918 0.34794 4.70003e-18)
(0.925046 0.344136 -8.27265e-18)
(0.924294 0.339677 -4.77639e-18)
(0.923402 0.334695 -1.02405e-18)
(0.922799 0.329197 -3.83724e-18)
(0.922067 0.32305 2.52104e-18)
(0.922638 0.316858 -3.58204e-18)
(0.922133 0.310267 -1.14728e-17)
(0.922667 0.305178 -1.10612e-17)
(0.929704 0.302237 3.52343e-18)
(0.929109 0.383444 -1.13962e-21)
(0.9283 0.38342 9.35407e-22)
(0.92755 0.383409 7.12377e-22)
(0.926892 0.383378 -4.97662e-21)
(0.926362 0.383325 5.17039e-21)
(0.925993 0.383241 -2.47326e-21)
(0.925808 0.38312 7.96582e-21)
(0.925825 0.382953 -1.17789e-20)
(0.926046 0.382733 8.0029e-22)
(0.926461 0.382457 1.01318e-21)
(0.927047 0.38212 -8.35412e-21)