/*--------------------------------*- C++ -*----------------------------------*\
  =========                 |
  \\      /  F ield         | OpenFOAM: The Open Source CFD Toolbox
   \\    /   O peration     | Website:  https://openfoam.org
    \\  /    A nd           | Version:  6.0
     \\/     M anipulation  |
\*---------------------------------------------------------------------------*/
FoamFile
{
    version     2.0;
    format      ascii;
    class       volScalarField;
    location    "1.07";
    object      p;
}
// * * * * * * * * * * * * * * * * * * * * * * * * * * * * * * * * * * * * * //

dimensions      [0 2 -2 0 0 0 0];

internalField   nonuniform List<scalar> 
13500
(
0.10001
0.10012
0.099418
0.099355
0.098058
0.098217
0.097053
0.098247
0.099341
0.10395
0.12452
0.17116
0.10001
0.10012
0.099418
0.099356
0.098057
0.098218
0.097052
0.098248
0.099338
0.104
0.12384
0.16612
0.10001
0.10012
0.099417
0.099358
0.098055
0.09822
0.097049
0.098247
0.099329
0.10404
0.12296
0.16165
0.10001
0.10012
0.099417
0.09936
0.098053
0.098222
0.097044
0.098246
0.099315
0.10406
0.12199
0.15817
0.10001
0.10012
0.099417
0.099363
0.098051
0.098223
0.097039
0.098242
0.099296
0.10406
0.12095
0.15522
0.10001
0.10013
0.099417
0.099366
0.098049
0.098224
0.097034
0.098238
0.099272
0.10405
0.11988
0.1526
0.10001
0.10013
0.099417
0.099368
0.098047
0.098225
0.097028
0.098232
0.099243
0.10402
0.1188
0.15021
0.10002
0.10013
0.099417
0.099371
0.098045
0.098226
0.097021
0.098225
0.09921
0.10399
0.11772
0.14803
0.10002
0.10013
0.099418
0.099374
0.098044
0.098227
0.097013
0.098216
0.099173
0.10394
0.11667
0.146
0.10002
0.10014
0.099419
0.099377
0.098042
0.098227
0.097005
0.098206
0.099131
0.10388
0.11566
0.14411
0.10002
0.10014
0.09942
0.099381
0.09804
0.098227
0.096997
0.098195
0.099085
0.10382
0.11467
0.14233
0.10003
0.10015
0.099422
0.099384
0.098038
0.098227
0.096987
0.098183
0.099035
0.10374
0.11373
0.14066
0.10003
0.10015
0.099423
0.099388
0.098036
0.098227
0.096977
0.098169
0.098981
0.10365
0.11283
0.13908
0.10003
0.10015
0.099425
0.099391
0.098035
0.098227
0.096967
0.098154
0.098923
0.10356
0.11196
0.13758
0.10004
0.10016
0.099428
0.099395
0.098033
0.098226
0.096955
0.098137
0.098861
0.10347
0.11113
0.13615
0.10004
0.10016
0.09943
0.0994
0.098031
0.098225
0.096943
0.09812
0.098795
0.10337
0.11034
0.13479
0.10005
0.10017
0.099433
0.099404
0.098029
0.098224
0.096931
0.0981
0.098726
0.10327
0.10958
0.13349
0.10005
0.10018
0.099436
0.099408
0.098028
0.098222
0.096918
0.09808
0.098653
0.10316
0.10884
0.13225
0.10006
0.10018
0.099439
0.099413
0.098026
0.098221
0.096904
0.098059
0.098577
0.10306
0.10813
0.13106
0.10006
0.10019
0.099443
0.099418
0.098025
0.098219
0.096889
0.098036
0.098498
0.10295
0.10744
0.12991
0.10007
0.10019
0.099447
0.099423
0.098023
0.098217
0.096874
0.098012
0.098416
0.10284
0.10677
0.1288
0.10008
0.1002
0.099451
0.099428
0.098022
0.098214
0.096858
0.097987
0.098332
0.10273
0.10612
0.12774
0.10008
0.10021
0.099456
0.099433
0.09802
0.098212
0.096842
0.09796
0.098244
0.10261
0.10549
0.1267
0.10009
0.10022
0.09946
0.099438
0.098019
0.098209
0.096825
0.097933
0.098154
0.1025
0.10487
0.1257
0.1001
0.10023
0.099465
0.099444
0.098017
0.098206
0.096808
0.097904
0.098061
0.10238
0.10426
0.12473
0.10011
0.10023
0.099471
0.09945
0.098016
0.098203
0.096789
0.097874
0.097966
0.10227
0.10366
0.12379
0.10011
0.10024
0.099477
0.099456
0.098015
0.098199
0.096771
0.097843
0.097868
0.10215
0.10307
0.12287
0.10012
0.10025
0.099483
0.099462
0.098013
0.098196
0.096751
0.097812
0.097769
0.10203
0.1025
0.12198
0.10013
0.10026
0.099489
0.099469
0.098012
0.098192
0.096731
0.097779
0.097667
0.10191
0.10193
0.12111
0.10014
0.10027
0.099496
0.099475
0.098011
0.098187
0.096711
0.097745
0.097563
0.10179
0.10137
0.12026
0.10015
0.10028
0.099503
0.099482
0.09801
0.098183
0.096689
0.09771
0.097456
0.10167
0.10082
0.11943
0.10016
0.10029
0.09951
0.099489
0.098009
0.098178
0.096668
0.097674
0.097348
0.10154
0.10028
0.11861
0.10017
0.1003
0.099517
0.099496
0.098008
0.098173
0.096645
0.097637
0.097238
0.10142
0.099751
0.11782
0.10018
0.10031
0.099525
0.099504
0.098007
0.098168
0.096622
0.097599
0.097126
0.10129
0.099228
0.11704
0.1002
0.10033
0.099534
0.099511
0.098007
0.098163
0.096599
0.097561
0.097012
0.10116
0.098713
0.11628
0.10021
0.10034
0.099543
0.099519
0.098006
0.098157
0.096575
0.097521
0.096896
0.10103
0.098207
0.11554
0.10022
0.10035
0.099552
0.099527
0.098006
0.098151
0.09655
0.097481
0.096779
0.10089
0.097708
0.11481
0.10023
0.10036
0.099561
0.099535
0.098005
0.098145
0.096525
0.097439
0.09666
0.10076
0.097218
0.11409
0.10025
0.10038
0.099571
0.099544
0.098005
0.098139
0.0965
0.097397
0.096539
0.10062
0.096736
0.11339
0.10026
0.10039
0.099581
0.099552
0.098005
0.098132
0.096473
0.097355
0.096417
0.10048
0.096262
0.1127
0.10028
0.10041
0.099592
0.099561
0.098005
0.098126
0.096447
0.097311
0.096294
0.10034
0.095796
0.11202
0.10029
0.10042
0.099602
0.09957
0.098005
0.098119
0.096419
0.097267
0.096169
0.1002
0.095338
0.11135
0.10031
0.10044
0.099614
0.09958
0.098005
0.098111
0.096392
0.097221
0.096043
0.10005
0.094888
0.11069
0.10032
0.10045
0.099626
0.099589
0.098005
0.098104
0.096363
0.097175
0.095915
0.099909
0.094445
0.11005
0.10034
0.10047
0.099638
0.099599
0.098006
0.098096
0.096335
0.097129
0.095787
0.099763
0.09401
0.10941
0.10035
0.10048
0.09965
0.099609
0.098007
0.098088
0.096305
0.097082
0.095657
0.099614
0.093583
0.10879
0.10037
0.1005
0.099663
0.099619
0.098007
0.09808
0.096276
0.097034
0.095526
0.099465
0.093164
0.10817
0.10039
0.10052
0.099677
0.09963
0.098008
0.098072
0.096245
0.096985
0.095394
0.099314
0.092751
0.10757
0.10041
0.10054
0.09969
0.09964
0.098009
0.098064
0.096215
0.096935
0.095262
0.099161
0.092346
0.10697
0.10043
0.10055
0.099705
0.099651
0.098011
0.098055
0.096183
0.096885
0.095128
0.099008
0.091949
0.10638
0.10044
0.10057
0.099719
0.099663
0.098012
0.098046
0.096152
0.096835
0.094993
0.098853
0.091558
0.1058
0.10046
0.10059
0.099734
0.099674
0.098014
0.098037
0.09612
0.096783
0.094858
0.098696
0.091174
0.10523
0.10048
0.10061
0.09975
0.099686
0.098016
0.098028
0.096087
0.096731
0.094722
0.098539
0.090798
0.10466
0.10051
0.10063
0.099766
0.099698
0.098018
0.098019
0.096054
0.096679
0.094585
0.09838
0.090428
0.1041
0.10053
0.10065
0.099782
0.09971
0.09802
0.098009
0.096021
0.096626
0.094448
0.09822
0.090064
0.10355
0.10055
0.10067
0.099799
0.099722
0.098022
0.098
0.095987
0.096572
0.09431
0.098058
0.089708
0.10301
0.10057
0.1007
0.099817
0.099735
0.098025
0.09799
0.095953
0.096518
0.094172
0.097896
0.089357
0.10247
0.10059
0.10072
0.099835
0.099748
0.098028
0.09798
0.095918
0.096463
0.094033
0.097733
0.089014
0.10194
0.10062
0.10074
0.099853
0.099762
0.098031
0.09797
0.095883
0.096407
0.093894
0.097568
0.088676
0.10142
0.10064
0.10076
0.099872
0.099775
0.098034
0.09796
0.095847
0.096351
0.093754
0.097403
0.088344
0.10091
0.10067
0.10079
0.099892
0.099789
0.098037
0.09795
0.095812
0.096294
0.093614
0.097236
0.088019
0.1004
0.10069
0.10081
0.099912
0.099804
0.098041
0.09794
0.095775
0.096237
0.093474
0.097068
0.087699
0.099891
0.10072
0.10084
0.099932
0.099818
0.098045
0.097929
0.095739
0.096179
0.093333
0.0969
0.087385
0.099392
0.10074
0.10086
0.099953
0.099833
0.098049
0.097919
0.095702
0.096121
0.093192
0.09673
0.087077
0.0989
0.10077
0.10089
0.099975
0.099849
0.098054
0.097909
0.095665
0.096062
0.093052
0.096559
0.086774
0.098413
0.1008
0.10091
0.099997
0.099864
0.098058
0.097898
0.095627
0.096003
0.09291
0.096388
0.086477
0.097931
0.10083
0.10094
0.10002
0.09988
0.098063
0.097888
0.095589
0.095943
0.092769
0.096216
0.086185
0.097455
0.10086
0.10097
0.10004
0.099896
0.098068
0.097877
0.095551
0.095882
0.092628
0.096043
0.085899
0.096985
0.10089
0.101
0.10007
0.099913
0.098074
0.097866
0.095513
0.095822
0.092487
0.095868
0.085617
0.096519
0.10092
0.10103
0.10009
0.09993
0.098079
0.097856
0.095474
0.09576
0.092346
0.095694
0.08534
0.096059
0.10095
0.10105
0.10012
0.099948
0.098085
0.097845
0.095435
0.095698
0.092205
0.095518
0.085068
0.095603
0.10098
0.10108
0.10014
0.099965
0.098092
0.097834
0.095396
0.095636
0.092063
0.095341
0.084801
0.095153
0.10101
0.10112
0.10017
0.099984
0.098098
0.097824
0.095356
0.095573
0.091922
0.095164
0.084539
0.094707
0.10105
0.10115
0.10019
0.1
0.098105
0.097813
0.095317
0.09551
0.091782
0.094986
0.084281
0.094266
0.10108
0.10118
0.10022
0.10002
0.098112
0.097802
0.095277
0.095446
0.091641
0.094807
0.084028
0.093829
0.10111
0.10121
0.10025
0.10004
0.09812
0.097792
0.095237
0.095382
0.0915
0.094628
0.083778
0.093397
0.10115
0.10124
0.10028
0.10006
0.098128
0.097781
0.095196
0.095317
0.09136
0.094448
0.083533
0.092969
0.10118
0.10128
0.10031
0.10008
0.098136
0.09777
0.095156
0.095252
0.09122
0.094267
0.083293
0.092546
0.10122
0.10131
0.10034
0.1001
0.098145
0.09776
0.095115
0.095187
0.09108
0.094086
0.083056
0.092127
0.10126
0.10135
0.10037
0.10012
0.098153
0.097749
0.095074
0.095121
0.090941
0.093904
0.082823
0.091712
0.1013
0.10138
0.1004
0.10014
0.098163
0.097739
0.095033
0.095055
0.090802
0.093721
0.082593
0.091301
0.10134
0.10142
0.10043
0.10017
0.098172
0.097729
0.094992
0.094988
0.090663
0.093537
0.082368
0.090894
0.10138
0.10146
0.10047
0.10019
0.098182
0.097718
0.094951
0.094921
0.090525
0.093354
0.082146
0.090491
0.10142
0.1015
0.1005
0.10021
0.098193
0.097708
0.09491
0.094853
0.090387
0.093169
0.081927
0.090092
0.10146
0.10154
0.10053
0.10024
0.098204
0.097698
0.094869
0.094785
0.090249
0.092984
0.081712
0.089697
0.1015
0.10158
0.10057
0.10026
0.098215
0.097688
0.094827
0.094717
0.090112
0.092798
0.0815
0.089305
0.10154
0.10162
0.1006
0.10029
0.098226
0.097679
0.094786
0.094648
0.089975
0.092612
0.081291
0.088917
0.10159
0.10166
0.10064
0.10031
0.098239
0.097669
0.094744
0.094579
0.089838
0.092425
0.081085
0.088533
0.10163
0.1017
0.10068
0.10034
0.098251
0.097659
0.094703
0.09451
0.089702
0.092238
0.080882
0.088152
0.10168
0.10174
0.10072
0.10036
0.098264
0.09765
0.094661
0.09444
0.089567
0.09205
0.080682
0.087774
0.10172
0.10179
0.10075
0.10039
0.098278
0.097641
0.094619
0.09437
0.089432
0.091862
0.080485
0.0874
0.10177
0.10183
0.10079
0.10042
0.098292
0.097632
0.094578
0.094299
0.089297
0.091673
0.08029
0.087029
0.10182
0.10188
0.10084
0.10045
0.098306
0.097623
0.094536
0.094228
0.089163
0.091484
0.080098
0.086661
0.10187
0.10192
0.10088
0.10048
0.098321
0.097615
0.094495
0.094157
0.08903
0.091294
0.079909
0.086297
0.10192
0.10197
0.10092
0.10051
0.098336
0.097606
0.094453
0.094085
0.088897
0.091104
0.079722
0.085935
0.10197
0.10202
0.10096
0.10054
0.098352
0.097598
0.094412
0.094013
0.088764
0.090914
0.079537
0.085576
0.10202
0.10207
0.10101
0.10057
0.098369
0.097591
0.094371
0.093941
0.088632
0.090723
0.079354
0.08522
0.10208
0.10212
0.10105
0.1006
0.098386
0.097583
0.094329
0.093868
0.088501
0.090531
0.079173
0.084867
0.10213
0.10217
0.1011
0.10063
0.098404
0.097576
0.094288
0.093796
0.08837
0.090339
0.078994
0.084517
0.10219
0.10222
0.10115
0.10067
0.098422
0.097569
0.094248
0.093722
0.088239
0.090147
0.078818
0.08417
0.10224
0.10228
0.10119
0.1007
0.098441
0.097562
0.094207
0.093649
0.08811
0.089954
0.078643
0.083825
0.1023
0.10233
0.10124
0.10074
0.098461
0.097556
0.094166
0.093575
0.08798
0.089761
0.078469
0.083482
0.10236
0.10239
0.10129
0.10077
0.098481
0.09755
0.094126
0.093501
0.087852
0.089567
0.078298
0.083142
0.10242
0.10245
0.10134
0.10081
0.098502
0.097544
0.094086
0.093427
0.087724
0.089373
0.078127
0.082804
0.10248
0.1025
0.1014
0.10085
0.098524
0.097539
0.094046
0.093352
0.087596
0.089179
0.077959
0.082469
0.10255
0.10256
0.10145
0.10088
0.098546
0.097534
0.094006
0.093277
0.087469
0.088984
0.077791
0.082136
0.10261
0.10262
0.10151
0.10092
0.09857
0.09753
0.093966
0.093202
0.087342
0.088789
0.077625
0.081805
0.10267
0.10268
0.10156
0.10096
0.098594
0.097526
0.093927
0.093126
0.087217
0.088593
0.07746
0.081475
0.10274
0.10275
0.10162
0.10101
0.098618
0.097523
0.093888
0.09305
0.087091
0.088397
0.077297
0.081148
0.10281
0.10281
0.10168
0.10105
0.098644
0.09752
0.09385
0.092975
0.086966
0.088201
0.077134
0.080823
0.10288
0.10288
0.10174
0.10109
0.09867
0.097517
0.093812
0.092898
0.086842
0.088004
0.076972
0.0805
0.10295
0.10294
0.1018
0.10114
0.098698
0.097515
0.093774
0.092822
0.086718
0.087807
0.076811
0.080178
0.10302
0.10301
0.10186
0.10118
0.098726
0.097514
0.093736
0.092745
0.086595
0.087609
0.076651
0.079858
0.10309
0.10308
0.10192
0.10123
0.098755
0.097513
0.093699
0.092668
0.086472
0.087411
0.076491
0.07954
0.10317
0.10315
0.10199
0.10128
0.098786
0.097513
0.093663
0.092591
0.08635
0.087212
0.076332
0.079223
0.10325
0.10323
0.10206
0.10133
0.098817
0.097513
0.093627
0.092514
0.086229
0.087014
0.076173
0.078907
0.10332
0.1033
0.10213
0.10138
0.098849
0.097514
0.093591
0.092437
0.086107
0.086814
0.076015
0.078593
0.1034
0.10338
0.1022
0.10143
0.098883
0.097516
0.093556
0.092359
0.085987
0.086614
0.075857
0.07828
0.10349
0.10346
0.10227
0.10148
0.098917
0.097519
0.093521
0.092281
0.085867
0.086414
0.0757
0.077968
0.10357
0.10354
0.10234
0.10154
0.098953
0.097522
0.093487
0.092203
0.085747
0.086214
0.075542
0.077657
0.10366
0.10362
0.10241
0.10159
0.09899
0.097526
0.093454
0.092125
0.085628
0.086012
0.075385
0.077348
0.10374
0.1037
0.10249
0.10165
0.099028
0.097531
0.093421
0.092047
0.085509
0.085811
0.075228
0.077039
0.10383
0.10379
0.10257
0.10171
0.099067
0.097537
0.093389
0.091969
0.085391
0.085609
0.07507
0.07673
0.10392
0.10387
0.10265
0.10177
0.099108
0.097544
0.093358
0.091891
0.085273
0.085406
0.074913
0.076423
0.10402
0.10396
0.10273
0.10183
0.099151
0.097552
0.093327
0.091812
0.085156
0.085203
0.074755
0.076116
0.10411
0.10405
0.10282
0.1019
0.099194
0.097561
0.093297
0.091734
0.085039
0.085
0.074596
0.075809
0.10421
0.10415
0.1029
0.10196
0.09924
0.09757
0.093268
0.091656
0.084923
0.084796
0.074438
0.075503
0.10431
0.10424
0.10299
0.10203
0.099287
0.097581
0.09324
0.091577
0.084807
0.084591
0.074278
0.075197
0.10441
0.10434
0.10308
0.1021
0.099335
0.097593
0.093212
0.091499
0.084692
0.084386
0.074118
0.074891
0.10452
0.10444
0.10318
0.10218
0.099385
0.097607
0.093186
0.091421
0.084576
0.08418
0.073958
0.074586
0.10462
0.10454
0.10327
0.10225
0.099438
0.097621
0.093161
0.091342
0.084462
0.083974
0.073796
0.07428
0.10473
0.10465
0.10337
0.10233
0.099491
0.097637
0.093136
0.091264
0.084348
0.083767
0.073634
0.073974
0.10484
0.10476
0.10347
0.1024
0.099547
0.097655
0.093113
0.091186
0.084234
0.08356
0.073471
0.073668
0.10496
0.10487
0.10357
0.10249
0.099605
0.097674
0.093091
0.091109
0.08412
0.083352
0.073307
0.073361
0.10508
0.10498
0.10368
0.10257
0.099665
0.097694
0.09307
0.091031
0.084007
0.083143
0.073141
0.073054
0.1052
0.1051
0.10379
0.10266
0.099727
0.097716
0.09305
0.090954
0.083894
0.082934
0.072975
0.072747
0.10532
0.10522
0.1039
0.10274
0.099792
0.09774
0.093031
0.090876
0.083782
0.082724
0.072807
0.072439
0.10545
0.10534
0.10401
0.10284
0.099859
0.097765
0.093014
0.0908
0.08367
0.082513
0.072637
0.072129
0.10558
0.10547
0.10413
0.10293
0.099928
0.097792
0.092999
0.090723
0.083559
0.082302
0.072467
0.071819
0.10571
0.1056
0.10425
0.10303
0.1
0.097822
0.092984
0.090647
0.083447
0.08209
0.072294
0.071508
0.10585
0.10573
0.10438
0.10313
0.10007
0.097853
0.092972
0.090571
0.083337
0.081877
0.07212
0.071196
0.10599
0.10587
0.10451
0.10323
0.10015
0.097886
0.092961
0.090496
0.083226
0.081664
0.071944
0.070882
0.10614
0.10601
0.10464
0.10334
0.10023
0.097922
0.092951
0.090422
0.083116
0.08145
0.071766
0.070566
0.10628
0.10615
0.10477
0.10345
0.10032
0.09796
0.092944
0.090348
0.083006
0.081235
0.071587
0.070249
0.10644
0.1063
0.10491
0.10357
0.1004
0.098
0.092938
0.090274
0.082897
0.081019
0.071405
0.069931
0.10659
0.10645
0.10506
0.10368
0.10049
0.098043
0.092935
0.090202
0.082788
0.080802
0.071221
0.06961
0.10675
0.10661
0.1052
0.10381
0.10059
0.098089
0.092933
0.09013
0.082679
0.080585
0.071035
0.069287
0.10692
0.10677
0.10536
0.10393
0.10068
0.098138
0.092934
0.090058
0.082571
0.080366
0.070846
0.068963
0.10709
0.10694
0.10551
0.10406
0.10078
0.098189
0.092937
0.089988
0.082463
0.080147
0.070655
0.068635
0.10727
0.10711
0.10568
0.1042
0.10089
0.098243
0.092942
0.089919
0.082356
0.079927
0.070462
0.068305
0.10745
0.10729
0.10584
0.10434
0.101
0.098301
0.09295
0.089851
0.082249
0.079706
0.070265
0.067973
0.10763
0.10747
0.10601
0.10448
0.10111
0.098362
0.09296
0.089783
0.082142
0.079484
0.070066
0.067638
0.10782
0.10766
0.10619
0.10463
0.10123
0.098427
0.092973
0.089717
0.082036
0.079261
0.069864
0.067299
0.10802
0.10785
0.10637
0.10479
0.10135
0.098495
0.092989
0.089653
0.08193
0.079036
0.069659
0.066958
0.10822
0.10805
0.10656
0.10495
0.10148
0.098567
0.093008
0.089589
0.081825
0.078811
0.069451
0.066613
0.10843
0.10826
0.10676
0.10511
0.10161
0.098643
0.09303
0.089527
0.08172
0.078585
0.06924
0.066264
0.10864
0.10847
0.10696
0.10528
0.10174
0.098723
0.093055
0.089467
0.081615
0.078357
0.069025
0.065912
0.10886
0.10869
0.10717
0.10546
0.10189
0.098808
0.093084
0.089408
0.081511
0.078129
0.068807
0.065555
0.10909
0.10891
0.10738
0.10565
0.10204
0.098897
0.093116
0.08935
0.081407
0.077899
0.068585
0.065195
0.10933
0.10915
0.1076
0.10584
0.10219
0.098991
0.093151
0.089295
0.081304
0.077668
0.068359
0.06483
0.10957
0.10939
0.10783
0.10603
0.10235
0.099089
0.093191
0.089241
0.081202
0.077436
0.068129
0.06446
0.10982
0.10963
0.10807
0.10624
0.10252
0.099193
0.093234
0.089189
0.081099
0.077202
0.067895
0.064086
0.11008
0.10989
0.10831
0.10645
0.10269
0.099302
0.093281
0.089139
0.080998
0.076967
0.067657
0.063706
0.11034
0.11015
0.10856
0.10667
0.10287
0.099417
0.093333
0.089092
0.080896
0.07673
0.067415
0.063321
0.11061
0.11042
0.10882
0.1069
0.10306
0.099537
0.093389
0.089046
0.080795
0.076491
0.067168
0.062931
0.1109
0.11071
0.10909
0.10714
0.10325
0.099664
0.093449
0.089003
0.080695
0.076252
0.066916
0.062534
0.11119
0.111
0.10937
0.10738
0.10345
0.099796
0.093515
0.088962
0.080595
0.07601
0.066659
0.062132
0.11149
0.1113
0.10966
0.10763
0.10366
0.099935
0.093585
0.088924
0.080495
0.075766
0.066397
0.061723
0.1118
0.11161
0.10996
0.1079
0.10388
0.10008
0.09366
0.088888
0.080396
0.075521
0.066129
0.061307
0.11212
0.11193
0.11026
0.10817
0.10411
0.10023
0.093741
0.088855
0.080297
0.075273
0.065856
0.060884
0.11245
0.11226
0.11058
0.10845
0.10435
0.10039
0.093826
0.088824
0.080198
0.075024
0.065578
0.060454
0.11279
0.1126
0.11091
0.10874
0.10459
0.10056
0.093918
0.088797
0.0801
0.074772
0.065293
0.060016
0.11314
0.11295
0.11125
0.10905
0.10485
0.10074
0.094015
0.088772
0.080002
0.074517
0.065001
0.05957
0.1135
0.11332
0.1116
0.10936
0.10511
0.10092
0.094118
0.08875
0.079904
0.07426
0.064703
0.059115
0.11388
0.11369
0.11197
0.10969
0.10539
0.10111
0.094227
0.088731
0.079806
0.074
0.064398
0.058652
0.11427
0.11408
0.11234
0.11002
0.10567
0.10131
0.094342
0.088715
0.079708
0.073737
0.064086
0.058179
0.11467
0.11448
0.11273
0.11037
0.10597
0.10152
0.094464
0.088702
0.079609
0.073471
0.063767
0.057696
0.11508
0.1149
0.11313
0.11074
0.10627
0.10173
0.094592
0.088692
0.079511
0.073201
0.063439
0.057203
0.1155
0.11533
0.11355
0.11111
0.10659
0.10196
0.094727
0.088686
0.079412
0.072928
0.063103
0.056699
0.11594
0.11577
0.11398
0.1115
0.10693
0.1022
0.094868
0.088682
0.079312
0.07265
0.062758
0.056184
0.1164
0.11623
0.11442
0.1119
0.10727
0.10244
0.095017
0.088682
0.079212
0.072368
0.062404
0.055658
0.11686
0.1167
0.11488
0.11232
0.10763
0.1027
0.095173
0.088684
0.07911
0.072082
0.06204
0.055118
0.11735
0.11719
0.11536
0.11275
0.108
0.10297
0.095336
0.08869
0.079008
0.07179
0.061666
0.054566
0.11785
0.1177
0.11585
0.1132
0.10838
0.10324
0.095506
0.088698
0.078904
0.071493
0.061281
0.054
0.11836
0.11822
0.11636
0.11366
0.10878
0.10353
0.095684
0.088709
0.078798
0.07119
0.060885
0.053419
0.1189
0.11876
0.11689
0.11414
0.10919
0.10383
0.095869
0.088724
0.07869
0.070881
0.060478
0.052824
0.11945
0.11932
0.11744
0.11464
0.10962
0.10414
0.096063
0.088741
0.07858
0.070565
0.060057
0.052213
0.12001
0.1199
0.118
0.11515
0.11007
0.10447
0.096264
0.08876
0.078467
0.070242
0.059624
0.051585
0.1206
0.1205
0.11859
0.11569
0.11053
0.1048
0.096474
0.088783
0.078351
0.069911
0.059176
0.050939
0.12121
0.12111
0.11919
0.11624
0.111
0.10515
0.096691
0.088807
0.078232
0.069571
0.058714
0.050276
0.12184
0.12175
0.11982
0.11682
0.1115
0.10551
0.096917
0.088834
0.078109
0.069222
0.058236
0.049593
0.12249
0.12242
0.12047
0.11741
0.11201
0.10589
0.097152
0.088863
0.077981
0.068863
0.057742
0.048889
0.12316
0.1231
0.12114
0.11803
0.11255
0.10628
0.097395
0.088894
0.077849
0.068493
0.057231
0.048164
0.12386
0.12381
0.12184
0.11867
0.1131
0.10668
0.097647
0.088927
0.077711
0.068113
0.056701
0.047417
0.12458
0.12455
0.12256
0.11933
0.11368
0.10711
0.097909
0.088961
0.077568
0.06772
0.056152
0.046647
0.12533
0.12531
0.12332
0.12003
0.11427
0.10754
0.098179
0.088997
0.077417
0.067313
0.055583
0.045851
0.1261
0.12611
0.1241
0.12074
0.11489
0.108
0.098459
0.089033
0.07726
0.066893
0.054992
0.045029
0.12691
0.12693
0.12491
0.12149
0.11554
0.10847
0.098749
0.089071
0.077095
0.066458
0.054378
0.04418
0.12774
0.12779
0.12576
0.12227
0.11621
0.10896
0.09905
0.08911
0.076921
0.066007
0.05374
0.043302
0.12861
0.12868
0.12663
0.12308
0.11691
0.10947
0.09936
0.089149
0.076738
0.065538
0.053077
0.042393
0.12951
0.12961
0.12755
0.12392
0.11764
0.11
0.099682
0.089188
0.076545
0.065052
0.052387
0.041452
0.13045
0.13057
0.12851
0.1248
0.1184
0.11055
0.10001
0.089227
0.076341
0.064545
0.051668
0.040477
0.13143
0.13158
0.12951
0.12572
0.11919
0.11113
0.10036
0.089266
0.076125
0.064018
0.050919
0.039467
0.13245
0.13264
0.13055
0.12669
0.12001
0.11173
0.10072
0.089305
0.075896
0.063467
0.050139
0.038418
0.13352
0.13374
0.13164
0.12769
0.12088
0.11236
0.10109
0.089342
0.075653
0.062893
0.049324
0.03733
0.13464
0.13489
0.13278
0.12875
0.12178
0.11301
0.10147
0.089377
0.075394
0.062293
0.048473
0.036199
0.1358
0.1361
0.13398
0.12986
0.12273
0.1137
0.10186
0.089411
0.075118
0.061665
0.047585
0.035024
0.13703
0.13737
0.13524
0.13102
0.12372
0.11441
0.10227
0.089441
0.074824
0.061006
0.046655
0.033802
0.13831
0.1387
0.13656
0.13224
0.12476
0.11516
0.1027
0.089467
0.074509
0.060315
0.045682
0.032529
0.13965
0.1401
0.13796
0.13353
0.12585
0.11594
0.10313
0.089488
0.074171
0.059588
0.044662
0.031203
0.14106
0.14157
0.13942
0.13489
0.127
0.11676
0.10358
0.089502
0.073808
0.058822
0.043592
0.029821
0.14255
0.14312
0.14097
0.13632
0.12821
0.11762
0.10405
0.089507
0.073415
0.058013
0.042468
0.028378
0.14411
0.14475
0.1426
0.13782
0.12947
0.11851
0.10452
0.089501
0.07299
0.057157
0.041286
0.026871
0.14576
0.14648
0.14432
0.13942
0.13081
0.11945
0.10501
0.089481
0.072528
0.05625
0.04004
0.025295
0.14749
0.1483
0.14614
0.1411
0.13221
0.12043
0.10551
0.089442
0.072023
0.055285
0.038725
0.023646
0.14931
0.15022
0.14806
0.14287
0.13368
0.12144
0.10601
0.08938
0.071471
0.054256
0.037335
0.021916
0.15123
0.15226
0.1501
0.14475
0.13523
0.1225
0.10652
0.08929
0.070863
0.053156
0.035863
0.020101
0.15326
0.1544
0.15225
0.14674
0.13686
0.12361
0.10703
0.089165
0.070192
0.051976
0.0343
0.018192
0.1554
0.15668
0.15453
0.14883
0.13857
0.12475
0.10753
0.088997
0.069449
0.050706
0.032637
0.016183
0.15765
0.15908
0.15695
0.15105
0.14036
0.12593
0.10802
0.088778
0.068622
0.049336
0.030865
0.014064
0.16003
0.16163
0.15951
0.1534
0.14224
0.12714
0.1085
0.088495
0.0677
0.047855
0.028972
0.011825
0.16253
0.16433
0.16222
0.15588
0.14421
0.12838
0.10894
0.088137
0.066668
0.046247
0.026946
0.0094555
0.16518
0.16719
0.1651
0.1585
0.14627
0.12965
0.10934
0.087688
0.065513
0.0445
0.024774
0.0069438
0.16798
0.17023
0.16817
0.16127
0.14841
0.13093
0.10968
0.087132
0.064214
0.042596
0.02244
0.004277
0.17093
0.17345
0.17142
0.1642
0.15065
0.13221
0.10995
0.086449
0.062754
0.040517
0.019929
0.0014413
0.17406
0.17689
0.1749
0.16731
0.15298
0.13349
0.11013
0.085614
0.061109
0.038243
0.017223
-0.0015775
0.17738
0.18055
0.1786
0.17059
0.15539
0.13474
0.1102
0.084601
0.059253
0.035752
0.014305
-0.0047947
0.1809
0.18446
0.18257
0.17407
0.15788
0.13595
0.11011
0.083376
0.057155
0.033019
0.011153
-0.0082259
0.18464
0.18865
0.18682
0.17775
0.16044
0.13708
0.10984
0.0819
0.054781
0.030014
0.0077451
-0.011887
0.18864
0.19316
0.19139
0.18165
0.16306
0.1381
0.10934
0.080125
0.052088
0.026703
0.0040562
-0.015796
0.1929
0.19802
0.19632
0.18579
0.16572
0.13897
0.10854
0.077993
0.049027
0.023048
5.746e-05
-0.01997
0.19746
0.20327
0.20163
0.19015
0.16837
0.13961
0.10739
0.075436
0.045539
0.019003
-0.0042838
-0.024428
0.20233
0.20897
0.20737
0.19474
0.17097
0.13996
0.10577
0.072368
0.041554
0.014516
-0.0090042
-0.029189
0.20756
0.21515
0.21356
0.19953
0.17343
0.13989
0.10359
0.068693
0.036995
0.0095261
-0.014144
-0.034274
0.21314
0.22187
0.22022
0.20446
0.17565
0.13926
0.10071
0.064296
0.031774
0.0039719
-0.019744
-0.0397
0.21911
0.22916
0.22734
0.20946
0.17745
0.13791
0.096963
0.05905
0.025798
-0.0022093
-0.025842
-0.045481
0.22546
0.23706
0.23489
0.21436
0.17863
0.1356
0.092162
0.052818
0.018977
-0.0090719
-0.032463
-0.051615
0.23222
0.24557
0.24275
0.21894
0.17887
0.13205
0.086094
0.045459
0.011231
-0.016651
-0.039612
-0.058084
0.2394
0.25466
0.25072
0.22282
0.17779
0.12693
0.078525
0.036839
0.0025021
-0.024953
-0.047259
-0.064837
0.24702
0.26422
0.25841
0.22546
0.17484
0.11985
0.069221
0.026851
-0.0072278
-0.033938
-0.055334
-0.071788
0.25517
0.27401
0.26516
0.22604
0.16936
0.11035
0.057967
0.015436
-0.017922
-0.043516
-0.063713
-0.078809
0.26399
0.28351
0.26987
0.2234
0.16048
0.098005
0.044615
0.0026212
-0.029467
-0.053535
-0.072229
-0.085741
0.27372
0.2918
0.27079
0.21591
0.14721
0.082396
0.029145
-0.011439
-0.041651
-0.063778
-0.080677
-0.092412
0.28477
0.29731
0.2653
0.20142
0.12842
0.06325
0.011718
-0.026431
-0.054153
-0.073974
-0.088836
-0.098659
0.29767
0.29768
0.24988
0.1774
0.10306
0.040492
-0.0073101
-0.041904
-0.066571
-0.083818
-0.096495
-0.10436
0.31298
0.29007
0.22077
0.14141
0.070365
0.014291
-0.027458
-0.05736
-0.078497
-0.093029
-0.10349
-0.10944
0.33037
0.27078
0.17523
0.092419
0.030353
-0.014925
-0.048258
-0.072411
-0.089649
-0.10143
-0.10975
-0.11395
0.3491
0.23301
0.10982
0.030236
-0.016657
-0.047049
-0.069759
-0.087179
-0.10018
-0.10922
-0.11548
-0.11814
0.37801
0.17601
0.023271
-0.044372
-0.070388
-0.082857
-0.093177
-0.1029
-0.11121
-0.11734
-0.12154
-0.1228
0.42865
0.11647
-0.071105
-0.12244
-0.12535
-0.11973
-0.1177
-0.11959
-0.12305
-0.12615
-0.12826
-0.12815
0.10286
0.062999
0.052182
0.045412
0.040585
0.037027
0.034414
0.032667
0.031681
0.031439
0.031707
0.032187
0.12227
0.078227
0.064809
0.055891
0.049589
0.044955
0.041511
0.039132
0.037672
0.037113
0.037195
0.03779
0.10965
0.073198
0.061031
0.052299
0.046103
0.041533
0.038094
0.035651
0.034056
0.033301
0.033157
0.03351
0.1046
0.072872
0.061031
0.052201
0.04585
0.04113
0.03754
0.034943
0.033185
0.032267
0.03197
0.032122
0.10395
0.075007
0.062978
0.053895
0.047257
0.042283
0.038467
0.035672
0.03374
0.032673
0.032256
0.032282
0.10328
0.076792
0.064671
0.055426
0.048556
0.043364
0.039352
0.036382
0.034294
0.033092
0.032565
0.032474
0.10215
0.078058
0.066005
0.056694
0.049657
0.044291
0.040115
0.036996
0.034771
0.033445
0.032813
0.032598
0.10096
0.079111
0.067226
0.057913
0.050753
0.045243
0.040926
0.037673
0.035325
0.033881
0.03315
0.032807
0.099852
0.080037
0.0684
0.05914
0.051903
0.046275
0.041837
0.038465
0.036004
0.034448
0.033621
0.033147
0.098804
0.080829
0.069512
0.060363
0.053095
0.047381
0.042845
0.039369
0.036806
0.035143
0.034223
0.03362
0.0978
0.081485
0.070551
0.061564
0.054313
0.048548
0.043937
0.040375
0.037723
0.035958
0.034952
0.034222
0.096837
0.082019
0.071508
0.062729
0.05554
0.049758
0.0451
0.04147
0.038743
0.036884
0.035797
0.034949
0.095916
0.082444
0.072384
0.063846
0.056759
0.050995
0.046315
0.042637
0.039849
0.037905
0.036745
0.035791
0.095038
0.082774
0.073175
0.064905
0.057954
0.052237
0.047561
0.043853
0.041021
0.039002
0.037779
0.036735
0.094203
0.083022
0.073884
0.065898
0.059109
0.053466
0.048816
0.045098
0.042236
0.040155
0.038878
0.037763
0.093412
0.0832
0.074514
0.066821
0.060215
0.054667
0.050064
0.046352
0.043475
0.041345
0.040024
0.038856
0.092662
0.083318
0.075071
0.067674
0.061263
0.055828
0.051287
0.047597
0.044718
0.042553
0.041195
0.039995
0.091954
0.083387
0.075558
0.068455
0.062248
0.056939
0.052475
0.048819
0.04595
0.043761
0.042377
0.041159
0.091284
0.083414
0.075984
0.069169
0.06317
0.057994
0.053617
0.050007
0.047158
0.044958
0.043553
0.042334
0.090651
0.083407
0.076352
0.069818
0.064027
0.058992
0.054709
0.051153
0.048332
0.046131
0.044711
0.043503
0.090054
0.083372
0.07667
0.070406
0.064822
0.05993
0.055747
0.052252
0.049466
0.047272
0.045842
0.044654
0.089489
0.083314
0.076943
0.070938
0.065556
0.060809
0.056729
0.0533
0.050554
0.048376
0.046939
0.045777
0.088955
0.083237
0.077175
0.071418
0.066234
0.06163
0.057656
0.054296
0.051593
0.049437
0.047996
0.046865
0.088449
0.083144
0.077372
0.07185
0.066857
0.062397
0.058527
0.05524
0.052583
0.050454
0.049011
0.047912
0.08797
0.083039
0.077537
0.07224
0.067431
0.06311
0.059346
0.056133
0.053523
0.051425
0.049981
0.048915
0.087516
0.082925
0.077675
0.07259
0.067958
0.063774
0.060114
0.056976
0.054413
0.052349
0.050905
0.04987
0.087086
0.082803
0.077788
0.072904
0.068442
0.064391
0.060833
0.05777
0.055256
0.053226
0.051784
0.050778
0.086677
0.082675
0.07788
0.073186
0.068887
0.064965
0.061506
0.058518
0.056052
0.054058
0.052617
0.051638
0.086289
0.082543
0.077953
0.073439
0.069295
0.065498
0.062136
0.059221
0.056803
0.054846
0.053407
0.052451
0.085919
0.082407
0.078009
0.073666
0.069669
0.065992
0.062724
0.059882
0.057512
0.055591
0.054154
0.053217
0.085568
0.08227
0.078051
0.073869
0.070012
0.066452
0.063275
0.060504
0.058179
0.056294
0.054859
0.053939
0.085232
0.082131
0.07808
0.074049
0.070327
0.066877
0.063789
0.061087
0.058807
0.056958
0.055525
0.054619
0.084913
0.081991
0.078097
0.07421
0.070615
0.067272
0.064269
0.061634
0.059398
0.057583
0.056153
0.055257
0.084608
0.081851
0.078104
0.074353
0.070879
0.067638
0.064717
0.062147
0.059954
0.058171
0.056745
0.055856
0.084316
0.081712
0.078102
0.074479
0.071119
0.067977
0.065134
0.062628
0.060476
0.058725
0.057302
0.056419
0.084037
0.081572