/*--------------------------------*- C++ -*----------------------------------*\
  =========                 |
  \\      /  F ield         | OpenFOAM: The Open Source CFD Toolbox
   \\    /   O peration     | Website:  https://openfoam.org
    \\  /    A nd           | Version:  6.0
     \\/     M anipulation  |
\*---------------------------------------------------------------------------*/
FoamFile
{
    version     2.0;
    format      ascii;
    class       volVectorField;
    location    "11";
    object      U;
}
// * * * * * * * * * * * * * * * * * * * * * * * * * * * * * * * * * * * * * //

dimensions      [0 1 -1 0 0 0 0];

internalField   nonuniform List<vector> 
62000
(
(0.938834 0.344251 -4.0311e-21)
(0.938747 0.344103 3.4122e-21)
(0.938663 0.343995 3.55389e-21)
(0.938586 0.34389 -1.58565e-20)
(0.93852 0.343776 -1.84545e-20)
(0.93847 0.34366 6.50294e-20)
(0.938437 0.343537 -7.29388e-20)
(0.938423 0.343409 4.33077e-20)
(0.938427 0.343275 -2.07589e-20)
(0.93845 0.343136 -1.08281e-19)
(0.938488 0.342993 -1.42109e-20)
(0.93854 0.342848 1.58508e-19)
(0.938602 0.342703 3.31174e-20)
(0.938671 0.342561 -1.18373e-19)
(0.938744 0.342423 1.89386e-19)
(0.938818 0.342293 -1.03144e-19)
(0.938891 0.342171 1.09042e-19)
(0.938961 0.34206 -1.30734e-19)
(0.939028 0.34196 6.60622e-20)
(0.93909 0.341874 -2.08006e-19)
(0.939147 0.3418 2.77886e-19)
(0.939199 0.34174 8.41108e-20)
(0.939247 0.341692 1.22826e-19)
(0.939292 0.341657 -5.71383e-19)
(0.939333 0.341632 2.13011e-19)
(0.939372 0.341619 -1.35089e-19)
(0.939408 0.341613 -1.59562e-21)
(0.939443 0.341617 -1.12537e-19)
(0.939476 0.341629 3.57019e-19)
(0.939508 0.341649 -2.01639e-19)
(0.939537 0.341676 4.92739e-19)
(0.939563 0.34171 -1.03214e-18)
(0.939585 0.341754 9.89776e-20)
(0.939602 0.341811 -3.58167e-19)
(0.939617 0.341874 -1.17518e-19)
(0.939628 0.341943 -3.8555e-19)
(0.939632 0.342019 -1.21019e-19)
(0.939627 0.342107 -1.31618e-19)
(0.939611 0.342206 4.05432e-19)
(0.939583 0.342316 1.96841e-18)
(0.939542 0.342433 -4.86298e-19)
(0.93948 0.34257 -2.88394e-18)
(0.939386 0.342729 -4.74645e-18)
(0.939251 0.342904 2.70403e-18)
(0.939063 0.343071 8.02287e-19)
(0.938815 0.343191 -4.37783e-18)
(0.938503 0.343201 1.26642e-18)
(0.938129 0.343022 -2.04319e-18)
(0.937703 0.342566 -1.05015e-17)
(0.937242 0.341764 -2.4499e-18)
(0.936756 0.340602 -1.32815e-18)
(0.936235 0.33912 -1.87145e-17)
(0.935644 0.337359 1.76688e-18)
(0.934946 0.33528 2.2083e-17)
(0.934095 0.332655 6.23248e-18)
(0.93312 0.328966 2.09793e-17)
(0.932237 0.323336 -3.03059e-18)
(0.931593 0.315028 -5.62563e-18)
(0.931887 0.29944 1.13276e-17)
(0.901927 0.263237 2.38206e-18)
(0.939464 0.34492 -1.09633e-21)
(0.93947 0.344869 1.07038e-20)
(0.939426 0.344831 4.55839e-21)
(0.939324 0.344857 -1.97907e-20)
(0.939175 0.344892 8.38796e-21)
(0.93899 0.344949 -5.91164e-20)
(0.938782 0.345018 5.52078e-20)
(0.938564 0.345095 3.25942e-20)
(0.93835 0.345171 -6.21897e-20)
(0.93815 0.345239 2.79491e-21)
(0.937975 0.345293 6.27588e-20)
(0.937833 0.345326 9.7408e-23)
(0.937727 0.345336 1.87719e-20)
(0.937659 0.345317 -1.64518e-19)
(0.937629 0.345269 3.37483e-19)
(0.937635 0.345191 -3.04723e-19)
(0.937672 0.345084 1.46012e-19)
(0.937735 0.344951 -3.1475e-20)
(0.937819 0.344794 -8.73669e-20)
(0.937917 0.34462 2.47159e-19)
(0.938027 0.344429 -3.98593e-19)
(0.938142 0.34423 2.36746e-19)
(0.938261 0.344025 -3.07507e-19)
(0.938381 0.34382 1.87233e-19)
(0.938499 0.343616 1.76966e-19)
(0.938617 0.34342 -1.19161e-19)
(0.938731 0.343231 -7.5507e-22)
(0.938846 0.343057 1.37789e-19)
(0.938957 0.342897 1.1814e-19)
(0.939071 0.342758 -2.47791e-19)
(0.939179 0.34264 5.12024e-19)
(0.939283 0.342554 1.0713e-19)
(0.93937 0.342511 3.34307e-19)
(0.939443 0.342525 2.80819e-20)
(0.939503 0.342585 9.88285e-20)
(0.939547 0.342689 -1.1302e-19)
(0.939568 0.342845 -3.63543e-19)
(0.939555 0.343067 -1.8023e-19)
(0.939498 0.343362 -1.06953e-18)
(0.93939 0.343727 -1.29513e-18)
(0.939221 0.344162 1.02936e-18)
(0.938982 0.344651 6.34755e-19)
(0.938661 0.345155 4.92491e-18)
(0.93825 0.345609 3.07806e-19)
(0.937755 0.345913 -8.38476e-18)
(0.937189 0.345943 3.57235e-18)
(0.936584 0.345551 3.27658e-18)
(0.935973 0.34462 4.09925e-18)
(0.935396 0.343089 1.00345e-18)
(0.934857 0.341021 2.0402e-19)
(0.934315 0.338615 8.22674e-18)
(0.933644 0.336092 2.31095e-17)
(0.93265 0.333535 -1.5882e-17)
(0.931241 0.330659 -3.86928e-17)
(0.929357 0.3267 -9.4486e-18)
(0.927178 0.320441 -7.19131e-18)
(0.925303 0.310093 -1.62401e-17)
(0.923517 0.295088 -8.79576e-18)
(0.92508 0.267718 1.43064e-17)
(0.88104 0.213403 5.76692e-18)
(0.939689 0.344617 -5.43177e-21)
(0.940068 0.344634 -7.98691e-22)
(0.940389 0.344608 8.65822e-22)
(0.940624 0.344654 4.06067e-21)
(0.940762 0.344725 1.17406e-20)
(0.940798 0.344835 -1.13328e-20)
(0.940731 0.344987 6.16299e-20)
(0.940569 0.345182 -2.99996e-20)
(0.940324 0.345414 -1.64339e-20)
(0.940012 0.345679 -1.02627e-19)
(0.939655 0.345966 8.83539e-20)
(0.939273 0.346266 6.55201e-21)
(0.938888 0.346567 -2.09484e-20)
(0.938518 0.346857 5.66664e-20)
(0.938181 0.347123 -9.87767e-20)
(0.937888 0.347357 8.49468e-22)
(0.937648 0.347548 -4.69266e-20)
(0.937464 0.347691 1.15728e-21)
(0.937338 0.347778 1.13772e-19)
(0.937267 0.347812 -1.76439e-19)
(0.937247 0.347789 1.12464e-19)
(0.937271 0.347715 4.44831e-19)
(0.937332 0.347591 -6.15364e-20)
(0.937424 0.347427 -6.4538e-19)
(0.93754 0.347225 3.39465e-19)
(0.937674 0.346996 -1.86863e-19)
(0.937821 0.346743 3.11256e-19)
(0.93798 0.346478 -1.94441e-19)
(0.938146 0.346207 -3.91165e-19)
(0.938322 0.345943 4.22892e-19)
(0.938497 0.345691 -3.05556e-19)
(0.938669 0.345468 4.20024e-19)
(0.938819 0.345293 -1.18608e-18)
(0.938947 0.345181 1.08251e-18)
(0.939053 0.345124 -5.90993e-19)
(0.939136 0.345118 2.49955e-19)
(0.939188 0.345176 1.90849e-19)
(0.939201 0.345317 -1.58879e-20)
(0.939158 0.345552 -5.66677e-20)
(0.939049 0.345879 1.30603e-18)
(0.938848 0.346311 -5.43788e-19)
(0.938554 0.346781 8.66971e-19)
(0.938169 0.347213 -3.16584e-18)
(0.937696 0.347517 -1.62646e-18)
(0.937159 0.347563 1.88511e-18)
(0.936592 0.347211 -6.77398e-18)
(0.936055 0.346315 9.75432e-19)
(0.9356 0.344816 -6.84744e-18)
(0.93528 0.342761 1.02377e-17)
(0.935079 0.340369 2.81828e-18)
(0.934911 0.338047 1.55746e-18)
(0.934596 0.336126 -4.38383e-19)
(0.933859 0.334736 6.74763e-18)
(0.932608 0.333526 9.37257e-19)
(0.930827 0.331496 -1.36323e-17)
(0.928735 0.327303 -8.03346e-18)
(0.927026 0.318848 -5.04555e-18)
(0.924497 0.306322 -1.8855e-17)
(0.927261 0.283645 -2.25575e-18)
(0.8911 0.245245 1.74813e-18)
(0.938348 0.348932 -5.29246e-21)
(0.938832 0.348821 1.63986e-20)
(0.939346 0.348661 -2.56339e-21)
(0.939861 0.348517 -1.7336e-20)
(0.940344 0.34837 2.64681e-20)
(0.940766 0.348235 4.63057e-20)
(0.941097 0.348125 -6.15114e-20)
(0.941316 0.348051 6.76678e-21)
(0.941409 0.348021 2.20832e-20)
(0.94137 0.348041 4.6664e-20)
(0.941205 0.348114 -8.81218e-20)
(0.940924 0.348242 -2.7509e-20)
(0.940547 0.348418 -3.13674e-20)
(0.940098 0.348637 1.46068e-19)
(0.939604 0.348886 -9.97287e-20)
(0.939093 0.349156 2.371e-19)
(0.93859 0.349428 -2.92773e-19)
(0.938118 0.349694 -4.3212e-20)
(0.937694 0.349934 3.19281e-19)
(0.937332 0.350142 -1.13795e-19)
(0.93704 0.350303 -4.21711e-20)
(0.936821 0.350413 -4.60345e-20)
(0.936675 0.350464 -4.2424e-19)
(0.936597 0.350457 2.50746e-19)
(0.936583 0.350391 -1.13163e-19)
(0.936624 0.350271 1.88887e-19)
(0.936713 0.350098 8.92672e-20)
(0.936844 0.349883 4.47648e-19)
(0.937012 0.349631 -2.87315e-19)
(0.937211 0.349359 -3.79848e-19)
(0.937429 0.349075 6.06947e-19)
(0.937655 0.3488 -5.07462e-19)
(0.937868 0.348558 9.54399e-19)
(0.93806 0.348361 -5.89307e-19)
(0.938227 0.348202 2.52552e-19)
(0.938369 0.348074 4.40908e-19)
(0.938484 0.347991 -1.90827e-19)
(0.93856 0.347975 2.47964e-19)
(0.938581 0.348037 -1.22658e-19)
(0.938532 0.348179 3.95598e-19)
(0.938372 0.348416 -1.15523e-18)
(0.938094 0.348652 3.25906e-19)
(0.937717 0.348785 7.37386e-19)
(0.937252 0.348728 1.85319e-18)
(0.936723 0.348352 2.61521e-18)
(0.936168 0.347529 6.83018e-19)
(0.935646 0.346142 4.64957e-18)
(0.935206 0.344183 5.45896e-18)
(0.934894 0.341771 6.86834e-18)
(0.934685 0.339199 -5.25729e-18)
(0.934485 0.336965 -7.43845e-18)
(0.934136 0.33542 5.14516e-18)
(0.933391 0.334698 7.11644e-18)
(0.932224 0.334479 1.62505e-17)
(0.930706 0.3337 1.02821e-17)
(0.929046 0.331073 1.71569e-17)
(0.927997 0.324406 3.11294e-17)
(0.925265 0.314193 -1.20939e-18)
(0.929299 0.296562 -1.73241e-17)
(0.90054 0.26741 -1.27077e-17)
(0.936482 0.356192 9.55249e-21)
(0.936677 0.356 -3.28863e-21)
(0.936987 0.355776 5.36925e-21)
(0.937401 0.35552 -7.79379e-21)
(0.937898 0.355221 1.73963e-20)
(0.938449 0.354887 -8.79937e-21)
(0.939016 0.354529 4.7139e-21)
(0.939562 0.354159 -7.19594e-20)
(0.940049 0.35379 6.12954e-20)
(0.940443 0.353437 -1.24569e-19)
(0.940718 0.353113 1.39465e-19)
(0.940855 0.35283 -1.69337e-20)
(0.940848 0.352599 -3.86526e-20)
(0.9407 0.352426 -1.86477e-20)
(0.940424 0.352313 -4.15204e-21)
(0.94004 0.35226 -1.92399e-19)
(0.939575 0.352261 7.62091e-21)
(0.939059 0.352308 2.19244e-19)
(0.938521 0.352386 -7.27587e-20)
(0.93799 0.352488 -7.93158e-20)
(0.937491 0.352594 1.35905e-19)
(0.937043 0.352694 -6.90303e-20)
(0.936662 0.352771 2.9341e-19)
(0.936356 0.35282 1.6337e-19)
(0.936132 0.352825 1.26087e-19)
(0.935988 0.352788 -4.0442e-19)
(0.935924 0.352696 -5.71584e-20)
(0.935936 0.352556 -3.25577e-19)
(0.936017 0.352364 6.34494e-20)
(0.936161 0.352135 -1.12697e-19)
(0.936353 0.351878 -4.24811e-20)
(0.936578 0.351616 3.71398e-19)
(0.936812 0.351373 -9.53671e-19)
(0.937041 0.351158 -4.16472e-20)
(0.937256 0.350957 -5.05733e-19)
(0.937455 0.350761 -2.52635e-19)
(0.937634 0.350582 7.58231e-20)
(0.93778 0.350445 -8.45205e-19)
(0.937874 0.35036 1.33334e-18)
(0.937895 0.350327 2.10648e-19)
(0.937786 0.350357 1.55383e-18)
(0.937524 0.350345 -1.16338e-18)
(0.937138 0.350178 -7.96973e-19)
(0.936638 0.34978 -3.38347e-19)
(0.936041 0.349027 1.92954e-18)
(0.93537 0.347807 2.98004e-18)
(0.93467 0.346017 7.74465e-19)
(0.93397 0.343666 1.4502e-18)
(0.933304 0.340886 -2.33613e-18)
(0.932646 0.337956 1.36508e-17)
(0.931912 0.335365 3.66905e-18)
(0.931012 0.333407 -3.56676e-18)
(0.929787 0.332169 1.91773e-18)
(0.928331 0.331361 1.35055e-17)
(0.926836 0.32995 -1.24623e-18)
(0.925529 0.326754 -1.32614e-17)
(0.925303 0.319656 -3.2129e-17)
(0.922959 0.309072 2.90637e-17)
(0.928201 0.292639 -1.71248e-17)
(0.904312 0.262428 1.43499e-17)
(0.935104 0.362855 -3.34993e-21)
(0.934913 0.362697 1.35864e-20)
(0.934844 0.36252 -2.25162e-20)
(0.934909 0.362306 1.69419e-20)
(0.935115 0.362037 1.09377e-20)
(0.935456 0.361711 -1.18595e-20)
(0.935913 0.361329 9.87562e-22)
(0.936462 0.360895 -9.04886e-21)
(0.937067 0.360415 -3.09526e-20)
(0.937689 0.359899 6.03407e-20)
(0.938286 0.359358 -9.53019e-20)
(0.938818 0.358809 8.51748e-20)
(0.93925 0.358267 7.69511e-20)
(0.939557 0.357747 -1.21081e-19)
(0.939721 0.357263 -4.08752e-20)
(0.93974 0.356827 1.56801e-19)
(0.939616 0.356447 -1.9491e-19)
(0.939366 0.35613 2.76787e-19)
(0.939014 0.35587 -5.26723e-20)
(0.938586 0.355671 3.21723e-20)
(0.938113 0.355517 -5.12517e-20)
(0.937625 0.355405 -6.65031e-20)
(0.937149 0.355316 -1.31148e-19)
(0.93671 0.355244 2.28386e-19)
(0.936326 0.35517 -1.59987e-19)
(0.936012 0.355087 -1.60971e-19)
(0.935778 0.354976 3.37535e-19)
(0.935628 0.354834 -3.25174e-19)
(0.935565 0.354649 5.39637e-19)
(0.935584 0.35443 -2.90667e-19)
(0.935676 0.354185 2.28914e-19)
(0.935826 0.353936 -3.86072e-19)
(0.93601 0.353709 4.31692e-19)
(0.936213 0.353502 -3.6141e-20)
(0.936421 0.353294 -2.22451e-20)
(0.936631 0.353068 -9.42336e-21)
(0.936834 0.352838 -2.40804e-19)
(0.937013 0.352629 7.44056e-19)
(0.937144 0.352448 -5.95932e-19)
(0.937202 0.352295 -3.48205e-18)
(0.93712 0.352171 -1.50838e-18)
(0.936849 0.351975 1.11123e-18)
(0.936423 0.351594 -1.22101e-18)
(0.935854 0.350965 -1.45831e-18)
(0.935144 0.349974 -1.37714e-19)
(0.934301 0.348518 4.01719e-18)
(0.93335 0.346497 -6.32215e-18)
(0.932298 0.343913 -6.9401e-18)
(0.931165 0.340872 -5.10359e-18)
(0.929924 0.337592 -9.24795e-18)
(0.928513 0.334496 6.44542e-18)
(0.926911 0.331776 -2.58375e-18)
(0.925065 0.32945 -2.25284e-17)
(0.9232 0.327243 4.8929e-18)
(0.921634 0.324199 6.4334e-18)
(0.920629 0.319299 -1.30107e-17)
(0.921263 0.310671 8.29293e-18)
(0.919686 0.298596 8.7335e-18)
(0.925743 0.281774 2.78766e-17)
(0.90688 0.249452 -2.23071e-19)
(0.934468 0.367789 3.67842e-21)
(0.934006 0.367699 -1.66737e-20)
(0.933621 0.367603 8.25809e-21)
(0.933336 0.367485 1.53009e-20)
(0.933177 0.367321 -3.30367e-20)
(0.933161 0.367106 2.79729e-20)
(0.933295 0.366834 -1.87101e-20)
(0.933578 0.366501 1.6093e-20)
(0.933998 0.366101 2.57121e-20)
(0.934532 0.365637 -6.29915e-20)
(0.935149 0.365112 9.21367e-20)
(0.935809 0.364532 3.95637e-20)
(0.936469 0.36391 -1.61034e-19)
(0.937089 0.363258 -3.04191e-20)
(0.93763 0.362593 8.91934e-20)
(0.938063 0.361932 5.90646e-20)
(0.938364 0.36129 -7.27608e-20)
(0.938525 0.360682 6.67818e-20)
(0.938546 0.360119 1.05592e-19)
(0.938438 0.35961 -5.17069e-20)
(0.938218 0.359156 -3.07331e-20)
(0.937914 0.358761 1.14488e-19)
(0.937552 0.358417 2.43577e-19)
(0.93716 0.358119 -1.78808e-19)
(0.936768 0.357854 -2.06074e-19)
(0.9364 0.357615 2.34393e-19)
(0.936076 0.357382 -1.85175e-19)
(0.935813 0.357144 -8.14358e-20)
(0.935622 0.356885 6.61664e-19)
(0.93551 0.356609 -2.93114e-19)
(0.935473 0.356324 -2.37852e-19)
(0.935505 0.356051 3.25065e-19)
(0.935587 0.355813 2.29087e-19)
(0.935707 0.355603 -1.96453e-19)
(0.935851 0.355384 -1.41816e-19)
(0.936013 0.355137 4.72543e-19)
(0.936183 0.354874 1.22146e-19)
(0.936338 0.354619 1.61865e-19)
(0.936453 0.354378 -9.23363e-19)
(0.936498 0.354149 -9.19705e-19)
(0.936402 0.353923 1.87969e-18)
(0.9361 0.353616 1.55182e-18)
(0.935622 0.353116 2.70185e-18)
(0.934985 0.352378 -2.48394e-18)
(0.934181 0.351298 -2.88317e-18)
(0.933205 0.349783 -2.13372e-18)
(0.932063 0.347731 5.56478e-18)
(0.930746 0.345131 5.81103e-18)
(0.929258 0.342046 -7.14034e-18)
(0.927574 0.338619 -1.11452e-17)
(0.925648 0.335181 -2.49579e-18)
(0.92352 0.331818 2.57356e-18)
(0.921225 0.328469 3.46816e-19)
(0.919092 0.324869 -8.42944e-18)
(0.91754 0.320168 7.58339e-18)
(0.916861 0.313541 4.44302e-18)
(0.918294 0.303472 6.52488e-18)
(0.91758 0.290191 -2.61783e-17)
(0.923937 0.273298 -1.77595e-18)
(0.911282 0.241973 7.89456e-20)
(0.934385 0.371332 -5.85837e-21)
(0.933794 0.371288 -4.65198e-21)
(0.933227 0.37125 6.50046e-21)
(0.932708 0.371206 2.28362e-20)
(0.932267 0.371133 -4.95663e-20)
(0.931929 0.371027 5.71582e-20)
(0.931719 0.370879 -2.80483e-21)
(0.931655 0.37068 -3.77878e-21)
(0.931746 0.370422 -2.0946e-20)
(0.931994 0.370097 5.08474e-20)
(0.932389 0.3697 -7.96519e-20)
(0.932908 0.36923 3.0557e-20)
(0.933523 0.368689 -9.28544e-22)
(0.934196 0.368084 4.90677e-20)
(0.934886 0.367423 2.37101e-20)
(0.935551 0.36672 -1.28354e-19)
(0.936154 0.36599 1.13718e-19)
(0.936662 0.365252 4.61253e-20)
(0.937054 0.364519 -1.35757e-19)
(0.937317 0.36381 6.74469e-20)
(0.937448 0.363133 3.28511e-20)
(0.937457 0.362503 -2.27584e-20)
(0.937359 0.36192 2.95873e-20)
(0.937175 0.36139 -1.7366e-20)
(0.936931 0.360908 -2.01666e-19)
(0.936653 0.360471 1.37983e-19)
(0.936366 0.36006 -2.17368e-19)
(0.936093 0.359669 4.0272e-19)
(0.935855 0.359277 -8.44197e-20)
(0.935665 0.358889 -4.66712e-20)
(0.935532 0.358513 -1.37638e-20)
(0.935457 0.358174 4.90837e-19)
(0.935433 0.357889 -1.98077e-19)
(0.93545 0.357643 -1.092e-19)
(0.935499 0.357393 3.35924e-19)
(0.935577 0.357113 2.95667e-19)
(0.93567 0.356815 -5.1005e-19)
(0.935755 0.356522 9.42255e-20)
(0.935808 0.356238 1.08691e-18)
(0.935797 0.355959 -5.89746e-20)
(0.935657 0.355673 7.25742e-19)
(0.935309 0.35531 -1.11883e-18)
(0.934782 0.354769 1.65671e-18)
(0.9341 0.354018 3.88644e-18)
(0.933249 0.352966 1.30381e-18)
(0.932213 0.351532 -1.67295e-18)
(0.930991 0.349613 -5.6174e-18)
(0.929556 0.34718 9.13853e-19)
(0.927904 0.344256 2.21889e-18)
(0.926011 0.340906 5.49142e-18)
(0.923839 0.337374 -1.00376e-18)
(0.921473 0.333645 -1.0284e-17)
(0.919007 0.32959 9.4753e-18)
(0.916841 0.324953 -6.7686e-18)
(0.915453 0.31899 1.3383e-17)
(0.91514 0.311077 3.57468e-18)
(0.91725 0.300082 1.54431e-17)
(0.917325 0.286266 2.03735e-17)
(0.923548 0.270016 2.76189e-18)
(0.917787 0.242067 3.28461e-18)
(0.934581 0.37403 -2.72795e-21)
(0.933958 0.374009 2.37078e-21)
(0.93332 0.374002 1.18815e-20)
(0.932686 0.374 1.87998e-20)
(0.932082 0.373982 -5.64294e-20)
(0.931532 0.373946 3.273e-20)
(0.931063 0.373886 -5.85733e-20)
(0.930702 0.373792 9.26052e-20)
(0.930471 0.373654 -4.38598e-20)
(0.93039 0.373463 7.74527e-21)
(0.930468 0.373209 8.51255e-20)
(0.930704 0.372885 -1.96383e-19)
(0.931089 0.372484 1.35483e-19)
(0.931603 0.372006 1.90181e-20)
(0.932215 0.37145 3.0944e-20)
(0.932891 0.370824 -1.33534e-19)
(0.933589 0.370136 6.66411e-20)
(0.93427 0.3694 -8.40907e-20)
(0.934899 0.36863 1.68259e-19)
(0.935445 0.367846 -2.1982e-20)
(0.935886 0.367058 -2.221e-19)
(0.936211 0.366288 9.16658e-20)
(0.936419 0.365543 -5.08898e-21)
(0.936513 0.364836 -3.5343e-19)
(0.93651 0.364171 2.67178e-19)
(0.936426 0.363551 2.05831e-19)
(0.936284 0.362964 1.43073e-19)
(0.936106 0.362407 -1.95975e-19)
(0.935915 0.361861 -2.26881e-19)
(0.935731 0.361336 1.0926e-19)
(0.935569 0.360841 1.55723e-19)
(0.93544 0.360404 -2.08113e-19)
(0.935343 0.36004 -3.14394e-19)
(0.935276 0.359731 6.72445e-19)
(0.935238 0.359425 8.35528e-20)
(0.935226 0.359094 -1.09444e-18)
(0.935228 0.35875 1.08905e-19)
(0.935224 0.358416 7.75724e-19)
(0.935191 0.358094 5.69126e-20)
(0.935101 0.35778 1.12593e-18)
(0.934899 0.357459 -1.65674e-18)
(0.934501 0.357077 -1.01017e-19)
(0.933936 0.356546 -1.14495e-18)
(0.933233 0.355842 3.41928e-19)
(0.932378 0.354887 2.01244e-18)
(0.931348 0.353614 6.19822e-18)
(0.930138 0.351915 1.26091e-18)
(0.928713 0.34975 -4.83745e-18)
(0.927063 0.347102 3.78984e-18)
(0.925168 0.343969 1.51989e-17)
(0.922993 0.34052 -1.31501e-17)
(0.920649 0.336655 1.68494e-17)
(0.918267 0.332192 -1.12886e-17)
(0.916276 0.326885 -5.3902e-18)
(0.915183 0.320093 -2.67171e-17)
(0.915264 0.311361 -1.39582e-18)
(0.917918 0.299924 -9.12879e-18)
(0.918647 0.286102 -9.37459e-18)
(0.924464 0.270922 4.8211e-18)
(0.925347 0.246947 -1.10709e-18)
(0.934863 0.376175 3.66936e-21)
(0.934258 0.376162 1.26684e-21)
(0.933617 0.376167 -1.34724e-20)
(0.932952 0.376183 1.29422e-20)
(0.932281 0.376192 -5.77781e-21)
(0.931622 0.376195 1.03423e-20)
(0.930999 0.376186 3.48675e-21)
(0.930438 0.376159 -5.24047e-20)
(0.929965 0.376105 2.32086e-20)
(0.929608 0.376014 -1.55151e-20)
(0.929386 0.375877 9.8692e-21)
(0.929316 0.375682 3.7664e-20)
(0.929406 0.375422 -7.17931e-21)
(0.929654 0.375086 2.32352e-20)
(0.930048 0.374671 -9.95262e-20)
(0.930567 0.374175 3.92284e-20)
(0.93118 0.373599 1.75032e-20)
(0.931852 0.372951 -4.7283e-20)
(0.932547 0.372239 9.54785e-20)
(0.933226 0.371479 3.19204e-20)
(0.933856 0.370682 -3.44987e-21)
(0.934412 0.369869 -3.45809e-20)
(0.934873 0.369049 1.46613e-19)
(0.935228 0.368243 -4.1188e-19)
(0.935478 0.367458 2.14929e-19)
(0.935626 0.366705 9.31979e-20)
(0.935684 0.365977 -1.66064e-19)
(0.935669 0.365276 2.99427e-19)
(0.935599 0.364589 -1.48714e-19)
(0.935495 0.363929 -8.0098e-20)
(0.935376 0.363311 -1.7343e-19)
(0.935255 0.362764 -6.59449e-20)
(0.935139 0.362306 1.97996e-19)
(0.935032 0.361913 -6.25292e-19)
(0.934936 0.361534 1.2115e-18)
(0.934855 0.361136 -7.64185e-20)
(0.934778 0.360735 6.86195e-19)
(0.934691 0.360353 -1.78121e-18)
(0.934574 0.35999 -5.98901e-19)
(0.934402 0.359645 -2.7277e-20)
(0.934136 0.359301 -4.47478e-19)
(0.933694 0.358919 -5.99163e-20)
(0.933102 0.35842 -1.74398e-18)
(0.932396 0.357787 4.51329e-19)
(0.931564 0.356951 8.55326e-19)
(0.930581 0.355856 -5.60246e-18)
(0.929441 0.354392 7.2349e-18)
(0.928105 0.352507 1.20142e-18)
(0.926565 0.350151 -1.04445e-19)
(0.924805 0.347267 -9.32031e-18)
(0.922789 0.343965 4.20143e-18)
(0.920645 0.340082 -8.6723e-18)
(0.91852 0.335398 1.54745e-17)
(0.916848 0.329677 4.87693e-18)
(0.916133 0.322373 -1.19207e-17)
(0.916617 0.313163 5.30548e-18)
(0.919699 0.301596 -1.44042e-17)
(0.920956 0.288051 -2.59824e-18)
(0.926235 0.274013 -1.99798e-17)
(0.932789 0.253485 -5.74042e-18)
(0.935163 0.377962 -7.89708e-22)
(0.934596 0.37795 -3.11968e-21)
(0.933983 0.377957 -2.71383e-21)
(0.933332 0.377978 2.66101e-20)
(0.932652 0.377996 -1.49645e-20)
(0.931957 0.378014 -1.79726e-20)
(0.931264 0.378028 -6.69389e-21)
(0.930593 0.378036 -2.793e-20)
(0.929968 0.37803 1.80726e-20)
(0.929416 0.378004 2.83912e-21)
(0.928963 0.377947 1.16201e-21)
(0.928632 0.377849 7.73711e-20)
(0.928442 0.377701 -5.55673e-20)
(0.928407 0.377492 -6.79073e-21)
(0.92853 0.377211 6.4369e-20)
(0.928807 0.376853 -3.60397e-20)
(0.929222 0.376412 -1.37391e-20)
(0.929752 0.375891 2.28579e-20)
(0.930368 0.375289 7.34829e-20)
(0.931034 0.374617 4.0234e-20)
(0.931715 0.373883 1.44775e-20)
(0.932377 0.373102 -1.06029e-19)
(0.932991 0.372287 5.39057e-20)
(0.933533 0.371456 1.0725e-19)
(0.933988 0.370621 -2.25945e-19)
(0.934345 0.369795 7.34072e-20)
(0.934605 0.368977 -3.00242e-19)
(0.934772 0.368174 2.49603e-19)
(0.93486 0.367378 2.26743e-19)
(0.934883 0.366606 -3.61433e-19)
(0.934859 0.365879 -1.73002e-19)
(0.934801 0.365229 2.42938e-19)
(0.934718 0.364676 8.36815e-20)
(0.934617 0.364194 -2.50378e-19)
(0.934505 0.363732 -3.18136e-19)
(0.934388 0.363259 -3.97604e-19)
(0.934262 0.362791 2.51387e-19)
(0.934112 0.362353 6.42328e-19)
(0.933928 0.361945 2.31833e-19)
(0.933688 0.361565 -2.47977e-19)
(0.933368 0.3612 2.59546e-18)
(0.932893 0.36082 -2.21833e-19)
(0.932286 0.360354 2.85661e-18)
(0.931589 0.359786 -5.20302e-18)
(0.930793 0.359054 6.7288e-19)
(0.929872 0.358109 2.05551e-19)
(0.928824 0.356839 -7.60573e-19)
(0.927613 0.355182 -4.48488e-18)
(0.926232 0.353059 -8.11319e-18)
(0.924676 0.350375 7.62158e-18)
(0.922906 0.347193 1.06199e-17)
(0.921058 0.34331 5.56428e-18)
(0.919285 0.338479 -1.37779e-17)
(0.918005 0.332481 7.53701e-18)
(0.917706 0.324853 2.05852e-17)
(0.918584 0.315367 5.95586e-18)
(0.922005 0.303829 1.40402e-17)
(0.923687 0.290655 6.12565e-18)
(0.928403 0.277605 1.48937e-17)
(0.939311 0.259601 -8.85061e-18)
(0.93545 0.379471 9.94882e-22)
(0.934927 0.379455 -3.0117e-21)
(0.934355 0.37946 1.08285e-20)
(0.933738 0.379479 2.81296e-21)
(0.933082 0.379497 -1.51632e-20)
(0.932394 0.379519 -1.75167e-20)
(0.931685 0.379542 4.19808e-20)
(0.930969 0.379565 -4.6166e-20)
(0.930266 0.379584 -1.12146e-20)
(0.929599 0.379593 2.9114e-20)
(0.92899 0.379586 2.69521e-20)
(0.928466 0.379553 8.21672e-20)
(0.928051 0.379486 -4.76012e-20)
(0.927767 0.379374 -8.11552e-20)
(0.927629 0.379206 1.81135e-20)
(0.927646 0.378972 -6.66512e-20)
(0.927816 0.378663 5.12441e-20)
(0.928131 0.378275 -8.52821e-20)
(0.928574 0.377804 1.49759e-20)
(0.929118 0.377252 -2.7498e-20)
(0.929732 0.376623 -1.70864e-20)
(0.930385 0.375928 -7.91043e-20)
(0.931042 0.375174 8.33788e-21)
(0.931673 0.374379 1.77531e-19)
(0.932252 0.373554 -6.08792e-20)
(0.932759 0.372714 1.99927e-20)
(0.933182 0.371861 5.71401e-20)
(0.933514 0.371004 -7.93133e-20)
(0.933759 0.37014 -1.67193e-20)
(0.933924 0.369292 1.17743e-19)
(0.93402 0.368481 1.37225e-19)
(0.934059 0.367748 -1.07677e-19)
(0.934046 0.367109 -3.42791e-19)
(0.93399 0.366543 -4.98515e-19)
(0.9339 0.365999 8.11565e-19)
(0.933785 0.365449 2.2218e-19)
(0.933641 0.364912 1.38727e-19)
(0.93346 0.364413 7.68945e-19)
(0.933234 0.363953 -7.61973e-19)
(0.932949 0.363534 4.8402e-19)
(0.932594 0.363141 -2.63445e-20)
(0.9321 0.362755 8.25543e-20)
(0.931488 0.362307 -1.03188e-18)
(0.930804 0.361778 2.30834e-18)
(0.930045 0.36111 -3.01192e-18)
(0.929185 0.360259 1.81836e-18)
(0.92823 0.35911 -5.47546e-18)
(0.927146 0.357591 1.96391e-18)
(0.925934 0.355605 4.10403e-18)
(0.924602 0.353023 -7.15908e-18)
(0.923105 0.349881 -2.88301e-18)
(0.921587 0.345952 -1.51399e-18)
(0.920197 0.340974 -1.36551e-18)
(0.919331 0.33475 -6.2594e-18)
(0.919445 0.326889 6.68142e-19)
(0.920696 0.317228 3.3772e-18)
(0.924391 0.305773 -5.302e-18)
(0.926423 0.292962 -1.60236e-18)
(0.930611 0.280653 -2.92052e-18)
(0.944544 0.264299 5.55754e-18)
(0.935698 0.380792 1.81999e-21)
(0.935218 0.380773 -1.55529e-21)
(0.934689 0.380776 1.42927e-21)
(0.934115 0.380793 9.25397e-21)
(0.933497 0.380807 1.35462e-20)
(0.93284 0.380826 -5.35928e-20)
(0.932148 0.380849 3.91695e-20)
(0.931431 0.380875 8.14206e-21)
(0.930702 0.380902 -2.61149e-21)
(0.929979 0.380926 -1.81781e-20)
(0.929283 0.380944 5.58321e-20)
(0.928635 0.380948 -1.87598e-20)
(0.92806 0.380932 -2.58659e-20)
(0.927583 0.380886 -7.69177e-20)
(0.927227 0.380799 1.55449e-19)
(0.927008 0.380661 -3.32361e-20)
(0.926936 0.380462 -2.78499e-20)
(0.927015 0.380194 -8.15625e-20)
(0.927241 0.379849 9.12062e-20)
(0.927599 0.379424 5.03711e-20)
(0.928067 0.378917 -2.38032e-20)
(0.92862 0.378334 4.02156e-20)
(0.929226 0.377678 -1.7442e-19)
(0.929853 0.376962 1.26273e-20)
(0.930473 0.376194 9.9158e-20)
(0.931055 0.375389 -1.92626e-20)
(0.931581 0.37455 -3.11382e-19)
(0.932034 0.373686 2.81447e-20)
(0.932408 0.372798 2.88247e-19)
(0.932702 0.37191 -7.73378e-20)
(0.932921 0.37105 -1.57759e-19)
(0.933067 0.370256 9.03379e-20)
(0.933145 0.369552 2.88072e-19)
(0.933159 0.368916 7.10478e-19)
(0.93312 0.368299 -1.16664e-19)
(0.933036 0.367677 1.53604e-19)
(0.932905 0.367072 -1.24541e-18)
(0.932723 0.36651 -3.98071e-19)
(0.932484 0.365995 2.56323e-19)
(0.932178 0.36553 -1.08204e-18)
(0.931809 0.365098 -2.70861e-19)
(0.931311 0.364693 5.5143e-19)
(0.930702 0.364238 3.84379e-19)
(0.930032 0.363712 1.18428e-18)
(0.929305 0.363057 4.08289e-18)
(0.928497 0.362233 -3.27359e-18)
(0.927621 0.361119 5.22454e-18)
(0.926649 0.359639 4.18929e-18)
(0.925594 0.357678 5.70885e-20)
(0.924474 0.355088 5.60232e-18)
(0.923245 0.351888 -8.3742e-18)
(0.922049 0.34784 -1.02579e-17)
(0.921033 0.342681 8.20342e-18)
(0.920565 0.336234 7.17117e-18)
(0.921067 0.328173 -2.58625e-18)
(0.92266 0.318382 -1.75822e-17)
(0.92658 0.307012 4.44429e-18)
(0.928902 0.294514 -2.97724e-18)
(0.93263 0.2827 -4.56695e-18)
(0.948449 0.267329 2.26717e-18)
(0.935893 0.381944 -1.92902e-21)
(0.935451 0.381923 2.13611e-21)
(0.934963 0.381923 1.46667e-20)
(0.934431 0.381937 -1.93704e-20)
(0.933856 0.381948 3.55073e-20)
(0.933239 0.381963 -5.27555e-20)
(0.932581 0.381983 1.51276e-20)
(0.931888 0.382007 -7.00907e-22)
(0.931169 0.382034 3.40482e-20)
(0.930434 0.382063 -1.82101e-20)
(0.929701 0.382091 5.34708e-21)
(0.928986 0.382114 5.50589e-21)
(0.928313 0.382126 -8.80207e-20)
(0.927704 0.382121 2.71067e-20)
(0.927184 0.382089 6.21412e-20)
(0.926774 0.382022 1.66458e-21)
(0.926492 0.381908 -1.04723e-19)
(0.92635 0.381739 4.35543e-20)
(0.926355 0.381503 2.01264e-19)
(0.926503 0.381196 -1.3376e-19)
(0.926783 0.38081 -1.00959e-19)
(0.92718 0.380347 8.6475e-20)
(0.927667 0.379804 5.51241e-20)
(0.928217 0.379191 6.15672e-20)
(0.928801 0.378512 -1.21483e-19)
(0.929388 0.377778 -2.63192e-19)
(0.929952 0.376991 2.023e-19)
(0.930471 0.376161 2.91979e-19)
(0.930932 0.375287 8.11136e-20)
(0.931325 0.374397 -1.60564e-19)
(0.931647 0.373518 7.75542e-20)
(0.931895 0.372695 1.29258e-19)
(0.932064 0.371948 -2.32513e-19)
(0.932159 0.37126 -4.10547e-20)
(0.932187 0.370586 -4.49124e-19)
(0.932155 0.369902 -1.37504e-19)
(0.932061 0.369235 -1.1874e-19)
(0.931901 0.368612 3.5723e-19)
(0.931674 0.36804 -4.96839e-19)
(0.931372 0.367523 1.64286e-19)
(0.931009 0.367043 2.49173e-19)
(0.93052 0.3666 6.06143e-20)
(0.929921 0.36611 -1.73868e-18)
(0.929264 0.365548 -2.38971e-18)
(0.928562 0.364853 -2.19675e-18)
(0.927792 0.363988 4.14854e-18)
(0.926978 0.362828 -2.33659e-19)
(0.926097 0.361291 -1.80302e-18)
(0.925174 0.359252 9.01267e-19)
(0.924242 0.356551 -5.96275e-18)
(0.923254 0.3532 3.09011e-18)
(0.922351 0.348962 8.48092e-18)
(0.921676 0.343577 -1.19381e-18)
(0.92157 0.336894 -7.63063e-18)
(0.922418 0.328643 3.93363e-18)
(0.924316 0.318735 3.74358e-18)
(0.928423 0.307433 3.61717e-18)
(0.930986 0.295191 7.12979e-18)
(0.934329 0.28367 4.8288e-18)
(0.95116 0.268838 -4.92655e-18)
(0.93606 0.382984 -1.61084e-21)
(0.935649 0.382959 2.35141e-21)
(0.935195 0.382956 4.93306e-22)
(0.9347 0.382965 9.11836e-21)
(0.934166 0.382971 -1.39954e-20)
(0.933589 0.38298 -2.89446e-20)
(0.932971 0.382994 1.054e-20)
(0.932312 0.383012 -1.39807e-20)
(0.93162 0.383034 3.09782e-20)
(0.9309 0.38306 -6.26654e-21)
(0.930163 0.383089 -2.07545e-20)
(0.929423 0.383118 1.75483e-20)
(0.928698 0.383143 2.84587e-20)
(0.928009 0.38316 7.8718e-20)
(0.927379 0.383161 -1.44956e-19)
(0.926828 0.38314 7.45105e-20)
(0.926379 0.383085 1.10135e-20)
(0.92605 0.38299 -7.42631e-20)
(0.925854 0.382842 -4.59527e-20)
(0.925797 0.382635 1.52874e-19)
(0.925879 0.382358 -1.6058e-19)
(0.926093 0.382009 4.9176e-20)
(0.926422 0.381581 -1.29266e-19)
(0.926845 0.38108 2.1907e-19)
(0.927336 0.380505 -4.47743e-20)
(0.927866 0.379865 -1.24618e-19)
(0.92841 0.379157 1.02259e-19)
(0.928941 0.37839 1.92022e-19)
(0.92944 0.377562 -1.83665e-19)
(0.929894 0.376701 1.14747e-19)
(0.930289 0.375836 -3.93141e-19)
(0.930617 0.375008 -4.55821e-20)
(0.930868 0.374244 1.78376e-19)
(0.93104 0.373525 -1.06968e-19)
(0.931138 0.37281 -2.23842e-19)
(0.931168 0.372078 -5.59939e-19)
(0.931125 0.371358 7.38958e-19)
(0.931007 0.370679 -2.89422e-19)
(0.93081 0.370051 2.45342e-19)
(0.930532 0.369478 4.96643e-19)
(0.93019 0.368942 3.84731e-19)
(0.929721 0.368443 -2.58954e-19)
(0.929136 0.367892 9.36807e-19)
(0.92849 0.367257 1.75083e-18)
(0.927805 0.366474 -1.73346e-19)
(0.927062 0.365509 -2.37559e-18)
(0.926292 0.364233 -3.21301e-18)
(0.925481 0.36256 -2.53444e-19)
(0.924666 0.360358 2.14495e-18)
(0.923892 0.357464 -9.14907e-20)
(0.92311 0.353887 3.98772e-18)
(0.922461 0.349403 -6.96597e-18)
(0.922084 0.343758 -3.94619e-18)
(0.922293 0.336824 -7.37019e-19)
(0.923439 0.328386 -2.94233e-18)
(0.925601 0.318369 1.85887e-18)
(0.92986 0.307117 -2.61021e-18)
(0.932618 0.295083 -7.3166e-18)
(0.93565 0.283706 -6.0377e-18)
(0.9529 0.269153 1.94312e-18)
(0.936212 0.383916 -2.39451e-21)
(0.935826 0.383887 1.95144e-21)
(0.935401 0.383881 1.55667e-21)
(0.934939 0.383885 -1.12487e-20)
(0.934439 0.383885 1.17359e-20)
(0.9339 0.383889 -5.84703e-21)
(0.933319 0.383896 1.92144e-20)
(0.932698 0.383908 -2.88946e-20)
(0.932039 0.383923 1.71228e-21)
(0.931346 0.383944 2.32559e-21)
(0.930625 0.383968 -2.18984e-20)
(0.929887 0.383995 6.18527e-20)