/*--------------------------------*- C++ -*----------------------------------*\
  =========                 |
  \\      /  F ield         | OpenFOAM: The Open Source CFD Toolbox
   \\    /   O peration     | Website:  https://openfoam.org
    \\  /    A nd           | Version:  6.0
     \\/     M anipulation  |
\*---------------------------------------------------------------------------*/
FoamFile
{
    version     2.0;
    format      ascii;
    class       surfaceScalarField;
    location    "3.22";
    object      phi;
}
// * * * * * * * * * * * * * * * * * * * * * * * * * * * * * * * * * * * * * //

dimensions      [0 3 -1 0 0 0 0];

internalField   nonuniform List<scalar> 
26699
(
2.0051e-05
0.005201
5.5528e-10
4.0126e-05
0.0051116
5.9639e-05
0.0049351
7.8187e-05
0.0046741
9.5416e-05
0.0043332
0.00011102
0.0039182
0.00012471
0.0034362
0.00013626
0.0028953
0.00014546
0.002305
0.00015181
0.0016755
0.00015717
0.0010154
0.00046502
3.4357e-05
2.0051e-05
0.0051809
1.7114e-09
4.0127e-05
0.0050916
5.9641e-05
0.0049155
7.819e-05
0.0046556
9.5418e-05
0.004316
0.00011102
0.0039026
0.00012471
0.0034225
0.00013625
0.0028838
0.00014545
0.0022958
0.00015106
0.0016699
0.0001589
0.0010076
0.00055902
6.4897e-05
2.0051e-05
0.0051609
2.9387e-09
4.0128e-05
0.0050715
5.9643e-05
0.004896
7.8193e-05
0.004637
9.5421e-05
0.0042988
0.00011103
0.003887
0.00012471
0.0034088
0.00013623
0.0028723
0.00014546
0.0022865
0.00015029
0.0016651
0.00016016
0.0009977
0.00062916
9.0017e-05
2.0051e-05
0.0051408
4.18e-09
4.013e-05
0.0050514
5.9645e-05
0.0048765
7.8196e-05
0.0046185
9.5424e-05
0.0042815
0.00011103
0.0038714
0.0001247
0.0033951
0.0001362
0.0028608
0.00014551
0.0022772
0.00014955
0.001661
0.00016089
0.00098636
0.00067984
0.00011021
2.0051e-05
0.0051208
5.4239e-09
4.0131e-05
0.0050313
5.9648e-05
0.004857
7.8199e-05
0.0045999
9.5427e-05
0.0042643
0.00011103
0.0038558
0.0001247
0.0033815
0.00013618
0.0028493
0.00014557
0.0022678
0.00014886
0.0016577
0.00016109
0.00097413
0.00071469
0.00012624
2.0051e-05
0.0051007
6.67e-09
4.0132e-05
0.0050112
5.965e-05
0.0048375
7.8202e-05
0.0045814
9.543e-05
0.0042471
0.00011103
0.0038402
0.0001247
0.0033678
0.00013615
0.0028379
0.00014567
0.0022583
0.00014823
0.0016552
0.00016085
0.00096152
0.00073674
0.0001388
2.0051e-05
0.0050807
7.9184e-09
4.0133e-05
0.0049912
5.9653e-05
0.004818
7.8205e-05
0.0045628
9.5434e-05
0.0042299
0.00011103
0.0038246
0.0001247
0.0033541
0.00013611
0.0028264
0.00014578
0.0022486
0.0001477
0.0016532
0.00016024
0.00094898
0.00074854
0.00014843
2.0051e-05
0.0050606
9.1692e-09
4.0134e-05
0.0049711
5.9655e-05
0.0047984
7.8208e-05
0.0045443
9.5437e-05
0.0042126
0.00011103
0.003809
0.0001247
0.0033405
0.00013608
0.0028151
0.0001459
0.0022388
0.00014726
0.0016519
0.00015936
0.00093687
0.00075226
0.00015564
2.0051e-05
0.0050405
1.0422e-08
4.0136e-05
0.004951
5.9657e-05
0.0047789
7.8211e-05
0.0045257
9.544e-05
0.0041954
0.00011104
0.0037934
0.0001247
0.0033268
0.00013604
0.0028037
0.00014603
0.0022288
0.00014693
0.001651
0.0001583
0.0009255
0.00074972
0.00016084
2.0051e-05
0.0050205
1.1678e-08
4.0137e-05
0.0049309
5.966e-05
0.0047594
7.8214e-05
0.0045071
9.5444e-05
0.0041782
0.00011104
0.0037778
0.0001247
0.0033131
0.00013599
0.0027924
0.00014617
0.0022186
0.0001467
0.0016505
0.00015713
0.00091507
0.00074242
0.00016443
2.0051e-05
0.0050004
1.2936e-08
4.0138e-05
0.0049108
5.9662e-05
0.0047399
7.8217e-05
0.0044886
9.5447e-05
0.0041609
0.00011104
0.0037622
0.0001247
0.0032995
0.00013594
0.0027812
0.00014631
0.0022083
0.00014659
0.0016502
0.00015592
0.00090574
0.00073163
0.00016672
2.0051e-05
0.0049803
1.4196e-08
4.0139e-05
0.0048907
5.9664e-05
0.0047203
7.822e-05
0.00447
9.5451e-05
0.0041437
0.00011104
0.0037466
0.00012471
0.0032858
0.00013589
0.00277
0.00014645
0.0021977
0.00014658
0.0016501
0.00015473
0.00089759
0.00071836
0.000168
2.0051e-05
0.0049603
1.546e-08
4.0141e-05
0.0048706
5.9667e-05
0.0047008
7.8224e-05
0.0044515
9.5454e-05
0.0041265
0.00011104
0.003731
0.00012472
0.0032721
0.00013583
0.0027589
0.00014658
0.002187
0.00014666
0.00165
0.00015359
0.00089066
0.00070346
0.00016849
2.0051e-05
0.0049402
1.6725e-08
4.0142e-05
0.0048506
5.9669e-05
0.0046813
7.8227e-05
0.0044329
9.5458e-05
0.0041092
0.00011105
0.0037154
0.00012473
0.0032585
0.00013577
0.0027478
0.0001467
0.002176
0.00014684
0.0016498
0.00015254
0.00088496
0.0006876
0.0001684
2.0051e-05
0.0049201
1.7994e-08
4.0143e-05
0.0048305
5.9672e-05
0.0046618
7.823e-05
0.0044144
9.5462e-05
0.004092
0.00011105
0.0036999
0.00012474
0.0032448
0.00013571
0.0027369
0.00014681
0.0021649
0.00014709
0.0016495
0.0001516
0.00088045
0.00067131
0.00016789
2.0051e-05
0.0049001
1.9265e-08
4.0144e-05
0.0048104
5.9674e-05
0.0046422
7.8233e-05
0.0043958
9.5465e-05
0.0040748
0.00011105
0.0036843
0.00012475
0.0032311
0.00013564
0.002726
0.0001469
0.0021537
0.0001474
0.001649
0.00015079
0.00087707
0.00065501
0.00016709
2.0051e-05
0.00488
2.0539e-08
4.0146e-05
0.0047903
5.9676e-05
0.0046227
7.8236e-05
0.0043772
9.5469e-05
0.0040576
0.00011105
0.0036687
0.00012476
0.0032174
0.00013557
0.0027152
0.00014698
0.0021423
0.00014777
0.0016483
0.00015011
0.00087473
0.00063902
0.0001661
2.0051e-05
0.0048599
2.1815e-08
4.0147e-05
0.0047702
5.9679e-05
0.0046032
7.8239e-05
0.0043587
9.5473e-05
0.0040403
0.00011105
0.0036531
0.00012478
0.0032036
0.0001355
0.0027044
0.00014704
0.0021307
0.00014819
0.0016471
0.00014957
0.00087334
0.00062358
0.00016501
2.0051e-05
0.0048399
2.3095e-08
4.0148e-05
0.0047501
5.9681e-05
0.0045836
7.8242e-05
0.0043401
9.5477e-05
0.0040231
0.00011105
0.0036375
0.00012479
0.0031899
0.00013544
0.0026938
0.00014708
0.0021191
0.00014863
0.0016456
0.00014917
0.0008728
0.00060886
0.00016389
2.0051e-05
0.0048198
2.4378e-08
4.0149e-05
0.00473
5.9684e-05
0.0045641
7.8246e-05
0.0043216
9.5481e-05
0.0040058
0.00011106
0.003622
0.00012481
0.0031761
0.00013537
0.0026833
0.0001471
0.0021074
0.0001491
0.0016436
0.0001489
0.000873
0.00059497
0.00016279
2.0051e-05
0.0047997
2.5663e-08
4.015e-05
0.0047099
5.9686e-05
0.0045446
7.8249e-05
0.004303
9.5485e-05
0.0039886
0.00011106
0.0036064
0.00012484
0.0031624
0.0001353
0.0026728
0.0001471
0.0020956
0.00014958
0.0016411
0.00014876
0.00087382
0.00058198
0.00016175
2.0051e-05
0.0047796
2.6952e-08
4.0152e-05
0.0046898
5.9689e-05
0.004525
7.8252e-05
0.0042844
9.549e-05
0.0039714
0.00011106
0.0035908
0.00012486
0.0031486
0.00013523
0.0026624
0.00014709
0.0020837
0.00015006
0.0016381
0.00014873
0.00087515
0.00056992
0.00016079
2.0051e-05
0.0047595
2.8244e-08
4.0153e-05
0.0046697
5.9691e-05
0.0045055
7.8255e-05
0.0042659
9.5494e-05
0.0039541
0.00011106
0.0035753
0.00012488
0.0031347
0.00013517
0.0026521
0.00014705
0.0020718
0.00015054
0.0016346
0.00014881
0.00087688
0.00055879
0.00015994
2.0051e-05
0.0047395
2.9539e-08
4.0154e-05
0.0046496
5.9694e-05
0.004486
7.8259e-05
0.0042473
9.5498e-05
0.0039369
0.00011106
0.0035597
0.00012491
0.0031209
0.00013511
0.0026419
0.00014699
0.0020599
0.00015101
0.0016306
0.00014897
0.00087892
0.00054857
0.00015919
2.0051e-05
0.0047194
3.0837e-08
4.0155e-05
0.0046295
5.9696e-05
0.0044664
7.8262e-05
0.0042287
9.5503e-05
0.0039197
0.00011106
0.0035441
0.00012494
0.003107
0.00013505
0.0026318
0.00014692
0.0020481
0.00015146
0.001626
0.00014922
0.00088117
0.00053922
0.00015857
2.0051e-05
0.0046993
3.2139e-08
4.0157e-05
0.0046094
5.9699e-05
0.0044469
7.8265e-05
0.0042102
9.5508e-05
0.0039024
0.00011106
0.0035286
0.00012497
0.0030931
0.00013499
0.0026218
0.00014683
0.0020362
0.00015189
0.001621
0.00014953
0.00088353
0.0005307
0.00015806
2.0051e-05
0.0046792
3.3444e-08
4.0158e-05
0.0045893
5.9701e-05
0.0044273
7.8269e-05
0.0041916
9.5513e-05
0.0038852
0.00011106
0.003513
0.000125
0.0030791
0.00013495
0.0026119
0.00014672
0.0020244
0.00015229
0.0016154
0.0001499
0.00088593
0.00052293
0.00015766
2.0051e-05
0.0046591
3.4753e-08
4.0159e-05
0.0045692
5.9704e-05
0.0044078
7.8272e-05
0.004173
9.5518e-05
0.0038679
0.00011105
0.0034975
0.00012503
0.0030652
0.0001349
0.002602
0.0001466
0.0020127
0.00015267
0.0016093
0.0001503
0.00088829
0.00051587
0.00015737
2.0051e-05
0.004639
3.6065e-08
4.016e-05
0.0045491
5.9706e-05
0.0043882
7.8275e-05
0.0041545
9.5523e-05
0.0038507
0.00011105
0.003482
0.00012507
0.0030511
0.00013487
0.0025922
0.00014647
0.0020011
0.000153
0.0016028
0.00015074
0.00089055
0.00050944
0.00015717
2.0051e-05
0.0046189
3.7381e-08
4.0162e-05
0.0045289
5.9709e-05
0.0043687
7.8279e-05
0.0041359
9.5528e-05
0.0038334
0.00011105
0.0034665
0.0001251
0.0030371
0.00013484
0.0025825
0.00014633
0.0019896
0.00015331
0.0015958
0.00015121
0.00089266
0.00050358
0.00015707
2.0051e-05
0.0045989
3.87e-08
4.0163e-05
0.0045088
5.9711e-05
0.0043491
7.8282e-05
0.0041173
9.5534e-05
0.0038162
0.00011105
0.003451
0.00012514
0.003023
0.00013481
0.0025728
0.00014617
0.0019783
0.00015358
0.0015884
0.00015168
0.00089455
0.00049822
0.00015704
2.0051e-05
0.0045788
4.0023e-08
4.0164e-05
0.0044887
5.9714e-05
0.0043296
7.8285e-05
0.0040988
9.5539e-05
0.0037989
0.00011104
0.0034354
0.00012517
0.0030089
0.0001348
0.0025632
0.00014601
0.0019671
0.00015381
0.0015806
0.00015216
0.0008962
0.0004933
0.00015708
2.0051e-05
0.0045587
4.135e-08
4.0165e-05
0.0044686
5.9716e-05
0.00431
7.8289e-05
0.0040802
9.5545e-05
0.0037817
0.00011104
0.00342
0.00012521
0.0029947
0.00013479
0.0025536
0.00014585
0.001956
0.00015401
0.0015725
0.00015264
0.00089757
0.00048876
0.00015718
2.0051e-05
0.0045386
4.2681e-08
4.0167e-05
0.0044485
5.9719e-05
0.0042905
7.8292e-05
0.0040616
9.5551e-05
0.0037644
0.00011104
0.0034045
0.00012525
0.0029805
0.00013479
0.002544
0.00014567
0.0019451
0.00015417
0.001564
0.0001531
0.00089864
0.00048454
0.00015732
2.0051e-05
0.0045185
4.4016e-08
4.0168e-05
0.0044284
5.9721e-05
0.0042709
7.8296e-05
0.004043
9.5557e-05
0.0037471
0.00011103
0.003389
0.00012528
0.0029662
0.0001348
0.0025345
0.0001455
0.0019344
0.00015429
0.0015552
0.00015355
0.00089937
0.0004806
0.0001575
2.0051e-05
0.0044984
4.5355e-08
4.0169e-05
0.0044083
5.9724e-05
0.0042514
7.8299e-05
0.0040245
9.5564e-05
0.0037299
0.00011103
0.0033735
0.00012532
0.0029519
0.00013482
0.002525
0.00014533
0.0019239
0.00015438
0.0015461
0.00015398
0.00089977
0.00047687
0.00015771
2.0051e-05
0.0044783
4.6699e-08
4.017e-05
0.0043881
5.9727e-05
0.0042318
7.8303e-05
0.0040059
9.557e-05
0.0037126
0.00011102
0.0033581
0.00012536
0.0029376
0.00013484
0.0025155
0.00014516
0.0019136
0.00015444
0.0015369
0.00015439
0.00089982
0.00047333
0.00015793
2.0051e-05
0.0044582
4.8046e-08
4.0172e-05
0.004368
5.9729e-05
0.0042123
7.8306e-05
0.0039873
9.5577e-05
0.0036953
0.00011101
0.0033426
0.00012539
0.0029232
0.00013488
0.0025061
0.00014499
0.0019035
0.00015447
0.0015274
0.00015477
0.00089952
0.00046992
0.00015817
2.0051e-05
0.0044381
4.9398e-08
4.0173e-05
0.0043479
5.9732e-05
0.0041927
7.831e-05
0.0039687
9.5584e-05
0.0036781
0.00011101
0.0033272
0.00012542
0.0029088
0.00013492
0.0024966
0.00014482
0.0018936
0.00015447
0.0015177
0.00015512
0.00089886
0.00046662
0.00015842
2.0051e-05
0.004418
5.0755e-08
4.0174e-05
0.0043278
5.9735e-05
0.0041731
7.8313e-05
0.0039502
9.5592e-05
0.0036608
0.000111
0.0033118
0.00012546
0.0028944
0.00013497
0.002487
0.00014466
0.0018839
0.00015444
0.0015079
0.00015545
0.00089785
0.0004634
0.00015867
2.0051e-05
0.0043979
5.2116e-08
4.0176e-05
0.0043076
5.9737e-05
0.0041536
7.8317e-05
0.0039316
9.5599e-05
0.0036435
0.000111
0.0032964
0.00012549
0.0028799
0.00013503
0.0024775
0.00014451
0.0018744
0.00015439
0.0014981
0.00015574
0.0008965
0.00046023
0.00015891
2.0051e-05
0.0043778
5.3481e-08
4.0177e-05
0.0042875
5.974e-05
0.004134
7.832e-05
0.003913
9.5607e-05
0.0036262
0.00011099
0.003281
0.00012552
0.0028653
0.00013509
0.0024679
0.00014437
0.0018651
0.00015432
0.0014881
0.000156
0.00089482
0.00045709
0.00015914
2.0051e-05
0.0043577
5.4851e-08
4.0178e-05
0.0042674
5.9743e-05
0.0041145
7.8324e-05
0.0038944
9.5615e-05
0.0036089
0.00011098
0.0032657
0.00012555
0.0028508
0.00013516
0.0024583
0.00014423
0.0018561
0.00015423
0.0014781
0.00015623
0.00089282
0.00045395
0.00015937
2.0051e-05
0.0043376
5.6226e-08
4.018e-05
0.0042473
5.9746e-05
0.0040949
7.8327e-05
0.0038758
9.5623e-05
0.0035916
0.00011098
0.0032503
0.00012557
0.0028362
0.00013524
0.0024486
0.00014411
0.0018472
0.00015413
0.0014681
0.00015643
0.00089052
0.00045081
0.00015957
2.0051e-05
0.0043175
5.7606e-08
4.0181e-05
0.0042271
5.9748e-05
0.0040753
7.8331e-05
0.0038572
9.5632e-05
0.0035743
0.00011097
0.003235
0.00012559
0.0028215
0.00013533
0.0024389
0.000144
0.0018385
0.00015401
0.0014581
0.00015661
0.00088792
0.00044765
0.00015977
2.0051e-05
0.0042973
5.8991e-08
4.0182e-05
0.004207
5.9751e-05
0.0040558
7.8334e-05
0.0038387
9.5641e-05
0.003557
0.00011096
0.0032197
0.00012561
0.0028069
0.00013542
0.0024291
0.0001439
0.0018301
0.00015388
0.0014481
0.00015675
0.00088505
0.00044445
0.00015995
2.0051e-05
0.0042772
6.0381e-08
4.0184e-05
0.0041869
5.9754e-05
0.0040362
7.8338e-05
0.0038201
9.565e-05
0.0035397
0.00011096
0.0032044
0.00012563
0.0027922
0.00013551
0.0024192
0.00014381
0.0018218
0.00015375
0.0014382
0.00015687
0.00088192
0.00044122
0.00016011
2.0051e-05
0.0042571
6.1776e-08
4.0185e-05
0.0041667
5.9757e-05
0.0040166
7.8341e-05
0.0038015
9.5659e-05
0.0035224
0.00011095
0.0031891
0.00012565
0.0027775
0.00013561
0.0024093
0.00014374
0.0018136
0.00015361
0.0014283
0.00015697
0.00087856
0.00043794
0.00016025
2.0051e-05
0.004237
6.3177e-08
4.0186e-05
0.0041466
5.976e-05
0.003997
7.8345e-05
0.0037829
9.5669e-05
0.0035051
0.00011094
0.0031738
0.00012566
0.0027628
0.00013572
0.0023992
0.00014368
0.0018057
0.00015346
0.0014185
0.00015705
0.00087498
0.00043461
0.00016037
2.0051e-05
0.0042169
6.4583e-08
4.0188e-05
0.0041265
5.9763e-05
0.0039775
7.8349e-05
0.0037643
9.5678e-05
0.0034877
0.00011094
0.0031585
0.00012567
0.0027481
0.00013582
0.0023891
0.00014364
0.0017979
0.00015332
0.0014088
0.0001571
0.00087119
0.00043123
0.00016048
2.0051e-05
0.0041968
6.5994e-08
4.0189e-05
0.0041063
5.9765e-05
0.0039579
7.8352e-05
0.0037457
9.5688e-05
0.0034704
0.00011093
0.0031433
0.00012568
0.0027333
0.00013593
0.0023788
0.00014361
0.0017902
0.00015318
0.0013993
0.00015714
0.00086723
0.0004278
0.00016057
2.0051e-05
0.0041767
6.7411e-08
4.019e-05
0.0040862
5.9768e-05
0.0039383
7.8356e-05
0.0037272
9.5698e-05
0.0034531
0.00011093
0.0031281
0.00012568
0.0027186
0.00013604
0.0023684
0.00014359
0.0017826
0.00015304
0.0013898
0.00015717
0.0008631
0.00042431
0.00016065
2.0051e-05
0.0041565
6.8834e-08
4.0192e-05
0.004066
5.9771e-05
0.0039187
7.8359e-05
0.0037086
9.5709e-05
0.0034357
0.00011092
0.0031128
0.00012568
0.0027038
0.00013616
0.002358
0.00014358
0.0017752
0.0001529
0.0013805
0.00015718
0.00085882
0.00042077
0.00016072
2.0051e-05
0.0041364
7.0263e-08
4.0193e-05
0.0040459
5.9774e-05
0.0038992
7.8363e-05
0.00369
9.5719e-05
0.0034184
0.00011092
0.0030976
0.00012568
0.002689
0.00013627
0.0023474
0.00014359
0.0017679
0.00015277
0.0013713
0.00015718
0.00085441
0.00041719
0.00016077
2.0051e-05
0.0041163
7.1698e-08
4.0195e-05
0.0040258
5.9777e-05
0.0038796
7.8366e-05
0.0036714
9.573e-05
0.003401
0.00011092
0.0030825
0.00012568
0.0026743
0.00013638
0.0023367
0.00014362
0.0017607
0.00015265
0.0013623
0.00015717
0.00084989
0.00041355
0.00016081
2.0051e-05
0.0040962
7.3139e-08
4.0196e-05
0.0040056
5.978e-05
0.00386
7.837e-05
0.0036528
9.5741e-05
0.0033836
0.00011091
0.0030673
0.00012567
0.0026595
0.00013649
0.0023259
0.00014365
0.0017535
0.00015254
0.0013534
0.00015716
0.00084527
0.00040987
0.00016084
2.0051e-05
0.004076
7.4586e-08
4.0198e-05
0.0039855
5.9783e-05
0.0038404
7.8374e-05
0.0036342
9.5752e-05
0.0033662
0.00011091
0.0030521
0.00012566
0.0026448
0.0001366
0.0023149
0.0001437
0.0017464
0.00015243
0.0013447
0.00015714
0.00084057
0.00040616
0.00016086
2.0051e-05
0.0040559
7.6039e-08
4.0199e-05
0.0039653
5.9786e-05
0.0038208
7.8377e-05
0.0036156
9.5763e-05
0.0033489
0.00011091
0.003037
0.00012565
0.00263
0.00013671
0.0023039
0.00014375
0.0017394
0.00015234
0.0013361
0.00015712
0.00083579
0.0004024
0.00016087
2.0051e-05
0.0040358
7.7499e-08
4.0201e-05
0.0039452
5.979e-05
0.0038012
7.8381e-05
0.003597
9.5775e-05
0.0033315
0.00011092
0.0030218
0.00012563
0.0026153
0.00013681
0.0022927
0.00014382
0.0017324
0.00015226
0.0013276
0.00015709
0.00083096
0.00039862
0.00016088
2.0051e-05
0.0040157
7.8966e-08
4.0202e-05
0.003925
5.9793e-05
0.0037816
7.8385e-05
0.0035784
9.5786e-05
0.0033141
0.00011092
0.0030067
0.00012562
0.0026006
0.00013691
0.0022814
0.00014389
0.0017254
0.00015219
0.0013193
0.00015707
0.00082608
0.00039481
0.00016088
2.0051e-05
0.0039955
8.0439e-08
4.0204e-05
0.0039049
5.9796e-05
0.003762
7.8388e-05
0.0035598
9.5798e-05
0.0032966
0.00011092
0.0029916
0.0001256
0.002586
0.00013701
0.00227
0.00014398
0.0017184
0.00015213
0.0013112
0.00015704
0.00082116
0.00039097
0.00016088
2.0051e-05
0.0039754
8.1919e-08
4.0205e-05
0.0038847
5.9799e-05
0.0037424
7.8392e-05
0.0035412
9.5809e-05
0.0032792
0.00011093
0.0029765
0.00012557
0.0025713
0.0001371
0.0022584
0.00014407
0.0017114
0.00015208
0.0013032
0.00015702
0.00081622
0.00038712
0.00016087
2.0051e-05
0.0039553
8.3406e-08
4.0207e-05
0.0038646
5.9802e-05
0.0037229
7.8396e-05
0.0035227
9.5821e-05
0.0032618
0.00011093
0.0029613
0.00012555
0.0025567
0.00013719
0.0022468
0.00014417
0.0017045
0.00015205
0.0012953
0.000157
0.00081126
0.00038326
0.00016087
2.0051e-05
0.0039351
8.4901e-08
4.0208e-05
0.0038444
5.9806e-05
0.0037033
7.8399e-05
0.0035041
9.5833e-05
0.0032444
0.00011094
0.0029462
0.00012553
0.0025421
0.00013728
0.002235
0.00014427
0.0016975
0.00015202
0.0012875
0.00015699
0.00080629
0.00037938
0.00016086
2.0051e-05
0.003915
8.6403e-08
4.021e-05
0.0038242
5.9809e-05
0.0036837
7.8403e-05
0.0034855
9.5844e-05
0.0032269
0.00011095
0.0029311
0.0001255
0.0025275
0.00013736
0.0022232
0.00014437
0.0016905
0.000152
0.0012799
0.00015698
0.00080132
0.00037551
0.00016085
2.0051e-05
0.0038948
8.7912e-08
4.0211e-05
0.0038041
5.9812e-05
0.0036641
7.8407e-05
0.0034669
9.5856e-05
0.0032095
0.00011096
0.002916
0.00012547
0.002513
0.00013743
0.0022112
0.00014448
0.0016834
0.000152
0.0012724
0.00015697
0.00079635
0.00037163
0.00016085
2.0051e-05
0.0038747
8.9429e-08
4.0213e-05
0.0037839
5.9816e-05
0.0036445
7.8411e-05
0.0034483
9.5867e-05
0.003192
0.00011097
0.0029009
0.00012544
0.0024985
0.0001375
0.0021992
0.0001446
0.0016763
0.000152
0.001265
0.00015697
0.00079138
0.00036776
0.00016084
2.0051e-05
0.0038546
9.0954e-08
4.0215e-05
0.0037638
5.9819e-05
0.0036248
7.8415e-05
0.0034297
9.5879e-05
0.0031746
0.00011098
0.0028858
0.00012542
0.0024841
0.00013756
0.002187
0.00014471
0.0016691
0.00015202
0.0012577
0.00015697
0.00078643
0.0003639
0.00016084
2.0051e-05
0.0038344
9.2486e-08
4.0216e-05
0.0037436
5.9823e-05
0.0036052
7.8418e-05
0.0034111
9.589e-05
0.0031571
0.00011099
0.0028707
0.00012539
0.0024697
0.00013762
0.0021748
0.00014483
0.0016619
0.00015204
0.0012505
0.00015698
0.00078149
0.00036005
0.00016083
2.0051e-05
0.0038143
9.4027e-08
4.0218e-05
0.0037234
5.9826e-05
0.0035856
7.8422e-05
0.0033925
9.5901e-05
0.0031396
0.00011101
0.0028556
0.00012536
0.0024554
0.00013767
0.0021625
0.00014494
0.0016547
0.00015207
0.0012433
0.000157
0.00077657
0.00035622
0.00016083
2.0051e-05
0.0037941
9.5577e-08
4.022e-05
0.0037033
5.983e-05
0.003566
7.8426e-05
0.0033739
9.5913e-05
0.0031221
0.00011103
0.0028405
0.00012533
0.0024411
0.00013772
0.0021501
0.00014506
0.0016473
0.00015211
0.0012363
0.00015701
0.00077166
0.0003524
0.00016083
2.0051e-05
0.003774
9.7134e-08
4.0221e-05
0.0036831
5.9833e-05
0.0035464
7.843e-05
0.0033553
9.5924e-05
0.0031046
0.00011104
0.0028254
0.0001253
0.0024268
0.00013776
0.0021377
0.00014517
0.0016399
0.00015216
0.0012293
0.00015704
0.00076678
0.0003486
0.00016083
2.0051e-05
0.0037538
9.8701e-08
4.0223e-05
0.0036629
5.9837e-05
0.0035268
7.8434e-05
0.0033367
9.5934e-05
0.0030871
0.00011106
0.0028103
0.00012527
0.0024126
0.00013779
0.0021251
0.00014529
0.0016324
0.00015221
0.0012224
0.00015707
0.00076192
0.00034483
0.00016084
2.0051e-05
0.0037337
1.0028e-07
4.0225e-05
0.0036427
5.984e-05
0.0035072
7.8439e-05
0.0033181
9.5945e-05
0.0030696
0.00011108
0.0027951
0.00012524
0.0023984
0.00013782
0.0021126
0.0001454
0.0016248
0.00015226
0.0012155
0.0001571
0.00075708
0.00034109
0.00016085
2.0051e-05
0.0037135
1.0186e-07
4.0226e-05
0.0036226
5.9844e-05
0.0034876
7.8443e-05
0.0032995
9.5956e-05
0.0030521
0.0001111
0.00278
0.00012522
0.0023843
0.00013785
0.0020999
0.0001455
0.0016172
0.00015232
0.0012087
0.00015714
0.00075227
0.00033737
0.00016085
2.0051e-05
0.0036934
1.0345e-07
4.0228e-05
0.0036024
5.9848e-05
0.0034679
7.8447e-05
0.0032809
9.5966e-05
0.0030346
0.00011112
0.0027648
0.00012519
0.0023703
0.00013787
0.0020872
0.00014561
0.0016095
0.00015239
0.0012019
0.00015718
0.00074747
0.00033368
0.00016087
2.0052e-05
0.0036732
1.0506e-07
4.023e-05
0.0035822
5.9852e-05
0.0034483
7.8452e-05
0.0032623
9.5976e-05
0.0030171
0.00011115
0.0027497
0.00012517
0.0023562
0.00013789
0.0020745
0.00014571
0.0016016
0.00015245
0.0011952
0.00015722
0.0007427
0.00033003
0.00016088
2.0052e-05
0.0036531
1.0667e-07
4.0232e-05
0.003562
5.9855e-05
0.0034287
7.8456e-05
0.0032437
9.5986e-05
0.0029995
0.00011117
0.0027345
0.00012515
0.0023423
0.00013791
0.0020618
0.00014581
0.0015937
0.00015252
0.0011885
0.00015727
0.00073796
0.0003264
0.0001609
2.0052e-05
0.0036329
1.0829e-07
4.0233e-05
0.0035419
5.9859e-05
0.0034091
7.846e-05
0.0032251
9.5996e-05
0.002982
0.0001112
0.0027193
0.00012512
0.0023283
0.00013792
0.002049
0.0001459
0.0015857
0.0001526
0.0011818
0.00015732
0.00073323
0.00032281
0.00016091
2.0052e-05
0.0036127
1.0992e-07
4.0235e-05
0.0035217
5.9863e-05
0.0033894
7.8465e-05
0.0032065
9.6006e-05
0.0029645
0.00011122
0.0027041
0.0001251
0.0023144
0.00013793
0.0020361
0.000146
0.0015777
0.00015267
0.0011751
0.00015738
0.00072852
0.00031925
0.00016093
2.0052e-05
0.0035926
1.1157e-07
4.0237e-05
0.0035015
5.9867e-05
0.0033698
7.847e-05
0.0031879
9.6015e-05
0.0029469
0.00011125
0.0026888
0.00012509
0.0023006
0.00013793
0.0020233
0.00014608
0.0015695
0.00015274
0.0011684
0.00015743
0.00072383
0.00031573
0.00016095
2.0052e-05
0.0035724
1.1322e-07
4.0239e-05
0.0034813
5.9871e-05
0.0033502
7.8475e-05
0.0031693
9.6025e-05
0.0029294
0.00011127
0.0026736
0.00012507
0.0022868
0.00013793
0.0020104
0.00014617
0.0015613
0.00015282
0.0011618
0.00015749
0.00071916
0.00031224
0.00016098
2.0052e-05
0.0035522
1.1488e-07
4.0241e-05
0.0034611
5.9875e-05
0.0033305
7.8479e-05
0.0031507
9.6034e-05
0.0029118
0.0001113
0.0026583
0.00012506
0.0022731
0.00013793
0.0019976
0.00014625
0.001553
0.00015289
0.0011551
0.00015755
0.0007145
0.00030879
0.000161
2.0052e-05
0.0035321
1.1656e-07
4.0243e-05
0.0034409
5.9879e-05
0.0033109
7.8484e-05
0.0031321
9.6043e-05
0.0028943
0.00011133
0.002643
0.00012504
0.0022593
0.00013793
0.0019847
0.00014632
0.0015446
0.00015297
0.0011485
0.00015761
0.00070986
0.00030537
0.00016103
2.0052e-05
0.0035119
1.1825e-07
4.0245e-05
0.0034207
5.9883e-05
0.0032913
7.8489e-05
0.0031135
9.6051e-05
0.0028767
0.00011136
0.0026277
0.00012503
0.0022457
0.00013793
0.0019718
0.00014639
0.0015361
0.00015304
0.0011418
0.00015767
0.00070524
0.00030199
0.00016105
2.0052e-05
0.0034917
1.1994e-07
4.0247e-05
0.0034005
5.9887e-05
0.0032716
7.8495e-05
0.0030949
9.606e-05
0.0028591
0.00011139
0.0026124
0.00012503
0.002232
0.00013792
0.0019589
0.00014646
0.0015276
0.00015312
0.0011352
0.00015773
0.00070062
0.00029864
0.00016108
2.0052e-05
0.0034716
1.2165e-07
4.0249e-05
0.0033803
5.9892e-05
0.003252
7.85e-05
0.0030763
9.6068e-05
0.0028416
0.00011142
0.002597
0.00012502
0.0022184
0.00013792
0.001946
0.00014652
0.001519
0.00015319
0.0011285
0.0001578
0.00069602
0.00029533
0.00016111
2.0052e-05
0.0034514
1.2337e-07
4.0251e-05
0.0033601
5.9896e-05
0.0032323
7.8505e-05
0.0030577
9.6077e-05
0.002824
0.00011145
0.0025817
0.00012501
0.0022049
0.00013791
0.0019331
0.00014659
0.0015103
0.00015327
0.0011218
0.00015786
0.00069142
0.00029206
0.00016114
2.0052e-05
0.0034312
1.2511e-07
4.0253e-05
0.0033399
5.99e-05
0.0032127
7.8511e-05
0.003039
9.6085e-05
0.0028064
0.00011147
0.0025663
0.00012501
0.0021913
0.0001379
0.0019202
0.00014664
0.0015016
0.00015334
0.0011151
0.00015793
0.00068683
0.00028881
0.00016117
2.0052e-05
0.003411
1.2685e-07
4.0255e-05
0.0033197
5.9904e-05
0.003193
7.8516e-05
0.0030204
9.6093e-05
0.0027888
0.0001115
0.0025509
0.00012501
0.0021778
0.0001379
0.0019073
0.0001467
0.0014928
0.00015341
0.0011084
0.00015799
0.00068225
0.0002856
0.0001612
2.0052e-05
0.0033908
1.2861e-07
4.0257e-05
0.0032995
5.9909e-05
0.0031734
7.8522e-05
0.0030018
9.6101e-05
0.0027713
0.00011153
0.0025354
0.00012501
0.0021643
0.00013789
0.0018944
0.00014675
0.0014839
0.00015348
0.0011017
0.00015805
0.00067768
0.00028243
0.00016123
2.0053e-05
0.0033707
1.3038e-07
4.0259e-05
0.0032793
5.9913e-05
0.0031537
7.8528e-05
0.0029832
9.6108e-05
0.0027537
0.00011156
0.00252
0.00012502
0.0021509
0.00013788
0.0018816
0.0001468
0.001475
0.00015355
0.0010949
0.00015812
0.00067311
0.00027928
0.00016126
2.0053e-05
0.0033505
1.3216e-07
4.0261e-05
0.0032591
5.9918e-05
0.0031341
7.8534e-05
0.0029646
9.6116e-05
0.0027361
0.00011159
0.0025045
0.00012502
0.0021375
0.00013787
0.0018687
0.00014685
0.001466
0.00015362
0.0010882
0.00015818
0.00066854
0.00027617
0.00016129
2.0053e-05
0.0033303
1.3396e-07
4.0263e-05
0.0032389
5.9922e-05
0.0031144
7.854e-05
0.002946
9.6124e-05
0.0027185
0.00011162
0.002489
0.00012503
0.002124
0.00013786
0.0018559
0.00014689
0.001457
0.00015368
0.0010814
0.00015825
0.00066397
0.00027309
0.00016133
2.0053e-05
0.0033101
1.3577e-07
4.0266e-05
0.0032187
5.9927e-05
0.0030948
7.8546e-05
0.0029273
9.6131e-05
0.0027009
0.00011165
0.0024735
0.00012504
0.0021107
0.00013786
0.0018431
0.00014693
0.0014479
0.00015375
0.0010746
0.00015831
0.00065941
0.00027004
0.00016136
2.0053e-05
0.0032899
1.376e-07
4.0268e-05
0.0031985
5.9932e-05
0.0030751
7.8552e-05
0.0029087
9.6139e-05
0.0026833
0.00011168
0.0024579
0.00012505
0.0020973
0.00013785
0.0018303
0.00014697
0.0014388
0.00015381
0.0010677
0.00015837
0.00065485
0.00026702
0.00016139
2.0053e-05
0.0032697
1.3944e-07
4.027e-05
0.0031783
5.9936e-05
0.0030554
7.8558e-05
0.0028901
9.6146e-05
0.0026657
0.00011171
0.0024424
0.00012506
0.002084
0.00013784
0.0018175
0.00014701
0.0014296
0.00015387
0.0010609
0.00015843
0.00065029
0.00026403
0.00016142
2.0053e-05
0.0032495
1.4129e-07
4.0272e-05
0.003158
5.9941e-05
0.0030358
7.8565e-05
0.0028715
9.6154e-05
0.0026482
0.00011174
0.0024268
0.00012507
0.0020706
0.00013784
0.0018047
0.00014705
0.0014204
0.00015393
0.001054
0.0001585
0.00064572
0.00026107
0.00016146
2.0053e-05
0.0032293
1.4316e-07
4.0275e-05
0.0031378
5.9946e-05
0.0030161
7.8571e-05
0.0028529
9.6161e-05
0.0026306
0.00011177
0.0024112
0.00012509
0.0020573
0.00013783
0.001792
0.00014708
0.0014112
0.00015399
0.0010471
0.00015856
0.00064116
0.00025813
0.00016149
2.0054e-05
0.0032091
1.4504e-07
4.0277e-05
0.0031176
5.9951e-05
0.0029964
7.8578e-05
0.0028342
9.6168e-05
0.002613
0.0001118
0.0023955
0.0001251
0.002044
0.00013783
0.0017792
0.00014712
0.0014019
0.00015405
0.0010402
0.00015862
0.00063659
0.00025522
0.00016153
2.0054e-05
0.0031889
1.4694e-07
4.0279e-05
0.0030974
5.9956e-05
0.0029767
7.8585e-05
0.0028156
9.6176e-05
0.0025954
0.00011183
0.0023799
0.00012512
0.0020307
0.00013783
0.0017665
0.00014715
0.0013925
0.00015411
0.0010332
0.00015868
0.00063202
0.00025234
0.00016156
2.0054e-05
0.0031687
1.4886e-07
4.0282e-05
0.0030771
5.9961e-05
0.0029571
7.8591e-05
0.002797
9.6183e-05
0.0025778
0.00011186
0.0023642
0.00012514
0.0020175
0.00013783
0.0017538
0.00014718
0.0013832
0.00015416
0.0010262
0.00015874
0.00062744
0.00024949
0.00016159
2.0054e-05
0.0031485
1.5079e-07
4.0284e-05
0.0030569
5.9966e-05
0.0029374
7.8598e-05
0.0027783
9.619e-05
0.0025602
0.00011189
0.0023485
0.00012516
0.0020042
0.00013783
0.0017412
0.00014721
0.0013738
0.00015422
0.0010192
0.0001588
0.00062287
0.00024665
0.00016163
2.0054e-05
0.0031283
1.5274e-07
4.0287e-05
0.0030367
5.9972e-05
0.0029177
7.8605e-05
0.0027597
9.6198e-05
0.0025426
0.00011192
0.0023328
0.00012518
0.0019909
0.00013783
0.0017285
0.00014724
0.0013644
0.00015427
0.0010122
0.00015885
0.00061828
0.00024385
0.00016166
2.0054e-05
0.0031081
1.547e-07
4.0289e-05
0.0030164
5.9977e-05
0.002898
7.8612e-05
0.0027411
9.6205e-05
0.002525
0.00011195
0.002317
0.0001252
0.0019777
0.00013783
0.0017159
0.00014727
0.0013549
0.00015432
0.0010051
0.00015891
0.0006137
0.00024106
0.0001617
2.0055e-05
0.0030879
1.5668e-07
4.0292e-05
0.0029962
5.9982e-05
0.0028783
7.862e-05
0.0027224
9.6212e-05
0.0025074
0.00011198
0.0023012
0.00012523
0.0019644
0.00013783
0.0017033
0.0001473
0.0013455
0.00015438
0.00099807
0.00015897
0.00060911
0.0002383
0.00016173
2.0055e-05
0.0030677
1.5868e-07
4.0294e-05
0.002976
5.9988e-05
0.0028586
7.8627e-05
0.0027038
9.6219e-05
0.0024898
0.00011201
0.0022855
0.00012525
0.0019512
0.00013783
0.0016907
0.00014733
0.001336
0.00015443
0.00099098
0.00015902
0.00060451
0.00023556
0.00016176
2.0055e-05
0.0030475
1.607e-07
4.0297e-05
0.0029557
5.9993e-05
0.0028389
7.8634e-05
0.0026852
9.6227e-05
0.0024722
0.00011204
0.0022696
0.00012528
0.001938
0.00013784
0.0016781
0.00014736
0.0013264
0.00015448
0.00098386
0.00015908
0.00059991
0.00023284
0.0001618
2.0055e-05
0.0030272
1.6274e-07
4.0299e-05
0.0029355
5.9999e-05
0.0028192
7.8642e-05
0.0026665
9.6234e-05
0.0024547
0.00011207
0.0022538
0.0001253
0.0019247
0.00013784
0.0016656
0.00014739
0.0013169
0.00015453
0.00097672
0.00015914
0.0005953
0.00023015
0.00016183
2.0055e-05
0.003007
1.6479e-07
4.0302e-05
0.0029152
6.0005e-05
0.0027995
7.8649e-05
0.0026479
9.6241e-05
0.0024371
0.00011209
0.002238
0.00012533
0.0019115
0.00013785
0.0016531
0.00014742
0.0013073
0.00015458
0.00096956
0.00015919
0.00059069
0.00022747
0.00016187
2.0056e-05
0.0029868
1.6687e-07
4.0304e-05
0.002895
6.0011e-05
0.0027798
7.8657e-05
0.0026292
9.6248e-05
0.0024195
0.00011212
0.0022221
0.00012536
0.0018982
0.00013786
0.0016406
0.00014744
0.0012977
0.00015463
0.00096237
0.00015925
0.00058607
0.00022481
0.0001619
2.0056e-05
0.0029666
1.6896e-07
4.0307e-05
0.0028747
6.0016e-05
0.0027601
7.8665e-05
0.0026106
9.6255e-05
0.0024019
0.00011215
0.0022062
0.00012539
0.001885
0.00013787
0.0016281
0.00014747