/*--------------------------------*- C++ -*----------------------------------*\
  =========                 |
  \\      /  F ield         | OpenFOAM: The Open Source CFD Toolbox
   \\    /   O peration     | Website:  https://openfoam.org
    \\  /    A nd           | Version:  6.0
     \\/     M anipulation  |
\*---------------------------------------------------------------------------*/
FoamFile
{
    version     2.0;
    format      ascii;
    class       volVectorField;
    location    "4";
    object      U;
}
// * * * * * * * * * * * * * * * * * * * * * * * * * * * * * * * * * * * * * //

dimensions      [0 1 -1 0 0 0 0];

internalField   nonuniform List<vector> 
4920
(
(0.996187 0.0881947 -1.36476e-19)
(0.996214 0.0881175 2.19619e-19)
(0.996233 0.0880712 -6.14528e-19)
(0.996241 0.0880119 8.61536e-19)
(0.996241 0.0879783 2.76549e-19)
(0.996226 0.0879361 -3.56988e-19)
(0.996198 0.0879419 8.51527e-19)
(0.996152 0.0879703 -2.00519e-19)
(0.996077 0.0879617 4.1952e-19)
(0.995904 0.0878716 2.70642e-18)
(0.995587 0.0876075 -4.06445e-18)
(0.995031 0.0868456 4.95126e-18)
(0.994269 0.0849846 2.33073e-18)
(0.993625 0.0817828 7.97571e-19)
(0.988387 0.0699454 -9.47834e-18)
(0.995771 0.0918825 9.23027e-20)
(0.995851 0.0916152 -5.61253e-19)
(0.995925 0.0913973 2.75609e-19)
(0.995978 0.0911766 1.2329e-19)
(0.996005 0.0909674 5.84355e-19)
(0.995994 0.0907188 2.00668e-19)
(0.995919 0.0905276 -1.68719e-18)
(0.995748 0.0903306 4.8006e-20)
(0.995481 0.0899658 5.2573e-19)
(0.995017 0.0892526 -5.09827e-18)
(0.994243 0.0879113 6.80608e-18)
(0.993026 0.0853686 -9.9152e-18)
(0.991547 0.0806663 8.12566e-19)
(0.990371 0.0738887 2.1443e-17)
(0.985382 0.0521607 3.12273e-17)
(0.994829 0.0948484 6.35585e-20)
(0.994905 0.0946095 -5.3321e-19)
(0.995002 0.0942774 1.79074e-19)
(0.995085 0.0939333 4.25957e-19)
(0.995138 0.0935742 -1.2567e-18)
(0.995149 0.0931266 3.27463e-19)
(0.995059 0.0926986 4.69122e-19)
(0.994806 0.0921933 -1.06246e-18)
(0.994423 0.0913689 1.4086e-18)
(0.993829 0.0900036 -1.46958e-18)
(0.992941 0.0877741 3.46672e-18)
(0.991677 0.0840966 -4.75768e-18)
(0.990327 0.0781041 -4.63932e-18)
(0.989346 0.0704346 -8.71321e-18)
(0.987942 0.0491834 -1.72321e-17)
(0.993644 0.0968049 2.07805e-20)
(0.993657 0.0965548 -1.73785e-19)
(0.993735 0.0961979 2.68234e-19)
(0.993809 0.0958387 -4.23033e-19)
(0.993857 0.0954423 1.62373e-19)
(0.993862 0.0949142 5.49907e-19)
(0.993748 0.0943522 1.30786e-18)
(0.993423 0.0936242 -4.96259e-19)
(0.992937 0.0924875 6.76553e-19)
(0.992265 0.0906685 3.76744e-18)
(0.991344 0.0878122 -6.54008e-18)
(0.990166 0.0834041 3.35573e-18)
(0.989115 0.0766442 7.23899e-18)
(0.988461 0.0686348 -2.37952e-17)
(0.990397 0.0488409 -2.95332e-18)
(0.992271 0.0982986 1.72297e-19)
(0.992177 0.0981782 -3.99043e-19)
(0.992202 0.0978222 -5.84798e-20)
(0.992247 0.0974406 -2.07699e-19)
(0.992279 0.0969943 4.13541e-21)
(0.992269 0.0963787 6.65453e-19)
(0.992126 0.0957089 -3.22063e-19)
(0.991729 0.0948255 -1.95056e-18)
(0.991151 0.0934426 1.2121e-19)
(0.990382 0.0912916 -3.11282e-18)
(0.989404 0.088003 1.70923e-19)
(0.988277 0.0830394 5.03148e-18)
(0.987485 0.0756523 -4.10001e-18)
(0.987155 0.0672858 6.90548e-18)
(0.992008 0.0485069 -9.31322e-18)
(0.990983 0.0992849 6.97509e-20)
(0.990738 0.0991021 2.02813e-19)
(0.99066 0.0987934 -6.49785e-19)
(0.990625 0.0984764 5.15053e-19)
(0.990593 0.0980895 3.36177e-19)
(0.990522 0.0975 -7.03566e-19)
(0.990318 0.0968139 5.16713e-19)
(0.989836 0.0958323 1.89759e-18)
(0.989146 0.0942976 5.88587e-19)
(0.988267 0.0919006 1.22553e-18)
(0.987201 0.0882438 6.05057e-18)
(0.986063 0.0828264 -1.69684e-18)
(0.985473 0.0748724 -8.81776e-18)
(0.985474 0.0660677 -5.55429e-18)
(0.99274 0.0478703 -1.19785e-18)
(0.989673 0.100391 -1.1226e-20)
(0.98926 0.100357 2.04018e-19)
(0.989056 0.100047 -3.19499e-19)
(0.988918 0.0997037 -1.53122e-19)
(0.988803 0.0992656 7.45979e-19)
(0.988655 0.098605 -4.14051e-19)
(0.988375 0.0978504 3.34997e-19)
(0.987794 0.0967819 -2.91334e-18)
(0.986986 0.0950985 2.09802e-18)
(0.985966 0.0924992 3.7038e-20)
(0.984772 0.08857 -4.99709e-18)
(0.983567 0.0827397 -7.22931e-19)
(0.983126 0.0742263 7.76444e-18)
(0.983468 0.0648937 4.9591e-17)
(0.99294 0.0470544 1.70923e-17)
(0.988369 0.101242 -2.89421e-20)
(0.987784 0.101089 1.22734e-19)
(0.987439 0.100812 -2.92794e-19)
(0.987178 0.100535 7.52809e-19)
(0.986954 0.100162 1.4473e-19)
(0.986706 0.0995467 -4.47642e-19)
(0.98633 0.098799 -1.07963e-19)
(0.985637 0.0976755 8.84108e-19)
(0.98469 0.0959027 -7.99023e-19)
(0.983522 0.0931323 3.07106e-19)
(0.982159 0.0889181 7.08453e-18)
(0.980829 0.082694 9.78203e-20)
(0.980482 0.0735852 1.84184e-17)
(0.981199 0.0636172 -6.25184e-17)
(0.992622 0.0458437 -1.11681e-17)
(0.986987 0.102377 7.1785e-20)
(0.986223 0.10237 -2.82735e-19)
(0.985732 0.102066 1.68104e-19)
(0.985342 0.101739 -1.48481e-19)
(0.985004 0.101306 -1.50307e-19)
(0.984654 0.100613 -1.67748e-19)
(0.984178 0.0998034 8.80537e-19)
(0.983369 0.0986187 -5.95164e-19)
(0.982289 0.096725 1.0813e-18)
(0.980942 0.0937926 -3.38028e-18)
(0.979371 0.089343 -7.45602e-19)
(0.977875 0.0826961 -5.56301e-18)
(0.977571 0.0729152 -1.36735e-17)
(0.978709 0.0622003 5.64803e-18)
(0.992151 0.0444888 1.01164e-17)
(0.985628 0.103289 -6.04555e-20)
(0.984677 0.103126 4.50295e-20)
(0.984027 0.102857 -1.53312e-19)
(0.983485 0.102595 -1.12335e-19)
(0.983009 0.102237 7.64257e-20)
(0.982534 0.101591 -7.42596e-20)
(0.981944 0.100796 4.96849e-19)
(0.981015 0.0995681 -5.24596e-19)
(0.979782 0.0976045 1.60836e-19)
(0.978243 0.0945181 -2.29195e-19)
(0.976437 0.0897763 -2.0122e-19)
(0.974711 0.0826719 3.51461e-19)
(0.974417 0.0721262 -1.8984e-18)
(0.976059 0.0605361 1.67254e-17)
(0.991487 0.0427651 -1.1166e-18)
(0.984144 0.10462 -5.17543e-22)
(0.983002 0.10461 -1.97105e-20)
(0.982195 0.104289 -3.42059e-19)
(0.981507 0.103957 5.5538e-19)
(0.980902 0.103509 3.88562e-19)
(0.980313 0.102768 -6.52758e-19)
(0.979616 0.101901 2.15067e-19)
(0.978564 0.100617 -3.74813e-19)
(0.97718 0.0985414 -3.29618e-20)
(0.975419 0.0952932 3.41053e-18)
(0.973333 0.0902863 -2.59063e-18)
(0.971335 0.0826472 -2.05337e-18)
(0.971043 0.0712149 1.50616e-18)
(0.973285 0.0586207 -1.04071e-17)
(0.990844 0.0408664 3.64278e-19)
(0.982635 0.10566 7.02675e-21)
(0.981305 0.105448 2.36684e-19)
(0.980334 0.105148 -1.09366e-19)
(0.979491 0.104881 -2.76231e-19)
(0.978744 0.104515 1.76237e-19)
(0.978026 0.103839 1.84783e-20)
(0.97721 0.103006 -2.46292e-19)
(0.976029 0.1017 -4.41905e-19)
(0.97447 0.0995654 -4.06403e-19)
(0.972479 0.0961535 -2.7105e-18)
(0.970069 0.0907957 -4.08154e-18)
(0.967747 0.0825546 1.0166e-17)
(0.967447 0.0700938 -3.65512e-18)
(0.970433 0.0563709 2.92288e-17)
(0.990128 0.0385726 -2.66537e-18)
(0.981058 0.107091 3.48592e-20)
(0.979536 0.106966 3.54725e-20)
(0.978404 0.106609 1.41097e-19)
(0.977408 0.106282 1.16659e-19)
(0.976517 0.105852 -1.69037e-19)
(0.975666 0.105116 3.49547e-19)
(0.974729 0.104241 -2.7304e-19)
(0.973412 0.102905 -2.14031e-20)
(0.971683 0.100668 2.74071e-19)
(0.969434 0.0970962 7.12908e-19)
(0.966628 0.0914001 3.47687e-18)
(0.963933 0.0824328 3.70568e-18)
(0.963631 0.068757 1.30447e-17)
(0.967518 0.0537571 -2.05488e-17)
(0.989586 0.0361382 8.86231e-19)
(0.979581 0.108157 -6.92812e-20)
(0.977866 0.107791 -1.52496e-20)
(0.976557 0.107488 1.81244e-19)
(0.975376 0.107266 -5.93173e-20)
(0.974309 0.106962 1.00582e-19)
(0.973296 0.106324 5.85686e-20)
(0.972216 0.105506 -3.94561e-19)
(0.97076 0.104165 1.62529e-19)
(0.968839 0.101874 -3.62518e-19)
(0.966253 0.0981383 1.52208e-18)
(0.963006 0.0920284 -7.36847e-19)
(0.95986 0.0822147 -6.69134e-18)
(0.959571 0.0671212 -1.61113e-17)
(0.964566 0.0506849 7.18934e-18)
(0.989128 0.0332949 -1.54039e-18)
(0.978021 0.10969 3.10237e-20)
(0.976114 0.109542 3.37679e-20)
(0.974636 0.109199 -2.62014e-19)
(0.97329 0.108913 5.10789e-19)
(0.97206 0.108518 -1.67201e-19)
(0.970895 0.107805 1.22371e-19)
(0.969686 0.106921 -9.41898e-20)
(0.968045 0.105546 -3.79312e-19)
(0.965858 0.103197 1.5965e-18)
(0.962892 0.0993046 -1.63194e-18)
(0.959123 0.092745 1.3319e-18)
(0.955489 0.081935 -1.80471e-18)
(0.95527 0.0651798 8.72307e-18)
(0.961624 0.047173 -3.66119e-18)
(0.988988 0.030324 2.6013e-18)
(0.976511 0.110887 1.67392e-20)
(0.974425 0.110543 1.24926e-19)
(0.97278 0.110261 -2.07338e-19)
(0.971248 0.11009 9.76089e-20)
(0.969825 0.109825 -1.45081e-19)
(0.968476 0.109198 2.29309e-20)
(0.967043 0.108393 6.87222e-19)
(0.965175 0.107083 -1.10288e-18)
(0.96268 0.104659 1.18218e-20)
(0.959268 0.100552 1.49204e-18)
(0.954935 0.0934556 -4.12907e-18)
(0.950788 0.0815041 1.04532e-18)
(0.950704 0.0628336 -4.23833e-19)
(0.958716 0.0431171 1.0896e-17)
(0.989041 0.0268911 7.68917e-18)
(0.974728 0.112721 8.03311e-21)
(0.972463 0.112646 -4.49185e-22)
(0.97066 0.112312 -6.08996e-20)
(0.968961 0.112085 2.23956e-19)
(0.967361 0.111713 -1.69828e-19)
(0.965806 0.111034 8.51607e-20)
(0.964201 0.110169 1.17218e-19)
(0.962082 0.108763 -3.50885e-19)
(0.959247 0.10626 4.89196e-19)
(0.955353 0.101921 -2.62963e-18)
(0.950412 0.0942153 2.83764e-18)
(0.945725 0.0809445 1.17405e-18)
(0.945885 0.0600753 -1.65551e-18)
(0.955867 0.0384807 -2.71486e-18)
(0.989496 0.0232139 -2.42344e-17)
(0.972677 0.114106 6.3335e-20)
(0.970246 0.113847 -1.36475e-19)
(0.968302 0.113623 1.17324e-19)
(0.966457 0.113536 5.86474e-20)
(0.964701 0.113341 -1.96095e-19)
(0.962982 0.112739 1.65407e-19)
(0.961177 0.111935 -1.7272e-19)
(0.958803 0.110622 1.16168e-19)
(0.955599 0.108001 2.02583e-18)
(0.951172 0.103366 -1.03486e-18)
(0.945544 0.0949427 -6.84271e-19)
(0.940263 0.0801531 -5.32294e-19)
(0.940775 0.0567793 -6.01719e-19)
(0.953077 0.0331309 -2.03227e-18)
(0.990241 0.0189223 1.4177e-17)
(0.970583 0.115794 6.39627e-21)
(0.967973 0.115695 4.56979e-20)
(0.965889 0.115471 -1.58527e-19)
(0.963897 0.115408 3.33643e-19)
(0.961978 0.115238 -1.20299e-19)
(0.96007 0.114749 1.70534e-19)
(0.958066 0.11397 9.50016e-20)
(0.955385 0.112614 3.39369e-19)
(0.951754 0.109921 -6.53364e-19)
(0.946713 0.104973 1.36163e-18)
(0.940298 0.0957215 3.29959e-18)
(0.934372 0.0791616 3.77412e-18)
(0.935389 0.0529302 -6.15096e-18)
(0.95043 0.0271174 5.50482e-18)
(0.991521 0.014416 3.57864e-18)
(0.968761 0.117064 -4.97592e-20)
(0.965948 0.11676 4.50941e-20)
(0.963675 0.11672 -4.75113e-20)
(0.961466 0.11689 -9.22947e-20)
(0.959306 0.116995 1.91252e-19)
(0.957146 0.116694 -4.77824e-19)
(0.954863 0.116082 -2.33811e-19)
(0.951827 0.114867 1.05519e-19)
(0.947701 0.112031 3.96194e-20)
(0.941952 0.106692 6.28783e-19)
(0.934634 0.0964597 -5.42843e-18)
(0.928024 0.0778634 -2.00219e-18)
(0.929713 0.0483893 4.38912e-18)
(0.947932 0.0202853 -1.30539e-18)
(0.993189 0.00923721 1.0219e-17)
(0.966734 0.119076 4.04509e-20)
(0.963711 0.119095 -1.48711e-20)
(0.961255 0.119049 -1.49802e-19)
(0.958846 0.119243 1.28888e-19)
(0.95646 0.119337 3.2222e-19)
(0.954042 0.119128 -1.56347e-19)
(0.951501 0.11853 -3.7766e-20)
(0.948069 0.117292 -5.7644e-19)
(0.943389 0.114371 -4.95418e-19)
(0.936836 0.108608 2.64193e-19)
(0.928512 0.0972322 4.03705e-18)
(0.921168 0.0762517 -3.68845e-19)
(0.923771 0.0431465 4.35233e-19)
(0.94566 0.0126656 1.25205e-18)
(0.995504 0.00380236 -4.55372e-18)
(0.964444 0.120686 -4.70179e-21)
(0.961233 0.120538 2.92133e-20)
(0.958607 0.120653 -1.67634e-19)
(0.956011 0.121068 -1.05534e-19)
(0.953412 0.121429 -3.34735e-20)
(0.950757 0.121409 2.66005e-19)
(0.947929 0.121016 9.49804e-20)
(0.944081 0.119972 8.25458e-19)
(0.938783 0.116891 9.46849e-19)
(0.931317 0.110623 -3.36405e-19)
(0.921859 0.097915 -3.86366e-19)
(0.913746 0.074173 1.71861e-18)
(0.917549 0.0370064 2.07096e-18)
(0.943624 0.0040906 -4.87988e-19)
(0.998316 -0.00244369 -2.0451e-19)
(0.962054 0.122786 7.73526e-21)
(0.958648 0.122832 2.20718e-20)
(0.955857 0.122956 2.25587e-20)
(0.95307 0.123436 -1.28363e-19)
(0.950242 0.123862 6.32816e-20)
(0.947308 0.12403 4.38057e-19)
(0.94418 0.123742 -6.99805e-19)
(0.93983 0.122785 -4.24091e-19)
(0.933829 0.119649 -8.51313e-20)
(0.925331 0.112824 -3.90089e-19)
(0.914603 0.0985453 -1.07219e-18)
(0.905722 0.0716071 -1.43494e-18)
(0.911097 0.0299738 2.55775e-18)
(0.941936 -0.00534505 9.18747e-19)
(1.0019 -0.0088725 -7.96335e-18)
(0.959802 0.124459 -7.07291e-21)
(0.956184 0.124306 2.72608e-20)
(0.953186 0.124645 -1.00193e-20)
(0.950147 0.125415 3.22748e-20)
(0.947021 0.126174 -2.11876e-20)
(0.943741 0.126603 -3.18946e-19)
(0.9402 0.126593 3.22023e-19)
(0.935301 0.125885 -6.29237e-20)
(0.928483 0.122567 -1.93137e-18)
(0.918795 0.115083 1.72198e-19)
(0.906653 0.098965 -2.6198e-18)
(0.897087 0.0683775 -3.73649e-18)
(0.90446 0.0218495 -8.17212e-18)
(0.940631 -0.0157791 4.96106e-19)
(1.00608 -0.0161417 -2.49733e-17)
(0.957349 0.126746 -1.03817e-20)
(0.953504 0.126964 -2.73937e-20)
(0.950296 0.12734 5.88693e-20)
(0.947011 0.1282 -2.62221e-19)
(0.94358 0.129027 2.38421e-19)
(0.939922 0.129651 -3.08469e-19)
(0.935965 0.12973 1.99875e-19)
(0.930414 0.129137 1.01364e-18)
(0.922659 0.125753 -1.47407e-19)
(0.911626 0.11748 9.73207e-19)
(0.897975 0.0991825 -1.20475e-18)
(0.88781 0.0644028 4.02489e-18)
(0.897714 0.0126683 3.41377e-18)
(0.939844 -0.0270379 7.99875e-18)
(1.01113 -0.0234116 2.02281e-17)
(0.954741 0.128589 -1.14079e-21)
(0.95066 0.128707 -1.40741e-20)
(0.947221 0.129328 -6.10909e-20)
(0.94366 0.130511 -1.59207e-19)
(0.939895 0.131709 3.08788e-19)
(0.93584 0.13261 7.68528e-20)
(0.93138 0.132999 6.01475e-19)
(0.925115 0.132676 -1.87788e-18)
(0.916275 0.129059 6.09031e-19)
(0.903727 0.119829 -2.68716e-18)
(0.888462 0.0989778 1.79907e-18)
(0.877882 0.0594437 -3.3006e-18)
(0.890939 0.00218563 7.54266e-18)
(0.939617 -0.0392438 -8.3473e-18)
(1.01682 -0.0315557 2.38547e-17)
(0.951479 0.131139 6.14174e-21)
(0.947226 0.131683 -4.22692e-20)
(0.943653 0.132313 -9.31101e-20)
(0.939908 0.133572 1.35446e-20)
(0.935857 0.134856 2.43663e-19)
(0.931397 0.135982 -4.70609e-20)
(0.926399 0.136496 -7.77762e-19)
(0.919289 0.136351 1.12253e-18)
(0.909232 0.132606 7.02833e-19)
(0.895036 0.122192 1.67376e-18)
(0.878085 0.0983014 -2.91689e-19)
(0.867339 0.0534234 5.20137e-18)
(0.884262 -0.00948374 -8.34637e-19)
(0.940087 -0.052164 -9.05528e-18)
(1.02341 -0.0394457 -1.7689e-17)
(0.948528 0.13273 1.00352e-20)
(0.944018 0.132918 -1.14215e-19)
(0.94018 0.13399 -6.04605e-20)
(0.936097 0.135783 9.57033e-20)
(0.931628 0.137653 -4.21375e-19)
(0.926633 0.139218 -5.76141e-19)
(0.920946 0.14016 1.28687e-19)
(0.91291 0.14029 1.11052e-18)
(0.901473 0.136163 5.2696e-19)
(0.885441 0.124314 1.19861e-18)
(0.866794 0.0969165 1.56648e-18)
(0.856272 0.0461017 -4.19876e-19)
(0.877839 -0.0225483 -7.46664e-18)
(0.941303 -0.0658537 6.5036e-18)
(1.03065 -0.0482625 1.99366e-18)
(0.945627 0.13527 8.6423e-21)
(0.940767 0.136042 -1.85063e-19)
(0.936588 0.137215 -2.40122e-20)
(0.932095 0.139164 9.26589e-20)
(0.927111 0.14116 4.1543e-19)
(0.921477 0.142994 2.75092e-19)
(0.915025 0.144067 -3.53758e-19)
(0.905902 0.14435 -4.3919e-19)
(0.892933 0.139909 -6.70609e-19)
(0.874971 0.126273 -3.5012e-18)
(0.854627 0.094708 7.52859e-20)
(0.844772 0.0374209 -5.46004e-18)
(0.871819 -0.0367744 3.16392e-18)
(0.94338 -0.0799698 -9.27013e-18)
(1.03878 -0.05646 1.70398e-17)
(0.942443 0.137408 -1.34074e-20)
(0.937248 0.137976 -1.30273e-19)
(0.932713 0.139509 2.45486e-19)
(0.927773 0.141952 -9.79757e-20)
(0.922232 0.144505 3.76101e-19)
(0.915898 0.146738 -3.43302e-19)
(0.908568 0.148201 8.54514e-19)
(0.898268 0.148644 -1.07254e-18)
(0.883573 0.143506 2.62472e-19)
(0.863488 0.127708 -5.24491e-19)
(0.841495 0.0913544 1.62262e-18)
(0.832963 0.02709 -8.50016e-18)
(0.86637 -0.0523908 -2.24108e-18)
(0.946345 -0.0945267 -7.38107e-18)
(1.04749 -0.065704 -1.03133e-17)
(0.938879 0.140424 -2.87564e-20)
(0.933345 0.141699 6.8601e-20)
(0.928467 0.143315 -2.75278e-19)
(0.923079 0.145862 -2.11533e-19)
(0.916955 0.148488 3.77154e-19)
(0.909874 0.150947 2.37291e-19)
(0.901594 0.152516 -1.69137e-18)
(0.889885 0.152999 1.27442e-18)
(0.873323 0.147192 -7.93427e-20)
(0.851022 0.128696 3.1076e-18)
(0.827514 0.0867332 -6.15491e-18)
(0.820999 0.0151172 1.14616e-17)
(0.861633 -0.0690114 -1.8778e-18)
(0.950242 -0.109137 3.54448e-17)
(1.057 -0.073892 -5.25856e-18)
(0.934956 0.142905 -6.26785e-20)
(0.929105 0.143995 -1.9345e-20)
(0.923892 0.145952 8.92747e-20)
(0.918075 0.149008 4.32571e-19)
(0.91136 0.152189 -5.93191e-19)
(0.903461 0.155083 -1.27913e-18)
(0.894046 0.157086 1.46633e-18)
(0.880852 0.157565 -1.62114e-18)
(0.862113 0.150456 3.97142e-20)
(0.837434 0.128758 -3.13651e-18)
(0.812721 0.0805341 7.95682e-18)
(0.809082 0.00125426 -3.63388e-18)
(0.857777 -0.0868374 1.10125e-18)
(0.955081 -0.1237 1.53119e-17)
(1.06699 -0.0833128 -4.37597e-17)
(0.931198 0.145741 -7.66674e-20)
(0.925006 0.147375 -4.28184e-20)
(0.919411 0.149549 -3.14567e-20)
(0.913052 0.15289 3.32962e-20)
(0.905598 0.156377 2.63659e-19)
(0.896717 0.159682 3.20896e-19)
(0.886006 0.161831 -6.71269e-19)
(0.870909 0.162078 8.66353e-19)
(0.849851 0.153647 3.73846e-18)
(0.822844 0.127951 3.59028e-19)
(0.797259 0.0725739 -4.41154e-18)
(0.797403 -0.0143269 -3.51174e-18)
(0.85492 -0.105238 1.87388e-18)
(0.960814 -0.137762 -1.22796e-17)
(1.07766 -0.0910355 1.59245e-17)
(0.927297 0.148322 3.50277e-20)
(0.920766 0.149869 -1.1619e-19)
(0.91476 0.152582 1.85805e-19)
(0.907803 0.156573 -5.72476e-19)
(0.899528 0.160648 1.62365e-19)
(0.889394 0.164399 1.48216e-18)
(0.877113 0.166922 6.77457e-19)
(0.860006 0.166621 4.08931e-19)
(0.836411 0.155893 -1.0055e-18)
(0.807018 0.125538 2.6197e-18)
(0.781133 0.0624371 -6.47618e-18)
(0.786159 -0.0319032 1.90106e-17)
(0.853135 -0.124527 3.61588e-19)
(0.967418 -0.151131 -1.70096e-17)
(1.08862 -0.10028 5.83751e-17)
(0.922864 0.151422 -2.04352e-20)
(0.915931 0.15388 4.7578e-20)
(0.909475 0.156854 -2.30679e-19)
(0.901865 0.161085 8.50829e-19)
(0.892556 0.165513 -3.81245e-19)
(0.88118 0.169651 -1.13301e-18)
(0.867247 0.171887 7.09892e-20)
(0.847781 0.170697 9.95845e-20)
(0.821624 0.157509 -9.033e-18)
(0.790103 0.121595 7.65939e-18)
(0.764583 0.0500709 6.07068e-18)
(0.775533 -0.0510896 -9.46693e-18)
(0.852448 -0.143802 -5.68724e-19)
(0.974678 -0.163456 -2.48013e-17)
(1.10003 -0.107075 -3.29468e-17)
(0.917876 0.153952 -3.7062e-20)
(0.910419 0.156497 -9.93951e-20)
(0.90338 0.16001 1.70087e-19)
(0.895035 0.1651 -5.91315e-19)
(0.884806 0.170145 1.98415e-19)
(0.872105 0.1745 -5.83718e-20)
(0.856288 0.176958 2.14886e-18)
(0.83447 0.174441 -3.99155e-18)
(0.805493 0.157463 9.40969e-18)
(0.772086 0.115309 -5.372e-18)
(0.747803 0.0351239 5.98577e-18)
(0.765702 -0.0721051 -6.44038e-18)
(0.852788 -0.163584 2.34662e-19)
(0.982593 -0.174294 -3.50686e-17)
(1.11151 -0.115755 -8.28077e-18)
(0.913103 0.157055 -4.94608e-20)
(0.905058 0.160312 -5.5853e-20)
(0.897375 0.164197 3.28826e-19)
(0.888143 0.169441 -1.09517e-19)
(0.876805 0.174906 2.19525e-19)
(0.862503 0.179758 -1.10302e-18)
(0.844668 0.181766 -1.40225e-18)
(0.819885 0.177468 7.12511e-18)
(0.78802 0.156299 -4.51752e-18)
(0.753228 0.106896 -7.19427e-18)
(0.731086 0.0179367 -1.28515e-17)
(0.756822 -0.0941354 1.29078e-17)
(0.854119 -0.182478 -7.18354e-18)
(0.990724 -0.183506 5.44477e-17)
(1.12315 -0.12096 3.38042e-17)
(0.908195 0.159878 -5.70912e-20)
(0.899662 0.163481 1.59341e-19)
(0.89136 0.167988 -1.98955e-19)
(0.881313 0.174065 2.62053e-19)
(0.868661 0.180001 -1.20113e-19)
(0.852586 0.185053 5.53162e-19)
(0.832275 0.186911 -1.61122e-18)
(0.80415 0.180072 3.24941e-18)
(0.769143 0.152742 -8.69096e-18)
(0.733555 0.095408 -1.86738e-18)
(0.71464 -0.00199206 -1.21333e-17)
(0.748968 -0.117447 -2.19005e-18)
(0.856127 -0.201502 1.25421e-18)
(0.999145 -0.190309 5.02056e-17)
(1.13452 -0.128547 -9.05519e-17)
(0.903467 0.162889 1.75908e-20)
(0.894399 0.167213 -6.62388e-20)
(0.885432 0.172277 3.82737e-20)
(0.874346 0.17891 -4.96716e-19)
(0.860288 0.185478 9.07261e-19)
(0.842199 0.190893 -1.30364e-18)
(0.818938 0.191806 1.86509e-18)
(0.786908 0.181641 -1.16351e-17)
(0.748855 0.147398 1.57028e-17)
(0.713481 0.0815017 4.08392e-19)
(0.698712 -0.0236238 1.47462e-17)
(0.742118 -0.140786 -1.48915e-18)
(0.858652 -0.218569 1.58992e-17)
(1.00709 -0.195126 -4.06489e-17)
(1.14557 -0.13143 1.09078e-16)
(0.898487 0.16558 2.04912e-20)
(0.888891 0.170485 -1.48604e-19)
(0.879176 0.176397 -1.61274e-19)
(0.867046 0.184039 1.25211e-18)
(0.85146 0.19114 -9.90029e-19)
(0.831129 0.196736 1.52778e-18)
(0.804487 0.196878 -3.27927e-18)
(0.76831 0.182375 1.77737e-18)
(0.727257 0.138825 4.49106e-18)
(0.69325 0.0641746 3.10722e-17)
(0.683508 -0.0477855 -3.364e-18)
(0.736181 -0.164642 1.22051e-17)
(0.861082 -0.235619 1.3282e-17)
(1.01477 -0.196586 -5.46505e-17)
(1.15585 -0.137794 -4.81918e-17)
(0.892972 0.16842 5.05527e-20)
(0.882828 0.174423 -2.1136e-20)
(0.872425 0.180961 -6.14572e-20)
(0.85921 0.189227 1.88094e-19)
(0.842079 0.196965 1.0533e-18)
(0.819267 0.202841 1.53932e-18)
(0.788857 0.2014 6.02358e-19)
(0.748067 0.181535 5.90443e-18)
(0.704608 0.127919 -7.33956e-18)
(0.67353 0.0450453 -4.5188e-17)
(0.669147 -0.0721094 2.30015e-17)
(0.730969 -0.186805 -3.09283e-17)
(0.863136 -0.24907 -4.10686e-17)
(1.021 -0.196061 9.68355e-17)
(1.16524 -0.135374 -4.0763e-17)
(0.886654 0.170724 -2.56287e-20)
(0.876124 0.177465 -1.64879e-19)
(0.865117 0.184876 1.69931e-19)
(0.850929 0.194184 -8.64643e-19)
(0.832048 0.202606 3.67298e-19)
(0.806535 0.208769 5.28064e-19)
(0.771971 0.205683 2.56623e-18)
(0.726495 0.179433 1.13589e-18)
(0.681167 0.113056 -4.01108e-18)
(0.654642 0.022879 4.79276e-18)
(0.655753 -0.098508 -2.79922e-17)
(0.726461 -0.208323 2.47907e-18)
(0.864125 -0.262419 4.03359e-17)
(1.02619 -0.191463 -9.53442e-17)
(1.17329 -0.134256 4.52296e-17)
(0.880542 0.172481 -3.35936e-20)
(0.869528 0.179921 2.86333e-19)
(0.857807 0.188403 -7.3078e-19)
(0.842322 0.198869 6.40326e-19)
(0.821506 0.208356 -1.61143e-18)
(0.793081 0.214725 -1.07157e-19)
(0.753789 0.208921 -3.94196e-19)
(0.703437 0.175279 -7.87367e-18)
(0.6575 0.0958231 7.04976e-18)
(0.637432 0.000820158 2.46222e-17)
(0.643115 -0.122359 3.55219e-17)
(0.722062 -0.225579 1.06461e-17)
(0.863228 -0.269607 -5.8685e-17)
(1.02852 -0.185053 6.08248e-17)
(1.17883 -0.121375 -8.62116e-18)
(0.874437 0.173751 -9.20662e-20)
(0.862942 0.182044 -3.75389e-20)
(0.850345 0.191808 6.03298e-19)
(0.833485 0.20367 -6.30413e-19)
(0.81049 0.214029 -2.21128e-18)
(0.778523 0.220269 2.20351e-18)
(0.734397 0.21162 -9.03916e-18)
(0.679587 0.169743 5.75604e-18)
(0.63407 0.0746862 -3.40433e-18)
(0.622028 -0.0228957 6.20961e-18)
(0.631178 -0.148475 1.38273e-17)
(0.71788 -0.241285 3.75302e-19)
(0.860041 -0.275502 7.86715e-17)
(1.02862 -0.173969 6.34388e-17)
(1.1822 -0.11101 3.72998e-17)
(0.8681 0.174648 9.66091e-20)
(0.856133 0.183763 -2.21307e-20)
(0.842648 0.194854 -1.42195e-19)
(0.824154 0.208173 3.56283e-19)
(0.798457 0.219517 1.8367e-18)
(0.762641 0.225068 -6.19051e-18)
(0.713719 0.212955 1.55668e-18)
(0.655111 0.161922 -2.14304e-18)
(0.612 0.052619 -9.91933e-18)
(0.609648 -0.0424315 1.45578e-17)
(0.619324 -0.167323 -7.58087e-17)
(0.712055 -0.248445 2.34386e-18)
(0.855312 -0.261701 -4.1125e-17)
(1.02523 -0.154752 -1.45611e-16)
(1.1822 -0.0892982 -2.72963e-17)
(0.86143 0.174843 4.69834e-20)
(0.848908 0.184901 -2.2035e-20)
(0.834307 0.197699 -5.0948e-19)
(0.813876 0.212752 1.44149e-18)
(0.785298 0.224445 5.04347e-19)
(0.745299 0.228771 5.31184e-18)
(0.691957 0.213204 1.45926e-18)
(0.631121 0.152785 2.22683e-19)
(0.592117 0.0286042 1.15555e-17)
(0.599834 -0.0606727 -3.929e-17)
(0.607527 -0.190725 7.51731e-17)
(0.704002 -0.250402 -6.22588e-18)
(0.856423 -0.233324 -4.67658e-18)
(1.02762 -0.121903 7.18809e-17)
(1.18389 -0.0651148 9.09392e-17)
(0.853921 0.174519 -1.351e-20)
(0.840766 0.185914 9.47766e-20)
(0.824894 0.200365 -5.98679e-19)
(0.802264 0.216888 9.58165e-19)
(0.770508 0.228581 -1.34659e-18)
(0.726978 0.231016 -1.73205e-18)
(0.669593 0.211445 -7.53584e-18)
(0.608207 0.141823 -7.45538e-18)
(0.576484 0.00815787 1.38197e-17)
(0.593746 -0.0688046 -1.97591e-17)
(0.595229 -0.187885 -5.49118e-17)
(0.698531 -0.219646 4.46861e-18)
(0.866193 -0.165081 -7.47995e-17)
(1.03538 -0.0684612 -5.96274e-17)
(1.18765 -0.0216138 -1.71806e-16)
(0.845043 0.173816 -1.03409e-19)
(0.831223 0.18637 1.65195e-20)
(0.81407 0.202583 3.4044e-19)
(0.789339 0.220379 8.57755e-19)
(0.754304 0.230624 6.41614e-19)
(0.707968 0.230965 -6.51374e-19)
(0.648043 0.20918 7.37218e-18)
(0.588096 0.131596 7.55635e-18)
(0.566276 -0.0080377 -2.39631e-17)
(0.587109 -0.0702708 -7.95214e-19)
(0.601742 -0.182555 2.1636e-17)
(0.726287 -0.18421 -1.27527e-18)
(0.903974 -0.0828095 5.08868e-17)
(1.0625 -0.00676926 1.46788e-16)
(1.20098 0.0222938 4.78564e-17)
(0.834604 0.172211 5.40175e-21)
(0.820111 0.186311 -3.96001e-20)
(0.801453 0.20414 6.39825e-19)
(0.774191 0.221878 -3.22005e-18)
(0.736866 0.229322 -3.64512e-19)
(0.689389 0.230444 -1.28614e-18)
(0.628075 0.204643 -6.85282e-19)
(0.571643 0.121958 4.29125e-18)
(0.564707 -0.0109932 1.2755e-17)
(0.581829 -0.0597339 -4.1932e-17)
(0.630986 -0.148039 2.04388e-18)
(0.770881 -0.0904459 -1.62109e-18)
(0.950107 0.000547478 3.5829e-17)
(1.09679 0.0486768 -4.59489e-18)
(1.21903 0.0761267 2.54703e-18)
(0.822093 0.169788 8.75008e-20)
(0.806571 0.18523 -1.29138e-19)
(0.786297 0.204003 -9.94179e-19)
(0.756402 0.220001 1.5498e-18)
(0.718287 0.223413 -7.70309e-19)
(0.670368 0.227076 1.96398e-18)
(0.6109 0.19865 -7.18158e-18)
(0.560448 0.115238 -2.97303e-17)
(0.572437 0.00133422 -2.59384e-17)
(0.575499 -0.0528183 1.33012e-16)
(0.669111 -0.0852201 -1.48487e-17)
(0.809819 0.0158419 3.31748e-18)
(0.986026 0.0615479 -6.66303e-19)
(1.12405 0.0951361 -1.7153e-16)
(1.23522 0.120509 4.37219e-17)
(0.806966 0.166732 -2.55468e-19)
(0.790528 0.183305 1.35679e-19)
(0.767444 0.201446 4.38742e-19)
(0.734924 0.212605 3.48843e-18)
(0.699789 0.216959 -1.7495e-18)
(0.652493 0.219354 7.01021e-18)
(0.596288 0.188413 1.2146e-17)
(0.556496 0.113639 5.2777e-17)
(0.592587 0.0385089 6.60656e-17)
(0.573979 -0.021895 -8.81643e-17)
(0.701449 0.0314189 -1.07526e-17)
(0.83806 0.0820464 8.26277e-19)
(1.00689 0.107224 2.17668e-17)
(1.13717 0.135769 1.82305e-16)
(1.24262 0.171126 3.49359e-17)
(0.788782 0.162929 1.94441e-19)
(0.770013 0.179552 -6.03751e-20)
(0.744155 0.194846 -5.35424e-19)
(0.712729 0.201756 -4.314e-18)
(0.679576 0.206184 9.62239e-19)
(0.632786 0.20135 -6.48801e-18)
(0.588077 0.17914 2.11417e-17)
(0.561703 0.119903 -2.0903e-17)
(0.620136 0.0992341 -6.71505e-17)
(0.581628 0.0206331 5.47157e-17)
(0.708485 0.0756819 -4.52869e-18)
(0.851844 0.10506 -4.0167e-18)
(1.0125 0.148288 5.47026e-19)
(1.13696 0.177642 -1.39983e-16)
(1.24135 0.215803 -9.93315e-17)
(0.766207 0.157376 2.96187e-19)
(0.744462 0.172447 5.63875e-19)
(0.71605 0.182111 2.81323e-19)
(0.688121 0.186662 -1.38486e-19)
(0.655511 0.185808 5.42045e-18)
(0.613762 0.17462 1.28835e-18)
(0.581787 0.162206 1.39839e-17)
(0.580373 0.140739 6.79488e-18)
(0.65634 0.186064 3.81546e-17)
(0.609713 0.100391 -2.81699e-17)
(0.727329 0.154877 3.29392e-18)
(0.862328 0.1802 -9.30188e-18)
(1.00976 0.22883 -6.57519e-17)
(1.1264 0.246826 -1.56014e-16)
(1.23028 0.281315 1.91738e-17)
(0.737934 0.149048 -2.38714e-19)
(0.712378 0.160155 -2.60032e-20)
(0.686371 0.164922 9.97604e-20)
(0.657969 0.160368 -1.31354e-18)
(0.62693 0.151819 -7.87181e-18)
(0.59127 0.135114 8.97942e-18)
(0.578604 0.14556 -1.52156e-17)
(0.61539 0.181784 -5.76274e-17)
(0.696747 0.288345 -3.21373e-17)
(0.660371 0.229711 -6.25191e-18)
(0.752718 0.27297 1.16239e-17)
(0.86859 0.299311 -1.03749e-17)
(0.998286 0.34263 1.24059e-16)
(1.10649 0.34553 2.65482e-16)
(1.21278 0.356989 -8.48282e-17)
(0.701489 0.136775 -1.30577e-19)
(0.675646 0.142911 -6.87925e-19)
(0.65021 0.141816 -5.97375e-19)
(0.618541 0.119436 1.74388e-18)
(0.595004 0.102883 6.94982e-18)
(0.569121 0.0894135 -3.06302e-17)
(0.573022 0.121781 -2.332e-17)
(0.662966 0.238667 7.39016e-17)
(0.746313 0.416605 1.99941e-17)
(0.729863 0.43119 1.2902e-17)
(0.777288 0.449688 -9.87585e-19)
(0.865487 0.466068 4.63804e-17)
(0.974631 0.494217 -1.33784e-16)
(1.07553 0.482754 -1.50097e-16)
(1.18507 0.455218 5.8489e-17)
(0.658792 0.120521 -1.65629e-19)
(0.638612 0.120156 9.28352e-19)
(0.60402 0.103462 3.72924e-19)
(0.57758 0.0633887 -1.23877e-18)
(0.563641 0.0396066 -5.74629e-18)
(0.546183 0.0350607 2.44785e-17)
(0.550193 0.0837221 -1.10032e-17)
(0.701719 0.310987 -4.19754e-17)
(0.784668 0.556936 1.56277e-17)
(0.791672 0.676782 -1.22668e-17)
(0.776698 0.641141 7.92156e-19)
(0.83462 0.644784 -5.95615e-17)
(0.925818 0.657069 1.64048e-16)
(1.02507 0.629398 1.09544e-16)
(1.14569 0.548381 6.37967e-18)
(0.600971 0.0929371 3.0099e-19)
(0.58422 0.0789715 -4.164e-19)
(0.562339 0.0418399 8.45281e-19)
(0.556139 -0.0146324 4.13129e-18)
(0.546385 -0.0351125 4.35114e-18)
(0.534784 -0.0147495 -9.97184e-18)
(0.540026 0.0918642 -4.91633e-19)
(0.653687 0.346036 5.21378e-18)
(0.689162 0.592643 -8.54356e-18)
(0.722514 0.80031 1.06927e-17)
(0.681439 0.747937 1.55894e-18)
(0.741608 0.780031 1.93899e-17)
(0.833741 0.801495 -1.56492e-16)
(0.942065 0.769239 3.11116e-17)
(1.08136 0.633258 4.7481e-17)
(0.521153 0.0343859 -1.10752e-19)
(0.543274 1.65637e-05 -8.15473e-19)
(0.609109 -0.0546991 -2.07232e-18)
(0.685165 -0.0911361 -3.1748e-18)
(0.67446 -0.062427 1.56442e-18)
(0.651084 0.0408137 2.03218e-18)
(0.603944 0.191935 7.79382e-18)
(0.417889 0.269687 3.5956e-18)
(0.340078 0.425982 -7.57679e-18)
(0.401462 0.629855 3.99004e-18)
(0.437115 0.666894 2.2189e-17)
(0.557419 0.7958 4.09985e-17)
(0.680826 0.863146 4.72849e-17)
(0.812464 0.82879 -7.52436e-17)
(0.976233 0.645632 5.31283e-17)
(0.157216 -0.0901512 7.80986e-20)
(0.110341 -0.165922 4.67478e-19)
(0.0795844 -0.295363 1.78687e-18)
(-0.00762226 -0.377162 -6.26343e-19)
(0.14942 -0.261484 -4.14097e-18)
(0.127475 -0.154764 8.70366e-18)
(0.0411556 -0.0709925 6.33352e-18)
(-0.216745 -0.183414 -2.07582e-20)
(-0.1649 0.0557729 5.93044e-18)
(-0.00980835 0.269768 -1.78891e-17)
(0.149358 0.497546 -3.85702e-17)
(0.310369 0.646746 -3.03443e-17)
(0.465602 0.699833 3.08258e-17)
(0.613336 0.665226 -7.30034e-18)
(0.780749 0.495856 1.36916e-17)
(-0.295017 -0.200637 -2.36248e-20)
(-0.187285 -0.356532 9.55156e-20)
(-0.369939 -0.535457 6.00852e-20)
(-0.590105 -0.602377 1.36372e-18)
(-0.677391 -0.613296 1.51519e-18)
(-0.592308 -0.53403 -1.28847e-18)
(-0.428266 -0.425274 -2.55838e-18)
(0.0191675 0.0625814 -2.01035e-17)
(0.303613 0.887473 -7.1149e-17)
(0.167985 0.681119 7.76766e-17)
(0.17735 0.472978 -1.66999e-16)
(0.193039 0.436199 2.85346e-17)
(0.251845 0.37943 -3.75295e-16)