/*--------------------------------*- C++ -*----------------------------------*\
  =========                 |
  \\      /  F ield         | OpenFOAM: The Open Source CFD Toolbox
   \\    /   O peration     | Website:  https://openfoam.org
    \\  /    A nd           | Version:  6.0
     \\/     M anipulation  |
\*---------------------------------------------------------------------------*/
FoamFile
{
    version     2.0;
    format      ascii;
    class       volScalarField;
    location    "15";
    object      p;
}
// * * * * * * * * * * * * * * * * * * * * * * * * * * * * * * * * * * * * * //

dimensions      [0 2 -2 0 0 0 0];

internalField   nonuniform List<scalar> 
62000
(
0.0152304
0.0153015
0.0153729
0.0154416
0.0155081
0.0155697
0.0156274
0.0156793
0.0157268
0.0157673
0.0158029
0.0158309
0.0158534
0.0158674
0.0158747
0.015872
0.0158611
0.0158387
0.015806
0.0157602
0.0157016
0.0156273
0.0155363
0.0154261
0.0152938
0.015137
0.0149511
0.0147333
0.0144778
0.0141808
0.0138347
0.0134333
0.0129692
0.0124369
0.0118307
0.0111436
0.0103698
0.00950625
0.00855122
0.00750481
0.00636939
0.00515106
0.00385987
0.00251047
0.00112248
-0.000280452
-0.00166942
-0.00301296
-0.00427996
-0.00543573
-0.00646133
-0.00732372
-0.00801196
-0.00846288
-0.00866524
-0.0085364
-0.00809097
-0.00707118
-0.0061779
-0.0104799
0.0150657
0.0151381
0.0152133
0.01529
0.0153676
0.0154424
0.0155152
0.0155836
0.0156484
0.0157061
0.0157571
0.0157988
0.0158331
0.0158579
0.0158757
0.0158836
0.0158837
0.015873
0.0158529
0.0158202
0.0157758
0.0157166
0.0156419
0.0155489
0.0154354
0.0152984
0.0151341
0.0149388
0.0147078
0.0144362
0.0141179
0.0137454
0.0133125
0.012812
0.0122367
0.0115784
0.0108317
0.00999218
0.0090564
0.00802181
0.00688811
0.00565836
0.00433932
0.00294221
0.00148321
-1.66879e-05
-0.00153022
-0.00302572
-0.00446952
-0.00582183
-0.00705744
-0.0081336
-0.00902736
-0.00965201
-0.00998913
-0.00991661
-0.00943291
-0.0083216
-0.0076735
-0.00770245
0.0147786
0.0148316
0.0148894
0.0149535
0.0150236
0.0150957
0.01517
0.0152454
0.0153222
0.0153963
0.0154657
0.0155252
0.0155751
0.0156129
0.0156415
0.015659
0.0156682
0.0156659
0.0156544
0.0156301
0.0155943
0.0155436
0.0154779
0.015394
0.0152903
0.0151635
0.0150103
0.0148272
0.0146098
0.0143537
0.0140528
0.0137013
0.0132921
0.012819
0.0122733
0.0116478
0.0109378
0.0101397
0.00924992
0.00826567
0.0071864
0.00601484
0.00475724
0.00342395
0.00203017
0.000596164
-0.000851348
-0.00227992
-0.00365409
-0.00493108
-0.00608214
-0.00706581
-0.00785588
-0.00838448
-0.00867847
-0.00867939
-0.00846468
-0.00803448
-0.0086519
-0.00998426
0.01446
0.0144938
0.0145347
0.0145864
0.0146479
0.0147145
0.0147851
0.0148597
0.0149408
0.0150258
0.0151116
0.0151905
0.0152594
0.0153145
0.0153576
0.015388
0.0154087
0.0154182
0.0154181
0.0154056
0.0153815
0.0153425
0.0152884
0.0152161
0.0151241
0.0150091
0.0148683
0.0146982
0.0144949
0.0142544
0.0139713
0.0136395
0.0132534
0.0128056
0.012288
0.0116935
0.0110182
0.0102586
0.0094109
0.00847167
0.00743982
0.0063171
0.0051082
0.00382106
0.00246758
0.00106417
-0.00036711
-0.00179822
-0.00319726
-0.00452355
-0.00574743
-0.0068284
-0.00773557
-0.00840869
-0.00889661
-0.00917635
-0.00934986
-0.00948876
-0.0107137
-0.011871
0.0140793
0.0141026
0.0141353
0.0141817
0.0142416
0.0143082
0.0143781
0.0144505
0.0145306
0.0146191
0.0147144
0.0148075
0.0148927
0.0149627
0.0150185
0.0150588
0.0150882
0.0151056
0.0151139
0.0151101
0.0150954
0.0150662
0.0150222
0.0149601
0.0148783
0.0147738
0.0146436
0.0144847
0.0142931
0.0140655
0.0137964
0.0134807
0.0131118
0.0126831
0.0121865
0.0116154
0.0109664
0.0102361
0.00941988
0.0085141
0.00751709
0.00642969
0.005255
0.00399835
0.0026679
0.00127506
-0.000164588
-0.00162998
-0.00309669
-0.00452872
-0.00589898
-0.0071636
-0.00828378
-0.00918721
-0.00991605
-0.0104382
-0.0108286
-0.0111803
-0.0123764
-0.013235
0.0137297
0.0137467
0.0137721
0.0138123
0.0138692
0.0139353
0.0140042
0.0140731
0.0141484
0.0142342
0.0143316
0.0144323
0.0145279
0.0146085
0.0146719
0.0147167
0.0147472
0.0147643
0.0147714
0.0147672
0.0147524
0.014724
0.0146812
0.0146208
0.014541
0.0144387
0.014311
0.0141548
0.0139666
0.0137429
0.013479
0.013169
0.0128074
0.0123871
0.0119004
0.0113416
0.0107078
0.00999593
0.00920146
0.00832088
0.00735304
0.00629925
0.00516285
0.00394875
0.0026638
0.00131699
-8.04134e-05
-0.00151324
-0.00296465
-0.00440596
-0.00581613
-0.00715446
-0.00838287
-0.00942396
-0.010316
-0.0110256
-0.0116169
-0.0122453
-0.0137252
-0.0149554
0.0133929
0.0134084
0.0134297
0.0134642
0.0135176
0.0135832
0.0136522
0.0137195
0.0137909
0.0138733
0.0139713
0.0140781
0.0141847
0.014278
0.0143531
0.014406
0.0144407
0.0144582
0.0144637
0.0144562
0.0144377
0.0144054
0.0143589
0.014295
0.0142119
0.0141064
0.0139759
0.0138172
0.0136269
0.0134018
0.0131367
0.0128269
0.0124658
0.0120465
0.0115619
0.0110067
0.0103788
0.00967527
0.00889206
0.00802616
0.00707739
0.00604848
0.00494438
0.00377153
0.00253805
0.00125339
-7.23698e-05
-0.00142718
-0.00280074
-0.00417203
-0.00553118
-0.00684735
-0.00809687
-0.00921352
-0.0102533
-0.0112034
-0.0121387
-0.0132677
-0.0153393
-0.0171758
0.0130647
0.0130825
0.0131013
0.013129
0.0131749
0.0132354
0.0133007
0.0133636
0.0134287
0.0135046
0.0135987
0.0137074
0.0138216
0.0139275
0.0140165
0.014083
0.0141282
0.014154
0.0141648
0.0141613
0.0141454
0.0141153
0.0140705
0.014008
0.0139261
0.013822
0.0136928
0.0135358
0.0133474
0.0131244
0.0128623
0.0125552
0.0121973
0.0117815
0.0112997
0.0107472
0.0101222
0.00942136
0.00864029
0.007776
0.00682863
0.00580183
0.00470194
0.00353721
0.00231782
0.00105527
-0.000239358
-0.00155462
-0.00288398
-0.00421305
-0.00554243
-0.00685529
-0.00814747
-0.00937383
-0.0106129
-0.0118752
-0.0132302
-0.0148767
-0.0174261
-0.0197263
0.0126418
0.012669
0.0126924
0.0127183
0.0127601
0.0128164
0.0128783
0.0129363
0.0129941
0.0130601
0.0131452
0.0132481
0.0133625
0.013474
0.0135736
0.0136522
0.0137108
0.0137489
0.0137716
0.013779
0.013774
0.0137544
0.0137203
0.0136683
0.0135971
0.0135036
0.0133852
0.0132393
0.0130622
0.0128511
0.0126007
0.0123062
0.0119607
0.011556
0.011085
0.0105415
0.00992315
0.00922587
0.00844398
0.00757327
0.00661291
0.00556598
0.00443876
0.00323999
0.00198111
0.000675406
-0.000664291
-0.00202523
-0.00340199
-0.00478252
-0.00617474
-0.00756973
-0.00898003
-0.0103745
-0.0118473
-0.0134147
-0.0151127
-0.0170892
-0.0198154
-0.0223183
0.0121775
0.0122154
0.0122436
0.0122674
0.0123022
0.0123502
0.0124036
0.0124521
0.0124978
0.0125488
0.0126167
0.0127035
0.0128046
0.0129076
0.0130025
0.0130807
0.0131409
0.0131828
0.0132107
0.0132254
0.0132292
0.0132204
0.0131984
0.0131601
0.0131035
0.0130254
0.0129233
0.0127944
0.0126351
0.0124422
0.0122112
0.0119359
0.0116099
0.0112252
0.0107722
0.0102451
0.00963986
0.0089508
0.00817021
0.00729163
0.00631206
0.00523249
0.00405748
0.00279455
0.00145485
5.24399e-05
-0.00139831
-0.00288238
-0.00439258
-0.0059154
-0.00745902
-0.00901614
-0.0106056
-0.0122001
-0.0138935
-0.0156904
-0.0175774
-0.0196526
-0.0223173
-0.0248186
0.0116008
0.0116507
0.011687
0.0117129
0.011745
0.0117877
0.0118348
0.0118758
0.011911
0.0119479
0.0119986
0.0120661
0.0121482
0.0122335
0.0123134
0.0123784
0.0124279
0.0124605
0.0124812
0.0124906
0.0124918
0.012483
0.0124641
0.0124313
0.0123827
0.0123147
0.0122245
0.012109
0.0119646
0.0117883
0.0115746
0.0113185
0.0110126
0.0106476
0.0102152
0.00970703
0.00911833
0.00844149
0.00766646
0.0067841
0.0057885
0.00467763
0.00345309
0.00211976
0.000686997
-0.000831762
-0.00242141
-0.00406447
-0.0057507
-0.00746138
-0.00920067
-0.0109544
-0.0127397
-0.0145214
-0.0163836
-0.018311
-0.0202456
-0.0222671
-0.0247614
-0.0271442
0.0109824
0.0110398
0.0110808
0.011107
0.0111348
0.0111706
0.01121
0.0112429
0.0112687
0.0112935
0.0113286
0.0113779
0.0114392
0.011503
0.0115602
0.0116028
0.0116291
0.0116392
0.0116376
0.0116262
0.0116085
0.0115836
0.0115515
0.0115088
0.0114532
0.0113812
0.0112894
0.0111749
0.0110337
0.0108626
0.0106565
0.0104094
0.0101144
0.00976294
0.00934429
0.00885073
0.0082759
0.0076105
0.00684234
0.00595969
0.00495371
0.00381917
0.00255426
0.00116053
-0.000355475
-0.00198192
-0.00370395
-0.00550218
-0.00736282
-0.00926089
-0.0111929
-0.013135
-0.0150958
-0.0170294
-0.0190037
-0.0209864
-0.0228877
-0.0247978
-0.0271157
-0.0293388
0.0102612
0.0103241
0.0103707
0.0104005
0.010429
0.0104628
0.0104994
0.0105287
0.0105498
0.0105676
0.0105934
0.01063
0.0106766
0.0107224
0.0107602
0.0107804
0.0107827
0.0107659
0.010736
0.0106947
0.0106469
0.0105925
0.0105323
0.0104635
0.0103845
0.0102913
0.0101811
0.0100506
0.00989586
0.00971386
0.00949878
0.00924593
0.00894778
0.00859456
0.00817787
0.00768794
0.00711826
0.00645834
0.0056944
0.00481268
0.00380181
0.00265369
0.00136334
-7.11987e-05
-0.00164654
-0.0033533
-0.00517777
-0.00709958
-0.00910226
-0.0111545
-0.0132458
-0.0153397
-0.0174373
-0.0194783
-0.021518
-0.0235124
-0.0253555
-0.0271674
-0.0293504
-0.0314126
0.00955808
0.00961871
0.00966316
0.00969031
0.00971374
0.00974047
0.00976943
0.00979145
0.00980547
0.00981581
0.00983269
0.00985894
0.00989264
0.00992387
0.00994385
0.00994406
0.00992252
0.00987911
0.00981895
0.00974493
0.00966208
0.00957132
0.00947429
0.00936879
0.00925383
0.009126
0.00898264
0.00882068
0.00863655
0.00842697
0.00818712
0.00791131
0.00759271
0.00722345
0.00679264
0.00629238
0.00571551
0.00505084
0.00428374
0.00339916
0.00238394
0.00122784
-7.6672e-05
-0.00153459
-0.00314569
-0.00490321
-0.00679526
-0.00880155
-0.0109041
-0.013067
-0.0152731
-0.0174764
-0.0196701
-0.0217845
-0.023864
-0.0258605
-0.0276605
-0.0294163
-0.0315199
-0.033444
0.00878897
0.00884442
0.00888574
0.00891071
0.00893073
0.00895259
0.0089758
0.00899216
0.00900059
0.00900534
0.00901639
0.00903609
0.0090627
0.00908511
0.00909507
0.00908235
0.00904533
0.00898222
0.0088986
0.00879658
0.00868199
0.00855595
0.00842101
0.00827563
0.00811959
0.00795004
0.00776486
0.00756145
0.00733648
0.00708746
0.006809
0.00649714
0.00614499
0.00574341
0.005285
0.00476032
0.00416322
0.00348242
0.0027031
0.00180967
0.000787918
-0.000373764
-0.00168469
-0.00315231
-0.00477912
-0.0065611
-0.00848856
-0.0105422
-0.0127039
-0.014935
-0.0172146
-0.0194883
-0.0217457
-0.0239091
-0.0260173
-0.0280223
-0.0298084
-0.0315568
-0.0336257
-0.0354377
0.00803295
0.00807782
0.00811015
0.00812759
0.00813923
0.00815171
0.00816548
0.00817323
0.00817399
0.00817213
0.00817692
0.0081909
0.0082111
0.00822715
0.00822894
0.00820701
0.00815783
0.00808022
0.00797821
0.00785433
0.00771368
0.00755781
0.0073893
0.00720713
0.00701153
0.00680012
0.00657138
0.0063231
0.00605265
0.00575762
0.00543398
0.00507703
0.00468082
0.0042388
0.00374109
0.00318108
0.00255273
0.00184508
0.00104369
0.000133105
-0.000901268
-0.00207163
-0.00338829
-0.0048604
-0.00649265
-0.0082834
-0.0102253
-0.0123007
-0.0144926
-0.0167613
-0.0190839
-0.0214016
-0.0237018
-0.0259039
-0.0280436
-0.0300753
-0.0318805
-0.0336598
-0.0357271
-0.0374552
0.00719516
0.00722999
0.00725569
0.00726863
0.00727625
0.00728376
0.0072923
0.00729445
0.00729022
0.0072834
0.00728422
0.00729425
0.00731162
0.00732421
0.00732316
0.00729689
0.00724269
0.00715727
0.00704508
0.00690715
0.00674885
0.00657107
0.00637666
0.00616461
0.00593548
0.00568716
0.00541855
0.00512788
0.00481285
0.00447197
0.0041008
0.0036966
0.00325362
0.00276395
0.00222186
0.00161942
0.00095219
0.000209951
-0.000621028
-0.00155567
-0.00260839
-0.00379147
-0.00511559
-0.00659099
-0.008224
-0.0100151
-0.0119592
-0.0140404
-0.0162439
-0.0185305
-0.0208777
-0.0232229
-0.0255559
-0.0277937
-0.0299711
-0.0320453
-0.0338946
-0.0357313
-0.0378132
-0.0394789
0.00640471
0.00642503
0.00643785
0.0064397
0.00643609
0.00643184
0.00642873
0.00641998
0.00640578
0.00639023
0.0063831
0.0063864
0.00639725
0.00640453
0.00639777
0.00636647
0.00630626
0.00621466
0.00609452
0.0059471
0.00577665
0.00558388
0.00537108
0.00513706
0.00488227
0.00460457
0.00430306
0.00397613
0.00362198
0.00323906
0.00282439
0.00237437
0.0018842
0.00134888
0.000759907
0.000112613
-0.00059716
-0.0013788
-0.00224508
-0.00321011
-0.00428776
-0.00548994
-0.00682725
-0.00831042
-0.00994692
-0.0117388
-0.0136831
-0.0157659
-0.0179746
-0.0202719
-0.0226364
-0.0250044
-0.0273684
-0.0296462
-0.0318721
-0.0340055
-0.0359177
-0.0378259
-0.0399315
-0.0415542
0.00554845
0.00555534
0.00555732
0.00555034
0.00553814
0.00552497
0.00551244
0.0054944
0.00547125
0.00544747
0.00543317
0.00543018
0.00543621
0.00543909
0.00542937
0.00539507
0.00533266
0.00523806
0.00511455
0.0049621
0.00478502
0.00458317
0.00435866
0.00410988
0.00383702
0.0035378
0.00321126
0.00285579
0.00246962
0.00205185
0.00159883
0.0011088
0.000577111
-3.00865e-06
-0.000635646
-0.00132702
-0.00207964
-0.00290193
-0.00380575
-0.00480427
-0.00591068
-0.00713633
-0.00849147
-0.00998699
-0.0116311
-0.013427
-0.0153737
-0.0174589
-0.0196728
-0.02198
-0.0243619
-0.0267532
-0.0291518
-0.0314753
-0.0337578
-0.0359596
-0.0379438
-0.0399288
-0.0420572
-0.0436506
0.00470773
0.00469887
0.00468633
0.00466644
0.00464131
0.00461501
0.00458961
0.00455961
0.00452551
0.00449222
0.00446932
0.00445911
0.00445814
0.00445538
0.00443974
0.00440065
0.00433316
0.00423443
0.00410648
0.00394979
0.00376771
0.00355995
0.00332792
0.00306963
0.00278481
0.00247082
0.00212647
0.0017499
0.00133949
0.000893867
0.000410586
-0.000113357
-0.000681891
-0.00129894
-0.00197187
-0.00270367
-0.00349682
-0.00435892
-0.0053009
-0.00633505
-0.00747375
-0.00872769
-0.0101066
-0.0116212
-0.0132802
-0.0150876
-0.0170438
-0.0191381
-0.0213635
-0.0236866
-0.0260911
-0.0285123
-0.0309517
-0.0333288
-0.0356766
-0.0379553
-0.0400173
-0.0420791
-0.0442298
-0.0458067
0.00376718
0.0037461
0.00372427
0.00369695
0.00366538
0.0036322
0.00359984
0.00356238
0.00352136
0.00348116
0.0034526
0.00343694
0.00343207
0.0034251
0.00340669
0.00336437
0.00329475
0.00319335
0.00306327
0.00290384
0.0027189
0.00250741
0.00227077
0.00200648
0.00171398
0.00139022
0.00103371
0.000642328
0.00021408
-0.000252072
-0.000759608
-0.00130999
-0.00190729
-0.00255771
-0.00326426
-0.00403194
-0.00486187
-0.00576087
-0.00673913
-0.00780822
-0.00897975
-0.0102638
-0.0116696
-0.0132077
-0.0148869
-0.016712
-0.0186843
-0.0207946
-0.0230383
-0.0253838
-0.0278182
-0.0302752
-0.0327625
-0.0351993
-0.0376171
-0.0399747
-0.0421139
-0.0442488
-0.0464165
-0.047986
0.00286933
0.00283323
0.00279719
0.00275687
0.00271233
0.00266602
0.00262082
0.00257124
0.00251894
0.00246874
0.00243095
0.00240733
0.00239459
0.00238097
0.00235547
0.00230715
0.00223127
0.00212483
0.00198986
0.0018265
0.00163785
0.00142295
0.00118266
0.000914207
0.000616584
0.000286349
-7.83337e-05
-0.000480001
-0.00092071
-0.00140228
-0.00192723
-0.00249865
-0.00312019
-0.00379541
-0.00453117
-0.00532942
-0.00619172
-0.00712431
-0.00813678
-0.00924007
-0.0104452
-0.0117615
-0.0131979
-0.0147646
-0.0164704
-0.0183205
-0.0203172
-0.0224521
-0.024723
-0.0270998
-0.0295723
-0.0320735
-0.0346155
-0.0371182
-0.0396111
-0.0420509
-0.0442669
-0.0464711
-0.0486545
-0.0502261
0.00188813
0.00183971
0.00179319
0.00174381
0.00169053
0.00163542
0.00158096
0.00152214
0.00146085
0.00140228
0.00135718
0.001327
0.00130902
0.00129022
0.00126076
0.00120821
0.00112905
0.00101898
0.000881008
0.000714434
0.000522928
0.000305049
6.1769e-05
-0.000209981
-0.000511441
-0.000846337
-0.00121682
-0.00162573
-0.00207561
-0.00256808
-0.00310696
-0.00369397
-0.00433319
-0.00503089
-0.00578969
-0.00661401
-0.00750445
-0.00846677
-0.00951015
-0.0106452
-0.0118823
-0.0132305
-0.0146983
-0.0162958
-0.0180317
-0.0199114
-0.0219379
-0.0241038
-0.0264086
-0.0288235
-0.0313403
-0.0338919
-0.0364941
-0.0390665
-0.0416358
-0.0441561
-0.0464453
-0.0487133
-0.0509079
-0.052489
0.00091458
0.000852237
0.000792261
0.00073041
0.000664647
0.000597077
0.000530559
0.000460574
0.000389049
0.000321714
0.000268649
0.000231812
0.000207058
0.000182545
0.000146512
8.81622e-05
2.53714e-06
-0.000113017
-0.000256532
-0.000427688
-0.000623453
-0.000844972
-0.00109166
-0.0013667
-0.0016716
-0.00201039
-0.00238545
-0.00280001
-0.00325668
-0.00375795
-0.00430672
-0.00490659
-0.00556138
-0.0062749
-0.00705398
-0.00790023
-0.00881506
-0.00980395
-0.0108758
-0.0120411
-0.0133096
-0.0146902
-0.0161912
-0.0178223
-0.0195924
-0.0215067
-0.0235691
-0.0257725
-0.0281184
-0.0305781
-0.0331464
-0.0357546
-0.0384217
-0.0410676
-0.0437161
-0.0463177
-0.0486788
-0.0510076
-0.0532138
-0.0548126
-0.000175469
-0.000247167
-0.000314147
-0.000381663
-0.000452079
-0.000524575
-0.000596013
-0.000671523
-0.000748079
-0.000820559
-0.000877509
-0.000918206
-0.000945441
-0.000973224
-0.00101149
-0.00107314
-0.0011614
-0.00128057
-0.00142728
-0.00160218
-0.00180137
-0.00202647
-0.00227657
-0.00255504
-0.00286345
-0.00320601
-0.0035853
-0.00400476
-0.00446743
-0.00497556
-0.00553345
-0.00614335
-0.00680968
-0.00753907
-0.0083343
-0.00919971
-0.010136
-0.0111485
-0.012246
-0.0134388
-0.0147367
-0.0161483
-0.0176819
-0.0193472
-0.0211526
-0.0231039
-0.025205
-0.0274501
-0.0298409
-0.0323503
-0.0349731
-0.037642
-0.040377
-0.0430976
-0.045825
-0.0485052
-0.0509341
-0.0533194
-0.0555347
-0.0571588
-0.00122633
-0.0013101
-0.00138895
-0.00146759
-0.00154911
-0.00163266
-0.00171476
-0.00180014
-0.00188576
-0.00196596
-0.00202992
-0.00207639
-0.00210959
-0.00214235
-0.00218655
-0.00225351
-0.00234789
-0.00247238
-0.00262465
-0.00280434
-0.00300814
-0.00323736
-0.00349137
-0.00377358
-0.00408575
-0.00443227
-0.00481583
-0.00524015
-0.00570824
-0.00622319
-0.00678834
-0.00740788
-0.0080859
-0.00882679
-0.00963751
-0.0105198
-0.0114754
-0.0125095
-0.013631
-0.0148503
-0.0161769
-0.0176196
-0.0191863
-0.0208872
-0.0227301
-0.0247216
-0.0268649
-0.029156
-0.0315958
-0.0341597
-0.036841
-0.0395759
-0.0423807
-0.0451781
-0.0479858
-0.050745
-0.053241
-0.0556819
-0.0579081
-0.0595656
-0.00237093
-0.00246365
-0.00255005
-0.00263518
-0.00272284
-0.00281238
-0.00290078
-0.00299238
-0.00308396
-0.00316948
-0.00323768
-0.00328772
-0.00332325
-0.00335865
-0.00340459
-0.0034741
-0.00357054
-0.00369803
-0.0038531
-0.00403625
-0.00424346
-0.00447638
-0.00473413
-0.00502023
-0.00533644
-0.00568723
-0.0060754
-0.00650475
-0.0069787
-0.00749995
-0.00807326
-0.00870129
-0.009389
-0.0101433
-0.0109673
-0.0118653
-0.0128388
-0.0138928
-0.0150365
-0.0162802
-0.0176339
-0.0191059
-0.020705
-0.0224409
-0.0243215
-0.0263535
-0.0285402
-0.030879
-0.0333696
-0.0359902
-0.0387306
-0.0415337
-0.0444099
-0.0472844
-0.0501715
-0.0530071
-0.0555669
-0.0580605
-0.0602962
-0.0619954
-0.00351139
-0.0036148
-0.00371174
-0.00380663
-0.00390395
-0.0040028
-0.00409991
-0.00419917
-0.00429738
-0.00438799
-0.00446046
-0.00451349
-0.00455235
-0.00459025
-0.00463995
-0.00471286
-0.0048139
-0.00494546
-0.00510516
-0.00529246
-0.00550391
-0.00574085
-0.00600266
-0.00629289
-0.00661339
-0.00696878
-0.00736191
-0.00779678
-0.00827669
-0.00880513
-0.00938576
-0.0100233
-0.0107221
-0.011487
-0.012325
-0.0132381
-0.0142284
-0.0153015
-0.0164667
-0.0177345
-0.019115
-0.0206167
-0.0222485
-0.0240201
-0.0259397
-0.0280139
-0.0302461
-0.0326349
-0.0351791
-0.0378588
-0.0406613
-0.043535
-0.0464845
-0.0494377
-0.0524053
-0.0553181
-0.0579421
-0.0604893
-0.0627374
-0.0644856
-0.00477423
-0.00488325
-0.0049836
-0.0050807
-0.00517899
-0.00527886
-0.00537672
-0.00547728
-0.00557616
-0.00566761
-0.00573956
-0.00579225
-0.00582943
-0.00586688
-0.00591534
-0.00598866
-0.00608981
-0.00622306
-0.00638444
-0.00657453
-0.00678891
-0.00702938
-0.00729495
-0.00758931
-0.00791428
-0.00827455
-0.00867303
-0.00911376
-0.0096004
-0.010136
-0.0107255
-0.0113721
-0.0120811
-0.0128594
-0.0137103
-0.0146383
-0.0156452
-0.0167366
-0.0179222
-0.019213
-0.020619
-0.0221491
-0.0238126
-0.0256193
-0.0275772
-0.0296934
-0.0319711
-0.0344104
-0.0370081
-0.0397481
-0.0426113
-0.0455573
-0.0485811
-0.0516129
-0.0546601
-0.0576481
-0.0603341
-0.0629334
-0.0651944
-0.0669981
-0.00599097
-0.00610855
-0.00621743
-0.00632238
-0.00642833
-0.00653553
-0.00664007
-0.00674633
-0.00685
-0.00694483
-0.00701948
-0.00707368
-0.00711278
-0.0071514
-0.00720236
-0.00727791
-0.00738254
-0.00751888
-0.00768402
-0.00787753
-0.00809558
-0.00833967
-0.0086091
-0.00890756
-0.00923704
-0.00960232
-0.0100064
-0.0104534
-0.010947
-0.0114908
-0.0120887
-0.0127459
-0.0134667
-0.0142563
-0.0151217
-0.0160645
-0.0170878
-0.0181976
-0.0194038
-0.0207178
-0.0221497
-0.0237088
-0.0254045
-0.0272468
-0.0292441
-0.0314034
-0.0337279
-0.0362191
-0.0388722
-0.0416737
-0.0445998
-0.0476209
-0.05072
-0.0538319
-0.0569601
-0.0600246
-0.0627738
-0.0654275
-0.0677057
-0.069569
-0.0072986
-0.00742143
-0.00753419
-0.00764196
-0.00775017
-0.00785919
-0.00796564
-0.00807363
-0.00817866
-0.00827425
-0.00834855
-0.00840195
-0.00843913
-0.00847653
-0.00852563
-0.0086006
-0.00870451
-0.00884151
-0.00900748
-0.00920289
-0.00942314
-0.00967015
-0.00994293
-0.0102453
-0.0105792
-0.0109496
-0.0113595
-0.0118131
-0.0123142
-0.0128662
-0.0134742
-0.0141415
-0.0148736
-0.0156778
-0.0165566
-0.0175147
-0.0185546
-0.0196827
-0.0209092
-0.0222458
-0.023703
-0.0252901
-0.0270173
-0.0288946
-0.0309305
-0.0331322
-0.0355032
-0.0380459
-0.0407538
-0.0436171
-0.046605
-0.0497018
-0.0528777
-0.0560702
-0.0592792
-0.0624187
-0.06523
-0.067937
-0.0702347
-0.0721623
-0.00859195
-0.0087219
-0.00884168
-0.00895568
-0.0090698
-0.00918412
-0.009295
-0.00940618
-0.00951334
-0.00960945
-0.0096836
-0.00973567
-0.00977221
-0.00980837
-0.00985798
-0.00993339
-0.0100393
-0.0101782
-0.0103468
-0.0105447
-0.0107679
-0.0110179
-0.011294
-0.0116002
-0.0119385
-0.012314
-0.0127298
-0.0131903
-0.0136991
-0.0142603
-0.0148778
-0.0155567
-0.016302
-0.0171182
-0.0180124
-0.0189861
-0.0200432
-0.0211904
-0.0224379
-0.023798
-0.0252812
-0.0268974
-0.0286567
-0.0305698
-0.032645
-0.0348904
-0.0373086
-0.0399042
-0.0426681
-0.0455947
-0.0486464
-0.0518207
-0.0550753
-0.0583503
-0.0616417
-0.0648579
-0.0677333
-0.0704966
-0.0728184
-0.0748128
-0.0100038
-0.0101354
-0.0102545
-0.0103666
-0.0104772
-0.010588
-0.0106948
-0.0108025
-0.0109054
-0.0109977
-0.0110667
-0.0111142
-0.0111449
-0.011177
-0.011222
-0.0112948
-0.0113983
-0.0115366
-0.0117049
-0.0119039
-0.0121286
-0.0123809
-0.0126599
-0.0129697
-0.0133123
-0.013693
-0.0141149
-0.0145824
-0.0150996
-0.0156698
-0.0162982
-0.0169884
-0.0177457
-0.0185778
-0.0194864
-0.0204767
-0.0215518
-0.0227184
-0.023987
-0.0253704
-0.0268793
-0.028524
-0.030315
-0.0322632
-0.0343772
-0.0366655
-0.0391304
-0.0417783
-0.0445976
-0.0475874
-0.0507018
-0.053954
-0.0572891
-0.0606477
-0.0640218
-0.0673141
-0.0702529
-0.073072
-0.0754197
-0.0774857
-0.0113503
-0.011487
-0.0116111
-0.0117275
-0.0118422
-0.0119565
-0.012066
-0.0121754
-0.0122791
-0.0123707
-0.0124385
-0.0124837
-0.0125129
-0.0125429
-0.0125875
-0.0126601
-0.0127647
-0.012904
-0.0130742
-0.0132749
-0.0135016
-0.0137562
-0.0140381
-0.0143513
-0.0146982
-0.0150841
-0.0155123
-0.0159872
-0.0165128
-0.0170928
-0.0177316
-0.0184344
-0.0192062
-0.0200513
-0.020977
-0.0219847
-0.0230786
-0.0242656
-0.0255565
-0.0269643
-0.0285001
-0.0301743
-0.031998
-0.0339822
-0.0361361
-0.0384681
-0.040981
-0.0436821
-0.0465585
-0.0496125
-0.0527926
-0.0561241
-0.0595419
-0.0629859
-0.0664444
-0.0698144
-0.0728189
-0.075697
-0.078074
-0.0802134
-0.0127791
-0.0129171
-0.0130413
-0.0131568
-0.0132701
-0.0133824
-0.0134901
-0.0135974
-0.0136987
-0.0137874
-0.0138513
-0.0138921
-0.0139159
-0.0139414
-0.0139811
-0.0140502
-0.0141514
-0.0142888
-0.0144575
-0.014658
-0.0148853
-0.0151414
-0.0154256
-0.0157421
-0.0160934
-0.0164847
-0.0169195
-0.0174022
-0.0179368
-0.0185269
-0.0191778
-0.0198932
-0.0206784
-0.0215416
-0.0224833
-0.0235094
-0.0246227
-0.0258305
-0.0271439
-0.0285761
-0.0301385
-0.031842
-0.0336979
-0.0357178
-0.0379109
-0.0402862
-0.0428467
-0.0456004
-0.0485336
-0.0516516
-0.0548972
-0.0583082
-0.0618104
-0.0653412
-0.0688846
-0.0723323
-0.075402
-0.0783388
-0.0807461
-0.0829626
-0.0142032
-0.0143448
-0.014472
-0.0145892
-0.0147035
-0.0148156
-0.0149222
-0.015027
-0.015125
-0.0152087
-0.0152671
-0.0153012
-0.0153194
-0.0153389
-0.0153747
-0.0154402
-0.0155399
-0.015676
-0.0158448
-0.0160456
-0.0162741
-0.0165321
-0.016819
-0.0171393
-0.0174954
-0.0178927
-0.0183347
-0.0188259
-0.0193702
-0.0199717
-0.0206347
-0.0213646
-0.0221668
-0.0230445
-0.0240052
-0.02505
-0.0261836
-0.0274132
-0.0287502
-0.0302081
-0.0317985
-0.0335325
-0.035422
-0.0374786
-0.0397121
-0.0421317
-0.0447409
-0.0475485
-0.0505403
-0.0537237
-0.0570379
-0.0605299
-0.0641183
-0.0677375
-0.0713674
-0.0748944
-0.0780316
-0.08103
-0.0834697
-0.0857636
-0.0157954
-0.0159359
-0.0160556
-0.01616
-0.0162572
-0.0163509
-0.0164381
-0.016525
-0.0166056
-0.016674
-0.0167171
-0.0167386
-0.0167442
-0.0167541
-0.0167805
-0.0168398
-0.0169339
-0.0170672
-0.017234
-0.017435
-0.0176644
-0.0179249
-0.0182153
-0.0185402
-0.0189021
-0.0193065
-0.0197568
-0.0202575
-0.0208131
-0.0214267
-0.0221042
-0.0228491
-0.0236664
-0.024564
-0.0255421
-0.0266066
-0.027761
-0.0290129
-0.0303737
-0.0318573
-0.0334757
-0.0352401
-0.0371628
-0.0392557
-0.0415294
-0.0439929
-0.0466506
-0.0495117
-0.0525618
-0.0558108
-0.0591934
-0.0627666
-0.0664425
-0.0701513
-0.0738682
-0.0774749
-0.0806793
-0.0837388
-0.0862106
-0.0885837
-0.0170287
-0.0171767
-0.01731
-0.0174318
-0.0175482
-0.0176596
-0.0177629
-0.0178622
-0.0179529
-0.0180277
-0.0180763
-0.0181003
-0.018109
-0.0181205
-0.0181501
-0.0182115
-0.0183089
-0.018445
-0.0186151
-0.0188194
-0.0190527
-0.0193175
-0.019613
-0.019944
-0.0203129
-0.0207257
-0.0211855
-0.0216973
-0.022265
-0.0228925
-0.0235844
-0.0243458
-0.0251819
-0.0260956
-0.0270942
-0.0281791
-0.0293553
-0.0306306
-0.0320166
-0.0335274
-0.0351752
-0.0369714
-0.0389287
-0.0410594
-0.0433743
-0.045883
-0.0485905
-0.0515065
-0.0546168
-0.057933
-0.0613869
-0.0650428
-0.0688074
-0.0726071
-0.0764122
-0.0800995
-0.0833729
-0.086496
-0.0890005
-0.0914514
-0.0186764
-0.0188154
-0.0189323
-0.0190329
-0.0191248
-0.0192121
-0.019291
-0.0193683
-0.0194374
-0.0194933
-0.0195232
-0.0195321
-0.0195262
-0.0195271
-0.019547
-0.0196025
-0.0196953
-0.0198298
-0.0199996
-0.0202057
-0.0204421
-0.0207115
-0.0210128
-0.0213509
-0.0217281
-0.0221503
-0.022621
-0.0231448
-0.0237259
-0.0243679
-0.0250764
-0.0258549
-0.0267082
-0.027644
-0.028662
-0.0297684
-0.0309672
-0.0322663
-0.0336778
-0.0352159
-0.036893
-0.0387209
-0.0407126
-0.0428808
-0.0452368
-0.0477905
-0.0505477
-0.0535184
-0.0566888
-0.0600724
-0.0635977
-0.0673363
-0.0711905
-0.0750818
-0.0789757
-0.0827439
-0.0860861
-0.0892716
-0.0918071
-0.0943344
-0.0199194
-0.0200633
-0.0201912
-0.020307
-0.0204163
-0.0205201
-0.0206146
-0.0207042
-0.0207836
-0.0208458
-0.0208808
-0.0208916
-0.0208882
-0.0208903
-0.0209131
-0.0209712
-0.0210679
-0.0212059
-0.0213803
-0.021591
-0.0218327
-0.022108
-0.0224163
-0.0227623
-0.0231487
-0.0235813
-0.0240637
-0.0246005
-0.0251959
-0.025854
-0.0265793
-0.0273767
-0.0282514
-0.0292055
-0.0302463
-0.031375
-0.0325974
-0.0339217
-0.0353601
-0.0369271
-0.0386353
-0.0404964
-0.042524
-0.044731
-0.0471293
-0.0497294
-0.0525375
-0.0555645
-0.0587968
-0.0622495
-0.0658488
-0.0696715
-0.0736163
-0.0775998
-0.0815831
-0.0854328
-0.0888449
-0.0920946
-0.0946603
-0.0972614
-0.0216021
-0.0217356
-0.0218449
-0.0219367
-0.0220183
-0.0220951
-0.0221626
-0.0222283
-0.0222847
-0.0223269
-0.0223421
-0.0223365
-0.0223173
-0.0223072
-0.0223193
-0.0223705
-0.0224621
-0.0225981
-0.0227723
-0.022985
-0.0232303
-0.023511
-0.0238261
-0.0241804
-0.0245763
-0.02502
-0.0255148
-0.0260654
-0.0266765
-0.0273513
-0.0280956
-0.0289127
-0.0298069
-0.0307854
-0.0318477
-0.033
-0.034247
-0.0355971
-0.0370628
-0.0386588
-0.0403979
-0.0422921
-0.0443553
-0.0466011
-0.0490415
-0.0516879
-0.0545469
-0.0576301
-0.0609245
-0.0644467
-0.0681196
-0.0720263
-0.0760619
-0.0801382
-0.0842115
-0.0881429
-0.0916243
-0.0949363
-0.0975296
-0.100201
-0.0228485
-0.0229867
-0.0231077
-0.0232165
-0.0233176
-0.023413
-0.023498
-0.0235778
-0.0236461
-0.0236963
-0.0237178
-0.0237149
-0.0236985
-0.0236897
-0.0237044
-0.0237575
-0.0238524
-0.0239915
-0.0241696
-0.0243865
-0.0246369
-0.0249234
-0.0252455
-0.025608
-0.0260138
-0.0264687
-0.0269764
-0.0275417
-0.0281689
-0.0288618
-0.029625
-0.0304632
-0.0313809
-0.0323799
-0.0334672
-0.0346441
-0.035917
-0.0372944
-0.038789
-0.0404157
-0.0421873
-0.0441162
-0.0462164
-0.0485022
-0.0509862
-0.0536801
-0.0565914
-0.0597323
-0.0630905
-0.0666836
-0.0704325
-0.0744246
-0.0785516
-0.0827209
-0.0868841
-0.0908968
-0.094448
-0.0978234
-0.100443
-0.103182
-0.0244735
-0.0246006
-0.0247073
-0.0248012
-0.024887
-0.0249691
-0.0250413
-0.0251103
-0.0251671
-0.0252061
-0.0252144
-0.025199
-0.0251687
-0.0251476
-0.0251505
-0.0251945
-0.0252819
-0.0254163
-0.0255918
-0.0258084
-0.0260606
-0.0263509
-0.0266788
-0.0270488
-0.027464
-0.0279302
-0.0284509
-0.029031
-0.029675
-0.0303861
-0.03117
-0.0320296
-0.0329689
-0.033995
-0.035106
-0.036309
-0.0376086
-0.0390138
-0.0405376
-0.0421949
-0.0439989
-0.0459622
-0.0480993
-0.0504249
-0.0529522
-0.0556936
-0.0586572
-0.0618561
-0.0652782
-0.0689426
-0.0727672
-0.0768444
-0.081063
-0.0853257
-0.0895792
-0.0936734
-0.0972932
-0.100729
-0.103372
-0.106175
-0.0260002
-0.0261256
-0.0262292
-0.0263195
-0.0264004
-0.0264773
-0.026544
-0.0266072
-0.026658
-0.0266901
-0.0266914
-0.0266676
-0.0266301
-0.0266017
-0.0265995
-0.026639
-0.026724
-0.0268565
-0.0270318
-0.027249
-0.0275033
-0.0277969
-0.0281299
-0.0285067
-0.0289307
-0.0294076
-0.0299411
-0.030536
-0.0311967
-0.0319269
-0.032731
-0.0336135
-0.0345786
-0.035627
-0.0367655
-0.0379951
-0.0393225
-0.040757
-0.0423114
-0.044001
-0.045839
-0.0478382
-0.0500136
-0.0523804
-0.0549524
-0.0577426
-0.0607599
-0.0640181
-0.0675056
-0.0712425
-0.0751449
-0.0793086
-0.0836193
-0.0879754
-0.0923185
-0.0964932
-0.100181
-0.103678
-0.106342
-0.109207
-0.0275655
-0.0276932
-0.0277992
-0.0278906
-0.0279725
-0.0280497
-0.0281161
-0.0281781
-0.0282259
-0.0282532
-0.0282463
-0.0282129
-0.028163
-0.0281223
-0.0281069
-0.0281351
-0.0282098
-0.0283348
-0.0285044
-0.0287185
-0.0289719
-0.0292669
-0.0296034
-0.029986
-0.0304178
-0.0309047
-0.0314506
-0.03206
-0.0327375
-0.0334864
-0.0343122
-0.0352173
-0.0362052
-0.0372821
-0.038446
-0.0397033
-0.0410593
-0.0425234
-0.0441087
-0.0458304
-0.0477021
-0.049737
-0.0519504
-0.0543583
-0.0569748
-0.0598139