/*--------------------------------*- C++ -*----------------------------------*\
  =========                 |
  \\      /  F ield         | OpenFOAM: The Open Source CFD Toolbox
   \\    /   O peration     | Website:  https://openfoam.org
    \\  /    A nd           | Version:  6.0
     \\/     M anipulation  |
\*---------------------------------------------------------------------------*/
FoamFile
{
    version     2.0;
    format      ascii;
    class       surfaceScalarField;
    location    "15";
    object      phi;
}
// * * * * * * * * * * * * * * * * * * * * * * * * * * * * * * * * * * * * * //

dimensions      [0 3 -1 0 0 0 0];

internalField   nonuniform List<scalar> 
123526
(
5.46622e-05
2.30535e-05
-5.42771e-05
5.5077e-05
2.49197e-05
5.55337e-05
2.69365e-05
5.60201e-05
2.91156e-05
5.65547e-05
3.14701e-05
5.71251e-05
3.4014e-05
5.77505e-05
3.67623e-05
5.842e-05
3.97312e-05
5.9154e-05
4.29373e-05
5.99411e-05
4.6401e-05
6.08008e-05
5.01427e-05
6.17231e-05
5.41834e-05
6.27289e-05
5.85467e-05
6.3811e-05
6.32554e-05
6.49923e-05
6.83378e-05
6.62619e-05
7.38263e-05
6.7642e-05
7.97491e-05
6.91333e-05
8.61336e-05
7.07553e-05
9.30227e-05
7.25037e-05
0.000100455
7.44052e-05
0.000108461
7.64629e-05
0.00011709
7.86906e-05
0.000126392
8.11082e-05
0.000136396
8.37247e-05
0.000147174
8.65574e-05
0.000158762
8.96265e-05
0.000171218
9.29441e-05
0.000184602
9.65373e-05
0.000198959
0.000100418
0.00021436
0.000104616
0.000230846
0.000109147
0.000248485
0.000114039
0.000267316
0.000119313
0.000287391
0.000124994
0.000308746
0.00013111
0.000331399
0.000137683
0.000355369
0.000144739
0.000380635
0.000152306
0.000407155
0.000160403
0.000434853
0.000169052
0.000463598
0.000178271
0.0004932
0.000188073
0.000523393
0.000198462
0.000553807
0.000209435
0.000583953
0.000220975
0.000613184
0.000233053
0.000640666
0.000245616
0.000665329
0.000258587
0.000685817
0.000271855
0.000700432
0.000285275
0.000707064
0.000298641
0.000703136
0.000311698
0.000685511
0.000324115
0.000650466
0.000335467
0.000593711
0.00034523
0.000510363
0.0003529
0.000395184
0.00035623
0.000245228
0.000360074
6.08293e-05
-0.00021398
0.000381602
5.40147e-05
2.26695e-05
-5.36362e-05
5.44224e-05
2.45053e-05
5.48696e-05
2.6489e-05
5.53466e-05
2.86323e-05
5.58692e-05
3.0948e-05
5.64273e-05
3.34498e-05
5.70382e-05
3.61524e-05
5.76923e-05
3.90716e-05
5.8409e-05
4.22229e-05
5.91778e-05
4.56276e-05
6.00173e-05
4.93062e-05
6.09183e-05
5.32786e-05
6.1901e-05
5.75678e-05
6.29589e-05
6.21942e-05
6.41139e-05
6.71868e-05
6.53561e-05
7.25811e-05
6.67069e-05
7.84019e-05
6.81674e-05
8.46705e-05
6.97565e-05
9.14367e-05
7.14702e-05
9.87395e-05
7.33347e-05
0.000106599
7.53532e-05
0.000115071
7.75389e-05
0.000124208
7.99117e-05
0.000134023
8.24803e-05
0.000144606
8.52619e-05
0.000155981
8.82758e-05
0.000168205
9.15346e-05
0.000181343
9.50638e-05
0.00019543
9.88764e-05
0.000210548
0.000103
0.000226724
0.000107451
0.000244035
0.000112255
0.000262513
0.000117434
0.000282212
0.000123011
0.000303168
0.000129015
0.000325393
0.000135466
0.000348916
0.00014239
0.000373707
0.000149814
0.000399726
0.000157757
0.000426904
0.000166241
0.000455107
0.000175285
0.000484149
0.000184898
0.000513769
0.000195087
0.000543606
0.000205849
0.000573177
0.000217167
0.000601849
0.000229012
0.000628802
0.000241333
0.000652985
0.000254055
0.00067307
0.000267069
0.000687386
0.000280233
0.000693869
0.000293344
0.000689982
0.000306152
0.000672655
0.000318328
0.000638233
0.000329457
0.000582513
0.000339013
0.000500716
0.000346441
0.000387661
0.000350957
0.000240618
0.000351452
6.01973e-05
-0.000210012
0.000347362
5.32841e-05
2.22929e-05
-5.29136e-05
5.36844e-05
2.40984e-05
5.41235e-05
2.60494e-05
5.45929e-05
2.81571e-05
5.51068e-05
3.04344e-05
5.56569e-05
3.28945e-05
5.62581e-05
3.55519e-05
5.69029e-05
3.84221e-05
5.76083e-05
4.15195e-05
5.83658e-05
4.48662e-05
5.91921e-05
4.84828e-05
6.00792e-05
5.23881e-05
6.10464e-05
5.66047e-05
6.20872e-05
6.11503e-05
6.32235e-05
6.60548e-05
6.44451e-05
7.13567e-05
6.57735e-05
7.70775e-05
6.72091e-05
8.32324e-05
6.87711e-05
8.9878e-05
7.0455e-05
9.70536e-05
7.22871e-05
0.00010477
7.42699e-05
0.000113087
7.6417e-05
0.000122063
7.87473e-05
0.000131693
8.12698e-05
0.000142085
8.4001e-05
0.00015325
8.69599e-05
0.000165247
9.01591e-05
0.000178145
9.36231e-05
0.000191967
9.73652e-05
0.000206807
0.000101412
0.000222678
0.00010578
0.00023967
0.000110493
0.000257801
0.000115574
0.000277132
0.000121045
0.000297698
0.000126934
0.000319504
0.000133261
0.000342587
0.000140053
0.000366913
0.000147333
0.000392443
0.000155124
0.00041911
0.000163445
0.000446782
0.000172314
0.000475275
0.000181742
0.000504336
0.000191735
0.000533608
0.00020229
0.000562618
0.00021339
0.000590744
0.000225006
0.000617181
0.000237089
0.000640899
0.000249566
0.000660592
0.000262329
0.000674621
0.00027524
0.000680959
0.000288098
0.000677117
0.000300656
0.000660084
0.00031259
0.000626279
0.000323496
0.000571585
0.000332856
0.000491324
0.00034012
0.000380353
0.000344478
0.000236152
0.000345484
5.89913e-05
-0.000212605
0.000347976
5.2485e-05
2.19237e-05
-5.21206e-05
5.28783e-05
2.36995e-05
5.33087e-05
2.56183e-05
5.37694e-05
2.7691e-05
5.42734e-05
2.99302e-05
5.48135e-05
3.23491e-05
5.54039e-05
3.49617e-05
5.60378e-05
3.77832e-05
5.67315e-05
4.08271e-05
5.7477e-05
4.41165e-05
5.82901e-05
4.76717e-05
5.91638e-05
5.15108e-05
6.01156e-05
5.56557e-05
6.11408e-05
6.01218e-05
6.2259e-05
6.49395e-05
6.34621e-05
7.01504e-05
6.47694e-05
7.57728e-05
6.61827e-05
8.1816e-05
6.77198e-05
8.83431e-05
6.9377e-05
9.53939e-05
7.11795e-05
0.000102969
7.31299e-05
0.000111135
7.52415e-05
0.000119953
7.75326e-05
0.000129401
8.00122e-05
0.000139607
8.26962e-05
0.000150567
8.56035e-05
0.000162341
8.87459e-05
0.000175003
9.2148e-05
0.000188566
9.58222e-05
0.000203134
9.97955e-05
0.000218707
0.000104082
0.000235384
0.000108709
0.000253177
0.000113696
0.000272146
0.000119064
0.00029233
0.000124843
0.000313725
0.000131052
0.000336378
0.000137715
0.000360248
0.000144859
0.000385297
0.000152502
0.000411464
0.000160666
0.000438616
0.000169367
0.00046657
0.000178617
0.000495082
0.00018842
0.0005238
0.000198773
0.000552258
0.000209662
0.000579847
0.000221056
0.000605777
0.000232909
0.000629034
0.000245147
0.000648339
0.000257669
0.000662082
0.000270335
0.000668274
0.000282949
0.000664469
0.000295271
0.000647721
0.000306981
0.000614517
0.000317685
0.000560812
0.000326885
0.000482026
0.000334033
0.000373078
0.000338576
0.000231456
0.000339451
5.78603e-05
-0.000211538
0.000338186
5.16812e-05
2.1562e-05
-5.13271e-05
5.20649e-05
2.33089e-05
5.24858e-05
2.51961e-05
5.29364e-05
2.72344e-05
5.34302e-05
2.94361e-05
5.39597e-05
3.18143e-05
5.45391e-05
3.43826e-05
5.51617e-05
3.7156e-05
5.58434e-05
4.01469e-05
5.65764e-05
4.33796e-05
5.73763e-05
4.68742e-05
5.82358e-05
5.06478e-05
5.91727e-05
5.47221e-05
6.01816e-05
5.91098e-05
6.12825e-05
6.38422e-05
6.24663e-05
6.89636e-05
6.37531e-05
7.44893e-05
6.51437e-05
8.04226e-05
6.6656e-05
8.68334e-05
6.82862e-05
9.37614e-05
7.0059e-05
0.000101198
7.19771e-05
0.000109215
7.40534e-05
0.000117878
7.6306e-05
0.000127148
7.87434e-05
0.000137171
8.13814e-05
0.000147929
8.42383e-05
0.000159485
8.73258e-05
0.000171917
9.06677e-05
0.000185224
9.42768e-05
0.000199526
9.81784e-05
0.000214806
0.000102389
0.000231176
0.000106931
0.000248636
0.000111827
0.000267252
0.000117097
0.000287061
0.000122769
0.000308052
0.000128863
0.000330283
0.000135404
0.000353706
0.000142415
0.000378283
0.000149916
0.00040396
0.000157928
0.000430602
0.000166466
0.000458029
0.000175543
0.000486003
0.000185162
0.000514179
0.00019532
0.000542098
0.000206003
0.000569163
0.000217183
0.000594597
0.000228813
0.000617406
0.000240823
0.000636333
0.000253111
0.000649798
0.000265542
0.000655847
0.000277924
0.000652085
0.00029002
0.000635618
0.000301517
0.000603007
0.000312031
0.000550282
0.000321083
0.000472947
0.000328125
0.000366
0.000332634
0.000226849
0.000333634
5.66895e-05
-0.000209428
0.00033145
5.08729e-05
2.12092e-05
-5.05252e-05
5.12487e-05
2.29276e-05
5.16607e-05
2.47833e-05
5.21025e-05
2.67874e-05
5.25866e-05
2.89519e-05
5.31061e-05
3.12897e-05
5.36746e-05
3.38143e-05
5.42861e-05
3.65401e-05
5.49557e-05
3.94786e-05
5.56767e-05
4.26549e-05
5.64633e-05
4.60895e-05
5.73099e-05
4.97983e-05
5.8232e-05
5.38025e-05
5.92264e-05
5.81127e-05
6.03102e-05
6.27609e-05
6.14771e-05
6.77941e-05
6.2744e-05
7.32245e-05
6.41139e-05
7.90499e-05
6.56025e-05
8.53464e-05
6.72075e-05
9.2154e-05
6.89518e-05
9.94551e-05
7.08389e-05
0.000107326
7.2881e-05
0.000115837
7.5096e-05
0.000124932
7.74921e-05
0.000134775
8.00849e-05
0.000145336
8.28924e-05
0.000156678
8.5926e-05
0.000168883
8.92091e-05
0.000181941
9.27537e-05
0.000195982
9.65859e-05
0.000210976
0.00010072
0.000227043
0.000105181
0.000244178
0.000109987
0.000262446
0.000115161
0.000281887
0.00012073
0.000302483
0.000126711
0.0003243
0.000133132
0.000347284
0.000140014
0.000371399
0.000147376
0.000396595
0.000155239
0.000422736
0.000163619
0.000449647
0.000172527
0.000477093
0.000181966
0.000504736
0.000191935
0.000532125
0.000202419
0.000558674
0.000213391
0.000583619
0.000224804
0.000605984
0.000236591
0.000624536
0.000248652
0.000637723
0.000260855
0.00064363
0.000273009
0.000639903
0.000284884
0.000623708
0.000296172
0.000591673
0.000306495
0.000539894
0.000315391
0.000463954
0.000322312
0.000358946
0.000326735
0.000222258
0.000327868
5.527e-05
-0.000207101
0.000325325
5.00689e-05
2.0863e-05
-4.97295e-05
5.04378e-05
2.25527e-05
5.08429e-05
2.4377e-05
5.1278e-05
2.6347e-05
5.17546e-05
2.84749e-05
5.22665e-05
3.07732e-05
5.28258e-05
3.32549e-05
5.34277e-05
3.59341e-05
5.40859e-05
3.88213e-05
5.47949e-05
4.19424e-05
5.55681e-05
4.53179e-05
5.64003e-05
4.89628e-05
5.73073e-05
5.2898e-05
5.82854e-05
5.71316e-05
5.93525e-05
6.16965e-05
6.05011e-05
6.66426e-05
6.17491e-05
7.1979e-05
6.30981e-05
7.7698e-05
6.45643e-05
8.38821e-05
6.61445e-05
9.05714e-05
6.78616e-05
9.77393e-05
6.97187e-05
0.000105468
7.17277e-05
0.000113829
7.39061e-05
0.000122753
7.62621e-05
0.00013242
7.88109e-05
0.000142787
8.157e-05
0.000153919
8.45507e-05
0.000165903
8.7776e-05
0.000178716
9.1258e-05
0.000192501
9.50212e-05
0.000207213
9.90813e-05
0.000222985
0.000103461
0.000239799
0.000108181
0.000257728
0.00011326
0.000276808
0.000118727
0.000297016
0.000124598
0.000318427
0.0001309
0.00034098
0.000137655
0.000364642
0.000144882
0.000389366
0.0001526
0.000415016
0.000160825
0.00044142
0.000169567
0.000468348
0.000178831
0.00049547
0.000188615
0.000522341
0.000198905
0.000548384
0.000209674
0.000572851
0.000220877
0.000594784
0.000232447
0.000612971
0.000244286
0.00062589
0.000256264
0.000631659
0.000268194
0.000627974
0.000279849
0.000612051
0.000290928
0.000580587
0.00030106
0.000529753
0.000309795
0.000455203
0.000316593
0.000352127
0.000320927
0.000217852
0.000322185
5.38916e-05
-0.000204678
0.000319725
4.93131e-05
2.05211e-05
-4.89746e-05
4.96794e-05
2.21819e-05
5.00806e-05
2.39752e-05
5.05114e-05
2.59119e-05
5.0982e-05
2.80041e-05
5.1487e-05
3.02639e-05
5.20378e-05
3.2704e-05
5.26299e-05
3.53381e-05
5.32765e-05
3.81754e-05
5.39728e-05
4.12431e-05
5.4731e-05
4.45611e-05
5.55475e-05
4.81437e-05
5.6436e-05
5.20113e-05
5.73955e-05
5.61698e-05
5.84411e-05
6.06528e-05
5.95685e-05
6.55129e-05
6.07927e-05
7.07564e-05
6.21179e-05
7.63703e-05
6.35579e-05
8.24433e-05
6.51112e-05
8.90159e-05
6.67989e-05
9.60524e-05
6.86246e-05
0.00010364
7.05994e-05
0.000111854
7.27408e-05
0.00012061
7.50564e-05
0.000130105
7.75611e-05
0.000140281
8.02721e-05
0.000151208
8.32004e-05
0.000162974
8.63687e-05
0.000175548
8.97883e-05
0.000189081
9.34844e-05
0.000203518
9.74707e-05
0.000218999
0.000101771
0.0002355
0.000106405
0.000253094
0.000111392
0.000271821
0.000116758
0.000291648
0.000122522
0.000312661
0.000128708
0.000334792
0.000135339
0.000358009
0.000142432
0.00038227
0.000150008
0.000407439
0.000158081
0.000433344
0.000166662
0.000459764
0.000175756
0.000486372
0.00018536
0.000512733
0.000195461
0.000538278
0.000206033
0.000562274
0.00021703
0.00058378
0.000228388
0.000601604
0.00024001
0.000614256
0.000251768
0.000619889
0.000263478
0.000616238
0.000274917
0.00060058
0.00028579
0.000569672
0.000295734
0.000519749
0.000304308
0.000446536
0.000310985
0.000345322
0.000315231
0.000213441
0.000316588
5.22505e-05
-0.000202589
0.000314286
4.86348e-05
2.01801e-05
-4.83019e-05
4.89979e-05
2.18124e-05
4.93958e-05
2.35756e-05
4.98222e-05
2.548e-05
5.02879e-05
2.75376e-05
5.07868e-05
2.97602e-05
5.13305e-05
3.21602e-05
5.19138e-05
3.47507e-05
5.255e-05
3.75401e-05
5.32335e-05
4.05561e-05
5.39772e-05
4.38188e-05
5.47764e-05
4.73414e-05
5.56461e-05
5.11438e-05
5.65835e-05
5.52296e-05
5.76059e-05
5.96329e-05
5.8707e-05
6.4409e-05
5.99041e-05
6.95615e-05
6.11999e-05
7.50719e-05
6.26095e-05
8.10353e-05
6.41306e-05
8.74926e-05
6.57846e-05
9.43995e-05
6.75748e-05
0.000101848
6.95121e-05
0.000109918
7.16134e-05
0.000118508
7.38862e-05
0.000127832
7.6345e-05
0.000137822
7.90066e-05
0.000148547
8.18817e-05
0.000160099
8.49922e-05
0.000172437
8.83499e-05
0.000185724
9.19782e-05
0.00019989
9.58924e-05
0.000215087
0.000100114
0.000231279
0.000104663
0.000248546
0.000109559
0.000266925
0.000114827
0.000286379
0.000120485
0.000307002
0.000126557
0.000328718
0.000133066
0.000351498
0.000140029
0.000375304
0.000147465
0.0004
0.00015539
0.000425417
0.000163814
0.000451339
0.000172742
0.000477444
0.000182171
0.000503303
0.000192088
0.000528361
0.000202467
0.000551896
0.000213266
0.000572984
0.000224417
0.000590457
0.000235828
0.000602851
0.00024737
0.000608354
0.000258866
0.000604747
0.000270094
0.000589355
0.000280767
0.000559
0.000290526
0.000509991
0.000298943
0.000438115
0.000305501
0.000338761
0.000309665
0.000209238
0.000311079
5.07803e-05
-0.00020038
0.000308878
4.80487e-05
1.98414e-05
-4.7714e-05
4.84104e-05
2.14464e-05
4.88046e-05
2.31805e-05
4.92265e-05
2.50539e-05
4.96858e-05
2.7078e-05
5.01773e-05
2.92645e-05
5.07121e-05
3.16254e-05
5.12855e-05
3.41736e-05
5.19101e-05
3.69164e-05
5.25809e-05
3.98825e-05
5.33096e-05
4.30917e-05
5.40926e-05
4.65562e-05
5.49426e-05
5.02958e-05
5.58591e-05
5.43113e-05
5.68561e-05
5.86377e-05
5.79306e-05
6.33325e-05
5.90972e-05
6.83964e-05
6.0361e-05
7.38058e-05
6.17356e-05
7.96617e-05
6.32205e-05
8.60055e-05
6.4836e-05
9.27845e-05
6.65863e-05
0.000100096
6.84817e-05
0.000108023
7.05391e-05
0.000116449
7.27655e-05
0.000125606
7.51755e-05
0.000135412
7.77851e-05
0.000145937
8.06048e-05
0.000157279
8.36563e-05
0.000169385
8.69505e-05
0.00018243
9.05114e-05
0.00019633
9.43521e-05
0.000211246
9.84961e-05
0.000227137
0.000102961
0.000244082
0.000107766
0.00026212
0.000112937
0.000281208
0.000118491
0.000301446
0.000124452
0.000322755
0.000130841
0.000345107
0.000137677
0.000368466
0.000144977
0.000392698
0.000152757
0.000417634
0.000161028
0.000443065
0.000169793
0.000468675
0.000179051
0.000494042
0.00018879
0.000518619
0.000198982
0.000541699
0.000209586
0.000562374
0.000220537
0.000579499
0.000231741
0.000591636
0.000243074
0.000597009
0.00025436
0.000593439
0.000265382
0.000578306
0.000275859
0.000548488
0.000285439
0.000500359
0.000293702
0.00042977
0.000300143
0.000332205
0.000304233
0.000205
0.000305659
4.90958e-05
-0.000198392
0.000303478
4.75345e-05
1.95059e-05
-4.72053e-05
4.7891e-05
2.10847e-05
4.82792e-05
2.2791e-05
4.86944e-05
2.46343e-05
4.91459e-05
2.66258e-05
4.96296e-05
2.8777e-05
5.0155e-05
3.10997e-05
5.07187e-05
3.36065e-05
5.13319e-05
3.63037e-05
5.19903e-05
3.9221e-05
5.2705e-05
4.2378e-05
5.34723e-05
4.57861e-05
5.4305e-05
4.94646e-05
5.52013e-05
5.34123e-05
5.61763e-05
5.76644e-05
5.72252e-05
6.2281e-05
5.83636e-05
6.72596e-05
5.95956e-05
7.25713e-05
6.09357e-05
7.83229e-05
6.2383e-05
8.4556e-05
6.39585e-05
9.12098e-05
6.56662e-05
9.83865e-05
6.75168e-05
0.000106173
6.95271e-05
0.000114438
7.17042e-05
0.000123429
7.40623e-05
0.000133053
7.66173e-05
0.000143382
7.93795e-05
0.000154516
8.23699e-05
0.000166395
8.55996e-05
0.0001792
8.9091e-05
0.000192838
9.28587e-05
0.00020748
9.69238e-05
0.000223072
0.000101305
0.000239701
0.000106021
0.000257404
0.000111096
0.000276132
0.000116547
0.000295993
0.000122398
0.000316902
0.00012867
0.000338833
0.00013538
0.000361754
0.000142547
0.000385529
0.000150186
0.000409993
0.000158306
0.000434943
0.000166914
0.000460067
0.000176005
0.00048495
0.000185568
0.000509056
0.000195578
0.000531691
0.000205992
0.000551964
0.000216746
0.000568749
0.000227749
0.000580639
0.000238877
0.00058589
0.000249958
0.000582365
0.00026078
0.000567492
0.000271065
0.000538211
0.000280469
0.000490964
0.000288582
0.000421666
0.00029491
0.000325892
0.000298934
0.000200968
0.000300328
4.77002e-05
-0.000196135
0.000298117
4.70691e-05
1.91772e-05
-4.67423e-05
4.74198e-05
2.07309e-05
4.78002e-05
2.24102e-05
4.82072e-05
2.42241e-05
4.86491e-05
2.61836e-05
4.91226e-05
2.83001e-05
4.9637e-05
3.05852e-05
5.01893e-05
3.30511e-05
5.07902e-05
3.57034e-05
5.14362e-05
3.85725e-05
5.21371e-05
4.16782e-05
5.28906e-05
4.50309e-05
5.37071e-05
4.86496e-05
5.45869e-05
5.2531e-05
5.55419e-05
5.67109e-05
5.65696e-05
6.12516e-05
5.76825e-05
6.61477e-05
5.88867e-05
7.13651e-05
6.01945e-05
7.70158e-05
6.16067e-05
8.31417e-05
6.31432e-05
8.96738e-05
6.48091e-05
9.6719e-05
6.66148e-05
0.000104367
6.85773e-05
0.000112474
7.07039e-05
0.000121302
7.30087e-05
0.000130748
7.55076e-05
0.000140883
7.82106e-05
0.000151813
8.11386e-05
0.000163466
8.43021e-05
0.000176036
8.7724e-05
0.000189417
9.14171e-05
0.000203787
9.54036e-05
0.000219087
9.9701e-05
0.000235405
0.000104327
0.000252778
0.000109307
0.000271151
0.000114657
0.000290642
0.000120399
0.000311158
0.000126556
0.000332674
0.000133143
0.000355164
0.00014018
0.00037849
0.00014768
0.00040249
0.000155654
0.000426967
0.000164106
0.000451611
0.000173034
0.000476018
0.000182426
0.00049966
0.000192257
0.000521855
0.000202484
0.00054173
0.000213046
0.00055818
0.000223851
0.000569824
0.000234777
0.000574952
0.000245657
0.000571466
0.000256281
0.000556845
0.000266379
0.000528085
0.000275612
0.000481687
0.000283578
0.000413629
0.000289796
0.000319572
0.000293757
0.000196873
0.000295091
4.61329e-05
-0.000194039
0.000292822
4.66176e-05
1.88553e-05
-4.63034e-05
4.69581e-05
2.03847e-05
4.7329e-05
2.20375e-05
4.77258e-05
2.38224e-05
4.81581e-05
2.57504e-05
4.86214e-05
2.78326e-05
4.91257e-05
3.00806e-05
4.96672e-05
3.25061e-05
5.02571e-05
3.5114e-05
5.08909e-05
3.79356e-05
5.15796e-05
4.09905e-05
5.23192e-05
4.42885e-05
5.31221e-05
4.78482e-05
5.39861e-05
5.16644e-05
5.49252e-05
5.57735e-05
5.59342e-05
6.02403e-05
5.70271e-05
6.50564e-05
5.82075e-05
7.01824e-05
5.94887e-05
7.57357e-05
6.08703e-05
8.17581e-05
6.23724e-05
8.81723e-05
6.39998e-05
9.50899e-05
6.57634e-05
0.000102604
6.76802e-05
0.000110556
6.97576e-05
0.000119225
7.20099e-05
0.000128495
7.44529e-05
0.00013844
7.70969e-05
0.000149169
7.99621e-05
0.000160601
8.30597e-05
0.000172939
8.6411e-05
0.000186065
9.00302e-05
0.000200168
9.39378e-05
0.00021518
9.81516e-05
0.000231192
0.000102689
0.00024824
0.000107574
0.000266265
0.000112824
0.000285391
0.000118459
0.00030552
0.000124502
0.00032663
0.000130969
0.000348695
0.000137876
0.00037158
0.00014524
0.000395125
0.00015307
0.000419136
0.00016137
0.000443311
0.000170138
0.00046725
0.000179361
0.000490438
0.000189016
0.000512203
0.00019906
0.00053169
0.000209432
0.000547814
0.000220042
0.000559222
0.00023077
0.000564233
0.000241452
0.000560794
0.000251882
0.000546427
0.000261796
0.000518186
0.00027086
0.000472638
0.000278683
0.000405826
0.000284794
0.000313491
0.000288693
0.000192995
0.00028995
4.49262e-05
-0.000191629
0.000287619
4.6164e-05
1.85427e-05
-4.58544e-05
4.64969e-05
2.00483e-05
4.68589e-05
2.16749e-05
4.72466e-05
2.34311e-05
4.76687e-05
2.5328e-05
4.81214e-05
2.73764e-05
4.86145e-05
2.95875e-05
4.91444e-05
3.19731e-05
4.97222e-05
3.4537e-05
5.0344e-05
3.73115e-05
5.10196e-05
4.03162e-05
5.17466e-05
4.356e-05
5.25352e-05
4.70613e-05
5.33855e-05
5.08128e-05
5.43088e-05
5.48519e-05
5.5302e-05
5.92456e-05
5.63766e-05
6.3983e-05
5.75376e-05
6.90196e-05
5.87959e-05
7.44781e-05
6.0152e-05
8.04001e-05
6.16245e-05
8.67001e-05
6.32187e-05
9.34941e-05
6.49448e-05
0.000100878
6.682e-05
0.00010868
6.88518e-05
0.000117193
7.10546e-05
0.000126291
7.34441e-05
0.000136051
7.60307e-05
0.000146582
7.88349e-05
0.000157796
8.18671e-05
0.000169906
8.51496e-05
0.000182783
8.86951e-05
0.000196623
9.25247e-05
0.000211352
9.66558e-05
0.000227062
0.000101105
0.000243791
0.000105897
0.000261473
0.000111047
0.00028024
0.000116578
0.000299989
0.000122508
0.000320697
0.000128856
0.000342346
0.000135637
0.000364797
0.000142867
0.000387892
0.000150555
0.000411445
0.000158705
0.000435158
0.000167315
0.000458637
0.000176372
0.000481376
0.000185853
0.000502718
0.000195717
0.000521821
0.000205901
0.000537623
0.000216319
0.000548795
0.000226851
0.00055369
0.000237338
0.000550292
0.000247577
0.000536171
0.000257309
0.000508433
0.000266209
0.000463704
0.000273891
0.000398086
0.000279896
0.000307398
0.00028373
0.000189048
0.000284909
4.35439e-05
-0.000189388
0.000282518
4.56887e-05
1.82378e-05
-4.53895e-05
4.60127e-05
1.97199e-05
4.63658e-05
2.13204e-05
4.67448e-05
2.30483e-05
4.71577e-05
2.49144e-05
4.76015e-05
2.69294e-05
4.80845e-05
2.91042e-05
4.86045e-05
3.14502e-05
4.91711e-05
3.39707e-05
4.97813e-05
3.66987e-05
5.04445e-05
3.96537e-05
5.11582e-05
4.28438e-05
5.19335e-05
4.62872e-05
5.27693e-05
4.99747e-05
5.36782e-05
5.39443e-05
5.46559e-05
5.82656e-05
5.57148e-05
6.29252e-05
5.68583e-05
6.7874e-05
5.80978e-05
7.32396e-05
5.94323e-05
7.90636e-05
6.08804e-05
8.52526e-05
6.24464e-05
9.19266e-05
6.41404e-05
9.91842e-05
6.59791e-05
0.00010684
6.79702e-05
0.000115202
7.01278e-05
0.000124133
7.24677e-05
0.000133711
7.50006e-05
0.000144049
7.77465e-05
0.00015505
8.07164e-05
0.000166937
8.39315e-05
0.000179568
8.74057e-05
0.00019315
9.11591e-05
0.000207599
9.52089e-05
0.000223013
9.95723e-05
0.000239428
0.000104272
0.000256772
0.000109325
0.000275186
0.000114751
0.000294561
0.000120571
0.000314876
0.000126801
0.000336114
0.000133458
0.000358138
0.000140556
0.000380793
0.000148104
0.000403897
0.000156107
0.000427155
0.000164561
0.000450183
0.000173455
0.000472484
0.000182765
0.000493411
0.000192449
0.000512141
0.000202449
0.00052763
0.000212677
0.000538575
0.000223016
0.000543361
0.00023331
0.00054001
0.000243361
0.000526136
0.000252914
0.000498899
0.000261651
0.00045499
0.000269195
0.000390571
0.000275095
0.000301539
0.000278862
0.000185326
0.000279965
4.25342e-05
-0.000186841
0.000277525
4.51908e-05
1.79414e-05
-4.4895e-05
4.55086e-05
1.94e-05
4.5854e-05
2.09748e-05
4.62253e-05
2.26748e-05
4.66292e-05
2.45104e-05
4.70635e-05
2.64924e-05
4.75363e-05
2.86313e-05
4.80457e-05
3.09385e-05
4.86009e-05
3.34161e-05
4.91998e-05
3.60981e-05
4.98505e-05
3.9004e-05
5.05521e-05
4.21411e-05
5.13134e-05
4.55272e-05
5.21359e-05
4.91513e-05
5.30296e-05
5.30519e-05
5.39927e-05
5.73013e-05
5.50353e-05
6.18836e-05
5.61626e-05
6.67451e-05
5.7384e-05
7.20188e-05
5.86996e-05
7.77463e-05
6.0126e-05
8.38265e-05
6.16679e-05
9.03833e-05
6.33342e-05
9.7518e-05
6.51415e-05
0.000105032
6.70968e-05
0.000113247
6.92142e-05
0.000122015
7.15094e-05
0.000131415
7.39928e-05
0.000141565
7.66846e-05
0.000152358
7.95954e-05
0.000164026
8.27471e-05
0.000176417
8.61525e-05
0.000189745
8.98322e-05
0.000203921
9.38033e-05
0.000219043
9.80826e-05
0.000235149
0.000102693
0.000252162
0.00010765
0.000270228
0.000112974
0.000289235
0.000118686
0.000309162
0.000124801
0.000329997
0.000131336
0.000351602
0.000138304
0.000373823
0.000145714
0.000396484
0.000153571
0.000419295
0.000161872
0.000441879
0.000170605
0.000463748
0.000179745
0.000484267
0.000189254
0.000502627
0.00019907
0.000517807
0.00020911
0.000528527
0.000219259
0.000533203
0.000229364
0.000529893
0.000239229
0.000516258
0.000248606
0.000489506
0.000257183
0.000446386
0.000264589
0.000383115
0.000270385
0.000295669
0.000274081
0.00018153
0.000275117
4.13146e-05
-0.000184487
0.000272634
4.4663e-05
1.76505e-05
-4.4379e-05
4.49722e-05
1.90859e-05
4.53102e-05
2.06352e-05
4.56731e-05
2.23075e-05
4.60695e-05
2.41133e-05
4.64956e-05
2.60628e-05
4.69602e-05
2.81665e-05
4.74603e-05
3.04353e-05
4.80061e-05
3.28708e-05
4.85941e-05
3.55075e-05
4.92337e-05
3.83651e-05
4.99225e-05
4.145e-05
5.06714e-05
4.47797e-05
5.14794e-05
4.83411e-05
5.2359e-05
5.21737e-05
5.33064e-05
5.63519e-05
5.43337e-05
6.08575e-05
5.54444e-05
6.56325e-05
5.66489e-05
7.08151e-05
5.79463e-05
7.64472e-05
5.93533e-05
8.24201e-05
6.08734e-05
8.88618e-05
6.25154e-05
9.58762e-05
6.4295e-05
0.000103251
6.62189e-05
0.000111323
6.83007e-05
0.000119933
7.05557e-05
0.00012916
7.29944e-05
0.000139126
7.56364e-05
0.000149716
7.84928e-05
0.000161169
8.15843e-05
0.000173325
8.4925e-05
0.000186405
8.85345e-05
0.000200312
9.24298e-05
0.000215148
9.66279e-05
0.000230951
0.000101151
0.000247638
0.000106015
0.000265363
0.00011124
0.000284008
0.000116845
0.000303555
0.000122848
0.000323994
0.000129262
0.000345186
0.000136103
0.000366982
0.000143378
0.000389208
0.000151092
0.000411582
0.000159241
0.000433731
0.000167815
0.000455176
0.000176788
0.000475296
0.000186123
0.000493298
0.000195759
0.000508178
0.000205614
0.000518681
0.000215575
0.000523254
0.000225493
0.000519991
0.000235176
0.000506594
0.000244379
0.000480325
0.000252798
0.000437994
0.00026007
0.000375879
0.00026576
0.000290028
0.000269385
0.000177971
0.000270362
4.04686e-05
-0.000181841
0.000267846
4.41143e-05
1.73664e-05
-4.38319e-05
4.44188e-05
1.87788e-05
4.47506e-05
2.03031e-05
4.51072e-05
2.19482e-05
4.54959e-05
2.37245e-05
4.59137e-05
2.56421e-05
4.63692e-05
2.77112e-05
4.68597e-05
2.99424e-05
4.7395e-05
3.23364e-05
4.79722e-05
3.49287e-05
4.86e-05
3.77387e-05
4.92769e-05
4.07722e-05
5.0012e-05
4.40462e-05
5.08066e-05
4.75459e-05
5.16706e-05
5.13112e-05
5.26027e-05
5.54189e-05
5.36129e-05
5.98484e-05
5.47067e-05
6.45374e-05
5.5893e-05
6.96294e-05
5.71721e-05
7.51666e-05
5.85594e-05
8.10331e-05
6.00587e-05
8.73611e-05
6.1678e-05
9.42571e-05
6.34323e-05
0.000101496
6.53278e-05
0.000109428
6.73777e-05
0.000117883
6.95965e-05
0.000126942
7.19945e-05
0.000136728
7.45912e-05
0.000147119
7.73969e-05
0.000158363
8.04331e-05
0.000170289
8.37125e-05
0.000183126
8.72555e-05
0.00019677
9.10788e-05
0.000211326
9.51989e-05
0.000226831
9.96379e-05
0.000243199
0.000104412
0.000260589
0.00010954
0.000278879
0.000115042
0.000298052
0.000120934
0.000318101
0.000127231
0.000338888
0.000133946
0.000360265
0.000141089
0.000382064
0.000148662
0.000404007
0.000156662
0.000425728
0.000165079
0.000446756
0.000173888
0.000466484
0.000183052
0.000484131
0.00019251
0.000498714
0.000202184
0.000509002
0.00021196
0.00051347
0.000221693
0.000510248
0.000231196
0.000497083
0.000240229
0.000471282
0.000248493
0.00042971
0.000255631
0.000368702
0.000261216
0.000284381
0.000264768
0.000174337
0.000265695
3.93828e-05
-0.000179401
0.000263151
4.35422e-05
1.7087e-05
-4.32673e-05
4.38406e-05
1.84767e-05
4.41665e-05
1.99763e-05
4.45168e-05
2.15948e-05
4.48987e-05
2.33422e-05
4.53098e-05
2.52285e-05
4.57574e-05
2.72636e-05
4.62397e-05
2.94578e-05
4.67654e-05
3.1811e-05
4.73324e-05
3.43597e-05
4.79488e-05
3.71229e-05
4.86131e-05
4.01058e-05
4.93353e-05
4.33251e-05
5.01152e-05
4.6764e-05
5.09644e-05
5.04631e-05
5.18801e-05
5.45012e-05
5.28738e-05
5.88557e-05
5.39496e-05
6.34597e-05
5.51178e-05
6.8462e-05
5.63777e-05
7.3905e-05
5.77452e-05
7.96662e-05
5.92235e-05
8.58814e-05
6.08206e-05
9.26603e-05
6.25506e-05
9.97654e-05
6.44194e-05
0.000107559
6.64396e-05
0.000115862
6.86251e-05
0.000124756
7.09859e-05
0.000134367
7.35405e-05
0.000144564
7.62998e-05
0.000155604
7.92839e-05
0.000167305
8.25063e-05
0.000179905
8.59865e-05
0.000193291
8.97412e-05
0.000207572
9.37869e-05
0.000222786
9.81452e-05
0.00023884
0.000102832
0.000255901
0.000107867
0.000273843
0.000113269
0.000292649
0.000119053
0.000312316
0.000125235
0.000332705
0.000131827
0.000353671
0.000138839
0.000375052
0.000146274
0.000396573
0.000154129
0.000417875
0.000162392
0.000438496
0.000171039
0.00045784
0.000180034
0.000475143
0.000189318
0.000489438
0.000198812
0.000499518
0.000208406
0.000503888
0.000217959
0.000500714
0.000227285
0.000487778
0.000236151
0.000462443
0.000244262
0.00042163
0.000251268
0.000361737
0.000256749
0.000278957
0.000260228
0.000170942
0.000261112
3.86647e-05
-0.000176681
0.000258546
4.29564e-05
1.68134e-05
-4.26821e-05
4.3251e-05
1.81807e-05
4.35714e-05
1.96562e-05
4.3916e-05
2.12485e-05
4.4291e-05
2.29676e-05
4.46944e-05
2.48231e-05
4.51334e-05
2.68248e-05
4.56067e-05
2.89827e-05
4.61224e-05
3.1296e-05
4.66792e-05
3.38018e-05
4.72841e-05
3.65191e-05
4.7937e-05
3.94523e-05
4.86455e-05
4.26178e-05
4.94122e-05
4.5997e-05
5.02456e-05
4.96309e-05
5.11457e-05
5.36005e-05
5.21215e-05
5.78807e-05
5.31793e-05
6.24007e-05
5.43278e-05
6.7314e-05
5.55677e-05
7.26637e-05
5.69141e-05
7.83201e-05
5.83707e-05
8.44236e-05
5.99448e-05
9.10863e-05
6.16505e-05
9.80588e-05
6.34932e-05
0.000105717
6.54847e-05
0.00011387
6.76386e-05
0.000122602
6.99642e-05
0.000132041
7.24797e-05
0.000142048
7.51951e-05
0.000152889
7.81309e-05
0.00016437
8.12993e-05
0.000176737
8.47201e-05
0.000189871
8.84098e-05
0.000203884
9.23845e-05
0.000218812
9.66655e-05
0.000234559
0.000101268
0.000251298
0.000106213
0.000268898
0.000111517
0.000287344
0.000117197
0.000306635
0.000123267
0.000326634
0.00012974
0.000347197
0.000136624
0.000368166
0.000143923
0.000389272
0.000151635
0.000410162
0.000159746
0.000430383
0.000168235
0.00044935
0.000177064
0.000466312
0.000186177
0.000480322
0.000195495
0.000490197
0.000204911
0.000494467
0.000214287
0.000491332
0.00022344
0.00047862
0.000232141
0.000453735
0.000240102
0.000413654
0.000246978
0.000354829
0.000252356
0.000273528
0.000255761
0.000167465
0.000256609
3.76813e-05
-0.000174178
0.000254025
4.23542e-05
1.65434e-05
-4.20898e-05
4.26419e-05
1.78887e-05
4.29564e-05
1.93404e-05
4.32943e-05
2.0907e-05
4.3663e-05
2.25982e-05
4.40595e-05
2.44236e-05
4.44916e-05
2.63926e-05
4.49569e-05
2.8515e-05
4.54643e-05
3.07891e-05
4.60111e-05
3.32528e-05
4.66059e-05
3.59251e-05
4.72467e-05
3.88096e-05
4.79433e-05
4.19223e-05
4.86956e-05
4.52428e-05
4.95149e-05
4.88128e-05
5.03985e-05
5.27152e-05
5.13576e-05
5.69226e-05
5.23968e-05
6.136e-05
5.35259e-05
6.61857e-05
5.47452e-05
7.1443e-05
5.60699e-05