/*--------------------------------*- C++ -*----------------------------------*\
  =========                 |
  \\      /  F ield         | OpenFOAM: The Open Source CFD Toolbox
   \\    /   O peration     | Website:  https://openfoam.org
    \\  /    A nd           | Version:  6.0
     \\/     M anipulation  |
\*---------------------------------------------------------------------------*/
FoamFile
{
    version     2.0;
    format      ascii;
    class       volVectorField;
    location    "15";
    object      U;
}
// * * * * * * * * * * * * * * * * * * * * * * * * * * * * * * * * * * * * * //

dimensions      [0 1 -1 0 0 0 0];

internalField   nonuniform List<vector> 
62000
(
(0.984721 -0.173645 -2.73612e-21)
(0.984724 -0.17363 2.27516e-21)
(0.98473 -0.173611 2.35537e-21)
(0.984735 -0.173597 -1.03759e-20)
(0.984738 -0.173587 -1.19473e-20)
(0.984739 -0.17358 4.12501e-20)
(0.98474 -0.173577 -4.55194e-20)
(0.984738 -0.173578 2.65059e-20)
(0.984736 -0.173582 -1.24756e-20)
(0.984731 -0.17359 -6.39053e-20)
(0.984725 -0.173599 -8.27779e-21)
(0.984719 -0.173609 8.95124e-20)
(0.984712 -0.173619 1.82738e-20)
(0.984705 -0.173629 -6.3952e-20)
(0.984698 -0.173639 9.97461e-20)
(0.984691 -0.173648 -5.29533e-20)
(0.984684 -0.173657 5.45425e-20)
(0.984677 -0.173667 -6.40184e-20)
(0.98467 -0.173676 3.13733e-20)
(0.984662 -0.173687 -9.61831e-20)
(0.984654 -0.173698 1.25255e-19)
(0.984645 -0.17371 3.62598e-20)
(0.984635 -0.173722 5.12811e-20)
(0.984625 -0.173737 -2.36054e-19)
(0.984615 -0.173753 8.57546e-20)
(0.984604 -0.17377 -5.17509e-20)
(0.984592 -0.173789 2.47534e-22)
(0.984579 -0.173811 -3.92437e-20)
(0.984566 -0.173834 1.25171e-19)
(0.984552 -0.173859 -6.56387e-20)
(0.984538 -0.173888 1.55243e-19)
(0.984524 -0.173918 -3.12875e-19)
(0.98451 -0.17395 3.10176e-20)
(0.984497 -0.173983 -9.32383e-20)
(0.984486 -0.174017 -2.34963e-20)
(0.984477 -0.174051 -9.00442e-20)
(0.984471 -0.174084 -9.14855e-21)
(0.98447 -0.174115 -1.15954e-20)
(0.984475 -0.174143 7.25942e-20)
(0.984488 -0.174166 2.79504e-19)
(0.984511 -0.174183 -5.94251e-20)
(0.984548 -0.174189 -2.69988e-19)
(0.984601 -0.174184 -3.20117e-19)
(0.984674 -0.174161 1.14064e-19)
(0.98477 -0.174116 2.31221e-20)
(0.984893 -0.174043 1.52629e-20)
(0.985046 -0.173932 -2.51729e-20)
(0.985234 -0.173775 7.79633e-20)
(0.985458 -0.173557 5.60162e-19)
(0.985719 -0.173263 2.09903e-19)
(0.98602 -0.172871 1.38618e-19)
(0.98636 -0.172348 1.79412e-18)
(0.986737 -0.171644 -4.89357e-19)
(0.98714 -0.170699 -2.70211e-18)
(0.987566 -0.169391 -6.97675e-19)
(0.987995 -0.167548 -2.99738e-18)
(0.988351 -0.164761 2.55049e-19)
(0.989708 -0.159803 3.17764e-19)
(0.982602 -0.149698 -1.45881e-18)
(1.02821 -0.130586 -1.92529e-19)
(0.984632 -0.174915 -7.24883e-22)
(0.984652 -0.174901 6.96815e-21)
(0.984669 -0.174871 2.93619e-21)
(0.984679 -0.174843 -1.2488e-20)
(0.984687 -0.174812 5.21625e-21)
(0.984694 -0.17478 -3.62843e-20)
(0.984701 -0.174747 3.32406e-20)
(0.984706 -0.174715 1.94155e-20)
(0.984707 -0.174685 -3.63637e-20)
(0.984705 -0.17466 1.52057e-21)
(0.984699 -0.174643 3.54579e-20)
(0.984689 -0.174634 1.32625e-22)
(0.984676 -0.17463 1.02647e-20)
(0.98466 -0.174629 -8.77972e-20)
(0.984644 -0.174628 1.76334e-19)
(0.984627 -0.174629 -1.55795e-19)
(0.984609 -0.174629 7.29944e-20)
(0.98459 -0.17463 -1.53627e-20)
(0.984571 -0.174632 -4.16816e-20)
(0.984551 -0.174637 1.14755e-19)
(0.98453 -0.174643 -1.80594e-19)
(0.984508 -0.174652 1.04575e-19)
(0.984486 -0.174665 -1.31667e-19)
(0.984463 -0.17468 7.85632e-20)
(0.984439 -0.1747 7.13874e-20)
(0.984414 -0.174723 -4.7011e-20)
(0.984389 -0.174751 4.76098e-22)
(0.984365 -0.174783 5.1961e-20)
(0.98434 -0.174819 4.27006e-20)
(0.984316 -0.17486 -8.21081e-20)
(0.984292 -0.174904 1.66343e-19)
(0.98427 -0.174953 3.03135e-20)
(0.984249 -0.175002 9.61331e-20)
(0.98423 -0.17505 1.88082e-21)
(0.984216 -0.175096 2.22095e-20)
(0.984208 -0.17514 -3.31355e-20)
(0.984207 -0.175179 -8.02087e-20)
(0.984215 -0.175212 -4.6495e-20)
(0.984233 -0.175237 -1.95871e-19)
(0.984266 -0.175251 -1.8308e-19)
(0.984318 -0.175251 1.37361e-19)
(0.984392 -0.175234 6.06415e-20)
(0.984493 -0.175193 3.70214e-19)
(0.984627 -0.175124 1.6871e-20)
(0.984799 -0.175017 -2.16961e-19)
(0.985013 -0.174863 1.24465e-21)
(0.985274 -0.174649 -9.49538e-20)
(0.985583 -0.174362 -1.58807e-19)
(0.98594 -0.173985 -8.06483e-20)
(0.986345 -0.173501 -1.52978e-20)
(0.986797 -0.17288 -6.90094e-19)
(0.987287 -0.17209 -2.26311e-18)
(0.987807 -0.171067 1.79459e-18)
(0.988322 -0.169748 4.93689e-18)
(0.988798 -0.16801 1.34386e-18)
(0.989183 -0.165763 1.07863e-18)
(0.989262 -0.162772 2.69426e-18)
(0.989793 -0.158115 1.49689e-18)
(0.988307 -0.150086 -3.23815e-18)
(0.984178 -0.164083 -7.43306e-19)
(0.984621 -0.175791 -3.46836e-21)
(0.984643 -0.175767 -5.0504e-22)
(0.984659 -0.175745 5.28478e-22)
(0.984665 -0.17573 2.46641e-21)
(0.98467 -0.175709 7.06025e-21)
(0.984676 -0.175688 -6.68926e-21)
(0.984683 -0.175664 3.5989e-20)
(0.984691 -0.175635 -1.70605e-20)
(0.984697 -0.175599 -9.24022e-21)
(0.984701 -0.175561 -5.72941e-20)
(0.9847 -0.17553 4.83232e-20)
(0.984694 -0.175511 3.55176e-21)
(0.984682 -0.175505 -1.11579e-20)
(0.984667 -0.175509 2.96101e-20)
(0.98465 -0.175519 -5.06157e-20)
(0.984631 -0.17553 3.51619e-22)
(0.984611 -0.175542 -2.31843e-20)
(0.98459 -0.175554 5.1337e-22)
(0.984569 -0.175566 5.37966e-20)
(0.984547 -0.175579 -8.1492e-20)
(0.984525 -0.175593 5.0778e-20)
(0.984501 -0.17561 1.95508e-19)
(0.984477 -0.175628 -2.73759e-20)
(0.984452 -0.17565 -2.69694e-19)
(0.984427 -0.175674 1.38478e-19)
(0.984402 -0.175702 -7.29473e-20)
(0.984377 -0.175733 1.1894e-19)
(0.984352 -0.175768 -7.30365e-20)
(0.984328 -0.175806 -1.39893e-19)
(0.984306 -0.175846 1.44776e-19)
(0.984286 -0.17589 -1.00995e-19)
(0.984267 -0.175936 1.32029e-19)
(0.98425 -0.175982 -3.52931e-19)
(0.984235 -0.176023 3.03984e-19)
(0.984225 -0.176059 -1.56793e-19)
(0.984221 -0.176092 6.57667e-20)
(0.984225 -0.176118 4.9368e-20)
(0.984236 -0.176135 7.82651e-21)
(0.984257 -0.176143 4.47731e-21)
(0.984289 -0.176139 2.1761e-19)
(0.984339 -0.176121 -6.52016e-20)
(0.984409 -0.176085 8.62132e-20)
(0.984503 -0.176027 -2.49978e-19)
(0.984626 -0.175941 -8.63968e-20)
(0.984783 -0.175818 1.79692e-20)
(0.984978 -0.17565 -7.71331e-20)
(0.98521 -0.175425 -2.43068e-20)
(0.985481 -0.175136 2.27158e-19)
(0.985788 -0.174771 -5.01712e-19)
(0.986124 -0.174325 -1.88859e-19)
(0.986485 -0.17378 -8.89762e-20)
(0.986861 -0.173122 8.05337e-20)
(0.987236 -0.172312 -7.28688e-19)
(0.987578 -0.171312 -2.28544e-19)
(0.987849 -0.170032 1.90179e-18)
(0.988044 -0.168442 1.24247e-18)
(0.98794 -0.16644 1.14862e-18)
(0.988465 -0.162877 4.13201e-18)
(0.986315 -0.157167 -3.52049e-19)
(0.995749 -0.161822 -5.25994e-19)
(0.984599 -0.176355 -3.39664e-21)
(0.984619 -0.176322 1.03858e-20)
(0.984633 -0.176307 -1.56966e-21)
(0.984636 -0.176293 -1.06967e-20)
(0.984635 -0.176274 1.61317e-20)
(0.984634 -0.176258 2.79163e-20)
(0.984634 -0.176247 -3.62604e-20)
(0.984635 -0.176233 3.95396e-21)
(0.984638 -0.176207 1.26637e-20)
(0.98464 -0.176169 2.64041e-20)
(0.984641 -0.176128 -4.86008e-20)
(0.984637 -0.176096 -1.50315e-20)
(0.984628 -0.176083 -1.68011e-20)
(0.984614 -0.176088 7.63035e-20)
(0.984596 -0.176107 -5.08514e-20)
(0.984575 -0.176134 1.18407e-19)
(0.984554 -0.176164 -1.4309e-19)
(0.984532 -0.176195 -2.06772e-20)
(0.98451 -0.176225 1.49273e-19)
(0.984489 -0.176255 -5.20374e-20)
(0.984467 -0.176286 -1.8866e-20)
(0.984445 -0.176318 -2.0005e-20)
(0.984422 -0.176351 -1.79461e-19)
(0.9844 -0.176387 1.04399e-19)
(0.984378 -0.176425 -4.50306e-20)
(0.984355 -0.176465 7.44935e-20)
(0.984334 -0.176507 3.38112e-20)
(0.984313 -0.17655 1.63978e-19)
(0.984293 -0.176596 -1.0334e-19)
(0.984275 -0.176643 -1.30291e-19)
(0.984258 -0.176691 1.98328e-19)
(0.984244 -0.17674 -1.61462e-19)
(0.984232 -0.176786 2.86936e-19)
(0.984222 -0.176826 -1.64544e-19)
(0.984215 -0.17686 7.45865e-20)
(0.984215 -0.176889 1.17019e-19)
(0.984222 -0.17691 -4.33412e-20)
(0.984236 -0.176922 4.10725e-20)
(0.984257 -0.176923 -3.06862e-20)
(0.984288 -0.176912 5.95423e-20)
(0.984335 -0.176887 -1.69026e-19)
(0.9844 -0.176845 3.84841e-20)
(0.984489 -0.17678 6.61611e-20)
(0.984606 -0.176685 1.28573e-19)
(0.984755 -0.176554 9.18132e-20)
(0.984942 -0.176375 -2.05655e-20)
(0.985168 -0.176138 -2.60617e-20)
(0.985434 -0.175835 -1.38942e-19)
(0.985736 -0.175454 -2.75266e-19)
(0.98607 -0.174993 2.86979e-19)
(0.986428 -0.174438 5.49951e-19)
(0.9868 -0.173775 -4.42072e-19)
(0.987168 -0.172974 -7.42576e-19)
(0.987504 -0.171995 -1.96957e-18)
(0.987773 -0.170741 -1.39359e-18)
(0.988012 -0.16915 -2.9709e-18)
(0.988068 -0.167089 -5.93507e-18)
(0.988739 -0.163249 1.22174e-18)
(0.988351 -0.155703 5.7523e-18)
(0.991534 -0.162514 2.60055e-18)
(0.984576 -0.176862 6.40461e-21)
(0.984604 -0.176825 -2.12768e-21)
(0.984622 -0.176808 3.58307e-21)
(0.984621 -0.176787 -5.02364e-21)
(0.98461 -0.176756 1.13033e-20)
(0.984595 -0.176731 -5.53135e-21)
(0.984579 -0.176722 3.03564e-21)
(0.984564 -0.176723 -4.46548e-20)
(0.984553 -0.176717 3.72792e-20)
(0.984546 -0.176691 -7.47244e-20)
(0.984541 -0.17665 8.18904e-20)
(0.984537 -0.176608 -9.82888e-21)
(0.984529 -0.176582 -2.18264e-20)
(0.984518 -0.17658 -1.00675e-20)
(0.984502 -0.176601 -2.17213e-21)
(0.984483 -0.176637 -1.00058e-19)
(0.984462 -0.176681 4.65196e-21)
(0.984441 -0.176729 1.0819e-19)
(0.98442 -0.176776 -3.47977e-20)
(0.9844 -0.176823 -3.62902e-20)
(0.98438 -0.17687 6.1407e-20)
(0.984361 -0.176917 -2.98549e-20)
(0.984342 -0.176965 1.24785e-19)
(0.984324 -0.177015 6.65282e-20)
(0.984307 -0.177067 4.92352e-20)
(0.984291 -0.177119 -1.58363e-19)
(0.984276 -0.177173 -2.1914e-20)
(0.984262 -0.177228 -1.18623e-19)
(0.984249 -0.177283 2.32373e-20)
(0.984238 -0.177339 -3.70292e-20)
(0.98423 -0.177394 -1.35697e-20)
(0.984223 -0.177449 1.13873e-19)
(0.984219 -0.177499 -2.88159e-19)
(0.984217 -0.177543 -1.19193e-20)
(0.984218 -0.17758 -1.35722e-19)
(0.984226 -0.17761 -6.4615e-20)
(0.984239 -0.17763 1.33382e-20)
(0.984259 -0.177641 -1.77851e-19)
(0.984287 -0.17764 2.46702e-19)
(0.984324 -0.177627 3.75208e-20)
(0.984375 -0.177599 2.28166e-19)
(0.984443 -0.177552 -1.33035e-19)
(0.984535 -0.177482 -8.02584e-20)
(0.984655 -0.177381 -2.52982e-20)
(0.98481 -0.177242 7.35731e-20)
(0.985005 -0.177052 4.75443e-20)
(0.985245 -0.1768 -2.46258e-21)
(0.985535 -0.176473 -3.58597e-20)
(0.985872 -0.176058 1.06133e-19)
(0.986255 -0.175548 -7.66515e-19)
(0.986676 -0.174924 -2.63949e-19)
(0.987123 -0.174167 3.09045e-19)
(0.987573 -0.173242 -1.72667e-19)
(0.987995 -0.172107 -1.66007e-18)
(0.988338 -0.170671 1.69028e-19)
(0.988638 -0.168877 2.28951e-18)
(0.988798 -0.166662 6.74577e-18)
(0.989351 -0.162831 -7.6326e-18)
(0.988941 -0.156176 7.19928e-18)
(0.991698 -0.165659 -3.29624e-18)
(0.98463 -0.177288 -2.37254e-21)
(0.984664 -0.177252 9.54692e-21)
(0.98467 -0.177238 -1.56901e-20)
(0.984642 -0.177217 1.16907e-20)
(0.984603 -0.177178 7.6082e-21)
(0.984559 -0.177142 -8.01467e-21)
(0.984513 -0.177128 6.8522e-22)
(0.984468 -0.17714 -6.03898e-21)
(0.984429 -0.177156 -2.04148e-20)
(0.984399 -0.177155 3.9024e-20)
(0.984377 -0.17713 -6.06756e-20)
(0.984362 -0.177093 5.30184e-20)
(0.984351 -0.177063 4.6946e-20)
(0.984341 -0.177056 -7.22646e-20)
(0.984331 -0.177077 -2.35829e-20)
(0.98432 -0.177122 8.81593e-20)
(0.984308 -0.177181 -1.06196e-19)
(0.984296 -0.177246 1.45818e-19)
(0.984285 -0.177313 -2.78153e-20)
(0.984274 -0.177379 1.51204e-20)
(0.984264 -0.177444 -2.53033e-20)
(0.984256 -0.177508 -3.12917e-20)
(0.984248 -0.177572 -5.73056e-20)
(0.984241 -0.177636 9.74289e-20)
(0.984236 -0.1777 -6.684e-20)
(0.984232 -0.177766 -6.34294e-20)
(0.98423 -0.177831 1.30041e-19)
(0.98423 -0.177896 -1.20041e-19)
(0.984231 -0.177959 1.90989e-19)
(0.984234 -0.178022 -1.01433e-19)
(0.98424 -0.178083 7.41442e-20)
(0.984248 -0.178142 -1.20687e-19)
(0.984259 -0.178196 1.26351e-19)
(0.984272 -0.178242 -1.33684e-20)
(0.984288 -0.178279 -7.55271e-21)
(0.984309 -0.178308 -4.00558e-21)
(0.984336 -0.178325 -5.36263e-20)
(0.984368 -0.178332 1.52508e-19)
(0.984407 -0.178326 -1.15539e-19)
(0.984454 -0.178306 -5.58296e-19)
(0.984511 -0.178272 -2.04139e-19)
(0.984583 -0.17822 1.30146e-19)
(0.984674 -0.178144 -1.08037e-19)
(0.984789 -0.178041 -9.51245e-20)
(0.984935 -0.177902 4.44273e-22)
(0.985119 -0.177717 8.81737e-20)
(0.985347 -0.177474 4.62872e-21)
(0.985625 -0.177162 1.38364e-19)
(0.985954 -0.176763 2.0479e-19)
(0.986338 -0.17627 5.14667e-19)
(0.986768 -0.175659 -4.34108e-19)
(0.987233 -0.17491 2.24415e-19)
(0.987706 -0.173986 2.30267e-18)
(0.98815 -0.172852 -5.37697e-19)
(0.988502 -0.171441 -9.60904e-19)
(0.988782 -0.169731 2.22076e-18)
(0.988951 -0.167767 -1.78793e-18)
(0.989377 -0.164439 -2.50333e-18)
(0.988759 -0.159025 -1.15869e-17)
(0.99266 -0.167257 -1.31112e-19)
(0.984762 -0.177671 2.72432e-21)
(0.984775 -0.177636 -1.22449e-20)
(0.984737 -0.177633 5.9378e-21)
(0.984661 -0.177625 1.1094e-20)
(0.98458 -0.177593 -2.37912e-20)
(0.984501 -0.177553 1.99003e-20)
(0.984421 -0.177536 -1.32862e-20)
(0.984343 -0.177552 1.12563e-20)
(0.98427 -0.177587 1.80031e-20)
(0.984207 -0.177612 -4.32445e-20)
(0.984156 -0.177611 6.25006e-20)
(0.984117 -0.177588 2.68193e-20)
(0.984088 -0.177562 -1.05696e-19)
(0.984068 -0.177553 -1.98942e-20)
(0.984054 -0.177573 5.60879e-20)
(0.984046 -0.177622 3.60321e-20)
(0.984043 -0.177692 -4.34837e-20)
(0.984043 -0.177774 3.80058e-20)
(0.984047 -0.17786 5.80428e-20)
(0.984053 -0.177946 -2.85211e-20)
(0.984061 -0.17803 -1.62345e-20)
(0.984071 -0.178112 5.63051e-20)
(0.984082 -0.178192 1.14123e-19)
(0.984095 -0.178272 -8.39482e-20)
(0.984109 -0.178351 -9.04226e-20)
(0.984124 -0.178429 9.81219e-20)
(0.984142 -0.178505 -7.56867e-20)
(0.984161 -0.17858 -2.93341e-20)
(0.984182 -0.178652 2.43337e-19)
(0.984205 -0.178721 -1.04558e-19)
(0.984231 -0.178787 -7.61522e-20)
(0.984259 -0.17885 1.04689e-19)
(0.98429 -0.178906 6.9195e-20)
(0.984324 -0.178952 -5.75099e-20)
(0.98436 -0.178988 -3.81432e-20)
(0.984401 -0.179013 1.14671e-19)
(0.984446 -0.179025 2.5676e-20)
(0.984497 -0.179023 3.60894e-20)
(0.984552 -0.179008 -1.68434e-19)
(0.984612 -0.178979 -1.37757e-19)
(0.98468 -0.178934 2.71509e-19)
(0.984757 -0.178872 1.74907e-19)
(0.984847 -0.17879 2.35639e-19)
(0.984954 -0.178684 -1.79991e-19)
(0.985082 -0.17855 -1.35059e-19)
(0.985239 -0.17838 -4.87841e-20)
(0.98543 -0.178166 -1.07842e-20)
(0.985663 -0.177898 -1.26699e-19)
(0.985942 -0.177562 2.80683e-19)
(0.986273 -0.177148 6.1307e-19)
(0.986651 -0.176634 1.70128e-19)
(0.987068 -0.175998 -2.13053e-19)
(0.9875 -0.175204 -3.39453e-20)
(0.987915 -0.174217 9.83946e-19)
(0.988249 -0.17298 -1.06972e-18)
(0.988524 -0.171477 -7.37954e-19)
(0.988775 -0.16977 -1.28926e-18)
(0.989316 -0.166687 7.69816e-18)
(0.988808 -0.161171 5.76678e-19)
(0.994167 -0.167596 -3.84342e-19)
(0.984855 -0.178165 -4.46596e-21)
(0.984815 -0.178147 -3.56416e-21)
(0.984719 -0.178164 4.80447e-21)
(0.984597 -0.178181 1.70099e-20)
(0.984483 -0.178168 -3.65836e-20)
(0.984382 -0.178135 4.18103e-20)
(0.984287 -0.178115 -1.80852e-21)
(0.984193 -0.178129 -2.54063e-21)
(0.984102 -0.17817 -1.48812e-20)
(0.984019 -0.17821 3.61941e-20)
(0.983945 -0.178226 -5.57203e-20)
(0.983882 -0.178214 2.1002e-20)
(0.983829 -0.17819 -7.02413e-22)
(0.983787 -0.178175 3.31435e-20)
(0.983755 -0.178186 1.58084e-20)
(0.983735 -0.178228 -8.33447e-20)
(0.983725 -0.178296 7.20562e-20)
(0.983725 -0.178382 2.80974e-20)
(0.983734 -0.178476 -8.06811e-20)
(0.983751 -0.178571 3.92966e-20)
(0.983773 -0.178667 1.79768e-20)
(0.9838 -0.17876 -1.22629e-20)
(0.98383 -0.178852 1.42932e-20)
(0.983862 -0.178943 -8.97698e-21)
(0.983897 -0.179032 -9.58805e-20)
(0.983933 -0.17912 6.19543e-20)
(0.983971 -0.179206 -9.27856e-20)
(0.98401 -0.179289 1.67528e-19)
(0.984052 -0.179368 -3.37908e-20)
(0.984095 -0.179444 -1.87569e-20)
(0.984141 -0.179515 -5.84776e-21)
(0.98419 -0.179582 1.58309e-19)
(0.984241 -0.17964 -6.59638e-20)
(0.984296 -0.179687 -3.60278e-20)
(0.984354 -0.179723 9.01713e-20)
(0.984416 -0.179745 7.11578e-20)
(0.984482 -0.179752 -1.15433e-19)
(0.984553 -0.179744 2.09027e-20)
(0.984629 -0.179719 1.96368e-19)
(0.984709 -0.179679 -8.33536e-21)
(0.984794 -0.179622 9.745e-20)
(0.984886 -0.179548 -1.21118e-19)
(0.984987 -0.179455 1.55297e-19)
(0.985097 -0.179342 2.6356e-19)
(0.985222 -0.179206 6.54007e-20)
(0.985366 -0.179045 -3.27017e-20)
(0.985534 -0.178852 2.76971e-20)
(0.985735 -0.178622 -5.30985e-20)
(0.985972 -0.178342 -8.77649e-20)
(0.986256 -0.178005 -2.34374e-19)
(0.986586 -0.177587 2.11231e-20)
(0.98696 -0.177062 9.21241e-19)
(0.98736 -0.176388 -1.01696e-18)
(0.987768 -0.17552 8.60057e-19)
(0.988131 -0.174389 -2.18466e-18)
(0.98848 -0.172946 -6.21464e-19)
(0.988917 -0.1712 -3.76573e-18)
(0.989722 -0.16789 -6.7609e-18)
(0.989415 -0.161699 -2.05904e-18)
(0.995598 -0.167175 -1.87647e-18)
(0.984756 -0.178932 -2.08904e-21)
(0.984656 -0.178928 1.78499e-21)
(0.984523 -0.17896 8.96019e-21)
(0.984382 -0.179001 1.41564e-20)
(0.984264 -0.179012 -4.16675e-20)
(0.98417 -0.178993 2.39029e-20)
(0.984089 -0.178975 -4.28231e-20)
(0.984011 -0.178985 6.67764e-20)
(0.983934 -0.179023 -3.12021e-20)
(0.983859 -0.179066 5.50598e-21)
(0.983789 -0.179087 6.02969e-20)
(0.983723 -0.179077 -1.36818e-19)
(0.983661 -0.179048 9.32018e-20)
(0.983604 -0.17902 1.33765e-20)
(0.983553 -0.179011 2.13032e-20)
(0.983511 -0.179032 -8.85591e-20)
(0.983481 -0.179082 4.34115e-20)
(0.983464 -0.179153 -5.34501e-20)
(0.983462 -0.179236 1.045e-19)
(0.983472 -0.179325 -1.38392e-20)
(0.983493 -0.179416 -1.30181e-19)
(0.983524 -0.179506 5.18791e-20)
(0.983562 -0.179596 -2.90042e-21)
(0.983606 -0.179687 -1.83341e-19)
(0.983653 -0.179776 1.36498e-19)
(0.983703 -0.179866 1.00201e-19)
(0.983756 -0.179954 6.51952e-20)
(0.983811 -0.18004 -8.56788e-20)
(0.983868 -0.180123 -9.12349e-20)
(0.983927 -0.180201 4.24787e-20)
(0.983988 -0.180276 5.79625e-20)
(0.984052 -0.180345 -7.02383e-20)
(0.98412 -0.180406 -9.80581e-20)
(0.984191 -0.180456 2.08065e-19)
(0.984266 -0.180493 2.09317e-20)
(0.984347 -0.180515 -2.80327e-19)
(0.984433 -0.180519 2.89633e-20)
(0.984524 -0.180506 1.63472e-19)
(0.984622 -0.180475 1.09028e-20)
(0.984726 -0.180426 1.89888e-19)
(0.984837 -0.180359 -2.02927e-19)
(0.984956 -0.180273 4.06311e-21)
(0.985083 -0.180166 -1.07323e-19)
(0.98522 -0.180039 -4.47998e-22)
(0.985368 -0.179891 8.03795e-20)
(0.985533 -0.179721 6.08247e-20)
(0.985717 -0.179526 1.50236e-20)
(0.985929 -0.179302 1.33763e-19)
(0.986173 -0.179037 -2.41261e-19)
(0.986461 -0.178723 -1.09417e-18)
(0.986796 -0.178335 1.16977e-18)
(0.98718 -0.177839 -1.80892e-18)
(0.987605 -0.177186 1.3709e-18)
(0.988062 -0.176312 1.03927e-18)
(0.988509 -0.175128 4.62437e-18)
(0.988982 -0.173546 3.43729e-19)
(0.989625 -0.17153 2.34991e-18)
(0.990652 -0.167812 3.65083e-18)
(0.990438 -0.161074 -4.80669e-18)
(0.996757 -0.166635 -6.90675e-19)
(0.984405 -0.180028 2.7845e-21)
(0.984276 -0.180044 9.75051e-22)
(0.984148 -0.180082 -1.00174e-20)
(0.984026 -0.180139 9.51118e-21)
(0.983936 -0.180171 -4.1962e-21)
(0.983877 -0.180166 7.50839e-21)
(0.983836 -0.180152 2.58652e-21)
(0.9838 -0.180156 -3.72724e-20)
(0.983763 -0.180185 1.60883e-20)
(0.983725 -0.18022 -1.09496e-20)
(0.983686 -0.180235 6.56631e-21)
(0.983646 -0.180219 2.56734e-20)
(0.983602 -0.180178 -4.69669e-21)
(0.983554 -0.180131 1.57211e-20)
(0.983503 -0.180097 -6.61654e-20)
(0.983451 -0.180088 2.54368e-20)
(0.983404 -0.180107 1.13941e-20)
(0.983365 -0.180147 -2.99253e-20)
(0.98334 -0.180203 5.92592e-20)
(0.98333 -0.180266 1.91736e-20)
(0.983335 -0.180334 -2.16998e-21)
(0.983353 -0.180403 -1.984e-20)
(0.983384 -0.180475 8.1186e-20)
(0.983424 -0.180549 -2.20598e-19)
(0.983472 -0.180624 1.13052e-19)
(0.983526 -0.180702 4.61439e-20)
(0.983584 -0.180781 -7.8067e-20)
(0.983645 -0.18086 1.34585e-19)
(0.98371 -0.180937 -6.63524e-20)
(0.983777 -0.181011 -3.28987e-20)
(0.983847 -0.181083 -6.17699e-20)
(0.983921 -0.181151 -2.10276e-20)
(0.983998 -0.181212 6.68272e-20)
(0.98408 -0.181262 -1.88731e-19)
(0.984168 -0.1813 3.45398e-19)
(0.984262 -0.181323 -2.47195e-20)
(0.984364 -0.181328 1.54298e-19)
(0.984473 -0.181313 -3.74422e-19)
(0.984592 -0.181279 -1.01703e-19)
(0.984722 -0.181224 7.54354e-22)
(0.984863 -0.18115 -4.58766e-20)
(0.985016 -0.181053 1.38548e-20)
(0.985182 -0.180932 -1.21106e-19)
(0.985363 -0.180787 1.07878e-21)
(0.98556 -0.180619 1.17922e-20)
(0.985777 -0.180426 -1.69001e-20)
(0.986016 -0.180204 -2.03079e-19)
(0.986284 -0.179952 -6.5772e-20)
(0.986586 -0.179656 -9.86886e-20)
(0.986934 -0.179305 8.29213e-19)
(0.987332 -0.178872 -3.31351e-19)
(0.987784 -0.178317 9.61372e-19)
(0.988285 -0.17758 -2.67671e-18)
(0.988832 -0.176586 -5.0007e-19)
(0.989387 -0.175229 3.80017e-18)
(0.989979 -0.173406 -1.68337e-18)
(0.990766 -0.171076 6.12639e-18)
(0.991886 -0.167045 1.85494e-18)
(0.991632 -0.160107 1.74377e-17)
(0.997652 -0.16633 2.27029e-18)
(0.983864 -0.181422 -5.82736e-22)
(0.983754 -0.18144 -2.28835e-21)
(0.983671 -0.181471 -1.98693e-21)
(0.983598 -0.181529 1.90516e-20)
(0.983557 -0.181571 -1.05096e-20)
(0.983549 -0.181577 -1.25977e-20)
(0.983559 -0.181567 -4.75139e-21)
(0.983576 -0.181568 -1.93547e-20)
(0.983592 -0.18159 1.19874e-20)
(0.983604 -0.181615 1.70745e-21)
(0.983614 -0.181621 5.47531e-22)
(0.983619 -0.181594 5.07574e-20)
(0.983617 -0.18154 -3.58812e-20)
(0.983605 -0.181474 -4.49738e-21)
(0.983579 -0.181415 4.1061e-20)
(0.983542 -0.181375 -2.24628e-20)
(0.983497 -0.18136 -8.43034e-21)
(0.983451 -0.181365 1.40273e-20)
(0.983409 -0.181384 4.40442e-20)
(0.983378 -0.181412 2.37816e-20)
(0.98336 -0.181445 8.27167e-21)
(0.983357 -0.181481 -5.97036e-20)
(0.983369 -0.181519 2.90959e-20)
(0.983394 -0.181563 5.65285e-20)
(0.983431 -0.18161 -1.16061e-19)
(0.983478 -0.181662 3.61722e-20)
(0.983532 -0.181717 -1.42439e-19)
(0.983592 -0.181776 1.13375e-19)
(0.983656 -0.181836 9.50038e-20)
(0.983726 -0.181897 -1.48914e-19)
(0.983799 -0.181957 -6.4572e-20)
(0.983876 -0.182016 8.52294e-20)
(0.983959 -0.182071 2.78254e-20)
(0.984047 -0.182117 -7.33546e-20)
(0.984142 -0.182153 -8.35095e-20)
(0.984246 -0.182175 -9.68844e-20)
(0.98436 -0.182178 6.32047e-20)
(0.984485 -0.182163 1.36593e-19)
(0.984623 -0.182127 5.1342e-20)
(0.984776 -0.182069 -3.35926e-20)
(0.984947 -0.18199 3.15159e-19)
(0.985137 -0.181885 -3.31602e-20)
(0.985348 -0.181752 2.07435e-19)
(0.985582 -0.181589 -2.13676e-19)
(0.985841 -0.181397 -8.07128e-21)
(0.986127 -0.181172 1.84142e-20)
(0.986444 -0.18091 -5.33755e-20)
(0.986798 -0.180608 4.43674e-19)
(0.987191 -0.180249 8.99366e-19)
(0.987634 -0.179822 -1.11977e-18)
(0.98813 -0.179293 -1.88333e-18)
(0.988682 -0.178619 -1.30654e-18)
(0.989285 -0.177738 2.74356e-18)
(0.989932 -0.176564 -1.85245e-18)
(0.990585 -0.174994 -5.28413e-18)
(0.991255 -0.172928 -3.11227e-18)
(0.992105 -0.170355 -5.9829e-18)
(0.993209 -0.166178 -4.03345e-18)
(0.992837 -0.159269 -1.73223e-17)
(0.998396 -0.166328 7.12284e-18)
(0.983257 -0.183009 7.05834e-22)
(0.983207 -0.183025 -2.11648e-21)
(0.983191 -0.183041 7.51834e-21)
(0.98318 -0.18309 1.96397e-21)
(0.983194 -0.183131 -1.02552e-20)
(0.983237 -0.18314 -1.17867e-20)
(0.983298 -0.183131 2.77481e-20)
(0.983364 -0.183129 -3.01678e-20)
(0.98343 -0.183143 -7.39912e-21)
(0.983493 -0.183161 1.83817e-20)
(0.983553 -0.183158 1.69323e-20)
(0.983609 -0.183123 5.12597e-20)
(0.983658 -0.183058 -2.86892e-20)
(0.983696 -0.182978 -4.90576e-20)
(0.983717 -0.1829 1.06766e-20)
(0.983719 -0.182837 -3.95879e-20)
(0.983703 -0.182793 2.94406e-20)
(0.983672 -0.182767 -4.86752e-20)
(0.983634 -0.182752 8.15973e-21)
(0.983595 -0.182744 -1.48686e-20)
(0.983563 -0.182739 -8.92619e-21)
(0.983541 -0.182736 -4.15929e-20)
(0.983533 -0.182735 4.59548e-21)
(0.98354 -0.182739 8.8841e-20)
(0.98356 -0.182748 -2.84533e-20)
(0.983593 -0.182764 9.65911e-21)
(0.983636 -0.182786 2.59805e-20)
(0.983688 -0.182813 -3.39427e-20)
(0.983748 -0.182846 -5.52991e-21)
(0.983815 -0.182881 4.44818e-20)
(0.983888 -0.18292 4.9637e-20)
(0.983966 -0.182961 -3.80504e-20)
(0.984052 -0.183001 -1.07966e-19)
(0.984144 -0.183036 -1.38825e-19)
(0.984245 -0.183064 2.21187e-19)
(0.984357 -0.18308 5.44408e-20)
(0.984481 -0.183079 3.47593e-20)
(0.984619 -0.18306 1.37507e-19)
(0.984775 -0.183021 -1.25116e-19)
(0.984951 -0.182961 6.77682e-20)
(0.98515 -0.182877 -1.766e-20)
(0.985375 -0.182766 1.69238e-20)
(0.98563 -0.182622 -7.509e-20)
(0.985917 -0.182444 8.90528e-20)
(0.986238 -0.182228 2.10072e-20)
(0.986598 -0.181971 -1.07559e-19)
(0.986998 -0.181665 4.11767e-19)
(0.987445 -0.181305 -6.74906e-20)
(0.987938 -0.180872 -4.92512e-19)
(0.988487 -0.18035 1.2252e-18)
(0.989091 -0.179705 1.79578e-19)
(0.989749 -0.178893 -8.95166e-20)
(0.990452 -0.177848 7.20723e-19)
(0.991189 -0.176489 2.23146e-18)
(0.991911 -0.17472 -1.09317e-19)
(0.992617 -0.172462 -3.45175e-18)
(0.993468 -0.169743 4.02104e-18)
(0.994497 -0.165546 1.37922e-18)
(0.993978 -0.158785 2.21713e-18)
(0.999077 -0.166597 -5.3888e-18)
(0.982694 -0.184678 1.21401e-21)
(0.982723 -0.184674 -1.01937e-21)
(0.982777 -0.184669 9.34561e-22)
(0.982821 -0.184701 5.98254e-21)
(0.982883 -0.184732 8.68657e-21)
(0.982969 -0.184739 -3.3687e-20)
(0.98307 -0.18473 2.42612e-20)
(0.983176 -0.184727 5.03506e-21)
(0.983281 -0.184739 -1.50277e-21)
(0.983385 -0.184753 -1.07383e-20)
(0.983488 -0.184747 3.27935e-20)
(0.983589 -0.184707 -1.06588e-20)
(0.983686 -0.184637 -1.4676e-20)
(0.983775 -0.184549 -4.33108e-20)
(0.983851 -0.184461 8.64189e-20)
(0.983907 -0.184384 -1.80183e-20)
(0.98394 -0.184324 -1.51282e-20)
(0.983949 -0.184278 -4.29045e-20)
(0.983939 -0.18424 4.70446e-20)
(0.983916 -0.184206 2.54287e-20)
(0.983888 -0.184171 -1.10463e-20)
(0.983862 -0.184135 1.97546e-20)
(0.983843 -0.184097 -8.22018e-20)
(0.983835 -0.184063 5.94804e-21)
(0.983841 -0.184031 4.50549e-20)
(0.983859 -0.184007 -8.80358e-21)
(0.98389 -0.18399 -1.27126e-19)
(0.983933 -0.18398 1.41036e-20)
(0.983987 -0.183977 1.10194e-19)
(0.984049 -0.18398 -2.56099e-20)
(0.98412 -0.18399 -5.41703e-20)
(0.984199 -0.184004 2.40322e-20)
(0.984287 -0.184021 8.41143e-20)
(0.984384 -0.184037 1.91277e-19)
(0.984492 -0.184049 -3.22282e-20)
(0.984612 -0.184053 1.97606e-20)
(0.984747 -0.184042 -2.42059e-19)
(0.984898 -0.184016 -7.40534e-20)
(0.985071 -0.183971 3.736e-20)
(0.985267 -0.183905 -1.22431e-19)
(0.985493 -0.183816 -3.25931e-20)
(0.985751 -0.183698 4.50446e-20)
(0.986045 -0.183545 -2.48304e-21)
(0.98638 -0.183353 -1.42058e-20)
(0.986759 -0.183117 -1.62323e-19)
(0.987186 -0.182829 2.75595e-19)
(0.987663 -0.182481 -6.89287e-19)
(0.988195 -0.182064 -6.78531e-19)
(0.988782 -0.181558 3.39813e-20)
(0.989429 -0.180943 -1.5318e-18)
(0.990131 -0.180184 2.42144e-18)
(0.990883 -0.179237 3.5498e-18)
(0.991671 -0.17804 -3.28365e-18)
(0.992476 -0.176517 -3.3517e-18)
(0.993241 -0.174586 1.74505e-18)
(0.99395 -0.172193 1.10385e-17)
(0.994773 -0.1694 -3.07962e-18)
(0.995711 -0.165235 4.30395e-18)
(0.995054 -0.158615 8.97249e-18)
(0.999783 -0.167023 -4.525e-18)
(0.982249 -0.186321 -1.20254e-21)
(0.982356 -0.186307 1.31196e-21)
(0.982464 -0.186286 8.94626e-21)
(0.982549 -0.186303 -1.16309e-20)
(0.982643 -0.186324 2.10807e-20)
(0.982758 -0.186327 -3.08377e-20)
(0.982885 -0.186315 8.67064e-21)
(0.983017 -0.18631 -4.3054e-22)
(0.98315 -0.186319 1.90555e-20)
(0.983282 -0.186331 -9.93991e-21)
(0.983416 -0.186324 2.85146e-21)
(0.983551 -0.186284 3.0173e-21)
(0.983686 -0.186212 -4.63697e-20)
(0.98382 -0.186123 1.38935e-20)
(0.983945 -0.186032 3.17227e-20)
(0.984057 -0.18595 8.29866e-22)
(0.984146 -0.185882 -5.15673e-20)
(0.98421 -0.185828 2.05257e-20)
(0.984248 -0.18578 9.44039e-20)
(0.984263 -0.185731 -6.12492e-20)
(0.98426 -0.185679 -4.43562e-20)
(0.984249 -0.185621 3.78657e-20)
(0.984236 -0.185557 2.19715e-20)
(0.984227 -0.185493 2.45721e-20)
(0.984226 -0.185428 -4.77555e-20)
(0.984237 -0.185367 -9.81567e-20)
(0.984259 -0.185313 7.6451e-20)
(0.984295 -0.185265 1.03351e-19)
(0.984342 -0.185226 2.0139e-20)
(0.984401 -0.185193 -4.72047e-20)
(0.984471 -0.185169 2.19727e-20)
(0.984552 -0.185152 2.60378e-20)
(0.984644 -0.185141 -6.11583e-20)
(0.984747 -0.185131 -2.20777e-20)
(0.984863 -0.185122 -9.49802e-20)
(0.984994 -0.185108 -2.97889e-20)
(0.985141 -0.185081 -2.38066e-21)
(0.985308 -0.185042 5.27943e-20)
(0.985499 -0.184987 -5.28254e-20)
(0.985717 -0.184912 1.83392e-20)
(0.985967 -0.184815 6.34858e-21)
(0.986255 -0.184688 -5.86104e-21)
(0.986586 -0.184525 -5.41563e-21)
(0.986963 -0.18432 9.69987e-20)
(0.987391 -0.184064 1.2777e-19)
(0.987875 -0.18375 -5.13109e-19)
(0.988418 -0.183365 -1.57519e-19)
(0.989023 -0.182897 3.44617e-19)
(0.989687 -0.182324 -2.64607e-19)
(0.990416 -0.181626 1.97742e-18)
(0.991199 -0.180764 -1.1343e-18)
(0.992026 -0.179698 -3.80428e-18)
(0.992879 -0.17837 1.57927e-19)
(0.993731 -0.176712 4.65633e-18)
(0.994518 -0.174656 -2.5059e-18)
(0.995215 -0.17217 -2.78719e-18)
(0.996002 -0.169341 -4.31156e-18)
(0.996858 -0.165214 -1.22411e-17)
(0.996081 -0.158711 -1.66226e-17)
(1.00054 -0.167534 1.0332e-17)
(0.981951 -0.187877 -9.2426e-22)
(0.982119 -0.187849 1.33311e-21)
(0.982261 -0.187817 2.76124e-22)
(0.982367 -0.187821 5.04022e-21)
(0.982478 -0.187834 -7.60786e-21)
(0.982607 -0.187833 -1.55566e-20)
(0.982747 -0.187821 5.50359e-21)
(0.982892 -0.187816 -7.31067e-21)
(0.983039 -0.187826 1.57843e-20)
(0.983188 -0.187839 -3.17892e-21)
(0.98334 -0.187832 -1.02682e-20)
(0.983497 -0.187794 8.52045e-21)
(0.983659 -0.187724 1.36424e-20)
(0.983823 -0.187637 3.70115e-20)
(0.983987 -0.187547 -6.66266e-20)
(0.984145 -0.187467 3.36671e-20)
(0.984287 -0.1874 5.075e-21)
(0.984408 -0.187347 -3.21002e-20)
(0.984503 -0.187299 -1.9148e-20)
(0.98457 -0.18725 6.23053e-20)
(0.984613 -0.187195 -6.33022e-20)
(0.984636 -0.18713 1.92141e-20)
(0.984647 -0.187055 -4.80585e-20)
(0.984653 -0.186974 7.73243e-20)
(0.98466 -0.186889 -1.50521e-20)
(0.984673 -0.186803 -3.96233e-20)
(0.984695 -0.18672 3.24955e-20)
(0.984728 -0.186641 5.75223e-20)
(0.984774 -0.186569 -5.45853e-20)
(0.984833 -0.186504 3.35633e-20)
(0.984904 -0.186447 -9.57555e-20)
(0.984989 -0.186397 -8.76111e-21)
(0.985086 -0.186357 4.11921e-20)
(0.985198 -0.18632 -2.14138e-20)
(0.985325 -0.186285 -3.30553e-20)
(0.985469 -0.186248 -7.64418e-20)
(0.985632 -0.186202 9.72341e-20)
(0.985816 -0.186146 -1.81476e-20)
(0.986027 -0.186075 2.7076e-20)
(0.986267 -0.185987 1.8618e-20)
(0.986544 -0.185878 -1.23299e-20)
(0.986861 -0.185741 1.43821e-20)
(0.987224 -0.185566 -4.32759e-20)