/*--------------------------------*- C++ -*----------------------------------*\
  =========                 |
  \\      /  F ield         | OpenFOAM: The Open Source CFD Toolbox
   \\    /   O peration     | Website:  https://openfoam.org
    \\  /    A nd           | Version:  6.0
     \\/     M anipulation  |
\*---------------------------------------------------------------------------*/
FoamFile
{
    version     2.0;
    format      ascii;
    class       surfaceScalarField;
    location    "7";
    object      phi;
}
// * * * * * * * * * * * * * * * * * * * * * * * * * * * * * * * * * * * * * //

dimensions      [0 3 -1 0 0 0 0];

internalField   nonuniform List<scalar> 
9714
(
-0.000106943
8.23747e-05
0.000112918
-9.84704e-05
0.000114509
-8.69212e-05
0.000159185
-7.06412e-05
0.000221306
-4.80625e-05
0.000307615
-1.62631e-05
0.000427474
2.8398e-05
0.000593662
9.11997e-05
0.000823512
0.000179084
0.00113927
0.00030135
0.00156657
0.000468908
0.00212609
0.000691769
0.00280535
0.000970181
0.00347872
0.00127106
0.00370885
0.00236684
0.00144212
-0.000100124
7.68134e-05
0.000105632
-9.22852e-05
0.000106784
-8.1606e-05
0.000148436
-6.65657e-05
0.000206331
-4.56637e-05
0.00028667
-1.62687e-05
0.00039808
2.51125e-05
0.00055229
8.3267e-05
0.000765324
0.000164708
0.00105776
0.000277969
0.0014532
0.00043323
0.00197084
0.000639827
0.00259893
0.000897981
0.00322079
0.0011737
0.003434
0.00221097
0.00133407
-9.42098e-05
7.16585e-05
9.93323e-05
-8.6947e-05
9.96255e-05
-7.70465e-05
0.00013848
-6.31184e-05
0.000192464
-4.376e-05
0.000267277
-1.65481e-05
0.000370864
2.17743e-05
0.00051398
7.56368e-05
0.000711442
0.000151054
0.00098225
0.000255997
0.00134822
0.000399891
0.00182695
0.000591508
0.00240734
0.00083096
0.00298099
0.00108687
0.00317723
0.0020523
0.00124291
-8.92724e-05
6.6862e-05
9.39821e-05
-8.2513e-05
9.29653e-05
-7.33475e-05
0.000129218
-6.03987e-05
0.000179572
-4.24297e-05
0.000249259
-1.71714e-05
0.000345602
1.83811e-05
0.000478445
6.83165e-05
0.00066148
0.000138267
0.000912257
0.000235568
0.00125081
0.000369058
0.00169347
0.000546901
0.00222966
0.000769115
0.00275902
0.0010075
0.00293964
0.00190653
0.00115789
-8.48377e-05
6.24099e-05
8.92569e-05
-7.85587e-05
8.67833e-05
-7.00063e-05
0.000120624
-5.79789e-05
0.000167607
-4.12795e-05
0.000232537
-1.78296e-05
0.000322152
1.51718e-05
0.000445463
6.15279e-05
0.000615117
0.000126418
0.000847283
0.000216732
0.00116046
0.000340624
0.00156958
0.000505716
0.00206458
0.000711936
0.00255238
0.000933809
0.00271677
0.001761
0.00107625
-8.07351e-05
5.82613e-05
8.47786e-05
-7.48764e-05
8.10188e-05
-6.69614e-05
0.000112609
-5.5752e-05
0.000156454
-4.02233e-05
0.000216963
-1.84108e-05
0.00030034
1.22599e-05
0.000414817
5.52922e-05
0.000572066
0.000115543
0.000787
0.000199335
0.00107657
0.000314309
0.0014546
0.000467539
0.00191153
0.000658889
0.00236125
0.000865073
0.00251131
0.00163215
0.00099845
-7.65493e-05
5.44263e-05
8.03711e-05
-7.11219e-05
7.56879e-05
-6.37302e-05
0.000105195
-5.33432e-05
0.000146131
-3.89306e-05
0.000202538
-1.87052e-05
0.00028012
9.74208e-06
0.000386394
4.96779e-05
0.000532133
0.000105552
0.000731054
0.000183302
0.000998788
0.000289978
0.00134794
0.000432158
0.00176937
0.000609672
0.00218327
0.000801082
0.00231885
0.00150482
0.000925114
-7.24774e-05
5.08657e-05
7.5963e-05
-6.74292e-05
7.07347e-05
-6.06208e-05
9.83017e-05
-5.09675e-05
0.000136536
-3.75991e-05
0.000189135
-1.88209e-05
0.000261346
7.58172e-06
0.000360024
4.46135e-05
0.000495094
9.64455e-05
0.000679194
0.000168523
0.000926614
0.00026746
0.00124902
0.000399338
0.00163766
0.000563995
0.00201885
0.000741553
0.00214185
0.00139396
0.000856596
-6.83715e-05
4.75799e-05
7.16169e-05
-6.37144e-05
6.61624e-05
-5.73695e-05
9.19377e-05
-4.84407e-05
0.00012767
-3.60544e-05
0.000176743
-1.86714e-05
0.000243976
5.7784e-06
0.000335604
4.01011e-05
0.000460782
8.81112e-05
0.000631112
0.000154933
0.000859755
0.000246658
0.00115732
0.000368948
0.0015154
0.000521647
0.00186571
0.000686325
0.00197609
0.00128356
0.000792802
-6.43889e-05
4.4539e-05
6.7384e-05
-6.00627e-05
6.19294e-05
-5.42275e-05
8.60431e-05
-4.59574e-05
0.000119457
-3.44993e-05
0.000165262
-1.84035e-05
0.000227881
4.25237e-06
0.000312982
3.60338e-05
0.000428991
8.05257e-05
0.000586588
0.000142419
0.000797776
0.000227423
0.00107233
0.000340786
0.00140222
0.000482393
0.00172431
0.000635084
0.00182376
0.00118873
0.000733685
-6.05839e-05
4.17237e-05
6.33023e-05
-5.65975e-05
5.80092e-05
-5.11895e-05
8.05839e-05
-4.35323e-05
0.00011185
-3.29205e-05
0.00015463
-1.80175e-05
0.000212978
2.95279e-06
0.000292034
3.23931e-05
0.000399558
7.3577e-05
0.000545339
0.000130908
0.000740394
0.000209672
0.000993598
0.000314742
0.00129718
0.000446056
0.00159258
0.000587682
0.00168108
0.0010936
0.000679001
-5.69051e-05
3.91238e-05
5.9465e-05
-5.31924e-05
5.43893e-05
-4.82229e-05
7.55413e-05
-4.11416e-05
0.000104821
-3.13433e-05
0.000144798
-1.75662e-05
0.000199189
1.84903e-06
0.000272648
2.90942e-05
0.000372308
6.7233e-05
0.000507161
0.000120309
0.000687231
0.00019327
0.000920651
0.00029064
0.00119995
0.000412434
0.00147098
0.000543803
0.0015499
0.0010123
0.000628512
-5.35185e-05
3.67126e-05
5.58255e-05
-5.00897e-05
5.10309e-05
-4.54805e-05
7.08644e-05
-3.89135e-05
9.83043e-05
-2.98353e-05
0.00013569
-1.70773e-05
0.000186423
8.88596e-07
0.000254702
2.61163e-05
0.000347091
6.14068e-05
0.000471816
0.000110555
0.000638014
0.000178143
0.000853075
0.000268386
0.00110973
0.000381363
0.00135763
0.000503291
0.00142679
0.00093007
0.00058184
-5.02515e-05
3.44871e-05
5.2443e-05
-4.70508e-05
4.79318e-05
-4.28171e-05
6.65472e-05
-3.67472e-05
9.22857e-05
-2.83657e-05
0.000127271
-1.65769e-05
0.000174614
5.69522e-08
0.000238102
2.34084e-05
0.000323767
5.60608e-05
0.000439093
0.000101574
0.000592443
0.000164183
0.000790462
0.000247823
0.00102619
0.00035266
0.00125291
0.000465849
0.00131382
0.000860091
0.000538759
-4.72947e-05
3.24201e-05
4.92276e-05
-4.43539e-05
4.50518e-05
-4.04276e-05
6.25371e-05
-3.47857e-05
8.66991e-05
-2.70102e-05
0.000119465
-1.60786e-05
0.00016368
-6.54028e-07
0.000222749
2.09146e-05
0.000302161
5.11581e-05
0.000408828
9.33005e-05
0.000550242
0.000151323
0.000732474
0.000228864
0.000948625
0.000326185
0.00115529
0.000431321
0.00120775
0.000788565
0.000498948
-4.44453e-05
3.05124e-05
4.62859e-05
-4.16944e-05
4.23944e-05
-3.80867e-05
5.8835e-05
-3.28666e-05
8.1539e-05
-2.56775e-05
0.00011225
-1.55324e-05
0.000153568
-1.32714e-06
0.000208517
1.86691e-05
0.000282187
4.66399e-05
0.000380787
8.56893e-05
0.000511164
0.000139464
0.000678721
0.00021138
0.000876751
0.00030177
0.00106502
0.000399431
0.00111056
0.000728343
0.000462202
-4.18893e-05
2.87357e-05
4.35078e-05
-3.93411e-05
3.99189e-05
-3.59606e-05
5.53894e-05
-3.11051e-05
7.67408e-05
-2.44042e-05
0.00010555
-1.50601e-05
0.000144181
-1.87014e-06
0.00019535
1.65855e-05
0.000263666
4.24964e-05
0.000354838
7.86849e-05
0.000474991
0.00012855
0.000628917
0.000195291
0.000809981
0.000279295
0.000980808
0.00037004
0.00101941
0.000666673
0.000428242
-3.93708e-05
2.70975e-05
4.09451e-05
-3.69873e-05
3.76373e-05
-3.38792e-05
5.2212e-05
-2.9392e-05
7.23127e-05
-2.32047e-05
9.93585e-05
-1.45351e-05
0.000135505
-2.39063e-06
0.000183144
1.47075e-05
0.000246539
3.87024e-05
0.000330814
7.22424e-05
0.000441457
0.000118501
0.000582696
0.000180485
0.000748014
0.000258612
0.000902801
0.000342905
0.000936006
0.00061488
0.000396877
-3.71086e-05
2.5574e-05
3.84979e-05
-3.49003e-05
3.55144e-05
-3.19979e-05
4.92581e-05
-2.78254e-05
6.82001e-05
-2.20722e-05
9.36159e-05
-1.40719e-05
0.000127461
-2.80481e-06
0.00017186
1.29962e-05
0.000230671
3.52204e-05
0.000308562
6.63223e-05
0.000410395
0.000109269
0.000539836
0.000166889
0.000690362
0.000239611
0.000830088
0.000317895
0.0008577
0.000561334
0.000367894
-3.49007e-05
2.41703e-05
3.6269e-05
-3.2835e-05
3.35582e-05
-3.01711e-05
4.65338e-05
-2.63167e-05
6.44035e-05
-2.10063e-05
8.83088e-05
-1.35789e-05
0.000120026
-3.19162e-06
0.0001614
1.14523e-05
0.000215995
3.204e-05
0.000287951
6.08916e-05
0.000381571
0.000100787
0.000499982
0.00015442
0.000636749
0.00022215
0.000762461
0.000294798
0.00078627
0.000516863
0.000341103
-3.29728e-05
2.28574e-05
3.41471e-05
-3.10607e-05
3.17282e-05
-2.85632e-05
4.39892e-05
-2.49687e-05
6.08637e-05
-2.00191e-05
8.33721e-05
-1.31536e-05
0.000113119
-3.49597e-06
0.000151721
1.00431e-05
0.000202382
2.91292e-05
0.000268844
5.59136e-05
0.000354843
9.30203e-05
0.000462973
0.000143
0.000586766
0.000206142
0.000699435
0.000273497
0.000719503
0.00047042
0.000316336
-3.10405e-05
2.16481e-05
3.22118e-05
-2.92527e-05
3.00432e-05
-2.69602e-05
4.16441e-05
-2.36433e-05
5.75974e-05
-1.90713e-05
7.88095e-05
-1.26904e-05
0.000106732
-3.78359e-06
0.000142738
8.78086e-06
0.000189783
2.64821e-05
0.000251129
5.13643e-05
0.00032999
8.59133e-05
0.000428478
0.000132567
0.000540114
0.000191462
0.000640567
0.000253804
0.000658535
0.000432519
0.000293425
-2.93426e-05
2.05177e-05
3.03644e-05
-2.76795e-05
2.84672e-05
-2.55302e-05
3.94536e-05
-2.24344e-05
5.4552e-05
-1.81732e-05
7.45647e-05
-1.22744e-05
0.000100796
-3.98801e-06
0.000134424
7.64032e-06
0.000178087
2.40682e-05
0.000234689
4.72149e-05
0.000306918
7.94307e-05
0.000396362
0.000123046
0.000496535
0.000178029
0.000585892
0.00023563
0.000601596
0.000392429
0.000272249
-2.76532e-05
1.94755e-05
2.86728e-05
-2.60987e-05
2.70139e-05
-2.41212e-05
3.74316e-05
-2.12611e-05
5.17369e-05
-1.73164e-05
7.06359e-05
-1.18317e-05
9.53006e-05
-4.17667e-06
0.000126701
6.6301e-06
0.000167262
2.1887e-05
0.000219421
4.34393e-05
0.000285409
7.35347e-05
0.000366338
0.000114395
0.000455668
0.000165715
0.000534451
0.00021881
0.000549709
0.000360344
0.000252643
-2.61771e-05
1.84975e-05
2.70496e-05
-2.47348e-05
2.56497e-05
-2.28742e-05
3.55371e-05
-2.01975e-05
4.9106e-05
-1.65179e-05
6.69738e-05
-1.14319e-05
9.01884e-05
-4.29059e-06
0.000119552
5.71295e-06
0.00015719
1.99077e-05
0.000205241
4.00153e-05
0.000265394
6.81876e-05
0.000338283
0.000106534
0.000417387
0.000154458
0.000486922
0.00020327
0.000501419
0.000325833
0.000234518
-2.46985e-05
1.75972e-05
2.55709e-05
-2.33557e-05
2.43936e-05
-2.16388e-05
3.37895e-05
-1.91667e-05
4.6673e-05
-1.5749e-05
6.35819e-05
-1.10023e-05
8.54516e-05
-4.40833e-06
0.000112896
4.91593e-06
0.000147869
1.81239e-05
0.000192026
3.69202e-05
0.000246663
6.33626e-05
0.000311927
9.9434e-05
0.000381281
0.000144131
0.000441897
0.000188867
0.00045761
0.000298874
0.000217726
-2.34302e-05
1.67449e-05
2.41429e-05
-2.21769e-05
2.32038e-05
-2.05477e-05
3.21397e-05
-1.82165e-05
4.43884e-05
-1.50139e-05
6.0412e-05
-1.06128e-05
8.10379e-05
-4.45043e-06
0.000106733
4.18381e-06
0.000139165
1.65156e-05
0.000179725
3.4134e-05
0.000229169
5.90225e-05
0.000287175
9.30094e-05
0.000347429
0.000134682
0.000400734
0.000175542
0.000417012
0.000269084
0.000202196
-2.20316e-05
1.59776e-05
2.28904e-05
-2.08454e-05
2.21328e-05
-1.93526e-05
3.06479e-05
-1.72302e-05
4.23049e-05
-1.42819e-05
5.7498e-05
-1.01956e-05
7.69561e-05
-4.51069e-06
0.000100984
3.55414e-06
0.000131097
1.50745e-05
0.000168208
3.16409e-05
0.000212714
5.5155e-05
0.000263771
8.72399e-05
0.000315295
0.000125985
0.000361452
0.000163164
0.000380435
0.000246535
0.000187782
-2.0968e-05
1.52338e-05
2.16066e-05
-1.98712e-05
2.10931e-05
-1.84588e-05
2.92076e-05
-1.64396e-05
4.03143e-05
-1.36652e-05
5.47415e-05
-9.85257e-06
7.31258e-05
-4.52497e-06
9.56367e-05
2.96988e-06
0.000123528
1.37881e-05
0.000157449
2.94233e-05
0.000197224
5.17192e-05
0.000241618
8.20332e-05
0.000285183
0.000117997
0.000326095
0.000151689
0.000346793
0.000220743
0.000174441
-1.97796e-05
1.45605e-05
2.04857e-05
-1.87663e-05
2.01517e-05
-1.74692e-05
2.78965e-05
-1.56287e-05
3.84835e-05
-1.30527e-05
5.21873e-05
-9.49642e-06
6.95576e-05
-4.55273e-06
9.06257e-05
2.4764e-06
0.000116487
1.2643e-05
0.000147305
2.7477e-05
0.000182559
4.87127e-05
0.000220491
7.73717e-05
0.000256441
0.000110598
0.00029214
0.000141001
0.000316699
0.00020203
0.000162037
-1.88506e-05
1.39049e-05
1.93754e-05
-1.7902e-05
1.92346e-05
-1.66778e-05
2.66276e-05
-1.49196e-05
3.67341e-05
-1.24962e-05
4.97712e-05
-9.16474e-06
6.62117e-05
-4.53161e-06
8.59562e-05
2.02512e-06
0.000109866
1.16406e-05
0.000137764
2.57785e-05
0.000168556
4.60862e-05
0.000200386
7.31527e-05
0.000229626
0.000103749
0.000262195
0.000131073
0.000289248
0.000179528
0.00015055
-1.78244e-05
1.33111e-05
1.84057e-05
-1.69404e-05
1.84035e-05
-1.58078e-05
2.54713e-05
-1.41979e-05
3.51233e-05
-1.19332e-05
4.75338e-05
-8.8274e-06
6.30936e-05
-4.51052e-06
8.15978e-05
1.64288e-06
0.000103659
1.0759e-05
0.000128687
2.43542e-05
0.000155223
4.38331e-05
0.000180955
6.93535e-05
0.000203994
9.73465e-05
0.000233325
0.0001218
0.000264831
0.00016409
0.000139845
-1.69759e-05
1.27424e-05
1.74501e-05
-1.61406e-05
1.76073e-05
-1.50665e-05
2.43694e-05
-1.35322e-05
3.36041e-05
-1.14172e-05
4.54325e-05
-8.48946e-06
6.01992e-05
-4.48755e-06
7.74982e-05
1.30413e-06
9.78225e-05
1.00206e-05
0.00012005
2.31524e-05
0.000142228
4.18997e-05
0.000162423
6.58627e-05
0.000180329
9.13504e-05
0.000208568
0.000113171
0.000242757
0.000144256
0.000129932
-1.60666e-05
1.22243e-05
1.65879e-05
-1.52892e-05
1.68808e-05
-1.42877e-05
2.33593e-05
-1.2886e-05
3.21971e-05
-1.08727e-05
4.34931e-05
-8.21846e-06
5.7457e-05
-4.44276e-06
7.36909e-05
1.0096e-06
9.22817e-05
9.40107e-06
0.000111751
2.22229e-05
0.00012975
4.02601e-05
0.000144297
6.26525e-05
0.000157796
8.56797e-05
0.000184588
0.000105088
0.000223129
0.000131582
0.000120674
-1.52885e-05
1.17208e-05
1.57233e-05
-1.45456e-05
1.61777e-05
-1.36049e-05
2.23884e-05
-1.22375e-05
3.08638e-05
-1.04553e-05
4.16282e-05
-7.90938e-06
5.49162e-05
-4.4269e-06
7.00566e-05
7.69774e-07
8.70442e-05
8.91558e-06
0.000103763
2.14776e-05
0.000117342
3.88455e-05
0.000127214
5.9605e-05
0.000137317
8.02954e-05
0.000164614
9.75604e-05
0.00020549
0.00011403
0.000112104
-1.44517e-05
1.12559e-05
1.49214e-05
-1.37783e-05
1.55253e-05
-1.28873e-05
2.14811e-05
-1.17034e-05
2.9596e-05
-9.97002e-06
3.99011e-05
-7.6809e-06
5.2474e-05
-4.37725e-06
6.66801e-05
5.75687e-07
8.20899e-05
8.53919e-06
9.6003e-05
2.09833e-05
0.000105361
3.7596e-05
0.000110303
5.6692e-05
0.000118095
7.51483e-05
0.000145209
9.04871e-05
0.0001897
0.000103656
0.000104071
-1.37467e-05
1.08062e-05
1.41435e-05
-1.31082e-05
1.48981e-05
-1.22736e-05
2.06179e-05
-1.11076e-05
2.84139e-05
-9.58192e-06
3.82489e-05
-7.3953e-06
5.02301e-05
-4.31659e-06
6.3483e-05
4.25742e-07
7.73541e-05
8.28224e-06
8.84008e-05
2.06019e-05
9.32649e-05
3.64401e-05
9.47994e-05
5.37973e-05
0.000101041
7.01923e-05
0.000129609
8.39003e-05
0.000175528
8.78371e-05
9.66452e-05
-1.30214e-05
1.0392e-05
1.34343e-05
-1.24268e-05
1.43187e-05
-1.1637e-05
1.98162e-05
-1.06001e-05
2.73e-05
-9.12844e-06
3.67318e-05
-7.14183e-06
4.80823e-05
-4.22875e-06
6.04987e-05
3.27269e-07
7.28381e-05
8.13316e-06
8.09282e-05
2.04036e-05
8.1585e-05
3.52908e-05
7.93717e-05
5.09057e-05
8.53542e-05
6.54098e-05
0.000114249
7.76849e-05
0.000162595
7.93309e-05
8.9648e-05
-1.23719e-05
9.99442e-06
1.27377e-05
-1.18129e-05
1.37643e-05
-1.107e-05
1.90552e-05
-1.00651e-05
2.62573e-05
-8.74449e-06
3.52779e-05
-6.84071e-06
4.61036e-05
-4.11553e-06
5.76368e-05
2.92393e-07
6.84638e-05
8.07602e-06
7.34534e-05
2.02017e-05
6.97972e-05
3.4077e-05
6.58613e-05
4.79163e-05
7.17422e-05
6.07509e-05
0.000102184
7.19014e-05
0.000150821
6.52165e-05
8.31897e-05
-1.17261e-05
9.6206e-06
1.20738e-05
-1.12014e-05
1.32437e-05
-1.0504e-05
1.83395e-05
-9.58577e-06
2.52724e-05
-8.30807e-06
3.39412e-05
-6.57385e-06
4.41877e-05
-3.95603e-06
5.49402e-05
3.30018e-07
6.42067e-05
8.12039e-06
6.61247e-05
2.00616e-05
5.85902e-05
3.27038e-05
5.24344e-05
4.48391e-05
5.96533e-05
5.62293e-05
9.01323e-05
6.64156e-05
0.000139835
5.82561e-05
7.70539e-05
-1.11017e-05
9.26291e-06
1.14136e-05
-1.06155e-05
1.27489e-05
-9.9556e-06
1.76675e-05
-9.07579e-06
2.43575e-05
-7.93029e-06
3.26653e-05
-6.26594e-06
4.2427e-05
-3.74727e-06
5.22526e-05
4.75058e-07
6.00017e-05
8.19722e-06
5.87824e-05
1.97612e-05
4.75022e-05
3.11142e-05
4.15042e-05
4.15934e-05
4.94053e-05
5.17824e-05
8.0813e-05
6.13111e-05
0.000129551
4.54261e-05
7.14025e-05
-1.0468e-05
8.92963e-06
1.07812e-05
-1.00126e-05
1.22909e-05
-9.40077e-06
1.70456e-05
-8.604e-06
2.35089e-05
-7.51595e-06
3.1499e-05
-5.96369e-06
4.0685e-05
-3.40165e-06
4.95829e-05
7.4915e-07
5.58598e-05
8.3335e-06
5.18025e-05
1.93825e-05
3.73498e-05
2.92439e-05
3.06837e-05
3.82256e-05
4.06588e-05
4.74525e-05
7.12552e-05
5.64218e-05
0.000119733
3.9689e-05
6.59743e-05
-9.83434e-06
8.61907e-06
1.01458e-05
-9.42092e-06
1.18675e-05
-8.85876e-06
1.64791e-05
-8.13275e-06
2.27413e-05
-7.15839e-06
3.04074e-05
-5.60047e-06
3.9014e-05
-2.94367e-06
4.67118e-05
1.12381e-06
5.17773e-05
8.40214e-06
4.50009e-05
1.8694e-05
2.7669e-05
2.7058e-05
2.26393e-05
3.46785e-05
3.31252e-05
4.31747e-05
6.36232e-05
5.18648e-05
0.000110034
2.81906e-05
6.09718e-05
-9.21119e-06
8.33087e-06
9.50917e-06
-8.83504e-06
1.14826e-05
-8.33985e-06
1.59764e-05
-7.71041e-06
2.20766e-05
-6.81785e-06
2.94306e-05
-5.23471e-06
3.72082e-05
-2.30173e-06
4.36491e-05
1.58807e-06
4.7853e-05
8.50765e-06
3.8862e-05
1.78772e-05
1.93495e-05
2.45788e-05
1.49082e-05
3.10365e-05
2.71439e-05
3.90237e-05
5.57877e-05
4.74824e-05
0.000100735
2.34692e-05
5.60748e-05
-8.57792e-06
8.07016e-06
8.86087e-06
-8.24885e-06
1.11497e-05
-7.83412e-06
1.55686e-05
-7.36719e-06
2.15583e-05
-6.64916e-06
2.8579e-05
-4.81328e-06
3.52511e-05
-1.47392e-06
4.00212e-05
2.01572e-06
4.42364e-05
8.45911e-06
3.30193e-05
1.67424e-05
1.17235e-05
2.17961e-05
1.00854e-05
2.72342e-05
2.15987e-05
3.49431e-05
4.88736e-05
4.34176e-05
9.09791e-05
1.29959e-05
5.15032e-05
-7.91567e-06
7.83357e-06
8.16186e-06
-7.64107e-06
1.08755e-05
-7.38699e-06
1.52839e-05
-7.18892e-06
2.13156e-05
-6.57087e-06
2.78726e-05
-4.17136e-06
3.2589e-05
-4.37589e-07
3.61124e-05
2.06884e-06
4.16035e-05
8.36784e-06
2.7792e-05
1.58207e-05
5.33191e-06
1.90488e-05
6.03097e-06
2.34863e-05
1.79309e-05
3.10563e-05
4.20967e-05
3.95398e-05
8.17449e-05
9.48796e-06
4.6921e-05
-7.17237e-06
7.63199e-06
7.4087e-06
-7.00669e-06
1.06906e-05
-6.95963e-06
1.52375e-05
-7.20762e-06
2.15108e-05
-6.6039e-06
2.71248e-05
-3.15629e-06
2.90431e-05
3.33283e-07
3.22963e-05
1.56928e-06
4.00573e-05
7.83443e-06
2.21171e-05
1.42729e-05
-5.56658e-07
1.60722e-05
4.22474e-06
1.9749e-05
1.39067e-05
2.74084e-05
3.53629e-05
3.60542e-05
7.14224e-05
7.52316e-07
4.27027e-05
-6.33909e-06
7.45188e-06
6.53017e-06
-6.26642e-06
1.0621e-05
-6.64827e-06
1.55946e-05
-7.38583e-06
2.22096e-05
-6.4178e-06
2.60887e-05
-1.21407e-06
2.3613e-05
9.15677e-07
2.99656e-05
3.09189e-06
3.76202e-05
9.53595e-06
1.6513e-05
1.29397e-05
-3.02108e-06
1.33472e-05
3.36194e-06
1.6596e-05
1.17205e-05
2.42999e-05
2.90166e-05
3.28413e-05
6.22256e-05
-1.13125e-06
3.85585e-05
-5.29339e-06
7.28895e-06
5.49783e-06
-5.38518e-06
1.07056e-05
-6.3228e-06
1.6543e-05
-7.35746e-06
2.31951e-05
-5.26809e-06
2.3885e-05
1.14759e-06
1.71334e-05
2.83988e-06
2.79552e-05
7.93232e-06
3.23154e-05
1.19626e-05
1.27716e-05
1.26716e-05
-3.31721e-06
1.16326e-05
4.15229e-06
1.45279e-05
8.19523e-06
2.20798e-05
2.2376e-05
3.02781e-05
5.19802e-05
-8.1009e-06
3.51342e-05
-4.0573e-06
7.13763e-06
4.23805e-06
-4.57141e-06
1.12317e-05
-6.57585e-06
1.85227e-05
-7.23102e-06
2.38375e-05
-2.40719e-06
1.89879e-05
3.14081e-06
1.13755e-05
5.66158e-06
2.52206e-05
1.13775e-05
2.64027e-05
1.31203e-05
1.16463e-05
1.2503e-05
-1.92268e-06
1.05184e-05
6.02344e-06
1.34964e-05
6.4064e-06
2.06799e-05
1.68088e-05
2.82813e-05
4.37601e-05
-8.57704e-06
3.21115e-05
-2.29258e-06
6.89594e-06
2.5852e-06
-3.94276e-06
1.28825e-05
-9.38345e-06
2.40082e-05
-5.16361e-06
1.95549e-05
7.83422e-07
1.29398e-05
3.75395e-06
8.32235e-06
7.62821e-06
2.11429e-05
1.31329e-05
2.0723e-05
1.41138e-05
1.09484e-05
1.29863e-05
-3.65749e-07
1.03619e-05
8.26692e-06
1.31507e-05
3.03841e-06
1.98756e-05
1.10169e-05
2.68205e-05
3.47888e-05
-1.31182e-05
2.97922e-05
6.26744e-07
6.06241e-06
2.47356e-07
-3.04094e-06
1.65991e-05
-4.91238e-06
2.5861e-05
5.98779e-06
8.65661e-06
6.87259e-06
1.19711e-05
5.25751e-06
9.77718e-06
9.13965e-06
1.70515e-05
1.47985e-05
1.48651e-05
1.59475e-05
1.03914e-05
1.5331e-05
9.77427e-07
1.12397e-05
1.23776e-05
1.342e-05
1.87457e-06
1.95193e-05
6.48972e-06
2.56393e-05
2.79188e-05
-1.26927e-05
2.75918e-05
4.68237e-06
4.14695e-06
-2.70941e-06
3.55787e-06
1.77209e-05
1.09678e-05
1.84976e-05
1.43939e-05
5.19761e-06
1.03985e-05
1.59071e-05
7.13244e-06
1.2918e-05
9.47305e-06
1.47301e-05
1.67916e-05
6.97567e-06
1.77882e-05
9.70443e-06
1.75574e-05
2.0595e-06
1.19995e-05
1.74481e-05
1.38626e-05
-4.12528e-07
1.95333e-05
1.80956e-06
2.46768e-05
2.08436e-05
-1.46982e-05
2.56705e-05
7.58119e-06
2.00745e-06
-5.44571e-06
1.43671e-05
1.09672e-05
2.08444e-05
1.19995e-05
1.57673e-05
1.02728e-05
1.01293e-05
2.14749e-05
1.0645e-05
1.23264e-05
5.55771e-06
1.9651e-05
1.4483e-05
-2.28501e-06
1.13972e-05
1.33531e-05
1.45832e-05
-8.8043e-08
1.21488e-05
1.9807e-05
1.45636e-05
-2.18204e-06
1.97682e-05
-2.02236e-06
2.38226e-05
1.58013e-05
-1.33521e-05
2.36863e-05
7.69153e-06
1.34482e-07
-5.83147e-06
1.56627e-05
2.97822e-06
1.94147e-05
8.25575e-06
1.08787e-05
1.87969e-05
8.699e-06
2.3582e-05
1.41342e-05
6.66826e-06
9.72958e-06
2.41053e-05
1.00999e-05
-3.0824e-06
7.23516e-06
1.66178e-05
1.42104e-05
-6.34879e-06
1.43511e-05
1.92215e-05
1.58951e-05
-3.86588e-06
1.98924e-05
-4.74042e-06
2.28987e-05
1.09271e-05
-1.25198e-05
2.18065e-05
3.40812e-06
-1.57936e-06
-1.70315e-06
7.07561e-06
-6.85492e-07
9.23491e-06
6.10165e-06
5.07453e-06
2.29414e-05
1.05827e-05
1.79946e-05
1.6638e-05
5.23507e-07
9.55425e-06
3.11373e-05
6.17477e-06
1.09186e-07
8.852e-06
1.42811e-05
1.36412e-05
-1.06497e-05
1.78834e-05
1.48206e-05
1.78789e-05
-3.6022e-06
1.96582e-05
-5.24399e-06
2.17522e-05
7.62281e-06
-1.01438e-05
1.98085e-05
-4.24903e-06
-1.74669e-06
4.4127e-06
-3.46009e-06
-1.46651e-06
-1.92748e-06
4.56516e-06
3.675e-06
1.73399e-05
1.06626e-05
1.09558e-05
1.11685e-05
-1.01618e-07
6.44798e-06
3.58244e-05
5.49807e-06
9.23928e-07
1.10543e-05
9.01197e-06
1.34311e-05
-1.26023e-05
2.1036e-05
6.84132e-06
1.95082e-05
-1.87547e-06
1.88253e-05
-3.17606e-06
1.99479e-05
4.89023e-06
-7.33373e-06
1.73367e-05
-1.16562e-05
-5.64721e-07
1.04803e-05
-1.16239e-05
-1.50194e-06
-1.05149e-05
3.46282e-06
-3.35239e-06
1.01666e-05
2.92386e-07
7.26315e-06
-2.42132e-06
2.5228e-06
1.95051e-06
3.14257e-05
4.67885e-06
-2.11863e-06
9.10106e-06
4.88541e-06
9.94686e-06
-1.31199e-05
1.71051e-05
-7.68461e-07
1.6585e-05
-1.03883e-06
1.60686e-05
-1.02871e-06
1.64764e-05
2.71387e-06
-4.11644e-06
1.35937e-05
-1.55878e-05
5.78969e-07
1.44408e-05
-1.64672e-05
-6.2057e-07
-1.39808e-05
9.75744e-07
-8.49993e-06
4.67516e-06
-6.00828e-06
4.73173e-06
-7.26883e-06
3.6983e-06
1.23355e-05
1.1776e-05
1.37521e-05
-3.85169e-06
1.41636e-05
4.83454e-06
8.78546e-06
-7.28733e-06
1.00183e-05
-2.72448e-06
9.74315e-06
-4.4592e-07
1.03263e-05
8.72406e-08
1.05828e-05
2.24085e-07
-1.07697e-06
7.89681e-06
-1.32007e-05
1.3779e-05
-1.38211e-05
-1.28471e-05
-8.17705e-06
-3.45157e-06
2.4489e-07
1.20173e-05
8.16942e-06
1.30064e-05
5.71668e-06
2.99264e-06
2.54789e-06
2.634e-06
2.85817e-06
1.78085e-06
0.00144611
4.85597e-05
0.00145106
4.74516e-05
0.00145757
4.63249e-05
0.00146543
4.54431e-05
0.00147412
4.49033e-05
0.00148324
4.46674e-05
0.00149248
4.46886e-05
0.00150163
4.48861e-05
0.00151047
4.53596e-05
4.60763e-05
0.00151884
0.00133714
4.52001e-05
0.0013421
4.22348e-05
0.00134857
3.96084e-05
0.0013561
3.76962e-05
0.00136428
3.651e-05
0.00137285
3.58773e-05
0.00138172
3.56222e-05
0.00139085
3.55662e-05
0.00140063
3.54156e-05
3.55231e-05
0.00141114
0.00124213
4.57566e-05
0.00124381
4.03379e-05
0.00124759
3.56689e-05
0.0012529
3.22221e-05
0.00125932
2.99278e-05
0.00126652
2.85142e-05
0.0012743
2.7702e-05
0.00128247
2.72532e-05
0.00129089
2.68735e-05
2.64072e-05
0.00129997
0.00115635
4.71353e-05
0.00115683
3.97281e-05
0.00115912
3.32497e-05
0.00116287
2.83684e-05
0.00116773
2.49701e-05
0.00117341
2.27072e-05
0.00117976
2.12427e-05
0.00118664
2.02766e-05
0.00119398
1.94695e-05
1.84156e-05
0.00120194
0.00107543
4.78332e-05
0.00107591
3.9148e-05
0.00107769
3.1397e-05
0.00108056
2.54085e-05
0.00108433
2.11021e-05
0.00108884
1.81018e-05
0.00109397
1.60236e-05
0.00109964
1.45396e-05
0.00110583
1.32518e-05
1.16348e-05
0.00111258
0.000998344
4.78476e-05
0.000999079
3.83289e-05
0.00100069
2.97067e-05
0.0010031
2.29157e-05
0.00100622
1.79067e-05
0.00100993
1.43e-05
0.00101418
1.16954e-05
0.00101893
9.75386e-06
0.00102412
8.06457e-06
5.9799e-06
0.00102976
0.000925514
4.73367e-05
0.000926499
3.72217e-05
0.000928099
2.79936e-05
0.000930274
2.06159e-05
0.000932986
1.50728e-05
0.000936171
1.09887e-05
0.000939824
7.94741e-06
0.000943905
5.61537e-06
0.000948399
3.56169e-06
1.00052e-06
0.00095334
0.000857239
4.65748e-05
0.000858369
3.59504e-05
0.000859961
2.62519e-05
0.000861982
1.84192e-05
0.000864434
1.24738e-05
0.00086726
7.99458e-06
0.000870499
4.60614e-06
0.000874095
1.92587e-06
0.000878078
-4.25552e-07
-3.4051e-06
0.000882477
0.000793626
4.56793e-05
0.00079486
3.46764e-05
0.000796428
2.462e-05
0.000798361
1.64675e-05
0.000800584
1.01678e-05
0.000803174
5.40166e-06
0.000806055
1.67026e-06
0.000809316
-1.2849e-06
0.000812967
-3.96034e-06
-7.49846e-06
0.000817072
0.000734574
4.49642e-05
0.000735792
3.35912e-05
0.00073732
2.32476e-05
0.000739099
1.47934e-05
0.000741182
8.23333e-06
0.000743498
3.16759e-06
0.000746149
-8.35625e-07
0.000749122
-4.11655e-06
0.000752437
-7.13412e-06
-1.12259e-05
0.000756248
0.000679909
4.40741e-05
0.00068112
3.24452e-05
0.00068257
2.18736e-05
0.000684237
1.31937e-05
0.000686126
6.39937e-06
0.00068823
1.112e-06
0.000690623
-3.18144e-06
0.000693316
-6.76429e-06
0.000696405
-1.00528e-05
-1.49115e-05
0.000700027
0.000629376
4.32804e-05
0.000630502
3.1367e-05
0.000631834
2.05946e-05
0.000633353
1.17215e-05
0.000635044
4.75447e-06
0.000636926
-7.52101e-07
0.000639098
-5.32577e-06
0.00064159
-9.21494e-06
0.000644388
-1.28556e-05
-1.84866e-05
0.000647991
0.000582672
4.2296e-05
0.00058373
3.02201e-05
0.000584945
1.92985e-05
0.000586318
1.02847e-05
0.000587797
3.19224e-06
0.000589482
-2.50491e-06
0.000591438
-7.36235e-06
0.000593707
-1.1553e-05
0.000596319
-1.54435e-05
-2.20712e-05
0.000599776
0.000539534
4.15103e-05
0.000540473
2.92665e-05
0.000541546
1.8254e-05
0.000542746
9.14356e-06
0.00054402
1.95662e-06
0.000545497
-3.95188e-06
0.000547257
-9.11803e-06
0.00054935
-1.36409e-05
0.000551753
-1.78911e-05
-2.56067e-05
0.00055528
0.000499691
4.04548e-05
0.000500547
2.81752e-05
0.000501494
1.71362e-05
0.000502513
7.95894e-06
0.00050359
7.40744e-07
0.000504857
-5.35718e-06
0.000506423
-1.07992e-05
0.000508325
-1.56482e-05
0.000510573
-2.01776e-05
-2.91603e-05
0.000514005
0.000462895
3.9659e-05
0.000463644
2.73943e-05
0.00046444
1.63936e-05
0.000465269
7.21706e-06
0.000466145
-4.5539e-08
0.00046721
-6.37743e-06
0.000468592
-1.21387e-05
0.000470321
-1.73691e-05
0.000472395
-2.22559e-05
-3.26617e-05
0.00047588
0.000428931
3.84769e-05
0.000429596
2.6331e-05
0.000430255
1.54021e-05
0.000430901
6.28158e-06
0.000431572
-9.7758e-07
0.000432454
-7.46669e-06
0.000433644
-1.34867e-05
0.000435212
-1.90388e-05
0.000437096
-2.41657e-05
-3.60482e-05
0.000440441
0.000397546
3.76805e-05
0.000398103
2.57117e-05
0.00039861
1.49288e-05
0.000399082
5.92635e-06
0.000399558
-1.4008e-06
0.00040027
-8.09098e-06
0.000401283
-1.44684e-05
0.000402708
-2.03872e-05
0.000404375
-2.57946e-05
-3.92806e-05
0.000407635
0.000368577
3.62933e-05
0.000369048
2.45847e-05
0.000369427
1.39657e-05
0.000369731
5.06872e-06
0.000370031
-2.16861e-06
0.000370575
-8.98429e-06
0.00037143
-1.55201e-05
0.00037271
-2.1717e-05
0.000374209
-2.7224e-05
-4.23071e-05
0.000377362
0.00034179
3.54891e-05
0.000342155
2.41325e-05
0.000342394
1.37287e-05
0.000342564
4.98003e-06
0.000342695
-2.28208e-06
0.00034311
-9.3139e-06
0.000343813
-1.61583e-05
0.000344955
-2.27164e-05
0.000346295
-2.84604e-05
-4.54772e-05
0.000349498
0.000317058
3.40222e-05
0.000317336
2.30296e-05
0.000317462
1.28069e-05
0.00031751
4.21084e-06
0.000317486
-2.93609e-06
0.000317787
-1.00102e-05
0.000318346
-1.69477e-05
0.000319377
-2.36714e-05
0.000320516
-2.94391e-05
-4.82596e-05
0.00032355
0.00029415
3.34072e-05
0.000294317
2.29378e-05
0.000294326
1.29441e-05
0.000294283
4.49255e-06
0.000294136
-2.6997e-06
0.000294354
-9.99992e-06
0.000294788
-1.72913e-05
0.000295704
-2.43761e-05
0.000296639
-3.03287e-05
-5.11717e-05
0.000299566
0.000272994
3.18658e-05
0.00027307
2.18578e-05
0.00027299
1.20258e-05
0.000272866
3.71313e-06
0.000272607
-3.34971e-06
0.000272742
-1.06127e-05
0.000273063
-1.78788e-05
0.000273877
-2.49693e-05
0.000274626
-3.07924e-05
-5.34633e-05
0.000277387
0.000253371
3.14893e-05
0.000253326
2.21953e-05
0.000253156
1.25591e-05
0.000252982
4.31371e-06
0.000252655
-2.77312e-06
0.00025274
-1.03214e-05
0.000252966
-1.79596e-05
0.000253659
-2.54445e-05
0.000254235
-3.13962e-05
-5.6208e-05
0.000256895
0.000235259
3.00216e-05
0.000235111
2.13222e-05
0.000234868
1.17601e-05
0.000234654
3.62004e-06
0.000234246
-3.39469e-06
0.000234275
-1.07817e-05
0.000234404
-1.84008e-05
0.000235006
-2.56911e-05
0.000235401
-3.14783e-05
-5.81247e-05
0.000237866
0.000218441
3.0005e-05
0.000218155
2.22821e-05
0.000217847
1.28168e-05
0.000217613
4.63124e-06
0.000217183
-2.38877e-06
0.000217166
-1.01533e-05
0.000217226
-1.82543e-05
0.000217701
-2.60383e-05
0.000217936
-3.19619e-05
-6.07064e-05
0.000220228
0.000202933
2.84222e-05
0.000202531
2.15964e-05
0.000202176
1.20107e-05
0.00020192
3.92178e-06
0.000201431
-3.0353e-06
0.000201354
-1.05611e-05
0.000201337
-1.85258e-05
0.000201728
-2.59704e-05
0.000201799
-3.15812e-05
-6.20316e-05
0.000203827
0.000188514
2.85864e-05
0.000187948
2.3048e-05
0.000187574
1.33827e-05
0.000187315
5.12982e-06
0.000186825
-1.7071e-06
0.000186703
-9.69329e-06
0.000186626
-1.81905e-05
0.000186896
-2.62382e-05
0.00018683
-3.19283e-05
-6.43116e-05
0.000188603
0.000175229
2.67923e-05
0.000174528
2.25341e-05
0.00017414
1.24302e-05
0.000173869
4.3052e-06
0.000173324
-2.45737e-06
0.00017314
-1.0082e-05
0.00017299
-1.83453e-05
0.000173189
-2.58948e-05
0.000172991
-3.11605e-05
-6.49944e-05
0.000174488
0.000162847
2.70627e-05
0.000161967
2.44565e-05
0.000161601
1.40041e-05
0.000161337
5.61396e-06
0.000160792