/*--------------------------------*- C++ -*----------------------------------*\
  =========                 |
  \\      /  F ield         | OpenFOAM: The Open Source CFD Toolbox
   \\    /   O peration     | Website:  https://openfoam.org
    \\  /    A nd           | Version:  6.0
     \\/     M anipulation  |
\*---------------------------------------------------------------------------*/
FoamFile
{
    version     2.0;
    format      ascii;
    class       surfaceScalarField;
    location    "2.68";
    object      phi;
}
// * * * * * * * * * * * * * * * * * * * * * * * * * * * * * * * * * * * * * //

dimensions      [0 3 -1 0 0 0 0];

internalField   nonuniform List<scalar> 
26699
(
2.0051e-05
0.005201
4.9857e-10
4.0126e-05
0.0051116
5.9639e-05
0.0049351
7.8186e-05
0.0046741
9.5416e-05
0.0043332
0.00011102
0.0039182
0.00012472
0.0034362
0.00013626
0.0028953
0.00014546
0.002305
0.00015181
0.0016755
0.00015717
0.0010154
0.00046498
3.4394e-05
2.0051e-05
0.0051809
1.5549e-09
4.0127e-05
0.0050916
5.9641e-05
0.0049155
7.819e-05
0.0046556
9.5419e-05
0.004316
0.00011102
0.0039026
0.00012471
0.0034225
0.00013624
0.0028838
0.00014545
0.0022958
0.00015106
0.0016699
0.0001589
0.0010076
0.00055889
6.4993e-05
2.0051e-05
0.0051609
2.6835e-09
4.0128e-05
0.0050715
5.9643e-05
0.004896
7.8192e-05
0.004637
9.5422e-05
0.0042988
0.00011102
0.003887
0.00012471
0.0034088
0.00013622
0.0028723
0.00014546
0.0022865
0.0001503
0.001665
0.00016016
0.00099771
0.00062889
9.0156e-05
2.0051e-05
0.0051408
3.8227e-09
4.013e-05
0.0050514
5.9646e-05
0.0048765
7.8195e-05
0.0046185
9.5425e-05
0.0042815
0.00011103
0.0038714
0.0001247
0.0033951
0.0001362
0.0028608
0.0001455
0.0022772
0.00014956
0.001661
0.00016088
0.00098638
0.0006794
0.00011037
2.0052e-05
0.0051208
4.9637e-09
4.0131e-05
0.0050313
5.9648e-05
0.004857
7.8199e-05
0.0045999
9.5428e-05
0.0042643
0.00011103
0.0038558
0.0001247
0.0033814
0.00013617
0.0028493
0.00014557
0.0022678
0.00014886
0.0016577
0.00016109
0.00097416
0.00071405
0.00012643
2.0052e-05
0.0051007
6.1065e-09
4.0132e-05
0.0050112
5.9651e-05
0.0048375
7.8202e-05
0.0045814
9.5431e-05
0.0042471
0.00011103
0.0038402
0.0001247
0.0033678
0.00013614
0.0028379
0.00014566
0.0022583
0.00014824
0.0016551
0.00016084
0.00096157
0.00073589
0.000139
2.0052e-05
0.0050807
7.2509e-09
4.0134e-05
0.0049912
5.9653e-05
0.004818
7.8205e-05
0.0045628
9.5434e-05
0.0042299
0.00011103
0.0038246
0.0001247
0.0033541
0.00013611
0.0028265
0.00014577
0.0022486
0.0001477
0.0016532
0.00016022
0.00094905
0.00074748
0.00014863
2.0052e-05
0.0050606
8.397e-09
4.0135e-05
0.0049711
5.9655e-05
0.0047984
7.8208e-05
0.0045443
9.5438e-05
0.0042126
0.00011103
0.003809
0.0001247
0.0033404
0.00013607
0.0028151
0.0001459
0.0022388
0.00014726
0.0016518
0.00015934
0.00093697
0.00075099
0.00015583
2.0052e-05
0.0050405
9.5449e-09
4.0136e-05
0.004951
5.9658e-05
0.0047789
7.8211e-05
0.0045257
9.5441e-05
0.0041954
0.00011103
0.0037934
0.0001247
0.0033268
0.00013603
0.0028038
0.00014603
0.0022288
0.00014693
0.0016509
0.00015828
0.00092563
0.00074823
0.00016103
2.0052e-05
0.0050205
1.0695e-08
4.0137e-05
0.0049309
5.966e-05
0.0047594
7.8214e-05
0.0045072
9.5445e-05
0.0041782
0.00011104
0.0037778
0.0001247
0.0033131
0.00013598
0.0027925
0.00014617
0.0022186
0.00014671
0.0016504
0.00015711
0.00091523
0.00074072
0.00016462
2.0052e-05
0.0050004
1.1846e-08
4.0139e-05
0.0049108
5.9663e-05
0.0047399
7.8217e-05
0.0044886
9.5448e-05
0.0041609
0.00011104
0.0037622
0.00012471
0.0032994
0.00013593
0.0027813
0.0001463
0.0022083
0.00014659
0.0016501
0.00015589
0.00090593
0.00072971
0.0001669
2.0052e-05
0.0049803
1.3e-08
4.014e-05
0.0048907
5.9665e-05
0.0047203
7.822e-05
0.00447
9.5452e-05
0.0041437
0.00011104
0.0037467
0.00012471
0.0032858
0.00013588
0.0027701
0.00014644
0.0021977
0.00014658
0.0016499
0.0001547
0.00089781
0.00071623
0.00016818
2.0052e-05
0.0049603
1.4155e-08
4.0141e-05
0.0048707
5.9667e-05
0.0047008
7.8223e-05
0.0044515
9.5455e-05
0.0041265
0.00011104
0.0037311
0.00012472
0.0032721
0.00013582
0.002759
0.00014657
0.0021869
0.00014666
0.0016499
0.00015356
0.00089091
0.00070111
0.00016868
2.0052e-05
0.0049402
1.5312e-08
4.0143e-05
0.0048506
5.967e-05
0.0046813
7.8226e-05
0.0044329
9.5459e-05
0.0041092
0.00011104
0.0037155
0.00012473
0.0032584
0.00013576
0.002748
0.00014668
0.002176
0.00014683
0.0016497
0.00015251
0.00088523
0.00068503
0.00016859
2.0053e-05
0.0049201
1.6472e-08
4.0144e-05
0.0048305
5.9672e-05
0.0046618
7.8229e-05
0.0044144
9.5462e-05
0.004092
0.00011104
0.0036999
0.00012474
0.0032447
0.0001357
0.002737
0.00014679
0.0021649
0.00014707
0.0016494
0.00015157
0.00088074
0.00066852
0.00016808
2.0053e-05
0.0049001
1.7633e-08
4.0145e-05
0.0048104
5.9675e-05
0.0046422
7.8233e-05
0.0043958
9.5466e-05
0.0040748
0.00011105
0.0036843
0.00012475
0.003231
0.00013563
0.0027261
0.00014688
0.0021537
0.00014738
0.0016489
0.00015076
0.00087736
0.00065199
0.00016729
2.0053e-05
0.00488
1.8797e-08
4.0146e-05
0.0047903
5.9677e-05
0.0046227
7.8236e-05
0.0043773
9.547e-05
0.0040575
0.00011105
0.0036687
0.00012477
0.0032173
0.00013556
0.0027153
0.00014696
0.0021423
0.00014774
0.0016481
0.00015008
0.00087502
0.00063576
0.00016631
2.0053e-05
0.0048599
1.9962e-08
4.0148e-05
0.0047702
5.9679e-05
0.0046032
7.8239e-05
0.0043587
9.5474e-05
0.0040403
0.00011105
0.0036532
0.00012478
0.0032035
0.0001355
0.0027046
0.00014701
0.0021308
0.00014815
0.001647
0.00014954
0.00087362
0.00062007
0.00016524
2.0053e-05
0.0048399
2.113e-08
4.0149e-05
0.0047501
5.9682e-05
0.0045836
7.8242e-05
0.0043401
9.5478e-05
0.0040231
0.00011105
0.0036376
0.0001248
0.0031898
0.00013543
0.002694
0.00014705
0.0021191
0.00014858
0.0016455
0.00014914
0.00087306
0.00060508
0.00016413
2.0053e-05
0.0048198
2.2301e-08
4.015e-05
0.00473
5.9684e-05
0.0045641
7.8245e-05
0.0043216
9.5482e-05
0.0040058
0.00011105
0.003622
0.00012482
0.003176
0.00013536
0.0026835
0.00014707
0.0021074
0.00014904
0.0016435
0.00014888
0.00087322
0.00059092
0.00016304
2.0053e-05
0.0047997
2.3473e-08
4.0152e-05
0.0047099
5.9687e-05
0.0045446
7.8249e-05
0.004303
9.5486e-05
0.0039886
0.00011105
0.0036065
0.00012484
0.0031622
0.0001353
0.002673
0.00014707
0.0020957
0.0001495
0.0016411
0.00014873
0.00087399
0.00057763
0.00016201
2.0053e-05
0.0047796
2.4648e-08
4.0153e-05
0.0046898
5.9689e-05
0.004525
7.8252e-05
0.0042845
9.549e-05
0.0039714
0.00011105
0.0035909
0.00012486
0.0031484
0.00013524
0.0026626
0.00014705
0.0020838
0.00014997
0.0016382
0.0001487
0.00087526
0.00056526
0.00016107
2.0053e-05
0.0047595
2.5826e-08
4.0154e-05
0.0046697
5.9692e-05
0.0045055
7.8255e-05
0.0042659
9.5494e-05
0.0039541
0.00011105
0.0035753
0.00012488
0.0031346
0.00013518
0.0026523
0.00014701
0.002072
0.00015043
0.0016347
0.00014877
0.00087692
0.00055381
0.00016022
2.0053e-05
0.0047395
2.7006e-08
4.0156e-05
0.0046496
5.9694e-05
0.004486
7.8259e-05
0.0042473
9.5499e-05
0.0039369
0.00011105
0.0035598
0.00012491
0.0031207
0.00013512
0.0026421
0.00014695
0.0020602
0.00015088
0.0016308
0.00014893
0.00087888
0.00054326
0.00015948
2.0053e-05
0.0047194
2.8189e-08
4.0157e-05
0.0046295
5.9697e-05
0.0044664
7.8262e-05
0.0042288
9.5503e-05
0.0039196
0.00011105
0.0035442
0.00012494
0.0031069
0.00013507
0.002632
0.00014688
0.0020484
0.00015131
0.0016264
0.00014916
0.00088103
0.00053356
0.00015886
2.0053e-05
0.0046993
2.9374e-08
4.0158e-05
0.0046094
5.9699e-05
0.0044469
7.8265e-05
0.0042102
9.5508e-05
0.0039024
0.00011105
0.0035287
0.00012496
0.003093
0.00013502
0.0026219
0.00014679
0.0020366
0.00015172
0.0016214
0.00014946
0.00088329
0.00052468
0.00015835
2.0053e-05
0.0046792
3.0562e-08
4.016e-05
0.0045893
5.9702e-05
0.0044273
7.8269e-05
0.0041916
9.5512e-05
0.0038851
0.00011105
0.0035132
0.00012499
0.003079
0.00013498
0.0026119
0.00014669
0.0020249
0.0001521
0.001616
0.00014981
0.00088558
0.00051655
0.00015794
2.0054e-05
0.0046591
3.1752e-08
4.0161e-05
0.0045692
5.9704e-05
0.0044078
7.8272e-05
0.0041731
9.5517e-05
0.0038679
0.00011105
0.0034976
0.00012502
0.003065
0.00013495
0.002602
0.00014657
0.0020133
0.00015245
0.0016101
0.0001502
0.00088783
0.00050912
0.00015764
2.0054e-05
0.004639
3.2946e-08
4.0162e-05
0.0045491
5.9707e-05
0.0043883
7.8275e-05
0.0041545
9.5522e-05
0.0038507
0.00011105
0.0034821
0.00012505
0.003051
0.00013492
0.0025921
0.00014644
0.0020017
0.00015277
0.0016038
0.00015062
0.00088998
0.00050231
0.00015743
2.0054e-05
0.004619
3.4142e-08
4.0164e-05
0.004529
5.9709e-05
0.0043687
7.8279e-05
0.0041359
9.5527e-05
0.0038334
0.00011105
0.0034666
0.00012508
0.003037
0.0001349
0.0025823
0.00014631
0.0019903
0.00015305
0.0015971
0.00015106
0.00089197
0.00049608
0.0001573
2.0054e-05
0.0045989
3.5342e-08
4.0165e-05
0.0045088
5.9712e-05
0.0043492
7.8282e-05
0.0041174
9.5532e-05
0.0038162
0.00011105
0.0034511
0.00012511
0.0030229
0.00013489
0.0025725
0.00014616
0.0019791
0.0001533
0.0015899
0.00015151
0.00089376
0.00049035
0.00015724
2.0054e-05
0.0045788
3.6544e-08
4.0166e-05
0.0044887
5.9714e-05
0.0043296
7.8286e-05
0.0040988
9.5538e-05
0.0037989
0.00011104
0.0034356
0.00012514
0.0030088
0.00013488
0.0025628
0.00014601
0.0019679
0.00015351
0.0015824
0.00015196
0.00089531
0.00048507
0.00015725
2.0054e-05
0.0045587
3.775e-08
4.0168e-05
0.0044686
5.9717e-05
0.0043101
7.8289e-05
0.0040802
9.5543e-05
0.0037816
0.00011104
0.0034201
0.00012517
0.0029947
0.00013488
0.0025531
0.00014586
0.001957
0.00015369
0.0015746
0.00015241
0.00089659
0.00048017
0.00015731
2.0054e-05
0.0045386
3.8959e-08
4.0169e-05
0.0044485
5.9719e-05
0.0042905
7.8293e-05
0.0040616
9.5549e-05
0.0037644
0.00011104
0.0034046
0.0001252
0.0029805
0.0001349
0.0025434
0.0001457
0.0019461
0.00015383
0.0015665
0.00015285
0.00089757
0.00047561
0.00015741
2.0054e-05
0.0045185
4.0171e-08
4.017e-05
0.0044284
5.9722e-05
0.004271
7.8296e-05
0.0040431
9.5555e-05
0.0037471
0.00011104
0.0033891
0.00012523
0.0029663
0.00013492
0.0025337
0.00014554
0.0019355
0.00015394
0.0015581
0.00015327
0.00089824
0.00047133
0.00015754
2.0054e-05
0.0044984
4.1387e-08
4.0172e-05
0.0044083
5.9724e-05
0.0042514
7.83e-05
0.0040245
9.5561e-05
0.0037299
0.00011103
0.0033736
0.00012526
0.0029521
0.00013494
0.002524
0.00014539
0.0019251
0.00015402
0.0015494
0.00015367
0.00089859
0.00046729
0.0001577
2.0054e-05
0.0044783
4.2606e-08
4.0173e-05
0.0043881
5.9727e-05
0.0042319
7.8304e-05
0.0040059
9.5567e-05
0.0037126
0.00011103
0.0033582
0.00012529
0.0029379
0.00013498
0.0025144
0.00014524
0.0019148
0.00015407
0.0015406
0.00015405
0.00089861
0.00046346
0.00015788
2.0054e-05
0.0044582
4.3829e-08
4.0174e-05
0.004368
5.973e-05
0.0042123
7.8307e-05
0.0039873
9.5573e-05
0.0036953
0.00011103
0.0033427
0.00012531
0.0029236
0.00013502
0.0025046
0.00014509
0.0019047
0.00015409
0.0015316
0.0001544
0.0008983
0.00045978
0.00015807
2.0054e-05
0.0044381
4.5055e-08
4.0176e-05
0.0043479
5.9732e-05
0.0041927
7.8311e-05
0.0039688
9.558e-05
0.0036781
0.00011102
0.0033273
0.00012534
0.0029092
0.00013507
0.0024949
0.00014495
0.0018949
0.00015408
0.0015225
0.00015472
0.00089766
0.00045624
0.00015827
2.0054e-05
0.004418
4.6285e-08
4.0177e-05
0.0043278
5.9735e-05
0.0041732
7.8314e-05
0.0039502
9.5586e-05
0.0036608
0.00011102
0.0033118
0.00012536
0.0028949
0.00013513
0.0024852
0.00014482
0.0018852
0.00015406
0.0015132
0.00015502
0.0008967
0.0004528
0.00015847
2.0055e-05
0.0043979
4.7519e-08
4.0179e-05
0.0043077
5.9738e-05
0.0041536
7.8318e-05
0.0039316
9.5593e-05
0.0036435
0.00011102
0.0032964
0.00012538
0.0028805
0.00013519
0.0024754
0.00014469
0.0018757
0.00015402
0.0015039
0.0001553
0.00089542
0.00044943
0.00015866
2.0055e-05
0.0043778
4.8757e-08
4.018e-05
0.0042875
5.974e-05
0.0041341
7.8322e-05
0.003913
9.56e-05
0.0036263
0.00011101
0.003281
0.0001254
0.0028662
0.00013526
0.0024655
0.00014458
0.0018663
0.00015395
0.0014945
0.00015554
0.00089383
0.00044612
0.00015885
2.0055e-05
0.0043577
4.9999e-08
4.0181e-05
0.0042674
5.9743e-05
0.0041145
7.8325e-05
0.0038944
9.5607e-05
0.003609
0.00011101
0.0032656
0.00012542
0.0028517
0.00013533
0.0024556
0.00014447
0.0018572
0.00015388
0.0014851
0.00015576
0.00089195
0.00044285
0.00015903
2.0055e-05
0.0043376
5.1245e-08
4.0183e-05
0.0042473
5.9746e-05
0.0040949
7.8329e-05
0.0038758
9.5614e-05
0.0035917
0.00011101
0.0032502
0.00012543
0.0028373
0.00013541
0.0024456
0.00014438
0.0018482
0.00015379
0.0014757
0.00015595
0.00088979
0.0004396
0.0001592
2.0055e-05
0.0043175
5.2495e-08
4.0184e-05
0.0042272
5.9748e-05
0.0040754
7.8333e-05
0.0038573
9.5622e-05
0.0035744
0.00011101
0.0032348
0.00012545
0.0028229
0.00013549
0.0024356
0.0001443
0.0018394
0.0001537
0.0014663
0.00015612
0.00088737
0.00043636
0.00015936
2.0055e-05
0.0042974
5.375e-08
4.0186e-05
0.004207
5.9751e-05
0.0040558
7.8337e-05
0.0038387
9.5629e-05
0.0035571
0.000111
0.0032194
0.00012546
0.0028084
0.00013558
0.0024254
0.00014422
0.0018308
0.0001536
0.0014569
0.00015627
0.0008847
0.00043312
0.00015951
2.0055e-05
0.0042773
5.5008e-08
4.0187e-05
0.0041869
5.9754e-05
0.0040362
7.834e-05
0.0038201
9.5637e-05
0.0035398
0.000111
0.0032041
0.00012547
0.002794
0.00013566
0.0024153
0.00014417
0.0018223
0.00015349
0.0014476
0.0001564
0.0008818
0.00042987
0.00015965
2.0055e-05
0.0042572
5.6272e-08
4.0188e-05
0.0041668
5.9757e-05
0.0040167
7.8344e-05
0.0038015
9.5645e-05
0.0035225
0.000111
0.0031887
0.00012547
0.0027795
0.00013575
0.002405
0.00014412
0.0018139
0.00015339
0.0014383
0.0001565
0.00087868
0.0004266
0.00015977
2.0055e-05
0.004237
5.754e-08
4.019e-05
0.0041466
5.9759e-05
0.0039971
7.8348e-05
0.0037829
9.5653e-05
0.0035052
0.000111
0.0031734
0.00012548
0.002765
0.00013585
0.0023946
0.00014408
0.0018057
0.00015328
0.0014291
0.0001566
0.00087537
0.00042332
0.00015988
2.0055e-05
0.0042169
5.8813e-08
4.0191e-05
0.0041265
5.9762e-05
0.0039775
7.8352e-05
0.0037643
9.5661e-05
0.0034879
0.000111
0.003158
0.00012548
0.0027505
0.00013594
0.0023841
0.00014406
0.0017976
0.00015318
0.00142
0.00015667
0.00087187
0.00042001
0.00015999
2.0055e-05
0.0041968
6.009e-08
4.0193e-05
0.0041063
5.9765e-05
0.003958
7.8356e-05
0.0037457
9.5669e-05
0.0034706
0.000111
0.0031427
0.00012548
0.0027361
0.00013603
0.0023736
0.00014405
0.0017895
0.00015307
0.001411
0.00015674
0.0008682
0.00041667
0.00016008
2.0055e-05
0.0041767
6.1373e-08
4.0194e-05
0.0040862
5.9768e-05
0.0039384
7.836e-05
0.0037271
9.5677e-05
0.0034533
0.000111
0.0031274
0.00012548
0.0027216
0.00013612
0.0023629
0.00014405
0.0017816
0.00015298
0.0014021
0.0001568
0.00086438
0.00041331
0.00016016
2.0055e-05
0.0041566
6.266e-08
4.0196e-05
0.0040661
5.9771e-05
0.0039188
7.8364e-05
0.0037085
9.5686e-05
0.0034359
0.00011101
0.003112
0.00012547
0.0027071
0.00013621
0.0023522
0.00014406
0.0017738
0.00015289
0.0013932
0.00015684
0.00086043
0.00040992
0.00016023
2.0056e-05
0.0041365
6.3953e-08
4.0197e-05
0.0040459
5.9774e-05
0.0038992
7.8368e-05
0.00369
9.5694e-05
0.0034186
0.00011101
0.0030967
0.00012547
0.0026927
0.0001363
0.0023414
0.00014407
0.001766
0.0001528
0.0013845
0.00015688
0.00085635
0.0004065
0.0001603
2.0056e-05
0.0041163
6.525e-08
4.0199e-05
0.0040258
5.9777e-05
0.0038797
7.8372e-05
0.0036714
9.5703e-05
0.0034013
0.00011101
0.0030814
0.00012546
0.0026782
0.00013639
0.0023304
0.0001441
0.0017583
0.00015273
0.0013759
0.00015691
0.00085217
0.00040306
0.00016035
2.0056e-05
0.0040962
6.6553e-08
4.02e-05
0.0040056
5.978e-05
0.0038601
7.8376e-05
0.0036528
9.5711e-05
0.0033839
0.00011102
0.0030661
0.00012545
0.0026638
0.00013647
0.0023194
0.00014414
0.0017506
0.00015266
0.0013674
0.00015694
0.00084788
0.0003996
0.0001604
2.0056e-05
0.0040761
6.7862e-08
4.0202e-05
0.0039855
5.9783e-05
0.0038405
7.838e-05
0.0036342
9.572e-05
0.0033666
0.00011102
0.0030508
0.00012544
0.0026494
0.00013655
0.0023083
0.00014418
0.001743
0.0001526
0.0013589
0.00015697
0.00084351
0.00039612
0.00016045
2.0056e-05
0.004056
6.9176e-08
4.0204e-05
0.0039653
5.9786e-05
0.0038209
7.8384e-05
0.0036156
9.5729e-05
0.0033493
0.00011103
0.0030355
0.00012543
0.002635
0.00013663
0.0022971
0.00014423
0.0017354
0.00015255
0.0013506
0.00015699
0.00083907
0.00039262
0.00016049
2.0056e-05
0.0040358
7.0495e-08
4.0205e-05
0.0039452
5.9789e-05
0.0038013
7.8388e-05
0.003597
9.5737e-05
0.0033319
0.00011103
0.0030202
0.00012542
0.0026206
0.00013671
0.0022858
0.00014428
0.0017278
0.0001525
0.0013424
0.00015701
0.00083456
0.0003891
0.00016053
2.0056e-05
0.0040157
7.1821e-08
4.0207e-05
0.003925
5.9792e-05
0.0037817
7.8392e-05
0.0035784
9.5746e-05
0.0033146
0.00011104
0.0030049
0.0001254
0.0026062
0.00013678
0.0022744
0.00014434
0.0017203
0.00015247
0.0013343
0.00015704
0.00082999
0.00038557
0.00016056
2.0056e-05
0.0039956
7.3152e-08
4.0208e-05
0.0039049
5.9795e-05
0.0037622
7.8396e-05
0.0035598
9.5755e-05
0.0032972
0.00011105
0.0029896
0.00012539
0.0025919
0.00013684
0.002263
0.0001444
0.0017127
0.00015244
0.0013262
0.00015706
0.00082537
0.00038203
0.0001606
2.0056e-05
0.0039755
7.4489e-08
4.021e-05
0.0038847
5.9798e-05
0.0037426
7.8401e-05
0.0035412
9.5764e-05
0.0032798
0.00011106
0.0029743
0.00012538
0.0025776
0.00013691
0.0022515
0.00014447
0.0017051
0.00015242
0.0013183
0.00015708
0.00082071
0.00037849
0.00016063
2.0056e-05
0.0039553
7.5833e-08
4.0212e-05
0.0038646
5.9801e-05
0.003723
7.8405e-05
0.0035226
9.5773e-05
0.0032625
0.00011107
0.002959
0.00012536
0.0025633
0.00013697
0.0022399
0.00014454
0.0016976
0.00015241
0.0013104
0.00015711
0.00081601
0.00037494
0.00016066
2.0057e-05
0.0039352
7.7182e-08
4.0213e-05
0.0038444
5.9804e-05
0.0037034
7.8409e-05
0.003504
9.5782e-05
0.0032451
0.00011108
0.0029437
0.00012535
0.002549
0.00013703
0.0022282
0.00014461
0.00169
0.00015241
0.0013026
0.00015713
0.00081128
0.00037139
0.00016068
2.0057e-05
0.0039151
7.8538e-08
4.0215e-05
0.0038243
5.9808e-05
0.0036838
7.8414e-05
0.0034853
9.5791e-05
0.0032277
0.00011109
0.0029284
0.00012533
0.0025348
0.00013708
0.0022164
0.00014469
0.0016824
0.00015241
0.0012949
0.00015716
0.00080653
0.00036785
0.00016071
2.0057e-05
0.0038949
7.9901e-08
4.0217e-05
0.0038041
5.9811e-05
0.0036642
7.8418e-05
0.0034667
9.58e-05
0.0032103
0.0001111
0.0029131
0.00012532
0.0025205
0.00013713
0.0022046
0.00014476
0.0016747
0.00015242
0.0012872
0.00015719
0.00080176
0.0003643
0.00016074
2.0057e-05
0.0038748
8.127e-08
4.0218e-05
0.0037839
5.9814e-05
0.0036446
7.8422e-05
0.0034481
9.5809e-05
0.0031929
0.00011111
0.0028978
0.0001253
0.0025064
0.00013717
0.0021927
0.00014484
0.0016671
0.00015244
0.0012796
0.00015723
0.00079697
0.00036077
0.00016076
2.0057e-05
0.0038546
8.2646e-08
4.022e-05
0.0037638
5.9817e-05
0.003625
7.8427e-05
0.0034295
9.5818e-05
0.0031756
0.00011113
0.0028825
0.00012529
0.0024922
0.00013722
0.0021808
0.00014491
0.0016594
0.00015246
0.0012721
0.00015726
0.00079216
0.00035724
0.00016079
2.0057e-05
0.0038345
8.4029e-08
4.0222e-05
0.0037436
5.9821e-05
0.0036054
7.8431e-05
0.0034109
9.5828e-05
0.0031582
0.00011114
0.0028672
0.00012528
0.002478
0.00013726
0.0021688
0.00014499
0.0016516
0.00015248
0.0012646
0.0001573
0.00078735
0.00035373
0.00016081
2.0057e-05
0.0038144
8.5419e-08
4.0223e-05
0.0037235
5.9824e-05
0.0035858
7.8436e-05
0.0033923
9.5837e-05
0.0031408
0.00011115
0.0028519
0.00012527
0.0024639
0.00013729
0.0021568
0.00014506
0.0016439
0.00015251
0.0012572
0.00015734
0.00078252
0.00035022
0.00016084
2.0057e-05
0.0037942
8.6816e-08
4.0225e-05
0.0037033
5.9828e-05
0.0035662
7.8441e-05
0.0033737
9.5846e-05
0.0031234
0.00011117
0.0028366
0.00012525
0.0024498
0.00013733
0.0021447
0.00014514
0.0016361
0.00015255
0.0012497
0.00015738
0.00077769
0.00034674
0.00016086
2.0058e-05
0.0037741
8.8221e-08
4.0227e-05
0.0036831
5.9831e-05
0.0035466
7.8445e-05
0.0033551
9.5855e-05
0.0031059
0.00011118
0.0028213
0.00012524
0.0024358
0.00013736
0.0021326
0.00014521
0.0016282
0.00015258
0.0012424
0.00015742
0.00077286
0.00034327
0.00016089
2.0058e-05
0.0037539
8.9633e-08
4.0229e-05
0.0036629
5.9835e-05
0.003527
7.845e-05
0.0033365
9.5865e-05
0.0030885
0.0001112
0.0028059
0.00012523
0.0024218
0.00013739
0.0021205
0.00014528
0.0016203
0.00015263
0.001235
0.00015746
0.00076802
0.00033981
0.00016092
2.0058e-05
0.0037338
9.1053e-08
4.0231e-05
0.0036428
5.9838e-05
0.0035074
7.8455e-05
0.0033178
9.5874e-05
0.0030711
0.00011121
0.0027906
0.00012522
0.0024077
0.00013741
0.0021083
0.00014536
0.0016124
0.00015267
0.0012277
0.00015751
0.00076318
0.00033638
0.00016094
2.0058e-05
0.0037136
9.2481e-08
4.0232e-05
0.0036226
5.9842e-05
0.0034878
7.8459e-05
0.0032992
9.5883e-05
0.0030537
0.00011123
0.0027752
0.00012521
0.0023938
0.00013744
0.002096
0.00014543
0.0016044
0.00015271
0.0012204
0.00015755
0.00075834
0.00033297
0.00016097
2.0058e-05
0.0036935
9.3917e-08
4.0234e-05
0.0036024
5.9846e-05
0.0034682
7.8464e-05
0.0032806
9.5893e-05
0.0030363
0.00011125
0.0027599
0.00012521
0.0023798
0.00013746
0.0020838
0.00014549
0.0015963
0.00015276
0.0012132
0.0001576
0.0007535
0.00032957
0.00016099
2.0058e-05
0.0036733
9.5361e-08
4.0236e-05
0.0035822
5.9849e-05
0.0034486
7.8469e-05
0.003262
9.5902e-05
0.0030188
0.00011126
0.0027445
0.0001252
0.0023659
0.00013748
0.0020715
0.00014556
0.0015883
0.00015281
0.0012059
0.00015765
0.00074866
0.0003262
0.00016102
2.0059e-05
0.0036532
9.6813e-08
4.0238e-05
0.0035621
5.9853e-05
0.0034289
7.8474e-05
0.0032434
9.5912e-05
0.0030014
0.00011128
0.0027292
0.00012519
0.002352
0.0001375
0.0020592
0.00014563
0.0015801
0.00015286
0.0011987
0.0001577
0.00074382
0.00032285
0.00016105
2.0059e-05
0.003633
9.8274e-08
4.024e-05
0.0035419
5.9857e-05
0.0034093
7.8479e-05
0.0032247
9.5921e-05
0.0029839
0.0001113
0.0027138
0.00012519
0.0023381
0.00013752
0.0020469
0.00014569
0.001572
0.00015291
0.0011915
0.00015775
0.00073898
0.00031953
0.00016107
2.0059e-05
0.0036128
9.9744e-08
4.0242e-05
0.0035217
5.9861e-05
0.0033897
7.8483e-05
0.0032061
9.5931e-05
0.0029665
0.00011132
0.0026984
0.00012518
0.0023242
0.00013754
0.0020345
0.00014575
0.0015638
0.00015296
0.0011843
0.0001578
0.00073415
0.00031623
0.0001611
2.0059e-05
0.0035927
1.0122e-07
4.0244e-05
0.0035015
5.9865e-05
0.0033701
7.8488e-05
0.0031875
9.5941e-05
0.002949
0.00011134
0.002683
0.00012518
0.0023104
0.00013755
0.0020221
0.00014581
0.0015555
0.00015301
0.001177
0.00015785
0.00072931
0.00031295
0.00016113
2.0059e-05
0.0035725
1.0271e-07
4.0246e-05
0.0034813
5.9869e-05
0.0033505
7.8493e-05
0.0031689
9.595e-05
0.0029316
0.00011135
0.0026676
0.00012518
0.0022965
0.00013757
0.0020097
0.00014587
0.0015472
0.00015307
0.0011699
0.0001579
0.00072448
0.00030969
0.00016115
2.0059e-05
0.0035524
1.0421e-07
4.0248e-05
0.0034611
5.9873e-05
0.0033308
7.8498e-05
0.0031502
9.596e-05
0.0029141
0.00011137
0.0026522
0.00012518
0.0022827
0.00013758
0.0019973
0.00014593
0.0015389
0.00015312
0.0011627
0.00015795
0.00071965
0.00030646
0.00016118
2.006e-05
0.0035322
1.0571e-07
4.025e-05
0.003441
5.9877e-05
0.0033112
7.8503e-05
0.0031316
9.597e-05
0.0028967
0.00011139
0.0026368
0.00012518
0.0022689
0.0001376
0.0019849
0.00014599
0.0015305
0.00015317
0.0011555
0.000158
0.00071483
0.00030326
0.00016121
2.006e-05
0.003512
1.0723e-07
4.0252e-05
0.0034208
5.9881e-05
0.0032916
7.8508e-05
0.003113
9.598e-05
0.0028792
0.00011141
0.0026213
0.00012518
0.0022552
0.00013761
0.0019725
0.00014604
0.001522
0.00015323
0.0011483
0.00015805
0.00071001
0.00030007
0.00016123
2.006e-05
0.0034919
1.0876e-07
4.0254e-05
0.0034006
5.9885e-05
0.0032719
7.8514e-05
0.0030944
9.5989e-05
0.0028617
0.00011143
0.0026059
0.00012518
0.0022414
0.00013763
0.00196
0.0001461
0.0015136
0.00015328
0.0011411
0.0001581
0.00070519
0.00029691
0.00016126
2.006e-05
0.0034717
1.103e-07
4.0256e-05
0.0033804
5.989e-05
0.0032523
7.8519e-05
0.0030757
9.5999e-05
0.0028442
0.00011146
0.0025904
0.00012518
0.0022277
0.00013764
0.0019476
0.00014615
0.0015051
0.00015334
0.0011339
0.00015815
0.00070037
0.00029378
0.00016129
2.0061e-05
0.0034515
1.1184e-07
4.0258e-05
0.0033602
5.9894e-05
0.0032327
7.8524e-05
0.0030571
9.6009e-05
0.0028267
0.00011148
0.0025749
0.00012518
0.002214
0.00013765
0.0019351
0.0001462
0.0014965
0.00015339
0.0011267
0.0001582
0.00069556
0.00029067
0.00016131
2.0061e-05
0.0034313
1.134e-07
4.026e-05
0.00334
5.9899e-05
0.003213
7.8529e-05
0.0030385
9.6019e-05
0.0028093
0.0001115
0.0025595
0.00012519
0.0022003
0.00013766
0.0019226
0.00014626
0.0014879
0.00015344
0.0011195
0.00015825
0.00069075
0.00028758
0.00016134
2.0061e-05
0.0034112
1.1497e-07
4.0262e-05
0.0033198
5.9903e-05
0.0031934
7.8534e-05
0.0030198
9.6029e-05
0.0027918
0.00011152
0.002544
0.00012519
0.0021866
0.00013768
0.0019101
0.00014631
0.0014793
0.00015349
0.0011124
0.0001583
0.00068595
0.00028452
0.00016136
2.0061e-05
0.003391
1.1655e-07
4.0264e-05
0.0032996
5.9908e-05
0.0031738
7.854e-05
0.0030012
9.6039e-05
0.0027743
0.00011154
0.0025285
0.0001252
0.002173
0.00013769
0.0018977
0.00014636
0.0014706
0.00015355
0.0011052
0.00015835
0.00068114
0.00028148
0.00016139
2.0062e-05
0.0033708
1.1814e-07
4.0266e-05
0.0032794
5.9912e-05
0.0031541
7.8545e-05
0.0029826
9.6049e-05
0.0027568
0.00011156
0.002513
0.00012521
0.0021593
0.0001377
0.0018852
0.00014641
0.0014619
0.0001536
0.001098
0.0001584
0.00067634
0.00027846
0.00016142
2.0062e-05
0.0033506
1.1974e-07
4.0268e-05
0.0032592
5.9917e-05
0.0031345
7.855e-05
0.0029639
9.6059e-05
0.0027392
0.00011159
0.0024974
0.00012521
0.0021457
0.00013771
0.0018727
0.00014645
0.0014532
0.00015365
0.0010908
0.00015845
0.00067155
0.00027547
0.00016144
2.0062e-05
0.0033304
1.2136e-07
4.027e-05
0.003239
5.9922e-05
0.0031148
7.8556e-05
0.0029453
9.6069e-05
0.0027217
0.00011161
0.0024819
0.00012522
0.0021321
0.00013773
0.0018602
0.0001465
0.0014444
0.0001537
0.0010836
0.0001585
0.00066676
0.0002725
0.00016147
2.0062e-05
0.0033102
1.2299e-07
4.0273e-05
0.0032187
5.9927e-05
0.0030952
7.8561e-05
0.0029267
9.6078e-05
0.0027042
0.00011163
0.0024663
0.00012523
0.0021185
0.00013774
0.0018477
0.00014655
0.0014356
0.00015376
0.0010764
0.00015854
0.00066197
0.00026955
0.00016149
2.0063e-05
0.0032901
1.2463e-07
4.0275e-05
0.0031985
5.9932e-05
0.0030755
7.8567e-05
0.002908
9.6088e-05
0.0026867
0.00011166
0.0024508
0.00012524
0.0021049
0.00013775
0.0018351
0.0001466
0.0014267
0.00015381
0.0010692
0.00015859
0.00065718
0.00026662
0.00016152
2.0063e-05
0.0032699
1.2628e-07
4.0277e-05
0.0031783
5.9937e-05
0.0030558
7.8573e-05
0.0028894
9.6098e-05
0.0026692
0.00011168
0.0024352
0.00012525
0.0020913
0.00013776
0.0018226
0.00014664
0.0014179
0.00015386
0.0010619
0.00015864
0.0006524
0.00026372
0.00016155
2.0063e-05
0.0032497
1.2795e-07
4.0279e-05
0.0031581
5.9942e-05
0.0030362
7.8578e-05
0.0028708
9.6107e-05
0.0026516
0.0001117
0.0024196
0.00012527
0.0020778
0.00013778
0.0018101
0.00014669
0.001409
0.00015391
0.0010547
0.00015869
0.00064762
0.00026083
0.00016157
2.0064e-05
0.0032295
1.2963e-07
4.0282e-05
0.0031379
5.9948e-05
0.0030165
7.8584e-05
0.0028521
9.6117e-05
0.0026341
0.00011173
0.002404
0.00012528
0.0020642
0.00013779
0.0017976
0.00014673
0.0014
0.00015396
0.0010475
0.00015873
0.00064285
0.00025797
0.0001616
2.0064e-05
0.0032093
1.3132e-07
4.0284e-05
0.0031177
5.9953e-05
0.0029968
7.859e-05
0.0028335
9.6126e-05
0.0026166
0.00011175
0.0023884
0.00012529
0.0020507
0.00013781
0.0017851
0.00014678
0.001391
0.00015401
0.0010403
0.00015878
0.00063808
0.00025513
0.00016162
2.0064e-05
0.0031891
1.3303e-07
4.0286e-05
0.0030974
5.9959e-05
0.0029772
7.8596e-05
0.0028149
9.6136e-05
0.002599
0.00011178
0.0023727
0.00012531
0.0020371
0.00013782
0.0017726
0.00014682
0.001382
0.00015406
0.001033
0.00015883
0.00063331
0.00025231
0.00016165
2.0065e-05
0.0031689
1.3475e-07
4.0289e-05
0.0030772
5.9964e-05
0.0029575
7.8603e-05
0.0027962
9.6145e-05
0.0025815
0.0001118
0.0023571
0.00012533
0.0020236
0.00013783
0.0017601
0.00014687
0.001373
0.00015411
0.0010258
0.00015887
0.00062854
0.00024951
0.00016167
2.0065e-05
0.0031487
1.3648e-07
4.0291e-05
0.003057
5.997e-05
0.0029378
7.8609e-05
0.0027776
9.6154e-05
0.0025639
0.00011183
0.0023414
0.00012534
0.0020101
0.00013785
0.0017476
0.00014691
0.0013639
0.00015416
0.0010185
0.00015892
0.00062378
0.00024673
0.0001617
2.0065e-05
0.0031285
1.3823e-07
4.0293e-05
0.0030368
5.9976e-05
0.0029181
7.8615e-05
0.0027589
9.6163e-05
0.0025464
0.00011185
0.0023257
0.00012536
0.0019966
0.00013787
0.0017351
0.00014696
0.0013548
0.00015421
0.0010113
0.00015897
0.00061902
0.00024396
0.00016173
2.0066e-05
0.0031083
1.4e-07
4.0296e-05
0.0030165
5.9981e-05
0.0028984
7.8622e-05
0.0027403
9.6172e-05
0.0025288
0.00011188
0.00231
0.00012538
0.0019831
0.00013788
0.0017226
0.000147
0.0013457
0.00015426
0.001004
0.00015901
0.00061427
0.00024122
0.00016175
2.0066e-05
0.0030881
1.4178e-07
4.0298e-05
0.0029963
5.9987e-05
0.0028788
7.8629e-05
0.0027217
9.6181e-05
0.0025113
0.0001119
0.0022943
0.0001254
0.0019696
0.0001379
0.0017101
0.00014704
0.0013366
0.00015431
0.00099677
0.00015906
0.00060952
0.0002385
0.00016178
2.0067e-05
0.0030679
1.4358e-07
4.0301e-05
0.0029761
5.9993e-05
0.0028591
7.8636e-05
0.002703
9.619e-05
0.0024937
0.00011193
0.0022785
0.00012542
0.0019561
0.00013792
0.0016976
0.00014709
0.0013274
0.00015435
0.00098951
0.0001591
0.00060477
0.0002358
0.00016181
2.0067e-05
0.0030477
1.454e-07
4.0303e-05
0.0029558
5.9999e-05
0.0028394
7.8643e-05
0.0026844
9.6199e-05
0.0024762
0.00011195
0.0022628
0.00012544
0.0019426
0.00013793
0.0016851
0.00014713
0.0013182
0.0001544
0.00098224
0.00015915
0.00060002
0.00023311
0.00016183
2.0068e-05
0.0030274
1.4723e-07
4.0306e-05
0.0029356
6.0006e-05
0.0028197
7.865e-05
0.0026657
9.6207e-05
0.0024586
0.00011198
0.002247
0.00012546
0.0019291
0.00013795
0.0016726
0.00014717
0.001309
0.00015445
0.00097496
0.00015919
0.00059528
0.00023044
0.00016186
2.0068e-05
0.0030072
1.4907e-07
4.0308e-05
0.0029154
6.0012e-05
0.0028
7.8658e-05
0.0026471
9.6216e-05
0.0024411
0.000112
0.0022312
0.00012549
0.0019157
0.00013797
0.0016601
0.00014722
0.0012997
0.0001545
0.00096768
0.00015924
0.00059054
0.00022779
0.00016189
2.0068e-05
0.002987
1.5094e-07
4.0311e-05
0.0028951
6.0018e-05
0.0027803
7.8666e-05
0.0026284
9.6224e-05
0.0024235
0.00011203
0.0022154
0.00012551
0.0019022
0.00013799
0.0016476
0.00014726
0.0012905
0.00015454
0.00096039
0.00015928
0.0005858
0.00022516
0.00016191
2.0069e-05
0.0029668
1.5282e-07
4.0313e-05
0.0028749
6.0025e-05
0.0027605
7.8674e-05
0.0026098
9.6233e-05
0.002406
0.00011205
0.0021996
0.00012553
0.0018887
0.00013801
0.0016351
0.0001473
0.0012812
0.00015459