/*--------------------------------*- C++ -*----------------------------------*\
  =========                 |
  \\      /  F ield         | OpenFOAM: The Open Source CFD Toolbox
   \\    /   O peration     | Website:  https://openfoam.org
    \\  /    A nd           | Version:  6.0
     \\/     M anipulation  |
\*---------------------------------------------------------------------------*/
FoamFile
{
    version     2.0;
    format      ascii;
    class       volScalarField;
    location    "6";
    object      p;
}
// * * * * * * * * * * * * * * * * * * * * * * * * * * * * * * * * * * * * * //

dimensions      [0 2 -2 0 0 0 0];

internalField   nonuniform List<scalar> 
62000
(
0.0349798
0.0349696
0.034957
0.0349419
0.0349239
0.0349028
0.0348781
0.0348496
0.0348165
0.0347786
0.034735
0.0346853
0.0346283
0.0345635
0.0344895
0.0344053
0.0343094
0.0342003
0.0340762
0.0339352
0.033775
0.0335932
0.0333871
0.0331538
0.0328902
0.032593
0.0322592
0.0318856
0.03147
0.0310104
0.0305069
0.0299603
0.0293747
0.028755
0.0281099
0.0274538
0.026808
0.0261997
0.0256605
0.0252237
0.0249214
0.0247776
0.0248011
0.0249756
0.0252517
0.0255427
0.0257261
0.0256585
0.0251976
0.0242335
0.0227213
0.0206904
0.0182512
0.0155588
0.0128026
0.0101472
0.00772987
0.00561951
0.00390619
0.00280248
0.0350721
0.0350614
0.0350478
0.0350317
0.0350124
0.0349901
0.0349641
0.0349343
0.0349002
0.0348614
0.0348172
0.0347672
0.0347104
0.0346461
0.034573
0.0344901
0.034396
0.0342891
0.0341676
0.0340296
0.0338729
0.0336949
0.0334932
0.0332646
0.0330063
0.0327148
0.0323872
0.0320202
0.0316114
0.031159
0.0306628
0.0301245
0.0295472
0.0289357
0.0282977
0.0276481
0.0270091
0.0264094
0.0258825
0.0254648
0.0251931
0.0250986
0.0251986
0.0254875
0.025926
0.0264357
0.0268969
0.0271598
0.0270637
0.0264679
0.0252871
0.0235061
0.0211972
0.0184862
0.0155554
0.012579
0.00972435
0.00709328
0.00498168
0.0031467
0.0352268
0.0352158
0.0352018
0.0351852
0.0351656
0.0351427
0.0351162
0.0350859
0.0350511
0.0350117
0.0349668
0.0349159
0.0348581
0.0347927
0.0347183
0.034634
0.034538
0.0344289
0.0343048
0.0341635
0.0340026
0.0338196
0.0336114
0.0333748
0.0331064
0.0328024
0.0324591
0.0320727
0.0316399
0.0311579
0.0306255
0.0300432
0.0294126
0.0287363
0.0280191
0.027274
0.0265215
0.0257886
0.0251075
0.0245145
0.024048
0.0237435
0.0236263
0.0237021
0.0239468
0.0242995
0.0246582
0.0248874
0.0248333
0.0243516
0.0233423
0.0217657
0.0196662
0.0171396
0.0143533
0.0114763
0.00869423
0.00614796
0.00425857
0.00250402
0.0354306
0.0354196
0.0354061
0.0353902
0.0353714
0.0353496
0.0353241
0.0352948
0.0352611
0.0352226
0.0351786
0.0351285
0.0350713
0.0350063
0.0349323
0.0348479
0.0347516
0.0346418
0.0345163
0.034373
0.0342093
0.0340223
0.0338089
0.0335654
0.0332882
0.0329729
0.0326151
0.0322105
0.0317548
0.0312441
0.0306757
0.0300489
0.0293635
0.0286191
0.0278186
0.0269715
0.0260958
0.0252153
0.0243595
0.0235626
0.0228626
0.022297
0.0218967
0.0216771
0.0216288
0.0217092
0.0218374
0.021899
0.0217566
0.0212744
0.0203502
0.0189313
0.0170425
0.0147551
0.0122196
0.00959934
0.00709077
0.00487537
0.00340304
0.002114
0.0357161
0.035705
0.0356915
0.0356757
0.0356572
0.0356359
0.0356111
0.0355827
0.0355501
0.0355129
0.0354704
0.035422
0.0353666
0.0353036
0.0352316
0.0351494
0.0350553
0.0349477
0.0348244
0.0346833
0.0345217
0.0343365
0.0341245
0.033882
0.0336049
0.0332886
0.0329285
0.0325197
0.0320572
0.0315363
0.0309535
0.0303065
0.0295934
0.0288126
0.0279638
0.0270543
0.0260991
0.0251184
0.024138
0.0231891
0.0223071
0.0215295
0.0208898
0.0204094
0.0200894
0.0199028
0.0197873
0.0196489
0.0193687
0.0188241
0.0179172
0.0165902
0.0148549
0.0127653
0.0104577
0.00809022
0.0058636
0.00399063
0.00289596
0.00202263
0.0360755
0.0360646
0.0360517
0.0360369
0.0360196
0.0359998
0.0359768
0.0359505
0.0359201
0.0358856
0.0358459
0.0358007
0.035749
0.0356899
0.0356222
0.0355448
0.0354559
0.0353539
0.0352367
0.035102
0.0349473
0.0347694
0.0345652
0.0343309
0.0340625
0.0337553
0.0334045
0.0330049
0.0325514
0.0320388
0.0314625
0.0308197
0.0301073
0.0293215
0.0284613
0.0275311
0.0265431
0.0255139
0.0244656
0.0234255
0.0224254
0.0215007
0.0206846
0.0200017
0.0194598
0.0190428
0.018704
0.0183668
0.01793
0.0172856
0.0163433
0.0150456
0.0133965
0.0114385
0.00929582
0.00712289
0.0051182
0.00351621
0.00269505
0.0021027
0.0365351
0.0365244
0.0365119
0.0364979
0.0364817
0.0364633
0.036442
0.0364178
0.03639
0.0363584
0.0363221
0.0362807
0.036233
0.0361786
0.036116
0.0360443
0.0359616
0.0358666
0.0357571
0.0356311
0.0354859
0.0353187
0.0351263
0.0349049
0.0346508
0.0343592
0.0340254
0.0336442
0.0332103
0.0327182
0.0321631
0.0315412
0.0308486
0.0300813
0.0292355
0.0283148
0.0273283
0.0262894
0.0252163
0.0241322
0.023065
0.0220464
0.0211083
0.0202753
0.0195592
0.0189515
0.0184172
0.0178945
0.0172978
0.0165332
0.0155196
0.0142026
0.0125822
0.0106935
0.00865153
0.00660663
0.00475249
0.00333748
0.00269216
0.00227542
0.0370875
0.0370772
0.0370658
0.0370534
0.0370392
0.0370231
0.0370045
0.0369833
0.0369587
0.0369305
0.0368981
0.0368609
0.0368181
0.0367689
0.0367122
0.0366469
0.0365716
0.0364846
0.0363842
0.0362681
0.036134
0.0359792
0.0358005
0.0355945
0.0353574
0.0350847
0.0347719
0.0344137
0.034005
0.0335402
0.033014
0.0324225
0.0317613
0.0310247
0.0302093
0.0293161
0.0283524
0.0273283
0.0262586
0.0251624
0.0240634
0.0229894
0.0219694
0.021027
0.0201754
0.0194112
0.0187081
0.0180161
0.0172631
0.0163684
0.0152602
0.0138888
0.012253
0.0103839
0.00838846
0.00641458
0.00464881
0.0033504
0.00280834
0.00249731
0.0377699
0.0377594
0.0377479
0.0377354
0.0377213
0.0377056
0.0376876
0.0376674
0.0376442
0.037618
0.0375879
0.0375537
0.0375143
0.0374693
0.0374173
0.0373577
0.0372887
0.0372092
0.0371173
0.037011
0.0368879
0.0367456
0.036581
0.0363909
0.0361715
0.0359187
0.035628
0.0352943
0.0349126
0.0344773
0.0339832
0.0334257
0.0328
0.0321008
0.0313226
0.0304658
0.0295355
0.0285393
0.0274886
0.0263988
0.0252895
0.0241844
0.0231091
0.0220853
0.0211263
0.0202316
0.0193814
0.0185353
0.0176326
0.0166042
0.0153874
0.0139381
0.0122556
0.0103689
0.00837956
0.00643272
0.00470852
0.00347458
0.00298745
0.00273767
0.038541
0.0385308
0.03852
0.0385085
0.0384957
0.0384815
0.0384653
0.0384471
0.0384263
0.0384026
0.0383756
0.0383449
0.0383096
0.0382691
0.0382226
0.038169
0.0381069
0.0380351
0.0379518
0.0378551
0.0377429
0.0376128
0.0374618
0.0372869
0.0370847
0.0368511
0.0365818
0.0362719
0.0359166
0.0355104
0.0350477
0.0345243
0.033935
0.0332732
0.032534
0.0317159
0.0308227
0.0298594
0.0288346
0.0277604
0.0266524
0.0255304
0.0244165
0.0233298
0.0222828
0.0212767
0.0202964
0.019309
0.0182635
0.0171012
0.0157678
0.0142253
0.0124747
0.0105446
0.00853219
0.00658139
0.00486574
0.00366102
0.00319877
0.00298331
0.0394238
0.0394136
0.0394029
0.0393919
0.0393797
0.0393664
0.0393514
0.0393348
0.0393159
0.0392947
0.0392704
0.0392428
0.039211
0.0391747
0.0391326
0.0390841
0.0390277
0.0389624
0.0388865
0.0387983
0.0386957
0.0385766
0.038438
0.0382771
0.0380906
0.0378746
0.037625
0.0373371
0.0370062
0.0366267
0.0361935
0.0357017
0.0351459
0.0345201
0.0338175
0.0330367
0.0321794
0.0312489
0.0302511
0.029195
0.0280927
0.0269604
0.0258166
0.0246777
0.0235549
0.0224502
0.0213519
0.0202332
0.0190513
0.0177566
0.0163027
0.0146576
0.0128246
0.0108333
0.00877814
0.00680192
0.00507312
0.00387448
0.00341951
0.00322193
0.0403881
0.0403787
0.0403694
0.0403602
0.0403502
0.0403393
0.0403271
0.0403133
0.0402975
0.0402794
0.0402585
0.0402345
0.0402068
0.0401746
0.0401374
0.0400941
0.0400436
0.0399847
0.039916
0.0398358
0.0397421
0.0396328
0.0395054
0.0393569
0.0391845
0.0389842
0.0387522
0.0384839
0.0381745
0.037819
0.0374118
0.0369482
0.0364228
0.0358283
0.0351589
0.0344114
0.0335865
0.0326857
0.0317127
0.0306737
0.0295776
0.0284372
0.0272677
0.0260828
0.0248919
0.0236974
0.0224899
0.0212477
0.0199348
0.0185098
0.0169334
0.0151797
0.0132551
0.0111907
0.00907906
0.0070633
0.00530705
0.00410005
0.0036423
0.00345297
0.0414788
0.0414693
0.04146
0.0414506
0.0414404
0.0414295
0.0414174
0.0414041
0.041389
0.041372
0.0413525
0.0413304
0.0413048
0.0412754
0.0412412
0.0412018
0.0411555
0.0411017
0.0410387
0.0409652
0.040879
0.0407784
0.0406607
0.0405233
0.0403631
0.0401766
0.0399598
0.0397085
0.039418
0.0390831
0.0386985
0.0382592
0.0377594
0.0371927
0.0365514
0.0358324
0.0350351
0.0341593
0.0332068
0.0321815
0.0310892
0.0299396
0.028745
0.0275162
0.0262613
0.0249821
0.0236712
0.0223108
0.0208712
0.0193179
0.0176184
0.0157524
0.0137297
0.0115837
0.00940644
0.00734134
0.00554862
0.00432393
0.00385799
0.00367069
0.0426408
0.0426321
0.0426237
0.0426155
0.0426067
0.0425974
0.042587
0.0425755
0.0425622
0.0425473
0.0425302
0.0425107
0.0424882
0.0424622
0.042432
0.0423968
0.0423554
0.0423069
0.0422498
0.0421827
0.0421037
0.0420109
0.0419018
0.041774
0.0416245
0.0414498
0.0412462
0.0410094
0.0407348
0.0404175
0.0400518
0.0396329
0.0391551
0.0386107
0.037993
0.0372973
0.0365224
0.0356666
0.0347299
0.0337139
0.0326221
0.0314612
0.0302406
0.0289688
0.0276518
0.0262912
0.024881
0.0234066
0.0218435
0.0201636
0.0183404
0.0163594
0.014234
0.0120004
0.00975048
0.00762935
0.0057939
0.00454552
0.00406827
0.00387904
0.0439028
0.0438944
0.0438863
0.0438786
0.0438705
0.043862
0.0438527
0.0438426
0.043831
0.0438181
0.0438031
0.0437861
0.0437662
0.0437431
0.043716
0.0436843
0.0436466
0.0436023
0.0435499
0.0434882
0.043415
0.0433289
0.0432272
0.0431076
0.0429673
0.0428027
0.0426102
0.0423857
0.0421245
0.0418217
0.0414719
0.0410698
0.0406093
0.0400838
0.0394846
0.0388074
0.0380497
0.0372085
0.0362824
0.035271
0.0341752
0.0329994
0.0317505
0.0304345
0.0290557
0.0276151
0.0261076
0.0245216
0.022837
0.0210316
0.0190843
0.0169862
0.0147543
0.0124279
0.0101002
0.00791763
0.00603513
0.00475868
0.00426839
0.00407411
0.0452304
0.045223
0.0452167
0.0452112
0.0452057
0.0452
0.0451937
0.0451866
0.0451782
0.0451683
0.0451566
0.0451428
0.0451264
0.0451069
0.0450836
0.0450559
0.0450226
0.0449828
0.0449354
0.0448788
0.0448112
0.0447311
0.044636
0.0445235
0.044391
0.044235
0.0440519
0.0438375
0.0435874
0.0432966
0.0429594
0.0425709
0.0421249
0.0416132
0.0410286
0.0403652
0.0396199
0.0387885
0.0378681
0.0368567
0.035753
0.0345591
0.0332794
0.0319178
0.0304769
0.0289569
0.0273536
0.0256576
0.023853
0.0219225
0.0198502
0.0176327
0.0152909
0.0128675
0.010457
0.00820873
0.00627546
0.00496761
0.00446294
0.00426124
0.04668
0.0466728
0.0466664
0.0466608
0.046655
0.0466493
0.046643
0.0466362
0.0466283
0.0466193
0.0466086
0.0465963
0.0465815
0.046564
0.046543
0.0465179
0.0464875
0.0464511
0.0464073
0.0463549
0.046292
0.046217
0.0461275
0.0460212
0.0458954
0.0457466
0.0455714
0.0453654
0.0451244
0.0448432
0.0445163
0.0441384
0.0437027
0.0432025
0.0426281
0.0419744
0.0412371
0.0404108
0.0394914
0.0384753
0.0373593
0.0361433
0.0348296
0.03342
0.0319155
0.0303156
0.0286165
0.026811
0.0248867
0.0228311
0.0206327
0.0182932
0.0158379
0.013313
0.0108156
0.00849738
0.00651026
0.00516801
0.00464799
0.0044367
0.0481934
0.0481872
0.048182
0.0481776
0.0481734
0.0481692
0.0481646
0.0481596
0.0481536
0.0481465
0.048138
0.048128
0.0481159
0.0481012
0.0480834
0.0480618
0.0480352
0.0480026
0.0479631
0.047915
0.0478567
0.0477865
0.0477021
0.0476011
0.047481
0.0473383
0.0471695
0.0469705
0.0467366
0.046463
0.0461439
0.045774
0.0453467
0.0448535
0.0442864
0.0436386
0.0429052
0.0420799
0.0411575
0.0401328
0.0390007
0.0377593
0.0364089
0.0349492
0.0333798
0.0316992
0.0299042
0.0279893
0.0259452
0.0237636
0.0214373
0.0189731
0.0164008
0.0137701
0.0111811
0.00878908
0.00674486
0.00536552
0.00482904
0.00460616
0.0498053
0.0497995
0.0497947
0.0497908
0.0497873
0.049784
0.0497805
0.0497769
0.0497724
0.0497672
0.0497606
0.0497528
0.0497429
0.0497307
0.0497152
0.0496963
0.0496722
0.0496427
0.0496062
0.0495615
0.0495068
0.0494406
0.0493603
0.0492639
0.0491485
0.0490108
0.0488473
0.0486537
0.0484256
0.0481577
0.0478446
0.0474803
0.047058
0.0465702
0.0460068
0.0453615
0.0446285
0.0438004
0.0428709
0.0418335
0.0406814
0.0394109
0.0380204
0.0365079
0.0348713
0.0331085
0.0312163
0.029191
0.0270262
0.0247174
0.0222611
0.0196691
0.0169754
0.0142343
0.0115493
0.00907943
0.00697506
0.00555594
0.00500207
0.00476576
0.0514804
0.0514759
0.0514731
0.0514716
0.0514709
0.0514706
0.0514703
0.0514698
0.0514686
0.0514664
0.051463
0.0514582
0.0514515
0.0514423
0.0514303
0.0514145
0.0513939
0.0513676
0.0513346
0.0512933
0.0512421
0.0511795
0.0511029
0.0510102
0.0508988
0.0507652
0.0506058
0.0504164
0.0501925
0.049929
0.0496197
0.0492592
0.0488405
0.0483544
0.0477924
0.0471466
0.0464108
0.0455766
0.0446367
0.0435832
0.0424079
0.0411053
0.039672
0.0381044
0.0363988
0.0345521
0.0325616
0.0304249
0.0281381
0.0257001
0.0231109
0.0203874
0.0175684
0.0147121
0.0119263
0.00937446
0.00720662
0.00574514
0.00517279
0.00492124
0.0532824
0.053278
0.0532752
0.0532736
0.0532726
0.0532722
0.0532717
0.0532714
0.0532704
0.0532689
0.0532662
0.0532626
0.0532569
0.0532493
0.0532386
0.0532246
0.0532058
0.0531817
0.053151
0.0531123
0.0530638
0.0530041
0.0529306
0.052841
0.0527328
0.0526025
0.0524463
0.0522601
0.0520393
0.0517784
0.0514719
0.0511132
0.0506952
0.0502099
0.0496463
0.0489975
0.048256
0.0474125
0.0464588
0.0453858
0.0441838
0.0428456
0.0413663
0.0397405
0.0379632
0.0360304
0.0339396
0.0316894
0.0292785
0.026709
0.023984
0.0211249
0.0181755
0.0151988
0.0123073
0.00966928
0.0074348
0.0059284
0.00533681
0.00506852
0.0551513
0.0551481
0.0551463
0.055146
0.0551464
0.0551474
0.0551485
0.0551497
0.0551503
0.0551503
0.0551494
0.0551475
0.055144
0.0551385
0.0551304
0.055119
0.055103
0.0550817
0.0550538
0.055018
0.0549723
0.0549154
0.0548445
0.0547576
0.054652
0.0545241
0.0543703
0.0541863
0.0539674
0.0537081
0.0534024
0.0530442
0.0526259
0.0521381
0.0515714
0.050917
0.0501672
0.0493118
0.0483416
0.0472465
0.046015
0.0446385
0.0431105
0.0414241
0.0395729
0.0375518
0.0353585
0.0329928
0.0304555
0.0277516
0.0248868
0.0218877
0.0188032
0.0157008
0.0126986
0.00997007
0.00766553
0.00611171
0.00549992
0.00521314
0.0571221
0.0571192
0.0571179
0.057118
0.057119
0.0571208
0.0571228
0.0571252
0.0571271
0.0571286
0.0571292
0.057129
0.0571272
0.0571235
0.057117
0.0571074
0.0570931
0.0570736
0.0570475
0.0570137
0.0569699
0.0569151
0.0568462
0.0567613
0.0566576
0.0565315
0.0563793
0.0561965
0.0559785
0.0557196
0.0554138
0.0550545
0.0546336
0.0541428
0.0535704
0.0529085
0.0521481
0.0512783
0.0502888
0.0491684
0.0479042
0.0464862
0.0449064
0.0431563
0.041228
0.0391158
0.0368172
0.0343332
0.0316664
0.0288247
0.0258164
0.0226726
0.019447
0.0162129
0.0130947
0.0102714
0.00789361
0.00628999
0.00565753
0.00535108
0.0591594
0.0591579
0.0591585
0.0591611
0.0591649
0.0591696
0.0591748
0.0591801
0.059185
0.0591893
0.0591927
0.0591952
0.059196
0.0591947
0.0591909
0.0591837
0.0591719
0.0591546
0.0591308
0.059099
0.0590572
0.0590041
0.0589369
0.0588535
0.058751
0.058626
0.0584746
0.0582923
0.0580742
0.0578148
0.0575076
0.057146
0.056722
0.0562254
0.0556463
0.0549748
0.0542018
0.0533153
0.0523043
0.0511563
0.0498571
0.048395
0.0467607
0.0449442
0.0429361
0.04073
0.0383233
0.035718
0.0329183
0.029935
0.0267786
0.023485
0.0201128
0.0167414
0.0135019
0.0105794
0.00812502
0.00646929
0.00581543
0.00548777
0.0613296
0.0613282
0.0613288
0.0613311
0.0613345
0.0613388
0.0613436
0.0613489
0.0613537
0.0613582
0.0613619
0.061365
0.0613663
0.0613659
0.0613628
0.0613566
0.0613456
0.0613295
0.0613068
0.0612762
0.0612356
0.0611837
0.0611176
0.0610352
0.0609335
0.060809
0.0606577
0.0604751
0.0602563
0.0599954
0.059686
0.059321
0.0588918
0.0583896
0.0578016
0.057119
0.0563316
0.0554264
0.0543913
0.053213
0.0518757
0.0503665
0.0486744
0.0467881
0.0446969
0.0423934
0.039875
0.0371446
0.034208
0.0310789
0.0277701
0.0243211
0.0207954
0.0172802
0.0139141
0.010888
0.00835392
0.00664416
0.00596887
0.00561925
0.0635739
0.0635736
0.0635751
0.0635785
0.0635829
0.0635884
0.0635943
0.0636006
0.0636065
0.063612
0.0636169
0.0636211
0.0636238
0.0636249
0.0636235
0.063619
0.0636098
0.0635954
0.0635743
0.0635452
0.0635058
0.063455
0.0633897
0.0633078
0.0632064
0.0630819
0.0629302
0.0627467
0.0625263
0.0622633
0.0619507
0.0615815
0.0611471
0.0606367
0.0600393
0.059344
0.0585405
0.0576147
0.0565537
0.0553429
0.0539652
0.0524062
0.0506536
0.0486945
0.046517
0.0441128
0.0414792
0.0386199
0.0355421
0.0322624
0.0287958
0.0251861
0.0215008
0.0178355
0.0143375
0.0112036
0.00858653
0.00682071
0.0061235
0.00575051
0.0659246
0.0659246
0.0659265
0.0659303
0.0659352
0.0659412
0.0659478
0.0659549
0.0659617
0.0659683
0.0659741
0.0659794
0.065983
0.0659851
0.0659844
0.0659807
0.0659721
0.0659583
0.0659377
0.0659091
0.0658701
0.0658197
0.0657545
0.0656727
0.0655711
0.065446
0.0652933
0.0651084
0.064886
0.0646201
0.064304
0.0639298
0.0634886
0.0629705
0.0623619
0.0616529
0.0608317
0.0598834
0.0587942
0.0575483
0.0561273
0.0545152
0.0526987
0.0506632
0.0483955
0.0458865
0.0431334
0.0401405
0.0369167
0.0334812
0.029852
0.0260753
0.022223
0.0184011
0.0147656
0.0115196
0.0088167
0.00699339
0.00627469
0.00587794
0.0683474
0.0683488
0.0683527
0.0683588
0.0683664
0.0683753
0.0683847
0.0683945
0.0684038
0.0684126
0.0684206
0.0684278
0.0684333
0.0684368
0.0684377
0.0684353
0.0684279
0.068415
0.0683952
0.0683672
0.0683285
0.0682782
0.0682129
0.0681307
0.0680285
0.0679026
0.0677485
0.0675617
0.0673368
0.0670678
0.0667473
0.0663679
0.06592
0.0653922
0.0647722
0.0640481
0.0632078
0.0622354
0.061116
0.059833
0.0583663
0.0566986
0.0548152
0.0527
0.0503386
0.0477209
0.0448441
0.0417128
0.0383379
0.0347409
0.0309432
0.0269933
0.0229678
0.018983
0.0152048
0.0118426
0.00905083
0.00716837
0.00642793
0.00600618
0.0709089
0.0709104
0.070914
0.0709197
0.0709265
0.0709346
0.0709431
0.0709522
0.0709608
0.0709691
0.0709765
0.0709834
0.0709883
0.0709918
0.0709922
0.0709896
0.0709819
0.0709688
0.0709488
0.0709206
0.0708817
0.0708312
0.0707655
0.0706828
0.0705797
0.0704526
0.070297
0.0701081
0.0698805
0.0696078
0.069283
0.0688978
0.0684421
0.0679054
0.0672726
0.0665324
0.0656716
0.0646732
0.0635215
0.0621988
0.0606835
0.058957
0.057003
0.0548042
0.0523447
0.0496137
0.0466082
0.0433332
0.0398014
0.0360368
0.0320646
0.0279345
0.0237283
0.0195743
0.0156481
0.0121657
0.00928244
0.00733991
0.00657868
0.00613198
0.0735466
0.0735492
0.0735535
0.07356
0.0735675
0.0735762
0.0735853
0.0735948
0.0736037
0.0736122
0.0736198
0.0736269
0.0736324
0.0736361
0.0736373
0.0736353
0.0736283
0.0736158
0.0735963
0.0735685
0.0735298
0.0734792
0.0734131
0.0733297
0.0732258
0.0730974
0.07294
0.0727489
0.0725183
0.0722421
0.0719125
0.0715214
0.0710584
0.070511
0.0698653
0.0691079
0.0682252
0.0671992
0.0660135
0.064649
0.0630828
0.0612947
0.0592671
0.0569812
0.0544197
0.051571
0.0484318
0.0450077
0.041313
0.0373741
0.0332206
0.0289042
0.0245108
0.0201816
0.0161023
0.0124956
0.00951817
0.00751415
0.00673211
0.0062592
0.076289
0.0762918
0.0762963
0.0763029
0.0763106
0.0763196
0.0763289
0.0763388
0.076348
0.0763571
0.076365
0.0763726
0.0763782
0.0763822
0.0763833
0.0763814
0.076374
0.0763614
0.0763415
0.0763135
0.0762743
0.0762233
0.0761566
0.0760725
0.0759676
0.0758378
0.0756787
0.0754852
0.0752519
0.0749718
0.0746377
0.0742404
0.0737691
0.073212
0.072552
0.0717765
0.0708706
0.0698154
0.0685936
0.0671849
0.065565
0.063712
0.0616071
0.0592299
0.0565617
0.0535903
0.0503118
0.0467323
0.0428682
0.0387478
0.0344061
0.0298957
0.0253081
0.0207975
0.0165601
0.0128251
0.00975145
0.00768546
0.00688398
0.00638519
0.079099
0.0791032
0.0791096
0.0791186
0.0791291
0.0791408
0.0791529
0.0791653
0.0791769
0.0791879
0.0791977
0.0792068
0.0792139
0.079219
0.0792212
0.0792202
0.0792137
0.0792015
0.0791822
0.0791542
0.0791151
0.0790638
0.0789967
0.0789118
0.0788058
0.0786748
0.078514
0.0783184
0.0780821
0.0777987
0.0774597
0.0770564
0.0765773
0.0760085
0.0753343
0.0745397
0.0736095
0.0725238
0.0712644
0.0698098
0.0681339
0.0662135
0.064028
0.0615557
0.0587766
0.0556774
0.0522542
0.0485133
0.0444729
0.0401637
0.035626
0.0309149
0.026127
0.0214293
0.0170287
0.0131616
0.0099891
0.0078599
0.00703907
0.00651316
0.0820497
0.0820538
0.0820596
0.0820677
0.0820769
0.0820875
0.0820983
0.0821097
0.0821201
0.0821304
0.0821392
0.0821477
0.082154
0.0821589
0.0821604
0.0821591
0.0821521
0.0821397
0.0821199
0.0820919
0.0820524
0.0820009
0.0819333
0.0818479
0.0817411
0.081609
0.0814467
0.0812491
0.0810105
0.0807235
0.0803801
0.0799705
0.0794826
0.0789032
0.0782135
0.077399
0.0764436
0.0753262
0.0740276
0.0725249
0.0707904
0.0687991
0.0665292
0.0639574
0.0610624
0.0578299
0.0542557
0.0503466
0.0461226
0.0416165
0.0368749
0.0319547
0.0269597
0.0220691
0.0175003
0.0134974
0.0102243
0.00803194
0.00719345
0.006641
0.0850718
0.0850769
0.0850835
0.0850924
0.0851023
0.0851136
0.0851249
0.0851367
0.0851474
0.0851578
0.0851669
0.0851756
0.0851825
0.0851878
0.0851902
0.0851896
0.0851835
0.0851719
0.0851529
0.0851253
0.0850861
0.0850347
0.084967
0.0848812
0.0847739
0.084641
0.0844776
0.0842785
0.0840376
0.0837477
0.0833997
0.082984
0.082488
0.0818961
0.0811912
0.0803564
0.0793752
0.0782253
0.0768862
0.0753339
0.0735386
0.0714737
0.0691161
0.0664408
0.0634251
0.060054
0.0563229
0.0522388
0.0478238
0.0431127
0.0381588
0.0330224
0.027814
0.0227249
0.0179828
0.0138401
0.0104641
0.00820736
0.00735128
0.00677094
0.0882018
0.088207
0.0882135
0.0882225
0.0882326
0.088244
0.0882556
0.0882679
0.088279
0.08829
0.0882995
0.0883087
0.0883156
0.0883211
0.0883232
0.0883226
0.088316
0.088304
0.0882845
0.0882567
0.0882172
0.0881657
0.0880978
0.088012
0.0879046
0.0877714
0.0876076
0.0874075
0.0871651
0.0868723
0.0865205
0.0860987
0.0855937
0.0849913
0.0842701
0.0834147
0.082407
0.0812235
0.0798425
0.0782383
0.0763793
0.0742375
0.0717879
0.0690044
0.0658628
0.062347
0.0584521
0.0541858
0.0495719
0.0446473
0.0394722
0.0341108
0.0286823
0.0233886
0.0184679
0.0141821
0.0107016
0.00838094
0.00750907
0.00690149
0.0914094
0.0914165
0.0914258
0.0914379
0.091451
0.0914651
0.091479
0.0914929
0.0915053
0.0915167
0.0915265
0.0915356
0.0915425
0.0915475
0.0915496
0.0915485
0.0915419
0.0915297
0.0915103
0.0914826
0.0914434
0.0913923
0.091325
0.0912399
0.0911333
0.0910009
0.0908376
0.0906376
0.0903943
0.0900999
0.0897445
0.0893175
0.0888052
0.0881901
0.0874537
0.0865772
0.0855425
0.0843246
0.0829003
0.0812426
0.0793177
0.0770959
0.0745508
0.0716548
0.068382
0.0647157
0.0606506
0.0561949
0.051374
0.0462275
0.0408224
0.0352285
0.0295732
0.0240688
0.0189642
0.0145313
0.0109439
0.00855817
0.00767041
0.00703414
0.094827
0.09483
0.0948309
0.0948325
0.0948336
0.094836
0.0948382
0.0948421
0.0948453
0.0948496
0.0948531
0.094858
0.0948611
0.0948641
0.0948642
0.0948625
0.0948553
0.0948436
0.0948249
0.0947987
0.0947612
0.0947123
0.0946473
0.0945647
0.0944607
0.0943307
0.0941695
0.0939711
0.0937286
0.0934334
0.093076
0.0926444
0.0921239
0.0914988
0.0907458
0.089848
0.0887854
0.0875318
0.0860625
0.0843487
0.0823548
0.0800492
0.0774042
0.0743904
0.0709807
0.0671574
0.0629147
0.0582617
0.0532254
0.0478482
0.0422038
0.0363682
0.0304785
0.0247568
0.019463
0.0148796
0.0111843
0.00873409
0.0078322
0.00716779
0.0979949
0.098006
0.0980204
0.0980386
0.098059
0.0980807
0.0981028
0.0981247
0.0981453
0.0981646
0.0981822
0.0981989
0.0982132
0.0982255
0.0982345
0.0982404
0.0982403
0.0982349
0.0982221
0.0982014
0.0981692
0.0981255
0.0980656
0.097988
0.0978889
0.0977636
0.0976066
0.0974116
0.0971714
0.0968773
0.0965185
0.0960833
0.0955566
0.0949193
0.0941509
0.0932311
0.0921401
0.0908496
0.0893338
0.087562
0.0854963
0.0831036
0.0803546
0.0772183
0.0736662
0.0696795
0.0652523
0.0603942
0.055134
0.0495174
0.0436244
0.0375394
0.0314077
0.0254618
0.0199731
0.0152352
0.0114295
0.00891366
0.00799732
0.00730317
0.101555
0.101559
0.101563
0.10157
0.101577
0.101587
0.101598
0.101611
0.101623
0.101637
0.10165
0.101665
0.101679
0.101693
0.101704
0.101713
0.101718
0.101718
0.101711
0.101697
0.101672
0.101636
0.101584
0.101514
0.101422
0.101304
0.101153
0.100964
0.100728
0.100436
0.100077
0.0996391
0.0991053
0.0984587
0.0976735
0.0967316
0.0956109
0.094282
0.0927173
0.0908844
0.0887435
0.0862595
0.0834016
0.0801372
0.0764362
0.072279
0.0676594
0.0625879
0.0570949
0.0512295
0.0450786
0.0387343
0.0323523
0.026175
0.0204857
0.0155901
0.0116732
0.00909235
0.00816313
0.00743941
0.104865
0.104877
0.104893
0.104916
0.104943
0.104972
0.105004
0.105036
0.105067
0.105098
0.105128
0.105158
0.105186
0.105213
0.105238
0.10526
0.105276
0.105288
0.105292
0.105289
0.105275
0.105249
0.105207
0.105148
0.105066
0.104957
0.104814
0.104632
0.104402
0.104114
0.103756
0.103316
0.102778
0.102119
0.101319
0.100354
0.0992023
0.0978335
0.0962181
0.0943218
0.0921026
0.0895236
0.0865523
0.0831546
0.0792988
0.0749643
0.0701446
0.0648513
0.0591166
0.0529932
0.0465747
0.0399628
0.0333222
0.0269056
0.0210099
0.0159525
0.0119218
0.00927463
0.00833194
0.00757689
0.108654
0.108656
0.108659
0.108666
0.108675
0.108688
0.108703
0.108721
0.108741
0.108764
0.108788
0.108815
0.108842
0.108871
0.108899
0.108927
0.10895
0.10897
0.108984
0.108992
0.108989
0.108975
0.108945
0.108897
0.108827
0.108729
0.108596
0.108423
0.108199
0.107916
0.107561
0.10712
0.106576
0.105908
0.105091
0.104102
0.102919
0.101508
0.0998393
0.0978763
0.0955749
0.0928961
0.0898062
0.086269
0.0822515
0.0777319
0.0727038
0.0671796
0.0611938
0.0548025
0.0481065
0.0412166
0.0343079
0.0276443
0.0215364
0.0163142
0.0121692
0.00945634
0.00850152
0.00771516
0.11215
0.112159
0.112174
0.112198
0.112228
0.112262
0.1123
0.112341
0.112383
0.112426
0.11247
0.112515
0.11256
0.112605
0.112649
0.112692
0.11273
0.112764
0.112792
0.112813
0.112824
0.112823
0.112806
0.112771
0.112713
0.112627
0.112506
0.112342
0.112126
0.111849
0.111497
0.111055
0.110507
0.109828
0.108994
0.107981
0.106765
0.105311
0.103586
0.101554
0.099167
0.0963845
0.0931711
0.0894888
0.085303
0.0805909
0.0753461
0.0695819
0.0633354
0.0566664
0.0496827
0.0425056
0.0353196
0.0284007
0.0220745
0.0166832
0.0124213
0.00964132
0.00867365
0.00785438
0.116102
0.116106
0.116116
0.116134
0.116157
0.116186
0.116219
0.116256
0.116295
0.116336
0.116378
0.116424
0.11647
0.116517
0.116564
0.116612
0.116657
0.116699
0.116737
0.116769
0.116791
0.116803
0.116799
0.116777
0.116732
0.116658
0.116549
0.116395
0.116188
0.115917
0.115569
0.115127
0.114573
0.113885
0.113034
0.111995
0.110744
0.109245
0.107462
0.105357
0.10288
0.0999886
0.0966459
0.092812
0.0884504
0.0835376
0.0780669
0.0720531
0.0655358
0.0585784
0.0512965
0.0438209
0.0363475
0.0291651
0.0226149
0.0170518
0.0126723
0.0098258
0.00884654
0.00799457
0.120137
0.120139
0.120147
0.120162
0.120182
0.120208
0.120238
0.120273
0.120311
0.120352
0.120397
0.120445
0.120496
0.12055
0.120605
0.120662
0.120717
0.12077
0.120819
0.120863
0.120898
0.120922
0.120932
0.120923
0.120891
0.12083
0.120732
0.120589
0.120391
0.120127
0.119782
0.11934
0.118783
0.118083
0.117214
0.116149
0.114862
0.113315
0.111472
0.109291
0.106721
0.103716
0.100239
0.0962475
0.0917031
0.0865815
0.080876
0.0746027
0.0678041
0.0605477
0.0529567
0.0451728
0.0374018
0.0299474
0.0231668
0.0174276
0.0129278
0.0100131
0.00902153
0.00813559
0.124318
0.124322
0.12433
0.124345
0.124366
0.124392
0.124423
0.124459
0.124498
0.124541
0.124587
0.124638
0.124691
0.124749
0.124808
0.124871
0.124932
0.124993
0.125051
0.125105
0.125152
0.125189
0.125211
0.125215
0.125196
0.125148
0.125062
0.12493
0.124741
0.124483
0.124142
0.123701
0.123137
0.122428
0.121539
0.120447
0.119123
0.117525
0.115618
0.113358
0.11069
0.107567
0.103949
0.0997929
0.0950578
0.0897184
0.0837683
0.077225
0.0701344
0.0625676
0.054656
0.0465515
0.0384721
0.0307372
0.0237207
0.017803
0.0131823
0.0101998
0.00919718
0.00827774
0.128545
0.128552
0.128565
0.128586
0.128612
0.128645
0.128683
0.128726
0.128772
0.128823
0.128878
0.128938
0.129001
0.129069
0.12914
0.129214
0.129287
0.12936
0.129431
0.129498
0.129557
0.129607
0.129643
0.12966
0.129654
0.129619
0.129545
0.129423
0.129244
0.128993
0.128655
0.128213
0.127645
0.126922
0.126014
0.124893
0.123529
0.12188
0.119907
0.117564
0.114795
0.111549
0.107786
0.103458
0.0985243
0.0929584
0.086754
0.07993
0.0725361
0.0646474
0.0564034
0.0479673
0.039569
0.0315446
0.0242858
0.0181851
0.0134406
0.0103885
0.00937442
0.00842057
0.132944
0.132955
0.132972
0.132998
0.133031
0.13307
0.133115
0.133167
0.133222
0.133281
0.133344
0.133413
0.133485
0.133562
0.133641
0.133724
0.133807
0.13389
0.133972
0.134051
0.134123
0.134186
0.134234
0.134265
0.134272
0.134249
0.134187
0.134076
0.133905
0.13366
0.133326
0.132883
0.132307
0.131573
0.130643
0.129492
0.128087
0.126384
0.124341
0.121912
0.119036
0.115662
0.111746
0.107239
0.102099
0.0962968
0.0898275
0.0827115
0.0750027
0.06678
0.0581914
0.0494105
0.0406816
0.0323592
0.0248529
0.0185666
0.0136976
0.0105764
0.0095521
0.00856462
0.137454
0.13747
0.137492
0.137525
0.137565
0.137612
0.137666
0.137726
0.137791
0.137861
0.137936
0.138016
0.138102
0.138192
0.138286
0.138383
0.13848
0.138578
0.138674
0.138767
0.138853
0.138929
0.138992
0.139035
0.139056
0.139046
0.138995
0.138894
0.138731
0.138491
0.138159
0.137714
0.137131
0.136382
0.135431
0.134248
0.132799
0.13104
0.128926
0.126407
0.123421
0.119914
0.11584
0.111147
0.105792
0.0997439
0.0929993
0.0855797
0.077544
0.0689749
0.0600291
0.0508912
0.0418207
0.0331912
0.0254308
0.0189544
0.0139577
0.0107655
0.00973083
0.00870924
0.142197
0.142215
0.142242
0.142278
0.142323
0.142377
0.142437
0.142505
0.142578
0.142656
0.142738
0.142828
0.142922
0.14302
0.143123
0.14323
0.143337
0.143446
0.143553
0.143658
0.143757
0.143846
0.143921
0.143978
0.144011
0.144013
0.143973
0.143881
0.143725
0.14349
0.143159
0.142711
0.142119
0.141356
0.140381
0.139164
0.137671
0.135852
0.133663
0.131051
0.127951
0.124305
0.120064
0.115178
0.109598
0.103295
0.0962632
0.0885279
0.0801526
0.0712247
0.0619084
0.0523993
0.0429751
0.0340299
0.0260103
0.0193414
0.0142161
0.0109533
0.00990969
0.00885513
0.147089
0.147111
0.147142
0.147184
0.147235
0.147295
0.147363
0.147438
0.147518
0.147605
0.147697
0.147796
0.147902
0.148012
0.148127
0.148247
0.148368
0.148489
0.14861
0.148727
0.148838
0.14894
0.149028
0.149097
0.149142
0.149154
0.149124
0.149041
0.148892
0.148661
0.14833
0.147878
0.147278
0.146497
0.145497
0.144245
0.142706
0.140826
0.13856
0.135851
0.132632
0.128842
0.12443
0.119343
0.113529
0.10696
0.09963
0.0915667
0.0828387
0.0735389
0.063839
0.0539452
0.0441553