/*--------------------------------*- C++ -*----------------------------------*\
  =========                 |
  \\      /  F ield         | OpenFOAM: The Open Source CFD Toolbox
   \\    /   O peration     | Website:  https://openfoam.org
    \\  /    A nd           | Version:  6.0
     \\/     M anipulation  |
\*---------------------------------------------------------------------------*/
FoamFile
{
    version     2.0;
    format      ascii;
    class       surfaceScalarField;
    location    "6";
    object      phi;
}
// * * * * * * * * * * * * * * * * * * * * * * * * * * * * * * * * * * * * * //

dimensions      [0 3 -1 0 0 0 0];

internalField   nonuniform List<scalar> 
123526
(
4.16139e-07
2.34102e-05
-7.94531e-09
8.5239e-07
2.53106e-05
1.32145e-06
2.73653e-05
1.82933e-06
2.95866e-05
2.37613e-06
3.19882e-05
2.96833e-06
3.45845e-05
3.60675e-06
3.73913e-05
4.29816e-06
4.04255e-05
5.04518e-06
4.37049e-05
5.85466e-06
4.72502e-05
6.72894e-06
5.10833e-05
7.67516e-06
5.52268e-05
8.69777e-06
5.97055e-05
9.80663e-06
6.45441e-05
1.10088e-05
6.97728e-05
1.23092e-05
7.54269e-05
1.37156e-05
8.15371e-05
1.5243e-05
8.81331e-05
1.68989e-05
9.52623e-05
1.86892e-05
0.000102968
2.06332e-05
0.000111284
2.27412e-05
0.000120265
2.5021e-05
0.00012997
2.74991e-05
0.000140432
3.0181e-05
0.000151734
3.30866e-05
0.000163922
3.62371e-05
0.000177064
3.96441e-05
0.000191235
4.33383e-05
0.000206493
4.73297e-05
0.000222932
5.16522e-05
0.000240608
5.63209e-05
0.000259617
6.13674e-05
0.000280025
6.68168e-05
0.000301915
7.26918e-05
0.000325363
7.903e-05
0.000350425
8.58518e-05
0.000377175
9.31923e-05
0.000405644
0.000101086
0.000435853
0.000109561
0.000467801
0.000118651
0.000501434
0.000128393
0.000536645
0.000138817
0.000573262
0.000149951
0.000611012
0.000161821
0.000649503
0.000174443
0.000688188
0.000187818
0.00072633
0.000201927
0.000762959
0.000216724
0.000796827
0.000232129
0.000826343
0.00024802
0.000849516
0.000264225
0.000863863
0.000280518
0.000866317
0.000296599
0.000853105
0.000312089
0.000819618
0.000326505
0.000760297
0.000339242
0.000668497
0.000349668
0.000536303
0.000356541
0.000353951
0.000113341
0.000355151
4.51364e-07
2.30181e-05
-5.21412e-08
8.79323e-07
2.48868e-05
1.33974e-06
2.69071e-05
1.83826e-06
2.90914e-05
2.37512e-06
3.14528e-05
2.95647e-06
3.40056e-05
3.58324e-06
3.67654e-05
4.26173e-06
3.97489e-05
4.99476e-06
4.29723e-05
5.78868e-06
4.64574e-05
6.64602e-06
5.02263e-05
7.57343e-06
5.43001e-05
8.57558e-06
5.87036e-05
9.66172e-06
6.34585e-05
1.0839e-05
6.85959e-05
1.2112e-05
7.41544e-05
1.34884e-05
8.01612e-05
1.49827e-05
8.66392e-05
1.66023e-05
9.36435e-05
1.8353e-05
0.000101218
2.02533e-05
0.000109384
2.23137e-05
0.000118206
2.45414e-05
0.000127744
2.69626e-05
0.000138011
2.95822e-05
0.000149116
3.24204e-05
0.000161085
3.54971e-05
0.000173988
3.88245e-05
0.000187909
4.24318e-05
0.000202887
4.633e-05
0.000219035
5.05512e-05
0.000236388
5.51114e-05
0.000255059
6.00421e-05
0.000275097
6.53676e-05
0.000296593
7.11118e-05
0.000319623
7.73121e-05
0.000344228
8.39895e-05
0.000370501
9.118e-05
0.000398457
9.89195e-05
0.000428117
0.000107237
0.000459488
0.000116168
0.000492507
0.000125751
0.000527066
0.000136016
0.000563
0.000146992
0.00060004
0.000158703
0.000637796
0.000171162
0.000675733
0.000184366
0.000713129
0.000198292
0.000749036
0.000212889
0.00078223
0.000228074
0.000811158
0.000243721
0.000833866
0.000259663
0.000847918
0.000275677
0.000850301
0.000291471
0.00083731
0.000306676
0.000804413
0.000320821
0.00074615
0.000333315
0.000656007
0.000343577
0.000526042
0.000350011
0.000347526
0.000113372
0.000349995
4.48292e-07
2.26358e-05
-5.82358e-08
8.65931e-07
2.44735e-05
1.31518e-06
2.64603e-05
1.80157e-06
2.86083e-05
2.32542e-06
3.09305e-05
2.89263e-06
3.34409e-05
3.50421e-06
3.61548e-05
4.16638e-06
3.90886e-05
4.88181e-06
4.22575e-05
5.65686e-06
4.56838e-05
6.49379e-06
4.93898e-05
7.39932e-06
5.33957e-05
8.37764e-06
5.77258e-05
9.43817e-06
6.23989e-05
1.05875e-05
6.74471e-05
1.18304e-05
7.29123e-05
1.31741e-05
7.88182e-05
1.4633e-05
8.51809e-05
1.62141e-05
9.20631e-05
1.79232e-05
9.95092e-05
1.97785e-05
0.00010753
2.17902e-05
0.000116194
2.39652e-05
0.00012557
2.63296e-05
0.000135648
2.88879e-05
0.000146559
3.16602e-05
0.000158313
3.4666e-05
0.000170984
3.79177e-05
0.000184658
4.1444e-05
0.000199362
4.52561e-05
0.000215224
4.9386e-05
0.000232259
5.38499e-05
0.000250596
5.86788e-05
0.00027027
6.38983e-05
0.000291377
6.95322e-05
0.000313993
7.56185e-05
0.000338145
8.21792e-05
0.000363944
8.92504e-05
0.000391389
9.68687e-05
0.000420502
0.000105063
0.000451296
0.00011387
0.000483703
0.000123326
0.000517613
0.00013346
0.000552868
0.0001443
0.000589202
0.000155865
0.000626233
0.000168165
0.000663434
0.000181193
0.000700101
0.000194924
0.000735307
0.000209301
0.000767853
0.000224242
0.000796218
0.000239624
0.000818485
0.000255282
0.000832264
0.000270999
0.000834594
0.00028649
0.000821829
0.000301397
0.000789522
0.000315257
0.000732305
0.000327491
0.000643795
0.000337468
0.000516088
0.000344067
0.00034096
0.000112104
0.000345379
4.31693e-07
2.22612e-05
-5.22957e-08
8.39716e-07
2.40685e-05
1.279e-06
2.60225e-05
1.75471e-06
2.8135e-05
2.26727e-06
3.04189e-05
2.82236e-06
3.28878e-05
3.42104e-06
3.55568e-05
4.06911e-06
3.8442e-05
4.76948e-06
4.15574e-05
5.52796e-06
4.49262e-05
6.34724e-06
4.85706e-05
7.23341e-06
5.251e-05
8.19123e-06
5.67681e-05
9.22926e-06
6.13611e-05
1.03547e-05
6.63219e-05
1.15714e-05
7.16957e-05
1.28873e-05
7.75028e-05
1.4316e-05
8.37525e-05
1.58646e-05
9.05152e-05
1.75386e-05
9.78355e-05
1.93559e-05
0.000105714
2.13266e-05
0.000114224
2.34576e-05
0.00012344
2.57743e-05
0.000133332
2.82814e-05
0.000144053
3.09986e-05
0.000155597
3.39452e-05
0.000168038
3.71336e-05
0.00018147
4.0592e-05
0.000195905
4.43319e-05
0.000211485
4.83848e-05
0.000228207
5.2767e-05
0.000246215
5.75099e-05
0.00026553
6.26379e-05
0.000286252
6.8176e-05
0.000308458
7.41619e-05
0.000332162
8.06179e-05
0.000357491
8.75801e-05
0.00038443
9.50846e-05
0.000413
0.000103161
0.000443223
0.000111843
0.000475024
0.000121167
0.000508292
0.000131162
0.000542877
0.000141851
0.000578518
0.000153252
0.000614836
0.000165371
0.000651319
0.000178201
0.000687277
0.000191711
0.000721802
0.000205848
0.000753722
0.000220528
0.000781544
0.00023563
0.000803389
0.000250995
0.000816908
0.000266409
0.000819191
0.000281594
0.000806656
0.000296202
0.00077493
0.000309778
0.000718745
0.000321753
0.00063184
0.000331446
0.000506416
0.000338007
0.00033443
0.000110293
0.000339864
4.15037e-07
2.1895e-05
-3.94419e-08
8.16028e-07
2.36726e-05
1.24705e-06
2.55944e-05
1.71379e-06
2.76721e-05
2.2162e-06
2.99183e-05
2.76039e-06
3.23465e-05
3.34691e-06
3.49714e-05
3.98229e-06
3.78088e-05
4.66859e-06
4.08717e-05
5.41252e-06
4.4184e-05
6.2157e-06
4.77679e-05
7.08518e-06
5.16419e-05
8.02442e-06
5.58292e-05
9.04309e-06
6.03434e-05
1.0147e-05
6.52184e-05
1.13412e-05
7.05023e-05
1.26324e-05
7.62121e-05
1.40346e-05
8.23508e-05
1.55545e-05
8.89959e-05
1.71978e-05
9.61927e-05
1.89818e-05
0.00010393
2.09167e-05
0.00011229
2.30091e-05
0.000121348
2.52841e-05
0.000131057
2.77464e-05
0.000141591
3.04153e-05
0.000152929
3.33098e-05
0.000165145
3.64424e-05
0.000178339
3.98408e-05
0.000192507
4.35163e-05
0.000207811
4.75003e-05
0.000224224
5.18091e-05
0.000241908
5.64729e-05
0.000260868
6.15172e-05
0.000281211
6.69659e-05
0.000303012
7.28568e-05
0.000326274
7.92121e-05
0.000351138
8.60674e-05
0.000377577
9.34583e-05
0.000405612
0.000101413
0.00043527
0.000109966
0.000466473
0.000119152
0.000499108
0.000128996
0.000533035
0.000139522
0.000567993
0.000150745
0.000603614
0.00016267
0.000639395
0.000175287
0.000674661
0.000188565
0.000708524
0.000202452
0.000739837
0.000216863
0.000767134
0.000231683
0.000788572
0.000246753
0.000801844
0.000261867
0.000804087
0.000276753
0.000791781
0.000291068
0.000760631
0.000304366
0.000705462
0.000316091
0.000620137
0.000325534
0.000496994
0.000331933
0.000328061
0.000108332
0.000333929
3.94842e-07
2.15344e-05
-2.98016e-08
7.87643e-07
2.32827e-05
1.21045e-06
2.51729e-05
1.66852e-06
2.72165e-05
2.1619e-06
2.94257e-05
2.69649e-06
3.18139e-05
3.27294e-06
3.43954e-05
3.89715e-06
3.71859e-05
4.57166e-06
4.01973e-05
5.30235e-06
4.3454e-05
6.09161e-06
4.69785e-05
6.94552e-06
5.07882e-05
7.86857e-06
5.49059e-05
8.86912e-06
5.93429e-05
9.95403e-06
6.41334e-05
1.11273e-05
6.9329e-05
1.23963e-05
7.49434e-05
1.37743e-05
8.09729e-05
1.52682e-05
8.75025e-05
1.68834e-05
9.45778e-05
1.8637e-05
0.000102177
2.05391e-05
0.000110388
2.2596e-05
0.000119292
2.48327e-05
0.000128821
2.72535e-05
0.000139171
2.98778e-05
0.000150305
3.27242e-05
0.000162299
3.58049e-05
0.000175259
3.91473e-05
0.000189166
4.27627e-05
0.000204196
4.66819e-05
0.000220306
5.09208e-05
0.00023767
5.55102e-05
0.000256281
6.04737e-05
0.000276249
6.58363e-05
0.000297652
7.16345e-05
0.000320478
7.78904e-05
0.000344884
8.46392e-05
0.00037083
9.19156e-05
0.000398338
9.97474e-05
0.000427441
0.000108167
0.000458056
0.000117209
0.00049007
0.000126896
0.00052335
0.000137252
0.000557642
0.000148289
0.000592581
0.000160012
0.000627677
0.000172408
0.000662269
0.00018545
0.000695489
0.000199082
0.000726211
0.000213225
0.000752999
0.000227762
0.000774042
0.000242543
0.000787073
0.000257364
0.000789281
0.000271958
0.000777204
0.000285989
0.00074662
0.000299019
0.000692452
0.000310503
0.000608678
0.000319726
0.000487797
0.000325945
0.000321879
0.000106402
0.00032793
3.77284e-07
2.11806e-05
-1.62785e-08
7.63787e-07
2.29003e-05
1.17942e-06
2.47595e-05
1.62953e-06
2.67694e-05
2.11432e-06
2.89422e-05
2.63939e-06
3.1291e-05
3.20559e-06
3.383e-05
3.81893e-06
3.65743e-05
4.48169e-06
3.95349e-05
5.20007e-06
4.2737e-05
5.97589e-06
4.6203e-05
6.81574e-06
4.99495e-05
7.72313e-06
5.39989e-05
8.70729e-06
5.83597e-05
9.77395e-06
6.30672e-05
1.09279e-05
6.81758e-05
1.21756e-05
7.36961e-05
1.35309e-05
7.96182e-05
1.5e-05
8.60339e-05
1.65885e-05
9.29895e-05
1.83133e-05
0.000100453
2.01842e-05
0.000108517
2.22075e-05
0.000117269
2.44078e-05
0.000126621
2.67894e-05
0.000136791
2.93712e-05
0.000147724
3.21717e-05
0.0001595
3.52028e-05
0.000172228
3.84916e-05
0.000185878
4.20492e-05
0.000200639
4.59059e-05
0.00021645
5.00776e-05
0.000233499
5.45937e-05
0.000251766
5.94789e-05
0.000271367
6.47565e-05
0.000292376
7.0463e-05
0.000314774
7.662e-05
0.000338729
8.32618e-05
0.00036419
9.04224e-05
0.000391179
9.81288e-05
0.000419736
0.000106413
0.000449773
0.000115306
0.000481177
0.000124833
0.000513824
0.000135013
0.000547462
0.00014586
0.000581734
0.000157376
0.000616161
0.00016955
0.000650096
0.000182352
0.000682687
0.00019573
0.000712833
0.000209605
0.000739124
0.000223866
0.000759783
0.000238363
0.00077258
0.000252897
0.000774754
0.000267207
0.000762902
0.000280964
0.000732876
0.000293735
0.000679692
0.000304987
0.000597443
0.000314012
0.000478788
0.000320064
0.000315849
0.000104502
0.000321986
3.57933e-07
2.08312e-05
-7.28805e-09
7.36993e-07
2.25227e-05
1.14547e-06
2.43513e-05
1.58797e-06
2.63282e-05
2.06504e-06
2.84653e-05
2.58181e-06
3.07755e-05
3.13943e-06
3.32725e-05
3.74302e-06
3.59715e-05
4.3956e-06
3.88823e-05
5.10222e-06
4.20307e-05
5.86581e-06
4.54393e-05
6.69165e-06
4.91235e-05
7.5847e-06
5.31057e-05
8.55245e-06
5.73916e-05
9.6021e-06
6.20175e-05
1.07371e-05
6.70407e-05
1.19649e-05
7.24685e-05
1.32981e-05
7.82849e-05
1.47437e-05
8.45888e-05
1.63067e-05
9.14267e-05
1.80038e-05
9.87563e-05
1.98446e-05
0.000106677
2.18355e-05
0.000115279
2.40005e-05
0.000124456
2.6344e-05
0.000134448
2.88846e-05
0.000145184
3.16403e-05
0.000156745
3.46232e-05
0.000169246
3.78596e-05
0.000182642
4.13606e-05
0.000197139
4.51559e-05
0.000212655
4.92611e-05
0.000229395
5.37056e-05
0.000247323
5.85125e-05
0.000266561
6.37057e-05
0.000287185
6.93205e-05
0.00030916
7.53782e-05
0.000332673
8.19124e-05
0.000357658
8.8956e-05
0.000384137
9.65354e-05
0.000412158
0.000104681
0.00044163
0.000113424
0.000472436
0.000122788
0.000504463
0.00013279
0.000537462
0.000143444
0.000571084
0.000154752
0.000604857
0.000166702
0.00063815
0.000179266
0.000670129
0.000192392
0.000699713
0.000206005
0.000725519
0.000219993
0.000745801
0.000234213
0.000758371
0.000248469
0.000760513
0.000262504
0.000748883
0.000275995
0.000719406
0.000288517
0.000667191
0.000299546
0.000586439
0.000308385
0.000469978
0.000314285
0.000309985
0.000102705
0.000316136
3.46634e-07
2.04892e-05
4.53471e-09
7.21038e-07
2.21531e-05
1.12336e-06
2.39518e-05
1.55906e-06
2.58961e-05
2.02801e-06
2.7998e-05
2.53606e-06
3.02701e-05
3.0836e-06
3.27259e-05
3.67698e-06
3.53801e-05
4.31788e-06
3.82418e-05
5.01291e-06
4.13372e-05
5.76325e-06
4.46892e-05
6.57588e-06
4.83122e-05
7.45365e-06
5.2228e-05
8.40601e-06
5.64403e-05
9.43805e-06
6.09856e-05
1.05549e-05
6.59246e-05
1.17624e-05
7.12612e-05
1.30741e-05
7.69736e-05
1.4496e-05
8.31672e-05
1.60338e-05
8.98892e-05
1.77035e-05
9.70871e-05
1.95147e-05
0.000104866
2.14736e-05
0.000113321
2.36039e-05
0.000122326
2.59098e-05
0.000132143
2.84097e-05
0.000142684
3.11212e-05
0.000154034
3.40563e-05
0.000166312
3.72408e-05
0.000179458
4.06856e-05
0.000193695
4.44199e-05
0.000208921
4.84592e-05
0.000225356
5.28315e-05
0.000242952
5.75608e-05
0.000261834
6.26694e-05
0.000282078
6.81924e-05
0.000303639
7.41504e-05
0.000326717
8.05762e-05
0.000351233
8.7502e-05
0.000377212
9.49533e-05
0.000404708
0.00010296
0.000433624
0.000111551
0.000463845
0.00012075
0.000495264
0.000130574
0.000527638
0.000141035
0.000560622
0.000152136
0.000593756
0.000163864
0.000626421
0.000176192
0.0006578
0.00018907
0.000686834
0.000202425
0.000712165
0.000216147
0.000732078
0.000230097
0.000744424
0.000244082
0.000746532
0.000257851
0.000735119
0.000271085
0.000706181
0.000283366
0.000654917
0.000294181
0.000575636
0.000302843
0.000461324
0.000308606
0.000304234
0.000100928
0.00031039
3.32443e-07
2.01512e-05
7.50412e-09
6.99298e-07
2.1788e-05
1.09448e-06
2.35571e-05
1.52266e-06
2.54695e-05
1.98409e-06
2.75368e-05
2.4841e-06
2.97714e-05
3.02344e-06
3.21866e-05
3.60744e-06
3.47969e-05
4.23863e-06
3.76104e-05
4.92232e-06
4.06538e-05
5.66098e-06
4.39501e-05
6.46008e-06
4.75129e-05
7.32414e-06
5.13636e-05
8.26064e-06
5.55033e-05
9.27636e-06
5.99696e-05
1.03748e-05
6.48258e-05
1.15631e-05
7.00729e-05
1.28536e-05
7.56831e-05
1.42527e-05
8.17683e-05
1.57657e-05
8.83764e-05
1.74084e-05
9.54448e-05
1.91903e-05
0.000103084
2.11175e-05
0.000111394
2.32133e-05
0.000120231
2.54818e-05
0.000129875
2.79411e-05
0.000140225
3.06086e-05
0.000151367
3.3496e-05
0.000163425
3.66286e-05
0.000176326
4.00174e-05
0.000190306
4.36906e-05
0.000205248
4.76636e-05
0.000221384
5.19644e-05
0.000238653
5.66153e-05
0.000257184
6.16392e-05
0.000277056
6.70701e-05
0.000298209
7.2928e-05
0.00032086
7.92449e-05
0.000344918
8.60524e-05
0.000370406
9.33751e-05
0.000397386
0.000101242
0.000425759
0.000109682
0.000455407
0.000118716
0.000486232
0.000128362
0.000517994
0.000138632
0.000550355
0.000149527
0.000582865
0.000161036
0.000614916
0.000173133
0.000645709
0.000185768
0.000674204
0.00019887
0.00069907
0.000212333
0.000718621
0.000226021
0.000730746
0.000239743
0.000732823
0.000253253
0.000721623
0.000266237
0.000693215
0.000278286
0.000642888
0.000288893
0.000565052
0.000297387
0.000452856
0.000303023
0.000298631
9.92495e-05
0.000304751
3.23725e-07
1.98198e-05
1.3654e-08
6.8503e-07
2.14301e-05
1.07371e-06
2.31701e-05
1.49457e-06
2.5051e-05
1.94809e-06
2.70843e-05
2.43922e-06
2.92819e-05
2.96904e-06
3.16573e-05
3.54295e-06
3.42243e-05
4.16331e-06
3.69903e-05
4.83575e-06
3.99825e-05
5.56209e-06
4.3224e-05
6.34844e-06
4.67276e-05
7.19806e-06
5.05142e-05
8.11965e-06
5.45826e-05
9.11848e-06
5.89711e-05
1.01992e-05
6.37457e-05
1.13677e-05
6.89046e-05
1.2637e-05
7.44141e-05
1.40129e-05
8.03927e-05
1.5501e-05
8.68886e-05
1.71166e-05
9.38295e-05
1.88691e-05
0.000101332
2.07646e-05
0.000109499
2.28258e-05
0.00011817
2.50569e-05
0.000127644
2.74757e-05
0.000137807
3.00991e-05
0.000148744
3.29387e-05
0.000160586
3.60195e-05
0.000173246
3.93519e-05
0.000186974
4.29641e-05
0.000201636
4.68709e-05
0.000217478
5.10993e-05
0.000234425
5.56722e-05
0.000252613
6.06111e-05
0.000272118
6.59496e-05
0.000292872
7.17072e-05
0.000315103
7.79153e-05
0.00033871
8.46044e-05
0.000363718
9.17987e-05
0.000390193
9.95261e-05
0.000418031
0.000107815
0.000447118
0.000116686
0.000477361
0.000126156
0.000508524
0.000136236
0.000540274
0.000146929
0.000572172
0.000158222
0.000603621
0.000170092
0.000633839
0.000182489
0.000661805
0.000195345
0.000686213
0.000208556
0.000705408
0.000221988
0.000717316
0.000235454
0.000719359
0.000248713
0.000708366
0.000261456
0.000680477
0.000273279
0.000631068
0.000283685
0.000554653
0.000292017
0.000444527
0.000297536
0.000293117
9.75643e-05
0.000299216
3.10966e-07
1.94922e-05
1.49484e-08
6.64808e-07
2.10762e-05
1.04665e-06
2.27877e-05
1.46021e-06
2.46377e-05
1.90656e-06
2.66375e-05
2.38992e-06
2.8799e-05
2.91191e-06
3.11351e-05
3.47668e-06
3.36598e-05
4.08764e-06
3.63791e-05
4.7489e-06
3.9321e-05
5.4638e-06
4.25088e-05
6.23669e-06
4.59541e-05
7.07282e-06
4.96778e-05
7.97859e-06
5.36762e-05
8.96126e-06
5.79883e-05
1.00236e-05
6.26829e-05
1.11731e-05
6.77553e-05
1.24212e-05
7.31659e-05
1.37744e-05
7.90398e-05
1.52376e-05
8.54255e-05
1.68264e-05
9.22412e-05
1.85496e-05
9.96087e-05
2.04134e-05
0.000107636
2.24401e-05
0.000116143
2.46337e-05
0.000125451
2.70119e-05
0.000135429
2.95912e-05
0.000146165
3.2383e-05
0.000157794
3.54117e-05
0.000170218
3.86879e-05
0.000183699
4.22388e-05
0.000198086
4.6079e-05
0.000213638
5.02356e-05
0.00023027
5.47298e-05
0.00024812
5.95838e-05
0.000267265
6.48299e-05
0.000287627
7.04874e-05
0.000309446
7.65868e-05
0.000332612
8.31579e-05
0.000357147
9.02243e-05
0.000383127
9.78132e-05
0.000410443
0.000105952
0.00043898
0.000114662
0.000468653
0.000123958
0.00049923
0.000133851
0.000530383
0.000144345
0.000561682
0.000155427
0.000592543
0.000167074
0.000622197
0.000179239
0.000649645
0.000191855
0.000673604
0.00020482
0.000692449
0.000218003
0.000704142
0.000231221
0.000706152
0.000244236
0.000695365
0.000256743
0.000667986
0.000268348
0.000619481
0.000278559
0.000544463
0.000286735
0.000436374
0.000292143
0.000287738
9.59659e-05
0.000293785
3.0537e-07
1.91723e-05
2.28886e-08
6.55254e-07
2.07307e-05
1.03136e-06
2.24142e-05
1.43857e-06
2.42337e-05
1.87702e-06
2.62005e-05
2.35195e-06
2.83264e-05
2.8639e-06
3.06239e-05
3.41873e-06
3.31067e-05
4.01807e-06
3.578e-05
4.66808e-06
3.86725e-05
5.36984e-06
4.18072e-05
6.12994e-06
4.51953e-05
6.9509e-06
4.88569e-05
7.84173e-06
5.27864e-05
8.80697e-06
5.70231e-05
9.85159e-06
6.16389e-05
1.0981e-05
6.6626e-05
1.22079e-05
7.19394e-05
1.35377e-05
7.77101e-05
1.4976e-05
8.39873e-05
1.65375e-05
9.06799e-05
1.82315e-05
9.79149e-05
2.00634e-05
0.000105804
2.20556e-05
0.000114151
2.42118e-05
0.000123295
2.65493e-05
0.000133092
2.90845e-05
0.00014363
3.18284e-05
0.000155051
3.48052e-05
0.000167241
3.80249e-05
0.000180479
4.15146e-05
0.000194596
4.52886e-05
0.000209864
4.93727e-05
0.000226186
5.3789e-05
0.000243705
5.85581e-05
0.000262497
6.37121e-05
0.000282473
6.92698e-05
0.000303889
7.5261e-05
0.000326621
8.17149e-05
0.000350694
8.86544e-05
0.000376188
9.61062e-05
0.000402992
0.000104097
0.000430989
0.000112647
0.000460103
0.000121771
0.000490104
0.000131482
0.000520672
0.00014178
0.000551382
0.000152655
0.000581665
0.000164085
0.000610766
0.000176023
0.000637704
0.000188405
0.000661221
0.00020113
0.000679721
0.000214071
0.000691202
0.000227046
0.000693177
0.000239823
0.000682588
0.000252102
0.000655709
0.000263494
0.000608089
0.000273516
0.000534443
0.00028154
0.000428348
0.000286844
0.000282432
9.43414e-05
0.000288453
2.94047e-07
1.88561e-05
2.21328e-08
6.3631e-07
2.03891e-05
1.00542e-06
2.2045e-05
1.40527e-06
2.38347e-05
1.83648e-06
2.57692e-05
2.30365e-06
2.786e-05
2.80779e-06
3.01196e-05
3.35351e-06
3.25614e-05
3.94353e-06
3.51896e-05
4.58241e-06
3.80335e-05
5.27283e-06
4.11162e-05
6.01955e-06
4.4448e-05
6.82713e-06
4.80488e-05
7.70224e-06
5.19106e-05
8.65145e-06
5.60735e-05
9.67788e-06
6.0612e-05
1.07883e-05
6.55154e-05
1.19941e-05
7.07333e-05
1.33014e-05
7.6403e-05
1.4715e-05
8.25737e-05
1.62497e-05
8.91454e-05
1.79144e-05
9.62503e-05
1.97147e-05
0.000104004
2.16724e-05
0.000112194
2.37912e-05
0.000121177
2.60882e-05
0.000130795
2.85793e-05
0.00014114
3.12755e-05
0.000152355
3.42004e-05
0.000164317
3.73639e-05
0.000177316
4.07925e-05
0.000191168
4.45001e-05
0.000206157
4.85128e-05
0.000222174
5.28509e-05
0.000239367
5.75356e-05
0.000257813
6.25981e-05
0.000277411
6.80566e-05
0.000298431
7.39404e-05
0.000320738
8.02781e-05
0.000344356
8.7092e-05
0.000369374
9.44082e-05
0.000395676
0.000102253
0.000423145
0.000110646
0.000451712
0.000119602
0.00048115
0.000129132
0.000511144
0.000139238
0.000541279
0.000149912
0.000570995
0.000161129
0.000599554
0.000172846
0.000625992
0.000184998
0.000649074
0.00019749
0.000667234
0.000210194
0.000678506
0.000222933
0.000680448
0.000235478
0.000670055
0.000247534
0.000643667
0.000258719
0.00059692
0.000268557
0.000524624
0.000276434
0.000420491
0.000281639
0.000277252
9.27952e-05
0.000283221
2.87897e-07
1.85468e-05
2.62624e-08
6.24853e-07
2.00549e-05
9.8758e-07
2.16836e-05
1.38025e-06
2.34439e-05
1.80363e-06
2.53465e-05
2.26198e-06
2.74029e-05
2.75664e-06
2.96253e-05
3.2924e-06
3.20266e-05
3.87165e-06
3.46105e-05
4.49948e-06
3.74066e-05
5.1777e-06
4.04382e-05
5.91192e-06
4.37147e-05
6.7052e-06
4.72557e-05
7.56566e-06
5.10509e-05
8.49814e-06
5.51413e-05
9.50704e-06
5.96037e-05
1.05978e-05
6.44248e-05
1.17827e-05
6.95488e-05
1.30669e-05
7.51189e-05
1.44558e-05
8.1185e-05
1.59635e-05
8.76379e-05
1.75991e-05
9.46149e-05
1.93678e-05
0.000102235
2.12911e-05
0.00011027
2.33727e-05
0.000119095
2.56293e-05
0.000128539
2.80765e-05
0.000138693
3.07252e-05
0.000149706
3.35984e-05
0.000161444
3.67059e-05
0.000174209
4.00739e-05
0.0001878
4.37158e-05
0.000202515
4.76566e-05
0.000218234
5.19176e-05
0.000235107
5.65184e-05
0.000253213
6.149e-05
0.00027244
6.68503e-05
0.000293071
7.26279e-05
0.00031496
7.88506e-05
0.000338134
8.55405e-05
0.000362684
9.2723e-05
0.000388493
0.000100424
0.000415444
0.000108662
0.000443473
0.000117452
0.000472358
0.000126806
0.000501789
0.000136725
0.000531358
0.000147201
0.000560518
0.00015821
0.000588543
0.00016971
0.000614489
0.000181639
0.000637143
0.000193903
0.000654968
0.000206375
0.000666033
0.000218884
0.000667938
0.000231202
0.000657735
0.00024304
0.000631828
0.000254023
0.000585935
0.000263682
0.000514963
0.000271416
0.000412751
0.000276525
0.000272133
9.1212e-05
0.000278084
2.7651e-07
1.8241e-05
2.54474e-08
6.05896e-07
1.97245e-05
9.61831e-07
2.13265e-05
1.34728e-06
2.30579e-05
1.76365e-06
2.49293e-05
2.21442e-06
2.6952e-05
2.70152e-06
2.91378e-05
3.22832e-06
3.14996e-05
3.79847e-06
3.404e-05
4.41528e-06
3.67892e-05
5.08234e-06
3.97707e-05
5.80325e-06
4.29929e-05
6.58334e-06
4.64752e-05
7.42814e-06
5.02052e-05
8.34479e-06
5.42244e-05
9.33559e-06
5.86122e-05
1.04077e-05
6.33527e-05
1.15716e-05
6.83846e-05
1.28335e-05
7.38572e-05
1.41978e-05
7.98206e-05
1.56791e-05
8.61569e-05
1.72857e-05
9.30084e-05
1.90231e-05
0.000100498
2.09123e-05
0.000108381
2.2957e-05
0.000117051
2.51734e-05
0.000126322
2.7577e-05
0.000136289
3.01785e-05
0.000147105
3.30004e-05
0.000158622
3.60525e-05
0.000171157
3.936e-05
0.000184492
4.29365e-05
0.000198939
4.68069e-05
0.000214364
5.09908e-05
0.000230923
5.55087e-05
0.000248696
6.03904e-05
0.000267559
6.56536e-05
0.000287808
7.13261e-05
0.000309288
7.74354e-05
0.000332024
8.4003e-05
0.000356117
9.10537e-05
0.000381443
9.86129e-05
0.000407885
0.000106699
0.000435388
0.000115327
0.000463732
0.000124508
0.00049261
0.000134243
0.000521625
0.000144525
0.000550239
0.000155331
0.000577741
0.00016662
0.000603204
0.00017833
0.000625438
0.00019037
0.000642933
0.000202617
0.000653793
0.0002149
0.000655664
0.000226997
0.000645649
0.000238622
0.000620216
0.000249407
0.000575165
0.000258891
0.000505496
0.000266487
0.000405174
0.000271504
0.000267137
8.97023e-05
0.000273041
2.72553e-07
1.79431e-05
3.25226e-08
5.98301e-07
1.94024e-05
9.48638e-07
2.09782e-05
1.32795e-06
2.26813e-05
1.73648e-06
2.4522e-05
2.17895e-06
2.65114e-05
2.65603e-06
2.86611e-05
3.17305e-06
3.0984e-05
3.73164e-06
3.34815e-05
4.33742e-06
3.61846e-05
4.99149e-06
3.91167e-05
5.6999e-06
4.22856e-05
6.46503e-06
4.57101e-05
7.29523e-06
4.93759e-05
8.19473e-06
5.33249e-05
9.16816e-06
5.76393e-05
1.02205e-05
6.23004e-05
1.13637e-05
6.72417e-05
1.26026e-05
7.26183e-05
1.39426e-05
7.84807e-05
1.53972e-05
8.47024e-05
1.69751e-05
9.14305e-05
1.86814e-05
9.87922e-05
2.05367e-05
0.000106526
2.25447e-05
0.000115043
2.47213e-05
0.000124146
2.70818e-05
0.000133929
2.96365e-05
0.000144551
3.24076e-05
0.000155851
3.54045e-05
0.00016816
3.86525e-05
0.000181244
4.21645e-05
0.000195427
4.59644e-05
0.000210564
5.00728e-05
0.000226816
5.45085e-05
0.00024426
5.93015e-05
0.000262766
6.44687e-05
0.000282641
7.00376e-05
0.000303719
7.60351e-05
0.000326027
8.24822e-05
0.000349669
8.94034e-05
0.000374521
9.68234e-05
0.000400464
0.00010476
0.00042745
0.000113229
0.000455261
0.00012224
0.000483597
0.000131796
0.000512068
0.000141888
0.000540145
0.000152495
0.000567132
0.000163576
0.000592119
0.000175074
0.000613938
0.000186895
0.000631108
0.00019892
0.000641766
0.000210982
0.0006436
0.000222862
0.000633765
0.00023428
0.000608795
0.000244871
0.000564568
0.000254185
0.000496177
0.000261644
0.000397706
0.000266572
0.000262194
8.81523e-05
0.000268091
2.62216e-07
1.76486e-05
3.04572e-08
5.80356e-07
1.90841e-05
9.23821e-07
2.06341e-05
1.2959e-06
2.23093e-05
1.69741e-06
2.41199e-05
2.13234e-06
2.60767e-05
2.60191e-06
2.81912e-05
3.11008e-06
3.04758e-05
3.65967e-06
3.29314e-05
4.2546e-06
3.55892e-05
4.89769e-06
3.84729e-05
5.59303e-06
4.15894e-05
6.34521e-06
4.49573e-05
7.16007e-06
4.85601e-05
8.04404e-06
5.24404e-05
8.99975e-06
5.66829e-05
1.00337e-05
6.12662e-05
1.11564e-05
6.61187e-05
1.23734e-05
7.14012e-05
1.36894e-05
7.71647e-05
1.5118e-05
8.32739e-05
1.66675e-05
8.9881e-05
1.83431e-05
9.71167e-05
2.0165e-05
0.000104704
2.21367e-05
0.000113072
2.4274e-05
0.000122009
2.65917e-05
0.000131611
2.91002e-05
0.000142042
3.1821e-05
0.00015313
3.47637e-05
0.000165217
3.79525e-05
0.000178055
4.14005e-05
0.000191979
4.51317e-05
0.000206833
4.91648e-05
0.000222783
5.35197e-05
0.000239905
5.8225e-05
0.000258061
6.32976e-05
0.000277568
6.87645e-05
0.000298252
7.46519e-05
0.000320139
8.09806e-05
0.000343341
8.77744e-05
0.000367727
9.50576e-05
0.000393181
0.000102848
0.00041966
0.000111161
0.00044695
0.000120005
0.000474754
0.000129385
0.000502691
0.000139291
0.000530242
0.000149703
0.000556723
0.000160582
0.000581243
0.00017187
0.000602655
0.000183477
0.000619504
0.000195286
0.000629964
0.000207132
0.000631762
0.000218799
0.000622107
0.000230013
0.000597593
0.000240415
0.000554179
0.000249562
0.000487045
0.000256889
0.000390394
0.00026173
0.000257369
8.66705e-05
0.000263231
2.57405e-07
1.7361e-05
3.3647e-08
5.70456e-07
1.8773e-05
9.07716e-07
2.02977e-05
1.27281e-06
2.19455e-05
1.66667e-06
2.37265e-05
2.093e-06
2.56511e-05
2.5533e-06
2.77309e-05
3.05177e-06
2.9978e-05
3.59089e-06
3.23923e-05
4.17513e-06
3.50057e-05
4.80639e-06
3.78418e-05
5.48969e-06
4.09068e-05
6.22801e-06
4.42191e-05
7.02876e-06
4.776e-05
7.89653e-06
5.15728e-05
8.83536e-06
5.57446e-05
9.85035e-06
6.02513e-05
1.09528e-05
6.50165e-05
1.21476e-05
7.02065e-05
1.34397e-05
7.58726e-05
1.48423e-05
8.18714e-05
1.63637e-05
8.83597e-05
1.80088e-05
9.54717e-05
1.97977e-05
0.000102915
2.17335e-05
0.000111136
2.3832e-05
0.00011991
2.61076e-05
0.000129336
2.85703e-05
0.00013958
3.12417e-05
0.000150459
3.41305e-05
0.000162328
3.72613e-05
0.000174925
4.06465e-05
0.000188594
4.4309e-05
0.000203171
4.82686e-05
0.000218824
5.25436e-05
0.00023563
5.71626e-05
0.000253441
6.21421e-05
0.000272588
6.75086e-05
0.000292885
7.32878e-05
0.000314359
7.94999e-05
0.000337128
8.61686e-05
0.000361058
9.33175e-05
0.000386031
0.000100964
0.000412012
0.000109124
0.000438789
0.000117805
0.000466071
0.000127012
0.000493482
0.000136736
0.000520515
0.000146958
0.000546499
0.000157638
0.000570558
0.000168721
0.000591569
0.000180119
0.000608103
0.000191715
0.000618365
0.000203349
0.000620126
0.000214808
0.000610643
0.000225821
0.000586575
0.000236038
0.000543955
0.000245022
0.000478054
0.000252219
0.000383185
0.000256976
0.000252592
8.51475e-05
0.00025846
2.47123e-07
1.70765e-05
3.17703e-08
5.52756e-07
1.84655e-05
8.83465e-07
1.99653e-05
1.24156e-06
2.15862e-05
1.62874e-06
2.33381e-05
2.0478e-06
2.52314e-05
2.50091e-06
2.72772e-05
2.99079e-06
2.94874e-05
3.52123e-06
3.18613e-05
4.09487e-06
3.44312e-05
4.71547e-06
3.72207e-05
5.38593e-06
4.02353e-05
6.11165e-06
4.3493e-05
6.89732e-06
4.69732e-05
7.74995e-06
5.07199e-05
8.67138e-06
5.48223e-05
9.66849e-06
5.92541e-05
1.07508e-05
6.39338e-05
1.19242e-05
6.90332e-05
1.31929e-05
7.46039e-05
1.45701e-05
8.04943e-05
1.60638e-05
8.6866e-05
1.76791e-05
9.38566e-05
1.94353e-05
0.000101159
2.13358e-05
0.000109236
2.3396e-05
0.00011785
2.563e-05
0.000127102
2.80478e-05
0.000137162
3.06701e-05
0.000147837
3.35063e-05
0.000159492
3.65796e-05
0.000171851
3.99025e-05
0.00018527
4.34983e-05
0.000199575
4.73848e-05
0.000214937
5.15814e-05
0.000231434
5.61155e-05
0.000248907
6.10034e-05
0.000267699
6.62711e-05
0.000287617
7.19439e-05
0.000308686
7.80416e-05
0.00033103
8.45873e-05
0.000354512
9.16045e-05
0.000379014
9.91104e-05
0.000404506
0.000107119
0.000430781
0.000115641
0.00045755
0.000124679
0.000484446
0.000134224
0.000510971
0.000144259
0.000536467
0.000154745
0.000560075
0.000165627
0.000580691
0.000176819
0.000596914
0.000188207
0.000606982
0.000199633
0.000608708
0.000210888
0.000599397
0.000221705
0.000575769
0.00023174
0.000533932
0.000240564
0.000469244
0.000247633
0.000376128
0.000252309
0.000247928
8.36893e-05
0.000253777
2.44463e-07
1.67998e-05
3.80855e-08
5.46801e-07
1.81662e-05
8.72195e-07
1.96415e-05
1.22449e-06
2.1236e-05
1.60412e-06
2.29594e-05
2.01523e-06
2.48217e-05
2.45866e-06
2.6834e-05
2.93919e-06
2.9008e-05
3.45846e-06
3.13421e-05
4.02158e-06
3.3869e-05
4.62967e-06
3.66126e-05
5.28825e-06
3.95776e-05
5.99957e-06
4.27816e-05
6.77137e-06
4.62022e-05
7.60756e-06
4.98837e-05
8.51246e-06
5.39179e-05
9.49066e-06
5.82758e-05
1.05533e-05
6.28714e-05
1.17048e-05
6.78815e-05
1.29503e-05
7.33584e-05
1.43021e-05
7.91424e-05