/*--------------------------------*- C++ -*----------------------------------*\
  =========                 |
  \\      /  F ield         | OpenFOAM: The Open Source CFD Toolbox
   \\    /   O peration     | Website:  https://openfoam.org
    \\  /    A nd           | Version:  6.0
     \\/     M anipulation  |
\*---------------------------------------------------------------------------*/
FoamFile
{
    version     2.0;
    format      ascii;
    class       volScalarField;
    location    "5";
    object      p;
}
// * * * * * * * * * * * * * * * * * * * * * * * * * * * * * * * * * * * * * //

dimensions      [0 2 -2 0 0 0 0];

internalField   nonuniform List<scalar> 
62000
(
0.0162357
0.0162218
0.0162047
0.016182
0.0161574
0.0161284
0.0160978
0.0160624
0.016025
0.0159819
0.0159364
0.0158841
0.0158292
0.0157661
0.0157002
0.015625
0.0155466
0.0154583
0.0153665
0.0152647
0.0151596
0.0150451
0.0149285
0.0148039
0.0146793
0.0145495
0.0144232
0.0142964
0.0141782
0.0140666
0.0139714
0.0138941
0.0138396
0.0138045
0.0137826
0.0137744
0.0137797
0.013791
0.0137927
0.0137609
0.0136628
0.0134567
0.0130945
0.0125254
0.0117015
0.0105901
0.00917834
0.0074885
0.00557852
0.00353652
0.00148854
-0.000448038
-0.00213409
-0.0035149
-0.00450684
-0.0050785
-0.00517828
-0.0047686
-0.00377748
-0.00337007
0.0162636
0.0162603
0.0162498
0.016229
0.0162028
0.0161702
0.0161348
0.0160943
0.0160511
0.0160022
0.0159504
0.0158918
0.0158302
0.0157606
0.0156877
0.0156059
0.0155203
0.0154253
0.0153262
0.0152178
0.0151053
0.0149844
0.0148601
0.0147291
0.0145967
0.0144605
0.0143261
0.0141932
0.0140672
0.0139505
0.0138492
0.0137691
0.0137141
0.0136799
0.0136638
0.0136665
0.0136895
0.0137276
0.0137672
0.0137861
0.0137525
0.0136242
0.0133507
0.0128754
0.0121414
0.0111026
0.00972938
0.00802607
0.00603324
0.00382665
0.00153013
-0.00073156
-0.00278909
-0.00456463
-0.00592359
-0.00677558
-0.00697884
-0.00639037
-0.00493083
-0.0032391
0.0162089
0.016215
0.0162104
0.0161908
0.0161617
0.0161229
0.016079
0.0160284
0.0159739
0.0159124
0.0158469
0.0157734
0.0156956
0.0156085
0.0155167
0.0154146
0.015307
0.0151886
0.0150642
0.0149288
0.0147872
0.0146351
0.0144771
0.0143098
0.0141379
0.0139592
0.0137782
0.0135951
0.0134139
0.0132379
0.0130722
0.0129239
0.0127954
0.0126848
0.0125883
0.012509
0.0124506
0.012411
0.0123809
0.0123426
0.0122697
0.0121256
0.011865
0.011435
0.01078
0.00985194
0.00861547
0.00706515
0.00522991
0.00317239
0.00100852
-0.0011434
-0.00310392
-0.00479442
-0.00606253
-0.00680026
-0.00683768
-0.0060353
-0.00433762
-0.00250405
0.0161958
0.016208
0.016206
0.0161853
0.016151
0.0161034
0.0160479
0.0159839
0.0159147
0.0158375
0.0157551
0.0156638
0.0155669
0.0154597
0.0153463
0.0152212
0.0150891
0.0149444
0.0147918
0.0146261
0.0144516
0.0142641
0.0140676
0.0138585
0.013641
0.0134125
0.013177
0.0129342
0.0126876
0.0124403
0.0121968
0.0119639
0.0117449
0.0115361
0.0113364
0.0111492
0.0109804
0.0108312
0.0106964
0.0105637
0.0104132
0.0102154
0.00993247
0.00951853
0.00892337
0.0081016
0.00701679
0.00565842
0.00404618
0.0022314
0.000317941
-0.00158581
-0.00330244
-0.00476106
-0.00581208
-0.00634816
-0.00620362
-0.00527973
-0.00351368
-0.00175005
0.0162483
0.0162627
0.016261
0.0162392
0.0162003
0.0161448
0.0160787
0.0160023
0.0159194
0.0158276
0.0157299
0.0156224
0.0155085
0.0153835
0.0152513
0.0151065
0.0149534
0.0147865
0.0146101
0.014419
0.0142174
0.0140005
0.0137721
0.0135284
0.0132731
0.0130032
0.0127222
0.0124293
0.0121275
0.0118193
0.0115087
0.0112025
0.0109024
0.0106071
0.0103134
0.0100268
0.00975454
0.00949993
0.00926127
0.00903102
0.00879462
0.0085296
0.00820559
0.00778414
0.00722161
0.00647721
0.00551611
0.00432529
0.00291843
0.00133658
-0.000326947
-0.00197673
-0.00344088
-0.00465999
-0.0054936
-0.00584282
-0.00555365
-0.0045673
-0.00276742
-0.00102619
0.0163254
0.0163364
0.0163334
0.0163109
0.0162698
0.0162096
0.0161365
0.0160515
0.0159588
0.0158564
0.0157472
0.0156279
0.0155014
0.0153634
0.0152174
0.0150583
0.0148901
0.0147073
0.014514
0.014305
0.0140839
0.0138461
0.013595
0.0133265
0.0130439
0.0127439
0.0124296
0.0120997
0.0117568
0.0114026
0.0110409
0.0106773
0.0103148
0.00994882
0.00957938
0.00921071
0.00885145
0.00850638
0.00817635
0.0078574
0.00753953
0.00720609
0.00683336
0.00638981
0.00583844
0.00514357
0.00427321
0.00321394
0.00197506
0.000590325
-0.000857788
-0.00228406
-0.00352483
-0.00453067
-0.00517469
-0.00536479
-0.00495985
-0.00392625
-0.00206893
-0.000300879
0.0163803
0.0163859
0.0163808
0.0163586
0.0163178
0.0162568
0.0161815
0.0160932
0.015996
0.0158886
0.0157739
0.0156485
0.0155154
0.0153703
0.0152167
0.0150493
0.0148721
0.0146797
0.014476
0.0142556
0.0140222
0.013771
0.0135052
0.0132205
0.0129199
0.0125999
0.0122631
0.0119079
0.0115364
0.0111498
0.0107513
0.0103463
0.00993555
0.0095176
0.00908888
0.00865568
0.00822659
0.00780727
0.00740034
0.00700441
0.00661307
0.00621442
0.00579037
0.00531565
0.0047594
0.00409122
0.00328276
0.0023212
0.00121368
-1.23852e-05
-0.0012823
-0.00252167
-0.00357311
-0.00439757
-0.00488005
-0.00493558
-0.00443127
-0.00334974
-0.00140972
0.000419653
0.0164035
0.0164028
0.0163955
0.0163741
0.0163351
0.0162758
0.0162014
0.0161133
0.0160157
0.0159073
0.015791
0.0156639
0.0155286
0.0153811
0.0152245
0.015054
0.014873
0.0146766
0.014468
0.0142424
0.0140028
0.0137447
0.0134707
0.0131768
0.0128657
0.0125336
0.0121828
0.0118114
0.0114211
0.0110127
0.0105888
0.0101539
0.00971001
0.00925175
0.008779
0.00829599
0.00781195
0.00733307
0.00686308
0.0064025
0.00594766
0.00549046
0.0050175
0.00450881
0.00393908
0.00328284
0.0025155
0.00162578
0.000619442
-0.000480063
-0.00160571
-0.00269024
-0.00358395
-0.00425414
-0.00459876
-0.00453636
-0.00394128
-0.00280223
-0.000756618
0.0011565
0.0164021
0.0163964
0.0163869
0.0163659
0.0163286
0.0162714
0.016199
0.0161127
0.0160166
0.0159096
0.0157945
0.0156685
0.0155341
0.0153873
0.0152313
0.015061
0.01488
0.0146829
0.0144735
0.0142464
0.0140048
0.0137441
0.0134669
0.0131689
0.0128525
0.012514
0.0121554
0.0117745
0.0113725
0.0109501
0.0105091
0.0100541
0.00958463
0.00909872
0.00859205
0.00807091
0.00754382
0.00701711
0.0064953
0.00598015
0.00547013
0.00496015
0.00444071
0.0038964
0.00330686
0.0026513
0.00190905
0.00107065
0.000141932
-0.000857243
-0.00186448
-0.00282074
-0.00358019
-0.00411761
-0.00434081
-0.00417215
-0.00348944
-0.00228464
-0.000120026
0.00189171
0.0163763
0.0163662
0.0163549
0.0163343
0.0162986
0.0162437
0.0161739
0.0160901
0.0159964
0.0158918
0.0157791
0.0156555
0.0155236
0.0153795
0.015226
0.0150585
0.0148799
0.0146855
0.0144782
0.0142531
0.0140129
0.0137532
0.0134761
0.0131777
0.01286
0.0125191
0.0121569
0.0117709
0.0113622
0.0109309
0.0104787
0.010009
0.00952303
0.00901446
0.00848286
0.00793196
0.00737065
0.00680532
0.00624089
0.0056801
0.005123
0.00456695
0.00400564
0.00342755
0.00281664
0.00215631
0.00142958
0.00062931
-0.000238389
-0.00115546
-0.00206448
-0.00291116
-0.00355503
-0.00397483
-0.00408827
-0.00381925
-0.00304917
-0.00176821
0.000527034
0.00264648
0.0163237
0.0163108
0.0162986
0.016279
0.0162454
0.0161935
0.0161271
0.0160471
0.0159573
0.0158568
0.0157482
0.0156289
0.0155013
0.0153614
0.0152121
0.0150487
0.0148741
0.0146835
0.0144798
0.014258
0.0140208
0.0137638
0.0134889
0.0131921
0.0128753
0.0125345
0.0121714
0.0117833
0.0113709
0.0109342
0.0104743
0.00999491
0.00949459
0.00897097
0.0084189
0.00784436
0.00725528
0.00665788
0.00605738
0.00545715
0.00485851
0.00426078
0.00366034
0.00304906
0.00241476
0.00174475
0.00102579
0.000252956
-0.000566327
-0.00141584
-0.00224061
-0.00299224
-0.00353221
-0.00384473
-0.00385529
-0.00348967
-0.00263069
-0.00126668
0.00116471
0.00339727
0.0162539
0.016239
0.0162265
0.0162083
0.0161772
0.0161286
0.0160659
0.01599
0.0159044
0.0158083
0.015704
0.0155893
0.0154662
0.0153312
0.0151866
0.0150283
0.0148586
0.014673
0.014474
0.014257
0.0140241
0.0137711
0.0134997
0.0132059
0.0128914
0.0125522
0.0121896
0.0118009
0.0113868
0.0109466
0.0104814
0.00999393
0.0094846
0.0089464
0.0083786
0.00778432
0.00717183
0.00654722
0.00591587
0.00528165
0.00464684
0.00401243
0.00337707
0.00273549
0.00207894
0.00139823
0.00068354
-6.75278e-05
-0.000846303
-0.00163711
-0.00238802
-0.00305351
-0.00349949
-0.0037118
-0.00362399
-0.00316219
-0.00221174
-0.000756062
0.00181763
0.00416693
0.0161859
0.0161708
0.0161586
0.0161415
0.0161122
0.0160658
0.0160059
0.0159331
0.015851
0.0157587
0.0156586
0.0155481
0.0154294
0.0152989
0.0151591
0.0150053
0.0148403
0.0146593
0.014465
0.0142523
0.0140238
0.0137748
0.0135072
0.0132168
0.0129051
0.0125681
0.0122068
0.0118185
0.0114033
0.0109608
0.0104914
0.00999809
0.00947874
0.00893075
0.00834828
0.00773699
0.00710407
0.00645538
0.0057964
0.00513135
0.00446333
0.00379473
0.00312614
0.00245492
0.00177537
0.00108163
0.000367329
-0.000367599
-0.00111253
-0.00185252
-0.00253643
-0.00312361
-0.00348036
-0.00359675
-0.00341251
-0.00285471
-0.00180977
-0.000257127
0.00246114
0.00492884
0.0161135
0.0160984
0.0160869
0.0160712
0.0160437
0.0159996
0.0159422
0.0158722
0.015793
0.0157039
0.015607
0.0155003
0.0153855
0.0152594
0.015124
0.0149753
0.0148152
0.0146395
0.0144502
0.0142428
0.0140191
0.0137749
0.0135113
0.0132246
0.012916
0.0125813
0.0122215
0.0118337
0.0114179
0.0109732
0.0105002
0.0100006
0.00947477
0.0089149
0.00832021
0.00769325
0.00704166
0.00637112
0.00568718
0.00499436
0.00429642
0.00359697
0.00289831
0.00220007
0.00149931
0.000793179
7.83985e-05
-0.000642483
-0.00135704
-0.00205008
-0.00267219
-0.00318487
-0.00345765
-0.00348129
-0.00320173
-0.00254602
-0.00140296
0.00025391
0.00312076
0.00570867
0.0160337
0.0160196
0.0160097
0.0159961
0.0159711
0.0159301
0.0158759
0.0158096
0.0157344
0.0156496
0.0155572
0.015455
0.0153449
0.0152234
0.0150928
0.0149487
0.0147933
0.0146221
0.0144374
0.0142343
0.0140148
0.0137746
0.0135147
0.0132313
0.0129254
0.0125928
0.0122342
0.0118467
0.01143
0.0109831
0.0105061
0.0100014
0.00946624
0.00889799
0.00829027
0.00764855
0.00697932
0.00628802
0.00558029
0.00486087
0.00413412
0.00340472
0.00267654
0.00195127
0.00122856
0.00050842
-0.000209219
-0.000919486
-0.00160761
-0.00225835
-0.00282218
-0.00326456
-0.00345477
-0.00338677
-0.0030117
-0.00225692
-0.00101239
0.000752987
0.00376957
0.00647856
0.0159503
0.0159372
0.0159292
0.0159185
0.0158969
0.0158595
0.0158093
0.0157471
0.0156761
0.0155956
0.0155076
0.01541
0.0153043
0.0151877
0.0150618
0.0149228
0.0147722
0.0146061
0.014426
0.0142277
0.0140124
0.0137762
0.0135197
0.0132393
0.0129356
0.0126046
0.0122467
0.0118589
0.0114408
0.010991
0.0105099
0.00999848
0.00945673
0.00887651
0.00825709
0.00760056
0.00691399
0.00620266
0.00547226
0.00472778
0.00397409
0.00321683
0.00246128
0.00171099
0.000967961
0.000234832
-0.000485572
-0.00118579
-0.00184887
-0.00245882
-0.00296696
-0.00334043
-0.00345135
-0.0032933
-0.00282235
-0.00196581
-0.000615803
0.00126448
0.00443418
0.0072661
0.0158894
0.0158786
0.0158728
0.0158643
0.0158449
0.01581
0.0157624
0.0157033
0.0156356
0.0155587
0.0154745
0.0153807
0.0152792
0.0151665
0.0150448
0.0149096
0.014763
0.0146005
0.0144241
0.0142291
0.0140171
0.0137837
0.0135299
0.0132515
0.0129494
0.0126192
0.0122614
0.0118726
0.0114522
0.010999
0.0105126
0.00999497
0.00944277
0.00885358
0.00822057
0.00754911
0.00684512
0.00611366
0.00536051
0.00459086
0.00381006
0.00302467
0.00224129
0.00146523
0.000700721
-4.70063e-05
-0.000772149
-0.00146493
-0.00210575
-0.00267809
-0.00313247
-0.00344004
-0.00347149
-0.00322335
-0.00265553
-0.00169558
-0.000236787
0.00176212
0.00508586
0.00804092
0.0158373
0.0158286
0.0158251
0.0158192
0.0158024
0.01577
0.0157251
0.0156687
0.0156038
0.0155298
0.0154485
0.0153581
0.01526
0.0151512
0.0150332
0.0149023
0.0147598
0.0146017
0.0144293
0.0142383
0.0140296
0.0137993
0.0135477
0.013271
0.0129698
0.0126397
0.0122809
0.0118902
0.0114667
0.0110089
0.0105167
0.00999059
0.00943038
0.00882763
0.00818177
0.00749455
0.00677257
0.00602079
0.00524505
0.00445079
0.0036438
0.00283147
0.0020216
0.00122115
0.000436432
-0.000324973
-0.00105451
-0.00173981
-0.00235881
-0.00289391
-0.003296
-0.00353797
-0.00349247
-0.0031553
-0.00248963
-0.00142325
0.000148498
0.00227193
0.00575283
0.00883236
0.0157955
0.0157896
0.0157891
0.0157863
0.0157727
0.0157438
0.0157024
0.0156499
0.0155889
0.015519
0.015442
0.0153557
0.0152617
0.0151568
0.0150428
0.0149154
0.0147763
0.0146211
0.0144516
0.0142629
0.0140564
0.0138278
0.0135774
0.0133014
0.0130001
0.0126691
0.0123085
0.0119147
0.011487
0.0110237
0.0105241
0.00998967
0.00941681
0.00880332
0.00814201
0.00743827
0.00669755
0.00592458
0.00512534
0.0043055
0.00347126
0.00263086
0.00179329
0.000967055
0.000160508
-0.000616437
-0.00135237
-0.00203257
-0.00263203
-0.00313245
-0.0034838
-0.00366241
-0.00353914
-0.00311208
-0.00234742
-0.00117282
0.00051501
0.00276634
0.0064055
0.00960932
0.0157642
0.0157607
0.0157635
0.0157646
0.0157552
0.0157306
0.0156935
0.0156453
0.0155886
0.015523
0.01545
0.0153679
0.0152778
0.0151771
0.0150667
0.0149434
0.0148077
0.0146562
0.0144895
0.0143036
0.014099
0.0138719
0.0136221
0.013346
0.0130436
0.0127107
0.0123469
0.011949
0.0115159
0.0110455
0.0105376
0.00999223
0.00940907
0.00877947
0.00810311
0.0073815
0.00662089
0.00582594
0.00500277
0.00415727
0.00329605
0.00242812
0.00156358
0.000712427
-0.000115096
-0.000906936
-0.00164893
-0.00232381
-0.00290377
-0.0033695
-0.00367095
-0.00378603
-0.00358742
-0.0030714
-0.00220665
-0.000920622
0.000887515
0.00327251
0.00707301
0.0104029
0.0157777
0.015778
0.0157839
0.0157879
0.0157812
0.0157592
0.0157249
0.0156795
0.0156257
0.0155632
0.0154935
0.0154145
0.0153276
0.0152296
0.0151221
0.0150009
0.0148675
0.0147174
0.0145522
0.0143671
0.014163
0.0139358
0.0136854
0.0134079
0.0131033
0.0127672
0.0123993
0.0119959
0.0115559
0.0110773
0.0105593
0.0100029
0.00940422
0.00876129
0.00806675
0.0073261
0.00654438
0.00572609
0.00487752
0.0040048
0.00311493
0.00221773
0.0013244
0.000446402
-0.000404168
-0.00121308
-0.00196336
-0.0026353
-0.00319791
-0.00363131
-0.00388436
-0.00393835
-0.00366323
-0.00305741
-0.00209142
-0.000692121
0.00123937
0.00376135
0.00772486
0.0111808
0.0158139
0.0158174
0.0158267
0.0158339
0.01583
0.0158108
0.015779
0.015736
0.0156846
0.0156244
0.0155569
0.0154805
0.0153959
0.0153007
0.0151957
0.0150774
0.0149463
0.0147988
0.0146353
0.0144518
0.0142482
0.0140209
0.0137694
0.0134898
0.0131821
0.0128418
0.0124683
0.0120581
0.0116098
0.0111214
0.010592
0.0100216
0.00940966
0.00874743
0.00803492
0.00727351
0.00646919
0.0056264
0.00475161
0.00385117
0.00293248
0.00200605
0.00108425
0.000179767
-0.000693385
-0.00151912
-0.00227744
-0.00294631
-0.00349151
-0.00389258
-0.00409777
-0.00409035
-0.00374134
-0.00304676
-0.00197836
-0.000462422
0.00159688
0.00426154
0.00839132
0.0119754
0.0158773
0.0158845
0.0158974
0.0159083
0.015908
0.0158923
0.0158639
0.0158245
0.0157767
0.0157201
0.0156561
0.0155829
0.0155014
0.0154088
0.0153062
0.0151896
0.01506
0.014913
0.0147499
0.0145659
0.0143614
0.0141324
0.0138783
0.0135953
0.0132831
0.0129372
0.0125568
0.0121383
0.0116801
0.0111804
0.0106377
0.010053
0.00942207
0.00874335
0.00800935
0.00722577
0.00639735
0.0055284
0.00462553
0.0036954
0.00274571
0.0017879
0.000835177
-9.80701e-05
-0.000996497
-0.00184136
-0.00261056
-0.00327857
-0.00380901
-0.00417963
-0.00433943
-0.00427227
-0.00384834
-0.00306411
-0.00189217
-0.000257761
0.00193244
0.00474326
0.00904174
0.0127539
0.015964
0.0159745
0.0159914
0.0160067
0.0160109
0.0159996
0.0159755
0.0159403
0.0158963
0.0158435
0.0157827
0.0157129
0.0156342
0.0155444
0.015444
0.0153298
0.0152016
0.0150561
0.0148933
0.0147092
0.0145033
0.0142722
0.0140147
0.0137272
0.0134092
0.0130562
0.0126673
0.0122388
0.0117693
0.0112562
0.0106988
0.0100966
0.00944908
0.00874746
0.00799214
0.00718447
0.00633025
0.00543374
0.00450175
0.00354109
0.00255993
0.0015703
0.000586644
-0.000375633
-0.00129915
-0.00216357
-0.00294334
-0.00361097
-0.00412642
-0.00446731
-0.00458133
-0.00445442
-0.00395851
-0.00308591
-0.00180909
-5.27248e-05
0.00227321
0.00523599
0.00970677
0.0135493
0.0161155
0.0161305
0.0161511
0.0161695
0.0161764
0.0161675
0.0161457
0.0161128
0.0160711
0.0160205
0.0159621
0.015894
0.0158172
0.0157285
0.0156292
0.0155149
0.0153866
0.0152398
0.0150754
0.0148886
0.0146796
0.0144443
0.0141818
0.0138882
0.0135628
0.0132012
0.0128022
0.0123621
0.0118793
0.0113514
0.0107772
0.0101572
0.00948697
0.00876544
0.00798507
0.00715179
0.00627013
0.00534414
0.00438086
0.00338731
0.00237206
0.00134794
0.000330373
-0.000663698
-0.00161559
-0.00250215
-0.00329606
-0.00396544
-0.00446942
-0.00478186
-0.00485364
-0.00466812
-0.00409941
-0.003138
-0.00175516
0.000125201
0.00259013
0.00570892
0.0103553
0.0143289
0.0163047
0.0163236
0.0163479
0.0163697
0.0163794
0.0163729
0.0163531
0.0163218
0.0162815
0.0162322
0.0161748
0.0161078
0.0160317
0.0159441
0.0158451
0.0157316
0.015603
0.015456
0.0152902
0.0151015
0.0148891
0.0146494
0.0143809
0.0140801
0.0137461
0.0133742
0.0129636
0.0125101
0.0120124
0.0114677
0.0108751
0.0102339
0.00954356
0.00879547
0.00799031
0.00712945
0.00621849
0.00526145
0.00426553
0.00323797
0.00218772
0.00112832
7.62706e-05
-0.000950301
-0.00193103
-0.00284051
-0.00364879
-0.00432068
-0.00481359
-0.00509824
-0.00512732
-0.00488247
-0.0042449
-0.00319609
-0.00170566
0.000302503
0.00291163
0.00619251
0.0110182
0.0151254
0.0165387
0.016562
0.0165904
0.0166161
0.0166292
0.0166259
0.0166089
0.0165806
0.0165429
0.016496
0.0164406
0.0163752
0.0163002
0.0162129
0.0161139
0.0159991
0.0158688
0.0157188
0.0155495
0.0153561
0.0151382
0.0148918
0.0146156
0.0143057
0.0139613
0.0135776
0.0131534
0.0126849
0.0121702
0.0116071
0.010994
0.0103314
0.00961478
0.00884348
0.00800968
0.00711967
0.00617758
0.00518729
0.00415617
0.00309174
0.00200341
0.000905414
-0.000184519
-0.00124714
-0.00226025
-0.0031961
-0.00402244
-0.00469985
-0.00518524
-0.00544394
-0.00543419
-0.00513031
-0.00442309
-0.00328638
-0.00168714
0.000451174
0.00320804
0.00665576
0.0116649
0.0159065
0.0168114
0.0168385
0.0168712
0.0169016
0.016919
0.0169198
0.0169063
0.0168811
0.016846
0.0168013
0.0167473
0.0166832
0.0166086
0.0165216
0.0164218
0.0163063
0.0161739
0.0160215
0.0158483
0.0156502
0.015426
0.0151723
0.014887
0.0145666
0.0142101
0.0138128
0.0133733
0.0128879
0.0123546
0.011771
0.011136
0.0104487
0.00970866
0.0089072
0.00804523
0.00712403
0.00614868
0.00512332
0.00405523
0.00295251
0.00182469
0.000686935
-0.000442026
-0.00154193
-0.00258838
-0.00355202
-0.00439695
-0.00508149
-0.00555974
-0.00579408
-0.00574394
-0.00538254
-0.00460821
-0.00338454
-0.0016746
0.000598151
0.00350835
0.00712942
0.012326
0.016705
0.0171688
0.0172011
0.0172378
0.0172709
0.0172904
0.0172926
0.0172801
0.0172556
0.017221
0.0171763
0.0171223
0.0170573
0.0169815
0.0168921
0.0167898
0.0166702
0.0165334
0.0163751
0.0161956
0.0159896
0.0157569
0.0154933
0.0151969
0.0148642
0.0144939
0.0140811
0.0136247
0.0131205
0.0125668
0.0119612
0.0113021
0.0105902
0.00982044
0.00899261
0.00809847
0.00714411
0.00613364
0.00507042
0.00396253
0.00281809
0.00164722
0.000465929
-0.000706169
-0.00184716
-0.00293138
-0.00392632
-0.00479456
-0.00548926
-0.005965
-0.00617671
-0.00609117
-0.00567169
-0.00482939
-0.00351805
-0.00169575
0.000714276
0.00378197
0.00758195
0.0129711
0.0174888
0.017572
0.0176087
0.0176491
0.0176853
0.0177069
0.0177103
0.0176983
0.0176736
0.0176382
0.0175924
0.0175365
0.0174697
0.0173914
0.0172997
0.017194
0.0170714
0.0169301
0.0167672
0.0165814
0.0163685
0.0161269
0.0158532
0.015545
0.0151987
0.0148132
0.0143835
0.0139084
0.0133838
0.012808
0.0121785
0.0114943
0.0107543
0.00995814
0.00909648
0.00817078
0.00718106
0.00613289
0.00502971
0.00387998
0.00269205
0.00147652
0.000250015
-0.000966653
-0.00215058
-0.00327386
-0.00430221
-0.00519462
-0.00590182
-0.00637568
-0.00656709
-0.00644481
-0.00596853
-0.00506087
-0.00366188
-0.00172472
0.000827313
0.00405864
0.00804424
0.0136302
0.0182895
0.0180259
0.0180674
0.0181119
0.0181514
0.0181756
0.018181
0.0181705
0.0181469
0.018112
0.0180664
0.01801
0.0179418
0.0178614
0.0177665
0.0176569
0.0175288
0.0173815
0.0172109
0.0170166
0.0167937
0.0165412
0.0162551
0.015933
0.0155715
0.015169
0.0147207
0.0142252
0.0136786
0.0130789
0.0124242
0.0117128
0.0109452
0.0101157
0.0092251
0.00826267
0.00723578
0.00614726
0.00500136
0.00380639
0.00257143
0.0013072
3.13642e-05
-0.00123435
-0.00246555
-0.0036326
-0.0046985
-0.0056201
-0.00634356
-0.00682048
-0.00699428
-0.0068401
-0.00630621
-0.00533172
-0.00384375
-0.00178946
0.000907915
0.00430777
0.0084853
0.0142742
0.0190763
0.0185173
0.0185627
0.0186116
0.0186555
0.0186834
0.018692
0.0186837
0.0186618
0.0186276
0.018582
0.0185245
0.0184549
0.0183719
0.018274
0.01816
0.0180274
0.0178738
0.0176965
0.0174936
0.0172611
0.0169969
0.0166978
0.0163607
0.0159824
0.0155614
0.0150928
0.0145753
0.0140049
0.0133802
0.0126985
0.0119589
0.01116
0.0103016
0.00937272
0.00837487
0.00730766
0.00617658
0.00498557
0.00374353
0.00245962
0.00114496
-0.000182079
-0.00149873
-0.00277922
-0.00399205
-0.00509768
-0.00605027
-0.00679231
-0.00727387
-0.00743243
-0.00724565
-0.00665725
-0.00561653
-0.00403846
-0.00186378
0.000984094
0.00455918
0.00893557
0.0149317
0.01988
0.0190996
0.0191503
0.0192026
0.0192485
0.0192772
0.0192856
0.0192766
0.0192534
0.0192176
0.0191696
0.0191095
0.019036
0.0189487
0.0188451
0.018725
0.0185843
0.0184221
0.0182343
0.0180202
0.0177747
0.0174966
0.0171819
0.0168279
0.0164311
0.0159899
0.0154994
0.0149584
0.014363
0.0137115
0.0130017
0.0122319
0.0114022
0.0105066
0.00954475
0.00850586
0.00739644
0.00622068
0.00498189
0.00368961
0.00235301
0.000983809
-0.000398951
-0.00177121
-0.00310583
-0.00436932
-0.00551951
-0.00650817
-0.00727339
-0.00776455
-0.00791155
-0.00769723
-0.00705376
-0.00594495
-0.00427465
-0.00197662
0.00102583
0.00478184
0.00936431
0.0155747
0.0206718
0.019722
0.0197771
0.0198331
0.0198816
0.0199116
0.0199203
0.0199104
0.0198855
0.0198469
0.0197955
0.0197311
0.0196531
0.0195602
0.019451
0.019324
0.0191766
0.0190058
0.0188091
0.0185841
0.0183267
0.0180344
0.0177041
0.0173322
0.0169158
0.0164531
0.0159395
0.0153736
0.0147517
0.0140722
0.0133324
0.0125312
0.0116667
0.010738
0.00973386
0.00865506
0.00750169
0.00627913
0.00499092
0.00364653
0.00225555
0.000829861
-0.000610637
-0.0020407
-0.00343188
-0.00474832
-0.00594582
-0.00697256
-0.00776395
-0.00826623
-0.00840496
-0.00816286
-0.0074682
-0.00629094
-0.00452628
-0.0021011
0.00106162
0.00500559
0.00980125
0.0162302
0.0214815
0.0203987
0.0204585
0.0205183
0.0205697
0.0206016
0.0206113
0.0206014
0.020576
0.0205358
0.0204824
0.0204147
0.0203323
0.0202339
0.0201177
0.0199826
0.0198253
0.0196435
0.019434
0.0191951
0.0189221
0.0186131
0.0182644
0.0178728
0.0174351
0.0169496
0.0164115
0.0158195
0.0151699
0.0144608
0.0136899
0.0128551
0.0119563
0.0109866
0.00994632
0.00882284
0.00762403
0.00635275
0.00501238
0.00361263
0.00216334
0.000676756
-0.000826269
-0.00231923
-0.00377208
-0.00514685
-0.00639674
-0.00746707
-0.00828943
-0.00880816
-0.00894276
-0.00867761
-0.00793141
-0.00668348
-0.00482176
-0.00226601
0.00106178
0.0052001
0.0102169
0.0168718
0.0222811
0.0211328
0.0211969
0.0212609
0.021316
0.0213499
0.0213602
0.0213491
0.0213212
0.0212767
0.0212182
0.0211437
0.0210542
0.0209471
0.0208223
0.0206769
0.0205093
0.0203154
0.0200934
0.01984
0.0195517
0.0192252
0.0188579
0.0184457
0.017986
0.0174767
0.0169134
0.0162945
0.0156161
0.0148767
0.0140733
0.0132045
0.012268
0.011263
0.0101768
0.00901077
0.00776419
0.0064421
0.00504764
0.00359064
0.00208107
0.000531431
-0.00103649
-0.00259493
-0.00411222
-0.00554813
-0.00685339
-0.00796988
-0.00882624
-0.00936344
-0.00949709
-0.0092093
-0.00841542
-0.00709618
-0.00513472
-0.0024443
0.00105472
0.00539467
0.0106399
0.0175247
0.0230974
0.0220131
0.0220828
0.0221433
0.0221886
0.0222091
0.0222046
0.0221786
0.0221366
0.0220795
0.0220087
0.0219235
0.021823
0.0217057
0.0215691
0.0214123
0.0212313
0.0210237
0.0207861
0.020517
0.0202111
0.0198665
0.0194796
0.0190466
0.0185648
0.018032
0.0174435
0.0167976
0.0160906
0.0153205
0.0144846
0.0135806
0.0126081
0.0115593
0.0104343
0.00921998
0.00792378
0.00654859
0.00509699
0.00357902
0.00200478
0.000387193
-0.00125092
-0.00288038
-0.00446772
-0.00597051
-0.00733661
-0.00850501
-0.00940037
-0.00996148
-0.0100981
-0.00979252
-0.00895064
-0.0075583
-0.00549426
-0.00266527
0.00101054
0.00555928
0.0110415
0.0181636
0.0239029
0.0225868
0.0226633
0.0227394
0.0228048
0.0228468
0.0228622
0.0228542
0.022827
0.0227816
0.0227195
0.0226397
0.0225424
0.0224253
0.0222879
0.0221275
0.0219421
0.0217275
0.0214818
0.0212019
0.0208839
0.0205248
0.0201217
0.0196703
0.0191683
0.0186134
0.0180008
0.0173291
0.016594
0.0157938
0.0149251
0.013986
0.0129739
0.0118874
0.0107132
0.00945245
0.00810435
0.00667366
0.00516262
0.00358132
0.00193998
0.000251809
-0.00145937
-0.00316291
-0.00482356
-0.00639645
-0.00782678
-0.00904999
-0.00998754
-0.0105748
-0.0107175
-0.0103948
-0.00950841
-0.00804265
-0.00587336
-0.00290145
0.000957481
0.00572253
0.0114489
0.0188121
0.0247225
0.0234419
0.0235184
0.0235868
0.0236404
0.0236684
0.0236705
0.02365
0.0236122
0.0235582
0.0234887
0.0234032
0.0233
0.0231783
0.0230345
0.0228682
0.0226747
0.0224521
0.0221961
0.0219057
0.0215751
0.0212026
0.0207844
0.0203164
0.019796
0.0192209
0.0185861
0.0178898
0.0171278
0.0162978
0.0153966
0.0144215
0.0133718
0.0122389
0.0110235
0.00971057
0.00830867
0.00681955
0.00524527
0.00359614
0.00188259
0.000118225
-0.00167195
-0.0034557
-0.00519579
-0.00684499
-0.0083454
-0.00962937
-0.0106142
-0.0112329
-0.0113855
-0.0110498
-0.0101187
-0.00857781
-0.00630067
-0.00318154
0.000866594
0.0058558
0.0118353
0.0194464
0.0255295
0.0240137
0.0240939
0.0241743
0.0242447
0.0242914
0.024311
0.024307
0.0242832
0.0242408
0.0241808
0.0241025
0.0240052
0.0238872
0.0237468
0.023582
0.0233897
0.0231659
0.0229079
0.0226131
0.0222764
0.0218952
0.0214664
0.0209851
0.0204493
0.0198563
0.0192012
0.0184818
0.0176937
0.0168347
0.015901
0.0148905
0.0137999
0.012628
0.0113601
0.00999741
0.00853866
0.00698808
0.00534759
0.00362765
0.0018388
-4.99315e-06
-0.00187764
-0.00374519
-0.00556851
-0.00729768
-0.00887196
-0.0102199
-0.0112555
-0.0119078
-0.0120732
-0.0117252
-0.0107525
-0.00913646
-0.00674912
-0.00347827
0.000765517
0.00598651
0.0122262
0.0200885
0.0263477
0.0249163
0.0249927
0.0250606
0.0251134
0.0251403
0.0251411
0.0251198
0.0250816
0.0250277
0.0249584
0.0248734
0.0247704
0.0246487
0.0245039
0.0243361
0.0241391
0.0239114
0.0236478
0.0233473
0.0230033
0.0226139
0.0221751
0.0216822
0.0211326
0.0205234
0.0198495
0.0191083
0.0182953
0.0174079
0.0164424
0.0153957
0.0142668
0.0130463
0.0117342
0.0103151
0.00879686
0.00718145
0.00547032
0.00367434
0.00180431
-0.000125288
-0.00208702
-0.00404518
-0.00595843
-0.00777427
-0.00942863
-0.0108467
-0.0119382
-0.0126293
-0.0128109
-0.0124547
-0.01144
-0.00974771
-0.00724768
-0.00382043
0.000625721
0.00608692
0.0125959
0.020716
0.0271524
0.0254697
0.0255476
0.025627
0.0256973
0.0257448
0.0257663
0.0257654
0.0257457
0.0257087
0.0256543
0.0255821
0.0254902
0.0253775
0.0252409
0.0250791
0.0248877
0.024663
0.0244015
0.0241005
0.0237545
0.0233604
0.0229149
0.0224126
0.0218511
0.0212273
0.0205357
0.0197738
0.0189366
0.0180215
0.0170239
0.0159414
0.0147702
0.0135079
0.0121398
0.0106661
0.00908529
0.00740163
0.00561644
0.00374085
0.00178595
-0.000233317
-0.00228821
-0.00434113
-0.0063486
-0.00825523
-0.00999385
-0.0114856
-0.0126366
-0.0133689
-0.0135695
-0.0132057
-0.012152
-0.010384
-0.00776904
-0.00418093
0.000474174
0.0061831
0.0129681
0.0213494
0.0279668
0.0263519
0.0264241
0.0264966
0.0265595
0.0266
0.0266154
0.0266094
0.0265857
0.0265457
0.0264882
0.0264138
0.0263189
0.026204
0.0260635
0.0258988
0.0257027
0.0254743
0.0252075
0.024902
0.0245499
0.0241495
0.023696
0.0231843
0.0226113
0.0219735
0.0212651
0.0204831
0.0196222
0.0186791
0.0176495
0.0165297
0.0153179
0.0140041
0.0125886
0.0110533
0.00940717
0.00765117
0.0057867
0.0038255
0.00177909
-0.000336935
-0.0024923
-0.00464741
-0.00675636
-0.00876097
-0.0105904
-0.0121623
-0.013378
-0.0141566
-0.0143795
-0.0140116
-0.0129185
-0.0110737
-0.00834144
-0.00458755
0.000283792
0.00624914
0.0133194
0.0219683
0.0287684
0.0272822
0.0273531
0.0274202
0.0274752
0.0275059
0.0275104
0.0274935
0.0274591
0.0274096
0.027344
0.027263
0.0271634
0.0270449
0.0269031
0.0267373
0.0265419
0.0263134
0.0260469
0.0257402
0.0253862
0.0249817
0.0245226
0.0240028
0.0234191
0.0227681
0.0220432
0.0212413
0.0203564
0.0193853
0.0183228
0.0171657
0.0159094
0.0145514
0.0130751
0.0114803
0.00976468
0.00793221
0.00598438
0.00393339
0.00179118
-0.000426028
-0.00268647
-0.00494845
-0.00716363
-0.0092708
-0.0111957
-0.0128516
-0.0141359
-0.0149633
-0.0152113
-0.0148399
-0.0137104
-0.0117897
-0.0089379
-0.00501378
8.04481e-05
0.00630954
0.0136715
0.0225916
0.0295793
0.0282272
0.0283012
0.02837
0.0284254
0.0284549
0.0284578
0.0284383
0.0284017
0.0283492
0.0282806
0.0281962
0.0280929
0.0279708
0.0278245
0.027655
0.0274548
0.0272225
0.0269512
0.0266404
0.0262811
0.0258712
0.0254051
0.0248768
0.0242825
0.0236182
0.0228769
0.0220549
0.021146
0.0201463
0.0190505
0.0178542
0.0165549
0.0151413
0.0136126
0.0119497
0.0101607
0.00824706
0.00621002
0.00406259
0.00181728
-0.000508871
-0.00288235
-0.00525919
-0.00758845
-0.00980582
-0.0118331
-0.0135797
-0.014938
-0.0158191
-0.0160955
-0.0157244
-0.014558
-0.0125606
-0.00958675
-0.00548703
-0.000162114
0.00633957
0.0140022
0.0232001
0.030378
0.0291017
0.0291794
0.0292538
0.0293153
0.0293512
0.0293595
0.0293456
0.0293136
0.029266
0.0292018
0.0291218
0.0290229
0.0289049
0.0287634
0.0285978
0.028402
0.0281725
0.0279038
0.0275935
0.0272337
0.0268209
0.02635
0.0258142
0.0252097
0.0245323
0.0237744
0.022932
0.0219983
0.0209692
0.0198383
0.0186017
0.0172536
0.0157904
0.0141944
0.0124644
0.0105975
0.008598
0.00646718
0.00421862
0.00186546
-0.000574566
-0.00306612
-0.00556302
-0.00801149
-0.0103442
-0.0124787
-0.0143205
-0.0157568
-0.0166946
-0.017002
-0.0166319
-0.0154322
-0.0133592
-0.0102612
-0.00598122
-0.000419141
0.00636224
0.0143319
0.0238115
0.0311851
0.0300461
0.0301285
0.0302082
0.0302758
0.0303179
0.0303334
0.0303269
0.0303029
0.0302633
0.0302068
0.0301341
0.0300412
0.0299288
0.0297907
0.0296284
0.0294336
0.0292053
0.0289357
0.0286245
0.0282619
0.0278453
0.0273687
0.0268251
0.0262102