/*--------------------------------*- C++ -*----------------------------------*\
  =========                 |
  \\      /  F ield         | OpenFOAM: The Open Source CFD Toolbox
   \\    /   O peration     | Website:  https://openfoam.org
    \\  /    A nd           | Version:  6.0
     \\/     M anipulation  |
\*---------------------------------------------------------------------------*/
FoamFile
{
    version     2.0;
    format      ascii;
    class       surfaceScalarField;
    location    "5";
    object      phi;
}
// * * * * * * * * * * * * * * * * * * * * * * * * * * * * * * * * * * * * * //

dimensions      [0 3 -1 0 0 0 0];

internalField   nonuniform List<scalar> 
123526
(
2.79064e-05
2.33206e-05
-2.74902e-05
2.8336e-05
2.52107e-05
2.88082e-05
2.72539e-05
2.93102e-05
2.94624e-05
2.9859e-05
3.18494e-05
3.04448e-05
3.44293e-05
3.10836e-05
3.72174e-05
3.17674e-05
4.02304e-05
3.2514e-05
4.34855e-05
3.33145e-05
4.70033e-05
3.41872e-05
5.08051e-05
3.51224e-05
5.49128e-05
3.61422e-05
5.93507e-05
3.72379e-05
6.41426e-05
3.84352e-05
6.9318e-05
3.972e-05
7.49108e-05
4.11184e-05
8.09506e-05
4.2627e-05
8.74662e-05
4.42702e-05
9.45029e-05
4.60377e-05
0.000102102
4.79629e-05
0.000110296
5.00419e-05
0.000119136
5.22955e-05
0.000128678
5.47364e-05
0.000138953
5.73817e-05
0.000150039
6.02398e-05
0.000161978
6.33404e-05
0.000174831
6.66868e-05
0.000188669
7.03146e-05
0.000203543
7.42283e-05
0.000219535
7.84642e-05
0.000236696
8.30366e-05
0.000255107
8.79785e-05
0.000274821
9.33158e-05
0.000295907
9.9068e-05
0.00031842
0.00010527
0.000342396
0.000111947
0.000367882
0.000119133
0.00039488
0.000126862
0.000423377
0.000135162
0.000453331
0.000144064
0.000484643
0.000153598
0.00051716
0.000163785
0.000550657
0.000174641
0.000584811
0.000186171
0.000619182
0.00019837
0.000653184
0.000211214
0.00068605
0.000224659
0.000716791
0.000238638
0.000744142
0.000253049
0.0007665
0.000267762
0.000781848
0.000282585
0.000787671
0.000297296
0.000780828
0.000311568
0.000757561
0.000325008
0.000713287
0.000337106
0.000642602
0.000347241
0.000539111
0.000354369
0.000395595
0.000359239
0.000200512
-5.00802e-05
0.000366245
2.72483e-05
2.29341e-05
-2.68431e-05
2.76678e-05
2.47926e-05
2.8129e-05
2.68017e-05
2.86197e-05
2.89734e-05
2.91562e-05
3.13205e-05
2.97294e-05
3.38571e-05
3.03546e-05
3.65985e-05
3.10244e-05
3.95609e-05
3.17554e-05
4.27603e-05
3.25397e-05
4.62183e-05
3.33941e-05
4.99563e-05
3.43104e-05
5.3995e-05
3.53086e-05
5.83583e-05
3.6382e-05
6.30674e-05
3.75533e-05
6.81525e-05
3.88116e-05
7.36509e-05
4.01793e-05
7.95887e-05
4.16565e-05
8.5988e-05
4.32633e-05
9.29016e-05
4.49938e-05
0.000100371
4.68766e-05
0.000108418
4.89124e-05
0.000117101
5.11171e-05
0.000126479
5.35083e-05
0.000136564
5.60979e-05
0.000147455
5.88999e-05
0.000159178
6.19382e-05
0.000171798
6.52221e-05
0.000185388
6.87816e-05
0.000199988
7.26269e-05
0.000215693
7.67895e-05
0.000232536
8.1287e-05
0.000250612
8.61532e-05
0.000269963
9.14108e-05
0.000290659
9.70822e-05
0.000312758
0.000103201
0.000336284
0.000109792
0.000361298
0.000116889
0.000387789
0.000124524
0.000415747
0.000132725
0.000445136
0.000141519
0.000475854
0.000150934
0.000507749
0.000160989
0.000540605
0.000171695
0.000574106
0.000183057
0.00060782
0.000195067
0.000641174
0.000207698
0.000673416
0.000220909
0.000703575
0.000234632
0.00073041
0.00024877
0.000752349
0.000263196
0.00076741
0.000277724
0.000773122
0.000292141
0.000766421
0.000306125
0.000743605
0.000319294
0.000700177
0.00033114
0.000630825
0.000341055
0.000529285
0.000348112
0.000388653
0.000352127
0.00019671
-5.25226e-05
0.000354902
2.70153e-05
2.25533e-05
-2.66162e-05
2.74283e-05
2.43812e-05
2.7881e-05
2.63576e-05
2.83623e-05
2.84938e-05
2.88877e-05
3.08024e-05
2.94488e-05
3.32973e-05
3.006e-05
3.59934e-05
3.07149e-05
3.89066e-05
3.14289e-05
4.20519e-05
3.21952e-05
4.54518e-05
3.30297e-05
4.91275e-05
3.39249e-05
5.30988e-05
3.48999e-05
5.73893e-05
3.59487e-05
6.20173e-05
3.70933e-05
6.7014e-05
3.83234e-05
7.24197e-05
3.96606e-05
7.82573e-05
4.11056e-05
8.45423e-05
4.26777e-05
9.13349e-05
4.43717e-05
9.86769e-05
4.62153e-05
0.000106579
4.82098e-05
0.000115107
5.03703e-05
0.000124323
5.2715e-05
0.00013422
5.52549e-05
0.000144919
5.80048e-05
0.00015643
6.09873e-05
0.00016882
6.4213e-05
0.000182166
6.77102e-05
0.000196494
7.14905e-05
0.000211916
7.55836e-05
0.000228445
8.0009e-05
0.000246191
8.47973e-05
0.000265181
8.99738e-05
0.000285494
9.55583e-05
0.000307183
0.000101585
0.000330265
0.000108078
0.000354811
0.000115068
0.000380804
0.000122589
0.000408232
0.000130665
0.000437065
0.000139322
0.0004672
0.000148586
0.000498487
0.000158474
0.000530718
0.000168997
0.000563583
0.000180155
0.000596658
0.000191942
0.000629382
0.000204332
0.000661019
0.000217284
0.000690615
0.000230733
0.000716954
0.000244584
0.000738488
0.000258716
0.000753275
0.000272945
0.000758888
0.000287069
0.00075232
0.000300768
0.000729922
0.00031367
0.000687306
0.000325278
0.000619244
0.000334997
0.000519601
0.000342043
0.000381642
0.000345904
0.000192881
-5.38379e-05
0.000347261
2.68764e-05
2.21778e-05
-2.64839e-05
2.72829e-05
2.3976e-05
2.77281e-05
2.59206e-05
2.82013e-05
2.80222e-05
2.87176e-05
3.02932e-05
2.92688e-05
3.27472e-05
2.98689e-05
3.5399e-05
3.05117e-05
3.82641e-05
3.12123e-05
4.13565e-05
3.19641e-05
4.46994e-05
3.27823e-05
4.83142e-05
3.36602e-05
5.22196e-05
3.46159e-05
5.64386e-05
3.56444e-05
6.09872e-05
3.67664e-05
6.58971e-05
3.79727e-05
7.1212e-05
3.92839e-05
7.69511e-05
4.07014e-05
8.31239e-05
4.22435e-05
8.97975e-05
4.39059e-05
9.70142e-05
4.57151e-05
0.000104775
4.76731e-05
0.000113149
4.97944e-05
0.000122206
5.20971e-05
0.000131919
5.45919e-05
0.000142429
5.72937e-05
0.000153731
6.02244e-05
0.000165893
6.33948e-05
0.000178999
6.68326e-05
0.00019306
7.05494e-05
0.000208202
7.45742e-05
0.000224422
7.89255e-05
0.000241842
8.36357e-05
0.000260479
8.87258e-05
0.000280412
9.42181e-05
0.000301699
0.000100145
0.000324344
0.000106529
0.000348433
0.000113402
0.000373936
0.000120795
0.000400844
0.000128731
0.000429135
0.000137235
0.000458702
0.000146333
0.000489396
0.000156038
0.000521019
0.000166362
0.000553266
0.000177307
0.000585722
0.000188863
0.000617836
0.000201006
0.000648885
0.000213697
0.000677936
0.000226873
0.000703789
0.000240442
0.00072493
0.000254285
0.000739446
0.000268224
0.000744958
0.000282062
0.00073852
0.000295486
0.000716551
0.000308131
0.000674737
0.000319511
0.000607952
0.000329047
0.000510174
0.000336045
0.000374783
0.000339828
0.000189335
-5.40534e-05
0.000340427
2.67079e-05
2.18097e-05
-2.6321e-05
2.71076e-05
2.35789e-05
2.75444e-05
2.54922e-05
2.80094e-05
2.75597e-05
2.8516e-05
2.97937e-05
2.90575e-05
3.22076e-05
2.96464e-05
3.48159e-05
3.0278e-05
3.76337e-05
3.09657e-05
4.06741e-05
3.17044e-05
4.3961e-05
3.25078e-05
4.75159e-05
3.33705e-05
5.13565e-05
3.43092e-05
5.55053e-05
3.53198e-05
5.99758e-05
3.6422e-05
6.48005e-05
3.76073e-05
7.00259e-05
3.88955e-05
7.56682e-05
4.02883e-05
8.17306e-05
4.18035e-05
8.82872e-05
4.3437e-05
9.53806e-05
4.52149e-05
0.000103001
4.71392e-05
0.000111225
4.92241e-05
0.000120125
5.14875e-05
0.000129656
5.39399e-05
0.00013998
5.6596e-05
0.000151076
5.94772e-05
0.000163015
6.25944e-05
0.000175884
6.59743e-05
0.000189683
6.96287e-05
0.00020455
7.35858e-05
0.000220466
7.78646e-05
0.000237567
8.24941e-05
0.000255855
8.74988e-05
0.000275417
9.28971e-05
0.000296308
9.87221e-05
0.000318525
0.000104995
0.000342164
0.000111748
0.000367188
0.000119009
0.000393588
0.000126802
0.000421346
0.000135151
0.000450356
0.000144078
0.00048047
0.000153601
0.000511498
0.000163726
0.00054314
0.000174457
0.000574989
0.000185786
0.000606505
0.000197688
0.000636979
0.000210125
0.000665493
0.000223037
0.000690873
0.000236334
0.000711626
0.0002499
0.00072588
0.00026356
0.000731293
0.000277123
0.000724976
0.000290283
0.000703405
0.000302681
0.000662364
0.000313843
0.000596808
0.000323203
0.000500838
0.000330114
0.00036789
0.000333819
0.000185643
-5.4246e-05
0.000334013
2.64826e-05
2.14485e-05
-2.61048e-05
2.68742e-05
2.3189e-05
2.73028e-05
2.50714e-05
2.77592e-05
2.71053e-05
2.82566e-05
2.93027e-05
2.87887e-05
3.1677e-05
2.93676e-05
3.42423e-05
2.99884e-05
3.70135e-05
3.06646e-05
4.00026e-05
3.1391e-05
4.32344e-05
3.2181e-05
4.67302e-05
3.30294e-05
5.05069e-05
3.39526e-05
5.45866e-05
3.49467e-05
5.89802e-05
3.60306e-05
6.3721e-05
3.71967e-05
6.88585e-05
3.84637e-05
7.44056e-05
3.9834e-05
8.03596e-05
4.13243e-05
8.68011e-05
4.29314e-05
9.37733e-05
4.46801e-05
0.000101256
4.6573e-05
0.000109333
4.86236e-05
0.000118078
5.08499e-05
0.000127431
5.32618e-05
0.000137572
5.5874e-05
0.000148466
5.87074e-05
0.000160185
6.17727e-05
0.000172822
6.50963e-05
0.000186362
6.86895e-05
0.00020096
7.25801e-05
0.000216577
7.67857e-05
0.000233363
8.13375e-05
0.00025131
8.62551e-05
0.000270507
9.156e-05
0.000291011
9.72829e-05
0.000312807
0.000103445
0.000336007
0.000110077
0.000360561
0.000117206
0.000386462
0.000124856
0.000413701
0.000133049
0.000442168
0.000141809
0.000471716
0.000151149
0.000502164
0.00016108
0.000533218
0.000171602
0.000564476
0.000182709
0.00059541
0.000194377
0.000625324
0.000206569
0.000653317
0.000219226
0.000678233
0.000232262
0.000698609
0.000245561
0.000712602
0.000258954
0.000717917
0.000272253
0.00071172
0.000285159
0.000690557
0.00029732
0.000650281
0.00030827
0.000585948
0.000317459
0.00049176
0.000324262
0.00036123
0.000327886
0.000182257
-5.38073e-05
0.000327844
2.61965e-05
2.10945e-05
-2.58251e-05
2.65813e-05
2.28067e-05
2.7002e-05
2.46585e-05
2.74505e-05
2.66592e-05
2.79391e-05
2.88206e-05
2.84623e-05
3.11558e-05
2.90311e-05
3.36787e-05
2.9642e-05
3.64039e-05
3.03069e-05
3.93424e-05
3.10219e-05
4.25198e-05
3.17993e-05
4.59575e-05
3.26347e-05
4.96713e-05
3.35433e-05
5.36829e-05
3.45222e-05
5.80008e-05
3.55892e-05
6.2659e-05
3.67372e-05
6.77099e-05
3.79843e-05
7.31633e-05
3.93331e-05
7.90105e-05
4.07999e-05
8.53388e-05
4.23816e-05
9.21916e-05
4.41024e-05
9.95396e-05
4.59651e-05
0.000107471
4.79827e-05
0.000116064
5.0173e-05
0.000125242
5.25457e-05
0.000135203
5.51152e-05
0.000145898
5.79021e-05
0.000157401
6.09167e-05
0.00016981
6.4185e-05
0.000183097
6.77179e-05
0.000197429
7.15426e-05
0.000212753
7.56773e-05
0.000229231
8.01495e-05
0.000246843
8.49827e-05
0.000265683
9.01944e-05
0.000285806
9.58159e-05
0.000307191
0.000101868
0.000329959
0.000108379
0.000354053
0.000115378
0.000379467
0.000122886
0.000406196
0.000130926
0.00043413
0.000139521
0.000463123
0.000148683
0.000493002
0.000158423
0.000523477
0.000168742
0.000554155
0.000179633
0.000584515
0.000191075
0.000613877
0.000203031
0.000641355
0.000215443
0.000665814
0.000228227
0.000685816
0.000241271
0.000699553
0.000254407
0.00070477
0.000267452
0.000698687
0.000280112
0.000677903
0.000292044
0.000638365
0.000302791
0.000575208
0.000311813
0.000482749
0.000318497
0.000354547
0.000322041
0.000178702
-5.36555e-05
0.000321848
2.5857e-05
2.07459e-05
-2.54938e-05
2.62348e-05
2.24302e-05
2.66484e-05
2.42519e-05
2.70894e-05
2.62198e-05
2.75702e-05
2.83456e-05
2.80851e-05
3.06423e-05
2.86451e-05
3.31233e-05
2.92465e-05
3.58032e-05
2.99011e-05
3.86919e-05
3.0605e-05
4.18156e-05
3.13702e-05
4.5196e-05
3.21927e-05
4.88477e-05
3.3087e-05
5.27923e-05
3.40508e-05
5.70356e-05
3.5101e-05
6.16125e-05
3.62314e-05
6.65782e-05
3.7459e-05
7.19395e-05
3.87871e-05
7.76817e-05
4.02308e-05
8.38987e-05
4.1788e-05
9.06344e-05
4.34816e-05
9.78496e-05
4.5315e-05
0.000105638
4.73003e-05
0.000114083
4.94555e-05
0.000123088
5.17898e-05
0.000132872
5.43174e-05
0.000143372
5.70584e-05
0.000154663
6.00231e-05
0.000166847
6.32368e-05
0.000179886
6.67102e-05
0.000193958
7.04701e-05
0.000208995
7.45331e-05
0.00022517
7.89293e-05
0.000242453
8.3677e-05
0.000260941
8.8797e-05
0.000280693
9.43183e-05
0.000301674
0.000100261
0.00032402
0.000106654
0.000347663
0.000113525
0.0003726
0.000120894
0.000398831
0.000128784
0.000426244
0.000137216
0.000454696
0.000146205
0.00048402
0.000155759
0.000513931
0.000165881
0.000544042
0.000176565
0.000573844
0.000187787
0.000602668
0.000199515
0.000629643
0.000211691
0.000653656
0.000224234
0.000673294
0.000237031
0.00068678
0.00024992
0.000691903
0.000262719
0.000685931
0.000275144
0.000665538
0.000286854
0.000626733
0.000297403
0.000564749
0.000306261
0.000473999
0.000312822
0.000348128
0.000316289
0.000175471
-5.29651e-05
0.000315994
2.54844e-05
2.04042e-05
-2.51247e-05
2.58568e-05
2.20611e-05
2.62634e-05
2.38532e-05
2.66975e-05
2.57889e-05
2.71698e-05
2.78797e-05
2.76763e-05
3.01384e-05
2.82265e-05
3.25782e-05
2.8818e-05
3.52135e-05
2.94615e-05
3.8053e-05
3.01542e-05
4.11239e-05
3.09068e-05
4.44477e-05
3.17164e-05
4.80384e-05
3.25963e-05
5.19169e-05
3.35451e-05
5.60868e-05
3.45786e-05
6.05836e-05
3.56913e-05
6.54654e-05
3.68994e-05
7.07358e-05
3.82065e-05
7.63746e-05
3.96273e-05
8.2482e-05
4.11596e-05
8.91023e-05
4.28261e-05
9.61868e-05
4.463e-05
0.000103834
4.65832e-05
0.000112133
4.87034e-05
0.000120968
5.09995e-05
0.000130579
5.34855e-05
0.000140888
5.61811e-05
0.000151971
5.90963e-05
0.000163934
6.22558e-05
0.000176729
6.56703e-05
0.000190545
6.93656e-05
0.0002053
7.33594e-05
0.000221179
7.76776e-05
0.000238139
8.23428e-05
0.000256284
8.73717e-05
0.00027567
9.27944e-05
0.000296256
9.86301e-05
0.000318187
0.000104907
0.000341389
0.000111652
0.000365858
0.000118884
0.000391601
0.000126627
0.000418503
0.000134902
0.000446422
0.000143722
0.000475199
0.000153096
0.000504554
0.000163027
0.000534107
0.000173509
0.000563358
0.00018452
0.00059165
0.000196028
0.000618128
0.000207976
0.000641699
0.000220284
0.000660975
0.000232844
0.000674211
0.000245494
0.000679236
0.000258056
0.00067337
0.000270252
0.000653341
0.000281747
0.000615243
0.000292104
0.000554389
0.000300803
0.000465296
0.000307242
0.00034167
0.000310631
0.000172044
-5.26916e-05
0.000310263
2.50878e-05
2.00678e-05
-2.47367e-05
2.54531e-05
2.16976e-05
2.58524e-05
2.34605e-05
2.62788e-05
2.53645e-05
2.67431e-05
2.74209e-05
2.7241e-05
2.96421e-05
2.77823e-05
3.20414e-05
2.8364e-05
3.46326e-05
2.8997e-05
3.74237e-05
2.96782e-05
4.04426e-05
3.04184e-05
4.37108e-05
3.12147e-05
4.72412e-05
3.20801e-05
5.10547e-05
3.30134e-05
5.51522e-05
3.40299e-05
5.95703e-05
3.51247e-05
6.43695e-05
3.63132e-05
6.95507e-05
3.75994e-05
7.50878e-05
3.8997e-05
8.10876e-05
4.05048e-05
8.75945e-05
4.21441e-05
9.45507e-05
4.39187e-05
0.00010206
4.58399e-05
0.000110215
4.79252e-05
0.000118884
5.01832e-05
0.000128325
5.26278e-05
0.000138445
5.5278e-05
0.000149323
5.81439e-05
0.000161071
6.12497e-05
0.000173625
6.46057e-05
0.000187191
6.82375e-05
0.000201669
7.21609e-05
0.000217256
7.64048e-05
0.000233901
8.09865e-05
0.000251708
8.59262e-05
0.000270736
9.12516e-05
0.000290934
9.69819e-05
0.00031246
0.000103145
0.000335229
0.000109766
0.00035924
0.000116865
0.000384505
0.000124465
0.000410907
0.000132586
0.000438306
0.000141241
0.00046655
0.000150441
0.000495363
0.000160187
0.000524371
0.000170473
0.000553084
0.00018128
0.000580857
0.000192574
0.000606851
0.000204302
0.000629991
0.000216384
0.000648915
0.000228713
0.000661907
0.000241132
0.000666839
0.000253464
0.00066108
0.000265438
0.000641424
0.000276725
0.00060403
0.000286894
0.000544305
0.000295437
0.000456857
0.000301754
0.000335486
0.00030507
0.000168951
-5.18879e-05
0.000304649
2.46805e-05
1.97379e-05
-2.43345e-05
2.50396e-05
2.13413e-05
2.54315e-05
2.30756e-05
2.58504e-05
2.49484e-05
2.63062e-05
2.69709e-05
2.67953e-05
2.91554e-05
2.73265e-05
3.15147e-05
2.78981e-05
3.40627e-05
2.85198e-05
3.68062e-05
2.91895e-05
3.97739e-05
2.99169e-05
4.29874e-05
3.07e-05
4.64586e-05
3.15507e-05
5.02081e-05
3.24686e-05
5.42345e-05
3.34681e-05
5.8575e-05
3.45447e-05
6.3293e-05
3.57132e-05
6.83862e-05
3.69778e-05
7.38234e-05
3.8352e-05
7.97171e-05
3.98345e-05
8.61124e-05
4.14463e-05
9.29423e-05
4.31911e-05
0.000100316
4.50799e-05
0.000108329
4.71301e-05
0.000116835
4.93498e-05
0.000126108
5.1753e-05
0.000136043
5.4358e-05
0.000146721
5.71748e-05
0.000158256
6.0227e-05
0.000170575
6.35249e-05
0.000183895
6.70932e-05
0.000198102
7.09488e-05
0.000213403
7.51162e-05
0.000229737
7.96177e-05
0.000247214
8.44687e-05
0.00026589
8.96985e-05
0.000285708
9.53253e-05
0.000306836
0.000101376
0.000329181
0.000107876
0.000352742
0.000114846
0.000377538
0.000122306
0.000403448
0.000130276
0.000430336
0.000138772
0.000458053
0.000147801
0.000486331
0.000157367
0.000514801
0.000167464
0.000542982
0.000178072
0.000570241
0.000189159
0.000595754
0.000200673
0.000618466
0.000212535
0.000637038
0.000224641
0.000649789
0.000236835
0.000654624
0.000248944
0.000648965
0.000260702
0.000629659
0.000271785
0.000592944
0.000281772
0.000534305
0.000290162
0.00044845
0.000296361
0.000329251
0.000299605
0.000165648
-5.15647e-05
0.000299141
2.42651e-05
1.9413e-05
-2.39279e-05
2.46171e-05
2.09904e-05
2.5002e-05
2.26965e-05
2.54134e-05
2.45386e-05
2.58612e-05
2.65278e-05
2.63419e-05
2.86762e-05
2.68642e-05
3.09963e-05
2.74259e-05
3.35017e-05
2.8037e-05
3.61984e-05
2.86949e-05
3.91159e-05
2.94096e-05
4.22755e-05
3.01787e-05
4.56885e-05
3.10145e-05
4.9375e-05
3.19163e-05
5.33316e-05
3.28982e-05
5.75958e-05
3.39562e-05
6.22339e-05
3.51044e-05
6.72409e-05
3.63475e-05
7.25798e-05
3.76981e-05
7.83695e-05
3.91554e-05
8.46553e-05
4.07395e-05
9.13612e-05
4.24546e-05
9.86017e-05
4.4311e-05
0.000106476
4.6326e-05
0.000114821
4.85075e-05
0.000123929
5.08692e-05
0.000133683
5.34291e-05
0.000144164
5.61969e-05
0.00015549
5.91959e-05
0.000167578
6.2436e-05
0.000180657
6.59418e-05
0.000194597
6.97283e-05
0.000209617
7.38233e-05
0.000225648
7.82432e-05
0.000242799
8.30076e-05
0.000261131
8.81432e-05
0.000280576
9.36682e-05
0.000301313
9.96091e-05
0.000323242
0.000105991
0.000346363
0.000112833
0.000370699
0.000120156
0.000396129
0.000127981
0.000422515
0.00013632
0.00044972
0.000145184
0.000477475
0.000154574
0.00050542
0.000164486
0.000533083
0.000174901
0.000559841
0.000185787
0.000584886
0.000197093
0.000607181
0.000208742
0.000625412
0.000220629
0.000637927
0.000232605
0.000642672
0.000244497
0.000637114
0.000256045
0.000618167
0.000266929
0.000582131
0.000276738
0.000524578
0.000284978
0.00044031
0.000291061
0.000323297
0.000294235
0.000162686
-5.07036e-05
0.000293741
2.38516e-05
1.90954e-05
-2.35167e-05
2.41986e-05
2.06473e-05
2.45768e-05
2.23257e-05
2.49812e-05
2.41378e-05
2.54207e-05
2.60944e-05
2.58926e-05
2.82072e-05
2.64047e-05
3.04889e-05
2.69562e-05
3.29526e-05
2.75554e-05
3.56033e-05
2.82015e-05
3.84713e-05
2.89029e-05
4.1578e-05
2.96585e-05
4.49339e-05
3.0479e-05
4.85585e-05
3.13648e-05
5.24463e-05
3.23291e-05
5.66356e-05
3.33684e-05
6.11951e-05
3.44961e-05
6.6117e-05
3.57171e-05
7.13592e-05
3.70437e-05
7.70464e-05
3.84752e-05
8.32242e-05
4.00314e-05
8.98081e-05
4.17163e-05
9.69175e-05
4.35401e-05
0.000104655
4.55198e-05
0.000112842
4.7663e-05
0.000121789
4.99832e-05
0.000131364
5.24981e-05
0.000141651
5.52173e-05
0.000152773
5.81634e-05
0.000164634
6.13461e-05
0.000177476
6.47896e-05
0.000191154
6.85096e-05
0.000205899
7.25298e-05
0.00022163
7.68716e-05
0.000238464
8.15499e-05
0.000256458
8.65928e-05
0.000275536
9.20179e-05
0.000295891
9.7851e-05
0.000317411
0.000104117
0.000340099
0.000110834
0.000363983
0.000118023
0.00038894
0.000125705
0.000414833
0.000133892
0.000441531
0.000142594
0.00046877
0.000151814
0.000496196
0.000161546
0.000523345
0.000171772
0.000549606
0.000182462
0.000574185
0.000193565
0.000596066
0.000205005
0.000613956
0.000216681
0.000626235
0.000228443
0.000630884
0.000240122
0.000625422
0.000251465
0.000606812
0.000262156
0.000571429
0.00027179
0.000514923
0.000279884
0.000432188
0.000285854
0.000317276
0.00028896
0.000159498
-5.0366e-05
0.000288439
2.34371e-05
1.87825e-05
-2.31113e-05
2.37769e-05
2.03093e-05
2.4148e-05
2.19606e-05
2.45449e-05
2.37431e-05
2.49765e-05
2.56676e-05
2.544e-05
2.77456e-05
2.59433e-05
2.99895e-05
2.64849e-05
3.24121e-05
2.70736e-05
3.50177e-05
2.77079e-05
3.78371e-05
2.83966e-05
4.08919e-05
2.91383e-05
4.41915e-05
2.99439e-05
4.77553e-05
3.08136e-05
5.15755e-05
3.17603e-05
5.56912e-05
3.2781e-05
6.01736e-05
3.38884e-05
6.50122e-05
3.50878e-05
7.01595e-05
3.63907e-05
7.57462e-05
3.7797e-05
8.18182e-05
3.93254e-05
8.82824e-05
4.09806e-05
9.5263e-05
4.27719e-05
0.000102866
4.47165e-05
0.000110899
4.68216e-05
0.000119687
4.91006e-05
0.000129087
5.15708e-05
0.000139184
5.42415e-05
0.000150104
5.71351e-05
0.000161743
6.02611e-05
0.000174351
6.36431e-05
0.000187772
6.72956e-05
0.000202247
7.12451e-05
0.000217686
7.55075e-05
0.000234206
8.01017e-05
0.000251868
8.50533e-05
0.000270587
9.03801e-05
0.000290566
9.61073e-05
0.000311686
0.000102259
0.000333949
0.000108854
0.00035739
0.000115913
0.000381884
0.000123455
0.000407296
0.000131493
0.000433498
0.000140037
0.000460234
0.00014909
0.000487153
0.000158646
0.000513801
0.000168688
0.000539578
0.000179187
0.000563705
0.000190091
0.000585182
0.000201328
0.000602743
0.000212796
0.000614793
0.000224349
0.000619355
0.000235822
0.000613989
0.000246963
0.000595723
0.000257465
0.000560994
0.000266929
0.000505536
0.000274878
0.000424332
0.000280737
0.000311537
0.000283779
0.000156653
-4.94822e-05
0.00028324
2.3029e-05
1.84762e-05
-2.27076e-05
2.33629e-05
1.99784e-05
2.37269e-05
2.1603e-05
2.41164e-05
2.33566e-05
2.45397e-05
2.52495e-05
2.49945e-05
2.72934e-05
2.54879e-05
2.95002e-05
2.60195e-05
3.18826e-05
2.65969e-05
3.44439e-05
2.72198e-05
3.72157e-05
2.78958e-05
4.02195e-05
2.86243e-05
4.3464e-05
2.94152e-05
4.69681e-05
3.02693e-05
5.0722e-05
3.11989e-05
5.47654e-05
3.22011e-05
5.91719e-05
3.32883e-05
6.39285e-05
3.44658e-05
6.89825e-05
3.5745e-05
7.44703e-05
3.71257e-05
8.04381e-05
3.86264e-05
8.67845e-05
4.02516e-05
9.36386e-05
4.20106e-05
0.00010111
4.39202e-05
0.00010899
4.59873e-05
0.000117622
4.82254e-05
0.00012685
5.06512e-05
0.00013676
5.32739e-05
0.000147483
5.61155e-05
0.000158903
5.91852e-05
0.000171283
6.25062e-05
0.000184452
6.60938e-05
0.000198662
6.99704e-05
0.000213811
7.41568e-05
0.000230025
7.86675e-05
0.000247361
8.35294e-05
0.000265728
8.87596e-05
0.000285338
9.43829e-05
0.000306064
0.000100423
0.000327911
0.000106898
0.000350916
0.000113829
0.000374954
0.000121234
0.00039989
0.000129126
0.000425604
0.000137516
0.000451841
0.000146405
0.000478258
0.000155789
0.000504409
0.000165652
0.000529706
0.000175962
0.000553383
0.000186672
0.000574458
0.00019771
0.000591688
0.000208975
0.000603508
0.000220324
0.000607977
0.000231594
0.000602702
0.000242539
0.000584761
0.000252855
0.000550661
0.000262152
0.000496211
0.00026996
0.000416485
0.000275712
0.000305721
0.00027869
0.000153574
-4.91483e-05
0.000278136
2.26231e-05
1.81744e-05
-2.2311e-05
2.29501e-05
1.96524e-05
2.33072e-05
2.12507e-05
2.36895e-05
2.29758e-05
2.41053e-05
2.48378e-05
2.45521e-05
2.68481e-05
2.50371e-05
2.90185e-05
2.55592e-05
3.13613e-05
2.61265e-05
3.38792e-05
2.6738e-05
3.66042e-05
2.74016e-05
3.95579e-05
2.81165e-05
4.27482e-05
2.88928e-05
4.61938e-05
2.9731e-05
4.98826e-05
3.06433e-05
5.38551e-05
3.16271e-05
5.81873e-05
3.26943e-05
6.28634e-05
3.38506e-05
6.7826e-05
3.51064e-05
7.32169e-05
3.64621e-05
7.90827e-05
3.79356e-05
8.53136e-05
3.95314e-05
9.20435e-05
4.12584e-05
9.93853e-05
4.31334e-05
0.000107116
4.51631e-05
0.000115595
4.73606e-05
0.000124654
4.97424e-05
0.00013438
5.23177e-05
0.00014491
5.51078e-05
0.000156115
5.8122e-05
0.00016827
6.13831e-05
0.000181191
6.49047e-05
0.00019514
6.87126e-05
0.000210008
7.28218e-05
0.000225919
7.7251e-05
0.000242936
8.20247e-05
0.000260957
8.71598e-05
0.000280204
9.2681e-05
0.000300545
9.86114e-05
0.000321982
0.000104969
0.000344561
0.000111774
0.000368152
0.000119045
0.000392623
0.000126795
0.000417859
0.000135033
0.00044361
0.000143762
0.000469538
0.000152978
0.000495206
0.000162664
0.000520034
0.000172791
0.000543273
0.000183311
0.000563958
0.000194153
0.000580869
0.000205219
0.000592468
0.000216369
0.000596852
0.000227439
0.00059167
0.000238192
0.000574061
0.000248326
0.000540592
0.000257459
0.000487153
0.000265129
0.000408905
0.000270775
0.00030019
0.000273693
0.00015084
-4.82641e-05
0.00027313
2.22272e-05
1.78797e-05
-2.19162e-05
2.25496e-05
1.93339e-05
2.29005e-05
2.09066e-05
2.32763e-05
2.26038e-05
2.36841e-05
2.44354e-05
2.41225e-05
2.64128e-05
2.45978e-05
2.85475e-05
2.511e-05
3.08516e-05
2.5666e-05
3.33268e-05
2.62662e-05
3.60059e-05
2.69171e-05
3.89105e-05
2.76189e-05
4.20477e-05
2.83806e-05
4.54357e-05
2.92035e-05
4.90607e-05
3.00988e-05
5.29633e-05
3.10644e-05
5.72224e-05
3.21118e-05
6.18194e-05
3.32465e-05
6.66919e-05
3.4479e-05
7.19874e-05
3.58096e-05
7.77528e-05
3.72558e-05
8.38701e-05
3.88222e-05
9.04779e-05
4.05176e-05
9.76925e-05
4.23583e-05
0.000105276
4.43509e-05
0.000113605
4.65083e-05
0.000122498
4.88467e-05
0.000132044
5.13751e-05
0.000142383
5.41144e-05
0.000153377
5.70737e-05
0.000165312
6.02753e-05
0.00017799
6.37339e-05
0.000191684
6.74708e-05
0.000206272
7.15065e-05
0.00022189
7.58547e-05
0.000238591
8.05416e-05
0.000256272
8.55835e-05
0.000275164
9.10044e-05
0.000295125
9.68271e-05
0.00031616
0.000103069
0.000338319
0.000109751
0.00036147
0.00011689
0.000385483
0.0001245
0.000410247
0.00013259
0.000435517
0.000141162
0.00046096
0.000150213
0.000486147
0.000159726
0.00051051
0.000169673
0.000533313
0.000180006
0.000553609
0.000190657
0.000570199
0.000201528
0.000581575
0.000212482
0.000585867
0.000223357
0.000580773
0.000233921
0.000563477
0.000243876
0.000530614
0.000252849
0.000478147
0.000260383
0.000401323
0.000265926
0.000294572
0.000268786
0.000147863
-4.79485e-05
0.000268214
2.18342e-05
1.75891e-05
-2.15326e-05
2.21497e-05
1.902e-05
2.24939e-05
2.05674e-05
2.28625e-05
2.22371e-05
2.3263e-05
2.4039e-05
2.36935e-05
2.59841e-05
2.41606e-05
2.80837e-05
2.46636e-05
3.03497e-05
2.521e-05
3.27829e-05
2.5799e-05
3.5417e-05
2.64381e-05
3.82733e-05
2.71267e-05
4.13583e-05
2.78743e-05
4.46898e-05
2.86819e-05
4.8252e-05
2.95606e-05
5.20863e-05
3.05085e-05
5.62737e-05
3.15365e-05
6.07933e-05
3.26507e-05
6.55777e-05
3.38605e-05
7.07797e-05
3.5167e-05
7.64467e-05
3.65867e-05
8.24527e-05
3.81246e-05
8.89408e-05
3.97889e-05
9.60307e-05
4.15959e-05
0.00010347
4.35519e-05
0.000111651
4.56699e-05
0.000120381
4.79654e-05
0.000129751
5.04475e-05
0.000139903
5.31368e-05
0.00015069
5.60421e-05
0.000162408
5.91855e-05
0.000174847
6.258e-05
0.000188289
6.62505e-05
0.000202607
7.02112e-05
0.000217931
7.44806e-05
0.000234326
7.90821e-05
0.000251672
8.40322e-05
0.000270215
8.93545e-05
0.000289804
9.50715e-05
0.000310445
0.000101201
0.000332192
0.000107761
0.000354913
0.000114771
0.000378476
0.000122244
0.000402779
0.000130188
0.00042758
0.000138606
0.00045255
0.000147495
0.000477269
0.000156839
0.00050118
0.000166609
0.00052356
0.000176759
0.000543478
0.000187222
0.000559758
0.000197902
0.000570921
0.000208663
0.000575131
0.000219347
0.000570126
0.000229725
0.000553148
0.000239506
0.000520894
0.00024832
0.000469402
0.000255722
0.000394006
0.000261163
0.000289236
0.000263967
0.000145227
-4.70847e-05
0.000263394
2.1451e-05
1.73048e-05
-2.11531e-05
2.17611e-05
1.87129e-05
2.20987e-05
2.02355e-05
2.24604e-05
2.18783e-05
2.28532e-05
2.3651e-05
2.32755e-05
2.55643e-05
2.37333e-05
2.76295e-05
2.42269e-05
2.98582e-05
2.47627e-05
3.22503e-05
2.53411e-05
3.48402e-05
2.59683e-05
3.76492e-05
2.66448e-05
4.06831e-05
2.73786e-05
4.39592e-05
2.81717e-05
4.74599e-05
2.90343e-05
5.12271e-05
2.99648e-05
5.5344e-05
3.0974e-05
5.97873e-05
3.20674e-05
6.4485e-05
3.32548e-05
6.95951e-05
3.4537e-05
7.51653e-05
3.59304e-05
8.10619e-05
3.74398e-05
8.74323e-05
3.90733e-05
9.43995e-05
4.0847e-05
0.000101698
4.2767e-05
0.000109733
4.48461e-05
0.000118303
4.70995e-05
0.000127499
4.95361e-05
0.000137468
5.2176e-05
0.000148051
5.50282e-05
0.000159557
5.81138e-05
0.000171761
6.14473e-05
0.000184957
6.50489e-05
0.000199006
6.89386e-05
0.000214047
7.31296e-05
0.000230137
7.76472e-05
0.000247157
8.25073e-05
0.000265356
8.77329e-05
0.000284579
9.3346e-05
0.000304832
9.93639e-05
0.000326174
0.000105806
0.00034847
0.000112689
0.000371591
0.000120027
0.000395438
0.000127828
0.000419774
0.000136096
0.000444276
0.000144826
0.000468531
0.000154002
0.000491992
0.000163599
0.000513949
0.000173569
0.00053349
0.000183848
0.00054946
0.000194339
0.000560405
0.000204912
0.000564525
0.000215408
0.000559604
0.000225604
0.000542929
0.000235213
0.000511259
0.000243873
0.000460703
0.000251144
0.000386681
0.000256487
0.000283806
0.000259235
0.000142346
-4.67988e-05
0.000258659
2.10715e-05
1.70245e-05
-2.07828e-05
2.1375e-05
1.841e-05
2.17063e-05
1.99082e-05
2.20613e-05
2.15245e-05
2.24471e-05
2.32684e-05
2.28621e-05
2.51506e-05
2.33123e-05
2.7182e-05
2.37972e-05
2.9374e-05
2.43237e-05
3.17259e-05
2.48915e-05
3.42723e-05
2.55074e-05
3.70349e-05
2.61711e-05
4.00185e-05
2.68914e-05
4.32403e-05
2.76696e-05
4.66806e-05
2.85162e-05
5.03819e-05
2.94296e-05
5.44299e-05
3.042e-05
5.87986e-05
3.14935e-05
6.34114e-05
3.26591e-05
6.84316e-05
3.39179e-05
7.3907e-05
3.52857e-05
7.96963e-05
3.67675e-05
8.59514e-05
3.83709e-05
9.27983e-05
4.0112e-05
9.99575e-05
4.19967e-05
0.000107851
4.40375e-05
0.000116264
4.62494e-05
0.000125289
4.86412e-05
0.000135077
5.12327e-05
0.000145461
5.40325e-05
0.000156758
5.70619e-05
0.000168732
6.03332e-05
0.000181686
6.38707e-05
0.000195473
6.76879e-05
0.000210232
7.18027e-05
0.000226026
7.62378e-05
0.000242723
8.10093e-05
0.000260585
8.61397e-05
0.000279449
9.16509e-05
0.000299322
9.75596e-05
0.000320267
0.000103885
0.000342148
0.000110644
0.000364835
0.000117849
0.000388237
0.00012551
0.00041212
0.000133629
0.000436165
0.000142203
0.000459967
0.000151217
0.000482991
0.000160643
0.000504538
0.000170437
0.000523714
0.000180534
0.000539384
0.000190841
0.000550123
0.000201228
0.000554163
0.00021154
0.000549328
0.000221556
0.00053296
0.000230996
0.000501878
0.000239504
0.000452263
0.000246647
0.000379619
0.000251894
0.00027866
0.00025459
0.000139801
-4.59657e-05
0.000254016
2.07035e-05
1.67509e-05
-2.04149e-05
2.1003e-05
1.81145e-05
2.13287e-05
1.95888e-05
2.16778e-05
2.11792e-05
2.20564e-05
2.2895e-05
2.24636e-05
2.47467e-05
2.29046e-05
2.67449e-05
2.33803e-05
2.8901e-05
2.38964e-05
3.12132e-05
2.44537e-05
3.37171e-05
2.50578e-05
3.64342e-05
2.57095e-05
3.93685e-05
2.64162e-05
4.25369e-05
2.71802e-05
4.59179e-05
2.8011e-05
4.95545e-05
2.89074e-05
5.35346e-05
2.98794e-05
5.78298e-05
3.09328e-05
6.2359e-05
3.20766e-05
6.72906e-05
3.33119e-05
7.26727e-05