/*--------------------------------*- C++ -*----------------------------------*\
  =========                 |
  \\      /  F ield         | OpenFOAM: The Open Source CFD Toolbox
   \\    /   O peration     | Website:  https://openfoam.org
    \\  /    A nd           | Version:  6.0
     \\/     M anipulation  |
\*---------------------------------------------------------------------------*/
FoamFile
{
    version     2.0;
    format      ascii;
    class       volVectorField;
    location    "5";
    object      U;
}
// * * * * * * * * * * * * * * * * * * * * * * * * * * * * * * * * * * * * * //

dimensions      [0 1 -1 0 0 0 0];

internalField   nonuniform List<vector> 
62000
(
(0.996215 -0.0865874 -4.39254e-21)
(0.996208 -0.0866031 3.60675e-21)
(0.996202 -0.0866329 3.64349e-21)
(0.996196 -0.0866748 -1.57217e-20)
(0.996192 -0.0867176 -1.76508e-20)
(0.996188 -0.0867576 6.0176e-20)
(0.996186 -0.0867937 -6.50754e-20)
(0.996184 -0.0868266 3.72457e-20)
(0.996182 -0.0868568 -1.71156e-20)
(0.996181 -0.0868845 -8.58595e-20)
(0.99618 -0.0869102 -1.04132e-20)
(0.996179 -0.0869335 1.16416e-19)
(0.996178 -0.0869551 2.31515e-20)
(0.996178 -0.0869748 -8.0068e-20)
(0.996178 -0.0869926 1.22596e-19)
(0.996177 -0.0870087 -6.41245e-20)
(0.996177 -0.0870226 6.46714e-20)
(0.996177 -0.0870349 -7.51203e-20)
(0.996177 -0.0870448 3.60629e-20)
(0.996177 -0.0870529 -1.09166e-19)
(0.996177 -0.0870585 1.40357e-19)
(0.996176 -0.0870622 3.97587e-20)
(0.996176 -0.0870633 5.596e-20)
(0.996174 -0.0870624 -2.55459e-19)
(0.996173 -0.0870588 9.22824e-20)
(0.996171 -0.0870532 -5.47031e-20)
(0.996169 -0.0870448 4.62518e-22)
(0.996166 -0.0870345 -4.16368e-20)
(0.996161 -0.0870214 1.31444e-19)
(0.996155 -0.0870063 -7.12656e-20)
(0.996147 -0.0869881 1.6895e-19)
(0.996137 -0.0869697 -3.42146e-19)
(0.996124 -0.0869528 3.21313e-20)
(0.996109 -0.0869413 -1.09623e-19)
(0.99609 -0.086934 -3.32748e-20)
(0.996067 -0.0869294 -1.14018e-19)
(0.996038 -0.0869298 -2.88016e-20)
(0.996004 -0.0869394 -3.30067e-20)
(0.995963 -0.0869619 1.09898e-19)
(0.995917 -0.0870009 5.03973e-19)
(0.995867 -0.0870591 -1.22922e-19)
(0.995814 -0.0871383 -6.77377e-19)
(0.995763 -0.0872386 -1.05278e-18)
(0.995718 -0.0873573 5.46006e-19)
(0.995686 -0.0874876 1.74268e-19)
(0.995678 -0.0876187 -6.66913e-19)
(0.995702 -0.0877346 8.11743e-20)
(0.995769 -0.0878148 -2.18964e-19)
(0.995888 -0.0878361 -7.37535e-19)
(0.996064 -0.0877718 -1.16031e-19)
(0.996298 -0.0875976 -5.505e-21)
(0.996584 -0.0872869 1.20001e-19)
(0.996907 -0.0868229 -1.46638e-19)
(0.997257 -0.0861694 -1.0884e-18)
(0.997601 -0.0852888 -3.49846e-19)
(0.997907 -0.0841147 -1.65456e-18)
(0.998115 -0.0825521 1.4645e-19)
(0.998212 -0.0802959 1.79946e-19)
(0.996386 -0.0781584 -6.78193e-19)
(1.01798 -0.0634817 -1.01784e-19)
(0.996361 -0.0861043 -1.17649e-21)
(0.996345 -0.0860908 1.11036e-20)
(0.996339 -0.0860864 4.52988e-21)
(0.996335 -0.0861166 -1.92003e-20)
(0.996332 -0.0861621 7.8509e-21)
(0.99633 -0.0862101 -5.32816e-20)
(0.99633 -0.0862538 4.81046e-20)
(0.996332 -0.0862922 2.73106e-20)
(0.996335 -0.0863253 -5.02891e-20)
(0.996339 -0.0863534 2.21741e-21)
(0.996344 -0.0863769 4.70433e-20)
(0.99635 -0.0863959 3.47218e-24)
(0.996356 -0.0864108 1.29229e-20)
(0.996363 -0.0864217 -1.09814e-19)
(0.99637 -0.0864282 2.16459e-19)
(0.996377 -0.086431 -1.88262e-19)
(0.996384 -0.0864291 8.65956e-20)
(0.996391 -0.0864236 -1.80198e-20)
(0.996398 -0.0864135 -4.78185e-20)
(0.996404 -0.0864 1.29235e-19)
(0.996409 -0.0863821 -2.00781e-19)
(0.996412 -0.0863612 1.14721e-19)
(0.996415 -0.0863367 -1.42193e-19)
(0.996415 -0.0863102 8.40768e-20)
(0.996415 -0.0862814 7.57499e-20)
(0.996411 -0.0862523 -4.90328e-20)
(0.996405 -0.0862229 4.29042e-23)
(0.996396 -0.0861957 5.30179e-20)
(0.996384 -0.0861715 4.33931e-20)
(0.996366 -0.0861526 -8.83426e-20)
(0.996344 -0.0861402 1.75848e-19)
(0.996314 -0.0861385 3.62112e-20)
(0.996278 -0.0861545 1.02356e-19)
(0.996235 -0.0861934 1.2631e-20)
(0.996185 -0.086256 2.8131e-20)
(0.996124 -0.0863434 -3.02244e-20)
(0.996054 -0.0864597 -1.0629e-19)
(0.995975 -0.0866105 -4.82186e-20)
(0.995886 -0.0868002 -2.79997e-19)
(0.995792 -0.0870306 -3.36136e-19)
(0.995694 -0.0873009 2.50316e-19)
(0.995601 -0.0876068 1.77928e-19)
(0.99552 -0.0879389 1.09675e-18)
(0.995464 -0.0882824 4.63729e-20)
(0.995446 -0.0886155 -1.5364e-18)
(0.995484 -0.0889097 5.71821e-19)
(0.995594 -0.0891304 4.25809e-19)
(0.995791 -0.0892381 3.92092e-19)
(0.996089 -0.089192 9.08691e-20)
(0.996493 -0.0889498 3.19602e-20)
(0.996997 -0.0884735 1.40733e-19)
(0.997586 -0.0877262 -1.95787e-19)
(0.998232 -0.0866783 4.88375e-19)
(0.998903 -0.085284 2.17088e-18)
(0.999538 -0.0834858 7.35978e-19)
(1.00006 -0.0812013 4.94785e-19)
(1.00036 -0.078329 1.71507e-18)
(1.00036 -0.0746088 8.56257e-19)
(0.998457 -0.0711954 -1.29716e-18)
(1.00563 -0.0666611 -3.89687e-19)
(0.996486 -0.0871838 -5.67989e-21)
(0.996483 -0.0871504 -7.92703e-22)
(0.996503 -0.0870857 8.6312e-22)
(0.996522 -0.0870728 3.8556e-21)
(0.996539 -0.08709 1.07218e-20)
(0.996554 -0.087119 -1.0018e-20)
(0.996569 -0.0871483 5.23873e-20)
(0.996585 -0.0871732 -2.47015e-20)
(0.996602 -0.087192 -1.30341e-20)
(0.996619 -0.0872048 -7.808e-20)
(0.996637 -0.0872121 6.48782e-20)
(0.996655 -0.0872138 4.64317e-21)
(0.996673 -0.0872106 -1.42374e-20)
(0.996692 -0.0872027 3.7057e-20)
(0.996711 -0.0871899 -6.22048e-20)
(0.99673 -0.0871729 6.00795e-22)
(0.996749 -0.0871509 -2.71537e-20)
(0.996768 -0.0871252 9.57183e-22)
(0.996786 -0.0870948 6.12915e-20)
(0.996804 -0.0870612 -9.0972e-20)
(0.996821 -0.0870237 5.59083e-20)
(0.996837 -0.0869839 2.10419e-19)
(0.996851 -0.0869413 -3.02469e-20)
(0.996864 -0.0868981 -2.8218e-19)
(0.996876 -0.0868542 1.43115e-19)
(0.996885 -0.0868119 -7.37036e-20)
(0.996892 -0.0867721 1.19049e-19)
(0.996896 -0.0867375 -7.21036e-20)
(0.996897 -0.0867097 -1.3911e-19)
(0.996894 -0.0866914 1.39617e-19)
(0.996886 -0.0866846 -9.92098e-20)
(0.996872 -0.0866942 1.34419e-19)
(0.996852 -0.0867281 -3.57955e-19)
(0.996826 -0.086792 3.20798e-19)
(0.996793 -0.0868872 -1.69354e-19)
(0.996753 -0.0870148 7.36412e-20)
(0.996703 -0.087179 4.65332e-20)
(0.996646 -0.087385 3.12439e-21)
(0.996581 -0.0876356 1.32621e-20)
(0.996512 -0.0879304 2.92016e-19)
(0.996441 -0.0882657 -1.35057e-19)
(0.996375 -0.0886332 2.2241e-19)
(0.996322 -0.0890189 -6.70917e-19)
(0.996294 -0.0894028 -3.16079e-19)
(0.996304 -0.0897578 4.30497e-19)
(0.996367 -0.0900508 -9.44237e-19)
(0.996501 -0.090243 1.52453e-19)
(0.99672 -0.0902925 -6.19376e-19)
(0.997035 -0.0901578 6.93555e-19)
(0.997452 -0.0897975 1.23596e-19)
(0.997965 -0.0891759 -6.4452e-21)
(0.998557 -0.0882614 -2.80334e-20)
(0.999201 -0.0870294 -2.77221e-19)
(0.999857 -0.0854457 3.03122e-21)
(1.00046 -0.0834644 1.17151e-18)
(1.00093 -0.0810341 7.84966e-19)
(1.00113 -0.078113 6.15958e-19)
(1.00097 -0.074564 2.05175e-18)
(0.999592 -0.0720562 2.4378e-19)
(1.00286 -0.0694723 -6.20735e-20)
(0.996542 -0.0886705 -5.65129e-21)
(0.996571 -0.0885957 1.70283e-20)
(0.996634 -0.0884706 -2.57236e-21)
(0.996691 -0.0884113 -1.69491e-20)
(0.996737 -0.0883946 2.50532e-20)
(0.996779 -0.0884014 4.2213e-20)
(0.996818 -0.0884161 -5.4224e-20)
(0.996856 -0.0884299 5.73183e-21)
(0.996893 -0.0884391 1.78514e-20)
(0.996929 -0.0884428 3.62215e-20)
(0.996965 -0.0884411 -6.60867e-20)
(0.997 -0.0884341 -1.96819e-20)
(0.997034 -0.0884225 -2.13435e-20)
(0.997068 -0.0884063 9.63497e-20)
(0.997101 -0.0883855 -6.28386e-20)
(0.997134 -0.0883607 1.42387e-19)
(0.997166 -0.088331 -1.69327e-19)
(0.997199 -0.0882981 -2.33175e-20)
(0.997231 -0.0882609 1.6892e-19)
(0.997262 -0.0882208 -5.82022e-20)
(0.997293 -0.0881774 -2.06673e-20)
(0.997324 -0.0881324 -2.12822e-20)
(0.997355 -0.0880853 -1.86251e-19)
(0.997384 -0.0880384 1.0807e-19)
(0.997414 -0.0879916 -4.4747e-20)
(0.997442 -0.0879474 7.42982e-20)
(0.99747 -0.0879066 3.25438e-20)
(0.997496 -0.0878719 1.57912e-19)
(0.997522 -0.0878452 -9.80275e-20)
(0.997545 -0.0878287 -1.23856e-19)
(0.997566 -0.0878246 1.83513e-19)
(0.997583 -0.0878371 -1.48048e-19)
(0.997597 -0.087875 2.67248e-19)
(0.997607 -0.0879432 -1.54256e-19)
(0.997613 -0.088042 6.28499e-20)
(0.997614 -0.0881728 1.06386e-19)
(0.997609 -0.0883384 -4.03567e-20)
(0.997597 -0.0885432 4.85324e-20)
(0.99758 -0.0887893 -1.38636e-20)
(0.997557 -0.0890747 5.1996e-20)
(0.997533 -0.0893943 -2.21096e-19)
(0.99751 -0.0897386 7.14476e-20)
(0.997495 -0.0900919 1.43437e-19)
(0.997497 -0.0904331 2.77739e-19)
(0.997528 -0.0907346 4.65489e-19)
(0.9976 -0.0909633 2.01097e-19)
(0.997727 -0.0910816 4.39379e-19)
(0.997924 -0.0910493 4.1662e-19)
(0.9982 -0.0908277 2.48793e-19)
(0.998562 -0.0903792 -1.27149e-19)
(0.999006 -0.0896721 -4.8817e-20)
(0.999516 -0.0886801 -1.17355e-19)
(1.00007 -0.0873856 -2.93624e-19)
(1.00063 -0.0857639 -1.03477e-18)
(1.00113 -0.0837799 -9.27693e-19)
(1.0015 -0.0814002 -1.58719e-18)
(1.0016 -0.0786094 -3.32196e-18)
(1.00133 -0.0752911 -1.44757e-19)
(1.00044 -0.0732603 1.41801e-18)
(1.00197 -0.0708517 5.89862e-19)
(0.996558 -0.0900524 1.09406e-20)
(0.996622 -0.0899255 -3.59751e-21)
(0.996726 -0.0897569 5.9102e-21)
(0.996816 -0.0896559 -8.22622e-21)
(0.99689 -0.0896052 1.79835e-20)
(0.996956 -0.0895893 -8.802e-21)
(0.997017 -0.0895897 4.51262e-21)
(0.997076 -0.0895943 -6.65538e-20)
(0.997132 -0.0895969 5.46052e-20)
(0.997187 -0.0895956 -1.05698e-19)
(0.99724 -0.08959 1.14042e-19)
(0.997291 -0.0895801 -1.3501e-20)
(0.997341 -0.0895663 -2.86624e-20)
(0.997389 -0.0895489 -1.25345e-20)
(0.997437 -0.0895278 -2.40671e-21)
(0.997483 -0.0895034 -1.21349e-19)
(0.997528 -0.089475 7.31661e-21)
(0.997572 -0.0894439 1.26952e-19)
(0.997616 -0.0894092 -3.94352e-20)
(0.99766 -0.0893722 -3.96327e-20)
(0.997704 -0.0893324 6.72555e-20)
(0.997747 -0.0892916 -3.12225e-20)
(0.997791 -0.089249 1.29327e-19)
(0.997834 -0.0892072 6.60309e-20)
(0.997879 -0.089166 4.70472e-20)
(0.997923 -0.0891276 -1.54696e-19)
(0.997969 -0.0890929 -2.10866e-20)
(0.998015 -0.0890643 -1.1012e-19)
(0.998062 -0.0890436 2.17521e-20)
(0.998109 -0.0890326 -3.28154e-20)
(0.998155 -0.0890332 -1.20969e-20)
(0.998201 -0.0890494 1.00741e-19)
(0.998246 -0.089089 -2.55294e-19)
(0.99829 -0.089157 -7.74328e-21)
(0.998332 -0.0892533 -1.22519e-19)
(0.998372 -0.0893778 -6.1711e-20)
(0.998408 -0.0895325 2.76578e-20)
(0.998441 -0.0897212 -1.65724e-19)
(0.998468 -0.089945 2.4368e-19)
(0.998492 -0.090201 1.22851e-20)
(0.998513 -0.0904834 2.59513e-19)
(0.998533 -0.090782 -1.64779e-19)
(0.998557 -0.0910811 -9.96247e-20)
(0.998591 -0.0913596 -9.99034e-20)
(0.998645 -0.0915908 2.52396e-19)
(0.998728 -0.0917429 3.65121e-19)
(0.998853 -0.0917807 -1.69941e-20)
(0.999031 -0.0916663 1.28076e-20)
(0.999273 -0.0913643 -1.98372e-19)
(0.999585 -0.0908402 2.12735e-19)
(0.999964 -0.0900659 -3.07531e-20)
(1.0004 -0.0890176 5.04679e-20)
(1.00087 -0.0876819 -6.58017e-20)
(1.00134 -0.0860393 -7.72509e-19)
(1.00176 -0.0840582 -1.14438e-20)
(1.00205 -0.0817101 1.2975e-18)
(1.00209 -0.0789784 2.84127e-18)
(1.00177 -0.0757308 -2.68763e-18)
(1.00121 -0.0737669 7.99726e-19)
(1.0018 -0.0714412 -4.10351e-19)
(0.996569 -0.0911634 -4.16487e-21)
(0.99666 -0.0910163 1.65347e-20)
(0.996794 -0.090833 -2.67744e-20)
(0.996907 -0.0907056 1.96346e-20)
(0.997 -0.0906294 1.2442e-20)
(0.997082 -0.0905951 -1.29953e-20)
(0.99716 -0.090584 1.03749e-21)
(0.997233 -0.090582 -9.28199e-21)
(0.997304 -0.0905812 -3.03534e-20)
(0.997373 -0.0905783 5.70776e-20)
(0.997439 -0.0905725 -8.60149e-20)
(0.997504 -0.0905636 7.36967e-20)
(0.997567 -0.0905519 6.25831e-20)
(0.997628 -0.0905378 -9.51079e-20)
(0.997687 -0.090521 -2.96108e-20)
(0.997744 -0.0905021 1.09721e-19)
(0.9978 -0.0904801 -1.28858e-19)
(0.997855 -0.0904565 1.72447e-19)
(0.997909 -0.0904302 -3.33741e-20)
(0.997962 -0.0904023 1.604e-20)
(0.998015 -0.0903724 -2.88818e-20)
(0.998069 -0.0903421 -3.42723e-20)
(0.998122 -0.0903106 -5.97711e-20)
(0.998177 -0.0902802 9.93752e-20)
(0.998232 -0.0902506 -6.73551e-20)
(0.998289 -0.0902239 -6.12931e-20)
(0.998348 -0.0902009 1.23972e-19)
(0.998408 -0.0901835 -1.10816e-19)
(0.99847 -0.0901735 1.73185e-19)
(0.998535 -0.0901721 -9.10229e-20)
(0.998601 -0.0901809 6.48778e-20)
(0.998668 -0.0902029 -1.02958e-19)
(0.998737 -0.0902464 1.07129e-19)
(0.998808 -0.0903154 -9.72231e-21)
(0.99888 -0.0904084 -6.09693e-21)
(0.998951 -0.0905256 -1.98332e-21)
(0.999022 -0.0906673 -3.79638e-20)
(0.999091 -0.0908366 1.37253e-19)
(0.999158 -0.091034 -1.12379e-19)
(0.999222 -0.0912557 -5.43664e-19)
(0.999284 -0.0914956 -2.15181e-19)
(0.999345 -0.0917435 1.68941e-19)
(0.999407 -0.0919837 -1.16474e-19)
(0.999476 -0.092196 -1.7962e-19)
(0.999557 -0.092355 -4.39489e-21)
(0.999659 -0.0924309 3.25522e-19)
(0.999792 -0.0923906 -4.05541e-19)
(0.999965 -0.0921991 -3.34392e-19)
(1.00019 -0.0918237 -1.85776e-19)
(1.00047 -0.0912324 -8.54447e-20)
(1.0008 -0.090399 -9.64633e-20)
(1.00118 -0.0893012 5.31943e-20)
(1.00159 -0.0879271 8.91442e-19)
(1.002 -0.0862592 -2.23725e-19)
(1.00237 -0.0842656 -4.69724e-19)
(1.0026 -0.081916 9.33966e-19)
(1.00262 -0.0791854 -8.55541e-19)
(1.00226 -0.0759278 -4.53884e-19)
(1.00192 -0.0739309 -1.38685e-18)
(1.00191 -0.0716641 1.39689e-19)
(0.996574 -0.0919809 4.91491e-21)
(0.996682 -0.0918392 -2.17869e-20)
(0.996837 -0.0916614 1.04472e-20)
(0.996965 -0.0915243 1.91094e-20)
(0.997068 -0.0914347 -4.01763e-20)
(0.99716 -0.0913896 3.30127e-20)
(0.997247 -0.0913722 -2.14661e-20)
(0.997329 -0.0913678 1.7815e-20)
(0.99741 -0.0913674 2.7547e-20)
(0.997488 -0.0913666 -6.48499e-20)
(0.997564 -0.0913643 9.11235e-20)
(0.997639 -0.0913598 3.68903e-20)
(0.997712 -0.0913537 -1.46137e-19)
(0.997782 -0.0913461 -2.57474e-20)
(0.99785 -0.0913371 7.37089e-20)
(0.997917 -0.0913269 4.53738e-20)
(0.997982 -0.0913147 -5.41649e-20)
(0.998046 -0.0913019 4.55582e-20)
(0.998108 -0.0912875 6.7345e-20)
(0.99817 -0.0912722 -3.38313e-20)
(0.998231 -0.0912557 -1.86961e-20)
(0.998293 -0.0912394 6.09476e-20)
(0.998354 -0.0912224 1.19557e-19)
(0.998417 -0.091207 -8.91608e-20)
(0.998481 -0.0911925 -9.16024e-20)
(0.998547 -0.091181 9.63751e-20)
(0.998616 -0.0911729 -7.34313e-20)
(0.998687 -0.0911699 -2.66506e-20)
(0.998761 -0.0911736 2.22025e-19)
(0.998838 -0.0911844 -9.36415e-20)
(0.998919 -0.0912038 -6.5202e-20)
(0.999002 -0.0912344 9.01238e-20)
(0.99909 -0.0912833 5.82886e-20)
(0.999181 -0.0913543 -4.71284e-20)
(0.999276 -0.0914458 -3.10062e-20)
(0.999373 -0.0915565 9.34391e-20)
(0.999471 -0.0916861 2.47322e-20)
(0.99957 -0.0918368 2.85761e-20)
(0.99967 -0.0920085 -1.42208e-19)
(0.999768 -0.0921969 -1.10799e-19)
(0.999866 -0.0923955 2.55077e-19)
(0.999964 -0.0925945 1.8191e-19)
(1.00006 -0.0927787 2.96874e-19)
(1.00016 -0.0929286 -2.32004e-19)
(1.00028 -0.0930205 -2.21306e-19)
(1.0004 -0.0930266 -1.61767e-19)
(1.00055 -0.0929161 2.85656e-19)
(1.00073 -0.0926562 1.79297e-19)
(1.00095 -0.0922169 -1.08167e-19)
(1.00122 -0.0915675 5.19136e-20)
(1.00153 -0.0906833 4.33395e-21)
(1.00188 -0.0895417 -8.09113e-20)
(1.00225 -0.0881308 -9.54156e-21)
(1.00262 -0.0864333 4.31193e-19)
(1.00295 -0.0844155 -4.48437e-19)
(1.00316 -0.0820434 -3.22845e-19)
(1.00317 -0.079284 -5.06345e-19)
(1.00278 -0.075986 1.51563e-18)
(1.0026 -0.0739376 1.11238e-19)
(1.00212 -0.0717034 1.45184e-19)
(0.996559 -0.092557 -8.2748e-21)
(0.996679 -0.0924341 -6.49446e-21)
(0.996851 -0.092274 8.67924e-21)
(0.996988 -0.0921396 3.00963e-20)
(0.997097 -0.0920464 -6.35536e-20)
(0.997193 -0.0919973 7.11891e-20)
(0.997284 -0.0919776 -3.29218e-21)
(0.997371 -0.0919733 -4.38152e-21)
(0.997456 -0.0919749 -2.36908e-20)
(0.99754 -0.0919779 5.56376e-20)
(0.997623 -0.0919804 -8.38972e-20)
(0.997704 -0.0919817 3.09269e-20)
(0.997783 -0.0919822 -9.36644e-22)
(0.997861 -0.0919821 4.52735e-20)
(0.997936 -0.0919816 2.04173e-20)
(0.99801 -0.0919809 -1.08345e-19)
(0.998083 -0.0919792 9.14841e-20)
(0.998154 -0.0919779 3.4105e-20)
(0.998223 -0.0919761 -9.67063e-20)
(0.998292 -0.0919742 4.63732e-20)
(0.998361 -0.091972 2.00768e-20)
(0.998429 -0.0919708 -1.42568e-20)
(0.998498 -0.0919693 1.4626e-20)
(0.998567 -0.09197 -1.00268e-20)
(0.998639 -0.0919718 -9.88866e-20)
(0.998712 -0.0919765 6.17413e-20)
(0.998788 -0.0919845 -8.9753e-20)
(0.998868 -0.0919971 1.59183e-19)
(0.998951 -0.0920155 -3.20825e-20)
(0.999038 -0.0920398 -1.74076e-20)
(0.99913 -0.0920711 -5.56102e-21)
(0.999226 -0.092111 1.34248e-19)
(0.999327 -0.092167 -5.61059e-20)
(0.999434 -0.0922419 -2.96552e-20)
(0.999547 -0.0923329 7.25023e-20)
(0.999663 -0.092439 5.62508e-20)
(0.999784 -0.0925586 -9.04289e-20)
(0.999908 -0.0926932 1.59173e-20)
(1.00003 -0.0928424 1.60676e-19)
(1.00016 -0.0930013 2.11027e-21)
(1.00029 -0.0931634 8.02858e-20)
(1.00042 -0.0933192 -1.1615e-19)
(1.00055 -0.0934539 1.51232e-19)
(1.00069 -0.0935492 3.3375e-19)
(1.00083 -0.0935829 1.18217e-19)
(1.00098 -0.093529 -9.31156e-20)
(1.00116 -0.0933587 -2.19318e-19)
(1.00135 -0.0930413 -1.68769e-20)
(1.00158 -0.0925485 2.77723e-20)
(1.00185 -0.0918507 2.9256e-20)
(1.00215 -0.0909238 -6.22772e-21)
(1.00249 -0.0897441 3.26246e-19)
(1.00284 -0.0882986 -3.97504e-19)
(1.0032 -0.0865693 3.40006e-19)
(1.00351 -0.0845198 -7.47234e-19)
(1.00371 -0.0821125 -2.19738e-19)
(1.00372 -0.0793079 -8.96648e-19)
(1.00332 -0.075956 -1.01431e-18)
(1.00325 -0.0738503 1.86599e-20)
(1.00239 -0.071626 3.22329e-19)
(0.996519 -0.0929669 -4.00827e-21)
(0.996651 -0.0928603 3.38463e-21)
(0.996837 -0.0927168 1.66751e-20)
(0.996981 -0.0925893 2.58277e-20)
(0.997092 -0.0924978 -7.49776e-20)
(0.997188 -0.0924485 4.2224e-20)
(0.997279 -0.0924292 -7.34873e-20)
(0.997367 -0.0924266 1.12412e-19)
(0.997454 -0.0924314 -5.14722e-20)
(0.99754 -0.0924386 8.80107e-21)
(0.997626 -0.0924465 9.32074e-20)
(0.997711 -0.092454 -2.07201e-19)
(0.997794 -0.0924613 1.37576e-19)
(0.997877 -0.0924689 1.81975e-20)
(0.997957 -0.0924768 2.84975e-20)
(0.998037 -0.0924855 -1.19352e-19)
(0.998115 -0.0924939 5.68849e-20)
(0.998192 -0.0925036 -6.78075e-20)
(0.998267 -0.0925137 1.28965e-19)
(0.998342 -0.0925245 -1.85276e-20)
(0.998417 -0.0925358 -1.53015e-19)
(0.998491 -0.0925488 5.92094e-20)
(0.998566 -0.0925619 -3.5819e-21)
(0.998642 -0.0925778 -1.96201e-19)
(0.99872 -0.0925951 1.46215e-19)
(0.998799 -0.0926154 1.03259e-19)
(0.998882 -0.0926389 6.45099e-20)
(0.998969 -0.0926665 -8.32189e-20)
(0.999059 -0.0926994 -8.44248e-20)
(0.999155 -0.092737 3.84252e-20)
(0.999255 -0.0927801 5.21809e-20)
(0.999361 -0.0928302 -6.02926e-20)
(0.999473 -0.0928934 -8.16269e-20)
(0.999593 -0.0929726 1.72742e-19)
(0.999719 -0.0930649 1.59336e-20)
(0.999851 -0.0931681 -2.21922e-19)
(0.999989 -0.0932801 2.29452e-20)
(1.00013 -0.0934018 1.27098e-19)
(1.00028 -0.0935325 7.30073e-21)
(1.00043 -0.093667 1.52273e-19)
(1.00059 -0.0937985 -1.75663e-19)
(1.00075 -0.093918 9.43266e-22)
(1.00091 -0.0940114 -1.10557e-19)
(1.00108 -0.0940613 5.0405e-21)
(1.00125 -0.0940467 1.31858e-19)
(1.00143 -0.0939434 2.84728e-19)
(1.00163 -0.0937245 5.89317e-20)
(1.00185 -0.0933606 -1.02562e-19)
(1.0021 -0.0928249 -8.68738e-21)
(1.00238 -0.0920884 -1.82843e-19)
(1.00269 -0.0911269 3.1994e-19)
(1.00303 -0.0899151 -6.04054e-19)
(1.00338 -0.0884385 4.97374e-19)
(1.00373 -0.0866772 3.00881e-19)
(1.00405 -0.0845929 1.51338e-18)
(1.00425 -0.0821441 8.03756e-20)
(1.00428 -0.0792874 5.08504e-19)
(1.00387 -0.0758764 4.1461e-19)
(1.00388 -0.073712 1.27045e-19)
(1.00266 -0.071483 2.75207e-19)
(0.996454 -0.0932609 5.55316e-21)
(0.996599 -0.0931702 1.89959e-21)
(0.996798 -0.0930429 -1.9382e-20)
(0.996949 -0.0929237 1.8115e-20)
(0.99706 -0.092836 -7.86315e-21)
(0.997154 -0.0927886 1.37003e-20)
(0.997243 -0.0927706 4.51094e-21)
(0.997329 -0.0927697 -6.51416e-20)
(0.997415 -0.092777 2.78533e-20)
(0.997501 -0.0927878 -1.80525e-20)
(0.997587 -0.0927999 1.10536e-20)
(0.997673 -0.0928124 4.06884e-20)
(0.997759 -0.0928252 -7.5374e-21)
(0.997844 -0.092839 2.31786e-20)
(0.997928 -0.0928538 -9.55508e-20)
(0.998011 -0.0928701 3.64125e-20)
(0.998094 -0.0928868 1.53976e-20)
(0.998175 -0.0929057 -3.9708e-20)
(0.998255 -0.0929259 7.66446e-20)
(0.998335 -0.0929474 2.34567e-20)
(0.998415 -0.0929703 -3.29573e-21)
(0.998494 -0.0929956 -2.46403e-20)
(0.998575 -0.0930216 9.36807e-20)
(0.998656 -0.0930509 -2.47315e-19)
(0.998739 -0.0930819 1.26269e-19)
(0.998825 -0.093116 4.99302e-20)
(0.998914 -0.0931533 -7.94282e-20)
(0.999006 -0.0931944 1.33515e-19)
(0.999103 -0.0932404 -6.55845e-20)
(0.999205 -0.0932902 -3.02866e-20)
(0.999313 -0.0933444 -5.38145e-20)
(0.999427 -0.0934036 -1.85694e-20)
(0.999548 -0.0934743 5.73632e-20)
(0.999678 -0.0935585 -1.56514e-19)
(0.999816 -0.0936523 2.82637e-19)
(0.999961 -0.0937541 -2.10071e-20)
(1.00011 -0.0938606 1.20595e-19)
(1.00027 -0.0939724 -2.92182e-19)
(1.00044 -0.0940884 -7.99301e-20)
(1.00061 -0.0942031 1.19238e-22)
(1.00079 -0.09431 -4.02858e-20)
(1.00098 -0.0944001 6.43751e-21)
(1.00117 -0.0944601 -1.30088e-19)
(1.00136 -0.0944734 1.62975e-20)
(1.00157 -0.0944203 4.1517e-20)
(1.00178 -0.0942778 -2.33284e-19)
(1.00201 -0.0940206 1.86293e-19)
(1.00226 -0.0936205 9.82225e-21)
(1.00253 -0.0930517 -2.51385e-20)
(1.00283 -0.0922853 1.47186e-19)
(1.00316 -0.0912967 -1.01878e-19)
(1.00351 -0.0900588 3.19689e-19)
(1.00388 -0.0885549 -7.81561e-19)
(1.00424 -0.0867635 -2.33343e-19)
(1.00456 -0.0846437 7.70846e-19)
(1.00478 -0.0821509 -3.2076e-19)
(1.00482 -0.0792392 7.72118e-19)
(1.00441 -0.0757665 8.79412e-20)
(1.00449 -0.0735429 -2.61285e-19)
(1.00296 -0.0712961 -2.62021e-19)
(0.996373 -0.0934801 -1.22203e-21)
(0.996532 -0.0933996 -4.70567e-21)
(0.996745 -0.0932836 -4.00832e-21)
(0.9969 -0.0931715 3.7985e-20)
(0.99701 -0.0930882 -2.0691e-20)
(0.997101 -0.0930436 -2.41788e-20)
(0.997186 -0.0930278 -8.74932e-21)
(0.997268 -0.0930292 -3.5237e-20)
(0.997351 -0.0930391 2.19716e-20)
(0.997435 -0.0930528 3.32469e-21)
(0.997519 -0.0930684 1.33013e-21)
(0.997605 -0.0930848 8.46382e-20)
(0.997691 -0.0931022 -5.86026e-20)
(0.997777 -0.0931208 -6.84116e-21)
(0.997862 -0.093141 6.26774e-20)
(0.997948 -0.0931632 -3.38586e-20)
(0.998033 -0.0931865 -1.23397e-20)
(0.998117 -0.0932126 1.96893e-20)
(0.998201 -0.0932407 6.003e-20)
(0.998285 -0.0932707 3.04128e-20)
(0.998369 -0.0933027 8.90844e-21)
(0.998453 -0.0933378 -7.61398e-20)
(0.998538 -0.093374 3.58597e-20)
(0.998624 -0.0934141 6.5097e-20)
(0.998713 -0.0934564 -1.34685e-19)
(0.998803 -0.0935019 3.97513e-20)
(0.998897 -0.0935508 -1.54951e-19)
(0.998995 -0.0936033 1.20915e-19)
(0.999098 -0.0936604 9.65873e-20)
(0.999206 -0.0937207 -1.47534e-19)
(0.99932 -0.0937845 -6.53661e-20)
(0.999441 -0.0938522 8.10429e-20)
(0.999571 -0.0939293 2.6267e-20)
(0.999709 -0.0940178 -6.24636e-20)
(0.999856 -0.0941141 -7.42243e-20)
(1.00001 -0.0942152 -8.2254e-20)
(1.00018 -0.0943179 5.28013e-20)
(1.00035 -0.0944222 1.11925e-19)
(1.00053 -0.094527 4.08406e-20)
(1.00073 -0.0946263 -2.64505e-20)
(1.00093 -0.0947138 2.70786e-19)
(1.00113 -0.0947809 -2.91076e-20)
(1.00135 -0.0948147 2.21409e-19)
(1.00157 -0.0947993 -3.25218e-19)
(1.00181 -0.0947162 3.27466e-20)
(1.00205 -0.0945435 1.43622e-20)
(1.00231 -0.0942572 -3.05436e-20)
(1.00259 -0.0938299 -4.8176e-21)
(1.00289 -0.0932365 8.1986e-20)
(1.00322 -0.092448 -1.96252e-19)
(1.00357 -0.0914391 -4.10085e-19)
(1.00394 -0.0901808 -2.96671e-19)
(1.00433 -0.0886537 7.35739e-19)
(1.00471 -0.0868347 -4.54517e-19)
(1.00505 -0.0846805 -1.25746e-18)
(1.0053 -0.0821437 -3.99817e-19)
(1.00536 -0.0791767 -7.5008e-19)
(1.00494 -0.0756413 -1.94474e-19)
(1.0051 -0.0733574 5.74037e-19)
(1.00325 -0.0710789 -1.46719e-18)
(0.996289 -0.093646 1.56289e-21)
(0.996462 -0.0935759 -4.59947e-21)
(0.996687 -0.0934708 1.6095e-20)
(0.996846 -0.0933654 4.08922e-21)
(0.996954 -0.0932863 -2.12259e-20)
(0.997041 -0.0932447 -2.37849e-20)
(0.99712 -0.0932311 5.51161e-20)
(0.997197 -0.0932343 -5.85843e-20)
(0.997275 -0.0932458 -1.37349e-20)
(0.997355 -0.0932613 3.44426e-20)
(0.997436 -0.0932791 3.07268e-20)
(0.997519 -0.093298 9.01824e-20)
(0.997604 -0.093318 -5.052e-20)
(0.997688 -0.0933396 -8.26489e-20)
(0.997774 -0.0933632 1.77982e-20)
(0.997859 -0.0933892 -6.24967e-20)
(0.997946 -0.0934167 4.65284e-20)
(0.998032 -0.0934478 -7.3327e-20)
(0.998118 -0.0934814 1.31844e-20)
(0.998204 -0.0935175 -2.07901e-20)
(0.998291 -0.0935564 -1.15229e-20)
(0.998379 -0.0935988 -5.48719e-20)
(0.998468 -0.0936429 7.99085e-21)
(0.998558 -0.0936914 1.15715e-19)
(0.998651 -0.0937424 -3.71869e-20)
(0.998746 -0.0937969 1.24169e-20)
(0.998845 -0.093855 3.2343e-20)
(0.998948 -0.0939166 -3.77784e-20)
(0.999056 -0.0939827 -7.0683e-21)
(0.99917 -0.0940515 4.73974e-20)
(0.99929 -0.0941233 5.04212e-20)
(0.999418 -0.0941976 -3.574e-20)
(0.999554 -0.0942804 -1.06037e-19)
(0.9997 -0.0943732 -1.39089e-19)
(0.999856 -0.0944711 2.045e-19)
(1.00002 -0.0945723 5.32866e-20)
(1.0002 -0.0946723 3.475e-20)
(1.00038 -0.0947709 1.33662e-19)
(1.00058 -0.0948671 -1.11295e-19)
(1.00079 -0.0949547 6.37575e-20)
(1.00101 -0.0950271 -3.64784e-21)
(1.00124 -0.0950764 6.18357e-21)
(1.00148 -0.09509 -7.81317e-20)
(1.00173 -0.0950527 1.46485e-19)
(1.00199 -0.0949468 -1.39144e-19)
(1.00226 -0.0947516 4.68634e-20)
(1.00256 -0.0944439 -8.55409e-20)
(1.00287 -0.0939969 2.50378e-20)
(1.0032 -0.0933861 -4.7381e-20)
(1.00356 -0.092582 2.09586e-19)
(1.00394 -0.0915585 7.08251e-20)
(1.00434 -0.0902845 2.92618e-20)
(1.00475 -0.0887381 1.18028e-19)
(1.00516 -0.0868942 4.32036e-19)
(1.00553 -0.0847072 -4.08307e-20)
(1.0058 -0.0821271 -2.70565e-19)
(1.00588 -0.0791049 2.78376e-19)
(1.00547 -0.0755057 3.39516e-20)
(1.00569 -0.0731599 -1.56954e-20)
(1.00355 -0.0708411 1.20783e-18)
(0.996203 -0.0937826 2.87829e-21)
(0.996389 -0.0937157 -2.38737e-21)
(0.996626 -0.0936151 2.13789e-21)
(0.996788 -0.0935137 1.343e-20)
(0.996895 -0.0934379 1.90616e-20)
(0.996978 -0.0933988 -7.29372e-20)
(0.997051 -0.0933873 5.1547e-20)
(0.997122 -0.0933924 1.03339e-20)
(0.997194 -0.0934058 -3.22492e-21)
(0.997268 -0.0934232 -2.15048e-20)
(0.997345 -0.093443 6.35616e-20)
(0.997424 -0.093464 -2.06901e-20)
(0.997506 -0.0934863 -2.7385e-20)
(0.997588 -0.0935104 -7.8031e-20)
(0.997671 -0.0935368 1.51779e-19)
(0.997756 -0.0935657 -3.15378e-20)
(0.997842 -0.0935964 -2.53381e-20)
(0.997928 -0.093631 -7.0312e-20)
(0.998015 -0.0936686 7.56688e-20)
(0.998103 -0.0937088 3.94976e-20)
(0.998192 -0.0937524 -1.85008e-20)
(0.998282 -0.0938 2.82995e-20)
(0.998375 -0.0938495 -1.19455e-19)
(0.998468 -0.0939041 9.66926e-21)
(0.998564 -0.0939614 6.17856e-20)
(0.998664 -0.0940224 -1.11177e-20)
(0.998767 -0.0940873 -1.67211e-19)
(0.998875 -0.0941558 1.89861e-20)
(0.998988 -0.0942288 1.37467e-19)
(0.999107 -0.0943041 -3.42414e-20)
(0.999232 -0.094382 -6.32303e-20)
(0.999366 -0.0944621 3.38488e-20)
(0.999508 -0.0945491 9.4264e-20)
(0.999661 -0.0946448 2.05941e-19)
(0.999826 -0.0947447 -3.10482e-20)
(1 -0.0948459 3.0314e-20)
(1.00019 -0.094944 -2.51945e-19)
(1.00038 -0.0950385 -6.42174e-20)
(1.00059 -0.0951283 3.64049e-20)
(1.00082 -0.0952069 -1.3555e-19)
(1.00105 -0.0952679 -2.63978e-20)
(1.0013 -0.0953038 5.21401e-20)
(1.00156 -0.0953022 3.20376e-20)
(1.00184 -0.0952485 7.035e-20)
(1.00213 -0.0951259 1.7034e-19)
(1.00243 -0.0949143 -7.87684e-20)
(1.00276 -0.0945913 3.9773e-20)
(1.0031 -0.0941308 -3.10267e-20)
(1.00346 -0.0935083 6.57501e-21)
(1.00386 -0.0926938 -2.37623e-19)
(1.00427 -0.0916606 4.40942e-19)
(1.00471 -0.0903751 6.74717e-19)
(1.00515 -0.0888126 -6.01641e-19)
(1.00559 -0.0869463 -5.55341e-19)
(1.00599 -0.0847285 2.17067e-19)
(1.00629 -0.0821065 1.21838e-18)
(1.0064 -0.07903 -2.30625e-19)
(1.00599 -0.0753661 3.3352e-21)
(1.00627 -0.0729559 -4.87122e-19)
(1.00384 -0.070586 1.2435e-18)
(0.996111 -0.0938952 -3.06112e-21)
(0.99631 -0.0938323 3.29158e-21)
(0.996558 -0.0937365 2.19493e-20)
(0.996725 -0.0936382 -2.81096e-20)
(0.99683 -0.0935646 4.99152e-20)
(0.996908 -0.0935273 -7.17461e-20)
(0.996976 -0.0935173 1.98982e-20)
(0.997042 -0.0935236 -8.74871e-22)
(0.997108 -0.0935379 4.16179e-20)
(0.997177 -0.0935563 -2.14858e-20)
(0.997249 -0.0935772 6.03642e-21)
(0.997323 -0.0935993 5.97769e-21)
(0.997401 -0.0936229 -9.23619e-20)
(0.99748 -0.0936483 2.75904e-20)
(0.997561 -0.0936762 6.03775e-20)
(0.997644 -0.0937068 1.435e-21)
(0.997728 -0.0937393 -9.35826e-20)
(0.997814 -0.093776 3.76522e-20)
(0.997901 -0.0938162 1.65044e-19)
(0.99799 -0.0938592 -1.06226e-19)
(0.99808 -0.0939059 -7.58155e-20)
(0.998171 -0.0939571 6.24709e-20)
(0.998266 -0.0940104 3.71672e-20)
(0.998362 -0.0940691 3.89721e-20)
(0.998461 -0.0941308 -7.55758e-20)
(0.998564 -0.0941965 -1.50736e-19)
(0.998671 -0.0942662 1.14331e-19)
(0.998783 -0.0943395 1.47963e-19)
(0.9989 -0.0944174 3.3466e-20)
(0.999024 -0.0944975 -7.46111e-20)
(0.999155 -0.0945801 3.07875e-20)
(0.999294 -0.0946637 4.59719e-20)
(0.999443 -0.0947543 -8.28163e-20)
(0.999603 -0.0948526 -1.81954e-20)
(0.999774 -0.0949532 -1.23405e-19)
(0.999957 -0.0950547 -2.82407e-20)
(1.00015 -0.0951512 -1.92133e-20)
(1.00036 -0.0952425 6.38899e-20)
(1.00058 -0.0953274 -8.16162e-20)
(1.00082 -0.0953993 1.99266e-20)
(1.00107 -0.0954517 2.81234e-20)
(1.00134 -0.0954775 4.49881e-21)
(1.00162 -0.0954647 -1.2104e-19)
(1.00192 -0.095399 -1.25103e-19)
(1.00224 -0.0952643 -8.25023e-20)
(1.00257 -0.0950412 8.3737e-20)
(1.00292 -0.0947081 -2.83148e-20)
(1.0033 -0.0942388 1.77897e-20)
(1.0037 -0.0936091 -3.12955e-20)
(1.00413 -0.0927884 2.96193e-19)
(1.00458 -0.0917491 -1.9165e-19)
(1.00505 -0.0904554 -6.50196e-19)
(1.00553 -0.0888797 5.82215e-20)
(1.006 -0.0869935 6.67589e-19)
(1.00644 -0.0847464 -3.2149e-19)
(1.00677 -0.0820837 -2.70883e-19)
(1.00691 -0.0789532 -1.6857e-19)
(1.00651 -0.0752234 9.50226e-20)
(1.00685 -0.0727468 1.1821e-18)
(1.00414 -0.0703241 -2.88788e-18)
(0.996016 -0.0939952 -2.55692e-21)
(0.996228 -0.0939332 3.62417e-21)
(0.996488 -0.0938389 7.36346e-22)
(0.996658 -0.0937422 1.32057e-20)
(0.996762 -0.0936702 -1.96333e-20)
(0.996836 -0.0936345 -3.91989e-20)
(0.996899 -0.093626 1.38599e-20)
(0.996958 -0.0936337 -1.75641e-20)
(0.997019 -0.0936491 3.77269e-20)
(0.997082 -0.0936684 -7.32545e-21)
(0.997149 -0.0936902 -2.33232e-20)
(0.997219 -0.0937133 1.90909e-20)
(0.997293 -0.0937378 2.96342e-20)
(0.997368 -0.0937641 7.85375e-20)
(0.997446 -0.0937931 -1.39454e-19)
(0.997526 -0.0938248 6.88519e-20)
(0.997609 -0.0938583 9.61885e-21)
(0.997694 -0.0938963 -6.32172e-20)
(0.99778 -0.0939378 -3.71403e-20)
(0.997868 -0.0939823 1.19191e-19)
(0.997959 -0.0940308 -1.19659e-19)
(0.998051 -0.094084 3.57881e-20)
(0.998147 -0.0941393 -8.67448e-20)
(0.998245 -0.0942006 1.42048e-19)
(0.998347 -0.094265 -2.78031e-20)