/*--------------------------------*- C++ -*----------------------------------*\
  =========                 |
  \\      /  F ield         | OpenFOAM: The Open Source CFD Toolbox
   \\    /   O peration     | Website:  https://openfoam.org
    \\  /    A nd           | Version:  6.0
     \\/     M anipulation  |
\*---------------------------------------------------------------------------*/
FoamFile
{
    version     2.0;
    format      ascii;
    class       volScalarField;
    location    "3.07";
    object      p;
}
// * * * * * * * * * * * * * * * * * * * * * * * * * * * * * * * * * * * * * //

dimensions      [0 2 -2 0 0 0 0];

internalField   nonuniform List<scalar> 
13500
(
0.097527
0.09756
0.097072
0.09666
0.09556
0.095274
0.094069
0.095065
0.095802
0.099585
0.12209
0.16404
0.097527
0.09756
0.097072
0.096661
0.095559
0.095275
0.094067
0.095065
0.095798
0.099646
0.12141
0.15898
0.097527
0.097561
0.097072
0.096662
0.095559
0.095276
0.094065
0.095065
0.095789
0.09969
0.12053
0.15449
0.097528
0.097563
0.097073
0.096664
0.095558
0.095277
0.094061
0.095064
0.095774
0.09971
0.11956
0.15098
0.097529
0.097565
0.097073
0.096666
0.095557
0.095278
0.094056
0.095061
0.095754
0.099716
0.11852
0.14801
0.097531
0.097567
0.097074
0.096668
0.095557
0.095279
0.094051
0.095058
0.095728
0.099709
0.11745
0.14536
0.097533
0.09757
0.097076
0.09667
0.095556
0.09528
0.094045
0.095053
0.095697
0.099689
0.11637
0.14296
0.097535
0.097573
0.097078
0.096673
0.095556
0.095281
0.094039
0.095048
0.095662
0.099656
0.11529
0.14076
0.097538
0.097576
0.09708
0.096676
0.095556
0.095281
0.094032
0.095042
0.095621
0.099609
0.11424
0.13872
0.097542
0.09758
0.097082
0.096679
0.095556
0.095282
0.094025
0.095034
0.095575
0.099548
0.11323
0.13681
0.097545
0.097584
0.097085
0.096682
0.095556
0.095282
0.094016
0.095026
0.095523
0.099475
0.11225
0.13503
0.09755
0.097588
0.097088
0.096686
0.095556
0.095282
0.094008
0.095016
0.095467
0.099391
0.11131
0.13334
0.097554
0.097593
0.097092
0.096689
0.095557
0.095282
0.093998
0.095006
0.095404
0.099296
0.11041
0.13174
0.097559
0.097599
0.097096
0.096693
0.095557
0.095282
0.093988
0.094994
0.095337
0.099192
0.10956
0.13023
0.097565
0.097604
0.097101
0.096698
0.095558
0.095282
0.093978
0.094981
0.095264
0.09908
0.10875
0.12878
0.097571
0.097611
0.097105
0.096702
0.095559
0.095282
0.093967
0.094968
0.095185
0.098963
0.10797
0.1274
0.097577
0.097617
0.097111
0.096707
0.09556
0.095281
0.093955
0.094952
0.095101
0.098841
0.10723
0.12608
0.097584
0.097624
0.097116
0.096712
0.095561
0.095281
0.093943
0.094936
0.095012
0.098715
0.10652
0.12481
0.097591
0.097632
0.097122
0.096718
0.095563
0.09528
0.09393
0.094919
0.094917
0.098587
0.10583
0.12359
0.097599
0.097639
0.097129
0.096724
0.095564
0.095279
0.093917
0.0949
0.094817
0.098458
0.10517
0.12241
0.097608
0.097648
0.097136
0.09673
0.095566
0.095278
0.093903
0.09488
0.094712
0.098329
0.10453
0.12128
0.097616
0.097656
0.097143
0.096736
0.095568
0.095277
0.093888
0.094858
0.094603
0.0982
0.10391
0.12018
0.097626
0.097666
0.097151
0.096742
0.09557
0.095276
0.093873
0.094836
0.094489
0.098072
0.1033
0.11911
0.097635
0.097675
0.097159
0.096749
0.095572
0.095274
0.093857
0.094811
0.094371
0.097946
0.10271
0.11807
0.097646
0.097685
0.097167
0.096756
0.095575
0.095273
0.093841
0.094786
0.09425
0.097821
0.10213
0.11706
0.097656
0.097696
0.097176
0.096764
0.095578
0.095271
0.093825
0.094759
0.094125
0.097697
0.10155
0.11608
0.097668
0.097707
0.097186
0.096771
0.09558
0.09527
0.093807
0.09473
0.093997
0.097576
0.10099
0.11512
0.09768
0.097718
0.097196
0.096779
0.095583
0.095268
0.09379
0.0947
0.093867
0.097456
0.10043
0.11418
0.097692
0.09773
0.097206
0.096788
0.095587
0.095266
0.093771
0.094668
0.093734
0.097337
0.099879
0.11327
0.097705
0.097742
0.097217
0.096796
0.09559
0.095263
0.093752
0.094635
0.093599
0.09722
0.099333
0.11237
0.097718
0.097755
0.097228
0.096805
0.095594
0.095261
0.093733
0.0946
0.093462
0.097104
0.098792
0.11149
0.097732
0.097769
0.09724
0.096814
0.095598
0.095259
0.093713
0.094564
0.093324
0.096988
0.098256
0.11063
0.097746
0.097782
0.097252
0.096824
0.095602
0.095256
0.093693
0.094526
0.093185
0.096873
0.097725
0.10978
0.097761
0.097797
0.097265
0.096834
0.095606
0.095253
0.093672
0.094487
0.093046
0.096759
0.097198
0.10895
0.097777
0.097812
0.097278
0.096844
0.095611
0.09525
0.09365
0.094446
0.092906
0.096644
0.096675
0.10814
0.097793
0.097827
0.097291
0.096854
0.095616
0.095247
0.093628
0.094404
0.092765
0.096528
0.096157
0.10734
0.097809
0.097843
0.097305
0.096865
0.095621
0.095244
0.093605
0.094361
0.092625
0.096412
0.095644
0.10656
0.097826
0.097859
0.09732
0.096876
0.095626
0.095241
0.093582
0.094316
0.092485
0.096295
0.095135
0.10579
0.097844
0.097876
0.097335
0.096888
0.095632
0.095237
0.093558
0.094271
0.092345
0.096176
0.094632
0.10503
0.097862
0.097893
0.097351
0.0969
0.095637
0.095234
0.093534
0.094224
0.092205
0.096056
0.094134
0.10429
0.097881
0.097911
0.097367
0.096912
0.095644
0.09523
0.093509
0.094177
0.092067
0.095935
0.093642
0.10356
0.097901
0.09793
0.097384
0.096924
0.09565
0.095226
0.093483
0.094129
0.091928
0.095811
0.093156
0.10285
0.097921
0.097949
0.097401
0.096937
0.095656
0.095222
0.093457
0.09408
0.09179
0.095686
0.092675
0.10215
0.097941
0.097968
0.097418
0.09695
0.095663
0.095218
0.093431
0.09403
0.091653
0.095558
0.092201
0.10146
0.097962
0.097988
0.097437
0.096964
0.095671
0.095214
0.093403
0.09398
0.091517
0.095429
0.091733
0.10078
0.097984
0.098009
0.097455
0.096978
0.095678
0.095209
0.093376
0.09393
0.091381
0.095297
0.091271
0.10012
0.098006
0.09803
0.097474
0.096992
0.095686
0.095205
0.093347
0.093879
0.091245
0.095163
0.090816
0.099467
0.098029
0.098052
0.097494
0.097007
0.095694
0.0952
0.093318
0.093829
0.09111
0.095026
0.090368
0.098828
0.098053
0.098074
0.097515
0.097022
0.095702
0.095195
0.093289
0.093778
0.090976
0.094888
0.089927
0.098201
0.098077
0.098097
0.097535
0.097037
0.095711
0.09519
0.093259
0.093728
0.090842
0.094747
0.089493
0.097585
0.098102
0.09812
0.097557
0.097053
0.09572
0.095185
0.093228
0.093678
0.090708
0.094603
0.089066
0.096981
0.098127
0.098144
0.097579
0.097069
0.095729
0.09518
0.093197
0.093628
0.090574
0.094458
0.088645
0.096388
0.098153
0.098169
0.097601
0.097086
0.095739
0.095175
0.093166
0.093578
0.09044
0.09431
0.088232
0.095805
0.09818
0.098194
0.097624
0.097103
0.095749
0.095169
0.093134
0.093529
0.090307
0.094161
0.087825
0.095233
0.098207
0.09822
0.097648
0.09712
0.095759
0.095164
0.093101
0.09348
0.090173
0.094009
0.087426
0.094672
0.098235
0.098246
0.097672
0.097138
0.09577
0.095159
0.093068
0.093432
0.090039
0.093855
0.087033
0.094121
0.098264
0.098273
0.097697
0.097156
0.095781
0.095153
0.093035
0.093385
0.089905
0.093699
0.086647
0.093579
0.098293
0.098301
0.097722
0.097174
0.095792
0.095147
0.093001
0.093338
0.089771
0.093541
0.086268
0.093047
0.098323
0.098329
0.097748
0.097193
0.095803
0.095142
0.092967
0.093291
0.089636
0.093382
0.085895
0.092525
0.098353
0.098358
0.097775
0.097213
0.095815
0.095136
0.092933
0.093246
0.089502
0.093221
0.085529
0.092011
0.098385
0.098387
0.097802
0.097232
0.095828
0.09513
0.092898
0.093201
0.089366
0.093058
0.085169
0.091507
0.098416
0.098417
0.09783
0.097252
0.09584
0.095125
0.092863
0.093156
0.089231
0.092893
0.084815
0.09101
0.098449
0.098448
0.097858
0.097273
0.095854
0.095119
0.092827
0.093112
0.089095
0.092727
0.084467
0.090523
0.098482
0.098479
0.097887
0.097294
0.095867
0.095114
0.092792
0.093069
0.088959
0.09256
0.084125
0.090043
0.098516
0.098511
0.097917
0.097316
0.095881
0.095108
0.092756
0.093026
0.088822
0.092391
0.083789
0.089571
0.098551
0.098544
0.097947
0.097338
0.095895
0.095103
0.09272
0.092984
0.088685
0.092221
0.083459
0.089107
0.098586
0.098577
0.097978
0.09736
0.095909
0.095097
0.092684
0.092942
0.088548
0.09205
0.083134
0.08865
0.098622
0.098611
0.098009
0.097383
0.095924
0.095092
0.092647
0.092901
0.08841
0.091878
0.082814
0.0882
0.098658
0.098646
0.098041
0.097406
0.095939
0.095087
0.092611
0.09286
0.088272
0.091704
0.0825
0.087758
0.098696
0.098681
0.098074
0.09743
0.095955
0.095082
0.092574
0.092819
0.088134
0.09153
0.082191
0.087322
0.098734
0.098717
0.098107
0.097454
0.095971
0.095077
0.092537
0.092778
0.087996
0.091354
0.081887
0.086892
0.098773
0.098754
0.098141
0.097479
0.095987
0.095073
0.0925
0.092738
0.087858
0.091178
0.081588
0.086469
0.098812
0.098792
0.098176
0.097504
0.096004
0.095068
0.092463
0.092698
0.08772
0.091001
0.081294
0.086052
0.098853
0.09883
0.098211
0.09753
0.096021
0.095064
0.092426
0.092657
0.087581
0.090823
0.081004
0.085642
0.098893
0.098868
0.098247
0.097557
0.096038
0.09506
0.092388
0.092617
0.087443
0.090644
0.080719
0.085237
0.098935
0.098908
0.098284
0.097583
0.096056
0.095057
0.092351
0.092577
0.087305
0.090465
0.080438
0.084838
0.098978
0.098948
0.098321
0.097611
0.096074
0.095054
0.092314
0.092536
0.087167
0.090285
0.080161
0.084444
0.099021
0.098989
0.098359
0.097639
0.096093
0.095051
0.092276
0.092496
0.08703
0.090105
0.079889
0.084056
0.099065
0.099031
0.098398
0.097667
0.096112
0.095048
0.092238
0.092455
0.086892
0.089924
0.079621
0.083673
0.09911
0.099074
0.098437
0.097696
0.096131
0.095046
0.092201
0.092414
0.086756
0.089743
0.079356
0.083295
0.099155
0.099117
0.098477
0.097726
0.096151
0.095045
0.092163
0.092373
0.086619
0.089561
0.079096
0.082922
0.099201
0.099161
0.098518
0.097756
0.09617
0.095043
0.092125
0.092331
0.086483
0.089379
0.07884
0.082554
0.099249
0.099206
0.098559
0.097787
0.096191
0.095043
0.092087
0.09229
0.086348
0.089196
0.078587
0.08219
0.099296
0.099251
0.098601
0.097818
0.096211
0.095042
0.092049
0.092247
0.086213
0.089014
0.078338
0.081832
0.099345
0.099298
0.098644
0.09785
0.096232
0.095042
0.092011
0.092204
0.086079
0.088831
0.078092
0.081477
0.099395
0.099345
0.098688
0.097883
0.096254
0.095043
0.091973
0.092161
0.085945
0.088648
0.07785
0.081127
0.099445
0.099393
0.098732
0.097916
0.096276
0.095044
0.091935
0.092117
0.085813
0.088464
0.077612
0.080781
0.099496
0.099442
0.098777
0.09795
0.096298
0.095046
0.091897
0.092073
0.085681
0.088281
0.077376
0.08044
0.099548
0.099492
0.098823
0.097984
0.09632
0.095048
0.091859
0.092028
0.085549
0.088097
0.077144
0.080102
0.099601
0.099542
0.098869
0.09802
0.096343
0.095051
0.091821
0.091983
0.085419
0.087914
0.076915
0.079768
0.099655
0.099593
0.098916
0.098056
0.096366
0.095054
0.091783
0.091937
0.085289
0.08773
0.076689
0.079438
0.099709
0.099646
0.098964
0.098092
0.09639
0.095058
0.091745
0.091891
0.085161
0.087547
0.076466
0.079112
0.099764
0.099699
0.099013
0.09813
0.096413
0.095062
0.091707
0.091843
0.085033
0.087363
0.076247
0.07879
0.099821
0.099753
0.099063
0.098168
0.096438
0.095067
0.091669
0.091796
0.084906
0.087179
0.07603
0.07847
0.099878
0.099808
0.099113
0.098207
0.096462
0.095073
0.091631
0.091747
0.08478
0.086996
0.075815
0.078155
0.099936
0.099864
0.099164
0.098246
0.096487
0.095079
0.091593
0.091698
0.084655
0.086812
0.075604
0.077842
0.099995
0.099921
0.099216
0.098287
0.096513
0.095086
0.091555
0.091649
0.084531
0.086629
0.075395
0.077533
0.10006
0.099979
0.099269
0.098328
0.096539
0.095093
0.091518
0.091598
0.084408
0.086446
0.075189
0.077227
0.10012
0.10004
0.099323
0.09837
0.096565
0.095101
0.09148
0.091547
0.084286
0.086263
0.074985
0.076924
0.10018
0.1001
0.099377
0.098413
0.096592
0.09511
0.091443
0.091496
0.084165
0.08608
0.074784
0.076623
0.10024
0.10016
0.099433
0.098457
0.096619
0.095119
0.091406
0.091443
0.084044
0.085897
0.074585
0.076326
0.10031
0.10022
0.099489
0.098501
0.096646
0.095129
0.091368
0.09139
0.083925
0.085714
0.074389
0.076031
0.10037
0.10028
0.099546
0.098547
0.096674
0.095139
0.091332
0.091337
0.083807
0.085532
0.074195
0.075739
0.10044
0.10035
0.099605
0.098593
0.096703
0.095151
0.091295
0.091283
0.083689
0.08535
0.074003
0.07545
0.1005
0.10041
0.099664
0.098641
0.096732
0.095163
0.091259
0.091228
0.083573
0.085168
0.073813
0.075163
0.10057
0.10048
0.099724
0.098689
0.096761
0.095175
0.091223
0.091172
0.083458
0.084986
0.073625
0.074879
0.10064
0.10055
0.099785
0.098739
0.096792
0.095189
0.091187
0.091116
0.083343
0.084804
0.073439
0.074596
0.10071
0.10061
0.099847
0.098789
0.096822
0.095203
0.091152
0.091059
0.08323
0.084623
0.073255
0.074316
0.10078
0.10068
0.09991
0.098841
0.096853
0.095218
0.091117
0.091002
0.083117
0.084441
0.073073
0.074039
0.10086
0.10076
0.099975
0.098893
0.096885
0.095233
0.091082
0.090944
0.083005
0.08426
0.072893
0.073763
0.10093
0.10083
0.10004
0.098947
0.096918
0.095249
0.091048
0.090885
0.082894
0.084079
0.072715
0.073489
0.10101
0.1009
0.10011
0.099002
0.096951
0.095266
0.091014
0.090826
0.082785
0.083899
0.072538
0.073217
0.10108
0.10098
0.10017
0.099058
0.096984
0.095284
0.090981
0.090767
0.082676
0.083718
0.072363
0.072947
0.10116
0.10105
0.10024
0.099115
0.097019
0.095303
0.090948
0.090706
0.082568
0.083538
0.072189
0.072678
0.10124
0.10113
0.10031
0.099173
0.097054
0.095322
0.090915
0.090646
0.08246
0.083357
0.072017
0.072411
0.10132
0.10121
0.10039
0.099233
0.09709
0.095343
0.090884
0.090584
0.082354
0.083177
0.071846
0.072146
0.1014
0.10129
0.10046
0.099294
0.097127
0.095364
0.090853
0.090523
0.082248
0.082998
0.071676
0.071882
0.10149
0.10138
0.10053
0.099357
0.097165
0.095386
0.090822
0.09046
0.082144
0.082818
0.071508
0.07162
0.10157
0.10146
0.10061
0.099421
0.097204
0.095409
0.090792
0.090398
0.08204
0.082638
0.071341
0.071358
0.10166
0.10155
0.10069
0.099486
0.097243
0.095433
0.090763
0.090335
0.081937
0.082459
0.071175
0.071098
0.10175
0.10163
0.10076
0.099553
0.097284
0.095458
0.090735
0.090271
0.081835
0.08228
0.071011
0.070839
0.10184
0.10172
0.10084
0.099621
0.097326
0.095484
0.090707
0.090208
0.081733
0.0821
0.070847
0.070582
0.10193
0.10181
0.10093
0.099691
0.097369
0.095511
0.090681
0.090144
0.081633
0.081921
0.070684
0.070325
0.10203
0.10191
0.10101
0.099763
0.097413
0.095539
0.090655
0.090079
0.081533
0.081742
0.070522
0.070069
0.10212
0.102
0.1011
0.099837
0.097459
0.095568
0.09063
0.090015
0.081434
0.081564
0.070361
0.069813
0.10222
0.1021
0.10118
0.099912
0.097505
0.095598
0.090606
0.08995
0.081336
0.081385
0.070201
0.069559
0.10232
0.1022
0.10127
0.099989
0.097553
0.09563
0.090583
0.089885
0.081239
0.081206
0.070041
0.069305
0.10242
0.1023
0.10136
0.10007
0.097603
0.095663
0.090562
0.08982
0.081142
0.081027
0.069882
0.069051
0.10253
0.10241
0.10146
0.10015
0.097654
0.095697
0.090541
0.089755
0.081046
0.080849
0.069724
0.068798
0.10263
0.10251
0.10155
0.10023
0.097707
0.095732
0.090522
0.08969
0.080951
0.08067
0.069566
0.068546
0.10274
0.10262
0.10165
0.10032
0.097762
0.095769
0.090504
0.089625
0.080857
0.080492
0.069409
0.068293
0.10285
0.10273
0.10175
0.10041
0.097818
0.095808
0.090487
0.08956
0.080764
0.080313
0.069252
0.068041
0.10297
0.10285
0.10185
0.1005
0.097876
0.095848
0.090472
0.089495
0.080671
0.080135
0.069095
0.067789
0.10309
0.10296
0.10196
0.10059
0.097936
0.09589
0.090458
0.089431
0.08058
0.079956
0.068938
0.067536
0.10321
0.10308
0.10207
0.10069
0.097999
0.095933
0.090446
0.089367
0.080489
0.079778
0.068782
0.067284
0.10333
0.10321
0.10218
0.10078
0.098064
0.095979
0.090436
0.089303
0.080399
0.079599
0.068626
0.067031
0.10345
0.10333
0.10229
0.10089
0.098131
0.096026
0.090427
0.08924
0.08031
0.079421
0.068469
0.066779
0.10358
0.10346
0.10241
0.10099
0.0982
0.096075
0.090421
0.089177
0.080222
0.079242
0.068313
0.066525
0.10372
0.1036
0.10253
0.1011
0.098272
0.096127
0.090416
0.089114
0.080134
0.079064
0.068157
0.066272
0.10385
0.10373
0.10266
0.10121
0.098347
0.09618
0.090413
0.089053
0.080048
0.078885
0.068
0.066017
0.10399
0.10387
0.10278
0.10132
0.098425
0.096236
0.090413
0.088992
0.079963
0.078707
0.067844
0.065762
0.10413
0.10402
0.10291
0.10144
0.098506
0.096294
0.090414
0.088932
0.079879
0.078528
0.067687
0.065507
0.10428
0.10416
0.10305
0.10156
0.09859
0.096355
0.090419
0.088873
0.079795
0.07835
0.06753
0.06525
0.10443
0.10432
0.10319
0.10169
0.098677
0.096419
0.090426
0.088816
0.079713
0.078171
0.067372
0.064992
0.10459
0.10447
0.10333
0.10181
0.098768
0.096485
0.090435
0.088759
0.079632
0.077993
0.067214
0.064734
0.10475
0.10463
0.10348
0.10195
0.098863
0.096554
0.090447
0.088704
0.079553
0.077814
0.067055
0.064474
0.10491
0.1048
0.10363
0.10209
0.098961
0.096627
0.090462
0.08865
0.079474
0.077636
0.066896
0.064212
0.10508
0.10497
0.10379
0.10223
0.099064
0.096702
0.090481
0.088597
0.079397
0.077457
0.066736
0.06395
0.10525
0.10515
0.10395
0.10238
0.09917
0.096781
0.090502
0.088547
0.079321
0.077279
0.066575
0.063686
0.10543
0.10533
0.10412
0.10253
0.099282
0.096864
0.090527
0.088498
0.079247
0.0771
0.066414
0.06342
0.10562
0.10552
0.10429
0.10269
0.099398
0.096951
0.090556
0.088451
0.079174
0.076922
0.066252
0.063152
0.10581
0.10571
0.10447
0.10285
0.099519
0.097041
0.090588
0.088406
0.079102
0.076744
0.066089
0.062883
0.10601
0.10591
0.10466
0.10302
0.099645
0.097136
0.090624
0.088363
0.079032
0.076566
0.065924
0.062611
0.10621
0.10611
0.10485
0.1032
0.099777
0.097234
0.090665
0.088322
0.078964
0.076388
0.065759
0.062338
0.10642
0.10632
0.10504
0.10338
0.099914
0.097338
0.090709
0.088284
0.078897
0.07621
0.065593
0.062062
0.10663
0.10654
0.10525
0.10357
0.10006
0.097446
0.090758
0.088249
0.078833
0.076032
0.065425
0.061783
0.10685
0.10677
0.10546
0.10376
0.10021
0.097559
0.090812
0.088216
0.07877
0.075855
0.065256
0.061502
0.10708
0.107
0.10568
0.10396
0.10036
0.097677
0.09087
0.088187
0.078709
0.075677
0.065086
0.061219
0.10732
0.10724
0.1059
0.10417
0.10052
0.097801
0.090934
0.08816
0.07865
0.0755
0.064914
0.060932
0.10756
0.10749
0.10613
0.10439
0.10069
0.097931
0.091002
0.088137
0.078593
0.075323
0.06474
0.060643
0.10781
0.10774
0.10638
0.10461
0.10087
0.098066
0.091076
0.088117
0.078539
0.075146
0.064565
0.06035
0.10807
0.10801
0.10662
0.10484
0.10105
0.098207
0.091156
0.0881
0.078486
0.074969
0.064388
0.060054
0.10834
0.10828
0.10688
0.10509
0.10125
0.098355
0.091242
0.088088
0.078436
0.074792
0.06421
0.059755
0.10861
0.10856
0.10715
0.10534
0.10145
0.098509
0.091333
0.088079
0.078389
0.074616
0.064029
0.059452
0.1089
0.10885
0.10743
0.1056
0.10165
0.09867
0.091431
0.088074
0.078343
0.074439
0.063846
0.059145
0.10919
0.10916
0.10771
0.10586
0.10187
0.098839
0.091535
0.088073
0.0783
0.074263
0.063661
0.058833
0.1095
0.10947
0.10801
0.10614
0.1021
0.099014
0.091646
0.088076
0.07826
0.074087
0.063473
0.058518
0.10981
0.10979
0.10831
0.10643
0.10233
0.099198
0.091764
0.088084
0.078222
0.073911
0.063283
0.058198
0.11013
0.11012
0.10863
0.10673
0.10258
0.099389
0.091889
0.088096
0.078187
0.073735
0.06309
0.057873
0.11047
0.11046
0.10896
0.10704
0.10283
0.099588
0.092021
0.088113
0.078154
0.073559
0.062895
0.057543
0.11081
0.11081
0.1093
0.10736
0.1031
0.099796
0.09216
0.088135
0.078124
0.073382
0.062696
0.057207
0.11117
0.11118
0.10965
0.10769
0.10338
0.10001
0.092307
0.088162
0.078097
0.073206
0.062494
0.056866
0.11153
0.11155
0.11001
0.10803
0.10366
0.10024
0.092462
0.088193
0.078072
0.073028
0.062288
0.056519
0.11191
0.11194
0.11038
0.10839
0.10396
0.10047
0.092625
0.088229
0.078049
0.072851
0.062078
0.056166
0.1123
0.11234
0.11077
0.10875
0.10427
0.10071
0.092795
0.088271
0.078029
0.072673
0.061865
0.055806
0.1127
0.11276
0.11117
0.10913
0.10459
0.10097
0.092974
0.088317
0.078011
0.072493
0.061646
0.055439
0.11312
0.11318
0.11158
0.10952
0.10493
0.10123
0.093162
0.088369
0.077996
0.072313
0.061424
0.055064
0.11354
0.11362
0.11201
0.10993
0.10528
0.1015
0.093357
0.088425
0.077982
0.072132
0.061196
0.054682
0.11398
0.11407
0.11245
0.11035
0.10564
0.10179
0.093562
0.088487
0.077971
0.071948
0.060963
0.054291
0.11443
0.11454
0.11291
0.11078
0.10601
0.10208
0.093775
0.088554
0.077961
0.071763
0.060723
0.053892
0.1149
0.11502
0.11338
0.11123
0.10639
0.10238
0.093996
0.088625
0.077953
0.071576
0.060478
0.053483
0.11538
0.11552
0.11386
0.11169
0.10679
0.1027
0.094227
0.088701
0.077946
0.071386
0.060226
0.053064
0.11587
0.11603
0.11436
0.11216
0.10721
0.10302
0.094466
0.088782
0.07794
0.071194
0.059966
0.052635
0.11638
0.11655
0.11488
0.11266
0.10764
0.10336
0.094714
0.088868
0.077935
0.070998
0.059699
0.052195
0.1169
0.11709
0.11541
0.11316
0.10808
0.10371
0.094971
0.088958
0.077931
0.070798
0.059423
0.051744
0.11744
0.11765
0.11596
0.11368
0.10854
0.10407
0.095237
0.089052
0.077926
0.070594
0.059138
0.051279
0.118
0.11823
0.11652
0.11422
0.10901
0.10444
0.095512
0.08915
0.077922
0.070385
0.058844
0.050802
0.11857
0.11882
0.11711
0.11478
0.1095
0.10482
0.095796
0.089252
0.077916
0.070171
0.058539
0.050311
0.11915
0.11942
0.11771
0.11535
0.11001
0.10522
0.096089
0.089358
0.07791
0.06995
0.058223
0.049806
0.11976
0.12005
0.11833
0.11594
0.11053
0.10562
0.096391
0.089467
0.077901
0.069723
0.057895
0.049285
0.12038
0.1207
0.11897
0.11655
0.11108
0.10604
0.096703
0.089579
0.077891
0.069489
0.057555
0.048747
0.12102
0.12136
0.11963
0.11718
0.11164
0.10648
0.097023
0.089694
0.077878
0.069247
0.057201
0.048193
0.12167
0.12205
0.12031
0.11783
0.11221
0.10693
0.097353
0.089812
0.077862
0.068996
0.056832
0.04762
0.12235
0.12275
0.12102
0.1185
0.11281
0.10739
0.097692
0.089932
0.077843
0.068735
0.056448
0.047028
0.12305
0.12348
0.12175
0.11919
0.11343
0.10786
0.098041
0.090055
0.077819
0.068465
0.056048
0.046415
0.12378
0.12423
0.1225
0.11991
0.11407
0.10836
0.0984
0.090179
0.077791
0.068183
0.05563
0.045781
0.12452
0.12501
0.12329
0.12065
0.11474
0.10886
0.09877
0.090306
0.077757
0.067889
0.055194
0.045125
0.12529
0.12582
0.12409
0.12141
0.11542
0.10939
0.09915
0.090434
0.077718
0.067583
0.054738
0.044445
0.12609
0.12665
0.12494
0.12221
0.11614
0.10993
0.099541
0.090565
0.077673
0.067263
0.054262
0.043739
0.12692
0.12751
0.12581
0.12304
0.11688
0.1105
0.099944
0.090697
0.07762
0.066929
0.053764
0.043007
0.12778
0.12841
0.12672
0.1239
0.11765
0.11108
0.10036
0.090831
0.077561
0.066579
0.053243
0.042248
0.12867
0.12934
0.12766
0.12479
0.11845
0.11169
0.10079
0.090966
0.077493
0.066213
0.052697
0.041459
0.12959
0.13032
0.12865
0.12572
0.11929
0.11232
0.10123
0.091104
0.077418
0.06583
0.052127
0.040639
0.13056
0.13133
0.12968
0.1267
0.12016
0.11298
0.10169
0.091244
0.077333
0.065428
0.051529
0.039786
0.13157
0.13239
0.13076
0.12772
0.12107
0.11366
0.10216
0.091386
0.077238
0.065006
0.050903
0.038899
0.13262
0.13349
0.13189
0.12879
0.12203
0.11438
0.10265
0.091531
0.077133
0.064564
0.050247
0.037976
0.13372
0.13465
0.13307
0.12991
0.12303
0.11513
0.10316
0.091677
0.077017
0.0641
0.049559
0.037016
0.13487
0.13587
0.13432
0.13109
0.12408
0.11591
0.10369
0.091825
0.076887
0.063611
0.048837
0.036014
0.13607
0.13715
0.13563
0.13233
0.12519
0.11673
0.10423
0.091976
0.076744
0.063096
0.048079
0.034971
0.13734
0.13849
0.13701
0.13364
0.12635
0.1176
0.1048
0.092127
0.076585
0.062553
0.047282
0.033882
0.13867
0.13991
0.13847
0.13502
0.12757
0.1185
0.10539
0.092278
0.076408
0.061979
0.046443
0.032746
0.14006
0.1414
0.14001
0.13648
0.12886
0.11945
0.106
0.092428
0.076209
0.061371
0.04556
0.031558
0.14153
0.14297
0.14163
0.13802
0.13021
0.12044
0.10662
0.092575
0.075987
0.060724
0.044627
0.030316
0.14307
0.14463
0.14335
0.13965
0.13164
0.12149
0.10727
0.092715
0.075736
0.060033
0.04364
0.029016
0.14469
0.14638
0.14516
0.14138
0.13314
0.12258
0.10794
0.092847
0.075452
0.059295
0.042594
0.027652
0.14638
0.14823
0.14708
0.1432
0.13472
0.12373
0.10862
0.092964
0.075129
0.058501
0.041482
0.02622
0.14816
0.15017
0.14911
0.14513
0.13638
0.12492
0.10931
0.093063
0.074759
0.057645
0.040297
0.024714
0.15002
0.15222
0.15125
0.14716
0.13813
0.12617
0.11002
0.093136
0.074335
0.056718
0.039032
0.023126
0.15197
0.15438
0.15351
0.14931
0.13996
0.12746
0.11072
0.093176
0.073847
0.055711
0.037676
0.021448
0.15401
0.15665
0.15589
0.15158
0.14188
0.12879
0.11142
0.093175
0.073285
0.054613
0.036221
0.019673
0.15613
0.15904
0.15841
0.15398
0.14389
0.13017
0.11211
0.09312
0.072638
0.053413
0.034654
0.017789
0.15834
0.16155
0.16106
0.1565
0.14599
0.13159
0.11278
0.093002
0.071892
0.052098
0.032965
0.015785
0.16063
0.16419
0.16386
0.15916
0.14818
0.13303
0.11342
0.092806
0.071033
0.050654
0.031139
0.013652
0.16302
0.16696
0.16682
0.16196
0.15045
0.1345
0.11401
0.092517
0.070046
0.049069
0.029166
0.011375
0.1655
0.16987
0.16995
0.16492
0.15283
0.13599
0.11455
0.092118
0.068913
0.047325
0.02703
0.0089433
0.16807
0.17294
0.17327
0.16804
0.15529
0.13748
0.11501
0.091588
0.067615
0.045408
0.024718
0.0063441
0.17073
0.17618
0.1768
0.17133
0.15785
0.13896
0.11537
0.090903
0.066131
0.043298
0.022215
0.0035655
0.1735
0.1796
0.18056
0.17482
0.16051
0.14041
0.11561
0.090035
0.064433
0.040975
0.019504
0.00059579
0.17637
0.18324
0.18458
0.17852
0.16326
0.14182
0.11569
0.088948
0.062492
0.038414
0.016569
-0.0025766
0.17935
0.1871
0.1889
0.18246
0.1661
0.14315
0.11558
0.087598
0.060267
0.035585
0.013388
-0.0059637
0.18243
0.19123
0.19356
0.18664
0.16901
0.14437
0.11521
0.085931
0.057713
0.032452
0.0099356
-0.0095785
0.18561
0.19565
0.19859
0.19108
0.17197
0.14542
0.11454
0.08388
0.054771
0.028968
0.0061801
-0.013437
0.18887
0.20038
0.20403
0.19579
0.17494
0.14623
0.11346
0.081366
0.051374
0.025081
0.0020842
-0.017557
0.19216
0.20543
0.20989
0.20075
0.17785
0.14669
0.11187
0.078292
0.047442
0.020729
-0.0023953
-0.02196
0.19542
0.2108
0.21618
0.20591
0.1806
0.14669
0.10966
0.074552
0.042891
0.015846
-0.0073035
-0.02667
0.19855
0.21647
0.22287
0.2112
0.18304
0.14607
0.10666
0.070028
0.037633
0.010372
-0.012681
-0.031706
0.20142
0.22236
0.22989
0.21645
0.18497
0.14461
0.10272
0.064598
0.031589
0.0042581
-0.018554
-0.037074
0.20385
0.22835
0.23706
0.22143
0.18611
0.14207
0.097642
0.058145
0.024696
-0.0025203
-0.024923
-0.042761
0.20561
0.23425
0.24409
0.22578
0.18611
0.13815
0.091231
0.050561
0.016916
-0.0099531
-0.031749
-0.048717
0.20647
0.2397
0.2505
0.22891
0.18445
0.1325
0.083284
0.04176
0.008244
-0.017992
-0.038953
-0.054857
0.20615
0.24412
0.2554
0.22997
0.18046
0.12472
0.073608
0.031692
-0.0012855
-0.02655
-0.046417
-0.061058
0.20443
0.2466
0.25737
0.22759
0.17324
0.11433
0.062051
0.020368
-0.011588
-0.035506
-0.053997
-0.067179
0.20123
0.24565
0.2541
0.21978
0.16158
0.10084
0.048529
0.0078877
-0.022506
-0.044699
-0.061535
-0.07308
0.19671
0.23904
0.24212
0.2037
0.14392
0.083699
0.033056
-0.0055275
-0.033791
-0.053923
-0.068869
-0.078645
0.19154
0.22388
0.21681
0.17566
0.11834
0.06231
0.015692
-0.019577
-0.045118
-0.062928
-0.075838
-0.08379
0.18702
0.19725
0.17331
0.13173
0.082786
0.03597
-0.0035787
-0.034011
-0.056188
-0.071476
-0.082306
-0.088478
0.1844
0.15625
0.10821
0.069223
0.035623
0.0039259
-0.02499
-0.048804
-0.066871
-0.079448
-0.088218
-0.092739
0.18523
0.095444
0.017311
-0.01404
-0.024882
-0.035176
-0.049431
-0.064496
-0.077506
-0.087086
-0.093796
-0.096837
0.2016
0.019041
-0.096411
-0.11512
-0.097899
-0.082252
-0.078345
-0.082474
-0.089287
-0.095388
-0.099883
-0.10153
0.24562
-0.052885
-0.21182
-0.21635
-0.17139
-0.13093
-0.10917
-0.10206
-0.10229
-0.10462
-0.10679
-0.10699
0.1027
0.063296
0.053172
0.047136
0.042974
0.039864
0.037388
0.035263
0.033458
0.031624
0.030184
0.027765
0.12201
0.078516
0.065938
0.057909
0.052434
0.048392
0.045203
0.042489
0.040207
0.037891
0.036128
0.0333
0.10935
0.073415
0.062034
0.054134
0.048729
0.044758
0.041644
0.039007
0.036815
0.034583
0.032948
0.030202
0.10428
0.073067
0.062016
0.054026
0.048484
0.0444
0.041199
0.038494
0.036261
0.033981
0.032347
0.029475
0.10361
0.075202
0.063993
0.055786
0.049999
0.045709
0.04234
0.039494
0.037151
0.034758
0.033056
0.030024
0.10293
0.076983
0.065703
0.057363
0.051378
0.046909
0.043392
0.040419
0.037974
0.035483
0.033713
0.030567
0.10178
0.078234
0.067029
0.058638
0.052506
0.047892
0.044248
0.041167
0.038635
0.036065
0.034235
0.031019
0.10057
0.079255
0.068215
0.059826
0.05358
0.048836
0.045077
0.041895
0.039281
0.036645
0.034758
0.031511
0.099429
0.080135
0.069329
0.060985
0.054655
0.049797
0.045928
0.042652
0.039959
0.037266
0.035325
0.032087
0.098342
0.080864
0.070356
0.062102
0.055722
0.050767
0.046799
0.043436
0.040667
0.037929
0.035939
0.032746
0.097289
0.081442
0.071284
0.063162
0.056768
0.05174
0.047685
0.044243
0.041405
0.038631
0.0366
0.033487
0.096267
0.081883
0.072112
0.064157
0.057785
0.052706
0.048581
0.045072
0.042172
0.039373
0.037307
0.034306
0.095278
0.082202
0.07284
0.065081
0.058762
0.053659
0.04948
0.045916
0.042963
0.040151
0.038058
0.035193
0.094325
0.082415
0.073471
0.065929
0.059692
0.054588
0.050374
0.046769
0.043773
0.040958
0.038845
0.036135
0.093408
0.082536
0.074009
0.066698
0.060566
0.055484
0.051253
0.047621
0.044593
0.041784
0.039658
0.037116
0.092528
0.082581
0.07446
0.067389
0.061381
0.05634
0.052108
0.048464
0.045413
0.042621
0.040488
0.038117
0.091686
0.082561
0.074831
0.068003
0.062132
0.05715
0.052933
0.049289
0.046227
0.043457
0.041322
0.03912
0.090882
0.082488
0.075131
0.068545
0.062821
0.05791
0.053722
0.050089
0.047025
0.044285
0.042151
0.040109
0.090114
0.08237
0.075366
0.069018
0.063447
0.058618
0.05447
0.050859
0.047801
0.045094
0.042964
0.041069
0.089381
0.082218
0.075545
0.069428
0.064012
0.059274
0.055175
0.051595
0.048549
0.045878
0.043753
0.041987
0.088682
0.082036
0.075673
0.06978
0.06452
0.059878
0.055835
0.052293
0.049264
0.046631
0.044513
0.042855
0.088015
0.081831
0.075757
0.070079
0.064973
0.060432
0.056451
0.052951
0.049945
0.04735
0.045238
0.043665
0.087379
0.081608
0.075803
0.07033
0.065376
0.060937
0.057021
0.053569
0.050589
0.048029
0.045925
0.044415
0.08677
0.08137
0.075816
0.070538
0.065732
0.061396
0.057549
0.054146
0.051195
0.048669
0.046571
0.045102
0.086187
0.081121
0.075799
0.070707
0.066045
0.061811
0.058035
0.054683
0.051764
0.049268
0.047177
0.045727
0.085628
0.080863
0.075758
0.070841
0.066318
0.062186
0.058481
0.055181
0.052294
0.049825
0.047742
0.046293
0.085092
0.080599
0.075694
0.070945
0.066555
0.062523
0.058889
0.055641
0.052789
0.050343
0.048267
0.046803
0.084577
0.080329
0.075612
0.07102
0.06676
0.062824
0.059262
0.056065
0.053248
0.050823
0.048753
0.047261
0.08408
0.080056
0.075514
0.071071
0.066934
0.063092
0.059601
0.056456
0.053673
0.051265
0.049203
0.047671
0.083602
0.079781
0.075402
0.071099
0.06708
0.063331
0.059909
0.056814
0.054066
0.051672
0.049618
0.048038
0.08314
0.079505
0.075278
0.071108
0.067202
0.063542
0.060188
0.057141
0.054429
0.052046
0.05
0.048367
0.082694