/*--------------------------------*- C++ -*----------------------------------*\
  =========                 |
  \\      /  F ield         | OpenFOAM: The Open Source CFD Toolbox
   \\    /   O peration     | Website:  https://openfoam.org
    \\  /    A nd           | Version:  6.0
     \\/     M anipulation  |
\*---------------------------------------------------------------------------*/
FoamFile
{
    version     2.0;
    format      ascii;
    class       volVectorField;
    location    "3.07";
    object      U;
}
// * * * * * * * * * * * * * * * * * * * * * * * * * * * * * * * * * * * * * //

dimensions      [0 1 -1 0 0 0 0];

internalField   nonuniform List<vector> 
13500
(
(1 2.2121e-06 -4.2433e-18)
(1 -2.9985e-06 2.8715e-18)
(1 -6.0764e-06 -1.2351e-17)
(1 -1.0002e-05 -8.5431e-18)
(1 -9.2176e-06 1.6067e-17)
(1 -9.1536e-06 2.991e-17)
(1 -3.2583e-07 2.5608e-17)
(0.99998 1.4158e-05 -4.1369e-18)
(0.99992 3.8495e-05 1.5153e-17)
(0.9998 7.4901e-05 3.2433e-18)
(0.99572 0.0007561 2.8491e-17)
(1.019 0.010844 7.7126e-18)
(1 6.8097e-06 2.6289e-18)
(1 -8.065e-06 -8.7206e-18)
(1 -1.6614e-05 5.8981e-18)
(1 -2.7455e-05 -3.3696e-19)
(1 -2.4437e-05 -4.2848e-19)
(1 -2.4252e-05 -3.5964e-17)
(1 3.9926e-06 -4.423e-17)
(0.99994 4.5013e-05 -2.367e-17)
(0.99974 0.000128 -1.5123e-17)
(0.99983 0.00018474 -1.6039e-18)
(0.98618 0.00219 -1.3492e-17)
(1.0534 0.030657 -4.6698e-18)
(1 1.1392e-05 -3.3955e-18)
(1 -1.3277e-05 1.7326e-17)
(1 -2.7241e-05 3.0679e-18)
(1 -4.5367e-05 9.85e-18)
(1 -3.9756e-05 -3.705e-18)
(1 -4.0119e-05 2.8809e-17)
(1 8.7166e-06 -6.2258e-18)
(0.9999 7.475e-05 5.3769e-18)
(0.99954 0.00022605 -1.8346e-17)
(1.0003 0.0003098 2.4366e-17)
(0.97598 0.0032738 -7.054e-18)
(1.0819 0.04521 1.6371e-18)
(1 1.5929e-05 8.8766e-18)
(1 -1.8729e-05 -1.6798e-17)
(1 -3.8226e-05 -1.4543e-17)
(1 -6.3936e-05 -6.911e-19)
(1 -5.562e-05 5.7195e-18)
(1.0001 -5.6831e-05 -7.995e-19)
(1 1.3203e-05 6.1343e-17)
(0.99987 0.00010314 9.6874e-18)
(0.9993 0.00033148 2.1694e-17)
(1.0013 0.00045444 -8.826e-18)
(0.96552 0.0040336 3.4349e-17)
(1.1031 0.055777 -7.4518e-18)
(1 2.0456e-05 -6.2371e-18)
(1 -2.4202e-05 1.4518e-17)
(1 -4.929e-05 1.2379e-17)
(1 -8.2573e-05 1.2607e-17)
(1 -7.1598e-05 2.8045e-18)
(1.0001 -7.3637e-05 2.1174e-17)
(1 1.7779e-05 -2.7393e-17)
(0.99985 0.00013048 1.9677e-18)
(0.99901 0.00044307 -1.3301e-17)
(1.0026 0.0006207 -2.1059e-18)
(0.95518 0.0045195 -8.9093e-18)
(1.117 0.06349 2.0665e-18)
(1 2.4972e-05 6.312e-18)
(1 -2.9699e-05 -6.0185e-18)
(1 -6.043e-05 3.7807e-18)
(1 -0.00010128 -2.4973e-17)
(1.0001 -8.7691e-05 -8.2137e-20)
(1.0001 -9.0557e-05 -4.1918e-17)
(1 2.2442e-05 1.0511e-18)
(0.99985 0.0001566 -1.5795e-17)
(0.99866 0.00055945 5.0653e-18)
(1.0044 0.00081521 -2.1219e-17)
(0.94533 0.0047742 -2.1446e-17)
(1.1244 0.068961 1.9969e-18)
(0.99999 2.9478e-05 -1.0448e-18)
(1 -3.5223e-05 -7.1983e-18)
(1 -7.1646e-05 -3.0726e-18)
(1.0001 -0.00012007 1.8849e-17)
(1.0001 -0.00010389 -2.5975e-17)
(1.0001 -0.00010762 1.6039e-17)
(1 2.7232e-05 1.8322e-17)
(0.99985 0.00018139 5.5569e-18)
(0.99825 0.00067927 1.1323e-17)
(1.0065 0.0010443 1.1423e-17)
(0.93624 0.0048355 9.2383e-18)
(1.1261 0.072616 3.2047e-18)
(0.99999 3.3974e-05 -2.1566e-18)
(1 -4.0777e-05 -1.4161e-18)
(1 -8.2941e-05 -2.6469e-17)
(1.0001 -0.00013895 -9.0008e-18)
(1.0001 -0.00012021 7.2703e-18)
(1.0001 -0.00012485 2.6285e-17)
(1 3.2163e-05 1.1661e-17)
(0.99987 0.00020478 4.961e-18)
(0.99776 0.00080119 -7.4011e-18)
(1.0088 0.0013118 1.6001e-17)
(0.92815 0.0047401 7.4603e-18)
(1.1232 0.074818 -1.019e-17)
(0.99999 3.846e-05 -6.6948e-18)
(1 -4.6362e-05 6.0879e-18)
(1 -9.4317e-05 4.4506e-17)
(1.0001 -0.00015792 -1.0796e-17)
(1.0001 -0.00013666 2.7226e-17)
(1.0001 -0.00014224 -5.1897e-17)
(1 3.7233e-05 -3.8847e-17)
(0.99991 0.00022673 9.64e-18)
(0.99719 0.00092382 -5.5585e-18)
(1.0114 0.0016191 -8.8249e-18)
(0.92122 0.0045228 -1.3785e-17)
(1.1166 0.07587 1.333e-17)
(0.99999 4.2935e-05 4.4108e-18)
(1 -5.198e-05 2.2915e-18)
(1 -0.00010578 -3.7699e-17)
(1.0001 -0.000177 1.5365e-17)
(1.0001 -0.00015323 -1.1873e-17)
(1.0002 -0.00015983 2.2134e-17)
(1 4.2437e-05 1.3805e-17)
(0.99997 0.00024722 2.4372e-18)
(0.99655 0.0010458 5.2505e-19)
(1.0142 0.0019659 1.3979e-18)
(0.91554 0.0042159 4.3852e-18)
(1.1073 0.076027 -6.988e-19)
(0.99998 4.7399e-05 -2.4217e-18)
(1 -5.7631e-05 -7.5155e-18)
(1 -0.00011733 9.2411e-18)
(1.0001 -0.00019617 -2.711e-18)
(1.0001 -0.00016994 1.8327e-18)
(1.0002 -0.00017761 -2.4258e-17)
(1 4.777e-05 -3.1795e-17)
(1 0.00026628 -3.0952e-17)
(0.99581 0.001166 1.5537e-17)
(1.017 0.0023502 1.8157e-18)
(0.91116 0.0038489 -1.1124e-17)
(1.0961 0.075495 -5.7429e-18)
(0.99998 5.1852e-05 3.3426e-18)
(1 -6.3318e-05 2.8387e-18)
(1 -0.00012897 4.4536e-18)
(1.0001 -0.00021545 -2.1606e-18)
(1.0001 -0.00018681 -5.4938e-18)
(1.0002 -0.00019561 9.1747e-18)
(1 5.3225e-05 1.8405e-17)
(1.0001 0.00028393 1.9122e-17)
(0.99499 0.0012831 9.9823e-18)
(1.0199 0.002769 -2.2931e-17)
(0.90809 0.0034481 1.1671e-19)
(1.0836 0.074444 -6.6468e-18)
(0.99998 5.6294e-05 -3.3421e-18)
(0.99999 -6.9041e-05 5.5824e-18)
(1 -0.0001407 8.0748e-18)
(1.0001 -0.00023483 5.6415e-18)
(1.0001 -0.00020382 -5.0955e-18)
(1.0002 -0.00021383 4.5104e-18)
(1 5.8792e-05 4.1969e-18)
(1.0003 0.00030026 -1.7076e-18)
(0.99409 0.001396 -1.6134e-17)
(1.0229 0.0032182 2.1264e-17)
(0.90628 0.0030368 1.0385e-19)
(1.0706 0.073014 1.4239e-18)
(0.99997 6.0724e-05 5.0823e-18)
(0.99999 -7.4803e-05 -4.3576e-18)
(1 -0.00015254 7.0695e-19)
(1.0001 -0.00025433 -4.7062e-18)
(1.0002 -0.000221 1.1572e-17)
(1.0002 -0.00023229 5.5033e-18)
(1 6.4454e-05 1.6887e-17)
(1.0004 0.00031537 -6.3423e-18)
(0.99311 0.0015038 -1.9714e-19)
(1.0257 0.0036932 5.222e-18)
(0.90567 0.002635 1.6883e-17)
(1.0574 0.071317 9.0825e-19)
(0.99997 6.5142e-05 1.2258e-18)
(0.99999 -8.0604e-05 9.6712e-18)
(1 -0.00016447 1.3503e-17)
(1.0001 -0.00027395 -4.6924e-18)
(1.0002 -0.00023836 8.3796e-18)
(1.0003 -0.00025101 -2.5691e-18)
(1 7.0193e-05 -2.9576e-17)
(1.0006 0.00032939 2.0076e-17)
(0.99206 0.0016055 -1.8192e-17)
(1.0285 0.004189 -3.0121e-17)
(0.90616 0.0022592 -3.706e-18)
(1.0446 0.069445 8.4133e-19)
(0.99997 6.9548e-05 -3.1272e-18)
(0.99999 -8.6445e-05 -1.0285e-17)
(1 -0.00017651 -3.241e-17)
(1.0001 -0.00029369 7.9056e-18)
(1.0002 -0.00025589 -1.2716e-17)
(1.0003 -0.00026999 8.2374e-18)
(1 7.5982e-05 -2.7672e-18)
(1.0008 0.00034248 -1.2085e-17)
(0.99093 0.0017004 3.9953e-18)
(1.0312 0.0047003 1.7987e-17)
(0.90767 0.0019229 -7.7787e-18)
(1.0324 0.067471 1.1679e-17)
(0.99996 7.3941e-05 3.2905e-19)
(0.99998 -9.233e-05 7.6926e-18)
(1 -0.00018866 2.2376e-17)
(1.0001 -0.00031355 -1.7805e-18)
(1.0002 -0.00027361 -1.2633e-17)
(1.0003 -0.00028925 -1.5351e-17)
(1 8.1791e-05 1.057e-17)
(1.0011 0.00035481 6.9313e-18)
(0.98975 0.0017876 2.3087e-17)
(1.0337 0.0052222 -2.5182e-18)
(0.91006 0.0016366 1.9331e-18)
(1.021 0.065455 -4.6598e-18)
(0.99996 7.8321e-05 -1.8461e-18)
(0.99998 -9.8258e-05 -9.3211e-18)
(1 -0.00020092 -1.0097e-17)
(1.0001 -0.00033355 5.95e-18)
(1.0002 -0.00029154 -7.0953e-18)
(1.0003 -0.0003088 -1.2313e-17)
(1 8.7582e-05 1.0276e-17)
(1.0013 0.00036661 -4.702e-18)
(0.9885 0.0018665 -2.8568e-17)
(1.036 0.0057495 -1.4112e-17)
(0.91323 0.001408 8.3905e-18)
(1.0106 0.063441 -5.053e-18)
(0.99995 8.2688e-05 -2.6435e-18)
(0.99998 -0.00010423 -3.5231e-18)
(1 -0.00021329 -7.4827e-19)
(1.0001 -0.00035368 -2.6055e-17)
(1.0002 -0.00030967 5.953e-18)
(1.0003 -0.00032866 5.3616e-18)
(0.99999 9.331e-05 -1.9526e-17)
(1.0017 0.0003781 -1.6055e-17)
(0.98721 0.0019364 4.1796e-18)
(1.0381 0.0062778 -1.0596e-18)
(0.91705 0.0012419 -9.6888e-18)
(1.0014 0.061466 9.5576e-19)
(0.99995 8.7041e-05 3.4384e-18)
(0.99997 -0.00011025 1.615e-17)
(1 -0.00022578 1.9268e-17)
(1.0001 -0.00037395 2.4535e-18)
(1.0002 -0.00032802 1.6457e-17)
(1.0004 -0.00034883 9.396e-18)
(0.99997 9.8924e-05 2.8184e-18)
(1.002 0.00038955 1.7572e-17)
(0.98588 0.0019968 2.0759e-17)
(1.04 0.0068027 1.6851e-17)
(0.92141 0.0011412 7.2325e-18)
(0.99328 0.059555 1.1338e-18)
(0.99994 9.1381e-05 -1.6389e-18)
(0.99997 -0.00011632 -3.8751e-18)
(1 -0.0002384 -2.0528e-17)
(1.0002 -0.00039436 -2.3235e-18)
(1.0002 -0.0003466 -1.2473e-17)
(1.0004 -0.00036932 -5.0839e-18)
(0.99994 0.00010436 -1.8087e-18)
(1.0024 0.00040123 -1.589e-17)
(0.98453 0.002047 -1.9847e-17)
(1.0416 0.0073204 8.6357e-18)
(0.92619 0.0011066 4.9733e-19)
(0.98639 0.057728 6.5067e-19)
(0.99993 9.5707e-05 4.3442e-18)
(0.99996 -0.00012245 -5.0628e-18)
(1 -0.00025114 -1.9254e-17)
(1.0002 -0.00041493 4.417e-17)
(1.0002 -0.00036542 1.8094e-17)
(1.0004 -0.00039015 -1.244e-17)
(0.9999 0.00010956 2.4318e-17)
(1.0028 0.00041346 2.1476e-17)
(0.98316 0.0020867 3.2203e-17)
(1.043 0.0078274 -3.165e-17)
(0.93129 0.001137 -1.3285e-17)
(0.98066 0.055997 1.7148e-19)
(0.99993 0.00010002 -3.1799e-18)
(0.99996 -0.00012862 -1.016e-18)
(1 -0.00026402 3.2872e-17)
(1.0002 -0.00043564 -3.339e-17)
(1.0003 -0.00038448 -1.7417e-18)
(1.0005 -0.00041132 4.1219e-17)
(0.99986 0.00011443 7.536e-18)
(1.0033 0.00042654 -3.3171e-18)
(0.98178 0.0021152 -1.997e-17)
(1.044 0.0083208 3.7297e-17)
(0.93661 0.0012302 -5.6292e-18)
(0.97605 0.05437 -2.727e-19)
(0.99992 0.00010432 -1.6211e-18)
(0.99995 -0.00013485 -2.0245e-18)
(1 -0.00027703 1.712e-18)
(1.0002 -0.00045652 3.4738e-17)
(1.0003 -0.00040381 -9.8205e-18)
(1.0005 -0.00043283 -3.0467e-17)
(0.99981 0.00011889 -1.9214e-17)
(1.0038 0.00044084 -3.5719e-18)
(0.9804 0.0021322 6.3142e-18)
(1.0449 0.0087981 -3.1462e-17)
(0.94206 0.0013826 9.4278e-18)
(0.97251 0.052853 2.9546e-18)
(0.99991 0.0001086 2.679e-18)
(0.99995 -0.00014113 1.4091e-17)
(1 -0.00029018 -1.2625e-17)
(1.0002 -0.00047755 -3.637e-18)
(1.0003 -0.0004234 -1.8848e-17)
(1.0005 -0.00045471 3.3146e-17)
(0.99975 0.00012285 -1.6867e-17)
(1.0043 0.00045669 1.4809e-17)
(0.97904 0.0021373 -1.946e-18)
(1.0454 0.0092571 2.9495e-17)
(0.94756 0.0015899 -9.2025e-18)
(0.96993 0.051445 -4.9301e-18)
(0.99991 0.00011287 -5.1381e-19)
(0.99994 -0.00014747 -8.1039e-18)
(1 -0.00030347 -1.7678e-17)
(1.0002 -0.00049876 -9.9667e-18)
(1.0003 -0.00044328 1.8281e-17)
(1.0006 -0.00047694 -4.2268e-17)
(0.99968 0.00012619 -2.6025e-18)
(1.0049 0.00047448 -2.0008e-17)
(0.97771 0.0021301 3.1424e-18)
(1.0457 0.0096961 -8.5073e-18)
(0.95305 0.0018472 9.7951e-18)
(0.96825 0.050145 2.0909e-18)
(0.9999 0.00011712 2.6918e-18)
(0.99994 -0.00015388 -8.6809e-18)
(1 -0.0003169 -1.7468e-18)
(1.0002 -0.00052013 2.422e-18)
(1.0003 -0.00046345 5.7861e-18)
(1.0006 -0.00049953 1.2213e-17)
(0.9996 0.00012881 4.267e-17)
(1.0055 0.00049458 2.3912e-18)
(0.97641 0.0021102 5.1198e-18)
(1.0457 0.010114 9.3756e-18)
(0.95844 0.0021492 -8.3793e-18)
(0.96737 0.048951 1.6052e-18)
(0.99989 0.00012136 -1.5435e-18)
(0.99993 -0.00016034 8.673e-18)
(1 -0.00033049 2.5129e-17)
(1.0002 -0.00054169 -2.4402e-17)
(1.0003 -0.00048393 -9.0005e-18)
(1.0006 -0.00052248 -2.1493e-18)
(0.99951 0.00013056 -1.4065e-17)
(1.0061 0.00051739 1.8552e-18)
(0.97516 0.0020774 -8.872e-18)
(1.0455 0.010509 -3.4461e-18)
(0.9637 0.0024902 -2.3794e-19)
(0.96718 0.047856 -1.9617e-18)
(0.99988 0.00012558 -1.659e-18)
(0.99992 -0.00016687 5.1915e-18)
(1 -0.00034424 -6.0763e-19)
(1.0002 -0.00056342 8.0915e-18)
(1.0003 -0.00050473 -1.6608e-17)
(1.0007 -0.00054579 2.4318e-17)
(0.99941 0.00013132 7.0151e-18)
(1.0068 0.00054329 -1.7698e-17)
(0.97397 0.0020313 -1.1374e-17)
(1.045 0.01088 -1.3642e-17)
(0.96877 0.0028645 1.3275e-18)
(0.9676 0.046856 -3.5931e-18)
(0.99987 0.00012979 5.7651e-19)
(0.99992 -0.00017346 -1.2398e-17)
(1 -0.00035814 1.5562e-17)
(1.0002 -0.00058535 2.2381e-17)
(1.0003 -0.00052586 3.2552e-17)
(1.0007 -0.00056946 -1.7859e-17)
(0.9993 0.00013092 -1.7441e-17)
(1.0074 0.00057269 3.5914e-18)
(0.97285 0.0019719 1.0657e-17)
(1.0443 0.011228 1.0679e-17)
(0.97362 0.0032666 6.1833e-18)
(0.96853 0.045943 3.5712e-18)
(0.99987 0.00013398 1.1049e-18)
(0.99991 -0.00018013 9.8593e-18)
(1 -0.00037221 -3.5754e-17)
(1.0002 -0.00060746 -3.2426e-18)
(1.0003 -0.00054734 -2.7042e-17)
(1.0008 -0.00059348 -1.125e-17)
(0.99918 0.00012921 2.4547e-20)
(1.0082 0.00060597 -4.1082e-18)
(0.9718 0.0018989 -2.0992e-17)
(1.0434 0.011551 -1.705e-17)
(0.97822 0.0036909 -8.446e-18)
(0.96988 0.045112 -1.7593e-18)
(0.99986 0.00013816 -7.161e-19)
(0.9999 -0.00018686 -6.4121e-18)
(1 -0.00038645 2.8132e-17)
(1.0002 -0.00062978 -3.0943e-17)
(1.0003 -0.00056917 -2.0344e-18)
(1.0008 -0.00061784 2.3957e-17)
(0.99904 0.00012602 6.9785e-19)
(1.0089 0.00064353 3.9176e-18)
(0.97084 0.0018123 1.8377e-17)
(1.0422 0.01185 2.2163e-17)
(0.98253 0.0041321 4.8317e-18)
(0.97157 0.044354 -9.8214e-19)
(0.99985 0.00014231 -1.8643e-18)
(0.99989 -0.00019366 -2.3648e-18)
(1 -0.00040087 -1.2471e-17)
(1.0002 -0.0006523 1.5415e-17)
(1.0004 -0.00059138 2.9721e-17)
(1.0009 -0.00064252 -1.0588e-17)
(0.99889 0.00012116 2.1722e-17)
(1.0096 0.00068575 2.9365e-18)
(0.96997 0.0017121 -2.0811e-18)
(1.0409 0.012124 1.0027e-17)
(0.98655 0.0045852 -5.4002e-18)
(0.97352 0.043663 -6.8391e-19)
(0.99984 0.00014646 4.6625e-19)
(0.99988 -0.00020054 -6.2539e-18)
(1 -0.00041546 4.6689e-18)
(1.0002 -0.00067502 -1.5711e-17)
(1.0004 -0.00061398 -3.1438e-17)
(1.0009 -0.00066752 6.6726e-18)
(0.99873 0.00011443 -3.1337e-17)
(1.0104 0.00073298 -6.7139e-18)
(0.9692 0.0015984 6.7512e-18)
(1.0394 0.012373 -3.147e-17)
(0.99026 0.0050453 3.6971e-18)
(0.97566 0.043033 1.9325e-18)
(0.99983 0.00015058 8.1882e-19)
(0.99987 -0.0002075 1.6943e-17)
(1 -0.00043024 7.8179e-18)
(1.0002 -0.00069796 6.3995e-18)
(1.0004 -0.00063699 2.5139e-17)
(1.001 -0.00069281 1.9897e-18)
(0.99856 0.00010563 2.1638e-17)
(1.0112 0.00078558 4.8156e-18)
(0.96853 0.0014714 -2.0516e-17)
(1.0378 0.012598 1.0835e-17)
(0.99365 0.0055081 2.5003e-18)
(0.97794 0.042455 2.0031e-18)
(0.99981 0.00015469 -2.8593e-18)
(0.99987 -0.00021453 -5.5773e-18)
(0.99999 -0.0004452 -6.8683e-18)
(1.0002 -0.00072112 1.051e-17)
(1.0004 -0.00066042 1.2145e-17)
(1.0011 -0.00071837 -3.962e-18)
(0.99838 9.4541e-05 -1.8176e-17)
(1.0119 0.00084388 2.1926e-17)
(0.96798 0.0013314 3.8005e-18)
(1.0361 0.012799 -3.2734e-18)
(0.99673 0.0059695 1.0342e-17)
(0.98028 0.041924 -1.3919e-18)
(0.9998 0.00015878 5.8753e-18)
(0.99986 -0.00022165 6.6794e-18)
(0.99999 -0.00046036 -7.3014e-18)
(1.0002 -0.00074451 -6.5473e-18)
(1.0004 -0.0006843 -1.7428e-17)
(1.0011 -0.00074418 -6.8052e-18)
(0.99818 8.0943e-05 8.9615e-18)
(1.0127 0.00090817 -3.5168e-17)
(0.96754 0.0011787 9.2996e-18)
(1.0342 0.012976 -3.8696e-18)
(0.99949 0.0064257 -1.0951e-17)
(0.98265 0.041433 4.0419e-18)
(0.99979 0.00016286 -2.5931e-18)
(0.99985 -0.00022885 -1.1736e-17)
(0.99998 -0.00047572 -7.0768e-18)
(1.0002 -0.00076812 -1.2425e-17)
(1.0004 -0.00070863 -5.3216e-18)
(1.0012 -0.00077021 2.001e-17)
(0.99797 6.46e-05 -8.8033e-18)
(1.0135 0.00097872 3.9122e-17)
(0.96723 0.001014 8.7672e-18)
(1.0323 0.013129 1.1742e-17)
(1.0019 0.0068733 4.616e-18)
(0.985 0.040977 -6.5539e-18)
(0.99978 0.00016691 -1.3755e-18)
(0.99984 -0.00023614 8.7278e-18)
(0.99998 -0.00049128 1.4022e-17)
(1.0002 -0.00079198 3.3499e-17)
(1.0004 -0.00073344 7.0539e-18)
(1.0013 -0.00079643 -1.3725e-17)
(0.99775 4.527e-05 4.2482e-18)
(1.0143 0.0010558 -4.2088e-17)
(0.96703 0.00083767 -1.0633e-17)
(1.0303 0.01326 -6.5291e-18)
(1.0041 0.0073093 4.528e-18)
(0.9873 0.04055 6.5893e-18)
(0.99977 0.00017095 1.0527e-18)
(0.99983 -0.00024351 2.0663e-18)
(0.99997 -0.00050705 -1.3771e-17)
(1.0003 -0.00081607 -5.5799e-18)
(1.0004 -0.00075875 8.9571e-18)
(1.0014 -0.00082279 1.6429e-17)
(0.99752 2.2704e-05 1.4772e-17)
(1.0151 0.0011395 4.1662e-18)
(0.96696 0.00065056 1.1895e-17)
(1.0282 0.013367 -3.0256e-18)
(1.0059 0.0077309 -8.0832e-18)
(0.98952 0.040148 -1.6994e-18)
(0.99975 0.00017497 -4.3109e-20)
(0.99981 -0.00025098 2.355e-18)
(0.99996 -0.00052304 3.0776e-18)
(1.0003 -0.00084041 -7.2441e-18)
(1.0004 -0.00078458 8.3695e-20)
(1.0015 -0.00084926 -1.4896e-17)
(0.99727 -3.3504e-06 -9.9923e-18)
(1.0158 0.0012302 3.082e-17)
(0.967 0.00045345 -1.7974e-17)
(1.0261 0.013453 1.1749e-17)
(1.0075 0.0081356 4.2687e-18)
(0.99163 0.039766 -4.7982e-18)
(0.99974 0.00017897 -3.2609e-18)
(0.9998 -0.00025854 -1.1044e-17)
(0.99996 -0.00053925 7.8581e-18)
(1.0003 -0.00086501 -1.9785e-17)
(1.0004 -0.00081096 -2.2653e-17)
(1.0015 -0.00087579 -2.0578e-17)
(0.99702 -3.3151e-05 -2.0364e-17)
(1.0166 0.0013278 -3.1563e-18)
(0.96717 0.00024727 1.5708e-17)
(1.024 0.013516 -1.0079e-17)
(1.0088 0.0085215 4.2404e-19)
(0.99363 0.0394 4.5189e-18)
(0.99973 0.00018296 6.2939e-18)
(0.99979 -0.0002662 1.1543e-17)
(0.99995 -0.00055568 -1.2673e-17)
(1.0003 -0.00088986 1.6244e-17)
(1.0004 -0.0008379 -2.6571e-18)
(1.0016 -0.00090234 1.3488e-17)
(0.99676 -6.6959e-05 2.4478e-17)
(1.0173 0.0014324 -2.3907e-17)
(0.96746 3.303e-05 -7.964e-18)
(1.0219 0.013559 1.0643e-17)
(1.0099 0.0088866 3.6884e-18)
(0.99549 0.039046 -2.1375e-18)
(0.99971 0.00018692 -4.7228e-18)
(0.99978 -0.00027395 -3.4112e-18)
(0.99994 -0.00057234 -2.6503e-18)
(1.0003 -0.00091498 1.8587e-17)
(1.0004 -0.00086543 -5.6881e-18)
(1.0017 -0.00092885 -1.7101e-19)
(0.99649 -0.00010503 -4.7898e-18)
(1.018 0.0015442 1.9149e-17)
(0.96787 -0.00018816 -7.5607e-18)
(1.0198 0.01358 -7.3086e-18)
(1.0107 0.0092296 -1.0903e-17)
(0.9972 0.0387 2.484e-18)
(0.9997 0.00019086 3.2105e-18)
(0.99977 -0.00028181 -4.3256e-18)
(0.99993 -0.00058924 6.0663e-18)
(1.0003 -0.00094038 -2.8203e-17)
(1.0004 -0.00089358 3.8532e-17)
(1.0019 -0.00095526 5.5887e-18)
(0.99621 -0.00014763 1.8898e-17)
(1.0186 0.0016629 -1.1849e-17)
(0.96838 -0.00041512 1.0057e-19)
(1.0178 0.013582 5.4354e-18)
(1.0114 0.009549 -2.1203e-18)
(0.99878 0.03836 -9.3465e-19)
(0.99968 0.00019479 -9.1842e-19)
(0.99975 -0.00028978 8.4559e-19)
(0.99992 -0.00060639 1.4782e-17)
(1.0003 -0.00096605 7.6887e-18)
(1.0004 -0.00092237 -1.9264e-17)
(1.002 -0.00098152 -1.0947e-17)
(0.99593 -0.00019501 3.2995e-18)
(1.0193 0.0017886 -5.7603e-18)
(0.96901 -0.00064659 1.265e-17)
(1.0158 0.013564 -3.568e-18)
(1.0118 0.009844 1.0207e-17)
(1.0002 0.038023 -3.4103e-18)
(0.99967 0.0001987 -1.5987e-18)
(0.99974 -0.00029785 -8.1512e-18)
(0.99991 -0.00062378 -4.395e-18)
(1.0003 -0.000992 3.0878e-17)
(1.0004 -0.00095183 -1.7164e-17)
(1.0021 -0.0010076 -9.2753e-19)
(0.99564 -0.00024742 -4.9345e-17)
(1.0199 0.0019211 5.6625e-18)
(0.96974 -0.00088127 -2.3654e-17)
(1.0139 0.013527 -7.7058e-18)
(1.0121 0.010114 -1.0205e-17)
(1.0015 0.037686 2.025e-18)
(0.99965 0.00020258 -6.9026e-19)
(0.99973 -0.00030604 5.05e-18)
(0.99991 -0.00064142 -1.8142e-18)
(1.0003 -0.0010182 -1.7979e-17)
(1.0004 -0.00098199 2.4666e-17)
(1.0022 -0.0010333 -2.2797e-18)
(0.99534 -0.0003051 2.6138e-17)
(1.0204 0.0020602 -3.4808e-18)
(0.97057 -0.0011178 1.1485e-17)
(1.012 0.013473 9.6378e-18)
(1.0123 0.010358 8.4179e-18)
(1.0026 0.037347 -4.8952e-19)
(0.99963 0.00020645 3.9127e-18)
(0.99971 -0.00031433 -3.0218e-18)
(0.9999 -0.00065933 -6.3478e-18)
(1.0003 -0.0010448 1.9624e-17)
(1.0004 -0.0010129 1.8106e-18)
(1.0023 -0.0010587 2.8261e-17)
(0.99505 -0.00036828 4.5088e-18)
(1.021 0.0022056 1.663e-17)
(0.97148 -0.0013548 4.3085e-18)
(1.0102 0.013401 -3.1184e-18)
(1.0123 0.010575 1.095e-18)
(1.0036 0.037006 4.4315e-19)
(0.99962 0.0002103 1.1158e-18)
(0.9997 -0.00032275 1.2353e-18)
(0.99989 -0.0006775 -5.7565e-18)
(1.0003 -0.0010716 -3.9081e-17)
(1.0004 -0.0010445 5.4828e-18)
(1.0025 -0.0010837 2.4516e-18)
(0.99475 -0.00043717 -1.955e-17)
(1.0215 0.002357 2.3392e-19)
(0.97248 -0.001591 1.2694e-17)
(1.0086 0.013313 -2.0049e-18)
(1.0122 0.010767 -5.3308e-18)
(1.0045 0.036659 2.6115e-18)
(0.9996 0.00021413 -4.7778e-18)
(0.99968 -0.00033129 5.2368e-18)
(0.99988 -0.00069594 9.4863e-19)
(1.0003 -0.0010988 2.1702e-17)
(1.0004 -0.001077 -2.501e-17)
(1.0026 -0.0011082 -1.0826e-17)
(0.99445 -0.00051198 1.9996e-17)
(1.0219 0.002514 -1.1264e-17)
(0.97356 -0.0018249 -2.0068e-17)
(1.007 0.01321 -9.9071e-18)
(1.012 0.010932 6.7887e-18)
(1.0052 0.036307 8.7011e-19)
(0.99958 0.00021794 -5.0566e-19)
(0.99966 -0.00033995 -5.27e-18)
(0.99986 -0.00071466 1.0107e-17)
(1.0003 -0.0011262 9.6235e-18)
(1.0004 -0.0011102 3.0892e-17)
(1.0027 -0.0011322 4.1595e-18)
(0.99415 -0.00059289 1.776e-17)
(1.0223 0.0026762 2.8557e-17)
(0.9747 -0.0020552 -8.8643e-19)
(1.0056 0.013092 1.7426e-17)
(1.0117 0.011072 -7.1847e-19)
(1.0059 0.035947 -2.5406e-18)
(0.99956 0.00022172 4.9007e-18)
(0.99965 -0.00034874 -7.6731e-18)
(0.99985 -0.00073367 -1.5342e-17)
(1.0003 -0.001154 -2.5571e-18)
(1.0004 -0.0011444 -3.353e-17)
(1.0029 -0.0011554 -1.2376e-17)
(0.99385 -0.00068004 -6.1649e-18)
(1.0226 0.0028431 2.138e-19)
(0.9759 -0.0022805 2.6115e-17)
(1.0042 0.012961 4.0156e-18)
(1.0114 0.011186 -9.3149e-18)
(1.0064 0.035579 1.5232e-18)
(0.99954 0.00022549 -5.4944e-18)
(0.99963 -0.00035766 9.5848e-18)
(0.99984 -0.00075297 8.0307e-18)
(1.0003 -0.0011821 -5.0965e-18)
(1.0004 -0.0011794 2.6966e-17)
(1.003 -0.001178 1.4807e-17)
(0.99356 -0.00077359 -4.8733e-18)
(1.0229 0.0030141 -2.8779e-17)
(0.97715 -0.0024997 -8.8788e-19)
(1.003 0.012818 -1.1475e-17)
(1.011 0.011274 1.1027e-17)
(1.0069 0.035203 -1.9954e-18)
(0.99953 0.00022924 3.3016e-18)
(0.99961 -0.00036672 -1.8343e-18)
(0.99983 -0.00077256 1.0635e-17)
(1.0003 -0.0012105 -2.1445e-17)
(1.0003 -0.0012154 8.8066e-18)
(1.0032 -0.0011998 -5.3188e-18)
(0.99327 -0.00087362 -1.05e-17)
(1.0232 0.0031886 -2.3105e-18)
(0.97845 -0.0027114 -3.1515e-17)
(1.0019 0.012663 7.5707e-18)
(1.0106 0.011339 -1.0096e-17)
(1.0073 0.034818 6.6536e-19)
(0.99951 0.00023297 2.6111e-19)
(0.9996 -0.00037592 -5.7706e-18)
(0.99982 -0.00079246 6.0398e-18)
(1.0003 -0.0012393 2.8227e-17)
(1.0003 -0.0012523 -2.0974e-17)
(1.0033 -0.0012208 1.7112e-17)
(0.99299 -0.00098023 -6.0709e-18)
(1.0234 0.003366 5.3494e-18)
(0.97978 -0.0029147 3.7442e-17)
(1.0009 0.012498 -1.4054e-17)
(1.0102 0.01138 1.543e-17)
(1.0076 0.034424 1.8824e-18)
(0.99948 0.00023668 4.6865e-19)
(0.99958 -0.00038526 -1.1947e-18)
(0.9998 -0.00081267 -8.6885e-18)
(1.0003 -0.0012684 -4.2488e-18)
(1.0003 -0.0012902 1.8282e-17)
(1.0035 -0.0012408 1.3704e-19)
(0.99271 -0.0010934 -1.1933e-17)
(1.0235 0.0035454 -1.2772e-17)
(0.98113 -0.0031085 -1.5673e-17)
(1.0001 0.012325 -1.3267e-18)
(1.0098 0.011398 2.8238e-18)
(1.0079 0.03402 1.9666e-19)
(0.99946 0.00024037 -7.5402e-19)
(0.99956 -0.00039475 1.4212e-17)
(0.99979 -0.00083319 -5.7956e-18)
(1.0003 -0.0012979 -2.4016e-17)
(1.0003 -0.0013292 8.4297e-18)
(1.0037 -0.0012599 -4.3599e-17)
(0.99245 -0.0012133 5.9525e-18)
(1.0236 0.0037263 8.0417e-18)
(0.9825 -0.0032919 7.2801e-19)
(0.99932 0.012143 1.4274e-17)
(1.0094 0.011395 -9.4465e-19)
(1.0081 0.033608 -5.2585e-18)
(0.99944 0.00024404 -1.9906e-19)
(0.99954 -0.0004044 -2.7878e-19)
(0.99977 -0.00085404 7.8025e-18)
(1.0003 -0.0013278 1.4827e-17)
(1.0003 -0.0013693 -3.3491e-17)
(1.0038 -0.0012779 1.883e-18)
(0.99219 -0.0013397 1.0661e-17)
(1.0237 0.0039078 1.2596e-17)
(0.98388 -0.0034641 -9.9127e-18)
(0.99869 0.011956 -1.3897e-17)
(1.009 0.011371 -1.5302e-17)
(1.0083 0.033186 5.5521e-18)
(0.99942 0.00024769 -1.3028e-18)
(0.99952 -0.0004142 3.9737e-19)
(0.99976 -0.00087522 -3.762e-18)
(1.0003 -0.001358 -9.9003e-18)
(1.0002 -0.0014105 1.8567e-17)
(1.004 -0.0012949 2.3404e-17)
(0.99194 -0.0014727 3.1093e-18)
(1.0237 0.0040891 6.384e-18)
(0.98526 -0.0036244 1.581e-17)
(0.99817 0.011763 2.3389e-18)
(1.0087 0.011327 1.1312e-17)
(1.0084 0.032756 -3.3699e-18)
(0.9994 0.00025132 2.3981e-18)
(0.9995 -0.00042416 7.3256e-19)
(0.99974 -0.00089673 -5.3769e-18)
(1.0003 -0.0013885 1.4625e-18)
(1.0002 -0.0014529 -1.0067e-17)
(1.0042 -0.0013107 -5.6138e-18)
(0.99171 -0.0016121 -1.1492e-18)
(1.0237 0.0042693 -2.8828e-17)
(0.98664 -0.0037723 3.1034e-18)
(0.99775 0.011565 -4.7419e-18)
(1.0083 0.011266 -4.6008e-18)
(1.0086 0.032318 -4.061e-18)
(0.99937 0.00025493 -4.8943e-18)
(0.99948 -0.00043428 9.5711e-19)
(0.99973 -0.00091859 2.8521e-18)
(1.0003 -0.0014195 -1.838e-17)
(1.0002 -0.0014965 -1.1477e-17)
(1.0044 -0.0013254 -2.6064e-17)
(0.99149 -0.0017578 5.546e-18)
(1.0236 0.0044475 1.1771e-17)
(0.988 -0.0039073 -3.3281e-17)
(0.99744 0.011365 2.1866e-17)
(1.008 0.011187 -4.9743e-18)
(1.0087 0.031872 2.6192e-18)
(0.99935 0.00025853 4.4929e-18)
(0.99945 -0.00044458 2.1418e-18)
(0.99971 -0.00094079 1.0969e-18)
(1.0003 -0.0014508 5.8288e-18)
(1.0002 -0.0015413 -2.536e-18)
(1.0046 -0.0013388 5.0519e-17)
(0.99129 -0.0019096 1.9912e-17)
(1.0235 0.004623 -1.8313e-17)
(0.98935 -0.0040291 3.2031e-17)
(0.99721 0.011163 -8.158e-18)
(1.0078 0.011092 -3.2799e-18)
(1.0088 0.031418 -1.3061e-18)
(0.99932 0.0002621 1.1022e-18)
(0.99943 -0.00045505 -1.3561e-17)
(0.9997 -0.00096336 2.1956e-18)
(1.0003 -0.0014826 2.618e-17)
(1.0001 -0.0015874 1.9621e-17)
(1.0047 -0.0013511 -8.1482e-19)
(0.99109 -0.0020674 -2.7586e-17)
(1.0233 0.0047948 5.5428e-18)
(0.99067 -0.0041377 -7.2238e-18)
(0.99708 0.01096 -1.1291e-17)
(1.0075 0.010983 8.3445e-18)
(1.0089 0.030958 1.218e-18)
(0.9993 0.00026566 -4.3593e-18)
(0.99941 -0.0004657 -4.5216e-18)
(0.99968 -0.00098629 -1.1894e-17)
(1.0003 -0.0015147 -2.1958e-17)
(1.0001 -0.0016348 -1.9745e-17)
(1.0049 -0.0013622 -2.2959e-17)
(0.99092 -0.0022308 5.0941e-18)
(1.0231 0.0049621 4.3114e-17)
(0.99196 -0.0042329 3.1484e-18)
(0.99703 0.010758 -9.8596e-19)
(1.0073 0.010861 -2.946e-18)
(1.009 0.030492 -3.2714e-18)
(0.99927 0.0002692 3.235e-18)
(0.99939 -0.00047654 4.1997e-18)
(0.99966 -0.0010096 1.833e-17)
(1.0003 -0.0015473 1.5208e-17)
(1.0001 -0.0016836 1.921e-17)
(1.0051 -0.001372 -8.5327e-19)
(0.99076 -0.0023995 -2.8383e-17)
(1.0228 0.0051239 -2.3305e-17)
(0.99322 -0.0043148 7.8139e-18)
(0.99706 0.010556 3.908e-18)
(1.0072 0.010726 6.6411e-18)
(1.0091 0.030021 2.5284e-18)
(0.99925 0.00027272 -2.2847e-18)
(0.99936 -0.00048757 6.589e-18)
(0.99964 -0.0010333 -1.2128e-17)
(1.0003 -0.0015803 2.2015e-18)
(1 -0.0017337 8.9333e-18)
(1.0053 -0.0013807 -2.2445e-18)
(0.99062 -0.0025733 6.3724e-18)
(1.0226 0.0052795 6.4726e-18)
(0.99444 -0.0043838 2.5719e-18)
(0.99715 0.010356 9.6603e-18)
(1.0071 0.010581 -7.9868e-18)
(1.0092 0.029545 5.1094e-19)
(0.99922 0.00027623 3.4497e-18)
(0.99934 -0.0004988 4.084e-19)
(0.99962 -0.0010573 -5.6779e-18)
(1.0003 -0.0016137 8.7652e-19)
(1 -0.0017853 -1.4668e-18)
(1.0055 -0.0013882 -2.2174e-17)
(0.99049 -0.0027519 1.7793e-17)
(1.0223 0.005428 2.2976e-17)
(0.99562 -0.0044401 -1.2803e-17)
(0.99731 0.010159 -1.3442e-17)
(1.007 0.010425 -2.3344e-18)
(1.0093 0.029065 4.3478e-18)
(0.99919 0.00027972 -2.506e-18)
(0.99931 -0.00051022 -3.1452e-19)
(0.9996 -0.0010818 7.0592e-18)
(1.0003 -0.0016475 -1.6831e-17)
(0.99997 -0.0018383 -1.3271e-17)
(1.0057 -0.0013946 2.7995e-17)
(0.99038 -0.0029347 -2.721e-18)
(1.022 0.0055686 -2.4327e-17)
(0.99676 -0.0044841 3.262e-18)
(0.99753 0.0099648 1.2656e-17)
(1.007 0.010261 7.9126e-18)
(1.0094 0.028583 -1.5677e-18)
(0.99916 0.00028319 2.4905e-19)
(0.99928 -0.00052186 2.304e-18)
(0.99958 -0.0011067 3.8575e-18)
(1.0003 -0.0016818 8.7012e-18)
(0.99993 -0.0018928 2.6015e-17)
(1.0058 -0.0014 6.5278e-18)
(0.99029 -0.0031214 -2.3693e-17)
(1.0216 0.0057006 2.2807e-18)
(0.99785 -0.0045164 8.4027e-18)
(0.99779 0.0097747 -1.1402e-17)
(1.0071 0.01009 -5.3497e-18)
(1.0096 0.028097 -1.8136e-18)
(0.99913 0.00028665 7.072e-19)
(0.99926 -0.0005337 -4.0067e-19)
(0.99956 -0.0011319 -1.0179e-17)
(1.0003 -0.0017166 -1.8718e-19)
(0.99989 -0.0019489 -5.1437e-17)
(1.006 -0.0014043 8.0491e-18)
(0.99022 -0.0033117 2.3274e-17)
(1.0212 0.0058233 -6.5516e-18)
(0.99889 -0.0045376 -8.7992e-18)
(0.9981 0.0095888 1.8934e-17)
(1.0071 0.0099117 6.4003e-18)
(1.0098 0.02761 4.7002e-18)
(0.9991 0.0002901 7.5975e-19)
(0.99923 -0.00054577 -8.3164e-19)
(0.99954 -0.0011576 1.841e-17)
(1.0003 -0.0017518 4.0138e-18)
(0.99985 -0.0020064 4.5585e-17)
(1.0062 -0.0014078 -2.8366e-17)
(0.99016 -0.0035049 -7.7942e-18)
(1.0209 0.005936 6.1677e-18)
(0.99989 -0.0045485 3.0319e-18)
(0.99844 0.0094076 -1.0654e-17)
(1.0072 0.009728 -1.0363e-18)
(1.0099 0.027121 -3.4658e-18)
(0.99907 0.00029352 -2.969e-18)
(0.9992 -0.00055806 1.3966e-18)
(0.99952 -0.0011837 -1.0821e-17)
(1.0003 -0.0017875 5.2783e-18)
(0.9998 -0.0020655 -1.7321e-17)
(1.0064 -0.0014105 3.8468e-18)
(0.99012 -0.0037008 3.1208e-17)
(1.0205 0.0060381 -2.3088e-17)
(1.0008 -0.0045497 -1.1145e-17)
(0.99882 0.0092312 -1.0538e-17)
(1.0074 0.0095395 -5.089e-18)
(1.0101 0.026632 -9.518e-19)
(0.99904 0.00029694 3.6985e-18)
(0.99917 -0.00057058 -3.3168e-18)
(0.99949 -0.0012103 -1.0503e-17)
(1.0003 -0.0018237 -8.4166e-18)
(0.99976 -0.0021262 -2.8324e-17)
(1.0066 -0.0014124 -1.7844e-17)
(0.99009 -0.0038988 -1.9135e-17)
(1.02 0.0061291 2.1468e-17)
(1.0017 -0.0045422 1.0804e-17)
(0.99922 0.0090599 1.5959e-17)
(1.0075 0.0093471 -1.9917e-18)
(1.0103 0.026143 4.594e-18)
(0.99901 0.00030034 -5.9445e-18)
(0.99914 -0.00058334 5.3745e-18)
(0.99947 -0.0012373 2.5717e-17)
(1.0003 -0.0018604 -1.9854e-18)
(0.99971 -0.0021884 3.1338e-17)
(1.0067 -0.0014139 1.3447e-18)
(0.99009 -0.0040984 -1.8328e-17)
(1.0196 0.0062086 8.405e-18)
(1.0026 -0.0045267 -3.8964e-18)
(0.99965 0.0088938 -3.3418e-18)
(1.0077 0.0091515 6.462e-18)
(1.0105 0.025655 -3.1067e-18)
(0.99898 0.00030373 4.8716e-18)
(0.99911 -0.00059635 -7.3043e-18)
(0.99944 -0.0012647 -2.9985e-17)
(1.0003 -0.0018977 1.2989e-17)
(0.99966 -0.0022523 -2.2329e-17)
(1.0069 -0.0014148 2.4668e-17)
(0.9901 -0.0042992 5.9737e-18)
(1.0192 0.0062761 -8.0001e-18)
(1.0034 -0.0045042 -1.8702e-18)
(1.0001 0.0087328 -8.3691e-18)
(1.008 0.0089533 -1.0534e-17)
(1.0108 0.025168 4.2941e-18)
(0.99894 0.00030711 -3.5886e-18)
(0.99908 -0.0006096 2.4289e-18)
(0.99942 -0.0012926 1.8221e-17)
(1.0003 -0.0019354 -1.7122e-17)
(0.99961 -0.0023177 3.5931e-17)
(1.0071 -0.0014155 -1.9148e-17)
(0.99012 -0.0045007 3.4824e-18)
(1.0187 0.0063313 -1.2648e-17)
(1.0041 -0.0044757 6.1044e-18)
(1.0005 0.0085769 -1.1709e-18)
(1.0082 0.0087532 4.5093e-18)
(1.011 0.024682 -1.9094e-18)
(0.99891 0.00031048 4.4016e-18)
(0.99905 -0.00062312 1.8912e-18)
(0.99939 -0.0013209 -1.2149e-17)
(1.0003 -0.0019738 -3.4851e-19)
(0.99956 -0.0023848 -1.585e-18)
(1.0072 -0.0014161 4.6304e-18)
(0.99016 -0.0047026 3.3071e-17)
(1.0183 0.006374 8.6521e-18)
(1.0048 -0.004442 -1.8094e-17)
(1.001 0.0084258 -6.0695e-18)
(1.0085 0.0085516 -4.2402e-18)
(1.0113 0.024198 2.0066e-18)
(0.99887 0.00031384 -5.0454e-18)
(0.99901 -0.00063689 -7.0085e-18)
(0.99937 -0.0013497 5.0967e-18)
(1.0003 -0.0020127 1.4817e-17)
(0.9995 -0.0024535 -3.2598e-17)
(1.0074 -0.0014166 1.556e-17)
(0.99022 -0.0049042 -3.1842e-17)
(1.0179 0.006404 1.0382e-17)