/*--------------------------------*- C++ -*----------------------------------*\
  =========                 |
  \\      /  F ield         | OpenFOAM: The Open Source CFD Toolbox
   \\    /   O peration     | Website:  https://openfoam.org
    \\  /    A nd           | Version:  6.0
     \\/     M anipulation  |
\*---------------------------------------------------------------------------*/
FoamFile
{
    version     2.0;
    format      ascii;
    class       surfaceScalarField;
    location    "1.77";
    object      phi;
}
// * * * * * * * * * * * * * * * * * * * * * * * * * * * * * * * * * * * * * //

dimensions      [0 3 -1 0 0 0 0];

internalField   nonuniform List<scalar> 
26699
(
2.0051e-05
0.005201
4.0915e-10
4.0126e-05
0.0051116
5.9639e-05
0.0049351
7.8186e-05
0.0046741
9.5416e-05
0.0043332
0.00011102
0.0039182
0.00012472
0.0034362
0.00013626
0.0028953
0.00014546
0.002305
0.00015182
0.0016755
0.00015718
0.0010154
0.00046489
3.45e-05
2.0051e-05
0.0051809
1.2835e-09
4.0127e-05
0.0050916
5.9641e-05
0.0049155
7.8189e-05
0.0046556
9.5419e-05
0.004316
0.00011102
0.0039026
0.00012471
0.0034225
0.00013624
0.0028838
0.00014545
0.0022958
0.00015107
0.0016699
0.00015894
0.0010075
0.00055859
6.5238e-05
2.0052e-05
0.0051609
2.2353e-09
4.0128e-05
0.0050715
5.9643e-05
0.004896
7.8192e-05
0.004637
9.5422e-05
0.0042988
0.00011102
0.003887
0.00012471
0.0034088
0.00013622
0.0028723
0.00014546
0.0022865
0.00015031
0.001665
0.00016024
0.0009976
0.00062834
9.0497e-05
2.0052e-05
0.0051408
3.1948e-09
4.013e-05
0.0050514
5.9646e-05
0.0048765
7.8195e-05
0.0046185
9.5425e-05
0.0042815
0.00011102
0.0038714
0.0001247
0.0033951
0.00013619
0.0028608
0.00014549
0.0022772
0.00014958
0.0016609
0.000161
0.00098617
0.00067855
0.00011079
2.0052e-05
0.0051208
4.1551e-09
4.0131e-05
0.0050313
5.9648e-05
0.004857
7.8198e-05
0.0045999
9.5427e-05
0.0042643
0.00011102
0.0038558
0.0001247
0.0033814
0.00013616
0.0028494
0.00014555
0.0022678
0.0001489
0.0016576
0.00016125
0.00097382
0.00071291
0.00012689
2.0052e-05
0.0051007
5.1165e-09
4.0133e-05
0.0050112
5.965e-05
0.0048375
7.8201e-05
0.0045814
9.543e-05
0.0042471
0.00011103
0.0038402
0.0001247
0.0033678
0.00013613
0.0028379
0.00014563
0.0022583
0.00014828
0.0016549
0.00016105
0.00096105
0.00073446
0.0001395
2.0052e-05
0.0050807
6.0788e-09
4.0134e-05
0.0049912
5.9653e-05
0.004818
7.8204e-05
0.0045628
9.5433e-05
0.0042299
0.00011103
0.0038246
0.0001247
0.0033541
0.0001361
0.0028265
0.00014573
0.0022487
0.00014776
0.0016529
0.0001605
0.00094831
0.00074577
0.00014918
2.0053e-05
0.0050606
7.0421e-09
4.0135e-05
0.0049711
5.9655e-05
0.0047984
7.8207e-05
0.0045443
9.5436e-05
0.0042126
0.00011103
0.003809
0.0001247
0.0033404
0.00013607
0.0028151
0.00014584
0.0022389
0.00014733
0.0016514
0.00015968
0.00093596
0.00074903
0.00015643
2.0053e-05
0.0050405
8.0064e-09
4.0137e-05
0.004951
5.9657e-05
0.0047789
7.821e-05
0.0045257
9.5439e-05
0.0041954
0.00011103
0.0037934
0.0001247
0.0033267
0.00013603
0.0028038
0.00014595
0.002229
0.00014702
0.0016503
0.00015869
0.00092428
0.00074604
0.00016168
2.0053e-05
0.0050205
8.9717e-09
4.0138e-05
0.0049309
5.966e-05
0.0047594
7.8213e-05
0.0045072
9.5442e-05
0.0041782
0.00011103
0.0037778
0.0001247
0.0033131
0.00013599
0.0027925
0.00014607
0.0022189
0.00014681
0.0016496
0.00015761
0.00091347
0.00073832
0.00016532
2.0053e-05
0.0050004
9.938e-09
4.0139e-05
0.0049108
5.9662e-05
0.0047399
7.8216e-05
0.0044886
9.5445e-05
0.0041609
0.00011104
0.0037623
0.0001247
0.0032994
0.00013594
0.0027813
0.00014618
0.0022087
0.0001467
0.0016491
0.00015649
0.00090369
0.00072713
0.00016768
2.0053e-05
0.0049804
1.0905e-08
4.0141e-05
0.0048907
5.9664e-05
0.0047204
7.8219e-05
0.0044701
9.5448e-05
0.0041437
0.00011104
0.0037467
0.00012471
0.0032857
0.0001359
0.0027701
0.00014629
0.0021983
0.0001467
0.0016487
0.00015539
0.000895
0.00071349
0.00016903
2.0054e-05
0.0049603
1.1874e-08
4.0142e-05
0.0048707
5.9667e-05
0.0047008
7.8223e-05
0.0044515
9.5452e-05
0.0041265
0.00011104
0.0037311
0.00012471
0.0032721
0.00013585
0.002759
0.00014639
0.0021878
0.00014678
0.0016483
0.00015435
0.00088744
0.00069823
0.00016961
2.0054e-05
0.0049402
1.2843e-08
4.0144e-05
0.0048506
5.9669e-05
0.0046813
7.8226e-05
0.0044329
9.5455e-05
0.0041092
0.00011104
0.0037155
0.00012472
0.0032584
0.00013581
0.0027479
0.00014647
0.0021771
0.00014695
0.0016478
0.00015339
0.00088099
0.00068202
0.00016961
2.0054e-05
0.0049202
1.3814e-08
4.0145e-05
0.0048305
5.9671e-05
0.0046618
7.8229e-05
0.0044144
9.5458e-05
0.004092
0.00011104
0.0036999
0.00012473
0.0032447
0.00013576
0.0027368
0.00014654
0.0021663
0.00014719
0.0016472
0.00015255
0.00087562
0.00066538
0.00016919
2.0054e-05
0.0049001
1.4786e-08
4.0146e-05
0.0048104
5.9674e-05
0.0046423
7.8232e-05
0.0043958
9.5461e-05
0.0040748
0.00011104
0.0036843
0.00012473
0.003231
0.00013571
0.0027259
0.0001466
0.0021554
0.00014748
0.0016463
0.00015184
0.00087127
0.00064873
0.00016849
2.0055e-05
0.00488
1.5759e-08
4.0148e-05
0.0047903
5.9676e-05
0.0046227
7.8235e-05
0.0043773
9.5465e-05
0.0040576
0.00011105
0.0036687
0.00012474
0.0032173
0.00013566
0.0027149
0.00014664
0.0021445
0.00014782
0.0016451
0.00015125
0.00086783
0.00063238
0.0001676
2.0055e-05
0.0048599
1.6733e-08
4.0149e-05
0.0047702
5.9678e-05
0.0046032
7.8238e-05
0.0043587
9.5468e-05
0.0040403
0.00011105
0.0036532
0.00012475
0.0032036
0.00013562
0.0027041
0.00014666
0.0021334
0.00014819
0.0016436
0.00015079
0.00086523
0.00061655
0.00016662
2.0055e-05
0.0048399
1.7709e-08
4.015e-05
0.0047501
5.9681e-05
0.0045837
7.8241e-05
0.0043401
9.5472e-05
0.0040231
0.00011105
0.0036376
0.00012476
0.0031899
0.00013558
0.0026933
0.00014666
0.0021223
0.00014858
0.0016417
0.00015046
0.00086335
0.0006014
0.0001656
2.0055e-05
0.0048198
1.8686e-08
4.0152e-05
0.00473
5.9683e-05
0.0045641
7.8245e-05
0.0043216
9.5475e-05
0.0040059
0.00011105
0.003622
0.00012478
0.0031762
0.00013554
0.0026825
0.00014665
0.0021112
0.00014898
0.0016393
0.00015024
0.0008621
0.00058705
0.00016459
2.0055e-05
0.0047997
1.9665e-08
4.0153e-05
0.0047099
5.9685e-05
0.0045446
7.8248e-05
0.004303
9.5479e-05
0.0039886
0.00011105
0.0036064
0.00012479
0.0031624
0.0001355
0.0026718
0.00014662
0.0021001
0.00014938
0.0016366
0.00015012
0.00086136
0.00057355
0.00016362
2.0056e-05
0.0047796
2.0646e-08
4.0154e-05
0.0046898
5.9688e-05
0.0045251
7.8251e-05
0.0042845
9.5483e-05
0.0039714
0.00011106
0.0035909
0.0001248
0.0031487
0.00013547
0.0026611
0.00014657
0.002089
0.00014978
0.0016334
0.00015011
0.00086103
0.00056093
0.00016273
2.0056e-05
0.0047596
2.1628e-08
4.0156e-05
0.0046697
5.969e-05
0.0045055
7.8254e-05
0.0042659
9.5486e-05
0.0039542
0.00011106
0.0035753
0.00012482
0.0031349
0.00013545
0.0026505
0.00014651
0.0020779
0.00015016
0.0016297
0.00015017
0.00086102
0.00054918
0.00016192
2.0056e-05
0.0047395
2.2612e-08
4.0157e-05
0.0046496
5.9693e-05
0.004486
7.8258e-05
0.0042473
9.549e-05
0.0039369
0.00011106
0.0035597
0.00012483
0.0031212
0.00013543
0.0026399
0.00014644
0.0020669
0.00015052
0.0016256
0.00015031
0.00086123
0.00053828
0.0001612
2.0056e-05
0.0047194
2.3597e-08
4.0159e-05
0.0046295
5.9695e-05
0.0044665
7.8261e-05
0.0042288
9.5494e-05
0.0039197
0.00011106
0.0035442
0.00012484
0.0031074
0.00013541
0.0026293
0.00014636
0.002056
0.00015086
0.0016211
0.0001505
0.0008616
0.00052819
0.00016058
2.0056e-05
0.0046993
2.4585e-08
4.016e-05
0.0046094
5.9697e-05
0.0044469
7.8264e-05
0.0042102
9.5498e-05
0.0039025
0.00011106
0.0035286
0.00012486
0.0030936
0.0001354
0.0026188
0.00014627
0.0020451
0.00015117
0.0016162
0.00015073
0.00086204
0.00051886
0.00016006
2.0056e-05
0.0046792
2.5574e-08
4.0161e-05
0.0045893
5.97e-05
0.0044274
7.8268e-05
0.0041916
9.5502e-05
0.0038852
0.00011106
0.003513
0.00012487
0.0030798
0.00013539
0.0026083
0.00014617
0.0020343
0.00015146
0.0016109
0.000151
0.0008625
0.00051024
0.00015962
2.0057e-05
0.0046592
2.6566e-08
4.0163e-05
0.0045692
5.9702e-05
0.0044078
7.8271e-05
0.0041731
9.5506e-05
0.003868
0.00011107
0.0034975
0.00012489
0.003066
0.00013539
0.0025978
0.00014607
0.0020237
0.00015171
0.0016053
0.00015129
0.00086292
0.00050225
0.00015927
2.0057e-05
0.0046391
2.7559e-08
4.0164e-05
0.0045491
5.9705e-05
0.0043883
7.8274e-05
0.0041545
9.5511e-05
0.0038508
0.00011107
0.0034819
0.0001249
0.0030521
0.0001354
0.0025873
0.00014596
0.0020131
0.00015193
0.0015993
0.00015159
0.00086326
0.00049485
0.000159
2.0057e-05
0.004619
2.8555e-08
4.0165e-05
0.004529
5.9707e-05
0.0043688
7.8278e-05
0.0041359
9.5515e-05
0.0038335
0.00011107
0.0034664
0.00012492
0.0030383
0.00013541
0.0025768
0.00014586
0.0020026
0.00015212
0.0015931
0.0001519
0.00086348
0.00048797
0.00015879
2.0057e-05
0.0045989
2.9552e-08
4.0167e-05
0.0045089
5.971e-05
0.0043492
7.8281e-05
0.0041173
9.5519e-05
0.0038163
0.00011107
0.0034508
0.00012493
0.0030244
0.00013542
0.0025663
0.00014575
0.0019923
0.00015229
0.0015865
0.00015222
0.00086355
0.00048154
0.00015864
2.0057e-05
0.0045788
3.0552e-08
4.0168e-05
0.0044888
5.9712e-05
0.0043297
7.8285e-05
0.0040988
9.5524e-05
0.0037991
0.00011107
0.0034353
0.00012494
0.0030105
0.00013544
0.0025558
0.00014565
0.0019821
0.00015243
0.0015797
0.00015252
0.00086345
0.00047553
0.00015854
2.0058e-05
0.0045587
3.1555e-08
4.017e-05
0.0044686
5.9715e-05
0.0043101
7.8288e-05
0.0040802
9.5529e-05
0.0037818
0.00011107
0.0034197
0.00012496
0.0029966
0.00013546
0.0025453
0.00014555
0.001972
0.00015254
0.0015727
0.00015282
0.00086317
0.00046987
0.00015848
2.0058e-05
0.0045386
3.2559e-08
4.0171e-05
0.0044485
5.9717e-05
0.0042906
7.8291e-05
0.0040616
9.5533e-05
0.0037646
0.00011107
0.0034042
0.00012497
0.0029828
0.00013549
0.0025348
0.00014545
0.0019621
0.00015263
0.0015656
0.00015311
0.0008627
0.00046452
0.00015846
2.0058e-05
0.0045185
3.3567e-08
4.0172e-05
0.0044284
5.972e-05
0.004271
7.8295e-05
0.004043
9.5538e-05
0.0037473
0.00011108
0.0033886
0.00012498
0.0029688
0.00013552
0.0025242
0.00014536
0.0019522
0.0001527
0.0015582
0.00015338
0.00086202
0.00045943
0.00015846
2.0058e-05
0.0044985
3.4576e-08
4.0174e-05
0.0044083
5.9722e-05
0.0042515
7.8298e-05
0.0040245
9.5543e-05
0.0037301
0.00011108
0.0033731
0.00012499
0.0029549
0.00013555
0.0025137
0.00014528
0.0019425
0.00015276
0.0015507
0.00015363
0.00086114
0.00045457
0.00015849
2.0059e-05
0.0044784
3.5589e-08
4.0175e-05
0.0043882
5.9725e-05
0.0042319
7.8302e-05
0.0040059
9.5548e-05
0.0037128
0.00011108
0.0033576
0.000125
0.002941
0.00013559
0.0025031
0.0001452
0.0019329
0.0001528
0.0015431
0.00015387
0.00086007
0.00044991
0.00015854
2.0059e-05
0.0044583
3.6604e-08
4.0177e-05
0.0043681
5.9727e-05
0.0042124
7.8306e-05
0.0039873
9.5554e-05
0.0036956
0.00011108
0.003342
0.00012501
0.0029271
0.00013563
0.0024925
0.00014513
0.0019234
0.00015283
0.0015354
0.0001541
0.00085879
0.00044542
0.00015859
2.0059e-05
0.0044382
3.7622e-08
4.0178e-05
0.0043479
5.973e-05
0.0041928
7.8309e-05
0.0039687
9.5559e-05
0.0036783
0.00011108
0.0033265
0.00012502
0.0029131
0.00013567
0.0024818
0.00014507
0.001914
0.00015284
0.0015277
0.00015431
0.00085733
0.00044106
0.00015866
2.0059e-05
0.0044181
3.8643e-08
4.018e-05
0.0043278
5.9733e-05
0.0041733
7.8313e-05
0.0039502
9.5565e-05
0.0036611
0.00011108
0.003311
0.00012503
0.0028992
0.00013571
0.0024711
0.00014501
0.0019047
0.00015286
0.0015198
0.0001545
0.00085569
0.00043683
0.00015873
2.0059e-05
0.004398
3.9666e-08
4.0181e-05
0.0043077
5.9735e-05
0.0041537
7.8316e-05
0.0039316
9.557e-05
0.0036438
0.00011109
0.0032955
0.00012504
0.0028852
0.00013575
0.0024604
0.00014497
0.0018955
0.00015286
0.0015119
0.00015468
0.00085387
0.00043269
0.00015881
2.006e-05
0.0043779
4.0693e-08
4.0182e-05
0.0042876
5.9738e-05
0.0041342
7.832e-05
0.003913
9.5576e-05
0.0036266
0.00011109
0.00328
0.00012505
0.0028713
0.00013579
0.0024497
0.00014493
0.0018863
0.00015286
0.001504
0.00015484
0.0008519
0.00042865
0.00015889
2.006e-05
0.0043578
4.1723e-08
4.0184e-05
0.0042675
5.9741e-05
0.0041146
7.8323e-05
0.0038944
9.5582e-05
0.0036093
0.00011109
0.0032645
0.00012506
0.0028573
0.00013584
0.0024389
0.0001449
0.0018773
0.00015286
0.001496
0.00015499
0.00084977
0.00042468
0.00015896
2.006e-05
0.0043377
4.2756e-08
4.0185e-05
0.0042473
5.9743e-05
0.0040951
7.8327e-05
0.0038758
9.5588e-05
0.0035921
0.00011109
0.003249
0.00012507
0.0028433
0.00013588
0.0024281
0.00014488
0.0018683
0.00015286
0.0014881
0.00015514
0.00084749
0.00042077
0.00015904
2.006e-05
0.0043176
4.3792e-08
4.0187e-05
0.0042272
5.9746e-05
0.0040755
7.8331e-05
0.0038572
9.5595e-05
0.0035748
0.0001111
0.0032335
0.00012507
0.0028293
0.00013592
0.0024172
0.00014486
0.0018593
0.00015286
0.0014801
0.00015527
0.00084509
0.00041692
0.00015912
2.006e-05
0.0042975
4.4832e-08
4.0188e-05
0.0042071
5.9749e-05
0.0040559
7.8334e-05
0.0038387
9.5601e-05
0.0035575
0.0001111
0.003218
0.00012508
0.0028154
0.00013597
0.0024064
0.00014485
0.0018505
0.00015286
0.001472
0.00015539
0.00084255
0.00041312
0.00015919
2.0061e-05
0.0042773
4.5875e-08
4.019e-05
0.0041869
5.9752e-05
0.0040364
7.8338e-05
0.0038201
9.5608e-05
0.0035403
0.0001111
0.0032025
0.00012508
0.0028014
0.00013601
0.0023954
0.00014484
0.0018416
0.00015286
0.001464
0.00015551
0.00083991
0.00040937
0.00015926
2.0061e-05
0.0042572
4.6922e-08
4.0191e-05
0.0041668
5.9755e-05
0.0040168
7.8342e-05
0.0038015
9.5615e-05
0.003523
0.00011111
0.003187
0.00012509
0.0027874
0.00013605
0.0023845
0.00014485
0.0018328
0.00015287
0.001456
0.00015562
0.00083716
0.00040565
0.00015933
2.0061e-05
0.0042371
4.7973e-08
4.0193e-05
0.0041467
5.9757e-05
0.0039973
7.8345e-05
0.0037829
9.5622e-05
0.0035057
0.00011111
0.0031715
0.0001251
0.0027734
0.0001361
0.0023735
0.00014485
0.0018241
0.00015287
0.001448
0.00015572
0.00083431
0.00040198
0.0001594
2.0061e-05
0.004217
4.9027e-08
4.0194e-05
0.0041265
5.976e-05
0.0039777
7.8349e-05
0.0037643
9.5629e-05
0.0034884
0.00011111
0.003156
0.0001251
0.0027594
0.00013614
0.0023624
0.00014486
0.0018154
0.00015288
0.00144
0.00015582
0.00083137
0.00039833
0.00015946
2.0062e-05
0.0041969
5.0085e-08
4.0196e-05
0.0041064
5.9763e-05
0.0039581
7.8352e-05
0.0037457
9.5636e-05
0.0034711
0.00011112
0.0031405
0.00012511
0.0027454
0.00013618
0.0023513
0.00014488
0.0018067
0.00015289
0.001432
0.00015591
0.00082834
0.00039473
0.00015952
2.0062e-05
0.0041768
5.1147e-08
4.0197e-05
0.0040863
5.9766e-05
0.0039385
7.8356e-05
0.0037271
9.5644e-05
0.0034539
0.00011112
0.003125
0.00012511
0.0027314
0.00013622
0.0023402
0.0001449
0.001798
0.0001529
0.0014239
0.000156
0.00082524
0.00039115
0.00015958
2.0062e-05
0.0041567
5.2213e-08
4.0199e-05
0.0040661
5.9769e-05
0.003919
7.836e-05
0.0037085
9.5651e-05
0.0034366
0.00011112
0.0031096
0.00012511
0.0027175
0.00013626
0.0023291
0.00014492
0.0017893
0.00015292
0.0014159
0.00015609
0.00082207
0.00038761
0.00015964
2.0062e-05
0.0041366
5.3283e-08
4.02e-05
0.004046
5.9772e-05
0.0038994
7.8363e-05
0.0036899
9.5659e-05
0.0034193
0.00011113
0.0030941
0.00012512
0.0027035
0.0001363
0.0023179
0.00014494
0.0017807
0.00015294
0.0014079
0.00015618
0.00081882
0.00038409
0.00015969
2.0063e-05
0.0041165
5.4358e-08
4.0202e-05
0.0040259
5.9776e-05
0.0038798
7.8367e-05
0.0036714
9.5667e-05
0.003402
0.00011113
0.0030786
0.00012512
0.0026895
0.00013634
0.0023067
0.00014497
0.0017721
0.00015296
0.0014
0.00015626
0.00081552
0.00038061
0.00015974
2.0063e-05
0.0040963
5.5436e-08
4.0203e-05
0.0040057
5.9779e-05
0.0038603
7.8371e-05
0.0036528
9.5675e-05
0.0033847
0.00011114
0.0030632
0.00012513
0.0026755
0.00013638
0.0022954
0.000145
0.0017635
0.00015298
0.001392
0.00015634
0.00081216
0.00037715
0.00015979
2.0063e-05
0.0040762
5.652e-08
4.0205e-05
0.0039856
5.9782e-05
0.0038407
7.8375e-05
0.0036342
9.5683e-05
0.0033674
0.00011115
0.0030477
0.00012513
0.0026615
0.00013642
0.0022841
0.00014503
0.0017549
0.000153
0.001384
0.00015642
0.00080874
0.00037373
0.00015984
2.0064e-05
0.0040561
5.7607e-08
4.0206e-05
0.0039654
5.9785e-05
0.0038211
7.8378e-05
0.0036156
9.5692e-05
0.00335
0.00011115
0.0030322
0.00012514
0.0026475
0.00013646
0.0022728
0.00014506
0.0017463
0.00015303
0.001376
0.00015649
0.00080527
0.00037034
0.00015989
2.0064e-05
0.004036
5.87e-08
4.0208e-05
0.0039453
5.9789e-05
0.0038015
7.8382e-05
0.003597
9.57e-05
0.0033327
0.00011116
0.0030168
0.00012514
0.0026335
0.0001365
0.0022615
0.00014509
0.0017377
0.00015305
0.0013681
0.00015657
0.00080176
0.00036697
0.00015993
2.0064e-05
0.0040158
5.9797e-08
4.021e-05
0.0039252
5.9792e-05
0.0037819
7.8386e-05
0.0035784
9.5709e-05
0.0033154
0.00011117
0.0030013
0.00012514
0.0026196
0.00013653
0.0022501
0.00014513
0.0017291
0.00015308
0.0013601
0.00015664
0.00079819
0.00036363
0.00015998
2.0064e-05
0.0039957
6.0899e-08
4.0211e-05
0.003905
5.9795e-05
0.0037624
7.8389e-05
0.0035598
9.5717e-05
0.0032981
0.00011117
0.0029859
0.00012515
0.0026056
0.00013657
0.0022387
0.00014517
0.0017205
0.00015311
0.0013522
0.00015671
0.00079459
0.00036033
0.00016002
2.0065e-05
0.0039756
6.2006e-08
4.0213e-05
0.0038849
5.9799e-05
0.0037428
7.8393e-05
0.0035412
9.5726e-05
0.0032807
0.00011118
0.0029704
0.00012515
0.0025916
0.00013661
0.0022272
0.0001452
0.0017119
0.00015314
0.0013443
0.00015678
0.00079094
0.00035705
0.00016006
2.0065e-05
0.0039555
6.3118e-08
4.0214e-05
0.0038647
5.9802e-05
0.0037232
7.8397e-05
0.0035226
9.5735e-05
0.0032634
0.00011119
0.002955
0.00012516
0.0025777
0.00013664
0.0022157
0.00014524
0.0017033
0.00015317
0.0013363
0.00015685
0.00078726
0.0003538
0.0001601
2.0065e-05
0.0039353
6.4236e-08
4.0216e-05
0.0038446
5.9806e-05
0.0037036
7.8401e-05
0.003504
9.5744e-05
0.0032461
0.0001112
0.0029395
0.00012516
0.0025637
0.00013668
0.0022042
0.00014528
0.0016947
0.0001532
0.0013284
0.00015692
0.00078353
0.00035057
0.00016014
2.0066e-05
0.0039152
6.5359e-08
4.0218e-05
0.0038244
5.981e-05
0.003684
7.8405e-05
0.0034854
9.5753e-05
0.0032287
0.00011121
0.002924
0.00012517
0.0025497
0.00013671
0.0021927
0.00014532
0.0016861
0.00015323
0.0013205
0.00015698
0.00077977
0.00034738
0.00016018
2.0066e-05
0.0038951
6.6487e-08
4.0219e-05
0.0038043
5.9813e-05
0.0036644
7.8409e-05
0.0034668
9.5761e-05
0.0032114
0.00011122
0.0029086
0.00012518
0.0025358
0.00013675
0.0021811
0.00014535
0.0016774
0.00015326
0.0013126
0.00015705
0.00077598
0.00034421
0.00016022
2.0066e-05
0.0038749
6.7621e-08
4.0221e-05
0.0037841
5.9817e-05
0.0036448
7.8413e-05
0.0034482
9.577e-05
0.003194
0.00011123
0.0028931
0.00012518
0.0025218
0.00013678
0.0021695
0.00014539
0.0016688
0.00015329
0.0013047
0.00015711
0.00077215
0.00034107
0.00016026
2.0067e-05
0.0038548
6.876e-08
4.0223e-05
0.0037639
5.9821e-05
0.0036252
7.8417e-05
0.0034296
9.5779e-05
0.0031766
0.00011125
0.0028776
0.00012519
0.0025079
0.00013681
0.0021579
0.00014543
0.0016602
0.00015332
0.0012968
0.00015718
0.0007683
0.00033795
0.00016029
2.0067e-05
0.0038347
6.9905e-08
4.0224e-05
0.0037438
5.9825e-05
0.0036056
7.8421e-05
0.003411
9.5789e-05
0.0031593
0.00011126
0.0028622
0.0001252
0.0024939
0.00013685
0.0021462
0.00014547
0.0016516
0.00015335
0.001289
0.00015724
0.00076441
0.00033486
0.00016033
2.0068e-05
0.0038145
7.1057e-08
4.0226e-05
0.0037236
5.9829e-05
0.003586
7.8425e-05
0.0033924
9.5798e-05
0.0031419
0.00011127
0.0028467
0.00012521
0.00248
0.00013688
0.0021346
0.00014551
0.001643
0.00015338
0.0012811
0.0001573
0.00076049
0.0003318
0.00016036
2.0068e-05
0.0037944
7.2214e-08
4.0228e-05
0.0037035
5.9833e-05
0.0035664
7.843e-05
0.0033738
9.5807e-05
0.0031245
0.00011129
0.0028312
0.00012522
0.0024661
0.00013691
0.0021229
0.00014555
0.0016343
0.00015341
0.0012732
0.00015736
0.00075655
0.00032876
0.0001604
2.0068e-05
0.0037742
7.3378e-08
4.023e-05
0.0036833
5.9837e-05
0.0035468
7.8434e-05
0.0033552
9.5816e-05
0.0031071
0.0001113
0.0028157
0.00012523
0.0024521
0.00013695
0.0021111
0.00014559
0.0016257
0.00015344
0.0012654
0.00015741
0.00075257
0.00032574
0.00016043
2.0069e-05
0.0037541
7.4548e-08
4.0231e-05
0.0036631
5.9841e-05
0.0035272
7.8439e-05
0.0033366
9.5825e-05
0.0030898
0.00011131
0.0028003
0.00012524
0.0024382
0.00013698
0.0020994
0.00014563
0.001617
0.00015347
0.0012575
0.00015747
0.00074857
0.00032275
0.00016046
2.0069e-05
0.003734
7.5724e-08
4.0233e-05
0.003643
5.9845e-05
0.0035076
7.8444e-05
0.0033181
9.5834e-05
0.0030724
0.00011133
0.0027848
0.00012525
0.0024243
0.00013701
0.0020876
0.00014567
0.0016084
0.0001535
0.0012497
0.00015753
0.00074455
0.00031978
0.00016049
2.007e-05
0.0037138
7.6907e-08
4.0235e-05
0.0036228
5.985e-05
0.003488
7.8449e-05
0.0032995
9.5843e-05
0.003055
0.00011135
0.0027693
0.00012526
0.0024104
0.00013704
0.0020758
0.00014571
0.0015997
0.00015353
0.0012419
0.00015758
0.0007405
0.00031684
0.00016053
2.007e-05
0.0036937
7.8096e-08
4.0237e-05
0.0036026
5.9854e-05
0.0034683
7.8454e-05
0.0032809
9.5853e-05
0.0030376
0.00011136
0.0027537
0.00012527
0.0023965
0.00013707
0.002064
0.00014575
0.001591
0.00015356
0.0012341
0.00015763
0.00073643
0.00031392
0.00016056
2.0071e-05
0.0036735
7.9293e-08
4.0239e-05
0.0035825
5.9859e-05
0.0034487
7.8459e-05
0.0032623
9.5862e-05
0.0030202
0.00011138
0.0027382
0.00012528
0.0023826
0.00013711
0.0020522
0.00014578
0.0015824
0.00015359
0.0012263
0.00015769
0.00073233
0.00031102
0.00016059
2.0071e-05
0.0036534
8.0496e-08
4.0241e-05
0.0035623
5.9863e-05
0.0034291
7.8465e-05
0.0032436
9.5872e-05
0.0030028
0.0001114
0.0027227
0.0001253
0.0023687
0.00013714
0.0020404
0.00014582
0.0015737
0.00015362
0.0012185
0.00015774
0.00072821
0.00030814
0.00016062
2.0072e-05
0.0036332
8.1706e-08
4.0242e-05
0.0035421
5.9868e-05
0.0034095
7.847e-05
0.003225
9.5881e-05
0.0029853
0.00011142
0.0027072
0.00012531
0.0023548
0.00013717
0.0020285
0.00014586
0.001565
0.00015365
0.0012107
0.00015779
0.00072407
0.00030528
0.00016065
2.0072e-05
0.003613
8.2923e-08
4.0244e-05
0.003522
5.9872e-05
0.0033898
7.8476e-05
0.0032064
9.5891e-05
0.0029679
0.00011143
0.0026916
0.00012532
0.0023409
0.0001372
0.0020167
0.0001459
0.0015563
0.00015368
0.0012029
0.00015784
0.00071991
0.00030244
0.00016068
2.0073e-05
0.0035929
8.4148e-08
4.0246e-05
0.0035018
5.9877e-05
0.0033702
7.8482e-05
0.0031878
9.59e-05
0.0029505
0.00011145
0.0026761
0.00012534
0.002327
0.00013723
0.0020048
0.00014594
0.0015476
0.00015371
0.0011951
0.00015789
0.00071572
0.00029963
0.00016071
2.0073e-05
0.0035727
8.538e-08
4.0249e-05
0.0034816
5.9882e-05
0.0033506
7.8489e-05
0.0031692
9.591e-05
0.0029331
0.00011147
0.0026605
0.00012535
0.0023131
0.00013726
0.0019929
0.00014598
0.0015388
0.00015374
0.0011874
0.00015794
0.00071152
0.00029683
0.00016074
2.0074e-05
0.0035526
8.6619e-08
4.0251e-05
0.0034614
5.9887e-05
0.0033309
7.8495e-05
0.0031506
9.592e-05
0.0029157
0.00011149
0.0026449
0.00012537
0.0022993
0.00013728
0.0019809
0.00014601
0.0015301
0.00015377
0.0011796
0.00015799
0.0007073
0.00029406
0.00016076
2.0074e-05
0.0035324
8.7866e-08
4.0253e-05
0.0034413
5.9892e-05
0.0033113
7.8502e-05
0.003132
9.5931e-05
0.0028982
0.00011151
0.0026294
0.00012538
0.0022854
0.00013731
0.001969
0.00014605
0.0015214
0.0001538
0.0011719
0.00015803
0.00070306
0.0002913
0.00016079
2.0075e-05
0.0035122
8.912e-08
4.0255e-05
0.0034211
5.9897e-05
0.0032917
7.8509e-05
0.0031134
9.5941e-05
0.0028808
0.00011153
0.0026138
0.0001254
0.0022715
0.00013734
0.0019571
0.00014609
0.0015126
0.00015383
0.0011641
0.00015808
0.00069881
0.00028856
0.00016082
2.0076e-05
0.0034921
9.0381e-08
4.0257e-05
0.0034009
5.9902e-05
0.003272
7.8516e-05
0.0030948
9.5951e-05
0.0028634
0.00011155
0.0025982
0.00012542
0.0022576
0.00013737
0.0019451
0.00014613
0.0015039
0.00015385
0.0011564
0.00015813
0.00069453
0.00028584
0.00016085
2.0076e-05
0.0034719
9.165e-08
4.026e-05
0.0033807
5.9907e-05
0.0032524
7.8524e-05
0.0030762
9.5962e-05
0.0028459
0.00011157
0.0025826
0.00012543
0.0022438
0.0001374
0.0019332
0.00014616
0.0014951
0.00015388
0.0011487
0.00015817
0.00069025
0.00028313
0.00016088
2.0077e-05
0.0034517
9.2926e-08
4.0262e-05
0.0033605
5.9913e-05
0.0032327
7.8532e-05
0.0030576
9.5973e-05
0.0028285
0.00011159
0.0025669
0.00012545
0.0022299
0.00013743
0.0019212
0.0001462
0.0014863
0.00015391
0.001141
0.00015822
0.00068594
0.00028045
0.0001609
2.0078e-05
0.0034316
9.421e-08
4.0265e-05
0.0033403
5.9918e-05
0.0032131
7.854e-05
0.0030389
9.5984e-05
0.0028111
0.00011161
0.0025513
0.00012547
0.0022161
0.00013745
0.0019092
0.00014624
0.0014775
0.00015394
0.0011333
0.00015826
0.00068162
0.00027778
0.00016093
2.0079e-05
0.0034114
9.5501e-08
4.0267e-05
0.0033202
5.9924e-05
0.0031934
7.8548e-05
0.0030203
9.5995e-05
0.0027936
0.00011163
0.0025357
0.00012548
0.0022022
0.00013748
0.0018972
0.00014628
0.0014687
0.00015397
0.0011256
0.00015831
0.00067728
0.00027512
0.00016096
2.0079e-05
0.0033912
9.6799e-08
4.027e-05
0.0033
5.9929e-05
0.0031737
7.8557e-05
0.0030017
9.6007e-05
0.0027762
0.00011165
0.00252
0.0001255
0.0021884
0.00013751
0.0018852
0.00014631
0.0014599
0.000154
0.0011179
0.00015835
0.00067293
0.00027249
0.00016098
2.008e-05
0.003371
9.8105e-08
4.0273e-05
0.0032798
5.9935e-05
0.0031541
7.8566e-05
0.002983
9.6018e-05
0.0027587
0.00011168
0.0025044
0.00012552
0.0021745
0.00013753
0.0018732
0.00014635
0.0014511
0.00015403
0.0011102
0.00015839
0.00066857
0.00026987
0.00016101
2.0081e-05
0.0033509
9.9417e-08
4.0275e-05
0.0032596
5.9941e-05
0.0031344
7.8575e-05
0.0029644
9.603e-05
0.0027412
0.0001117
0.0024887
0.00012554
0.0021607
0.00013756
0.0018612
0.00014639
0.0014423
0.00015406
0.0011025
0.00015843
0.0006642
0.00026726
0.00016104
2.0082e-05
0.0033307
1.0074e-07
4.0278e-05
0.0032394
5.9947e-05
0.0031148
7.8584e-05
0.0029458
9.6042e-05
0.0027238
0.00011172
0.002473
0.00012555
0.0021469
0.00013758
0.0018491
0.00014642
0.0014334
0.00015409
0.0010949
0.00015847
0.00065981
0.00026467
0.00016106
2.0083e-05
0.0033105
1.0206e-07
4.0281e-05
0.0032192
5.9953e-05
0.0030951
7.8594e-05
0.0029271
9.6054e-05
0.0027063
0.00011174
0.0024573
0.00012557
0.002133
0.00013761
0.0018371
0.00014646
0.0014246
0.00015412
0.0010872
0.00015852
0.00065541
0.0002621
0.00016109
2.0084e-05
0.0032903
1.0339e-07
4.0285e-05
0.003199
5.996e-05
0.0030754
7.8604e-05
0.0029085
9.6066e-05
0.0026889
0.00011176
0.0024416
0.00012559
0.0021192
0.00013763
0.0018251
0.0001465
0.0014157
0.00015414
0.0010796
0.00015856
0.00065099
0.00025954
0.00016112
2.0085e-05
0.0032701
1.0473e-07
4.0288e-05
0.0031788
5.9966e-05
0.0030557
7.8614e-05
0.0028898
9.6078e-05
0.0026714
0.00011178
0.0024259
0.00012561
0.0021054
0.00013766
0.001813
0.00014654
0.0014069
0.00015417
0.0010719
0.0001586
0.00064657
0.00025699
0.00016114
2.0086e-05
0.0032499
1.0608e-07
4.0291e-05
0.0031586
5.9972e-05
0.003036
7.8624e-05
0.0028712
9.6091e-05
0.0026539
0.0001118
0.0024102
0.00012562
0.0020915
0.00013768
0.0018009
0.00014657
0.001398
0.0001542
0.0010643
0.00015864
0.00064214
0.00025446
0.00016117
2.0087e-05
0.0032297
1.0743e-07
4.0295e-05
0.0031384
5.9979e-05
0.0030164
7.8635e-05
0.0028525
9.6103e-05
0.0026365
0.00011182
0.0023945
0.00012564
0.0020777
0.00013771
0.0017889
0.00014661
0.0013891
0.00015423
0.0010567
0.00015868
0.00063769
0.00025194
0.0001612
2.0088e-05
0.0032095
1.0878e-07
4.0298e-05
0.0031182
5.9986e-05
0.0029967
7.8645e-05
0.0028339
9.6116e-05
0.002619
0.00011184
0.0023788
0.00012566
0.0020639
0.00013773
0.0017768
0.00014665
0.0013801
0.00015426
0.0010491
0.00015872
0.00063324
0.00024943
0.00016122
2.0089e-05
0.0031893
1.1014e-07
4.0302e-05
0.0030979
5.9992e-05
0.002977
7.8656e-05
0.0028152
9.6128e-05
0.0026015
0.00011186
0.0023631
0.00012568
0.0020501
0.00013776
0.0017647
0.00014668
0.0013712
0.00015429
0.0010415
0.00015876
0.00062877
0.00024694
0.00016125
2.009e-05
0.0031691
1.115e-07
4.0305e-05
0.0030777
5.9999e-05
0.0029573
7.8667e-05
0.0027965
9.6141e-05
0.0025841
0.00011188
0.0023473
0.00012569
0.0020363
0.00013778
0.0017526
0.00014672
0.0013623
0.00015432
0.0010339
0.00015879
0.0006243
0.00024446
0.00016127
2.0091e-05
0.0031489
1.1287e-07
4.0309e-05
0.0030575
6.0006e-05
0.0029376
7.8678e-05
0.0027779
9.6154e-05
0.0025666
0.0001119
0.0023316
0.00012571
0.0020225
0.0001378
0.0017405
0.00014676
0.0013533
0.00015435
0.0010263
0.00015883
0.00061982
0.000242
0.0001613
2.0092e-05
0.0031287
1.1424e-07
4.0313e-05
0.0030373
6.0013e-05
0.0029179
7.8689e-05
0.0027592
9.6166e-05
0.0025491
0.00011192
0.0023158
0.00012573
0.0020087
0.00013783
0.0017284
0.00014679
0.0013444
0.00015438
0.0010187
0.00015887
0.00061533
0.00023954
0.00016133
2.0094e-05
0.0031085
1.1562e-07
4.0317e-05
0.0030171
6.0021e-05
0.0028982
7.8701e-05
0.0027405
9.6179e-05
0.0025316
0.00011194
0.0023
0.00012575
0.0019949
0.00013785
0.0017163
0.00014683
0.0013354
0.00015441
0.0010111
0.00015891
0.00061083
0.0002371
0.00016135
2.0095e-05
0.0030883
1.1699e-07
4.0321e-05
0.0029968
6.0028e-05
0.0028785
7.8712e-05
0.0027218
9.6192e-05
0.0025141
0.00011196
0.0022843
0.00012577
0.0019811
0.00013788
0.0017042
0.00014687
0.0013264
0.00015444
0.0010035
0.00015895
0.00060633
0.00023467
0.00016138
2.0096e-05
0.0030681
1.1837e-07
4.0325e-05
0.0029766
6.0035e-05
0.0028588
7.8723e-05
0.0027031
9.6205e-05
0.0024967
0.00011198
0.0022685
0.00012578
0.0019673
0.0001379
0.0016921
0.0001469
0.0013174
0.00015447
0.00099595
0.00015899
0.00060182
0.00023225
0.00016141
2.0098e-05
0.0030479
1.1975e-07
4.033e-05
0.0029564
6.0042e-05
0.0028391
7.8735e-05
0.0026844
9.6217e-05
0.0024792
0.000112
0.0022527
0.0001258
0.0019535
0.00013792
0.00168
0.00014694
0.0013084
0.0001545
0.00098839
0.00015902
0.0005973
0.00022984
0.00016143
2.0099e-05
0.0030277
1.2114e-07
4.0334e-05
0.0029361
6.005e-05
0.0028193
7.8746e-05
0.0026658
9.623e-05
0.0024617
0.00011202
0.0022369
0.00012582
0.0019397
0.00013795
0.0016679
0.00014698
0.0012993
0.00015454
0.00098083
0.00015906
0.00059277
0.00022744
0.00016146
2.0101e-05
0.0030074
1.2252e-07
4.0338e-05
0.0029159
6.0057e-05
0.0027996
7.8758e-05
0.0026471
9.6242e-05
0.0024442
0.00011204
0.0022211
0.00012584
0.0019259
0.00013797
0.0016557
0.00014702
0.0012903
0.00015457
0.00097328
0.0001591
0.00058824
0.00022505
0.00016149
2.0102e-05
0.0029872
1.2391e-07
4.0343e-05
0.0028957
6.0065e-05
0.0027799
7.877e-05
0.0026283
9.6255e-05
0.0024267
0.00011206
0.0022053
0.00012586
0.0019121
0.00013799
0.0016436
0.00014705
0.0012812
0.0001546
0.00096574
0.00015914
0.0005837
0.00022268
0.00016151
2.0104e-05
0.002967
1.2529e-07
4.0347e-05
0.0028754
6.0072e-05
0.0027602
7.8781e-05
0.0026096
9.6268e-05
0.0024092
0.00011208
0.0021895
0.00012588
0.0018983
0.00013802
0.0016314