/*--------------------------------*- C++ -*----------------------------------*\
  =========                 |
  \\      /  F ield         | OpenFOAM: The Open Source CFD Toolbox
   \\    /   O peration     | Website:  https://openfoam.org
    \\  /    A nd           | Version:  6.0
     \\/     M anipulation  |
\*---------------------------------------------------------------------------*/
FoamFile
{
    version     2.0;
    format      ascii;
    class       volScalarField;
    location    "6";
    object      p;
}
// * * * * * * * * * * * * * * * * * * * * * * * * * * * * * * * * * * * * * //

dimensions      [0 2 -2 0 0 0 0];

internalField   nonuniform List<scalar> 
248000
(
0.0497825
0.0498694
0.0499545
0.0500382
0.0501204
0.0502014
0.0502813
0.0503603
0.0504384
0.0505158
0.0505927
0.0506692
0.0507454
0.0508215
0.0508976
0.0509738
0.0510503
0.0511271
0.0512044
0.0512823
0.0513607
0.0514399
0.0515199
0.0516007
0.0516824
0.0517651
0.0518489
0.0519336
0.0520195
0.0521063
0.0521942
0.0522827
0.052372
0.0524615
0.0525514
0.0526409
0.0527301
0.052818
0.0529049
0.0529895
0.053072
0.053151
0.0532265
0.0532971
0.0533626
0.0534212
0.0534728
0.053515
0.0535471
0.0535655
0.053569
0.0535544
0.0535205
0.0534637
0.0533827
0.053274
0.0531361
0.0529653
0.0527602
0.0525175
0.052236
0.0519135
0.0515491
0.0511421
0.0506932
0.0502037
0.0496762
0.0491131
0.0485189
0.047901
0.0472701
0.0466389
0.0460222
0.045437
0.0449028
0.0444419
0.0440789
0.0438401
0.0437529
0.0438448
0.044142
0.0446677
0.0454407
0.0464727
0.0477668
0.0493148
0.0510959
0.0530748
0.0552016
0.0574115
0.0596274
0.0617611
0.0637195
0.065407
0.0667351
0.0676236
0.0680125
0.0678582
0.0671478
0.0658853
0.0641086
0.0618652
0.0592312
0.0562793
0.0531017
0.0497713
0.0463705
0.0429637
0.0396044
0.0363356
0.0331891
0.0301823
0.0273227
0.0246079
0.0220291
0.0195706
0.0172184
0.0148927
0.0129595
0.0123342
0.0498645
0.0499489
0.050032
0.0501139
0.0501946
0.0502743
0.0503531
0.0504311
0.0505084
0.0505852
0.0506616
0.0507377
0.0508135
0.0508894
0.0509654
0.0510415
0.051118
0.0511949
0.0512724
0.0513505
0.0514293
0.051509
0.0515895
0.0516709
0.0517532
0.0518365
0.0519207
0.0520058
0.0520919
0.0521786
0.0522662
0.0523542
0.0524429
0.0525317
0.0526207
0.0527092
0.0527974
0.0528844
0.0529702
0.0530539
0.0531354
0.0532136
0.0532882
0.0533582
0.053423
0.0534814
0.0535327
0.0535756
0.0536085
0.0536282
0.0536327
0.0536195
0.0535869
0.053532
0.0534529
0.0533467
0.0532113
0.0530436
0.0528416
0.0526026
0.0523249
0.0520067
0.0516468
0.0512444
0.0508003
0.0503159
0.0497933
0.0492344
0.0486428
0.0480262
0.0473959
0.0467645
0.0461464
0.0455586
0.0450205
0.0445545
0.0441859
0.0439417
0.0438504
0.0439413
0.0442424
0.0447801
0.0455763
0.0466469
0.0479998
0.0496318
0.0515278
0.0536581
0.0559781
0.0584278
0.0609331
0.063408
0.0657585
0.067886
0.0696961
0.0710997
0.0720256
0.0724168
0.0722455
0.0715008
0.0702058
0.0683949
0.0661332
0.0634847
0.0605367
0.0573585
0.054033
0.0506241
0.0471877
0.0437701
0.0404057
0.0371127
0.0338969
0.0307519
0.0276619
0.0246
0.0215428
0.0183654
0.0159126
0.0136458
0.0499337
0.05
0.0500673
0.0501355
0.0502041
0.0502737
0.0503439
0.050415
0.0504868
0.0505595
0.050633
0.0507074
0.0507827
0.050859
0.0509362
0.0510144
0.0510936
0.051174
0.0512554
0.051338
0.0514217
0.0515066
0.0515927
0.0516799
0.0517682
0.0518576
0.0519479
0.052039
0.0521311
0.0522237
0.052317
0.0524106
0.0525046
0.0525985
0.0526925
0.0527858
0.0528787
0.0529701
0.0530602
0.0531481
0.0532335
0.0533154
0.0533936
0.0534669
0.0535347
0.0535959
0.0536498
0.0536951
0.0537303
0.0537517
0.0537571
0.053744
0.0537107
0.0536544
0.0535729
0.0534633
0.0533231
0.0531494
0.0529397
0.0526915
0.0524025
0.0520708
0.0516947
0.0512732
0.0508064
0.0502953
0.0497414
0.0491453
0.0485093
0.0478407
0.0471504
0.0464502
0.0457529
0.0450742
0.0444322
0.0438483
0.0433465
0.0429532
0.0426963
0.0426048
0.0427074
0.043031
0.0435995
0.0444315
0.0455382
0.0469215
0.0485713
0.0504645
0.0525633
0.0548152
0.0571533
0.0594977
0.0617601
0.0638456
0.0656613
0.0671174
0.0681391
0.068664
0.0686557
0.0680945
0.0669922
0.0653736
0.0632928
0.0608067
0.0579943
0.054921
0.0516665
0.0482916
0.0448532
0.0414014
0.0379732
0.0345904
0.0312626
0.0279885
0.0247593
0.0215595
0.018389
0.0151669
0.0129391
0.010068
0.0500823
0.0501307
0.0501822
0.0502362
0.0502925
0.0503511
0.0504119
0.0504749
0.0505399
0.050607
0.050676
0.050747
0.0508198
0.0508946
0.0509711
0.0510495
0.0511296
0.0512116
0.0512952
0.0513807
0.0514678
0.0515566
0.0516469
0.0517388
0.0518321
0.0519267
0.0520225
0.0521193
0.0522172
0.0523156
0.0524148
0.0525143
0.0526142
0.0527139
0.0528137
0.0529127
0.0530111
0.053108
0.0532035
0.0532965
0.0533868
0.0534735
0.0535561
0.0536336
0.0537053
0.0537699
0.0538269
0.053875
0.0539124
0.0539355
0.0539419
0.0539292
0.0538955
0.053838
0.0537543
0.0536414
0.0534968
0.0533174
0.0531005
0.0528434
0.0525437
0.052199
0.0518073
0.0513671
0.0508777
0.0503398
0.049754
0.0491201
0.0484392
0.047718
0.0469664
0.0461948
0.0454142
0.0446387
0.0438848
0.0431719
0.0425227
0.0419618
0.0415158
0.0412126
0.0410803
0.0411457
0.0414335
0.0419636
0.0427501
0.0437984
0.0451034
0.0466477
0.0484007
0.0503172
0.0523387
0.0543932
0.0563998
0.0582701
0.0599159
0.0612502
0.0621986
0.0626968
0.0627038
0.0621942
0.0611716
0.0596533
0.0576839
0.0553137
0.0526141
0.0496457
0.0464848
0.0431897
0.0398188
0.036426
0.0330527
0.0297262
0.0264637
0.0232749
0.0201655
0.0171426
0.0142398
0.0114534
0.0097722
0.00739876
0.0503202
0.0503569
0.0503973
0.0504412
0.050488
0.0505382
0.0505913
0.0506475
0.0507065
0.0507684
0.0508331
0.0509005
0.0509705
0.051043
0.051118
0.0511955
0.0512752
0.0513573
0.0514416
0.0515282
0.0516168
0.0517075
0.0518002
0.0518947
0.0519909
0.0520887
0.0521879
0.0522883
0.0523898
0.0524921
0.0525953
0.0526988
0.0528029
0.0529067
0.0530106
0.0531137
0.0532162
0.0533172
0.0534167
0.0535136
0.0536078
0.0536982
0.0537844
0.0538652
0.05394
0.0540076
0.0540672
0.0541177
0.0541573
0.0541823
0.0541904
0.0541791
0.0541467
0.0540902
0.0540072
0.0538948
0.0537504
0.0535708
0.0533534
0.0530954
0.052794
0.0524468
0.0520514
0.051606
0.0511095
0.0505618
0.0499633
0.049313
0.0486116
0.0478648
0.0470816
0.0462709
0.0454421
0.0446073
0.0437816
0.0429824
0.0422306
0.0415492
0.0409625
0.0404972
0.04018
0.0400369
0.0400922
0.0403667
0.0408755
0.0416269
0.0426191
0.0438397
0.0452638
0.0468529
0.0485561
0.0503089
0.0520384
0.0536626
0.0550995
0.0562664
0.0570908
0.0575091
0.0574779
0.0569683
0.0559782
0.0545187
0.0526277
0.0503488
0.0477476
0.0448795
0.0418179
0.0386198
0.0353447
0.0320507
0.0287829
0.0255746
0.0224511
0.0194329
0.0165404
0.0138008
0.0112729
0.00901911
0.00785329
0.00616803
0.0506311
0.0506606
0.0506942
0.0507318
0.0507727
0.0508173
0.0508653
0.0509169
0.0509717
0.0510298
0.0510911
0.0511556
0.051223
0.0512935
0.0513669
0.0514431
0.0515221
0.0516037
0.0516879
0.0517747
0.0518639
0.0519554
0.0520491
0.052145
0.0522427
0.0523422
0.0524433
0.0525457
0.0526494
0.052754
0.0528596
0.0529656
0.0530723
0.0531787
0.0532853
0.053391
0.0534962
0.0535999
0.053702
0.0538016
0.0538984
0.0539914
0.0540801
0.0541634
0.0542407
0.0543105
0.0543724
0.0544251
0.0544669
0.0544942
0.0545048
0.0544963
0.054467
0.0544141
0.0543352
0.0542274
0.0540882
0.0539145
0.0537038
0.0534531
0.0531598
0.0528213
0.052435
0.0519989
0.0515115
0.0509726
0.0503819
0.0497384
0.0490424
0.0482989
0.047516
0.0467012
0.0458621
0.0450096
0.0441569
0.0433197
0.0425171
0.0417701
0.041101
0.0405346
0.0400961
0.0398097
0.0396994
0.0397852
0.0400829
0.0406024
0.0413442
0.0422994
0.0434478
0.0447564
0.046181
0.0476637
0.0491387
0.0505309
0.0517642
0.0527606
0.053451
0.053773
0.053683
0.0531496
0.0521671
0.0507415
0.0489054
0.0466968
0.0441763
0.0413942
0.0384217
0.0353148
0.0321343
0.0289411
0.0257835
0.0226996
0.0197211
0.0168774
0.0141997
0.0117294
0.00953716
0.007732
0.00692891
0.00576673
0.0510151
0.0510418
0.0510722
0.0511064
0.0511437
0.0511848
0.0512293
0.0512773
0.0513288
0.0513838
0.0514422
0.051504
0.051569
0.0516374
0.0517089
0.0517835
0.0518611
0.0519416
0.052025
0.0521113
0.0522001
0.0522916
0.0523855
0.0524817
0.05258
0.0526803
0.0527823
0.0528857
0.0529906
0.0530964
0.0532034
0.0533108
0.0534188
0.0535268
0.0536349
0.0537423
0.0538491
0.0539543
0.0540581
0.0541594
0.054258
0.0543527
0.0544433
0.0545285
0.0546077
0.0546796
0.0547436
0.0547985
0.0548427
0.0548728
0.0548867
0.0548821
0.0548577
0.0548104
0.0547382
0.0546383
0.0545083
0.0543454
0.0541467
0.0539098
0.053632
0.0533105
0.0529429
0.0525271
0.0520614
0.051545
0.050978
0.0503589
0.0496879
0.0489695
0.048211
0.0474185
0.0465984
0.0457599
0.0449151
0.0440777
0.0432652
0.0424966
0.0417923
0.0411749
0.0406678
0.0402936
0.0400748
0.0400308
0.0401772
0.0405246
0.0410748
0.0418218
0.0427486
0.043827
0.0450181
0.04627
0.0475233
0.048709
0.0497569
0.0505937
0.051154
0.0513775
0.051221
0.0506518
0.0496615
0.0482525
0.0464528
0.0442957
0.0418371
0.0391229
0.0362224
0.0331908
0.0300896
0.0269814
0.0239171
0.0209377
0.01808
0.0153796
0.0128747
0.0106154
0.00867517
0.00719548
0.00660966
0.0057831
0.0514569
0.0514838
0.0515142
0.0515481
0.0515851
0.0516255
0.051669
0.051716
0.0517661
0.0518197
0.0518765
0.0519366
0.052
0.0520667
0.0521366
0.0522097
0.0522858
0.052365
0.0524472
0.0525324
0.0526203
0.0527111
0.0528043
0.0529
0.0529979
0.053098
0.0531999
0.0533034
0.0534085
0.0535146
0.053622
0.05373
0.0538387
0.0539474
0.0540563
0.0541645
0.0542723
0.0543786
0.0544834
0.0545858
0.0546856
0.0547817
0.0548737
0.0549605
0.0550414
0.0551151
0.0551812
0.0552385
0.0552854
0.0553187
0.0553366
0.055337
0.0553185
0.0552785
0.055215
0.0551252
0.0550072
0.054858
0.0546751
0.0544561
0.0541984
0.0538995
0.0535567
0.0531681
0.0527319
0.0522472
0.0517137
0.0511304
0.050497
0.0498176
0.0490988
0.0483459
0.0475636
0.0467603
0.0459465
0.0451345
0.04434
0.0435804
0.0428738
0.0422411
0.0417036
0.0412822
0.0409978
0.0408688
0.04091
0.0411323
0.0415383
0.0421238
0.0428746
0.043766
0.0447637
0.045821
0.046884
0.0478894
0.0487722
0.049464
0.049903
0.050031
0.049806
0.0491946
0.0481866
0.0467812
0.0450031
0.0428809
0.0404668
0.0378022
0.034955
0.0319797
0.028938
0.0258936
0.0228984
0.0199959
0.0172259
0.0146285
0.0122463
0.0101345
0.00836407
0.00710137
0.00662796
0.0060035
0.051988
0.0520156
0.0520461
0.0520796
0.0521158
0.0521552
0.0521974
0.0522429
0.0522914
0.0523432
0.0523981
0.0524563
0.0525177
0.0525823
0.0526501
0.0527211
0.0527953
0.0528725
0.0529528
0.0530362
0.0531224
0.0532115
0.0533033
0.0533976
0.0534944
0.0535934
0.0536944
0.0537971
0.0539016
0.0540073
0.0541143
0.0542219
0.0543305
0.0544392
0.0545482
0.0546566
0.0547646
0.0548713
0.0549767
0.0550798
0.0551804
0.0552775
0.0553707
0.0554589
0.0555413
0.0556169
0.0556852
0.0557451
0.0557949
0.0558318
0.0558542
0.0558602
0.0558486
0.0558169
0.0557631
0.055685
0.0555804
0.0554468
0.0552817
0.0550829
0.054848
0.0545744
0.0542597
0.053902
0.0534995
0.0530511
0.0525568
0.0520152
0.0514261
0.0507933
0.0501227
0.0494187
0.048685
0.0479287
0.0471594
0.0463879
0.0456283
0.0448964
0.0442085
0.0435833
0.0430406
0.0425991
0.0422784
0.0420954
0.0420642
0.0421954
0.0424921
0.0429512
0.0435606
0.0442987
0.0451349
0.0460268
0.0469255
0.0477728
0.0485085
0.0490685
0.0493946
0.0494313
0.0491376
0.04848
0.0474471
0.0460354
0.0442668
0.0421658
0.039781
0.0371501
0.0343394
0.031403
0.028402
0.0254009
0.0224518
0.0195999
0.016887
0.0143562
0.0120532
0.0100363
0.00837193
0.00724726
0.00682048
0.00630848
0.0525821
0.0526116
0.0526438
0.0526788
0.0527161
0.0527562
0.0527988
0.0528442
0.0528923
0.0529434
0.0529973
0.0530541
0.053114
0.0531769
0.0532427
0.0533117
0.0533837
0.0534588
0.0535369
0.053618
0.053702
0.0537889
0.0538786
0.0539709
0.0540657
0.0541628
0.0542622
0.0543633
0.0544664
0.0545708
0.0546768
0.0547835
0.0548914
0.0549995
0.0551081
0.0552162
0.0553242
0.0554309
0.0555365
0.05564
0.0557412
0.0558391
0.0559333
0.0560227
0.0561068
0.0561842
0.0562548
0.0563173
0.0563703
0.0564111
0.0564383
0.0564503
0.0564461
0.0564232
0.0563799
0.056314
0.0562237
0.0561064
0.05596
0.0557822
0.055571
0.0553239
0.0550384
0.054713
0.0543456
0.0539355
0.0534821
0.0529846
0.0524424
0.0518591
0.05124
0.0505887
0.049908
0.0492042
0.0484858
0.0477623
0.0470463
0.0463523
0.0456945
0.0450903
0.0445572
0.0441126
0.0437742
0.0435576
0.043476
0.0435395
0.0437513
0.0441091
0.0446026
0.0452124
0.0459112
0.0466604
0.0474153
0.0481222
0.0487255
0.0491651
0.049386
0.0493355
0.0489737
0.0482674
0.047204
0.0457784
0.0440096
0.0419188
0.039551
0.0369404
0.0341523
0.0312399
0.0282641
0.025289
0.022367
0.019544
0.0168635
0.0143709
0.0121138
0.0101529
0.00854974
0.00750975
0.00709188
0.00663931
0.0532617
0.0532922
0.0533247
0.0533596
0.0533965
0.053436
0.0534778
0.0535222
0.0535691
0.0536188
0.0536712
0.0537264
0.0537844
0.0538453
0.0539091
0.0539758
0.0540455
0.0541182
0.0541938
0.0542725
0.054354
0.0544385
0.0545257
0.0546157
0.0547083
0.0548032
0.0549005
0.0549997
0.055101
0.0552037
0.0553081
0.0554134
0.05552
0.055627
0.0557346
0.055842
0.0559494
0.0560559
0.0561613
0.0562649
0.0563664
0.0564649
0.0565601
0.0566507
0.0567363
0.0568156
0.0568885
0.0569538
0.0570101
0.0570549
0.0570872
0.0571055
0.0571089
0.057095
0.0570624
0.0570089
0.056933
0.0568322
0.0567044
0.0565477
0.0563601
0.0561392
0.0558828
0.0555892
0.0552569
0.0548845
0.0544721
0.0540183
0.0535229
0.0529888
0.0524211
0.0518227
0.0511957
0.0505453
0.0498794
0.0492061
0.0485369
0.0478849
0.0472627
0.0466858
0.0461705
0.0457321
0.0453869
0.0451492
0.0450311
0.0450422
0.0451856
0.0454597
0.0458551
0.0463547
0.0469337
0.047557
0.0481835
0.0487637
0.0492457
0.0495736
0.0496954
0.0495609
0.0491313
0.0483744
0.0472761
0.0458306
0.0440539
0.0419647
0.0396041
0.0370034
0.034227
0.0313273
0.0283646
0.0254025
0.0224932
0.0196832
0.0170173
0.0145426
0.0123087
0.0103779
0.00880746
0.00781914
0.00739062
0.00696341
0.0539811
0.0540136
0.0540483
0.0540852
0.054124
0.0541649
0.0542078
0.054253
0.0543004
0.0543502
0.0544024
0.0544571
0.0545143
0.0545743
0.0546368
0.0547022
0.0547702
0.0548412
0.0549149
0.0549915
0.0550709
0.0551532
0.0552382
0.0553259
0.0554161
0.0555088
0.0556038
0.0557009
0.0558001
0.0559009
0.0560035
0.0561072
0.0562124
0.056318
0.0564247
0.0565312
0.0566379
0.0567438
0.0568491
0.0569526
0.0570543
0.0571533
0.0572493
0.0573411
0.0574281
0.0575093
0.0575846
0.0576528
0.0577124
0.0577614
0.0577988
0.0578235
0.0578345
0.0578297
0.0578076
0.0577664
0.0577046
0.0576199
0.0575103
0.057374
0.0572092
0.0570138
0.0567853
0.0565226
0.0562237
0.0558878
0.0555145
0.0551029
0.0546523
0.0541655
0.0536472
0.0530997
0.0525243
0.0519258
0.051311
0.0506871
0.0500645
0.0494548
0.0488694
0.0483222
0.0478279
0.0474003
0.0470543
0.0468026
0.0466567
0.0466253
0.0467113
0.0469135
0.0472235
0.047626
0.0480983
0.0486084
0.0491183
0.0495824
0.049952
0.0501754
0.0502027
0.049987
0.0494901
0.0486811
0.0475446
0.0460744
0.0442836
0.0421893
0.0398283
0.0372294
0.0344562
0.0315606
0.028602
0.0256434
0.0227363
0.0199281
0.0172645
0.0147942
0.0125682
0.0106508
0.0090954
0.00813816
0.00769
0.00727021
0.0547734
0.0548066
0.0548414
0.0548783
0.0549168
0.0549574
0.055
0.0550448
0.0550918
0.055141
0.0551926
0.0552466
0.055303
0.0553619
0.0554234
0.0554874
0.0555541
0.0556234
0.0556955
0.0557704
0.0558479
0.0559283
0.0560113
0.0560969
0.0561851
0.0562758
0.0563688
0.0564639
0.0565611
0.05666
0.0567608
0.0568628
0.0569664
0.0570706
0.0571759
0.0572813
0.0573872
0.0574925
0.0575973
0.0577006
0.0578025
0.057902
0.0579987
0.0580917
0.0581802
0.0582633
0.058341
0.0584121
0.0584751
0.0585282
0.0585708
0.0586018
0.0586204
0.0586245
0.0586127
0.0585834
0.0585353
0.0584661
0.0583739
0.0582571
0.0581141
0.0579427
0.0577408
0.057507
0.0572399
0.0569382
0.0566019
0.0562298
0.0558213
0.0553789
0.0549068
0.0544071
0.0538802
0.0533304
0.0527638
0.0521866
0.0516082
0.0510393
0.0504895
0.0499716
0.0494988
0.0490835
0.0487392
0.0484775
0.0483086
0.0482408
0.0482767
0.0484152
0.0486488
0.0489635
0.0493387
0.0497449
0.0501471
0.0505029
0.0507671
0.050891
0.0508278
0.0505326
0.0499687
0.0491061
0.0479286
0.0464296
0.04462
0.0425153
0.0401478
0.0375445
0.0347683
0.0318705
0.0289096
0.0259476
0.0230358
0.0202219
0.0175526
0.0150781
0.012851
0.010937
0.00938686
0.0084489
0.00797768
0.00755288
0.055596
0.0556315
0.0556689
0.0557081
0.0557488
0.0557913
0.0558355
0.0558816
0.0559295
0.0559794
0.0560314
0.0560855
0.0561418
0.0562004
0.0562613
0.0563246
0.0563904
0.0564587
0.0565295
0.056603
0.0566791
0.0567578
0.0568391
0.056923
0.0570093
0.0570981
0.0571892
0.0572824
0.0573778
0.057475
0.0575742
0.0576746
0.0577768
0.0578798
0.0579841
0.0580886
0.0581938
0.0582985
0.058403
0.0585063
0.0586085
0.0587084
0.058806
0.0589001
0.0589902
0.0590753
0.0591554
0.0592294
0.0592959
0.0593532
0.0594009
0.0594381
0.0594641
0.0594769
0.059475
0.0594572
0.0594222
0.0593678
0.059292
0.0591937
0.0590712
0.0589224
0.0587452
0.0585387
0.0583011
0.0580315
0.0577294
0.0573941
0.0570246
0.0566232
0.0561939
0.0557381
0.0552561
0.0547512
0.0542292
0.0536952
0.0531579
0.0526267
0.0521102
0.0516199
0.0511676
0.0507644
0.0504226
0.0501525
0.0499635
0.0498632
0.0498537
0.0499343
0.0500979
0.050332
0.0506174
0.0509271
0.0512285
0.0514825
0.0516468
0.0516757
0.0515249
0.0511521
0.0505213
0.049604
0.0483831
0.0468523
0.0450198
0.0429003
0.0405214
0.0379087
0.0351246
0.0322198
0.0292518
0.0262818
0.0233603
0.0205357
0.0178554
0.0153713
0.0131373
0.0112208
0.0096699
0.00874353
0.0082487
0.00781358
0.0564867
0.0565226
0.0565598
0.0565988
0.0566392
0.0566814
0.0567252
0.056771
0.0568187
0.0568683
0.05692
0.0569738
0.0570297
0.0570877
0.0571481
0.0572107
0.0572756
0.057343
0.0574128
0.0574852
0.0575601
0.0576376
0.0577176
0.0578002
0.0578852
0.0579725
0.0580622
0.0581541
0.0582481
0.0583439
0.0584417
0.0585409
0.0586418
0.0587437
0.0588469
0.0589506
0.0590551
0.0591594
0.0592637
0.0593671
0.0594695
0.0595701
0.0596687
0.059764
0.0598558
0.0599429
0.0600255
0.0601025
0.0601725
0.060234
0.0602868
0.0603301
0.0603634
0.0603845
0.0603922
0.0603854
0.0603628
0.0603224
0.0602622
0.0601811
0.0600779
0.0599502
0.0597962
0.0596148
0.0594048
0.0591647
0.0588944
0.0585929
0.0582594
0.0578956
0.0575054
0.05709
0.0566488
0.0561851
0.0557038
0.0552092
0.0547093
0.0542125
0.0537264
0.0532612
0.0528276
0.0524353
0.0520957
0.0518177
0.05161
0.0514795
0.051428
0.0514547
0.0515532
0.0517119
0.0519131
0.052132
0.0523383
0.0524955
0.0525641
0.0525014
0.0522654
0.051816
0.0511185
0.0501452
0.048879
0.0473132
0.0454544
0.0433162
0.0409219
0.038296
0.0355002
0.0325848
0.0296062
0.0266246
0.0236901
0.0208516
0.0181572
0.0156603
0.0134161
0.0114937
0.00993911
0.00901988
0.00850176
0.00805155
0.05739
0.0574283
0.0574683
0.0575099
0.0575529
0.0575973
0.0576432
0.0576908
0.0577399
0.0577908
0.0578435
0.0578981
0.0579546
0.0580132
0.0580738
0.0581367
0.0582016
0.058269
0.0583386
0.0584107
0.0584851
0.0585621
0.0586414
0.0587232
0.0588072
0.0588936
0.0589823
0.0590731
0.0591661
0.0592609
0.0593579
0.0594562
0.0595564
0.0596576
0.0597604
0.0598637
0.0599679
0.0600721
0.0601766
0.0602802
0.0603832
0.0604846
0.0605843
0.0606811
0.0607746
0.0608638
0.060949
0.0610291
0.0611027
0.0611684
0.0612262
0.0612756
0.0613159
0.0613451
0.0613621
0.0613657
0.061355
0.0613278
0.0612823
0.0612175
0.0611322
0.0610242
0.0608917
0.0607338
0.0605491
0.0603364
0.0600952
0.059825
0.0595244
0.059195
0.0588405
0.0584618
0.0580578
0.0576315
0.0571871
0.0567283
0.0562622
0.0557966
0.0553377
0.054895
0.0544779
0.0540952
0.0537568
0.0534709
0.0532453
0.0530861
0.0529949
0.052971
0.053008
0.0530956
0.0532174
0.0533503
0.053466
0.0535309
0.0535075
0.0533563
0.053037
0.0525121
0.0517478
0.0507178
0.0494043
0.047801
0.0459128
0.0437527
0.0413392
0.0386967
0.0358861
0.032957
0.029965
0.0269691
0.0240191
0.0211642
0.0184534
0.0159416
0.0136851
0.0117545
0.0101939
0.00927815
0.00873765
0.00827117
0.0583559
0.0583943
0.0584338
0.0584751
0.0585176
0.0585619
0.0586077
0.0586553
0.0587046
0.0587558
0.0588089
0.0588639
0.0589209
0.0589799
0.0590408
0.0591039
0.0591691
0.0592366
0.0593063
0.0593784
0.0594527
0.0595295
0.0596086
0.0596901
0.0597739
0.05986
0.0599484
0.0600387
0.0601313
0.0602256
0.060322
0.0604199
0.0605196
0.0606203
0.0607227
0.0608259
0.0609301
0.0610344
0.0611391
0.0612432
0.061347
0.0614495
0.0615505
0.0616489
0.0617444
0.0618359
0.0619239
0.0620071
0.0620844
0.0621544
0.0622173
0.0622725
0.0623198
0.0623568
0.0623826
0.0623963
0.0623968
0.0623821
0.0623504
0.0623009
0.0622325
0.0621429
0.0620303
0.0618941
0.061733
0.0615454
0.0613313
0.0610897
0.0608192
0.0605213
0.0601993
0.059854
0.0594839
0.0590914
0.0586804
0.0582539
0.0578184
0.0573806
0.0569461
0.0565233
0.0561205
0.0557455
0.0554074
0.0551131
0.0548699
0.0546831
0.054554
0.0544817
0.0544605
0.0544805
0.0545266
0.0545773
0.0546064
0.0545823
0.0544702
0.0542327
0.0538319
0.0532321
0.0524009
0.051313
0.0499505
0.0483073
0.0463869
0.0442015
0.0417657
0.0391036
0.0362755
0.0333302
0.0303224
0.02731
0.0243425
0.0214695
0.0187408
0.0162125
0.0139423
0.0120021
0.0104344
0.00951972
0.00895725
0.00847235
0.0593337
0.0593749
0.0594176
0.0594619
0.0595073
0.0595542
0.0596023
0.059652
0.059703
0.0597558
0.0598101
0.0598662
0.0599241
0.0599839
0.0600456
0.0601094
0.0601751
0.0602431
0.0603131
0.0603856
0.0604601
0.0605371
0.0606162
0.0606978
0.0607814
0.0608674
0.0609555
0.0610458
0.0611382
0.0612324
0.0613288
0.0614266
0.0615265
0.0616274
0.0617302
0.0618336
0.0619384
0.0620433
0.0621487
0.0622538
0.0623587
0.0624625
0.0625651
0.0626654
0.0627631
0.0628571
0.062948
0.0630347
0.0631157
0.06319
0.063258
0.0633191
0.0633731
0.0634177
0.0634521
0.0634753
0.0634867
0.0634839
0.0634652
0.06343
0.0633774
0.063305
0.0632111
0.063095
0.0629557
0.0627916
0.0626022
0.0623869
0.0621441
0.0618748
0.0615825
0.0612677
0.0609283
0.0605666
0.060186
0.0597886
0.0593805
0.0589677
0.0585548
0.0581494
0.057759
0.0573902
0.0570512
0.0567481
0.0564874
0.0562738
0.0561082
0.0559898
0.0559127
0.0558682
0.0558419
0.0558141
0.0557599
0.0556502
0.055452
0.0551305
0.0546496
0.0539758
0.0530775
0.0519309
0.0505177
0.0488325
0.0468769
0.0446634
0.042202
0.0395176
0.0366695
0.0337057
0.0306798
0.0276489
0.024662
0.0217693
0.0190212
0.0164752
0.01419
0.0122388
0.0106625
0.00974613
0.00916226
0.00865908
0.0603772
0.0604182
0.0604603
0.060504
0.0605488
0.0605952
0.0606432
0.0606927
0.060744
0.060797
0.0608518
0.0609083
0.0609667
0.061027
0.0610892
0.0611534
0.0612196
0.061288
0.0613585
0.0614313
0.0615062
0.0615836
0.0616631
0.0617451
0.0618292
0.0619156
0.0620041
0.0620948
0.0621876
0.0622822
0.0623789
0.0624772
0.0625773
0.0626787
0.0627819
0.062886
0.0629914
0.0630973
0.0632037
0.06331
0.0634163
0.0635218
0.0636263
0.0637289
0.0638289
0.0639257
0.0640197
0.0641099
0.0641949
0.0642737
0.0643467
0.0644137
0.0644743
0.0645264
0.064569
0.0646014
0.064623
0.0646316
0.0646253
0.0646036
0.0645658
0.0645096
0.0644331
0.0643359
0.0642169
0.0640743
0.0639079
0.0637167
0.0634992
0.0632563
0.0629911
0.0627041
0.0623928
0.0620591
0.0617059
0.0613349
0.0609514
0.060561
0.0601673
0.0597771
0.0593971
0.059033
0.0586921
0.0583797
0.0581015
0.0578617
0.0576608
0.0574978
0.0573672
0.0572607
0.057165
0.0570614
0.056927
0.0567344
0.0564525
0.0560488
0.0554891
0.0547416
0.053776
0.0525696
0.0511043
0.0493746
0.0473814
0.0451364
0.0426466
0.0399375
0.037067
0.0340824
0.0310363
0.0279849
0.024977
0.022063
0.0192944
0.0167295
0.0144283
0.0124648
0.0108789
0.00995887
0.00935346
0.00883081
0.0614184
0.0614626
0.0615083
0.0615554
0.0616035
0.061653
0.0617035
0.0617555
0.0618089
0.0618638
0.0619202
0.0619783
0.0620381
0.0620998
0.0621633
0.0622287
0.0622961
0.0623657
0.0624373
0.0625112
0.0625871
0.0626655
0.0627459
0.0628287
0.0629135
0.0630006
0.0630899
0.0631813
0.0632749
0.0633703
0.0634679
0.063567
0.0636682
0.0637706
0.063875
0.0639803
0.0640871
0.0641943
0.0643023
0.0644101
0.0645183
0.0646258
0.0647326
0.0648375
0.0649403
0.0650401
0.0651374
0.0652313
0.0653204
0.0654038
0.0654819
0.0655547
0.0656219
0.0656813
0.0657319
0.0657732
0.0658047
0.0658241
0.0658295
0.0658207
0.065797
0.065756
0.0656957
0.0656161
0.065516
0.0653935
0.0652482
0.0650793
0.0648852
0.0646664
0.0644262
0.0641647
0.0638791
0.0635709
0.0632427
0.0628956
0.0625343
0.0621638
0.0617871
0.0614102
0.0610389
0.0606782
0.0603345
0.0600123
0.0597166
0.0594512
0.059216
0.0590101
0.058828
0.0586619
0.0584993
0.0583229
0.058111
0.0578379
0.0574747
0.0569905
0.0563531
0.0555324
0.0544995
0.0532323
0.0517134
0.0499371
0.0479036
0.0456243
0.0431031
0.0403668
0.0374716
0.0344639
0.0313953
0.0283215
0.0252907
0.022354
0.0195633
0.0169784
0.0146597
0.0126826
0.0110855
0.0101593
0.00953251
0.00899084
0.0625229
0.0625665
0.0626111
0.0626574
0.0627048
0.0627539
0.0628045
0.0628568
0.0629108
0.0629665
0.063024
0.0630833
0.0631444
0.0632074
0.0632722
0.063339
0.0634077
0.0634785
0.0635515
0.0636266
0.0637039
0.0637835
0.0638653
0.0639494
0.0640357
0.0641241
0.0642148
0.0643075
0.0644023
0.064499
0.0645978
0.0646981
0.0648004
0.0649041
0.0650097
0.0651165
0.0652247
0.0653335
0.0654432
0.0655531
0.0656633
0.0657731
0.0658824
0.0659901
0.0660959
0.0661989
0.0662998
0.0663976
0.066491
0.066579
0.0666623
0.066741
0.0668147
0.0668812
0.0669396
0.0669896
0.0670306
0.0670603
0.067077
0.0670804
0.06707
0.0670433
0.0669985
0.0669353
0.0668529
0.066749
0.0666234
0.0664752
0.0663026
0.0661061
0.0658889
0.0656508
0.0653888
0.0651039
0.0647985
0.0644729
0.0641316
0.063779
0.0634173
0.0630519
0.0626879
0.0623293
0.061982
0.0616495
0.0613363
0.0610457
0.0607772
0.0605297
0.0602977
0.0600742
0.0598471
0.0596001
0.0593131
0.0589618
0.0585191
0.0579559
0.0572418
0.0563481
0.0552475
0.0539186
0.0523445
0.0505194
0.0484433
0.0461265
0.0435714
0.0408055
0.0378831
0.03485
0.0317569
0.0286586
0.0256031
0.0226421
0.0198281
0.0172216
0.0148844
0.0128924
0.0112827
0.0103485
0.00969965
0.0091382
0.0636274
0.0636747
0.0637236
0.0637738
0.0638251
0.0638776
0.0639313
0.0639863
0.0640427
0.0641006
0.06416
0.0642211
0.0642839
0.0643485
0.0644149
0.0644833
0.0645535
0.0646259
0.0647004
0.064777
0.0648558
0.0649369
0.06502
0.0651055
0.0651931
0.0652829
0.0653749
0.065469
0.0655653
0.0656634
0.0657639
0.0658658
0.06597
0.0660755
0.0661831
0.0662918
0.0664021
0.0665131
0.0666251
0.0667372
0.06685
0.0669625
0.0670747
0.0671854
0.0672944
0.0674009
0.0675056
0.0676075
0.0677054
0.0677982
0.0678868
0.0679713
0.0680515
0.068125
0.0681911
0.0682495
0.0682997
0.0683394
0.0683669
0.068382
0.0683842
0.0683712
0.0683408
0.0682932
0.0682272
0.0681409
0.0680336
0.0679045
0.067752
0.0675762
0.0673803
0.0671638
0.0669234
0.0666599
0.0663752
0.0660693
0.065746
0.0654095
0.065061
0.0647055
0.0643474
0.0639899
0.0636382
0.0632951
0.0629645
0.0626491
0.0623482
0.0620604
0.0617803
0.0615011
0.0612116
0.0608965
0.0605365
0.0601091
0.0595887
0.0589479
0.0581581
0.0571918
0.0560232
0.0546317
0.0530011
0.0511252
0.0490038
0.0466469
0.044055
0.041257
0.0383051
0.0352443
0.0321243
0.0289993
0.0259173
0.0229302
0.0200912
0.0174619
0.0151045
0.0130959
0.011472
0.0105274
0.00985634
0.0092756
0.0648025
0.0648491
0.0648967
0.064946
0.0649965
0.0650486
0.0651023
0.0651576
0.0652147
0.0652735
0.065334
0.0653963
0.0654605
0.0655264
0.0655942
0.065664
0.0657356
0.0658094
0.0658853
0.0659634
0.0660436
0.0661262
0.066211
0.0662982
0.0663875
0.0664791
0.0665729
0.0666689
0.066767
0.0668671
0.0669693
0.0670732
0.0671791
0.0672866
0.0673961
0.067507
0.0676195
0.0677328
0.0678473
0.0679621
0.0680775
0.0681931
0.0683084
0.0684225
0.068535
0.0686452
0.0687539
0.0688602
0.0689626
0.0690603
0.0691543
0.0692447
0.0693313
0.0694118
0.0694854
0.069552
0.0696112
0.0696606
0.0696984
0.0697247
0.0697391
0.069739
0.0697224
0.0696894
0.0696392
0.0695691
0.0694789
0.0693679
0.069234
0.0690775
0.0689013
0.0687049
0.0684843
0.0682404
0.0679747
0.0676865
0.0673795
0.0670573
0.0667205
0.0663736
0.0660201
0.0656628
0.065306
0.0649518
0.0646038
0.0642641
0.0639314
0.0636044
0.0632775
0.0629445
0.0625945
0.0622131
0.0617821
0.0612805
0.060684
0.0599668
0.0591018
0.0580632
0.0568262
0.0553712
0.0536824
0.0517538
0.0495847
0.0471848
0.0445537
0.0417211
0.0387373
0.0356462
0.0324971
0.0293433
0.0262327
0.0232178
0.0203523
0.0176985
0.0153196
0.0132929
0.0116533
0.0106965
0.0100024
0.00940179
0.0659673
0.0660178
0.0660701
0.0661237
0.0661785
0.0662345
0.0662917
0.0663503
0.0664102
0.0664716
0.0665345
0.0665991
0.0666653
0.0667334
0.0668032
0.066875
0.0669486
0.0670244
0.0671022
0.0671823
0.0672645
0.0673491
0.0674357
0.0675247
0.0676159
0.0677094
0.0678051
0.067903
0.0680032
0.0681054
0.0682099
0.0683161
0.0684245
0.0685344
0.0686466
0.0687601
0.0688755
0.0689916
0.069109
0.0692267
0.0693454
0.0694642
0.069583
0.0697006
0.0698169
0.069931
0.070044
0.0701547
0.0702618
0.0703646
0.070464
0.0705603
0.0706534
0.0707408
0.0708218
0.0708964
0.0709645
0.0710232
0.0710711
0.0711082
0.0711342
0.0711465
0.0711429
0.0711239
0.0710883
0.0710338
0.0709597
0.0708655
0.0707492
0.0706106
0.0704527
0.0702749
0.0700727
0.0698467
0.0695983
0.0693264
0.0690342
0.0687248
0.0683983
0.0680586
0.0677087
0.0673507
0.0669882
0.0666228
0.0662574
0.0658936
0.06553
0.0651647
0.0647925
0.0644071
0.0639984
0.0635526
0.0630526
0.0624784
0.0618072
0.0610148
0.0600754
0.0589647
0.057659
0.0561395
0.0543911
0.052408
0.050189
0.0477434
0.0450706
0.0422008
0.0391824
0.0360587
0.0328779
0.0296931
0.0265519
0.0235073
0.0206135
0.0179337
0.0155314
0.0134849
0.0118279
0.0108565
0.0101391
0.00951908
0.0672096
0.0672592
0.06731
0.0673626
0.0674164
0.067472
0.0675292
0.0675881
0.0676487
0.0677111
0.0677752
0.0678411
0.0679089
0.0679784
0.0680499
0.0681232
0.0681985
0.0682759
0.0683554
0.0684372
0.0685213
0.0686077
0.0686965
0.0687876
0.0688811
0.0689768
0.069075
0.0691753
0.069278
0.0693826
0.0694895
0.0695982
0.069709
0.0698215
0.0699363
0.0700525
0.0701706
0.0702896
0.07041
0.0705309
0.0706529
0.0707752
0.0708977
0.0710192
0.0711394
0.0712577
0.071375
0.0714903
0.0716024
0.0717103
0.0718152
0.0719175
0.072017
0.0721113
0.0721996
0.0722822
0.0723588
0.0724267
0.0724843
0.0725318
0.072569
0.0725932
0.0726022
0.0725964
0.0725749
0.0725349
0.0724761
0.0723978
0.0722979
0.0721761
0.0720354
0.0718748
0.0716895
0.0714801
0.0712476
0.0709903
0.0707114
0.0704135
0.0700961
0.0697624
0.0694152