/*--------------------------------*- C++ -*----------------------------------*\
  =========                 |
  \\      /  F ield         | OpenFOAM: The Open Source CFD Toolbox
   \\    /   O peration     | Website:  https://openfoam.org
    \\  /    A nd           | Version:  6.0
     \\/     M anipulation  |
\*---------------------------------------------------------------------------*/
FoamFile
{
    version     2.0;
    format      ascii;
    class       volScalarField;
    location    "20";
    object      p;
}
// * * * * * * * * * * * * * * * * * * * * * * * * * * * * * * * * * * * * * //

dimensions      [0 2 -2 0 0 0 0];

internalField   nonuniform List<scalar> 
62000
(
0.0226846
0.0228481
0.0230093
0.0231716
0.0233343
0.0235003
0.0236686
0.0238422
0.0240206
0.024207
0.0244011
0.0246061
0.0248223
0.0250531
0.025299
0.0255637
0.0258477
0.0261551
0.0264866
0.0268464
0.0272356
0.0276585
0.0281165
0.0286137
0.0291521
0.029735
0.0303649
0.0310443
0.0317748
0.0325575
0.0333917
0.0342746
0.0352007
0.0361613
0.0371442
0.038136
0.0391219
0.0400839
0.0409982
0.0418396
0.0425836
0.0432069
0.0436933
0.0440383
0.0442594
0.0444005
0.044533
0.0447606
0.0451652
0.0458418
0.0467647
0.0478828
0.0490803
0.0498076
0.0499353
0.0490148
0.0475215
0.0449205
0.0447996
0.0492203
0.0228488
0.0229879
0.023129
0.0232747
0.0234247
0.0235815
0.0237442
0.0239152
0.0240941
0.0242835
0.0244829
0.0246951
0.0249201
0.0251607
0.0254172
0.0256927
0.0259877
0.0263054
0.0266466
0.027015
0.0274116
0.0278402
0.0283022
0.0288014
0.0293394
0.0299197
0.0305442
0.0312157
0.0319363
0.0327075
0.0335301
0.0344017
0.0353161
0.0362617
0.0372253
0.0381962
0.0391649
0.0401182
0.0410352
0.0418925
0.0426676
0.0433393
0.0438932
0.0443262
0.0446573
0.0449322
0.0452267
0.0456531
0.0463076
0.0473103
0.0486638
0.0503594
0.0523323
0.0539996
0.055193
0.0553114
0.0548542
0.0530353
0.054709
0.0583752
0.0230487
0.0231594
0.0232754
0.0233983
0.0235275
0.0236653
0.0238107
0.0239659
0.0241303
0.0243064
0.0244938
0.0246951
0.0249103
0.0251423
0.0253918
0.0256616
0.0259529
0.0262684
0.0266097
0.0269795
0.0273796
0.0278129
0.0282811
0.0287873
0.029333
0.0299213
0.0305538
0.0312335
0.0319629
0.0327447
0.0335808
0.0344692
0.0354002
0.0363581
0.0373266
0.0382966
0.039263
0.0402151
0.0411318
0.0419873
0.0427559
0.0434119
0.0439344
0.0443118
0.0445518
0.0446868
0.0447784
0.0449272
0.0452214
0.0457844
0.0466336
0.0478007
0.0493006
0.0505503
0.0514024
0.051183
0.0504072
0.0482872
0.0492533
0.0495514
0.0232464
0.0233501
0.0234613
0.023581
0.0237083
0.0238446
0.0239889
0.0241428
0.0243057
0.0244796
0.0246641
0.0248616
0.0250721
0.0252983
0.0255408
0.0258029
0.0260857
0.0263927
0.0267254
0.0270874
0.0274805
0.027908
0.0283718
0.028875
0.0294191
0.0300068
0.0306399
0.0313211
0.0320537
0.0328419
0.033689
0.034593
0.0355409
0.0365109
0.0374845
0.0384541
0.0394195
0.0403737
0.041295
0.0421562
0.0429294
0.0435856
0.0440991
0.0444507
0.0446388
0.0446837
0.0446344
0.0445791
0.044599
0.0448184
0.0452651
0.0460208
0.0471882
0.0482279
0.0490009
0.0488317
0.0482316
0.046399
0.047205
0.0471778
0.0232692
0.0233749
0.0234907
0.0236172
0.0237535
0.0239005
0.0240569
0.0242238
0.0244001
0.0245873
0.0247848
0.0249942
0.0252158
0.0254515
0.0257022
0.0259704
0.0262579
0.0265674
0.0269012
0.0272627
0.0276544
0.0280797
0.0285412
0.0290419
0.029584
0.0301699
0.0308016
0.0314819
0.0322148
0.0330059
0.0338604
0.0347764
0.0357374
0.0367169
0.0376926
0.0386599
0.0396245
0.0405836
0.0415164
0.0423959
0.0431939
0.0438806
0.0444275
0.0448115
0.0450247
0.0450792
0.0450148
0.0449101
0.04484
0.0449273
0.0452044
0.0457904
0.046865
0.0479181
0.04883
0.048936
0.0487865
0.0475043
0.0487757
0.0492092
0.023163
0.0232728
0.0233929
0.0235247
0.0236675
0.0238227
0.023989
0.0241673
0.0243569
0.0245585
0.0247716
0.0249974
0.0252358
0.0254884
0.025756
0.0260406
0.0263438
0.0266679
0.0270151
0.0273884
0.0277905
0.0282246
0.0286934
0.0292002
0.0297474
0.0303377
0.0309732
0.0316572
0.0323943
0.0331913
0.0340552
0.0349842
0.0359598
0.03695
0.0379311
0.0389002
0.0398688
0.0408378
0.0417883
0.0426945
0.0435284
0.04426
0.0448591
0.0452993
0.0455675
0.0456686
0.0456343
0.0455325
0.0454304
0.0454425
0.0455923
0.0460204
0.0469522
0.0479027
0.0487265
0.0488089
0.0487866
0.0477716
0.0492728
0.0494449
0.0231158
0.0232241
0.0233392
0.0234637
0.0235979
0.0237437
0.0239012
0.024072
0.0242561
0.024455
0.0246686
0.0248981
0.0251437
0.0254069
0.0256882
0.0259893
0.0263113
0.026656
0.0270251
0.0274208
0.0278451
0.0283007
0.0287898
0.0293154
0.0298794
0.0304848
0.0311338
0.0318298
0.0325783
0.0333869
0.0342642
0.0352085
0.0361995
0.037203
0.0381929
0.0391692
0.0401475
0.0411322
0.0421067
0.043047
0.0439262
0.0447141
0.0453792
0.0458931
0.0462384
0.0464144
0.0464465
0.0463948
0.0463195
0.0463276
0.046431
0.0467754
0.0476089
0.0484336
0.0490645
0.0489151
0.0487372
0.0477165
0.0490217
0.0487735
0.0232325
0.0233242
0.0234201
0.0235227
0.0236327
0.0237523
0.0238821
0.0240244
0.0241806
0.0243529
0.0245427
0.0247521
0.0249827
0.0252363
0.0255144
0.0258187
0.0261505
0.0265112
0.0269017
0.0273235
0.0277776
0.0282653
0.0287877
0.0293465
0.0299428
0.0305786
0.0312557
0.0319776
0.0327498
0.0335807
0.0344794
0.0354445
0.0364549
0.0374739
0.0384763
0.0394641
0.0404568
0.0414628
0.0424682
0.0434514
0.0443866
0.0452441
0.0459919
0.0466005
0.0470502
0.0473369
0.0474839
0.0475481
0.0475902
0.0477149
0.0479284
0.0483827
0.0493314
0.0502634
0.0508921
0.0506383
0.0503028
0.049185
0.0500505
0.0494773
0.0235253
0.0235792
0.0236386
0.0237053
0.0237798
0.0238634
0.0239569
0.0240623
0.024181
0.0243157
0.0244684
0.0246422
0.0248397
0.025064
0.0253179
0.0256042
0.0259253
0.0262831
0.0266793
0.0271151
0.027591
0.0281075
0.0286645
0.029262
0.0298994
0.0305774
0.0312965
0.0320592
0.0328704
0.0337387
0.0346728
0.0356706
0.0367094
0.0377524
0.0387738
0.0397793
0.0407926
0.0418258
0.0428681
0.0438999
0.0448961
0.0458266
0.0466588
0.047362
0.047914
0.0483086
0.0485679
0.0487508
0.0489245
0.0492012
0.049596
0.0502765
0.0515128
0.0527698
0.0536552
0.0535342
0.0531849
0.0519842
0.052353
0.0512322
0.023846
0.0238499
0.023865
0.023892
0.023931
0.0239826
0.0240466
0.0241239
0.0242153
0.0243225
0.0244475
0.0245927
0.0247613
0.0249566
0.0251823
0.0254422
0.0257403
0.0260798
0.0264636
0.0268941
0.027373
0.0279009
0.0284777
0.0291027
0.0297745
0.0304921
0.0312547
0.0320636
0.0329228
0.0338397
0.034822
0.0358659
0.0369467
0.0380248
0.0390764
0.0401092
0.0411515
0.0422189
0.0433028
0.0443843
0.0454372
0.0464298
0.0473272
0.0480953
0.0487075
0.0491525
0.0494501
0.0496594
0.0498573
0.0501685
0.0506283
0.0514396
0.0529067
0.0545073
0.0557346
0.0558888
0.055656
0.0544563
0.0544192
0.0524547
0.0240881
0.0240435
0.0240163
0.024007
0.0240159
0.024043
0.0240879
0.0241507
0.0242313
0.0243302
0.0244481
0.0245864
0.0247471
0.0249326
0.0251463
0.0253919
0.0256737
0.0259959
0.0263627
0.0267781
0.0272454
0.0277667
0.0283435
0.028976
0.029663
0.0304034
0.0311961
0.0320417
0.0329436
0.0339081
0.0349415
0.0360375
0.037168
0.0382918
0.0393835
0.040454
0.0415344
0.0426429
0.0437718
0.044901
0.0460018
0.0470394
0.0479744
0.0487671
0.0493828
0.0498008
0.0500326
0.0501339
0.0501861
0.0503278
0.050622
0.0513204
0.0527928
0.0545529
0.0560317
0.056462
0.056437
0.0553917
0.0551679
0.0524433
0.0241784
0.0240997
0.0240435
0.0240099
0.024
0.0240137
0.0240508
0.024111
0.024194
0.0242995
0.0244278
0.0245787
0.0247535
0.0249528
0.0251789
0.025434
0.0257219
0.0260458
0.0264101
0.0268193
0.027278
0.0277896
0.0283576
0.0289839
0.0296688
0.030413
0.0312161
0.0320796
0.0330073
0.0340057
0.0350801
0.0362221
0.0374008
0.0385709
0.0397076
0.0408219
0.0419473
0.043103
0.0442805
0.0454579
0.0466034
0.0476785
0.048639
0.0494379
0.0500299
0.0503809
0.0504885
0.0503965
0.0501846
0.0499969
0.0499226
0.0502702
0.0514892
0.0531761
0.0547313
0.0553681
0.0556004
0.0548923
0.0547542
0.0517602
0.0241626
0.024067
0.0239959
0.0239496
0.0239301
0.0239377
0.0239729
0.0240359
0.0241265
0.0242447
0.0243903
0.024563
0.0247629
0.0249899
0.0252448
0.0255284
0.025843
0.0261902
0.0265735
0.0269962
0.0274629
0.0279772
0.0285434
0.0291649
0.0298437
0.0305823
0.0313823
0.032247
0.0331823
0.0341958
0.0352938
0.0364666
0.0376812
0.0388912
0.0400691
0.0412277
0.0424006
0.0436075
0.0448385
0.0460698
0.0472676
0.048391
0.0493922
0.0502174
0.0508101
0.0511207
0.0511282
0.0508582
0.0503778
0.0498279
0.0493151
0.0491985
0.0500175
0.0514608
0.0529508
0.0537094
0.0542158
0.0539796
0.0541507
0.0515013
0.0240505
0.0239538
0.0238821
0.0238358
0.0238173
0.0238276
0.0238676
0.0239379
0.0240393
0.0241717
0.0243359
0.0245314
0.0247588
0.0250172
0.0253073
0.0256285
0.0259823
0.0263684
0.0267886
0.0272448
0.02774
0.0282767
0.0288589
0.0294898
0.0301721
0.0309096
0.0317056
0.0325656
0.0334979
0.0345125
0.0356177
0.0368046
0.0380405
0.0392769
0.040488
0.0416861
0.0429057
0.0441663
0.0454575
0.0467545
0.048024
0.0492255
0.0503099
0.051219
0.0518866
0.0522481
0.0522622
0.0519307
0.0513001
0.050495
0.0496256
0.0490874
0.0494965
0.0506468
0.0519949
0.052808
0.0535518
0.0538162
0.0543928
0.0525069
0.0239118
0.0238247
0.0237613
0.0237225
0.0237111
0.0237283
0.0237761
0.0238554
0.0239675
0.0241133
0.0242937
0.0245089
0.0247597
0.0250457
0.0253673
0.0257243
0.0261172
0.0265452
0.0270088
0.0275084
0.0280452
0.0286201
0.0292354
0.0298933
0.0305956
0.031346
0.0321482
0.0330091
0.033939
0.0349506
0.0360547
0.0372448
0.038489
0.0397415
0.040976
0.0422075
0.0434712
0.0447872
0.0461457
0.0475236
0.0488903
0.0502089
0.0514321
0.0525001
0.0533405
0.0538757
0.0540447
0.0538233
0.0532306
0.0523654
0.051326
0.0505244
0.0506377
0.0515428
0.0527454
0.0535595
0.0544601
0.0551349
0.0560709
0.0550456
0.0237611
0.0236915
0.0236444
0.0236204
0.0236224
0.0236519
0.0237112
0.0238013
0.0239246
0.0240818
0.0242753
0.0245053
0.024774
0.0250807
0.0254272
0.0258129
0.0262392
0.0267044
0.027209
0.0277522
0.0283343
0.0289544
0.0296133
0.0303112
0.0310482
0.0318269
0.03265
0.0335245
0.0344616
0.0354758
0.0365803
0.0377711
0.0390197
0.0402811
0.0415338
0.0427943
0.0441
0.0454733
0.0469068
0.0483809
0.0498708
0.0513452
0.0527613
0.0540613
0.0551694
0.055999
0.0564712
0.0565368
0.0561849
0.0554791
0.054493
0.0536348
0.0536136
0.0543778
0.0554637
0.0562367
0.0571755
0.0580891
0.0592315
0.0588712
0.0236539
0.0236056
0.0235777
0.0235707
0.0235879
0.0236309
0.0237019
0.0238029
0.0239361
0.0241031
0.0243061
0.0245467
0.0248267
0.0251469
0.0255092
0.025914
0.026363
0.0268553
0.0273912
0.0279703
0.0285922
0.0292549
0.0299584
0.0307007
0.0314805
0.0322983
0.0331552
0.0340569
0.0350144
0.0360425
0.0371563
0.0383537
0.0396088
0.0408814
0.0421517
0.0434407
0.0447888
0.0462218
0.0477363
0.0493185
0.0509506
0.0526088
0.0542566
0.05584
0.0572833
0.0584939
0.0593793
0.0598675
0.0599171
0.0595541
0.0588177
0.0580946
0.0581072
0.0588419
0.0598579
0.060553
0.0614097
0.0623609
0.0635099
0.0634619
0.0235599
0.023535
0.0235291
0.0235427
0.0235787
0.0236386
0.023725
0.0238392
0.0239842
0.0241614
0.0243741
0.0246234
0.0249125
0.025242
0.0256151
0.0260323
0.0264964
0.0270067
0.0275646
0.0281698
0.0288221
0.0295197
0.0302618
0.0310456
0.0318685
0.0327291
0.0336268
0.0345656
0.035555
0.0366096
0.0377445
0.0389591
0.0402305
0.0415198
0.0428132
0.0441344
0.0455278
0.0470238
0.0486242
0.0503216
0.0521063
0.0539624
0.0558599
0.0577503
0.0595602
0.0611943
0.0625503
0.0635376
0.0640876
0.0641874
0.0638372
0.0633904
0.0635588
0.064354
0.0653355
0.0659247
0.0665939
0.0674047
0.0683709
0.068252
0.0235063
0.0235047
0.0235206
0.0235544
0.0236091
0.0236861
0.023788
0.0239163
0.0240739
0.0242625
0.024485
0.0247431
0.0250398
0.0253766
0.0257565
0.0261811
0.0266535
0.027174
0.0277446
0.0283658
0.0290383
0.0297603
0.0305317
0.0313492
0.0322096
0.0331106
0.0340499
0.03503
0.0360587
0.0371492
0.0383164
0.03956
0.0408577
0.0421752
0.0434998
0.0448602
0.0463038
0.0478659
0.0495543
0.0513681
0.0533052
0.0553569
0.0574999
0.0596911
0.0618607
0.0639135
0.0657411
0.067239
0.0683154
0.0689231
0.069022
0.068926
0.0693284
0.0702415
0.0712172
0.071684
0.0721009
0.0726453
0.0732851
0.0727833
0.0234661
0.0234886
0.0235277
0.0235837
0.0236593
0.0237556
0.0238751
0.024019
0.0241907
0.0243912
0.0246243
0.0248912
0.025196
0.0255393
0.0259255
0.0263556
0.026834
0.0273607
0.0279389
0.0285695
0.0292542
0.0299918
0.030783
0.0316251
0.0325148
0.0334496
0.0344265
0.0354468
0.0365169
0.0376487
0.0388559
0.0401377
0.0414734
0.0428281
0.0441942
0.0456014
0.0471011
0.0487326
0.0505093
0.0524361
0.0545177
0.0567514
0.0591192
0.0615832
0.064078
0.0665101
0.0687686
0.0707399
0.0723151
0.0734162
0.0739668
0.0742394
0.0748971
0.0759511
0.0769329
0.0772745
0.0774118
0.0776288
0.0778605
0.0767733
0.0234721
0.0235178
0.0235788
0.0236553
0.0237499
0.0238639
0.0239996
0.0241585
0.0243434
0.024556
0.0247992
0.0250751
0.0253868
0.0257364
0.0261271
0.0265614
0.0270429
0.027573
0.0281547
0.02879
0.0294809
0.0302273
0.0310307
0.031889
0.0327995
0.0337604
0.0347683
0.0358242
0.0369338
0.0381076
0.0393585
0.0406847
0.0420649
0.0434669
0.0448822
0.046344
0.047905
0.049608
0.0514709
0.0535034
0.0557152
0.0581081
0.060668
0.0633618
0.0661281
0.0688766
0.0714964
0.0738694
0.0758743
0.0774098
0.0783677
0.0789817
0.0798875
0.0810837
0.0820814
0.0823088
0.0821805
0.0820646
0.0818625
0.080106
0.0234719
0.0235404
0.0236239
0.0237222
0.0238379
0.0239718
0.0241263
0.0243023
0.0245029
0.0247292
0.0249849
0.0252713
0.0255926
0.0259496
0.0263471
0.0267864
0.0272725
0.027806
0.0283909
0.0290292
0.0297238
0.0304751
0.0312855
0.0321538
0.0330783
0.0340579
0.0350898
0.0361753
0.0373197
0.0385332
0.0398274
0.0412001
0.04263
0.0440832
0.0455545
0.0470762
0.0487024
0.0504781
0.0524242
0.0545535
0.0568793
0.0594062
0.0621227
0.0649993
0.0679785
0.0709738
0.0738768
0.0765679
0.0789197
0.080812
0.0821121
0.0830181
0.0841354
0.0854569
0.0864713
0.0866055
0.0862486
0.085837
0.0852201
0.0828025
0.0234887
0.0235786
0.0236829
0.0238012
0.0239364
0.024089
0.0242615
0.0244549
0.0246718
0.0249135
0.0251831
0.0254821
0.0258138
0.0261803
0.0265851
0.0270307
0.0275213
0.0280586
0.0286462
0.029287
0.029984
0.0307384
0.0315529
0.0324275
0.0333613
0.0343541
0.035404
0.036513
0.0376867
0.0389354
0.0402704
0.0416885
0.0431677
0.0446759
0.0462056
0.0477905
0.0494839
0.0513317
0.0533566
0.0555728
0.0579956
0.0606309
0.0634686
0.066482
0.069617
0.0727914
0.0758999
0.0788251
0.0814364
0.0836021
0.0851696
0.0863079
0.0875996
0.0890279
0.0900641
0.0901329
0.0896026
0.0889536
0.0879655
0.0849594
0.0234884
0.0236
0.023726
0.0238658
0.024022
0.024195
0.0243872
0.0245991
0.0248337
0.0250914
0.0253763
0.0256887
0.0260334
0.0264107
0.0268256
0.0272795
0.0277775
0.0283206
0.0289133
0.0295579
0.0302583
0.0310158
0.031834
0.0327133
0.0336537
0.0346561
0.0357196
0.0368472
0.0380451
0.0393241
0.0406955
0.0421559
0.0436837
0.0452445
0.0468335
0.0484821
0.0502428
0.0521614
0.0542607
0.0565554
0.0590609
0.0617834
0.0647135
0.0678261
0.0710704
0.0743681
0.0776185
0.0807075
0.0835055
0.0858722
0.0876423
0.0889586
0.0903806
0.0918925
0.0929506
0.0929823
0.0923332
0.091513
0.0902094
0.0867192
0.0235083
0.0236401
0.0237854
0.023944
0.0241183
0.0243091
0.0245184
0.0247473
0.0249979
0.0252717
0.025571
0.0258977
0.0262546
0.0266439
0.0270689
0.0275322
0.028038
0.0285883
0.0291869
0.0298369
0.0305419
0.0313036
0.032126
0.03301
0.0339563
0.0349667
0.0360412
0.0371838
0.0384018
0.0397066
0.0411101
0.0426087
0.0441804
0.0457929
0.0474386
0.0491495
0.050976
0.0529629
0.055132
0.0574973
0.0600735
0.0628662
0.0658657
0.0690485
0.0723661
0.0757444
0.0790868
0.0822843
0.0852092
0.0877178
0.0896348
0.0910821
0.0926051
0.0941858
0.0952718
0.0952934
0.0945783
0.0936462
0.09208
0.0882186
0.0234921
0.0236438
0.0238092
0.023988
0.0241824
0.024393
0.0246218
0.0248693
0.0251384
0.0254293
0.0257455
0.0260877
0.0264599
0.0268628
0.027301
0.027776
0.0282928
0.0288525
0.0294597
0.0301172
0.0308289
0.0315966
0.0324247
0.0333144
0.0342669
0.035285
0.0363693
0.037525
0.0387602
0.0400874
0.0415186
0.0430511
0.0446639
0.0463227
0.0480225
0.0497929
0.0516828
0.0537352
0.0559706
0.0584014
0.0610405
0.0638928
0.0669481
0.0701835
0.073553
0.0769856
0.0803899
0.0836608
0.0866751
0.0892862
0.091314
0.0928613
0.0944556
0.096089
0.0972034
0.0972353
0.0964933
0.0954973
0.093715
0.0895877
0.0234692
0.0236392
0.0238229
0.0240196
0.0242322
0.0244608
0.0247079
0.0249739
0.0252612
0.0255705
0.0259043
0.0262637
0.0266518
0.0270701
0.0275222
0.0280102
0.0285387
0.0291094
0.0297264
0.030393
0.031113
0.0318885
0.032724
0.033621
0.034581
0.0356075
0.0367018
0.0378698
0.0391208
0.0404677
0.0419239
0.0434867
0.0451352
0.046838
0.0485876
0.0504142
0.0523644
0.0544795
0.0567778
0.0592697
0.0619666
0.0648722
0.0679755
0.0712541
0.0746639
0.0781368
0.0815858
0.0849097
0.0879891
0.090678
0.0927907
0.0944166
0.0960705
0.0977509
0.0988986
0.098956
0.0982171
0.0971888
0.0952239
0.090918
0.0234047
0.023594
0.0237973
0.024014
0.0242466
0.0244953
0.0247623
0.0250476
0.0253542
0.0256818
0.0260341
0.0264109
0.0268167
0.0272513
0.0277196
0.0282224
0.0287654
0.0293492
0.0299786
0.0306565
0.0313872
0.0321726
0.0330176
0.0339238
0.0348932
0.0359295
0.0370346
0.0382153
0.0394813
0.0408469
0.0423256
0.0439159
0.0455982
0.0473395
0.0491359
0.051015
0.0530226
0.0551983
0.0575577
0.0601091
0.0628626
0.0658209
0.0689718
0.0722934
0.0757431
0.0792552
0.0827467
0.0861191
0.0892574
0.0920145
0.0942033
0.0958991
0.0976
0.0993186
0.100498
0.100588
0.0998667
0.0988242
0.0967003
0.0922844
0.0233433
0.02355
0.0237704
0.0240038
0.0242529
0.0245182
0.0248017
0.0251042
0.0254276
0.0257729
0.026142
0.0265363
0.0269583
0.0274099
0.0278936
0.0284123
0.0289697
0.0295681
0.0302109
0.0309022
0.0316453
0.0324428
0.0332994
0.034217
0.0351976
0.0362455
0.0373629
0.0385571
0.0398387
0.0412224
0.0427228
0.0443387
0.046051
0.0478299
0.049669
0.0515979
0.05366
0.0558939
0.0583126
0.0609229
0.0637336
0.0667461
0.0699474
0.0733161
0.0768106
0.0803673
0.0839059
0.0873302
0.0905276
0.093352
0.0956125
0.0973749
0.0991247
0.100882
0.102096
0.102221
0.101525
0.100472
0.0982011
0.0937221
0.0232226
0.0234472
0.0236859
0.0239381
0.0242063
0.0244908
0.0247936
0.025115
0.0254576
0.0258214
0.0262096
0.0266223
0.0270633
0.0275326
0.0280348
0.0285706
0.0291455
0.0297601
0.0304189
0.0311251
0.0318828
0.0326943
0.0335645
0.0344954
0.0354892
0.0365505
0.0376817
0.0388909
0.0401889
0.0415913
0.0431128
0.0447534
0.0464955
0.0483077
0.0501881
0.0521639
0.0542785
0.0565692
0.0590473
0.0617181
0.0645894
0.0676615
0.0709208
0.0743459
0.0778964
0.0815101
0.0851092
0.0885974
0.0918647
0.0947629
0.097101
0.0989353
0.100731
0.102524
0.103767
0.103925
0.103249
0.102182
0.0997687
0.0952592
0.0230762
0.0233171
0.0235722
0.0238409
0.024126
0.0244278
0.0247485
0.0250886
0.0254502
0.0258337
0.0262413
0.0266739
0.027134
0.0276229
0.0281434
0.0286979
0.0292903
0.0299225
0.0305981
0.031321
0.0320949
0.0329222
0.0338079
0.034754
0.035763
0.0368396
0.0379867
0.0392124
0.0405282
0.0419499
0.0434934
0.0451585
0.046928
0.0487743
0.0506935
0.0527145
0.0548801
0.0572267
0.0597642
0.062497
0.0654324
0.0685696
0.0718944
0.0753859
0.0790041
0.0826885
0.0863617
0.0899277
0.0932758
0.096257
0.098678
0.10059
0.10244
0.104272
0.105545
0.105729
0.105067
0.103975
0.101417
0.0968928
0.0228685
0.0231269
0.0234003
0.0236879
0.0239925
0.0243139
0.0246547
0.0250144
0.0253962
0.0257992
0.0262273
0.0266795
0.0271604
0.0276691
0.0282104
0.0287845
0.0293972
0.0300486
0.0307436
0.031485
0.0322772
0.0331223
0.0340255
0.034989
0.0360151
0.0371091
0.0382738
0.0395179
0.040853
0.0422956
0.0438615
0.0455515
0.0473498
0.0492275
0.051185
0.0532502
0.0554658
0.0578686
0.0604668
0.0632651
0.0662698
0.0694796
0.07288
0.0764503
0.0801509
0.0839222
0.0876872
0.0913478
0.0947925
0.0978679
0.100382
0.102381
0.104288
0.106158
0.107455
0.107656
0.106995
0.105862
0.103156
0.0986261
0.0226524
0.0229263
0.023215
0.0235178
0.0238376
0.0241747
0.0245313
0.0249082
0.0253071
0.0257288
0.026175
0.026647
0.0271468
0.027676
0.0282369
0.0288319
0.0294646
0.030137
0.0308522
0.0316143
0.0324265
0.0332916
0.0342144
0.0351973
0.0362427
0.037356
0.0385403
0.0398047
0.0411611
0.042626
0.0442159
0.0459315
0.0477573
0.049668
0.0516627
0.0537713
0.0560369
0.058496
0.0611562
0.0640222
0.0671005
0.0703891
0.0738733
0.0775327
0.0813281
0.0852001
0.0890717
0.0928416
0.0963954
0.0995758
0.10219
0.104283
0.106259
0.108171
0.109492
0.109702
0.10903
0.107839
0.104977
0.100439
0.0223677
0.0226569
0.0229617
0.0232813
0.0236185
0.0239735
0.0243486
0.0247439
0.0251622
0.0256031
0.0260699
0.0265623
0.027084
0.0276347
0.0282184
0.0288357
0.0294916
0.0301865
0.0309245
0.0317088
0.0325431
0.0334297
0.0343739
0.0353779
0.0364443
0.0375789
0.0387848
0.0400715
0.0414509
0.0429399
0.0445548
0.046297
0.0481523
0.0500939
0.0521261
0.0542778
0.0565936
0.0591103
0.0618347
0.0647721
0.0679294
0.0713041
0.0748815
0.0786415
0.0825449
0.0865326
0.0905263
0.094421
0.0980982
0.101394
0.104117
0.106313
0.108362
0.110317
0.111656
0.111864
0.111166
0.1099
0.106873
0.102326
0.0220344
0.0223368
0.0226553
0.0229894
0.0233422
0.0237139
0.0241071
0.0245222
0.0249613
0.0254246
0.0259141
0.0264303
0.0269757
0.0275509
0.0281586
0.0288003
0.0294801
0.0301993
0.0309609
0.0317689
0.0326265
0.0335364
0.0345035
0.0355302
0.0366194
0.0377771
0.0390065
0.0403173
0.0417216
0.0432363
0.044878
0.0466479
0.0485317
0.0505067
0.0525753
0.0547703
0.0571367
0.0597118
0.062502
0.065513
0.0687528
0.0722187
0.075896
0.0797648
0.0837861
0.0879003
0.0920278
0.0960592
0.09987
0.103289
0.106128
0.108434
0.110566
0.11257
0.113927
0.114126
0.113389
0.112031
0.10883
0.104262
0.0216085
0.021929
0.0222675
0.0226231
0.0229987
0.0233937
0.0238113
0.0242503
0.0247144
0.0252017
0.0257165
0.0262569
0.026828
0.0274277
0.0280611
0.0287275
0.029433
0.0301769
0.0309636
0.0317962
0.0326785
0.0336126
0.034604
0.0356549
0.0367684
0.0379508
0.0392054
0.0405421
0.0419729
0.0435151
0.0451847
0.0469834
0.0488982
0.0509044
0.0530105
0.0552487
0.0576662
0.0603013
0.0631594
0.0662473
0.0695741
0.0731372
0.076922
0.0809088
0.0850582
0.0893105
0.0935835
0.0977637
0.101719
0.10527
0.108232
0.110654
0.112875
0.114929
0.116297
0.116477
0.115689
0.114223
0.110839
0.106243
0.0211934
0.0215336
0.0218922
0.0222669
0.0226614
0.0230754
0.0235117
0.0239704
0.0244537
0.024962
0.025497
0.0260599
0.0266524
0.027276
0.0279323
0.0286238
0.0293534
0.0301231
0.0309348
0.0317933
0.0327009
0.0336605
0.0346772
0.0357536
0.0368927
0.0381011
0.0393823
0.0407464
0.0422055
0.0437764
0.0454756
0.0473042
0.0492488
0.051289
0.0534317
0.0557136
0.058183
0.0608787
0.0638058
0.0669721
0.0703885
0.0740524
0.0779493
0.0820596
0.0863439
0.0907416
0.0951683
0.0995055
0.103613
0.107303
0.110393
0.112937
0.115255
0.117365
0.118747
0.118901
0.118051
0.116462
0.112884
0.108246
0.0207755
0.0211276
0.0214992
0.0218897
0.0223011
0.0227333
0.0231889
0.0236672
0.0241715
0.0247005
0.0252579
0.0258424
0.0264583
0.0271047
0.0277852
0.0285003
0.0292547
0.0300487
0.0308853
0.0317684
0.032701
0.0336857
0.0347278
0.0358299
0.0369951
0.0382304
0.0395392
0.0409318
0.04242
0.0440209
0.0457503
0.0476095
0.0495862
0.0516582
0.053839
0.0561648
0.0586868
0.0614445
0.0644424
0.0676897
0.0711991
0.0749685
0.0789832
0.0832239
0.0876506
0.092202
0.0967908
0.101294
0.105563
0.109397
0.112622
0.115294
0.117713
0.119879
0.12127
0.12139
0.120465
0.11874
0.114957
0.110267
0.0204154
0.0207801
0.0211647
0.0215666
0.02199
0.0224342
0.0229022
0.0233942
0.0239121
0.0244565
0.0250289
0.0256309
0.0262639
0.0269298
0.0276296
0.0283662
0.0291418
0.0299589
0.0308184
0.0317257
0.0326825
0.0336921
0.0347593
0.0358872
0.0370787
0.0383412
0.039678
0.0410995
0.0426175
0.0442487
0.0460091
0.0478994
0.0499069
0.0520142
0.0542325
0.0566033
0.0591784
0.0619987
0.065068
0.0683971
0.0720011
0.0758782
0.0800137
0.0843883
0.0889617
0.0936717
0.0984279
0.103103
0.107538
0.111524
0.114889
0.117694
0.12022
0.122448
0.123848
0.12393
0.122923
0.121047
0.117047
0.112287
0.0200491
0.0204215
0.0208143
0.0212273
0.0216627
0.0221204
0.0226031
0.0231101
0.0236444
0.024205
0.0247952
0.0254143
0.0260661
0.0267503
0.0274699
0.0282261
0.0290227
0.0298607
0.0307422
0.0316718
0.0326517
0.0336849
0.0347764
0.0359293
0.0371467
0.038436
0.0398006
0.041251
0.0427986
0.0444604
0.0462516
0.0481735
0.0502146
0.0523549
0.0546129
0.057029
0.059658
0.0625418
0.0656841
0.0690971
0.0727985
0.0767869
0.0810476
0.0855614
0.0902872
0.0951618
0.100092
0.104945
0.109554
0.113699
0.117209
0.120152
0.122788
0.125076
0.12648
0.126516
0.125416
0.123377
0.119149
0.114308
0.0197487
0.0201323
0.0205358
0.0209577
0.0214015
0.0218674
0.0223578
0.0228736
0.0234165
0.0239874
0.0245876
0.0252191
0.0258831
0.0265819
0.0273161
0.028089
0.0289025
0.0297594
0.0306601
0.0316104
0.0326116
0.0336672
0.0347819
0.0359591
0.0372015
0.0385171
0.0399089
0.0413876
0.0429647
0.0446567
0.0464793
0.048433
0.0505061
0.0526832
0.0549803
0.0574427
0.0601263
0.0630742
0.0662899
0.0697873
0.073587
0.0776883
0.0820761
0.0867312
0.0916125
0.0966549
0.101762
0.106798
0.111586
0.115895
0.119558
0.122642
0.125393
0.127746
0.129155
0.12914
0.12794
0.125725
0.121253
0.116312
0.0194751
0.0198609
0.0202665
0.0206925
0.021141
0.0216127
0.0221101
0.0226335
0.0231856
0.023766
0.0243777
0.0250207
0.0256983
0.0264109
0.0271606
0.0279493
0.0287802
0.0296548
0.0305743
0.031544
0.0325656
0.0336422
0.034779
0.0359791
0.0372455
0.0385862
0.0400044
0.0415108
0.0431166
0.0448387
0.046692
0.0486778
0.0507854
0.052997
0.0553356
0.057845
0.060584
0.0635971
0.0668877
0.0704714
0.074372
0.0785892
0.0831079
0.0879089
0.0929504
0.0981657
0.103456
0.108681
0.113653
0.118134
0.121955
0.125184
0.128051
0.130465
0.131873
0.131801
0.130489
0.128085
0.123358
0.118305
0.0192318
0.0196215
0.0200307
0.0204605
0.0209132
0.0213902
0.0218932
0.0224237
0.0229829
0.023572
0.024192
0.0248452
0.0255326
0.0262567
0.027018
0.0278199
0.0286643
0.0295541
0.0304895
0.0314764
0.0325162
0.0336122
0.0347693
0.035991
0.03728
0.0386447
0.0400882
0.0416213
0.0432553
0.0450067
0.046891
0.048909
0.0510496
0.0533
0.0556795
0.0582372
0.0610324
0.0641112
0.0674773
0.0711478
0.07515
0.0794844
0.0841355
0.0890843
0.0942884
0.0996794
0.105155
0.110572
0.115735
0.120393
0.124377
0.127756
0.130741
0.133219
0.134627
0.134492
0.133062
0.130455
0.125456
0.120273
0.0189784
0.0193747
0.0197909
0.0202277
0.0206876
0.0211714
0.0216817
0.0222191
0.022786
0.0233827
0.0240116
0.0246736
0.0253713
0.0261061
0.0268793
0.0276937
0.0285518
0.0294558
0.0304062
0.031409
0.0324655
0.0335791
0.034755
0.0359965
0.0373066
0.0386938
0.0401613
0.04172
0.0433812
0.0451615
0.0470762
0.0491266
0.0513033
0.0535899
0.0560131
0.05862
0.0614725
0.0646184
0.0680616
0.0718211
0.0759277
0.0803824
0.0851696
0.0902705
0.0956419
0.101213
0.10688
0.112494
0.117853
0.122695
0.126849
0.13038
0.133482
0.136019
0.137419
0.137214
0.135654
0.132831
0.127547
0.122222
0.0187567
0.0191605
0.019584
0.0200278
0.0204944
0.0209852
0.021502
0.0220466
0.0226203
0.0232245
0.0238604
0.0245303
0.0252355
0.0259787
0.0267602
0.0275839
0.0284518
0.0293668
0.030329
0.0313449
0.0324156
0.0335446
0.0347371
0.0359967
0.0373262
0.0387344
0.0402245
0.0418076
0.0434952
0.0453038
0.0472491
0.0493322
0.051543
0.0538704
0.0563371
0.0589946
0.0619056
0.0651196
0.0686407
0.07249
0.0767019
0.0812783
0.0862033
0.0914585
0.0969997
0.102754
0.108615
0.114429
0.119988
0.125019
0.129348
0.133034
0.136255
0.138852
0.140244
0.139963
0.138265
0.135213
0.129627
0.124143
0.0185669
0.0189756
0.0194038
0.0198524
0.0203236
0.0208186
0.0213398
0.0218883
0.0224665
0.0230751
0.0237165
0.0243921
0.0251042
0.0258548
0.0266448
0.0274775
0.0283554
0.0292809
0.0302544
0.0312823
0.032366
0.0335088
0.0347165
0.0359923
0.0373396
0.0387673
0.0402786
0.0418851
0.0435979
0.0454342
0.0474093
0.049525
0.0517729
0.0541385
0.0566516
0.0593612
0.0623325
0.0656165
0.0692178
0.0731595
0.0774799
0.0821816
0.0872486
0.0926626
0.0983786
0.104321
0.11038
0.116399
0.122164
0.127391
0.131899
0.135741
0.139078
0.14173
0.143104
0.142738
0.140891
0.137595
0.131695
0.126041
0.0184365
0.0188477
0.0192779
0.0197284
0.0202013
0.0206985
0.0212216
0.0217729
0.0223534
0.0229651
0.0236089
0.0242879
0.025003
0.0257576
0.0265516
0.0273894
0.0282729
0.0292054
0.0301868
0.0312239
0.032318
0.0334727
0.0346935
0.0359839
0.0373474
0.0387929
0.0403241
0.0419524
0.0436895
0.0455522
0.047557
0.0497051
0.0519883
0.0543971
0.0569567
0.0597206
0.0627537
0.0661094
0.0697922
0.0738279
0.0782584
0.0830873
0.0882985
0.0938742
0.0997679
0.105902
0.112162
0.118389
0.124362
0.129789
0.13448
0.13848
0.141933
0.144639
0.145994
0.145538
0.143532
0.13998
0.133748
0.127908
0.018336
0.0187475
0.0191774
0.0196276
0.0200998
0.0205961
0.0211186
0.0216691
0.0222496
0.0228616
0.0235068
0.0241875
0.0249055
0.0256635
0.026462
0.0273048
0.0281943
0.0291333
0.0301221
0.0311673
0.0322707
0.0334355
0.0346679
0.0359713
0.0373492
0.038811
0.0403604
0.0420091
0.0437689
0.0456574
0.0476907
0.0498713
0.0521929
0.0546421
0.0572517
0.0600717
0.0631692
0.0665991
0.0703668
0.0744999
0.0790446
0.0840051
0.0893655
0.095108
0.101185
0.107515
0.113981
0.120421
0.126606
0.132238
0.137116
0.141273
0.144838
0.147589
0.148916
0.148359
0.146183
0.142361
0.135786
0.12975
0.0182663
0.0186782
0.0191079
0.0195575
0.0200287
0.0205244
0.0210457
0.0215959
0.0221755
0.0227873
0.0234318
0.0241129
0.0248308
0.0255897
0.026389
0.0272338
0.0281256
0.0290683
0.0300614
0.0311125
0.0322228
0.033396
0.034638
0.0359527
0.0373434
0.03882
0.0403861
0.0420537
0.0438353
0.0457482
0.04781
0.050023
0.0523808
0.0548757
0.0575353
0.0604139
0.0635782
0.067085
0.0709398
0.0751728
0.0798341
0.0849291
0.0904418
0.0963547
0.102618
0.109148
0.115824
0.122478
0.128878
0.134716
0.139783
0.144096
0.147771
0.150569
0.151864
0.1512
0.148844
0.14474
0.137806
0.131561
0.0181884
0.0186007
0.0190302
0.0194795
0.0199501
0.0204446
0.0209648
0.0215135
0.0220921
0.0227029
0.0233473
0.0240282
0.0247472
0.0255074
0.0263091
0.0271564
0.0280519
0.0289984
0.0299964
0.0310528
0.0321694
0.0333499
0.0346006
0.0359252
0.0373274
0.0388173
0.0403988
0.0420843
0.0438863
0.0458231
0.0479123
0.0501576
0.0525547
0.0550925
0.0578058
0.0607453
0.0639796
0.0675669
0.0715132
0.0758507
0.0806338
0.0858686
0.0915396
0.0976288
0.104085
0.11082
0.11771
0.124582
0.1312
0.137248
0.142504
0.146972
0.150753