/*--------------------------------*- C++ -*----------------------------------*\
  =========                 |
  \\      /  F ield         | OpenFOAM: The Open Source CFD Toolbox
   \\    /   O peration     | Website:  https://openfoam.org
    \\  /    A nd           | Version:  6.0
     \\/     M anipulation  |
\*---------------------------------------------------------------------------*/
FoamFile
{
    version     2.0;
    format      ascii;
    class       volScalarField;
    location    "20";
    object      p;
}
// * * * * * * * * * * * * * * * * * * * * * * * * * * * * * * * * * * * * * //

dimensions      [0 2 -2 0 0 0 0];

internalField   nonuniform List<scalar> 
62000
(
0.0155997
0.0155304
0.0154587
0.0153839
0.0153047
0.0152195
0.0151271
0.015026
0.0149156
0.0147944
0.0146625
0.0145178
0.0143608
0.0141878
0.014
0.0137932
0.0135693
0.0133242
0.0130598
0.0127714
0.0124602
0.0121217
0.0117559
0.0113584
0.0109287
0.010462
0.00995747
0.00941037
0.00881912
0.00817937
0.00748995
0.00674622
0.00594964
0.00509386
0.00418475
0.00322432
0.00221544
0.00115968
5.99915e-05
-0.00107838
-0.00224878
-0.00344356
-0.00465459
-0.00587269
-0.007088
-0.0082881
-0.00945621
-0.0105731
-0.011604
-0.0125172
-0.013251
-0.0137584
-0.0139575
-0.0137919
-0.0131946
-0.0120776
-0.0104579
-0.00811418
-0.00994401
-0.0215857
0.0155893
0.0155051
0.0154211
0.0153379
0.0152552
0.0151713
0.0150854
0.0149946
0.0148966
0.0147881
0.0146691
0.0145384
0.0143973
0.0142429
0.0140746
0.0138874
0.0136814
0.0134527
0.0132026
0.012928
0.0126296
0.0123037
0.01195
0.0115644
0.0111456
0.0106894
0.0101938
0.00965486
0.00906976
0.00843506
0.00774743
0.00700354
0.00619908
0.00533427
0.00441037
0.00343091
0.00239631
0.00130622
0.000162773
-0.00102955
-0.00226502
-0.00353738
-0.00483979
-0.00616468
-0.00750374
-0.00884612
-0.0101763
-0.0114755
-0.012707
-0.013834
-0.0147804
-0.0154813
-0.0158152
-0.0156813
-0.0149469
-0.0134468
-0.011156
-0.00809322
-0.00715378
-0.00738439
0.0156259
0.0155395
0.0154532
0.0153666
0.0152797
0.0151915
0.0151032
0.0150126
0.0149167
0.0148095
0.0146891
0.0145544
0.0144102
0.0142565
0.0140947
0.0139186
0.0137259
0.01351
0.0132707
0.0130046
0.012713
0.012393
0.0120446
0.0116642
0.0112507
0.0107998
0.0103097
0.00977639
0.00919725
0.00856903
0.00788845
0.00715144
0.00635514
0.00549758
0.00458467
0.00361978
0.00260401
0.00153745
0.000423791
-0.000729982
-0.00191555
-0.00312365
-0.00434416
-0.00556598
-0.00677708
-0.00796363
-0.0091082
-0.0101924
-0.0111828
-0.0120492
-0.012726
-0.0131629
-0.013258
-0.012933
-0.0120881
-0.0106328
-0.00870271
-0.00656887
-0.00682069
-0.00995229
0.0157679
0.0156892
0.0156097
0.0155273
0.0154421
0.0153529
0.0152634
0.0151753
0.0150877
0.0149923
0.0148821
0.0147528
0.0146098
0.0144579
0.0143033
0.0141419
0.0139699
0.0137772
0.0135601
0.0133133
0.0130375
0.0127306
0.0123936
0.0120236
0.0116199
0.0111784
0.0106972
0.0101724
0.00960119
0.00898047
0.00830657
0.00757583
0.00678314
0.00592963
0.00501921
0.00405728
0.00304503
0.00198247
0.000873955
-0.000272343
-0.00144676
-0.00263842
-0.00383497
-0.00502276
-0.00618677
-0.00731039
-0.00837472
-0.00936173
-0.0102423
-0.0109937
-0.0115633
-0.0119178
-0.011973
-0.0116716
-0.0109332
-0.00970063
-0.00815511
-0.00660001
-0.00691294
-0.0090963
0.0158493
0.0157758
0.0157019
0.0156257
0.0155455
0.0154583
0.0153682
0.0152818
0.0152033
0.0151253
0.0150366
0.0149263
0.0147972
0.0146561
0.0145153
0.0143756
0.0142348
0.0140801
0.0139034
0.0136951
0.013454
0.0131774
0.0128674
0.0125221
0.0121418
0.0117228
0.0112635
0.0107598
0.010209
0.00960755
0.00895199
0.00823768
0.00746043
0.00661841
0.00571762
0.00476221
0.00375347
0.00269098
0.00157881
0.000425042
-0.000760935
-0.0019682
-0.00318374
-0.00439244
-0.00557687
-0.00671759
-0.00779265
-0.00878242
-0.00965772
-0.0103994
-0.0109609
-0.0113193
-0.011399
-0.0111489
-0.0104836
-0.00933692
-0.00788256
-0.00635363
-0.00643568
-0.00851801
0.0158825
0.0158109
0.01574
0.0156696
0.0155975
0.0155168
0.0154287
0.015342
0.0152671
0.0152009
0.0151311
0.0150416
0.0149295
0.0148008
0.0146721
0.0145501
0.0144371
0.0143205
0.0141891
0.014028
0.0138324
0.0135975
0.0133255
0.0130155
0.0126691
0.0122834
0.0118571
0.0113867
0.0108691
0.0103011
0.00967875
0.00899813
0.00825298
0.00744336
0.00657258
0.0056455
0.00466289
0.00362388
0.00253209
0.00139497
0.000220951
-0.000979932
-0.00219485
-0.00340796
-0.00459989
-0.00574803
-0.00682673
-0.00781237
-0.00867363
-0.0093912
-0.00992313
-0.0102557
-0.0103235
-0.0100916
-0.00948354
-0.00843782
-0.00714379
-0.00583201
-0.00602005
-0.0078745
0.0159326
0.0158595
0.0157885
0.0157226
0.015661
0.015593
0.0155142
0.0154313
0.0153582
0.0152974
0.0152389
0.015164
0.015065
0.0149448
0.014821
0.0147058
0.0146069
0.014515
0.0144179
0.0142975
0.0141442
0.0139505
0.0137172
0.0134438
0.013133
0.0127829
0.0123933
0.0119608
0.0114826
0.0109556
0.0103762
0.00973975
0.00904137
0.00827833
0.00745554
0.00657622
0.00564111
0.00464893
0.00360264
0.00250862
0.00137362
0.000205753
-0.00098373
-0.00217988
-0.00336306
-0.00450926
-0.00559012
-0.00657882
-0.00744065
-0.00815547
-0.00868293
-0.00901841
-0.00910845
-0.00893882
-0.00844721
-0.00758175
-0.0065253
-0.00549323
-0.00554251
-0.00688112
0.0160773
0.0160073
0.0159379
0.0158749
0.015823
0.0157702
0.0157064
0.0156332
0.0155648
0.0155074
0.0154553
0.0153894
0.0152991
0.015183
0.0150581
0.0149385
0.0148372
0.0147487
0.0146631
0.0145607
0.0144297
0.0142594
0.0140493
0.0137984
0.0135104
0.0131847
0.0128217
0.0124188
0.0119735
0.0114829
0.0109431
0.0103507
0.00969888
0.00898703
0.00821742
0.0073938
0.00651637
0.00558336
0.00459696
0.00356212
0.00248328
0.00136567
0.00021744
-0.000949365
-0.00211741
-0.00326398
-0.00436081
-0.00537939
-0.00628264
-0.00704683
-0.0076299
-0.00802773
-0.00819021
-0.0081141
-0.00774108
-0.00701215
-0.00607687
-0.00512261
-0.00475546
-0.00571373
0.016322
0.0162622
0.0161993
0.016141
0.0160983
0.0160616
0.0160166
0.0159592
0.015901
0.01585
0.0158037
0.0157455
0.0156632
0.0155531
0.015429
0.0153058
0.0151979
0.0151036
0.0150147
0.0149122
0.0147827
0.014614
0.0144042
0.0141525
0.0138637
0.0135386
0.0131792
0.0127838
0.0123505
0.0118769
0.0113597
0.0107947
0.0101773
0.00950419
0.00877968
0.00800611
0.00718399
0.00631146
0.00539039
0.00442467
0.00341677
0.00236904
0.0012862
0.000176349
-0.000947156
-0.00206531
-0.00315253
-0.00418171
-0.0051145
-0.00592455
-0.00656413
-0.00702515
-0.00725265
-0.00724471
-0.00693683
-0.00626189
-0.00535044
-0.00440334
-0.00371413
-0.00462427
0.0166364
0.0166014
0.0165557
0.0165062
0.016472
0.0164485
0.0164204
0.0163791
0.0163329
0.0162894
0.016249
0.0161971
0.016123
0.0160211
0.0159043
0.0157857
0.0156805
0.0155875
0.0155
0.0153986
0.0152687
0.0150964
0.0148785
0.0146141
0.0143091
0.0139662
0.0135893
0.0131787
0.0127336
0.0122527
0.0117332
0.0111727
0.0105651
0.0099103
0.00921051
0.00846955
0.00768844
0.00686598
0.00600472
0.00510876
0.0041798
0.00321865
0.00222763
0.00121145
0.000179321
-0.00085442
-0.00186912
-0.00284153
-0.00373617
-0.00452635
-0.00516238
-0.00563186
-0.00587627
-0.00589717
-0.00563187
-0.00501845
-0.00419738
-0.00341138
-0.00270685
-0.00382189
0.0169461
0.0169451
0.0169245
0.0168888
0.0168637
0.0168502
0.0168351
0.0168069
0.0167708
0.0167332
0.0166958
0.0166466
0.0165764
0.016481
0.0163729
0.0162653
0.0161731
0.0160961
0.0160267
0.0159451
0.015834
0.0156771
0.0154685
0.0152058
0.0148949
0.0145396
0.0141459
0.0137159
0.0132508
0.0127509
0.0122148
0.0116405
0.0110251
0.0103667
0.00967073
0.00894068
0.00817934
0.00738703
0.00656811
0.00572831
0.00487033
0.00399534
0.00310522
0.002203
0.00129501
0.000391197
-0.000493348
-0.00134198
-0.00212541
-0.002823
-0.0033883
-0.00381352
-0.00404472
-0.00409625
-0.0039168
-0.00346075
-0.00287857
-0.00241765
-0.00194132
-0.00329919
0.0171797
0.0172186
0.0172288
0.0172111
0.0171961
0.0171904
0.017184
0.017165
0.0171364
0.0171029
0.0170665
0.0170163
0.0169455
0.0168505
0.016746
0.0166456
0.0165663
0.0165083
0.0164656
0.0164171
0.0163441
0.0162265
0.0160554
0.0158247
0.0155387
0.0152001
0.0148152
0.0143874
0.013919
0.013412
0.0128659
0.0122812
0.0116542
0.010987
0.0102838
0.00955036
0.00879097
0.00800789
0.00720791
0.00639943
0.00558739
0.00477502
0.00396562
0.00316257
0.00237113
0.0015984
0.000854243
0.000148266
-0.000499534
-0.00107797
-0.00155117
-0.00192143
-0.00214776
-0.00226394
-0.00223504
-0.00202383
-0.00176506
-0.0016584
-0.00147587
-0.00296306
0.0172857
0.0173588
0.0173979
0.0174004
0.0173978
0.0174009
0.0174031
0.0173929
0.0173719
0.0173433
0.0173084
0.017257
0.0171827
0.017084
0.0169759
0.0168748
0.0167992
0.0167522
0.0167295
0.0167115
0.0166788
0.01661
0.0164926
0.0163173
0.016085
0.0157958
0.0154544
0.0150634
0.014625
0.0141412
0.0136123
0.0130385
0.012419
0.011754
0.0110508
0.0103148
0.00955197
0.00876632
0.00796691
0.00716486
0.00636789
0.00558208
0.00481341
0.00406716
0.00334942
0.00266631
0.00202439
0.00142691
0.000885216
0.000398997
-7.39106e-06
-0.00035095
-0.000605365
-0.00082347
-0.000979204
-0.00102695
-0.00105596
-0.00118968
-0.00122175
-0.00266238
0.0172819
0.0173842
0.0174489
0.0174701
0.0174791
0.0174896
0.0174979
0.0174943
0.0174794
0.0174554
0.0174228
0.0173708
0.0172936
0.0171891
0.017074
0.0169649
0.016883
0.0168332
0.0168149
0.0168103
0.0168024
0.0167699
0.0166996
0.0165801
0.0164096
0.0161853
0.0159092
0.0155819
0.0152034
0.0147747
0.0142944
0.0137633
0.0131781
0.0125417
0.0118586
0.0111353
0.0103782
0.00959209
0.00878731
0.007977
0.00717121
0.00637866
0.00560827
0.00486797
0.00416599
0.00350943
0.00290368
0.00234859
0.00184883
0.00139571
0.00100286
0.000642987
0.00033066
6.77058e-07
-0.000320158
-0.000561009
-0.000753851
-0.000959582
-0.0010627
-0.00230349
0.0171922
0.017313
0.0173958
0.0174324
0.017452
0.0174686
0.0174817
0.0174824
0.0174718
0.017451
0.0174202
0.0173682
0.0172887
0.0171799
0.0170575
0.0169393
0.0168465
0.0167864
0.0167597
0.0167521
0.0167486
0.0167301
0.0166849
0.0166017
0.0164781
0.0163098
0.0160971
0.0158382
0.0155308
0.0151735
0.014763
0.0142971
0.0137727
0.0131885
0.0125501
0.0118612
0.011128
0.0103546
0.0095515
0.00873255
0.00790893
0.00709115
0.00629046
0.00551737
0.00478283
0.00409626
0.0034643
0.00288613
0.00236402
0.0018845
0.00145677
0.00104694
0.000665387
0.000242333
-0.000184823
-0.000513765
-0.000725013
-0.000846741
-0.000879634
-0.00181237
0.0170418
0.0171736
0.0172681
0.0173156
0.0173428
0.0173635
0.017379
0.0173821
0.0173739
0.0173552
0.0173262
0.0172749
0.0171951
0.0170839
0.0169576
0.0168323
0.0167302
0.016658
0.0166182
0.0165973
0.0165831
0.0165585
0.0165142
0.0164407
0.0163371
0.0161996
0.0160283
0.0158208
0.0155729
0.0152819
0.0149411
0.0145475
0.0140929
0.0135763
0.0129985
0.0123619
0.0116704
0.0109265
0.0101394
0.00932211
0.0084856
0.00764082
0.00680025
0.00597624
0.00518227
0.00443076
0.00373104
0.00308463
0.00249473
0.00194851
0.00145487
0.000981691
0.000540946
6.50691e-05
-0.000394906
-0.000706626
-0.00081749
-0.000756357
-0.000611765
-0.00118452
0.0168346
0.0169656
0.0170636
0.0171184
0.017152
0.0171772
0.0171962
0.0172027
0.0171979
0.0171825
0.0171559
0.0171068
0.0170281
0.0169175
0.01679
0.0166624
0.0165551
0.0164753
0.0164246
0.0163903
0.0163605
0.0163201
0.0162613
0.0161771
0.0160685
0.015934
0.0157751
0.0155904
0.0153761
0.0151285
0.0148404
0.0145052
0.0141148
0.0136625
0.0131486
0.0125711
0.0119315
0.0112297
0.0104727
0.00967143
0.0088354
0.00797466
0.00710174
0.00622972
0.00537393
0.00454958
0.00376958
0.00303916
0.00236565
0.00173982
0.00117604
0.00064686
0.000171446
-0.000312658
-0.000740781
-0.000958699
-0.000898797
-0.000608747
-0.000222108
-0.000417756
0.0166192
0.0167454
0.0168419
0.0168987
0.0169342
0.0169601
0.0169793
0.0169864
0.0169827
0.0169686
0.0169436
0.0168956
0.0168182
0.0167081
0.0165812
0.0164527
0.0163439
0.0162601
0.016203
0.0161588
0.0161157
0.0160585
0.0159804
0.0158758
0.0157474
0.0155961
0.0154256
0.0152366
0.0150269
0.0147942
0.0145306
0.0142306
0.0138822
0.0134798
0.0130183
0.012494
0.0119055
0.0112497
0.0105306
0.00975696
0.00893559
0.00807474
0.0071859
0.00628177
0.0053785
0.00449348
0.00364288
0.00283663
0.00208707
0.00139124
0.000769986
0.000205632
-0.000274541
-0.000726998
-0.0010776
-0.0011582
-0.000901233
-0.000381106
0.000278639
0.000449782
0.016415
0.0165304
0.0166206
0.0166754
0.0167097
0.0167332
0.0167497
0.0167541
0.0167481
0.0167318
0.0167046
0.0166548
0.0165757
0.0164647
0.016337
0.0162088
0.0160999
0.0160161
0.0159573
0.0159093
0.0158588
0.0157904
0.0156966
0.0155722
0.0154209
0.0152448
0.0150498
0.0148388
0.014612
0.0143689
0.0141039
0.013811
0.0134808
0.0131033
0.0126751
0.0121885
0.0116405
0.0110251
0.010344
0.00960321
0.00880675
0.00796051
0.00707425
0.00615941
0.005232
0.00431055
0.00341397
0.00255612
0.00175505
0.00101358
0.000361245
-0.000211557
-0.000668067
-0.00106072
-0.00130958
-0.00123993
-0.000791283
-5.93355e-05
0.000880778
0.00140229
0.0162295
0.0163332
0.0164147
0.016464
0.0164933
0.0165108
0.0165209
0.0165191
0.0165074
0.0164858
0.016454
0.0163995
0.0163167
0.0162023
0.0160728
0.0159433
0.0158348
0.0157514
0.0156935
0.015645
0.0155925
0.0155186
0.0154157
0.0152774
0.0151075
0.0149085
0.0146871
0.014448
0.0141933
0.013925
0.0136391
0.013333
0.0129959
0.0126221
0.0122044
0.0117359
0.011212
0.010625
0.00997456
0.00926455
0.0084965
0.00767386
0.00680441
0.00589785
0.00496917
0.00403716
0.00312234
0.00224201
0.00141853
0.000660427
3.5648e-06
-0.000552006
-0.000962438
-0.00127819
-0.00141724
-0.00120206
-0.000581933
0.000333921
0.00155124
0.00240142
0.0160368
0.0161234
0.0161928
0.0162354
0.0162593
0.0162714
0.0162759
0.0162686
0.0162515
0.0162247
0.0161873
0.0161277
0.0160396
0.0159211
0.0157879
0.0156568
0.0155477
0.0154657
0.0154095
0.0153635
0.0153124
0.0152385
0.0151327
0.0149878
0.0148068
0.0145917
0.0143494
0.0140848
0.0138019
0.0135036
0.013189
0.012856
0.0124987
0.0121091
0.011684
0.0112152
0.0106983
0.0101249
0.00949379
0.00880751
0.00806566
0.00726969
0.00642559
0.00554112
0.00462987
0.00371001
0.0028029
0.00192773
0.00111065
0.000363373
-0.000271764
-0.000788947
-0.00113763
-0.00136896
-0.00140079
-0.00105481
-0.000287737
0.000789491
0.00227549
0.00343891
0.0158656
0.0159367
0.0159933
0.0160264
0.0160416
0.0160449
0.0160404
0.0160248
0.0159998
0.0159656
0.0159211
0.0158542
0.0157594
0.0156343
0.0154961
0.0153607
0.0152495
0.0151663
0.0151111
0.0150665
0.0150178
0.0149458
0.0148408
0.0146948
0.0145095
0.0142863
0.0140311
0.0137489
0.0134434
0.0131191
0.0127755
0.012414
0.0120278
0.0116147
0.0111695
0.0106867
0.0101626
0.00958912
0.00896501
0.00829257
0.00757031
0.00679839
0.00598144
0.00512549
0.00424258
0.00334982
0.00246862
0.00161929
0.000829962
0.000114645
-0.000481016
-0.000944888
-0.00122276
-0.00136809
-0.00129966
-0.000838
5.57392e-05
0.0012769
0.0030244
0.00448664
0.0157122
0.0157662
0.015809
0.0158315
0.0158369
0.0158296
0.0158143
0.0157877
0.015752
0.015707
0.0156519
0.0155748
0.01547
0.0153361
0.01519
0.015049
0.0149337
0.014849
0.0147935
0.0147504
0.014704
0.0146351
0.0145331
0.0143894
0.0142048
0.0139799
0.0137197
0.0134282
0.0131091
0.0127661
0.0124004
0.0120127
0.0116008
0.0111601
0.0106906
0.0101866
0.00964607
0.00906231
0.00843498
0.00776691
0.00705646
0.00630332
0.00551126
0.0046852
0.00383553
0.00297846
0.00213457
0.00132494
0.000578198
-9.05041e-05
-0.000633659
-0.00103497
-0.00123788
-0.00129901
-0.00113822
-0.000574165
0.000431789
0.00178931
0.00379237
0.0055465
0.0155688
0.0156081
0.0156376
0.0156484
0.0156422
0.0156224
0.015594
0.0155542
0.0155056
0.0154479
0.0153805
0.0152912
0.0151751
0.0150302
0.0148752
0.0147262
0.0146057
0.014517
0.01446
0.0144166
0.0143714
0.0143047
0.0142058
0.0140655
0.0138843
0.0136618
0.0134022
0.0131087
0.0127837
0.0124311
0.0120509
0.0116459
0.0112116
0.010749
0.0102553
0.0097284
0.00916756
0.00856766
0.00792989
0.00725823
0.00655179
0.00581039
0.00503776
0.00423798
0.00342055
0.0026004
0.00179775
0.00103329
0.000336038
-0.000279317
-0.00076435
-0.00109927
-0.00122593
-0.00120567
-0.000958791
-0.000300234
0.000811159
0.00230261
0.00455917
0.00659876
0.0153956
0.0154167
0.0154317
0.015432
0.015416
0.0153862
0.0153473
0.0152968
0.0152372
0.0151684
0.0150893
0.0149886
0.0148607
0.0147054
0.0145406
0.0143842
0.0142576
0.0141655
0.0141062
0.0140624
0.0140178
0.0139529
0.0138566
0.01372
0.0135429
0.0133247
0.013069
0.012778
0.0124536
0.0120982
0.0117122
0.0112964
0.0108497
0.010369
0.00985671
0.00930952
0.00872873
0.00811105
0.00745943
0.00677938
0.0060713
0.00533581
0.004577
0.00379891
0.00301014
0.00222531
0.00146335
0.0007457
9.95417e-05
-0.000459221
-0.000884551
-0.00115138
-0.00120288
-0.00110386
-0.000774755
-2.58385e-05
0.00118915
0.00281827
0.00532768
0.0076513
0.0152181
0.0152241
0.0152255
0.0152137
0.0151862
0.0151443
0.0150932
0.0150307
0.0149593
0.0148787
0.0147882
0.0146756
0.0145364
0.0143695
0.0141949
0.0140295
0.0138964
0.0137989
0.0137364
0.0136904
0.0136452
0.0135805
0.0134858
0.0133517
0.0131783
0.0129647
0.0127141
0.0124281
0.0121078
0.011755
0.0113686
0.0109504
0.0104958
0.0100066
0.00948058
0.00891792
0.00832023
0.00768594
0.00701967
0.00632861
0.00561477
0.00487996
0.00412904
0.00336637
0.00260039
0.00184549
0.00112
0.000445587
-0.00015199
-0.000656329
-0.0010235
-0.00122344
-0.0012011
-0.00102491
-0.000614947
0.000224661
0.00154627
0.0033183
0.00608203
0.00868657
0.0150266
0.0150165
0.015004
0.0149804
0.0149414
0.0148873
0.0148235
0.0147478
0.0146633
0.0145695
0.0144657
0.0143399
0.0141877
0.0140092
0.0138239
0.0136502
0.0135102
0.0134086
0.0133432
0.0132958
0.01325
0.0131857
0.0130921
0.0129601
0.0127898
0.0125803
0.0123349
0.0120546
0.0117401
0.0113923
0.0110101
0.0105927
0.0101386
0.00964376
0.00911101
0.00853803
0.00792771
0.00727987
0.00660056
0.00589852
0.00517747
0.00444049
0.00369361
0.00294163
0.00219352
0.00146353
0.00076987
0.000134589
-0.000418253
-0.000870625
-0.00118237
-0.00131672
-0.00122246
-0.000969794
-0.00047824
0.000454478
0.00188742
0.00380992
0.00682951
0.00971491
0.0148148
0.0147913
0.014766
0.0147302
0.0146788
0.0146114
0.0145339
0.0144443
0.0143461
0.0142387
0.0141218
0.0139828
0.0138185
0.0136279
0.0134326
0.01325
0.0131041
0.0129975
0.0129295
0.0128802
0.0128338
0.0127693
0.0126764
0.0125458
0.0123779
0.0121719
0.011931
0.0116562
0.0113476
0.011006
0.0106289
0.0102166
0.00976343
0.00927021
0.00873392
0.00815519
0.00753638
0.00687836
0.00618818
0.00547599
0.00474695
0.00400566
0.00325914
0.00251306
0.00177725
0.00106607
0.000398439
-0.000203873
-0.000716979
-0.0011225
-0.00138134
-0.00145204
-0.00128737
-0.000958282
-0.00038305
0.000647312
0.00219834
0.00427793
0.00755571
0.010719
0.01454
0.0144996
0.0144605
0.0144144
0.0143534
0.0142765
0.0141891
0.0140896
0.0139812
0.0138637
0.0137361
0.0135869
0.0134117
0.0132119
0.0130079
0.0128193
0.0126684
0.0125597
0.0124903
0.012441
0.0123948
0.0123311
0.012239
0.0121099
0.011944
0.0117408
0.0115035
0.0112333
0.0109302
0.0105942
0.0102232
0.00981513
0.00936753
0.00887474
0.00833902
0.00775757
0.00713371
0.00646872
0.00577058
0.0050502
0.00431416
0.00356836
0.00282069
0.00207811
0.00135099
0.00065492
8.5655e-06
-0.000564651
-0.00104294
-0.00140389
-0.00161314
-0.00162073
-0.00138711
-0.000980989
-0.000319056
0.000813819
0.00248919
0.00473278
0.00827079
0.0117109
0.0142416
0.0141874
0.0141356
0.0140779
0.0140059
0.0139178
0.0138195
0.0137095
0.0135912
0.013464
0.0133274
0.0131686
0.0129847
0.0127759
0.0125647
0.0123695
0.0122147
0.012103
0.0120325
0.0119827
0.0119368
0.0118734
0.0117822
0.0116541
0.0114897
0.0112887
0.0110544
0.010788
0.0104891
0.0101582
0.00979167
0.00938917
0.00894373
0.00845547
0.00792003
0.00733775
0.00671097
0.00604129
0.00533713
0.00460993
0.0038674
0.00311646
0.00236602
0.00162396
0.000901986
0.000216377
-0.00041303
-0.00096253
-0.00140983
-0.00173071
-0.00189103
-0.00183697
-0.00153557
-0.00105192
-0.00030017
0.000940431
0.00274657
0.0051593
0.00895876
0.0126712
0.0139117
0.013843
0.0137787
0.0137102
0.0136278
0.013529
0.01342
0.0132991
0.0131702
0.0130328
0.012886
0.0127176
0.0125243
0.0123076
0.0120894
0.01189
0.0117323
0.0116201
0.01155
0.0115018
0.0114575
0.0113959
0.0113061
0.0111795
0.0110168
0.0108178
0.0105859
0.0103223
0.010027
0.00969941
0.00933708
0.0089371
0.00849645
0.00800851
0.00747455
0.00689189
0.0062632
0.00559046
0.00488197
0.00414963
0.00340183
0.00264643
0.0018931
0.00115079
0.000432268
-0.000244912
-0.000860303
-0.0013885
-0.00180813
-0.00208971
-0.00220304
-0.00208771
-0.00171911
-0.00115692
-0.000312103
0.00104092
0.00298307
0.00556966
0.00963153
0.0136137
0.0135538
0.0134737
0.0133981
0.0133187
0.0132255
0.0131154
0.0129951
0.012863
0.0127237
0.0125762
0.0124203
0.0122429
0.0120416
0.0118173
0.0115938
0.0113899
0.0112307
0.0111179
0.0110492
0.0110026
0.0109605
0.0109009
0.0108132
0.0106884
0.0105276
0.0103305
0.0101007
0.00983955
0.0095465
0.00922171
0.00886124
0.00846427
0.00802345
0.00753799
0.00700348
0.00641996
0.00578958
0.00511398
0.00440159
0.00366438
0.00291135
0.00215108
0.00139379
0.000649509
-6.79452e-05
-0.000739518
-0.00134395
-0.00185419
-0.00224862
-0.00249341
-0.00255942
-0.00238287
-0.00194892
-0.00130827
-0.000368036
0.00110147
0.00318419
0.00594752
0.0102714
0.0145181
0.0131261
0.0130312
0.012944
0.0128564
0.0127559
0.0126392
0.0125122
0.0123739
0.0122282
0.012075
0.0119129
0.01173
0.0115229
0.0112944
0.0110672
0.0108624
0.0107033
0.0105933
0.0105276
0.010485
0.0104467
0.0103906
0.0103057
0.0101835
0.0100249
0.00982977
0.00960203
0.00934266
0.0090515
0.00872791
0.00836902
0.00797183
0.00753278
0.00704514
0.00650989
0.00592449
0.00529164
0.00461281
0.00389653
0.00315475
0.00239697
0.00163215
0.000871092
0.000124576
-0.000592345
-0.00125939
-0.00185414
-0.00234781
-0.00271844
-0.00292649
-0.00294576
-0.00270836
-0.0022092
-0.00148956
-0.00045178
0.00113747
0.00336416
0.00630667
0.0108927
0.0154014
0.0126802
0.0125741
0.0124766
0.0123797
0.0122707
0.0121459
0.0120114
0.0118664
0.0117151
0.0115567
0.0113903
0.0112028
0.010992
0.0107595
0.0105303
0.0103241
0.0101661
0.0100579
0.00999581
0.00995676
0.0099224
0.00986978
0.00978812
0.00966856
0.0095123
0.00931931
0.00909337
0.00883559
0.00854541
0.00822279
0.00786366
0.00746694
0.00702513
0.00653705
0.0059985
0.0054099
0.00477309
0.00408971
0.00336828
0.00262094
0.00185744
0.00108706
0.000321038
-0.00042924
-0.00114739
-0.00181208
-0.00239912
-0.00287865
-0.00322667
-0.00339991
-0.00337127
-0.00307313
-0.00251091
-0.0017134
-0.000577431
0.00113336
0.00350631
0.00662864
0.0114746
0.0162401
0.0122027
0.0120851
0.011978
0.0118733
0.0117574
0.0116256
0.0114847
0.0113333
0.0111764
0.0110127
0.0108416
0.0106498
0.0104351
0.0102002
0.00996971
0.00976474
0.00960937
0.00950606
0.00944948
0.00941662
0.00938792
0.00934046
0.00926306
0.00914698
0.00899354
0.00880274
0.00857856
0.00832193
0.00803264
0.00770993
0.00735069
0.0069518
0.00650926
0.00601627
0.00547406
0.0048804
0.00423794
0.00354843
0.00282067
0.00206699
0.00129729
0.000521134
-0.000250072
-0.00100428
-0.0017241
-0.00238689
-0.00296709
-0.00343302
-0.00375936
-0.00389743
-0.00382167
-0.00346366
-0.0028383
-0.001963
-0.000728223
0.00110566
0.00362631
0.00692912
0.012034
0.0170543
0.0116912
0.011563
0.0114462
0.0113327
0.0112091
0.0110707
0.0109243
0.0107687
0.0106091
0.0104435
0.0102716
0.0100789
0.00986429
0.00962906
0.00940016
0.00919731
0.0090466
0.00894859
0.00889887
0.00887257
0.00885048
0.00880861
0.00873598
0.00862366
0.00847309
0.00828444
0.00806167
0.00780598
0.00751675
0.00719382
0.00683289
0.0064326
0.00598505
0.00548893
0.00494049
0.00434022
0.00369033
0.00299275
0.00225675
0.00149492
0.000717367
-6.61786e-05
-0.000844171
-0.00160399
-0.0023273
-0.00299012
-0.0035653
-0.00401961
-0.00432551
-0.00443019
-0.00430721
-0.00388981
-0.00320362
-0.00225263
-0.000920009
0.00103653
0.00370515
0.0071874
0.0125475
0.0178175
0.0111413
0.0109963
0.0108685
0.0107493
0.0106227
0.0104828
0.0103361
0.0101813
0.0100233
0.00986031
0.00969065
0.00950035
0.00928689
0.00905391
0.00882701
0.00862865
0.00848298
0.00839239
0.00835004
0.00833181
0.00831667
0.00828101
0.00821306
0.00810426
0.00795602
0.00776879
0.00754667
0.0072909
0.00700112
0.00667655
0.00631376
0.00590935
0.00545883
0.00495555
0.00440077
0.00379242
0.00313344
0.00242617
0.00168044
0.000909264
0.000122935
-0.000668713
-0.00145401
-0.0022199
-0.00294718
-0.00361055
-0.00418148
-0.00462473
-0.00491117
-0.00498268
-0.00481408
-0.00433894
-0.00359178
-0.00256551
-0.00113562
0.000943639
0.00376025
0.00742157
0.0130348
0.018553
0.0107481
0.0105989
0.0104594
0.0103231
0.0101765
0.0100164
0.009851
0.00967983
0.00950883
0.00933553
0.0091591
0.00896334
0.00874711
0.0085117
0.00828487
0.00808713
0.00794464
0.00785787
0.00782088
0.00780779
0.00779778
0.00776619
0.00770131
0.00759441
0.00744697
0.00725968
0.00703668
0.0067795
0.00648746
0.00616041
0.00579378
0.00538586
0.00492846
0.00442006
0.00385678
0.00323917
0.00256968
0.00185102
0.00109372
0.000311294
-0.000485719
-0.00128737
-0.00208186
-0.00285576
-0.00358899
-0.00425499
-0.00482365
-0.00525803
-0.00552674
-0.00556762
-0.00535453
-0.00482303
-0.00401721
-0.00291827
-0.00139346
0.000806373
0.00376967
0.00760813
0.0134694
0.019231
0.0102759
0.0101176
0.00997543
0.00984125
0.00969787
0.00953961
0.00937386
0.00920061
0.00902558
0.00884777
0.0086657
0.00846509
0.0082435
0.00800464
0.00777477
0.00757663
0.00743454
0.00735029
0.00731601
0.00730625
0.00729884
0.00726923
0.00720513
0.00709793
0.00694917
0.00675968
0.00653384
0.0062732
0.00597748
0.00564594
0.00527491
0.00486069
0.00439839
0.00388076
0.00330924
0.00268117
0.002
0.00126883
0.000498852
-0.00029584
-0.00110446
-0.00191694
-0.00272133
-0.00350386
-0.0042437
-0.00491303
-0.00548035
-0.00590675
-0.00615915
-0.00617048
-0.00591552
-0.00533
-0.00446569
-0.00329474
-0.00167606
0.000643681
0.00375299
0.00776767
0.0138736
0.0198768
0.00990115
0.00974656
0.00960197
0.00946093
0.00930797
0.00913901
0.00896237
0.00877825
0.00859331
0.00840603
0.00821611
0.0080079
0.00778065
0.0075364
0.00730346
0.00710266
0.00696002
0.00687534
0.00684163
0.00683179
0.00682416
0.00679328
0.00672715
0.00661693
0.0064643
0.00627026
0.00603926
0.00577323
0.00547157
0.00513425
0.00475641
0.00433612
0.00386444
0.00333976
0.00275764
0.00211829
0.0014245
0.000679681
-0.000104329
-0.000912869
-0.00173487
-0.00256007
-0.00337636
-0.00416962
-0.00491819
-0.00559318
-0.00616143
-0.00658251
-0.006821
-0.00680618
-0.00651173
-0.00587411
-0.00495402
-0.00371392
-0.00200447
0.000432232
0.00368543
0.00787402
0.0142186
0.0204586
0.00947056
0.00931158
0.009169
0.00903521
0.00889074
0.00872921
0.00855749
0.00837601
0.00819075
0.00800128
0.00780651
0.00759263
0.00735803
0.00710734
0.006868
0.00666299
0.00651679
0.0064302
0.00639444
0.0063827
0.00637226
0.0063378
0.00626702
0.00615127
0.00599233
0.00579132
0.00555297
0.00527922
0.00496984
0.0046243
0.00423862
0.00380887
0.00332968
0.00279341
0.00220108
0.00154953
0.000842326
8.32068e-05
-0.000715456
-0.00153848
-0.00237453
-0.00321316
-0.00404204
-0.00484671
-0.0056048
-0.00628628
-0.00685665
-0.00727362
-0.00750012
-0.00746103
-0.0071302
-0.0064434
-0.00546809
-0.00415952
-0.00236029
0.000192682
0.00358908
0.00795065
0.0145307
0.0210071
0.00917549
0.00902642
0.00888657
0.00874979
0.00859853
0.00842814
0.00824641
0.00805413
0.00785801
0.00765725
0.00745162
0.00722614
0.00698083
0.00671916
0.00647081
0.00625738
0.0061051
0.00601292
0.00597274
0.00595606
0.00594054
0.00589997
0.00582235
0.00569887
0.00553148
0.0053215
0.00507367
0.00479028
0.00447083
0.00411555
0.00371937
0.00328022
0.00278881
0.00224316
0.00163813
0.000973506
0.000252086
-0.00052222
-0.00133656
-0.00217534
-0.00302697
-0.0038808
-0.00472421
-0.00554242
-0.00631229
-0.00700279
-0.00757785
-0.00799384
-0.00821132
-0.00815212
-0.0077879
-0.00705447
-0.0060268
-0.0046529
-0.00276724
-0.000101272
0.00343616
0.00796867
0.0147788
0.0214882
0.00880799
0.00866777
0.00853842
0.00841353
0.00827251
0.00810923
0.00793032
0.00773678
0.00753542
0.00732671
0.00711065
0.00687392
0.00661635
0.00634358
0.00608488
0.00586357
0.00570468
0.00560775
0.00556298
0.00554177
0.00552071
0.00547356
0.00538812
0.00525571
0.00507851
0.00485791
0.00459901
0.00430409
0.00397315
0.00360589
0.0031983
0.0027464
0.00224461
0.00168449
0.00106708
0.000388245
-0.000348134
-0.0011381
-0.00196849
-0.00282337
-0.00369102
-0.00456058
-0.00541914
-0.00625154
-0.00703403
-0.00773446
-0.00831562
-0.00873202
-0.00894284
-0.00886572
-0.00847172
-0.00769473
-0.00661568
-0.00517692
-0.00320537
-0.000426515
0.00325172
0.00795463
0.0149921
0.0219366
0.00838772
0.00825545
0.00813689
0.00802517
0.00789757
0.00774674
0.00757812
0.00739208
0.00719489
0.00698642
0.00676712
0.00652336
0.00625702
0.00597374
0.00570557
0.00547527
0.00530981
0.00520712
0.00515793
0.00513177
0.00510539
0.00505148
0.00495807
0.00481631
0.00462863
0.00439662
0.00412553
0.00381806
0.00347394
0.00309375
0.00267241
0.00220796
0.00169064
0.00111854
0.000485847
-0.00020807
-0.000960251
-0.00176674
-0.00261414
-0.0034863
-0.0043714
-0.00525836
-0.00613396
-0.00698273
-0.00778016
-0.00849324
-0.00908329
-0.00950363
-0.00971116
-0.0096207
-0.00920022
-0.00838241
-0.00725501
-0.00575469
-0.00370041
-0.000811798
0.00300554
0.00787733
0.015138
0.0223152
0.00798474
0.00785489
0.00773998
0.00763303
0.00751111
0.00736569
0.00720207
0.00701982
0.00682483
0.00661658
0.00639474
0.00614629
0.00587266
0.0055818
0.00530573
0.00506956
0.00489932
0.00479391
0.00474224
0.00471369
0.00468363
0.0046246
0.00452418
0.0043737
0.00417578
0.00393222
0.00364864
0.00332784
0.00297003
0.00257539
0.00213992
0.00165983
0.00112944
0.000540205
-0.00010717
-0.000817199
-0.00158603
-0.00240962
-0.00327445
-0.00416426
-0.00506719
-0.00597202
-0.00686524
-0.00773097
-0.00854424
-0.00927088
-0.0098714
-0.0102971
-0.010504
-0.0104026
-0.00995919
-0.0091035
-0.00792875
-0.00636708
-0.00423004
-0.00123106
0.00272581
0.00776657
0.015249
0.0226626
0.00761998
0.00749109
0.00737632
0.0072693
0.00714667
0.00700033
0.00683537
0.00665152
0.0064544
0.00624287
0.00601656
0.00576128
0.00547981
0.00517954
0.00489515
0.0046512
0.00447585
0.00436651
0.00431263
0.00428165
0.00424883
0.00418545
0.00407909
0.00392077
0.00371332
0.00345878
0.00316291
0.00282893
0.00245689
0.00204786
0.00159689
0.0011023
0.000554418
-4.87463e-05
-0.000713406
-0.00144047
-0.00222693