/*--------------------------------*- C++ -*----------------------------------*\
  =========                 |
  \\      /  F ield         | OpenFOAM: The Open Source CFD Toolbox
   \\    /   O peration     | Website:  https://openfoam.org
    \\  /    A nd           | Version:  6.0
     \\/     M anipulation  |
\*---------------------------------------------------------------------------*/
FoamFile
{
    version     2.0;
    format      ascii;
    class       surfaceScalarField;
    location    "20";
    object      phi;
}
// * * * * * * * * * * * * * * * * * * * * * * * * * * * * * * * * * * * * * //

dimensions      [0 3 -1 0 0 0 0];

internalField   nonuniform List<scalar> 
123526
(
-8.09677e-05
2.26157e-05
8.13462e-05
-8.05485e-05
2.44595e-05
-8.01026e-05
2.64544e-05
-7.96155e-05
2.86129e-05
-7.90941e-05
3.09485e-05
-7.85264e-05
3.34759e-05
-7.79174e-05
3.62109e-05
-7.72557e-05
3.9171e-05
-7.65444e-05
4.23737e-05
-7.57709e-05
4.584e-05
-7.49395e-05
4.95926e-05
-7.40362e-05
5.36545e-05
-7.30648e-05
5.80517e-05
-7.2007e-05
6.28097e-05
-7.08649e-05
6.79602e-05
-6.96247e-05
7.35407e-05
-6.82886e-05
7.95837e-05
-6.68316e-05
8.61211e-05
-6.52559e-05
9.32044e-05
-6.35474e-05
0.000100881
-6.1694e-05
0.000109188
-5.96784e-05
0.000118187
-5.74996e-05
0.000127944
-5.51236e-05
0.000138497
-5.25498e-05
0.000149945
-4.97548e-05
0.00016234
-4.67163e-05
0.000175765
-4.34231e-05
0.000190314
-3.98388e-05
0.00020606
-3.59558e-05
0.000223123
-3.17308e-05
0.000241581
-2.71479e-05
0.000261568
-2.21654e-05
0.00028318
-1.67539e-05
0.000306549
-1.08893e-05
0.000331802
-4.52321e-06
0.000359047
2.36946e-06
0.000388435
9.83832e-06
0.000420066
1.79344e-05
0.000454052
2.66959e-05
0.000490507
3.61724e-05
0.000529495
4.64181e-05
0.000571054
5.74765e-05
0.000615189
6.93886e-05
0.000661827
8.21923e-05
0.000710807
9.59207e-05
0.000761854
0.00011059
0.000814536
0.000126221
0.000868211
0.000142803
0.000921967
0.00016033
0.000974528
0.000178766
0.00102417
0.000198004
0.00106855
0.000218017
0.00110458
0.00023852
0.00112844
0.00025928
0.00113527
0.000279794
0.00111918
0.000299631
0.00107235
0.000317961
0.00098599
0.000333834
0.000842964
0.000619596
0.00033395
-7.96192e-05
2.22429e-05
7.99871e-05
-7.92111e-05
2.40562e-05
-7.87768e-05
2.6018e-05
-7.83015e-05
2.81407e-05
-7.77924e-05
3.04376e-05
-7.72374e-05
3.29233e-05
-7.66413e-05
3.56136e-05
-7.59937e-05
3.85255e-05
-7.52971e-05
4.16756e-05
-7.45403e-05
4.50852e-05
-7.37266e-05
4.87771e-05
-7.28437e-05
5.27735e-05
-7.18942e-05
5.70999e-05
-7.08614e-05
6.17788e-05
-6.97465e-05
6.68428e-05
-6.85368e-05
7.23328e-05
-6.72331e-05
7.82778e-05
-6.58123e-05
8.4702e-05
-6.42748e-05
9.16652e-05
-6.26083e-05
9.92157e-05
-6.07992e-05
0.000107377
-5.88315e-05
0.00011622
-5.67031e-05
0.000125815
-5.43812e-05
0.000136176
-5.18646e-05
0.000147428
-4.91297e-05
0.000159605
-4.6155e-05
0.000172791
-4.29282e-05
0.000187087
-3.94144e-05
0.000202546
-3.56041e-05
0.000219313
-3.14569e-05
0.000237434
-2.69555e-05
0.000257067
-2.20592e-05
0.000278287
-1.67394e-05
0.000301234
-1.09701e-05
0.000326038
-4.70353e-06
0.000352785
2.08381e-06
0.000381651
9.43918e-06
0.000412714
1.74106e-05
0.000446084
2.60339e-05
0.000481886
3.53554e-05
0.000520176
4.54258e-05
0.000560985
5.62852e-05
0.00060433
6.79722e-05
0.000650139
8.05238e-05
0.000698252
9.39745e-05
0.000748396
0.000108345
0.000800146
0.000123663
0.000852867
0.000139926
0.000905652
0.000157132
0.000957248
0.000175248
0.00100595
0.000194167
0.00104947
0.00021386
0.00108479
0.00023403
0.00110817
0.00025445
0.00111483
0.000274615
0.00109898
0.000294047
0.00105293
0.000311938
0.0009681
0.000324163
0.000830738
0.000619432
0.000324359
-7.8408e-05
2.18768e-05
7.87691e-05
-7.80078e-05
2.36606e-05
-7.75822e-05
2.55902e-05
-7.71163e-05
2.7678e-05
-7.66173e-05
2.99369e-05
-7.60725e-05
3.23814e-05
-7.54871e-05
3.50271e-05
-7.48498e-05
3.78909e-05
-7.41635e-05
4.09886e-05
-7.34169e-05
4.43414e-05
-7.2613e-05
4.79728e-05
-7.17408e-05
5.19042e-05
-7.08016e-05
5.61606e-05
-6.97817e-05
6.07617e-05
-6.86795e-05
6.57408e-05
-6.74866e-05
7.11424e-05
-6.62004e-05
7.6992e-05
-6.48022e-05
8.33058e-05
-6.32889e-05
9.01523e-05
-6.1652e-05
9.75803e-05
-5.98753e-05
0.000105601
-5.79454e-05
0.000114291
-5.58585e-05
0.000123729
-5.35833e-05
0.000133901
-5.11177e-05
0.000144964
-4.84389e-05
0.000156927
-4.55255e-05
0.000169878
-4.23645e-05
0.000183927
-3.89225e-05
0.000199105
-3.5189e-05
0.00021558
-3.11257e-05
0.00023337
-2.67149e-05
0.000252657
-2.19187e-05
0.000273494
-1.67067e-05
0.000296028
-1.10527e-05
0.000320389
-4.90783e-06
0.000346644
1.75119e-06
0.000374996
8.96897e-06
0.000405499
1.6791e-05
0.000438265
2.52513e-05
0.000473429
3.43945e-05
0.000511035
4.42703e-05
0.00055111
5.49183e-05
0.000593682
6.63777e-05
0.000638677
7.86875e-05
0.000685936
9.18858e-05
0.000735189
0.000105998
0.000786015
0.000121056
0.000837787
0.000137059
0.000889612
0.000154005
0.000940257
0.000171861
0.00098805
0.000190509
0.00103074
0.000209915
0.00106539
0.000229772
0.00108827
0.000249859
0.00109477
0.000269676
0.00107915
0.000288684
0.00103395
0.000306177
0.00095062
0.000318582
0.000818364
0.000617614
0.000320382
-7.72679e-05
2.15135e-05
7.76258e-05
-7.68716e-05
2.32684e-05
-7.64513e-05
2.51669e-05
-7.59916e-05
2.7221e-05
-7.55011e-05
2.94435e-05
-7.4966e-05
3.18484e-05
-7.43922e-05
3.4451e-05
-7.37675e-05
3.7268e-05
-7.30954e-05
4.0314e-05
-7.23633e-05
4.36107e-05
-7.1575e-05
4.7182e-05
-7.0718e-05
5.10485e-05
-6.97949e-05
5.52348e-05
-6.87903e-05
5.97581e-05
-6.77047e-05
6.46527e-05
-6.65279e-05
6.99666e-05
-6.52596e-05
7.57217e-05
-6.38799e-05
8.19271e-05
-6.23877e-05
8.86591e-05
-6.0774e-05
9.59676e-05
-5.90237e-05
0.000103851
-5.71239e-05
0.000112392
-5.50709e-05
0.000121677
-5.28346e-05
0.000131666
-5.04126e-05
0.000142543
-4.77827e-05
0.000154298
-4.49236e-05
0.000167021
-4.18229e-05
0.000180828
-3.84475e-05
0.000195731
-3.4787e-05
0.00021192
-3.08041e-05
0.000229388
-2.64819e-05
0.000248336
-2.17815e-05
0.000268797
-1.66753e-05
0.000290926
-1.11352e-05
0.000314855
-5.1134e-06
0.000340626
1.41347e-06
0.000368472
8.48895e-06
0.000398427
1.6157e-05
0.000430599
2.44511e-05
0.000465137
3.34154e-05
0.000502074
4.30996e-05
0.000541429
5.35438e-05
0.000583241
6.47887e-05
0.000627436
7.68755e-05
0.000673853
8.9844e-05
0.000722226
0.000103723
0.000772138
0.000118542
0.00082297
0.000134303
0.000873842
0.000150999
0.000923544
0.000168594
0.000970429
0.000186965
0.00101229
0.000206075
0.00104627
0.000225623
0.00106871
0.00024538
0.00107505
0.000264857
0.00105969
0.000283471
0.00101537
0.000300607
0.000933515
0.000313445
0.000805547
0.00061488
0.000316221
-7.61521e-05
2.11571e-05
7.65038e-05
-7.57619e-05
2.28822e-05
-7.53461e-05
2.47492e-05
-7.48919e-05
2.67698e-05
-7.44062e-05
2.89565e-05
-7.38783e-05
3.13231e-05
-7.33123e-05
3.38844e-05
-7.26986e-05
3.66568e-05
-7.20383e-05
3.96536e-05
-7.13217e-05
4.28966e-05
-7.05494e-05
4.641e-05
-6.9712e-05
5.02135e-05
-6.88079e-05
5.43315e-05
-6.78258e-05
5.87783e-05
-6.67614e-05
6.35893e-05
-6.56089e-05
6.88162e-05
-6.43634e-05
7.44774e-05
-6.30096e-05
8.05749e-05
-6.15426e-05
8.71932e-05
-5.99569e-05
9.4383e-05
-5.82353e-05
0.00010213
-5.63673e-05
0.000110525
-5.43481e-05
0.000119658
-5.21495e-05
0.000129468
-4.97685e-05
0.000140163
-4.71843e-05
0.000151715
-4.43757e-05
0.000164213
-4.13308e-05
0.000177784
-3.80173e-05
0.000192419
-3.44251e-05
0.000208329
-3.05178e-05
0.000225481
-2.62778e-05
0.000244097
-2.16687e-05
0.000264191
-1.6661e-05
0.000285925
-1.12294e-05
0.000309428
-5.32574e-06
0.000334726
1.07315e-06
0.000362077
8.01038e-06
0.000391492
1.55296e-05
0.000423083
2.3664e-05
0.000457005
3.24578e-05
0.000493282
4.19607e-05
0.000531928
5.22134e-05
0.000572989
6.32574e-05
0.000616392
7.51346e-05
0.000661973
8.78859e-05
0.000709471
0.000101539
0.000758474
0.000116125
0.000808374
0.000131641
0.000858305
0.00014808
0.000907081
0.000165402
0.000953087
0.000183484
0.000994159
0.000202291
0.00102748
0.000221524
0.00104947
0.000240953
0.00105567
0.000260091
0.00104055
0.000278336
0.000997158
0.000295094
0.000916771
0.000307991
0.000792676
0.000610479
0.000312362
-7.50109e-05
2.08143e-05
7.53489e-05
-7.4634e-05
2.25089e-05
-7.42305e-05
2.43433e-05
-7.37874e-05
2.63291e-05
-7.3312e-05
2.84789e-05
-7.27935e-05
3.08064e-05
-7.2237e-05
3.33262e-05
-7.16331e-05
3.60544e-05
-7.09841e-05
3.90031e-05
-7.02802e-05
4.2194e-05
-6.95234e-05
4.56516e-05
-6.87033e-05
4.93945e-05
-6.78198e-05
5.34465e-05
-6.68599e-05
5.78193e-05
-6.5821e-05
6.25489e-05
-6.46949e-05
6.76908e-05
-6.34784e-05
7.32599e-05
-6.21542e-05
7.92513e-05
-6.07188e-05
8.57575e-05
-5.91654e-05
9.28302e-05
-5.74778e-05
0.000100443
-5.56454e-05
0.000108694
-5.36636e-05
0.000117678
-5.15049e-05
0.00012731
-4.91666e-05
0.000137827
-4.66284e-05
0.000149178
-4.38698e-05
0.000161456
-4.08794e-05
0.000174795
-3.76254e-05
0.000189167
-3.40985e-05
0.000204803
-3.02626e-05
0.000221645
-2.61013e-05
0.000239936
-2.15767e-05
0.000259671
-1.6663e-05
0.000281016
-1.13334e-05
0.000304104
-5.5417e-06
0.000328938
7.35374e-07
0.000355802
7.54101e-06
0.000384689
1.49188e-05
0.000415708
2.2902e-05
0.000449025
3.15346e-05
0.000484652
4.08661e-05
0.000522599
5.09374e-05
0.000562922
6.17901e-05
0.000605544
7.34662e-05
0.000650303
8.60056e-05
0.00069694
9.94362e-05
0.00074505
0.000113787
0.000794035
0.000129053
0.000843043
0.000145228
0.00089091
0.000162271
0.000936042
0.000180057
0.000976326
0.000198555
0.00100899
0.000217476
0.00103057
0.000236578
0.00103662
0.000255385
0.00102178
0.00027328
0.000979316
0.000289649
0.000900442
0.000302646
0.000779706
0.000604591
0.000308581
-7.37985e-05
2.0488e-05
7.41205e-05
-7.34403e-05
2.2154e-05
-7.3056e-05
2.3957e-05
-7.26328e-05
2.59084e-05
-7.21767e-05
2.80212e-05
-7.16769e-05
3.03089e-05
-7.11383e-05
3.27864e-05
-7.05514e-05
3.54697e-05
-6.99191e-05
3.83699e-05
-6.9232e-05
4.15089e-05
-6.84922e-05
4.49115e-05
-6.76908e-05
4.85949e-05
-6.68271e-05
5.25828e-05
-6.58898e-05
5.68837e-05
-6.48749e-05
6.15344e-05
-6.37764e-05
6.65936e-05
-6.25887e-05
7.20729e-05
-6.12968e-05
7.79603e-05
-5.98948e-05
8.43564e-05
-5.83776e-05
9.13136e-05
-5.67274e-05
9.87935e-05
-5.49347e-05
0.000106901
-5.29938e-05
0.000115738
-5.08784e-05
0.000125195
-4.85854e-05
0.000135535
-4.60953e-05
0.000146688
-4.33878e-05
0.000158751
-4.04521e-05
0.000171861
-3.72574e-05
0.000185973
-3.37942e-05
0.000201341
-3.00278e-05
0.000217879
-2.5941e-05
0.000235851
-2.14989e-05
0.000255232
-1.66736e-05
0.000276197
-1.14414e-05
0.000298876
-5.75609e-06
0.000323256
4.05246e-07
0.000349644
7.08579e-06
0.000378011
1.43293e-05
0.000408466
2.21688e-05
0.000441187
3.06478e-05
0.000476175
3.98158e-05
0.000513432
4.97129e-05
0.000553025
6.03806e-05
0.000594876
7.18602e-05
0.000638821
8.41909e-05
0.000684606
9.73992e-05
0.000731833
0.000111513
0.000779913
0.000126527
0.000828011
0.000142435
0.000874982
0.000159196
0.000919265
0.000176686
0.000958782
0.000194875
0.000990817
0.000213485
0.00101195
0.000232264
0.00101787
0.000250745
0.0010033
0.000268307
0.000961777
0.000284309
0.000884449
0.000297407
0.000766624
0.000597616
0.000304347
-7.25635e-05
2.01704e-05
7.2877e-05
-7.22179e-05
2.18116e-05
-7.18498e-05
2.35865e-05
-7.14457e-05
2.55064e-05
-7.10111e-05
2.75842e-05
-7.0534e-05
2.98336e-05
-7.00189e-05
3.22694e-05
-6.94557e-05
3.49078e-05
-6.88468e-05
3.77592e-05
-6.81826e-05
4.08458e-05
-6.74659e-05
4.41928e-05
-6.66869e-05
4.78169e-05
-6.58468e-05
5.17408e-05
-6.49331e-05
5.59706e-05
-6.3944e-05
6.05437e-05
-6.28719e-05
6.55219e-05
-6.17133e-05
7.09133e-05
-6.04518e-05
7.66991e-05
-5.90831e-05
8.29874e-05
-5.76007e-05
8.98315e-05
-5.59878e-05
9.7181e-05
-5.42344e-05
0.000105148
-5.2335e-05
0.00011384
-5.02634e-05
0.000123124
-4.80165e-05
0.000133289
-4.55751e-05
0.000144248
-4.29192e-05
0.000156096
-4.00385e-05
0.000168981
-3.69025e-05
0.000182839
-3.35025e-05
0.000197942
-2.98037e-05
0.00021418
-2.57906e-05
0.000231839
-2.14268e-05
0.000250873
-1.66879e-05
0.000271463
-1.15489e-05
0.000293742
-5.96552e-06
0.000317676
8.50562e-08
0.000343596
6.64591e-06
0.000371453
1.37607e-05
0.000401354
2.14621e-05
0.000433488
2.97933e-05
0.000467846
3.88029e-05
0.000504426
4.85307e-05
0.000543301
5.90174e-05
0.000584394
7.03035e-05
0.000627541
8.24272e-05
0.000672492
9.54145e-05
0.000718855
0.000109292
0.000766051
0.000124055
0.000813257
0.000139696
0.000859351
0.000156175
0.000902792
0.000173371
0.00094155
0.00019125
0.000972953
0.000209549
0.000993682
0.000228004
0.000999479
0.000246162
0.000985183
0.000263408
0.000944584
0.000279067
0.000868834
0.000292119
0.000753599
0.000590236
0.000299545
-7.14261e-05
1.98504e-05
7.17425e-05
-7.10817e-05
2.14701e-05
-7.07173e-05
2.32206e-05
-7.03217e-05
2.51131e-05
-6.98984e-05
2.71598e-05
-6.94371e-05
2.93743e-05
-6.89398e-05
3.17714e-05
-6.83972e-05
3.43672e-05
-6.78099e-05
3.71714e-05
-6.71688e-05
4.02067e-05
-6.64749e-05
4.34988e-05
-6.57199e-05
4.70636e-05
-6.49029e-05
5.09239e-05
-6.40138e-05
5.50831e-05
-6.30487e-05
5.95791e-05
-6.20027e-05
6.4477e-05
-6.08705e-05
6.97817e-05
-5.96379e-05
7.54673e-05
-5.82992e-05
8.16495e-05
-5.68495e-05
8.83822e-05
-5.52709e-05
9.56035e-05
-5.35547e-05
0.000103432
-5.16944e-05
0.00011198
-4.96648e-05
0.000121095
-4.74622e-05
0.000131088
-4.50681e-05
0.000141854
-4.24626e-05
0.000153492
-3.96355e-05
0.000166155
-3.65571e-05
0.000179761
-3.32186e-05
0.000194605
-2.95862e-05
0.000210548
-2.56439e-05
0.000227898
-2.13579e-05
0.000246589
-1.67018e-05
0.000266812
-1.16534e-05
0.000288698
-6.16845e-06
0.000312194
-2.24654e-07
0.000337654
6.22077e-06
0.000365009
1.32112e-05
0.000394365
2.07788e-05
0.000425922
2.89661e-05
0.00045966
3.7821e-05
0.000495572
4.73827e-05
0.00053374
5.76911e-05
0.000574085
6.87861e-05
0.000616444
8.07048e-05
0.00066057
9.34727e-05
0.000706078
0.000107116
0.0007524
0.000121629
0.000798727
0.000137007
0.000843955
0.000153206
0.000886574
0.000170109
0.000924589
0.000187681
0.000955384
0.000205666
0.00097569
0.000223796
0.000981373
0.000241628
0.000967345
0.00025857
0.000927657
0.000273906
0.0008535
0.000286784
0.000740724
0.000582487
0.000294488
-7.04825e-05
1.95205e-05
7.08089e-05
-7.01289e-05
2.11192e-05
-6.97571e-05
2.28468e-05
-6.93563e-05
2.47142e-05
-6.89311e-05
2.67329e-05
-6.84713e-05
2.8916e-05
-6.79792e-05
3.12779e-05
-6.74452e-05
3.38345e-05
-6.68696e-05
3.65944e-05
-6.62427e-05
3.95808e-05
-6.55652e-05
4.282e-05
-6.48279e-05
4.63271e-05
-6.40301e-05
5.01249e-05
-6.31608e-05
5.42143e-05
-6.2217e-05
5.86342e-05
-6.11924e-05
6.34529e-05
-6.00833e-05
6.8672e-05
-5.88748e-05
7.4259e-05
-5.75621e-05
8.03368e-05
-5.614e-05
8.69601e-05
-5.45915e-05
9.40556e-05
-5.29076e-05
0.000101748
-5.10822e-05
0.000110156
-4.90905e-05
0.000119103
-4.69288e-05
0.000128928
-4.45787e-05
0.000139505
-4.20207e-05
0.000150936
-3.92447e-05
0.000163381
-3.62214e-05
0.000176739
-3.29422e-05
0.000191327
-2.93738e-05
0.00020698
-2.55011e-05
0.000224026
-2.12891e-05
0.000242382
-1.67146e-05
0.000262243
-1.1754e-05
0.000283742
-6.36454e-06
0.000306807
-5.24368e-07
0.000331816
5.80894e-06
0.000358678
1.26782e-05
0.000387498
2.01151e-05
0.000418487
2.81614e-05
0.000451616
3.68644e-05
0.000486871
4.62625e-05
0.000524346
5.6395e-05
0.000563958
6.73012e-05
0.000605545
7.90173e-05
0.000648864
9.15687e-05
0.000693537
0.000104981
0.000739004
0.000119248
0.000784471
0.000134366
0.000828851
0.000150291
0.000870659
0.000166906
0.000907945
0.00018417
0.000938136
0.000201842
0.000958055
0.000219645
0.000963628
0.00023715
0.000949882
0.000253792
0.000911065
0.000268828
0.000838507
0.000281516
0.000728059
0.000574501
0.000289546
-6.97426e-05
1.91815e-05
7.00787e-05
-6.93782e-05
2.07573e-05
-6.8994e-05
2.24611e-05
-6.85812e-05
2.43033e-05
-6.81445e-05
2.6295e-05
-6.76752e-05
2.84485e-05
-6.7176e-05
3.07778e-05
-6.66379e-05
3.32981e-05
-6.60613e-05
3.60171e-05
-6.54367e-05
3.89578e-05
-6.47642e-05
4.2147e-05
-6.40348e-05
4.55991e-05
-6.32467e-05
4.93367e-05
-6.23896e-05
5.33583e-05
-6.14592e-05
5.77039e-05
-6.04505e-05
6.2445e-05
-5.93581e-05
6.75801e-05
-5.81687e-05
7.30701e-05
-5.68766e-05
7.90454e-05
-5.54775e-05
8.55612e-05
-5.39541e-05
9.2533e-05
-5.22981e-05
0.000100092
-5.05032e-05
0.000108362
-4.85452e-05
0.000117145
-4.64202e-05
0.000126804
-4.41104e-05
0.000137196
-4.15963e-05
0.000148423
-3.88682e-05
0.000160654
-3.5897e-05
0.000173769
-3.26743e-05
0.000188105
-2.91675e-05
0.000203473
-2.5361e-05
0.000220221
-2.12222e-05
0.000238246
-1.67258e-05
0.000257752
-1.18508e-05
0.000278871
-6.55433e-06
0.000301513
-8.15002e-07
0.000326078
5.409e-06
0.000352455
1.21598e-05
0.000380748
1.94687e-05
0.00041118
2.73766e-05
0.000443709
3.59302e-05
0.000478318
4.51673e-05
0.000515109
5.51265e-05
0.000553998
6.58465e-05
0.000594822
7.73632e-05
0.000637344
8.97015e-05
0.000681191
0.000102886
0.000725812
0.000116913
0.000770428
0.000131777
0.00081397
0.000147431
0.000854984
0.000163761
0.000891554
0.000180723
0.000921167
0.000198082
0.000940689
0.000215559
0.000946167
0.000232738
0.000932695
0.000249085
0.000894727
0.000263843
0.000823744
0.0002764
0.000715495
0.000565978
0.00028487
-6.91486e-05
1.88383e-05
6.94888e-05
-6.87774e-05
2.03884e-05
-6.83839e-05
2.20658e-05
-6.79597e-05
2.38807e-05
-6.75104e-05
2.5844e-05
-6.70281e-05
2.79675e-05
-6.65162e-05
3.02645e-05
-6.5967e-05
3.27498e-05
-6.5381e-05
3.54298e-05
-6.47497e-05
3.83272e-05
-6.40731e-05
4.1469e-05
-6.33423e-05
4.4869e-05
-6.25559e-05
4.8549e-05
-6.17027e-05
5.25056e-05
-6.07791e-05
5.67793e-05
-5.97789e-05
6.1445e-05
-5.86977e-05
6.64983e-05
-5.75212e-05
7.18937e-05
-5.62446e-05
7.77688e-05
-5.4863e-05
8.41797e-05
-5.336e-05
9.10306e-05
-5.1727e-05
9.84593e-05
-4.99582e-05
0.000106595
-4.80296e-05
0.000115217
-4.59374e-05
0.000124713
-4.36641e-05
0.000134923
-4.11905e-05
0.000145951
-3.8507e-05
0.000157971
-3.55848e-05
0.000170848
-3.24159e-05
0.000184937
-2.89677e-05
0.000200025
-2.52258e-05
0.000216479
-2.11562e-05
0.00023418
-1.67367e-05
0.000253337
-1.19446e-05
0.000274083
-6.73863e-06
0.00029631
-1.09767e-06
0.000320439
5.01951e-06
0.00034634
1.16544e-05
0.000374115
1.88376e-05
0.000403998
2.66097e-05
0.000435939
3.50163e-05
0.000469914
4.4095e-05
0.000506034
5.38837e-05
0.000544214
6.44206e-05
0.000584292
7.57412e-05
0.000626034
8.78703e-05
0.000669072
0.000100832
0.000712866
0.000114623
0.00075665
0.000129236
0.000799373
0.000144625
0.000839607
0.000160674
0.000875479
0.000177336
0.000904522
0.000194385
0.000923681
0.000211541
0.000929066
0.000228397
0.000915881
0.000244453
0.00087872
0.000258958
0.00080928
0.000271434
0.000703042
0.000557078
0.000280377
-6.86205e-05
1.84983e-05
6.8958e-05
-6.82502e-05
2.00201e-05
-6.78537e-05
2.16684e-05
-6.74248e-05
2.34534e-05
-6.69673e-05
2.53858e-05
-6.64757e-05
2.74774e-05
-6.59525e-05
2.9741e-05
-6.5392e-05
3.21909e-05
-6.47947e-05
3.48322e-05
-6.41534e-05
3.76874e-05
-6.3468e-05
4.07836e-05
-6.27311e-05
4.41334e-05
-6.19403e-05
4.77584e-05
-6.1086e-05
5.16523e-05
-6.0163e-05
5.58567e-05
-5.91668e-05
6.04495e-05
-5.80913e-05
6.54234e-05
-5.69238e-05
7.07266e-05
-5.56582e-05
7.65039e-05
-5.42906e-05
8.28122e-05
-5.2804e-05
8.95448e-05
-5.11906e-05
9.68459e-05
-4.94442e-05
0.000104849
-4.75416e-05
0.000113314
-4.54788e-05
0.000122652
-4.32389e-05
0.000132683
-4.08026e-05
0.000143516
-3.81607e-05
0.00015533
-3.52849e-05
0.000167973
-3.21669e-05
0.000181819
-2.87751e-05
0.000196633
-2.50944e-05
0.0002128
-2.10932e-05
0.000230182
-1.67472e-05
0.000248996
-1.2036e-05
0.000269376
-6.91826e-06
0.000291194
-1.37327e-06
0.000314896
4.63951e-06
0.000340328
1.11609e-05
0.000367595
1.8221e-05
0.000396939
2.58597e-05
0.000428302
3.41222e-05
0.000461652
4.30452e-05
0.000497111
5.26664e-05
0.000534592
6.30234e-05
0.000573933
7.41512e-05
0.000614903
8.60744e-05
0.000657141
9.88168e-05
0.000700116
0.000112374
0.000743077
0.000126741
0.00078499
0.000141867
0.000824459
0.000157638
0.000859646
0.000174003
0.000888141
0.000190745
0.000906932
0.000207584
0.000912237
0.000224125
0.00089933
0.000239897
0.000862952
0.000254169
0.000794999
0.000266567
0.000690626
0.000547683
0.000275902
-6.80941e-05
1.81665e-05
6.84235e-05
-6.77305e-05
1.96585e-05
-6.73391e-05
2.12757e-05
-6.69126e-05
2.30283e-05
-6.64553e-05
2.49273e-05
-6.59611e-05
2.69843e-05
-6.54331e-05
2.92121e-05
-6.48662e-05
3.16248e-05
-6.42612e-05
3.42263e-05
-6.3612e-05
3.70389e-05
-6.29189e-05
4.00897e-05
-6.21752e-05
4.33902e-05
-6.13791e-05
4.69614e-05
-6.05211e-05
5.07947e-05
-5.9597e-05
5.4932e-05
-5.86015e-05
5.94542e-05
-5.75295e-05
6.4351e-05
-5.63675e-05
6.95647e-05
-5.51103e-05
7.52468e-05
-5.37534e-05
8.14553e-05
-5.22805e-05
8.80726e-05
-5.06836e-05
9.5249e-05
-4.8957e-05
0.000103124
-4.70775e-05
0.000111435
-4.50415e-05
0.000120617
-4.28322e-05
0.000130474
-4.04308e-05
0.000141116
-3.7828e-05
0.000152728
-3.4996e-05
0.000165142
-3.19268e-05
0.000178751
-2.85888e-05
0.000193295
-2.49681e-05
0.000209179
-2.10317e-05
0.000226249
-1.67581e-05
0.000244727
-1.21254e-05
0.000264747
-7.09368e-06
0.000286165
-1.64248e-06
0.000309446
4.2681e-06
0.000334419
1.06782e-05
0.000361186
1.76177e-05
0.000390001
2.51256e-05
0.000420795
3.32465e-05
0.000453534
4.20166e-05
0.000488344
5.14731e-05
0.000525141
6.1653e-05
0.00056376
7.25908e-05
0.000603975
8.4311e-05
0.000645432
9.68366e-05
0.000687607
0.000110164
0.000729763
0.000124284
0.000770887
0.000139149
0.000809607
0.000154644
0.000844128
0.000170715
0.000872086
0.000187153
0.000890535
0.000203682
0.000895761
0.000219916
0.000883135
0.000235413
0.000847499
0.000249464
0.000780987
0.000261745
0.000678365
0.000538144
0.000271324
-6.75301e-05
1.78464e-05
6.78482e-05
-6.7178e-05
1.93082e-05
-6.67967e-05
2.08934e-05
-6.63793e-05
2.26123e-05
-6.59289e-05
2.4476e-05
-6.54396e-05
2.64964e-05
-6.49143e-05
2.86862e-05
-6.43478e-05
3.10596e-05
-6.37414e-05
3.36194e-05
-6.30893e-05
3.6388e-05
-6.23924e-05
3.93926e-05
-6.16449e-05
4.26437e-05
-6.0845e-05
4.61616e-05
-5.99846e-05
4.99351e-05
-5.9059e-05
5.40067e-05
-5.80643e-05
5.846e-05
-5.69946e-05
6.32818e-05
-5.58377e-05
6.84081e-05
-5.45876e-05
7.39974e-05
-5.32406e-05
8.01083e-05
-5.178e-05
8.66129e-05
-5.01986e-05
9.36675e-05
-4.84901e-05
0.000101416
-4.66323e-05
0.000109577
-4.46214e-05
0.000118608
-4.24409e-05
0.000128294
-4.00724e-05
0.000138749
-3.75068e-05
0.000150164
-3.47167e-05
0.000162353
-3.16942e-05
0.000175729
-2.84085e-05
0.000190009
-2.48449e-05
0.000205617
-2.09728e-05
0.00022238
-1.67688e-05
0.000240528
-1.22129e-05
0.000260195
-7.26522e-06
0.000281219
-1.90573e-06
0.000304087
3.90481e-06
0.000328609
1.0206e-05
0.000354886
1.70271e-05
0.000383181
2.44068e-05
0.000413416
3.23887e-05
0.000445552
4.10086e-05
0.000479724
5.03029e-05
0.000515845
6.03083e-05
0.000553752
7.10586e-05
0.000593222
8.25778e-05
0.000633906
9.48882e-05
0.00067529
0.000107985
0.000716651
0.000121861
0.000756994
0.000136466
0.000794981
0.000151684
0.000828847
0.000167464
0.000856285
0.000183602
0.00087439
0.000199827
0.000879541
0.000215765
0.000867186
0.000230997
0.000832265
0.000244835
0.000767135
0.000256947
0.000666228
0.000528415
0.000266609
-6.69126e-05
1.75383e-05
6.72185e-05
-6.65734e-05
1.89708e-05
-6.62054e-05
2.05241e-05
-6.58008e-05
2.22089e-05
-6.53625e-05
2.40365e-05
-6.48841e-05
2.60188e-05
-6.43677e-05
2.8169e-05
-6.38085e-05
3.0501e-05
-6.32072e-05
3.30172e-05
-6.25587e-05
3.574e-05
-6.18638e-05
3.86969e-05
-6.11173e-05
4.18974e-05
-6.03179e-05
4.53615e-05
-5.94581e-05
4.90754e-05
-5.85339e-05
5.30819e-05
-5.75413e-05
5.74674e-05
-5.64752e-05
6.22156e-05
-5.53237e-05
6.72565e-05
-5.40811e-05
7.27551e-05
-5.27437e-05
7.87708e-05
-5.12954e-05
8.51652e-05
-4.97287e-05
9.21008e-05
-4.80379e-05
9.97267e-05
-4.62009e-05
0.00010774
-4.42141e-05
0.000116622
-4.20614e-05
0.000126142
-3.97246e-05
0.000136413
-3.71948e-05
0.000147635
-3.44452e-05
0.000159605
-3.14679e-05
0.000172753
-2.82326e-05
0.000186774
-2.47254e-05
0.00020211
-2.09147e-05
0.000218573
-1.67794e-05
0.000236396
-1.22984e-05
0.000255717
-7.43294e-06
0.000276356
-2.16332e-06
0.000298819
3.54909e-06
0.000322898
9.74334e-06
0.000348692
1.64483e-05
0.000376477
2.37019e-05
0.000406165
3.15471e-05
0.000437709
4.00191e-05
0.000471256
4.91536e-05
0.000506716
5.89867e-05
0.000543926
6.95514e-05
0.000582667
8.08712e-05
0.000622596
9.29675e-05
0.000663209
0.000105836
0.000703797
0.000119467
0.000743382
0.000133811
0.000780651
0.000148755
0.000813881
0.000164246
0.00084081
0.000180088
0.00085859
0.000196017
0.000863662
0.000211668
0.000851573
0.000226645
0.00081733
0.000240276
0.000753542
0.000252176
0.000654349
0.000518832
0.000261796
-6.62392e-05
1.72423e-05
6.65337e-05
-6.59135e-05
1.86465e-05
-6.55589e-05
2.01691e-05
-6.51692e-05
2.18205e-05
-6.47452e-05
2.36121e-05
-6.42812e-05
2.55562e-05
-6.37783e-05
2.76658e-05
-6.32314e-05
2.99554e-05
-6.26409e-05
3.24265e-05
-6.20018e-05
3.5102e-05
-6.13145e-05
3.80097e-05
-6.05745e-05
4.11584e-05
-5.97804e-05
4.45677e-05
-5.89256e-05
4.82213e-05
-5.8006e-05
5.21627e-05
-5.70187e-05
5.64807e-05
-5.59585e-05
6.1156e-05
-5.48145e-05
6.61127e-05
-5.35808e-05
7.15221e-05
-5.22542e-05
7.74442e-05
-5.08188e-05
8.37307e-05
-4.92676e-05
9.05495e-05
-4.75947e-05
9.80548e-05
-4.57786e-05
0.000105924
-4.38157e-05
0.000114661
-4.16903e-05
0.000124017
-3.93846e-05
0.000134109
-3.68899e-05
0.000145141
-3.41797e-05
0.000156895
-3.12465e-05
0.00016982
-2.80605e-05
0.000183588
-2.46076e-05
0.000198658
-2.08581e-05
0.000214826
-1.67892e-05
0.000232332
-1.23818e-05
0.000251313
-7.59696e-06
0.000271572
-2.41547e-06
0.000293638
3.20063e-06
0.000317282
9.28985e-06
0.000342604
1.58806e-05
0.000369887
2.30102e-05
0.000399035
3.07209e-05
0.000429999
3.9047e-05
0.000462929
4.80238e-05
0.000497738
5.76864e-05
0.000534261
6.80672e-05
0.000572283
7.9189e-05
0.000611468
9.10723e-05
0.000651319
0.000103713
0.000691142
0.0001171
0.000729978
0.000131184
0.000766544
0.000145855
0.000799148
0.000161061
0.000825578
0.000176612
0.000843031
0.000192252
0.000848024
0.000207627
0.000836185
0.000222358
0.000802593
0.000235789
0.000740095
0.000247458
0.000642646
0.000509259
0.000256957
-6.55161e-05
1.69567e-05
6.58e-05
-6.52022e-05
1.83342e-05
-6.48613e-05
1.98273e-05
-6.44862e-05
2.14464e-05
-6.40778e-05
2.32029e-05
-6.363e-05
2.51091e-05
-6.31431e-05
2.71783e-05
-6.26122e-05
2.9425e-05
-6.20365e-05
3.18503e-05
-6.14115e-05
3.44774e-05
-6.07369e-05
3.73345e-05
-6.00085e-05
4.04301e-05
-5.92246e-05
4.37834e-05
-5.83793e-05
4.7376e-05
-5.74685e-05
5.12517e-05
-5.649e-05
5.5502e-05
-5.54387e-05
6.01048e-05
-5.43043e-05
6.49781e-05
-5.30813e-05
7.02995e-05
-5.17669e-05
7.61297e-05
-5.03455e-05
8.231e-05
-4.88105e-05
8.90143e-05
-4.71561e-05
9.64014e-05
-4.53613e-05
0.000104129
-4.34226e-05
0.000112723
-4.13246e-05
0.000121919
-3.90498e-05
0.000131835
-3.65897e-05
0.000142682
-3.39185e-05
0.000154225
-3.10287e-05
0.000166931
-2.78909e-05
0.00018045
-2.4492e-05
0.00019526
-2.08013e-05
0.000211138
-1.67985e-05
0.000228333
-1.2463e-05
0.000246981
-7.75734e-06
0.000266868
-2.66247e-06
0.000288544
2.85888e-06
0.000311762
8.84472e-06
0.000336619
1.5323e-05
0.00036341
2.23304e-05
0.00039203
2.99083e-05
0.000422423
3.80903e-05
0.000454751
4.69111e-05
0.000488922
5.64049e-05
0.000524774
6.66033e-05
0.000562094
7.75284e-05
0.000600553
8.92e-05
0.000639663
0.000101613
0.000678743
0.000114758
0.000716853
0.000128585
0.000752732
0.000142986
0.000784727
0.000157911
0.000810669
0.000173178
0.000827805
0.000188537
0.00083271
0.000203645
0.000821112
0.00021814
0.000788135
0.000231377
0.000726893
0.000242819
0.000631223
0.000499939
0.000252169
-6.47507e-05
1.66805e-05
6.50255e-05
-6.44479e-05
1.80328e-05
-6.41191e-05
1.9498e-05
-6.37579e-05
2.10863e-05
-6.33646e-05
2.28091e-05
-6.2933e-05
2.46786e-05
-6.24632e-05
2.67082e-05
-6.19496e-05
2.89124e-05
-6.13915e-05
3.1292e-05
-6.07834e-05
3.38702e-05
-6.01251e-05
3.66762e-05
-5.9412e-05
3.97178e-05
-5.86425e-05
4.30141e-05
-5.78107e-05
4.65448e-05
-5.69127e-05
5.03541e-05
-5.59466e-05
5.45362e-05
-5.49074e-05
5.90662e-05
-5.37858e-05
6.38565e-05
-5.25761e-05
6.90906e-05
-5.12762e-05
7.48297e-05
-4.98706e-05
8.09054e-05
-4.83533e-05
8.74969e-05
-4.67185e-05
9.47677e-05
-4.49459e-05
0.000102356
-4.3032e-05
0.00011081
-4.09617e-05
0.000119849
-3.8718e-05
0.000129592
-3.62926e-05
0.000140257
-3.36601e-05
0.000151593
-3.08132e-05
0.000164085
-2.77232e-05
0.00017736
-2.43767e-05
0.000191914
-2.07452e-05
0.000207509
-1.68065e-05
0.000224399
-1.2542e-05
0.00024272
-7.91427e-06
0.000262242
-2.90461e-06
0.000283536
2.5235e-06
0.000306334
8.40749e-06
0.000330735
1.47749e-05
0.000357043
2.16617e-05
0.000385143
2.91083e-05
0.000414976
3.7148e-05
0.00044671
4.58143e-05
0.000480255
5.51409e-05
0.000515445
6.51585e-05
0.000552074
7.58886e-05
0.000589816
8.735e-05
0.000628195
9.95383e-05
0.000666541
0.000112443
0.000703932
0.000126015
0.000739137
0.00014015
0.000770529
0.000154801
0.00079599
0.00016979
0.000812806
0.000184878
0.000817621
0.00019973
0.000806246
0.000213995
0.000773861
0.000227045
0.000713823
0.000238284
0.000619942
0.000490656
0.000247488
-6.39518e-05
1.64121e-05
6.42186e-05
-6.36582e-05
1.77405e-05
-6.33405e-05
1.91792e-05
-6.29916e-05
2.07384e-05
-6.26124e-05
2.24289e-05
-6.21964e-05
2.42631e-05
-6.17432e-05
2.62543e-05
-6.12475e-05
2.8417e-05
-6.07075e-05
3.07514e-05
-6.01184e-05
3.32812e-05
-5.94785e-05
3.60359e-05
-5.8784e-05
3.90231e-05
-5.80321e-05
4.22619e-05
-5.72175e-05
4.573e-05
-5.63359e-05
4.94723e-05
-5.53858e-05
5.35858e-05
-5.43621e-05
5.80429e-05
-5.32561e-05
6.27502e-05
-5.20623e-05
6.78974e-05
-5.0779e-05
7.35461e-05
-4.93911e-05
7.95184e-05
-4.78931e-05
8.59986e-05
-4.62792e-05
9.31549e-05
-4.45298e-05
0.000100607
-4.26415e-05
0.000108923
-4.05996e-05
0.000117808
-3.83875e-05
0.000127381
-3.59969e-05
0.000137867
-3.34031e-05
0.000149
-3.05989e-05
0.000161281
-2.75562e-05
0.000174317
-2.42624e-05
0.000188621
-2.06881e-05
0.000203938
-1.68135e-05
0.000220527
-1.26189e-05
0.000238528
-8.06787e-06
0.000257693
-3.14223e-06
0.000278611
2.1939e-06
0.000300999
7.97737e-06
0.000324953
1.42353e-05
0.000350786
2.10027e-05
0.000378377
2.83196e-05
0.000407662
3.62182e-05
0.000438815
4.47316e-05
0.000471746
5.38926e-05
0.00050629
6.37311e-05
0.000542244
7.42681e-05
0.000579289
8.55217e-05
0.000616956
9.74877e-05
0.000654589
0.000110155
0.000691284
0.000123478
0.000725829
0.000137353
0.000756636
0.000151735