/*--------------------------------*- C++ -*----------------------------------*\
  =========                 |
  \\      /  F ield         | OpenFOAM: The Open Source CFD Toolbox
   \\    /   O peration     | Website:  https://openfoam.org
    \\  /    A nd           | Version:  6.0
     \\/     M anipulation  |
\*---------------------------------------------------------------------------*/
FoamFile
{
    version     2.0;
    format      ascii;
    class       volVectorField;
    location    "20";
    object      U;
}
// * * * * * * * * * * * * * * * * * * * * * * * * * * * * * * * * * * * * * //

dimensions      [0 1 -1 0 0 0 0];

internalField   nonuniform List<vector> 
62000
(
(0.965746 -0.259646 -2.09792e-21)
(0.965749 -0.259647 1.75952e-21)
(0.965749 -0.259649 1.8012e-21)
(0.965748 -0.259642 -7.91509e-21)
(0.965747 -0.259628 -9.02072e-21)
(0.965746 -0.25961 3.14503e-20)
(0.965744 -0.25959 -3.46253e-20)
(0.965743 -0.259569 2.02263e-20)
(0.96574 -0.259549 -9.42896e-21)
(0.965738 -0.259529 -4.79908e-20)
(0.965736 -0.259509 -5.58898e-21)
(0.965734 -0.25949 6.7641e-20)
(0.965733 -0.259471 1.35134e-20)
(0.96573 -0.259454 -4.76609e-20)
(0.965727 -0.259441 7.38912e-20)
(0.965723 -0.259429 -3.94821e-20)
(0.965719 -0.25942 3.96026e-20)
(0.965714 -0.259413 -4.68625e-20)
(0.965709 -0.259406 2.24408e-20)
(0.965705 -0.2594 -6.7952e-20)
(0.9657 -0.259395 8.82038e-20)
(0.965697 -0.25939 2.41265e-20)
(0.965693 -0.259387 3.28822e-20)
(0.965691 -0.259385 -1.57676e-19)
(0.965689 -0.259383 5.65444e-20)
(0.965689 -0.259382 -3.22386e-20)
(0.965689 -0.259383 1.36636e-21)
(0.965691 -0.259383 -2.16551e-20)
(0.965696 -0.259385 7.28172e-20)
(0.965702 -0.259386 -3.44358e-20)
(0.965711 -0.259387 7.87725e-20)
(0.965724 -0.259387 -1.51074e-19)
(0.965742 -0.259385 1.6941e-20)
(0.965765 -0.259381 -3.2762e-20)
(0.965794 -0.259372 -5.27857e-21)
(0.965829 -0.259358 -2.35894e-20)
(0.965872 -0.259339 5.182e-21)
(0.965926 -0.259315 9.17059e-21)
(0.965993 -0.259283 9.13113e-21)
(0.966073 -0.259243 -3.54693e-20)
(0.966171 -0.25919 2.1733e-20)
(0.966288 -0.259122 1.62493e-19)
(0.966429 -0.259035 3.6889e-19)
(0.966599 -0.258922 -2.54412e-19)
(0.966801 -0.258777 -1.2209e-19)
(0.967041 -0.258588 5.39636e-19)
(0.967327 -0.25834 -5.29748e-20)
(0.967663 -0.258014 3.15162e-19)
(0.968056 -0.257582 1.61923e-18)
(0.968509 -0.25701 5.32668e-19)
(0.969021 -0.256254 3.0278e-19)
(0.969588 -0.255253 3.65136e-18)
(0.970195 -0.253933 -1.03405e-18)
(0.970825 -0.252182 -4.85602e-18)
(0.971456 -0.24981 -1.14867e-18)
(0.972109 -0.246502 -4.8544e-18)
(0.972475 -0.24103 3.58668e-19)
(0.975895 -0.232529 4.87264e-19)
(0.974468 -0.207822 -1.74438e-18)
(1.06003 -0.134227 -3.45898e-19)
(0.965765 -0.260599 -5.63197e-22)
(0.965762 -0.260599 5.39993e-21)
(0.965747 -0.260626 2.21561e-21)
(0.965733 -0.260644 -9.67392e-21)
(0.965722 -0.260651 4.02337e-21)
(0.965713 -0.260649 -2.77586e-20)
(0.965705 -0.260639 2.56131e-20)
(0.965696 -0.260625 1.47596e-20)
(0.965687 -0.26061 -2.77416e-20)
(0.965679 -0.260597 1.30479e-21)
(0.965671 -0.260585 2.68792e-20)
(0.965665 -0.260571 -8.58237e-23)
(0.965662 -0.260553 7.53014e-21)
(0.965662 -0.260531 -6.57974e-20)
(0.965663 -0.260509 1.31493e-19)
(0.965663 -0.26049 -1.16221e-19)
(0.965664 -0.260476 5.3987e-20)
(0.965663 -0.260467 -1.1538e-20)
(0.965662 -0.26046 -3.0139e-20)
(0.965661 -0.260456 8.18542e-20)
(0.96566 -0.260453 -1.28066e-19)
(0.965661 -0.260449 7.34028e-20)
(0.965663 -0.260446 -8.99694e-20)
(0.965666 -0.260443 5.41158e-20)
(0.965671 -0.260439 4.66282e-20)
(0.965679 -0.260435 -3.06486e-20)
(0.96569 -0.260431 1.66974e-21)
(0.965704 -0.260427 3.34728e-20)
(0.965723 -0.260421 2.58244e-20)
(0.965747 -0.260414 -4.31356e-20)
(0.965777 -0.260405 8.69849e-20)
(0.965813 -0.260392 1.20347e-20)
(0.96586 -0.260375 4.04642e-20)
(0.965917 -0.260352 -3.37612e-21)
(0.965984 -0.260321 4.30429e-21)
(0.966061 -0.26028 -1.34724e-20)
(0.966153 -0.26023 -1.99725e-20)
(0.966262 -0.260171 -1.58361e-20)
(0.966392 -0.2601 -1.16336e-20)
(0.966547 -0.260014 2.74504e-20)
(0.966729 -0.259908 -3.19317e-20)
(0.966944 -0.259777 -3.56552e-20)
(0.967197 -0.259615 -4.04652e-19)
(0.967495 -0.259412 -3.241e-20)
(0.967847 -0.259155 9.87924e-19)
(0.968262 -0.258824 -4.74611e-19)
(0.968749 -0.258395 -4.86178e-19)
(0.969315 -0.257831 -6.27143e-19)
(0.969966 -0.257091 -1.81689e-19)
(0.970698 -0.256118 -3.98669e-20)
(0.971495 -0.254855 -1.53898e-18)
(0.972331 -0.253227 -4.61241e-18)
(0.973149 -0.251169 3.42737e-18)
(0.973888 -0.248598 8.82659e-18)
(0.974428 -0.245409 2.24821e-18)
(0.974703 -0.241547 1.90189e-18)
(0.974023 -0.236762 3.7506e-18)
(0.973203 -0.23252 2.12583e-18)
(0.973444 -0.238019 -2.23967e-18)
(0.971179 -0.253608 -7.25592e-19)
(0.965808 -0.261221 -2.75619e-21)
(0.96579 -0.261225 -3.7499e-22)
(0.965759 -0.261266 4.45726e-22)
(0.965731 -0.261304 1.96983e-21)
(0.965709 -0.261335 5.54393e-21)
(0.965693 -0.26136 -5.29239e-21)
(0.965679 -0.261372 2.81136e-20)
(0.965668 -0.261373 -1.35919e-20)
(0.965658 -0.261368 -7.29762e-21)
(0.965648 -0.261366 -4.43454e-20)
(0.965638 -0.261371 3.76394e-20)
(0.965631 -0.261379 2.74357e-21)
(0.965627 -0.261381 -8.49733e-21)
(0.965628 -0.261371 2.25079e-20)
(0.965634 -0.26135 -3.84708e-20)
(0.965642 -0.261324 4.49312e-22)
(0.965652 -0.2613 -1.70921e-20)
(0.965662 -0.261285 9.20028e-22)
(0.965672 -0.261277 3.96933e-20)
(0.965683 -0.261277 -5.93747e-20)
(0.965696 -0.261281 3.70524e-20)
(0.96571 -0.261287 1.37472e-19)
(0.965726 -0.261293 -2.18878e-20)
(0.965745 -0.261298 -1.85272e-19)
(0.965767 -0.261303 9.47928e-20)
(0.965791 -0.261306 -4.69696e-20)
(0.96582 -0.261308 7.59262e-20)
(0.965852 -0.261307 -4.78544e-20)
(0.96589 -0.261304 -8.28984e-20)
(0.965934 -0.261298 8.2655e-20)
(0.965984 -0.261286 -5.43099e-20)
(0.966042 -0.261269 6.52606e-20)
(0.966111 -0.261246 -1.61721e-19)
(0.966191 -0.261215 1.24158e-19)
(0.966281 -0.261175 -5.70461e-20)
(0.966381 -0.261123 2.37331e-20)
(0.966492 -0.261061 1.796e-20)
(0.966618 -0.260988 1.07038e-20)
(0.966764 -0.260902 1.14402e-20)
(0.96693 -0.260802 -2.47204e-21)
(0.967118 -0.260683 2.4589e-20)
(0.967331 -0.260541 -5.68067e-20)
(0.967573 -0.260372 2.53445e-19)
(0.967849 -0.260169 1.61527e-19)
(0.968166 -0.259919 -2.59384e-19)
(0.968529 -0.259606 8.31649e-19)
(0.968947 -0.259209 -1.54329e-19)
(0.969423 -0.258693 1.00671e-18)
(0.969959 -0.258024 -1.60698e-18)
(0.97055 -0.257151 -4.85924e-19)
(0.971172 -0.25603 -1.86503e-19)
(0.971792 -0.254609 2.04722e-19)
(0.972347 -0.252859 -1.29475e-18)
(0.972774 -0.250761 -7.48108e-19)
(0.972936 -0.248307 2.6922e-18)
(0.972811 -0.245569 1.90638e-18)
(0.971866 -0.242628 8.32277e-19)
(0.970958 -0.241263 4.24513e-18)
(0.971015 -0.24074 1.60106e-19)
(0.991763 -0.229298 -3.29667e-19)
(0.965737 -0.262006 -2.78444e-21)
(0.96571 -0.262017 8.52651e-21)
(0.965671 -0.26206 -1.33135e-21)
(0.965637 -0.262103 -8.76316e-21)
(0.965613 -0.262148 1.3176e-20)
(0.965598 -0.262194 2.25746e-20)
(0.965589 -0.262231 -2.96526e-20)
(0.965585 -0.262249 3.18993e-21)
(0.965582 -0.26225 1.0141e-20)
(0.965579 -0.262246 2.09781e-20)
(0.965574 -0.262252 -3.91415e-20)
(0.965567 -0.262272 -1.18286e-20)
(0.965562 -0.262296 -1.30261e-20)
(0.965561 -0.262307 6.02404e-20)
(0.965563 -0.262295 -3.99886e-20)
(0.965569 -0.262264 9.19474e-20)
(0.965578 -0.262222 -1.11479e-19)
(0.965587 -0.262184 -1.5364e-20)
(0.965597 -0.262156 1.14324e-19)
(0.965609 -0.262141 -4.01627e-20)
(0.965625 -0.262138 -1.46661e-20)
(0.965645 -0.262142 -1.48523e-20)
(0.96567 -0.262151 -1.29018e-19)
(0.965701 -0.262162 7.72412e-20)
(0.965737 -0.262173 -2.99775e-20)
(0.965778 -0.262184 5.15721e-20)
(0.965825 -0.262193 2.31417e-20)
(0.965877 -0.2622 1.0288e-19)
(0.965936 -0.262204 -6.58934e-20)
(0.966003 -0.262203 -7.6145e-20)
(0.966077 -0.262196 1.11142e-19)
(0.966161 -0.262182 -8.83965e-20)
(0.966256 -0.262159 1.43432e-19)
(0.966363 -0.262126 -7.15088e-20)
(0.966482 -0.262083 3.93546e-20)
(0.966612 -0.262026 4.96219e-20)
(0.966752 -0.261956 -1.52754e-20)
(0.966908 -0.261872 -1.79222e-22)
(0.967082 -0.261775 -1.31899e-20)
(0.967275 -0.261659 4.66614e-22)
(0.967488 -0.261524 1.90807e-20)
(0.967722 -0.261364 -1.54638e-20)
(0.967979 -0.261177 -5.29359e-20)
(0.968263 -0.260955 -1.4979e-19)
(0.968578 -0.260688 -2.94715e-19)
(0.968928 -0.260362 -1.24665e-19)
(0.969318 -0.259956 -5.81571e-19)
(0.969751 -0.259439 -7.38546e-19)
(0.970229 -0.258776 -9.06022e-19)
(0.970744 -0.25792 7.426e-19)
(0.971278 -0.25683 1.1983e-18)
(0.971799 -0.255455 -7.5399e-19)
(0.97225 -0.253771 -1.0566e-18)
(0.972582 -0.251764 -3.3534e-18)
(0.972678 -0.249423 -2.35028e-18)
(0.972566 -0.246759 -3.37707e-18)
(0.971972 -0.243745 -6.52941e-18)
(0.971442 -0.241201 2.68451e-19)
(0.973316 -0.240236 2.99744e-18)
(0.983252 -0.234886 1.6338e-18)
(0.965605 -0.262921 5.41966e-21)
(0.96558 -0.262936 -1.83504e-21)
(0.965547 -0.26297 3.00342e-21)
(0.965521 -0.263003 -4.292e-21)
(0.965509 -0.263042 9.50632e-21)
(0.965505 -0.263092 -4.76775e-21)
(0.965507 -0.263143 2.47366e-21)
(0.965513 -0.263178 -3.7395e-20)
(0.96552 -0.263186 3.13491e-20)
(0.965526 -0.263177 -6.20706e-20)
(0.965529 -0.263174 6.84502e-20)
(0.965528 -0.263195 -8.29857e-21)
(0.965526 -0.263236 -1.79328e-20)
(0.965525 -0.263278 -7.93784e-21)
(0.965526 -0.263298 -1.53685e-21)
(0.965528 -0.263286 -8.0681e-20)
(0.965531 -0.263247 4.98579e-21)
(0.965534 -0.263198 8.77348e-20)
(0.965535 -0.263152 -2.76928e-20)
(0.965536 -0.26312 -2.82047e-20)
(0.96554 -0.263103 4.86928e-20)
(0.96555 -0.263099 -2.26923e-20)
(0.965568 -0.263103 9.60286e-20)
(0.965596 -0.263114 4.88086e-20)
(0.965634 -0.263128 3.38579e-20)
(0.965681 -0.263143 -1.17575e-19)
(0.965738 -0.263158 -1.60213e-20)
(0.965804 -0.263173 -8.30898e-20)
(0.96588 -0.263184 1.6558e-20)
(0.965965 -0.263191 -2.21791e-20)
(0.966061 -0.263192 -9.22962e-21)
(0.966168 -0.263185 6.18609e-20)
(0.966289 -0.263167 -1.56342e-19)
(0.966423 -0.263138 -1.07369e-20)
(0.966572 -0.263095 -5.95825e-20)
(0.966735 -0.263037 -2.47223e-20)
(0.966912 -0.262963 -1.14822e-20)
(0.967105 -0.262873 -5.10364e-20)
(0.967319 -0.262764 4.56007e-20)
(0.967555 -0.262634 2.43248e-20)
(0.967813 -0.262478 -6.76321e-21)
(0.968094 -0.262293 3.10518e-20)
(0.9684 -0.262073 3.03442e-20)
(0.968733 -0.261812 4.77739e-20)
(0.969094 -0.2615 -1.96558e-19)
(0.969486 -0.261121 -3.54864e-19)
(0.969913 -0.260655 -5.3732e-20)
(0.970374 -0.260071 -1.42012e-19)
(0.970869 -0.259336 4.00201e-19)
(0.971392 -0.258403 -1.84759e-18)
(0.971923 -0.257229 -4.95133e-19)
(0.972433 -0.255762 6.24768e-19)
(0.972867 -0.253976 3.78678e-20)
(0.973179 -0.251862 -2.25205e-18)
(0.973255 -0.249417 -3.91365e-20)
(0.973114 -0.246661 2.74434e-18)
(0.972567 -0.243628 5.95055e-18)
(0.971801 -0.241666 -6.44137e-18)
(0.972838 -0.242279 2.53918e-18)
(0.984501 -0.237705 -1.72344e-18)
(0.965516 -0.263815 -2.06241e-21)
(0.965514 -0.26382 8.3194e-21)
(0.965502 -0.263837 -1.36935e-20)
(0.965496 -0.263845 1.02228e-20)
(0.965498 -0.263856 6.58367e-21)
(0.965501 -0.263884 -7.03074e-21)
(0.965502 -0.263931 5.70431e-22)
(0.965501 -0.263974 -5.22995e-21)
(0.9655 -0.263992 -1.75056e-20)
(0.965497 -0.263984 3.36666e-20)
(0.965491 -0.263974 -5.19843e-20)
(0.965482 -0.26399 4.55396e-20)
(0.965475 -0.264043 3.95614e-20)
(0.965471 -0.264116 -6.14255e-20)
(0.965472 -0.264181 -1.9583e-20)
(0.965478 -0.264217 7.40507e-20)
(0.965486 -0.264217 -8.90311e-20)
(0.965493 -0.264191 1.22064e-19)
(0.965496 -0.264157 -2.40004e-20)
(0.965495 -0.26413 1.20556e-20)
(0.965492 -0.264117 -2.18217e-20)
(0.96549 -0.264116 -2.63799e-20)
(0.965496 -0.264126 -4.61783e-20)
(0.965511 -0.264141 7.84598e-20)
(0.96554 -0.26416 -5.38666e-20)
(0.965583 -0.26418 -4.92695e-20)
(0.965639 -0.264201 1.00025e-19)
(0.965709 -0.264222 -9.14242e-20)
(0.965793 -0.264241 1.3801e-19)
(0.965889 -0.264256 -7.44534e-20)
(0.965999 -0.264266 4.70075e-20)
(0.966123 -0.264268 -8.12919e-20)
(0.966261 -0.264259 7.36715e-20)
(0.966416 -0.264236 -1.48742e-20)
(0.966587 -0.2642 -5.89035e-21)
(0.966775 -0.264145 -6.01576e-21)
(0.966979 -0.264074 -3.81564e-20)
(0.967204 -0.263983 4.70475e-20)
(0.967451 -0.263871 -2.10227e-20)
(0.967722 -0.263732 -8.69097e-20)
(0.968019 -0.263562 -6.19942e-21)
(0.968343 -0.263357 -3.90562e-20)
(0.968694 -0.263111 1.71294e-20)
(0.969074 -0.262816 1.09894e-19)
(0.969482 -0.26246 9.91627e-21)
(0.969918 -0.262029 -3.66474e-19)
(0.970382 -0.261505 6.60254e-19)
(0.970871 -0.260858 8.00685e-19)
(0.971381 -0.260058 6.78944e-19)
(0.971903 -0.259063 1.17794e-18)
(0.972417 -0.257835 -7.24436e-19)
(0.972894 -0.256326 3.88427e-19)
(0.973281 -0.254512 3.22876e-18)
(0.973537 -0.252393 -5.02675e-19)
(0.973556 -0.249982 -1.15436e-18)
(0.97335 -0.247322 1.99486e-18)
(0.972786 -0.244474 -1.79095e-18)
(0.971821 -0.243145 -1.37507e-18)
(0.973543 -0.243184 -4.20534e-18)
(0.98305 -0.239094 1.20701e-19)
(0.965627 -0.264546 2.43676e-21)
(0.96566 -0.264537 -1.09762e-20)
(0.965667 -0.264542 5.37212e-21)
(0.965667 -0.264531 9.95685e-21)
(0.965661 -0.264512 -2.13403e-20)
(0.965644 -0.264509 1.78995e-20)
(0.965612 -0.264535 -1.18848e-20)
(0.965572 -0.264577 1.00769e-20)
(0.965528 -0.264606 1.59726e-20)
(0.965483 -0.264609 -3.84642e-20)
(0.965436 -0.264602 5.54219e-20)
(0.965391 -0.264618 2.30918e-20)
(0.965351 -0.264677 -9.31942e-20)
(0.965322 -0.264773 -1.6896e-20)
(0.965308 -0.26488 4.91123e-20)
(0.965311 -0.264968 3.1077e-20)
(0.965327 -0.265024 -3.78887e-20)
(0.965352 -0.265049 3.27776e-20)
(0.965378 -0.265057 5.01116e-20)
(0.965401 -0.265067 -2.52121e-20)
(0.965419 -0.265086 -1.43142e-20)
(0.965432 -0.265117 4.83945e-20)
(0.965445 -0.265155 9.68958e-20)
(0.965461 -0.265195 -7.31282e-20)
(0.965486 -0.265234 -7.6483e-20)
(0.965525 -0.265271 8.15912e-20)
(0.965578 -0.265304 -6.27973e-20)
(0.965647 -0.265334 -2.25987e-20)
(0.965732 -0.265361 1.91729e-19)
(0.965833 -0.265384 -8.27008e-20)
(0.96595 -0.265402 -5.40381e-20)
(0.966083 -0.265413 7.38284e-20)
(0.966232 -0.265413 4.58805e-20)
(0.966399 -0.265399 -4.24639e-20)
(0.966584 -0.26537 -2.50106e-20)
(0.966787 -0.265322 6.46959e-20)
(0.96701 -0.265256 -4.37993e-22)
(0.967254 -0.26517 2.13308e-20)
(0.967523 -0.265059 -7.00086e-20)
(0.96782 -0.264917 -6.92741e-20)
(0.968145 -0.264741 5.3942e-20)
(0.968501 -0.264522 3.18629e-21)
(0.968889 -0.264255 -8.0613e-20)
(0.969309 -0.26393 6.68653e-20)
(0.969761 -0.263535 1.29157e-19)
(0.970241 -0.263054 1.85277e-19)
(0.970746 -0.262469 -5.10943e-19)
(0.971271 -0.261755 -5.57418e-19)
(0.971807 -0.260885 7.51246e-19)
(0.972341 -0.259823 1.14103e-18)
(0.972854 -0.258535 3.677e-19)
(0.973319 -0.256976 -2.63334e-19)
(0.973685 -0.255124 -9.30411e-20)
(0.973922 -0.25298 1.1594e-18)
(0.973943 -0.250549 -9.97081e-19)
(0.97377 -0.24786 -6.8498e-19)
(0.973322 -0.244945 -1.06966e-18)
(0.972403 -0.243438 4.44275e-18)
(0.974207 -0.243581 2.85835e-19)
(0.982649 -0.241092 7.34372e-20)
(0.966005 -0.265118 -4.13778e-21)
(0.966055 -0.265099 -3.28036e-21)
(0.966041 -0.265104 4.50336e-21)
(0.966002 -0.265094 1.58266e-20)
(0.965949 -0.265067 -3.40952e-20)
(0.965876 -0.265047 3.9004e-20)
(0.965783 -0.26506 -1.83087e-21)
(0.965676 -0.265102 -2.49381e-21)
(0.965565 -0.265146 -1.38716e-20)
(0.965455 -0.265171 3.34932e-20)
(0.965349 -0.265183 -5.16672e-20)
(0.965246 -0.26521 1.94857e-20)
(0.965153 -0.265277 -6.17441e-22)
(0.965075 -0.265387 2.99673e-20)
(0.965021 -0.265517 1.39037e-20)
(0.964996 -0.265641 -7.52245e-20)
(0.965001 -0.265738 6.50731e-20)
(0.965033 -0.265806 2.51596e-20)
(0.965085 -0.265857 -7.25345e-20)
(0.965148 -0.265908 3.56426e-20)
(0.965215 -0.265971 1.59802e-20)
(0.965278 -0.266048 -1.12157e-20)
(0.965337 -0.266135 1.23455e-20)
(0.965391 -0.266222 -8.18369e-21)
(0.965445 -0.266303 -8.5456e-20)
(0.965503 -0.266373 5.41575e-20)
(0.96557 -0.266432 -7.9926e-20)
(0.965648 -0.266482 1.45139e-19)
(0.965741 -0.266522 -2.84198e-20)
(0.965849 -0.266556 -1.6564e-20)
(0.965973 -0.266583 -5.03844e-21)
(0.966114 -0.2666 1.2187e-19)
(0.966272 -0.266607 -5.36713e-20)
(0.966448 -0.2666 -3.38917e-20)
(0.966643 -0.266577 6.42528e-20)
(0.966857 -0.266534 4.85403e-20)
(0.967091 -0.266473 -7.81411e-20)
(0.967349 -0.266391 1.55195e-20)
(0.967634 -0.266282 9.62602e-20)
(0.967949 -0.26614 -3.30703e-20)
(0.968296 -0.265959 5.11121e-20)
(0.968678 -0.26573 -2.74115e-20)
(0.969098 -0.265444 4.32887e-20)
(0.969557 -0.26509 -7.3172e-20)
(0.970055 -0.264653 -1.00347e-19)
(0.970588 -0.264116 8.2687e-20)
(0.971153 -0.263461 3.91354e-19)
(0.971738 -0.262661 -1.89188e-20)
(0.972334 -0.261691 -2.30455e-19)
(0.972925 -0.26052 -6.41339e-19)
(0.973488 -0.259117 1.48276e-19)
(0.973997 -0.25744 1.1059e-18)
(0.9744 -0.255466 -1.05034e-18)
(0.974673 -0.253199 7.77955e-19)
(0.974736 -0.250643 -1.55825e-18)
(0.974615 -0.247834 -4.60568e-19)
(0.974244 -0.244851 -2.04344e-18)
(0.973125 -0.243513 -3.26639e-18)
(0.974472 -0.244928 -2.42006e-19)
(0.98258 -0.243042 -1.99369e-19)
(0.966531 -0.265693 -2.03561e-21)
(0.966536 -0.265686 1.75342e-21)
(0.966444 -0.265714 8.74949e-21)
(0.966318 -0.265737 1.37967e-20)
(0.966183 -0.265736 -4.09157e-20)
(0.966036 -0.26573 2.35424e-20)
(0.965874 -0.265748 -4.19543e-20)
(0.965701 -0.265799 6.56391e-20)
(0.965528 -0.265862 -3.07361e-20)
(0.965362 -0.265914 5.39877e-21)
(0.965206 -0.265953 5.87991e-20)
(0.965058 -0.266001 -1.33817e-19)
(0.96492 -0.266082 9.09571e-20)
(0.964794 -0.2662 1.23478e-20)
(0.964691 -0.266339 1.9931e-20)
(0.964619 -0.266473 -8.47605e-20)
(0.964585 -0.266582 4.13534e-20)
(0.964593 -0.26666 -5.07225e-20)
(0.96464 -0.26672 9.93993e-20)
(0.964722 -0.266782 -1.42372e-20)
(0.964829 -0.266861 -1.24148e-19)
(0.964952 -0.266964 4.86244e-20)
(0.96508 -0.267086 -3.07547e-21)
(0.965208 -0.267217 -1.70227e-19)
(0.96533 -0.267345 1.29049e-19)
(0.965448 -0.26746 9.30764e-20)
(0.965564 -0.267557 5.975e-20)
(0.965682 -0.267637 -7.6867e-20)
(0.965806 -0.2677 -7.86586e-20)
(0.965939 -0.267749 3.60213e-20)
(0.966085 -0.267786 5.12785e-20)
(0.966244 -0.267811 -5.77272e-20)
(0.966418 -0.267822 -7.93478e-20)
(0.966609 -0.267818 1.66984e-19)
(0.966817 -0.267797 1.34397e-20)
(0.967043 -0.267756 -2.06385e-19)
(0.96729 -0.267695 1.67762e-20)
(0.96756 -0.267613 1.13674e-19)
(0.967856 -0.267504 1.49519e-20)
(0.968183 -0.26736 1.06843e-19)
(0.968544 -0.267173 -9.37236e-20)
(0.968944 -0.266935 -3.69232e-21)
(0.969387 -0.266633 -1.21148e-20)
(0.969874 -0.266256 3.40142e-20)
(0.970408 -0.265784 -5.39757e-20)
(0.970986 -0.265199 -2.00729e-19)
(0.971604 -0.264478 -1.27193e-19)
(0.972251 -0.263596 3.62554e-19)
(0.972914 -0.262528 -2.88923e-19)
(0.973573 -0.261243 -1.36738e-18)
(0.974204 -0.259715 1.25725e-18)
(0.974772 -0.257908 -1.69283e-18)
(0.975223 -0.255805 1.19769e-18)
(0.975525 -0.253426 5.41001e-19)
(0.975595 -0.250802 3.08083e-18)
(0.975448 -0.248019 1.56695e-19)
(0.975023 -0.245267 1.17862e-18)
(0.973504 -0.244718 1.42306e-18)
(0.9743 -0.247298 -3.39715e-19)
(0.983056 -0.244663 1.27646e-19)
(0.966926 -0.266529 2.8752e-21)
(0.966819 -0.266548 9.97242e-22)
(0.966607 -0.266607 -1.04025e-20)
(0.966376 -0.266678 9.90832e-21)
(0.966157 -0.266727 -4.38929e-21)
(0.965947 -0.266759 7.8274e-21)
(0.965739 -0.266803 2.66046e-21)
(0.965533 -0.266875 -3.90412e-20)
(0.965334 -0.266961 1.70271e-20)
(0.96515 -0.267039 -1.145e-20)
(0.964983 -0.267106 7.05761e-21)
(0.964829 -0.267177 2.6977e-20)
(0.964685 -0.267273 -5.1558e-21)
(0.964547 -0.2674 1.61821e-20)
(0.964421 -0.267542 -6.82553e-20)
(0.964314 -0.267673 2.64618e-20)
(0.964236 -0.267772 1.13191e-20)
(0.964196 -0.267833 -3.08405e-20)
(0.964202 -0.267866 6.07427e-20)
(0.964255 -0.267895 1.93427e-20)
(0.964356 -0.267942 -2.65156e-21)
(0.964498 -0.268021 -2.16456e-20)
(0.964671 -0.268133 8.23622e-20)
(0.964864 -0.26827 -2.21725e-19)
(0.965066 -0.268416 1.15843e-19)
(0.965267 -0.26856 4.71112e-20)
(0.965463 -0.26869 -7.45727e-20)
(0.965654 -0.268799 1.27882e-19)
(0.965841 -0.268887 -6.3347e-20)
(0.966028 -0.268955 -2.96145e-20)
(0.966219 -0.269004 -5.21663e-20)
(0.966417 -0.269036 -1.9472e-20)
(0.966625 -0.26905 5.74928e-20)
(0.966845 -0.269046 -1.56732e-19)
(0.967077 -0.269022 2.85009e-19)
(0.967325 -0.268976 -2.33525e-20)
(0.967591 -0.26891 1.15807e-19)
(0.967877 -0.268823 -2.83513e-19)
(0.968186 -0.268707 -6.92251e-20)
(0.968523 -0.268557 1.39412e-20)
(0.968892 -0.268364 -4.57488e-20)
(0.969298 -0.268117 -2.89897e-21)
(0.969747 -0.267806 -9.72531e-20)
(0.970242 -0.267414 6.64146e-20)
(0.970786 -0.266923 2.2972e-20)
(0.971379 -0.266311 1.42656e-19)
(0.972017 -0.265556 -2.36563e-19)
(0.972689 -0.264628 -6.7993e-20)
(0.973384 -0.263504 7.886e-20)
(0.974076 -0.262157 7.41573e-19)
(0.97474 -0.260564 -4.26021e-19)
(0.975333 -0.258697 8.65293e-19)
(0.975795 -0.256553 -1.41054e-18)
(0.976085 -0.254172 -5.99674e-19)
(0.976119 -0.251623 9.73299e-19)
(0.975901 -0.249046 -5.25346e-19)
(0.97541 -0.246697 1.44483e-18)
(0.973626 -0.246933 2.77506e-19)
(0.974127 -0.249818 1.69735e-18)
(0.983988 -0.245596 4.28597e-19)
(0.966918 -0.267806 -6.45469e-22)
(0.966664 -0.267862 -2.53264e-21)
(0.966338 -0.267954 -2.19719e-21)
(0.966026 -0.268074 2.12486e-20)
(0.965755 -0.268177 -1.18064e-20)
(0.965521 -0.268255 -1.41524e-20)
(0.965313 -0.268333 -5.27925e-21)
(0.965123 -0.268427 -2.17178e-20)
(0.964951 -0.268532 1.37116e-20)
(0.9648 -0.268629 2.03978e-21)
(0.964669 -0.268713 7.95367e-22)
(0.964557 -0.2688 5.76712e-20)
(0.964456 -0.268908 -4.08619e-20)
(0.964358 -0.269041 -4.89866e-21)
(0.96426 -0.269184 4.5962e-20)
(0.964162 -0.26931 -2.53948e-20)
(0.964072 -0.269394 -9.67982e-21)
(0.963999 -0.269429 1.54427e-20)
(0.963956 -0.269422 4.9259e-20)
(0.963951 -0.269395 2.62629e-20)
(0.963995 -0.269375 8.52086e-21)
(0.964093 -0.269383 -6.72198e-20)
(0.964246 -0.269431 3.2972e-20)
(0.964448 -0.269518 6.02008e-20)
(0.964687 -0.269633 -1.27255e-19)
(0.964948 -0.269763 3.83642e-20)
(0.965219 -0.269892 -1.51696e-19)
(0.965491 -0.270011 1.20665e-19)
(0.965758 -0.270112 9.81246e-20)
(0.966019 -0.270191 -1.50242e-19)
(0.966277 -0.270249 -7.00742e-20)
(0.966535 -0.270286 8.62644e-20)
(0.966795 -0.270301 2.84974e-20)
(0.967061 -0.270293 -6.55188e-20)
(0.967334 -0.270262 -8.24885e-20)
(0.967618 -0.270206 -9.04834e-20)
(0.967914 -0.270129 5.82306e-20)
(0.968225 -0.270029 1.21296e-19)
(0.968555 -0.2699 4.42103e-20)
(0.968906 -0.269737 -2.03787e-20)
(0.969283 -0.269533 2.67902e-19)
(0.969691 -0.269277 -4.59126e-20)
(0.970136 -0.268957 1.74312e-19)
(0.970622 -0.268558 -2.30542e-19)
(0.971153 -0.268063 7.28642e-20)
(0.971729 -0.267447 -1.02742e-20)
(0.97235 -0.266688 1.14209e-19)
(0.973005 -0.265758 6.05622e-20)
(0.973684 -0.264635 3.21642e-19)
(0.974362 -0.263291 -3.5776e-19)
(0.975012 -0.261711 -5.81315e-19)
(0.975591 -0.259871 -2.84324e-19)
(0.976032 -0.257777 1.13399e-18)
(0.976297 -0.255488 -6.27035e-19)
(0.976303 -0.253088 -1.99259e-18)
(0.976067 -0.250739 -3.24339e-19)
(0.975623 -0.248673 -1.40379e-18)
(0.973861 -0.249231 -7.08509e-19)
(0.974341 -0.251707 -1.08602e-18)
(0.985213 -0.245885 7.09353e-19)
(0.966376 -0.26959 8.37381e-22)
(0.965993 -0.269676 -2.51492e-21)
(0.965603 -0.269783 8.98923e-21)
(0.965265 -0.269933 2.33634e-21)
(0.964998 -0.270075 -1.23541e-20)
(0.964791 -0.270189 -1.4214e-20)
(0.964631 -0.270294 3.36672e-20)
(0.964505 -0.270406 -3.67056e-20)
(0.964405 -0.270522 -8.9129e-21)
(0.964331 -0.270627 2.26355e-20)
(0.964279 -0.270719 2.08183e-20)
(0.964246 -0.270811 6.28546e-20)
(0.964227 -0.270921 -3.57701e-20)
(0.96421 -0.271053 -6.03332e-20)
(0.964186 -0.271194 1.33015e-20)
(0.964151 -0.271315 -4.81356e-20)
(0.964102 -0.27139 3.64711e-20)
(0.964045 -0.271407 -6.00612e-20)
(0.963989 -0.271367 1.03069e-20)
(0.963943 -0.27129 -1.89445e-20)
(0.963922 -0.271201 -1.12762e-20)
(0.963943 -0.271125 -5.10402e-20)
(0.964018 -0.271079 6.7261e-21)
(0.964157 -0.271074 1.1124e-19)
(0.964358 -0.271107 -3.72209e-20)
(0.964613 -0.271172 1.21855e-20)
(0.964907 -0.271255 3.33823e-20)
(0.965224 -0.271344 -3.91243e-20)
(0.965552 -0.271428 -8.10064e-21)
(0.965882 -0.271499 5.12055e-20)
(0.966209 -0.271553 5.43194e-20)
(0.966533 -0.271586 -3.78051e-20)
(0.966856 -0.271596 -1.18786e-19)
(0.967179 -0.27158 -1.6241e-19)
(0.967505 -0.271538 2.32549e-19)
(0.967836 -0.271468 6.42815e-20)
(0.968174 -0.271374 4.35501e-20)
(0.968523 -0.271255 1.70436e-19)
(0.968884 -0.271107 -1.33008e-19)
(0.96926 -0.270924 8.04454e-20)
(0.969654 -0.270701 1.27657e-20)
(0.970072 -0.270428 -9.96156e-21)
(0.970517 -0.270095 -6.80819e-20)
(0.970994 -0.269689 1.43358e-19)
(0.971507 -0.269191 -1.59047e-19)
(0.972058 -0.26858 6.95704e-20)
(0.972647 -0.267834 -7.55468e-20)
(0.973266 -0.266925 -1.02713e-19)
(0.973907 -0.265832 -1.28128e-19)
(0.974548 -0.264529 2.4076e-19)
(0.975166 -0.263003 3.06636e-19)
(0.975719 -0.26123 2.4942e-19)
(0.976144 -0.259218 -3.65841e-20)
(0.97641 -0.257026 3.15614e-19)
(0.976446 -0.254736 -7.38645e-20)
(0.976287 -0.252486 9.76606e-20)
(0.976016 -0.250446 2.83028e-19)
(0.974482 -0.250877 1.54411e-19)
(0.975064 -0.252731 2.02992e-19)
(0.986558 -0.24578 -4.75131e-19)
(0.965355 -0.271795 1.551e-21)
(0.964909 -0.271905 -1.3097e-21)
(0.964525 -0.272017 1.20698e-21)
(0.964226 -0.272176 7.73807e-21)
(0.964016 -0.272336 1.12533e-20)
(0.963882 -0.272468 -4.39618e-20)
(0.963806 -0.272584 3.18235e-20)
(0.963774 -0.2727 6.60245e-21)
(0.963774 -0.272815 -2.039e-21)
(0.963801 -0.272917 -1.43302e-20)
(0.963849 -0.273004 4.36541e-20)
(0.963915 -0.27309 -1.43977e-20)
(0.963994 -0.273193 -1.96775e-20)
(0.964078 -0.273318 -5.77271e-20)
(0.964155 -0.273451 1.14904e-19)
(0.964216 -0.273566 -2.41821e-20)
(0.964254 -0.273635 -1.99359e-20)
(0.964267 -0.273643 -5.79959e-20)
(0.964255 -0.273588 6.39552e-20)
(0.964222 -0.273482 3.49877e-20)
(0.96418 -0.273346 -1.63804e-20)
(0.964143 -0.273202 2.68408e-20)
(0.964134 -0.27307 -1.15134e-19)
(0.964173 -0.272964 9.0715e-21)
(0.964278 -0.272892 6.21367e-20)
(0.964454 -0.272856 -1.11923e-20)
(0.964697 -0.27285 -1.78728e-19)
(0.964994 -0.272868 1.96163e-20)
(0.96533 -0.272897 1.5198e-19)
(0.96569 -0.272929 -3.99083e-20)
(0.966061 -0.272954 -7.22431e-20)
(0.966436 -0.272967 4.25497e-20)
(0.966813 -0.27296 1.12559e-19)
(0.96719 -0.272929 2.4844e-19)
(0.967569 -0.27287 -3.60475e-20)
(0.967951 -0.272782 4.54656e-20)
(0.968337 -0.272666 -3.24762e-19)
(0.968731 -0.272524 -7.53768e-20)
(0.969134 -0.272351 4.67706e-20)
(0.969548 -0.272142 -1.87917e-19)
(0.969974 -0.271892 -2.66951e-20)
(0.970417 -0.271594 6.96397e-20)
(0.970879 -0.271238 7.22934e-20)
(0.971364 -0.270814 1.36873e-19)
(0.971877 -0.270304 3.34766e-19)
(0.972418 -0.269689 -2.11178e-19)
(0.972988 -0.268947 2.83112e-19)
(0.973584 -0.268054 1.26875e-19)
(0.9742 -0.266987 -1.69449e-20)
(0.974818 -0.26572 8.25163e-20)
(0.97542 -0.264238 5.6032e-20)
(0.975972 -0.262515 1.28088e-19)
(0.976417 -0.260549 -1.49664e-19)
(0.976732 -0.25839 -1.72597e-19)
(0.976862 -0.256102 3.16497e-20)
(0.976852 -0.253791 7.52309e-19)
(0.976803 -0.25157 -2.56532e-19)
(0.975544 -0.251662 2.2896e-19)
(0.976231 -0.253045 3.07659e-19)
(0.987906 -0.245544 -2.70861e-19)
(0.964039 -0.274296 -1.64843e-21)
(0.963612 -0.274408 1.80755e-21)
(0.963301 -0.274502 1.24004e-20)
(0.963092 -0.27465 -1.62126e-20)
(0.962979 -0.274804 2.9507e-20)
(0.962944 -0.274934 -4.34013e-20)
(0.96297 -0.275047 1.22978e-20)
(0.963042 -0.275156 -5.84704e-22)
(0.963147 -0.275261 2.72307e-20)
(0.963278 -0.275351 -1.43747e-20)
(0.963428 -0.275427 4.18885e-21)
(0.963594 -0.275501 4.26151e-21)
(0.96377 -0.275592 -6.6968e-20)
(0.963952 -0.275705 2.03698e-20)
(0.964131 -0.275827 4.58479e-20)
(0.964297 -0.275934 1.20756e-21)
(0.96444 -0.275997 -7.49855e-20)
(0.964554 -0.276003 3.06152e-20)
(0.964632 -0.275945 1.40909e-19)
(0.964672 -0.275832 -9.22115e-20)
(0.964672 -0.275679 -6.90992e-20)
(0.964642 -0.275502 5.84595e-20)
(0.964596 -0.275315 3.65157e-20)
(0.96456 -0.275132 3.97235e-20)
(0.964562 -0.274965 -7.77695e-20)
(0.964624 -0.274822 -1.61554e-19)
(0.964761 -0.274708 1.23473e-19)
(0.964973 -0.274625 1.66011e-19)
(0.965252 -0.274565 4.10198e-20)
(0.965583 -0.274525 -8.91858e-20)
(0.965951 -0.274493 3.72523e-20)
(0.966341 -0.274461 6.12382e-20)
(0.966746 -0.27442 -1.04296e-19)
(0.967159 -0.27436 -1.78069e-20)
(0.967578 -0.274277 -1.64178e-19)
(0.968003 -0.274164 -3.47806e-20)
(0.968434 -0.274023 -3.57669e-20)
(0.968874 -0.273854 9.05971e-20)
(0.969324 -0.273651 -1.27089e-19)
(0.969783 -0.27341 2.7423e-20)
(0.970253 -0.273127 5.34555e-20)
(0.970738 -0.272794 1.35327e-20)
(0.971238 -0.272405 -2.28303e-19)
(0.971756 -0.271949 -2.84505e-19)
(0.972296 -0.271411 -1.96391e-19)
(0.972858 -0.270772 3.77196e-19)
(0.973444 -0.270013 6.21705e-20)
(0.974052 -0.269109 -9.35685e-20)
(0.974678 -0.268038 4.70035e-20)
(0.975311 -0.266772 -1.98501e-19)
(0.975938 -0.265292 5.40903e-20)
(0.976529 -0.263565 1.11684e-19)
(0.977036 -0.261576 6.16166e-20)
(0.977443 -0.259366 2.85103e-20)
(0.977703 -0.256977 -7.47198e-20)
(0.977859 -0.254494 -1.09248e-19)
(0.978005 -0.25201 -1.49488e-19)
(0.976948 -0.251779 -5.68004e-19)
(0.977675 -0.252984 -3.88559e-19)
(0.989198 -0.245377 5.87666e-19)
(0.962647 -0.276924 -1.36944e-21)
(0.962312 -0.277025 1.98462e-21)
(0.962119 -0.277095 4.18478e-22)
(0.962028 -0.277216 7.6127e-21)
(0.962028 -0.277349 -1.15581e-20)
(0.962101 -0.277462 -2.37263e-20)
(0.962228 -0.277559 8.49798e-21)
(0.962397 -0.277651 -1.12591e-20)
(0.962597 -0.277737 2.4568e-20)
(0.962819 -0.277811 -4.92701e-21)
(0.963058 -0.27787 -1.60945e-20)
(0.963308 -0.27793 1.34309e-20)
(0.963568 -0.278008 2.1443e-20)
(0.963833 -0.278109 5.82149e-20)
(0.964099 -0.278221 -1.05631e-19)
(0.964357 -0.278319 5.34016e-20)
(0.9646 -0.278378 7.83831e-21)
(0.964819 -0.278383 -5.16598e-20)
(0.965006 -0.278329 -3.17143e-20)
(0.965151 -0.278222 1.04084e-19)
(0.965248 -0.278073 -1.08198e-19)
(0.965291 -0.277893 3.26976e-20)
(0.965283 -0.277689 -8.50191e-20)
(0.96524 -0.27747 1.41601e-19)
(0.965188 -0.277242 -2.85207e-20)
(0.965159 -0.277018 -7.65716e-20)
(0.965183 -0.276806 6.26971e-20)
(0.965279 -0.276617 1.12052e-19)
(0.965454 -0.276453 -1.02424e-19)
(0.965704 -0.276316 6.07212e-20)
(0.966016 -0.2762 -1.95868e-19)
(0.966376 -0.276099 -1.68574e-20)
(0.96677 -0.276001 7.83926e-20)
(0.967189 -0.275896 -4.55726e-20)
(0.967626 -0.275774 -8.81486e-20)
(0.968077 -0.275627 -1.89882e-19)
(0.968541 -0.275455 2.33706e-19)
(0.969019 -0.275254 -9.40761e-20)
(0.969511 -0.275018 6.26986e-20)
(0.970017 -0.274741 1.27324e-19)
(0.970537 -0.274421 1.00403e-19)
(0.971074 -0.274048 -4.43757e-20)
(0.971628 -0.273615 1.45786e-19)