/*--------------------------------*- C++ -*----------------------------------*\
  =========                 |
  \\      /  F ield         | OpenFOAM: The Open Source CFD Toolbox
   \\    /   O peration     | Website:  https://openfoam.org
    \\  /    A nd           | Version:  6.0
     \\/     M anipulation  |
\*---------------------------------------------------------------------------*/
FoamFile
{
    version     2.0;
    format      ascii;
    class       volScalarField;
    location    "12";
    object      p;
}
// * * * * * * * * * * * * * * * * * * * * * * * * * * * * * * * * * * * * * //

dimensions      [0 2 -2 0 0 0 0];

internalField   nonuniform List<scalar> 
34500
(
1.00426
1.00492
1.00624
1.00691
1.00629
1.00544
1.00507
1.00511
1.00512
1.00479
1.00415
1.00337
1.00243
1.00186
1.00155
1.00424
1.0049
1.00627
1.00705
1.00649
1.0056
1.00521
1.00533
1.00552
1.00538
1.00485
1.00409
1.00302
1.00244
1.00187
1.00421
1.0048
1.00612
1.00689
1.00627
1.00516
1.00442
1.00427
1.00433
1.00423
1.0038
1.00319
1.00227
1.00191
1.00136
1.00417
1.00472
1.00603
1.00691
1.0064
1.00524
1.00423
1.00378
1.00362
1.00343
1.00302
1.00248
1.00171
1.00148
1.0011
1.00413
1.00464
1.00598
1.00707
1.00686
1.00589
1.00484
1.0042
1.00381
1.00345
1.00293
1.00233
1.00154
1.00128
1.00091
1.00408
1.00452
1.00582
1.00705
1.00718
1.00649
1.00556
1.00483
1.00426
1.00371
1.00302
1.00228
1.00138
1.00101
1.00055
1.00402
1.00432
1.00546
1.00668
1.00701
1.00658
1.00581
1.00508
1.0044
1.0037
1.00285
1.00198
1.00099
1.00054
1.00005
1.00396
1.00406
1.00492
1.00596
1.00634
1.00608
1.00545
1.00476
1.00404
1.00325
1.00232
1.00139
1.00038
0.999898
0.999468
1.0039
1.00378
1.00431
1.00506
1.00534
1.00515
1.00462
1.00399
1.00328
1.00248
1.00153
1.0006
0.999638
0.999195
0.998871
1.00385
1.00353
1.00372
1.00413
1.00424
1.00402
1.00355
1.00298
1.00231
1.00153
1.00062
0.999739
0.998878
0.998497
0.998288
1.00382
1.00332
1.00321
1.00329
1.00319
1.0029
1.00245
1.00192
1.0013
1.00057
0.999709
0.998911
0.99816
0.997844
0.997733
1.00379
1.00317
1.00282
1.00262
1.0023
1.00191
1.00145
1.00094
1.00036
0.999675
0.99888
0.998158
0.997509
0.997238
0.997199
1.00379
1.00308
1.00256
1.00213
1.00162
1.00112
1.00062
1.00011
0.999547
0.998902
0.998158
0.997498
0.996927
0.99668
0.996682
1.00379
1.00305
1.00241
1.0018
1.00114
1.00053
0.999969
0.999437
0.998879
0.998252
0.997538
0.996918
0.996399
0.996151
0.996171
1.00381
1.00305
1.00235
1.00162
1.00084
1.00013
0.999492
0.998918
0.998341
0.99771
0.997005
0.996403
0.99591
0.995642
0.99566
1.00384
1.00308
1.00235
1.00154
1.00066
0.999856
0.999148
0.998517
0.997901
0.997248
0.996533
0.995927
0.995439
0.995137
0.995141
1.00387
1.00313
1.00238
1.00152
1.00057
0.999685
0.9989
0.998202
0.997534
0.996842
0.9961
0.995476
0.994977
0.994632
0.994613
1.00391
1.00319
1.00243
1.00154
1.00053
0.999573
0.998711
0.997938
0.997207
0.996465
0.995684
0.995029
0.994508
0.994116
0.99407
1.00395
1.00324
1.00249
1.00157
1.00052
0.999491
0.998553
0.997702
0.996902
0.996101
0.995274
0.99458
0.994032
0.993591
0.993514
1.00399
1.00329
1.00254
1.0016
1.00051
0.999415
0.998402
0.997471
0.996597
0.995734
0.994854
0.994118
0.993538
0.993048
0.992942
1.00404
1.00334
1.00257
1.00161
1.00048
0.999331
0.998245
0.997234
0.996286
0.995357
0.994424
0.993644
0.99303
0.992494
0.992357
1.00408
1.00338
1.0026
1.00161
1.00044
0.999229
0.998071
0.996982
0.995958
0.994963
0.993975
0.99315
0.992503
0.991921
0.991755
1.00412
1.00341
1.0026
1.00158
1.00037
0.999107
0.997879
0.996711
0.995614
0.994553
0.99351
0.992642
0.991962
0.991337
0.991142
1.00417
1.00344
1.00259
1.00153
1.00029
0.99896
0.997662
0.996419
0.995249
0.994123
0.993027
0.992114
0.991401
0.990736
0.990514
1.00421
1.00346
1.00257
1.00147
1.00018
0.998792
0.997426
0.996108
0.994866
0.993677
0.992528
0.991574
0.990829
0.990125
0.989876
1.00425
1.00347
1.00254
1.00139
1.00005
0.998603
0.997168
0.995777
0.994464
0.993213
0.992013
0.991017
0.99024
0.989499
0.989224
1.0043
1.00348
1.0025
1.0013
0.999904
0.998398
0.996895
0.99543
0.994049
0.992736
0.991485
0.990448
0.989641
0.988864
0.988563
1.00434
1.00349
1.00245
1.00119
0.999745
0.998177
0.996604
0.995067
0.993617
0.992244
0.990943
0.989865
0.989026
0.988215
0.987889
1.00439
1.0035
1.0024
1.00108
0.999577
0.997944
0.996302
0.994693
0.993175
0.991742
0.990391
0.989273
0.988404
0.987558
0.987207
1.00443
1.0035
1.00234
1.00096
0.999399
0.9977
0.995987
0.994307
0.99272
0.991227
0.989826
0.988668
0.987767
0.986887
0.986513
1.00448
1.00351
1.00228
1.00084
0.999215
0.997449
0.995665
0.993912
0.992258
0.990705
0.989254
0.988056
0.987123
0.98621
0.98581
1.00453
1.00351
1.00222
1.00071
0.999025
0.99719
0.995333
0.993507
0.991785
0.990172
0.98867
0.987431
0.986466
0.98552
0.985095
1.00458
1.00352
1.00216
1.00058
0.998832
0.996926
0.994996
0.993097
0.991306
0.989632
0.98808
0.986799
0.985801
0.984823
0.984372
1.00462
1.00352
1.0021
1.00046
0.998635
0.996657
0.994652
0.992679
0.990818
0.989083
0.98748
0.986157
0.985124
0.984113
0.983637
1.00468
1.00353
1.00204
1.00032
0.998436
0.996385
0.994305
0.992256
0.990325
0.988528
0.986873
0.985507
0.984441
0.983396
0.982893
1.00473
1.00354
1.00198
1.00019
0.998235
0.996109
0.993951
0.991826
0.989823
0.987964
0.986256
0.984847
0.983745
0.982666
0.982136
1.00479
1.00356
1.00192
1.00006
0.998034
0.995832
0.993595
0.991393
0.989318
0.987395
0.985634
0.98418
0.983042
0.98193
0.981371
1.00484
1.00357
1.00187
0.999934
0.99783
0.995551
0.993233
0.990953
0.988805
0.986818
0.985002
0.983502
0.982327
0.98118
0.980593
1.0049
1.00359
1.00181
0.999805
0.997628
0.995269
0.99287
0.99051
0.988288
0.986235
0.984364
0.982818
0.981605
0.980424
0.979807
1.00496
1.00361
1.00176
0.999677
0.997423
0.994984
0.992502
0.990061
0.987763
0.985644
0.983716
0.982122
0.980871
0.979655
0.979009
1.00503
1.00363
1.00171
0.99955
0.99722
0.994699
0.992132
0.989609
0.987234
0.985048
0.983062
0.981421
0.980131
0.978879
0.978203
1.0051
1.00366
1.00166
0.999425
0.997016
0.994411
0.991758
0.989151
0.986698
0.984443
0.982399
0.980709
0.979378
0.978091
0.977385
1.00517
1.00369
1.00162
0.999301
0.996813
0.994123
0.991383
0.988691
0.986159
0.983834
0.98173
0.97999
0.978618
0.977295
0.976558
1.00525
1.00372
1.00158
0.99918
0.996609
0.993832
0.991003
0.988225
0.985612
0.983216
0.981052
0.97926
0.977847
0.976487
0.97572
1.00533
1.00376
1.00154
0.99906
0.996407
0.993542
0.990622
0.987756
0.985061
0.982593
0.980367
0.978523
0.977068
0.975672
0.974874
1.00541
1.00381
1.0015
0.998943
0.996204
0.99325
0.990237
0.987281
0.984503
0.981961
0.979673
0.977776
0.976277
0.974844
0.974016
1.0055
1.00386
1.00147
0.998829
0.996004
0.992958
0.989851
0.986804
0.983941
0.981325
0.978972
0.977021
0.97548
0.974009
0.97315
1.00559
1.00391
1.00145
0.998717
0.995804
0.992664
0.989461
0.986321
0.983372
0.98068
0.978262
0.976256
0.974669
0.973161
0.972272
1.00569
1.00397
1.00142
0.998608
0.995606
0.992372
0.989071
0.985836
0.982799
0.98003
0.977546
0.975484
0.973852
0.972306
0.971385
1.0058
1.00403
1.00141
0.998502
0.995408
0.992077
0.988677
0.985346
0.982219
0.979371
0.976819
0.9747
0.973023
0.971438
0.970486
1.00591
1.0041
1.00139
0.998399
0.995213
0.991784
0.988282
0.984853
0.981635
0.978708
0.976087
0.97391
0.972186
0.970562
0.969578
1.00602
1.00417
1.00139
0.998301
0.995019
0.991489
0.987883
0.984355
0.981044
0.978035
0.975344
0.973108
0.971336
0.969673
0.968658
1.00615
1.00425
1.00138
0.998206
0.994828
0.991195
0.987484
0.983854
0.980449
0.977358
0.974596
0.9723
0.970479
0.968776
0.967728
1.00628
1.00434
1.00139
0.998115
0.994639
0.990901
0.987083
0.983348
0.979847
0.976671
0.973837
0.971479
0.969609
0.967866
0.966786
1.00642
1.00444
1.0014
0.998029
0.994452
0.990608
0.98668
0.98284
0.979242
0.97598
0.973071
0.970652
0.968732
0.966948
0.965834
1.00656
1.00454
1.00141
0.997947
0.994268
0.990315
0.986275
0.982327
0.978629
0.975279
0.972296
0.969813
0.967841
0.966015
0.964868
1.00671
1.00465
1.00143
0.99787
0.994087
0.990023
0.985869
0.981812
0.978012
0.974574
0.971514
0.968966
0.966943
0.965075
0.963894
1.00687
1.00477
1.00146
0.997798
0.993909
0.989732
0.985461
0.981292
0.977389
0.97386
0.970722
0.968108
0.966031
0.96412
0.962905
1.00704
1.00489
1.0015
0.997732
0.993734
0.989442
0.985053
0.98077
0.976761
0.97314
0.969923
0.967243
0.965112
0.963158
0.961907
1.00722
1.00503
1.00154
0.997672
0.993563
0.989153
0.984643
0.980244
0.976127
0.972412
0.969114
0.966365
0.964179
0.96218
0.960894
1.00741
1.00517
1.00159
0.997617
0.993396
0.988866
0.984233
0.979715
0.975489
0.971679
0.968298
0.96548
0.963238
0.961194
0.959871
1.00761
1.00532
1.00165
0.997569
0.993233
0.98858
0.983821
0.979182
0.974844
0.970936
0.967471
0.964583
0.962282
0.960193
0.958833
1.00781
1.00548
1.00171
0.997526
0.993074
0.988296
0.983409
0.978647
0.974196
0.970189
0.966638
0.963678
0.961319
0.959183
0.957786
1.00803
1.00566
1.00179
0.997492
0.99292
0.988014
0.982996
0.978107
0.973541
0.969432
0.965795
0.96276
0.960342
0.958158
0.956723
1.00826
1.00584
1.00187
0.997463
0.99277
0.987734
0.982582
0.977566
0.972882
0.96867
0.964944
0.961836
0.959357
0.957124
0.955649
1.0085
1.00603
1.00197
0.997443
0.992626
0.987457
0.982169
0.977021
0.972216
0.9679
0.964083
0.960898
0.958357
0.956074
0.95456
1.00875
1.00624
1.00207
0.99743
0.992486
0.987182
0.981755
0.976474
0.971547
0.967124
0.963215
0.959953
0.957348
0.955015
0.953461
1.00901
1.00645
1.00218
0.997426
0.992353
0.98691
0.981341
0.975924
0.970871
0.966339
0.962336
0.958995
0.956325
0.953941
0.952346
1.00928
1.00668
1.0023
0.997429
0.992225
0.986641
0.980927
0.975372
0.970192
0.965549
0.961451
0.958029
0.955294
0.952857
0.95122
1.00957
1.00692
1.00244
0.997442
0.992103
0.986376
0.980514
0.974816
0.969506
0.964749
0.960554
0.95705
0.954247
0.951757
0.950077
1.00987
1.00717
1.00258
0.997462
0.991987
0.986113
0.980101
0.974259
0.968817
0.963945
0.959651
0.956063
0.953192
0.950647
0.948924
1.01018
1.00743
1.00274
0.997493
0.991879
0.985855
0.979688
0.973699
0.968122
0.963132
0.958736
0.955063
0.952122
0.949521
0.947754
1.01051
1.00771
1.00291
0.997533
0.991776
0.9856
0.979277
0.973137
0.967423
0.962313
0.957814
0.954055
0.951043
0.948386
0.946573
1.01085
1.008
1.00309
0.997583
0.991682
0.985349
0.978866
0.972572
0.966718
0.961485
0.956882
0.953033
0.949949
0.947234
0.945375
1.01121
1.00831
1.00328
0.997643
0.991594
0.985102
0.978456
0.972006
0.966009
0.960653
0.955942
0.952004
0.948846
0.946072
0.944166
1.01158
1.00863
1.00348
0.997714
0.991515
0.984861
0.978048
0.971438
0.965295
0.959811
0.954991
0.950961
0.947727
0.944893
0.94294
1.01196
1.00896
1.0037
0.997795
0.991443
0.984623
0.97764
0.970868
0.964576
0.958964
0.954033
0.949909
0.9466
0.943705
0.941703
1.01236
1.00931
1.00393
0.997888
0.99138
0.984391
0.977235
0.970296
0.963853
0.958108
0.953063
0.948845
0.945457
0.942499
0.940448
1.01278
1.00968
1.00417
0.997991
0.991324
0.984163
0.976831
0.969723
0.963126
0.957246
0.952087
0.947771
0.944304
0.941284
0.939181
1.01321
1.01006
1.00443
0.998108
0.991279
0.983942
0.97643
0.969149
0.962393
0.956376
0.951099
0.946685
0.943136
0.940051
0.937897
1.01366
1.01045
1.00471
0.998235
0.991241
0.983725
0.976029
0.968573
0.961657
0.955501
0.950104
0.94559
0.941959
0.938808
0.936602
1.01413
1.01087
1.005
0.998376
0.991214
0.983516
0.975632
0.967996
0.960916
0.954617
0.949097
0.944481
0.940766
0.937548
0.935288
1.01461
1.0113
1.0053
0.998528
0.991195
0.983311
0.975237
0.967417
0.960171
0.953728
0.948084
0.943363
0.939564
0.936277
0.933963
1.01511
1.01174
1.00562
0.998695
0.991188
0.983114
0.974845
0.966838
0.959422
0.95283
0.947059
0.942232
0.938345
0.934989
0.93262
1.01563
1.01221
1.00595
0.998874
0.991188
0.982922
0.974455
0.966258
0.958669
0.951926
0.946026
0.941092
0.937118
0.933691
0.931265
1.01617
1.01269
1.0063
0.999068
0.991202
0.982738
0.974069
0.965678
0.957911
0.951015
0.944983
0.939939
0.935874
0.932375
0.929892
1.01672
1.01319
1.00667
0.999273
0.991224
0.98256
0.973685
0.965097
0.95715
0.950098
0.943932
0.938777
0.934621
0.931049
0.928507
1.0173
1.01371
1.00705
0.999496
0.991259
0.982391
0.973305
0.964515
0.956385
0.949173
0.94287
0.937601
0.933352
0.929705
0.927104
1.01789
1.01424
1.00745
0.99973
0.991303
0.982227
0.972928
0.963933
0.955616
0.948242
0.941801
0.936417
0.932074
0.928351
0.925689
1.0185
1.0148
1.00787
0.999982
0.991362
0.982073
0.972556
0.963352
0.954844
0.947304
0.94072
0.935219
0.93078
0.92698
0.924255
1.01913
1.01538
1.00831
1.00025
0.991429
0.981924
0.972186
0.96277
0.954068
0.94636
0.939633
0.934012
0.929476
0.925597
0.92281
1.01979
1.01597
1.00876
1.00053
0.991511
0.981787
0.971822
0.962189
0.953289
0.945408
0.938534
0.932792
0.928156
0.924197
0.921346
1.02046
1.01659
1.00923
1.00082
0.991602
0.981655
0.971461
0.961607
0.952506
0.944451
0.937428
0.931563
0.926827
0.922787
0.91987
1.02116
1.01722
1.00972
1.00114
0.991709
0.981535
0.971106
0.961026
0.95172
0.943487
0.936312
0.930321
0.925483
0.921359
0.918376
1.02187
1.01788
1.01023
1.00146
0.991825
0.98142
0.970754
0.960446
0.950931
0.942517
0.935188
0.92907
0.924128
0.919921
0.91687
1.02261
1.01856
1.01076
1.00181
0.991958
0.981317
0.970409
0.959867
0.950139
0.941541
0.934053
0.927806
0.922759
0.918465
0.915345
1.02336
1.01925
1.0113
1.00217
0.9921
0.981221
0.970066
0.959288
0.949344
0.940559
0.932912
0.926534
0.921379
0.916999
0.913809
1.02415
1.01997
1.01187
1.00255
0.99226
0.981137
0.969732
0.958712
0.948547
0.939571
0.931761
0.925248
0.919985
0.915515
0.912254
1.02494
1.02071
1.01246
1.00294
0.992429
0.98106
0.9694
0.958135
0.947747
0.938577
0.930602
0.923955
0.918581
0.914022
0.910687
1.02577
1.02147
1.01306
1.00336
0.992616
0.980996
0.969077
0.957561
0.946945
0.937577
0.929434
0.922648
0.917162
0.91251
0.909101
1.02661
1.02225
1.01369
1.00378
0.992812
0.980938
0.968756
0.956988
0.946139
0.936571
0.928258
0.921334
0.915735
0.910989
0.907505
1.02748
1.02306
1.01433
1.00423
0.993028
0.980895
0.968445
0.956418
0.945333
0.935561
0.927074
0.920006
0.914292
0.909451
0.905889
1.02837
1.02388
1.01499
1.00469
0.993252
0.980858
0.968137
0.955848
0.944524
0.934544
0.925882
0.918671
0.91284
0.907902
0.904262
1.02928
1.02473
1.01568
1.00518
0.993497
0.980836
0.967838
0.955282
0.943714
0.933523
0.924682
0.917324
0.911374
0.906337
0.902616
1.03021
1.02559
1.01638
1.00567
0.99375
0.980819
0.967543
0.954716
0.942901
0.932497
0.923475
0.915969
0.909899
0.904761
0.90096
1.03117
1.02649
1.01711
1.00619
0.994023
0.98082
0.967258
0.954156
0.942089
0.931466
0.922259
0.914603
0.90841
0.903169
0.899285
1.03215
1.02739
1.01785
1.00672
0.994305
0.980825
0.966976
0.953595
0.941273
0.93043
0.921038
0.913229
0.906912
0.901568
0.897599
1.03315
1.02833
1.01862
1.00728
0.994609
0.980847
0.966706
0.953041
0.940458
0.92939
0.919808
0.911844
0.9054
0.89995
0.895894
1.03417
1.02928
1.0194
1.00785
0.99492
0.980875
0.966438
0.952485
0.93964
0.928345
0.918572
0.910451
0.903881
0.898322
0.894179
1.03522
1.03026
1.02021
1.00844
0.995253
0.98092
0.966182
0.951937
0.938824
0.927297
0.917329
0.909048
0.902348
0.896679
0.892445
1.03629
1.03125
1.02103
1.00904
0.995593
0.98097
0.965929
0.951388
0.938005
0.926244
0.91608
0.907639
0.900807
0.895026
0.890701
1.03738
1.03228
1.02187
1.00966
0.995955
0.981039
0.965689
0.950847
0.937188
0.925189
0.914824
0.906218
0.899253
0.893357
0.888938
1.03849
1.03331
1.02273
1.0103
0.996325
0.981111
0.96545
0.950305
0.936368
0.924128
0.913563
0.904792
0.897693
0.89168
0.887166
1.03963
1.03437
1.02361
1.01096
0.996716
0.981203
0.965226
0.949771
0.935551
0.923066
0.912296
0.903356
0.896119
0.889987
0.885375
1.04078
1.03545
1.02451
1.01162
0.997114
0.981298
0.965003
0.949236
0.934732
0.921999
0.911023
0.901915
0.894539
0.888287
0.883576
1.04196
1.03655
1.02543
1.01231
0.997533
0.981412
0.964794
0.948711
0.933916
0.920932
0.909745
0.900463
0.892946
0.88657
0.881757
1.04315
1.03767
1.02636
1.01301
0.997958
0.981529
0.964586
0.948183
0.933096
0.919859
0.908463
0.899007
0.891348
0.884847
0.87993
1.04437
1.03881
1.02731
1.01374
0.998405
0.981665
0.964393
0.947666
0.932282
0.918787
0.907175
0.897543
0.889737
0.883107
0.878083
1.0456
1.03996
1.02827
1.01447
0.998857
0.981804
0.964201
0.947147
0.931464
0.91771
0.905884
0.896073
0.888122
0.881362
0.87623
1.04686
1.04113
1.02926
1.01522
0.999329
0.981962
0.964024
0.946638
0.930652
0.916633
0.904588
0.894596
0.886495
0.879601
0.874357
1.04813
1.04232
1.03025
1.01597
0.999805
0.982121
0.963847
0.946127
0.929836
0.915553
0.903288
0.893115
0.884863
0.877834
0.872477
1.04943
1.04353
1.03127
1.01675
1.0003
0.9823
0.963685
0.945627
0.929026
0.914473
0.901985
0.891627
0.883221
0.876052
0.870578
1.05074
1.04474
1.03229
1.01753
1.0008
0.982479
0.963523
0.945124
0.928212
0.91339
0.900679
0.890135
0.881576
0.874266
0.868673
1.05207
1.04598
1.03333
1.01834
1.00132
0.982676
0.963376
0.944633
0.927406
0.912309
0.899371
0.888637
0.87992
0.872465
0.866749
1.05341
1.04723
1.03437
1.01914
1.00184
0.982873
0.963227
0.944139
0.926595
0.911224
0.898059
0.887137
0.878261
0.87066
0.864819
1.05477
1.04849
1.03543
1.01996
1.00238
0.983088
0.963094
0.943656
0.925792
0.910142
0.896746
0.885631
0.876593
0.86884
0.862869
1.05614
1.04976
1.0365
1.02078
1.00291
0.983301
0.962959
0.94317
0.924985
0.909056
0.895431
0.884124
0.874923
0.867017
0.860915
1.05754
1.05105
1.03758
1.02162
1.00347
0.983532
0.962839
0.942695
0.924186
0.907974
0.894115
0.882612
0.873245
0.865181
0.858941
1.05894
1.05234
1.03865
1.02245
1.00402
0.983759
0.962715
0.942217
0.923382
0.906889
0.892797
0.881099
0.871566
0.863342
0.856962
1.06036
1.05365
1.03975
1.0233
1.00459
0.984002
0.962606
0.94175
0.922587
0.905808
0.89148
0.879583
0.869879
0.86149
0.854964
1.06178
1.05495
1.04084
1.02415
1.00515
0.984241
0.962493
0.941279
0.921788
0.904724
0.890162
0.878068
0.868193
0.859637
0.852962
1.06322
1.05627
1.04194
1.02501
1.00572
0.984495
0.962394
0.94082
0.920998
0.903646
0.888846
0.876549
0.866499
0.85777
0.850939
1.06466
1.05759
1.04303
1.02585
1.00629
0.984742
0.962289
0.940355
0.920202
0.902565
0.887529
0.875033
0.864808
0.855905
0.848913
1.06612
1.05892
1.04413
1.02671
1.00687
0.985004
0.962199
0.939902
0.919417
0.90149
0.886215
0.873515
0.86311
0.854026
0.846865
1.06758
1.06024
1.04522
1.02756
1.00745
0.985257
0.9621
0.939443
0.918626
0.900413
0.884902
0.872
0.861417
0.852149
0.844817
1.06905
1.06157
1.04632
1.02841
1.00803
0.985523
0.962016
0.938996
0.917845
0.899343
0.883593
0.870485
0.859718
0.850258
0.842746
1.07052
1.06289
1.04741
1.02925
1.0086
0.985778
0.961922
0.938541
0.917058
0.898271
0.882286
0.868975
0.858024
0.848372
0.840674
1.072
1.06422
1.04849
1.0301
1.00917
0.986045
0.961841
0.938099
0.916283
0.897208
0.880984
0.867466
0.856327
0.846472
0.838579
1.07347
1.06553
1.04956
1.03093
1.00974
0.986298
0.961749
0.937647
0.9155
0.896142
0.879685
0.865964
0.854637
0.844576
0.836483
1.07496
1.06685
1.05063
1.03175
1.0103
0.986562
0.961669
0.937208
0.91473
0.895086
0.878393
0.864464
0.852943
0.842666
0.834361
1.07643
1.06815
1.05168
1.03256
1.01085
0.98681
0.961576
0.936758
0.913952
0.894029
0.877106
0.862974
0.85126
0.840762
0.832237
1.07792
1.06945
1.05272
1.03337
1.01141
0.987067
0.961494
0.936321
0.913187
0.892983
0.875827
0.861489
0.849573
0.838843
0.830084
1.07939
1.07073
1.05374
1.03415
1.01194
0.987305
0.961397
0.935872
0.912413
0.891936
0.874555
0.860015
0.847899
0.83693
0.827929
1.08086
1.07201
1.05475
1.03492
1.01247
0.987551
0.96131
0.935435
0.911653
0.890902
0.873294
0.858548
0.846222
0.835002
0.825747
1.08232
1.07326
1.05574
1.03567
1.01298
0.987776
0.961206
0.934984
0.910885
0.889868
0.872041
0.857095
0.844559
0.833082
0.823563
1.08378
1.07451
1.05671
1.03641
1.01348
0.988006
0.961111
0.934545
0.91013
0.888849
0.870802
0.855651
0.842895
0.831146
0.821349
1.08523
1.07572
1.05765
1.03712
1.01396
0.988212
0.960996
0.934091
0.909367
0.88783
0.869575
0.854224
0.841246
0.829218
0.819136
1.08667
1.07693
1.05857
1.03781
1.01444
0.988421
0.960889
0.933649
0.908619
0.886828
0.868364
0.852808
0.839597
0.827274
0.816895
1.08809
1.07811
1.05946
1.03847
1.01488
0.988604
0.96076
0.933189
0.907861
0.885829
0.867168
0.851412
0.837964
0.82534
0.814654
1.0895
1.07927
1.06033
1.03912
1.01532
0.988788
0.960638
0.932741
0.90712
0.88485
0.865992
0.850028
0.836331
0.82339
0.812386
1.09089
1.08039
1.06115
1.03973
1.01572
0.988943
0.96049
0.932275
0.90637
0.883876
0.864833
0.848668
0.834717
0.821449
0.810119
1.09228
1.0815
1.06196
1.04032
1.01611
0.989096
0.960347
0.93182
0.905636
0.882926
0.863698
0.847321
0.833101
0.819491
0.807823
1.09363
1.08257
1.06272
1.04087
1.01647
0.989217
0.960177
0.931344
0.904895
0.881983
0.862584
0.846001
0.831505
0.817542
0.805527
1.09497
1.08362
1.06346
1.04139
1.01681
0.989335
0.96001
0.930879
0.904173
0.881067
0.861496
0.844696
0.829908
0.815575
0.803201
1.09628
1.08462
1.06415
1.04188
1.01712
0.989417
0.959813
0.930392
0.903444
0.880162
0.860433
0.84342
0.828331
0.813618
0.800875
1.09757
1.0856
1.06481
1.04234
1.01741
0.989494
0.959617
0.929915
0.902737
0.879287
0.859399
0.84216
0.826753
0.811641
0.798518
1.09883
1.08653
1.06542
1.04275
1.01766
0.989531
0.959388
0.929416
0.902025
0.878428
0.858395
0.840931
0.825195
0.809673
0.796159
1.10007
1.08744
1.066
1.04314
1.01789
0.98956
0.959157
0.928926
0.901337
0.877601
0.857423
0.839719
0.823634
0.807684
0.793768
1.10127
1.08829
1.06652
1.04348
1.01808
0.989547
0.958891
0.928414
0.900646
0.876795
0.856483
0.838539
0.822094
0.805703
0.791372
1.10245
1.08911
1.06701
1.04379
1.01824
0.989522
0.95862
0.927912
0.899981
0.876026
0.855578
0.837378
0.82055
0.803698
0.788942
1.10358
1.08988
1.06745
1.04405
1.01836
0.989452
0.958311
0.927387
0.899317
0.875281
0.854708
0.836249
0.819026
0.8017
0.786505
1.10468
1.09061
1.06785
1.04428
1.01846
0.989366
0.957996
0.926871
0.898682
0.874575
0.853875
0.835138
0.817497
0.799677
0.784033
1.10574
1.09129
1.0682
1.04445
1.01851
0.989231
0.95764
0.926333
0.898051
0.873899
0.853081
0.834061
0.815987
0.797659
0.781552
1.10676
1.09193
1.06851
1.0446
1.01853
0.989078
0.957275
0.925804
0.897451
0.873265
0.852323
0.833002
0.814469
0.795614
0.779034
1.10774
1.09251
1.06876
1.04469
1.0185
0.988872
0.956867
0.925254
0.896859
0.872665
0.851608
0.831976
0.812969
0.793569
0.776504
1.10868
1.09306
1.06897
1.04476
1.01844
0.988643
0.956447
0.924714
0.8963
0.872109
0.850929
0.830966
0.81146
0.791497
0.773937
1.10956
1.09354
1.06913
1.04476
1.01832
0.988359
0.955981
0.924154
0.895754
0.87159
0.850294
0.829989
0.809964
0.789421
0.771355
1.1104
1.09398
1.06925
1.04474
1.01818
0.988047
0.955501
0.923603
0.895242
0.871116
0.849695
0.829025
0.808456
0.787313
0.768732
1.11118
1.09436
1.06932
1.04466
1.01798
0.987677
0.954974
0.923033
0.894747
0.870683
0.849141
0.828094
0.806959
0.785198
0.766089
1.11192
1.0947
1.06935
1.04456
1.01775
0.987274
0.954428
0.922473
0.894286
0.870295
0.848623
0.827173
0.805445
0.783048
0.763404
1.1126
1.09498
1.06932
1.0444
1.01745
0.98681
0.953835
0.921896
0.893844
0.86995
0.848149
0.826281
0.803937
0.780885
0.760694
1.11323
1.09523
1.06927
1.0442
1.01713
0.986309
0.953221
0.921326
0.893438
0.869651
0.847708
0.825396
0.802407
0.778682
0.757938
1.11378
1.09541
1.06916
1.04396
1.01674
0.985743
0.952556
0.920741
0.893053
0.869396
0.847312
0.824536
0.800878
0.77646
0.755152
1.11429
1.09555
1.06903
1.04369
1.01631
0.985136
0.951867
0.920162
0.892702
0.869184
0.846945
0.823678
0.799322
0.774194
0.752318
1.11473
1.09563
1.06885
1.04337
1.01581
0.984461
0.951127
0.919568
0.892374
0.869018
0.84662
0.822841
0.797759
0.771902
0.749448
1.11511
1.09568
1.06864
1.04302
1.01528
0.983741
0.950358
0.918977
0.892078
0.868894
0.846322
0.821999
0.796163
0.769559
0.746527
1.11541
1.09568
1.0684
1.04262
1.01468
0.982949
0.949535
0.91837
0.891807
0.868815
0.846063
0.821173
0.794552
0.767183
0.743563
1.11566
1.09564
1.06814
1.0422
1.01404
0.982107
0.948678
0.917763
0.891565
0.868775
0.845824
0.820334
0.792901
0.764751
0.740547
1.11582
1.09555
1.06784
1.04174
1.01334
0.981192
0.947766
0.91714
0.891348
0.868778
0.845621
0.819504
0.791227
0.762277
0.737481
1.11593
1.09544
1.06753
1.04125
1.01259
0.98022
0.946813
0.916511
0.891157
0.868817
0.845433
0.818654
0.789504
0.75974
0.734359
1.11595
1.09529
1.06721
1.04073
1.01177
0.979171
0.945802
0.915866
0.89099
0.868899
0.845274
0.817803
0.787748
0.757151
0.731179
1.11591
1.09511
1.06687
1.04018
1.0109
0.978061
0.944742
0.915209
0.890844
0.86901
0.845123
0.816924
0.785934
0.754495
0.727941
1.11579
1.09491
1.06653
1.03961
1.00997
0.976869
0.943619
0.914533
0.890722
0.869162
0.844995
0.816033
0.784077
0.751778
0.72464
1.11559
1.09469
1.06619
1.03901
1.00899
0.975609
0.942441
0.913841
0.890618
0.869339
0.844866
0.815103
0.782153
0.748987
0.721279
1.11532
1.09444
1.06585
1.0384
1.00794
0.974263
0.941194
0.913128
0.890535
0.869554
0.844754
0.814151
0.780173
0.746125
0.71785
1.11497
1.0942
1.06553
1.03777
1.00683
0.97284
0.939882
0.912392
0.890465
0.869789
0.84463
0.813149
0.778115
0.743185
0.714359
1.11454
1.09394
1.06522
1.03711
1.00566
0.971325
0.938494
0.911633
0.890415
0.870059
0.844513
0.812112
0.775988
0.740161
0.710795
1.11404
1.0937
1.06495
1.03646
1.00443
0.969725
0.937033
0.910846
0.890374
0.870343
0.844375
0.811011
0.773772
0.73705
0.707169
1.11345
1.09346
1.0647
1.03578
1.00313
0.968025
0.93549
0.910035
0.890354
0.870661
0.844235
0.809861
0.771471
0.733844
0.703464
1.11279
1.09324
1.06449
1.03511
1.00176
0.966229
0.933863
0.90919
0.89034
0.870984
0.84406
0.808634
0.769071
0.730545
0.699698
1.11205
1.09305
1.06432
1.03442
1.00031
0.964325
0.932149
0.908321
0.890347
0.871338
0.843872
0.807341
0.76657
0.727139
0.695848
1.11123
1.09289
1.06421
1.03372
0.998795
0.962312
0.930342
0.907416
0.890358
0.871691
0.843639
0.805956
0.763956
0.723631
0.691935
1.11033
1.09277
1.06414
1.03302
0.997194
0.960183
0.928442
0.906488
0.890395
0.87207
0.843378
0.804487
0.761226
0.720005
0.687934
1.10935
1.09271
1.06414
1.03231
0.99551
0.957933
0.926442
0.905523
0.890435
0.872443
0.843057
0.802909
0.758368
0.71627
0.683869
1.1083
1.09271
1.06421
1.0316
0.993732
0.955555
0.924346
0.904541
0.890504
0.872838
0.842694
0.801228
0.755376
0.712404
0.679711
1.10717
1.09278
1.06434
1.03087
0.991858
0.953043
0.922144
0.903524
0.890579
0.87322
0.842255
0.799419
0.752241
0.708421
0.675488
1.10597
1.09292
1.06455
1.03012
0.98988
0.950395
0.919847
0.902499
0.890691
0.873618
0.841758
0.797485
0.748954
0.704294
0.671168
1.1047
1.09316
1.06482
1.02935
0.987788
0.9476
0.917443
0.901447
0.890813
0.873994
0.841166
0.795403
0.745508
0.700043
0.666783
1.10335
1.09348
1.06517
1.02856
0.985578
0.944659
0.914947
0.900399
0.890981
0.874381
0.840497
0.793172
0.74189
0.695636
0.662295
1.10194
1.09391
1.06559
1.02773
0.983237
0.941561
0.912349
0.899336
0.891168
0.874737
0.839712
0.79077
0.738096
0.691095
0.657743
1.10046
1.09445
1.06607
1.02685
0.98076
0.938311
0.90967
0.898297
0.891412
0.875095
0.838828
0.788193
0.734108
0.686385
0.653084
1.09892
1.09509
1.06661
1.02591
0.978133
0.934896
0.9069
0.897263
0.891685
0.875412
0.837806
0.785419
0.729926
0.681534
0.64836
1.09731
1.09586
1.0672
1.02491
0.975351
0.931326
0.904066
0.896278
0.892028
0.875719
0.836659
0.782443
0.72553
0.676502
0.643527
1.09565
1.09673
1.06783
1.02382
0.972396
0.927588
0.901162
0.895324
0.892412
0.875972
0.835346
0.779243
0.72092
0.67132
0.638629
1.09394
1.09772
1.06848
1.02263
0.969268
0.923697
0.89822
0.894453
0.892881
0.876201
0.833879
0.775809
0.716073
0.665946
0.63362
1.09218
1.09882
1.06913
1.02132
0.965943
0.919642
0.895238
0.893647
0.893405
0.876359
0.832216
0.772123
0.710994
0.660415
0.628549
1.09037
1.10002
1.06978
1.01987
0.962422
0.91544
0.892256
0.892965
0.894029
0.876475
0.830365
0.768171
0.705656
0.654681
0.623368
1.08851
1.10131
1.07039
1.01826
0.958681
0.911084
0.889276
0.892393
0.894721
0.8765
0.828283
0.763934
0.700067
0.648783
0.618128
1.08662
1.10269
1.07094
1.01646
0.954719
0.906598
0.886346
0.891992
0.895526
0.876458
0.825976
0.759399
0.694198
0.642676
0.612783
1.08469
1.10413
1.07138
1.01445
0.95051
0.901976
0.883474
0.891753
0.896411
0.876299
0.823399
0.754547
0.688059
0.636399
0.607383
1.08273
1.10561
1.07171
1.0122
0.946052
0.897247
0.880717
0.891741
0.897419
0.876043
0.820553
0.749362
0.681622
0.629908
0.601885
1.08074
1.10711
1.07187
1.00967
0.941317
0.892409
0.878087
0.891949
0.898516
0.875637
0.817395
0.743829
0.674899
0.623246
0.596343
1.07873
1.10861
1.07183
1.00683
0.9363
0.887497
0.87565
0.892446
0.89974
0.875095
0.813922
0.737929
0.667862
0.616372
0.590716
1.07669
1.11006
1.07154
1.00364
0.93097
0.882512
0.873425
0.893225
0.901053
0.874363
0.81009
0.731648
0.660525
0.609332
0.585062
1.07464
1.11144
1.07095
1.00007
0.925319
0.877494
0.871486
0.894357
0.902488
0.873448
0.805894
0.724969
0.652862
0.60209
0.579341
1.07256
1.11269
1.07001
0.996048
0.919309
0.872448
0.869857
0.895834
0.904002
0.87229
0.801288
0.71788
0.644892
0.594691
0.573611
1.07048
1.11378
1.06868
0.99155
0.912927
0.867417
0.868616
0.897722
0.905619
0.870892
0.796265
0.710363
0.636591
0.587102
0.567838
1.06839
1.11464
1.06688
0.986507
0.906128
0.86241
0.867794
0.900012
0.907289
0.869192
0.790784
0.702411
0.627982
0.579372
0.562084
1.0663
1.11524
1.06456
0.98087
0.898891
0.857471
0.867466
0.902761
0.909023
0.867181
0.784831
0.694008
0.619045
0.571475
0.556321
1.06419
1.1155
1.06166
0.974567
0.891162
0.852611
0.867662
0.905949
0.910761
0.864795
0.778367
0.685152
0.609807
0.563466
0.550611
1.06211
1.11539
1.05811
0.967542
0.88291
0.847869
0.868449
0.909614
0.912496
0.862018
0.771381
0.675831
0.600257
0.555324
0.544933
1.06001
1.11481
1.05386
0.959715
0.874075
0.843256
0.869845
0.913721
0.914155
0.858783
0.763839
0.666049
0.590427
0.54711
0.539356
1.05794
1.11373
1.04884
0.951026
0.864617
0.838802
0.871891
0.918273
0.915709
0.855063
0.755728
0.6558
0.580314
0.538811
0.533867
1.05587
1.11206
1.04299
0.941394
0.854475
0.83451
0.874569
0.923199
0.917064
0.850792
0.747022
0.6451
0.56996
0.530493
0.528539
1.05384
1.10977
1.03627
0.930765
0.843618
0.830392
0.877864
0.928445
0.918158
0.845933
0.737714
0.633952
0.559374
0.522157
0.52337
1.05182
1.10677
1.02861
0.91907
0.832013
0.826433
0.881678
0.933873
0.918868
0.840419
0.727789
0.622386
0.54861
0.513877
0.518436
1.04986
1.10303
1.01998
0.906288
0.819695
0.822618
0.885873
0.939331
0.919087
0.834206
0.717249
0.610421
0.537692
0.50567
0.513751
1.04793
1.09849
1.01033
0.892407