/*--------------------------------*- C++ -*----------------------------------*\
  =========                 |
  \\      /  F ield         | OpenFOAM: The Open Source CFD Toolbox
   \\    /   O peration     | Website:  https://openfoam.org
    \\  /    A nd           | Version:  6.0
     \\/     M anipulation  |
\*---------------------------------------------------------------------------*/
FoamFile
{
    version     2.0;
    format      ascii;
    class       surfaceScalarField;
    location    "12";
    object      phi;
}
// * * * * * * * * * * * * * * * * * * * * * * * * * * * * * * * * * * * * * //

dimensions      [0 3 -1 0 0 0 0];

internalField   nonuniform List<scalar> 
68636
(
3.72605e-05
0.00309865
-5.99078e-08
7.48684e-05
0.00306398
0.00011206
0.0029961
0.000148295
0.00289509
0.000183004
0.00276228
0.000215717
0.00259963
0.000246029
0.00240889
0.000273649
0.00219141
0.000298265
0.00194927
0.00031961
0.00168511
0.000337419
0.00140234
0.0003515
0.00110404
0.000361827
0.000794129
0.000367749
0.000475666
0.000142041
0.000362875
3.67643e-05
0.00306194
-5.0104e-08
7.39273e-05
0.00302681
0.00011072
0.00295928
0.000146562
0.00285921
0.000180859
0.00272791
0.000213159
0.00256725
0.000243088
0.00237885
0.000270376
0.00216402
0.000294708
0.00192482
0.000315817
0.0016639
0.000333431
0.00138461
0.000347345
0.00109001
0.000357671
0.000783658
0.000362892
0.000470257
0.000144939
0.000359643
3.62898e-05
0.00302568
-2.73389e-08
7.30371e-05
0.00299006
0.000109434
0.00292288
0.000144861
0.00282378
0.000178727
0.00269402
0.000210617
0.00253536
0.00024018
0.00234927
0.000267154
0.00213706
0.000291215
0.00190075
0.000312091
0.00164304
0.00032951
0.0013672
0.000343251
0.0010763
0.000353395
0.000773545
0.000359012
0.000464696
0.000146454
0.000357696
3.58504e-05
0.00298985
-6.83764e-09
7.21952e-05
0.00295372
0.000108183
0.00288689
0.000143176
0.00278877
0.000176606
0.00266055
0.000208092
0.00250384
0.000237304
0.00232001
0.000263973
0.00211034
0.000287768
0.00187689
0.000308413
0.00162234
0.000325637
0.0013499
0.000339209
0.00106265
0.000349136
0.000763525
0.000354874
0.000458836
0.000146753
0.000354349
3.54354e-05
0.0029544
1.61185e-08
7.13795e-05
0.00291778
0.000106948
0.00285132
0.000141497
0.00275423
0.000174494
0.00262755
0.000205588
0.00247277
0.000234458
0.00229114
0.000260828
0.00208399
0.000284362
0.00185336
0.000304776
0.00160196
0.000321806
0.00133289
0.000335217
0.00104928
0.000344944
0.000753839
0.000350635
0.000453215
0.00014705
0.000350554
3.50322e-05
0.00291934
3.25142e-08
7.05722e-05
0.00288225
0.000105714
0.00281618
0.000139821
0.00272012
0.000172396
0.00259496
0.000203109
0.00244204
0.000231648
0.00226257
0.000257725
0.00205788
0.000280999
0.00183005
0.000301184
0.00158174
0.000318019
0.00131601
0.000331273
0.00103597
0.000340826
0.000744217
0.000346465
0.000447484
0.000146532
0.000346814
3.46334e-05
0.00288467
4.34018e-08
6.97645e-05
0.00284712
0.000104478
0.00278147
0.000138151
0.00268646
0.000170317
0.00256279
0.000200664
0.00241171
0.00022888
0.00223436
0.000254669
0.00203212
0.000277685
0.00180705
0.000297641
0.00156181
0.00031428
0.0012994
0.00032738
0.00102291
0.000336777
0.000734864
0.000342376
0.000441959
0.000145996
0.000343128
3.42355e-05
0.00285039
4.89266e-08
6.8954e-05
0.00281241
0.000103241
0.00274718
0.00013649
0.00265321
0.000168263
0.00253101
0.000198257
0.00238171
0.000226158
0.00220644
0.000251662
0.0020066
0.000274421
0.00178426
0.000294149
0.00154205
0.000310592
0.00128292
0.000323537
0.00100992
0.000332793
0.000725552
0.000338345
0.000436334
0.000144781
0.000339421
3.38373e-05
0.00281651
4.77364e-08
6.8141e-05
0.00277811
0.000102005
0.00271332
0.000134844
0.00262038
0.000166237
0.00249962
0.000195889
0.00235208
0.000223482
0.00217886
0.000248703
0.0019814
0.000271206
0.00176177
0.000290707
0.00152258
0.000306954
0.0012667
0.000319743
0.000997171
0.000328869
0.00071647
0.000334361
0.000430915
0.000143685
0.000335665
3.34387e-05
0.00278304
4.13869e-08
6.73276e-05
0.00274422
0.000100776
0.00267988
0.000133215
0.00258794
0.000164243
0.00246859
0.000193562
0.00232275
0.000220851
0.00215156
0.000245791
0.00195644
0.000268039
0.0017395
0.000287312
0.00150329
0.000303364
0.00125061
0.000315997
0.000984501
0.000325
0.00070742
0.000330423
0.000425432
0.000142122
0.000331867
3.30404e-05
0.00274997
2.97052e-08
6.6517e-05
0.00271075
9.95568e-05
0.00264684
0.000131609
0.00255589
0.000162281
0.00243791
0.000191276
0.00229378
0.000218263
0.00212458
0.000242924
0.0019318
0.000264916
0.00171752
0.000283962
0.00148427
0.00029982
0.00123478
0.000312298
0.00097206
0.000321184
0.000698578
0.000326529
0.000420161
0.000140806
0.000328047
3.26438e-05
0.00271732
1.6241e-08
6.57124e-05
0.00267769
9.83521e-05
0.0026142
0.000130028
0.00252422
0.000160353
0.00240759
0.000189028
0.0022651
0.000215717
0.00209788
0.000240098
0.00190741
0.000261835
0.00169577
0.000280654
0.00146543
0.000296319
0.00121909
0.000308642
0.000959705
0.000317416
0.000689764
0.000322681
0.000414844
0.000139156
0.000324227
3.22502e-05
0.00268507
3.4894e-09
6.49167e-05
0.00264502
9.71649e-05
0.00258196
0.000128473
0.00249292
0.000158459
0.0023776
0.000186817
0.00223676
0.000213208
0.0020715
0.00023731
0.00188333
0.000258792
0.0016743
0.000277386
0.00144687
0.000292859
0.00120365
0.000305029
0.00094757
0.000313693
0.000681143
0.000318879
0.000409732
0.000137803
0.000320425
3.18609e-05
0.00265322
-6.36746e-09
6.41323e-05
0.00261276
9.59976e-05
0.0025501
0.000126946
0.00246198
0.000156598
0.00234795
0.000184641
0.00220871
0.000210736
0.0020454
0.000234559
0.0018595
0.000255786
0.00165306
0.000274156
0.00142848
0.000289438
0.00118834
0.000301455
0.000935524
0.000310012
0.00067255
0.000315121
0.000404578
0.000136178
0.000316652
3.14768e-05
0.00262176
-1.19394e-08
6.33607e-05
0.00258088
9.48512e-05
0.00251861
0.000125446
0.00243139
0.000154768
0.00231862
0.000182499
0.002181
0.000208296
0.00201961
0.000231841
0.00183597
0.000252815
0.0016321
0.000270961
0.00141036
0.000286054
0.00117327
0.00029792
0.000923691
0.000306372
0.000664142
0.000311406
0.000399618
0.000134857
0.000312915
3.10987e-05
0.00259068
-1.28281e-08
6.26029e-05
0.00254938
9.3726e-05
0.00248749
0.000123974
0.00240114
0.000152968
0.00228963
0.000180387
0.00215358
0.000205888
0.0019941
0.000229155
0.0018127
0.000249876
0.00161137
0.0002678
0.00139242
0.000282705
0.00115835
0.000294423
0.000911949
0.00030277
0.000655762
0.000307734
0.000394616
0.000133288
0.000309217
3.07268e-05
0.00255996
-9.0702e-09
6.1859e-05
0.00251825
9.26216e-05
0.00245673
0.000122526
0.00237124
0.000151195
0.00226096
0.000178303
0.00212649
0.000203509
0.0019689
0.000226499
0.00178972
0.000246968
0.00159091
0.000264672
0.00137474
0.000279392
0.00114365
0.000290962
0.000900411
0.000299207
0.000647558
0.000304102
0.000389794
0.000132006
0.000305562
3.03614e-05
0.00252961
-1.70152e-09
6.11289e-05
0.00248749
9.15369e-05
0.00242633
0.000121103
0.00234168
0.000149448
0.00223262
0.000176246
0.00209969
0.000201156
0.00194399
0.00022387
0.00176701
0.000244091
0.00157068
0.000261576
0.00135725
0.000276113
0.0011291
0.000287537
0.000888964
0.000295681
0.000639386
0.000300511
0.00038493
0.00013049
0.000301948
3.00024e-05
0.0024996
7.96007e-09
6.04118e-05
0.00245708
9.04706e-05
0.00239627
0.0001197
0.00231246
0.000147724
0.00220459
0.000174213
0.00207321
0.000198829
0.00191938
0.000221269
0.00174458
0.000241242
0.00155072
0.000258511
0.00134
0.000272866
0.00111477
0.000284147
0.000877715
0.000292191
0.000631383
0.000296959
0.000380235
0.000129244
0.000298376
2.96494e-05
0.00246994
1.8498e-08
5.97068e-05
0.00242703
8.94212e-05
0.00236656
0.000118318
0.00228357
0.000146022
0.00217689
0.000172202
0.00204704
0.000196526
0.00189506
0.000218693
0.00172241
0.000238421
0.00153099
0.000255476
0.00132294
0.000269654
0.00110058
0.000280793
0.000866555
0.000288738
0.000623411
0.000293446
0.000375498
0.000127773
0.000294844
2.93022e-05
0.00244061
2.86794e-08
5.9013e-05
0.00239732
8.83871e-05
0.00233719
0.000116954
0.002255
0.000144338
0.00214951
0.000170212
0.00202117
0.000194245
0.00187103
0.000216143
0.00170052
0.000235628
0.00151151
0.000252472
0.00130611
0.000266473
0.0010866
0.000277473
0.000855585
0.000285322
0.000615602
0.000289972
0.00037092
0.000126553
0.000291353
2.89604e-05
0.00241162
3.76676e-08
5.83294e-05
0.00236796
8.73669e-05
0.00230816
0.000115605
0.00222677
0.000142673
0.00212244
0.000168241
0.00199561
0.000191986
0.00184729
0.000213617
0.00167889
0.000232862
0.00149226
0.000249498
0.00128947
0.000263326
0.00107276
0.000274189
0.000844703
0.000281943
0.000607825
0.000286536
0.000366302
0.000125118
0.000287902
2.86236e-05
0.00238296
4.48302e-08
5.7655e-05
0.00233893
8.63591e-05
0.00227945
0.000114272
0.00219886
0.000141024
0.00209569
0.00016629
0.00197035
0.000189748
0.00182383
0.000211115
0.00165754
0.000230124
0.00147326
0.000246555
0.00127306
0.000260211
0.00105912
0.00027094
0.000834003
0.000278599
0.000600204
0.000283138
0.000361835
0.000123921
0.00028449
2.82912e-05
0.00235462
5.00194e-08
5.6989e-05
0.00231024
8.53628e-05
0.00225108
0.000112952
0.00217128
0.000139392
0.00206926
0.000164356
0.00194539
0.000187531
0.00180066
0.000208637
0.00163643
0.000227412
0.00145448
0.000243641
0.00125682
0.000257129
0.00104562
0.000267725
0.000823391
0.000275293
0.000592616
0.000279778
0.000357328
0.000122518
0.000281116
2.79631e-05
0.00232661
5.3262e-08
5.63305e-05
0.00228187
8.43768e-05
0.00222304
0.000111645
0.00214401
0.000137774
0.00204312
0.00016244
0.00192073
0.000185335
0.00177777
0.000206183
0.00161559
0.000224728
0.00143595
0.000240757
0.00124081
0.00025408
0.00103232
0.000264546
0.000812952
0.000272022
0.000585177
0.000276455
0.000352965
0.000121337
0.000277781
2.76388e-05
0.00229892
5.4864e-08
5.5679e-05
0.00225383
8.34005e-05
0.00219532
0.000110351
0.00211706
0.00013617
0.00201731
0.000160541
0.00189637
0.000183159
0.00175515
0.000203753
0.001595
0.000222071
0.00141762
0.000237903
0.00122497
0.000251063
0.00101915
0.000261401
0.000802599
0.000268788
0.000577771
0.000273171
0.000348564
0.000119964
0.000274484
2.73181e-05
0.00227155
5.51308e-08
5.5034e-05
0.00222612
8.24334e-05
0.00216792
0.000109067
0.00209043
0.000134582
0.00199179
0.00015866
0.00187229
0.000181004
0.00173281
0.000201346
0.00157466
0.000219441
0.00139954
0.00023508
0.00120935
0.000248079
0.00100617
0.000258291
0.000792413
0.000265591
0.000570508
0.000269923
0.000344301
0.000118799
0.000271225
2.70006e-05
0.0022445
5.44563e-08
5.43951e-05
0.00219873
8.1475e-05
0.00214085
0.000107796
0.00206412
0.000133007
0.00196659
0.000156796
0.00184851
0.00017887
0.00171074
0.000198964
0.00155457
0.000216838
0.00138166
0.000232286
0.00119389
0.000245128
0.000993324
0.000255216
0.000782311
0.00026243
0.000563278
0.000266713
0.000340002
0.00011745
0.000268003
2.66863e-05
0.00221776
5.315e-08
5.3762e-05
0.00217165
8.05252e-05
0.00211408
0.000106535
0.00203811
0.000131446
0.00194168
0.00015495
0.00182501
0.000176756
0.00168894
0.000196606
0.00153473
0.000214262
0.00136401
0.000229523
0.00117865
0.000242209
0.000980658
0.000252176
0.000772369
0.000259304
0.000556185
0.000263541
0.000335833
0.000116299
0.000264819
2.63749e-05
0.00219134
5.15147e-08
5.31347e-05
0.0021449
7.95838e-05
0.00208764
0.000105286
0.00201241
0.0001299
0.00191707
0.000153121
0.00180179
0.000174663
0.0016674
0.000194273
0.00151512
0.000211715
0.00134657
0.00022679
0.00116357
0.000239323
0.000968117
0.00024917
0.00076251
0.000256215
0.000549126
0.000260405
0.000331631
0.000114973
0.000261671
2.60665e-05
0.00216522
4.97313e-08
5.2513e-05
0.00211845
7.86507e-05
0.0020615
0.000104048
0.00198701
0.000128368
0.00189274
0.00015131
0.00177886
0.000172592
0.00164612
0.000191964
0.00149576
0.000209194
0.00132935
0.000224088
0.00114869
0.00023647
0.000955754
0.000246199
0.000752805
0.000253162
0.000542197
0.000257305
0.000327554
0.000113851
0.00025856
2.57609e-05
0.00213942
4.79673e-08
5.18969e-05
0.00209233
7.77261e-05
0.00203568
0.000102822
0.00196192
0.000126851
0.00186872
0.000149517
0.0017562
0.000170542
0.0016251
0.000189679
0.00147662
0.000206702
0.00131232
0.000221416
0.00113397
0.000233649
0.000943514
0.000243263
0.000743181
0.000250144
0.000535304
0.000254243
0.000323446
0.000112545
0.000255485
2.54581e-05
0.00211392
4.62894e-08
5.12865e-05
0.0020665
7.681e-05
0.00201015
0.000101607
0.00193713
0.000125349
0.00184498
0.000147742
0.00173381
0.000168514
0.00160433
0.00018742
0.00145772
0.000204237
0.00129551
0.000218774
0.00111945
0.000230861
0.000931445
0.00024036
0.000733705
0.000247162
0.000528535
0.000251216
0.000319457
0.000111442
0.000252446
2.51582e-05
0.00208872
4.47713e-08
5.06817e-05
0.00204098
7.59025e-05
0.00198494
0.000100404
0.00191263
0.000123862
0.00182153
0.000145986
0.00171169
0.000166507
0.00158381
0.000185185
0.00143904
0.000201801
0.0012789
0.000216163
0.00110508
0.000228106
0.000919497
0.000237492
0.00072431
0.000244215
0.000521803
0.000248225
0.00031544
0.000110152
0.000249442
2.48611e-05
0.00206381
4.34103e-08
5.00827e-05
0.00201576
7.50038e-05
0.00196002
9.92132e-05
0.00188842
0.00012239
0.00179835
0.000144248
0.00168984
0.000164523
0.00156354
0.000182976
0.0014206
0.000199391
0.00126249
0.000213582
0.00109091
0.000225382
0.000907715
0.000234657
0.000715057
0.000241303
0.000515189
0.000245269
0.000311538
0.000109079
0.000246474
2.45669e-05
0.00203921
4.22299e-08
4.94894e-05
0.00199084
7.41141e-05
0.0019354
9.80343e-05
0.00186451
0.000120934
0.00177546
0.000142529
0.00166825
0.00016256
0.00154351
0.000180791
0.00140237
0.00019701
0.00124627
0.000211031
0.00107688
0.000222691
0.00089605
0.000231856
0.000705884
0.000238426
0.000508613
0.000242349
0.00030761
0.000107803
0.000243539
2.42756e-05
0.0020149
4.12022e-08
4.89022e-05
0.00196621
7.32333e-05
0.00191107
9.68677e-05
0.00184087
0.000119493
0.00175283
0.000140829
0.00164692
0.000160619
0.00152373
0.000178632
0.00138436
0.000194656
0.00123025
0.00020851
0.00106304
0.000220031
0.000884545
0.000229089
0.000696847
0.000235583
0.000502149
0.000239463
0.000303791
0.000106756
0.00024064
2.39872e-05
0.00199088
4.0332e-08
4.83208e-05
0.00194189
7.23617e-05
0.00188704
9.57135e-05
0.00181753
0.000118067
0.00173048
0.000139148
0.00162584
0.000158701
0.00150418
0.000176497
0.00136657
0.00019233
0.00121442
0.000206018
0.00104935
0.000217403
0.000873157
0.000226354
0.000687889
0.000232774
0.000495725
0.000236612
0.000299951
0.0001055
0.000237774
2.37018e-05
0.00196713
3.95822e-08
4.77456e-05
0.00191784
7.14993e-05
0.00186328
9.45717e-05
0.00179446
0.000116658
0.00170839
0.000137485
0.00160502
0.000156804
0.00148486
0.000174388
0.00134899
0.000190031
0.00119879
0.000203556
0.00103584
0.000214806
0.000861923
0.000223652
0.000679063
0.000229999
0.000489408
0.000233795
0.000296215
0.00010447
0.000234945
2.34194e-05
0.00194368
3.89521e-08
4.71765e-05
0.00189409
7.06463e-05
0.00183982
9.34426e-05
0.00177167
0.000115264
0.00168658
0.000135842
0.00158445
0.000154929
0.00146578
0.000172303
0.00133162
0.00018776
0.00118333
0.000201124
0.00102248
0.000212241
0.000850803
0.000220983
0.000670316
0.000227257
0.000483132
0.000231012
0.000292462
0.000103235
0.000232149
2.314e-05
0.0019205
3.84085e-08
4.66135e-05
0.00187062
6.98026e-05
0.00181663
9.23261e-05
0.00174914
0.000113887
0.00166502
0.000134218
0.00156412
0.000153077
0.00144692
0.000170242
0.00131446
0.000185515
0.00116806
0.00019872
0.00100928
0.000209706
0.000839833
0.000218346
0.000661694
0.000224548
0.000476958
0.000228261
0.000288806
0.000102214
0.000229389
2.28637e-05
0.00189761
3.79514e-08
4.60568e-05
0.00184743
6.89684e-05
0.00179373
9.12223e-05
0.0017269
0.000112525
0.00164372
0.000132612
0.00154404
0.000151246
0.0014283
0.000168206
0.0012975
0.000183297
0.00115298
0.000196346
0.000996232
0.000207202
0.000828975
0.000215741
0.000653151
0.000221872
0.000470827
0.000225545
0.000285137
0.000100999
0.000226661
2.25904e-05
0.00187498
3.75488e-08
4.55063e-05
0.00182451
6.81436e-05
0.00177108
9.01312e-05
0.00170491
0.000111179
0.00162267
0.000131026
0.00152419
0.000149436
0.00140989
0.000166195
0.00128075
0.000181106
0.00113807
0.000194
0.000983349
0.000204728
0.000818261
0.000213167
0.000644729
0.000219228
0.000464793
0.00022286
0.000281562
9.99838e-05
0.000223968
2.23203e-05
0.00185263
3.72029e-08
4.4962e-05
0.00180188
6.73283e-05
0.00174873
8.90527e-05
0.00168319
0.000109848
0.00160188
0.000129458
0.00150459
0.000147649
0.0013917
0.000164207
0.0012642
0.000178941
0.00112334
0.000191682
0.000970609
0.000202283
0.000807659
0.000210624
0.000636386
0.000216616
0.000458803
0.000220209
0.000277976
9.87915e-05
0.000221306
2.20532e-05
0.00183054
3.68886e-08
4.4424e-05
0.00177951
6.65224e-05
0.00172663
8.79868e-05
0.00166173
0.000108533
0.00158133
0.000127909
0.00148521
0.000145882
0.00137373
0.000162243
0.00124784
0.000176802
0.00110879
0.000189392
0.000958027
0.000199869
0.000797196
0.000208112
0.000628158
0.000214035
0.000452905
0.000217589
0.000274476
9.77821e-05
0.000218677
2.17892e-05
0.00180872
3.66114e-08
4.38922e-05
0.00175741
6.5726e-05
0.0017048
8.69334e-05
0.00164053
0.000107234
0.00156104
0.000126378
0.00146608
0.000144137
0.00135598
0.000160303
0.00123168
0.000174689
0.0010944
0.00018713
0.000945588
0.000197483
0.000786843
0.000205631
0.000620009
0.000211486
0.000447053
0.000215001
0.000270972
9.66147e-05
0.000216079
2.15282e-05
0.00178715
3.63468e-08
4.33666e-05
0.00173557
6.49389e-05
0.00168323
8.58925e-05
0.00161957
0.000105951
0.00154098
0.000124866
0.00144716
0.000142413
0.00133843
0.000158387
0.00121571
0.000172601
0.00108019
0.000184896
0.000933303
0.000195127
0.000776624
0.00020318
0.000611972
0.000208968
0.000441289
0.000212445
0.000267548
9.56125e-05
0.000213513
2.12704e-05
0.00176585
3.61029e-08
4.28472e-05
0.00171401
6.41611e-05
0.00166192
8.48641e-05
0.00159888
0.000104683
0.00152117
0.000123372
0.00142848
0.00014071
0.0013211
0.000156493
0.00119993
0.000170539
0.00106615
0.000182688
0.000921157
0.000192799
0.000766513
0.000200758
0.000604012
0.00020648
0.000435571
0.000209919
0.000264123
9.44713e-05
0.000210977
2.10156e-05
0.0017448
3.58605e-08
4.2334e-05
0.00169268
6.33926e-05
0.00164086
8.38479e-05
0.00157842
0.000103429
0.00150159
0.000121896
0.00141002
0.000139027
0.00130397
0.000154623
0.00118434
0.000168502
0.00105228
0.000180507
0.000909159
0.0001905
0.000756532
0.000198366
0.00059616
0.000204023
0.000429937
0.000207424
0.000260772
9.34775e-05
0.000208472
2.07638e-05
0.00172401
3.56308e-08
4.18268e-05
0.00167163
6.26333e-05
0.00162006
8.2844e-05
0.00155822
0.000102192
0.00148225
0.000120438
0.00139178
0.000137364
0.00128706
0.000152775
0.00116893
0.00016649
0.00103857
0.000178353
0.000897299
0.000188228
0.000746659
0.000196003
0.000588386
0.000201595
0.000424351
0.000204959
0.000257424
9.23634e-05
0.000205997
2.0515e-05
0.00170345
3.53937e-08
4.13258e-05
0.00165081
6.18831e-05
0.0015995
8.18521e-05
0.00153825
0.000100969
0.00146313
0.000118997
0.00137375
0.000135722
0.00127033
0.000150949
0.00115371
0.000164502
0.00102502
0.000176225
0.000885583
0.000185984
0.00073691
0.000193668
0.000580715
0.000199197
0.000418844
0.000202524
0.000254147
9.13792e-05
0.000203553
2.02692e-05
0.00168316
3.51623e-08
4.08308e-05
0.00163026
6.1142e-05
0.0015792
8.08722e-05
0.00151853
9.97604e-05
0.00144425
0.000117574
0.00135595
0.0001341
0.00125381
0.000149146
0.00113867
0.000162538
0.00101163
0.000174123
0.000874002
0.000183767
0.000727268
0.000191362
0.000573121
0.000196828
0.000413386
0.000200118
0.000250874
9.02923e-05
0.000201137
2.00264e-05
0.00166309
3.49203e-08
4.03417e-05
0.00160994
6.04098e-05
0.00155913
7.99041e-05
0.00149903
9.85668e-05
0.00142558
0.000116168
0.00133835
0.000132497
0.00123748
0.000147365
0.0011238
0.000160598
0.000998401
0.000172046
0.00086256
0.000181578
0.000717746
0.000189084
0.000565626
0.000194487
0.000408004
0.000197742
0.000247666
8.93183e-05
0.000198751
1.97865e-05
0.00164328
3.46834e-08
3.98585e-05
0.00158988
5.96865e-05
0.00153931
7.89478e-05
0.00147978
9.73878e-05
0.00140716
0.000114779
0.00132097
0.000130914
0.00122136
0.000145605
0.00110912
0.000158682
0.000985331
0.000169995
0.000851252
0.000179415
0.00070833
0.000186834
0.000558209
0.000192175
0.000402671
0.000195394
0.000244467
8.82584e-05
0.000196394
1.95495e-05
0.00162369
3.44327e-08
3.93812e-05
0.00157004
5.89719e-05
0.00151971
7.80031e-05
0.00146075
9.6223e-05
0.00138893
0.000113407
0.00130378
0.00012935
0.00120541
0.000143867
0.0010946
0.000156789
0.00097241
0.000167969
0.000840077
0.000177278
0.000699029
0.000184611
0.000550887
0.000189891
0.00039741
0.000193075
0.000241328
8.72954e-05
0.000194065
1.93154e-05
0.00160435
3.41853e-08
3.89096e-05
0.00155046
5.8266e-05
0.00150037
7.70699e-05
0.00144195
9.50724e-05
0.00137094
0.000112052
0.00128681
0.000127805
0.00118967
0.00014215
0.00108027
0.000154919
0.000959648
0.000165967
0.000829035
0.000175167
0.000689833
0.000182415
0.000543642
0.000187635
0.0003922
0.000190784
0.000238202
8.6262e-05
0.000191764
1.90841e-05
0.00158523
3.39246e-08
3.84438e-05
0.00153109
5.75686e-05
0.00148124
7.6148e-05
0.00142337
9.39358e-05
0.00135315
0.000110713
0.00127003
0.000126279
0.0011741
0.000140454
0.00106609
0.000153072
0.000947031
0.00016399
0.000818121
0.000173082
0.000680748
0.000180246
0.000536489
0.000185406
0.000387058
0.000188521
0.000235129
8.53102e-05
0.000189492
1.88556e-05
0.00156635
3.36695e-08
3.79836e-05
0.00151198
5.68798e-05
0.00146236
7.52373e-05
0.00140502
9.28131e-05
0.00133558
0.000109391
0.00125347
0.000124772
0.00115873
0.000138778
0.0010521
0.000151247
0.00093457
0.000162036
0.000807338
0.000171022
0.000671767
0.000178103
0.000529412
0.000183205
0.000381967
0.000186285
0.000232073
8.43026e-05
0.000187246
1.863e-05
0.00154768
3.34006e-08
3.7529e-05
0.00149307
5.61993e-05
0.00144368
7.43377e-05
0.00138688
9.1704e-05
0.00131821
0.000108084
0.00123708
0.000123283
0.00114353
0.000137123
0.00103825
0.000149445
0.000922249
0.000160107
0.000796679
0.000168988
0.000662893
0.000175986
0.000522423
0.00018103
0.000376941
0.000184077
0.000229067
8.33626e-05
0.000185029
1.8407e-05
0.00152925
3.31372e-08
3.70799e-05
0.00147441
5.55271e-05
0.00142524
7.34491e-05
0.00136897
9.06084e-05
0.00130106
0.000106794
0.00122091
0.000121812
0.00112852
0.000135488
0.00102459
0.000147664
0.000910081
0.000158201
0.000786149
0.000166978
0.000654122
0.000173895
0.00051551
0.000178881
0.000371967
0.000181895
0.00022608
8.238e-05
0.000182837
1.81868e-05
0.00151102
3.2862e-08
3.66363e-05
0.00145596
5.48631e-05
0.00140701
7.25712e-05
0.00135126
8.95261e-05
0.0012841
0.000105519
0.00120491
0.000120359
0.00111368
0.000133873
0.00101107
0.000145905
0.000898048
0.000156318
0.000775739
0.000164993
0.000645453
0.000171829
0.000508681
0.000176759
0.000367054
0.000179739
0.000223137
8.14517e-05
0.000180673
1.79692e-05
0.00149303
3.25961e-08
3.6198e-05
0.00143774
5.42071e-05
0.00138901
7.17041e-05
0.00133377
8.8457e-05
0.00126736
0.00010426
0.00118912
0.000118924
0.00109902
0.000132278
0.000997728
0.000144168
0.000886167
0.000154459
0.000765456
0.000163031
0.000636887
0.000169789
0.000501929
0.000174662
0.000362194
0.00017761
0.000220217
8.04932e-05
0.000178535
1.77543e-05
0.00147524
3.23182e-08
3.57652e-05
0.00141972
5.35591e-05
0.00137121
7.08475e-05
0.00131648
8.7401e-05
0.0012508
0.000103016
0.0011735
0.000117506
0.00108453
0.000130702
0.000984529
0.000142452
0.000874416
0.000152622
0.000755289
0.000161094
0.000628419
0.000167773
0.000495257
0.000172591
0.000357391
0.000175506
0.000217337
7.95769e-05
0.000176423
1.7542e-05
0.00145768
3.20503e-08
3.53375e-05
0.00140194
5.29191e-05
0.00135364
7.00013e-05
0.00129941
8.63578e-05
0.00123446
0.000101787
0.00115809
0.000116105
0.00107022
0.000129146
0.0009715
0.000140757
0.000862814
0.000150807
0.000745247
0.00015918
0.000620053
0.000165782
0.000488661
0.000170545
0.000352643
0.000173428
0.000214483
7.86418e-05
0.000174336
1.73322e-05
0.0014403
3.17723e-08
3.49151e-05
0.00138435
5.22868e-05
0.00133626
6.91655e-05
0.00128252
8.53273e-05
0.00121829
0.000100573
0.00114284
0.000114722
0.00105607
0.000127608
0.000958611
0.000139082
0.000851338
0.000149014
0.000735316
0.00015729
0.000611781
0.000163815
0.000482142
0.000168524
0.000347948
0.000171376
0.000211664
7.77373e-05
0.000172275
1.71251e-05
0.00142316
3.15075e-08
3.44978e-05
0.00136699
5.16622e-05
0.00131911
6.83398e-05
0.00126586
8.43094e-05
0.00120233
9.93745e-05
0.00112779
0.000113355
0.0010421
0.000126089
0.000945888
0.000137428
0.000840008
0.000147243
0.000725509
0.000155423
0.00060361
0.000161872
0.000475699
0.000166527
0.000343309
0.000169348
0.000208874
7.68246e-05
0.000170238
1.69204e-05
0.0014062
3.12325e-08
3.40856e-05
0.00134981
5.10452e-05
0.00130214
6.75242e-05
0.00124937
8.33038e-05
0.00118654
9.81901e-05
0.00111289
0.000112005
0.00102828
0.000124589
0.000933301
0.000135794
0.0008288
0.000145494
0.00071581
0.000153578
0.000595529
0.000159953
0.00046933
0.000164555
0.00033872
0.000167345
0.000206115
7.5932e-05
0.000168227
1.67182e-05
0.00138946
3.09712e-08
3.36784e-05
0.00133287
5.04357e-05
0.0012854
6.67185e-05
0.0012331
8.23105e-05
0.00117097
9.70202e-05
0.0010982
0.000110672
0.00101464
0.000123106
0.000920879
0.00013418
0.000817737
0.000143766
0.000706233
0.000151756
0.000587548
0.000158057
0.000463036
0.000162606
0.000334187
0.000165366
0.000203388
7.5041e-05
0.00016624
1.65185e-05
0.0013729
3.07013e-08
3.32761e-05
0.0013161
4.98336e-05
0.00126883
6.59226e-05
0.00121701
8.13293e-05
0.00115555
9.58645e-05
0.00108366
0.000109354
0.00100115
0.000121642
0.000908586
0.000132585
0.00080679
0.000142059
0.000696758
0.000149956
0.000579655
0.000156184
0.000456812
0.000160682
0.000329701
0.000163411
0.000200687
7.41601e-05
0.000164277
1.63212e-05
0.00135656
3.04483e-08
3.28787e-05
0.00129955
4.92389e-05
0.00125249
6.51364e-05
0.00120112
8.03601e-05
0.00114034
9.4723e-05
0.00106931
0.000108053
0.000987829
0.000120196
0.000896455
0.00013101
0.000795986
0.000140373
0.000687405
0.000148178
0.00057186
0.000154334
0.000450664
0.000158781
0.000325271
0.00016148
0.000198021
7.32897e-05
0.000162338
1.61263e-05
0.0013404
3.0186e-08
3.24862e-05
0.00128318
4.86514e-05
0.00123631
6.43598e-05
0.00118541
7.94026e-05
0.00112529
9.35953e-05
0.00105511
0.000106768
0.000974649
0.000118767
0.00088445
0.000129454
0.000785295
0.000138708
0.000678151
0.000146421
0.000564148
0.000152507
0.000444583
0.000156902
0.000320886
0.000159572
0.000195378
7.24204e-05
0.000160423
1.59337e-05
0.00132444
2.99407e-08
3.20984e-05
0.00126703
4.8071e-05
0.00122036
6.35926e-05
0.0011699
7.84568e-05
0.00111044
9.24814e-05
0.0010411
0.000105498
0.000961646
0.000117356
0.000872605
0.000127918
0.000774745
0.000137063
0.000669017
0.000144686
0.000556535
0.000150701
0.000438577
0.000155047
0.000316558
0.000157687
0.000192771
7.157e-05
0.000158531
1.57435e-05
0.00130866
2.9687e-08
3.17153e-05
0.00125105
4.74977e-05
0.00120456
6.28347e-05
0.00115455
7.75225e-05
0.00109574
9.1381e-05
0.00102723
0.000104244
0.000948775
0.000115962
0.00086088
0.000126399
0.000764302
0.000135438
0.000659977
0.000142973
0.000549001
0.000148918
0.000432634
0.000153214
0.000312271
0.000155826
0.000190184
7.07121e-05
0.000156662
1.55556e-05
0.00129309
2.94527e-08
3.13369e-05
0.00123528
4.69314e-05
0.00118898
6.20861e-05
0.00113941
7.65997e-05
0.00108124
9.0294e-05
0.00101355
0.000103005
0.000936078
0.000114585
0.000849313
0.0001249
0.000753999
0.000133832
0.000651056
0.00014128
0.000541564
0.000147157
0.000426768
0.000151404
0.000308041
0.000153987
0.000187636
6.98807e-05
0.000154816
1.537e-05
0.00127768
2.92093e-08
3.09631e-05
0.00121968
4.63719e-05
0.00117356
6.13466e-05
0.00112443
7.5688e-05
0.00106689
8.92203e-05
0.00100001
0.000101781
0.000923508
0.000113225
0.000837862
0.000123419
0.0007438
0.000132247
0.000642225
0.000139607
0.000534204
0.000145417
0.000420961
0.000149616
0.00030385
0.00015217
0.000185103
6.90341e-05
0.000152992
1.51866e-05
0.00126247
2.89849e-08
3.05938e-05
0.00120429
4.58193e-05
0.00115835
6.06161e-05
0.00110965
7.47874e-05
0.00105273
8.81597e-05
0.000986655
0.000100572
0.00091111
0.000111882
0.000826567
0.000121955
0.000733738
0.00013068
0.000633513
0.000137955
0.00052694
0.000143698
0.00041523
0.000147849
0.000299718
0.000150376
0.000182612
6.82211e-05
0.00015119
1.50055e-05
0.00124743
2.87519e-08
3.0229e-05
0.00118905
4.52733e-05
0.0011433
5.98944e-05
0.00109502
7.38978e-05
0.00103872
8.71119e-05
0.000973431
9.93779e-05
0.000898834
0.000110554
0.000815382
0.00012051
0.000723775
0.000129133
0.000624886
0.000136324
0.000519749
0.000142
0.000409555
0.000146104
0.00029562
0.000148603
0.000180132
6.73854e-05
0.000149411
1.48265e-05
0.00123259
2.85403e-08
2.98687e-05
0.00117402
4.4734e-05
0.00112845
5.91816e-05
0.00108058
7.30191e-05
0.00102489
8.6077e-05
0.000960389
9.81984e-05
0.000886727
0.000109243
0.000804352
0.000119082
0.000713949
0.000127605
0.000616377
0.000134712
0.000512654
0.000140323
0.000403956
0.00014438
0.000291582
0.000146852
0.000177697
6.65898e-05
0.000147653
1.46497e-05
0.0012179
2.83188e-08
2.95127e-05
0.00115915
4.42013e-05
0.00111374
5.84774e-05
0.0010663
7.2151e-05
0.00101121
8.50546e-05
0.000947475
9.70331e-05
0.000874737
0.000107948
0.000793428
0.000117672
0.000704217
0.000126095
0.00060795
0.00013312
0.000505629
0.000138666
0.00039841
0.000142678
0.000287576
0.000145122
0.000175269
6.57649e-05
0.000145917
1.4475e-05
0.00120341
2.81179e-08
2.9161e-05
0.00114448
4.3675e-05
0.00109925
5.77818e-05
0.00105221
7.12935e-05
0.000997712
8.40448e-05
0.00093474
9.58821e-05
0.000862915
0.000106669
0.000782656
0.000116279
0.00069462
0.000124604
0.000599639
0.000131547
0.000498699
0.000137029
0.000392941
0.000140996
0.00028363
0.000143413
0.000172888
6.49862e-05
0.000144201
1.43025e-05
0.00118906
2.79073e-08
2.88136e-05
0.00112995
4.31551e-05
0.00108489
5.70946e-05
0.00103825
7.04464e-05
0.000984347
8.30472e-05
0.000922128
9.47452e-05
0.000851205
0.000105405
0.000771986
0.000114903
0.000685115
0.00012313
0.000591407
0.000129993
0.000491834
0.000135413
0.000387521
0.000139334
0.000279713
0.000141725
0.000170511
6.41718e-05
0.000142507
1.4132e-05
0.00117492
2.77188e-08
2.84704e-05
0.00111563
4.26415e-05
0.00107074
5.64158e-05
0.0010245
6.96097e-05
0.000971169
8.20618e-05
0.000909692
9.36221e-05
0.00083966
0.000104157