/*--------------------------------*- C++ -*----------------------------------*\
  =========                 |
  \\      /  F ield         | OpenFOAM: The Open Source CFD Toolbox
   \\    /   O peration     | Website:  https://openfoam.org
    \\  /    A nd           | Version:  6.0
     \\/     M anipulation  |
\*---------------------------------------------------------------------------*/
FoamFile
{
    version     2.0;
    format      ascii;
    class       volVectorField;
    location    "12";
    object      U;
}
// * * * * * * * * * * * * * * * * * * * * * * * * * * * * * * * * * * * * * //

dimensions      [0 1 -1 0 0 0 0];

internalField   nonuniform List<vector> 
34500
(
(0.999999 -2.39204e-05 -9.39729e-18)
(0.999983 4.8992e-05 9.02005e-17)
(0.999923 7.24071e-05 2.28916e-17)
(0.999828 -2.25547e-05 -1.34868e-17)
(0.999753 -0.000164159 1.32131e-16)
(0.999705 -0.000256237 3.05232e-16)
(0.999635 -0.000330403 1.52634e-17)
(0.999506 -0.000494278 -2.40418e-16)
(0.999352 -0.000802703 3.7106e-16)
(0.999237 -0.00122415 -2.18623e-17)
(0.999203 -0.00169016 -2.82268e-16)
(0.999255 -0.00220025 -4.64622e-16)
(0.999357 -0.00264213 2.16579e-16)
(1.00052 -0.00340398 4.45194e-16)
(0.98809 -0.00848562 -4.04623e-16)
(1.00001 9.14528e-05 -2.97548e-17)
(0.99995 0.000252403 -8.02473e-17)
(0.999802 0.000138824 1.89298e-16)
(0.999639 -0.000194362 -1.04827e-16)
(0.999576 -0.000441202 -6.8626e-17)
(0.999544 -0.000466514 -5.98944e-16)
(0.999413 -0.000494084 9.86872e-17)
(0.999138 -0.000796678 1.59707e-16)
(0.998819 -0.00144618 -2.77125e-16)
(0.9986 -0.00232218 -4.55174e-16)
(0.998547 -0.00325905 -1.93238e-16)
(0.998684 -0.00424391 -3.97321e-16)
(0.998814 -0.00508332 -3.08256e-16)
(1.00108 -0.00603925 -5.89136e-16)
(0.989068 -0.0110856 7.20672e-16)
(1.00003 0.000210344 -2.21669e-17)
(0.99996 0.000366095 9.82911e-17)
(0.999796 9.15319e-05 3.51969e-17)
(0.999658 -0.000378992 -4.56528e-17)
(0.999688 -0.00057335 -1.09431e-16)
(0.999774 -0.000384927 6.47307e-17)
(0.999758 -0.000172197 -5.75633e-17)
(0.999553 -0.000316562 -8.91031e-17)
(0.999269 -0.000892795 4.64262e-16)
(0.999049 -0.00176405 -2.57229e-16)
(0.998974 -0.00270187 3.57028e-16)
(0.999103 -0.0036801 5.1994e-16)
(0.999083 -0.0045103 -3.47092e-16)
(1.00117 -0.00506577 3.16025e-16)
(0.993936 -0.00738653 -5.27605e-17)
(1.00006 0.000276996 3.99684e-18)
(0.999968 0.000357978 -1.63044e-16)
(0.999764 -6.15483e-05 -1.63869e-16)
(0.999587 -0.000617919 7.4119e-17)
(0.999612 -0.000768057 -2.74128e-16)
(0.999751 -0.000445429 1.37877e-16)
(0.999848 -7.24974e-05 3.35996e-16)
(0.999771 -7.98827e-05 -2.47359e-16)
(0.999592 -0.000546425 -9.73393e-16)
(0.999431 -0.00134651 3.16522e-16)
(0.999364 -0.00223281 -4.91265e-17)
(0.99949 -0.00317559 2.69803e-16)
(0.999347 -0.00404079 4.35009e-16)
(1.00095 -0.00439004 -2.60265e-16)
(0.995952 -0.00602856 -2.00641e-16)
(1.00009 0.000297969 4.85213e-17)
(0.999961 0.000282821 9.30415e-17)
(0.999684 -0.000243707 -1.19577e-16)
(0.999387 -0.000857335 5.03536e-17)
(0.999288 -0.001022 3.36827e-16)
(0.999359 -0.000711597 4.31979e-16)
(0.999481 -0.000357109 -8.70491e-16)
(0.999498 -0.000379033 3.36745e-16)
(0.999436 -0.000846853 9.28219e-16)
(0.999379 -0.00164372 -3.88021e-16)
(0.999379 -0.00252994 -1.13722e-16)
(0.999567 -0.00347657 -3.0104e-17)
(0.999426 -0.00439492 -2.69374e-16)
(1.00064 -0.00464308 5.94961e-16)
(0.996897 -0.00581444 -3.92416e-16)
(1.00011 0.000292223 2.81686e-17)
(0.999965 0.000195919 3.48009e-17)
(0.999629 -0.000381365 1.2604e-16)
(0.999209 -0.00100722 -1.45227e-16)
(0.998945 -0.00120521 -6.51247e-17)
(0.998888 -0.000989795 -4.06666e-16)
(0.998971 -0.000765185 3.22111e-16)
(0.999044 -0.00089978 -8.17452e-17)
(0.999089 -0.0014364 -3.71882e-16)
(0.999156 -0.00225832 7.46952e-16)
(0.99926 -0.00314101 1.42719e-16)
(0.99955 -0.00405385 4.00227e-17)
(0.999502 -0.0049281 4.22921e-16)
(1.00044 -0.004989 -1.20862e-15)
(0.997875 -0.00531586 4.57034e-16)
(1.00012 0.000272508 -4.90219e-17)
(0.999996 0.000124812 5.52708e-17)
(0.999656 -0.000442789 9.72053e-17)
(0.99917 -0.00102314 2.73697e-16)
(0.998782 -0.00122971 7.59774e-17)
(0.998603 -0.00111843 3.45067e-16)
(0.998629 -0.00104929 -1.48325e-16)
(0.998731 -0.00131851 -6.37017e-16)
(0.998863 -0.00193046 -5.76832e-16)
(0.999041 -0.002763 -7.9277e-16)
(0.999246 -0.00360627 -3.37115e-16)
(0.999632 -0.00442755 1.29132e-17)
(0.999695 -0.00516939 -3.11648e-16)
(1.00042 -0.00497958 1.02906e-15)
(0.998864 -0.00449754 -1.34234e-16)
(1.00012 0.000245801 -3.19377e-17)
(1.00005 7.69098e-05 -2.24555e-17)
(0.999765 -0.000432366 -4.5157e-17)
(0.999287 -0.000918978 -1.46864e-16)
(0.99884 -0.00109794 1.08334e-16)
(0.998584 -0.00106577 3.95974e-18)
(0.998563 -0.00113278 1.05324e-16)
(0.998679 -0.00151934 6.85586e-16)
(0.99887 -0.00218742 5.60605e-17)
(0.99913 -0.00300831 -3.10649e-16)
(0.999408 -0.00378607 4.31023e-16)
(0.999855 -0.00448967 -3.94781e-17)
(1 -0.00507851 -7.59971e-18)
(1.00053 -0.00466913 1.84366e-16)
(0.99968 -0.00363277 -3.87739e-16)
(1.00013 0.000216724 -2.7631e-18)
(1.00013 5.07529e-05 -1.18593e-16)
(0.999921 -0.000371505 -2.70997e-17)
(0.999506 -0.000739216 1.89156e-16)
(0.999065 -0.000866751 -1.44232e-16)
(0.998777 -0.000886398 2.29464e-16)
(0.99873 -0.00105952 1.50737e-16)
(0.998854 -0.00153648 1.01072e-17)
(0.999081 -0.00223975 1.38791e-16)
(0.999391 -0.0030357 3.53835e-17)
(0.99971 -0.00374306 -4.07924e-16)
(1.00018 -0.00433677 2.52989e-16)
(1.00037 -0.00479957 -1.59496e-16)
(1.00072 -0.0042485 -8.15803e-16)
(1.00027 -0.00288415 4.86303e-16)
(1.00013 0.000188463 9.08242e-17)
(1.00019 4.14984e-05 7.25608e-17)
(1.00009 -0.000284925 -3.22918e-17)
(0.99976 -0.000533134 -1.6297e-16)
(0.999367 -0.000604781 -1.64817e-16)
(0.999089 -0.00065971 -6.2913e-16)
(0.999038 -0.000913721 4.44325e-16)
(0.999169 -0.00145754 9.30738e-18)
(0.999417 -0.00218093 7.67303e-16)
(0.99975 -0.00294847 7.76774e-16)
(1.00008 -0.00359467 -2.23735e-16)
(1.00054 -0.00410279 -6.67188e-17)
(1.00075 -0.00447971 3.8815e-16)
(1.00093 -0.00385902 6.79793e-16)
(1.00066 -0.00231361 -5.21247e-16)
(1.00013 0.00016316 -2.6473e-17)
(1.00025 4.30477e-05 4.94808e-17)
(1.00023 -0.000194228 2.12831e-17)
(0.999998 -0.000340628 -4.10202e-17)
(0.999675 -0.0003681 -1.39844e-16)
(0.999433 -0.000453806 -1.99838e-17)
(0.999397 -0.000771895 -4.70621e-16)
(0.999539 -0.0013652 -6.60083e-16)
(0.999798 -0.00209914 -8.26326e-16)
(1.00014 -0.00283999 -4.88727e-16)
(1.00047 -0.00343836 2.79338e-16)
(1.0009 -0.00388594 -3.28177e-16)
(1.00111 -0.00420904 -2.38494e-16)
(1.00115 -0.00356387 -8.88213e-16)
(1.00092 -0.00191522 2.94532e-16)
(1.00013 0.000141846 -7.42166e-17)
(1.00029 4.94955e-05 -1.10674e-16)
(1.00033 -0.000115265 -5.35756e-18)
(1.00019 -0.000188179 9.55594e-17)
(0.999943 -0.000192688 1.23658e-16)
(0.999752 -0.000312859 -1.60431e-16)
(0.999745 -0.000685119 -1.71978e-16)
(0.999904 -0.00131565 2.14465e-16)
(1.00017 -0.00205378 1.04238e-15)
(1.00051 -0.00277055 -9.78375e-17)
(1.00083 -0.00333223 -1.55732e-16)
(1.00123 -0.00373753 2.75031e-16)
(1.00143 -0.00402515 4.32296e-18)
(1.00137 -0.00337482 2.28216e-16)
(1.0011 -0.00165983 4.83e-17)
(1.00013 0.00012475 1.06949e-16)
(1.0003 5.56742e-05 7.02812e-17)
(1.00039 -5.82781e-05 -1.82483e-16)
(1.00032 -8.94555e-05 -7.3927e-17)
(1.00015 -9.53081e-05 5.39651e-18)
(1.00002 -0.000257371 3.03607e-16)
(1.00005 -0.000677955 4.13523e-16)
(1.00023 -0.0013365 3.05677e-16)
(1.00051 -0.00207357 -4.90276e-16)
(1.00085 -0.00276736 6.63499e-16)
(1.00115 -0.00329881 -2.11135e-16)
(1.00151 -0.00367151 1.66686e-16)
(1.00171 -0.00392961 7.78619e-16)
(1.00157 -0.003276 -2.43921e-17)
(1.00123 -0.0015041 1.68481e-18)
(1.00013 0.000111383 -6.23558e-18)
(1.0003 5.75081e-05 -6.07752e-17)
(1.00042 -2.85908e-05 2.49954e-16)
(1.0004 -4.85037e-05 1.06718e-16)
(1.00029 -7.83827e-05 -4.04586e-17)
(1.00022 -0.000289769 3.44162e-16)
(1.00029 -0.000754436 -7.0774e-16)
(1.0005 -0.0014333 -4.47782e-16)
(1.00079 -0.0021641 -3.82943e-16)
(1.00113 -0.00283396 -5.57959e-16)
(1.00142 -0.0033371 3.31182e-16)
(1.00176 -0.00368008 -1.42259e-16)
(1.00195 -0.00390713 -1.04221e-15)
(1.00175 -0.00324316 4.67112e-16)
(1.00134 -0.0014141 1.01093e-16)
(1.00013 0.000100944 -3.5217e-17)
(1.00029 5.18881e-05 2.32741e-17)
(1.00042 -2.80751e-05 -3.04418e-17)
(1.00043 -6.26963e-05 -1.85781e-16)
(1.00038 -0.000134919 1.41009e-17)
(1.00037 -0.000400984 1.80945e-16)
(1.00049 -0.000905503 3.19038e-16)
(1.00072 -0.00159754 4.67515e-16)
(1.00103 -0.00231663 2.19647e-16)
(1.00137 -0.00295988 -1.99988e-16)
(1.00166 -0.00343338 3.12157e-17)
(1.00197 -0.00374514 2.21501e-16)
(1.00216 -0.00393582 -1.23761e-16)
(1.00193 -0.00325139 -5.49193e-16)
(1.00146 -0.00135823 1.78064e-17)
(1.00013 9.2377e-05 -2.60381e-17)
(1.00027 3.68813e-05 1.11328e-17)
(1.0004 -5.59528e-05 6.08643e-17)
(1.00043 -0.000125711 7.44077e-17)
(1.00043 -0.000253109 -1.05674e-16)
(1.00047 -0.000576064 -6.93166e-16)
(1.00063 -0.00111551 -2.04735e-16)
(1.0009 -0.00181386 -3.43269e-16)
(1.00122 -0.00251575 -5.95834e-16)
(1.00157 -0.00312884 6.50569e-16)
(1.00185 -0.00356971 3.76067e-16)
(1.00215 -0.00384691 -4.07452e-16)
(1.00234 -0.00399546 1.04486e-15)
(1.00209 -0.003281 2.08968e-16)
(1.00158 -0.00131901 6.84518e-17)
(1.00013 8.46278e-05 1.62536e-17)
(1.00024 1.14441e-05 -8.03857e-17)
(1.00036 -0.000109938 -3.35434e-16)
(1.00041 -0.000229251 7.87205e-17)
(1.00045 -0.000419214 3.32407e-16)
(1.00054 -0.000798208 2.96424e-17)
(1.00074 -0.00136685 6.35457e-17)
(1.00104 -0.00206491 -1.26501e-17)
(1.00138 -0.00274441 7.2719e-16)
(1.00174 -0.00332367 -1.89416e-16)
(1.00202 -0.00372851 -5.10928e-16)
(1.00231 -0.00396745 -1.08515e-16)
(1.0025 -0.00406892 -4.57224e-17)
(1.00223 -0.00331686 2.25327e-16)
(1.0017 -0.00128023 -3.67977e-16)
(1.00013 7.6691e-05 2.15893e-17)
(1.00021 -2.44844e-05 5.87575e-17)
(1.00032 -0.000186577 2.20226e-16)
(1.00039 -0.000364646 -1.96745e-16)
(1.00046 -0.000619817 -2.03802e-16)
(1.00059 -0.00105131 1.09609e-16)
(1.00083 -0.00164287 2.10572e-16)
(1.00116 -0.00233451 4.16357e-16)
(1.00152 -0.00298715 -5.55074e-16)
(1.00189 -0.00352941 1.1943e-17)
(1.00217 -0.00389531 -1.64495e-16)
(1.00245 -0.00409309 1.62107e-17)
(1.00265 -0.00414442 -2.10888e-16)
(1.00237 -0.00334967 6.42959e-17)
(1.00183 -0.00123721 6.10079e-16)
(1.00012 6.77901e-05 -2.77842e-18)
(1.00018 -7.04017e-05 1.01048e-16)
(1.00028 -0.000282041 -1.00012e-16)
(1.00036 -0.000523417 2.76847e-16)
(1.00046 -0.000842699 9.73041e-17)
(1.00062 -0.00132134 1.56041e-16)
(1.0009 -0.00192935 2.93896e-16)
(1.00125 -0.00260918 -6.56013e-16)
(1.00163 -0.00323136 1.50321e-16)
(1.00201 -0.00373434 -4.30843e-17)
(1.0023 -0.0040593 4.63733e-16)
(1.00258 -0.00421412 -2.77998e-16)
(1.00278 -0.00421385 -1.34453e-16)
(1.0025 -0.00337357 -4.62443e-17)
(1.00195 -0.00118336 -1.33568e-16)
(1.0001 5.73654e-05 -3.16304e-17)
(1.00015 -0.000125137 -2.40983e-17)
(1.00025 -0.000392162 3.18241e-16)
(1.00033 -0.000698005 -2.10756e-16)
(1.00046 -0.00107763 1.4912e-16)
(1.00065 -0.00159689 -2.7647e-16)
(1.00096 -0.00221513 -5.92694e-17)
(1.00134 -0.00287866 4.79694e-16)
(1.00173 -0.00346787 2.30183e-16)
(1.00212 -0.00393033 3.39836e-16)
(1.00241 -0.00421344 -5.80094e-16)
(1.00269 -0.00432483 6.46022e-16)
(1.0029 -0.00427327 -1.69742e-16)
(1.00261 -0.0033865 -1.58832e-16)
(1.00208 -0.00112082 -1.09033e-16)
(1.00008 4.51238e-05 4.08738e-17)
(1.00011 -0.000187287 1.22489e-17)
(1.00021 -0.00051299 -3.7771e-16)
(1.0003 -0.000881699 -1.55994e-17)
(1.00045 -0.00131619 -1.20949e-16)
(1.00068 -0.00186919 2.25231e-16)
(1.00102 -0.00249197 -9.73302e-17)
(1.00141 -0.00313567 -1.97679e-16)
(1.00182 -0.00369045 3.10545e-16)
(1.00222 -0.00411217 -7.06716e-17)
(1.00251 -0.00435356 7.37638e-16)
(1.00279 -0.00442205 -7.54617e-16)
(1.00301 -0.00432047 2.30109e-16)
(1.00272 -0.00338746 -7.61775e-17)
(1.0022 -0.00104673 -1.56222e-16)
(1.00005 3.10015e-05 -5.49571e-18)
(1.00008 -0.000255089 -1.72026e-16)
(1.00017 -0.00064064 1.46381e-16)
(1.00028 -0.00106897 5.52226e-17)
(1.00045 -0.00155196 -7.43406e-17)
(1.00071 -0.00213184 -7.46717e-17)
(1.00107 -0.00275423 1.6731e-16)
(1.00148 -0.00337561 3.42365e-16)
(1.0019 -0.00389549 -3.71617e-16)
(1.0023 -0.00427715 -7.77891e-17)
(1.0026 -0.00447783 -4.07829e-16)
(1.00288 -0.00450484 7.5512e-16)
(1.00311 -0.00435548 -8.30276e-17)
(1.00282 -0.00337732 -4.22611e-17)
(1.00232 -0.000965388 1.47628e-16)
(1.00001 1.51358e-05 5.96485e-18)
(1.00004 -0.00032686 1.09895e-16)
(1.00014 -0.000771747 -5.27929e-18)
(1.00026 -0.00125516 1.23537e-16)
(1.00046 -0.00178 -1.57162e-16)
(1.00073 -0.00238045 5.51825e-17)
(1.00111 -0.00299839 -5.45985e-17)
(1.00154 -0.00359589 -2.85504e-16)
(1.00197 -0.00408126 7.75815e-17)
(1.00238 -0.00442425 -3.00811e-16)
(1.00268 -0.0045859 9.23194e-17)
(1.00296 -0.00457335 -4.16701e-16)
(1.0032 -0.00437871 -5.3039e-17)
(1.00291 -0.0033569 8.3343e-17)
(1.00244 -0.00087466 -1.37194e-16)
(0.999969 -2.18722e-06 -2.97625e-17)
(1 -0.000400808 -2.78945e-17)
(1.00011 -0.000903224 -8.37417e-18)
(1.00024 -0.00143676 -1.75664e-16)
(1.00046 -0.00199695 -7.40413e-18)
(1.00075 -0.0026123 1.19575e-16)
(1.00115 -0.00322266 2.16209e-17)
(1.00159 -0.00379559 2.92148e-16)
(1.00203 -0.00424754 -1.14991e-16)
(1.00245 -0.00455384 4.2178e-16)
(1.00275 -0.00467858 -5.32971e-17)
(1.00303 -0.00462883 -2.88734e-18)
(1.00327 -0.00439184 -1.5231e-16)
(1.00299 -0.00332816 -3.55108e-16)
(1.00254 -0.000779619 1.60799e-16)
(0.999921 -2.05954e-05 2.50753e-17)
(0.999958 -0.000475419 8.64878e-17)
(1.00007 -0.00103263 3.17394e-17)
(1.00022 -0.00161094 -3.29983e-17)
(1.00046 -0.00220044 3.35026e-16)
(1.00077 -0.00282592 -7.20194e-17)
(1.00118 -0.00342644 -3.08902e-16)
(1.00164 -0.00397482 -1.6348e-16)
(1.00208 -0.00439496 1.77856e-16)
(1.0025 -0.0046669 -4.57299e-16)
(1.00281 -0.00475716 -2.30828e-16)
(1.00309 -0.00467263 -7.22123e-17)
(1.00335 -0.004396 2.90849e-16)
(1.00306 -0.00329218 -1.51016e-16)
(1.00265 -0.00067825 -1.26926e-16)
(0.999867 -3.96545e-05 -5.22693e-17)
(0.99991 -0.000549199 -5.41101e-17)
(1.00003 -0.00115781 -1.03409e-16)
(1.00019 -0.0017758 2.3905e-17)
(1.00045 -0.00238919 5.25769e-17)
(1.00079 -0.0030208 -8.92803e-17)
(1.00121 -0.00361001 -3.23325e-17)
(1.00167 -0.00413447 -3.19213e-17)
(1.00213 -0.0045248 3.43229e-17)
(1.00255 -0.00476491 1.08105e-16)
(1.00286 -0.00482325 4.97259e-16)
(1.00315 -0.00470643 1.89062e-16)
(1.00341 -0.00439294 -1.70825e-16)
(1.00313 -0.00325059 3.18623e-16)
(1.00274 -0.000574931 5.76502e-17)
(0.999808 -5.8948e-05 3.58694e-17)
(0.999859 -0.000621035 -1.17269e-16)
(0.999989 -0.0012773 1.28763e-16)
(1.00017 -0.00192994 -1.39498e-16)
(1.00044 -0.0025625 -1.0701e-16)
(1.00079 -0.00319714 -9.93169e-17)
(1.00123 -0.00377423 -4.09514e-17)
(1.0017 -0.00427582 -1.17176e-16)
(1.00216 -0.00463858 -2.13172e-16)
(1.00259 -0.00484949 2.2395e-16)
(1.00291 -0.00487843 -2.86495e-16)
(1.0032 -0.00473166 -2.49034e-16)
(1.00346 -0.00438366 1.73062e-16)
(1.00319 -0.00320421 -1.77619e-16)
(1.00284 -0.000466393 -8.25064e-17)
(0.999744 -7.80668e-05 1.09506e-17)
(0.999803 -0.000689894 -1.66838e-17)
(0.999943 -0.00138985 -4.03127e-17)
(1.00014 -0.00207269 3.72475e-17)
(1.00043 -0.00272038 -1.21229e-16)
(1.0008 -0.00335565 9.28898e-17)
(1.00124 -0.00392039 3.1511e-16)
(1.00172 -0.00440053 4.41169e-16)
(1.00219 -0.00473807 -1.15303e-16)
(1.00262 -0.00492242 -2.49732e-16)
(1.00294 -0.00492442 -1.28191e-16)
(1.00324 -0.00474997 1.98655e-16)
(1.00351 -0.00436979 -2.433e-16)
(1.00324 -0.00315457 7.89775e-16)
(1.00293 -0.000356523 3.50901e-16)
(0.999676 -9.66845e-05 -4.42167e-17)
(0.999742 -0.000755144 7.17683e-17)
(0.999893 -0.00149484 1.06977e-16)
(1.00011 -0.00220368 1.14569e-16)
(1.00041 -0.00286317 -1.41653e-16)
(1.00079 -0.00349735 -2.79051e-17)
(1.00125 -0.00404996 7.21723e-17)
(1.00173 -0.00451025 1.85022e-17)
(1.0022 -0.00482496 3.48019e-16)
(1.00264 -0.00498529 2.19893e-16)
(1.00297 -0.00496268 3.91199e-16)
(1.00327 -0.00476255 5.23935e-17)
(1.00356 -0.00435209 8.84242e-17)
(1.00329 -0.00310202 -3.57458e-16)
(1.00301 -0.000243386 -3.35232e-16)
(0.999604 -0.000114501 1.88396e-17)
(0.999678 -0.000816201 4.86393e-17)
(0.999838 -0.00159178 -2.07129e-16)
(1.00007 -0.00232305 1.9078e-16)
(1.00039 -0.00299162 1.54553e-16)
(1.00078 -0.00362352 2.97435e-16)
(1.00124 -0.00416453 -5.75741e-17)
(1.00173 -0.00460673 -3.24033e-17)
(1.00221 -0.00490095 -1.1209e-16)
(1.00266 -0.00503966 6.53505e-17)
(1.00299 -0.00499457 -6.86746e-16)
(1.0033 -0.00477064 5.35759e-16)
(1.0036 -0.0043317 -5.04589e-17)
(1.00334 -0.00304765 -5.07193e-16)
(1.00309 -0.000128924 2.57468e-16)
(0.999528 -0.00013133 3.35016e-17)
(0.999608 -0.000872855 7.08701e-17)
(0.999778 -0.00168066 2.26054e-16)
(1.00002 -0.00243112 -3.20788e-16)
(1.00036 -0.00310658 2.54992e-17)
(1.00076 -0.00373549 -2.2889e-16)
(1.00123 -0.0042657 2.23735e-17)
(1.00173 -0.00469156 -4.40248e-16)
(1.00222 -0.00496752 2.97238e-16)
(1.00267 -0.00508686 -3.58954e-16)
(1.00301 -0.00502124 5.18978e-16)
(1.00332 -0.00477507 -5.95543e-16)
(1.00363 -0.00430903 -2.94821e-16)
(1.00339 -0.00299187 2.08196e-16)
(1.00318 -8.55587e-06 -2.0568e-16)
(0.999449 -0.000147006 -3.96254e-17)
(0.999535 -0.000924903 -3.37318e-17)
(0.999714 -0.00176152 -3.97596e-17)
(0.999972 -0.00252853 1.24874e-17)
(1.00032 -0.00320919 -1.87998e-17)
(1.00073 -0.00383472 -2.73826e-16)
(1.00121 -0.00435506 -2.55605e-16)
(1.00172 -0.00476638 1.73879e-16)
(1.00221 -0.0050262 8.29997e-17)
(1.00267 -0.00512821 5.44424e-16)
(1.00302 -0.00504383 -4.06747e-16)
(1.00334 -0.00477686 1.0532e-16)
(1.00366 -0.00428513 3.9094e-17)
(1.00343 -0.00293564 -8.31553e-17)
(1.00325 0.00011483 3.09957e-16)
(0.999367 -0.000161484 2.33173e-17)
(0.999457 -0.00097247 -3.98536e-17)
(0.999645 -0.0018348 1.64092e-17)
(0.999917 -0.00261597 1.64192e-16)
(1.00028 -0.00330053 8.02395e-17)
(1.0007 -0.00392262 4.16336e-16)
(1.00119 -0.00443414 8.35687e-17)
(1.0017 -0.00483261 -7.35405e-17)
(1.0022 -0.00507823 -2.5727e-16)
(1.00267 -0.00516478 -3.52907e-16)
(1.00302 -0.00506321 3.08969e-16)
(1.00336 -0.00477661 2.48628e-17)
(1.00369 -0.00426026 1.53503e-16)
(1.00347 -0.00287884 1.74921e-16)
(1.00333 0.000242624 -7.15463e-17)
(0.999282 -0.000174712 -2.91409e-17)
(0.999376 -0.0010156 -1.0436e-16)
(0.999572 -0.00190085 -6.58276e-17)
(0.999857 -0.00269435 1.16178e-16)
(1.00023 -0.00338186 7.51593e-17)
(1.00066 -0.00400058 4.89928e-17)
(1.00116 -0.00450436 1.94162e-17)
(1.00167 -0.0048916 3.33176e-16)
(1.00218 -0.00512483 1.11583e-16)
(1.00266 -0.00519756 -2.35442e-16)
(1.00303 -0.00508018 -4.73739e-17)
(1.00337 -0.00477502 -2.44852e-16)
(1.00372 -0.00423509 -2.25784e-16)
(1.00352 -0.00282211 5.59852e-17)
(1.00341 0.000372903 -1.13705e-16)
(0.999194 -0.000186749 2.36086e-17)
(0.999291 -0.00105463 1.2707e-16)
(0.999495 -0.00196033 -7.50529e-17)
(0.999792 -0.00276448 -5.36653e-17)
(1.00017 -0.00345425 7.55066e-17)
(1.00062 -0.0040699 -4.86666e-17)
(1.00112 -0.00456701 -7.87343e-17)
(1.00165 -0.00494451 -2.05724e-16)
(1.00216 -0.00516696 4.46759e-17)
(1.00264 -0.00522734 5.14516e-16)
(1.00303 -0.00509535 1.72964e-16)
(1.00338 -0.00477247 4.60342e-16)
(1.00375 -0.00420967 1.95078e-16)
(1.00356 -0.00276528 2.70291e-16)
(1.00348 0.000507378 2.40555e-17)
(0.999104 -0.000197624 2.83969e-17)
(0.999203 -0.00108976 3.53178e-17)
(0.999415 -0.00201375 9.17471e-17)
(0.999723 -0.00282737 -1.63323e-16)
(1.00012 -0.00351894 -4.17825e-16)
(1.00057 -0.00413185 -7.09022e-17)
(1.00108 -0.00462332 -3.41267e-18)
(1.00161 -0.00499249 4.49545e-17)
(1.00214 -0.00520561 2.34292e-17)
(1.00263 -0.00525494 -3.22789e-16)
(1.00302 -0.0051094 1.92614e-16)
(1.00339 -0.00476959 -3.11984e-16)
(1.00377 -0.00418472 -1.01356e-16)
(1.0036 -0.00270919 -3.3356e-16)
(1.00355 0.000643777 -1.86111e-17)
(0.999012 -0.00020747 -3.95714e-17)
(0.999113 -0.00112144 -6.76778e-17)
(0.999331 -0.00206187 -6.01039e-17)
(0.999651 -0.00288386 -3.08651e-17)
(1.00005 -0.00357695 6.22639e-17)
(1.00051 -0.00418757 -1.6463e-16)
(1.00103 -0.00467439 6.98509e-17)
(1.00157 -0.00503649 1.83477e-16)
(1.00211 -0.00524155 -2.43705e-16)
(1.00261 -0.00528098 1.05998e-16)
(1.00302 -0.00512278 1.17214e-16)
(1.0034 -0.00476665 9.02777e-17)
(1.0038 -0.00416023 6.36995e-16)
(1.00365 -0.00265366 3.32144e-17)
(1.00362 0.000780899 -1.52746e-16)
(0.998918 -0.000216351 9.55729e-18)
(0.99902 -0.00114993 -3.83099e-18)
(0.999244 -0.00210524 -6.64823e-17)
(0.999574 -0.00293489 2.63239e-16)
(0.999985 -0.00362935 7.96059e-18)
(1.00045 -0.00423811 1.72969e-16)
(1.00098 -0.00472121 -9.59349e-17)
(1.00153 -0.00507738 -4.92242e-16)
(1.00208 -0.00527552 2.27076e-16)
(1.00259 -0.00530603 1.46654e-17)
(1.00301 -0.00513594 -5.48788e-16)
(1.0034 -0.00476409 3.59552e-18)
(1.00382 -0.00413671 -4.08447e-16)
(1.00369 -0.00259876 2.19774e-16)
(1.00369 0.000915477 5.40577e-17)
(0.998822 -0.000224433 1.33913e-17)
(0.998924 -0.00117571 -9.76918e-18)
(0.999155 -0.00214457 1.59009e-16)
(0.999495 -0.0029812 -1.04295e-16)
(0.999914 -0.003677 -1.6128e-16)
(1.00039 -0.0042844 -3.92523e-16)
(1.00093 -0.00476462 -1.89484e-16)
(1.00149 -0.00511586 2.08352e-16)
(1.00204 -0.00530807 5.03045e-17)
(1.00257 -0.00533053 -2.72994e-16)
(1.003 -0.00514918 1.76902e-16)
(1.00341 -0.00476201 -4.76929e-17)
(1.00385 -0.00411398 1.50969e-16)
(1.00374 -0.00254469 -3.97034e-17)
(1.00376 0.00104958 -1.02389e-16)
(0.998725 -0.000231795 -3.30565e-17)
(0.998826 -0.00119903 2.8146e-17)
(0.999064 -0.00218038 -9.25738e-17)
(0.999414 -0.00302365 -5.62688e-17)
(0.999841 -0.00372082 2.50951e-16)
(1.00033 -0.00432731 6.0674e-16)
(1.00087 -0.00480542 3.98354e-16)
(1.00144 -0.00515267 1.5776e-16)
(1.00201 -0.0053398 2.86241e-17)
(1.00255 -0.00535495 3.37164e-17)
(1.00299 -0.00516292 1.20239e-16)
(1.00342 -0.00476086 -1.80107e-16)
(1.00387 -0.00409264 -2.47526e-17)
(1.00378 -0.00249159 1.31535e-16)
(1.00383 0.00117775 2.68165e-16)
(0.998626 -0.000238616 1.00281e-17)
(0.998727 -0.00122037 -3.54347e-17)
(0.998971 -0.00221335 8.3457e-19)
(0.99933 -0.00306289 8.15847e-17)
(0.999765 -0.00376154 5.46152e-17)
(1.00026 -0.0043676 -3.51272e-16)
(1.00081 -0.00484432 -1.72307e-16)
(1.00139 -0.00518835 -3.031e-16)
(1.00197 -0.00537118 -6.61352e-17)
(1.00252 -0.00537966 7.10786e-16)
(1.00298 -0.00517741 8.40245e-18)
(1.00343 -0.00476077 -1.31477e-16)
(1.0039 -0.00407254 -4.06678e-16)
(1.00383 -0.00243966 -1.91683e-17)
(1.00391 0.00130442 -7.00773e-17)
(0.998525 -0.00024496 2.25612e-17)
(0.998626 -0.00123997 -2.97416e-18)
(0.998875 -0.0022439 2.89167e-17)
(0.999244 -0.0030996 -7.32865e-17)
(0.999687 -0.00379989 -2.14716e-17)
(1.00019 -0.00440594 1.43477e-16)
(1.00075 -0.0048819 -2.02382e-16)
(1.00134 -0.00522344 2.54056e-16)
(1.00193 -0.00540262 4.2429e-18)
(1.0025 -0.00540495 -3.79369e-16)
(1.00298 -0.00519289 -8.15852e-17)
(1.00343 -0.00476198 5.05671e-16)
(1.00393 -0.00405406 1.78196e-16)
(1.00388 -0.00238915 -4.69494e-16)
(1.00398 0.00142608 -3.53564e-17)
(0.998423 -0.000251002 -1.64316e-17)
(0.998523 -0.00125823 5.21238e-17)
(0.998779 -0.0022726 9.57112e-18)
(0.999156 -0.0031343 -1.56558e-16)
(0.999607 -0.00383642 1.80586e-17)
(1.00012 -0.0044429 -6.08786e-18)
(1.00069 -0.00491866 4.70074e-16)
(1.00129 -0.00525831 2.59192e-16)
(1.00189 -0.0054344 -6.44415e-16)
(1.00247 -0.00543107 -2.84371e-16)
(1.00297 -0.0052095 1.69449e-16)
(1.00344 -0.00476451 2.14057e-18)
(1.00396 -0.00403689 4.25776e-16)
(1.00394 -0.00234008 4.31012e-16)
(1.00406 0.0015454 1.17742e-16)
(0.99832 -0.000256787 -7.42478e-18)
(0.998419 -0.00127533 6.66795e-18)
(0.998681 -0.0022998 1.04654e-16)
(0.999066 -0.00316757 2.6953e-16)
(0.999526 -0.00387172 -3.21575e-17)
(1.00005 -0.00447899 -3.05498e-16)
(1.00063 -0.00495506 -3.51713e-16)
(1.00124 -0.0052934 -6.62201e-16)
(1.00186 -0.0054669 4.23539e-16)
(1.00245 -0.00545829 3.37676e-16)
(1.00296 -0.0052275 -1.52805e-16)
(1.00345 -0.00476869 -2.63783e-16)
(1.004 -0.00402156 -4.17963e-16)
(1.00399 -0.00229283 -3.44685e-17)
(1.00414 0.0016592 -3.52303e-16)
(0.998216 -0.000262483 1.10645e-17)
(0.998313 -0.00129165 -3.28085e-17)
(0.998581 -0.00232599 -1.23173e-16)
(0.998976 -0.0031998 -2.13087e-16)
(0.999443 -0.00390622 -4.4694e-17)
(0.999973 -0.00451469 2.90775e-16)
(1.00057 -0.00499154 2.17643e-16)
(1.00119 -0.00532902 6.71202e-16)
(1.00182 -0.00550035 6.88818e-18)
(1.00243 -0.00548683 -1.44058e-16)
(1.00295 -0.00524703 1.14639e-17)
(1.00347 -0.00477454 -2.6241e-16)
(1.00403 -0.00400783 -3.55629e-16)
(1.00405 -0.00224734 -3.18496e-16)
(1.00423 0.00177109 3.67333e-16)
(0.998111 -0.000268104 -3.77131e-17)
(0.998206 -0.00130733 8.32557e-17)
(0.998481 -0.00235142 -9.58384e-18)
(0.998884 -0.00323144 2.5656e-16)
(0.999359 -0.00394037 -9.99765e-17)
(0.999898 -0.00455036 -7.05042e-17)
(1.0005 -0.00502839 7.31354e-17)
(1.00113 -0.00536547 -4.23223e-16)
(1.00178 -0.005535 -3.02796e-16)
(1.0024 -0.00551686 -1.06605e-17)
(1.00295 -0.00526823 9.30601e-17)
(1.00348 -0.00478223 1.45085e-16)
(1.00407 -0.00399605 3.72225e-16)
(1.00411 -0.00220378 3.76764e-16)
(1.00431 0.00187803 -5.18266e-17)
(0.998004 -0.000273801 3.16262e-18)
(0.998098 -0.00132265 -2.75805e-17)
(0.998379 -0.00237647 -1.68922e-16)
(0.998791 -0.00326277 -2.64176e-16)
(0.999274 -0.00397445 9.51571e-17)
(0.999822 -0.00458631 1.34329e-16)
(1.00043 -0.0050659 -3.31234e-16)
(1.00108 -0.00540294 -8.116e-17)
(1.00174 -0.00557098 2.91231e-16)
(1.00238 -0.00554847 -1.15897e-16)
(1.00294 -0.00529114 1.25269e-16)
(1.00349 -0.00479168 1.29687e-16)
(1.0041 -0.00398585 5.73567e-17)
(1.00417 -0.00216201 -4.65929e-16)
(1.0044 0.00198411 -1.04022e-16)
(0.997897 -0.000279563 2.62313e-17)
(0.997989 -0.00133772 -4.52683e-17)
(0.998277 -0.00240132 1.24777e-16)
(0.998697 -0.00329415 2.23375e-16)
(0.999188 -0.00400882 7.15544e-17)
(0.999746 -0.00462284 -2.59626e-16)
(1.00037 -0.00510432 1.6653e-16)
(1.00103 -0.00544168 1.34544e-16)
(1.0017 -0.00560851 2.53621e-16)
(1.00236 -0.00558186 1.64912e-16)
(1.00294 -0.00531597 -3.05856e-16)
(1.00351 -0.00480317 3.45811e-17)
(1.00414 -0.00397779 -4.98208e-17)
(1.00423 -0.00212235 -1.2845e-17)
(1.00449 0.00208558 4.05521e-17)
(0.997788 -0.000285533 3.18919e-17)
(0.997879 -0.00135279 5.05357e-18)
(0.998173 -0.0024263 1.74785e-16)
(0.998602 -0.00332579 -6.49911e-17)
(0.999101 -0.00404372 1.48857e-16)
(0.999669 -0.00466021 1.28936e-16)
(1.0003 -0.00514389 4.79789e-17)
(1.00097 -0.00548187 9.39219e-17)
(1.00166 -0.00564775 -1.18232e-16)
(1.00234 -0.00561713 -1.13426e-17)
(1.00294 -0.00534279 -8.76703e-17)
(1.00353 -0.00481664 -3.39253e-17)
(1.00419 -0.00397154 1.20575e-16)
(1.0043 -0.00208457 -9.43902e-19)
(1.00458 0.00218706 -1.19208e-16)
(0.997678 -0.000291671 5.09281e-18)
(0.997768 -0.00136791 -8.83831e-17)
(0.998069 -0.00245152 -1.9075e-16)
(0.998506 -0.00335795 -1.19799e-16)
(0.999014 -0.0040794 -9.70175e-17)
(0.999592 -0.00469862 3.13959e-18)
(1.00024 -0.00518478 -5.22382e-17)
(1.00092 -0.00552367 -1.08831e-16)
(1.00162 -0.00568882 -5.39804e-17)
(1.00232 -0.0056544 -1.60867e-16)
(1.00294 -0.0053717 2.7061e-16)
(1.00355 -0.00483225 4.23413e-17)
(1.00423 -0.00396747 -2.57232e-16)
(1.00437 -0.00204881 2.45663e-16)
(1.00467 0.00228453 4.14058e-17)
(0.997568 -0.000298107 -5.01533e-17)
(0.997656 -0.00138329 6.87582e-17)
(0.997964 -0.00247723 -7.10953e-18)
(0.99841 -0.00339077 -1.94357e-17)
(0.998926 -0.00411598 -1.4152e-16)
(0.999514 -0.00473822 1.80957e-16)
(1.00017 -0.00522712 -5.19935e-18)
(1.00087 -0.00556715 1.73917e-16)
(1.00158 -0.00573177 1.39668e-17)
(1.0023 -0.00569369 -4.17112e-18)
(1.00294 -0.00540267 -4.04494e-16)
(1.00357 -0.00484986 -9.90349e-17)
(1.00427 -0.00396513 2.91985e-16)
(1.00444 -0.00201475 -1.84467e-16)
(1.00477 0.00238301 1.0018e-16)
(0.997456 -0.000304781 1.65595e-17)
(0.997542 -0.00139894 5.51201e-17)
(0.997858 -0.0025035 -5.70548e-17)
(0.998313 -0.00342445 -5.65812e-17)
(0.998838 -0.00415368 9.72172e-17)
(0.999435 -0.00477917 -1.63412e-16)
(1.0001 -0.00527106 -1.86192e-16)
(1.00081 -0.00561249 -9.01172e-18)
(1.00155 -0.00577675 -3.70891e-17)
(1.00228 -0.00573514 2.5908e-16)
(1.00294 -0.00543589 2.39105e-16)
(1.00359 -0.00486974 1.1726e-16)
(1.00432 -0.00396507 6.96814e-17)
(1.00451 -0.00198278 4.12955e-16)
(1.00487 0.00247762 -1.97016e-16)
(0.997343 -0.000311822 -2.89289e-17)
(0.997428 -0.00141506 -7.33617e-17)
(0.997751 -0.00253056 2.78743e-16)
(0.998215 -0.00345911 2.28472e-16)
(0.998748 -0.00419263 -5.57891e-17)
(0.999356 -0.00482163 -8.48632e-17)
(1.00004 -0.00531675 8.72171e-18)
(1.00076 -0.00565979 -2.36066e-16)
(1.00151 -0.00582387 -2.80698e-16)
(1.00226 -0.00577885 8.15503e-17)
(1.00294 -0.00547137 2.14021e-16)
(1.00362 -0.0048918 -1.31942e-16)
(1.00437 -0.00396693 -1.75355e-16)
(1.00458 -0.00195253 -4.04376e-16)
(1.00497 0.00257385 2.24699e-17)
(0.997229 -0.000319149 6.03772e-17)
(0.997313 -0.00143163 8.60672e-17)
(0.997643 -0.00255843 -2.56e-16)
(0.998116 -0.0034949 -1.08497e-16)
(0.998659 -0.00423296 1.78449e-16)
(0.999277 -0.0048657 2.53745e-16)
(0.999969 -0.00536426 9.37398e-17)
(1.00071 -0.00570914 1.44174e-16)
(1.00148 -0.00587319 1.93043e-17)
(1.00224 -0.00582487 -2.99539e-16)
(1.00295 -0.00550919 -2.08772e-16)
(1.00364 -0.0049162 8.08577e-17)
(1.00442 -0.00397107 -2.85282e-16)
(1.00466 -0.0019242 4.86118e-16)
(1.00508 0.00266655 1.2972e-16)
(0.997114 -0.000326884 -5.26907e-17)
(0.997196 -0.0014488 -6.69208e-17)
(0.997535 -0.00258728 3.35192e-17)
(0.998017 -0.00353187 -8.16534e-17)
(0.998568 -0.00427472 -1.95456e-16)
(0.999198 -0.00491145 -1.1837e-16)
(0.999902 -0.00541368 8.41997e-17)
(1.00066 -0.00576058 9.88189e-18)
(1.00144 -0.00592474 3.03373e-16)
(1.00223 -0.00587319 3.16559e-16)
(1.00295 -0.00554931 1.5039e-17)
(1.00367 -0.00494274 1.94908e-17)
(1.00448 -0.00397701 6.19172e-16)
(1.00474 -0.0018974 3.21804e-17)
(1.00519 0.00276158 4.0503e-17)
(0.996998 -0.00033493 1.16712e-17)
(0.997079 -0.00146654 2.31941e-17)
(0.997426 -0.00261711 1.79061e-17)
(0.997917 -0.00357016 1.08286e-16)
(0.998478 -0.00431804 -8.80804e-17)
(0.999118 -0.00495898 -2.2618e-16)
(0.999835 -0.00546508 -1.22669e-16)
(1.0006 -0.00581422 -2.13876e-17)
(1.00141 -0.00597862 -2.13766e-16)
(1.00221 -0.00592395 -2.46475e-16)
(1.00296 -0.0055919 -2.95502e-17)
(1.0037 -0.00497172 -5.63344e-17)
(1.00454 -0.00398533 5.37918e-18)
(1.00482 -0.00187258 -3.92397e-16)
(1.0053 0.00285294 -4.51852e-17)
(0.996881 -0.000343417 1.18856e-17)
(0.996961 -0.00148503 -3.19788e-17)
(0.997315 -0.00264809 7.1607e-18)
(0.997816 -0.00360981 -5.23882e-17)
(0.998386 -0.00436301 2.74993e-16)