/*--------------------------------*- C++ -*----------------------------------*\
  =========                 |
  \\      /  F ield         | OpenFOAM: The Open Source CFD Toolbox
   \\    /   O peration     | Website:  https://openfoam.org
    \\  /    A nd           | Version:  6.0
     \\/     M anipulation  |
\*---------------------------------------------------------------------------*/
FoamFile
{
    version     2.0;
    format      ascii;
    class       volScalarField;
    location    "18";
    object      p;
}
// * * * * * * * * * * * * * * * * * * * * * * * * * * * * * * * * * * * * * //

dimensions      [0 2 -2 0 0 0 0];

internalField   nonuniform List<scalar> 
62000
(
0.0176012
0.01762
0.0176396
0.0176599
0.0176813
0.0177039
0.0177279
0.0177534
0.0177808
0.0178101
0.0178417
0.0178754
0.0179119
0.0179509
0.017993
0.018038
0.0180866
0.0181384
0.0181943
0.0182537
0.0183176
0.0183854
0.0184578
0.0185344
0.0186152
0.0186987
0.0187842
0.0188713
0.0189598
0.0190497
0.0191406
0.0192319
0.019324
0.019417
0.0195116
0.0196081
0.0197072
0.0198112
0.0199232
0.0200473
0.0201877
0.0203479
0.020529
0.0207284
0.0209369
0.0211369
0.021305
0.0214039
0.0214021
0.0212463
0.0209073
0.02033
0.019498
0.018419
0.0171155
0.0156386
0.0141429
0.0123731
0.0113684
0.0123065
0.017646
0.0176619
0.0176787
0.0176964
0.0177154
0.0177355
0.0177574
0.0177807
0.0178062
0.0178336
0.0178634
0.0178956
0.0179307
0.0179684
0.0180094
0.0180533
0.0181009
0.0181516
0.0182063
0.0182645
0.018327
0.0183935
0.0184648
0.0185406
0.0186209
0.0187045
0.0187907
0.0188791
0.0189697
0.0190624
0.0191574
0.0192549
0.0193553
0.0194595
0.0195678
0.0196804
0.0197991
0.019927
0.0200685
0.0202286
0.0204132
0.0206278
0.020876
0.0211579
0.0214678
0.0217915
0.0221088
0.0223856
0.0225911
0.0226706
0.0225897
0.0222793
0.0217044
0.0208342
0.0196648
0.0182196
0.0166826
0.0147259
0.013978
0.0140357
0.017693
0.0177054
0.0177189
0.0177335
0.0177493
0.0177665
0.0177853
0.0178059
0.0178287
0.0178537
0.0178816
0.017912
0.0179458
0.0179826
0.018023
0.0180666
0.0181141
0.018165
0.01822
0.0182785
0.0183415
0.0184083
0.01848
0.018556
0.0186366
0.0187199
0.0188052
0.0188919
0.0189799
0.0190689
0.0191591
0.0192506
0.0193442
0.0194394
0.0195353
0.0196313
0.0197285
0.0198295
0.0199378
0.0200575
0.0201935
0.0203506
0.020532
0.0207375
0.0209616
0.0211909
0.0214071
0.0215792
0.0216805
0.021663
0.0214974
0.0211184
0.0204888
0.0195463
0.0182713
0.0166815
0.014995
0.0129833
0.0122332
0.0116778
0.0177534
0.0177641
0.0177761
0.0177892
0.0178036
0.0178191
0.0178363
0.017855
0.0178758
0.0178987
0.0179243
0.0179525
0.0179841
0.0180187
0.0180573
0.0180992
0.0181453
0.0181949
0.0182489
0.0183065
0.0183686
0.0184348
0.0185058
0.0185813
0.0186613
0.0187437
0.0188276
0.0189122
0.0189973
0.0190825
0.0191678
0.0192538
0.0193406
0.019427
0.0195112
0.0195918
0.0196695
0.0197462
0.0198247
0.0199082
0.0200009
0.0201073
0.0202301
0.0203694
0.02052
0.02067
0.0208035
0.0208948
0.0209238
0.0208538
0.0206685
0.0203156
0.019763
0.0189229
0.0177559
0.0162573
0.0146409
0.0127279
0.0119426
0.011601
0.0178275
0.0178369
0.0178475
0.0178591
0.0178722
0.0178865
0.0179024
0.0179199
0.0179394
0.0179608
0.0179848
0.0180113
0.0180409
0.0180735
0.0181098
0.0181495
0.0181933
0.0182406
0.0182924
0.0183478
0.0184079
0.018472
0.0185411
0.0186148
0.0186931
0.0187738
0.0188559
0.0189385
0.0190213
0.0191038
0.019186
0.0192683
0.0193506
0.0194315
0.0195085
0.0195801
0.0196464
0.0197089
0.0197695
0.0198312
0.0198983
0.0199751
0.0200643
0.0201658
0.0202745
0.0203792
0.020465
0.0205093
0.0204975
0.0204036
0.0202258
0.019931
0.0195001
0.0188355
0.0178766
0.0165862
0.0151396
0.0133244
0.0124662
0.0120609
0.01791
0.0179165
0.0179242
0.017933
0.0179433
0.0179551
0.0179688
0.0179842
0.0180021
0.018022
0.0180447
0.0180699
0.0180984
0.0181299
0.018165
0.0182034
0.0182459
0.0182918
0.018342
0.0183958
0.018454
0.0185161
0.018583
0.0186543
0.0187302
0.0188087
0.0188886
0.018969
0.0190496
0.0191297
0.0192089
0.0192877
0.0193657
0.0194411
0.0195117
0.0195756
0.0196322
0.019682
0.0197266
0.0197687
0.0198124
0.0198616
0.0199185
0.0199819
0.0200457
0.0200968
0.0201186
0.0200872
0.0199887
0.0198022
0.0195384
0.019184
0.0187431
0.0181273
0.0172771
0.0161368
0.0148512
0.0131631
0.0122798
0.0116869
0.0180097
0.0180127
0.0180166
0.0180214
0.0180277
0.0180354
0.0180452
0.0180571
0.0180717
0.0180888
0.018109
0.0181321
0.0181587
0.0181885
0.0182221
0.0182591
0.0183002
0.0183447
0.0183935
0.0184458
0.0185026
0.0185631
0.0186282
0.0186975
0.0187712
0.0188474
0.0189253
0.0190039
0.0190828
0.0191611
0.0192386
0.0193152
0.0193905
0.0194631
0.0195302
0.0195902
0.0196416
0.0196843
0.0197196
0.0197506
0.0197817
0.0198166
0.0198571
0.019901
0.0199406
0.0199599
0.0199379
0.0198454
0.0196627
0.0193664
0.0189708
0.018478
0.0179159
0.0172213
0.0163537
0.0152669
0.0140967
0.0125714
0.0117116
0.0111122
0.0180975
0.018099
0.018101
0.0181038
0.0181077
0.0181128
0.0181198
0.0181287
0.0181403
0.0181544
0.018172
0.0181925
0.018217
0.0182448
0.0182769
0.0183125
0.0183525
0.0183959
0.0184438
0.0184953
0.0185512
0.0186107
0.0186747
0.0187428
0.018815
0.0188899
0.0189666
0.0190443
0.0191228
0.0192012
0.0192793
0.0193569
0.0194339
0.0195085
0.0195788
0.0196423
0.0196975
0.0197441
0.0197841
0.0198216
0.0198619
0.0199097
0.0199674
0.0200331
0.0200988
0.0201467
0.0201518
0.0200779
0.0198956
0.0195714
0.0191131
0.0185252
0.017851
0.0170487
0.0161043
0.0149919
0.0138514
0.0124143
0.0114931
0.0108556
0.0181648
0.0181675
0.0181705
0.0181739
0.0181781
0.0181829
0.0181893
0.0181972
0.0182074
0.0182199
0.0182355
0.0182541
0.0182766
0.0183025
0.0183326
0.0183665
0.0184048
0.0184469
0.0184936
0.018544
0.0185991
0.0186581
0.0187216
0.0187892
0.0188611
0.0189357
0.0190124
0.0190905
0.0191699
0.0192498
0.0193302
0.0194111
0.0194925
0.0195729
0.0196497
0.0197206
0.0197839
0.0198397
0.019891
0.0199439
0.0200053
0.020082
0.0201781
0.0202941
0.020424
0.0205511
0.0206487
0.0206753
0.0205911
0.0203484
0.0199395
0.0193592
0.0186495
0.0177788
0.0167474
0.0155487
0.0143244
0.0128145
0.011656
0.0107123
0.0181895
0.0181956
0.0182019
0.0182085
0.0182156
0.0182232
0.0182319
0.0182417
0.0182534
0.0182669
0.0182831
0.018302
0.0183245
0.0183502
0.0183801
0.0184137
0.0184517
0.0184935
0.0185399
0.0185902
0.0186453
0.0187043
0.0187682
0.0188363
0.0189088
0.0189841
0.0190617
0.0191407
0.0192211
0.0193023
0.0193844
0.0194678
0.0195523
0.0196357
0.0197157
0.0197889
0.0198533
0.0199097
0.0199624
0.0200187
0.0200877
0.0201781
0.0202967
0.0204477
0.0206294
0.0208293
0.0210229
0.0211674
0.0212163
0.0211087
0.020819
0.0203232
0.0196509
0.0187633
0.017662
0.0163482
0.0149631
0.013255
0.0117363
0.0102829
0.018197
0.0182064
0.018216
0.0182258
0.0182362
0.018247
0.0182588
0.0182715
0.0182858
0.0183018
0.0183201
0.0183407
0.0183645
0.0183912
0.0184218
0.0184558
0.0184941
0.0185361
0.0185828
0.0186334
0.018689
0.0187488
0.0188137
0.018883
0.0189568
0.0190334
0.0191121
0.0191918
0.0192724
0.019353
0.0194341
0.0195159
0.0195978
0.0196775
0.0197507
0.0198137
0.0198637
0.0199013
0.0199316
0.0199629
0.0200054
0.0200693
0.020164
0.0202977
0.0204741
0.0206873
0.0209187
0.0211294
0.0212715
0.0212764
0.0211033
0.0207098
0.0201059
0.019238
0.0180965
0.0166838
0.0151381
0.0132231
0.011355
0.00941389
0.0181918
0.0182028
0.0182142
0.0182261
0.0182387
0.018252
0.0182664
0.0182818
0.0182989
0.0183176
0.0183386
0.0183617
0.0183881
0.0184171
0.01845
0.0184862
0.0185266
0.0185705
0.0186191
0.0186715
0.0187288
0.0187903
0.018857
0.0189282
0.0190038
0.019082
0.0191616
0.0192413
0.0193205
0.0193983
0.0194748
0.0195501
0.0196233
0.0196902
0.0197462
0.0197855
0.0198043
0.0198027
0.0197856
0.0197611
0.0197395
0.0197311
0.0197468
0.0197983
0.0198949
0.0200378
0.0202173
0.0204025
0.0205506
0.0205926
0.0204804
0.0201576
0.0196176
0.0187889
0.0176474
0.0161917
0.0145601
0.012535
0.0104407
0.00820499
0.0182016
0.0182109
0.018221
0.0182319
0.018244
0.0182571
0.0182718
0.0182881
0.0183064
0.0183267
0.0183496
0.0183751
0.0184037
0.0184354
0.0184707
0.0185095
0.0185524
0.018599
0.01865
0.018705
0.0187649
0.0188289
0.0188981
0.0189716
0.0190493
0.0191292
0.0192096
0.0192888
0.0193656
0.0194388
0.0195083
0.0195738
0.0196332
0.0196822
0.0197137
0.0197208
0.019698
0.0196446
0.0195642
0.0194641
0.0193531
0.0192407
0.019138
0.0190585
0.0190159
0.0190187
0.0190662
0.0191384
0.0192023
0.0191957
0.0190704
0.0187654
0.0182632
0.0174796
0.0163761
0.0149485
0.0133348
0.0113392
0.00917815
0.00688046
0.0182112
0.0182165
0.0182231
0.018231
0.0182406
0.0182519
0.0182655
0.0182813
0.0182999
0.0183212
0.0183457
0.0183734
0.0184049
0.0184398
0.0184789
0.0185216
0.0185688
0.0186196
0.0186749
0.018734
0.0187978
0.0188655
0.018938
0.0190145
0.0190948
0.0191766
0.019258
0.0193366
0.019411
0.0194795
0.0195417
0.0195967
0.019642
0.0196715
0.0196779
0.0196521
0.0195873
0.0194814
0.0193367
0.0191585
0.0189533
0.0187284
0.0184938
0.0182634
0.0180533
0.0178776
0.0177442
0.0176444
0.0175579
0.0174336
0.0172313
0.0168924
0.0163976
0.0156554
0.014618
0.0132784
0.0117736
0.00992465
0.00782622
0.00564208
0.0182366
0.0182364
0.0182379
0.0182412
0.0182467
0.0182547
0.0182655
0.0182793
0.0182967
0.0183177
0.0183428
0.0183718
0.0184053
0.018443
0.0184853
0.0185318
0.0185831
0.0186384
0.0186984
0.0187622
0.0188306
0.0189028
0.0189794
0.0190597
0.0191433
0.0192278
0.0193108
0.0193898
0.0194631
0.0195284
0.0195853
0.0196323
0.0196661
0.0196808
0.0196668
0.019615
0.019517
0.0193692
0.0191725
0.0189298
0.0186449
0.0183221
0.0179692
0.0175988
0.0172277
0.0168732
0.0165497
0.016259
0.015993
0.0157144
0.0153944
0.014984
0.0144679
0.0137546
0.0127911
0.0115699
0.0102225
0.00858065
0.00661025
0.00462312
0.0182594
0.0182539
0.0182506
0.0182497
0.0182516
0.0182564
0.0182647
0.0182765
0.0182926
0.018313
0.0183382
0.0183682
0.0184036
0.018444
0.01849
0.0185408
0.0185971
0.0186578
0.0187235
0.0187931
0.0188674
0.0189451
0.019027
0.019112
0.0191999
0.0192881
0.0193742
0.0194553
0.0195296
0.0195949
0.01965
0.0196936
0.0197223
0.0197288
0.0197043
0.0196384
0.0195219
0.0193503
0.0191228
0.0188401
0.0185028
0.0181122
0.0176728
0.0171947
0.0166935
0.0161875
0.0156952
0.0152261
0.0147833
0.0143426
0.0138888
0.013385
0.0128254
0.0121226
0.0112226
0.0101172
0.00892947
0.0074933
0.00565367
0.00386526
0.0182997
0.0182889
0.0182809
0.0182756
0.0182736
0.018275
0.0182804
0.0182901
0.0183046
0.0183241
0.0183491
0.0183797
0.0184164
0.0184589
0.0185077
0.0185621
0.0186226
0.0186883
0.0187594
0.018835
0.0189153
0.0189992
0.0190871
0.0191778
0.0192711
0.0193644
0.0194552
0.0195407
0.0196189
0.0196876
0.0197459
0.0197918
0.019822
0.01983
0.0198058
0.0197396
0.0196217
0.0194467
0.0192125
0.018918
0.0185607
0.0181388
0.0176531
0.0171105
0.016524
0.0159108
0.0152906
0.0146782
0.0140845
0.0134968
0.0129122
0.0123073
0.0116866
0.0109707
0.0101071
0.0090878
0.00802349
0.00674609
0.00499559
0.00335527
0.0183385
0.0183238
0.0183123
0.0183041
0.0182996
0.018299
0.0183029
0.0183116
0.0183256
0.0183451
0.0183709
0.0184028
0.0184417
0.018487
0.0185394
0.0185981
0.0186637
0.018735
0.0188123
0.0188944
0.0189815
0.0190722
0.0191668
0.0192642
0.019364
0.0194639
0.0195611
0.0196531
0.0197383
0.0198143
0.0198802
0.0199343
0.0199735
0.0199908
0.0199779
0.0199244
0.0198208
0.0196614
0.0194431
0.019163
0.0188162
0.0183976
0.0179046
0.0173404
0.0167141
0.0160405
0.0153383
0.0146244
0.0139149
0.0132057
0.012504
0.0117984
0.011105
0.0103521
0.00949047
0.00851236
0.00751508
0.00632523
0.00460204
0.00303743
0.0184025
0.0183853
0.0183716
0.0183613
0.0183551
0.0183531
0.0183559
0.0183639
0.0183777
0.0183975
0.018424
0.0184573
0.0184979
0.0185456
0.0186009
0.0186632
0.018733
0.0188091
0.0188919
0.0189801
0.0190738
0.0191715
0.0192733
0.019378
0.0194852
0.0195929
0.0196983
0.019799
0.0198937
0.0199802
0.0200579
0.0201251
0.0201787
0.0202133
0.0202199
0.0201895
0.0201127
0.0199835
0.0197985
0.0195533
0.019241
0.0188536
0.0183855
0.0178356
0.0172094
0.0165176
0.0157766
0.0150026
0.0142143
0.0134128
0.0126124
0.0118119
0.0110366
0.0102234
0.0093268
0.00834023
0.0073478
0.00617113
0.00441248
0.00285254
0.0184792
0.0184618
0.0184481
0.0184381
0.0184322
0.0184308
0.0184342
0.0184429
0.0184576
0.0184785
0.0185063
0.0185412
0.018584
0.0186343
0.018693
0.0187591
0.0188334
0.0189147
0.0190032
0.0190977
0.0191983
0.0193032
0.0194126
0.0195251
0.0196406
0.0197571
0.0198718
0.0199828
0.0200891
0.0201888
0.0202813
0.0203651
0.020438
0.0204939
0.0205263
0.0205258
0.0204839
0.0203947
0.0202542
0.0200573
0.0197952
0.0194577
0.0190361
0.0185259
0.0179281
0.0172493
0.016502
0.0157008
0.0148638
0.0139951
0.0131134
0.0122246
0.0113626
0.0104704
0.00950701
0.0084674
0.00742463
0.00619612
0.00435082
0.00273842
0.0185979
0.0185811
0.018568
0.0185586
0.0185534
0.0185526
0.0185569
0.0185666
0.0185823
0.0186045
0.0186337
0.0186703
0.0187148
0.0187674
0.0188284
0.0188976
0.0189753
0.0190608
0.0191541
0.0192542
0.019361
0.0194729
0.0195898
0.0197103
0.0198345
0.0199603
0.0200853
0.0202078
0.0203271
0.0204415
0.0205507
0.0206533
0.0207473
0.0208283
0.0208891
0.0209221
0.0209189
0.020874
0.0207833
0.0206407
0.0204364
0.0201583
0.019795
0.0193389
0.018787
0.0181414
0.0174104
0.0166054
0.0157429
0.0148272
0.0138788
0.0129088
0.011956
0.0109698
0.00991392
0.0087858
0.00764989
0.00632177
0.00435522
0.0026525
0.0187367
0.018722
0.018711
0.0187038
0.0187007
0.0187023
0.0187088
0.0187209
0.0187391
0.0187637
0.0187956
0.0188349
0.0188825
0.0189382
0.0190028
0.0190757
0.0191577
0.0192478
0.0193463
0.019452
0.019565
0.0196838
0.0198081
0.0199368
0.0200696
0.020205
0.0203407
0.0204752
0.0206082
0.0207381
0.0208648
0.0209871
0.0211036
0.0212095
0.0212999
0.0213668
0.0214028
0.0214026
0.0213618
0.021274
0.0211284
0.0209113
0.0206092
0.0202117
0.0197121
0.0191086
0.0184048
0.0176087
0.0167339
0.0157837
0.0147783
0.013732
0.012688
0.0115992
0.010434
0.00919352
0.00793659
0.00647823
0.00437243
0.00255917
0.0189226
0.0189107
0.0189023
0.0188976
0.0188969
0.0189007
0.0189096
0.0189241
0.0189447
0.0189719
0.0190064
0.0190484
0.0190987
0.0191573
0.0192248
0.019301
0.0193864
0.0194803
0.0195831
0.0196939
0.0198126
0.0199377
0.0200692
0.0202057
0.0203472
0.0204922
0.0206386
0.0207853
0.0209321
0.0210775
0.0212216
0.0213634
0.0215014
0.0216326
0.021751
0.0218504
0.0219235
0.0219651
0.0219709
0.021934
0.0218431
0.0216829
0.0214387
0.0210974
0.0206494
0.0200889
0.0194156
0.0186336
0.0177534
0.016776
0.0157202
0.0146017
0.0134654
0.0122681
0.0109833
0.00961689
0.0082242
0.00662132
0.00437209
0.0024432
0.0191347
0.0191272
0.019123
0.0191225
0.0191259
0.0191336
0.0191462
0.019164
0.0191879
0.0192182
0.0192558
0.0193008
0.0193544
0.0194162
0.0194873
0.0195672
0.0196567
0.019755
0.0198626
0.0199785
0.020103
0.0202344
0.020373
0.0205171
0.020667
0.0208215
0.0209784
0.021137
0.0212971
0.0214576
0.0216184
0.0217787
0.0219377
0.0220914
0.0222362
0.0223653
0.0224718
0.0225509
0.022598
0.0226059
0.0225625
0.0224521
0.0222581
0.0219658
0.0215627
0.0210399
0.0203932
0.0196236
0.0187379
0.017735
0.0166309
0.0154423
0.0142152
0.0129085
0.0115007
0.0100033
0.00847068
0.00672003
0.00433268
0.00229233
0.0194001
0.0193967
0.0193964
0.0193995
0.0194063
0.0194173
0.0194329
0.0194538
0.0194806
0.0195138
0.0195542
0.0196021
0.0196583
0.019723
0.0197968
0.0198797
0.0199724
0.0200742
0.0201858
0.0203063
0.0204359
0.0205732
0.0207183
0.0208699
0.0210279
0.0211914
0.0213585
0.0215284
0.0217012
0.0218758
0.0220524
0.02223
0.0224077
0.0225829
0.0227509
0.0229064
0.0230421
0.0231535
0.0232355
0.0232809
0.0232771
0.0232074
0.0230544
0.0228016
0.0224346
0.0219414
0.0213149
0.0205527
0.0196588
0.0186295
0.017478
0.0162206
0.0149025
0.0134857
0.0119546
0.0103268
0.00865713
0.00676398
0.00424984
0.00210877
0.0196878
0.0196892
0.0196935
0.0197012
0.0197124
0.0197278
0.0197477
0.0197727
0.0198036
0.0198407
0.019885
0.0199367
0.0199968
0.0200653
0.0201431
0.0202299
0.0203267
0.0204328
0.0205489
0.0206741
0.0208089
0.020952
0.0211034
0.021262
0.0214278
0.0215999
0.0217765
0.0219571
0.0221418
0.0223296
0.0225207
0.0227142
0.0229094
0.0231031
0.0232922
0.0234705
0.0236314
0.02377
0.0238811
0.0239569
0.0239845
0.0239465
0.0238247
0.0236013
0.0232599
0.0227864
0.0221709
0.0214085
0.0205002
0.0194409
0.0182395
0.0169135
0.0155061
0.0139812
0.0123297
0.0105759
0.00877583
0.00674879
0.00412123
0.00189154
0.0200242
0.0200302
0.0200389
0.0200506
0.0200657
0.0200848
0.0201083
0.0201369
0.0201712
0.0202119
0.0202596
0.0203147
0.0203781
0.02045
0.020531
0.0206211
0.0207213
0.020831
0.0209508
0.0210803
0.0212198
0.0213681
0.0215256
0.0216908
0.0218639
0.022044
0.0222297
0.0224204
0.0226162
0.0228162
0.0230208
0.0232288
0.0234395
0.0236507
0.023858
0.0240564
0.0242388
0.0244
0.0245347
0.0246346
0.0246863
0.024672
0.0245725
0.0243691
0.0240439
0.0235808
0.0229677
0.0221973
0.0212688
0.020175
0.0189224
0.0175271
0.0160291
0.0143966
0.0126278
0.0107533
0.00883152
0.00668153
0.00395462
0.00164957
0.0203825
0.0203942
0.0204083
0.0204255
0.0204457
0.0204697
0.0204978
0.0205306
0.0205689
0.0206132
0.0206646
0.0207232
0.0207903
0.0208656
0.0209504
0.0210442
0.0211485
0.0212622
0.0213864
0.0215204
0.0216648
0.0218183
0.0219816
0.0221531
0.0223332
0.022521
0.0227151
0.0229153
0.0231215
0.023333
0.02355
0.0237716
0.0239971
0.0242232
0.0244474
0.0246635
0.0248646
0.025045
0.0251991
0.025318
0.0253879
0.0253903
0.0253055
0.0251139
0.0247961
0.0243345
0.023715
0.0229286
0.0219726
0.0208392
0.0195314
0.0180657
0.0164774
0.0147392
0.0128567
0.0108673
0.00883176
0.00656855
0.00375452
0.0013847
0.0207911
0.0208074
0.0208259
0.0208471
0.0208711
0.0208987
0.0209301
0.0209663
0.0210077
0.0210552
0.0211093
0.0211709
0.0212405
0.0213187
0.0214061
0.0215029
0.0216099
0.021727
0.0218546
0.0219926
0.0221413
0.0222997
0.0224684
0.022646
0.0228326
0.0230277
0.0232299
0.023439
0.0236551
0.0238774
0.0241064
0.0243407
0.0245796
0.0248207
0.02506
0.0252923
0.0255099
0.0257069
0.0258771
0.0260111
0.0260947
0.0261088
0.0260329
0.0258466
0.0255294
0.0250622
0.0244294
0.0236203
0.0226312
0.0214531
0.020088
0.0185494
0.0168683
0.0150238
0.0130298
0.0109303
0.00878857
0.00642151
0.00353138
0.00110667
0.0212121
0.0212333
0.0212565
0.0212824
0.0213111
0.0213432
0.0213791
0.0214195
0.0214651
0.0215164
0.0215746
0.0216398
0.0217134
0.0217952
0.0218865
0.0219869
0.0220979
0.0222188
0.0223506
0.0224927
0.0226459
0.0228091
0.022983
0.0231664
0.0233593
0.0235613
0.0237711
0.0239888
0.0242144
0.0244473
0.0246876
0.0249344
0.0251867
0.0254413
0.0256956
0.0259431
0.0261761
0.0263881
0.0265724
0.0267191
0.0268133
0.0268353
0.0267639
0.026578
0.0262559
0.0257772
0.0251247
0.0242868
0.0232581
0.0220307
0.0206039
0.0189902
0.0172151
0.0152645
0.013161
0.0109549
0.00871222
0.00624788
0.00328968
0.000816054
0.0216742
0.0216996
0.0217268
0.0217564
0.0217885
0.0218239
0.0218631
0.0219067
0.0219555
0.0220102
0.0220715
0.02214
0.0222165
0.0223015
0.0223956
0.0224991
0.0226131
0.0227372
0.0228723
0.0230182
0.0231754
0.0233432
0.0235221
0.023711
0.0239101
0.0241187
0.024336
0.0245621
0.024797
0.0250402
0.0252921
0.025551
0.0258163
0.0260853
0.0263539
0.0266164
0.0268642
0.0270904
0.0272877
0.0274457
0.0275487
0.0275764
0.027507
0.0273182
0.0269876
0.0264931
0.0258166
0.024945
0.0238725
0.0225909
0.0210997
0.0194072
0.0175343
0.0154759
0.0132631
0.0109528
0.0086135
0.0060578
0.0030385
0.00052147
0.0221453
0.0221759
0.0222081
0.0222426
0.0222795
0.0223193
0.0223626
0.02241
0.0224625
0.0225204
0.022585
0.0226566
0.0227364
0.0228246
0.0229223
0.0230292
0.023147
0.023275
0.0234142
0.0235642
0.0237259
0.0238983
0.0240823
0.0242768
0.0244819
0.0246972
0.0249218
0.0251562
0.0254005
0.0256541
0.0259174
0.0261891
0.026468
0.0267509
0.0270346
0.0273122
0.027575
0.0278156
0.0280258
0.0281947
0.0283058
0.0283381
0.0282691
0.0280754
0.0277333
0.0272199
0.0265154
0.025606
0.0244847
0.0231451
0.0215846
0.0198104
0.0178374
0.01567
0.0133479
0.0109341
0.00850034
0.00585642
0.00278022
0.000221573
0.0226584
0.0226927
0.0227282
0.0227658
0.0228055
0.022848
0.0228938
0.0229437
0.0229984
0.0230589
0.0231257
0.0231997
0.0232816
0.0233722
0.0234721
0.0235816
0.023702
0.0238329
0.0239753
0.024129
0.0242948
0.0244717
0.0246608
0.0248608
0.0250719
0.0252938
0.0255259
0.0257687
0.0260225
0.0262868
0.0265622
0.0268467
0.0271395
0.0274377
0.0277368
0.0280304
0.0283089
0.0285643
0.0287879
0.0289681
0.0290876
0.0291246
0.0290554
0.028856
0.0285013
0.027967
0.0272322
0.0262819
0.0251084
0.023706
0.0220732
0.0202124
0.0181352
0.0158561
0.0134235
0.0109064
0.00837995
0.00565104
0.00252192
-7.62164e-05
0.0231675
0.0232056
0.023245
0.0232864
0.0233299
0.0233762
0.0234258
0.0234794
0.0235377
0.0236016
0.023672
0.0237494
0.023835
0.023929
0.0240326
0.0241457
0.0242699
0.0244046
0.024551
0.0247088
0.0248788
0.0250604
0.0252545
0.02546
0.0256772
0.0259058
0.0261454
0.026397
0.0266606
0.0269362
0.0272239
0.0275223
0.0278301
0.0281437
0.0284596
0.0287702
0.0290656
0.0293371
0.0295754
0.0297681
0.0298969
0.0299391
0.0298701
0.0296646
0.0292963
0.0287397
0.0279724
0.0269783
0.025749
0.0242803
0.0225702
0.0206193
0.0184348
0.0160423
0.0134977
0.0108763
0.00825706
0.00544407
0.00226367
-0.000375064
0.0237049
0.0237465
0.023789
0.0238333
0.0238796
0.0239286
0.0239808
0.0240372
0.0240983
0.0241652
0.0242383
0.0243186
0.0244068
0.0245036
0.0246097
0.0247255
0.0248523
0.0249899
0.0251394
0.0253007
0.0254748
0.0256608
0.02586
0.0260711
0.0262946
0.0265303
0.0267778
0.0270384
0.0273125
0.0275998
0.0279009
0.0282138
0.0285373
0.0288682
0.0292019
0.0295309
0.0298447
0.030134
0.0303886
0.0305952
0.0307348
0.0307833
0.0307153
0.0305042
0.0301224
0.0295429
0.0287419
0.0277021
0.0264141
0.0248747
0.0230833
0.0210369
0.0187414
0.0162326
0.0135739
0.0108474
0.00813583
0.00524055
0.00201119
-0.000668057
0.0242429
0.0242894
0.0243367
0.0243856
0.0244359
0.0244886
0.0245441
0.0246032
0.0246668
0.0247356
0.0248109
0.024893
0.0249836
0.0250824
0.0251913
0.0253097
0.0254398
0.0255808
0.025734
0.0258994
0.0260779
0.0262688
0.0264734
0.0266907
0.026921
0.0271642
0.0274202
0.0276906
0.0279757
0.0282757
0.0285908
0.0289195
0.0292603
0.0296093
0.0299626
0.0303118
0.0306458
0.0309548
0.0312276
0.0314502
0.0316022
0.0316585
0.0315927
0.0313766
0.0309813
0.0303783
0.0295424
0.0284549
0.0271052
0.0254917
0.0236141
0.0214683
0.0190589
0.0164317
0.013657
0.0108237
0.00801876
0.00504107
0.00176305
-0.000959441
0.0248391
0.0248855
0.0249317
0.0249789
0.0250274
0.0250782
0.0251321
0.0251901
0.0252528
0.0253213
0.0253963
0.0254788
0.0255697
0.0256696
0.0257794
0.0258996
0.0260316
0.0261754
0.0263319
0.0265012
0.0266844
0.0268806
0.0270913
0.0273153
0.0275531
0.0278046
0.0280699
0.0283509
0.0286482
0.0289618
0.0292924
0.029638
0.0299972
0.0303665
0.0307408
0.031112
0.0314683
0.031799
0.0320921
0.0323325
0.0324988
0.0325646
0.0325023
0.0322823
0.0318741
0.0312476
0.030376
0.0292393
0.0278255
0.0261338
0.0241655
0.0219151
0.0193883
0.0166399
0.0137471
0.0108062
0.00790816
0.00484943
0.00152443
-0.00124227
0.0253293
0.0253811
0.0254334
0.0254874
0.0255429
0.0256006
0.0256612
0.0257254
0.0257944
0.0258686
0.0259495
0.0260373
0.0261336
0.0262385
0.0263536
0.0264786
0.0266158
0.0267644
0.0269261
0.0271009
0.0272899
0.0274925
0.0277102
0.0279419
0.0281882
0.0284491
0.0287248
0.0290176
0.0293281
0.0296568
0.030004
0.0303681
0.0307477
0.0311382
0.0315357
0.0319309
0.0323115
0.0326662
0.0329818
0.0332422
0.0334246
0.0335017
0.0334442
0.0332212
0.0328005
0.0321502
0.0312422
0.0300547
0.0285742
0.0268012
0.0247376
0.022379
0.019732
0.0168605
0.0138477
0.0107975
0.00780526
0.00466499
0.00129272
-0.00152172
0.0259043
0.0259561
0.0260074
0.0260595
0.0261128
0.0261684
0.0262272
0.0262902
0.0263583
0.0264325
0.0265136
0.0266026
0.0267004
0.0268076
0.0269251
0.0270535
0.0271943
0.0273476
0.0275144
0.0276952
0.0278909
0.0281009
0.0283269
0.0285677
0.0288239
0.0290955
0.0293829
0.0296888
0.0300142
0.0303592
0.0307249
0.031109
0.0315103
0.0319247
0.0323469
0.0327681
0.0331752
0.0335558
0.0338958
0.0341781
0.0343786
0.0344686
0.0344174
0.0341925
0.0337599
0.033086
0.0321409
0.0309013
0.0293519
0.0274938
0.0253306
0.0228592
0.0200888
0.0170915
0.0139572
0.0107973
0.00771161
0.00449122
0.00107315
-0.00179034
0.0263427
0.0264001
0.0264585
0.0265187
0.0265806
0.0266448
0.0267121
0.0267831
0.0268591
0.0269406
0.0270293
0.0271253
0.0272304
0.0273447
0.0274697
0.0276053
0.0277538
0.0279148
0.0280897
0.0282787
0.0284834
0.0287028
0.0289388
0.0291903
0.029458
0.029742
0.0300427
0.0303634
0.0307051
0.0310684
0.0314541
0.0318603
0.0322855
0.0327249
0.0331742
0.0336233
0.0340587
0.0344673
0.0348338
0.0351399
0.0353604
0.0354649
0.0354212
0.0351953
0.0347512
0.0340535
0.0330707
0.0317776
0.030157
0.0282113
0.0259445
0.0233572
0.020461
0.017336
0.0140787
0.010808
0.00762797
0.00432689
0.000862451
-0.00205395
0.0268641
0.0269205
0.0269769
0.0270347
0.0270942
0.0271568
0.0272229
0.0272939
0.0273705
0.0274539
0.0275448
0.0276443
0.0277533
0.0278724
0.0280027
0.0281447
0.0283001
0.0284689
0.0286524
0.0288509
0.0290658
0.0292962
0.0295442
0.0298082
0.0300892
0.0303873
0.0307031
0.0310403
0.0314004
0.0317836
0.0321916
0.0326216
0.0330724
0.0335394
0.0340172
0.034496
0.0349617
0.0354
0.0357948
0.0361265
0.0363686
0.0364891
0.0364544
0.0362284
0.0357733
0.0350518
0.0340305
0.0326827
0.0309891
0.0289525
0.0265784
0.0238711
0.0208461
0.0175913
0.01421
0.0108289
0.00755582
0.0041756
0.000666155
-0.00230477
0.0272493
0.0273103
0.0273726
0.0274377
0.0275052
0.0275761
0.027651
0.0277306
0.0278162
0.0279084
0.0280087
0.0281173
0.0282362
0.028365
0.0285057
0.028658
0.0288243
0.0290042
0.0291993
0.0294097
0.0296372
0.0298806
0.0301423
0.0304208
0.030717
0.0310311
0.0313638
0.0317196
0.0320997
0.0325052
0.0329369
0.0333929
0.0338715
0.0343672
0.0348757
0.0353861
0.0358837
0.0363537
0.0367786
0.0371377
0.0374031
0.0375411
0.0375164
0.037291
0.0368252
0.0360796
0.0350192
0.0336154
0.0318471
0.0297175
0.0272331
0.0244032
0.0212474
0.0178612
0.0143547
0.0108625
0.00749562
0.00403554
0.000480072
-0.00254972
0.0276777
0.0277419
0.0278076
0.027876
0.0279469
0.0280216
0.0281003
0.0281843
0.0282744
0.0283717
0.0284772
0.028592
0.0287171
0.0288532
0.0290014
0.0291624
0.0293382
0.0295286
0.0297351
0.0299581
0.030199
0.0304568
0.0307338
0.0310284
0.0313415
0.0316734
0.032025
0.0324011
0.0328035
0.0332328
0.0336907
0.0341742
0.0346821
0.0352092
0.0357498
0.0362936
0.0368249
0.037328
0.0377847
0.0381729
0.0384631
0.0386199
0.0386063
0.0383822
0.037906
0.0371361
0.0360359
0.0345748
0.0327301
0.0305048
0.0279072
0.0249516
0.0216623
0.0181428
0.0145108
0.0109084
0.00744918
0.00391068
0.000310149
-0.0027805
0.0280608
0.0281279
0.0281971
0.0282698
0.0283456
0.0284256
0.0285101
0.0286003
0.028697
0.0288014
0.0289147
0.0290376
0.0291718
0.0293175
0.0294764
0.0296484
0.0298362
0.0300392
0.0302592
0.0304963
0.0307523
0.0310259
0.0313198
0.031632
0.0319637
0.0323152
0.0326873
0.0330856
0.0335119
0.0339672
0.0344527
0.034966
0.0355055
0.036065
0.03664
0.0372188
0.0377855
0.0383236
0.0388137
0.0392326
0.0395491
0.039726
0.0397244
0.0395022
0.0390156
0.0382211
0.0370801
0.0355607
0.033638
0.0313156
0.0286027
0.0255196
0.022095
0.018441
0.0146825
0.0109692
0.00741684
0.00379879
0.000151515
-0.00300455
0.0284463
0.0285156
0.0285872
0.0286627
0.028742
0.0288264
0.028916
0.0290122
0.0291155
0.0292271
0.029348
0.0294791
0.0296219
0.0297768
0.0299453
0.0301279
0.030327
0.0305425
0.0307759
0.0310276
0.0312994
0.03159
0.0319019
0.0322333
0.0325851
0.0329576
0.033352
0.0337742
0.0342263
0.0347093
0.0352247
0.0357694
0.0363419
0.0369365
0.0375471
0.0381626
0.0387663
0.039341
0.0398661
0.0403171
0.0406612
0.0408593
0.0408704
0.0406506
0.0401536
0.039334
0.0381514
0.0365723
0.0345703
0.0321488
0.0293184
0.0261051
0.0225431
0.018753
0.0148678
0.0110449
0.00740075
0.00370425
1.06264e-05
-0.00321305
0.0287972
0.0288702
0.0289458
0.0290258
0.0291099
0.0291992
0.0292944
0.0293965
0.0295066
0.0296258
0.0297554
0.029896
0.0300494
0.0302157
0.0303967
0.0305924
0.0308056
0.0310357
0.0312848
0.0315529
0.0318422
0.0321512
0.0324826
0.0328344
0.0332078
0.033603
0.0340212
0.034469
0.0349485
0.0354611
0.0360078
0.036586
0.0371936
0.0378242
0.0384726
0.0391265
0.039769
0.0403819
0.0409436
0.0414282
0.0418011
0.0420213
0.0420458
0.0418286
0.0413211
0.0404757
0.0392506
0.0376106
0.0355281
0.0330062
0.0300569
0.0267124
0.0230116
0.0190842
0.0150714
0.0111379
0.00740074
0.00362405
-0.000118348
-0.00341428
0.0291403
0.029218
0.0292989
0.0293848
0.0294751
0.0295713
0.0296736
0.0297834
0.0299014
0.0300289
0.0301671
0.030317
0.0304801
0.0306569
0.030849
0.0310569
0.0312833
0.0315278
0.0317924
0.0320774
0.0323847
0.032713
0.0330651
0.0334387
0.033835
0.0342543
0.0346978
0.0351726
0.0356813
0.0362248
0.0368049
0.0374179
0.0380621
0.0387312
0.0394186
0.0401126
0.0407953
0.0414479
0.0420475
0.0425669
0.0429696
0.0432128
0.0432512
0.0430366
0.0425183
0.0416464
0.0403776
0.0386754
0.0365108
0.0338872
0.0308176
0.0273396
0.023498
0.019432
0.0152916
0.0112485
0.00741933
0.00356303
-0.00022842
-0.00359882
0.0294584
0.0295407
0.0296271
0.0297193
0.0298167
0.0299205
0.030031
0.0301494
0.0302767
0.0304141
0.030563
0.0307241
0.0308994
0.031089
0.031295
0.0315173
0.0317591
0.0320198
0.0323016
0.0326047
0.0329314
0.0332801
0.0336539
0.0340504
0.0344707
0.0349153
0.0353853
0.0358885
0.0364275
0.0370038
0.0376184
0.038268
0.0389507
0.039659
0.0403876
0.0411233
0.0418478
0.0425417
0.0431806
0.0437359
0.0441695
0.0444362
0.0444888
0.0442768
0.0437472
0.0428479
0.0415342
0.0397684
0.0375206
0.034794
0.0316031
0.0279911
0.0240078
0.019802
0.0155328
0.0113787
0.00745578
0.00351748
-0.000326165
-0.00377571
0.0297983
0.0298854
0.029977
0.0300749
0.0301787
0.0302896
0.0304078
0.0305348
0.030671
0.0308179
0.0309767
0.0311485
0.0313348
0.0315363
0.0317546
0.0319903
0.0322465
0.0325227
0.0328212
0.0331424
0.0334886
0.0338581
0.0342542
0.0346743
0.0351195
0.0355903
0.0360878
0.0366205
0.0371913
0.0378012
0.0384521
0.0391395
0.0398617
0.0406116
0.0413823
0.0421612
0.042929
0.0436654
0.0443447
0.0449371
0.0454021
0.0456927
0.0457596
0.04555
0.0450083
0.0440807
0.0427205
0.0408895
0.038557
0.0357264
0.032413
0.0286648
0.0245378
0.0201912
0.0157931
0.011529
0.00751279
0.00349261
-0.000404086
-0.0039351
0.030146
0.0302388
0.0303365
0.030441
0.0305515
0.0306695