/*--------------------------------*- C++ -*----------------------------------*\
  =========                 |
  \\      /  F ield         | OpenFOAM: The Open Source CFD Toolbox
   \\    /   O peration     | Website:  https://openfoam.org
    \\  /    A nd           | Version:  6.0
     \\/     M anipulation  |
\*---------------------------------------------------------------------------*/
FoamFile
{
    version     2.0;
    format      ascii;
    class       volVectorField;
    location    "18";
    object      U;
}
// * * * * * * * * * * * * * * * * * * * * * * * * * * * * * * * * * * * * * //

dimensions      [0 1 -1 0 0 0 0];

internalField   nonuniform List<vector> 
62000
(
(0.99616 0.0872415 -4.76537e-21)
(0.996162 0.0872384 3.97014e-21)
(0.996164 0.0872372 4.0883e-21)
(0.996165 0.0872359 -1.79598e-20)
(0.996167 0.0872349 -2.05823e-20)
(0.996169 0.087234 7.12039e-20)
(0.99617 0.0872332 -7.84371e-20)
(0.996172 0.0872326 4.56503e-20)
(0.996173 0.087232 -2.14355e-20)
(0.996175 0.0872315 -1.09746e-19)
(0.996176 0.0872309 -1.41683e-20)
(0.996177 0.0872304 1.53767e-19)
(0.996179 0.0872298 3.14289e-20)
(0.99618 0.0872291 -1.10143e-19)
(0.996181 0.0872284 1.7206e-19)
(0.996182 0.0872275 -9.12335e-20)
(0.996183 0.0872265 9.47002e-20)
(0.996184 0.0872253 -1.11264e-19)
(0.996185 0.087224 5.49508e-20)
(0.996186 0.0872224 -1.69513e-19)
(0.996187 0.0872206 2.2143e-19)
(0.996188 0.0872185 6.53781e-20)
(0.996189 0.0872162 9.45411e-20)
(0.996189 0.0872131 -4.29215e-19)
(0.99619 0.087209 1.55174e-19)
(0.996189 0.0872035 -9.21793e-20)
(0.996189 0.0871973 -6.3613e-22)
(0.996187 0.0871908 -6.97444e-20)
(0.996185 0.0871842 2.13488e-19)
(0.996182 0.0871774 -1.15733e-19)
(0.996178 0.0871704 2.72248e-19)
(0.996172 0.0871633 -5.51044e-19)
(0.996164 0.087156 5.2629e-20)
(0.996154 0.0871483 -1.76588e-19)
(0.996141 0.0871402 -5.58983e-20)
(0.996126 0.0871318 -1.77221e-19)
(0.996106 0.0871233 -4.95562e-20)
(0.996081 0.0871148 -5.14064e-20)
(0.99605 0.0871059 1.68814e-19)
(0.996012 0.0870956 7.75305e-19)
(0.995964 0.0870825 -1.86828e-19)
(0.995906 0.0870639 -1.06636e-18)
(0.995835 0.0870363 -1.6938e-18)
(0.99575 0.0869948 9.21186e-19)
(0.995648 0.0869332 2.86789e-19)
(0.995529 0.0868441 -1.33085e-18)
(0.99539 0.0867191 2.75953e-19)
(0.995231 0.0865496 -5.6838e-19)
(0.995052 0.0863249 -2.66052e-18)
(0.994856 0.0860345 -6.46679e-19)
(0.994647 0.0856647 -3.30932e-19)
(0.994437 0.0852025 -4.2483e-18)
(0.994236 0.0846331 6.83084e-19)
(0.994068 0.0839448 4.72054e-18)
(0.99395 0.0831166 1.17568e-18)
(0.993896 0.0821132 4.02879e-18)
(0.993929 0.0807741 -4.16066e-19)
(0.994047 0.0790526 -6.25465e-19)
(0.994846 0.0756081 1.53068e-18)
(0.980613 0.0655413 2.89176e-19)
(0.996119 0.087468 -1.28251e-21)
(0.99612 0.0874668 1.2298e-20)
(0.996121 0.0874686 5.12315e-21)
(0.996123 0.0874695 -2.19655e-20)
(0.996126 0.0874701 9.14107e-21)
(0.996129 0.0874704 -6.32867e-20)
(0.996132 0.0874703 5.79974e-20)
(0.996135 0.0874698 3.36725e-20)
(0.996137 0.0874689 -6.30197e-20)
(0.99614 0.0874677 2.69723e-21)
(0.996143 0.0874661 6.12583e-20)
(0.996145 0.0874641 2.02544e-22)
(0.996148 0.0874617 1.77433e-20)
(0.99615 0.087459 -1.51595e-19)
(0.996152 0.087456 3.04803e-19)
(0.996153 0.0874528 -2.69403e-19)
(0.996155 0.0874492 1.26564e-19)
(0.996156 0.0874454 -2.66254e-20)
(0.996157 0.0874414 -7.27754e-20)
(0.996158 0.087437 2.01667e-19)
(0.996159 0.0874324 -3.18393e-19)
(0.99616 0.0874271 1.85179e-19)
(0.996161 0.0874217 -2.36086e-19)
(0.99616 0.0874146 1.4079e-19)
(0.996159 0.0874063 1.28486e-19)
(0.996158 0.0873963 -8.2412e-20)
(0.996156 0.0873856 -4.61499e-23)
(0.996153 0.0873753 8.7114e-20)
(0.996149 0.0873658 7.12498e-20)
(0.996143 0.0873573 -1.42376e-19)
(0.996135 0.0873494 2.84166e-19)
(0.996124 0.0873426 5.63981e-20)
(0.996109 0.0873373 1.73114e-19)
(0.996088 0.0873339 1.20017e-20)
(0.996061 0.0873318 4.67808e-20)
(0.996029 0.0873298 -5.43058e-20)
(0.995989 0.087327 -1.63096e-19)
(0.995939 0.0873228 -8.15944e-20)
(0.995877 0.0873151 -4.47467e-19)
(0.995801 0.0873007 -5.11519e-19)
(0.995707 0.0872749 3.98869e-19)
(0.995594 0.0872315 2.41122e-19)
(0.995457 0.0871624 1.78625e-18)
(0.995295 0.0870582 1.03493e-19)
(0.995106 0.0869079 -2.78585e-18)
(0.994887 0.0867009 1.12006e-18)
(0.994638 0.086424 9.49016e-19)
(0.994357 0.0860653 1.11943e-18)
(0.994048 0.0856086 2.49185e-19)
(0.993718 0.0850377 5.16969e-20)
(0.993378 0.0843337 1.95894e-18)
(0.993054 0.0834809 5.31492e-18)
(0.992767 0.0824787 -3.57481e-18)
(0.992551 0.0813282 -8.60216e-18)
(0.99244 0.0800098 -2.04507e-18)
(0.992439 0.0784933 -1.36294e-18)
(0.992624 0.0765223 -3.1017e-18)
(0.992702 0.0741842 -1.50454e-18)
(0.994467 0.0697985 2.37524e-18)
(0.981021 0.0594287 9.88748e-19)
(0.99611 0.0878479 -6.27056e-21)
(0.996103 0.08784 -8.9249e-22)
(0.996099 0.0878389 9.72347e-22)
(0.996095 0.0878375 4.45303e-21)
(0.996094 0.0878356 1.26329e-20)
(0.996093 0.0878338 -1.19825e-20)
(0.996093 0.0878317 6.40525e-20)
(0.996095 0.0878291 -3.0514e-20)
(0.996097 0.0878259 -1.63977e-20)
(0.996099 0.0878221 -1.0104e-19)
(0.996102 0.0878176 8.5181e-20)
(0.996104 0.0878125 6.27007e-21)
(0.996107 0.0878067 -1.95167e-20)
(0.996109 0.0878005 5.18576e-20)
(0.996112 0.0877937 -8.87917e-20)
(0.996113 0.0877867 5.43534e-22)
(0.996115 0.0877794 -4.08524e-20)
(0.996116 0.0877719 6.85955e-22)
(0.996117 0.0877645 9.49438e-20)
(0.996118 0.0877567 -1.44781e-19)
(0.996119 0.0877493 9.04269e-20)
(0.996119 0.0877413 3.52262e-19)
(0.996118 0.0877339 -4.68585e-20)
(0.996117 0.0877244 -4.91998e-19)
(0.996115 0.0877154 2.50081e-19)
(0.996114 0.0877061 -1.31744e-19)
(0.996111 0.0876968 2.09345e-19)
(0.996108 0.0876883 -1.24408e-19)
(0.996104 0.0876817 -2.40091e-19)
(0.996099 0.0876767 2.49999e-19)
(0.996091 0.0876726 -1.73306e-19)
(0.99608 0.0876696 2.27999e-19)
(0.996064 0.0876689 -6.21183e-19)
(0.996043 0.087671 5.45781e-19)
(0.996017 0.0876746 -2.87862e-19)
(0.995985 0.0876771 1.18444e-19)
(0.995946 0.0876769 8.883e-20)
(0.995899 0.0876723 -2.38813e-21)
(0.995841 0.0876604 -1.62308e-20)
(0.995771 0.087637 5.2661e-19)
(0.995687 0.0875968 -2.08076e-19)
(0.995586 0.0875331 3.27197e-19)
(0.995468 0.0874382 -1.14618e-18)
(0.995329 0.087304 -5.65051e-19)
(0.995169 0.0871211 6.39842e-19)
(0.994985 0.0868822 -2.1047e-18)
(0.994777 0.086576 2.98625e-19)
(0.994544 0.0861932 -1.86581e-18)
(0.994286 0.0857173 2.65415e-18)
(0.994012 0.0851314 7.01393e-19)
(0.993734 0.0844184 3.30758e-19)
(0.993482 0.0835678 -1.42872e-19)
(0.993274 0.0826012 1.49965e-18)
(0.993143 0.0815517 3.04185e-19)
(0.993129 0.0804235 -2.95225e-18)
(0.993209 0.0792283 -1.64722e-18)
(0.993511 0.0777383 -1.06691e-18)
(0.993356 0.0760779 -3.42548e-18)
(0.995201 0.0733548 -2.94877e-19)
(0.98677 0.0689841 3.42948e-19)
(0.996107 0.0882675 -6.29512e-21)
(0.996094 0.0882532 1.92424e-20)
(0.996083 0.0882464 -2.93547e-21)
(0.996073 0.0882412 -1.97631e-20)
(0.996064 0.0882357 2.97313e-20)
(0.996057 0.0882306 5.11679e-20)
(0.996052 0.0882258 -6.65703e-20)
(0.996048 0.0882208 7.20514e-21)
(0.996046 0.0882156 2.29437e-20)
(0.996045 0.0882102 4.76081e-20)
(0.996046 0.0882043 -8.77827e-20)
(0.996047 0.0881977 -2.6949e-20)
(0.996049 0.0881905 -3.00102e-20)
(0.996052 0.0881826 1.3662e-19)
(0.996054 0.088174 -9.08942e-20)
(0.996057 0.0881649 2.11543e-19)
(0.996059 0.0881554 -2.55921e-19)
(0.996062 0.0881456 -3.72731e-20)
(0.996064 0.0881357 2.6825e-19)
(0.996065 0.0881254 -9.34769e-20)
(0.996067 0.0881159 -3.42496e-20)
(0.996067 0.0881056 -3.64299e-20)
(0.996067 0.0880965 -3.30049e-19)
(0.996067 0.0880849 1.90759e-19)
(0.996066 0.0880751 -8.4306e-20)
(0.996065 0.0880659 1.33257e-19)
(0.996063 0.088057 6.02773e-20)
(0.99606 0.0880485 2.88627e-19)
(0.996056 0.088042 -1.77419e-19)
(0.996051 0.0880366 -2.25114e-19)
(0.996043 0.0880313 3.46154e-19)
(0.996032 0.0880262 -2.79052e-19)
(0.996018 0.0880224 5.05388e-19)
(0.995997 0.0880203 -3.00169e-19)
(0.995972 0.0880181 1.26979e-19)
(0.995943 0.0880128 2.12138e-19)
(0.995907 0.0880019 -8.79408e-20)
(0.995866 0.0879835 1.04262e-19)
(0.995816 0.0879541 -5.49346e-20)
(0.995757 0.0879096 1.55336e-19)
(0.995688 0.0878451 -4.50235e-19)
(0.995607 0.0877546 1.24531e-19)
(0.995513 0.0876316 2.66891e-19)
(0.995405 0.0874703 6.46025e-19)
(0.995282 0.0872631 8.68242e-19)
(0.99514 0.0870051 2.20728e-19)
(0.994978 0.086686 1.33137e-18)
(0.994793 0.0862962 1.46494e-18)
(0.994584 0.0858166 1.66201e-18)
(0.994355 0.0852264 -1.22175e-18)
(0.994116 0.0845037 -1.70165e-18)
(0.993894 0.0836353 1.06122e-18)
(0.993705 0.0826469 1.40465e-18)
(0.993583 0.0815881 3.6501e-18)
(0.993576 0.0804715 2.31337e-18)
(0.993644 0.0793264 3.51391e-18)
(0.993984 0.0779585 6.13613e-18)
(0.993656 0.0764199 -3.45692e-19)
(0.995179 0.0743934 -3.05621e-18)
(0.988998 0.0710287 -2.3743e-18)
(0.996095 0.0886343 1.22378e-20)
(0.996086 0.0886193 -4.0796e-21)
(0.996074 0.0886092 6.81906e-21)
(0.996062 0.0886019 -9.60104e-21)
(0.996049 0.0885945 2.14644e-20)
(0.996037 0.0885878 -1.05791e-20)
(0.996027 0.0885818 5.67291e-21)
(0.996017 0.0885761 -8.40113e-20)
(0.99601 0.0885707 7.00392e-20)
(0.996004 0.0885655 -1.3921e-19)
(0.996 0.0885601 1.52484e-19)
(0.995997 0.0885544 -1.83518e-20)
(0.995996 0.0885481 -4.02318e-20)
(0.995996 0.0885413 -1.82671e-20)
(0.995996 0.0885337 -3.90925e-21)
(0.995998 0.0885255 -1.83447e-19)
(0.996 0.0885166 8.47666e-21)
(0.996002 0.088507 1.98092e-19)
(0.996005 0.0884972 -6.39439e-20)
(0.996007 0.0884866 -6.69832e-20)
(0.996009 0.0884767 1.12754e-19)
(0.996011 0.0884656 -5.56145e-20)
(0.996012 0.0884555 2.33308e-19)
(0.996013 0.0884422 1.27137e-19)
(0.996014 0.088431 9.51015e-20)
(0.996014 0.08842 -2.90297e-19)
(0.996012 0.0884087 -3.96116e-20)
(0.996009 0.0883967 -2.13293e-19)
(0.996005 0.0883858 3.93722e-20)
(0.995998 0.0883751 -6.70991e-20)
(0.99599 0.0883632 -2.5807e-20)
(0.995979 0.08835 2.04579e-19)
(0.995963 0.0883366 -5.08353e-19)
(0.995943 0.0883231 -2.29306e-20)
(0.995919 0.0883075 -2.50487e-19)
(0.995889 0.0882866 -1.21085e-19)
(0.995855 0.088258 3.0145e-20)
(0.995815 0.0882193 -3.75244e-19)
(0.995768 0.0881673 5.65161e-19)
(0.995715 0.0880981 9.20254e-20)
(0.995654 0.0880073 6.0948e-19)
(0.995584 0.0878896 -4.36968e-19)
(0.995505 0.0877396 -2.94004e-19)
(0.995414 0.0875523 -1.19768e-19)
(0.995313 0.0873215 6.24349e-19)
(0.995197 0.0870433 9.12101e-19)
(0.995065 0.0867074 2.01412e-19)
(0.994911 0.0863036 3.52431e-19)
(0.994733 0.0858105 -6.22677e-19)
(0.99453 0.0852034 3.07768e-18)
(0.994305 0.0844542 7.59623e-19)
(0.994083 0.0835412 -8.17933e-19)
(0.993872 0.0824815 1.08126e-19)
(0.993708 0.0813218 2.70231e-18)
(0.993648 0.0800684 -6.66313e-20)
(0.993651 0.0787505 -2.79574e-18)
(0.993986 0.0772151 -6.06228e-18)
(0.993624 0.075478 5.38351e-18)
(0.994725 0.0735492 -2.98328e-18)
(0.990166 0.070224 2.71091e-18)
(0.996063 0.0889606 -4.66604e-21)
(0.996062 0.0889462 1.87859e-20)
(0.996057 0.0889363 -3.08694e-20)
(0.996049 0.0889285 2.29882e-20)
(0.99604 0.0889208 1.48787e-20)
(0.996028 0.0889135 -1.57166e-20)
(0.996016 0.0889069 1.30968e-21)
(0.996005 0.0889007 -1.17219e-20)
(0.995993 0.088895 -3.92952e-20)
(0.995983 0.0888898 7.50726e-20)
(0.995974 0.0888848 -1.1589e-19)
(0.995966 0.0888798 1.00983e-19)
(0.99596 0.0888746 8.85501e-20)
(0.995955 0.088869 -1.36419e-19)
(0.995952 0.0888628 -4.42684e-20)
(0.99595 0.0888559 1.65508e-19)
(0.995949 0.0888483 -1.99368e-19)
(0.99595 0.0888398 2.74153e-19)
(0.99595 0.0888309 -5.21349e-20)
(0.995952 0.0888208 2.91022e-20)
(0.995953 0.0888112 -4.75289e-20)
(0.995955 0.0887999 -5.92446e-20)
(0.995956 0.0887895 -1.09182e-19)
(0.995958 0.088775 1.88141e-19)
(0.995959 0.0887622 -1.27584e-19)
(0.995959 0.0887483 -1.20506e-19)
(0.995958 0.0887332 2.40408e-19)
(0.995954 0.088716 -2.22867e-19)
(0.995948 0.0886987 3.45023e-19)
(0.995941 0.0886804 -1.80288e-19)
(0.995931 0.0886596 1.33008e-19)
(0.995919 0.0886361 -2.20769e-19)
(0.995903 0.0886109 2.31838e-19)
(0.995883 0.088584 -2.13167e-20)
(0.995858 0.0885536 -1.20173e-20)
(0.995828 0.0885161 -6.3033e-21)
(0.995794 0.0884692 -1.18176e-19)
(0.995755 0.0884106 3.30782e-19)
(0.995712 0.0883373 -2.53498e-19)
(0.995663 0.0882458 -1.42162e-18)
(0.995609 0.0881323 -5.8962e-19)
(0.995548 0.0879918 4.15484e-19)
(0.995482 0.0878196 -4.52104e-19)
(0.995409 0.0876115 -4.98961e-19)
(0.99533 0.0873622 -3.9688e-20)
(0.995245 0.0870692 1.24467e-18)
(0.995151 0.0867242 -1.80807e-18)
(0.995044 0.0863191 -1.82554e-18)
(0.99492 0.0858352 -1.22713e-18)
(0.994774 0.0852495 -2.03437e-18)
(0.994603 0.0845331 1.26646e-18)
(0.994422 0.0836589 -5.31992e-19)
(0.99423 0.0826323 -4.29767e-18)
(0.994057 0.0814887 7.44802e-19)
(0.993964 0.0802204 1.2988e-18)
(0.993906 0.0788457 -2.29112e-18)
(0.994209 0.0772555 1.75286e-18)
(0.993874 0.0754625 1.32471e-18)
(0.994522 0.0737373 4.84483e-18)
(0.991446 0.0711994 -1.23695e-19)
(0.995997 0.0893037 5.52012e-21)
(0.996004 0.0892848 -2.48144e-20)
(0.996007 0.0892731 1.20595e-20)
(0.996008 0.0892628 2.24436e-20)
(0.996005 0.0892527 -4.79972e-20)
(0.996 0.0892431 4.00901e-20)
(0.995993 0.0892342 -2.6628e-20)
(0.995983 0.0892258 2.24883e-20)
(0.995973 0.0892178 3.5723e-20)
(0.995962 0.0892105 -8.55251e-20)
(0.995952 0.0892035 1.22892e-19)
(0.995942 0.0891966 5.17851e-20)
(0.995932 0.0891899 -2.05667e-19)
(0.995924 0.0891831 -3.82495e-20)
(0.995917 0.0891761 1.0822e-19)
(0.995912 0.0891686 6.92605e-20)
(0.995907 0.0891606 -8.36765e-20)
(0.995904 0.089152 7.29978e-20)
(0.995902 0.0891429 1.12343e-19)
(0.995901 0.0891327 -5.45736e-20)
(0.995901 0.0891228 -3.1121e-20)
(0.995901 0.089111 1.10243e-19)
(0.995901 0.0890998 2.25634e-19)
(0.995902 0.0890841 -1.63504e-19)
(0.995902 0.0890694 -1.77816e-19)
(0.995901 0.0890525 1.90673e-19)
(0.995898 0.0890334 -1.42641e-19)
(0.995893 0.0890107 -5.60659e-20)
(0.995885 0.0889869 4.52094e-19)
(0.995875 0.0889607 -1.93358e-19)
(0.995863 0.0889307 -1.43783e-19)
(0.995849 0.0888966 1.87538e-19)
(0.995831 0.0888598 1.26952e-19)
(0.995809 0.0888202 -1.11321e-19)
(0.995782 0.0887756 -7.44941e-20)
(0.99575 0.0887226 2.34636e-19)
(0.995714 0.0886583 5.06843e-20)
(0.995674 0.0885805 7.76214e-20)
(0.995629 0.0884864 -4.07533e-19)
(0.99558 0.088373 -3.92629e-19)
(0.995527 0.0882366 7.55931e-19)
(0.995469 0.0880723 5.94427e-19)
(0.995408 0.0878752 9.87627e-19)
(0.995344 0.0876412 -9.10121e-19)
(0.995281 0.0873661 -1.00392e-18)
(0.995219 0.0870488 -6.59719e-19)
(0.99516 0.0866843 1.60492e-18)
(0.9951 0.0862695 1.56169e-18)
(0.995038 0.0857926 -1.72048e-18)
(0.994967 0.0852387 -2.49915e-18)
(0.994877 0.0845844 -4.69246e-19)
(0.994776 0.0838036 4.89011e-19)
(0.99465 0.0828922 7.21145e-20)
(0.994515 0.081871 -1.48806e-18)
(0.994428 0.0807123 1.27249e-18)
(0.994336 0.0794099 7.77534e-19)
(0.994593 0.0778804 1.13839e-18)
(0.994299 0.0761078 -4.17878e-18)
(0.99455 0.0745807 -3.03303e-19)
(0.992181 0.0724444 1.25352e-20)
(0.995897 0.089683 -9.32101e-21)
(0.995905 0.0896564 -7.42301e-21)
(0.995913 0.0896392 1.00493e-20)
(0.99592 0.0896237 3.54588e-20)
(0.995925 0.0896081 -7.61186e-20)
(0.995928 0.0895934 8.67593e-20)
(0.995928 0.0895793 -3.89153e-21)
(0.995926 0.089566 -5.36368e-21)
(0.995922 0.0895533 -3.05532e-20)
(0.995916 0.0895414 7.37561e-20)
(0.995908 0.0895301 -1.13126e-19)
(0.9959 0.0895192 4.2432e-20)
(0.995892 0.0895087 -1.39338e-21)
(0.995884 0.0894984 6.56625e-20)
(0.995877 0.0894881 3.10132e-20)
(0.99587 0.0894777 -1.64487e-19)
(0.995864 0.0894672 1.42032e-19)
(0.995859 0.0894562 5.54612e-20)
(0.995855 0.0894451 -1.58869e-19)
(0.995851 0.0894329 7.76126e-20)
(0.995849 0.0894212 3.57564e-20)
(0.995847 0.0894076 -2.36902e-20)
(0.995845 0.0893946 2.94109e-20)
(0.995844 0.0893769 -1.7059e-20)
(0.995843 0.08936 -1.93711e-19)
(0.995839 0.0893398 1.23294e-19)
(0.995833 0.0893169 -1.81552e-19)
(0.995825 0.0892892 3.24447e-19)
(0.995813 0.0892594 -6.02373e-20)
(0.9958 0.0892259 -3.47342e-20)
(0.995783 0.0891873 -9.50767e-21)
(0.995764 0.0891433 3.05273e-19)
(0.995742 0.0890955 -1.22868e-19)
(0.995714 0.0890439 -7.30848e-20)
(0.995681 0.0889862 1.84224e-19)
(0.995642 0.0889184 1.55074e-19)
(0.995598 0.0888371 -2.57718e-19)
(0.995549 0.0887396 4.63988e-20)
(0.995494 0.0886234 4.87841e-19)
(0.995435 0.0884855 -4.32809e-20)
(0.995369 0.0883218 3.07402e-19)
(0.995298 0.0881266 -4.41097e-19)
(0.995223 0.0878941 6.63985e-19)
(0.995146 0.0876194 1.43775e-18)
(0.995072 0.0872978 4.13613e-19)
(0.995003 0.0869291 -5.73929e-19)
(0.994945 0.0865107 -1.75333e-18)
(0.994898 0.0860449 3.47993e-19)
(0.994864 0.0855277 5.23954e-19)
(0.994836 0.0849552 1.06585e-18)
(0.994804 0.0843133 -8.95579e-20)
(0.99477 0.0835812 -2.06334e-18)
(0.994712 0.0827499 1.77891e-18)
(0.994632 0.0818259 -1.19832e-18)
(0.994578 0.0807614 2.37072e-18)
(0.994487 0.0795165 5.76451e-19)
(0.994721 0.0780182 2.52979e-18)
(0.994516 0.0762017 3.2657e-18)
(0.994554 0.0747164 5.09315e-19)
(0.992263 0.0724878 7.2233e-19)
(0.99579 0.090067 -4.52903e-21)
(0.99579 0.0900332 3.87792e-21)
(0.995795 0.0900088 1.94049e-20)
(0.995802 0.0899871 3.05802e-20)
(0.99581 0.0899651 -9.0055e-20)
(0.995818 0.0899443 5.15657e-20)
(0.995825 0.0899247 -9.17453e-20)
(0.99583 0.089906 1.4279e-19)
(0.995833 0.0898882 -6.65353e-20)
(0.995835 0.0898713 1.16658e-20)
(0.995834 0.0898553 1.26706e-19)
(0.995832 0.0898398 -2.86607e-19)
(0.995829 0.0898249 1.94064e-19)
(0.995825 0.0898105 2.70476e-20)
(0.99582 0.0897963 4.3421e-20)
(0.995815 0.0897823 -1.81066e-19)
(0.99581 0.0897685 8.83749e-20)
(0.995806 0.0897545 -1.08679e-19)
(0.995802 0.0897406 2.13012e-19)
(0.995798 0.0897259 -2.84175e-20)
(0.995794 0.0897119 -2.664e-19)
(0.995791 0.0896958 1.05085e-19)
(0.995787 0.0896804 -6.06013e-21)
(0.995783 0.0896603 -3.80824e-19)
(0.995779 0.0896409 2.80292e-19)
(0.995772 0.0896176 2.03535e-19)
(0.995762 0.0895911 1.32898e-19)
(0.995749 0.0895592 -1.66515e-19)
(0.995733 0.0895242 -1.7693e-19)
(0.995713 0.0894844 8.02489e-20)
(0.995691 0.0894381 1.15001e-19)
(0.995665 0.0893852 -1.37545e-19)
(0.995635 0.0893274 -1.99709e-19)
(0.995599 0.089265 4.08306e-19)
(0.995556 0.0891952 4.29541e-20)
(0.995506 0.0891136 -5.94709e-19)
(0.995449 0.0890159 5.19538e-20)
(0.995386 0.0888992 3.87645e-19)
(0.995315 0.0887605 3.42151e-20)
(0.995236 0.0885969 5.0385e-19)
(0.995148 0.0884034 -6.89675e-19)
(0.99505 0.088173 -4.12731e-20)
(0.994945 0.0878981 -4.45728e-19)
(0.994833 0.0875717 1.63664e-19)
(0.994721 0.0871876 7.31146e-19)
(0.994614 0.0867445 2.2445e-18)
(0.994519 0.0862407 3.25277e-19)
(0.994439 0.0856816 -1.46022e-18)
(0.994383 0.0850699 1.12799e-18)
(0.994346 0.0844113 3.97155e-18)
(0.994322 0.0837021 -3.18936e-18)
(0.994311 0.0829291 3.79022e-18)
(0.994291 0.0820828 -2.29902e-18)
(0.994257 0.0811608 -1.26081e-18)
(0.994248 0.0801023 -4.90181e-18)
(0.994199 0.0788391 -2.58812e-19)
(0.994463 0.0773104 -1.509e-18)
(0.994426 0.075425 -1.59885e-18)
(0.994486 0.0739463 1.08273e-18)
(0.99234 0.071848 1.65718e-20)
(0.995717 0.0904055 6.2892e-21)
(0.995702 0.0903704 2.18991e-21)
(0.995695 0.0903424 -2.26104e-20)
(0.995694 0.0903178 2.14579e-20)
(0.995697 0.0902925 -9.46394e-21)
(0.995703 0.0902684 1.68322e-20)
(0.995711 0.0902455 5.73172e-21)
(0.995719 0.0902236 -8.31409e-20)
(0.995727 0.0902028 3.59286e-20)
(0.995734 0.090183 -2.42198e-20)
(0.99574 0.0901643 1.46769e-20)
(0.995744 0.0901463 5.63598e-20)
(0.995747 0.0901289 -1.05354e-20)
(0.995749 0.0901121 3.38787e-20)
(0.995749 0.0900956 -1.42274e-19)
(0.995748 0.0900792 5.45536e-20)
(0.995746 0.0900631 2.37199e-20)
(0.995744 0.0900469 -6.41495e-20)
(0.995741 0.0900308 1.26232e-19)
(0.995738 0.0900139 4.09324e-20)
(0.995734 0.0899978 -4.72762e-21)
(0.99573 0.0899795 -4.41458e-20)
(0.995725 0.0899618 1.75083e-19)
(0.995719 0.0899394 -4.78052e-19)
(0.995711 0.0899177 2.44833e-19)
(0.9957 0.0898916 1.00123e-19)
(0.995685 0.0898621 -1.61413e-19)
(0.995666 0.0898265 2.75733e-19)
(0.995645 0.0897873 -1.30316e-19)
(0.995619 0.0897422 -6.55151e-20)
(0.99559 0.0896893 -1.23632e-19)
(0.995557 0.0896287 -4.79508e-20)
(0.995518 0.0895621 1.33074e-19)
(0.995474 0.08949 -3.9247e-19)
(0.995421 0.0894098 7.29559e-19)
(0.99536 0.0893161 -4.95344e-20)
(0.995291 0.0892042 3.63827e-19)
(0.995215 0.0890706 -9.16296e-19)
(0.995129 0.0889125 -2.83612e-19)
(0.995033 0.0887265 9.59426e-22)
(0.994923 0.0885071 -2.02796e-19)
(0.994799 0.0882456 -2.53399e-20)
(0.994661 0.0879323 -7.40002e-19)
(0.994512 0.0875581 2.305e-19)
(0.994357 0.0871142 3.56562e-19)
(0.994199 0.086597 -2.0767e-18)
(0.99405 0.086004 2.65829e-18)
(0.993915 0.085341 4.02149e-19)
(0.993805 0.0846146 9.971e-20)
(0.993722 0.0838376 -2.70648e-18)
(0.993664 0.0830148 9.73729e-19)
(0.993637 0.0821412 -2.01308e-18)
(0.993623 0.0812105 3.86035e-18)
(0.993617 0.0802186 8.33082e-19)
(0.993658 0.0791035 -3.13455e-18)
(0.993683 0.0777832 1.16584e-18)
(0.994025 0.0762211 -3.18161e-18)
(0.994213 0.0743406 -6.39341e-19)
(0.994461 0.0729884 -4.12351e-18)
(0.992944 0.0715576 -1.11619e-18)
(0.995709 0.0906732 -1.38856e-21)
(0.995677 0.0906412 -5.42908e-21)
(0.995654 0.0906142 -4.70515e-21)
(0.995637 0.0905908 4.51913e-20)
(0.995628 0.0905667 -2.49526e-20)
(0.995624 0.0905436 -2.97928e-20)
(0.995626 0.0905218 -1.11102e-20)
(0.99563 0.0905009 -4.53748e-20)
(0.995637 0.090481 2.82394e-20)
(0.995644 0.0904622 4.07852e-21)
(0.995652 0.0904442 1.46678e-21)
(0.99566 0.0904269 1.1782e-19)
(0.995666 0.0904102 -8.29654e-20)
(0.995671 0.0903939 -1.01283e-20)
(0.995675 0.0903778 9.35156e-20)
(0.995678 0.0903618 -5.11977e-20)
(0.995679 0.0903458 -1.94859e-20)
(0.995679 0.0903297 3.12821e-20)
(0.995678 0.0903136 9.96756e-20)
(0.995676 0.0902965 5.40675e-20)
(0.995672 0.0902799 1.93053e-20)
(0.995667 0.0902608 -1.35044e-19)
(0.99566 0.090242 6.75088e-20)
(0.995651 0.090218 1.28611e-19)
(0.99564 0.0901945 -2.6416e-19)
(0.995623 0.0901661 8.1713e-20)
(0.995603 0.090134 -3.1308e-19)
(0.995579 0.0900951 2.45965e-19)
(0.995551 0.0900521 2.07334e-19)
(0.99552 0.0900023 -3.11941e-19)
(0.995485 0.0899437 -1.44168e-19)
(0.995445 0.0898762 1.85986e-19)
(0.9954 0.0898021 6.11877e-20)
(0.995349 0.0897217 -1.63618e-19)
(0.99529 0.0896323 -2.02777e-19)
(0.995224 0.0895286 -2.38577e-19)
(0.995149 0.0894053 1.47618e-19)
(0.995067 0.089259 3.47738e-19)
(0.994976 0.0890869 1.23454e-19)
(0.994872 0.0888859 -1.09757e-19)
(0.994753 0.0886498 1.1712e-18)
(0.994617 0.088369 -1.15099e-19)
(0.994463 0.0880321 1.21864e-18)
(0.994293 0.0876282 -2.18817e-18)
(0.99411 0.087146 3.16007e-19)
(0.993917 0.0865793 7.50584e-20)
(0.993726 0.0859233 -2.01554e-19)
(0.993541 0.085183 -1.7472e-18)
(0.993378 0.0843654 -2.92086e-18)
(0.993241 0.0834876 2.63177e-18)
(0.993136 0.0825596 3.48153e-18)
(0.993075 0.0815834 1.81027e-18)
(0.993046 0.0805579 -3.69363e-18)
(0.993054 0.0794825 1.93596e-18)
(0.993139 0.0783044 4.76763e-18)
(0.993247 0.0769425 1.70857e-18)
(0.993688 0.0753912 3.10455e-18)
(0.994103 0.0736171 1.39468e-18)
(0.99458 0.0725243 3.52854e-18)
(0.99411 0.0720619 -2.2567e-18)
(0.995772 0.0908815 1.78177e-21)
(0.995727 0.0908551 -5.32075e-21)
(0.99569 0.0908327 1.89143e-20)
(0.995657 0.0908139 4.91732e-21)
(0.995632 0.0907945 -2.57352e-20)
(0.995614 0.0907761 -2.94675e-20)
(0.995602 0.0907587 6.93309e-20)
(0.995595 0.0907422 -7.51724e-20)
(0.995593 0.0907266 -1.83065e-20)
(0.995594 0.0907121 4.57394e-20)
(0.995598 0.0906983 4.19773e-20)
(0.995602 0.0906851 1.26483e-19)
(0.995607 0.0906723 -7.08371e-20)
(0.995612 0.0906598 -1.20239e-19)
(0.995616 0.0906471 2.62566e-20)
(0.995619 0.0906341 -9.61917e-20)
(0.995621 0.0906209 7.1848e-20)
(0.995621 0.090607 -1.19171e-19)
(0.99562 0.0905928 1.95917e-20)
(0.995616 0.0905771 -3.78127e-20)
(0.995611 0.0905616 -2.33454e-20)
(0.995604 0.0905429 -1.02779e-19)
(0.995594 0.0905241 1.0179e-20)
(0.995582 0.0904994 2.20243e-19)
(0.995566 0.0904745 -7.3647e-20)
(0.995544 0.0904441 2.2715e-20)
(0.995518 0.0904094 6.28806e-20)
(0.995488 0.0903671 -7.96792e-20)
(0.995455 0.0903202 -1.59528e-20)
(0.995419 0.0902657 1.05098e-19)
(0.995379 0.0902015 1.13292e-19)
(0.995335 0.0901277 -8.25074e-20)
(0.995287 0.0900462 -2.55177e-19)
(0.995233 0.089958 -3.53276e-19)
(0.995174 0.0898606 5.35948e-19)
(0.995108 0.0897482 1.43163e-19)
(0.995036 0.0896162 9.01147e-20)
(0.994959 0.0894612 4.3601e-19)
(0.994873 0.089281 -3.96895e-19)
(0.994777 0.089073 2.42924e-19)
(0.994666 0.0888311 -5.27822e-21)
(0.994538 0.0885453 2.88957e-20)
(0.994391 0.0882036 -4.46195e-19)
(0.994224 0.0877939 9.95371e-19)
(0.994041 0.0873035 -1.28529e-18)
(0.993842 0.0867238 7.63167e-19)
(0.993637 0.0860476 -2.24178e-18)
(0.99343 0.0852775 7.23113e-19)
(0.993236 0.0844195 1.53065e-18)
(0.993062 0.0834913 -2.5805e-18)
(0.992918 0.0825048 -8.18001e-19)
(0.992823 0.0814662 -3.20519e-19)
(0.992776 0.0803792 -5.25976e-19)
(0.992787 0.0792485 -1.87339e-18)
(0.992902 0.0780359 1.60747e-19)
(0.993082 0.0766694 1.27875e-18)
(0.993608 0.0751717 -1.50593e-18)
(0.994208 0.0735573 -4.12254e-19)
(0.994854 0.0727588 -6.27086e-19)
(0.995544 0.0731867 1.50868e-18)
(0.995876 0.0910766 3.29344e-21)
(0.995833 0.0910533 -2.76845e-21)
(0.995789 0.0910353 2.52418e-21)
(0.995748 0.0910208 1.61067e-20)
(0.995709 0.0910064 2.32985e-20)
(0.995676 0.0909932 -9.03676e-20)
(0.995649 0.0909813 6.49679e-20)
(0.995628 0.0909705 1.34363e-20)
(0.995612 0.0909605 -4.03948e-21)
(0.995601 0.0909516 -2.86924e-20)
(0.995594 0.0909433 8.72347e-20)
(0.995589 0.0909355 -2.82622e-20)
(0.995587 0.0909279 -3.87312e-20)
(0.995585 0.0909203 -1.14329e-19)
(0.995584 0.0909123 2.26943e-19)
(0.995583 0.0909038 -4.6881e-20)
(0.99558 0.0908946 -3.88906e-20)
(0.995577 0.0908844 -1.13555e-19)
(0.995572 0.0908735 1.24393e-19)
(0.995565 0.0908606 6.80667e-20)
(0.995556 0.0908471 -3.09646e-20)
(0.995544 0.09083 5.26461e-20)
(0.99553 0.0908118 -2.22609e-19)
(0.995514 0.0907869 1.55708e-20)
(0.995492 0.0907608 1.20487e-19)
(0.995465 0.0907282 -2.21456e-20)
(0.995432 0.0906903 -3.4273e-19)
(0.995397 0.0906439 3.11048e-20)
(0.995358 0.0905921 2.84779e-19)
(0.995317 0.0905322 -7.2962e-20)
(0.995274 0.090462 -1.38143e-19)
(0.995228 0.0903812 7.6853e-20)
(0.995179 0.0902924 2.23744e-19)
(0.995126 0.0901962 5.15655e-19)
(0.99507 0.0900904 -7.92372e-20)
(0.995011 0.0899701 9.86421e-20)
(0.994949 0.0898306 -7.57561e-19)
(0.994884 0.0896694 -2.17346e-19)
(0.994814 0.0894851 1.34262e-19)
(0.994737 0.0892761 -5.43159e-19)
(0.994648 0.0890371 -1.2204e-19)
(0.994544 0.0887579 2.52589e-19)
(0.994423 0.0884273 1.82661e-19)
(0.994284 0.0880328 5.28938e-19)
(0.994126 0.0875612 1.77714e-18)
(0.99395 0.0870025 -1.4037e-18)
(0.993761 0.0863474 2.21808e-18)
(0.993562 0.0855957 1.73391e-18)
(0.993367 0.0847507 1.85281e-20)
(0.993181 0.0838283 2.1981e-18)
(0.993019 0.0828395 -3.10416e-18)
(0.992902 0.0817909 -3.63781e-18)
(0.992839 0.0806887 2.78168e-18)
(0.992848 0.0795415 2.32189e-18)
(0.99298 0.078326 -8.50669e-19)
(0.993208 0.0769812 -5.1776e-18)
(0.993789 0.0755488 1.22639e-18)
(0.994512 0.0740793 -9.20246e-19)
(0.995234 0.0735038 -1.33174e-18)
(0.996911 0.0745099 7.62368e-19)
(0.99597 0.0913124 -3.51434e-21)
(0.995943 0.0912895 3.83151e-21)
(0.995908 0.0912738 2.59683e-20)
(0.995868 0.0912615 -3.37398e-20)
(0.995826 0.0912502 6.0983e-20)
(0.995785 0.0912402 -8.9069e-20)
(0.995747 0.0912318 2.50418e-20)
(0.995713 0.0912246 -1.20186e-21)
(0.995683 0.0912185 5.47778e-20)
(0.995658 0.0912135 -2.86537e-20)
(0.995637 0.0912094 8.35972e-21)
(0.99562 0.0912057 8.54014e-21)
(0.995605 0.0912022 -1.32362e-19)
(0.995593 0.0911986 3.94427e-20)
(0.995582 0.0911944 9.00821e-20)
(0.995571 0.0911894 2.61701e-21)
(0.99556 0.0911834 -1.47292e-19)
(0.995549 0.0911759 5.94828e-20)
(0.995537 0.0911674 2.74304e-19)
(0.995523 0.0911564 -1.7772e-19)
(0.995508 0.0911444 -1.32877e-19)
(0.99549 0.0911281 1.11797e-19)
(0.995469 0.0911101 7.02725e-20)
(0.995446 0.0910845 7.74207e-20)
(0.995419 0.0910564 -1.48101e-19)
(0.995384 0.0910208 -3.08018e-19)
(0.995345 0.0909786 2.25194e-19)
(0.995303 0.0909268 3.07167e-19)
(0.995259 0.0908689 7.92323e-20)
(0.995214 0.0908022 -1.54718e-19)
(0.995168 0.0907248 6.89118e-20)
(0.99512 0.0906364 1.09659e-19)
(0.995072 0.0905389 -1.88765e-19)
(0.995022 0.0904337 -3.30095e-20)
(0.994972 0.0903191 -3.20005e-19)
(0.994922 0.0901899 -8.55743e-20)
(0.994872 0.0900429 -7.25441e-20)
(0.994824 0.0898761 2.08086e-19)
(0.994774 0.0896891 -2.81287e-19)
(0.994721 0.0894818 8.19179e-20)
(0.994661 0.0892496 1.25206e-19)
(0.99459 0.0889832 2.90266e-20)
(0.994506 0.0886723 -7.84068e-19)
(0.994407 0.0883054 -1.06166e-18)
(0.99429 0.0878694 -9.55677e-19)
(0.994155 0.0873537 1.801e-18)
(0.994002 0.0867476 -9.20258e-20)
(0.993834 0.0860482 -7.59744e-19)
(0.993662 0.0852552 3.72552e-19)
(0.993487 0.0843811 -2.377e-18)
(0.993326 0.0834332 1.18185e-18)
(0.993203 0.0824157 3.13244e-18)
(0.993133 0.0813338 -3.83025e-19)
(0.99314 0.0801977 -2.58529e-18)
(0.993277 0.0789953 1.26684e-18)
(0.993533 0.0776754 1.1576e-18)
(0.994138 0.0762877 1.13871e-18)
(0.994935 0.0749034 2.30345e-18)
(0.995652 0.0744253 1.70901e-18)
(0.998 0.0756459 -1.68809e-18)
(0.995998 0.0916373 -2.94733e-21)
(0.996002 0.0916088 4.23648e-21)
(0.99599 0.0915904 8.76399e-22)
(0.995966 0.0915754 1.59253e-20)
(0.995933 0.0915623 -2.40173e-20)
(0.995895 0.0915511 -4.89047e-20)
(0.995855 0.0915422 1.73743e-20)
(0.995814 0.0915349 -2.2915e-20)
(0.995776 0.0915291 4.94959e-20)
(0.99574 0.0915246 -9.894e-21)
(0.995706 0.091521 -3.2182e-20)
(0.995676 0.091518 2.64937e-20)
(0.995649 0.0915152 4.24642e-20)
(0.995624 0.0915123 1.15758e-19)
(0.9956 0.0915087 -2.0837e-19)
(0.995578 0.0915044 1.05265e-19)
(0.995556 0.0914989 1.57245e-20)
(0.995535 0.091492 -1.01456e-19)
(0.995512 0.0914837 -6.22741e-20)
(0.995489 0.0914728 2.02586e-19)
(0.995465 0.0914604 -2.09571e-19)
(0.995438 0.0914434 6.25381e-20)
(0.99541 0.0914241 -1.64369e-19)
(0.995378 0.0913962 2.72082e-19)
(0.995343 0.0913648 -5.42511e-20)
(0.995301 0.0913247 -1.45694e-19)
(0.995254 0.0912767 1.1368e-19)
(0.995205 0.0912178 2.03084e-19)
(0.995156 0.091152 -1.84486e-19)
(0.995106 0.0910771 1.09203e-19)
(0.995057 0.0909911 -3.52989e-19)
(0.995008 0.0908934 -3.61769e-20)
(0.994959 0.0907864 1.43548e-19)
(0.994913 0.090671 -8.26612e-20)
(0.994868 0.0905459 -1.62803e-19)
(0.994827 0.0904068 -3.76052e-19)
(0.994789 0.090251 4.71863e-19)
(0.994756 0.0900775 -1.80783e-19)
(0.994725 0.089887 1.39765e-19)
(0.994695 0.0896805 2.72444e-19)
(0.994661 0.0894546 2.05778e-19)
(0.994622 0.0892012 -1.20624e-19)
(0.994576 0.0889111 4.28783e-19)