/*--------------------------------*- C++ -*----------------------------------*\
  =========                 |
  \\      /  F ield         | OpenFOAM: The Open Source CFD Toolbox
   \\    /   O peration     | Website:  https://openfoam.org
    \\  /    A nd           | Version:  6.0
     \\/     M anipulation  |
\*---------------------------------------------------------------------------*/
FoamFile
{
    version     2.0;
    format      ascii;
    class       volScalarField;
    location    "1.42";
    object      p;
}
// * * * * * * * * * * * * * * * * * * * * * * * * * * * * * * * * * * * * * //

dimensions      [0 2 -2 0 0 0 0];

internalField   nonuniform List<scalar> 
13500
(
0.09989
0.09993
0.099379
0.099064
0.098081
0.097768
0.09712
0.097658
0.099414
0.10341
0.12482
0.16981
0.09989
0.099931
0.099379
0.099065
0.09808
0.097768
0.097119
0.097658
0.09941
0.10347
0.12414
0.16477
0.09989
0.099932
0.099379
0.099066
0.09808
0.097768
0.097117
0.097656
0.099403
0.10352
0.12325
0.1603
0.099891
0.099933
0.099379
0.099067
0.098079
0.097769
0.097115
0.097652
0.099389
0.10354
0.12227
0.15682
0.099892
0.099935
0.099379
0.099069
0.098078
0.097769
0.097112
0.097647
0.09937
0.10354
0.12122
0.15389
0.099893
0.099936
0.09938
0.099071
0.098078
0.097769
0.097108
0.097641
0.099347
0.10353
0.12014
0.15128
0.099895
0.099939
0.099381
0.099072
0.098077
0.097768
0.097103
0.097633
0.099319
0.10351
0.11905
0.14892
0.099897
0.099941
0.099382
0.099075
0.098076
0.097768
0.097098
0.097624
0.099286
0.10348
0.11797
0.14675
0.099899
0.099944
0.099384
0.099077
0.098076
0.097767
0.097092
0.097614
0.099249
0.10343
0.11691
0.14474
0.099902
0.099947
0.099385
0.099079
0.098075
0.097766
0.097086
0.097602
0.099207
0.10337
0.11588
0.14287
0.099905
0.09995
0.099387
0.099082
0.098075
0.097765
0.097079
0.097589
0.09916
0.1033
0.11488
0.14111
0.099908
0.099954
0.099389
0.099085
0.098074
0.097763
0.097071
0.097574
0.099109
0.10322
0.11392
0.13945
0.099912
0.099958
0.099392
0.099087
0.098074
0.097762
0.097063
0.097558
0.099054
0.10313
0.113
0.13788
0.099916
0.099963
0.099395
0.099091
0.098073
0.09776
0.097054
0.097541
0.098994
0.10303
0.11212
0.13638
0.09992
0.099967
0.099398
0.099094
0.098073
0.097758
0.097044
0.097522
0.098929
0.10292
0.11128
0.13496
0.099925
0.099972
0.099401
0.099097
0.098072
0.097756
0.097034
0.097502
0.09886
0.10282
0.11047
0.13359
0.09993
0.099978
0.099405
0.099101
0.098072
0.097753
0.097023
0.097481
0.098788
0.1027
0.1097
0.13229
0.099936
0.099984
0.099409
0.099105
0.098072
0.097751
0.097012
0.097458
0.098711
0.10259
0.10895
0.13104
0.099941
0.09999
0.099413
0.099109
0.098071
0.097748
0.097
0.097434
0.098631
0.10247
0.10823
0.12984
0.099948
0.099996
0.099417
0.099113
0.098071
0.097745
0.096987
0.097409
0.098547
0.10235
0.10753
0.12868
0.099954
0.1
0.099422
0.099118
0.098071
0.097741
0.096974
0.097382
0.09846
0.10223
0.10685
0.12757
0.099961
0.10001
0.099427
0.099122
0.098071
0.097738
0.09696
0.097354
0.098369
0.10211
0.10619
0.12649
0.099968
0.10002
0.099432
0.099127
0.098071
0.097734
0.096945
0.097325
0.098276
0.10199
0.10555
0.12544
0.099976
0.10003
0.099438
0.099132
0.098071
0.097731
0.09693
0.097294
0.09818
0.10187
0.10492
0.12443
0.099984
0.10003
0.099444
0.099138
0.098071
0.097727
0.096914
0.097263
0.098082
0.10175
0.1043
0.12345
0.099993
0.10004
0.09945
0.099143
0.098071
0.097722
0.096897
0.09723
0.097981
0.10163
0.1037
0.12249
0.1
0.10005
0.099457
0.099149
0.098071
0.097718
0.09688
0.097197
0.097878
0.10151
0.10311
0.12156
0.10001
0.10006
0.099464
0.099155
0.098071
0.097713
0.096862
0.097162
0.097773
0.10139
0.10252
0.12065
0.10002
0.10007
0.099471
0.099161
0.098071
0.097708
0.096844
0.097126
0.097666
0.10127
0.10195
0.11977
0.10003
0.10008
0.099479
0.099168
0.098071
0.097703
0.096825
0.097089
0.097557
0.10115
0.10138
0.1189
0.10004
0.10009
0.099487
0.099174
0.098071
0.097698
0.096806
0.097052
0.097446
0.10103
0.10083
0.11806
0.10005
0.1001
0.099495
0.099181
0.098072
0.097693
0.096785
0.097013
0.097334
0.10091
0.10028
0.11724
0.10006
0.10011
0.099504
0.099188
0.098072
0.097687
0.096765
0.096973
0.09722
0.10079
0.099738
0.11643
0.10008
0.10012
0.099513
0.099196
0.098073
0.097682
0.096743
0.096933
0.097104
0.10066
0.099205
0.11564
0.10009
0.10014
0.099522
0.099203
0.098073
0.097676
0.096721
0.096892
0.096986
0.10054
0.09868
0.11487
0.1001
0.10015
0.099532
0.099211
0.098074
0.09767
0.096698
0.09685
0.096867
0.10041
0.098163
0.11411
0.10011
0.10016
0.099542
0.099219
0.098075
0.097663
0.096675
0.096808
0.096747
0.10028
0.097654
0.11336
0.10013
0.10018
0.099552
0.099228
0.098075
0.097657
0.096651
0.096764
0.096625
0.10015
0.097152
0.11264
0.10014
0.10019
0.099563
0.099236
0.098076
0.097651
0.096627
0.09672
0.096501
0.10002
0.096659
0.11192
0.10016
0.1002
0.099574
0.099245
0.098077
0.097644
0.096602
0.096676
0.096376
0.099889
0.096173
0.11122
0.10017
0.10022
0.099586
0.099254
0.098078
0.097637
0.096576
0.096631
0.09625
0.099754
0.095694
0.11053
0.10019
0.10023
0.099598
0.099264
0.09808
0.09763
0.09655
0.096585
0.096122
0.099618
0.095224
0.10986
0.1002
0.10025
0.09961
0.099274
0.098081
0.097623
0.096523
0.096538
0.095993
0.099481
0.094761
0.1092
0.10022
0.10027
0.099623
0.099284
0.098082
0.097615
0.096496
0.096491
0.095862
0.099341
0.094306
0.10854
0.10024
0.10028
0.099636
0.099294
0.098084
0.097608
0.096468
0.096444
0.095731
0.0992
0.093858
0.1079
0.10025
0.1003
0.099649
0.099304
0.098086
0.0976
0.09644
0.096396
0.095598
0.099058
0.093418
0.10727
0.10027
0.10032
0.099663
0.099315
0.098087
0.097592
0.096411
0.096347
0.095464
0.098914
0.092985
0.10665
0.10029
0.10034
0.099678
0.099326
0.098089
0.097585
0.096381
0.096298
0.095329
0.098768
0.092559
0.10604
0.10031
0.10035
0.099692
0.099338
0.098092
0.097576
0.096351
0.096248
0.095193
0.098621
0.092141
0.10544
0.10033
0.10037
0.099708
0.099349
0.098094
0.097568
0.096321
0.096198
0.095056
0.098473
0.09173
0.10485
0.10035
0.10039
0.099723
0.099361
0.098096
0.09756
0.09629
0.096148
0.094918
0.098323
0.091327
0.10427
0.10037
0.10041
0.099739
0.099374
0.098099
0.097552
0.096258
0.096097
0.094779
0.098172
0.09093
0.1037
0.10039
0.10043
0.099756
0.099386
0.098102
0.097543
0.096226
0.096046
0.094639
0.098019
0.09054
0.10314
0.10041
0.10045
0.099773
0.099399
0.098105
0.097534
0.096193
0.095994
0.094498
0.097865
0.090157
0.10258
0.10043
0.10048
0.09979
0.099413
0.098108
0.097526
0.09616
0.095942
0.094357
0.097709
0.089781
0.10203
0.10046
0.1005
0.099808
0.099426
0.098111
0.097517
0.096126
0.095889
0.094215
0.097553
0.089411
0.10149
0.10048
0.10052
0.099827
0.09944
0.098115
0.097508
0.096092
0.095837
0.094073
0.097395
0.089048
0.10096
0.1005
0.10054
0.099846
0.099454
0.098118
0.097499
0.096058
0.095783
0.093929
0.097235
0.088692
0.10043
0.10053
0.10057
0.099865
0.099469
0.098122
0.09749
0.096023
0.09573
0.093786
0.097075
0.088341
0.099914
0.10055
0.10059
0.099885
0.099484
0.098127
0.09748
0.095987
0.095676
0.093641
0.096913
0.087997
0.099402
0.10058
0.10062
0.099905
0.099499
0.098131
0.097471
0.095951
0.095622
0.093497
0.096751
0.087659
0.098897
0.10061
0.10064
0.099926
0.099515
0.098136
0.097462
0.095915
0.095567
0.093352
0.096587
0.087326
0.098399
0.10063
0.10067
0.099948
0.099531
0.09814
0.097453
0.095878
0.095512
0.093206
0.096422
0.087
0.097907
0.10066
0.10069
0.09997
0.099547
0.098145
0.097443
0.095841
0.095457
0.093061
0.096256
0.086679
0.097421
0.10069
0.10072
0.099992
0.099563
0.098151
0.097434
0.095803
0.095401
0.092915
0.096089
0.086364
0.096942
0.10072
0.10075
0.10002
0.09958
0.098156
0.097425
0.095765
0.095345
0.092769
0.095921
0.086055
0.096468
0.10075
0.10078
0.10004
0.099598
0.098162
0.097415
0.095727
0.095289
0.092622
0.095752
0.085751
0.096
0.10078
0.1008
0.10006
0.099616
0.098168
0.097406
0.095688
0.095233
0.092476
0.095582
0.085452
0.095537
0.10081
0.10083
0.10009
0.099634
0.098175
0.097397
0.095649
0.095176
0.092329
0.095412
0.085158
0.09508
0.10084
0.10086
0.10011
0.099652
0.098181
0.097387
0.09561
0.095119
0.092183
0.09524
0.08487
0.094629
0.10087
0.1009
0.10014
0.099671
0.098188
0.097378
0.09557
0.095061
0.092036
0.095067
0.084586
0.094182
0.1009
0.10093
0.10017
0.099691
0.098195
0.097369
0.09553
0.095003
0.09189
0.094894
0.084307
0.093741
0.10094
0.10096
0.10019
0.09971
0.098203
0.09736
0.095489
0.094945
0.091743
0.09472
0.084033
0.093305
0.10097
0.10099
0.10022
0.099731
0.098211
0.097351
0.095448
0.094887
0.091597
0.094545
0.083764
0.092873
0.10101
0.10102
0.10025
0.099751
0.098219
0.097342
0.095407
0.094828
0.091451
0.094369
0.083499
0.092446
0.10104
0.10106
0.10028
0.099772
0.098227
0.097333
0.095366
0.094769
0.091305
0.094193
0.083239
0.092025
0.10108
0.10109
0.10031
0.099794
0.098236
0.097324
0.095324
0.09471
0.091159
0.094015
0.082983
0.091607
0.10112
0.10113
0.10034
0.099816
0.098245
0.097316
0.095283
0.09465
0.091013
0.093837
0.082731
0.091194
0.10115
0.10116
0.10037
0.099838
0.098254
0.097307
0.09524
0.094591
0.090868
0.093659
0.082483
0.090786
0.10119
0.1012
0.1004
0.099861
0.098264
0.097299
0.095198
0.09453
0.090722
0.09348
0.08224
0.090381
0.10123
0.10124
0.10043
0.099885
0.098274
0.097291
0.095156
0.09447
0.090577
0.0933
0.082
0.089981
0.10127
0.10128
0.10047
0.099909
0.098284
0.097283
0.095113
0.094409
0.090433
0.093119
0.081764
0.089585
0.10131
0.10132
0.1005
0.099933
0.098295
0.097275
0.09507
0.094348
0.090289
0.092938
0.081532
0.089193
0.10135
0.10136
0.10054
0.099958
0.098306
0.097268
0.095027
0.094287
0.090145
0.092756
0.081303
0.088805
0.1014
0.1014
0.10057
0.099984
0.098318
0.09726
0.094984
0.094225
0.090002
0.092574
0.081078
0.08842
0.10144
0.10144
0.10061
0.10001
0.09833
0.097253
0.09494
0.094163
0.089859
0.092391
0.080856
0.08804
0.10148
0.10148
0.10064
0.10004
0.098342
0.097246
0.094897
0.094101
0.089716
0.092208
0.080638
0.087663
0.10153
0.10152
0.10068
0.10006
0.098355
0.097239
0.094853
0.094039
0.089574
0.092024
0.080422
0.087289
0.10157
0.10157
0.10072
0.10009
0.098368
0.097233
0.094809
0.093976
0.089432
0.091839
0.08021
0.086919
0.10162
0.10161
0.10076
0.10012
0.098381
0.097227
0.094765
0.093913
0.089291
0.091654
0.080001
0.086553
0.10167
0.10166
0.1008
0.10015
0.098395
0.097221
0.094722
0.09385
0.08915
0.091469
0.079795
0.08619
0.10172
0.1017
0.10084
0.10018
0.09841
0.097215
0.094678
0.093786
0.08901
0.091283
0.079592
0.08583
0.10177
0.10175
0.10088
0.10021
0.098425
0.09721
0.094634
0.093722
0.088871
0.091097
0.079392
0.085473
0.10182
0.1018
0.10092
0.10024
0.09844
0.097204
0.09459
0.093658
0.088732
0.09091
0.079194
0.085119
0.10187
0.10185
0.10097
0.10027
0.098456
0.0972
0.094546
0.093594
0.088593
0.090722
0.078999
0.084768
0.10192
0.1019
0.10101
0.10031
0.098472
0.097195
0.094502
0.093529
0.088455
0.090535
0.078806
0.084421
0.10198
0.10195
0.10106
0.10034
0.098489
0.097191
0.094458
0.093464
0.088318
0.090347
0.078615
0.084076
0.10203
0.102
0.1011
0.10037
0.098507
0.097187
0.094414
0.093399
0.088181
0.090158
0.078427
0.083733
0.10209
0.10205
0.10115
0.10041
0.098525
0.097184
0.09437
0.093334
0.088045
0.089969
0.078241
0.083394
0.10214
0.10211
0.1012
0.10044
0.098544
0.097181
0.094326
0.093268
0.08791
0.08978
0.078058
0.083057
0.1022
0.10216
0.10125
0.10048
0.098563
0.097179
0.094283
0.093202
0.087775
0.08959
0.077876
0.082723
0.10226
0.10222
0.1013
0.10052
0.098583
0.097176
0.094239
0.093136
0.087641
0.0894
0.077696
0.082391
0.10232
0.10228
0.10135
0.10055
0.098603
0.097175
0.094196
0.09307
0.087507
0.089209
0.077518
0.082061
0.10238
0.10233
0.1014
0.10059
0.098624
0.097173
0.094153
0.093003
0.087374
0.089018
0.077342
0.081734
0.10244
0.10239
0.10145
0.10063
0.098646
0.097173
0.09411
0.092936
0.087242
0.088827
0.077168
0.081409
0.10251
0.10246
0.10151
0.10067
0.098669
0.097172
0.094067
0.092869
0.08711
0.088635
0.076995
0.081086
0.10257
0.10252
0.10156
0.10072
0.098692
0.097172
0.094024
0.092802
0.086979
0.088443
0.076824
0.080766
0.10264
0.10258
0.10162
0.10076
0.098716
0.097173
0.093982
0.092734
0.086849
0.08825
0.076654
0.080447
0.1027
0.10264
0.10168
0.1008
0.09874
0.097174
0.09394
0.092666
0.086719
0.088057
0.076485
0.08013
0.10277
0.10271
0.10174
0.10085
0.098766
0.097176
0.093898
0.092598
0.08659
0.087864
0.076318
0.079815
0.10284
0.10278
0.1018
0.10089
0.098792
0.097179
0.093857
0.09253
0.086462
0.087671
0.076152
0.079502
0.10291
0.10285
0.10186
0.10094
0.098819
0.097182
0.093815
0.092461
0.086334
0.087477
0.075987
0.07919
0.10299
0.10292
0.10192
0.10099
0.098848
0.097185
0.093775
0.092393
0.086207
0.087282
0.075823
0.07888
0.10306
0.10299
0.10199
0.10104
0.098877
0.097189
0.093734
0.092324
0.086081
0.087087
0.075659
0.078572
0.10314
0.10306
0.10205
0.10109
0.098906
0.097194
0.093694
0.092255
0.085955
0.086892
0.075497
0.078265
0.10322
0.10314
0.10212
0.10114
0.098937
0.0972
0.093655
0.092186
0.08583
0.086697
0.075336
0.077959
0.1033
0.10321
0.10219
0.1012
0.098969
0.097207
0.093616
0.092116
0.085705
0.086501
0.075175
0.077655
0.10338
0.10329
0.10226
0.10125
0.099002
0.097214
0.093578
0.092047
0.085581
0.086305
0.075015
0.077351
0.10346
0.10337
0.10233
0.10131
0.099036
0.097222
0.09354
0.091977
0.085458
0.086108
0.074855
0.077049
0.10354
0.10345
0.10241
0.10136
0.099072
0.097231
0.093502
0.091907
0.085336
0.085911
0.074696
0.076748
0.10363
0.10353
0.10248
0.10142
0.099108
0.097241
0.093466
0.091837
0.085214
0.085713
0.074537
0.076448
0.10372
0.10362
0.10256
0.10148
0.099146
0.097251
0.093429
0.091767
0.085093
0.085515
0.074378
0.076148
0.10381
0.1037
0.10264
0.10155
0.099185
0.097263
0.093394
0.091697
0.084972
0.085317
0.07422
0.07585
0.1039
0.10379
0.10272
0.10161
0.099225
0.097275
0.093359
0.091627
0.084852
0.085118
0.074061
0.075551
0.10399
0.10388
0.1028
0.10168
0.099267
0.097289
0.093325
0.091557
0.084733
0.084919
0.073903
0.075254
0.10409
0.10398
0.10289
0.10174
0.09931
0.097304
0.093292
0.091487
0.084614
0.084719
0.073744
0.074957
0.10419
0.10407
0.10297
0.10181
0.099355
0.09732
0.09326
0.091416
0.084496
0.084519
0.073586
0.07466
0.10429
0.10417
0.10306
0.10188
0.099401
0.097337
0.093229
0.091346
0.084379
0.084319
0.073427
0.074364
0.10439
0.10427
0.10315
0.10196
0.099449
0.097355
0.093198
0.091276
0.084262
0.084118
0.073268
0.074067
0.1045
0.10437
0.10325
0.10203
0.099498
0.097375
0.093169
0.091206
0.084146
0.083916
0.073108
0.073771
0.1046
0.10448
0.10334
0.10211
0.09955
0.097396
0.09314
0.091136
0.08403
0.083714
0.072949
0.073475
0.10472
0.10458
0.10344
0.10219
0.099603
0.097418
0.093113
0.091066
0.083915
0.083511
0.072788
0.073178
0.10483
0.10469
0.10354
0.10227
0.099658
0.097442
0.093087
0.090996
0.083801
0.083308
0.072627
0.072881
0.10494
0.10481
0.10365
0.10236
0.099716
0.097468
0.093062
0.090926
0.083687
0.083105
0.072465
0.072584
0.10506
0.10492
0.10375
0.10244
0.099775
0.097495
0.093038
0.090857
0.083574
0.082901
0.072302
0.072287
0.10518
0.10504
0.10386
0.10253
0.099837
0.097524
0.093016
0.090787
0.083461
0.082696
0.072139
0.071989
0.10531
0.10516
0.10397
0.10263
0.0999
0.097554
0.092995
0.090718
0.08335
0.082491
0.071974
0.07169
0.10544
0.10529
0.10409
0.10272
0.099967
0.097587
0.092976
0.09065
0.083238
0.082285
0.071808
0.07139
0.10557
0.10542
0.10421
0.10282
0.10004
0.097621
0.092958
0.090582
0.083128
0.082078
0.071641
0.07109
0.1057
0.10555
0.10433
0.10292
0.10011
0.097658
0.092941
0.090514
0.083018
0.081871
0.071473
0.070788
0.10584
0.10568
0.10445
0.10303
0.10018
0.097696
0.092927
0.090446
0.082908
0.081664
0.071304
0.070485
0.10598
0.10582
0.10458
0.10313
0.10026
0.097737
0.092914
0.09038
0.082799
0.081455
0.071133
0.070181
0.10613
0.10596
0.10472
0.10325
0.10034
0.09778
0.092903
0.090313
0.082691
0.081246
0.070961
0.069875
0.10628
0.10611
0.10485
0.10336
0.10042
0.097826
0.092894
0.090248
0.082584
0.081037
0.070787
0.069568
0.10643
0.10626
0.10499
0.10348
0.10051
0.097874
0.092887
0.090183
0.082477
0.080827
0.070611
0.06926
0.10659
0.10642
0.10514
0.1036
0.1006
0.097925
0.092883
0.090118
0.082371
0.080616
0.070434
0.068949
0.10675
0.10658
0.10529
0.10373
0.10069
0.097978
0.09288
0.090055
0.082265
0.080404
0.070254
0.068636
0.10692
0.10674
0.10544
0.10386
0.10079
0.098035
0.09288
0.089993
0.08216
0.080192
0.070073
0.068321
0.10709
0.10691
0.1056
0.104
0.10089
0.098095
0.092883
0.089931
0.082056
0.079979
0.069889
0.068004
0.10727
0.10709
0.10576
0.10414
0.10099
0.098158
0.092888
0.089871
0.081953
0.079765
0.069704
0.067685
0.10745
0.10727
0.10593
0.10428
0.1011
0.098224
0.092896
0.089811
0.08185
0.07955
0.069516
0.067363
0.10764
0.10745
0.1061
0.10443
0.10122
0.098294
0.092906
0.089753
0.081748
0.079335
0.069325
0.067038
0.10783
0.10764
0.10628
0.10459
0.10133
0.098367
0.09292
0.089696
0.081647
0.079118
0.069132
0.06671
0.10803
0.10784
0.10647
0.10475
0.10146
0.098444
0.092936
0.08964
0.081547
0.078901
0.068937
0.06638
0.10823
0.10804
0.10666
0.10491
0.10159
0.098525
0.092956
0.089586
0.081447
0.078683
0.068739
0.066046
0.10845
0.10825
0.10686
0.10508
0.10172
0.098611
0.09298
0.089534
0.081348
0.078464
0.068537
0.065708
0.10866
0.10847
0.10706
0.10526
0.10186
0.098701
0.093006
0.089483
0.08125
0.078245
0.068333
0.065367
0.10889
0.10869
0.10727
0.10545
0.102
0.098795
0.093037
0.089433
0.081153
0.078024
0.068126
0.065022
0.10912
0.10892
0.10749
0.10564
0.10215
0.098894
0.093071
0.089386
0.081057
0.077802
0.067916
0.064673
0.10935
0.10915
0.10771
0.10584
0.10231
0.098998
0.093109
0.08934
0.080961
0.07758
0.067702
0.06432
0.1096
0.1094
0.10794
0.10604
0.10247
0.099107
0.093152
0.089297
0.080867
0.077356
0.067485
0.063963
0.10985
0.10965
0.10818
0.10625
0.10264
0.099221
0.093198
0.089255
0.080773
0.077131
0.067264
0.0636
0.11011
0.10991
0.10843
0.10647
0.10281
0.099341
0.093249
0.089216
0.08068
0.076905
0.067039
0.063233
0.11038
0.11018
0.10868
0.1067
0.103
0.099467
0.093305
0.089179
0.080589
0.076678
0.06681
0.062861
0.11066
0.11046
0.10895
0.10694
0.10319
0.099598
0.093366
0.089145
0.080498
0.076449
0.066577
0.062483
0.11094
0.11074
0.10922
0.10718
0.10338
0.099736
0.093431
0.089113
0.080408
0.076219
0.06634
0.0621
0.11124
0.11104
0.1095
0.10743
0.10359
0.09988
0.093502
0.089083
0.080318
0.075988
0.066098
0.061711
0.11154
0.11134
0.10979
0.10769
0.1038
0.10003
0.093578
0.089056
0.08023
0.075755
0.065852
0.061315
0.11185
0.11166
0.11009
0.10797
0.10403
0.10019
0.093659
0.089033
0.080143
0.07552
0.0656
0.060913
0.11218
0.11198
0.1104
0.10825
0.10426
0.10035
0.093746
0.089011
0.080056
0.075284
0.065344
0.060505
0.11251
0.11232
0.11073
0.10854
0.1045
0.10053
0.093839
0.088993
0.07997
0.075046
0.065082
0.060089
0.11286
0.11267
0.11106
0.10884
0.10475
0.10071
0.093938
0.088978
0.079885
0.074806
0.064814
0.059666
0.11321
0.11303
0.1114
0.10915
0.10501
0.10089
0.094043
0.088966
0.079801
0.074564
0.064541
0.059234
0.11358
0.1134
0.11176
0.10948
0.10528
0.10109
0.094155
0.088957
0.079717
0.074319
0.064262
0.058795
0.11396
0.11378
0.11213
0.10981
0.10556
0.10129
0.094273
0.088952
0.079634
0.074072
0.063976
0.058347
0.11435
0.11417
0.11251
0.11016
0.10585
0.10151
0.094397
0.088949
0.079551
0.073822
0.063683
0.05789
0.11475
0.11458
0.1129
0.11052
0.10615
0.10173
0.094528
0.08895
0.079469
0.07357
0.063383
0.057423
0.11517
0.115
0.11331
0.11089
0.10647
0.10196
0.094667
0.088954
0.079386
0.073314
0.063075
0.056947
0.1156
0.11544
0.11373
0.11128
0.10679
0.1022
0.094812
0.088962
0.079304
0.073055
0.06276
0.05646
0.11604
0.11589
0.11416
0.11167
0.10713
0.10245
0.094965
0.088973
0.079222
0.072792
0.062437
0.055962
0.1165
0.11635
0.11461
0.11209
0.10748
0.10271
0.095125
0.088987
0.079139
0.072525
0.062104
0.055453
0.11697
0.11683
0.11508
0.11251
0.10785
0.10298
0.095293
0.089004
0.079056
0.072254
0.061763
0.054931
0.11745
0.11733
0.11556
0.11296
0.10822
0.10326
0.095468
0.089025
0.078972
0.071979
0.061412
0.054397
0.11796
0.11784
0.11606
0.11341
0.10862
0.10355
0.095651
0.089048
0.078887
0.071698
0.06105
0.05385
0.11848
0.11837
0.11657
0.11389
0.10902
0.10386
0.095842
0.089075
0.078801
0.071411
0.060678
0.053288
0.11901
0.11891
0.1171
0.11438
0.10944
0.10417
0.096041
0.089105
0.078713
0.071119
0.060294
0.052712
0.11956
0.11947
0.11765
0.11488
0.10988
0.10449
0.096249
0.089138
0.078624
0.07082
0.059899
0.052121
0.12013
0.12006
0.11822
0.11541
0.11033
0.10483
0.096464
0.089173
0.078532
0.070514
0.05949
0.051513
0.12072
0.12066
0.11881
0.11595
0.1108
0.10518
0.096688
0.089211
0.078438
0.070201
0.059068
0.050888
0.12133
0.12128
0.11942
0.11652
0.11129
0.10555
0.096921
0.089252
0.07834
0.069879
0.058632
0.050245
0.12196
0.12192
0.12005
0.1171
0.11179
0.10592
0.097162
0.089295
0.078239
0.069549
0.058181
0.049584
0.12261
0.12259
0.12071
0.1177
0.11231
0.10631
0.097412
0.089341
0.078134
0.069209
0.057713
0.048903
0.12328
0.12328
0.12138
0.11833
0.11286
0.10672
0.097671
0.089388
0.078025
0.068858
0.057229
0.0482
0.12398
0.12399
0.12208
0.11898
0.11342
0.10714
0.097939
0.089437
0.07791
0.068497
0.056728
0.047476
0.1247
0.12473
0.12281
0.11965
0.114
0.10757
0.098217
0.089488
0.077791
0.068124
0.056207
0.046729
0.12545
0.1255
0.12357
0.12035
0.11461
0.10802
0.098504
0.089541
0.077665
0.067738
0.055667
0.045958
0.12622
0.12629
0.12435
0.12108
0.11524
0.10849
0.098802
0.089594
0.077532
0.067339
0.055105
0.045161
0.12702
0.12711
0.12516
0.12183
0.11589
0.10897
0.099109
0.089649
0.077392
0.066925
0.054522
0.044337
0.12785
0.12797
0.12601
0.12261
0.11657
0.10948
0.099427
0.089705
0.077245
0.066496
0.053915
0.043486
0.12872
0.12886
0.12689
0.12343
0.11728
0.11
0.099757
0.089762
0.077088
0.06605
0.053283
0.042604
0.12962
0.12979
0.12781
0.12428
0.11801
0.11055
0.1001
0.08982
0.076922
0.065587
0.052626
0.041691
0.13055
0.13075
0.12877
0.12517
0.11878
0.11111
0.10045
0.089878
0.076746
0.065104
0.05194
0.040745
0.13153
0.13176
0.12977
0.12609
0.11958
0.1117
0.10081
0.089936
0.076559
0.064602
0.051226
0.039765
0.13254
0.13281
0.13081
0.12706
0.12042
0.11232
0.10119
0.089994
0.07636
0.064077
0.05048
0.038747
0.13361
0.13391
0.1319
0.12808
0.1213
0.11296
0.10158
0.090051
0.076147
0.06353
0.049702
0.037691
0.13471
0.13506
0.13305
0.12914
0.12221
0.11363
0.10199
0.090108
0.075921
0.062957
0.048889
0.036595
0.13588
0.13626
0.13425
0.13025
0.12317
0.11433
0.10241
0.090163
0.075678
0.062358
0.048039
0.035455
0.13709
0.13753
0.13551
0.13143
0.12418
0.11506
0.10284
0.090216
0.075418
0.06173
0.04715
0.03427
0.13836
0.13885
0.13683
0.13266
0.12523
0.11582
0.10329
0.090267
0.075139
0.061071
0.046219
0.033036
0.1397
0.14025
0.13823
0.13395
0.12634
0.11662
0.10375
0.090313
0.074838
0.060378
0.045243
0.031751
0.14111
0.14172
0.1397
0.13532
0.1275
0.11746
0.10423
0.090354
0.074513
0.059647
0.044218
0.030412
0.14258
0.14326
0.14124
0.13675
0.12872
0.11834
0.10473
0.090387
0.07416
0.058876
0.043142
0.029015
0.14413
0.14489
0.14288
0.13827
0.13001
0.11925
0.10523
0.09041
0.073777
0.058059
0.042009
0.027556
0.14577
0.14661
0.1446
0.13988
0.13136
0.12021
0.10576
0.090421
0.073359
0.057193
0.040815
0.026031
0.14748
0.14842
0.14643
0.14157
0.13278
0.12121
0.10629
0.090415
0.0729
0.056271
0.039555
0.024434
0.14929
0.15034
0.14835
0.14336
0.13428
0.12226
0.10683
0.090388
0.072395
0.055288
0.038221
0.022761
0.1512
0.15236
0.15039
0.14525
0.13585
0.12334
0.10737
0.090335
0.071837
0.054235
0.036808
0.021006
0.1532
0.1545
0.15254
0.14725
0.1375
0.12447
0.10792
0.090249
0.071218
0.053105
0.035307
0.019161
0.15532
0.15676
0.15482
0.14936
0.13923
0.12564
0.10846
0.090122
0.070528
0.051888
0.033709
0.017218
0.15754
0.15915
0.15724
0.15159
0.14105
0.12685
0.109
0.089945
0.069757
0.050573
0.032004
0.01517
0.15988
0.16168
0.15979
0.15395
0.14295
0.1281
0.10951
0.089707
0.068893
0.049149
0.030181
0.013005
0.16235
0.16435
0.1625
0.15644
0.14495
0.12937
0.11
0.089396
0.067922
0.047603
0.028228
0.010715
0.16494
0.16718
0.16538
0.15907
0.14703
0.13067
0.11045
0.088998
0.06683
0.04592
0.026133
0.0082864
0.16768
0.17018
0.16842
0.16185
0.1492
0.13199
0.11084
0.088496
0.065599
0.044085
0.023881
0.0057078
0.17057
0.17336
0.17166
0.16478
0.15146
0.13331
0.11116
0.08787
0.06421
0.04208
0.021456
0.0029659
0.17362
0.17674
0.17511
0.16789
0.15381
0.13462
0.1114
0.087097
0.062641
0.039885
0.018843
4.7063e-05
0.17684
0.18034
0.17879
0.17118
0.15625
0.13592
0.11152
0.086151
0.060867
0.03748
0.016024
-0.0030629
0.18025
0.18418
0.18273
0.17466
0.15877
0.13717
0.1115
0.085
0.058858
0.03484
0.012979
-0.0063787
0.18386
0.1883
0.18695
0.17835
0.16137
0.13836
0.1113
0.083604
0.05658
0.031938
0.0096865
-0.0099152
0.18771
0.19271
0.19148
0.18226
0.16403
0.13944
0.11088
0.081917
0.053991
0.028739
0.0061232
-0.013688
0.1918
0.19746
0.19636
0.1864
0.16673
0.14037
0.11017
0.079882
0.051044
0.025206
0.0022609
-0.017714
0.19615
0.2026
0.20164
0.19078
0.16944
0.14109
0.10911
0.077431
0.047678
0.021294
-0.0019324
-0.022011
0.20079
0.20815
0.20733
0.19539
0.1721
0.14152
0.1076
0.07448
0.043827
0.01695
-0.006493
-0.026598
0.20573
0.21416
0.21347
0.2002
0.17464
0.14155
0.10554
0.070933
0.039413
0.012116
-0.011461
-0.031494
0.21097
0.22068
0.22007
0.20518
0.17694
0.14104
0.10279
0.066678
0.034348
0.0067284
-0.016877
-0.036719
0.21652
0.22772
0.22712
0.21022
0.17886
0.13982
0.099195
0.06159
0.028543
0.00072747
-0.022778
-0.042284
0.22236
0.23532
0.23458
0.21517
0.18016
0.13766
0.09457
0.055536
0.021912
-0.0059392
-0.029189
-0.048191
0.22847
0.24345
0.24233
0.21981
0.18056
0.1343
0.088705
0.04838
0.014376
-0.013304
-0.036113
-0.054421
0.23484
0.25205
0.25016
0.22376
0.17966
0.12941
0.081377
0.039996
0.0058848
-0.021369
-0.043518
-0.060924
0.24146
0.261
0.25765
0.22648
0.17694
0.1226
0.072355
0.030279
-0.0035787
-0.030094
-0.051331
-0.067616
0.24835
0.26997
0.26413
0.22716
0.17173
0.11343
0.061432
0.019173
-0.013978
-0.03939
-0.059435
-0.074373
0.25561
0.27843
0.26844
0.2246
0.16317
0.10147
0.04846
0.0067023
-0.025207
-0.049113
-0.06767
-0.081046
0.26342
0.28535
0.26877
0.21712
0.15023
0.086289
0.033408
-0.0069888
-0.037065
-0.059063
-0.075844
-0.087473
0.27215
0.28907
0.26237
0.2025
0.13173
0.067579
0.016414
-0.021606
-0.049249
-0.068983
-0.083755
-0.093507
0.28235
0.28717
0.24559
0.17803
0.1065
0.04518
-0.0022183
-0.036728
-0.061375
-0.078587
-0.091207
-0.099038
0.29469
0.27681
0.21452
0.14107
0.07358
0.019126
-0.02209
-0.051903
-0.073062
-0.087606
-0.098046
-0.10401
0.30909
0.25444
0.16632
0.090343
0.032731
-0.01034
-0.042849
-0.06681
-0.08406
-0.095883
-0.10421
-0.10846
0.32515
0.21347
0.097459
0.025342
-0.016042
-0.043335
-0.064676
-0.081637
-0.094553
-0.10361
-0.10991
-0.11264
0.35221
0.15391
0.0072729
-0.052882
-0.072405
-0.080663
-0.088815
-0.097636
-0.10566
-0.11175
-0.11597
-0.11733
0.40183
0.09286
-0.089835
-0.13408
-0.12991
-0.11915
-0.1142
-0.11472
-0.11766
-0.12063
-0.12275
-0.12271
0.10414
0.06476
0.054403
0.048018
0.043404
0.03977
0.036731
0.034076
0.031833
0.029713
0.028304
0.025998
0.12377
0.080292
0.06744
0.05901
0.053007
0.048347
0.044489
0.041128
0.038297
0.035581
0.033803
0.03094
0.111
0.075078
0.063444
0.055185
0.049306
0.044775
0.041047
0.037802
0.035081
0.032421
0.030723
0.027778
0.10594
0.074735
0.063431
0.055088
0.049083
0.044447
0.040637
0.037318
0.03454
0.03179
0.030055
0.02687
0.10534
0.076929
0.065457
0.056888
0.050627
0.04577
0.041773
0.038284
0.035367
0.032456
0.030621
0.02719
0.10472
0.078763
0.067212
0.0585
0.052031
0.046984
0.042822
0.039183
0.036139
0.033087
0.031158
0.027536
0.10362
0.080056
0.068575
0.059807
0.053187
0.047987
0.043689
0.039924
0.036775
0.03361
0.031598
0.027839
0.10246
0.081116
0.069798
0.061028
0.054294
0.048963
0.044544
0.040669
0.037425
0.034167
0.032081
0.028233
0.10136
0.082034
0.070948
0.062225
0.055411
0.049967
0.045441
0.041469
0.038141
0.034807
0.032657
0.028764
0.10032
0.082802
0.072015
0.063384
0.056529
0.050998
0.046381
0.042325
0.038927
0.035536
0.033332
0.029439
0.099316
0.08342
0.072987
0.064494
0.057638
0.052047
0.04736
0.043237
0.039782
0.036353
0.03411
0.030258
0.09834
0.083903
0.073863
0.065547
0.058728
0.053107
0.048372
0.044201
0.040704
0.037256
0.034988
0.031218
0.097398
0.084268
0.074644
0.066535
0.05979
0.054169
0.049408
0.04521
0.041687
0.03824
0.035959
0.032307
0.096493
0.084531
0.075332
0.067456
0.060815
0.055221
0.050458
0.046251
0.04272
0.039291
0.037013
0.033509
0.095626
0.084707
0.075934
0.068305
0.061794
0.056252
0.05151
0.047313
0.04379
0.040397
0.038132
0.034803
0.094799
0.08481
0.076456
0.069083
0.062722
0.057254
0.052551
0.048383
0.044883
0.041541
0.039299
0.036165
0.094011
0.084854
0.076903
0.069793
0.063595
0.05822
0.053573
0.049449
0.045984
0.042707
0.040497
0.03757
0.093262
0.084848
0.077285
0.070435
0.064411
0.059143
0.054566
0.0505
0.047081
0.043882
0.041707
0.038996
0.092553
0.084802
0.077607
0.071015
0.065171
0.06002
0.055525
0.051528
0.048164
0.04505
0.042916
0.040421
0.09188
0.084724
0.077877
0.071537
0.065876
0.06085
0.056445
0.052526
0.049223
0.046201
0.044109
0.041826
0.091243
0.08462
0.0781
0.072005
0.066527
0.061631
0.057323
0.053488
0.050252
0.047326
0.045275
0.043196
0.09064
0.084497
0.078283
0.072424
0.067127
0.062364
0.058157
0.054412
0.051244
0.048417
0.046406
0.044519
0.090068
0.084357
0.078431
0.072798
0.067679
0.063051
0.058947
0.055294
0.052196
0.049468
0.047495
0.045785
0.089526
0.084205
0.078547
0.073131
0.068186
0.063692
0.059693
0.056134
0.053107
0.050476
0.048539
0.046989
0.089011
0.084043
0.078636
0.073426
0.06865
0.06429
0.060395
0.056931
0.053974
0.051437
0.049534
0.048126
0.088521
0.083874
0.078702
0.073689
0.069075
0.064847
0.061055
0.057686
0.054797
0.052352
0.050478
0.049196
0.088055
0.0837
0.078746
0.07392
0.069464
0.065364
0.061674
0.058399
0.055577
0.053218
0.051372
0.050197
0.08761
0.083521
0.078773
0.074124
0.069819
0.065844
0.062254
0.059071
0.056315
0.054037
0.052216
0.051132
0.087186
0.083339
0.078783
0.074303
0.070143
0.06629
0.062798
0.059703
0.05701
0.054808
0.053011
0.052002
0.08678
0.083156
0.078779
0.074459
0.070438
0.066702
0.063305
0.060297
0.057665
0.055535
0.053758
0.05281
0.086392
0.082971
0.078762
0.074594
0.070706
0.067084
0.063779
0.060855
0.058282
0.056217
0.054459
0.053559
0.086019
0.082785
0.078735
0.074711
0.070949
0.067437
0.064221
0.061377
0.058861
0.056856
0.055116
0.054253
0.085661
0.0826
0.078697
0.074809
0.071169
0.067762
0.064633
0.061866
0.059404
0.057455
0.055731
0.054895
0.085317
0.082415
0.078651
0.074892
0.071367
0.068062
0.065016
0.062323
0.059914
0.058016
0.056306
0.055489
0.084986
0.08223
0.078597
0.074961
0.071546
0.068338
0.065371
0.06275
0.06039
0.058539
0.056842