/*--------------------------------*- C++ -*----------------------------------*\
  =========                 |
  \\      /  F ield         | OpenFOAM: The Open Source CFD Toolbox
   \\    /   O peration     | Website:  https://openfoam.org
    \\  /    A nd           | Version:  6.0
     \\/     M anipulation  |
\*---------------------------------------------------------------------------*/
FoamFile
{
    version     2.0;
    format      ascii;
    class       volScalarField;
    location    "500";
    object      nuTilda;
}
// * * * * * * * * * * * * * * * * * * * * * * * * * * * * * * * * * * * * * //

dimensions      [0 2 -1 0 0 0 0];

internalField   nonuniform List<scalar> 
9800
(
0.13999
0.140034
0.140016
0.140007
0.139998
0.139989
0.139977
0.139969
0.139987
0.139998
0.140005
0.140011
0.140016
0.140021
0.140026
0.140032
0.140039
0.140044
0.140045
0.140047
0.140048
0.140044
0.140024
0.140021
0.140043
0.140047
0.140046
0.140044
0.140044
0.14004
0.140034
0.140028
0.140022
0.140017
0.140012
0.140007
0.140001
0.139993
0.139972
0.139975
0.139985
0.139994
0.140002
0.14001
0.140018
0.140027
0.140037
0.140049
0.140063
0.14008
0.1401
0.140125
0.140155
0.140192
0.140239
0.140298
0.140375
0.140476
0.140615
0.140808
0.141115
0.141524
0.142622
0.144076
0.145637
0.147213
0.147781
0.148386
0.148808
0.149242
0.149666
0.150057
0.150379
0.150603
0.150716
0.150725
0.150653
0.150531
0.150388
0.150246
0.150118
0.150005
0.149903
0.1498
0.149687
0.149554
0.149384
0.149272
0.149225
0.149242
0.149324
0.149466
0.149661
0.149898
0.150166
0.150462
0.1509
0.153797
0.183147
0.30123
0.140291
0.140265
0.140208
0.140169
0.140135
0.140106
0.140085
0.140077
0.140083
0.140083
0.140082
0.140081
0.140081
0.140081
0.140079
0.140071
0.140053
0.140033
0.14007
0.140091
0.140107
0.140105
0.140064
0.140064
0.140107
0.140111
0.140097
0.140076
0.140036
0.140047
0.140064
0.140075
0.140077
0.140077
0.140077
0.140078
0.140079
0.14008
0.140072
0.140073
0.140086
0.140107
0.140131
0.140158
0.140186
0.140216
0.140249
0.140286
0.140327
0.140374
0.140427
0.140488
0.140559
0.140641
0.140737
0.140851
0.140985
0.141147
0.141344
0.141584
0.141892
0.142259
0.142812
0.143434
0.143898
0.144247
0.144479
0.144689
0.144886
0.145079
0.145263
0.145437
0.145594
0.145729
0.145838
0.145922
0.145982
0.146021
0.146042
0.146044
0.146067
0.14612
0.146211
0.14634
0.146504
0.1467
0.146918
0.147151
0.147389
0.147618
0.14783
0.148016
0.148171
0.14829
0.148374
0.148425
0.148449
0.148492
0.149213
0.155288
0.140387
0.140329
0.14027
0.140227
0.140191
0.140165
0.140148
0.140141
0.140137
0.140132
0.140126
0.140116
0.1401
0.140076
0.140045
0.14003
0.140045
0.140058
0.140105
0.140142
0.140166
0.14016
0.140107
0.140108
0.140164
0.140174
0.140151
0.140116
0.140066
0.140046
0.140025
0.140029
0.140064
0.140091
0.140107
0.140116
0.140123
0.140128
0.140129
0.140131
0.140138
0.140153
0.140174
0.140201
0.14023
0.140263
0.140297
0.140335
0.140375
0.140418
0.140465
0.140517
0.140574
0.140636
0.140705
0.14078
0.140863
0.140953
0.141053
0.141141
0.141266
0.141419
0.141604
0.141819
0.14205
0.142306
0.142578
0.142866
0.143167
0.143477
0.143793
0.144107
0.144413
0.144703
0.144974
0.145219
0.145437
0.145628
0.145795
0.145938
0.146061
0.146166
0.146254
0.146325
0.14638
0.146418
0.146438
0.146442
0.146429
0.1464
0.146356
0.146299
0.146233
0.146159
0.14608
0.146001
0.145922
0.145849
0.145794
0.145838
0.140386
0.140327
0.140274
0.140234
0.140203
0.14018
0.140163
0.140148
0.140132
0.140111
0.140083
0.140053
0.140041
0.140033
0.140038
0.140045
0.140075
0.140113
0.140164
0.140207
0.140228
0.14021
0.140151
0.140149
0.140212
0.140234
0.140214
0.140173
0.14012
0.140078
0.140041
0.140022
0.140013
0.140022
0.140038
0.140069
0.140099
0.140121
0.140137
0.140148
0.140157
0.140169
0.140185
0.140206
0.140231
0.140261
0.140293
0.140328
0.140366
0.140406
0.140449
0.140494
0.140543
0.140595
0.14065
0.140708
0.14077
0.140834
0.140902
0.140967
0.141033
0.141101
0.141169
0.141236
0.141312
0.141401
0.141502
0.141611
0.141722
0.141833
0.141943
0.142049
0.142151
0.142247
0.142333
0.142412
0.142484
0.142547
0.142603
0.14265
0.142692
0.142729
0.142763
0.142797
0.142832
0.14287
0.142913
0.142963
0.14302
0.143084
0.143155
0.143233
0.143315
0.143402
0.143491
0.143583
0.143675
0.143767
0.143856
0.143945
0.140379
0.140328
0.140283
0.140247
0.140218
0.140193
0.14017
0.140146
0.140118
0.140085
0.140046
0.140005
0.139971
0.139975
0.140008
0.140067
0.140117
0.140171
0.140226
0.140269
0.140283
0.140253
0.140191
0.140186
0.140251
0.140284
0.140272
0.140231
0.140175
0.140118
0.140061
0.139997
0.139961
0.139972
0.140001
0.140037
0.140074
0.140107
0.140136
0.140159
0.140178
0.140195
0.140212
0.140231
0.140253
0.140279
0.140308
0.14034
0.140375
0.140413
0.140453
0.140495
0.140539
0.140586
0.140634
0.140684
0.140735
0.140788
0.140842
0.140896
0.140948
0.140999
0.141046
0.141089
0.14113
0.141171
0.141215
0.141262
0.141312
0.141365
0.141419
0.141476
0.141536
0.141598
0.141662
0.141726
0.141791
0.141855
0.141919
0.141981
0.142042
0.142102
0.142162
0.142223
0.142286
0.142352
0.142421
0.142494
0.142569
0.142647
0.142727
0.142809
0.142891
0.142974
0.143058
0.143141
0.143224
0.143307
0.143388
0.143452
0.140348
0.140309
0.140273
0.140243
0.140215
0.140187
0.140157
0.140122
0.140077
0.140022
0.139958
0.139903
0.139896
0.139938
0.140021
0.140103
0.14017
0.140233
0.140289
0.140325
0.140328
0.140288
0.140224
0.140218
0.140283
0.140325
0.140325
0.140289
0.140233
0.140166
0.140093
0.139986
0.139912
0.139891
0.139923
0.139977
0.14003
0.140078
0.140118
0.140151
0.140178
0.140202
0.140223
0.140244
0.140265
0.140287
0.140312
0.140338
0.140368
0.1404
0.140433
0.140469
0.140507
0.140546
0.140587
0.140628
0.140671
0.140715
0.140759
0.140804
0.140849
0.140894
0.140938
0.140981
0.141023
0.141063
0.141103
0.141143
0.141184
0.141227
0.141271
0.141317
0.141367
0.141419
0.141475
0.141533
0.141594
0.141656
0.141721
0.141786
0.141853
0.141921
0.14199
0.14206
0.142131
0.142203
0.142276
0.14235
0.142423
0.142497
0.14257
0.142643
0.142716
0.142787
0.142858
0.142927
0.142996
0.143063
0.143128
0.143172
0.140299
0.140268
0.140233
0.140197
0.140157
0.140108
0.140048
0.139978
0.13991
0.139861
0.139829
0.139838
0.139902
0.139991
0.140084
0.140168
0.140241
0.140305
0.140355
0.140379
0.140367
0.140317
0.140251
0.140243
0.140309
0.14036
0.140373
0.14035
0.140299
0.140232
0.140153
0.140051
0.13995
0.139856
0.139823
0.139835
0.139874
0.13993
0.14
0.140064
0.140117
0.14016
0.140194
0.140222
0.140247
0.140271
0.140293
0.140317
0.140341
0.140368
0.140396
0.140425
0.140456
0.140489
0.140523
0.140559
0.140595
0.140632
0.14067
0.140709
0.140748
0.140788
0.140829
0.14087
0.140911
0.140952
0.140993
0.141035
0.141077
0.14112
0.141163
0.141207
0.141253
0.1413
0.14135
0.141401
0.141455
0.141511
0.141569
0.141628
0.141688
0.141749
0.141811
0.141873
0.141936
0.141999
0.142062
0.142125
0.142187
0.142249
0.14231
0.14237
0.14243
0.142488
0.142544
0.1426
0.142654
0.142707
0.142759
0.142784
0.140203
0.14016
0.1401
0.140032
0.139955
0.139879
0.139819
0.13977
0.139741
0.139746
0.139793
0.139885
0.139983
0.140081
0.140172
0.140253
0.140324
0.140381
0.140418
0.140426
0.140398
0.140337
0.140264
0.140247
0.140323
0.140385
0.140413
0.140405
0.140367
0.140308
0.140231
0.140139
0.140035
0.139922
0.139807
0.139741
0.13972
0.139735
0.139777
0.139834
0.139909
0.139986
0.140055
0.140113
0.140162
0.140203
0.140237
0.140267
0.140294
0.14032
0.140345
0.14037
0.140396
0.140423
0.140451
0.14048
0.14051
0.140541
0.140573
0.140606
0.14064
0.140675
0.14071
0.140747
0.140784
0.140822
0.140861
0.140901
0.140942
0.140984
0.141026
0.141069
0.141113
0.141158
0.141204
0.141252
0.1413
0.14135
0.1414
0.141452
0.141504
0.141557
0.14161
0.141663
0.141716
0.141768
0.14182
0.141872
0.141922
0.141972
0.142021
0.142068
0.142115
0.142161
0.142205
0.142249
0.142291
0.142333
0.142374
0.142389
0.139907
0.139853
0.139786
0.139723
0.139667
0.139628
0.139612
0.139624
0.139671
0.139759
0.139882
0.139992
0.140093
0.140187
0.140271
0.140345
0.140406
0.14045
0.140469
0.140457
0.140411
0.140333
0.140231
0.140202
0.14031
0.140392
0.140438
0.140449
0.140428
0.140382
0.140317
0.140235
0.140139
0.14003
0.139906
0.139776
0.139672
0.139611
0.139586
0.139592
0.139624
0.139674
0.139732
0.139796
0.139868
0.139942
0.14001
0.140072
0.140127
0.140176
0.140219
0.140257
0.140291
0.140323
0.140352
0.14038
0.140407
0.140435
0.140463
0.140491
0.140521
0.140551
0.140582
0.140614
0.140647
0.140682
0.140717
0.140753
0.14079
0.140828
0.140868
0.140907
0.140948
0.140989
0.141031
0.141074
0.141117
0.14116
0.141204
0.141248
0.141292
0.141336
0.14138
0.141423
0.141466
0.141508
0.141549
0.141589
0.141629
0.141667
0.141705
0.141742
0.141777
0.141812
0.141846
0.14188
0.141912
0.141944
0.141976
0.141981
0.139545
0.139502
0.139472
0.139457
0.139464
0.139499
0.139567
0.139669
0.139786
0.139906
0.140025
0.140128
0.14022
0.140304
0.140376
0.140437
0.140481
0.140504
0.140501
0.140466
0.140396
0.140289
0.14015
0.140136
0.140266
0.140371
0.14044
0.140474
0.140475
0.140448
0.140401
0.140334
0.140253
0.140158
0.140049
0.139926
0.139795
0.139664
0.139553
0.139475
0.13943
0.139414
0.139419
0.139443
0.13948
0.139529
0.139584
0.139642
0.139701
0.13976
0.13982
0.139885
0.139952
0.140017
0.14008
0.140138
0.140191
0.14024
0.140284
0.140325
0.140362
0.140397
0.140431
0.140464
0.140497
0.14053
0.140563
0.140597
0.140631
0.140666
0.140701
0.140736
0.140772
0.140808
0.140844
0.140881
0.140917
0.140953
0.140989
0.141024
0.141059
0.141093
0.141127
0.14116
0.141192
0.141223
0.141253
0.141282
0.14131
0.141338
0.141365
0.141391
0.141416
0.141441
0.141465
0.141489
0.141514
0.141538
0.141562
0.141563
0.13924
0.139248
0.139289
0.139357
0.139453
0.139578
0.139712
0.139842
0.139964
0.140076
0.140178
0.140267
0.140346
0.140414
0.14047
0.140511
0.140532
0.14053
0.1405
0.140437
0.140339
0.140205
0.140057
0.140052
0.140194
0.140324
0.140418
0.140476
0.140503
0.140501
0.140476
0.14043
0.140368
0.140293
0.140204
0.140103
0.139989
0.139864
0.139732
0.139599
0.139469
0.139361
0.139281
0.139229
0.139201
0.139193
0.139199
0.139218
0.139246
0.139283
0.139325
0.139374
0.139428
0.139486
0.139547
0.139608
0.139668
0.139726
0.139789
0.139861
0.139938
0.140014
0.140085
0.14015
0.140209
0.140262
0.140311
0.140356
0.140398
0.140438
0.140475
0.140511
0.140545
0.140578
0.14061
0.140641
0.14067
0.140699
0.140727
0.140753
0.140779
0.140803
0.140827
0.14085
0.140871
0.140892
0.140912
0.140932
0.140951
0.140969
0.140987
0.141006
0.141024
0.141042
0.141061
0.14108
0.1411
0.14112
0.14114
0.141137
0.139272
0.13933
0.139437
0.139562
0.139693
0.139824
0.139948
0.140061
0.140164
0.140257
0.14034
0.140411
0.140471
0.140518
0.140551
0.140566
0.140559
0.140528
0.140468
0.140375
0.140247
0.140088
0.139942
0.139932
0.14005
0.140214
0.140343
0.140433
0.140489
0.140516
0.140518
0.140497
0.140459
0.140405
0.140337
0.140258
0.140166
0.140062
0.139945
0.139818
0.139679
0.139532
0.139379
0.139234
0.139112
0.139019
0.138952
0.138907
0.13888
0.138868
0.138868
0.138878
0.138897
0.138924
0.138959
0.138999
0.139043
0.13909
0.139141
0.139196
0.139255
0.139315
0.139376
0.139438
0.139508
0.139588
0.139671
0.139751
0.139825
0.139892
0.139952
0.140006
0.140053
0.140095
0.140132
0.140165
0.140194
0.14022
0.140243
0.140263
0.140282
0.140299
0.140314
0.140329
0.140343
0.140356
0.140369
0.140382
0.140395
0.140409
0.140423
0.140437
0.140452
0.140467
0.140482
0.140498
0.140514
0.14053
0.140543
0.140518
0.13936
0.139441
0.139581
0.139733
0.139872
0.139996
0.140106
0.140203
0.140288
0.140364
0.14043
0.140481
0.140518
0.14054
0.140544
0.140528
0.140487
0.140417
0.140315
0.140176
0.140002
0.139829
0.139738
0.139751
0.139869
0.14007
0.140238
0.140363
0.14045
0.140507
0.140537
0.140543
0.140529
0.140498
0.140453
0.140394
0.140323
0.140241
0.140147
0.140041
0.139922
0.139789
0.139641
0.139482
0.139317
0.139149
0.138984
0.138836
0.138715
0.13862
0.138548
0.138494
0.138456
0.13843
0.138416
0.13841
0.138412
0.138421
0.138434
0.138452
0.138474
0.138499
0.138528
0.138559
0.138594
0.138631
0.13867
0.13871
0.138747
0.138783
0.138816
0.138852
0.138895
0.138942
0.138989
0.139033
0.139073
0.13911
0.139143
0.139172
0.139199
0.139223
0.139246
0.139267
0.139288
0.139309
0.139329
0.139351
0.139372
0.139395
0.139418
0.139442
0.139466
0.13949
0.139515
0.139539
0.139562
0.139583
0.139599
0.139573
0.139772
0.139876
0.139993
0.140107
0.140211
0.140303
0.140384
0.140453
0.140511
0.140559
0.140596
0.140619
0.140627
0.140617
0.140587
0.140533
0.140451
0.140337
0.140188
0.140003
0.139789
0.139578
0.139465
0.139444
0.13951
0.139646
0.13983
0.14002
0.140171
0.140283
0.140361
0.140405
0.140423
0.140419
0.140396
0.140356
0.140301
0.140231
0.140146
0.140045
0.139925
0.139783
0.139618
0.139428
0.139221
0.139014
0.138817
0.138636
0.138473
0.138331
0.138209
0.138105
0.138016
0.13794
0.137877
0.137823
0.137779
0.137742
0.137712
0.137688
0.137669
0.137654
0.137643
0.137635
0.13763
0.137626
0.137623
0.13762
0.137617
0.137613
0.137608
0.137603
0.137599
0.137595
0.137591
0.137587
0.137582
0.137578
0.137578
0.137579
0.137585
0.137593
0.137605
0.13762
0.137638
0.137659
0.137683
0.137709
0.137737
0.137766
0.137796
0.137825
0.137854
0.13788
0.137905
0.137926
0.137944
0.137958
0.137961
0.137903
0.139461
0.13946
0.139521
0.139598
0.139674
0.139747
0.139815
0.139876
0.139929
0.139974
0.140011
0.140012
0.139982
0.139918
0.139828
0.139722
0.139606
0.13948
0.139344
0.139203
0.139071
0.13897
0.138929
0.138961
0.139073
0.139278
0.139504
0.139718
0.139904
0.140059
0.140181
0.140269
0.140328
0.140362
0.140373
0.140363
0.140334
0.140287
0.140222
0.14014
0.14004
0.13992
0.13978
0.139622
0.139449
0.139265
0.139074
0.138879
0.138681
0.138482
0.138289
0.13811
0.137949
0.137808
0.137684
0.137575
0.137477
0.137388
0.137308
0.137234
0.137165
0.1371
0.137039
0.13698
0.136924
0.136869
0.136816
0.136763
0.136712
0.136661
0.13661
0.13656
0.13651
0.136461
0.136414
0.136367
0.136321
0.136276
0.136232
0.13619
0.13615
0.13611
0.136071
0.136034
0.135997
0.135962
0.135928
0.135896
0.135869
0.135853
0.135851
0.13586
0.135874
0.135891
0.135909
0.135925
0.135938
0.135947
0.135942
0.135869
0.139731
0.139732
0.139751
0.139779
0.139809
0.139837
0.13986
0.139876
0.139883
0.139877
0.139854
0.139812
0.139745
0.139656
0.139549
0.139427
0.139293
0.13915
0.139
0.138845
0.138686
0.138526
0.138371
0.138242
0.138198
0.138226
0.138298
0.138393
0.1385
0.138608
0.138708
0.138795
0.138866
0.13892
0.138957
0.138977
0.138982
0.13897
0.138943
0.138902
0.138847
0.138779
0.138698
0.138606
0.138502
0.138389
0.138267
0.138137
0.138001
0.13786
0.137717
0.137574
0.137435
0.1373
0.13717
0.137045
0.136924
0.136808
0.136695
0.136586
0.136478
0.136374
0.136271
0.136172
0.136074
0.135978
0.135883
0.135791
0.1357
0.135612
0.135526
0.135441
0.135359
0.13528
0.135201
0.135125
0.135051
0.134979
0.134908
0.134839
0.134771
0.134703
0.134636
0.134568
0.134501
0.134432
0.134363
0.134293
0.134222
0.13415
0.134078
0.134006
0.133932
0.133856
0.133778
0.133696
0.133611
0.133522
0.133429
0.133335
0.138098
0.138121
0.138138
0.138144
0.138132
0.138114
0.138091
0.138064
0.138029
0.137981
0.137917
0.137854
0.137788
0.13772
0.137652
0.137587
0.13753
0.137486
0.137461
0.137457
0.137474
0.137506
0.137548
0.137599
0.13766
0.137732
0.137811
0.137898
0.137988
0.138081
0.138171
0.138256
0.138333
0.138401
0.138461
0.13851
0.138548
0.138575
0.13859
0.138594
0.138588
0.138572
0.138546
0.13851
0.138465
0.138411
0.138349
0.138278
0.138199
0.138112
0.138016
0.137913
0.137803
0.137685
0.137561
0.137429
0.137291
0.137146
0.136993
0.136835
0.136675
0.13651
0.136338
0.136158
0.135968
0.135773
0.135577
0.135386
0.135201
0.135024
0.134855
0.134693
0.134538
0.13439
0.134246
0.134107
0.133973
0.133842
0.133713
0.133585
0.13346
0.133336
0.133213
0.133089
0.132965
0.132841
0.132718
0.132595
0.132473
0.132351
0.13223
0.132108
0.131987
0.131865
0.131741
0.131615
0.131488
0.13136
0.131233
0.131112
0.137858
0.137823
0.137783
0.137739
0.137694
0.13765
0.137606
0.137564
0.137524
0.137486
0.13745
0.137417
0.137385
0.137356
0.137329
0.137306
0.137288
0.137275
0.137269
0.137269
0.137274
0.137281
0.137289
0.137295
0.137298
0.137295
0.137288
0.137275
0.137256
0.137232
0.137203
0.137178
0.13716
0.137146
0.137133
0.137119
0.137101
0.137078
0.137051
0.137021
0.136988
0.136949
0.136903
0.136851
0.136794
0.136731
0.136664
0.136594
0.136518
0.136436
0.136348
0.136254
0.136156
0.136053
0.135945
0.135833
0.135717
0.135598
0.135473
0.135345
0.135211
0.135076
0.134941
0.134808
0.134677
0.134543
0.13441
0.134278
0.13415
0.134027
0.133904
0.133784
0.13367
0.133558
0.133447
0.133337
0.133229
0.133125
0.133021
0.132918
0.132816
0.132714
0.132611
0.132507
0.132402
0.132297
0.13219
0.132083
0.131974
0.131866
0.131756
0.131645
0.131534
0.13142
0.131303
0.131178
0.131037
0.130875
0.130688
0.130504
0.139577
0.139902
0.140165
0.140366
0.140513
0.140616
0.140683
0.14072
0.140726
0.140704
0.140693
0.14067
0.14064
0.140608
0.140573
0.140537
0.140501
0.140465
0.140429
0.140393
0.140356
0.140319
0.14028
0.14024
0.140198
0.140153
0.140107
0.140057
0.140003
0.139941
0.139875
0.139838
0.139787
0.139733
0.139676
0.139618
0.139557
0.139493
0.139426
0.139355
0.13928
0.139202
0.139121
0.139037
0.13895
0.138858
0.13876
0.138659
0.138554
0.138442
0.138324
0.1382
0.138069
0.137931
0.137788
0.137639
0.137486
0.13733
0.137173
0.137017
0.136856
0.136696
0.136547
0.136377
0.136199
0.136009
0.135807
0.135596
0.135371
0.135132
0.134883
0.134618
0.13434
0.134054
0.133765
0.133473
0.133185
0.132898
0.132614
0.132333
0.132055
0.131782
0.131509
0.131237
0.130965
0.130693
0.13042
0.130147
0.129872
0.129595
0.129317
0.129035
0.12875
0.12846
0.128167
0.127872
0.127578
0.12729
0.127028
0.126818
0.124018
0.123014
0.122549
0.122375
0.122347
0.122372
0.122333
0.122126
0.121753
0.121298
0.12159
0.12101
0.120334
0.119697
0.119094
0.11852
0.117973
0.11745
0.116948
0.116468
0.11601
0.115575
0.115162
0.114772
0.114402
0.11405
0.113713
0.113388
0.113073
0.112774
0.112605
0.113086
0.112799
0.112507
0.112208
0.1119
0.111585
0.111262
0.110932
0.110595
0.110252
0.109903
0.109549
0.10919
0.108826
0.108458
0.108085
0.107709
0.107328
0.106945
0.106558
0.106168
0.105776
0.105381
0.104986
0.104593
0.104201
0.10381
0.103421
0.103034
0.10265
0.102451
0.10262
0.102346
0.102049
0.10174
0.101418
0.101086
0.100743
0.100391
0.10003
0.0996614
0.0992849
0.0989018
0.0985128
0.0981184
0.0977193
0.097316
0.0969089
0.0964985
0.096085
0.0956688
0.0952499
0.0948286
0.094405
0.093979
0.0935507
0.0931203
0.0926883
0.0922556
0.0918236
0.0913943
0.090971
0.0905583
0.0901636
0.0897986
0.0894812
0.0892399
0.0891194
0.0891952
0.415445
0.429583
0.44295
0.455602
0.467612
0.479038
0.489933
0.500343
0.510304
0.519853
0.529019
0.537829
0.546306
0.554473
0.56235
0.569953
0.577315
0.584412
0.591277
0.59793
0.604382
0.610643
0.616725
0.622635
0.628382
0.633976
0.639423
0.644732
0.64991
0.654963
0.659898
0.664723
0.669372
0.673834
0.678359
0.6828
0.687161
0.691449
0.695667
0.699823
0.70392
0.707965
0.711963
0.715918
0.719837
0.723725
0.727586
0.731238
0.734791
0.738632
0.742469
0.746305
0.750144
0.753991
0.75785
0.761726
0.765622
0.769543
0.773492
0.777074
0.780728
0.784902
0.789114
0.793364
0.797652
0.80198
0.806349
0.809669
0.814797
0.819242
0.159718
0.160558
0.1615
0.162529
0.163635
0.16481
0.166049
0.167347
0.168698
0.170101
0.171553
0.173051
0.174595
0.176181
0.177809
0.179477
0.181189
0.18293
0.184706
0.18652
0.188369
0.190253
0.192171
0.194122
0.196104
0.198117
0.20016
0.202233
0.204334
0.206464
0.208623
0.210811
0.212995
0.215174
0.217462
0.219783
0.222135
0.224517
0.226928
0.229368
0.231837
0.234336
0.236865
0.239425
0.242019
0.244648
0.247315
0.249925
0.252554
0.255418
0.25834
0.261319
0.264362
0.267476
0.270672
0.27396
0.277354
0.280868
0.28452
0.288087
0.291918
0.296302
0.300901
0.30573
0.310817
0.316189
0.321876
0.327215
0.334328
0.341206
0.145784
0.145789
0.145804
0.145828
0.145858
0.145893
0.145932
0.145972
0.146012
0.146053
0.146094
0.146136
0.146178
0.146222
0.146268
0.146315
0.146365
0.146417
0.146471
0.146527
0.146586
0.146648
0.146712
0.146779
0.146848
0.14692
0.146995
0.147072
0.147151
0.147232
0.147315
0.1474
0.147481
0.147558
0.147645
0.147733
0.147819
0.147905
0.147992
0.14808
0.14817
0.148262
0.148356
0.148454
0.148556
0.148663
0.148774
0.148872
0.148969
0.149108
0.149257
0.149417
0.149587
0.149769
0.149966
0.150177
0.150406
0.150656
0.150931
0.151175
0.151468
0.151888
0.152364
0.152902
0.153515
0.154221
0.15504
0.1558
0.157144
0.158533
0.143783
0.143736
0.143687
0.143638
0.14359
0.143542
0.143495
0.143451
0.143408
0.143367
0.143327
0.14329
0.143254
0.143219
0.143185
0.143152
0.14312
0.143088
0.143057
0.143027
0.142998
0.142969
0.14294
0.142912
0.142885
0.142858
0.142831
0.142804
0.142778
0.142751
0.142726
0.1427
0.142675
0.142649
0.142625
0.1426
0.142576
0.142552
0.142528
0.142504
0.142479
0.142454
0.142429
0.142403
0.142376
0.142348
0.142318
0.142286
0.142252
0.142218
0.142184
0.142148
0.142112
0.142074
0.142036
0.141996
0.141955
0.141914
0.141871
0.141822
0.141772
0.141727
0.141684
0.141644
0.141608
0.141577
0.141553
0.14152
0.141535
0.141558
0.14333
0.143291
0.143252
0.143212
0.14317
0.143127
0.143083
0.143038
0.142994
0.142949
0.142906
0.142864
0.142822
0.142782
0.142742
0.142704
0.142666
0.142628
0.142591
0.142554
0.142517
0.142481
0.142445
0.14241
0.142375
0.142342
0.142309
0.142278
0.142247
0.142218
0.142191
0.142164
0.142139
0.142113
0.142089
0.142064
0.14204
0.142017
0.141993
0.141969
0.141946
0.141923
0.141899
0.141876
0.141854
0.141831
0.141809
0.141787
0.141765
0.141742
0.14172
0.141697
0.141675
0.141653
0.14163
0.141609
0.141587
0.141566
0.141546
0.141526
0.141506
0.141486
0.141466
0.141449
0.141433
0.141419
0.141409
0.141403
0.141401
0.141406
0.143075
0.143043
0.143013
0.142981
0.142948
0.142913
0.142876
0.142837
0.142798
0.142758
0.142719
0.14268
0.142643
0.142606
0.14257
0.142534
0.1425
0.142465
0.142431
0.142397
0.142363
0.142329
0.142295
0.142262
0.142229
0.142197
0.142165
0.142134
0.142104
0.142075
0.142047
0.14202
0.141994
0.141969
0.141944
0.141919
0.141895
0.141871
0.141847
0.141824
0.1418
0.141777
0.141754
0.141731
0.141708
0.141686
0.141664
0.141643
0.141621
0.141599
0.141577
0.141555
0.141533
0.141512
0.14149
0.141469
0.141449
0.141429
0.14141
0.141392
0.141373
0.141355
0.141338
0.141322
0.141308
0.141296
0.141287
0.141282
0.141282
0.141287
0.142704
0.142679
0.142656
0.142632
0.142607
0.142579
0.142549
0.142516
0.142482
0.142447
0.142412
0.142377
0.142342
0.142309
0.142276
0.142244
0.142213
0.142182
0.142151
0.14212
0.142089
0.142058
0.142026
0.141995
0.141963
0.141931
0.141899
0.141868
0.141837
0.141808
0.14178
0.141753
0.141728
0.141703
0.141679
0.141656
0.141634
0.141612
0.141591
0.14157
0.141549
0.141528
0.141507
0.141487
0.141467
0.141446
0.141427
0.141407
0.141386
0.141365
0.141344
0.141323
0.141302
0.14128
0.141259
0.141238
0.141217
0.141197
0.141178
0.14116
0.141141
0.141122
0.141104
0.141087
0.141072
0.141059
0.14105
0.141043
0.141042
0.141045
0.142325
0.142305
0.142288
0.14227
0.14225
0.142227
0.142202
0.142174
0.142145
0.142114
0.142082
0.14205
0.142018
0.141986
0.141955
0.141924
0.141894
0.141866
0.141838
0.14181
0.141783
0.141757
0.14173
0.141705
0.141679
0.141654
0.141629
0.141604
0.141579
0.141554
0.141529
0.141503
0.141478
0.141451
0.141424
0.141397
0.14137
0.141343
0.141316
0.141289
0.141262
0.141236
0.141211
0.141185
0.141161
0.141137
0.141114
0.141091
0.141069
0.141046
0.141024
0.141001
0.14098
0.140958
0.140937
0.140916
0.140896
0.140876
0.140858
0.14084
0.140822
0.140802
0.140784
0.140767
0.140752
0.14074
0.140731
0.140725
0.140724
0.140726
0.141936
0.141922
0.141908
0.141895
0.14188
0.141862
0.141841
0.141818
0.141793
0.141766
0.141738
0.14171
0.141682
0.141654
0.141627
0.141601
0.141576
0.141551
0.141527
0.141504
0.141481
0.141459
0.141438
0.141419
0.1414
0.141382
0.141364
0.141346
0.141327
0.141308
0.141289
0.141269
0.141249
0.141229
0.141208
0.141187
0.141165
0.141144
0.141122
0.1411
0.141079
0.141057
0.141035
0.141013
0.140992
0.14097
0.140948
0.140926
0.140904
0.140882
0.140862
0.140842
0.140824
0.140806
0.140789
0.140772
0.140755
0.140738
0.140722
0.140705
0.140689
0.140672
0.140657
0.140643
0.140629
0.140618
0.140609
0.140603
0.140601
0.140603
0.141533
0.141523
0.141513
0.141502
0.14149
0.141476
0.141458
0.141438
0.141416
0.141392
0.141368
0.141344
0.14132
0.141299
0.141279
0.14126
0.141241
0.141223
0.141204
0.141186
0.141168
0.141151
0.141134
0.141118
0.141102
0.141086
0.14107
0.141054
0.141038
0.141022
0.141006
0.14099
0.140974
0.140957
0.140941
0.140924
0.140907
0.140891
0.140874
0.140857
0.14084
0.140823
0.140806
0.14079
0.140773
0.140757
0.14074
0.140725
0.140709
0.140692
0.140677
0.140661
0.140645
0.14063
0.140615
0.140599
0.140584
0.14057
0.140555
0.140541
0.140526
0.140511
0.140496
0.140481
0.140467
0.140453
0.14044
0.140429
0.140425
0.140425
0.141119
0.141112
0.141104
0.141093
0.141081
0.141067
0.14105
0.141031
0.14101
0.140987
0.140964
0.140942
0.140923
0.140905
0.140889
0.140873
0.140857
0.140841
0.140825
0.140808
0.140793
0.140777
0.140762
0.140747
0.140733
0.140718
0.140703
0.140689
0.140674
0.14066
0.140645
0.14063
0.140615
0.1406
0.140584
0.140569
0.140553
0.140537
0.140521
0.140506
0.14049
0.140473
0.140457
0.140441
0.140425
0.14041
0.140394
0.140379
0.140364
0.140348
0.140332
0.140317
0.140302
0.140286
0.140271
0.140255
0.14024
0.140225
0.140211
0.140197
0.140181
0.140166
0.14015
0.140135
0.140119
0.140104
0.140091
0.140077
0.140069
0.140068
0.140508
0.140506
0.140496
0.140481
0.140464
0.140446
0.140427
0.140405
0.140382
0.14036
0.140341
0.140324
0.140309
0.140295
0.140281
0.140267
0.140252
0.140237
0.140222
0.140207
0.140192
0.140177
0.140162
0.140147
0.140132
0.140118
0.140103
0.140089
0.140074
0.140059
0.140044
0.140029
0.140014
0.139998
0.139983
0.139967
0.139951
0.139935
0.139919
0.139902
0.139886
0.13987
0.139853
0.139836
0.13982
0.139803
0.139787
0.139772
0.139755
0.139739
0.139723
0.139707
0.139691
0.139675
0.139659
0.139643
0.139627
0.139611
0.139596
0.139581
0.139566
0.13955
0.139534
0.139518
0.139502
0.139486
0.139473
0.139457
0.139447
0.139445
0.139546
0.139539
0.139524
0.139503
0.139481
0.139457
0.139433
0.13941
0.139388
0.139369
0.139351
0.139336
0.139323
0.139312
0.139299
0.139286
0.139272
0.139258
0.139243
0.139229
0.139214
0.1392
0.139185
0.139171
0.139157
0.139144
0.13913
0.139116
0.139102
0.139088
0.139074
0.13906
0.139046
0.139031
0.139017
0.139002
0.138988
0.138973
0.138958
0.138943
0.138929
0.138914
0.138899
0.138884
0.138869
0.138854
0.13884
0.138826
0.138812
0.138798
0.138784
0.13877
0.138757
0.138743
0.13873
0.138716
0.138703
0.13869
0.138678
0.138665
0.138652
0.13864
0.138627
0.138614
0.1386
0.138587
0.138575
0.13856
0.13855
0.138546
0.137838
0.137826
0.13781
0.13779
0.137769
0.137751
0.137735
0.137721
0.13771
0.137701
0.137694
0.13769
0.137687
0.137683
0.137679
0.137673
0.137666
0.137658
0.13765
0.137642
0.137634
0.137626
0.137618
0.137611
0.137603
0.137596
0.137589
0.137582
0.137574
0.137567
0.137559
0.137551
0.137543
0.137535
0.137526
0.137518
0.13751
0.137502
0.137493
0.137485
0.137477
0.137468
0.13746
0.137452
0.137443
0.137435
0.137426
0.137418
0.137409
0.137402
0.137395
0.137388
0.137381
0.137375
0.137368
0.137362
0.137355
0.137349
0.137342
0.137335
0.137327
0.137322
0.137316
0.137309
0.137301
0.137292
0.137282
0.137266
0.137254
0.137244
0.135779
0.135763
0.135747
0.135734
0.135722
0.135713
0.135705
0.135697
0.135691
0.135685
0.13568
0.135674
0.135668
0.135662
0.135656
0.135649
0.135643
0.135637
0.13563
0.135624
0.135619
0.135614
0.13561
0.135607
0.135605
0.135603
0.135602
0.1356
0.135599
0.135596
0.135592
0.135586
0.135579
0.13557
0.135561
0.135553
0.135545
0.135538
0.135531
0.135524
0.135518
0.135512
0.135506
0.1355
0.135493
0.135486
0.135478
0.135469
0.13546
0.135453
0.135448
0.135446
0.135445
0.135445
0.135446
0.135447
0.135447
0.135447
0.135446
0.135442
0.135439
0.13544
0.135442
0.135444
0.135443
0.135439
0.135433
0.135417
0.135408
0.1354
0.133249
0.133242
0.133238
0.133235
0.133232
0.13323
0.133228
0.133227
0.133226
0.133225
0.133224
0.133222
0.133221
0.133219
0.133217
0.133214
0.133212
0.133209
0.133206
0.133203
0.1332
0.133197
0.133194
0.133191
0.133189
0.133186
0.133183
0.133181
0.133178
0.133176
0.133173
0.13317
0.133166
0.133161
0.133156
0.133152
0.133148
0.133144
0.13314
0.133137
0.133134
0.133132
0.133129
0.133127
0.133125
0.133123
0.13312
0.133115
0.133109
0.133105
0.133102
0.1331
0.133099
0.133098
0.133098
0.133099
0.133099
0.1331
0.133099
0.133094
0.13309
0.133089
0.13309
0.133092
0.133094
0.133095
0.133094
0.133081
0.133076
0.133066
0.131023
0.131004
0.130988
0.130972
0.130956
0.130941
0.130926
0.130911
0.130896
0.130881
0.130866
0.130852
0.130838
0.130824
0.130809
0.130795
0.130781
0.130767
0.130753
0.130739
0.130724
0.13071
0.130696
0.130682
0.130668
0.130655
0.130642
0.130629
0.130617
0.130605
0.130594
0.130582
0.130569
0.130555
0.130542
0.130529
0.130516
0.130504
0.130493
0.130482
0.130473
0.130464
0.130455
0.130447
0.13044
0.130432
0.130424
0.130413
0.1304
0.130389
0.130379
0.130371
0.130364
0.130359
0.130354
0.130351
0.130348
0.130345
0.13034
0.13033
0.130319
0.130311
0.130307
0.130305
0.130304
0.130302
0.130298
0.130276
0.130264
0.130245
0.130316
0.130254
0.130195
0.130137
0.130078
0.130018
0.129959
0.1299
0.12984
0.129781
0.129723
0.129664
0.129606
0.129548
0.12949
0.129433
0.129375
0.129318
0.12926
0.129202
0.129144
0.129086
0.129028
0.128971
0.128914
0.128857
0.128801
0.128746
0.128691
0.128636
0.128582
0.128528
0.128472
0.128413
0.128354
0.128295
0.128238
0.128181
0.128126
0.128071
0.128018
0.127965
0.127914
0.127865
0.127816
0.127769
0.127722
0.12767
0.127612
0.127556
0.127501
0.12745
0.127401
0.127355
0.127311
0.12727
0.127231
0.127194
0.127156
0.127108
0.127053
0.127003
0.12696
0.126923
0.12689
0.12686
0.12683
0.12677
0.126729
0.126685
0.125663
0.125497
0.125391
0.125288
0.125183
0.125076
0.124967
0.124856
0.124744
0.12463
0.124516
0.1244
0.124283
0.124165
0.124047
0.123928
0.12381
0.123691
0.123571
0.12345
0.123329
0.123208
0.123088
0.122968
0.122848
0.122728
0.122609
0.122491
0.122374
0.122259
0.122144
0.122031
0.121911
0.121779
0.121653
0.121529
0.121407
0.121287