/*--------------------------------*- C++ -*----------------------------------*\
  =========                 |
  \\      /  F ield         | OpenFOAM: The Open Source CFD Toolbox
   \\    /   O peration     | Website:  https://openfoam.org
    \\  /    A nd           | Version:  6.0
     \\/     M anipulation  |
\*---------------------------------------------------------------------------*/
FoamFile
{
    version     2.0;
    format      ascii;
    class       volVectorField;
    location    "500";
    object      U;
}
// * * * * * * * * * * * * * * * * * * * * * * * * * * * * * * * * * * * * * //

dimensions      [0 1 -1 0 0 0 0];

internalField   nonuniform List<vector> 
9800
(
(18.3486 5.40323 -1.72505e-15)
(18.5346 5.28782 -1.1138e-15)
(18.6766 5.15982 3.06928e-15)
(18.7958 5.02529 1.31038e-15)
(18.8987 4.88846 -3.77782e-15)
(18.9902 4.75211 2.30603e-15)
(19.0733 4.61761 -9.45848e-16)
(19.15 4.48564 -1.0099e-15)
(19.2216 4.35633 1.95062e-15)
(19.2889 4.22947 -1.32752e-15)
(19.3533 4.10568 6.30259e-16)
(19.4152 3.98424 8.7073e-17)
(19.4745 3.86524 -8.25203e-16)
(19.5314 3.74847 5.8392e-16)
(19.586 3.63382 -2.2263e-16)
(19.6381 3.52122 -9.43472e-17)
(19.6874 3.41065 -1.60162e-16)
(19.7334 3.30221 3.84988e-16)
(19.7749 3.19623 -7.35173e-16)
(19.8108 3.09338 -1.73016e-16)
(19.8386 2.99518 1.16278e-15)
(19.8554 2.90545 3.41421e-16)
(19.8591 2.83132 -2.69357e-16)
(19.8674 2.76921 -2.06199e-16)
(19.8838 2.6974 -1.52588e-15)
(19.8923 2.60705 2.16092e-15)
(19.8926 2.50533 1.30686e-16)
(19.8865 2.39682 -3.03544e-15)
(19.8757 2.2837 -1.47205e-16)
(19.8615 2.16702 2.93454e-15)
(19.8447 2.04717 -8.38419e-16)
(19.8263 1.92508 -1.24279e-15)
(19.8063 1.80031 1.32093e-15)
(19.7851 1.67283 1.04443e-15)
(19.7626 1.54261 1.58039e-15)
(19.7391 1.40953 -2.1027e-15)
(19.7146 1.27343 3.09393e-16)
(19.689 1.13412 -9.85897e-16)
(19.6623 0.991334 -4.18602e-16)
(19.6344 0.844804 -1.0649e-15)
(19.6051 0.694216 1.30783e-15)
(19.5743 0.539213 9.85456e-16)
(19.5418 0.379392 8.98055e-16)
(19.5075 0.214306 1.15994e-15)
(19.4712 0.0434364 -5.86036e-15)
(19.4325 -0.133796 1.58135e-15)
(19.3911 -0.318064 4.08919e-15)
(19.3466 -0.510134 -2.30485e-15)
(19.2987 -0.7109 -1.59269e-15)
(19.2468 -0.921394 1.99669e-15)
(19.1901 -1.14284 -5.36134e-15)
(19.1277 -1.37667 -3.23953e-16)
(19.0584 -1.62463 4.40176e-15)
(18.9803 -1.88877 -1.18655e-16)
(18.8909 -2.17167 -2.56731e-16)
(18.7863 -2.47651 -3.50458e-15)
(18.6604 -2.80742 5.63477e-15)
(18.5034 -3.16985 -3.27161e-15)
(18.2996 -3.57166 -4.30386e-16)
(18.0208 -4.02451 2.31373e-15)
(17.6258 -4.54801 2.02983e-15)
(17.0011 -5.18921 -4.02678e-15)
(16.1134 -5.96887 2.14244e-15)
(13.9969 -7.54991 -3.24979e-15)
(12.1273 -8.52119 4.05721e-15)
(10.1269 -9.55874 -3.13933e-15)
(9.387 -8.78621 7.44713e-15)
(9.126 -8.51786 -7.21749e-15)
(8.98295 -8.20491 7.30445e-15)
(8.79897 -7.9133 -1.10694e-14)
(8.60432 -7.63451 5.27272e-15)
(8.42424 -7.39121 -9.52726e-16)
(8.25387 -7.17737 9.53331e-15)
(8.08886 -6.98169 -1.43436e-14)
(7.93418 -6.79784 2.56593e-15)
(7.79424 -6.62293 1.09101e-15)
(7.66708 -6.4539 2.68846e-16)
(7.5473 -6.28746 -2.70718e-15)
(7.4306 -6.12151 -1.18304e-15)
(7.3152 -5.95546 -4.18736e-15)
(7.20084 -5.78963 2.31045e-15)
(7.08742 -5.62438 -2.59346e-15)
(6.97437 -5.4596 5.46112e-15)
(6.86076 -5.29459 -4.27002e-16)
(6.74557 -5.12814 4.85778e-15)
(6.62784 -4.95867 -1.04762e-15)
(6.50671 -4.78448 -3.37078e-15)
(6.38145 -4.60386 -2.36995e-15)
(6.25146 -4.41534 7.17708e-15)
(6.11638 -4.2177 -1.1387e-15)
(5.97609 -4.01004 -2.93586e-15)
(5.83076 -3.79173 2.67589e-15)
(5.68068 -3.56222 -3.23022e-15)
(5.52613 -3.321 4.42862e-15)
(5.36729 -3.06732 -7.29262e-16)
(5.20421 -2.80007 -7.73004e-16)
(5.03686 -2.51717 -2.03302e-15)
(4.86608 -2.20983 3.01315e-15)
(4.68602 -1.77855 -7.19043e-16)
(4.6139 -0.528054 3.98523e-17)
(14.5284 6.20409 1.52067e-15)
(14.6251 6.02497 1.03222e-15)
(14.706 5.83648 -9.05016e-16)
(14.7825 5.64643 6.51281e-16)
(14.8522 5.45378 -1.88465e-15)
(14.9156 5.26005 9.14908e-16)
(14.9733 5.06591 -1.71747e-16)
(15.0254 4.87209 2.1663e-15)
(15.0725 4.67902 -3.97625e-15)
(15.1148 4.4867 5.71543e-16)
(15.1525 4.29522 2.72582e-16)
(15.187 4.10509 6.97037e-16)
(15.2177 3.9165 -1.05714e-16)
(15.2446 3.72935 -6.51653e-16)
(15.2676 3.54383 6.8055e-16)
(15.2866 3.36017 2.6946e-17)
(15.301 3.17883 -3.55059e-16)
(15.3105 3.0005 6.48075e-16)
(15.3144 2.82626 -1.73799e-15)
(15.3119 2.65756 1.96455e-15)
(15.3021 2.49616 -7.87607e-16)
(15.2859 2.3457 -3.04213e-15)
(15.2706 2.21611 1.23473e-16)
(15.2848 2.10559 -3.74397e-16)
(15.3331 1.98618 4.37313e-15)
(15.3891 1.84698 -6.62374e-16)
(15.4423 1.69506 -3.0622e-15)
(15.4908 1.5339 -3.73436e-15)
(15.5347 1.36552 4.6482e-15)
(15.5745 1.19163 7.22497e-16)
(15.6106 1.01319 1.61425e-15)
(15.6433 0.830997 3.06647e-15)
(15.6732 0.645678 -3.14833e-15)
(15.7005 0.457538 -3.21826e-16)
(15.7252 0.266666 -2.9792e-15)
(15.7474 0.0730458 3.25692e-15)
(15.7673 -0.12344 1.39723e-15)
(15.7848 -0.322974 -3.07091e-15)
(15.8001 -0.525817 2.41093e-16)
(15.813 -0.732278 -1.23332e-15)
(15.8236 -0.942726 6.61622e-16)
(15.8318 -1.15758 -7.17355e-15)
(15.8374 -1.37733 1.37887e-14)
(15.8405 -1.60251 -8.56381e-15)
(15.8408 -1.83372 -2.60942e-15)
(15.8381 -2.07166 2.66989e-15)
(15.8323 -2.3171 -6.46917e-15)
(15.8231 -2.57093 3.57999e-15)
(15.8102 -2.83415 1.676e-15)
(15.7933 -3.10792 7.07119e-15)
(15.7717 -3.39357 -1.04203e-14)
(15.7451 -3.69265 1.11072e-14)
(15.7126 -4.00694 -7.37254e-17)
(15.6735 -4.33854 -8.54935e-16)
(15.6266 -4.68989 -5.48913e-16)
(15.5705 -5.06384 -1.63471e-15)
(15.5036 -5.46373 -5.02895e-15)
(15.4238 -5.89325 2.47513e-15)
(15.3285 -6.35663 2.03988e-15)
(15.2134 -6.85751 2.06503e-16)
(15.0776 -7.39888 -2.59626e-15)
(14.9026 -7.97986 -1.08009e-15)
(14.7113 -8.57683 3.97668e-15)
(14.3772 -9.18682 -9.66801e-16)
(14.1221 -9.36265 -5.52313e-15)
(13.6515 -9.33706 6.43008e-15)
(13.2014 -8.97993 -5.9485e-15)
(12.6838 -8.57403 1.05068e-14)
(12.2213 -8.22442 -7.92181e-15)
(11.8201 -7.93031 -3.6988e-16)
(11.4511 -7.65982 1.12058e-14)
(11.0979 -7.40172 -4.95423e-15)
(10.7642 -7.15675 -2.81263e-15)
(10.4548 -6.92408 6.77557e-17)
(10.1674 -6.6999 -1.1673e-15)
(9.89625 -6.48128 3.22584e-15)
(9.63653 -6.26699 1.01484e-15)
(9.38568 -6.05642 -2.9181e-15)
(9.14279 -5.84884 4.80678e-15)
(8.90778 -5.64342 -2.07073e-15)
(8.68069 -5.43934 6.7854e-16)
(8.46126 -5.23582 -8.23123e-17)
(8.2489 -5.03206 -4.98473e-15)
(8.04285 -4.82722 -2.56696e-15)
(7.84236 -4.62049 2.28249e-15)
(7.64674 -4.41108 1.07384e-15)
(7.45541 -4.19838 1.64211e-15)
(7.26794 -3.98192 -3.95847e-15)
(7.08421 -3.76141 -6.55027e-16)
(6.90448 -3.53664 1.98861e-16)
(6.72941 -3.30744 -2.32416e-15)
(6.56001 -3.07356 6.66653e-15)
(6.39751 -2.83457 -5.32395e-15)
(6.24328 -2.58981 2.19253e-15)
(6.09877 -2.33825 1.30473e-16)
(5.96569 -2.07848 1.2225e-15)
(5.84579 -1.80859 2.7754e-17)
(5.74333 -1.52615 -2.33886e-15)
(5.66231 -1.23099 2.23108e-16)
(5.67098 -0.897215 2.2075e-16)
(16.27 5.87792 -3.58568e-15)
(16.3151 5.67585 1.60432e-15)
(16.3541 5.49091 -1.18364e-15)
(16.3909 5.31675 1.24643e-16)
(16.4244 5.15035 -5.09895e-16)
(16.4543 4.98958 2.36683e-15)
(16.4802 4.83267 -1.43081e-15)
(16.5018 4.67852 1.70465e-15)
(16.5192 4.5265 -1.54672e-17)
(16.5325 4.37605 -2.92277e-15)
(16.5416 4.22593 2.33901e-15)
(16.5463 4.07753 -8.05324e-16)
(16.5466 3.92938 8.19906e-17)
(16.5424 3.7815 2.13086e-16)
(16.5337 3.63375 -2.01735e-16)
(16.5207 3.48593 -3.29242e-17)
(16.5034 3.33783 -3.26936e-16)
(16.4819 3.18911 3.21251e-16)
(16.4565 3.03931 9.27507e-16)
(16.4278 2.88766 -3.34384e-16)
(16.3972 2.73242 -5.00121e-17)
(16.3682 2.57072 -1.66615e-15)
(16.3515 2.40299 -2.07223e-15)
(16.3728 2.23772 3.3499e-15)
(16.4323 2.08021 -6.83625e-16)
(16.5029 1.9317 2.8439e-15)
(16.5739 1.78991 -2.68108e-15)
(16.6422 1.65104 3.51672e-15)
(16.707 1.51293 -5.72639e-15)
(16.768 1.37466 1.97035e-15)
(16.8248 1.23584 -8.60096e-16)
(16.8773 1.09519 2.17628e-16)
(16.9258 0.953711 2.67169e-15)
(16.9705 0.810713 8.06047e-16)
(17.0114 0.665958 2.20508e-15)
(17.0483 0.519306 -3.42048e-15)
(17.0813 0.370556 -1.17844e-15)
(17.1104 0.219476 4.30036e-15)
(17.1356 0.0658162 -2.1406e-15)
(17.1569 -0.0906943 2.53664e-15)
(17.1741 -0.250352 -1.62439e-15)
(17.1873 -0.413484 1.17482e-15)
(17.1961 -0.580449 -4.06988e-15)
(17.2005 -0.751639 -3.62535e-15)
(17.2002 -0.927482 3.60255e-15)
(17.1949 -1.10844 2.32878e-15)
(17.184 -1.29503 3.85384e-15)
(17.1673 -1.48778 -4.9827e-15)
(17.1439 -1.68729 -7.56188e-16)
(17.1132 -1.89417 3.55303e-15)
(17.0742 -2.10909 -1.00914e-15)
(17.0257 -2.33271 4.49652e-15)
(16.9663 -2.56569 -9.63936e-16)
(16.8939 -2.80866 -3.13444e-15)
(16.8063 -3.06213 1.01411e-15)
(16.7005 -3.32642 -4.15961e-15)
(16.5724 -3.60155 7.09016e-15)
(16.417 -3.88699 -2.78309e-15)
(16.2279 -4.1815 -2.71611e-15)
(15.9962 -4.48251 2.39555e-15)
(15.7117 -4.78608 -3.64641e-16)
(15.3586 -5.08492 -5.23372e-15)
(14.9247 -5.37051 4.14555e-15)
(14.3894 -5.62102 1.95637e-16)
(13.7653 -5.81451 3.25335e-15)
(13.1192 -5.9365 -5.59945e-15)
(12.5106 -5.99529 4.91913e-15)
(11.9804 -5.99808 -3.89562e-15)
(11.5248 -5.96138 -4.47613e-15)
(11.1189 -5.89816 9.74435e-15)
(10.7471 -5.8123 -7.89939e-15)
(10.4116 -5.70997 8.87386e-15)
(10.1117 -5.59569 3.95352e-15)
(9.8393 -5.47165 -1.24387e-14)
(9.58531 -5.33944 4.86724e-15)
(9.34442 -5.20136 3.04836e-16)
(9.1144 -5.05938 -4.40237e-15)
(8.89449 -4.91474 2.90004e-15)
(8.6844 -4.76807 4.32924e-15)
(8.48357 -4.61961 -2.61814e-15)
(8.29111 -4.46933 -1.15091e-15)
(8.10614 -4.31721 1.94456e-15)
(7.92803 -4.16319 2.28016e-15)
(7.75647 -4.00722 -1.08755e-14)
(7.59127 -3.84917 5.53302e-15)
(7.43229 -3.68888 3.39534e-15)
(7.27938 -3.52615 -3.78318e-15)
(7.13254 -3.36077 -1.40619e-15)
(6.99203 -3.19251 3.49094e-15)
(6.85838 -3.02112 -4.12943e-15)
(6.73233 -2.84625 5.13361e-16)
(6.61469 -2.66756 4.45984e-15)
(6.50632 -2.48463 -1.04883e-15)
(6.40805 -2.29704 -6.44747e-16)
(6.32081 -2.10442 -1.88288e-15)
(6.24564 -1.9064 2.13628e-15)
(6.18409 -1.70277 3.2904e-16)
(6.13701 -1.49327 -1.57912e-15)
(6.11067 -1.27924 2.28445e-16)
(6.07823 -1.05944 -8.00696e-17)
(15.7907 5.46372 4.82734e-15)
(15.9327 5.31947 -3.08175e-15)
(16.0546 5.17628 -4.59201e-17)
(16.1617 5.033 3.86903e-15)
(16.257 4.89101 -3.71087e-15)
(16.3428 4.75073 -4.65154e-16)
(16.4206 4.61239 5.90077e-16)
(16.4914 4.47605 7.38718e-17)
(16.5561 4.34164 -1.30044e-15)
(16.6157 4.20909 1.83423e-15)
(16.6707 4.07868 -1.55756e-17)
(16.721 3.94993 -9.93609e-18)
(16.7668 3.82231 -1.10632e-16)
(16.808 3.69567 1.84754e-16)
(16.8448 3.5696 1.11014e-17)
(16.8772 3.44365 4.3697e-17)
(16.9052 3.31724 4.62467e-17)
(16.9287 3.18958 -4.2488e-17)
(16.9473 3.05967 4.33854e-16)
(16.9608 2.92642 -1.99328e-16)
(16.9692 2.78855 7.3901e-17)
(16.9742 2.64412 -3.01194e-15)
(16.9812 2.49114 3.09469e-15)
(17.0016 2.33471 6.0075e-16)
(17.0345 2.1844 -3.92802e-15)
(17.0673 2.04265 1.91952e-15)
(17.095 1.90629 -1.56792e-15)
(17.1166 1.77288 5.03806e-15)
(17.1324 1.64109 -2.91797e-15)
(17.1428 1.50987 1.31654e-15)
(17.1485 1.37849 -2.50159e-15)
(17.1498 1.24615 -1.00117e-15)
(17.1471 1.11251 2.50113e-15)
(17.1406 0.97697 1.27937e-16)
(17.1303 0.839131 -3.14585e-15)
(17.1162 0.698711 3.84731e-15)
(17.0981 0.555441 -7.7719e-16)
(17.076 0.409066 -3.05604e-16)
(17.0498 0.259352 -1.53206e-15)
(17.0192 0.106066 8.58222e-16)
(16.9841 -0.0510214 8.79976e-16)
(16.9441 -0.212149 1.11123e-15)
(16.8991 -0.37756 3.71407e-15)
(16.8485 -0.547507 -1.09264e-14)
(16.792 -0.722245 2.01409e-15)
(16.729 -0.902038 7.96694e-15)
(16.659 -1.08715 -1.03283e-14)
(16.5812 -1.27783 -4.20059e-16)
(16.4948 -1.47433 6.07122e-15)
(16.399 -1.67687 2.88984e-15)
(16.2926 -1.88561 -7.55259e-15)
(16.1745 -2.10069 5.03708e-16)
(16.0433 -2.32211 7.51813e-15)
(15.8975 -2.54976 -1.79937e-15)
(15.7354 -2.78334 -3.06275e-16)
(15.5553 -3.02231 -3.58264e-15)
(15.3554 -3.26575 6.83591e-15)
(15.1339 -3.51227 -6.46588e-15)
(14.8893 -3.75987 4.39656e-15)
(14.6206 -4.00562 -6.17696e-16)
(14.3277 -4.24548 -2.21405e-15)
(14.0121 -4.47373 2.26222e-15)
(13.6772 -4.68312 1.43004e-16)
(13.3299 -4.8626 8.1616e-16)
(12.977 -5.00377 -8.1389e-15)
(12.6262 -5.1001 3.70814e-15)
(12.2822 -5.15076 -3.17389e-15)
(11.9463 -5.16063 4.68661e-15)
(11.6214 -5.13863 3.28648e-15)
(11.3116 -5.09391 -7.80471e-15)
(11.0199 -5.03209 -6.06757e-16)
(10.7457 -4.95653 4.16157e-15)
(10.4854 -4.86989 2.45557e-15)
(10.2359 -4.77449 3.25042e-15)
(9.99555 -4.67236 -5.69395e-15)
(9.76426 -4.56461 4.0276e-15)
(9.54294 -4.45234 6.12294e-16)
(9.33243 -4.33645 -4.83847e-15)
(9.13257 -4.21732 8.42379e-15)
(8.94254 -4.09499 -1.20477e-15)
(8.7615 -3.96936 -2.78288e-15)
(8.58881 -3.8404 -5.70646e-15)
(8.42408 -3.70815 -1.52121e-17)
(8.26703 -3.57262 1.69073e-15)
(8.11733 -3.43384 6.17008e-15)
(7.97464 -3.29187 -8.1119e-15)
(7.83872 -3.14676 1.00702e-14)
(7.70956 -2.9986 -4.05483e-15)
(7.58741 -2.84742 2.83504e-15)
(7.47271 -2.69326 -4.29706e-15)
(7.36598 -2.53615 -3.61935e-16)
(7.26772 -2.37609 3.72973e-15)
(7.17841 -2.21312 -3.54799e-15)
(7.0985 -2.04733 2.56654e-15)
(7.02851 -1.87888 1.46516e-15)
(6.96901 -1.70799 -1.26204e-15)
(6.92091 -1.53508 1.36675e-15)
(6.88409 -1.36067 -2.48912e-17)
(6.86347 -1.18591 -5.19211e-16)
(6.83295 -1.00964 -9.69713e-18)
(14.9889 5.22551 -3.25313e-15)
(15.0977 5.09222 3.87334e-15)
(15.1998 4.95771 -7.17521e-16)
(15.296 4.82344 1.79419e-15)
(15.3864 4.68934 -2.69386e-15)
(15.4711 4.55553 3.45548e-15)
(15.5506 4.42216 -9.3146e-16)
(15.6252 4.28934 6.93998e-16)
(15.6953 4.15698 -5.00692e-16)
(15.7612 4.02514 -2.00174e-15)
(15.8234 3.89498 2.67411e-16)
(15.8821 3.76501 3.62185e-16)
(15.9373 3.63589 2.37598e-16)
(15.9888 3.50739 -5.32712e-16)
(16.0366 3.37937 3.13796e-16)
(16.0805 3.25172 -4.74132e-17)
(16.1202 3.12429 2.12281e-16)
(16.1551 2.99694 1.49405e-16)
(16.1843 2.86953 -3.59743e-16)
(16.2071 2.74211 -1.00289e-15)
(16.2233 2.61526 1.22898e-15)
(16.2342 2.49025 1.27265e-15)
(16.2437 2.36806 -3.43373e-15)
(16.2586 2.24803 4.89271e-15)
(16.2793 2.12747 -8.49524e-16)
(16.2997 2.00371 -2.81991e-15)
(16.3155 1.87637 -6.27559e-16)
(16.3252 1.74628 4.3736e-15)
(16.3287 1.6141 -5.97725e-15)
(16.3268 1.48008 5.20972e-15)
(16.3203 1.34422 -5.01335e-15)
(16.3101 1.20731 7.88901e-15)
(16.2966 1.06836 -6.57397e-15)
(16.2799 0.927674 2.55172e-15)
(16.2602 0.785185 -1.91737e-15)
(16.2376 0.64073 2.3803e-15)
(16.212 0.494204 2.12547e-15)
(16.1833 0.345517 -6.84957e-15)
(16.1513 0.194576 3.11799e-15)
(16.116 0.0412917 -2.15282e-15)
(16.077 -0.11442 1.39136e-15)
(16.0342 -0.272638 -4.2584e-15)
(15.9872 -0.433429 6.3761e-15)
(15.9358 -0.596851 -4.64812e-15)
(15.8796 -0.762941 2.4433e-16)
(15.8182 -0.93172 1.48429e-15)
(15.7512 -1.10317 6.32856e-15)
(15.6781 -1.27726 -5.31108e-15)
(15.5984 -1.45388 -9.97811e-16)
(15.5116 -1.63287 4.05836e-15)
(15.4171 -1.81401 -8.7631e-15)
(15.3143 -1.99696 9.01914e-15)
(15.2026 -2.18127 -9.16855e-16)
(15.0812 -2.36634 6.9924e-16)
(14.9495 -2.55138 -9.88536e-16)
(14.8068 -2.73539 -5.91656e-15)
(14.6524 -2.91708 6.66838e-15)
(14.4856 -3.09489 3.61103e-15)
(14.3059 -3.26687 -1.10613e-14)
(14.1126 -3.43073 2.60415e-15)
(13.9054 -3.58379 -6.01881e-15)
(13.684 -3.72308 4.60738e-15)
(13.4487 -3.84548 -1.84747e-15)
(13.2003 -3.94806 3.37523e-15)
(12.9399 -4.02896 -5.36408e-15)
(12.6695 -4.08774 2.15038e-15)
(12.3932 -4.12561 8.39682e-15)
(12.1161 -4.14475 2.43893e-15)
(11.8437 -4.14736 -7.77767e-15)
(11.5791 -4.13535 6.60233e-15)
(11.3228 -4.11023 -6.51376e-15)
(11.0743 -4.07335 1.98333e-15)
(10.8334 -4.02604 8.51743e-15)
(10.6006 -3.96954 -7.15832e-15)
(10.3768 -3.90487 -4.56177e-15)
(10.1627 -3.83283 3.5516e-15)
(9.9582 -3.75412 -4.99621e-15)
(9.76315 -3.66946 5.38575e-16)
(9.5769 -3.57945 4.80283e-15)
(9.3989 -3.48466 -3.63971e-16)
(9.22872 -3.38559 -1.62353e-15)
(9.06611 -3.28262 1.54443e-15)
(8.91084 -3.17604 -3.65781e-15)
(8.76269 -3.06616 2.13494e-15)
(8.62145 -2.95327 -5.62636e-15)
(8.487 -2.83764 5.10244e-15)
(8.3594 -2.71946 -2.21591e-15)
(8.23891 -2.59889 2.14004e-15)
(8.12592 -2.47602 -1.88243e-15)
(8.02079 -2.35095 -2.69831e-15)
(7.92383 -2.22377 1.29026e-15)
(7.83527 -2.09458 3.27301e-15)
(7.75527 -1.96351 -6.57196e-16)
(7.68398 -1.83076 -2.91189e-16)
(7.62157 -1.69657 -1.33702e-15)
(7.5682 -1.56125 5.28136e-16)
(7.52433 -1.42521 2.30988e-15)
(7.48924 -1.2889 -1.61224e-15)
(7.46724 -1.15323 3.0518e-16)
(7.43185 -1.01771 -2.336e-17)
(14.6665 4.97523 -6.662e-15)
(14.7532 4.85407 5.28604e-15)
(14.834 4.73208 -5.26591e-15)
(14.9099 4.60989 4.56031e-15)
(14.9811 4.48744 -1.84216e-15)
(15.0476 4.36483 1.97718e-15)
(15.1098 4.2421 -7.87627e-16)
(15.1678 4.11921 7.34767e-16)
(15.2215 3.996 -2.75308e-15)
(15.2711 3.87247 6.67032e-16)
(15.3167 3.74946 5.85922e-16)
(15.3586 3.62602 -1.9783e-16)
(15.3966 3.50252 -1.0561e-16)
(15.4305 3.37873 -3.5858e-17)
(15.4604 3.25467 4.80819e-16)
(15.486 3.13038 -1.89316e-16)
(15.5069 3.00588 -3.89811e-16)
(15.523 2.88127 6.50529e-16)
(15.5338 2.75669 -6.73492e-16)
(15.5395 2.6324 9.59249e-16)
(15.5411 2.50895 -2.78062e-16)
(15.5413 2.3875 -4.38986e-15)
(15.5451 2.26963 5.35742e-15)
(15.5584 2.15497 2.96971e-16)
(15.5818 2.03998 -4.40906e-15)
(15.61 1.92233 3.27901e-15)
(15.6377 1.80205 -2.20971e-15)
(15.6618 1.6795 4.97376e-15)
(15.6812 1.55495 -3.84514e-15)
(15.6956 1.42862 9.03732e-16)
(15.7054 1.30058 -3.31838e-15)
(15.7111 1.17172 1.21242e-18)
(15.7127 1.04136 -1.40179e-15)
(15.7105 0.909874 4.70652e-15)
(15.7045 0.777331 2.55327e-15)
(15.6947 0.643676 -2.58603e-15)
(15.6813 0.508901 -7.75412e-17)
(15.664 0.373 -1.05631e-15)
(15.6428 0.235955 -1.53204e-15)
(15.6176 0.0977423 4.64848e-15)
(15.588 -0.0416518 -2.84431e-15)
(15.554 -0.182237 8.02808e-15)
(15.5153 -0.324007 -1.5566e-14)
(15.4716 -0.466943 -4.37289e-16)
(15.4226 -0.611004 9.99064e-15)
(15.368 -0.756126 3.61069e-15)
(15.3075 -0.90221 -1.49296e-15)
(15.2407 -1.04913 -4.33309e-15)
(15.1672 -1.1967 -3.1526e-15)
(15.0866 -1.34469 5.73877e-15)
(14.9983 -1.49282 -3.52572e-15)
(14.902 -1.64073 -3.66932e-15)
(14.7972 -1.78798 1.03043e-14)
(14.6832 -1.93405 1.02945e-15)
(14.5597 -2.0783 -4.71405e-15)
(14.4262 -2.22001 -1.43344e-15)
(14.2821 -2.35834 5.47791e-15)
(14.1272 -2.49235 -7.24153e-15)
(13.9612 -2.62096 -1.86112e-15)
(13.7842 -2.74306 1.2353e-15)
(13.5964 -2.85742 3.26227e-15)
(13.3986 -2.96282 -1.83222e-15)
(13.1921 -3.05809 1.04946e-15)
(12.9787 -3.14218 -1.20214e-15)
(12.7605 -3.2142 4.69562e-15)
(12.5399 -3.27349 -4.92614e-15)
(12.3193 -3.31962 5.41852e-15)
(12.1004 -3.35259 -5.70112e-15)
(11.884 -3.37269 2.81042e-15)
(11.6704 -3.38059 3.88959e-15)
(11.46 -3.37714 3.46347e-17)
(11.2536 -3.36323 -4.37246e-15)
(11.0521 -3.33973 1.07792e-15)
(10.856 -3.30746 2.57929e-15)
(10.6661 -3.26715 -7.6536e-15)
(10.4823 -3.21952 8.81686e-15)
(10.3049 -3.16522 -5.91776e-15)
(10.1336 -3.10491 -2.61307e-15)
(9.96873 -3.03917 1.11841e-14)
(9.81021 -2.96853 -3.22098e-15)
(9.65808 -2.89341 3.64131e-15)
(9.51229 -2.81418 -1.0715e-14)
(9.37271 -2.73117 4.19605e-15)
(9.23927 -2.64468 5.03304e-15)
(9.11198 -2.55493 -2.88166e-15)
(8.991 -2.46214 1.38676e-15)
(8.87656 -2.36653 -1.07277e-15)
(8.76893 -2.26829 -2.54507e-15)
(8.66831 -2.16759 1.98084e-15)
(8.57487 -2.06461 -4.4379e-15)
(8.48869 -1.95958 4.55829e-15)
(8.40982 -1.85275 1.3909e-15)
(8.33829 -1.74438 -4.0575e-15)
(8.27417 -1.63476 1.04286e-15)
(8.21756 -1.5242 -3.28786e-16)
(8.16851 -1.41302 5.06764e-16)
(8.12737 -1.30159 -1.80948e-15)
(8.09336 -1.19024 4.86444e-16)
(8.07032 -1.07961 7.54278e-16)
(8.0332 -0.969658 1.51212e-16)
(14.3225 4.64587 -5.722e-16)
(14.4129 4.54613 6.6391e-15)
(14.4969 4.44478 -3.73755e-15)
(14.5753 4.34211 1.45479e-15)
(14.6483 4.2382 -2.69476e-15)
(14.7161 4.13325 3.55553e-15)
(14.7789 4.02735 1.36993e-16)
(14.8369 3.92058 -2.57711e-15)
(14.8901 3.81282 2.32859e-15)
(14.9386 3.70418 -1.6984e-15)
(14.9826 3.59556 -1.2278e-15)
(15.0224 3.4862 1.05135e-15)
(15.0577 3.3762 -2.0827e-18)
(15.0884 3.26539 -4.80962e-16)
(15.1146 3.15371 7.36279e-16)
(15.136 3.04111 -4.56092e-17)
(15.1525 2.92749 -3.3583e-16)
(15.1641 2.8128 6.21314e-16)
(15.171 2.69702 -1.15559e-15)
(15.1738 2.58018 1.45136e-15)
(15.1741 2.46247 5.44159e-16)
(15.1747 2.34423 -5.54226e-16)
(15.1797 2.22619 2.81079e-15)
(15.1929 2.10916 -4.72163e-15)
(15.2145 1.99313 6.94412e-16)
(15.2404 1.87776 3.47841e-15)
(15.2667 1.76272 -6.87774e-16)
(15.2904 1.64759 2.43422e-15)
(15.31 1.53209 -8.42665e-15)
(15.3247 1.41607 5.76938e-15)
(15.3346 1.29936 -3.16322e-17)
(15.3396 1.18248 5.98741e-16)
(15.3401 1.0648 -3.18578e-15)
(15.336 0.946434 -2.53168e-15)
(15.3273 0.827402 3.50707e-15)
(15.3142 0.707626 -1.93162e-18)
(15.2967 0.587088 -2.36322e-15)
(15.2748 0.465784 2.96309e-15)
(15.2485 0.343716 -4.29902e-16)
(15.2176 0.220891 1.97815e-15)
(15.1821 0.0973309 -3.38481e-15)
(15.1419 -0.0269327 2.43745e-15)
(15.0968 -0.151846 -6.44209e-15)
(15.0466 -0.27734 3.13519e-15)
(14.9912 -0.403323 8.07624e-16)
(14.9305 -0.52968 3.09184e-16)
(14.8641 -0.656268 -6.64211e-15)
(14.792 -0.782913 5.94523e-15)
(14.714 -0.909407 5.73276e-15)
(14.6298 -1.0355 -1.76368e-16)
(14.5392 -1.1609 -7.23016e-15)
(14.4421 -1.28528 4.44884e-15)
(14.3383 -1.40824 -3.4058e-15)
(14.2278 -1.52934 3.27901e-16)
(14.1104 -1.64808 -1.84724e-15)
(13.9862 -1.76392 4.97619e-16)
(13.8552 -1.87623 1.07859e-14)
(13.7176 -1.98437 -1.24116e-14)
(13.5737 -2.08761 6.71736e-15)
(13.4238 -2.18522 -7.43018e-15)
(13.2686 -2.27643 1.06059e-15)
(13.1086 -2.36048 2.94224e-15)
(12.9447 -2.43668 5.38943e-15)
(12.7775 -2.5044 -3.09211e-15)
(12.6077 -2.56313 -7.68066e-15)
(12.4357 -2.61253 5.43587e-15)
(12.2623 -2.65245 2.30333e-15)
(12.088 -2.68295 5.84689e-15)
(11.9135 -2.70431 6.04729e-16)
(11.7394 -2.7169 -1.20289e-14)
(11.5668 -2.72115 3.8284e-15)
(11.3962 -2.71749 3.65016e-15)
(11.2285 -2.70636 6.07542e-15)
(11.0641 -2.68819 -1.32118e-15)
(10.9032 -2.66345 -8.7294e-15)
(10.7463 -2.6326 1.51969e-15)
(10.5935 -2.59608 3.50602e-15)
(10.4451 -2.55431 -4.21027e-15)
(10.3013 -2.50771 4.29668e-15)
(10.1622 -2.45663 -3.86515e-15)
(10.0279 -2.40141 -2.42322e-16)
(9.89845 -2.34237 2.24111e-15)
(9.77389 -2.27981 -1.06948e-15)
(9.6544 -2.214 -3.35136e-15)
(9.54018 -2.14519 1.27569e-15)
(9.43148 -2.07361 -5.75347e-15)
(9.32852 -1.9995 1.03771e-14)
(9.23146 -1.92308 -7.12685e-15)
(9.14039 -1.84459 3.46544e-15)
(9.05535 -1.76427 -3.93976e-16)
(8.97637 -1.68238 -8.85259e-16)
(8.90346 -1.59915 -2.52038e-15)
(8.83668 -1.51484 7.80843e-16)
(8.77604 -1.4297 5.79433e-16)
(8.72162 -1.34399 1.65132e-16)
(8.67343 -1.25799 -1.93475e-16)
(8.63169 -1.17199 -1.36969e-15)
(8.59563 -1.08628 2.67815e-15)
(8.56873 -1.00135 -1.53895e-16)
(8.52739 -0.917921 5.43474e-17)
(13.9554 4.32421 4.6933e-15)
(14.0364 4.23897 -4.91091e-15)
(14.1132 4.15173 1.26049e-15)
(14.186 4.06307 4.12274e-15)
(14.2547 3.973 -5.60863e-15)
(14.3194 3.88165 1.11289e-15)
(14.38 3.7891 7.9621e-16)
(14.4365 3.69538 -3.26083e-15)
(14.4888 3.60035 2.34178e-15)
(14.5369 3.50409 -5.6579e-16)
(14.581 3.40784 7.728e-16)
(14.6213 3.31053 9.33207e-18)
(14.6576 3.21241 -5.35966e-16)
(14.6897 3.1133 -1.2822e-16)
(14.7175 3.01317 1.02616e-15)
(14.7408 2.91196 -2.08531e-16)
(14.7596 2.80965 -3.87951e-16)
(14.7739 2.7062 5.97338e-16)
(14.784 2.60164 1.00949e-15)
(14.7906 2.4961 -2.44832e-15)
(14.7951 2.38982 8.13884e-16)
(14.7996 2.28309 -3.18485e-15)
(14.8063 2.17615 4.72636e-15)
(14.8176 2.06946 1.79084e-15)
(14.8334 1.96339 -3.52446e-15)
(14.8515 1.85783 1.49327e-15)
(14.8693 1.75242 -2.91609e-15)
(14.8848 1.64687 6.07687e-15)
(14.8967 1.54103 -4.76903e-15)
(14.9043 1.4348 3.07319e-15)
(14.9072 1.32805 -3.25227e-15)
(14.9058 1.22142 -2.70097e-16)
(14.9001 1.11411 -9.46834e-16)
(14.8901 1.00636 3.9797e-15)
(14.8757 0.898202 -2.26279e-15)
(14.8573 0.789577 -2.9366e-15)
(14.8349 0.680509 7.33863e-15)
(14.8084 0.571032 -5.10588e-15)
(14.7781 0.461195 3.34593e-16)
(14.7438 0.351044 -1.53847e-15)
(14.7055 0.24065 -9.59701e-16)
(14.6632 0.130091 -2.57886e-17)
(14.6168 0.0194651 6.01339e-15)
(14.5662 -0.0911193 -1.16705e-14)
(14.5114 -0.201531 2.39612e-15)
(14.4523 -0.311624 9.48134e-15)
(14.3888 -0.421227 -1.03513e-14)
(14.3208 -0.530152 8.85242e-15)
(14.2483 -0.638185 -1.36488e-15)
(14.1712 -0.745087 2.794e-15)
(14.0894 -0.850593 -5.39759e-15)
(14.0028 -0.954415 -3.42687e-15)
(13.9116 -1.05624 8.30862e-15)
(13.8156 -1.15571 -2.37449e-15)
(13.7148 -1.25249 -7.66104e-15)
(13.6094 -1.34616 2.71882e-15)
(13.4995 -1.43633 1.03228e-14)
(13.385 -1.52259 -7.33395e-15)
(13.2663 -1.60451 4.16702e-15)
(13.1435 -1.68169 -2.07678e-15)
(13.0167 -1.7537 9.0406e-16)
(12.8864 -1.82019 -8.24515e-15)
(12.753 -1.88083 1.29391e-16)
(12.6168 -1.93538 4.78592e-15)
(12.478 -1.98363 -6.3588e-15)
(12.3371 -2.02548 -1.5329e-15)
(12.1946 -2.06084 1.18906e-14)
(12.0512 -2.08975 -4.05907e-15)
(11.9074 -2.11225 -5.57315e-15)
(11.7639 -2.12846 6.81886e-15)
(11.6213 -2.13852 -2.94147e-15)
(11.4799 -2.1426 1.27768e-15)
(11.3403 -2.14092 2.45565e-17)
(11.2027 -2.13371 3.46739e-15)
(11.0675 -2.12124 -7.53475e-15)
(10.9349 -2.10378 6.88702e-15)
(10.8054 -2.08161 -5.2818e-15)
(10.6789 -2.05498 1.72043e-15)
(10.5558 -2.02418 -6.0174e-16)
(10.4361 -1.98946 1.42857e-15)
(10.3201 -1.95108 1.05771e-15)
(10.2078 -1.90929 7.84924e-16)
(10.0996 -1.86432 -3.12794e-15)
(9.99557 -1.81638 -2.51276e-15)
(9.89604 -1.7657 4.08396e-15)
(9.80113 -1.71248 -3.54966e-15)
(9.71094 -1.65692 6.82362e-15)
(9.62554 -1.59925 -5.18925e-15)
(9.54494 -1.53968 3.01749e-15)
(9.46918 -1.47844 -3.57173e-15)
(9.39827 -1.41574 1.83803e-15)
(9.33225 -1.3518 8.26424e-16)
(9.27115 -1.28685 -2.25594e-15)
(9.21502 -1.22111 3.1738e-15)
(9.16389 -1.1548 -1.60191e-15)
(9.11777 -1.08818 2.53102e-15)
(9.07682 -1.0215 -3.41099e-16)
(9.04026 -0.954979 -6.09892e-16)
(9.01131 -0.888991 -1.77645e-16)
(8.96864 -0.824409 -3.02841e-16)
(13.6429 4.00945 -4.90895e-15)
(13.7119 3.93835 7.6148e-15)
(13.7773 3.86478 -2.68177e-15)
(13.8395 3.78939 1.06652e-15)
(13.8983 3.71221 -3.69768e-15)
(13.9536 3.63336 -1.83999e-16)
(14.0055 3.55294 3.07341e-15)
(14.0539 3.47098 -1.23114e-15)
(14.0985 3.38737 1.85964e-15)
(14.1395 3.3022 -2.21735e-15)
(14.1769 3.21683 1.72468e-16)
(14.211 3.13015 -1.20899e-16)
(14.2415 3.04244 1.70355e-16)
(14.2683 2.9536 -4.72484e-16)
(14.2911 2.86364 3.83824e-16)
(14.3101 2.7726 -1.2757e-17)
(14.3251 2.68055 2.51838e-16)
(14.3363 2.58758 1.09259e-16)
(14.3441 2.49386 -1.40606e-16)
(14.3494 2.39959 -5.33143e-17)
(14.3532 2.30509 5.30396e-16)
(14.3571 2.21069 3.1253e-16)
(14.3626 2.11659 -9.89906e-16)
(14.3712 2.02288 -3.37134e-15)
(14.383 1.92938 2.98139e-15)
(14.3965 1.83573 -7.61148e-16)
(14.41 1.74171 -2.77472e-16)
(14.422 1.64722 5.22047e-15)
(14.4313 1.55223 -7.77414e-15)
(14.4371 1.45672 5.72964e-15)
(14.4391 1.36064 -3.97408e-15)
(14.4374 1.26479 -2.32389e-15)
(14.432 1.16832 2.73258e-16)
(14.4226 1.0716 4.65502e-15)
(14.4093 0.97473 -2.35023e-15)
(14.3922 0.877689 3.96285e-15)
(14.3715 0.780546 -5.06765e-15)
(14.3471 0.683379 1.25093e-15)
(14.3192 0.586272 1.26871e-16)
(14.2878 0.489301 4.14668e-15)
(14.2528 0.392552 -6.32872e-15)
(14.2143 0.296118 -5.83216e-15)
(14.1722 0.200105 7.25281e-15)
(14.1265 0.104623 -6.61198e-15)
(14.0771 0.00979247 3.40605e-15)
(14.0242 -0.084254 6.183e-16)
(13.9675 -0.17737 6.92405e-15)
(13.9071 -0.269399 -1.01484e-14)
(13.8429 -0.360175 8.49504e-15)
(13.775 -0.449517 1.29252e-15)
(13.7033 -0.537231 -4.71659e-15)
(13.6279 -0.623114 8.59121e-16)
(13.5487 -0.706951 -3.46752e-15)
(13.4657 -0.78852 9.36947e-15)
(13.3792 -0.867586 -3.506e-15)
(13.289 -0.943913 -6.17524e-15)
(13.1953 -1.01726 1.16771e-14)
(13.0983 -1.08739 -9.77385e-15)
(12.998 -1.15406 4.94515e-15)
(12.8947 -1.21704 -5.11552e-15)
(12.7885 -1.27612 -6.12195e-15)
(12.6798 -1.33108 1.51566e-14)
(12.569 -1.38175 -1.46272e-14)
(12.4564 -1.42798 1.03316e-14)
(12.3421 -1.46966 -1.02276e-14)
(12.2265 -1.50669 2.32585e-15)
(12.1099 -1.53899 8.26649e-15)
(11.9927 -1.56656 2.97401e-15)
(11.8753 -1.5894 -1.20121e-14)
(11.758 -1.60755 1.2277e-14)
(11.6411 -1.62107 -1.72697e-15)
(11.5249 -1.63008 -4.54417e-15)
(11.4097 -1.6347 8.97652e-15)
(11.2959 -1.63506 -9.61414e-15)
(11.1835 -1.63132 -1.0308e-15)
(11.073 -1.62364 3.48164e-15)
(10.9643 -1.61219 3.30598e-16)
(10.8579 -1.59715 -4.32925e-15)
(10.7538 -1.5787 7.55015e-15)
(10.6522 -1.55704 -4.6999e-15)
(10.5534 -1.53233 -4.75982e-16)
(10.4576 -1.50478 -4.07584e-15)
(10.365 -1.47454 3.49974e-15)
(10.2758 -1.44181 -4.67825e-15)
(10.19 -1.40675 7.12989e-15)
(10.1077 -1.36955 1.19264e-16)
(10.0291 -1.33038 3.46929e-15)
(9.95405 -1.28945 -9.53022e-15)
(9.88272 -1.24692 4.49884e-15)
(9.81512 -1.20299 -2.85588e-15)
(9.75129 -1.15784 8.93987e-16)
(9.69129 -1.11166 1.482e-15)
(9.63516 -1.06463 6.3157e-16)
(9.58294 -1.01693 -8.65513e-16)
(9.53465 -0.96875 9.29566e-16)
(9.49028 -0.920253 9.00232e-16)
(9.44995 -0.87161 -1.7226e-15)
(9.41298 -0.822972 2.65839e-16)
(9.38223 -0.774593 -4.47724e-16)
(9.3382 -0.727393 -8.75871e-17)
(13.3501 3.7166 -6.12467e-15)
(13.409 3.65683 -1.93704e-15)
(13.4651 3.59475 5.77624e-15)
(13.5184 3.53095 -3.34364e-15)
(13.5686 3.4654 -6.51783e-16)
(13.6156 3.39816 -1.23384e-15)
(13.6595 3.32928 7.49433e-16)
(13.7001 3.2588 4.55592e-15)
(13.7372 3.18654 -2.39976e-15)
(13.7709 3.11259 1.90599e-15)
(13.8012 3.03838 -1.72044e-15)
(13.8285 2.96278 -1.37664e-16)
(13.8524 2.88602 -1.46064e-16)
(13.8727 2.80802 -1.78364e-16)
(13.8896 2.7288 -6.33735e-16)
(13.903 2.64845 4.51667e-16)
(13.913 2.56706 8.79085e-17)
(13.92 2.48475 -1.32358e-16)
(13.9245 2.40169 2.07751e-15)
(13.9272 2.31808 -3.56582e-15)
(13.9292 2.23415 2.52188e-15)
(13.9314 2.15014 -1.04429e-15)
(13.9352 2.06623 5.24028e-15)
(13.9415 1.98257 -2.52072e-15)
(13.9505 1.89915 1.03266e-15)
(13.9611 1.81575 -2.59764e-15)
(13.9719 1.73225 2.35728e-15)
(13.9818 1.64857 -5.08886e-15)
(13.9897 1.56466 6.30086e-15)
(13.9951 1.48048 -5.47949e-15)
(13.9973 1.39595 -2.01575e-16)
(13.9965 1.31189 -4.5405e-15)
(13.9924 1.22741 3.69863e-15)
(13.9847 1.14289 -1.3422e-15)
(13.9734 1.05841 5.64037e-15)
(13.9586 0.973988 1.62342e-15)
(13.9403 0.889671 -3.81242e-15)
(13.9186 0.805549 -1.83418e-15)
(13.8937 0.721703 1.18681e-15)
(13.8654 0.638208 -1.29773e-16)
(13.8339 0.555148 -2.99366e-15)
(13.7992 0.472609 3.3308e-15)
(13.7613 0.390683 -9.74086e-15)
(13.7202 0.309464 3.7526e-15)
(13.676 0.229052 -1.12869e-15)
(13.6287 0.149556 7.6712e-15)
(13.5783 0.0710896 -8.31614e-15)
(13.5248 -0.00622614 5.84676e-15)