/*--------------------------------*- C++ -*----------------------------------*\
  =========                 |
  \\      /  F ield         | OpenFOAM: The Open Source CFD Toolbox
   \\    /   O peration     | Website:  https://openfoam.org
    \\  /    A nd           | Version:  6.0
     \\/     M anipulation  |
\*---------------------------------------------------------------------------*/
FoamFile
{
    version     2.0;
    format      ascii;
    class       volScalarField;
    location    "6";
    object      p;
}
// * * * * * * * * * * * * * * * * * * * * * * * * * * * * * * * * * * * * * //

dimensions      [0 2 -2 0 0 0 0];

internalField   nonuniform List<scalar> 
4920
(
0.0244957
0.0245756
0.0247014
0.0248913
0.0251603
0.0255376
0.0260429
0.0267026
0.0275205
0.0284538
0.029363
0.0297511
0.0284254
0.022913
0.0165229
0.0246762
0.0247181
0.0248081
0.0249685
0.0252189
0.025594
0.0261193
0.026811
0.0276882
0.028795
0.0301065
0.0313508
0.0316095
0.028033
0.0211636
0.0249189
0.0249519
0.0250411
0.025201
0.0254546
0.0258362
0.0263762
0.0270801
0.0279507
0.0289965
0.0301966
0.0312192
0.0312302
0.0273599
0.0180982
0.0252318
0.0252837
0.0253946
0.0255804
0.0258597
0.0262672
0.0268318
0.0275448
0.0283827
0.0293257
0.0302477
0.0307286
0.0299436
0.0250453
0.0139941
0.0256276
0.0257105
0.0258603
0.0260949
0.026427
0.0268862
0.0274932
0.0282296
0.0290582
0.0299047
0.0306138
0.0306206
0.0290765
0.0230317
0.0107674
0.0263982
0.0265209
0.0267045
0.0269667
0.0273235
0.0278068
0.0284391
0.0291934
0.0300171
0.0308317
0.0313829
0.0310305
0.0288411
0.0216531
0.00836255
0.0273678
0.0275235
0.0277465
0.0280599
0.0284712
0.0290087
0.0296852
0.0304717
0.0313199
0.0321122
0.0325979
0.0319909
0.0292412
0.0208787
0.00637514
0.0288907
0.0290762
0.0293172
0.0296377
0.0300531
0.0305999
0.0312957
0.0321083
0.0329804
0.0338052
0.0342411
0.0334243
0.0301474
0.0205469
0.00459417
0.0305603
0.0307772
0.0310602
0.0314335
0.0319065
0.0325102
0.0332567
0.034117
0.0350429
0.0358922
0.0363419
0.0353521
0.0315399
0.0205846
0.00278451
0.0327352
0.0329864
0.0332962
0.0336871
0.0341801
0.0348123
0.0356052
0.0365231
0.0375101
0.0384432
0.0388825
0.0377081
0.0333207
0.0208719
0.000899082
0.0350229
0.0353124
0.0356761
0.0361442
0.036724
0.0374516
0.038338
0.0393509
0.040443
0.0414391
0.0419237
0.0405704
0.0355281
0.0213931
-0.0011841
0.037973
0.0382986
0.0386949
0.0391868
0.0397995
0.0405775
0.0415441
0.042659
0.0438562
0.0449758
0.0454615
0.0438766
0.0380942
0.0220799
-0.00346161
0.0410369
0.0414166
0.0418885
0.0424836
0.0432152
0.0441252
0.0452265
0.0464784
0.0478254
0.0490375
0.0495877
0.0477583
0.0411143
0.0229543
-0.00602762
0.0448074
0.0452446
0.0457778
0.0464278
0.0472304
0.048234
0.0494611
0.0508656
0.0523654
0.053763
0.054314
0.052151
0.0445234
0.0239863
-0.00888927
0.0487781
0.049284
0.0499107
0.0506977
0.05166
0.052844
0.0542608
0.0558602
0.0576053
0.0591811
0.0597819
0.0572427
0.0484445
0.0251571
-0.0120953
0.0537731
0.0543373
0.0550197
0.0558492
0.056879
0.0581715
0.0597489
0.0615979
0.0636
0.0654113
0.0659898
0.0629339
0.0527804
0.0264079
-0.0156946
0.0589331
0.0595792
0.060374
0.0613735
0.0626058
0.0641244
0.0659792
0.0680831
0.0703941
0.0724496
0.0730407
0.0694273
0.057668
0.0277314
-0.0196857
0.065408
0.0661126
0.0669573
0.0679957
0.0692874
0.0709355
0.0729446
0.0753445
0.0779786
0.080305
0.0808734
0.0765848
0.0629701
0.0290108
-0.0241816
0.0718751
0.0726896
0.0736802
0.0748986
0.0764023
0.0782713
0.0806006
0.0833078
0.0863274
0.0889971
0.0896295
0.084637
0.0688373
0.0302129
-0.0291528
0.0790465
0.0799862
0.0811165
0.0824774
0.0841625
0.0862843
0.0888809
0.0920249
0.0955063
0.098576
0.099245
0.0934218
0.075046
0.0311147
-0.0347987
0.0862071
0.0872958
0.0886227
0.0902672
0.0922941
0.0947953
0.0978896
0.101497
0.105543
0.109116
0.109924
0.103183
0.0817554
0.0317135
-0.0410016
0.0948201
0.0960007
0.0974203
0.0991691
0.101365
0.104165
0.107615
0.111826
0.11651
0.120649
0.121557
0.113737
0.0886594
0.0316481
-0.0480016
0.103126
0.104479
0.106127
0.108182
0.110757
0.114
0.118077
0.122915
0.128384
0.133247
0.134369
0.125288
0.0958919
0.0309516
-0.0556505
0.112224
0.113718
0.115535
0.117795
0.120683
0.124409
0.12907
0.134792
0.141171
0.146858
0.148165
0.137602
0.103004
0.0291706
-0.064247
0.12078
0.122491
0.1246
0.127285
0.13071
0.135095
0.140655
0.147283
0.15482
0.161546
0.163143
0.150787
0.110116
0.0263509
-0.0735556
0.130526
0.132364
0.134622
0.137514
0.141294
0.146285
0.152622
0.160475
0.169279
0.177169
0.179028
0.16458
0.116645
0.0220031
-0.0838905
0.139464
0.141512
0.144065
0.147386
0.151747
0.157506
0.16498
0.174072
0.184478
0.193783
0.195964
0.178914
0.122655
0.0161947
-0.0949192
0.148621
0.15084
0.153618
0.157241
0.162132
0.168749
0.177367
0.188144
0.200283
0.211116
0.213625
0.193467
0.127395
0.00848426
-0.106966
0.155905
0.158456
0.161709
0.16606
0.171867
0.179656
0.189851
0.202349
0.216615
0.229265
0.232026
0.207953
0.130928
-0.00106346
-0.119592
0.164819
0.167417
0.170748
0.175313
0.181685
0.190516
0.202193
0.216826
0.233292
0.247838
0.250822
0.221987
0.132384
-0.0127877
-0.133112
0.17156
0.174457
0.178229
0.183504
0.190814
0.200944
0.214445
0.231175
0.250287
0.26702
0.269832
0.235021
0.131837
-0.0265888
-0.146994
0.179266
0.182178
0.186025
0.19157
0.199577
0.210952
0.226244
0.245521
0.267357
0.286227
0.288637
0.246566
0.128341
-0.042616
-0.161514
0.184702
0.187865
0.192115
0.198339
0.207313
0.22017
0.237548
0.259463
0.284554
0.305788
0.306824
0.255844
0.122064
-0.0607605
-0.176106
0.190202
0.193363
0.197732
0.204304
0.214177
0.228497
0.248223
0.273331
0.301653
0.324863
0.323823
0.262277
0.112075
-0.080969
-0.191009
0.19359
0.196976
0.201718
0.209034
0.219934
0.236193
0.258457
0.286672
0.318789
0.34383
0.338872
0.264953
0.0987067
-0.103097
-0.20564
0.198026
0.201224
0.205928
0.213472
0.225436
0.243248
0.26809
0.299945
0.335385
0.361332
0.351161
0.263318
0.0811721
-0.126837
-0.220169
0.201179
0.204379
0.209223
0.217302
0.230026
0.249753
0.277212
0.312165
0.351572
0.377742
0.359676
0.256524
0.0599873
-0.152081
-0.234076
0.203849
0.206883
0.211723
0.220093
0.234008
0.255404
0.285441
0.324198
0.366727
0.391286
0.363497
0.244222
0.0345624
-0.178326
-0.24748
0.205237
0.208215
0.21321
0.222209
0.237101
0.260615
0.293364
0.335218
0.381129
0.402143
0.361501
0.225822
0.00559283
-0.205499
-0.259917
0.206828
0.209528
0.214479
0.223888
0.240124
0.265489
0.301016
0.346411
0.393965
0.408101
0.35284
0.201331
-0.027267
-0.232922
-0.271459
0.20849
0.210871
0.215742
0.225661
0.242947
0.27051
0.308804
0.356973
0.405261
0.409064
0.336473
0.170439
-0.0632741
-0.260644
-0.281728
0.211114
0.212928
0.217472
0.227682
0.246275
0.275527
0.316573
0.367643
0.413965
0.402628
0.311731
0.133446
-0.102637
-0.28793
-0.290841
0.214272
0.21547
0.219721
0.230343
0.250033
0.281148
0.324609
0.377664
0.419648
0.388448
0.277722
0.0902063
-0.144616
-0.314955
-0.298611
0.218843
0.219315
0.223159
0.234095
0.255103
0.287543
0.33315
0.387649
0.421136
0.364182
0.233678
0.0409351
-0.189428
-0.34099
-0.304827
0.226244
0.225696
0.228851
0.23995
0.261939
0.295904
0.342929
0.397269
0.41758
0.329273
0.178588
-0.0148029
-0.236511
-0.366097
-0.309411
0.237929
0.236026
0.238109
0.248832
0.271312
0.305347
0.353611
0.406671
0.406752
0.280823
0.110525
-0.0778712
-0.286311
-0.388879
-0.312281
0.255713
0.252079
0.252589
0.262365
0.283744
0.315542
0.365891
0.41238
0.380923
0.217585
0.0286664
-0.149345
-0.337886
-0.408631
-0.31336
0.281883
0.276016
0.274283
0.282366
0.301122
0.326206
0.376405
0.405982
0.328636
0.135993
-0.0666228
-0.228823
-0.388793
-0.423488
-0.312417
0.31876
0.310248
0.305926
0.311801
0.325885
0.344294
0.376314
0.371535
0.249087
0.0404165
-0.17148
-0.310428
-0.434764
-0.433269
-0.309553
0.369515
0.358146
0.350857
0.353939
0.360877
0.367983
0.345227
0.292829
0.16028
-0.0552961
-0.278787
-0.383405
-0.471175
-0.43746
-0.304886
0.437199
0.422768
0.411911
0.410233
0.40825
0.386607
0.253134
0.18201
0.0889732
-0.135416
-0.379265
-0.440455
-0.49555
-0.436906
-0.298731
0.526832
0.509857
0.494225
0.484265
0.465294
0.38727
0.0821275
0.10494
0.0538533
-0.188895
-0.462905
-0.479226
-0.507499
-0.431647
-0.29114
0.646189
0.630539
0.615468
0.60606
0.545359
0.380974
-0.119696
0.104069
0.047315
-0.204823
-0.515796
-0.498794
-0.50641
-0.422243
-0.282186
0.799163
0.788231
0.777626
0.777643
0.682154
0.444459
-0.22785
0.166943
0.053238
-0.190483
-0.523526
-0.498663
-0.491955
-0.408491
-0.271624
0.99147
0.988442
0.984865
0.988255
0.932324
0.691009
-0.0637137
0.25141
0.0728045
-0.163004
-0.465652
-0.475345
-0.466794
-0.391303
-0.259391
1.23746
1.25766
1.2716
1.27112
1.35801
1.2412
0.581023
0.44025
0.191877
-0.0990677
-0.327482
-0.426291
-0.438106
-0.372031
-0.245487
1.53498
1.59929
1.65503
1.72191
2.02505
2.18683
1.8767
1.04872
0.48352
0.0222437
-0.141383
-0.367685
-0.411277
-0.353107
-0.23069
1.8743
1.9798
2.1112
2.39579
2.93336
3.50003
3.63305
2.20744
0.93826
0.175382
0.0288139
-0.318388
-0.387538
-0.336408
-0.2169
2.12941
2.23447
2.42992
2.90897
3.64024
4.33782
4.54132
2.98175
1.2746
0.282945
0.116427
-0.295019
-0.37354
-0.325949
-0.207304
2.17356
2.28372
2.54342
3.02165
3.67721
4.287
4.53128
3.10934
1.40001
0.363753
0.154994
-0.282257
-0.36713
-0.319906
-0.202011
0.0429925
0.0447043
0.0437947
0.0420163
0.0400968
0.0382259
0.0364133
0.0347164
0.0330871
0.0318163
0.0323856
0.0306763
0.0273905
0.024145
0.021412
0.0192054
0.017374
0.0158194
0.0142335
0.0125898
0.0206058
0.0198025
0.0186142
0.0175409
0.0166538
0.0159153
0.015232
0.014586
0.0138852
0.0131071
0.014678
0.014847
0.0150812
0.0153776
0.0155938
0.0156716
0.0155866
0.0153866
0.0151097
0.014615
0.0122195
0.0129402
0.0138119
0.0147176
0.0154536
0.0159493
0.0161955
0.0162554
0.0162684
0.0159863
0.0110161
0.0120843
0.0132813
0.0145347
0.0156158
0.0164294
0.0169698
0.0172983
0.017631
0.0176148
0.00996723
0.0112912
0.0127383
0.0142918
0.0157047
0.0168627
0.017739
0.0183691
0.0190398
0.0192888
0.00867063
0.0101985
0.0119006
0.0138171
0.0156409
0.0172314
0.0185206
0.0195217
0.0205904
0.0211577
0.00701698
0.00869591
0.0107628
0.013128
0.0155155
0.0176439
0.0194654
0.02091
0.0224002
0.023186
0.00480235
0.00668877
0.00910535
0.0120855
0.0151243
0.017967
0.0204369
0.0224405
0.0243904
0.0255384
0.00199468
0.00396191
0.00680467
0.010443
0.0143025
0.0179967
0.0212926
0.0239933
0.026636
0.0281366
-0.00139082
0.000615053
0.00390322
0.00832139
0.0131532
0.0179014
0.0222226
0.0258277
0.0292145
0.0313917
-0.00527444
-0.00325925
0.000549483
0.00585954
0.0118436
0.0178399
0.0233814
0.0280463
0.0324691
0.0352141
-0.00961431
-0.00756712
-0.00317083
0.00317455
0.0104987
0.0179576
0.0249378
0.0308759
0.036376
0.0400631
-0.0143661
-0.012267
-0.00724681
0.000255263
0.00909077
0.0182173
0.0268402
0.0342337
0.0410972
0.0455851
-0.0194731
-0.0173117
-0.0115812
-0.00277411
0.00778596
0.0188131
0.0293123
0.0383697
0.046661
0.0523461
-0.0249309
-0.0227355
-0.0162253
-0.00599435
0.0064899
0.0196197
0.0321982
0.0430802
0.0530279
0.0597649
-0.0307517
-0.028469
-0.0210478
-0.00917663
0.00548663
0.02096
0.0358202
0.0486853
0.0603308
0.0684565
-0.0369775
-0.0345516
-0.0261335
-0.0124191
0.00462241
0.0226167
0.0398918
0.0548312
0.0683033
0.0776547
-0.0435426
-0.0408756
-0.0311688
-0.0153406
0.00435736
0.0250484
0.0448727
0.0619587
0.0772284
0.0880125
-0.0505054
-0.0474894
-0.0362745
-0.0181141
0.00442181
0.0279016
0.0503291
0.0695665
0.0866799
0.0987268
-0.0578843
-0.0542399
-0.0411257
-0.020309
0.00529542
0.0316798
0.0567614
0.0781431
0.0970347
0.110484
-0.0657077
-0.0612237
-0.045934
-0.0222324
0.00656298
0.0358711
0.0635668
0.0870306
0.107694
0.122424
-0.074014
-0.0682334
-0.0502749
-0.0233374
0.00881341
0.0410871
0.0713621
0.0968427
0.119184
0.13527
-0.0827633
-0.0754335
-0.0544431
-0.0240702
0.0115049
0.0466662
0.0793997
0.106787
0.130794
0.14814
-0.0919991
-0.0825364
-0.0580165
-0.0238515
0.0152017
0.0532188
0.0882904
0.117499
0.14309
0.161759
-0.101588
-0.0897596
-0.061329
-0.0232309
0.0192775
0.0599744
0.0971915
0.12809
0.155272
0.175248
-0.111492
-0.0966985
-0.0638414
-0.0215241
0.024383
0.0676099
0.106791
0.139275
0.167985
0.189314
-0.121585
-0.103622
-0.0659409
-0.0193434
0.0298429
0.0753299
0.116222
0.150135
0.180396
0.203069
-0.131791
-0.11006
-0.0670795
-0.0159966
0.0363014
0.0838111
0.126179
0.161402
0.19317
0.217215
-0.142016
-0.116356
-0.0676937
-0.012166
0.0430396
0.0922398
0.135791
0.172145
0.205463
0.230906
-0.152128
-0.121956
-0.0672063
-0.00712965
0.0507152
0.1013
0.145763
0.183122
0.217957
0.244804
-0.162097
-0.127293
-0.0661242
-0.00163047
0.0586019
0.11021
0.155281
0.193448
0.229851
0.25811
-0.171764
-0.13178
-0.0638334
0.00500399
0.0673113
0.119617
0.165018
0.203861
0.241819
0.27146
-0.181167
-0.135916
-0.0608641
0.0119705
0.0761069
0.128762
0.174211
0.213529
0.253113
0.284136
-0.1901
-0.139087
-0.0566769
0.0199063
0.0855547
0.138241
0.183474
0.22313
0.264365
0.296715
-0.198675
-0.141822
-0.0517782
0.0280091
0.0949602
0.147361
0.19214
0.231933
0.274904
0.308563
-0.206662
-0.143507
-0.0456811
0.0369913
0.104826
0.156659
0.200762
0.240563
0.285312
0.320199
-0.214228
-0.144713
-0.0389718
0.0460634
0.114507
0.16551
0.208759
0.248379
0.294976
0.33106
-0.221131
-0.144898
-0.0312685
0.0557391
0.124453
0.174353
0.216589
0.255907
0.304391
0.341565
-0.227457
-0.144602
-0.0231696
0.0653625
0.134062
0.182629
0.223751
0.262613
0.313024
0.351225
-0.232523
-0.143173
-0.0143205
0.075383
0.143727
0.190705
0.230627
0.268945
0.321303
0.360413
-0.236226
-0.14104
-0.00532675
0.0850985
0.152901
0.198103
0.236804
0.274467
0.328775
0.36873
-0.238195
-0.137722
0.00396593
0.0948294
0.16185
0.205167
0.242602
0.279583
0.335791
0.376489
-0.238758
-0.133814
0.0129986
0.103979
0.170159
0.211545
0.247732
0.283995
0.342005
0.383408
-0.237787
-0.129087
0.0219459
0.112854
0.178072
0.217497
0.252476
0.288057
0.347723
0.389769
-0.235634
-0.12419
0.0303963
0.121005
0.185291
0.222765
0.256614
0.291537
0.352682
0.395379
-0.232108
-0.11886
0.0386092
0.128761
0.192067
0.227593
0.260366
0.294694
0.357144
0.400474
-0.227441
-0.113448
0.0464104
0.135897
0.19824
0.231859
0.263618
0.297379
0.360949
0.404954
-0.221514
-0.107547
0.0540988
0.142752
0.20405
0.235783
0.266553
0.299792
0.364316
0.40901
-0.214575
-0.101362
0.0615737
0.149178
0.209398
0.239286
0.269096
0.301829
0.367135
0.41259
-0.206505
-0.0944887
0.0690956
0.155464
0.214476
0.242545
0.271393
0.303647
0.36957
0.415844
-0.197465
-0.0871079
0.0765533
0.161475
0.219184
0.245481
0.273374
0.30516
0.37155
0.418776
-0.187297
-0.0790088
0.0840702
0.167363
0.223612
0.24819
0.275124
0.306465
0.373185
0.421545
-0.17606
-0.0703286
0.091533
0.172998
0.227666
0.250603
0.276587
0.307508
0.374448
0.424213
-0.1636
-0.0608955
0.0990407
0.178508
0.231416
0.252802
0.27784
0.308373
0.375444
0.426921
-0.150201
-0.0509584
0.106404
0.183736
0.234805
0.254752
0.278884
0.309073
0.376201
0.429718
-0.137028
-0.0411746
0.113032
0.188322
0.237656
0.256384
0.279738
0.309672
0.376827
0.432655
-0.127564
-0.0340127
0.11737
0.191286
0.23945
0.257421
0.280285
0.310109
0.377324
0.435458
-0.123272
-0.0310064
0.119173
0.192527
0.240204
0.257867
0.280546
0.310372
0.377788
0.437583
0.0314883
0.0307792
0.02925
0.0272651
0.0248972
0.0223035
0.0194522
0.0164911
0.0135231
0.0107114
0.00821273
0.00612737
0.00443281
0.00307795
0.00197738
0.000793451
0.0106493
0.0103021
0.00977228
0.00930092
0.00888409
0.00859353
0.00828257
0.00792964
0.0074198
0.00670828
0.00582418
0.00481961
0.003799
0.00279817
0.00184571
0.000630306
0.0123293
0.0120811
0.0115691
0.011012
0.0104455
0.00994481
0.0094131
0.00884851
0.00819383
0.00741572
0.00649324
0.00545664
0.0043322
0.00318024
0.00205109
0.000613849
0.0133915
0.0129944
0.0123981
0.0117666
0.0111682
0.0106354
0.0100982
0.00953776
0.00891787
0.008174
0.00730545
0.00628707
0.00513848
0.00386804
0.00252831
0.000773619
0.0141179
0.0135682
0.0128767
0.0121809
0.0115709
0.0110613
0.0105691
0.0100623
0.00947611
0.00880944
0.00799077
0.00701181
0.00585652
0.00450322
0.00299537
0.000966556
0.0153445
0.0146313
0.0137931
0.0129283
0.0121929
0.0115766
0.0110385
0.0105193
0.0100052
0.00938195
0.0086462
0.00772962
0.00658858
0.00514256
0.00344444
0.00114622
0.0162078
0.0152756
0.0142624
0.013249
0.0124225
0.0117781
0.0112636
0.0108275
0.0103877
0.00992411
0.00929834
0.00845519
0.00731686
0.00575728
0.00385811
0.00131557
0.0170166
0.0157385
0.0144553
0.0132134
0.0122967
0.0116532
0.0112423
0.0109602
0.0107392
0.010433
0.00998486
0.0092514
0.00811193
0.00639275
0.0042549
0.00146772
0.0176617
0.0160456
0.014515
0.0131099
0.0121315
0.01153
0.011236
0.011135
0.0110989
0.0110426
0.0107424
0.0100953
0.00891759
0.00700078
0.00460783
0.00160476
0.0187328
0.0167341
0.0149055
0.0132518
0.0121471
0.0115317
0.0113306
0.0114
0.0116164
0.0117268
0.0116177
0.0110526
0.00978723
0.00760442
0.0049225
0.00171518
0.0198177
0.0173976
0.0152561
0.0133748
0.0121768
0.0115999
0.0115349
0.0118404
0.0122357
0.0125825
0.0125948
0.0120655
0.0106557
0.00815987
0.00517733
0.00180115
0.0211838
0.0183029
0.0158346
0.0137241
0.0124339
0.0118956
0.0120058
0.0124534
0.0130856
0.0135843
0.013739
0.0132138
0.0115644
0.00868263
0.00537588
0.00185173
0.0232292
0.0198122
0.0169209
0.0144927
0.0130314
0.012515
0.0126855
0.0133549
0.0141418
0.0148024
0.0150416
0.0144346
0.0124609
0.00914239
0.00550742
0.00187236
0.0255901
0.0215662
0.0182247
0.0154624
0.0138314
0.013301
0.0136506
0.0144605
0.0154521
0.0162688
0.0165623
0.0157758
0.0133569
0.00953992
0.00557017
0.00185303
0.028862
0.0241377
0.0202161
0.0169905
0.0150799
0.014497
0.0148899
0.0159029
0.0170483
0.0179685
0.0182305
0.0171563
0.0142048
0.00985604
0.00556332
0.00180212
0.0326689
0.0272102
0.0227137
0.0190397
0.0168323
0.0161226
0.016573
0.0176554
0.018947
0.0199411
0.0200936
0.0185914
0.0150006
0.0100848
0.0054822
0.00171067
0.03759
0.0313696
0.0262008
0.0219347
0.0192659
0.0183002
0.0186451
0.0198143
0.0211508
0.0221327
0.0220613
0.0200155
0.0157149
0.0102236
0.00533684
0.00159026
0.043306
0.0362644
0.0303491
0.0253984
0.0221744
0.0208808
0.021162
0.022277
0.0236696
0.0245805
0.0241527
0.0214161
0.0163313
0.0102602
0.00511967
0.00143324
0.0493752
0.0413693
0.0346212
0.0289986
0.0253255
0.0238697
0.023991
0.0251371
0.0264589
0.0271958
0.0262834
0.0227499
0.0168404
0.010208
0.00485022
0.00125385
0.0555784
0.0466556
0.0391882
0.0330374
0.0290596
0.0272675
0.0273083
0.0283101
0.0295463
0.0300212
0.0284468
0.0239932
0.0172227
0.0100514
0.00451821
0.00104507
0.0628013
0.0529466
0.0446448
0.0378707
0.033296
0.0312282
0.0309873
0.0318356
0.0328963
0.0329632
0.0305825
0.0251276
0.017488
0.00981702
0.00414971
0.00082242
0.0705809
0.0597275
0.0505431
0.0430191
0.0379579
0.0354678
0.0350161
0.0356955
0.0365074
0.0360053
0.0326438
0.026112
0.01761
0.00948492
0.0037317
0.000579084
0.0785646
0.0666805
0.0565889
0.0483699
0.0427804
0.0400349
0.0393593
0.0398288
0.0402817
0.039059
0.0345916
0.0269503
0.0176147
0.00909179
0.0032945
0.000330981
0.0868783
0.0739525
0.0629664
0.0540286
0.0479841
0.0448893
0.044011
0.0442251
0.0442137
0.0420746
0.0363724
0.0276013
0.0174747
0.0086146
0.00282243
7.10486e-05
0.0955531
0.0815998
0.0697091
0.0600651
0.0535158
0.0500858
0.0489297
0.0488197
0.0482087
0.0450047
0.0379799
0.0280943
0.0172318
0.00809761
0.00234782
-0.000185181
0.104669
0.0896772
0.0769
0.0665904
0.0594097
0.0555934
0.0541021
0.0535988
0.0522112
0.04776
0.0393504
0.028384
0.0168562
0.00751587
0.00185343
-0.00044494
0.114135
0.0981992
0.0846845
0.0734819
0.065753
0.0614275
0.0595416
0.0585187
0.0561765
0.0503383
0.0405045
0.0285189
0.0164004
0.00691747
0.00137162
-0.000694014
0.124066
0.107251
0.0927818
0.0809091
0.0724641
0.0676295
0.0652848
0.0635747
0.060019
0.0526476
0.0413874
0.0284552
0.0158326
0.00627488
0.000883301
-0.000940069
0.133936
0.116315
0.101227
0.0886131
0.0795923
0.0742523
0.0713109
0.0687078
0.0637324
0.0547246
0.0420464
0.0282591
0.015213
0.00563731
0.00041953
-0.00117044
0.14411
0.12562
0.109833
0.096668
0.0870993
0.0812223
0.0775491
0.0737936
0.0671592
0.0564528
0.0424249
0.0278858
0.0145086
0.00497635
-3.9329e-05
-0.00139285
0.154195
0.134998
0.118683
0.104984
0.0949513
0.0884777
0.0839161
0.078797
0.0703357
0.0579014
0.0425872
0.0274108
0.0137825
0.00433969
-0.000464964
-0.00159674
0.164615
0.144565
0.127684
0.113579
0.103065
0.0959683
0.0903026
0.0835496
0.0730948
0.0589594
0.0424821
0.0267885
0.0129991
0.00369731
-0.000877733
-0.00178992
0.174801
0.154146
0.136886
0.122339
0.111395
0.103573
0.0966693
0.0880803
0.0755285
0.0597321
0.0421922
0.0261009
0.012222
0.00309396
-0.00125227
-0.00196362
0.185318
0.163986
0.14616
0.131303
0.119882
0.111307
0.102823
0.0921689
0.0774486
0.0601066
0.0416691
0.0253034
0.0114149
0.0024999
-0.00160837
-0.00212512
0.195923
0.173897
0.155764
0.140445
0.128538
0.118952
0.10879
0.095894
0.0789905
0.0602123
0.0410051
0.0244793
0.0106386
0.0019552
-0.00192444
-0.00226778
0.206737
0.184139
0.165482
0.149816
0.13736
0.126651
0.11432
0.099026
0.0799686
0.0599413
0.0401525
0.0235824
0.00985541
0.00142989
-0.00221984
-0.00239839
0.217281
0.194289
0.175445
0.159459
0.146331
0.134069
0.119504
0.101691
0.080561
0.0594436
0.0392099
0.022694
0.00912188
0.000959359
-0.00247609
-0.00251184
0.228031
0.20461
0.18558
0.169332
0.155402
0.141388
0.124007
0.103646
0.0805806
0.0586156
0.0381306
0.0217694
0.0084005
0.00051517
-0.00271092
-0.00261384
0.238541
0.215031
0.196005
0.179439
0.164401
0.148129
0.127993
0.105062
0.080241
0.0576197
0.0370155
0.0208843
0.00774196
0.000127127
-0.0029094
-0.00270101
0.249416
0.225634
0.206619
0.189693
0.173343
0.154561
0.1311
0.105715
0.0793643
0.0563562
0.035816
0.0199934
0.00710831
-0.000232152
-0.00308793
-0.00277812
0.259992
0.236303
0.217415
0.20003
0.181929
0.160146
0.133572
0.105819
0.0781925
0.0549947
0.0346316
0.0191655
0.00654453
-0.000537368
-0.00323414
-0.00284289
0.2707
0.247044
0.228307
0.210379
0.190253
0.165211
0.135021
0.105164
0.0765531
0.0534394
0.0334124
0.0183574
0.00601431
-0.000813263
-0.00336218
-0.00289872
0.281414
0.257905
0.239338
0.220544
0.197845
0.169161
0.135762
0.103994
0.0747047
0.0518589
0.032253
0.0176286
0.00555579
-0.00103951
-0.00346248
-0.00294468
0.29226
0.268866
0.250441
0.230541
0.204897
0.172388
0.135414
0.102116
0.0724779
0.0501568
0.0310997
0.0169361
0.00513375
-0.00123874
-0.00354734
-0.00298304
0.303015
0.280002
0.26159
0.24003
0.210866
0.174323
0.134358
0.099802
0.0701391
0.0484956
0.0300399
0.0163307
0.00478085
-0.00139421
-0.00360909
-0.0030137
0.314043
0.291251
0.272721
0.249111
0.216041
0.175408
0.132228
0.0968728
0.0675236
0.0467807
0.0290174
0.0157722
0.00446483
-0.00152536
-0.0036576
-0.00303757
0.325056
0.302661
0.283641
0.257278
0.219811
0.175112
0.129451
0.0936153
0.0648956
0.0451632
0.0281109
0.0153021
0.00421249
-0.00161917
-0.00368729
-0.00305557
0.336449
0.314212
0.294403
0.26473
0.222548
0.173912
0.125679
0.0898591
0.0620902
0.0435462
0.027261
0.0148816
0.00399397
-0.0016925
-0.00370613
-0.00306757
0.347902
0.32587
0.30469
0.270908
0.223662
0.171339
0.121369
0.0858979
0.0593618
0.0420678
0.0265383
0.0145449
0.00383195
-0.00173483
-0.00370987
-0.00307514
0.359837
0.337736
0.314653
0.276075
0.223588
0.167891
0.116201
0.0815668
0.0565471
0.0406313
0.0258812
0.0142569
0.0037002
-0.00175989
-0.00370437
-0.003077
0.371913
0.349617
0.32383
0.279629
0.221783
0.163171
0.110629
0.0771525
0.0538826
0.039359
0.0253526
0.0140447
0.00361725
-0.00175971
-0.00368689
-0.00307561
0.384409
0.361706
0.332404
0.281849
0.218691
0.157669
0.104343
0.0724896
0.0512025
0.0381526
0.0248893
0.0138761
0.00355985
-0.00174554
-0.00366167
-0.00306877
0.39656
0.373657
0.339832
0.282135
0.2137
0.150827
0.0978005
0.0678635
0.0487276
0.0371213
0.0245489
0.0137735
0.00354384
-0.00171101
-0.00362699
-0.00305953
0.408601
0.385686
0.346278
0.280787
0.207062
0.142915
0.0907697
0.0631278
0.0463017
0.0361698
0.0242678
0.0137084
0.00354945
-0.00166491
-0.00358543
-0.00304479
0.41929
0.397397
0.350815
0.276763
0.198071
0.133716
0.0836925
0.0585627
0.0441268
0.0353952
0.0241002
0.0136994
0.00359
-0.00160243
-0.00353636
-0.0030283
0.428725
0.409012
0.352371
0.269692
0.187094
0.123787
0.0764182
0.0540422
0.0420535
0.0347045
0.0239828
0.0137213
0.00364845
-0.00153047
-0.00348116
-0.00300624
0.435763
0.417504
0.348397
0.258997
0.17423
0.113147
0.0693667
0.0498418
0.0402651
0.0341849
0.0239679
0.0137902
0.00373653
-0.00144519
-0.00341993
-0.00298285
0.443166
0.416915
0.337515
0.245024
0.159998
0.102258
0.0624119
0.0458326
0.0386222
0.0337472
0.0239917
0.0138836
0.00383965
-0.00135193
-0.003353
-0.0029537
0.447602
0.401287
0.320042
0.228485
0.144807
0.0912314
0.0559127
0.0422541
0.0372775
0.0334682
0.0241058
0.0140165
0.00396805
-0.00124772
-0.00328118
-0.00292354
0.445861
0.380231
0.302423
0.212855
0.130439
0.0808554
0.0498746
0.0389943
0.0361015
0.0332651
0.024249
0.0141698
0.00410978
-0.00113636
-0.00320393
-0.00288743
0.421825
0.354402
0.286844
0.199682
0.117834
0.0711825
0.0444045
0.0361525
0.0351839
0.0332006
0.0244738
0.0143593
0.00427485
-0.00101515
-0.00312292
-0.00285078
0.375124
0.324824
0.272246
0.188675
0.107137
0.062076
0.0391228
0.0333598
0.0342952
0.0331538
0.0247037
0.0145612
0.00445005
-0.000888103
-0.00303728
-0.00280823
0.320563
0.290285
0.254796
0.178802
0.0986101
0.0539212
0.0342137
0.0306255
0.0334201
0.0331323
0.0249669
0.014778
0.00463835
-0.000755093
-0.00294912
-0.00276487
0.276255
0.255117
0.2361
0.17062
0.0929506
0.0478268
0.0300444
0.0278432
0.0323863
0.0330122
0.0251771
0.0149802
0.00482401
-0.000621494
-0.00285786
-0.00271534
0.244761
0.22552
0.219755
0.164668
0.0903499
0.0442654
0.0269446
0.0252398
0.0312567
0.0328269
0.0253739
0.0151751
0.00501116
-0.000487035
-0.00276671
-0.00266556
0.222505
0.203675
0.205518
0.160925
0.0908174
0.0432798
0.024986
0.0228863
0.029973
0.0324887
0.0254806
0.0153361
0.00518542
-0.000357166
-0.00267561
-0.00261078
0.206547
0.186644
0.191385
0.157871
0.0936462
0.044747
0.0242914
0.021079
0.0286354
0.0320481
0.0255431
0.0154739
0.00535239
-0.000230435
-0.00258723
-0.00255673
0.193582
0.173511
0.178949
0.154958
0.0977951
0.0482978
0.0250836
0.0199056
0.0272471
0.0314359
0.0254888
0.0155636
0.00549937
-0.000111409
-0.00250083
-0.0024984
0.182565
0.163364
0.168293
0.151861
0.102348
0.0533201
0.0272401
0.0195008
0.0258983
0.0307068
0.0253646
0.015618
0.00563302
2.29985e-06
-0.00241853
-0.00244118
0.173151
0.155845
0.159984
0.149178
0.106947
0.0591977
0.030558
0.0198402
0.0246365
0.0298136
0.0251023
0.0156109
0.00574092
0.000105796
-0.00233956
-0.00238032
0.16556
0.150526
0.153784
0.14692
0.111292
0.0655047
0.0346716
0.0208984
0.0235168
0.0288144
0.0247468
0.0155551
0.00582967
0.000202129
-0.00226562
-0.00232084
0.157794
0.145638
0.148685
0.144714
0.114997
0.0717526
0.0393817
0.022596
0.0226051
0.0276839
0.0242334
0.015421
0.00588561
0.000285545
-0.00219616
-0.00225822
0.148951
0.139691
0.143243
0.141655
0.117387
0.0774275
0.0442032
0.0247825
0.0219126
0.0264896
0.0236093
0.0152211
0.00591402
0.00035913
-0.0021328
-0.0021971
0.139179
0.132456
0.136773
0.137235
0.11797
0.0819263
0.0488372
0.0273028
0.0215152
0.0252485
0.022833
0.0149267
0.00590029
0.000416178
-0.0020754
-0.00213358
0.130219
0.124706
0.129105
0.131181
0.116501
0.0849652
0.052843
0.0299054
0.0213578
0.0240313
0.0219631
0.0145542
0.00584841
0.000459466
-0.00202551
-0.00207187
0.122466
0.116874
0.120645
0.123833
0.113191
0.0863824
0.0561412
0.0324656
0.0215019
0.022876
0.0209846
0.0140816
0.00574373
0.000480927
-0.00198363
-0.00200858
0.115725
0.109434
0.11198
0.115658
0.108388
0.0863073
0.0585077
0.034769
0.0218345
0.0218309
0.019964
0.0135354
0.00559113
0.0004827
-0.00195154
-0.00194753
0.109715
0.102441
0.103417
0.107007
0.10243
0.0847742
0.059976
0.0367621
0.0224006
0.0209398
0.018914
0.0129073
0.00538085
0.000456785
-0.00193007
-0.00188613
0.104152
0.0958008
0.0951066
0.0981482
0.0956266
0.0820197
0.0604215
0.0382713
0.0230423
0.0202051
0.0178915
0.0122331
0.00512088
0.000405149
-0.00192142
-0.00182785
0.098544
0.0892306
0.0869677
0.0892377
0.0882091
0.0781268
0.0599273
0.0393222
0.023797
0.0196582
0.0169169
0.0115143
0.00480769
0.000320669
-0.00192685
-0.00177078
0.0927628
0.0826078
0.0790261
0.0804543
0.0804288
0.0733677
0.0584633
0.0397979
0.0244856
0.019253
0.0160236
0.0107895
0.0044533
0.00020619
-0.00194896
-0.00171806
0.0864843
0.0757
0.0711106
0.0718104
0.0724418
0.0678632
0.0561792
0.0397748
0.0251357
0.0190077
0.0152353
0.0100692
0.00406385
5.88086e-05
-0.00198819
-0.0016685
0.0795357
0.0682629
0.0630828
0.0633591
0.0644306
0.0618894
0.0531298
0.0391618
0.0255655
0.018834
0.0145505
0.00938645
0.00365388
-0.000117222
-0.00204743
-0.00162501
0.071995
0.0605008
0.055195
0.0552162
0.0565727
0.0555827
0.049486
0.0380466
0.0258163
0.0187451
0.0139865
0.00875105
0.00323568
-0.000320436
-0.0021259
-0.00158688
0.0648882
0.0535668
0.0481289
0.0477914
0.0491285
0.0492316
0.0453443
0.0363592
0.0257081
0.0186186
0.0135023
0.00818065
0.00282252
-0.000545046
-0.00222617
-0.00155668
0.0589373
0.047808
0.042079
0.0411078
0.0421212
0.0428708
0.0408171
0.0341773
0.0252699
0.0184554
0.0131026
0.00768013
0.00243218
-0.00078235
-0.00234412
-0.00153368
0.0540872
0.0431213
0.036911
0.0350942
0.0355766
0.0366502
0.0359838
0.0314605
0.0243647
0.0181195
0.0127128
0.00724371
0.00207093
-0.00102663
-0.0024817
-0.0015201
0.0495981
0.0388571
0.0322093
0.0296071
0.0294782
0.0305895
0.030964
0.0283156
0.0230586
0.0176338
0.0123428
0.00686961
0.0017548
-0.00126493
-0.00263145
-0.00151474
0.045274
0.0348088
0.0278719
0.0245659
0.0238038
0.0247911
0.0258454
0.024769
0.021279
0.0168802
0.0119082
0.00653271
0.00147842
-0.00149443
-0.00279458
-0.00151912
0.0409241
0.0308153
0.0236902
0.0198263
0.018501
0.0192282
0.0207113
0.0209303
0.0191159
0.0158971
0.0114289
0.00623072
0.00125632
-0.00169742
-0.00295865
-0.00153058
0.0366057
0.026863
0.0196629
0.0153606
0.0135217
0.013974
0.0156455
0.016863
0.0165521
0.0146012
0.0108185
0.00592464
0.00107051
-0.0018767
-0.00312482
-0.00155009
0.0322461
0.0229102
0.0157074
0.0110711
0.00887647
0.00898809
0.0107368
0.0126882
0.0136976
0.0130508
0.0101087
0.00561848
0.000933548
-0.00201387
-0.00327735
-0.00157339
0.0278874
0.0189652
0.0118292
0.00706596
0.00454261
0.00436901
0.00606086
0.00850068
0.0105984
0.0112042
0.0092194
0.00526552
0.0008156
-0.00212018