/*--------------------------------*- C++ -*----------------------------------*\
  =========                 |
  \\      /  F ield         | OpenFOAM: The Open Source CFD Toolbox
   \\    /   O peration     | Website:  https://openfoam.org
    \\  /    A nd           | Version:  6.0
     \\/     M anipulation  |
\*---------------------------------------------------------------------------*/
FoamFile
{
    version     2.0;
    format      ascii;
    class       surfaceScalarField;
    location    "13";
    object      phi;
}
// * * * * * * * * * * * * * * * * * * * * * * * * * * * * * * * * * * * * * //

dimensions      [0 3 -1 0 0 0 0];

internalField   nonuniform List<scalar> 
123526
(
8.18109e-05
2.26047e-05
-8.14295e-05
8.22279e-05
2.44318e-05
8.26741e-05
2.64057e-05
8.31594e-05
2.85384e-05
8.36796e-05
3.08423e-05
8.42447e-05
3.33307e-05
8.48515e-05
3.60182e-05
8.55107e-05
3.89201e-05
8.62204e-05
4.20523e-05
8.69921e-05
4.54345e-05
8.78225e-05
4.90861e-05
8.87246e-05
5.30273e-05
8.96964e-05
5.72804e-05
9.07543e-05
6.18674e-05
9.18974e-05
6.6815e-05
9.31389e-05
7.2154e-05
9.44783e-05
7.7911e-05
9.59373e-05
8.41117e-05
9.75153e-05
9.07964e-05
9.92265e-05
9.8001e-05
0.00010108
0.000105754
0.000103094
0.0001141
0.000105268
0.000123086
0.000107633
0.000132738
0.000110188
0.00014312
0.000112956
0.000154266
0.000115952
0.000166225
0.000119191
0.000179051
0.000122694
0.000192782
0.000126477
0.000207477
0.000130563
0.000223169
0.000134969
0.00023991
0.000139718
0.000257731
0.000144829
0.000276663
0.000150327
0.000296727
0.000156236
0.000317921
0.000162576
0.000340238
0.000169371
0.000363633
0.000176641
0.000388038
0.000184403
0.000413343
0.000192672
0.000439382
0.000201458
0.000465927
0.000210766
0.000492666
0.000220593
0.000519184
0.000230924
0.000544936
0.000241735
0.000569215
0.000252982
0.000591122
0.000264603
0.000609515
0.000276508
0.00062297
0.000288575
0.000629726
0.000300634
0.000627638
0.000312469
0.000614112
0.000323792
0.000586052
0.000334255
0.000539765
0.000343412
0.000470977
0.000350688
0.000374706
0.000355607
0.000245718
0.000357366
7.71513e-05
0.000364581
-0.000141717
-0.000389404
0.000399009
8.05085e-05
2.22287e-05
-8.01344e-05
8.09164e-05
2.40258e-05
8.13535e-05
2.5967e-05
8.18294e-05
2.8064e-05
8.23411e-05
3.0329e-05
8.28983e-05
3.27749e-05
8.34989e-05
3.54161e-05
8.41525e-05
3.82679e-05
8.48579e-05
4.13452e-05
8.56251e-05
4.46688e-05
8.64511e-05
4.82581e-05
8.73479e-05
5.21321e-05
8.83133e-05
5.63126e-05
8.9363e-05
6.08191e-05
9.04964e-05
6.56789e-05
9.17257e-05
7.09258e-05
9.3051e-05
7.65829e-05
9.44927e-05
8.26704e-05
9.60514e-05
8.92349e-05
9.77395e-05
9.63126e-05
9.95679e-05
0.000103923
0.000101552
0.000112116
0.000103694
0.00012094
0.000106021
0.000130409
0.000108536
0.000140602
0.000111259
0.000151541
0.000114205
0.000163276
0.000117389
0.000175864
0.000120832
0.000189335
0.000124548
0.000203757
0.000128562
0.000219152
0.000132889
0.00023558
0.00013755
0.000253063
0.000142569
0.000271638
0.000147965
0.000291323
0.000153764
0.000312114
0.000159986
0.000334009
0.000166651
0.00035696
0.00017378
0.000380901
0.000181391
0.000405724
0.000189496
0.000431267
0.000198108
0.000457305
0.00020723
0.000483533
0.00021686
0.000509542
0.000226985
0.000534796
0.000237582
0.000558602
0.00024861
0.000580074
0.000260009
0.000598094
0.000271688
0.000611262
0.000283527
0.000617854
0.000295359
0.000615762
0.000306967
0.000602445
0.000318063
0.000574866
0.000328298
0.000529411
0.000337234
0.000461883
0.000344285
0.00036744
0.000348748
0.000240931
0.000351047
7.43089e-05
0.000349872
-0.000141074
-0.000380907
0.00034095
7.92715e-05
2.18644e-05
-7.89089e-05
7.96666e-05
2.36324e-05
8.00908e-05
2.55414e-05
8.05532e-05
2.76031e-05
8.10513e-05
2.98293e-05
8.15948e-05
3.22328e-05
8.21819e-05
3.48276e-05
8.28223e-05
3.76287e-05
8.35154e-05
4.06505e-05
8.42706e-05
4.39147e-05
8.50857e-05
4.74409e-05
8.59717e-05
5.12471e-05
8.69271e-05
5.53547e-05
8.79663e-05
5.97807e-05
8.9089e-05
6.45533e-05
9.03063e-05
6.9709e-05
9.16185e-05
7.52678e-05
9.30448e-05
8.12442e-05
9.45859e-05
8.76911e-05
9.62536e-05
9.46447e-05
9.80584e-05
0.000102115
0.000100015
0.000110158
0.000102127
0.000118826
0.000104419
0.000128116
0.000106894
0.000138124
0.000109573
0.00014886
0.00011247
0.000160376
0.0001156
0.000172732
0.000118983
0.000185949
0.000122634
0.000200103
0.000126576
0.000215207
0.000130824
0.000231328
0.000135401
0.000248482
0.000140325
0.000266706
0.000145621
0.000286021
0.00015131
0.000306417
0.000157412
0.000327899
0.000163949
0.000350417
0.000170938
0.000373904
0.000178397
0.000398257
0.000186341
0.000423316
0.00019478
0.000448859
0.00020372
0.000474588
0.000213158
0.000500098
0.000223083
0.000524865
0.000233473
0.000548208
0.000244287
0.000569256
0.000255466
0.000586912
0.00026692
0.000599806
0.000278531
0.000606243
0.000290129
0.000604161
0.000301501
0.000591067
0.00031236
0.000563982
0.000322362
0.000519371
0.00033108
0.000453114
0.000337968
0.000360497
0.000342478
0.00023635
0.000344378
7.23515e-05
0.000343862
-0.000140572
-0.00038501
0.000347996
7.79896e-05
2.15118e-05
-7.76375e-05
7.83745e-05
2.32494e-05
7.87899e-05
2.5125e-05
7.92439e-05
2.71507e-05
7.97339e-05
2.93382e-05
8.02686e-05
3.16997e-05
8.08467e-05
3.42485e-05
8.14775e-05
3.69995e-05
8.21607e-05
3.99659e-05
8.29061e-05
4.3171e-05
8.37116e-05
4.6634e-05
8.45883e-05
5.03721e-05
8.55348e-05
5.44064e-05
8.65654e-05
5.87516e-05
8.76798e-05
6.3437e-05
8.88885e-05
6.85016e-05
9.01916e-05
7.39626e-05
9.16074e-05
7.98292e-05
9.31361e-05
8.61603e-05
9.47886e-05
9.29922e-05
9.65752e-05
0.000100326
9.85094e-05
0.000108224
0.000100595
0.000116739
0.000102855
0.000125854
0.000105294
0.000135682
0.000107931
0.000146221
0.000110781
0.000157524
0.000113857
0.000169654
0.000117181
0.000182622
0.000120766
0.000196516
0.000124635
0.000211335
0.000128804
0.000227156
0.000133292
0.000243987
0.000138123
0.00026187
0.000143315
0.000280823
0.000148894
0.000300833
0.000154876
0.000321911
0.000161283
0.000344003
0.000168133
0.000367046
0.000175444
0.000390939
0.000183229
0.000415522
0.000191501
0.000440579
0.000200264
0.000465814
0.000209517
0.000490833
0.000219251
0.000515118
0.000229442
0.000538
0.000240052
0.000558627
0.000251021
0.000575921
0.00026226
0.000588538
0.000273651
0.000594819
0.000285028
0.00059274
0.000296178
0.000579856
0.00030682
0.000553244
0.000316621
0.000509441
0.00032517
0.000444392
0.00033197
0.000353462
0.000336488
0.000231482
0.0003387
6.95526e-05
0.000337749
-0.000140182
-0.000381736
0.000334028
7.67613e-05
2.11604e-05
-7.64115e-05
7.71456e-05
2.28663e-05
7.75612e-05
2.47081e-05
7.80145e-05
2.66984e-05
7.85029e-05
2.88485e-05
7.90338e-05
3.11698e-05
7.9606e-05
3.36751e-05
8.02279e-05
3.63786e-05
8.09002e-05
3.92923e-05
8.16314e-05
4.24407e-05
8.24209e-05
4.58428e-05
8.32791e-05
4.95147e-05
8.42061e-05
5.34772e-05
8.52158e-05
5.77427e-05
8.63093e-05
6.23411e-05
8.74968e-05
6.73145e-05
8.87796e-05
7.26774e-05
9.01752e-05
7.84339e-05
9.16841e-05
8.46492e-05
9.33165e-05
9.13598e-05
9.5082e-05
9.85589e-05
9.69932e-05
0.000106312
9.90528e-05
0.000114677
0.000101284
0.000123622
0.00010369
0.000133275
0.000106288
0.00014362
0.000109094
0.000154715
0.000112121
0.000166625
0.000115389
0.000179351
0.000118911
0.000192991
0.000122711
0.000207532
0.000126802
0.000223061
0.000131208
0.000239578
0.000135946
0.000257126
0.000141039
0.000275724
0.000146509
0.000295357
0.000152375
0.00031604
0.000158656
0.000337716
0.000165373
0.000360323
0.000172541
0.000383765
0.000180176
0.000407882
0.000188288
0.000432461
0.000196884
0.000457214
0.000205963
0.00048175
0.000215514
0.000505563
0.000225518
0.000527995
0.000235933
0.000548211
0.000246702
0.000565153
0.000257737
0.000577505
0.00026892
0.000583641
0.000280086
0.000581577
0.000291029
0.000568916
0.000301472
0.000542789
0.000311091
0.0004998
0.00031949
0.000435961
0.000326206
0.000346717
0.000330683
0.000226969
0.00033258
6.76611e-05
0.000331843
-0.000139402
-0.000377631
0.000327816
7.57928e-05
2.08021e-05
-7.54349e-05
7.61839e-05
2.24768e-05
7.66047e-05
2.42865e-05
7.70609e-05
2.62435e-05
7.75501e-05
2.83585e-05
7.80787e-05
3.06424e-05
7.86456e-05
3.31075e-05
7.92583e-05
3.57671e-05
7.99173e-05
3.86324e-05
8.06308e-05
4.17286e-05
8.13982e-05
4.50745e-05
8.22295e-05
4.8685e-05
8.31252e-05
5.25804e-05
8.4099e-05
5.67704e-05
8.51531e-05
6.12857e-05
8.62982e-05
6.61706e-05
8.7537e-05
7.14371e-05
8.88876e-05
7.7084e-05
9.0352e-05
8.31831e-05
9.19404e-05
8.97716e-05
9.36632e-05
9.68344e-05
9.55324e-05
0.000104442
9.75508e-05
0.000112657
9.97404e-05
0.000121431
0.000102103
0.00013091
0.000104657
0.000141065
0.000107415
0.000151955
0.00011039
0.000163648
0.000113601
0.000176137
0.000117062
0.000189528
0.000120794
0.000203798
0.000124812
0.000219041
0.000129137
0.000235248
0.000133789
0.00025247
0.000138786
0.000270721
0.000144154
0.000289984
0.000149909
0.00031028
0.000156072
0.000331547
0.000162662
0.000353727
0.000169696
0.000376725
0.000177188
0.000400382
0.000185149
0.000424492
0.000193586
0.000448768
0.000202499
0.000472827
0.000211877
0.000496172
0.000221699
0.000518158
0.000231927
0.000537965
0.000242502
0.000554557
0.000253336
0.000566644
0.000264314
0.000572631
0.000275273
0.000570574
0.000286012
0.00055812
0.000296258
0.000532454
0.000305696
0.00049024
0.000313942
0.00042755
0.000320554
0.000339879
0.000324971
0.000222219
0.000326619
6.5442e-05
0.000325925
-0.000139241
-0.000373331
0.000321193
7.51052e-05
2.0438e-05
-7.47419e-05
7.54992e-05
2.2084e-05
7.59209e-05
2.3864e-05
7.63756e-05
2.57898e-05
7.68618e-05
2.78714e-05
7.73854e-05
3.01197e-05
7.79457e-05
3.25465e-05
7.8549e-05
3.51647e-05
7.91963e-05
3.79843e-05
7.98942e-05
4.10315e-05
8.06424e-05
4.4325e-05
8.14496e-05
4.78786e-05
8.23165e-05
5.1712e-05
8.32551e-05
5.58324e-05
8.42683e-05
6.02707e-05
8.5366e-05
6.50735e-05
8.65521e-05
7.02491e-05
8.78449e-05
7.57915e-05
8.92481e-05
8.17782e-05
9.07731e-05
8.82466e-05
9.24316e-05
9.51743e-05
9.42366e-05
0.000102637
9.61916e-05
0.0001107
9.83186e-05
0.000119304
0.00010062
0.000128606
0.000103113
0.000138571
0.000105809
0.000149257
0.000108721
0.000160734
0.000111868
0.000172988
0.000115261
0.000186133
0.000118922
0.000200135
0.000122864
0.000215096
0.000127109
0.000231001
0.000131673
0.0002479
0.000136578
0.000265812
0.000141846
0.000284711
0.000147494
0.000304627
0.000153543
0.000325493
0.000160012
0.000347254
0.000166917
0.000369816
0.000174272
0.000393023
0.00018209
0.000416671
0.000190374
0.00044048
0.000199126
0.000464073
0.000208335
0.000486961
0.00021798
0.000508513
0.000228022
0.000527924
0.000238404
0.00054418
0.000249038
0.000556015
0.000259811
0.000561868
0.000270561
0.000559833
0.000281093
0.000547601
0.00029114
0.00052241
0.000300395
0.000480981
0.000308484
0.000419452
0.000314986
0.000333376
0.00031936
0.00021785
0.000320835
6.40378e-05
0.000320183
-0.000138487
-0.00036842
0.000315398
7.45753e-05
2.00774e-05
-7.42144e-05
7.49633e-05
2.16975e-05
7.53772e-05
2.34498e-05
7.58226e-05
2.53455e-05
7.62991e-05
2.73947e-05
7.68121e-05
2.96078e-05
7.73616e-05
3.19966e-05
7.79537e-05
3.45738e-05
7.85892e-05
3.73483e-05
7.92746e-05
4.03476e-05
8.00091e-05
4.35899e-05
8.08006e-05
4.70886e-05
8.16491e-05
5.08628e-05
8.25656e-05
5.49175e-05
8.35515e-05
5.92839e-05
8.46157e-05
6.40104e-05
8.57615e-05
6.91023e-05
8.70061e-05
7.45476e-05
8.8354e-05
8.0429e-05
8.9817e-05
8.67838e-05
9.14082e-05
9.35817e-05
9.31415e-05
0.000100903
9.50227e-05
0.000108817
9.70741e-05
0.000117251
9.92997e-05
0.000126379
0.000101716
0.000136154
0.000104337
0.000146634
0.000107174
0.000157896
0.000110244
0.000169916
0.00011356
0.000182815
0.000117141
0.000196552
0.000121002
0.000211233
0.00012516
0.000226839
0.000129635
0.000243421
0.000134445
0.000260997
0.000139613
0.000279539
0.000145156
0.00029908
0.000151093
0.000319552
0.000157442
0.000340899
0.000164221
0.000363032
0.000171443
0.000385795
0.000179118
0.000408988
0.000187254
0.000432336
0.000195848
0.000455469
0.000204891
0.000477907
0.00021436
0.00049903
0.000224218
0.00051805
0.000234407
0.000533971
0.00024484
0.000545556
0.000255407
0.000551272
0.000265948
0.00054925
0.000276272
0.000537223
0.000286119
0.000512481
0.000295191
0.000471796
0.000303125
0.000411363
0.000309515
0.000326772
0.000313843
0.000213204
0.000315266
6.20676e-05
0.000314619
-0.000138343
-0.000364109
0.000309896
7.40667e-05
1.97275e-05
-7.37177e-05
7.44416e-05
2.13233e-05
7.48419e-05
2.30488e-05
7.5273e-05
2.49149e-05
7.57353e-05
2.69316e-05
7.62341e-05
2.91095e-05
7.67702e-05
3.146e-05
7.73488e-05
3.39956e-05
7.7972e-05
3.67245e-05
7.86449e-05
3.96752e-05
7.93679e-05
4.2866e-05
8.01477e-05
4.63094e-05
8.0985e-05
5.00243e-05
8.18891e-05
5.4014e-05
8.28613e-05
5.83102e-05
8.39084e-05
6.29638e-05
8.50326e-05
6.79766e-05
8.62493e-05
7.33312e-05
8.75621e-05
7.91148e-05
8.89815e-05
8.53644e-05
9.05209e-05
9.20409e-05
9.21946e-05
9.92294e-05
9.40093e-05
0.000107001
9.59885e-05
0.000115271
9.81377e-05
0.000124229
0.000100475
0.000133815
0.000103014
0.000144093
0.000105768
0.000155141
0.000108754
0.000166928
0.000111985
0.000179583
0.000115479
0.000193056
0.00011925
0.00020746
0.000123319
0.000222769
0.000127699
0.000239036
0.000132412
0.000256281
0.000137477
0.00027447
0.000142912
0.000293641
0.000148736
0.000313724
0.000154966
0.000334665
0.000161619
0.000356375
0.000168708
0.000378702
0.000176244
0.000401449
0.000184231
0.000424347
0.000192669
0.00044703
0.000201546
0.000469029
0.000210841
0.000489736
0.000220515
0.000508378
0.000230512
0.000523981
0.000240745
0.00053533
0.000251106
0.000540925
0.000261439
0.000538931
0.000271558
0.000527125
0.000281208
0.000502845
0.0002901
0.000462917
0.000297881
0.000403596
0.000304156
0.000320523
0.000308421
0.000208986
0.000309884
6.07432e-05
0.000309215
-0.000137511
-0.000359272
0.000304555
7.34984e-05
1.9392e-05
-7.31626e-05
7.38585e-05
2.0964e-05
7.42441e-05
2.26631e-05
7.46601e-05
2.44996e-05
7.51077e-05
2.64839e-05
7.55914e-05
2.86264e-05
7.61129e-05
3.09383e-05
7.66773e-05
3.34321e-05
7.72868e-05
3.61149e-05
7.79467e-05
3.90164e-05
7.86576e-05
4.21549e-05
7.94263e-05
4.5542e-05
8.02535e-05
4.91968e-05
8.11484e-05
5.31204e-05
8.21124e-05
5.73458e-05
8.3151e-05
6.19263e-05
8.42659e-05
6.6861e-05
8.54702e-05
7.21275e-05
8.67663e-05
7.78178e-05
8.81628e-05
8.39681e-05
8.96717e-05
9.05309e-05
9.13062e-05
9.75946e-05
9.30732e-05
0.000105233
9.4996e-05
0.000113348
9.70814e-05
0.000122142
9.93481e-05
0.000131548
0.000101811
0.000141628
0.000104485
0.000152466
0.000107388
0.000164023
0.000110531
0.000176438
0.000113936
0.000189649
0.000117617
0.000203778
0.000121589
0.000218793
0.000125873
0.00023475
0.000130485
0.000251665
0.000135446
0.000269506
0.000140771
0.000288312
0.000146481
0.000308011
0.000152591
0.00032855
0.000159118
0.000349844
0.000166074
0.000371741
0.000173469
0.000394048
0.000181308
0.0004165
0.00018959
0.00043874
0.000198302
0.000460306
0.000207423
0.000480602
0.000216914
0.000498871
0.00022672
0.000514157
0.000236755
0.00052527
0.000246912
0.000530739
0.000257039
0.000528764
0.000266956
0.000517161
0.000276414
0.000493315
0.000285129
0.0004541
0.000292759
0.000395824
0.000298916
0.00031417
0.000303108
0.000204504
0.000304652
5.86892e-05
0.000303942
-0.000137261
-0.000355016
0.000299303
7.28379e-05
1.90697e-05
-7.25157e-05
7.31846e-05
2.06179e-05
7.35572e-05
2.22902e-05
7.396e-05
2.40972e-05
7.43944e-05
2.60492e-05
7.48648e-05
2.81564e-05
7.53731e-05
3.04299e-05
7.59239e-05
3.28817e-05
7.65201e-05
3.55183e-05
7.71665e-05
3.83705e-05
7.78646e-05
4.14563e-05
7.86204e-05
4.47867e-05
7.9436e-05
4.83804e-05
8.03201e-05
5.22368e-05
8.12749e-05
5.63899e-05
8.23056e-05
6.08958e-05
8.34142e-05
6.57514e-05
8.46123e-05
7.09295e-05
8.59015e-05
7.65275e-05
8.72883e-05
8.25812e-05
8.87832e-05
8.90348e-05
9.03974e-05
9.59802e-05
9.21365e-05
0.000103493
9.40227e-05
0.000111461
9.60626e-05
0.000120101
9.82751e-05
0.000129334
0.000100676
0.000139226
0.00010328
0.000149861
0.000106108
0.000161195
0.00010917
0.000173374
0.00011249
0.000186328
0.00011608
0.000200186
0.000119961
0.000214911
0.000124147
0.00023056
0.000128658
0.000247152
0.000133513
0.000264647
0.000138729
0.000283093
0.000144323
0.000302413
0.000150313
0.000322557
0.000156713
0.000343441
0.000163536
0.000364915
0.000170791
0.00038679
0.000178482
0.000408807
0.000186607
0.000430614
0.000195154
0.000451759
0.000204102
0.000471657
0.000213411
0.000489566
0.000223027
0.000504549
0.000232865
0.000515441
0.000242822
0.000520799
0.000252747
0.000518856
0.000262466
0.00050747
0.000271735
0.00048407
0.000280278
0.000445583
0.00028776
0.000388374
0.000293798
0.000308181
0.000297913
0.000200468
0.000299542
5.72532e-05
0.000298777
-0.000136285
-0.000350146
0.000294121
7.20868e-05
1.87586e-05
-7.17749e-05
7.24228e-05
2.02828e-05
7.27848e-05
2.19283e-05
7.31766e-05
2.3706e-05
7.36001e-05
2.56259e-05
7.40588e-05
2.76982e-05
7.45551e-05
2.99336e-05
7.50935e-05
3.23439e-05
7.56772e-05
3.49348e-05
7.63106e-05
3.77379e-05
7.69956e-05
4.07714e-05
7.77382e-05
4.40453e-05
7.85407e-05
4.75778e-05
7.94119e-05
5.13668e-05
8.03549e-05
5.54468e-05
8.13748e-05
5.98768e-05
8.24743e-05
6.46514e-05
8.36649e-05
6.97395e-05
8.49479e-05
7.52438e-05
8.63287e-05
8.12004e-05
8.78169e-05
8.75458e-05
8.94211e-05
9.43756e-05
9.1146e-05
0.000101767
9.30114e-05
0.000109595
9.50229e-05
0.000118088
9.71986e-05
0.000127158
9.95542e-05
0.000136869
0.000102104
0.00014731
0.000104869
0.000158429
0.000107862
0.000170379
0.000111105
0.000183083
0.000114613
0.000196677
0.000118404
0.000211117
0.000122498
0.000226464
0.00012691
0.000242736
0.000131662
0.000259892
0.00013677
0.000277983
0.00014225
0.00029693
0.00014812
0.000316683
0.000154394
0.000337163
0.000161084
0.00035822
0.000168199
0.00037967
0.000175742
0.000401257
0.000183711
0.000422636
0.000192095
0.000443365
0.00020087
0.000462869
0.000209998
0.000480422
0.000219426
0.000495104
0.00022907
0.000505773
0.000238829
0.000511013
0.000248556
0.000509092
0.000258081
0.000497902
0.000267166
0.000474918
0.000275541
0.000437113
0.000282878
0.000380905
0.000288799
0.000302076
0.000292839
0.000196153
0.000294529
5.508e-05
0.000293702
-0.00013589
-0.000345815
0.000289009
7.12572e-05
1.84556e-05
-7.09548e-05
7.15844e-05
1.99555e-05
7.19381e-05
2.15742e-05
7.23211e-05
2.33228e-05
7.27356e-05
2.52111e-05
7.31846e-05
2.72489e-05
7.36712e-05
2.94469e-05
7.41986e-05
3.18164e-05
7.47711e-05
3.43621e-05
7.53921e-05
3.7117e-05
7.60644e-05
4.00988e-05
7.67932e-05
4.33166e-05
7.75819e-05
4.67886e-05
7.84384e-05
5.05105e-05
7.93669e-05
5.45176e-05
8.03726e-05
5.88713e-05
8.14591e-05
6.35641e-05
8.26377e-05
6.85608e-05
8.39109e-05
7.39698e-05
8.52834e-05
7.98277e-05
8.67643e-05
8.6064e-05
8.83613e-05
9.27783e-05
9.00774e-05
0.00010005
9.19307e-05
0.000107741
9.39252e-05
0.000116093
9.60772e-05
0.000125005
9.84014e-05
0.000134544
0.000100911
0.000144799
0.000103628
0.000155711
0.000106564
0.000167442
0.000109743
0.000179904
0.000113178
0.00019324
0.00011689
0.000207403
0.000120897
0.000222455
0.000125217
0.000238414
0.000129871
0.000255236
0.000134873
0.000272978
0.000140242
0.000291558
0.000145995
0.000310928
0.000152144
0.000331011
0.000158703
0.000351659
0.000165679
0.000372692
0.000173075
0.000393859
0.00018089
0.000414822
0.000189111
0.000435145
0.000197715
0.000454268
0.000206664
0.000471477
0.000215906
0.000485872
0.000225359
0.000496331
0.000234924
0.000501467
0.000244457
0.000499579
0.000253793
0.000488599
0.000262699
0.000466045
0.00027091
0.000428938
0.000278106
0.000373755
0.000283912
0.000296337
0.000287882
0.000192292
0.000289602
5.36003e-05
0.000288713
-0.000134749
-0.000340828
0.000283975
7.03682e-05
1.81594e-05
-7.00715e-05
7.06889e-05
1.9635e-05
7.10359e-05
2.12273e-05
7.14115e-05
2.29472e-05
7.18183e-05
2.48044e-05
7.22588e-05
2.68085e-05
7.27362e-05
2.89697e-05
7.32537e-05
3.1299e-05
7.38155e-05
3.38006e-05
7.44249e-05
3.65081e-05
7.50849e-05
3.94391e-05
7.58004e-05
4.2602e-05
7.65749e-05
4.60144e-05
7.74162e-05
4.96701e-05
7.83288e-05
5.36051e-05
7.93179e-05
5.78829e-05
8.0388e-05
6.24939e-05
8.15504e-05
6.73987e-05
8.28085e-05
7.27113e-05
8.41675e-05
7.84687e-05
8.56367e-05
8.45941e-05
8.72231e-05
9.11914e-05
8.89296e-05
9.83428e-05
9.07724e-05
0.000105898
9.27543e-05
0.00011411
9.48897e-05
0.000122869
9.7192e-05
0.000132241
9.96732e-05
0.000142317
0.000102353
0.00015303
0.000105245
0.000164549
0.00010837
0.000176778
0.000111744
0.000189866
0.000115386
0.000203759
0.000119316
0.000218523
0.000123551
0.000234176
0.000128112
0.000250673
0.000133015
0.000268073
0.000138278
0.000286292
0.000143917
0.000305286
0.000149945
0.000324979
0.000156375
0.000345224
0.000163215
0.000365847
0.000170467
0.0003866
0.000178129
0.000407152
0.000186189
0.000427075
0.000194625
0.000445821
0.000203398
0.000462689
0.000212458
0.000476796
0.000221723
0.000487043
0.000231098
0.000492068
0.000240441
0.000490201
0.000249592
0.00047941
0.000258324
0.000457254
0.000266376
0.000420801
0.000273434
0.000366578
0.00027913
0.000290471
0.000283031
0.000188139
0.000284752
5.1428e-05
0.0002838
-0.000134192
-0.000336389
0.000279023
6.94342e-05
1.78682e-05
-6.91431e-05
6.97492e-05
1.93198e-05
7.00904e-05
2.08861e-05
7.04595e-05
2.25778e-05
7.08595e-05
2.44045e-05
7.12923e-05
2.63754e-05
7.17615e-05
2.85005e-05
7.22697e-05
3.07906e-05
7.28216e-05
3.32489e-05
7.34198e-05
3.59098e-05
7.40678e-05
3.87911e-05
7.47699e-05
4.19e-05
7.55302e-05
4.52539e-05
7.63559e-05
4.88445e-05
7.72521e-05
5.27085e-05
7.82234e-05
5.69116e-05
7.92751e-05
6.14416e-05
8.04185e-05
6.62552e-05
8.16579e-05
7.14713e-05
8.29986e-05
7.71277e-05
8.44509e-05
8.31412e-05
8.60218e-05
8.96201e-05
8.77142e-05
9.66496e-05
8.95435e-05
0.000104068
9.1512e-05
0.000112141
9.36324e-05
0.000120748
9.59165e-05
0.000129956
9.8375e-05
0.000139858
0.000101026
0.000150378
0.000103882
0.000161692
0.000106964
0.000173695
0.000110285
0.000186542
0.000113868
0.000200175
0.000117729
0.00021466
0.000121888
0.000230016
0.000126364
0.000246195
0.000131174
0.00026326
0.000136337
0.000281128
0.000141867
0.000299754
0.000147779
0.000319064
0.000154084
0.000338917
0.000160791
0.000359139
0.000167903
0.000379489
0.000175415
0.00039964
0.000183318
0.000419175
0.000191588
0.000437555
0.000200189
0.000454094
0.000209069
0.000467927
0.000218151
0.000477974
0.000227341
0.0004829
0.000236498
0.000481066
0.00024547
0.000470476
0.000254032
0.000448732
0.000261929
0.000412948
0.000268853
0.000359711
0.000274443
0.000284963
0.000278276
0.000184437
0.000279976
5.00056e-05
0.000278964
-0.000132895
-0.000331306
0.000274156
6.84692e-05
1.75821e-05
-6.8182e-05
6.8779e-05
1.90101e-05
6.91147e-05
2.05508e-05
6.94775e-05
2.22149e-05
6.98708e-05
2.40117e-05
7.02959e-05
2.59501e-05
7.07569e-05
2.80399e-05
7.1256e-05
3.02916e-05
7.17981e-05
3.27074e-05
7.23856e-05
3.53228e-05
7.3022e-05
3.81553e-05
7.37114e-05
4.12113e-05
7.4458e-05
4.45079e-05
7.52685e-05
4.80348e-05
7.61483e-05
5.18292e-05
7.71017e-05
5.59588e-05
7.81343e-05
6.04091e-05
7.92572e-05
6.51325e-05
8.04754e-05
7.02529e-05
8.17943e-05
7.58086e-05
8.32252e-05
8.17098e-05
8.47753e-05
8.80696e-05
8.64482e-05
9.4976e-05
8.82591e-05
0.000102257
9.021e-05
0.000110189
9.23128e-05
0.000118644
9.45782e-05
0.00012769
9.70154e-05
0.00013742
9.96413e-05
0.000147751
0.000102467
0.000158866
0.000105511
0.00017065
0.000108789
0.000183264
0.000112319
0.000196643
0.00011612
0.000210858
0.00012021
0.000225924
0.000124608
0.000241794
0.000129333
0.000258534
0.0001344
0.000276057
0.000139828
0.000294324
0.000145629
0.00031326
0.000151815
0.000332727
0.000158394
0.000352556
0.000165368
0.000372508
0.000172736
0.000392265
0.000180485
0.000411417
0.000188593
0.000429436
0.000197025
0.000445648
0.000205731
0.000459206
0.000214635
0.00046905
0.000223644
0.000473869
0.000232621
0.000472055
0.000241419
0.000461645
0.000249816
0.000440281
0.000257563
0.000405121
0.000264356
0.000352804
0.000269843
0.000279316
0.000273608
0.000180431
0.00027527
4.79129e-05
0.0002742
-0.000132198
-0.000326798
0.000269372
6.74809e-05
1.73001e-05
-6.71992e-05
6.77855e-05
1.87048e-05
6.81159e-05
2.02204e-05
6.84726e-05
2.18574e-05
6.88595e-05
2.36248e-05
6.92775e-05
2.55314e-05
6.9731e-05
2.75866e-05
7.02215e-05
2.98006e-05
7.07544e-05
3.21747e-05
7.13312e-05
3.47456e-05
7.19565e-05
3.75303e-05
7.26331e-05
4.05345e-05
7.33663e-05
4.37748e-05
7.41617e-05
4.72393e-05
7.50253e-05
5.09655e-05
7.59608e-05
5.50232e-05
7.69742e-05
5.93954e-05
7.80761e-05
6.40303e-05
7.9272e-05
6.90566e-05
8.05675e-05
7.45127e-05
8.19742e-05
8.03026e-05
8.34997e-05
8.65436e-05
8.51486e-05
9.33266e-05
8.6936e-05
0.000100469
8.88643e-05
0.00010826
9.0945e-05
0.000116563
9.31882e-05
0.000125446
9.56023e-05
0.000135005
9.82026e-05
0.00014515
0.000100999
0.000156069
0.000104009
0.000167639
0.000107247
0.000180026
0.000110731
0.000193159
0.000114477
0.000207109
0.000118504
0.000221895
0.000122832
0.000237464
0.000127477
0.000253887
0.000132457
0.000271076
0.000137787
0.000288991
0.000143482
0.000307563
0.000149554
0.000326654
0.000156009
0.000346099
0.000162852
0.000365666
0.000170079
0.000385039
0.000177679
0.00040382
0.000185631
0.000421489
0.0001939
0.000437387
0.000202436
0.000450681
0.000211166
0.000460334
0.00022
0.000465059
0.000228803
0.000463277
0.000237431
0.000453059
0.000245668
0.000432089
0.000253269
0.000397571
0.000259936
0.000346202
0.000265322
0.000274024
0.000269019
0.000176883
0.000270633
4.66097e-05
0.000269509
-0.000130764
-0.000321659
0.000264672
6.64797e-05
1.70227e-05
-6.62014e-05
6.67794e-05
1.84046e-05
6.71046e-05
1.98956e-05
6.74554e-05
2.15061e-05
6.7836e-05
2.32447e-05
6.82468e-05
2.51201e-05
6.86925e-05
2.71414e-05
6.91743e-05
2.93185e-05
6.96979e-05
3.16519e-05
7.02646e-05
3.41791e-05
7.08787e-05
3.6917e-05
7.15433e-05
3.98705e-05
7.22631e-05
4.30558e-05
7.3044e-05
4.64591e-05
7.38916e-05
5.01186e-05
7.48095e-05
5.41058e-05
7.58039e-05
5.84014e-05
7.68848e-05
6.29495e-05
7.8058e-05
6.78834e-05
7.9329e-05
7.32415e-05
8.07099e-05
7.89215e-05
8.22084e-05
8.50446e-05
8.38298e-05
9.17047e-05
8.55894e-05
9.87085e-05
8.74905e-05
0.000106358
8.95443e-05
0.000114508
9.17609e-05
0.000123228
9.4148e-05
0.000132617
9.67202e-05
0.000142577
9.94861e-05
0.000153302
0.000102463
0.000164662
0.000105662
0.000176826
0.000109101
0.000189718
0.000112798
0.000203413
0.000116767
0.000217925
0.000121029
0.000233201
0.0001256
0.000249314
0.000130497
0.000266177
0.000135736
0.00028375
0.000141331
0.000301965
0.000147294
0.000320688
0.000153631
0.000339757
0.000160347
0.000358944
0.000167438
0.000377941
0.000174895
0.000396355
0.000182695
0.000413679
0.000190805
0.000429264
0.000199177
0.000442296
0.000207739
0.000451754
0.000216403
0.000456376
0.000225037
0.000454611
0.000233502
0.000444565
0.000241583
0.000423958
0.000249043
0.000390039
0.000255587
0.000339553
0.000260874
0.000268589
0.000264503
0.000173033
0.000266063
4.46465e-05
0.000264889
-0.000129931
-0.000317121
0.000260052
6.54702e-05
1.67494e-05
-6.51966e-05
6.57651e-05
1.8109e-05
6.60851e-05
1.95759e-05
6.643e-05
2.11603e-05
6.68044e-05
2.28707e-05
6.72082e-05
2.47155e-05
6.76465e-05
2.67036e-05
6.81198e-05
2.88444e-05
6.86344e-05
3.11379e-05
6.91908e-05
3.36222e-05
6.9794e-05
3.63142e-05
7.04463e-05
3.9218e-05
7.11531e-05
4.23494e-05
7.19193e-05
4.56927e-05
7.27512e-05
4.92867e-05
7.36518e-05
5.32049e-05
7.46275e-05
5.74257e-05
7.56878e-05
6.18888e-05
7.68388e-05
6.67322e-05
7.80854e-05
7.19943e-05
7.94402e-05
7.75664e-05
8.09107e-05
8.35735e-05
8.25028e-05
9.01121e-05
8.4232e-05
9.69787e-05
8.61022e-05
0.000104488
8.8125e-05
0.000112485
9.03105e-05
0.000121042
9.26664e-05
0.00013026
9.52068e-05
0.000140036
9.79395e-05
0.000150569
0.000100881
0.00016172
0.000104041
0.000173664
0.000107438
0.000186322
0.000111085
0.000199764
0.000114999
0.000214009
0.000119199
0.000229
0.000123699
0.000244812
0.000128518
0.000261356
0.000133671
0.000278595
0.00013917
0.000296464
0.000145029
0.000314828
0.000151253
0.000333533
0.000157847
0.000352351
0.000164808
0.000370982
0.000172126
0.000389041
0.00017978
0.000406031
0.000187737
0.000421316
0.000195951
0.000434096
0.00020435
0.000443371
0.00021285
0.000447902
0.00022132
0.000446168
0.000229626
0.000436305
0.000237558
0.000416075
0.00024488
0.000382773
0.000251305
0.0003332
0.000256495
0.000263503
0.000260055
0.000169637
0.00026156
4.34809e-05
0.00026034
-0.000128378
-0.00031197
0.000255514
6.44588e-05
1.64808e-05
-6.41889e-05
6.47487e-05
1.78186e-05
6.50634e-05
1.9262e-05
6.54022e-05
2.08208e-05
6.57702e-05
2.25036e-05
6.61666e-05
2.43184e-05
6.65971e-05
2.62739e-05
6.7062e-05
2.83792e-05
6.75673e-05
3.06335e-05
6.81138e-05
3.30758e-05
6.87063e-05
3.57229e-05
6.93469e-05
3.85779e-05
7.00409e-05
4.16564e-05
7.07932e-05
4.49411e-05
7.16099e-05
4.84709e-05
7.24938e-05
5.23215e-05
7.34513e-05
5.64688e-05
7.44914e-05
6.08487e-05
7.56204e-05
6.56034e-05
7.6843e-05
7.07714e-05
7.81716e-05
7.62376e-05
7.96138e-05
8.21308e-05
8.11758e-05
8.85497e-05
8.28732e-05
9.52808e-05
8.47102e-05
0.00010265
8.66989e-05
0.000110496
8.88497e-05
0.000118891
9.11706e-05
0.000127939
9.36752e-05
0.000137531
9.63712e-05
0.000147872
9.92739e-05
0.000158817
0.000102394
0.000170544
0.000105745
0.000182968
0.000109345
0.000196165
0.000113205
0.000210148
0.000117344
0.000224859
0.000121777
0.000240377
0.000126521
0.00025661
0.000131591
0.000273524
0.000136999
0.000291053
0.000142758
0.000309067
0.000148874
0.000327413
0.00015535
0.000345869
0.000162186
0.000364141
0.00016937
0.00038185
0.000176884
0.000398509
0.000184693
0.000413496
0.000192753
0.000426023
0.000200996
0.000435112
0.000209337
0.000439545
0.00021765
0.000437827
0.000225802
0.000428127
0.000233588
0.000408243
0.000240777
0.000375515
0.000247086
0.000326792
0.000252181
0.000258264
0.000255672
0.000165933
0.000257121
4.16454e-05
0.000255861
-0.000127437
-0.000307444
0.000251055
6.3447e-05
1.62163e-05
-6.31825e-05
6.37317e-05
1.75326e-05
6.4041e-05
1.89528e-05
6.43739e-05
2.04866e-05
6.47357e-05
2.21423e-05
6.51252e-05
2.39276e-05
6.55485e-05
2.58511e-05
6.60051e-05
2.79215e-05
6.65018e-05
3.01374e-05
6.70384e-05
3.25385e-05
6.76204e-05
3.51414e-05
6.82491e-05
3.79486e-05
6.89308e-05
4.09754e-05
6.96691e-05
4.42024e-05
7.04709e-05
4.76694e-05
7.13383e-05
5.14537e-05
7.2278e-05
5.55292e-05
7.32985e-05
5.98277e-05
7.44062e-05
6.44956e-05
7.56054e-05