/*--------------------------------*- C++ -*----------------------------------*\
  =========                 |
  \\      /  F ield         | OpenFOAM: The Open Source CFD Toolbox
   \\    /   O peration     | Website:  https://openfoam.org
    \\  /    A nd           | Version:  6.0
     \\/     M anipulation  |
\*---------------------------------------------------------------------------*/
FoamFile
{
    version     2.0;
    format      ascii;
    class       volVectorField;
    location    "13";
    object      U;
}
// * * * * * * * * * * * * * * * * * * * * * * * * * * * * * * * * * * * * * //

dimensions      [0 1 -1 0 0 0 0];

internalField   nonuniform List<vector> 
62000
(
(0.965653 0.258334 -4.19635e-21)
(0.965684 0.258379 3.53904e-21)
(0.965716 0.258419 3.71167e-21)
(0.965748 0.258456 -1.65951e-20)
(0.965777 0.258499 -1.94027e-20)
(0.965802 0.258544 6.80747e-20)
(0.965821 0.258592 -7.63985e-20)
(0.965833 0.258645 4.52603e-20)
(0.965838 0.258703 -2.17297e-20)
(0.965835 0.258764 -1.1361e-19)
(0.965826 0.25883 -1.54704e-20)
(0.96581 0.258899 1.65438e-19)
(0.965791 0.25897 3.48064e-20)
(0.965768 0.259044 -1.23984e-19)
(0.965743 0.259117 1.98427e-19)
(0.965718 0.25919 -1.07472e-19)
(0.965694 0.259262 1.15037e-19)
(0.965671 0.259331 -1.37263e-19)
(0.96565 0.259397 7.01083e-20)
(0.965631 0.259459 -2.21856e-19)
(0.965615 0.259516 2.96538e-19)
(0.965602 0.259569 9.22991e-20)
(0.965592 0.259617 1.37247e-19)
(0.965584 0.259658 -6.24958e-19)
(0.965579 0.259694 2.34244e-19)
(0.965577 0.259723 -1.52424e-19)
(0.965577 0.259746 -4.81865e-21)
(0.96558 0.25976 -1.32852e-19)
(0.965587 0.259766 4.12717e-19)
(0.965596 0.259763 -2.40299e-19)
(0.965607 0.25975 5.92652e-19)
(0.965622 0.259725 -1.25875e-18)
(0.965639 0.259684 1.18234e-19)
(0.965661 0.259628 -4.58944e-19)
(0.965686 0.259554 -1.54613e-19)
(0.965715 0.259466 -4.9755e-19)
(0.965744 0.259362 -1.58577e-19)
(0.965771 0.259241 -1.63262e-19)
(0.965795 0.259102 4.93857e-19)
(0.965813 0.258949 2.28191e-18)
(0.965821 0.258788 -5.40779e-19)
(0.965816 0.258626 -3.11377e-18)
(0.965788 0.258474 -4.86321e-18)
(0.965729 0.25834 2.60361e-18)
(0.965627 0.258232 7.35854e-19)
(0.96547 0.258149 -3.59668e-18)
(0.965248 0.258075 8.84266e-19)
(0.964952 0.25797 -1.46384e-18)
(0.964585 0.257778 -6.92566e-18)
(0.964157 0.257425 -1.57988e-18)
(0.963688 0.256849 -8.20138e-19)
(0.963203 0.256008 -1.12908e-17)
(0.962724 0.25489 1.2843e-18)
(0.962246 0.253484 1.311e-17)
(0.961756 0.25169 3.57769e-18)
(0.961245 0.249278 1.21222e-17)
(0.960799 0.245644 -1.62171e-18)
(0.960523 0.240477 -2.8843e-18)
(0.961032 0.23037 6.13473e-18)
(0.937111 0.208876 1.25401e-18)
(0.965375 0.259155 -1.11362e-21)
(0.965347 0.25913 1.08261e-20)
(0.965337 0.259138 4.59183e-21)
(0.96535 0.259124 -1.99146e-20)
(0.965385 0.25911 8.43065e-21)
(0.965438 0.259095 -5.95165e-20)
(0.965504 0.259079 5.54284e-20)
(0.965579 0.259064 3.29578e-20)
(0.965656 0.259053 -6.28526e-20)
(0.96573 0.259046 2.59936e-21)
(0.965796 0.259045 6.3872e-20)
(0.965852 0.259054 4.31386e-22)
(0.965895 0.259072 1.96268e-20)
(0.965923 0.259101 -1.69901e-19)
(0.965937 0.259142 3.50303e-19)
(0.965937 0.259195 -3.16692e-19)
(0.965925 0.259259 1.52823e-19)
(0.965903 0.259335 -3.26122e-20)
(0.965873 0.25942 -9.28404e-20)
(0.965837 0.259514 2.65002e-19)
(0.965798 0.259613 -4.28511e-19)
(0.965756 0.259716 2.55807e-19)
(0.965713 0.259821 -3.37319e-19)
(0.96567 0.259924 2.04096e-19)
(0.965628 0.260024 1.97621e-19)
(0.96559 0.260118 -1.3365e-19)
(0.965552 0.260203 -3.16417e-21)
(0.96552 0.260278 1.5528e-19)
(0.96549 0.260339 1.36699e-19)
(0.965466 0.260385 -2.96134e-19)
(0.965445 0.26041 6.15794e-19)
(0.96543 0.260415 1.33872e-19)
(0.965416 0.260399 4.26379e-19)
(0.965408 0.260363 3.5139e-20)
(0.96541 0.260298 1.31446e-19)
(0.965421 0.260201 -1.46883e-19)
(0.965438 0.260071 -4.67668e-19)
(0.965459 0.259912 -2.32404e-19)
(0.965477 0.259744 -1.31112e-18)
(0.965484 0.25958 -1.50203e-18)
(0.965473 0.259434 1.16938e-18)
(0.965433 0.259317 6.88446e-19)
(0.965347 0.259242 5.0796e-18)
(0.965198 0.259212 2.91135e-19)
(0.964965 0.259212 -7.59242e-18)
(0.96463 0.259204 2.97785e-18)
(0.964186 0.259112 2.46106e-18)
(0.963635 0.258838 2.88933e-18)
(0.963005 0.258269 6.38852e-19)
(0.962336 0.25732 1.32746e-19)
(0.961663 0.25598 5.07129e-18)
(0.961026 0.254293 1.40007e-17)
(0.960409 0.252365 -9.55778e-18)
(0.959745 0.250211 -2.31856e-17)
(0.958964 0.247581 -5.6094e-18)
(0.95803 0.243949 -4.20172e-18)
(0.957233 0.238121 -9.32036e-18)
(0.956271 0.23 -4.99555e-18)
(0.958253 0.214767 8.05046e-18)
(0.922192 0.185732 3.25161e-18)
(0.965655 0.260619 -5.34185e-21)
(0.96553 0.260546 -7.77747e-22)
(0.965407 0.260534 8.42657e-22)
(0.965295 0.260513 3.95323e-21)
(0.965206 0.260492 1.14518e-20)
(0.965148 0.260474 -1.10253e-20)
(0.965123 0.260452 6.02405e-20)
(0.965134 0.260426 -2.90373e-20)
(0.965177 0.260396 -1.59776e-20)
(0.965248 0.26036 -1.01205e-19)
(0.965339 0.26032 8.69053e-20)
(0.965444 0.260277 6.56408e-21)
(0.965553 0.260233 -2.10319e-20)
(0.965661 0.26019 5.72175e-20)
(0.965759 0.260152 -1.00296e-19)
(0.965845 0.260121 2.93781e-22)
(0.965914 0.2601 -4.92121e-20)
(0.965964 0.260092 -3.82492e-23)
(0.965994 0.260099 1.19552e-19)
(0.966006 0.260121 -1.88034e-19)
(0.966001 0.260157 1.19949e-19)
(0.965981 0.260209 4.87339e-19)
(0.965948 0.260272 -6.06568e-20)
(0.965904 0.260346 -7.17961e-19)
(0.965851 0.260427 3.78502e-19)
(0.965794 0.260513 -2.16234e-19)
(0.965731 0.260598 3.61314e-19)
(0.965667 0.260683 -2.22985e-19)
(0.965601 0.260759 -4.65442e-19)
(0.965538 0.260827 5.16423e-19)
(0.965475 0.26088 -3.76502e-19)
(0.965415 0.260921 5.2285e-19)
(0.965354 0.260951 -1.50753e-18)
(0.965294 0.260971 1.39037e-18)
(0.965243 0.260968 -7.66821e-19)
(0.965201 0.260936 3.22167e-19)
(0.965168 0.260875 2.52899e-19)
(0.965149 0.260794 -1.99598e-20)
(0.965132 0.260727 -7.15359e-20)
(0.965105 0.260685 1.56256e-18)
(0.965059 0.260678 -6.061e-19)
(0.964983 0.260714 9.33578e-19)
(0.964864 0.26079 -3.2801e-18)
(0.964684 0.260892 -1.58609e-18)
(0.96443 0.260979 1.66033e-18)
(0.96409 0.260985 -5.73286e-18)
(0.963672 0.260805 7.53131e-19)
(0.963195 0.26033 -4.87496e-18)
(0.962705 0.259473 6.87079e-18)
(0.962253 0.258211 1.79708e-18)
(0.961868 0.256646 9.59234e-19)
(0.961582 0.254956 -2.77312e-19)
(0.961344 0.253375 4.06696e-18)
(0.961058 0.252004 5.60924e-19)
(0.960621 0.250581 -8.11502e-18)
(0.959933 0.248568 -4.67494e-18)
(0.959368 0.244574 -2.90922e-18)
(0.95785 0.238843 -1.06009e-17)
(0.960813 0.228767 -1.31571e-18)
(0.930514 0.213374 8.7771e-19)
(0.966436 0.260896 -5.28683e-21)
(0.966423 0.260877 1.63845e-20)
(0.966356 0.260897 -2.51533e-21)
(0.966242 0.260937 -1.73479e-20)
(0.966099 0.260989 2.65446e-20)
(0.96594 0.261058 4.66116e-20)
(0.965783 0.261135 -6.15243e-20)
(0.965642 0.261218 6.81573e-21)
(0.965526 0.2613 2.22086e-20)
(0.965444 0.261376 4.7159e-20)
(0.965398 0.261443 -8.82993e-20)
(0.965389 0.261497 -2.79521e-20)
(0.965412 0.261536 -3.20615e-20)
(0.965461 0.261559 1.48014e-19)
(0.965529 0.261567 -1.0102e-19)
(0.965607 0.261562 2.42664e-19)
(0.965687 0.261547 -3.0013e-19)
(0.965763 0.261526 -4.62437e-20)
(0.965828 0.261503 3.33952e-19)
(0.965879 0.261483 -1.18507e-19)
(0.965912 0.261468 -4.45476e-20)
(0.965926 0.261461 -4.96111e-20)
(0.965922 0.261464 -4.67924e-19)
(0.9659 0.261477 2.71486e-19)
(0.965862 0.2615 -1.31659e-19)
(0.965811 0.261533 2.12845e-19)
(0.965748 0.261572 1.03421e-19)
(0.965676 0.261617 5.31957e-19)
(0.965598 0.261661 -3.40111e-19)
(0.965517 0.261705 -4.63618e-19)
(0.965433 0.261742 7.59542e-19)
(0.965349 0.261778 -6.39052e-19)
(0.965258 0.261819 1.22768e-18)
(0.965165 0.261861 -7.75525e-19)
(0.965076 0.261892 3.29655e-19)
(0.964994 0.2619 5.87133e-19)
(0.964921 0.261889 -2.61327e-19)
(0.964868 0.261874 3.24847e-19)
(0.964821 0.261885 -1.65308e-19)
(0.964763 0.261927 4.82319e-19)
(0.964685 0.262004 -1.34788e-18)
(0.964577 0.262112 3.65413e-19)
(0.964428 0.262237 7.74531e-19)
(0.964224 0.262348 1.88426e-18)
(0.963955 0.262384 2.39258e-18)
(0.963613 0.262264 5.04026e-19)
(0.963211 0.261876 3.64869e-18)
(0.962769 0.261113 3.94521e-18)
(0.962335 0.259917 4.62132e-18)
(0.961952 0.258313 -3.3751e-18)
(0.961641 0.256468 -4.58515e-18)
(0.961434 0.25463 3.11346e-18)
(0.961291 0.253096 4.2736e-18)
(0.961144 0.25203 9.74633e-18)
(0.960916 0.251192 6.0637e-18)
(0.960471 0.250102 1.02143e-17)
(0.960288 0.247297 1.80572e-17)
(0.958593 0.243041 -1.1131e-18)
(0.962239 0.237027 -9.75631e-18)
(0.938005 0.229043 -6.90491e-18)
(0.966835 0.26145 1.01633e-20)
(0.967092 0.261426 -3.43446e-21)
(0.967271 0.261434 5.80974e-21)
(0.96737 0.261468 -8.29261e-21)
(0.967388 0.261527 1.88385e-20)
(0.967332 0.261615 -9.39802e-21)
(0.967214 0.261729 5.18575e-21)
(0.967051 0.261866 -7.77676e-20)
(0.96686 0.26202 6.59934e-20)
(0.966658 0.262184 -1.3442e-19)
(0.966461 0.262352 1.4991e-19)
(0.966283 0.262516 -1.83209e-20)
(0.966132 0.262669 -4.15967e-20)
(0.966012 0.262805 -1.97859e-20)
(0.965925 0.262919 -4.63591e-21)
(0.965869 0.263009 -2.06491e-19)
(0.965838 0.263075 6.85561e-21)
(0.965825 0.263118 2.33385e-19)
(0.965825 0.263139 -7.86271e-20)
(0.965829 0.263143 -8.62148e-20)
(0.965832 0.263134 1.45708e-19)
(0.965829 0.263116 -7.62677e-20)
(0.965816 0.263092 3.25367e-19)
(0.96579 0.263069 1.88166e-19)
(0.965751 0.263046 1.51175e-19)
(0.965698 0.263027 -4.61878e-19)
(0.965633 0.263012 -6.72067e-20)
(0.965558 0.263003 -3.9096e-19)
(0.965474 0.262995 7.29509e-20)
(0.965385 0.262989 -1.42994e-19)
(0.965291 0.262981 -5.84064e-20)
(0.965195 0.262978 4.80899e-19)
(0.965091 0.262992 -1.23238e-18)
(0.964982 0.263018 -5.98931e-20)
(0.964875 0.263039 -6.74329e-19)
(0.964773 0.263044 -3.38351e-19)
(0.964681 0.263036 8.76921e-20)
(0.964609 0.263037 -1.13287e-18)
(0.964545 0.263064 1.71977e-18)
(0.964469 0.263118 2.96526e-19)
(0.964371 0.263195 1.84856e-18)
(0.964245 0.263286 -1.33253e-18)
(0.964076 0.263368 -8.91578e-19)
(0.963852 0.263401 -3.19017e-19)
(0.963559 0.263317 1.77976e-18)
(0.963188 0.263028 2.52996e-18)
(0.962743 0.262419 6.21704e-19)
(0.962233 0.261388 1.03666e-18)
(0.961691 0.259881 -1.58169e-18)
(0.961145 0.257934 8.65293e-18)
(0.960605 0.255712 2.22e-18)
(0.960117 0.253456 -2.20443e-18)
(0.959676 0.251453 9.26039e-19)
(0.959277 0.249873 8.04719e-18)
(0.958932 0.248496 -6.54326e-19)
(0.958523 0.246923 -7.91105e-18)
(0.958716 0.243748 -1.89623e-17)
(0.957248 0.23914 1.69319e-17)
(0.96145 0.234304 -1.00054e-17)
(0.941959 0.227695 7.8119e-18)
(0.966241 0.263696 -3.83482e-21)
(0.966682 0.263594 1.55997e-20)
(0.967085 0.263524 -2.59146e-20)
(0.967439 0.263461 1.95367e-20)
(0.967722 0.26342 1.27932e-20)
(0.967921 0.263406 -1.37295e-20)
(0.968029 0.263421 1.16789e-21)
(0.968048 0.263469 -1.05919e-20)
(0.967985 0.263549 -3.62725e-20)
(0.967855 0.263657 7.05539e-20)
(0.967673 0.263788 -1.11472e-19)
(0.967459 0.263937 9.9128e-20)
(0.967229 0.264095 8.96511e-20)
(0.966999 0.264253 -1.40676e-19)
(0.966782 0.264404 -4.75224e-20)
(0.966586 0.264541 1.80804e-19)
(0.966416 0.264658 -2.24433e-19)
(0.966272 0.264752 3.18484e-19)
(0.966152 0.26482 -5.98788e-20)
(0.966053 0.264863 3.83074e-20)
(0.96597 0.264881 -5.81804e-20)
(0.965896 0.264879 -7.66881e-20)
(0.965827 0.264858 -1.50455e-19)
(0.965758 0.264823 2.68379e-19)
(0.965685 0.264777 -1.88033e-19)
(0.965606 0.264726 -1.93568e-19)
(0.96552 0.26467 4.07818e-19)
(0.965426 0.264614 -4.08608e-19)
(0.965326 0.264555 6.68839e-19)
(0.965221 0.264494 -3.6476e-19)
(0.965112 0.264431 2.93462e-19)
(0.965001 0.264375 -5.1413e-19)
(0.964883 0.264341 5.724e-19)
(0.964761 0.264324 -4.73418e-20)
(0.964641 0.264306 -2.92492e-20)
(0.96453 0.264275 -1.57943e-20)
(0.96443 0.264233 -3.61841e-19)
(0.964349 0.26421 1.0088e-18)
(0.964279 0.264207 -7.64044e-19)
(0.9642 0.264221 -4.37848e-18)
(0.964107 0.26425 -1.81931e-18)
(0.963991 0.26428 1.25718e-18)
(0.96384 0.264288 -1.3938e-18)
(0.963638 0.264236 -1.47489e-18)
(0.963373 0.264056 -1.1697e-19)
(0.963023 0.263668 3.57612e-18)
(0.962585 0.26296 -5.09884e-18)
(0.962048 0.261834 -5.10537e-18)
(0.961424 0.260234 -3.44859e-18)
(0.960722 0.258181 -5.80816e-18)
(0.959935 0.255801 3.74573e-18)
(0.959121 0.253283 -1.57777e-18)
(0.958307 0.250856 -1.31655e-17)
(0.957554 0.248658 2.55543e-18)
(0.956979 0.246488 3.92545e-18)
(0.956507 0.244059 -7.46092e-18)
(0.957019 0.240145 5.202e-18)
(0.955964 0.234906 4.84664e-18)
(0.960435 0.230601 1.61184e-17)
(0.946144 0.226359 -2.86732e-19)
(0.964889 0.267282 4.50254e-21)
(0.965309 0.267103 -2.04209e-20)
(0.965759 0.266956 1.00699e-20)
(0.966227 0.266794 1.8832e-20)
(0.966684 0.266635 -4.07717e-20)
(0.967103 0.266487 3.45498e-20)
(0.96746 0.266355 -2.32935e-20)
(0.967737 0.266247 2.0009e-20)
(0.967925 0.266167 3.24185e-20)
(0.968019 0.266119 -7.91068e-20)
(0.968025 0.266102 1.16184e-19)
(0.967953 0.266117 5.05902e-20)
(0.967816 0.266158 -2.03606e-19)
(0.967633 0.266221 -3.95994e-20)
(0.96742 0.266298 1.12464e-19)
(0.967193 0.266382 7.48792e-20)
(0.966965 0.266466 -9.21553e-20)
(0.966746 0.266542 8.37159e-20)
(0.966544 0.266604 1.34519e-19)
(0.966359 0.266649 -6.39121e-20)
(0.966194 0.266673 -3.78344e-20)
(0.966045 0.266675 1.45953e-19)
(0.96591 0.266655 3.1196e-19)
(0.965784 0.266614 -2.22723e-19)
(0.965663 0.266556 -2.61913e-19)
(0.965544 0.266484 3.02244e-19)
(0.965424 0.266399 -2.37857e-19)
(0.965301 0.266307 -1.04502e-19)
(0.965175 0.266206 8.73922e-19)
(0.965047 0.266096 -3.95667e-19)
(0.964915 0.265978 -3.23139e-19)
(0.964782 0.265865 4.25863e-19)
(0.964645 0.265774 3.09498e-19)
(0.964507 0.265701 -2.90669e-19)
(0.964375 0.265627 -2.03524e-19)
(0.964256 0.26554 6.78559e-19)
(0.964152 0.265442 1.49178e-19)
(0.964067 0.265368 2.38303e-19)
(0.963999 0.265304 -1.27081e-18)
(0.963933 0.265252 -1.2471e-18)
(0.963867 0.265209 2.34202e-18)
(0.963795 0.265167 1.83927e-18)
(0.963707 0.265106 3.013e-18)
(0.963588 0.264997 -2.74319e-18)
(0.963423 0.264785 -2.95458e-18)
(0.963185 0.264403 -1.90779e-18)
(0.962861 0.263754 4.51781e-18)
(0.962422 0.262749 4.2863e-18)
(0.96186 0.261331 -4.74468e-18)
(0.96116 0.259498 -6.76454e-18)
(0.9603 0.25733 -1.57376e-18)
(0.959334 0.254945 1.35407e-18)
(0.958308 0.252492 3.15536e-19)
(0.957325 0.250063 -4.82443e-18)
(0.956586 0.247468 4.13633e-18)
(0.956055 0.244537 2.63329e-18)
(0.956789 0.240284 3.91277e-18)
(0.956136 0.234924 -1.45268e-17)
(0.960451 0.231548 -1.08211e-18)
(0.951895 0.231529 -1.4435e-19)
(0.96338 0.271189 -7.5713e-21)
(0.963626 0.270992 -6.02915e-21)
(0.963952 0.270819 8.35827e-21)
(0.964353 0.270612 2.95947e-20)
(0.964809 0.270391 -6.43397e-20)
(0.965292 0.27016 7.43688e-20)
(0.965776 0.269924 -3.39647e-21)
(0.966231 0.269692 -4.72971e-21)
(0.966634 0.26947 -2.75463e-20)
(0.966965 0.269267 6.80223e-20)
(0.967212 0.269086 -1.06425e-19)
(0.967369 0.268934 4.07408e-20)
(0.967437 0.268812 -1.41383e-21)
(0.967426 0.268719 6.67061e-20)
(0.967347 0.268654 3.29275e-20)
(0.967215 0.268612 -1.76461e-19)
(0.967045 0.268589 1.56661e-19)
(0.966853 0.268577 6.42072e-20)
(0.96665 0.26857 -1.86981e-19)
(0.966447 0.268562 9.36728e-20)
(0.966251 0.268547 4.58383e-20)
(0.966064 0.26852 -2.90107e-20)
(0.965889 0.268478 4.26183e-20)
(0.965724 0.268419 -2.13384e-20)
(0.965567 0.268341 -2.86434e-19)
(0.965415 0.268248 1.95651e-19)
(0.965267 0.268138 -3.09335e-19)
(0.965119 0.268017 5.89926e-19)
(0.96497 0.267881 -1.08214e-19)
(0.964819 0.26773 -6.88395e-20)
(0.964667 0.267562 -1.77436e-20)
(0.964513 0.267394 7.23751e-19)
(0.964358 0.267244 -2.95864e-19)
(0.964204 0.267109 -1.93386e-19)
(0.964062 0.26697 5.13767e-19)
(0.963937 0.266815 4.59549e-19)
(0.963831 0.266648 -7.91251e-19)
(0.963746 0.266505 1.42594e-19)
(0.963682 0.266363 1.53401e-18)
(0.963639 0.266229 -1.54927e-19)
(0.963614 0.266106 9.74233e-19)
(0.963606 0.265988 -1.37586e-18)
(0.963607 0.265869 2.04861e-18)
(0.963605 0.265729 4.33094e-18)
(0.963583 0.265532 1.23548e-18)
(0.963514 0.265228 -1.62046e-18)
(0.963375 0.264744 -4.7798e-18)
(0.963127 0.264001 7.70432e-19)
(0.962744 0.262946 1.44912e-18)
(0.96219 0.261557 3.32361e-18)
(0.961427 0.259869 -5.93344e-19)
(0.960502 0.257927 -5.51855e-18)
(0.959461 0.255801 4.89083e-18)
(0.958425 0.25353 -3.4294e-18)
(0.957646 0.250923 6.51876e-18)
(0.957099 0.247901 1.87724e-18)
(0.957962 0.243705 7.95439e-18)
(0.957651 0.238596 1.08054e-17)
(0.961453 0.236285 1.42434e-18)
(0.958068 0.240153 1.55226e-18)
(0.962159 0.274714 -3.69455e-21)
(0.962182 0.274535 3.20648e-21)
(0.962299 0.274378 1.60973e-20)
(0.962518 0.274184 2.55925e-20)
(0.96283 0.273966 -7.6569e-20)
(0.963221 0.273725 4.44755e-20)
(0.963672 0.273463 -8.03471e-20)
(0.964155 0.273184 1.27253e-19)
(0.964644 0.272895 -6.03692e-20)
(0.965112 0.272603 1.08225e-20)
(0.965534 0.272314 1.20546e-19)
(0.965892 0.272037 -2.78657e-19)
(0.966171 0.271777 1.93114e-19)
(0.966367 0.271539 2.81518e-20)
(0.966481 0.271327 4.67385e-20)
(0.966518 0.271141 -1.96134e-19)
(0.966488 0.270982 9.8484e-20)
(0.966406 0.270846 -1.25502e-19)
(0.966284 0.270729 2.54873e-19)
(0.966135 0.270627 -3.24618e-20)
(0.965971 0.270533 -3.39859e-19)
(0.965799 0.270442 1.36697e-19)
(0.965627 0.270347 -7.87269e-21)
(0.965457 0.270246 -5.45741e-19)
(0.96529 0.270132 4.09929e-19)
(0.965128 0.270008 3.21456e-19)
(0.964968 0.269868 2.31809e-19)
(0.964809 0.269718 -2.99502e-19)
(0.964648 0.269548 -3.46089e-19)
(0.964486 0.26936 1.63844e-19)
(0.964322 0.269149 2.58871e-19)
(0.964157 0.268929 -3.26868e-19)
(0.963991 0.268721 -5.12221e-19)
(0.96383 0.268524 1.06646e-18)
(0.963683 0.268317 1.19061e-19)
(0.963556 0.268091 -1.74144e-18)
(0.963452 0.267849 1.4397e-19)
(0.963368 0.267627 1.22793e-18)
(0.963312 0.267399 1.17545e-19)
(0.963291 0.267177 1.59713e-18)
(0.963308 0.266968 -2.19663e-18)
(0.963362 0.266776 -1.38149e-19)
(0.963449 0.266601 -1.37782e-18)
(0.963556 0.266439 4.99382e-19)
(0.963671 0.266269 2.1342e-18)
(0.963765 0.266063 6.26018e-18)
(0.963813 0.265767 9.16541e-19)
(0.963768 0.265317 -3.78831e-18)
(0.963594 0.264666 2.6988e-18)
(0.963243 0.263772 9.53719e-18)
(0.962663 0.262633 -7.56584e-18)
(0.961893 0.26123 9.03006e-18)
(0.960972 0.259561 -5.74824e-18)
(0.960022 0.257613 -2.62908e-18)
(0.959316 0.255188 -1.31307e-17)
(0.958816 0.252262 -6.81327e-19)
(0.959762 0.248259 -4.60889e-18)
(0.959783 0.243423 -4.87128e-18)
(0.962906 0.241862 2.74324e-18)
(0.963194 0.247922 -2.19171e-19)
(0.961362 0.277684 5.18484e-21)
(0.961187 0.277543 1.8021e-21)
(0.961093 0.277422 -1.90218e-20)
(0.961095 0.277265 1.82697e-20)
(0.9612 0.277084 -8.16672e-21)
(0.961407 0.276876 1.47212e-20)
(0.961708 0.276639 5.10931e-21)
(0.962088 0.276375 -7.53377e-20)
(0.962527 0.276085 3.30744e-20)
(0.962999 0.275775 -2.301e-20)
(0.963478 0.275449 1.39869e-20)
(0.963938 0.275113 5.57624e-20)
(0.964357 0.274776 -1.06865e-20)
(0.964717 0.274444 3.55897e-20)
(0.965006 0.274123 -1.53223e-19)
(0.965219 0.273819 5.95384e-20)
(0.965357 0.273536 2.64302e-20)
(0.965424 0.273277 -7.64064e-20)
(0.965431 0.273042 1.53892e-19)
(0.965388 0.272828 5.28223e-20)
(0.965306 0.272633 -5.25838e-21)
(0.965197 0.272453 -6.0692e-20)
(0.96507 0.272281 2.46743e-19)
(0.964931 0.272115 -6.98051e-19)
(0.964786 0.271945 3.69869e-19)
(0.964637 0.271773 1.64561e-19)
(0.964487 0.271593 -2.80789e-19)
(0.964334 0.271405 5.14961e-19)
(0.964178 0.2712 -2.49256e-19)
(0.964018 0.270973 -1.38857e-19)
(0.963856 0.27072 -2.82685e-19)
(0.963692 0.270453 -1.24565e-19)
(0.963528 0.270192 3.33333e-19)
(0.963369 0.269934 -1.05831e-18)
(0.963225 0.269662 2.05883e-18)
(0.963103 0.269365 -1.41187e-19)
(0.963003 0.269049 1.14158e-18)
(0.962923 0.268744 -2.93814e-18)
(0.962873 0.26843 -9.22906e-19)
(0.962871 0.26812 1.60411e-20)
(0.962918 0.267827 -6.81759e-19)
(0.963016 0.26756 -9.84185e-20)
(0.96316 0.267328 -2.36687e-18)
(0.963342 0.267138 7.77229e-19)
(0.96355 0.266981 1.07735e-18)
(0.963757 0.266848 -5.77343e-18)
(0.963938 0.2667 7.08085e-18)
(0.964046 0.266489 9.97302e-19)
(0.964041 0.266168 2.09665e-19)
(0.963871 0.265683 -6.20812e-18)
(0.96348 0.264999 2.28337e-18)
(0.9629 0.264049 -4.61255e-18)
(0.962164 0.262769 8.29492e-18)
(0.961385 0.261103 2.24958e-18)
(0.960841 0.258849 -6.36154e-18)
(0.960462 0.256004 2.69705e-18)
(0.961503 0.25213 -7.6391e-18)
(0.961903 0.24741 -1.5732e-18)
(0.964372 0.246111 -1.14648e-17)
(0.966594 0.252697 -2.59265e-18)
(0.960928 0.280133 -1.16664e-21)
(0.960608 0.280024 -4.60163e-21)
(0.960344 0.279939 -4.0248e-21)
(0.960155 0.279824 3.92774e-20)
(0.960055 0.27969 -2.20094e-20)
(0.960054 0.279531 -2.66929e-20)
(0.960157 0.279344 -1.0141e-20)
(0.960359 0.279126 -4.22059e-20)
(0.960653 0.278877 2.65424e-20)
(0.961023 0.278597 3.73217e-21)
(0.961446 0.278288 1.24455e-21)
(0.961899 0.277953 1.19864e-19)
(0.962357 0.277599 -8.62675e-20)
(0.962797 0.27723 -1.09725e-20)
(0.963197 0.276855 1.03396e-19)
(0.963543 0.276481 -5.78702e-20)
(0.963825 0.276114 -2.32964e-20)
(0.964038 0.275762 3.73532e-20)
(0.964184 0.275426 1.25729e-19)
(0.964267 0.27511 7.2822e-20)
(0.964296 0.274816 3.00054e-20)
(0.96428 0.27454 -1.85414e-19)
(0.964229 0.274281 9.88904e-20)
(0.964151 0.274035 1.94638e-19)
(0.964054 0.273795 -4.10402e-19)
(0.963942 0.273561 1.3829e-19)
(0.963821 0.273326 -5.56616e-19)
(0.963692 0.27309 4.66057e-19)
(0.963555 0.272842 4.28557e-19)
(0.963412 0.272573 -6.66696e-19)
(0.963264 0.272278 -3.36967e-19)
(0.963114 0.271964 4.5845e-19)
(0.962963 0.271651 1.58528e-19)
(0.962817 0.271338 -4.55235e-19)
(0.962684 0.271003 -6.02129e-19)
(0.962571 0.27064 -7.38568e-19)
(0.962479 0.270253 4.62198e-19)
(0.962403 0.269871 1.13562e-18)
(0.962358 0.269475 3.96518e-19)
(0.962365 0.269083 -3.5749e-19)
(0.962426 0.26871 3.89357e-18)
(0.962542 0.268371 -4.14068e-19)
(0.962708 0.268078 3.93488e-18)
(0.962918 0.267845 -6.91262e-18)
(0.963162 0.267674 1.10422e-18)
(0.963414 0.267566 1.84503e-19)
(0.963655 0.267496 -2.93179e-19)
(0.96384 0.267424 -4.66698e-18)
(0.963934 0.267303 -7.14934e-18)
(0.963886 0.267069 6.13293e-18)
(0.963646 0.266663 7.7442e-18)
(0.963243 0.265981 3.91186e-18)
(0.962712 0.264918 -7.7582e-18)
(0.962151 0.263383 4.11304e-18)
(0.961833 0.261176 1.04045e-17)
(0.96165 0.258302 3.83113e-18)
(0.962836 0.25443 7.43259e-18)
(0.963689 0.249658 3.63796e-18)
(0.965657 0.248211 1.00119e-17)
(0.968347 0.254282 -6.25269e-18)
(0.960739 0.282178 1.53243e-21)
(0.960329 0.282098 -4.62572e-21)
(0.95995 0.282039 1.66647e-20)
(0.959618 0.281957 4.38996e-21)
(0.959352 0.281861 -2.332e-20)
(0.959166 0.281745 -2.71749e-20)
(0.959073 0.281607 6.50258e-20)
(0.95908 0.281442 -7.18796e-20)
(0.959189 0.281247 -1.80263e-20)
(0.959395 0.281019 4.54962e-20)
(0.959686 0.280756 4.29696e-20)
(0.960045 0.28046 1.33321e-19)
(0.960451 0.280133 -7.51832e-20)
(0.960881 0.279777 -1.3294e-19)
(0.961312 0.279398 2.97092e-20)
(0.961722 0.279003 -1.13698e-19)
(0.962094 0.278599 8.62349e-20)
(0.962415 0.278194 -1.51092e-19)
(0.962678 0.277793 2.30123e-20)
(0.96288 0.277402 -5.40775e-20)
(0.963022 0.277027 -3.64401e-20)
(0.96311 0.276667 -1.518e-19)
(0.963151 0.276324 9.9365e-21)
(0.963152 0.275997 3.37091e-19)
(0.963122 0.275681 -1.20635e-19)
(0.963066 0.275378 3.62486e-20)
(0.962991 0.27508 1.13182e-19)
(0.962899 0.274787 -1.57557e-19)
(0.962795 0.274487 -3.62301e-20)
(0.96268 0.27417 2.3782e-19)
(0.962557 0.273828 2.67591e-19)
(0.96243 0.273466 -2.03033e-19)
(0.9623 0.273104 -6.79735e-19)
(0.962175 0.272737 -1.00926e-18)
(0.96206 0.272345 1.57625e-18)
(0.961961 0.271922 4.45546e-19)
(0.961878 0.271471 2.87867e-19)
(0.961808 0.271017 1.50866e-18)
(0.961765 0.27055 -1.36231e-18)
(0.961773 0.270083 8.46115e-19)
(0.961832 0.269638 3.89366e-20)
(0.961941 0.269229 4.07614e-20)
(0.962096 0.26887 -1.43582e-18)
(0.962291 0.268581 3.24774e-18)
(0.962517 0.268365 -4.20903e-18)
(0.962754 0.268231 2.44163e-18)
(0.962987 0.268161 -6.60096e-18)
(0.963178 0.268118 1.62206e-18)
(0.963301 0.268057 3.76001e-18)
(0.963315 0.267903 -6.22121e-18)
(0.963178 0.267583 -1.31082e-18)
(0.962926 0.266967 -2.09118e-19)
(0.962595 0.265924 -1.43229e-18)
(0.962276 0.264345 -4.20786e-18)
(0.962229 0.262042 2.73939e-19)
(0.962306 0.259022 3.81589e-18)
(0.963699 0.255042 -4.06569e-18)
(0.965073 0.250123 -1.13039e-18)
(0.966736 0.248294 -1.33181e-18)
(0.968929 0.253436 4.67178e-18)
(0.960703 0.283885 2.91573e-21)
(0.960247 0.283816 -2.48296e-21)
(0.959801 0.283774 2.29734e-21)
(0.959377 0.283715 1.48615e-20)
(0.958992 0.283649 2.18607e-20)
(0.958664 0.283571 -8.61081e-20)
(0.958407 0.283476 6.30284e-20)
(0.958237 0.283361 1.33967e-20)
(0.958162 0.28322 -3.97033e-21)
(0.958186 0.28305 -2.9653e-20)
(0.958308 0.282847 9.2747e-20)
(0.958521 0.282608 -3.00831e-20)
(0.95881 0.282332 -4.28099e-20)
(0.959158 0.282019 -1.31731e-19)
(0.959544 0.281673 2.68022e-19)
(0.959946 0.281297 -5.54092e-20)
(0.960344 0.280898 -4.75236e-20)
(0.960718 0.280481 -1.47878e-19)
(0.961055 0.280054 1.66024e-19)
(0.961345 0.279624 9.55397e-20)
(0.961582 0.279198 -4.38672e-20)
(0.961766 0.278778 7.94462e-20)
(0.961899 0.278369 -3.42614e-19)
(0.961984 0.277973 2.16231e-20)
(0.96203 0.277587 1.9729e-19)
(0.96204 0.277215 -3.80435e-20)
(0.962022 0.276852 -6.53043e-19)
(0.961979 0.276498 5.19663e-20)
(0.961917 0.276142 6.06744e-19)
(0.961838 0.275772 -1.69655e-19)
(0.961749 0.275379 -3.3184e-19)
(0.961652 0.274968 2.04965e-19)
(0.96155 0.274556 6.0886e-19)
(0.961451 0.274138 1.48325e-18)
(0.961358 0.273692 -2.32104e-19)
(0.961276 0.273214 3.49054e-19)
(0.961204 0.272705 -2.55359e-18)
(0.96114 0.272189 -7.40768e-19)
(0.961098 0.271659 4.74862e-19)
(0.961099 0.271129 -1.9657e-18)
(0.961143 0.270618 -4.08062e-19)
(0.961227 0.270143 8.97846e-19)
(0.961346 0.269717 7.66841e-19)
(0.961494 0.269356 2.01677e-18)
(0.961666 0.269068 6.39785e-18)
(0.961846 0.268861 -4.92373e-18)
(0.962023 0.268722 7.64645e-18)
(0.962171 0.268614 5.47609e-18)
(0.962274 0.268489 -4.68228e-20)
(0.962304 0.268268 6.56555e-18)
(0.962233 0.267866 -8.31868e-18)
(0.962107 0.267142 -9.57442e-18)
(0.961969 0.265952 7.17527e-18)
(0.961901 0.264183 5.9988e-18)
(0.962154 0.261667 -2.55206e-18)
(0.962538 0.258421 -1.35361e-17)
(0.964192 0.254274 3.12707e-18)
(0.966122 0.249197 -3.41326e-18)
(0.967668 0.246918 -4.8201e-18)
(0.968872 0.251133 4.09065e-18)
(0.960749 0.285351 -3.20956e-21)
(0.960279 0.285293 3.54349e-21)
(0.959801 0.285261 2.44064e-20)
(0.959327 0.285216 -3.21689e-20)
(0.958869 0.285167 5.92173e-20)
(0.958443 0.285113 -8.79705e-20)
(0.958065 0.285048 2.51423e-20)
(0.957751 0.28497 -1.27712e-21)
(0.957516 0.284874 5.76203e-20)
(0.957371 0.284755 -3.07276e-20)
(0.957321 0.284607 9.38431e-21)
(0.957367 0.284427 9.76799e-21)
(0.957506 0.284211 -1.53817e-19)
(0.957726 0.283957 4.60273e-20)
(0.958013 0.283663 1.10089e-19)
(0.958347 0.283332 3.8253e-21)
(0.958709 0.282966 -1.92153e-19)
(0.95908 0.282571 7.92473e-20)
(0.959441 0.282152 3.82521e-19)
(0.959776 0.281716 -2.5212e-19)
(0.960075 0.28127 -1.98523e-19)
(0.960331 0.280819 1.70452e-19)
(0.96054 0.280368 1.1475e-19)
(0.960703 0.279923 1.30744e-19)
(0.960822 0.279481 -2.5364e-19)
(0.960901 0.279051 -5.69387e-19)
(0.960944 0.278629 4.29598e-19)
(0.960956 0.278216 6.39193e-19)
(0.960942 0.277803 1.92748e-19)
(0.960906 0.277379 -3.64947e-19)
(0.960855 0.276934 1.74018e-19)
(0.960793 0.276473 3.08672e-19)
(0.960724 0.276011 -5.20164e-19)
(0.960653 0.275543 -6.93678e-20)
(0.960585 0.275048 -9.97213e-19)
(0.960522 0.274518 -2.77368e-19)
(0.960462 0.273959 -2.91766e-19)
(0.960404 0.273388 7.47257e-19)
(0.960361 0.272805 -1.05097e-18)
(0.960352 0.272219 2.9767e-19)
(0.960374 0.27165 5.05894e-19)
(0.960422 0.271111 1.35494e-19)
(0.960491 0.270613 -3.04568e-18)
(0.960577 0.270172 -4.20524e-18)
(0.960676 0.269789 -3.56143e-18)
(0.960776 0.269473 7.05315e-18)
(0.960874 0.26921 3.77194e-19)
(0.960955 0.268964 -2.62598e-18)
(0.961012 0.268682 1.37443e-18)
(0.961035 0.268282 -8.07739e-18)
(0.961011 0.267674 3.69532e-18)
(0.960996 0.266717 9.93582e-18)
(0.961043 0.265265 -3.48544e-19)
(0.961231 0.263208 -8.18936e-18)
(0.961795 0.26041 3.68593e-18)
(0.962514 0.256903 3.36867e-18)
(0.96446 0.252582 4.34451e-18)
(0.966947 0.247393 9.79424e-18)
(0.968521 0.244715 9.0856e-18)
(0.968606 0.248205 -9.45463e-18)
(0.960824 0.286622 -2.78359e-21)
(0.960357 0.286569 4.05331e-21)
(0.959872 0.286543 8.62055e-22)
(0.959377 0.286506 1.57891e-20)
(0.958881 0.28647 -2.41651e-20)
(0.958397 0.286431 -5.02946e-20)
(0.957938 0.286388 1.80134e-20)
(0.957522 0.286337 -2.47278e-20)
(0.957163 0.286274 5.39788e-20)
(0.956876 0.286194 -1.10908e-20)
(0.956672 0.286093 -3.71186e-20)
(0.956559 0.285964 3.08544e-20)
(0.95654 0.285804 5.13007e-20)
(0.956613 0.285608 1.44729e-19)
(0.956769 0.285373 -2.65942e-19)
(0.956995 0.285097 1.38142e-19)
(0.957276 0.284783 2.16519e-20)
(0.957593 0.284431 -1.41301e-19)
(0.957929 0.284045 -9.08686e-20)
(0.958265 0.28363 3.01976e-19)
(0.958587 0.283193 -3.23331e-19)
(0.958882 0.282739 9.71881e-20)
(0.959143 0.282272 -2.73434e-19)
(0.959365 0.281801 4.64296e-19)
(0.959546 0.281325 -9.61737e-20)
(0.959687 0.280852 -2.78784e-19)
(0.959789 0.280383 2.25049e-19)
(0.959856 0.27992 4.34925e-19)
(0.959891 0.279457 -4.17044e-19)
(0.959901 0.278982 2.60086e-19)
(0.95989 0.278487 -9.15386e-19)
(0.959866 0.277977 -1.06542e-19)
(0.959831 0.277467 4.08023e-19)
(0.959791 0.276952 -2.48502e-19)
(0.959749 0.276408 -5.32116e-19)
(0.959706 0.275832 -1.29599e-18)
(0.959659 0.275227 1.68251e-18)
(0.959608 0.274609 -6.96341e-19)
(0.959565 0.273979 5.18299e-19)
(0.959545 0.273344 1.08272e-18)
(0.959542 0.27272 8.75985e-19)
(0.959551 0.27212 -5.25437e-19)
(0.959567 0.271548 1.8105e-18)
(0.959586 0.271016 3.36699e-18)
(0.959608 0.270522 -3.41312e-19)
(0.959626 0.270071 -4.35087e-18)
(0.959642 0.269647 -5.65646e-18)
(0.959652 0.269211 -4.04013e-19)
(0.95966 0.268711 4.20682e-18)
(0.959674 0.268058 -9.94766e-19)
(0.959694 0.267169 7.20576e-18)
(0.959786 0.265902 -1.03412e-17)
(0.960014 0.264121 -5.26572e-18)
(0.960456 0.26173 -2.49211e-18)
(0.96133 0.258628 -4.43749e-18)
(0.96239 0.254865 2.7127e-18)
(0.964639 0.250397 -3.35709e-18)
(0.967648 0.24517 -1.34284e-17)
(0.969344 0.242206 -1.45465e-17)
(0.968394 0.245238 5.23817e-18)
(0.960897 0.287753 -4.29433e-21)
(0.960443 0.287708 3.48314e-21)
(0.959965 0.287684 2.79004e-21)
(0.959469 0.287651 -2.01625e-20)
(0.958959 0.287619 2.10035e-20)
(0.958447 0.287587 -1.05102e-20)
(0.957942 0.287554 3.46529e-20)
(0.957459 0.287517 -5.22019e-20)
(0.957013 0.287475 2.89606e-21)
(0.956619 0.287423 4.09333e-21)