/*--------------------------------*- C++ -*----------------------------------*\
  =========                 |
  \\      /  F ield         | OpenFOAM: The Open Source CFD Toolbox
   \\    /   O peration     | Website:  https://openfoam.org
    \\  /    A nd           | Version:  6.0
     \\/     M anipulation  |
\*---------------------------------------------------------------------------*/
FoamFile
{
    version     2.0;
    format      ascii;
    class       volVectorField;
    location    "1.71";
    object      U;
}
// * * * * * * * * * * * * * * * * * * * * * * * * * * * * * * * * * * * * * //

dimensions      [0 1 -1 0 0 0 0];

internalField   nonuniform List<vector> 
13500
(
(1 1.4435e-06 -4.3271e-18)
(1 -3.1561e-06 2.9275e-18)
(1 -6.3677e-06 -1.2595e-17)
(1 -8.7782e-06 -8.708e-18)
(1 -9.3979e-06 1.6428e-17)
(1 -6.5613e-06 3.0495e-17)
(1 -2.5962e-07 2.6318e-17)
(0.99998 1.5598e-05 -4.2216e-18)
(0.99991 4.5704e-05 1.5625e-17)
(0.99981 7.3276e-05 3.3481e-18)
(0.99574 0.00074955 2.8984e-17)
(1.0192 0.010825 7.9224e-18)
(1 4.5287e-06 2.6808e-18)
(1 -9.1523e-06 -8.8906e-18)
(1 -1.7776e-05 6.0148e-18)
(1 -2.5063e-05 -3.4339e-19)
(1 -2.6136e-05 -4.3808e-19)
(1 -1.7393e-05 -3.6668e-17)
(1 1.6627e-06 -4.5457e-17)
(0.99993 4.9377e-05 -2.4155e-17)
(0.9997 0.00014616 -1.5595e-17)
(0.99983 0.00018395 -1.6557e-18)
(0.98629 0.0021611 -1.3726e-17)
(1.054 0.030576 -4.7969e-18)
(1 7.6981e-06 -3.4625e-18)
(1 -1.5344e-05 1.7664e-17)
(1 -2.9181e-05 3.1285e-18)
(1 -4.1696e-05 1.004e-17)
(1 -4.2979e-05 -3.7882e-18)
(1 -2.8515e-05 2.9372e-17)
(1 3.5485e-06 -6.3992e-18)
(0.99989 8.3252e-05 5.4869e-18)
(0.99948 0.00025305 -1.8919e-17)
(1.0003 0.00031664 2.5153e-17)
(0.97623 0.0032066 -7.1772e-18)
(1.0829 0.045041 1.6858e-18)
(1 1.0896e-05 9.0518e-18)
(1 -2.1729e-05 -1.7125e-17)
(1 -4.0816e-05 -1.483e-17)
(1 -5.875e-05 -7.0441e-19)
(1 -6.0196e-05 5.848e-18)
(1 -4.0085e-05 -8.1537e-19)
(1 5.1688e-06 6.3047e-17)
(0.99986 0.00011668 9.8851e-18)
(0.99923 0.00036489 2.2371e-17)
(1.0012 0.00047761 -9.1107e-18)
(0.96597 0.003909 3.4952e-17)
(1.1045 0.055509 -7.6737e-18)
(1 1.4119e-05 -6.3603e-18)
(1 -2.8173e-05 1.4801e-17)
(1 -5.2481e-05 1.2624e-17)
(1 -7.5887e-05 1.285e-17)
(1.0001 -7.7474e-05 2.8675e-18)
(1 -5.1706e-05 2.1587e-17)
(1 6.7654e-06 -2.8154e-17)
(0.99984 0.00014965 2.0075e-18)
(0.99894 0.00047982 -1.3717e-17)
(1.0024 0.00067042 -2.1738e-18)
(0.95591 0.0043166 -9.0635e-18)
(1.1188 0.063116 2.1263e-18)
(1 1.7359e-05 6.4366e-18)
(1 -3.4665e-05 -6.1357e-18)
(1 -6.4181e-05 3.8555e-18)
(1 -9.3105e-05 -2.5454e-17)
(1.0001 -9.4812e-05 -8.3945e-20)
(1.0001 -6.3398e-05 -4.2736e-17)
(1 8.3197e-06 1.0804e-18)
(0.99982 0.00018211 -1.6116e-17)
(0.9986 0.00059585 5.2234e-18)
(1.004 0.00090303 -2.1905e-17)
(0.94641 0.0044701 -2.1825e-17)
(1.1265 0.06848 2.0578e-18)
(0.99999 2.0611e-05 -1.0655e-18)
(1 -4.1206e-05 -7.3384e-18)
(1 -7.592e-05 -3.1334e-18)
(1.0001 -0.00011041 1.9212e-17)
(1.0001 -0.00011221 -2.6559e-17)
(1.0001 -7.5176e-05 1.6351e-17)
(1 9.8327e-06 1.8832e-17)
(0.99982 0.00021411 5.6699e-18)
(0.99821 0.00071097 1.1678e-17)
(1.0058 0.0011831 1.1793e-17)
(0.93774 0.004406 9.4037e-18)
(1.1286 0.072028 3.3083e-18)
(0.99999 2.3875e-05 -2.1992e-18)
(1 -4.7798e-05 -1.4436e-18)
(1 -8.7701e-05 -2.6993e-17)
(1.0001 -0.00012782 -9.174e-18)
(1.0001 -0.00012968 7.4337e-18)
(1.0001 -8.7053e-05 2.6796e-17)
(1 1.1294e-05 1.1987e-17)
(0.99984 0.00024572 5.0614e-18)
(0.99777 0.00082308 -7.6331e-18)
(1.0079 0.0015155 1.6518e-17)
(0.93015 0.0041598 7.5953e-18)
(1.1261 0.074124 -1.0527e-17)
(0.99999 2.7152e-05 -6.8269e-18)
(1 -5.4445e-05 6.2064e-18)
(1 -9.9522e-05 4.5386e-17)
(1.0001 -0.00014533 -1.1004e-17)
(1.0001 -0.00014722 2.7838e-17)
(1.0001 -9.9042e-05 -5.2906e-17)
(1 1.2683e-05 -3.9929e-17)
(0.99986 0.00027706 9.8346e-18)
(0.99727 0.00093004 -5.7332e-18)
(1.0102 0.0019028 -9.1102e-18)
(0.92378 0.0037654 -1.4033e-17)
(1.12 0.075072 1.3778e-17)
(0.99999 3.0447e-05 4.4977e-18)
(1 -6.1153e-05 2.3361e-18)
(1 -0.00011138 -3.8444e-17)
(1.0001 -0.00016295 1.566e-17)
(1.0001 -0.00016484 -1.214e-17)
(1.0001 -0.00011116 2.2564e-17)
(1 1.3977e-05 1.419e-17)
(0.9999 0.00030828 2.4857e-18)
(0.99671 0.0010297 5.4114e-19)
(1.0125 0.0023455 1.4435e-18)
(0.91872 0.0032552 4.4649e-18)
(1.1113 0.075127 -7.1905e-19)
(0.99999 3.3763e-05 -2.4694e-18)
(1 -6.7929e-05 -7.6615e-18)
(1 -0.00012328 9.4238e-18)
(1.0001 -0.0001807 -2.7631e-18)
(1.0001 -0.00018254 1.8739e-18)
(1.0001 -0.00012341 -2.4728e-17)
(1.0001 1.5151e-05 -3.2682e-17)
(0.99996 0.00033958 -3.1575e-17)
(0.9961 0.0011201 1.6026e-17)
(1.0148 0.0028424 1.8751e-18)
(0.91501 0.002659 -1.1325e-17)
(1.1006 0.074496 -5.9432e-18)
(0.99998 3.7105e-05 3.4085e-18)
(1 -7.4777e-05 2.8939e-18)
(1 -0.00013521 4.5416e-18)
(1.0001 -0.00019858 -2.202e-18)
(1.0001 -0.00020032 -5.6172e-18)
(1.0001 -0.00013582 9.3527e-18)
(1.0001 1.6174e-05 1.8919e-17)
(1 0.00037118 1.9506e-17)
(0.99544 0.0011991 1.0298e-17)
(1.0172 0.0033908 -2.3677e-17)
(0.91262 0.0020045 1.1891e-19)
(1.0888 0.073348 -6.8877e-18)
(0.99998 4.0475e-05 -3.4079e-18)
(1 -8.1705e-05 5.6908e-18)
(1 -0.00014718 8.2342e-18)
(1.0001 -0.0002166 5.7498e-18)
(1.0002 -0.00021819 -5.2101e-18)
(1.0002 -0.00014841 4.5978e-18)
(1.0001 1.7013e-05 4.3141e-18)
(1.0001 0.00040335 -1.7419e-18)
(0.99474 0.0012649 -1.6643e-17)
(1.0194 0.0039869 2.1957e-17)
(0.9115 0.0013165 1.0599e-19)
(1.0765 0.071822 1.4715e-18)
(0.99998 4.3878e-05 5.1823e-18)
(0.99999 -8.8716e-05 -4.4422e-18)
(1 -0.00015919 7.2083e-19)
(1.0001 -0.00023476 -4.7965e-18)
(1.0002 -0.00023615 1.1832e-17)
(1.0002 -0.00016119 5.6097e-18)
(1.0001 1.7629e-05 1.7359e-17)
(1.0002 0.00043639 -6.4686e-18)
(0.99401 0.0013159 -2.0332e-19)
(1.0216 0.0046261 5.3932e-18)
(0.91157 0.00061706 1.7189e-17)
(1.0641 0.07003 9.3847e-19)
(0.99997 4.7315e-05 1.2499e-18)
(0.99999 -9.5817e-05 9.8588e-18)
(1 -0.00017122 1.3769e-17)
(1.0001 -0.00025309 -4.7822e-18)
(1.0002 -0.00025421 8.5678e-18)
(1.0002 -0.00017419 -2.6188e-18)
(1.0001 1.7979e-05 -3.0404e-17)
(1.0004 0.00047061 2.0474e-17)
(0.99324 0.0013506 -1.8771e-17)
(1.0236 0.0053031 -3.1106e-17)
(0.9127 -7.4377e-05 -3.7738e-18)
(1.052 0.068065 8.7016e-19)
(0.99997 5.079e-05 -3.1887e-18)
(0.99999 -0.00010301 -1.0485e-17)
(1 -0.00018329 -3.3049e-17)
(1.0001 -0.00027158 8.0571e-18)
(1.0002 -0.00027236 -1.3002e-17)
(1.0002 -0.00018741 8.396e-18)
(1.0001 1.8012e-05 -2.845e-18)
(1.0005 0.00050634 -1.2325e-17)
(0.99246 0.0013675 4.1208e-18)
(1.0253 0.0060122 1.8576e-17)
(0.91477 -0.00074133 -7.9186e-18)
(1.0406 0.065999 1.2128e-17)
(0.99997 5.4305e-05 3.355e-19)
(0.99999 -0.0001103 7.8416e-18)
(1 -0.0001954 2.2817e-17)
(1.0001 -0.00029024 -1.8145e-18)
(1.0002 -0.0002906 -1.2917e-17)
(1.0002 -0.00020088 -1.5646e-17)
(1.0001 1.7675e-05 1.0866e-17)
(1.0007 0.00054391 7.0678e-18)
(0.99167 0.0013658 2.3824e-17)
(1.0269 0.0067475 -2.6011e-18)
(0.91765 -0.0013701 1.9674e-18)
(1.0299 0.063889 -4.8381e-18)
(0.99996 5.7861e-05 -1.8823e-18)
(0.99998 -0.0001177 -9.5015e-18)
(1 -0.00020754 -1.0296e-17)
(1.0001 -0.00030909 6.0637e-18)
(1.0002 -0.00030895 -7.2544e-18)
(1.0002 -0.00021463 -1.2549e-17)
(1.0001 1.691e-05 1.0564e-17)
(1.0009 0.00058367 -4.7951e-18)
(0.99089 0.0013445 -2.9486e-17)
(1.0282 0.0075028 -1.4578e-17)
(0.92119 -0.0019496 8.5376e-18)
(1.0203 0.061782 -5.2521e-18)
(0.99996 6.146e-05 -2.6953e-18)
(0.99998 -0.0001252 -3.5911e-18)
(1 -0.00021971 -7.6299e-19)
(1.0001 -0.00032814 -2.6553e-17)
(1.0002 -0.0003274 6.0868e-18)
(1.0003 -0.00022866 5.4649e-18)
(1.0001 1.5655e-05 -2.0074e-17)
(1.0011 0.00062591 -1.6369e-17)
(0.99011 0.0013031 4.3118e-18)
(1.0293 0.0082722 -1.0962e-18)
(0.92526 -0.0024713 -9.859e-18)
(1.0116 0.059711 9.9307e-19)
(0.99995 6.5105e-05 3.5058e-18)
(0.99998 -0.00013281 1.6463e-17)
(1 -0.00023193 1.9647e-17)
(1.0001 -0.00034738 2.5008e-18)
(1.0002 -0.00034596 1.6826e-17)
(1.0003 -0.00024301 9.5763e-18)
(1.0001 1.3845e-05 2.8973e-18)
(1.0013 0.00067095 1.7916e-17)
(0.98935 0.0012414 2.143e-17)
(1.0301 0.0090497 1.7408e-17)
(0.92972 -0.0029293 7.3566e-18)
(1.0041 0.057701 1.1793e-18)
(0.99995 6.8796e-05 -1.671e-18)
(0.99997 -0.00014054 -3.95e-18)
(1 -0.00024418 -2.0932e-17)
(1.0001 -0.00036684 -2.3674e-18)
(1.0003 -0.00036463 -1.2753e-17)
(1.0003 -0.00025769 -5.181e-18)
(1.0001 1.1415e-05 -1.8598e-18)
(1.0015 0.00071905 -1.6199e-17)
(0.98863 0.0011594 -2.0493e-17)
(1.0307 0.0098294 8.9231e-18)
(0.93446 -0.0033194 5.0404e-19)
(0.99763 0.055773 6.7742e-19)
(0.99994 7.2534e-05 4.4292e-18)
(0.99997 -0.00014839 -5.1605e-18)
(1 -0.00025646 -1.9632e-17)
(1.0002 -0.00038652 4.5012e-17)
(1.0003 -0.00038341 1.8499e-17)
(1.0003 -0.00027272 -1.2678e-17)
(1.0001 8.2995e-06 2.5001e-17)
(1.0017 0.00077044 2.1892e-17)
(0.98794 0.0010576 3.3256e-17)
(1.031 0.010606 -3.2706e-17)
(0.93935 -0.0036398 -1.351e-17)
(0.99221 0.053937 1.7895e-19)
(0.99993 7.6322e-05 -3.242e-18)
(0.99997 -0.00015636 -1.0355e-18)
(1 -0.00026879 3.3516e-17)
(1.0002 -0.00040644 -3.4026e-17)
(1.0003 -0.0004023 -1.7808e-18)
(1.0003 -0.00028813 4.2005e-17)
(1.0001 4.4342e-06 7.7483e-18)
(1.002 0.00082528 -3.3819e-18)
(0.98729 0.00093646 -2.0626e-17)
(1.031 0.011374 3.8543e-17)
(0.94431 -0.0038901 -5.7218e-18)
(0.98777 0.052201 -2.8406e-19)
(0.99993 8.016e-05 -1.6527e-18)
(0.99996 -0.00016445 -2.0634e-18)
(1 -0.00028115 1.7452e-18)
(1.0002 -0.00042659 3.5398e-17)
(1.0003 -0.0004213 -1.004e-17)
(1.0004 -0.00030393 -3.1047e-17)
(1.0001 -2.4165e-07 -1.9755e-17)
(1.0023 0.00088372 -3.6412e-18)
(0.9867 0.00079704 6.5231e-18)
(1.0309 0.012128 -3.2516e-17)
(0.94924 -0.0040714 9.5843e-18)
(0.98423 0.050569 3.0812e-18)
(0.99992 8.405e-05 2.7312e-18)
(0.99996 -0.00017267 1.4362e-17)
(1 -0.00029356 -1.2872e-17)
(1.0002 -0.000447 -3.7065e-18)
(1.0003 -0.00044042 -1.9268e-17)
(1.0004 -0.00032016 3.3776e-17)
(1 -5.7844e-06 -1.7342e-17)
(1.0025 0.0009458 1.5092e-17)
(0.98616 0.00064051 -2.0103e-18)
(1.0305 0.012863 3.0486e-17)
(0.95407 -0.0041861 -9.3511e-18)
(0.98152 0.049041 -5.1416e-18)
(0.99992 8.7992e-05 -5.2383e-19)
(0.99995 -0.00018103 -8.2597e-18)
(1 -0.00030601 -1.8023e-17)
(1.0002 -0.00046768 -1.0156e-17)
(1.0003 -0.00045966 1.8689e-17)
(1.0004 -0.00033685 -4.307e-17)
(1 -1.2244e-05 -2.6762e-18)
(1.0028 0.0010115 -2.039e-17)
(0.98569 0.00046835 3.2485e-18)
(1.03 0.013576 -8.7931e-18)
(0.95873 -0.0042376 9.9536e-18)
(0.97952 0.047615 2.1817e-18)
(0.99991 9.1988e-05 2.7441e-18)
(0.99995 -0.00018953 -8.8475e-18)
(1 -0.00031851 -1.7805e-18)
(1.0002 -0.00048863 2.4676e-18)
(1.0003 -0.00047901 5.9151e-18)
(1.0005 -0.000354 1.2445e-17)
(1 -1.9663e-05 4.3874e-17)
(1.0031 0.0010808 2.4366e-18)
(0.98527 0.00028221 5.2944e-18)
(1.0293 0.014262 9.6919e-18)
(0.96319 -0.0042301 -8.5116e-18)
(0.97817 0.046288 1.6767e-18)
(0.9999 9.6038e-05 -1.5735e-18)
(0.99994 -0.00019817 8.8393e-18)
(1 -0.00033105 2.5619e-17)
(1.0002 -0.00050986 -2.4863e-17)
(1.0003 -0.00049849 -9.2009e-18)
(1.0005 -0.00037167 -2.1896e-18)
(0.99998 -2.8076e-05 -1.4462e-17)
(1.0034 0.0011536 1.8902e-18)
(0.98493 8.3927e-05 -9.1724e-18)
(1.0285 0.014917 -3.562e-18)
(0.9674 -0.0041682 -2.4027e-19)
(0.97736 0.045053 -2.0485e-18)
(0.99989 0.00010014 -1.6912e-18)
(0.99994 -0.00020695 5.2908e-18)
(1 -0.00034364 -6.1965e-19)
(1.0002 -0.0005314 8.2446e-18)
(1.0004 -0.00051808 -1.6977e-17)
(1.0005 -0.00038987 2.4776e-17)
(0.99995 -3.7505e-05 7.2133e-18)
(1.0037 0.0012296 -1.8032e-17)
(0.98464 -0.00012452 -1.1765e-17)
(1.0275 0.015538 -1.4103e-17)
(0.97133 -0.0040572 1.3493e-18)
(0.97701 0.043906 -3.756e-18)
(0.99989 0.00010431 5.8769e-19)
(0.99993 -0.00021589 -1.2635e-17)
(1 -0.00035628 1.5864e-17)
(1.0002 -0.00055324 2.2803e-17)
(1.0004 -0.0005378 3.3275e-17)
(1.0005 -0.00040863 -1.8196e-17)
(0.99992 -4.7964e-05 -1.7934e-17)
(1.004 0.0013087 3.6597e-18)
(0.98443 -0.00034108 1.1023e-17)
(1.0265 0.016123 1.104e-17)
(0.97498 -0.0039026 6.2795e-18)
(0.97703 0.04284 3.7332e-18)
(0.99988 0.00010853 1.1262e-18)
(0.99992 -0.00022498 1.0048e-17)
(1 -0.00036896 -3.6447e-17)
(1.0002 -0.00057541 -3.304e-18)
(1.0004 -0.00055763 -2.7642e-17)
(1.0006 -0.00042801 -1.1461e-17)
(0.99988 -5.9456e-05 2.5184e-20)
(1.0043 0.0013904 -4.1852e-18)
(0.98427 -0.00056368 -2.1726e-17)
(1.0254 0.016668 -1.7626e-17)
(0.97834 -0.0037099 -8.5757e-18)
(0.97737 0.041848 -1.8412e-18)
(0.99987 0.00011281 -7.2997e-19)
(0.99992 -0.00023423 -6.5344e-18)
(1 -0.0003817 2.8677e-17)
(1.0002 -0.00059792 -3.1525e-17)
(1.0004 -0.00057758 -2.0789e-18)
(1.0006 -0.00044802 2.4406e-17)
(0.99985 -7.1973e-05 7.1756e-19)
(1.0046 0.0014744 3.9916e-18)
(0.98418 -0.00079022 1.9018e-17)
(1.0243 0.017173 2.2912e-17)
(0.9814 -0.0034848 4.9063e-18)
(0.97795 0.040923 -1.0292e-18)
(0.99986 0.00011714 -1.9003e-18)
(0.99991 -0.00024364 -2.4097e-18)
(1 -0.0003945 -1.2713e-17)
(1.0002 -0.00062077 1.5705e-17)
(1.0004 -0.00059764 3.0379e-17)
(1.0006 -0.00046872 -1.0786e-17)
(0.99981 -8.5495e-05 2.2337e-17)
(1.0049 0.0015604 2.9919e-18)
(0.98414 -0.0010187 -2.1554e-18)
(1.0231 0.017636 1.0365e-17)
(0.98417 -0.0032327 -5.4823e-18)
(0.97871 0.040059 -7.18e-19)
(0.99985 0.00012154 4.7526e-19)
(0.9999 -0.00025322 -6.3725e-18)
(1 -0.00040735 4.7588e-18)
(1.0002 -0.00064399 -1.6005e-17)
(1.0004 -0.00061782 -3.2133e-17)
(1.0007 -0.00049015 6.7972e-18)
(0.99976 -9.9997e-05 -3.2224e-17)
(1.0052 0.0016478 -6.8392e-18)
(0.98416 -0.0012472 6.991e-18)
(1.022 0.018056 -3.2532e-17)
(0.98667 -0.0029589 3.7539e-18)
(0.97961 0.039248 2.0239e-18)
(0.99984 0.000126 8.3458e-19)
(0.99989 -0.00026297 1.7265e-17)
(1 -0.00042025 7.968e-18)
(1.0002 -0.00066759 6.5197e-18)
(1.0004 -0.00063811 2.5694e-17)
(1.0007 -0.00051234 2.0266e-18)
(0.99972 -0.00011544 2.2251e-17)
(1.0055 0.0017364 4.9059e-18)
(0.98422 -0.0014739 -2.1252e-17)
(1.0208 0.018433 1.12e-17)
(0.9889 -0.0026684 2.5385e-18)
(0.98061 0.038486 2.1002e-18)
(0.99983 0.00013052 -2.9141e-18)
(0.99989 -0.00027289 -5.6831e-18)
(1 -0.00043322 -7.0006e-18)
(1.0002 -0.00069157 1.0707e-17)
(1.0004 -0.0006585 1.2413e-17)
(1.0008 -0.00053536 -4.0359e-18)
(0.99967 -0.00013179 -1.8691e-17)
(1.0058 0.0018255 2.2335e-17)
(0.98434 -0.0016972 3.9337e-18)
(1.0197 0.018766 -3.3834e-18)
(0.99089 -0.0023658 1.0501e-17)
(0.98167 0.037766 -1.4604e-18)
(0.99982 0.00013511 5.9879e-18)
(0.99988 -0.000283 6.8057e-18)
(1 -0.00044625 -7.4416e-18)
(1.0002 -0.00071597 -6.6694e-18)
(1.0004 -0.000679 -1.7812e-17)
(1.0008 -0.00055924 -6.9316e-18)
(0.99962 -0.00014899 9.2156e-18)
(1.006 0.0019147 -3.5824e-17)
(0.98449 -0.0019157 9.6346e-18)
(1.0186 0.019057 -3.9994e-18)
(0.99266 -0.0020554 -1.1119e-17)
(0.98277 0.037084 4.2437e-18)
(0.99981 0.00013975 -2.6428e-18)
(0.99987 -0.00029329 -1.1957e-17)
(1 -0.00045934 -7.2121e-18)
(1.0002 -0.00074079 -1.2656e-17)
(1.0005 -0.00069959 -5.4382e-18)
(1.0008 -0.00058405 2.0381e-17)
(0.99956 -0.000167 -9.053e-18)
(1.0063 0.0020037 3.9852e-17)
(0.98468 -0.0021281 9.087e-18)
(1.0176 0.019305 1.2136e-17)
(0.99423 -0.0017411 4.6871e-18)
(0.98388 0.036434 -6.884e-18)
(0.9998 0.00014446 -1.4018e-18)
(0.99986 -0.00030377 8.8925e-18)
(1 -0.00047249 1.4289e-17)
(1.0002 -0.00076604 3.4123e-17)
(1.0005 -0.00072028 7.2086e-18)
(1.0009 -0.00060983 -1.398e-17)
(0.99951 -0.00018577 4.3687e-18)
(1.0066 0.0020918 -4.2873e-17)
(0.9849 -0.0023335 -1.1023e-17)
(1.0166 0.019514 -6.7479e-18)
(0.99562 -0.0014262 4.599e-18)
(0.98498 0.035812 6.9256e-18)
(0.99979 0.00014924 1.0728e-18)
(0.99985 -0.00031445 2.105e-18)
(0.99999 -0.00048571 -1.4033e-17)
(1.0002 -0.00079175 -5.6838e-18)
(1.0005 -0.00074104 9.1528e-18)
(1.0009 -0.00063663 1.6732e-17)
(0.99945 -0.00020527 1.5192e-17)
(1.0068 0.0021788 4.2438e-18)
(0.98515 -0.0025311 1.2333e-17)
(1.0158 0.019682 -3.1267e-18)
(0.99684 -0.0011138 -8.2096e-18)
(0.98607 0.035215 -1.7855e-18)
(0.99977 0.00015408 -4.3934e-20)
(0.99984 -0.00032532 2.3991e-18)
(0.99999 -0.00049901 3.1363e-18)
(1.0002 -0.00081793 -7.3786e-18)
(1.0005 -0.00076189 8.5117e-20)
(1.001 -0.00066451 -1.5171e-17)
(0.99939 -0.00022546 -1.0276e-17)
(1.0071 0.0022643 3.1396e-17)
(0.98542 -0.0027203 -1.864e-17)
(1.0149 0.019814 1.2141e-17)
(0.99793 -0.00080646 4.3362e-18)
(0.98714 0.03464 -5.0493e-18)
(0.99976 0.00015898 -3.3227e-18)
(0.99983 -0.0003364 -1.1252e-17)
(0.99998 -0.00051237 8.007e-18)
(1.0002 -0.00084461 -2.0151e-17)
(1.0005 -0.00078281 -2.3146e-17)
(1.0011 -0.00069352 -2.0957e-17)
(0.99932 -0.00024631 -2.0943e-17)
(1.0073 0.0023478 -3.2151e-18)
(0.98571 -0.0029008 1.6291e-17)
(1.0142 0.019909 -1.0415e-17)
(0.99889 -0.00050622 4.313e-19)
(0.98817 0.034084 4.7575e-18)
(0.99975 0.00016395 6.4132e-18)
(0.99982 -0.00034769 1.1759e-17)
(0.99998 -0.00052581 -1.2913e-17)
(1.0002 -0.00087179 1.6545e-17)
(1.0005 -0.0008038 -2.7142e-18)
(1.0011 -0.00072371 1.3736e-17)
(0.99926 -0.00026782 2.5174e-17)
(1.0075 0.0024291 -2.4354e-17)
(0.98603 -0.0030723 -8.2614e-18)
(1.0135 0.019972 1.0998e-17)
(0.99975 -0.00021486 3.7486e-18)
(0.98917 0.033543 -2.2516e-18)
(0.99974 0.00016898 -4.8121e-18)
(0.99981 -0.00035919 -3.4752e-18)
(0.99997 -0.00053932 -2.6998e-18)
(1.0003 -0.00089949 1.893e-17)
(1.0005 -0.00082484 -5.8105e-18)
(1.0012 -0.00075513 -1.7407e-19)
(0.99919 -0.00029 -4.9259e-18)
(1.0078 0.0025079 1.9508e-17)
(0.98635 -0.003235 -7.8447e-18)
(1.0128 0.020002 -7.5518e-18)
(1.0005 6.6259e-05 -1.1082e-17)
(0.99013 0.033017 2.6189e-18)
(0.99972 0.00017409 3.271e-18)
(0.9998 -0.00037091 -4.4064e-18)
(0.99996 -0.00055291 6.1808e-18)
(1.0003 -0.00092774 -2.8723e-17)
(1.0005 -0.00084594 3.9366e-17)
(1.0012 -0.00078781 5.691e-18)
(0.99912 -0.00031288 1.9436e-17)
(1.008 0.0025839 -1.2071e-17)
(0.98669 -0.0033889 1.0333e-19)
(1.0123 0.020004 5.6159e-18)
(1.0012 0.00033611 -2.157e-18)
(0.99105 0.032504 -9.852e-19)
(0.99971 0.00017925 -9.3575e-19)
(0.99979 -0.00038285 8.613e-19)
(0.99995 -0.00056658 1.5059e-17)
(1.0003 -0.00095655 7.8303e-18)
(1.0005 -0.00086709 -1.968e-17)
(1.0013 -0.0008218 -1.1147e-17)
(0.99905 -0.00033649 3.3935e-18)
(1.0082 0.002657 -5.8686e-18)
(0.98703 -0.0035344 1.3125e-17)
(1.0118 0.019979 -3.6866e-18)
(1.0018 0.00059397 1.0377e-17)
(0.99194 0.032001 -3.5994e-18)
(0.99969 0.00018448 -1.6287e-18)
(0.99978 -0.00039501 -8.3026e-18)
(0.99995 -0.00058034 -4.4776e-18)
(1.0003 -0.00098595 3.1444e-17)
(1.0005 -0.00088828 -1.7533e-17)
(1.0014 -0.00085712 -9.4417e-19)
(0.99898 -0.00036092 -5.075e-17)
(1.0084 0.002727 5.7686e-18)
(0.98739 -0.0036718 -2.4545e-17)
(1.0114 0.01993 -7.9612e-18)
(1.0024 0.00083936 -1.0379e-17)
(0.99279 0.031509 2.1374e-18)
(0.99968 0.00018978 -7.0313e-19)
(0.99976 -0.00040741 5.1438e-18)
(0.99994 -0.00059418 -1.8483e-18)
(1.0003 -0.0010159 -1.8308e-17)
(1.0005 -0.00090952 2.5196e-17)
(1.0014 -0.0008938 -2.3209e-18)
(0.99891 -0.00038626 2.6882e-17)
(1.0086 0.0027937 -3.5462e-18)
(0.98775 -0.0038016 1.1917e-17)
(1.011 0.019858 9.9571e-18)
(1.003 0.0010721 8.5622e-18)
(0.9936 0.031025 -5.1753e-19)
(0.99966 0.00019514 3.9858e-18)
(0.99975 -0.00042005 -3.0776e-18)
(0.99993 -0.00060812 -6.4659e-18)
(1.0003 -0.0010466 1.9982e-17)
(1.0005 -0.0009308 1.8489e-18)
(1.0015 -0.00093184 2.8774e-17)
(0.99883 -0.00041263 4.6373e-18)
(1.0088 0.002857 1.6943e-17)
(0.98811 -0.0039243 4.471e-18)
(1.0107 0.019766 -3.2216e-18)
(1.0035 0.001292 1.1145e-18)
(0.99438 0.030549 4.6815e-19)
(0.99965 0.00020057 1.1365e-18)
(0.99974 -0.00043293 1.2583e-18)
(0.99992 -0.00062215 -5.863e-18)
(1.0003 -0.0010778 -3.9793e-17)
(1.0005 -0.00095214 5.5993e-18)
(1.0016 -0.00097126 2.4956e-18)
(0.99876 -0.00044017 -2.0108e-17)
(1.009 0.0029168 2.3838e-19)
(0.98848 -0.0040406 1.3174e-17)
(1.0104 0.019655 -2.0712e-18)
(1.0039 0.0014993 -5.4255e-18)
(0.99513 0.030081 2.7623e-18)
(0.99963 0.00020605 -4.8667e-18)
(0.99973 -0.00044605 5.3333e-18)
(0.99991 -0.00063627 9.666e-19)
(1.0003 -0.0011098 2.2097e-17)
(1.0005 -0.00097353 -2.5543e-17)
(1.0017 -0.001012 -1.1022e-17)
(0.99868 -0.00046906 2.0566e-17)
(1.0092 0.002973 -1.1476e-17)
(0.98885 -0.0041509 -2.0826e-17)
(1.0101 0.019528 -1.0235e-17)
(1.0044 0.0016941 6.9108e-18)
(0.99585 0.02962 9.22e-19)
(0.99962 0.0002116 -5.1496e-19)
(0.99971 -0.00045942 -5.3668e-18)
(0.9999 -0.0006505 1.0294e-17)
(1.0003 -0.0011424 9.7976e-18)
(1.0005 -0.00099499 3.1547e-17)
(1.0017 -0.0010542 4.2344e-18)
(0.99861 -0.00049949 1.8267e-17)
(1.0094 0.0030255 2.9095e-17)
(0.98923 -0.0042558 -9.1967e-19)
(1.0099 0.019387 1.8003e-17)
(1.0048 0.0018769 -7.3104e-19)
(0.99655 0.029166 -2.6887e-18)
(0.9996 0.00021722 4.9913e-18)
(0.9997 -0.00047305 -7.8134e-18)
(0.99989 -0.00066483 -1.5624e-17)
(1.0003 -0.0011757 -2.6041e-18)
(1.0005 -0.0010165 -3.424e-17)
(1.0018 -0.0010977 -1.2599e-17)
(0.99854 -0.00053167 -6.3405e-18)
(1.0095 0.0030742 2.1755e-19)
(0.9896 -0.0043559 2.7101e-17)
(1.0098 0.019233 4.1487e-18)
(1.0053 0.0020479 -9.4878e-18)
(0.99722 0.028717 1.6138e-18)
(0.99958 0.00022289 -5.5958e-18)
(0.99968 -0.00048694 9.7604e-18)
(0.99988 -0.00067928 8.1783e-18)
(1.0003 -0.0012097 -5.1892e-18)
(1.0005 -0.0010382 2.7535e-17)
(1.0019 -0.0011424 1.5073e-17)
(0.99847 -0.00056584 -5.0121e-18)
(1.0097 0.0031192 -2.932e-17)
(0.98998 -0.0044516 -9.2156e-19)
(1.0097 0.019067 -1.1855e-17)
(1.0057 0.0022076 1.1233e-17)
(0.99787 0.028275 -2.1135e-18)
(0.99956 0.00022861 3.3624e-18)
(0.99967 -0.00050109 -1.8677e-18)
(0.99986 -0.00069384 1.0829e-17)
(1.0003 -0.0012445 -2.1832e-17)
(1.0005 -0.00106 8.9905e-18)
(1.002 -0.0011884 -5.4148e-18)
(0.99839 -0.00060224 -1.0799e-17)
(1.0099 0.0031603 -2.3535e-18)
(0.99036 -0.0045435 -3.2703e-17)
(1.0095 0.018891 7.8217e-18)
(1.0061 0.0023565 -1.0288e-17)
(0.99849 0.027839 7.0548e-19)
(0.99954 0.0002344 2.6584e-19)
(0.99965 -0.00051551 -5.8753e-18)
(0.99985 -0.00070853 6.1491e-18)
(1.0003 -0.00128 2.8735e-17)
(1.0005 -0.0010819 -2.1414e-17)
(1.0021 -0.0012356 1.7418e-17)
(0.99833 -0.00064114 -6.2444e-18)
(1.01 0.0031974 5.4501e-18)
(0.99074 -0.004632 3.8853e-17)
(1.0095 0.018707 -1.452e-17)
(1.0065 0.0024951 1.5727e-17)
(0.9991 0.027408 1.9965e-18)
(0.99952 0.00024024 4.7714e-19)
(0.99964 -0.00053021 -1.2159e-18)
(0.99984 -0.00072334 -8.8465e-18)
(1.0003 -0.0013163 -4.3258e-18)
(1.0005 -0.0011041 1.8662e-17)
(1.0022 -0.001284 1.3865e-19)
(0.99826 -0.0006828 -1.2274e-17)
(1.0102 0.0032306 -1.3011e-17)
(0.99112 -0.0047174 -1.6263e-17)
(1.0094 0.018515 -1.3711e-18)
(1.0068 0.0026238 2.8819e-18)
(0.99969 0.026983 2.0986e-19)
(0.99951 0.00024612 -7.6783e-19)
(0.99962 -0.00054517 1.447e-17)
(0.99983 -0.0007383 -5.9003e-18)
(1.0003 -0.0013533 -2.4446e-17)
(1.0005 -0.0011265 8.6033e-18)
(1.0023 -0.0013334 -4.4379e-17)
(0.9982 -0.0007275 6.1227e-18)
(1.0103 0.0032596 8.1924e-18)
(0.9915 -0.0048001 7.5549e-19)
(1.0094 0.018316 1.4748e-17)
(1.0072 0.002743 -9.6029e-19)
(1.0003 0.026563 -5.5803e-18)
(0.99948 0.00025206 -2.0272e-19)
(0.9996 -0.00056042 -2.8398e-19)
(0.99981 -0.0007534 7.9428e-18)
(1.0003 -0.0013912 1.5093e-17)
(1.0005 -0.0011493 -3.4185e-17)
(1.0024 -0.0013838 1.917e-18)
(0.99814 -0.00077549 1.0966e-17)
(1.0104 0.0032845 1.2831e-17)
(0.99188 -0.0048804 -1.0284e-17)
(1.0093 0.018112 -1.436e-17)
(1.0076 0.0028532 -1.5607e-17)
(1.0008 0.026149 5.8943e-18)
(0.99946 0.00025804 -1.3264e-18)
(0.99959 -0.00057595 4.0437e-19)
(0.9998 -0.00076867 -3.8297e-18)
(1.0003 -0.0014299 -1.0077e-17)
(1.0004 -0.0011724 1.895e-17)
(1.0025 -0.0014352 2.3821e-17)
(0.99808 -0.00082706 3.1982e-18)
(1.0105 0.0033053 6.5016e-18)
(0.99226 -0.0049584 1.6402e-17)
(1.0093 0.017903 2.4167e-18)
(1.0079 0.0029548 1.1542e-17)
(1.0014 0.025739 -3.5781e-18)
(0.99944 0.00026407 2.4414e-18)
(0.99957 -0.00059177 7.4552e-19)
(0.99978 -0.0007841 -5.4729e-18)
(1.0003 -0.0014694 1.4887e-18)
(1.0004 -0.001196 -1.0274e-17)
(1.0026 -0.0014873 -5.7139e-18)
(0.99803 -0.00088245 -1.1822e-18)
(1.0107 0.0033217 -2.9358e-17)
(0.99263 -0.0050344 3.2192e-18)
(1.0093 0.01769 -4.9008e-18)
(1.0083 0.0030483 -4.6941e-18)
(1.0019 0.025335 -4.3144e-18)
(0.99942 0.00027013 -4.9824e-18)
(0.99955 -0.00060788 9.7402e-19)
(0.99976 -0.00079971 2.903e-18)
(1.0003 -0.0015098 -1.8706e-17)
(1.0004 -0.0012201 -1.1712e-17)
(1.0027 -0.0015403 -2.6527e-17)
(0.99798 -0.00094191 5.7045e-18)
(1.0108 0.0033338 1.1988e-17)
(0.99301 -0.0051086 -3.4523e-17)
(1.0093 0.017473 2.2597e-17)
(1.0086 0.0031338 -5.078e-18)
(1.0024 0.024936 2.782e-18)
(0.9994 0.00027622 4.5736e-18)
(0.99953 -0.00062429 2.1797e-18)
(0.99975 -0.00081552 1.1163e-18)
(1.0003 -0.001551 5.9327e-18)
(1.0004 -0.0012449 -2.5868e-18)
(1.0028 -0.001594 5.1414e-17)
(0.99794 -0.0010056 2.0481e-17)
(1.0109 0.0033416 -1.8645e-17)
(0.99339 -0.005181 3.3227e-17)
(1.0093 0.017253 -8.4311e-18)
(1.009 0.0032119 -3.35e-18)
(1.0029 0.024542 -1.3887e-18)
(0.99938 0.00028235 1.1218e-18)
(0.99951 -0.00064099 -1.3803e-17)
(0.99973 -0.00083154 2.2342e-18)
(1.0003 -0.001593 2.6643e-17)
(1.0004 -0.0012704 2.002e-17)
(1.0029 -0.0016483 -8.2996e-19)
(0.9979 -0.0010738 -2.8374e-17)
(1.011 0.0033449 5.646e-18)
(0.99376 -0.0052518 -7.493e-18)
(1.0093 0.01703 -1.167e-17)
(1.0093 0.0032827 8.5218e-18)
(1.0034 0.024153 1.2941e-18)
(0.99935 0.0002885 -4.437e-18)
(0.99949 -0.00065799 -4.6015e-18)
(0.99971 -0.00084779 -1.2103e-17)
(1.0004 -0.001636 -2.2344e-17)
(1.0004 -0.0012967 -2.0144e-17)
(1.003 -0.0017032 -2.3365e-17)
(0.99787 -0.0011467 5.2395e-18)
(1.0111 0.0033438 4.389e-17)
(0.99413 -0.005321 3.2655e-18)
(1.0094 0.016805 -1.0197e-18)
(1.0096 0.0033466 -3.0092e-18)
(1.0039 0.023769 -3.4796e-18)
(0.99933 0.00029466 3.2925e-18)
(0.99947 -0.0006753 4.2745e-18)
(0.99969 -0.00086429 1.8651e-17)
(1.0004 -0.0016797 1.5475e-17)
(1.0003 -0.001324 1.9597e-17)
(1.0031 -0.0017587 -8.6843e-19)
(0.99785 -0.0012243 -2.9193e-17)
(1.0112 0.0033382 -2.3723e-17)
(0.9945 -0.0053886 8.1035e-18)
(1.0094 0.016578 4.0394e-18)
(1.01 0.0034038 6.7869e-18)
(1.0043 0.023389 2.6885e-18)
(0.9993 0.00030084 -2.3252e-18)
(0.99945 -0.00069291 6.7055e-18)
(0.99967 -0.00088107 -1.234e-17)
(1.0004 -0.0017244 2.2398e-18)
(1.0003 -0.0013524 9.1113e-18)
(1.0032 -0.0018147 -2.2841e-18)
(0.99783 -0.0013068 6.5546e-18)
(1.0113 0.0033282 6.5873e-18)
(0.99487 -0.0054547 2.6667e-18)
(1.0094 0.01635 9.987e-18)
(1.0103 0.0034545 -8.1629e-18)
(1.0048 0.023014 5.4291e-19)
(0.99928 0.00030703 3.5106e-18)
(0.99943 -0.00071083 4.1557e-19)
(0.99965 -0.00089813 -5.776e-18)
(1.0004 -0.0017699 8.9148e-19)
(1.0003 -0.001382 -1.4974e-18)
(1.0033 -0.0018712 -2.2563e-17)
(0.99782 -0.0013942 1.8301e-17)
(1.0114 0.0033137 2.3379e-17)
(0.99524 -0.0055192 -1.3278e-17)
(1.0095 0.01612 -1.3898e-17)
(1.0106 0.0034989 -2.3872e-18)
(1.0052 0.022643 4.6264e-18)
(0.99925 0.00031322 -2.5502e-18)
(0.99941 -0.00072907 -3.2007e-19)
(0.99963 -0.00091552 7.1815e-18)
(1.0004 -0.0018163 -1.7125e-17)
(1.0003 -0.001413 -1.3535e-17)
(1.0034 -0.0019281 2.8486e-17)
(0.99781 -0.0014866 -2.7986e-18)
(1.0114 0.0032949 -2.4754e-17)
(0.9956 -0.0055824 3.3824e-18)
(1.0095 0.015888 1.3086e-17)
(1.0109 0.0035372 8.0913e-18)
(1.0057 0.022277 -1.6683e-18)
(0.99922 0.0003194 2.5341e-19)
(0.99939 -0.00074762 2.3443e-18)
(0.99961 -0.00093327 3.9239e-18)
(1.0004 -0.0018635 8.8527e-18)
(1.0002 -0.0014454 2.6528e-17)
(1.0035 -0.0019856 6.6416e-18)
(0.99781 -0.0015839 -2.4368e-17)
(1.0115 0.0032717 2.3195e-18)
(0.99596 -0.005644 8.7127e-18)
(1.0095 0.015656 -1.1791e-17)
(1.0112 0.0035695 -5.4717e-18)
(1.0061 0.021915 -1.9304e-18)
(0.9992 0.00032556 7.1951e-19)
(0.99937 -0.00076648 -4.0779e-19)
(0.99959 -0.00095139 -1.0353e-17)
(1.0004 -0.0019117 -1.9037e-19)
(1.0002 -0.0014795 -5.2449e-17)
(1.0036 -0.0020436 8.1889e-18)
(0.99781 -0.0016862 2.3937e-17)
(1.0116 0.0032443 -6.6644e-18)
(0.99632 -0.0057042 -9.124e-18)
(1.0096 0.015422 1.9581e-17)
(1.0115 0.0035961 6.5489e-18)
(1.0065 0.021557 5.004e-18)
(0.99917 0.00033171 7.7288e-19)
(0.99934 -0.00078567 -8.462e-19)
(0.99956 -0.00096994 1.8724e-17)
(1.0004 -0.0019607 4.0831e-18)
(1.0002 -0.0015154 4.6478e-17)
(1.0037 -0.0021021 -2.886e-17)
(0.99782 -0.0017932 -8.0158e-18)
(1.0116 0.0032127 6.2724e-18)
(0.99667 -0.005763 3.1436e-18)
(1.0096 0.015188 -1.1018e-17)
(1.0118 0.0036169 -1.0596e-18)
(1.0069 0.021203 -3.69e-18)
(0.99914 0.00033782 -3.0205e-18)
(0.99932 -0.00080519 1.4207e-18)
(0.99954 -0.00098894 -1.1005e-17)
(1.0004 -0.0020106 5.3689e-18)
(1.0002 -0.0015532 -1.766e-17)
(1.0038 -0.0021613 3.9138e-18)
(0.99784 -0.001905 3.2095e-17)
(1.0117 0.0031771 -2.3476e-17)
(0.99702 -0.0058204 -1.1555e-17)
(1.0097 0.014953 -1.09e-17)
(1.0121 0.0036322 -5.2091e-18)
(1.0073 0.020854 -1.0135e-18)
(0.99911 0.00034389 3.7624e-18)
(0.99929 -0.00082503 -3.3741e-18)
(0.99951 -0.0010084 -1.068e-17)
(1.0004 -0.0020614 -8.5614e-18)
(1.0001 -0.001593 -2.8872e-17)
(1.0039 -0.002221 -1.8153e-17)
(0.99786 -0.0020212 -1.9679e-17)
(1.0118 0.0031374 2.1828e-17)
(0.99737 -0.0058764 1.1201e-17)
(1.0097 0.014716 1.6508e-17)
(1.0123 0.0036421 -2.0402e-18)
(1.0077 0.020508 4.8926e-18)
(0.99908 0.00034991 -6.0468e-18)
(0.99927 -0.00084521 5.4669e-18)
(0.99949 -0.0010285 2.6149e-17)
(1.0004 -0.0021131 -2.0193e-18)
(1.0001 -0.0016351 3.1944e-17)
(1.004 -0.0022815 1.3687e-18)
(0.99789 -0.0021419 -1.8848e-17)
(1.0118 0.003094 8.5426e-18)
(0.99771 -0.0059311 -4.0395e-18)
(1.0098 0.014479 -3.4565e-18)
(1.0126 0.0036466 6.6185e-18)
(1.0081 0.020165 -3.3086e-18)
(0.99905 0.00035586 4.9553e-18)
(0.99924 -0.00086573 -7.4297e-18)
(0.99946 -0.0010491 -3.0487e-17)
(1.0004 -0.0021656 1.321e-17)
(1.0001 -0.0016796 -2.2758e-17)
(1.0041 -0.0023427 2.5094e-17)
(0.99793 -0.0022666 6.1434e-18)
(1.0119 0.0030469 -8.1324e-18)
(0.99806 -0.0059845 -1.9387e-18)
(1.0098 0.014242 -8.6583e-18)
(1.0129 0.0036459 -1.0793e-17)
(1.0085 0.019827 4.5745e-18)
(0.99901 0.00036175 -3.6499e-18)
(0.99922 -0.0008866 2.4705e-18)
(0.99943 -0.0010703 1.8524e-17)
(1.0004 -0.0022191 -1.7414e-17)
(1 -0.0017266 3.6617e-17)
(1.0042 -0.0024048 -1.9477e-17)
(0.99796 -0.0023952 3.5813e-18)
(1.0119 0.0029962 -1.2853e-17)
(0.99839 -0.0060367 6.3281e-18)
(1.0099 0.014003 -1.2118e-18)
(1.0131 0.00364 4.6192e-18)
(1.0089 0.019492 -2.0339e-18)
(0.99898 0.00036756 4.4765e-18)
(0.99919 -0.00090781 1.9234e-18)
(0.9994 -0.0010923 -1.235e-17)
(1.0005 -0.0022735 -3.5407e-19)
(1 -0.0017762 -1.617e-18)
(1.0043 -0.0024678 4.7103e-18)
(0.99801 -0.0025275 3.4005e-17)
(1.012 0.002942 8.7916e-18)
(0.99873 -0.0060877 -1.8756e-17)
(1.0099 0.013764 -6.2807e-18)
(1.0134 0.0036291 -4.3476e-18)
(1.0092 0.01916 2.1381e-18)
(0.99895 0.00037328 -5.131e-18)
(0.99916 -0.00092939 -7.1274e-18)
(0.99937 -0.001115 5.1813e-18)
(1.0005 -0.0023288 1.5067e-17)
(0.99999 -0.0018285 -3.3214e-17)