/*--------------------------------*- C++ -*----------------------------------*\
  =========                 |
  \\      /  F ield         | OpenFOAM: The Open Source CFD Toolbox
   \\    /   O peration     | Website:  https://openfoam.org
    \\  /    A nd           | Version:  6.0
     \\/     M anipulation  |
\*---------------------------------------------------------------------------*/
FoamFile
{
    version     2.0;
    format      ascii;
    class       volScalarField;
    location    "11";
    object      p;
}
// * * * * * * * * * * * * * * * * * * * * * * * * * * * * * * * * * * * * * //

dimensions      [0 2 -2 0 0 0 0];

internalField   nonuniform List<scalar> 
62000
(
0.0207499
0.0207445
0.0207372
0.0207282
0.0207167
0.0207031
0.0206864
0.020667
0.0206438
0.0206172
0.0205858
0.0205503
0.0205088
0.0204621
0.020408
0.0203473
0.0202774
0.0201992
0.0201095
0.0200093
0.0198952
0.0197681
0.0196243
0.0194647
0.019286
0.0190885
0.0188695
0.0186293
0.0183658
0.0180795
0.0177691
0.0174359
0.0170804
0.0167061
0.0163149
0.0159088
0.0154893
0.0150588
0.0146204
0.0141766
0.0137287
0.0132766
0.0128186
0.0123531
0.0118817
0.011412
0.0109618
0.0105573
0.0102273
0.00999109
0.00983636
0.00971565
0.00952773
0.00917517
0.00856811
0.00767976
0.00656135
0.00519752
0.00391192
0.00347875
0.020829
0.0208231
0.0208148
0.0208044
0.0207912
0.0207758
0.020757
0.0207353
0.0207097
0.0206807
0.0206469
0.020609
0.0205654
0.0205167
0.0204609
0.0203988
0.0203279
0.0202487
0.0201586
0.0200581
0.0199443
0.0198175
0.0196748
0.0195166
0.01934
0.0191452
0.0189299
0.0186939
0.0184358
0.0181554
0.0178523
0.0175269
0.0171807
0.0168163
0.0164368
0.0160433
0.0156371
0.0152204
0.0147961
0.0143663
0.0139317
0.0134911
0.0130414
0.0125791
0.0121037
0.0116212
0.0111499
0.0107199
0.0103691
0.010131
0.0100089
0.00996784
0.00990283
0.00969871
0.00922754
0.00841467
0.0072787
0.0057452
0.0043429
0.00333165
0.0209443
0.0209381
0.020929
0.0209178
0.0209035
0.0208866
0.0208661
0.0208424
0.0208145
0.0207828
0.0207462
0.0207051
0.0206581
0.0206058
0.0205463
0.0204804
0.0204054
0.0203222
0.020228
0.0201234
0.0200053
0.0198742
0.0197272
0.0195644
0.0193833
0.0191836
0.0189633
0.0187219
0.018458
0.0181711
0.0178606
0.0175266
0.0171701
0.0167943
0.0164011
0.0159915
0.0155656
0.0151247
0.0146705
0.014204
0.0137244
0.0132279
0.0127078
0.0121559
0.0115655
0.0109361
0.01028
0.00962485
0.00901273
0.00849127
0.00808851
0.00780443
0.00756691
0.00728939
0.00685429
0.00617824
0.00526747
0.0040404
0.00299464
0.00225194
0.0210832
0.0210766
0.0210669
0.0210547
0.0210394
0.0210211
0.0209989
0.0209733
0.0209432
0.0209091
0.0208698
0.0208258
0.0207757
0.0207202
0.0206574
0.020588
0.0205097
0.0204231
0.0203256
0.0202177
0.0200966
0.0199627
0.0198132
0.0196483
0.0194656
0.0192648
0.0190442
0.0188031
0.0185405
0.0182557
0.0179483
0.0176183
0.0172674
0.0168981
0.0165136
0.0161144
0.0157007
0.0152735
0.0148348
0.0143859
0.0139255
0.0134486
0.0129457
0.0124039
0.0118095
0.0111525
0.0104338
0.00967029
0.0088977
0.00816568
0.00751666
0.00697825
0.00651247
0.00607049
0.00556279
0.00491545
0.00413483
0.00314398
0.0023284
0.00192413
0.0212544
0.021247
0.021236
0.0212222
0.0212047
0.021184
0.0211592
0.0211307
0.0210975
0.0210601
0.0210174
0.02097
0.0209163
0.0208573
0.0207908
0.020718
0.0206362
0.0205464
0.0204458
0.0203353
0.0202119
0.0200763
0.0199257
0.0197605
0.0195784
0.0193792
0.0191614
0.0189247
0.018668
0.018391
0.0180939
0.0177769
0.0174419
0.0170932
0.0167334
0.0163643
0.0159866
0.0156028
0.0152164
0.0148305
0.0144457
0.0140579
0.0136572
0.0132285
0.0127528
0.0122108
0.0115906
0.0108927
0.0101369
0.00936095
0.00860432
0.00790416
0.00724165
0.00659706
0.00590723
0.00511384
0.00423051
0.00318388
0.00227347
0.00176345
0.0214334
0.0214252
0.0214132
0.0213979
0.0213787
0.0213559
0.0213288
0.0212976
0.0212614
0.0212209
0.0211747
0.0211237
0.0210663
0.0210034
0.0209331
0.0208563
0.0207705
0.0206768
0.0205723
0.0204578
0.0203306
0.0201913
0.0200372
0.0198687
0.0196835
0.0194818
0.0192618
0.0190233
0.0187656
0.0184885
0.0181924
0.0178778
0.0175476
0.0172051
0.0168552
0.0164992
0.0161392
0.0157792
0.0154254
0.0150835
0.0147572
0.0144454
0.0141406
0.0138285
0.0134885
0.0130958
0.0126279
0.0120699
0.0114231
0.0107065
0.00994595
0.00917337
0.00837508
0.00754756
0.00664854
0.00563437
0.00453202
0.00327664
0.00212105
0.00134058
0.02162
0.021611
0.0215977
0.0215808
0.0215597
0.0215348
0.0215051
0.0214712
0.0214321
0.0213883
0.0213385
0.0212837
0.0212221
0.0211547
0.0210795
0.0209975
0.0209063
0.0208066
0.0206959
0.0205748
0.0204406
0.0202939
0.0201318
0.0199547
0.0197603
0.0195485
0.0193175
0.0190668
0.0187957
0.0185038
0.0181913
0.0178593
0.0175096
0.0171473
0.0167753
0.0163962
0.0160125
0.0156295
0.0152557
0.0148999
0.0145691
0.0142664
0.0139888
0.0137255
0.0134583
0.0131617
0.0128078
0.0123716
0.0118389
0.0112107
0.0104959
0.00971504
0.00885027
0.0079054
0.00685113
0.0056566
0.00436608
0.00293264
0.00157926
0.000634644
0.0217969
0.021787
0.0217727
0.0217546
0.021732
0.0217055
0.0216739
0.0216378
0.0215961
0.0215494
0.0214964
0.0214379
0.0213724
0.0213007
0.0212208
0.0211336
0.0210367
0.0209308
0.0208131
0.0206842
0.0205413
0.0203848
0.0202118
0.0200224
0.0198141
0.0195864
0.0193375
0.0190665
0.0187721
0.0184535
0.0181109
0.0177445
0.0173567
0.0169504
0.0165297
0.0160959
0.0156516
0.0152033
0.0147606
0.014335
0.0139368
0.0135734
0.0132466
0.0129516
0.0126751
0.012395
0.0120836
0.0117113
0.0112547
0.0107013
0.0100452
0.00929388
0.00842193
0.00743389
0.00630925
0.00502644
0.00364809
0.00214944
0.000720633
-0.000232239
0.0219797
0.0219686
0.0219527
0.0219327
0.021908
0.0218791
0.021845
0.0218063
0.0217616
0.0217119
0.0216556
0.0215935
0.021524
0.021448
0.0213633
0.0212708
0.0211679
0.0210554
0.0209304
0.0207934
0.0206413
0.0204744
0.0202896
0.0200868
0.0198631
0.0196179
0.0193487
0.0190543
0.0187329
0.0183832
0.0180045
0.0175968
0.0171611
0.016701
0.016218
0.0157137
0.0151898
0.0146528
0.0141134
0.0135844
0.0130787
0.0126074
0.0121774
0.0117898
0.0114378
0.0111053
0.0107686
0.0103989
0.00996881
0.00945802
0.00884984
0.00814098
0.00729766
0.00632319
0.00520135
0.00391734
0.00254911
0.00109231
-0.00030689
-0.00116684
0.022142
0.0221301
0.0221133
0.0220924
0.0220669
0.0220371
0.0220019
0.0219619
0.0219158
0.0218644
0.0218062
0.0217419
0.02167
0.0215912
0.0215034
0.0214075
0.0213005
0.0211834
0.0210529
0.0209095
0.0207499
0.0205743
0.0203793
0.0201647
0.0199274
0.0196662
0.0193784
0.0190624
0.0187158
0.0183367
0.0179238
0.0174761
0.0169948
0.0164807
0.0159363
0.0153609
0.0147559
0.014127
0.0134852
0.0128439
0.0122175
0.0116197
0.0110618
0.0105502
0.0100846
0.00965574
0.00924625
0.00883106
0.00838358
0.00788025
0.0072982
0.00662612
0.00582362
0.00489123
0.00381593
0.00258624
0.00129114
-5.99924e-05
-0.00137354
-0.00210107
0.0223111
0.0222983
0.0222804
0.0222586
0.0222321
0.0222014
0.0221654
0.0221245
0.0220775
0.0220252
0.0219658
0.0219003
0.0218268
0.0217462
0.0216562
0.0215575
0.0214474
0.0213266
0.0211919
0.0210435
0.0208783
0.0206961
0.0204935
0.0202699
0.0200221
0.0197486
0.0194464
0.0191134
0.0187468
0.0183441
0.0179034
0.0174233
0.016903
0.0163447
0.0157475
0.0151111
0.0144352
0.0137248
0.0129902
0.0122449
0.0115037
0.0107821
0.0100942
0.0094507
0.00885709
0.00831079
0.00780111
0.00730861
0.00681009
0.00628238
0.0056998
0.00504666
0.0042774
0.00339107
0.00237576
0.00122152
2.31545e-05
-0.00120272
-0.00241803
-0.0030166
0.0224803
0.0224668
0.0224485
0.0224265
0.0223999
0.0223693
0.0223333
0.0222925
0.0222454
0.0221929
0.0221333
0.0220675
0.0219936
0.0219124
0.0218218
0.0217223
0.0216111
0.0214889
0.0213524
0.0212017
0.0210335
0.0208476
0.0206404
0.0204113
0.0201568
0.0198753
0.0195636
0.0192192
0.018839
0.01842
0.0179598
0.0174561
0.0169085
0.0163163
0.0156799
0.0149967
0.0142657
0.0134907
0.0126811
0.0118498
0.0110111
0.0101811
0.00937577
0.00860883
0.00789008
0.00722264
0.00660216
0.00601528
0.00544353
0.00486632
0.004258
0.00360082
0.00284643
0.00199253
0.00102878
-5.52304e-05
-0.00116258
-0.00227507
-0.00340712
-0.00390082
0.0226885
0.022674
0.0226545
0.0226312
0.0226033
0.0225715
0.0225344
0.0224926
0.0224446
0.0223913
0.022331
0.0222646
0.02219
0.0221082
0.0220169
0.0219167
0.0218047
0.0216816
0.021544
0.0213921
0.0212225
0.0210349
0.0208256
0.0205939
0.0203362
0.0200507
0.0197339
0.0193833
0.0189955
0.0185671
0.0180953
0.0175774
0.0170114
0.0163983
0.0157352
0.0150198
0.0142501
0.0134283
0.0125628
0.0116653
0.0107493
0.00983063
0.00892602
0.00805088
0.00721809
0.0064352
0.00570327
0.00501467
0.00435603
0.0037105
0.00305404
0.00236899
0.00160559
0.000761918
-0.000171454
-0.00120578
-0.00224491
-0.00327202
-0.00434766
-0.00476825
0.0229022
0.0228873
0.0228674
0.0228441
0.0228164
0.0227849
0.0227483
0.0227069
0.0226594
0.0226066
0.0225469
0.0224811
0.0224074
0.0223265
0.0222361
0.022137
0.0220261
0.0219041
0.0217676
0.0216166
0.0214476
0.0212606
0.0210514
0.0208196
0.0205614
0.020275
0.0199568
0.0196041
0.0192134
0.018781
0.0183039
0.0177787
0.0172041
0.016578
0.0158997
0.0151646
0.01437
0.0135171
0.0126129
0.0116679
0.0106941
0.00970652
0.00872185
0.00775612
0.00682404
0.00593635
0.00509836
0.00430742
0.00355504
0.00282854
0.00210651
0.00137252
0.00057705
-0.000281203
-0.00120974
-0.00222109
-0.00322103
-0.0041958
-0.00524397
-0.00562116
0.0231546
0.023139
0.0231187
0.023095
0.0230673
0.0230359
0.0229996
0.0229588
0.022912
0.0228601
0.0228014
0.0227366
0.0226638
0.022584
0.0224947
0.0223966
0.0222867
0.0221657
0.0220303
0.0218805
0.0217128
0.021527
0.0213192
0.0210887
0.0208318
0.0205465
0.0202292
0.0198773
0.0194869
0.0190543
0.0185762
0.0180492
0.0174703
0.0168398
0.0161534
0.0154078
0.0145988
0.0137263
0.0127964
0.011818
0.0108015
0.00976099
0.00871217
0.00767106
0.00665324
0.00567148
0.00473433
0.00384321
0.00299398
0.00217811
0.00137707
0.000576768
-0.000271626
-0.00116724
-0.00211588
-0.00313072
-0.0041201
-0.00507324
-0.00611901
-0.00647828
0.0234279
0.0234124
0.0233924
0.0233695
0.0233428
0.0233126
0.0232776
0.0232381
0.0231928
0.0231423
0.0230851
0.023022
0.022951
0.022873
0.0227857
0.0226897
0.0225821
0.0224635
0.0223304
0.022183
0.0220176
0.0218342
0.0216286
0.0214004
0.0211457
0.0208627
0.0205477
0.0201979
0.0198096
0.0193789
0.0189022
0.0183758
0.0177977
0.017165
0.0164762
0.0157255
0.0149087
0.0140246
0.013078
0.0120764
0.0110287
0.00994729
0.00884699
0.00774307
0.00665121
0.00558538
0.00455637
0.00356887
0.00262244
0.00171243
0.000823371
-5.62366e-05
-0.00097358
-0.00192566
-0.00291553
-0.0039568
-0.00495995
-0.00591692
-0.00697989
-0.00734014
0.0237659
0.0237498
0.0237292
0.0237056
0.0236782
0.0236475
0.023612
0.0235723
0.023527
0.0234767
0.0234198
0.0233573
0.0232869
0.0232098
0.0231234
0.0230286
0.0229222
0.0228048
0.0226733
0.0225276
0.0223641
0.0221828
0.0219795
0.0217537
0.0215014
0.021221
0.0209086
0.0205615
0.0201758
0.0197477
0.0192733
0.0187492
0.0181715
0.0175404
0.0168505
0.0160976
0.0152764
0.0143847
0.0134261
0.0124068
0.0113342
0.0102193
0.00907535
0.00791678
0.00675887
0.0056161
0.00450083
0.00342027
0.00237709
0.00137013
0.000386794
-0.000581521
-0.00158029
-0.0026034
-0.00365113
-0.00473675
-0.00577265
-0.00675239
-0.00784614
-0.00822165
0.0241194
0.0241036
0.0240835
0.0240606
0.0240342
0.0240046
0.0239704
0.023932
0.023888
0.0238391
0.0237837
0.0237227
0.0236542
0.023579
0.0234948
0.0234023
0.0232983
0.0231836
0.0230546
0.0229115
0.0227505
0.0225716
0.0223707
0.0221473
0.0218974
0.0216193
0.0213093
0.0209645
0.0205811
0.0201552
0.0196829
0.0191602
0.0185848
0.017953
0.0172631
0.0165084
0.0156836
0.0147856
0.0138172
0.012783
0.0116892
0.010545
0.00936252
0.00815483
0.00693655
0.00572224
0.00452523
0.00335475
0.00221601
0.00111099
2.98025e-05
-0.00103334
-0.00212161
-0.00322621
-0.00434375
-0.00548688
-0.00656912
-0.0075851
-0.00871864
-0.00911872
0.0245235
0.0245077
0.0244877
0.0244652
0.0244394
0.0244105
0.0243773
0.0243402
0.0242975
0.0242502
0.0241964
0.0241371
0.0240702
0.0239966
0.0239139
0.0238229
0.0237204
0.023607
0.0234796
0.023338
0.0231787
0.0230015
0.0228024
0.0225807
0.0223326
0.0220562
0.0217478
0.0214045
0.0210225
0.0205979
0.0201265
0.0196047
0.0190282
0.018397
0.0177049
0.0169474
0.0161179
0.0152129
0.0142339
0.0131846
0.0120697
0.0108972
0.00967753
0.00842274
0.00714653
0.00586327
0.00458695
0.00332835
0.00209482
0.000891121
-0.000290233
-0.00145206
-0.0026357
-0.00382874
-0.00502432
-0.00623387
-0.00737162
-0.00843236
-0.00961069
-0.0100423
0.0249521
0.024937
0.0249182
0.0248972
0.0248731
0.0248462
0.0248151
0.02478
0.0247395
0.0246942
0.0246425
0.0245853
0.0245205
0.0244492
0.0243688
0.0242802
0.0241801
0.0240691
0.0239439
0.0238045
0.023647
0.0234715
0.0232738
0.0230534
0.0228063
0.0225308
0.022223
0.0218801
0.0214983
0.0210733
0.0206014
0.0200781
0.0195009
0.0188656
0.0181704
0.0174078
0.0165717
0.0156576
0.0146664
0.0136008
0.0124639
0.0112626
0.010006
0.00870488
0.00737195
0.00602127
0.00466722
0.00332187
0.00199433
0.000691934
-0.000590628
-0.00185335
-0.00313548
-0.00442137
-0.00570018
-0.0069819
-0.00818095
-0.00929182
-0.0105178
-0.010985
0.0254556
0.0254405
0.0254215
0.0254002
0.0253757
0.0253486
0.0253173
0.0252822
0.0252418
0.0251969
0.0251457
0.0250891
0.0250251
0.0249545
0.0248749
0.024787
0.0246876
0.0245774
0.0244529
0.0243142
0.0241574
0.0239826
0.0237855
0.0235654
0.0233185
0.0230428
0.0227345
0.0223907
0.0220075
0.0215808
0.0211064
0.0205803
0.0199979
0.0193589
0.0186569
0.0178867
0.0170411
0.016115
0.0151086
0.0140235
0.012862
0.0116293
0.0103338
0.00898481
0.00759419
0.0061756
0.00474372
0.00331169
0.00189018
0.000488869
-0.000895596
-0.00226059
-0.00364359
-0.00502508
-0.00639034
-0.0077476
-0.00901125
-0.0101749
-0.0114493
-0.0119557
0.0259754
0.025961
0.025943
0.0259229
0.0258999
0.0258744
0.0258447
0.0258112
0.0257724
0.025729
0.0256794
0.0256245
0.0255622
0.0254934
0.0254157
0.0253299
0.0252324
0.025124
0.0250012
0.0248639
0.0247081
0.024534
0.0243371
0.0241168
0.0238692
0.0235923
0.0232823
0.0229363
0.0225502
0.02212
0.0216413
0.0211096
0.020522
0.0198741
0.0191637
0.0183829
0.0175247
0.0165837
0.0155591
0.0144518
0.0132629
0.0119966
0.0106601
0.00926164
0.00781216
0.00632496
0.00481485
0.00329604
0.00178048
0.000280164
-0.00120662
-0.00267466
-0.00415954
-0.00563818
-0.00709169
-0.00852651
-0.00985668
-0.0110747
-0.0123977
-0.0129453
0.0265516
0.0265375
0.02652
0.0265006
0.0264785
0.026454
0.0264256
0.0263935
0.0263563
0.0263145
0.0262665
0.0262132
0.0261522
0.0260847
0.0260081
0.025923
0.0258262
0.0257181
0.0255955
0.0254581
0.0253022
0.0251276
0.0249298
0.0247083
0.024459
0.0241799
0.023867
0.0235174
0.023127
0.0226915
0.0222066
0.0216679
0.0210706
0.0204141
0.0196914
0.0188973
0.0180235
0.0170641
0.0160178
0.0148845
0.0136644
0.0123608
0.0109799
0.00952889
0.00801795
0.00645999
0.00487007
0.00326324
0.00165285
5.28932e-05
-0.0015366
-0.00310834
-0.0046964
-0.00627329
-0.00781616
-0.00932954
-0.010727
-0.0119997
-0.0133706
-0.0139616
0.0271549
0.027142
0.027126
0.0271085
0.0270885
0.0270663
0.0270402
0.0270105
0.0269755
0.0269358
0.0268898
0.0268383
0.0267793
0.0267136
0.0266387
0.0265554
0.02646
0.0263532
0.0262314
0.0260945
0.0259384
0.0257631
0.0255641
0.0253406
0.0250887
0.0248063
0.0244893
0.0241348
0.0237385
0.0232961
0.0228033
0.022255
0.0216482
0.0209778
0.0202416
0.0194312
0.018539
0.0175582
0.0164871
0.0153249
0.0140707
0.012727
0.011299
0.00979299
0.00821844
0.00658794
0.00491669
0.00322079
0.00151462
-0.000185541
-0.00187843
-0.00355449
-0.0052465
-0.00692241
-0.00855533
-0.010148
-0.0116133
-0.0129409
-0.0143592
-0.0149948
0.0278437
0.0278309
0.0278149
0.0277971
0.0277768
0.0277541
0.0277277
0.0276977
0.0276625
0.0276229
0.0275769
0.0275256
0.0274665
0.0274008
0.0273258
0.027242
0.027146
0.0270384
0.0269156
0.0267774
0.0266198
0.0264425
0.026241
0.0260146
0.0257591
0.0254722
0.02515
0.0247893
0.0243858
0.023935
0.0234325
0.0228735
0.0222527
0.0215695
0.0208161
0.0199871
0.0190736
0.0180684
0.0169692
0.0157743
0.0144822
0.0130946
0.0116158
0.0100513
0.00840986
0.00670391
0.00494893
0.00316182
0.0013584
-0.000443284
-0.00224011
-0.00402163
-0.00581897
-0.00759489
-0.0093185
-0.0109908
-0.0125239
-0.0139059
-0.0153707
-0.0160528
0.0285527
0.0285409
0.0285261
0.0285097
0.0284907
0.0284696
0.0284447
0.0284161
0.0283821
0.0283436
0.0282986
0.0282482
0.0281901
0.0281254
0.0280511
0.0279682
0.0278727
0.0277655
0.0276425
0.0275036
0.0273445
0.0271652
0.0269609
0.0267308
0.0264708
0.0261785
0.02585
0.0254818
0.0250698
0.0246092
0.0240956
0.0235235
0.0228896
0.0221883
0.0214171
0.0205671
0.0196299
0.0185978
0.0174678
0.0162378
0.0149051
0.0134709
0.0119386
0.0103129
0.00860217
0.00681847
0.00497774
0.00309752
0.00119542
-0.00070918
-0.002611
-0.004499
-0.006403
-0.00827994
-0.0100949
-0.0118476
-0.0134489
-0.0148852
-0.0163959
-0.0171255
0.0293261
0.0293149
0.0293006
0.0292849
0.0292668
0.0292466
0.0292226
0.0291951
0.0291622
0.0291247
0.0290806
0.0290309
0.0289732
0.0289084
0.0288339
0.0287501
0.0286534
0.0285444
0.0284194
0.0282781
0.0281161
0.0279334
0.027725
0.0274901
0.0272246
0.0269259
0.02659
0.0262133
0.0257915
0.0253199
0.0247936
0.0242079
0.0235566
0.0228391
0.0220467
0.0211738
0.0202107
0.019149
0.0179853
0.0167168
0.0153401
0.0138556
0.0122661
0.0105757
0.00879219
0.00692752
0.00499803
0.00302207
0.00101907
-0.000990376
-0.00299832
-0.00499449
-0.00700693
-0.00898615
-0.0108935
-0.0127269
-0.0143964
-0.0158864
-0.0174421
-0.0182207
0.0301315
0.0301216
0.030109
0.0300952
0.0300791
0.030061
0.030039
0.0300134
0.0299821
0.0299459
0.0299029
0.0298541
0.0297969
0.0297326
0.0296582
0.0295745
0.0294773
0.0293676
0.0292411
0.0290976
0.0289327
0.0287463
0.0285334
0.028293
0.0280211
0.027715
0.0273706
0.0269842
0.0265516
0.0260678
0.0255279
0.0249264
0.0242593
0.0235205
0.0227071
0.0218094
0.0208183
0.019725
0.0185256
0.0172164
0.0157933
0.0142562
0.0126071
0.0108494
0.00899056
0.00704241
0.00502168
0.00294764
0.000841617
-0.00127469
-0.00339043
-0.0054969
-0.0076192
-0.00970201
-0.0117028
-0.0136179
-0.0153561
-0.0168997
-0.0185001
-0.0193285
0.0310327
0.031023
0.0310101
0.0309957
0.0309786
0.0309594
0.0309362
0.0309094
0.0308769
0.0308395
0.0307951
0.0307448
0.030686
0.0306198
0.0305433
0.030457
0.0303569
0.0302438
0.0301137
0.0299662
0.0297967
0.0296052
0.0293865
0.0291397
0.0288605
0.0285461
0.0281923
0.0277954
0.0273509
0.0268539
0.0262993
0.0256818
0.0249949
0.0242375
0.0233999
0.0224761
0.0214553
0.0203281
0.0190902
0.0177375
0.0162649
0.0146717
0.0129595
0.011131
0.00919324
0.00715809
0.00504279
0.00286747
0.000655596
-0.00157021
-0.00379567
-0.00601485
-0.00824898
-0.0104369
-0.0125323
-0.0145298
-0.0163367
-0.0179333
-0.0195773
-0.0204568
0.0319534
0.0319448
0.031933
0.0319196
0.0319035
0.0318853
0.0318629
0.0318366
0.0318042
0.0317667
0.0317219
0.0316711
0.0316116
0.0315445
0.0314669
0.0313794
0.0312777
0.0311626
0.0310297
0.0308788
0.0307051
0.0305085
0.0302837
0.0300298
0.0297426
0.029419
0.029055
0.0286467
0.0281896
0.0276786
0.0271085
0.0264734
0.0257689
0.0249879
0.0241269
0.0231754
0.0221232
0.0209606
0.0196826
0.0182846
0.0167606
0.0151093
0.0133316
0.0114299
0.00941061
0.00728575
0.00507306
0.00279366
0.000473163
-0.0018648
-0.0042026
-0.00653661
-0.00888451
-0.0111792
-0.0133707
-0.0154518
-0.0173279
-0.0189775
-0.0206648
-0.021596
0.0329406
0.0329324
0.032921
0.0329079
0.0328922
0.0328742
0.0328519
0.0328258
0.0327934
0.0327557
0.0327104
0.0326587
0.0325977
0.0325288
0.0324487
0.0323582
0.0322528
0.0321334
0.0319959
0.0318397
0.0316601
0.0314571
0.0312251
0.0309632
0.0306671
0.0303337
0.0299587
0.0295383
0.0290678
0.0285422
0.0279559
0.0273035
0.0265774
0.0257763
0.024889
0.0239087
0.0228239
0.0216239
0.0203037
0.0188577
0.0172795
0.0155668
0.0137203
0.0117418
0.00963725
0.00741897
0.00510514
0.00271805
0.00028542
-0.00216799
-0.00462082
-0.00707238
-0.00953607
-0.0119391
-0.0142281
-0.0163935
-0.0183388
-0.0200404
-0.0217701
-0.0227541
0.0339549
0.0339481
0.0339382
0.0339269
0.0339129
0.0338966
0.0338758
0.0338506
0.0338189
0.0337813
0.0337357
0.0336834
0.0336214
0.0335511
0.0334693
0.0333767
0.0332687
0.0331462
0.0330046
0.0328437
0.0326584
0.0324489
0.0322092
0.0319388
0.0316332
0.0312892
0.0309026
0.0304695
0.0299852
0.0294444
0.0288416
0.0281703
0.0274256
0.0265994
0.0256869
0.0246768
0.0235581
0.0223198
0.0209561
0.0194608
0.0178266
0.0160508
0.0141333
0.0120755
0.00988313
0.00756845
0.00515046
0.0026523
0.000104354
-0.00246803
-0.00503891
-0.00761107
-0.0101921
-0.0127052
-0.0150932
-0.0173441
-0.019359
-0.0211127
-0.0228842
-0.0239214
0.035068
0.0350613
0.0350508
0.0350382
0.0350223
0.0350039
0.0349807
0.0349531
0.0349187
0.0348784
0.0348298
0.0347741
0.0347085
0.0346343
0.034548
0.0344505
0.0343371
0.0342087
0.0340609
0.0338931
0.0337005
0.0334831
0.0332349
0.0329551
0.0326393
0.0322843
0.0318857
0.0314395
0.0309409
0.0303846
0.0297648
0.0290754
0.0283081
0.0274605
0.0265204
0.0254801
0.0243268
0.0230487
0.0216397
0.0200929
0.0184001
0.016558
0.0145663
0.0124256
0.0101415
0.00772642
0.00520019
0.00258696
-8.04266e-05
-0.00277557
-0.00546813
-0.00816395
-0.0108644
-0.0134891
-0.0159772
-0.018314
-0.0203981
-0.0222028
-0.0240152
-0.0251063
0.036188
0.0361825
0.036173
0.0361612
0.036146
0.0361281
0.036105
0.0360771
0.0360417
0.036
0.0359497
0.0358919
0.0358238
0.0357469
0.0356576
0.0355568
0.0354396
0.0353069
0.0351539
0.0349804
0.0347809
0.0345559
0.034299
0.0340097
0.0336835
0.0333171
0.0329062
0.0324467
0.0319337
0.0313617
0.0307247
0.0300158
0.0292292
0.0283557
0.0273897
0.0263186
0.0251303
0.023812
0.022357
0.0207576
0.0190048
0.0170947
0.0150266
0.0128005
0.0104219
0.0079034
0.00526551
0.0025336
-0.000257044
-0.0030788
-0.00589696
-0.00871955
-0.0115412
-0.0142788
-0.0168685
-0.0192922
-0.0214458
-0.0233013
-0.025154
-0.0262992
0.0373694
0.0373644
0.0373551
0.0373434
0.0373282
0.0373099
0.0372862
0.0372576
0.0372211
0.0371779
0.0371254
0.037065
0.0369935
0.0369125
0.0368184
0.036712
0.0365885
0.0364489
0.0362887
0.0361072
0.0358995
0.0356656
0.0353994
0.0351002
0.0347634
0.0343855
0.0339623
0.0334895
0.032962
0.0323743
0.03172
0.0309927
0.0301832
0.0292888
0.028295
0.0271933
0.0259694
0.0246098
0.0231071
0.0214531
0.0196377
0.0176567
0.0155088
0.0131937
0.0107165
0.0080904
0.00533651
0.00248157
-0.000436866
-0.00338952
-0.00633738
-0.00928995
-0.0122348
-0.015087
-0.017779
-0.0202894
-0.0225117
-0.0244167
-0.0263086
-0.0275085
0.0385746
0.0385713
0.0385636
0.0385534
0.038539
0.0385212
0.0384973
0.0384677
0.0384294
0.0383837
0.038328
0.0382641
0.0381885
0.0381032
0.0380044
0.0378933
0.0377644
0.0376192
0.0374526
0.0372644
0.037049
0.036807
0.0365318
0.036223
0.0358758
0.0354869
0.0350517
0.0345659
0.0340245
0.0334214
0.0327505
0.0320042
0.0311763
0.0302562
0.0292368
0.0281042
0.0268445
0.0254432
0.0238923
0.0221827
0.0203037
0.0182501
0.0160204
0.0136137
0.0110351
0.00829804
0.00542453
0.00244265
-0.000607699
-0.00369544
-0.00677722
-0.00986312
-0.0129333
-0.0159014
-0.0186966
-0.0212942
-0.0235854
-0.0255396
-0.0274703
-0.028725
0.0399073
0.0399014
0.0398878
0.0398694
0.0398455
0.0398176
0.0397834
0.0397441
0.0396965
0.0396422
0.0395782
0.0395067
0.0394238
0.0393314
0.0392255
0.0391071
0.0389711
0.0388184
0.0386445
0.0384486
0.0382255
0.0379754
0.0376919
0.0373742
0.0370177
0.0366186
0.0361725
0.0356748
0.0351203
0.034503
0.0338162
0.033053
0.0322031
0.0312627
0.0302156
0.029052
0.0277561
0.0263122
0.0247117
0.0229446
0.0209993
0.0188702
0.0165552
0.0140532
0.011369
0.0085165
0.0055188
0.00240535
-0.000781669
-0.00400904
-0.00722926
-0.0104519
-0.0136498
-0.0167352
-0.019634
-0.0223181
-0.0246768
-0.0266786
-0.028647
-0.029957
0.0409939
0.0409944
0.0409906
0.0409843
0.0409738
0.0409591
0.0409378
0.0409097
0.0408722
0.040826
0.040769
0.0407027
0.0406239
0.0405344
0.0404304
0.040313
0.0401766
0.0400228
0.0398465
0.0396473
0.0394198
0.0391646
0.038875
0.0385504
0.0381863
0.0377788
0.0373234
0.0368153
0.0362493
0.035619
0.0349175
0.034137
0.0332698
0.0323042
0.0312319
0.0300372
0.0287049
0.0272181
0.0255676
0.0237424
0.0217297
0.0195235
0.0171211
0.0145211
0.0117282
0.00875686
0.00563117
0.00238203
-0.000945911
-0.0043173
-0.00768031
-0.0110431
-0.0143713
-0.0175754
-0.0205783
-0.0233492
-0.0257753
-0.0278244
-0.0298302
-0.0311955
0.0423432
0.0423389
0.0423271
0.0423106
0.0422885
0.0422623
0.0422297
0.0421915
0.0421446
0.0420906
0.0420264
0.0419541
0.0418699
0.0417756
0.0416673
0.0415456
0.0414053
0.0412473
0.0410673
0.0408642
0.0406328
0.0403733
0.0400792
0.0397496
0.0393799
0.038966
0.0385033
0.0379867
0.0374109
0.0367691
0.0360542
0.0352585
0.0343707
0.0333863
0.0322866
0.0310611
0.029692
0.0281615
0.0264594
0.024574
0.0224915
0.020205
0.0177117
0.0150097
0.0121037
0.00900875
0.00575025
0.0023606
-0.00111311
-0.00463323
-0.00814347
-0.01165
-0.0151111
-0.0184353
-0.0215422
-0.0243988
-0.0268908
-0.0289857
-0.0310277
-0.0324489
0.0434303
0.0434318
0.0434288
0.043423
0.043413
0.043399
0.0433786
0.0433515
0.043315
0.04327
0.0432142
0.043149
0.0430712
0.0429826
0.0428792
0.0427619
0.042625
0.0424698
0.0422915
0.0420894
0.041858
0.0415978
0.0413022
0.0409702
0.0405974
0.0401794
0.0397116
0.0391886
0.0386049
0.0379534
0.0372269
0.0364165
0.0355138
0.0345054
0.0333815
0.0321249
0.0307188
0.0291443
0.0273903
0.025444
0.0232905
0.020922
0.0183355
0.0155286
0.0125062
0.00928399
0.00588866
0.00235421
-0.00126958
-0.00494286
-0.00860453
-0.0122585
-0.0158552
-0.0193009
-0.0225124
-0.0254548
-0.0280125
-0.0301529
-0.0322311
-0.0337082
0.0447876
0.0447831
0.0447705
0.0447528
0.0447296
0.0447026
0.0446695
0.0446315
0.0445851
0.044532
0.0444695
0.0443992
0.0443176
0.044226
0.0441207
0.044002
0.0438645
0.043709
0.0435312
0.0433295
0.0430989
0.0428393
0.042544
0.042212
0.0418385
0.041419
0.0409485
0.0404216
0.0398324
0.0391735
0.0384372
0.037615
0.0366941
0.0356686
0.0345181
0.0332307
0.0317873
0.0301677
0.0283601
0.0263508
0.0241234
0.0216696
0.0189859
0.0160698
0.0129263
0.0095718
0.00603456
0.00235031
-0.0014285
-0.00525957
-0.00907717
-0.0128822
-0.0166173
-0.020186
-0.0235017
-0.0265287
-0.0291504
-0.0313348
-0.0334483
-0.0349818
0.0458156
0.0458168
0.0458139
0.0458091
0.045801
0.04579
0.0457736
0.0457514
0.0457206
0.0456819
0.045633
0.0455751
0.0455051
0.0454244
0.0453292
0.0452199
0.0450909
0.0449431
0.044772
0.0445764
0.044351
0.0440959
0.0438043
0.0434753
0.043104
0.0426857
0.0422154
0.0416872
0.041095
0.040431
0.0396871
0.0388534
0.0379203
0.0368726
0.0356989
0.0343806
0.0328998
0.0312348
0.0293731
0.0272998
0.024997
0.0224558
0.0196724
0.016644
0.0133757
0.00988486
0.00620145
0.00236295
-0.00157524
-0.00556848
-0.0095461
-0.0135058
-0.0173824
-0.0210756
-0.0244962
-0.0276079
-0.0302937
-0.032522
-0.034671
-0.0362611
0.0470719
0.0470695
0.0470629
0.0470542
0.0470422
0.0470282
0.0470093
0.0469857
0.0469541
0.0469155
0.0468671
0.0468106
0.0467425
0.0466639
0.0465715
0.0464653
0.0463401
0.0461966
0.0460305
0.0458401
0.0456205
0.0453712
0.0450856
0.044762
0.0443957
0.0439816
0.0435142
0.0429875
0.0423948
0.0417282
0.0409786
0.0401367
0.0391881
0.0381258
0.0369267
0.0355781
0.0340592
0.0323476
0.0304298
0.0282896
0.0259082
0.0232758
0.0203883
0.0172427
0.0138445
0.010212
0.00637708
0.00237912
-0.00172343
-0.00588346
-0.0100253
-0.0141432
-0.0181641
-0.0219832
-0.0255087
-0.028704
-0.0314522
-0.0337232
-0.035907
-0.0375544
0.0482563
0.0482529
0.0482448
0.048235
0.0482225
0.0482084
0.0481903
0.0481681
0.0481389
0.0481036
0.04806
0.0480092
0.0479481
0.0478778
0.0477946
0.0476985
0.0475837
0.0474508
0.0472953
0.0471154
0.0469058
0.0466663
0.0463899
0.046075
0.0457168
0.0453096
0.0448482
0.0443256
0.0437352
0.0430682
0.0423154
0.0414658
0.0405086
0.0394261
0.0382053
0.0368261
0.0352688
0.0335099
0.0315349
0.0293267
0.0268647
0.0241386
0.0211439
0.0178775
0.0143454
0.010567
0.00657589
0.00241379
-0.00185757
-0.00618871
-0.0104987
-0.0147785
-0.0189467
-0.0228935
-0.0265247
-0.0298039
-0.0326149
-0.0349289
-0.0371481
-0.0388531
0.0494472
0.0494437
0.0494364
0.0494284
0.0494187
0.0494085
0.0493949
0.0493781
0.0493546
0.0493253
0.0492878
0.0492434
0.0491889
0.0491254
0.0490494
0.0489606
0.0488542
0.0487302
0.0485845
0.048415
0.0482165
0.0479883
0.0477234
0.0474197
0.0470723
0.046675
0.0462221
0.0457065
0.0451208
0.044456
0.043702
0.0428481
0.0418783
0.0407834
0.0395381
0.0381282
0.0365318
0.0347239
0.0326894
0.0304098
0.0278634
0.0250391
0.0219324
0.01854
0.0148683
0.0109381
0.00678517
0.00245347
-0.00199176
-0.00649851
-0.0109809
-0.0154261
-0.0197443
-0.0238203
-0.0275573
-0.0309196
-0.0337919
-0.0361479
-0.0384022
-0.0401656
0.0505885
0.0505852
0.0505798
0.0505753
0.0505706
0.0505662
0.0505596
0.0505503
0.0505352
0.050515
0.0504877
0.0504542
0.0504117
0.0503612
0.050299
0.050225
0.0501335
0.0500247
0.0498944
0.0497402
0.0495568
0.0493435
0.0490931
0.0488033
0.0484693
0.0480844
0.0476426
0.0471363
0.0465577
0.0458969
0.0451435
0.0442852
0.0433089
0.0421953
0.0409289
0.039488
0.0378519
0.0359941
0.0338986
0.0315459
0.0289127
0.0259873
0.022765
0.0192425
0.0154268
0.0113399
0.00702027
0.00251399
-0.00210963
-0.00679638
-0.011455
-0.0160695
-0.0205408
-0.0247478
-0.0285916
-0.0320377
-0.0349722
-0.0373709
-0.0396612
-0.0414835
0.0518105
0.0518066
0.0518016
0.0517985
0.0517963
0.0517961
0.0517947
0.0517921
0.0517845
0.0517725
0.0517538
0.0517295
0.0516967
0.051656
0.0516045
0.0515413
0.0514618
0.0513656
0.0512491
0.0511093
0.0509412
0.0507436
0.0505091
0.0502351
0.0499164
0.0495458
0.049117
0.0486217
0.0480516
0.0473964
0.0466447
0.0457842
0.0447971
0.0436725
0.0423817
0.0409097
0.0392325
0.0373226
0.0351632
0.0327337
0.0300092
0.0269778
0.0236344
0.019976
0.0160101
0.0117605
0.00726793
0.00258145
-0.00222587
-0.00709697
-0.0119359
-0.0167233
-0.0213503
-0.02569
-0.0296409
-0.0331702
-0.0361659
-0.0386065
-0.0409328
-0.0428151
0.0530433
0.0530395
0.0530354
0.0530342
0.053035
0.0530384
0.053042
0.053045
0.0530443
0.0530403
0.0530313
0.0530178
0.0529976
0.0529709
0.0529347
0.0528882
0.0528259
0.0527476
0.0526492
0.0525276
0.0523778
0.0521982
0.0519815
0.0517248
0.0514227
0.0510676
0.0506529
0.0501697
0.0496092
0.0489604
0.0482112
0.0473481
0.0463561
0.045213
0.0439011
0.0423968
0.0406774
0.038714
0.0364889
0.0339803
0.0311619
0.0280209
0.0245526
0.0207537
0.0166328
0.0122151
0.00754438
0.00267233