/*--------------------------------*- C++ -*----------------------------------*\
  =========                 |
  \\      /  F ield         | OpenFOAM: The Open Source CFD Toolbox
   \\    /   O peration     | Website:  https://openfoam.org
    \\  /    A nd           | Version:  6.0
     \\/     M anipulation  |
\*---------------------------------------------------------------------------*/
FoamFile
{
    version     2.0;
    format      ascii;
    class       surfaceScalarField;
    location    "11";
    object      phi;
}
// * * * * * * * * * * * * * * * * * * * * * * * * * * * * * * * * * * * * * //

dimensions      [0 3 -1 0 0 0 0];

internalField   nonuniform List<scalar> 
123526
(
4.36029e-07
2.34112e-05
-2.127e-08
8.75976e-07
2.53117e-05
1.34571e-06
2.73665e-05
1.85689e-06
2.9588e-05
2.40328e-06
3.19897e-05
2.99824e-06
3.45863e-05
3.63522e-06
3.73933e-05
4.32854e-06
4.0428e-05
5.0724e-06
4.37077e-05
5.88269e-06
4.72534e-05
6.75218e-06
5.10871e-05
7.69795e-06
5.52312e-05
8.71386e-06
5.97106e-05
9.82087e-06
6.455e-05
1.10146e-05
6.97796e-05
1.23115e-05
7.54348e-05
1.37079e-05
8.15461e-05
1.52299e-05
8.81434e-05
1.68738e-05
9.52741e-05
1.86563e-05
0.000102981
2.0586e-05
0.000111299
2.26831e-05
0.000120283
2.49461e-05
0.00012999
2.74099e-05
0.000140454
3.00722e-05
0.00015176
3.29601e-05
0.000163951
3.60886e-05
0.000177096
3.94752e-05
0.000191271
4.31461e-05
0.000206534
4.71161e-05
0.000222977
5.14159e-05
0.000240657
5.60638e-05
0.000259672
6.10892e-05
0.000280084
6.65201e-05
0.000301979
7.23828e-05
0.00032543
7.8717e-05
0.000350493
8.55442e-05
0.000377241
9.29007e-05
0.000405705
0.000100823
0.000435904
0.00010934
0.000467837
0.000118487
0.000501451
0.000128299
0.000536642
0.000138803
0.000573246
0.000150023
0.000611007
0.000161974
0.000649555
0.000174662
0.000688376
0.000188078
0.000726776
0.000202194
0.000763831
0.00021696
0.000798324
0.000232301
0.000828674
0.000248104
0.000852851
0.000264222
0.000868279
0.000280434
0.000871774
0.00029646
0.000859402
0.000311921
0.000826447
0.000326333
0.000767314
0.000339094
0.000675427
0.000349587
0.000543354
0.000356397
0.000363088
0.000123478
0.000353229
4.31437e-07
2.30207e-05
-2.54571e-08
8.62765e-07
2.48896e-05
1.32353e-06
2.69102e-05
1.82489e-06
2.90947e-05
2.36102e-06
3.14564e-05
2.94474e-06
3.40097e-05
3.5699e-06
3.67699e-05
4.25017e-06
3.97538e-05
4.98028e-06
4.29778e-05
5.77529e-06
4.64636e-05
6.62862e-06
5.02331e-05
7.55647e-06
5.43079e-05
8.55344e-06
5.87123e-05
9.63934e-06
6.34683e-05
1.08107e-05
6.86069e-05
1.20827e-05
7.41668e-05
1.34526e-05
8.01752e-05
1.49451e-05
8.66549e-05
1.65576e-05
9.36612e-05
1.83051e-05
0.000101238
2.01976e-05
0.000109407
2.22533e-05
0.000118231
2.44723e-05
0.000127771
2.6887e-05
0.000138042
2.94973e-05
0.00014915
3.23276e-05
0.000161123
3.53948e-05
0.00017403
3.8714e-05
0.000187954
4.23131e-05
0.000202936
4.62048e-05
0.000219087
5.04213e-05
0.000236443
5.49789e-05
0.000255116
5.99086e-05
0.000275157
6.52367e-05
0.000296653
7.09903e-05
0.00031968
7.72085e-05
0.000344279
8.3913e-05
0.000370543
9.11397e-05
0.000398484
9.89248e-05
0.000428126
0.000107296
0.000459474
0.000116288
0.000492468
0.000125934
0.000527007
0.00013626
0.000562934
0.000147285
0.000599998
0.000159025
0.000637833
0.000171482
0.00067594
0.000184649
0.000713636
0.000198498
0.000750014
0.000212984
0.000783876
0.000228038
0.000813667
0.00024355
0.00083739
0.000259382
0.000852516
0.000275315
0.000855909
0.000291076
0.000843714
0.000306287
0.000811305
0.000320475
0.000753207
0.000333032
0.000662958
0.000343351
0.000533146
0.000349734
0.000356847
0.000123426
0.000350042
4.0544e-07
2.26388e-05
-8.08604e-09
8.27431e-07
2.44768e-05
1.27819e-06
2.64638e-05
1.76868e-06
2.86121e-05
2.29322e-06
3.09347e-05
2.86435e-06
3.34455e-05
3.47609e-06
3.61598e-05
4.14189e-06
3.90941e-05
4.85655e-06
4.22635e-05
5.63492e-06
4.56904e-05
6.47049e-06
4.93971e-05
7.37922e-06
5.34038e-05
8.35573e-06
5.77346e-05
9.41953e-06
6.24087e-05
1.05672e-05
6.7458e-05
1.18136e-05
7.29245e-05
1.31562e-05
7.88318e-05
1.4619e-05
8.51961e-05
1.61997e-05
9.20801e-05
1.79129e-05
9.95281e-05
1.97685e-05
0.000107551
2.17843e-05
0.000116218
2.39607e-05
0.000125596
2.63292e-05
0.000135676
2.889e-05
0.00014659
3.16668e-05
0.000158348
3.46768e-05
0.000171021
3.79344e-05
0.000184698
4.14675e-05
0.000199405
4.52884e-05
0.000215268
4.94291e-05
0.000232305
5.39057e-05
0.000250642
5.87484e-05
0.000270315
6.3984e-05
0.000291419
6.96385e-05
0.000314028
7.57506e-05
0.000338171
8.23417e-05
0.000363956
8.9447e-05
0.000391384
9.71015e-05
0.000420477
0.000105332
0.000451249
0.000114171
0.000483636
0.000123651
0.000517534
0.000133795
0.000552798
0.000144621
0.000589179
0.000156145
0.000626318
0.00016837
0.000663724
0.000181288
0.000700727
0.000194878
0.000736434
0.000209096
0.000769667
0.000223878
0.000798895
0.00023912
0.000822154
0.000254686
0.000836963
0.000270358
0.000840245
0.000285866
0.000828221
0.000300831
0.000796345
0.000314792
0.000739256
0.000327134
0.000650619
0.000337192
0.000523089
0.000343828
0.000350199
0.000121891
0.0003453
3.81895e-07
2.22641e-05
6.65372e-09
7.95383e-07
2.40717e-05
1.23718e-06
2.6026e-05
1.71802e-06
2.81387e-05
2.23229e-06
3.04228e-05
2.79232e-06
3.28921e-05
3.39226e-06
3.55614e-05
4.04514e-06
3.84469e-05
4.74604e-06
4.15627e-05
5.50933e-06
4.49319e-05
6.32881e-06
4.85768e-05
7.22001e-06
5.25167e-05
8.17787e-06
5.67753e-05
9.22137e-06
6.1369e-05
1.03473e-05
6.63306e-05
1.15703e-05
7.17053e-05
1.28877e-05
7.75133e-05
1.43234e-05
8.37642e-05
1.5875e-05
9.05281e-05
1.75568e-05
9.78498e-05
1.93787e-05
0.000105729
2.1358e-05
0.000114242
2.34951e-05
0.000123459
2.58213e-05
0.000133353
2.83366e-05
0.000144076
3.10643e-05
0.000155622
3.40213e-05
0.000168065
3.72218e-05
0.000181499
4.06935e-05
0.000195935
4.4448e-05
0.000211516
4.85174e-05
0.000228237
5.29167e-05
0.000246244
5.76764e-05
0.000265556
6.28218e-05
0.000286274
6.83792e-05
0.000308473
7.43859e-05
0.000332168
8.08628e-05
0.000357484
8.7844e-05
0.000384408
9.53635e-05
0.000412962
0.000103448
0.00044317
0.000112127
0.000474962
0.000121432
0.000508235
0.000131386
0.000542851
0.000142009
0.000578565
0.000153313
0.000615024
0.000165304
0.000651744
0.000177978
0.000688068
0.000191315
0.000723115
0.000205276
0.000755727
0.000219799
0.000784399
0.000234782
0.000807201
0.000250092
0.000821699
0.00026551
0.000824871
0.000280766
0.000813015
0.000295488
0.000781673
0.000309219
0.000725587
0.000321349
0.000638562
0.000331175
0.000513356
0.000337686
0.000343811
0.000120735
0.000339061
3.68275e-07
2.18971e-05
1.55564e-08
7.74838e-07
2.36749e-05
1.20877e-06
2.55969e-05
1.681e-06
2.76748e-05
2.18575e-06
2.99212e-05
2.73544e-06
3.23496e-05
3.32401e-06
3.49747e-05
3.96477e-06
3.78123e-05
4.65247e-06
4.08755e-05
5.40167e-06
4.4188e-05
6.20594e-06
4.77722e-05
7.08082e-06
5.16465e-05
8.02103e-06
5.58341e-05
9.0455e-06
6.03488e-05
1.01509e-05
6.52242e-05
1.13516e-05
7.05086e-05
1.26452e-05
7.6219e-05
1.40548e-05
8.23583e-05
1.55784e-05
8.90042e-05
1.723e-05
9.62018e-05
1.90192e-05
0.00010394
2.09632e-05
0.000112301
2.30624e-05
0.00012136
2.53474e-05
0.00013107
2.78182e-05
0.000141606
3.04978e-05
0.000152944
3.34029e-05
0.000165161
3.65472e-05
0.000178356
3.9958e-05
0.000192525
4.36467e-05
0.000207828
4.76446e-05
0.000224241
5.19669e-05
0.000241923
5.66424e-05
0.000260881
6.16972e-05
0.00028122
6.71558e-05
0.000303016
7.30552e-05
0.000326272
7.94154e-05
0.000351127
8.62697e-05
0.000377557
9.36512e-05
0.000405585
0.000101585
0.00043524
0.000110102
0.00046645
0.000119231
0.000499109
0.000128996
0.00053309
0.000139416
0.000568149
0.000150505
0.000603938
0.000162271
0.000639982
0.00017471
0.000675632
0.000187804
0.000710023
0.000201518
0.000742014
0.000215792
0.000770126
0.000230524
0.000792465
0.000245583
0.000806645
0.00026075
0.000809701
0.000275758
0.000798009
0.000290237
0.00076719
0.000303737
0.000712086
0.000315659
0.000626631
0.000325287
0.000503717
0.000331637
0.000337433
0.000119394
0.00033289
3.58327e-07
2.15361e-05
1.67313e-08
7.57159e-07
2.32846e-05
1.18312e-06
2.5175e-05
1.64676e-06
2.72186e-05
2.14246e-06
2.9428e-05
2.68235e-06
3.18163e-05
3.26058e-06
3.4398e-05
3.88988e-06
3.71886e-05
4.56538e-06
4.02001e-05
5.30104e-06
4.3457e-05
6.09082e-06
4.69816e-05
6.94976e-06
5.07914e-05
7.87298e-06
5.49094e-05
8.87877e-06
5.93465e-05
9.96408e-06
6.41373e-05
1.1143e-05
6.93331e-05
1.24131e-05
7.49477e-05
1.37973e-05
8.09777e-05
1.52933e-05
8.75076e-05
1.6915e-05
9.45833e-05
1.86719e-05
0.000102183
2.05808e-05
0.000110395
2.26421e-05
0.000119299
2.48858e-05
0.000128829
2.7312e-05
0.00013918
2.99434e-05
0.000150315
3.27961e-05
0.00016231
3.58838e-05
0.00017527
3.92332e-05
0.000189177
4.28555e-05
0.000204208
4.67813e-05
0.000220317
5.10252e-05
0.000237681
5.56165e-05
0.000256291
6.05791e-05
0.000276258
6.59383e-05
0.000297659
7.17297e-05
0.000320483
7.79729e-05
0.000344888
8.47003e-05
0.000370833
9.19444e-05
0.000398344
9.973e-05
0.000427458
0.000108087
0.000458098
0.000117044
0.000490156
0.000126626
0.000523514
0.00013685
0.00055793
0.000147733
0.000593062
0.000159283
0.00062844
0.000171498
0.000663427
0.000184362
0.000697171
0.000197839
0.00072855
0.000211872
0.000756113
0.00022636
0.000777999
0.000241172
0.000791868
0.000256091
0.000794817
0.000270851
0.000783288
0.000285087
0.000752994
0.000298355
0.000698871
0.000310069
0.00061498
0.000319513
0.000494356
0.000325774
0.000331279
0.000118216
0.000327146
3.53022e-07
2.1182e-05
1.65706e-08
7.44939e-07
2.29018e-05
1.16326e-06
2.47611e-05
1.61853e-06
2.67712e-05
2.10518e-06
2.89441e-05
2.63517e-06
3.12931e-05
3.20264e-06
3.38322e-05
3.82045e-06
3.65766e-05
4.48348e-06
3.95375e-05
5.20582e-06
4.27397e-05
5.98121e-06
4.62059e-05
6.82464e-06
4.99525e-05
7.73102e-06
5.40021e-05
8.71856e-06
5.83631e-05
9.78409e-06
6.30708e-05
1.09414e-05
6.81797e-05
1.21883e-05
7.37002e-05
1.35469e-05
7.96227e-05
1.50154e-05
8.60387e-05
1.66072e-05
9.29948e-05
1.83318e-05
0.000100459
2.02056e-05
0.000108524
2.2229e-05
0.000117276
2.44315e-05
0.000126628
2.68131e-05
0.000136799
2.93962e-05
0.000147733
3.21965e-05
0.00015951
3.52276e-05
0.00017224
3.85155e-05
0.000185891
4.20712e-05
0.000200653
4.59249e-05
0.000216465
5.0091e-05
0.000233516
5.45972e-05
0.000251785
5.94687e-05
0.000271388
6.47288e-05
0.000292401
7.04132e-05
0.000314802
7.65407e-05
0.000338763
8.31434e-05
0.000364234
9.02528e-05
0.000391238
9.78937e-05
0.000419821
0.000106095
0.000449899
0.000114887
0.000481367
0.000124292
0.000514111
0.000134329
0.000547895
0.000145016
0.000582377
0.000156361
0.000617097
0.000168362
0.000651426
0.000181005
0.000684528
0.000194256
0.000715298
0.000208055
0.000742312
0.000222304
0.000763744
0.000236871
0.000777302
0.000251542
0.000780139
0.000266054
0.000768772
0.000280047
0.000738991
0.000293082
0.000685829
0.000304586
0.000603461
0.000313848
0.000485073
0.000320042
0.000325047
0.000116516
0.000321638
3.49568e-07
2.08335e-05
1.0866e-08
7.33812e-07
2.25251e-05
1.1443e-06
2.43539e-05
1.59119e-06
2.63309e-05
2.06904e-06
2.84682e-05
2.58952e-06
3.07786e-05
3.14702e-06
3.32759e-05
3.75369e-06
3.5975e-05
4.40491e-06
3.88861e-05
5.11401e-06
4.20348e-05
5.87528e-06
4.54436e-05
6.70309e-06
4.91282e-05
7.59285e-06
5.31107e-05
8.56208e-06
5.7397e-05
9.60791e-06
6.20232e-05
1.07439e-05
6.70469e-05
1.19677e-05
7.24752e-05
1.33013e-05
7.82922e-05
1.47428e-05
8.45967e-05
1.63052e-05
9.14354e-05
1.7998e-05
9.87658e-05
1.98371e-05
0.000106687
2.1823e-05
0.000115291
2.39847e-05
0.000124469
2.63223e-05
0.000134462
2.88575e-05
0.0001452
3.16059e-05
0.000156763
3.45808e-05
0.000169266
3.78079e-05
0.000182665
4.12978e-05
0.000197165
4.50802e-05
0.000212684
4.91688e-05
0.000229428
5.35922e-05
0.000247362
5.83731e-05
0.000266607
6.35361e-05
0.000287239
6.91154e-05
0.000309225
7.51297e-05
0.000332752
8.16106e-05
0.000357756
8.85892e-05
0.000384263
9.60899e-05
0.000412323
0.000104141
0.000441851
0.000112774
0.000472739
0.00012201
0.00050488
0.000131869
0.00053804
0.000142368
0.000571884
0.000153516
0.000605955
0.000165313
0.000639638
0.000177743
0.000672107
0.000190773
0.00070228
0.000204344
0.000728757
0.000218357
0.000749749
0.000232682
0.000763008
0.000247106
0.000765745
0.000261369
0.000754543
0.000275117
0.000725278
0.000287918
0.000673075
0.000299209
0.000592228
0.00030829
0.000476068
0.000314401
0.000319035
0.000114892
0.000316202
3.50921e-07
2.04926e-05
6.61338e-09
7.29019e-07
2.21567e-05
1.13222e-06
2.39556e-05
1.57111e-06
2.59003e-05
2.03995e-06
2.80025e-05
2.55063e-06
3.0275e-05
3.09719e-06
3.27312e-05
3.69238e-06
3.53859e-05
4.33096e-06
3.82481e-05
5.02681e-06
4.13441e-05
5.77366e-06
4.46966e-05
6.58614e-06
4.83203e-05
7.45919e-06
5.22368e-05
8.41048e-06
5.64499e-05
9.43688e-06
6.0996e-05
1.05517e-05
6.59359e-05
1.17528e-05
7.12735e-05
1.30615e-05
7.6987e-05
1.44761e-05
8.31818e-05
1.60095e-05
8.99052e-05
1.76708e-05
9.71045e-05
1.94757e-05
0.000104885
2.14248e-05
0.000113342
2.35463e-05
0.000122349
2.58406e-05
0.000132169
2.83288e-05
0.000142713
3.10263e-05
0.000154066
3.39461e-05
0.000166348
3.71134e-05
0.000179499
4.05387e-05
0.000193741
4.42511e-05
0.000208973
4.82646e-05
0.000225416
5.26057e-05
0.000243021
5.7299e-05
0.000261914
6.23668e-05
0.000282173
6.78437e-05
0.000303751
7.37481e-05
0.000326851
8.01109e-05
0.000351396
8.69629e-05
0.000377414
9.43282e-05
0.000404961
0.000102235
0.000433946
0.000110714
0.000464262
0.000119788
0.000495808
0.000129475
0.000528354
0.000139794
0.000561565
0.000150753
0.000594996
0.000162352
0.000628039
0.000174576
0.000659882
0.000187389
0.000689464
0.000200735
0.000715408
0.000214514
0.000735963
0.000228597
0.000748925
0.000242774
0.00075156
0.000256787
0.000740521
0.000270291
0.00071176
0.000282858
0.000660496
0.000293936
0.00058113
0.000302835
0.000467142
0.000308844
0.000312978
0.00011284
0.000310778
3.48454e-07
2.01571e-05
-7.90232e-10
7.18792e-07
2.1794e-05
1.11422e-06
2.35635e-05
1.54481e-06
2.54764e-05
2.00505e-06
2.75443e-05
2.50646e-06
2.97795e-05
3.04342e-06
3.21954e-05
3.62781e-06
3.48065e-05
4.25504e-06
3.76207e-05
4.93807e-06
4.06651e-05
5.67133e-06
4.39623e-05
6.46872e-06
4.75262e-05
7.32579e-06
5.1378e-05
8.25946e-06
5.55191e-05
9.26692e-06
5.99867e-05
1.03613e-05
6.48444e-05
1.15402e-05
7.00932e-05
1.28251e-05
7.57052e-05
1.42137e-05
8.17925e-05
1.57189e-05
8.84028e-05
1.73497e-05
9.54737e-05
1.91214e-05
0.000103116
2.10346e-05
0.000111429
2.31172e-05
0.000120269
2.53691e-05
0.000129917
2.78115e-05
0.000140272
3.04593e-05
0.000151419
3.33254e-05
0.000163483
3.64344e-05
0.000176391
3.97968e-05
0.000190379
4.34412e-05
0.00020533
4.73808e-05
0.000221477
5.16432e-05
0.00023876
5.62503e-05
0.000257307
6.1226e-05
0.000277198
6.66036e-05
0.000298375
7.24012e-05
0.000321056
7.86496e-05
0.000345151
8.53792e-05
0.000370687
9.26137e-05
0.000397729
0.000100382
0.000426181
0.000108713
0.000455934
0.000117629
0.000486896
0.000127151
0.000518836
0.000137295
0.000551427
0.00014807
0.000584227
0.000159476
0.000616641
0.000171496
0.000647871
0.000184097
0.000676873
0.00019722
0.0007023
0.000210766
0.000722433
0.000224608
0.000735111
0.000238538
0.000737656
0.000252302
0.000726785
0.000265561
0.000698532
0.000277894
0.000648205
0.000288761
0.000570316
0.000297482
0.00045849
0.000303371
0.000307178
0.000111009
0.000305364
3.4614e-07
1.98285e-05
-3.12402e-09
7.09969e-07
2.14388e-05
1.09812e-06
2.31794e-05
1.52072e-06
2.50611e-05
1.97233e-06
2.70952e-05
2.46429e-06
2.92939e-05
2.99092e-06
3.16702e-05
3.56447e-06
3.42385e-05
4.17988e-06
3.70057e-05
4.85052e-06
3.99993e-05
5.57035e-06
4.32422e-05
6.35342e-06
4.67474e-05
7.19488e-06
5.05358e-05
8.1117e-06
5.46062e-05
9.10094e-06
5.89967e-05
1.01753e-05
6.37737e-05
1.13329e-05
6.89351e-05
1.25941e-05
7.44473e-05
1.39573e-05
8.04289e-05
1.5435e-05
8.69281e-05
1.70359e-05
9.38727e-05
1.87752e-05
0.000101379
2.06535e-05
0.000109551
2.2698e-05
0.000118226
2.49089e-05
0.000127707
2.73068e-05
0.000137876
2.99064e-05
0.00014882
3.27203e-05
0.00016067
3.57728e-05
0.00017334
3.90741e-05
0.000187079
4.26523e-05
0.000201754
4.6521e-05
0.00021761
5.07057e-05
0.000234574
5.52303e-05
0.000252783
6.01165e-05
0.000272313
6.53978e-05
0.000293096
7.10921e-05
0.000315364
7.72298e-05
0.000339016
8.38407e-05
0.000364078
9.09487e-05
0.000390623
9.85817e-05
0.00041855
0.000106769
0.000447748
0.000115533
0.000478133
0.000124894
0.000509476
0.000134867
0.000541453
0.000145462
0.000573632
0.000156678
0.000605424
0.000168498
0.000636048
0.000180888
0.00066448
0.000193789
0.000689396
0.000207103
0.000709111
0.000220704
0.00072151
0.000234387
0.000723964
0.000247902
0.000713259
0.000260917
0.0006855
0.000273019
0.000636088
0.000283676
0.000559635
0.000292223
0.00044991
0.000297986
0.000301359
0.000108887
0.000299978
3.38965e-07
1.95046e-05
-5.77081e-09
6.95448e-07
2.10887e-05
1.07631e-06
2.2801e-05
1.49119e-06
2.4652e-05
1.93479e-06
2.66529e-05
2.41815e-06
2.88157e-05
2.93589e-06
3.11533e-05
3.49935e-06
3.36794e-05
4.10418e-06
3.64004e-05
4.76276e-06
3.93442e-05
5.46979e-06
4.25339e-05
6.23859e-06
4.59815e-05
7.06498e-06
4.97076e-05
7.96514e-06
5.37086e-05
8.93647e-06
5.80235e-05
9.99154e-06
6.27213e-05
1.11282e-05
6.77971e-05
1.23669e-05
7.32114e-05
1.37056e-05
7.90894e-05
1.51568e-05
8.54797e-05
1.6729e-05
9.23003e-05
1.84371e-05
9.96733e-05
2.02816e-05
0.000107706
2.22894e-05
0.00011622
2.44605e-05
0.000125536
2.68152e-05
0.000135522
2.93681e-05
0.000146268
3.21315e-05
0.000157908
3.51292e-05
0.000170343
3.83714e-05
0.000183838
4.18856e-05
0.000198241
4.56848e-05
0.000213811
4.97957e-05
0.000230464
5.42392e-05
0.000248339
5.9039e-05
0.000267514
6.42269e-05
0.00028791
6.98211e-05
0.000309772
7.58513e-05
0.000332988
8.23471e-05
0.000357585
8.9332e-05
0.000383641
9.68337e-05
0.000411051
0.000104881
0.000439704
0.000113496
0.000469522
0.000122699
0.000500278
0.000132505
0.000531652
0.000142923
0.00056322
0.000153951
0.000594403
0.000165572
0.000624435
0.000177753
0.000652309
0.000190432
0.000676729
0.000203515
0.000696043
0.000216876
0.000708175
0.000230312
0.000710552
0.00024358
0.000700018
0.000256353
0.000672757
0.000268224
0.000624255
0.000278675
0.000549235
0.000287053
0.000441597
0.000292686
0.000295811
0.000107085
0.000294639
3.34106e-07
1.91882e-05
-1.76312e-09
6.85553e-07
2.07466e-05
1.06009e-06
2.24311e-05
1.46794e-06
2.42521e-05
1.90345e-06
2.62205e-05
2.37797e-06
2.8348e-05
2.88566e-06
3.06473e-05
3.43872e-06
3.31322e-05
4.03199e-06
3.58077e-05
4.67863e-06
3.87026e-05
5.37262e-06
4.184e-05
6.1277e-06
4.52309e-05
6.93905e-06
4.88957e-05
7.82315e-06
5.28285e-05
8.77709e-06
5.7069e-05
9.8132e-06
6.16888e-05
1.09295e-05
6.66803e-05
1.21459e-05
7.19984e-05
1.34607e-05
7.77744e-05
1.48858e-05
8.40574e-05
1.64299e-05
9.07562e-05
1.81075e-05
9.79981e-05
1.99192e-05
0.000105895
2.18913e-05
0.00011425
2.40238e-05
0.000123404
2.63368e-05
0.000133211
2.88444e-05
0.000143761
3.15588e-05
0.000155194
3.45034e-05
0.000167399
3.76883e-05
0.000180654
4.11404e-05
0.00019479
4.48731e-05
0.00021008
4.89108e-05
0.000226426
5.32769e-05
0.000243973
5.79924e-05
0.0002628
6.30897e-05
0.000282815
6.85865e-05
0.000304277
7.45122e-05
0.000327064
8.08959e-05
0.000351203
8.77608e-05
0.000376778
9.51343e-05
0.000403679
0.000103045
0.000431795
0.000111514
0.000461053
0.000120561
0.00049123
0.000130202
0.000522011
0.000140445
0.000552976
0.000151286
0.00058356
0.00016271
0.000613008
0.000174681
0.000640334
0.000187141
0.000664265
0.000199993
0.000683183
0.000213114
0.000695052
0.000226306
0.00069735
0.000239327
0.000686983
0.000251861
0.000660205
0.000263506
0.000612591
0.000273754
0.00053896
0.000281967
0.000433347
0.000287471
0.000290244
0.000105056
0.000289362
3.23846e-07
1.8876e-05
-1.60554e-09
6.68096e-07
2.04091e-05
1.03563e-06
2.20663e-05
1.43606e-06
2.38577e-05
1.86397e-06
2.5794e-05
2.33034e-06
2.78869e-05
2.82972e-06
3.01488e-05
3.37327e-06
3.25931e-05
3.95664e-06
3.5224e-05
4.59191e-06
3.80708e-05
5.27389e-06
4.11567e-05
6.01553e-06
4.4492e-05
6.81272e-06
4.80966e-05
7.68115e-06
5.19625e-05
8.61826e-06
5.61299e-05
9.63623e-06
6.06733e-05
1.0733e-05
6.55821e-05
1.19282e-05
7.08058e-05
1.322e-05
7.64818e-05
1.46203e-05
8.26596e-05
1.61374e-05
8.92388e-05
1.77857e-05
9.63521e-05
1.95657e-05
0.000104115
2.15032e-05
0.000112315
2.35984e-05
0.000121309
2.58708e-05
0.000130939
2.83345e-05
0.000141298
3.10014e-05
0.000152528
3.38946e-05
0.000164507
3.70237e-05
0.000177526
4.04157e-05
0.000191399
4.40828e-05
0.000206413
4.80511e-05
0.000222458
5.23406e-05
0.000239683
5.69745e-05
0.000258167
6.19835e-05
0.000277807
6.73854e-05
0.000298877
7.3209e-05
0.000321243
7.94831e-05
0.000344931
8.62306e-05
0.000370033
9.34784e-05
0.000396434
0.000101254
0.000424022
0.00010958
0.000452731
0.000118474
0.00048234
0.000127951
0.000512538
0.00013802
0.000542913
0.000148676
0.00057291
0.000159903
0.000601788
0.000171666
0.00062858
0.000183906
0.000652037
0.000196529
0.000670573
0.000209412
0.000682193
0.000222362
0.000684423
0.00023514
0.000674228
0.000247437
0.000647935
0.000258859
0.000601206
0.000268907
0.000528958
0.000276959
0.000425355
0.000282338
0.000284943
0.000103374
0.00028416
3.15587e-07
1.85702e-05
3.27785e-09
6.54157e-07
2.00786e-05
1.01521e-06
2.17089e-05
1.40847e-06
2.34712e-05
1.82863e-06
2.53762e-05
2.28645e-06
2.7435e-05
2.77646e-06
2.96601e-05
3.31028e-06
3.20644e-05
3.88301e-06
3.46515e-05
4.50727e-06
3.74511e-05
5.17732e-06
4.04865e-05
5.90631e-06
4.37671e-05
6.68966e-06
4.73126e-05
7.5432e-06
5.11127e-05
8.4642e-06
5.52083e-05
9.46446e-06
5.96765e-05
1.05422e-05
6.4504e-05
1.17164e-05
6.96347e-05
1.29857e-05
7.52122e-05
1.43616e-05
8.12865e-05
1.58523e-05
8.77481e-05
1.74718e-05
9.47347e-05
1.92208e-05
0.000102366
2.11246e-05
0.000110412
2.31835e-05
0.00011925
2.54164e-05
0.000128708
2.78374e-05
0.000138877
3.04581e-05
0.000149908
3.33011e-05
0.000161665
3.63761e-05
0.000174452
3.97092e-05
0.000188067
4.33134e-05
0.00020281
4.72122e-05
0.000218558
5.14285e-05
0.000235467
5.59822e-05
0.000253613
6.09051e-05
0.000272886
6.62141e-05
0.00029357
7.19378e-05
0.000315521
7.81045e-05
0.000338766
8.47367e-05
0.000363402
9.18608e-05
0.000389311
9.95043e-05
0.000416379
0.000107688
0.000444547
0.00011643
0.000473597
0.000125746
0.000503222
0.000135641
0.000533016
0.000146113
0.000562436
0.000157145
0.000590753
0.000168701
0.000617019
0.000180723
0.00064001
0.000193118
0.00065817
0.000205766
0.000669543
0.000218475
0.000671703
0.000231013
0.000661674
0.000243077
0.000635852
0.000254279
0.000589982
0.000264133
0.000519075
0.000272028
0.00041742
0.000277287
0.000279615
0.000101477
0.000279039
3.03217e-07
1.82681e-05
5.59044e-09
6.34917e-07
1.97521e-05
9.89365e-07
2.1356e-05
1.37564e-06
2.30898e-05
1.78869e-06
2.49638e-05
2.23891e-06
2.69893e-05
2.7212e-06
2.91782e-05
3.24609e-06
3.15433e-05
3.80957e-06
3.40874e-05
4.42308e-06
3.68405e-05
5.08179e-06
3.98263e-05
5.79801e-06
4.30532e-05
6.56797e-06
4.65406e-05
7.40662e-06
5.02761e-05
8.31164e-06
5.43012e-05
9.29469e-06
5.86956e-05
1.03538e-05
6.34433e-05
1.1508e-05
6.84829e-05
1.27556e-05
7.39638e-05
1.41079e-05
7.99366e-05
1.5573e-05
8.62828e-05
1.71647e-05
9.31451e-05
1.88837e-05
0.000100647
2.07547e-05
0.000108543
2.27781e-05
0.000117227
2.49726e-05
0.000126514
2.73518e-05
0.000136499
2.99273e-05
0.000147334
3.27214e-05
0.000158872
3.57434e-05
0.00017143
3.90193e-05
0.000184792
4.2561e-05
0.000199268
4.63937e-05
0.000214727
5.05367e-05
0.000231323
5.50125e-05
0.000249138
5.98508e-05
0.000268049
6.50688e-05
0.000288354
7.06944e-05
0.000309897
7.67555e-05
0.000332707
8.32741e-05
0.000356885
9.02763e-05
0.000382311
9.77889e-05
0.000408869
0.000105832
0.000436507
0.000114424
0.000465009
0.000123579
0.000494071
0.000133303
0.000523298
0.000143593
0.000552152
0.00015443
0.000579923
0.000165781
0.000605677
0.000177586
0.000628216
0.000189755
0.000646013
0.00020217
0.000657151
0.000214642
0.000659251
0.000226944
0.000649394
0.000238778
0.000624044
0.000249766
0.000579029
0.000259429
0.000509457
0.00026717
0.000409736
0.000272314
0.000274545
9.99202e-05
0.000274001
2.9573e-07
1.79732e-05
1.38046e-08
6.23256e-07
1.94333e-05
9.72145e-07
2.10114e-05
1.35215e-06
2.27171e-05
1.75788e-06
2.45608e-05
2.20002e-06
2.65534e-05
2.67305e-06
2.87067e-05
3.18846e-06
3.10333e-05
3.74133e-06
3.3535e-05
4.34404e-06
3.62425e-05
4.99093e-06
3.91795e-05
5.69479e-06
4.23536e-05
6.45116e-06
4.57838e-05
7.27535e-06
4.94557e-05
8.16474e-06
5.34114e-05
9.13068e-06
5.77331e-05
1.01715e-05
6.24021e-05
1.13056e-05
6.73518e-05
1.25315e-05
7.27377e-05
1.38603e-05
7.86104e-05
1.53001e-05
8.48429e-05
1.68643e-05
9.1583e-05
1.85537e-05
9.8958e-05
2.03926e-05
0.000106706
2.23812e-05
0.000115239
2.4538e-05
0.000124359
2.68764e-05
0.000134161
2.94077e-05
0.000144803
3.21538e-05
0.000156126
3.5124e-05
0.000168461
3.83434e-05
0.000181573
4.18249e-05
0.000195788
4.55908e-05
0.000210959
4.96635e-05
0.000227251
5.40622e-05
0.00024474
5.88175e-05
0.000263295
6.39459e-05
0.000283227
6.94749e-05
0.00030437
7.54319e-05
0.000326751
8.18385e-05
0.00035048
8.87203e-05
0.00037543
9.61035e-05
0.000401486
0.000104008
0.000428602
0.000112451
0.000456565
0.000121447
0.000485074
0.000131001
0.000513742
0.000141109
0.000542041
0.000151754
0.000569273
0.0001629
0.000594525
0.000174491
0.000616619
0.000186437
0.000634059
0.000198622
0.000644964
0.000210861
0.000647001
0.000222931
0.000637308
0.00023454
0.000612413
0.000245317
0.000568228
0.000254794
0.00049995
0.000262386
0.0004021
0.00026742
0.000269437
9.81413e-05
0.000269049
2.83851e-07
1.76816e-05
1.54251e-08
6.04563e-07
1.91183e-05
9.46985e-07
2.06709e-05
1.32016e-06
2.23491e-05
1.71901e-06
2.41629e-05
2.15379e-06
2.61232e-05
2.61944e-06
2.82416e-05
3.12624e-06
3.05303e-05
3.67029e-06
3.29904e-05
4.26266e-06
3.5653e-05
4.89869e-06
3.8542e-05
5.5903e-06
4.16642e-05
6.33386e-06
4.50382e-05
7.14378e-06
4.86477e-05
8.01785e-06
5.25352e-05
8.96733e-06
5.67856e-05
9.99037e-06
6.13775e-05
1.11052e-05
6.62392e-05
1.23103e-05
7.15318e-05
1.36166e-05
7.73063e-05
1.50318e-05
8.34274e-05
1.65694e-05
9.00474e-05
1.82299e-05
9.72976e-05
2.00373e-05
0.0001049
2.19918e-05
0.000113285
2.41116e-05
0.00012224
2.64099e-05
0.000131863
2.88978e-05
0.000142316
3.15967e-05
0.000153428
3.45159e-05
0.000165543
3.76802e-05
0.00017841
4.11013e-05
0.000192367
4.48036e-05
0.000207258
4.88054e-05
0.000223248
5.31287e-05
0.000240417
5.78021e-05
0.000258623
6.28422e-05
0.000278188
6.8276e-05
0.000298937
7.41302e-05
0.000320899
8.04262e-05
0.000344186
8.7189e-05
0.000368669
9.44441e-05
0.000394233
0.000102211
0.000420838
0.000110507
0.000448272
0.000119345
0.00047624
0.00012873
0.000504361
0.000138658
0.000532119
0.000149113
0.000558826
0.000160057
0.000583588
0.000171437
0.00060525
0.000183163
0.000622344
0.000195121
0.000633027
0.000207131
0.000635011
0.000218973
0.000625486
0.000230362
0.000601049
0.000240933
0.00055769
0.000250228
0.000490697
0.000257674
0.000394708
0.000262604
0.000264575
9.66817e-05
0.000264183
2.7576e-07
1.73961e-05
2.09774e-08
5.91326e-07
1.88099e-05
9.27794e-07
2.03375e-05
1.29433e-06
2.19886e-05
1.68601e-06
2.37732e-05
2.11285e-06
2.57017e-05
2.56975e-06
2.77856e-05
3.06757e-06
3.00372e-05
3.60175e-06
3.24563e-05
4.18403e-06
3.5075e-05
4.8091e-06
3.79168e-05
5.48916e-06
4.0988e-05
6.22001e-06
4.43069e-05
7.01631e-06
4.78549e-05
7.87563e-06
5.16754e-05
8.80884e-06
5.58557e-05
9.81442e-06
6.03716e-05
1.091e-05
6.51465e-05
1.20943e-05
7.03472e-05
1.3378e-05
7.60251e-05
1.47689e-05
8.20364e-05
1.62799e-05
8.85384e-05
1.79119e-05
9.56657e-05
1.96882e-05
0.000103125
2.16091e-05
0.000111364
2.36925e-05
0.000120157
2.59513e-05
0.000129605
2.83964e-05
0.000139872
3.10489e-05
0.000150776
3.39179e-05
0.000162674
3.70276e-05
0.000175301
4.03903e-05
0.000189005
4.40277e-05
0.000203619
4.79614e-05
0.000219314
5.22098e-05
0.000236168
5.68025e-05
0.000254031
6.17554e-05
0.000273236
6.70951e-05
0.000293599
7.28478e-05
0.000315147
7.90344e-05
0.000338
8.56794e-05
0.000362024
9.28079e-05
0.000387105
0.000100439
0.000413206
0.000108589
0.000440121
0.00011727
0.000467557
0.000126489
0.00049514
0.000136239
0.000522364
0.000146505
0.000548556
0.00015725
0.000572836
0.000168421
0.000594072
0.00017993
0.000610826
0.000191666
0.000621289
0.00020345
0.000623214
0.000215069
0.00061385
0.000226243
0.000589853
0.000236613
0.000547294
0.000245731
0.000481547
0.000253035
0.000387357
0.000257866
0.000259666
9.499e-05
0.000259401
2.63768e-07
1.71138e-05
2.28231e-08
5.72789e-07
1.85049e-05
9.03098e-07
2.0008e-05
1.26316e-06
2.16325e-05
1.64832e-06
2.33882e-05
2.06819e-06
2.52855e-05
2.51812e-06
2.73357e-05
3.00773e-06
2.95507e-05
3.53349e-06
3.19297e-05
4.10583e-06
3.4505e-05
4.72045e-06
3.73005e-05
5.38867e-06
4.03216e-05
6.10713e-06
4.35863e-05
6.88961e-06
4.70741e-05
7.73408e-06
5.08288e-05
8.65134e-06
5.49402e-05
9.63967e-06
5.93817e-05
1.07166e-05
6.40717e-05
1.18807e-05
6.91823e-05
1.31426e-05
7.47654e-05
1.45096e-05
8.0669e-05
1.59949e-05
8.70551e-05
1.75988e-05
9.40618e-05
1.93445e-05
0.000101381
2.12324e-05
0.000109476
2.32799e-05
0.000118111
2.54997e-05
0.000127385
2.79026e-05
0.000137469
3.05093e-05
0.00014817
3.33287e-05
0.000159855
3.63848e-05
0.000172246
3.96887e-05
0.000185701
4.32642e-05
0.000200044
4.71288e-05
0.000215448
5.13038e-05
0.000231994
5.58167e-05
0.000249519
6.06835e-05
0.000268371
6.59301e-05
0.000288354
7.15824e-05
0.000309496
7.76609e-05
0.000331923
8.41894e-05
0.000355498
9.11926e-05
0.000380103
9.8689e-05
0.000405712
0.000106695
0.000432118
0.000115222
0.000459034
0.000124275
0.000486091
0.00013385
0.000512794
0.000143929
0.000538482
0.000154478
0.000562293
0.000165444
0.000583116
0.00017674
0.000599541
0.000188256
0.000609792
0.000199821
0.000611669
0.000211221
0.00060247
0.000222183
0.000578915
0.000232358
0.000537152
0.000241302
0.000472644
0.000248468
0.000380243
0.000253205
0.000254993
9.35996e-05
0.000254705
2.57489e-07
1.68385e-05
3.07993e-08
5.62889e-07
1.82076e-05
8.88149e-07
1.96865e-05
1.24247e-06
2.12849e-05
1.6208e-06
2.30123e-05
2.03313e-06
2.4879e-05
2.47429e-06
2.6896e-05
2.95504e-06
2.9075e-05
3.47078e-06
3.14144e-05
4.03303e-06
3.39472e-05
4.63657e-06
3.66971e-05
5.29325e-06
3.96689e-05
5.99898e-06
4.28803e-05
6.76794e-06
4.63087e-05
7.59779e-06
4.99987e-05
8.499e-06
5.40422e-05
9.47016e-06
5.84103e-05
1.05282e-05
6.30165e-05
1.1672e-05
6.80383e-05
1.29117e-05
7.35281e-05
1.4255e-05