/*--------------------------------*- C++ -*----------------------------------*\
  =========                 |
  \\      /  F ield         | OpenFOAM: The Open Source CFD Toolbox
   \\    /   O peration     | Website:  https://openfoam.org
    \\  /    A nd           | Version:  6.0
     \\/     M anipulation  |
\*---------------------------------------------------------------------------*/
FoamFile
{
    version     2.0;
    format      ascii;
    class       volScalarField;
    location    "1.79";
    object      p;
}
// * * * * * * * * * * * * * * * * * * * * * * * * * * * * * * * * * * * * * //

dimensions      [0 2 -2 0 0 0 0];

internalField   nonuniform List<scalar> 
13500
(
0.099216
0.099225
0.09876
0.098283
0.097469
0.096884
0.09642
0.096762
0.098493
0.10255
0.12394
0.16805
0.099216
0.099226
0.098761
0.098283
0.097469
0.096884
0.09642
0.096761
0.09849
0.10261
0.12325
0.16299
0.099217
0.099227
0.098761
0.098284
0.097469
0.096884
0.096419
0.096759
0.098481
0.10265
0.12237
0.15851
0.099217
0.099228
0.098761
0.098285
0.097469
0.096884
0.096417
0.096755
0.098467
0.10268
0.12139
0.15503
0.099218
0.099229
0.098762
0.098286
0.097469
0.096883
0.096414
0.09675
0.098448
0.10268
0.12035
0.1521
0.09922
0.099231
0.098763
0.098287
0.097469
0.096882
0.096411
0.096744
0.098424
0.10268
0.11927
0.14949
0.099221
0.099233
0.098765
0.098289
0.097469
0.096881
0.096407
0.096736
0.098395
0.10266
0.11818
0.14712
0.099224
0.099236
0.098766
0.09829
0.097469
0.09688
0.096402
0.096727
0.098361
0.10263
0.1171
0.14496
0.099226
0.099238
0.098768
0.098292
0.097469
0.096878
0.096397
0.096716
0.098322
0.10258
0.11605
0.14296
0.099229
0.099241
0.09877
0.098294
0.09747
0.096877
0.096392
0.096704
0.098279
0.10252
0.11502
0.14109
0.099232
0.099245
0.098773
0.098296
0.09747
0.096875
0.096385
0.096691
0.09823
0.10245
0.11403
0.13934
0.099235
0.099249
0.098776
0.098299
0.09747
0.096873
0.096378
0.096676
0.098177
0.10237
0.11308
0.13769
0.099239
0.099253
0.098779
0.098301
0.097471
0.096871
0.096371
0.09666
0.098119
0.10228
0.11217
0.13612
0.099244
0.099257
0.098782
0.098304
0.097471
0.096868
0.096363
0.096643
0.098056
0.10218
0.1113
0.13463
0.099248
0.099262
0.098786
0.098307
0.097472
0.096866
0.096354
0.096624
0.097988
0.10207
0.11046
0.13321
0.099253
0.099267
0.098789
0.09831
0.097472
0.096863
0.096344
0.096603
0.097915
0.10196
0.10966
0.13185
0.099259
0.099272
0.098794
0.098314
0.097473
0.09686
0.096335
0.096582
0.097837
0.10184
0.1089
0.13055
0.099264
0.099278
0.098798
0.098317
0.097474
0.096856
0.096324
0.096558
0.097755
0.10172
0.10816
0.1293
0.099271
0.099284
0.098803
0.098321
0.097474
0.096853
0.096313
0.096534
0.097669
0.1016
0.10745
0.12809
0.099277
0.099291
0.098808
0.098325
0.097475
0.096849
0.096301
0.096507
0.097579
0.10147
0.10676
0.12693
0.099284
0.099298
0.098814
0.09833
0.097476
0.096845
0.096289
0.09648
0.097484
0.10135
0.10609
0.12581
0.099291
0.099305
0.09882
0.098334
0.097477
0.096841
0.096276
0.096451
0.097386
0.10122
0.10544
0.12473
0.099299
0.099313
0.098826
0.098339
0.097478
0.096837
0.096262
0.09642
0.097285
0.1011
0.1048
0.12367
0.099307
0.099321
0.098832
0.098344
0.097479
0.096832
0.096248
0.096389
0.097181
0.10097
0.10418
0.12265
0.099316
0.099329
0.098839
0.098349
0.09748
0.096827
0.096233
0.096355
0.097074
0.10085
0.10357
0.12165
0.099325
0.099338
0.098846
0.098354
0.097481
0.096823
0.096218
0.096321
0.096964
0.10073
0.10297
0.12069
0.099334
0.099347
0.098854
0.09836
0.097482
0.096817
0.096202
0.096285
0.096852
0.10061
0.10238
0.11974
0.099344
0.099357
0.098861
0.098366
0.097484
0.096812
0.096186
0.096248
0.096738
0.10049
0.1018
0.11882
0.099354
0.099366
0.09887
0.098372
0.097485
0.096807
0.096169
0.09621
0.096622
0.10037
0.10122
0.11792
0.099365
0.099377
0.098878
0.098378
0.097487
0.096801
0.096151
0.096171
0.096505
0.10025
0.10066
0.11704
0.099376
0.099388
0.098887
0.098385
0.097488
0.096795
0.096133
0.096131
0.096386
0.10013
0.1001
0.11618
0.099388
0.099399
0.098896
0.098392
0.09749
0.096789
0.096114
0.09609
0.096266
0.10001
0.099546
0.11534
0.0994
0.09941
0.098906
0.098399
0.097492
0.096783
0.096095
0.096048
0.096144
0.099892
0.099002
0.11452
0.099413
0.099423
0.098916
0.098406
0.097493
0.096777
0.096075
0.096005
0.096022
0.099771
0.098465
0.11371
0.099426
0.099435
0.098926
0.098414
0.097495
0.09677
0.096054
0.095961
0.095898
0.09965
0.097934
0.11292
0.099439
0.099448
0.098937
0.098422
0.097497
0.096764
0.096033
0.095916
0.095773
0.099528
0.097411
0.11214
0.099453
0.099461
0.098948
0.09843
0.097499
0.096757
0.096012
0.095871
0.095648
0.099404
0.096894
0.11138
0.099467
0.099475
0.098959
0.098439
0.097502
0.09675
0.095989
0.095825
0.095521
0.099279
0.096384
0.11064
0.099482
0.099489
0.098971
0.098448
0.097504
0.096743
0.095967
0.095779
0.095394
0.099153
0.095882
0.10991
0.099498
0.099504
0.098983
0.098457
0.097506
0.096736
0.095943
0.095732
0.095265
0.099025
0.095387
0.10919
0.099513
0.099519
0.098996
0.098466
0.097509
0.096728
0.095919
0.095684
0.095136
0.098895
0.094899
0.10849
0.09953
0.099535
0.099009
0.098476
0.097511
0.096721
0.095894
0.095636
0.095006
0.098763
0.094418
0.1078
0.099547
0.099551
0.099022
0.098486
0.097514
0.096713
0.095869
0.095587
0.094875
0.09863
0.093945
0.10712
0.099564
0.099568
0.099036
0.098496
0.097517
0.096706
0.095844
0.095539
0.094743
0.098495
0.093479
0.10645
0.099582
0.099585
0.099051
0.098507
0.09752
0.096698
0.095817
0.095489
0.09461
0.098358
0.093021
0.1058
0.0996
0.099602
0.099065
0.098518
0.097523
0.09669
0.09579
0.09544
0.094476
0.098219
0.092569
0.10516
0.099619
0.09962
0.09908
0.098529
0.097527
0.096682
0.095763
0.09539
0.094342
0.098078
0.092126
0.10452
0.099638
0.099639
0.099096
0.098541
0.09753
0.096674
0.095735
0.09534
0.094206
0.097936
0.091689
0.1039
0.099658
0.099658
0.099112
0.098553
0.097533
0.096666
0.095706
0.095289
0.09407
0.097791
0.09126
0.10329
0.099679
0.099678
0.099128
0.098565
0.097537
0.096658
0.095677
0.095238
0.093932
0.097645
0.090839
0.10269
0.0997
0.099698
0.099145
0.098578
0.097541
0.09665
0.095647
0.095187
0.093794
0.097497
0.090424
0.1021
0.099721
0.099718
0.099162
0.098591
0.097545
0.096642
0.095617
0.095136
0.093655
0.097348
0.090017
0.10152
0.099744
0.099739
0.09918
0.098604
0.097549
0.096633
0.095586
0.095084
0.093516
0.097196
0.089616
0.10095
0.099766
0.099761
0.099198
0.098618
0.097553
0.096625
0.095554
0.095033
0.093375
0.097044
0.089223
0.10039
0.09979
0.099783
0.099217
0.098632
0.097558
0.096617
0.095522
0.094981
0.093234
0.096889
0.088837
0.099834
0.099813
0.099806
0.099236
0.098646
0.097562
0.096609
0.09549
0.094929
0.093092
0.096733
0.088457
0.099289
0.099838
0.099829
0.099256
0.098661
0.097567
0.0966
0.095457
0.094876
0.09295
0.096575
0.088084
0.098752
0.099863
0.099853
0.099276
0.098676
0.097572
0.096592
0.095423
0.094824
0.092807
0.096416
0.087718
0.098223
0.099888
0.099878
0.099297
0.098691
0.097578
0.096583
0.095389
0.094771
0.092663
0.096256
0.087358
0.097702
0.099915
0.099903
0.099318
0.098707
0.097583
0.096575
0.095355
0.094718
0.092519
0.096094
0.087005
0.097188
0.099941
0.099928
0.099339
0.098724
0.097589
0.096567
0.09532
0.094665
0.092374
0.095931
0.086657
0.096682
0.099969
0.099955
0.099361
0.09874
0.097594
0.096558
0.095284
0.094612
0.092229
0.095766
0.086316
0.096183
0.099997
0.099981
0.099384
0.098757
0.097601
0.09655
0.095248
0.094558
0.092083
0.0956
0.085981
0.095691
0.10003
0.10001
0.099407
0.098775
0.097607
0.096542
0.095212
0.094505
0.091938
0.095433
0.085652
0.095206
0.10005
0.10004
0.099431
0.098793
0.097613
0.096534
0.095175
0.094451
0.091792
0.095265
0.085329
0.094727
0.10008
0.10007
0.099455
0.098811
0.09762
0.096525
0.095138
0.094397
0.091645
0.095096
0.085011
0.094255
0.10012
0.10009
0.09948
0.09883
0.097627
0.096517
0.0951
0.094343
0.091499
0.094926
0.084699
0.093789
0.10015
0.10012
0.099505
0.098849
0.097634
0.096509
0.095062
0.094289
0.091352
0.094754
0.084393
0.093329
0.10018
0.10015
0.099531
0.098869
0.097642
0.096501
0.095024
0.094234
0.091205
0.094582
0.084092
0.092875
0.10021
0.10019
0.099558
0.098889
0.09765
0.096493
0.094985
0.09418
0.091059
0.094408
0.083796
0.092427
0.10024
0.10022
0.099585
0.098909
0.097658
0.096485
0.094945
0.094125
0.090912
0.094234
0.083505
0.091985
0.10028
0.10025
0.099613
0.09893
0.097666
0.096478
0.094905
0.09407
0.090765
0.094058
0.083219
0.091548
0.10031
0.10028
0.099641
0.098952
0.097675
0.09647
0.094865
0.094015
0.090618
0.093882
0.082938
0.091117
0.10035
0.10032
0.09967
0.098974
0.097684
0.096462
0.094825
0.09396
0.090472
0.093705
0.082662
0.090691
0.10038
0.10035
0.099699
0.098996
0.097693
0.096455
0.094784
0.093905
0.090325
0.093527
0.08239
0.090271
0.10042
0.10039
0.099729
0.099019
0.097703
0.096448
0.094743
0.093849
0.090179
0.093348
0.082123
0.089855
0.10046
0.10042
0.09976
0.099042
0.097712
0.096441
0.094702
0.093794
0.090033
0.093168
0.081861
0.089444
0.1005
0.10046
0.099792
0.099066
0.097723
0.096434
0.09466
0.093738
0.089887
0.092988
0.081603
0.089038
0.10054
0.1005
0.099824
0.09909
0.097733
0.096427
0.094618
0.093682
0.089741
0.092807
0.081349
0.088637
0.10057
0.10053
0.099856
0.099115
0.097744
0.096421
0.094575
0.093626
0.089596
0.092625
0.081099
0.088241
0.10062
0.10057
0.09989
0.09914
0.097755
0.096414
0.094533
0.09357
0.089451
0.092443
0.080854
0.087849
0.10066
0.10061
0.099924
0.099166
0.097767
0.096408
0.09449
0.093513
0.089306
0.09226
0.080612
0.087461
0.1007
0.10065
0.099959
0.099192
0.097779
0.096402
0.094447
0.093457
0.089162
0.092077
0.080374
0.087078
0.10074
0.10069
0.099994
0.099219
0.097791
0.096397
0.094403
0.0934
0.089018
0.091892
0.08014
0.086698
0.10079
0.10074
0.10003
0.099247
0.097804
0.096391
0.09436
0.093343
0.088875
0.091708
0.07991
0.086323
0.10083
0.10078
0.10007
0.099275
0.097817
0.096386
0.094316
0.093286
0.088732
0.091522
0.079683
0.085952
0.10088
0.10082
0.10011
0.099303
0.09783
0.096381
0.094272
0.093228
0.08859
0.091337
0.079459
0.085585
0.10092
0.10087
0.10014
0.099333
0.097844
0.096377
0.094228
0.093171
0.088448
0.09115
0.079239
0.085222
0.10097
0.10091
0.10018
0.099362
0.097859
0.096373
0.094184
0.093113
0.088307
0.090964
0.079022
0.084862
0.10102
0.10096
0.10022
0.099393
0.097873
0.096369
0.094139
0.093055
0.088166
0.090776
0.078809
0.084506
0.10107
0.10101
0.10026
0.099424
0.097888
0.096365
0.094095
0.092996
0.088026
0.090589
0.078598
0.084154
0.10112
0.10105
0.10031
0.099456
0.097904
0.096362
0.09405
0.092938
0.087886
0.090401
0.07839
0.083804
0.10117
0.1011
0.10035
0.099488
0.09792
0.096359
0.094005
0.092879
0.087747
0.090212
0.078186
0.083459
0.10122
0.10115
0.10039
0.099521
0.097937
0.096357
0.09396
0.09282
0.087609
0.090024
0.077984
0.083116
0.10127
0.1012
0.10044
0.099555
0.097954
0.096355
0.093916
0.092761
0.087471
0.089834
0.077784
0.082777
0.10132
0.10125
0.10048
0.09959
0.097971
0.096353
0.093871
0.092702
0.087334
0.089645
0.077588
0.082441
0.10138
0.10131
0.10053
0.099625
0.097989
0.096352
0.093826
0.092642
0.087197
0.089455
0.077394
0.082107
0.10143
0.10136
0.10058
0.099661
0.098007
0.096351
0.093781
0.092582
0.087062
0.089265
0.077202
0.081777
0.10149
0.10141
0.10062
0.099698
0.098026
0.096351
0.093736
0.092522
0.086926
0.089074
0.077013
0.08145
0.10155
0.10147
0.10067
0.099735
0.098046
0.096351
0.093692
0.092462
0.086792
0.088883
0.076826
0.081125
0.10161
0.10153
0.10072
0.099774
0.098066
0.096352
0.093647
0.092402
0.086658
0.088692
0.076641
0.080803
0.10167
0.10158
0.10077
0.099813
0.098087
0.096353
0.093602
0.092341
0.086525
0.088501
0.076458
0.080483
0.10173
0.10164
0.10083
0.099853
0.098108
0.096354
0.093558
0.09228
0.086393
0.088309
0.076277
0.080166
0.10179
0.1017
0.10088
0.099894
0.09813
0.096357
0.093514
0.092219
0.086261
0.088117
0.076098
0.079851
0.10185
0.10176
0.10093
0.099936
0.098152
0.096359
0.093469
0.092157
0.086131
0.087925
0.075921
0.079539
0.10192
0.10183
0.10099
0.099979
0.098175
0.096363
0.093425
0.092095
0.086
0.087733
0.075746
0.079229
0.10198
0.10189
0.10104
0.10002
0.098199
0.096367
0.093382
0.092033
0.085871
0.08754
0.075573
0.078921
0.10205
0.10195
0.1011
0.10007
0.098224
0.096371
0.093338
0.091971
0.085742
0.087347
0.075401
0.078615
0.10212
0.10202
0.10116
0.10011
0.098249
0.096377
0.093295
0.091909
0.085614
0.087154
0.07523
0.078311
0.10219
0.10209
0.10122
0.10016
0.098275
0.096382
0.093252
0.091846
0.085487
0.086961
0.075061
0.078009
0.10226
0.10216
0.10128
0.10021
0.098302
0.096389
0.093209
0.091783
0.085361
0.086767
0.074894
0.077709
0.10233
0.10223
0.10134
0.10026
0.09833
0.096396
0.093167
0.09172
0.085235
0.086573
0.074727
0.07741
0.10241
0.1023
0.10141
0.10031
0.098358
0.096404
0.093125
0.091657
0.08511
0.086379
0.074562
0.077113
0.10248
0.10237
0.10147
0.10036
0.098388
0.096413
0.093084
0.091593
0.084986
0.086185
0.074398
0.076818
0.10256
0.10244
0.10154
0.10041
0.098418
0.096422
0.093042
0.09153
0.084863
0.08599
0.074235
0.076524
0.10264
0.10252
0.10161
0.10047
0.098449
0.096432
0.093002
0.091466
0.08474
0.085796
0.074073
0.076232
0.10272
0.1026
0.10168
0.10052
0.098482
0.096443
0.092962
0.091402
0.084618
0.085601
0.073911
0.075941
0.1028
0.10268
0.10175
0.10058
0.098515
0.096455
0.092922
0.091338
0.084497
0.085405
0.073751
0.075651
0.10288
0.10276
0.10182
0.10064
0.098549
0.096468
0.092883
0.091273
0.084377
0.08521
0.073591
0.075362
0.10297
0.10284
0.1019
0.1007
0.098585
0.096482
0.092844
0.091209
0.084257
0.085014
0.073432
0.075074
0.10306
0.10292
0.10197
0.10076
0.098621
0.096496
0.092807
0.091144
0.084139
0.084818
0.073273
0.074787
0.10314
0.10301
0.10205
0.10082
0.098659
0.096512
0.09277
0.091079
0.08402
0.084622
0.073115
0.074501
0.10324
0.1031
0.10213
0.10089
0.098698
0.096529
0.092733
0.091015
0.083903
0.084426
0.072958
0.074216
0.10333
0.10319
0.10221
0.10095
0.098739
0.096546
0.092698
0.09095
0.083787
0.084229
0.0728
0.073931
0.10342
0.10328
0.1023
0.10102
0.098781
0.096565
0.092663
0.090885
0.083671
0.084032
0.072643
0.073647
0.10352
0.10338
0.10238
0.10109
0.098824
0.096585
0.092629
0.09082
0.083556
0.083835
0.072486
0.073364
0.10362
0.10347
0.10247
0.10116
0.098869
0.096607
0.092596
0.090755
0.083441
0.083637
0.072329
0.07308
0.10372
0.10357
0.10256
0.10124
0.098915
0.096629
0.092564
0.09069
0.083328
0.083439
0.072172
0.072797
0.10382
0.10367
0.10265
0.10131
0.098963
0.096653
0.092532
0.090625
0.083215
0.083241
0.072015
0.072515
0.10393
0.10378
0.10274
0.10139
0.099013
0.096678
0.092502
0.09056
0.083103
0.083043
0.071858
0.072232
0.10404
0.10388
0.10284
0.10147
0.099065
0.096705
0.092474
0.090495
0.082992
0.082844
0.071701
0.07195
0.10415
0.10399
0.10294
0.10156
0.099118
0.096733
0.092446
0.090431
0.082881
0.082645
0.071543
0.071667
0.10426
0.1041
0.10304
0.10164
0.099173
0.096763
0.092419
0.090366
0.082772
0.082446
0.071385
0.071384
0.10438
0.10422
0.10315
0.10173
0.099231
0.096794
0.092394
0.090302
0.082663
0.082246
0.071227
0.071101
0.1045
0.10434
0.10325
0.10182
0.099291
0.096827
0.092371
0.090238
0.082555
0.082046
0.071068
0.070817
0.10462
0.10446
0.10336
0.10191
0.099352
0.096862
0.092348
0.090174
0.082447
0.081846
0.070908
0.070533
0.10475
0.10458
0.10348
0.10201
0.099417
0.096899
0.092328
0.090111
0.082341
0.081645
0.070748
0.070248
0.10488
0.10471
0.10359
0.10211
0.099483
0.096938
0.092309
0.090048
0.082235
0.081444
0.070586
0.069962
0.10501
0.10484
0.10371
0.10221
0.099552
0.096979
0.092291
0.089985
0.08213
0.081243
0.070424
0.069676
0.10515
0.10497
0.10384
0.10231
0.099624
0.097022
0.092276
0.089923
0.082026
0.081041
0.070261
0.069388
0.10529
0.10511
0.10396
0.10242
0.099699
0.097067
0.092262
0.089862
0.081923
0.080839
0.070097
0.0691
0.10543
0.10525
0.10409
0.10253
0.099777
0.097115
0.09225
0.089801
0.08182
0.080636
0.069932
0.06881
0.10558
0.10539
0.10423
0.10265
0.099858
0.097165
0.09224
0.089741
0.081719
0.080433
0.069766
0.068519
0.10573
0.10554
0.10436
0.10277
0.099941
0.097217
0.092233
0.089681
0.081618
0.08023
0.069598
0.068226
0.10588
0.1057
0.10451
0.10289
0.10003
0.097273
0.092228
0.089622
0.081518
0.080026
0.069429
0.067932
0.10604
0.10586
0.10465
0.10302
0.10012
0.097331
0.092225
0.089564
0.081419
0.079822
0.069259
0.067636
0.10621
0.10602
0.1048
0.10315
0.10021
0.097392
0.092224
0.089507
0.081321
0.079617
0.069087
0.067338
0.10638
0.10619
0.10496
0.10329
0.10031
0.097456
0.092227
0.089451
0.081224
0.079412
0.068913
0.067038
0.10655
0.10636
0.10512
0.10343
0.10041
0.097524
0.092232
0.089396
0.081128
0.079206
0.068738
0.066736
0.10673
0.10654
0.10528
0.10357
0.10052
0.097595
0.092239
0.089343
0.081033
0.079
0.068561
0.066432
0.10691
0.10672
0.10545
0.10372
0.10063
0.097669
0.09225
0.08929
0.080939
0.078794
0.068382
0.066125
0.1071
0.10691
0.10563
0.10388
0.10075
0.097747
0.092264
0.089239
0.080846
0.078586
0.068201
0.065816
0.1073
0.1071
0.10581
0.10404
0.10087
0.097829
0.092281
0.08919
0.080754
0.078379
0.068018
0.065504
0.1075
0.1073
0.106
0.1042
0.10099
0.097915
0.092302
0.089142
0.080663
0.078171
0.067832
0.065189
0.1077
0.10751
0.10619
0.10438
0.10112
0.098005
0.092326
0.089095
0.080573
0.077962
0.067645
0.064871
0.10792
0.10772
0.10639
0.10455
0.10126
0.0981
0.092354
0.089051
0.080485
0.077753
0.067455
0.06455
0.10814
0.10794
0.1066
0.10474
0.1014
0.098199
0.092386
0.089008
0.080397
0.077543
0.067262
0.064225
0.10836
0.10817
0.10681
0.10493
0.10155
0.098302
0.092421
0.088967
0.080311
0.077333
0.067067
0.063897
0.10859
0.1084
0.10703
0.10513
0.1017
0.098411
0.092461
0.088928
0.080226
0.077122
0.066868
0.063564
0.10883
0.10864
0.10726
0.10533
0.10186
0.098525
0.092506
0.088891
0.080142
0.07691
0.066667
0.063228
0.10908
0.10889
0.10749
0.10554
0.10203
0.098644
0.092554
0.088857
0.080059
0.076697
0.066463
0.062888
0.10934
0.10915
0.10773
0.10576
0.1022
0.098769
0.092608
0.088825
0.079978
0.076484
0.066256
0.062543
0.1096
0.10941
0.10798
0.10599
0.10238
0.0989
0.092666
0.088796
0.079898
0.07627
0.066046
0.062194
0.10987
0.10968
0.10824
0.10623
0.10257
0.099036
0.092729
0.088769
0.079819
0.076055
0.065832
0.06184
0.11015
0.10997
0.10851
0.10647
0.10276
0.099179
0.092798
0.088745
0.079742
0.07584
0.065614
0.061481
0.11044
0.11026
0.10879
0.10672
0.10296
0.099328
0.092872
0.088723
0.079666
0.075623
0.065393
0.061116
0.11074
0.11056
0.10907
0.10698
0.10317
0.099484
0.092951
0.088705
0.079591
0.075405
0.065167
0.060746
0.11105
0.11087
0.10937
0.10725
0.10339
0.099646
0.093036
0.08869
0.079517
0.075187
0.064938
0.06037
0.11137
0.11119
0.10968
0.10754
0.10362
0.099816
0.093127
0.088677
0.079445
0.074967
0.064704
0.059988
0.11169
0.11152
0.10999
0.10783
0.10386
0.099994
0.093224
0.088668
0.079374
0.074745
0.064465
0.059599
0.11203
0.11186
0.11032
0.10813
0.10411
0.10018
0.093328
0.088663
0.079304
0.074523
0.064222
0.059204
0.11238
0.11222
0.11066
0.10844
0.10436
0.10037
0.093438
0.08866
0.079236
0.074298
0.063973
0.058802
0.11274
0.11258
0.11101
0.10876
0.10463
0.10057
0.093554
0.088661
0.079168
0.074072
0.063719
0.058392
0.11311
0.11296
0.11137
0.10909
0.10491
0.10078
0.093677
0.088666
0.079102
0.073845
0.06346
0.057974
0.11349
0.11335
0.11174
0.10944
0.10519
0.101
0.093807
0.088674
0.079037
0.073615
0.063195
0.057548
0.11389
0.11375
0.11213
0.1098
0.10549
0.10123
0.093944
0.088686
0.078972
0.073382
0.062923
0.057113
0.11429
0.11416
0.11253
0.11016
0.1058
0.10146
0.094088
0.088701
0.078908
0.073148
0.062645
0.05667
0.11471
0.11459
0.11294
0.11055
0.10612
0.10171
0.09424
0.08872
0.078845
0.072911
0.06236
0.056217
0.11515
0.11503
0.11336
0.11094
0.10646
0.10196
0.094399
0.088742
0.078782
0.07267
0.062068
0.055754
0.11559
0.11549
0.1138
0.11135
0.1068
0.10222
0.094566
0.088768
0.07872
0.072427
0.061768
0.05528
0.11605
0.11596
0.11426
0.11177
0.10716
0.1025
0.09474
0.088798
0.078657
0.07218
0.06146
0.054796
0.11653
0.11644
0.11473
0.11221
0.10754
0.10278
0.094922
0.088831
0.078595
0.071929
0.061143
0.0543
0.11702
0.11694
0.11522
0.11266
0.10792
0.10308
0.095112
0.088868
0.078532
0.071673
0.060817
0.053791
0.11752
0.11746
0.11572
0.11313
0.10832
0.10338
0.095311
0.088908
0.078468
0.071414
0.060481
0.05327
0.11804
0.11799
0.11624
0.11361
0.10874
0.1037
0.095517
0.088952
0.078404
0.071148
0.060135
0.052736
0.11858
0.11854
0.11677
0.11411
0.10917
0.10403
0.095732
0.088998
0.078338
0.070878
0.059778
0.052187
0.11913
0.11911
0.11733
0.11463
0.10961
0.10437
0.095955
0.089048
0.078271
0.070601
0.05941
0.051623
0.1197
0.11969
0.1179
0.11517
0.11007
0.10472
0.096187
0.089101
0.078202
0.070317
0.059029
0.051044
0.12029
0.1203
0.11849
0.11572
0.11055
0.10508
0.096427
0.089157
0.078131
0.070027
0.058636
0.050448
0.1209
0.12092
0.1191
0.11629
0.11104
0.10546
0.096676
0.089215
0.078057
0.069728
0.058229
0.049835
0.12153
0.12157
0.11974
0.11688
0.11156
0.10585
0.096934
0.089276
0.077979
0.069422
0.057807
0.049204
0.12218
0.12224
0.12039
0.11749
0.11209
0.10626
0.097201
0.089339
0.077899
0.069106
0.05737
0.048554
0.12285
0.12293
0.12107
0.11813
0.11264
0.10667
0.097478
0.089405
0.077814
0.06878
0.056917
0.047883
0.12354
0.12364
0.12178
0.11878
0.11321
0.10711
0.097763
0.089472
0.077724
0.068443
0.056446
0.047191
0.12426
0.12438
0.12251
0.11946
0.1138
0.10755
0.098059
0.089542
0.07763
0.068096
0.055958
0.046477
0.125
0.12514
0.12326
0.12017
0.11441
0.10802
0.098364
0.089613
0.077529
0.067736
0.05545
0.04574
0.12577
0.12594
0.12405
0.1209
0.11505
0.1085
0.098679
0.089686
0.077423
0.067363
0.054922
0.044977
0.12657
0.12676
0.12486
0.12166
0.11571
0.109
0.099006
0.08976
0.07731
0.066976
0.054372
0.044189
0.1274
0.12761
0.12571
0.12245
0.1164
0.10951
0.099343
0.089835
0.077189
0.066574
0.0538
0.043373
0.12825
0.1285
0.12659
0.12327
0.11712
0.11005
0.099691
0.089912
0.07706
0.066157
0.053204
0.042529
0.12915
0.12943
0.12751
0.12413
0.11787
0.11061
0.10005
0.08999
0.076923
0.065722
0.052583
0.041654
0.13008
0.13039
0.12847
0.12502
0.11865
0.11119
0.10042
0.090068
0.076776
0.065269
0.051935
0.040748
0.13104
0.13139
0.12947
0.12595
0.11946
0.11179
0.10081
0.090148
0.076619
0.064797
0.051259
0.039808
0.13205
0.13244
0.13051
0.12693
0.12031
0.11242
0.10121
0.090228
0.076451
0.064304
0.050554
0.038832
0.13311
0.13353
0.1316
0.12795
0.12119
0.11307
0.10162
0.090308
0.076271
0.063789
0.049816
0.037819
0.13421
0.13468
0.13275
0.12902
0.12212
0.11376
0.10205
0.090388
0.076077
0.063251
0.049046
0.036767
0.13536
0.13588
0.13395
0.13014
0.12309
0.11447
0.1025
0.090468
0.075869
0.062687
0.04824
0.035673
0.13657
0.13713
0.13522
0.13132
0.12411
0.11522
0.10296
0.090547
0.075645
0.062095
0.047396
0.034535
0.13783
0.13846
0.13654
0.13255
0.12518
0.116
0.10343
0.090625
0.075403
0.061474
0.046511
0.033351
0.13916
0.13985
0.13794
0.13386
0.12631
0.11682
0.10393
0.090699
0.075141
0.06082
0.045584
0.032117
0.14055
0.14131
0.13941
0.13523
0.12749
0.11768
0.10444
0.090769
0.074856
0.06013
0.044609
0.030831
0.14202
0.14285
0.14097
0.13668
0.12873
0.11857
0.10496
0.090833
0.074546
0.059402
0.043585
0.029489
0.14355
0.14447
0.1426
0.13821
0.13004
0.11951
0.1055
0.090889
0.074206
0.058629
0.042506
0.028087
0.14517
0.14618
0.14433
0.13982
0.13141
0.12049
0.10606
0.090934
0.073833
0.057809
0.041368
0.026621
0.14688
0.14799
0.14616
0.14153
0.13286
0.12152
0.10663
0.090963
0.073422
0.056935
0.040165
0.025087
0.14867
0.14989
0.14809
0.14333
0.13438
0.12259
0.10721
0.090973
0.072965
0.056
0.038891
0.023478
0.15055
0.1519
0.15013
0.14523
0.13598
0.12371
0.10779
0.090959
0.072458
0.054998
0.037539
0.021789
0.15253
0.15402
0.15229
0.14724
0.13765
0.12486
0.10838
0.090912
0.07189
0.053921
0.036101
0.020012
0.15461
0.15627
0.15457
0.14936
0.13941
0.12606
0.10897
0.090827
0.071254
0.052758
0.034568
0.018141
0.1568
0.15863
0.15698
0.1516
0.14126
0.1273
0.10954
0.090694
0.070539
0.0515
0.03293
0.016166
0.1591
0.16113
0.15953
0.15397
0.14319
0.12858
0.1101
0.090502
0.069732
0.050134
0.031177
0.014077
0.16151
0.16377
0.16223
0.15647
0.1452
0.12989
0.11063
0.090239
0.068822
0.048648
0.029296
0.011865
0.16405
0.16656
0.16509
0.15911
0.14731
0.13122
0.11113
0.089892
0.067792
0.047029
0.027275
0.0095177
0.16672
0.16951
0.16812
0.1619
0.14951
0.13257
0.11157
0.089443
0.066627
0.045261
0.0251
0.007023
0.16952
0.17264
0.17134
0.16484
0.15179
0.13394
0.11195
0.088874
0.065307
0.043326
0.022756
0.0043685
0.17247
0.17596
0.17476
0.16795
0.15417
0.13529
0.11224
0.088163
0.063812
0.041207
0.020229
0.001541
0.17558
0.17949
0.17841
0.17125
0.15664
0.13663
0.11243
0.087284
0.062116
0.038884
0.0175
-0.0014729
0.17886
0.18324
0.18231
0.17473
0.15919
0.13794
0.11247
0.086205
0.060192
0.036331
0.014552
-0.0046869
0.18233
0.18726
0.18649
0.17843
0.16183
0.13918
0.11234
0.084888
0.058004
0.033523
0.011364
-0.0081152
0.186
0.19157
0.19099
0.18235
0.16453
0.14032
0.11199
0.083286
0.055513
0.030426
0.0079116
-0.011773
0.18989
0.1962
0.19583
0.18651
0.16728
0.14132
0.11137
0.081344
0.05267
0.027003
0.004168
-0.015675
0.19401
0.20119
0.20106
0.19091
0.17005
0.14212
0.1104
0.078994
0.049417
0.023208
0.00010085
-0.01984
0.19836
0.20658
0.2067
0.19555
0.17278
0.14264
0.109
0.076152
0.045685
0.018988
-0.0043267
-0.024287
0.20297
0.2124
0.21279
0.2004
0.17541
0.14277
0.10705
0.072724
0.041396
0.014284
-0.0091552
-0.029037
0.2078
0.21869
0.21933
0.20541
0.17781
0.14238
0.10443
0.068598
0.036466
0.0090346
-0.014426
-0.034108
0.21285
0.22545
0.22631
0.21051
0.17984
0.14129
0.10098
0.063653
0.030807
0.0031794
-0.020176
-0.039515
0.21808
0.23269
0.23367
0.21552
0.18128
0.1393
0.096521
0.057759
0.024334
-0.0033313
-0.026429
-0.04526
0.22343
0.24038
0.2413
0.22023
0.18184
0.13613
0.09085
0.050786
0.016975
-0.010527
-0.033186
-0.051323
0.22885
0.24842
0.24895
0.22426
0.18114
0.13146
0.083748
0.042611
0.0086816
-0.018406
-0.040413
-0.057656
0.23428
0.25663
0.25621
0.22708
0.17866
0.12492
0.074993
0.033133
-0.00056137
-0.026928
-0.048036
-0.06417
0.23968
0.26466
0.26236
0.22784
0.17372
0.11608
0.064378
0.022299
-0.01072
-0.036006
-0.05594
-0.070748
0.24509
0.27188
0.26619
0.22533
0.16547
0.10448
0.051755
0.010126
-0.021694
-0.045506
-0.063972
-0.077242
0.25063
0.27717
0.26578
0.21781
0.15283
0.089706
0.037084
-0.0032486
-0.033293
-0.055238
-0.071953
-0.083501
0.25662
0.27876
0.25825
0.20292
0.13457
0.071384
0.020475
-0.017546
-0.045226
-0.064957
-0.07969
-0.089388
0.26364
0.27413
0.23975
0.17777
0.10933
0.049268
0.0021804
-0.032372
-0.057121
-0.074383
-0.086997
-0.094802
0.27249
0.26042
0.20618
0.13947
0.075961
0.023238
-0.017493
-0.047325
-0.068619
-0.083258
-0.093723
-0.09969
0.28336
0.23426
0.15459
0.086434
0.033924
-0.0066711
-0.038319
-0.062152
-0.079504
-0.091436
-0.09981
-0.10408
0.29628
0.18932
0.081337
0.017814
-0.017143
-0.040833
-0.060625
-0.077117
-0.089996
-0.099123
-0.10547
-0.10825
0.32112
0.12646
-0.013498
-0.064966
-0.076816
-0.080082
-0.085695
-0.093495
-0.10123
-0.10729
-0.11154
-0.11294
0.36956
0.063348
-0.11416
-0.15013
-0.1375
-0.12059
-0.11215
-0.11108
-0.11343
-0.11624
-0.11835
-0.11835
0.10419
0.064985
0.054895
0.048834
0.044577
0.041274
0.038536
0.036014
0.033812
0.031338
0.029548
0.026096
0.12377
0.080496
0.06796
0.059909
0.054331
0.050068
0.046582
0.0434
0.040662
0.03757
0.035426
0.031261
0.11096
0.075208
0.063859
0.055942
0.05045
0.046284
0.04291
0.039848
0.03726
0.034296
0.032357
0.028262
0.10586
0.074827
0.063801
0.055793
0.050169
0.045895
0.042448
0.039322
0.036712
0.033691
0.031784
0.027488
0.10524
0.077005
0.065815
0.057586
0.051717
0.047232
0.043615
0.040336
0.037614
0.034446
0.032476
0.027921
0.10461
0.078829
0.067561
0.059194
0.053124
0.048457
0.04469
0.041273
0.038448
0.03515
0.033114
0.028363
0.10351
0.080114
0.068916
0.060492
0.054274
0.049458
0.045564
0.042031
0.039119
0.035719
0.033624
0.028742
0.10234
0.081171
0.070131
0.061702
0.055368
0.050421
0.046412
0.042773
0.03978
0.036296
0.034145
0.029192
0.10125
0.082085
0.071273
0.062883
0.056463
0.051401
0.047285
0.043549
0.040481
0.03693
0.034726
0.02976
0.10021
0.082849
0.072328
0.064021
0.057551
0.052393
0.048182
0.044361
0.041224
0.037624
0.035375
0.030451
0.099201
0.083462
0.073285
0.065104
0.05862
0.053389
0.049098
0.045204
0.042007
0.038378
0.036094
0.031268
0.098223
0.083937
0.074142
0.066124
0.059661
0.054383
0.050029
0.046078
0.042833
0.039194
0.036886
0.032206
0.097278
0.08429
0.0749
0.067073
0.060665
0.055368
0.05097
0.046978
0.043696
0.040067
0.037747
0.033257
0.096368
0.084539
0.075562
0.067949
0.061625
0.056333
0.051912
0.047896
0.044591
0.04099
0.038668
0.034404
0.095493
0.084696
0.076132
0.06875
0.062533
0.057271
0.052845
0.048823
0.045508
0.041952
0.039639
0.035628
0.094654
0.084778
0.076619
0.069475
0.063385
0.058173
0.053762
0.04975
0.046438
0.042943
0.040646
0.036907
0.093853
0.084796
0.077028
0.070127
0.064179
0.059036
0.054654
0.050668
0.04737
0.043949
0.041676
0.038217
0.093088
0.084762
0.077368
0.070711
0.064914
0.059854
0.055517
0.05157
0.048296
0.04496
0.042714
0.039537
0.09236
0.084686
0.077646
0.07123
0.065592
0.060626
0.056344
0.052448
0.049207
0.045964
0.043748
0.040847
0.091667
0.084575
0.07787
0.071689
0.066213
0.061351
0.057134
0.053299
0.050096
0.046952
0.044767
0.042129
0.091008
0.084437
0.078046
0.072094
0.066781
0.062029
0.057884
0.054117
0.050959
0.047916
0.045762
0.04337
0.090381
0.084277
0.07818
0.072449
0.067298
0.062661
0.058593
0.054901
0.05179
0.048849
0.046725
0.044559
0.089784
0.0841
0.078277
0.072759
0.067768
0.063248
0.059262
0.055648
0.052587
0.049747
0.047652
0.045688
0.089215
0.08391
0.078344
0.073029
0.068194
0.063792
0.05989
0.056358
0.053349
0.050607
0.048538
0.046751
0.088673
0.083709
0.078382
0.073261
0.06858
0.064296
0.060479
0.057029
0.054073
0.051425
0.049381
0.047748
0.088156
0.083501
0.078398
0.073462
0.068928
0.064761
0.061031
0.057664
0.05476
0.052201
0.05018
0.048676
0.087661
0.083287
0.078392
0.073632
0.069242
0.065191
0.061545
0.058261
0.05541
0.052935
0.050934
0.049537
0.087188
0.083069
0.078369
0.073776
0.069524
0.065586
0.062025
0.058822
0.056023
0.053625
0.051644
0.050334
0.086734
0.082847
0.07833
0.073896
0.069776
0.065949
0.062472
0.059349
0.0566
0.054274
0.052311
0.051069
0.086299
0.082624
0.078277
0.073994
0.070002
0.066282
0.062887
0.059841
0.057143
0.054882
0.052935
0.051745
0.08588
0.0824
0.078213
0.074073
0.070203
0.066586
0.063272
0.060302
0.057652
0.055451
0.05352
0.052367
0.085477
0.082176
0.078138
0.074134
0.070381
0.066865
0.063629
0.060731
0.058129
0.055983
0.054066
0.052939
0.085088
0.081952
0.078055
0.074178
0.070537
0.067118
0.063959
0.06113
0.058575
0.056478
0.054575
0.053463