/*--------------------------------*- C++ -*----------------------------------*\
  =========                 |
  \\      /  F ield         | OpenFOAM: The Open Source CFD Toolbox
   \\    /   O peration     | Website:  https://openfoam.org
    \\  /    A nd           | Version:  6.0
     \\/     M anipulation  |
\*---------------------------------------------------------------------------*/
FoamFile
{
    version     2.0;
    format      ascii;
    class       surfaceScalarField;
    location    "19";
    object      phi;
}
// * * * * * * * * * * * * * * * * * * * * * * * * * * * * * * * * * * * * * //

dimensions      [0 3 -1 0 0 0 0];

internalField   nonuniform List<scalar> 
9714
(
-0.000106998
8.23696e-05
0.000112963
-9.86431e-05
0.000114503
-8.70406e-05
0.000159178
-7.08297e-05
0.000221295
-4.81835e-05
0.000307598
-1.63847e-05
0.000427441
2.83514e-05
0.000593609
9.12485e-05
0.000823424
0.000179345
0.00113913
0.000301852
0.00156634
0.000469637
0.00212568
0.000692698
0.00280471
0.000971038
0.00347922
0.00127072
0.00371667
0.00238053
0.00144353
-0.000100669
7.67996e-05
0.000106207
-9.292e-05
0.000106761
-8.21685e-05
0.000148403
-6.71485e-05
0.000206283
-4.61632e-05
0.000286601
-1.67058e-05
0.000397982
2.47477e-05
0.000552157
8.30261e-05
0.000765145
0.000164659
0.0010575
0.000278168
0.00145282
0.000433628
0.00197025
0.000640308
0.00259809
0.000898167
0.00322145
0.00117324
0.0034418
0.002217
0.00133767
-9.47906e-05
7.16371e-05
9.99102e-05
-8.76101e-05
9.95843e-05
-7.76454e-05
0.000138414
-6.37212e-05
0.000192365
-4.4268e-05
0.000267137
-1.69675e-05
0.000370677
2.14468e-05
0.000513744
7.54415e-05
0.000711149
0.000151064
0.000981867
0.000256218
0.00134768
0.000400234
0.00182625
0.00059172
0.00240664
0.000830705
0.00298247
0.00108607
0.0031864
0.00206031
0.00124241
-8.93097e-05
6.68551e-05
9.40537e-05
-8.26542e-05
9.29359e-05
-7.34254e-05
0.000129159
-6.05233e-05
0.00017947
-4.24999e-05
0.000249103
-1.72043e-05
0.000345377
1.83874e-05
0.000478153
6.84107e-05
0.000661122
0.000138473
0.000911802
0.000235889
0.00125025
0.000369332
0.00169282
0.000546789
0.00222923
0.00076838
0.00276095
0.0010057
0.00294926
0.00191365
0.00115315
-8.41868e-05
6.24245e-05
8.85774e-05
-7.80191e-05
8.6776e-05
-6.94717e-05
0.000120585
-5.75172e-05
0.000167523
-4.08213e-05
0.000232394
-1.73883e-05
0.000321939
1.55829e-05
0.000445182
6.1922e-05
0.000614781
0.000126819
0.000846894
0.00021707
0.00116
0.000340713
0.00156919
0.000505181
0.00206478
0.000710627
0.00255549
0.000931046
0.00272875
0.00177465
0.00106959
-7.9397e-05
5.83184e-05
8.3454e-05
-7.36839e-05
8.10675e-05
-6.57648e-05
0.00011264
-5.46891e-05
0.000156454
-3.92221e-05
0.000216916
-1.75169e-05
0.000300228
1.30217e-05
0.000414642
5.59398e-05
0.000571857
0.000116053
0.000786775
0.000199649
0.00107639
0.000314202
0.00145465
0.000466623
0.0019124
0.000657078
0.00236508
0.000861735
0.00252425
0.00164537
0.000991658
-7.49137e-05
5.45131e-05
7.8683e-05
-6.96136e-05
7.57779e-05
-6.228e-05
0.000105279
-5.20191e-05
0.000146201
-3.76962e-05
0.000202579
-1.75954e-05
0.000280121
1.06867e-05
0.000386359
5.04357e-05
0.000532105
0.000106107
0.000731091
0.000183542
0.000998957
0.000289667
0.00134853
0.00043092
0.00177116
0.000607485
0.00218847
0.000797454
0.00233416
0.00152347
0.00091883
-7.07477e-05
5.09856e-05
7.42261e-05
-6.58392e-05
7.08744e-05
-5.9043e-05
9.84563e-05
-4.95351e-05
0.000136698
-3.62638e-05
0.000189295
-1.76432e-05
0.000261493
8.55296e-06
0.000360161
4.53674e-05
0.000495284
9.69332e-05
0.000679517
0.000168654
0.00092722
0.000266973
0.00125022
0.000397876
0.00164029
0.000561573
0.00202481
0.000737868
0.002158
0.00141106
0.000850783
-6.6854e-05
4.77157e-05
7.00709e-05
-6.23019e-05
6.63287e-05
-5.60085e-05
9.21323e-05
-4.71974e-05
0.000127891
-3.49035e-05
0.000176986
-1.76547e-05
0.000244235
6.61044e-06
0.000335893
4.07092e-05
0.00046118
8.84655e-05
0.000631746
0.000154901
0.000860779
0.000245986
0.00115913
0.000367303
0.00151898
0.000519079
0.00187298
0.000682666
0.00199426
0.00130563
0.000787523
-6.32071e-05
4.46864e-05
6.61774e-05
-5.89912e-05
6.21166e-05
-5.31609e-05
8.62717e-05
-4.49973e-05
0.00011973
-3.36065e-05
0.000165579
-1.76277e-05
0.000228246
4.84765e-06
0.000313414
3.64282e-05
0.000429592
8.06604e-05
0.000587504
0.000142192
0.000799233
0.000226577
0.00107475
0.000339012
0.00140657
0.000479743
0.00173227
0.000631547
0.00184261
0.00120856
0.000728992
-5.97895e-05
4.18788e-05
6.2529e-05
-5.58823e-05
5.8212e-05
-5.04847e-05
8.08393e-05
-4.29203e-05
0.000112165
-3.2368e-05
0.000155009
-1.75656e-05
0.000213432
3.25284e-06
0.000292591
3.25017e-05
0.000400338
7.34631e-05
0.000546531
0.000130453
0.000742233
0.000208629
0.000996578
0.00031284
0.00130236
0.00044335
0.00160171
0.000584235
0.00170153
0.00111735
0.000674967
-5.65662e-05
3.92794e-05
5.91037e-05
-5.29474e-05
5.45963e-05
-4.79472e-05
7.5808e-05
-4.09408e-05
0.000105159
-3.11667e-05
0.000145219
-1.74584e-05
0.000199712
1.81989e-06
0.000273308
2.89033e-05
0.000373249
6.68335e-05
0.000508592
0.000119612
0.000689445
0.000192035
0.000924152
0.000288631
0.00120578
0.000409686
0.00148067
0.000540477
0.00157092
0.00103306
0.000625076
-5.35452e-05
3.68696e-05
5.58868e-05
-5.01891e-05
5.12445e-05
-4.55588e-05
7.1145e-05
-3.90672e-05
9.86668e-05
-3.00151e-05
0.000136149
-1.73198e-05
0.000187006
5.31024e-07
0.000255454
2.56079e-05
0.00034817
6.07275e-05
0.000473466
0.000109602
0.000640559
0.000176701
0.000857061
0.000266257
0.00111623
0.000378577
0.00136828
0.000500022
0.0014493
0.000953792
0.000578975
-5.0688e-05
3.46402e-05
5.28689e-05
-4.75794e-05
4.81435e-05
-4.32896e-05
6.68306e-05
-3.72814e-05
9.26589e-05
-2.89004e-05
0.000127756
-1.71497e-05
0.000175245
-6.23565e-07
0.000238929
2.25925e-05
0.000324958
5.51012e-05
0.000440944
0.000100365
0.000595288
0.000162536
0.000794879
0.000245583
0.00103317
0.000349838
0.00126402
0.000462654
0.00133667
0.000880374
0.000536334
-4.80445e-05
3.25693e-05
5.0032e-05
-4.51653e-05
4.52632e-05
-4.1196e-05
6.28252e-05
-3.56222e-05
8.70855e-05
-2.78557e-05
0.000119974
-1.69672e-05
0.000164351
-1.66011e-06
0.000223629
1.98209e-05
0.000303464
4.99214e-05
0.000410836
9.18384e-05
0.000553356
0.00014946
0.00073727
0.000226502
0.000956134
0.000323317
0.00116715
0.000428143
0.00123168
0.000811661
0.000496902
-4.55355e-05
3.06549e-05
4.74086e-05
-4.28641e-05
4.26008e-05
-3.91827e-05
5.91227e-05
-3.40268e-05
8.19313e-05
-2.68372e-05
0.000112776
-1.67555e-05
0.000154269
-2.60467e-06
0.000209462
1.72866e-05
0.000283572
4.51488e-05
0.000382956
8.39789e-05
0.000514516
0.000137395
0.000683841
0.000208899
0.0008846
0.000298849
0.00107717
0.000396296
0.00113439
0.000747783
0.000460422
-4.32661e-05
2.88715e-05
4.49538e-05
-4.07851e-05
4.01207e-05
-3.73724e-05
5.56759e-05
-3.25809e-05
7.71387e-05
-2.59043e-05
0.000106091
-1.65707e-05
0.000144917
-3.44839e-06
0.000196344
1.49556e-05
0.000265146
4.07563e-05
0.000357141
7.67316e-05
0.00047854
0.00012627
0.000634325
0.000192679
0.000818205
0.000276302
0.00099349
0.000366904
0.00104366
0.000688282
0.000426694
-4.10744e-05
2.72234e-05
4.26889e-05
-3.87632e-05
3.78294e-05
-3.55957e-05
5.2492e-05
-3.11586e-05
7.27102e-05
-2.49829e-05
9.99115e-05
-1.63337e-05
0.000136271
-4.21268e-06
0.0001842
1.28282e-05
0.000248101
3.6719e-05
0.000333244
7.00579e-05
0.000445198
0.000116018
0.00058835
0.000177739
0.00075642
0.000255531
0.000915625
0.000339799
0.000959479
0.000632759
0.000395501
-3.90872e-05
2.56865e-05
4.05596e-05
-3.69387e-05
3.56935e-05
-3.39949e-05
4.95276e-05
-2.98707e-05
6.85935e-05
-2.41344e-05
9.41763e-05
-1.61341e-05
0.000128255
-4.89043e-06
0.000172964
1.0875e-05
0.000232316
3.30011e-05
0.000311108
6.39074e-05
0.000414301
0.000106578
0.000545718
0.000164002
0.000699036
0.000236421
0.000843179
0.000314795
0.00088107
0.000581552
0.000366681
-3.71912e-05
2.42671e-05
3.86203e-05
-3.5187e-05
3.37214e-05
-3.24526e-05
4.67905e-05
-2.86325e-05
6.47901e-05
-2.33266e-05
8.88739e-05
-1.59031e-05
0.000120842
-5.51982e-06
0.000162555
9.08804e-06
0.000217711
2.95868e-05
0.000290608
5.82539e-05
0.000385636
9.78986e-05
0.000506052
0.000151379
0.000645445
0.000218845
0.000775602
0.000291745
0.000808178
0.00053335
0.000340031
-3.55249e-05
2.29361e-05
3.6791e-05
-3.36628e-05
3.18717e-05
-3.1116e-05
4.42267e-05
-2.75515e-05
6.12359e-05
-2.26052e-05
8.39333e-05
-1.57289e-05
0.000113951
-6.07318e-06
0.000152917
7.44657e-06
0.000204169
2.64463e-05
0.000271603
5.30531e-05
0.000359048
8.99253e-05
0.000469234
0.000139809
0.000595608
0.000202704
0.000712711
0.000270492
0.000740411
0.0004893
0.000315408
-3.38756e-05
2.1708e-05
3.51245e-05
-3.21348e-05
3.01649e-05
-2.97666e-05
4.18605e-05
-2.64626e-05
5.79529e-05
-2.18864e-05
7.93649e-05
-1.5495e-05
0.000107578
-6.58347e-06
0.000143978
5.95575e-06
0.00019164
2.35753e-05
0.000253988
4.82912e-05
0.000334332
8.26231e-05
0.000434856
0.000129215
0.00054884
0.000187887
0.000653888
0.000250904
0.00067731
0.00044747
0.000292634
-3.24055e-05
2.05555e-05
3.35272e-05
-3.07847e-05
2.85637e-05
-2.8572e-05
3.96446e-05
-2.54889e-05
5.48862e-05
-2.12208e-05
7.51103e-05
-1.53075e-05
0.000101654
-7.01209e-06
0.000135704
4.59507e-06
0.00018001
2.09435e-05
0.000237635
4.39273e-05
0.000311373
7.5946e-05
0.000402895
0.000119548
0.000505325
0.000174306
0.000599171
0.000232847
0.000618885
0.000409809
0.000271591
-3.09481e-05
1.94918e-05
3.20611e-05
-2.94334e-05
2.70862e-05
-2.73766e-05
3.75994e-05
-2.45192e-05
5.20525e-05
-2.05703e-05
7.11735e-05
-1.50686e-05
9.6171e-05
-7.41196e-06
0.000128018
3.37022e-06
0.000169245
1.85551e-05
0.000222453
3.99572e-05
0.00028996
6.98753e-05
0.000372902
0.000110736
0.000464208
0.000161862
0.000547897
0.0002162
0.000564417
0.000373643
0.000252124
-2.96674e-05
1.84882e-05
3.06357e-05
-2.82628e-05
2.56915e-05
-2.63389e-05
3.56728e-05
-2.36654e-05
4.93921e-05
-1.99743e-05
6.74925e-05
-1.48758e-05
9.10586e-05
-7.72792e-06
0.000120897
2.25874e-06
0.000159226
1.63792e-05
0.000208326
3.63422e-05
0.000270023
6.43659e-05
0.000344962
0.000102743
0.000425919
0.000150474
0.000500251
0.00020085
0.000514263
0.000341722
0.00023413
-2.83673e-05
1.75616e-05
2.93281e-05
-2.70571e-05
2.44033e-05
-2.527e-05
3.38918e-05
-2.27926e-05
4.69289e-05
-1.93744e-05
6.40794e-05
-1.46194e-05
8.63198e-05
-8.02277e-06
0.000114262
1.2758e-06
0.000149943
1.44268e-05
0.000195171
3.3089e-05
0.000251337
5.94059e-05
0.000318504
9.54992e-05
0.000389478
0.000140059
0.000455578
0.000186687
0.000467502
0.000310664
0.000217464
-2.72036e-05
1.66853e-05
2.80464e-05
-2.59863e-05
2.31854e-05
-2.43132e-05
3.22125e-05
-2.19949e-05
4.46152e-05
-1.87994e-05
6.08872e-05
-1.43974e-05
8.18976e-05
-8.23149e-06
0.000108113
3.92159e-07
0.000141276
1.26632e-05
0.000182894
3.01492e-05
0.000233891
5.49557e-05
0.000293831
8.8972e-05
0.000355614
0.000130534
0.000414209
0.000173616
0.000424822
0.00028389
0.000202048
-2.60078e-05
1.58791e-05
2.68709e-05
-2.48723e-05
2.20648e-05
-2.33211e-05
3.06652e-05
-2.11798e-05
4.24771e-05
-1.82264e-05
5.79284e-05
-1.41225e-05
7.77962e-05
-8.42801e-06
0.000102375
-3.70062e-07
0.000133243
1.11048e-05
0.000171418
2.75443e-05
0.000217426
5.10037e-05
0.000270164
8.30856e-05
0.000323116
0.000121821
0.000375459
0.000161529
0.000385043
0.000257502
0.000187749
-2.49774e-05
1.51101e-05
2.56988e-05
-2.39315e-05
2.09953e-05
-2.24757e-05
2.91933e-05
-2.04643e-05
4.04542e-05
-1.76935e-05
5.51475e-05
-1.38808e-05
7.39586e-05
-8.53825e-06
9.70556e-05
-1.0504e-06
0.000125713
9.71086e-06
0.000160683
2.52159e-05
0.000202015
4.75152e-05
0.000248049
7.78161e-05
0.000293027
0.000113848
0.000339766
0.000150356
0.000349226
0.000235509
0.000174508
-2.39144e-05
1.43983e-05
2.46275e-05
-2.29397e-05
2.00049e-05
-2.15859e-05
2.78293e-05
-1.97178e-05
3.85765e-05
-1.71451e-05
5.25631e-05
-1.35783e-05
7.03965e-05
-8.64142e-06
9.20823e-05
-1.61491e-06
0.000118747
8.50338e-06
0.000150584
2.31951e-05
0.000187275
4.44782e-05
0.000226469
7.30909e-05
0.000263938
0.000106546
0.000306423
0.00013999
0.000315857
0.00021348
0.000162199
-2.29522e-05
1.3722e-05
2.35726e-05
-2.20476e-05
1.90641e-05
-2.07723e-05
2.65378e-05
-1.90134e-05
3.68075e-05
-1.66019e-05
5.01419e-05
-1.32925e-05
6.70708e-05
-8.65439e-06
8.74865e-05
-2.12098e-06
0.000112185
7.42819e-06
0.000141114
2.14186e-05
0.000173472
4.18533e-05
0.000206368
6.88798e-05
0.000237215
9.98427e-05
0.000275984
0.000130381
0.000286215
0.000195443
0.000150783
-2.19719e-05
1.30912e-05
2.258e-05
-2.1125e-05
1.81876e-05
-1.99308e-05
2.53357e-05
-1.8294e-05
3.51605e-05
-1.60499e-05
4.78901e-05
-1.29556e-05
6.39858e-05
-8.67644e-06
8.31812e-05
-2.51747e-06
0.000106153
6.52504e-06
0.000132107
1.99274e-05
0.000159996
3.96137e-05
0.000186319
6.51062e-05
0.00021123
9.36664e-05
0.000247684
0.000121424
0.000258761
0.000177453
0.00014015
-2.10506e-05
1.24919e-05
2.16053e-05
-2.02622e-05
1.73554e-05
-1.91392e-05
2.41979e-05
-1.75966e-05
3.36095e-05
-1.54975e-05
4.57803e-05
-1.26358e-05
6.10994e-05
-8.59294e-06
7.92149e-05
-2.89094e-06
0.000100344
5.73015e-06
0.000123614
1.865e-05
0.000147303
3.77278e-05
0.000167653
6.17505e-05
0.000187632
8.79679e-05
0.000222354
0.000113095
0.000235065
0.00016326
0.000130276
-2.01383e-05
1.19273e-05
2.06757e-05
-1.94043e-05
1.65715e-05
-1.83487e-05
2.31279e-05
-1.69041e-05
3.21519e-05
-1.49556e-05
4.3797e-05
-1.22513e-05
5.84025e-05
-8.56482e-06
7.54128e-05
-3.12165e-06
9.50343e-05
5.09812e-06
0.000115291
1.76393e-05
0.000134543
3.61761e-05
0.000148648
5.87532e-05
0.000164575
8.26766e-05
0.000198941
0.000105287
0.000213261
0.000149178
0.000121058
-1.92964e-05
1.1385e-05
1.97701e-05
-1.86091e-05
1.58178e-05
-1.76104e-05
2.2101e-05
-1.62537e-05
3.07579e-05
-1.44063e-05
4.19125e-05
-1.19078e-05
5.58468e-05
-8.3767e-06
7.19158e-05
-3.35644e-06
8.97568e-05
4.5677e-06
0.000107477
1.68085e-05
0.000122651
3.49114e-05
0.000131177
5.60796e-05
0.000143906
7.77514e-05
0.00017831
9.8001e-05
0.000194508
0.000137515
0.000112489
-1.84549e-05
1.08703e-05
1.8906e-05
-1.7818e-05
1.51014e-05
-1.68799e-05
2.11271e-05
-1.56041e-05
2.94376e-05
-1.38338e-05
4.01518e-05
-1.14755e-05
5.34554e-05
-8.25072e-06
6.85303e-05
-3.40577e-06
8.50907e-05
4.21531e-06
9.96055e-05
1.62045e-05
0.00011028
3.39067e-05
0.000112982
5.36655e-05
0.000123702
7.31094e-05
0.000159693
9.11367e-05
0.000178001
0.000127064
0.000104478
-1.76608e-05
1.03775e-05
1.80674e-05
-1.70484e-05
1.44176e-05
-1.61691e-05
2.02014e-05
-1.48991e-05
2.82009e-05
-1.32694e-05
3.84781e-05
-1.10556e-05
5.12034e-05
-7.90757e-06
6.54611e-05
-3.49217e-06
8.02251e-05
3.9309e-06
9.22567e-05
1.57062e-05
9.87175e-05
3.31294e-05
9.63065e-05
5.15001e-05
0.000106063
6.8742e-05
0.000144064
8.47092e-05
0.000164156
0.000117947
9.70282e-05
-1.68566e-05
9.90219e-06
1.72448e-05
-1.62782e-05
1.37584e-05
-1.54167e-05
1.93153e-05
-1.4257e-05
2.70086e-05
-1.26695e-05
3.69028e-05
-1.05367e-05
4.90627e-05
-7.66716e-06
6.23891e-05
-3.35911e-06
7.60437e-05
3.79491e-06
8.44125e-05
1.54068e-05
8.63367e-05
3.25909e-05
7.8588e-05
4.95172e-05
8.88613e-05
6.45569e-05
0.000130552
7.86323e-05
0.000152892
0.000111243
9.00585e-05
-1.60877e-05
9.4388e-06
1.64478e-05
-1.55169e-05
1.3118e-05
-1.47057e-05
1.84565e-05
-1.35739e-05
2.58657e-05
-1.2078e-05
3.53609e-05
-1.00109e-05
4.7016e-05
-7.18431e-06
5.94981e-05
-3.29665e-06
7.13846e-05
3.66803e-06
7.753e-05
1.51417e-05
7.54796e-05
3.22801e-05
6.27685e-05
4.77167e-05
7.40417e-05
6.0565e-05
0.000119
7.29281e-05
0.000142143
0.000102944
8.35781e-05
-1.53311e-05
8.97968e-06
1.56688e-05
-1.47928e-05
1.24804e-05
-1.40097e-05
1.76074e-05
-1.29399e-05
2.47319e-05
-1.13906e-05
3.38936e-05
-9.43689e-06
4.49352e-05
-6.79293e-06
5.6539e-05
-2.93763e-06
6.78272e-05
3.69555e-06
6.96941e-05
1.50666e-05
6.28252e-05
3.21584e-05
4.52253e-05
4.59704e-05
6.02949e-05
5.66646e-05
0.00011088
6.75322e-05
0.000135765
9.98901e-05
7.75115e-05
-1.46336e-05
8.51904e-06
1.49151e-05
-1.40896e-05
1.18415e-05
-1.33362e-05
1.6757e-05
-1.22048e-05
2.3619e-05
-1.07692e-05
3.23681e-05
-8.77363e-06
4.28962e-05
-6.0354e-06
5.37175e-05
-2.71011e-06
6.30383e-05
3.59041e-06
6.35639e-05
1.49715e-05
5.20881e-05
3.23091e-05
2.97669e-05
4.43277e-05
4.90184e-05
5.28706e-05
0.000103605
6.24506e-05
0.000127614
9.20084e-05
7.18753e-05
-1.39276e-05
8.0548e-06
1.41936e-05
-1.33952e-05
1.11937e-05
-1.26148e-05
1.58992e-05
-1.15288e-05
2.24739e-05
-1.00124e-05
3.08597e-05
-7.99814e-06
4.072e-05
-5.4206e-06
5.08084e-05
-2.04554e-06
6.00146e-05
3.63791e-06
5.56423e-05
1.51514e-05
3.83771e-05
3.24874e-05
1.1971e-05
4.25311e-05
3.95516e-05
4.91022e-05
0.000101109
5.76495e-05
0.000125604
9.22541e-05
6.6592e-05
-1.32625e-05
7.5829e-06
1.35245e-05
-1.27041e-05
1.05341e-05
-1.19049e-05
1.50253e-05
-1.07813e-05
2.13198e-05
-9.27861e-06
2.92822e-05
-7.03458e-06
3.87541e-05
-4.43567e-06
4.77564e-05
-1.69165e-06
5.50687e-05
3.37734e-06
5.13745e-05
1.53591e-05
2.75716e-05
3.30067e-05
-2.71972e-06
4.06829e-05
3.19627e-05
4.53434e-05
9.62866e-05
5.3111e-05
0.00011764
8.35552e-05
6.16811e-05
-1.26559e-05
7.09071e-06
1.29298e-05
-1.20477e-05
9.84931e-06
-1.12053e-05
1.41318e-05
-1.00393e-05
2.01508e-05
-8.25668e-06
2.77703e-05
-6.16835e-06
3.60888e-05
-3.63004e-06
4.49147e-05
-7.9128e-07
5.33485e-05
3.32728e-06
4.41337e-05
1.60277e-05
1.08043e-05
3.28777e-05
-2.01161e-05
3.81826e-05
2.78743e-05
4.15551e-05
9.85623e-05
4.88199e-05
0.000118858
8.61399e-05
5.7054e-05
-1.20885e-05
6.58201e-06
1.24319e-05
-1.13988e-05
9.14101e-06
-1.04579e-05
1.32129e-05
-9.17299e-06
1.88896e-05
-7.54164e-06
2.58303e-05
-4.87292e-06
3.36944e-05
-2.4559e-06
4.1728e-05
-5.12499e-07
4.83654e-05
2.45605e-06
4.33255e-05
1.70466e-05
-1.47568e-07
3.24727e-05
-3.11925e-05
3.46534e-05
2.49157e-05
3.74356e-05
9.37774e-05
4.47181e-05
0.000109156
7.51339e-05
5.27837e-05
-1.16001e-05
6.0333e-06
1.20137e-05
-1.07985e-05
8.37493e-06
-9.91023e-06
1.21754e-05
-8.55637e-06
1.75576e-05
-6.38219e-06
2.36896e-05
-3.47135e-06
2.98338e-05
-1.57002e-06
3.99976e-05
5.19122e-07
4.87002e-05
3.6972e-06
3.65684e-05
2.08798e-05
-2.35778e-05
3.19839e-05
-4.35006e-05
3.07604e-05
2.81309e-05
3.32464e-05
9.84721e-05
4.07637e-05
0.00011194
7.92572e-05
4.87474e-05
-1.13368e-05
5.47431e-06
1.18092e-05
-1.06309e-05
7.56549e-06
-9.44114e-06
1.1239e-05
-8.31815e-06
1.6183e-05
-5.47835e-06
2.06272e-05
-1.06882e-06
2.63086e-05
-6.42838e-07
3.8245e-05
3.31678e-07
4.41165e-05
7.17577e-06
3.36238e-05
2.56945e-05
-3.68761e-05
3.1502e-05
-4.46319e-05
2.67715e-05
3.07658e-05
2.89582e-05
9.2128e-05
3.68199e-05
9.94899e-05
6.60553e-05
4.48063e-05
-1.13993e-05
4.97214e-06
1.18494e-05
-1.04611e-05
6.90796e-06
-9.93698e-06
1.04676e-05
-9.26057e-06
1.60165e-05
-3.82385e-06
1.55602e-05
1.28142e-06
1.99959e-05
-8.07747e-07
4.20238e-05
-1.01582e-06
4.88473e-05
8.89076e-06
1.85111e-05
2.5526e-05
-5.88051e-05
2.62141e-05
-4.68901e-05
2.17423e-05
3.86186e-05
2.50752e-05
9.73073e-05
3.31138e-05
0.00010353
7.12153e-05
4.11252e-05
-1.16853e-05
4.70955e-06
1.20746e-05
-1.15046e-05
6.70301e-06
-1.19683e-05
1.16395e-05
-1.44698e-05
1.83643e-05
-1.29161e-06
2.23711e-06
5.02771e-06
1.50977e-05
-4.13004e-07
4.52518e-05
-2.54552e-06
4.60246e-05
1.09035e-05
1.08752e-05
2.43667e-05
-6.81979e-05
1.96465e-05
-3.7801e-05
1.59511e-05
3.88636e-05
2.08911e-05
8.54414e-05
2.9471e-05
8.7185e-05
5.53374e-05
3.78682e-05
-1.14045e-05
4.56152e-06
1.1799e-05
-1.16201e-05
7.41596e-06
-1.88259e-05
1.88571e-05
-1.52479e-05
1.57434e-05
4.1237e-06
-1.68051e-05
8.09788e-06
9.75845e-06
2.00394e-06
5.39059e-05
-7.30824e-07
5.49708e-05
1.58013e-05
-1.01072e-05
2.24794e-05
-7.74112e-05
1.23249e-05
-2.82506e-05
9.72375e-06
4.61231e-05
1.671e-05
8.74732e-05
2.60242e-05
9.05282e-05
5.84005e-05
3.51959e-05
-6.75531e-06
2.97567e-06
8.73076e-06
-7.0807e-06
8.24416e-06
-1.93994e-05
3.26491e-05
-4.53759e-07
-3.38014e-06
9.7604e-06
-2.68614e-05
1.1796e-05
9.08984e-06
4.58132e-06
5.89512e-05
6.02488e-07
5.53877e-05
2.10236e-05
-2.60996e-05
2.06201e-05
-7.42087e-05
7.48556e-06
-1.1937e-05
4.42067e-06
4.54759e-05
1.2108e-05
7.1893e-05
2.24059e-05
7.18009e-05
4.10061e-05
3.24013e-05
1.77973e-06
-1.15958e-07
1.78639e-06
6.22315e-06
4.62164e-06
6.75295e-07
3.83572e-05
1.06596e-05
-1.2554e-05
5.67457e-06
-2.16728e-05
4.99145e-06
8.22901e-06
3.81707e-06
6.30645e-05
6.72737e-06
5.76313e-05
2.55421e-05
-4.71565e-05
1.72305e-05
-6.69488e-05
3.4242e-06
2.82186e-06
7.52357e-07
5.20341e-05
8.43901e-06
7.20261e-05
1.88387e-05
7.15328e-05
3.94942e-05
2.9219e-05
5.31813e-06
-3.12769e-06
-2.15971e-06
1.24931e-05
-2.2627e-06
1.33665e-05
3.88998e-05
1.36245e-05
-1.3161e-05
2.7619e-06
-1.05613e-05
-3.94445e-06
1.67332e-05
8.31436e-06
4.92054e-05
1.80575e-05
4.44273e-05
2.46207e-05
-4.8921e-05
1.0858e-05
-4.86885e-05
-3.89174e-06
2.0174e-05
-3.86162e-06
4.8043e-05
5.27836e-06
5.38465e-05
1.54395e-05
5.18012e-05
2.07478e-05
2.52953e-05
2.41641e-06
-5.35038e-06
-8.84375e-08
9.99153e-06
-9.38373e-06
2.71925e-05
2.10509e-05
1.30056e-05
1.88438e-06
2.50256e-06
3.22685e-08
-1.00866e-05
2.77018e-05
1.34872e-05
2.77496e-05
3.268e-05
3.07738e-05
2.3762e-05
-4.03125e-05
7.3637e-06
-3.01324e-05
-7.255e-06
3.64348e-05
-5.21559e-06
4.68522e-05
2.67307e-06
4.93431e-05
1.22897e-05
4.63357e-05
1.38315e-05
2.05374e-05
-7.27668e-06
-4.60814e-06
6.39398e-06
-5.77164e-06
-1.09136e-05
1.24737e-05
3.52791e-06
6.29579e-06
7.70646e-06
1.80415e-06
4.90823e-06
-4.14099e-06
3.51612e-05
1.45651e-05
9.35704e-06
3.9349e-05
3.98122e-06
1.96508e-05
-1.41786e-05
3.7044e-06
-9.40898e-06
-8.48692e-06
5.04754e-05
-5.8567e-06
3.99912e-05
1.42894e-06
3.36662e-05
1.06777e-05
2.73675e-05
1.95632e-07
1.51828e-05
-3.82362e-06
-2.40983e-06
2.21298e-06
-7.37081e-06
-7.03222e-06
-4.83885e-06
1.07606e-06
-3.40133e-06
6.97391e-06
-5.90664e-06
7.80922e-06
-1.09908e-06
3.03386e-05
8.20928e-06
8.72231e-07
1.96312e-05
-4.53927e-06
5.90443e-06
6.78771e-07
-8.55302e-06
5.95801e-06
-7.22492e-06
5.01873e-05
-3.19674e-06
3.34531e-05
2.35719e-06
2.56522e-05
1.04375e-05
1.62275e-05
-3.88327e-06
1.06449e-05
-9.61114e-06
-9.11544e-07
8.53741e-06
-1.49681e-05
-1.2216e-06
-1.66645e-05
3.29705e-06
-1.52328e-05
5.89143e-06
-1.70513e-05
1.00869e-05
-9.48987e-06
2.33405e-05
-1.06764e-05
4.41965e-06
-8.70621e-06
-7.55119e-06
-1.32005e-05
6.94255e-06
-1.58456e-05
9.99111e-06
2.6557e-06
3.29746e-05
6.25479e-06
2.60444e-05
6.69126e-06
1.78925e-05
1.13389e-05
2.74985e-06
-6.45409e-06
7.72856e-06
-2.10751e-05
1.98427e-06
1.88033e-05
-2.55923e-05
3.64577e-06
-2.64615e-05
4.67549e-06
-2.64577e-05
6.53227e-06
-2.60822e-05
1.03177e-05
-1.89367e-05
1.70727e-05
-2.16292e-05
9.6218e-06
-1.85201e-05
-9.1331e-06
-1.35063e-05
3.21806e-06
-8.98419e-06
6.88974e-06
1.15483e-05
1.3889e-05
1.77301e-05
1.59941e-05
1.53958e-05
1.02014e-05
1.24276e-05
-4.86069e-06
-5.99379e-06
5.88088e-06
-3.03276e-05
2.21301e-06
3.03329e-05
-3.01522e-05
3.90284e-06
-2.97916e-05
4.90738e-06
-2.818e-05
5.68382e-06
-2.38675e-05
6.83658e-06
-1.51687e-05
9.62463e-06
-1.2679e-05
1.09619e-05
-8.74351e-06
-8.25971e-06
-1.57767e-06
-3.47544e-07
2.38278e-06
6.20488e-06
1.5482e-05
3.21065e-06
2.5434e-05
1.7801e-06
2.2931e-05
2.49403e-07
1.20163e-05
-5.74479e-06
-4.03501e-06
3.83791e-06
-3.44909e-05
3.69524e-05
-3.03843e-05
-2.52885e-05
-1.94663e-05
-1.25207e-05
-2.70271e-06
8.35739e-06
1.59427e-07
-1.61264e-07
6.05776e-06
9.26261e-06
1.10348e-05
1.12788e-05
5.53251e-06
1.49576e-06
0.00144661
5.08622e-05
0.00145027
5.02231e-05
0.00145488
4.96035e-05
0.00146028
4.90228e-05
0.00146619
4.85838e-05
0.00147245
4.82788e-05
0.00147898
4.80751e-05
0.00148566
4.79613e-05
0.00149224
4.8067e-05
4.86032e-05
0.00149823
0.00133957
4.90015e-05
0.00134292
4.68962e-05
0.00134723
4.53216e-05
0.00135214
4.41383e-05
0.00135755
4.31974e-05
0.00136348
4.23636e-05
0.00137004
4.1539e-05
0.00137736
4.06608e-05
0.0013859
3.95499e-05
3.82468e-05
0.00139626
0.00124165
4.97935e-05
0.00124236
4.62157e-05
0.00124426
4.34509e-05
0.00124718
4.12379e-05
0.00125098
3.94184e-05
0.00125548
3.788e-05
0.00126051
3.65257e-05
0.00126588
3.53061e-05
0.00127128
3.41578e-05
3.32313e-05
0.0012763
0.00115319
4.97876e-05
0.00115446
4.49796e-05
0.00115675
4.11845e-05
0.00115985
3.81568e-05
0.0011636
3.56855e-05
0.00116789
3.36052e-05
0.00117266
3.17611e-05
0.00117794
3.0037e-05
0.0011839
2.82099e-05
2.65008e-05
0.00119063
0.00107025
4.91559e-05
0.00107181
4.34528e-05
0.00107409
3.89283e-05
0.00107694
3.53216e-05
0.00108027
3.23645e-05
0.00108405
2.98378e-05
0.00108826
2.75581e-05
0.00109288
2.54125e-05
0.00109796
2.31417e-05
2.12458e-05
0.00110321
0.000992444
4.84045e-05
0.000993998
4.19269e-05
0.000996144
3.67996e-05
0.000998774
3.27044e-05
0.00100183
2.93226e-05
0.00100527
2.63955e-05
0.00100913
2.3707e-05
0.0010134
2.11412e-05
0.00101822
1.83318e-05
1.57444e-05
0.00102372
0.000919796
4.74706e-05
0.000921442
4.03004e-05
0.00092358
3.46715e-05
0.000926105
3.01831e-05
0.000928954
2.64716e-05
0.000932104
2.32445e-05
0.000935554
2.02526e-05
0.000939338
1.73584e-05
0.00094347
1.4204e-05
1.11633e-05
0.000948049
0.00085197
4.63063e-05
0.000853757
3.85337e-05
0.000855944
3.24838e-05
0.000858428
2.76948e-05
0.000861145
2.37489e-05
0.000864065
2.03156e-05
0.00086719
1.7124e-05
0.000870552
1.39921e-05
0.000874145
1.06193e-05
7.35408e-06
0.00087796
0.000788828
4.50522e-05
0.000790659
3.67267e-05
0.00079285
3.03202e-05
0.000795275
2.5288e-05
0.00079787
2.11672e-05
0.000800613
1.75922e-05
0.000803494
1.42537e-05
0.000806566
1.09434e-05
0.000809809
7.4108e-06
3.94163e-06
0.000813233
0.000730231
4.38702e-05
0.000731987
3.5032e-05
0.000734072
2.8285e-05
0.00073637
2.30392e-05
0.000738812
1.87727e-05
0.000741368
1.50773e-05
0.000744047
1.16205e-05
0.000746898
8.1374e-06
0.000749882
4.46808e-06
7.52549e-07
0.000753091
0.000676086
4.2782e-05
0.00067769
3.3462e-05
0.000679602
2.64069e-05
0.000681701
2.0965e-05
0.000683927
1.65701e-05
0.00068626
1.27656e-05
0.00068871
9.19022e-06
0.000691342
5.52607e-06
0.000694109
1.7385e-06
-2.31545e-06
0.00069718
0.000626085
4.17804e-05
0.000627521
3.20352e-05
0.000629222
2.47129e-05
0.000631082
1.9113e-05
0.00063305
1.46135e-05
0.000635117
1.07056e-05
0.000637312
7.00775e-06
0.000639723
3.12672e-06
0.000642268
-8.01721e-07
-5.29425e-06
0.000645239
0.000579941
4.07802e-05
0.000581238
3.07062e-05
0.000582729
2.31886e-05
0.000584328
1.74807e-05
0.000586001
1.29017e-05
0.000587773
8.90187e-06
0.000589682
5.07126e-06
0.000591848
9.44442e-07
0.000594174
-3.12866e-06
-8.15432e-06
0.000597043
0.000537304
3.97587e-05
0.000538486
2.94687e-05
0.000539775
2.18622e-05
0.000541107
1.61272e-05
0.000542475
1.15158e-05
0.000543935
7.44008e-06
0.000545547
3.44974e-06
0.000547472
-9.8211e-07
0.000549581
-5.24593e-06
-1.10372e-05
0.000552428
0.000497924
3.86361e-05
0.000499026
2.82622e-05
0.000500125
2.06631e-05
0.000501183
1.49606e-05
0.000502236
1.03645e-05
0.000503369
6.21896e-06
0.000504682
2.0799e-06
0.00050636
-2.68229e-06
0.000508253
-7.13529e-06
-1.37784e-05
0.000511059
0.000461512
3.74414e-05
0.000462542
2.71347e-05
0.000463452
1.96769e-05
0.000464237
1.41184e-05
0.000464965
9.60276e-06
0.000465774
5.39207e-06
0.000466794
1.06268e-06
0.000468241
-4.12792e-06
0.000469945
-8.82657e-06
-1.66445e-05
0.00047274
0.00042787
3.61125e-05
0.000428835
2.5992e-05
0.000429558
1.87484e-05
0.000430065
1.33908e-05
0.000430464
8.98718e-06
0.00043096
4.72807e-06
0.000431693
2.4299e-07
0.000432927
-5.35224e-06
0.000434445
-1.02801e-05
-1.91912e-05
0.000437174
0.000396757
3.47418e-05
0.000397641
2.49553e-05
0.000398173
1.80976e-05
0.000398394
1.30672e-05
0.000398464
8.82768e-06
0.000398665
4.51803e-06
0.000399128
-2.3187e-07
0.000400173
-6.34813e-06
0.000401546
-1.16256e-05
-2.19167e-05
0.000404158
0.000368005
3.32509e-05
0.00036881
2.38829e-05
0.000369148
1.74041e-05
0.000369083
1.26896e-05
0.000368847
8.64177e-06
0.000368766
4.2815e-06
0.000368989
-5.93032e-07
0.000369861
-7.1247e-06
0.000371071
-1.26257e-05
-2.39885e-05
0.00037355
0.000341412
3.17726e-05
0.000342107
2.30061e-05
0.000342242
1.71037e-05
0.000341896
1.28592e-05
0.000341357
9.03579e-06
0.000341027
4.57595e-06
0.000341035
-6.05242e-07
0.000341764
-7.76645e-06
0.000342836
-1.36561e-05
-2.65484e-05
0.000345205
0.000316828
3.02422e-05
0.000317405
2.208e-05
0.000317344
1.66656e-05
0.000316734
1.28128e-05
0.000315926
9.19368e-06
0.00031538
4.68132e-06
0.000315196
-6.12329e-07
0.000315811
-8.16093e-06
0.000316724
-1.42106e-05
-2.81291e-05
0.000318894
0.000294071
2.8761e-05
0.000294504
2.14621e-05
0.000294242
1.68133e-05
0.000293379
1.35257e-05
0.000292318
1.01244e-05
0.000291594
5.43252e-06
0.000291247
-2.95189e-07
0.000291779
-8.58773e-06
0.000292556
-1.51084e-05
-3.04141e-05
0.00029449
0.00027302
2.73373e-05
0.00027331
2.07796e-05
0.000272865
1.66447e-05
0.000271782
1.37236e-05
0.000270511
1.05128e-05
0.000269636
5.73002e-06
0.000269151
-8.14674e-08
0.000269615
-8.70366e-06
0.000270239
-1.52241e-05
-3.12633e-05
0.00027192
0.000253514
2.59578e-05
0.000253635
2.05079e-05
0.000253007
1.72557e-05
0.00025172
1.4935e-05
0.000250261
1.19028e-05
0.000249271
6.80369e-06
0.000248681
4.53397e-07
0.000249111
-9.05793e-06
0.000249609
-1.60221e-05
-3.32286e-05
0.000251026
0.000235459
2.47845e-05
0.000235412
2.01358e-05
0.000234634
1.73967e-05
0.000233186
1.53852e-05
0.000231575
1.24878e-05
0.000230496
7.29708e-06
0.000229814
8.01264e-07
0.000230231
-8.94657e-06
0.000230611
-1.579e-05
-3.33635e-05
0.000231742
0.000218702
2.35942e-05
0.000218478
2.02697e-05
0.000217548
1.84821e-05
0.000215957
1.70717e-05
0.00021422
1.4302e-05
0.00021307
8.65323e-06
0.000212333
1.50049e-06
0.000212742
-9.2977e-06
0.000213065
-1.6616e-05
-3.49121e-05
0.000213878
0.000203183
2.27084e-05
0.000202791
2.02759e-05
0.000201753
1.88361e-05
0.000200063
1.76611e-05
0.000198224
1.50307e-05
0.000197016
9.21809e-06
0.000196224
1.96841e-06
0.000196649
-9.10548e-06
0.00019694
-1.61417e-05
-3.42756e-05
0.000197392
0.000188767
2.17773e-05
0.000188198
2.07891e-05
0.00018706
2.02407e-05
0.000185288
1.96281e-05
0.000183369
1.70796e-05
0.000182128
1.07298e-05
0.000181287
2.80464e-06
0.000181723
-9.41339e-06
0.000182032
-1.69794e-05
-3.51439e-05
0.000182127
0.000175404
2.12663e-05
0.000174685
2.11322e-05
0.000173504
2.0681e-05
0.000171685
2.02548e-05
0.000169703
1.78748e-05
0.000168435
1.13733e-05
0.000167551
3.45059e-06
0.000168026
-9.0373e-06
0.000168372
-1.6267e-05
-3.35433e-05
0.000168092
0.000162975
2.0656e-05
0.000162106
2.19503e-05
0.00016089
2.22354e-05
0.000159039