/*--------------------------------*- C++ -*----------------------------------*\
  =========                 |
  \\      /  F ield         | OpenFOAM: The Open Source CFD Toolbox
   \\    /   O peration     | Website:  https://openfoam.org
    \\  /    A nd           | Version:  6.0
     \\/     M anipulation  |
\*---------------------------------------------------------------------------*/
FoamFile
{
    version     2.0;
    format      ascii;
    class       volVectorField;
    location    "19";
    object      U;
}
// * * * * * * * * * * * * * * * * * * * * * * * * * * * * * * * * * * * * * //

dimensions      [0 1 -1 0 0 0 0];

internalField   nonuniform List<vector> 
4920
(
(0.99617 0.0879002 -7.0345e-20)
(0.996169 0.0879114 1.13563e-19)
(0.996165 0.0879154 -3.20203e-19)
(0.996159 0.0879135 4.50942e-19)
(0.99615 0.0879064 1.48112e-19)
(0.996137 0.0878915 -1.8796e-19)
(0.996118 0.0878621 4.63343e-19)
(0.996088 0.087811 -1.03475e-19)
(0.996038 0.0877281 2.32952e-19)
(0.99595 0.0875865 1.53817e-18)
(0.995793 0.0873313 -2.31507e-18)
(0.995507 0.0868512 2.89466e-18)
(0.995023 0.0858932 1.40828e-18)
(0.99442 0.083725 6.3093e-19)
(0.989185 0.0773617 -6.50991e-18)
(0.996018 0.0892847 4.81884e-20)
(0.996021 0.0892801 -2.94617e-19)
(0.996017 0.0892766 1.44047e-19)
(0.996004 0.0892592 6.51212e-20)
(0.99598 0.0892329 3.13062e-19)
(0.995941 0.0891819 1.10461e-19)
(0.995882 0.0890997 -9.15727e-19)
(0.995796 0.0889599 1.97439e-20)
(0.99567 0.0887453 2.9006e-19)
(0.995472 0.0884076 -2.88957e-18)
(0.995155 0.0878561 3.90556e-18)
(0.994633 0.0868876 -5.77648e-18)
(0.993802 0.0850696 5.23396e-19)
(0.993112 0.0811519 1.36201e-17)
(0.986961 0.0728082 1.99649e-17)
(0.995735 0.0907756 3.33657e-20)
(0.995736 0.0907514 -2.81467e-19)
(0.995726 0.090727 9.3368e-20)
(0.995701 0.0906812 2.26979e-19)
(0.995659 0.0906191 -6.77274e-19)
(0.99559 0.0905173 1.73302e-19)
(0.995489 0.0903713 2.57423e-19)
(0.99535 0.0901406 -5.86666e-19)
(0.995168 0.0897985 7.88269e-19)
(0.994927 0.0892852 -8.50129e-19)
(0.994615 0.0885122 1.99124e-18)
(0.994217 0.0872871 -2.71943e-18)
(0.993691 0.085307 -2.57697e-18)
(0.99399 0.0816322 -5.64874e-18)
(0.99033 0.0777222 -1.01932e-17)
(0.995324 0.0923761 1.08941e-20)
(0.995314 0.0923235 -9.16463e-20)
(0.995289 0.0922726 1.42083e-19)
(0.995246 0.0921978 -2.26653e-19)
(0.995178 0.0920983 8.56866e-20)
(0.995074 0.0919454 3.02281e-19)
(0.994926 0.0917307 7.2877e-19)
(0.994729 0.0914028 -2.74947e-19)
(0.994486 0.0909201 3.78879e-19)
(0.994195 0.0902061 2.20383e-18)
(0.993887 0.0891687 -3.86775e-18)
(0.993628 0.0876189 1.89856e-18)
(0.993438 0.0853695 4.04838e-18)
(0.994722 0.0818096 -1.40911e-17)
(0.99308 0.0798977 -1.58928e-18)
(0.994787 0.0940698 9.16467e-20)
(0.994764 0.0939917 -2.13202e-19)
(0.994719 0.0939103 -3.25748e-20)
(0.994649 0.0937997 -1.14697e-19)
(0.994546 0.0936571 -6.62564e-23)
(0.994399 0.0934502 3.72324e-19)
(0.994196 0.0931634 -1.79075e-19)
(0.993931 0.0927327 -1.13708e-18)
(0.993608 0.0921005 4.44413e-20)
(0.993239 0.0911629 -1.88723e-18)
(0.992883 0.0898118 -1.0582e-20)
(0.99268 0.0878444 3.04665e-18)
(0.992694 0.0851005 -2.47856e-18)
(0.994677 0.0811492 3.72334e-18)
(0.994733 0.079317 -5.75505e-18)
(0.994082 0.0958568 3.73632e-20)
(0.994052 0.0957637 1.09887e-19)
(0.993988 0.0956529 -3.53973e-19)
(0.99389 0.0955011 2.83133e-19)
(0.99375 0.0953067 1.93056e-19)
(0.993553 0.0950365 -4.03533e-19)
(0.993286 0.0946693 3.06568e-19)
(0.992944 0.0941283 1.16036e-18)
(0.99253 0.0933352 3.48877e-19)
(0.992064 0.0921572 7.98943e-19)
(0.991635 0.0904635 3.86741e-18)
(0.99146 0.0880353 -1.03779e-18)
(0.991669 0.0847269 -5.96031e-18)
(0.994279 0.08028 -4.51361e-18)
(0.996035 0.078626 -1.70186e-18)
(0.993189 0.0977131 -6.30534e-21)
(0.993155 0.0976027 1.15483e-19)
(0.993075 0.0974722 -1.81724e-19)
(0.992951 0.0972851 -8.96663e-20)
(0.992771 0.0970402 4.3856e-19)
(0.992521 0.0967045 -2.46586e-19)
(0.992185 0.0962504 2.09031e-19)
(0.991757 0.0955884 -1.853e-18)
(0.991241 0.0946232 1.3609e-18)
(0.990667 0.0931867 6.6404e-20)
(0.990154 0.0911182 -3.50335e-18)
(0.99 0.0881915 -4.63151e-19)
(0.990444 0.0842843 4.95381e-18)
(0.993724 0.0793793 3.74036e-17)
(0.997012 0.0780764 1.17812e-17)
(0.992053 0.0996718 -1.6754e-20)
(0.992018 0.0995647 7.17367e-20)
(0.991929 0.0994138 -1.7327e-19)
(0.991786 0.0991877 4.54718e-19)
(0.991574 0.0988833 9.54174e-20)
(0.991274 0.0984694 -2.76215e-19)
(0.99087 0.0979144 -7.15735e-20)
(0.990353 0.0971183 5.76624e-19)
(0.989728 0.0959642 -5.34651e-19)
(0.989032 0.0942503 2.43664e-19)
(0.988414 0.0917758 5.26934e-18)
(0.988256 0.088291 1.6562e-19)
(0.988944 0.0836895 1.43843e-17)
(0.99293 0.0782613 -5.10099e-17)
(0.997549 0.0771261 -9.85674e-18)
(0.990698 0.101669 4.4844e-20)
(0.990655 0.101542 -1.78203e-19)
(0.990554 0.101377 1.05887e-19)
(0.99039 0.101125 -9.59108e-20)
(0.990146 0.100775 -1.02899e-19)
(0.989799 0.100294 -1.20229e-19)
(0.989324 0.0996424 6.04997e-19)
(0.988715 0.0987076 -4.39478e-19)
(0.987971 0.0973583 8.15495e-19)
(0.987141 0.0953519 -2.62766e-18)
(0.986396 0.0924385 -5.16574e-19)
(0.986201 0.0883381 -4.6737e-18)
(0.987122 0.0829214 -1.07808e-17)
(0.991843 0.0768368 2.32613e-18)
(0.997799 0.0758435 9.57078e-18)
(0.989124 0.103774 -3.96612e-20)
(0.989063 0.103647 2.96922e-20)
(0.988944 0.103456 -1.03538e-19)
(0.988755 0.103165 -7.90003e-20)
(0.988477 0.102758 4.85916e-20)
(0.98808 0.102198 -5.6165e-20)
(0.987534 0.10144 3.75864e-19)
(0.986826 0.100358 -3.98516e-19)
(0.985958 0.0988015 1.04837e-19)
(0.98498 0.0964903 -2.41449e-19)
(0.984095 0.0931179 -1.22016e-19)
(0.983849 0.0883587 4.18507e-20)
(0.98502 0.0820325 -1.78346e-18)
(0.99054 0.0751899 1.52781e-17)
(0.99804 0.074565 -9.38971e-19)
(0.987363 0.105921 -3.61457e-22)
(0.987268 0.105769 -1.41683e-20)
(0.987118 0.105554 -2.52894e-19)
(0.986893 0.105233 4.14183e-19)
(0.986571 0.104782 2.99534e-19)
(0.986116 0.104153 -5.12022e-19)
(0.98549 0.103293 1.87898e-19)
(0.984677 0.102061 -3.19158e-19)
(0.983674 0.100291 -2.82754e-20)
(0.982541 0.0976609 3.27217e-18)
(0.981513 0.0938032 -2.49326e-18)
(0.981223 0.0883579 -2.49027e-18)
(0.982695 0.0810715 1.46444e-18)
(0.989117 0.0734324 -1.44154e-17)
(0.998418 0.0734848 1.37922e-18)
(0.985414 0.108201 5.33338e-21)
(0.985271 0.108053 1.83488e-19)
(0.985077 0.107799 -8.38688e-20)
(0.984804 0.107429 -2.23852e-19)
(0.984426 0.10691 1.39145e-19)
(0.983902 0.106192 1.84429e-20)
(0.983186 0.105216 -2.07289e-19)
(0.982256 0.103821 -4.46965e-19)
(0.981109 0.101821 -4.12827e-19)
(0.979811 0.0988514 -2.61277e-18)
(0.978638 0.0944826 -4.63534e-18)
(0.978325 0.0883185 1.11241e-17)
(0.980181 0.0800345 -4.34923e-18)
(0.98764 0.0715998 3.8105e-17)
(0.998944 0.0724759 -1.03217e-17)
(0.983281 0.110531 2.93975e-20)
(0.98308 0.110365 3.04568e-20)
(0.982828 0.110083 1.24168e-19)
(0.982493 0.109676 1.08226e-19)
(0.982045 0.109102 -1.50954e-19)
(0.981437 0.108301 3.31771e-19)
(0.980614 0.10721 -2.83497e-19)
(0.979553 0.10564 -4.95547e-20)
(0.978245 0.103393 2.37817e-19)
(0.976768 0.100054 8.53958e-19)
(0.975452 0.0951241 3.89474e-18)
(0.975135 0.0881924 5.14881e-18)
(0.977461 0.0788612 1.65987e-17)
(0.986105 0.0696479 -3.17921e-17)
(0.999565 0.0713845 1.4801e-17)
(0.980917 0.113043 -6.23875e-20)
(0.980654 0.112887 -1.47915e-20)
(0.980339 0.112556 1.70257e-19)
(0.979934 0.112088 -5.43626e-20)
(0.979405 0.111433 1.05114e-19)
(0.978701 0.110526 6.32563e-20)
(0.977757 0.109296 -4.5913e-19)
(0.976544 0.107532 1.78379e-19)
(0.975058 0.105011 -4.65196e-19)
(0.973389 0.101258 2.05124e-18)
(0.971917 0.095709 -9.59874e-19)
(0.971611 0.087931 -8.61923e-18)
(0.974506 0.0774692 -2.19621e-17)
(0.984495 0.0674671 1.00312e-17)
(1.00024 0.0699835 -2.53339e-18)
(0.97832 0.115632 3.11368e-20)
(0.977988 0.115456 3.51703e-20)
(0.9776 0.115091 -2.73592e-19)
(0.977114 0.114576 5.47566e-19)
(0.976491 0.113854 -1.80924e-19)
(0.975674 0.112846 1.46432e-19)
(0.974587 0.11148 -1.32654e-19)
(0.973205 0.109508 -5.07744e-19)
(0.971525 0.106675 2.09263e-18)
(0.969642 0.102459 -2.18312e-18)
(0.968 0.0962103 2.1141e-18)
(0.967711 0.0874772 -2.9172e-18)
(0.971279 0.0757738 1.32374e-17)
(0.982772 0.0649582 -1.04075e-17)
(1.00095 0.0682499 -4.96022e-18)
(0.975447 0.118455 1.78446e-20)
(0.975049 0.118273 1.37111e-19)
(0.974586 0.117849 -2.31068e-19)
(0.974012 0.117263 1.131e-19)
(0.973282 0.116449 -1.78004e-19)
(0.972332 0.11532 2.40057e-20)
(0.971084 0.113791 9.24327e-19)
(0.969518 0.111571 -1.55713e-18)
(0.96762 0.108389 -5.8214e-20)
(0.965497 0.103655 2.52708e-18)
(0.963657 0.0966132 -6.77501e-18)
(0.963393 0.086786 1.39604e-18)
(0.967755 0.0736955 -2.03534e-19)
(0.980943 0.0620263 2.46119e-17)
(1.00171 0.0660796 -5.14482e-18)
(0.972272 0.121391 9.48847e-21)
(0.971805 0.121203 -4.2493e-22)
(0.971262 0.120744 -7.54244e-20)
(0.970593 0.1201 2.87168e-19)
(0.969749 0.119199 -2.18082e-19)
(0.968657 0.11794 1.10902e-19)
(0.967234 0.116223 1.97661e-19)
(0.965458 0.113735 -5.73011e-19)
(0.963314 0.11016 6.12466e-19)
(0.960914 0.104841 -4.49042e-18)
(0.958847 0.0968948 5.10522e-18)
(0.958625 0.0858063 1.90726e-18)
(0.963927 0.0711722 -2.57205e-18)
(0.979008 0.0586242 -1.01906e-17)
(1.00255 0.0635129 1.24215e-17)
(0.968801 0.124594 7.74462e-20)
(0.968268 0.124383 -1.70546e-19)
(0.967642 0.123855 1.50743e-19)
(0.966871 0.123129 8.19934e-20)
(0.965899 0.12212 -2.78893e-19)
(0.964646 0.120716 2.25128e-19)
(0.963021 0.118796 -2.53523e-19)
(0.961003 0.116009 2.23209e-19)
(0.95857 0.111996 3.61106e-18)
(0.955844 0.106015 -2.29362e-18)
(0.953522 0.0970348 -1.22452e-18)
(0.953369 0.0844839 -1.39044e-18)
(0.959804 0.0681434 -8.464e-19)
(0.977008 0.0546903 -1.33905e-17)
(1.00349 0.0604812 -6.62131e-18)
(0.96499 0.128036 8.32911e-21)
(0.9644 0.127799 6.15193e-20)
(0.963696 0.127204 -2.18628e-19)
(0.962821 0.126395 4.79558e-19)
(0.96171 0.125266 -1.72111e-19)
(0.960276 0.123696 2.7747e-19)
(0.95842 0.121543 1.71995e-19)
(0.956114 0.118421 6.88175e-19)
(0.953339 0.113909 -1.19692e-18)
(0.950243 0.107168 2.62605e-18)
(0.947647 0.0970028 7.93741e-18)
(0.947614 0.0827604 8.87893e-18)
(0.955406 0.0645587 -1.50159e-17)
(0.974977 0.0502394 2.6649e-17)
(1.00459 0.057132 -1.07425e-18)
(0.960781 0.131915 -6.54814e-20)
(0.96015 0.131602 6.02846e-20)
(0.959378 0.130889 -6.7629e-20)
(0.9584 0.129962 -1.40236e-19)
(0.957142 0.128684 2.93612e-19)
(0.955508 0.126916 -7.98737e-19)
(0.953385 0.124494 -4.36801e-19)
(0.950748 0.120991 2.29852e-19)
(0.947579 0.115898 1.22161e-19)
(0.94407 0.10828 1.36242e-18)
(0.941177 0.0967563 -1.34664e-17)
(0.941324 0.080552 -4.54128e-18)
(0.950769 0.060352 1.08497e-17)
(0.97299 0.0452397 -2.04519e-17)
(1.00589 0.0534173 -1.27752e-18)
(0.956128 0.136115 5.57418e-20)
(0.955448 0.135779 -2.02289e-20)
(0.954607 0.134957 -2.20946e-19)
(0.953527 0.133893 1.94024e-19)
(0.952122 0.132425 5.28998e-19)
(0.950277 0.13042 -2.49565e-19)
(0.947873 0.127676 -6.06415e-20)
(0.944857 0.123721 -1.17507e-18)
(0.941243 0.117961 -1.10252e-18)
(0.937274 0.109326 5.90542e-19)
(0.934068 0.0962494 1.11885e-17)
(0.93449 0.0777682 -7.31044e-19)
(0.945943 0.0554651 1.00836e-18)
(0.97108 0.0396918 9.02421e-18)
(1.00742 0.0494128 8.83515e-19)
(0.951064 0.140672 -6.2967e-21)
(0.950328 0.140236 4.06435e-20)
(0.949411 0.139281 -2.44051e-19)
(0.948219 0.13807 -1.67988e-19)
(0.946652 0.136413 -6.46548e-20)
(0.944577 0.134152 4.6278e-19)
(0.941848 0.131063 1.86742e-19)
(0.938406 0.126617 1.80104e-18)
(0.934282 0.120073 2.40951e-18)
(0.929796 0.110258 -9.62604e-19)
(0.926259 0.0953981 -7.16055e-19)
(0.927084 0.0742807 5.70178e-18)
(0.94098 0.049815 6.6344e-18)
(0.969312 0.0335399 1.63583e-17)
(1.0092 0.0450188 3.57559e-19)
(0.945518 0.145495 1.02718e-20)
(0.944728 0.145048 3.06371e-20)
(0.943738 0.143978 3.3122e-20)
(0.942433 0.142617 -1.96211e-19)
(0.940694 0.140737 8.32647e-20)
(0.938362 0.138194 7.5287e-19)
(0.935275 0.134702 -1.33021e-18)
(0.931341 0.129669 -8.97722e-19)
(0.926629 0.122226 -1.56164e-19)
(0.921571 0.111035 -1.23341e-18)
(0.917699 0.0941271 -3.21116e-18)
(0.919132 0.0699757 -4.27319e-18)
(0.935964 0.0433472 9.73259e-18)
(0.967753 0.0268597 -9.8292e-18)
(1.01129 0.0403675 -9.11705e-21)
(0.939472 0.150673 -8.79094e-21)
(0.938634 0.150101 3.53741e-20)
(0.937571 0.148897 -1.21352e-20)
(0.936143 0.147402 4.53488e-20)
(0.934211 0.145327 -4.09377e-20)
(0.931591 0.142485 -5.60595e-19)
(0.928089 0.138562 6.42572e-19)
(0.923606 0.132891 -1.06337e-19)
(0.91822 0.12437 -5.19078e-18)
(0.912533 0.11157 5.02135e-19)
(0.908337 0.092304 -9.14723e-18)
(0.910639 0.0646797 -1.32066e-17)
(0.930998 0.0359949 -3.14225e-17)
(0.966486 0.0196246 1.22892e-19)
(1.01368 0.0353967 -1.56183e-19)
(0.932852 0.156181 -1.23803e-20)
(0.931955 0.155635 -3.41351e-20)
(0.930815 0.154301 7.52937e-20)
(0.929261 0.152636 -3.67492e-19)
(0.927126 0.150298 3.63525e-19)
(0.924192 0.147113 -4.80991e-19)
(0.920243 0.142674 3.98572e-19)
(0.915129 0.136237 2.23777e-18)
(0.908985 0.126486 -3.05772e-19)
(0.90263 0.111808 3.14815e-18)
(0.89815 0.0898322 -4.71273e-18)
(0.901679 0.0582588 1.50151e-17)
(0.926196 0.0277063 1.34269e-17)
(0.965567 0.0119004 -2.30963e-17)
(1.01643 0.0302608 -6.94763e-20)
(0.925733 0.162005 -1.41733e-21)
(0.924758 0.161315 -1.56105e-20)
(0.923522 0.159852 -7.58658e-20)
(0.921815 0.158049 -2.11292e-19)
(0.919445 0.155493 4.07569e-19)
(0.916161 0.151952 1.13795e-19)
(0.911685 0.146982 1.02327e-18)
(0.905872 0.139727 -4.11757e-18)
(0.898877 0.128484 1.5807e-18)
(0.891817 0.111626 -8.81468e-18)
(0.887097 0.0865125 6.57447e-18)
(0.892323 0.0505334 -1.29125e-17)
(0.921675 0.0184198 3.53947e-17)
(0.965053 0.00361714 2.66607e-17)
(1.01948 0.0248568 1.32969e-18)
(0.918048 0.168139 6.03291e-21)
(0.916985 0.167499 -4.33316e-20)
(0.915646 0.165891 -1.02802e-19)
(0.913778 0.163901 1.63289e-20)
(0.911153 0.161054 2.99266e-19)
(0.907465 0.157127 -4.2072e-20)
(0.902406 0.151531 -1.2613e-18)
(0.895794 0.143294 2.36432e-18)
(0.887855 0.130354 1.98988e-18)
(0.880077 0.110979 5.43091e-18)
(0.875213 0.0822516 -1.16259e-18)
(0.882754 0.0414222 2.08453e-17)
(0.917603 0.00816992 -1.86412e-21)
(0.965035 -0.00503767 1.65801e-17)
(1.02292 0.0193984 -1.221e-18)
(0.909864 0.174559 8.69174e-21)
(0.90873 0.173685 -1.05777e-19)
(0.90728 0.17196 -6.2006e-20)
(0.905215 0.16988 9.87462e-20)
(0.902276 0.16684 -4.72776e-19)
(0.898119 0.162528 -7.40817e-19)
(0.892375 0.156283 1.82294e-19)
(0.884887 0.146962 2.04858e-18)
(0.875909 0.131963 1.45029e-18)
(0.867394 0.109699 3.72591e-18)
(0.862515 0.076787 5.88476e-18)
(0.873125 0.0307737 -1.71908e-18)
(0.914124 -0.00303539 -4.0909e-17)
(0.965559 -0.0140804 -1.18679e-17)
(1.02664 0.0138337 1.36326e-19)
(0.901047 0.181387 6.47342e-21)
(0.899842 0.180619 -1.54411e-19)
(0.898282 0.17875 -2.20844e-20)
(0.896017 0.176477 8.51164e-20)
(0.892747 0.173108 4.5842e-19)
(0.888078 0.168323 3.72541e-19)
(0.881606 0.161268 -3.88058e-19)
(0.873107 0.150631 -8.33809e-19)
(0.863025 0.133329 -1.50899e-18)
(0.853778 0.107762 -1.06614e-17)
(0.849061 0.0699897 3.07242e-19)
(0.863671 0.0185316 -2.19241e-17)
(0.911368 -0.0151619 1.96809e-17)
(0.966691 -0.0233316 1.13094e-17)
(1.03076 0.00840879 2.26002e-18)
(0.891709 0.188461 -9.66566e-21)
(0.890418 0.18752 -9.60518e-20)
(0.888728 0.185566 1.87492e-19)
(0.886236 0.183195 -9.55458e-20)
(0.882602 0.179585 3.43769e-19)
(0.877378 0.174314 -3.53488e-19)
(0.870065 0.166435 1.05479e-18)
(0.860478 0.154351 -1.7086e-18)
(0.849167 0.134242 7.06595e-19)
(0.83918 0.104906 -1.02493e-18)
(0.834909 0.061525 5.55631e-18)
(0.854579 0.0045587 -3.34045e-17)
(0.909403 -0.028255 -1.57555e-17)
(0.968392 -0.0328869 4.81514e-18)
(1.03508 0.00302845 -1.0154e-18)
(0.881717 0.195888 -1.79346e-20)
(0.880356 0.195087 4.38833e-20)
(0.878559 0.193006 -1.90701e-19)
(0.875855 0.190435 -1.61233e-19)
(0.871844 0.186472 3.30835e-19)
(0.866005 0.180677 2.76588e-19)
(0.857784 0.171813 -1.92721e-18)
(0.846927 0.157998 1.90252e-18)
(0.834298 0.134781 -1.61018e-19)
(0.823634 0.101123 8.75058e-18)
(0.820261 0.0513438 -2.08991e-17)
(0.846165 -0.0110409 4.55654e-17)
(0.908392 -0.0421239 -2.50235e-17)
(0.970796 -0.0424088 -2.92049e-17)
(1.03979 -0.0020373 -3.5638e-19)
(0.871077 0.203382 -3.33692e-20)
(0.869674 0.202444 -1.04638e-20)
(0.867791 0.200338 5.72771e-20)
(0.864875 0.197735 2.83706e-19)
(0.860462 0.193579 -4.0851e-19)
(0.853953 0.187266 -1.03845e-18)
(0.844669 0.17741 1.49065e-18)
(0.832457 0.161673 -2.17858e-18)
(0.818357 0.134618 1.10702e-19)
(0.80714 0.0960143 -7.69824e-18)
(0.805301 0.0390796 2.57729e-17)
(0.838677 -0.0282823 -1.37083e-17)
(0.908381 -0.0567252 -1.5864e-18)
(0.973797 -0.0518813 -6.81856e-18)
(1.04461 -0.00679792 -8.13826e-18)
(0.859736 0.211142 -3.61696e-20)
(0.858324 0.21029 -2.30936e-20)
(0.856378 0.208145 -1.72856e-20)
(0.853245 0.205465 -1.30882e-21)
(0.848386 0.201061 1.9129e-19)
(0.841086 0.194244 3.1116e-19)
(0.830616 0.18318 -6.22568e-19)
(0.816732 0.165093 1.16927e-18)
(0.801239 0.133817 6.42143e-18)
(0.789748 0.0895212 1.28772e-18)
(0.790256 0.0246929 -1.40773e-17)
(0.83233 -0.047033 -1.25035e-17)
(0.909449 -0.071892 2.25846e-17)
(0.977581 -0.0609469 9.93826e-18)
(1.04981 -0.0108617 2.57794e-18)
(0.847658 0.219051 1.40977e-20)
(0.846259 0.218048 -5.27339e-20)
(0.844232 0.216001 8.7659e-20)
(0.840821 0.213418 -2.90653e-19)
(0.835399 0.208894 9.41749e-20)
(0.827124 0.201485 1.00359e-18)
(0.815169 0.189118 5.28303e-19)
(0.799712 0.168318 4.34826e-19)
(0.782782 0.131628 -2.25576e-18)
(0.7715 0.0810427 6.15528e-18)
(0.775416 0.00780859 -1.79264e-17)
(0.827227 -0.0674289 7.0505e-17)
(0.911487 -0.087748 4.10453e-18)
(0.981852 -0.0697187 8.18881e-18)
(1.05493 -0.0143689 1.29521e-17)
(0.834507 0.227368 -7.81124e-21)
(0.83309 0.226584 1.67276e-20)
(0.830953 0.224602 -9.46355e-20)
(0.827215 0.222018 3.71988e-19)
(0.821079 0.217261 -2.10876e-19)
(0.811742 0.209192 -6.59778e-19)
(0.798286 0.194956 -6.53732e-20)
(0.781 0.17071 8.91911e-20)
(0.763023 0.128255 -1.347e-17)
(0.752624 0.0706069 1.55924e-17)
(0.761164 -0.011252 1.72976e-17)
(0.823528 -0.0891078 -3.51446e-17)
(0.914672 -0.103876 1.23671e-17)
(0.986992 -0.0776983 7.5354e-18)
(1.06039 -0.0169651 -7.56284e-18)
(0.82027 0.235762 -1.13274e-20)
(0.818745 0.235038 -3.29335e-20)
(0.816424 0.233315 6.21053e-20)
(0.812243 0.230941 -2.31333e-19)
(0.805457 0.225937 6.65073e-20)
(0.794889 0.216845 4.01337e-20)
(0.779754 0.20065 1.2349e-18)
(0.761029 0.172597 -3.61009e-18)
(0.741973 0.122602 1.36437e-17)
(0.733357 0.0574978 -1.1342e-17)
(0.747865 -0.0328671 1.50318e-17)
(0.821278 -0.112167 -2.31315e-17)
(0.918851 -0.120165 -7.08998e-20)
(0.992487 -0.0848424 5.1587e-18)
(1.06556 -0.0187166 -2.34177e-18)
(0.805055 0.244566 -1.34149e-20)
(0.803371 0.244064 -1.53409e-20)
(0.800806 0.242533 9.77758e-20)
(0.796185 0.240066 -3.74275e-20)
(0.78847 0.23475 3.73068e-20)
(0.776574 0.224754 -4.37624e-19)
(0.759821 0.205719 -1.00356e-18)
(0.739238 0.172989 6.1968e-18)
(0.719616 0.115174 -5.95733e-18)
(0.713949 0.0419337 -1.32566e-17)
(0.735713 -0.0565048 -3.1287e-17)
(0.820441 -0.136297 4.59855e-17)
(0.924291 -0.13607 2.09196e-17)
(0.998989 -0.090465 -9.60352e-18)
(1.07102 -0.0190755 9.57316e-18)
(0.788704 0.253572 -1.38944e-20)
(0.786829 0.253143 3.97038e-20)
(0.783959 0.251813 -5.94464e-20)
(0.778702 0.249619 6.81787e-20)
(0.769931 0.243907 -5.02991e-20)
(0.756445 0.232206 3.33338e-19)
(0.737902 0.210231 -8.80047e-19)
(0.71611 0.172652 2.17206e-18)
(0.695846 0.104151 -9.85302e-18)
(0.694822 0.0230774 -2.44133e-18)
(0.724939 -0.082879 -2.63476e-17)
(0.820784 -0.162032 -8.64127e-18)
(0.930532 -0.151621 -8.83557e-18)
(1.00552 -0.0948421 -3.10571e-18)
(1.07589 -0.0184004 -2.70172e-17)
(0.770804 0.263549 3.66283e-21)
(0.768661 0.263211 -1.36852e-20)
(0.765331 0.261983 1.2903e-21)
(0.759226 0.259603 -1.25504e-19)
(0.749072 0.25319 2.5287e-19)
(0.734104 0.239477 -3.57171e-19)
(0.713841 0.213067 9.08121e-19)
(0.690929 0.169786 -8.53865e-18)
(0.671028 0.090968 1.87333e-17)
(0.676354 0.00193871 1.46753e-18)
(0.715237 -0.111289 3.55439e-17)
(0.822312 -0.188959 -4.92413e-18)
(0.938146 -0.165921 -2.67492e-17)
(1.01313 -0.0971193 2.91626e-18)
(1.08097 -0.0161768 3.33676e-17)
(0.750745 0.274648 3.86874e-21)
(0.748133 0.274374 -2.50923e-20)
(0.744153 0.273134 -3.39224e-20)
(0.736951 0.270471 2.59623e-19)
(0.725522 0.262335 -2.43042e-19)
(0.708632 0.245331 5.57768e-19)
(0.687336 0.214445 -1.49025e-18)
(0.665164 0.166124 1.44219e-18)
(0.645251 0.0729255 4.56114e-18)
(0.658703 -0.0229904 4.73449e-17)
(0.70663 -0.14312 -5.6794e-18)
(0.824716 -0.217561 4.70708e-17)
(0.946337 -0.178552 -1.01438e-17)
(1.02032 -0.0976332 -1.01721e-18)
(1.0851 -0.0127957 -1.54637e-17)
(0.727661 0.287434 6.70821e-21)
(0.724329 0.287247 -2.67756e-21)
(0.719536 0.285474 -6.91814e-21)
(0.711251 0.281401 1.42857e-20)
(0.698135 0.27107 2.09014e-19)
(0.680024 0.249865 4.73032e-19)
(0.658515 0.212157 3.21679e-19)
(0.637141 0.157938 3.55777e-18)
(0.619159 0.0534258 -8.15509e-18)
(0.641038 -0.0505554 -6.86659e-17)
(0.69801 -0.177919 5.02956e-17)
(0.828585 -0.246708 -1.18946e-16)
(0.956291 -0.187604 3.48634e-17)
(1.02867 -0.094674 4.40892e-18)
(1.08933 -0.00724666 -1.34574e-17)
(0.701202 0.301382 -3.69124e-21)
(0.696849 0.300875 -1.91764e-20)
(0.691038 0.298211 1.89329e-20)
(0.681384 0.29262 -1.25597e-19)
(0.666798 0.27855 2.59035e-20)
(0.647279 0.251126 1.46594e-19)
(0.627143 0.206985 9.06741e-19)
(0.609286 0.148171 4.24755e-19)
(0.593522 0.0279969 -3.75591e-18)
(0.623168 -0.0832252 8.65082e-18)
(0.690257 -0.216893 -5.66401e-17)
(0.833346 -0.276449 7.78662e-18)
(0.96636 -0.193002 -2.16275e-17)
(1.03591 -0.089459 -6.91357e-18)
(1.09216 -0.00086416 1.51297e-17)
(0.671364 0.316956 -3.45523e-21)
(0.665588 0.315583 2.82652e-20)
(0.658405 0.31155 -7.24495e-20)
(0.647034 0.303229 8.6936e-20)
(0.630601 0.284613 -2.88031e-19)
(0.611547 0.249575 -3.8377e-20)
(0.593312 0.195485 -2.96441e-19)
(0.581019 0.132729 -4.00933e-18)
(0.569589 0.00482172 6.12844e-18)
(0.602167 -0.120508 3.69547e-17)
(0.681043 -0.260672 7.46199e-17)
(0.840983 -0.303066 4.26931e-17)
(0.978431 -0.191179 1.91643e-17)
(1.04418 -0.0791739 5.82774e-18)
(1.09486 0.00876576 -2.82245e-18)
(0.637417 0.334821 -5.79529e-21)
(0.629885 0.332005 -3.84615e-21)
(0.620984 0.325908 4.52369e-20)
(0.607726 0.314124 -4.13136e-20)
(0.590057 0.287924 -2.69265e-19)
(0.569737 0.242201 4.29893e-19)
(0.558332 0.181 -2.70988e-18)
(0.555581 0.116563 2.66038e-18)
(0.547434 -0.0243404 -2.66734e-18)
(0.573922 -0.170076 9.35783e-18)
(0.6743 -0.306125 2.4763e-17)
(0.852942 -0.317828 6.61862e-19)
(0.990577 -0.181209 -1.19581e-17)
(1.05065 -0.0660858 8.29966e-18)
(1.09557 0.019203 1.24979e-17)
(0.5984 0.355761 4.52779e-21)
(0.58862 0.350765 -2.83784e-21)
(0.577529 0.34143 -2.02724e-20)
(0.560778 0.32373 5.53113e-20)
(0.539868 0.288744 2.15732e-19)
(0.524419 0.230708 -1.05658e-18)
(0.521742 0.15708 6.44974e-19)
(0.533278 0.0946276 -8.88758e-19)
(0.533504 -0.0401381 -6.63327e-18)
(0.527195 -0.232746 2.5171e-17)
(0.659814 -0.354783 -1.39682e-16)
(0.869421 -0.296175 1.00833e-17)
(1.00542 -0.146 4.34813e-18)
(1.05904 -0.04074 -1.87546e-17)
(1.09661 0.0361662 -8.64953e-18)
(0.553353 0.381663 5.26725e-22)
(0.539592 0.373466 -7.44847e-22)
(0.523151 0.360651 -1.00343e-20)
(0.502035 0.335994 6.28864e-20)
(0.480683 0.285313 3.75045e-20)
(0.472169 0.206653 8.85675e-19)
(0.488045 0.127637 5.89167e-19)
(0.518503 0.0726793 3.41075e-20)
(0.518594 -0.0674454 6.27229e-18)
(0.435689 -0.369414 -7.52266e-17)
(0.61464 -0.46585 1.01418e-16)
(0.86155 -0.293438 -2.14599e-17)
(1.008 -0.104303 1.38004e-19)
(1.06221 -0.0106463 9.45412e-18)
(1.09511 0.0539696 2.95496e-17)
(0.497764 0.417688 1.40007e-21)
(0.477795 0.407688 -7.7824e-21)
(0.456795 0.388383 3.22467e-20)
(0.43044 0.350246 -2.51946e-20)
(0.407574 0.277637 -1.19746e-19)
(0.420751 0.174876 -1.98563e-19)
(0.462668 0.0863105 -8.69466e-19)
(0.510967 0.049222 -1.92985e-18)
(0.505492 -0.0718697 5.4222e-18)
(0.388127 -0.516133 -2.60613e-17)
(0.572109 -0.609491 -5.24088e-17)
(0.855802 -0.283323 1.2694e-17)
(1.00515 -0.0499205 -1.22412e-17)
(1.05853 0.0293493 -8.93787e-18)
(1.08724 0.0760247 -5.17891e-17)
(0.435711 0.468734 1.1394e-20)
(0.406583 0.453864 -5.83265e-21)
(0.373762 0.428821 2.35961e-21)
(0.339438 0.379262 -9.62619e-20)
(0.30773 0.265672 7.23993e-20)
(0.360851 0.128506 2.54028e-20)
(0.46422 0.0489523 1.41872e-18)
(0.519569 0.0505601 1.77019e-18)
(0.507387 -0.0379316 -8.28827e-18)
(0.376941 -0.564767 1.38843e-18)
(0.571367 -0.608696 1.14947e-17)
(0.862663 -0.200807 -1.7828e-18)
(0.999621 0.00850158 7.41035e-18)
(1.04726 0.0622639 2.19295e-17)
(1.07463 0.0946153 1.50313e-17)
(0.387431 0.542336 5.98577e-21)
(0.344562 0.537435 9.60948e-21)
(0.293199 0.520705 -1.47628e-19)
(0.250265 0.478633 4.17636e-19)
(0.194548 0.275534 -5.40431e-20)
(0.290119 0.0440094 1.22247e-19)
(0.486395 -0.00619274 3.88849e-19)
(0.517166 0.0328061 4.95797e-19)
(0.481486 -0.0388641 4.26109e-18)
(0.317185 -0.633036 -9.06424e-18)
(0.551403 -0.570855 -1.84702e-18)
(0.855292 -0.0779325 -5.70517e-18)
(0.994189 0.0972662 9.25344e-18)
(1.03657 0.116935 -2.76739e-19)
(1.0642 0.13465 8.13469e-19)
(0.377961 0.653488 -2.008e-20)
(0.315073 0.686164 6.69011e-20)
(0.247354 0.729638 6.88812e-19)
(0.13415 0.804884 -4.80922e-19)
(-0.543656 -0.0236963 8.39442e-20)
(0.228079 -0.0469086 2.19833e-19)
(0.561159 -0.0606815 2.0069e-18)
(0.484001 -0.0359545 -2.23708e-18)
(0.40413 -0.115752 -7.93503e-18)
(0.185913 -0.785755 1.84862e-17)
(0.490838 -0.496155 1.35833e-18)
(0.825103 0.0916038 9.89262e-18)
(0.991827 0.213171 2.30008e-19)
(1.0382 0.196377 -2.67666e-17)
(1.06638 0.199746 1.33498e-17)
(0.304087 0.839088 2.53549e-19)
(0.242641 0.98813 -1.11386e-19)
(0.220509 1.5225 -7.63243e-19)
(-0.786315 0.572539 -2.46005e-18)
(-1.41565 -0.331145 6.8133e-19)
(0.0250849 -0.331731 -1.11934e-18)
(0.248773 -0.123434 -1.6854e-18)
(-0.0138304 -0.0150146 -2.05818e-18)
(-0.241649 -0.304029 5.82429e-18)
(-0.049454 -0.992059 2.06206e-17)
(0.381905 -0.502308 9.14545e-18)
(0.733685 0.199785 1.16347e-18)
(0.958974 0.345761 9.10919e-18)
(1.03197 0.297779 2.99272e-17)
(1.0608 0.296934 9.98482e-18)
(-0.47048 0.793656 -2.32341e-19)
(-0.635824 0.788103 2.04977e-19)
(-0.38373 1.02575 1.61505e-18)
(-1.37143 0.338077 2.215e-18)
(-1.87149 -0.094041 2.24515e-19)
(-0.417356 -0.297196 1.60853e-18)
(-0.407608 0.0601199 -1.30081e-17)
(-0.636857 -0.03068 -1.1044e-18)
(-0.82095 -0.804022 5.86052e-18)
(-0.0451272 -0.967622 -4.4922e-17)
(0.319003 -0.504702 1.73402e-17)
(0.633174 0.284262 -9.57567e-18)
(0.900632 0.437149 1.15504e-18)
(1.00138 0.370812 -2.28403e-17)
(1.03429 0.389812 -3.27177e-17)
(-1.01196 0.591549 -4.28171e-19)
(-1.18675 0.54671 -9.13042e-19)
(-0.90089 0.522788 -4.77964e-19)
(-2.01438 0.435362 5.69841e-19)
(-2.38682 0.214562 -5.36481e-18)
(-1.78633 -0.127982 -6.02235e-19)
(-1.63711 0.123479 -2.06063e-17)
(-1.19765 -0.596508 -8.99368e-18)
(-0.770715 -1.21008 -1.67031e-17)
(0.255608 -0.662973 4.93355e-17)
(0.319419 -0.2804 1.41261e-17)
(0.540087 0.511243 -1.63666e-17)
(0.797043 0.500582 -3.14734e-17)
(0.931725 0.411436 -2.67102e-17)
(0.970258 0.477545 6.94739e-18)
(-1.22071 0.704426 2.3832e-19)
(-1.5211 0.746348 -7.3642e-20)
(-1.1541 0.362297 -2.93389e-19)
(-2.24925 0.659577 2.18256e-18)
(-2.37417 0.478978 1.04695e-17)
(-2.86119 0.180672 -1.82562e-17)
(-2.34643 0.0150295 4.42281e-18)
(-1.39995 -1.4821 5.55412e-17)
(-0.549305 -1.82512 4.30811e-17)
(0.147099 -0.720091 3.1432e-17)
(0.239171 -0.0698452 -5.33522e-17)
(0.36644 0.48952 -1.28515e-17)
(0.630286 0.496501 6.06128e-17)
(0.834392 0.452154 4.82097e-17)
(0.858392 0.502943 -3.69391e-17)
(-1.2119 1.05637 1.2051e-19)
(-1.61737 1.13903 5.77878e-19)
(-1.71911 0.932524 1.02594e-18)
(-1.95206 0.971749 -1.55978e-18)
(-2.2443 0.565488 -1.10648e-17)
(-2.36564 0.202586 6.44981e-17)
(-2.22355 -0.430013 2.04791e-17)
(-1.18765 -2.08671 -8.61283e-17)
(-0.505924 -1.9971 -5.97569e-17)
(-0.0969831 -0.633821 -6.70201e-17)
(0.0806775 0.214969 9.63777e-18)
(0.281201 0.611445 6.1394e-17)
(0.487768 0.466594 -6.16072e-17)
(0.739692 0.453606 -2.92738e-17)
(0.688324 0.302517 2.48555e-17)
(-1.03195 1.13415 2.48865e-19)
(-1.55752 1.42825 -9.1914e-19)
(-1.61681 1.58825 -2.63857e-19)
(-1.6794 1.34934 2.03765e-18)
(-2.01875 0.803673 8.26057e-18)
(-1.72558 0.433827 -3.5314e-17)
(-1.84716 -0.676479 3.81231e-18)
(-0.944969 -1.28883 1.5265e-17)
(-0.672742 -1.30734 -2.50627e-17)
(-0.220334 0.179803 2.52328e-17)
(-0.172053 0.565591 1.0735e-18)
(0.201466 0.490657 -6.60782e-17)
(0.404275 0.35954 6.20179e-17)
(0.635048 0.332132 2.32744e-17)
(0.512327 -0.0460538 2.69723e-18)
(-1.02929 1.46641 -3.27351e-19)
(-1.24312 1.87191 3.72527e-19)
(-1.10117 2.10427 -8.37972e-19)
(-1.30506 1.8113 -4.41915e-18)
(-1.26926 1.35909 -4.77913e-18)
(-0.577555 0.855155 3.33425e-18)
(-0.701876 0.0520462 -7.94594e-18)
(-0.589518 0.179447 -4.01458e-18)
(-0.804495 0.0976987 1.86356e-17)
(-0.496794 0.942257 -1.47093e-17)
(-0.467491 0.486456 -9.9113e-19)
(-0.0538686 -0.377121 2.73784e-17)
(0.292004 0.0167821 -6.43367e-17)
(0.484745 -0.0161099 4.96178e-18)
(0.39095 -0.35044 1.69422e-17)
(-0.56595 1.99148 1.27783e-19)
(-0.46388 2.44318 1.0215e-18)
(-0.549932 2.52236 1.85484e-18)
(-0.592285 2.36499 2.8723e-18)
(-0.0995547 1.83773 1.05228e-20)
(0.899619 1.24704 -8.65892e-18)
(0.618768 0.918389 -7.72072e-18)
(-0.544463 0.90048 1.2458e-17)
(-0.970443 0.599181 5.46731e-18)
(-0.84821 0.532569 -4.07322e-18)
(-0.74942 0.0321897 -7.41178e-18)
(-0.472534 -1.42546 3.49468e-17)
(0.0728543 -0.794752 1.55122e-17)
(0.305764 -0.54727 -2.06299e-17)
(0.319986 -0.539637 1.93138e-17)
(0.0414022 2.54532 -7.36991e-20)
(0.13761 2.65335 -6.96607e-19)
(-0.189658 2.70518 -2.35475e-18)
(-0.0770408 2.4566 1.6603e-18)
(0.671064 1.67298 5.25525e-19)
(1.68194 0.932639 3.26571e-17)
(1.31729 0.863068 2.55679e-19)
(-0.678223 0.159494 -1.37106e-17)
(-1.01309 -0.0371247 -2.57618e-17)
(-1.0724 -0.553711 1.13719e-17)
(-1.02984 -0.465938 1.57469e-17)
(-0.613558 -1.80268 -2.4383e-17)
(-0.214214 -1.80048 2.3681e-18)
(0.147198 -1.05961 -1.8165e-18)
(0.232598 -0.581545 5.44301e-18)
(0.00438905 3.10955 3.89496e-20)
(0.146441 2.80141 -2.40319e-19)
(0.168231 2.6468 -6.03003e-19)
(0.313936 1.96512 -3.03507e-18)
(0.748959 0.888863 -2.7037e-18)
(0.930207 0.092681 -4.99966e-17)
(0.601557 0.115688 3.9986e-17)
(-0.433864 -2.45701 1.53172e-16)
(-0.611666 -1.5622 2.39472e-16)
(-0.595551 -1.04859 -3.24132e-17)
(-1.04173 -0.921233 5.02874e-17)
(-0.527604 -1.169 9.82459e-18)