/*--------------------------------*- C++ -*----------------------------------*\
  =========                 |
  \\      /  F ield         | OpenFOAM: The Open Source CFD Toolbox
   \\    /   O peration     | Website:  https://openfoam.org
    \\  /    A nd           | Version:  6.0
     \\/     M anipulation  |
\*---------------------------------------------------------------------------*/
FoamFile
{
    version     2.0;
    format      ascii;
    class       volVectorField;
    location    "14";
    object      U;
}
// * * * * * * * * * * * * * * * * * * * * * * * * * * * * * * * * * * * * * //

dimensions      [0 1 -1 0 0 0 0];

internalField   nonuniform List<vector> 
62000
(
(0.99619 0.0874936 -4.75037e-21)
(0.996189 0.0874875 3.95638e-21)
(0.996188 0.0874816 4.0851e-21)
(0.996187 0.0874768 -1.79785e-20)
(0.996185 0.0874727 -2.06726e-20)
(0.996184 0.0874692 7.14898e-20)
(0.996183 0.0874663 -7.89177e-20)
(0.996182 0.0874638 4.59787e-20)
(0.996181 0.0874617 -2.16763e-20)
(0.996181 0.0874598 -1.11353e-19)
(0.996181 0.0874582 -1.47527e-20)
(0.99618 0.0874567 1.56435e-19)
(0.99618 0.0874554 3.22149e-20)
(0.99618 0.0874544 -1.12893e-19)
(0.996181 0.0874534 1.77022e-19)
(0.996181 0.0874528 -9.39533e-20)
(0.996181 0.0874523 9.83515e-20)
(0.996181 0.0874521 -1.15519e-19)
(0.996181 0.0874522 5.7518e-20)
(0.996181 0.0874524 -1.78278e-19)
(0.996181 0.0874529 2.33545e-19)
(0.99618 0.0874535 7.00592e-20)
(0.99618 0.0874544 1.02112e-19)
(0.996178 0.087456 -4.6057e-19)
(0.996176 0.0874585 1.67322e-19)
(0.996174 0.0874613 -1.01198e-19)
(0.99617 0.0874639 -1.62245e-21)
(0.996164 0.0874655 -7.86194e-20)
(0.996158 0.0874656 2.38284e-19)
(0.99615 0.0874635 -1.31526e-19)
(0.99614 0.0874587 3.11348e-19)
(0.996128 0.0874505 -6.35229e-19)
(0.996114 0.0874386 5.93673e-20)
(0.996097 0.087422 -2.1096e-19)
(0.996077 0.0874001 -6.76645e-20)
(0.996052 0.0873721 -2.15149e-19)
(0.996023 0.0873367 -6.18576e-20)
(0.995989 0.087293 -6.53843e-20)
(0.995949 0.0872402 2.07548e-19)
(0.995901 0.0871779 9.65385e-19)
(0.995846 0.0871059 -2.33139e-19)
(0.995782 0.0870246 -1.32514e-18)
(0.995706 0.0869342 -2.0842e-18)
(0.995618 0.0868343 1.11864e-18)
(0.995515 0.086723 3.44987e-19)
(0.995396 0.086596 -1.55333e-18)
(0.995261 0.0864466 3.04914e-19)
(0.995112 0.0862655 -6.34455e-19)
(0.994951 0.0860435 -2.87469e-18)
(0.994785 0.0857725 -6.77453e-19)
(0.994618 0.0854473 -3.33303e-19)
(0.994452 0.0850614 -4.23241e-18)
(0.994284 0.0845929 6.57466e-19)
(0.994112 0.0839987 4.64545e-18)
(0.993937 0.0831973 1.18253e-18)
(0.993782 0.0820922 4.17438e-18)
(0.993687 0.0804573 -4.59648e-19)
(0.993684 0.0781944 -7.19261e-19)
(0.994682 0.0737212 1.75745e-18)
(0.979231 0.0636525 3.17151e-19)
(0.996192 0.0878361 -1.27124e-21)
(0.996196 0.0878369 1.22108e-20)
(0.996198 0.0878328 5.11979e-21)
(0.996199 0.0878293 -2.18734e-20)
(0.996198 0.0878266 9.12509e-21)
(0.996197 0.0878244 -6.34016e-20)
(0.996194 0.0878226 5.81121e-20)
(0.996191 0.0878213 3.39165e-20)
(0.996188 0.0878204 -6.35512e-20)
(0.996184 0.0878198 2.63964e-21)
(0.99618 0.0878191 6.21417e-20)
(0.996177 0.0878187 3.21757e-22)
(0.996173 0.087818 1.82411e-20)
(0.99617 0.0878173 -1.55326e-19)
(0.996168 0.087816 3.13453e-19)
(0.996165 0.0878143 -2.7765e-19)
(0.996163 0.0878119 1.31035e-19)
(0.99616 0.0878087 -2.75229e-20)
(0.996158 0.0878045 -7.6091e-20)
(0.996156 0.0877992 2.12083e-19)
(0.996154 0.0877926 -3.35953e-19)
(0.996151 0.0877844 1.96241e-19)
(0.996149 0.0877744 -2.52274e-19)
(0.996146 0.0877637 1.50416e-19)
(0.996141 0.0877498 1.39151e-19)
(0.996135 0.0877312 -8.95747e-20)
(0.996126 0.0877095 -8.78161e-22)
(0.996115 0.0876833 9.51668e-20)
(0.996103 0.0876521 7.90402e-20)
(0.996087 0.087615 -1.61702e-19)
(0.99607 0.0875721 3.23808e-19)
(0.99605 0.0875221 6.62797e-20)
(0.996027 0.0874643 2.04121e-19)
(0.996001 0.0873976 1.52297e-20)
(0.995969 0.0873228 5.76012e-20)
(0.995931 0.0872416 -6.49745e-20)
(0.995886 0.0871551 -1.97849e-19)
(0.995832 0.087064 -9.92163e-20)
(0.995768 0.086969 -5.56533e-19)
(0.995692 0.0868712 -6.36648e-19)
(0.995601 0.0867712 5.00555e-19)
(0.995492 0.0866686 2.93196e-19)
(0.995364 0.0865609 2.21409e-18)
(0.995211 0.0864424 1.3176e-19)
(0.995034 0.0863029 -3.36408e-18)
(0.994831 0.0861279 1.31813e-18)
(0.994608 0.0859012 1.0671e-18)
(0.994372 0.0856089 1.25961e-18)
(0.994134 0.0852455 2.33442e-19)
(0.993904 0.0848154 4.56924e-20)
(0.993687 0.0843303 2.01117e-18)
(0.993473 0.0837932 5.30608e-18)
(0.993244 0.0831591 -3.51051e-18)
(0.992992 0.08234 -8.39153e-18)
(0.992729 0.0811776 -2.01134e-18)
(0.992499 0.0795402 -1.46248e-18)
(0.992433 0.0770764 -3.2565e-18)
(0.992303 0.0738398 -1.68466e-18)
(0.994921 0.0682155 2.72288e-18)
(0.980041 0.0590644 1.09645e-18)
(0.996167 0.0879682 -6.16563e-21)
(0.99618 0.0879805 -8.94319e-22)
(0.996192 0.087986 9.44612e-22)
(0.996201 0.0879889 4.39631e-21)
(0.996208 0.0879925 1.25515e-20)
(0.996212 0.0879959 -1.19057e-20)
(0.996214 0.087999 6.39938e-20)
(0.996213 0.088002 -3.03893e-20)
(0.996211 0.0880047 -1.64044e-20)
(0.996207 0.0880071 -1.01871e-19)
(0.996201 0.088009 8.59271e-20)
(0.996195 0.0880105 6.35871e-21)
(0.996187 0.0880112 -1.9894e-20)
(0.996179 0.0880113 5.30254e-20)
(0.996171 0.0880101 -9.1047e-20)
(0.996162 0.0880079 4.1587e-22)
(0.996153 0.0880041 -4.24592e-20)
(0.996145 0.0879988 3.57646e-22)
(0.996136 0.0879913 9.90484e-20)
(0.996127 0.0879816 -1.51978e-19)
(0.996119 0.087969 9.51028e-20)
(0.99611 0.0879534 3.74629e-19)
(0.996101 0.0879343 -4.81067e-20)
(0.996092 0.0879127 -5.28114e-19)
(0.996082 0.087884 2.69236e-19)
(0.99607 0.0878471 -1.4417e-19)
(0.996057 0.0878055 2.29762e-19)
(0.996042 0.0877582 -1.36276e-19)
(0.996027 0.0877051 -2.68059e-19)
(0.99601 0.0876457 2.82878e-19)
(0.995992 0.0875804 -1.9776e-19)
(0.995972 0.0875085 2.63185e-19)
(0.995949 0.087429 -7.27281e-19)
(0.995925 0.0873412 6.46168e-19)
(0.995897 0.0872471 -3.4437e-19)
(0.995866 0.0871506 1.4144e-19)
(0.995829 0.0870545 1.08032e-19)
(0.995784 0.0869609 -6.03827e-21)
(0.995729 0.0868716 -2.69662e-20)
(0.995662 0.0867873 6.65806e-19)
(0.995581 0.0867077 -2.60031e-19)
(0.995482 0.0866301 4.04393e-19)
(0.995362 0.0865485 -1.43304e-18)
(0.995221 0.086452 -6.99666e-19)
(0.995057 0.0863254 7.33044e-19)
(0.994875 0.0861504 -2.56778e-18)
(0.994683 0.0859117 3.32679e-19)
(0.994495 0.085603 -2.15073e-18)
(0.994327 0.0852358 2.97612e-18)
(0.994191 0.084839 7.4782e-19)
(0.994092 0.0844537 4.08304e-19)
(0.994014 0.084108 -9.70942e-20)
(0.993934 0.0837669 1.51875e-18)
(0.993833 0.0833406 1.71739e-19)
(0.99372 0.0826579 -2.93412e-18)
(0.993609 0.0816033 -1.65712e-18)
(0.993675 0.0798257 -1.08283e-18)
(0.993319 0.0773372 -3.77717e-18)
(0.996131 0.0735968 -2.93379e-19)
(0.987602 0.0711634 4.13147e-19)
(0.996101 0.0882503 -6.12691e-21)
(0.996114 0.088257 1.87623e-20)
(0.996129 0.0882637 -2.83794e-21)
(0.996143 0.0882647 -1.93725e-20)
(0.996155 0.0882662 2.92368e-20)
(0.996166 0.0882674 5.05872e-20)
(0.996175 0.0882677 -6.57508e-20)
(0.996181 0.0882675 7.16334e-21)
(0.996183 0.0882665 2.2926e-20)
(0.996184 0.0882649 4.77992e-20)
(0.996181 0.0882621 -8.80009e-20)
(0.996176 0.0882587 -2.72601e-20)
(0.996169 0.0882541 -3.05651e-20)
(0.99616 0.0882486 1.38811e-19)
(0.996149 0.0882416 -9.27077e-20)
(0.996137 0.0882334 2.17258e-19)
(0.996124 0.0882234 -2.63387e-19)
(0.99611 0.0882118 -3.90641e-20)
(0.996095 0.0881978 2.79209e-19)
(0.99608 0.0881816 -9.7329e-20)
(0.996065 0.0881622 -3.58255e-20)
(0.996049 0.0881395 -3.85563e-20)
(0.996032 0.088113 -3.52844e-19)
(0.996015 0.0880834 2.02928e-19)
(0.995997 0.0880454 -9.21227e-20)
(0.995979 0.0879991 1.44239e-19)
(0.995961 0.0879483 6.60468e-20)
(0.995943 0.0878925 3.20704e-19)
(0.995924 0.0878319 -1.9718e-19)
(0.995904 0.0877657 -2.54593e-19)
(0.995884 0.0876949 3.97374e-19)
(0.995861 0.0876187 -3.22214e-19)
(0.995836 0.0875354 5.9274e-19)
(0.99581 0.0874443 -3.58757e-19)
(0.995782 0.0873482 1.50116e-19)
(0.995751 0.0872511 2.56574e-19)
(0.995717 0.0871563 -1.09887e-19)
(0.995675 0.0870659 1.34056e-19)
(0.995623 0.0869809 -7.05803e-20)
(0.995558 0.0869005 2.04458e-19)
(0.995477 0.0868225 -5.7878e-19)
(0.995379 0.0867416 1.5808e-19)
(0.995259 0.0866487 3.38365e-19)
(0.995116 0.0865295 8.35606e-19)
(0.99495 0.086366 1.06137e-18)
(0.994766 0.0861385 2.09221e-19)
(0.994572 0.0858335 1.65184e-18)
(0.994383 0.0854499 1.77083e-18)
(0.994218 0.0850094 2.0733e-18)
(0.994091 0.084554 -1.47895e-18)
(0.994013 0.0841409 -1.86798e-18)
(0.993972 0.0838135 1.27844e-18)
(0.993954 0.0835475 1.70912e-18)
(0.993942 0.0832597 3.52868e-18)
(0.993949 0.0827783 2.12758e-18)
(0.993955 0.0819948 3.78137e-18)
(0.994168 0.0805613 6.51164e-18)
(0.993743 0.0782748 -6.42558e-19)
(0.996161 0.0752961 -3.65029e-18)
(0.990699 0.0742584 -2.80861e-18)
(0.996017 0.0887029 1.17551e-20)
(0.996017 0.088696 -3.89683e-21)
(0.996021 0.0886943 6.61542e-21)
(0.996029 0.0886873 -9.26896e-21)
(0.996039 0.0886799 2.09016e-20)
(0.99605 0.0886726 -1.0241e-20)
(0.99606 0.0886645 5.61755e-21)
(0.99607 0.0886557 -8.26428e-20)
(0.996078 0.088646 6.90059e-20)
(0.996083 0.0886354 -1.38213e-19)
(0.996086 0.0886235 1.5153e-19)
(0.996087 0.0886106 -1.82443e-20)
(0.996084 0.0885963 -4.0448e-20)
(0.996079 0.0885809 -1.86441e-20)
(0.996071 0.088564 -4.1565e-21)
(0.996061 0.0885459 -1.87653e-19)
(0.996049 0.088526 7.49031e-21)
(0.996035 0.0885048 2.03556e-19)
(0.996019 0.0884815 -6.64548e-20)
(0.996002 0.0884562 -7.04104e-20)
(0.995983 0.0884283 1.17876e-19)
(0.995963 0.0883974 -5.91616e-20)
(0.995941 0.0883634 2.48332e-19)
(0.995918 0.0883262 1.37742e-19)
(0.995895 0.0882812 1.04878e-19)
(0.995872 0.0882292 -3.14444e-19)
(0.99585 0.0881735 -4.33017e-20)
(0.995828 0.0881141 -2.36843e-19)
(0.995806 0.0880507 4.31129e-20)
(0.995783 0.0879829 -7.72933e-20)
(0.995759 0.0879112 -3.01799e-20)
(0.995732 0.0878346 2.39816e-19)
(0.995703 0.0877503 -5.96341e-19)
(0.995672 0.0876575 -2.75689e-20)
(0.995641 0.0875588 -3.0256e-19)
(0.995608 0.0874585 -1.47283e-19)
(0.995571 0.0873598 3.70404e-20)
(0.995528 0.0872641 -4.73725e-19)
(0.995475 0.0871709 7.23833e-19)
(0.995408 0.0870785 1.24031e-19)
(0.995325 0.086983 7.92447e-19)
(0.995223 0.0868781 -5.75441e-19)
(0.995097 0.0867529 -3.90083e-19)
(0.994944 0.0865919 -1.41401e-19)
(0.994763 0.0863756 7.97853e-19)
(0.994554 0.0860835 1.14253e-18)
(0.994323 0.085701 2.9071e-19)
(0.994083 0.0852257 4.80879e-19)
(0.993849 0.0846779 -6.73104e-19)
(0.993638 0.0840966 3.79849e-18)
(0.993467 0.0835371 9.46905e-19)
(0.993335 0.0830429 -8.71179e-19)
(0.99325 0.0825932 4.66698e-19)
(0.993211 0.0821132 3.0785e-18)
(0.993257 0.0814441 -2.9782e-19)
(0.993347 0.0804976 -2.9064e-18)
(0.993727 0.0789673 -7.0748e-18)
(0.993468 0.076504 6.37284e-18)
(0.995591 0.0735951 -4.10936e-18)
(0.991992 0.0729647 3.41324e-18)
(0.995944 0.089142 -4.4178e-21)
(0.995925 0.0891336 1.78324e-20)
(0.995913 0.0891254 -2.93931e-20)
(0.995907 0.089114 2.1951e-20)
(0.995905 0.0891013 1.43291e-20)
(0.995907 0.0890888 -1.50961e-20)
(0.995912 0.0890754 1.29007e-21)
(0.995919 0.0890613 -1.14022e-20)
(0.995927 0.0890461 -3.85355e-20)
(0.995934 0.0890298 7.37099e-20)
(0.99594 0.089012 -1.14542e-19)
(0.995945 0.0889931 1.00046e-19)
(0.995948 0.0889723 8.86442e-20)
(0.995948 0.0889501 -1.36615e-19)
(0.995945 0.088926 -4.49454e-20)
(0.99594 0.0889004 1.67874e-19)
(0.995932 0.0888729 -2.03458e-19)
(0.995921 0.0888439 2.81615e-19)
(0.995907 0.0888127 -5.29319e-20)
(0.995891 0.0887797 3.10769e-20)
(0.995873 0.0887442 -4.89046e-20)
(0.995852 0.0887062 -6.19054e-20)
(0.995829 0.0886653 -1.16047e-19)
(0.995803 0.0886212 2.01561e-19)
(0.995777 0.0885698 -1.36903e-19)
(0.995752 0.0885126 -1.31547e-19)
(0.995728 0.0884521 2.6352e-19)
(0.995704 0.0883883 -2.4836e-19)
(0.99568 0.0883211 3.87087e-19)
(0.995655 0.08825 -2.02913e-19)
(0.995629 0.0881755 1.53523e-19)
(0.995601 0.0880958 -2.57865e-19)
(0.995571 0.0880071 2.75049e-19)
(0.995541 0.0879079 -2.34725e-20)
(0.995511 0.0878012 -1.36746e-20)
(0.995482 0.0876919 -7.06582e-21)
(0.995452 0.0875836 -1.49645e-19)
(0.995418 0.0874774 4.20284e-19)
(0.995376 0.0873721 -3.23261e-19)
(0.995324 0.0872652 -1.85019e-18)
(0.995259 0.0871536 -7.74212e-19)
(0.995177 0.0870314 5.45347e-19)
(0.995074 0.0868889 -6.00162e-19)
(0.994945 0.0867121 -6.55289e-19)
(0.994784 0.0864826 -5.15088e-20)
(0.99459 0.0861802 1.61719e-18)
(0.994361 0.0857893 -2.32634e-18)
(0.994105 0.0853032 -2.33636e-18)
(0.993831 0.0847343 -1.55843e-18)
(0.993555 0.0841094 -2.57197e-18)
(0.993296 0.0834711 1.6334e-18)
(0.993065 0.0828531 -6.51029e-19)
(0.992888 0.082233 -5.26371e-18)
(0.992791 0.0815469 1.02321e-18)
(0.99284 0.0806623 1.48276e-18)
(0.992988 0.0795302 -2.82518e-18)
(0.993509 0.0779293 1.93676e-18)
(0.993491 0.0754772 1.87954e-18)
(0.995404 0.0728292 6.58672e-18)
(0.993897 0.0737564 -4.67153e-20)
(0.995921 0.0894253 5.16023e-21)
(0.995887 0.0894294 -2.32731e-20)
(0.995859 0.0894263 1.12909e-20)
(0.995836 0.0894209 2.12346e-20)
(0.995818 0.0894142 -4.56266e-20)
(0.995805 0.0894072 3.82128e-20)
(0.995797 0.0893989 -2.55629e-20)
(0.995794 0.0893895 2.16629e-20)
(0.995793 0.0893785 3.47526e-20)
(0.995795 0.0893659 -8.34117e-20)
(0.995798 0.0893513 1.20568e-19)
(0.995801 0.0893348 5.16367e-20)
(0.995804 0.0893159 -2.03816e-19)
(0.995805 0.089295 -3.86941e-20)
(0.995805 0.0892713 1.08288e-19)
(0.995802 0.0892455 7.02047e-20)
(0.995796 0.0892169 -8.48268e-20)
(0.995788 0.0891861 7.486e-20)
(0.995776 0.0891524 1.16521e-19)
(0.995762 0.0891163 -5.56631e-20)
(0.995744 0.0890772 -3.20299e-20)
(0.995723 0.0890352 1.16567e-19)
(0.995699 0.0889901 2.41212e-19)
(0.995673 0.0889409 -1.72711e-19)
(0.995646 0.0888843 -1.91527e-19)
(0.995622 0.0888219 2.07878e-19)
(0.995597 0.0887558 -1.55829e-19)
(0.995573 0.0886859 -6.31457e-20)
(0.995548 0.0886123 5.08244e-19)
(0.995523 0.0885346 -2.1947e-19)
(0.995497 0.0884537 -1.67826e-19)
(0.99547 0.0883668 2.16587e-19)
(0.995443 0.0882693 1.49706e-19)
(0.995419 0.0881589 -1.33952e-19)
(0.995399 0.0880392 -9.07158e-20)
(0.995381 0.0879162 2.91508e-19)
(0.995366 0.0877945 6.37802e-20)
(0.995351 0.0876754 9.83099e-20)
(0.995334 0.0875576 -5.27208e-19)
(0.995314 0.0874394 -5.15439e-19)
(0.995289 0.0873191 9.9262e-19)
(0.995255 0.0871936 7.85066e-19)
(0.995209 0.0870567 1.30502e-18)
(0.995142 0.086898 -1.19385e-18)
(0.99505 0.086703 -1.30082e-18)
(0.994925 0.0864545 -8.60978e-19)
(0.994762 0.0861374 2.05062e-18)
(0.994561 0.0857413 1.95326e-18)
(0.994323 0.0852695 -2.15301e-18)
(0.994059 0.084734 -3.04407e-18)
(0.993786 0.0841599 -6.59047e-19)
(0.993519 0.0835661 5.88095e-19)
(0.993299 0.082924 1.11464e-19)
(0.993166 0.0821777 -1.88468e-18)
(0.993213 0.081222 1.60072e-18)
(0.993388 0.0800469 9.81838e-19)
(0.993966 0.0785189 1.44702e-18)
(0.994123 0.0762534 -5.68961e-18)
(0.995745 0.0739773 -4.08311e-19)
(0.995972 0.076179 1.20633e-19)
(0.995966 0.0895619 -8.64972e-21)
(0.995926 0.0895838 -6.9594e-21)
(0.995888 0.0895951 9.33697e-21)
(0.995852 0.0896037 3.33407e-20)
(0.995818 0.0896115 -7.18616e-20)
(0.995789 0.0896186 8.22662e-20)
(0.995764 0.0896241 -3.51496e-21)
(0.995744 0.0896278 -4.97605e-21)
(0.995728 0.0896294 -2.94021e-20)
(0.995717 0.0896289 7.17292e-20)
(0.995708 0.0896255 -1.10317e-19)
(0.995702 0.0896196 4.15128e-20)
(0.995697 0.0896103 -1.41036e-21)
(0.995692 0.0895979 6.54244e-20)
(0.995686 0.0895819 3.14495e-20)
(0.995679 0.0895626 -1.65685e-19)
(0.995671 0.0895395 1.43833e-19)
(0.99566 0.0895129 5.70612e-20)
(0.995646 0.0894822 -1.63411e-19)
(0.99563 0.0894479 8.00945e-20)
(0.99561 0.0894096 3.76489e-20)
(0.995588 0.0893672 -2.42555e-20)
(0.995562 0.0893206 3.20718e-20)
(0.995534 0.0892687 -1.74898e-20)
(0.995506 0.0892082 -2.09135e-19)
(0.995482 0.0891409 1.34731e-19)
(0.995457 0.0890688 -2.00669e-19)
(0.995432 0.0889913 3.62098e-19)
(0.995406 0.0889092 -6.57506e-20)
(0.99538 0.0888223 -3.89469e-20)
(0.995355 0.0887317 -1.01917e-20)
(0.99533 0.088634 3.60559e-19)
(0.995307 0.0885239 -1.44077e-19)
(0.995289 0.0883986 -8.85341e-20)
(0.995278 0.0882619 2.2687e-19)
(0.995272 0.0881213 1.95092e-19)
(0.995272 0.0879824 -3.26742e-19)
(0.995277 0.0878473 5.84108e-20)
(0.995286 0.0877149 6.33371e-19)
(0.995299 0.0875843 -6.08868e-20)
(0.995317 0.0874564 4.07289e-19)
(0.995336 0.0873314 -5.82531e-19)
(0.995353 0.0872076 8.76876e-19)
(0.995361 0.0870797 1.88161e-18)
(0.995354 0.0869386 5.43856e-19)
(0.995323 0.0867716 -7.25473e-19)
(0.995258 0.0865658 -2.16615e-18)
(0.995153 0.0863086 3.65229e-19)
(0.995003 0.0859955 6.55594e-19)
(0.994811 0.0856241 1.44128e-18)
(0.994588 0.0852016 -2.10297e-19)
(0.994349 0.0847299 -2.42694e-18)
(0.99414 0.0841705 2.09373e-18)
(0.994008 0.0834684 -1.4249e-18)
(0.994061 0.0825363 2.76108e-18)
(0.994238 0.0813874 7.31214e-19)
(0.994795 0.0799508 3.21868e-18)
(0.995044 0.077817 4.46607e-18)
(0.996304 0.0756976 7.9183e-19)
(0.997276 0.0780083 1.27513e-18)
(0.996058 0.0896533 -4.19427e-21)
(0.996024 0.0896873 3.58941e-21)
(0.995986 0.0897132 1.81285e-20)
(0.995944 0.0897359 2.87917e-20)
(0.995901 0.0897592 -8.4728e-20)
(0.995858 0.0897819 4.86913e-20)
(0.995818 0.0898032 -8.74292e-20)
(0.995781 0.0898227 1.36492e-19)
(0.995747 0.0898398 -6.38171e-20)
(0.995717 0.0898543 1.12919e-20)
(0.995691 0.0898654 1.2376e-19)
(0.995668 0.0898732 -2.80724e-19)
(0.995647 0.0898769 1.90944e-19)
(0.995628 0.0898767 2.72575e-20)
(0.99561 0.0898718 4.4002e-20)
(0.995592 0.0898625 -1.81916e-19)
(0.995573 0.0898481 8.93561e-20)
(0.995554 0.089829 -1.10962e-19)
(0.995532 0.0898044 2.19364e-19)
(0.995508 0.0897746 -2.81889e-20)
(0.995482 0.0897395 -2.7815e-19)
(0.995454 0.0896988 1.10123e-19)
(0.995423 0.0896525 -6.23525e-21)
(0.99539 0.0895991 -4.09796e-19)
(0.995359 0.0895356 3.0067e-19)
(0.995332 0.0894637 2.21745e-19)
(0.995305 0.0893852 1.48144e-19)
(0.995278 0.0892994 -1.84947e-19)
(0.995249 0.0892076 -2.00623e-19)
(0.995221 0.0891096 9.12915e-20)
(0.995193 0.0890071 1.34552e-19)
(0.995167 0.0888963 -1.6281e-19)
(0.995145 0.0887714 -2.42074e-19)
(0.99513 0.0886289 4.92483e-19)
(0.995122 0.0884727 5.24586e-20)
(0.995121 0.0883116 -7.43924e-19)
(0.995127 0.088152 6.1231e-20)
(0.995141 0.0879967 5.02384e-19)
(0.995163 0.0878449 4.86008e-20)
(0.995195 0.0876964 6.64977e-19)
(0.995238 0.0875542 -9.21175e-19)
(0.995292 0.0874218 -6.10056e-20)
(0.995352 0.0873016 -5.89508e-19)
(0.995415 0.0871932 2.31985e-19)
(0.995474 0.0870929 9.41237e-19)
(0.99552 0.0869927 2.83934e-18)
(0.995542 0.0868825 3.91261e-19)
(0.99553 0.0867491 -1.74879e-18)
(0.995474 0.0865817 1.29396e-18)
(0.995371 0.0863656 4.50942e-18)
(0.995229 0.0860919 -3.56769e-18)
(0.995054 0.0857464 4.21048e-18)
(0.994894 0.085279 -2.58665e-18)
(0.994796 0.08463 -1.32819e-18)
(0.994874 0.0837198 -5.68164e-18)
(0.995058 0.0825678 -3.06001e-19)
(0.995568 0.0811407 -1.90454e-18)
(0.995878 0.0789875 -2.1763e-18)
(0.996828 0.0767378 1.79822e-18)
(0.997631 0.0783325 4.00877e-19)
(0.996134 0.089823 5.8387e-21)
(0.99612 0.0898597 2.06344e-21)
(0.996094 0.089893 -2.11272e-20)
(0.996059 0.089923 2.01101e-20)
(0.996017 0.089955 -8.90126e-21)
(0.995971 0.0899872 1.59655e-20)
(0.995922 0.0900186 5.54501e-21)
(0.995872 0.0900488 -7.96298e-20)
(0.995823 0.0900771 3.43149e-20)
(0.995776 0.0901029 -2.36186e-20)
(0.995731 0.0901254 1.40571e-20)
(0.995689 0.0901443 5.5159e-20)
(0.99565 0.0901587 -1.02817e-20)
(0.995612 0.0901687 3.37665e-20)
(0.995576 0.0901733 -1.42302e-19)
(0.995541 0.0901727 5.43997e-20)
(0.995506 0.0901661 2.38654e-20)
(0.995472 0.0901535 -6.57592e-20)
(0.995437 0.0901343 1.29917e-19)
(0.9954 0.0901086 4.30299e-20)
(0.995363 0.0900763 -4.50824e-21)
(0.995324 0.0900369 -4.66079e-20)
(0.995284 0.0899904 1.86976e-19)
(0.995242 0.0899354 -5.15207e-19)
(0.995204 0.0898688 2.64529e-19)
(0.995171 0.0897917 1.10266e-19)
(0.99514 0.0897066 -1.79523e-19)
(0.995107 0.0896123 3.10767e-19)
(0.995073 0.0895104 -1.45806e-19)
(0.995039 0.0894007 -7.57756e-20)
(0.995006 0.0892856 -1.46129e-19)
(0.994974 0.0891609 -5.95564e-20)
(0.994947 0.0890205 1.59501e-19)
(0.994928 0.0888602 -4.82727e-19)
(0.994915 0.088684 9.08252e-19)
(0.994909 0.0885014 -6.13212e-20)
(0.994909 0.0883191 4.71478e-19)
(0.994916 0.0881404 -1.20356e-18)
(0.994933 0.0879645 -3.79841e-19)
(0.994962 0.0877914 1.00683e-20)
(0.995006 0.0876253 -2.94276e-19)
(0.995065 0.0874724 -4.88905e-20)
(0.995136 0.0873377 -1.04791e-18)
(0.995218 0.0872248 3.76442e-19)
(0.995305 0.0871341 5.00892e-19)
(0.99539 0.0870616 -2.64485e-18)
(0.995463 0.0869998 3.36043e-18)
(0.995512 0.0869352 4.81199e-19)
(0.995527 0.0868528 1.75325e-19)
(0.995502 0.0867283 -3.06137e-18)
(0.995438 0.0865404 1.04525e-18)
(0.995342 0.0862619 -2.17958e-18)
(0.995253 0.0858325 4.24143e-18)
(0.995219 0.0851861 8.95439e-19)
(0.995351 0.0842452 -3.62097e-18)
(0.995573 0.083027 1.39212e-18)
(0.996063 0.0815218 -4.07855e-18)
(0.996459 0.0792471 -9.5863e-19)
(0.997242 0.0767149 -6.86509e-18)
(0.997419 0.0773889 -1.67044e-18)
(0.996125 0.0901495 -1.29521e-21)
(0.99614 0.090179 -5.08417e-21)
(0.996138 0.0902105 -4.44251e-21)
(0.996123 0.0902385 4.25703e-20)
(0.996095 0.0902699 -2.34971e-20)
(0.996057 0.0903025 -2.83149e-20)
(0.99601 0.0903353 -1.07219e-20)
(0.995958 0.0903677 -4.37602e-20)
(0.995903 0.0903989 2.68836e-20)
(0.995845 0.0904282 3.69152e-21)
(0.995787 0.0904546 1.18544e-21)
(0.995729 0.0904777 1.15666e-19)
(0.995672 0.0904964 -8.16767e-20)
(0.995616 0.0905106 -1.01762e-20)
(0.995561 0.0905193 9.36966e-20)
(0.995508 0.0905223 -5.13499e-20)
(0.995455 0.0905189 -1.98929e-20)
(0.995403 0.0905089 3.18379e-20)
(0.995351 0.0904914 1.03197e-19)
(0.995299 0.0904664 5.74403e-20)
(0.995246 0.090434 2.19762e-20)
(0.995193 0.0903933 -1.42155e-19)
(0.99514 0.0903444 7.26251e-20)
(0.995086 0.0902859 1.40175e-19)
(0.995038 0.0902149 -2.87591e-19)
(0.994997 0.0901317 9.10343e-20)
(0.994958 0.0900393 -3.49664e-19)
(0.994916 0.0899364 2.77674e-19)
(0.994875 0.0898246 2.40247e-19)
(0.994832 0.0897036 -3.6121e-19)
(0.99479 0.0895763 -1.71756e-19)
(0.994749 0.0894382 2.24762e-19)
(0.994712 0.0892831 7.48533e-20)
(0.994682 0.0891064 -2.0601e-19)
(0.994657 0.0889116 -2.62988e-19)
(0.994637 0.0887085 -3.14164e-19)
(0.994619 0.0885038 1.92638e-19)
(0.994607 0.0883007 4.67492e-19)
(0.994603 0.0880979 1.64561e-19)
(0.99461 0.0878952 -1.4886e-19)
(0.994632 0.0876974 1.66998e-18)
(0.994668 0.0875117 -1.85454e-19)
(0.994721 0.0873447 1.74341e-18)
(0.994787 0.0872023 -3.14193e-18)
(0.994866 0.0870873 5.3986e-19)
(0.994951 0.0869987 7.45113e-20)
(0.995034 0.0869307 -7.63802e-20)
(0.995109 0.0868697 -2.40282e-18)
(0.995162 0.0867981 -3.71388e-18)
(0.995191 0.0866853 3.2959e-18)
(0.995195 0.0865015 4.2625e-18)
(0.995177 0.0862111 2.2496e-18)
(0.995174 0.0857478 -4.15623e-18)
(0.995227 0.085041 2.23235e-18)
(0.995448 0.0840149 5.38762e-18)
(0.99575 0.0826835 2.40685e-18)
(0.996271 0.081058 3.9738e-18)
(0.996802 0.0786498 2.11145e-18)
(0.997585 0.075844 6.73086e-18)
(0.997093 0.0757759 -5.3278e-18)
(0.995982 0.0906588 1.67045e-21)
(0.996029 0.0906759 -4.99767e-21)
(0.996057 0.0906979 1.78364e-20)
(0.99607 0.0907163 4.70778e-21)
(0.996066 0.0907384 -2.4403e-20)
(0.996048 0.0907622 -2.81778e-20)
(0.996017 0.090787 6.63767e-20)
(0.995975 0.0908122 -7.23528e-20)
(0.995924 0.0908371 -1.79592e-20)
(0.995866 0.090861 4.42924e-20)
(0.995803 0.0908827 4.11101e-20)
(0.995738 0.0909016 1.25031e-19)
(0.99567 0.0909166 -6.94169e-20)
(0.995601 0.0909273 -1.1977e-19)
(0.995532 0.0909328 2.61929e-20)
(0.995463 0.0909327 -9.77018e-20)
(0.995394 0.0909261 7.26922e-20)
(0.995325 0.0909127 -1.23211e-19)
(0.995257 0.0908916 1.91889e-20)
(0.995189 0.0908624 -4.08444e-20)
(0.99512 0.0908255 -2.62175e-20)
(0.995052 0.0907796 -1.11258e-19)
(0.994984 0.0907248 8.89261e-21)
(0.994916 0.0906601 2.38367e-19)
(0.994855 0.0905825 -8.1265e-20)
(0.994803 0.0904917 2.43528e-20)
(0.994755 0.0903913 6.98937e-20)
(0.994704 0.0902796 -9.17368e-20)
(0.994652 0.0901585 -1.92782e-20)
(0.994599 0.0900269 1.2529e-19)
(0.994546 0.0898884 1.3604e-19)
(0.994493 0.0897383 -9.97884e-20)
(0.994444 0.0895704 -3.18228e-19)
(0.994398 0.0893795 -4.54311e-19)
(0.994356 0.0891686 6.91731e-19)
(0.994316 0.0889476 1.89815e-19)
(0.994275 0.0887224 1.2001e-19)
(0.994235 0.0884959 6.25747e-19)
(0.9942 0.0882661 -5.70626e-19)
(0.994174 0.0880319 3.61509e-19)
(0.994159 0.0877977 2.40143e-20)
(0.994158 0.0875711 1.13015e-20)
(0.994171 0.0873589 -6.40467e-19)
(0.9942 0.0871677 1.49267e-18)
(0.994244 0.0870015 -2.00505e-18)
(0.994301 0.0868605 1.20977e-18)
(0.994367 0.0867399 -3.32568e-18)
(0.994437 0.0866264 7.82226e-19)
(0.994504 0.0865008 1.97927e-18)
(0.994566 0.0863292 -3.41582e-18)
(0.994626 0.0860776 -6.18252e-19)
(0.994683 0.0857069 3.44866e-21)
(0.994774 0.0851495 -9.22759e-19)
(0.994935 0.0843345 -2.52847e-18)
(0.995272 0.0831908 1.34551e-19)
(0.995696 0.0817323 2.67005e-18)
(0.996299 0.0799916 -2.60992e-18)
(0.997007 0.0775009 -7.17649e-19)
(0.997921 0.0745256 -8.21162e-19)
(0.996953 0.0740114 4.09108e-18)
(0.995703 0.0913199 3.10116e-21)
(0.995777 0.091322 -2.60528e-21)
(0.995834 0.0913307 2.39693e-21)
(0.995875 0.0913351 1.53387e-20)
(0.9959 0.0913431 2.2332e-20)
(0.995908 0.0913529 -8.65511e-20)
(0.9959 0.091364 6.24409e-20)
(0.995878 0.091376 1.31087e-20)
(0.995842 0.0913882 -3.781e-21)
(0.995795 0.0914 -2.79768e-20)
(0.995738 0.0914101 8.60097e-20)
(0.995675 0.0914181 -2.75138e-20)
(0.995606 0.0914227 -3.83131e-20)
(0.995532 0.0914236 -1.14881e-19)
(0.995456 0.0914196 2.29178e-19)
(0.995377 0.0914104 -4.68409e-20)
(0.995297 0.0913948 -3.93318e-20)
(0.995216 0.0913726 -1.17603e-19)
(0.995135 0.0913426 1.29335e-19)
(0.995053 0.0913046 7.21132e-20)
(0.994971 0.0912587 -3.23466e-20)
(0.994888 0.0912035 5.71446e-20)
(0.994806 0.0911392 -2.41277e-19)
(0.994725 0.0910651 1.57198e-20)
(0.99465 0.0909786 1.32545e-19)
(0.994587 0.0908786 -2.46402e-20)
(0.994528 0.0907692 -3.91722e-19)
(0.994467 0.0906486 3.20166e-20)
(0.994405 0.0905185 3.3213e-19)
(0.994341 0.0903772 -8.75351e-20)
(0.994277 0.0902286 -1.66739e-19)
(0.994212 0.090068 9.69197e-20)
(0.994148 0.0898893 2.82821e-19)
(0.994086 0.0896866 6.66893e-19)
(0.994026 0.0894625 -1.01861e-19)
(0.993963 0.0892265 1.47962e-19)
(0.993897 0.0889834 -1.06513e-18)
(0.993828 0.0887357 -3.06988e-19)
(0.993759 0.0884804 1.99878e-19)
(0.993695 0.0882149 -8.44795e-19)
(0.99364 0.0879431 -1.76738e-19)
(0.993594 0.087672 3.99041e-19)
(0.993562 0.0874075 3.57315e-19)
(0.993543 0.0871558 9.55991e-19)
(0.993542 0.0869209 3.10931e-18)
(0.993559 0.0867032 -2.46884e-18)
(0.993594 0.0864983 3.95893e-18)
(0.993645 0.0862929 2.91768e-18)
(0.993711 0.0860678 -3.52073e-20)
(0.993796 0.0857879 3.74911e-18)
(0.993902 0.0854186 -4.86338e-18)
(0.994033 0.0849219 -5.74912e-18)
(0.994223 0.0842333 4.40264e-18)
(0.994503 0.0832862 3.74535e-18)
(0.994976 0.0820174 -1.6454e-18)
(0.995548 0.0804451 -8.63836e-18)
(0.996271 0.0786238 1.98068e-18)
(0.997176 0.0761243 -2.3044e-18)
(0.998298 0.073108 -3.55187e-18)
(0.997105 0.0724215 3.55565e-18)
(0.995315 0.0920824 -3.32573e-21)
(0.995406 0.0920719 3.62706e-21)
(0.995483 0.0920676 2.47475e-20)
(0.995549 0.0920579 -3.21943e-20)
(0.9956 0.0920507 5.85733e-20)
(0.995634 0.0920448 -8.57848e-20)
(0.995652 0.0920398 2.41313e-20)
(0.995654 0.0920356 -1.23083e-21)
(0.99564 0.0920316 5.36627e-20)
(0.995611 0.0920276 -2.80824e-20)
(0.995569 0.0920223 8.3603e-21)
(0.995517 0.0920152 8.62409e-21)
(0.995455 0.0920051 -1.32953e-19)
(0.995385 0.0919917 3.92397e-20)
(0.995309 0.0919738 9.14322e-20)
(0.995228 0.091951 2.93898e-21)
(0.995144 0.0919222 -1.52299e-19)
(0.995057 0.091887 6.13893e-20)
(0.994967 0.0918441 2.88854e-19)
(0.994876 0.0917933 -1.86937e-19)
(0.994784 0.0917349 -1.42472e-19)
(0.994691 0.0916672 1.20368e-19)
(0.994598 0.0915904 7.75954e-20)
(0.994504 0.0915044 8.67304e-20)
(0.994418 0.0914067 -1.65126e-19)
(0.994343 0.091296 -3.52054e-19)
(0.994275 0.0911768 2.55449e-19)
(0.994206 0.091047 3.59419e-19)
(0.994134 0.090908 9.98672e-20)
(0.994061 0.0907575 -1.85887e-19)
(0.993985 0.0905998 8.5537e-20)
(0.993908 0.0904298 1.43616e-19)
(0.993831 0.0902418 -2.39191e-19)
(0.993755 0.0900292 -3.30774e-20)
(0.993676 0.0897942 -4.3276e-19)
(0.993593 0.0895456 -1.19195e-19)
(0.993503 0.0892871 -1.21445e-19)
(0.993407 0.0890204 3.1055e-19)
(0.993308 0.0887413 -4.40096e-19)
(0.993211 0.0884461 1.27897e-19)
(0.993117 0.0881373 2.22604e-19)
(0.993031 0.0878209 6.23212e-20)
(0.992954 0.0875016 -1.41273e-18)
(0.992892 0.0871842 -2.00442e-18)
(0.992847 0.086872 -1.74533e-18)
(0.992823 0.0865647 3.55796e-18)
(0.992826 0.0862579 2.06336e-19)
(0.992857 0.0859387 -1.40777e-18)
(0.99292 0.0855883 7.61256e-19)
(0.993023 0.0851725 -4.62073e-18)
(0.993175 0.0846589 2.17879e-18)
(0.993379 0.0840138 6.00726e-18)
(0.993669 0.0831797 -2.24929e-19)
(0.994073 0.0820976 -5.15721e-18)
(0.99469 0.0807147 2.36041e-18)
(0.995423 0.0790573 2.19372e-18)
(0.996283 0.0771994 2.85346e-18)
(0.997383 0.074759 6.59419e-18)
(0.998738 0.0718104 6.69317e-18)
(0.997535 0.0711483 -8.15334e-18)
(0.994856 0.092886 -2.8064e-21)
(0.99495 0.0928666 4.03951e-21)
(0.995037 0.0928524 8.48591e-22)
(0.995118 0.0928317 1.53589e-20)
(0.995188 0.0928121 -2.31787e-20)
(0.995244 0.0927929 -4.76064e-20)
(0.995286 0.0927737 1.67509e-20)
(0.995311 0.0927544 -2.27031e-20)
(0.99532 0.0927349 4.86898e-20)
(0.995313 0.0927149 -9.8576e-21)
(0.995291 0.0926933 -3.23013e-20)
(0.995255 0.0926699 2.64434e-20)
(0.995207 0.0926435 4.30013e-20)
(0.995148 0.092614 1.18539e-19)
(0.99508 0.0925802 -2.13666e-19)
(0.995004 0.0925416 1.08698e-19)
(0.994922 0.0924973 1.66788e-20)
(0.994835 0.0924469 -1.06406e-19)
(0.994744 0.0923888 -6.64921e-20)
(0.994649 0.092323 2.16766e-19)
(0.994552 0.0922499 -2.26578e-19)
(0.994453 0.0921676 6.72267e-20)
(0.994352 0.0920764 -1.82636e-19)
(0.99425 0.0919767 3.03293e-19)
(0.994154 0.0918663 -6.1085e-20)
(0.994071 0.0917438 -1.68726e-19)
(0.993996 0.0916141 1.30546e-19)
(0.993919 0.0914746 2.39704e-19)
(0.99384 0.0913268 -2.20943e-19)
(0.993759 0.0911672 1.32758e-19)
(0.993675 0.0910007 -4.44957e-19)
(0.993588 0.0908219 -4.98385e-20)
(0.9935 0.0906252 1.86627e-19)
(0.99341 0.0904038 -1.09646e-19)
(0.993317 0.0901589 -2.28098e-19)
(0.993217 0.0898991 -5.47298e-19)
(0.993108 0.0896267 6.9828e-19)
(0.99299 0.0893423 -2.84631e-19)
(0.992867 0.089041 2.16026e-19)
(0.992742 0.0887174 4.6073e-19)
(0.992619 0.0883728 3.79429e-19)
(0.9925 0.088012 -2.38263e-19)
(0.992389 0.0876379 8.41661e-19)