/*--------------------------------*- C++ -*----------------------------------*\
  =========                 |
  \\      /  F ield         | OpenFOAM: The Open Source CFD Toolbox
   \\    /   O peration     | Website:  https://openfoam.org
    \\  /    A nd           | Version:  6.0
     \\/     M anipulation  |
\*---------------------------------------------------------------------------*/
FoamFile
{
    version     2.0;
    format      ascii;
    class       volScalarField;
    location    "11";
    object      p;
}
// * * * * * * * * * * * * * * * * * * * * * * * * * * * * * * * * * * * * * //

dimensions      [0 2 -2 0 0 0 0];

internalField   nonuniform List<scalar> 
62000
(
0.0114199
0.0114336
0.011441
0.0114351
0.0114128
0.0113676
0.0112976
0.0112028
0.0110871
0.0109528
0.0108038
0.0106385
0.0104585
0.0102588
0.0100411
0.00979864
0.00953359
0.00923868
0.00891609
0.00855858
0.00816778
0.00773686
0.0072669
0.00675152
0.00619147
0.00558078
0.00492002
0.00420389
0.00343288
0.00260272
0.00171542
0.000768353
-0.000234978
-0.00129953
-0.00242588
-0.00361169
-0.00484984
-0.00613014
-0.0074397
-0.00876306
-0.010083
-0.0113817
-0.0126422
-0.0138511
-0.015001
-0.0160908
-0.0171231
-0.0181052
-0.0190252
-0.0198709
-0.0205735
-0.0210675
-0.02122
-0.0209508
-0.0201155
-0.0185902
-0.0163019
-0.0130931
-0.0133664
-0.0253471
0.0113221
0.0113729
0.0114225
0.0114695
0.0115131
0.0115382
0.0115295
0.0114748
0.011373
0.0112294
0.0110548
0.0108562
0.0106412
0.0104088
0.0101617
0.00989395
0.00960622
0.00929162
0.00895058
0.00857642
0.00816921
0.00772281
0.0072368
0.00670548
0.00612805
0.00549927
0.00481775
0.00407915
0.00328144
0.00242148
0.00149809
0.000510983
-0.000540751
-0.00166164
-0.00285507
-0.00412169
-0.00545533
-0.0068467
-0.00828346
-0.00975067
-0.0112309
-0.012705
-0.0141536
-0.0155602
-0.0169141
-0.018212
-0.0194556
-0.0206544
-0.0217983
-0.0228794
-0.0238201
-0.0245429
-0.024868
-0.0246746
-0.0237274
-0.0217818
-0.0187071
-0.0143093
-0.0116057
-0.0141012
0.0115268
0.0115562
0.0115748
0.0115936
0.0116281
0.0116723
0.0117055
0.0117003
0.0116395
0.0115178
0.0113443
0.0111298
0.0108884
0.0106247
0.0103451
0.0100455
0.00972715
0.00938288
0.00901296
0.00861043
0.00817536
0.00770168
0.00718909
0.00663197
0.00602958
0.00537669
0.00467173
0.0039104
0.00309014
0.00220786
0.00126177
0.000252033
-0.00082298
-0.00196706
-0.00318752
-0.00448445
-0.00585221
-0.00728055
-0.00875559
-0.0102603
-0.0117738
-0.0132712
-0.014725
-0.0161076
-0.0173958
-0.0185728
-0.0196284
-0.0205648
-0.0213708
-0.0220498
-0.0225431
-0.0228089
-0.0227062
-0.0221839
-0.0210807
-0.0192411
-0.0167386
-0.0134329
-0.0128786
-0.0184007
0.0117553
0.0117827
0.0117816
0.011762
0.0117557
0.0117754
0.0118096
0.011827
0.0117981
0.0117047
0.0115478
0.0113368
0.0110885
0.0108126
0.0105194
0.0102077
0.00987922
0.0095269
0.00914993
0.00874095
0.00829918
0.00781872
0.00729901
0.00673477
0.00612528
0.00546544
0.00475359
0.00398529
0.00315757
0.00226688
0.00131046
0.000287942
-0.00080223
-0.00196819
-0.00321573
-0.00455004
-0.00596705
-0.00745848
-0.00901228
-0.0106132
-0.0122416
-0.0138717
-0.0154722
-0.0170091
-0.0184495
-0.0197641
-0.0209293
-0.0219352
-0.0227622
-0.0234151
-0.023844
-0.0240327
-0.023869
-0.0233572
-0.0223917
-0.0208582
-0.0188532
-0.0161717
-0.0157799
-0.0188793
0.0116736
0.0117445
0.0117692
0.0117471
0.0117168
0.0117064
0.0117178
0.0117253
0.0116951
0.0116012
0.0114369
0.0112084
0.0109335
0.010626
0.0103011
0.00996169
0.00961183
0.00924547
0.00886122
0.00845073
0.00801184
0.00753763
0.00702658
0.00647286
0.00587531
0.00522848
0.00453037
0.00377622
0.00296244
0.00208478
0.00113948
0.000125077
-0.000963003
-0.00213064
-0.00339112
-0.00475033
-0.00620919
-0.0077641
-0.00940799
-0.0111313
-0.0129203
-0.0147538
-0.0166034
-0.0184351
-0.0202121
-0.0218973
-0.0234549
-0.0248592
-0.0260727
-0.0270842
-0.0278267
-0.0282743
-0.0282978
-0.0278925
-0.0269295
-0.0252411
-0.0228167
-0.0193706
-0.0173409
-0.018022
0.0114283
0.0115552
0.0116263
0.0116314
0.0116066
0.0115859
0.0115812
0.0115735
0.0115293
0.011418
0.0112272
0.0109591
0.0106309
0.0102589
0.00986283
0.00945109
0.00903219
0.00860351
0.00816536
0.00771018
0.00723527
0.00673338
0.00620179
0.00563408
0.00502824
0.00437826
0.00368151
0.00293284
0.0021281
0.00126251
0.000331343
-0.000668024
-0.00173945
-0.00289476
-0.00414338
-0.00549735
-0.0069604
-0.0085336
-0.0102153
-0.0120023
-0.0138883
-0.0158593
-0.0178926
-0.0199582
-0.0220201
-0.0240375
-0.0259651
-0.0277624
-0.0293706
-0.0307536
-0.0318141
-0.0324965
-0.0326278
-0.032165
-0.0309329
-0.0287072
-0.0254436
-0.0209345
-0.0175098
-0.0164627
0.0113108
0.011473
0.0115787
0.0116135
0.0116063
0.0115909
0.0115847
0.0115741
0.0115264
0.0114084
0.0112023
0.0109055
0.0105317
0.010097
0.0096226
0.00912085
0.00860433
0.00807525
0.00753747
0.00698656
0.0064216
0.00583681
0.00522999
0.00459508
0.00393018
0.00322917
0.0024893
0.00170539
0.000873079
-1.2388e-05
-0.00095596
-0.00196025
-0.00303179
-0.00417694
-0.00541168
-0.00674543
-0.00818471
-0.00973372
-0.0113944
-0.0131683
-0.0150553
-0.0170478
-0.0191291
-0.0212746
-0.0234516
-0.0256189
-0.0277263
-0.029723
-0.0315332
-0.0330998
-0.0342972
-0.0350425
-0.0351232
-0.034465
-0.032869
-0.03011
-0.026211
-0.0211239
-0.0169594
-0.0148416
0.0113558
0.011525
0.0116451
0.0117008
0.0117123
0.0117098
0.0117136
0.0117132
0.0116773
0.011571
0.0113732
0.0110766
0.0106906
0.0102283
0.00970946
0.0091468
0.0085545
0.00793728
0.00730189
0.00664698
0.00597421
0.00528065
0.00456595
0.00382618
0.00306089
0.00226529
0.00143761
0.000573623
-0.000330272
-0.00127803
-0.00227413
-0.00332078
-0.00442154
-0.00558758
-0.00682696
-0.00815232
-0.00956876
-0.0110814
-0.0126935
-0.0144091
-0.0162319
-0.0181589
-0.0201783
-0.0222708
-0.0244077
-0.0265506
-0.0286486
-0.0306466
-0.0324596
-0.034018
-0.0351794
-0.0358457
-0.0357814
-0.0349024
-0.0330187
-0.0299424
-0.0257968
-0.0206204
-0.0161491
-0.0133446
0.0115886
0.0117431
0.011857
0.0119168
0.0119346
0.0119377
0.011947
0.0119556
0.0119331
0.0118447
0.0116666
0.011389
0.011017
0.0105606
0.0100362
0.00945497
0.00882949
0.00816504
0.0074686
0.00674042
0.00598353
0.00519712
0.00438266
0.00353853
0.00266631
0.00176331
0.000829653
-0.000137006
-0.00113866
-0.00217761
-0.00325678
-0.00437661
-0.00554194
-0.0067555
-0.00803057
-0.00937353
-0.0107888
-0.0122806
-0.0138515
-0.0155057
-0.0172486
-0.0190796
-0.0209901
-0.0229647
-0.0249792
-0.0269989
-0.0289756
-0.030855
-0.0325499
-0.0339878
-0.0350203
-0.0355487
-0.0353294
-0.034285
-0.03225
-0.0290846
-0.0249853
-0.0199706
-0.0153789
-0.0120783
0.0118729
0.0120019
0.0121007
0.0121573
0.0121767
0.0121825
0.0121961
0.012212
0.0122013
0.0121296
0.0119728
0.0117196
0.0113733
0.0109413
0.0104377
0.00987099
0.0092518
0.00858352
0.00787179
0.00711622
0.00631937
0.00548102
0.00460307
0.00368539
0.00273093
0.00173894
0.000711453
-0.000351809
-0.00145079
-0.0025857
-0.00375764
-0.00496531
-0.0062088
-0.00749516
-0.00882726
-0.0102133
-0.0116536
-0.0131505
-0.0147044
-0.0163182
-0.0179971
-0.0197413
-0.0215436
-0.0233914
-0.0252643
-0.0271317
-0.0289494
-0.0306671
-0.0322003
-0.0334796
-0.0343594
-0.0347483
-0.0344035
-0.033263
-0.0311887
-0.0280758
-0.024154
-0.0193499
-0.0146743
-0.0109586
0.0122419
0.0123407
0.0124174
0.0124621
0.0124744
0.0124751
0.0124857
0.0125022
0.0124963
0.0124345
0.0122921
0.0120579
0.0117336
0.0113264
0.0108482
0.0103065
0.00970964
0.0090599
0.00836079
0.00761071
0.00681059
0.00595932
0.00505787
0.00410604
0.00310681
0.00206023
0.000969337
-0.000164694
-0.00134019
-0.00255557
-0.00380982
-0.00509941
-0.00642527
-0.00778468
-0.00918595
-0.0106297
-0.0121146
-0.0136404
-0.0152049
-0.0168085
-0.0184551
-0.0201441
-0.0218686
-0.0236173
-0.0253722
-0.0271064
-0.02878
-0.0303478
-0.0317301
-0.0328645
-0.0336113
-0.0338915
-0.0334666
-0.0322899
-0.0302442
-0.0272441
-0.0235206
-0.0188846
-0.0141045
-0.0100017
0.0126285
0.0126973
0.012752
0.0127839
0.0127877
0.012782
0.0127876
0.0128012
0.0127952
0.0127364
0.0126007
0.0123768
0.012067
0.0116779
0.0112213
0.0107039
0.0101333
0.00951033
0.00883705
0.00811039
0.00732945
0.00649181
0.00559672
0.00464313
0.00363293
0.00256595
0.00144508
0.000271969
-0.000950938
-0.00222098
-0.00353591
-0.00489097
-0.00628219
-0.00771216
-0.00917812
-0.010683
-0.0122215
-0.0137907
-0.0153856
-0.0170039
-0.0186474
-0.0203143
-0.0219965
-0.0236833
-0.025358
-0.0269965
-0.0285623
-0.0300151
-0.0312807
-0.0323036
-0.0329519
-0.0331588
-0.0326897
-0.03151
-0.0295171
-0.0266294
-0.0230632
-0.0185147
-0.0135873
-0.00910279
0.0131036
0.0131445
0.0131751
0.013189
0.0131773
0.0131576
0.0131504
0.0131536
0.0131395
0.0130759
0.0129378
0.0127152
0.0124094
0.0120281
0.0115822
0.0110796
0.0105266
0.00992458
0.00927431
0.00857231
0.00781614
0.00700225
0.00612811
0.00519136
0.00419226
0.00312959
0.00200525
0.000820377
-0.000422749
-0.0017214
-0.00307248
-0.00447028
-0.00591279
-0.00739309
-0.0089154
-0.0104754
-0.0120671
-0.0136854
-0.0153226
-0.0169737
-0.0186385
-0.0203128
-0.0219874
-0.0236508
-0.0252868
-0.0268726
-0.0283744
-0.0297558
-0.030947
-0.0318992
-0.0324867
-0.0326549
-0.0321701
-0.0310062
-0.0290673
-0.0262683
-0.0228042
-0.0182714
-0.0131623
-0.0082951
0.0135335
0.0135498
0.0135613
0.0135623
0.0135406
0.013512
0.0134966
0.0134925
0.013472
0.0134032
0.0132615
0.0130371
0.0127319
0.0123538
0.0119143
0.0114213
0.0108813
0.0102955
0.00966447
0.00898431
0.00825175
0.00746266
0.00661318
0.00570006
0.00472199
0.00367667
0.00256464
0.00138602
0.000142266
-0.00116442
-0.00253137
-0.00395309
-0.00542381
-0.00694372
-0.00850652
-0.0101118
-0.0117506
-0.0134161
-0.0150984
-0.0167904
-0.0184896
-0.0201898
-0.0218801
-0.0235479
-0.0251768
-0.0267443
-0.0282181
-0.0295645
-0.0307168
-0.0316314
-0.0321873
-0.0323396
-0.0318531
-0.0307066
-0.0288073
-0.0260605
-0.0226419
-0.0180622
-0.0127412
-0.00748704
0.0139901
0.0139842
0.0139767
0.0139637
0.0139304
0.0138916
0.0138671
0.0138554
0.0138284
0.0137544
0.0136081
0.0133803
0.0130723
0.0126932
0.0122539
0.0117634
0.0112279
0.0106498
0.010029
0.00936242
0.00864622
0.00787615
0.0070475
0.00615638
0.00520029
0.00417587
0.00308237
0.00191873
0.000685285
-0.00061689
-0.00198551
-0.00341554
-0.00490463
-0.00644428
-0.00803709
-0.00967622
-0.0113537
-0.0130613
-0.0147878
-0.0165242
-0.0182659
-0.0200047
-0.0217281
-0.0234219
-0.0250686
-0.0266457
-0.0281211
-0.0294629
-0.030606
-0.0315102
-0.0320576
-0.0322113
-0.0317327
-0.0306025
-0.0287277
-0.0260038
-0.0225892
-0.0179243
-0.0123784
-0.0067334
0.0144147
0.0143896
0.0143674
0.0143447
0.0143043
0.0142597
0.01423
0.0142135
0.0141818
0.0141031
0.0139522
0.01372
0.0134086
0.0130268
0.0125865
0.0120965
0.0115635
0.0109899
0.0103757
0.00971785
0.00901254
0.00825569
0.00744212
0.00656792
0.00562981
0.00462388
0.00354832
0.00240112
0.0011815
-0.000110515
-0.00147389
-0.0029047
-0.00439773
-0.00595316
-0.00756366
-0.00922777
-0.0109358
-0.012679
-0.0144449
-0.0162234
-0.0180082
-0.0197895
-0.0215529
-0.023283
-0.0249609
-0.0265634
-0.0280579
-0.0294134
-0.0305652
-0.031475
-0.0320266
-0.0321891
-0.0317188
-0.0305969
-0.0287292
-0.0260008
-0.0225563
-0.0177763
-0.0119969
-0.0059582
0.014915
0.0148736
0.0148358
0.0148
0.0147476
0.0146919
0.0146517
0.014626
0.0145856
0.0144992
0.0143404
0.0141011
0.0137823
0.0133944
0.012948
0.0124535
0.0119168
0.0113413
0.0107268
0.0100709
0.00936956
0.00861897
0.00781372
0.00694991
0.0060238
0.00503112
0.00396937
0.00283576
0.00162863
0.000346853
-0.00100914
-0.00243636
-0.00393381
-0.00549327
-0.00711768
-0.00879989
-0.0105322
-0.0123055
-0.0141071
-0.0159258
-0.0177539
-0.0195801
-0.0213887
-0.0231625
-0.0248813
-0.0265205
-0.028047
-0.0294296
-0.0306032
-0.0315306
-0.032095
-0.0322723
-0.0318115
-0.0306939
-0.0288225
-0.0260736
-0.0225806
-0.0176725
-0.0116643
-0.00523575
0.0153562
0.0153018
0.0152544
0.0152127
0.015156
0.015097
0.0150536
0.0150245
0.0149802
0.0148891
0.0147252
0.0144804
0.0141565
0.0137635
0.0133132
0.0128155
0.0122765
0.0116995
0.0110843
0.0104286
0.00972819
0.00897984
0.00817787
0.00731881
0.00639867
0.00541325
0.0043596
0.00323454
0.00203571
0.00076131
-0.000589426
-0.00201463
-0.00351056
-0.00507847
-0.00671139
-0.00840851
-0.0101611
-0.0119602
-0.013793
-0.0156477
-0.0175157
-0.0193845
-0.0212371
-0.0230549
-0.0248164
-0.0264956
-0.0280581
-0.0294725
-0.0306729
-0.0316214
-0.032201
-0.0323923
-0.0319369
-0.0308161
-0.0289295
-0.0261456
-0.0225886
-0.0175399
-0.0113062
-0.00449366
0.0158367
0.0157711
0.0157138
0.0156651
0.0156029
0.0155396
0.0154926
0.0154608
0.0154137
0.0153197
0.0151518
0.0149026
0.014573
0.0141744
0.0137178
0.013214
0.0126688
0.0120863
0.011466
0.0108062
0.0101024
0.00935161
0.00854815
0.00768871
0.00676921
0.00578544
0.00473425
0.00361222
0.00241658
0.00114481
-0.000204134
-0.0016291
-0.00313066
-0.00470135
-0.00634522
-0.0080558
-0.00982677
-0.0116499
-0.0135121
-0.0154013
-0.0173082
-0.0192194
-0.0211164
-0.0229797
-0.0247861
-0.0265083
-0.0281104
-0.0295607
-0.0307916
-0.0317646
-0.032361
-0.0325672
-0.0321167
-0.0309902
-0.0290841
-0.0262597
-0.0226338
-0.0174438
-0.0109963
-0.00380894
0.016299
0.0162246
0.0161615
0.0161105
0.0160478
0.0159849
0.0159386
0.0159074
0.0158599
0.0157639
0.015593
0.0153395
0.0150052
0.0146014
0.0141398
0.0136312
0.0130815
0.0124947
0.0118701
0.0112058
0.0104975
0.00974232
0.00893441
0.00807096
0.00714775
0.00616084
0.00510698
0.00398269
0.00278493
0.00151093
0.000158807
-0.00127106
-0.00277618
-0.00435878
-0.00601258
-0.00773782
-0.00952729
-0.0113733
-0.0132629
-0.015184
-0.0171269
-0.0190771
-0.0210155
-0.0229214
-0.0247702
-0.0265333
-0.0281735
-0.0296582
-0.0309184
-0.0319143
-0.0325257
-0.0327434
-0.0322935
-0.031156
-0.0292241
-0.0263521
-0.0226507
-0.0173153
-0.0106606
-0.00310492
0.0168707
0.0167892
0.0167185
0.0166606
0.0165912
0.0165224
0.0164704
0.0164342
0.0163813
0.01628
0.0161023
0.0158417
0.0154989
0.0150869
0.0146161
0.0140987
0.0135399
0.0129446
0.0123114
0.0116392
0.0109229
0.0101602
0.00934483
0.00847407
0.00754364
0.00654969
0.00548889
0.00435777
0.00315317
0.00187193
0.000512267
-0.000925833
-0.00244399
-0.0040352
-0.00570439
-0.00744592
-0.00925509
-0.0111249
-0.0130426
-0.0149961
-0.0169751
-0.0189645
-0.0209444
-0.022893
-0.0247845
-0.026589
-0.0282676
-0.0297875
-0.0310774
-0.0320966
-0.0327226
-0.0329523
-0.0325033
-0.0313552
-0.0293972
-0.0264776
-0.022702
-0.0172256
-0.0103763
-0.00246141
0.0174024
0.0173165
0.0172435
0.0171859
0.0171178
0.0170508
0.0170003
0.0169649
0.0169114
0.0168077
0.0166261
0.0163601
0.0160115
0.0155929
0.0151158
0.014592
0.0140269
0.013425
0.012785
0.0121056
0.0113813
0.0106101
0.00978544
0.00890508
0.00796454
0.00696024
0.00588879
0.00474682
0.00353104
0.00223834
0.000866306
-0.000585472
-0.00211525
-0.00372564
-0.00541073
-0.00717165
-0.0090026
-0.0108972
-0.012843
-0.0148278
-0.0168412
-0.0188677
-0.0208864
-0.0228747
-0.0248058
-0.0266486
-0.0283628
-0.0299149
-0.0312317
-0.0322714
-0.0329095
-0.033148
-0.0326965
-0.0315344
-0.0295471
-0.0265762
-0.0227233
-0.017105
-0.0100674
-0.00179842
0.0180024
0.0179125
0.0178359
0.0177763
0.0177072
0.01764
0.01759
0.0175553
0.0175018
0.0173971
0.0172125
0.0169422
0.0165871
0.0161612
0.0156754
0.0151426
0.0145676
0.0139559
0.0133055
0.0126156
0.0118804
0.0110982
0.0102618
0.00936937
0.00841614
0.00739862
0.00631339
0.0051571
0.0039265
0.00261822
0.00123017
-0.000238238
-0.00178916
-0.00341555
-0.00512274
-0.00690559
-0.0087607
-0.0106823
-0.0126582
-0.0146761
-0.0167255
-0.0187902
-0.0208487
-0.0228775
-0.0248488
-0.0267302
-0.0284804
-0.0300647
-0.0314085
-0.0324687
-0.0331195
-0.033367
-0.0329155
-0.0317414
-0.0297265
-0.0267069
-0.0227802
-0.0170261
-0.00981197
-0.00119739
0.0186064
0.018514
0.0184373
0.0183801
0.0183146
0.0182518
0.0182062
0.0181751
0.0181236
0.0180186
0.0178316
0.0175568
0.0171961
0.0167635
0.0162706
0.0157302
0.0151473
0.0145272
0.0138677
0.0131679
0.0124217
0.0116275
0.010778
0.00987145
0.00890316
0.00786978
0.00676783
0.0055941
0.00434525
0.0030181
0.00160999
0.000120212
-0.00144987
-0.0031027
-0.00483241
-0.00664056
-0.0085224
-0.0104728
-0.0124796
-0.0145306
-0.0166153
-0.0187169
-0.0208134
-0.0228806
-0.0248896
-0.0268073
-0.0285908
-0.030205
-0.0315729
-0.0326518
-0.0333129
-0.0335677
-0.0331136
-0.0319256
-0.0298808
-0.0268104
-0.0228077
-0.0169178
-0.00953236
-0.000576024
0.0193527
0.0192587
0.0191787
0.0191183
0.0190491
0.018983
0.018934
0.0189002
0.0188447
0.0187351
0.0185413
0.0182587
0.017888
0.0174449
0.0169401
0.0163877
0.0157919
0.0151588
0.0144859
0.0137724
0.0130119
0.0122029
0.0113378
0.0104148
0.00942911
0.00837735
0.00725606
0.00606203
0.00479201
0.00344259
0.00201162
0.000498235
-0.00109984
-0.00277529
-0.00453337
-0.00636918
-0.00828019
-0.0102619
-0.0123021
-0.0143888
-0.0165111
-0.0186518
-0.0207882
-0.0228953
-0.0249436
-0.0268985
-0.0287167
-0.0303612
-0.0317545
-0.032852
-0.033526
-0.0337891
-0.0333363
-0.032138
-0.0300662
-0.0269485
-0.0228741
-0.0168545
-0.00930839
-1.78957e-05
0.0200843
0.0199908
0.019913
0.0198563
0.0197913
0.0197296
0.0196844
0.0196529
0.0195978
0.0194859
0.0192876
0.0189982
0.0186196
0.0181672
0.0176527
0.01709
0.0164836
0.0158391
0.0151539
0.014427
0.0136517
0.0128269
0.0119443
0.0110028
0.00999722
0.00892453
0.00778118
0.00656409
0.00526993
0.00389558
0.00243833
0.000897423
-0.000725981
-0.00243378
-0.00422004
-0.00608648
-0.00802912
-0.0100438
-0.0121188
-0.0142416
-0.0164017
-0.0185808
-0.0207565
-0.022902
-0.0249885
-0.0269786
-0.0288306
-0.0305026
-0.0319206
-0.0330339
-0.0337218
-0.0339893
-0.0335374
-0.0323277
-0.0302272
-0.0270606
-0.0229127
-0.0167634
-0.00906077
0.000562198
0.0209171
0.0208239
0.0207461
0.0206902
0.0206264
0.0205663
0.0205229
0.020493
0.020438
0.0203244
0.0201214
0.0198252
0.0194368
0.0189733
0.0184457
0.0178691
0.0172472
0.0165869
0.0158848
0.0151405
0.014347
0.013503
0.0126003
0.0116375
0.0106096
0.00951347
0.0083455
0.00710267
0.00578181
0.00437956
0.00289386
0.00132373
-0.000332971
-0.00206861
-0.00388826
-0.00578731
-0.0077638
-0.0098143
-0.0119267
-0.0140888
-0.0162893
-0.0185101
-0.0207272
-0.0229139
-0.0250403
-0.0270683
-0.0289555
-0.0306573
-0.0321013
-0.0332324
-0.0339374
-0.0342107
-0.0337634
-0.0325462
-0.0304204
-0.027209
-0.022992
-0.0167189
-0.00886839
0.0010807
0.0217829
0.0216914
0.0216169
0.0215658
0.0215074
0.0214528
0.0214142
0.0213877
0.0213337
0.0212178
0.0210097
0.0207054
0.0203071
0.0198318
0.0192916
0.0187013
0.0180651
0.0173895
0.016671
0.0159091
0.0150963
0.0142318
0.0133069
0.0123207
0.011268
0.0101458
0.00895057
0.00767944
0.00632917
0.00489678
0.0033796
0.00177707
9.02195e-05
-0.00168226
-0.00353457
-0.00546876
-0.00748148
-0.00956967
-0.011721
-0.0139233
-0.0161648
-0.0184274
-0.0206857
-0.0229133
-0.025079
-0.0271441
-0.0290659
-0.0307964
-0.0322659
-0.0334138
-0.0341368
-0.0344142
-0.0339692
-0.0327428
-0.0305899
-0.0273319
-0.0230442
-0.0166472
-0.00865142
0.00162535
0.0228228
0.0227332
0.0226579
0.0226047
0.0225429
0.0224848
0.0224418
0.0224108
0.0223502
0.0222264
0.0220072
0.02169
0.021276
0.0207841
0.0202251
0.0196158
0.0189591
0.0182629
0.0175228
0.0167389
0.0159031
0.0150149
0.014065
0.0130528
0.0119728
0.0108221
0.00959727
0.00829535
0.00691339
0.00544817
0.00389786
0.00226156
0.000537283
-0.00126708
-0.00315693
-0.00512804
-0.00717938
-0.00930789
-0.0115016
-0.0137471
-0.0160333
-0.0183406
-0.0206438
-0.0229149
-0.0251231
-0.0272279
-0.0291874
-0.0309489
-0.032447
-0.033614
-0.0343597
-0.034643
-0.0342032
-0.0329706
-0.0307939
-0.0274934
-0.0231389
-0.0166236
-0.00848957
0.00211174
0.0238599
0.0237739
0.0237029
0.0236548
0.0235976
0.0235434
0.023503
0.0234722
0.023409
0.023279
0.0230505
0.022721
0.0222929
0.0217849
0.0212092
0.0205821
0.0199069
0.0191911
0.0184303
0.0176243
0.0167648
0.0158515
0.0148747
0.0138343
0.0127246
0.0115429
0.0102859
0.00895076
0.00753457
0.00603461
0.0044484
0.00277563
0.00101732
-0.000827838
-0.00275405
-0.00476475
-0.00685697
-0.00902809
-0.0112655
-0.0135558
-0.0158872
-0.01824
-0.020588
-0.022903
-0.0251536
-0.0272984
-0.0292952
-0.0310878
-0.0326144
-0.0338007
-0.0345706
-0.0348558
-0.0344193
-0.033178
-0.0309754
-0.0276304
-0.0232072
-0.0165739
-0.00830364
0.00262772
0.0250085
0.024925
0.0248553
0.0248082
0.0247516
0.0246977
0.0246571
0.0246253
0.0245587
0.0244227
0.0241844
0.0238423
0.0233979
0.0228719
0.0222756
0.0216268
0.0209282
0.0201883
0.0194022
0.0185702
0.0176834
0.0167419
0.0157356
0.0146643
0.0135225
0.0123074
0.0110158
0.00964513
0.0081926
0.00665542
0.00503194
0.00332155
0.00152186
-0.000358409
-0.00232644
-0.00437855
-0.0065141
-0.00873076
-0.011015
-0.0133535
-0.0157335
-0.0181354
-0.0205316
-0.0228942
-0.0251904
-0.0273787
-0.029416
-0.0312434
-0.0328018
-0.0340113
-0.0348091
-0.0350986
-0.0346662
-0.0334179
-0.0311922
-0.0278067
-0.0233182
-0.0165719
-0.00817136
0.00308697
0.0261902
0.0261098
0.0260442
0.0260019
0.0259498
0.0258999
0.0258621
0.0258308
0.0257616
0.0256189
0.0253702
0.0250141
0.0245534
0.0240086
0.0233925
0.0227225
0.0220018
0.0212386
0.0204277
0.0195694
0.0186546
0.0176834
0.0166456
0.0155413
0.014365
0.0131142
0.0117857
0.0103771
0.008886
0.00730991
0.00564661
0.00389574
0.00205863
0.000133234
-0.00187535
-0.00397147
-0.00615272
-0.00841637
-0.0107491
-0.0131363
-0.015566
-0.0180172
-0.0204625
-0.0228726
-0.0252155
-0.0274472
-0.0295262
-0.0313877
-0.0329797
-0.0342116
-0.0350389
-0.0353292
-0.0348972
-0.0336385
-0.0313868
-0.0279585
-0.0234027
-0.0165432
-0.00801359
0.00357512
0.0275515
0.0274736
0.0274067
0.0273609
0.0273032
0.0272469
0.0272013
0.0271617
0.0270815
0.0269259
0.0266606
0.0262856
0.0258024
0.0252341
0.0245919
0.0238953
0.0231463
0.0223543
0.0215136
0.0206247
0.0196782
0.0186742
0.0176023
0.0164626
0.0152495
0.0139607
0.0125931
0.0111447
0.00961309
0.00799577
0.00629112
0.00449869
0.00261591
0.000651175
-0.00140355
-0.00354542
-0.00577398
-0.00808699
-0.0104706
-0.0129097
-0.0153922
-0.0178963
-0.0203941
-0.0228557
-0.0252486
-0.0275277
-0.0296517
-0.031552
-0.0331808
-0.0344396
-0.0352995
-0.035594
-0.035162
-0.0338936
-0.0316181
-0.0281503
-0.0235303
-0.0165605
-0.00790817
0.00400329
0.0288976
0.0288236
0.0287608
0.0287191
0.0286646
0.02861
0.0285643
0.0285217
0.0284351
0.0282686
0.0279887
0.0275955
0.0270919
0.0265007
0.0258345
0.0251126
0.0243373
0.0235176
0.0226477
0.0217281
0.0207488
0.0197106
0.0186024
0.017425
0.0161729
0.0148439
0.0134352
0.0119449
0.0103707
0.00871033
0.00696165
0.00512451
0.00319992
0.00118574
-0.000913215
-0.00310254
-0.00537966
-0.00774293
-0.0101779
-0.0126695
-0.015205
-0.0177627
-0.0203133
-0.0228271
-0.0252705
-0.0275979
-0.0297672
-0.0317071
-0.0333731
-0.0346597
-0.0355513
-0.0358478
-0.0354121
-0.0341303
-0.0318278
-0.028318
-0.0236315
-0.0165504
-0.00777883
0.00445598
0.0303613
0.0302894
0.0302269
0.0301843
0.0301278
0.0300705
0.0300211
0.0299734
0.0298788
0.0297012
0.0294055
0.028993
0.0284658
0.0278487
0.0271536
0.0264013
0.0255935
0.0247406
0.0238359
0.0228807
0.0218646
0.0207885
0.0196413
0.018424
0.0171308
0.0157598
0.0143082
0.0127742
0.0111557
0.00945013
0.0076561
0.00577342
0.00379925
0.00174309
-0.000405285
-0.00264272
-0.00496981
-0.00738499
-0.00987362
-0.0124202
-0.0150119
-0.0176264
-0.0202335
-0.022803
-0.0253007
-0.0276803
-0.0298987
-0.0318825
-0.0335892
-0.034908
-0.0358332
-0.0361357
-0.035696
-0.0344014
-0.032074
-0.0285249
-0.0237739
-0.0165847
-0.00770054
0.00484738
0.0318998
0.031833
0.0317744
0.0317339
0.0316768
0.0316163
0.0315607
0.0315036
0.0313953
0.0311994
0.0308815
0.030443
0.0298875
0.0292401
0.0285138
0.0277292
0.0268883
0.0260011
0.025061
0.0240692
0.0230151
0.0219
0.0207123
0.0194536
0.018118
0.0167038
0.0152082
0.0136293
0.0119652
0.0102137
0.00837272
0.00644252
0.0044247
0.00231607
0.00012136
-0.00216598
-0.00454406
-0.0070117
-0.00955421
-0.0121559
-0.0148039
-0.0174755
-0.0201395
-0.0227655
-0.0253181
-0.0277506
-0.0300187
-0.0320472
-0.0337947
-0.0351462
-0.0361032
-0.0364102
-0.0359641
-0.0346535
-0.0322982
-0.0287069
-0.0238893
-0.0165926
-0.00759806
0.00526354
0.0336368
0.0335809
0.0335199
0.0334666
0.0333895
0.0333046
0.0332213
0.0331358
0.0329975
0.032771
0.0324208
0.03195
0.0313606
0.0306791
0.0299169
0.0290963
0.0282178
0.027293
0.0263144
0.0252838
0.0241901
0.0230351
0.0218067
0.0205066
0.0191289
0.0176717
0.0161322
0.0145086
0.012799
0.0110011
0.00911357
0.00713662
0.00506718
0.0029145
0.000667929
-0.00167029
-0.00410052
-0.00662232
-0.00922082
-0.0118802
-0.0145876
-0.0173196
-0.0200441
-0.0227302
-0.0253416
-0.0278308
-0.0301524
-0.0322295
-0.0340216
-0.0354092
-0.0364004
-0.0367162
-0.0362653
-0.0349401
-0.0325589
-0.0289277
-0.0240451
-0.0166445
-0.00754522
0.00561906
0.0348804
0.0348274
0.0347861
0.0347646
0.0347233
0.0346724
0.034619
0.0345558
0.034432
0.0342105
0.0338581
0.0333775
0.0327736
0.032073
0.0312891
0.0304436
0.0295378
0.0285831
0.0275723
0.0265076
0.0253778
0.0241856
0.0229184
0.0215786
0.0201601
0.0186611
0.0170789
0.0154116
0.0136574
0.0118139
0.00987928
0.00785405
0.00573925
0.003532
0.0012366
-0.00115376
-0.00363708
-0.00621346
-0.00886816
-0.0115853
-0.0143523
-0.0171449
-0.0199305
-0.0226772
-0.0253482
-0.0278947
-0.0302704
-0.0323969
-0.0342333
-0.0356574
-0.0366811
-0.0370048
-0.0365484
-0.035207
-0.0327975
-0.0291239
-0.0241748
-0.0166713
-0.00746972
0.00599814
0.0366316
0.0365765
0.0365171
0.0364679
0.0363942
0.0363121
0.0362285
0.0361381
0.0359876
0.0357408
0.0353616
0.0348546
0.0342227
0.0334937
0.0326799
0.0318041
0.0308668
0.0298799
0.0288363
0.0277379
0.0265738
0.0253462
0.0240429
0.0226659
0.0212092
0.0196708
0.0180479
0.0163385
0.0145407
0.0126521
0.0106715
0.0085991
0.00643171
0.00417944
0.00183027
-0.000612614
-0.00315032
-0.00578322
-0.00849654
-0.0112743
-0.014104
-0.0169609
-0.0198112
-0.0226225
-0.0253568
-0.0279645
-0.0303981
-0.0325776
-0.034462
-0.0359259
-0.0369844
-0.0373209
-0.0368619
-0.0355068
-0.0330711
-0.0293572
-0.0243429
-0.01674
-0.00744234
0.00631462
0.0379233
0.0378641
0.0378155
0.0377876
0.0377389
0.037681
0.0376191
0.037545
0.0374047
0.0371604
0.0367776
0.0362603
0.0356142
0.0348675
0.0340342
0.0331369
0.0321766
0.0311651
0.0300951
0.0289688
0.0277749
0.0265163
0.0251801
0.0237689
0.0222764
0.0207008
0.0190391
0.0172893
0.0154493
0.0135171
0.0114907
0.00937076
0.00715874
0.00485111
0.00245239
-4.44543e-05
-0.00263751
-0.00532756
-0.00809989
-0.0109386
-0.0138314
-0.0167529
-0.0196685
-0.022545
-0.0253434
-0.0280131
-0.0305052
-0.0327382
-0.0346706
-0.0361742
-0.0372667
-0.0376158
-0.0371547
-0.0357855
-0.0333217
-0.0295659
-0.0244853
-0.0167845
-0.0073936
0.00665107
0.0397057
0.0396393
0.0395665
0.0395039
0.0394157
0.0393198
0.0392216
0.0391159
0.0389457
0.0386743
0.0382642
0.037721
0.037048
0.0362747
0.035414
0.0344893
0.0335014
0.0324621
0.0313644
0.0302098
0.0289872
0.027699
0.0263321
0.024889
0.0233632
0.0217525
0.0200541
0.0182656
0.0163853
0.0144106
0.0123403
0.0101751
0.00791124
0.0055586
0.00310535
0.000554064
-0.00209549
-0.00484474
-0.00767876
-0.0105816
-0.0135409
-0.0165309
-0.0195158
-0.0224614
-0.025328
-0.0280635
-0.0306179
-0.0329079
-0.0348918
-0.0364383
-0.0375681
-0.037935
-0.0374761
-0.0360961
-0.0336066
-0.0298105
-0.024665
-0.0168699
-0.00739286
0.0069234
0.0409191
0.0408416
0.0407762
0.0407351
0.0406744
0.0406072
0.040537
0.040455
0.0403034
0.0400433
0.0396385
0.039094
0.0384155
0.0376325
0.0367598
0.0358205
0.0348158
0.0337575
0.0326388
0.0314612
0.0302137
0.0288988
0.0275035
0.0260303
0.0244729
0.0228289
0.0210953
0.0192699
0.0173507
0.0153353
0.0132216
0.0110106
0.00870269
0.00629494
0.00379131
0.00118484
-0.00152196
-0.00433096
-0.00722718
-0.0101946
-0.013221
-0.01628
-0.0193348
-0.0223504
-0.0252859
-0.028088
-0.0307054
-0.0330531
-0.0350887
-0.0366784
-0.0378454
-0.0382307
-0.0377755
-0.0363853
-0.0338689
-0.0300318
-0.0248208
-0.0169334
-0.00737331
0.00721366
0.0425868
0.0424898
0.0423993
0.0423319
0.0422472
0.0421612
0.0420765
0.0419837
0.0418221
0.041551
0.0411322
0.0405709
0.0398723
0.0390667
0.0381693
0.0372041
0.0361731
0.0350882
0.0339431
0.0327389
0.0314646
0.0301224
0.0286991
0.0271967
0.0256088
0.0239328
0.0221656
0.0203047
0.0183478
0.0162924
0.014137
0.0118819
0.00952324
0.0070713
0.00451277
0.00185118
-0.000914129
-0.00378511
-0.0067465
-0.00978195
-0.0128793
-0.0160114
-0.0191403
-0.0222299
-0.0252385
-0.0281111
-0.0307952
-0.0332041
-0.0352948
-0.0369309
-0.0381387
-0.0385483
-0.0381014
-0.0367045
-0.0341638
-0.0302874
-0.0250126
-0.0170371
-0.00740084
0.00744215
0.044279
0.0441731
0.0440694
0.0439867
0.0438837
0.0437783
0.0436731
0.0435593
0.0433758
0.0430819
0.0426399
0.0420545
0.0413323
0.0405034
0.0395837
0.0385967
0.0375439
0.0364368
0.035269
0.0340411
0.0327421
0.0313741
0.0299237
0.0283929
0.0267755
0.0250683
0.0232683
0.0213726
0.0193789
0.0172849
0.0150879
0.0127888
0.0103878
0.00788112
0.0052725
0.00255455
-0.000270152
-0.00320386
-0.00623108
-0.00933519
-0.012504
-0.0157099
-0.0189136
-0.0220781
-0.0251607
-0.0281048
-0.0308565
-0.0333273
-0.0354737
-0.0371571
-0.0384061
-0.0388406
-0.0384041
-0.0370014
-0.0344362
-0.0305205
-0.0251824
-0.0171212
-0.00741139
0.00768887
0.0459526
0.0458464
0.0457421
0.0456578
0.0455517
0.0454425
0.0453318
0.0452108
0.0450158
0.0447064
0.0442431
0.0436331
0.0428823
0.0420232
0.041072
0.0400536
0.03897
0.0378333
0.036637
0.0353815
0.0340554
0.0326605
0.0311829
0.0296242
0.0279777
0.0262402
0.0244082
0.0224786
0.0204492
0.0183169
0.0160799
0.0137383
0.0112873
0.00873657
0.00607242
0.00329747
0.000411953
-0.0025869
-0.00568308
-0.00885953
-0.0121039
-0.0153877
-0.0186705
-0.0219142
-0.025075
-0.0280944
-0.0309174
-0.0334537
-0.0356593
-0.0373931
-0.038688
-0.0391533
-0.0387323
-0.0373275
-0.0347404
-0.0307873
-0.025388
-0.0172458
-0.00746956
0.00787602
0.047498
0.047389
0.0472847
0.0472032
0.0471007
0.0469952
0.0468879
0.0467683
0.046572
0.0462569
0.0457846
0.0451614
0.0443954
0.0435189
0.0425496
0.0415121
0.0404088
0.0392513
0.0380335
0.0367554
0.0354056
0.0339861
0.0324826
0.0308969
0.0292222
0.0274548
0.0255914
0.0236285
0.0215637
0.0193938
0.017116
0.0147306
0.0122365
0.00963024
0.0069144
0.00408119
0.00113378
-0.00193102
-0.00509689
-0.0083463
-0.0116669
-0.0150292
-0.0183919
-0.0217157
-0.0249556
-0.0280514
-0.0309469
-0.0335495
-0.0358155
-0.0376009
-0.0389428
-0.0394403
-0.0390371
-0.0376316