/*--------------------------------*- C++ -*----------------------------------*\
  =========                 |
  \\      /  F ield         | OpenFOAM: The Open Source CFD Toolbox
   \\    /   O peration     | Website:  https://openfoam.org
    \\  /    A nd           | Version:  6.0
     \\/     M anipulation  |
\*---------------------------------------------------------------------------*/
FoamFile
{
    version     2.0;
    format      ascii;
    class       volVectorField;
    location    "11";
    object      U;
}
// * * * * * * * * * * * * * * * * * * * * * * * * * * * * * * * * * * * * * //

dimensions      [0 1 -1 0 0 0 0];

internalField   nonuniform List<vector> 
62000
(
(0.965844 -0.258363 -1.54578e-21)
(0.965845 -0.258361 1.29494e-21)
(0.965864 -0.258325 1.33929e-21)
(0.965884 -0.258304 -5.90904e-21)
(0.965899 -0.258305 -6.76633e-21)
(0.965907 -0.258334 2.35561e-20)
(0.965907 -0.25839 -2.5928e-20)
(0.965902 -0.258468 1.51369e-20)
(0.965894 -0.258555 -7.02278e-21)
(0.965885 -0.258642 -3.55118e-20)
(0.965878 -0.258723 -3.89996e-21)
(0.965873 -0.258794 4.97851e-20)
(0.96587 -0.258857 9.78645e-21)
(0.965869 -0.258912 -3.4509e-20)
(0.965868 -0.258961 5.30205e-20)
(0.965868 -0.259007 -2.8258e-20)
(0.965869 -0.259049 2.76605e-20)
(0.96587 -0.259088 -3.27549e-20)
(0.965872 -0.259125 1.52092e-20)
(0.965875 -0.259159 -4.52918e-20)
(0.965879 -0.25919 5.80154e-20)
(0.965884 -0.259219 1.45182e-20)
(0.965891 -0.259245 1.87451e-20)
(0.9659 -0.259269 -9.40691e-20)
(0.965911 -0.259291 3.29967e-20)
(0.965924 -0.25931 -1.6073e-20)
(0.96594 -0.259326 2.4907e-21)
(0.96596 -0.259339 -7.23949e-21)
(0.965984 -0.25935 2.92412e-20)
(0.966013 -0.259356 -9.831e-21)
(0.966047 -0.259359 1.75122e-20)
(0.966087 -0.259356 -1.92659e-20)
(0.966135 -0.259349 5.97581e-21)
(0.966193 -0.259339 1.91531e-20)
(0.966262 -0.259323 7.57313e-21)
(0.966344 -0.259299 3.52217e-20)
(0.966442 -0.259261 1.1619e-20)
(0.966556 -0.259209 2.73514e-20)
(0.96669 -0.259138 -4.29734e-20)
(0.966845 -0.259045 -3.22891e-19)
(0.967023 -0.258928 1.00274e-19)
(0.967228 -0.258782 5.69889e-19)
(0.96746 -0.258603 1.02482e-18)
(0.967725 -0.258386 -6.09916e-19)
(0.968026 -0.258123 -2.77629e-19)
(0.968369 -0.257802 1.06146e-18)
(0.968762 -0.257409 -5.70233e-20)
(0.969218 -0.256915 5.54789e-19)
(0.969747 -0.256283 2.70093e-18)
(0.970363 -0.255455 8.61354e-19)
(0.97107 -0.25436 4.84759e-19)
(0.97187 -0.252896 5.65916e-18)
(0.972748 -0.250943 -1.64386e-18)
(0.973696 -0.248307 -7.41355e-18)
(0.974675 -0.244692 -1.74286e-18)
(0.975702 -0.239566 -7.44561e-18)
(0.976415 -0.231467 5.13431e-19)
(0.980879 -0.219583 5.94697e-19)
(0.982509 -0.173882 -2.71216e-18)
(1.04602 -0.0887169 -3.75581e-19)
(0.965854 -0.25983 -4.11072e-22)
(0.965908 -0.259815 3.97645e-21)
(0.965973 -0.259691 1.6837e-21)
(0.966022 -0.259561 -7.21931e-21)
(0.966054 -0.259422 3.03248e-21)
(0.966076 -0.259292 -2.11602e-20)
(0.966088 -0.259203 1.9533e-20)
(0.966091 -0.259173 1.12846e-20)
(0.966084 -0.259203 -2.11711e-20)
(0.966073 -0.259277 1.06077e-21)
(0.966061 -0.259375 2.02525e-20)
(0.966051 -0.259479 -1.81986e-22)
(0.966046 -0.259578 5.43374e-21)
(0.966045 -0.259668 -4.80073e-20)
(0.966048 -0.25975 9.47396e-20)
(0.966054 -0.259827 -8.30823e-20)
(0.966061 -0.259899 3.796e-20)
(0.96607 -0.259968 -8.14991e-21)
(0.966079 -0.260034 -2.04101e-20)
(0.96609 -0.260097 5.38123e-20)
(0.966103 -0.260157 -8.28606e-20)
(0.966119 -0.260214 4.63814e-20)
(0.966137 -0.260267 -5.39246e-20)
(0.966159 -0.260316 3.25446e-20)
(0.966185 -0.260359 2.55009e-20)
(0.966217 -0.260399 -1.60313e-20)
(0.966254 -0.260432 2.25085e-21)
(0.966297 -0.26046 1.66103e-20)
(0.966349 -0.260481 1.03347e-20)
(0.966409 -0.260493 -1.1264e-20)
(0.96648 -0.260494 1.90858e-20)
(0.966561 -0.260484 -1.86472e-21)
(0.966656 -0.260463 -1.09296e-20)
(0.966767 -0.260434 -2.56012e-21)
(0.966898 -0.260391 -1.25045e-20)
(0.967053 -0.260329 8.29018e-21)
(0.967233 -0.26024 3.00661e-20)
(0.967441 -0.260119 1.36542e-20)
(0.967676 -0.259965 1.68296e-19)
(0.967941 -0.259773 2.19983e-19)
(0.968238 -0.259543 -2.00244e-19)
(0.968568 -0.259273 -1.03935e-19)
(0.968935 -0.25896 -1.20768e-18)
(0.969344 -0.258602 -1.04312e-19)
(0.969802 -0.25819 2.30039e-18)
(0.970321 -0.257708 -9.77993e-19)
(0.970918 -0.257129 -8.50306e-19)
(0.971614 -0.256404 -1.15961e-18)
(0.972429 -0.255465 -1.69798e-19)
(0.973381 -0.254214 -1.62354e-20)
(0.974472 -0.252533 -2.49009e-18)
(0.975686 -0.250272 -7.26561e-18)
(0.976971 -0.247275 5.30264e-18)
(0.97826 -0.24333 1.39385e-17)
(0.979405 -0.238181 3.60209e-18)
(0.980313 -0.231492 2.6826e-18)
(0.98013 -0.222879 6.34645e-18)
(0.980663 -0.212727 3.31294e-18)
(0.985469 -0.204875 -4.52395e-18)
(0.978661 -0.188968 -1.31364e-18)
(0.966289 -0.260723 -2.04318e-21)
(0.966298 -0.260688 -2.95486e-22)
(0.96629 -0.260587 3.18989e-22)
(0.966253 -0.260496 1.47951e-21)
(0.966198 -0.260369 4.23906e-21)
(0.966146 -0.260205 -4.05023e-21)
(0.966105 -0.26004 2.18631e-20)
(0.96607 -0.259924 -1.05387e-20)
(0.966037 -0.259886 -5.6902e-21)
(0.966005 -0.25993 -3.44148e-20)
(0.965975 -0.260039 2.9183e-20)
(0.965953 -0.260183 2.08742e-21)
(0.96594 -0.260341 -6.38542e-21)
(0.96594 -0.260497 1.67098e-20)
(0.965951 -0.260643 -2.82116e-20)
(0.965972 -0.26078 5.27742e-22)
(0.966002 -0.260908 -1.18347e-20)
(0.966038 -0.261029 1.07835e-21)
(0.966079 -0.261144 2.70441e-20)
(0.966123 -0.261254 -3.91148e-20)
(0.966169 -0.261357 2.41323e-20)
(0.966217 -0.261452 8.37602e-20)
(0.966267 -0.261539 -1.60292e-20)
(0.96632 -0.261617 -1.05292e-19)
(0.966376 -0.261684 5.25098e-20)
(0.966436 -0.261741 -2.18851e-20)
(0.966502 -0.261786 3.40293e-20)
(0.966574 -0.261818 -2.209e-20)
(0.966653 -0.261837 -2.85777e-20)
(0.966742 -0.26184 1.97133e-20)
(0.966841 -0.261826 -8.89877e-21)
(0.966951 -0.261793 3.17655e-21)
(0.967074 -0.261743 2.20102e-20)
(0.967213 -0.261678 -4.49301e-20)
(0.967372 -0.261595 3.75784e-20)
(0.967555 -0.261485 -1.45228e-20)
(0.967763 -0.261342 -1.6004e-20)
(0.967997 -0.261163 1.69241e-20)
(0.968256 -0.260947 3.37218e-20)
(0.968537 -0.260695 -2.43866e-19)
(0.96884 -0.260408 1.12741e-19)
(0.969163 -0.260091 -1.9093e-19)
(0.969507 -0.259746 8.11244e-19)
(0.96987 -0.259379 4.45207e-19)
(0.970257 -0.258987 -4.67177e-19)
(0.970674 -0.258563 2.02938e-18)
(0.971134 -0.258086 -2.65334e-19)
(0.971653 -0.257513 2.02271e-18)
(0.972251 -0.256783 -3.03616e-18)
(0.972944 -0.255804 -8.33978e-19)
(0.973734 -0.254466 -5.015e-19)
(0.97461 -0.252636 1.58587e-19)
(0.97553 -0.250178 -2.31226e-18)
(0.976436 -0.246919 -3.27778e-19)
(0.977203 -0.242652 5.34405e-18)
(0.97781 -0.237116 3.12556e-18)
(0.97757 -0.230081 2.75354e-18)
(0.978538 -0.221755 8.76595e-18)
(0.981031 -0.204953 -4.26827e-19)
(0.999821 -0.165141 -7.52356e-19)
(0.966759 -0.261294 -2.08398e-21)
(0.966625 -0.261265 6.40765e-21)
(0.966516 -0.26122 -9.88488e-22)
(0.966398 -0.261212 -6.64167e-21)
(0.966266 -0.261172 1.00438e-20)
(0.966144 -0.26106 1.74359e-20)
(0.966045 -0.260896 -2.28387e-20)
(0.965968 -0.260734 2.48767e-21)
(0.965905 -0.260628 7.93012e-21)
(0.965849 -0.26061 1.62864e-20)
(0.965797 -0.260681 -3.04336e-20)
(0.965751 -0.260817 -8.96748e-21)
(0.965715 -0.260991 -9.65394e-21)
(0.965693 -0.261178 4.49697e-20)
(0.965688 -0.261364 -2.95123e-20)
(0.965701 -0.261542 6.59913e-20)
(0.965732 -0.26171 -7.91272e-20)
(0.96578 -0.261871 -9.95538e-21)
(0.96584 -0.262025 7.68667e-20)
(0.965911 -0.262174 -2.69422e-20)
(0.96599 -0.262317 -9.38067e-21)
(0.966074 -0.262452 -9.11421e-21)
(0.966162 -0.262578 -7.40978e-20)
(0.966252 -0.262693 4.57864e-20)
(0.966345 -0.262795 -1.3779e-20)
(0.966441 -0.262882 2.65885e-20)
(0.966539 -0.262952 1.01391e-20)
(0.966643 -0.263005 3.82504e-20)
(0.966752 -0.263038 -2.42534e-20)
(0.966869 -0.26305 -1.89125e-20)
(0.966996 -0.263037 1.38732e-20)
(0.967134 -0.262998 -6.29345e-21)
(0.967286 -0.262937 -1.67475e-20)
(0.967455 -0.262856 3.08626e-20)
(0.967646 -0.26275 -6.23294e-21)
(0.967863 -0.262612 -3.15717e-20)
(0.968108 -0.262436 2.54154e-20)
(0.968382 -0.262219 -5.04897e-20)
(0.968686 -0.261961 1.76879e-20)
(0.969017 -0.261663 -9.34638e-20)
(0.969374 -0.261328 2.55122e-19)
(0.969753 -0.260962 -7.77235e-20)
(0.970153 -0.260569 -1.91733e-19)
(0.970571 -0.260153 -5.73898e-19)
(0.971006 -0.259716 -7.22527e-19)
(0.97146 -0.25925 -6.70012e-20)
(0.97194 -0.258737 -1.52335e-18)
(0.972457 -0.258135 -1.74708e-18)
(0.973027 -0.257384 -2.37637e-18)
(0.973663 -0.256392 1.78592e-18)
(0.974373 -0.255046 2.32211e-18)
(0.975157 -0.253202 -1.89046e-18)
(0.976 -0.250702 -2.84419e-18)
(0.976884 -0.247329 -5.72844e-18)
(0.977749 -0.242769 -3.63529e-18)
(0.978679 -0.236552 -8.01105e-18)
(0.979201 -0.228014 -1.4236e-17)
(0.981444 -0.216697 2.82233e-18)
(0.988044 -0.193749 7.7478e-18)
(0.986808 -0.16379 3.6924e-18)
(0.966588 -0.263183 3.99184e-21)
(0.966375 -0.263198 -1.32915e-21)
(0.9663 -0.263174 2.2555e-21)
(0.96625 -0.263209 -3.20134e-21)
(0.966185 -0.263228 7.14762e-21)
(0.966121 -0.263167 -3.55294e-21)
(0.966073 -0.263015 1.91466e-21)
(0.966045 -0.262814 -2.85532e-20)
(0.966031 -0.262627 2.39695e-20)
(0.96602 -0.262504 -4.72074e-20)
(0.966004 -0.262465 5.19475e-20)
(0.96598 -0.2625 -6.25724e-21)
(0.965948 -0.262589 -1.31005e-20)
(0.965915 -0.262705 -5.55663e-21)
(0.965885 -0.262828 -8.28606e-22)
(0.965867 -0.262948 -5.46392e-20)
(0.965864 -0.263062 4.92595e-21)
(0.96588 -0.26317 5.83436e-20)
(0.965915 -0.263275 -1.7322e-20)
(0.965968 -0.26338 -1.6801e-20)
(0.966038 -0.263485 2.99664e-20)
(0.966121 -0.26359 -1.25671e-20)
(0.966216 -0.263694 5.18479e-20)
(0.966318 -0.263794 2.24285e-20)
(0.966426 -0.263887 1.23537e-20)
(0.96654 -0.263971 -5.37959e-20)
(0.966657 -0.264042 -6.19386e-21)
(0.96678 -0.2641 -2.64138e-20)
(0.966908 -0.264139 6.99743e-21)
(0.967044 -0.264158 -2.07768e-21)
(0.96719 -0.264151 2.17538e-21)
(0.967348 -0.264117 -4.79775e-21)
(0.967522 -0.264059 1.48801e-20)
(0.967716 -0.263979 3.84042e-21)
(0.967937 -0.263874 3.51276e-20)
(0.968188 -0.263733 2.22336e-20)
(0.968475 -0.26355 -9.00067e-21)
(0.968803 -0.263322 1.33252e-19)
(0.969172 -0.263046 -2.54414e-19)
(0.969584 -0.262722 -6.24348e-20)
(0.970041 -0.262351 -3.68528e-19)
(0.97054 -0.261934 3.35775e-19)
(0.971083 -0.261472 2.57081e-19)
(0.971667 -0.260963 4.71209e-20)
(0.972291 -0.260403 -6.15657e-19)
(0.972955 -0.259778 -9.22747e-19)
(0.973662 -0.259059 -4.21135e-19)
(0.974417 -0.258201 -6.72521e-19)
(0.975229 -0.257133 4.64531e-19)
(0.976105 -0.255754 -4.90501e-18)
(0.97705 -0.253938 -1.39153e-18)
(0.978059 -0.251524 1.10457e-18)
(0.979122 -0.248329 -1.39292e-18)
(0.98023 -0.244098 -5.60372e-18)
(0.981337 -0.238467 9.17498e-19)
(0.982516 -0.230914 5.99419e-18)
(0.983259 -0.220882 1.6906e-17)
(0.985409 -0.208482 -1.64882e-17)
(0.990948 -0.189109 8.62262e-18)
(0.985774 -0.165223 -4.02983e-18)
(0.96572 -0.266428 -1.47588e-21)
(0.965583 -0.26646 6.01181e-21)
(0.965672 -0.266413 -9.97148e-21)
(0.965801 -0.26644 7.4784e-21)
(0.965907 -0.266474 4.84906e-21)
(0.965998 -0.266438 -5.16723e-21)
(0.966094 -0.2663 4.30976e-22)
(0.9662 -0.266082 -3.8932e-21)
(0.966315 -0.265843 -1.30306e-20)
(0.96643 -0.265636 2.49773e-20)
(0.966533 -0.265492 -3.79729e-20)
(0.966614 -0.265416 3.30438e-20)
(0.966667 -0.265391 2.74433e-20)
(0.966694 -0.265396 -4.24551e-20)
(0.966698 -0.26541 -1.25008e-20)
(0.966688 -0.26542 4.77434e-20)
(0.966672 -0.265421 -5.52167e-20)
(0.966658 -0.265413 7.23871e-20)
(0.966654 -0.2654 -1.51316e-20)
(0.966665 -0.265387 5.07087e-21)
(0.966693 -0.265378 -1.25504e-20)
(0.966738 -0.265375 -1.36842e-20)
(0.966801 -0.265378 -2.20818e-20)
(0.96688 -0.265388 3.3303e-20)
(0.966972 -0.265402 -2.23842e-20)
(0.967076 -0.265419 -1.6538e-20)
(0.967189 -0.265434 3.17364e-20)
(0.967311 -0.265445 -1.80985e-20)
(0.967442 -0.265448 2.83635e-20)
(0.967583 -0.265439 -1.2013e-20)
(0.967735 -0.265411 1.7441e-21)
(0.967901 -0.265362 1.05851e-20)
(0.968086 -0.265294 -1.71965e-20)
(0.968293 -0.265209 -1.57439e-21)
(0.96853 -0.265102 -3.77093e-22)
(0.968803 -0.264964 5.80938e-22)
(0.969119 -0.264783 5.04631e-20)
(0.969484 -0.264556 -1.27832e-19)
(0.969902 -0.264278 1.02433e-19)
(0.970381 -0.263944 8.17842e-19)
(0.970923 -0.263553 4.06997e-19)
(0.971532 -0.263101 -3.0311e-19)
(0.97221 -0.262582 4.5304e-19)
(0.97296 -0.261986 4.86067e-19)
(0.973781 -0.2613 6.11921e-20)
(0.974673 -0.260499 -1.57972e-18)
(0.975635 -0.259548 2.51557e-18)
(0.976668 -0.258389 2.72869e-18)
(0.977771 -0.256945 1.80728e-18)
(0.978939 -0.255107 3.55891e-18)
(0.980163 -0.252747 -2.82994e-18)
(0.981423 -0.249699 9.63779e-19)
(0.982691 -0.245787 9.33231e-18)
(0.983935 -0.240777 -2.41104e-18)
(0.985083 -0.234362 -2.91001e-18)
(0.986141 -0.226162 6.59634e-18)
(0.986498 -0.216016 -4.43716e-18)
(0.987714 -0.204994 -4.99729e-18)
(0.992485 -0.188713 -1.38342e-17)
(0.983965 -0.167077 2.71035e-19)
(0.964668 -0.270154 1.70917e-21)
(0.964707 -0.270164 -7.79772e-21)
(0.964983 -0.270072 3.80867e-21)
(0.965286 -0.270061 7.20489e-21)
(0.965554 -0.270077 -1.55044e-20)
(0.965797 -0.270044 1.30335e-20)
(0.966033 -0.269916 -8.70721e-21)
(0.966274 -0.269703 7.4032e-21)
(0.966522 -0.26945 1.1725e-20)
(0.966775 -0.269211 -2.81027e-20)
(0.96702 -0.269019 3.98816e-20)
(0.967247 -0.268882 1.55024e-20)
(0.967443 -0.268792 -6.42761e-20)
(0.9676 -0.268727 -1.01398e-20)
(0.967716 -0.268668 3.20422e-20)
(0.967792 -0.2686 1.84424e-20)
(0.967835 -0.268513 -2.23845e-20)
(0.967853 -0.268408 1.77021e-20)
(0.967856 -0.268287 2.40415e-20)
(0.967854 -0.268155 -1.41301e-20)
(0.967856 -0.26802 -7.45141e-21)
(0.967868 -0.267887 1.90649e-20)
(0.967894 -0.26776 3.26469e-20)
(0.967937 -0.267643 -2.92734e-20)
(0.967997 -0.267535 -2.3272e-20)
(0.968075 -0.267437 1.96167e-20)
(0.968168 -0.267347 -1.48332e-20)
(0.968276 -0.267265 -1.92741e-21)
(0.968397 -0.267186 1.50485e-20)
(0.968533 -0.267106 3.64112e-22)
(0.968684 -0.267019 9.15191e-21)
(0.968851 -0.26692 -3.15996e-21)
(0.969038 -0.266812 -1.07186e-20)
(0.96925 -0.266695 2.42155e-20)
(0.969494 -0.266566 1.74538e-20)
(0.969776 -0.266413 -7.1514e-20)
(0.970103 -0.266225 -8.42941e-21)
(0.970484 -0.265993 -3.38174e-20)
(0.970924 -0.265711 2.22716e-19)
(0.971433 -0.265373 2.86129e-19)
(0.972018 -0.264972 -5.21219e-19)
(0.972686 -0.2645 -5.01446e-19)
(0.973442 -0.263945 -9.46149e-19)
(0.974291 -0.26329 9.86268e-19)
(0.975234 -0.262514 1.23698e-18)
(0.976271 -0.261584 8.60744e-19)
(0.977401 -0.260457 -2.39454e-18)
(0.978618 -0.259069 -2.60794e-18)
(0.979912 -0.25734 3.13941e-18)
(0.981266 -0.255161 5.15864e-18)
(0.982657 -0.252408 8.24775e-19)
(0.984045 -0.24893 -1.24878e-18)
(0.985381 -0.244576 -5.2324e-20)
(0.986606 -0.239163 3.81304e-18)
(0.987623 -0.232476 -3.69141e-18)
(0.988401 -0.224295 -2.24074e-18)
(0.988286 -0.214733 -3.56017e-18)
(0.988769 -0.205212 1.507e-17)
(0.993226 -0.190306 8.93202e-19)
(0.98338 -0.168673 9.4594e-20)
(0.963903 -0.273661 -2.86863e-21)
(0.964116 -0.273629 -2.36314e-21)
(0.964519 -0.273501 3.15399e-21)
(0.96493 -0.27345 1.13668e-20)
(0.965294 -0.273437 -2.45847e-20)
(0.965627 -0.273394 2.82266e-20)
(0.965948 -0.273273 -1.27771e-21)
(0.966271 -0.273071 -1.79116e-21)
(0.966604 -0.272828 -1.0151e-20)
(0.966947 -0.27259 2.42602e-20)
(0.967296 -0.272394 -3.71659e-20)
(0.967641 -0.272247 1.39031e-20)
(0.967969 -0.272144 -3.51741e-22)
(0.968268 -0.272066 1.94849e-20)
(0.968526 -0.271992 7.9192e-21)
(0.968738 -0.271906 -4.50368e-20)
(0.968902 -0.271796 3.72066e-20)
(0.969021 -0.271657 1.23085e-20)
(0.969099 -0.271489 -3.54945e-20)
(0.969149 -0.271297 1.66704e-20)
(0.969178 -0.271086 5.72197e-21)
(0.969198 -0.270863 -6.04533e-21)
(0.969217 -0.270634 2.05314e-21)
(0.969244 -0.270407 -4.1652e-21)
(0.969283 -0.270184 -1.94242e-20)
(0.969338 -0.269969 8.62828e-21)
(0.969411 -0.269765 -7.20956e-21)
(0.969502 -0.269571 2.82912e-21)
(0.969611 -0.269388 -6.05769e-21)
(0.969739 -0.269211 5.42897e-22)
(0.969886 -0.269037 -1.76868e-21)
(0.970052 -0.26886 -4.52432e-20)
(0.970241 -0.268685 1.76877e-20)
(0.970457 -0.268511 2.48617e-20)
(0.970704 -0.268333 -5.80823e-20)
(0.97099 -0.268142 -6.4353e-20)
(0.971322 -0.267925 1.20438e-19)
(0.971705 -0.267672 -2.31099e-20)
(0.97215 -0.267374 -2.85354e-19)
(0.972664 -0.267022 6.03175e-20)
(0.973259 -0.266607 -2.53852e-19)
(0.973942 -0.266118 3.99785e-19)
(0.974721 -0.265538 -6.71699e-19)
(0.975602 -0.264845 -1.60387e-18)
(0.97659 -0.264011 -4.94361e-19)
(0.977683 -0.262999 7.9221e-19)
(0.97888 -0.261759 2.69686e-18)
(0.98017 -0.260225 -5.98353e-19)
(0.981539 -0.258318 -9.83164e-19)
(0.982961 -0.255933 -2.22115e-18)
(0.9844 -0.252955 2.50746e-19)
(0.985803 -0.249249 4.95462e-18)
(0.987107 -0.244693 -4.60844e-18)
(0.988239 -0.23915 3.33846e-18)
(0.989096 -0.232469 -6.95445e-18)
(0.989654 -0.22452 -1.84324e-18)
(0.989272 -0.215499 -8.3785e-18)
(0.989434 -0.206776 -1.17736e-17)
(0.993911 -0.192039 -1.31785e-18)
(0.983472 -0.169612 -7.15235e-19)
(0.963565 -0.27667 -1.40993e-21)
(0.96389 -0.276609 1.21424e-21)
(0.964347 -0.276462 6.23044e-21)
(0.964795 -0.276382 9.93452e-21)
(0.965193 -0.276344 -2.9414e-20)
(0.965556 -0.276289 1.69764e-20)
(0.965907 -0.276168 -3.0455e-20)
(0.96626 -0.275975 4.77711e-20)
(0.966625 -0.275743 -2.24224e-20)
(0.967005 -0.275519 3.91624e-21)
(0.967401 -0.275335 4.18336e-20)
(0.967808 -0.275201 -9.41955e-20)
(0.968217 -0.275113 6.28544e-20)
(0.968617 -0.275054 7.40966e-21)
(0.968994 -0.275003 1.13648e-20)
(0.969336 -0.274943 -5.15136e-20)
(0.969635 -0.274858 2.38118e-20)
(0.969885 -0.274743 -2.66392e-20)
(0.970085 -0.274592 4.74257e-20)
(0.970238 -0.274405 -9.6218e-21)
(0.97035 -0.274186 -4.96493e-20)
(0.97043 -0.27394 1.82683e-20)
(0.97049 -0.273672 -1.55187e-21)
(0.970539 -0.273389 -3.83686e-20)
(0.970587 -0.273097 3.20247e-20)
(0.970642 -0.272803 1.40094e-20)
(0.970709 -0.27251 6.27039e-22)
(0.970792 -0.272224 -3.09029e-21)
(0.970895 -0.271945 7.52337e-21)
(0.971018 -0.271674 -4.70301e-21)
(0.971163 -0.271409 -1.58767e-20)
(0.97133 -0.271146 2.41448e-20)
(0.971523 -0.270889 5.35914e-20)
(0.971744 -0.270641 -1.01336e-19)
(0.971998 -0.270399 -1.57745e-20)
(0.97229 -0.270151 2.37043e-19)
(0.972626 -0.269886 -1.06193e-20)
(0.973013 -0.269593 -2.16086e-19)
(0.973457 -0.269261 -3.04405e-20)
(0.97397 -0.26888 -3.43463e-19)
(0.97456 -0.26844 5.90304e-19)
(0.975237 -0.267925 6.39726e-20)
(0.976011 -0.267315 4.4399e-19)
(0.976888 -0.266587 -2.16519e-19)
(0.977873 -0.265707 -9.25266e-19)
(0.978967 -0.264635 -3.12691e-18)
(0.980165 -0.263318 -5.26674e-19)
(0.981458 -0.26169 2.44378e-18)
(0.982827 -0.259672 -2.02923e-18)
(0.984241 -0.257165 -7.84615e-18)
(0.98566 -0.254064 6.80012e-18)
(0.987023 -0.250244 -8.72948e-18)
(0.988263 -0.245605 5.76782e-18)
(0.989305 -0.240036 3.07975e-18)
(0.990059 -0.233414 1.40359e-17)
(0.990529 -0.225634 7.48102e-19)
(0.990092 -0.216876 4.92457e-18)
(0.990201 -0.208384 5.53491e-18)
(0.994821 -0.193291 -2.6163e-18)
(0.984014 -0.169955 1.47413e-19)
(0.963559 -0.279161 1.99419e-21)
(0.963927 -0.279081 7.23933e-22)
(0.964384 -0.278932 -7.35679e-21)
(0.964826 -0.278838 7.05006e-21)
(0.965217 -0.278785 -3.13863e-21)
(0.965575 -0.278721 5.62712e-21)
(0.965922 -0.278599 1.93782e-21)
(0.966272 -0.278411 -2.82741e-20)
(0.966635 -0.278188 1.23518e-20)
(0.967017 -0.277975 -8.2027e-21)
(0.96742 -0.277805 5.23485e-21)
(0.967843 -0.277687 1.90236e-20)
(0.968283 -0.277619 -3.69652e-21)
(0.968731 -0.277585 1.05077e-20)
(0.969177 -0.277566 -4.33149e-20)
(0.969609 -0.277545 1.71356e-20)
(0.970016 -0.277507 6.80125e-21)
(0.970386 -0.277443 -1.60319e-20)
(0.970711 -0.277344 3.01342e-20)
(0.970988 -0.277209 7.34596e-21)
(0.971214 -0.277034 -2.25153e-21)
(0.971395 -0.276823 -8.16018e-21)
(0.971537 -0.276577 2.40261e-20)
(0.971649 -0.276301 -5.25382e-20)
(0.971742 -0.276001 2.63073e-20)
(0.971827 -0.275681 5.8147e-21)
(0.971912 -0.27535 -2.80713e-21)
(0.972006 -0.275012 -5.79369e-21)
(0.972114 -0.274673 1.89284e-22)
(0.972242 -0.274334 7.69434e-21)
(0.97239 -0.273996 2.16009e-20)
(0.972563 -0.273659 1.49048e-20)
(0.972763 -0.273328 -3.06625e-20)
(0.972994 -0.273008 1.24774e-19)
(0.973259 -0.272695 -2.65062e-19)
(0.973561 -0.272384 1.56376e-20)
(0.973907 -0.272059 -1.92714e-19)
(0.974302 -0.271713 5.37038e-19)
(0.974752 -0.271333 1.99402e-19)
(0.975266 -0.270908 2.66201e-23)
(0.975854 -0.270426 1.95686e-19)
(0.976525 -0.26987 5.2198e-20)
(0.977288 -0.26922 8.08973e-19)
(0.978151 -0.268446 -2.87168e-19)
(0.979118 -0.267516 -4.60727e-19)
(0.980192 -0.266385 2.9035e-18)
(0.981368 -0.265 -4.00202e-18)
(0.982635 -0.263295 -6.63526e-19)
(0.983974 -0.261192 -1.21169e-19)
(0.985353 -0.258596 5.15848e-18)
(0.98673 -0.255409 -2.10878e-18)
(0.988045 -0.251514 4.56808e-18)
(0.98923 -0.246818 -8.86911e-18)
(0.990221 -0.241224 -2.3662e-18)
(0.990944 -0.234613 7.61921e-18)
(0.991432 -0.226868 -3.16922e-18)
(0.991063 -0.218139 9.14106e-18)
(0.991226 -0.209594 1.98711e-18)
(0.995998 -0.194013 1.05084e-17)
(0.984844 -0.169862 1.24295e-18)
(0.963726 -0.281212 -4.5245e-22)
(0.964089 -0.281129 -1.7931e-21)
(0.964522 -0.280987 -1.57881e-21)
(0.964938 -0.28089 1.51862e-20)
(0.965305 -0.280829 -8.44947e-21)
(0.965642 -0.28076 -1.01704e-20)
(0.96597 -0.280638 -3.82458e-21)
(0.966304 -0.280452 -1.57383e-20)
(0.966651 -0.280235 9.93902e-21)
(0.967019 -0.280029 1.56843e-21)
(0.967409 -0.279867 7.52614e-22)
(0.967824 -0.279762 4.05519e-20)
(0.968262 -0.279708 -2.84641e-20)
(0.96872 -0.279694 -3.09515e-21)
(0.96919 -0.279701 2.94721e-20)
(0.969666 -0.279714 -1.6209e-20)
(0.970137 -0.279719 -5.49607e-21)
(0.970591 -0.279706 8.80188e-21)
(0.971016 -0.279667 2.42479e-20)
(0.971404 -0.279596 9.29634e-21)
(0.971746 -0.279489 -7.00236e-22)
(0.97204 -0.279345 -2.71882e-20)
(0.972286 -0.279161 9.79839e-21)
(0.97249 -0.278938 1.20813e-20)
(0.97266 -0.278679 -2.78901e-20)
(0.972805 -0.278388 3.01039e-21)
(0.972936 -0.278069 -1.02758e-20)
(0.973064 -0.27773 9.74625e-22)
(0.973196 -0.277375 -1.52515e-20)
(0.973341 -0.277008 2.56298e-20)
(0.973503 -0.276631 1.97808e-20)
(0.973689 -0.276248 -3.72539e-20)
(0.973902 -0.275864 -1.42877e-20)
(0.974146 -0.275487 5.94591e-20)
(0.974426 -0.275115 8.39574e-20)
(0.974745 -0.274743 1.16448e-19)
(0.975107 -0.27436 -7.0999e-20)
(0.975517 -0.273956 -2.02658e-19)
(0.975981 -0.273521 -7.20253e-20)
(0.976506 -0.273042 9.14854e-20)
(0.9771 -0.272507 -1.03899e-18)
(0.977774 -0.271898 9.72507e-20)
(0.978535 -0.271192 -1.3159e-18)
(0.979391 -0.270361 2.60964e-18)
(0.980347 -0.269368 -4.12105e-19)
(0.981403 -0.268169 -9.08428e-20)
(0.982558 -0.26671 2.83515e-19)
(0.983799 -0.264923 2.8509e-18)
(0.985109 -0.262735 5.0535e-18)
(0.986456 -0.260052 -4.85925e-18)
(0.987801 -0.256779 -6.8281e-18)
(0.989084 -0.252804 -3.74503e-18)
(0.990244 -0.248036 8.29294e-18)
(0.991225 -0.242379 -4.60421e-18)
(0.991973 -0.235708 -1.21583e-17)
(0.992539 -0.227892 -4.44605e-18)
(0.992283 -0.219055 -8.88601e-18)
(0.992529 -0.210337 -4.38805e-18)
(0.997425 -0.194255 -8.88243e-18)
(0.985818 -0.169465 2.40013e-18)
(0.963948 -0.282916 5.96927e-22)
(0.964283 -0.282833 -1.7967e-21)
(0.964684 -0.282704 6.45954e-21)
(0.96507 -0.28261 1.69841e-21)
(0.965412 -0.282548 -8.91929e-21)
(0.965725 -0.28248 -1.02794e-20)
(0.966031 -0.28236 2.43853e-20)
(0.966345 -0.282178 -2.66528e-20)
(0.966674 -0.281964 -6.46852e-21)
(0.967023 -0.281762 1.6491e-20)
(0.967396 -0.281605 1.49512e-20)
(0.967793 -0.281505 4.40503e-20)
(0.968215 -0.281459 -2.58177e-20)
(0.968661 -0.281455 -4.10492e-20)
(0.969128 -0.281478 9.02649e-21)
(0.969612 -0.281513 -2.94641e-20)
(0.970107 -0.281547 2.304e-20)
(0.970604 -0.281572 -3.23382e-20)
(0.971092 -0.281581 8.02101e-21)
(0.97156 -0.281568 -6.30957e-21)
(0.971997 -0.281528 -1.36793e-21)
(0.972394 -0.281456 -1.55288e-20)
(0.972746 -0.281347 7.35524e-21)
(0.973053 -0.2812 3.44822e-20)
(0.973316 -0.281012 -8.86293e-21)
(0.973544 -0.280784 4.26097e-21)
(0.973744 -0.280518 6.24094e-21)
(0.973927 -0.280219 1.79102e-21)
(0.974103 -0.27989 1.28828e-21)
(0.974282 -0.279536 -1.21453e-20)
(0.974473 -0.27916 -1.73185e-20)
(0.974682 -0.278764 1.72215e-20)
(0.974916 -0.278358 6.64055e-20)
(0.97518 -0.277949 1.14873e-19)
(0.975481 -0.277537 -2.03466e-19)
(0.97582 -0.27712 -5.94393e-20)
(0.976204 -0.276688 -3.65907e-20)
(0.976637 -0.276232 -2.70485e-19)
(0.977122 -0.275743 2.81935e-19)
(0.977667 -0.275208 -1.8985e-19)
(0.978281 -0.274614 -3.04584e-21)
(0.97897 -0.273944 -2.56815e-20)
(0.979742 -0.273174 4.83241e-19)
(0.980605 -0.272274 -1.18546e-18)
(0.981564 -0.271207 1.70456e-18)
(0.982619 -0.269928 -1.1217e-18)
(0.983767 -0.268383 3.44925e-18)
(0.984998 -0.266505 -1.10075e-18)
(0.986295 -0.26422 -2.62457e-18)
(0.987628 -0.261438 4.78439e-18)
(0.98896 -0.258066 1.47641e-18)
(0.990236 -0.253992 5.40448e-19)
(0.9914 -0.249123 1.24636e-18)
(0.992406 -0.243363 4.43684e-18)
(0.993211 -0.236577 -3.81429e-19)
(0.993879 -0.228624 -3.73721e-18)
(0.993733 -0.219622 4.48507e-18)
(0.994045 -0.210708 1.30835e-18)
(0.999015 -0.194199 1.3885e-18)
(0.986882 -0.168892 -1.63679e-18)
(0.964158 -0.284357 1.14195e-21)
(0.964459 -0.284282 -9.64959e-22)
(0.96483 -0.284166 8.9108e-22)
(0.965192 -0.284077 5.71139e-21)
(0.965511 -0.284016 8.29284e-21)
(0.965804 -0.283949 -3.24281e-20)
(0.966092 -0.28383 2.34807e-20)
(0.966388 -0.28365 4.8826e-21)
(0.9667 -0.283438 -1.52314e-21)
(0.967032 -0.283238 -1.05956e-20)
(0.967387 -0.283083 3.17377e-20)
(0.967766 -0.282986 -1.08066e-20)
(0.968169 -0.282943 -1.4194e-20)
(0.968596 -0.282944 -3.94698e-20)
(0.969046 -0.282974 7.66172e-20)
(0.969518 -0.283019 -1.69973e-20)
(0.970012 -0.283069 -1.31033e-20)
(0.970519 -0.283116 -3.31915e-20)
(0.971034 -0.283157 3.54917e-20)
(0.971547 -0.283185 1.6434e-20)
(0.972048 -0.283195 -9.37684e-21)
(0.972523 -0.283185 9.08328e-21)
(0.972966 -0.283146 -4.13608e-20)
(0.973368 -0.283074 6.08264e-21)
(0.973727 -0.282965 1.73476e-20)
(0.974047 -0.282815 -2.10017e-21)
(0.97433 -0.282623 -1.88957e-20)
(0.974586 -0.28239 9.2928e-21)
(0.974824 -0.282119 -9.2584e-22)
(0.975055 -0.281811 2.96209e-21)
(0.975288 -0.281467 1.45912e-20)
(0.975533 -0.281092 -1.06319e-20)
(0.975798 -0.280693 -5.16436e-20)
(0.976091 -0.280279 -1.57024e-19)
(0.976419 -0.279853 2.7942e-20)
(0.976785 -0.279411 -5.35835e-20)
(0.977197 -0.278947 3.99658e-19)
(0.977658 -0.278452 1.41255e-19)
(0.978172 -0.277918 -9.851e-20)
(0.978747 -0.277332 4.42355e-19)
(0.979389 -0.276681 1.12787e-19)
(0.980105 -0.275949 -2.48177e-19)
(0.980903 -0.275111 -2.07274e-19)
(0.981788 -0.274137 -6.68434e-19)
(0.982766 -0.272989 -2.45582e-18)
(0.983837 -0.271622 2.12576e-18)
(0.984997 -0.269982 -3.64886e-18)
(0.986238 -0.268002 -3.00498e-18)
(0.987543 -0.26561 -2.94002e-22)
(0.988883 -0.262717 -4.41462e-18)
(0.990226 -0.259231 6.43874e-18)
(0.99152 -0.255039 8.08441e-18)
(0.992711 -0.250046 -6.54182e-18)
(0.993764 -0.244153 -5.79947e-18)
(0.994642 -0.23722 2.40948e-18)
(0.995413 -0.229102 1.4421e-17)
(0.99536 -0.219918 -3.53094e-18)
(0.995719 -0.210809 3.4417e-18)
(1.00073 -0.19391 3.73006e-18)
(0.98797 -0.168198 -9.78282e-19)
(0.964325 -0.285595 -1.25713e-21)
(0.964594 -0.285523 1.37858e-21)
(0.964944 -0.285418 9.41399e-21)
(0.965288 -0.285333 -1.23076e-20)
(0.96559 -0.285273 2.23434e-20)
(0.965868 -0.285207 -3.28388e-20)
(0.966141 -0.28509 9.30494e-21)
(0.966424 -0.284912 -4.36644e-22)
(0.966723 -0.284702 2.05621e-20)
(0.967041 -0.284504 -1.08816e-20)
(0.967382 -0.28435 3.09985e-21)
(0.967745 -0.284253 3.00071e-21)
(0.96813 -0.284212 -4.81411e-20)
(0.968538 -0.284214 1.51652e-20)
(0.968968 -0.284246 3.16374e-20)
(0.969421 -0.284296 3.74121e-22)
(0.969898 -0.284352 -4.69962e-20)
(0.970397 -0.28441 1.98723e-20)
(0.970914 -0.284467 7.78989e-20)
(0.971444 -0.28452 -5.17055e-20)
(0.971977 -0.284563 -3.32619e-20)
(0.972502 -0.284595 2.63494e-20)
(0.97301 -0.28461 1.3428e-20)
(0.97349 -0.2846 1.09859e-20)
(0.973935 -0.284562 -2.37673e-20)
(0.974343 -0.284487 -3.12444e-20)
(0.974713 -0.284374 2.63668e-20)
(0.97505 -0.284218 1.08673e-20)
(0.975362 -0.284018 -7.69989e-21)
(0.975659 -0.283775 -1.7326e-21)
(0.975948 -0.283488 -7.16788e-21)
(0.976242 -0.283158 -1.79683e-20)
(0.97655 -0.282792 3.1428e-20)
(0.976881 -0.2824 3.11918e-22)
(0.977244 -0.281981 1.07983e-19)
(0.977645 -0.281537 4.473e-20)
(0.97809 -0.28106 4.68044e-20)
(0.978585 -0.280541 -1.26893e-19)
(0.979135 -0.279975 1.87278e-19)
(0.979746 -0.279349 -6.79852e-20)
(0.980425 -0.27865 -1.12868e-19)
(0.981178 -0.27786 -3.34504e-20)
(0.982012 -0.276957 9.18069e-19)
(0.982934 -0.275909 1.39358e-18)
(0.983945 -0.27468 1.35648e-18)
(0.985047 -0.273222 -2.85674e-18)
(0.986238 -0.271484 -1.48502e-20)
(0.987506 -0.269397 1.36214e-18)
(0.988838 -0.266892 -7.58863e-19)
(0.990207 -0.26388 5.07694e-18)
(0.991581 -0.26027 -2.62981e-18)
(0.992911 -0.255948 -7.57973e-18)
(0.994148 -0.250817 6.3334e-19)
(0.995261 -0.244777 7.11632e-18)
(0.996218 -0.237683 -3.5314e-18)
(0.997084 -0.229392 -3.39459e-18)
(0.997099 -0.220032 -4.06511e-18)
(0.99748 -0.21075 -9.26322e-18)
(1.00248 -0.193525 -5.83472e-18)
(0.989076 -0.167438 2.18986e-18)
(0.964441 -0.286674 -1.08895e-21)
(0.964684 -0.286608 1.57365e-21)
(0.965019 -0.286511 3.27901e-22)
(0.96535 -0.28643 5.97668e-21)
(0.965642 -0.28637 -9.07237e-21)
(0.965909 -0.286304 -1.85142e-20)
(0.966173 -0.286187 6.66209e-21)
(0.966446 -0.286009 -8.76048e-21)
(0.966736 -0.2858 1.91585e-20)
(0.967045 -0.285602 -3.78965e-21)
(0.967375 -0.285449 -1.22642e-20)
(0.967726 -0.285353 1.03367e-20)
(0.968097 -0.285313 1.59044e-20)
(0.968489 -0.285316 4.16723e-20)
(0.9689 -0.285348 -7.52827e-20)
(0.969333 -0.285398 3.68538e-20)
(0.969791 -0.285456 4.38683e-21)
(0.970272 -0.285517 -3.27587e-20)
(0.970777 -0.28558 -1.77826e-20)
(0.971303 -0.285643 5.74445e-20)
(0.971845 -0.285703 -5.4949e-20)
(0.972395 -0.285761 1.73445e-20)
(0.972942 -0.285809 -3.20354e-20)
(0.973477 -0.285844 5.3718e-20)
(0.973989 -0.28586 -9.95189e-21)
(0.974473 -0.285848 -1.6943e-20)
(0.974924 -0.285803 1.60551e-20)
(0.975343 -0.28572 1.43289e-20)
(0.975734 -0.285594 -3.86784e-21)
(0.976103 -0.285423 -3.27869e-21)
(0.976459 -0.285202 3.25293e-20)
(0.976813 -0.284933 1.24464e-20)
(0.977174 -0.284617 -2.86229e-20)
(0.977553 -0.284263 1.91844e-20)
(0.977961 -0.283873 5.31643e-20)
(0.978403 -0.283445 1.66402e-19)
(0.978889 -0.282973 -2.35846e-19)
(0.979424 -0.282449 1.00219e-19)
(0.980015 -0.281866 -9.13664e-20)
(0.980668 -0.281212 -2.06005e-19)
(0.981391 -0.280475 -1.7638e-19)
(0.982189 -0.279638 1.37402e-19)
(0.983068 -0.278678 -5.21145e-19)
(0.984034 -0.277562 -1.06526e-18)