/*--------------------------------*- C++ -*----------------------------------*\
  =========                 |
  \\      /  F ield         | OpenFOAM: The Open Source CFD Toolbox
   \\    /   O peration     | Website:  https://openfoam.org
    \\  /    A nd           | Version:  6.0
     \\/     M anipulation  |
\*---------------------------------------------------------------------------*/
FoamFile
{
    version     2.0;
    format      ascii;
    class       volScalarField;
    location    "15";
    object      p;
}
// * * * * * * * * * * * * * * * * * * * * * * * * * * * * * * * * * * * * * //

dimensions      [0 2 -2 0 0 0 0];

internalField   nonuniform List<scalar> 
62000
(
0.0190605
0.0191483
0.0192454
0.0193465
0.0194573
0.0195723
0.0196979
0.0198283
0.0199704
0.0201176
0.0202777
0.0204437
0.0206243
0.0208115
0.0210153
0.0212273
0.0214585
0.0217004
0.0219646
0.0222427
0.0225469
0.0228687
0.0232209
0.023595
0.0240043
0.0244399
0.0249155
0.0254229
0.0259748
0.0265645
0.0272051
0.027895
0.0286432
0.0294446
0.0302973
0.0312075
0.0321801
0.0332082
0.0342767
0.0353631
0.0364389
0.0374672
0.038408
0.0392197
0.0398666
0.0403331
0.0406055
0.0407136
0.0406368
0.0403852
0.0398892
0.0390291
0.0380067
0.0365183
0.0349728
0.0331502
0.0316377
0.0295435
0.0291732
0.0314506
0.0189697
0.0190887
0.0192118
0.0193348
0.0194642
0.0195945
0.0197324
0.0198729
0.0200227
0.020176
0.0203403
0.0205093
0.0206914
0.0208797
0.0210831
0.0212948
0.0215244
0.0217649
0.0220262
0.022302
0.022602
0.0229205
0.023267
0.0236366
0.0240386
0.0244691
0.0249365
0.0254389
0.0259829
0.0265686
0.0272009
0.0278845
0.0286252
0.0294239
0.0302845
0.031213
0.0322114
0.0332741
0.0343887
0.0355368
0.036693
0.0378241
0.0388934
0.0398626
0.0406994
0.0413918
0.041931
0.042352
0.0426379
0.0428011
0.042757
0.0423568
0.0417838
0.0406764
0.0394633
0.0378968
0.0367425
0.0349238
0.0359503
0.0370984
0.0188028
0.0189288
0.0190599
0.0191912
0.0193291
0.0194679
0.019614
0.0197621
0.019919
0.0200788
0.020249
0.0204233
0.0206103
0.020803
0.0210107
0.0212262
0.0214595
0.0217036
0.0219685
0.0222478
0.0225513
0.0228733
0.0232234
0.0235968
0.0240025
0.0244373
0.0249089
0.0254164
0.0259649
0.0265559
0.0271913
0.0278756
0.028614
0.0294126
0.0302779
0.0312142
0.0322203
0.0332886
0.0344066
0.0355558
0.03671
0.0378346
0.0388903
0.039836
0.0406359
0.041275
0.0417432
0.0420769
0.0422639
0.0423184
0.0421527
0.0415861
0.0407553
0.0392427
0.0374766
0.035242
0.0334748
0.0313446
0.032305
0.0314865
0.0186843
0.0187995
0.0189243
0.0190526
0.0191905
0.0193317
0.0194821
0.019636
0.0197995
0.0199665
0.0201438
0.0203255
0.0205191
0.0207182
0.0209315
0.0211525
0.0213905
0.0216392
0.0219082
0.0221916
0.0224988
0.0228247
0.0231786
0.0235559
0.0239657
0.0244049
0.0248812
0.0253939
0.0259482
0.0265453
0.0271863
0.0278745
0.0286161
0.0294193
0.0302932
0.0312411
0.0322601
0.033342
0.034474
0.0356379
0.036807
0.0379461
0.0390139
0.0399677
0.0407696
0.0414037
0.0418629
0.0421917
0.0423935
0.0425033
0.0424452
0.0420378
0.0413701
0.0399813
0.038221
0.0358762
0.0339182
0.0317719
0.0325504
0.0316979
0.0185601
0.0186754
0.0188007
0.0189304
0.0190701
0.0192138
0.0193671
0.0195245
0.0196919
0.019863
0.0200448
0.0202308
0.0204291
0.0206325
0.0208504
0.0210754
0.0213177
0.0215703
0.0218433
0.0221306
0.022442
0.0227721
0.0231304
0.0235124
0.0239271
0.0243714
0.0248531
0.0253717
0.0259322
0.026536
0.027184
0.0278791
0.0286278
0.0294407
0.0303271
0.0312911
0.0323296
0.0334341
0.0345923
0.035786
0.0369885
0.0381638
0.0392694
0.0402606
0.0410971
0.0417626
0.0422535
0.0426256
0.042906
0.0431631
0.0433615
0.04334
0.0431772
0.042356
0.0411511
0.0392616
0.03758
0.0356069
0.0363355
0.0355107
0.0185393
0.0186625
0.0187921
0.0189237
0.0190628
0.0192041
0.0193535
0.0195058
0.0196672
0.0198319
0.0200068
0.0201861
0.0203776
0.0205749
0.020787
0.0210076
0.021246
0.0214963
0.021768
0.0220555
0.0223684
0.0227013
0.0230637
0.023451
0.023872
0.0243237
0.0248136
0.0253409
0.0259109
0.0265246
0.0271828
0.0278883
0.0286483
0.0294731
0.0303736
0.0313539
0.0324105
0.0335349
0.0347146
0.0359305
0.0371547
0.0383489
0.039467
0.0404586
0.0412769
0.0418978
0.0423144
0.0425858
0.0427573
0.0429336
0.0431267
0.0432337
0.0433545
0.0429794
0.0423082
0.0409736
0.0397249
0.0380714
0.0389723
0.0378141
0.0186574
0.0187798
0.0189068
0.0190341
0.0191675
0.0193015
0.0194422
0.0195845
0.0197347
0.0198875
0.0200499
0.0202164
0.0203951
0.0205799
0.0207799
0.0209889
0.0212169
0.0214577
0.0217215
0.0220026
0.022311
0.0226413
0.0230033
0.0233924
0.0238173
0.024275
0.0247727
0.0253095
0.0258901
0.0265155
0.027186
0.0279043
0.0286774
0.0295166
0.0304326
0.03143
0.0325056
0.0336508
0.0348522
0.0360897
0.0373337
0.0385425
0.0396644
0.0406407
0.0414125
0.0419418
0.0422073
0.0422601
0.0421503
0.0420077
0.0418959
0.0417756
0.0418135
0.0415342
0.0411452
0.0402421
0.0394771
0.0383577
0.0397097
0.0387108
0.0188623
0.0189666
0.0190772
0.0191894
0.0193089
0.0194301
0.0195587
0.0196898
0.0198293
0.0199717
0.0201239
0.0202805
0.0204492
0.0206242
0.0208143
0.0210138
0.0212321
0.021464
0.0217191
0.0219925
0.0222939
0.0226187
0.0229764
0.0233631
0.0237876
0.0242471
0.0247488
0.0252919
0.025881
0.0265162
0.0271981
0.027929
0.0287167
0.0295723
0.0305082
0.0315296
0.0326345
0.033815
0.0350583
0.0363445
0.0376438
0.0389127
0.0400951
0.0411237
0.0419266
0.0424474
0.0426436
0.0425453
0.0421915
0.0417194
0.0412234
0.0407321
0.0404766
0.0400747
0.0397593
0.0391642
0.0388625
0.0384111
0.0403699
0.0402083
0.0190077
0.0190869
0.0191763
0.0192705
0.019375
0.019484
0.0196029
0.0197264
0.0198602
0.0199985
0.0201479
0.0203026
0.0204703
0.0206447
0.0208345
0.0210334
0.0212511
0.0214816
0.0217349
0.0220058
0.0223043
0.0226257
0.0229803
0.0233641
0.0237865
0.0242451
0.0247476
0.0252935
0.0258873
0.0265296
0.0272206
0.0279634
0.0287659
0.0296414
0.0306034
0.03166
0.032811
0.0340509
0.0353692
0.0367487
0.0381619
0.0395665
0.040905
0.0421055
0.043085
0.0437698
0.0440937
0.0440594
0.0436812
0.0430841
0.042375
0.0416206
0.0411181
0.0405573
0.0402382
0.0398426
0.0399035
0.0400322
0.0424887
0.0433275
0.019061
0.0191164
0.0191852
0.0192617
0.0193516
0.0194491
0.0195595
0.0196773
0.0198079
0.0199455
0.0200961
0.0202539
0.0204258
0.0206058
0.0208016
0.0210073
0.0212317
0.0214689
0.0217281
0.0220043
0.022307
0.0226316
0.0229881
0.023373
0.0237959
0.0242548
0.0247581
0.0253058
0.025903
0.0265507
0.0272499
0.0280039
0.0288229
0.0297215
0.0307164
0.0318184
0.0330308
0.0343517
0.0357743
0.0372865
0.0388661
0.0404753
0.0420595
0.0435461
0.0448464
0.0458732
0.0465385
0.046815
0.0466849
0.0462448
0.045587
0.0447967
0.0441981
0.0435584
0.0432162
0.0429223
0.0431527
0.0435987
0.0462617
0.0477099
0.0189852
0.0190265
0.0190832
0.0191495
0.0192311
0.0193224
0.0194285
0.0195441
0.0196745
0.0198139
0.0199682
0.0201316
0.0203108
0.0204994
0.0207052
0.0209216
0.0211573
0.021406
0.0216766
0.0219635
0.0222761
0.0226095
0.0229736
0.0233647
0.0237925
0.0242556
0.0247625
0.025314
0.0259159
0.02657
0.027278
0.0280449
0.0288818
0.0298064
0.0308382
0.0319914
0.033273
0.0346849
0.0362253
0.0378879
0.0396576
0.0415035
0.0433768
0.045209
0.0469107
0.0483873
0.0495342
0.0502973
0.0506247
0.0505765
0.0502173
0.0496185
0.0491157
0.0485041
0.0481588
0.0478733
0.0480777
0.0485313
0.051071
0.0525561
0.0188295
0.018865
0.0189162
0.0189776
0.0190553
0.0191437
0.0192483
0.0193639
0.0194958
0.0196382
0.0197969
0.0199661
0.0201522
0.0203492
0.0205639
0.0207906
0.0210372
0.0212975
0.0215799
0.021879
0.0222036
0.0225485
0.0229233
0.0233242
0.0237608
0.0242317
0.0247459
0.0253045
0.025914
0.0265769
0.0272961
0.0280773
0.0289342
0.0298859
0.0309552
0.0321591
0.0335075
0.0350064
0.0366585
0.0384639
0.040415
0.0424889
0.0446449
0.0468216
0.0489337
0.0508844
0.0525595
0.0538834
0.0547738
0.0552518
0.0553421
0.055092
0.0548102
0.0543176
0.0539845
0.0536471
0.0536681
0.0538935
0.0560689
0.0571144
0.018584
0.0186237
0.0186791
0.0187447
0.0188265
0.018919
0.0190279
0.0191478
0.0192844
0.0194319
0.0195964
0.0197721
0.0199655
0.0201702
0.0203937
0.0206295
0.020886
0.0211565
0.0214497
0.0217597
0.0220955
0.0224515
0.0228373
0.0232489
0.0236958
0.0241767
0.0247005
0.0252687
0.0258883
0.0265625
0.0272948
0.0280925
0.0289696
0.0299479
0.0310515
0.0322997
0.0337046
0.0352751
0.0370176
0.0389376
0.0410347
0.0432937
0.0456827
0.048149
0.050615
0.0529874
0.055148
0.0570082
0.0584613
0.0594943
0.0600937
0.0602675
0.0602967
0.0599869
0.0596998
0.0592884
0.0590635
0.058946
0.0606468
0.0610096
0.0183286
0.0183765
0.0184391
0.0185111
0.0185986
0.0186963
0.01881
0.0189348
0.0190761
0.0192284
0.0193978
0.0195785
0.0197771
0.0199874
0.0202165
0.0204585
0.0207214
0.0209991
0.0212996
0.0216177
0.0219619
0.0223268
0.0227219
0.023143
0.0235996
0.0240904
0.0246243
0.025203
0.0258339
0.0265204
0.0272671
0.028081
0.028978
0.0299797
0.0311118
0.0323942
0.03384
0.0354598
0.037263
0.0392592
0.041454
0.0438395
0.046392
0.0490688
0.0518014
0.0545036
0.0570594
0.0593735
0.0613237
0.0628685
0.063958
0.0645654
0.064924
0.0648327
0.0646193
0.064156
0.0636917
0.0632339
0.0644692
0.0641066
0.0180501
0.0181107
0.0181849
0.0182674
0.0183642
0.0184702
0.018591
0.0187219
0.0188685
0.0190257
0.0191994
0.0193844
0.0195872
0.0198017
0.0200354
0.0202819
0.0205498
0.0208323
0.0211381
0.0214615
0.0218115
0.0221826
0.0225843
0.0230126
0.0234768
0.0239758
0.0245186
0.025107
0.0257484
0.0264468
0.0272068
0.0280362
0.02895
0.0299709
0.0311238
0.0324284
0.0338979
0.0355435
0.037376
0.0394082
0.04165
0.0440994
0.0467402
0.0495392
0.0524385
0.0553613
0.0581979
0.0608531
0.0631962
0.0651669
0.0666888
0.0676981
0.0683939
0.0685454
0.0684504
0.0679854
0.067356
0.0666395
0.0674983
0.0665135
0.0177868
0.0178594
0.017944
0.018036
0.0181411
0.0182545
0.0183819
0.0185186
0.0186705
0.0188322
0.0190099
0.0191984
0.0194041
0.0196213
0.0198572
0.0201062
0.0203761
0.0206611
0.0209693
0.0212956
0.0216486
0.0220232
0.0224288
0.0228615
0.0233307
0.0238355
0.0243849
0.0249807
0.0256306
0.0263387
0.02711
0.0279514
0.0288787
0.029913
0.0310785
0.0323938
0.0338707
0.0355207
0.0373549
0.0393881
0.0416336
0.044094
0.0467597
0.0496062
0.052586
0.0556329
0.0586464
0.0615356
0.0641688
0.0664731
0.0683518
0.0697154
0.070719
0.0711215
0.0711795
0.070779
0.0700755
0.0692193
0.0698235
0.0683768
0.0174839
0.0175713
0.0176703
0.0177758
0.0178935
0.0180183
0.0181559
0.0183014
0.0184608
0.0186288
0.0188118
0.0190045
0.019214
0.0194341
0.0196728
0.0199236
0.0201956
0.0204819
0.0207916
0.021119
0.0214733
0.0218491
0.0222564
0.022691
0.0231626
0.0236705
0.0242236
0.0248241
0.0254795
0.0261943
0.0269731
0.0278233
0.0287589
0.0298008
0.0309713
0.0322868
0.033758
0.0353955
0.0372103
0.039218
0.0414342
0.043865
0.0465061
0.0493409
0.0523315
0.0554228
0.0585251
0.0615551
0.064384
0.0669348
0.0691001
0.0707664
0.0720645
0.0727284
0.0729823
0.0727121
0.0720385
0.0711647
0.0716412
0.0699084
0.0171987
0.0172987
0.0174092
0.0175253
0.0176527
0.0177864
0.0179321
0.018085
0.018251
0.0184246
0.0186123
0.0188087
0.0190207
0.0192429
0.0194824
0.019734
0.0200058
0.0202922
0.0206013
0.0209284
0.0212823
0.0216577
0.0220648
0.0224993
0.0229711
0.0234796
0.0240338
0.0246359
0.0252937
0.0260114
0.0267942
0.0276482
0.028588
0.0296317
0.0308005
0.0321082
0.0335638
0.0351772
0.0369587
0.0389243
0.0410914
0.0434686
0.0460559
0.0488434
0.0518024
0.0548879
0.0580212
0.0611283
0.0640874
0.0668206
0.0692146
0.071142
0.0727026
0.0736263
0.0741013
0.0740177
0.0734545
0.0726664
0.0731194
0.0712493
0.0168894
0.0170029
0.0171262
0.0172544
0.0173928
0.0175366
0.017691
0.0178515
0.0180238
0.0182027
0.0183946
0.0185944
0.0188093
0.0190332
0.0192743
0.0195264
0.0197987
0.0200845
0.020393
0.0207189
0.0210714
0.0214452
0.0218506
0.0222834
0.0227535
0.0232604
0.0238132
0.0244144
0.0250712
0.0257887
0.0265713
0.0274257
0.0283643
0.0294053
0.0305669
0.031861
0.0332951
0.034878
0.0366191
0.0385348
0.0406431
0.0429547
0.0454731
0.0481941
0.0510967
0.0541457
0.0572729
0.060414
0.0634554
0.0663231
0.0689041
0.0710586
0.0728734
0.0740632
0.0747869
0.0749322
0.0745477
0.0739221
0.0744349
0.072545
0.0165846
0.0167082
0.0168405
0.016977
0.0171231
0.0172739
0.017435
0.0176017
0.0177797
0.0179636
0.0181597
0.0183628
0.0185798
0.0188054
0.0190467
0.0192989
0.0195701
0.0198548
0.0201614
0.0204854
0.0208356
0.0212069
0.0216095
0.0220393
0.0225062
0.0230099
0.0235593
0.024157
0.0248105
0.0255244
0.0263039
0.0271541
0.0280885
0.0291224
0.0302731
0.0315501
0.0329595
0.0345096
0.036209
0.038074
0.0401236
0.0423699
0.0448193
0.0474724
0.0503148
0.0533196
0.0564288
0.0595868
0.06269
0.065668
0.0684109
0.0707725
0.0728185
0.0742677
0.0752484
0.0756486
0.0754794
0.0750641
0.0756876
0.0738551
0.0162161
0.0163519
0.0164966
0.016645
0.0168028
0.0169645
0.0171356
0.0173112
0.0174969
0.0176874
0.0178892
0.0180968
0.0183176
0.0185455
0.018789
0.0190416
0.0193131
0.0195966
0.0199019
0.0202234
0.0205708
0.0209387
0.0213376
0.0217634
0.0222259
0.022725
0.0232694
0.0238618
0.0245095
0.0252177
0.0259906
0.0268347
0.027761
0.0287852
0.0299222
0.0311805
0.0325648
0.034083
0.0357432
0.0375616
0.0395578
0.041745
0.044132
0.0467234
0.0495104
0.0524735
0.0555632
0.0587322
0.0618858
0.0649596
0.0678496
0.0704029
0.072681
0.0743935
0.0756428
0.0763117
0.0763832
0.0762037
0.0769733
0.0752471
0.0158469
0.0159917
0.0161445
0.0163007
0.0164658
0.0166346
0.0168126
0.0169948
0.0171869
0.0173832
0.0175899
0.0178018
0.0180255
0.0182558
0.0185
0.0187532
0.0190236
0.019306
0.0196089
0.0199279
0.0202721
0.0206363
0.0210311
0.021452
0.0219094
0.0224028
0.0229409
0.0235266
0.024167
0.0248671
0.025632
0.0264665
0.0273835
0.0283955
0.0295177
0.0307568
0.0321172
0.0336066
0.0352326
0.0370116
0.0389641
0.0411042
0.0434428
0.0459876
0.0487349
0.0516708
0.054754
0.0579434
0.0611541
0.0643244
0.067359
0.0701
0.0725945
0.0745603
0.0760733
0.0770124
0.0773272
0.0773898
0.0783166
0.0767199
0.0154342
0.0155889
0.0157514
0.0159169
0.0160907
0.0162676
0.0164527
0.0166415
0.016839
0.0170403
0.0172513
0.0174667
0.0176938
0.0179262
0.0181725
0.0184262
0.0186971
0.0189783
0.0192798
0.019596
0.0199369
0.020297
0.0206871
0.0211028
0.0215542
0.0220411
0.0225721
0.0231499
0.0237816
0.0244726
0.0252272
0.0260516
0.0269565
0.0279555
0.0290622
0.030283
0.0316219
0.0330867
0.0346847
0.0364327
0.0383518
0.0404573
0.0427615
0.0452752
0.0479982
0.0509227
0.0540121
0.0572331
0.060506
0.0637762
0.0669526
0.0698777
0.0725956
0.0748181
0.0765967
0.0778027
0.078361
0.0786624
0.0797551
0.0782958
0.0150116
0.0151725
0.0153402
0.0155106
0.0156889
0.0158703
0.0160601
0.0162533
0.0164555
0.0166611
0.016876
0.0170949
0.0173244
0.0175591
0.0178062
0.0180606
0.0183307
0.018611
0.0189104
0.0192242
0.0195617
0.0199177
0.0203031
0.0207132
0.0211584
0.0216383
0.0221615
0.0227307
0.0233529
0.0240335
0.0247773
0.0255893
0.0264821
0.0274668
0.0285583
0.0297623
0.0310823
0.0325268
0.0341033
0.035829
0.0377261
0.0398109
0.0420971
0.0445978
0.0473167
0.0502492
0.0533658
0.0566354
0.0599876
0.0633672
0.0666943
0.0698067
0.0727367
0.0752048
0.0772383
0.0787013
0.0794903
0.0800196
0.0812712
0.0799467
0.0145085
0.0146781
0.0148551
0.0150348
0.0152225
0.0154126
0.0156106
0.0158112
0.0160201
0.0162314
0.0164516
0.0166747
0.0169084
0.0171457
0.0173955
0.0176509
0.017922
0.0182015
0.0184998
0.0188109
0.0191453
0.0194971
0.0198776
0.020282
0.0207206
0.0211932
0.0217081
0.0222683
0.0228804
0.0235501
0.0242817
0.0250817
0.0259606
0.0269312
0.028008
0.0291965
0.0305006
0.0319292
0.0334901
0.0352013
0.037086
0.0391613
0.0414425
0.0439449
0.0466747
0.0496316
0.052789
0.0561221
0.0595617
0.0630602
0.0665366
0.0698385
0.0729913
0.0757097
0.0779974
0.0797091
0.080721
0.0814665
0.0828767
0.0816785
0.0139943
0.0141693
0.0143509
0.0145352
0.0147271
0.0149217
0.0151243
0.0153297
0.0155434
0.0157595
0.015984
0.0162112
0.0164478
0.016688
0.0169394
0.0171962
0.0174673
0.0177467
0.0180436
0.0183531
0.0186846
0.0190328
0.0194087
0.0198076
0.0202397
0.0207049
0.0212115
0.0217622
0.022364
0.0230222
0.0237419
0.0245281
0.0253939
0.0263499
0.0274125
0.0285869
0.0298774
0.0312937
0.0328444
0.034548
0.0364294
0.0385061
0.0407958
0.0433141
0.0460722
0.0490697
0.0522876
0.0556995
0.0592448
0.0628721
0.0665105
0.0700077
0.0733744
0.0763332
0.0788641
0.0808129
0.0820333
0.0829815
0.0845386
0.0834572
0.0134259
0.0136075
0.0137959
0.0139867
0.0141848
0.0143853
0.0145929
0.014803
0.0150206
0.0152405
0.0154685
0.0156988
0.0159388
0.0161815
0.0164357
0.0166941
0.0169669
0.0172463
0.017543
0.0178507
0.01818
0.0185246
0.0188962
0.0192897
0.0197155
0.0201733
0.0206714
0.0212127
0.0218038
0.0224505
0.0231571
0.0239306
0.0247819
0.0257238
0.0267724
0.0279339
0.0292127
0.0306201
0.0321645
0.033866
0.0357502
0.0378364
0.0401429
0.0426878
0.0454841
0.0485347
0.0518226
0.0553256
0.0589826
0.0627486
0.0665458
0.0702436
0.0738369
0.0770427
0.0798175
0.081997
0.083419
0.08456
0.0862636
0.085287
0.0128379
0.0130224
0.0132129
0.0134057
0.0136057
0.0138083
0.0140186
0.0142316
0.0144527
0.014676
0.0149074
0.0151411
0.0153838
0.0156294
0.0158852
0.0161455
0.016419
0.0166992
0.0169955
0.0173025
0.0176298
0.0179718
0.0183395
0.018728
0.0191477
0.0195983
0.020088
0.0206197
0.0212001
0.0218349
0.022529
0.0232881
0.024126
0.025053
0.026088
0.0272374
0.0285058
0.0299065
0.0314476
0.0331516
0.0350442
0.0371471
0.0394789
0.0420605
0.0449068
0.0480222
0.0513949
0.0550006
0.0587852
0.0626973
0.0666678
0.0705706
0.0743851
0.0778299
0.0808399
0.0832411
0.0848541
0.086178
0.0880168
0.0871369
0.012158
0.0123487
0.0125466
0.0127469
0.012955
0.0131651
0.0133826
0.0136022
0.0138294
0.014058
0.0142945
0.0145325
0.0147798
0.0150286
0.0152883
0.0155507
0.0158267
0.0161075
0.0164044
0.0167104
0.0170363
0.0173754
0.0177395
0.0181231
0.0185369
0.0189804
0.0194617
0.0199839
0.0205533
0.0211762
0.0218568
0.0226028
0.0234254
0.024338
0.0253594
0.0264964
0.0277562
0.0291511
0.0306919
0.0324001
0.034305
0.0364279
0.0387901
0.0414135
0.0443157
0.0475033
0.050966
0.0546833
0.0585984
0.0626664
0.0668054
0.0709212
0.0749693
0.0786611
0.0819098
0.0845302
0.0863308
0.0878322
0.0898078
0.0890138
0.0114664
0.0116601
0.0118603
0.0120632
0.0122738
0.0124869
0.012708
0.0129315
0.0131631
0.0133962
0.0136372
0.0138795
0.0141303
0.0143828
0.0146449
0.01491
0.0151874
0.0154698
0.0157671
0.0160731
0.016398
0.0167351
0.0170961
0.0174754
0.0178835
0.0183201
0.0187931
0.0193056
0.0198642
0.0204746
0.0211423
0.0218732
0.0226818
0.0235788
0.0245863
0.0257116
0.0269622
0.0283526
0.0298937
0.0316088
0.0335283
0.0356753
0.0380725
0.0407438
0.0437093
0.0469765
0.0505402
0.054377
0.0584362
0.0626656
0.0669882
0.0713209
0.0755989
0.0795319
0.0830129
0.085847
0.087829
0.089502
0.0916042
0.0908917
0.010722
0.0109205
0.0111259
0.011334
0.0115498
0.0117678
0.0119931
0.0122207
0.0124557
0.0126922
0.0129366
0.0131821
0.0134367
0.0136921
0.0139581
0.0142256
0.0145059
0.0147897
0.0150883
0.0153941
0.0157182
0.0160532
0.0164114
0.0167863
0.017189
0.0176187
0.0180834
0.0185863
0.0191335
0.0197317
0.020385
0.021102
0.0218944
0.0227771
0.023769
0.0248825
0.0261235
0.02751
0.0290514
0.030774
0.0327085
0.034881
0.0373143
0.0400358
0.0430668
0.0464178
0.0500844
0.054047
0.0582519
0.0626518
0.0671552
0.0717136
0.0762323
0.0804147
0.0841337
0.0871824
0.0893456
0.0911882
0.0934204
0.0927807
0.00996843
0.0101679
0.0103735
0.010582
0.0107982
0.0110171
0.011244
0.0114737
0.0117116
0.0119512
0.0121988
0.0124476
0.0127049
0.0129636
0.0132315
0.0135015
0.0137832
0.0140687
0.0143679
0.0146741
0.0149976
0.0153311
0.0156865
0.0160575
0.0164549
0.0168778
0.0173342
0.017827
0.018363
0.018948
0.0195875
0.0202883
0.0210666
0.0219315
0.0229091
0.0240088
0.0252405
0.0266214
0.0281636
0.029893
0.0318439
0.0340427
0.0365152
0.0392896
0.0423912
0.0458304
0.0496081
0.0537023
0.0580643
0.0626404
0.0673392
0.0721258
0.0768841
0.0813114
0.0852637
0.0885239
0.0908649
0.0928741
0.0952269
0.0946586
0.00912421
0.00932871
0.00954112
0.00975657
0.0099805
0.0102067
0.0104409
0.0106769
0.0109208
0.0111655
0.0114181
0.0116711
0.0119331
0.0121949
0.012467
0.0127394
0.0130242
0.0133108
0.0136115
0.0139175
0.0142404
0.014572
0.0149247
0.0152916
0.0156835
0.0160995
0.0165473
0.0170301
0.0175539
0.0181256
0.0187497
0.0194357
0.020196
0.0210449
0.0220056
0.0230911
0.0243124
0.0256872
0.0272288
0.0289642
0.0309304
0.0331548
0.0356659
0.0384936
0.0416661
0.0451953
0.0490851
0.0533151
0.0578361
0.062597
0.0674917
0.0725152
0.0775212
0.0822012
0.0863938
0.0898682
0.0923886
0.0945641
0.0970416
0.0965381
0.00829211
0.0084979
0.00871093
0.00892727
0.00915221
0.00937993
0.00961632
0.00985512
0.0101024
0.0103507
0.0106068
0.0108634
0.0111282
0.0113934
0.0116674
0.0119424
0.0122285
0.0125171
0.0128185
0.0131251
0.0134477
0.013778
0.0141282
0.0144911
0.0148775
0.0152863
0.0157251
0.016197
0.0167083
0.0172653
0.0178742
0.0185422
0.019286
0.020116
0.0210594
0.0221303
0.0233393
0.0247069
0.0262459
0.0279867
0.0299673
0.032218
0.0347683
0.0376514
0.0408975
0.0445207
0.0485282
0.0528997
0.0575893
0.062541
0.0676455
0.0729076
0.0781617
0.0830906
0.0875195
0.0912057
0.0939039
0.0962436
0.098837
0.0983992
0.00741661
0.0076254
0.00784194
0.00806183
0.00829013
0.00852127
0.00876024
0.00900176
0.00925112
0.00950184
0.00976052
0.0100198
0.0102881
0.0105562
0.0108343
0.0111121
0.0114018
0.0116923
0.0119958
0.0123029
0.0126254
0.0129541
0.0133015
0.0136601
0.0140403
0.0144413
0.0148702
0.0153304
0.0158276
0.0163695
0.0169605
0.0176113
0.018335
0.0191466
0.0200717
0.0211263
0.0223219
0.0236801
0.0252153
0.0269593
0.0289529
0.0312282
0.0338167
0.0367543
0.0400737
0.0437917
0.0479176
0.0524336
0.0572944
0.0624449
0.0677627
0.0732714
0.0787792
0.083964
0.0886362
0.0925377
0.0954157
0.0979201
0.100633
0.100256
0.00652125
0.00672822
0.00694248
0.00716138
0.00738918
0.00762146
0.00786269
0.00810784
0.00836167
0.00861766
0.00888153
0.00914654
0.00941962
0.00969303
0.00997485
0.0102571
0.0105496
0.0108432
0.0111481
0.0114563
0.0117783
0.0121053
0.0124493
0.0128027
0.0131758
0.0135678
0.0139855
0.0144323
0.0149145
0.0154389
0.0160121
0.0166419
0.0173469
0.0181371
0.0190432
0.0200799
0.0212601
0.022607
0.0241364
0.0258823
0.0278879
0.0301876
0.0328147
0.035808
0.0392031
0.043019
0.0472682
0.0519341
0.0569743
0.0623297
0.0678731
0.0736304
0.0793931
0.0848302
0.0897416
0.0938558
0.0969123
0.0995796
0.102404
0.10209
0.00546361
0.00568442
0.00591776
0.00615725
0.00640722
0.00666006
0.00692114
0.00718259
0.00745151
0.00771895
0.00799402
0.00826622
0.00854731
0.00882505
0.00911246
0.00939679
0.00969234
0.00998598
0.0102913
0.0105974
0.010917
0.0112395
0.011578
0.0119241
0.0122881
0.0126691
0.0130737
0.0135055
0.0139704
0.0144764
0.0150285
0.0156383
0.0163198
0.0170895
0.017974
0.018991
0.0201541
0.0214879
0.0230097
0.0247556
0.0267715
0.0290938
0.0317582
0.0348064
0.0382768
0.042191
0.0465643
0.0513825
0.0566051
0.0621727
0.067946
0.0739586
0.0799806
0.0856766
0.0908338
0.0951642
0.0984007
0.101231
0.10417
0.103915
0.00483263
0.00503838
0.00524925
0.00546437
0.00568807
0.00591731
0.00615611
0.00639971
0.00665254
0.0069081
0.00717191
0.00743681
0.00770989
0.00798291
0.00826426
0.00854522
0.00883612
0.00912672
0.00942774
0.00972988
0.010044
0.0103603
0.0106909
0.0110274
0.01138
0.0117476
0.0121369
0.0125513
0.0129972
0.0134818
0.0140124
0.0145976
0.0152573
0.0160022
0.0168642
0.0178598
0.0190038
0.0203226
0.0218352
0.0235797
0.025605
0.0279495
0.0306516
0.0337558
0.0373036
0.0413193
0.0458212
0.0507968
0.0562087
0.0619941
0.0680073
0.0742777
0.0805607
0.0865124
0.0919105
0.0964537
0.0998689
0.102861
0.105906
0.105713
0.00379288
0.00401444
0.00424754
0.00448644
0.00473531
0.00498672
0.00524629
0.00550595
0.00577317
0.00603841
0.00631139
0.00658075
0.00685896
0.00713275
0.00741589
0.00769452
0.00798376
0.00826924
0.00856518
0.00885972
0.00916569
0.00947195
0.00979135
0.0101151
0.0104532
0.0108047
0.0111758
0.0115705
0.0119945
0.0124563
0.0129618
0.0135231
0.0141558
0.0148765
0.0157136
0.016686
0.0178093
0.0191117
0.0206133
0.0223548
0.0243878
0.0267533
0.029492
0.0326514
0.0362764
0.0403941
0.0450255
0.0501608
0.0557645
0.0617739
0.068031
0.0745646
0.0811128
0.0873267
0.0929717
0.0977309
0.101325
0.104479
0.107633
0.107499
0.00323431
0.00344035
0.0036505
0.00386392
0.00408513
0.004311
0.00454574
0.00478443
0.00503174
0.00528085
0.00553767
0.00579454
0.0060591
0.00632232
0.00659333
0.00686239
0.0071406
0.0074167
0.00770186
0.00798599
0.00828008
0.00857371
0.00887887
0.00918696
0.0095076
0.00984005
0.0101904
0.0105625
0.0109627
0.0113986
0.0118784
0.0124112
0.0130182
0.0137108
0.0145219
0.0154695
0.0165705
0.0178546
0.0193438
0.0210811
0.0231211
0.0255073
0.028283
0.0314989
0.0352034
0.0394262
0.0441914
0.049491
0.0552926
0.0615304
0.068039
0.074839
0.0816544
0.0881275
0.0940139
0.098985
0.102757
0.106072
0.109326
0.109256
0.00223318
0.00245693
0.00269127
0.00293022
0.00317791
0.00342672
0.00368232
0.0039365
0.00419685
0.00445366
0.00471681
0.00497481
0.00524035
0.0055
0.00576766
0.00602924
0.00629995
0.00656516
0.00683894
0.0071093
0.00738876
0.00766603
0.00795365
0.00824272
0.00854282
0.0088533
0.00918004
0.00952723
0.00990067
0.0103094
0.0107597
0.0112646
0.0118409
0.0125055
0.0132884
0.0142096
0.0152868
0.0165513
0.0180266
0.0197584
0.0218041
0.0242099
0.0270218
0.0302939
0.0340779
0.0384066
0.0433067
0.0487727
0.0547741
0.0612454
0.0680084
0.075079
0.082166
0.0889046
0.0950384
0.100224
0.104174
0.107649
0.111006
0.110999
0.00177472
0.00198323
0.00219359
0.00240419
0.0026203
0.00283835
0.00306319
0.00328975
0.00352312
0.00375648
0.00399598
0.00423409
0.0044786
0.0047205
0.0049689
0.00521401
0.00546683
0.00571599
0.00597236
0.00622585
0.00648701
0.00674541
0.00701262
0.00728006
0.00755694
0.00784281
0.00814341
0.008463
0.00880776
0.00918602
0.00960638
0.0100786
0.0106253
0.0112584
0.0120118
0.0129052
0.013957
0.0152004
0.0166606
0.0183857
0.0204366
0.0228621
0.0257109
0.0290407
0.0329066
0.0373444
0.0423836
0.0480203
0.0542267
0.0609347
0.067958
0.0753023
0.0826632
0.0896643
0.0960399
0.101435
0.105563
0.109197
0.11265
0.112711
0.000938178
0.00115223
0.00137058
0.00158918
0.0018131
0.00203663
0.00226577
0.00249366
0.00272764
0.00295867
0.00319613
0.00342878
0.00366876
0.00390258
0.00414354
0.00437745
0.00461892
0.00485331
0.00509406
0.00532939
0.00557114
0.00580829
0.00605284
0.00629612
0.00654726
0.0068061
0.00707811
0.00736791
0.00768126
0.00802771
0.00841422
0.00885453
0.00936686
0.00996824
0.0106905
0.0115546
0.0125797
0.0138008
0.0152447
0.0169621
0.0190171
0.0214616
0.0243469
0.0277344
0.0316827
0.0362306
0.0414101
0.0472197
0.0536326
0.0605813
0.0678669
0.0754882
0.0831275
0.0903977
0.0970208
0.102628
0.106933
0.110727
0.114278
0.114409
0.000189607
0.000405628
0.000625756
0.000844937
0.00106947
0.00129248
0.00152053
0.00174581
0.00197541
0.00220037
0.00242873
0.00265149
0.00287796
0.0030982
0.00332229
0.00354
0.00376278
0.00397908
0.00419981
0.00441498
0.00463483
0.00484914
0.00506912
0.00528643
0.00550989
0.00573961
0.00598098
0.00623869
0.00651897
0.00683059
0.00718302
0.00758666
0.00806561
0.00863234
0.00932212
0.0101556
0.0111525
0.0123499
0.0137764
0.0154853
0.0175443
0.0200079
0.0229308
0.0263778
0.0304111
0.0350727
0.0403967
0.0463832
0.0530069
0.060199
0.0677516
0.075653
0.0835727
0.091109
0.097974
0.103789
0.10827
0.112224
0.115867
0.116077
-0.000564828
-0.000350714
-0.000133897
8.21831e-05
0.000301569
0.000519161
0.000739967
0.000957816
0.00117911
0.00139544
0.00161537
0.00182835
0.0020458
0.0022549
0.00246822
0.00267222
0.00288078
0.00307979
0.00328204
0.00347621
0.00367351
0.00386333
0.00405716
0.00424666
0.0044406
0.00463935
0.00484814
0.00507202
0.00531682
0.00559255
0.00590716
0.00627516
0.00671629
0.00724807
0.00790384
0.00870524
0.00967288
0.0108455
0.0122537
0.0139533
0.0160157
0.0184984
0.0214588
0.0249657
0.0290848
0.0338615
0.0393316
0.0454975
0.0523332
0.0597716
0.0675921
0.0757769
0.0839814
0.0917907
0.0989031
0.104928
0.109585
0.1137
0.11744
0.11773
-0.00125203
-0.00104356
-0.000833681
-0.000626353
-0.000415771
-0.000207908
3.18529e-06
0.000210502
0.00042027
0.000624186
0.000829312
0.0010274
0.00122674
0.00141811
0.00161068
0.00179482
0.00198121
0.00215878
0.00233775
0.00250858
0.00268083
0.00284466
0.00301074
0.00317104
0.00333396
0.00350021
0.00367482
0.00386306
0.00407112
0.0043084
0.00458531
0.00491311
0.00531762
0.00581191
0.0064324
0.0072005
0.00813747
0.00928425
0.0106732
0.012363
0.0144288
0.016931
0.0199303
0.0234992
0.0277072
0.0326028
0.0382233
0.0445728
0.0516242
0.0593118
0.0674045
0.0758751
0.0843662
0.0924455
0.0997996
0.106031
0.110863
0.11514
0.118974
0.119353
-0.00200164
-0.00179897
-0.00159643
-0.00139675
-0.00119602
-0.000998771
-0.000800045
-0.00060555
-0.000409064
-0.000218757
-2.63776e-05
0.000157734
0.000344565
0.000521445
0.00070041
0.00086811
0.00103782
0.00119571
0.00135385
0.00150139
0.00164872
0.00178572
0.00192315
0.00205315
0.00218387
0.00231646
0.00245564
0.00260712
0.00277671
0.00297506
0.003211
0.00350022
0.00386414
0.00432064
0.00490461
0.00563813
0.00654344
0.00766345
0.00903252
0.0107121
0.0127811
0.015303
0.0183416
0.0219733
0.0262718
0.0312878
0.0370615
0.0435963
0.0508658
0.0588024
0.0671686
0.0759293
0.0847118
0.0930675
0.100669
0.107108
0.112117
0.116556
0.120489
0.120963
-0.00273664
-0.00254188
-0.00234812
-0.00215884
-0.0019684
-0.00178248
-0.00159513
-0.00141313
-0.00123029
-0.00105479
-0.000879698
-0.000713067
-0.000546858
-0.000390137
-0.000234157
-8.83679e-05
5.73274e-05
0.00019208
0.000325386
0.000448115
0.000568928
0.000678495
0.000786649
0.000885868
0.000983908
0.00108219
0.00118532
0.00129913
0.00142986
0.0015874
0.00178329
0.0020298
0.00235456
0.00277124
0.0033174
0.00401521
0.00488753
0.0059797
0.00732803
0.00899705
0.0110693
0.0136117
0.0166912
0.0203884
0.0247802
0.0299215
0.035852
0.0425778
0.0500675
0.0582581
0.0669014
0.0759546
0.0850295
0.0936583
0.101501
0.108145
0.113331
0.117935
0.121966
0.122543
-0.00355872
-0.00337225
-0.00318831
-0.003009
-0.00283073
-0.00265748
-0.00248456
-0.00231715
-0.00214939
-0.00198906
-0.00182829
-0.00167704
-0.00152477
-0.00138382
-0.00124269
-0.00111444
-0.000986453
-0.000872237
-0.000760512
-0.000661687
-0.000566326
-0.000484082
-0.000405015
-0.000336631
-0.000271345
-0.00020747
-0.000140634
-6.46357e-05
2.63141e-05
0.000143369
0.00029644
0.000502325
0.000784312
0.00116079