/*--------------------------------*- C++ -*----------------------------------*\
  =========                 |
  \\      /  F ield         | OpenFOAM: The Open Source CFD Toolbox
   \\    /   O peration     | Website:  https://openfoam.org
    \\  /    A nd           | Version:  6.0
     \\/     M anipulation  |
\*---------------------------------------------------------------------------*/
FoamFile
{
    version     2.0;
    format      ascii;
    class       surfaceScalarField;
    location    "15";
    object      phi;
}
// * * * * * * * * * * * * * * * * * * * * * * * * * * * * * * * * * * * * * //

dimensions      [0 3 -1 0 0 0 0];

internalField   nonuniform List<scalar> 
123526
(
-5.41644e-05
2.30601e-05
5.45512e-05
-5.375e-05
2.49373e-05
-5.3295e-05
2.69677e-05
-5.2808e-05
2.91639e-05
-5.22746e-05
3.15394e-05
-5.1703e-05
3.41091e-05
-5.10783e-05
3.6889e-05
-5.04077e-05
3.98964e-05
-4.9675e-05
4.31492e-05
-4.88873e-05
4.66686e-05
-4.80291e-05
5.0477e-05
-4.71064e-05
5.45978e-05
-4.61026e-05
5.90567e-05
-4.50205e-05
6.38792e-05
-4.38417e-05
6.90968e-05
-4.2573e-05
7.47465e-05
-4.11965e-05
8.08605e-05
-3.9707e-05
8.74701e-05
-3.80882e-05
9.46261e-05
-3.63434e-05
0.000102374
-3.44449e-05
0.000110752
-3.23896e-05
0.000119818
-3.01641e-05
0.000129637
-2.77458e-05
0.000140245
-2.51254e-05
0.000151737
-2.22861e-05
0.000164163
-1.9202e-05
0.000177601
-1.58644e-05
0.00019214
-1.22367e-05
0.000207849
-8.31109e-06
0.000224839
-4.04763e-06
0.000243182
5.67583e-07
0.000263001
5.57229e-06
0.000284382
1.09945e-05
0.000307438
1.6864e-05
0.000332278
2.32303e-05
0.000358992
3.01198e-05
0.000387709
3.75783e-05
0.000418506
4.56527e-05
0.000451465
5.43795e-05
0.000486658
6.38051e-05
0.000524108
7.39799e-05
0.000563801
8.49427e-05
0.00060568
9.67298e-05
0.000649601
0.000109372
0.000695323
0.000122891
0.000742476
0.000137297
0.000790517
0.000152589
0.000838686
0.000168749
0.000885935
0.000185748
0.00093086
0.000203526
0.00097162
0.000221955
0.00100585
0.000240906
0.00103053
0.000260085
0.00104194
0.000279205
0.00103528
0.00029776
0.00100473
0.000315287
0.000942355
0.000331023
0.000839224
0.000344035
0.000677923
0.000438877
0.000338844
-5.34068e-05
2.26778e-05
5.37897e-05
-5.29988e-05
2.45246e-05
-5.2552e-05
2.65221e-05
-5.2075e-05
2.86827e-05
-5.15537e-05
3.10197e-05
-5.09962e-05
3.35476e-05
-5.03879e-05
3.62821e-05
-4.97354e-05
3.92404e-05
-4.90231e-05
4.2439e-05
-4.82569e-05
4.58995e-05
-4.74223e-05
4.96449e-05
-4.65239e-05
5.36972e-05
-4.55463e-05
5.8082e-05
-4.44908e-05
6.28218e-05
-4.33405e-05
6.79491e-05
-4.21005e-05
7.35044e-05
-4.07548e-05
7.95165e-05
-3.92964e-05
8.60093e-05
-3.77112e-05
9.30417e-05
-3.60003e-05
0.000100661
-3.41387e-05
0.00010889
-3.2121e-05
0.000117798
-2.99366e-05
0.000127452
-2.75605e-05
0.000137867
-2.49863e-05
0.000149162
-2.21948e-05
0.000161369
-1.91633e-05
0.000174568
-1.58803e-05
0.000188855
-1.23129e-05
0.00020428
-8.45059e-06
0.000220974
-4.25664e-06
0.000238986
2.8584e-07
0.000258457
5.2133e-06
0.000279453
1.05549e-05
0.000302096
1.63381e-05
0.000326493
2.26116e-05
0.000352715
2.94009e-05
0.000380915
3.67515e-05
0.00041115
4.47088e-05
0.000443501
5.33074e-05
0.000478052
6.25906e-05
0.000514815
7.26051e-05
0.000553774
8.33862e-05
0.000594883
9.49669e-05
0.000638001
0.000107376
0.00068289
0.000120637
0.000729186
0.000134761
0.000776357
0.000149756
0.000823648
0.000165609
0.000870026
0.0001823
0.000914103
0.000199764
0.000954065
0.000217869
0.000987607
0.000236486
0.00101178
0.000255319
0.00102294
0.00027408
0.00101638
0.000292278
0.000986365
0.000309411
0.000925069
0.000324908
0.000823541
0.000334657
0.000668008
0.000442056
0.000331218
-5.25706e-05
2.23e-05
5.29497e-05
-5.21667e-05
2.41162e-05
-5.17243e-05
2.60811e-05
-5.12522e-05
2.82066e-05
-5.07369e-05
3.0506e-05
-5.01867e-05
3.29935e-05
-4.95874e-05
3.56845e-05
-4.89461e-05
3.85956e-05
-4.82475e-05
4.17425e-05
-4.74977e-05
4.51468e-05
-4.66822e-05
4.88317e-05
-4.58057e-05
5.28184e-05
-4.48529e-05
5.71317e-05
-4.38245e-05
6.17915e-05
-4.27041e-05
6.68309e-05
-4.1496e-05
7.22943e-05
-4.01845e-05
7.82066e-05
-3.87622e-05
8.45846e-05
-3.7215e-05
9.14955e-05
-3.55439e-05
9.89871e-05
-3.37239e-05
0.000107071
-3.17498e-05
0.000115821
-2.96108e-05
0.000125313
-2.72822e-05
0.000135536
-2.47577e-05
0.000146637
-2.20183e-05
0.000158628
-1.90415e-05
0.000171591
-1.5816e-05
0.000185628
-1.23094e-05
0.000200772
-8.51115e-06
0.000217174
-4.38489e-06
0.000234858
8.64359e-08
0.000253984
4.93968e-06
0.0002746
1.02019e-05
0.000296833
1.59001e-05
0.000320793
2.20802e-05
0.000346531
2.87668e-05
0.000374224
3.60034e-05
0.000403908
4.38337e-05
0.000435665
5.229e-05
0.000469589
6.14134e-05
0.000505686
7.12481e-05
0.000543933
8.18283e-05
0.000584295
9.31867e-05
0.000626635
0.000105354
0.000670714
0.000118357
0.000716175
0.000132213
0.00076249
0.000146935
0.000808917
0.000162513
0.000854434
0.000178925
0.000897678
0.000196101
0.000936877
0.0002139
0.000969765
0.000232192
0.000993473
0.000250687
0.00100441
0.000269101
0.000997958
0.00028697
0.000968469
0.000303721
0.000908318
0.000318962
0.000808289
0.000329473
0.000657498
0.000442206
0.00032939
-5.18547e-05
2.19304e-05
5.22256e-05
-5.14578e-05
2.37153e-05
-5.10216e-05
2.56464e-05
-5.05544e-05
2.77358e-05
-5.00431e-05
2.99965e-05
-4.94958e-05
3.24427e-05
-4.88991e-05
3.50896e-05
-4.82602e-05
3.79536e-05
-4.75645e-05
4.10492e-05
-4.68183e-05
4.43984e-05
-4.60083e-05
4.80244e-05
-4.5139e-05
5.19475e-05
-4.41961e-05
5.61919e-05
-4.31804e-05
6.07745e-05
-4.2076e-05
6.57293e-05
-4.08872e-05
7.1104e-05
-3.95986e-05
7.69201e-05
-3.82027e-05
8.31869e-05
-3.66857e-05
8.99796e-05
-3.50479e-05
9.73471e-05
-3.32649e-05
0.000105288
-3.13309e-05
0.000113885
-2.92354e-05
0.000123217
-2.69535e-05
0.000133252
-2.4479e-05
0.000144162
-2.17928e-05
0.00015594
-1.88728e-05
0.00016867
-1.57075e-05
0.000182462
-1.2265e-05
0.000197328
-8.53466e-06
0.000213443
-4.48067e-06
0.000230801
-8.55215e-08
0.000249587
4.68586e-06
0.000269828
9.86072e-06
0.000291658
1.54636e-05
0.000315188
2.15395e-05
0.000340452
2.81117e-05
0.000367648
3.52223e-05
0.000396794
4.29136e-05
0.00042797
5.12168e-05
0.000461282
6.01721e-05
0.000496725
6.98231e-05
0.000534276
8.02042e-05
0.000573908
9.13494e-05
0.000615482
0.000103292
0.000658763
0.000116061
0.000703396
0.000129677
0.000748862
0.000144155
0.000794428
0.000159483
0.000839091
0.000175634
0.000881511
0.000192528
0.000919954
0.000210021
0.000952201
0.000227982
0.000975444
0.000246135
0.000986165
0.0002642
0.000979814
0.000281745
0.00095082
0.000298151
0.000891807
0.000313076
0.000793229
0.000324332
0.000646112
0.000440261
0.000326085
-5.11562e-05
2.15727e-05
5.15147e-05
-5.07721e-05
2.33269e-05
-5.03491e-05
2.52246e-05
-4.98949e-05
2.72777e-05
-4.93961e-05
2.94992e-05
-4.88603e-05
3.19032e-05
-4.82741e-05
3.45049e-05
-4.76444e-05
3.73206e-05
-4.6957e-05
4.03638e-05
-4.62182e-05
4.3657e-05
-4.54153e-05
4.72237e-05
-4.45531e-05
5.10832e-05
-4.3618e-05
5.52593e-05
-4.26111e-05
5.97659e-05
-4.15175e-05
6.4638e-05
-4.03415e-05
6.99263e-05
-3.90685e-05
7.56487e-05
-3.76912e-05
8.18076e-05
-3.61964e-05
8.84859e-05
-3.45843e-05
9.57328e-05
-3.28311e-05
0.000103535
-3.09308e-05
0.000111982
-2.88729e-05
0.00012116
-2.6633e-05
0.00013101
-2.42046e-05
0.000141734
-2.15687e-05
0.000153302
-1.87033e-05
0.000165804
-1.55971e-05
0.000179354
-1.22184e-05
0.000193948
-8.55678e-06
0.000209779
-4.57657e-06
0.000226819
-2.61102e-07
0.00024527
4.42501e-06
0.000265142
9.50646e-06
0.000286576
1.50084e-05
0.000309685
2.09741e-05
0.000334484
2.74263e-05
0.000361192
3.44063e-05
0.00038981
4.19555e-05
0.000420417
5.01049e-05
0.000453129
5.88944e-05
0.000487933
6.83677e-05
0.0005248
7.856e-05
0.000563713
8.95065e-05
0.000604534
0.000101242
0.000647027
0.000113796
0.000690843
0.00012719
0.000735469
0.000141437
0.000780186
0.000156521
0.00082401
0.000172409
0.00086563
0.000189016
0.000903355
0.000206195
0.000935003
0.000223818
0.000957837
0.000241623
0.000968355
0.000259338
0.000962123
0.000276556
0.000933604
0.000292653
0.000875735
0.000307207
0.00077869
0.000318574
0.000634776
0.000436957
0.00032198
-5.03655e-05
2.12256e-05
5.07135e-05
-4.99942e-05
2.29517e-05
-4.95865e-05
2.48182e-05
-4.91495e-05
2.68371e-05
-4.86698e-05
2.90211e-05
-4.81541e-05
3.13841e-05
-4.7589e-05
3.39413e-05
-4.69803e-05
3.6709e-05
-4.6314e-05
3.96997e-05
-4.55956e-05
4.29364e-05
-4.48125e-05
4.64432e-05
-4.39693e-05
5.02384e-05
-4.30527e-05
5.43455e-05
-4.2064e-05
5.8776e-05
-4.09885e-05
6.35653e-05
-3.98312e-05
6.87675e-05
-3.85776e-05
7.43973e-05
-3.72213e-05
8.04496e-05
-3.57494e-05
8.70152e-05
-3.41625e-05
9.41439e-05
-3.24373e-05
0.000101811
-3.05682e-05
0.000110111
-2.85449e-05
0.000119136
-2.63434e-05
0.000128807
-2.39575e-05
0.000139348
-2.13684e-05
0.000150712
-1.85545e-05
0.000162989
-1.55044e-05
0.000176303
-1.21871e-05
0.000190629
-8.59202e-06
0.000206183
-4.68447e-06
0.00022291
-4.47448e-07
0.000241032
4.15237e-06
0.000260542
9.14093e-06
0.000281589
1.45416e-05
0.000304283
2.03975e-05
0.000328625
2.67309e-05
0.000354856
3.35825e-05
0.000382956
4.09933e-05
0.000413004
4.89942e-05
0.000445125
5.76249e-05
0.000479299
6.69295e-05
0.000515492
7.69434e-05
0.000553697
8.77025e-05
0.000593773
9.92414e-05
0.000635485
0.00011159
0.000678492
0.000124769
0.000722289
0.000138786
0.00076617
0.000153624
0.000809172
0.000169244
0.000850013
0.000185557
0.000887036
0.000202418
0.000918103
0.000219703
0.000940518
0.000237164
0.000950846
0.000254538
0.000944704
0.000271437
0.000916638
0.00028725
0.000859847
0.000301436
0.000764405
0.000312798
0.00062332
0.000431703
0.000317913
-4.95316e-05
2.08837e-05
4.98742e-05
-4.91678e-05
2.25839e-05
-4.87704e-05
2.44219e-05
-4.83464e-05
2.64094e-05
-4.78826e-05
2.85588e-05
-4.73857e-05
3.08837e-05
-4.68418e-05
3.33989e-05
-4.62566e-05
3.61207e-05
-4.56155e-05
3.90606e-05
-4.49235e-05
4.2242e-05
-4.41677e-05
4.56896e-05
-4.33519e-05
4.94208e-05
-4.2463e-05
5.3459e-05
-4.15016e-05
5.78131e-05
-4.04536e-05
6.25194e-05
-3.93231e-05
6.76355e-05
-3.80967e-05
7.31725e-05
-3.67676e-05
7.91187e-05
-3.53237e-05
8.55723e-05
-3.37655e-05
9.25839e-05
-3.20708e-05
0.000100117
-3.0234e-05
0.000108272
-2.82455e-05
0.000117148
-2.60818e-05
0.000126642
-2.3737e-05
0.000137003
-2.11927e-05
0.000148166
-1.84278e-05
0.000160224
-1.54313e-05
0.000173305
-1.21727e-05
0.000187369
-8.64167e-06
0.000202651
-4.80404e-06
0.000219071
-6.43875e-07
0.00023687
3.87304e-06
0.000256026
8.7705e-06
0.000276691
1.40731e-05
0.00029898
1.98227e-05
0.000322874
2.60414e-05
0.000348635
3.27696e-05
0.000376225
4.00478e-05
0.000405723
4.79067e-05
0.000437264
5.6386e-05
0.000470819
6.55295e-05
0.000506348
7.53728e-05
0.000543853
8.59514e-05
0.000583195
9.72994e-05
0.000624139
0.000109446
0.000666349
0.000122408
0.000709331
0.000136194
0.000752392
0.00015078
0.000794592
0.000166127
0.000834677
0.000182143
0.00087103
0.000198688
0.000901543
0.000215644
0.000923585
0.000232773
0.000933726
0.000249823
0.000927692
0.000266417
0.000900061
0.000281969
0.000844335
0.000295829
0.000750577
0.000307207
0.000611995
0.000425225
0.000313809
-4.87734e-05
2.05423e-05
4.91157e-05
-4.84106e-05
2.22174e-05
-4.80157e-05
2.40284e-05
-4.75961e-05
2.59864e-05
-4.71392e-05
2.81035e-05
-4.66518e-05
3.0393e-05
-4.61205e-05
3.28692e-05
-4.55507e-05
3.55481e-05
-4.49279e-05
3.844e-05
-4.42568e-05
4.15689e-05
-4.35242e-05
4.49596e-05
-4.27335e-05
4.86288e-05
-4.18712e-05
5.25996e-05
-4.09376e-05
5.68785e-05
-3.99182e-05
6.15027e-05
-3.8817e-05
6.65332e-05
-3.76203e-05
7.19779e-05
-3.63215e-05
7.78184e-05
-3.49085e-05
8.41606e-05
-3.3382e-05
9.10556e-05
-3.172e-05
9.84552e-05
-2.99174e-05
0.000106468
-2.79648e-05
0.000115196
-2.58392e-05
0.000124515
-2.35353e-05
0.000134699
-2.1035e-05
0.000145665
-1.8318e-05
0.000157506
-1.53733e-05
0.00017036
-1.21714e-05
0.000184166
-8.70209e-06
0.00019918
-4.93213e-06
0.000215299
-8.45328e-07
0.000232783
3.59049e-06
0.000251589
8.40107e-06
0.000271882
1.36091e-05
0.000293772
1.92565e-05
0.000317224
2.53653e-05
0.000342524
3.1975e-05
0.000369613
3.9126e-05
0.00039857
4.68486e-05
0.00042954
5.5182e-05
0.000462484
6.41697e-05
0.000497359
7.38467e-05
0.000534175
8.42478e-05
0.000572793
9.54063e-05
0.000612981
0.00010735
0.000654408
0.000120093
0.000696589
0.000133641
0.00073885
0.000147971
0.000780268
0.00016304
0.000819619
0.00017876
0.000855314
0.000194994
0.000885284
0.000211631
0.00090693
0.000228446
0.000916885
0.00024519
0.000910923
0.000261498
0.000883709
0.00027681
0.000828971
0.000290391
0.000736921
0.000301709
0.000600607
0.000417571
0.000309262
-4.81619e-05
2.01991e-05
4.85054e-05
-4.77969e-05
2.18485e-05
-4.73997e-05
2.36321e-05
-4.69778e-05
2.5561e-05
-4.65197e-05
2.76467e-05
-4.60322e-05
2.99021e-05
-4.55029e-05
3.23412e-05
-4.49373e-05
3.49795e-05
-4.43217e-05
3.78262e-05
-4.36604e-05
4.09053e-05
-4.29408e-05
4.42419e-05
-4.21657e-05
4.78519e-05
-4.13218e-05
5.1758e-05
-4.04088e-05
5.5964e-05
-3.94124e-05
6.05083e-05
-3.83357e-05
6.54551e-05
-3.71654e-05
7.0809e-05
-3.58943e-05
7.65456e-05
-3.45105e-05
8.27778e-05
-3.30144e-05
8.95577e-05
-3.13844e-05
9.68258e-05
-2.96154e-05
0.000104697
-2.76983e-05
0.000113279
-2.56105e-05
0.000122425
-2.33469e-05
0.000132435
-2.08899e-05
0.000143207
-1.82197e-05
0.000154835
-1.53256e-05
0.000167465
-1.21787e-05
0.000181019
-8.76927e-06
0.00019577
-5.06451e-06
0.000211593
-1.04935e-06
0.000228766
3.30954e-06
0.000247232
8.03554e-06
0.000267156
1.31527e-05
0.000288654
1.87018e-05
0.000311674
2.47044e-05
0.000336519
3.11998e-05
0.000363115
3.82275e-05
0.000391541
4.58175e-05
0.000421948
5.40086e-05
0.000454292
6.28432e-05
0.000488524
7.23557e-05
0.000524663
8.258e-05
0.00056257
9.35477e-05
0.000602015
0.000105285
0.000642674
0.000117805
0.000684073
0.000131112
0.00072555
0.000145179
0.000766205
0.000159969
0.000804839
0.000175395
0.000839897
0.000191325
0.000869339
0.000207657
0.00089062
0.000224173
0.000900385
0.00024063
0.000894506
0.000256668
0.000867696
0.000271757
0.000813927
0.000285099
0.000723619
0.000296225
0.000589548
0.000409773
0.000304154
-4.76867e-05
1.98557e-05
4.80309e-05
-4.73199e-05
2.14781e-05
-4.69199e-05
2.32333e-05
-4.64942e-05
2.51321e-05
-4.60319e-05
2.71858e-05
-4.55401e-05
2.94071e-05
-4.50071e-05
3.18097e-05
-4.44386e-05
3.44084e-05
-4.38219e-05
3.72115e-05
-4.31614e-05
4.02429e-05
-4.24449e-05
4.35279e-05
-4.16756e-05
4.70813e-05
-4.08403e-05
5.09254e-05
-3.99388e-05
5.50616e-05
-3.89566e-05
5.95288e-05
-3.7897e-05
6.43944e-05
-3.67462e-05
6.96603e-05
-3.54972e-05
7.52952e-05
-3.41378e-05
8.14197e-05
-3.26684e-05
8.80866e-05
-3.10673e-05
9.52254e-05
-2.93295e-05
0.000102958
-2.74458e-05
0.000111396
-2.53942e-05
0.000120372
-2.31694e-05
0.00013021
-2.07544e-05
0.000140791
-1.81296e-05
0.00015221
-1.52847e-05
0.000164619
-1.21913e-05
0.000177924
-8.83995e-06
0.000192418
-5.19874e-06
0.00020795
-1.25213e-06
0.000224819
3.03101e-06
0.000242948
7.67609e-06
0.000262513
1.2705e-05
0.000283625
1.81586e-05
0.000306219
2.40581e-05
0.000330618
3.04418e-05
0.00035673
3.73488e-05
0.000384632
4.48086e-05
0.000414487
5.2859e-05
0.00044624
6.15416e-05
0.00047984
7.08898e-05
0.000515314
8.09362e-05
0.000552524
9.17113e-05
0.000591241
0.000103239
0.000631149
0.000115533
0.000671783
0.000128594
0.000712496
0.000142399
0.000752408
0.00015691
0.000790342
0.000172046
0.00082477
0.000187682
0.000853687
0.000203719
0.000874574
0.000219952
0.000884141
0.000236139
0.000878306
0.000251922
0.000851884
0.000266802
0.000799009
0.000279934
0.000710431
0.000290777
0.000578656
0.000401801
0.000298673
-4.7295e-05
1.95151e-05
4.7636e-05
-4.69298e-05
2.11093e-05
-4.65302e-05
2.28348e-05
-4.61035e-05
2.47021e-05
-4.56389e-05
2.67226e-05
-4.51437e-05
2.89088e-05
-4.46067e-05
3.1274e-05
-4.4034e-05
3.38329e-05
-4.34133e-05
3.65926e-05
-4.27497e-05
3.95771e-05
-4.20315e-05
4.28117e-05
-4.12621e-05
4.63103e-05
-4.04291e-05
5.00946e-05
-3.95322e-05
5.41633e-05
-3.85576e-05
5.85561e-05
-3.75081e-05
6.33435e-05
-3.63705e-05
6.85241e-05
-3.51374e-05
7.40605e-05
-3.37969e-05
8.00802e-05
-3.2349e-05
8.6637e-05
-3.07725e-05
9.36495e-05
-2.90621e-05
0.000101245
-2.72087e-05
0.000109542
-2.51905e-05
0.000118353
-2.30023e-05
0.000128022
-2.06272e-05
0.000138415
-1.8046e-05
0.000149629
-1.52487e-05
0.000161821
-1.22072e-05
0.000174882
-8.91239e-06
0.000189122
-5.33269e-06
0.000204369
-1.45362e-06
0.000220939
2.75719e-06
0.000238739
7.32247e-06
0.000257948
1.22656e-05
0.000278682
1.76258e-05
0.000300857
2.34239e-05
0.000324818
2.96978e-05
0.000350454
3.64856e-05
0.000377843
4.38162e-05
0.000407156
5.17265e-05
0.00043833
6.02573e-05
0.00047131
6.94408e-05
0.000506132
7.93084e-05
0.000542658
8.98894e-05
0.000580663
0.000101207
0.000619835
0.000113273
0.00065972
0.000126089
0.000699686
0.000139632
0.000738868
0.000153869
0.000776114
0.000168721
0.000809924
0.000184072
0.000838319
0.000199829
0.000858835
0.000215792
0.000868198
0.000231722
0.000862417
0.000247262
0.000836374
0.000261939
0.000784381
0.000274884
0.000697531
0.00028543
0.000568184
0.000394264
0.000293102
-4.69274e-05
1.91808e-05
4.72627e-05
-4.65675e-05
2.07463e-05
-4.61726e-05
2.24412e-05
-4.57494e-05
2.42759e-05
-4.52874e-05
2.6262e-05
-4.47933e-05
2.84118e-05
-4.42563e-05
3.07385e-05
-4.36825e-05
3.32567e-05
-4.30602e-05
3.59723e-05
-4.23946e-05
3.89097e-05
-4.16746e-05
4.20942e-05
-4.09042e-05
4.55386e-05
-4.00711e-05
4.92643e-05
-3.9176e-05
5.32673e-05
-3.82051e-05
5.75879e-05
-3.71618e-05
6.22993e-05
-3.60329e-05
6.73972e-05
-3.48114e-05
7.28378e-05
-3.34856e-05
7.87557e-05
-3.20554e-05
8.52052e-05
-3.04997e-05
9.20945e-05
-2.88132e-05
9.95574e-05
-2.6987e-05
0.000107717
-2.49995e-05
0.000116364
-2.28454e-05
0.000125868
-2.05081e-05
0.000136076
-1.79685e-05
0.000147089
-1.52169e-05
0.000159069
-1.22257e-05
0.00017189
-8.98578e-06
0.000185881
-5.46628e-06
0.000200848
-1.6522e-06
0.000217125
2.4865e-06
0.0002346
6.97459e-06
0.000253462
1.1833e-05
0.000273824
1.71012e-05
0.000295588
2.27993e-05
0.000319119
2.89644e-05
0.000344288
3.56338e-05
0.000371172
4.28357e-05
0.000399953
5.06063e-05
0.000430558
5.89853e-05
0.00046293
6.80039e-05
0.000497113
7.76925e-05
0.00053297
8.80793e-05
0.000570277
9.91867e-05
0.00060873
0.000111026
0.000647884
0.000123599
0.000687119
0.000136887
0.000725589
0.000150856
0.000762159
0.000165435
0.000795355
0.000180514
0.00082323
0.000196002
0.000843344
0.000211707
0.000852488
0.000227392
0.000846726
0.000242697
0.000821049
0.000257172
0.000769876
0.000269946
0.000684713
0.000280238
0.000557854
0.000386789
0.000287653
-4.65435e-05
1.88545e-05
4.68697e-05
-4.61922e-05
2.03914e-05
-4.58057e-05
2.20554e-05
-4.53903e-05
2.38572e-05
-4.49353e-05
2.58082e-05
-4.44472e-05
2.79205e-05
-4.39153e-05
3.02077e-05
-4.33453e-05
3.26839e-05
-4.27259e-05
3.53545e-05
-4.20623e-05
3.82438e-05
-4.13441e-05
4.13777e-05
-4.0575e-05
4.47678e-05
-3.97439e-05
4.84352e-05
-3.88511e-05
5.23732e-05
-3.78842e-05
5.66226e-05
-3.6846e-05
6.12598e-05
-3.57245e-05
6.6277e-05
-3.45126e-05
7.16243e-05
-3.3199e-05
7.7443e-05
-3.17837e-05
8.37882e-05
-3.02462e-05
9.05575e-05
-2.85811e-05
9.78907e-05
-2.67796e-05
0.000105915
-2.48203e-05
0.000114404
-2.26981e-05
0.000123746
-2.03965e-05
0.000133774
-1.78968e-05
0.000144589
-1.51892e-05
0.00015636
-1.22467e-05
0.000168947
-9.06019e-06
0.000182694
-5.59918e-06
0.000197386
-1.84963e-06
0.000213375
2.21977e-06
0.000230533
6.63085e-06
0.000249052
1.14061e-05
0.00026905
1.65832e-05
0.00029041
2.2182e-05
0.000313519
2.82389e-05
0.00033823
3.47905e-05
0.00036462
4.18643e-05
0.000392879
4.94956e-05
0.000422927
5.77232e-05
0.000454703
6.65775e-05
0.00048826
7.60881e-05
0.000523461
8.62823e-05
0.000560085
9.71821e-05
0.000597833
0.000108799
0.00063627
0.000121136
0.000674788
0.000134174
0.000712553
0.000147885
0.000748455
0.000162203
0.000781042
0.00017702
0.000808395
0.000192252
0.000828125
0.000207709
0.000837051
0.000223157
0.000831318
0.000238234
0.000806003
0.000252506
0.000755652
0.000265116
0.000672148
0.000275219
0.000547829
0.000379707
0.000282433
-4.61203e-05
1.85375e-05
4.6438e-05
-4.57784e-05
2.00465e-05
-4.54022e-05
2.16802e-05
-4.49971e-05
2.34493e-05
-4.45527e-05
2.5365e-05
-4.40747e-05
2.74398e-05
-4.35525e-05
2.96868e-05
-4.29913e-05
3.21204e-05
-4.23801e-05
3.47451e-05
-4.17236e-05
3.75856e-05
-4.10118e-05
4.06681e-05
-4.02485e-05
4.40034e-05
-3.94228e-05
4.76121e-05
-3.85357e-05
5.14852e-05
-3.75748e-05
5.56642e-05
-3.65437e-05
6.02278e-05
-3.54304e-05
6.51655e-05
-3.42286e-05
7.04212e-05
-3.29272e-05
7.61429e-05
-3.15265e-05
8.2386e-05
-3.00062e-05
8.9038e-05
-2.83613e-05
9.62443e-05
-2.65831e-05
0.000104138
-2.46507e-05
0.00011247
-2.25589e-05
0.000121655
-2.02916e-05
0.000131506
-1.78303e-05
0.000142128
-1.51654e-05
0.000153695
-1.22701e-05
0.000166051
-9.13568e-06
0.000179559
-5.73217e-06
0.000193982
-2.04502e-06
0.000209687
1.9547e-06
0.000226533
6.29082e-06
0.000244718
1.09834e-05
0.000264358
1.60702e-05
0.000285323
2.15705e-05
0.000308017
2.752e-05
0.000332279
3.39545e-05
0.000358185
4.09009e-05
0.000385931
4.83938e-05
0.000415433
5.64712e-05
0.000446625
6.51628e-05
0.000479568
7.44975e-05
0.000514126
8.45023e-05
0.000550081
9.51988e-05
0.000587139
0.000106599
0.000624873
0.000118706
0.000662687
0.000131505
0.000699762
0.000144969
0.000735005
0.000159036
0.000766987
0.000173605
0.00079382
0.000188591
0.000813139
0.000203809
0.000821832
0.000219025
0.000816099
0.000233878
0.000791137
0.000247943
0.000741564
0.000260393
0.000659662
0.000270364
0.000537828
0.000372573
0.000277449
-4.56533e-05
1.82293e-05
4.59617e-05
-4.53214e-05
1.97113e-05
-4.49558e-05
2.13156e-05
-4.45622e-05
2.30527e-05
-4.41298e-05
2.49338e-05
-4.36641e-05
2.69712e-05
-4.31543e-05
2.91781e-05
-4.26055e-05
3.1569e-05
-4.20062e-05
3.41474e-05
-4.13612e-05
3.69386e-05
-4.06604e-05
3.9969e-05
-3.99075e-05
4.32489e-05
-3.9092e-05
4.67985e-05
-3.82146e-05
5.06065e-05
-3.72636e-05
5.47149e-05
-3.62426e-05
5.92055e-05
-3.51402e-05
6.40645e-05
-3.39503e-05
6.92299e-05
-3.26624e-05
7.4856e-05
-3.12769e-05
8.09989e-05
-2.97742e-05
8.75359e-05
-2.81494e-05
9.46181e-05
-2.63942e-05
0.000102383
-2.4488e-05
0.000110563
-2.24259e-05
0.000119593
-2.01919e-05
0.000129271
-1.7768e-05
0.000139704
-1.51446e-05
0.000151071
-1.22956e-05
0.000163202
-9.21222e-06
0.000176475
-5.8649e-06
0.000190634
-2.24009e-06
0.000206062
1.69239e-06
0.000222603
5.95337e-06
0.000240458
1.05644e-05
0.000259747
1.55617e-05
0.000280325
2.09644e-05
0.000302614
2.68073e-05
0.000326435
3.31257e-05
0.000351866
3.99459e-05
0.000379111
4.7302e-05
0.000408078
5.52312e-05
0.000438697
6.37626e-05
0.000471038
7.2925e-05
0.000504966
8.27447e-05
0.000540263
9.32435e-05
0.000576643
0.000104434
0.000613685
0.00011632
0.000650804
0.000128889
0.000687195
0.000142118
0.000721783
0.000155945
0.000753161
0.000170276
0.000779472
0.000185025
0.000798399
0.000200011
0.000806866
0.000215
0.000801148
0.000229629
0.000776539
0.000243483
0.000727757
0.000255771
0.00064742
0.000265649
0.00052803
0.000365687
0.000272664
-4.51441e-05
1.79297e-05
4.54449e-05
-4.48212e-05
1.93857e-05
-4.44661e-05
2.09617e-05
-4.40839e-05
2.26679e-05
-4.36641e-05
2.45153e-05
-4.32117e-05
2.65163e-05
-4.2716e-05
2.86838e-05
-4.21815e-05
3.10323e-05
-4.15969e-05
3.35647e-05
-4.09666e-05
3.63067e-05
-4.02801e-05
3.92849e-05
-3.95414e-05
4.25091e-05
-3.87396e-05
4.59993e-05
-3.78758e-05
4.9742e-05
-3.69382e-05
5.37799e-05
-3.59309e-05
5.81973e-05
-3.48424e-05
6.29779e-05
-3.36673e-05
6.80536e-05
-3.23952e-05
7.35852e-05
-3.1027e-05
7.96292e-05
-2.95433e-05
8.60529e-05
-2.79398e-05
9.30131e-05
-2.62081e-05
0.000100652
-2.43285e-05
0.000108682
-2.2296e-05
0.000117561
-2.00951e-05
0.00012707
-1.77081e-05
0.000137317
-1.51258e-05
0.000148488
-1.23223e-05
0.000160398
-9.28915e-06
0.000173441
-5.99747e-06
0.000187341
-2.43321e-06
0.000202498
1.43136e-06
0.000218739
5.61912e-06
0.000236272
1.01491e-05
0.000255218
1.50579e-05
0.000275416
2.03639e-05
0.000297307
2.61015e-05
0.000320697
3.23053e-05
0.000345661
3.90013e-05
0.000372414
4.62227e-05
0.000400856
5.40064e-05
0.000430913
6.23811e-05
0.000462663
7.13752e-05
0.000495972
8.1015e-05
0.000530624
9.13225e-05
0.000566337
0.00010231
0.0006027
0.000113985
0.000639135
0.000126334
0.000674853
0.000139337
0.000708795
0.000152936
0.000739575
0.000167037
0.000765367
0.000181557
0.00078388
0.000196315
0.000792108
0.000211079
0.000786383
0.000225486
0.00076212
0.000239126
0.000714097
0.000251247
0.000635267
0.000261048
0.000518202
0.000358673
0.000268021
-4.46003e-05
1.76374e-05
4.48925e-05
-4.42863e-05
1.90685e-05
-4.3941e-05
2.06172e-05
-4.35697e-05
2.22935e-05
-4.31618e-05
2.41085e-05
-4.27224e-05
2.6074e-05
-4.22407e-05
2.82031e-05
-4.17211e-05
3.05101e-05
-4.11522e-05
3.29972e-05
-4.05379e-05
3.56903e-05
-3.98681e-05
3.86167e-05
-3.91459e-05
4.17854e-05
-3.8361e-05
4.52161e-05
-3.75139e-05
4.88935e-05
-3.65933e-05
5.28609e-05
-3.56027e-05
5.72054e-05
-3.45314e-05
6.19079e-05
-3.33738e-05
6.68946e-05
-3.21202e-05
7.23325e-05
-3.07713e-05
7.82787e-05
-2.93085e-05
8.45907e-05
-2.77276e-05
9.14307e-05
-2.60207e-05
9.89451e-05
-2.41684e-05
0.000106829
-2.21661e-05
0.000115559
-1.99986e-05
0.000124901
-1.76486e-05
0.000134967
-1.5107e-05
0.000145946
-1.23488e-05
0.000157639
-9.3654e-06
0.000170458
-6.12849e-06
0.000184103
-2.62504e-06
0.000198994
1.17389e-06
0.000214942
5.28816e-06
0.00023216
9.73846e-06
0.000250769
1.45598e-05
0.000270594
1.97705e-05
0.000292096
2.54043e-05
0.000315063
3.14954e-05
0.00033957
3.80693e-05
0.000365841
4.51589e-05
0.000393766
5.28004e-05
0.000423272
6.10225e-05
0.000454442
6.98532e-05
0.000487143
7.93188e-05
0.00052116
8.94417e-05
0.000556217
0.000100235
0.000591909
0.000111706
0.000627668
0.000123845
0.000662716
0.00013663
0.000696015
0.000150009
0.000726198
0.000163888
0.00075147
0.000178184
0.00076959
0.000192718
0.000777591
0.000207258
0.000771878
0.000221443
0.000747965
0.000234866
0.00070072
0.000246813
0.000623364
0.000256537
0.000508559
0.000351861
0.000263472
-4.4027e-05
1.73522e-05
4.43131e-05
-4.37203e-05
1.87592e-05
-4.33839e-05
2.02818e-05
-4.30223e-05
2.19295e-05
-4.26257e-05
2.37131e-05
-4.21986e-05
2.56445e-05
-4.17307e-05
2.77365e-05
-4.12258e-05
3.00032e-05
-4.06729e-05
3.2446e-05
-4.00753e-05
3.50912e-05
-3.9423e-05
3.79665e-05
-3.87189e-05
4.10803e-05
-3.79525e-05
4.44521e-05
-3.71244e-05
4.80646e-05
-3.62229e-05
5.19618e-05
-3.52519e-05
5.62336e-05
-3.42004e-05
6.08582e-05
-3.30633e-05
6.57563e-05
-3.18308e-05
7.11012e-05
-3.05038e-05
7.69504e-05
-2.90642e-05
8.31518e-05
-2.7508e-05
8.98732e-05
-2.58276e-05
9.7265e-05
-2.4004e-05
0.000105004
-2.20328e-05
0.000113588
-1.98994e-05
0.000122767
-1.75868e-05
0.000132654
-1.50862e-05
0.000143445
-1.23731e-05
0.000154926
-9.43926e-06
0.000167523
-6.25696e-06
0.00018092
-2.81283e-06
0.00019555
9.19637e-07
0.00021121
4.9624e-06
0.000228119
9.33369e-06
0.000246399
1.40689e-05
0.000265859
1.91858e-05
0.000286978
2.47178e-05
0.00030953
3.06985e-05
0.000333589
3.7153e-05
0.000359386
4.4114e-05
0.000386805
5.16172e-05
0.000415769
5.96909e-05
0.000446369
6.83632e-05
0.000478471
7.76605e-05
0.000511864
8.76052e-05
0.000546274
9.82114e-05
0.000581305
0.000109487
0.000616398
0.000121422
0.000650788
0.000133999
0.000683452
0.000147164
0.000713046
0.000160827
0.000737805
0.000174903
0.000755515
0.000189215
0.00076328
0.000203531
0.000757562
0.000217493
0.000733994
0.000230696
0.0006875
0.000242464
0.000611569
0.000252096
0.000498904
0.000344941
0.000258979
-4.34328e-05
1.70729e-05
4.37125e-05
-4.31331e-05
1.84567e-05
-4.28045e-05
1.9954e-05
-4.24517e-05
2.1574e-05
-4.2065e-05
2.33275e-05
-4.16491e-05
2.5226e-05
-4.11937e-05
2.72821e-05
-4.07026e-05
2.95098e-05
-4.01648e-05
3.19096e-05
-3.95837e-05
3.45082e-05
-3.89491e-05
3.73335e-05
-3.82636e-05
4.03933e-05
-3.75167e-05
4.3707e-05
-3.67087e-05
4.72553e-05
-3.58282e-05
5.1083e-05
-3.48785e-05
5.52827e-05
-3.3849e-05
5.98299e-05
-3.27343e-05
6.46402e-05
-3.1525e-05
6.98928e-05
-3.0222e-05
7.56459e-05
-2.88075e-05
8.1738e-05
-2.72778e-05
8.8342e-05
-2.56253e-05
9.5613e-05
-2.38319e-05
0.000103209
-2.18931e-05
0.000111649
-1.97946e-05
0.000120668
-1.75201e-05
0.00013038
-1.5061e-05
0.000140986
-1.23932e-05
0.000152258
-9.50878e-06
0.000164639
-6.3806e-06
0.000177792
-2.99626e-06
0.000192165
6.71946e-07
0.000207544
4.64297e-06
0.00022415
8.93672e-06
0.000242106
1.35872e-05
0.000261209
1.86121e-05
0.000281953
2.40444e-05
0.000304097
2.99172e-05
0.000327716
3.62554e-05
0.000353048
4.30911e-05
0.00037997
5.04599e-05
0.000408401
5.83899e-05
0.00043844
6.69089e-05
0.000469954
7.60435e-05
0.000502731
8.58163e-05
0.000536505
9.62417e-05
0.000570882
0.000107328
0.000605315
0.000119068
0.000639051
0.000131441
0.000671084
0.000144398
0.00070009
0.000157849
0.000724337
0.000171707
0.00074166
0.000185798
0.000749205
0.00019989
0.000743502
0.000213628
0.000720286
0.00022661
0.000674562
0.000238192
0.000600031
0.000247714
0.000489462
0.000338252
0.000254524
-4.28226e-05
1.67994e-05
4.30974e-05
-4.25289e-05
1.81608e-05
-4.22073e-05
1.96336e-05
-4.18625e-05
2.1227e-05
-4.1485e-05
2.29514e-05
-4.10794e-05
2.48181e-05
-4.06356e-05
2.68396e-05
-4.01575e-05
2.90297e-05
-3.96341e-05
3.13879e-05
-3.90685e-05
3.39413e-05
-3.84509e-05
3.67179e-05
-3.77835e-05
3.9725e-05
-3.7056e-05
4.29819e-05
-3.62684e-05
4.64671e-05
-3.54092e-05
5.02261e-05
-3.44819e-05
5.43545e-05
-3.34753e-05
5.88252e-05
-3.23847e-05
6.35485e-05
-3.12002e-05
6.87095e-05
-2.9923e-05
7.43673e-05
-2.85355e-05
8.03511e-05
-2.70339e-05
8.68391e-05
-2.54111e-05
9.39906e-05
-2.36492e-05
0.000101446
-2.1744e-05
0.000109744
-1.96816e-05
0.000118605
-1.74459e-05
0.000128144
-1.50287e-05
0.000138569
-1.24066e-05
0.000149635
-9.57176e-06
0.000161804
-6.49777e-06
0.000174717
-3.1719e-06
0.00018884
4.31162e-07
0.000203941
4.3325e-06
0.000220251
8.5496e-06
0.00023789
1.31169e-05
0.000256641
1.80517e-05
0.000277017
2.33866e-05
0.000298762
2.91542e-05
0.000321948
3.53791e-05
0.000346822
4.20932e-05
0.000373256
4.93315e-05
0.000401163
5.71221e-05
0.00043065
6.54926e-05
0.000461584
7.44698e-05
0.000493755
8.40761e-05
0.0005269
9.43266e-05
0.000560634
0.00010523
0.000594417
0.000116779
0.000627509
0.000128954
0.000658921
0.000141707
0.000687351
0.000154949
0.000711096
0.00016859
0.000728019
0.00018246
0.000735336
0.000196326
0.000729636
0.00020984
0.000706764
0.000222599