/*--------------------------------*- C++ -*----------------------------------*\
  =========                 |
  \\      /  F ield         | OpenFOAM: The Open Source CFD Toolbox
   \\    /   O peration     | Website:  https://openfoam.org
    \\  /    A nd           | Version:  6.0
     \\/     M anipulation  |
\*---------------------------------------------------------------------------*/
FoamFile
{
    version     2.0;
    format      ascii;
    class       volVectorField;
    location    "15";
    object      U;
}
// * * * * * * * * * * * * * * * * * * * * * * * * * * * * * * * * * * * * * //

dimensions      [0 1 -1 0 0 0 0];

internalField   nonuniform List<vector> 
62000
(
(0.984729 0.174485 -3.42739e-21)
(0.984722 0.174467 2.87727e-21)
(0.984713 0.174446 3.01101e-21)
(0.984704 0.174427 -1.34105e-20)
(0.984695 0.174409 -1.56525e-20)
(0.984688 0.17439 5.46256e-20)
(0.984681 0.174373 -6.11164e-20)
(0.984676 0.174354 3.60426e-20)
(0.984673 0.174335 -1.72822e-20)
(0.984671 0.174316 -9.01294e-20)
(0.984672 0.174296 -1.24886e-20)
(0.984673 0.174276 1.29938e-19)
(0.984676 0.174256 2.73253e-20)
(0.98468 0.174237 -9.67622e-20)
(0.984685 0.174218 1.54207e-19)
(0.98469 0.174199 -8.29031e-20)
(0.984695 0.174183 8.85195e-20)
(0.9847 0.174167 -1.05026e-19)
(0.984706 0.174153 5.33659e-20)
(0.984711 0.174141 -1.67766e-19)
(0.984716 0.17413 2.22707e-19)
(0.984721 0.17412 6.86219e-20)
(0.984726 0.174112 1.01563e-19)
(0.98473 0.174106 -4.59541e-19)
(0.984734 0.174101 1.7136e-19)
(0.984738 0.174097 -1.09582e-19)
(0.984741 0.174095 -2.81362e-21)
(0.984744 0.174094 -9.35964e-20)
(0.984745 0.174095 2.90697e-19)
(0.984745 0.174098 -1.67938e-19)
(0.984744 0.174104 4.11305e-19)
(0.984741 0.174112 -8.66173e-19)
(0.984736 0.174123 7.99541e-20)
(0.984727 0.174132 -2.95745e-19)
(0.984712 0.17414 -9.71042e-20)
(0.984691 0.174147 -3.02394e-19)
(0.984663 0.174148 -9.60039e-20)
(0.984629 0.174138 -1.01567e-19)
(0.984587 0.174114 2.96761e-19)
(0.984536 0.17407 1.41713e-18)
(0.984473 0.174005 -3.46165e-19)
(0.984398 0.173913 -2.01884e-18)
(0.984308 0.173793 -3.23942e-18)
(0.9842 0.173644 1.77614e-18)
(0.98407 0.173465 5.34299e-19)
(0.983913 0.173257 -2.56132e-18)
(0.983723 0.173018 5.78381e-19)
(0.983493 0.172737 -1.06881e-18)
(0.983222 0.172398 -4.99874e-18)
(0.982909 0.17197 -1.16577e-18)
(0.98257 0.171416 -5.97473e-19)
(0.982212 0.170719 -7.85348e-18)
(0.981851 0.169826 1.09481e-18)
(0.981526 0.168724 8.85689e-18)
(0.981226 0.167323 2.31358e-18)
(0.980985 0.165536 7.88005e-18)
(0.980803 0.162935 -9.34479e-19)
(0.98074 0.159327 -1.54522e-18)
(0.981347 0.151767 3.58708e-18)
(0.962187 0.134969 6.88686e-19)
(0.984781 0.1751 -9.18009e-22)
(0.984799 0.175126 8.92051e-21)
(0.984808 0.175127 3.81418e-21)
(0.984809 0.175134 -1.63403e-20)
(0.984802 0.175143 6.90765e-21)
(0.984789 0.175152 -4.87134e-20)
(0.98477 0.175163 4.5118e-20)
(0.984748 0.175173 2.67888e-20)
(0.984724 0.175183 -5.08111e-20)
(0.984699 0.175192 2.06099e-21)
(0.984675 0.1752 5.11557e-20)
(0.984652 0.175206 3.74081e-22)
(0.984632 0.175211 1.55884e-20)
(0.984615 0.175213 -1.33697e-19)
(0.984601 0.175213 2.73957e-19)
(0.98459 0.175212 -2.45915e-19)
(0.984582 0.17521 1.17883e-19)
(0.984576 0.175205 -2.50072e-20)
(0.984573 0.175201 -7.05722e-20)
(0.984571 0.175193 2.0002e-19)
(0.984572 0.175186 -3.21034e-19)
(0.984573 0.175177 1.90171e-19)
(0.984576 0.175167 -2.48701e-19)
(0.984579 0.175154 1.49575e-19)
(0.984583 0.175141 1.43343e-19)
(0.984586 0.175125 -9.61447e-20)
(0.984591 0.175108 -1.81251e-21)
(0.984592 0.175087 1.10368e-19)
(0.984594 0.175065 9.59267e-20)
(0.984592 0.175041 -2.06171e-19)
(0.984592 0.17502 4.25842e-19)
(0.984588 0.174997 9.18933e-20)
(0.984582 0.174967 2.84234e-19)
(0.98457 0.174914 2.40497e-20)
(0.984545 0.17485 8.22933e-20)
(0.984507 0.174777 -8.78584e-20)
(0.984458 0.17469 -2.7785e-19)
(0.9844 0.17458 -1.34876e-19)
(0.984332 0.174442 -7.964e-19)
(0.984249 0.174275 -9.34847e-19)
(0.98415 0.174079 7.38645e-19)
(0.984029 0.173858 4.41984e-19)
(0.983881 0.173615 3.4087e-18)
(0.983699 0.173356 2.07004e-19)
(0.983471 0.173085 -5.36588e-18)
(0.983188 0.172793 2.14329e-18)
(0.982836 0.172464 1.78241e-18)
(0.982411 0.172057 2.12575e-18)
(0.981918 0.171516 4.23143e-19)
(0.981371 0.170783 7.97576e-20)
(0.980817 0.169799 3.63176e-18)
(0.980263 0.1686 9.82736e-18)
(0.979747 0.167134 -6.62932e-18)
(0.97932 0.165425 -1.60682e-17)
(0.978938 0.163338 -3.87439e-18)
(0.97861 0.160748 -2.63856e-18)
(0.978386 0.156865 -6.22933e-18)
(0.977946 0.151641 -3.17687e-18)
(0.980207 0.141062 5.29876e-18)
(0.956794 0.122679 2.12619e-18)
(0.984761 0.1754 -4.4414e-21)
(0.984813 0.175457 -6.68017e-22)
(0.984862 0.17548 6.79439e-22)
(0.984905 0.1755 3.2712e-21)
(0.98494 0.175523 9.50259e-21)
(0.984963 0.175544 -9.10583e-21)
(0.984974 0.175567 4.97853e-20)
(0.984973 0.175591 -2.3811e-20)
(0.984961 0.175616 -1.30479e-20)
(0.984939 0.175642 -8.26577e-20)
(0.984909 0.17567 7.05403e-20)
(0.984874 0.175698 5.31446e-21)
(0.984835 0.175726 -1.68671e-20)
(0.984794 0.175754 4.5617e-20)
(0.984753 0.175781 -7.94467e-20)
(0.984714 0.175807 2.45922e-22)
(0.984677 0.175833 -3.8345e-20)
(0.984643 0.175855 4.03236e-23)
(0.984613 0.175876 9.16855e-20)
(0.984586 0.175893 -1.42959e-19)
(0.984562 0.175907 9.05207e-20)
(0.984542 0.175915 3.63657e-19)
(0.984524 0.17592 -4.56195e-20)
(0.984508 0.175917 -5.26619e-19)
(0.984496 0.17591 2.7547e-19)
(0.984482 0.175894 -1.55303e-19)
(0.984472 0.175873 2.57673e-19)
(0.984459 0.175841 -1.58063e-19)
(0.98445 0.175802 -3.26277e-19)
(0.984436 0.175754 3.58042e-19)
(0.984426 0.175705 -2.59448e-19)
(0.984413 0.175647 3.5795e-19)
(0.984402 0.175566 -1.00596e-18)
(0.984385 0.175448 8.95191e-19)
(0.984357 0.175309 -4.77918e-19)
(0.984315 0.175161 1.94499e-19)
(0.984265 0.174997 1.48017e-19)
(0.984211 0.174811 -1.58793e-20)
(0.98415 0.174601 -4.90541e-20)
(0.98408 0.174372 9.62597e-19)
(0.983997 0.17413 -3.87585e-19)
(0.983896 0.173884 6.10428e-19)
(0.983771 0.173642 -2.20328e-18)
(0.983612 0.173412 -1.09567e-18)
(0.983406 0.173195 1.1781e-18)
(0.983142 0.172972 -4.14544e-18)
(0.982809 0.17271 5.50816e-19)
(0.982408 0.172346 -3.60462e-18)
(0.981955 0.171811 5.07532e-18)
(0.981473 0.171048 1.31448e-18)
(0.981032 0.170022 7.10202e-19)
(0.980624 0.168843 -1.75712e-19)
(0.980307 0.167531 2.90574e-18)
(0.980116 0.166169 2.18209e-19)
(0.979998 0.164687 -5.89908e-18)
(0.979876 0.163001 -3.17951e-18)
(0.97986 0.160311 -2.35731e-18)
(0.978977 0.156552 -7.48318e-18)
(0.98221 0.149386 -5.31395e-19)
(0.965168 0.141815 7.76653e-19)
(0.984616 0.176272 -4.41015e-21)
(0.984637 0.176313 1.36469e-20)
(0.984671 0.176334 -2.06138e-21)
(0.984718 0.176341 -1.44271e-20)
(0.984771 0.176347 2.20647e-20)
(0.984826 0.176347 3.87824e-20)
(0.984878 0.176344 -5.08674e-20)
(0.984921 0.17634 5.63937e-21)
(0.984954 0.176335 1.83318e-20)
(0.984974 0.176332 3.88251e-20)
(0.984981 0.176331 -7.21674e-20)
(0.984975 0.176333 -2.27963e-20)
(0.984956 0.176338 -2.60009e-20)
(0.984928 0.176347 1.19182e-19)
(0.984891 0.17636 -8.0748e-20)
(0.984848 0.176376 1.92425e-19)
(0.984802 0.176397 -2.36307e-19)
(0.984753 0.176418 -3.59403e-20)
(0.984704 0.176441 2.58256e-19)
(0.984655 0.176462 -9.09898e-20)
(0.984608 0.176484 -3.39598e-20)
(0.984563 0.176501 -3.7252e-20)
(0.98452 0.176514 -3.46994e-19)
(0.98448 0.176521 2.00539e-19)
(0.984442 0.176521 -9.52304e-20)
(0.984405 0.17651 1.53693e-19)
(0.984371 0.176492 7.36938e-20)
(0.984336 0.176458 3.75102e-19)
(0.984304 0.176415 -2.38328e-19)
(0.98427 0.176357 -3.21437e-19)
(0.98424 0.176294 5.20884e-19)
(0.984209 0.176218 -4.35527e-19)
(0.984181 0.176106 8.16444e-19)
(0.984151 0.175949 -4.97089e-19)
(0.984112 0.175771 2.02652e-19)
(0.984063 0.175584 3.51732e-19)
(0.984008 0.175384 -1.53408e-19)
(0.98395 0.175165 1.96568e-19)
(0.98389 0.17493 -9.61529e-20)
(0.983824 0.174683 2.99837e-19)
(0.983749 0.174432 -8.47787e-19)
(0.98366 0.174189 2.36266e-19)
(0.983548 0.173963 5.17365e-19)
(0.983405 0.173754 1.2942e-18)
(0.983217 0.173559 1.68905e-18)
(0.982974 0.173348 3.64712e-19)
(0.982662 0.173075 2.68466e-18)
(0.982286 0.172666 2.92569e-18)
(0.981862 0.17204 3.42556e-18)
(0.981413 0.171149 -2.48888e-18)
(0.981014 0.169969 -3.33722e-18)
(0.980643 0.168655 2.24154e-18)
(0.980376 0.16727 3.0605e-18)
(0.980249 0.165921 6.97582e-18)
(0.980242 0.164592 4.31509e-18)
(0.98022 0.163231 7.42833e-18)
(0.980383 0.161088 1.29075e-17)
(0.979249 0.157818 -1.24077e-18)
(0.982728 0.152486 -7.15054e-18)
(0.970499 0.148683 -5.31557e-18)
(0.984608 0.17722 8.47961e-21)
(0.984551 0.177264 -2.81821e-21)
(0.984514 0.177294 4.89667e-21)
(0.9845 0.177311 -6.88856e-21)
(0.984508 0.177321 1.58162e-20)
(0.984535 0.177322 -7.78446e-21)
(0.984577 0.177315 4.39869e-21)
(0.984629 0.177301 -6.49949e-20)
(0.984684 0.17728 5.4924e-20)
(0.984737 0.177256 -1.11902e-19)
(0.984784 0.177231 1.24154e-19)
(0.98482 0.177205 -1.51372e-20)
(0.984845 0.177181 -3.42023e-20)
(0.984856 0.177159 -1.60929e-20)
(0.984854 0.177143 -3.73288e-21)
(0.984839 0.177131 -1.66097e-19)
(0.984812 0.177125 5.97501e-21)
(0.984776 0.177123 1.84711e-19)
(0.984731 0.177127 -6.14217e-20)
(0.984681 0.177132 -6.62999e-20)
(0.984626 0.177141 1.11686e-19)
(0.984568 0.177148 -5.73262e-20)
(0.984509 0.177155 2.42984e-19)
(0.984448 0.177156 1.37792e-19)
(0.984388 0.177153 1.08674e-19)
(0.984327 0.177139 -3.33712e-19)
(0.984268 0.177118 -4.80142e-20)
(0.984209 0.177081 -2.75007e-19)
(0.984152 0.177033 5.13838e-20)
(0.984093 0.176969 -9.80623e-20)
(0.984038 0.176898 -3.94433e-20)
(0.983981 0.176812 3.25734e-19)
(0.983931 0.176684 -8.17765e-19)
(0.983883 0.176511 -3.68894e-20)
(0.983828 0.176316 -4.1768e-19)
(0.983766 0.176114 -2.03709e-19)
(0.983699 0.175901 5.65829e-20)
(0.983632 0.175672 -6.67723e-19)
(0.983564 0.175428 1.03544e-18)
(0.983493 0.175174 1.7631e-19)
(0.983416 0.174918 1.15952e-18)
(0.983328 0.17467 -8.64159e-19)
(0.983223 0.174434 -5.91287e-19)
(0.98309 0.174211 -2.17411e-19)
(0.982917 0.17399 1.26234e-18)
(0.982692 0.173735 1.83139e-18)
(0.982399 0.173396 4.62791e-19)
(0.982037 0.172891 7.74723e-19)
(0.981615 0.172136 -1.16731e-18)
(0.981144 0.17108 6.36298e-18)
(0.980692 0.169694 1.6058e-18)
(0.980218 0.168133 -1.6015e-18)
(0.979818 0.166459 5.78655e-19)
(0.979543 0.164761 5.73703e-18)
(0.979434 0.163044 -4.11689e-19)
(0.979345 0.161276 -5.76959e-18)
(0.979605 0.15881 -1.38189e-17)
(0.978455 0.155052 1.25329e-17)
(0.981792 0.149772 -7.96927e-18)
(0.973378 0.146319 6.41836e-18)
(0.984864 0.1777 -3.2199e-21)
(0.984771 0.177776 1.31327e-20)
(0.984681 0.177834 -2.18745e-20)
(0.984599 0.177889 1.65109e-20)
(0.984534 0.177939 1.09415e-20)
(0.98449 0.177981 -1.16145e-20)
(0.984469 0.178016 1.01388e-21)
(0.98447 0.17804 -9.01556e-21)
(0.984489 0.178054 -3.09038e-20)
(0.984521 0.178059 5.98e-20)
(0.984562 0.178056 -9.42625e-20)
(0.984606 0.178047 8.33423e-20)
(0.984647 0.178033 7.50662e-20)
(0.984682 0.178016 -1.17032e-19)
(0.984706 0.177998 -3.92028e-20)
(0.984719 0.177981 1.47996e-19)
(0.984718 0.177967 -1.81954e-19)
(0.984703 0.177953 2.55491e-19)
(0.984676 0.177944 -4.8199e-20)
(0.984636 0.177935 2.9447e-20)
(0.984586 0.177929 -4.5777e-20)
(0.984526 0.177921 -5.90621e-20)
(0.984459 0.177914 -1.13147e-19)
(0.984387 0.177901 1.99228e-19)
(0.98431 0.177885 -1.38388e-19)
(0.98423 0.177859 -1.39531e-19)
(0.984149 0.177827 2.91206e-19)
(0.984066 0.177778 -2.86881e-19)
(0.983983 0.17772 4.65402e-19)
(0.983899 0.177645 -2.51827e-19)
(0.983817 0.177564 1.99886e-19)
(0.983734 0.177467 -3.45864e-19)
(0.983659 0.177326 3.77817e-19)
(0.983592 0.177141 -2.92235e-20)
(0.983522 0.176934 -1.7595e-20)
(0.983446 0.176722 -8.21285e-21)
(0.98337 0.1765 -2.07822e-19)
(0.983296 0.176261 5.94591e-19)
(0.983225 0.176006 -4.59009e-19)
(0.983157 0.175739 -2.68597e-18)
(0.98309 0.175467 -1.14524e-18)
(0.98302 0.175199 8.15931e-19)
(0.982944 0.17494 -9.28006e-19)
(0.982854 0.174687 -1.01765e-18)
(0.982738 0.174432 -8.67643e-20)
(0.982584 0.174141 2.59609e-18)
(0.982374 0.173768 -3.77582e-18)
(0.9821 0.173236 -3.80913e-18)
(0.981758 0.172466 -2.5422e-18)
(0.98134 0.171404 -4.27468e-18)
(0.9809 0.170009 2.74092e-18)
(0.980372 0.168412 -1.12463e-18)
(0.979853 0.166647 -9.33803e-18)
(0.979413 0.164756 1.78212e-18)
(0.979152 0.162746 2.81412e-18)
(0.97893 0.160606 -5.34758e-18)
(0.979201 0.157834 3.79536e-18)
(0.978101 0.153724 3.67155e-18)
(0.981037 0.148439 1.28013e-17)
(0.976323 0.146435 -4.77453e-20)
(0.985224 0.17791 3.81682e-21)
(0.985183 0.178011 -1.73842e-20)
(0.985113 0.178091 8.5009e-21)
(0.985023 0.178177 1.61963e-20)
(0.984924 0.178267 -3.51795e-20)
(0.984826 0.178354 2.97751e-20)
(0.984739 0.178439 -2.01636e-20)
(0.984667 0.178517 1.7272e-20)
(0.984614 0.178587 2.80841e-20)
(0.98458 0.178647 -6.81459e-20)
(0.984565 0.178697 9.97371e-20)
(0.984563 0.178737 4.33569e-20)
(0.984571 0.178767 -1.72827e-19)
(0.984584 0.178789 -3.33851e-20)
(0.984597 0.178804 9.41238e-20)
(0.984605 0.178812 6.19537e-20)
(0.984606 0.178816 -7.56958e-20)
(0.984596 0.178816 6.78091e-20)
(0.984574 0.178814 1.07184e-19)
(0.984539 0.178807 -5.13493e-20)
(0.984491 0.178798 -2.99634e-20)
(0.984432 0.178785 1.11614e-19)
(0.984361 0.178768 2.34689e-19)
(0.98428 0.178743 -1.68413e-19)
(0.984191 0.178714 -1.92952e-19)
(0.984096 0.178672 2.18645e-19)
(0.983995 0.178624 -1.70542e-19)
(0.983891 0.178559 -7.31862e-20)
(0.983786 0.178484 6.06719e-19)
(0.983678 0.178392 -2.7147e-19)
(0.983571 0.178294 -2.18071e-19)
(0.983462 0.178182 2.88006e-19)
(0.983365 0.178024 2.0376e-19)
(0.98328 0.177822 -1.81901e-19)
(0.983196 0.1776 -1.24129e-19)
(0.98311 0.177372 4.04251e-19)
(0.983026 0.177132 9.13924e-20)
(0.982949 0.176872 1.36343e-19)
(0.982881 0.176593 -7.54201e-19)
(0.982824 0.176299 -7.5614e-19)
(0.982778 0.175995 1.45638e-18)
(0.982742 0.17569 1.18653e-18)
(0.982716 0.175391 2.01535e-18)
(0.982696 0.175099 -1.88068e-18)
(0.982673 0.174811 -2.10247e-18)
(0.982638 0.174502 -1.38193e-18)
(0.982571 0.174141 3.37944e-18)
(0.98246 0.173665 3.28649e-18)
(0.982288 0.173008 -3.622e-18)
(0.982031 0.172122 -5.25285e-18)
(0.98172 0.170953 -1.03998e-18)
(0.981259 0.169604 1.04132e-18)
(0.980739 0.168069 1.7237e-19)
(0.980227 0.166329 -3.36463e-18)
(0.979866 0.164371 2.96669e-18)
(0.979514 0.162187 1.83711e-18)
(0.97971 0.159415 2.74858e-18)
(0.978617 0.155281 -1.11829e-17)
(0.980933 0.15021 -7.74219e-19)
(0.979151 0.149647 2.66673e-19)
(0.985399 0.178375 -6.47679e-21)
(0.985472 0.178464 -5.26557e-21)
(0.985495 0.178539 7.11367e-21)
(0.985473 0.178623 2.56827e-20)
(0.985413 0.178718 -5.59115e-20)
(0.985325 0.178818 6.46658e-20)
(0.985221 0.178922 -2.77828e-21)
(0.98511 0.179025 -3.98643e-21)
(0.985002 0.179127 -2.3872e-20)
(0.984903 0.179224 5.89352e-20)
(0.984817 0.179315 -9.16544e-20)
(0.984746 0.179397 3.48771e-20)
(0.984689 0.179469 -1.20888e-21)
(0.984644 0.179531 5.63182e-20)
(0.984607 0.179584 2.74426e-20)
(0.984575 0.179626 -1.46101e-19)
(0.984544 0.17966 1.28368e-19)
(0.98451 0.179684 5.16626e-20)
(0.98447 0.179701 -1.49594e-19)
(0.984422 0.179707 7.41583e-20)
(0.984363 0.179707 3.5486e-20)
(0.984294 0.179696 -2.28311e-20)
(0.984213 0.179677 3.13255e-20)
(0.984122 0.179646 -1.67798e-20)
(0.984021 0.179606 -2.09381e-19)
(0.983912 0.179551 1.40741e-19)
(0.983795 0.179487 -2.19324e-19)
(0.983673 0.179403 4.11659e-19)
(0.983548 0.179308 -7.70372e-20)
(0.98342 0.179195 -4.72939e-20)
(0.983291 0.179077 -1.23918e-20)
(0.983161 0.178943 4.80034e-19)
(0.983044 0.178764 -1.924e-19)
(0.982942 0.178539 -1.17753e-19)
(0.982844 0.178292 3.10667e-19)
(0.982746 0.178038 2.70494e-19)
(0.982654 0.177768 -4.54887e-19)
(0.982571 0.177476 8.12883e-20)
(0.982501 0.177158 9.06855e-19)
(0.982448 0.176817 -8.74099e-20)
(0.982415 0.176461 6.04369e-19)
(0.982404 0.176098 -8.88604e-19)
(0.982417 0.175736 1.3616e-18)
(0.982454 0.175381 2.98962e-18)
(0.982511 0.175039 8.54209e-19)
(0.982583 0.174698 -1.21703e-18)
(0.982653 0.174343 -3.70799e-18)
(0.982706 0.173933 7.32456e-19)
(0.982718 0.17342 1.10364e-18)
(0.982653 0.172766 2.28895e-18)
(0.98252 0.171911 -2.414e-19)
(0.982199 0.17093 -4.36032e-18)
(0.981761 0.169774 3.8357e-18)
(0.981262 0.168356 -2.65499e-18)
(0.980869 0.166624 5.36561e-18)
(0.980425 0.16455 1.39232e-18)
(0.980507 0.161867 6.40842e-18)
(0.979417 0.157706 8.93952e-18)
(0.981046 0.152629 1.62802e-18)
(0.980741 0.151918 2.49549e-18)
(0.985179 0.179411 -3.14714e-21)
(0.985373 0.179464 2.71688e-21)
(0.985515 0.179509 1.38362e-20)
(0.985608 0.17956 2.21761e-20)
(0.985646 0.179623 -6.58942e-20)
(0.985636 0.179694 3.82478e-20)
(0.985584 0.179773 -6.94042e-20)
(0.9855 0.179859 1.09514e-19)
(0.985393 0.179949 -5.17701e-20)
(0.985273 0.18004 9.26752e-21)
(0.985148 0.180132 1.02715e-19)
(0.985027 0.18022 -2.35646e-19)
(0.984912 0.180303 1.62169e-19)
(0.984806 0.180379 2.34621e-20)
(0.984709 0.180448 3.83143e-20)
(0.984621 0.180508 -1.60089e-19)
(0.98454 0.180558 7.95978e-20)
(0.984461 0.180598 -1.00059e-19)
(0.984383 0.180627 2.00298e-19)
(0.984303 0.180644 -2.56894e-20)
(0.984218 0.18065 -2.60216e-19)
(0.984126 0.180642 1.04314e-19)
(0.984027 0.180623 -5.86835e-21)
(0.983918 0.180588 -3.99418e-19)
(0.983802 0.180539 2.98098e-19)
(0.983677 0.180473 2.29253e-19)
(0.983545 0.180393 1.60694e-19)
(0.983407 0.18029 -2.08472e-19)
(0.983265 0.180175 -2.36883e-19)
(0.98312 0.18004 1.11805e-19)
(0.982973 0.179898 1.69844e-19)
(0.982824 0.179738 -2.14708e-19)
(0.982689 0.179532 -3.27343e-19)
(0.982571 0.179278 6.62029e-19)
(0.982457 0.179 7.45457e-20)
(0.982344 0.178711 -1.01808e-18)
(0.982236 0.178403 8.41165e-20)
(0.982136 0.178066 6.99665e-19)
(0.982051 0.177696 6.56572e-20)
(0.981984 0.177294 9.52263e-19)
(0.98194 0.176867 -1.38073e-18)
(0.981921 0.176423 -1.03672e-19)
(0.981934 0.175972 -9.12192e-19)
(0.981981 0.175524 3.86436e-19)
(0.982063 0.17509 1.54925e-18)
(0.98218 0.174672 4.84642e-18)
(0.982317 0.174272 6.44043e-19)
(0.982464 0.173868 -3.08524e-18)
(0.982593 0.173431 2.39819e-18)
(0.982662 0.172935 8.31371e-18)
(0.982671 0.172317 -6.65809e-18)
(0.982478 0.171629 7.94894e-18)
(0.98214 0.170782 -4.90556e-18)
(0.981701 0.169625 -2.73241e-18)
(0.981335 0.168062 -1.11436e-17)
(0.980868 0.166022 -6.29565e-19)
(0.980872 0.163304 -3.83802e-18)
(0.979879 0.158918 -4.45134e-18)
(0.980966 0.153439 3.73232e-18)
(0.98081 0.151195 8.07605e-19)
(0.98455 0.180988 4.35337e-21)
(0.984821 0.180997 1.54513e-21)
(0.985061 0.181003 -1.60038e-20)
(0.985265 0.181007 1.53692e-20)
(0.985419 0.181021 -6.86587e-21)
(0.985521 0.181041 1.24367e-20)
(0.985569 0.18107 4.36265e-21)
(0.985567 0.181107 -6.33559e-20)
(0.985521 0.181151 2.76066e-20)
(0.98544 0.181201 -1.92223e-20)
(0.985333 0.181256 1.15619e-20)
(0.985208 0.181314 4.5963e-20)
(0.985073 0.181372 -8.64075e-21)
(0.984936 0.181429 2.88404e-20)
(0.984799 0.181483 -1.23002e-19)
(0.984666 0.181532 4.75569e-20)
(0.984538 0.181574 2.1195e-20)
(0.984414 0.181608 -5.89675e-20)
(0.984294 0.181633 1.17956e-19)
(0.984174 0.181646 3.96562e-20)
(0.984055 0.181648 -4.06225e-21)
(0.983933 0.181635 -4.37043e-20)
(0.983807 0.181609 1.78561e-19)
(0.983677 0.181565 -4.98405e-19)
(0.98354 0.181505 2.60521e-19)
(0.983397 0.181425 1.1299e-19)
(0.983249 0.181328 -1.93178e-19)
(0.983095 0.181207 3.48387e-19)
(0.982938 0.18107 -1.68791e-19)
(0.982777 0.180911 -9.20637e-20)
(0.982614 0.180743 -1.85903e-19)
(0.982449 0.180556 -7.79028e-20)
(0.982297 0.180321 2.12311e-19)
(0.982161 0.180035 -6.50162e-19)
(0.982029 0.179721 1.22128e-18)
(0.981895 0.179393 -7.84051e-20)
(0.981762 0.179042 6.51045e-19)
(0.981635 0.178654 -1.66393e-18)
(0.981518 0.178225 -5.42566e-19)
(0.981415 0.177755 3.55952e-22)
(0.981331 0.177247 -4.3057e-19)
(0.98127 0.176709 -8.3932e-20)
(0.981237 0.176151 -1.61848e-18)
(0.98124 0.175584 5.80485e-19)
(0.981281 0.175025 8.22421e-19)
(0.981365 0.174484 -4.54406e-18)
(0.981482 0.173974 5.93912e-18)
(0.981626 0.173491 8.83052e-19)
(0.981773 0.173021 3.72981e-19)
(0.981884 0.172548 -5.80023e-18)
(0.981956 0.172009 1.94932e-18)
(0.981839 0.171438 -4.17369e-18)
(0.981581 0.170717 8.54426e-18)
(0.981217 0.169641 1.65811e-18)
(0.980929 0.168075 -7.74303e-18)
(0.980529 0.165909 2.94138e-18)
(0.980548 0.162992 -8.71339e-18)
(0.979796 0.158239 -2.03967e-18)
(0.980632 0.152133 -1.4091e-17)
(0.979946 0.148 -3.25449e-18)
(0.983649 0.182897 -9.51294e-22)
(0.983934 0.182876 -3.76145e-21)
(0.984217 0.182848 -3.30811e-21)
(0.984489 0.182812 3.20309e-20)
(0.984733 0.18278 -1.78547e-20)
(0.984937 0.182749 -2.17144e-20)
(0.985093 0.182723 -8.31656e-21)
(0.985197 0.182702 -3.43204e-20)
(0.985248 0.182687 2.12993e-20)
(0.98525 0.182679 2.9461e-21)
(0.985208 0.182677 9.30816e-22)
(0.985129 0.182681 9.51603e-20)
(0.985023 0.18269 -6.80385e-20)
(0.984897 0.182702 -8.61932e-21)
(0.984757 0.182716 8.01287e-20)
(0.984609 0.182728 -4.44162e-20)
(0.984458 0.18274 -1.74229e-20)
(0.984306 0.182746 2.83157e-20)
(0.984155 0.182746 9.29433e-20)
(0.984004 0.182737 5.26531e-20)
(0.983854 0.182719 2.07172e-20)
(0.983703 0.182687 -1.32718e-19)
(0.983551 0.182643 6.87595e-20)
(0.983396 0.182582 1.35128e-19)
(0.983238 0.182505 -2.81605e-19)
(0.983076 0.182405 9.30105e-20)
(0.98291 0.182289 -3.71537e-19)
(0.982741 0.182146 3.06847e-19)
(0.982568 0.181986 2.77256e-19)
(0.982392 0.181802 -4.31744e-19)
(0.982214 0.181607 -2.10989e-19)
(0.982034 0.181391 2.87521e-19)
(0.981864 0.181126 9.73387e-20)
(0.981709 0.180807 -2.75511e-19)
(0.981555 0.180457 -3.47389e-19)
(0.981395 0.180091 -4.19354e-19)
(0.981232 0.179696 2.54545e-19)
(0.981069 0.179259 6.29694e-19)
(0.980909 0.178772 2.19278e-19)
(0.980755 0.178234 -2.20762e-19)
(0.980612 0.177645 2.41122e-18)
(0.980482 0.177013 -2.40992e-19)
(0.980373 0.176345 2.66653e-18)
(0.980291 0.175651 -4.96552e-18)
(0.98024 0.174951 8.26718e-19)
(0.980231 0.174257 1.27824e-19)
(0.980258 0.173592 -2.02062e-19)
(0.98032 0.172961 -4.35022e-18)
(0.980402 0.172361 -6.95927e-18)
(0.98047 0.171784 6.34894e-18)
(0.980529 0.171167 8.40996e-18)
(0.980432 0.170533 4.55172e-18)
(0.980227 0.169747 -8.47284e-18)
(0.979949 0.168567 4.63012e-18)
(0.979785 0.166834 1.12616e-17)
(0.979539 0.16441 5.17113e-18)
(0.979681 0.161201 8.49512e-18)
(0.979306 0.156082 4.4649e-18)
(0.980206 0.149388 1.38206e-17)
(0.978976 0.143776 -1.02728e-17)
(0.982661 0.184902 1.20458e-21)
(0.982898 0.184865 -3.63452e-21)
(0.983163 0.184821 1.30596e-20)
(0.983445 0.184762 3.46787e-21)
(0.983726 0.184701 -1.82015e-20)
(0.983991 0.184635 -2.12236e-20)
(0.984227 0.184567 5.05406e-20)
(0.984424 0.184498 -5.57291e-20)
(0.984573 0.184431 -1.4036e-20)
(0.984671 0.184366 3.49169e-20)
(0.984719 0.184307 3.28551e-20)
(0.98472 0.184252 1.01289e-19)
(0.984678 0.184202 -5.68405e-20)
(0.984602 0.184157 -9.95398e-20)
(0.984497 0.184117 2.20095e-20)
(0.98437 0.184079 -8.35438e-20)
(0.984228 0.184043 6.27345e-20)
(0.984075 0.184006 -1.08123e-19)
(0.983915 0.183966 1.67711e-20)
(0.98375 0.183921 -3.69508e-20)
(0.983583 0.183869 -2.42029e-20)
(0.983413 0.183806 -1.03355e-19)
(0.983241 0.183733 7.7002e-21)
(0.983067 0.183645 2.25651e-19)
(0.982891 0.183542 -7.82303e-20)
(0.982712 0.183418 2.41057e-20)
(0.98253 0.183277 7.2628e-20)
(0.982345 0.183109 -1.00695e-19)
(0.982157 0.182922 -2.1576e-20)
(0.981967 0.182712 1.48069e-19)
(0.981774 0.182489 1.66901e-19)
(0.981578 0.182244 -1.27665e-19)
(0.98139 0.181949 -4.11823e-19)
(0.981215 0.181598 -5.87826e-19)
(0.981038 0.181215 9.02687e-19)
(0.98085 0.180813 2.43878e-19)
(0.980654 0.18038 1.50322e-19)
(0.980451 0.179899 8.20109e-19)
(0.980244 0.179362 -7.71384e-19)
(0.980034 0.178764 4.88807e-19)
(0.979824 0.178106 1.54271e-20)
(0.979617 0.177389 4.01452e-20)
(0.979418 0.176621 -9.81834e-19)
(0.979234 0.175809 2.31062e-18)
(0.97907 0.174971 -3.18501e-18)
(0.978939 0.174121 2.00232e-18)
(0.97884 0.173284 -5.73653e-18)
(0.978778 0.172469 1.48115e-18)
(0.978747 0.171681 3.7125e-18)
(0.978724 0.170914 -6.55309e-18)
(0.978725 0.170108 -1.3134e-18)
(0.978614 0.169279 -7.01349e-20)
(0.978446 0.168288 -1.86104e-18)
(0.978262 0.166873 -5.26094e-18)
(0.978257 0.164868 2.84302e-19)
(0.978235 0.162127 5.58544e-18)
(0.978588 0.158621 -5.53554e-18)
(0.978671 0.153246 -1.51325e-18)
(0.979884 0.146169 -1.75589e-18)
(0.978484 0.139753 7.83056e-18)
(0.981733 0.186837 2.18702e-21)
(0.981882 0.186805 -1.85368e-21)
(0.98208 0.186759 1.7152e-21)
(0.982316 0.186696 1.10855e-20)
(0.982579 0.186624 1.63033e-20)
(0.982852 0.186541 -6.38508e-20)
(0.983121 0.18645 4.65707e-20)
(0.983372 0.186351 9.90495e-21)
(0.983592 0.186247 -2.86184e-21)
(0.983772 0.186141 -2.16171e-20)
(0.983907 0.186034 6.74646e-20)
(0.983994 0.185928 -2.17978e-20)
(0.984034 0.185825 -3.08394e-20)
(0.98403 0.185726 -9.38396e-20)
(0.983987 0.18563 1.89876e-19)
(0.983909 0.185538 -3.91926e-20)
(0.983805 0.18545 -3.34981e-20)
(0.983678 0.185362 -1.01558e-19)
(0.983534 0.185274 1.13106e-19)
(0.983378 0.185183 6.40985e-20)
(0.983211 0.185089 -2.85874e-20)
(0.983038 0.184987 5.24592e-20)
(0.982859 0.184877 -2.22874e-19)
(0.982676 0.184755 1.42341e-20)
(0.982488 0.184619 1.26484e-19)
(0.982297 0.184464 -2.45266e-20)
(0.982103 0.184293 -4.04298e-19)
(0.981905 0.184096 3.36763e-20)
(0.981705 0.183882 3.70503e-19)
(0.981501 0.183642 -1.00062e-19)
(0.981294 0.183391 -1.9997e-19)
(0.981083 0.183117 1.17158e-19)
(0.980876 0.182793 3.58604e-19)
(0.98068 0.182412 8.53375e-19)
(0.98048 0.182 -1.31551e-19)
(0.980266 0.181568 1.87155e-19)
(0.980039 0.181103 -1.37335e-18)
(0.979799 0.180588 -4.12195e-19)
(0.979547 0.180011 2.67926e-19)
(0.979285 0.179367 -1.13316e-18)
(0.979013 0.178653 -2.57415e-19)
(0.978733 0.17787 5.59011e-19)
(0.978448 0.177021 4.71824e-19)
(0.978167 0.176111 1.38365e-18)
(0.977894 0.175154 4.77516e-18)
(0.977642 0.174163 -3.94986e-18)
(0.977414 0.173161 6.53299e-18)
(0.977223 0.172159 5.06023e-18)
(0.977068 0.171163 -4.82581e-20)
(0.976941 0.170168 6.90327e-18)
(0.976871 0.169115 -9.33137e-18)
(0.976737 0.168022 -1.1284e-17)
(0.976604 0.16675 8.83929e-18)
(0.976526 0.165035 7.65104e-18)
(0.976705 0.162719 -3.35302e-18)
(0.97695 0.159664 -1.8189e-17)
(0.977564 0.15591 4.23929e-18)
(0.978123 0.150424 -4.69964e-18)
(0.979795 0.143215 -7.13997e-18)
(0.978702 0.136589 6.54391e-18)
(0.980953 0.188606 -2.29427e-21)
(0.980997 0.188583 2.52402e-21)
(0.9811 0.188545 1.73577e-20)
(0.981255 0.188489 -2.27925e-20)
(0.981454 0.188422 4.18871e-20)
(0.981687 0.18834 -6.19954e-20)
(0.981939 0.188245 1.76205e-20)
(0.982198 0.188136 -9.26057e-22)
(0.982448 0.188017 4.01973e-20)
(0.982677 0.187888 -2.12562e-20)
(0.982874 0.187753 6.40813e-21)
(0.983033 0.187613 6.76699e-21)
(0.983149 0.187471 -1.05146e-19)
(0.98322 0.187328 3.13333e-20)
(0.983248 0.187186 7.43355e-20)
(0.983235 0.187047 2.47098e-21)
(0.983185 0.186909 -1.27522e-19)
(0.983104 0.186773 5.17041e-20)
(0.982997 0.186638 2.4868e-19)
(0.982868 0.186501 -1.6255e-19)
(0.982722 0.186362 -1.25704e-19)
(0.982561 0.186217 1.07839e-19)
(0.982389 0.186066 7.00706e-20)
(0.982208 0.185905 7.99363e-20)
(0.982019 0.185733 -1.54246e-19)
(0.981824 0.185543 -3.41574e-19)
(0.981623 0.18534 2.58127e-19)
(0.981418 0.185111 3.80175e-19)
(0.981208 0.184866 1.08484e-19)
(0.980994 0.184597 -2.07742e-19)
(0.980774 0.184317 1.0029e-19)
(0.980548 0.184014 1.70842e-19)
(0.980325 0.183662 -2.95386e-19)
(0.980109 0.183254 -4.35037e-20)
(0.979888 0.182816 -5.4034e-19)
(0.979652 0.182361 -1.56015e-19)
(0.979397 0.181872 -1.49802e-19)
(0.979126 0.181331 3.9798e-19)
(0.978838 0.180725 -5.54716e-19)
(0.978533 0.180048 1.72076e-19)
(0.97821 0.179296 2.84271e-19)
(0.977871 0.178466 7.97994e-20)
(0.977519 0.177558 -1.99006e-18)
(0.977158 0.176574 -2.89231e-18)
(0.976795 0.175524 -2.66777e-18)
(0.976444 0.174417 5.48122e-18)
(0.976109 0.173273 1.69543e-19)
(0.975808 0.172101 -2.37772e-18)
(0.975547 0.170905 1.30369e-18)
(0.975332 0.169678 -8.28208e-18)
(0.975204 0.168366 4.06742e-18)
(0.975058 0.166986 1.14219e-17)
(0.974972 0.165411 -6.0854e-19)
(0.975011 0.163385 -1.02383e-17)
(0.975387 0.160766 4.82501e-18)
(0.975913 0.157438 4.56144e-18)
(0.976802 0.153505 5.80688e-18)
(0.977807 0.148034 1.3241e-17)
(0.979984 0.140901 1.2993e-17)
(0.979576 0.134463 -1.49222e-17)
(0.980349 0.190184 -1.88986e-21)
(0.980292 0.190174 2.74502e-21)
(0.980293 0.190149 5.80722e-22)
(0.98035 0.190106 1.06312e-20)
(0.98046 0.190051 -1.62047e-20)
(0.980618 0.18998 -3.36829e-20)
(0.980815 0.189893 1.19416e-20)
(0.981038 0.18979 -1.64817e-20)
(0.981275 0.189671 3.56628e-20)
(0.981512 0.189538 -7.34601e-21)
(0.981737 0.189393 -2.43561e-20)
(0.981939 0.189237 2.01712e-20)
(0.982109 0.189073 3.33268e-20)
(0.982241 0.188903 9.3187e-20)
(0.982333 0.18873 -1.70012e-19)
(0.982384 0.188554 8.77754e-20)
(0.982395 0.188379 1.38928e-20)
(0.98237 0.188201 -8.8412e-20)
(0.982311 0.188024 -5.61731e-20)
(0.982222 0.187845 1.85305e-19)
(0.982109 0.187664 -1.96327e-19)
(0.981975 0.187478 5.8801e-20)
(0.981823 0.187287 -1.63299e-19)
(0.981656 0.187087 2.72706e-19)
(0.981476 0.186877 -5.57222e-20)
(0.981286 0.186652 -1.601e-19)
(0.981087 0.186414 1.2857e-19)
(0.98088 0.186152 2.47149e-19)
(0.980665 0.185876 -2.38111e-19)
(0.980444 0.185577 1.49082e-19)
(0.980214 0.185267 -5.13105e-19)
(0.979977 0.184936 -6.06292e-20)
(0.979739 0.184559 2.29573e-19)
(0.979506 0.184127 -1.34267e-19)
(0.979269 0.183668 -2.77501e-19)
(0.979014 0.183193 -6.75817e-19)
(0.978739 0.182686 8.65582e-19)
(0.978444 0.182126 -3.43961e-19)
(0.978129 0.181502 2.71902e-19)
(0.977794 0.180804 5.71017e-19)
(0.977436 0.180027 4.60668e-19)
(0.977056 0.179166 -3.15016e-19)
(0.976656 0.178219 1.14774e-18)
(0.976242 0.177183 2.24233e-18)
(0.975817 0.176065 -2.25815e-19)
(0.975397 0.174868 -3.29814e-18)
(0.974987 0.17361 -4.64054e-18)
(0.97461 0.172292 -3.82345e-19)
(0.974277 0.170918 3.72234e-18)
(0.974005 0.169479 -7.1637e-19)
(0.973845 0.167919 7.20516e-18)
(0.97371 0.166264 -1.13156e-17)
(0.973686 0.164398 -6.13681e-18)
(0.973853 0.16208 -2.60629e-18)
(0.974427 0.159191 -5.3961e-18)
(0.975229 0.155645 3.44063e-18)
(0.976381 0.151596 -4.46396e-18)
(0.977771 0.146226 -1.75793e-17)
(0.980428 0.139305 -2.03021e-17)
(0.980917 0.133256 7.97958e-18)
(0.979906 0.191573 -2.77189e-21)
(0.979761 0.191574 2.24316e-21)
(0.979669 0.191561 1.78732e-21)
(0.979628 0.191533 -1.29119e-20)
(0.979642 0.191495 1.33783e-20)
(0.979709 0.191441 -6.6858e-21)
(0.979825 0.191371 2.19266e-20)
(0.979982 0.191283 -3.29011e-20)
(0.980171 0.191178 1.7762e-21)
(0.98038 0.191054 2.45789e-21)