/*--------------------------------*- C++ -*----------------------------------*\
  =========                 |
  \\      /  F ield         | OpenFOAM: The Open Source CFD Toolbox
   \\    /   O peration     | Website:  https://openfoam.org
    \\  /    A nd           | Version:  6.0
     \\/     M anipulation  |
\*---------------------------------------------------------------------------*/
FoamFile
{
    version     2.0;
    format      ascii;
    class       volScalarField;
    location    "3";
    object      p;
}
// * * * * * * * * * * * * * * * * * * * * * * * * * * * * * * * * * * * * * //

dimensions      [0 2 -2 0 0 0 0];

internalField   nonuniform List<scalar> 
15500
(
0.0385367
0.0386379
0.0387758
0.0389396
0.0391461
0.0393844
0.0396747
0.0400061
0.0404015
0.0408521
0.0413825
0.0419856
0.0426904
0.0435089
0.0444792
0.0456135
0.0469259
0.0483966
0.0499877
0.051623
0.0531384
0.0542041
0.0542893
0.0527396
0.0489663
0.0428318
0.0349014
0.0261588
0.0182465
0.0137249
0.0385364
0.0386379
0.038772
0.0389321
0.0391344
0.0393696
0.0396567
0.0399859
0.0403786
0.0408276
0.0413548
0.0419586
0.0426627
0.0434887
0.0444718
0.045642
0.0470207
0.0486112
0.0504014
0.0523517
0.0543455
0.0561083
0.057165
0.0568683
0.054551
0.0498528
0.0430072
0.0346256
0.0262911
0.0209238
0.0384674
0.0386049
0.038765
0.0389443
0.0391579
0.0393983
0.0396854
0.0400109
0.0403975
0.0408392
0.0413589
0.0419556
0.0426523
0.0434733
0.0444534
0.0456259
0.0470161
0.0486353
0.0504853
0.0525432
0.0547173
0.0567762
0.0582931
0.0586591
0.0571933
0.053421
0.0473653
0.039379
0.0309419
0.0250093
0.0384767
0.038637
0.0388139
0.0390044
0.0392238
0.0394659
0.0397498
0.0400692
0.0404456
0.040875
0.0413799
0.0419606
0.0426408
0.0434464
0.0444119
0.0455712
0.0469491
0.048562
0.0504131
0.0524912
0.0547219
0.0569059
0.0586623
0.0594305
0.0585468
0.0554815
0.0500969
0.0425458
0.0341672
0.0280574
0.0384569
0.0386441
0.0388433
0.0390514
0.0392819
0.0395282
0.0398094
0.0401195
0.0404818
0.0408932
0.0413777
0.0419367
0.0425946
0.0433786
0.0443241
0.0454629
0.0468206
0.0484093
0.0502413
0.052305
0.0545419
0.0567759
0.0586681
0.0597028
0.0592452
0.0567376
0.0519344
0.0448363
0.03665
0.0305552
0.0384161
0.0386087
0.0388115
0.0390216
0.0392523
0.0394981
0.039776
0.0400811
0.0404343
0.0408337
0.0413024
0.041843
0.0424808
0.0432444
0.0441694
0.0452876
0.0466205
0.0481868
0.0499903
0.0520286
0.0542514
0.0565027
0.0584812
0.0597138
0.0596035
0.0575821
0.0533155
0.0466765
0.0387177
0.032773
0.0381576
0.0383741
0.0385995
0.0388303
0.0390777
0.0393351
0.0396195
0.0399254
0.040275
0.0406668
0.0411248
0.0416523
0.0422748
0.0430225
0.0439316
0.0450318
0.0463473
0.0478898
0.0496712
0.0516885
0.0538977
0.0561636
0.0582133
0.0596145
0.0598028
0.0582077
0.0544339
0.048246
0.0405596
0.0347869
0.0378457
0.0380602
0.0382836
0.0385135
0.0387617
0.0390225
0.0393108
0.0396217
0.0399741
0.0403672
0.0408227
0.041345
0.0419599
0.0426987
0.043598
0.0446882
0.0459906
0.0475227
0.0492891
0.0512944
0.0535001
0.0557876
0.0579103
0.0594734
0.0599443
0.0587578
0.0554561
0.0497109
0.0422791
0.0367066
0.0372957
0.037533
0.0377791
0.0380304
0.038297
0.0385723
0.0388713
0.0391889
0.0395453
0.0399399
0.0403952
0.0409163
0.0415287
0.0422647
0.0431617
0.0442491
0.0455509
0.0470766
0.0488443
0.0508523
0.0530739
0.0554008
0.0576128
0.0593434
0.0600888
0.0592859
0.0564309
0.0511104
0.0439421
0.038533
0.0367369
0.0369664
0.0372043
0.0374491
0.0377117
0.0379872
0.0382886
0.0386119
0.038974
0.0393747
0.0398349
0.0403601
0.0409762
0.0417161
0.0426177
0.0437114
0.0450172
0.0465561
0.0483342
0.050362
0.0526167
0.0550022
0.057321
0.0592325
0.0602605
0.0598426
0.0574264
0.052516
0.0455774
0.040326
0.0359185
0.0361687
0.0364272
0.0366917
0.036971
0.0372599
0.0375717
0.0379026
0.0382712
0.0386779
0.0391443
0.0396767
0.0403004
0.0410494
0.0419624
0.0430687
0.0443935
0.0459496
0.0477565
0.0498237
0.0521327
0.0546028
0.0570517
0.0591636
0.0604802
0.0604382
0.0584448
0.0539248
0.0472119
0.0420681
0.0350907
0.0353287
0.0355751
0.0358299
0.0361034
0.0363918
0.036707
0.0370457
0.0374235
0.0378413
0.0383187
0.0388626
0.0394991
0.0402625
0.0411925
0.0423204
0.0436691
0.0452616
0.0471087
0.0492307
0.0516139
0.0541893
0.0567901
0.0591231
0.0607448
0.0610902
0.0595165
0.0553737
0.0488485
0.0437999
0.0339977
0.0342577
0.0345263
0.0348018
0.035093
0.0353951
0.0357209
0.0360676
0.0364529
0.0368785
0.0373652
0.0379213
0.0385721
0.0393534
0.040306
0.0414617
0.0428481
0.0444793
0.0463858
0.0485802
0.051062
0.0537677
0.0565486
0.0591248
0.0610651
0.0617962
0.0606326
0.0568486
0.0505024
0.0454997
0.03294
0.0331848
0.0334371
0.0336985
0.0339791
0.0342763
0.0346013
0.0349523
0.0353443
0.0357797
0.036278
0.0368483
0.0375169
0.0383198
0.0392997
0.0404907
0.0419167
0.0436082
0.0455815
0.0478659
0.0504641
0.0533216
0.0563053
0.0591475
0.0614283
0.0625603
0.0618092
0.0583712
0.0521674
0.0471964
0.0315875
0.0318532
0.0321266
0.0324073
0.0327038
0.0330129
0.0333468
0.0337043
0.0341031
0.0345468
0.0350562
0.0356418
0.0363295
0.0371573
0.0381691
0.0393995
0.04088
0.0426321
0.044691
0.047085
0.049821
0.0528582
0.0560713
0.0592058
0.0618429
0.0633803
0.063036
0.0599277
0.0538548
0.04887
0.0302459
0.0304939
0.0307489
0.0310141
0.0312997
0.0316042
0.0319383
0.0323018
0.0327094
0.0331656
0.0336897
0.0342935
0.035004
0.0358601
0.0369079
0.0381853
0.0397229
0.0415557
0.0437094
0.0462267
0.0491193
0.0523567
0.0558226
0.0592745
0.0622921
0.0642542
0.0643211
0.0615325
0.0555547
0.0505402
0.0285904
0.0288616
0.0291402
0.0294268
0.02973
0.0300475
0.0303913
0.0307619
0.0311769
0.0316421
0.032179
0.0328009
0.033535
0.034422
0.0355104
0.0368401
0.0384485
0.0403609
0.0426291
0.0452867
0.048361
0.0518241
0.0555735
0.0593689
0.0627873
0.0651819
0.0656582
0.0631739
0.0572771
0.0521901
0.0269761
0.0272275
0.0274843
0.0277519
0.0280403
0.0283494
0.02869
0.0290632
0.0294847
0.0299609
0.0305124
0.0311542
0.0319149
0.0328362
0.0339694
0.0353584
0.0370374
0.0390533
0.0414409
0.0442559
0.0475288
0.0512392
0.0552964
0.0594619
0.0633089
0.0661572
0.0670508
0.0648612
0.0590104
0.0538303
0.0250056
0.0252792
0.0255587
0.0258465
0.0261513
0.0264723
0.0268214
0.027201
0.0276299
0.0281161
0.0286825
0.0293458
0.0301346
0.0310935
0.0322759
0.0337279
0.0354937
0.0376104
0.0401377
0.0431306
0.0466242
0.0506123
0.0550065
0.0595732
0.0638705
0.067185
0.0684962
0.0665864
0.0607639
0.0554508
0.0230331
0.0232848
0.0235415
0.02381
0.024101
0.0244153
0.024764
0.0251496
0.0255887
0.0260899
0.0266751
0.0273628
0.0281838
0.0291837
0.0304197
0.0319427
0.0337968
0.0360369
0.0387121
0.0418964
0.0456303
0.0499176
0.0546752
0.0596725
0.0644503
0.0682561
0.0699932
0.0683552
0.0625256
0.0570584
0.0206795
0.0209565
0.0212392
0.021531
0.0218412
0.0221697
0.0225289
0.0229225
0.0233706
0.0238837
0.0244863
0.025199
0.0260531
0.027097
0.0283913
0.0299907
0.0319483
0.0343086
0.0371539
0.0405481
0.0445503
0.0491654
0.0543218
0.0597812
0.0650664
0.0693782
0.0715448
0.070162
0.0643041
0.0586421
0.0183566
0.0186093
0.0188656
0.0191343
0.0194268
0.0197451
0.0201005
0.0204973
0.0209536
0.0214804
0.0221022
0.0228415
0.023732
0.0248232
0.0261803
0.0278634
0.0299234
0.0324314
0.0354506
0.0390732
0.0433621
0.0483298
0.0539135
0.0598675
0.0656947
0.0705391
0.0731457
0.0720095
0.0660866
0.0602064
0.0156084
0.0158858
0.0161673
0.0164582
0.0167686
0.0170994
0.0174639
0.0178675
0.0183324
0.0188718
0.0195127
0.0202802
0.0212081
0.02235
0.0237742
0.0255448
0.0277251
0.0303762
0.0335929
0.0374675
0.0420689
0.0474247
0.0534709
0.0599576
0.0663554
0.071752
0.0748027
0.0738952
0.0678805
0.0617385
0.0128487
0.0130987
0.0133517
0.0136183
0.0139111
0.0142329
0.0145956
0.0150051
0.0154811
0.0160375
0.0167011
0.017499
0.0184683
0.0196639
0.0211594
0.0230257
0.0253273
0.0281478
0.0315704
0.0357123
0.0406488
0.0464189
0.0529598
0.060016
0.0670223
0.0730014
0.0765065
0.075819
0.0696729
0.0632414
0.00963064
0.00990925
0.0101914
0.0104835
0.0107967
0.0111326
0.0115054
0.0119221
0.012407
0.0129765
0.0136602
0.0144887
0.0154994
0.0167514
0.0183228
0.0202904
0.0227302
0.0257152
0.0293703
0.0338014
0.0391073
0.0453264
0.0524057
0.0600709
0.0677207
0.0743037
0.0782693
0.0777799
0.07147
0.0647017
0.00643865
0.00668619
0.00693457
0.0071969
0.00748663
0.00780818
0.00817381
0.00859189
0.00908388
0.00966744
0.0103726
0.0112323
0.0122874
0.0135986
0.0152503
0.0173268
0.0199031
0.0230846
0.0269762
0.0317186
0.0374165
0.0441157
0.0517694
0.0600849
0.0684215
0.0756404
0.0800777
0.0797756
0.0732587
0.0661214
0.00272934
0.00300485
0.0032811
0.00356717
0.0038748
0.00420772
0.0045803
0.0050029
0.00550178
0.00609762
0.00682329
0.00771545
0.0088156
0.0101892
0.0119254
0.0141149
0.0168471
0.0202197
0.0243757
0.0294591
0.0355815
0.0428054
0.051078
0.0600921
0.0691523
0.0770333
0.0819476
0.081807
0.0750436
0.0674864
-0.00100424
-0.000763913
-0.000524994
-0.000271059
1.20679e-05
0.000330644
0.000697082
0.00112247
0.0016302
0.00224219
0.00299164
0.00391808
0.00506706
0.00650601
0.008331
0.0106404
0.01353
0.0171227
0.0215541
0.0269988
0.0335752
0.0413576
0.0502907
0.0600504
0.0698819
0.0784606
0.0838611
0.0838695
0.0768122
0.0687976
-0.00531017
-0.00503707
-0.00476562
-0.00448406
-0.00418019
-0.00384849
-0.00347435
-0.00304415
-0.00252951
-0.00190505
-0.00113429
-0.000173162
0.00102502
0.00253092
0.00444748
0.00688276
0.00994369
0.0137505
0.0184951
0.0243318
0.0314063
0.0397918
0.0494407
0.0599963
0.0706433
0.0799467
0.0858394
0.0859648
0.078567
0.0700401
-0.0095939
-0.00936151
-0.00913451
-0.00889242
-0.00862058
-0.00831
-0.00794856
-0.00752136
-0.00700287
-0.00636603
-0.00557373
-0.00457812
-0.00333066
-0.0017556
0.000255683
0.00281835
0.00605327
0.0101228
0.0151804
0.0214384
0.029041
0.0380698
0.0484812
0.0598856
0.0714018
0.0814665
0.0878602
0.0880861
0.0802959
0.0712143
-0.0145089
-0.0142452
-0.013988
-0.0137214
-0.0134331
-0.0131142
-0.0127503
-0.0123233
-0.0118026
-0.0111565
-0.0103457
-0.00931762
-0.00802008
-0.00637495
-0.00426822
-0.00155867
0.00187708
0.00619029
0.0116078
0.0183193
0.0264889
0.0362166
0.0474471
0.0597614
0.0721927
0.0830501
0.0899477
0.0902362
0.0819988
0.0723044
-0.0194284
-0.0192121
-0.0190066
-0.0187861
-0.0185356
-0.0182429
-0.0178967
-0.0174771
-0.0169575
-0.0163036
-0.0154753
-0.0144145
-0.0130656
-0.011347
-0.00912287
-0.00627012
-0.00262972
0.00198474
0.00775526
0.0149433
0.0237163
0.0341867
0.0462905
0.0595742
0.0729791
0.0846681
0.0920749
0.0924059
0.0836649
0.0733102
-0.0250219
-0.0247712
-0.0245357
-0.0242937
-0.0240335
-0.0237414
-0.0234037
-0.0229955
-0.0224839
-0.0218296
-0.0209877
-0.0198951
-0.0184929
-0.0166902
-0.0143622
-0.0113323
-0.00746045
-0.00257508
0.00360646
0.0113061
0.0207358
0.032006
0.0450531
0.0593702
0.0738024
0.0863536
0.0942707
0.0945977
0.0852907
0.0742149
-0.0306612
-0.0304621
-0.0302879
-0.0301043
-0.0298966
-0.0296437
-0.0293359
-0.0289446
-0.0284416
-0.027784
-0.0269262
-0.025799
-0.0243385
-0.0224537
-0.0199876
-0.0167922
-0.0126906
-0.00745726
-0.000872488
0.00737728
0.0175051
0.0296287
0.0436804
0.0590976
0.0746214
0.0880736
0.096503
0.0968004
0.0868662
0.0750185
-0.0373747
-0.0371373
-0.0369147
-0.0366827
-0.036431
-0.0361454
-0.0358139
-0.0354078
-0.0348911
-0.0342163
-0.0333314
-0.0321602
-0.0306341
-0.0286521
-0.026065
-0.0226691
-0.0183001
-0.0127488
-0.00569216
0.0031567
0.0140375
0.0270872
0.0422168
0.0588101
0.07548
0.0898664
0.0988035
0.0990164
0.0883848
0.0757027
-0.0438872
-0.0437065
-0.0435568
-0.0433985
-0.0432162
-0.0429853
-0.0426966
-0.0423158
-0.041811
-0.0411313
-0.0402244
-0.0390084
-0.0374115
-0.035331
-0.0325855
-0.0289987
-0.0243581
-0.0184092
-0.010879
-0.00139293
0.0102933
0.0243293
0.0406072
0.0584505
0.0763347
0.091694
0.101134
0.101232
0.0898379
0.0762676
-0.0515295
-0.0513219
-0.0511404
-0.0509529
-0.050746
-0.0504988
-0.0501983
-0.0498083
-0.0492901
-0.048588
-0.0476451
-0.0463728
-0.0446951
-0.0424989
-0.039611
-0.0357899
-0.0308428
-0.0245242
-0.0164437
-0.00627004
0.00629233
0.0213894
0.0389037
0.0580756
0.0772355
0.0935971
0.103531
0.103448
0.0912147
0.0766937
-0.0595614
-0.0593869
-0.0592309
-0.0590611
-0.0588573
-0.0586038
-0.0582876
-0.0578769
-0.0573323
-0.0565976
-0.0556104
-0.0542752
-0.0525089
-0.0501954
-0.0471242
-0.043081
-0.0378234
-0.0310443
-0.0224179
-0.0115063
0.00198832
0.0182171
0.037046
0.0576268
0.0781344
0.0955331
0.10595
0.105648
0.0925077
0.0769815
-0.0679917
-0.0678147
-0.0676675
-0.0675138
-0.0673336
-0.0671065
-0.0668153
-0.0664227
-0.0658833
-0.0651365
-0.0641163
-0.0627216
-0.0608653
-0.0584216
-0.055185
-0.050878
-0.0452697
-0.0380601
-0.028805
-0.0170934
-0.00259613
0.0148549
0.0350888
0.0571685
0.0790832
0.0975478
0.108429
0.107833
0.093702
0.0771099
-0.0769666
-0.0768289
-0.0767183
-0.0765959
-0.0764386
-0.0762265
-0.0759445
-0.0755543
-0.07501
-0.0742467
-0.0731924
-0.0717373
-0.0697884
-0.0672145
-0.063775
-0.0592171
-0.0532481
-0.0455179
-0.0356305
-0.0230704
-0.00750353
0.0112468
0.0329726
0.0566372
0.0800315
0.0995922
0.110916
0.109983
0.0947918
0.07708
-0.086537
-0.0863975
-0.0862963
-0.0861905
-0.0860579
-0.085874
-0.0856199
-0.0852513
-0.0847161
-0.0839441
-0.0828588
-0.0813429
-0.079297
-0.0765804
-0.0729564
-0.0680983
-0.0617336
-0.0535104
-0.0428986
-0.0294268
-0.0127035
0.007438
0.0307606
0.0561001
0.0810367
0.101714
0.113453
0.112095
0.0957576
0.0768693
-0.0967565
-0.096658
-0.0965917
-0.0965146
-0.0963994
-0.0962251
-0.0959742
-0.0956038
-0.0950604
-0.0942696
-0.0931476
-0.0915669
-0.0894198
-0.0865588
-0.0827084
-0.0775658
-0.0707941
-0.0619757
-0.0506417
-0.0361961
-0.0182448
0.0033758
0.0283889
0.0554928
0.0820437
0.103859
0.115982
0.114148
0.0965944
0.0764805
-0.107544
-0.107448
-0.107397
-0.107343
-0.107258
-0.107118
-0.1069
-0.106555
-0.106024
-0.105226
-0.104072
-0.102428
-0.100175
-0.0971559
-0.093095
-0.0876178
-0.0803982
-0.0710121
-0.058856
-0.0433596
-0.0240935
-0.000885634
0.0259235
0.0548903
0.0831108
0.106078
0.118543
0.116137
0.0972782
0.0758894
-0.118977
-0.118928
-0.118921
-0.118905
-0.118849
-0.11873
-0.118528
-0.118192
-0.117661
-0.11685
-0.115662
-0.113949
-0.111587
-0.108407
-0.104094
-0.098297
-0.0906092
-0.0805526
-0.0675673
-0.0509583
-0.0302936
-0.0054035
0.0233028
0.0542235
0.0841803
0.108309
0.121072
0.118035
0.0978064
0.0750998
-0.131083
-0.131042
-0.131054
-0.131065
-0.131044
-0.130962
-0.130796
-0.130488
-0.129971
-0.129153
-0.127932
-0.12615
-0.123673
-0.120317
-0.115769
-0.109593
-0.101401
-0.0906978
-0.0767706
-0.0589696
-0.0368013
-0.0101201
0.0206013
0.05357
0.0853149
0.110605
0.123612
0.119838
0.0981496
0.0740861
-0.143909
-0.143917
-0.143973
-0.144022
-0.144029
-0.143967
-0.143814
-0.143515
-0.142998
-0.142166
-0.140908
-0.139053
-0.136455
-0.13292
-0.128094
-0.121555
-0.112836
-0.101369
-0.0864983
-0.067428
-0.0436662
-0.0150879
0.0177543
0.0528598
0.0864514
0.112896
0.126088
0.121513
0.0983063
0.0728544
-0.157376
-0.157398
-0.157482
-0.157566
-0.157616
-0.1576
-0.157491
-0.157226
-0.156728
-0.155892
-0.154601
-0.152673
-0.149948
-0.146221
-0.141129
-0.134169
-0.12488
-0.112672
-0.0967349
-0.0762998
-0.050839
-0.0202392
0.0148387
0.0521778
0.0876522
0.115237
0.128543
0.123053
0.0982429
0.0713773
-0.171573
-0.17165
-0.171786
-0.171919
-0.172008
-0.172023
-0.17194
-0.171695
-0.171206
-0.170363
-0.169036
-0.16703
-0.164175
-0.160248
-0.154848
-0.147481
-0.137588
-0.124521
-0.107505
-0.085626
-0.0583632
-0.0256297
0.011793
0.0514488
0.0888502
0.11755
0.130896
0.124424
0.09796
0.0696625
-0.186515
-0.186608
-0.186776
-0.186947
-0.187082
-0.187146
-0.18711
-0.186902
-0.186434
-0.185587
-0.184226
-0.182142
-0.179147
-0.175007
-0.169311
-0.161467
-0.150932
-0.137022
-0.118789
-0.0953668
-0.066178
-0.0311876
0.00870237
0.0507589
0.0901105
0.119889
0.133188
0.125614
0.0974191
0.0676812
-0.202239
-0.20239
-0.202611
-0.202831
-0.203004
-0.203099
-0.203089
-0.202901
-0.202443
-0.201589
-0.20019
-0.198022
-0.194884
-0.190523
-0.184483
-0.176179
-0.164963
-0.150075
-0.130616
-0.105556
-0.0743306
-0.0369631
0.00550241
0.0500308
0.091359
0.122167
0.135331
0.126586
0.0966225
0.0654441
-0.218673
-0.218847
-0.219108
-0.219376
-0.219604
-0.219756
-0.2198
-0.219656
-0.219224
-0.218371
-0.216937
-0.214685
-0.211395
-0.206798
-0.200423
-0.191586
-0.179643
-0.16379
-0.142954
-0.116139
-0.0827538
-0.0428735
0.00227964
0.0493568
0.0926584
0.124439
0.137364
0.127327
0.0955278
0.0629208
-0.235884
-0.236123
-0.236446
-0.236773
-0.237052
-0.237248
-0.237332
-0.23722
-0.236809
-0.235953
-0.234484
-0.232143
-0.228696
-0.223853
-0.217095
-0.207737
-0.195014
-0.178058
-0.155825
-0.127154
-0.0914879
-0.0489718
-0.00102756
0.0486525
0.0939286
0.126609
0.139191
0.127796
0.0941404
0.0601243
-0.253878
-0.254147
-0.254516
-0.254898
-0.255238
-0.255497
-0.255642
-0.255579
-0.255197
-0.254345
-0.252839
-0.250407
-0.246791
-0.241686
-0.234551
-0.224589
-0.211043
-0.192987
-0.169187
-0.138541
-0.100452
-0.0551712
-0.00432549
0.0480102
0.0952333
0.128727
0.14085
0.127979
0.0924138
0.0570231
-0.272708
-0.273044
-0.273477
-0.273919
-0.274311
-0.274616
-0.274802
-0.274775
-0.274415
-0.273562
-0.272016
-0.269485
-0.265695
-0.260314
-0.25275
-0.242197
-0.227764
-0.208453
-0.183066
-0.150329
-0.109689
-0.0615199
-0.00767983
0.0473405
0.0964828
0.130689
0.142239
0.127833
0.0903559
0.0536339
-0.29231
-0.292681
-0.293169
-0.293673
-0.294135
-0.294509
-0.29476
-0.294785
-0.294457
-0.293605
-0.292018
-0.289386
-0.285407
-0.279736
-0.27175
-0.260513
-0.24514
-0.224563
-0.197406
-0.162438
-0.119113
-0.0679199
-0.0109971
0.04674
0.0977369
0.132546
0.143393
0.127342
0.0879177
0.0499239
-0.312767
-0.31321
-0.313768
-0.314339
-0.314859
-0.315286
-0.315585
-0.315649
-0.315343
-0.314486
-0.312855
-0.310111
-0.305942
-0.299974
-0.291497
-0.279573
-0.263181
-0.24118
-0.212224
-0.174905
-0.128758
-0.0744234
-0.014343
0.0461088
0.098897
0.134182
0.144205
0.126463
0.0851112
0.0459125
-0.334094
-0.334578
-0.33519
-0.335821
-0.336402
-0.336889
-0.337241
-0.337346
-0.337064
-0.336202
-0.334521
-0.331666
-0.327299
-0.320982
-0.312013
-0.299313
-0.281842
-0.258411
-0.22745
-0.187641
-0.138524
-0.080929
-0.0176187
0.0455416
0.100022
0.135643
0.144709
0.125181
0.0818852
0.0415661
-0.356334
-0.356878
-0.357537
-0.358212
-0.358825
-0.359344
-0.359729
-0.359866
-0.359605
-0.358739
-0.357011
-0.354038
-0.349431
-0.342775
-0.333248
-0.319749
-0.30114
-0.276102
-0.24311
-0.200676
-0.148451
-0.0874877
-0.0208974
0.0449294
0.101003
0.136809
0.144794
0.123452
0.0782554
0.0369083
-0.379106
-0.379684
-0.380403
-0.381155
-0.381853
-0.382463
-0.382934
-0.383145
-0.382932
-0.38208
-0.380309
-0.377207
-0.372381
-0.365322
-0.355224
-0.340865
-0.321037
-0.294367
-0.259122
-0.213903
-0.158432
-0.0939877
-0.0240832
0.0443686
0.101892
0.137723
0.144493
0.121263
0.0741702
0.0319044
-0.402291
-0.402998
-0.403865
-0.40476
-0.405596
-0.406327
-0.406911
-0.407215
-0.407069
-0.406242
-0.404435
-0.401209
-0.396114
-0.388669
-0.377944
-0.362675
-0.341539
-0.313044
-0.275502
-0.227357
-0.168501
-0.100488
-0.0272535
0.0437365
0.10257
0.138255
0.143693
0.118571
0.0696508
0.0265809
-0.426863
-0.427584
-0.428479
-0.429421
-0.430319
-0.431124
-0.431788
-0.432165
-0.432071
-0.431259
-0.429404
-0.426035
-0.42069
-0.412789
-0.401411
-0.385151
-0.362611
-0.332247
-0.292155
-0.240924
-0.178542
-0.106875
-0.0303105
0.043125
0.103089
0.138448
0.142426
0.115367
0.0646457
0.0209026
-0.451966
-0.452808
-0.453834
-0.454895
-0.455901
-0.4568
-0.457549
-0.457997
-0.457951
-0.457146
-0.455237
-0.451717
-0.446063
-0.437715
-0.425614
-0.408293
-0.384243
-0.351793
-0.309104
-0.254634
-0.188592
-0.113213
-0.0333435
0.0423993
0.103318
0.138166
0.140581
0.111612
0.0591816
0.0149006
-0.478365
-0.479221
-0.480273
-0.481377
-0.482436
-0.4834
-0.484217
-0.484726
-0.484719
-0.483913
-0.481935
-0.47824
-0.472286
-0.463408
-0.450542
-0.432069
-0.406395
-0.371792
-0.326236
-0.268353
-0.198535
-0.11938
-0.0362612
0.0416508
0.103304
0.137453
0.138191
0.107301
0.0532089
0.00853912
-0.505162
-0.506148
-0.507343
-0.50858
-0.509763
-0.510833
-0.511746
-0.512331
-0.512371
-0.511563
-0.509511
-0.505627
-0.499308
-0.4899
-0.476182
-0.456466
-0.429034
-0.39205
-0.343568
-0.282119
-0.208404
-0.125454
-0.0391619
0.0407297
0.102907
0.13617
0.135149
0.102398
0.0467618
0.00185183
-0.533242
-0.534259
-0.535502
-0.536803
-0.538057
-0.539208
-0.540201
-0.540853
-0.54093
-0.540112
-0.537966
-0.533868
-0.527183
-0.517143
-0.502517
-0.481448
-0.452128
-0.412677
-0.360973
-0.295795
-0.218076
-0.131315
-0.0419557
0.0397214
0.102176
0.134362
0.131488
0.0969063
0.039793
-0.0051968
-0.561918
-0.56306
-0.564441
-0.565868
-0.567239
-0.568489
-0.569572
-0.570294
-0.570408
-0.569569
-0.56732
-0.562982
-0.555856
-0.545174
-0.529534
-0.506995
-0.475633
-0.433461
-0.378474
-0.309414
-0.227596
-0.137054
-0.0447565
0.0384652
0.10096
0.131888
0.127108
0.0907949
0.032344
-0.012569
-0.591922
-0.59309
-0.59451
-0.595994
-0.597428
-0.598751
-0.599905
-0.600685
-0.600823
-0.599953
-0.597574
-0.592965
-0.585384
-0.573942
-0.557213
-0.533076
-0.499516
-0.454511
-0.395935
-0.322825
-0.236844
-0.142545
-0.0474834
0.0370442
0.0993077
0.128799
0.122047
0.0840728
0.0243719
-0.0203006
-0.622483
-0.623777
-0.625338
-0.626954
-0.628509
-0.629936
-0.631183
-0.632028
-0.632192
-0.631277
-0.628754
-0.62384
-0.615721
-0.603493
-0.585541
-0.559659
-0.523712
-0.475608
-0.413375
-0.336078
-0.245869
-0.1479
-0.0502614
0.035286
0.097066
0.124957
0.116211
0.0767169
0.0159264
-0.0283516
-0.654373
-0.655708
-0.657327
-0.659015
-0.660647
-0.662154
-0.663474
-0.664372
-0.664544
-0.663572
-0.660874
-0.655616
-0.646935
-0.633778
-0.614502
-0.586714
-0.5482
-0.496864
-0.430647
-0.349021
-0.254553
-0.152999
-0.0530138
0.033268
0.0942857
0.120417
0.109644
0.0687431
0.00696953
-0.036759
-0.687039
-0.688492
-0.690243
-0.692054
-0.693796
-0.695396
-0.696797
-0.697743
-0.69792
-0.696867
-0.693973
-0.688337
-0.678977
-0.664833
-0.64407
-0.614198
-0.572905
-0.518047
-0.447786
-0.36171
-0.262961
-0.157973
-0.055881
0.0308131
0.0908125
0.11505
0.102262
0.0601359
-0.00244071
-0.0454816
-0.721111
-0.7226
-0.724401
-0.726277
-0.728085
-0.729754
-0.731215
-0.732199
-0.732358
-0.731208
-0.728085
-0.721975
-0.711885
-0.6966
-0.674218
-0.642087
-0.597809
-0.539272
-0.46464
-0.373988
-0.270985
-0.1627
-0.0587951
0.0279973
0.0867005
0.108918
0.0941143
0.0509182
-0.0123359
-0.0545576
-0.756008
-0.757611
-0.759544
-0.76154
-0.763458
-0.765217
-0.766752
-0.76777
-0.767902
-0.766625
-0.763193
-0.756577
-0.745629
-0.7291
-0.704933
-0.670333
-0.622822
-0.560308
-0.481249
-0.385933
-0.278706
-0.167335
-0.0619048
0.0246396
0.0818005
0.101902
0.0851287
0.0410814
-0.0226491
-0.0639436
-0.792354
-0.794007
-0.796008
-0.798084
-0.800079
-0.801909
-0.803496
-0.804531
-0.804605
-0.803151
-0.799395
-0.79215
-0.780261
-0.762345
-0.736216
-0.698927
-0.647948
-0.581279
-0.497462
-0.397397
-0.28602
-0.171765
-0.0651453
0.0208145
0.076174
0.0940705
0.0753636
0.0306547
-0.0334053
-0.0736766
-0.829782
-0.831546
-0.833676
-0.83587
-0.837968
-0.839879
-0.841519
-0.842554
-0.842549
-0.840888
-0.836702
-0.828787
-0.815827
-0.796365
-0.768058
-0.72782
-0.673089
-0.601951
-0.51334
-0.408478
-0.293032
-0.176162
-0.068674
0.0163473
0.0696793
0.0853202
0.0647569
0.0196365
-0.0445293
-0.0837105
-0.868869
-0.870691
-0.872889
-0.875155
-0.877314
-0.87927
-0.88093
-0.881935
-0.881807
-0.879879
-0.87524
-0.866512
-0.852362
-0.831173
-0.800463
-0.757015
-0.698263
-0.622459
-0.528739
-0.419028
-0.299653
-0.180413
-0.0724303
0.0113135
0.0623856
0.0757285
0.0533759
0.00806066
-0.0560387
-0.094082
-0.909404
-0.911307
-0.913593
-0.915935
-0.918149
-0.92014
-0.921804
-0.92275
-0.922468
-0.92023
-0.915018
-0.905416
-0.889911
-0.866794
-0.833415
-0.786452
-0.72336
-0.642577
-0.543737
-0.429176
-0.306009
-0.184711
-0.0765701
0.00554613
0.0541645
0.0652055
0.0411712
-0.00406942
-0.0678506
-0.104743
-0.95151
-0.953481
-0.955849
-0.958272
-0.960544
-0.962567
-0.964221
-0.965091
-0.964612
-0.961998
-0.956171
-0.945524
-0.928513
-0.903245
-0.86693
-0.816149
-0.748422
-0.66246
-0.5582
-0.438792
-0.312017
-0.188946
-0.0810303
-0.000877335
0.0450961
0.0538379
0.0282194
-0.0167169
-0.0799755
-0.115731
-0.995239
-0.997298
-0.999763
-1.00227
-1.0046
-1.00665
-1.00829
-1.00906
-1.00835
-1.0053
-0.998728
-0.986948
-0.968226
-0.940558
-0.900989
-0.846041
-0.773341
-0.681892
-0.572239
-0.448033
-0.317825
-0.19332
-0.0859636
-0.00810569
0.0350669
0.0415537
0.0144838
-0.0298738
-0.0923232
-0.126994
-1.04079
-1.04292
-1.04548
-1.04808
-1.05047
-1.05254
-1.05414
-1.05478
-1.05379
-1.05024
-1.04285
-1.02973
-1.00911
-0.97877
-0.935627
-0.876171
-0.79818
-0.701046
-0.58574
-0.456777
-0.323363
-0.197719
-0.0913028
-0.016058
0.0241683
0.0284467
5.07754e-05
-0.0435028
-0.104897
-0.138569
-1.08826
-1.09049
-1.09315
-1.09584
-1.09828
-1.10037
-1.10192
-1.1024
-1.10109
-1.09695
-1.08858
-1.07401
-1.05124
-1.01792
-0.970826
-0.906474
-0.822839
-0.719735
-0.598844
-0.465213
-0.328794
-0.202352
-0.0971861
-0.0248661
0.0123064
0.0144587
-0.015103
-0.057595
-0.117601
-0.150404
-1.13788
-1.1402
-1.14296
-1.14573
-1.14823
-1.15032
-1.15179
-1.15208
-1.15038
-1.14556
-1.13613
-1.11986
-1.09469
-1.05806
-1.00665
-0.937024
-0.847419
-0.738166
-0.611459
-0.473241
-0.334048
-0.207102
-0.103537
-0.0344453
-0.000415059
-0.000311232
-0.0308808
-0.072115
-0.130432
-0.162532
-1.18978
-1.1922
-1.19508
-1.19794
-1.20048
-1.20255
-1.20394
-1.20398
-1.20183
-1.19626
-1.18557
-1.16743
-1.13956
-1.09924
-1.04308
-0.967766
-0.87184
-0.756183
-0.623765
-0.481076
-0.339302
-0.212169
-0.110476
-0.0449005
-0.0140699
-0.0159049
-0.0472924
-0.0870534
-0.143289
-0.174902
-1.2442
-1.24672
-1.24971
-1.25266
-1.25524
-1.25728
-1.25854
-1.2583
-1.25563
-1.24915
-1.23707
-1.21681
-1.18592
-1.14155
-1.08023
-0.998819
-0.896244
-0.774025
-0.635705
-0.488625
-0.344484
-0.217427
-0.117914
-0.0561466
-0.0285421
-0.0322224
-0.0642299
-0.102379
-0.156163
-0.187545
-1.30131
-1.30394
-1.30705
-1.31009
-1.3127
-1.31469
-1.31579
-1.31522
-1.31191
-1.30442
-1.29075
-1.26817
-1.23396
-1.18508
-1.11811
-1.03015
-0.920585
-0.791586
-0.647494
-0.49613
-0.349775
-0.223066
-0.125948
-0.0682691
-0.0438827
-0.049296
-0.0816894
-0.118087
-0.168952
-0.200408
-1.36134
-1.36409
-1.36731
-1.37044
-1.37307
-1.37499
-1.37589
-1.3749
-1.3709
-1.36222
-1.34679
-1.32163
-1.28379
-1.22998
-1.15687
-1.06193
-0.945056
-0.809152
-0.659099
-0.503511
-0.355086
-0.228947
-0.134473
-0.0811854
-0.0599612
-0.0670279
-0.0995505
-0.134153
-0.181641
-0.21352
-1.42442
-1.4273
-1.43066
-1.43388
-1.43654
-1.43838
-1.43905
-1.43761
-1.43277
-1.42281
-1.40538
-1.37735
-1.33547
-1.27627
-1.19652
-1.09415
-0.969656
-0.82666
-0.670776
-0.511023
-0.360594
-0.235236
-0.143557
-0.0949534
-0.0768052
-0.0854381
-0.117795
-0.150574
-0.194128
-0.226826
-1.49073
-1.49377
-1.4973
-1.50065
-1.50334
-1.5051
-1.50551
-1.50354
-1.49781
-1.48633
-1.46668
-1.43547
-1.38911
-1.32406
-1.23723
-1.12701
-0.994629
-0.844429
-0.68252
-0.518582
-0.366193
-0.241785
-0.153079
-0.109501
-0.0942671
-0.104438
-0.136288
-0.167336
-0.206392
-0.240353
-1.56064
-1.56385
-1.56755
-1.57103
-1.57375
-1.57541
-1.57552
-1.57297
-1.56618
-1.55307
-1.53091
-1.49615
-1.44484
-1.37341
-1.27904
-1.16057
-1.02002
-0.862453
-0.694616
-0.526451
-0.372041
-0.248737
-0.163078
-0.124874
-0.112347
-0.124043
-0.154996
-0.184442
-0.218337
-0.254043
-1.63443
-1.63781
-1.6417
-1.64532
-1.64806
-1.64958
-1.64936
-1.64613
-1.63819
-1.6232
-1.59828
-1.5596
-1.50287
-1.42456
-1.32219
-1.1951
-1.04615
-0.881114
-0.707071
-0.534544
-0.378005
-0.255941
-0.173412
-0.141015
-0.130879
-0.144178
-0.173771
-0.201889
-0.229939
-0.267921
-1.71234
-1.71592
-1.72001
-1.72377
-1.72653
-1.7279
-1.72729
-1.7233
-1.71404
-1.69701
-1.669
-1.62602
-1.56337
-1.47763
-1.36676
-1.23069
-1.07311
-0.900436
-0.7202
-0.543117
-0.384226
-0.263509
-0.184088
-0.157947
-0.14983
-0.164852
-0.192561
-0.219687
-0.241106
-0.281923
-1.79465
-1.79845
-1.80276
-1.80667
-1.80944
-1.81065
-1.80959
-1.80475
-1.79406
-1.77471
-1.74332
-1.6956
-1.62654
-1.53287
-1.41309
-1.26771
-1.1013
-0.920844
-0.734015
-0.552066
-0.390548
-0.271299
-0.194946
-0.175643
-0.16901
-0.186005
-0.211203
-0.237843
-0.251819
-0.296081
-1.88163
-1.88567
-1.89023
-1.8943
-1.89709
-1.89809
-1.89654
-1.89076
-1.87844
-1.85658
-1.82147
-1.7685
-1.69251
-1.59047
-1.46134
-1.30633
-1.13087
-0.942401
-0.748841
-0.561644
-0.397091
-0.279412
-0.20596
-0.194123
-0.188356
-0.207647
-0.229631
-0.256374
-0.26207
-0.310344
-1.97357
-1.97787
-1.98269
-1.98695
-1.98975
-1.99052
-1.98841
-1.98156
-1.96747
-1.94283
-1.90373
-1.8451
-1.76171
-1.6508
-1.51192
-1.347
-1.1623
-0.965588
-0.764676
-0.571737
-0.40368
-0.287724
-0.216939
-0.213383
-0.20764
-0.229731
-0.247668
-0.275296
-0.2722
-0.324684
-2.07069
-2.07529
-2.08041
-2.08486
-2.08767
-2.08819
-2.08543
-2.07742
-2.06135
-2.03373
-1.9904
-1.92584
-1.83459
-1.71417
-1.56512
-1.38999
-1.19581
-0.990485
-0.781853
-0.582583
-0.410422
-0.296877
-0.228514
-0.233364
-0.226732
-0.252244
-0.265225
-0.294595
-0.282597
-0.33894
-2.17329
-2.17821
-2.18364
-2.18832
-2.19113
-2.19135
-2.18791
-2.17858
-2.16038
-2.12949
-2.08163
-2.01092
-1.91149
-1.78104
-1.62142
-1.43583
-1.23193
-1.01761
-0.800342
-0.594063
-0.417437
-0.308261
-0.241916
-0.254094
-0.245369
-0.275153
-0.282117
-0.314252
-0.293417
-0.353095
-2.28162
-2.28689
-2.29268
-2.2976
-2.30042
-2.30032
-2.2961
-2.28537
-2.26481
-2.23036
-2.17769
-2.10054
-1.99254
-1.8517
-1.68118
-1.48485
-1.27093
-1.04704
-0.820462
-0.606353
-0.426348
-0.32361
-0.25822
-0.275758
-0.263858
-0.298463
-0.298254
-0.334235
-0.30458
-0.367078
-2.39597
-2.40163
-2.4078
-2.41298
-2.41581
-2.41536
-2.4103
-2.39799
-2.37488
-2.33659
-2.27897
-2.1951
-2.07812
-1.92664
-1.74498
-1.5377
-1.31345
-1.07932
-0.842146
-0.619043
-0.439128
-0.343853
-0.277757
-0.298707
-0.282943
-0.322171
-0.313717
-0.354461
-0.316028
-0.380917
-2.51656
-2.52264
-2.52924
-2.53471
-2.53756
-2.53671
-2.53071
-2.51671
-2.4908
-2.44855
-2.38587
-2.29492
-2.16858
-2.00629
-1.81327
-1.5948
-1.35978
-1.11453
-0.865701
-0.633719
-0.457069
-0.369475
-0.300792
-0.323147
-0.303499
-0.346326
-0.329201
-0.374769
-0.327653
-0.394541
-2.64362
-2.65016
-2.65723
-2.66302
-2.66586
-2.66458
-2.65757
-2.64169
-2.61288
-2.56672
-2.49888
-2.40057
-2.26459
-2.09131
-1.88678