/*--------------------------------*- C++ -*----------------------------------*\
  =========                 |
  \\      /  F ield         | OpenFOAM: The Open Source CFD Toolbox
   \\    /   O peration     | Website:  https://openfoam.org
    \\  /    A nd           | Version:  6.0
     \\/     M anipulation  |
\*---------------------------------------------------------------------------*/
FoamFile
{
    version     2.0;
    format      ascii;
    class       surfaceScalarField;
    location    "3";
    object      phi;
}
// * * * * * * * * * * * * * * * * * * * * * * * * * * * * * * * * * * * * * //

dimensions      [0 3 -1 0 0 0 0];

internalField   nonuniform List<scalar> 
30763
(
-5.25454e-05
4.48233e-05
5.40745e-05
-5.08034e-05
5.25511e-05
-4.86932e-05
6.16135e-05
-4.62826e-05
7.22411e-05
-4.33917e-05
8.47013e-05
-4.00616e-05
9.93149e-05
-3.61021e-05
0.000116456
-3.1494e-05
0.000136535
-2.60438e-05
0.0001601
-1.966e-05
0.000187694
-1.21112e-05
0.000220052
-3.2532e-06
0.000257959
7.21383e-06
0.000302336
1.95556e-05
0.000354238
3.41215e-05
0.000414906
5.1283e-05
0.000485673
7.15119e-05
0.000567997
9.5303e-05
0.000663398
0.000123223
0.000773319
0.000155921
0.000898892
0.000194112
0.00104054
0.000238466
0.00119733
0.000289529
0.0013658
0.000347518
0.00153832
0.000412027
0.00170055
0.000481663
0.00182779
0.000553608
0.00187976
0.000622665
0.00179357
0.000679779
0.00147414
0.000744109
0.000705177
-5.23672e-05
4.334e-05
5.38532e-05
-5.0668e-05
5.08108e-05
-4.86162e-05
5.95723e-05
-4.62606e-05
6.98479e-05
-4.34376e-05
8.18928e-05
-4.01777e-05
9.60215e-05
-3.63048e-05
0.000112598
-3.17924e-05
0.000131994
-2.64625e-05
0.00015478
-2.0216e-05
0.000181427
-1.28463e-05
0.000212684
-4.1923e-06
0.000249291
6.0137e-06
0.000292124
1.80537e-05
0.000342188
3.22489e-05
0.000400699
4.89837e-05
0.000468936
6.87063e-05
0.000548286
9.18986e-05
0.000640225
0.000119097
0.000746131
0.000150913
0.000867074
0.000188014
0.00100344
0.000231013
0.00115435
0.000280399
0.00131647
0.000336351
0.00148248
0.000398473
0.00163863
0.000465455
0.00176117
0.00053464
0.00181119
0.000600984
0.00172772
0.000655458
0.00141969
0.000721528
0.00067845
-5.1429e-05
4.19039e-05
5.28558e-05
-4.97769e-05
4.9126e-05
-4.77906e-05
5.75963e-05
-4.55029e-05
6.75307e-05
-4.27656e-05
7.91727e-05
-3.96026e-05
9.28305e-05
-3.58451e-05
0.000108858
-3.14656e-05
0.000127589
-2.62907e-05
0.000149616
-2.02231e-05
0.000175339
-1.30614e-05
0.000205524
-4.6466e-06
0.000240863
5.27701e-06
0.000282194
1.69842e-05
0.000330471
3.07818e-05
0.000386889
4.70445e-05
0.000452668
6.62054e-05
0.000529135
8.8725e-05
0.000617716
0.000115117
0.00071974
0.00014596
0.000836222
0.000181876
0.000967515
0.000223436
0.0011128
0.000271087
0.00126885
0.000324991
0.00142864
0.000384775
0.00157894
0.000449206
0.00169686
0.00051575
0.00174486
0.000579511
0.00166398
0.000631845
0.00136722
0.000697971
0.000654661
-5.00308e-05
4.05208e-05
5.14215e-05
-4.84408e-05
4.75028e-05
-4.65291e-05
5.56917e-05
-4.43272e-05
6.52962e-05
-4.16939e-05
7.65483e-05
-3.86439e-05
8.975e-05
-3.50219e-05
0.000105246
-3.07917e-05
0.000123333
-2.57929e-05
0.000144624
-1.99253e-05
0.000169452
-1.29974e-05
0.000198596
-4.85268e-06
0.000232706
4.75529e-06
0.000272578
1.60926e-05
0.000319124
2.94523e-05
0.000373516
4.51987e-05
0.000436916
6.37455e-05
0.000510592
8.55408e-05
0.000595932
0.000111072
0.000694207
0.000140892
0.000806388
0.000175589
0.000932796
0.0002157
0.00107267
0.000261646
0.00122289
0.000313578
0.00137671
0.000371142
0.00152142
0.000433169
0.00163495
0.000497226
0.00168109
0.000558566
0.00160284
0.000608936
0.00131667
0.000675064
0.000631732
-4.84957e-05
3.91892e-05
4.98121e-05
-4.69619e-05
4.59405e-05
-4.51209e-05
5.38588e-05
-4.29957e-05
6.31461e-05
-4.04554e-05
7.40233e-05
-3.75149e-05
8.6786e-05
-3.40228e-05
0.000101769
-2.99464e-05
0.000119235
-2.5127e-05
0.000139814
-1.94685e-05
0.000163775
-1.27836e-05
0.000191911
-4.91963e-06
0.000224829
4.36141e-06
0.000263289
1.5315e-05
0.00030816
2.82248e-05
0.000360593
4.34388e-05
0.000421695
6.1361e-05
0.000492679
8.24133e-05
0.000574885
0.000107072
0.000669548
0.000135859
0.000777584
0.00016934
0.000899294
0.000208021
0.00103397
0.000252305
0.00117859
0.000302333
0.00132668
0.000357773
0.00146599
0.000417509
0.00157525
0.000479199
0.0016195
0.000538242
0.00154374
0.000586768
0.00126792
0.000651588
0.000609404
-4.68353e-05
3.7912e-05
4.81238e-05
-4.5363e-05
4.44414e-05
-4.35975e-05
5.20992e-05
-4.156e-05
6.10807e-05
-3.91262e-05
7.1596e-05
-3.63013e-05
8.39347e-05
-3.29475e-05
9.84224e-05
-2.90233e-05
0.000115288
-2.43841e-05
0.00013518
-1.89309e-05
0.000158304
-1.24871e-05
0.000185467
-4.90324e-06
0.000217233
4.04974e-06
0.000254329
1.46185e-05
0.000297582
2.70744e-05
0.000348124
4.17565e-05
0.000407008
5.90456e-05
0.000475391
7.93589e-05
0.000554583
0.000103144
0.00064576
0.000130907
0.000749803
0.000163187
0.000866989
0.000200467
0.000996657
0.000243134
0.0011359
0.000291325
0.00127846
0.000344726
0.00141258
0.000402272
0.00151775
0.000461706
0.00156024
0.000518577
0.00148696
0.000565331
0.0012209
0.000628958
0.00058769
-4.52706e-05
3.66793e-05
4.64902e-05
-4.38485e-05
4.29952e-05
-4.21436e-05
5.04027e-05
-4.01733e-05
5.90905e-05
-3.78212e-05
6.92584e-05
-3.50954e-05
8.11899e-05
-3.18602e-05
9.52015e-05
-2.80799e-05
0.000111489
-2.36105e-05
0.000130719
-1.83579e-05
0.000153035
-1.21497e-05
0.000179258
-4.84068e-06
0.000209913
3.78918e-06
0.000245692
1.39769e-05
0.000287385
2.59856e-05
0.000336103
4.01372e-05
0.000392849
5.6806e-05
0.00045873
7.63843e-05
0.000535009
9.93096e-05
0.000622832
0.000126066
0.000723033
0.000157168
0.000835865
0.000193085
0.000960719
0.000234185
0.00109478
0.000280605
0.00123203
0.000332048
0.00136114
0.000387496
0.00146231
0.000444771
0.00150304
0.000499569
0.0014321
0.000544636
0.0011756
0.000606188
0.000566606
-4.36573e-05
3.54956e-05
4.48564e-05
-4.22916e-05
4.16058e-05
-4.06565e-05
4.87719e-05
-3.87675e-05
5.7176e-05
-3.65138e-05
6.70081e-05
-3.38943e-05
7.85461e-05
-3.07866e-05
9.20979e-05
-2.71461e-05
0.000107828
-2.28435e-05
0.000126419
-1.77818e-05
0.000147958
-1.18004e-05
0.000173275
-4.75747e-06
0.000202859
3.55801e-06
0.000237369
1.33748e-05
0.00027756
2.4944e-05
0.000324522
3.85795e-05
0.000379209
5.46353e-05
0.000442675
7.34983e-05
0.000516158
9.5582e-05
0.000600747
0.000121355
0.000697246
0.000151313
0.000805882
0.000185905
0.000926097
0.00022549
0.00105516
0.000270202
0.00118729
0.000319762
0.00131155
0.000373196
0.0014089
0.000428401
0.00144797
0.000481225
0.00137935
0.000524665
0.00113186
0.000584364
0.000546181
-4.21849e-05
3.43512e-05
4.33145e-05
-4.08643e-05
4.02634e-05
-3.92827e-05
4.71973e-05
-3.74527e-05
5.53292e-05
-3.5271e-05
6.48392e-05
-3.27402e-05
7.59994e-05
-2.97399e-05
8.91096e-05
-2.6231e-05
0.000104303
-2.20851e-05
0.000122279
-1.72098e-05
0.000143069
-1.14487e-05
0.000167513
-4.66436e-06
0.000196065
3.34566e-06
0.000229352
1.28007e-05
0.000268096
2.39441e-05
0.000313368
3.70742e-05
0.000366071
5.25401e-05
0.000427218
7.07016e-05
0.000497999
9.19692e-05
0.000579481
0.000116787
0.000672415
0.000145635
0.000777015
0.000178947
0.000892766
0.000217069
0.00101702
0.000260136
0.00114421
0.000307885
0.0012638
0.000359382
0.00135742
0.0004126
0.00139482
0.000463529
0.00132838
0.000505417
0.00108973
0.000562664
0.000526419
-4.06659e-05
3.32532e-05
4.17844e-05
-3.93953e-05
3.89748e-05
-3.7878e-05
4.56847e-05
-3.61232e-05
5.35537e-05
-3.40333e-05
6.27522e-05
-3.16016e-05
7.35475e-05
-2.87199e-05
8.62311e-05
-2.53412e-05
0.000100908
-2.13505e-05
0.000118291
-1.66538e-05
0.000138359
-1.1105e-05
0.000161963
-4.5704e-06
0.00018952
3.14414e-06
0.000221631
1.22499e-05
0.000258982
2.29795e-05
0.000302627
3.56247e-05
0.000353424
5.0511e-05
0.000412332
6.80003e-05
0.000480522
8.84752e-05
0.000559006
0.00011237
0.000648508
0.000140145
0.000749218
0.00017222
0.000860662
0.000208932
0.000980277
0.000250413
0.00110269
0.000296418
0.00121777
0.000346052
0.0013078
0.00039736
0.00134362
0.000446474
0.00127932
0.000486865
0.00104904
0.000541894
0.000507326
-3.92929e-05
3.21913e-05
4.03452e-05
-3.80644e-05
3.77292e-05
-3.65955e-05
4.4224e-05
-3.48947e-05
5.18405e-05
-3.28704e-05
6.07405e-05
-3.05205e-05
7.11857e-05
-2.77378e-05
8.34598e-05
-2.44818e-05
9.7639e-05
-2.0637e-05
0.000114452
-1.61142e-05
0.000133824
-1.0771e-05
0.000156619
-4.47792e-06
0.000183218
2.95072e-06
0.000214196
1.17182e-05
0.000250207
2.20501e-05
0.000292286
3.42217e-05
0.000341246
4.85564e-05
0.000398005
6.539e-05
0.000463692
8.51009e-05
0.000539295
0.000108105
0.000625495
0.000134845
0.000722462
0.000165728
0.000829763
0.000201081
0.000944911
0.000241036
0.00106272
0.000285362
0.00117344
0.000333203
0.00125998
0.000382673
0.00129423
0.00043004
0.00123193
0.000468998
0.00100984
0.000521392
0.000488891
-3.78737e-05
3.11723e-05
3.89153e-05
-3.66939e-05
3.65333e-05
-3.52867e-05
4.28203e-05
-3.36581e-05
5.01927e-05
-3.17204e-05
5.88037e-05
-2.94637e-05
6.89103e-05
-2.67916e-05
8.07887e-05
-2.36563e-05
9.44884e-05
-1.99555e-05
0.000110752
-1.55979e-05
0.000129455
-1.04516e-05
0.00015147
-4.39086e-06
0.000177149
2.76264e-06
0.000207036
1.1205e-05
0.000241758
2.11513e-05
0.00028233
3.28705e-05
0.000329523
4.66663e-05
0.000384209
6.28736e-05
0.000447497
8.18474e-05
0.000520322
0.000103993
0.000603341
0.000129736
0.000696698
0.000159472
0.000800003
0.000193515
0.000910834
0.000232001
0.0010242
0.000274709
0.00113071
0.000320823
0.00121388
0.000368523
0.00124663
0.000414212
0.00118629
0.000451788
0.000971959
0.000501775
0.000471106
-3.66083e-05
3.01858e-05
3.75822e-05
-3.54676e-05
3.53763e-05
-3.41043e-05
4.14635e-05
-3.25244e-05
4.86018e-05
-3.06459e-05
5.6936e-05
-2.84637e-05
6.67179e-05
-2.58824e-05
7.82167e-05
-2.28602e-05
9.14553e-05
-1.92941e-05
0.00010719
-1.50981e-05
0.000125248
-1.0143e-05
0.000146514
-4.30698e-06
0.000171305
2.58059e-06
0.000200142
1.07081e-05
0.000233623
2.02843e-05
0.000272745
3.15638e-05
0.000318237
4.48483e-05
0.000370934
6.04456e-05
0.000431902
7.8712e-05
0.000502059
0.00010003
0.000582016
0.000124815
0.000671902
0.000153445
0.00077136
0.000186229
0.000878039
0.0002233
0.000987126
0.000264452
0.00108955
0.000308903
0.00116946
0.000354898
0.00120072
0.000398969
0.00114222
0.00043522
0.000935473
0.000482539
0.000453952
-3.52885e-05
2.92404e-05
3.62589e-05
-3.41909e-05
3.42669e-05
-3.28846e-05
4.01613e-05
-3.13716e-05
4.70733e-05
-2.95742e-05
5.51396e-05
-2.74791e-05
6.46076e-05
-2.5001e-05
7.57396e-05
-2.20919e-05
8.85336e-05
-1.866e-05
0.000103759
-1.46186e-05
0.000121197
-9.84721e-06
0.00014174
-4.22803e-06
0.000165678
2.40334e-06
0.000193506
1.02284e-05
0.000225792
1.94464e-05
0.000263517
3.03078e-05
0.000307374
4.30908e-05
0.00035815
5.81092e-05
0.000416895
7.56919e-05
0.000484478
9.62143e-05
0.000561484
0.000120077
0.000648024
0.000147643
0.000743769
0.000179216
0.000846437
0.000214925
0.000951382
0.000254579
0.00104988
0.000297427
0.00112663
0.00034178
0.00115645
0.000384296
0.00109975
0.000419267
0.000900204
0.000464101
0.000437414
-3.41151e-05
2.83251e-05
3.50229e-05
-3.30539e-05
3.31934e-05
-3.17877e-05
3.89028e-05
-3.03194e-05
4.55978e-05
-2.85763e-05
5.34074e-05
-2.65506e-05
6.25746e-05
-2.41566e-05
7.33547e-05
-2.13531e-05
8.57214e-05
-1.80471e-05
0.000100457
-1.41562e-05
0.000117297
-9.56273e-06
0.000137145
-4.15239e-06
0.000160261
2.23161e-06
0.000187116
9.76455e-06
0.000218252
1.864e-05
0.000254635
2.90931e-05
0.000296915
4.14027e-05
0.000345848
5.58569e-05
0.000402444
7.27835e-05
0.000467553
9.25416e-05
0.000541721
0.000115516
0.00062504
0.00014206
0.000717215
0.000172467
0.000816023
0.000206867
0.000916979
0.000245078
0.00101167
0.000286383
0.00108535
0.000329154
0.00111377
0.000370169
0.00105875
0.000403912
0.000866233
0.000446134
0.000421474
-3.28876e-05
2.74478e-05
3.37911e-05
-3.18685e-05
3.21638e-05
-3.06569e-05
3.76942e-05
-2.92527e-05
4.41792e-05
-2.75859e-05
5.17403e-05
-2.56419e-05
6.06164e-05
-2.3344e-05
7.10564e-05
-2.06452e-05
8.30111e-05
-1.74632e-05
9.72744e-05
-1.37151e-05
0.00011354
-9.29143e-06
0.00013272
-4.08193e-06
0.000155044
2.06467e-06
0.000180964
9.31748e-06
0.000210994
1.7861e-05
0.000246083
2.7926e-05
0.000286847
3.97723e-05
0.000334
5.36903e-05
0.000388537
6.9985e-05
0.000451259
8.90076e-05
0.000522694
0.000111128
0.000602904
0.00013669
0.000691633
0.000165975
0.000786708
0.000199114
0.000883809
0.000235936
0.000974822
0.000275755
0.00104555
0.000317003
0.0010726
0.000356574
0.00101922
0.00038913
0.000833388
0.000428879
0.000406114
-3.18078e-05
2.65975e-05
3.2648e-05
-3.08226e-05
3.11667e-05
-2.96473e-05
3.65253e-05
-2.82838e-05
4.2809e-05
-2.6666e-05
5.01322e-05
-2.47854e-05
5.87294e-05
-2.25645e-05
6.88434e-05
-1.99631e-05
8.0402e-05
-1.6897e-05
9.42114e-05
-1.32883e-05
0.000109924
-9.0296e-06
0.000128459
-4.01376e-06
0.000150023
1.90371e-06
0.000175042
8.88561e-06
0.000204006
1.71113e-05
0.000237851
2.67986e-05
0.000277154
3.82077e-05
0.0003226
5.16023e-05
0.000375143
6.72919e-05
0.000435574
8.56061e-05
0.000504375
0.000106906
0.000581598
0.000131522
0.000667011
0.000159729
0.000758496
0.000191655
0.000851882
0.000227141
0.000939344
0.000265529
0.0010072
0.00030531
0.00103291
0.000343489
0.000981066
0.000374905
0.000801753
0.000412181
0.000391322
-3.06673e-05
2.57835e-05
3.15086e-05
-2.97195e-05
3.02116e-05
-2.85945e-05
3.54043e-05
-2.72903e-05
4.14932e-05
-2.57439e-05
4.8586e-05
-2.39395e-05
5.69133e-05
-2.18083e-05
6.67122e-05
-1.93046e-05
7.7889e-05
-1.63541e-05
9.1261e-05
-1.28787e-05
0.000106441
-8.77816e-06
0.000124357
-3.94918e-06
0.000145187
1.74792e-06
0.00016934
8.46994e-06
0.000197279
1.63881e-05
0.000229925
2.57175e-05
0.000267824
3.6696e-05
0.000311619
4.95961e-05
0.000362255
6.47006e-05
0.000420472
8.23345e-05
0.000486734
0.000102845
0.000561075
0.000126551
0.000643283
0.000153722
0.000731301
0.000184481
0.000821091
0.000218681
0.000905121
0.000255691
0.000970197
0.000294059
0.000994607
0.000330897
0.000944264
0.000361213
0.000771161
0.000396065
0.000377069
-2.96644e-05
2.49947e-05
3.04474e-05
-2.87482e-05
2.92867e-05
-2.76566e-05
3.43201e-05
-2.63902e-05
4.02225e-05
-2.48891e-05
4.70948e-05
-2.31439e-05
5.51636e-05
-2.10843e-05
6.46603e-05
-1.86717e-05
7.547e-05
-1.58294e-05
8.84213e-05
-1.24837e-05
0.000103088
-8.53611e-06
0.000120407
-3.88656e-06
0.000140532
1.59796e-06
0.00016385
8.06921e-06
0.000190802
1.56938e-05
0.000222295
2.46728e-05
0.00025884
3.52469e-05
0.000301052
4.76634e-05
0.000349839
6.22065e-05
0.000405931
7.91869e-05
0.000469753
9.8938e-05
0.00054132
0.00012177
0.000620448
0.000147942
0.000705127
0.000177579
0.000791456
0.000210542
0.000872171
0.000246227
0.000934554
0.000283234
0.000957693
0.000318781
0.000908756
0.000348039
0.000741694
0.000380526
0.000363347
-2.86028e-05
2.42392e-05
2.93844e-05
-2.77241e-05
2.84001e-05
-2.66811e-05
3.32795e-05
-2.54717e-05
3.90011e-05
-2.40378e-05
4.56596e-05
-2.23642e-05
5.34781e-05
-2.03879e-05
6.26825e-05
-1.80655e-05
7.31384e-05
-1.53297e-05
8.56845e-05
-1.21066e-05
9.98582e-05
-8.3047e-06
0.000116603
-3.82765e-06
0.000136049
1.45324e-06
0.000158565
7.6843e-06
0.000184566
1.50242e-05
0.000214948
2.36711e-05
0.000250191
3.38477e-05
0.000290873
4.58059e-05
0.000337892
5.98082e-05
0.00039193
7.61594e-05
0.000453398
9.51802e-05
0.000522286
0.000117171
0.00059844
0.000142383
0.000679889
0.000170941
0.00076287
0.000202713
0.000840376
0.000237122
0.000900154
0.000272819
0.000922056
0.000307123
0.000874488
0.00033536
0.000713193
0.000365536
0.00035012
-2.76796e-05
2.35062e-05
2.84014e-05
-2.68305e-05
2.75407e-05
-2.58179e-05
3.22722e-05
-2.46429e-05
3.78207e-05
-2.32497e-05
4.42748e-05
-2.16302e-05
5.18536e-05
-1.97193e-05
6.0778e-05
-1.74808e-05
7.08936e-05
-1.48443e-05
8.30499e-05
-1.1741e-05
9.67485e-05
-8.08064e-06
0.00011294
-3.76958e-06
0.000131733
1.31485e-06
0.000153476
7.31363e-06
0.000178562
1.43813e-05
0.000207875
2.27042e-05
0.000241862
3.25074e-05
0.000281078
4.40165e-05
0.000326381
5.75012e-05
0.00037845
7.32459e-05
0.000437652
9.1565e-05
0.000503966
0.000112747
0.000577257
0.000137036
0.0006556
0.000164556
0.000735357
0.000195182
0.000809765
0.000228363
0.000867019
0.000262801
0.000887713
0.000295906
0.00084143
0.00032316
0.000685743
0.000351117
0.000337381
-2.66913e-05
2.28052e-05
2.74164e-05
-2.58759e-05
2.6718e-05
-2.49083e-05
3.13067e-05
-2.37862e-05
3.66875e-05
-2.24562e-05
4.29432e-05
-2.09033e-05
5.02899e-05
-1.90701e-05
5.89433e-05
-1.69157e-05
6.87309e-05
-1.43783e-05
8.05117e-05
-1.13893e-05
9.37531e-05
-7.86432e-06
0.000109413
-3.71348e-06
0.000127577
1.18216e-06
0.000148576
6.95828e-06
0.000172781
1.37623e-05
0.000201064
2.17792e-05
0.000233845
3.12124e-05
0.000271641
4.22989e-05
0.000315306
5.52821e-05
0.000365469
7.04445e-05
0.000422484
8.8088e-05
0.000486313
0.000108491
0.000556836
0.000131893
0.000632176
0.000158413
0.000708808
0.000187939
0.000780219
0.000219938
0.000835025
0.000253163
0.000854543
0.000285115
0.00080951
0.000311419
0.000659193
0.000337225
0.000325112
-2.5833e-05
2.2125e-05
2.65028e-05
-2.50447e-05
2.59206e-05
-2.41048e-05
3.03721e-05
-2.30142e-05
3.55924e-05
-2.17216e-05
4.16586e-05
-2.02192e-05
4.87831e-05
-1.84468e-05
5.71768e-05
-1.63707e-05
6.6649e-05
-1.39261e-05
7.80684e-05
-1.10485e-05
9.08693e-05
-7.65465e-06
0.000106017
-3.6575e-06
0.000123575
1.05594e-06
0.000143858
6.61712e-06
0.000167216
1.31697e-05
0.000194507
2.08857e-05
0.000226124
2.99732e-05
0.00026256
4.06444e-05
0.000304634
5.31468e-05
0.000352968
6.77495e-05
0.000407882
8.47423e-05
0.00046932
0.000104397
0.000537183
0.000126945
0.000609632
0.000152505
0.000683256
0.000180971
0.000751772
0.000211835
0.000804209
0.000243893
0.000822582
0.000274735
0.000778721
0.000300125
0.000633617
0.000323888
0.000313303
-2.491e-05
2.14743e-05
2.5582e-05
-2.41551e-05
2.51568e-05
-2.32587e-05
2.94756e-05
-2.2219e-05
3.45402e-05
-2.09861e-05
4.04223e-05
-1.9546e-05
4.73314e-05
-1.7846e-05
5.54737e-05
-1.58474e-05
6.46417e-05
-1.34941e-05
7.5713e-05
-1.07215e-05
8.80904e-05
-7.45241e-06
0.000102745
-3.60318e-06
0.000119721
9.3578e-07
0.000139315
6.2911e-06
0.000161856
1.25995e-05
0.000188193
2.00311e-05
0.000218691
2.87768e-05
0.000253811
3.90559e-05
0.000294365
5.10944e-05
0.000340931
6.51579e-05
0.000393817
8.1525e-05
0.000452942
0.00010046
0.000518233
0.000122186
0.000587882
0.000146822
0.000658594
0.000174269
0.000724304
0.000204041
0.000774444
0.000234976
0.000791694
0.00026475
0.00074898
0.000289258
0.000608877
0.000311044
0.000301933
-2.41198e-05
2.08419e-05
2.47355e-05
-2.33897e-05
2.44156e-05
-2.25178e-05
2.8607e-05
-2.15058e-05
3.35226e-05
-2.03062e-05
3.92289e-05
-1.89116e-05
4.59319e-05
-1.72669e-05
5.38335e-05
-1.53402e-05
6.27091e-05
-1.30722e-05
7.34456e-05
-1.04024e-05
8.54148e-05
-7.25474e-06
9.9595e-05
-3.5478e-06
0.000116009
8.22679e-07
0.00013494
5.97871e-06
0.000156696
1.20536e-05
0.000182113
1.92068e-05
0.000211532
2.7633e-05
0.000245392
3.75258e-05
0.000284469
4.91206e-05
0.000329341
6.26639e-05
0.000380274
7.84298e-05
0.000437179
9.66714e-05
0.000499995
0.000117608
0.000566951
0.000141356
0.000634857
0.000167824
0.000697858
0.000196544
0.000745773
0.0002264
0.000761934
0.000255146
0.000720293
0.000278806
0.000585043
0.000298736
0.000290991
-2.32573e-05
2.02382e-05
2.38812e-05
-2.25563e-05
2.37069e-05
-2.17247e-05
2.77752e-05
-2.07597e-05
3.25463e-05
-1.96161e-05
3.80818e-05
-1.82796e-05
4.4585e-05
-1.67025e-05
5.22534e-05
-1.4848e-05
6.0847e-05
-1.26651e-05
7.12608e-05
-1.00934e-05
8.28374e-05
-7.06189e-06
9.65609e-05
-3.49249e-06
0.000112435
7.16019e-07
0.000130727
5.68096e-06
0.000151727
1.15294e-05
0.000176259
1.84202e-05
0.000204642
2.65278e-05
0.00023728
3.60586e-05
0.000274948
4.72228e-05
0.000318179
6.02664e-05
0.000367227
7.54532e-05
0.000421985
9.30278e-05
0.000482405
0.000113205
0.000546754
0.000136098
0.000611937
0.000161624
0.000672312
0.000189335
0.000718064
0.000218152
0.000733157
0.000245909
0.000692568
0.000268751
0.000561987
0.000286887
0.000280459
-2.2521e-05
1.96513e-05
2.30936e-05
-2.1842e-05
2.30191e-05
-2.10323e-05
2.69693e-05
-2.00921e-05
3.16023e-05
-1.89789e-05
3.69748e-05
-1.76844e-05
4.32869e-05
-1.61588e-05
5.0732e-05
-1.43714e-05
5.90545e-05
-1.22682e-05
6.91577e-05
-9.79206e-06
8.03559e-05
-6.87327e-06
9.36394e-05
-3.43575e-06
0.000108993
6.16332e-07
0.000126671
5.39663e-06
0.000146942
1.10292e-05
0.000170623
1.76614e-05
0.000198005
2.54725e-05
0.000229475
3.46457e-05
0.000265774
4.53969e-05
0.000307431
5.79603e-05
0.000354667
7.25891e-05
0.000407359
8.95229e-05
0.000465477
0.000108969
0.000527316
0.000131042
0.000589878
0.000155662
0.000647716
0.000182402
0.000691375
0.000210222
0.000705434
0.000237026
0.000665825
0.000259081
0.000539767
0.000275551
0.000270324
-2.17124e-05
1.90911e-05
2.22933e-05
-2.10619e-05
2.23614e-05
-2.02911e-05
2.61972e-05
-1.93961e-05
3.06959e-05
-1.83357e-05
3.59098e-05
-1.70957e-05
4.20364e-05
-1.56328e-05
4.92653e-05
-1.3912e-05
5.73262e-05
-1.18872e-05
6.71304e-05
-9.50131e-06
7.79647e-05
-6.68955e-06
9.0825e-05
-3.37916e-06
0.000105678
5.2304e-07
0.000122765
5.12663e-06
0.000142336
1.05496e-05
0.000165196
1.69374e-05
0.000191617
2.44539e-05
0.000221956
3.32903e-05
0.00025695
4.36425e-05
0.000297081
5.57431e-05
0.000342566
6.98352e-05
0.000393258
8.61521e-05
0.000449147
0.000104895
0.000508551
0.000126178
0.00056857
0.000149929
0.000623944
0.000175736
0.000665569
0.000202595
0.000678607
0.000228484
0.000639968
0.00024978
0.000518273
0.000264643
0.000260572
-2.10346e-05
1.85453e-05
2.15621e-05
-2.0404e-05
2.17217e-05
-1.96521e-05
2.54478e-05
-1.87782e-05
2.98184e-05
-1.77442e-05
3.48811e-05
-1.65417e-05
4.08305e-05
-1.51255e-05
4.78523e-05
-1.34659e-05
5.56619e-05
-1.15143e-05
6.51783e-05
-9.21645e-06
7.5662e-05
-6.50898e-06
8.81146e-05
-3.32077e-06
0.000102486
4.37427e-07
0.000119004
4.8701e-06
0.0001379
1.00925e-05
0.000159972
1.6241e-05
0.000185466
2.34829e-05
0.000214723
3.19835e-05
0.000248439
4.19551e-05
0.000287115
5.36093e-05
0.000330914
6.71862e-05
0.000379687
8.29093e-05
0.000433432
0.000100977
0.000490494
0.000121501
0.000548061
0.000144416
0.000601055
0.000169326
0.000640711
0.000195264
0.000652764
0.000220271
0.000615026
0.000240837
0.000497552
0.000254221
0.000251189
-2.02758e-05
1.80254e-05
2.08172e-05
-1.96701e-05
2.11113e-05
-1.89543e-05
2.47312e-05
-1.81223e-05
2.89772e-05
-1.71382e-05
3.38926e-05
-1.59864e-05
3.96699e-05
-1.46288e-05
4.64911e-05
-1.30314e-05
5.40581e-05
-1.11527e-05
6.32972e-05
-8.939e-06
7.34436e-05
-6.33123e-06
8.55041e-05
-3.26007e-06
9.94121e-05
3.58741e-07
0.000115382
4.62794e-06
0.000133629
9.65682e-06
0.000154941
1.55781e-05
0.000179542
2.25413e-05
0.000207745
3.07336e-05
0.000240256
4.03331e-05
0.000277511
5.15587e-05
0.000319684
6.46391e-05
0.000366601
7.97909e-05
0.000418265
9.7209e-05
0.000473057
0.000117004
0.000528241
0.000139115
0.000578923
0.000163164
0.000616658
0.000188215
0.00062774
0.000212375
0.000590897
0.000232236
0.00047751
0.000244199
0.000242162
-1.96422e-05
1.75184e-05
2.01346e-05
-1.90542e-05
2.05172e-05
-1.83545e-05
2.40353e-05
-1.75411e-05
2.81624e-05
-1.65806e-05
3.29377e-05
-1.54633e-05
3.85506e-05
-1.41491e-05
4.51798e-05
-1.26086e-05
5.25137e-05
-1.07984e-05
6.1486e-05
-8.66621e-06
7.13076e-05
-6.15462e-06
8.29904e-05
-3.1974e-06
9.64519e-05
2.87864e-07
0.000111895
4.39965e-06
0.000129516
9.23859e-06
0.000150093
1.49371e-05
0.000173837
2.16482e-05
0.000201035
2.95275e-05
0.000232358
3.8774e-05
0.000268265
4.95872e-05
0.000308875
6.21888e-05
0.000354005
7.67919e-05
0.000403673
9.3585e-05
0.000456277
0.000112679
0.000509164
0.000134019
0.000557611
0.000157241
0.000593488
0.00018144
0.000603635
0.000204784
0.000567619
0.000223967
0.00045818
0.000234637
0.00023348
-1.89264e-05
1.70357e-05
1.94366e-05
-1.83614e-05
1.99505e-05
-1.76965e-05
2.33699e-05
-1.69228e-05
2.73812e-05
-1.60097e-05
3.20198e-05
-1.49396e-05
3.74729e-05
-1.36803e-05
4.39161e-05
-1.21969e-05
5.10253e-05
-1.04542e-05
5.97407e-05
-8.39991e-06
6.92499e-05
-5.98093e-06
8.05695e-05
-3.13326e-06
9.36013e-05
2.23362e-07
0.000108537
4.17795e-06
0.000125555
8.84198e-06
0.000145431
1.43276e-05
0.000168343
2.07809e-05
0.000194565
2.83762e-05
0.000224774
3.72776e-05
0.000259359
4.76928e-05
0.000298459
5.98337e-05
0.000341857
7.39084e-05
0.000389586
9.01006e-05
0.000440063
0.000108521
0.000490719
0.00012912
0.00053699
0.000151548
0.000571055
0.000174927
0.000580274
0.000197487
0.000545091
0.000216016
0.000439487
0.000225448
0.000225129
-1.83396e-05
1.65653e-05
1.88077e-05
-1.77872e-05
1.93993e-05
-1.71344e-05
2.27243e-05
-1.63744e-05
2.66255e-05
-1.54815e-05
3.11343e-05
-1.44418e-05
3.64352e-05
-1.3223e-05
4.27006e-05
-1.17927e-05
4.95938e-05
-1.01147e-05
5.80621e-05
-8.13697e-06
6.72703e-05
-5.80905e-06
7.82399e-05
-3.06729e-06
9.08583e-05
1.61844e-07
0.000105306
3.97467e-06
0.000121746
8.45716e-06
0.00014094
1.37388e-05
0.000163059
1.99612e-05
0.000188352
2.72643e-05
0.000217454
3.58398e-05
0.000250789
4.58706e-05
0.000288432
5.7569e-05
0.000330167
7.1135e-05
0.000376032
8.67504e-05
0.000424463
0.000104524
0.000472965
0.000124412
0.00051713
0.000146076
0.000549442
0.00016867
0.000557771
0.000190473
0.000523355
0.000208372
0.00042145
0.000216687
0.000217097
-1.76696e-05
1.61205e-05
1.81698e-05
-1.71319e-05
1.88773e-05
-1.65074e-05
2.21114e-05
-1.57825e-05
2.59058e-05
-1.49346e-05
3.0288e-05
-1.39402e-05
3.54409e-05
-1.27742e-05
4.15335e-05
-1.13989e-05
4.8218e-05
-9.78511e-06
5.64477e-05
-7.88136e-06
6.53657e-05
-5.64042e-06
7.59983e-05
-3.00186e-06
8.82181e-05
1.0891e-07
0.000102195
3.77309e-06
0.000118077
8.09501e-06
0.000136623
1.31805e-05
0.000157973
1.91616e-05
0.000182358
2.62037e-05
0.000210427
3.44583e-05
0.000242533
4.41201e-05
0.000278768
5.53923e-05
0.00031889
6.84692e-05
0.000362942
8.35299e-05
0.000409384
0.000100682
0.000455786
0.000119888
0.000497904
0.000140819
0.0005285
0.000162656
0.000535947
0.000183733
0.000502307
0.000201023
0.000404012
0.000208276
0.000209373
-1.71275e-05
1.56814e-05
1.75571e-05
-1.66157e-05
1.83625e-05
-1.60097e-05
2.15087e-05
-1.53012e-05
2.52007e-05
-1.44692e-05
2.94627e-05
-1.34992e-05
3.4475e-05
-1.23644e-05
4.04035e-05
-1.10331e-05
4.68887e-05
-9.47439e-06
5.48903e-05
-7.63824e-06
6.35304e-05
-5.47931e-06
7.38395e-05
-2.93773e-06
8.56768e-05
5.61212e-08
9.91997e-05
3.58959e-06
0.000114547
7.74352e-06
0.000132463
1.2639e-05
0.000153078
1.84065e-05
0.000176601
2.51781e-05
0.000203643
3.31297e-05
0.000234585
4.24372e-05
0.000269467
5.32987e-05
0.000308038
6.59062e-05
0.000350348
8.04339e-05
0.000394874
9.69905e-05
0.000439251
0.00011554
0.000479384
0.000135769
0.000508322
0.000156879
0.000514925
0.000177256
0.000482
0.000193959
0.000387177
0.000200265
0.000201946
-1.6501e-05
1.5269e-05
1.69694e-05
-1.59994e-05
1.78787e-05
-1.54182e-05
2.09406e-05
-1.47422e-05
2.45336e-05
-1.39532e-05
2.86784e-05
-1.3027e-05
3.35533e-05
-1.19432e-05
3.93217e-05
-1.06647e-05
4.56133e-05
-9.16642e-06
5.33939e-05
-7.39939e-06
6.17651e-05
-5.32081e-06
7.1762e-05
-2.87417e-06
8.32302e-05
1.00868e-08
9.63163e-05
3.40657e-06
0.000111146
7.41258e-06
0.000128464
1.21249e-05
0.000148364
1.76699e-05
0.000171047
2.41991e-05
0.00019713
3.1854e-05
0.000226929
4.08202e-05
0.000260501
5.12871e-05
0.000297565
6.34431e-05
0.000338182
7.74587e-05
0.000380838
9.34431e-05
0.000423242
0.000111364
0.000461441
0.000130918
0.000488756
0.000151329
0.000494519
0.000171031
0.000462327
0.000187168
0.000370909
0.000192583
0.000194803
-1.59832e-05
1.48653e-05
1.64064e-05
-1.54996e-05
1.74055e-05
-1.49336e-05
2.03865e-05
-1.42738e-05
2.38849e-05
-1.35029e-05
2.79182e-05
-1.26039e-05
3.26624e-05
-1.15536e-05
3.82779e-05
-1.03197e-05
4.43838e-05
-8.87506e-06
5.1952e-05
-7.172e-06
6.00646e-05
-5.1697e-06
6.97611e-05
-2.81235e-06
8.08744e-05
-3.6073e-08
9.35399e-05
3.24025e-06
0.000107874
7.08968e-06
0.000124607
1.16274e-05
0.000143828
1.69747e-05
0.000165712
2.32519e-05
0.000190839
3.0628e-05
0.000219561
3.92649e-05
0.000251871
4.93533e-05
0.000287489
6.10751e-05
0.000326475
7.45999e-05
0.000367332
9.00353e-05
0.00040783
0.000107354
0.000444153
0.000126259
0.000469901
0.000146
0.000474863
0.000165051
0.000443345
0.00018064
0.000355197
0.000185271
0.000187934
-1.5427e-05
1.44762e-05
1.58256e-05
-1.49722e-05
1.69486e-05
-1.44345e-05
1.98504e-05
-1.38071e-05
2.32562e-05
-1.30691e-05
2.71807e-05
-1.22037e-05
3.17979e-05
-1.11903e-05
3.72659e-05
-9.99719e-06
4.31936e-05
-8.60102e-06
5.05583e-05
-6.95678e-06
5.84231e-05
-5.02498e-06
6.78315e-05
-2.75302e-06
7.86036e-05
-7.63739e-08
9.08651e-05
3.07359e-06
0.000104721
6.78686e-06
0.000120901
1.11558e-05
0.000139459
1.62954e-05
0.000160563
2.23496e-05
0.000184802
2.94503e-05
0.00021246
3.77714e-05
0.000243549
4.74955e-05
0.000277761
5.88003e-05
0.000315159
7.18537e-05
0.000354261
8.67622e-05
0.000392895
0.000103503
0.000427391
0.000121787
0.0004516
0.000140881
0.000455769
0.000159305
0.000424948
0.000174365
0.000340022
0.00017827
0.00018133
-1.49232e-05
1.41018e-05
1.53117e-05
-1.44773e-05
1.65099e-05
-1.39532e-05
1.93364e-05
-1.33429e-05
2.26541e-05
-1.26275e-05
2.64747e-05
-1.1793e-05
3.097e-05
-1.08164e-05
3.62955e-05
-9.66883e-06
4.20505e-05
-8.32522e-06
4.9218e-05
-6.74175e-06
5.68431e-05
-4.8812e-06
6.59733e-05
-2.69211e-06
7.6417e-05
-1.15195e-07
8.82892e-05
2.92328e-06
0.000101687
6.49256e-06
0.000117326
1.06992e-05
0.000135254
1.56556e-05
0.000155618
2.14768e-05
0.00017897
2.83182e-05
0.000205625
3.63362e-05
0.00023554
4.57096e-05
0.0002684
5.66148e-05
0.00030427
6.92157e-05
0.000341681
8.36198e-05
0.000378516
9.98057e-05
0.000411238
0.000117493
0.000433962
0.000135967
0.000437378
0.000153786
0.000407198
0.000168332
0.000325358
0.00017161
0.000174982
-1.43999e-05
1.37414e-05
1.47744e-05
-1.39759e-05
1.60868e-05
-1.34758e-05
1.88398e-05
-1.28923e-05
2.20718e-05
-1.22069e-05
2.57915e-05
-1.14033e-05
3.0169e-05
-1.04625e-05
3.53575e-05
-9.35489e-06
4.0947e-05
-8.05888e-06
4.79254e-05
-6.53251e-06
5.53203e-05
-4.73938e-06
6.41831e-05
-2.63078e-06
7.43105e-05
-1.4735e-07
8.58083e-05
2.7742e-06
9.87633e-05
6.21738e-06
0.000113891
1.02661e-05
0.000131204
1.50313e-05
0.000150845
2.06454e-05
0.000173373
2.72322e-05
0.000199038
3.49582e-05
0.000227815
4.39949e-05
0.000259358
5.45161e-05
0.00029374
6.6683e-05
0.000329494
8.06034e-05
0.000364571
9.62582e-05
0.00039556
0.000113373
0.000416829
0.000131249