/*--------------------------------*- C++ -*----------------------------------*\
  =========                 |
  \\      /  F ield         | OpenFOAM: The Open Source CFD Toolbox
   \\    /   O peration     | Website:  https://openfoam.org
    \\  /    A nd           | Version:  6.0
     \\/     M anipulation  |
\*---------------------------------------------------------------------------*/
FoamFile
{
    version     2.0;
    format      ascii;
    class       volVectorField;
    location    "0.82";
    object      U;
}
// * * * * * * * * * * * * * * * * * * * * * * * * * * * * * * * * * * * * * //

dimensions      [0 1 -1 0 0 0 0];

internalField   nonuniform List<vector> 
13500
(
(1 2.2598e-06 -4.3728e-18)
(1 -4.6528e-06 2.9629e-18)
(1 -4.7301e-06 -1.2702e-17)
(1 -1.0045e-05 -8.8368e-18)
(1 -7.0106e-06 1.6539e-17)
(1 -7.632e-06 3.1076e-17)
(1 1.7043e-06 2.6462e-17)
(0.99998 1.4597e-05 -4.3181e-18)
(0.99991 4.2553e-05 1.5697e-17)
(0.99974 9.432e-05 3.4224e-18)
(0.9964 0.00062023 2.8884e-17)
(1.0183 0.010898 8.1236e-18)
(1 6.959e-06 2.7091e-18)
(1 -1.3812e-05 -8.9981e-18)
(1 -1.3198e-05 6.0656e-18)
(1 -2.985e-05 -3.4875e-19)
(1 -1.8757e-05 -4.4109e-19)
(1 -2.3296e-05 -3.7367e-17)
(0.99999 9.271e-06 -4.5704e-17)
(0.99994 4.1817e-05 -2.4708e-17)
(0.99973 0.00013686 -1.5666e-17)
(0.99953 0.00026166 -1.6918e-18)
(0.98873 0.0017046 -1.3678e-17)
(1.0507 0.030818 -4.9186e-18)
(1 1.1715e-05 -3.499e-18)
(1 -2.3201e-05 1.7877e-17)
(1 -2.1521e-05 3.1549e-18)
(1 -5.0374e-05 1.0189e-17)
(1 -2.9944e-05 -3.8138e-18)
(1 -4.0389e-05 2.9933e-17)
(0.99999 1.8463e-05 -6.4325e-18)
(0.99991 6.6744e-05 5.6125e-18)
(0.99954 0.00023797 -1.9005e-17)
(0.99963 0.00045827 2.5703e-17)
(0.98096 0.0023647 -7.154e-18)
(1.0769 0.045499 1.7318e-18)
(1 1.6512e-05 9.1472e-18)
(1 -3.283e-05 -1.7332e-17)
(1 -2.9887e-05 -1.4955e-17)
(1 -7.1523e-05 -7.1499e-19)
(1 -4.1049e-05 5.8871e-18)
(1 -5.8507e-05 -8.3043e-19)
(0.99998 2.8364e-05 6.3385e-17)
(0.99989 8.9785e-05 1.0112e-17)
(0.99934 0.00034325 2.2473e-17)
(1 0.00068979 -9.3108e-18)
(0.97348 0.0026252 3.4845e-17)
(1.0956 0.056238 -7.8823e-18)
(1 2.1366e-05 -6.4273e-18)
(1 -4.2595e-05 1.498e-17)
(1 -3.8216e-05 1.2731e-17)
(1 -9.2965e-05 1.3041e-17)
(1 -5.2025e-05 2.8865e-18)
(1.0001 -7.7206e-05 2.2002e-17)
(0.99998 3.8859e-05 -2.8305e-17)
(0.99987 0.000111 2.0542e-18)
(0.99912 0.00045056 -1.3779e-17)
(1.0006 0.00095728 -2.2218e-18)
(0.96663 0.0025423 -9.0313e-18)
(1.1068 0.064181 2.1836e-18)
(1 2.6273e-05 6.5044e-18)
(1 -5.2494e-05 -6.2101e-18)
(1 -4.6511e-05 3.8878e-18)
(1.0001 -0.00011471 -2.5833e-17)
(1 -6.2867e-05 -8.4701e-20)
(1.0001 -9.6556e-05 -4.3557e-17)
(0.99998 5.0007e-05 1.0859e-18)
(0.99987 0.00013009 -1.6488e-17)
(0.99888 0.00055833 5.247e-18)
(1.0013 0.0012639 -2.238e-17)
(0.9607 0.002171 -2.1764e-17)
(1.1114 0.069952 2.1144e-18)
(0.99999 3.1229e-05 -1.0767e-18)
(1 -6.2532e-05 -7.4273e-18)
(1 -5.4769e-05 -3.1598e-18)
(1.0001 -0.00013679 1.9499e-17)
(1.0001 -7.354e-05 -2.6734e-17)
(1.0001 -0.00011667 1.6667e-17)
(0.99997 6.1937e-05 1.893e-17)
(0.99988 0.00014676 5.801e-18)
(0.99862 0.00066517 1.173e-17)
(1.0022 0.0016113 1.2048e-17)
(0.95588 0.0015659 9.3829e-18)
(1.1106 0.073984 3.4016e-18)
(0.99999 3.623e-05 -2.2223e-18)
(1 -7.2711e-05 -1.4611e-18)
(1 -6.2994e-05 -2.7219e-17)
(1.0001 -0.00015924 -9.3108e-18)
(1.0001 -8.4033e-05 7.4831e-18)
(1.0001 -0.00013761 2.7315e-17)
(0.99997 7.4725e-05 1.2048e-17)
(0.99989 0.00016078 5.179e-18)
(0.99834 0.00076969 -7.6673e-18)
(1.0032 0.0019981 1.6876e-17)
(0.95226 0.00078244 7.5846e-18)
(1.1055 0.076637 -1.0826e-17)
(0.99999 4.1271e-05 -6.8987e-18)
(1 -8.3032e-05 6.2817e-18)
(1 -7.119e-05 4.5765e-17)
(1.0001 -0.00018206 -1.1168e-17)
(1.0001 -9.4347e-05 2.8021e-17)
(1.0001 -0.00015947 -5.3928e-17)
(0.99997 8.8416e-05 -4.0135e-17)
(0.99993 0.00017193 1.0064e-17)
(0.99805 0.00087055 -5.7589e-18)
(1.0042 0.0024205 -9.3074e-18)
(0.94985 -0.00012478 -1.4006e-17)
(1.0973 0.078216 1.4171e-17)
(0.99999 4.6348e-05 4.545e-18)
(1 -9.3495e-05 2.3645e-18)
(1 -7.9368e-05 -3.8765e-17)
(1.0001 -0.00020527 1.5894e-17)
(1.0001 -0.00010448 -1.2219e-17)
(1.0002 -0.0001823 2.3001e-17)
(0.99996 0.00010305 1.4262e-17)
(0.99997 0.00017999 2.5443e-18)
(0.99773 0.00096649 5.4325e-19)
(1.0051 0.0028724 1.4755e-18)
(0.94858 -0.0011041 4.4618e-18)
(1.087 0.078965 -7.382e-19)
(0.99999 5.1453e-05 -2.4954e-18)
(1 -0.0001041 -7.7546e-18)
(1 -8.7533e-05 9.5023e-18)
(1.0001 -0.00022888 -2.8046e-18)
(1.0001 -0.00011444 1.886e-18)
(1.0002 -0.0002062 -2.5208e-17)
(0.99996 0.00011864 -3.2848e-17)
(1 0.00018475 -3.2313e-17)
(0.99741 0.0010564 1.6097e-17)
(1.006 0.0033469 1.9172e-18)
(0.94836 -0.0021086 -1.1316e-17)
(1.0757 0.079079 -6.1153e-18)
(0.99998 5.6582e-05 3.4443e-18)
(1 -0.00011485 2.929e-18)
(1 -9.5697e-05 4.5794e-18)
(1.0001 -0.00025292 -2.2351e-18)
(1.0001 -0.00012423 -5.6537e-18)
(1.0002 -0.00023124 9.5341e-18)
(0.99995 0.00013518 1.9014e-17)
(1.0001 0.00018602 1.9962e-17)
(0.99708 0.0011392 1.0345e-17)
(1.0069 0.0038364 -2.4198e-17)
(0.94902 -0.0030977 1.1674e-19)
(1.0639 0.078714 -7.0915e-18)
(0.99998 6.1728e-05 -3.4436e-18)
(1 -0.00012573 5.76e-18)
(1 -0.00010387 8.3023e-18)
(1.0001 -0.0002774 5.836e-18)
(1.0001 -0.00013386 -5.2434e-18)
(1.0002 -0.0002575 4.6871e-18)
(0.99994 0.00015265 4.3358e-18)
(1.0002 0.00018362 -1.7826e-18)
(0.99675 0.0012139 -1.6719e-17)
(1.0076 0.004333 2.2442e-17)
(0.9504 -0.0040377 1.0402e-19)
(1.0523 0.077993 1.5126e-18)
(0.99998 6.6882e-05 5.2367e-18)
(1 -0.00013676 -4.4962e-18)
(1 -0.00011206 7.2662e-19)
(1.0001 -0.00030233 -4.8686e-18)
(1.0001 -0.00014334 1.1908e-17)
(1.0003 -0.00028509 5.7191e-18)
(0.99993 0.00017094 1.7445e-17)
(1.0003 0.00017741 -6.621e-18)
(0.99642 0.0012797 -2.0452e-19)
(1.0083 0.004829 5.5162e-18)
(0.95233 -0.0049027 1.7202e-17)
(1.0414 0.077012 9.644e-19)
(0.99997 7.2039e-05 1.2629e-18)
(1 -0.00014793 9.9786e-18)
(1 -0.00012029 1.3882e-17)
(1.0001 -0.00032773 -4.8543e-18)
(1.0001 -0.00015269 8.622e-18)
(1.0003 -0.00031409 -2.6698e-18)
(0.99992 0.00018993 -3.0553e-17)
(1.0004 0.00016729 2.0958e-17)
(0.9961 0.0013358 -1.8859e-17)
(1.0088 0.0053177 -3.181e-17)
(0.95465 -0.005674 -3.7736e-18)
(1.0315 0.075844 8.945e-19)
(0.99997 7.7188e-05 -3.2221e-18)
(1 -0.00015924 -1.0612e-17)
(1 -0.00012857 -3.3321e-17)
(1.0001 -0.00035362 8.1782e-18)
(1.0001 -0.00016195 -1.3084e-17)
(1.0003 -0.00034459 8.5606e-18)
(0.99991 0.00020939 -2.8582e-18)
(1.0005 0.00015319 -1.2616e-17)
(0.9958 0.0013815 4.1388e-18)
(1.0093 0.0057931 1.8998e-17)
(0.95721 -0.0063403 -7.9285e-18)
(1.0227 0.074547 1.2505e-17)
(0.99997 8.2322e-05 3.39e-19)
(1 -0.00017068 7.9369e-18)
(1 -0.00013691 2.3004e-17)
(1.0002 -0.00038002 -1.842e-18)
(1.0001 -0.00017115 -1.2998e-17)
(1.0004 -0.00037668 -1.5953e-17)
(0.99989 0.00022905 1.0919e-17)
(1.0007 0.00013509 7.2356e-18)
(0.99551 0.0014161 2.3939e-17)
(1.0097 0.00625 -2.6616e-18)
(0.95989 -0.0068961 1.972e-18)
(1.0152 0.073164 -4.9882e-18)
(0.99996 8.7432e-05 -1.902e-18)
(1 -0.00018226 -9.617e-18)
(1 -0.00014535 -1.038e-17)
(1.0002 -0.00040694 6.1552e-18)
(1.0001 -0.00018035 -7.2993e-18)
(1.0004 -0.00041046 -1.2796e-17)
(0.99987 0.00024852 1.0614e-17)
(1.0008 0.00011303 -4.9086e-18)
(0.99525 0.0014392 -2.9632e-17)
(1.01 0.0066847 -1.4922e-17)
(0.96258 -0.0073418 8.5587e-18)
(1.0089 0.071727 -5.4204e-18)
(0.99996 9.2506e-05 -2.7235e-18)
(0.99999 -0.00019398 -3.6348e-18)
(1 -0.0001539 -7.6928e-19)
(1.0002 -0.00043441 -2.6953e-17)
(1.0001 -0.00018962 6.1252e-18)
(1.0004 -0.00044603 5.572e-18)
(0.99985 0.00026737 -2.0169e-17)
(1.001 8.7121e-05 -1.676e-17)
(0.99501 0.0014502 4.3311e-18)
(1.0102 0.0070945 -1.1265e-18)
(0.96521 -0.0076815 -9.8815e-18)
(1.0038 0.070261 1.0246e-18)
(0.99995 9.7537e-05 3.5424e-18)
(0.99999 -0.00020583 1.6663e-17)
(1 -0.00016259 1.9807e-17)
(1.0002 -0.00046244 2.5382e-18)
(1.0002 -0.00019905 1.6931e-17)
(1.0005 -0.00048348 9.7648e-18)
(0.99983 0.00028503 2.9115e-18)
(1.0012 5.7511e-05 1.8344e-17)
(0.9948 0.0014491 2.1539e-17)
(1.0104 0.0074777 1.7822e-17)
(0.96772 -0.0079228 7.3782e-18)
(0.99975 0.068783 1.2181e-18)
(0.99995 0.00010251 -1.6884e-18)
(0.99999 -0.00021782 -3.998e-18)
(1 -0.00017146 -2.1102e-17)
(1.0002 -0.00049106 -2.4035e-18)
(1.0002 -0.00020877 -1.2831e-17)
(1.0005 -0.00052291 -5.2835e-18)
(0.99981 0.00030092 -1.8679e-18)
(1.0014 2.4431e-05 -1.6588e-17)
(0.99462 0.0014357 -2.0603e-17)
(1.0105 0.0078335 9.139e-18)
(0.97007 -0.0080752 5.0754e-19)
(0.99667 0.067307 7.0034e-19)
(0.99994 0.00010742 4.4754e-18)
(0.99999 -0.00022994 -5.2232e-18)
(1 -0.00018054 -1.9791e-17)
(1.0002 -0.0005203 4.5692e-17)
(1.0002 -0.00021891 1.8613e-17)
(1.0006 -0.00056442 -1.2929e-17)
(0.99979 0.00031434 2.5117e-17)
(1.0016 -1.1829e-05 2.2419e-17)
(0.99447 0.0014101 3.3437e-17)
(1.0106 0.0081622 -3.3503e-17)
(0.97224 -0.0081495 -1.3552e-17)
(0.99441 0.065842 1.855e-19)
(0.99994 0.00011225 -3.2758e-18)
(0.99998 -0.00024221 -1.0481e-18)
(1 -0.00018987 3.3787e-17)
(1.0002 -0.0005502 -3.454e-17)
(1.0002 -0.00022963 -1.7919e-18)
(1.0006 -0.00060814 4.2837e-17)
(0.99977 0.00032458 7.7832e-18)
(1.0018 -5.0915e-05 -3.4626e-18)
(0.99435 0.0013728 -2.074e-17)
(1.0107 0.0084645 3.9487e-17)
(0.97423 -0.008157 -5.7424e-18)
(0.99283 0.064394 -2.9384e-19)
(0.99993 0.00011699 -1.6699e-18)
(0.99998 -0.00025462 -2.0885e-18)
(1 -0.0001995 1.759e-18)
(1.0002 -0.00058079 3.5934e-17)
(1.0002 -0.00024114 -1.0101e-17)
(1.0007 -0.00065416 -3.1662e-17)
(0.99975 0.0003309 -1.9845e-17)
(1.002 -9.2412e-05 -3.7286e-18)
(0.99426 0.0013241 6.5606e-18)
(1.0108 0.0087416 -3.3318e-17)
(0.97604 -0.0081086 9.6175e-18)
(0.99182 0.062968 3.1912e-18)
(0.99992 0.00012162 2.7596e-18)
(0.99998 -0.00026719 1.4536e-17)
(1 -0.00020951 -1.2975e-17)
(1.0002 -0.00061213 -3.7626e-18)
(1.0002 -0.00025366 -1.9385e-17)
(1.0007 -0.0007026 3.4447e-17)
(0.99973 0.00033258 -1.742e-17)
(1.0022 -0.00013585 1.5459e-17)
(0.99421 0.0012649 -2.022e-18)
(1.0108 0.0089952 3.1241e-17)
(0.97769 -0.0080148 -9.3861e-18)
(0.99125 0.061568 -5.3255e-18)
(0.99992 0.00012614 -5.2927e-19)
(0.99997 -0.00027993 -8.3601e-18)
(1 -0.00021993 -1.8168e-17)
(1.0003 -0.00064428 -1.031e-17)
(1.0002 -0.00026745 1.8802e-17)
(1.0008 -0.00075357 -4.3926e-17)
(0.99972 0.00032892 -2.6874e-18)
(1.0025 -0.0001807 -2.0886e-17)
(0.99418 0.0011961 3.2685e-18)
(1.0109 0.0092271 -9.0112e-18)
(0.97918 -0.0078851 9.9912e-18)
(0.99103 0.060194 2.2608e-18)
(0.99991 0.00013052 2.7726e-18)
(0.99997 -0.00029285 -8.9549e-18)
(1 -0.00023087 -1.7944e-18)
(1.0003 -0.00067731 2.5051e-18)
(1.0002 -0.00028279 5.9506e-18)
(1.0008 -0.00080718 1.2692e-17)
(0.99971 0.00031931 4.4068e-17)
(1.0027 -0.00022641 2.4962e-18)
(0.99418 0.0011188 5.3285e-18)
(1.0109 0.0094392 9.9337e-18)
(0.98053 -0.0077277 -8.5461e-18)
(0.99107 0.05885 1.7394e-18)
(0.9999 0.00013475 -1.5898e-18)
(0.99996 -0.00030597 8.9467e-18)
(1 -0.0002424 2.5824e-17)
(1.0003 -0.00071131 -2.5241e-17)
(1.0002 -0.00029997 -9.2558e-18)
(1.0009 -0.00086352 -2.2335e-18)
(0.9997 0.00030323 -1.4525e-17)
(1.0029 -0.00027239 1.9367e-18)
(0.9942 0.001034 -9.2303e-18)
(1.0109 0.0096334 -3.6507e-18)
(0.98177 -0.0075499 -2.4255e-19)
(0.9913 0.057534 -2.1245e-18)
(0.99989 0.00013882 -1.7087e-18)
(0.99996 -0.00031933 5.355e-18)
(1 -0.00025461 -6.2474e-19)
(1.0003 -0.00074637 8.3696e-18)
(1.0002 -0.00031933 -1.7077e-17)
(1.001 -0.00092268 2.5271e-17)
(0.9997 0.00028029 7.2443e-18)
(1.0031 -0.00031802 -1.8476e-17)
(0.99425 0.00094308 -1.1842e-17)
(1.011 0.0098114 -1.4455e-17)
(0.98291 -0.0073577 1.3538e-18)
(0.99166 0.056247 -3.8995e-18)
(0.99989 0.00014271 5.9376e-19)
(0.99996 -0.00033294 -1.2789e-17)
(1 -0.00026762 1.5989e-17)
(1.0003 -0.0007826 2.3149e-17)
(1.0002 -0.00034118 3.3472e-17)
(1.001 -0.0009847 -1.8559e-17)
(0.9997 0.00025025 -1.8011e-17)
(1.0033 -0.00036269 3.749e-18)
(0.99431 0.00084724 1.1096e-17)
(1.011 0.0099748 1.1315e-17)
(0.98396 -0.0071561 6.3072e-18)
(0.9921 0.054989 3.876e-18)
(0.99988 0.00014639 1.1379e-18)
(0.99995 -0.00034686 1.017e-17)
(1 -0.00028154 -3.6736e-17)
(1.0003 -0.00082014 -3.3543e-18)
(1.0002 -0.00036584 -2.7804e-17)
(1.0011 -0.0010496 -1.169e-17)
(0.99971 0.00021303 2.5417e-20)
(1.0036 -0.00040581 -4.2893e-18)
(0.99439 0.00074771 -2.1876e-17)
(1.011 0.010125 -1.8064e-17)
(0.98494 -0.006949 -8.6178e-18)
(0.9926 0.05376 -1.9136e-18)
(0.99987 0.00014985 -7.3751e-19)
(0.99994 -0.00036113 -6.6136e-18)
(1 -0.0002965 2.8904e-17)
(1.0003 -0.0008591 -3.2003e-17)
(1.0002 -0.00039362 -2.0904e-18)
(1.0012 -0.0011173 2.4895e-17)
(0.99973 0.00016874 7.2068e-19)
(1.0038 -0.00044681 4.0897e-18)
(0.99449 0.00064566 1.9149e-17)
(1.011 0.010264 2.348e-17)
(0.98586 -0.0067396 4.9294e-18)
(0.99314 0.052559 -1.0708e-18)
(0.99986 0.00015306 -1.9199e-18)
(0.99994 -0.00037579 -2.4389e-18)
(0.99999 -0.00031263 -1.2813e-17)
(1.0004 -0.00089962 1.5943e-17)
(1.0002 -0.00042479 3.0556e-17)
(1.0013 -0.0011878 -1.1002e-17)
(0.99975 0.00011762 2.243e-17)
(1.004 -0.00048514 3.0656e-18)
(0.99459 0.00054217 -2.1714e-18)
(1.011 0.010391 1.0619e-17)
(0.98673 -0.0065301 -5.5128e-18)
(0.99368 0.051384 -7.4815e-19)
(0.99985 0.000156 4.8016e-19)
(0.99993 -0.00039091 -6.4496e-18)
(0.99999 -0.00033006 4.7962e-18)
(1.0004 -0.00094184 -1.6248e-17)
(1.0002 -0.00045959 -3.2318e-17)
(1.0013 -0.0012609 6.9336e-18)
(0.99977 6.0113e-05 -3.2358e-17)
(1.0042 -0.00052035 -7.0106e-18)
(0.99471 0.00043818 7.0414e-18)
(1.011 0.010509 -3.3333e-17)
(0.98756 -0.0063223 3.7726e-18)
(0.99423 0.050237 2.1048e-18)
(0.99984 0.00015864 8.4316e-19)
(0.99993 -0.00040656 1.7474e-17)
(0.99998 -0.00034893 8.0304e-18)
(1.0004 -0.00098588 6.6187e-18)
(1.0002 -0.00049821 2.5842e-17)
(1.0014 -0.0013365 2.0672e-18)
(0.9998 -3.2338e-06 2.2343e-17)
(1.0044 -0.00055202 5.0278e-18)
(0.99483 0.00033454 -2.141e-17)
(1.0111 0.010617 1.1475e-17)
(0.98835 -0.0061175 2.5518e-18)
(0.99476 0.049115 2.186e-18)
(0.99983 0.00016097 -2.944e-18)
(0.99992 -0.0004228 -5.7518e-18)
(0.99998 -0.00036937 -7.0557e-18)
(1.0004 -0.0010319 1.0869e-17)
(1.0003 -0.00054076 1.2483e-17)
(1.0015 -0.0014141 -4.1169e-18)
(0.99983 -7.1738e-05 -1.8768e-17)
(1.0045 -0.00057983 2.2896e-17)
(0.99496 0.00023192 3.961e-18)
(1.0111 0.010717 -3.4657e-18)
(0.98912 -0.0059166 1.0565e-17)
(0.99529 0.048019 -1.5207e-18)
(0.99982 0.00016294 6.0493e-18)
(0.99991 -0.00043969 6.888e-18)
(0.99998 -0.00039151 -7.4998e-18)
(1.0004 -0.0010799 -6.7706e-18)
(1.0003 -0.00058729 -1.7913e-17)
(1.0016 -0.0014936 -7.0709e-18)
(0.99987 -0.00014463 9.2532e-18)
(1.0047 -0.00060355 -3.6726e-17)
(0.9951 0.00013086 9.7068e-18)
(1.0111 0.010808 -4.0958e-18)
(0.98986 -0.0057202 -1.119e-17)
(0.9958 0.046946 4.4216e-18)
(0.99981 0.00016454 -2.6698e-18)
(0.99991 -0.00045731 -1.2102e-17)
(0.99997 -0.00041546 -7.2683e-18)
(1.0004 -0.00113 -1.2848e-17)
(1.0003 -0.00063777 -5.4691e-18)
(1.0017 -0.0015744 2.079e-17)
(0.99991 -0.00022109 -9.0896e-18)
(1.0049 -0.00062302 4.0856e-17)
(0.99523 3.1758e-05 9.1568e-18)
(1.0111 0.010891 1.2429e-17)
(0.99057 -0.0055286 4.7181e-18)
(0.99629 0.045898 -7.1745e-18)
(0.9998 0.00016574 -1.4161e-18)
(0.9999 -0.00047572 8.9998e-18)
(0.99997 -0.00044132 1.44e-17)
(1.0005 -0.0011822 3.464e-17)
(1.0003 -0.00069209 7.2494e-18)
(1.0018 -0.0016562 -1.426e-17)
(0.99995 -0.00030027 4.3865e-18)
(1.005 -0.00063817 -4.3957e-17)
(0.99537 -6.5101e-05 -1.111e-17)
(1.0111 0.010967 -6.9099e-18)
(0.99127 -0.005342 4.6328e-18)
(0.99676 0.044873 7.2209e-18)
(0.99978 0.00016652 1.0837e-18)
(0.99989 -0.00049499 2.1304e-18)
(0.99996 -0.00046914 -1.4142e-17)
(1.0005 -0.0012365 -5.7701e-18)
(1.0003 -0.00075003 9.2041e-18)
(1.0018 -0.0017384 1.7068e-17)
(1 -0.00038132 1.5252e-17)
(1.0052 -0.00064905 4.35e-18)
(0.99551 -0.00015956 1.2431e-17)
(1.0111 0.011035 -3.2007e-18)
(0.99195 -0.0051606 -8.2705e-18)
(0.99722 0.04387 -1.8612e-18)
(0.99977 0.00016686 -4.4389e-20)
(0.99988 -0.00051516 2.4279e-18)
(0.99996 -0.00049898 3.1606e-18)
(1.0005 -0.0012928 -7.4905e-18)
(1.0003 -0.00081132 8.5317e-20)
(1.0019 -0.0018206 -1.5476e-17)
(1 -0.00046344 -1.0317e-17)
(1.0053 -0.00065576 3.2192e-17)
(0.99565 -0.00025155 -1.8791e-17)
(1.0111 0.011096 1.2429e-17)
(0.99261 -0.0049843 4.3698e-18)
(0.99766 0.042889 -5.2683e-18)
(0.99976 0.00016674 -3.3565e-18)
(0.99987 -0.00053627 -1.1387e-17)
(0.99995 -0.00053084 8.0686e-18)
(1.0005 -0.0013511 -2.0457e-17)
(1.0004 -0.00087561 -2.3275e-17)
(1.002 -0.0019022 -2.1379e-17)
(1.0001 -0.00054589 -2.1026e-17)
(1.0055 -0.00065848 -3.2965e-18)
(0.9958 -0.00034109 1.6424e-17)
(1.0111 0.011149 -1.066e-17)
(0.99326 -0.0048131 4.3551e-19)
(0.99809 0.04193 4.9651e-18)
(0.99974 0.00016615 6.4783e-18)
(0.99987 -0.00055834 1.19e-17)
(0.99995 -0.00056468 -1.3012e-17)
(1.0005 -0.0014112 1.6795e-17)
(1.0004 -0.00094249 -2.7287e-18)
(1.0021 -0.0019827 1.4013e-17)
(1.0001 -0.00062799 2.5273e-17)
(1.0056 -0.00065746 -2.4975e-17)
(0.99594 -0.00042825 -8.3298e-18)
(1.0111 0.011195 1.1255e-17)
(0.99389 -0.0046469 3.7822e-18)
(0.9985 0.040991 -2.3504e-18)
(0.99973 0.00016508 -4.8609e-18)
(0.99986 -0.00058138 -3.5171e-18)
(0.99994 -0.00060046 -2.7203e-18)
(1.0005 -0.0014729 1.9216e-17)
(1.0004 -0.0010115 -5.8421e-18)
(1.0022 -0.0020617 -1.7754e-19)
(1.0002 -0.00070917 -4.9453e-18)
(1.0057 -0.000653 2.0005e-17)
(0.99608 -0.00051316 -7.9114e-18)
(1.0111 0.011234 -7.7283e-18)
(0.9945 -0.0044856 -1.1182e-17)
(0.9989 0.040073 2.7351e-18)
(0.99971 0.00016352 3.3041e-18)
(0.99985 -0.00060538 -4.4593e-18)
(0.99994 -0.00063805 6.2283e-18)
(1.0006 -0.0015359 -2.9157e-17)
(1.0004 -0.0010821 3.9582e-17)
(1.0022 -0.0021386 5.8056e-18)
(1.0002 -0.00078896 1.9511e-17)
(1.0058 -0.00064545 -1.238e-17)
(0.99623 -0.00059597 1.0266e-19)
(1.0111 0.011265 5.7455e-18)
(0.99511 -0.0043291 -2.1805e-18)
(0.99929 0.039174 -1.0289e-18)
(0.9997 0.00016149 -9.4523e-19)
(0.99984 -0.00063031 8.7158e-19)
(0.99993 -0.00067733 1.5174e-17)
(1.0006 -0.0015999 7.9487e-18)
(1.0004 -0.0011538 -1.9788e-17)
(1.0023 -0.0022131 -1.1371e-17)
(1.0003 -0.00086701 3.4064e-18)
(1.0059 -0.00063516 -6.019e-18)
(0.99637 -0.00067686 1.3237e-17)
(1.0111 0.01129 -3.7721e-18)
(0.99569 -0.0041772 1.0479e-17)
(0.99966 0.038295 -3.7606e-18)
(0.99968 0.000159 -1.6452e-18)
(0.99982 -0.0006561 -8.4019e-18)
(0.99992 -0.00071811 -4.5119e-18)
(1.0006 -0.0016647 3.1918e-17)
(1.0005 -0.0012261 -1.7628e-17)
(1.0024 -0.0022849 -9.6311e-19)
(1.0003 -0.00094305 -5.0946e-17)
(1.006 -0.00062254 5.916e-18)
(0.99652 -0.00075601 -2.476e-17)
(1.0111 0.011308 -8.143e-18)
(0.99627 -0.00403 -1.0488e-17)
(1 0.037435 2.2334e-18)
(0.99966 0.00015606 -7.1019e-19)
(0.99981 -0.00068269 5.2054e-18)
(0.99992 -0.00076019 -1.8625e-18)
(1.0006 -0.0017299 -1.8585e-17)
(1.0005 -0.0012985 2.5333e-17)
(1.0024 -0.0023536 -2.3675e-18)
(1.0003 -0.0010169 2.6986e-17)
(1.0061 -0.00060798 -3.6373e-18)
(0.99666 -0.00083362 1.202e-17)
(1.0111 0.011319 1.0184e-17)
(0.99683 -0.0038872 8.6525e-18)
(1.0004 0.036593 -5.4097e-19)
(0.99964 0.0001527 4.0258e-18)
(0.9998 -0.00070998 -3.1142e-18)
(0.99991 -0.00080334 -6.5148e-18)
(1.0006 -0.0017952 2.0283e-17)
(1.0005 -0.0013704 1.859e-18)
(1.0025 -0.0024191 2.9353e-17)
(1.0004 -0.0010886 4.655e-18)
(1.0062 -0.00059187 1.7377e-17)
(0.99681 -0.00090985 4.5094e-18)
(1.0111 0.011324 -3.2949e-18)
(0.99738 -0.0037487 1.1274e-18)
(1.0007 0.035769 4.8942e-19)
(0.99963 0.00014895 1.1478e-18)
(0.99979 -0.00073787 1.2734e-18)
(0.9999 -0.00084732 -5.9071e-18)
(1.0006 -0.0018602 -4.0392e-17)
(1.0005 -0.0014416 5.6292e-18)
(1.0026 -0.0024812 2.5455e-18)
(1.0004 -0.001158 -2.0185e-17)
(1.0063 -0.0005746 2.4448e-19)
(0.99696 -0.00098489 1.3292e-17)
(1.011 0.011321 -2.1178e-18)
(0.99791 -0.0036146 -5.4892e-18)
(1.0011 0.034962 2.8882e-18)
(0.99961 0.00014484 -4.9154e-18)
(0.99977 -0.00076623 5.3968e-18)
(0.99989 -0.00089185 9.7414e-19)
(1.0007 -0.0019245 2.2429e-17)
(1.0005 -0.0015115 -2.5679e-17)
(1.0026 -0.0025399 -1.1244e-17)
(1.0004 -0.0012253 2.0644e-17)
(1.0064 -0.00055654 -1.177e-17)
(0.99711 -0.0010589 -2.1016e-17)
(1.011 0.011313 -1.0463e-17)
(0.99843 -0.0034845 6.994e-18)
(1.0014 0.034173 9.6451e-19)
(0.99959 0.00014042 -5.2008e-19)
(0.99976 -0.00079493 -5.4305e-18)
(0.99988 -0.00093668 1.0371e-17)
(1.0007 -0.001988 9.9444e-18)
(1.0005 -0.0015799 3.1716e-17)
(1.0027 -0.0025952 4.3193e-18)
(1.0005 -0.0012906 1.8336e-17)
(1.0064 -0.00053805 2.984e-17)
(0.99725 -0.001132 -9.3023e-19)
(1.011 0.011298 1.8403e-17)
(0.99894 -0.0033586 -7.3923e-19)
(1.0017 0.033401 -2.8116e-18)
(0.99956 0.00013574 5.0411e-18)
(0.99974 -0.00082383 -7.9061e-18)
(0.99987 -0.00098154 -1.574e-17)
(1.0007 -0.0020502 -2.6435e-18)
(1.0005 -0.0016464 -3.4422e-17)
(1.0027 -0.0026473 -1.2852e-17)
(1.0005 -0.001354 -6.3649e-18)
(1.0065 -0.00051945 2.228e-19)
(0.99741 -0.0012043 2.7354e-17)
(1.011 0.011276 4.2391e-18)
(0.99944 -0.0032367 -9.6121e-18)
(1.002 0.032645 1.688e-18)
(0.99954 0.00013084 -5.6515e-18)
(0.99973 -0.00085279 9.8762e-18)
(0.99986 -0.0010262 8.2395e-18)
(1.0007 -0.002111 -5.2672e-18)
(1.0006 -0.001711 2.7681e-17)
(1.0028 -0.0026961 1.5376e-17)
(1.0005 -0.0014159 -5.0314e-18)
(1.0066 -0.00050103 -3.007e-17)
(0.99756 -0.001276 -9.2925e-19)
(1.011 0.011249 -1.2116e-17)
(0.99993 -0.0031186 1.1383e-17)
(1.0023 0.031906 -2.2103e-18)
(0.99952 0.00012578 3.3958e-18)
(0.99971 -0.00088166 -1.8897e-18)
(0.99985 -0.0010704 1.0909e-17)
(1.0007 -0.0021702 -2.2158e-17)
(1.0006 -0.0017735 9.0378e-18)
(1.0028 -0.002742 -5.5236e-18)
(1.0005 -0.0014764 -1.084e-17)
(1.0066 -0.00048308 -2.4134e-18)
(0.99771 -0.0013472 -3.3019e-17)
(1.011 0.011216 7.9923e-18)
(1.0004 -0.0030045 -1.0431e-17)
(1.0026 0.031182 7.3804e-19)
(0.99949 0.00012059 2.6846e-19)
(0.99969 -0.00091032 -5.9446e-18)
(0.99983 -0.0011139 6.1944e-18)
(1.0007 -0.0022274 2.9163e-17)
(1.0006 -0.0018337 -2.1527e-17)
(1.0029 -0.0027851 1.7768e-17)
(1.0006 -0.0015358 -6.268e-18)
(1.0067 -0.00046584 5.5893e-18)
(0.99786 -0.0014179 3.9231e-17)
(1.011 0.011176 -1.4836e-17)
(1.0009 -0.0028941 1.5953e-17)
(1.0029 0.030473 2.0882e-18)
(0.99947 0.00011534 4.8183e-19)
(0.99967 -0.00093863 -1.2301e-18)
(0.99982 -0.0011566 -8.9121e-18)
(1.0007 -0.0022828 -4.3907e-18)
(1.0006 -0.0018918 1.876e-17)
(1.0029 -0.0028256 1.4098e-19)
(1.0006 -0.0015942 -1.232e-17)
(1.0068 -0.00044953 -1.3342e-17)
(0.99802 -0.0014882 -1.6423e-17)
(1.011 0.011132 -1.3998e-18)
(1.0013 -0.0027875 2.9295e-18)
(1.0032 0.02978 2.1975e-19)
(0.99944 0.00011006 -7.7544e-19)
(0.99965 -0.00096649 1.464e-17)
(0.9998 -0.0011982 -5.9439e-18)
(1.0007 -0.002336 -2.481e-17)
(1.0006 -0.0019477 8.6479e-18)
(1.0029 -0.0028639 -4.5268e-17)
(1.0006 -0.001652 6.1458e-18)
(1.0068 -0.00043435 8.4015e-18)
(0.99817 -0.0015582 7.6285e-19)
(1.011 0.011081 1.5065e-17)
(1.0018 -0.0026845 -9.696e-19)
(1.0035 0.029101 -5.8371e-18)
(0.99942 0.00010479 -2.0474e-19)
(0.99963 -0.00099379 -2.8738e-19)
(0.99978 -0.0012388 8.0012e-18)
(1.0007 -0.0023873 1.5317e-17)
(1.0006 -0.0020016 -3.4363e-17)
(1.003 -0.0029001 1.9556e-18)
(1.0006 -0.0017093 1.1008e-17)
(1.0069 -0.00042047 1.3157e-17)
(0.99833 -0.0016279 -1.039e-17)
(1.011 0.011025 -1.4667e-17)
(1.0022 -0.0025852 -1.5851e-17)
(1.0038 0.028436 6.1658e-18)
(0.99939 9.9586e-05 -1.3395e-18)
(0.99961 -0.0010204 4.0904e-19)
(0.99977 -0.0012781 -3.8579e-18)
(1.0007 -0.0024364 -1.0226e-17)
(1.0006 -0.0020535 1.9048e-17)
(1.003 -0.0029347 2.4297e-17)
(1.0007 -0.0017664 3.2105e-18)
(1.007 -0.00040803 6.6662e-18)
(0.99849 -0.0016974 1.6571e-17)
(1.011 0.010964 2.4687e-18)
(1.0026 -0.0024895 1.1729e-17)
(1.0041 0.027786 -3.7426e-18)
(0.99936 9.4469e-05 2.4654e-18)
(0.99959 -0.0010464 7.5417e-19)
(0.99975 -0.0013162 -5.5129e-18)
(1.0007 -0.0024836 1.5107e-18)
(1.0006 -0.0021037 -1.0327e-17)
(1.003 -0.0029678 -5.8281e-18)
(1.0007 -0.0018235 -1.1865e-18)
(1.007 -0.00039718 -3.01e-17)
(0.99865 -0.0017668 3.2538e-18)
(1.011 0.010898 -5.0037e-18)
(1.003 -0.0023972 -4.77e-18)
(1.0044 0.02715 -4.5126e-18)
(0.99933 8.947e-05 -5.0312e-18)
(0.99956 -0.0010716 9.8526e-19)
(0.99973 -0.0013529 2.9241e-18)
(1.0007 -0.0025289 -1.8982e-17)
(1.0006 -0.0021523 -1.1772e-17)
(1.0031 -0.0029997 -2.7056e-17)
(1.0007 -0.0018807 5.7266e-18)
(1.0071 -0.00038801 1.2291e-17)
(0.99881 -0.001836 -3.4891e-17)
(1.011 0.010826 2.3074e-17)
(1.0034 -0.0023085 -5.165e-18)
(1.0046 0.026527 2.9099e-18)
(0.9993 8.4611e-05 4.6183e-18)
(0.99954 -0.001096 2.205e-18)
(0.9997 -0.0013884 1.1246e-18)
(1.0007 -0.0025723 6.0208e-18)
(1.0006 -0.0021995 -2.5997e-18)
(1.0031 -0.0030307 5.2439e-17)
(1.0007 -0.0019381 2.0561e-17)
(1.0071 -0.00038064 -1.9113e-17)
(0.99897 -0.0019052 3.3583e-17)
(1.011 0.01075 -8.6088e-18)
(1.0038 -0.0022232 -3.4108e-18)
(1.0049 0.025917 -1.4521e-18)
(0.99927 7.9911e-05 1.1327e-18)
(0.99951 -0.0011197 -1.3964e-17)
(0.99968 -0.0014226 2.2505e-18)
(1.0007 -0.0026141 2.7035e-17)
(1.0005 -0.0022456 2.0123e-17)
(1.0031 -0.0030609 -8.4746e-19)
(1.0007 -0.001996 -2.8484e-17)
(1.0072 -0.00037515 5.7894e-18)
(0.99913 -0.0019743 -7.5742e-18)
(1.011 0.010669 -1.1914e-17)
(1.0042 -0.0021413 8.6743e-18)
(1.0052 0.02532 1.3535e-18)
(0.99924 7.5379e-05 -4.4802e-18)
(0.99949 -0.0011425 -4.6547e-18)
(0.99966 -0.0014556 -1.219e-17)
(1.0007 -0.0026543 -2.2672e-17)
(1.0005 -0.0022906 -2.0247e-17)
(1.0031 -0.0030907 -2.3829e-17)
(1.0008 -0.0020544 5.2602e-18)
(1.0072 -0.00037162 4.4988e-17)
(0.99929 -0.0020434 3.3019e-18)
(1.0111 0.010584 -1.04e-18)
(1.0046 -0.0020628 -3.0643e-18)
(1.0054 0.024735 -3.6381e-18)
(0.99921 7.1022e-05 3.3245e-18)
(0.99946 -0.0011646 4.3243e-18)
(0.99963 -0.0014874 1.8785e-17)
(1.0007 -0.0026931 1.5702e-17)
(1.0005 -0.0023349 1.9697e-17)
(1.0032 -0.0031202 -8.8585e-19)
(1.0008 -0.0021135 -2.9308e-17)
(1.0073 -0.00037009 -2.4315e-17)
(0.99945 -0.0021125 8.1959e-18)
(1.0111 0.010493 4.1237e-18)
(1.0049 -0.0019877 6.9166e-18)
(1.0057 0.024163 2.8117e-18)
(0.99917 6.6843e-05 -2.3477e-18)
(0.99943 -0.0011859 6.7831e-18)
(0.9996 -0.0015182 -1.2429e-17)
(1.0007 -0.0027308 2.2722e-18)
(1.0005 -0.0023786 9.1576e-18)
(1.0032 -0.0031496 -2.3292e-18)
(1.0008 -0.0021733 6.58e-18)
(1.0073 -0.00037065 6.7508e-18)
(0.99962 -0.0021817 2.6992e-18)
(1.0111 0.010399 1.0193e-17)
(1.0053 -0.0019158 -8.3202e-18)
(1.0059 0.023603 5.6785e-19)
(0.99914 6.2838e-05 3.5445e-18)
(0.9994 -0.0012065 4.2036e-19)
(0.99958 -0.0015481 -5.8174e-18)
(1.0007 -0.0027674 9.0431e-19)
(1.0005 -0.0024218 -1.5052e-18)
(1.0032 -0.0031791 -2.3009e-17)
(1.0008 -0.002234 1.8373e-17)
(1.0074 -0.00037332 2.3956e-17)
(0.99978 -0.0022509 -1.343e-17)
(1.0111 0.0103 -1.4183e-17)
(1.0056 -0.0018472 -2.4359e-18)
(1.0062 0.023054 4.8364e-18)
(0.99911 5.9001e-05 -2.5748e-18)
(0.99937 -0.0012265 -3.2375e-19)
(0.99955 -0.0015771 7.2331e-18)
(1.0007 -0.0028031 -1.7374e-17)
(1.0005 -0.0024649 -1.3603e-17)
(1.0032 -0.0032088 2.9049e-17)
(1.0009 -0.0022955 -2.8098e-18)
(1.0074 -0.00037817 -2.5366e-17)
(0.99995 -0.0023202 3.4226e-18)
(1.0111 0.010197 1.3353e-17)
(1.006 -0.0017819 8.2549e-18)
(1.0064 0.022517 -1.744e-18)
(0.99907 5.5321e-05 2.5584e-19)
(0.99934 -0.0012458 2.3712e-18)
(0.99952 -0.0016054 3.952e-18)
(1.0007 -0.0028381 8.9813e-18)
(1.0005 -0.0025079 2.6662e-17)
(1.0033 -0.0032388 6.7723e-18)
(1.0009 -0.0023579 -2.4467e-17)
(1.0075 -0.00038522 2.376e-18)
(1.0001 -0.0023896 8.8179e-18)
(1.0111 0.01009 -1.203e-17)
(1.0063 -0.0017198 -5.5846e-18)
(1.0067 0.021991 -2.0174e-18)
(0.99903 5.1787e-05 7.2639e-19)
(0.99931 -0.0012647 -4.1255e-19)
(0.99949 -0.001633 -1.0427e-17)
(1.0006 -0.0028725 -1.9315e-19)
(1.0005 -0.002551 -5.2713e-17)
(1.0033 -0.0032693 8.3493e-18)
(1.0009 -0.0024213 2.4034e-17)
(1.0075 -0.00039451 -6.8278e-18)
(1.0003 -0.0024591 -9.233e-18)
(1.0111 0.0099792 1.9977e-17)
(1.0066 -0.0016609 6.6881e-18)
(1.0069 0.021476 5.229e-18)
(0.999 4.8385e-05 7.8025e-19)
(0.99928 -0.0012831 -8.559e-19)
(0.99946 -0.0016602 1.8857e-17)
(1.0006 -0.0029066 4.142e-18)
(1.0005 -0.0025943 4.6711e-17)
(1.0033 -0.0033003 -2.9427e-17)
(1.0009 -0.0024858 -8.0489e-18)
(1.0076 -0.00040608 6.4247e-18)
(1.0004 -0.0025288 3.1829e-18)
(1.0111 0.0098644 -1.124e-17)
(1.007 -0.0016052 -1.0807e-18)
(1.0071 0.020972 -3.8558e-18)
(0.99896 4.5098e-05 -3.0493e-18)
(0.99924 -0.001301 1.4368e-18)
(0.99943 -0.001687 -1.1083e-17)
(1.0006 -0.0029403 5.446e-18)
(1.0004 -0.002638 -1.7749e-17)
(1.0033 -0.003332 3.9907e-18)
(1.001 -0.0025513 3.2228e-17)
(1.0076 -0.00041996 -2.4044e-17)
(1.0006 -0.0025988 -1.1698e-17)
(1.0112 0.0097459 -1.1119e-17)
(1.0073 -0.0015526 -5.3233e-18)
(1.0074 0.020478 -1.0586e-18)
(0.99892 4.1911e-05 3.7982e-18)
(0.99921 -0.0013187 -3.4125e-18)
(0.9994 -0.0017135 -1.0755e-17)
(1.0006 -0.0029739 -8.6844e-18)
(1.0004 -0.0026821 -2.9017e-17)
(1.0034 -0.0033644 -1.8508e-17)
(1.001 -0.0026179 -1.9761e-17)
(1.0077 -0.00043616 2.2355e-17)
(1.0008 -0.0026689 1.1343e-17)
(1.0112 0.0096238 1.6838e-17)
(1.0076 -0.0015031 -2.0873e-18)
(1.0076 0.019995 5.1101e-18)
(0.99888 3.8805e-05 -6.1043e-18)
(0.99918 -0.001336 5.5288e-18)
(0.99936 -0.0017398 2.6333e-17)
(1.0006 -0.0030075 -2.0484e-18)
(1.0004 -0.0027268 3.2103e-17)
(1.0034 -0.0033976 1.3965e-18)
(1.001 -0.0026856 -1.8927e-17)
(1.0077 -0.00045472 8.7464e-18)
(1.0009 -0.0027393 -4.0905e-18)
(1.0112 0.0094982 -3.5258e-18)
(1.0079 -0.0014568 6.77e-18)
(1.0078 0.019521 -3.4556e-18)
(0.99884 3.5766e-05 5.0023e-18)
(0.99914 -0.0013532 -7.5138e-18)
(0.99933 -0.001766 -3.0702e-17)
(1.0006 -0.0030412 1.3399e-17)
(1.0004 -0.0027721 -2.2871e-17)
(1.0034 -0.0034316 2.5583e-17)
(1.0011 -0.0027544 6.169e-18)
(1.0078 -0.00047567 -8.3275e-18)
(1.0011 -0.0028099 -1.9636e-18)
(1.0112 0.0093692 -8.8298e-18)
(1.0082 -0.0014135 -1.1046e-17)
(1.0081 0.019057 4.7761e-18)
(0.9988 3.2774e-05 -3.6845e-18)
(0.9991 -0.0013702 2.4984e-18)
(0.99929 -0.0017923 1.8655e-17)
(1.0006 -0.003075 -1.7662e-17)
(1.0004 -0.0028181 3.6798e-17)
(1.0034 -0.0034665 -1.9855e-17)
(1.0011 -0.0028244 3.5962e-18)
(1.0078 -0.00049902 -1.3157e-17)
(1.0013 -0.0028809 6.412e-18)
(1.0112 0.0092368 -1.2353e-18)
(1.0084 -0.0013733 4.7264e-18)
(1.0083 0.018602 -2.1242e-18)
(0.99876 2.9816e-05 4.5188e-18)
(0.99907 -0.001387 1.945e-18)
(0.99926 -0.0018186 -1.2436e-17)
(1.0005 -0.003109 -3.5882e-19)
(1.0004 -0.0028648 -1.6253e-18)
(1.0034 -0.0035024 4.8023e-18)
(1.0011 -0.0028956 3.4153e-17)
(1.0079 -0.0005248 8.9994e-18)
(1.0014 -0.0029522 -1.9007e-17)
(1.0113 0.0091012 -6.4034e-18)
(1.0087 -0.0013362 -4.4551e-18)
(1.0085 0.018157 2.2311e-18)
(0.99872 2.6874e-05 -5.1793e-18)
(0.99903 -0.0014039 -7.2073e-18)
(0.99922 -0.0018451 5.2176e-18)