/*--------------------------------*- C++ -*----------------------------------*\
  =========                 |
  \\      /  F ield         | OpenFOAM: The Open Source CFD Toolbox
   \\    /   O peration     | Website:  https://openfoam.org
    \\  /    A nd           | Version:  6.0
     \\/     M anipulation  |
\*---------------------------------------------------------------------------*/
FoamFile
{
    version     2.0;
    format      ascii;
    class       volScalarField;
    location    "0.91";
    object      p;
}
// * * * * * * * * * * * * * * * * * * * * * * * * * * * * * * * * * * * * * //

dimensions      [0 2 -2 0 0 0 0];

internalField   nonuniform List<scalar> 
13500
(
0.10021
0.10036
0.099573
0.09965
0.098154
0.098601
0.097066
0.098752
0.099225
0.10451
0.12406
0.17201
0.10021
0.10036
0.099573
0.099651
0.098153
0.098603
0.097064
0.098753
0.099221
0.10457
0.12339
0.16696
0.10021
0.10036
0.099572
0.099653
0.09815
0.098605
0.09706
0.098754
0.099211
0.1046
0.12252
0.16249
0.10022
0.10036
0.099571
0.099656
0.098148
0.098608
0.097054
0.098754
0.099196
0.10462
0.12155
0.159
0.10022
0.10037
0.099571
0.099659
0.098145
0.098611
0.097048
0.098752
0.099175
0.10462
0.12052
0.15605
0.10022
0.10037
0.09957
0.099662
0.098142
0.098613
0.097041
0.098749
0.09915
0.10461
0.11946
0.15342
0.10022
0.10037
0.09957
0.099665
0.09814
0.098615
0.097034
0.098745
0.099121
0.10458
0.1184
0.15103
0.10022
0.10037
0.09957
0.099669
0.098137
0.098617
0.097026
0.098739
0.099087
0.10455
0.11734
0.14883
0.10022
0.10038
0.099571
0.099672
0.098135
0.098618
0.097017
0.098732
0.099049
0.1045
0.11632
0.14681
0.10022
0.10038
0.099571
0.099676
0.098132
0.098619
0.097008
0.098724
0.099007
0.10445
0.11532
0.14492
0.10023
0.10038
0.099572
0.09968
0.098129
0.09862
0.096998
0.098715
0.09896
0.10438
0.11436
0.14314
0.10023
0.10039
0.099573
0.099683
0.098127
0.098621
0.096987
0.098704
0.09891
0.10431
0.11344
0.14148
0.10023
0.10039
0.099574
0.099687
0.098125
0.098622
0.096976
0.098691
0.098856
0.10423
0.11256
0.1399
0.10024
0.1004
0.099576
0.099692
0.098122
0.098622
0.096965
0.098678
0.098798
0.10414
0.11172
0.13841
0.10024
0.1004
0.099578
0.099696
0.09812
0.098622
0.096952
0.098663
0.098737
0.10406
0.11091
0.137
0.10024
0.10041
0.09958
0.0997
0.098117
0.098622
0.096939
0.098647
0.098672
0.10396
0.11014
0.13565
0.10025
0.10041
0.099583
0.099705
0.098115
0.098622
0.096926
0.098629
0.098603
0.10387
0.10939
0.13436
0.10025
0.10042
0.099585
0.09971
0.098113
0.098621
0.096911
0.098611
0.098532
0.10377
0.10868
0.13312
0.10026
0.10042
0.099588
0.099715
0.09811
0.09862
0.096897
0.098591
0.098457
0.10367
0.10798
0.13194
0.10027
0.10043
0.099592
0.09972
0.098108
0.098619
0.096881
0.098569
0.098379
0.10356
0.1073
0.1308
0.10027
0.10044
0.099595
0.099725
0.098106
0.098618
0.096865
0.098547
0.098299
0.10346
0.10665
0.12971
0.10028
0.10045
0.099599
0.099731
0.098104
0.098616
0.096848
0.098523
0.098215
0.10335
0.10601
0.12865
0.10028
0.10045
0.099603
0.099736
0.098102
0.098614
0.096831
0.098498
0.098129
0.10324
0.10538
0.12762
0.10029
0.10046
0.099607
0.099742
0.0981
0.098612
0.096813
0.098472
0.09804
0.10313
0.10476
0.12662
0.1003
0.10047
0.099612
0.099748
0.098098
0.098609
0.096795
0.098445
0.097949
0.10301
0.10416
0.12566
0.10031
0.10048
0.099617
0.099754
0.098096
0.098607
0.096776
0.098416
0.097856
0.1029
0.10357
0.12472
0.10032
0.10049
0.099623
0.09976
0.098094
0.098604
0.096757
0.098387
0.09776
0.10278
0.10299
0.12381
0.10032
0.1005
0.099628
0.099766
0.098092
0.0986
0.096736
0.098356
0.097662
0.10266
0.10242
0.12292
0.10033
0.1005
0.099634
0.099773
0.09809
0.098597
0.096716
0.098325
0.097561
0.10254
0.10186
0.12205
0.10034
0.10051
0.099641
0.09978
0.098089
0.098593
0.096695
0.098292
0.097459
0.10242
0.1013
0.1212
0.10035
0.10053
0.099647
0.099787
0.098087
0.098589
0.096673
0.098258
0.097354
0.10229
0.10076
0.12037
0.10036
0.10054
0.099654
0.099794
0.098086
0.098585
0.09665
0.098223
0.097247
0.10216
0.10023
0.11956
0.10037
0.10055
0.099662
0.099801
0.098084
0.09858
0.096628
0.098187
0.097139
0.10203
0.099699
0.11877
0.10038
0.10056
0.099669
0.099809
0.098083
0.098575
0.096604
0.09815
0.097029
0.1019
0.099182
0.11799
0.1004
0.10057
0.099677
0.099816
0.098082
0.09857
0.09658
0.098112
0.096916
0.10177
0.098673
0.11723
0.10041
0.10058
0.099686
0.099824
0.098081
0.098565
0.096556
0.098074
0.096803
0.10163
0.098172
0.11648
0.10042
0.10059
0.099694
0.099832
0.09808
0.098559
0.096531
0.098034
0.096687
0.10149
0.09768
0.11575
0.10043
0.10061
0.099704
0.09984
0.098079
0.098553
0.096506
0.097993
0.09657
0.10135
0.097197
0.11503
0.10045
0.10062
0.099713
0.099849
0.098079
0.098547
0.09648
0.097951
0.096452
0.10121
0.096721
0.11432
0.10046
0.10063
0.099723
0.099857
0.098078
0.09854
0.096453
0.097909
0.096332
0.10107
0.096254
0.11363
0.10047
0.10065
0.099733
0.099866
0.098078
0.098534
0.096426
0.097866
0.096211
0.10093
0.095795
0.11294
0.10049
0.10066
0.099744
0.099875
0.098077
0.098527
0.096399
0.097821
0.096088
0.10078
0.095344
0.11227
0.1005
0.10068
0.099755
0.099884
0.098077
0.098519
0.096371
0.097776
0.095965
0.10063
0.094901
0.11161
0.10052
0.10069
0.099766
0.099893
0.098077
0.098512
0.096342
0.09773
0.09584
0.10048
0.094466
0.11096
0.10054
0.10071
0.099778
0.099903
0.098078
0.098504
0.096314
0.097683
0.095714
0.10033
0.094039
0.11031
0.10055
0.10073
0.09979
0.099913
0.098078
0.098496
0.096284
0.097636
0.095587
0.10018
0.09362
0.10968
0.10057
0.10074
0.099803
0.099923
0.098078
0.098488
0.096254
0.097587
0.095459
0.10002
0.093208
0.10906
0.10059
0.10076
0.099816
0.099933
0.098079
0.09848
0.096224
0.097538
0.09533
0.099867
0.092803
0.10844
0.1006
0.10078
0.09983
0.099944
0.09808
0.098471
0.096194
0.097488
0.0952
0.09971
0.092407
0.10784
0.10062
0.10079
0.099844
0.099954
0.098081
0.098463
0.096162
0.097437
0.09507
0.099551
0.092017
0.10724
0.10064
0.10081
0.099858
0.099965
0.098082
0.098454
0.096131
0.097386
0.094939
0.099391
0.091634
0.10665
0.10066
0.10083
0.099873
0.099976
0.098084
0.098445
0.096099
0.097333
0.094807
0.09923
0.091259
0.10606
0.10068
0.10085
0.099888
0.099988
0.098085
0.098435
0.096067
0.09728
0.094674
0.099067
0.090891
0.10549
0.1007
0.10087
0.099904
0.1
0.098087
0.098426
0.096034
0.097226
0.094541
0.098903
0.090529
0.10492
0.10072
0.10089
0.09992
0.10001
0.098089
0.098416
0.096001
0.097172
0.094407
0.098738
0.090174
0.10436
0.10075
0.10091
0.099937
0.10002
0.098091
0.098406
0.095967
0.097117
0.094273
0.098572
0.089826
0.10381
0.10077
0.10093
0.099954
0.10004
0.098093
0.098396
0.095934
0.097061
0.094139
0.098404
0.089484
0.10326
0.10079
0.10096
0.099972
0.10005
0.098096
0.098386
0.095899
0.097004
0.094004
0.098236
0.089148
0.10272
0.10081
0.10098
0.09999
0.10006
0.098099
0.098376
0.095865
0.096947
0.093868
0.098066
0.088819
0.10218
0.10084
0.101
0.10001
0.10008
0.098102
0.098366
0.09583
0.096889
0.093733
0.097895
0.088496
0.10165
0.10086
0.10102
0.10003
0.10009
0.098105
0.098355
0.095795
0.09683
0.093597
0.097723
0.088179
0.10113
0.10089
0.10105
0.10005
0.1001
0.098109
0.098344
0.095759
0.096771
0.093461
0.09755
0.087868
0.10062
0.10091
0.10107
0.10007
0.10012
0.098112
0.098334
0.095723
0.096711
0.093324
0.097376
0.087562
0.10011
0.10094
0.1011
0.10009
0.10013
0.098116
0.098323
0.095687
0.09665
0.093188
0.097201
0.087262
0.099603
0.10097
0.10112
0.10011
0.10015
0.098121
0.098312
0.095651
0.096589
0.093051
0.097025
0.086968
0.099105
0.10099
0.10115
0.10013
0.10016
0.098125
0.0983
0.095614
0.096527
0.092915
0.096849
0.086679
0.098612
0.10102
0.10118
0.10015
0.10018
0.09813
0.098289
0.095577
0.096465
0.092778
0.096671
0.086396
0.098124
0.10105
0.1012
0.10018
0.10019
0.098135
0.098278
0.09554
0.096402
0.092641
0.096492
0.086117
0.097642
0.10108
0.10123
0.1002
0.10021
0.09814
0.098267
0.095502
0.096338
0.092505
0.096313
0.085844
0.097165
0.10111
0.10126
0.10023
0.10023
0.098146
0.098255
0.095465
0.096274
0.092368
0.096133
0.085575
0.096694
0.10114
0.10129
0.10025
0.10024
0.098152
0.098244
0.095427
0.096209
0.092232
0.095952
0.085311
0.096227
0.10117
0.10132
0.10028
0.10026
0.098158
0.098232
0.095389
0.096144
0.092096
0.09577
0.085052
0.095766
0.1012
0.10135
0.1003
0.10028
0.098165
0.098221
0.09535
0.096078
0.091959
0.095587
0.084798
0.095309
0.10124
0.10138
0.10033
0.1003
0.098172
0.098209
0.095312
0.096012
0.091823
0.095404
0.084548
0.094857
0.10127
0.10141
0.10036
0.10031
0.098179
0.098197
0.095273
0.095945
0.091688
0.09522
0.084302
0.09441
0.1013
0.10144
0.10038
0.10033
0.098186
0.098186
0.095235
0.095877
0.091552
0.095035
0.08406
0.093967
0.10134
0.10148
0.10041
0.10035
0.098194
0.098174
0.095196
0.095809
0.091417
0.09485
0.083823
0.093529
0.10137
0.10151
0.10044
0.10037
0.098203
0.098162
0.095157
0.095741
0.091282
0.094663
0.08359
0.093096
0.10141
0.10154
0.10047
0.10039
0.098211
0.098151
0.095117
0.095672
0.091147
0.094477
0.08336
0.092667
0.10145
0.10158
0.1005
0.10041
0.09822
0.098139
0.095078
0.095602
0.091012
0.094289
0.083134
0.092242
0.10149
0.10161
0.10053
0.10043
0.09823
0.098128
0.095039
0.095532
0.090878
0.094101
0.082912
0.091822
0.10153
0.10165
0.10056
0.10046
0.098239
0.098116
0.094999
0.095462
0.090744
0.093913
0.082694
0.091406
0.10156
0.10169
0.1006
0.10048
0.09825
0.098104
0.09496
0.095391
0.090611
0.093724
0.082479
0.090993
0.10161
0.10173
0.10063
0.1005
0.09826
0.098093
0.09492
0.09532
0.090478
0.093534
0.082267
0.090585
0.10165
0.10176
0.10067
0.10052
0.098271
0.098082
0.094881
0.095248
0.090345
0.093344
0.082059
0.090181
0.10169
0.1018
0.1007
0.10055
0.098282
0.09807
0.094841
0.095176
0.090213
0.093153
0.081853
0.089781
0.10173
0.10184
0.10074
0.10057
0.098294
0.098059
0.094801
0.095103
0.090081
0.092962
0.081651
0.089385
0.10177
0.10188
0.10077
0.1006
0.098307
0.098048
0.094762
0.09503
0.08995
0.09277
0.081452
0.088992
0.10182
0.10193
0.10081
0.10062
0.098319
0.098037
0.094722
0.094956
0.089819
0.092578
0.081255
0.088603
0.10186
0.10197
0.10085
0.10065
0.098333
0.098026
0.094683
0.094882
0.089689
0.092385
0.081061
0.088218
0.10191
0.10201
0.10089
0.10067
0.098347
0.098015
0.094643
0.094808
0.089559
0.092192
0.08087
0.087836
0.10196
0.10206
0.10093
0.1007
0.098361
0.098005
0.094604
0.094733
0.089429
0.091999
0.080682
0.087457
0.10201
0.1021
0.10097
0.10073
0.098376
0.097994
0.094564
0.094658
0.0893
0.091805
0.080495
0.087082
0.10206
0.10215
0.10101
0.10076
0.098391
0.097984
0.094525
0.094583
0.089172
0.09161
0.080311
0.086711
0.10211
0.1022
0.10105
0.10079
0.098407
0.097974
0.094486
0.094507
0.089044
0.091415
0.08013
0.086342
0.10216
0.10224
0.10109
0.10082
0.098423
0.097964
0.094447
0.094431
0.088916
0.09122
0.07995
0.085977
0.10221
0.10229
0.10114
0.10085
0.09844
0.097955
0.094408
0.094354
0.088789
0.091025
0.079773
0.085615
0.10226
0.10234
0.10118
0.10088
0.098458
0.097945
0.094369
0.094277
0.088663
0.090829
0.079597
0.085255
0.10232
0.10239
0.10123
0.10091
0.098476
0.097936
0.09433
0.0942
0.088537
0.090632
0.079423
0.084899
0.10237
0.10245
0.10128
0.10094
0.098495
0.097927
0.094292
0.094122
0.088411
0.090436
0.079251
0.084546
0.10243
0.1025
0.10133
0.10097
0.098515
0.097918
0.094253
0.094044
0.088287
0.090239
0.079081
0.084195
0.10249
0.10255
0.10137
0.10101
0.098535
0.09791
0.094215
0.093966
0.088162
0.090041
0.078912
0.083847
0.10255
0.10261
0.10143
0.10104
0.098556
0.097902
0.094177
0.093887
0.088038
0.089843
0.078745
0.083502
0.10261
0.10266
0.10148
0.10108
0.098578
0.097894
0.09414
0.093808
0.087915
0.089645
0.078579
0.083159
0.10267
0.10272
0.10153
0.10112
0.0986
0.097887
0.094102
0.093729
0.087792
0.089447
0.078415
0.082819
0.10273
0.10278
0.10158
0.10115
0.098623
0.09788
0.094065
0.093649
0.08767
0.089248
0.078251
0.082481
0.10279
0.10284
0.10164
0.10119
0.098647
0.097874
0.094029
0.09357
0.087548
0.089049
0.078089
0.082145
0.10286
0.1029
0.10169
0.10123
0.098672
0.097867
0.093992
0.093489
0.087426
0.088849
0.077928
0.081812
0.10293
0.10296
0.10175
0.10127
0.098697
0.097862
0.093956
0.093409
0.087306
0.088649
0.077768
0.08148
0.10299
0.10303
0.10181
0.10131
0.098724
0.097856
0.09392
0.093329
0.087185
0.088449
0.077609
0.081151
0.10306
0.10309
0.10187
0.10136
0.098751
0.097852
0.093885
0.093248
0.087065
0.088249
0.07745
0.080824
0.10313
0.10316
0.10193
0.1014
0.098779
0.097847
0.09385
0.093167
0.086946
0.088048
0.077292
0.080499
0.1032
0.10323
0.10199
0.10144
0.098808
0.097844
0.093815
0.093086
0.086827
0.087847
0.077135
0.080175
0.10328
0.1033
0.10206
0.10149
0.098838
0.09784
0.093781
0.093004
0.086709
0.087645
0.076978
0.079853
0.10335
0.10337
0.10212
0.10154
0.098869
0.097838
0.093747
0.092922
0.086591
0.087443
0.076822
0.079533
0.10343
0.10344
0.10219
0.10159
0.098902
0.097836
0.093714
0.092841
0.086473
0.087241
0.076666
0.079215
0.10351
0.10352
0.10226
0.10164
0.098935
0.097834
0.093681
0.092759
0.086356
0.087039
0.07651
0.078897
0.10359
0.10359
0.10233
0.10169
0.098969
0.097834
0.093649
0.092677
0.08624
0.086836
0.076354
0.078582
0.10367
0.10367
0.1024
0.10174
0.099005
0.097834
0.093617
0.092594
0.086123
0.086632
0.076199
0.078267
0.10375
0.10375
0.10247
0.10179
0.099042
0.097834
0.093586
0.092512
0.086008
0.086429
0.076044
0.077954
0.10384
0.10383
0.10255
0.10185
0.09908
0.097836
0.093556
0.092429
0.085892
0.086225
0.075888
0.077641
0.10393
0.10391
0.10263
0.1019
0.099119
0.097838
0.093526
0.092347
0.085777
0.08602
0.075732
0.07733
0.10402
0.104
0.1027
0.10196
0.099159
0.097842
0.093497
0.092264
0.085663
0.085815
0.075576
0.077019
0.10411
0.10408
0.10279
0.10202
0.099201
0.097846
0.093468
0.092181
0.085549
0.08561
0.07542
0.07671
0.1042
0.10417
0.10287
0.10208
0.099245
0.097851
0.09344
0.092099
0.085435
0.085404
0.075264
0.076401
0.1043
0.10426
0.10295
0.10215
0.09929
0.097857
0.093413
0.092016
0.085321
0.085198
0.075106
0.076092
0.10439
0.10436
0.10304
0.10221
0.099336
0.097864
0.093387
0.091933
0.085208
0.084992
0.074949
0.075784
0.10449
0.10445
0.10313
0.10228
0.099384
0.097872
0.093362
0.09185
0.085096
0.084785
0.07479
0.075477
0.10459
0.10455
0.10322
0.10235
0.099434
0.097881
0.093337
0.091768
0.084983
0.084577
0.074631
0.075169
0.1047
0.10465
0.10331
0.10242
0.099486
0.097892
0.093314
0.091685
0.084871
0.084369
0.074471
0.074862
0.10481
0.10475
0.10341
0.10249
0.099539
0.097904
0.093291
0.091603
0.084759
0.084161
0.07431
0.074555
0.10492
0.10486
0.10351
0.10257
0.099594
0.097917
0.09327
0.09152
0.084648
0.083952
0.074148
0.074248
0.10503
0.10496
0.10361
0.10264
0.099651
0.097931
0.093249
0.091438
0.084537
0.083742
0.073985
0.073941
0.10514
0.10507
0.10371
0.10272
0.09971
0.097947
0.09323
0.091356
0.084426
0.083532
0.073821
0.073633
0.10526
0.10519
0.10382
0.10281
0.099771
0.097964
0.093212
0.091274
0.084316
0.083321
0.073656
0.073325
0.10538
0.1053
0.10393
0.10289
0.099835
0.097983
0.093194
0.091193
0.084205
0.08311
0.073489
0.073017
0.10551
0.10542
0.10404
0.10298
0.0999
0.098004
0.093179
0.091112
0.084095
0.082898
0.07332
0.072707
0.10563
0.10554
0.10415
0.10307
0.099968
0.098026
0.093164
0.091031
0.083986
0.082686
0.073151
0.072397
0.10576
0.10567
0.10427
0.10316
0.10004
0.098051
0.093151
0.09095
0.083876
0.082473
0.072979
0.072086
0.1059
0.1058
0.10439
0.10326
0.10011
0.098077
0.09314
0.09087
0.083767
0.082259
0.072806
0.071774
0.10603
0.10593
0.10452
0.10336
0.10019
0.098105
0.093129
0.090791
0.083658
0.082045
0.072631
0.071461
0.10617
0.10607
0.10465
0.10346
0.10027
0.098135
0.093121
0.090711
0.083549
0.081829
0.072454
0.071147
0.10632
0.10621
0.10478
0.10357
0.10035
0.098167
0.093114
0.090633
0.083441
0.081614
0.072275
0.070831
0.10647
0.10635
0.10491
0.10367
0.10043
0.098202
0.093109
0.090555
0.083332
0.081397
0.072094
0.070514
0.10662
0.1065
0.10505
0.10379
0.10052
0.098239
0.093106
0.090478
0.083224
0.08118
0.071911
0.070195
0.10678
0.10665
0.1052
0.1039
0.10061
0.098279
0.093104
0.090401
0.083117
0.080962
0.071725
0.069873
0.10694
0.10681
0.10534
0.10402
0.10071
0.098321
0.093105
0.090325
0.083009
0.080743
0.071538
0.06955
0.1071
0.10697
0.1055
0.10415
0.1008
0.098366
0.093108
0.09025
0.082902
0.080523
0.071347
0.069225
0.10727
0.10714
0.10565
0.10428
0.10091
0.098414
0.093113
0.090176
0.082795
0.080302
0.071154
0.068898
0.10745
0.10731
0.10582
0.10441
0.10101
0.098465
0.09312
0.090103
0.082688
0.080081
0.070959
0.068568
0.10763
0.10748
0.10598
0.10455
0.10112
0.098519
0.093129
0.090031
0.082582
0.079858
0.07076
0.068235
0.10781
0.10766
0.10616
0.10469
0.10123
0.098577
0.093141
0.08996
0.082475
0.079635
0.070559
0.067899
0.108
0.10785
0.10633
0.10484
0.10135
0.098638
0.093156
0.08989
0.082369
0.079411
0.070354
0.067561
0.1082
0.10804
0.10652
0.10499
0.10147
0.098702
0.093174
0.089822
0.082263
0.079185
0.070147
0.067219
0.1084
0.10824
0.1067
0.10515
0.1016
0.09877
0.093194
0.089754
0.082158
0.078959
0.069936
0.066874
0.10861
0.10845
0.1069
0.10531
0.10173
0.098843
0.093217
0.089689
0.082053
0.078731
0.069722
0.066525
0.10882
0.10866
0.1071
0.10548
0.10187
0.098919
0.093243
0.089624
0.081948
0.078503
0.069504
0.066173
0.10904
0.10887
0.10731
0.10566
0.10202
0.099
0.093273
0.089561
0.081843
0.078273
0.069283
0.065817
0.10927
0.1091
0.10752
0.10584
0.10216
0.099085
0.093305
0.0895
0.081739
0.078042
0.069058
0.065456
0.1095
0.10933
0.10774
0.10603
0.10232
0.099174
0.093342
0.089441
0.081635
0.07781
0.068829
0.065091
0.10974
0.10957
0.10797
0.10622
0.10248
0.099269
0.093382
0.089383
0.081531
0.077576
0.068596
0.064722
0.10999
0.10981
0.10821
0.10642
0.10265
0.099369
0.093426
0.089328
0.081427
0.077341
0.068358
0.064347
0.11025
0.11007
0.10845
0.10663
0.10282
0.099474
0.093473
0.089274
0.081324
0.077104
0.068117
0.063968
0.11051
0.11033
0.1087
0.10685
0.103
0.099584
0.093525
0.089223
0.081221
0.076867
0.06787
0.063583
0.11079
0.1106
0.10896
0.10707
0.10319
0.0997
0.093581
0.089173
0.081118
0.076627
0.067619
0.063193
0.11107
0.11088
0.10923
0.10731
0.10338
0.099822
0.093641
0.089126
0.081016
0.076386
0.067364
0.062797
0.11136
0.11117
0.10951
0.10755
0.10358
0.09995
0.093706
0.089082
0.080914
0.076143
0.067103
0.062394
0.11166
0.11147
0.10979
0.1078
0.10379
0.10009
0.093776
0.089039
0.080812
0.075898
0.066836
0.061985
0.11197
0.11178
0.11009
0.10806
0.10401
0.10023
0.093851
0.089
0.08071
0.075651
0.066565
0.06157
0.11229
0.11209
0.1104
0.10833
0.10424
0.10037
0.09393
0.088962
0.080608
0.075402
0.066287
0.061147
0.11262
0.11242
0.11071
0.10861
0.10447
0.10053
0.094015
0.088928
0.080507
0.075151
0.066004
0.060717
0.11296
0.11276
0.11104
0.1089
0.10472
0.10069
0.094105
0.088896
0.080405
0.074897
0.065715
0.06028
0.11331
0.11311
0.11138
0.1092
0.10497
0.10086
0.094201
0.088867
0.080304
0.074641
0.065419
0.059834
0.11367
0.11348
0.11173
0.10951
0.10523
0.10104
0.094302
0.088841
0.080202
0.074383
0.065116
0.059379
0.11404
0.11385
0.11209
0.10983
0.10551
0.10123
0.09441
0.088818
0.0801
0.074121
0.064806
0.058916
0.11443
0.11424
0.11247
0.11016
0.10579
0.10142
0.094523
0.088798
0.079998
0.073857
0.064489
0.058444
0.11483
0.11464
0.11286
0.11051
0.10609
0.10162
0.094643
0.088781
0.079896
0.073589
0.064164
0.057961
0.11524
0.11505
0.11326
0.11087
0.10639
0.10184
0.094769
0.088767
0.079793
0.073317
0.063831
0.057469
0.11566
0.11548
0.11367
0.11124
0.10671
0.10206
0.094901
0.088756
0.07969
0.073042
0.06349
0.056965
0.1161
0.11592
0.1141
0.11162
0.10704
0.10229
0.09504
0.088749
0.079586
0.072763
0.06314
0.056451
0.11655
0.11638
0.11455
0.11202
0.10739
0.10253
0.095186
0.088744
0.079481
0.072479
0.062781
0.055924
0.11702
0.11685
0.115
0.11244
0.10774
0.10278
0.095339
0.088742
0.079374
0.072191
0.062412
0.055385
0.1175
0.11734
0.11548
0.11287
0.10811
0.10304
0.095499
0.088744
0.079267
0.071898
0.062032
0.054833
0.118
0.11784
0.11597
0.11331
0.10849
0.10332
0.095666
0.088748
0.079158
0.071599
0.061642
0.054268
0.11852
0.11836
0.11648
0.11377
0.10889
0.1036
0.095841
0.088755
0.079047
0.071294
0.061241
0.053688
0.11905
0.1189
0.11701
0.11425
0.1093
0.10389
0.096023
0.088765
0.078933
0.070983
0.060827
0.053093
0.1196
0.11946
0.11755
0.11474
0.10973
0.1042
0.096213
0.088778
0.078818
0.070665
0.060401
0.052482
0.12017
0.12004
0.11812
0.11525
0.11017
0.10452
0.09641
0.088794
0.078699
0.07034
0.059962
0.051855
0.12076
0.12063
0.1187
0.11579
0.11063
0.10485
0.096616
0.088812
0.078577
0.070006
0.059509
0.05121
0.12137
0.12125
0.1193
0.11634
0.1111
0.1052
0.09683
0.088833
0.078452
0.069664
0.059041
0.050547
0.12199
0.12189
0.11993
0.11691
0.1116
0.10555
0.097052
0.088855
0.078323
0.069313
0.058558
0.049864
0.12265
0.12255
0.12058
0.1175
0.11211
0.10593
0.097282
0.08888
0.078189
0.068952
0.058058
0.049161
0.12332
0.12324
0.12125
0.11811
0.11264
0.10631
0.097521
0.088907
0.07805
0.068581
0.05754
0.048437
0.12402
0.12395
0.12195
0.11875
0.11319
0.10671
0.097769
0.088936
0.077905
0.068197
0.057005
0.047691
0.12474
0.12469
0.12268
0.11942
0.11377
0.10713
0.098025
0.088967
0.077755
0.067802
0.05645
0.04692
0.12549
0.12545
0.12343
0.12011
0.11436
0.10756
0.098291
0.088998
0.077598
0.067393
0.055874
0.046125
0.12626
0.12624
0.12421
0.12082
0.11498
0.10801
0.098566
0.089031
0.077433
0.066971
0.055277
0.045304
0.12707
0.12707
0.12502
0.12157
0.11562
0.10848
0.098851
0.089065
0.077261
0.066533
0.054657
0.044455
0.12791
0.12793
0.12587
0.12234
0.11629
0.10897
0.099146
0.0891
0.07708
0.066079
0.054013
0.043576
0.12878
0.12882
0.12675
0.12315
0.11699
0.10948
0.099451
0.089135
0.076889
0.065607
0.053343
0.042667
0.12968
0.12975
0.12767
0.12399
0.11771
0.11
0.099767
0.08917
0.076688
0.065117
0.052646
0.041726
0.13063
0.13072
0.12862
0.12487
0.11847
0.11055
0.10009
0.089205
0.076475
0.064607
0.05192
0.040751
0.13161
0.13173
0.12962
0.12579
0.11926
0.11113
0.10043
0.089239
0.076251
0.064075
0.051164
0.039739
0.13263
0.13278
0.13067
0.12676
0.12008
0.11172
0.10078
0.089273
0.076013
0.063521
0.050375
0.038689
0.13371
0.13389
0.13176
0.12776
0.12094
0.11235
0.10114
0.089305
0.07576
0.062942
0.049552
0.037599
0.13482
0.13504
0.1329
0.12882
0.12185
0.113
0.10152
0.089336
0.075492
0.062336
0.048693
0.036466
0.13599
0.13625
0.1341
0.12992
0.12279
0.11368
0.10191
0.089363
0.075206
0.061702
0.047795
0.035288
0.13722
0.13752
0.13536
0.13108
0.12378
0.11439
0.10231
0.089388
0.074901
0.061038
0.046856
0.034062
0.13851
0.13886
0.13668
0.13231
0.12481
0.11513
0.10272
0.089407
0.074574
0.060339
0.045873
0.032785
0.13986
0.14026
0.13808
0.13359
0.1259
0.11591
0.10315
0.089421
0.074224
0.059604
0.044842
0.031454
0.14127
0.14174
0.13954
0.13494
0.12704
0.11672
0.10359
0.089428
0.073848
0.05883
0.04376
0.030066
0.14276
0.14329
0.14109
0.13637
0.12824
0.11757
0.10405
0.089425
0.073441
0.058012
0.042623
0.028616
0.14433
0.14493
0.14272
0.13788
0.1295
0.11846
0.10451
0.08941
0.073002
0.057146
0.041427
0.0271
0.14598
0.14666
0.14444
0.13947
0.13083
0.11939
0.10499
0.089379
0.072525
0.056228
0.040167
0.025514
0.14772
0.14848
0.14626
0.14114
0.13223
0.12036
0.10547
0.08933
0.072004
0.05525
0.038836
0.023853
0.14955
0.15041
0.14818
0.14292
0.13369
0.12137
0.10596
0.089257
0.071435
0.054208
0.037429
0.022111
0.15148
0.15245
0.15022
0.14479
0.13523
0.12242
0.10646
0.089155
0.070809
0.053093
0.035938
0.02028
0.15352
0.1546
0.15237
0.14678
0.13686
0.12351
0.10695
0.089017
0.070119
0.051897
0.034356
0.018355
0.15566
0.15688
0.15465
0.14887
0.13856
0.12464
0.10744
0.088836
0.069356
0.05061
0.032672
0.016327
0.15793
0.1593
0.15707
0.15109
0.14034
0.12581
0.10792
0.088601
0.068508
0.049222
0.030877
0.014186
0.16032
0.16186
0.15964
0.15343
0.14222
0.12701
0.10837
0.088302
0.067563
0.047719
0.028959
0.011924
0.16285
0.16457
0.16236
0.15591
0.14418
0.12825
0.10879
0.087927
0.066508
0.04609
0.026905
0.0095276
0.16552
0.16745
0.16525
0.15853
0.14623
0.1295
0.10918
0.087459
0.065327
0.044317
0.024703
0.006986
0.16834
0.1705
0.16832
0.1613
0.14836
0.13077
0.1095
0.086882
0.064001
0.042386
0.022337
0.0042857
0.17133
0.17375
0.17159
0.16423
0.15059
0.13204
0.10975
0.086176
0.062511
0.040277
0.01979
0.0014126
0.17449
0.1772
0.17507
0.16734
0.15291
0.1333
0.10991
0.085316
0.060833
0.037969
0.017044
-0.0016484
0.17785
0.18089
0.17879
0.17062
0.15532
0.13454
0.10995
0.084275
0.058941
0.03544
0.014082
-0.0049131
0.18142
0.18484
0.18278
0.1741
0.1578
0.13573
0.10984
0.083019
0.056803
0.032664
0.01088
-0.0083979
0.18522
0.18907
0.18705
0.17779
0.16035
0.13684
0.10954
0.081507
0.054385
0.02961
0.0074172
-0.01212
0.18927
0.19362
0.19164
0.18169
0.16296
0.13785
0.109
0.079693
0.051643
0.026246
0.0036661
-0.016097
0.19361
0.19852
0.19658
0.18583
0.1656
0.13869
0.10817
0.077517
0.048527
0.02253
-0.00040223
-0.020349
0.19825
0.20383
0.20192
0.19019
0.16824
0.1393
0.10697
0.07491
0.044978
0.018418
-0.0048212
-0.024894
0.20323
0.20959
0.20768
0.19477
0.17081
0.13961
0.10531
0.071787
0.040927
0.013854
-0.0096281
-0.029754
0.20857
0.21584
0.2139
0.19956
0.17325
0.1395
0.10308
0.068049
0.036293
0.0087813
-0.014864
-0.034948
0.2143
0.22265
0.22059
0.20449
0.17543
0.13883
0.10013
0.06358
0.030988
0.0031342
-0.02057
-0.040496
0.22044
0.23005
0.22775
0.20948
0.17719
0.13742
0.096312
0.058253
0.024919
-0.0031506
-0.026785
-0.046411
0.22701
0.23808
0.23534
0.21437
0.17831
0.13503
0.091425
0.051927
0.017992
-0.010129
-0.033536
-0.052693
0.23403
0.24675
0.24326
0.21892
0.1785
0.1314
0.085253
0.044457
0.010124
-0.01784
-0.04083
-0.059321
0.24153
0.25605
0.2513
0.22278
0.17733
0.12617
0.077562
0.035707
0.001255
-0.026289
-0.048637
-0.066247
0.24956
0.26587
0.25908
0.22539
0.17429
0.11895
0.068109
0.025566
-0.0086352
-0.035441
-0.056887
-0.07338
0.25822
0.27599
0.26596
0.22594
0.16868
0.1093
0.056678
0.013974
-0.01951
-0.045201
-0.065455
-0.080591
0.26768
0.28593
0.27084
0.22326
0.15965
0.096754
0.04312
0.00095865
-0.031251
-0.055413
-0.074166
-0.087712
0.2782
0.29479
0.27199
0.21574
0.1462
0.080917
0.027417
-0.01332
-0.04364
-0.065852
-0.082805
-0.09456
0.29018
0.30102
0.26685
0.20127
0.12723
0.061529
0.0097429
-0.028539
-0.056347
-0.076233
-0.091138
-0.10096
0.30419
0.3023
0.25193
0.17735
0.10174
0.038546
-0.0095242
-0.044229
-0.068953
-0.08624
-0.09894
-0.10678
0.32072
0.29576
0.22353
0.14165
0.069039
0.012196
-0.029862
-0.059867
-0.081036
-0.095578
-0.10604
-0.11194
0.33934
0.27766
0.17893
0.093222
0.029247
-0.01701
-0.050747
-0.07503
-0.092292
-0.10407
-0.11235
-0.11647
0.35917
0.24107
0.11475
0.032012
-0.017179
-0.04887
-0.072175
-0.089811
-0.10286
-0.11188
-0.1181
-0.12066
0.38885
0.18495
0.029467
-0.041311
-0.069973
-0.084146
-0.095347
-0.10544
-0.11386
-0.11999
-0.12413
-0.12528
0.43994
0.12585
-0.064012
-0.11828
-0.12402
-0.12043
-0.11957
-0.12199
-0.12563
-0.12876
-0.13081
-0.13058
0.10204
0.061964
0.051057
0.044384
0.039911
0.037001
0.035325
0.034733
0.034975
0.035937
0.037087
0.038457
0.12126
0.076936
0.063377
0.054526
0.048581
0.044643
0.042237
0.04117
0.041133
0.042017
0.043164
0.044995
0.10866
0.071946
0.059616
0.050899
0.044968
0.040962
0.038395
0.037092
0.036761
0.037338
0.038182
0.039806
0.10358
0.071577
0.059552
0.050703
0.044569
0.040352
0.03757
0.036056
0.03552
0.035924
0.036611
0.0381
0.10287
0.073643
0.06141
0.052284
0.045838
0.041345
0.038322
0.036607
0.035908
0.036196
0.036793
0.038225
0.10216
0.075383
0.063045
0.053738
0.047041
0.042311
0.039077
0.037181
0.03633
0.036502
0.037009
0.038364
0.10101
0.076633
0.064359
0.054973
0.048092
0.04317
0.039754
0.037693
0.036696
0.036744
0.037152
0.038391
0.099807
0.077694
0.065592
0.056199
0.049186
0.044102
0.040524
0.038308
0.037169
0.037084
0.037385
0.038479
0.098698
0.078648
0.066805
0.057469
0.050372
0.045156
0.041435
0.039073
0.037792
0.037565
0.037752
0.038675
0.097663
0.079485
0.06798
0.058763
0.051633
0.04632
0.042476
0.039977
0.038557
0.038179
0.038244
0.038977
0.096681
0.080199
0.069097
0.060055
0.052945
0.047569
0.043626
0.041001
0.039446
0.038911
0.03885
0.03938
0.095748
0.080799
0.070145
0.061325
0.054281
0.048878
0.044861
0.042125
0.040441
0.039749
0.039558
0.039881
0.094862
0.081295
0.071114
0.062553
0.055618
0.050221
0.046154
0.043323
0.041521
0.040673
0.040356
0.040475
0.094022
0.081697
0.072002
0.063724
0.056931
0.051571
0.047478
0.044569
0.042662
0.041664
0.041226
0.041152
0.093227
0.082016
0.072805
0.064827
0.058201
0.052904
0.048808
0.045839
0.043839
0.042703
0.042151
0.041899
0.092476
0.082263
0.073525
0.065855
0.059415
0.054202
0.050122
0.047109
0.045033
0.04377
0.043113
0.042702
0.091765
0.082446
0.074165
0.066805
0.060563
0.05545
0.051404
0.048363
0.046223
0.044848
0.044097
0.043548
0.091093
0.082576
0.074731
0.067676
0.06164
0.056639
0.052639
0.049585
0.047397
0.045924
0.045088
0.044422
0.090459
0.08266
0.075228
0.068471
0.062643
0.057763
0.053821
0.050766
0.048541
0.046986
0.046075
0.045313
0.08986
0.082705
0.075662
0.069193
0.063573
0.05882
0.054944
0.051899
0.049649
0.048025
0.047049
0.046209
0.089294
0.082717
0.076039
0.069847
0.064432
0.059808
0.056006
0.052979
0.050713
0.049034
0.048001
0.0471
0.088759
0.082702
0.076366
0.070438
0.065223
0.06073
0.057005
0.054005
0.051732
0.05001
0.048928
0.04798
0.088254
0.082666
0.076647
0.070971
0.06595
0.061588
0.057944
0.054977
0.052704
0.050949
0.049824
0.048841
0.087776
0.08261
0.076889
0.071451
0.066618
0.062386
0.058823
0.055894
0.053627
0.051849
0.050688
0.049679
0.087324
0.08254
0.077095
0.071884
0.067231
0.063125
0.059646
0.056759
0.054503
0.052709
0.051517
0.050491
0.086897
0.082459
0.077271
0.072273
0.067792
0.063812
0.060415
0.057574
0.055332
0.053531
0.052311
0.051273
0.086493
0.082367
0.077419
0.072623
0.068307
0.064448
0.061134
0.05834
0.056117
0.054313
0.053071
0.052025
0.08611
0.082269
0.077544
0.072938
0.068779
0.065037
0.061806
0.05906
0.056858
0.055057
0.053795
0.052746
0.085748
0.082165
0.077647
0.07322
0.069212
0.065584
0.062432
0.059738
0.057559
0.055764
0.054485
0.053434
0.085405
0.082057
0.077732
0.073474
0.069608
0.06609
0.063017
0.060374
0.058219
0.056434
0.055142
0.05409
0.08508
0.081945
0.077801
0.073702
0.069972
0.066559
0.063563
0.060971
0.058843
0.05707
0.055766
0.054715
0.084772
0.081832
0.077855
0.073907
0.070305
0.066994
0.064073
0.061532
0.059431
0.057672
0.056358
0.055309
0.084479
0.081717
0.077897
0.074089
0.070609
0.067396
0.064548
0.062058
0.059984
0.058242
0.05692
0.055873
0.084201
0.081601
0.077927
0.074253
0.070888
0.067769
0.064991
0.062552
0.060506
0.058781
0.057452
0.056407
0.083936
0.081485
0.077948
0.074398
0.071144
0.068114
0.065405
0.063015
0.060997
0.05929
0.057956
0.056913
0.083684
0.081369
0.077959
0.074528
0.071377
0.068433
0.06579