/*--------------------------------*- C++ -*----------------------------------*\
  =========                 |
  \\      /  F ield         | OpenFOAM: The Open Source CFD Toolbox
   \\    /   O peration     | Website:  https://openfoam.org
    \\  /    A nd           | Version:  6.0
     \\/     M anipulation  |
\*---------------------------------------------------------------------------*/
FoamFile
{
    version     2.0;
    format      ascii;
    class       volVectorField;
    location    "0.91";
    object      U;
}
// * * * * * * * * * * * * * * * * * * * * * * * * * * * * * * * * * * * * * //

dimensions      [0 1 -1 0 0 0 0];

internalField   nonuniform List<vector> 
13500
(
(1 2.1641e-06 -4.3603e-18)
(1 -4.4442e-06 2.9539e-18)
(1 -4.9181e-06 -1.2669e-17)
(1 -9.727e-06 -8.8073e-18)
(1 -7.368e-06 1.6503e-17)
(1 -7.1068e-06 3.0954e-17)
(1 1.1521e-06 2.6424e-17)
(0.99998 1.5493e-05 -4.2973e-18)
(0.99991 4.2245e-05 1.5694e-17)
(0.99975 9.2757e-05 3.404e-18)
(0.99627 0.00064447 2.8953e-17)
(1.0185 0.01088 8.0908e-18)
(1 6.698e-06 2.7013e-18)
(1 -1.3174e-05 -8.9709e-18)
(1 -1.375e-05 6.05e-18)
(1 -2.8747e-05 -3.4755e-19)
(1 -1.9939e-05 -4.4013e-19)
(1 -2.1311e-05 -3.722e-17)
(0.99999 7.1914e-06 -4.5639e-17)
(0.99993 4.5445e-05 -2.4589e-17)
(0.99973 0.00013508 -1.5663e-17)
(0.99956 0.00025657 -1.6827e-18)
(0.98828 0.0017862 -1.3711e-17)
(1.0517 0.030769 -4.8988e-18)
(1 1.1297e-05 -3.489e-18)
(1 -2.2126e-05 1.7823e-17)
(1 -2.2452e-05 3.1468e-18)
(1 -4.8414e-05 1.0155e-17)
(1 -3.2053e-05 -3.8055e-18)
(1 -3.6709e-05 2.9815e-17)
(0.99999 1.4528e-05 -6.4236e-18)
(0.9999 7.3745e-05 5.5855e-18)
(0.99954 0.00023401 -1.9002e-17)
(0.9997 0.00045096 2.5566e-17)
(0.98009 0.0025077 -7.1704e-18)
(1.0787 0.045424 1.7245e-18)
(1 1.5945e-05 9.1211e-18)
(1 -3.1314e-05 -1.728e-17)
(1 -3.1205e-05 -1.4917e-17)
(1 -6.8664e-05 -7.1258e-19)
(1 -4.414e-05 5.8744e-18)
(1 -5.2991e-05 -8.2725e-19)
(0.99999 2.2385e-05 6.3295e-17)
(0.99987 0.00010061 1.0063e-17)
(0.99934 0.0003367 2.2469e-17)
(1.0001 0.00068194 -9.2612e-18)
(0.97211 0.0028319 3.4923e-17)
(1.0982 0.056138 -7.8488e-18)
(1 2.0661e-05 -6.409e-18)
(1 -4.0638e-05 1.4935e-17)
(1 -3.9913e-05 1.2698e-17)
(1 -8.9171e-05 1.2997e-17)
(1 -5.612e-05 2.8803e-18)
(1.0001 -6.9733e-05 2.1915e-17)
(0.99999 3.0705e-05 -2.8265e-17)
(0.99985 0.0001261 2.0441e-18)
(0.99912 0.00044099 -1.3777e-17)
(1.0008 0.00095135 -2.2099e-18)
(0.9647 0.0028117 -9.0531e-18)
(1.1103 0.064054 2.1745e-18)
(1 2.5445e-05 6.4859e-18)
(1 -5.0095e-05 -6.1913e-18)
(1 -4.858e-05 3.8778e-18)
(1 -0.00010994 -2.5746e-17)
(1.0001 -6.7989e-05 -8.4491e-20)
(1.0001 -8.6987e-05 -4.3385e-17)
(0.99999 3.9529e-05 1.0844e-18)
(0.99984 0.00014998 -1.6408e-17)
(0.99888 0.00054523 5.2462e-18)
(1.0016 0.0012635 -2.2261e-17)
(0.95818 0.0024979 -2.1811e-17)
(1.1159 0.069791 2.1053e-18)
(0.99999 3.0294e-05 -1.0736e-18)
(1 -5.9691e-05 -7.4049e-18)
(1 -5.7199e-05 -3.1517e-18)
(1.0001 -0.00013101 1.9433e-17)
(1.0001 -7.9717e-05 -2.6677e-17)
(1.0001 -0.00010484 1.6601e-17)
(0.99999 4.8963e-05 1.8904e-17)
(0.99984 0.00017207 5.7727e-18)
(0.99862 0.00064793 1.1728e-17)
(1.0026 0.0016215 1.1984e-17)
(0.95275 0.0019405 9.4012e-18)
(1.1159 0.07378 3.3864e-18)
(0.99999 3.5207e-05 -2.216e-18)
(1 -6.9432e-05 -1.4567e-18)
(1 -6.5771e-05 -2.7149e-17)
(1.0001 -0.00015239 -9.2797e-18)
(1.0001 -9.1292e-05 7.467e-18)
(1.0001 -0.00012336 2.7206e-17)
(0.99999 5.9075e-05 1.2031e-17)
(0.99985 0.0001922 5.1537e-18)
(0.99833 0.00074766 -7.6663e-18)
(1.0037 0.002025 1.6786e-17)
(0.94853 0.0011904 7.5971e-18)
(1.1116 0.076384 -1.0777e-17)
(0.99999 4.0181e-05 -6.879e-18)
(1 -7.9318e-05 6.2626e-18)
(1 -7.4301e-05 4.5647e-17)
(1.0001 -0.0001741 -1.1131e-17)
(1.0001 -0.00010271 2.7961e-17)
(1.0001 -0.0001426 -5.3714e-17)
(0.99999 6.9912e-05 -4.008e-17)
(0.99988 0.00021025 1.0014e-17)
(0.99802 0.00084306 -5.7582e-18)
(1.0048 0.0024711 -9.2578e-18)
(0.94556 0.00029875 -1.4032e-17)
(1.1039 0.077905 1.4106e-17)
(0.99999 4.5213e-05 4.5321e-18)
(1 -8.935e-05 2.3573e-18)
(1 -8.2792e-05 -3.8666e-17)
(1.0001 -0.00019616 1.5841e-17)
(1.0001 -0.00011398 -1.2193e-17)
(1.0001 -0.00016262 2.2909e-17)
(0.99999 8.152e-05 1.4243e-17)
(0.99991 0.00022606 2.5317e-18)
(0.99769 0.00093294 5.4319e-19)
(1.0059 0.0029545 1.4674e-18)
(0.94381 -0.00068534 4.4681e-18)
(1.0941 0.07859 -7.3535e-19)
(0.99999 5.03e-05 -2.4883e-18)
(1 -9.9531e-05 -7.7311e-18)
(1 -9.1248e-05 9.478e-18)
(1.0001 -0.00021857 -2.7951e-18)
(1.0001 -0.00012508 1.882e-18)
(1.0002 -0.00018348 -2.5108e-17)
(0.99999 9.3948e-05 -3.2803e-17)
(0.99996 0.00023949 -3.2154e-17)
(0.99735 0.0010163 1.6096e-17)
(1.0069 0.0034687 1.9066e-18)
(0.9432 -0.0017162 -1.1332e-17)
(1.0828 0.078638 -6.086e-18)
(0.99998 5.5439e-05 3.4345e-18)
(1 -0.00010986 2.9201e-18)
(1 -9.9676e-05 4.5677e-18)
(1.0001 -0.00024135 -2.2276e-18)
(1.0001 -0.00013602 -5.6417e-18)
(1.0002 -0.00020525 9.4961e-18)
(0.99998 0.00010724 1.8988e-17)
(1 0.00025039 1.9864e-17)
(0.997 0.0010923 1.0343e-17)
(1.0079 0.004006 -2.4066e-17)
(0.94358 -0.0027528 1.1768e-19)
(1.0709 0.078207 -7.0557e-18)
(0.99998 6.0625e-05 -3.4338e-18)
(1 -0.00012034 5.7425e-18)
(1 -0.00010808 8.2811e-18)
(1.0001 -0.00026452 5.8164e-18)
(1.0001 -0.0001468 -5.2323e-18)
(1.0002 -0.00022801 4.6684e-18)
(0.99998 0.00012142 4.3299e-18)
(1.0001 0.00025863 -1.7738e-18)
(0.99664 0.0011602 -1.6717e-17)
(1.0087 0.0045582 2.232e-17)
(0.9448 -0.00376 1.0486e-19)
(1.0591 0.077423 1.5059e-18)
(0.99998 6.5855e-05 5.2218e-18)
(1 -0.00013097 -4.4826e-18)
(1 -0.00011646 7.2479e-19)
(1.0001 -0.0002881 -4.8522e-18)
(1.0001 -0.00015741 1.1883e-17)
(1.0002 -0.00025182 5.6962e-18)
(0.99997 0.0001365 1.7421e-17)
(1.0002 0.00026407 -6.5882e-18)
(0.99629 0.0012194 -2.0444e-19)
(1.0095 0.0051171 5.4855e-18)
(0.94669 -0.0047088 1.7217e-17)
(1.0476 0.076384 9.6016e-19)
(0.99997 7.1122e-05 1.2593e-18)
(1 -0.00014176 9.9484e-18)
(1 -0.00012484 1.3847e-17)
(1.0001 -0.0003121 -4.8379e-18)
(1.0001 -0.00016786 8.6039e-18)
(1.0003 -0.00027678 -2.6591e-18)
(0.99997 0.00015248 -3.0512e-17)
(1.0003 0.0002666 2.0854e-17)
(0.99593 0.0012696 -1.8857e-17)
(1.0101 0.0056745 -3.1634e-17)
(0.94909 -0.005577 -3.778e-18)
(1.037 0.075165 8.9039e-19)
(0.99997 7.6423e-05 -3.2129e-18)
(1 -0.00015269 -1.058e-17)
(1 -0.00013321 -3.3236e-17)
(1.0001 -0.00033653 8.1507e-18)
(1.0001 -0.00017815 -1.3057e-17)
(1.0003 -0.00030295 8.5262e-18)
(0.99996 0.0001693 -2.8545e-18)
(1.0004 0.00026612 -1.2553e-17)
(0.99559 0.0013104 4.1384e-18)
(1.0106 0.0062233 1.8893e-17)
(0.95184 -0.0063487 -7.9341e-18)
(1.0275 0.073827 1.2437e-17)
(0.99997 8.1752e-05 3.3804e-19)
(1 -0.00016378 7.9129e-18)
(1 -0.00014159 2.2946e-17)
(1.0001 -0.00036142 -1.8358e-18)
(1.0001 -0.00018828 -1.2971e-17)
(1.0003 -0.00033042 -1.5889e-17)
(0.99995 0.00018687 1.0905e-17)
(1.0005 0.00026253 7.1995e-18)
(0.99526 0.0013415 2.3936e-17)
(1.011 0.0067568 -2.6466e-18)
(0.95479 -0.0070142 1.9727e-18)
(1.0191 0.072412 -4.9608e-18)
(0.99996 8.7101e-05 -1.8966e-18)
(0.99999 -0.00017502 -9.5878e-18)
(1 -0.00014999 -1.0354e-17)
(1.0002 -0.00038678 6.1344e-18)
(1.0002 -0.00019828 -7.2841e-18)
(1.0004 -0.00035927 -1.2745e-17)
(0.99993 0.00020507 1.06e-17)
(1.0007 0.00025578 -4.8842e-18)
(0.99496 0.0013626 -2.9628e-17)
(1.0113 0.0072697 -1.4837e-17)
(0.95783 -0.0075694 8.5612e-18)
(1.0119 0.070954 -5.3894e-18)
(0.99996 9.2464e-05 -2.7157e-18)
(0.99999 -0.00018641 -3.6237e-18)
(1 -0.00015842 -7.6732e-19)
(1.0002 -0.00041262 -2.6863e-17)
(1.0002 -0.00020815 6.1124e-18)
(1.0004 -0.00038959 5.5496e-18)
(0.99992 0.00022369 -2.0143e-17)
(1.0008 0.00024585 -1.6676e-17)
(0.99467 0.0013735 4.3307e-18)
(1.0115 0.0077575 -1.1196e-18)
(0.96085 -0.0080144 -9.885e-18)
(1.0058 0.069477 1.0188e-18)
(0.99995 9.7834e-05 3.5324e-18)
(0.99999 -0.00019796 1.6612e-17)
(1 -0.00016689 1.9757e-17)
(1.0002 -0.00043897 2.5297e-18)
(1.0002 -0.00021794 1.6895e-17)
(1.0004 -0.00042144 9.7254e-18)
(0.9999 0.00024248 2.9076e-18)
(1.001 0.00023275 1.8252e-17)
(0.99441 0.0013741 2.1537e-17)
(1.0117 0.008217 1.7721e-17)
(0.96378 -0.0083536 7.3793e-18)
(1.0009 0.067998 1.2109e-18)
(0.99995 0.0001032 -1.6836e-18)
(0.99999 -0.00020965 -3.9859e-18)
(1 -0.00017542 -2.1049e-17)
(1.0002 -0.00046584 -2.3953e-18)
(1.0002 -0.00022767 -1.2805e-17)
(1.0005 -0.00045492 -5.2621e-18)
(0.99988 0.0002611 -1.8655e-18)
(1.0012 0.00021653 -1.6504e-17)
(0.99417 0.0013643 -2.06e-17)
(1.0118 0.0086459 9.0868e-18)
(0.96657 -0.0085937 5.07e-19)
(0.99706 0.066529 6.9609e-19)
(0.99994 0.00010856 4.4627e-18)
(0.99998 -0.0002215 -5.2074e-18)
(1 -0.00018403 -1.9741e-17)
(1.0002 -0.00049325 4.5538e-17)
(1.0002 -0.00023741 1.8574e-17)
(1.0005 -0.00049008 -1.2876e-17)
(0.99985 0.00027915 2.5084e-17)
(1.0014 0.00019729 2.2306e-17)
(0.99397 0.001344 3.3433e-17)
(1.0118 0.009043 -3.3311e-17)
(0.96918 -0.0087438 -1.3553e-17)
(0.99409 0.065079 1.8428e-19)
(0.99994 0.00011391 -3.2665e-18)
(0.99998 -0.00023349 -1.0449e-18)
(1 -0.00019274 3.3702e-17)
(1.0002 -0.00052122 -3.4424e-17)
(1.0002 -0.00024721 -1.7882e-18)
(1.0005 -0.00052702 4.2664e-17)
(0.99983 0.00029617 7.7733e-18)
(1.0016 0.00017515 -3.4453e-18)
(0.99379 0.0013133 -2.0737e-17)
(1.0119 0.0094081 3.926e-17)
(0.97159 -0.008814 -5.7421e-18)
(0.9919 0.063652 -2.9202e-19)
(0.99993 0.00011922 -1.6652e-18)
(0.99998 -0.00024564 -2.0821e-18)
(1 -0.00020157 1.7545e-18)
(1.0002 -0.00054977 3.5812e-17)
(1.0002 -0.00025717 -1.008e-17)
(1.0006 -0.0005658 -3.1534e-17)
(0.9998 0.0003116 -1.982e-17)
(1.0018 0.00015029 -3.7098e-18)
(0.99365 0.0012724 6.5596e-18)
(1.0119 0.0097418 -3.3126e-17)
(0.9738 -0.0088149 9.6175e-18)
(0.99038 0.062252 3.1709e-18)
(0.99992 0.0001245 2.7518e-18)
(0.99997 -0.00025793 1.4492e-17)
(1 -0.00021055 -1.2943e-17)
(1.0002 -0.00057892 -3.7499e-18)
(1.0002 -0.00026739 -1.9344e-17)
(1.0006 -0.00060649 3.4307e-17)
(0.99978 0.00032486 -1.7398e-17)
(1.002 0.00012295 1.5381e-17)
(0.99354 0.0012215 -2.0216e-18)
(1.0118 0.010045 3.106e-17)
(0.97581 -0.0087571 -9.3853e-18)
(0.98941 0.060882 -5.2917e-18)
(0.99992 0.00012973 -5.2777e-19)
(0.99997 -0.00027038 -8.3347e-18)
(1 -0.00021972 -1.8122e-17)
(1.0002 -0.0006087 -1.0275e-17)
(1.0002 -0.00027799 1.8763e-17)
(1.0007 -0.00064918 -4.3748e-17)
(0.99975 0.00033532 -2.684e-18)
(1.0022 9.3377e-05 -2.078e-17)
(0.99346 0.0011611 3.268e-18)
(1.0118 0.010319 -8.9592e-18)
(0.97762 -0.0086508 9.9903e-18)
(0.98887 0.059542 2.2464e-18)
(0.99991 0.0001349 2.7647e-18)
(0.99997 -0.00028298 -8.9278e-18)
(1 -0.00022911 -1.7899e-18)
(1.0003 -0.00063914 2.4966e-18)
(1.0002 -0.00028913 5.9383e-18)
(1.0007 -0.00069392 1.2641e-17)
(0.99973 0.00034232 4.4012e-17)
(1.0024 6.188e-05 2.4835e-18)
(0.99341 0.0010917 5.3275e-18)
(1.0118 0.010567 9.8764e-18)
(0.97926 -0.0085055 -8.5448e-18)
(0.98868 0.058232 1.7281e-18)
(0.9999 0.00014 -1.5853e-18)
(0.99996 -0.00029574 8.9195e-18)
(1 -0.00023877 2.5759e-17)
(1.0003 -0.00067027 -2.5155e-17)
(1.0002 -0.00030097 -9.2367e-18)
(1.0008 -0.0007408 -2.2244e-18)
(0.9997 0.00034519 -1.4507e-17)
(1.0027 2.88e-05 1.9269e-18)
(0.99339 0.0010139 -9.2286e-18)
(1.0117 0.010789 -3.6296e-18)
(0.98074 -0.0083297 -2.4226e-19)
(0.98875 0.056953 -2.1108e-18)
(0.99989 0.00014502 -1.7038e-18)
(0.99996 -0.00030867 5.3388e-18)
(1 -0.00024874 -6.2315e-19)
(1.0003 -0.00070214 8.3413e-18)
(1.0002 -0.00031373 -1.7042e-17)
(1.0009 -0.00078989 2.5168e-17)
(0.99968 0.0003433 7.2351e-18)
(1.0029 -5.488e-06 -1.8382e-17)
(0.9934 0.00092856 -1.184e-17)
(1.0117 0.010989 -1.4372e-17)
(0.98208 -0.0081307 1.3538e-18)
(0.98901 0.055703 -3.8739e-18)
(0.99989 0.00014994 5.9208e-19)
(0.99995 -0.00032176 -1.275e-17)
(1 -0.00025908 1.5949e-17)
(1.0003 -0.00073478 2.307e-17)
(1.0002 -0.00032761 3.3403e-17)
(1.0009 -0.00084126 -1.8483e-17)
(0.99966 0.00033605 -1.7989e-17)
(1.0031 -4.0582e-05 3.73e-18)
(0.99343 0.00083656 1.1094e-17)
(1.0117 0.011168 1.125e-17)
(0.9833 -0.0079149 6.3058e-18)
(0.98942 0.054483 3.8505e-18)
(0.99988 0.00015476 1.1346e-18)
(0.99995 -0.00033504 1.0139e-17)
(1 -0.00026986 -3.6644e-17)
(1.0003 -0.00076827 -3.3429e-18)
(1.0002 -0.00034288 -2.7747e-17)
(1.001 -0.00089498 -1.1643e-17)
(0.99965 0.00032292 2.5368e-20)
(1.0034 -7.6058e-05 -4.2674e-18)
(0.99348 0.00073884 -2.1871e-17)
(1.0117 0.011329 -1.796e-17)
(0.98442 -0.0076877 -8.6151e-18)
(0.98992 0.053291 -1.9009e-18)
(0.99987 0.00015945 -7.3542e-19)
(0.99994 -0.00034852 -6.5936e-18)
(1 -0.00028114 2.8831e-17)
(1.0003 -0.00080266 -3.1895e-17)
(1.0002 -0.00035978 -2.0862e-18)
(1.0011 -0.00095111 2.4793e-17)
(0.99964 0.00030347 7.1976e-19)
(1.0036 -0.00011147 4.0689e-18)
(0.99355 0.00063642 1.9145e-17)
(1.0116 0.011474 2.3346e-17)
(0.98546 -0.0074535 4.928e-18)
(0.99048 0.052126 -1.0637e-18)
(0.99986 0.00016401 -1.9144e-18)
(0.99994 -0.00036221 -2.4315e-18)
(0.99999 -0.00029301 -1.2781e-17)
(1.0003 -0.00083802 1.5889e-17)
(1.0002 -0.00037859 3.0493e-17)
(1.0011 -0.0010097 -1.0957e-17)
(0.99963 0.00027739 2.2402e-17)
(1.0038 -0.00014638 3.05e-18)
(0.99364 0.00053031 -2.1708e-18)
(1.0116 0.011603 1.0559e-17)
(0.98642 -0.0072158 -5.5105e-18)
(0.99108 0.050988 -7.4315e-19)
(0.99985 0.00016841 4.788e-19)
(0.99993 -0.00037615 -6.4301e-18)
(0.99999 -0.00030556 4.7841e-18)
(1.0003 -0.00087445 -1.6193e-17)
(1.0002 -0.00039961 -3.2252e-17)
(1.0012 -0.0010707 6.9053e-18)
(0.99963 0.00024448 -3.2318e-17)
(1.004 -0.00018034 -6.9746e-18)
(0.99375 0.00042152 7.0396e-18)
(1.0116 0.011719 -3.3143e-17)
(0.98732 -0.0069773 3.7713e-18)
(0.9917 0.049876 2.0908e-18)
(0.99984 0.00017264 8.4077e-19)
(0.99992 -0.00039035 1.7421e-17)
(0.99998 -0.00031888 8.0102e-18)
(1.0003 -0.00091204 6.5963e-18)
(1.0002 -0.00042311 2.5789e-17)
(1.0013 -0.0011343 2.0588e-18)
(0.99963 0.00020468 2.2316e-17)
(1.0042 -0.00021292 5.0021e-18)
(0.99387 0.00031101 -2.1405e-17)
(1.0116 0.011824 1.141e-17)
(0.98818 -0.0067402 2.5509e-18)
(0.99232 0.048789 2.1714e-18)
(0.99983 0.00017667 -2.9357e-18)
(0.99992 -0.00040485 -5.7344e-18)
(0.99998 -0.00033308 -7.0379e-18)
(1.0004 -0.00095087 1.0832e-17)
(1.0002 -0.00044937 1.2458e-17)
(1.0013 -0.0012003 -4.1001e-18)
(0.99964 0.00015809 -1.8744e-17)
(1.0044 -0.0002437 2.2778e-17)
(0.994 0.00019967 3.9602e-18)
(1.0116 0.011917 -3.4461e-18)
(0.98899 -0.006506 1.056e-17)
(0.99293 0.047726 -1.5106e-18)
(0.99982 0.0001805 6.0322e-18)
(0.99991 -0.00041969 6.8671e-18)
(0.99997 -0.00034826 -7.4809e-18)
(1.0004 -0.00099107 -6.7477e-18)
(1.0002 -0.00047864 -1.7877e-17)
(1.0014 -0.0012686 -7.0421e-18)
(0.99965 0.00010493 9.2416e-18)
(1.0046 -0.0002723 -3.6537e-17)
(0.99414 8.8319e-05 9.7041e-18)
(1.0116 0.012001 -4.0728e-18)
(0.98977 -0.0062758 -1.1184e-17)
(0.99353 0.046687 4.3922e-18)
(0.99981 0.0001841 -2.6623e-18)
(0.9999 -0.00043492 -1.2065e-17)
(0.99997 -0.00036456 -7.25e-18)
(1.0004 -0.0010327 -1.2804e-17)
(1.0002 -0.00051116 -5.458e-18)
(1.0015 -0.0013393 2.0706e-17)
(0.99967 4.5561e-05 -9.0782e-18)
(1.0048 -0.00029839 4.0647e-17)
(0.99428 -2.2347e-05 9.1541e-18)
(1.0116 0.012075 1.2359e-17)
(0.99051 -0.0060506 4.7154e-18)
(0.99411 0.04567 -7.127e-18)
(0.9998 0.00018745 -1.4121e-18)
(0.9999 -0.00045057 8.9726e-18)
(0.99996 -0.00038207 1.4364e-17)
(1.0004 -0.001076 3.4523e-17)
(1.0002 -0.00054711 7.2346e-18)
(1.0016 -0.001412 -1.4202e-17)
(0.9997 -1.9542e-05 4.381e-18)
(1.005 -0.00032167 -4.3731e-17)
(0.99443 -0.00013173 -1.1106e-17)
(1.0116 0.012141 -6.8712e-18)
(0.99123 -0.0058307 4.6295e-18)
(0.99468 0.044676 7.1731e-18)
(0.99979 0.00019052 1.0807e-18)
(0.99989 -0.00046671 2.124e-18)
(0.99995 -0.00040092 -1.4106e-17)
(1.0004 -0.0011209 -5.7506e-18)
(1.0003 -0.00058663 9.1853e-18)
(1.0017 -0.0014867 1.6999e-17)
(0.99972 -8.98e-05 1.5233e-17)
(1.0052 -0.0003419 4.3277e-18)
(0.99459 -0.00023934 1.2427e-17)
(1.0116 0.012199 -3.183e-18)
(0.99193 -0.0056166 -8.2647e-18)
(0.99523 0.043703 -1.8489e-18)
(0.99977 0.00019329 -4.4262e-20)
(0.99988 -0.00048339 2.4206e-18)
(0.99995 -0.00042122 3.1527e-18)
(1.0004 -0.0011675 -7.4652e-18)
(1.0003 -0.00062982 8.5163e-20)
(1.0017 -0.001563 -1.5413e-17)
(0.99976 -0.00016456 -1.0304e-17)
(1.0053 -0.00035893 3.2027e-17)
(0.99475 -0.00034481 -1.8784e-17)
(1.0116 0.01225 1.236e-17)
(0.99261 -0.0054084 4.3665e-18)
(0.99575 0.042752 -5.2337e-18)
(0.99976 0.00019575 -3.347e-18)
(0.99987 -0.00050067 -1.1353e-17)
(0.99994 -0.00044309 8.0484e-18)
(1.0005 -0.001216 -2.0387e-17)
(1.0003 -0.00067671 -2.3228e-17)
(1.0018 -0.0016407 -2.1291e-17)
(0.99979 -0.00024311 -2.0999e-17)
(1.0055 -0.00037262 -3.2796e-18)
(0.99491 -0.00044787 1.6417e-17)
(1.0115 0.012293 -1.0601e-17)
(0.99328 -0.0052062 4.3503e-19)
(0.99626 0.04182 4.9326e-18)
(0.99975 0.00019786 6.46e-18)
(0.99986 -0.00051859 1.1864e-17)
(0.99993 -0.00046661 -1.298e-17)
(1.0005 -0.0012663 1.6739e-17)
(1.0003 -0.00072725 -2.7232e-18)
(1.0019 -0.0017193 1.3956e-17)
(0.99983 -0.00032471 2.5241e-17)
(1.0057 -0.00038295 -2.4846e-17)
(0.99507 -0.00054836 -8.3265e-18)
(1.0115 0.012329 1.1193e-17)
(0.99392 -0.00501 3.7787e-18)
(0.99676 0.040909 -2.3352e-18)
(0.99973 0.0001996 -4.8472e-18)
(0.99986 -0.00053722 -3.5064e-18)
(0.99993 -0.00049186 -2.7135e-18)
(1.0005 -0.0013185 1.9151e-17)
(1.0003 -0.00078134 -5.8302e-18)
(1.002 -0.0017987 -1.7682e-19)
(0.99987 -0.00040861 -4.9391e-18)
(1.0058 -0.00038993 1.9902e-17)
(0.99524 -0.00064619 -7.9079e-18)
(1.0115 0.012358 -7.6859e-18)
(0.99455 -0.0048197 -1.1171e-17)
(0.99723 0.040016 2.7175e-18)
(0.99972 0.00020097 3.2948e-18)
(0.99985 -0.0005566 -4.4458e-18)
(0.99992 -0.00051892 6.2127e-18)
(1.0005 -0.0013726 -2.9058e-17)
(1.0003 -0.00083881 3.9502e-17)
(1.0021 -0.0018782 5.7819e-18)
(0.99991 -0.00049411 1.9487e-17)
(1.0059 -0.00039363 -1.2316e-17)
(0.9954 -0.00074134 1.0294e-19)
(1.0115 0.01238 5.7143e-18)
(0.99516 -0.0046353 -2.1779e-18)
(0.99769 0.039143 -1.0222e-18)
(0.99971 0.00020192 -9.4256e-19)
(0.99984 -0.00057678 8.6896e-19)
(0.99991 -0.00054781 1.5136e-17)
(1.0005 -0.0014285 7.9219e-18)
(1.0003 -0.00089942 -1.9748e-17)
(1.0022 -0.0019576 -1.1325e-17)
(0.99995 -0.00058051 3.4021e-18)
(1.0061 -0.00039421 -5.9881e-18)
(0.99557 -0.00083387 1.3231e-17)
(1.0115 0.012395 -3.7515e-18)
(0.99576 -0.0044566 1.0468e-17)
(0.99814 0.038288 -3.7368e-18)
(0.99969 0.00020246 -1.6405e-18)
(0.99983 -0.00059779 -8.3766e-18)
(0.9999 -0.00057855 -4.5006e-18)
(1.0005 -0.0014861 3.181e-17)
(1.0003 -0.00096288 -1.7592e-17)
(1.0022 -0.0020363 -9.5918e-19)
(1 -0.00066718 -5.0882e-17)
(1.0062 -0.00039185 5.8855e-18)
(0.99573 -0.00092388 -2.4748e-17)
(1.0115 0.012404 -8.0992e-18)
(0.99635 -0.0042835 -1.0475e-17)
(0.99857 0.037451 2.2192e-18)
(0.99967 0.00020256 -7.0819e-19)
(0.99981 -0.00061965 5.1897e-18)
(0.9999 -0.00061113 -1.8579e-18)
(1.0006 -0.0015453 -1.8522e-17)
(1.0004 -0.0010288 2.5282e-17)
(1.0023 -0.0021141 -2.3579e-18)
(1 -0.00075358 2.6952e-17)
(1.0063 -0.00038677 -3.6186e-18)
(0.9959 -0.0010115 1.2014e-17)
(1.0115 0.012406 1.0129e-17)
(0.99692 -0.0041158 8.6424e-18)
(0.99899 0.036632 -5.3767e-19)
(0.99966 0.00020222 4.0145e-18)
(0.9998 -0.00064238 -3.1049e-18)
(0.99989 -0.00064551 -6.4985e-18)
(1.0006 -0.001606 2.0214e-17)
(1.0004 -0.0010969 1.8552e-18)
(1.0024 -0.0021904 2.9233e-17)
(1.0001 -0.00083922 4.6492e-18)
(1.0064 -0.00037925 1.7288e-17)
(0.99606 -0.0010969 4.5073e-18)
(1.0115 0.012402 -3.2772e-18)
(0.99748 -0.0039536 1.1259e-18)
(0.9994 0.03583 4.8631e-19)
(0.99964 0.00020144 1.1446e-18)
(0.99979 -0.00066597 1.2696e-18)
(0.99988 -0.0006816 -5.8924e-18)
(1.0006 -0.0016679 -4.0256e-17)
(1.0004 -0.0011667 5.6178e-18)
(1.0025 -0.002265 2.5351e-18)
(1.0001 -0.00092372 -2.0159e-17)
(1.0065 -0.00036958 2.4325e-19)
(0.99623 -0.0011802 1.3285e-17)
(1.0114 0.012392 -2.1066e-18)
(0.99803 -0.0037965 -5.4818e-18)
(0.99979 0.035045 2.8706e-18)
(0.99962 0.00020022 -4.9016e-18)
(0.99978 -0.00069039 5.3806e-18)
(0.99987 -0.00071932 9.7169e-19)
(1.0006 -0.0017309 2.2354e-17)
(1.0004 -0.0012377 -2.5628e-17)
(1.0025 -0.0023375 -1.1198e-17)
(1.0002 -0.0010068 2.0618e-17)
(1.0066 -0.00035808 -1.171e-17)
(0.99639 -0.0012617 -2.1004e-17)
(1.0114 0.012375 -1.0408e-17)
(0.99856 -0.0036445 6.9842e-18)
(1.0002 0.034276 9.5883e-19)
(0.9996 0.00019855 -5.1862e-19)
(0.99977 -0.00071562 -5.4142e-18)
(0.99986 -0.00075851 1.0345e-17)
(1.0006 -0.0017946 9.9109e-18)
(1.0004 -0.0013095 3.1652e-17)
(1.0026 -0.0024076 4.3017e-18)
(1.0002 -0.0010882 1.8313e-17)
(1.0067 -0.00034507 2.9688e-17)
(0.99656 -0.0013415 -9.2921e-19)
(1.0114 0.012352 1.8307e-17)
(0.99908 -0.0034976 -7.383e-19)
(1.0006 0.033524 -2.7946e-18)
(0.99958 0.00019646 5.0269e-18)
(0.99975 -0.00074161 -7.8823e-18)
(0.99985 -0.00079903 -1.5701e-17)
(1.0006 -0.0018589 -2.6346e-18)
(1.0004 -0.0013818 -3.4352e-17)
(1.0027 -0.0024751 -1.28e-17)
(1.0002 -0.0011678 -6.3569e-18)
(1.0068 -0.00033089 2.2183e-19)
(0.99673 -0.0014197 2.7337e-17)
(1.0114 0.012322 4.2175e-18)
(0.99959 -0.0033555 -9.5971e-18)
(1.0009 0.032787 1.678e-18)
(0.99956 0.00019396 -5.6356e-18)
(0.99974 -0.00076828 9.8465e-18)
(0.99984 -0.0008407 8.219e-18)
(1.0007 -0.0019233 -5.2494e-18)
(1.0004 -0.001454 2.7625e-17)
(1.0027 -0.0025399 1.5313e-17)
(1.0003 -0.0012455 -5.025e-18)
(1.0069 -0.00031586 -2.9917e-17)
(0.99689 -0.0014966 -9.2887e-19)
(1.0114 0.012287 -1.2053e-17)
(1.0001 -0.0032182 1.1365e-17)
(1.0013 0.032065 -2.1974e-18)
(0.99954 0.00019107 3.3863e-18)
(0.99972 -0.00079556 -1.8841e-18)
(0.99983 -0.00088331 1.0882e-17)
(1.0007 -0.0019878 -2.2084e-17)
(1.0005 -0.0015258 9.0195e-18)
(1.0028 -0.0026018 -5.5011e-18)
(1.0003 -0.0013215 -1.0827e-17)
(1.007 -0.0003003 -2.4012e-18)
(0.99706 -0.0015724 -3.2996e-17)
(1.0114 0.012246 7.9514e-18)
(1.0006 -0.0030856 -1.0414e-17)
(1.0016 0.031359 7.3378e-19)
(0.99952 0.00018782 2.6771e-19)
(0.99971 -0.00082336 -5.9268e-18)
(0.99982 -0.00092666 6.179e-18)
(1.0007 -0.0020518 2.9065e-17)
(1.0005 -0.0015969 -2.1483e-17)
(1.0029 -0.0026608 1.7695e-17)
(1.0003 -0.0013956 -6.26e-18)
(1.0071 -0.00028453 5.5609e-18)
(0.99723 -0.001647 3.9203e-17)
(1.0114 0.012199 -1.476e-17)
(1.0011 -0.0029576 1.5925e-17)
(1.002 0.030667 2.0765e-18)
(0.9995 0.00018424 4.8048e-19)
(0.99969 -0.00085156 -1.2264e-18)
(0.9998 -0.00097053 -8.8899e-18)
(1.0007 -0.0021153 -4.3759e-18)
(1.0005 -0.0016669 1.8722e-17)
(1.0029 -0.0027168 1.4045e-19)
(1.0004 -0.0014681 -1.2305e-17)
(1.0071 -0.00026883 -1.3274e-17)
(0.9974 -0.0017208 -1.6411e-17)
(1.0114 0.012147 -1.393e-18)
(1.0015 -0.002834 2.9234e-18)
(1.0023 0.029989 2.187e-19)
(0.99947 0.00018037 -7.7327e-19)
(0.99967 -0.00088007 1.4597e-17)
(0.99979 -0.0010147 -5.9291e-18)
(1.0007 -0.002178 -2.4726e-17)
(1.0005 -0.0017357 8.6304e-18)
(1.003 -0.00277 -4.5084e-17)
(1.0004 -0.001539 6.1379e-18)
(1.0072 -0.00025349 8.3589e-18)
(0.99757 -0.0017939 7.623e-19)
(1.0114 0.012089 1.499e-17)
(1.002 -0.0027149 -9.6862e-19)
(1.0027 0.029326 -5.8047e-18)
(0.99945 0.00017624 -2.0416e-19)
(0.99965 -0.00090876 -2.8651e-19)
(0.99978 -0.0010589 7.9813e-18)
(1.0007 -0.0022396 1.5265e-17)
(1.0005 -0.0018029 -3.4294e-17)
(1.003 -0.0028205 1.9477e-18)
(1.0004 -0.0016086 1.0994e-17)
(1.0073 -0.00023876 1.309e-17)
(0.99774 -0.0018662 -1.0381e-17)
(1.0114 0.012025 -1.4594e-17)
(1.0024 -0.0026002 -1.582e-17)
(1.003 0.028676 6.132e-18)
(0.99942 0.0001719 -1.3357e-18)
(0.99963 -0.00093753 4.0783e-19)
(0.99976 -0.0011031 -3.8483e-18)
(1.0007 -0.0022998 -1.0192e-17)
(1.0005 -0.0018685 1.9009e-17)
(1.0031 -0.0028683 2.4198e-17)
(1.0005 -0.001677 3.2063e-18)
(1.0073 -0.00022487 6.6327e-18)
(0.99791 -0.001938 1.6557e-17)
(1.0114 0.011956 2.4563e-18)
(1.0028 -0.0024897 1.1705e-17)
(1.0033 0.02804 -3.7224e-18)
(0.9994 0.00016739 2.4585e-18)
(0.99961 -0.00096625 7.5193e-19)
(0.99974 -0.0011469 -5.4992e-18)
(1.0007 -0.0023587 1.5056e-18)
(1.0005 -0.0019324 -1.0306e-17)
(1.0031 -0.0029137 -5.8044e-18)
(1.0005 -0.0017445 -1.185e-18)
(1.0074 -0.00021205 -2.9949e-17)
(0.99808 -0.0020093 3.2508e-18)
(1.0113 0.011882 -4.9796e-18)
(1.0033 -0.0023834 -4.7602e-18)
(1.0036 0.027417 -4.4888e-18)
(0.99937 0.00016274 -5.0171e-18)
(0.99959 -0.00099481 9.8233e-19)
(0.99973 -0.0011902 2.9169e-18)
(1.0007 -0.002416 -1.8918e-17)
(1.0005 -0.0019945 -1.1749e-17)
(1.0031 -0.0029568 -2.6946e-17)
(1.0005 -0.0018112 5.719e-18)
(1.0075 -0.00020047 1.223e-17)
(0.99826 -0.0020802 -3.4859e-17)
(1.0113 0.011803 2.2962e-17)
(1.0037 -0.0022813 -5.1537e-18)
(1.0039 0.026807 2.8944e-18)
(0.99934 0.000158 4.6054e-18)
(0.99957 -0.0010231 2.1984e-18)
(0.99971 -0.0012328 1.1218e-18)
(1.0007 -0.0024716 6.0006e-18)
(1.0005 -0.0020549 -2.5944e-18)
(1.0032 -0.002998 5.2226e-17)
(1.0005 -0.0018773 2.0533e-17)
(1.0075 -0.00019033 -1.9018e-17)
(0.99843 -0.0021508 3.3551e-17)
(1.0113 0.011719 -8.5669e-18)
(1.0041 -0.0021833 -3.4027e-18)
(1.0042 0.026209 -1.4449e-18)
(0.99931 0.0001532 1.1295e-18)
(0.99955 -0.0010511 -1.3922e-17)
(0.99969 -0.0012747 2.2449e-18)
(1.0007 -0.0025255 2.6944e-17)
(1.0005 -0.0021135 2.0082e-17)
(1.0032 -0.0030373 -8.4389e-19)
(1.0006 -0.0019431 -2.8447e-17)
(1.0076 -0.00018176 5.7603e-18)
(0.99861 -0.0022212 -7.567e-18)
(1.0113 0.01163 -1.1857e-17)
(1.0045 -0.0020893 8.6542e-18)
(1.0045 0.025624 1.3464e-18)
(0.99928 0.00014839 -4.4677e-18)
(0.99952 -0.0010786 -4.6408e-18)
(0.99967 -0.0013157 -1.216e-17)
(1.0007 -0.0025777 -2.2596e-17)
(1.0005 -0.0021705 -2.0206e-17)
(1.0033 -0.0030751 -2.3733e-17)
(1.0006 -0.0020088 5.2531e-18)
(1.0076 -0.00017492 4.4764e-17)
(0.99878 -0.0022913 3.2985e-18)
(1.0113 0.011536 -1.0355e-18)
(1.0049 -0.0019992 -3.057e-18)
(1.0048 0.02505 -3.6203e-18)
(0.99925 0.0001436 3.3152e-18)
(0.9995 -0.0011056 4.3114e-18)
(0.99964 -0.0013557 1.8739e-17)
(1.0007 -0.0026282 1.565e-17)
(1.0005 -0.002226 1.9658e-17)
(1.0033 -0.0031115 -8.8224e-19)
(1.0006 -0.0020744 -2.9269e-17)
(1.0077 -0.00016992 -2.4195e-17)
(0.99896 -0.0023613 8.187e-18)
(1.0114 0.011438 4.104e-18)
(1.0052 -0.0019131 6.8992e-18)
(1.0051 0.024489 2.7975e-18)
(0.99922 0.00013885 -2.3412e-18)
(0.99947 -0.001132 6.7629e-18)
(0.99962 -0.0013947 -1.2398e-17)
(1.0007 -0.0026769 2.2646e-18)
(1.0005 -0.0022801 9.1391e-18)
(1.0033 -0.0031469 -2.3198e-18)
(1.0006 -0.0021402 6.5713e-18)
(1.0078 -0.00016687 6.7176e-18)
(0.99913 -0.0024311 2.6958e-18)
(1.0114 0.011335 1.0145e-17)
(1.0056 -0.0018308 -8.2991e-18)
(1.0054 0.023939 5.6488e-19)
(0.99919 0.00013417 3.5346e-18)
(0.99945 -0.0011579 4.1911e-19)
(0.9996 -0.0014327 -5.803e-18)
(1.0007 -0.0027241 9.0131e-19)
(1.0005 -0.002333 -1.5021e-18)
(1.0034 -0.0031815 -2.2916e-17)
(1.0007 -0.0022063 1.8348e-17)
(1.0078 -0.00016587 2.3839e-17)
(0.99931 -0.0025009 -1.3415e-17)
(1.0114 0.011228 -1.4117e-17)
(1.006 -0.0017524 -2.4293e-18)
(1.0057 0.0234 4.8134e-18)
(0.99915 0.00012958 -2.5676e-18)
(0.99942 -0.0011831 -3.2279e-19)
(0.99957 -0.0014696 7.2151e-18)
(1.0007 -0.0027697 -1.7316e-17)
(1.0005 -0.0023848 -1.3576e-17)
(1.0034 -0.0032154 2.8932e-17)
(1.0007 -0.0022729 -2.806e-18)
(1.0079 -0.00016699 -2.5241e-17)
(0.99949 -0.0025707 3.4186e-18)
(1.0114 0.011117 1.3292e-17)
(1.0063 -0.0016777 8.2327e-18)
(1.006 0.022872 -1.7357e-18)
(0.99912 0.0001251 2.5513e-19)
(0.99939 -0.0012076 2.3641e-18)
(0.99954 -0.0015055 3.9422e-18)
(1.0007 -0.0028139 8.9514e-18)
(1.0005 -0.0024357 2.6608e-17)
(1.0034 -0.0032488 6.7451e-18)
(1.0007 -0.00234 -2.4433e-17)
(1.0079 -0.00017031 2.3645e-18)
(0.99967 -0.0026405 8.8071e-18)
(1.0114 0.011002 -1.1976e-17)
(1.0066 -0.0016068 -5.5691e-18)
(1.0062 0.022355 -2.0081e-18)
(0.99909 0.00012074 7.2437e-19)
(0.99936 -0.0012315 -4.1132e-19)
(0.99952 -0.0015404 -1.0401e-17)
(1.0007 -0.0028568 -1.925e-19)
(1.0004 -0.0024859 -5.2606e-17)
(1.0034 -0.0032821 8.3158e-18)
(1.0007 -0.0024078 2.4001e-17)
(1.008 -0.00017589 -6.7945e-18)
(0.99984 -0.0027103 -9.2219e-18)
(1.0114 0.010882 1.9887e-17)
(1.007 -0.0015395 6.669e-18)
(1.0065 0.021848 5.2054e-18)
(0.99905 0.00011651 7.7808e-19)
(0.99933 -0.0012547 -8.5336e-19)
(0.99949 -0.0015744 1.881e-17)
(1.0007 -0.0028985 4.1282e-18)
(1.0004 -0.0025356 4.6616e-17)
(1.0035 -0.0033153 -2.9309e-17)
(1.0008 -0.0024764 -8.0376e-18)
(1.008 -0.00018379 6.3937e-18)
(1 -0.0027802 3.1788e-18)
(1.0114 0.010759 -1.119e-17)
(1.0073 -0.001476 -1.0779e-18)
(1.0068 0.021351 -3.8384e-18)
(0.99901 0.00011241 -3.0409e-18)
(0.9993 -0.0012773 1.4325e-18)
(0.99946 -0.0016075 -1.1056e-17)
(1.0007 -0.0029393 5.4279e-18)
(1.0004 -0.0025848 -1.7713e-17)
(1.0035 -0.0033486 3.9747e-18)
(1.0008 -0.0025458 3.2183e-17)
(1.0081 -0.00019406 -2.3928e-17)
(1.0002 -0.0028503 -1.1683e-17)
(1.0114 0.010632 -1.107e-17)
(1.0076 -0.001416 -5.3075e-18)
(1.007 0.020865 -1.054e-18)
(0.99897 0.00010845 3.7876e-18)
(0.99927 -0.0012994 -3.4024e-18)
(0.99943 -0.0016398 -1.0728e-17)
(1.0007 -0.0029791 -8.6556e-18)
(1.0004 -0.0026339 -2.8958e-17)
(1.0035 -0.0033821 -1.8433e-17)
(1.0008 -0.0026161 -1.9733e-17)
(1.0081 -0.00020675 2.2247e-17)
(1.0004 -0.0029205 1.1327e-17)
(1.0114 0.010501 1.6764e-17)
(1.0079 -0.0013596 -2.0807e-18)
(1.0073 0.020388 5.0882e-18)
(0.99894 0.00010461 -6.0873e-18)
(0.99923 -0.0013208 5.5125e-18)
(0.99939 -0.0016715 2.6268e-17)
(1.0007 -0.0030183 -2.0416e-18)
(1.0004 -0.002683 3.2038e-17)
(1.0035 -0.003416 1.3907e-18)
(1.0008 -0.0026873 -1.89e-17)
(1.0082 -0.00022189 8.7047e-18)
(1.0006 -0.0029909 -4.085e-18)
(1.0114 0.010367 -3.5103e-18)
(1.0082 -0.0013068 6.7489e-18)
(1.0075 0.01992 -3.4408e-18)
(0.9989 0.00010089 4.9884e-18)
(0.9992 -0.0013418 -7.4916e-18)
(0.99936 -0.0017026 -3.0626e-17)
(1.0007 -0.0030569 1.3354e-17)
(1.0004 -0.0027321 -2.2824e-17)
(1.0036 -0.0034505 2.548e-17)
(1.0009 -0.0027596 6.1603e-18)
(1.0082 -0.00023953 -8.2876e-18)
(1.0007 -0.0030615 -1.9609e-18)
(1.0115 0.010229 -8.7919e-18)
(1.0085 -0.0012574 -1.101e-17)
(1.0078 0.019462 4.7564e-18)
(0.99886 9.7295e-05 -3.6742e-18)
(0.99916 -0.0013623 2.4911e-18)
(0.99933 -0.0017331 1.8609e-17)
(1.0006 -0.003095 -1.7604e-17)
(1.0004 -0.0027815 3.6723e-17)
(1.0036 -0.0034855 -1.9776e-17)
(1.0009 -0.002833 3.5912e-18)
(1.0082 -0.00025969 -1.3095e-17)
(1.0009 -0.0031323 6.4026e-18)
(1.0115 0.010087 -1.2303e-18)
(1.0088 -0.0012116 4.7114e-18)
(1.008 0.019013 -2.1152e-18)
(0.99881 9.38e-05 4.5062e-18)
(0.99913 -0.0013824 1.9392e-18)
(0.99929 -0.0017633 -1.2406e-17)
(1.0006 -0.0031328 -3.5766e-19)
(1.0003 -0.0028312 -1.622e-18)
(1.0036 -0.0035213 4.783e-18)
(1.0009 -0.0029074 3.4103e-17)
(1.0083 -0.0002824 8.9568e-18)
(1.0011 -0.0032035 -1.8979e-17)
(1.0115 0.0099427 -6.3768e-18)
(1.0091 -0.0011692 -4.4399e-18)
(1.0083 0.018573 2.2224e-18)
(0.99877 9.0395e-05 -5.1649e-18)
(0.99909 -0.0014022 -7.1861e-18)