/*--------------------------------*- C++ -*----------------------------------*\
  =========                 |
  \\      /  F ield         | OpenFOAM: The Open Source CFD Toolbox
   \\    /   O peration     | Website:  https://openfoam.org
    \\  /    A nd           | Version:  6.0
     \\/     M anipulation  |
\*---------------------------------------------------------------------------*/
FoamFile
{
    version     2.0;
    format      ascii;
    class       surfaceScalarField;
    location    "3.1";
    object      phi;
}
// * * * * * * * * * * * * * * * * * * * * * * * * * * * * * * * * * * * * * //

dimensions      [0 3 -1 0 0 0 0];

internalField   nonuniform List<scalar> 
26699
(
2.0051e-05
0.005201
5.4389e-10
4.0126e-05
0.0051116
5.9639e-05
0.0049351
7.8186e-05
0.0046741
9.5416e-05
0.0043332
0.00011102
0.0039182
0.00012471
0.0034362
0.00013626
0.0028953
0.00014546
0.002305
0.00015181
0.0016755
0.00015717
0.0010154
0.00046501
3.4361e-05
2.0051e-05
0.0051809
1.6794e-09
4.0127e-05
0.0050916
5.9641e-05
0.0049155
7.819e-05
0.0046556
9.5418e-05
0.004316
0.00011102
0.0039026
0.00012471
0.0034225
0.00013625
0.0028838
0.00014545
0.0022958
0.00015106
0.0016699
0.0001589
0.0010076
0.000559
6.491e-05
2.0051e-05
0.0051609
2.8855e-09
4.0128e-05
0.0050715
5.9643e-05
0.004896
7.8193e-05
0.004637
9.5421e-05
0.0042988
0.00011102
0.003887
0.00012471
0.0034088
0.00013622
0.0028723
0.00014546
0.0022865
0.0001503
0.0016651
0.00016016
0.0009977
0.00062913
9.0036e-05
2.0051e-05
0.0051408
4.1048e-09
4.013e-05
0.0050514
5.9646e-05
0.0048765
7.8196e-05
0.0046185
9.5424e-05
0.0042815
0.00011103
0.0038714
0.0001247
0.0033951
0.0001362
0.0028608
0.0001455
0.0022772
0.00014955
0.001661
0.00016088
0.00098637
0.00067978
0.00011023
2.0051e-05
0.0051208
5.3265e-09
4.0131e-05
0.0050313
5.9648e-05
0.004857
7.8199e-05
0.0045999
9.5427e-05
0.0042643
0.00011103
0.0038558
0.0001247
0.0033815
0.00013618
0.0028493
0.00014557
0.0022678
0.00014886
0.0016577
0.00016109
0.00097414
0.0007146
0.00012627
2.0051e-05
0.0051007
6.5504e-09
4.0132e-05
0.0050112
5.965e-05
0.0048375
7.8202e-05
0.0045814
9.5431e-05
0.0042471
0.00011103
0.0038402
0.0001247
0.0033678
0.00013615
0.0028379
0.00014567
0.0022583
0.00014824
0.0016551
0.00016084
0.00096154
0.00073662
0.00013883
2.0051e-05
0.0050807
7.7764e-09
4.0133e-05
0.0049912
5.9653e-05
0.004818
7.8205e-05
0.0045628
9.5434e-05
0.0042299
0.00011103
0.0038246
0.0001247
0.0033541
0.00013611
0.0028264
0.00014578
0.0022486
0.0001477
0.0016532
0.00016023
0.000949
0.00074839
0.00014846
2.0051e-05
0.0050606
9.0046e-09
4.0135e-05
0.0049711
5.9655e-05
0.0047984
7.8208e-05
0.0045443
9.5437e-05
0.0042126
0.00011103
0.003809
0.0001247
0.0033405
0.00013608
0.0028151
0.0001459
0.0022388
0.00014726
0.0016519
0.00015935
0.00093691
0.00075209
0.00015566
2.0051e-05
0.0050405
1.0235e-08
4.0136e-05
0.004951
5.9657e-05
0.0047789
7.8211e-05
0.0045257
9.5441e-05
0.0041954
0.00011104
0.0037934
0.0001247
0.0033268
0.00013603
0.0028037
0.00014603
0.0022288
0.00014693
0.001651
0.00015829
0.00092555
0.00074952
0.00016086
2.0051e-05
0.0050205
1.1468e-08
4.0137e-05
0.0049309
5.966e-05
0.0047594
7.8214e-05
0.0045072
9.5444e-05
0.0041782
0.00011104
0.0037778
0.0001247
0.0033131
0.00013599
0.0027924
0.00014617
0.0022186
0.00014671
0.0016504
0.00015712
0.00091513
0.00074219
0.00016444
2.0051e-05
0.0050004
1.2703e-08
4.0138e-05
0.0049108
5.9662e-05
0.0047399
7.8217e-05
0.0044886
9.5448e-05
0.0041609
0.00011104
0.0037622
0.00012471
0.0032995
0.00013594
0.0027812
0.00014631
0.0022083
0.00014659
0.0016501
0.00015591
0.00090581
0.00073137
0.00016673
2.0052e-05
0.0049803
1.394e-08
4.014e-05
0.0048907
5.9665e-05
0.0047203
7.822e-05
0.00447
9.5451e-05
0.0041437
0.00011104
0.0037466
0.00012471
0.0032858
0.00013589
0.00277
0.00014645
0.0021977
0.00014658
0.00165
0.00015472
0.00089767
0.00071808
0.00016801
2.0052e-05
0.0049603
1.518e-08
4.0141e-05
0.0048706
5.9667e-05
0.0047008
7.8223e-05
0.0044515
9.5455e-05
0.0041265
0.00011104
0.003731
0.00012472
0.0032721
0.00013583
0.0027589
0.00014658
0.002187
0.00014667
0.0016499
0.00015358
0.00089076
0.00070316
0.0001685
2.0052e-05
0.0049402
1.6422e-08
4.0142e-05
0.0048506
5.9669e-05
0.0046813
7.8227e-05
0.0044329
9.5458e-05
0.0041092
0.00011105
0.0037155
0.00012473
0.0032584
0.00013577
0.0027479
0.0001467
0.002176
0.00014684
0.0016498
0.00015253
0.00088508
0.00068727
0.00016841
2.0052e-05
0.0049201
1.7667e-08
4.0143e-05
0.0048305
5.9672e-05
0.0046618
7.823e-05
0.0044144
9.5462e-05
0.004092
0.00011105
0.0036999
0.00012474
0.0032448
0.0001357
0.0027369
0.0001468
0.0021649
0.00014709
0.0016495
0.00015159
0.00088058
0.00067095
0.0001679
2.0052e-05
0.0049001
1.8914e-08
4.0144e-05
0.0048104
5.9674e-05
0.0046422
7.8233e-05
0.0043958
9.5466e-05
0.0040748
0.00011105
0.0036843
0.00012475
0.0032311
0.00013564
0.002726
0.0001469
0.0021537
0.0001474
0.001649
0.00015077
0.00087721
0.00065463
0.0001671
2.0052e-05
0.00488
2.0164e-08
4.0146e-05
0.0047903
5.9677e-05
0.0046227
7.8236e-05
0.0043773
9.547e-05
0.0040575
0.00011105
0.0036687
0.00012476
0.0032173
0.00013557
0.0027152
0.00014698
0.0021423
0.00014777
0.0016482
0.00015009
0.00087489
0.00063862
0.00016611
2.0052e-05
0.0048599
2.1416e-08
4.0147e-05
0.0047702
5.9679e-05
0.0046032
7.8239e-05
0.0043587
9.5474e-05
0.0040403
0.00011105
0.0036531
0.00012478
0.0032036
0.0001355
0.0027045
0.00014703
0.0021307
0.00014818
0.001647
0.00014956
0.00087351
0.00062315
0.00016502
2.0052e-05
0.0048399
2.2672e-08
4.0148e-05
0.0047501
5.9682e-05
0.0045836
7.8242e-05
0.0043401
9.5478e-05
0.0040231
0.00011105
0.0036375
0.0001248
0.0031899
0.00013543
0.0026938
0.00014708
0.0021191
0.00014863
0.0016455
0.00014915
0.00087299
0.0006084
0.0001639
2.0052e-05
0.0048198
2.393e-08
4.0149e-05
0.00473
5.9684e-05
0.0045641
7.8246e-05
0.0043216
9.5482e-05
0.0040058
0.00011105
0.003622
0.00012482
0.0031761
0.00013536
0.0026833
0.0001471
0.0021074
0.00014909
0.0016435
0.00014888
0.0008732
0.00059448
0.00016281
2.0052e-05
0.0047997
2.5191e-08
4.0151e-05
0.0047099
5.9686e-05
0.0045446
7.8249e-05
0.004303
9.5486e-05
0.0039886
0.00011106
0.0036064
0.00012484
0.0031623
0.0001353
0.0026728
0.0001471
0.0020956
0.00014957
0.001641
0.00014874
0.00087403
0.00058146
0.00016176
2.0052e-05
0.0047796
2.6455e-08
4.0152e-05
0.0046898
5.9689e-05
0.004525
7.8252e-05
0.0042844
9.549e-05
0.0039714
0.00011106
0.0035908
0.00012486
0.0031485
0.00013523
0.0026625
0.00014708
0.0020837
0.00015005
0.001638
0.00014871
0.00087537
0.00056936
0.00016081
2.0052e-05
0.0047595
2.7722e-08
4.0153e-05
0.0046697
5.9691e-05
0.0045055
7.8255e-05
0.0042659
9.5494e-05
0.0039541
0.00011106
0.0035753
0.00012489
0.0031347
0.00013517
0.0026522
0.00014704
0.0020718
0.00015053
0.0016346
0.00014878
0.00087712
0.00055819
0.00015995
2.0052e-05
0.0047395
2.8992e-08
4.0154e-05
0.0046496
5.9694e-05
0.004486
7.8259e-05
0.0042473
9.5499e-05
0.0039369
0.00011106
0.0035597
0.00012491
0.0031208
0.0001351
0.002642
0.00014699
0.0020599
0.000151
0.0016306
0.00014895
0.00087917
0.00054793
0.00015921
2.0052e-05
0.0047194
3.0265e-08
4.0156e-05
0.0046295
5.9696e-05
0.0044664
7.8262e-05
0.0042287
9.5503e-05
0.0039196
0.00011106
0.0035442
0.00012494
0.003107
0.00013505
0.0026319
0.00014692
0.0020481
0.00015145
0.001626
0.00014919
0.00088143
0.00053854
0.00015858
2.0052e-05
0.0046993
3.1542e-08
4.0157e-05
0.0046094
5.9699e-05
0.0044469
7.8265e-05
0.0042102
9.5508e-05
0.0039024
0.00011105
0.0035286
0.00012497
0.003093
0.00013499
0.0026219
0.00014683
0.0020362
0.00015187
0.001621
0.0001495
0.0008838
0.00052996
0.00015807
2.0052e-05
0.0046792
3.2821e-08
4.0158e-05
0.0045893
5.9701e-05
0.0044273
7.8269e-05
0.0041916
9.5513e-05
0.0038852
0.00011105
0.0035131
0.000125
0.0030791
0.00013495
0.0026119
0.00014672
0.0020245
0.00015227
0.0016154
0.00014986
0.00088621
0.00052215
0.00015767
2.0052e-05
0.0046591
3.4104e-08
4.0159e-05
0.0045692
5.9704e-05
0.0044078
7.8272e-05
0.004173
9.5518e-05
0.0038679
0.00011105
0.0034975
0.00012503
0.0030651
0.00013491
0.002602
0.0001466
0.0020128
0.00015264
0.0016094
0.00015027
0.00088859
0.00051504
0.00015738
2.0052e-05
0.004639
3.539e-08
4.0161e-05
0.0045491
5.9706e-05
0.0043882
7.8275e-05
0.0041545
9.5523e-05
0.0038507
0.00011105
0.003482
0.00012507
0.0030511
0.00013487
0.0025922
0.00014647
0.0020012
0.00015297
0.0016029
0.0001507
0.00089086
0.00050856
0.00015718
2.0052e-05
0.0046189
3.668e-08
4.0162e-05
0.0045289
5.9709e-05
0.0043687
7.8279e-05
0.0041359
9.5528e-05
0.0038334
0.00011105
0.0034665
0.0001251
0.003037
0.00013484
0.0025825
0.00014633
0.0019897
0.00015328
0.0015959
0.00015116
0.00089297
0.00050265
0.00015707
2.0052e-05
0.0045989
3.7974e-08
4.0163e-05
0.0045088
5.9711e-05
0.0043491
7.8282e-05
0.0041173
9.5534e-05
0.0038162
0.00011104
0.003451
0.00012514
0.003023
0.00013482
0.0025728
0.00014617
0.0019783
0.00015354
0.0015886
0.00015163
0.00089488
0.00049724
0.00015704
2.0052e-05
0.0045788
3.927e-08
4.0165e-05
0.0044887
5.9714e-05
0.0043296
7.8285e-05
0.0040988
9.5539e-05
0.0037989
0.00011104
0.0034355
0.00012517
0.0030088
0.00013481
0.0025632
0.00014601
0.0019671
0.00015377
0.0015808
0.00015211
0.00089655
0.00049227
0.00015708
2.0052e-05
0.0045587
4.0571e-08
4.0166e-05
0.0044686
5.9717e-05
0.00431
7.8289e-05
0.0040802
9.5545e-05
0.0037817
0.00011104
0.00342
0.00012521
0.0029947
0.0001348
0.0025536
0.00014585
0.0019561
0.00015396
0.0015727
0.00015258
0.00089793
0.00048768
0.00015717
2.0052e-05
0.0045386
4.1875e-08
4.0167e-05
0.0044485
5.9719e-05
0.0042905
7.8292e-05
0.0040616
9.5551e-05
0.0037644
0.00011103
0.0034045
0.00012524
0.0029804
0.0001348
0.002544
0.00014568
0.0019452
0.00015412
0.0015643
0.00015304
0.00089902
0.00048342
0.0001573
2.0052e-05
0.0045185
4.3184e-08
4.0168e-05
0.0044284
5.9722e-05
0.0042709
7.8296e-05
0.004043
9.5557e-05
0.0037471
0.00011103
0.003389
0.00012528
0.0029662
0.00013481
0.0025345
0.00014551
0.0019345
0.00015424
0.0015555
0.00015348
0.00089978
0.00047942
0.00015748
2.0052e-05
0.0044984
4.4496e-08
4.017e-05
0.0044083
5.9724e-05
0.0042514
7.8299e-05
0.0040245
9.5564e-05
0.0037299
0.00011103
0.0033736
0.00012531
0.0029519
0.00013483
0.002525
0.00014534
0.001924
0.00015433
0.0015465
0.00015391
0.0009002
0.00047566
0.00015768
2.0052e-05
0.0044783
4.5812e-08
4.0171e-05
0.0043881
5.9727e-05
0.0042318
7.8303e-05
0.0040059
9.557e-05
0.0037126
0.00011102
0.0033581
0.00012535
0.0029376
0.00013486
0.0025155
0.00014517
0.0019137
0.00015439
0.0015373
0.00015431
0.00090027
0.00047207
0.0001579
2.0052e-05
0.0044582
4.7132e-08
4.0172e-05
0.004368
5.973e-05
0.0042123
7.8306e-05
0.0039873
9.5577e-05
0.0036953
0.00011101
0.0033427
0.00012538
0.0029232
0.00013489
0.002506
0.00014501
0.0019036
0.00015441
0.0015279
0.00015469
0.0009
0.00046863
0.00015813
2.0052e-05
0.0044381
4.8457e-08
4.0174e-05
0.0043479
5.9732e-05
0.0041927
7.831e-05
0.0039687
9.5584e-05
0.0036781
0.00011101
0.0033273
0.00012541
0.0029088
0.00013494
0.0024965
0.00014484
0.0018936
0.00015441
0.0015183
0.00015504
0.00089938
0.0004653
0.00015837
2.0052e-05
0.004418
4.9785e-08
4.0175e-05
0.0043278
5.9735e-05
0.0041732
7.8313e-05
0.0039502
9.5591e-05
0.0036608
0.000111
0.0033119
0.00012545
0.0028944
0.00013499
0.0024869
0.00014469
0.0018839
0.00015439
0.0015086
0.00015536
0.00089841
0.00046205
0.00015861
2.0052e-05
0.0043979
5.1118e-08
4.0176e-05
0.0043076
5.9738e-05
0.0041536
7.8317e-05
0.0039316
9.5599e-05
0.0036435
0.000111
0.0032965
0.00012547
0.0028799
0.00013505
0.0024773
0.00014454
0.0018744
0.00015434
0.0014988
0.00015565
0.0008971
0.00045886
0.00015884
2.0052e-05
0.0043778
5.2456e-08
4.0178e-05
0.0042875
5.974e-05
0.004134
7.832e-05
0.003913
9.5606e-05
0.0036262
0.00011099
0.0032811
0.0001255
0.0028654
0.00013511
0.0024677
0.0001444
0.0018652
0.00015427
0.001489
0.00015591
0.00089547
0.0004557
0.00015907
2.0052e-05
0.0043577
5.3798e-08
4.0179e-05
0.0042674
5.9743e-05
0.0041145
7.8324e-05
0.0038944
9.5614e-05
0.0036089
0.00011099
0.0032657
0.00012553
0.0028508
0.00013518
0.0024581
0.00014428
0.0018561
0.00015418
0.0014791
0.00015614
0.00089351
0.00045255
0.00015928
2.0052e-05
0.0043376
5.5144e-08
4.018e-05
0.0042473
5.9746e-05
0.0040949
7.8328e-05
0.0038758
9.5623e-05
0.0035916
0.00011098
0.0032503
0.00012555
0.0028363
0.00013526
0.0024484
0.00014416
0.0018472
0.00015408
0.0014691
0.00015634
0.00089126
0.0004494
0.00015949
2.0052e-05
0.0043175
5.6495e-08
4.0182e-05
0.0042271
5.9749e-05
0.0040753
7.8331e-05
0.0038573
9.5631e-05
0.0035743
0.00011097
0.003235
0.00012557
0.0028217
0.00013535
0.0024386
0.00014405
0.0018385
0.00015397
0.0014592
0.00015651
0.00088872
0.00044623
0.00015968
2.0052e-05
0.0042974
5.7852e-08
4.0183e-05
0.004207
5.9751e-05
0.0040558
7.8335e-05
0.0038387
9.5639e-05
0.003557
0.00011097
0.0032197
0.00012559
0.002807
0.00013544
0.0024287
0.00014396
0.00183
0.00015385
0.0014493
0.00015666
0.00088591
0.00044304
0.00015985
2.0052e-05
0.0042772
5.9212e-08
4.0184e-05
0.0041869
5.9754e-05
0.0040362
7.8338e-05
0.0038201
9.5648e-05
0.0035397
0.00011096
0.0032044
0.00012561
0.0027924
0.00013553
0.0024188
0.00014388
0.0018216
0.00015372
0.0014395
0.00015678
0.00088284
0.00043981
0.00016001
2.0052e-05
0.0042571
6.0578e-08
4.0186e-05
0.0041667
5.9757e-05
0.0040166
7.8342e-05
0.0038015
9.5657e-05
0.0035224
0.00011096
0.0031891
0.00012562
0.0027777
0.00013563
0.0024088
0.00014381
0.0018134
0.00015358
0.0014297
0.00015688
0.00087954
0.00043654
0.00016015
2.0052e-05
0.004237
6.195e-08
4.0187e-05
0.0041466
5.976e-05
0.0039971
7.8346e-05
0.0037829
9.5667e-05
0.0035051
0.00011095
0.0031738
0.00012563
0.002763
0.00013574
0.0023987
0.00014376
0.0018054
0.00015344
0.00142
0.00015696
0.00087603
0.00043323
0.00016027
2.0052e-05
0.0042169
6.3326e-08
4.0189e-05
0.0041265
5.9763e-05
0.0039775
7.8349e-05
0.0037643
9.5676e-05
0.0034877
0.00011095
0.0031585
0.00012564
0.0027484
0.00013584
0.0023885
0.00014372
0.0017975
0.00015331
0.0014105
0.00015702
0.00087231
0.00042988
0.00016038
2.0052e-05
0.0041968
6.4707e-08
4.019e-05
0.0041063
5.9766e-05
0.0039579
7.8353e-05
0.0037457
9.5686e-05
0.0034704
0.00011094
0.0031432
0.00012565
0.0027336
0.00013595
0.0023782
0.00014369
0.0017898
0.00015317
0.001401
0.00015707
0.00086842
0.00042647
0.00016047
2.0052e-05
0.0041767
6.6095e-08
4.0191e-05
0.0040862
5.9768e-05
0.0039383
7.8356e-05
0.0037272
9.5695e-05
0.0034531
0.00011094
0.003128
0.00012565
0.0027189
0.00013606
0.0023678
0.00014368
0.0017822
0.00015304
0.0013916
0.0001571
0.00086436
0.00042301
0.00016055
2.0052e-05
0.0041565
6.7487e-08
4.0193e-05
0.0040661
5.9771e-05
0.0039187
7.836e-05
0.0037086
9.5705e-05
0.0034357
0.00011094
0.0031128
0.00012565
0.0027042
0.00013617
0.0023573
0.00014368
0.0017747
0.00015291
0.0013824
0.00015712
0.00086015
0.00041951
0.00016062
2.0052e-05
0.0041364
6.8885e-08
4.0194e-05
0.0040459
5.9774e-05
0.0038992
7.8364e-05
0.00369
9.5716e-05
0.0034184
0.00011093
0.0030976
0.00012564
0.0026895
0.00013627
0.0023466
0.00014369
0.0017673
0.00015279
0.0013733
0.00015713
0.00085582
0.00041596
0.00016067
2.0052e-05
0.0041163
7.029e-08
4.0196e-05
0.0040258
5.9777e-05
0.0038796
7.8368e-05
0.0036714
9.5726e-05
0.003401
0.00011093
0.0030823
0.00012564
0.0026748
0.00013638
0.0023359
0.00014371
0.0017599
0.00015268
0.0013643
0.00015713
0.00085137
0.00041237
0.00016072
2.0052e-05
0.0040962
7.17e-08
4.0197e-05
0.0040056
5.978e-05
0.00386
7.8371e-05
0.0036528
9.5736e-05
0.0033837
0.00011093
0.0030671
0.00012563
0.0026601
0.00013649
0.002325
0.00014375
0.0017527
0.00015257
0.0013555
0.00015712
0.00084681
0.00040874
0.00016075
2.0052e-05
0.0040761
7.3116e-08
4.0199e-05
0.0039855
5.9783e-05
0.0038404
7.8375e-05
0.0036342
9.5747e-05
0.0033663
0.00011093
0.003052
0.00012562
0.0026454
0.00013659
0.0023141
0.00014379
0.0017455
0.00015248
0.0013468
0.00015711
0.00084218
0.00040507
0.00016078
2.0052e-05
0.0040559
7.4538e-08
4.02e-05
0.0039653
5.9787e-05
0.0038208
7.8379e-05
0.0036156
9.5758e-05
0.0033489
0.00011094
0.0030368
0.00012561
0.0026308
0.00013669
0.002303
0.00014385
0.0017383
0.00015239
0.0013383
0.0001571
0.00083747
0.00040137
0.0001608
2.0052e-05
0.0040358
7.5966e-08
4.0202e-05
0.0039452
5.979e-05
0.0038012
7.8382e-05
0.003597
9.5768e-05
0.0033315
0.00011094
0.0030216
0.00012559
0.0026161
0.00013679
0.0022918
0.00014391
0.0017312
0.00015232
0.0013299
0.00015708
0.0008327
0.00039763
0.00016082
2.0052e-05
0.0040157
7.7401e-08
4.0203e-05
0.003925
5.9793e-05
0.0037817
7.8386e-05
0.0035784
9.5779e-05
0.0033141
0.00011094
0.0030064
0.00012557
0.0026015
0.00013689
0.0022805
0.00014399
0.0017241
0.00015225
0.0013216
0.00015707
0.00082788
0.00039388
0.00016083
2.0052e-05
0.0039955
7.8843e-08
4.0205e-05
0.0039049
5.9796e-05
0.0037621
7.839e-05
0.0035598
9.579e-05
0.0032967
0.00011095
0.0029913
0.00012555
0.0025869
0.00013698
0.002269
0.00014407
0.001717
0.0001522
0.0013135
0.00015706
0.00082302
0.0003901
0.00016083
2.0052e-05
0.0039754
8.0291e-08
4.0206e-05
0.0038847
5.9799e-05
0.0037425
7.8394e-05
0.0035412
9.5801e-05
0.0032793
0.00011095
0.0029761
0.00012553
0.0025723
0.00013707
0.0022575
0.00014415
0.0017099
0.00015215
0.0013055
0.00015704
0.00081813
0.00038631
0.00016084
2.0052e-05
0.0039553
8.1746e-08
4.0208e-05
0.0038646
5.9802e-05
0.0037229
7.8398e-05
0.0035226
9.5812e-05
0.0032619
0.00011096
0.002961
0.00012551
0.0025577
0.00013715
0.0022459
0.00014425
0.0017028
0.00015212
0.0012976
0.00015704
0.00081322
0.0003825
0.00016084
2.0052e-05
0.0039351
8.3208e-08
4.0209e-05
0.0038444
5.9806e-05
0.0037033
7.8402e-05
0.003504
9.5823e-05
0.0032445
0.00011097
0.0029458
0.00012549
0.0025432
0.00013723
0.0022341
0.00014434
0.0016957
0.0001521
0.0012898
0.00015703
0.00080829
0.00037869
0.00016084
2.0052e-05
0.003915
8.4678e-08
4.0211e-05
0.0038242
5.9809e-05
0.0036837
7.8406e-05
0.0034855
9.5834e-05
0.0032271
0.00011098
0.0029307
0.00012546
0.0025287
0.0001373
0.0022223
0.00014444
0.0016886
0.00015209
0.0012822
0.00015703
0.00080335
0.00037487
0.00016084
2.0052e-05
0.0038949
8.6154e-08
4.0213e-05
0.0038041
5.9812e-05
0.0036641
7.8409e-05
0.0034669
9.5844e-05
0.0032096
0.00011099
0.0029156
0.00012544
0.0025143
0.00013737
0.0022103
0.00014455
0.0016814
0.00015209
0.0012747
0.00015703
0.00079841
0.00037105
0.00016084
2.0053e-05
0.0038747
8.7638e-08
4.0214e-05
0.0037839
5.9816e-05
0.0036445
7.8414e-05
0.0034483
9.5855e-05
0.0031922
0.000111
0.0029004
0.00012541
0.0024999
0.00013743
0.0021983
0.00014465
0.0016742
0.00015209
0.0012672
0.00015703
0.00079346
0.00036724
0.00016085
2.0053e-05
0.0038546
8.913e-08
4.0216e-05
0.0037638
5.9819e-05
0.0036249
7.8418e-05
0.0034297
9.5866e-05
0.0031747
0.00011101
0.0028853
0.00012539
0.0024855
0.00013749
0.0021862
0.00014476
0.0016669
0.00015211
0.0012599
0.00015704
0.00078853
0.00036344
0.00016085
2.0053e-05
0.0038344
9.0629e-08
4.0218e-05
0.0037436
5.9822e-05
0.0036053
7.8422e-05
0.0034111
9.5877e-05
0.0031573
0.00011103
0.0028701
0.00012536
0.0024712
0.00013754
0.002174
0.00014487
0.0016596
0.00015213
0.0012526
0.00015706
0.0007836
0.00035964
0.00016085
2.0053e-05
0.0038143
9.2137e-08
4.0219e-05
0.0037234
5.9826e-05
0.0035857
7.8426e-05
0.0033925
9.5887e-05
0.0031398
0.00011104
0.002855
0.00012533
0.0024569
0.00013759
0.0021618
0.00014497
0.0016522
0.00015216
0.0012454
0.00015708
0.00077868
0.00035586
0.00016086
2.0053e-05
0.0037941
9.3653e-08
4.0221e-05
0.0037033
5.9829e-05
0.0035661
7.843e-05
0.0033739
9.5898e-05
0.0031223
0.00011106
0.0028398
0.00012531
0.0024426
0.00013763
0.0021495
0.00014508
0.0016447
0.0001522
0.0012383
0.0001571
0.00077377
0.0003521
0.00016086
2.0053e-05
0.003774
9.5176e-08
4.0223e-05
0.0036831
5.9833e-05
0.0035464
7.8434e-05
0.0033553
9.5908e-05
0.0031049
0.00011108
0.0028246
0.00012528
0.0024284
0.00013767
0.0021371
0.00014518
0.0016372
0.00015224
0.0012312
0.00015713
0.00076888
0.00034835
0.00016087
2.0053e-05
0.0037538
9.6709e-08
4.0224e-05
0.0036629
5.9836e-05
0.0035268
7.8439e-05
0.0033367
9.5918e-05
0.0030874
0.0001111
0.0028095
0.00012526
0.0024143
0.00013771
0.0021246
0.00014529
0.0016296
0.00015229
0.0012242
0.00015716
0.00076401
0.00034463
0.00016088
2.0053e-05
0.0037337
9.825e-08
4.0226e-05
0.0036428
5.984e-05
0.0035072
7.8443e-05
0.0033181
9.5928e-05
0.0030699
0.00011112
0.0027943
0.00012524
0.0024001
0.00013774
0.0021121
0.00014539
0.001622
0.00015234
0.0012173
0.0001572
0.00075915
0.00034093
0.0001609
2.0053e-05
0.0037135
9.98e-08
4.0228e-05
0.0036226
5.9844e-05
0.0034876
7.8447e-05
0.0032994
9.5938e-05
0.0030524
0.00011114
0.0027791
0.00012521
0.0023861
0.00013776
0.0020996
0.00014549
0.0016143
0.00015239
0.0012104
0.00015724
0.00075431
0.00033726
0.00016091
2.0053e-05
0.0036934
1.0136e-07
4.023e-05
0.0036024
5.9847e-05
0.003468
7.8452e-05
0.0032808
9.5948e-05
0.0030349
0.00011116
0.0027639
0.00012519
0.002372
0.00013778
0.002087
0.00014558
0.0016065
0.00015245
0.0012035
0.00015728
0.00074948
0.00033361
0.00016092
2.0053e-05
0.0036732
1.0293e-07
4.0231e-05
0.0035822
5.9851e-05
0.0034484
7.8456e-05
0.0032622
9.5958e-05
0.0030174
0.00011118
0.0027486
0.00012517
0.002358
0.0001378
0.0020744
0.00014568
0.0015986
0.00015251
0.0011967
0.00015732
0.00074467
0.00032999
0.00016094
2.0053e-05
0.0036531
1.045e-07
4.0233e-05
0.003562
5.9855e-05
0.0034287
7.8461e-05
0.0032436
9.5968e-05
0.0029999
0.0001112
0.0027334
0.00012515
0.0023441
0.00013782
0.0020617
0.00014577
0.0015906
0.00015258
0.0011899
0.00015737
0.00073988
0.00032641
0.00016096
2.0053e-05
0.0036329
1.0609e-07
4.0235e-05
0.0035419
5.9859e-05
0.0034091
7.8466e-05
0.003225
9.5977e-05
0.0029824
0.00011122
0.0027182
0.00012514
0.0023302
0.00013783
0.002049
0.00014585
0.0015826
0.00015264
0.0011831
0.00015742
0.0007351
0.00032285
0.00016098
2.0053e-05
0.0036128
1.0769e-07
4.0237e-05
0.0035217
5.9862e-05
0.0033895
7.8471e-05
0.0032064
9.5986e-05
0.0029649
0.00011125
0.0027029
0.00012512
0.0023163
0.00013784
0.0020363
0.00014594
0.0015745
0.00015271
0.0011763
0.00015747
0.00073034
0.00031932
0.000161
2.0053e-05
0.0035926
1.0929e-07
4.0239e-05
0.0035015
5.9866e-05
0.0033699
7.8476e-05
0.0031878
9.5996e-05
0.0029474
0.00011127
0.0026876
0.00012511
0.0023025
0.00013785
0.0020236
0.00014602
0.0015663
0.00015278
0.0011696
0.00015753
0.00072559
0.00031583
0.00016102
2.0053e-05
0.0035724
1.1091e-07
4.0241e-05
0.0034813
5.987e-05
0.0033502
7.848e-05
0.0031692
9.6005e-05
0.0029298
0.0001113
0.0026723
0.00012509
0.0022887
0.00013785
0.0020108
0.00014609
0.0015581
0.00015285
0.0011628
0.00015758
0.00072086
0.00031236
0.00016105
2.0054e-05
0.0035523
1.1254e-07
4.0243e-05
0.0034611
5.9874e-05
0.0033306
7.8486e-05
0.0031506
9.6014e-05
0.0029123
0.00011132
0.002657
0.00012508
0.0022749
0.00013785
0.001998
0.00014617
0.0015498
0.00015292
0.0011561
0.00015764
0.00071614
0.00030893
0.00016107
2.0054e-05
0.0035321
1.1418e-07
4.0245e-05
0.0034409
5.9878e-05
0.003311
7.8491e-05
0.003132
9.6023e-05
0.0028948
0.00011135
0.0026417
0.00012508
0.0022612
0.00013786
0.0019852
0.00014624
0.0015414
0.00015299
0.0011493
0.0001577
0.00071143
0.00030554
0.00016109
2.0054e-05
0.0035119
1.1583e-07
4.0247e-05
0.0034207
5.9882e-05
0.0032913
7.8496e-05
0.0031134
9.6031e-05
0.0028772
0.00011138
0.0026263
0.00012507
0.0022475
0.00013786
0.0019725
0.00014631
0.001533
0.00015306
0.0011426
0.00015776
0.00070673
0.00030217
0.00016112
2.0054e-05
0.0034917
1.1748e-07
4.0249e-05
0.0034005
5.9887e-05
0.0032717
7.8501e-05
0.0030947
9.604e-05
0.0028597
0.0001114
0.002611
0.00012506
0.0022338
0.00013786
0.0019597
0.00014637
0.0015244
0.00015313
0.0011358
0.00015781
0.00070204
0.00029884
0.00016115
2.0054e-05
0.0034716
1.1916e-07
4.0251e-05
0.0033803
5.9891e-05
0.0032521
7.8507e-05
0.0030761
9.6049e-05
0.0028422
0.00011143
0.0025956
0.00012506
0.0022202
0.00013785
0.0019469
0.00014643
0.0015159
0.00015319
0.001129
0.00015787
0.00069736
0.00029554
0.00016117
2.0054e-05
0.0034514
1.2084e-07
4.0253e-05
0.0033601
5.9895e-05
0.0032324
7.8512e-05
0.0030575
9.6057e-05
0.0028246
0.00011146
0.0025802
0.00012506
0.0022066
0.00013785
0.0019341
0.00014649
0.0015072
0.00015326
0.0011223
0.00015793
0.00069269
0.00029227
0.0001612
2.0054e-05
0.0034312
1.2253e-07
4.0255e-05
0.0033399
5.9899e-05
0.0032128
7.8518e-05
0.0030389
9.6066e-05
0.0028071
0.00011148
0.0025648
0.00012506
0.002193
0.00013785
0.0019213
0.00014654
0.0014985
0.00015333
0.0011155
0.00015799
0.00068803
0.00028903
0.00016123
2.0054e-05
0.003411
1.2424e-07
4.0257e-05
0.0033197
5.9904e-05
0.0031931
7.8523e-05
0.0030203
9.6074e-05
0.0027895
0.00011151
0.0025493
0.00012506
0.0021795
0.00013785
0.0019085
0.0001466
0.0014898
0.0001534
0.0011087
0.00015805
0.00068337
0.00028583
0.00016126
2.0054e-05
0.0033909
1.2596e-07
4.0259e-05
0.0032995
5.9908e-05
0.0031735
7.8529e-05
0.0030017
9.6082e-05
0.002772
0.00011154
0.0025339
0.00012506
0.0021659
0.00013784
0.0018957
0.00014665
0.001481
0.00015346
0.0011019
0.00015811
0.00067872
0.00028265
0.00016129
2.0055e-05
0.0033707
1.2769e-07
4.0261e-05
0.0032793
5.9912e-05
0.0031538
7.8535e-05
0.002983
9.6091e-05
0.0027544
0.00011157
0.0025184
0.00012507
0.0021525
0.00013784
0.0018829
0.0001467
0.0014721
0.00015353
0.001095
0.00015817
0.00067407
0.00027951
0.00016132
2.0055e-05
0.0033505
1.2943e-07
4.0263e-05
0.0032591
5.9917e-05
0.0031342
7.8541e-05
0.0029644
9.6099e-05
0.0027368
0.00011159
0.0025029
0.00012507
0.002139
0.00013784
0.0018702
0.00014674
0.0014632
0.00015359
0.0010882
0.00015823
0.00066942
0.0002764
0.00016135
2.0055e-05
0.0033303
1.3119e-07
4.0265e-05
0.0032389
5.9922e-05
0.0031145
7.8547e-05
0.0029458
9.6107e-05
0.0027193
0.00011162
0.0024874
0.00012508
0.0021255
0.00013784
0.0018574
0.00014679
0.0014543
0.00015365
0.0010813
0.00015829
0.00066478
0.00027331
0.00016138
2.0055e-05
0.0033101
1.3296e-07
4.0268e-05
0.0032187
5.9926e-05
0.0030949
7.8553e-05
0.0029272
9.6115e-05
0.0027017
0.00011165
0.0024719
0.00012509
0.0021121
0.00013783
0.0018447
0.00014683
0.0014453
0.00015371
0.0010744
0.00015835
0.00066014
0.00027026
0.00016141
2.0055e-05
0.0032899
1.3474e-07
4.027e-05
0.0031985
5.9931e-05
0.0030752
7.8559e-05
0.0029085
9.6124e-05
0.0026842
0.00011168
0.0024563
0.0001251
0.0020987
0.00013783
0.0018319
0.00014687
0.0014362
0.00015377
0.0010675
0.00015841
0.0006555
0.00026723
0.00016144
2.0055e-05
0.0032697
1.3654e-07
4.0272e-05
0.0031783
5.9936e-05
0.0030555
7.8565e-05
0.0028899
9.6132e-05
0.0026666
0.00011171
0.0024407
0.00012511
0.0020853
0.00013783
0.0018192
0.00014692
0.0014271
0.00015383
0.0010606
0.00015847
0.00065087
0.00026424
0.00016147
2.0055e-05
0.0032495
1.3835e-07
4.0274e-05
0.003158
5.9941e-05
0.0030359
7.8571e-05
0.0028713
9.614e-05
0.002649
0.00011173
0.0024251
0.00012512
0.0020719
0.00013783
0.0018065
0.00014695
0.001418
0.00015389
0.0010537
0.00015853
0.00064623
0.00026126
0.0001615
2.0056e-05
0.0032294
1.4018e-07
4.0277e-05
0.0031378
5.9945e-05
0.0030162
7.8577e-05
0.0028526
9.6148e-05
0.0026315
0.00011176
0.0024095
0.00012514
0.0020585
0.00013783
0.0017938
0.00014699
0.0014089
0.00015395
0.0010467
0.00015859
0.0006416
0.00025832
0.00016153
2.0056e-05
0.0032092
1.4202e-07
4.0279e-05
0.0031176
5.995e-05
0.0029965
7.8584e-05
0.002834
9.6156e-05
0.0026139
0.00011179
0.0023939
0.00012515
0.0020451
0.00013783
0.0017811
0.00014703
0.0013997
0.00015401
0.0010397
0.00015864
0.00063696
0.0002554
0.00016156
2.0056e-05
0.003189
1.4388e-07
4.0281e-05
0.0030974
5.9956e-05
0.0029769
7.859e-05
0.0028154
9.6164e-05
0.0025963
0.00011182
0.0023782
0.00012517
0.0020318
0.00013783
0.0017685
0.00014707
0.0013904
0.00015406
0.0010327
0.0001587
0.00063232
0.00025251
0.00016159
2.0056e-05
0.0031688
1.4575e-07
4.0284e-05
0.0030771
5.9961e-05
0.0029572
7.8597e-05
0.0027967
9.6173e-05
0.0025787
0.00011185
0.0023626
0.00012519
0.0020184
0.00013784
0.0017558
0.0001471
0.0013812
0.00015412
0.0010257
0.00015876
0.00062769
0.00024964
0.00016162
2.0056e-05
0.0031485
1.4763e-07
4.0286e-05
0.0030569
5.9966e-05
0.0029375
7.8604e-05
0.0027781
9.6181e-05
0.0025612
0.00011187
0.0023469
0.0001252
0.0020051
0.00013784
0.0017432
0.00014714
0.0013719
0.00015417
0.0010187
0.00015881
0.00062305
0.0002468
0.00016166
2.0057e-05
0.0031283
1.4954e-07
4.0289e-05
0.0030367
5.9971e-05
0.0029178
7.861e-05
0.0027595
9.6189e-05
0.0025436
0.0001119
0.0023312
0.00012522
0.0019918
0.00013784
0.0017306
0.00014717
0.0013625
0.00015423
0.0010116
0.00015887
0.00061841
0.00024398
0.00016169
2.0057e-05
0.0031081
1.5146e-07
4.0291e-05
0.0030164
5.9977e-05
0.0028981
7.8617e-05
0.0027408
9.6197e-05
0.002526
0.00011193
0.0023154
0.00012524
0.0019785
0.00013785
0.001718
0.0001472
0.0013532
0.00015428
0.0010045
0.00015892
0.00061377
0.00024119
0.00016172
2.0057e-05
0.0030879
1.534e-07
4.0294e-05
0.0029962
5.9982e-05
0.0028784
7.8624e-05
0.0027222
9.6205e-05
0.0025084
0.00011196
0.0022997
0.00012527
0.0019652
0.00013785
0.0017054
0.00014724
0.0013438
0.00015433
0.00099745
0.00015898
0.00060912
0.00023841
0.00016175
2.0057e-05
0.0030677
1.5535e-07
4.0296e-05
0.002976
5.9988e-05
0.0028587
7.8631e-05
0.0027035
9.6213e-05
0.0024908
0.00011199
0.0022839
0.00012529
0.0019519
0.00013786
0.0016928
0.00014727
0.0013344
0.00015439
0.00099033
0.00015903
0.00060448
0.00023566
0.00016178
2.0058e-05
0.0030475
1.5732e-07
4.0299e-05
0.0029557
5.9993e-05
0.0028391
7.8639e-05
0.0026849
9.6221e-05
0.0024733
0.00011201
0.0022681
0.00012531
0.0019386
0.00013787
0.0016802
0.0001473
0.001325
0.00015444
0.0009832
0.00015909
0.00059983
0.00023293
0.00016182
2.0058e-05
0.0030273
1.5931e-07
4.0301e-05
0.0029355
5.9999e-05
0.0028194
7.8646e-05
0.0026662
9.6229e-05
0.0024557
0.00011204
0.0022523
0.00012534
0.0019253
0.00013788
0.0016677
0.00014733
0.0013155
0.00015449
0.00097604
0.00015914
0.00059517
0.00023022
0.00016185
2.0058e-05
0.0030071
1.6132e-07
4.0304e-05
0.0029152
6.0005e-05
0.0027997
7.8653e-05
0.0026476
9.6236e-05
0.0024381
0.00011207
0.0022365
0.00012536
0.001912
0.00013788
0.0016552
0.00014736
0.001306
0.00015454
0.00096887
0.00015919
0.00059052
0.00022753
0.00016188
2.0058e-05
0.0029868
1.6335e-07
4.0306e-05
0.002895
6.0011e-05
0.0027799
7.8661e-05
0.0026289
9.6244e-05
0.0024205
0.0001121
0.0022206
0.00012539
0.0018987
0.0001379
0.0016427
0.0001474
0.0012965
0.00015459
0.00096168
0.00015925
0.00058586
0.00022487
0.00016191
2.0059e-05
0.0029666
1.6539e-07
4.0309e-05
0.0028747
6.0017e-05
0.0027602
7.8669e-05
0.0026103
9.6252e-05
0.0024029
0.00011212
0.0022047
0.00012542
0.0018854
0.00013791