/*--------------------------------*- C++ -*----------------------------------*\
  =========                 |
  \\      /  F ield         | OpenFOAM: The Open Source CFD Toolbox
   \\    /   O peration     | Website:  https://openfoam.org
    \\  /    A nd           | Version:  6.0
     \\/     M anipulation  |
\*---------------------------------------------------------------------------*/
FoamFile
{
    version     2.0;
    format      ascii;
    class       volVectorField;
    location    "3.78";
    object      U;
}
// * * * * * * * * * * * * * * * * * * * * * * * * * * * * * * * * * * * * * //

dimensions      [0 1 -1 0 0 0 0];

internalField   nonuniform List<vector> 
13500
(
(1 2.8884e-06 -4.2791e-18)
(1 -3.1594e-06 2.8989e-18)
(1 -5.7396e-06 -1.2451e-17)
(1 -1.0394e-05 -8.6279e-18)
(1 -9.5421e-06 1.6187e-17)
(1 -9.2669e-06 3.018e-17)
(1 -2.18e-06 2.5786e-17)
(0.99998 1.5087e-05 -4.1587e-18)
(0.99993 3.5584e-05 1.5261e-17)
(0.9998 7.4844e-05 3.2417e-18)
(0.99571 0.00075813 2.8616e-17)
(1.019 0.010844 7.7095e-18)
(1 8.8968e-06 2.651e-18)
(1 -8.2941e-06 -8.8038e-18)
(1 -1.4883e-05 5.9459e-18)
(1 -2.8244e-05 -3.4035e-19)
(1 -2.3997e-05 -4.3169e-19)
(1 -2.396e-05 -3.6289e-17)
(1 -1.8577e-07 -4.4537e-17)
(0.99993 4.9218e-05 -2.3795e-17)
(0.99976 0.0001192 -1.5231e-17)
(0.99982 0.00018681 -1.603e-18)
(0.98615 0.0021955 -1.3551e-17)
(1.0534 0.030659 -4.668e-18)
(1 1.4953e-05 -3.4241e-18)
(1 -1.3591e-05 1.7491e-17)
(1 -2.4169e-05 3.0927e-18)
(1 -4.655e-05 9.9478e-18)
(1 -3.8651e-05 -3.7326e-18)
(1 -3.9491e-05 2.9069e-17)
(1 2.0188e-06 -6.2691e-18)
(0.99989 8.2361e-05 5.4051e-18)
(0.99957 0.00021051 -1.8478e-17)
(1.0003 0.00031487 2.4354e-17)
(0.97592 0.003282 -7.0853e-18)
(1.082 0.045217 1.6365e-18)
(1 2.0994e-05 8.9514e-18)
(1 -1.9199e-05 -1.6958e-17)
(1 -3.3909e-05 -1.466e-17)
(1 -6.5631e-05 -6.98e-19)
(1 -5.4036e-05 5.7621e-18)
(1 -5.6015e-05 -8.0664e-19)
(1 3.7301e-06 6.1769e-17)
(0.99985 0.00011417 9.7383e-18)
(0.99934 0.00030852 2.185e-17)
(1.0013 0.00046308 -8.8215e-18)
(0.96544 0.0040437 3.4502e-17)
(1.1032 0.055792 -7.4488e-18)
(1 2.7038e-05 -6.2897e-18)
(1 -2.4845e-05 1.4656e-17)
(1 -4.3699e-05 1.248e-17)
(1 -8.4819e-05 1.2732e-17)
(1 -6.9491e-05 2.8253e-18)
(1.0001 -7.2682e-05 2.1366e-17)
(1 5.529e-06 -2.7583e-17)
(0.99983 0.00014502 1.978e-18)
(0.99907 0.00041228 -1.3397e-17)
(1.0026 0.00063346 -2.1049e-18)
(0.95508 0.004531 -8.9485e-18)
(1.1173 0.063515 2.0656e-18)
(0.99999 3.3088e-05 6.3652e-18)
(1 -3.0526e-05 -6.076e-18)
(1 -5.3543e-05 3.8113e-18)
(1 -0.0001041 -2.5221e-17)
(1.0001 -8.5027e-05 -8.2773e-20)
(1.0001 -8.9502e-05 -4.2298e-17)
(1 7.413e-06 1.0584e-18)
(0.99982 0.00017475 -1.5878e-17)
(0.99873 0.00052038 5.1018e-18)
(1.0044 0.00083265 -2.1208e-17)
(0.9452 0.0047859 -2.1543e-17)
(1.1247 0.068996 1.9961e-18)
(0.99999 3.9144e-05 -1.0536e-18)
(1 -3.6246e-05 -7.2669e-18)
(1 -6.344e-05 -3.0975e-18)
(1.0001 -0.0001235 1.9037e-17)
(1.0001 -0.00010063 -2.6168e-17)
(1.0001 -0.00010651 1.6185e-17)
(1 9.4271e-06 1.8449e-17)
(0.99982 0.00020325 5.5861e-18)
(0.99834 0.00063148 1.1405e-17)
(1.0064 0.001067 1.1417e-17)
(0.93608 0.0048461 9.2807e-18)
(1.1265 0.072662 3.2033e-18)
(0.99999 4.5208e-05 -2.1748e-18)
(1 -4.2008e-05 -1.4296e-18)
(1 -7.3392e-05 -2.6684e-17)
(1.0001 -0.00014303 -9.0903e-18)
(1.0001 -0.00011631 7.3243e-18)
(1.0001 -0.00012373 2.6524e-17)
(1 1.159e-05 1.1742e-17)
(0.99983 0.00023045 4.987e-18)
(0.99787 0.00074423 -7.4548e-18)
(1.0088 0.0013404 1.5991e-17)
(0.92797 0.0047479 7.4951e-18)
(1.1237 0.074873 -1.0185e-17)
(0.99999 5.1277e-05 -6.7513e-18)
(1 -4.7812e-05 6.146e-18)
(1 -8.3403e-05 4.4866e-17)
(1.0001 -0.00016268 -1.0904e-17)
(1.0001 -0.00013207 2.7428e-17)
(1.0001 -0.00014119 -5.2368e-17)
(1 1.3903e-05 -3.9116e-17)
(0.99986 0.00025631 9.6908e-18)
(0.99732 0.00085727 -5.599e-18)
(1.0114 0.0016543 -8.8198e-18)
(0.92101 0.004526 -1.3849e-17)
(1.1172 0.075934 1.3324e-17)
(0.99999 5.7353e-05 4.448e-18)
(1 -5.3661e-05 2.3134e-18)
(1 -9.3475e-05 -3.8005e-17)
(1.0001 -0.00018246 1.5518e-17)
(1.0001 -0.00014791 -1.1961e-17)
(1.0001 -0.00015888 2.2335e-17)
(1.0001 1.6369e-05 1.3901e-17)
(0.99991 0.00028079 2.4501e-18)
(0.99669 0.00096931 5.2873e-19)
(1.0141 0.0020081 1.3969e-18)
(0.91531 0.0042123 4.4058e-18)
(1.108 0.076099 -6.9858e-19)
(0.99998 6.3433e-05 -2.4421e-18)
(1 -5.9555e-05 -7.5873e-18)
(1 -0.00010361 9.316e-18)
(1.0001 -0.00020238 -2.7381e-18)
(1.0001 -0.00016385 1.8463e-18)
(1.0002 -0.00017683 -2.4479e-17)
(1.0001 1.8989e-05 -3.2016e-17)
(0.99997 0.0003039 -3.1116e-17)
(0.99597 0.0010791 1.565e-17)
(1.017 0.0024 1.8144e-18)
(0.91092 0.0038361 -1.1176e-17)
(1.0968 0.075574 -5.7401e-18)
(0.99998 6.9519e-05 3.3708e-18)
(0.99999 -6.5495e-05 2.8658e-18)
(1 -0.00011382 4.4898e-18)
(1.0001 -0.00022243 -2.1822e-18)
(1.0001 -0.00017989 -5.5346e-18)
(1.0002 -0.00019507 9.2583e-18)
(1.0001 2.1763e-05 1.8533e-17)
(1.0001 0.00032566 1.9223e-17)
(0.99517 0.0011856 1.0056e-17)
(1.0199 0.0028267 -2.2915e-17)
(0.90783 0.0034238 1.1712e-19)
(1.0844 0.074529 -6.6433e-18)
(0.99998 7.5609e-05 -3.3703e-18)
(0.99999 -7.1483e-05 5.6357e-18)
(1 -0.0001241 8.1403e-18)
(1.0001 -0.00024264 5.6978e-18)
(1.0001 -0.00019603 -5.1333e-18)
(1.0002 -0.0002136 4.5516e-18)
(1.0001 2.4689e-05 4.226e-18)
(1.0002 0.00034613 -1.7166e-18)
(0.99429 0.0012878 -1.6252e-17)
(1.0228 0.0032841 2.125e-17)
(0.90602 0.0029983 1.0419e-19)
(1.0714 0.073103 1.4233e-18)
(0.99997 8.1703e-05 5.1252e-18)
(0.99999 -7.752e-05 -4.3993e-18)
(1 -0.00013445 7.127e-19)
(1.0001 -0.00026299 -4.7534e-18)
(1.0002 -0.00021228 1.1658e-17)
(1.0002 -0.00023244 5.5538e-18)
(1.0001 2.7761e-05 1.7004e-17)
(1.0003 0.00036537 -6.3758e-18)
(0.99333 0.0013847 -1.9857e-19)
(1.0257 0.0037675 5.2179e-18)
(0.90542 0.0025795 1.6964e-17)
(1.0583 0.07141 9.0786e-19)
(0.99997 8.7801e-05 1.2362e-18)
(0.99999 -8.3607e-05 9.7637e-18)
(1 -0.00014488 1.3613e-17)
(1.0001 -0.0002835 -4.7395e-18)
(1.0002 -0.00022865 8.4418e-18)
(1.0002 -0.00025162 -2.5926e-18)
(1.0001 3.097e-05 -2.9781e-17)
(1.0005 0.00038348 2.0182e-17)
(0.99229 0.0014756 -1.8327e-17)
(1.0285 0.0042717 -3.0098e-17)
(0.90593 0.0021841 -3.7236e-18)
(1.0455 0.069542 8.4097e-19)
(0.99996 9.3901e-05 -3.1536e-18)
(0.99998 -8.9746e-05 -1.0384e-17)
(1 -0.0001554 -3.2673e-17)
(1.0001 -0.00030416 7.9848e-18)
(1.0002 -0.00024515 -1.281e-17)
(1.0003 -0.00027116 8.3132e-18)
(1.0001 3.4303e-05 -2.7864e-18)
(1.0007 0.00040057 -1.2149e-17)
(0.99118 0.0015597 4.0245e-18)
(1.0312 0.0047912 1.7973e-17)
(0.90746 0.0018255 -7.8163e-18)
(1.0333 0.067572 1.1672e-17)
(0.99996 0.0001 3.3184e-19)
(0.99998 -9.5937e-05 7.7662e-18)
(1 -0.000166 2.2558e-17)
(1.0001 -0.00032499 -1.7984e-18)
(1.0002 -0.00026178 -1.2727e-17)
(1.0003 -0.00029106 -1.5492e-17)
(1.0001 3.7744e-05 1.0644e-17)
(1.0009 0.00041676 6.9682e-18)
(0.99001 0.0016366 2.3258e-17)
(1.0337 0.0053208 -2.5161e-18)
(0.90989 0.0015142 1.9424e-18)
(1.022 0.06556 -4.657e-18)
(0.99995 0.00010611 -1.8617e-18)
(0.99998 -0.00010218 -9.4104e-18)
(1 -0.00017669 -1.0179e-17)
(1.0001 -0.000346 6.0098e-18)
(1.0002 -0.00027855 -7.1479e-18)
(1.0003 -0.00031135 -1.2427e-17)
(1.0001 4.1271e-05 1.0347e-17)
(1.0012 0.00043222 -4.727e-18)
(0.98878 0.0017057 -2.8782e-17)
(1.036 0.0058555 -1.4099e-17)
(0.9131 0.0012579 8.4317e-18)
(1.0117 0.063551 -5.0497e-18)
(0.99995 0.00011221 -2.6659e-18)
(0.99997 -0.00010848 -3.5569e-18)
(1 -0.00018747 -7.5437e-19)
(1.0001 -0.00036717 -2.6317e-17)
(1.0002 -0.00029546 5.9972e-18)
(1.0003 -0.00033205 5.4109e-18)
(1.0001 4.4858e-05 -1.9662e-17)
(1.0015 0.00044709 -1.614e-17)
(0.9875 0.0017666 4.2104e-18)
(1.0381 0.0063902 -1.058e-18)
(0.91698 0.0010616 -9.7363e-18)
(1.0024 0.061581 9.5512e-19)
(0.99994 0.00011831 3.4676e-18)
(0.99997 -0.00011484 1.6305e-17)
(1 -0.00019835 1.9425e-17)
(1.0001 -0.00038853 2.4779e-18)
(1.0002 -0.00031253 1.6579e-17)
(1.0003 -0.00035318 9.483e-18)
(1.0001 4.8475e-05 2.838e-18)
(1.0018 0.00046154 1.7666e-17)
(0.98619 0.001819 2.0915e-17)
(1.04 0.0069206 1.6835e-17)
(0.92141 0.00092812 7.2683e-18)
(0.99437 0.059676 1.133e-18)
(0.99994 0.00012442 -1.6528e-18)
(0.99997 -0.00012126 -3.9122e-18)
(1 -0.00020933 -2.0696e-17)
(1.0002 -0.00041008 -2.3473e-18)
(1.0002 -0.00032976 -1.2566e-17)
(1.0004 -0.00037475 -5.1314e-18)
(1 5.2086e-05 -1.8213e-18)
(1.0022 0.00047577 -1.5975e-17)
(0.98484 0.0018625 -1.9997e-17)
(1.0416 0.0074425 8.6274e-18)
(0.92626 0.00085824 5.0005e-19)
(0.9875 0.057855 6.5017e-19)
(0.99993 0.00013052 4.3812e-18)
(0.99996 -0.00012773 -5.1114e-18)
(1 -0.00022042 -1.9411e-17)
(1.0002 -0.00043182 4.4617e-17)
(1.0002 -0.00034715 1.8228e-17)
(1.0004 -0.00039678 -1.2557e-17)
(1 5.5652e-05 2.4486e-17)
(1.0026 0.00048995 2.1592e-17)
(0.98347 0.0018971 3.2447e-17)
(1.043 0.0079525 -3.1618e-17)
(0.93145 0.00085106 -1.3351e-17)
(0.9818 0.056133 1.7131e-19)
(0.99993 0.00013662 -3.2069e-18)
(0.99996 -0.00013427 -1.0258e-18)
(1 -0.00023161 3.314e-17)
(1.0002 -0.00045375 -3.3728e-17)
(1.0003 -0.00036473 -1.7546e-18)
(1.0004 -0.00041929 4.1605e-17)
(0.99997 5.9127e-05 7.5883e-18)
(1.0031 0.00050429 -3.3348e-18)
(0.98208 0.0019226 -2.0122e-17)
(1.0441 0.0084472 3.7258e-17)
(0.93687 0.00090428 -5.6577e-18)
(0.97723 0.054516 -2.7248e-19)
(0.99992 0.00014272 -1.6349e-18)
(0.99995 -0.00014086 -2.044e-18)
(1 -0.00024292 1.7261e-18)
(1.0002 -0.00047589 3.509e-17)
(1.0003 -0.00038248 -9.8934e-18)
(1.0005 -0.0004423 -3.0753e-17)
(0.99993 6.246e-05 -1.9348e-17)
(1.0036 0.00051899 -3.5911e-18)
(0.9807 0.0019389 6.3625e-18)
(1.0449 0.008924 -3.1428e-17)
(0.94243 0.0010145 9.4753e-18)
(0.97372 0.05301 2.9522e-18)
(0.99991 0.00014881 2.7018e-18)
(0.99994 -0.00014753 1.4226e-17)
(1 -0.00025435 -1.2728e-17)
(1.0002 -0.00049824 -3.6737e-18)
(1.0003 -0.00040043 -1.8988e-17)
(1.0005 -0.00046581 3.3459e-17)
(0.99987 6.5595e-05 -1.6984e-17)
(1.0041 0.00053426 1.489e-17)
(0.97933 0.0019459 -1.9608e-18)
(1.0454 0.0093805 2.9463e-17)
(0.94804 0.0011774 -9.2495e-18)
(0.9712 0.051614 -4.9261e-18)
(0.9999 0.0001549 -5.182e-19)
(0.99994 -0.00015426 -8.182e-18)
(1 -0.0002659 -1.7823e-17)
(1.0002 -0.0005208 -1.0068e-17)
(1.0003 -0.00041858 1.8417e-17)
(1.0005 -0.00048986 -4.2667e-17)
(0.99981 6.8472e-05 -2.6206e-18)
(1.0047 0.00055028 -2.0117e-17)
(0.97798 0.0019437 3.1669e-18)
(1.0457 0.0098149 -8.4978e-18)
(0.95364 0.0013882 9.8451e-18)
(0.96957 0.050328 2.0892e-18)
(0.9999 0.00016099 2.7148e-18)
(0.99993 -0.00016105 -8.7648e-18)
(1 -0.00027757 -1.7613e-18)
(1.0002 -0.00054358 2.4469e-18)
(1.0003 -0.00043694 5.8291e-18)
(1.0006 -0.00051444 1.2329e-17)
(0.99974 7.1025e-05 4.2966e-17)
(1.0053 0.00056728 2.4044e-18)
(0.97665 0.0019322 5.1598e-18)
(1.0457 0.010226 9.3644e-18)
(0.95916 0.0016416 -8.4227e-18)
(0.96875 0.049148 1.6038e-18)
(0.99989 0.00016707 -1.5567e-18)
(0.99993 -0.00016792 8.7568e-18)
(1 -0.00028937 2.5335e-17)
(1.0002 -0.00056659 -2.4651e-17)
(1.0003 -0.00045552 -9.0675e-18)
(1.0006 -0.00053958 -2.17e-18)
(0.99965 7.3182e-05 -1.4162e-17)
(1.0059 0.00058544 1.8655e-18)
(0.97537 0.0019117 -8.941e-18)
(1.0455 0.010612 -3.4424e-18)
(0.96455 0.001932 -2.3952e-19)
(0.96865 0.048068 -1.9601e-18)
(0.99988 0.00017315 -1.6732e-18)
(0.99992 -0.00017485 5.2417e-18)
(1 -0.00030131 -6.1256e-19)
(1.0002 -0.00058984 8.1741e-18)
(1.0003 -0.00047433 -1.6731e-17)
(1.0006 -0.00056529 2.455e-17)
(0.99956 7.4867e-05 7.0638e-18)
(1.0066 0.00060496 -1.7797e-17)
(0.97413 0.0018822 -1.1463e-17)
(1.045 0.010972 -1.3626e-17)
(0.96975 0.0022538 1.3341e-18)
(0.96915 0.047083 -3.59e-18)
(0.99987 0.00017922 5.8146e-19)
(0.99991 -0.00018186 -1.2518e-17)
(1 -0.00031339 1.569e-17)
(1.0002 -0.00061332 2.261e-17)
(1.0003 -0.00049337 3.2794e-17)
(1.0007 -0.00059157 -1.803e-17)
(0.99945 7.6e-05 -1.7562e-17)
(1.0073 0.00062602 3.6111e-18)
(0.97295 0.001844 1.0741e-17)
(1.0443 0.011306 1.0665e-17)
(0.97472 0.0026015 6.2157e-18)
(0.97018 0.046186 3.5681e-18)
(0.99986 0.00018528 1.1144e-18)
(0.9999 -0.00018894 9.9549e-18)
(1 -0.00032561 -3.6048e-17)
(1.0002 -0.00063704 -3.2756e-18)
(1.0003 -0.00051266 -2.7243e-17)
(1.0007 -0.00061845 -1.1359e-17)
(0.99933 7.6493e-05 2.4721e-20)
(1.008 0.0006488 -4.1316e-18)
(0.97185 0.0017971 -2.1159e-17)
(1.0434 0.011613 -1.7028e-17)
(0.97944 0.0029698 -8.491e-18)
(0.97164 0.04537 -1.7576e-18)
(0.99985 0.00019134 -7.2226e-19)
(0.9999 -0.0001961 -6.4744e-18)
(1 -0.00033798 2.8364e-17)
(1.0002 -0.00066102 -3.1261e-17)
(1.0003 -0.00053221 -2.0496e-18)
(1.0008 -0.00064592 2.4188e-17)
(0.99919 7.6257e-05 7.0269e-19)
(1.0087 0.00067347 3.9394e-18)
(0.97081 0.0017419 1.8523e-17)
(1.0422 0.011893 2.2134e-17)
(0.98388 0.0033532 4.8572e-18)
(0.97345 0.044627 -9.8121e-19)
(0.99984 0.00019739 -1.8804e-18)
(0.99989 -0.00020334 -2.3878e-18)
(0.99999 -0.00035051 -1.2574e-17)
(1.0002 -0.00068525 1.5574e-17)
(1.0003 -0.00055203 2.9942e-17)
(1.0008 -0.00067401 -1.0691e-17)
(0.99904 7.5195e-05 2.1872e-17)
(1.0095 0.00070017 2.9529e-18)
(0.96986 0.0016786 -2.0979e-18)
(1.0409 0.012147 1.0013e-17)
(0.98802 0.0037471 -5.4295e-18)
(0.97554 0.04395 -6.8321e-19)
(0.99983 0.00020343 4.7026e-19)
(0.99988 -0.00021065 -6.3149e-18)
(0.99999 -0.00036319 4.7076e-18)
(1.0002 -0.00070975 -1.5873e-17)
(1.0004 -0.00057213 -3.1672e-17)
(1.0009 -0.00070271 6.7378e-18)
(0.99888 7.3206e-05 -3.1554e-17)
(1.0103 0.00072905 -6.7525e-18)
(0.969 0.0016077 6.8056e-18)
(1.0394 0.012374 -3.1427e-17)
(0.99184 0.0041466 3.7168e-18)
(0.97781 0.043331 1.9307e-18)
(0.99982 0.00020946 8.259e-19)
(0.99987 -0.00021805 1.7109e-17)
(0.99998 -0.00037604 7.8828e-18)
(1.0002 -0.00073452 6.4654e-18)
(1.0004 -0.00059252 2.5326e-17)
(1.0009 -0.00073202 2.0094e-18)
(0.9987 7.0184e-05 2.1789e-17)
(1.0111 0.00076024 4.8429e-18)
(0.96823 0.0015293 -2.0683e-17)
(1.0377 0.012576 1.082e-17)
(0.99533 0.0045476 2.5137e-18)
(0.98023 0.042764 2.0011e-18)
(0.99981 0.00021549 -2.8841e-18)
(0.99986 -0.00022554 -5.6317e-18)
(0.99998 -0.00038906 -6.925e-18)
(1.0002 -0.00075956 1.0619e-17)
(1.0004 -0.00061322 1.2236e-17)
(1.001 -0.00076196 -4.0007e-18)
(0.99851 6.602e-05 -1.8302e-17)
(1.012 0.00079385 2.2052e-17)
(0.96757 0.001444 3.8307e-18)
(1.0359 0.012751 -3.2686e-18)
(0.9985 0.0049462 1.0399e-17)
(0.98272 0.042241 -1.3905e-18)
(0.9998 0.0002215 5.9264e-18)
(0.99985 -0.0002331 6.7448e-18)
(0.99997 -0.00040225 -7.3619e-18)
(1.0002 -0.00078489 -6.6156e-18)
(1.0004 -0.00063423 -1.7558e-17)
(1.0011 -0.00079253 -6.8726e-18)
(0.9983 6.0598e-05 9.0236e-18)
(1.0128 0.00082996 -3.5372e-17)
(0.96702 0.0013521 9.3756e-18)
(1.034 0.012901 -3.8638e-18)
(1.0013 0.0053387 -1.1012e-17)
(0.98523 0.041757 4.0375e-18)
(0.99978 0.0002275 -2.6156e-18)
(0.99984 -0.00024076 -1.1851e-17)
(0.99996 -0.00041562 -7.1357e-18)
(1.0002 -0.0008105 -1.2555e-17)
(1.0004 -0.00065557 -5.3614e-18)
(1.0012 -0.00082371 2.0209e-17)
(0.99808 5.3796e-05 -8.8642e-18)
(1.0137 0.00086868 3.935e-17)
(0.96657 0.0012541 8.8399e-18)
(1.032 0.013027 1.1725e-17)
(1.0038 0.0057221 4.6415e-18)
(0.98772 0.041304 -6.5467e-18)
(0.99977 0.00023349 -1.3875e-18)
(0.99983 -0.00024851 8.8135e-18)
(0.99996 -0.00042917 1.4138e-17)
(1.0002 -0.00083641 3.385e-17)
(1.0004 -0.00067725 7.1066e-18)
(1.0012 -0.00085552 -1.3862e-17)
(0.99784 4.549e-05 4.2777e-18)
(1.0145 0.00091005 -4.2335e-17)
(0.96624 0.0011504 -1.0722e-17)
(1.0299 0.013128 -6.5194e-18)
(1.006 0.0060935 4.5534e-18)
(0.99016 0.040879 6.5818e-18)
(0.99976 0.00023947 1.0619e-18)
(0.99982 -0.00025635 2.0867e-18)
(0.99995 -0.00044291 -1.3886e-17)
(1.0003 -0.00086263 -5.6381e-18)
(1.0004 -0.00069929 9.024e-18)
(1.0013 -0.00088794 1.6594e-17)
(0.99758 3.5549e-05 1.4875e-17)
(1.0154 0.00095414 4.19e-18)
(0.96603 0.0010417 1.1995e-17)
(1.0278 0.013207 -3.021e-18)
(1.0079 0.0064503 -8.1287e-18)
(0.9925 0.040475 -1.6975e-18)
(0.99975 0.00024544 -4.3487e-20)
(0.99981 -0.00026428 2.3783e-18)
(0.99994 -0.00045685 3.1032e-18)
(1.0003 -0.00088915 -7.3203e-18)
(1.0004 -0.0007217 8.4341e-20)
(1.0014 -0.00092097 -1.5045e-17)
(0.99731 2.3836e-05 -1.0061e-17)
(1.0162 0.001001 3.1003e-17)
(0.96593 0.00092844 -1.8127e-17)
(1.0256 0.013263 1.1731e-17)
(1.0095 0.0067906 4.2928e-18)
(0.99473 0.040088 -4.7923e-18)
(0.99973 0.00025139 -3.2895e-18)
(0.9998 -0.00027231 -1.1153e-17)
(0.99993 -0.000471 7.9237e-18)
(1.0003 -0.00091599 -1.9995e-17)
(1.0004 -0.00074451 -2.2823e-17)
(1.0015 -0.0009546 -2.0788e-17)
(0.99703 1.021e-05 -2.0505e-17)
(1.0171 0.0010506 -3.1749e-18)
(0.96596 0.00081115 1.5842e-17)
(1.0234 0.013298 -1.0063e-17)
(1.0108 0.0071123 4.2639e-19)
(0.99683 0.039713 4.5132e-18)
(0.99972 0.00025733 6.3492e-18)
(0.99979 -0.00028044 1.1657e-17)
(0.99992 -0.00048535 -1.2779e-17)
(1.0003 -0.00094314 1.6416e-17)
(1.0004 -0.00076772 -2.677e-18)
(1.0016 -0.0009888 1.3626e-17)
(0.99673 -5.4776e-06 2.4647e-17)
(1.0179 0.0011029 -2.405e-17)
(0.9661 0.00069044 -8.0329e-18)
(1.0211 0.013312 1.0626e-17)
(1.0118 0.007414 3.7096e-18)
(0.99877 0.039348 -2.1348e-18)
(0.9997 0.00026326 -4.7643e-18)
(0.99977 -0.00028867 -3.4449e-18)
(0.99992 -0.00049991 -2.6726e-18)
(1.0003 -0.00097063 1.8785e-17)
(1.0004 -0.00079135 -5.7308e-18)
(1.0017 -0.0010236 -1.7291e-19)
(0.99642 -2.3379e-05 -4.8229e-18)
(1.0188 0.0011581 1.9265e-17)
(0.96636 0.00056691 -7.6272e-18)
(1.0189 0.013307 -7.2968e-18)
(1.0126 0.0076945 -1.0966e-17)
(1.0006 0.038988 2.4806e-18)
(0.99969 0.00026917 3.2388e-18)
(0.99976 -0.00029701 -4.3684e-18)
(0.99991 -0.0005147 6.1172e-18)
(1.0003 -0.00099845 -2.8503e-17)
(1.0004 -0.00081543 3.8821e-17)
(1.0018 -0.0010589 5.6465e-18)
(0.99609 -4.3652e-05 1.9028e-17)
(1.0196 0.001216 -1.1921e-17)
(0.96674 0.00044116 1.0034e-19)
(1.0168 0.013282 5.4262e-18)
(1.0131 0.0079527 -2.1327e-18)
(1.0022 0.03863 -9.3337e-19)
(0.99967 0.00027507 -9.2651e-19)
(0.99975 -0.00030545 8.54e-19)
(0.9999 -0.00052971 1.4907e-17)
(1.0003 -0.0010266 7.7706e-18)
(1.0004 -0.00083997 -1.9409e-17)
(1.002 -0.0010947 -1.1061e-17)
(0.99575 -6.6464e-05 3.322e-18)
(1.0204 0.0012765 -5.7958e-18)
(0.96724 0.0003138 1.2762e-17)
(1.0146 0.01324 -3.5621e-18)
(1.0134 0.008188 1.0266e-17)
(1.0036 0.038273 -3.4053e-18)
(0.99966 0.00028094 -1.6129e-18)
(0.99973 -0.000314 -8.2324e-18)
(0.99989 -0.00054495 -4.4319e-18)
(1.0003 -0.0010551 3.1209e-17)
(1.0004 -0.00086499 -1.7293e-17)
(1.0021 -0.0011311 -9.3776e-19)
(0.99539 -9.1984e-05 -4.9684e-17)
(1.0211 0.0013398 5.6968e-18)
(0.96784 0.00018548 -2.3866e-17)
(1.0125 0.01318 -7.6926e-18)
(1.0136 0.0083997 -1.0265e-17)
(1.0049 0.037913 2.0219e-18)
(0.99964 0.00028681 -6.964e-19)
(0.99972 -0.00032266 5.1003e-18)
(0.99988 -0.00056043 -1.8295e-18)
(1.0003 -0.001084 -1.8171e-17)
(1.0004 -0.00089052 2.4851e-17)
(1.0022 -0.0011679 -2.3044e-18)
(0.99503 -0.00012039 2.6317e-17)
(1.0219 0.0014056 -3.5025e-18)
(0.96855 5.6803e-05 1.1587e-17)
(1.0105 0.013104 9.621e-18)
(1.0135 0.0085875 8.4671e-18)
(1.006 0.037548 -4.8873e-19)
(0.99962 0.00029265 3.9475e-18)
(0.9997 -0.00033143 -3.0521e-18)
(0.99986 -0.00057616 -6.4014e-18)
(1.0003 -0.0011132 1.9836e-17)
(1.0004 -0.00091659 1.8243e-18)
(1.0024 -0.0012051 2.856e-17)
(0.99465 -0.00015186 4.5396e-18)
(1.0226 0.001474 1.6733e-17)
(0.96937 -7.16e-05 4.3469e-18)
(1.0086 0.013013 -3.1129e-18)
(1.0133 0.0087514 1.1014e-18)
(1.0069 0.037178 4.4244e-19)
(0.99961 0.00029848 1.1258e-18)
(0.99969 -0.00034032 1.2476e-18)
(0.99985 -0.00059214 -5.8054e-18)
(1.0003 -0.0011428 -3.9503e-17)
(1.0004 -0.0009432 5.5241e-18)
(1.0025 -0.0012427 2.4789e-18)
(0.99427 -0.00018659 -1.9684e-17)
(1.0233 0.0015447 2.3546e-19)
(0.97029 -0.00019912 1.2811e-17)
(1.0068 0.012907 -2.0014e-18)
(1.013 0.0088913 -5.3624e-18)
(1.0077 0.036801 2.6071e-18)
(0.99959 0.00030429 -4.8204e-18)
(0.99967 -0.00034933 5.2893e-18)
(0.99984 -0.00060839 9.566e-19)
(1.0003 -0.0011727 2.1938e-17)
(1.0003 -0.00097041 -2.5199e-17)
(1.0027 -0.0012806 -1.0941e-17)
(0.99387 -0.00022477 2.0132e-17)
(1.0239 0.0016178 -1.1334e-17)
(0.9713 -0.00032514 -2.0255e-17)
(1.005 0.012788 -9.8892e-18)
(1.0126 0.0090076 6.8291e-18)
(1.0083 0.036415 8.6848e-19)
(0.99957 0.00031007 -5.1021e-19)
(0.99966 -0.00035845 -5.3229e-18)
(0.99983 -0.0006249 1.0193e-17)
(1.0003 -0.0012031 9.7288e-18)
(1.0003 -0.00099822 3.1125e-17)
(1.0028 -0.0013188 4.2051e-18)
(0.99347 -0.00026659 1.7881e-17)
(1.0245 0.0016932 2.8737e-17)
(0.97239 -0.00044908 -8.9657e-19)
(1.0034 0.012656 1.7394e-17)
(1.0121 0.0091005 -7.2272e-19)
(1.0088 0.03602 -2.5362e-18)
(0.99955 0.00031584 4.9447e-18)
(0.99964 -0.00036771 -7.7505e-18)
(0.99982 -0.00064168 -1.5473e-17)
(1.0003 -0.0012338 -2.5843e-18)
(1.0003 -0.0010267 -3.3783e-17)
(1.003 -0.0013573 -1.251e-17)
(0.99306 -0.00031227 -6.2072e-18)
(1.0251 0.0017706 2.1572e-19)
(0.97357 -0.00057035 2.6364e-17)
(1.0019 0.012513 4.0081e-18)
(1.0115 0.0091705 -9.3709e-18)
(1.0091 0.035615 1.5203e-18)
(0.99953 0.00032159 -5.5438e-18)
(0.99962 -0.00037708 9.6814e-18)
(0.9998 -0.00065875 8.0992e-18)
(1.0003 -0.0012649 -5.1517e-18)
(1.0003 -0.0010558 2.7169e-17)
(1.0032 -0.0013959 1.4969e-17)
(0.99265 -0.000362 -4.9066e-18)
(1.0256 0.0018499 -2.8961e-17)
(0.97482 -0.00068843 -8.9548e-19)
(1.0005 0.012359 -1.1454e-17)
(1.0108 0.0092182 1.1093e-17)
(1.0094 0.0352 -1.9918e-18)
(0.99951 0.00032731 3.3314e-18)
(0.99961 -0.00038659 -1.8529e-18)
(0.99979 -0.00067611 1.0726e-17)
(1.0003 -0.0012964 -2.1681e-17)
(1.0003 -0.0010856 8.8731e-18)
(1.0034 -0.0014347 -5.3764e-18)
(0.99223 -0.00041599 -1.0571e-17)
(1.026 0.0019311 -2.3254e-18)
(0.97614 -0.00080276 -3.1824e-17)
(0.99924 0.012196 7.5561e-18)
(1.0101 0.0092444 -1.0157e-17)
(1.0095 0.034774 6.6407e-19)
(0.99949 0.00033302 2.6349e-19)
(0.99959 -0.00039623 -5.8292e-18)
(0.99977 -0.00069377 6.0918e-18)
(1.0003 -0.0013283 2.8538e-17)
(1.0002 -0.0011162 -2.1132e-17)
(1.0036 -0.0014735 1.7303e-17)
(0.99181 -0.00047445 -6.1118e-18)
(1.0264 0.0020138 5.3834e-18)
(0.97752 -0.00091287 3.7811e-17)
(0.99811 0.012024 -1.4027e-17)
(1.0094 0.0092498 1.5524e-17)
(1.0096 0.034338 1.8787e-18)
(0.99947 0.00033869 4.7292e-19)
(0.99957 -0.000406 -1.2071e-18)
(0.99976 -0.00071174 -8.763e-18)
(1.0003 -0.0013606 -4.2951e-18)
(1.0002 -0.0011476 1.842e-17)
(1.0038 -0.0015122 1.4055e-19)
(0.99139 -0.0005376 -1.2013e-17)
(1.0268 0.0020981 -1.2855e-17)
(0.97895 -0.0010183 -1.5829e-17)
(0.99712 0.011844 -1.3241e-18)
(1.0087 0.0092354 2.8414e-18)
(1.0096 0.033892 1.9614e-19)
(0.99945 0.00034435 -7.6083e-19)
(0.99955 -0.00041591 1.4357e-17)
(0.99974 -0.00073002 -5.8455e-18)
(1.0003 -0.0013933 -2.4282e-17)
(1.0002 -0.0011798 8.4935e-18)
(1.004 -0.0015508 -4.4088e-17)
(0.99097 -0.00060563 5.9926e-18)
(1.0271 0.0021835 8.0931e-18)
(0.98043 -0.0011186 7.352e-19)
(0.99626 0.011658 1.4246e-17)
(1.0079 0.0092022 -9.5013e-19)
(1.0095 0.033435 -5.248e-18)
(0.99943 0.00034998 -2.0085e-19)
(0.99953 -0.00042596 -2.8155e-19)
(0.99973 -0.00074862 7.8699e-18)
(1.0003 -0.0014264 1.4992e-17)
(1.0002 -0.0012128 -3.3744e-17)
(1.0042 -0.0015893 1.9031e-18)
(0.99055 -0.00067877 1.0733e-17)
(1.0273 0.00227 1.2678e-17)
(0.98194 -0.0012134 -1.0015e-17)
(0.99554 0.011466 -1.387e-17)
(1.0072 0.0091511 -1.5396e-17)
(1.0093 0.032968 5.5408e-18)
(0.9994 0.00035558 -1.3147e-18)
(0.99951 -0.00043616 4.0152e-19)
(0.99971 -0.00076756 -3.7944e-18)
(1.0003 -0.00146 -1.0011e-17)
(1.0001 -0.0012467 1.8707e-17)
(1.0045 -0.0016274 2.3669e-17)
(0.99014 -0.00075721 3.1299e-18)
(1.0275 0.0023573 6.4258e-18)
(0.98348 -0.0013023 1.5973e-17)
(0.99495 0.011269 2.3345e-18)
(1.0065 0.0090833 1.1382e-17)
(1.0092 0.032493 -3.3631e-18)
(0.99938 0.00036116 2.42e-18)
(0.99949 -0.0004465 7.4016e-19)
(0.99969 -0.00078683 -5.4235e-18)
(1.0003 -0.001494 1.4787e-18)
(1.0001 -0.0012816 -1.0143e-17)
(1.0047 -0.0016652 -5.6775e-18)
(0.98973 -0.00084114 -1.1569e-18)
(1.0277 0.0024451 -2.9017e-17)
(0.98505 -0.0013851 3.1365e-18)
(0.99448 0.011069 -4.7324e-18)
(1.0059 0.0089999 -4.6295e-18)
(1.009 0.032008 -4.0525e-18)
(0.99935 0.00036671 -4.9391e-18)
(0.99947 -0.00045698 9.6704e-19)
(0.99968 -0.00080646 2.8768e-18)
(1.0003 -0.0015284 -1.8587e-17)
(1 -0.0013175 -1.1565e-17)
(1.0049 -0.0017025 -2.6365e-17)
(0.98933 -0.00093075 5.5824e-18)
(1.0277 0.0025331 1.1848e-17)
(0.98662 -0.0014615 -3.3633e-17)
(0.99415 0.010865 2.1822e-17)
(1.0053 0.008902 -5.0057e-18)
(1.0088 0.031515 2.6138e-18)
(0.99933 0.00037223 4.5341e-18)
(0.99945 -0.00046763 2.164e-18)
(0.99966 -0.00082645 1.1065e-18)
(1.0003 -0.0015632 5.8939e-18)
(1 -0.0013545 -2.5553e-18)
(1.0052 -0.0017392 5.1104e-17)
(0.98895 -0.0010262 2.0042e-17)
(1.0277 0.0026211 -1.8435e-17)
(0.9882 -0.0015312 3.2372e-17)
(0.99394 0.01066 -8.1417e-18)
(1.0048 0.008791 -3.301e-18)
(1.0085 0.031015 -1.3033e-18)
(0.9993 0.00037773 1.1124e-18)
(0.99943 -0.00047842 -1.3701e-17)
(0.99964 -0.0008468 2.2148e-18)
(1.0003 -0.0015984 2.6477e-17)
(0.99995 -0.0013926 1.977e-17)
(1.0054 -0.0017752 -8.2245e-19)
(0.98857 -0.0011277 -2.7767e-17)
(1.0277 0.0027088 5.5787e-18)
(0.98978 -0.0015943 -7.3015e-18)
(0.99384 0.010454 -1.1268e-17)
(1.0043 0.008668 8.3977e-18)
(1.0083 0.030509 1.2154e-18)
(0.99928 0.00038319 -4.3995e-18)
(0.9994 -0.00048938 -4.5685e-18)
(0.99962 -0.00086754 -1.1998e-17)
(1.0003 -0.0016341 -2.2207e-17)
(0.9999 -0.0014318 -1.9895e-17)
(1.0057 -0.0018105 -2.3226e-17)
(0.9882 -0.0012354 5.1272e-18)
(1.0276 0.0027958 4.3403e-17)
(0.99135 -0.0016504 3.1827e-18)
(0.99386 0.010248 -9.8411e-19)
(1.0039 0.0085343 -2.965e-18)
(1.0081 0.029997 -3.2644e-18)
(0.99925 0.00038862 3.2649e-18)
(0.99938 -0.0005005 4.243e-18)
(0.9996 -0.00088867 1.849e-17)
(1.0003 -0.0016703 1.5381e-17)
(0.99985 -0.0014722 1.9357e-17)
(1.006 -0.0018449 -8.6306e-19)
(0.98785 -0.0013494 -2.8566e-17)
(1.0274 0.0028817 -2.3462e-17)
(0.9929 -0.0016997 7.9006e-18)
(0.99399 0.010042 3.9e-18)
(1.0035 0.008391 6.6842e-18)
(1.0079 0.029479 2.523e-18)
(0.99922 0.00039402 -2.3059e-18)
(0.99935 -0.00051178 6.6573e-18)
(0.99958 -0.00091019 -1.2235e-17)
(1.0003 -0.0017068 2.2268e-18)
(0.99979 -0.001514 9.0015e-18)
(1.0063 -0.0018783 -2.2708e-18)
(0.98752 -0.0014698 6.4141e-18)
(1.0272 0.0029662 6.5167e-18)
(0.99443 -0.001742 2.6017e-18)
(0.99421 0.0098386 9.6406e-18)
(1.0033 0.0082395 -8.0389e-18)
(1.0077 0.028958 5.0987e-19)
(0.9992 0.00039939 3.4818e-18)
(0.99933 -0.00052323 4.1265e-19)
(0.99955 -0.00093213 -5.728e-18)
(1.0003 -0.0017438 8.8688e-19)
(0.99972 -0.0015571 -1.4779e-18)
(1.0065 -0.0019105 -2.2439e-17)
(0.98721 -0.0015967 1.7907e-17)
(1.0269 0.0030489 2.3134e-17)
(0.99594 -0.0017776 -1.2946e-17)
(0.99453 0.0096372 -1.3415e-17)
(1.0031 0.0080809 -2.35e-18)
(1.0075 0.028434 4.3383e-18)
(0.99917 0.00040473 -2.5293e-18)
(0.9993 -0.00053485 -3.1779e-19)
(0.99953 -0.00095449 7.1213e-18)
(1.0004 -0.0017813 -1.7025e-17)
(0.99966 -0.0016016 -1.3372e-17)
(1.0068 -0.0019416 2.833e-17)
(0.98691 -0.0017302 -2.7385e-18)
(1.0266 0.0031294 -2.4493e-17)
(0.9974 -0.0018065 3.299e-18)
(0.99493 0.009439 1.263e-17)
(1.0029 0.0079165 7.9651e-18)
(1.0074 0.027908 -1.5642e-18)
(0.99914 0.00041003 2.5138e-19)
(0.99928 -0.00054665 2.3281e-18)
(0.99951 -0.00097728 3.8917e-18)
(1.0004 -0.0018192 8.8016e-18)
(0.99959 -0.0016475 2.6214e-17)
(1.0071 -0.0019714 6.6071e-18)
(0.98664 -0.0018703 -2.3844e-17)
(1.0262 0.0032071 2.2968e-18)
(0.99883 -0.0018289 8.4996e-18)
(0.99541 0.0092446 -1.138e-17)
(1.0029 0.0077473 -5.3855e-18)
(1.0073 0.02738 -1.8097e-18)
(0.99911 0.0004153 7.1382e-19)
(0.99925 -0.00055863 -4.0482e-19)
(0.99948 -0.0010005 -1.027e-17)
(1.0004 -0.0018576 -1.894e-19)
(0.99951 -0.001695 -5.1831e-17)
(1.0074 -0.0019997 8.1475e-18)
(0.98639 -0.002017 2.3423e-17)
(1.0258 0.0032817 -6.5973e-18)
(1.0002 -0.001845 -8.9e-18)
(0.99596 0.0090546 1.8897e-17)
(1.0029 0.0075745 6.4435e-18)
(1.0073 0.026852 4.6899e-18)
(0.99908 0.00042053 7.669e-19)
(0.99922 -0.00057079 -8.4032e-19)
(0.99946 -0.0010242 1.8574e-17)
(1.0004 -0.0018963 4.0605e-18)
(0.99944 -0.0017442 4.5935e-17)
(1.0077 -0.0020266 -2.871e-17)
(0.98616 -0.0021703 -7.8436e-18)
(1.0254 0.0033528 6.2115e-18)
(1.0015 -0.0018551 3.0678e-18)
(0.99657 0.0088696 -1.0632e-17)
(1.0029 0.0073992 -1.0432e-18)
(1.0073 0.026325 -3.4582e-18)
(0.99904 0.00042572 -2.9969e-18)
(0.99919 -0.00058314 1.4113e-18)
(0.99943 -0.0010484 -1.0917e-17)
(1.0004 -0.0019356 5.3401e-18)
(0.99936 -0.001795 -1.7454e-17)
(1.008 -0.0020519 3.8935e-18)
(0.98596 -0.0023302 3.1406e-17)
(1.0249 0.0034197 -2.3252e-17)
(1.0028 -0.0018597 -1.1275e-17)
(0.99723 0.0086901 -1.0518e-17)
(1.0031 0.0072223 -5.1238e-18)
(1.0073 0.025799 -9.4974e-19)
(0.99901 0.00043088 3.7333e-18)
(0.99917 -0.00059568 -3.3517e-18)
(0.9994 -0.001073 -1.0596e-17)
(1.0004 -0.0019753 -8.515e-18)
(0.99927 -0.0018476 -2.8542e-17)
(1.0083 -0.0020754 -1.8063e-17)
(0.98579 -0.0024966 -1.9256e-17)
(1.0243 0.003482 2.1622e-17)
(1.004 -0.001859 1.0932e-17)
(0.99794 0.0085164 1.5928e-17)
(1.0033 0.0070448 -2.0056e-18)
(1.0074 0.025276 4.584e-18)
(0.99898 0.000436 -6.0006e-18)
(0.99914 -0.00060841 5.4312e-18)
(0.99938 -0.0010981 2.5947e-17)
(1.0004 -0.0020154 -2.0088e-18)
(0.99918 -0.001902 3.158e-17)
(1.0086 -0.0020973 1.3603e-18)
(0.98564 -0.0026693 -1.8444e-17)
(1.0237 0.0035393 8.4664e-18)
(1.0052 -0.0018536 -3.9424e-18)
(0.99869 0.008349 -3.3353e-18)
(1.0036 0.0068676 6.5069e-18)
(1.0075 0.024755 -3.1e-18)
(0.99894 0.00044108 4.9177e-18)
(0.99911 -0.00062135 -7.3815e-18)
(0.99935 -0.0011237 -3.0254e-17)
(1.0004 -0.002056 1.3142e-17)
(0.99909 -0.0019584 -2.2502e-17)
(1.0089 -0.0021173 2.4972e-17)
(0.98553 -0.0028482 6.0114e-18)
(1.0231 0.003591 -8.0579e-18)
(1.0063 -0.0018439 -1.8926e-18)
(0.99947 0.0081881 -8.3536e-18)
(1.0039 0.0066915 -1.0609e-17)
(1.0076 0.024239 4.2846e-18)
(0.99891 0.00044612 -3.6227e-18)
(0.99907 -0.00063448 2.4546e-18)
(0.99932 -0.0011499 1.8384e-17)
(1.0004 -0.002097 -1.7325e-17)
(0.99899 -0.0020167 3.6208e-17)
(1.0092 -0.0021354 -1.9385e-17)
(0.98544 -0.0030331 3.5043e-18)
(1.0224 0.0036366 -1.2742e-17)
(1.0073 -0.0018305 6.1784e-18)
(1.0003 0.0080339 -1.169e-18)
(1.0042 0.0065172 4.5409e-18)
(1.0078 0.023726 -1.9051e-18)
(0.99887 0.00045111 4.4434e-18)
(0.99904 -0.00064782 1.9113e-18)
(0.99929 -0.0011766 -1.2258e-17)
(1.0004 -0.0021385 -3.5285e-19)
(0.99889 -0.0020771 -1.597e-18)
(1.0095 -0.0021516 4.6876e-18)
(0.98538 -0.0032237 3.328e-17)
(1.0218 0.0036756 8.7163e-18)
(1.0083 -0.0018141 -1.8315e-17)
(1.0011 0.0078864 -6.0591e-18)
(1.0047 0.0063454 -4.2708e-18)
(1.008 0.023219 2.0022e-18)
(0.99884 0.00045607 -5.0935e-18)
(0.99901 -0.00066138 -7.083e-18)
(0.99926 -0.0012038 5.1426e-18)
(1.0004 -0.0021804 1.4993e-17)
(0.99879 -0.0021397 -3.2851e-17)