/*--------------------------------*- C++ -*----------------------------------*\
  =========                 |
  \\      /  F ield         | OpenFOAM: The Open Source CFD Toolbox
   \\    /   O peration     | Website:  https://openfoam.org
    \\  /    A nd           | Version:  6.0
     \\/     M anipulation  |
\*---------------------------------------------------------------------------*/
FoamFile
{
    version     2.0;
    format      ascii;
    class       volScalarField;
    location    "2";
    object      p;
}
// * * * * * * * * * * * * * * * * * * * * * * * * * * * * * * * * * * * * * //

dimensions      [0 2 -2 0 0 0 0];

internalField   nonuniform List<scalar> 
47000
(
0.0583717
0.0575713
0.0556453
0.0526789
0.0488833
0.0444654
0.0397343
0.0349244
0.0302965
0.0259941
0.0221425
0.0187667
0.0158783
0.0134328
0.0113892
0.00968397
0.00826867
0.00708958
0.0061082
0.00528533
0.00459452
0.00400988
0.003514
0.00308938
0.00272436
0.00240713
0.00212946
0.00188347
0.00166782
0.00152598
0.0584599
0.0577928
0.0561175
0.053493
0.0500935
0.0460852
0.0417394
0.0372604
0.0328918
0.0287699
0.0250252
0.0216909
0.0187931
0.0162989
0.0141807
0.0123823
0.0108641
0.00957608
0.00848457
0.00755133
0.00675247
0.00606205
0.00546402
0.00494018
0.00447949
0.00406934
0.00370192
0.00336959
0.00307506
0.00287459
0.0586291
0.0580561
0.0565568
0.0541767
0.0510664
0.0473656
0.0433174
0.0391027
0.0349492
0.030985
0.0273412
0.0240556
0.0211642
0.0186425
0.0164733
0.0146067
0.0130103
0.0116376
0.0104591
0.00943777
0.00855207
0.00777637
0.00709606
0.00649273
0.00595643
0.0054747
0.00504142
0.00465114
0.00431142
0.00408062
0.05887
0.058371
0.0570097
0.0548229
0.0519448
0.0484954
0.0446956
0.0407068
0.0367422
0.0329215
0.0293746
0.0261415
0.0232658
0.0207294
0.0185236
0.016604
0.0149446
0.013502
0.0122508
0.0111551
0.0101959
0.00934797
0.00859832
0.00792862
0.00733029
0.00679145
0.00630791
0.00587619
0.00550588
0.00525031
0.0591804
0.0587421
0.0574932
0.0554652
0.0527801
0.0495433
0.045957
0.0421666
0.0383718
0.0346839
0.0312305
0.0280526
0.0251991
0.0226572
0.0204253
0.0184639
0.0167525
0.0152508
0.0139373
0.0127773
0.0117542
0.0108435
0.0100337
0.00930695
0.00865597
0.00806962
0.00754542
0.00708115
0.00668616
0.006408
0.059553
0.0591654
0.0580106
0.0561167
0.0535961
0.050543
0.0471441
0.043531
0.0398909
0.0363273
0.0329646
0.0298438
0.0270176
0.0244774
0.0222279
0.0202333
0.0184788
0.0169267
0.015559
0.0143425
0.0132629
0.0122964
0.0114333
0.0106561
0.00995892
0.00933127
0.00877217
0.00827989
0.00786231
0.0075621
0.0599893
0.0596454
0.0585726
0.0567959
0.0544199
0.0515301
0.0482995
0.0448479
0.0413509
0.0379046
0.0346296
0.0315665
0.0287708
0.0262373
0.0239758
0.0219543
0.0201627
0.0185661
0.0171497
0.0158819
0.0147507
0.013733
0.0128209
0.0119973
0.0112578
0.0105923
0.0100012
0.00948267
0.0090426
0.00872085
0.0604811
0.0601763
0.0591766
0.0575044
0.0552579
0.0525152
0.0494376
0.0461345
0.0427708
0.0394357
0.0362458
0.0332406
0.0304777
0.0279547
0.025686
0.0236426
0.021819
0.0201826
0.0187221
0.0174071
0.016228
0.0151627
0.0142048
0.0133376
0.0125582
0.0118571
0.0112355
0.0106913
0.0102283
0.00988479
0.0610309
0.0607631
0.0598306
0.0582542
0.0561263
0.0535189
0.0505828
0.0474179
0.0441795
0.0409502
0.0378425
0.0348946
0.0321658
0.0296555
0.0273824
0.0253204
0.0234681
0.0217949
0.0202932
0.0189335
0.0177089
0.0165978
0.0155957
0.0146865
0.0138685
0.0131325
0.0124807
0.0119105
0.0114236
0.0110585
0.0616323
0.0613991
0.0605292
0.0590415
0.0570234
0.0545413
0.0517366
0.048701
0.0455808
0.0424523
0.0394241
0.0365328
0.0338387
0.0313432
0.0290684
0.0269906
0.0251123
0.0234053
0.0218647
0.0204626
0.0191944
0.0180392
0.0169944
0.0160442
0.0151883
0.0144179
0.0137359
0.0131392
0.0126276
0.0122404
0.0622893
0.06209
0.0612797
0.0598757
0.0579608
0.0555964
0.0529153
0.0500018
0.0469936
0.0439614
0.0410098
0.0381738
0.0355145
0.0330344
0.0307592
0.0286673
0.0267648
0.0250253
0.0234474
0.022004
0.020693
0.0194944
0.0184073
0.0174163
0.0165227
0.0157176
0.0150047
0.0143806
0.0138433
0.013434
0.0629953
0.0628283
0.062075
0.0607503
0.0589328
0.0566793
0.0541147
0.0513164
0.0484146
0.0454745
0.0425968
0.0398148
0.0371902
0.0347265
0.0324523
0.0303478
0.0284228
0.0266525
0.0250386
0.0235552
0.0222025
0.0209611
0.0198323
0.0188008
0.0178694
0.0170294
0.0162853
0.0156329
0.0150691
0.0146372
0.0637554
0.0636205
0.0629224
0.0616739
0.0599494
0.0578013
0.0553475
0.0526588
0.0498585
0.0470064
0.0441999
0.0414702
0.0388796
0.0364322
0.0341594
0.0320431
0.0300963
0.0282959
0.0266466
0.0251235
0.0237292
0.0224452
0.0212744
0.0202022
0.0192325
0.0183569
0.0175806
0.0168991
0.0163078
0.0158531
0.0645625
0.0644585
0.0638139
0.0626385
0.0610028
0.0589551
0.0566064
0.0540221
0.0513185
0.0485507
0.0458128
0.0431339
0.0405768
0.0381459
0.0358752
0.0337479
0.0317804
0.0299509
0.0282671
0.0267049
0.0252696
0.0239432
0.0227306
0.0216174
0.0206091
0.0196974
0.0188883
0.0181768
0.0175573
0.0170792
0.0654225
0.0653496
0.0647572
0.0636528
0.0621026
0.060151
0.0579031
0.0554185
0.0528074
0.0501205
0.0474485
0.0448186
0.0422939
0.039879
0.0376103
0.0354722
0.0334841
0.0316257
0.0299073
0.028306
0.0268295
0.0254603
0.0242054
0.0230507
0.022003
0.0210544
0.0202115
0.0194689
0.0188205
0.0183187
0.0663277
0.0662847
0.0657435
0.0647078
0.0632398
0.0613805
0.0592288
0.0568394
0.0543168
0.0517075
0.049099
0.0465166
0.0440235
0.0416244
0.039358
0.0372095
0.0352015
0.0333146
0.0315622
0.0299222
0.0284045
0.0269926
0.0256952
0.0244986
0.0234112
0.022425
0.0215475
0.0207732
0.0200951
0.0195689
0.0672846
0.0672721
0.0667811
0.0658124
0.0644242
0.0626537
0.0605945
0.0582965
0.0558589
0.053324
0.0507765
0.0482398
0.045777
0.0433929
0.0411283
0.0389692
0.036941
0.0350255
0.0332389
0.0315597
0.0300005
0.0285453
0.0272047
0.0259655
0.0248373
0.0238125
0.0228995
0.0220924
0.0213838
0.0208331
0.0682853
0.0683022
0.0678606
0.0669571
0.065646
0.0639611
0.0619907
0.0597804
0.0574244
0.0549609
0.0524722
0.0499796
0.0475462
0.0451768
0.042914
0.0407444
0.0386964
0.0367525
0.0349318
0.0332136
0.0316129
0.0301141
0.02873
0.0274476
0.0262781
0.025214
0.0242647
0.0234241
0.0226844
0.0221082
0.0693367
0.0693837
0.068991
0.0681514
0.0669154
0.0653133
0.0634287
0.0613028
0.0590252
0.0566304
0.0541982
0.0517478
0.0493426
0.0469868
0.044725
0.0425445
0.0404761
0.0385035
0.0366482
0.0348904
0.0332473
0.0317043
0.0302758
0.0289493
0.0277375
0.0266331
0.0256464
0.0247712
0.0239995
0.0233977
0.0704303
0.0705066
0.0701621
0.0693851
0.068222
0.0667
0.0648981
0.0628535
0.0606513
0.0583228
0.055945
0.0535353
0.0511572
0.0488145
0.0465536
0.0443621
0.0422734
0.040272
0.0383822
0.0365846
0.0348991
0.0333114
0.0318381
0.0304669
0.0292121
0.0280666
0.0270417
0.0261312
0.0253269
0.0246985
0.071574
0.0716804
0.0713837
0.0706681
0.0695764
0.0681323
0.0664105
0.0644444
0.062315
0.0600501
0.0577246
0.055354
0.0530016
0.0506709
0.04841
0.0462066
0.044097
0.0420662
0.0401411
0.0383031
0.0365742
0.0349409
0.0334217
0.0320048
0.0307059
0.0295181
0.028454
0.0275072
0.0266693
0.0260139
0.0727585
0.0728943
0.0726451
0.07199
0.0709679
0.0695994
0.0679551
0.0660649
0.0640058
0.0618023
0.0595273
0.0571942
0.0548666
0.0525472
0.0502859
0.0480705
0.0459399
0.0438794
0.0419189
0.0400401
0.0382675
0.0365881
0.0350225
0.0335591
0.0322154
0.0309845
0.0298803
0.0288963
0.0280242
0.027341
0.0739924
0.0741586
0.0739567
0.0733613
0.0724075
0.0711128
0.069544
0.0677272
0.065736
0.0635918
0.0613653
0.0590681
0.0567638
0.0544546
0.0521918
0.0499635
0.0478109
0.04572
0.0437232
0.0418026
0.0399853
0.0382587
0.0366456
0.0351345
0.0337446
0.0324695
0.031324
0.0303018
0.0293946
0.0286831
0.0752661
0.0754621
0.0753073
0.0747708
0.0738839
0.0726613
0.0711657
0.0694202
0.0674948
0.0654079
0.0632283
0.0609657
0.0586838
0.0563839
0.0541193
0.0518777
0.0497028
0.0475811
0.0455477
0.0435849
0.0417224
0.039948
0.0382865
0.0367269
0.0352902
0.0339698
0.0327821
0.0317208
0.0307777
0.030037
0.0765885
0.0768154
0.0767078
0.0762298
0.0754089
0.0742568
0.0728328
0.0711566
0.0692951
0.0672634
0.065129
0.0628993
0.0606383
0.0583466
0.0560789
0.0538229
0.0516248
0.0494713
0.0474001
0.045394
0.043485
0.0416616
0.0399506
0.0383412
0.0368561
0.0354893
0.0342582
0.0331567
0.0321767
0.0314062
0.0779497
0.0782071
0.0781466
0.0777266
0.0769706
0.0758877
0.0745335
0.0729249
0.0711253
0.0691473
0.0670565
0.0648585
0.0626175
0.0603332
0.0580619
0.0557911
0.0535692
0.0513834
0.049274
0.047224
0.045268
0.0433947
0.0416333
0.0399732
0.0384389
0.0370246
0.0357491
0.0346064
0.0335887
0.0327874
0.0793592
0.0796484
0.0796353
0.079273
0.0785814
0.0775665
0.0762808
0.074738
0.0729988
0.0710727
0.0690239
0.0668562
0.0646337
0.0623555
0.0600793
0.0577924
0.0555456
0.0533264
0.0511775
0.0490822
0.0470779
0.0451534
0.0433401
0.0416279
0.0400429
0.0385797
0.0372585
0.0360734
0.0350169
0.0341843
0.0808066
0.0811272
0.0811617
0.0808569
0.0802289
0.079281
0.0780624
0.0765841
0.0749036
0.0730281
0.0710201
0.0688814
0.0666766
0.0644037
0.062122
0.0598184
0.0575462
0.0552928
0.0531038
0.0509627
0.0489091
0.0469325
0.0450664
0.043301
0.0416643
0.0401511
0.0387831
0.0375546
0.0364585
0.0355934
0.0823019
0.0826554
0.082738
0.0824907
0.081926
0.0810443
0.0798919
0.0784766
0.0768536
0.0750271
0.0730584
0.0709474
0.0687588
0.0664898
0.0642013
0.0618797
0.0595807
0.0572918
0.0550613
0.0528727
0.0507684
0.0487382
0.0468178
0.0449976
0.0433076
0.0417429
0.0403267
0.0390535
0.0379165
0.0370184
0.0838344
0.0842205
0.0843515
0.0841618
0.0836599
0.0828438
0.0817564
0.0804032
0.0788363
0.0770577
0.0751272
0.0730428
0.0708697
0.0686037
0.0663077
0.0639674
0.0616409
0.0593159
0.057043
0.0548062
0.0526503
0.0505653
0.0485895
0.0467134
0.0449689
0.0433515
0.0418859
0.040567
0.0393882
0.0384558
0.0854147
0.0858349
0.086015
0.0858832
0.0854441
0.0846931
0.0836701
0.0823778
0.0808662
0.0791341
0.0772405
0.0751813
0.0730222
0.0707579
0.068453
0.0660925
0.0637371
0.0613742
0.0590576
0.0567708
0.0545616
0.0524203
0.0503873
0.0484535
0.0466529
0.0449811
0.0434647
0.0420986
0.0408767
0.0399093
0.0870314
0.0874856
0.0877153
0.0876417
0.0872653
0.086579
0.0856197
0.0843876
0.0829301
0.0812437
0.079386
0.0773512
0.0752052
0.0729419
0.0706273
0.0682459
0.0658607
0.0634593
0.0610979
0.0587602
0.0564966
0.0542977
0.0522064
0.0502137
0.0483556
0.0466282
0.0450596
0.0436451
0.0423791
0.0413754
0.0886957
0.0891856
0.0894659
0.089451
0.0891375
0.0885157
0.0876198
0.0864472
0.0850431
0.0834012
0.0815783
0.0795665
0.0774324
0.0751685
0.0728427
0.0704388
0.0680222
0.0655805
0.0631726
0.0607823
0.0584625
0.0562042
0.0540526
0.0519991
0.0500817
0.0482969
0.0466746
0.0452102
0.0438987
0.0428579
0.090396
0.0909215
0.091253
0.0912974
0.0910469
0.0904897
0.0896566
0.0885431
0.0871915
0.0855935
0.0838046
0.081815
0.079692
0.0774267
0.075089
0.0726618
0.070213
0.06773
0.0652746
0.0628304
0.0604532
0.0581342
0.055921
0.0538053
0.0518272
0.0499836
0.0483061
0.0467905
0.0454324
0.0443531
0.0921437
0.0927068
0.0930906
0.093195
0.0930082
0.0925156
0.0917455
0.0906905
0.089391
0.0878359
0.08608
0.0841114
0.0819981
0.07973
0.0773788
0.0749265
0.0724437
0.0699176
0.0674128
0.0649128
0.0624762
0.0600944
0.0578177
0.0556378
0.053597
0.0516927
0.0499582
0.0483898
0.0469835
0.045865
0.0939269
0.0945275
0.0949646
0.0951299
0.095007
0.0945793
0.0938719
0.0928753
0.0916274
0.0901147
0.0883912
0.0864429
0.0843386
0.0820669
0.0797014
0.0772231
0.0747055
0.0721352
0.0695798
0.0670227
0.0645254
0.0620794
0.0597376
0.0574918
0.0553869
0.0534203
0.0516274
0.0500046
0.048549
0.0473896
0.0957576
0.0963977
0.0968894
0.0971165
0.0970586
0.0966963
0.0960519
0.0951136
0.093917
0.092446
0.0907539
0.0888247
0.0867281
0.0844513
0.0820698
0.0795638
0.0770093
0.0743928
0.0717848
0.0691686
0.0666083
0.064096
0.0616869
0.0593732
0.0572019
0.055171
0.0533177
0.0516389
0.0501322
0.048931
0.0976233
0.0983031
0.0988505
0.0991406
0.0991481
0.0988517
0.0982705
0.0973904
0.0962448
0.0948152
0.0931541
0.0912436
0.0891539
0.0868712
0.084473
0.0819383
0.079346
0.0766821
0.0740202
0.0713433
0.0687187
0.0661384
0.0636604
0.061277
0.0590376
0.0569407
0.0550255
0.0532891
0.05173
0.0504854
0.0995365
0.100258
0.100863
0.101217
0.101291
0.101062
0.100544
0.0997226
0.098628
0.0972393
0.0956084
0.0937153
0.0916313
0.0893411
0.0869244
0.0843591
0.0817269
0.0790135
0.0762955
0.0735557
0.0708644
0.0682137
0.0656644
0.0632092
0.0608995
0.0587343
0.056755
0.0549592
0.0533459
0.0520567
0.101484
0.102248
0.102911
0.103331
0.103473
0.103311
0.102857
0.102095
0.101051
0.099703
0.098102
0.0962259
0.0941471
0.0918487
0.0894126
0.0868156
0.0841425
0.0813782
0.0786027
0.0757984
0.0730388
0.070316
0.0676938
0.0651646
0.0627828
0.0605476
0.0585025
0.0566454
0.0549765
0.0536411
0.10348
0.104288
0.105012
0.105499
0.105709
0.105616
0.105228
0.104524
0.103531
0.102224
0.100652
0.0987919
0.0967169
0.0944087
0.0919515
0.0893209
0.0866045
0.0837871
0.0809518
0.0780805
0.0752501
0.0724528
0.0697549
0.0671495
0.064693
0.0623855
0.0602723
0.058352
0.0566255
0.0552426
0.10551
0.106363
0.107148
0.107704
0.107985
0.107961
0.107638
0.106994
0.106053
0.104786
0.103244
0.101399
0.0993271
0.0970084
0.0945292
0.0918638
0.0891032
0.0862311
0.0833345
0.0803945
0.0774915
0.0746177
0.0718424
0.0691586
0.0666256
0.0642436
0.0620605
0.0600751
0.0582895
0.0568571
0.107587
0.108488
0.109337
0.109963
0.110316
0.110363
0.110108
0.109524
0.108635
0.107408
0.105894
0.104064
0.101994
0.0996632
0.0971601
0.0944579
0.0916505
0.0887215
0.0857609
0.0827497
0.0797714
0.0768185
0.073963
0.0711982
0.068586
0.066127
0.0638716
0.0618189
0.059972
0.058489
0.109699
0.110647
0.111562
0.11226
0.112686
0.112806
0.112619
0.112097
0.111259
0.110073
0.108588
0.106772
0.104704
0.10236
0.0998319
0.0970917
0.0942364
0.0912489
0.0882227
0.0851384
0.0820829
0.0790487
0.076111
0.073263
0.0705694
0.0680314
0.0657015
0.0635796
0.0616697
0.060134
0.111859
0.112857
0.11384
0.114613
0.115114
0.115308
0.11519
0.114731
0.113946
0.1128
0.111343
0.10954
0.107472
0.105114
0.10256
0.0997791
0.0968734
0.0938247
0.0907302
0.08757
0.0844345
0.0813162
0.0782934
0.0753595
0.0725817
0.0699619
0.067555
0.0653614
0.0633862
0.0617964
0.114052
0.115102
0.116154
0.117004
0.117582
0.117852
0.117805
0.117408
0.116677
0.115573
0.114143
0.112354
0.110286
0.107912
0.10533
0.102508
0.0995508
0.0964394
0.0932748
0.0900367
0.0868191
0.0836145
0.0805044
0.0774821
0.0746178
0.0719138
0.0694277
0.0671603
0.065118
0.0634719
0.116293
0.117397
0.118521
0.11945
0.120108
0.120456
0.120482
0.12015
0.119474
0.11841
0.117008
0.115231
0.113162
0.110771
0.108159
0.105293
0.102282
0.0991048
0.0958673
0.0925483
0.0892456
0.0859517
0.0827511
0.0796375
0.0766837
0.0738927
0.0713246
0.0689808
0.066869
0.0651649
0.118567
0.119726
0.120924
0.121935
0.122674
0.123102
0.123202
0.122937
0.122316
0.121294
0.11992
0.118156
0.116084
0.113676
0.111033
0.108123
0.105055
0.101811
0.0984986
0.0950965
0.0917065
0.0883209
0.0850275
0.08182
0.0787742
0.0758936
0.0732412
0.0708187
0.0686353
0.066871
0.120889
0.122105
0.123381
0.124476
0.1253
0.125811
0.125988
0.12579
0.125225
0.124245
0.1229
0.121146
0.119072
0.116644
0.113969
0.111011
0.107885
0.10457
0.10118
0.0976916
0.0942111
0.0907305
0.0873412
0.0840365
0.0808956
0.0779224
0.0751825
0.0726786
0.070421
0.0685947
0.123244
0.124518
0.125873
0.127056
0.127967
0.128563
0.128818
0.12869
0.128182
0.127245
0.125928
0.124186
0.122108
0.11966
0.116951
0.113944
0.110759
0.107372
0.103902
0.100325
0.0967516
0.0931736
0.0896856
0.0862811
0.0830424
0.0799738
0.0771441
0.0745561
0.0722222
0.0703315
0.125645
0.126981
0.128419
0.129693
0.130695
0.13138
0.131716
0.131658
0.13121
0.130316
0.129027
0.127295
0.125213
0.122742
0.119998
0.11694
0.113691
0.110229
0.106676
0.103007
0.0993376
0.0956587
0.0920687
0.088561
0.085221
0.0820538
0.079131
0.0764561
0.0740431
0.0720859
0.128079
0.129477
0.131001
0.13237
0.133465
0.13424
0.134659
0.134675
0.134286
0.133437
0.132176
0.130456
0.128368
0.125875
0.123094
0.119983
0.11667
0.113131
0.109492
0.10573
0.101961
0.0981786
0.0944838
0.0908701
0.0874259
0.0841571
0.0811385
0.0783741
0.0758794
0.0738533
0.130559
0.132022
0.133636
0.135103
0.136297
0.137167
0.137672
0.137763
0.137436
0.136631
0.135399
0.133689
0.131595
0.129078
0.126258
0.123091
0.119711
0.116091
0.112363
0.108503
0.104632
0.100742
0.0969392
0.0932156
0.0896638
0.0862899
0.083172
0.0803148
0.0777357
0.0756385
0.133071
0.134601
0.136308
0.137877
0.139171
0.140138
0.140732
0.1409
0.140636
0.139877
0.138675
0.136975
0.134875
0.132333
0.129472
0.126249
0.1228
0.119098
0.115279
0.111318
0.107342
0.103342
0.0994277
0.0955914
0.0919288
0.0884467
0.0852266
0.0822738
0.0796076
0.0774365
0.13563
0.137228
0.139033
0.140709
0.142109
0.143178
0.143864
0.144112
0.143913
0.1432
0.142028
0.140336
0.138229
0.13566
0.132757
0.129474
0.125952
0.122165
0.118251
0.114186
0.110101
0.105988
0.101958
0.0980051
0.0942278
0.0906338
0.0873078
0.084256
0.0814997
0.0792523
0.138221
0.139891
0.141795
0.143582
0.14509
0.146263
0.147044
0.147374
0.147242
0.146577
0.145435
0.143754
0.141639
0.139042
0.136096
0.132752
0.129156
0.12528
0.12127
0.117098
0.112901
0.108671
0.104523
0.10045
0.0965548
0.0928456
0.0894106
0.0862568
0.0834075
0.081081
0.14086
0.142604
0.144614
0.146516
0.148138
0.14942
0.150299
0.150713
0.150649
0.150033
0.148921
0.14725
0.145126
0.142499
0.139508
0.1361
0.132427
0.128459
0.124347
0.120065
0.115753
0.111402
0.107131
0.102934
0.098917
0.0950885
0.0915407
0.0882813
0.0853358
0.0829276
0.143532
0.145353
0.14747
0.149491
0.151229
0.152623
0.153603
0.154104
0.154111
0.153545
0.152465
0.150803
0.148671
0.146014
0.142976
0.139502
0.13575
0.131689
0.127474
0.123078
0.118647
0.114171
0.109775
0.105451
0.101308
0.0973568
0.0936929
0.0903246
0.0872799
0.084787
0.146253
0.148155
0.150385
0.152529
0.154389
0.155899
0.156984
0.157575
0.157654
0.15714
0.156091
0.154438
0.152296
0.149608
0.14652
0.142978
0.139144
0.134984
0.130662
0.126148
0.121595
0.116991
0.112465
0.108008
0.103736
0.0996574
0.0958731
0.0923922
0.0892448
0.0866644
0.149009
0.150995
0.153338
0.155609
0.157594
0.159224
0.160416
0.161099
0.161253
0.160792
0.159776
0.158133
0.155981
0.153261
0.150123
0.146511
0.142592
0.138333
0.1339
0.129266
0.124587
0.119851
0.115191
0.110599
0.106193
0.101984
0.0980759
0.0944789
0.0912258
0.0885544
0.151815
0.153889
0.156353
0.158755
0.16087
0.162623
0.163928
0.164706
0.164936
0.164529
0.163547
0.161914
0.15975
0.156995
0.153805
0.15012
0.146114
0.14175
0.137204
0.132445
0.127635
0.122762
0.117965
0.113232
0.108688
0.104344
0.100307
0.0965904
0.0932278
0.0904624
0.154656
0.156822
0.159407
0.161944
0.164192
0.166072
0.167491
0.168367
0.168676
0.168325
0.167379
0.165756
0.163582
0.160792
0.157549
0.153789
0.149693
0.145224
0.14056
0.135673
0.130729
0.125717
0.120777
0.1159
0.111214
0.10673
0.102562
0.0987215
0.0952461
0.0923833
0.157548
0.159811
0.162523
0.165201
0.167587
0.169598
0.171136
0.172113
0.172503
0.17221
0.171299
0.169686
0.1675
0.164674
0.161375
0.157537
0.153348
0.148768
0.143983
0.138964
0.133882
0.128724
0.123638
0.118612
0.113779
0.109151
0.104847
0.100878
0.0972859
0.0943225
0.160475
0.162837
0.165679
0.1685
0.171027
0.173174
0.174834
0.175915
0.176389
0.176156
0.175282
0.17368
0.171484
0.168621
0.165265
0.161348
0.157064
0.152371
0.147462
0.142307
0.137083
0.131776
0.126539
0.121359
0.116375
0.1116
0.107155
0.103054
0.0993422
0.0962751
0.163453
0.165921
0.168899
0.171869
0.174543
0.17683
0.178616
0.179804
0.180364
0.180192
0.179356
0.177766
0.175557
0.172656
0.16924
0.165242
0.160859
0.156049
0.151012
0.145715
0.140345
0.134884
0.12949
0.124153
0.119013
0.114084
0.109493
0.105257
0.101421
0.0982464
0.166467
0.169041
0.172157
0.175281
0.178105
0.180535
0.182451
0.18375
0.1844
0.184292
0.183496
0.181918
0.179698
0.176758
0.173283
0.169201
0.164717
0.159788
0.154619
0.149178
0.143657
0.138038
0.132484
0.126983
0.121683
0.116596
0.111856
0.107479
0.103516
0.100231
0.16953
0.172217
0.17548
0.178763
0.181744
0.184323
0.186373
0.187786
0.188527
0.188485
0.18773
0.186164
0.183932
0.180953
0.177415
0.173246
0.168657
0.163604
0.158299
0.15271
0.147033
0.14125
0.13553
0.129861
0.124395
0.119145
0.11425
0.109729
0.105633
0.102235
0.172627
0.17543
0.17884
0.182288
0.185429
0.188161
0.190349
0.19188
0.192717
0.192743
0.192031
0.19048
0.188237
0.185217
0.181616
0.177359
0.172664
0.167485
0.16204
0.156298
0.150461
0.144511
0.13862
0.132778
0.127141
0.121723
0.11667
0.111999
0.107768
0.104252
0.175774
0.178697
0.182266
0.185884
0.189193
0.192083
0.194414
0.196065
0.197001
0.197097
0.19643
0.194893
0.192638
0.189577
0.18591
0.181562
0.176757
0.171447
0.165859
0.159958
0.153956
0.147831
0.141765
0.135744
0.12993
0.124339
0.119121
0.114297
0.109926
0.106288
0.178955
0.182
0.185727
0.189522
0.193002
0.196056
0.198534
0.20031
0.201348
0.201517
0.200899
0.199378
0.197112
0.194009
0.190277
0.185836
0.180919
0.175475
0.16974
0.163677
0.157505
0.151202
0.144954
0.138749
0.132755
0.126986
0.121598
0.116615
0.1121
0.108338
0.182182
0.185357
0.189254
0.193233
0.196892
0.200114
0.202744
0.20465
0.205792
0.206037
0.205468
0.203964
0.201687
0.198541
0.194741
0.190204
0.18517
0.179589
0.173701
0.167471
0.161123
0.154636
0.148201
0.141806
0.135624
0.129671
0.124109
0.118962
0.114299
0.110407
0.185443
0.188748
0.192816
0.196984
0.200826
0.204223
0.20701
0.209049
0.210301
0.210626
0.210108
0.208624
0.206337
0.203149
0.19928
0.194645
0.189494
0.183772
0.177728
0.171326
0.164798
0.158121
0.151494
0.144904
0.13853
0.132387
0.126645
0.12133
0.116515
0.11249
0.188749
0.192191
0.196442
0.200808
0.204843
0.208419
0.211369
0.213546
0.21491
0.215317
0.214853
0.213388
0.211091
0.207859
0.20392
0.199185
0.193911
0.188044
0.18184
0.17526
0.168545
0.161672
0.154847
0.148055
0.141483
0.135144
0.129216
0.123728
0.118754
0.114592
0.192087
0.195668
0.200103
0.204674
0.208904
0.212667
0.215784
0.218104
0.219586
0.220079
0.219673
0.21823
0.215924
0.212649
0.208638
0.203801
0.198403
0.192387
0.186019
0.179257
0.17235
0.165276
0.158247
0.151249
0.144472
0.137933
0.131814
0.126147
0.121012
0.116708
0.195467
0.199195
0.203828
0.208611
0.213048
0.217003
0.220294
0.222761
0.224364
0.224946
0.224599
0.223179
0.220865
0.217546
0.213461
0.208519
0.202993
0.196824
0.190286
0.183336
0.176231
0.168949
0.16171
0.154497
0.14751
0.140763
0.134446
0.128595
0.123294
0.118844
0.19888
0.202754
0.207587
0.21259
0.217237
0.221392
0.224861
0.227482
0.229211
0.229887
0.229603
0.228209
0.225887
0.222524
0.218366
0.213317
0.20766
0.201335
0.194623
0.187481
0.180172
0.172676
0.165221
0.157789
0.150586
0.143625
0.137106
0.131065
0.125593
0.120993
0.20233
0.206363
0.211409
0.216642
0.221509
0.225871
0.229525
0.232304
0.234164
0.234937
0.234718
0.233351
0.231022
0.227614
0.22338
0.218221
0.212429
0.205942
0.199052
0.19171
0.18419
0.176473
0.168796
0.161138
0.153711
0.14653
0.139801
0.133565
0.127917
0.123162
0.205814
0.210002
0.215263
0.220734
0.225827
0.230402
0.234249
0.237192
0.239189
0.240064
0.239914
0.238575
0.236241
0.232788
0.228478
0.223208
0.217278
0.210626
0.203554
0.196007
0.18827
0.180327
0.172422
0.164531
0.156874
0.149466
0.142523
0.136088
0.130258
0.125344
0.209331
0.213689
0.219181
0.224899
0.23023
0.235026
0.239071
0.242185
0.244322
0.245302
0.245225
0.243916
0.241577
0.238078
0.23369
0.228304
0.222232
0.21541
0.20815
0.200392
0.19243
0.184253
0.176113
0.167981
0.160086
0.152445
0.145281
0.13864
0.132624
0.127546
0.212882
0.217406
0.223131
0.229104
0.234678
0.239703
0.243955
0.247245
0.24953
0.250621
0.250619
0.249344
0.247
0.243456
0.238989
0.233487
0.227269
0.220273
0.21282
0.204846
0.196654
0.188237
0.179855
0.171477
0.163337
0.155457
0.148066
0.141214
0.135007
0.12976
0.216464
0.22117
0.227144
0.233383
0.239213
0.244475
0.24894
0.252414
0.254851
0.256056
0.256132
0.254891
0.252543
0.248953
0.244406
0.238783
0.232414
0.225239
0.217587
0.209389
0.200959
0.192294
0.183664
0.17503
0.166637
0.158511
0.150887
0.143819
0.137416
0.131995
0.220081
0.224964
0.231188
0.237703
0.243793
0.249301
0.253988
0.257652
0.260249
0.261574
0.261733
0.260529
0.258178
0.254542
0.249914
0.244168
0.237645
0.230286
0.22243
0.214002
0.205328
0.196409
0.187524
0.178628
0.169974
0.161596
0.153734
0.146445
0.13984
0.134243
0.223729
0.228805
0.235297
0.242097
0.248461
0.254224
0.259141
0.263002
0.265763
0.267212
0.267458
0.266291
0.263937
0.260253
0.255542
0.24967
0.242987
0.235437
0.227369
0.218706
0.209779
0.200599
0.19145
0.182284
0.173361
0.164726
0.15662
0.149104
0.142292
0.136512
0.227412
0.232676
0.239437
0.246532
0.253176
0.259203
0.264358
0.268425
0.271358
0.272937
0.273273
0.272147
0.269791
0.26606
0.261265
0.255264
0.248416
0.240671
0.232386
0.223479
0.214295
0.204846
0.195428
0.185984
0.176786
0.167888
0.159532
0.151785
0.144761
0.138796
0.231127
0.236596
0.243641
0.251042
0.25798
0.264282
0.269684
0.273964
0.277075
0.278788
0.279217
0.278133
0.275773
0.271992
0.26711
0.260976
0.253959
0.24601
0.2375
0.228344
0.218894
0.20917
0.199472
0.189743
0.180264
0.171096
0.162485
0.154502
0.147259
0.141103
0.234877
0.240545
0.247877
0.255593
0.262832
0.269418
0.275077
0.279578
0.282875
0.284729
0.285256
0.284215
0.281853
0.278023
0.273052
0.266782
0.25959
0.251434
0.242689
0.233279
0.223556
0.213551
0.203567
0.193547
0.18378
0.17434
0.165467
0.157242
0.149777
0.143426
0.238661
0.244544
0.252178
0.260221
0.267776
0.274657
0.280581
0.285312
0.288802
0.2908
0.291428
0.290431
0.288064
0.284182
0.279118
0.272707
0.265335
0.256964
0.247978
0.238307
0.228305
0.218011
0.20773
0.197412
0.187352
0.177632
0.168493
0.16002
0.152325
0.145775
0.242479
0.248571
0.256509
0.26489
0.272768
0.279954
0.286155
0.291125
0.294816
0.296965
0.297697
0.296747
0.294377
0.290441
0.285283
0.278727
0.271171
0.262578
0.253346
0.243409
0.233121
0.222532
0.211947
0.201325
0.190966
0.180962
0.171549
0.162825
0.154895
0.148141
0.24633
0.252647
0.260907
0.269637
0.277854
0.285358
0.291845
0.297062
0.30096
0.303265
0.304103
0.303199
0.300824
0.296831
0.291571
0.284867
0.277122
0.268303
0.258818
0.24861
0.238029
0.227137
0.216238
0.205305
0.19464
0.184346
0.174652
0.165669
0.157498
0.150535
0.250215
0.25675
0.265333
0.274423
0.282989
0.290822
0.297606
0.303081
0.307196
0.309661
0.31061
0.309754
0.307375
0.303323
0.297958
0.291105
0.283166
0.274118
0.264372
0.253889
0.243007
0.231806
0.220584
0.209335
0.198358
0.187768
0.177788
0.16854
0.160122
0.152945
0.254129
0.2609
0.269822
0.279287
0.28822
0.296394
0.303486
0.309227
0.313565
0.316196
0.317253
0.316446
0.314061
0.309948
0.304473
0.297467
0.28933
0.280048
0.270039
0.259274
0.248083
0.236564
0.22501
0.213436
0.202141
0.191246
0.180971
0.171452
0.162781
0.155383
0.258076
0.265075
0.274339
0.284189
0.293499
0.302027
0.309439
0.315459
0.320028
0.322829
0.324
0.323243
0.320854
0.316679
0.311092
0.303933
0.295594
0.286075
0.275795
0.264744
0.253237
0.241392
0.229497
0.217592
0.20597
0.194763
0.184188
0.17439
0.165461
0.157836
0.262048
0.269294
0.278915
0.289166
0.298873
0.307769
0.315513
0.321819
0.326627
0.329601
0.330883
0.330179
0.327786
0.323546
0.317845
0.310532
0.301987
0.29223
0.281674
0.270328
0.258496
0.246316
0.23407
0.221824
0.209865
0.198337
0.187453
0.177369
0.168174
0.160317
0.266051
0.273536
0.283518
0.294178
0.304294
0.313574
0.321661
0.328265
0.333322
0.336475
0.33787
0.337223
0.334827
0.330527
0.32471
0.317242
0.308488
0.298487
0.287651
0.276003
0.263836
0.251312
0.238706
0.226112
0.213808
0.20195
0.19075
0.180374
0.170908
0.162812
0.270072
0.277817
0.288177
0.299264
0.309808
0.319484
0.327928
0.33484
0.340151
0.343488
0.344998
0.344411
0.342013
0.337653
0.331722
0.324097
0.31513
0.304882
0.293757
0.281797
0.269287
0.256407
0.243431
0.230476
0.217817
0.205619
0.194095
0.183418
0.173674
0.165333
0.274125
0.282122
0.292866
0.304385
0.315368
0.325456
0.33427
0.341502
0.347077
0.350603
0.352235
0.351715
0.349319
0.344904
0.338857
0.331075
0.321889
0.311389
0.299965
0.287683
0.27482
0.261576
0.248221
0.234897
0.221873
0.209327
0.197472
0.186487
0.176459
0.167867
0.27819
0.286462
0.29761
0.309584
0.32102
0.331533
0.340729
0.348293
0.35414
0.357863
0.359623
0.359175
0.356783
0.352316
0.346152
0.33821
0.328801
0.318041
0.30631
0.293694
0.280467
0.266847
0.2531
0.239396
0.225996
0.213092
0.200896
0.189596
0.179276
0.170426
0.282287
0.290828
0.302387
0.314814
0.326716
0.337668
0.347261
0.355169
0.361298
0.365229
0.367127
0.366762
0.364378
0.359862
0.353582
0.345475
0.335836
0.324809
0.312759
0.299798
0.286197
0.27219
0.258045
0.24395
0.230166
0.216895
0.204351
0.192728
0.182111
0.172997
0.286388
0.295228
0.307221
0.320127
0.332506
0.343911
0.353914
0.36218
0.368599
0.372749
0.374795
0.37452
0.372146
0.367583
0.361185
0.352907
0.343031
0.331726
0.319346
0.306028
0.292041
0.277635
0.263079
0.248582
0.234403
0.220754
0.207853
0.195899
0.184978
0.175594
0.290526
0.299656
0.312093
0.325475
0.338346
0.350217
0.360645
0.369283
0.376005
0.380389
0.382594
0.382418
0.380058
0.37545
0.36893
0.360474
0.350352
0.33876
0.326039
0.312351
0.297968
0.283153
0.268177
0.253268
0.238684
0.22465
0.211384
0.199092
0.187861
0.178202
0.294663
0.304115
0.317026
0.330914
0.344289
0.356643
0.367511
0.376535
0.38357
0.388199
0.390575
0.390504
0.38816
0.383506
0.376857
0.368215
0.357839
0.345948
0.332873
0.318802
0.304011
0.288774
0.273367
0.258033
0.243034
0.228604
0.214964
0.202325
0.190776
0.180835
0.298839
0.308607
0.321999
0.336394
0.350287
0.363138
0.374461
0.383888
0.39125
0.39614
0.398699
0.398741
0.396415
0.391713
0.384929
0.376091
0.365453
0.35325
0.339812
0.325347
0.310136
0.294466
0.278618
0.262851
0.247427
0.232592
0.218571
0.205578
0.193706
0.183479
0.303008
0.313127
0.327034
0.34197
0.356399
0.369768
0.381563
0.391407
0.399107
0.404269
0.407021
0.407177
0.404869
0.400115
0.393189
0.384145
0.373234
0.360709
0.346893
0.332021
0.316378
0.300262
0.283961
0.267747
0.251888
0.236638
0.222225
0.208871
0.196667
0.186147
0.307221
0.317681
0.332108
0.34759
0.362576
0.376478
0.388763
0.399042
0.407094
0.412544
0.415495
0.415771
0.413481
0.408671
0.401596
0.392336
0.381142
0.368282
0.354078
0.338787
0.322701
0.306128
0.289365
0.272695
0.256392
0.240718
0.225907
0.212183
0.199643
0.188825
0.311422
0.322261
0.337246
0.353313
0.368881
0.383341
0.396134
0.406863
0.415278
0.421025
0.424179
0.424573
0.422301