/*--------------------------------*- C++ -*----------------------------------*\
  =========                 |
  \\      /  F ield         | OpenFOAM: The Open Source CFD Toolbox
   \\    /   O peration     | Website:  https://openfoam.org
    \\  /    A nd           | Version:  6.0
     \\/     M anipulation  |
\*---------------------------------------------------------------------------*/
FoamFile
{
    version     2.0;
    format      ascii;
    class       surfaceScalarField;
    location    "2";
    object      phi;
}
// * * * * * * * * * * * * * * * * * * * * * * * * * * * * * * * * * * * * * //

dimensions      [0 3 -1 0 0 0 0];

internalField   nonuniform List<scalar> 
93586
(
2.32439e-05
0.00154674
9.80869e-08
4.69351e-05
0.00154187
7.08328e-05
0.00153265
9.47463e-05
0.00151912
0.000118545
0.00150131
0.000142082
0.00147931
0.000165272
0.00145325
0.000188003
0.00142326
0.00021022
0.00138947
0.000231841
0.00135202
0.000252822
0.001311
0.000273099
0.00126653
0.000292629
0.00121868
0.000311355
0.00116758
0.000329233
0.00111332
0.000346207
0.00105604
0.000362236
0.000995854
0.000377269
0.000932926
0.000391266
0.000867407
0.000404185
0.000799471
0.00041599
0.000729289
0.000426645
0.000657048
0.000436122
0.000582929
0.000444392
0.000507128
0.000451432
0.000429829
0.00045722
0.000351222
0.000461741
0.00027148
0.000464976
0.000190759
0.00046688
0.000109145
2.56252e-05
0.000466917
2.30539e-05
0.00152357
9.75189e-08
4.65241e-05
0.00151838
7.01582e-05
0.001509
9.37624e-05
0.00149548
0.000117211
0.00147783
0.000140366
0.00145611
0.000163158
0.00143042
0.000185485
0.00140088
0.000207303
0.00136761
0.000228535
0.00133073
0.000249143
0.00129035
0.000269062
0.00124656
0.000288254
0.00119945
0.000306659
0.00114914
0.000324234
0.00109571
0.000340924
0.00103931
0.000356687
0.00098006
0.000371472
0.000918109
0.000385241
0.000853611
0.000397949
0.000786735
0.000409563
0.000717651
0.000420046
0.00064654
0.000429371
0.000573583
0.000437507
0.000498969
0.000444434
0.000422882
0.000450128
0.000345506
0.000454574
0.000267013
0.00045775
0.00018756
0.000459605
0.000107265
2.53231e-05
0.000459874
2.27583e-05
0.00150071
9.76663e-08
4.59167e-05
0.00149522
6.92205e-05
0.00148569
9.24777e-05
0.00147221
0.000115566
0.00145474
0.000138355
0.00143331
0.000160779
0.00140799
0.000182742
0.0013789
0.000204204
0.00134614
0.00022509
0.00130984
0.000245362
0.00127008
0.000264959
0.00122696
0.000283841
0.00118057
0.00030195
0.00113102
0.000319244
0.00107842
0.000335667
0.00102289
0.000351178
0.00096455
0.000365728
0.000903559
0.000379278
0.000840063
0.000391784
0.00077423
0.000403214
0.000706224
0.000413531
0.000636225
0.000422708
0.00056441
0.000430715
0.000490965
0.000437531
0.00041607
0.000443134
0.000339907
0.000447507
0.000262646
0.000450626
0.000184447
0.000452446
0.000105452
2.49317e-05
0.000452853
2.2441e-05
0.00147816
9.78599e-08
4.52697e-05
0.00147238
6.82313e-05
0.00146272
9.1137e-05
0.00144928
0.000113867
0.00143199
0.000136297
0.00141084
0.000158364
0.00138589
0.000179977
0.00135725
0.000201096
0.00132499
0.00022165
0.00128925
0.000241601
0.0012501
0.000260887
0.00120763
0.00027947
0.00116196
0.000297292
0.00111317
0.000314313
0.00106137
0.000330477
0.00100669
0.000345744
0.000949259
0.000360063
0.000889214
0.0003734
0.000826706
0.000385709
0.000761898
0.000396959
0.000694955
0.000407114
0.00062605
0.000416146
0.00055536
0.000424027
0.000483066
0.000430735
0.000409344
0.000436248
0.000334375
0.000440549
0.000258327
0.000443613
0.000181362
0.000445407
0.000103638
2.44329e-05
0.000445877
2.2111e-05
0.00145596
9.89211e-08
4.46003e-05
0.00144989
6.72139e-05
0.00144011
8.97669e-05
0.00142672
0.000112143
0.00140961
0.00013422
0.00138876
0.00015594
0.00136418
0.000177212
0.00133597
0.000198001
0.00130421
0.000218232
0.00126901
0.000237871
0.00123046
0.000256856
0.00118865
0.00027515
0.00114367
0.000292693
0.00109563
0.000309448
0.00104463
0.000325358
0.000990787
0.000340386
0.000934238
0.000354481
0.000875123
0.000367609
0.000813585
0.000379725
0.000749787
0.000390799
0.000683888
0.000400794
0.00061606
0.000409685
0.000546476
0.000417441
0.000475315
0.000424044
0.000402749
0.000429468
0.000328956
0.000433699
0.000254104
0.000436713
0.000178356
0.000438483
0.000101877
2.3949e-05
0.000438984
2.17747e-05
0.00143407
1.00704e-07
4.392e-05
0.00142772
6.61841e-05
0.00141783
8.83859e-05
0.0014045
0.000110411
0.00138757
0.000132143
0.001367
0.000153522
0.00134277
0.000174464
0.001315
0.000194929
0.00128372
0.000214847
0.00124906
0.000234182
0.0012111
0.000252874
0.00116993
0.000270884
0.00112564
0.000288155
0.00107833
0.00030465
0.00102811
0.000320313
0.000975099
0.000335107
0.000919425
0.000348982
0.000861225
0.000361905
0.000800645
0.000373832
0.00073784
0.000384733
0.00067297
0.000394572
0.000606203
0.000403323
0.000537709
0.000410958
0.000467663
0.000417456
0.000396235
0.000422794
0.0003236
0.000426957
0.000249925
0.000429921
0.000175373
0.000431669
0.000100111
2.34072e-05
0.000432183
2.14364e-05
0.00141254
9.51069e-08
4.32366e-05
0.00140593
6.51521e-05
0.00139592
8.70057e-05
0.00138264
0.000108685
0.0013659
0.000130077
0.00134561
0.000151123
0.00132173
0.00017174
0.00129438
0.000191889
0.00126358
0.000211501
0.00122945
0.000230539
0.00119208
0.000248943
0.00115153
0.000266676
0.00110792
0.000283681
0.00106133
0.000299921
0.00101188
0.000315342
0.000959685
0.000329906
0.000904869
0.000343566
0.000847571
0.000356288
0.000787932
0.000368029
0.000726105
0.000378761
0.000662248
0.000388445
0.000596524
0.000397061
0.000529102
0.000404575
0.000460154
0.000410971
0.000389847
0.000416225
0.000318353
0.000420321
0.000245837
0.000423238
0.000172464
0.000424962
9.83963e-05
2.29041e-05
0.000425483
2.10986e-05
0.00139133
9.38467e-08
4.25553e-05
0.00138445
6.4125e-05
0.00137433
8.56342e-05
0.00136111
0.000106973
0.00134454
0.00012803
0.00132452
0.000148749
0.001301
0.000169048
0.00127406
0.000188887
0.00124372
0.000208198
0.00121012
0.000226945
0.00117331
0.000245068
0.00113338
0.000262529
0.00109043
0.000279272
0.00104456
0.000295263
0.000995871
0.000310445
0.000944481
0.000324784
0.000890512
0.000338232
0.000834103
0.000350757
0.000775391
0.000362316
0.000714528
0.00037288
0.000651668
0.000382414
0.000586973
0.000390895
0.000520608
0.000398292
0.00045274
0.000404588
0.000383537
0.000409758
0.000313166
0.000413789
0.000241791
0.00041666
0.000169574
0.000418362
9.66773e-05
2.23582e-05
0.000418881
2.07629e-05
0.00137048
9.35845e-08
4.18793e-05
0.00136334
6.3107e-05
0.00135311
8.42764e-05
0.00133994
0.000105279
0.00132355
0.000126008
0.0013038
0.000146405
0.00128061
0.000166391
0.00125407
0.000185926
0.00122419
0.000204942
0.00119111
0.000223403
0.00115486
0.000241248
0.00111555
0.000258443
0.00107325
0.000274929
0.00102808
0.000290674
0.000980139
0.000305622
0.00092954
0.00031974
0.000876405
0.00033298
0.00082087
0.000345312
0.00076307
0.000356691
0.000703156
0.000367091
0.000641277
0.000376476
0.000577594
0.000384825
0.000512268
0.000392106
0.000445466
0.000398304
0.000377349
0.000403392
0.000308084
0.00040736
0.000237832
0.000410186
0.000166756
0.000411864
9.50099e-05
2.18577e-05
0.000412381
2.04309e-05
0.00134995
9.35463e-08
4.12109e-05
0.00134255
6.21011e-05
0.00133221
8.29356e-05
0.00131909
0.000103608
0.00130286
0.000124013
0.00128337
0.000144094
0.00126051
0.000163772
0.00123437
0.000183007
0.00120494
0.000201733
0.00117236
0.000219912
0.00113666
0.000237485
0.00109795
0.000254417
0.0010563
0.000270651
0.00101183
0.000286155
0.000964619
0.000300873
0.000914801
0.000314774
0.000862488
0.000327809
0.000807815
0.00033995
0.000750915
0.000351152
0.000691936
0.000361392
0.000631024
0.000370631
0.000568337
0.00037885
0.000504036
0.000386017
0.000438282
0.000392117
0.000371234
0.000397126
0.000303059
0.000401031
0.000233912
0.000403814
0.000163955
0.000405468
9.33388e-05
2.13202e-05
0.00040598
2.01029e-05
0.00132975
9.37108e-08
4.05514e-05
0.0013221
6.11091e-05
0.00131166
8.16137e-05
0.00129859
0.000101961
0.00128252
0.000122047
0.00126328
0.000141817
0.00124075
0.000161191
0.001215
0.000180133
0.00118601
0.000198572
0.00115392
0.000216475
0.00111878
0.00023378
0.00108065
0.000250453
0.00103964
0.000266439
0.000995848
0.000281704
0.000949367
0.000296196
0.000900317
0.000309883
0.000848814
0.000322717
0.000794988
0.000334671
0.000738973
0.0003457
0.000680914
0.00035578
0.000620954
0.000364876
0.000559248
0.000372967
0.000495955
0.000380023
0.000431232
0.000386028
0.000365238
0.000390958
0.000298135
0.000394802
0.000230077
0.000397542
0.000161224
0.000399171
9.1719e-05
2.08296e-05
0.000399678
1.97799e-05
0.00130987
9.37748e-08
3.99016e-05
0.00130197
6.01319e-05
0.00129142
8.03119e-05
0.00127839
0.000100339
0.00126248
0.000120111
0.00124349
0.000139575
0.00122127
0.000158651
0.0011959
0.000177302
0.00116734
0.00019546
0.00113574
0.000213089
0.00110113
0.00023013
0.00106359
0.000246549
0.00102321
0.000262291
0.000980085
0.000277322
0.00093432
0.000291592
0.000886027
0.000305068
0.000835322
0.000317704
0.000782333
0.000329473
0.000727191
0.000340332
0.000670038
0.000350256
0.000611016
0.000359211
0.000550276
0.000367176
0.000487976
0.000374122
0.00042427
0.000380034
0.000359314
0.000384886
0.000293266
0.00038867
0.000226279
0.000391367
0.000158509
0.000392973
9.00962e-05
2.03047e-05
0.000393473
1.94617e-05
0.00129032
9.38235e-08
3.92621e-05
0.00128217
5.91702e-05
0.00127152
7.90308e-05
0.00125853
9.87425e-05
0.00124278
0.000118206
0.00122403
0.000137368
0.00120212
0.000156151
0.00117713
0.000174515
0.00114899
0.000192396
0.00111787
0.000209756
0.00108379
0.000226538
0.00104682
0.000242706
0.00100705
0.000258206
0.000964593
0.000273008
0.000919533
0.000287058
0.000871986
0.000300328
0.000822066
0.000312769
0.0007699
0.000324356
0.000715616
0.000335047
0.000659355
0.000344818
0.000601256
0.000353634
0.000541467
0.000361476
0.000480144
0.000368313
0.000417439
0.000374133
0.000353504
0.000378909
0.000288495
0.000382635
0.000222563
0.00038529
0.000155861
0.000386872
8.8524e-05
1.98266e-05
0.000387365
1.91489e-05
0.00127107
9.37389e-08
3.86329e-05
0.00126267
5.82243e-05
0.00125192
7.77706e-05
0.00123897
9.71723e-05
0.00122336
0.000116332
0.00120485
0.000135197
0.00118324
0.00015369
0.00115861
0.000171773
0.00113089
0.00018938
0.00110024
0.000206475
0.00106668
0.000223
0.00103027
0.000238922
0.000991118
0.000254185
0.00094931
0.00026876
0.000904944
0.000282595
0.000858132
0.000295661
0.000808987
0.00030791
0.000757632
0.000319319
0.000704195
0.000329844
0.000648812
0.000339464
0.000591623
0.000348143
0.000532772
0.000355864
0.000472412
0.000362595
0.000410692
0.000368324
0.000347762
0.000373026
0.000283776
0.000376693
0.000218882
0.000379307
0.000153229
0.000380866
8.69491e-05
1.93158e-05
0.000381351
1.88411e-05
0.00125214
9.36133e-08
3.80143e-05
0.00124351
5.72941e-05
0.00123265
7.65313e-05
0.00121974
9.56279e-05
0.00120428
0.000114489
0.00118599
0.000133061
0.00116468
0.000151268
0.00114041
0.000169074
0.0011131
0.000186411
0.00108291
0.000203246
0.00104986
0.000219518
0.00101401
0.000235197
0.000975456
0.000250227
0.00093429
0.000264579
0.000890608
0.000278201
0.000844519
0.000291066
0.000796135
0.000303127
0.000745579
0.00031436
0.000692974
0.000324722
0.000638457
0.000334194
0.000582163
0.000342738
0.000524234
0.000350339
0.000464821
0.000356966
0.000404071
0.000362605
0.000342131
0.000367234
0.000279153
0.000370845
0.000215281
0.000373418
0.000150662
0.000374953
8.54239e-05
1.88512e-05
0.000375432
1.85387e-05
0.0012335
9.34089e-08
3.74061e-05
0.00122463
5.63796e-05
0.00121366
7.53128e-05
0.00120079
9.41092e-05
0.00118547
0.000112676
0.00116741
0.000130959
0.00114638
0.000148886
0.00112246
0.000166418
0.00109556
0.00018349
0.00106582
0.000200067
0.00103327
0.00021609
0.000997967
0.000231529
0.000960003
0.000246329
0.00091947
0.000260461
0.000876462
0.000273875
0.000831088
0.000286542
0.000783455
0.000298417
0.000733686
0.000309477
0.000681902
0.00031968
0.000628238
0.000329005
0.000572825
0.000337417
0.000515805
0.000344901
0.000457326
0.000351424
0.000397532
0.000356976
0.000336567
0.000361533
0.000274579
0.000365087
0.000211713
0.000367621
0.000148111
0.000369133
8.38961e-05
1.83549e-05
0.000369604
1.82414e-05
0.00121517
9.31729e-08
3.68082e-05
0.00120607
5.54805e-05
0.001195
7.41147e-05
0.00118216
9.26158e-05
0.00116698
0.000110893
0.00114914
0.000128892
0.0011284
0.000146542
0.00110482
0.000163804
0.00107831
0.000180614
0.00104902
0.000196938
0.00101696
0.000212716
0.000982199
0.000227919
0.000944817
0.000242493
0.000904907
0.000256408
0.000862563
0.000269616
0.00081789
0.000282089
0.000770997
0.000293781
0.000722002
0.000304671
0.000671026
0.000314716
0.0006182
0.000323897
0.000563655
0.000332179
0.00050753
0.000339547
0.000449969
0.000345969
0.000391115
0.000351435
0.00033111
0.000355921
0.000270099
0.00035942
0.000208223
0.000361915
0.000145623
0.000363403
8.2417e-05
1.79039e-05
0.000363868
1.79492e-05
0.00119712
9.29225e-08
3.62205e-05
0.00118778
5.45967e-05
0.00117661
7.29368e-05
0.0011638
9.11474e-05
0.00114875
0.000109139
0.00113113
0.000126859
0.00111066
0.000144236
0.00108743
0.000161232
0.0010613
0.000177785
0.00103245
0.000193858
0.00100088
0.000209395
0.000966644
0.000224365
0.000929834
0.000238716
0.000890538
0.000252418
0.000848848
0.000265423
0.000804868
0.000277704
0.000758703
0.000289217
0.000710472
0.000299939
0.000660292
0.000309829
0.000608294
0.000318869
0.000554604
0.000327023
0.000499359
0.000334276
0.000442704
0.000340599
0.000384776
0.000345981
0.000325716
0.000350397
0.000265666
0.000353842
0.000204765
0.000356298
0.000143149
0.000357763
8.09351e-05
1.74221e-05
0.00035822
1.76619e-05
0.00117937
9.26522e-08
3.56429e-05
0.00116982
5.37279e-05
0.00115854
7.17787e-05
0.00114576
8.97034e-05
0.00113084
0.000107414
0.00111343
0.000124859
0.00109323
0.000141967
0.00107033
0.000158702
0.00104458
0.000175
0.00101617
0.000190827
0.000985067
0.000206126
0.000951356
0.000220867
0.000915111
0.000234997
0.000876419
0.00024849
0.000835372
0.000261295
0.000792073
0.000273388
0.000746625
0.000284723
0.000699145
0.000295281
0.000649748
0.000305018
0.000598563
0.000313919
0.000545715
0.000321947
0.000491338
0.000329088
0.000435573
0.000335313
0.000378557
0.000340611
0.000320427
0.000344959
0.000261324
0.00034835
0.000201382
0.000350768
0.000140737
0.000352211
7.9501e-05
1.69848e-05
0.000352662
1.73797e-05
0.00116189
9.24202e-08
3.5075e-05
0.00115211
5.28738e-05
0.00114073
7.06401e-05
0.00112798
8.82835e-05
0.00111319
0.000105717
0.00109597
0.000122891
0.00107604
0.000139735
0.00105346
0.000156212
0.00102809
0.000172259
0.0010001
0.000187844
0.000969471
0.000202908
0.000936274
0.000217424
0.000900583
0.000231337
0.000862487
0.000244624
0.000822074
0.000257232
0.000779447
0.000269139
0.000734706
0.0002803
0.000687967
0.000290695
0.000639343
0.000300283
0.00058896
0.000309046
0.000536941
0.00031695
0.000483418
0.000323981
0.000428531
0.000330109
0.000372413
0.000335325
0.000315199
0.000339606
0.000257027
0.000342945
0.000198029
0.000345325
0.000138339
0.000346746
7.80638e-05
1.65172e-05
0.000347189
1.71021e-05
0.00114471
9.21704e-08
3.45168e-05
0.0011347
5.2034e-05
0.00112323
6.95205e-05
0.0011105
8.68871e-05
0.00109583
0.000104049
0.00107882
0.000120956
0.00105915
0.000137539
0.00103689
0.000153762
0.00101189
0.000169562
0.000984312
0.000184907
0.000954145
0.000199741
0.000921453
0.000214034
0.000886308
0.000227735
0.000848798
0.000240817
0.000809009
0.000253232
0.000767042
0.000264956
0.000722997
0.000275945
0.000676986
0.000286181
0.000629121
0.00029562
0.000579527
0.000304249
0.000528325
0.00031203
0.000475642
0.000318953
0.000421619
0.000324987
0.000366385
0.000330122
0.000310072
0.000334336
0.000252818
0.000337624
0.000194751
0.000339967
0.000136001
0.000341366
7.66734e-05
1.60933e-05
0.000341802
1.68294e-05
0.00112777
9.19952e-08
3.3968e-05
0.00111755
5.12084e-05
0.00110597
6.84196e-05
0.00109328
8.55139e-05
0.00107873
0.000102408
0.00106191
0.000119052
0.0010425
0.000135378
0.00102055
0.000151351
0.000995903
0.000166908
0.000968737
0.000182018
0.000939025
0.000196624
0.000906829
0.000210698
0.000872223
0.000224188
0.00083529
0.00023707
0.000796117
0.000249294
0.000754801
0.000260839
0.000711441
0.000271659
0.000666149
0.000281737
0.000619033
0.000291031
0.000570217
0.000299526
0.000519818
0.000307188
0.000467965
0.000314004
0.000414792
0.000319944
0.000360428
0.000325
0.000305004
0.000329149
0.000248652
0.000332386
0.000191501
0.000334693
0.000133676
0.00033607
7.52797e-05
1.56396e-05
0.000336499
1.6561e-05
0.00111113
9.17999e-08
3.34285e-05
0.0011007
5.03966e-05
0.00108902
6.7337e-05
0.00107635
8.41633e-05
0.00106191
0.000100794
0.00104529
0.000117179
0.00102613
0.000133252
0.00100449
0.000148978
0.000980196
0.000164296
0.000953432
0.000179174
0.000924167
0.000193555
0.000892461
0.000207414
0.000858384
0.000220697
0.000822019
0.000233381
0.00078345
0.000245418
0.000742775
0.000256785
0.000700089
0.000267439
0.000655503
0.000277362
0.000609125
0.000286513
0.000561073
0.000294878
0.000511466
0.000302421
0.000460427
0.000309132
0.000408092
0.00031498
0.000354585
0.000319958
0.000300035
0.000324043
0.000244573
0.000327229
0.000188322
0.000329501
0.00013141
0.000330857
7.39317e-05
1.52288e-05
0.000331279
1.62974e-05
0.00109473
9.17047e-08
3.28979e-05
0.00108408
4.95984e-05
0.00107231
6.62724e-05
0.00105966
8.2835e-05
0.00104534
9.92057e-05
0.0010289
0.000115336
0.00100998
0.000131161
0.000988644
0.000146644
0.000964701
0.000161726
0.000938333
0.000176374
0.000909508
0.000190535
0.000878283
0.000204181
0.000844727
0.00021726
0.000808922
0.00022975
0.00077095
0.000241602
0.000730906
0.000252795
0.000688886
0.000263285
0.000644996
0.000273055
0.000599344
0.000282065
0.000552047
0.000290301
0.000503219
0.000297728
0.000452984
0.000304336
0.000401473
0.000310094
0.000348811
0.000314995
0.000295121
0.000319016
0.000240534
0.000322154
0.000185171
0.00032439
0.000129155
0.000325725
7.25802e-05
1.47888e-05
0.00032614
1.6038e-05
0.00107862
9.15808e-08
3.23762e-05
0.00106776
4.88134e-05
0.00105589
6.52253e-05
0.00104326
8.15285e-05
0.00102905
9.76438e-05
0.0010128
0.000113523
0.000994122
0.000129103
0.000973077
0.000144346
0.000949476
0.000159196
0.000923498
0.000173619
0.000895105
0.000187563
0.000864353
0.000200999
0.00083131
0.000213877
0.000796055
0.000226176
0.00075867
0.000237845
0.000719247
0.000248867
0.000677881
0.000259195
0.000634676
0.000268816
0.000589738
0.000277687
0.000543183
0.000285797
0.000495122
0.000293109
0.000445677
0.000299615
0.000394979
0.000305284
0.000343147
0.00031011
0.000290305
0.000314068
0.00023658
0.000317158
0.000182091
0.000319359
0.000126958
0.000320674
7.12734e-05
1.43908e-05
0.000321083
1.5783e-05
0.00106273
9.15733e-08
3.18632e-05
0.00105166
4.80414e-05
0.00103969
6.41955e-05
0.00102709
8.02434e-05
0.00101299
9.61072e-05
0.000996918
0.00011174
0.000978476
0.000127078
0.000957722
0.000142086
0.000934456
0.000156706
0.000908861
0.000170908
0.000880893
0.000184637
0.000850608
0.000197867
0.00081807
0.000210548
0.000783358
0.000222658
0.00074655
0.000234148
0.00070774
0.000245
0.000667019
0.00025517
0.00062449
0.000264643
0.000580256
0.000273377
0.000534431
0.000281362
0.000487127
0.000288561
0.000438461
0.000294967
0.000388562
0.000300549
0.000337549
0.0003053
0.000285541
0.000309198
0.000232664
0.00031224
0.000179036
0.000314407
0.000124772
0.000315701
6.99627e-05
1.39639e-05
0.000316103
1.55321e-05
0.00104712
9.1528e-08
3.13586e-05
0.00103585
4.72821e-05
0.00102379
6.31826e-05
0.0010112
7.89792e-05
0.00099721
9.45955e-05
0.000981314
0.000109985
0.000963104
0.000125085
0.000942635
0.000139861
0.000919699
0.000154256
0.00089448
0.000168239
0.000866931
0.000181757
0.000837104
0.000194784
0.000805063
0.00020727
0.000770884
0.000219194
0.000734645
0.000230508
0.000696437
0.000241194
0.000656349
0.000251207
0.000614485
0.000260534
0.000570944
0.000269135
0.000525838
0.000276997
0.000479278
0.000284085
0.000431378
0.000290393
0.000382266
0.000295888
0.000332058
0.000300566
0.000280872
0.000304404
0.000228831
0.000307398
0.000176049
0.000309532
0.000122643
0.000310806
6.86959e-05
1.35784e-05
0.000311202
1.52855e-05
0.00103173
9.16112e-08
3.08624e-05
0.00102026
4.65353e-05
0.0010081
6.21863e-05
0.000995532
7.77357e-05
0.000981647
9.31084e-05
0.000965924
0.000108258
0.000947941
0.000123124
0.000927752
0.000137672
0.00090514
0.000151845
0.000880291
0.000165613
0.000853154
0.000178923
0.000823778
0.00019175
0.000792226
0.000204044
0.000758573
0.000215785
0.000722895
0.000226925
0.00068528
0.000237447
0.000645818
0.000247306
0.000604608
0.00025649
0.00056175
0.000264958
0.000517354
0.0002727
0.000471527
0.000279679
0.000424382
0.000285889
0.000376045
0.0002913
0.000326631
0.000295906
0.000276254
0.000299684
0.000225035
0.000302633
0.000173087
0.000304734
0.000120523
0.000305988
6.74248e-05
1.31644e-05
0.000306377
1.50427e-05
0.00101661
9.16445e-08
3.03743e-05
0.00100494
4.58008e-05
0.000992692
6.12062e-05
0.000980141
7.65124e-05
0.000966358
9.16453e-05
0.000950805
0.00010656
0.000933045
0.000121195
0.000913131
0.000135518
0.000890837
0.000149472
0.000866352
0.000163028
0.00083962
0.000176133
0.000810687
0.000188763
0.000779617
0.000200868
0.00074648
0.000212429
0.000711353
0.000223398
0.000674322
0.000233758
0.000635475
0.000243466
0.000594909
0.00025251
0.000552722
0.000260847
0.000509023
0.00026847
0.000463917
0.000275341
0.000417515
0.000281456
0.000369942
0.000286784
0.000321308
0.000291319
0.000271727
0.000295039
0.000221319
0.000297942
0.000170192
0.00030001
0.000118459
0.000301246
6.61967e-05
1.27911e-05
0.000301628
1.48041e-05
0.0010017
9.18134e-08
2.98942e-05
0.000989839
4.50782e-05
0.000977496
6.02422e-05
0.000964961
7.53088e-05
0.000951278
9.02058e-05
0.000935891
0.000104888
0.000918349
0.000119297
0.000898706
0.000133398
0.000876724
0.000147137
0.000852597
0.000160484
0.000826263
0.000173387
0.000797768
0.000185823
0.000767171
0.000197742
0.000734544
0.000209126
0.00069996
0.000219926
0.000663505
0.000230128
0.000625264
0.000239686
0.000585333
0.000248591
0.000543809
0.0002568
0.000500797
0.000264306
0.000456402
0.000271072
0.000410732
0.000277093
0.00036391
0.000282338
0.000316045
0.000286804
0.000267249
0.000290466
0.000217638
0.000293325
0.00016732
0.000295361
0.000116403
0.000296577
6.4964e-05
1.23895e-05
0.000296953
1.45692e-05
0.000987058
9.19219e-08
2.94219e-05
0.000975002
4.43674e-05
0.000962568
5.92937e-05
0.000950049
7.41248e-05
0.000936464
8.87894e-05
0.00092124
0.000103243
0.000903913
0.000117428
0.000884535
0.000131312
0.000862862
0.000144838
0.000839087
0.00015798
0.000813144
0.000170685
0.000785078
0.00018293
0.000754947
0.000194665
0.000722821
0.000205875
0.000688771
0.000216509
0.000652882
0.000226554
0.000615236
0.000235965
0.00057593
0.000244733
0.000535056
0.000252817
0.000492721
0.000260207
0.000449024
0.000266869
0.000404075
0.000272797
0.000357993
0.000277962
0.000310885
0.000282359
0.000262861
0.000285965
0.000214035
0.00028878
0.000164513
0.000290784
0.000114402
0.000291981
6.37735e-05
1.20281e-05
0.000292352
1.43382e-05
0.000972617
9.21723e-08
2.89573e-05
0.000960369
4.36681e-05
0.000947844
5.83606e-05
0.000935342
7.29598e-05
0.000921851
8.73958e-05
0.000906788
0.000101625
0.000889671
0.00011559
0.000870554
0.000129259
0.000849182
0.000142576
0.000825753
0.000155515
0.000800195
0.000168025
0.000772553
0.000180081
0.000742881
0.000191637
0.000711249
0.000202674
0.000677726
0.000213145
0.000642394
0.000223036
0.000605336
0.000232303
0.000566645
0.000240936
0.000526414
0.000248895
0.000484745
0.000256172
0.000441738
0.000262731
0.000397498
0.000268569
0.000352145
0.000273654
0.000305783
0.000277984
0.00025852
0.000281534
0.000210467
0.000284305
0.000161728
0.000286279
0.000112409
0.000287458
6.2578e-05
1.16385e-05
0.000287822
1.41109e-05
0.000958429
9.23502e-08
2.85002e-05
0.000945996
4.29802e-05
0.000933382
5.74425e-05
0.000920894
7.18136e-05
0.000907498
8.60246e-05
0.000892591
0.000100033
0.000875682
0.000113781
0.000856821
0.000127238
0.000835746
0.00014035
0.000812657
0.00015309
0.000787479
0.000165406
0.000760252
0.000177278
0.000731032
0.000188656
0.000699884
0.000199524
0.000666878
0.000209834
0.000632095
0.000219573
0.000595615
0.000228697
0.000557529
0.000237199
0.000517928
0.000245035
0.000476915
0.000252201
0.000434585
0.000258659
0.000391044
0.000264407
0.000346408
0.000269414
0.00030078
0.000273677
0.000254265
0.000277172
0.000206974
0.000279902
0.000159007
0.000281845
0.000110468
0.000283005
6.1424e-05
1.12887e-05
0.000283363
1.38873e-05
0.000944438
9.26732e-08
2.80505e-05
0.000931818
4.23033e-05
0.000919117
5.65393e-05
0.000906643
7.06858e-05
0.000893338
8.46753e-05
0.000878585
9.84655e-05
0.000861878
0.000112001
0.000843269
0.00012525
0.000822486
0.000138159
0.000799732
0.000150703
0.000774926
0.00016283
0.000748109
0.000174519
0.000719334
0.000185721
0.000688665
0.000196423
0.000656169
0.000206574
0.000621927
0.000216164
0.000586016
0.000225149
0.000548527
0.000233519
0.000509549
0.000241236
0.000469182
0.000248291
0.00042752
0.00025465
0.000384668
0.00026031
0.000340738
0.00026524
0.000295833
0.000269438
0.000250055
0.000272879
0.000203513
0.000275567
0.000156307
0.00027748
0.000108535
0.000278623
6.02644e-05
1.09109e-05
0.000278974
1.36672e-05
0.000930693
9.29141e-08
2.7608e-05
0.000917894
4.16374e-05
0.000905106
5.56506e-05
0.000892645
6.95761e-05
0.000879431
8.33476e-05
0.000864828
9.69235e-05
0.000848322
0.000110249
0.000829959
0.000123293
0.000809464
0.000136003
0.000787039
0.000148353
0.0007626
0.000160293
0.000736185
0.000171803
0.000707846
0.000182833
0.000677647
0.00019337
0.000645653
0.000203366
0.000611942
0.000212809
0.000576591
0.000221655
0.000539689
0.000229898
0.000501322
0.000237496
0.00046159
0.000244443
0.000420586
0.000250704
0.00037841
0.000256278
0.000335176
0.000261131
0.000290982
0.000265265
0.000245931
0.000268654
0.000200127
0.0002713
0.000153669
0.000273183
0.000106654
0.000274308
5.91458e-05
1.05724e-05
0.000274655
1.34508e-05
0.000917138
9.33042e-08
2.71727e-05
0.000904159
4.09822e-05
0.000891284
5.47761e-05
0.000878836
6.84842e-05
0.000865709
8.20412e-05
0.000851255
9.5406e-05
0.000834944
0.000108525
0.000816824
0.000121367
0.000796611
0.000133881
0.000774509
0.000146041
0.000750431
0.000157797
0.000724413
0.000169129
0.000696505
0.00017999
0.00066677
0.000190366
0.00063527
0.000200208
0.000602083
0.000209506
0.000567284
0.000218217
0.000530961
0.000226333
0.000493198
0.000233814
0.000454092
0.000240655
0.000413736
0.00024682
0.000372227
0.000252308
0.000329678
0.000257087
0.000286185
0.000261158
0.000241848
0.000264494
0.000196771
0.0002671
0.00015105
0.000268954
0.00010478
0.000270062
5.80211e-05
1.0206e-05
0.000270402
1.32376e-05
0.000903823
9.36016e-08
2.67443e-05
0.000890669
4.03375e-05
0.000877709
5.39157e-05
0.000865274
6.74097e-05
0.000852233
8.07555e-05
0.000837924
9.39126e-05
0.000821806
0.000106828
0.000803926
0.000119471
0.00078399
0.000131792
0.000762206
0.000143765
0.000738482
0.00015534
0.000712854
0.000166498
0.000685369
0.000177192
0.000656089
0.000187408
0.000625075
0.000197099
0.000592403
0.000206255
0.000558147
0.000214832
0.000522392
0.000222824
0.000485222
0.00023019
0.000446732
0.000236926
0.000407013
0.000242997
0.000366161
0.000248401
0.000324286
0.000253107
0.000281483
0.000257115
0.000237849
0.0002604
0.000193488
0.000262965
0.000148492
0.000264791
0.000102956
0.000265882
5.69367e-05
9.87844e-06
0.000266217
1.30281e-05
0.00089069
9.40492e-08
2.63228e-05
0.00087736
3.97031e-05
0.000864317
5.3069e-05
0.000851893
6.63524e-05
0.000838936
7.94904e-05
0.00082477
9.2443e-05
0.00080884
0.000105158
0.000791194
0.000117606
0.000771531
0.000129736
0.00075006
0.000141524
0.000726685
0.000152921
0.000701441
0.000163908
0.000674374
0.000174438
0.000645543
0.000184497
0.000615008
0.00019404
0.000582844
0.000203055
0.000549123
0.0002115
0.000513929
0.00021937
0.000477344
0.000226623
0.000439462
0.000233256
0.00040037
0.000239233
0.000360165
0.000244555
0.000318954
0.000249188
0.000276831
0.000253135
0.00023389
0.00025637
0.000190234
0.000258896
0.000145952
0.000260693
0.000101138
0.000261767
5.58459e-05
9.52312e-06
0.000262096
1.28217e-05
0.00087779
9.43974e-08
2.59081e-05
0.000864291
3.90788e-05
0.000851165
5.22358e-05
0.000838752
6.53119e-05
0.000825879
7.82453e-05
0.000811852
9.09967e-05
0.000796109
0.000103514
0.000778693
0.00011577
0.000759298
0.000127713
0.000738135
0.00013932
0.000715104
0.000150541
0.000690237
0.000161359
0.000663579
0.000171727
0.000635189
0.000181632
0.000605125
0.000191028
0.00057346
0.000199905
0.000540264
0.000208221
0.000505622
0.00021597
0.000469611
0.000223112
0.000432326
0.000229643
0.000393852
0.000235529
0.000354283
0.000240769
0.000313726
0.000245331
0.000272271
0.000249218
0.000230013
0.000252403
0.00018705
0.00025489
0.000143473
0.00025666
9.93699e-05
0.000257718
5.47948e-05
9.20624e-06
0.000258041
1.26187e-05
0.000865066
9.48981e-08
2.54999e-05
0.000851396
3.84645e-05
0.000838188
5.1416e-05
0.000825786
6.4288e-05
0.000812993
7.70201e-05
0.000799104
8.95734e-05
0.000783542
0.000101897
0.000766353
0.000113963
0.000747221
0.000125722
0.00072636
0.00013715
0.000703667
0.000148198
0.000679172
0.00015885
0.000652919
0.000169058
0.000624963
0.000178812
0.000595364
0.000188063
0.000564191
0.000196805
0.000531514
0.000204993
0.000497416
0.000212623
0.000461973
0.000219656
0.000425276
0.000226087
0.000387411
0.000231882
0.000348469
0.000237042
0.000308556
0.000241535
0.00026776
0.000245362
0.000226174
0.000248498
0.000183894
0.000250948
0.000141009
0.00025269
9.76066e-05
0.000253731
5.37367e-05
8.86167e-06
0.000254049
1.24188e-05
0.000852568
9.52948e-08
2.50983e-05
0.000838734
3.786e-05
0.000825445
5.06091e-05
0.000813053
6.32804e-05
0.00080034
7.58143e-05
0.000786586
8.81726e-05
0.000771204
0.000100305
0.000754237
0.000112185
0.000735365
0.000123762
0.000714802
0.000135014
0.000692441
0.000145892
0.000668311
0.000156381
0.000642454
0.000166432
0.000614926
0.000176036
0.000585782
0.000185145
0.000555093
0.000193753
0.000522926
0.000201815
0.000489361
0.000209329
0.000454475
0.000216254
0.000418358
0.000222587
0.000381091
0.000228293
0.000342766
0.000233374
0.000303486
0.000237798
0.000263339
0.000241567
0.000222414