/*--------------------------------*- C++ -*----------------------------------*\
  =========                 |
  \\      /  F ield         | OpenFOAM: The Open Source CFD Toolbox
   \\    /   O peration     | Website:  https://openfoam.org
    \\  /    A nd           | Version:  6.0
     \\/     M anipulation  |
\*---------------------------------------------------------------------------*/
FoamFile
{
    version     2.0;
    format      ascii;
    class       volScalarField;
    location    "13";
    object      p;
}
// * * * * * * * * * * * * * * * * * * * * * * * * * * * * * * * * * * * * * //

dimensions      [0 2 -2 0 0 0 0];

internalField   nonuniform List<scalar> 
34500
(
1.00539
1.00491
1.00534
1.00597
1.00588
1.00511
1.00451
1.00427
1.00422
1.004
1.00354
1.00294
1.00214
1.00169
1.00148
1.00539
1.0049
1.00535
1.00607
1.00607
1.00531
1.00466
1.00442
1.00446
1.00438
1.00402
1.00345
1.00257
1.00218
1.00174
1.00538
1.00484
1.00519
1.00587
1.00585
1.00496
1.00404
1.00351
1.00336
1.00322
1.00291
1.00247
1.00176
1.00162
1.00122
1.00538
1.00479
1.00507
1.00578
1.00588
1.00504
1.00399
1.00321
1.0028
1.00252
1.00217
1.00177
1.00119
1.00123
1.00102
1.00538
1.00475
1.00498
1.00576
1.00609
1.00549
1.00452
1.00365
1.00306
1.00259
1.0021
1.00162
1.00104
1.00109
1.00091
1.00539
1.00469
1.00479
1.00554
1.00604
1.00572
1.00495
1.0041
1.00341
1.00278
1.00214
1.00154
1.00088
1.00089
1.00069
1.0054
1.00459
1.00445
1.00501
1.00552
1.00538
1.0048
1.00404
1.00333
1.00262
1.00188
1.0012
1.00052
1.00051
1.00036
1.00542
1.00447
1.00404
1.00428
1.00463
1.00454
1.00409
1.00344
1.00277
1.00205
1.00129
1.00062
0.999998
1.00005
1.00002
1.00546
1.00439
1.00366
1.00354
1.00363
1.00347
1.00308
1.00252
1.00192
1.00126
1.00056
0.999956
0.999451
0.999594
0.999709
1.00552
1.00437
1.00341
1.00294
1.00275
1.00246
1.00207
1.00157
1.00106
1.00047
0.999855
0.999351
0.998983
0.99922
0.999461
1.00559
1.00443
1.00331
1.00258
1.00213
1.00168
1.00125
1.00078
1.00033
0.99982
0.999284
0.998874
0.998627
0.998931
0.999254
1.00569
1.00455
1.00338
1.00248
1.00182
1.00122
1.00071
1.00025
0.999819
0.999364
0.99889
0.998547
0.998385
0.998717
0.999081
1.00581
1.00474
1.00357
1.00258
1.00178
1.00105
1.00046
0.999962
0.999532
0.999096
0.998651
0.99834
0.998222
0.998546
0.998916
1.00593
1.00496
1.00385
1.00285
1.00195
1.00112
1.00045
0.999895
0.999432
0.998984
0.998534
0.998222
0.998112
0.998401
0.998753
1.00607
1.0052
1.00418
1.0032
1.00226
1.00135
1.0006
0.999976
0.999459
0.998971
0.99849
0.998148
0.99802
0.998257
0.998576
1.00621
1.00544
1.00453
1.0036
1.00264
1.00168
1.00085
1.00015
0.999562
0.999015
0.998483
0.998092
0.997929
0.998105
0.998386
1.00634
1.00567
1.00486
1.00399
1.00304
1.00203
1.00114
1.00036
0.999692
0.999074
0.998477
0.998027
0.99782
0.997934
0.998176
1.00648
1.0059
1.00517
1.00436
1.00342
1.00238
1.00142
1.00057
0.99982
0.999126
0.998459
0.997945
0.997692
0.997746
0.997951
1.00662
1.0061
1.00544
1.00468
1.00375
1.0027
1.00168
1.00075
0.99992
0.999149
0.998411
0.997834
0.997536
0.997535
0.997706
1.00676
1.00629
1.00568
1.00496
1.00404
1.00297
1.0019
1.0009
0.999988
0.999142
0.998336
0.997698
0.997358
0.997308
0.99745
1.00689
1.00646
1.00588
1.00519
1.00428
1.00318
1.00206
1.001
1.00002
0.999099
0.998228
0.997533
0.997156
0.997062
0.997177
1.00703
1.00662
1.00606
1.00538
1.00447
1.00335
1.00219
1.00106
1.00001
0.999026
0.998095
0.997349
0.996937
0.996805
0.996897
1.00717
1.00677
1.00621
1.00553
1.00461
1.00347
1.00227
1.00109
0.999969
0.998923
0.997936
0.997142
0.9967
0.996533
0.996603
1.00731
1.00692
1.00635
1.00566
1.00473
1.00357
1.00232
1.00108
0.999905
0.998801
0.997761
0.996923
0.996453
0.996254
0.996305
1.00745
1.00706
1.00648
1.00578
1.00483
1.00363
1.00235
1.00105
0.999818
0.998658
0.997569
0.99669
0.996193
0.995964
0.995997
1.0076
1.0072
1.0066
1.00588
1.00491
1.00368
1.00235
1.00101
0.999717
0.998505
0.997368
0.99645
0.995928
0.995671
0.995686
1.00775
1.00733
1.00672
1.00597
1.00498
1.00372
1.00234
1.00095
0.999604
0.99834
0.997157
0.9962
0.995654
0.995369
0.995366
1.00791
1.00748
1.00684
1.00607
1.00504
1.00375
1.00233
1.00089
0.999485
0.998171
0.996943
0.995948
0.995377
0.995066
0.995044
1.00807
1.00762
1.00696
1.00616
1.0051
1.00377
1.00231
1.00081
0.99936
0.997995
0.996722
0.99569
0.995093
0.994755
0.994715
1.00823
1.00777
1.00709
1.00626
1.00517
1.0038
1.00229
1.00074
0.999235
0.997819
0.996502
0.995431
0.994808
0.994444
0.994385
1.0084
1.00793
1.00722
1.00636
1.00524
1.00383
1.00227
1.00067
0.999106
0.99764
0.996276
0.995167
0.994518
0.994127
0.994048
1.00858
1.00809
1.00735
1.00647
1.00531
1.00386
1.00226
1.0006
0.998981
0.997463
0.996053
0.994905
0.994227
0.99381
0.993711
1.00876
1.00825
1.00749
1.00658
1.00539
1.0039
1.00224
1.00053
0.998854
0.997283
0.995826
0.994638
0.993931
0.993488
0.993368
1.00895
1.00842
1.00764
1.0067
1.00548
1.00394
1.00223
1.00046
0.998732
0.997107
0.995602
0.994372
0.993636
0.993165
0.993027
1.00914
1.0086
1.00779
1.00683
1.00557
1.00399
1.00223
1.0004
0.998609
0.996929
0.995374
0.994103
0.993336
0.992838
0.992679
1.00934
1.00879
1.00796
1.00696
1.00567
1.00404
1.00223
1.00034
0.998491
0.996754
0.99515
0.993835
0.993036
0.992511
0.992334
1.00955
1.00898
1.00812
1.0071
1.00578
1.0041
1.00223
1.00029
0.998372
0.996579
0.994923
0.993564
0.992731
0.99218
0.991983
1.00976
1.00917
1.0083
1.00725
1.00589
1.00417
1.00224
1.00024
0.998259
0.996407
0.994698
0.993294
0.992427
0.991849
0.991636
1.00998
1.00938
1.00848
1.00741
1.00601
1.00424
1.00226
1.00019
0.998146
0.996234
0.994472
0.993021
0.992119
0.991513
0.991283
1.0102
1.00959
1.00867
1.00757
1.00614
1.00432
1.00228
1.00014
0.998039
0.996066
0.994248
0.99275
0.991811
0.991178
0.990933
1.01043
1.00981
1.00886
1.00774
1.00628
1.00441
1.0023
1.0001
0.997932
0.995896
0.994022
0.992475
0.9915
0.990838
0.990577
1.01067
1.01003
1.00906
1.00792
1.00642
1.0045
1.00234
1.00007
0.99783
0.99573
0.993799
0.992202
0.991189
0.990499
0.990225
1.01091
1.01026
1.00927
1.0081
1.00657
1.0046
1.00237
1.00004
0.997729
0.995564
0.993573
0.991926
0.990873
0.990156
0.989865
1.01116
1.0105
1.00949
1.0083
1.00673
1.00471
1.00242
1.00002
0.997634
0.995402
0.993351
0.991652
0.990559
0.989813
0.989508
1.01141
1.01075
1.00971
1.0085
1.0069
1.00482
1.00247
0.999994
0.997539
0.995239
0.993126
0.991374
0.99024
0.989465
0.989144
1.01168
1.01101
1.00995
1.00871
1.00707
1.00495
1.00253
0.999979
0.997451
0.995081
0.992906
0.991098
0.989922
0.989118
0.988782
1.01195
1.01127
1.01019
1.00893
1.00726
1.00508
1.00259
0.999967
0.997364
0.994922
0.992682
0.990819
0.9896
0.988765
0.988413
1.01223
1.01154
1.01044
1.00916
1.00745
1.00522
1.00266
0.999963
0.997283
0.994768
0.992463
0.990542
0.989279
0.988413
0.988045
1.01252
1.01182
1.0107
1.00939
1.00765
1.00536
1.00273
0.999962
0.997203
0.994614
0.992241
0.990262
0.988954
0.988056
0.98767
1.01281
1.01211
1.01097
1.00964
1.00786
1.00552
1.00282
0.99997
0.99713
0.994465
0.992022
0.989984
0.988629
0.987699
0.987296
1.01312
1.01241
1.01124
1.00989
1.00808
1.00568
1.00291
0.99998
0.997058
0.994315
0.991802
0.989702
0.9883
0.987337
0.986914
1.01343
1.01271
1.01153
1.01016
1.00831
1.00585
1.00301
0.999999
0.996993
0.994171
0.991586
0.989423
0.987972
0.986975
0.986533
1.01375
1.01303
1.01182
1.01043
1.00854
1.00603
1.00311
1.00002
0.99693
0.994026
0.991367
0.98914
0.987639
0.986607
0.986144
1.01408
1.01335
1.01213
1.01072
1.00879
1.00622
1.00323
1.00005
0.996874
0.993887
0.991152
0.98886
0.987307
0.986239
0.985756
1.01442
1.01369
1.01244
1.01101
1.00905
1.00642
1.00335
1.00009
0.99682
0.993748
0.990936
0.988576
0.986971
0.985865
0.985359
1.01477
1.01403
1.01277
1.01132
1.00932
1.00663
1.00349
1.00013
0.996774
0.993615
0.990723
0.988294
0.986635
0.985491
0.984964
1.01512
1.01439
1.01311
1.01164
1.0096
1.00685
1.00362
1.00018
0.99673
0.993481
0.990509
0.988009
0.986294
0.985111
0.984559
1.01549
1.01475
1.01346
1.01197
1.00989
1.00708
1.00378
1.00024
0.996694
0.993354
0.990298
0.987726
0.985955
0.984731
0.984156
1.01587
1.01513
1.01382
1.01231
1.0102
1.00732
1.00393
1.00031
0.99666
0.993227
0.990086
0.98744
0.98561
0.984345
0.983744
1.01625
1.01552
1.01419
1.01266
1.01051
1.00758
1.0041
1.00038
0.996635
0.993106
0.989878
0.987156
0.985266
0.983958
0.983332
1.01665
1.01591
1.01457
1.01303
1.01084
1.00784
1.00428
1.00046
0.996612
0.992985
0.989668
0.986869
0.984917
0.983565
0.982911
1.01706
1.01632
1.01497
1.01341
1.01118
1.00811
1.00447
1.00055
0.996598
0.992872
0.989463
0.986584
0.984569
0.983172
0.982491
1.01748
1.01674
1.01538
1.0138
1.01153
1.0084
1.00466
1.00064
0.996586
0.992758
0.989256
0.986295
0.984216
0.982772
0.982063
1.01791
1.01718
1.0158
1.0142
1.0119
1.0087
1.00487
1.00075
0.996584
0.992651
0.989053
0.986009
0.983863
0.982372
0.981634
1.01835
1.01762
1.01623
1.01462
1.01228
1.00901
1.00509
1.00086
0.996585
0.992544
0.988849
0.985719
0.983506
0.981965
0.981197
1.0188
1.01808
1.01668
1.01505
1.01267
1.00933
1.00532
1.00099
0.996595
0.992445
0.988649
0.985432
0.983149
0.981558
0.98076
1.01926
1.01854
1.01714
1.0155
1.01308
1.00967
1.00556
1.00112
0.996608
0.992346
0.988447
0.985141
0.982787
0.981144
0.980314
1.01974
1.01903
1.01761
1.01596
1.0135
1.01002
1.00582
1.00126
0.996632
0.992255
0.988251
0.984853
0.982425
0.98073
0.979868
1.02023
1.01952
1.0181
1.01644
1.01394
1.01038
1.00608
1.00141
0.996658
0.992164
0.988052
0.98456
0.982059
0.98031
0.979414
1.02073
1.02003
1.0186
1.01693
1.01439
1.01076
1.00636
1.00157
0.996695
0.992081
0.987858
0.984271
0.981693
0.979888
0.978959
1.02124
1.02055
1.01912
1.01743
1.01485
1.01115
1.00665
1.00173
0.996735
0.991998
0.987663
0.983978
0.981321
0.97946
0.978496
1.02176
1.02108
1.01965
1.01796
1.01534
1.01156
1.00695
1.00191
0.996786
0.991923
0.987473
0.983688
0.980951
0.979032
0.978032
1.0223
1.02163
1.0202
1.01849
1.01583
1.01198
1.00726
1.0021
0.996841
0.991849
0.987281
0.983393
0.980575
0.978597
0.97756
1.02285
1.0222
1.02076
1.01905
1.01635
1.01242
1.00759
1.0023
0.996907
0.991783
0.987094
0.983102
0.9802
0.978161
0.977087
1.02341
1.02277
1.02134
1.01962
1.01688
1.01287
1.00793
1.00251
0.996976
0.991718
0.986905
0.982806
0.979819
0.977718
0.976606
1.02399
1.02336
1.02194
1.02021
1.01743
1.01334
1.00828
1.00273
0.997057
0.991662
0.986723
0.982514
0.979439
0.977275
0.976124
1.02458
1.02397
1.02254
1.02081
1.01799
1.01381
1.00865
1.00296
0.997142
0.991606
0.986538
0.982218
0.979053
0.976824
0.975634
1.02519
1.02459
1.02317
1.02144
1.01857
1.01432
1.00903
1.00321
0.997239
0.991559
0.986359
0.981924
0.978669
0.976374
0.975142
1.0258
1.02522
1.02381
1.02207
1.01917
1.01483
1.00942
1.00346
0.99734
0.991513
0.986178
0.981627
0.978278
0.975916
0.974642
1.02644
1.02587
1.02447
1.02273
1.01979
1.01536
1.00984
1.00372
0.997453
0.991476
0.986003
0.981333
0.977889
0.975458
0.974142
1.02708
1.02654
1.02515
1.02341
1.02042
1.01591
1.01026
1.004
0.99757
0.99144
0.985826
0.981035
0.977494
0.974992
0.973632
1.02774
1.02722
1.02584
1.0241
1.02107
1.01647
1.0107
1.00429
0.997701
0.991414
0.985655
0.98074
0.9771
0.974526
0.973122
1.02841
1.02792
1.02655
1.02481
1.02174
1.01705
1.01115
1.00459
0.997835
0.991388
0.985482
0.980441
0.9767
0.974053
0.972603
1.02911
1.02863
1.02729
1.02555
1.02243
1.01765
1.01162
1.0049
0.997982
0.991372
0.985316
0.980145
0.976301
0.973579
0.972082
1.02981
1.02936
1.02803
1.0263
1.02314
1.01827
1.0121
1.00522
0.998134
0.991357
0.985148
0.979845
0.975896
0.973098
0.971553
1.03053
1.03011
1.0288
1.02707
1.02387
1.0189
1.0126
1.00556
0.998299
0.991352
0.984986
0.979549
0.975493
0.972616
0.971023
1.03126
1.03087
1.02958
1.02786
1.02462
1.01955
1.01311
1.00591
0.998468
0.991348
0.984822
0.979248
0.975083
0.972127
0.970484
1.03201
1.03165
1.03038
1.02867
1.02539
1.02023
1.01364
1.00627
0.998652
0.991354
0.984665
0.978952
0.974674
0.971637
0.969943
1.03278
1.03244
1.0312
1.0295
1.02617
1.02091
1.01419
1.00664
0.99884
0.991362
0.984507
0.97865
0.974259
0.971139
0.969394
1.03356
1.03325
1.03204
1.03035
1.02698
1.02162
1.01475
1.00703
0.999042
0.99138
0.984355
0.978353
0.973846
0.970641
0.968843
1.03435
1.03408
1.0329
1.03121
1.0278
1.02235
1.01533
1.00743
0.999249
0.991398
0.984201
0.978051
0.973426
0.970135
0.968282
1.03517
1.03493
1.03378
1.03211
1.02865
1.0231
1.01593
1.00785
0.99947
0.991428
0.984054
0.977754
0.973008
0.969629
0.967721
1.03599
1.03579
1.03467
1.03302
1.02952
1.02386
1.01653
1.00827
0.999696
0.991459
0.983905
0.977451
0.972583
0.969114
0.967149
1.03684
1.03667
1.03559
1.03395
1.03041
1.02464
1.01717
1.00871
0.999937
0.991501
0.983764
0.977153
0.972159
0.968599
0.966576
1.03769
1.03757
1.03652
1.0349
1.03131
1.02544
1.01781
1.00916
1.00018
0.991544
0.983621
0.97685
0.971729
0.968075
0.965994
1.03857
1.03848
1.03748
1.03587
1.03225
1.02627
1.01847
1.00963
1.00044
0.991599
0.983485
0.976551
0.971301
0.967551
0.965409
1.03946
1.03941
1.03845
1.03686
1.03319
1.02711
1.01915
1.01011
1.00071
0.991654
0.983347
0.976248
0.970865
0.967018
0.964814
1.04037
1.04037
1.03945
1.03788
1.03417
1.02797
1.01984
1.01061
1.00099
0.991721
0.983217
0.975949
0.970431
0.966484
0.964218
1.04129
1.04133
1.04046
1.03891
1.03516
1.02885
1.02055
1.01111
1.00127
0.991789
0.983085
0.975645
0.96999
0.965941
0.963611
1.04224
1.04232
1.0415
1.03997
1.03617
1.02975
1.02129
1.01164
1.00157
0.991869
0.982961
0.975346
0.96955
0.965398
0.963001
1.04319
1.04332
1.04255
1.04105
1.0372
1.03066
1.02203
1.01217
1.00188
0.99195
0.982834
0.975041
0.969103
0.964845
0.962381
1.04417
1.04434
1.04363
1.04215
1.03826
1.03161
1.02279
1.01272
1.0022
0.992043
0.982716
0.974741
0.968658
0.964291
0.961759
1.04516
1.04538
1.04471
1.04326
1.03933
1.03256
1.02357
1.01328
1.00252
0.992136
0.982595
0.974436
0.968205
0.963728
0.961125
1.04617
1.04644
1.04583
1.04441
1.04043
1.03354
1.02437
1.01386
1.00287
0.992242
0.982483
0.974136
0.967753
0.963163
0.960488
1.04719
1.04751
1.04696
1.04556
1.04154
1.03453
1.02518
1.01445
1.00321
0.992348
0.982368
0.97383
0.967293
0.962589
0.959841
1.04823
1.0486
1.04811
1.04675
1.04268
1.03555
1.02601
1.01506
1.00357
0.992467
0.982261
0.973528
0.966835
0.962013
0.959189
1.04928
1.0497
1.04928
1.04794
1.04383
1.03658
1.02685
1.01567
1.00394
0.992586
0.982152
0.973221
0.966369
0.961427
0.958526
1.05036
1.05084
1.05047
1.04917
1.04501
1.03763
1.02772
1.0163
1.00432
0.992718
0.982051
0.972919
0.965904
0.960838
0.957858
1.05145
1.05197
1.05167
1.0504
1.0462
1.0387
1.02859
1.01694
1.00471
0.99285
0.981948
0.972611
0.96543
0.96024
0.957179
1.05256
1.05314
1.0529
1.05167
1.04742
1.03979
1.02949
1.0176
1.00511
0.992994
0.981853
0.972307
0.964957
0.959638
0.956495
1.05368
1.05431
1.05414
1.05294
1.04865
1.04089
1.0304
1.01827
1.00551
0.993138
0.981755
0.971997
0.964476
0.959026
0.955799
1.05483
1.05551
1.05541
1.05424
1.04991
1.04202
1.03133
1.01895
1.00593
0.993295
0.981665
0.971691
0.963995
0.958411
0.955097
1.05598
1.05672
1.05669
1.05555
1.05117
1.04315
1.03226
1.01964
1.00635
0.993451
0.981572
0.97138
0.963505
0.957785
0.954382
1.05716
1.05795
1.05799
1.05689
1.05247
1.04431
1.03322
1.02035
1.00679
0.99362
0.981487
0.971071
0.963015
0.957155
0.953661
1.05835
1.05919
1.0593
1.05824
1.05376
1.04548
1.03418
1.02107
1.00723
0.993787
0.981398
0.970757
0.962516
0.956514
0.952927
1.05956
1.06045
1.06064
1.05961
1.05509
1.04667
1.03517
1.0218
1.00769
0.993967
0.981318
0.970447
0.962017
0.955868
0.952185
1.06078
1.06173
1.06198
1.06099
1.05642
1.04787
1.03616
1.02253
1.00815
0.994145
0.981233
0.970129
0.961508
0.955211
0.95143
1.06203
1.06302
1.06335
1.0624
1.05778
1.04909
1.03717
1.02329
1.00862
0.994335
0.981157
0.969815
0.960998
0.954548
0.950667
1.06328
1.06433
1.06473
1.06381
1.05914
1.05031
1.03819
1.02404
1.00909
0.994523
0.981076
0.969494
0.960479
0.953873
0.949889
1.06456
1.06566
1.06613
1.06524
1.06052
1.05156
1.03922
1.02482
1.00958
0.994722
0.981003
0.969176
0.959958
0.953192
0.949102
1.06585
1.06699
1.06753
1.06668
1.06191
1.05281
1.04026
1.02559
1.01007
0.994919
0.980925
0.968851
0.959427
0.952499
0.948301
1.06716
1.06835
1.06896
1.06814
1.06332
1.05407
1.04131
1.02638
1.01057
0.995127
0.980854
0.968528
0.958894
0.951799
0.947488
1.06848
1.06971
1.07039
1.0696
1.06473
1.05534
1.04237
1.02717
1.01107
0.995331
0.980778
0.968198
0.958351
0.951085
0.946661
1.06983
1.0711
1.07185
1.07109
1.06616
1.05663
1.04344
1.02797
1.01158
0.995546
0.980709
0.96787
0.957805
0.950364
0.945821
1.07118
1.0725
1.07331
1.07258
1.06758
1.05792
1.04451
1.02878
1.01209
0.995757
0.980634
0.967534
0.957249
0.94963
0.944966
1.07257
1.07392
1.07479
1.07408
1.06903
1.05922
1.04559
1.02959
1.01261
0.995978
0.980565
0.967199
0.956689
0.948886
0.944097
1.07396
1.07533
1.07627
1.07558
1.07048
1.06052
1.04667
1.03041
1.01313
0.996193
0.980491
0.966857
0.956118
0.948129
0.943212
1.07537
1.07678
1.07777
1.07711
1.07194
1.06183
1.04777
1.03123
1.01366
0.996418
0.980422
0.966515
0.955542
0.947361
0.942311
1.0768
1.07823
1.07927
1.07862
1.07339
1.06314
1.04886
1.03205
1.01418
0.996636
0.980346
0.966165
0.954956
0.946579
0.941394
1.07825
1.0797
1.08079
1.08016
1.07486
1.06446
1.04996
1.03288
1.01472
0.996864
0.980275
0.965816
0.954365
0.945786
0.940459
1.0797
1.08117
1.0823
1.08168
1.07632
1.06577
1.05105
1.0337
1.01524
0.997084
0.980198
0.965458
0.953762
0.944978
0.939506
1.08119
1.08267
1.08384
1.08323
1.07779
1.06709
1.05216
1.03454
1.01578
0.997311
0.980124
0.965099
0.953153
0.944158
0.938533
1.08268
1.08417
1.08537
1.08476
1.07925
1.0684
1.05324
1.03536
1.0163
0.99753
0.980043
0.964732
0.952533
0.943321
0.937542
1.08421
1.08569
1.08692
1.08631
1.08072
1.06971
1.05434
1.03619
1.01684
0.997757
0.979966
0.964364
0.951906
0.942471
0.936529
1.08574
1.08721
1.08846
1.08784
1.08217
1.07102
1.05543
1.037
1.01736
0.997973
0.979881
0.963987
0.951267
0.941605
0.935496
1.0873
1.08876
1.09002
1.08938
1.08364
1.07232
1.05652
1.03782
1.01789
0.998196
0.979799
0.963608
0.950621
0.940723
0.934441
1.08886
1.0903
1.09157
1.09091
1.08508
1.07361
1.05758
1.03863
1.0184
0.998408
0.979708
0.96322
0.949962
0.939824
0.933364
1.09046
1.09187
1.09313
1.09245
1.08653
1.0749
1.05866
1.03944
1.01892
0.998625
0.97962
0.96283
0.949294
0.938908
0.932262
1.09207
1.09344
1.09469
1.09397
1.08796
1.07617
1.05971
1.04023
1.01943
0.998829
0.979522
0.962431
0.948614
0.937974
0.931138
1.0937
1.09503
1.09625
1.0955
1.08939
1.07744
1.06076
1.04102
1.01993
0.999038
0.979427
0.962029
0.947923
0.937019
0.929986
1.09535
1.09661
1.09781
1.09701
1.0908
1.07869
1.06179
1.04179
1.02042
0.999233
0.979321
0.961618
0.94722
0.936046
0.92881
1.09702
1.09822
1.09938
1.09852
1.0922
1.07993
1.06282
1.04256
1.02091
0.999431
0.979217
0.961202
0.946504
0.93505
0.927603
1.09871
1.09983
1.10093
1.10001
1.09358
1.08114
1.06381
1.0433
1.02139
0.999615
0.979103
0.960778
0.945775
0.934033
0.926371
1.10042
1.10146
1.1025
1.1015
1.09495
1.08234
1.0648
1.04405
1.02186
0.999801
0.978989
0.960348
0.945031
0.932992
0.925107
1.10215
1.10309
1.10404
1.10297
1.09629
1.08352
1.06576
1.04476
1.0223
0.99997
0.978865
0.959909
0.944273
0.931929
0.923815
1.10391
1.10474
1.1056
1.10443
1.09763
1.08468
1.06671
1.04546
1.02275
1.00014
0.978741
0.959463
0.943498
0.930838
0.922489
1.10568
1.10638
1.10714
1.10587
1.09893
1.08581
1.06763
1.04614
1.02317
1.00029
0.978605
0.959006
0.942707
0.929725
0.921134
1.10749
1.10805
1.10869
1.1073
1.10022
1.08692
1.06853
1.0468
1.02359
1.00045
0.978469
0.958541
0.941898
0.928583
0.919743
1.1093
1.10971
1.11022
1.1087
1.10147
1.08799
1.06939
1.04743
1.02398
1.00058
0.978321
0.958065
0.941071
0.927416
0.918322
1.11115
1.1114
1.11175
1.1101
1.10272
1.08905
1.07023
1.04805
1.02436
1.00072
0.978171
0.957577
0.940222
0.926218
0.916864
1.11301
1.11307
1.11326
1.11146
1.10391
1.09006
1.07103
1.04863
1.02472
1.00083
0.978007
0.957077
0.939354
0.924994
0.915376
1.11491
1.11478
1.11478
1.11281
1.1051
1.09105
1.07182
1.0492
1.02506
1.00094
0.977839
0.956562
0.93846
0.923737
0.913849
1.11682
1.11647
1.11627
1.11413
1.10623
1.09199
1.07255
1.04972
1.02538
1.00103
0.977657
0.956034
0.937546
0.922452
0.912292
1.11877
1.11818
1.11777
1.11544
1.10735
1.09291
1.07325
1.05022
1.02568
1.00112
0.977468
0.955487
0.936602
0.921131
0.910696
1.12073
1.11989
1.11923
1.1167
1.10842
1.09377
1.07391
1.05067
1.02595
1.00118
0.977263
0.954924
0.935636
0.919781
0.909068
1.12273
1.12162
1.12071
1.11796
1.10947
1.09461
1.07453
1.05111
1.02621
1.00124
0.977047
0.954339
0.934637
0.918392
0.907401
1.12475
1.12334
1.12215
1.11917
1.11046
1.09538
1.0751
1.05149
1.02643
1.00127
0.976814
0.953735
0.933612
0.916974
0.905702
1.1268
1.12509
1.1236
1.12037
1.11143
1.09613
1.07563
1.05184
1.02663
1.0013
0.976566
0.953105
0.932551
0.915513
0.903963
1.12886
1.12682
1.12501
1.12153
1.11234
1.09681
1.0761
1.05215
1.02679
1.00129
0.976297
0.952453
0.931462
0.914021
0.902189
1.13097
1.12857
1.12643
1.12266
1.11323
1.09745
1.07654
1.05242
1.02694
1.00128
0.97601
0.95177
0.930331
0.912483
0.900374
1.13308
1.13031
1.12781
1.12376
1.11405
1.09803
1.0769
1.05263
1.02704
1.00123
0.975699
0.951062
0.92917
0.910911
0.898524
1.13524
1.13208
1.12919
1.12483
1.11485
1.09856
1.07722
1.05281
1.02712
1.00116
0.975364
0.950318
0.927964
0.909291
0.896632
1.13741
1.13383
1.13054
1.12585
1.11558
1.09902
1.07746
1.05292
1.02715
1.00107
0.975002
0.949545
0.926723
0.907634
0.894702
1.13962
1.1356
1.13188
1.12686
1.11627
1.09944
1.07766
1.053
1.02715
1.00095
0.974611
0.94873
0.925433
0.905927
0.89273
1.14185
1.13736
1.1332
1.12781
1.1169
1.09977
1.07778
1.053
1.02711
1.00079
0.974189
0.947883
0.924104
0.904178
0.890719
1.14411
1.13913
1.1345
1.12874
1.11749
1.10006
1.07785
1.05297
1.02703
1.00061
0.97373
0.946988
0.92272
0.902377
0.888664
1.14638
1.14089
1.13578
1.12962
1.118
1.10026
1.07783
1.05286
1.0269
1.00038
0.973238
0.946056
0.921294
0.900531
0.886568
1.1487
1.14267
1.13704
1.13048
1.11848
1.1004
1.07775
1.0527
1.02672
1.00012
0.972703
0.94507
0.919807
0.898629
0.884428
1.15103
1.14444
1.13828
1.13128
1.11888
1.10045
1.07758
1.05246
1.0265
0.999823
0.97213
0.944042
0.918273
0.896677
0.882244
1.15339
1.14622
1.1395
1.13205
1.11924
1.10044
1.07734
1.05217
1.02622
0.99948
0.971507
0.942955
0.916673
0.894666
0.880014
1.15576
1.14798
1.1407
1.13278
1.11952
1.10034
1.07701
1.05179
1.02589
0.99909
0.970842
0.941819
0.91502
0.892601
0.877738
1.15817
1.14976
1.14188
1.13347
1.11974
1.10017
1.0766
1.05136
1.0255
0.998652
0.97012
0.940618
0.913295
0.890473
0.875416
1.16059
1.15153
1.14303
1.13411
1.11989
1.0999
1.07609
1.05083
1.02505
0.998164
0.969351
0.939362
0.91151
0.888286
0.873045
1.16305
1.15331
1.14418
1.13473
1.11999
1.09956
1.07551
1.05024
1.02454
0.99762
0.968518
0.938033
0.909649
0.886032
0.870628
1.1655
1.15507
1.14529
1.13529
1.12
1.09911
1.07481
1.04955
1.02396
0.997022
0.967633
0.936643
0.90772
0.883715
0.86816
1.168
1.15685
1.1464
1.13582
1.11996
1.09858
1.07403
1.04879
1.02332
0.996363
0.966677
0.935172
0.905709
0.881326
0.865646
1.17049
1.15861
1.14747
1.1363
1.11983
1.09794
1.07314
1.04793
1.0226
0.995646
0.965662
0.933634
0.903624
0.878869
0.863078
1.17302
1.16038
1.14854
1.13675
1.11964
1.09722
1.07215
1.04698
1.02181
0.994861
0.964571
0.932007
0.901449
0.876338
0.860466
1.17554
1.16214
1.14959
1.13714
1.11936
1.09638
1.07105
1.04594
1.02095
0.994014
0.963414
0.930304
0.899194
0.873733
0.857799
1.1781
1.16391
1.15063
1.13751
1.11902
1.09545
1.06984
1.0448
1.02001
0.993093
0.962172
0.928506
0.896842
0.87105
0.855088
1.18065
1.16567
1.15164
1.13783
1.11859
1.0944
1.0685
1.04356
1.01899
0.992108
0.96086
0.926623
0.894402
0.868287
0.85232
1.18323
1.16745
1.15266
1.13811
1.11809
1.09325
1.06706
1.04222
1.01789
0.991043
0.959455
0.924636
0.89186
0.865443
0.849508
1.1858
1.16921
1.15366
1.13835
1.11749
1.09197
1.06549
1.04078
1.01671
0.98991
0.957973
0.922557
0.889221
0.862516
0.846639
1.18839
1.17099
1.15466
1.13857
1.11683
1.09059
1.06379
1.03923
1.01545
0.988694
0.956392
0.920365
0.886474
0.859506
0.843729
1.19098
1.17277
1.15565
1.13873
1.11607
1.08908
1.06197
1.03758
1.0141
0.987407
0.954726
0.91807
0.883621
0.856407
0.840759
1.19358
1.17456
1.15664
1.13887
1.11523
1.08745
1.06001
1.03582
1.01266
0.986031
0.952953
0.915654
0.880653
0.853224
0.837752
1.19617
1.17636
1.15764
1.13896
1.1143
1.08569
1.05792
1.03395
1.01115
0.984584
0.951087
0.913126
0.877572
0.849945
0.834686
1.19878
1.17818
1.15864
1.13903
1.11328
1.0838
1.05569
1.03197
1.00955
0.983045
0.949107
0.910467
0.87437
0.84658
0.831588
1.20137
1.18001
1.15965
1.13906
1.11216
1.08177
1.05333
1.02989
1.00787
0.981432
0.947028
0.907685
0.871044
0.843114
0.828433
1.20398
1.18188
1.16068
1.13906
1.11094
1.0796
1.05082
1.0277
1.0061
0.979724
0.944825
0.904763
0.867591
0.839561
0.82525
1.20657
1.18376
1.16172
1.13901
1.10962
1.07729
1.04817
1.02541
1.00426
0.977941
0.942515
0.901706
0.864006
0.835902
0.822012
1.20916
1.18569
1.16278
1.13894
1.1082
1.07483
1.04538
1.02301
1.00234
0.976061
0.940073
0.898499
0.860286
0.832154
0.818751
1.21175
1.18764
1.16386
1.13882
1.10666
1.07222
1.04244
1.02052
1.00035
0.974105
0.937513
0.895145
0.856424
0.828296
0.815437
1.21433
1.18965
1.16498
1.13867
1.10501
1.06946
1.03936
1.01793
0.998285
0.972049
0.934812
0.891629
0.852421
0.824349
0.812105
1.2169
1.1917
1.16611
1.13847
1.10324
1.06653
1.03614
1.01525
0.996162
0.969917
0.931984
0.887952
0.848265
0.820287
0.808724
1.21948
1.19382
1.16729
1.13823
1.10134
1.06345
1.03279
1.01249
0.993969
0.967682
0.929003
0.884102
0.843961
0.816135
0.805329
1.22204
1.19599
1.16849
1.13794
1.09931
1.06019
1.0293
1.00966
0.991731
0.965369
0.925882
0.880076
0.839493
0.811865
0.801888
1.22461
1.19824
1.16974
1.1376
1.09715
1.05678
1.02567
1.00676
0.989432
0.962951
0.922597
0.875864
0.83487
0.807504
0.798439
1.22716
1.20056
1.17101
1.1372
1.09485
1.05319
1.02193
1.00381
0.987102
0.96045
0.919158
0.871461
0.830073
0.803023
0.794947
1.22972
1.20298
1.17233
1.13674
1.09239
1.04944
1.01807
1.00081
0.984722
0.95784
0.915541
0.866858
0.825111
0.798451
0.791454
1.23227
1.20548
1.17368
1.13622
1.08979
1.04552
1.0141
0.997786
0.982325
0.955142
0.911754
0.862046
0.819965
0.793756
0.787923
1.23483
1.20808
1.17506
1.13562
1.08702
1.04143
1.01004
0.994731
0.979892
0.952329
0.907772
0.85702
0.814647
0.788972
0.784397
1.23739
1.21079
1.17648
1.13493
1.0841
1.03718
1.00589
0.991685
0.977455
0.949419
0.9036
0.851767
0.809136
0.784065
0.78084
1.23996
1.2136
1.17793
1.13416
1.081
1.03277
1.00168
0.988639
0.974995
0.946384
0.899216
0.846284
0.803445
0.779072
0.777297
1.24253
1.21653
1.17941
1.13329
1.07773
1.02821
0.997419
0.985635
0.972543
0.943242
0.89462
0.840557
0.797553
0.773957
0.773731
1.24512
1.21958
1.1809
1.13232
1.07429
1.0235
0.993121
0.982666
0.97008
0.939959
0.88979
0.834584
0.791476
0.768761
0.77019
1.24772
1.22275
1.18241
1.13123
1.07066
1.01866
0.988821
0.979777
0.967635
0.936553
0.884724
0.828349
0.785191
0.763449
0.766638
1.25034
1.22604
1.18392
1.13002
1.06685
1.01369
0.984529
0.976964
0.965186
0.932987
0.879399
0.821852
0.778717
0.758063
0.763125
1.25298
1.22945
1.18543
1.12867
1.06286
1.00862
0.980287
0.974271
0.96276
0.929274
0.87381
0.815076
0.772033
0.752569
0.759617
1.25565
1.23298
1.18692
1.12717
1.05868
1.00346
0.976112
0.971695
0.960333
0.925376
0.867935
0.808023
0.765162
0.747012
0.756166
1.25834
1.23662
1.18839
1.12552
1.05432
0.998236
0.97205
0.969283
0.957926
0.921301
0.861767
0.800677
0.758081
0.741361
0.752739
1.26107
1.24036
1.1898
1.12368
1.04977
0.992967
0.968127
0.96703
0.955512
0.917007
0.855283
0.793042
0.750817
0.735665
0.74939
1.26382
1.2442
1.19115
1.12166
1.04504
0.987693
0.964396
0.964984
0.953106
0.912497
0.848473
0.785102
0.743351
0.729895
0.746091
1.26661
1.24811
1.1924
1.11943
1.04013
0.982438
0.960888
0.96314
0.950676
0.907729
0.841315
0.776864
0.735712
0.724105
0.742897
1.26942
1.25209
1.19355
1.11698
1.03505
0.977253
0.957667
0.961543
0.94823
0.902696
0.833799
0.768312
0.727886
0.718271
0.739783
1.27225
1.2561
1.19455
1.11427
1.02979
0.972174
0.95477
0.960184
0.945729
0.897355
0.825904
0.759459
0.719906
0.712446
0.736804
1.2751
1.26013
1.19538
1.11129
1.02437
0.967263
0.952268
0.959106
0.943173
0.891695
0.817619
0.750293
0.711763
0.706612
0.733942
1.27796
1.26412
1.19599
1.10801
1.0188
0.962567
0.950206
0.958297
0.940516
0.88567
0.808925
0.74083
0.703493
0.700827
0.731255
1.28081
1.26806
1.19635
1.10438
1.01307
0.958161
0.94866
0.957789
0.937749
0.879265
0.799815
0.731064
0.695094
0.695079
0.728729
1.28362
1.27189
1.1964
1.10038
1.0072
0.954105
0.94768
0.957567
0.934819
0.872436
0.790275
0.721016
0.68661
0.68943
0.72642
1.2864
1.27557
1.1961
1.09596
1.0012
0.950482
0.947342
0.957652
0.931707
0.865165
0.780301
0.71069
0.678046
0.683877
0.724323
1.28909
1.27904
1.19537
1.09106
0.995054
0.947361
0.947693
0.958016
0.928356
0.857413
0.76989
0.700118
0.669455
0.678486
0.722497
1.29169
1.28224
1.19417
1.08563
0.988779
0.944826
0.948795
0.958664
0.924738
0.849166
0.759048
0.689312
0.660853
0.673263
0.720943
1.29413
1.2851
1.1924
1.0796
0.982366
0.942938
0.950673
0.95955
0.920795
0.840396
0.747788
0.678322
0.652303
0.668281
0.719724
1.29639
1.28756
1.19001
1.0729
0.975817
0.94176
0.953347
0.96065
0.916494
0.831102
0.736134
0.667178
0.643837
0.663558
0.718851
1.2984
1.28954
1.1869
1.06546
0.969121
0.941313
0.956775
0.961889
0.911782
0.821281
0.724127
0.655951
0.635535
0.659176
0.71839
1.30014
1.29097
1.18299
1.05722
0.962289
0.941586
0.960871
0.963191
0.906632
0.810961
0.711823
0.644701
0.627451
0.655169
0.718362
1.30151
1.29176
1.17819
1.04812
0.955338
0.942479
0.965429
0.96442
0.901008
0.800185
0.699308
0.633534
0.619688
0.651633
0.718841
1.30249
1.29184
1.1724
1.03818
0.94835
0.943784
0.970104
0.965406
0.894906
0.789039
0.686697
0.622556
0.612334
0.648627
0.719861
1.30297
1.29114
1.16551
1.02746
0.941501
0.945077
0.974253
0.965868
0.888342
0.777665
0.674162
0.611934
0.605535
0.646267
0.721509
1.30293
1.28957
1.15742
1.0162
0.935186
0.945766
0.976845
0.965302
0.881321
0.766267
0.661932
0.601865
0.599439
0.644657
0.723844
1.30225
1.28705
1.14806
1.00472
0.929763
0.945104
0.976651
0.962903
0.873724
0.755056
0.650294
0.592619
0.59427
0.643964
0.726986
1.30091
1.28348
1.13745
0.993391
0.925198
0.94205
0.972696
0.957814
0.865308
0.744163
0.639498
0.584448
0.590237
0.64434
0.731027
1.29881
1.27874
1.12581
0.982506
0.920932
0.935685
0.964703
0.949513
0.855835
0.733643
0.629737
0.577578
0.587553
0.645951
0.736079
1.29586
1.27276
1.11371