/*--------------------------------*- C++ -*----------------------------------*\
  =========                 |
  \\      /  F ield         | OpenFOAM: The Open Source CFD Toolbox
   \\    /   O peration     | Website:  https://openfoam.org
    \\  /    A nd           | Version:  6.0
     \\/     M anipulation  |
\*---------------------------------------------------------------------------*/
FoamFile
{
    version     2.0;
    format      ascii;
    class       volVectorField;
    location    "13";
    object      U;
}
// * * * * * * * * * * * * * * * * * * * * * * * * * * * * * * * * * * * * * //

dimensions      [0 1 -1 0 0 0 0];

internalField   nonuniform List<vector> 
34500
(
(0.999998 -6.48017e-05 -9.40769e-18)
(0.999986 -4.23558e-05 9.01936e-17)
(0.999947 9.33827e-06 2.28683e-17)
(0.999864 -1.08202e-05 -1.34739e-17)
(0.999774 -0.000121622 1.32019e-16)
(0.999723 -0.000233562 3.05028e-16)
(0.999683 -0.000308879 1.52433e-17)
(0.999611 -0.000413784 -2.40081e-16)
(0.9995 -0.000627376 3.70295e-16)
(0.999403 -0.00095262 -2.196e-17)
(0.999358 -0.00134525 -2.8158e-16)
(0.999388 -0.00179934 -4.63116e-16)
(0.999453 -0.00218441 2.15635e-16)
(1.00049 -0.0029597 4.42279e-16)
(0.990318 -0.00688629 -3.95811e-16)
(1 -5.82516e-05 -2.97887e-17)
(0.999986 0.00010088 -8.02405e-17)
(0.9999 0.000164688 1.89084e-16)
(0.999742 -1.63433e-05 -1.0469e-16)
(0.999633 -0.000293383 -6.85742e-17)
(0.999607 -0.000427503 -5.98594e-16)
(0.999574 -0.000440483 9.86071e-17)
(0.999425 -0.000569516 1.59464e-16)
(0.999195 -0.000972045 -2.76539e-16)
(0.998998 -0.00162904 -4.54067e-16)
(0.998923 -0.00239178 -1.92682e-16)
(0.999017 -0.00323071 -3.95892e-16)
(0.999051 -0.00389564 -3.06915e-16)
(1.00138 -0.0047448 -5.85232e-16)
(0.991184 -0.0080618 7.04634e-16)
(1.00002 1.72879e-05 -2.21939e-17)
(1.00001 0.000272828 9.82877e-17)
(0.999924 0.000273893 3.51535e-17)
(0.999773 -6.39107e-05 -4.55865e-17)
(0.999723 -0.000408943 -1.09357e-16)
(0.999795 -0.000434939 6.46848e-17)
(0.999882 -0.000229263 -5.74968e-17)
(0.999823 -0.000148235 -8.8949e-17)
(0.999653 -0.000396953 4.63357e-16)
(0.999477 -0.000969201 -2.56604e-16)
(0.9994 -0.00166308 3.56004e-16)
(0.999502 -0.00242344 5.182e-16)
(0.999374 -0.00302636 -3.45608e-16)
(1.00163 -0.00342441 3.13975e-16)
(0.995773 -0.00392838 -5.16157e-17)
(1.00005 9.64599e-05 4.00008e-18)
(1.00004 0.000382159 -1.63043e-16)
(0.999936 0.000284252 -1.63676e-16)
(0.999754 -0.000193289 7.40172e-17)
(0.999682 -0.000597988 -2.73893e-16)
(0.999768 -0.000568961 1.3783e-16)
(0.999931 -0.000232163 3.35779e-16)
(0.999982 1.29034e-06 -2.4704e-16)
(0.999924 -9.83977e-05 -9.71543e-16)
(0.99983 -0.00054657 3.15751e-16)
(0.999789 -0.00113125 -4.89759e-17)
(0.999913 -0.00178797 2.68865e-16)
(0.999678 -0.00237868 4.3313e-16)
(1.00142 -0.00253461 -2.58524e-16)
(0.997687 -0.00223196 -1.9611e-16)
(1.00008 0.000151801 4.85815e-17)
(1.00006 0.000416303 9.30396e-17)
(0.99993 0.000220885 -1.19428e-16)
(0.999672 -0.000359623 5.02696e-17)
(0.999487 -0.000829034 3.36479e-16)
(0.999474 -0.000836659 4.31676e-16)
(0.999607 -0.000525981 -8.6986e-16)
(0.999711 -0.000302954 3.36323e-16)
(0.999752 -0.00039046 9.26519e-16)
(0.99977 -0.000806912 -3.87105e-16)
(0.999815 -0.00134999 -1.13401e-16)
(1.00002 -0.001953 -3.00003e-17)
(0.999806 -0.0025487 -2.68241e-16)
(1.00111 -0.00256626 5.91183e-16)
(0.998468 -0.00173818 -3.8385e-16)
(1.00011 0.000180242 2.82066e-17)
(1.0001 0.000399571 3.48035e-17)
(0.999972 0.00014055 1.2588e-16)
(0.999663 -0.000473197 -1.44961e-16)
(0.999359 -0.000964306 -6.50778e-17)
(0.99921 -0.00102947 -4.06284e-16)
(0.999256 -0.000819642 3.21864e-16)
(0.999363 -0.000696963 -8.16715e-17)
(0.999476 -0.000848418 -3.71186e-16)
(0.999605 -0.00127639 7.45101e-16)
(0.999756 -0.00178837 1.42287e-16)
(1.00007 -0.00231467 3.98799e-17)
(0.99995 -0.00282916 4.21111e-16)
(1.00093 -0.00264019 -1.20086e-15)
(0.999228 -0.00100024 4.46787e-16)
(1.00013 0.000185587 -4.90864e-17)
(1.00017 0.000354678 5.52866e-17)
(1.00009 7.75108e-05 9.70917e-17)
(0.999804 -0.000489981 2.7317e-16)
(0.999443 -0.000930189 7.58138e-17)
(0.999191 -0.00101328 3.4456e-16)
(0.99915 -0.000896118 -1.48061e-16)
(0.999237 -0.000881601 -6.35868e-16)
(0.999394 -0.00110355 -5.7554e-16)
(0.999608 -0.00153847 -7.9074e-16)
(0.999844 -0.00199849 -3.36114e-16)
(1.00024 -0.00241196 1.2867e-17)
(1.00022 -0.00278387 -3.10333e-16)
(1.00094 -0.00236152 1.02276e-15)
(0.999945 -4.35896e-05 -1.31364e-16)
(1.00015 0.000172532 -3.19843e-17)
(1.00025 0.000294762 -2.24484e-17)
(1.00027 3.76094e-05 -4.50919e-17)
(1.00007 -0.000423305 -1.46575e-16)
(0.999721 -0.000750928 1.08105e-16)
(0.999425 -0.000801632 3.90068e-18)
(0.999325 -0.000739662 1.05186e-16)
(0.999389 -0.000808068 6.84231e-16)
(0.999565 -0.00108288 5.60047e-17)
(0.999828 -0.00151286 -3.09772e-16)
(1.00011 -0.00191282 4.29698e-16)
(1.00054 -0.00221303 -3.93336e-17)
(1.00059 -0.00245305 -7.5812e-18)
(1.00107 -0.00186534 1.8338e-16)
(1.00046 0.000819304 -3.79527e-16)
(1.00015 0.000146008 -2.77136e-18)
(1.00033 0.000227824 -1.18646e-16)
(1.00046 1.30711e-05 -2.70632e-17)
(1.00037 -0.000313006 1.88854e-16)
(1.00009 -0.000499309 -1.43936e-16)
(0.999801 -0.000488015 2.29025e-16)
(0.999677 -0.000450863 1.50447e-16)
(0.999726 -0.000577362 1.0077e-17)
(0.999906 -0.000889888 1.38448e-16)
(1.00019 -0.00131274 3.52409e-17)
(1.00049 -0.0016645 -4.06679e-16)
(1.00091 -0.0018808 2.52144e-16)
(1.001 -0.00203704 -1.58898e-16)
(1.00127 -0.00138024 -8.11099e-16)
(1.00076 0.00144529 4.7644e-16)
(1.00015 0.00011139 9.09675e-17)
(1.00038 0.000160365 7.2606e-17)
(1.0006 -4.85627e-06 -3.22658e-17)
(1.00063 -0.000197804 -1.62681e-16)
(1.00044 -0.000247647 -1.64521e-16)
(1.0002 -0.000172104 -6.27952e-16)
(1.00008 -0.000147579 4.43515e-16)
(1.00013 -0.00031831 9.32099e-18)
(1.00031 -0.000661645 7.65491e-16)
(1.00059 -0.00108288 7.74696e-16)
(1.00089 -0.00140658 -2.23145e-16)
(1.00128 -0.00157466 -6.6428e-17)
(1.00138 -0.00169233 3.86626e-16)
(1.00149 -0.00103462 6.76162e-16)
(1.00091 0.0018227 -5.10934e-16)
(1.00014 7.36309e-05 -2.65137e-17)
(1.00041 9.75207e-05 4.95382e-17)
(1.00069 -2.20914e-05 2.12865e-17)
(1.00081 -0.000103906 -4.09641e-17)
(1.00071 -4.54967e-05 -1.39712e-16)
(1.00053 7.61082e-05 -2.0034e-17)
(1.00044 8.50853e-05 -4.6974e-16)
(1.0005 -0.000125402 -6.58866e-16)
(1.00068 -0.000497592 -8.24592e-16)
(1.00097 -0.000923784 -4.87639e-16)
(1.00126 -0.00123622 2.78581e-16)
(1.00161 -0.00138195 -3.27198e-16)
(1.00171 -0.00148523 -2.37658e-16)
(1.00171 -0.000853269 -8.83685e-16)
(1.00099 0.00200536 2.88866e-16)
(1.00012 3.6859e-05 -7.43525e-17)
(1.0004 4.26679e-05 -1.10806e-16)
(1.00072 -4.14707e-05 -5.34999e-18)
(1.0009 -4.43138e-05 9.55536e-17)
(1.00088 8.29518e-05 1.23503e-16)
(1.00076 0.000222155 -1.60422e-16)
(1.00071 0.000204497 -1.71801e-16)
(1.0008 -4.60805e-05 2.1397e-16)
(1.001 -0.000446085 1.04064e-15)
(1.00129 -0.00088035 -9.78332e-17)
(1.00157 -0.00118984 -1.55433e-16)
(1.00189 -0.00132472 2.74326e-16)
(1.002 -0.00141728 4.25419e-18)
(1.00192 -0.00080732 2.2704e-16)
(1.00106 0.00206077 4.73309e-17)
(1.0001 3.87261e-06 1.07155e-16)
(1.00038 -2.92173e-06 7.0383e-17)
(1.00069 -6.44152e-05 -1.82652e-16)
(1.0009 -2.24921e-05 -7.3896e-17)
(1.00094 0.000132767 5.37107e-18)
(1.00088 0.0002596 3.03333e-16)
(1.00089 0.000202458 4.13252e-16)
(1.00102 -8.92117e-05 3.05322e-16)
(1.00124 -0.000514346 -4.8948e-16)
(1.00155 -0.000954968 6.625e-16)
(1.00182 -0.00126131 -2.10911e-16)
(1.00212 -0.00138477 1.66444e-16)
(1.00224 -0.00145711 7.76508e-16)
(1.00213 -0.000850657 -2.43241e-17)
(1.00114 0.00205053 1.6e-18)
(1.00008 -2.37381e-05 -6.24247e-18)
(1.00033 -3.97481e-05 -6.0881e-17)
(1.00063 -9.17386e-05 2.50236e-16)
(1.00085 -3.63969e-05 1.06847e-16)
(1.00093 0.00011078 -4.05156e-17)
(1.00093 0.00019935 3.44289e-16)
(1.00099 9.22188e-05 -7.07706e-16)
(1.00116 -0.000239971 -4.47678e-16)
(1.00142 -0.000685155 -3.82718e-16)
(1.00175 -0.00112636 -5.57472e-16)
(1.00203 -0.00142329 3.30679e-16)
(1.00232 -0.00152755 -1.41893e-16)
(1.00246 -0.001565 -1.03951e-15)
(1.00234 -0.000939988 4.65197e-16)
(1.00125 0.00201856 9.92536e-17)
(1.00006 -4.55814e-05 -3.52894e-17)
(1.00028 -6.98141e-05 2.33152e-17)
(1.00055 -0.000124612 -3.04632e-17)
(1.00076 -8.17001e-05 -1.8599e-16)
(1.00086 2.90996e-05 1.40694e-17)
(1.00092 6.03881e-05 1.81322e-16)
(1.00104 -0.000102891 3.18999e-16)
(1.00126 -0.000472531 4.6749e-16)
(1.00156 -0.000930638 2.19534e-16)
(1.00191 -0.00136419 -2.00132e-16)
(1.00221 -0.00164245 3.11824e-17)
(1.0025 -0.00171694 2.21345e-16)
(1.00265 -0.00170495 -1.23668e-16)
(1.00253 -0.00104231 -5.4705e-16)
(1.00139 0.00199339 1.7486e-17)
(1.00004 -6.20438e-05 -2.60971e-17)
(1.00023 -9.58881e-05 1.11564e-17)
(1.00046 -0.000164383 6.10096e-17)
(1.00066 -0.000153611 7.4535e-17)
(1.00078 -9.89163e-05 -1.05911e-16)
(1.00088 -0.000136478 -6.94006e-16)
(1.00106 -0.000357413 -2.05084e-16)
(1.00133 -0.000759151 -3.43552e-16)
(1.00167 -0.0012219 -5.96241e-16)
(1.00205 -0.00163878 6.50513e-16)
(1.00237 -0.0018886 3.76035e-16)
(1.00266 -0.0019231 -4.06977e-16)
(1.00284 -0.00185028 1.0429e-15)
(1.00273 -0.0011361 2.08169e-16)
(1.00155 0.00198921 6.72675e-17)
(1.00003 -7.41547e-05 1.62913e-17)
(1.00018 -0.000121076 -8.05817e-17)
(1.00038 -0.000212694 -3.36189e-16)
(1.00056 -0.000247848 7.89151e-17)
(1.0007 -0.000261146 3.33087e-16)
(1.00084 -0.000372347 2.96013e-17)
(1.00107 -0.000648385 6.34798e-17)
(1.00139 -0.00107518 -1.28017e-17)
(1.00177 -0.00153407 7.27694e-16)
(1.00218 -0.00192575 -1.89514e-16)
(1.00252 -0.00213853 -5.1095e-16)
(1.00282 -0.00212487 -1.08464e-16)
(1.00302 -0.00198382 -4.54776e-17)
(1.00292 -0.00120984 2.2461e-16)
(1.00172 0.00201216 -3.61872e-16)
(1.00002 -8.31879e-05 2.16435e-17)
(1.00013 -0.000148192 5.88977e-17)
(1.00031 -0.000270878 2.20742e-16)
(1.00047 -0.000360763 -1.97227e-16)
(1.00063 -0.000447397 -2.04286e-16)
(1.00081 -0.000631633 1.09803e-16)
(1.00109 -0.000957223 2.10907e-16)
(1.00146 -0.00140124 4.17007e-16)
(1.00187 -0.00184827 -5.55887e-16)
(1.00231 -0.00220755 1.19237e-17)
(1.00267 -0.00237662 -1.64664e-16)
(1.00297 -0.0023093 1.61829e-17)
(1.00319 -0.00209651 -2.1049e-16)
(1.0031 -0.0012588 6.41767e-17)
(1.00191 0.00206161 5.99751e-16)
(1 -9.05535e-05 -2.78326e-18)
(1.0001 -0.000179598 1.0132e-16)
(1.00025 -0.000339962 -1.00288e-16)
(1.00041 -0.000489318 2.77622e-16)
(1.00058 -0.000649698 9.75747e-17)
(1.0008 -0.000902471 1.56457e-16)
(1.00112 -0.00127016 2.94623e-16)
(1.00153 -0.00172341 -6.57441e-16)
(1.00198 -0.00215163 1.50421e-16)
(1.00245 -0.00247298 -4.31754e-17)
(1.00282 -0.00259387 4.64102e-16)
(1.00313 -0.00246992 -2.7809e-16)
(1.00336 -0.00218487 -1.34249e-16)
(1.00328 -0.00128292 -4.60222e-17)
(1.00209 0.00213517 -1.3131e-16)
(0.999989 -9.75026e-05 -3.17125e-17)
(1.00006 -0.000216895 -2.41564e-17)
(1.00021 -0.00042023 3.19158e-16)
(1.00036 -0.000630785 -2.11363e-16)
(1.00055 -0.000861817 1.49612e-16)
(1.0008 -0.00117617 -2.77307e-16)
(1.00116 -0.00157764 -5.93668e-17)
(1.00161 -0.00203263 4.80747e-16)
(1.00209 -0.00243634 2.30582e-16)
(1.00258 -0.00271597 3.40427e-16)
(1.00297 -0.00278621 -5.80821e-16)
(1.00328 -0.00260482 6.4625e-16)
(1.00353 -0.00224922 -1.69591e-16)
(1.00346 -0.00128449 -1.58342e-16)
(1.00227 0.00222783 -1.07194e-16)
(0.999971 -0.000105124 4.09844e-17)
(1.00003 -0.000261016 1.22922e-17)
(1.00017 -0.000511428 -3.78838e-16)
(1.00033 -0.000782655 -1.56529e-17)
(1.00054 -0.00107907 -1.2132e-16)
(1.00083 -0.00144674 2.25943e-16)
(1.00122 -0.00187359 -9.75926e-17)
(1.0017 -0.00232364 -1.98272e-16)
(1.00221 -0.00269855 3.11311e-16)
(1.00272 -0.00293424 -7.07511e-17)
(1.00312 -0.00295309 7.38723e-16)
(1.00343 -0.00271504 -7.55154e-16)
(1.00369 -0.00229192 2.30028e-16)
(1.00362 -0.00126728 -7.59717e-17)
(1.00244 0.00233582 -1.53707e-16)
(0.999948 -0.000114172 -5.50835e-18)
(1.00001 -0.000312136 -1.72545e-16)
(1.00015 -0.00061254 1.46829e-16)
(1.00032 -0.000942413 5.54085e-17)
(1.00055 -0.00129769 -7.45977e-17)
(1.00086 -0.00171005 -7.49338e-17)
(1.00129 -0.00215436 1.6791e-16)
(1.0018 -0.00259389 3.43383e-16)
(1.00233 -0.00293699 -3.7262e-16)
(1.00285 -0.0031279 -7.79324e-17)
(1.00326 -0.00309588 -4.08516e-16)
(1.00358 -0.00280307 7.55795e-16)
(1.00384 -0.00231622 -8.29509e-17)
(1.00378 -0.00123484 -4.21663e-17)
(1.0026 0.00245442 1.45192e-16)
(0.999921 -0.000125158 5.9843e-18)
(0.999982 -0.000369911 1.1023e-16)
(1.00013 -0.000722147 -5.29873e-18)
(1.00032 -0.00110759 1.2399e-16)
(1.00057 -0.00151474 -1.57768e-16)
(1.00091 -0.00196341 5.53857e-17)
(1.00137 -0.0024181 -5.47378e-17)
(1.0019 -0.00284263 -2.86472e-16)
(1.00245 -0.00315211 7.77762e-17)
(1.00298 -0.00329846 -3.01621e-16)
(1.0034 -0.00321703 9.25011e-17)
(1.00372 -0.00287196 -4.17191e-16)
(1.00399 -0.00232538 -5.30043e-17)
(1.00392 -0.00119071 8.3174e-17)
(1.00275 0.00258128 -1.35016e-16)
(0.999888 -0.000138265 -2.98478e-17)
(0.999955 -0.000433496 -2.79849e-17)
(1.00012 -0.000838352 -8.40645e-18)
(1.00032 -0.0012757 -1.76302e-16)
(1.0006 -0.00172775 -7.46848e-18)
(1.00097 -0.00220499 1.20067e-16)
(1.00145 -0.00266402 2.17553e-17)
(1.002 -0.0030702 2.93188e-16)
(1.00256 -0.00334525 -1.15415e-16)
(1.00311 -0.00344808 4.23003e-16)
(1.00353 -0.00331928 -5.34269e-17)
(1.00385 -0.00292479 -2.93489e-18)
(1.00412 -0.00232249 -1.52345e-16)
(1.00405 -0.00113764 -3.54494e-16)
(1.00288 0.00271299 1.58193e-16)
(0.999849 -0.000153496 2.51518e-17)
(0.999926 -0.00050182 8.67769e-17)
(1.0001 -0.000959186 3.18488e-17)
(1.00032 -0.00144441 -3.31327e-17)
(1.00063 -0.00193476 3.36404e-16)
(1.00103 -0.00243373 -7.22963e-17)
(1.00153 -0.00289216 -3.10154e-16)
(1.0021 -0.00327765 -1.64112e-16)
(1.00267 -0.00351829 1.78461e-16)
(1.00323 -0.00357922 -4.58776e-16)
(1.00365 -0.00340549 -2.31493e-16)
(1.00397 -0.00296452 -7.23972e-17)
(1.00425 -0.00231023 2.91033e-16)
(1.00418 -0.00107832 -1.50909e-16)
(1.00301 0.00284826 -1.24931e-16)
(0.999804 -0.000170613 -5.24305e-17)
(0.999894 -0.000573581 -5.42896e-17)
(1.00009 -0.00108252 -1.03798e-16)
(1.00033 -0.00161149 2.39926e-17)
(1.00066 -0.00213408 5.28422e-17)
(1.00109 -0.00264893 -8.96691e-17)
(1.00161 -0.00310287 -3.25058e-17)
(1.00219 -0.00346627 -3.20781e-17)
(1.00278 -0.00367318 3.44526e-17)
(1.00333 -0.00369421 1.08418e-16)
(1.00377 -0.00347816 4.98716e-16)
(1.00408 -0.00299359 1.89413e-16)
(1.00436 -0.00229082 -1.70913e-16)
(1.00429 -0.00101432 3.18082e-16)
(1.00313 0.00298493 5.67164e-17)
(0.999753 -0.000189308 3.59823e-17)
(0.999857 -0.000647491 -1.17688e-16)
(1.00007 -0.00120642 1.2925e-16)
(1.00033 -0.001775 -1.40103e-16)
(1.00069 -0.00232445 -1.07458e-16)
(1.00114 -0.00285029 -9.97948e-17)
(1.00168 -0.00329687 -4.11835e-17)
(1.00228 -0.00363751 -1.17745e-16)
(1.00287 -0.00381187 -2.14096e-16)
(1.00343 -0.00379523 2.24788e-16)
(1.00387 -0.0035395 -2.87403e-16)
(1.00418 -0.00301404 -2.4967e-16)
(1.00447 -0.00226585 1.73302e-16)
(1.0044 -0.000947187 -1.77512e-16)
(1.00324 0.00312307 -8.1248e-17)
(0.999697 -0.000209149 1.09881e-17)
(0.999815 -0.000722247 -1.67599e-17)
(1.00004 -0.00132903 -4.04726e-17)
(1.00033 -0.00193325 3.73791e-17)
(1.00071 -0.00250483 -1.21792e-16)
(1.00118 -0.00303773 9.33236e-17)
(1.00175 -0.00347491 3.16638e-16)
(1.00235 -0.00379279 4.43256e-16)
(1.00295 -0.00393608 -1.15906e-16)
(1.00352 -0.00388415 -2.50778e-16)
(1.00396 -0.00359129 -1.2869e-16)
(1.00427 -0.00302749 1.99123e-16)
(1.00457 -0.00223661 -2.43589e-16)
(1.0045 -0.000877752 7.89129e-16)
(1.00334 0.0032615 3.45455e-16)
(0.999636 -0.000229738 -4.4366e-17)
(0.999768 -0.000796729 7.20272e-17)
(1.00001 -0.00144887 1.07426e-16)
(1.00032 -0.00208493 1.15076e-16)
(1.00073 -0.00267462 -1.42373e-16)
(1.00122 -0.00321148 -2.80602e-17)
(1.0018 -0.00363798 7.25942e-17)
(1.00242 -0.00393356 1.86664e-17)
(1.00303 -0.00404755 3.49636e-16)
(1.0036 -0.00396269 2.20841e-16)
(1.00404 -0.0036352 3.92715e-16)
(1.00435 -0.00303537 5.25349e-17)
(1.00465 -0.0022042 8.85853e-17)
(1.00459 -0.000807043 -3.57163e-16)
(1.00344 0.00340002 -3.30105e-16)
(0.99957 -0.000250626 1.89035e-17)
(0.999715 -0.000869905 4.88265e-17)
(0.999977 -0.00156464 -2.08022e-16)
(1.00031 -0.00222903 1.91708e-16)
(1.00074 -0.00283341 1.55335e-16)
(1.00125 -0.00337187 2.9906e-16)
(1.00184 -0.00378703 -5.78302e-17)
(1.00247 -0.00406115 -3.25052e-17)
(1.00309 -0.00414772 -1.12674e-16)
(1.00367 -0.00403229 6.5684e-17)
(1.00411 -0.00367246 -6.89681e-16)
(1.00443 -0.00303872 5.37598e-16)
(1.00474 -0.00216941 -5.05355e-17)
(1.00467 -0.00073539 -5.07103e-16)
(1.00354 0.00353802 2.53554e-16)
(0.9995 -0.000271462 3.36234e-17)
(0.999657 -0.000940986 7.11626e-17)
(0.999934 -0.00167542 2.27067e-16)
(1.00029 -0.00236491 -3.2239e-16)
(1.00073 -0.00298115 2.56413e-17)
(1.00126 -0.0035195 -2.3015e-16)
(1.00187 -0.00392312 2.25562e-17)
(1.00252 -0.00417688 -4.42741e-16)
(1.00314 -0.00423798 2.98876e-16)
(1.00372 -0.00409422 -3.60808e-16)
(1.00417 -0.00370422 5.21242e-16)
(1.00449 -0.00303841 -5.97602e-16)
(1.00481 -0.00213274 -2.95528e-16)
(1.00475 -0.000663609 2.08091e-16)
(1.00363 0.00367562 -2.02608e-16)
(0.999425 -0.000291891 -3.97715e-17)
(0.999593 -0.0010093 -3.38641e-17)
(0.999885 -0.0017805 -3.99263e-17)
(1.00026 -0.00249217 1.25164e-17)
(1.00072 -0.00311795 -1.8902e-17)
(1.00127 -0.00365499 -2.75493e-16)
(1.0019 -0.00404725 -2.57126e-16)
(1.00255 -0.00428193 1.74863e-16)
(1.00318 -0.00431948 8.35693e-17)
(1.00377 -0.00414951 5.47385e-16)
(1.00423 -0.00373129 -4.08794e-16)
(1.00455 -0.00303508 1.05725e-16)
(1.00488 -0.00209461 3.91026e-17)
(1.00483 -0.000591862 -8.327e-17)
(1.00372 0.00381373 3.05397e-16)
(0.999347 -0.000311685 2.34063e-17)
(0.999523 -0.00107445 -4.00228e-17)
(0.999829 -0.00187955 1.65063e-17)
(1.00022 -0.0026108 1.65072e-16)
(1.00071 -0.00324425 8.07309e-17)
(1.00127 -0.00377921 4.18908e-16)
(1.00191 -0.00416059 8.40931e-17)
(1.00257 -0.00437756 -7.40451e-17)
(1.00321 -0.00439344 -2.58784e-16)
(1.00381 -0.00419925 -3.54906e-16)
(1.00428 -0.00375461 3.10493e-16)
(1.00461 -0.00302946 2.49864e-17)
(1.00494 -0.00205553 1.53888e-16)
(1.0049 -0.000520652 1.74964e-16)
(1.00381 0.00395142 -7.04264e-17)
(0.999265 -0.000330615 -2.92566e-17)
(0.999449 -0.00113612 -1.04837e-16)
(0.999768 -0.00197238 -6.61477e-17)
(1.00018 -0.00272092 1.1686e-16)
(1.00068 -0.00336056 7.56661e-17)
(1.00126 -0.003893 4.9367e-17)
(1.00191 -0.00426416 1.95571e-17)
(1.00259 -0.00446483 3.35399e-16)
(1.00324 -0.00446085 1.1234e-16)
(1.00384 -0.00424425 -2.36955e-16)
(1.00432 -0.00377481 -4.76785e-17)
(1.00466 -0.003022 -2.46002e-16)
(1.005 -0.00201585 -2.26589e-16)
(1.00497 -0.000449729 5.60096e-17)
(1.00389 0.00408958 -1.12013e-16)
(0.999179 -0.000348584 2.37041e-17)
(0.999369 -0.00119421 1.27653e-16)
(0.999701 -0.00205906 -7.54497e-17)
(1.00013 -0.0028229 -5.39559e-17)
(1.00065 -0.00346761 7.60599e-17)
(1.00125 -0.00399737 -4.89429e-17)
(1.00191 -0.00435909 -7.92857e-17)
(1.00259 -0.00454486 -2.07135e-16)
(1.00326 -0.0045227 4.50451e-17)
(1.00387 -0.00428536 5.17849e-16)
(1.00435 -0.00379255 1.73974e-16)
(1.0047 -0.00301318 4.62637e-16)
(1.00506 -0.0019758 1.95687e-16)
(1.00504 -0.000379465 2.70688e-16)
(1.00398 0.0042266 2.37701e-17)
(0.99909 -0.000365481 2.852e-17)
(0.999286 -0.00124867 3.54952e-17)
(0.999628 -0.00213977 9.22487e-17)
(1.00007 -0.00291722 -1.64337e-16)
(1.00061 -0.0035661 -4.20654e-16)
(1.00122 -0.00409322 -7.13719e-17)
(1.0019 -0.00444635 -3.45048e-18)
(1.00259 -0.00461858 4.5288e-17)
(1.00327 -0.0045798 2.36769e-17)
(1.00389 -0.0043232 -3.24986e-16)
(1.00438 -0.00380828 1.93886e-16)
(1.00474 -0.00300331 -3.13592e-16)
(1.00511 -0.00193557 -1.01822e-16)
(1.0051 -0.000309748 -3.34087e-16)
(1.00406 0.00436495 -1.8309e-17)
(0.998998 -0.000381325 -3.97417e-17)
(0.999198 -0.00129965 -6.80101e-17)
(0.999552 -0.00221489 -6.04432e-17)
(1.00001 -0.00300451 -3.10927e-17)
(1.00056 -0.00365697 6.26618e-17)
(1.00119 -0.00418162 -1.65869e-16)
(1.00188 -0.00452707 7.03879e-17)
(1.00259 -0.00468704 1.84945e-16)
(1.00327 -0.00463307 -2.45518e-16)
(1.00391 -0.00435854 1.06746e-16)
(1.00441 -0.00382263 1.18122e-16)
(1.00478 -0.00299289 9.07905e-17)
(1.00517 -0.00189556 6.39745e-16)
(1.00517 -0.000241017 3.32458e-17)
(1.00413 0.00450142 -1.50752e-16)
(0.998903 -0.000396093 9.60038e-18)
(0.999107 -0.0013473 -3.85276e-18)
(0.99947 -0.0022848 -6.68877e-17)
(0.999941 -0.00308542 2.65018e-16)
(1.00051 -0.00374101 7.98624e-18)
(1.00115 -0.0042635 1.74327e-16)
(1.00186 -0.00460214 -9.67174e-17)
(1.00258 -0.00475107 -4.96257e-16)
(1.00327 -0.00468319 2.28924e-16)
(1.00392 -0.00439193 1.47811e-17)
(1.00444 -0.003836 -5.52626e-16)
(1.00482 -0.00298221 3.63781e-18)
(1.00522 -0.00185602 -4.10247e-16)
(1.00523 -0.000172675 2.2032e-16)
(1.00421 0.00463725 5.33382e-17)
(0.998805 -0.000409876 1.34553e-17)
(0.999012 -0.00139188 -9.82466e-18)
(0.999385 -0.00235003 1.59984e-16)
(0.99987 -0.00316069 -1.05e-16)
(1.00045 -0.00381916 -1.62587e-16)
(1.00111 -0.00433984 -3.9578e-16)
(1.00183 -0.00467255 -1.91148e-16)
(1.00256 -0.00481155 2.10057e-16)
(1.00327 -0.00473091 5.08182e-17)
(1.00393 -0.00442396 -2.75244e-16)
(1.00446 -0.00384883 1.78181e-16)
(1.00486 -0.00297156 -4.79875e-17)
(1.00527 -0.00181709 1.51755e-16)
(1.0053 -0.000105175 -3.97562e-17)
(1.00429 0.00477172 -1.01153e-16)
(0.998705 -0.000422708 -3.32156e-17)
(0.998913 -0.00143364 2.82997e-17)
(0.999297 -0.00241104 -9.3158e-17)
(0.999795 -0.003231 -5.66769e-17)
(1.00039 -0.00389219 2.52927e-16)
(1.00106 -0.00441147 6.11936e-16)
(1.0018 -0.00473907 4.0185e-16)
(1.00254 -0.00486915 1.59175e-16)
(1.00326 -0.00477677 2.89859e-17)
(1.00394 -0.00445502 3.38971e-17)
(1.00448 -0.00386139 1.21208e-16)
(1.00489 -0.00296114 -1.81371e-16)
(1.00532 -0.00177891 -2.48203e-17)
(1.00537 -3.79037e-05 1.32032e-16)
(1.00436 0.00490499 2.64845e-16)
(0.998602 -0.00043473 1.00762e-17)
(0.998812 -0.00147293 -3.56389e-17)
(0.999205 -0.00246842 8.37071e-19)
(0.999717 -0.00329711 8.2212e-17)
(1.00033 -0.00396101 5.50758e-17)
(1.00101 -0.00447932 -3.54359e-16)
(1.00176 -0.00480259 -1.73878e-16)
(1.00252 -0.00492466 -3.05949e-16)
(1.00326 -0.00482146 -6.66389e-17)
(1.00394 -0.00448569 7.17161e-16)
(1.0045 -0.00387416 8.52305e-18)
(1.00493 -0.00295134 -1.32534e-16)
(1.00537 -0.00174179 -4.09039e-16)
(1.00543 2.84497e-05 -1.91264e-17)
(1.00444 0.00503782 -6.91984e-17)
(0.998497 -0.000446 2.2678e-17)
(0.998709 -0.00151001 -2.99772e-18)
(0.99911 -0.00252266 2.9115e-17)
(0.999635 -0.00335968 -7.38578e-17)
(1.00026 -0.00402633 -2.16491e-17)
(1.00096 -0.00454412 1.44825e-16)
(1.00172 -0.00486378 -2.0439e-16)
(1.00249 -0.00497867 2.56499e-16)
(1.00324 -0.00486542 4.37888e-18)
(1.00395 -0.0045163 -3.82764e-16)
(1.00452 -0.00388738 -8.22587e-17)
(1.00496 -0.00294233 5.09491e-16)
(1.00542 -0.00170583 1.79209e-16)
(1.0055 9.41777e-05 -4.71356e-16)
(1.00452 0.00517006 -3.49002e-17)
(0.99839 -0.000456675 -1.65166e-17)
(0.998602 -0.00154524 5.24399e-17)
(0.999013 -0.00257431 9.6437e-18)
(0.999551 -0.00341939 -1.57872e-16)
(1.00019 -0.00408893 1.82301e-17)
(1.0009 -0.00460665 -6.10872e-18)
(1.00168 -0.00492336 4.74791e-16)
(1.00247 -0.0050318 2.6191e-16)
(1.00323 -0.00490917 -6.50953e-16)
(1.00395 -0.00454727 -2.87156e-16)
(1.00454 -0.00390135 1.71052e-16)
(1.005 -0.00293433 2.24458e-18)
(1.00548 -0.00167107 4.2861e-16)
(1.00557 0.00015889 4.32889e-16)
(1.0046 0.00530112 1.16503e-16)
(0.998282 -0.000466816 -7.46571e-18)
(0.998494 -0.00157889 6.71561e-18)
(0.998913 -0.00262381 1.05448e-16)
(0.999464 -0.0034768 2.71818e-16)
(1.00011 -0.00414938 -3.24555e-17)
(1.00084 -0.00466746 -3.08604e-16)
(1.00163 -0.00498182 -3.55373e-16)
(1.00244 -0.00508445 -6.69238e-16)
(1.00322 -0.00495304 4.27891e-16)
(1.00395 -0.00457881 3.41117e-16)
(1.00456 -0.00391621 -1.54202e-16)
(1.00503 -0.00292743 -2.65983e-16)
(1.00553 -0.00163754 -4.20805e-16)
(1.00564 0.000222906 -3.4548e-17)
(1.00468 0.00543117 -3.48375e-16)
(0.998171 -0.000476589 1.11267e-17)
(0.998383 -0.00161129 -3.3019e-17)
(0.998812 -0.00267166 -1.24092e-16)
(0.999374 -0.00353252 -2.1497e-16)
(1.00004 -0.00420838 -4.51418e-17)
(1.00078 -0.00472725 2.93797e-16)
(1.00159 -0.00503982 2.20007e-16)
(1.00241 -0.00513721 6.78618e-16)
(1.0032 -0.00499751 6.96002e-18)
(1.00396 -0.00461136 -1.45545e-16)
(1.00458 -0.00393234 1.16091e-17)
(1.00507 -0.00292195 -2.64837e-16)
(1.00559 -0.00160547 -3.58369e-16)
(1.00572 0.000285651 -3.20153e-16)
(1.00477 0.00556002 3.63516e-16)
(0.998058 -0.000486043 -3.79347e-17)
(0.99827 -0.00164268 8.38222e-17)
(0.998708 -0.00271826 -9.65833e-18)
(0.999283 -0.00358702 2.58916e-16)
(0.999959 -0.00426642 -1.01034e-16)
(1.00072 -0.00478648 -7.12569e-17)
(1.00154 -0.00509776 7.40254e-17)
(1.00237 -0.00519041 -4.28044e-16)
(1.00319 -0.00504284 -3.06335e-16)
(1.00396 -0.00464509 -1.07711e-17)
(1.0046 -0.00394984 9.40916e-17)
(1.00511 -0.00291797 1.46307e-16)
(1.00564 -0.0015749 3.74988e-16)
(1.00579 0.000347418 3.78893e-16)
(1.00486 0.00568781 -5.11936e-17)
(0.997943 -0.000495329 3.17562e-18)
(0.998155 -0.00167336 -2.77578e-17)
(0.998602 -0.00276402 -1.70324e-16)
(0.99919 -0.0036408 -2.66679e-16)
(0.999879 -0.00432402 9.61244e-17)
(1.00065 -0.00484568 1.3588e-16)
(1.00149 -0.00515612 -3.35135e-16)
(1.00234 -0.00524446 -8.21993e-17)
(1.00318 -0.00508938 2.94615e-16)
(1.00396 -0.00468031 -1.17264e-16)
(1.00462 -0.00396894 1.26753e-16)
(1.00515 -0.00291563 1.30891e-16)
(1.0057 -0.00154586 5.77996e-17)
(1.00587 0.000407833 -4.68749e-16)
(1.00495 0.00581479 -1.02951e-16)
(0.997827 -0.00050448 2.63899e-17)
(0.998039 -0.00170351 -4.55844e-17)
(0.998495 -0.00280924 1.25801e-16)
(0.999095 -0.00369421 2.25571e-16)
(0.999797 -0.00438153 7.23333e-17)
(1.00059 -0.00490516 -2.62676e-16)
(1.00144 -0.00521517 1.68535e-16)
(1.00231 -0.00529958 1.36165e-16)
(1.00316 -0.00513728 2.56819e-16)
(1.00397 -0.00471706 1.66886e-16)
(1.00465 -0.00398968 -3.09265e-16)
(1.00519 -0.00291495 3.49147e-17)
(1.00577 -0.00151834 -5.02751e-17)
(1.00595 0.00046725 -1.30611e-17)
(1.00504 0.00594087 4.01894e-17)
(0.997708 -0.000513638 3.20959e-17)
(0.997921 -0.00173339 5.09277e-18)
(0.998386 -0.00285428 1.76321e-16)
(0.998998 -0.00374768 -6.56273e-17)
(0.999714 -0.00443943 1.50587e-16)
(1.00052 -0.00496541 1.30482e-16)
(1.00139 -0.00527535 4.86042e-17)
(1.00228 -0.00535616 9.51357e-17)
(1.00315 -0.0051869 -1.1966e-16)
(1.00397 -0.00475571 -1.14609e-17)
(1.00467 -0.00401236 -8.87383e-17)
(1.00523 -0.00291617 -3.43092e-17)
(1.00583 -0.00149255 1.21662e-16)
(1.00604 0.00052514 -1.09362e-18)
(1.00514 0.0060663 -1.18094e-16)
(0.997588 -0.000522813 5.13154e-18)
(0.9978 -0.00176317 -8.90612e-17)
(0.998275 -0.00289938 -1.92457e-16)
(0.9989 -0.00380149 -1.21066e-16)
(0.99963 -0.00449799 -9.8109e-17)
(1.00045 -0.00502666 3.18286e-18)
(1.00134 -0.00533687 -5.29129e-17)
(1.00224 -0.0054144 -1.103e-16)
(1.00313 -0.00523836 -5.46514e-17)
(1.00398 -0.00479631 -1.62987e-16)
(1.0047 -0.00403702 2.73974e-16)
(1.00528 -0.00291933 4.27908e-17)
(1.0059 -0.00146852 -2.59724e-16)
(1.00612 0.000581856 2.47383e-16)
(1.00525 0.00619083 4.10221e-17)
(0.997467 -0.000532128 -5.04888e-17)
(0.997679 -0.00179303 6.92841e-17)
(0.998163 -0.00294484 -7.19379e-18)
(0.998801 -0.00385595 -1.96784e-17)
(0.999544 -0.00455755 -1.43242e-16)
(1.00038 -0.00508926 1.83377e-16)
(1.00129 -0.00540006 -5.26891e-18)
(1.00221 -0.00547454 1.76354e-16)
(1.00312 -0.00529192 1.42026e-17)
(1.00398 -0.00483909 -4.293e-18)
(1.00473 -0.00406383 -4.0971e-16)
(1.00533 -0.00292451 -1.00223e-16)
(1.00597 -0.00144623 2.94862e-16)
(1.00621 0.000637049 -1.85964e-16)
(1.00535 0.00631504 9.93552e-17)
(0.997343 -0.000541572 1.66723e-17)
(0.997555 -0.0018231 5.5567e-17)
(0.99805 -0.00299081 -5.76305e-17)
(0.9987 -0.00391126 -5.72632e-17)
(0.999458 -0.00461829 9.84353e-17)
(1.00031 -0.00515336 -1.65577e-16)
(1.00123 -0.00546502 -1.88881e-16)
(1.00218 -0.00553669 -9.08606e-18)
(1.00311 -0.00534759 -3.75876e-17)
(1.00399 -0.00488402 2.62733e-16)
(1.00476 -0.00409275 2.42232e-16)
(1.00538 -0.00293169 1.18648e-16)
(1.00604 -0.00142565 7.04766e-17)
(1.0063 0.000691117 4.16345e-16)
(1.00547 0.00643849 -1.95329e-16)
(0.997218 -0.000551262 -2.91372e-17)
(0.99743 -0.00185355 -7.39643e-17)
(0.997935 -0.00303755 2.815e-16)
(0.998598 -0.0039677 2.31109e-16)
(0.99937 -0.00468053 -5.65175e-17)
(1.00024 -0.00521928 -8.60618e-17)
(1.00118 -0.00553208 8.75293e-18)
(1.00214 -0.00560113 -2.39613e-16)
(1.00309 -0.00540567 -2.84946e-16)
(1.004 -0.00493139 8.28465e-17)
(1.00479 -0.00412405 2.17046e-16)
(1.00543 -0.00294109 -1.33641e-16)
(1.00611 -0.00140699 -1.77227e-16)
(1.0064 0.000743528 -4.07876e-16)
(1.00558 0.00656169 2.22533e-17)
(0.997091 -0.000561169 6.08174e-17)
(0.997303 -0.00188447 8.68019e-17)
(0.997818 -0.00308518 -2.58601e-16)
(0.998495 -0.0040254 -1.0979e-16)
(0.999282 -0.0047444 1.80886e-16)
(1.00017 -0.00528713 2.57469e-16)
(1.00113 -0.00560132 9.50947e-17)
(1.00211 -0.00566794 1.46379e-16)
(1.00308 -0.00546622 1.94755e-17)
(1.00401 -0.00498123 -3.04031e-16)
(1.00482 -0.00415772 -2.11722e-16)
(1.00548 -0.00295269 8.18669e-17)
(1.00619 -0.00139025 -2.88628e-16)
(1.00649 0.00079467 4.9058e-16)
(1.0057 0.00668404 1.28709e-16)
(0.996963 -0.000571392 -5.30848e-17)
(0.997175 -0.001916 -6.74985e-17)
(0.997701 -0.00313389 3.38416e-17)
(0.998391 -0.00408459 -8.26949e-17)
(0.999192 -0.00481013 -1.98147e-16)
(1.0001 -0.00535716 -1.20077e-16)
(1.00108 -0.00567297 8.54985e-17)
(1.00208 -0.00573733 1.00482e-17)
(1.00307 -0.0055294 3.08203e-16)
(1.00402 -0.00503368 3.21576e-16)
(1.00485 -0.0041939 1.52677e-17)
(1.00554 -0.00296659 1.97322e-17)
(1.00627 -0.00137541 6.26521e-16)
(1.00659 0.00084418 3.26631e-17)
(1.00582 0.00680638 4.02632e-17)
(0.996832 -0.000581888 1.17574e-17)
(0.997044 -0.00194817 2.34037e-17)
(0.997581 -0.00318375 1.80782e-17)
(0.998285 -0.00414534 1.0964e-16)
(0.999102 -0.00487777 -8.93867e-17)
(1.00003 -0.00542939 -2.29713e-16)
(1.00102 -0.00574705 -1.24701e-16)
(1.00205 -0.00580929 -2.17359e-17)
(1.00306 -0.0055952 -2.17331e-16)
(1.00404 -0.00508871 -2.50411e-16)
(1.00489 -0.00423252 -3.00071e-17)
(1.0056 -0.0029827 -5.71671e-17)
(1.00635 -0.00136243 5.6331e-18)
(1.00669 0.000892488 -3.96282e-16)
(1.00595 0.00692793 -4.48083e-17)
(0.9967 -0.000592754 1.19784e-17)
(0.996912 -0.00198114 -3.22729e-17)
(0.997461 -0.00323494 7.22258e-18)
(0.998178 -0.00420785 -5.30944e-17)
(0.999011 -0.00494756 2.7908e-16)
(0.999953 -0.00550408 2.86706e-16)
(1.00097 -0.00582381 2.68127e-16)