/*--------------------------------*- C++ -*----------------------------------*\
  =========                 |
  \\      /  F ield         | OpenFOAM: The Open Source CFD Toolbox
   \\    /   O peration     | Website:  https://openfoam.org
    \\  /    A nd           | Version:  6.0
     \\/     M anipulation  |
\*---------------------------------------------------------------------------*/
FoamFile
{
    version     2.0;
    format      ascii;
    class       volScalarField;
    location    "19";
    object      p;
}
// * * * * * * * * * * * * * * * * * * * * * * * * * * * * * * * * * * * * * //

dimensions      [0 2 -2 0 0 0 0];

internalField   nonuniform List<scalar> 
62000
(
0.0144536
0.0144282
0.0143989
0.0143693
0.0143351
0.0143001
0.0142598
0.0142183
0.0141708
0.0141223
0.0140667
0.0140101
0.0139451
0.0138793
0.0138036
0.0137267
0.0136381
0.0135475
0.0134433
0.0133357
0.0132127
0.0130843
0.0129389
0.0127855
0.0126131
0.0124299
0.0122253
0.0120062
0.0117629
0.0115009
0.0112117
0.0108988
0.0105564
0.0101867
0.009786
0.00934573
0.00886447
0.00834806
0.00780228
0.00723022
0.00663336
0.00601342
0.00537259
0.00471253
0.00403525
0.00333954
0.00262474
0.00189015
0.00112964
0.000359336
-0.000433518
-0.00118671
-0.0019212
-0.00253487
-0.00303531
-0.00333832
-0.00349072
-0.00326531
-0.00291621
-0.00373591
0.0144616
0.0144349
0.0144049
0.0143752
0.0143417
0.0143079
0.0142695
0.0142305
0.0141861
0.014141
0.0140892
0.0140364
0.0139754
0.0139133
0.0138413
0.0137675
0.0136821
0.0135941
0.0134933
0.0133884
0.0132696
0.0131449
0.0130047
0.0128558
0.0126899
0.0125116
0.0123141
0.0120996
0.0118635
0.0116059
0.0113252
0.0110213
0.0106924
0.0103358
0.00993958
0.00949807
0.00901469
0.00849785
0.00795219
0.00737865
0.00677735
0.00614949
0.00549688
0.00482092
0.00412287
0.00340078
0.00265236
0.00187456
0.00105806
0.00021509
-0.000673244
-0.00154164
-0.00240974
-0.00315346
-0.00378292
-0.00418688
-0.00440378
-0.00411924
-0.00378066
-0.00388449
0.0144649
0.014436
0.0144038
0.0143722
0.0143372
0.0143024
0.0142636
0.0142244
0.0141804
0.0141355
0.0140842
0.0140318
0.0139714
0.0139097
0.013838
0.0137643
0.0136789
0.0135907
0.0134894
0.0133838
0.0132638
0.0131376
0.0129956
0.0128444
0.0126758
0.0124939
0.0122923
0.0120725
0.0118304
0.0115652
0.011277
0.0109662
0.0106328
0.0102671
0.00985633
0.00939289
0.00888537
0.00834537
0.00777696
0.00717934
0.00655191
0.00589615
0.00521519
0.00451216
0.00379039
0.00305115
0.00229484
0.00152193
0.000726022
-8.11476e-05
-0.000916658
-0.0017231
-0.00249979
-0.00313523
-0.00365579
-0.00397193
-0.00412619
-0.00384618
-0.00359566
-0.00394213
0.0144934
0.0144641
0.0144318
0.0144001
0.0143652
0.0143308
0.0142926
0.0142542
0.014211
0.014167
0.0141165
0.0140648
0.014005
0.0139436
0.0138722
0.0137984
0.0137131
0.0136245
0.013523
0.0134171
0.0132969
0.0131703
0.0130279
0.0128761
0.0127066
0.0125237
0.0123206
0.012099
0.0118545
0.0115865
0.0112948
0.0109808
0.010643
0.0102738
0.00985379
0.00937828
0.00885769
0.00830502
0.00772362
0.00711121
0.0064664
0.00579082
0.00508834
0.00436333
0.00362063
0.00286402
0.00209669
0.00132212
0.000537537
-0.000245528
-0.00104284
-0.0018062
-0.0025217
-0.00309231
-0.00356079
-0.0038613
-0.00403378
-0.00383057
-0.0036535
-0.00413108
0.014531
0.0145027
0.0144717
0.0144412
0.0144077
0.0143747
0.0143382
0.0143016
0.0142603
0.0142182
0.0141697
0.0141198
0.0140621
0.0140026
0.0139332
0.0138613
0.0137779
0.0136913
0.0135919
0.0134881
0.0133702
0.0132458
0.0131059
0.0129566
0.0127898
0.0126096
0.0124094
0.0121908
0.0119495
0.0116847
0.0113958
0.0110837
0.0107493
0.0103797
0.00996032
0.00948431
0.00896397
0.00841247
0.00783169
0.00721761
0.00656768
0.0058829
0.00516699
0.00442421
0.00365967
0.00287831
0.00208487
0.00128572
0.000481237
-0.000314534
-0.00111558
-0.0018787
-0.00258067
-0.00313238
-0.00359279
-0.0039039
-0.00410106
-0.00393122
-0.00373577
-0.00412979
0.0145876
0.0145611
0.0145318
0.0145026
0.0144705
0.0144388
0.0144041
0.0143697
0.0143309
0.0142914
0.0142456
0.0141985
0.0141436
0.0140868
0.0140202
0.0139505
0.0138695
0.0137848
0.0136877
0.013586
0.0134708
0.0133492
0.0132126
0.0130668
0.0129042
0.0127285
0.0125334
0.0123203
0.012085
0.0118266
0.011544
0.0112381
0.0109074
0.0105439
0.0101285
0.0096585
0.0091461
0.0086038
0.00803188
0.00742451
0.00677779
0.00609189
0.00536977
0.00461501
0.00383217
0.00302623
0.00220295
0.00137062
0.000533456
-0.000290819
-0.00111194
-0.00188693
-0.00258658
-0.00312304
-0.00356735
-0.00387
-0.00406389
-0.00390554
-0.0036803
-0.00403809
0.0146582
0.0146322
0.014603
0.0145737
0.0145415
0.0145099
0.0144759
0.0144428
0.0144064
0.0143695
0.0143269
0.0142832
0.0142326
0.0141802
0.0141182
0.0140532
0.0139767
0.0138965
0.0138039
0.0137068
0.0135962
0.0134794
0.013348
0.0132078
0.0130512
0.0128822
0.0126945
0.0124896
0.0122634
0.0120147
0.0117424
0.0114461
0.0111266
0.0107713
0.0103673
0.00991028
0.00941386
0.00889006
0.00833759
0.00774888
0.00711862
0.00644575
0.00573206
0.00497972
0.00419178
0.00337204
0.00252558
0.00166142
0.000785798
-7.94279e-05
-0.000939525
-0.00174851
-0.00246905
-0.00301073
-0.00345622
-0.00376085
-0.00396078
-0.00382408
-0.00358739
-0.00390166
0.0147427
0.0147165
0.0146872
0.0146575
0.0146249
0.0145928
0.014559
0.0145268
0.0144922
0.0144576
0.014418
0.0143778
0.0143316
0.0142843
0.0142281
0.0141689
0.0140984
0.0140237
0.013937
0.0138454
0.013741
0.0136303
0.0135057
0.0133726
0.013224
0.0130635
0.0128854
0.012691
0.0124764
0.0122406
0.011982
0.0117005
0.0113941
0.0110555
0.0106678
0.0102306
0.00975775
0.00926081
0.00873745
0.00817876
0.00757821
0.00693368
0.00624567
0.00551469
0.00474174
0.00392823
0.00307701
0.00219504
0.0012884
0.000379756
-0.000532875
-0.0014007
-0.00217758
-0.00276738
-0.00325541
-0.00360022
-0.00383161
-0.00372556
-0.00346526
-0.00367746
0.0148299
0.0148032
0.0147736
0.0147439
0.0147113
0.0146792
0.0146456
0.0146142
0.0145811
0.0145484
0.014511
0.0144736
0.014431
0.0143882
0.0143375
0.0142842
0.0142199
0.0141515
0.0140711
0.0139859
0.0138879
0.0137839
0.0136661
0.0135403
0.0133994
0.0132472
0.0130781
0.0128937
0.0126902
0.0124666
0.0122212
0.0119532
0.0116629
0.0113384
0.0109686
0.0105516
0.0101026
0.00963353
0.00914129
0.00861622
0.00805104
0.00744286
0.00679125
0.00609534
0.00535414
0.00456638
0.00373166
0.00285354
0.00193503
0.0009973
3.8332e-05
-0.000891751
-0.00173752
-0.00239493
-0.00294875
-0.00335258
-0.00362621
-0.00354227
-0.00323927
-0.00333885
0.0149291
0.0149031
0.0148747
0.0148464
0.0148155
0.0147849
0.0147527
0.014723
0.0146917
0.014661
0.0146256
0.0145898
0.0145494
0.0145092
0.0144619
0.0144123
0.014352
0.0142874
0.0142109
0.0141293
0.0140354
0.0139354
0.0138222
0.0137009
0.013565
0.0134182
0.0132549
0.0130768
0.0128802
0.0126643
0.0124272
0.0121685
0.011886
0.0115726
0.0112133
0.0108095
0.0103767
0.00992682
0.00945683
0.0089569
0.00841965
0.00784223
0.00722418
0.00656432
0.00586085
0.00511079
0.00431125
0.00346197
0.00256237
0.00162936
0.000658675
-0.000301576
-0.00118985
-0.00189581
-0.00250043
-0.00295407
-0.00326344
-0.00320409
-0.00287249
-0.00290116
0.0150452
0.01502
0.0149928
0.0149662
0.0149373
0.0149086
0.0148785
0.0148508
0.0148222
0.0147939
0.0147609
0.0147271
0.0146887
0.0146508
0.0146064
0.0145599
0.0145028
0.0144411
0.0143673
0.0142882
0.0141966
0.0140988
0.0139877
0.0138685
0.0137348
0.0135899
0.0134288
0.0132528
0.0130585
0.0128448
0.0126103
0.0123535
0.0120746
0.011762
0.0114057
0.0110054
0.0105776
0.0101347
0.00967377
0.00918536
0.00866238
0.00810263
0.00750647
0.00687352
0.00620258
0.00549058
0.00473368
0.00392935
0.00307362
0.00217922
0.00123749
0.000291772
-0.000593585
-0.00130626
-0.00192829
-0.00240899
-0.00274893
-0.0027275
-0.00240361
-0.00241811
0.0151886
0.0151649
0.0151395
0.015115
0.0150888
0.0150629
0.0150357
0.015011
0.0149857
0.0149611
0.0149315
0.014901
0.0148656
0.0148308
0.0147899
0.0147467
0.0146931
0.0146341
0.0145628
0.0144855
0.0143955
0.014299
0.0141891
0.0140709
0.0139381
0.0137941
0.0136336
0.013458
0.0132639
0.0130503
0.0128155
0.0125585
0.012277
0.0119638
0.0116047
0.0112021
0.0107723
0.0103275
0.0098652
0.00937632
0.00885431
0.00829791
0.00770891
0.00708861
0.00643765
0.0057545
0.00503637
0.00428006
0.0034802
0.00264533
0.00176254
0.000867791
2.42502e-05
-0.000659774
-0.00127014
-0.00176292
-0.00213512
-0.00217448
-0.00189277
-0.00192595
0.0153569
0.0153343
0.0153103
0.0152878
0.0152643
0.0152415
0.0152175
0.0151963
0.0151752
0.0151552
0.0151306
0.015105
0.0150747
0.015045
0.0150096
0.0149721
0.0149241
0.0148704
0.0148038
0.0147306
0.0146443
0.0145511
0.0144443
0.014329
0.014199
0.0140576
0.0138997
0.0137266
0.0135348
0.0133234
0.0130905
0.0128347
0.0125553
0.0122411
0.011882
0.0114783
0.0110467
0.0105992
0.0101336
0.00964075
0.00911447
0.00855418
0.00796299
0.00734392
0.00669988
0.00603177
0.005339
0.00461962
0.0038682
0.00309108
0.00227135
0.00143724
0.000648596
6.2635e-06
-0.00058439
-0.00108871
-0.0015039
-0.00161856
-0.00139379
-0.00145409
0.0155554
0.0155349
0.0155131
0.0154931
0.0154727
0.0154534
0.015433
0.0154155
0.0153984
0.0153831
0.0153638
0.0153436
0.0153191
0.0152954
0.0152666
0.0152361
0.0151954
0.0151487
0.0150889
0.0150222
0.0149422
0.0148552
0.0147548
0.0146458
0.0145225
0.0143879
0.0142371
0.0140713
0.0138871
0.0136835
0.0134587
0.0132114
0.0129388
0.0126334
0.0122812
0.0118842
0.0114584
0.0110152
0.0105519
0.0100594
0.00953134
0.00896723
0.00837096
0.00774687
0.00709992
0.00643346
0.00574978
0.00504891
0.00432716
0.00358955
0.00281716
0.00203082
0.00128622
0.000675003
9.40966e-05
-0.000433463
-0.000902471
-0.0010989
-0.000927739
-0.00100164
0.0157783
0.0157598
0.0157396
0.0157214
0.0157032
0.0156863
0.0156684
0.0156534
0.0156394
0.0156276
0.0156127
0.0155976
0.0155788
0.0155616
0.0155403
0.0155181
0.0154864
0.0154493
0.0153992
0.0153422
0.015272
0.0151948
0.0151047
0.0150063
0.0148941
0.0147712
0.0146328
0.0144801
0.0143098
0.014121
0.0139118
0.0136805
0.013426
0.0131369
0.0128029
0.0124235
0.0120147
0.0115871
0.0111374
0.0106561
0.0101357
0.00957543
0.00897893
0.00835091
0.00769745
0.00702374
0.00633451
0.00563212
0.00491507
0.00418894
0.00343407
0.00266579
0.00193716
0.0013315
0.000737788
0.000170124
-0.000362466
-0.000635255
-0.000502684
-0.00057174
0.016024
0.0160082
0.0159901
0.0159735
0.0159573
0.0159426
0.0159266
0.0159133
0.0159008
0.015891
0.0158788
0.015867
0.0158524
0.0158403
0.0158254
0.0158107
0.0157878
0.01576
0.0157202
0.0156738
0.0156149
0.0155495
0.0154719
0.0153869
0.0152891
0.0151816
0.0150598
0.0149249
0.0147737
0.0146055
0.0144183
0.014211
0.0139803
0.0137187
0.0134117
0.0130606
0.0126799
0.0122796
0.0118553
0.0113966
0.0108951
0.0103486
0.00975985
0.00913299
0.00847423
0.00778959
0.00708554
0.00636624
0.0056329
0.00489192
0.00412497
0.00334352
0.00259992
0.00197086
0.0013415
0.000718895
0.000119783
-0.000219609
-0.000107181
-0.000149648
0.0162825
0.0162692
0.0162529
0.0162378
0.0162232
0.0162103
0.016196
0.0161838
0.0161723
0.0161635
0.0161526
0.0161426
0.0161306
0.0161219
0.0161115
0.0161026
0.0160869
0.0160675
0.016037
0.0160009
0.0159531
0.0158998
0.0158354
0.0157646
0.0156824
0.0155918
0.0154884
0.0153736
0.0152443
0.0150998
0.0149383
0.0147585
0.0145588
0.0143279
0.0140553
0.0137395
0.013395
0.0130307
0.0126415
0.0122158
0.0117438
0.0112217
0.0106505
0.0100329
0.0093742
0.0086802
0.00795794
0.00721275
0.00644797
0.00567174
0.00486781
0.00404586
0.00326002
0.00258309
0.00189903
0.00121178
0.000546763
0.000154633
0.000264124
0.000263625
0.0165563
0.0165462
0.0165326
0.0165195
0.0165069
0.0164959
0.0164832
0.0164721
0.0164609
0.0164521
0.0164411
0.016431
0.0164192
0.0164112
0.0164025
0.0163962
0.0163845
0.0163701
0.0163461
0.0163173
0.0162782
0.0162347
0.0161816
0.0161235
0.0160557
0.0159811
0.0158955
0.0158003
0.0156925
0.0155718
0.0154364
0.0152853
0.0151155
0.0149193
0.0146822
0.0144047
0.0140998
0.0137757
0.0134265
0.0130393
0.0126032
0.0121125
0.011566
0.0109647
0.0103123
0.00961331
0.00887458
0.00810166
0.00729978
0.00647823
0.00562398
0.004746
0.00390154
0.00316209
0.00241404
0.00166014
0.000935963
0.000504268
0.000625316
0.000680616
0.0168407
0.0168336
0.0168219
0.0168101
0.0167984
0.0167883
0.0167765
0.0167656
0.0167542
0.0167444
0.0167324
0.0167211
0.0167082
0.0166994
0.0166905
0.0166849
0.0166747
0.0166631
0.0166427
0.0166188
0.0165856
0.0165492
0.0165045
0.0164563
0.0164
0.0163385
0.0162679
0.0161895
0.0161007
0.016001
0.0158891
0.0157636
0.0156233
0.0154572
0.0152547
0.0150137
0.0147473
0.0144631
0.0141543
0.0138074
0.0134099
0.0129545
0.0124379
0.0118589
0.0112191
0.0105212
0.00977105
0.00897359
0.00813512
0.00726618
0.00635682
0.0054162
0.0045065
0.00369924
0.00288492
0.0020676
0.00129223
0.000833811
0.000976887
0.00109551
0.0171374
0.0171332
0.0171237
0.0171129
0.0171019
0.0170923
0.0170808
0.0170697
0.0170574
0.0170461
0.017032
0.0170184
0.0170032
0.0169921
0.0169811
0.0169739
0.0169629
0.0169511
0.0169315
0.016909
0.0168783
0.0168454
0.0168055
0.0167634
0.0167146
0.0166623
0.0166026
0.016537
0.0164628
0.0163798
0.0162866
0.0161826
0.016065
0.0159263
0.0157525
0.0155433
0.0153109
0.0150623
0.0147902
0.0144804
0.0141196
0.0136988
0.013213
0.0126587
0.0120356
0.0113442
0.0105888
0.00977328
0.00890461
0.00799365
0.00703372
0.00603425
0.00506233
0.0041907
0.00331593
0.00244382
0.00162849
0.0011544
0.00132819
0.00151747
0.0174374
0.0174352
0.0174271
0.0174172
0.0174066
0.0173974
0.0173862
0.017375
0.017362
0.0173494
0.0173335
0.0173176
0.0172998
0.0172859
0.0172722
0.0172624
0.0172491
0.0172354
0.0172144
0.017191
0.0171601
0.0171277
0.0170893
0.0170496
0.0170047
0.0169574
0.0169042
0.0168466
0.0167822
0.0167106
0.0166308
0.0165419
0.0164428
0.016323
0.0161723
0.0159881
0.015783
0.0155635
0.0153221
0.0150442
0.0147159
0.0143269
0.0138707
0.0133419
0.0127381
0.0120578
0.0113033
0.0104771
0.00958621
0.0086415
0.00763901
0.00658837
0.00556229
0.00463441
0.00370766
0.00279058
0.001945
0.00146455
0.00167443
0.00193747
0.0177484
0.0177481
0.0177417
0.0177328
0.0177227
0.0177138
0.0177027
0.0176913
0.0176774
0.0176632
0.0176451
0.0176264
0.0176055
0.0175879
0.0175705
0.0175566
0.0175396
0.0175219
0.0174975
0.0174708
0.0174372
0.0174025
0.0173626
0.0173223
0.0172777
0.0172318
0.0171811
0.0171273
0.0170679
0.0170028
0.016931
0.016852
0.0167634
0.0166581
0.0165227
0.0163564
0.0161712
0.0159732
0.015755
0.0155019
0.0151994
0.0148367
0.0144059
0.0139004
0.0133159
0.0126489
0.0119
0.0110701
0.0101661
0.00919788
0.0081643
0.00707446
0.00600551
0.00503262
0.00406555
0.00311505
0.00224998
0.00177133
0.00202267
0.002363
0.0180646
0.0180652
0.0180594
0.0180505
0.01804
0.0180303
0.0180186
0.0180062
0.0179911
0.0179752
0.0179549
0.0179337
0.0179098
0.0178891
0.0178683
0.0178508
0.01783
0.0178086
0.0177802
0.0177498
0.0177125
0.0176742
0.0176311
0.017588
0.0175413
0.017494
0.0174428
0.0173892
0.0173311
0.0172683
0.0171999
0.0171253
0.0170436
0.0169449
0.0168192
0.0166641
0.0164917
0.0163082
0.016106
0.0158708
0.0155879
0.0152459
0.0148364
0.0143514
0.0137853
0.0131328
0.0123929
0.0115649
0.0106549
0.00967226
0.00861694
0.00749847
0.00639784
0.00539067
0.00439318
0.0034186
0.00254165
0.00207049
0.00236547
0.00278396
0.0183909
0.0183918
0.018386
0.0183767
0.0183653
0.0183542
0.018341
0.018327
0.0183099
0.0182917
0.0182688
0.0182446
0.0182176
0.0181936
0.0181694
0.0181483
0.0181236
0.0180982
0.0180657
0.0180309
0.0179892
0.0179466
0.0178993
0.0178522
0.0178019
0.0177514
0.0176975
0.0176419
0.0175823
0.0175188
0.0174503
0.0173769
0.017296
0.0172012
0.0170794
0.01693
0.0167646
0.0165892
0.0163966
0.0161725
0.0159025
0.015575
0.0151812
0.0147125
0.014162
0.0135233
0.0127938
0.0119713
0.0110615
0.010072
0.00900494
0.00786811
0.00674605
0.00571475
0.00469679
0.00370723
0.0028261
0.00236773
0.00270967
0.00320767
0.0187164
0.0187164
0.0187099
0.0186999
0.0186873
0.0186749
0.0186602
0.0186446
0.0186258
0.0186054
0.0185802
0.0185534
0.0185237
0.0184969
0.0184697
0.0184454
0.0184175
0.0183886
0.0183524
0.0183137
0.018268
0.0182211
0.0181696
0.0181182
0.0180637
0.0180092
0.0179517
0.0178926
0.01783
0.0177638
0.0176931
0.0176176
0.0175365
0.0174404
0.0173196
0.0171718
0.0170088
0.0168369
0.0166489
0.0164311
0.0161691
0.0158514
0.0154692
0.0150134
0.0144762
0.0138502
0.0131313
0.0123167
0.0114103
0.0104193
0.00934535
0.00819746
0.00706154
0.00601331
0.00498123
0.00398233
0.00310109
0.00265795
0.00304674
0.00362387
0.0190511
0.0190498
0.0190424
0.0190315
0.0190176
0.0190036
0.0189871
0.0189696
0.0189485
0.0189256
0.0188975
0.0188676
0.0188348
0.0188046
0.0187741
0.0187463
0.018715
0.0186822
0.0186423
0.0185995
0.0185498
0.0184987
0.0184431
0.0183875
0.0183289
0.0182704
0.018209
0.0181461
0.0180798
0.0180101
0.0179361
0.0178579
0.0177731
0.0176756
0.0175529
0.0174041
0.0172408
0.017069
0.0168818
0.0166661
0.0164075
0.0160952
0.01572
0.0152733
0.014746
0.0141306
0.0134212
0.0126151
0.011714
0.0107249
0.0096495
0.00849562
0.00735139
0.00629195
0.00525145
0.0042484
0.00337135
0.00294657
0.00338403
0.00403947
0.0193859
0.0193824
0.0193731
0.0193603
0.0193443
0.0193278
0.0193088
0.0192887
0.019265
0.0192393
0.0192083
0.0191755
0.0191399
0.019107
0.0190739
0.0190436
0.0190095
0.0189741
0.0189314
0.0188856
0.0188328
0.0187784
0.0187194
0.0186603
0.0185982
0.0185362
0.0184712
0.0184048
0.018335
0.0182618
0.0181844
0.0181023
0.0180151
0.0179135
0.0177884
0.0176374
0.0174721
0.0172985
0.0171103
0.0168942
0.0166369
0.0163274
0.015957
0.0155166
0.0149971
0.0143903
0.0136895
0.0128914
0.0119957
0.0110099
0.00993281
0.00877643
0.00762676
0.00655857
0.00551175
0.00450645
0.0036346
0.00322808
0.00371224
0.00444465
0.0197275
0.0197212
0.0197095
0.0196941
0.0196752
0.0196556
0.0196333
0.0196098
0.0195827
0.0195535
0.0195191
0.0194829
0.0194442
0.0194084
0.0193727
0.0193398
0.0193034
0.0192655
0.0192203
0.019172
0.0191166
0.0190595
0.0189978
0.018936
0.0188712
0.0188063
0.0187385
0.0186693
0.0185966
0.0185205
0.01844
0.0183551
0.0182638
0.0181601
0.0180319
0.0178783
0.0177106
0.0175344
0.0173438
0.0171258
0.0168677
0.0165585
0.0161903
0.0157536
0.0152392
0.0146386
0.0139445
0.0131529
0.0122623
0.0112796
0.0102029
0.00904453
0.00789086
0.00681576
0.00576463
0.00475909
0.00389427
0.00350765
0.0040392
0.00484614
0.0200615
0.0200515
0.0200368
0.0200189
0.0199973
0.0199748
0.0199496
0.0199231
0.019893
0.0198607
0.0198232
0.019784
0.0197425
0.0197042
0.0196663
0.0196314
0.0195932
0.0195535
0.0195065
0.0194564
0.0193992
0.0193403
0.0192767
0.0192131
0.0191464
0.0190797
0.0190101
0.0189389
0.0188643
0.0187861
0.0187035
0.018616
0.018523
0.0184161
0.0182859
0.0181302
0.01796
0.0177816
0.0175883
0.0173685
0.017109
0.0167998
0.0164327
0.0159987
0.015488
0.0148923
0.0142031
0.0134169
0.0125294
0.0115489
0.0104691
0.0093098
0.00815193
0.00706927
0.00601308
0.00500667
0.00414787
0.00377933
0.00435507
0.0052347
0.0204014
0.0203878
0.0203701
0.0203493
0.0203248
0.0202991
0.0202705
0.0202407
0.020207
0.0201711
0.02013
0.0200871
0.0200423
0.0200008
0.0199601
0.0199225
0.0198819
0.01984
0.019791
0.019739
0.0196802
0.0196198
0.019555
0.0194902
0.0194226
0.019355
0.0192845
0.0192125
0.019137
0.0190578
0.018974
0.0188855
0.0187904
0.0186828
0.0185509
0.0183939
0.0182222
0.0180418
0.0178464
0.0176244
0.0173632
0.017053
0.0166858
0.0162528
0.0157441
0.0151513
0.0144654
0.0136825
0.0127969
0.0118169
0.0107343
0.00957139
0.00840867
0.00731818
0.00625688
0.00524983
0.00439758
0.00404805
0.00466807
0.00561637
0.0207355
0.0207175
0.020696
0.0206718
0.0206436
0.0206141
0.0205818
0.0205481
0.0205108
0.0204712
0.0204266
0.0203804
0.0203326
0.0202886
0.0202457
0.0202063
0.020164
0.0201207
0.0200705
0.0200174
0.0199577
0.0198966
0.0198313
0.0197662
0.0196984
0.0196308
0.0195604
0.0194886
0.0194132
0.0193341
0.0192504
0.0191615
0.019067
0.0189578
0.0188262
0.0186686
0.0184965
0.0183148
0.0181183
0.0178949
0.0176329
0.017322
0.016955
0.0165227
0.0160156
0.0154247
0.0147408
0.0139597
0.0130737
0.0120921
0.0110024
0.0098362
0.0086671
0.00756664
0.00649817
0.00548868
0.00464098
0.0043077
0.00496797
0.00598289
0.0210717
0.0210492
0.0210234
0.0209949
0.0209623
0.0209283
0.0208914
0.0208532
0.0208115
0.0207677
0.020719
0.0206693
0.0206183
0.0205716
0.0205265
0.0204853
0.0204416
0.020397
0.0203458
0.0202918
0.0202316
0.0201702
0.020105
0.0200401
0.0199729
0.0199061
0.0198367
0.019766
0.0196917
0.0196138
0.0195313
0.0194438
0.0193491
0.019242
0.0191104
0.0189537
0.0187815
0.0185999
0.0184026
0.0181785
0.0179155
0.017604
0.0172365
0.0168044
0.0162975
0.0157075
0.0150239
0.0142431
0.013355
0.0123701
0.0112729
0.0101001
0.00892302
0.00781149
0.00673492
0.00572247
0.00487932
0.004563
0.00526327
0.00633983
0.0213955
0.0213679
0.0213376
0.0213051
0.0212685
0.0212305
0.0211896
0.0211475
0.021102
0.0210545
0.0210023
0.0209494
0.0208957
0.0208467
0.0207998
0.0207572
0.0207124
0.020667
0.0206153
0.0205611
0.020501
0.0204399
0.0203753
0.0203114
0.0202455
0.0201801
0.0201126
0.0200438
0.0199717
0.0198961
0.0198159
0.0197302
0.0196385
0.0195322
0.0194027
0.0192472
0.0190758
0.0188948
0.018698
0.0184741
0.0182111
0.0178997
0.0175322
0.0171004
0.0165938
0.016004
0.01532
0.0145379
0.0136459
0.0126555
0.0115471
0.0103679
0.00918131
0.0080563
0.00696914
0.0059515
0.00511044
0.00480778
0.00554359
0.00667987
0.0217207
0.0216882
0.0216534
0.0216166
0.0215757
0.0215333
0.021488
0.0214416
0.0213918
0.0213402
0.0212841
0.0212276
0.0211708
0.0211191
0.0210702
0.0210257
0.0209797
0.0209332
0.0208809
0.0208264
0.0207665
0.020706
0.0206425
0.0205801
0.020516
0.0204529
0.0203879
0.0203219
0.0202529
0.0201806
0.0201036
0.0200215
0.019932
0.0198291
0.0197015
0.0195474
0.0193777
0.019198
0.0190024
0.0187789
0.0185162
0.0182047
0.0178372
0.0174051
0.0168981
0.0163077
0.0156221
0.0148374
0.0139404
0.0129429
0.0118231
0.010634
0.00943616
0.00829648
0.0071976
0.00617404
0.00533493
0.00504666
0.00581758
0.00700797
0.0220363
0.0219983
0.0219585
0.0219168
0.0218709
0.0218234
0.0217732
0.0217221
0.021668
0.0216123
0.0215528
0.0214933
0.0214341
0.0213808
0.0213307
0.0212856
0.0212393
0.0211929
0.021141
0.0210871
0.0210282
0.020969
0.0209071
0.0208468
0.0207852
0.0207248
0.020663
0.0206005
0.0205354
0.0204671
0.0203943
0.0203157
0.0202305
0.0201296
0.0200047
0.0198529
0.0196854
0.019508
0.0193141
0.019092
0.0188302
0.0185193
0.0181522
0.0177202
0.017213
0.0166215
0.0159338
0.0151453
0.0142418
0.0132354
0.0121016
0.0109029
0.00969243
0.00853593
0.00742289
0.00639103
0.00555119
0.00527369
0.00607495
0.00731775
0.0223423
0.0222982
0.0222525
0.0222049
0.0221536
0.022101
0.0220461
0.0219906
0.0219328
0.0218738
0.0218116
0.02175
0.0216896
0.0216356
0.0215854
0.0215405
0.0214948
0.0214491
0.0213981
0.0213454
0.0212879
0.0212304
0.0211707
0.0211128
0.021054
0.0209968
0.0209386
0.0208801
0.0208193
0.0207554
0.0206868
0.0206127
0.0205303
0.0204337
0.0203113
0.0201626
0.0199982
0.0198235
0.0196316
0.0194108
0.01915
0.0188397
0.0184728
0.0180405
0.0175325
0.0169393
0.0162485
0.0154552
0.0145444
0.0135279
0.0123803
0.0111688
0.00994411
0.0087696
0.00764123
0.00660022
0.00575943
0.00549344
0.00632445
0.00761379
0.02263
0.0225787
0.0225276
0.022476
0.0224213
0.0223657
0.0223081
0.0222505
0.0221905
0.0221297
0.0220659
0.0220032
0.021942
0.0218877
0.0218377
0.0217934
0.0217486
0.0217041
0.0216545
0.0216033
0.0215477
0.0214922
0.0214349
0.0213796
0.0213238
0.02127
0.0212156
0.0211611
0.0211046
0.0210451
0.0209811
0.0209109
0.0208333
0.0207393
0.020621
0.020476
0.0203151
0.0201435
0.019954
0.0197352
0.0194757
0.0191665
0.0188002
0.018368
0.0178592
0.0172641
0.0165698
0.0157708
0.0148516
0.0138237
0.0126607
0.0114368
0.0101967
0.00900216
0.00785607
0.00680333
0.00595862
0.00570019
0.00655592
0.00789022
0.0229539
0.0228976
0.0228402
0.0227813
0.0227191
0.0226561
0.022592
0.0225286
0.0224639
0.0223992
0.0223323
0.0222671
0.0222042
0.0221487
0.0220981
0.0220535
0.0220088
0.0219647
0.0219158
0.0218657
0.0218114
0.0217576
0.0217023
0.0216494
0.0215965
0.0215459
0.021495
0.0214445
0.0213921
0.021337
0.0212773
0.0212117
0.0211374
0.0210483
0.0209338
0.020793
0.0206359
0.0204675
0.0202805
0.0200634
0.0198053
0.019497
0.0191312
0.0186987
0.0181886
0.017591
0.0168923
0.0160867
0.0151584
0.0141183
0.0129399
0.0117009
0.0104438
0.00922805
0.00806302
0.0069976
0.00614863
0.00589839
0.006778
0.00815151
0.0232955
0.0232325
0.0231688
0.0231037
0.023035
0.0229655
0.0228947
0.022825
0.0227544
0.0226845
0.0226131
0.0225443
0.0224784
0.0224207
0.0223685
0.022323
0.0222778
0.0222336
0.0221849
0.0221352
0.0220818
0.0220292
0.0219755
0.0219246
0.021874
0.0218262
0.0217786
0.0217316
0.0216832
0.0216321
0.0215767
0.021515
0.0214455
0.0213597
0.0212498
0.0211133
0.0209601
0.0207951
0.0206108
0.0203959
0.0201395
0.0198326
0.0194675
0.019035
0.0185237
0.0179233
0.0172198
0.0164071
0.0154687
0.0144158
0.0132208
0.011967
0.0106916
0.00945275
0.00826638
0.00718547
0.00632896
0.0060827
0.00698097
0.00839168
0.0236468
0.023579
0.0235098
0.0234386
0.0233634
0.0232872
0.0232101
0.0231343
0.0230583
0.0229836
0.0229083
0.022836
0.0227675
0.0227077
0.0226538
0.0226068
0.0225605
0.0225152
0.0224658
0.0224157
0.0223622
0.0223098
0.0222569
0.0222071
0.0221583
0.0221127
0.0220677
0.0220239
0.0219788
0.0219316
0.0218799
0.0218223
0.021756
0.0216751
0.0215692
0.0214372
0.0212881
0.0211265
0.0209448
0.0207319
0.0204772
0.0201715
0.0198069
0.0193739
0.0188609
0.0182571
0.017548
0.0167272
0.0157782
0.0147115
0.0135
0.0122289
0.0109335
0.00967032
0.00846128
0.00736376
0.00649916
0.00625735
0.00717325
0.00861608
0.0240151
0.0239413
0.0238664
0.0237897
0.0237089
0.0236269
0.0235439
0.0234623
0.0233806
0.0233008
0.0232208
0.0231447
0.023073
0.0230106
0.0229545
0.0229056
0.0228574
0.0228105
0.0227597
0.0227083
0.022654
0.0226011
0.0225482
0.0224988
0.022451
0.0224068
0.0223639
0.0223224
0.0222802
0.022236
0.0221878
0.0221335
0.0220716
0.0219939
0.0218926
0.021765
0.0216199
0.0214617
0.0212829
0.0210724
0.0208197
0.0205155
0.0201516
0.0197183
0.0192035
0.018596
0.017881
0.0170516
0.0160912
0.0150102
0.013781
0.0124928
0.0111764
0.00988689
0.00865266
0.00753541
0.00665907
0.00641724
0.00734553
0.00881838
0.0244067
0.0243299
0.0242511
0.0241695
0.0240828
0.0239944
0.0239046
0.0238163
0.0237281
0.0236422
0.0235567
0.0234759
0.0234002
0.0233343
0.0232752
0.0232235
0.0231727
0.0231231
0.0230698
0.0230161
0.0229598
0.0229053
0.0228514
0.0228016
0.0227538
0.0227102
0.0226684
0.0226286
0.0225884
0.0225468
0.0225013
0.0224504
0.0223913
0.022318
0.0222207
0.0220973
0.0219561
0.0218013
0.0216252
0.021417
0.0211662
0.0208634
0.0204999
0.0200658
0.0195486
0.0189368
0.018215
0.017376
0.0164033
0.0153069
0.0140598
0.012752
0.0114127
0.0100956
0.00883489
0.00769668
0.00680786
0.00656625
0.00750587
0.00900449
0.0248362
0.0247568
0.0246744
0.0245882
0.024496
0.0244012
0.0243042
0.0242082
0.0241124
0.0240188
0.0239263
0.023839
0.0237575
0.0236864
0.0236226
0.0235662
0.023511
0.0234571
0.0233998
0.0233422
0.0232827
0.0232253
0.0231692
0.0231177
0.0230688
0.0230248
0.0229831
0.022944
0.0229052
0.0228653
0.0228221
0.0227735
0.0227179
0.0226473
0.022554
0.0224346
0.0222973
0.0221458
0.0219727
0.0217669
0.0215183
0.021217
0.0208541
0.0204192
0.0198995
0.0192831
0.018554
0.017705
0.0167192
0.015607
0.0143406
0.0130131
0.0116496
0.0103031
0.00901325
0.00785073
0.00694553
0.00669963
0.00764562
0.00916787
0.0252758
0.0251943
0.0251104
0.025023
0.0249289
0.0248315
0.0247307
0.0246298
0.024528
0.0244278
0.0243284
0.0242341
0.024146
0.0240685
0.0239987
0.0239363
0.0238754
0.0238157
0.0237528
0.0236899
0.0236256
0.023564
0.0235042
0.0234496
0.0233985
0.0233527
0.02331
0.0232706
0.023232
0.023193
0.0231512
0.0231047
0.0230507
0.0229836
0.0228934
0.0227778
0.0226441
0.0224959
0.0223255
0.0221221
0.0218754
0.0215753
0.0212125
0.0207764
0.0202535
0.0196316
0.0188943
0.018034
0.0170342
0.0159046
0.0146185
0.0132687
0.0118792
0.0105018
0.00918145
0.00799331
0.00707093
0.00682084
0.00777235
0.00931489
0.0257382
0.0256554
0.0255707
0.0254826
0.0253876
0.0252887
0.0251857
0.0250816
0.0249756
0.0248701
0.0247644
0.0246634
0.0245683
0.0244838
0.0244069
0.0243373
0.0242691
0.024202
0.024132
0.0240622
0.0239915
0.023924
0.0238591
0.0237999
0.023745
0.0236962
0.0236512
0.0236101
0.0235707
0.0235314
0.02349
0.0234442
0.0233924
0.0233269
0.0232399
0.0231276
0.0229973
0.0228522
0.0226845
0.0224835
0.0222388
0.02194
0.0215773
0.0211397
0.0206134
0.0199857
0.0192398
0.0183677
0.0173529
0.0162055
0.0148982
0.0135259
0.0121089
0.0106986
0.00934493
0.00812764
0.00718407
0.00692535
0.00787782
0.00943893
0.0262389
0.0261551
0.0260692
0.0259798
0.025883
0.0257817
0.0256757
0.0255676
0.0254567
0.0253454
0.0252331
0.0251248
0.0250222
0.02493
0.0248455
0.0247681
0.0246919
0.0246167
0.0245385
0.0244606
0.0243822
0.0243073
0.0242357
0.0241706
0.0241104
0.024057
0.0240082
0.0239642
0.0239226
0.0238819
0.0238398
0.0237944
0.0237428
0.0236792
0.0235944
0.023485
0.0233576
0.0232151
0.0230498
0.0228509
0.0226078
0.0223098
0.0219467
0.0215071
0.0209766
0.0203422
0.0195865
0.0187013
0.01767
0.016503
0.0151737
0.0137762
0.0123296
0.0108849
0.00949671
0.00824902
0.00728348
0.0070162
0.00796906
0.00954638
0.0267749
0.0266902
0.0266035
0.0265133
0.0264156
0.0263128
0.0262043
0.0260928
0.0259772
0.0258599
0.0257405
0.0256241
0.0255129
0.0254117
0.025318
0.0252313
0.0251456
0.0250608
0.0249731
0.0248858
0.0247983
0.0247148
0.0246353
0.0245627
0.0244958
0.0244365
0.0243826
0.0243343
0.0242892
0.0242459
0.0242021
0.0241554
0.0241041
0.0240407
0.0239575
0.0238503
0.0237252
0.023585
0.0234218
0.0232248
0.0229833
0.022686
0.0223224
0.0218805
0.0213456
0.0207041
0.0199382
0.0190391
0.0179907
0.0168029
0.0154504
0.0140269
0.0125492
0.0110678
0.0096422
0.00836056
0.00736923
0.00708928
0.00803853
0.00963066
0.0273345
0.0272486
0.0271609
0.0270699
0.0269712
0.0268672
0.0267568
0.0266426
0.026523
0.0264006
0.0262748
0.026151
0.0260315
0.0259216
0.0258187
0.0257224
0.025627
0.0255321
0.0254342
0.0253367
0.0252394
0.0251462
0.0250576
0.0249765
0.0249018
0.0248353
0.0247751
0.0247212
0.0246714
0.0246243
0.0245774
0.0245288
0.0244757
0.0244124
0.0243297
0.0242238
0.0241005
0.023962
0.0238003
0.0236048
0.0233643
0.0230672
0.0227024
0.0222576
0.0217175
0.0210679
0.0202904
0.0193762
0.0183085
0.0170983
0.015721
0.014269
0.0127578
0.0112383
0.00977401
0.00845736
0.00743963
0.00714722
0.00809266