/*--------------------------------*- C++ -*----------------------------------*\
  =========                 |
  \\      /  F ield         | OpenFOAM: The Open Source CFD Toolbox
   \\    /   O peration     | Website:  https://openfoam.org
    \\  /    A nd           | Version:  6.0
     \\/     M anipulation  |
\*---------------------------------------------------------------------------*/
FoamFile
{
    version     2.0;
    format      ascii;
    class       surfaceScalarField;
    location    "19";
    object      phi;
}
// * * * * * * * * * * * * * * * * * * * * * * * * * * * * * * * * * * * * * //

dimensions      [0 3 -1 0 0 0 0];

internalField   nonuniform List<scalar> 
123526
(
2.77478e-05
2.33224e-05
-2.73529e-05
2.81736e-05
2.5213e-05
2.86347e-05
2.72566e-05
2.91323e-05
2.94654e-05
2.96709e-05
3.18528e-05
3.02526e-05
3.44329e-05
3.08823e-05
3.72213e-05
3.15627e-05
4.02345e-05
3.23005e-05
4.34899e-05
3.30982e-05
4.7008e-05
3.39619e-05
5.08101e-05
3.48951e-05
5.4918e-05
3.59056e-05
5.93562e-05
3.69997e-05
6.41484e-05
3.81874e-05
6.9324e-05
3.94708e-05
7.49171e-05
4.086e-05
8.09571e-05
4.23675e-05
8.74728e-05
4.40024e-05
9.45096e-05
4.57693e-05
0.000102109
4.76881e-05
0.000110302
4.97679e-05
0.000119142
5.20179e-05
0.000128683
5.44621e-05
0.000138957
5.7108e-05
0.000150041
5.99737e-05
0.000161976
6.30808e-05
0.000174827
6.64407e-05
0.00018866
7.00831e-05
0.000203529
7.40185e-05
0.000219514
7.82793e-05
0.000236666
8.28819e-05
0.000255065
8.78582e-05
0.000274766
9.32325e-05
0.000295835
9.9027e-05
0.000318332
0.000105275
0.000342291
0.000111999
0.000367759
0.000119231
0.00039474
0.000127004
0.000423222
0.000135343
0.000453168
0.000144274
0.000484486
0.000153825
0.000517026
0.000164014
0.000550572
0.000174855
0.000584808
0.000186355
0.000619295
0.00019851
0.000653447
0.000211303
0.000686487
0.000224696
0.000717406
0.000238628
0.000744908
0.000253003
0.000767349
0.000267693
0.000782672
0.000282506
0.00078832
0.000297214
0.000781125
0.000311496
0.000757275
0.000324952
0.000712212
0.000337078
0.000640561
0.000347244
0.000536211
0.000354401
0.000392164
0.000358811
0.000199521
-4.21655e-05
0.000368034
2.73506e-05
2.29352e-05
-2.69627e-05
2.77687e-05
2.47946e-05
2.82216e-05
2.68044e-05
2.87103e-05
2.89766e-05
2.92393e-05
3.13242e-05
2.98105e-05
3.38614e-05
3.04289e-05
3.66033e-05
3.1097e-05
3.95661e-05
3.18213e-05
4.2766e-05
3.26045e-05
4.62244e-05
3.34523e-05
4.99626e-05
3.43684e-05
5.40015e-05
3.53601e-05
5.83648e-05
3.64341e-05
6.30738e-05
3.75997e-05
6.81587e-05
3.88594e-05
7.36567e-05
4.02229e-05
7.95938e-05
4.17027e-05
8.59923e-05
4.33074e-05
9.29049e-05
4.50422e-05
0.000100373
4.69257e-05
0.000108418
4.89677e-05
0.000117099
5.11764e-05
0.000126474
5.35762e-05
0.000136556
5.61734e-05
0.000147444
5.89869e-05
0.000159162
6.20368e-05
0.000171777
6.53354e-05
0.000185361
6.89108e-05
0.000199953
7.27742e-05
0.00021565
7.69564e-05
0.000232482
8.14741e-05
0.000250547
8.6358e-05
0.000269882
9.16324e-05
0.000290561
9.73201e-05
0.000312644
0.000103454
0.000336156
0.000110055
0.000361157
0.000117154
0.000387639
0.000124784
0.000415591
0.000132968
0.000444982
0.000141735
0.000475717
0.00015111
0.000507648
0.000161113
0.000540566
0.000171757
0.000574159
0.000183049
0.000607997
0.000194985
0.000641502
0.000207549
0.000673913
0.000220701
0.000704238
0.000234384
0.000731207
0.000248501
0.000753207
0.000262926
0.00076822
0.00027747
0.000773735
0.00029191
0.00076666
0.000305926
0.00074324
0.000319133
0.000699005
0.000331025
0.000628671
0.000341004
0.000526235
0.000348229
0.000384932
0.000352305
0.000195403
-4.33843e-05
0.00035344
2.69211e-05
2.25552e-05
-2.65405e-05
2.73317e-05
2.43839e-05
2.77762e-05
2.63603e-05
2.82561e-05
2.84965e-05
2.87755e-05
3.08052e-05
2.93366e-05
3.33002e-05
2.9944e-05
3.59963e-05
3.06003e-05
3.89095e-05
3.13118e-05
4.20548e-05
3.20812e-05
4.54545e-05
3.29142e-05
4.913e-05
3.38141e-05
5.3101e-05
3.47884e-05
5.73909e-05
3.58434e-05
6.20182e-05
3.69884e-05
6.7014e-05
3.82257e-05
7.24187e-05
3.9565e-05
7.82549e-05
4.10183e-05
8.45384e-05
4.25944e-05
9.13291e-05
4.4298e-05
9.86689e-05
4.61476e-05
0.000106569
4.81528e-05
0.000115093
5.03215e-05
0.000124306
5.2678e-05
0.000134199
5.5228e-05
0.000144893
5.79904e-05
0.000156399
6.09847e-05
0.000168782
6.42234e-05
0.000182122
6.77335e-05
0.000196442
7.15267e-05
0.000211856
7.56325e-05
0.000228375
8.0068e-05
0.00024611
8.48625e-05
0.000265088
9.00402e-05
0.000285385
9.56241e-05
0.000307061
0.000101647
0.000330133
0.000108129
0.000354675
0.000115102
0.000380666
0.000122595
0.000408098
0.000130632
0.000436945
0.000139242
0.000467107
0.000148449
0.00049844
0.000158273
0.000530742
0.000168727
0.000563704
0.000179818
0.000596904
0.000191542
0.000629776
0.000203881
0.000661572
0.000216798
0.000691319
0.000230234
0.000717771
0.000244095
0.000739344
0.000258258
0.000754062
0.000272533
0.000759457
0.000286706
0.000752496
0.000300458
0.000729484
0.000313415
0.000686047
0.000325077
0.000617
0.000334872
0.000516426
0.000342058
0.000377739
0.000346119
0.00019134
-4.53299e-05
0.000348107
2.64949e-05
2.21821e-05
-2.6121e-05
2.68981e-05
2.39804e-05
2.73347e-05
2.59242e-05
2.7806e-05
2.8025e-05
2.83162e-05
3.02955e-05
2.88672e-05
3.27491e-05
2.94636e-05
3.54003e-05
3.01082e-05
3.82648e-05
3.08069e-05
4.13565e-05
3.15626e-05
4.46986e-05
3.23805e-05
4.83124e-05
3.32644e-05
5.22167e-05
3.42211e-05
5.64344e-05
3.52573e-05
6.09816e-05
3.63816e-05
6.58899e-05
3.75969e-05
7.12029e-05
3.89119e-05
7.69399e-05
4.03393e-05
8.31105e-05
4.18869e-05
8.97815e-05
4.35598e-05
9.69954e-05
4.53761e-05
0.000104753
4.73452e-05
0.000113124
4.94747e-05
0.000122176
5.17886e-05
0.000131885
5.42925e-05
0.00014239
5.70051e-05
0.000153686
5.99452e-05
0.000165842
6.31254e-05
0.000178942
6.6572e-05
0.000192996
7.02968e-05
0.00020813
7.43287e-05
0.000224342
7.86843e-05
0.000241754
8.33925e-05
0.00026038
8.84765e-05
0.000280302
9.39592e-05
0.000301579
9.98738e-05
0.000324218
0.00010624
0.000348308
0.000113089
0.000373818
0.000120449
0.000400739
0.000128345
0.00042905
0.000136802
0.000458652
0.000145846
0.000489397
0.000155496
0.000521094
0.000165764
0.000553438
0.000176657
0.000586013
0.000188172
0.000618264
0.00020029
0.000649456
0.000212974
0.000678635
0.000226167
0.000704578
0.000239775
0.000725731
0.000253678
0.000740154
0.000267687
0.000745427
0.000281596
0.000738577
0.00029509
0.000715982
0.000307803
0.000673332
0.000319246
0.000605555
0.000328859
0.000506808
0.000335986
0.000370599
0.000340037
0.000187255
-4.64874e-05
0.000341135
2.60859e-05
2.18153e-05
-2.57186e-05
2.64822e-05
2.35839e-05
2.69111e-05
2.54956e-05
2.73742e-05
2.75618e-05
2.78752e-05
2.97948e-05
2.84164e-05
3.22077e-05
2.90021e-05
3.48149e-05
2.9635e-05
3.76316e-05
3.03211e-05
4.06707e-05
3.10631e-05
4.39562e-05
3.18663e-05
4.75095e-05
3.27341e-05
5.13484e-05
3.36736e-05
5.54954e-05
3.46909e-05
5.99638e-05
3.57949e-05
6.47862e-05
3.6988e-05
7.00093e-05
3.82793e-05
7.56489e-05
3.96807e-05
8.17086e-05
4.12003e-05
8.82621e-05
4.28429e-05
9.53522e-05
4.46263e-05
0.000102969
4.65597e-05
0.00011119
4.86508e-05
0.000120085
5.09228e-05
0.000129612
5.33815e-05
0.000139931
5.60451e-05
0.000151022
5.89322e-05
0.000162955
6.20551e-05
0.000175818
6.54397e-05
0.000189611
6.90976e-05
0.000204472
7.3057e-05
0.000220382
7.73347e-05
0.000237475
8.19583e-05
0.000255756
8.69509e-05
0.00027531
9.23347e-05
0.000296196
9.81427e-05
0.000318411
0.000104395
0.000342056
0.000111122
0.000367092
0.000118352
0.00039351
0.000126107
0.000421296
0.000134414
0.000450346
0.000143298
0.000480515
0.000152776
0.000511618
0.000162861
0.000543355
0.00017356
0.000575316
0.000184868
0.000606958
0.000196768
0.000637558
0.000209223
0.000666183
0.000222176
0.00069163
0.000235535
0.000712376
0.000249182
0.000726518
0.000262931
0.000731679
0.000276582
0.000724939
0.000289824
0.000702739
0.0003023
0.000660857
0.000313533
0.000594314
0.000322971
0.000497357
0.000330004
0.000363564
0.000334011
0.000183253
-4.71791e-05
0.000334754
2.56909e-05
2.14548e-05
-2.533e-05
2.60803e-05
2.31944e-05
2.65017e-05
2.50747e-05
2.69566e-05
2.71068e-05
2.74488e-05
2.9303e-05
2.79804e-05
3.1676e-05
2.85556e-05
3.42399e-05
2.91773e-05
3.70097e-05
2.98511e-05
3.99973e-05
3.05798e-05
4.32273e-05
3.13684e-05
4.67212e-05
3.22208e-05
5.04958e-05
3.31431e-05
5.45733e-05
3.41422e-05
5.89644e-05
3.52261e-05
6.37025e-05
3.63978e-05
6.88372e-05
3.76656e-05
7.43813e-05
3.90417e-05
8.0332e-05
4.05337e-05
8.67701e-05
4.21466e-05
9.37388e-05
4.38978e-05
0.000101218
4.57962e-05
0.000109291
4.78496e-05
0.000118032
5.00806e-05
0.00012738
5.2495e-05
0.000137517
5.51107e-05
0.000148406
5.79458e-05
0.00016012
6.10125e-05
0.000172751
6.43363e-05
0.000186287
6.79284e-05
0.000200879
7.18169e-05
0.000216492
7.60177e-05
0.000233274
8.05587e-05
0.000251216
8.54616e-05
0.000270408
9.07484e-05
0.000290909
9.64517e-05
0.000312708
0.000102592
0.000335916
0.000109198
0.000360486
0.000116299
0.00038641
0.000123916
0.00041368
0.000132075
0.000442189
0.0001408
0.000471793
0.000150108
0.000502312
0.000160013
0.000533453
0.00017052
0.000564813
0.000181625
0.000595857
0.000193311
0.000625878
0.00020554
0.000653958
0.000218257
0.000678917
0.000231371
0.000699263
0.000244767
0.000713124
0.000258262
0.000718171
0.000271659
0.000711537
0.000284656
0.000689738
0.000296901
0.000648611
0.000307931
0.000583282
0.0003172
0.000488084
0.000324115
0.000356638
0.000328051
0.00017929
-4.78755e-05
0.000328707
2.53062e-05
2.11008e-05
-2.49517e-05
2.56886e-05
2.28119e-05
2.61024e-05
2.46612e-05
2.65491e-05
2.666e-05
2.70325e-05
2.88199e-05
2.75546e-05
3.11538e-05
2.81195e-05
3.36752e-05
2.87301e-05
3.6399e-05
2.93918e-05
3.93359e-05
3.01075e-05
4.25114e-05
3.08819e-05
4.5947e-05
3.17189e-05
4.96585e-05
3.26247e-05
5.36677e-05
3.36058e-05
5.7983e-05
3.46702e-05
6.26383e-05
3.58208e-05
6.76862e-05
3.70658e-05
7.31364e-05
3.84171e-05
7.89802e-05
3.98823e-05
8.5305e-05
4.14661e-05
9.21544e-05
4.31858e-05
9.94986e-05
4.50501e-05
0.000107426
4.70665e-05
0.000116015
4.92574e-05
0.000125189
5.16284e-05
0.000135146
5.41971e-05
0.000145837
5.69813e-05
0.000157335
5.99929e-05
0.000169739
6.3257e-05
0.000183022
6.67847e-05
0.000197351
7.06033e-05
0.000212672
7.47289e-05
0.000229147
7.91883e-05
0.000246757
8.40033e-05
0.000265594
8.9195e-05
0.000285718
9.47955e-05
0.000307107
0.000100825
0.000329887
0.000107312
0.000353999
0.000114286
0.000379438
0.000121766
0.000406201
0.000129779
0.000434178
0.000138348
0.000463226
0.000147489
0.000493172
0.000157216
0.000523728
0.000167534
0.000554497
0.000178439
0.000584955
0.000189912
0.000614407
0.00020192
0.000641953
0.000214405
0.000666437
0.000227278
0.000686393
0.000240427
0.000699984
0.000253673
0.000704925
0.000266822
0.000698398
0.000279581
0.000676982
0.000291601
0.000636593
0.000302432
0.000572445
0.000311541
0.000478965
0.000318335
0.000349845
0.000322171
0.000175463
-4.84329e-05
0.000322783
2.4929e-05
2.07534e-05
-2.4581e-05
2.53044e-05
2.24364e-05
2.57107e-05
2.42554e-05
2.61492e-05
2.62213e-05
2.66239e-05
2.83457e-05
2.71365e-05
3.06411e-05
2.76913e-05
3.31208e-05
2.8291e-05
3.57993e-05
2.89407e-05
3.86864e-05
2.96437e-05
4.18084e-05
3.04041e-05
4.51868e-05
3.12262e-05
4.88363e-05
3.21156e-05
5.27785e-05
3.30792e-05
5.70192e-05
3.41244e-05
6.15932e-05
3.52544e-05
6.65559e-05
3.64769e-05
7.1914e-05
3.7804e-05
7.76527e-05
3.92428e-05
8.38662e-05
4.07983e-05
9.05984e-05
4.24871e-05
9.78098e-05
4.4318e-05
0.000105594
4.62982e-05
0.000114035
4.84498e-05
0.000123036
5.07783e-05
0.000132817
5.33009e-05
0.000143314
5.60353e-05
0.000154601
5.89929e-05
0.000166781
6.21985e-05
0.000179817
6.56628e-05
0.000193886
6.9413e-05
0.000208921
7.34644e-05
0.000225095
7.7844e-05
0.000242378
8.25725e-05
0.000260867
8.7671e-05
0.000280621
9.31706e-05
0.000301608
9.90914e-05
0.000323966
0.000105462
0.000347629
0.00011231
0.000372591
0.000119656
0.000398856
0.000127525
0.000426311
0.00013594
0.000454813
0.000144917
0.000484198
0.000154468
0.00051418
0.000164599
0.00054437
0.000175306
0.000574253
0.000186571
0.000603147
0.00019836
0.00063017
0.000210616
0.000654186
0.000223254
0.000673759
0.000236161
0.000687081
0.000249162
0.000691914
0.000262069
0.000685489
0.000274595
0.000664456
0.000286397
0.000624793
0.000297036
0.000561804
0.000305992
0.000470007
0.000312674
0.000343153
0.0003164
0.000171717
-4.89463e-05
0.000316884
2.4557e-05
2.04123e-05
-2.42156e-05
2.49255e-05
2.20677e-05
2.53242e-05
2.38569e-05
2.57547e-05
2.57906e-05
2.62206e-05
2.78801e-05
2.67239e-05
3.01376e-05
2.72686e-05
3.25763e-05
2.78574e-05
3.52104e-05
2.84956e-05
3.80485e-05
2.91859e-05
4.1118e-05
2.99328e-05
4.44401e-05
3.07402e-05
4.80288e-05
3.16138e-05
5.19052e-05
3.25601e-05
5.60727e-05
3.35867e-05
6.05669e-05
3.46965e-05
6.54459e-05
3.58972e-05
7.07134e-05
3.72006e-05
7.6349e-05
3.86137e-05
8.24532e-05
4.01414e-05
8.90702e-05
4.18e-05
9.61513e-05
4.35981e-05
0.000103796
4.5543e-05
0.00011209
4.76562e-05
0.000120923
4.9943e-05
0.00013053
5.24205e-05
0.000140836
5.51059e-05
0.000151915
5.80106e-05
0.000163876
6.11588e-05
0.000176668
6.45611e-05
0.000190483
6.8244e-05
0.000205237
7.22229e-05
0.000221116
7.65237e-05
0.000238077
8.11675e-05
0.000256224
8.61745e-05
0.000275614
9.15751e-05
0.000296208
9.73892e-05
0.000318152
0.000103645
0.000341373
0.000110369
0.000365867
0.000117583
0.000391643
0.00012531
0.000418585
0.000133573
0.000446552
0.000142388
0.000475385
0.000151767
0.000504803
0.000161715
0.000534424
0.000172227
0.000563742
0.000183287
0.000592089
0.000194859
0.000618599
0.000206891
0.000642158
0.000219297
0.000661355
0.000231967
0.000674418
0.000244729
0.000679148
0.000257401
0.000672826
0.0002697
0.00065216
0.000281289
0.000613206
0.000291742
0.000551347
0.000300549
0.000461193
0.000307128
0.000336575
0.000310753
0.000168103
-4.91776e-05
0.000311037
2.41883e-05
2.00776e-05
-2.38532e-05
2.45499e-05
2.1706e-05
2.49413e-05
2.34659e-05
2.53638e-05
2.5368e-05
2.58211e-05
2.74232e-05
2.63152e-05
2.96435e-05
2.685e-05
3.20419e-05
2.74281e-05
3.46321e-05
2.80548e-05
3.74222e-05
2.87328e-05
4.04399e-05
2.94664e-05
4.37067e-05
3.02596e-05
4.72356e-05
3.11177e-05
5.10473e-05
3.20473e-05
5.51429e-05
3.30556e-05
5.95587e-05
3.41458e-05
6.43555e-05
3.53252e-05
6.95341e-05
3.66055e-05
7.50684e-05
3.79935e-05
8.10653e-05
3.94941e-05
8.75692e-05
4.11232e-05
9.45223e-05
4.28894e-05
0.000102029
4.47996e-05
0.00011018
4.68752e-05
0.000118846
4.91213e-05
0.000128284
5.15546e-05
0.000138402
5.41921e-05
0.000149278
5.7045e-05
0.000161023
6.01368e-05
0.000173576
6.34783e-05
0.000187141
6.70952e-05
0.000201619
7.10027e-05
0.000217207
7.52265e-05
0.000233854
7.97869e-05
0.000251665
8.47041e-05
0.000270698
9.00077e-05
0.000290904
9.5717e-05
0.000312443
0.00010186
0.000335231
0.000108463
0.000359265
0.000115547
0.00038456
0.000123134
0.000410998
0.000131248
0.00043844
0.000139904
0.000466732
0.000149112
0.000495598
0.000158879
0.000524661
0.0001692
0.000553425
0.000180058
0.000581236
0.000191419
0.000607244
0.00020323
0.000630352
0.000215408
0.000649181
0.000227846
0.000661985
0.000240375
0.000666611
0.000252816
0.000660386
0.000264893
0.000640083
0.000276276
0.000601825
0.000286547
0.000541075
0.000295208
0.00045253
0.000301688
0.000330086
0.000305232
0.00016454
-4.92794e-05
0.000305311
2.3822e-05
1.97491e-05
-2.34932e-05
2.41769e-05
2.1351e-05
2.45609e-05
2.30822e-05
2.49757e-05
2.49531e-05
2.54245e-05
2.69746e-05
2.59095e-05
2.91584e-05
2.64346e-05
3.15171e-05
2.70023e-05
3.40644e-05
2.76176e-05
3.68071e-05
2.82835e-05
3.97739e-05
2.90042e-05
4.29863e-05
2.97833e-05
4.64564e-05
3.06263e-05
5.02045e-05
3.15397e-05
5.42294e-05
3.25304e-05
5.85682e-05
3.36014e-05
6.32843e-05
3.47602e-05
6.83755e-05
3.6018e-05
7.38103e-05
3.73815e-05
7.97017e-05
3.88557e-05
8.60946e-05
4.0456e-05
9.2922e-05
4.21911e-05
0.000100293
4.40675e-05
0.000108304
4.61063e-05
0.000116807
4.83126e-05
0.000126078
5.07026e-05
0.000136011
5.32932e-05
0.000146687
5.60952e-05
0.000158221
5.91318e-05
0.000170539
6.24136e-05
0.000183859
6.59657e-05
0.000198066
6.98033e-05
0.000213369
7.39512e-05
0.000229706
7.84299e-05
0.000247187
8.32588e-05
0.00026587
8.84671e-05
0.000285696
9.40736e-05
0.000306837
0.000100106
0.000329199
0.000106589
0.000352782
0.000113545
0.000377605
0.000120996
0.000403549
0.000128963
0.000430474
0.000137462
0.000458234
0.000146503
0.000486557
0.000156093
0.000515073
0.000166225
0.000543294
0.000176885
0.000570578
0.000188038
0.000596092
0.000199632
0.00061876
0.000211588
0.000637227
0.000223798
0.00064978
0.0002361
0.000654304
0.000248315
0.000648177
0.000260176
0.000628225
0.000271358
0.000590646
0.000281449
0.000530979
0.000289966
0.000444007
0.000296346
0.000323708
0.000299823
0.000161076
-4.91552e-05
0.000299746
2.34585e-05
1.94269e-05
-2.31357e-05
2.38067e-05
2.10026e-05
2.41836e-05
2.27056e-05
2.45907e-05
2.45459e-05
2.50314e-05
2.65342e-05
2.55077e-05
2.86821e-05
2.60232e-05
3.10018e-05
2.65807e-05
3.35068e-05
2.7185e-05
3.62031e-05
2.78391e-05
3.91198e-05
2.85469e-05
4.22787e-05
2.93124e-05
4.5691e-05
3.01406e-05
4.93765e-05
3.10381e-05
5.33319e-05
3.20115e-05
5.75949e-05
3.3064e-05
6.22317e-05
3.42024e-05
6.7237e-05
3.54383e-05
7.25742e-05
3.6778e-05
7.8362e-05
3.82264e-05
8.46459e-05
3.97986e-05
9.13498e-05
4.15031e-05
9.85883e-05
4.33465e-05
0.00010646
4.53493e-05
0.000114804
4.75165e-05
0.000123911
4.98642e-05
0.000133663
5.24088e-05
0.000144143
5.51609e-05
0.000155469
5.81434e-05
0.000167556
6.13665e-05
0.000180636
6.48552e-05
0.000194576
6.86239e-05
0.0002096
7.26976e-05
0.000225633
7.70959e-05
0.000242789
8.1838e-05
0.000261128
8.69527e-05
0.000280581
9.24582e-05
0.000301331
9.83814e-05
0.000323276
0.000104748
0.000346416
0.000111578
0.000370776
0.000118894
0.000396234
0.000126716
0.000422653
0.000135061
0.000449892
0.000143938
0.000477683
0.000153353
0.000505661
0.000163301
0.00053335
0.000173766
0.000560118
0.000184716
0.000585147
0.000196099
0.000607383
0.000207836
0.000625493
0.000219824
0.000637797
0.000231903
0.000642219
0.000243898
0.000636182
0.000255548
0.000616576
0.000266532
0.000579663
0.000276449
0.00052106
0.000284821
0.000435631
0.000291098
0.000317421
0.000294518
0.000157636
-4.90058e-05
0.000294348
2.30989e-05
1.91104e-05
-2.27823e-05
2.34408e-05
2.06605e-05
2.3811e-05
2.23356e-05
2.42108e-05
2.41459e-05
2.46437e-05
2.61016e-05
2.51115e-05
2.82141e-05
2.5618e-05
3.04956e-05
2.61656e-05
3.29591e-05
2.67593e-05
3.56097e-05
2.74017e-05
3.84773e-05
2.8097e-05
4.15837e-05
2.88489e-05
4.49391e-05
2.96626e-05
4.85631e-05
3.05442e-05
5.24502e-05
3.15007e-05
5.66387e-05
3.25347e-05
6.11975e-05
3.36534e-05
6.61185e-05
3.48677e-05
7.13596e-05
3.61841e-05
7.70458e-05
3.76071e-05
8.32225e-05
3.91518e-05
8.98051e-05
4.08264e-05
9.69133e-05
4.26373e-05
0.00010465
4.46048e-05
0.000112836
4.67337e-05
0.000121782
4.90398e-05
0.000131357
5.15391e-05
0.000141643
5.42423e-05
0.000152765
5.71716e-05
0.000164627
6.03372e-05
0.00017747
6.37634e-05
0.000191149
6.74647e-05
0.000205898
7.14651e-05
0.000221633
7.57844e-05
0.000238471
8.04414e-05
0.000256472
8.5464e-05
0.000275559
9.08703e-05
0.000295925
9.66865e-05
0.00031746
0.000102938
0.000340165
0.000109644
0.000364071
0.000116827
0.000389052
0.000124508
0.000414973
0.000132701
0.000441699
0.000141417
0.000468967
0.000150661
0.000496418
0.000160428
0.000523583
0.000170702
0.000549844
0.000181452
0.000574398
0.000192628
0.000596209
0.000204153
0.00061397
0.000215924
0.00062603
0.000227784
0.000630352
0.000239564
0.000624406
0.000251007
0.000605136
0.000261798
0.000568875
0.000271543
0.000511311
0.000279774
0.000427396
0.000285944
0.000311252
0.000289309
0.000154284
-4.87531e-05
0.000289099
2.27466e-05
1.87996e-05
-2.24353e-05
2.30825e-05
2.03243e-05
2.34464e-05
2.19721e-05
2.38394e-05
2.37527e-05
2.42649e-05
2.56764e-05
2.47245e-05
2.77543e-05
2.52222e-05
2.99982e-05
2.57602e-05
3.2421e-05
2.63435e-05
3.50267e-05
2.69746e-05
3.78462e-05
2.76576e-05
4.0901e-05
2.83962e-05
4.42005e-05
2.91954e-05
4.77642e-05
3.00614e-05
5.15842e-05
3.10009e-05
5.56995e-05
3.20167e-05
6.01816e-05
3.31156e-05
6.50197e-05
3.43086e-05
7.01665e-05
3.56017e-05
7.57527e-05
3.69997e-05
8.18242e-05
3.85172e-05
8.82877e-05
4.01622e-05
9.52678e-05
4.19411e-05
0.000102871
4.38738e-05
0.000110903
4.59649e-05
0.000119691
4.82301e-05
0.000129091
5.06849e-05
0.000139188
5.33399e-05
0.00015011
5.62169e-05
0.00016175
5.93258e-05
0.00017436
6.26907e-05
0.000187784
6.63254e-05
0.000202263
7.02541e-05
0.000217704
7.44956e-05
0.00023423
7.90687e-05
0.000251899
8.40008e-05
0.000270627
8.93096e-05
0.000290616
9.50207e-05
0.000311749
0.000101159
0.000334028
0.000107743
0.000357487
0.000114796
0.000382001
0.000122338
0.000407433
0.000130382
0.000433657
0.00013894
0.000460412
0.000148016
0.000487345
0.000157605
0.000513998
0.000167692
0.000539761
0.000178247
0.000563848
0.00018922
0.000585241
0.000200537
0.000602658
0.000212096
0.000614477
0.000223744
0.000618698
0.000235313
0.000612837
0.000246555
0.000593897
0.000257157
0.000558274
0.000266733
0.000501732
0.000274823
0.000419301
0.000280885
0.000305178
0.000284196
0.000150952
-4.85542e-05
0.000283979
2.24045e-05
1.84939e-05
-2.20985e-05
2.27348e-05
1.99936e-05
2.30927e-05
2.16145e-05
2.34792e-05
2.3366e-05
2.38976e-05
2.52583e-05
2.43495e-05
2.73022e-05
2.48387e-05
2.95093e-05
2.53675e-05
3.18921e-05
2.59407e-05
3.44539e-05
2.65607e-05
3.72261e-05
2.72317e-05
4.02303e-05
2.7957e-05
4.34751e-05
2.8742e-05
4.69795e-05
2.95924e-05
5.07336e-05
3.0515e-05
5.47772e-05
3.15125e-05
5.91839e-05
3.25918e-05
6.39406e-05
3.37634e-05
6.89947e-05
3.50335e-05
7.44827e-05
3.64066e-05
8.04508e-05
3.7897e-05
8.67974e-05
3.95127e-05
9.36517e-05
4.12599e-05
0.000101124
4.3158e-05
0.000109004
4.52118e-05
0.000117637
4.74365e-05
0.000126866
4.98474e-05
0.000136777
5.24548e-05
0.000147502
5.52802e-05
0.000158924
5.83333e-05
0.000171307
6.16376e-05
0.000184478
6.5207e-05
0.000198693
6.90648e-05
0.000213847
7.32299e-05
0.000230066
7.77205e-05
0.000247409
8.25636e-05
0.000265784
8.77764e-05
0.000285404
9.33842e-05
0.000306142
9.94111e-05
0.000328001
0.000105876
0.000351022
0.000112801
0.000375077
0.000120206
0.000400029
0.000128104
0.000425759
0.000136506
0.00045201
0.000145417
0.000478435
0.000154833
0.000504583
0.000164737
0.000529857
0.000175101
0.000553484
0.000185877
0.000574467
0.00019699
0.000591545
0.000208342
0.000603127
0.000219782
0.00060725
0.000231146
0.000601475
0.00024219
0.000582855
0.000252607
0.000547858
0.000262018
0.000492317
0.000269968
0.000411345
0.000275922
0.000299225
0.000279178
0.000147708
-4.83071e-05
0.000278968
2.20762e-05
1.81931e-05
-2.17749e-05
2.24013e-05
1.96683e-05
2.27534e-05
2.12627e-05
2.31335e-05
2.29857e-05
2.3545e-05
2.48472e-05
2.39893e-05
2.68577e-05
2.44703e-05
2.90287e-05
2.499e-05
3.13723e-05
2.55532e-05
3.3891e-05
2.61624e-05
3.66169e-05
2.68215e-05
3.95715e-05
2.7534e-05
4.27627e-05
2.83048e-05
4.6209e-05
2.91399e-05
4.98986e-05
3.00456e-05
5.38716e-05
3.1025e-05
5.82044e-05
3.20846e-05
6.28811e-05
3.32349e-05
6.78442e-05
3.44818e-05
7.32358e-05
3.583e-05
7.91024e-05
3.72933e-05
8.53341e-05
3.88798e-05
9.20649e-05
4.05954e-05
9.9408e-05
4.24593e-05
0.00010714
4.4476e-05
0.00011562
4.66605e-05
0.000124681
4.90279e-05
0.00013441
5.15882e-05
0.000144942
5.43626e-05
0.000156149
5.73606e-05
0.000168308
6.06053e-05
0.000181233
6.41102e-05
0.000195187
6.78983e-05
0.000210059
7.19881e-05
0.000225977
7.63975e-05
0.000243
8.1153e-05
0.000261029
8.62715e-05
0.000280285
9.17777e-05
0.000300636
9.76954e-05
0.000322084
0.000104043
0.000344675
0.000110842
0.000368278
0.000118113
0.00039276
0.000125867
0.000418006
0.000134117
0.000443763
0.000142867
0.000469688
0.000152112
0.000495341
0.000161838
0.000520135
0.000172015
0.000543311
0.000182597
0.00056389
0.000193511
0.000580636
0.000204661
0.000591984
0.000215898
0.000596008
0.000227062
0.000590312
0.000237912
0.000572007
0.000248147
0.000537623
0.000257396
0.000483064
0.000265209
0.000403525
0.000271055
0.000293365
0.000274255
0.000144485
-4.81282e-05
0.000274057
2.17635e-05
1.78969e-05
-2.14674e-05
2.20834e-05
1.9348e-05
2.24298e-05
2.09165e-05
2.28037e-05
2.26116e-05
2.32084e-05
2.44428e-05
2.36452e-05
2.64206e-05
2.41181e-05
2.85561e-05
2.46289e-05
3.08613e-05
2.51825e-05
3.33378e-05
2.5781e-05
3.60183e-05
2.64286e-05
3.89243e-05
2.71282e-05
4.2063e-05
2.78852e-05
4.54525e-05
2.87049e-05
4.90788e-05
2.95942e-05
5.29827e-05
3.05554e-05
5.72431e-05
3.15954e-05
6.18413e-05
3.27243e-05
6.67151e-05
3.39483e-05
7.2012e-05
3.52715e-05
7.77789e-05
3.67079e-05
8.38977e-05
3.82652e-05
9.05072e-05
3.99494e-05
9.77239e-05
4.17791e-05
0.00010531
4.37589e-05
0.00011364
4.59036e-05
0.000122536
4.82278e-05
0.000132086
5.07416e-05
0.000142428
5.34655e-05
0.000153425
5.64091e-05
0.000165365
5.95948e-05
0.000178047
6.30362e-05
0.000191745
6.67555e-05
0.00020634
7.07711e-05
0.000221963
7.51006e-05
0.000238672
7.97699e-05
0.000256359
8.47957e-05
0.00027526
9.02022e-05
0.00029523
9.60125e-05
0.000316274
0.000102245
0.000338443
0.000108921
0.000361603
0.000116059
0.000385623
0.000123674
0.000410392
0.000131774
0.000435663
0.000140366
0.000461097
0.000149444
0.000486263
0.000158995
0.000510585
0.000168989
0.000533317
0.000179382
0.000553499
0.000190102
0.000569916
0.000201054
0.000581034
0.000212093
0.000584959
0.00022306
0.000579345
0.00023372
0.000561349
0.000243778
0.000527567
0.000252866
0.000473973
0.000260544
0.000395843
0.000266283
0.000287626
0.000269426
0.000141355
-4.79046e-05
0.000269235
2.1468e-05
1.76055e-05
-2.11762e-05
2.17828e-05
1.9033e-05
2.21236e-05
2.0576e-05
2.24912e-05
2.22437e-05
2.2889e-05
2.40453e-05
2.33184e-05
2.5991e-05
2.3783e-05
2.80918e-05
2.42849e-05
3.03593e-05
2.48288e-05
3.27943e-05
2.54168e-05
3.54303e-05
2.60528e-05
3.82887e-05
2.674e-05
4.13759e-05
2.74832e-05
4.47096e-05
2.8288e-05
4.82739e-05
2.91608e-05
5.21103e-05
3.01042e-05
5.62996e-05
3.11248e-05
6.0821e-05
3.22326e-05
6.56071e-05
3.34335e-05
7.08111e-05
3.4732e-05
7.64802e-05
3.61416e-05
8.24882e-05
3.76698e-05
8.89786e-05
3.93227e-05
9.60711e-05
4.11185e-05
0.000103513
4.30617e-05
0.000111697
4.51668e-05
0.000120431
4.74483e-05
0.000129804
4.99159e-05
0.00013996
5.25899e-05
0.000150751
5.54796e-05
0.000162475
5.86073e-05
0.000174918
6.19858e-05
0.000188366
6.56375e-05
0.000202689
6.95801e-05
0.000218021
7.38309e-05
0.000234421
7.84154e-05
0.000251775
8.335e-05
0.000270325
8.86584e-05
0.000289921
9.43635e-05
0.000310569
0.000100483
0.000332323
0.000107038
0.000355049
0.000114047
0.000378615
0.000121524
0.000402917
0.000129478
0.00042771
0.000137915
0.000452664
0.00014683
0.000477351
0.000156209
0.000501209
0.000166025
0.000523505
0.000176232
0.000543297
0.000186762
0.000559392
0.00019752
0.000570282
0.000208365
0.000574111
0.00021914
0.000568572
0.000229614
0.000550876
0.000239496
0.000517683
0.000248427
0.000465036
0.000255971
0.00038829
0.000261606
0.000281975
0.00026469
0.000138248
-4.77358e-05
0.000264501
2.11882e-05
1.73188e-05
-2.09014e-05
2.14977e-05
1.87232e-05
2.18326e-05
2.02413e-05
2.21939e-05
2.18822e-05
2.25848e-05
2.36547e-05
2.30068e-05
2.55689e-05
2.34633e-05
2.76355e-05
2.39564e-05
2.9866e-05
2.44907e-05
3.22604e-05
2.50682e-05
3.48526e-05
2.56929e-05
3.76643e-05
2.63677e-05
4.0701e-05
2.70976e-05
4.39801e-05
2.78877e-05
4.74838e-05
2.87444e-05
5.12538e-05
2.96703e-05
5.53736e-05
3.06718e-05
5.98197e-05
3.17588e-05
6.452e-05
3.29372e-05
6.96329e-05
3.42112e-05
7.52059e-05
3.55942e-05
8.11053e-05
3.70937e-05
8.74788e-05
3.87155e-05
9.44494e-05
4.04777e-05
0.000101751
4.23847e-05
0.00010979
4.44506e-05
0.000118365
4.66898e-05
0.000127565
4.91118e-05
0.000137538
5.17364e-05
0.000148126
5.4573e-05
0.000159638
5.76432e-05
0.000171847
6.096e-05
0.000185049
6.45449e-05
0.000199104
6.84156e-05
0.000214151
7.2589e-05
0.000230248
7.70902e-05
0.000247274
8.19351e-05
0.00026548
8.71473e-05
0.000284709
9.2749e-05
0.000304968
9.87581e-05
0.000326315
0.000105194
0.000348614
0.000112077
0.000371733
0.000119418
0.000395576
0.000127229
0.0004199
0.000135514
0.000444379
0.000144269
0.000468596
0.000153481
0.000491997
0.000163122
0.000513864
0.000173148
0.000533271
0.000183491
0.000549048
0.00019406
0.000559714
0.000204714
0.000563447
0.0002153
0.000557985
0.000225591
0.000540586
0.000235301
0.000507974
0.000244076
0.000456257
0.000251488
0.000380874
0.000257021
0.000276444
0.000260044
0.000135237
-4.7513e-05
0.00025985
2.09228e-05
1.70371e-05
-2.06406e-05
2.12269e-05
1.84189e-05
2.15559e-05
1.99127e-05
2.19107e-05
2.15271e-05
2.22946e-05
2.32711e-05
2.27089e-05
2.51544e-05
2.31572e-05
2.71875e-05
2.36414e-05
2.93816e-05
2.41661e-05
3.1736e-05
2.47333e-05
3.42853e-05
2.53467e-05
3.70512e-05
2.60095e-05
4.00383e-05
2.67261e-05
4.32638e-05
2.7502e-05
4.67079e-05
2.8343e-05
5.0413e-05
2.92519e-05
5.44647e-05
3.02348e-05
5.88369e-05
3.13015e-05
6.34531e-05
3.24577e-05
6.84767e-05
3.37077e-05
7.39557e-05
3.50646e-05
7.97484e-05
3.65358e-05
8.60072e-05
3.81271e-05
9.28582e-05
3.98561e-05
0.000100021
4.17273e-05
0.000107919
4.37546e-05
0.000116337
4.5952e-05
0.000125368
4.8329e-05
0.000135161
5.09051e-05
0.00014555
5.36892e-05
0.000156853
5.6703e-05
0.000168833
5.99588e-05
0.000181793
6.3478e-05
0.000195586
6.72779e-05
0.000210352
7.13753e-05
0.000226152
7.57946e-05
0.000242855
8.05515e-05
0.000260723
8.56692e-05
0.000279592
9.11694e-05
0.000299468
9.70698e-05
0.000320415
0.00010339
0.000342294
0.000110148
0.000364976
0.000117358
0.000388368
0.000125028
0.000412231
0.000133164
0.000436245
0.000141763
0.000460001
0.00015081
0.000482954
0.00016028
0.000504399
0.000170128
0.000523428
0.000180289
0.000538893
0.000190671
0.000549338
0.000201138
0.000552977
0.000211538
0.000547585
0.000221649
0.000530476
0.00023119
0.000498431
0.000239812
0.000447628
0.000247094
0.000373581
0.000252524
0.000270995
0.000255487
0.000132251
-4.73289e-05
0.000255282
2.06679e-05
1.67604e-05
-2.03915e-05
2.09662e-05
1.81201e-05
2.12892e-05
1.959e-05
2.16374e-05
2.11785e-05
2.20144e-05
2.28945e-05
2.24211e-05
2.47474e-05
2.28614e-05
2.67475e-05
2.33369e-05
2.8906e-05
2.38521e-05
3.12211e-05
2.44091e-05
3.37283e-05
2.50116e-05
3.64491e-05
2.56623e-05
3.93875e-05
2.63662e-05
4.25604e-05
2.71279e-05
4.59461e-05
2.79539e-05
4.95875e-05
2.8846e-05
5.35724e-05
2.9811e-05
5.78723e-05
3.08579e-05
6.2406e-05
3.19927e-05
6.73422e-05
3.32192e-05
7.27288e-05