/*--------------------------------*- C++ -*----------------------------------*\
  =========                 |
  \\      /  F ield         | OpenFOAM: The Open Source CFD Toolbox
   \\    /   O peration     | Website:  https://openfoam.org
    \\  /    A nd           | Version:  6.0
     \\/     M anipulation  |
\*---------------------------------------------------------------------------*/
FoamFile
{
    version     2.0;
    format      ascii;
    class       volScalarField;
    location    "2";
    object      p;
}
// * * * * * * * * * * * * * * * * * * * * * * * * * * * * * * * * * * * * * //

dimensions      [0 2 -2 0 0 0 0];

internalField   nonuniform List<scalar> 
62000
(
0.122603
0.121339
0.12005
0.118736
0.117378
0.115972
0.114506
0.112979
0.111385
0.109722
0.107984
0.10617
0.104275
0.102296
0.100227
0.098066
0.0958064
0.0934434
0.0909715
0.0883851
0.0856786
0.0828465
0.0798835
0.0767848
0.0735462
0.0701639
0.0666358
0.0629605
0.0591384
0.0551724
0.0510679
0.0468349
0.0424863
0.0380396
0.0335184
0.0289511
0.0243716
0.0198188
0.0153368
0.0109739
0.00678187
0.00281377
-0.000879007
-0.00424905
-0.00725632
-0.00987038
-0.0120723
-0.0138572
-0.0152288
-0.0162087
-0.0168156
-0.017089
-0.0170439
-0.0167293
-0.0161697
-0.0153864
-0.0143996
-0.0136341
-0.0121647
-0.0138298
0.124575
0.12321
0.121846
0.120491
0.119119
0.117718
0.116273
0.114779
0.113226
0.111613
0.10993
0.108177
0.106344
0.104431
0.102429
0.100335
0.0981426
0.0958467
0.0934399
0.0909175
0.0882721
0.0854984
0.0825895
0.0795401
0.0763445
0.0729979
0.0694963
0.0658366
0.0620174
0.0580384
0.0539031
0.0496173
0.0451907
0.040637
0.0359739
0.0312258
0.026421
0.0215935
0.0167824
0.0120315
0.00738934
0.00290661
-0.0013659
-0.00537954
-0.00909089
-0.012464
-0.0154722
-0.0181011
-0.0203424
-0.0222057
-0.023692
-0.024826
-0.0255928
-0.0260207
-0.0260986
-0.0258013
-0.0250939
-0.0243291
-0.02227
-0.0230203
0.125629
0.124171
0.122731
0.121322
0.119913
0.11849
0.117036
0.115544
0.114002
0.112409
0.110754
0.109035
0.107244
0.105376
0.103425
0.101386
0.0992505
0.0970133
0.094666
0.0922029
0.0896156
0.0868984
0.0840431
0.081044
0.077894
0.0745875
0.0711193
0.0674847
0.0636806
0.0597053
0.0555594
0.0512471
0.046775
0.0421522
0.0373945
0.0325207
0.0275554
0.022528
0.0174733
0.0124311
0.00744638
0.00256718
-0.00215714
-0.00667779
-0.0109495
-0.0149324
-0.018594
-0.0219125
-0.0248694
-0.0274641
-0.0296827
-0.0315371
-0.0329883
-0.0340466
-0.0346749
-0.034817
-0.0344054
-0.0337073
-0.0318977
-0.0323489
0.126488
0.124968
0.123474
0.122018
0.12057
0.119115
0.117636
0.116126
0.114573
0.112975
0.111321
0.109609
0.10783
0.10598
0.104051
0.102039
0.0999329
0.0977293
0.0954181
0.0929935
0.0904457
0.0877686
0.0849527
0.0819915
0.0788768
0.0756019
0.0721602
0.0685459
0.0647543
0.0607818
0.0566278
0.0522935
0.0477832
0.0431045
0.0382674
0.0332886
0.0281883
0.0229919
0.0177303
0.0124393
0.00716036
0.00193886
-0.00317777
-0.00814134
-0.0129056
-0.017428
-0.0216717
-0.0256086
-0.0292117
-0.0324715
-0.0353618
-0.0378829
-0.0399752
-0.041635
-0.0428073
-0.0434154
-0.0433713
-0.0428835
-0.0414437
-0.041721
0.127261
0.125704
0.124174
0.122683
0.121203
0.119719
0.118213
0.11668
0.115107
0.113492
0.111826
0.110105
0.10832
0.106469
0.104543
0.102537
0.100441
0.0982511
0.0959561
0.0935499
0.0910224
0.0883666
0.0855724
0.0826327
0.079538
0.076281
0.0728537
0.0692492
0.0654613
0.061485
0.0573176
0.0529589
0.0484112
0.0436774
0.0387672
0.0336922
0.0284693
0.0231205
0.0176726
0.0121578
0.00661407
0.0010837
-0.00438809
-0.00975428
-0.0149684
-0.0199861
-0.0247671
-0.0292783
-0.0334856
-0.0373717
-0.0408992
-0.0440592
-0.0467742
-0.0490281
-0.0507519
-0.0518534
-0.0522288
-0.0520404
-0.0510087
-0.0512062
0.128111
0.126524
0.124965
0.123444
0.121934
0.12042
0.118886
0.117325
0.115727
0.114088
0.112399
0.110657
0.108854
0.106986
0.105046
0.103028
0.100923
0.0987263
0.0964273
0.0940198
0.0914931
0.0888401
0.0860497
0.0831145
0.080024
0.0767699
0.0733433
0.0697361
0.0659408
0.0619507
0.057762
0.0533723
0.0487811
0.0439913
0.0390067
0.0338375
0.0284969
0.0230031
0.0173795
0.0116545
0.00586285
4.35886e-05
-0.00576052
-0.011504
-0.0171407
-0.0226254
-0.027915
-0.0329725
-0.0377576
-0.0422462
-0.0463914
-0.0501754
-0.0535045
-0.056352
-0.0586377
-0.060255
-0.0610838
-0.0612467
-0.0606268
-0.0608233
0.128983
0.127373
0.12579
0.124245
0.12271
0.12117
0.11961
0.118024
0.1164
0.114735
0.113021
0.111254
0.109428
0.107538
0.105576
0.103539
0.101416
0.0992031
0.0968893
0.0944684
0.0919295
0.0892654
0.0864648
0.0835198
0.0804192
0.0771543
0.0737152
0.0700928
0.0662783
0.0622641
0.0580442
0.0536149
0.0489746
0.0441213
0.0390593
0.033794
0.0283356
0.0226993
0.0169048
0.010977
0.00494695
-0.00114926
-0.00727166
-0.0133766
-0.0194189
-0.0253528
-0.0311333
-0.03672
-0.0420673
-0.0471453
-0.051898
-0.0563
-0.0602427
-0.0636891
-0.0665478
-0.0686988
-0.0700047
-0.0705526
-0.0703384
-0.0705961
0.129932
0.1283
0.126692
0.125123
0.123564
0.121999
0.120414
0.118802
0.117151
0.11546
0.113719
0.111926
0.110072
0.108156
0.106167
0.104103
0.101954
0.0997151
0.0973764
0.0949314
0.0923693
0.0896829
0.0868603
0.0838936
0.0807712
0.0774836
0.0740202
0.0703711
0.0665267
0.0624776
0.0582172
0.0537396
0.0490407
0.044119
0.0389731
0.0336076
0.028029
0.0222493
0.0162847
0.0101567
0.00389293
-0.00247373
-0.00890615
-0.0153628
-0.0217997
-0.0281712
-0.0344308
-0.0405355
-0.0464351
-0.0520944
-0.0574493
-0.0624668
-0.0670244
-0.0710747
-0.0745163
-0.0772145
-0.0790129
-0.0799655
-0.0801467
-0.0805209
0.130889
0.129236
0.127608
0.126018
0.124437
0.122851
0.121243
0.119607
0.117934
0.116218
0.114452
0.112633
0.110753
0.108809
0.106793
0.104702
0.102525
0.100257
0.0978902
0.0954162
0.0928248
0.0901088
0.0872562
0.084259
0.0811052
0.0777851
0.0742875
0.0706019
0.0667175
0.0626243
0.0583138
0.0537791
0.049015
0.0440158
0.0387805
0.0333094
0.0276066
0.0216807
0.0155449
0.00921712
0.00272158
-0.00391221
-0.01065
-0.0174527
-0.0242777
-0.0310798
-0.0378117
-0.0444282
-0.050875
-0.0571121
-0.0630676
-0.068702
-0.0738785
-0.0785402
-0.0825743
-0.0858311
-0.0881348
-0.0895072
-0.0900773
-0.0906126
0.131941
0.130265
0.128614
0.127
0.125396
0.123785
0.122152
0.120491
0.118791
0.117048
0.115254
0.113407
0.111497
0.109523
0.107476
0.105352
0.103142
0.100841
0.098439
0.0959301
0.0933032
0.0905511
0.0876618
0.0846269
0.0814342
0.0780737
0.0745338
0.070803
0.0668703
0.0627242
0.0583556
0.0537557
0.0489173
0.043835
0.0385031
0.0329208
0.0270888
0.0210131
0.0147033
0.00817413
0.00144646
-0.00545346
-0.0124945
-0.0196399
-0.0268489
-0.0340771
-0.0412766
-0.0484007
-0.0553913
-0.0622042
-0.0687603
-0.0750131
-0.0808128
-0.086092
-0.0907268
-0.0945516
-0.0973693
-0.0991712
-0.100124
-0.100862
0.133021
0.131322
0.129648
0.128012
0.126384
0.12475
0.123093
0.121406
0.119679
0.11791
0.116088
0.114211
0.112272
0.110267
0.108188
0.106031
0.103787
0.101452
0.0990143
0.0964681
0.0938027
0.0910107
0.0880799
0.085002
0.0817646
0.0783572
0.074768
0.0709851
0.0669965
0.0627902
0.0583556
0.0536831
0.0487645
0.0435905
0.0381561
0.0324566
0.0264903
0.0202604
0.0137734
0.00704058
7.95249e-05
-0.00708685
-0.0144305
-0.0219173
-0.0295085
-0.0371606
-0.0448258
-0.0524559
-0.0599895
-0.0673787
-0.0745372
-0.0814123
-0.0878405
-0.0937446
-0.0989886
-0.10339
-0.106731
-0.108973
-0.110307
-0.111282
0.134177
0.132453
0.130754
0.129092
0.127439
0.125778
0.124094
0.12238
0.120625
0.118826
0.116975
0.115067
0.113096
0.111058
0.108944
0.106752
0.104471
0.102097
0.0996197
0.0970324
0.0943245
0.0914884
0.0885118
0.0853863
0.0820991
0.0786395
0.0749953
0.0711541
0.0671034
0.0628301
0.0583231
0.0535713
0.0485645
0.043294
0.0377502
0.0319278
0.025822
0.0194332
0.0127649
0.00582527
-0.00137152
-0.00880575
-0.0164525
-0.0242805
-0.0322528
-0.0403276
-0.0484571
-0.0565921
-0.0646685
-0.0726345
-0.0803975
-0.0878981
-0.0949601
-0.101495
-0.107356
-0.112342
-0.116214
-0.118901
-0.120617
-0.121863
0.135341
0.133592
0.131868
0.130182
0.128504
0.126819
0.12511
0.12337
0.121589
0.119762
0.117882
0.115944
0.113942
0.111871
0.109724
0.107496
0.105178
0.102765
0.100248
0.0976178
0.0948653
0.0919825
0.0889569
0.0857801
0.082439
0.0789227
0.0752185
0.0713138
0.0671953
0.0628494
0.0582638
0.0534265
0.0483265
0.0429518
0.0372935
0.0313425
0.025092
0.0185397
0.0116862
0.00453634
-0.00289878
-0.0106028
-0.018554
-0.0267239
-0.0350779
-0.0435757
-0.0521697
-0.0608104
-0.0694309
-0.0779763
-0.0863469
-0.094478
-0.10218
-0.109353
-0.115839
-0.121418
-0.125829
-0.128972
-0.131072
-0.132618
0.136602
0.134825
0.133073
0.131359
0.129652
0.127938
0.1262
0.12443
0.122617
0.120759
0.118846
0.116875
0.114837
0.11273
0.110545
0.108278
0.105919
0.103464
0.100902
0.0982261
0.0954256
0.0924928
0.0894149
0.0861833
0.0827846
0.0792076
0.0754392
0.0714663
0.0672753
0.0628515
0.0581822
0.0532538
0.0480541
0.0425712
0.0367921
0.0307071
0.0243069
0.0175863
0.0105432
0.00317939
-0.00449727
-0.0124736
-0.0207311
-0.0292441
-0.0379805
-0.0469016
-0.0559606
-0.0651077
-0.0742736
-0.0834002
-0.0923817
-0.101147
-0.109494
-0.117313
-0.12443
-0.130609
-0.135566
-0.139172
-0.141662
-0.143536
0.137891
0.136085
0.134305
0.132563
0.130828
0.129085
0.127317
0.125517
0.123673
0.121783
0.119836
0.11783
0.115757
0.113613
0.11139
0.109082
0.106682
0.104184
0.101576
0.0988531
0.0960029
0.0930179
0.0898851
0.0865957
0.0831361
0.0794949
0.0756585
0.0716134
0.0673453
0.0628392
0.058081
0.0530568
0.0477531
0.0421553
0.0362508
0.0300269
0.023472
0.0165786
0.00934183
0.00176037
-0.00616101
-0.0144124
-0.0229785
-0.0318366
-0.040957
-0.0503031
-0.0598288
-0.0694843
-0.0791984
-0.0889099
-0.0985063
-0.107912
-0.11691
-0.125381
-0.133138
-0.139926
-0.145438
-0.149516
-0.152405
-0.154633
0.13926
0.137422
0.13561
0.133836
0.13207
0.130294
0.128494
0.12666
0.124782
0.122857
0.120874
0.118831
0.116719
0.114536
0.112271
0.109921
0.107476
0.104931
0.102275
0.0995011
0.0965982
0.0935581
0.0903675
0.0870174
0.0834939
0.0797851
0.0758773
0.0717563
0.0674073
0.0628145
0.0579634
0.0528385
0.0474253
0.0417091
0.0356739
0.0293062
0.0225919
0.0155212
0.0080864
0.000283324
-0.00788634
-0.0164159
-0.0252931
-0.0344984
-0.0440047
-0.0537772
-0.0637711
-0.0739368
-0.0842013
-0.0945003
-0.104716
-0.114765
-0.124421
-0.133551
-0.141956
-0.14936
-0.155435
-0.159993
-0.163287
-0.165897
0.140635
0.138765
0.136921
0.135117
0.13332
0.131515
0.129684
0.127818
0.125908
0.123949
0.121931
0.119851
0.117702
0.115478
0.113172
0.110779
0.108289
0.105697
0.102992
0.100167
0.0972097
0.0941124
0.0908617
0.0874484
0.0838581
0.0800788
0.0760963
0.0718959
0.0674624
0.0627793
0.0578309
0.0526013
0.0470751
0.0412347
0.0350648
0.0285487
0.0216706
0.0144183
0.0067815
-0.00124691
-0.00966828
-0.0184791
-0.0276703
-0.0372255
-0.0471201
-0.0573215
-0.0677863
-0.0784653
-0.0892839
-0.100175
-0.111014
-0.121714
-0.132034
-0.14183
-0.15089
-0.158919
-0.165566
-0.170616
-0.174327
-0.177344
0.142108
0.140202
0.138323
0.136484
0.134653
0.132812
0.130944
0.129043
0.127095
0.125098
0.12304
0.12092
0.118729
0.116462
0.114111
0.111671
0.109133
0.10649
0.103733
0.100852
0.0978381
0.0946811
0.0913678
0.0878886
0.084229
0.0803764
0.0763162
0.0720334
0.067512
0.0627349
0.0576859
0.0523477
0.0467035
0.0407361
0.0344267
0.027758
0.0207118
0.0132736
0.00543063
-0.00282711
-0.0115039
-0.0205993
-0.0301076
-0.0400153
-0.0503006
-0.0609332
-0.0718711
-0.083066
-0.0944416
-0.105928
-0.117395
-0.12875
-0.13974
-0.150211
-0.159934
-0.168595
-0.175823
-0.181373
-0.185512
-0.188962
0.143604
0.141663
0.139748
0.137875
0.136009
0.134133
0.13223
0.130292
0.128307
0.12627
0.124173
0.122012
0.119777
0.117467
0.11507
0.112583
0.109996
0.107302
0.104491
0.101555
0.0984822
0.0952637
0.0918857
0.0883384
0.084607
0.0806785
0.0765379
0.0721697
0.0675574
0.0626832
0.0575297
0.0520794
0.0463143
0.0402148
0.0337624
0.0269369
0.0197186
0.0120906
0.00403764
-0.00445307
-0.0133888
-0.0227721
-0.0326007
-0.042864
-0.0535432
-0.0646101
-0.0760245
-0.0877392
-0.0996762
-0.111763
-0.123863
-0.13588
-0.147547
-0.158699
-0.169094
-0.178397
-0.186215
-0.192278
-0.196858
-0.200768
0.145179
0.143198
0.141244
0.139332
0.137428
0.135514
0.133571
0.131593
0.129567
0.12749
0.12535
0.123145
0.120866
0.118508
0.116064
0.113527
0.110887
0.108139
0.105272
0.102277
0.0991432
0.0958609
0.0924159
0.0887982
0.0849926
0.0809857
0.0767622
0.0723059
0.0675998
0.0626252
0.0573646
0.0517986
0.0459084
0.0396743
0.0330746
0.0260886
0.0186942
0.0108724
0.0026055
-0.0061221
-0.0153204
-0.0249953
-0.0351474
-0.0457695
-0.0568453
-0.0683494
-0.0802432
-0.0924807
-0.104983
-0.117674
-0.130412
-0.143096
-0.155448
-0.167288
-0.178362
-0.188317
-0.196734
-0.203318
-0.208353
-0.212748
0.146752
0.144732
0.14274
0.140792
0.138852
0.136902
0.134923
0.132907
0.130843
0.128725
0.126545
0.124297
0.121973
0.119569
0.117077
0.11449
0.111798
0.108996
0.106072
0.103017
0.0998207
0.0964727
0.0929587
0.0892686
0.0853866
0.0812989
0.07699
0.072443
0.0676404
0.0625629
0.0571916
0.0515071
0.0454892
0.0391159
0.0323658
0.0252156
0.0176414
0.00962215
0.00113759
-0.00783047
-0.017295
-0.0272648
-0.037744
-0.0487281
-0.0602041
-0.072149
-0.0845261
-0.0972909
-0.110363
-0.123664
-0.137046
-0.150405
-0.163447
-0.175984
-0.187747
-0.198361
-0.207389
-0.214508
-0.220013
-0.224922
0.148425
0.146362
0.144328
0.142338
0.140356
0.138365
0.136344
0.134285
0.132177
0.130015
0.127789
0.125494
0.123122
0.120668
0.118124
0.115484
0.112736
0.109877
0.106893
0.103776
0.100515
0.0970993
0.0935143
0.0897496
0.0857892
0.0816187
0.0772221
0.072582
0.0676805
0.0624971
0.057013
0.0512066
0.0450573
0.0385427
0.0316384
0.0243205
0.0165629
0.00834241
-0.000363558
-0.00957587
-0.0193103
-0.0295787
-0.0403883
-0.0517379
-0.0636172
-0.0760062
-0.0888699
-0.102166
-0.115812
-0.129728
-0.143759
-0.157797
-0.171537
-0.18478
-0.197239
-0.208523
-0.21817
-0.225833
-0.231824
-0.237275
0.150117
0.148011
0.145935
0.143905
0.141882
0.13985
0.137787
0.135687
0.133535
0.131328
0.129056
0.126714
0.124293
0.121789
0.119193
0.116498
0.113695
0.110777
0.107733
0.104553
0.101226
0.0977409
0.0940832
0.0902421
0.0862013
0.0819459
0.0774595
0.0727242
0.0677211
0.0624298
0.0568295
0.0508989
0.0446158
0.0379558
0.0308945
0.0234055
0.0154611
0.0070359
-0.00189494
-0.011355
-0.0213628
-0.0319333
-0.0430769
-0.0547956
-0.0670821
-0.079919
-0.0932739
-0.107105
-0.12133
-0.135868
-0.150555
-0.16528
-0.179725
-0.19368
-0.206847
-0.21881
-0.229088
-0.237309
-0.243804
-0.249826
0.151886
0.149734
0.147612
0.145537
0.14347
0.141392
0.139285
0.137138
0.13494
0.132686
0.130365
0.127973
0.125501
0.122944
0.120293
0.117542
0.11468
0.111702
0.108595
0.10535
0.101954
0.0983982
0.094666
0.0907468
0.0866237
0.0822814
0.0777032
0.0728705
0.067764
0.0623619
0.0566436
0.0505857
0.0441655
0.037358
0.0301363
0.022473
0.0143383
0.00570495
-0.00345439
-0.0131658
-0.0234507
-0.0343269
-0.045808
-0.0578993
-0.0705962
-0.0838847
-0.0977343
-0.112106
-0.126914
-0.142077
-0.157427
-0.172845
-0.188004
-0.20268
-0.216562
-0.229213
-0.240131
-0.248919
-0.255937
-0.26256
0.153647
0.151449
0.149283
0.147165
0.145057
0.142938
0.140789
0.1386
0.136358
0.134058
0.13169
0.12925
0.126727
0.124118
0.121414
0.118607
0.115687
0.112648
0.109477
0.106165
0.102701
0.0990719
0.0952636
0.0912645
0.0870573
0.0826264
0.0779544
0.0730223
0.0678099
0.0622952
0.0564559
0.0502687
0.0437091
0.0367505
0.0293656
0.0215249
0.0131968
0.00435192
-0.00503922
-0.0150054
-0.0255708
-0.0367562
-0.0485785
-0.0610459
-0.0741574
-0.0879015
-0.102251
-0.117166
-0.132565
-0.14836
-0.16438
-0.180499
-0.196377
-0.211783
-0.22639
-0.239741
-0.251312
-0.260679
-0.268242
-0.275498
0.155507
0.15326
0.151045
0.14888
0.146724
0.144558
0.14236
0.140123
0.137831
0.135482
0.133063
0.13057
0.127993
0.125329
0.122567
0.119701
0.116719
0.113617
0.110381
0.107001
0.103465
0.099762
0.0958761
0.0917956
0.0875028
0.0829815
0.0782141
0.0731806
0.0678606
0.0622308
0.0562688
0.0499492
0.0432473
0.0361356
0.0285844
0.0205633
0.0120385
0.00297886
-0.00664756
-0.016872
-0.0277214
-0.0392195
-0.0513866
-0.0642334
-0.0777633
-0.0919665
-0.10682
-0.122283
-0.138277
-0.154709
-0.171407
-0.188232
-0.204838
-0.220984
-0.236325
-0.250385
-0.262619
-0.272572
-0.280702
-0.288622
0.15738
0.155083
0.152821
0.150609
0.148408
0.146196
0.143952
0.141666
0.139326
0.136927
0.134457
0.131911
0.12928
0.12656
0.123741
0.120816
0.117773
0.114607
0.111304
0.107855
0.104248
0.100469
0.0965047
0.0923413
0.0879613
0.0833482
0.0784835
0.0733469
0.0679172
0.0621705
0.0560829
0.0496292
0.0427827
0.0355144
0.0277944
0.0195898
0.0108654
0.00158788
-0.00827686
-0.0187629
-0.0298996
-0.0417139
-0.0542292
-0.0674596
-0.0814116
-0.0960785
-0.11144
-0.127457
-0.144052
-0.161127
-0.178512
-0.19605
-0.213392
-0.230286
-0.246373
-0.261154
-0.274063
-0.284612
-0.293335
-0.301955
0.159329
0.156979
0.154665
0.152402
0.15015
0.147888
0.145593
0.143257
0.140865
0.138414
0.13589
0.13329
0.130603
0.127826
0.124947
0.12196
0.118854
0.115622
0.112252
0.108732
0.105051
0.101196
0.0971506
0.092903
0.0884343
0.0837276
0.078764
0.0735224
0.0679812
0.0621153
0.0559006
0.0493097
0.0423159
0.0348892
0.0269972
0.0186064
0.00967935
0.000180861
-0.0099255
-0.0206764
-0.0321038
-0.044238
-0.0571047
-0.0707224
-0.0851
-0.100235
-0.116109
-0.132684
-0.149884
-0.167609
-0.185687
-0.203946
-0.222032
-0.239684
-0.256526
-0.272037
-0.285633
-0.296781
-0.306125
-0.315476
0.16126
0.158859
0.156495
0.154186
0.151888
0.14958
0.14724
0.144857
0.142417
0.139916
0.137342
0.134689
0.131948
0.129113
0.126176
0.123128
0.119959
0.116662
0.113223
0.109632
0.105876
0.101942
0.0978155
0.093482
0.0889231
0.0841212
0.079057
0.0737087
0.0680539
0.062067
0.0557224
0.0489927
0.0418493
0.0342608
0.0261945
0.0176148
0.00848219
-0.00124007
-0.0115911
-0.02261
-0.0343315
-0.0467886
-0.0600108
-0.0740192
-0.0888269
-0.104433
-0.120825
-0.137964
-0.155777
-0.174157
-0.192938
-0.211924
-0.230762
-0.249182
-0.266791
-0.283045
-0.29734
-0.309092
-0.319091
-0.329212
0.163301
0.160844
0.158425
0.156063
0.153712
0.151352
0.148959
0.146522
0.144029
0.141474
0.138844
0.136134
0.133334
0.13044
0.127441
0.124329
0.121094
0.117728
0.114219
0.110555
0.106722
0.10271
0.0984998
0.0940793
0.0894288
0.0845301
0.0793638
0.0739071
0.068137
0.0620268
0.0555508
0.0486793
0.0413838
0.0336316
0.0253882
0.0166167
0.00727587
-0.0026733
-0.0132721
-0.0245623
-0.0365812
-0.0493647
-0.0629457
-0.0773486
-0.09259
-0.108673
-0.125586
-0.143293
-0.161723
-0.180765
-0.200256
-0.219976
-0.239576
-0.258773
-0.27716
-0.294168
-0.309173
-0.321524
-0.332216
-0.343134
0.165355
0.162843
0.160371
0.157958
0.155557
0.153146
0.150702
0.148214
0.145667
0.143058
0.140372
0.137605
0.134747
0.131792
0.128732
0.125556
0.122255
0.118821
0.115241
0.111502
0.107593
0.1035
0.0992055
0.0946965
0.089953
0.0849562
0.0796861
0.0741193
0.0682319
0.0619968
0.0553864
0.0483717
0.0409217
0.0330028
0.0245799
0.015614
0.00606224
-0.00411663
-0.0149661
-0.0265306
-0.0388501
-0.0519636
-0.0659068
-0.0807081
-0.0963872
-0.112951
-0.130391
-0.148671
-0.167725
-0.187436
-0.207645
-0.228106
-0.248477
-0.268463
-0.287639
-0.305414
-0.321146
-0.334099
-0.345516
-0.35727
0.167494
0.164924
0.162394
0.159925
0.157469
0.155003
0.152503
0.149959
0.147357
0.14469
0.141946
0.139121
0.136201
0.133185
0.13006
0.126819
0.123449
0.119945
0.116291
0.112477
0.108489
0.104314
0.0999343
0.0953355
0.0904975
0.0854012
0.0800257
0.074347
0.0683407
0.0619782
0.0552322
0.0480712
0.0404643
0.0323771
0.0237718
0.0146089
0.00484326
-0.00556828
-0.0166717
-0.0285138
-0.0411372
-0.0545839
-0.068893
-0.0840963
-0.100217
-0.117265
-0.135237
-0.154094
-0.173779
-0.194163
-0.215097
-0.236308
-0.257459
-0.278244
-0.298221
-0.316775
-0.333245
-0.346826
-0.35897
-0.371589
0.169613
0.166986
0.164403
0.161882
0.159376
0.156861
0.154311
0.151716
0.149062
0.146342
0.143543
0.14066
0.137682
0.134604
0.131417
0.12811
0.124673
0.121098
0.117372
0.113481
0.109413
0.105155
0.100688
0.0959983
0.0910646
0.0858671
0.0803847
0.0745925
0.0684652
0.0619738
0.0550893
0.0477806
0.0400147
0.0317558
0.022966
0.0136034
0.00362099
-0.00702616
-0.0183864
-0.0305091
-0.0434396
-0.0572228
-0.0719014
-0.0875103
-0.104077
-0.121614
-0.140122
-0.159563
-0.179884
-0.20095
-0.222617
-0.244585
-0.266526
-0.288122
-0.308912
-0.32826
-0.345487
-0.35973
-0.372596
-0.386118
0.171855
0.169167
0.166523
0.163944
0.16138
0.158807
0.1562
0.153547
0.150834
0.148055
0.145196
0.142251
0.13921
0.136068
0.132813
0.129439
0.125931
0.122283
0.118482
0.114514
0.110366
0.106024
0.101469
0.0966867
0.091656
0.0863561
0.0807652
0.0748577
0.0686078
0.0619851
0.0549609
0.0475015
0.0395742
0.031142
0.0221646
0.0125994
0.00239728
-0.00848861
-0.0201088
-0.0325154
-0.0457562
-0.0598793
-0.0749307
-0.0909492
-0.107966
-0.125996
-0.145045
-0.165075
-0.186036
-0.207789
-0.230196
-0.25293
-0.275672
-0.298089
-0.319705
-0.33986
-0.357857
-0.372793
-0.386369
-0.400828
0.174105
0.171357
0.168655
0.166019
0.1634
0.160772
0.158109
0.1554
0.152629
0.149791
0.146872
0.143866
0.140763
0.137557
0.134238
0.130796
0.127219
0.1235
0.119624
0.115578
0.111349
0.106923
0.102279
0.0974038
0.0922747
0.0868708
0.0811697
0.0751452
0.0687705
0.062015
0.054848
0.0472365
0.0391455
0.0305363
0.0213691
0.0115985
0.00117392
-0.00995343
-0.0218365
-0.0345297
-0.0480839
-0.06255
-0.0779777
-0.0944094
-0.11188
-0.130409
-0.150003
-0.170628
-0.192237
-0.214684
-0.237838
-0.261347
-0.284899
-0.308149
-0.330605
-0.351583
-0.370371
-0.386027
-0.400315
-0.415754
0.176425
0.173612
0.170847
0.168151
0.165472
0.162786
0.160064
0.157296
0.154467
0.15157
0.148591
0.145524
0.142359
0.139089
0.135704
0.132195
0.128548
0.124756
0.120805
0.11668
0.112369
0.107857
0.103123
0.0981528
0.0929237
0.0874141
0.0816009
0.0754572
0.0689559
0.0620648
0.0547535
0.0469865
0.0387289
0.0299415
0.0205811
0.0106025
-4.73162e-05
-0.0114191
-0.0235679
-0.036551
-0.0504216
-0.0652342
-0.0810416
-0.0978904
-0.115818
-0.13485
-0.154995
-0.176219
-0.19848
-0.221629
-0.245535
-0.26983
-0.294203
-0.318298
-0.341604
-0.36342
-0.383014
-0.399413
-0.414427
-0.430872
0.178659
0.175788
0.172971
0.170228
0.167505
0.164774
0.162008
0.159194
0.156317
0.153369
0.150338
0.147215
0.143993
0.140662
0.137215
0.133639
0.129923
0.126058
0.122031
0.117826
0.113431
0.108831
0.104004
0.0989374
0.0936061
0.0879884
0.0820608
0.0757958
0.069165
0.0621364
0.0546775
0.0467533
0.038327
0.0293574
0.0198022
0.00961302
-0.00126467
-0.0128834
-0.0253006
-0.0385761
-0.0527661
-0.0679279
-0.0841184
-0.101388
-0.119777
-0.139316
-0.160016
-0.181847
-0.204767
-0.228625
-0.253292
-0.278381
-0.303585
-0.328538
-0.35271
-0.37538
-0.395801
-0.412971
-0.428745
-0.446222
0.181283
0.178341
0.17545
0.172631
0.169832
0.167024
0.164182
0.161293
0.158341
0.155321
0.152217
0.149023
0.145727
0.142324
0.138803
0.135152
0.131359
0.127416
0.123308
0.11902
0.114538
0.109847
0.104926
0.09976
0.094324
0.0885957
0.0825512
0.076162
0.0693997
0.0622305
0.0546223
0.0465377
0.0379398
0.0287871
0.0190337
0.00863155
-0.00247656
-0.0143449
-0.0270333
-0.0406042
-0.0551164
-0.0706308
-0.0872078
-0.104901
-0.123757
-0.143807
-0.165068
-0.18751
-0.211094
-0.235667
-0.261101
-0.286996
-0.313042
-0.338863
-0.363914
-0.387453
-0.408717
-0.426681
-0.443249
-0.461773
0.183647
0.180646
0.177704
0.17484
0.171998
0.169148
0.166263
0.163328
0.160329
0.157256
0.154098
0.150846
0.14749
0.144022
0.140434
0.136712
0.132846
0.128825
0.124637
0.120263
0.115693
0.110909
0.105891
0.100623
0.0950789
0.0892374
0.0830732
0.0765574
0.0696606
0.0623489
0.0545881
0.0463415
0.03757
0.0282299
0.018277
0.00765939
-0.00368136
-0.0158015
-0.0287633
-0.0426319
-0.0574689
-0.0733386
-0.0903051
-0.108426
-0.127752
-0.148318
-0.170144
-0.193204
-0.21746
-0.242756
-0.268967
-0.295675
-0.322575
-0.349277
-0.375221
-0.399647
-0.421776
-0.440563
-0.457961
-0.477562
0.186446
0.183373
0.180354
0.177412
0.174491
0.171562
0.168598
0.165585
0.162508
0.15936
0.156125
0.152797
0.149364
0.14582
0.142152
0.138351
0.134402
0.130297
0.126023
0.12156
0.116898
0.112018
0.106899
0.101526
0.0958717
0.0899142
0.0836277
0.0769826
0.0699491
0.0624918
0.0545769
0.0461649
0.0372167
0.0276889
0.0175331
0.00669801
-0.00487762
-0.017252
-0.0304898
-0.0446587
-0.0598233
-0.0760514
-0.0934108
-0.111963
-0.131763
-0.15285
-0.175247
-0.198929
-0.223863
-0.249888
-0.276882
-0.304416
-0.332179
-0.359774
-0.386624
-0.411952
-0.434963
-0.454598
-0.472855
-0.493555
0.188957
0.185825
0.182756
0.179769
0.176806
0.173835
0.170828
0.167768
0.164642
0.161439
0.158148
0.154758
0.151262
0.147649
0.143911
0.140034
0.136007
0.131821
0.12746
0.122908
0.118151
0.113173
0.107951
0.10247
0.0967028
0.0906265
0.0842151
0.0774382
0.0702652
0.0626603
0.0545878
0.046009
0.0368826
0.0271629
0.0168034
0.00574869
-0.00606381
-0.0186943
-0.0322099
-0.0466812
-0.0621757
-0.0787645
-0.0965197
-0.115507
-0.135785
-0.157396
-0.180369
-0.204681
-0.2303
-0.257062
-0.28485
-0.313218
-0.341856
-0.370357
-0.398129
-0.424377
-0.448293
-0.468805
-0.487955
-0.509787
0.191938
0.188731
0.185583
0.182515
0.17947
0.176416
0.173325
0.170184
0.166976
0.163693
0.160321
0.156852
0.153273
0.149579
0.145758
0.141796
0.137682
0.133407
0.128955
0.124308
0.119453
0.114374
0.109046
0.103454
0.0975719
0.0913743
0.0848353
0.077924
0.0706092
0.0628539
0.0546227
0.0458739
0.0365665
0.0266551
0.0160887
0.00481259
-0.00723874
-0.0201275
-0.0339231
-0.0486993
-0.0645263
-0.081479
-0.0996332
-0.119059
-0.139819
-0.16196
-0.185514
-0.210461
-0.23677
-0.264277
-0.292865
-0.322079
-0.351603
-0.381021
-0.409728
-0.436911
-0.461749
-0.483162
-0.503234
-0.52622
0.19463
0.191359
0.188152
0.185032
0.181938
0.178835
0.175695
0.172502
0.169241
0.165901
0.162471
0.158938
0.155294
0.151529
0.147635
0.143596
0.139401
0.135039
0.130497
0.125756
0.120803
0.115619
0.110184
0.104479
0.0984783
0.0921569
0.0854879
0.07844
0.070981
0.0630736
0.0546805
0.0457607
0.0362712
0.0261637
0.0153898
0.00389055
-0.00840116
-0.0215496
-0.0356268
-0.0507095
-0.0668709
-0.0841896
-0.102746
-0.122613
-0.143859
-0.166534
-0.190675
-0.216262
-0.243271
-0.271531
-0.30093
-0.330998
-0.361419
-0.391768
-0.421427
-0.449564
-0.475347
-0.497689
-0.518716
-0.542893
0.197596
0.194251
0.190974
0.187785
0.184624
0.181455
0.178249
0.17499
0.171661
0.168252
0.164749
0.161142
0.15742
0.153575
0.149597
0.145471
0.141186
0.136732
0.132094
0.127254
0.122198
0.116909
0.111362
0.105542
0.0994207
0.0929732
0.0861721
0.0789852
0.0713802
0.0633181
0.0547622
0.0456685
0.0359941
0.0256916
0.0147074
0.00298356
-0.00955009
-0.02296
-0.0373208
-0.0527122
-0.0692106
-0.0868981
-0.105859
-0.126172
-0.147907
-0.171122
-0.195855
-0.222089
-0.249802
-0.278823
-0.30904
-0.339974
-0.371302
-0.402594
-0.433217
-0.462324
-0.489069
-0.512364
-0.534373
-0.559765
0.200641
0.197223
0.193872
0.190613
0.187382
0.184142
0.180865
0.177533
0.17413
0.170646
0.167068
0.163384
0.159584
0.155659
0.151599
0.147388
0.143015
0.138469
0.133736
0.128796
0.123636
0.118238
0.112579
0.106641
0.100397
0.0938216
0.0868862
0.0795584
0.0718051
0.0635872
0.0548657
0.0455975
0.0357378
0.0252362
0.014042
0.0020924
-0.0106844
-0.0243568
-0.0390024
-0.0547038
-0.0715407
-0.0895989
-0.108967
-0.129728
-0.151958
-0.175716
-0.201046
-0.227934
-0.25636
-0.28615
-0.317196
-0.349004
-0.381251
-0.4135
-0.445104
-0.4752
-0.502931
-0.527207
-0.55023
-0.576874
0.203833
0.200338
0.196912
0.19358
0.190276
0.186964
0.183613
0.180206
0.176727
0.173165
0.169505
0.165738
0.161851
0.157837
0.153684
0.149379
0.144909
0.140264
0.135429
0.130384
0.125116
0.119607
0.113832
0.107774
0.101405
0.0946993
0.0876278
0.0801573
0.0722545
0.0638786
0.0549914
0.0455467
0.0354998
0.024801
0.0133942
0.00121782
-0.0118033
-0.0257397
-0.0406717
-0.0566852
-0.073863
-0.0922948
-0.112074
-0.133287
-0.156014
-0.18032
-0.206253
-0.2338
-0.262947
-0.293513
-0.325395
-0.358088
-0.391265
-0.424482
-0.45708
-0.48818
-0.516915
-0.542195
-0.566258
-0.594178
0.207015
0.203444
0.199945
0.196541
0.193166
0.189783
0.186359
0.182877
0.179322
0.175683
0.171945
0.168097
0.164128
0.160029
0.155791
0.151396
0.146833
0.142092
0.137156
0.132007
0.12663
0.121008
0.115116
0.108937
0.102441
0.0956034
0.0883943
0.08078
0.0727262
0.0641921
0.0551373
0.0455164
0.0352826
0.0243827
0.0127643
0.000360189
-0.0129059
-0.0271069
-0.0423261
-0.0586526
-0.0761724
-0.0949795
-0.115171
-0.136839
-0.160068
-0.184927
-0.211467
-0.239681
-0.269555
-0.300909
-0.333638
-0.367224
-0.401342
-0.435542
-0.469151
-0.501274
-0.531036
-0.557348
-0.582483
-0.611717
0.210325
0.206676
0.2031
0.199621
0.196172
0.192714
0.189215
0.185656
0.182023
0.178303
0.17448
0.170546
0.166487
0.162297
0.157962
0.15347
0.148805
0.143962
0.13892
0.133663
0.128174
0.122438
0.116426
0.110125
0.103501
0.0965305
0.089183
0.0814241
0.0732191
0.0645256
0.0553038
0.0455051
0.0350825
0.0239847
0.0121523
-0.000479758
-0.0139916
-0.0284583
-0.0439662
-0.0606076
-0.0784718
-0.0976566
-0.118264
-0.140391
-0.164125
-0.189541
-0.216695
-0.245581
-0.276191
-0.308339
-0.341922
-0.376411
-0.411481
-0.446676
-0.481309
-0.51447
-0.545277
-0.572643
-0.598875
-0.629448
0.213613
0.209886
0.206233
0.20268
0.199158
0.195626
0.192051
0.188415
0.184703
0.180903
0.176999
0.172982
0.168838
0.16456
0.160137
0.155552
0.150792
0.145849
0.140705
0.13534
0.129741
0.12389
0.117759
0.111333
0.104582
0.0974776
0.0899912
0.0820875
0.0737306
0.0648782
0.0554879
0.0455124
0.0349028
0.0236032
0.0115587
-0.00130158
-0.0150594
-0.0297922
-0.0455891
-0.0625459
-0.0807553
-0.100319
-0.121345
-0.143932
-0.168175
-0.194153
-0.221926
-0.251492
-0.282845
-0.3158
-0.350246
-0.385647
-0.42168
-0.457885
-0.493559
-0.527778
-0.559652
-0.5881
-0.61546
-0.64741
0.217004
0.213196
0.209464
0.205833
0.202234
0.198626
0.194973
0.19126
0.187466
0.183584
0.179594
0.175488
0.171253
0.166881
0.16236
0.157676
0.152813
0.147765
0.142513
0.137039
0.131327
0.12536
0.119109
0.112559
0.105679
0.0984417
0.0908166
0.0827678
0.0742595
0.0652476
0.0556905
0.0455375
0.0347394
0.0232424
0.0109838
-0.00210487
-0.0161093
-0.031109
-0.0471962
-0.0644702
-0.0830267
-0.102973
-0.124418
-0.147471
-0.172226
-0.198771
-0.227167
-0.257421
-0.289523
-0.323293
-0.358609
-0.394932
-0.431939
-0.469165
-0.505893
-0.541185
-0.574144
-0.603695
-0.632207
-0.665559
0.220347
0.216457
0.212646
0.208941
0.205267
0.201583