/*--------------------------------*- C++ -*----------------------------------*\
  =========                 |
  \\      /  F ield         | OpenFOAM: The Open Source CFD Toolbox
   \\    /   O peration     | Website:  https://openfoam.org
    \\  /    A nd           | Version:  6.0
     \\/     M anipulation  |
\*---------------------------------------------------------------------------*/
FoamFile
{
    version     2.0;
    format      ascii;
    class       volVectorField;
    location    "2";
    object      U;
}
// * * * * * * * * * * * * * * * * * * * * * * * * * * * * * * * * * * * * * //

dimensions      [0 1 -1 0 0 0 0];

internalField   nonuniform List<vector> 
62000
(
(0.964476 -0.266078 -1.60144e-20)
(0.964495 -0.26607 1.34552e-20)
(0.964459 -0.266094 1.36231e-20)
(0.964422 -0.266025 -5.94832e-20)
(0.964386 -0.265922 -6.70092e-20)
(0.96435 -0.2658 2.34172e-19)
(0.964314 -0.265669 -2.56201e-19)
(0.964279 -0.265534 1.49265e-19)
(0.964245 -0.265396 -6.88199e-20)
(0.964211 -0.265258 -3.47199e-19)
(0.964179 -0.265121 -3.73617e-20)
(0.964148 -0.264986 4.8691e-19)
(0.964118 -0.264852 9.56332e-20)
(0.964089 -0.26472 -3.37719e-19)
(0.964062 -0.264591 5.20316e-19)
(0.964037 -0.264465 -2.7774e-19)
(0.964013 -0.264343 2.74514e-19)
(0.963991 -0.264223 -3.25508e-19)
(0.963971 -0.264106 1.54538e-19)
(0.963953 -0.263992 -4.63686e-19)
(0.963937 -0.263881 6.007e-19)
(0.963925 -0.263771 1.61773e-19)
(0.963916 -0.263663 2.18569e-19)
(0.96391 -0.263556 -1.05852e-18)
(0.963909 -0.263449 3.78351e-19)
(0.963914 -0.263342 -2.15282e-19)
(0.963924 -0.263234 8.12969e-21)
(0.963942 -0.263124 -1.45119e-19)
(0.963969 -0.263011 4.87479e-19)
(0.964006 -0.262894 -2.30899e-19)
(0.964055 -0.26277 5.34961e-19)
(0.964118 -0.26264 -1.046e-18)
(0.964197 -0.262501 1.11557e-19)
(0.964295 -0.262351 -2.63189e-19)
(0.964414 -0.262187 -4.97225e-20)
(0.964558 -0.262009 -2.27873e-19)
(0.96473 -0.261813 1.00258e-20)
(0.964934 -0.261598 4.84479e-21)
(0.965172 -0.261359 1.47989e-19)
(0.965447 -0.261093 4.1485e-19)
(0.965764 -0.260796 -6.14298e-20)
(0.966124 -0.260463 -1.60344e-19)
(0.96653 -0.260088 6.21937e-20)
(0.966982 -0.259664 -1.868e-19)
(0.967482 -0.259181 -1.53877e-19)
(0.968031 -0.258627 6.76467e-19)
(0.968626 -0.257988 1.68124e-20)
(0.969269 -0.257241 4.45005e-19)
(0.969956 -0.256359 2.30895e-18)
(0.970688 -0.255301 7.77775e-19)
(0.971464 -0.254013 4.98899e-19)
(0.972283 -0.252413 5.15373e-18)
(0.973145 -0.250384 -1.88539e-18)
(0.974059 -0.24773 -6.71331e-18)
(0.975036 -0.244121 -1.52807e-18)
(0.976094 -0.238968 -7.12937e-18)
(0.977298 -0.231275 2.92766e-19)
(0.978896 -0.2163 -1.8873e-19)
(0.982859 -0.180934 -2.61151e-18)
(0.981964 -0.169415 -6.79024e-21)
(0.964136 -0.2694 -4.37986e-21)
(0.964165 -0.269463 4.18052e-20)
(0.964086 -0.269691 1.68454e-20)
(0.964008 -0.269758 -7.43744e-20)
(0.96393 -0.269757 3.07578e-20)
(0.963851 -0.269715 -2.1019e-19)
(0.963771 -0.269646 1.94003e-19)
(0.963691 -0.269561 1.10313e-19)
(0.963611 -0.269466 -2.0688e-19)
(0.963532 -0.269364 1.03703e-20)
(0.963453 -0.269257 1.97826e-19)
(0.963375 -0.269147 -1.48193e-21)
(0.963299 -0.269034 5.37881e-20)
(0.963225 -0.268918 -4.74394e-19)
(0.963153 -0.268801 9.42078e-19)
(0.963083 -0.268681 -8.29764e-19)
(0.963017 -0.268561 3.82515e-19)
(0.962955 -0.268439 -8.21166e-20)
(0.962897 -0.268314 -2.10171e-19)
(0.962844 -0.268188 5.6876e-19)
(0.962797 -0.268059 -8.86635e-19)
(0.962756 -0.267926 5.06399e-19)
(0.962722 -0.267789 -6.1657e-19)
(0.962697 -0.267646 3.70632e-19)
(0.962681 -0.267497 3.16441e-19)
(0.962677 -0.26734 -2.09302e-19)
(0.962684 -0.267174 1.1059e-20)
(0.962706 -0.266998 2.27115e-19)
(0.962745 -0.266808 1.76991e-19)
(0.962802 -0.266605 -2.94e-19)
(0.962881 -0.266384 5.99663e-19)
(0.962984 -0.266145 8.68427e-20)
(0.963116 -0.265884 3.05559e-19)
(0.963278 -0.2656 -2.15146e-20)
(0.963477 -0.265289 5.13489e-20)
(0.963715 -0.264949 -1.06818e-19)
(0.963999 -0.264579 -1.94861e-19)
(0.964331 -0.264174 -1.26586e-19)
(0.964717 -0.263731 -3.80388e-19)
(0.965161 -0.263246 -2.65339e-19)
(0.965667 -0.262715 1.65415e-19)
(0.966238 -0.262132 7.15879e-20)
(0.966877 -0.261489 -1.30184e-19)
(0.967585 -0.260777 -6.96346e-20)
(0.968364 -0.259983 1.29426e-18)
(0.969214 -0.259089 -6.66009e-19)
(0.970133 -0.258073 -5.85632e-19)
(0.971121 -0.256903 -1.09266e-18)
(0.972176 -0.255537 1.92797e-19)
(0.973296 -0.253916 1.60723e-19)
(0.97448 -0.25196 -2.51821e-18)
(0.975725 -0.24955 -7.19851e-18)
(0.977027 -0.246522 5.0918e-18)
(0.978392 -0.242611 1.55954e-17)
(0.979819 -0.237386 4.43157e-18)
(0.981305 -0.23012 1.12086e-18)
(0.982861 -0.219696 9.75326e-18)
(0.984611 -0.20086 4.23805e-18)
(0.985665 -0.176312 -1.05681e-17)
(0.98071 -0.178476 -1.71122e-18)
(0.964235 -0.269815 -2.16099e-20)
(0.964247 -0.269954 -2.79471e-21)
(0.964143 -0.270306 3.59748e-21)
(0.964045 -0.270469 1.53037e-20)
(0.963951 -0.270551 4.25367e-20)
(0.963857 -0.270579 -4.05977e-20)
(0.963764 -0.270573 2.13078e-19)
(0.963671 -0.270544 -1.03756e-19)
(0.963578 -0.270501 -5.5282e-20)
(0.963485 -0.270446 -3.30171e-19)
(0.963393 -0.270384 2.80161e-19)
(0.963302 -0.270316 2.01158e-20)
(0.963213 -0.270242 -6.21986e-20)
(0.963126 -0.270165 1.63808e-19)
(0.963041 -0.270083 -2.78412e-19)
(0.96296 -0.269998 4.22877e-21)
(0.962882 -0.269909 -1.2118e-19)
(0.962809 -0.269816 7.78163e-21)
(0.962742 -0.269719 2.81189e-19)
(0.96268 -0.269617 -4.16788e-19)
(0.962626 -0.269509 2.59865e-19)
(0.962579 -0.269395 9.53802e-19)
(0.962541 -0.269273 -1.55789e-19)
(0.962514 -0.269143 -1.27912e-18)
(0.962498 -0.269002 6.52045e-19)
(0.962495 -0.268851 -3.2127e-19)
(0.962506 -0.268686 5.22303e-19)
(0.962535 -0.268507 -3.24309e-19)
(0.962582 -0.26831 -5.72526e-19)
(0.962651 -0.268095 5.72311e-19)
(0.962745 -0.267858 -3.82729e-19)
(0.962866 -0.267598 4.67666e-19)
(0.963018 -0.267311 -1.18319e-18)
(0.963205 -0.266994 9.54949e-19)
(0.963432 -0.266645 -4.66372e-19)
(0.963704 -0.266262 1.9305e-19)
(0.964024 -0.26584 1.41887e-19)
(0.964399 -0.265379 4.71432e-20)
(0.964833 -0.264872 5.50074e-20)
(0.96533 -0.264317 3.56559e-19)
(0.965895 -0.263709 -6.27873e-20)
(0.966532 -0.263041 5.35057e-20)
(0.967244 -0.262306 1.20661e-19)
(0.968033 -0.261493 1.85409e-19)
(0.9689 -0.260589 -1.86751e-19)
(0.969847 -0.259575 1.67685e-18)
(0.970872 -0.258425 -1.78939e-19)
(0.971974 -0.257107 2.12303e-18)
(0.973151 -0.255573 -3.35655e-18)
(0.974401 -0.253761 -9.1416e-19)
(0.975722 -0.251586 -9.48271e-19)
(0.977108 -0.24892 -3.19629e-19)
(0.978554 -0.245592 -3.41871e-18)
(0.980058 -0.241331 2.42162e-18)
(0.981609 -0.23571 1.04446e-17)
(0.983184 -0.228042 4.35561e-18)
(0.984733 -0.217368 8.4951e-18)
(0.986449 -0.198601 1.92626e-17)
(0.987157 -0.174253 -2.75768e-18)
(0.980901 -0.176357 -1.6257e-18)
(0.964303 -0.2699 -2.18341e-20)
(0.964302 -0.270086 6.65712e-20)
(0.964188 -0.270484 -1.06023e-20)
(0.964082 -0.270692 -6.76355e-20)
(0.963979 -0.270816 1.01025e-19)
(0.963879 -0.270884 1.71258e-19)
(0.963779 -0.270916 -2.25605e-19)
(0.96368 -0.270923 2.39549e-20)
(0.96358 -0.270915 7.53738e-20)
(0.963481 -0.270894 1.54466e-19)
(0.963383 -0.270865 -2.89473e-19)
(0.963286 -0.27083 -8.61383e-20)
(0.96319 -0.270789 -9.3896e-20)
(0.963097 -0.270744 4.36066e-19)
(0.963007 -0.270693 -2.87956e-19)
(0.96292 -0.270639 6.54784e-19)
(0.962838 -0.27058 -7.90863e-19)
(0.96276 -0.270516 -1.05727e-19)
(0.962689 -0.270447 7.9724e-19)
(0.962625 -0.270372 -2.79883e-19)
(0.962568 -0.270291 -1.00652e-19)
(0.962521 -0.270201 -1.01673e-19)
(0.962483 -0.270103 -8.7714e-19)
(0.962457 -0.269994 5.2632e-19)
(0.962443 -0.269873 -2.00913e-19)
(0.962444 -0.26974 3.49536e-19)
(0.962462 -0.269591 1.5355e-19)
(0.962498 -0.269426 6.95472e-19)
(0.962555 -0.26924 -4.43131e-19)
(0.962635 -0.269034 -5.18261e-19)
(0.962741 -0.268803 7.53348e-19)
(0.962878 -0.268545 -6.02349e-19)
(0.963048 -0.268256 9.96118e-19)
(0.963256 -0.267935 -5.21731e-19)
(0.963506 -0.267578 2.59312e-19)
(0.963803 -0.267182 3.55571e-19)
(0.964153 -0.266743 -1.07805e-19)
(0.96456 -0.266259 5.77216e-20)
(0.965029 -0.265725 -7.71223e-20)
(0.965567 -0.265136 6.23999e-20)
(0.966177 -0.264488 -1.92727e-19)
(0.966863 -0.263773 2.42986e-20)
(0.96763 -0.262984 -2.28408e-20)
(0.968479 -0.262109 -2.77803e-19)
(0.969413 -0.261134 -4.33976e-19)
(0.970432 -0.260039 1.71311e-20)
(0.971537 -0.258797 -1.57747e-18)
(0.972725 -0.257372 -1.99655e-18)
(0.973995 -0.255718 -3.11907e-18)
(0.975345 -0.253766 2.44944e-18)
(0.97677 -0.251427 3.29655e-18)
(0.978264 -0.248572 -3.05564e-18)
(0.979817 -0.245022 -4.89228e-18)
(0.981424 -0.240505 -9.20089e-18)
(0.983067 -0.234594 -5.91932e-18)
(0.984707 -0.226622 -1.61272e-17)
(0.986254 -0.215695 -2.98327e-17)
(0.98798 -0.196683 6.97312e-18)
(0.988368 -0.17251 2.22121e-17)
(0.981415 -0.174793 7.99417e-18)
(0.964333 -0.269941 4.26504e-20)
(0.964328 -0.270138 -1.46514e-20)
(0.964213 -0.270546 2.31026e-20)
(0.964105 -0.270769 -3.34211e-20)
(0.964001 -0.27091 7.26777e-20)
(0.963899 -0.270996 -3.68641e-20)
(0.963798 -0.271047 1.83318e-20)
(0.963697 -0.271074 -2.81088e-19)
(0.963596 -0.271085 2.35077e-19)
(0.963496 -0.271084 -4.58161e-19)
(0.963397 -0.271076 5.04546e-19)
(0.963298 -0.271061 -6.09345e-20)
(0.963202 -0.271042 -1.29543e-19)
(0.963108 -0.271018 -5.62694e-20)
(0.963017 -0.270989 -9.97341e-21)
(0.96293 -0.270957 -5.65832e-19)
(0.962848 -0.270921 4.18698e-20)
(0.962772 -0.27088 6.11165e-19)
(0.962702 -0.270833 -1.8908e-19)
(0.96264 -0.270782 -1.89254e-19)
(0.962586 -0.270722 3.30546e-19)
(0.962542 -0.270655 -1.50455e-19)
(0.962509 -0.270579 6.34574e-19)
(0.962488 -0.270491 3.15757e-19)
(0.962482 -0.270392 2.16028e-19)
(0.96249 -0.270279 -7.62866e-19)
(0.962516 -0.270149 -1.02693e-19)
(0.962562 -0.270003 -5.2675e-19)
(0.96263 -0.269835 1.07603e-19)
(0.962722 -0.269645 -1.41655e-19)
(0.962842 -0.269428 -5.1991e-20)
(0.962994 -0.269183 4.05892e-19)
(0.96318 -0.268906 -1.02954e-18)
(0.963406 -0.268594 -4.78121e-20)
(0.963675 -0.268244 -4.18238e-19)
(0.963994 -0.267851 -1.8706e-19)
(0.964366 -0.267414 8.60259e-21)
(0.964798 -0.266927 -4.03925e-19)
(0.965295 -0.266385 4.54743e-19)
(0.965862 -0.265785 5.61314e-20)
(0.966504 -0.26512 2.39407e-19)
(0.967226 -0.264383 3.36476e-21)
(0.968031 -0.263565 6.68171e-20)
(0.968923 -0.262655 -2.43278e-20)
(0.969905 -0.261636 -4.58827e-19)
(0.970976 -0.260489 -8.17355e-19)
(0.972137 -0.259185 -4.88297e-19)
(0.973388 -0.257688 -8.28075e-19)
(0.974726 -0.255948 5.88436e-19)
(0.976147 -0.253897 -6.75555e-18)
(0.977649 -0.251442 -2.04338e-18)
(0.979221 -0.248451 1.72234e-18)
(0.980853 -0.244742 -2.18873e-18)
(0.982537 -0.240042 -9.77803e-18)
(0.984247 -0.233926 1.66772e-18)
(0.985933 -0.225736 1.20323e-17)
(0.987478 -0.21461 3.70618e-17)
(0.98922 -0.195342 -3.7034e-17)
(0.989411 -0.171073 3.13657e-17)
(0.982108 -0.173355 -1.09455e-17)
(0.964339 -0.269978 -1.63413e-20)
(0.964334 -0.270179 6.55452e-20)
(0.96422 -0.27059 -1.07239e-19)
(0.964113 -0.270817 7.96318e-20)
(0.96401 -0.270964 5.04766e-20)
(0.963908 -0.271057 -5.41947e-20)
(0.963808 -0.271116 4.22815e-21)
(0.963708 -0.271152 -3.95084e-20)
(0.963608 -0.271173 -1.30388e-19)
(0.96351 -0.271183 2.50165e-19)
(0.963412 -0.271186 -3.81394e-19)
(0.963315 -0.271184 3.32856e-19)
(0.96322 -0.271177 2.84182e-19)
(0.963129 -0.271167 -4.41028e-19)
(0.96304 -0.271152 -1.37217e-19)
(0.962957 -0.271135 5.20214e-19)
(0.962878 -0.271114 -6.17552e-19)
(0.962805 -0.271088 8.3441e-19)
(0.96274 -0.271058 -1.67743e-19)
(0.962682 -0.271023 7.52973e-20)
(0.962634 -0.27098 -1.47613e-19)
(0.962597 -0.27093 -1.73797e-19)
(0.962571 -0.270872 -2.98493e-19)
(0.962558 -0.270802 4.98409e-19)
(0.96256 -0.270721 -3.41599e-19)
(0.962579 -0.270627 -3.05384e-19)
(0.962616 -0.270516 6.19336e-19)
(0.962673 -0.270388 -5.47799e-19)
(0.962754 -0.270238 8.41163e-19)
(0.96286 -0.270066 -4.47366e-19)
(0.962994 -0.269867 2.89962e-19)
(0.963161 -0.26964 -4.69296e-19)
(0.963364 -0.269379 4.47632e-19)
(0.963607 -0.269082 -7.09824e-20)
(0.963895 -0.268746 -3.23731e-20)
(0.964232 -0.268366 -2.22476e-20)
(0.964625 -0.267939 -1.51174e-19)
(0.965079 -0.26746 3.35319e-19)
(0.965598 -0.266924 -2.29087e-19)
(0.966189 -0.266325 -7.57658e-19)
(0.966857 -0.265657 -1.40851e-19)
(0.967606 -0.264912 1.79381e-20)
(0.968442 -0.264081 1.93565e-19)
(0.969367 -0.263151 2.8158e-19)
(0.970384 -0.262106 6.91517e-20)
(0.971495 -0.260925 -1.49071e-18)
(0.9727 -0.259579 2.72068e-18)
(0.973999 -0.25803 3.22964e-18)
(0.975389 -0.256226 2.28375e-18)
(0.976867 -0.2541 4.92112e-18)
(0.978429 -0.251556 -4.22162e-18)
(0.980063 -0.248459 1.45278e-18)
(0.981758 -0.244626 1.53346e-17)
(0.983503 -0.239782 -4.44868e-18)
(0.985268 -0.233502 -5.27885e-18)
(0.986995 -0.225131 1.37827e-17)
(0.988542 -0.21382 -8.58183e-18)
(0.990304 -0.194285 -1.39918e-17)
(0.990372 -0.169772 -5.01416e-17)
(0.982916 -0.171979 -6.33619e-19)
(0.964332 -0.270021 1.9415e-20)
(0.964329 -0.270223 -8.69302e-20)
(0.964216 -0.270634 4.26682e-20)
(0.96411 -0.270863 7.76539e-20)
(0.964008 -0.271012 -1.65135e-19)
(0.963908 -0.271108 1.37907e-19)
(0.963809 -0.27117 -9.05558e-20)
(0.963711 -0.271211 7.64328e-20)
(0.963613 -0.271237 1.19063e-19)
(0.963517 -0.271253 -2.85602e-19)
(0.963421 -0.271262 4.06855e-19)
(0.963327 -0.271266 1.64565e-19)
(0.963236 -0.271267 -6.72228e-19)
(0.963147 -0.271265 -1.17481e-19)
(0.963063 -0.271259 3.4915e-19)
(0.962983 -0.271251 2.15588e-19)
(0.962909 -0.271241 -2.62675e-19)
(0.962841 -0.271226 2.2173e-19)
(0.962782 -0.271207 3.2894e-19)
(0.962731 -0.271184 -1.72311e-19)
(0.96269 -0.271155 -9.57792e-20)
(0.962661 -0.271118 3.0578e-19)
(0.962643 -0.271074 5.99933e-19)
(0.96264 -0.271019 -4.63282e-19)
(0.962653 -0.270954 -4.68836e-19)
(0.962683 -0.270875 4.90368e-19)
(0.962732 -0.27078 -3.77171e-19)
(0.962802 -0.270669 -1.30718e-19)
(0.962896 -0.270537 1.10855e-18)
(0.963017 -0.270383 -4.67165e-19)
(0.963167 -0.270201 -3.01195e-19)
(0.96335 -0.269991 4.28045e-19)
(0.963569 -0.269749 2.61027e-19)
(0.96383 -0.26947 -2.10874e-19)
(0.964136 -0.269151 -1.28399e-19)
(0.964492 -0.268787 3.35131e-19)
(0.964904 -0.268375 5.10534e-20)
(0.965377 -0.26791 9.3405e-20)
(0.965917 -0.267385 -3.09668e-19)
(0.96653 -0.266794 -1.52886e-19)
(0.96722 -0.266132 2.51404e-19)
(0.967994 -0.265388 -4.22143e-20)
(0.968855 -0.264553 -3.95668e-19)
(0.969807 -0.263614 6.03434e-19)
(0.970855 -0.262553 1.03543e-18)
(0.971999 -0.261349 8.11339e-19)
(0.973241 -0.259972 -2.69431e-18)
(0.974579 -0.258383 -3.29656e-18)
(0.976013 -0.25653 4.2494e-18)
(0.977539 -0.254343 7.69874e-18)
(0.979151 -0.251726 9.87596e-19)
(0.980839 -0.248542 -2.16656e-18)
(0.982589 -0.244604 1.22469e-19)
(0.984388 -0.239636 6.62146e-18)
(0.986202 -0.233211 -7.49447e-18)
(0.987968 -0.224674 -4.38142e-18)
(0.989521 -0.213179 -7.35688e-18)
(0.991304 -0.193363 4.17556e-17)
(0.991302 -0.168508 2.48921e-18)
(0.983801 -0.17062 -1.37621e-18)
(0.964317 -0.270076 -3.29654e-20)
(0.964314 -0.270281 -2.56523e-20)
(0.964202 -0.270693 3.57792e-20)
(0.964097 -0.270922 1.23157e-19)
(0.963996 -0.271072 -2.63428e-19)
(0.963897 -0.271169 2.99089e-19)
(0.9638 -0.271233 -1.50325e-20)
(0.963703 -0.271275 -1.97118e-20)
(0.963608 -0.271303 -1.03911e-19)
(0.963514 -0.271322 2.45969e-19)
(0.963421 -0.271335 -3.77755e-19)
(0.96333 -0.271344 1.41716e-19)
(0.963242 -0.27135 -4.18064e-21)
(0.963157 -0.271352 2.11547e-19)
(0.963077 -0.271353 9.52024e-20)
(0.963003 -0.271351 -5.20634e-19)
(0.962934 -0.271348 4.45615e-19)
(0.962872 -0.271341 1.65996e-19)
(0.962819 -0.27133 -4.79996e-19)
(0.962775 -0.271316 2.33675e-19)
(0.962742 -0.271296 1.00217e-19)
(0.962722 -0.271269 -7.48429e-20)
(0.962714 -0.271237 7.1646e-20)
(0.962721 -0.271193 -5.4107e-20)
(0.962745 -0.27114 -5.09994e-19)
(0.962786 -0.271074 3.16982e-19)
(0.962848 -0.270994 -4.58994e-19)
(0.962932 -0.270897 8.15138e-19)
(0.963041 -0.27078 -1.69636e-19)
(0.963177 -0.270643 -9.13363e-20)
(0.963343 -0.270478 -3.07499e-20)
(0.963542 -0.270286 6.28651e-19)
(0.963779 -0.270061 -2.75411e-19)
(0.964057 -0.2698 -1.44763e-19)
(0.964381 -0.2695 2.9724e-19)
(0.964756 -0.269153 2.0414e-19)
(0.965188 -0.268759 -3.09643e-19)
(0.96568 -0.268309 5.77435e-20)
(0.966241 -0.267798 3.53472e-19)
(0.966874 -0.26722 6.67499e-21)
(0.967586 -0.266567 4.17272e-20)
(0.968381 -0.265829 7.68038e-20)
(0.969266 -0.264995 -2.92e-19)
(0.970244 -0.264052 -1.07422e-18)
(0.971319 -0.262983 -3.51352e-19)
(0.972493 -0.261763 8.49217e-19)
(0.973767 -0.260362 3.29308e-18)
(0.975142 -0.258742 -1.02302e-18)
(0.976615 -0.256848 -1.33632e-18)
(0.978183 -0.254609 -2.79158e-18)
(0.979842 -0.251928 1.95116e-20)
(0.981578 -0.248666 8.79231e-18)
(0.983377 -0.244634 -8.8494e-18)
(0.985226 -0.239554 6.96747e-18)
(0.987088 -0.232994 -1.69532e-17)
(0.988891 -0.224296 -4.36934e-18)
(0.990454 -0.212615 -2.45327e-17)
(0.992255 -0.192512 -3.70588e-17)
(0.99222 -0.167259 -9.42862e-18)
(0.984747 -0.169269 -6.66328e-18)
(0.964292 -0.270146 -1.61258e-20)
(0.96429 -0.270351 1.38955e-20)
(0.964178 -0.270764 6.81034e-20)
(0.964074 -0.270993 1.05768e-19)
(0.963973 -0.271143 -3.14052e-19)
(0.963875 -0.271241 1.79382e-19)
(0.963779 -0.271306 -3.14273e-19)
(0.963685 -0.27135 4.88999e-19)
(0.963591 -0.27138 -2.27663e-19)
(0.9635 -0.2714 3.92943e-20)
(0.96341 -0.271416 4.20495e-19)
(0.963322 -0.271427 -9.51971e-19)
(0.963237 -0.271436 6.42047e-19)
(0.963157 -0.271442 8.40649e-20)
(0.963081 -0.271447 1.33687e-19)
(0.963011 -0.27145 -5.7797e-19)
(0.962948 -0.271452 2.78852e-19)
(0.962893 -0.271451 -3.34998e-19)
(0.962847 -0.271446 6.42827e-19)
(0.962811 -0.27144 -9.82462e-20)
(0.962786 -0.271427 -7.78108e-19)
(0.962774 -0.271409 3.04415e-19)
(0.962776 -0.271386 -1.92525e-20)
(0.962794 -0.271351 -1.00795e-18)
(0.962829 -0.271309 7.66914e-19)
(0.962883 -0.271254 5.38216e-19)
(0.962958 -0.271186 3.30133e-19)
(0.963056 -0.271102 -4.3207e-19)
(0.963179 -0.270999 -4.27807e-19)
(0.96333 -0.270876 1.95444e-19)
(0.963512 -0.270727 2.58261e-19)
(0.963729 -0.270551 -2.87954e-19)
(0.963983 -0.270343 -3.68375e-19)
(0.96428 -0.270099 7.95794e-19)
(0.964623 -0.269816 6.14456e-20)
(0.965017 -0.269488 -8.6986e-19)
(0.965467 -0.269111 9.75203e-20)
(0.96598 -0.268678 3.83739e-19)
(0.96656 -0.268183 1.69484e-20)
(0.967214 -0.267618 2.79992e-19)
(0.967947 -0.266977 8.67936e-21)
(0.968765 -0.266247 9.44379e-20)
(0.969673 -0.265418 1.80726e-19)
(0.970676 -0.264476 -2.80092e-19)
(0.971777 -0.2634 -8.633e-19)
(0.972979 -0.262169 -3.6826e-18)
(0.974284 -0.26075 -5.25231e-19)
(0.975693 -0.259103 3.38907e-18)
(0.977203 -0.257173 -3.34894e-18)
(0.978812 -0.254888 -1.32744e-17)
(0.980514 -0.252149 1.23391e-17)
(0.982295 -0.248815 -1.70657e-17)
(0.984142 -0.244695 1.19324e-17)
(0.98604 -0.239507 8.07446e-18)
(0.987948 -0.232817 3.50301e-17)
(0.98979 -0.22396 2.33299e-18)
(0.991363 -0.21209 1.52359e-17)
(0.993184 -0.19169 1.96062e-17)
(0.993143 -0.165988 -2.1629e-17)
(0.985737 -0.167907 -2.42441e-18)
(0.964258 -0.270233 2.25832e-20)
(0.964258 -0.270441 7.52336e-21)
(0.964146 -0.270856 -8.03687e-20)
(0.964041 -0.271087 7.60163e-20)
(0.963941 -0.271238 -3.33965e-20)
(0.963844 -0.271336 5.84183e-20)
(0.963749 -0.271401 1.90091e-20)
(0.963656 -0.271446 -2.85442e-19)
(0.963564 -0.271476 1.25143e-19)
(0.963474 -0.271498 -8.0568e-20)
(0.963387 -0.271515 5.15783e-20)
(0.963302 -0.271528 1.88693e-19)
(0.963221 -0.27154 -3.59455e-20)
(0.963145 -0.271549 1.09573e-19)
(0.963074 -0.271556 -4.59228e-19)
(0.963009 -0.271563 1.792e-19)
(0.962951 -0.271569 7.61825e-20)
(0.962902 -0.271571 -1.9683e-19)
(0.962863 -0.271572 3.85071e-19)
(0.962834 -0.271571 1.16849e-19)
(0.962818 -0.271564 -1.85152e-20)
(0.962815 -0.271552 -1.27445e-19)
(0.962827 -0.271536 4.82707e-19)
(0.962855 -0.27151 -1.27942e-18)
(0.962902 -0.271476 6.62757e-19)
(0.962968 -0.271431 2.59519e-19)
(0.963056 -0.271373 -4.1039e-19)
(0.963168 -0.271301 6.86433e-19)
(0.963306 -0.27121 -3.44914e-19)
(0.963473 -0.2711 -1.52592e-19)
(0.963671 -0.270965 -2.58424e-19)
(0.963905 -0.270804 -8.14948e-20)
(0.964177 -0.270611 2.7363e-19)
(0.964492 -0.270384 -6.92578e-19)
(0.964854 -0.270118 1.20746e-18)
(0.965267 -0.269807 -1.00752e-19)
(0.965738 -0.269446 3.96399e-19)
(0.966271 -0.26903 -8.73865e-19)
(0.966872 -0.268551 -1.45133e-19)
(0.967547 -0.268001 2.47539e-20)
(0.968302 -0.267372 5.95818e-20)
(0.969142 -0.266652 1.14738e-19)
(0.970074 -0.265829 5.69456e-19)
(0.971101 -0.264889 -3.51094e-19)
(0.972228 -0.26381 -5.41799e-19)
(0.973459 -0.26257 3.59139e-18)
(0.974795 -0.261135 -5.7642e-18)
(0.976236 -0.259464 -1.06337e-18)
(0.977783 -0.257502 -5.70747e-19)
(0.979431 -0.255174 9.36201e-18)
(0.981176 -0.25238 -3.73001e-18)
(0.983002 -0.248978 9.12074e-18)
(0.984896 -0.244772 -2.13051e-17)
(0.986841 -0.23948 -4.72396e-18)
(0.988795 -0.232661 2.51458e-17)
(0.990675 -0.223645 -1.09128e-17)
(0.99226 -0.211584 3.6451e-17)
(0.994098 -0.190884 9.28206e-18)
(0.994074 -0.164707 7.92728e-17)
(0.986769 -0.166537 8.12503e-18)
(0.96422 -0.270338 -5.03229e-21)
(0.964221 -0.270547 -1.94612e-20)
(0.964108 -0.270965 -1.64787e-20)
(0.964003 -0.271197 1.60691e-19)
(0.963903 -0.271349 -8.93723e-20)
(0.963806 -0.271448 -1.04516e-19)
(0.963711 -0.271514 -3.74986e-20)
(0.963619 -0.271559 -1.54827e-19)
(0.963529 -0.271591 1.00664e-19)
(0.963441 -0.271614 1.64868e-20)
(0.963355 -0.271632 7.38991e-21)
(0.963273 -0.271646 3.95508e-19)
(0.963195 -0.271659 -2.78617e-19)
(0.963122 -0.27167 -3.22546e-20)
(0.963055 -0.27168 3.03575e-19)
(0.962995 -0.271689 -1.67245e-19)
(0.962943 -0.271698 -6.09914e-20)
(0.9629 -0.271705 9.9079e-20)
(0.962867 -0.271709 3.02121e-19)
(0.962846 -0.271713 1.50652e-19)
(0.962837 -0.271712 3.95918e-20)
(0.962843 -0.271705 -3.9626e-19)
(0.962865 -0.271696 1.8504e-19)
(0.962903 -0.271677 3.33783e-19)
(0.962961 -0.271651 -7.0477e-19)
(0.96304 -0.271614 2.04472e-19)
(0.963141 -0.271565 -8.06042e-19)
(0.963266 -0.271504 6.28496e-19)
(0.963419 -0.271423 4.88168e-19)
(0.963602 -0.271325 -7.53643e-19)
(0.963817 -0.271203 -3.25651e-19)
(0.964068 -0.271055 3.92307e-19)
(0.964358 -0.270877 1.25471e-19)
(0.964692 -0.270664 -2.66871e-19)
(0.965073 -0.270414 -3.00057e-19)
(0.965506 -0.270119 -3.0497e-19)
(0.965997 -0.269775 2.05255e-19)
(0.966551 -0.269375 3.53725e-19)
(0.967174 -0.268911 1.36111e-19)
(0.967871 -0.268375 -6.11063e-21)
(0.968648 -0.267758 -4.15174e-20)
(0.969511 -0.267049 -3.51715e-20)
(0.970467 -0.266233 -8.72666e-19)
(0.97152 -0.265295 2.48915e-18)
(0.972674 -0.264215 -5.2463e-19)
(0.973933 -0.262967 -5.35489e-20)
(0.9753 -0.261518 1.81494e-19)
(0.976775 -0.259825 5.19022e-18)
(0.978359 -0.257833 9.61979e-18)
(0.980046 -0.255464 -1.02016e-17)
(0.981833 -0.252618 -1.55493e-17)
(0.983704 -0.249149 -9.63765e-18)
(0.985645 -0.24486 2.09499e-17)
(0.987638 -0.239465 -1.31051e-17)
(0.989638 -0.232517 -3.66766e-17)
(0.991557 -0.223341 -1.83963e-17)
(0.993154 -0.211085 -3.5494e-17)
(0.995008 -0.190078 -2.00757e-17)
(0.99502 -0.163392 -7.81171e-17)
(0.987835 -0.165145 2.60604e-17)
(0.964178 -0.270462 6.52702e-21)
(0.96418 -0.270674 -1.94148e-20)
(0.964066 -0.271095 6.84047e-20)
(0.96396 -0.271329 1.69058e-20)
(0.963859 -0.271482 -9.23716e-20)
(0.963762 -0.271582 -1.03624e-19)
(0.963667 -0.271649 2.44791e-19)
(0.963575 -0.271694 -2.63151e-19)
(0.963486 -0.271726 -6.08953e-20)
(0.963399 -0.27175 1.59892e-19)
(0.963315 -0.271769 1.43224e-19)
(0.963235 -0.271785 4.23699e-19)
(0.96316 -0.271799 -2.45307e-19)
(0.96309 -0.271812 -4.00861e-19)
(0.963027 -0.271824 8.8041e-20)
(0.962971 -0.271835 -3.07568e-19)
(0.962923 -0.271847 2.3517e-19)
(0.962886 -0.271857 -3.6742e-19)
(0.96286 -0.271864 7.14788e-20)
(0.962845 -0.271872 -1.0218e-19)
(0.962844 -0.271875 -5.40347e-20)
(0.962859 -0.271873 -2.78158e-19)
(0.96289 -0.27187 4.8897e-20)
(0.962939 -0.271856 6.0803e-19)
(0.963008 -0.271837 -1.94609e-19)
(0.963098 -0.271809 6.78543e-20)
(0.963212 -0.271767 1.72225e-19)
(0.963351 -0.271715 -1.92641e-19)
(0.963519 -0.271644 -3.46076e-20)
(0.963717 -0.271557 2.35084e-19)
(0.963949 -0.271446 2.47929e-19)
(0.964217 -0.271311 -1.72367e-19)
(0.964525 -0.271146 -4.92977e-19)
(0.964878 -0.270947 -6.11999e-19)
(0.965278 -0.270712 8.68759e-19)
(0.965732 -0.270431 2.18202e-19)
(0.966244 -0.270103 1.48719e-19)
(0.966819 -0.269718 3.78365e-19)
(0.967463 -0.269268 -2.30541e-19)
(0.968183 -0.268746 8.76454e-20)
(0.968984 -0.268142 -2.98722e-20)
(0.969871 -0.267442 -3.65815e-21)
(0.970852 -0.266633 3.30492e-19)
(0.971931 -0.265699 -1.13081e-18)
(0.973113 -0.264618 2.15899e-18)
(0.974402 -0.263363 -1.7654e-18)
(0.975801 -0.261901 5.79401e-18)
(0.97731 -0.260187 -1.6741e-18)
(0.978931 -0.258165 -5.10365e-18)
(0.980658 -0.255757 1.04909e-17)
(0.982488 -0.252859 2.5744e-18)
(0.984405 -0.249325 3.95646e-19)
(0.986392 -0.244954 4.30681e-18)
(0.988434 -0.239455 1.43682e-17)
(0.99048 -0.232379 -9.16326e-19)
(0.992438 -0.223043 -1.88801e-17)
(0.994047 -0.21059 2.21056e-17)
(0.995915 -0.189273 6.66227e-18)
(0.99598 -0.162063 9.90317e-18)
(0.988936 -0.163741 -1.99584e-17)
(0.96413 -0.270603 1.21902e-20)
(0.964133 -0.270816 -1.03401e-20)
(0.964017 -0.271241 9.13974e-21)
(0.963909 -0.271477 5.8045e-20)
(0.963807 -0.271631 8.26479e-20)
(0.96371 -0.271732 -3.24121e-19)
(0.963615 -0.271799 2.32268e-19)
(0.963523 -0.271846 4.62132e-20)
(0.963434 -0.271879 -1.58186e-20)
(0.963348 -0.271903 -1.00789e-19)
(0.963266 -0.271924 2.98759e-19)
(0.963188 -0.27194 -1.01114e-19)
(0.963114 -0.271956 -1.33544e-19)
(0.963047 -0.271971 -3.8045e-19)
(0.962988 -0.271984 7.4958e-19)
(0.962936 -0.271998 -1.61029e-19)
(0.962893 -0.272013 -1.29545e-19)
(0.962861 -0.272025 -3.5668e-19)
(0.962841 -0.272036 3.89193e-19)
(0.962833 -0.272047 2.01917e-19)
(0.96284 -0.272055 -9.90585e-20)
(0.962863 -0.272058 1.44508e-19)
(0.962902 -0.27206 -6.24567e-19)
(0.962962 -0.272051 5.54973e-20)
(0.963041 -0.272038 3.26536e-19)
(0.963143 -0.272016 -5.83348e-20)
(0.96327 -0.271983 -8.66889e-19)
(0.963423 -0.271938 1.10067e-19)
(0.963605 -0.271876 7.10557e-19)
(0.963819 -0.271799 -1.74125e-19)
(0.964066 -0.271699 -3.16742e-19)
(0.964352 -0.271575 1.64293e-19)
(0.964678 -0.271422 4.42056e-19)
(0.965049 -0.271236 9.16865e-19)
(0.96547 -0.271014 -1.35779e-19)
(0.965944 -0.270747 8.75599e-20)
(0.966477 -0.270433 -8.57426e-19)
(0.967074 -0.270063 -1.66461e-19)
(0.967741 -0.269627 6.36244e-20)
(0.968484 -0.269118 -1.08522e-19)
(0.969309 -0.268524 1.95117e-20)
(0.970222 -0.267834 -8.89579e-20)
(0.971229 -0.267033 -1.66265e-19)
(0.972335 -0.266102 -7.55043e-19)
(0.973546 -0.265019 -3.41608e-18)
(0.974866 -0.263758 3.50633e-18)
(0.976298 -0.262284 -6.83872e-18)
(0.977843 -0.26055 -6.1186e-18)
(0.979501 -0.258499 1.10093e-19)
(0.98127 -0.256052 -1.10137e-17)
(0.983143 -0.253104 1.69373e-17)
(0.985106 -0.249505 2.33841e-17)
(0.987141 -0.245051 -2.07491e-17)
(0.989232 -0.239449 -2.04456e-17)
(0.991325 -0.232244 1.00618e-17)
(0.993322 -0.222745 6.35412e-17)
(0.994944 -0.210093 -1.69829e-17)
(0.996826 -0.18846 2.04119e-17)
(0.99696 -0.1607 4.06665e-17)
(0.990067 -0.162312 -1.73804e-17)
(0.964077 -0.270763 -1.31543e-20)
(0.96408 -0.270981 1.44093e-20)
(0.963962 -0.271411 9.5675e-20)
(0.963853 -0.271649 -1.24599e-19)
(0.96375 -0.271805 2.2177e-19)
(0.963651 -0.271907 -3.23527e-19)
(0.963556 -0.271975 9.15662e-20)
(0.963464 -0.272021 -3.55524e-21)
(0.963375 -0.272055 1.93707e-19)
(0.96329 -0.27208 -1.02284e-19)
(0.963209 -0.272101 2.85562e-20)
(0.963132 -0.272119 2.81484e-20)
(0.963061 -0.272136 -4.5028e-19)
(0.962996 -0.272152 1.39208e-19)
(0.962939 -0.272167 3.02049e-19)
(0.962891 -0.272182 6.10431e-21)
(0.962853 -0.2722 -4.74828e-19)
(0.962825 -0.272214 1.96247e-19)
(0.962811 -0.272228 8.49169e-19)
(0.96281 -0.272242 -5.58194e-19)
(0.962824 -0.272253 -3.95999e-19)
(0.962855 -0.27226 3.29107e-19)
(0.962903 -0.272266 1.94067e-19)
(0.962972 -0.272263 2.01377e-19)
(0.963062 -0.272255 -4.00492e-19)
(0.963176 -0.27224 -7.84158e-19)
(0.963314 -0.272213 6.07969e-19)
(0.963481 -0.272176 7.63513e-19)
(0.963677 -0.272122 1.57883e-19)
(0.963906 -0.272054 -3.86182e-19)
(0.96417 -0.271963 1.51311e-19)
(0.964473 -0.271849 2.13343e-19)
(0.964817 -0.271707 -4.00529e-19)
(0.965207 -0.271533 -1.04813e-19)
(0.965648 -0.271324 -5.23065e-19)
(0.966142 -0.27107 -9.66239e-20)
(0.966697 -0.270769 -2.91394e-20)
(0.967317 -0.270412 1.75144e-19)
(0.968007 -0.269989 -1.78972e-19)
(0.968774 -0.269492 1.14766e-20)
(0.969624 -0.268909 -2.38492e-20)
(0.970563 -0.268228 -3.53304e-20)
(0.971597 -0.267433 8.69403e-19)
(0.972732 -0.266505 1.76712e-18)
(0.973973 -0.265422 1.99809e-18)
(0.975325 -0.264155 -5.02549e-18)
(0.976791 -0.262668 -4.31758e-19)
(0.978372 -0.260914 2.87119e-18)
(0.98007 -0.258835 -1.85821e-18)
(0.98188 -0.256349 1.33614e-17)
(0.983798 -0.253351 -7.41421e-18)
(0.985808 -0.249686 -2.36256e-17)
(0.987892 -0.245151 1.4012e-18)
(0.990032 -0.239446 2.72552e-17)
(0.992173 -0.23211 -1.45424e-17)
(0.994209 -0.222447 -1.57431e-17)
(0.995842 -0.209595 -2.30562e-17)
(0.997737 -0.187645 -5.7662e-17)
(0.997954 -0.159325 -7.62494e-17)
(0.99123 -0.160867 4.00183e-17)
(0.964021 -0.27094 -1.11553e-20)
(0.964026 -0.27116 1.60356e-20)
(0.963905 -0.271596 3.17258e-21)
(0.963794 -0.271838 5.87582e-20)
(0.963689 -0.271995 -8.90806e-20)
(0.96359 -0.272098 -1.77942e-19)
(0.963493 -0.272167 6.56331e-20)
(0.963401 -0.272215 -8.04396e-20)
(0.963312 -0.27225 1.79271e-19)
(0.963226 -0.272276 -3.46812e-20)
(0.963146 -0.272297 -1.11806e-19)
(0.96307 -0.272316 9.42576e-20)
(0.963 -0.272334 1.46165e-19)
(0.962937 -0.272351 3.89311e-19)
(0.962883 -0.272367 -7.0479e-19)
(0.962838 -0.272384 3.51274e-19)
(0.962803 -0.272404 4.74328e-20)
(0.962781 -0.272421 -3.27896e-19)
(0.962772 -0.272437 -1.91385e-19)
(0.962776 -0.272455 6.24235e-19)
(0.962797 -0.272469 -6.29085e-19)
(0.962836 -0.272479 1.9275e-19)
(0.962893 -0.27249 -4.53085e-19)
(0.962971 -0.272491 7.54403e-19)
(0.963071 -0.272489 -1.48527e-19)
(0.963196 -0.272479 -3.70087e-19)
(0.963347 -0.272458 3.08978e-19)
(0.963526 -0.272429 5.15113e-19)
(0.963736 -0.272382 -4.52198e-19)
(0.96398 -0.272322 2.57947e-19)
(0.96426 -0.27224 -7.65559e-19)
(0.96458 -0.272136 -4.88177e-20)
(0.964942 -0.272004 2.81323e-19)
(0.965352 -0.271841 -1.54773e-19)
(0.965812 -0.271643 -2.51219e-19)
(0.966328 -0.271401 -4.58322e-19)
(0.966904 -0.271112 5.15849e-19)
(0.967547 -0.270767 -1.51168e-19)
(0.968261 -0.270356 9.42059e-20)
(0.969053 -0.26987 6.64424e-20)
(0.969929 -0.269298 -3.81319e-20)
(0.970895 -0.268625 1.41528e-19)
(0.971957 -0.267836 -5.7974e-19)