/*--------------------------------*- C++ -*----------------------------------*\
  =========                 |
  \\      /  F ield         | OpenFOAM: The Open Source CFD Toolbox
   \\    /   O peration     | Website:  https://openfoam.org
    \\  /    A nd           | Version:  6.0
     \\/     M anipulation  |
\*---------------------------------------------------------------------------*/
FoamFile
{
    version     2.0;
    format      ascii;
    class       volVectorField;
    location    "5";
    object      U;
}
// * * * * * * * * * * * * * * * * * * * * * * * * * * * * * * * * * * * * * //

dimensions      [0 1 -1 0 0 0 0];

internalField   nonuniform List<vector> 
15000
(
(1.0002 6.35766e-05 -6.14018e-17)
(1.00176 0.0004789 8.39086e-17)
(1.00473 0.00180262 -1.4739e-16)
(1.00886 0.00461881 1.6629e-16)
(1.01385 0.00955357 -8.02757e-16)
(1.01928 0.0172334 -4.68346e-16)
(1.02488 0.0286757 4.70113e-16)
(1.03 0.0448955 -1.01656e-15)
(1.0347 0.0695408 2.89515e-16)
(1.03737 0.104465 -1.89392e-16)
(1.03952 0.170021 -1.38205e-16)
(1.06173 0.287733 -5.89588e-17)
(1.00037 0.000127207 8.99836e-17)
(1.00322 0.000858995 -1.23637e-16)
(1.00864 0.00323515 2.74174e-16)
(1.01617 0.0083116 -6.7892e-17)
(1.02527 0.0172129 3.53208e-16)
(1.0352 0.0309965 4.68226e-16)
(1.04545 0.0514684 -2.58614e-16)
(1.05505 0.0802314 1.03858e-15)
(1.0642 0.123802 -2.00879e-16)
(1.07173 0.184524 1.03846e-17)
(1.08245 0.298446 2.86679e-17)
(1.1479 0.505396 2.40799e-17)
(1.00034 0.00017972 -6.85353e-17)
(1.00289 0.00088727 1.66626e-16)
(1.00773 0.00304596 -9.47558e-17)
(1.01447 0.0075868 3.4676e-16)
(1.02265 0.0155248 1.91481e-16)
(1.03163 0.0277244 1.76001e-16)
(1.041 0.0458051 3.83721e-16)
(1.05018 0.0709476 -4.57751e-16)
(1.05946 0.109105 -2.37805e-16)
(1.0703 0.161226 -7.36555e-17)
(1.0883 0.259023 -9.41895e-18)
(1.198 0.431522 6.4445e-17)
(1.00031 0.00024736 -2.92663e-17)
(1.00247 0.000946166 -1.57783e-16)
(1.00658 0.00286207 -2.43667e-16)
(1.01233 0.00677952 -1.72139e-16)
(1.01937 0.0135946 -1.00311e-16)
(1.02722 0.0239966 -6.85886e-16)
(1.03555 0.0394373 -1.06066e-15)
(1.04421 0.0607574 1.16642e-16)
(1.05348 0.0933478 2.91899e-17)
(1.06707 0.137094 3.57786e-16)
(1.08873 0.218635 -1.5342e-16)
(1.23481 0.354325 -8.55738e-17)
(1.00032 0.000319868 5.21349e-17)
(1.00246 0.00109661 2.54998e-17)
(1.00655 0.00307697 1.23551e-16)
(1.01228 0.00703296 -5.82875e-17)
(1.01934 0.0138773 1.59097e-16)
(1.02731 0.0242756 1.42693e-16)
(1.03589 0.0397403 1.07272e-15)
(1.04512 0.0610115 -6.77417e-17)
(1.05523 0.0936383 -1.79132e-16)
(1.07155 0.136921 3.97295e-17)
(1.09455 0.216324 1.06908e-16)
(1.2659 0.344176 -2.13684e-17)
(1.00036 0.000387196 3.0154e-18)
(1.00259 0.00125703 -1.46213e-17)
(1.00686 0.00338075 -1.64272e-17)
(1.01284 0.00754784 -2.95676e-18)
(1.02022 0.0147097 -6.58889e-16)
(1.02861 0.0255317 7.96507e-16)
(1.03771 0.0416221 1.96841e-17)
(1.04771 0.0636371 1.02399e-16)
(1.05877 0.0973659 4.45529e-16)
(1.0777 0.141544 -1.87743e-16)
(1.10111 0.220815 1.89452e-16)
(1.2885 0.346593 5.38699e-17)
(1.00039 0.000449342 -2.73091e-18)
(1.00265 0.00139173 1.5794e-16)
(1.00695 0.00359753 -1.60017e-16)
(1.013 0.00784311 -7.78172e-17)
(1.02046 0.015082 3.38539e-16)
(1.02901 0.0259441 -1.6468e-16)
(1.03834 0.0420824 -4.43543e-16)
(1.04886 0.0640206 -2.2e-16)
(1.06061 0.0975935 7.78397e-17)
(1.08199 0.140949 3.26919e-16)
(1.10532 0.216572 -4.48694e-16)
(1.30198 0.333771 4.95315e-17)
(1.00042 0.000508899 -4.03128e-17)
(1.00266 0.0015134 6.11208e-17)
(1.00692 0.00376577 1.84407e-16)
(1.01292 0.00801406 3.48048e-16)
(1.02033 0.0151971 1.84014e-16)
(1.02889 0.0258938 -2.01609e-16)
(1.03831 0.0417804 -2.13242e-16)
(1.04923 0.0632448 -9.75895e-17)
(1.06152 0.096082 3.04284e-17)
(1.08524 0.137957 -7.18259e-17)
(1.10817 0.208571 3.86603e-16)
(1.30879 0.314693 -8.83139e-17)
(1.00045 0.00056657 1.58721e-17)
(1.00267 0.00163452 -1.50101e-16)
(1.00691 0.00394 1.12579e-17)
(1.01289 0.00820777 -5.56293e-17)
(1.02029 0.0153672 5.55905e-17)
(1.0289 0.025951 -4.60867e-17)
(1.03845 0.0416603 3.76209e-17)
(1.04978 0.0627654 3.90388e-16)
(1.06259 0.0950212 -4.45029e-17)
(1.08853 0.13575 -4.27904e-16)
(1.11093 0.201893 -3.2703e-16)
(1.31117 0.298558 1.61873e-16)
(1.00049 0.000621935 5.63957e-17)
(1.00271 0.00175479 3.75523e-18)
(1.00695 0.004122 1.41952e-16)
(1.01294 0.00843065 -3.70997e-16)
(1.02038 0.0156084 -8.78557e-17)
(1.02909 0.0261466 3.91703e-16)
(1.0388 0.0417697 -3.23534e-16)
(1.05057 0.0626381 -4.66519e-16)
(1.06387 0.0944537 1.29413e-16)
(1.09188 0.134305 1.11021e-16)
(1.11385 0.196421 2.45283e-16)
(1.31031 0.285012 -2.36427e-17)
(1.00053 0.000674825 -7.73431e-17)
(1.00275 0.00187091 -1.78005e-17)
(1.00698 0.0042968 -1.69135e-16)
(1.013 0.00864166 2.81234e-17)
(1.02047 0.0158349 1.27138e-16)
(1.02929 0.0263287 -2.70634e-16)
(1.03916 0.041863 1.97864e-16)
(1.05135 0.0624888 5.24231e-16)
(1.06509 0.093818 -3.5592e-16)
(1.09501 0.132799 1.20258e-16)
(1.11677 0.190906 -3.1792e-16)
(1.30702 0.271718 -1.59222e-16)
(1.00058 0.000725397 5.02322e-18)
(1.00278 0.00198232 1.47858e-16)
(1.007 0.00446008 -1.48042e-16)
(1.01302 0.00882714 1.14127e-16)
(1.02053 0.0160165 -3.47589e-16)
(1.02943 0.0264435 -1.52796e-16)
(1.03945 0.0418571 4.8574e-17)
(1.05203 0.0622016 -2.10478e-16)
(1.06616 0.0929615 -2.48208e-16)
(1.09784 0.131036 1.93795e-16)
(1.1197 0.18515 1.09101e-16)
(1.30214 0.25838 1.86674e-18)
(1.00063 0.000773792 1.88883e-17)
(1.00282 0.00209001 -1.4791e-17)
(1.00702 0.00461543 4.07858e-16)
(1.01303 0.00899541 1.17181e-16)
(1.02056 0.0161679 1.98658e-16)
(1.02955 0.0265149 -2.18602e-16)
(1.03971 0.0417912 -1.07078e-16)
(1.05267 0.0618404 8.32206e-17)
(1.06714 0.0919901 2.93669e-16)
(1.10041 0.129176 -6.52324e-16)
(1.1227 0.179458 -1.84006e-16)
(1.29638 0.245601 1.01629e-16)
(1.00068 0.000819989 -5.83163e-17)
(1.00286 0.00219452 -5.19021e-17)
(1.00704 0.00476588 -3.2223e-16)
(1.01305 0.00915493 -2.53548e-16)
(1.02059 0.0163049 -1.76018e-16)
(1.02967 0.0265677 2.72557e-16)
(1.03996 0.0417017 1.82258e-16)
(1.05329 0.0614577 -1.91195e-16)
(1.06807 0.090981 -2.32756e-16)
(1.10275 0.127316 -6.97864e-17)
(1.1258 0.173991 2.65426e-16)
(1.29028 0.233635 -9.31387e-17)
(1.00074 0.000863883 3.13923e-17)
(1.00291 0.00229567 2.47894e-17)
(1.00708 0.00491208 3.80784e-17)
(1.01308 0.00930872 6.0508e-17)
(1.02063 0.0164332 6.24125e-17)
(1.02979 0.0266098 -1.10669e-16)
(1.04021 0.0415979 5.76545e-18)
(1.05389 0.061064 -2.63807e-16)
(1.06896 0.0899472 2.27844e-16)
(1.10487 0.125463 7.3688e-16)
(1.12896 0.168751 -7.85366e-17)
(1.2842 0.222416 1.33694e-16)
(1.0008 0.000905337 -3.02937e-17)
(1.00296 0.00239299 1.13063e-18)
(1.00712 0.00505347 1.13505e-16)
(1.01312 0.00945722 1.59789e-16)
(1.02069 0.0165548 1.75139e-16)
(1.02993 0.0266437 -1.11916e-16)
(1.04047 0.041482 -1.74621e-16)
(1.05449 0.0606599 4.07267e-16)
(1.06981 0.0888889 8.97194e-17)
(1.10677 0.123604 -7.92788e-16)
(1.13213 0.163717 9.18009e-17)
(1.27836 0.211863 4.55624e-18)
(1.00087 0.000944239 6.93176e-17)
(1.00302 0.002486 2.54337e-17)
(1.00717 0.00518917 -2.45185e-16)
(1.01317 0.00960004 1.05277e-16)
(1.02076 0.0166703 -4.24392e-17)
(1.03007 0.026671 2.73313e-16)
(1.04073 0.0413557 4.51516e-16)
(1.05507 0.0602467 7.20313e-17)
(1.07063 0.0878086 3.18755e-16)
(1.10845 0.121734 6.58911e-16)
(1.13525 0.158877 5.58467e-16)
(1.27293 0.201929 -1.13038e-16)
(1.00094 0.000980491 2.6633e-17)
(1.00308 0.00257419 -2.11201e-17)
(1.00723 0.00531807 2.33167e-16)
(1.01323 0.00973574 -2.11644e-16)
(1.02084 0.0167788 2.96501e-16)
(1.03023 0.0266911 2.78928e-18)
(1.04099 0.0412179 -2.93077e-16)
(1.05564 0.0598219 8.7446e-17)
(1.07141 0.0867039 -2.76518e-16)
(1.10992 0.119842 -1.15403e-16)
(1.13828 0.154208 -2.2634e-16)
(1.26795 0.192556 -2.31043e-17)
(1.00101 0.00101405 -3.19375e-17)
(1.00315 0.00265719 -1.77632e-16)
(1.00729 0.00543902 -9.69789e-17)
(1.0133 0.00986226 1.18431e-16)
(1.02093 0.0168775 -2.14683e-17)
(1.03039 0.0267009 -1.94636e-16)
(1.04125 0.0410647 -3.91342e-17)
(1.05619 0.0593796 -2.36152e-17)
(1.07216 0.0855687 -3.30702e-16)
(1.11117 0.117915 -2.0674e-16)
(1.14115 0.149684 -6.80258e-16)
(1.26345 0.18368 2.28264e-16)
(1.00109 0.00104493 -3.04189e-17)
(1.00322 0.00273478 1.84875e-16)
(1.00735 0.00555116 -1.31576e-16)
(1.01337 0.00997757 5.83926e-17)
(1.02102 0.0169636 -1.42092e-16)
(1.03055 0.0266969 -3.16005e-16)
(1.0415 0.0408922 3.90614e-17)
(1.05672 0.058915 -4.76042e-17)
(1.07287 0.0843994 1.79241e-16)
(1.11223 0.115944 2.37087e-16)
(1.14383 0.145287 6.13248e-16)
(1.25938 0.175254 -2.26695e-16)
(1.00116 0.00107318 2.18793e-17)
(1.00329 0.00280695 -8.62158e-18)
(1.00741 0.00565417 2.09321e-17)
(1.01344 0.0100805 -4.84874e-17)
(1.02111 0.0170348 -1.78249e-16)
(1.0307 0.0266766 -6.71137e-18)
(1.04174 0.0406981 -8.98017e-17)
(1.05721 0.0584264 -4.57138e-16)
(1.07354 0.0831977 2.51064e-16)
(1.11311 0.113931 1.15696e-16)
(1.14628 0.141008 2.58638e-17)
(1.25571 0.167247 5.22602e-17)
(1.00125 0.00109889 2.5016e-17)
(1.00337 0.00287388 -2.0269e-16)
(1.00748 0.00574827 3.95771e-16)
(1.01351 0.0101707 3.74049e-17)
(1.02119 0.0170902 1.08058e-16)
(1.03085 0.0266388 6.43405e-16)
(1.04198 0.0404818 5.1253e-16)
(1.05769 0.0579144 2.46764e-16)
(1.07418 0.0819686 -5.95924e-16)
(1.11382 0.111882 -1.49048e-16)
(1.14848 0.136848 3.7003e-17)
(1.25236 0.15964 -8.07418e-18)
(1.00133 0.00112217 -4.68675e-17)
(1.00344 0.00293588 8.07379e-17)
(1.00754 0.00583416 -5.33969e-17)
(1.01357 0.0102489 -6.73894e-17)
(1.02127 0.0171301 -1.91987e-16)
(1.03099 0.0265835 -3.73342e-16)
(1.0422 0.0402439 -1.96707e-16)
(1.05813 0.0573807 -1.48128e-17)
(1.07479 0.0807178 1.73306e-16)
(1.11438 0.109804 -1.4105e-16)
(1.15041 0.132803 -6.34301e-16)
(1.24927 0.152411 1.96182e-16)
(1.00142 0.00114312 3.42138e-17)
(1.00352 0.00299328 4.8798e-18)
(1.00761 0.00591279 -1.45116e-16)
(1.01364 0.0103168 -1.10311e-16)
(1.02135 0.0171561 -6.03956e-17)
(1.03113 0.026512 -8.77835e-17)
(1.04241 0.039986 -1.55227e-16)
(1.05855 0.0568276 -1.57182e-16)
(1.07536 0.0794515 -4.13684e-17)
(1.1148 0.107706 -1.30657e-16)
(1.15208 0.128873 3.83809e-17)
(1.24637 0.145539 -3.98399e-17)
(1.00151 0.00116186 1.17221e-17)
(1.0036 0.00304643 1.14614e-16)
(1.00768 0.00598519 3.12705e-17)
(1.0137 0.0103762 -1.19076e-17)
(1.02142 0.0171707 7.4409e-17)
(1.03126 0.026427 2.04949e-16)
(1.04261 0.039711 7.63799e-17)
(1.05895 0.0562587 1.81572e-16)
(1.07592 0.078176 1.94888e-16)
(1.1151 0.105595 -1.6259e-16)
(1.15347 0.125058 4.13315e-16)
(1.24362 0.139006 -1.616e-16)
(1.00161 0.00117849 -1.58937e-17)
(1.00369 0.00309559 -1.50058e-17)
(1.00776 0.00605224 -1.12941e-16)
(1.01378 0.0104291 -7.38246e-17)
(1.0215 0.0171768 -2.60585e-17)
(1.0314 0.026332 -1.3186e-16)
(1.04281 0.0394227 7.39268e-18)
(1.05932 0.0556779 -2.10847e-16)
(1.07645 0.0768976 -1.65752e-17)
(1.11531 0.103479 5.61476e-16)
(1.15461 0.121355 2.05466e-16)
(1.24095 0.132789 1.40328e-17)
(1.0017 0.00119312 -7.55798e-18)
(1.00378 0.00314095 -8.79178e-17)
(1.00784 0.0061145 -3.85767e-17)
(1.01386 0.010477 -5.72354e-17)
(1.02159 0.0171769 4.18256e-16)
(1.03153 0.0262299 -9.50013e-17)
(1.043 0.0391247 1.09466e-16)
(1.05968 0.0550887 -1.07778e-16)
(1.07695 0.0756209 -1.57897e-16)
(1.11542 0.101365 -1.42057e-16)
(1.15549 0.117759 -8.34806e-18)
(1.23833 0.126865 -5.48438e-17)
(1.0018 0.00120587 2.61656e-17)
(1.00388 0.0031826 -3.12998e-17)
(1.00792 0.00617216 1.31099e-16)
(1.01394 0.0105205 2.62951e-16)
(1.02168 0.0171724 -3.95202e-16)
(1.03166 0.0261229 3.66949e-16)
(1.04319 0.0388192 -1.96446e-16)
(1.06001 0.0544929 -9.68801e-17)
(1.07744 0.0743485 -1.19722e-16)
(1.11547 0.0992544 -1.90079e-16)
(1.15614 0.114264 -6.34238e-17)
(1.23573 0.121211 -3.38182e-17)
(1.00191 0.00121688 -4.47052e-18)
(1.00398 0.00322062 -1.19863e-17)
(1.00802 0.00622513 -1.20497e-17)
(1.01403 0.0105596 -2.54304e-16)
(1.02178 0.0171635 -1.07727e-16)
(1.0318 0.0260111 -9.78251e-18)
(1.04337 0.0385067 -2.76844e-16)
(1.06033 0.0538905 4.85284e-16)
(1.07791 0.0730804 -2.95093e-18)
(1.11544 0.0971479 1.3466e-16)
(1.15656 0.11086 7.52025e-17)
(1.23312 0.115801 -1.83351e-18)
(1.00201 0.00122631 -1.44924e-17)
(1.00408 0.00325505 8.26327e-17)
(1.00811 0.00627312 2.45114e-17)
(1.01413 0.0105936 3.4936e-16)
(1.02188 0.0171492 1.88457e-16)
(1.03194 0.0258937 -3.09924e-16)
(1.04356 0.0381862 1.36455e-16)
(1.06062 0.0532799 -2.55235e-16)
(1.07835 0.071815 8.11557e-16)
(1.11536 0.0950443 -5.47303e-17)
(1.15679 0.107538 9.53745e-18)
(1.23049 0.110617 -4.1259e-17)
(1.00212 0.00123435 -1.51146e-17)
(1.00418 0.00328604 5.76902e-17)
(1.00821 0.00631592 -6.90503e-17)
(1.01423 0.0106215 -3.38831e-16)
(1.02198 0.017128 3.46475e-16)
(1.03208 0.0257687 1.98786e-16)
(1.04373 0.0378557 2.43347e-16)
(1.0609 0.0526587 1.03568e-16)
(1.07876 0.0705501 -6.80088e-17)
(1.11523 0.0929427 2.94302e-16)
(1.15683 0.104292 -4.26462e-16)
(1.22783 0.105642 3.33042e-16)
(1.00222 0.00124121 2.10586e-17)
(1.00428 0.00331377 -1.10392e-16)
(1.0083 0.00635341 -6.41753e-17)
(1.01433 0.0106427 -2.02096e-17)
(1.02208 0.0170984 -1.32561e-16)
(1.03221 0.025634 -3.77422e-18)
(1.0439 0.0375132 -1.99707e-16)
(1.06115 0.0520248 -1.4344e-16)
(1.07915 0.0692844 -7.45304e-16)
(1.11506 0.0908439 -2.1485e-16)
(1.1567 0.101118 -1.10767e-16)
(1.22514 0.100866 -8.84393e-18)
(1.00233 0.00124712 8.07153e-18)
(1.00438 0.00333854 -9.05896e-18)
(1.0084 0.00638577 -3.24252e-17)
(1.01442 0.0106567 2.46237e-16)
(1.02218 0.0170593 -4.12663e-16)
(1.03234 0.0254884 -3.00203e-16)
(1.04406 0.0371573 2.49618e-16)
(1.06138 0.051377 -1.53779e-17)
(1.07951 0.0680177 4.57379e-17)
(1.11485 0.0887502 2.27622e-16)
(1.15643 0.0980143 -7.36254e-17)
(1.22241 0.0962818 9.45629e-17)
(1.00244 0.00125229 -1.16258e-17)
(1.00449 0.00336068 1.30058e-16)
(1.0085 0.00641338 2.19741e-16)
(1.01452 0.0106638 -7.26696e-17)
(1.02227 0.0170107 3.26749e-17)
(1.03246 0.0253313 1.33401e-16)
(1.04421 0.0367879 -2.97644e-16)
(1.06158 0.0507157 2.97967e-16)
(1.07984 0.0667514 2.13786e-16)
(1.1146 0.0866654 -1.54304e-16)
(1.15603 0.0949813 1.42615e-18)
(1.21967 0.0918833 -5.52907e-18)
(1.00255 0.00125694 -3.28853e-18)
(1.00459 0.00338053 -1.88867e-16)
(1.00859 0.00643679 -3.69375e-17)
(1.01461 0.0106646 4.37738e-17)
(1.02236 0.0169531 4.86185e-16)
(1.03258 0.0251633 3.80921e-17)
(1.04435 0.0364059 2.76242e-16)
(1.06176 0.0500422 -4.85928e-16)
(1.08014 0.0654878 2.25237e-16)
(1.11433 0.0845941 -2.37583e-16)
(1.15552 0.0920201 4.1582e-16)
(1.21692 0.0876651 -1.5028e-16)
(1.00267 0.00126127 1.64337e-17)
(1.0047 0.00339842 8.37219e-17)
(1.00868 0.00645656 -8.85164e-17)
(1.0147 0.0106599 3.61476e-17)
(1.02244 0.0168875 -2.92296e-16)
(1.03269 0.0249857 -1.00754e-16)
(1.04448 0.0360129 1.59344e-17)
(1.06192 0.0493584 3.4842e-16)
(1.08041 0.0642295 1.93738e-16)
(1.11404 0.0825405 -1.16297e-17)
(1.15492 0.0891311 5.52389e-16)
(1.21415 0.0836208 -2.01137e-16)
(1.00278 0.00126543 1.10173e-18)
(1.0048 0.00341463 9.13179e-17)
(1.00878 0.00647321 9.08425e-17)
(1.01479 0.0106506 -1.08858e-17)
(1.02253 0.0168152 2.13551e-16)
(1.03279 0.0247999 2.70603e-16)
(1.0446 0.0356109 -7.9938e-17)
(1.06206 0.0486666 3.49371e-16)
(1.08065 0.0629787 -7.40892e-16)
(1.11372 0.080508 -7.23216e-17)
(1.15423 0.0863137 -8.01233e-16)
(1.21139 0.0797423 4.71133e-17)
(1.00289 0.00126958 -4.763e-17)
(1.00491 0.00342933 5.67733e-17)
(1.00888 0.00648706 -1.61711e-17)
(1.01488 0.0106373 1.16904e-16)
(1.02261 0.0167373 -1.58949e-16)
(1.03289 0.0246073 -3.7938e-16)
(1.04472 0.0352015 -2.82378e-17)
(1.06218 0.0479685 -2.49163e-16)
(1.08087 0.0617368 7.89741e-16)
(1.11339 0.0784985 -2.33204e-17)
(1.15347 0.0835659 1.73267e-16)
(1.20864 0.0760209 2.41337e-16)
(1.00301 0.00127386 1.18469e-17)
(1.00502 0.00344267 -2.43403e-16)
(1.00897 0.00649825 8.3491e-17)
(1.01497 0.0106203 -3.84243e-16)
(1.0227 0.0166542 1.89638e-16)
(1.03299 0.0244087 6.15206e-16)
(1.04483 0.0347859 -1.5427e-16)
(1.06229 0.0472649 -3.47498e-16)
(1.08106 0.0605044 -2.51606e-16)
(1.11304 0.0765129 -4.38112e-17)
(1.15265 0.0808846 1.81124e-16)
(1.20591 0.0724472 -2.24721e-16)
(1.00313 0.00127835 2.71477e-17)
(1.00513 0.00345471 7.0711e-17)
(1.00907 0.00650676 -2.53492e-16)
(1.01506 0.0105996 3.48293e-16)
(1.02279 0.016566 -5.16546e-16)
(1.03309 0.0242042 -5.05571e-16)
(1.04494 0.0343642 1.86546e-16)
(1.06238 0.0465562 6.23932e-16)
(1.08122 0.0592811 -3.25497e-16)
(1.11267 0.0745511 1.16695e-16)
(1.15177 0.0782666 -7.86804e-17)
(1.2032 0.0690124 2.13613e-17)
(1.00324 0.00128319 -4.62282e-18)
(1.00524 0.00346549 1.52488e-16)
(1.00917 0.00651244 2.02166e-16)
(1.01516 0.0105748 -2.38659e-16)
(1.02287 0.0164723 1.14711e-16)
(1.03318 0.0239934 3.11131e-16)
(1.04504 0.0339362 1.01202e-16)
(1.06245 0.0458419 -6.49498e-17)
(1.08135 0.0580661 4.56771e-16)
(1.11228 0.0726126 2.07076e-16)
(1.15085 0.0757086 3.27681e-17)
(1.20051 0.0657089 2.30181e-17)
(1.00336 0.00128844 1.03861e-17)
(1.00535 0.00347505 -1.70048e-16)
(1.00928 0.00651514 -4.47248e-17)
(1.01525 0.0105454 9.34442e-17)
(1.02296 0.0163724 5.56983e-16)
(1.03328 0.0237756 -2.79843e-16)
(1.04514 0.0335011 -2.30722e-16)
(1.06251 0.0451214 -5.01544e-17)
(1.08146 0.0568583 -4.51956e-16)
(1.11188 0.0706971 2.34485e-16)
(1.14989 0.0732081 -2.7596e-17)
(1.19786 0.0625304 1.39927e-16)
(1.00348 0.00129419 -8.24049e-18)
(1.00547 0.00348341 1.06432e-16)
(1.00938 0.00651475 -7.30752e-17)
(1.01535 0.0105112 2.71892e-16)
(1.02304 0.0162656 -5.22972e-16)
(1.03336 0.0235499 3.59768e-16)
(1.04523 0.0330585 -3.37628e-17)
(1.06255 0.0443942 -3.39155e-17)
(1.08153 0.0556572 4.68025e-16)
(1.11146 0.0688047 -1.61686e-16)
(1.14889 0.0707636 -1.12243e-16)
(1.19523 0.0594718 -3.56502e-17)
(1.0036 0.0013005 1.15852e-18)
(1.00558 0.00349063 -1.9835e-17)
(1.00947 0.00651124 8.90148e-17)
(1.01544 0.0104718 -3.01505e-16)
(1.02312 0.0161517 2.58049e-16)
(1.03344 0.0233158 8.43189e-17)
(1.04531 0.0326079 1.17953e-16)
(1.06257 0.0436602 -5.86114e-16)
(1.08158 0.0544629 -2.28854e-16)
(1.11103 0.0669364 -7.37872e-16)
(1.14786 0.0683747 -3.29313e-16)
(1.19264 0.0565291 -2.7231e-16)
(1.00372 0.00130741 -1.5043e-17)
(1.00569 0.00349676 1.37329e-17)
(1.00957 0.00650469 -1.66693e-16)
(1.01553 0.0104273 1.08882e-17)
(1.0232 0.0160305 -6.55267e-17)
(1.03352 0.0230735 3.5601e-18)
(1.04538 0.0321496 2.17556e-16)
(1.06258 0.0429202 7.92387e-16)
(1.0816 0.0532759 6.4101e-17)
(1.11058 0.0650935 4.6233e-16)
(1.14681 0.0660413 -5.84284e-17)
(1.19009 0.053699 5.02883e-16)
(1.00383 0.00131494 1.44696e-17)
(1.0058 0.00350186 8.32847e-18)
(1.00967 0.00649525 2.25197e-16)
(1.01561 0.0103781 -1.30517e-16)
(1.02327 0.0159026 -1.50714e-16)
(1.03359 0.0228234 -1.70688e-16)
(1.04545 0.0316845 -1.00249e-16)
(1.06258 0.0421752 -3.17874e-16)
(1.0816 0.0520976 5.31883e-17)
(1.11011 0.0632779 4.60406e-16)
(1.14573 0.0637635 3.84692e-16)
(1.18758 0.0509776 -4.53815e-16)
(1.00395 0.00132308 -1.47649e-17)
(1.00592 0.00350595 -1.82206e-16)
(1.00977 0.00648307 -9.65332e-17)
(1.0157 0.0103244 2.19925e-17)
(1.02335 0.0157685 3.7767e-16)
(1.03366 0.0225664 -2.93269e-16)
(1.04551 0.0312137 -2.53392e-16)
(1.06256 0.0414268 -2.98675e-16)
(1.08157 0.0509291 -3.34045e-16)
(1.10962 0.0614908 -9.97988e-16)
(1.14464 0.0615412 -2.88813e-16)
(1.1851 0.0483609 2.34099e-16)
(1.00407 0.00133179 7.38884e-18)
(1.00603 0.00350901 1.52138e-16)
(1.00987 0.00646828 4.56409e-17)
(1.01579 0.0102666 2.79147e-16)
(1.02342 0.0156289 -4.35673e-16)
(1.03372 0.0223035 4.15763e-16)
(1.04556 0.0307385 -4.65158e-18)
(1.06253 0.0406764 7.03932e-16)
(1.08151 0.0497715 2.37433e-16)
(1.10913 0.0597334 1.3057e-15)
(1.14352 0.0593735 1.61532e-16)
(1.18266 0.0458441 2.22325e-16)
(1.00419 0.00134103 -1.50729e-17)
(1.00614 0.003511 3.26565e-17)
(1.00997 0.00645091 7.07455e-17)
(1.01588 0.0102051 -1.09135e-16)
(1.02349 0.0154844 3.72035e-16)
(1.03378 0.0220354 -4.38502e-16)
(1.04561 0.0302598 3.87749e-16)
(1.06248 0.039925 -9.53653e-17)
(1.08143 0.0486255 1.4486e-16)
(1.10861 0.0580059 -9.55283e-16)
(1.14239 0.0572589 4.95102e-16)
(1.18026 0.0434221 -5.02712e-16)
(1.00431 0.00135071 1.62118e-17)
(1.00626 0.00351183 -9.03785e-17)
(1.01007 0.00643088 -1.3073e-16)
(1.01597 0.0101398 -1.28052e-16)
(1.02356 0.0153353 3.84078e-17)
(1.03384 0.0217627 -1.15227e-16)
(1.04566 0.0297784 -2.11187e-16)
(1.06243 0.0391734 -4.47451e-16)
(1.08134 0.047491 -1.49932e-16)
(1.10808 0.0563079 2.24043e-16)
(1.14125 0.0551954 -4.89811e-16)
(1.17789 0.0410897 2.95383e-16)
(1.00443 0.00136077 3.90371e-17)
(1.00637 0.0035114 1.09979e-17)
(1.01017 0.00640807 -3.47525e-17)
(1.01606 0.0100707 9.30512e-17)
(1.02364 0.0151816 -5.07377e-16)
(1.0339 0.0214855 8.42341e-17)
(1.0457 0.0292943 3.52972e-16)
(1.06237 0.0384216 -1.88175e-16)
(1.08122 0.0463678 5.92211e-17)
(1.10754 0.0546387 -7.06195e-17)
(1.14009 0.0531808 1.12577e-16)
(1.17555 0.038842 -2.26019e-16)
(1.00454 0.00137111 -2.54806e-17)
(1.00648 0.00350959 5.58129e-17)
(1.01027 0.00638225 -1.01542e-16)
(1.01614 0.00999737 -6.02798e-17)
(1.02371 0.015023 3.77313e-16)
(1.03395 0.0212034 1.52833e-16)
(1.04573 0.0288073 -1.56485e-16)
(1.0623 0.0376693 3.06438e-16)
(1.08108 0.0452549 9.44498e-17)
(1.10698 0.0529971 1.70315e-16)
(1.13892 0.051213 -1.55022e-16)
(1.17325 0.0366743 -5.02736e-18)
(1.00466 0.00138163 -3.89965e-17)
(1.0066 0.00350628 -2.02481e-17)
(1.01037 0.00635324 1.04704e-16)
(1.01623 0.00991962 9.16894e-17)
(1.02378 0.0148591 1.17467e-16)
(1.034 0.0209159 3.11208e-16)
(1.04576 0.0283169 -1.35516e-16)
(1.06222 0.0369162 -5.77451e-17)
(1.08091 0.0441516 -1.14877e-16)
(1.10641 0.0513823 -3.85412e-18)
(1.13773 0.0492902 3.16735e-18)
(1.17098 0.0345833 1.70479e-16)
(1.00478 0.00139224 6.55823e-17)
(1.00671 0.00350138 -1.06038e-17)
(1.01047 0.00632085 1.20924e-16)
(1.01632 0.0098371 -5.47293e-17)
(1.02384 0.0146895 -1.035e-16)
(1.03405 0.0206227 -4.09697e-16)
(1.04579 0.0278227 -2.40463e-16)
(1.06212 0.0361618 1.4975e-16)
(1.08073 0.0430573 2.21371e-17)
(1.10582 0.0497937 3.08908e-17)
(1.13654 0.0474111 4.23522e-17)
(1.16874 0.0325657 1.56467e-17)
(1.00489 0.00140284 -6.53882e-17)
(1.00682 0.00349484 9.97793e-17)
(1.01057 0.00628499 -1.77938e-16)
(1.0164 0.00974964 1.21314e-16)
(1.02391 0.0145139 -2.82448e-18)
(1.03409 0.0203234 2.77922e-16)
(1.0458 0.0273243 2.34685e-16)
(1.06202 0.0354061 -1.49995e-16)
(1.08053 0.0419719 2.31839e-16)
(1.10522 0.048231 -1.38069e-16)
(1.13534 0.0455751 3.68288e-16)
(1.16653 0.0306192 3.29267e-16)
(1.005 0.00141334 5.00899e-17)
(1.00693 0.00348659 -7.22164e-17)
(1.01066 0.00624565 -3.01313e-17)
(1.01648 0.00965719 9.02118e-17)
(1.02397 0.0143323 -1.11696e-16)
(1.03412 0.0200179 -1.70148e-16)
(1.04581 0.0268219 2.51865e-16)
(1.06191 0.0346494 -1.41227e-16)
(1.08031 0.0408954 -2.82821e-16)
(1.1046 0.0466944 1.39994e-16)
(1.13412 0.0437816 -2.1277e-16)
(1.16434 0.0287416 -2.60388e-16)
(1.00512 0.00142363 2.08078e-17)
(1.00704 0.00347661 -7.67471e-17)
(1.01075 0.00620288 3.11948e-16)
(1.01656 0.00955987 -1.51078e-16)
(1.02403 0.0141449 6.08427e-17)
(1.03415 0.0197065 -1.38185e-16)
(1.04581 0.0263157 -3.31154e-16)
(1.06179 0.0338922 2.75465e-16)
(1.08008 0.0398283 2.98905e-16)
(1.10398 0.0451842 -3.48016e-16)
(1.13291 0.0420305 -1.22254e-16)
(1.16219 0.0269307 -8.26939e-17)
(1.00523 0.0014336 -5.96426e-17)
(1.00714 0.00346488 2.3186e-17)
(1.01085 0.00615674 -1.41163e-16)
(1.01664 0.00945787 1.91203e-17)
(1.02409 0.0139519 8.38972e-17)
(1.03418 0.0193896 3.3566e-16)
(1.04581 0.0258065 3.54104e-18)
(1.06166 0.0331353 -1.63637e-17)
(1.07983 0.0387713 -4.11665e-16)
(1.10334 0.0437007 5.58793e-17)
(1.13168 0.0403212 -7.11669e-17)
(1.16006 0.0251843 3.44974e-17)
(1.00534 0.00144316 -9.62113e-18)
(1.00725 0.00345137 -1.76553e-17)
(1.01094 0.00610736 -2.05837e-16)
(1.01672 0.00935144 -3.72709e-17)
(1.02414 0.0137538 -1.32065e-16)
(1.0342 0.0190678 -9.36737e-17)
(1.0458 0.0252948 -9.25887e-17)
(1.06152 0.0323796 1.09017e-16)
(1.07956 0.0377248 1.15928e-16)
(1.10269 0.0422442 1.83646e-16)
(1.13045 0.0386533 2.34383e-16)
(1.15796 0.0235 -1.09785e-16)
(1.00545 0.00145219 2.32724e-17)
(1.00735 0.00343603 1.20733e-17)
(1.01103 0.00605478 1.96482e-16)
(1.01679 0.00924079 -3.90896e-17)
(1.02419 0.013551 -7.10855e-17)
(1.03422 0.0187415 -1.07363e-16)
(1.04578 0.0247812 3.08955e-16)
(1.06137 0.0316256 -1.98864e-16)
(1.07928 0.0366893 6.6354e-17)
(1.10203 0.0408145 2.39919e-16)
(1.12922 0.0370256 -1.38813e-16)
(1.15589 0.0218751 -1.98088e-17)
(1.00556 0.00146058 -3.17988e-17)
(1.00746 0.00341882 3.28167e-17)
(1.01112 0.00599906 6.69095e-17)
(1.01686 0.00912608 1.41232e-16)
(1.02424 0.0133438 2.50885e-16)
(1.03423 0.0184113 -1.82899e-16)
(1.04576 0.0242662 -1.17906e-16)
(1.06122 0.0308739 1.19211e-17)
(1.07899 0.0356648 -1.97197e-16)
(1.10136 0.0394113 -2.63802e-16)
(1.12799 0.0354373 3.20605e-16)
(1.15384 0.0203072 1.23427e-16)
(1.00566 0.00146823 5.1168e-17)
(1.00756 0.00339967 6.23225e-17)
(1.0112 0.00594018 -6.35595e-17)
(1.01693 0.00900735 -1.28033e-16)
(1.02429 0.0131322 3.27337e-17)
(1.03425 0.0180772 2.99448e-16)
(1.04574 0.0237501 -2.07583e-16)
(1.06106 0.0301246 -7.21404e-18)
(1.07869 0.0346513 2.52015e-16)
(1.10068 0.0380339 -2.29985e-16)
(1.12675 0.033887 -2.7389e-16)
(1.15182 0.0187936 -6.45886e-17)
(1.00577 0.00147504 6.32297e-18)
(1.00766 0.00337853 6.36456e-18)
(1.01129 0.00587813 -2.08954e-16)
(1.017 0.00888461 -1.68798e-16)
(1.02434 0.0129164 -2.80093e-16)
(1.03425 0.0177393 3.72978e-17)
(1.0457 0.0232327 5.95854e-17)
(1.0609 0.0293778 -3.98016e-17)
(1.07837 0.0336484 -2.07336e-16)
(1.1 0.0366818 4.33345e-16)
(1.12552 0.0323737 2.06043e-16)
(1.14982 0.0173324 -5.89607e-17)
(1.00588 0.00148093 -3.00329e-17)
(1.00776 0.00335532 -5.83638e-17)
(1.01138 0.00581284 2.78479e-16)
(1.01707 0.0087578 2.51245e-16)
(1.02438 0.0126962 -5.40831e-18)
(1.03426 0.0173976 5.18253e-17)
(1.04567 0.0227141 -7.82832e-17)
(1.06072 0.0286335 5.53272e-17)
(1.07804 0.0326559 2.20991e-16)
(1.09931 0.0353544 -1.07326e-16)
(1.12428 0.0308963 7.0586e-17)
(1.14785 0.0159215 1.10995e-16)
(1.00598 0.00148581 -1.87664e-18)
(1.00786 0.00333001 4.03547e-17)
(1.01146 0.0057443 -1.21868e-16)
(1.01714 0.00862689 -2.37293e-16)
(1.02442 0.0124717 1.417e-16)
(1.03426 0.0170519 -3.18464e-16)
(1.04562 0.0221941 9.15208e-17)
(1.06054 0.0278916 -1.30639e-16)
(1.0777 0.0316737 1.95754e-17)
(1.09861 0.0340512 1.10454e-16)
(1.12304 0.0294542 -8.77393e-17)
(1.1459 0.0145595 -2.50071e-16)
(1.00609 0.00148962 1.73457e-17)
(1.00796 0.00330254 -1.12005e-16)
(1.01154 0.00567247 1.2497e-16)
(1.0172 0.00849186 2.0795e-16)
(1.02446 0.0122428 -2.63612e-16)
(1.03425 0.0167024 -2.17999e-17)
(1.04558 0.0216728 1.52892e-16)
(1.06036 0.0271522 -1.77529e-16)
(1.07736 0.0307017 -2.04552e-16)
(1.09791 0.0327721 5.4277e-17)
(1.12181 0.0280469 -1.54004e-16)
(1.14398 0.0132447 2.22631e-16)
(1.00619 0.00149229 1.13908e-17)
(1.00806 0.00327291 5.90228e-17)
(1.01163 0.0055974 -5.79821e-17)
(1.01726 0.00835279 1.75086e-16)
(1.0245 0.0120096 1.28133e-16)
(1.03425 0.016349 1.05753e-16)
(1.04552 0.0211503 -1.72905e-16)
(1.06017 0.0264156 2.5379e-16)
(1.077 0.0297401 -2.13094e-18)
(1.0972 0.0315168 -4.31499e-16)
(1.12058 0.0266737 7.6675e-17)
(1.14209 0.0119759 -1.40367e-17)
(1.00629 0.00149377 -1.81593e-17)
(1.00815 0.00324106 6.09277e-17)
(1.01171 0.0055191 -2.01815e-16)
(1.01733 0.00820975 -1.46701e-16)
(1.02453 0.0117723 2.94609e-17)
(1.03423 0.0159921 1.11108e-16)
(1.04546 0.020627 1.80569e-16)
(1.05997 0.0256823 2.37404e-17)
(1.07663 0.0287891 1.78998e-17)
(1.09649 0.0302855 2.88192e-16)
(1.11935 0.0253344 8.17973e-17)
(1.14022 0.0107514 -1.24283e-16)
(1.00639 0.00149403 -1.43447e-17)
(1.00825 0.00320701 -1.69094e-17)
(1.01178 0.00543765 2.13855e-16)
(1.01738 0.00806291 3.36361e-18)
(1.02456 0.011531 1.79912e-16)
(1.03422 0.015632 -1.66291e-16)
(1.0454 0.0201032 -1.05941e-16)
(1.05977 0.0249525 -3.03314e-17)
(1.07626 0.0278491 3.489e-18)
(1.09577 0.0290778 1.75635e-16)
(1.11813 0.0240284 -2.55788e-16)
(1.13837 0.00956998 -1.44705e-16)
(1.00649 0.00149301 3.91268e-18)
(1.00834 0.00317073 -5.93416e-17)
(1.01186 0.00535309 -2.06737e-16)
(1.01744 0.00791239 3.64803e-17)
(1.02459 0.0112862 1.6759e-17)
(1.0342 0.0152689 2.14045e-18)
(1.04533 0.0195792 -5.59517e-17)
(1.05956 0.0242268 2.34613e-16)
(1.07588 0.0269201 2.45439e-16)
(1.09506 0.0278937 -1.54129e-16)
(1.11692 0.022755 3.89782e-16)
(1.13655 0.00842985 3.44312e-16)
(1.00659 0.00149072 2.58659e-17)
(1.00843 0.00313223 4.29865e-17)
(1.01193 0.00526546 3.60994e-16)
(1.01749 0.00775833 3.84399e-18)
(1.02462 0.0110379 -8.6258e-17)
(1.03418 0.0149033 6.28255e-18)
(1.04525 0.0190555 -1.6257e-16)
(1.05935 0.0235054 -1.22861e-16)
(1.0755 0.0260024 -2.31169e-16)
(1.09434 0.0267328 1.6257e-16)
(1.11571 0.0215132 -2.44015e-16)
(1.13476 0.00732943 -1.07894e-16)
(1.00668 0.00148713 -3.05563e-17)
(1.00852 0.00309149 -6.39278e-17)
(1.01201 0.0051748 -3.54208e-16)
(1.01755 0.0076008 -5.69548e-17)
(1.02465 0.0107864 -2.57573e-17)
(1.03415 0.0145352 8.72242e-17)
(1.04517 0.0185321 1.10344e-16)
(1.05913 0.0227885 5.34335e-17)
(1.0751 0.0250958 -2.31355e-16)
(1.09362 0.0255945 -6.08258e-17)
(1.11451 0.0203022 7.37819e-17)
(1.13299 0.00626678 7.45465e-17)
(1.00678 0.00148224 -1.61364e-17)
(1.0086 0.00304852 8.73759e-17)
(1.01208 0.00508112 2.45356e-16)
(1.0176 0.00743987 -2.62054e-16)
(1.02467 0.0105316 -2.41748e-17)
(1.03412 0.0141648 6.27468e-17)
(1.04509 0.0180092 3.21079e-18)
(1.05891 0.0220761 1.34926e-17)
(1.07471 0.0242 3.44501e-16)
(1.0929 0.0244781 -6.45093e-18)
(1.11332 0.0191209 -2.09374e-16)
(1.13125 0.00524045 -2.29526e-16)
(1.00687 0.00147605 2.60005e-17)
(1.00869 0.00300331 -3.43788e-17)
(1.01215 0.00498442 2.84581e-17)
(1.01764 0.00727552 4.08339e-16)
(1.02469 0.0102737 -2.50839e-17)
(1.03409 0.0137921 -9.3692e-17)
(1.045 0.0174865 3.09096e-16)
(1.05869 0.021368 -2.38253e-16)
(1.0743 0.0233148 -4.32495e-16)
(1.09217 0.023383 9.55054e-18)
(1.11213 0.0179682 2.80741e-16)
(1.12953 0.00424875 8.32925e-17)
(1.00696 0.00146861 -3.15709e-18)
(1.00877 0.0029559 4.89544e-17)
(1.01222 0.00488471 -5.94603e-17)
(1.01769 0.00710776 -2.24935e-16)
(1.02471 0.0100126 -1.3737e-16)
(1.03406 0.0134171 2.4857e-16)
(1.04491 0.0169642 -1.33173e-16)
(1.05846 0.0206642 8.76142e-17)
(1.07389 0.0224398 1.01912e-16)
(1.09145 0.0223085 -2.38627e-16)
(1.11095 0.0168434 -2.49554e-16)
(1.12783 0.00329051 1.32713e-16)
(1.00705 0.00145992 -3.35905e-18)
(1.00885 0.00290628 -1.16215e-17)
(1.01228 0.004782 -7.3614e-17)