/*--------------------------------*- C++ -*----------------------------------*\
  =========                 |
  \\      /  F ield         | OpenFOAM: The Open Source CFD Toolbox
   \\    /   O peration     | Website:  https://openfoam.org
    \\  /    A nd           | Version:  6.0
     \\/     M anipulation  |
\*---------------------------------------------------------------------------*/
FoamFile
{
    version     2.0;
    format      ascii;
    class       volScalarField;
    location    "1.86";
    object      p;
}
// * * * * * * * * * * * * * * * * * * * * * * * * * * * * * * * * * * * * * //

dimensions      [0 2 -2 0 0 0 0];

internalField   nonuniform List<scalar> 
13500
(
0.099027
0.099052
0.098574
0.098097
0.097284
0.096682
0.096218
0.09656
0.098248
0.10232
0.12371
0.16769
0.099027
0.099052
0.098574
0.098098
0.097284
0.096682
0.096218
0.096559
0.098244
0.10239
0.12303
0.16263
0.099027
0.099052
0.098575
0.098098
0.097284
0.096681
0.096216
0.096557
0.098236
0.10243
0.12215
0.15815
0.099028
0.099053
0.098576
0.098099
0.097284
0.096681
0.096214
0.096554
0.098221
0.10245
0.12117
0.15466
0.099029
0.099055
0.098577
0.0981
0.097284
0.09668
0.096211
0.096549
0.098202
0.10246
0.12013
0.15173
0.099031
0.099056
0.098578
0.098101
0.097284
0.09668
0.096208
0.096543
0.098177
0.10246
0.11905
0.14912
0.099032
0.099058
0.098579
0.098102
0.097284
0.096679
0.096204
0.096535
0.098148
0.10244
0.11796
0.14675
0.099035
0.099061
0.098581
0.098104
0.097285
0.096677
0.096199
0.096526
0.098113
0.10241
0.11688
0.14459
0.099037
0.099063
0.098583
0.098106
0.097285
0.096676
0.096194
0.096516
0.098074
0.10236
0.11583
0.14258
0.09904
0.099066
0.098586
0.098108
0.097285
0.096674
0.096188
0.096504
0.09803
0.10231
0.1148
0.14072
0.099043
0.099069
0.098588
0.09811
0.097286
0.096672
0.096182
0.096491
0.097982
0.10224
0.11381
0.13896
0.099047
0.099073
0.098591
0.098112
0.097286
0.09667
0.096175
0.096477
0.097928
0.10215
0.11286
0.13731
0.099051
0.099077
0.098595
0.098114
0.097287
0.096668
0.096167
0.096461
0.097869
0.10206
0.11195
0.13574
0.099055
0.099081
0.098598
0.098117
0.097287
0.096666
0.096159
0.096444
0.097805
0.10196
0.11109
0.13425
0.09906
0.099086
0.098602
0.09812
0.097288
0.096663
0.09615
0.096425
0.097736
0.10185
0.11025
0.13283
0.099065
0.09909
0.098606
0.098123
0.097289
0.09666
0.096141
0.096405
0.097662
0.10174
0.10946
0.13147
0.099071
0.099096
0.098611
0.098126
0.097289
0.096657
0.096131
0.096384
0.097584
0.10162
0.10869
0.13017
0.099076
0.099101
0.098615
0.09813
0.09729
0.096654
0.09612
0.096361
0.097501
0.1015
0.10796
0.12892
0.099083
0.099107
0.098621
0.098134
0.097291
0.09665
0.096109
0.096336
0.097413
0.10138
0.10725
0.12772
0.099089
0.099114
0.098626
0.098138
0.097292
0.096646
0.096097
0.09631
0.097322
0.10125
0.10656
0.12656
0.099096
0.099121
0.098632
0.098142
0.097293
0.096642
0.096085
0.096283
0.097226
0.10113
0.1059
0.12543
0.099104
0.099128
0.098638
0.098146
0.097294
0.096638
0.096072
0.096254
0.097126
0.101
0.10525
0.12435
0.099112
0.099135
0.098644
0.098151
0.097295
0.096634
0.096058
0.096224
0.097023
0.10088
0.10461
0.12329
0.09912
0.099143
0.098651
0.098156
0.097297
0.096629
0.096044
0.096192
0.096917
0.10075
0.10399
0.12227
0.099129
0.099151
0.098658
0.098161
0.097298
0.096625
0.09603
0.096159
0.096808
0.10063
0.10338
0.12127
0.099138
0.09916
0.098665
0.098166
0.097299
0.09662
0.096014
0.096125
0.096697
0.10051
0.10278
0.1203
0.099148
0.099169
0.098673
0.098172
0.097301
0.096614
0.095999
0.096089
0.096583
0.10039
0.1022
0.11935
0.099158
0.099179
0.098681
0.098177
0.097302
0.096609
0.095982
0.096052
0.096467
0.10027
0.10161
0.11843
0.099168
0.099189
0.098689
0.098183
0.097304
0.096604
0.095965
0.096014
0.096349
0.10015
0.10104
0.11753
0.099179
0.099199
0.098698
0.09819
0.097306
0.096598
0.095948
0.095974
0.09623
0.10003
0.10048
0.11665
0.09919
0.09921
0.098707
0.098196
0.097307
0.096592
0.09593
0.095934
0.096109
0.099914
0.099919
0.11578
0.099202
0.099221
0.098717
0.098203
0.097309
0.096586
0.095911
0.095892
0.095987
0.099795
0.099368
0.11494
0.099214
0.099232
0.098726
0.09821
0.097311
0.096579
0.095892
0.09585
0.095864
0.099676
0.098824
0.11411
0.099227
0.099244
0.098737
0.098218
0.097313
0.096573
0.095872
0.095807
0.09574
0.099556
0.098286
0.1133
0.09924
0.099257
0.098747
0.098225
0.097315
0.096566
0.095852
0.095762
0.095614
0.099436
0.097755
0.11251
0.099254
0.099269
0.098758
0.098233
0.097318
0.09656
0.095831
0.095717
0.095488
0.099315
0.097231
0.11173
0.099268
0.099283
0.098769
0.098241
0.09732
0.096553
0.095809
0.095672
0.095361
0.099192
0.096714
0.11097
0.099282
0.099297
0.098781
0.09825
0.097323
0.096546
0.095787
0.095625
0.095234
0.099068
0.096203
0.11022
0.099297
0.099311
0.098793
0.098259
0.097325
0.096538
0.095765
0.095578
0.095105
0.098943
0.0957
0.10949
0.099313
0.099325
0.098806
0.098268
0.097328
0.096531
0.095741
0.095531
0.094976
0.098815
0.095203
0.10877
0.099329
0.099341
0.098819
0.098277
0.097331
0.096524
0.095718
0.095483
0.094846
0.098687
0.094714
0.10806
0.099345
0.099356
0.098832
0.098287
0.097334
0.096516
0.095693
0.095435
0.094715
0.098556
0.094232
0.10737
0.099362
0.099372
0.098846
0.098297
0.097337
0.096508
0.095668
0.095386
0.094583
0.098424
0.093757
0.10669
0.09938
0.099389
0.09886
0.098307
0.09734
0.096501
0.095643
0.095336
0.094451
0.098289
0.09329
0.10602
0.099398
0.099406
0.098874
0.098317
0.097343
0.096493
0.095617
0.095287
0.094318
0.098153
0.09283
0.10536
0.099416
0.099423
0.098889
0.098328
0.097347
0.096485
0.09559
0.095237
0.094184
0.098015
0.092377
0.10472
0.099436
0.099441
0.098904
0.09834
0.09735
0.096477
0.095563
0.095187
0.094049
0.097875
0.091931
0.10409
0.099455
0.09946
0.09892
0.098351
0.097354
0.096469
0.095535
0.095136
0.093913
0.097733
0.091493
0.10346
0.099475
0.099479
0.098937
0.098363
0.097358
0.096461
0.095506
0.095086
0.093777
0.097589
0.091062
0.10285
0.099496
0.099499
0.098953
0.098375
0.097362
0.096452
0.095477
0.095035
0.093639
0.097443
0.090639
0.10225
0.099517
0.099519
0.09897
0.098388
0.097366
0.096444
0.095448
0.094983
0.093501
0.097296
0.090223
0.10166
0.099539
0.099539
0.098988
0.098401
0.09737
0.096436
0.095418
0.094932
0.093363
0.097146
0.089814
0.10108
0.099561
0.099561
0.099006
0.098414
0.097375
0.096427
0.095387
0.09488
0.093223
0.096995
0.089412
0.1005
0.099584
0.099582
0.099024
0.098428
0.097379
0.096419
0.095356
0.094829
0.093083
0.096842
0.089017
0.09994
0.099608
0.099604
0.099043
0.098442
0.097384
0.096411
0.095324
0.094777
0.092942
0.096688
0.088628
0.099386
0.099632
0.099627
0.099063
0.098456
0.097389
0.096402
0.095292
0.094725
0.0928
0.096532
0.088247
0.09884
0.099656
0.099651
0.099083
0.098471
0.097394
0.096394
0.095259
0.094672
0.092658
0.096374
0.087873
0.098302
0.099681
0.099674
0.099103
0.098486
0.0974
0.096385
0.095226
0.09462
0.092515
0.096215
0.087505
0.097773
0.099707
0.099699
0.099124
0.098502
0.097405
0.096377
0.095192
0.094567
0.092372
0.096054
0.087143
0.097251
0.099734
0.099724
0.099145
0.098518
0.097411
0.096369
0.095158
0.094515
0.092228
0.095892
0.086788
0.096737
0.09976
0.09975
0.099167
0.098534
0.097417
0.09636
0.095123
0.094462
0.092083
0.095729
0.08644
0.096231
0.099788
0.099776
0.09919
0.098551
0.097423
0.096352
0.095088
0.094409
0.091939
0.095564
0.086097
0.095732
0.099816
0.099803
0.099213
0.098568
0.097429
0.096344
0.095052
0.094356
0.091794
0.095398
0.085761
0.09524
0.099845
0.09983
0.099236
0.098585
0.097436
0.096335
0.095016
0.094302
0.091648
0.095231
0.08543
0.094755
0.099875
0.099858
0.09926
0.098603
0.097443
0.096327
0.094979
0.094249
0.091502
0.095062
0.085105
0.094276
0.099905
0.099887
0.099285
0.098622
0.09745
0.096319
0.094942
0.094195
0.091356
0.094892
0.084787
0.093804
0.099935
0.099916
0.09931
0.098641
0.097457
0.096311
0.094905
0.094141
0.09121
0.094722
0.084473
0.093339
0.099967
0.099946
0.099335
0.09866
0.097465
0.096303
0.094867
0.094088
0.091064
0.09455
0.084165
0.09288
0.099999
0.099976
0.099362
0.09868
0.097473
0.096295
0.094828
0.094034
0.090917
0.094377
0.083863
0.092427
0.10003
0.10001
0.099388
0.0987
0.097481
0.096287
0.094789
0.09398
0.090771
0.094203
0.083566
0.091979
0.10007
0.10004
0.099416
0.09872
0.097489
0.09628
0.09475
0.093925
0.090624
0.094028
0.083274
0.091538
0.1001
0.10007
0.099444
0.098741
0.097498
0.096272
0.094711
0.093871
0.090478
0.093852
0.082987
0.091102
0.10013
0.10011
0.099472
0.098763
0.097507
0.096265
0.094671
0.093816
0.090331
0.093675
0.082705
0.090672
0.10017
0.10014
0.099501
0.098785
0.097516
0.096257
0.094631
0.093762
0.090185
0.093497
0.082427
0.090247
0.10021
0.10017
0.099531
0.098807
0.097525
0.09625
0.09459
0.093707
0.090039
0.093318
0.082155
0.089828
0.10024
0.10021
0.099561
0.09883
0.097535
0.096243
0.094549
0.093652
0.089893
0.093139
0.081887
0.089413
0.10028
0.10024
0.099592
0.098854
0.097545
0.096236
0.094508
0.093597
0.089747
0.092959
0.081623
0.089004
0.10032
0.10028
0.099624
0.098878
0.097556
0.096229
0.094466
0.093541
0.089601
0.092778
0.081364
0.088599
0.10036
0.10032
0.099656
0.098902
0.097567
0.096223
0.094424
0.093486
0.089456
0.092596
0.081109
0.0882
0.1004
0.10036
0.099689
0.098927
0.097578
0.096216
0.094382
0.093431
0.089311
0.092414
0.080859
0.087805
0.10044
0.1004
0.099723
0.098952
0.097589
0.09621
0.094339
0.093375
0.089167
0.092231
0.080612
0.087414
0.10048
0.10044
0.099758
0.098978
0.097601
0.096204
0.094297
0.093319
0.089022
0.092048
0.08037
0.087028
0.10052
0.10048
0.099793
0.099005
0.097613
0.096199
0.094254
0.093263
0.088879
0.091863
0.080131
0.086646
0.10057
0.10052
0.099828
0.099032
0.097626
0.096193
0.09421
0.093207
0.088735
0.091679
0.079896
0.086269
0.10061
0.10056
0.099865
0.09906
0.097639
0.096188
0.094167
0.09315
0.088592
0.091493
0.079665
0.085896
0.10065
0.1006
0.099902
0.099088
0.097652
0.096183
0.094123
0.093094
0.08845
0.091307
0.079437
0.085526
0.1007
0.10065
0.09994
0.099117
0.097666
0.096179
0.094079
0.093037
0.088308
0.091121
0.079213
0.085161
0.10075
0.10069
0.099979
0.099146
0.09768
0.096174
0.094035
0.09298
0.088167
0.090934
0.078992
0.0848
0.10079
0.10074
0.10002
0.099176
0.097695
0.09617
0.093991
0.092923
0.088026
0.090747
0.078774
0.084442
0.10084
0.10078
0.10006
0.099207
0.09771
0.096167
0.093947
0.092865
0.087885
0.090559
0.07856
0.084088
0.10089
0.10083
0.1001
0.099238
0.097725
0.096164
0.093902
0.092808
0.087746
0.090371
0.078348
0.083737
0.10094
0.10088
0.10014
0.09927
0.097741
0.096161
0.093858
0.09275
0.087607
0.090183
0.07814
0.08339
0.10099
0.10093
0.10018
0.099303
0.097757
0.096158
0.093813
0.092692
0.087468
0.089994
0.077934
0.083047
0.10104
0.10098
0.10023
0.099336
0.097774
0.096156
0.093768
0.092634
0.08733
0.089804
0.077732
0.082706
0.1011
0.10103
0.10027
0.09937
0.097791
0.096154
0.093723
0.092575
0.087193
0.089615
0.077532
0.082369
0.10115
0.10108
0.10032
0.099405
0.097809
0.096153
0.093678
0.092517
0.087057
0.089425
0.077335
0.082035
0.1012
0.10113
0.10036
0.099441
0.097827
0.096152
0.093634
0.092458
0.086921
0.089234
0.07714
0.081704
0.10126
0.10118
0.10041
0.099477
0.097846
0.096152
0.093589
0.092398
0.086786
0.089044
0.076948
0.081376
0.10132
0.10124
0.10046
0.099514
0.097865
0.096152
0.093544
0.092339
0.086651
0.088853
0.076758
0.081051
0.10138
0.10129
0.10051
0.099552
0.097885
0.096152
0.093499
0.092279
0.086517
0.088662
0.07657
0.080728
0.10143
0.10135
0.10056
0.09959
0.097905
0.096153
0.093455
0.09222
0.086384
0.08847
0.076385
0.080408
0.10149
0.10141
0.10061
0.09963
0.097926
0.096155
0.09341
0.09216
0.086252
0.088279
0.076201
0.080091
0.10156
0.10147
0.10066
0.09967
0.097948
0.096157
0.093365
0.092099
0.08612
0.088087
0.07602
0.079776
0.10162
0.10153
0.10072
0.099711
0.09797
0.09616
0.093321
0.092039
0.085989
0.087895
0.075841
0.079464
0.10168
0.10159
0.10077
0.099754
0.097993
0.096163
0.093277
0.091978
0.085859
0.087702
0.075663
0.079154
0.10175
0.10165
0.10083
0.099797
0.098016
0.096167
0.093233
0.091917
0.08573
0.08751
0.075488
0.078846
0.10181
0.10171
0.10088
0.099841
0.09804
0.096171
0.093189
0.091855
0.085601
0.087317
0.075314
0.07854
0.10188
0.10178
0.10094
0.099886
0.098065
0.096176
0.093146
0.091794
0.085473
0.087124
0.075142
0.078237
0.10195
0.10185
0.101
0.099932
0.09809
0.096182
0.093102
0.091732
0.085346
0.08693
0.074971
0.077935
0.10202
0.10191
0.10106
0.099979
0.098117
0.096188
0.093059
0.09167
0.08522
0.086737
0.074801
0.077636
0.10209
0.10198
0.10112
0.10003
0.098144
0.096195
0.093017
0.091608
0.085094
0.086543
0.074633
0.077338
0.10216
0.10205
0.10118
0.10008
0.098172
0.096203
0.092974
0.091546
0.08497
0.086349
0.074467
0.077042
0.10224
0.10212
0.10125
0.10013
0.0982
0.096211
0.092932
0.091483
0.084846
0.086155
0.074301
0.076747
0.10231
0.1022
0.10131
0.10018
0.09823
0.096221
0.092891
0.09142
0.084722
0.085961
0.074137
0.076454
0.10239
0.10227
0.10138
0.10023
0.09826
0.096231
0.09285
0.091357
0.0846
0.085767
0.073974
0.076163
0.10247
0.10235
0.10145
0.10029
0.098292
0.096241
0.092809
0.091294
0.084478
0.085572
0.073811
0.075873
0.10255
0.10242
0.10152
0.10034
0.098324
0.096253
0.092769
0.09123
0.084357
0.085377
0.07365
0.075584
0.10263
0.1025
0.10159
0.1004
0.098358
0.096266
0.092729
0.091167
0.084237
0.085182
0.073489
0.075297
0.10271
0.10259
0.10166
0.10046
0.098392
0.096279
0.09269
0.091103
0.084118
0.084987
0.07333
0.07501
0.1028
0.10267
0.10174
0.10052
0.098428
0.096293
0.092652
0.091039
0.083999
0.084791
0.07317
0.074725
0.10289
0.10275
0.10181
0.10058
0.098465
0.096309
0.092614
0.090975
0.083881
0.084596
0.073012
0.074441
0.10297
0.10284
0.10189
0.10064
0.098503
0.096325
0.092577
0.090911
0.083764
0.0844
0.072854
0.074157
0.10307
0.10293
0.10197
0.10071
0.098542
0.096343
0.09254
0.090847
0.083648
0.084204
0.072696
0.073874
0.10316
0.10302
0.10205
0.10078
0.098583
0.096361
0.092505
0.090783
0.083532
0.084007
0.072539
0.073592
0.10325
0.10311
0.10214
0.10084
0.098625
0.096381
0.09247
0.090718
0.083417
0.083811
0.072382
0.07331
0.10335
0.10321
0.10222
0.10092
0.098668
0.096402
0.092436
0.090654
0.083303
0.083614
0.072225
0.073029
0.10345
0.1033
0.10231
0.10099
0.098713
0.096424
0.092403
0.09059
0.08319
0.083417
0.072068
0.072749
0.10355
0.1034
0.1024
0.10106
0.09876
0.096447
0.092371
0.090525
0.083078
0.083219
0.071912
0.072468
0.10366
0.1035
0.10249
0.10114
0.098808
0.096472
0.09234
0.090461
0.082966
0.083022
0.071755
0.072188
0.10376
0.10361
0.10259
0.10122
0.098858
0.096498
0.09231
0.090397
0.082855
0.082824
0.071598
0.071908
0.10387
0.10371
0.10268
0.1013
0.098909
0.096525
0.092282
0.090333
0.082745
0.082626
0.071441
0.071628
0.10398
0.10382
0.10278
0.10138
0.098963
0.096555
0.092254
0.090269
0.082636
0.082428
0.071284
0.071348
0.1041
0.10393
0.10289
0.10147
0.099018
0.096585
0.092228
0.090205
0.082527
0.082229
0.071126
0.071067
0.10421
0.10405
0.10299
0.10155
0.099076
0.096618
0.092203
0.090141
0.08242
0.08203
0.070968
0.070786
0.10433
0.10417
0.1031
0.10165
0.099136
0.096652
0.09218
0.090078
0.082313
0.081831
0.07081
0.070505
0.10446
0.10429
0.10321
0.10174
0.099198
0.096688
0.092158
0.090015
0.082207
0.081632
0.070651
0.070223
0.10458
0.10441
0.10332
0.10184
0.099262
0.096726
0.092137
0.089952
0.082102
0.081432
0.070491
0.069941
0.10471
0.10454
0.10344
0.10194
0.099329
0.096765
0.092118
0.08989
0.081997
0.081232
0.07033
0.069658
0.10484
0.10467
0.10356
0.10204
0.099398
0.096807
0.092101
0.089828
0.081893
0.081031
0.070169
0.069374
0.10498
0.1048
0.10368
0.10214
0.099471
0.096851
0.092086
0.089766
0.081791
0.08083
0.070007
0.069089
0.10512
0.10494
0.10381
0.10225
0.099546
0.096898
0.092073
0.089706
0.081689
0.080629
0.069844
0.068803
0.10526
0.10508
0.10394
0.10236
0.099623
0.096946
0.092061
0.089645
0.081588
0.080428
0.06968
0.068516
0.10541
0.10523
0.10407
0.10248
0.099704
0.096998
0.092052
0.089586
0.081488
0.080226
0.069514
0.068227
0.10556
0.10538
0.10421
0.1026
0.099789
0.097052
0.092045
0.089527
0.081388
0.080024
0.069348
0.067937
0.10572
0.10553
0.10435
0.10272
0.099876
0.097108
0.09204
0.089469
0.08129
0.079821
0.06918
0.067645
0.10588
0.10569
0.1045
0.10285
0.099967
0.097168
0.092038
0.089412
0.081193
0.079618
0.06901
0.067352
0.10604
0.10585
0.10465
0.10298
0.10006
0.09723
0.092038
0.089356
0.081096
0.079415
0.06884
0.067057
0.10621
0.10602
0.10481
0.10312
0.10016
0.097296
0.092041
0.089301
0.081001
0.079211
0.068667
0.06676
0.10638
0.10619
0.10497
0.10326
0.10026
0.097364
0.092047
0.089247
0.080907
0.079007
0.068493
0.06646
0.10656
0.10637
0.10513
0.10341
0.10037
0.097437
0.092056
0.089194
0.080813
0.078803
0.068317
0.066159
0.10675
0.10656
0.1053
0.10356
0.10048
0.097512
0.092067
0.089143
0.080721
0.078598
0.06814
0.065855
0.10694
0.10674
0.10548
0.10372
0.1006
0.097592
0.092082
0.089093
0.08063
0.078392
0.06796
0.065548
0.10713
0.10694
0.10566
0.10388
0.10072
0.097675
0.0921
0.089044
0.080539
0.078186
0.067779
0.065239
0.10733
0.10714
0.10585
0.10404
0.10084
0.097763
0.092122
0.088998
0.08045
0.07798
0.067595
0.064927
0.10754
0.10735
0.10604
0.10422
0.10097
0.097854
0.092147
0.088952
0.080363
0.077773
0.067409
0.064612
0.10775
0.10756
0.10624
0.1044
0.10111
0.09795
0.092176
0.088909
0.080276
0.077566
0.06722
0.064293
0.10797
0.10778
0.10645
0.10458
0.10125
0.098051
0.092209
0.088867
0.08019
0.077358
0.06703
0.063972
0.1082
0.10801
0.10666
0.10477
0.1014
0.098156
0.092245
0.088828
0.080106
0.077149
0.066836
0.063646
0.10844
0.10824
0.10688
0.10497
0.10155
0.098267
0.092287
0.08879
0.080023
0.07694
0.06664
0.063317
0.10868
0.10848
0.10711
0.10518
0.10171
0.098382
0.092332
0.088755
0.079942
0.076731
0.066441
0.062984
0.10892
0.10873
0.10735
0.10539
0.10188
0.098503
0.092382
0.088722
0.079861
0.076521
0.066239
0.062647
0.10918
0.10899
0.10759
0.10561
0.10205
0.09863
0.092437
0.088692
0.079782
0.07631
0.066034
0.062305
0.10944
0.10926
0.10784
0.10584
0.10223
0.098762
0.092497
0.088664
0.079705
0.076098
0.065826
0.061959
0.10972
0.10953
0.1081
0.10608
0.10242
0.098901
0.092562
0.088639
0.079628
0.075886
0.065615
0.061608
0.11
0.10981
0.10837
0.10632
0.10262
0.099045
0.092632
0.088616
0.079553
0.075672
0.0654
0.061252
0.11029
0.11011
0.10865
0.10658
0.10282
0.099197
0.092707
0.088597
0.07948
0.075458
0.065181
0.060891
0.11059
0.11041
0.10893
0.10684
0.10303
0.099354
0.092789
0.08858
0.079407
0.075243
0.064958
0.060524
0.11089
0.11072
0.10923
0.10711
0.10325
0.099519
0.092876
0.088567
0.079337
0.075027
0.064731
0.060152
0.11121
0.11104
0.10954
0.10739
0.10348
0.099691
0.092969
0.088557
0.079267
0.07481
0.0645
0.059773
0.11154
0.11137
0.10985
0.10769
0.10372
0.09987
0.093068
0.088549
0.079199
0.074591
0.064265
0.059388
0.11188
0.11172
0.11018
0.10799
0.10397
0.10006
0.093173
0.088546
0.079132
0.074371
0.064024
0.058996
0.11223
0.11207
0.11052
0.1083
0.10423
0.10025
0.093285
0.088546
0.079066
0.07415
0.063779
0.058598
0.11259
0.11244
0.11087
0.10863
0.1045
0.10046
0.093403
0.088549
0.079002
0.073927
0.063528
0.058192
0.11296
0.11281
0.11123
0.10896
0.10477
0.10067
0.093529
0.088556
0.078939
0.073702
0.063272
0.057778
0.11334
0.1132
0.11161
0.10931
0.10506
0.10089
0.093661
0.088566
0.078876
0.073475
0.063011
0.057356
0.11374
0.11361
0.11199
0.10967
0.10536
0.10112
0.0938
0.08858
0.078815
0.073247
0.062743
0.056925
0.11415
0.11402
0.11239
0.11004
0.10567
0.10135
0.093947
0.088598
0.078754
0.073015
0.062468
0.056486
0.11457
0.11445
0.11281
0.11042
0.106
0.1016
0.094101
0.088619
0.078694
0.072781
0.062187
0.056037
0.115
0.11489
0.11323
0.11082
0.10633
0.10186
0.094263
0.088644
0.078635
0.072544
0.061899
0.055578
0.11545
0.11535
0.11368
0.11123
0.10668
0.10212
0.094432
0.088673
0.078576
0.072304
0.061602
0.055109
0.11591
0.11582
0.11413
0.11165
0.10704
0.1024
0.094609
0.088705
0.078517
0.072061
0.061298
0.054628
0.11638
0.1163
0.1146
0.11209
0.10742
0.10269
0.094794
0.088741
0.078458
0.071813
0.060986
0.054137
0.11687
0.1168
0.11509
0.11255
0.1078
0.10298
0.094987
0.08878
0.078399
0.071562
0.060664
0.053633
0.11738
0.11732
0.11559
0.11302
0.1082
0.10329
0.095188
0.088823
0.078339
0.071305
0.060332
0.053117
0.1179
0.11786
0.11611
0.1135
0.10862
0.10361
0.095397
0.088869
0.078278
0.071044
0.059991
0.052587
0.11843
0.11841
0.11665
0.114
0.10905
0.10394
0.095614
0.088919
0.078217
0.070777
0.059639
0.052043
0.11899
0.11897
0.1172
0.11452
0.1095
0.10428
0.095841
0.088971
0.078153
0.070504
0.059275
0.051484
0.11956
0.11956
0.11778
0.11506
0.10996
0.10464
0.096075
0.089027
0.078088
0.070225
0.058899
0.05091
0.12015
0.12017
0.11837
0.11561
0.11044
0.105
0.096318
0.089086
0.078021
0.069938
0.058511
0.05032
0.12076
0.12079
0.11898
0.11618
0.11093
0.10538
0.09657
0.089147
0.077951
0.069644
0.058108
0.049712
0.12139
0.12144
0.11962
0.11678
0.11145
0.10578
0.096831
0.089211
0.077877
0.069341
0.057692
0.049086
0.12204
0.12211
0.12027
0.11739
0.11198
0.10618
0.097101
0.089277
0.077801
0.069029
0.05726
0.048441
0.12271
0.1228
0.12095
0.11802
0.11253
0.1066
0.097381
0.089345
0.07772
0.068708
0.056812
0.047776
0.1234
0.12351
0.12166
0.11868
0.1131
0.10704
0.097669
0.089416
0.077635
0.068376
0.056347
0.04709
0.12412
0.12425
0.12238
0.11936
0.1137
0.10749
0.097968
0.089488
0.077544
0.068032
0.055864
0.046382
0.12486
0.12501
0.12314
0.12007
0.11431
0.10795
0.098276
0.089563
0.077449
0.067677
0.055362
0.04565
0.12563
0.12581
0.12392
0.1208
0.11495
0.10843
0.098595
0.089638
0.077347
0.067308
0.054839
0.044894
0.12642
0.12663
0.12474
0.12156
0.11562
0.10893
0.098924
0.089716
0.077238
0.066926
0.054296
0.044112
0.12725
0.12748
0.12559
0.12235
0.11631
0.10945
0.099264
0.089795
0.077122
0.066529
0.05373
0.043303
0.12811
0.12837
0.12647
0.12318
0.11703
0.10999
0.099616
0.089875
0.076998
0.066116
0.05314
0.042465
0.129
0.12929
0.12739
0.12403
0.11777
0.11055
0.09998
0.089956
0.076866
0.065687
0.052525
0.041598
0.12992
0.13025
0.12834
0.12493
0.11855
0.11113
0.10036
0.090038
0.076724
0.065239
0.051884
0.040698
0.13089
0.13126
0.12934
0.12586
0.11937
0.11174
0.10075
0.090121
0.076572
0.064772
0.051215
0.039765
0.1319
0.1323
0.13039
0.12684
0.12022
0.11237
0.10115
0.090205
0.076409
0.064285
0.050516
0.038797
0.13295
0.1334
0.13148
0.12786
0.12111
0.11303
0.10157
0.090289
0.076235
0.063776
0.049786
0.037792
0.13405
0.13454
0.13263
0.12893
0.12204
0.11371
0.102
0.090373
0.076047
0.063244
0.049022
0.036748
0.1352
0.13574
0.13383
0.13005
0.12301
0.11443
0.10245
0.090458
0.075845
0.062686
0.048224
0.035662
0.13641
0.137
0.1351
0.13123
0.12404
0.11518
0.10291
0.090541
0.075627
0.062101
0.047388
0.034533
0.13767
0.13832
0.13642
0.13247
0.12511
0.11597
0.1034
0.090623
0.075391
0.061486
0.046512
0.033357
0.139
0.13971
0.13782
0.13377
0.12624
0.11679
0.10389
0.090702
0.075136
0.060839
0.045593
0.032132
0.14039
0.14117
0.1393
0.13515
0.12742
0.11765
0.10441
0.090778
0.074858
0.060156
0.044627
0.030856
0.14185
0.14271
0.14085
0.1366
0.12867
0.11855
0.10494
0.090847
0.074555
0.059435
0.043612
0.029523
0.14339
0.14433
0.14249
0.13813
0.12998
0.11949
0.10549
0.090909
0.074224
0.05867
0.042542
0.028131
0.145
0.14604
0.14422
0.13975
0.13136
0.12048
0.10605
0.090959
0.073858
0.057858
0.041414
0.026676
0.1467
0.14784
0.14605
0.14145
0.13281
0.12151
0.10662
0.090995
0.073455
0.056992
0.04022
0.025152
0.14849
0.14975
0.14798
0.14326
0.13433
0.12258
0.10721
0.091012
0.073007
0.056066
0.038957
0.023555
0.15037
0.15175
0.15002
0.14516
0.13593
0.1237
0.1078
0.091004
0.072508
0.055073
0.037615
0.021877
0.15235
0.15387
0.15217
0.14717
0.13761
0.12487
0.1084
0.090965
0.071949
0.054004
0.036188
0.020112
0.15442
0.15611
0.15445
0.1493
0.13937
0.12607
0.10899
0.090887
0.071322
0.052851
0.034666
0.018253
0.1566
0.15848
0.15686
0.15154
0.14122
0.12732
0.10957
0.090761
0.070616
0.051602
0.033039
0.016291
0.15889
0.16097
0.15941
0.15391
0.14316
0.1286
0.11014
0.090577
0.06982
0.050247
0.031298
0.014215
0.1613
0.1636
0.16211
0.15641
0.14518
0.12991
0.11068
0.090323
0.068919
0.048772
0.029429
0.012016
0.16383
0.16639
0.16497
0.15905
0.14729
0.13125
0.11118
0.089984
0.0679
0.047163
0.02742
0.0096822
0.16648
0.16933
0.168
0.16184
0.14949
0.13261
0.11164
0.089544
0.066746
0.045406
0.025258
0.0072016
0.16927
0.17245
0.17121
0.16478
0.15178
0.13398
0.11202
0.088986
0.065438
0.043484
0.022929
0.0045618
0.17221
0.17576
0.17463
0.16789
0.15417
0.13534
0.11232
0.088285
0.063955
0.041378
0.020416
0.0017496
0.1753
0.17927
0.17827
0.17119
0.15664
0.13669
0.11252
0.087417
0.062273
0.039068
0.017702
-0.0012481
0.17855
0.18301
0.18217
0.17468
0.1592
0.138
0.11257
0.08635
0.060363
0.036531
0.014771
-0.0044451
0.182
0.18702
0.18634
0.17838
0.16184
0.13925
0.11245
0.085047
0.058191
0.033739
0.0116
-0.0078552
0.18564
0.19131
0.19083
0.1823
0.16455
0.14041
0.11212
0.08346
0.055717
0.03066
0.0081666
-0.011493
0.18949
0.19592
0.19567
0.18646
0.16731
0.14142
0.11151
0.081534
0.052891
0.027255
0.0044428
-0.015375
0.19357
0.20089
0.20089
0.19086
0.17009
0.14223
0.11056
0.0792
0.049656
0.023479
0.00039648
-0.019518
0.19788
0.20625
0.20652
0.19551
0.17283
0.14276
0.10917
0.076377
0.045943
0.019279
-0.0040093
-0.023943
0.20243
0.21204
0.2126
0.20036
0.17547
0.14291
0.10725
0.072968
0.041676
0.014597
-0.0088153
-0.028669
0.2072
0.21828
0.21913
0.20539
0.17789
0.14254
0.10465
0.068864
0.036768
0.00937
-0.014063
-0.033716
0.21217
0.225
0.2261
0.21049
0.17994
0.14148
0.10122
0.063943
0.031133
0.0035385
-0.019789
-0.039098
0.21729
0.23218
0.23345
0.21552
0.18141
0.13952
0.096792
0.058077
0.024686
-0.0029467
-0.026017
-0.044818
0.22251
0.23979
0.24105
0.22024
0.182
0.13638
0.091154
0.051134
0.017357
-0.010114
-0.032747
-0.050855
0.22777
0.24773
0.24868
0.22428
0.18133
0.13175
0.08409
0.042994
0.0090964
-0.017962
-0.039945
-0.05716
0.233
0.25582
0.2559
0.22711
0.17889
0.12525
0.075379
0.033557
-0.00010991
-0.026451
-0.047538
-0.063648
0.23815
0.2637
0.262
0.22789
0.174
0.11646
0.064816
0.022767
-0.010229
-0.035494
-0.055409
-0.070196
0.24325
0.27071
0.26575
0.22539
0.1658
0.10493
0.052252
0.010644
-0.021161
-0.044958
-0.063409
-0.076662
0.24841
0.27573
0.26522
0.21786
0.15321
0.090222
0.037643
-0.0026789
-0.032719
-0.054655
-0.071359
-0.082895
0.25394
0.27696
0.2575
0.20293
0.13498
0.071965
0.021098
-0.016924
-0.04461
-0.064342
-0.07907
-0.08876
0.26043
0.27187
0.23871
0.17767
0.10975
0.049896
0.002859
-0.031701
-0.056467
-0.07374
-0.086354
-0.094155
0.26868
0.2576
0.20472
0.13915
0.076307
0.02387
-0.016782
-0.046617
-0.067935
-0.082591
-0.093063
-0.099031
0.27896
0.23081
0.15258
0.085734
0.034073
-0.0061139
-0.03762
-0.061431
-0.0788
-0.090752
-0.099137
-0.10342
0.29135
0.1852
0.078586
0.016508
-0.017377
-0.040471
-0.060006
-0.07642
-0.089293
-0.098433
-0.10479
-0.10757
0.31582
0.12179
-0.017029
-0.067036
-0.077605
-0.080041
-0.085232
-0.092862
-0.10055
-0.1066
-0.11086
-0.11227
0.36406
0.058336
-0.11829
-0.15287
-0.13882
-0.12089
-0.11187
-0.11052
-0.11278
-0.11557
-0.11767
-0.11768
0.1041
0.064894
0.054823
0.048791
0.044575
0.041318
0.038634
0.036162
0.034009
0.031564
0.029786
0.026317
0.12365
0.080381
0.067867
0.05985
0.054318
0.05011
0.046687
0.043564
0.040887
0.037834
0.035709
0.031538
0.11085
0.075096
0.063767
0.05588
0.05043
0.046312
0.042996
0.039988
0.037457
0.034532
0.032616
0.028529
0.10575
0.074712
0.063705
0.055726
0.050143
0.045916
0.042525
0.039454
0.036901
0.033922
0.03204
0.027762
0.10512
0.076885
0.065714
0.057514
0.051686
0.047249
0.043691
0.040468
0.037806
0.034682
0.032741
0.02821
0.10449
0.078704
0.067456
0.059117
0.053089
0.048471
0.044764
0.041404
0.038641
0.035391
0.033387
0.028664
0.10338
0.079987
0.068807
0.060413
0.054236
0.049469
0.045635
0.04216
0.039312
0.035961
0.033901
0.029052
0.10222
0.081041
0.07002
0.06162
0.055327
0.050428
0.04648
0.0429
0.039972
0.036539
0.034423
0.029507
0.10112
0.081954
0.07116
0.062799
0.05642
0.051405
0.047349
0.043672
0.040669
0.03717
0.035003
0.030076
0.10008
0.082717
0.072214
0.063935
0.057505
0.052393
0.048241
0.044478
0.041405
0.037858
0.035646
0.030765
0.099066
0.083329
0.07317
0.065017
0.05857
0.053385
0.049151
0.045314
0.04218
0.038604
0.036356
0.031575
0.098087
0.083803
0.074026
0.066034
0.059608
0.054373
0.050075
0.046178
0.042994
0.039407
0.037134
0.032502
0.097141
0.084156
0.074783
0.066981
0.060608
0.055352
0.051007
0.047067
0.043844
0.040265
0.037978
0.033537
0.096229
0.084404
0.075443
0.067855
0.061563
0.05631
0.051938
0.047972
0.044723
0.04117
0.038879
0.034665
0.095353
0.08456
0.076012
0.068652
0.062466
0.05724
0.052861
0.048885
0.045622
0.042112
0.039827
0.035865
0.094513
0.08464
0.076496
0.069373
0.063312
0.058134
0.053765
0.049796
0.046532
0.04308
0.040808
0.037117
0.09371
0.084656
0.076903
0.070022
0.0641
0.058987
0.054645
0.050698
0.047443
0.044062
0.04181
0.038398
0.092943
0.08462
0.077239
0.0706
0.064828
0.059796
0.055494
0.051582
0.048347
0.045048
0.042819
0.039686
0.092212
0.08454
0.077513
0.071114
0.065498
0.060557
0.056307
0.052443
0.049236
0.046025
0.043823
0.040962
0.091517
0.084426
0.077732
0.071568
0.066111
0.061271
0.057083
0.053276
0.050103
0.046986
0.044811
0.042208
0.090855
0.084284
0.077903
0.071966
0.06667
0.061938
0.057818
0.054076
0.050942
0.047923
0.045775
0.043413
0.090224
0.08412
0.078032
0.072314
0.067179
0.062558
0.058513
0.054841
0.051751
0.048829
0.046708
0.044564
0.089624
0.083938
0.078124
0.072617
0.06764
0.063134
0.059166
0.05557
0.052526
0.0497
0.047605
0.045655
0.089051
0.083743
0.078184
0.072879
0.068056
0.063666
0.05978
0.056261
0.053265
0.050533
0.048461
0.046682
0.088505
0.083537
0.078216
0.073104
0.068432
0.064158
0.060354
0.056915
0.053968
0.051325
0.049275
0.047641
0.087983
0.083323
0.078225
0.073296
0.068771
0.064612
0.060891
0.057531
0.054634
0.052076
0.050046
0.048533
0.087484
0.083103
0.078212
0.073458
0.069074
0.065029
0.061391
0.058111
0.055263
0.052784
0.050773
0.049359
0.087006
0.082879
0.078182
0.073594
0.069346
0.065412
0.061857
0.058655
0.055856
0.053451
0.051457
0.050121
0.086548
0.082652
0.078136
0.073705
0.069589
0.065763
0.06229
0.059165
0.056414
0.054077
0.052099
0.050823
0.086107
0.082423
0.078076
0.073795
0.069805
0.066085
0.062691
0.059641
0.056938
0.054662
0.0527
0.051468
0.085684
0.082192
0.078005
0.073865
0.069996
0.066378
0.063063
0.060086
0.05743
0.05521
0.053261
0.05206
0.085276
0.081962
0.077923
0.073918
0.070164
0.066645
0.063407
0.060499
0.057889
0.05572
0.053786
0.052603
0.084882
0.081732
0.077832
0.073955
0.070311
0.066888
0.063724
0.060884
0.058318
0.056195
0.054274
0.053101
0.084502
0.081502
0.077734
0.073977