/*--------------------------------*- C++ -*----------------------------------*\
  =========                 |
  \\      /  F ield         | OpenFOAM: The Open Source CFD Toolbox
   \\    /   O peration     | Website:  https://openfoam.org
    \\  /    A nd           | Version:  6.0
     \\/     M anipulation  |
\*---------------------------------------------------------------------------*/
FoamFile
{
    version     2.0;
    format      ascii;
    class       volScalarField;
    location    "4";
    object      p;
}
// * * * * * * * * * * * * * * * * * * * * * * * * * * * * * * * * * * * * * //

dimensions      [0 2 -2 0 0 0 0];

internalField   nonuniform List<scalar> 
62000
(
0.0157965
0.016684
0.0175533
0.0183809
0.019163
0.0198881
0.0205633
0.0211836
0.0217575
0.0222779
0.0227535
0.0231748
0.0235516
0.0238715
0.0241463
0.0243616
0.0245301
0.024636
0.0246919
0.0246816
0.0246158
0.0244781
0.0242767
0.0239944
0.0236356
0.023182
0.0226336
0.0219706
0.0211875
0.0202636
0.0191893
0.0179437
0.0165115
0.0148662
0.0129865
0.0108608
0.0084849
0.00585806
0.00298781
-0.000106225
-0.00338901
-0.00680893
-0.0102973
-0.0137695
-0.0171291
-0.0202718
-0.023093
-0.0254986
-0.0273995
-0.0287452
-0.0294773
-0.0295941
-0.0290768
-0.0279524
-0.026213
-0.0238521
-0.0206882
-0.0170587
-0.0136526
-0.0228954
0.0125324
0.0133771
0.0142336
0.0150944
0.0159379
0.0167359
0.017488
0.018188
0.0188433
0.0194486
0.0200117
0.0205243
0.0209947
0.0214118
0.021785
0.0221015
0.0223711
0.0225808
0.0227398
0.0228349
0.0228735
0.0228423
0.0227457
0.02257
0.0223154
0.0219672
0.0215204
0.0209594
0.0202729
0.0194438
0.0184562
0.0172917
0.0159281
0.0143365
0.0124904
0.0103722
0.00796962
0.00527311
0.00227993
-0.00100143
-0.00454776
-0.00831909
-0.012257
-0.0162846
-0.020309
-0.0242234
-0.0279137
-0.0312677
-0.0341672
-0.0365258
-0.0382315
-0.0392251
-0.0394064
-0.0387148
-0.037009
-0.0341142
-0.0295664
-0.0236399
-0.0163939
-0.016335
0.00811439
0.00873093
0.00939063
0.0101094
0.0108524
0.0115786
0.01228
0.0129471
0.0135859
0.0141901
0.0147674
0.0153088
0.0158218
0.0162939
0.0167332
0.0171254
0.0174788
0.0177787
0.0180331
0.0182278
0.018369
0.0184435
0.0184543
0.0183885
0.0182455
0.0180114
0.0176809
0.0172395
0.0166755
0.0159735
0.0151171
0.0140893
0.012867
0.011421
0.00972424
0.00775743
0.00550556
0.00295509
9.83612e-05
-0.0030622
-0.00651055
-0.0102146
-0.014124
-0.0181689
-0.0222621
-0.0262989
-0.0301625
-0.0337332
-0.0368768
-0.0394869
-0.0414179
-0.0425784
-0.0428175
-0.0420297
-0.0400134
-0.0365357
-0.0310957
-0.0240457
-0.0159077
-0.013677
0.00397887
0.0043852
0.00485939
0.00542678
0.00604348
0.0066613
0.00726798
0.00785162
0.00841732
0.00895916
0.00948494
0.00998667
0.0104719
0.0109291
0.0113656
0.0117674
0.0121417
0.0124739
0.0127701
0.013016
0.0132163
0.0133572
0.0134409
0.013454
0.0133954
0.0132515
0.0130168
0.0126775
0.0122227
0.0116378
0.0109073
0.0100157
0.00894077
0.00765411
0.00613009
0.00434958
0.00229709
-4.24134e-05
-0.00267911
-0.00561419
-0.00883642
-0.0123197
-0.0160202
-0.0198753
-0.0238037
-0.0277054
-0.0314656
-0.0349624
-0.0380547
-0.0406257
-0.0425113
-0.0436027
-0.0437243
-0.0427531
-0.040469
-0.0366382
-0.0308138
-0.0234339
-0.0150792
-0.0110168
7.60622e-05
0.000338208
0.000682484
0.0011374
0.0016544
0.00218216
0.00270567
0.00321174
0.0037047
0.00417873
0.00464207
0.0050875
0.00552352
0.00593916
0.0063428
0.00672075
0.00708076
0.0074082
0.00770934
0.00796964
0.00819345
0.00836678
0.00849125
0.00855334
0.00855155
0.00847225
0.00831001
0.00805131
0.0076857
0.00719953
0.00657831
0.00580765
0.00486631
0.00372805
0.002368
0.00076871
-0.00108481
-0.00320795
-0.00561199
-0.00830031
-0.0112651
-0.0144846
-0.0179209
-0.0215172
-0.0251989
-0.0288716
-0.0324241
-0.0357367
-0.0386653
-0.0410904
-0.0428359
-0.0437888
-0.0437557
-0.0426111
-0.0401375
-0.0361166
-0.0301576
-0.0227038
-0.0141398
-0.00855345
-0.00364993
-0.00348638
-0.00323318
-0.00286019
-0.00241818
-0.00196026
-0.00150273
-0.00105949
-0.000627006
-0.000210956
0.000196594
0.000589288
0.00097562
0.00134608
0.001709
0.00205223
0.00238354
0.00268971
0.00297689
0.00323154
0.00345782
0.0036423
0.00378632
0.00387669
0.00391167
0.00387785
0.00376983
0.00357444
0.00328167
0.00287842
0.00235119
0.00168634
0.00086444
-0.000140301
-0.00135014
-0.00278152
-0.00444833
-0.00636556
-0.00854484
-0.0109909
-0.0136982
-0.0166486
-0.0198088
-0.0231276
-0.0265364
-0.0299467
-0.0332524
-0.0363371
-0.0390575
-0.0412939
-0.042865
-0.0436565
-0.0434664
-0.0421716
-0.0395605
-0.0354275
-0.0294215
-0.0219264
-0.0131124
-0.00623476
-0.00732513
-0.00722922
-0.00703954
-0.00672439
-0.00633618
-0.00592869
-0.00551933
-0.00512228
-0.00473451
-0.00436171
-0.00399604
-0.00364361
-0.00329568
-0.0029614
-0.00263191
-0.0023188
-0.00201378
-0.00172941
-0.00145904
-0.00121552
-0.000994216
-0.000807887
-0.000654877
-0.000547766
-0.000488089
-0.000488755
-0.000554894
-0.000699226
-0.000931346
-0.00126367
-0.00170903
-0.00227996
-0.00299548
-0.00387888
-0.00495208
-0.00622942
-0.00772382
-0.00944962
-0.0114184
-0.0136355
-0.0160974
-0.0187887
-0.0216797
-0.0247243
-0.0278595
-0.0310027
-0.0340527
-0.0368982
-0.0393973
-0.0414335
-0.042821
-0.0434501
-0.0431083
-0.041677
-0.0389535
-0.0347412
-0.0287098
-0.0211587
-0.0120654
-0.00406331
-0.0109414
-0.0108956
-0.0107531
-0.010481
-0.0101329
-0.00976335
-0.00939026
-0.00902789
-0.00867382
-0.00833341
-0.00799946
-0.00767745
-0.0073592
-0.00705281
-0.00675
-0.00646114
-0.00617824
-0.00591253
-0.00565755
-0.0054249
-0.0052099
-0.0050243
-0.00486623
-0.0047474
-0.00466905
-0.00464336
-0.00467505
-0.00477622
-0.00495587
-0.00522586
-0.00559818
-0.0060848
-0.00670302
-0.0074762
-0.0084237
-0.00955918
-0.0108943
-0.0124427
-0.0142155
-0.0162187
-0.0184498
-0.0208957
-0.0235301
-0.0263112
-0.0291809
-0.0320622
-0.0348594
-0.0374658
-0.0397426
-0.0415762
-0.0427801
-0.0432474
-0.0427602
-0.0412033
-0.0383791
-0.0340936
-0.0280265
-0.0203806
-0.0109796
-0.00199425
-0.0145776
-0.0145656
-0.0144549
-0.0142118
-0.0138909
-0.0135471
-0.0131987
-0.0128603
-0.0125293
-0.0122113
-0.0118988
-0.0115974
-0.0112987
-0.0110109
-0.0107251
-0.010452
-0.010183
-0.00992916
-0.00968359
-0.00945747
-0.0092456
-0.00905905
-0.00889549
-0.00876578
-0.00867068
-0.00862157
-0.00862258
-0.00868508
-0.00881748
-0.00903084
-0.00933646
-0.00974527
-0.0102744
-0.0109447
-0.0117757
-0.0127792
-0.0139661
-0.0153491
-0.0169392
-0.0187424
-0.0207574
-0.0229728
-0.0253651
-0.0278963
-0.0305129
-0.0331432
-0.0356961
-0.0380704
-0.0401299
-0.0417661
-0.0427898
-0.0431016
-0.0424727
-0.0407927
-0.0378693
-0.033509
-0.0273912
-0.019627
-0.00991319
-4.40445e-05
-0.0181833
-0.0181972
-0.0181109
-0.0178897
-0.0175894
-0.017265
-0.0169356
-0.0166154
-0.0163023
-0.0160012
-0.0157054
-0.0154197
-0.0151361
-0.014862
-0.0145893
-0.0143275
-0.0140685
-0.0138223
-0.0135825
-0.0133593
-0.0131475
-0.0129574
-0.0127865
-0.0126448
-0.0125326
-0.0124607
-0.0124324
-0.0124585
-0.0125465
-0.0127069
-0.0129501
-0.0132863
-0.013731
-0.0143054
-0.0150266
-0.0159061
-0.0169537
-0.0181814
-0.0195996
-0.0212145
-0.0230256
-0.025023
-0.0271855
-0.0294785
-0.0318527
-0.034241
-0.0365574
-0.0387053
-0.0405519
-0.0419928
-0.042839
-0.0429953
-0.0422267
-0.0404256
-0.0374014
-0.0329573
-0.0267687
-0.0188587
-0.00882803
0.00183664
-0.0218474
-0.0218777
-0.0218063
-0.0215976
-0.0213086
-0.0209946
-0.0206753
-0.0203648
-0.0200612
-0.0197692
-0.019482
-0.0192042
-0.0189279
-0.0186603
-0.018393
-0.0181355
-0.0178796
-0.017635
-0.0173952
-0.01717
-0.0169539
-0.0167566
-0.0165754
-0.0164196
-0.016289
-0.0161934
-0.0161359
-0.0161262
-0.0161714
-0.0162809
-0.0164643
-0.016731
-0.0170961
-0.0175786
-0.0181957
-0.0189574
-0.0198728
-0.0209532
-0.0222087
-0.0236455
-0.0252636
-0.0270544
-0.0289989
-0.0310653
-0.0332081
-0.0353647
-0.0374533
-0.0393826
-0.0410222
-0.0422732
-0.0429447
-0.0429495
-0.0420411
-0.040116
-0.0369868
-0.0324528
-0.0261806
-0.0181161
-0.00778503
0.00361764
-0.0255202
-0.0255629
-0.0255021
-0.0253018
-0.0250198
-0.0247121
-0.0243988
-0.0240936
-0.0237953
-0.0235079
-0.0232252
-0.0229513
-0.0226786
-0.0224135
-0.0221484
-0.0218917
-0.0216358
-0.0213894
-0.0211465
-0.0209158
-0.0206923
-0.0204848
-0.0202906
-0.0201182
-0.0199672
-0.0198466
-0.0197591
-0.0197134
-0.019716
-0.0197756
-0.019901
-0.0201008
-0.0203884
-0.0207832
-0.0213002
-0.021949
-0.0227379
-0.0236777
-0.0247778
-0.0260443
-0.0274778
-0.0290707
-0.0308057
-0.032654
-0.0345731
-0.0365046
-0.0383711
-0.0400855
-0.0415208
-0.0425825
-0.04308
-0.0429306
-0.0418818
-0.0398315
-0.0365931
-0.0319598
-0.0255892
-0.0173567
-0.00673889
0.0053501
-0.0292737
-0.0293201
-0.0292618
-0.029062
-0.0287797
-0.0284711
-0.0281567
-0.0278505
-0.0275509
-0.0272623
-0.0269779
-0.026702
-0.0264266
-0.0261583
-0.0258892
-0.0256277
-0.0253659
-0.0251126
-0.0248614
-0.0246211
-0.0243861
-0.024165
-0.0239546
-0.0237629
-0.0235892
-0.0234419
-0.0233228
-0.0232403
-0.0232001
-0.0232101
-0.0232782
-0.0234122
-0.0236252
-0.023934
-0.0243543
-0.0248941
-0.0255612
-0.0263656
-0.0273163
-0.0284194
-0.0296758
-0.031079
-0.0326131
-0.0342516
-0.0359553
-0.0376695
-0.0393204
-0.0408259
-0.0420613
-0.0429376
-0.0432618
-0.0429607
-0.0417692
-0.0395899
-0.0362381
-0.031501
-0.0250254
-0.0166278
-0.00575489
0.00699424
-0.0330333
-0.033082
-0.0330248
-0.0328241
-0.0325399
-0.0322289
-0.0319123
-0.0316034
-0.0313013
-0.0310096
-0.0307223
-0.0304425
-0.0301633
-0.02989
-0.0296155
-0.0293472
-0.0290779
-0.0288154
-0.0285538
-0.028301
-0.0280518
-0.0278141
-0.0275849
-0.0273713
-0.0271725
-0.0269963
-0.0268441
-0.0267236
-0.0266397
-0.0265997
-0.0266108
-0.02668
-0.0268187
-0.0270443
-0.0273701
-0.0278039
-0.0283527
-0.029026
-0.0298322
-0.0307771
-0.0318622
-0.0330813
-0.0344203
-0.0358546
-0.0373478
-0.0388488
-0.0402873
-0.0415859
-0.0426221
-0.0433115
-0.0434616
-0.0430048
-0.0416689
-0.0393584
-0.0358889
-0.0310403
-0.0244498
-0.0158828
-0.00478267
0.00860582
-0.0368926
-0.0369379
-0.0368757
-0.0366677
-0.0363753
-0.0360554
-0.03573
-0.0354122
-0.0351013
-0.0348007
-0.0345042
-0.034215
-0.0339257
-0.033642
-0.0333562
-0.0330759
-0.0327937
-0.0325173
-0.0322406
-0.0319714
-0.0317043
-0.0314468
-0.0311956
-0.0309574
-0.0307312
-0.0305239
-0.0303367
-0.0301765
-0.0300478
-0.0299572
-0.029911
-0.0299152
-0.0299813
-0.030124
-0.0303572
-0.0306872
-0.0311207
-0.0316663
-0.032332
-0.0331235
-0.0340424
-0.0350834
-0.0362333
-0.0374696
-0.0387585
-0.040052
-0.0412831
-0.042379
-0.0432193
-0.0437247
-0.0437003
-0.0430888
-0.0416055
-0.0391598
-0.0355693
-0.0306071
-0.0238997
-0.0151722
-0.00389179
0.0101382
-0.0407869
-0.0408282
-0.0407604
-0.0405442
-0.0402424
-0.0399123
-0.0395765
-0.0392479
-0.0389263
-0.0386142
-0.0383065
-0.0380053
-0.0377041
-0.0374073
-0.0371084
-0.0368138
-0.0365168
-0.036224
-0.03593
-0.0356418
-0.0353542
-0.035074
-0.0347982
-0.0345328
-0.0342765
-0.0340359
-0.0338118
-0.0336102
-0.0334354
-0.033293
-0.0331888
-0.0331282
-0.0331209
-0.0331822
-0.0333237
-0.0335518
-0.033872
-0.0342927
-0.0348211
-0.0354627
-0.0362192
-0.0370859
-0.0380506
-0.0390925
-0.0401801
-0.0412684
-0.0422938
-0.0431874
-0.0438313
-0.0441502
-0.0439495
-0.0431787
-0.041546
-0.038963
-0.0352475
-0.0301656
-0.0233343
-0.0144455
-0.00301285
0.0116518
-0.0447927
-0.0448233
-0.0447433
-0.0445126
-0.0441951
-0.043849
-0.0434971
-0.0431524
-0.0428147
-0.0424866
-0.0421624
-0.0418446
-0.0415259
-0.0412116
-0.0408941
-0.0405806
-0.0402636
-0.0399502
-0.0396346
-0.0393236
-0.0390119
-0.038706
-0.0384026
-0.0381072
-0.0378184
-0.0375421
-0.0372788
-0.037034
-0.0368114
-0.036616
-0.0364529
-0.0363265
-0.0362465
-0.0362259
-0.0362766
-0.0364038
-0.0366124
-0.0369103
-0.037304
-0.0377989
-0.0383968
-0.0390933
-0.0398773
-0.0407295
-0.0416205
-0.042508
-0.0433314
-0.0440263
-0.0444763
-0.0446108
-0.0442327
-0.0433036
-0.0415182
-0.0387945
-0.0349517
-0.0297497
-0.0227951
-0.0137545
-0.00218109
0.0130955
-0.0488196
-0.0488404
-0.0487491
-0.0485046
-0.0481723
-0.0478107
-0.0474435
-0.0470831
-0.0467298
-0.0463854
-0.046045
-0.04571
-0.0453743
-0.0450414
-0.0447052
-0.0443715
-0.0440338
-0.043698
-0.0433591
-0.043023
-0.0426849
-0.0423505
-0.0420168
-0.0416888
-0.041365
-0.0410506
-0.0407459
-0.0404559
-0.0401836
-0.0399337
-0.0397104
-0.0395177
-0.0393637
-0.0392618
-0.0392218
-0.0392488
-0.0393471
-0.0395237
-0.0397848
-0.0401353
-0.040577
-0.0411058
-0.0417115
-0.0423762
-0.0430724
-0.0437603
-0.0443823
-0.0448781
-0.045133
-0.04508
-0.0445224
-0.04343
-0.0414901
-0.0386236
-0.0346496
-0.0293221
-0.0222384
-0.0130432
-0.00130925
0.014534
-0.052965
-0.0529713
-0.0528635
-0.0525998
-0.0522471
-0.0518643
-0.051476
-0.0510946
-0.0507202
-0.0503547
-0.0499928
-0.0496361
-0.0492778
-0.0489221
-0.048562
-0.048204
-0.0478408
-0.0474788
-0.0471125
-0.0467481
-0.0463802
-0.0460145
-0.0456478
-0.0452845
-0.0449231
-0.0445682
-0.0442199
-0.0438825
-0.0435588
-0.0432526
-0.0429678
-0.0427074
-0.0424794
-0.042295
-0.0421645
-0.0420916
-0.0420802
-0.0421368
-0.0422668
-0.0424749
-0.042763
-0.0431272
-0.0435579
-0.0440386
-0.0445435
-0.0450352
-0.0454587
-0.0457583
-0.04582
-0.0455812
-0.0448429
-0.0435881
-0.0414905
-0.0384778
-0.0343714
-0.0289189
-0.0217084
-0.0123652
-0.000461223
0.0159084
-0.0571549
-0.0571474
-0.0570241
-0.0567417
-0.0563688
-0.0559649
-0.0555554
-0.055152
-0.054756
-0.0543679
-0.0539837
-0.0536035
-0.053222
-0.0528416
-0.0524569
-0.0520727
-0.0516831
-0.0512929
-0.0508977
-0.0505026
-0.0501028
-0.0497033
-0.0493011
-0.0489001
-0.0484986
-0.048101
-0.0477067
-0.04732
-0.0469428
-0.0465787
-0.0462308
-0.0459017
-0.0455979
-0.045331
-0.0451094
-0.0449367
-0.044816
-0.0447533
-0.0447533
-0.0448204
-0.0449562
-0.0451573
-0.0454145
-0.0457125
-0.0460269
-0.0463229
-0.0465479
-0.0466502
-0.0465169
-0.046089
-0.0451676
-0.0437451
-0.041488
-0.038327
-0.0340846
-0.0285021
-0.0211596
-0.0116637
0.000426736
0.0172855
-0.0614687
-0.0614412
-0.0612959
-0.060989
-0.06059
-0.0601597
-0.0597236
-0.0592939
-0.0588712
-0.0584567
-0.0580454
-0.0576381
-0.0572284
-0.0568199
-0.0564057
-0.0559919
-0.0555713
-0.0551497
-0.0547218
-0.0542932
-0.0538584
-0.0534225
-0.0529821
-0.0525409
-0.052097
-0.0516542
-0.0512118
-0.0507734
-0.0503408
-0.0499169
-0.0495043
-0.0491047
-0.0487247
-0.0483738
-0.0480607
-0.0477879
-0.047558
-0.0473762
-0.047247
-0.0471743
-0.0471595
-0.0471994
-0.0472855
-0.0474032
-0.0475296
-0.0476323
-0.0476611
-0.0475684
-0.0472413
-0.0466259
-0.0455207
-0.0439321
-0.0415121
-0.0382003
-0.0338215
-0.0281102
-0.0206391
-0.0109962
0.00128216
0.0185996
-0.0658084
-0.065763
-0.065598
-0.0652684
-0.0648456
-0.0643906
-0.0639299
-0.0634751
-0.0630276
-0.0625874
-0.0621503
-0.0617162
-0.0612796
-0.0608425
-0.0603995
-0.0599552
-0.0595035
-0.0590489
-0.0585872
-0.0581229
-0.0576511
-0.0571764
-0.0566955
-0.0562115
-0.0557227
-0.0552324
-0.0547396
-0.0542475
-0.0537574
-0.0532719
-0.0527928
-0.0523216
-0.0518633
-0.0514279
-0.0510223
-0.0506489
-0.0503095
-0.050009
-0.0497509
-0.0495388
-0.0493741
-0.0492536
-0.0491691
-0.0491071
-0.0490458
-0.0489553
-0.0487871
-0.0484981
-0.0479748
-0.047169
-0.0458768
-0.044117
-0.0415324
-0.0380675
-0.0335486
-0.0277035
-0.0200987
-0.0103038
0.00217239
0.0199213
-0.0702753
-0.0702076
-0.0700181
-0.0696608
-0.0692086
-0.0687236
-0.068233
-0.0677482
-0.0672706
-0.0668003
-0.0663327
-0.0658677
-0.0653992
-0.0649298
-0.0644534
-0.0639751
-0.0634882
-0.0629976
-0.0624987
-0.061996
-0.0614845
-0.0609685
-0.0604446
-0.0599157
-0.0593797
-0.0588396
-0.0582942
-0.0577463
-0.0571967
-0.0566476
-0.0561003
-0.0555555
-0.0550183
-0.0544966
-0.0539978
-0.0535229
-0.0530736
-0.052654
-0.0522671
-0.0519161
-0.0516024
-0.0513224
-0.0510689
-0.0508284
-0.0505814
-0.0502989
-0.0499361
-0.0494514
-0.0487338
-0.0477373
-0.0462606
-0.044329
-0.0415772
-0.0379573
-0.0332984
-0.0273214
-0.019587
-0.00964572
0.00302506
0.0211799
-0.0747909
-0.0747028
-0.0744906
-0.0741068
-0.0736265
-0.0731122
-0.0725922
-0.0720773
-0.0715697
-0.0710684
-0.0705699
-0.0700728
-0.0695723
-0.0690693
-0.0685593
-0.0680455
-0.0675228
-0.0669945
-0.0664571
-0.0659141
-0.065361
-0.0648016
-0.0642327
-0.0636566
-0.0630713
-0.0624793
-0.0618792
-0.0612734
-0.0606624
-0.0600478
-0.0594305
-0.0588108
-0.0581925
-0.0575837
-0.0569903
-0.0564133
-0.0558534
-0.0553143
-0.0547984
-0.0543085
-0.0538456
-0.0534066
-0.0529838
-0.0525652
-0.0521317
-0.0516576
-0.0510981
-0.0504171
-0.0495013
-0.0483133
-0.0466467
-0.0445395
-0.0416177
-0.0378405
-0.0330378
-0.0269236
-0.0190546
-0.00896211
0.00390922
0.0224489
-0.0794359
-0.079321
-0.0790795
-0.0786637
-0.0781494
-0.0776007
-0.077046
-0.0764968
-0.0759545
-0.0754189
-0.0748851
-0.0743528
-0.0738156
-0.0732762
-0.072728
-0.0721761
-0.0716136
-0.0710452
-0.0704661
-0.0698807
-0.0692836
-0.0686787
-0.0680626
-0.0674372
-0.0668005
-0.0661546
-0.0654978
-0.0648321
-0.0641577
-0.0634758
-0.0627868
-0.0620902
-0.0613897
-0.0606921
-0.0600031
-0.0593227
-0.0586513
-0.057992
-0.0573466
-0.0567175
-0.0561058
-0.0555079
-0.0549167
-0.0543204
-0.0537019
-0.0530361
-0.0522826
-0.051404
-0.0502933
-0.048911
-0.0470608
-0.0447748
-0.0416809
-0.0377458
-0.0328
-0.0265512
-0.0185523
-0.00831399
0.00475154
0.0236534
-0.0841072
-0.0839683
-0.0837008
-0.0832554
-0.0827102
-0.0821296
-0.0815432
-0.0809616
-0.0803872
-0.0798183
-0.0792514
-0.0786845
-0.0781127
-0.0775367
-0.0769517
-0.076361
-0.075759
-0.0751491
-0.0745276
-0.0738978
-0.073255
-0.0726026
-0.0719372
-0.0712605
-0.0705703
-0.0698685
-0.069153
-0.0684254
-0.0676858
-0.0669348
-0.0661722
-0.0653973
-0.0646127
-0.0638249
-0.0630388
-0.0622539
-0.0614701
-0.0606898
-0.0599144
-0.0591457
-0.0583848
-0.0576276
-0.0568678
-0.056093
-0.0552896
-0.0544308
-0.0534825
-0.0524036
-0.0510963
-0.0495166
-0.0474792
-0.0450084
-0.0417406
-0.037645
-0.0325518
-0.0261626
-0.0180287
-0.00764014
0.00562195
0.0248701
-0.0889077
-0.0887405
-0.0884421
-0.0879622
-0.0873804
-0.0867627
-0.0861392
-0.0855206
-0.0849089
-0.0843029
-0.0836981
-0.0830932
-0.0824821
-0.0818665
-0.0812405
-0.0806083
-0.0799633
-0.0793097
-0.078643
-0.077967
-0.0772763
-0.0765747
-0.0758581
-0.0751284
-0.0743829
-0.0736233
-0.0728473
-0.0720561
-0.0712494
-0.0704275
-0.0695897
-0.0687346
-0.0678644
-0.066985
-0.0661003
-0.0652097
-0.0643122
-0.0634099
-0.0625034
-0.0615947
-0.060684
-0.0597678
-0.0588389
-0.0578866
-0.0568976
-0.0558472
-0.0547041
-0.0534251
-0.0519226
-0.0501439
-0.0479264
-0.0452652
-0.0418213
-0.0375651
-0.0323261
-0.0257989
-0.0175351
-0.0070012
0.00644812
0.0260215
-0.0937561
-0.0935628
-0.0932358
-0.0927231
-0.0921067
-0.091453
-0.0907934
-0.0901379
-0.0894896
-0.0888459
-0.0882036
-0.0875597
-0.0869099
-0.0862536
-0.0855869
-0.0849122
-0.0842242
-0.0835255
-0.082813
-0.0820892
-0.0813494
-0.0805968
-0.0798276
-0.079043
-0.0782406
-0.0774214
-0.0765832
-0.0757267
-0.0748512
-0.0739566
-0.073042
-0.0721052
-0.0711477
-0.0701746
-0.0691901
-0.0681922
-0.06718
-0.0661547
-0.0651167
-0.0640672
-0.0630061
-0.0619302
-0.0608316
-0.0597014
-0.0585259
-0.0572832
-0.0559431
-0.0544626
-0.0527616
-0.0507821
-0.0483782
-0.0455232
-0.0418997
-0.0374796
-0.03209
-0.0254182
-0.0170194
-0.00633575
0.00729929
0.0271861
-0.0987334
-0.0985073
-0.0981448
-0.0975935
-0.0969364
-0.0962418
-0.0955409
-0.0948449
-0.0941555
-0.0934712
-0.0927872
-0.092102
-0.0914091
-0.0907104
-0.0899991
-0.0892799
-0.0885456
-0.0878004
-0.0870394
-0.0862666
-0.0854759
-0.0846709
-0.0838473
-0.0830065
-0.0821455
-0.0812652
-0.0803631
-0.0794396
-0.0784937
-0.0775248
-0.0765316
-0.0755113
-0.0744647
-0.073397
-0.0723108
-0.0712045
-0.0700761
-0.0689266
-0.0677559
-0.0665647
-0.065353
-0.0641165
-0.0628484
-0.0615392
-0.0601781
-0.058742
-0.0572064
-0.0555226
-0.0536259
-0.0514428
-0.0488605
-0.0458035
-0.0419984
-0.0374152
-0.0318769
-0.0250632
-0.0165339
-0.00570488
0.00810281
0.0282843
-0.103733
-0.103477
-0.103083
-0.102497
-0.101803
-0.101071
-0.100332
-0.0995984
-0.0988712
-0.0981482
-0.0974255
-0.0967002
-0.095967
-0.0952259
-0.0944719
-0.093708
-0.0929281
-0.0921352
-0.0913255
-0.0905019
-0.0896589
-0.0887998
-0.0879203
-0.0870214
-0.0861
-0.085157
-0.0841893
-0.0831971
-0.0821792
-0.0811345
-0.080061
-0.0789557
-0.0778187
-0.0766541
-0.0754649
-0.0742487
-0.073003
-0.0717285
-0.0704242
-0.0690906
-0.0677273
-0.0663298
-0.0648911
-0.0634029
-0.0618544
-0.0602247
-0.0584904
-0.0566024
-0.0545056
-0.0521172
-0.0493484
-0.0460868
-0.0420973
-0.0373468
-0.0316544
-0.0246914
-0.0160258
-0.00504649
0.00892723
0.0293974
-0.108865
-0.108576
-0.108146
-0.107519
-0.106783
-0.106008
-0.105227
-0.10445
-0.10368
-0.102914
-0.102149
-0.10138
-0.100602
-0.0998157
-0.0990151
-0.0982042
-0.0973754
-0.0965331
-0.0956721
-0.0947963
-0.0938993
-0.0929846
-0.0920476
-0.0910891
-0.0901059
-0.0890986
-0.0880638
-0.0870015
-0.08591
-0.0847878
-0.0836327
-0.0824405
-0.0812113
-0.0799484
-0.0786551
-0.0773275
-0.0759633
-0.0745625
-0.0731236
-0.0716467
-0.0701308
-0.0685717
-0.0669616
-0.0652938
-0.0635575
-0.0617335
-0.0598006
-0.0577077
-0.0554121
-0.0528168
-0.0498671
-0.0463926
-0.0422162
-0.0372991
-0.0314545
-0.0243449
-0.0155475
-0.00442255
0.00970877
0.03045
-0.114045
-0.113726
-0.113263
-0.112598
-0.111822
-0.111006
-0.110183
-0.109364
-0.108553
-0.107744
-0.106936
-0.106123
-0.105301
-0.104469
-0.103622
-0.102763
-0.101886
-0.100993
-0.10008
-0.0991509
-0.0981987
-0.097227
-0.0962311
-0.0952116
-0.0941651
-0.093092
-0.0919886
-0.0908546
-0.089688
-0.0884869
-0.0872482
-0.0859679
-0.0846446
-0.0832824
-0.081883
-0.0804433
-0.0789597
-0.0774316
-0.0758572
-0.0742359
-0.0725668
-0.0708448
-0.0690629
-0.067214
-0.0652895
-0.063269
-0.0611363
-0.058835
-0.0563381
-0.0535309
-0.0503927
-0.0467044
-0.0423377
-0.0372488
-0.0312458
-0.0239821
-0.0150474
-0.00378161
0.0105224
0.0315288
-0.119364
-0.119007
-0.118503
-0.117795
-0.116973
-0.11611
-0.115242
-0.114377
-0.113519
-0.112665
-0.11181
-0.11095
-0.11008
-0.1092
-0.108303
-0.107394
-0.106465
-0.105519
-0.104553
-0.103568
-0.102559
-0.101529
-0.100472
-0.0993904
-0.0982792
-0.0971389
-0.0959655
-0.0947584
-0.0935151
-0.0922334
-0.09091
-0.0895396
-0.0881211
-0.0866579
-0.085152
-0.0835991
-0.0819946
-0.080338
-0.0786268
-0.07686
-0.0750365
-0.0731507
-0.0711959
-0.0691651
-0.0670511
-0.0648336
-0.0625001
-0.0599905
-0.057292
-0.0542725
-0.0509487
-0.0470399
-0.04248
-0.03722
-0.0310603
-0.0236461
-0.014578
-0.00318257
0.0113112
0.0325597
-0.124705
-0.124316
-0.123777
-0.123028
-0.122165
-0.12126
-0.120349
-0.119442
-0.118541
-0.117643
-0.116744
-0.11584
-0.114924
-0.113996
-0.113051
-0.112092
-0.111111
-0.110112
-0.109091
-0.10805
-0.106982
-0.105892
-0.104774
-0.103628
-0.10245
-0.101241
-0.0999964
-0.0987146
-0.0973933
-0.0960297
-0.0946198
-0.0931584
-0.0916434
-0.0900783
-0.0884645
-0.0867969
-0.0850705
-0.0832842
-0.0814349
-0.0795216
-0.0775423
-0.0754919
-0.0733628
-0.0711497
-0.0688444
-0.066429
-0.0638914
-0.0611717
-0.058266
-0.0550317
-0.0515117
-0.0473847
-0.0426284
-0.0371909
-0.0308672
-0.0232955
-0.0140887
-0.00256304
0.0121451
0.0336256
-0.130195
-0.129768
-0.129188
-0.128395
-0.127484
-0.126531
-0.125572
-0.124617
-0.123668
-0.122722
-0.121774
-0.12082
-0.119853
-0.118875
-0.117877
-0.116864
-0.115829
-0.114774
-0.113695
-0.112596
-0.111468
-0.110317
-0.109135
-0.107924
-0.106679
-0.1054
-0.104083
-0.102725
-0.101325
-0.0998778
-0.0983807
-0.0968265
-0.0952141
-0.0935458
-0.091823
-0.0900393
-0.0881894
-0.0862718
-0.0842831
-0.0822217
-0.0800855
-0.0778689
-0.0755645
-0.0731673
-0.0706697
-0.0680549
-0.0653125
-0.0623822
-0.0592687
-0.0558192
-0.0521042
-0.0477538
-0.0427979
-0.0371829
-0.0306972
-0.0229713
-0.0136289
-0.00197498
0.0129621
0.0346489
-0.135741
-0.135279
-0.134661
-0.133824
-0.132868
-0.131867
-0.130861
-0.129858
-0.128861
-0.127866
-0.126869
-0.125865
-0.124848
-0.123817
-0.122767
-0.1217
-0.120611
-0.1195
-0.118364
-0.117206
-0.116018
-0.114804
-0.113559
-0.112281
-0.110968
-0.109618
-0.108227
-0.106793
-0.105311
-0.10378
-0.102194
-0.100547
-0.0988351
-0.0970626
-0.095229
-0.0933277
-0.091353
-0.0893028
-0.0871732
-0.0849623
-0.082668
-0.0802841
-0.0778031
-0.0752209
-0.0725294
-0.0697138
-0.0667637
-0.0636203
-0.0602936
-0.0566257
-0.0527057
-0.0481348
-0.042976
-0.0371766
-0.0305208
-0.0226338
-0.0131497
-0.00136456
0.0138127
0.0357046
-0.141483
-0.140968
-0.140295
-0.139402
-0.138388
-0.137332
-0.136269
-0.135211
-0.134159
-0.13311
-0.132057
-0.130999
-0.129925
-0.128839
-0.127732
-0.126611
-0.125463
-0.124295
-0.1231
-0.121883
-0.120633
-0.119357
-0.118046
-0.116701
-0.115319
-0.113897
-0.112431
-0.110918
-0.109355
-0.107738
-0.106062
-0.10432
-0.102508
-0.10063
-0.0986841
-0.0966638
-0.0945626
-0.0923782
-0.0901062
-0.0877444
-0.0852904
-0.0827376
-0.0800787
-0.0773095
-0.0744228
-0.0714045
-0.0682459
-0.064888
-0.0613478
-0.0574604
-0.0533363
-0.0485405
-0.0431757
-0.0371919
-0.0303682
-0.0223229
-0.0126992
-0.00078306
0.0146285
0.0367123
-0.14702
-0.146481
-0.145782
-0.144857
-0.14381
-0.142718
-0.141621
-0.140526
-0.139438
-0.13835
-0.137258
-0.136157
-0.135041
-0.133909
-0.132755
-0.131582
-0.130382
-0.129158
-0.127906
-0.126629
-0.125318
-0.123977
-0.1226
-0.121187
-0.119734
-0.118238
-0.116696
-0.115104
-0.113458
-0.111754
-0.109986
-0.108148
-0.106235
-0.104249
-0.10219
-0.100049
-0.0978195
-0.0954995
-0.0930838
-0.0905697
-0.0879546
-0.0852319
-0.0823938
-0.0794366
-0.0763531
-0.0731305
-0.0697604
-0.0661854
-0.0624265
-0.0583163
-0.0539795
-0.0489611
-0.0433873
-0.0372113
-0.0302118
-0.0220009
-0.0122321
-0.000181392
0.0154632
0.0377474
-0.153045
-0.152452
-0.151693
-0.150704
-0.149589
-0.14843
-0.147264
-0.146103
-0.144947
-0.143795
-0.142638
-0.141475
-0.140295
-0.139102
-0.137885
-0.136652
-0.135391
-0.134106
-0.132791
-0.131451
-0.130075
-0.128668
-0.127224
-0.125741
-0.124215
-0.122644
-0.121024
-0.119351
-0.117621
-0.115828
-0.113968
-0.112031
-0.110015
-0.107921
-0.105746
-0.103483
-0.101125
-0.0986677
-0.0961067
-0.0934388
-0.0906613
-0.0877668
-0.0847479
-0.0816007
-0.0783189
-0.0748899
-0.0713071
-0.0675132
-0.0635351
-0.0592002
-0.0546514
-0.0494065
-0.0436203
-0.0372524
-0.0300789
-0.0217049
-0.0117923
0.000392995
0.016264
0.0387306
-0.158773
-0.158156
-0.157372
-0.156352
-0.155204
-0.154009
-0.152808
-0.15161
-0.150417
-0.149224
-0.148025
-0.146817
-0.145591
-0.144348
-0.143081
-0.141793
-0.140474
-0.139131
-0.137755
-0.13635
-0.134909
-0.133434
-0.13192
-0.130365
-0.128765
-0.127118
-0.125418
-0.123662
-0.121845
-0.119963
-0.118008
-0.115973
-0.113852
-0.111647
-0.109356
-0.106969
-0.10448
-0.101884
-0.0991766
-0.0963538
-0.0934126
-0.0903454
-0.0871445
-0.0838063
-0.0803245
-0.0766874
-0.0728891
-0.0688736
-0.0646714
-0.0601085
-0.0553404
-0.0498697
-0.0438677
-0.0373002
-0.0299447
-0.0214004
-0.0113384
0.000984256
0.0170835
0.0397353
-0.165021
-0.164347
-0.1635
-0.162414
-0.161196
-0.159932
-0.158661
-0.157394
-0.156131
-0.154872
-0.153604
-0.152331
-0.151037
-0.149729
-0.148394
-0.147041
-0.145656
-0.144246
-0.142803
-0.141331
-0.139821
-0.138276
-0.13669
-0.135061
-0.133385
-0.131659
-0.129878
-0.128037
-0.126132
-0.124158
-0.122108
-0.119971
-0.117745
-0.115428
-0.113018
-0.110507
-0.107885
-0.10515
-0.102294
-0.0993152
-0.0962088
-0.0929672
-0.0895825
-0.0860513
-0.0823676
-0.0785203
-0.0745049
-0.0702654
-0.0658383
-0.061045
-0.0560582
-0.0503575
-0.0441368
-0.0373705
-0.0298348
-0.0211222
-0.0109114
0.00154835
0.0178706
0.0406864
-0.170931
-0.170236
-0.169366
-0.16825
-0.167
-0.165702
-0.164396
-0.163091
-0.161789
-0.160487
-0.159177
-0.157855
-0.156513
-0.155152
-0.153763
-0.152352
-0.150908
-0.149435
-0.147928
-0.146389
-0.14481
-0.143194
-0.141534
-0.13983
-0.138076
-0.136269
-0.134405
-0.132478
-0.130484
-0.128416
-0.126268
-0.124029
-0.121695
-0.119265
-0.116735
-0.114097
-0.111342
-0.108466
-0.105462
-0.102325
-0.0990527
-0.0956359
-0.0920664
-0.0883412
-0.0844541
-0.0803947
-0.0761595
-0.0716935
-0.0670367
-0.06201
-0.0567976
-0.0508669
-0.0444236
-0.0374513
-0.0297274
-0.0208399
-0.010475
0.00212484
0.0186745
0.0416573
-0.177356
-0.176612
-0.175684
-0.174505
-0.173185
-0.171816
-0.170436
-0.169061
-0.167687
-0.166316
-0.164935
-0.163546
-0.162133
-0.160705
-0.159248
-0.15777
-0.156256
-0.154715
-0.153138
-0.151529
-0.149877
-0.148188
-0.146453
-0.144671
-0.142838
-0.140949
-0.139
-0.136985
-0.134899
-0.132736
-0.130489
-0.128146
-0.125703
-0.123159
-0.120508
-0.117742
-0.114852
-0.111834
-0.10868
-0.105384
-0.101944
-0.0983504
-0.0945945
-0.090673
-0.0865805
-0.0823066
-0.0778497
-0.0731544
-0.068267
-0.0630037
-0.0575661
-0.0514009
-0.0447324
-0.0375549
-0.0296448
-0.0205838
-0.0100649
0.00267464
0.0194477
0.0425792
-0.18358
-0.182794
-0.181823
-0.180598
-0.179231
-0.177815
-0.176389
-0.174965
-0.173544
-0.172124
-0.170693
-0.169251
-0.167786
-0.166302
-0.164788
-0.163249
-0.161674
-0.160068
-0.158424
-0.156745
-0.155022
-0.153258
-0.151447
-0.149586
-0.147672
-0.145699
-0.143663
-0.141558
-0.13938
-0.13712
-0.134772
-0.132325
-0.129771
-0.127109
-0.124337
-0.121441
-0.118416
-0.115255
-0.11195
-0.108495
-0.104887
-0.101115
-0.0971718
-0.0930532
-0.0887539
-0.0842639
-0.0795827
-0.0746556
-0.0695332
-0.0640305
-0.0583611
-0.05196
-0.0450623
-0.0376727
-0.0295688
-0.0203277
-0.00964972
0.00323266
0.0202362
0.0435221
-0.189962
-0.189134
-0.188118
-0.186843
-0.185423
-0.183955
-0.182476
-0.181001
-0.179528
-0.178056
-0.17657
-0.175073
-0.17355
-0.172006
-0.170428
-0.168825
-0.167183
-0.165508
-0.163793
-0.162042
-0.160244
-0.158404
-0.156515
-0.154573
-0.152576
-0.150518
-0.148394
-0.146198
-0.143925
-0.141568
-0.139118
-0.136564
-0.133898
-0.13112
-0.128223
-0.125197
-0.122035
-0.11873
-0.115273
-0.111657
-0.107879
-0.103929
-0.0997959
-0.0954779
-0.0909696
-0.0862607
-0.0813531
-0.076191
-0.0708323
-0.0650873
-0.0591861
-0.0525439
-0.0454152
-0.0378146
-0.0295191
-0.0200986
-0.00926179
0.00376302
0.0209946
0.0444205
-0.196419
-0.195551
-0.19449
-0.193163
-0.191689
-0.190164
-0.188629
-0.187097
-0.185567
-0.184038
-0.182497
-0.180943
-0.179363
-0.177761
-0.176125
-0.174461
-0.172756
-0.171016
-0.169233
-0.167411
-0.16554
-0.163623
-0.161655
-0.159632
-0.157551
-0.155407
-0.153194
-0.150905
-0.148537
-0.14608
-0.143526
-0.140864
-0.138086
-0.135188
-0.132167
-0.12901
-0.125711
-0.122261
-0.118651
-0.114874
-0.110926