/*--------------------------------*- C++ -*----------------------------------*\
  =========                 |
  \\      /  F ield         | OpenFOAM: The Open Source CFD Toolbox
   \\    /   O peration     | Website:  https://openfoam.org
    \\  /    A nd           | Version:  6.0
     \\/     M anipulation  |
\*---------------------------------------------------------------------------*/
FoamFile
{
    version     2.0;
    format      ascii;
    class       volScalarField;
    location    "7";
    object      p;
}
// * * * * * * * * * * * * * * * * * * * * * * * * * * * * * * * * * * * * * //

dimensions      [0 2 -2 0 0 0 0];

internalField   nonuniform List<scalar> 
15500
(
0.0183682
0.0184478
0.0185386
0.0186311
0.0187405
0.0188556
0.0189937
0.0191421
0.0193199
0.0195132
0.0197427
0.0199921
0.0202814
0.0205955
0.020947
0.0213201
0.0217096
0.0220764
0.0223854
0.022643
0.0228803
0.0231496
0.0235326
0.0241059
0.0248503
0.025383
0.0248637
0.0225694
0.0183464
0.014307
0.0184269
0.0185199
0.0186206
0.01872
0.0188323
0.0189472
0.0190823
0.0192252
0.0193962
0.0195829
0.0198048
0.0200526
0.0203394
0.0206569
0.0210052
0.0213804
0.0217722
0.0221477
0.0224894
0.0227939
0.02309
0.0234385
0.0239501
0.0247646
0.0259545
0.0272307
0.0277386
0.0265332
0.0233264
0.0179543
0.0184417
0.0185272
0.0186256
0.0187277
0.0188462
0.018971
0.0191182
0.0192755
0.0194614
0.0196633
0.0198999
0.0201616
0.0204608
0.0207865
0.0211332
0.0214945
0.0218508
0.0221738
0.0224282
0.0225926
0.0226629
0.0226635
0.0226828
0.0228632
0.0233436
0.0239925
0.0241885
0.0232402
0.0210735
0.0152574
0.0184522
0.0185286
0.0186262
0.0187343
0.0188636
0.0190041
0.0191702
0.0193494
0.0195592
0.0197862
0.0200482
0.020335
0.020657
0.0210019
0.0213613
0.0217241
0.0220686
0.0223548
0.0225464
0.0225968
0.0224702
0.0221503
0.0216837
0.0211927
0.0208508
0.0206734
0.0203192
0.0194536
0.0181569
0.0132605
0.0185282
0.0185938
0.0186856
0.0187951
0.0189325
0.0190886
0.0192763
0.0194827
0.019723
0.0199832
0.0202788
0.0205989
0.0209537
0.0213299
0.02172
0.0221125
0.0224817
0.0227959
0.023001
0.0230504
0.0228852
0.0224614
0.0217851
0.0209433
0.0201052
0.0193729
0.0186044
0.0177803
0.0170605
0.0134008
0.01868
0.0187522
0.0188532
0.0189748
0.0191269
0.0193007
0.0195093
0.0197402
0.0200086
0.0203006
0.0206304
0.0209874
0.02138
0.0217967
0.0222323
0.0226764
0.0231106
0.0234929
0.0237874
0.023936
0.0238749
0.0235397
0.0229025
0.0220086
0.0209952
0.0199916
0.0189759
0.018152
0.0176948
0.0149413
0.0190654
0.0191341
0.0192317
0.0193522
0.0195072
0.0196891
0.019911
0.0201613
0.0204536
0.0207742
0.0211363
0.0215291
0.0219616
0.0224232
0.0229128
0.0234248
0.0239388
0.0244296
0.0248512
0.0251573
0.0252839
0.0251531
0.0247105
0.0239552
0.0229772
0.021891
0.0207255
0.0198496
0.0194468
0.0171696
0.0195856
0.0196727
0.0197872
0.0199234
0.0200919
0.0202861
0.0205203
0.0207837
0.0210923
0.0214332
0.0218208
0.0222452
0.0227146
0.0232215
0.0237687
0.0243533
0.0249634
0.0255677
0.0261409
0.026634
0.0269867
0.0271137
0.0269376
0.0264163
0.0255861
0.0245252
0.0232753
0.0223132
0.0218096
0.0196907
0.0203644
0.0204525
0.0205662
0.0207018
0.0208715
0.0210701
0.0213119
0.0215874
0.0219115
0.0222726
0.0226845
0.0231381
0.023643
0.0241941
0.0247985
0.0254586
0.0261618
0.0268949
0.0276188
0.0283037
0.0288883
0.0292857
0.0293973
0.0291435
0.0285039
0.0275126
0.0261923
0.0251135
0.0244447
0.0222924
0.0212093
0.021325
0.021465
0.0216248
0.0218151
0.0220308
0.0222872
0.0225755
0.0229136
0.023291
0.0237238
0.0242042
0.0247419
0.0253353
0.0259962
0.0267297
0.0275334
0.0283814
0.0292608
0.0301328
0.0309433
0.0316008
0.0319907
0.0319998
0.0315564
0.0306476
0.0292707
0.0280636
0.0271737
0.0248885
0.0222972
0.0224162
0.0225584
0.0227209
0.0229161
0.0231402
0.0234076
0.0237111
0.0240665
0.0244645
0.0249205
0.0254286
0.026
0.0266357
0.0273523
0.0281609
0.029055
0.0300278
0.0310495
0.032097
0.0331186
0.0340178
0.0346663
0.0349173
0.0346529
0.033812
0.0323623
0.0310073
0.029894
0.0274306
0.0234104
0.0235616
0.0237349
0.0239268
0.0241476
0.024393
0.024679
0.0249979
0.0253696
0.0257853
0.0262636
0.0267994
0.0274045
0.0280832
0.0288567
0.0297379
0.0307289
0.0318109
0.0329764
0.0341928
0.0354117
0.0365327
0.0374132
0.0378794
0.0377708
0.0369831
0.035458
0.0339502
0.0325868
0.0299278
0.0247436
0.0248952
0.0250687
0.0252625
0.0254888
0.0257447
0.0260454
0.0263842
0.0267785
0.0272206
0.0277279
0.0282965
0.02894
0.029665
0.030497
0.0314538
0.0325346
0.0337385
0.0350361
0.036413
0.0378163
0.039143
0.0402347
0.0408912
0.0409097
0.0401487
0.03852
0.0368393
0.0352338
0.0323742
0.0260326
0.0262187
0.0264271
0.0266549
0.0269124
0.0271958
0.0275216
0.027883
0.0283012
0.0287688
0.0293061
0.0299101
0.0305943
0.0313689
0.032263
0.0332969
0.0344789
0.0357905
0.0372291
0.0387637
0.0403452
0.0418635
0.0431475
0.0439716
0.0440959
0.0433438
0.0416043
0.0397428
0.0378665
0.0348031
0.0275386
0.0277241
0.0279326
0.0281631
0.0284281
0.0287256
0.0290709
0.0294584
0.029906
0.0304072
0.030981
0.0316257
0.0323567
0.0331857
0.0341464
0.0352643
0.036542
0.0379803
0.0395522
0.0412423
0.0429985
0.0447028
0.0461688
0.0471429
0.0473501
0.0465784
0.0446968
0.0426251
0.0404827
0.037212
0.0289906
0.0292122
0.0294571
0.0297236
0.0300217
0.0303485
0.0307216
0.0311341
0.0316096
0.032141
0.0327512
0.0334388
0.0342195
0.0351077
0.0361409
0.037346
0.0387338
0.0402889
0.0420079
0.0438598
0.0457916
0.0476778
0.0493159
0.0504278
0.0507036
0.0498974
0.0478639
0.045568
0.0431223
0.0396364
0.0306507
0.0308683
0.0311105
0.0313773
0.0316819
0.0320234
0.0324181
0.0328606
0.0333709
0.033943
0.0345983
0.035336
0.0361738
0.0371279
0.0382395
0.0395403
0.0410371
0.0427323
0.0445958
0.0466139
0.0487258
0.0507975
0.052607
0.0538484
0.0541734
0.0533069
0.0510846
0.0485283
0.0457767
0.0420669
0.0322076
0.0324631
0.0327443
0.0330504
0.0333922
0.0337673
0.0341948
0.0346684
0.0352136
0.0358242
0.036525
0.0373161
0.0382149
0.0392404
0.0404377
0.0418405
0.0434644
0.0452921
0.0473209
0.0495156
0.0518156
0.0540751
0.0560548
0.0574202
0.057787
0.0568474
0.0544235
0.0515869
0.0484846
0.0445386
0.0339786
0.0342305
0.0345097
0.0348173
0.0351675
0.0355604
0.0360134
0.0365219
0.0371079
0.0377659
0.0385196
0.0393703
0.0403375
0.0414416
0.042732
0.044248
0.0459991
0.0479873
0.050181
0.0525619
0.0550612
0.0575199
0.0596763
0.0611621
0.0615551
0.0605137
0.057849
0.0546873
0.0512289
0.0470324
0.035648
0.0359399
0.0362597
0.0366081
0.036997
0.0374247
0.0379125
0.0384541
0.0390785
0.0397796
0.040586
0.041499
0.0425386
0.0437279
0.0451201
0.0467566
0.0486548
0.0507988
0.0531818
0.0557651
0.0584756
0.0611415
0.0634774
0.065084
0.0654988
0.0643436
0.0614213
0.0579101
0.0540448
0.0495823
0.0375169
0.0378032
0.0381197
0.0384688
0.0388663
0.0393132
0.0398293
0.0404103
0.0410814
0.0418378
0.0427067
0.0436908
0.044812
0.0460951
0.047598
0.049367
0.051416
0.0537463
0.0563221
0.0591213
0.0620598
0.064949
0.0674759
0.069203
0.0696227
0.0683241
0.0650981
0.0611883
0.0569075
0.0521636
0.0392362
0.039565
0.0399256
0.0403198
0.0407607
0.0412479
0.0418051
0.0424264
0.0431445
0.043954
0.0448868
0.0459462
0.0471545
0.0485395
0.050163
0.0520749
0.0542968
0.0568113
0.0596089
0.0626428
0.0658251
0.0689481
0.0716729
0.0735229
0.0739455
0.0724905
0.0689395
0.0646016
0.059851
0.0548087
0.0411572
0.0414829
0.041843
0.042241
0.0426944
0.0432056
0.0437966
0.0444637
0.0452359
0.0461092
0.0471145
0.0482571
0.0495619
0.0510584
0.0528132
0.0548818
0.0572822
0.0600145
0.0630388
0.0663255
0.0697719
0.0731506
0.0760877
0.0780608
0.0784685
0.076821
0.072896
0.0680742
0.0628464
0.0574906
0.0429375
0.0433076
0.0437134
0.0441583
0.0446573
0.045211
0.0458462
0.0465574
0.0473821
0.0483155
0.0493944
0.0506245
0.0520317
0.0536489
0.0555461
0.0577833
0.0603858
0.0633367
0.0666199
0.0701818
0.0739109
0.0775585
0.0807158
0.0828169
0.0832082
0.081353
0.0770265
0.0716878
0.0659259
0.0602413
0.0449041
0.0452702
0.0456753
0.0461245
0.0466375
0.0472179
0.0478912
0.0486539
0.0495404
0.0505471
0.0517104
0.0530378
0.0545586
0.0563071
0.0583591
0.0607797
0.0635935
0.066798
0.0703493
0.0742072
0.0782448
0.0821856
0.0855807
0.0878101
0.0881615
0.0860587
0.0812746
0.0753604
0.0690573
0.0630324
0.0466975
0.0471097
0.0475633
0.0480626
0.0486253
0.0492532
0.0499769
0.0507915
0.0517397
0.052818
0.0540678
0.0554983
0.0571396
0.0590298
0.0612488
0.0638675
0.066917
0.0703808
0.0742344
0.0784137
0.0827811
0.0870298
0.0906731
0.0930354
0.0933457
0.0909774
0.0857016
0.0791733
0.0722721
0.0658946
0.048684
0.0490948
0.0495501
0.0500565
0.0506367
0.0512954
0.0520621
0.052934
0.053951
0.0551112
0.0564563
0.0579982
0.0597704
0.0618133
0.0642131
0.0670452
0.0703445
0.0741023
0.0782717
0.0827982
0.0875231
0.0921098
0.0960198
0.0985138
0.098756
0.0960728
0.0902456
0.0830395
0.0755366
0.0687982
0.0505183
0.0509749
0.051478
0.052034
0.0526636
0.0533701
0.0541886
0.0551151
0.0561986
0.0574375
0.0588792
0.0605374
0.0624474
0.0646547
0.0672472
0.0703126
0.0738837
0.0779493
0.082467
0.0873693
0.0924763
0.0974183
0.101606
0.104237
0.104409
0.101389
0.0949677
0.0870419
0.0788792
0.071773
0.0525251
0.0529795
0.0534838
0.0540467
0.0546943
0.0554332
0.0562977
0.0572856
0.0584444
0.0597733
0.061322
0.0631059
0.065166
0.067549
0.0703538
0.0736648
0.0775381
0.0819238
0.0868146
0.092122
0.0976473
0.102977
0.107463
0.110229
0.110295
0.106883
0.0998006
0.0910898
0.0822654
0.0747887
0.0543548
0.0548556
0.055409
0.0560228
0.0567218
0.0575115
0.0584315
0.0594798
0.0607122
0.0621301
0.0637873
0.0657039
0.0679224
0.0704984
0.0735256
0.0771268
0.0812784
0.0860253
0.0913116
0.0970625
0.103036
0.108773
0.113571
0.116477
0.116433
0.112602
0.104807
0.0952634
0.0857223
0.0778744
0.0563562
0.056857
0.0574132
0.0580356
0.0587544
0.0595786
0.0605473
0.061661
0.0629741
0.0644894
0.0662651
0.068323
0.0707164
0.0734947
0.0767847
0.0806339
0.0851313
0.0902361
0.0959556
0.102191
0.108651
0.114835
0.119966
0.123005
0.12281
0.118493
0.109916
0.09947
0.0892154
0.0810001
0.0582056
0.0587509
0.0593532
0.0600238
0.0607909
0.0616636
0.0626865
0.0638609
0.0652502
0.0668615
0.0687557
0.0709628
0.0735342
0.076536
0.0800592
0.0842295
0.0890481
0.0945614
0.100764
0.107517
0.114494
0.121144
0.126621
0.129798
0.129446
0.12461
0.115188
0.103789
0.092768
0.0841949
0.0602135
0.0607529
0.0613518
0.0620248
0.0628071
0.063711
0.0647815
0.0660223
0.0674954
0.0692117
0.0712329
0.0735954
0.0763559
0.0795787
0.0833845
0.0878502
0.0930565
0.0990225
0.105735
0.113042
0.120578
0.127733
0.133579
0.136882
0.136319
0.130889
0.120546
0.108126
0.0963463
0.08743
0.0620424
0.0626175
0.0632539
0.0639677
0.0647932
0.0657423
0.0668659
0.0681692
0.0697231
0.0715424
0.073693
0.0762177
0.0791745
0.0826376
0.0867148
0.091541
0.0971547
0.103607
0.110879
0.118776
0.126899
0.134577
0.140803
0.144234
0.143452
0.137389
0.126051
0.112554
0.0999707
0.0907338
0.0640455
0.0646205
0.0652532
0.0659627
0.0667933
0.0677614
0.0689219
0.0702823
0.0719156
0.0738393
0.0761232
0.0788154
0.0819803
0.0856911
0.0900852
0.0952698
0.101342
0.108329
0.116183
0.124714
0.133469
0.141715
0.148341
0.151884
0.150819
0.144034
0.131623
0.11698
0.103609
0.0940779
0.0656726
0.0662885
0.0669685
0.0677321
0.0686196
0.0696466
0.0708724
0.0723066
0.0740319
0.0760706
0.078499
0.0813723
0.0847589
0.0887426
0.0934536
0.0990563
0.10561
0.113159
0.121657
0.13086
0.140278
0.149112
0.156148
0.159801
0.158442
0.150887
0.137318
0.121474
0.107277
0.0974906
0.0674363
0.0680499
0.0687274
0.0694911
0.0703925
0.0714504
0.0727265
0.0742327
0.0760531
0.0782141
0.0807961
0.0838623
0.0874882
0.0917594
0.0968355
0.10286
0.109945
0.118106
0.127277
0.137202
0.147342
0.156809
0.164276
0.168016
0.166283
0.157861
0.143052
0.125942
0.110946
0.100945
0.0688413
0.0695039
0.07023
0.0710422
0.0719951
0.0731037
0.0744433
0.0760227
0.0779431
0.0802313
0.0829786
0.0862539
0.0901387
0.0947285
0.100177
0.106686
0.114327
0.123138
0.133046
0.143742
0.154637
0.16476
0.172669
0.176491
0.174368
0.165023
0.148877
0.130445
0.114627
0.104468
0.0699308
0.0706167
0.0713771
0.0722337
0.0732452
0.0744299
0.0758617
0.0775528
0.079606
0.0820533
0.0849929
0.0885031
0.0926757
0.0976081
0.103484
0.110485
0.11874
0.128259
0.13894
0.150469
0.162181
0.173014
0.18138
0.185251
0.182648
0.172269
0.154708
0.134895
0.118294
0.108035
0.070789
0.0715239
0.072335
0.073247
0.0743207
0.0755742
0.0770911
0.078884
0.0810685
0.0836802
0.0868253
0.0905908
0.0950752
0.100386
0.106702
0.114265
0.123165
0.133433
0.144963
0.157377
0.169945
0.18151
0.190344
0.194256
0.191151
0.17967
0.160587
0.139344
0.121955
0.111672
0.0714409
0.0721928
0.0730302
0.0739797
0.075107
0.0764357
0.0780478
0.0799612
0.082293
0.0850861
0.0884532
0.092493
0.0973143
0.103027
0.10984
0.117976
0.127586
0.138666
0.151089
0.164452
0.177951
0.190301
0.199615
0.203526
0.199809
0.187111
0.166429
0.143709
0.125586
0.115356
0.0718561
0.0726514
0.0735328
0.0745289
0.0757127
0.0771034
0.0787994
0.0808159
0.0832881
0.0862612
0.0898589
0.0941895
0.0993698
0.10552
0.112845
0.12163
0.13198
0.143925
0.15732
0.171691
0.186159
0.199314
0.209117
0.213013
0.208657
0.194661
0.172268
0.148029
0.129193
0.119115
0.0719692
0.072777
0.0736809
0.0747116
0.0759474
0.0774144
0.0792096
0.0813543
0.0839874
0.0871617
0.0910098
0.0956526
0.10122
0.107834
0.115729
0.125174
0.13634
0.149215
0.163628
0.179085
0.194593
0.208611
0.218905
0.222727
0.217608
0.202191
0.178019
0.15223
0.132757
0.122927
0.0717948
0.0726414
0.0735847
0.0746593
0.0759497
0.077481
0.0793647
0.081623
0.0844113
0.0877881
0.0918967
0.0968701
0.102847
0.109961
0.118443
0.128629
0.140643
0.154506
0.170025
0.186621
0.203207
0.218104
0.228892
0.232619
0.2267
0.209772
0.183704
0.156342
0.136278
0.12682
0.0713262
0.0721811
0.0731415
0.0742462
0.0755843
0.07719
0.0791727
0.0815634
0.0845214
0.0881159
0.0924999
0.0978224
0.104236
0.111875
0.121004
0.131943
0.144886
0.159803
0.17648
0.194291
0.212036
0.227858
0.239131
0.242686
0.235825
0.21726
0.18924
0.160296
0.139744
0.130775
0.0705327
0.0714247
0.072423
0.0735672
0.0749585
0.0766243
0.078696
0.0812015
0.0843228
0.0881341
0.0928028
0.098492
0.105365
0.113569
0.123362
0.135139
0.149042
0.16508
0.183001
0.202085
0.221018
0.237774
0.249524
0.252879
0.245027
0.224722
0.194639
0.164111
0.143153
0.134822
0.0693477
0.0702458
0.0712597
0.072435
0.0738758
0.0756205
0.077798
0.0804458
0.0837517
0.0878016
0.0927755
0.098854
0.106217
0.115014
0.125536
0.138164
0.153116
0.170342
0.189558
0.209997
0.23019
0.247924
0.260124
0.263176
0.254174
0.232003
0.199823
0.167732
0.146498
0.138942
0.0678106
0.068741
0.0697874
0.0709995
0.0724912
0.0742993
0.0765707
0.0793452
0.0828302
0.087121
0.0924107
0.0988985
0.106777
0.116207
0.127478
0.141048
0.157081
0.175563
0.196166
0.218011
0.239486
0.258191
0.270822
0.273529
0.263316
0.239167
0.204786
0.171165
0.149777
0.143166
0.0659166
0.0668466
0.0679018
0.0691378
0.070673
0.0725557
0.0749311
0.0778502
0.0815273
0.0860727
0.0916933
0.0986095
0.107033
0.117125
0.129211
0.143737
0.160944
0.180748
0.202795
0.22612
0.248951
0.268653
0.281664
0.283898
0.272295
0.246051
0.209462
0.174368
0.152987
0.147479
0.0636203
0.0645817
0.0656691
0.0669378
0.0685227
0.0704643
0.0729336
0.0759803
0.0798446
0.0846455
0.0906075
0.0979719
0.106966
0.117766
0.13069
0.146265
0.164676
0.185878
0.209453
0.234308
0.258501
0.279178
0.292533
0.294237
0.281169
0.25271
0.213831
0.177336
0.156128
0.151911
0.0608755
0.0618342
0.0629292
0.0642226
0.0658535
0.0678741
0.0704546
0.0736557
0.0777276
0.0828048
0.0891288
0.0969647
0.106562
0.118102
0.131936
0.148578
0.168289
0.190956
0.216111
0.242572
0.268185
0.289849
0.303466
0.30448
0.289754
0.258976
0.217839
0.180042
0.159204
0.15645
0.0577075
0.0586927
0.0598142
0.0611377
0.062816
0.0648992
0.067579
0.0709203
0.0751959
0.0805536
0.0872521
0.0955808
0.105808
0.118131
0.132902
0.150711
0.171758
0.195963
0.222785
0.250887
0.277913
0.300517
0.314342
0.314588
0.298113
0.264898
0.221449
0.182475
0.162218
0.161129
0.0541306
0.055108
0.0562304
0.057573
0.0592918
0.0614507
0.0642401
0.0677386
0.0722301
0.0778816
0.0849693
0.093811
0.1047
0.117838
0.133618
0.152616
0.175095
0.200902
0.229445
0.25925
0.287737
0.311265
0.325182
0.324467
0.306038
0.270308
0.224623
0.184622
0.165178
0.165936
0.050127
0.0511255
0.0522697
0.0536342
0.0553951
0.0576096
0.060496
0.0641353
0.0688377
0.0747851
0.0822732
0.0916496
0.103226
0.11723
0.134049
0.154331
0.178278
0.205764
0.236101
0.267636
0.297552
0.321932
0.335859
0.334089
0.313599
0.275238
0.227315
0.186466
0.168091
0.170906
0.0456431
0.0466291
0.0477705
0.0491517
0.0509528
0.0532443
0.0562453
0.0600489
0.0649822
0.071244
0.0791553
0.0890886
0.101397
0.116299
0.134244
0.15581
0.181314
0.210543
0.242725
0.276043
0.307411
0.3326
0.34638
0.343324
0.320569
0.279533
0.229503
0.188014
0.170974
0.176026
0.0406952
0.0416976
0.0428552
0.0442565
0.0460986
0.0484518
0.0515581
0.0555199
0.0606838
0.067272
0.0756199
0.0861475
0.0992116
0.115102
0.134131
0.157091
0.184183
0.215234
0.24933
0.284441
0.317203
0.343091
0.356618
0.352157
0.327015
0.283213
0.231129
0.189243
0.173838
0.181336
0.0352778
0.0362636
0.0374157
0.0388345
0.0407208
0.0431595
0.0463907
0.0505308
0.0559446
0.0628728
0.0716876
0.0828227
0.0967224
0.113533
0.133782
0.158123
0.186903
0.219841
0.255893
0.292824
0.326979
0.353485
0.366553
0.360427
0.332698
0.286135
0.232195
0.190181
0.176705
0.186819
0.0293167
0.0303342
0.0315317
0.0329865
0.0349393
0.0374531
0.0408067
0.0451199
0.0507793
0.0580572
0.0673377
0.0791214
0.0938056
0.111677
0.133109
0.158949
0.189484
0.224375
0.262429
0.301165
0.336618
0.363593
0.376063
0.368127
0.33769
0.288303
0.232638
0.190801
0.179593
0.19252
0.0227691
0.0238018
0.0250295
0.0265411
0.0285705
0.0311994
0.0347014
0.0392149
0.0451437
0.0527834
0.0625515
0.0749763
0.0905397
0.109435
0.132181
0.159591
0.191956
0.228846
0.268914
0.309457
0.346166
0.373486
0.385101
0.375066
0.341742
0.289599
0.232483
0.191152
0.18253
0.198417
0.0160887
0.0171298
0.0183576
0.0198843
0.0219448
0.0246382
0.0282468
0.0329327
0.0391096
0.0471066
0.0573584
0.0704521
0.0868719
0.106906
0.131005
0.160065
0.194315
0.23325
0.275367
0.317667
0.355497
0.382963
0.393551
0.381252
0.344921
0.290017
0.231663
0.191211
0.185538
0.204559
0.00926654
0.0102701
0.0114633
0.0129694
0.0150338
0.0177705
0.0214668
0.0263036
0.032716
0.0410583
0.0517971
0.0655542
0.082899
0.104065
0.129608
0.16038
0.196581
0.237606
0.281757
0.325782
0.364648
0.392083
0.401332
0.386465
0.346986
0.289467
0.230231
0.191043
0.188652
0.210919
0.00210068
0.00308765
0.00425345
0.00574186
0.00780661
0.0105735
0.0143455
0.0193247
0.0259645
0.0346539
0.0458821
0.0603327
0.0785883
0.10098
0.127994
0.16054
0.198743
0.241887
0.288098
0.333767
0.373484
0.400638
0.40834
0.390722
0.348002
0.287928
0.228125
0.190627
0.191898
0.217546
-0.00539941
-0.00446023
-0.00333211
-0.00187311
0.000190324
0.00298982
0.00684163
0.0119636
0.0188376
0.02788
0.0396163
0.0547697
0.0740099
0.0976178
0.12618
0.160553
0.200815
0.246124
0.294347
0.341593
0.382027
0.408666
0.414459
0.393783
0.347742
0.285351
0.225422
0.190051
0.195314
0.224413
-0.0133518
-0.0124303
-0.0113315
-0.00988979
-0.00782675
-0.00499494
-0.00106438
0.00420649
0.0113205
0.0207318
0.032993
0.0488912
0.0691146
0.0940351
0.124167
0.160425
0.202793
0.250275
0.300525
0.349224
0.390136
0.415953
0.419599
0.395682
0.346262
0.281712
0.222067
0.189295
0.198932
0.231564
-0.021686
-0.0208108
-0.0197521
-0.0183378
-0.0162756
-0.0134077
-0.00939218
-0.00396752
0.00339904
0.0131937
0.0260075
0.0426713
0.0639585
0.0901894
0.121971
0.160166
0.20469
0.254388
0.306574
0.356615
0.397813
0.422515
0.42361
0.396164
0.343367
0.276999
0.218167
0.188464
0.202789
0.238971
-0.030461
-0.0296183
-0.028602
-0.0272143
-0.0251567
-0.0222556
-0.0181553
-0.0125686
-0.00493946
0.00525924
0.0186496
0.0361273
0.0584888
0.086134
0.119593
0.159784
0.206509
0.258397
0.312518
0.363726
0.404911
0.428134
0.426417
0.39527
0.339112
0.271184
0.213678
0.187543
0.20692
0.246672
-0.0396768
-0.038889
-0.0379156
-0.0365611
-0.0345045
-0.0315665
-0.0273735
-0.0216183
-0.0137114
-0.00308933
0.0109109
0.0292328
0.0527586
0.081827
0.117049
0.15929
0.208256
0.262371
0.318282
0.370495
0.411406
0.432798
0.427837
0.392754
0.33334
0.264309
0.208734
0.186651
0.211363
0.254641
-0.0494369
-0.0486784
-0.0477436
-0.0464099
-0.0443509
-0.0413684
-0.0370758
-0.0311369
-0.0229361
-0.0118622
0.00277833
0.0220076
0.0467223
0.0773231
0.114342
0.158694
0.209938
0.26622
0.323899
0.376879
0.41715
0.436291
0.42782
0.388671
0.326099
0.256345
0.203303
0.185777
0.216151
0.262908
-0.0596555
-0.0589513
-0.0580631
-0.0567611
-0.0547004
-0.0516733
-0.0472733
-0.0411428
-0.032625
-0.021077
-0.00574141
0.0144334
0.040456
0.072578
0.111478
0.158003
0.211562
0.270041
0.329272
0.382794
0.422089
0.438571
0.426156
0.382788
0.31729
0.247386
0.197546
0.185048
0.221318
0.271443
-0.070461
-0.0697926
-0.0689468
-0.0676672
-0.0655993
-0.0625156
-0.057999
-0.051654
-0.0428018
-0.0307258
-0.0146627
0.0065873
0.0338581
0.0676369
0.108455
0.157227
0.213135
0.273705
0.334442
0.38819
0.426067
0.439431
0.422824
0.375172
0.306963
0.237406
0.191448
0.18446
0.226893
0.280268
-0.0817994
-0.0811879
-0.0803881
-0.079138
-0.0770605
-0.07392
-0.0692717
-0.0627017
-0.0534682
-0.0408447
-0.0239336
-0.00169754
0.0270142
0.062438
0.105284
0.156383
0.214663
0.277337
0.339282
0.392958
0.429004
0.438796
0.417597
0.365628
0.295076
0.226554
0.185188
0.184143
0.232906
0.289355
-0.0938724
-0.0932811
-0.0925078
-0.0912592
-0.0891569
-0.0859286
-0.0811381
-0.0743095
-0.0646905
-0.0514487
-0.0337533
-0.0103202
0.0197933
0.0570136
0.102
0.155493
0.216155
0.280772
0.343845
0.397039
0.430736
0.436475
0.410487
0.35424
0.281682
0.214813
0.178769
0.184094
0.239378
0.298717
-0.106522
-0.105981
-0.105253
-0.104026
-0.101907
-0.0986052
-0.0936625
-0.086574
-0.0765343
-0.0626738
-0.0440398
-0.0194378
0.0122703
0.0514039
0.0986236
0.154574
0.217619
0.28417
0.347965
0.4003
0.431153
0.432367
0.401266
0.340862
0.266807
0.20238
0.172386
0.184441
0.246328
0.308323
-0.119968
-0.119459
-0.118772
-0.117558
-0.115416
-0.112022
-0.106912
-0.0995326
-0.0890436
-0.0744917
-0.0549171
-0.0289503
0.00443771
0.0456048
0.0951568
0.153623
0.219048
0.287308
0.351704
0.402664
0.430086
0.426309
0.389988
0.325589
0.250514
0.18925
0.166057
0.185184
0.25377
0.318177
-0.134169
-0.133724
-0.133096
-0.131911
-0.129747
-0.126262
-0.120964
-0.113266
-0.102275
-0.0869846
-0.0663196
-0.0389472
-0.00371508
0.0396107
0.0916026
0.152658
0.220449
0.290372
0.354851
0.403965
0.427398
0.418178
0.376434
0.308345
0.232893
0.175665
0.159984
0.186444
0.261709
0.328248
-0.149527
-0.149102
-0.148489
-0.147303
-0.145084
-0.141471
-0.135944
-0.127873
-0.116317
-0.100187
-0.0783822
-0.049411
-0.0122362
0.0333874
0.0879435
0.151651
0.221781
0.293082
0.357469
0.404111
0.422922
0.407849
0.360709
0.289244
0.214014
0.161632
0.154201
0.188217
0.270149
0.338531
-0.166099
-0.165708
-0.165106
-0.163893
-0.161584
-0.157802
-0.151995
-0.143488
-0.131283
-0.114225
-0.0911113
-0.0604644
-0.0211738
0.0269103
0.084172
0.150616
0.223061
0.295651
0.359297
0.402907
0.416497
0.395194
0.342621
0.26828
0.194036
0.147429
0.14891
0.190614
0.279081
0.34899
-0.184041
-0.183654
-0.18304
-0.181783
-0.179361
-0.175376
-0.169241
-0.160231
-0.14729
-0.129185
-0.104666
-0.0721315
-0.0305906
0.0201201
0.0802429
0.149501
0.224207
0.29773
0.360395
0.40024
0.407967
0.380144
0.322327
0.245579
0.173037
0.133076
0.144151
0.193629
0.288495
0.359614
-0.203314
-0.202961
-0.202354
-0.201056
-0.198514
-0.194307
-0.187807
-0.178235
-0.164473
-0.145208
-0.119101
-0.0845482
-0.0405665
0.0129505
0.0761201
0.148313
0.225236
0.299538
0.360448
0.395888
0.397164
0.362576
0.299674
0.221221
0.151236
0.118879
0.140118
0.197354
0.29837
0.370364
-0.224147
-0.223816
-0.223209
-0.221869
-0.219198
-0.214747
-0.207844
-0.19765
-0.182975
-0.162416
-0.134586
-0.0977893
-0.0511874
0.00533817
0.071749
0.146962
0.226015
0.300672
0.359508
0.389728
0.383962
0.342489
0.274876
0.195348
0.128718
0.104863
0.136855
0.201777
0.308682
0.381221
-0.246591
-0.246315
-0.245734
-0.244364
-0.241566
-0.236858
-0.229519
-0.218645
-0.202954
-0.180975
-0.151207
-0.112013
-0.0625726
-0.00280153
0.0670824
0.145443
0.22656
0.301342
0.35721
0.381526
0.368198
0.319791
0.247829
0.168114
0.105753
0.0913511
0.13454
0.206973
0.319395
0.392146
-0.270924
-0.270704
-0.270155
-0.268758
-0.265828
-0.260844
-0.253033
-0.241398
-0.224598
-0.200996
-0.169203
-0.127336
-0.0748322
-0.0115477
0.062034
0.143618
0.226668
0.301088
0.353595
0.37116
0.349797
0.294564
0.218799
0.139668
0.0824334
0.0783752
0.133207
0.212925
0.330477
0.40311
-0.297282
-0.297151
-0.296659
-0.295252
-0.292193
-0.286921
-0.278586
-0.266134
-0.248056
-0.222797
-0.188675
-0.143968
-0.0880974
-0.0210019
0.0565263
0.141455
0.226343
0.300082
0.348257
0.358394
0.328625
0.266755
0.187731
0.110244
0.05907
0.0662575
0.133011
0.219683
0.341879
0.414072
-0.325967
-0.325935
-0.325517
-0.324102
-0.320917
-0.315332
-0.30645
-0.293088
-0.273705
-0.246515
-0.209939
-0.1621
-0.102511
-0.0312776
0.0504188
0.138739
0.225286
0.297818
0.341224
0.343134
0.304687
0.236538
0.15494
0.0799978
0.0357579
0.055028
0.133974
0.227225
0.35356
0.424999
-0.357205
-0.357307
-0.356995
-0.355595
-0.352294
-0.346392
-0.336928
-0.322602
-0.301741
-0.272498
-0.233165
-0.18194
-0.118317
-0.0425767
0.0435762
0.135381
0.223476
0.294395
0.332062
0.325173
0.277896
0.203918
0.120416
0.0492258
0.0128396
0.0449991
0.136215
0.235577
0.365464
0.435847
-0.391321
-0.391582
-0.391391
-0.390021
-0.386603
-0.38037
-0.370276
-0.354915
-0.332455
-0.300931
-0.258587
-0.203704
-0.135715
-0.0550943
0.0357437
0.131056
0.220473
0.28927
0.32079
0.304475
0.248352
0.169161
0.0845025
0.0180819
-0.00959004
0.0361958
0.139737
0.244712
0.377548
0.446579
-0.428442
-0.428913
-0.428892
-0.427592
-0.424083
-0.417515
-0.406767
-0.390275
-0.366087
-0.332069
-0.286444
-0.227623
-0.154899
-0.0690293
0.0266993
0.125586
0.21619
0.282423
0.306972
0.280883
0.216053
0.132333
0.0472253
-0.0130756
-0.0311674
0.0289011
0.144616
0.25463
0.389748
0.457147
-0.468762
-0.469515
-0.469737
-0.468572
-0.465007
-0.458117
-0.446669
-0.428982
-0.402897
-0.366192
-0.316995
-0.253915
-0.176044
-0.0846423
0.0160556
0.118469
0.210018
0.27328
0.29061
0.254467
0.181221
0.0937853
0.00893612
-0.0440957
-0.0518036
0.0231215
0.150831
0.265297
0.402023
0.467512
-0.512527
-0.513644
-0.51419
-0.513226
-0.509661
-0.502461
-0.4903
-0.471315
-0.443222
-0.403567
-0.350525
-0.282817
-0.199387
-0.102256
0.00344127
0.109392
0.201751
0.261662
0.271274
0.225172
0.143973
0.0536494
-0.0303244
-0.0745696
-0.0711196
0.019102
0.158411
0.276688
0.41431
0.477627
-0.560113
-0.56166
-0.562596
-0.5619
-0.558371
-0.550881
-0.537968
-0.517623
-0.487325
-0.44454
-0.387347
-0.314569
-0.22521
-0.122302
-0.0117363
0.0976517
0.19058
0.246918
0.248935
0.193221
0.104686
0.0123402
-0.0702286
-0.104359
-0.0890379
0.0168247
0.167306
0.288763
0.426571
0.487451
-0.611746
-0.613814
-0.615229
-0.614874
-0.611441
-0.603681
-0.589997
-0.568187
-0.535544
-0.489388
-0.427849
-0.349638
-0.254047
-0.145342
-0.0300468
0.0827711
0.176108
0.228615
0.223122
0.158696
0.0636303
-0.0299768
-0.110753
-0.132998
-0.105172
0.0164754
0.177494
0.301469
0.438743
0.496941
-0.667744
-0.670417
-0.672394
-0.67246
-0.669183
-0.66117
-0.646687
-0.623291
-0.588154
-0.538382
-0.472265
-0.388339
-0.286461
-0.17209
-0.052289
0.0638881
0.157286
0.205879
0.193791
0.121793
0.0212328
-0.0729356
-0.151673
-0.160367
-0.119458
0.0180022
0.188899
0.314754
0.450795
0.506081
-0.728303
-0.731692
-0.734344
-0.734932
-0.731871
-0.723643
-0.708294
-0.68328
-0.645391
-0.591723
-0.520756
-0.430814
-0.322786
-0.203191
-0.0791405
0.0404992
0.13342
0.177985
0.160052
0.0815507
-0.0227493
-0.11667
-0.193146
-0.186003
-0.131559
0.0215104
0.20145
0.328521
0.462651
0.514927
-0.793704
-0.797921
-0.801367
-0.802575
-0.799821
-0.791402
-0.775213
-0.748399
-0.707567
-0.649545
-0.573353
-0.477074
-0.363196
-0.239193
-0.111283
0.0118502
0.103759
0.143373
0.119843
0.0364894
-0.0690797
-0.161558
-0.235228
-0.209691
-0.141519
0.0268604
0.215028
0.342678
0.47431
0.523581
-0.864193
-0.869375
-0.873756
-0.875714
-0.873371
-0.864818
-0.847749
-0.81904
-0.774995
-0.71212
-0.630038
-0.526984
-0.407912
-0.280516
-0.149125
-0.0221824
0.0666077
0.0985505
0.0694225
-0.0148689
-0.11899
-0.208458
-0.278021
-0.2305
-0.149057
0.0340488
0.229495
0.357085
0.485804
0.532121
-0.939953
-0.946275
-0.951753
-0.954619
-0.952803
-0.9442
-0.926222
-0.895491
-0.848003
-0.779967
-0.69117
-0.580794
-0.457367
-0.327502
-0.192727
-0.0631401
0.0160851
0.037055
0.0056835
-0.0733018
-0.173503
-0.257556
-0.320689
-0.247922
-0.154435
0.0428954
0.244663
0.371614
0.497169
0.540562
-1.02115
-1.02879
-1.03555
-1.0395
-1.03837
-1.0298
-1.01095
-0.978039
-0.926796
-0.853439
-0.75733
-0.639394
-0.512706
-0.379973
-0.239794
-0.11825
-0.0523671
-0.0431136
-0.0710932
-0.138235
-0.233185
-0.308112
-0.362014
-0.26123
-0.157622
0.0534281
0.260335
0.386129
0.508317
0.548874
-1.10786
-1.11704
-1.12531
-1.13056
-1.1303
-1.12192
-1.10222
-1.06705
-1.01174
-0.932882
-0.829237
-0.70585
-0.57763
-0.439948
-0.296991
-0.189932
-0.129066
-0.128475
-0.152848
-0.206719
-0.296656
-0.357774
-0.400238
-0.270372
-0.158729
0.0656187
0.276355
0.400628
0.5192
0.557014
-1.2001
-1.21107
-1.2211
-1.22791
-1.22877
-1.22077
-1.20038
-1.16292
-1.10332
-1.01839
-0.908223
-0.785453
-0.658943
-0.507563
-0.370704
-0.26393
-0.198714
-0.204669
-0.230827
-0.276651
-0.36229
-0.404584
-0.434401
-0.275059
-0.157276
0.0794425
0.292701
0.415088
0.529727
0.564966
-1.29776
-1.31081
-1.32291
-1.3316
-1.33388
-1.32654
-1.30564
-1.266
-1.20221
-1.11081
-1.00025
-0.880931
-0.746547
-0.584351
-0.448398
-0.328549
-0.259429
-0.271034
-0.302182
-0.347203
-0.428841
-0.447481
-0.464053
-0.275624
-0.153152
0.0947684
0.309528
0.42952
0.539874
0.572738
-1.40058
-1.41603
-1.43056
-1.44148
-1.44556
-1.43923
-1.41809
-1.37636
-1.30917
-1.21442
-1.1124
-0.99446
-0.830957
-0.666386
-0.518276
-0.385179
-0.314967
-0.3307
-0.367724
-0.417347
-0.494772
-0.485321
-0.488788
-0.271885
-0.145912
0.11159
0.326993
0.443901
0.549568
0.580321
-1.5081
-1.52632
-1.54364
-1.55723
-1.56352
-1.5586
-1.5375
-1.4942
-1.42338
-1.33523
-1.23762
-1.10525
-0.916038
-0.745538
-0.582467
-0.438267
-0.368004
-0.38535
-0.429272
-0.48581