/*--------------------------------*- C++ -*----------------------------------*\
  =========                 |
  \\      /  F ield         | OpenFOAM: The Open Source CFD Toolbox
   \\    /   O peration     | Website:  https://openfoam.org
    \\  /    A nd           | Version:  6.0
     \\/     M anipulation  |
\*---------------------------------------------------------------------------*/
FoamFile
{
    version     2.0;
    format      ascii;
    class       volScalarField;
    location    "15";
    object      p;
}
// * * * * * * * * * * * * * * * * * * * * * * * * * * * * * * * * * * * * * //

dimensions      [0 2 -2 0 0 0 0];

internalField   nonuniform List<scalar> 
34500
(
1.00843
1.00745
1.0061
1.00535
1.00509
1.00462
1.00394
1.00338
1.00307
1.00287
1.00261
1.00228
1.00177
1.00155
1.00152
1.00845
1.00751
1.00618
1.00547
1.00527
1.00487
1.00418
1.00357
1.00325
1.0031
1.0029
1.00264
1.00213
1.00208
1.00196
1.00848
1.00753
1.00615
1.00535
1.00511
1.00468
1.00389
1.00311
1.00259
1.00231
1.00209
1.00192
1.00159
1.00184
1.00183
1.00852
1.00759
1.00618
1.00534
1.00511
1.00478
1.00405
1.00321
1.00255
1.00214
1.00185
1.00169
1.00147
1.00191
1.00213
1.00857
1.00768
1.00627
1.00539
1.00519
1.00503
1.0045
1.00378
1.00311
1.00262
1.00224
1.00202
1.00179
1.00228
1.00256
1.00864
1.00778
1.00633
1.00534
1.00508
1.00499
1.00467
1.00413
1.00355
1.00307
1.00265
1.00238
1.00213
1.00261
1.00291
1.00871
1.00788
1.00637
1.0052
1.00474
1.00459
1.00437
1.00399
1.00355
1.00315
1.00277
1.00253
1.00232
1.00284
1.00322
1.00878
1.00801
1.00648
1.00514
1.00442
1.00411
1.00387
1.00359
1.00329
1.00301
1.00274
1.0026
1.00249
1.00309
1.00358
1.00887
1.0082
1.00673
1.0053
1.00437
1.00385
1.00354
1.0033
1.0031
1.00294
1.0028
1.00276
1.00276
1.00343
1.004
1.00896
1.00844
1.00713
1.00574
1.0047
1.00402
1.0036
1.00335
1.0032
1.00313
1.00307
1.00312
1.00318
1.00388
1.00446
1.00906
1.00873
1.00765
1.00641
1.00536
1.00459
1.00407
1.00377
1.00363
1.00359
1.00357
1.00364
1.00371
1.00438
1.00492
1.00916
1.00902
1.00821
1.00721
1.00625
1.00545
1.00486
1.0045
1.00432
1.00426
1.00422
1.00426
1.0043
1.00489
1.00535
1.00926
1.00929
1.00876
1.00801
1.0072
1.00644
1.00581
1.00539
1.00514
1.00502
1.00493
1.0049
1.00487
1.00537
1.00575
1.00935
1.00953
1.00923
1.00874
1.00811
1.00741
1.00677
1.00629
1.00597
1.00577
1.00561
1.0055
1.00538
1.0058
1.00611
1.00943
1.00971
1.0096
1.00933
1.00887
1.00826
1.00764
1.00712
1.00673
1.00646
1.00621
1.00602
1.00583
1.00617
1.00643
1.0095
1.00985
1.00988
1.00977
1.00947
1.00895
1.00836
1.00782
1.00738
1.00703
1.00672
1.00646
1.00622
1.0065
1.00672
1.00957
1.00995
1.01005
1.01007
1.00989
1.00946
1.00891
1.00837
1.00789
1.0075
1.00713
1.00681
1.00654
1.00679
1.007
1.00962
1.01002
1.01016
1.01026
1.01016
1.00981
1.00931
1.00878
1.00828
1.00786
1.00747
1.00711
1.00682
1.00707
1.00726
1.00967
1.01006
1.01021
1.01035
1.01032
1.01004
1.00959
1.00908
1.00858
1.00814
1.00773
1.00737
1.00708
1.00732
1.00752
1.00973
1.0101
1.01024
1.0104
1.0104
1.01018
1.00977
1.0093
1.00881
1.00837
1.00796
1.0076
1.00732
1.00757
1.00779
1.00977
1.01013
1.01025
1.01041
1.01044
1.01026
1.0099
1.00946
1.009
1.00857
1.00817
1.00781
1.00755
1.00782
1.00805
1.00983
1.01017
1.01027
1.01042
1.01047
1.01032
1.01001
1.0096
1.00916
1.00876
1.00837
1.00803
1.0078
1.00808
1.00832
1.00988
1.01022
1.0103
1.01044
1.01049
1.01037
1.0101
1.00973
1.00932
1.00894
1.00857
1.00825
1.00804
1.00834
1.00859
1.00995
1.01028
1.01035
1.01048
1.01054
1.01045
1.01021
1.00987
1.00949
1.00913
1.00879
1.00848
1.00829
1.00861
1.00888
1.01001
1.01035
1.01041
1.01054
1.01061
1.01054
1.01033
1.01003
1.00967
1.00933
1.00901
1.00872
1.00855
1.00888
1.00916
1.01009
1.01043
1.0105
1.01064
1.01071
1.01066
1.01048
1.01021
1.00988
1.00955
1.00925
1.00897
1.00882
1.00917
1.00945
1.01017
1.01052
1.01061
1.01075
1.01084
1.0108
1.01065
1.0104
1.01009
1.00979
1.0095
1.00923
1.0091
1.00945
1.00974
1.01026
1.01063
1.01073
1.01089
1.01099
1.01097
1.01084
1.01062
1.01033
1.01004
1.00977
1.00951
1.00939
1.00975
1.01004
1.01036
1.01074
1.01087
1.01105
1.01116
1.01116
1.01105
1.01085
1.01058
1.0103
1.01004
1.00978
1.00967
1.01004
1.01034
1.01046
1.01087
1.01102
1.01122
1.01136
1.01137
1.01129
1.0111
1.01084
1.01058
1.01032
1.01007
1.00997
1.01035
1.01065
1.01056
1.011
1.01118
1.01141
1.01157
1.0116
1.01153
1.01136
1.01112
1.01086
1.01061
1.01037
1.01027
1.01065
1.01095
1.01068
1.01113
1.01135
1.01161
1.01179
1.01184
1.01179
1.01164
1.0114
1.01115
1.01091
1.01067
1.01058
1.01096
1.01127
1.01079
1.01127
1.01153
1.01182
1.01202
1.01209
1.01206
1.01192
1.01169
1.01145
1.01121
1.01097
1.01088
1.01127
1.01157
1.01091
1.01141
1.01171
1.01203
1.01226
1.01235
1.01233
1.01221
1.01199
1.01176
1.01152
1.01128
1.0112
1.01159
1.01189
1.01103
1.01156
1.01189
1.01225
1.0125
1.01261
1.01261
1.0125
1.0123
1.01206
1.01183
1.01159
1.01151
1.01191
1.01221
1.01116
1.01171
1.01208
1.01247
1.01275
1.01288
1.0129
1.0128
1.01261
1.01238
1.01215
1.01191
1.01183
1.01223
1.01253
1.01128
1.01186
1.01227
1.0127
1.013
1.01315
1.01319
1.0131
1.01292
1.01269
1.01247
1.01222
1.01215
1.01255
1.01286
1.01142
1.01201
1.01246
1.01292
1.01325
1.01342
1.01348
1.01341
1.01323
1.01301
1.01279
1.01255
1.01248
1.01288
1.01319
1.01155
1.01217
1.01266
1.01315
1.01351
1.0137
1.01378
1.01372
1.01355
1.01334
1.01311
1.01287
1.0128
1.01321
1.01352
1.01169
1.01233
1.01285
1.01338
1.01377
1.01398
1.01408
1.01404
1.01388
1.01367
1.01345
1.0132
1.01314
1.01355
1.01386
1.01182
1.01248
1.01305
1.01362
1.01403
1.01426
1.01438
1.01435
1.0142
1.01399
1.01378
1.01353
1.01347
1.01388
1.01419
1.01196
1.01265
1.01325
1.01385
1.01429
1.01455
1.01469
1.01468
1.01453
1.01433
1.01411
1.01387
1.01381
1.01422
1.01454
1.01211
1.01281
1.01344
1.01409
1.01456
1.01484
1.015
1.015
1.01486
1.01467
1.01445
1.01421
1.01415
1.01456
1.01488
1.01225
1.01297
1.01365
1.01433
1.01483
1.01513
1.01531
1.01533
1.0152
1.01501
1.0148
1.01456
1.01449
1.01491
1.01523
1.0124
1.01313
1.01385
1.01457
1.0151
1.01542
1.01562
1.01566
1.01554
1.01535
1.01514
1.0149
1.01484
1.01526
1.01557
1.01255
1.0133
1.01405
1.01481
1.01537
1.01572
1.01594
1.01599
1.01589
1.01571
1.0155
1.01525
1.01519
1.01562
1.01593
1.0127
1.01347
1.01426
1.01505
1.01565
1.01602
1.01626
1.01633
1.01624
1.01606
1.01585
1.0156
1.01554
1.01597
1.01628
1.01285
1.01364
1.01446
1.0153
1.01593
1.01633
1.01659
1.01668
1.01659
1.01642
1.01621
1.01596
1.0159
1.01633
1.01664
1.013
1.0138
1.01467
1.01555
1.0162
1.01663
1.01692
1.01702
1.01695
1.01678
1.01657
1.01632
1.01626
1.01669
1.017
1.01316
1.01398
1.01488
1.0158
1.01649
1.01695
1.01726
1.01738
1.01731
1.01715
1.01694
1.01669
1.01663
1.01705
1.01737
1.01331
1.01415
1.01509
1.01605
1.01678
1.01726
1.01759
1.01773
1.01768
1.01751
1.01731
1.01706
1.01699
1.01742
1.01773
1.01347
1.01432
1.0153
1.01631
1.01707
1.01758
1.01794
1.01809
1.01805
1.01789
1.01769
1.01743
1.01737
1.01779
1.0181
1.01363
1.01449
1.01551
1.01656
1.01736
1.0179
1.01828
1.01845
1.01842
1.01827
1.01806
1.01781
1.01774
1.01816
1.01847
1.01379
1.01467
1.01573
1.01682
1.01765
1.01822
1.01863
1.01882
1.0188
1.01865
1.01845
1.01819
1.01812
1.01854
1.01884
1.01395
1.01484
1.01594
1.01708
1.01795
1.01855
1.01898
1.01919
1.01918
1.01904
1.01883
1.01857
1.01849
1.01891
1.01922
1.01411
1.01502
1.01616
1.01735
1.01825
1.01888
1.01934
1.01957
1.01957
1.01943
1.01923
1.01896
1.01888
1.0193
1.0196
1.01427
1.0152
1.01638
1.01761
1.01855
1.01921
1.0197
1.01995
1.01996
1.01983
1.01962
1.01935
1.01926
1.01968
1.01997
1.01444
1.01537
1.0166
1.01788
1.01886
1.01955
1.02007
1.02034
1.02036
1.02023
1.02002
1.01974
1.01965
1.02007
1.02036
1.0146
1.01555
1.01681
1.01814
1.01917
1.01989
1.02043
1.02072
1.02076
1.02063
1.02042
1.02014
1.02004
1.02045
1.02074
1.01476
1.01573
1.01704
1.01842
1.01948
1.02024
1.02081
1.02112
1.02117
1.02104
1.02083
1.02054
1.02044
1.02085
1.02114
1.01493
1.01591
1.01726
1.01869
1.01979
1.02059
1.02119
1.02152
1.02157
1.02145
1.02123
1.02094
1.02084
1.02124
1.02153
1.01509
1.01609
1.01748
1.01896
1.02011
1.02094
1.02157
1.02192
1.02199
1.02187
1.02165
1.02135
1.02124
1.02164
1.02192
1.01526
1.01627
1.0177
1.01924
1.02043
1.02129
1.02195
1.02232
1.02241
1.02229
1.02206
1.02176
1.02164
1.02203
1.02232
1.01543
1.01645
1.01793
1.01951
1.02075
1.02165
1.02234
1.02274
1.02283
1.02271
1.02248
1.02217
1.02205
1.02244
1.02272
1.01559
1.01663
1.01815
1.01979
1.02107
1.02201
1.02273
1.02315
1.02326
1.02314
1.0229
1.02258
1.02246
1.02284
1.02312
1.01576
1.01681
1.01838
1.02007
1.0214
1.02238
1.02313
1.02357
1.02369
1.02357
1.02333
1.02301
1.02287
1.02325
1.02353
1.01592
1.01699
1.0186
1.02035
1.02173
1.02275
1.02353
1.02399
1.02412
1.02401
1.02376
1.02342
1.02328
1.02365
1.02393
1.01609
1.01717
1.01883
1.02064
1.02206
1.02312
1.02394
1.02442
1.02456
1.02445
1.0242
1.02385
1.0237
1.02407
1.02434
1.01625
1.01735
1.01906
1.02092
1.02239
1.02349
1.02434
1.02485
1.025
1.02489
1.02463
1.02428
1.02412
1.02448
1.02475
1.01642
1.01753
1.01928
1.02121
1.02273
1.02387
1.02476
1.02529
1.02545
1.02534
1.02507
1.02471
1.02454
1.0249
1.02517
1.01658
1.01771
1.01951
1.02149
1.02307
1.02425
1.02517
1.02573
1.0259
1.02579
1.02551
1.02514
1.02496
1.02531
1.02558
1.01675
1.01789
1.01974
1.02178
1.02341
1.02464
1.02559
1.02617
1.02636
1.02624
1.02596
1.02558
1.02539
1.02573
1.026
1.01691
1.01807
1.01997
1.02207
1.02375
1.02502
1.02601
1.02662
1.02681
1.0267
1.02641
1.02601
1.02581
1.02615
1.02642
1.01708
1.01825
1.0202
1.02236
1.0241
1.02541
1.02644
1.02707
1.02728
1.02716
1.02686
1.02645
1.02625
1.02657
1.02684
1.01724
1.01842
1.02043
1.02266
1.02444
1.02581
1.02687
1.02753
1.02774
1.02762
1.02732
1.02689
1.02667
1.02699
1.02726
1.01741
1.0186
1.02066
1.02295
1.02479
1.0262
1.02731
1.02799
1.02821
1.02809
1.02778
1.02734
1.02711
1.02742
1.02769
1.01757
1.01878
1.02089
1.02325
1.02514
1.0266
1.02774
1.02845
1.02868
1.02856
1.02823
1.02778
1.02754
1.02784
1.02811
1.01773
1.01896
1.02112
1.02354
1.0255
1.027
1.02818
1.02892
1.02916
1.02904
1.0287
1.02823
1.02798
1.02827
1.02854
1.01789
1.01913
1.02135
1.02384
1.02585
1.02741
1.02863
1.02938
1.02964
1.02951
1.02916
1.02868
1.02841
1.0287
1.02896
1.01805
1.01931
1.02158
1.02414
1.02621
1.02782
1.02908
1.02986
1.03013
1.02999
1.02963
1.02913
1.02885
1.02913
1.0294
1.01821
1.01948
1.02181
1.02444
1.02657
1.02823
1.02953
1.03033
1.03061
1.03047
1.03009
1.02958
1.02929
1.02955
1.02982
1.01837
1.01966
1.02205
1.02474
1.02693
1.02864
1.02998
1.03082
1.0311
1.03096
1.03057
1.03004
1.02973
1.02999
1.03025
1.01852
1.01983
1.02228
1.02504
1.02729
1.02906
1.03044
1.0313
1.03159
1.03144
1.03104
1.03049
1.03017
1.03041
1.03068
1.01868
1.02
1.02251
1.02535
1.02766
1.02948
1.0309
1.03179
1.03209
1.03194
1.03151
1.03095
1.03061
1.03085
1.03111
1.01884
1.02017
1.02274
1.02565
1.02803
1.0299
1.03136
1.03228
1.03259
1.03243
1.03199
1.0314
1.03104
1.03127
1.03154
1.01899
1.02035
1.02298
1.02596
1.0284
1.03032
1.03183
1.03277
1.03309
1.03292
1.03247
1.03186
1.03149
1.0317
1.03197
1.01915
1.02052
1.02321
1.02626
1.02877
1.03075
1.0323
1.03327
1.0336
1.03342
1.03294
1.03231
1.03192
1.03213
1.0324
1.0193
1.02069
1.02344
1.02658
1.02915
1.03118
1.03277
1.03377
1.03411
1.03392
1.03343
1.03277
1.03237
1.03256
1.03283
1.01945
1.02086
1.02368
1.02688
1.02952
1.03161
1.03325
1.03427
1.03461
1.03442
1.0339
1.03323
1.0328
1.03298
1.03325
1.01961
1.02103
1.02391
1.0272
1.0299
1.03205
1.03373
1.03478
1.03513
1.03492
1.03439
1.03369
1.03324
1.03341
1.03368
1.01976
1.0212
1.02415
1.02751
1.03028
1.03249
1.03421
1.03528
1.03564
1.03542
1.03487
1.03414
1.03367
1.03383
1.0341
1.01991
1.02137
1.02439
1.02783
1.03067
1.03293
1.0347
1.0358
1.03616
1.03593
1.03535
1.0346
1.03411
1.03425
1.03452
1.02006
1.02154
1.02462
1.02815
1.03105
1.03338
1.03519
1.03631
1.03667
1.03643
1.03583
1.03505
1.03454
1.03466
1.03493
1.02021
1.02171
1.02487
1.02847
1.03145
1.03383
1.03568
1.03682
1.0372
1.03694
1.03632
1.03551
1.03497
1.03508
1.03535
1.02036
1.02188
1.02511
1.02879
1.03184
1.03427
1.03617
1.03734
1.03772
1.03745
1.03679
1.03596
1.0354
1.03549
1.03576
1.02051
1.02205
1.02535
1.02911
1.03223
1.03473
1.03667
1.03786
1.03824
1.03796
1.03728
1.03641
1.03582
1.0359
1.03617
1.02066
1.02222
1.02559
1.02944
1.03263
1.03519
1.03717
1.03839
1.03876
1.03846
1.03776
1.03686
1.03624
1.0363
1.03657
1.02082
1.0224
1.02584
1.02977
1.03303
1.03565
1.03767
1.03891
1.03929
1.03897
1.03824
1.03731
1.03666
1.0367
1.03698
1.02097
1.02257
1.02609
1.0301
1.03344
1.03611
1.03818
1.03944
1.03982
1.03948
1.03871
1.03774
1.03707
1.03709
1.03737
1.02112
1.02275
1.02634
1.03044
1.03385
1.03658
1.03869
1.03997
1.04035
1.03999
1.03919
1.03819
1.03748
1.03749
1.03776
1.02127
1.02293
1.0266
1.03078
1.03426
1.03705
1.0392
1.0405
1.04087
1.04049
1.03966
1.03862
1.03788
1.03787
1.03814
1.02143
1.02311
1.02686
1.03113
1.03467
1.03752
1.03971
1.04103
1.04141
1.041
1.04013
1.03905
1.03829
1.03825
1.03853
1.02159
1.02329
1.02712
1.03147
1.03509
1.038
1.04023
1.04156
1.04193
1.0415
1.0406
1.03948
1.03868
1.03862
1.0389
1.02175
1.02347
1.02738
1.03183
1.03552
1.03848
1.04075
1.0421
1.04246
1.04201
1.04107
1.0399
1.03907
1.03899
1.03926
1.02191
1.02366
1.02765
1.03218
1.03594
1.03896
1.04127
1.04264
1.04299
1.04251
1.04153
1.04032
1.03944
1.03934
1.03962
1.02207
1.02385
1.02793
1.03255
1.03638
1.03945
1.04179
1.04318
1.04352
1.04301
1.04199
1.04073
1.03982
1.03969
1.03997
1.02223
1.02405
1.02821
1.03291
1.03682
1.03995
1.04232
1.04371
1.04405
1.0435
1.04244
1.04114
1.04018
1.04003
1.04031
1.0224
1.02425
1.02849
1.03329
1.03726
1.04044
1.04285
1.04426
1.04458
1.044
1.04289
1.04154
1.04054
1.04037
1.04064
1.02257
1.02445
1.02878
1.03367
1.03771
1.04094
1.04338
1.04479
1.0451
1.04449
1.04333
1.04193
1.04089
1.04068
1.04096
1.02275
1.02466
1.02908
1.03406
1.03817
1.04145
1.04392
1.04534
1.04563
1.04498
1.04377
1.04231
1.04123
1.041
1.04128
1.02293
1.02488
1.02939
1.03445
1.03863
1.04196
1.04446
1.04588
1.04615
1.04546
1.0442
1.04268
1.04155
1.0413
1.04158
1.02312
1.0251
1.0297
1.03486
1.0391
1.04248
1.045
1.04642
1.04667
1.04594
1.04462
1.04305
1.04188
1.04159
1.04187
1.02331
1.02533
1.03003
1.03527
1.03958
1.043
1.04554
1.04696
1.04719
1.04641
1.04504
1.04341
1.04218
1.04186
1.04214
1.02351
1.02557
1.03036
1.03569
1.04006
1.04353
1.04609
1.0475
1.0477
1.04688
1.04545
1.04376
1.04248
1.04213
1.04241
1.02371
1.02581
1.0307
1.03612
1.04056
1.04406
1.04664
1.04805
1.04821
1.04734
1.04585
1.04409
1.04276
1.04238
1.04266
1.02392
1.02607
1.03106
1.03657
1.04106
1.0446
1.04719
1.04859
1.04872
1.0478
1.04624
1.04442
1.04303
1.04262
1.0429
1.02414
1.02633
1.03142
1.03702
1.04157
1.04515
1.04774
1.04913
1.04923
1.04825
1.04662
1.04473
1.04328
1.04284
1.04312
1.02437
1.02661
1.0318
1.03749
1.0421
1.0457
1.0483
1.04967
1.04973
1.0487
1.047
1.04503
1.04353
1.04305
1.04333
1.02461
1.02689
1.03219
1.03797
1.04263
1.04626
1.04886
1.05021
1.05023
1.04913
1.04736
1.04532
1.04375
1.04324
1.04352
1.02485
1.0272
1.0326
1.03847
1.04318
1.04683
1.04943
1.05075
1.05072
1.04956
1.04771
1.0456
1.04397
1.04341
1.0437
1.02511
1.02751
1.03302
1.03897
1.04373
1.0474
1.05
1.05129
1.05121
1.04998
1.04805
1.04585
1.04416
1.04356
1.04385
1.02538
1.02784
1.03347
1.0395
1.04431
1.04799
1.05057
1.05183
1.05169
1.05039
1.04838
1.0461
1.04433
1.04371
1.044
1.02566
1.02818
1.03392
1.04004
1.04489
1.04858
1.05115
1.05236
1.05217
1.05079
1.04869
1.04632
1.04449
1.04382
1.04411
1.02596
1.02854
1.0344
1.04061
1.04549
1.04919
1.05173
1.0529
1.05264
1.05118
1.049
1.04654
1.04463
1.04392
1.04421
1.02626
1.02892
1.0349
1.04119
1.04611
1.0498
1.05231
1.05343
1.0531
1.05156
1.04928
1.04673
1.04475
1.04399
1.04429
1.02659
1.02932
1.03542
1.04179
1.04674
1.05043
1.0529
1.05397
1.05356
1.05194
1.04956
1.04691
1.04485
1.04405
1.04435
1.02693
1.02973
1.03596
1.04241
1.04739
1.05106
1.05349
1.0545
1.05401
1.05229
1.04981
1.04706
1.04492
1.04407
1.04438
1.02729
1.03018
1.03653
1.04306
1.04806
1.05171
1.05409
1.05503
1.05446
1.05264
1.05006
1.0472
1.04498
1.04409
1.04439
1.02766
1.03063
1.03712
1.04373
1.04875
1.05237
1.0547
1.05555
1.05489
1.05297
1.05028
1.04732
1.045
1.04406
1.04437
1.02805
1.03112
1.03774
1.04443
1.04946
1.05305
1.05531
1.05608
1.05532
1.05329
1.05049
1.04741
1.04501
1.04402
1.04433
1.02847
1.03163
1.03838
1.04516
1.05019
1.05374
1.05592
1.0566
1.05574
1.0536
1.05067
1.04749
1.04499
1.04395
1.04426
1.02891
1.03217
1.03906
1.04591
1.05095
1.05444
1.05654
1.05712
1.05615
1.05389
1.05084
1.04754
1.04495
1.04385
1.04417
1.02936
1.03273
1.03977
1.04669
1.05172
1.05516
1.05716
1.05764
1.05654
1.05417
1.05099
1.04756
1.04487
1.04372
1.04404
1.02985
1.03333
1.04052
1.04751
1.05253
1.0559
1.0578
1.05815
1.05694
1.05443
1.05112
1.04756
1.04477
1.04356
1.04389
1.03035
1.03395
1.04129
1.04836
1.05336
1.05665
1.05843
1.05866
1.05731
1.05467
1.05123
1.04754
1.04464
1.04336
1.0437
1.03089
1.03461
1.04211
1.04924
1.05422
1.05742
1.05908
1.05917
1.05768
1.0549
1.05131
1.04749
1.04448
1.04314
1.04349
1.03144
1.03529
1.04296
1.05016
1.0551
1.05821
1.05973
1.05968
1.05804
1.05511
1.05137
1.04741
1.04428
1.04288
1.04324
1.03204
1.03602
1.04385
1.05112
1.05602
1.05901
1.06039
1.06018
1.05838
1.0553
1.05141
1.0473
1.04406
1.04259
1.04296
1.03265
1.03678
1.04478
1.05211
1.05696
1.05984
1.06105
1.06067
1.05871
1.05547
1.05143
1.04716
1.04379
1.04225
1.04264
1.03331
1.03758
1.04576
1.05315
1.05794
1.06068
1.06173
1.06117
1.05903
1.05562
1.05141
1.04699
1.04349
1.04189
1.0423
1.03399
1.03842
1.04678
1.05423
1.05896
1.06155
1.0624
1.06165
1.05934
1.05575
1.05138
1.04679
1.04316
1.04148
1.04191
1.03471
1.03931
1.04785
1.05535
1.06
1.06244
1.06309
1.06214
1.05963
1.05586
1.05131
1.04655
1.04278
1.04103
1.0415
1.03546
1.04023
1.04897
1.05652
1.06109
1.06335
1.06378
1.06262
1.0599
1.05595
1.05121
1.04628
1.04236
1.04054
1.04104
1.03625
1.0412
1.05014
1.05773
1.06221
1.06428
1.06449
1.06309
1.06016
1.05601
1.05109
1.04597
1.0419
1.04001
1.04055
1.03708
1.04222
1.05135
1.059
1.06336
1.06523
1.06519
1.06355
1.06041
1.05605
1.05093
1.04562
1.0414
1.03943
1.04002
1.03795
1.04329
1.05263
1.06031
1.06456
1.06621
1.06591
1.06401
1.06063
1.05606
1.05075
1.04524
1.04085
1.03881
1.03946
1.03885
1.0444
1.05395
1.06168
1.0658
1.06721
1.06663
1.06446
1.06084
1.05605
1.05052
1.0448
1.04025
1.03814
1.03884
1.03981
1.04557
1.05534
1.0631
1.06708
1.06824
1.06736
1.06491
1.06103
1.05602
1.05026
1.04433
1.0396
1.03742
1.0382
1.04081
1.04678
1.05678
1.06457
1.06839
1.06929
1.0681
1.06534
1.06121
1.05595
1.04997
1.04381
1.0389
1.03665
1.03751
1.04185
1.04806
1.05828
1.0661
1.06976
1.07037
1.06884
1.06577
1.06136
1.05586
1.04963
1.04323
1.03815
1.03585
1.03678
1.04294
1.04939
1.05984
1.06768
1.07116
1.07146
1.06958
1.06618
1.06149
1.05573
1.04925
1.04261
1.03734
1.03498
1.03601
1.04408
1.05078
1.06147
1.06932
1.07261
1.07259
1.07034
1.06659
1.0616
1.05557
1.04883
1.04194
1.03648
1.03407
1.0352
1.04527
1.05222
1.06316
1.07102
1.0741
1.07373
1.07109
1.06698
1.06168
1.05538
1.04837
1.0412
1.03556
1.03311
1.03435
1.04652
1.05373
1.06492
1.07278
1.07563
1.07491
1.07185
1.06736
1.06174
1.05515
1.04785
1.04041
1.03459
1.0321
1.03346
1.04781
1.0553
1.06674
1.0746
1.07721
1.0761
1.07261
1.06773
1.06178
1.05488
1.04728
1.03957
1.03355
1.03103
1.03253
1.04917
1.05694
1.06863
1.07649
1.07884
1.07732
1.07338
1.06808
1.06179
1.05457
1.04666
1.03865
1.03246
1.02992
1.03157
1.05058
1.05864
1.07059
1.07843
1.08051
1.07856
1.07415
1.06842
1.06177
1.05423
1.04598
1.03768
1.0313
1.02876
1.03056
1.05205
1.06041
1.07262
1.08044
1.08223
1.07982
1.07491
1.06874
1.06171
1.05383
1.04524
1.03664
1.03008
1.02755
1.02953
1.05357
1.06224
1.07472
1.0825
1.08398
1.0811
1.07568
1.06904
1.06163
1.05339
1.04445
1.03553
1.02879
1.02628
1.02846
1.05517
1.06415
1.0769
1.08464
1.08579
1.08241
1.07644
1.06933
1.06151
1.05289
1.04358
1.03436
1.02745
1.02497
1.02736
1.05682
1.06612
1.07914
1.08683
1.08763
1.08373
1.0772
1.06959
1.06135
1.05234
1.04266
1.03311
1.02604
1.0236
1.02621
1.05854
1.06817
1.08146
1.08909
1.08953
1.08507
1.07795
1.06982
1.06115
1.05174
1.04166
1.03179
1.02456
1.02219
1.02505
1.06032
1.07029
1.08385
1.09141
1.09146
1.08642
1.0787
1.07003
1.06091
1.05108
1.0406
1.0304
1.02302
1.02072
1.02384
1.06218
1.07248
1.08632
1.0938
1.09343
1.0878
1.07944
1.07022
1.06062
1.05036
1.03946
1.02894
1.02142
1.01922
1.02262
1.0641
1.07474
1.08885
1.09624
1.09544
1.08918
1.08016
1.07037
1.06029
1.04958
1.03825
1.0274
1.01975
1.01765
1.02136
1.0661
1.07709
1.09147
1.09875
1.09749
1.09058
1.08088
1.07049
1.05991
1.04872
1.03696
1.02578
1.01801
1.01605
1.02008
1.06816
1.07951
1.09415
1.10131
1.09957
1.09198
1.08157
1.07057
1.05947
1.04781
1.0356
1.02408
1.0162
1.01439
1.01877
1.07031
1.082
1.09692
1.10394
1.1017
1.09339
1.08225
1.07062
1.05898
1.04682
1.03415
1.02231
1.01433
1.01269
1.01744
1.07252
1.08457
1.09974
1.10661
1.10385
1.0948
1.08291
1.07062
1.05843
1.04576
1.03263
1.02046
1.01239
1.01094
1.01608
1.07482
1.08722
1.10265
1.10935
1.10603
1.09622
1.08354
1.07058
1.05782
1.04462
1.03102
1.01852
1.01039
1.00915
1.01471
1.07719
1.08994
1.10562
1.11214
1.10823
1.09762
1.08414
1.07049
1.05715
1.04342
1.02934
1.01651
1.00832
1.00732
1.01332
1.07965
1.09275
1.10867
1.11498
1.11047
1.09903
1.08471
1.07035
1.05641
1.04213
1.02756
1.01442
1.00618
1.00544
1.01192
1.08217
1.09563
1.11177
1.11787
1.11271
1.10042
1.08524
1.07015
1.0556
1.04077
1.02571
1.01225
1.00398
1.00352
1.0105
1.08479
1.09859
1.11496
1.1208
1.11498
1.1018
1.08574
1.0699
1.05473
1.03933
1.02377
1.01
1.00171
1.00157
1.00907
1.08749
1.10162
1.11819
1.12378
1.11725
1.10316
1.08618
1.06959
1.05378
1.03781
1.02176
1.00766
0.999383
0.999576
1.00763
1.09027
1.10474
1.1215
1.1268
1.11954
1.10449
1.08658
1.06921
1.05276
1.03621
1.01964
1.00525
0.996989
0.997552
1.0062
1.09314
1.10792
1.12486
1.12984
1.12182
1.1058
1.08693
1.06877
1.05167
1.03453
1.01746
1.00275
0.994533
0.995488
1.00476
1.09609
1.11118
1.12829
1.13293
1.12411
1.10707
1.08721
1.06825
1.0505
1.03277
1.01518
1.00017
0.992015
0.9934
1.00333
1.09913
1.11451
1.13176
1.13603
1.12638
1.10829
1.08743
1.06767
1.04926
1.03093
1.01282
0.997521
0.989436
0.991276
1.0019
1.10226
1.11793
1.13529
1.13916
1.12864
1.10947
1.08758
1.067
1.04794
1.02901
1.01037
0.994783
0.986799
0.989133
1.00049
1.10547
1.1214
1.13886
1.14231
1.13087
1.11059
1.08766
1.06627
1.04655
1.02701
1.00784
0.99197
0.984104
0.98696
0.999078
1.10878
1.12495
1.14249
1.14547
1.13308
1.11165
1.08765
1.06545
1.04507
1.02493
1.00523
0.989074
0.981354
0.984773
0.997698
1.11216
1.12857
1.14615
1.14862
1.13524
1.11263
1.08756
1.06455
1.04353
1.02278
1.00253
0.986104
0.978549
0.982561
0.996329
1.11565
1.13225
1.14985
1.15178
1.13737
1.11354
1.08737
1.06356
1.04191
1.02054
0.999751
0.983052
0.975693
0.980343
0.994995
1.11921
1.13599
1.15357
1.15493
1.13943
1.11436
1.08709
1.0625
1.04022
1.01824
0.996893
0.979928
0.972786
0.978106
0.99368
1.12287
1.13981
1.15733
1.15806
1.14143
1.11508
1.08671
1.06134
1.03845
1.01585
0.993948
0.976724
0.969833
0.97587
0.992409
1.12661
1.14367
1.1611
1.16115
1.14334
1.11569
1.08622
1.0601
1.03661
1.0134
0.990929
0.973446
0.966833
0.973622
0.991167
1.13044
1.1476
1.16489
1.16422
1.14518
1.11619
1.08562
1.05878
1.03471
1.01087
0.987824
0.970092
0.963793
0.97138
0.989981
1.13436
1.15158
1.16868
1.16724
1.14691
1.11656
1.0849
1.05737
1.03274
1.00828
0.984646
0.966665
0.960711
0.969136
0.988835
1.13837
1.15561
1.17249
1.1702
1.14853
1.1168
1.08406
1.05587
1.0307
1.00561
0.981383
0.963164
0.957594
0.966907
0.987754
1.14245
1.15969
1.17628
1.17309
1.15003
1.11689
1.08309
1.05429
1.02861
1.00288
0.978045
0.95959
0.95444
0.964682
0.986725
1.14663
1.16382
1.18006
1.1759
1.1514
1.11682
1.082
1.05262
1.02645
1.00007
0.974624
0.955945
0.951257
0.962483
0.985771
1.15089
1.16799
1.18382
1.17862
1.15261
1.11659
1.08078
1.05088
1.02425
0.997203
0.971127
0.952228
0.948042
0.960298
0.98488
1.15524
1.1722
1.18755
1.18124
1.15366
1.11619
1.07942
1.04906
1.02198
0.994266
0.967547
0.948441
0.944806
0.958148
0.984075
1.15966
1.17644
1.19124
1.18373
1.15452
1.1156
1.07792
1.04717
1.01968
0.991267
0.963888
0.944582
0.941543
0.956022
0.983345
1.16417
1.18072
1.19488
1.1861
1.1552
1.11481
1.07629
1.0452
1.01732
0.988198
0.960145
0.940656
0.938267
0.953942
0.982712
1.16876
1.18502
1.19847
1.18832
1.15567
1.11383
1.07452
1.04317
1.01492
0.985064
0.956319
0.936656
0.934969
0.951896
0.982167
1.17344
1.18935
1.20199
1.19037
1.15592
1.11262
1.07261
1.04107
1.01247
0.981859
0.952406
0.932594
0.931667
0.949909
0.98173
1.17819
1.19369
1.20543
1.19225
1.15592
1.1112
1.07056
1.03891
1.00999
0.978585
0.948403
0.928458
0.928351
0.947969
0.981393
1.18303
1.19806
1.20878
1.19393
1.15568
1.10955
1.06838
1.0367
1.00746
0.975236
0.94431
0.924261
0.925039
0.946101
0.981179
1.18794
1.20243
1.21204
1.1954
1.15516
1.10766
1.06606
1.03444
1.00489
0.971809
0.940119
0.919991
0.921721
0.944293
0.981078
1.19294
1.20682
1.21518
1.19665
1.15436
1.10552
1.0636
1.03213
1.00228
0.968299
0.935832
0.915665
0.918419
0.942573
0.981112
1.19802
1.2112
1.21821
1.19765
1.15326
1.10313
1.06102
1.02979
0.999634
0.9647
0.931439
0.911267
0.915121
0.94093
0.981275
1.2032
1.2156
1.2211
1.19839
1.15184
1.10049
1.05831
1.0274
0.996935
0.961006
0.926941
0.906816
0.911852
0.939392
0.981587
1.20845
1.21999
1.22385
1.19885
1.15009
1.09758
1.05548
1.02499
0.994188
0.957208
0.922327
0.902298
0.9086
0.937949
0.982045
1.2138
1.22438
1.22644
1.19901
1.14798
1.0944
1.05253
1.02253
0.991382
0.953297
0.917601
0.897734
0.905393
0.93663
0.982667
1.21924
1.22876
1.22887
1.19886
1.14551
1.09096
1.04947
1.02005
0.988511
0.94926
0.912747
0.893107
0.902221
0.935428
0.983453
1.22478
1.23314
1.23112
1.19837
1.14266
1.08723
1.04629
1.01754
0.985563
0.94509
0.907773
0.888444
0.899113
0.934373
0.984421
1.23041
1.23751
1.23318
1.19752
1.13942
1.08324
1.04302
1.015
0.982527
0.940768
0.902661
0.883727
0.896062
0.933459
0.985571
1.23617
1.24188
1.23504
1.19631
1.13577
1.07896
1.03966
1.01241
0.979384
0.936286
0.897419
0.878987
0.893098
0.932717
0.986921
1.24202
1.24624
1.23668
1.19469
1.13169
1.07442
1.0362
1.00979
0.97612
0.931621
0.892032
0.874208
0.890218
0.932144
0.988473
1.24801
1.2506
1.23811
1.19267
1.12718
1.06961
1.03266
1.00711
0.972711
0.926764
0.886509
0.869423
0.887455
0.931771
0.990243
1.25412
1.25496
1.2393
1.19022
1.12223
1.06453
1.02904
1.00436
0.969133
0.921689
0.880836
0.864621
0.884809
0.9316
0.992234
1.26037
1.25933
1.24025
1.18732
1.11683
1.0592
1.02535
1.00152
0.965358
0.916387
0.875024
0.859837
0.882316
0.931661
0.994462
1.26676
1.2637
1.24093
1.18395
1.11098
1.05363
1.02158
0.998582
0.961353
0.910828
0.869061
0.855064
0.879979
0.931959
0.996927
1.27331
1.2681
1.24136
1.18011
1.10468
1.04784
1.01775
0.995501
0.957084
0.905005
0.862964
0.850342
0.877838
0.932524
0.999646
1.28003
1.27252
1.24151
1.17577
1.09794
1.04185
1.01384
0.992252
0.952509
0.898886
0.856723
0.84567
0.875899
0.933363
1.00262
1.28693
1.27697
1.24137
1.17093
1.09077
1.03569
1.00986
0.98879
0.947587
0.892465
0.850361
0.841091
0.874204
0.934506
1.00587
1.29401
1.28146
1.24094
1.16558
1.08319
1.02939
1.0058
0.98507
0.94227
0.885711
0.843873
0.836612
0.872765
0.935962
1.00939
1.30129
1.28601
1.24019
1.15972
1.07524
1.023
1.00165
0.981034
0.936508
0.87862
0.837287
0.832279
0.871625
0.93776
1.0132
1.30878
1.29062
1.23913
1.15333
1.06697
1.01657
0.9974
0.976622
0.930247
0.871166
0.830608
0.828105
0.8708
0.93991
1.01728
1.3165
1.2953
1.23773
1.14644
1.05842
1.01016
0.99303
0.971764
0.923436
0.863352
0.82387
0.824143
0.870333
0.942438
1.02166
1.32444
1.30006
1.23598
1.13904
1.04968
1.00385
0.988519
0.966386
0.916021
0.85516
0.817088
0.820412
0.870241
0.945352
1.02632
1.33263
1.3049
1.23387
1.13114
1.04083
0.997715
0.983843
0.960411
0.907955
0.846605
0.810307
0.816966
0.870566
0.948673
1.03127
1.34106
1.30984
1.23135
1.12277
1.03199
0.991847
0.978972
0.953764
0.899198
0.837687
0.803552
0.813832
0.871325
0.952405
1.0365
1.34975
1.31487
1.22841
1.11395
1.02327
0.986338
0.973875
0.946384
0.889732
0.828446
0.796882
0.811065
0.872552
0.956556
1.042
1.35869
1.31997
1.22501
1.1047
1.01481
0.981265
0.968516
0.938228
0.879561
0.818917
0.790339
0.808693
0.874257
0.961122
1.04775
1.36791
1.32515
1.22111
1.09507
1.00673
0.976669
0.962856
0.929302
0.868747
0.80919
0.784001
0.806769
0.876459
0.96609
1.05372
1.37739
1.33036
1.21665
1.08511
0.999144
0.972506
0.956855
0.919685
0.857411
0.79937
0.777934
0.805317
0.879152
0.971435
1.05988
1.38714
1.33558
1.21161
1.07492
0.99209
0.968551
0.950453
0.909612
0.845837
0.789664
0.772248
0.804376
0.882323
0.977106
1.06615
1.39715
1.34074
1.20593
1.06465
0.985527
0.964287
0.943474
0.899456
0.834502
0.780396
0.767095
0.803979
0.885933
0.983035
1.07247
1.40745
1.34576
1.19964
1.0545
0.979217
0.958897
0.935644
0.889666
0.824102
0.772096
0.762765
0.80423
0.889967
0.989138
1.07873
1.41802
1.35054
1.19279
1.04459
0.972643
0.951412
0.926775
0.880663
0.815366
0.765377
0.759631
0.805296
0.894447
0.995359
1.08486
1.42887
1.35498
1.1855
1.03491
0.965152
0.941262
0.917075
0.872851
0.808914
0.760816
0.7581
0.807399
0.899444
1.00166
1.09075
1.43997
1.35902
1.17782
1.02514
0.956307
0.928872
0.907335
0.866629
0.805034
0.758689
0.758402
0.810692
0.905021
1.00803
1.09639
1.45134
1.36294
1.16962
1.01424
0.946069
0.915899
0.898935
0.862581
0.803735
0.758888
0.760481
0.815154
0.911154
1.01443
1.10169
1.46308
1.3671
1.16014
1.00067
0.934864
0.904958
0.893764
0.861542
0.804844
0.760929
0.763908
0.820499
0.917666
1.02073
1.1066
1.4757
1.37115
1.14839
0.983751
0.923702
0.898688
0.893821
0.864407
0.808166
0.764174
0.768053
0.826247
0.924234
1.02672
1.11099
1.48997
1.37372
1.13337
0.964751
0.914506
0.89918
0.900486
0.87152
0.813291
0.767908
0.772216
0.831858
0.930494
1.03217
1.11474
1.50651
1.37301
1.11288
0.945808
0.908945
0.907453
0.914007
0.882381
0.819504
0.771433
0.775823
0.836915
0.936175
1.03692
1.11779
1.52552
1.36726
1.08433
0.927859
0.906112
0.921972
0.933076
0.895656
0.825834
0.774159
0.778569
0.841322
0.9413
1.04108
1.12022
1.54672
1.35541
1.04983
0.910311
0.902104
0.937365
0.954033
0.909042
0.831094
0.775697
0.780564
0.84545
0.946344
1.04517
1.12233
1.56849
1.33824
1.01829
0.891539
0.892653
0.945918
0.970403
0.918646
0.833328
0.775319
0.78187
0.849842
0.952087
1.05005
1.12467
1.58723
1.31993
0.99789
0.869698
0.876341
0.943011
0.975281
0.919805