/*--------------------------------*- C++ -*----------------------------------*\
  =========                 |
  \\      /  F ield         | OpenFOAM: The Open Source CFD Toolbox
   \\    /   O peration     | Website:  https://openfoam.org
    \\  /    A nd           | Version:  6.0
     \\/     M anipulation  |
\*---------------------------------------------------------------------------*/
FoamFile
{
    version     2.0;
    format      ascii;
    class       volScalarField;
    location    "12";
    object      p;
}
// * * * * * * * * * * * * * * * * * * * * * * * * * * * * * * * * * * * * * //

dimensions      [0 2 -2 0 0 0 0];

internalField   nonuniform List<scalar> 
62000
(
0.0265006
0.0264987
0.0264971
0.0264947
0.0264938
0.0264937
0.0264967
0.0265022
0.0265128
0.0265277
0.0265502
0.0265788
0.0266177
0.0266645
0.0267244
0.0267939
0.0268793
0.0269763
0.0270918
0.0272211
0.0273714
0.0275374
0.027727
0.0279337
0.0281659
0.0284158
0.028692
0.0289858
0.029305
0.0296412
0.0300023
0.0303817
0.0307768
0.0311667
0.0315331
0.0318739
0.0321942
0.0324991
0.0327981
0.0331074
0.0334539
0.0338714
0.0343985
0.035065
0.035877
0.0368035
0.037744
0.0385698
0.0390902
0.0392052
0.0388895
0.0382823
0.0377661
0.0373155
0.0371315
0.0366922
0.0359857
0.033778
0.0325191
0.0343819
0.0266083
0.0265465
0.0264974
0.0264578
0.0264292
0.0264102
0.026402
0.0264032
0.0264154
0.0264366
0.0264693
0.0265109
0.0265647
0.0266274
0.0267033
0.0267884
0.026888
0.0269979
0.0271238
0.0272618
0.0274179
0.0275883
0.0277792
0.0279866
0.0282164
0.0284644
0.0287355
0.0290258
0.0293383
0.0296705
0.0300245
0.0304012
0.0307947
0.031184
0.0315534
0.0319006
0.0322307
0.0325505
0.0328704
0.0332094
0.033597
0.034071
0.0346756
0.0354473
0.036401
0.0375135
0.0386887
0.0397952
0.0406252
0.0410552
0.041028
0.0406762
0.0404264
0.0402919
0.0405625
0.0406941
0.040737
0.0390064
0.0391119
0.0396734
0.0266119
0.0265408
0.0264805
0.026429
0.0263875
0.0263556
0.0263353
0.0263254
0.0263283
0.0263423
0.02637
0.026409
0.0264627
0.0265275
0.0266077
0.0266989
0.0268061
0.0269248
0.0270604
0.0272086
0.0273752
0.0275562
0.0277573
0.0279747
0.0282138
0.0284708
0.0287499
0.0290481
0.029367
0.0297053
0.0300636
0.030444
0.0308386
0.0312267
0.031591
0.0319285
0.0322428
0.0325387
0.032826
0.0331225
0.0334563
0.0338651
0.0343931
0.035079
0.0359407
0.036958
0.0380343
0.0390278
0.0397034
0.0398914
0.0394707
0.0385181
0.0374465
0.0362965
0.0354967
0.0346481
0.0340739
0.0321417
0.032337
0.0312899
0.0265631
0.0265311
0.0265009
0.0264726
0.0264477
0.026426
0.0264102
0.0264002
0.026399
0.026406
0.026425
0.0264543
0.0264983
0.026554
0.0266265
0.0267117
0.0268148
0.0269314
0.0270668
0.0272166
0.0273864
0.0275717
0.0277781
0.0280015
0.028247
0.0285105
0.028796
0.0291003
0.0294248
0.0297684
0.0301311
0.0305151
0.0309115
0.0312977
0.0316578
0.031987
0.0322879
0.0325653
0.0328289
0.0330969
0.0333984
0.0337732
0.0342702
0.0349356
0.0357989
0.0368527
0.0380128
0.039141
0.0399865
0.0403391
0.0399994
0.0389637
0.0375706
0.0358445
0.0342629
0.0325781
0.0313559
0.0291598
0.0288883
0.027944
0.0265422
0.0265241
0.0265051
0.0264859
0.0264681
0.0264517
0.0264393
0.0264309
0.0264297
0.0264354
0.0264518
0.0264779
0.0265184
0.0265709
0.0266407
0.0267241
0.0268269
0.0269446
0.027083
0.0272372
0.0274131
0.0276056
0.0278202
0.028052
0.028306
0.0285776
0.0288704
0.0291811
0.0295111
0.0298592
0.0302261
0.0306133
0.0310106
0.0313965
0.0317524
0.032074
0.0323632
0.0326252
0.0328702
0.0331176
0.0333986
0.0337574
0.0342503
0.0349366
0.0358644
0.037051
0.0384404
0.0399179
0.0412416
0.0421812
0.0424756
0.0420265
0.0410586
0.039498
0.0377856
0.0357103
0.0339722
0.0312693
0.0300743
0.0286653
0.0265125
0.0264669
0.0264257
0.026388
0.0263559
0.0263288
0.026309
0.0262959
0.0262926
0.0262982
0.0263165
0.0263461
0.0263918
0.0264508
0.0265288
0.026622
0.0267362
0.0268669
0.0270197
0.0271898
0.0273827
0.0275931
0.0278261
0.0280765
0.0283486
0.0286373
0.0289458
0.0292704
0.0296121
0.0299702
0.0303448
0.0307377
0.0311379
0.0315204
0.0318676
0.0321717
0.0324336
0.0326575
0.0328527
0.0330372
0.0332418
0.0335126
0.0339111
0.0345078
0.0353695
0.0365409
0.0380016
0.039675
0.0413488
0.0428017
0.0437355
0.0439826
0.0436458
0.0425408
0.0409855
0.0387501
0.0365595
0.0331974
0.0308969
0.027927
0.0265065
0.0264174
0.0263386
0.0262686
0.0262096
0.0261609
0.0261247
0.0261004
0.0260904
0.0260934
0.0261127
0.0261464
0.0261987
0.0262668
0.0263557
0.0264618
0.0265905
0.0267376
0.0269087
0.0270989
0.0273136
0.0275473
0.0278049
0.0280805
0.028378
0.0286916
0.0290237
0.0293699
0.0297307
0.0301047
0.0304922
0.0308935
0.0312955
0.0316731
0.0320025
0.0322744
0.0324861
0.0326387
0.0327375
0.0327959
0.03284
0.0329129
0.0330759
0.0334046
0.0339786
0.0348664
0.0360827
0.0375946
0.0392348
0.0408147
0.0420364
0.0426945
0.0428038
0.0420709
0.0406995
0.0384015
0.0359057
0.032049
0.0288576
0.0242934
0.026469
0.0263483
0.026242
0.0261479
0.0260687
0.0260035
0.0259546
0.0259212
0.0259059
0.025907
0.0259279
0.0259664
0.0260264
0.0261046
0.026206
0.0263264
0.0264713
0.026636
0.0268262
0.0270368
0.0272733
0.0275301
0.027812
0.028113
0.0284365
0.0287762
0.0291338
0.0295039
0.0298863
0.0302788
0.0306804
0.0310903
0.0314941
0.0318612
0.0321669
0.0323956
0.0325413
0.0326004
0.0325724
0.0324633
0.0322917
0.032093
0.0319231
0.0318559
0.0319764
0.0323686
0.0330762
0.0341077
0.0353457
0.0366502
0.0377484
0.03844
0.0386848
0.0381363
0.0368839
0.0346081
0.0320228
0.028029
0.0243496
0.018953
0.0265135
0.026376
0.0262531
0.0261434
0.0260496
0.0259716
0.0259119
0.0258702
0.025849
0.0258473
0.0258679
0.0259089
0.0259737
0.0260592
0.0261697
0.0263012
0.0264586
0.0266374
0.0268429
0.0270701
0.0273244
0.0276002
0.0279022
0.0282242
0.0285695
0.0289314
0.029311
0.0297021
0.0301036
0.0305121
0.030926
0.0313421
0.0317438
0.0320999
0.0323783
0.0325616
0.0326391
0.0326024
0.0324446
0.0321637
0.0317689
0.0312861
0.0307618
0.0302632
0.0298739
0.029685
0.0297606
0.030144
0.0307648
0.0315366
0.0322308
0.0326752
0.0328174
0.0322818
0.0310922
0.0289032
0.0264343
0.0226353
0.0188289
0.0134295
0.0265949
0.0264573
0.0263338
0.0262229
0.0261276
0.0260477
0.0259862
0.0259428
0.0259206
0.0259188
0.0259408
0.0259846
0.0260544
0.0261465
0.0262656
0.0264071
0.0265763
0.0267678
0.0269869
0.0272285
0.0274976
0.0277887
0.0281064
0.0284446
0.0288063
0.0291848
0.0295806
0.0299872
0.0304025
0.0308226
0.031244
0.0316628
0.0320615
0.032404
0.032658
0.0328013
0.0328206
0.0327036
0.0324376
0.0320134
0.031431
0.0307063
0.0298749
0.0289941
0.0281405
0.0274053
0.0268636
0.0265831
0.0265327
0.0266759
0.0268308
0.0268722
0.0267544
0.0261179
0.0249338
0.0228615
0.0206147
0.0171949
0.0134606
0.00856825
0.0268253
0.0266955
0.026578
0.0264715
0.0263792
0.0263012
0.0262407
0.0261977
0.0261756
0.0261739
0.0261962
0.0262409
0.0263119
0.0264065
0.0265289
0.0266751
0.02685
0.0270487
0.027276
0.0275269
0.0278061
0.0281079
0.0284368
0.0287864
0.0291596
0.0295494
0.029956
0.0303726
0.0307966
0.0312231
0.0316484
0.0320668
0.0324597
0.0327922
0.0330263
0.0331405
0.0331191
0.0329471
0.0326077
0.0320853
0.0313725
0.0304754
0.0294192
0.0282495
0.027033
0.0258553
0.0247945
0.0239331
0.0232689
0.0228068
0.0224104
0.0220024
0.0215629
0.0207538
0.0195281
0.0175496
0.0155366
0.012521
0.00890671
0.00468952
0.0271572
0.027043
0.0269399
0.0268463
0.0267652
0.0266964
0.0266432
0.0266054
0.026587
0.0265872
0.0266108
0.0266559
0.0267276
0.0268227
0.0269466
0.0270948
0.027273
0.0274756
0.027708
0.0279645
0.0282502
0.028559
0.0288951
0.0292521
0.0296326
0.0300295
0.0304427
0.030865
0.0312936
0.0317232
0.0321489
0.0325652
0.032954
0.0332775
0.0335001
0.0335978
0.0335556
0.033357
0.0329823
0.0324118
0.0316318
0.0306405
0.029453
0.0281033
0.0266464
0.0251583
0.0237138
0.0224012
0.0212366
0.0202554
0.0193571
0.0185123
0.0177235
0.0166987
0.0153713
0.0134266
0.0115702
0.00886858
0.00531225
0.00170341
0.0276932
0.0275936
0.0275028
0.0274195
0.0273467
0.0272843
0.0272358
0.0272014
0.0271847
0.0271856
0.0272082
0.0272517
0.0273205
0.0274126
0.0275329
0.0276781
0.0278535
0.0280544
0.0282859
0.0285429
0.02883
0.0291412
0.0294803
0.029841
0.0302253
0.030626
0.0310427
0.0314678
0.0318984
0.0323287
0.032754
0.0331679
0.0335524
0.0338732
0.0340911
0.0341851
0.0341406
0.0339407
0.0335644
0.0329891
0.0321964
0.031178
0.0299405
0.0285067
0.0269194
0.0252431
0.0235449
0.0219124
0.0203707
0.0189761
0.0176556
0.0164182
0.0152934
0.0140244
0.0125426
0.0105478
0.00873988
0.00620711
0.00260413
-0.000567424
0.0283014
0.0282196
0.0281457
0.0280783
0.0280199
0.0279705
0.0279331
0.0279076
0.027898
0.0279038
0.0279299
0.027975
0.0280446
0.0281359
0.0282551
0.0283983
0.0285717
0.0287703
0.029
0.0292552
0.0295412
0.0298517
0.0301908
0.0305519
0.0309371
0.031339
0.0317567
0.0321828
0.0326139
0.0330443
0.0334685
0.0338809
0.0342651
0.0345851
0.0348063
0.0349073
0.0348753
0.0346943
0.0343428
0.0337965
0.0330337
0.0320411
0.0308176
0.0293762
0.0277477
0.025984
0.0241418
0.022303
0.0204947
0.0187845
0.017117
0.0155333
0.0140789
0.0125427
0.0108474
0.00871556
0.00682913
0.00430875
0.000542568
-0.00238941
0.0290604
0.0289939
0.0289343
0.0288801
0.0288341
0.0287958
0.0287686
0.0287523
0.0287505
0.0287629
0.0287937
0.0288419
0.0289124
0.0290035
0.0291205
0.0292606
0.0294297
0.0296239
0.0298487
0.0300995
0.0303813
0.0306883
0.0310246
0.0313836
0.0317674
0.0321684
0.0325856
0.0330113
0.0334423
0.0338726
0.0342968
0.0347091
0.0350938
0.0354193
0.0356485
0.0357646
0.0357559
0.0356074
0.0352976
0.0348014
0.0340948
0.0331605
0.0319911
0.0305908
0.0289792
0.0271959
0.0252859
0.0233226
0.0213303
0.0193816
0.0174316
0.0155441
0.0137809
0.0119616
0.010009
0.00766111
0.00559186
0.00294816
-0.00107454
-0.00393708
0.0298797
0.0298312
0.0297897
0.0297531
0.029724
0.0297014
0.0296888
0.0296851
0.0296945
0.0297161
0.0297547
0.0298087
0.0298841
0.0299778
0.0300966
0.0302366
0.0304049
0.0305967
0.0308186
0.0310656
0.0313434
0.0316462
0.0319787
0.0323342
0.0327151
0.0331138
0.0335294
0.0339542
0.0343848
0.0348155
0.0352403
0.0356541
0.0360433
0.0363748
0.0366175
0.0367538
0.0367748
0.0366667
0.0364083
0.0359741
0.0353384
0.0344807
0.0333885
0.032058
0.0304989
0.0287386
0.0268103
0.0247773
0.022658
0.0205244
0.0183356
0.0161734
0.0141037
0.0119844
0.00973111
0.00710329
0.00475971
0.00188525
-0.00246707
-0.00539463
0.0308714
0.0308364
0.030807
0.0307814
0.0307625
0.0307495
0.0307456
0.0307505
0.0307676
0.0307963
0.0308408
0.0308998
0.0309783
0.0310745
0.0311937
0.0313333
0.0314994
0.0316885
0.0319066
0.0321495
0.0324228
0.0327212
0.0330493
0.0334008
0.0337782
0.0341741
0.0345876
0.0350113
0.0354418
0.0358731
0.0363001
0.036717
0.0371106
0.037453
0.0377105
0.0378702
0.037924
0.037859
0.0376544
0.0372846
0.0367226
0.0359452
0.0349354
0.0336828
0.0321879
0.0304674
0.028543
0.0264677
0.0242521
0.0219651
0.0195664
0.0171488
0.0147848
0.0123557
0.00977628
0.00682216
0.00414764
0.000969773
-0.00375351
-0.00683479
0.0318848
0.0318653
0.0318518
0.031842
0.0318387
0.0318407
0.0318512
0.0318692
0.0318987
0.0319385
0.0319934
0.0320614
0.0321484
0.0322511
0.0323763
0.0325201
0.0326895
0.03288
0.0330984
0.0333402
0.0336113
0.0339068
0.0342315
0.0345797
0.0349539
0.0353472
0.0357588
0.0361816
0.0366123
0.0370453
0.0374747
0.037896
0.0382975
0.0386492
0.038924
0.0391079
0.0391948
0.0391724
0.0390205
0.0387131
0.038222
0.0375217
0.0365915
0.0354151
0.0339849
0.0323076
0.0303942
0.0282877
0.0259904
0.0235655
0.02097
0.0183054
0.0156414
0.0128896
0.00995897
0.00664581
0.00359578
6.5958e-05
-0.00505506
-0.00834981
0.033021
0.0330138
0.0330122
0.0330142
0.0330226
0.0330362
0.0330584
0.0330882
0.0331293
0.0331804
0.0332457
0.0333236
0.0334188
0.033529
0.0336598
0.0338082
0.0339805
0.034173
0.034392
0.0346336
0.0349037
0.0351976
0.0355202
0.0358661
0.0362382
0.0366298
0.0370403
0.0374629
0.0378946
0.0383297
0.0387632
0.0391897
0.0395979
0.0399625
0.0402538
0.0404618
0.0405802
0.0405974
0.0404932
0.0402413
0.0398122
0.0391787
0.0383163
0.0372038
0.0358263
0.034182
0.0322721
0.0301303
0.0277506
0.0251902
0.0224022
0.0194934
0.0165341
0.0134543
0.0101623
0.00647146
0.00302831
-0.000878137
-0.00640281
-0.0099402
0.0341859
0.034194
0.0342084
0.0342266
0.0342513
0.0342807
0.0343183
0.0343626
0.0344175
0.0344814
0.0345592
0.0346484
0.0347549
0.0348751
0.0350157
0.0351722
0.0353521
0.0355505
0.0357744
0.0360192
0.0362916
0.0365864
0.0369094
0.037255
0.0376267
0.0380179
0.0384286
0.0388521
0.0392857
0.0397243
0.040162
0.0405948
0.0410123
0.0413869
0.0416956
0.0419263
0.0420738
0.0421267
0.0420648
0.041861
0.0414849
0.0409071
0.0401001
0.0390381
0.0376998
0.0360754
0.0341576
0.0319713
0.029503
0.026803
0.0238192
0.0206628
0.0173974
0.0139792
0.0103127
0.00623171
0.00237973
-0.00191791
-0.00784961
-0.0116481
0.0355137
0.0355322
0.0355559
0.0355829
0.0356157
0.0356533
0.0356991
0.035752
0.0358155
0.0358886
0.035975
0.0360732
0.0361877
0.0363161
0.0364637
0.0366273
0.036813
0.037017
0.0372456
0.0374947
0.0377705
0.0380683
0.0383935
0.0387411
0.0391143
0.0395071
0.0399196
0.0403456
0.0407826
0.0412254
0.0416691
0.0421088
0.0425337
0.0429215
0.0432456
0.0434976
0.0436713
0.0437552
0.0437288
0.0435642
0.0432296
0.0426938
0.0419264
0.0408974
0.0395797
0.0379567
0.0360134
0.0337672
0.031197
0.0283474
0.0251612
0.0217516
0.0181807
0.0144212
0.0103778
0.0059026
0.00164315
-0.00304818
-0.00937924
-0.0134413
0.0368405
0.0368719
0.0369094
0.0369502
0.0369973
0.037049
0.0371086
0.0371747
0.0372514
0.0373368
0.0374359
0.037546
0.037673
0.037813
0.0379725
0.038147
0.0383435
0.0385571
0.0387947
0.0390514
0.039334
0.0396376
0.0399677
0.0403195
0.0406966
0.0410931
0.0415094
0.0419395
0.0423813
0.0428301
0.0432801
0.0437277
0.0441631
0.0445605
0.0449006
0.0451719
0.0453689
0.0454798
0.0454833
0.0453508
0.0450487
0.0445439
0.0438036
0.0427933
0.0414811
0.0398438
0.0378597
0.0355392
0.0328548
0.029845
0.026447
0.0227759
0.0188867
0.0147758
0.0103472
0.00547297
0.000801363
-0.00428646
-0.0110147
-0.015344
0.0382824
0.0383235
0.0383705
0.0384209
0.0384778
0.0385395
0.0386098
0.0386871
0.0387753
0.0388728
0.0389836
0.0391057
0.0392438
0.039395
0.0395647
0.0397494
0.0399552
0.0401781
0.0404242
0.0406893
0.0409797
0.0412906
0.0416276
0.0419859
0.0423691
0.0427715
0.0431936
0.0436299
0.0440783
0.0445341
0.0449926
0.0454492
0.0458934
0.0463039
0.0466576
0.046947
0.047165
0.0472989
0.0473267
0.0472185
0.0469393
0.0464539
0.0457266
0.0447197
0.043396
0.0417269
0.0396845
0.037273
0.0344588
0.0312758
0.0276562
0.0237151
0.0195054
0.0150403
0.0102262
0.00495322
-0.000124391
-0.00560574
-0.0127221
-0.0173137
0.0397393
0.0397937
0.039855
0.03992
0.0399918
0.0400683
0.0401532
0.0402444
0.0403463
0.0404568
0.0405811
0.040716
0.0408677
0.0410318
0.0412152
0.0414127
0.0416317
0.0418669
0.042125
0.0424013
0.0427023
0.0430231
0.0433693
0.0437364
0.0441279
0.0445384
0.0449685
0.045413
0.0458698
0.0463348
0.0468024
0.0472693
0.0477255
0.0481461
0.0485147
0.0488209
0.0490578
0.0492119
0.0492603
0.0491716
0.0489089
0.0484349
0.0477116
0.0466971
0.0453499
0.0436362
0.0415226
0.0390069
0.0360507
0.0326834
0.028832
0.0246112
0.0200666
0.0152364
0.0100287
0.00435267
-0.00113467
-0.00701167
-0.014516
-0.0193718
0.0413593
0.041422
0.0414904
0.0415622
0.0416402
0.0417233
0.0418148
0.0419137
0.0420236
0.0421431
0.0422762
0.042421
0.0425819
0.0427565
0.0429496
0.0431578
0.0433869
0.043633
0.0439019
0.0441893
0.0445012
0.044833
0.04519
0.0455677
0.0459696
0.0463904
0.0468307
0.0472854
0.0477527
0.0482283
0.0487075
0.0491859
0.0496529
0.0500877
0.0504699
0.0507929
0.0510476
0.0512196
0.0512848
0.0512104
0.0509575
0.0504867
0.0497571
0.0487234
0.04734
0.0455679
0.0433685
0.0407342
0.0376223
0.0340578
0.0299653
0.0254542
0.0205707
0.0153717
0.00976907
0.0036899
-0.00220246
-0.00847313
-0.0163592
-0.0214745
0.0429693
0.0430433
0.0431241
0.0432086
0.0432998
0.043396
0.0435006
0.0436121
0.0437346
0.0438664
0.0440123
0.0441696
0.0443441
0.0445318
0.044739
0.0449609
0.0452044
0.0454643
0.0457471
0.0460478
0.046373
0.0467177
0.0470873
0.0474774
0.0478916
0.0483246
0.0487771
0.0492442
0.049724
0.0502126
0.0507043
0.0511961
0.0516777
0.0521245
0.0525227
0.0528622
0.0531341
0.053323
0.0534034
0.0533407
0.0530943
0.0526218
0.0518808
0.0508204
0.0493934
0.0475528
0.0452594
0.0424946
0.0392182
0.035445
0.0311033
0.0262915
0.0210538
0.0154732
0.00946615
0.00297731
-0.00332642
-0.00999587
-0.018267
-0.0236465
0.0446972
0.0447794
0.0448682
0.0449608
0.0450605
0.0451655
0.0452797
0.0454015
0.045535
0.0456783
0.0458358
0.0460051
0.0461912
0.0463909
0.0466096
0.0468435
0.0470986
0.0473709
0.0476659
0.0479797
0.0483179
0.0486761
0.0490594
0.0494633
0.0498915
0.0503386
0.0508054
0.0512868
0.0517813
0.0522846
0.0527918
0.0532988
0.0537945
0.0542584
0.0546721
0.0550294
0.0553187
0.0555237
0.0556173
0.0555638
0.0553194
0.0548403
0.0540805
0.0529863
0.0515054
0.0495873
0.0471874
0.0442815
0.0408276
0.0368349
0.0322341
0.0271109
0.0215134
0.0155463
0.00913184
0.00223118
-0.00448215
-0.0115508
-0.0202037
-0.0258443
0.0464401
0.0465346
0.0466368
0.0467431
0.0468567
0.0469755
0.0471033
0.0472379
0.0473842
0.0475396
0.0477098
0.0478916
0.0480911
0.0483038
0.0485367
0.0487844
0.0490544
0.0493411
0.049651
0.0499794
0.0503326
0.0507057
0.0511041
0.0515235
0.0519673
0.0524303
0.0529132
0.0534112
0.0539225
0.0544431
0.0549672
0.0554919
0.0560062
0.0564858
0.0569185
0.0572944
0.0576017
0.0578234
0.0579302
0.0578853
0.0576418
0.0571543
0.0563727
0.0552407
0.0537014
0.0516991
0.0491865
0.0461306
0.0424915
0.0382687
0.0334011
0.0279549
0.0219832
0.0156163
0.00878289
0.00146147
-0.0056707
-0.0131465
-0.0221873
-0.0280965
0.0483546
0.0484562
0.048564
0.0486754
0.0487934
0.0489169
0.0490494
0.0491899
0.0493422
0.0495052
0.0496827
0.0498731
0.0500808
0.0503035
0.0505458
0.0508045
0.0510853
0.0513844
0.0517071
0.0520494
0.0524172
0.0528057
0.0532201
0.0536562
0.0541171
0.0545978
0.0550989
0.0556156
0.056146
0.056686
0.0572304
0.057775
0.0583082
0.0588092
0.0592617
0.0596578
0.059985
0.0602231
0.0603434
0.0603054
0.0600612
0.0595616
0.0587544
0.0575788
0.0559745
0.0538806
0.0512458
0.0480304
0.044195
0.0397316
0.0345866
0.0288058
0.0224541
0.0156818
0.00842536
0.000679458
-0.00687185
-0.0147568
-0.0241836
-0.0303601
0.0502511
0.0503632
0.0504824
0.0506055
0.0507355
0.0508708
0.0510151
0.0511668
0.0513304
0.0515041
0.0516932
0.051895
0.0521153
0.0523504
0.0526065
0.0528789
0.0531747
0.0534886
0.0538268
0.0541849
0.054569
0.0549743
0.055406
0.0558601
0.0563397
0.0568397
0.0573609
0.0578984
0.0584502
0.0590126
0.0595791
0.0601469
0.0607037
0.0612257
0.0617017
0.0621202
0.0624682
0.0627249
0.0628594
0.0628297
0.062585
0.0620734
0.0612395
0.0600186
0.0583464
0.0561564
0.0533946
0.0500124
0.0459734
0.041259
0.0358276
0.0297021
0.0229567
0.0157654
0.00807342
-0.000107966
-0.00808962
-0.0163938
-0.0262146
-0.0326679
0.0522616
0.0523808
0.0525067
0.0526364
0.0527734
0.0529161
0.0530684
0.053229
0.0534021
0.0535862
0.0537856
0.0539985
0.0542294
0.0544761
0.0547432
0.0550278
0.0553355
0.0556628
0.0560149
0.0563882
0.0567883
0.0572107
0.0576606
0.0581338
0.0586334
0.0591546
0.0596978
0.0602583
0.0608342
0.0614211
0.0620138
0.062607
0.0631884
0.0637384
0.0642383
0.0646819
0.0650524
0.0653291
0.0654784
0.0654574
0.065211
0.064686
0.0638223
0.0625527
0.0608071
0.0585155
0.0556182
0.0520614
0.0478077
0.0428319
0.0371024
0.0306208
0.0234758
0.0158602
0.00772779
-0.000893589
-0.00930708
-0.0180331
-0.0282465
-0.0349763
0.0542739
0.0544048
0.0545435
0.0546863
0.0548364
0.054992
0.055157
0.0553294
0.0555143
0.0557095
0.0559208
0.0561452
0.0563891
0.0566484
0.0569299
0.0572286
0.057552
0.0578949
0.0582636
0.0586538
0.0590717
0.0595126
0.059982
0.0604756
0.0609969
0.0615408
0.0621081
0.0626939
0.0632964
0.0639114
0.064532
0.0651544
0.0657666
0.0663424
0.0668718
0.0673417
0.0677376
0.0680362
0.0682032
0.0681923
0.0679465
0.0674084
0.0665159
0.0651961
0.0633761
0.0609788
0.0579429
0.0542037
0.0497292
0.0444803
0.0384435
0.031595
0.0240395
0.0159867
0.00740104
-0.00167238
-0.01053
-0.019689
-0.030304
-0.0373212
0.0564547
0.0565916
0.0567346
0.0568809
0.0570339
0.0571927
0.0573608
0.0575379
0.0577275
0.0579293
0.058147
0.0583796
0.0586314
0.0589006
0.0591915
0.0595019
0.0598371
0.0601938
0.060577
0.0609836
0.061419
0.0618789
0.0623685
0.0628839
0.0634283
0.0639968
0.0645903
0.0652039
0.0658359
0.0664813
0.0671341
0.0677886
0.0684312
0.069041
0.0695999
0.0700994
0.0705234
0.0708462
0.0710323
0.0710325
0.0707872
0.0702354
0.069312
0.0679394
0.0660407
0.0635328
0.0603507
0.056422
0.0517157
0.0461833
0.0398258
0.0325993
0.0246277
0.0161329
0.00708953
-0.00244005
-0.0117435
-0.0213378
-0.0323532
-0.0396581
0.058596
0.0587431
0.0588973
0.0590552
0.0592201
0.0593906
0.0595705
0.0597586
0.0599595
0.0601721
0.0604015
0.0606456
0.0609105
0.0611925
0.0614981
0.0618231
0.0621745
0.0625475
0.0629483
0.0633728
0.0638273
0.0643074
0.0648185
0.0653569
0.0659259
0.0665209
0.0671427
0.0677867
0.0684507
0.0691299
0.0698168
0.0705066
0.0711857
0.0718277
0.0724215
0.0729541
0.073409
0.0737597
0.0739676
0.0739819
0.073739
0.0731755
0.0722218
0.0707968
0.0688177
0.0661969
0.0628644
0.0587405
0.0537947
0.0479687
0.041279
0.0336651
0.0252682
0.0163196
0.0068056
-0.00319267
-0.0129551
-0.0229964
-0.0344218
-0.0420264
0.0608436
0.0609978
0.0611588
0.0613235
0.0614956
0.0616737
0.061862
0.0620593
0.0622702
0.0624934
0.0627335
0.062989
0.0632646
0.0635586
0.0638755
0.064213
0.064577
0.0649644
0.0653803
0.065822
0.066295
0.0667956
0.067329
0.0678918
0.0684872
0.0691108
0.0697634
0.0704402
0.071139
0.0718545
0.0725795
0.0733073
0.0740232
0.0747061
0.0753363
0.0759056
0.076395
0.0767758
0.0770077
0.0770372
0.0767973
0.0762215
0.0752364
0.0737564
0.0716935
0.0689549
0.0654654
0.0611392
0.0559436
0.0498134
0.0427782
0.0347665
0.0259383
0.0165314
0.00654295
-0.00392748
-0.0141503
-0.0246407
-0.0364749
-0.0443802
0.0631071
0.0632746
0.0634494
0.0636272
0.063812
0.0640016
0.0642007
0.0644076
0.0646278
0.0648596
0.065109
0.0653736
0.0656601
0.0659648
0.0662946
0.0666454
0.0670246
0.0674279
0.0678614
0.0683219
0.0688155
0.0693384
0.069896
0.0704853
0.0711093
0.0717641
0.0724502
0.0731628
0.0738992
0.0746545
0.07542
0.0761897
0.0769496
0.0776714
0.0783446
0.0789537
0.0794808
0.0798953
0.0801545
0.0802022
0.0799681
0.079382
0.0783666
0.0768318
0.0746841
0.0718255
0.0681752
0.0636411
0.0581883
0.0517447
0.0443528
0.0359347
0.0266665
0.0167902
0.00631454
-0.00464067
-0.0153374
-0.0262889
-0.0385422
-0.0467614
0.0656204
0.0657852
0.0659516
0.0661184
0.0662903
0.0664686
0.0666573
0.0668573
0.0670722
0.0673026
0.067552
0.0678205
0.0681114
0.0684241
0.0687622
0.0691248
0.0695166
0.0699358
0.0703866
0.0708673
0.0713831
0.0719307
0.0725153
0.0731341
0.07379
0.0744793
0.0752021
0.0759539
0.0767319
0.0775302
0.0783408
0.0791559
0.0799596
0.0807301
0.0814466
0.0820992
0.0826672
0.0831178
0.0834063
0.0834737
0.083246
0.0826494
0.0816027
0.0800109
0.077775
0.0747917
0.0709746
0.0662256
0.0605065
0.0537393
0.0459783
0.0371434
0.0274281
0.0170779
0.00611208
-0.00533045
-0.016502
-0.0279161
-0.0405875
-0.0491229
0.0675906
0.0677829
0.0679863
0.0681947
0.0684115
0.0686331
0.0688646
0.0691032
0.0693552
0.0696183
0.0698996
0.0701961
0.0705151
0.0708534
0.0712177
0.0716048
0.0720219
0.0724658
0.0729421
0.0734489
0.0739922
0.074569
0.0751846
0.075837
0.0765287
0.0772562
0.0780199
0.0788148
0.079638
0.0804836
0.081342
0.0822063
0.0830611
0.0838775
0.0846435
0.0853426
0.0859548
0.086445
0.0867663
0.0868565
0.086638
0.086033
0.0849562
0.0833077
0.0809829
0.0778728
0.0738851
0.0689163
0.0629239
0.0558253
0.0476849
0.0384252
0.0282538
0.0174183
0.00594953
-0.00599348
-0.0176535
-0.0295432
-0.042643
-0.0515087
0.0701761
0.0703609
0.0705484
0.0707374
0.0709327
0.0711359
0.071351
0.0715791
0.0718238
0.0720856
0.0723681
0.0726714
0.0729988
0.0733498
0.0737281
0.0741328
0.0745692
0.0750356
0.0755365
0.0760709
0.076644
0.0772534
0.0779041
0.0785941
0.0793259
0.0800962
0.0809048
0.081747
0.0826194
0.0835156
0.0844265
0.0853433
0.0862489
0.0871211
0.0879371
0.0886862
0.0893455
0.0898778
0.0902337
0.0903482
0.0901393
0.0895257
0.0884178
0.0867104
0.0842933
0.0810518
0.076888
0.0716924
0.0654188
0.0579793
0.049449
0.0397539
0.0291179
0.017792
0.00581767
-0.00662779
-0.0187771
-0.0311438
-0.0446714
-0.0538704
0.0721422
0.0723556
0.0725816
0.0728142
0.0730563
0.0733049
0.0735648
0.0738336
0.0741176
0.0744149
0.0747325
0.0750676
0.0754277
0.0758097
0.0762202
0.0766563
0.0771254
0.0776243
0.0781591
0.078728
0.0793375
0.0799848
0.0806756
0.0814078
0.0821842
0.0830015
0.0838593
0.0847527
0.085678
0.0866292
0.0875954
0.0885687
0.0895329
0.0904579
0.0913303
0.0921321
0.0928417
0.0934194
0.0938133
0.093955
0.0937586
0.0931385
0.0920006
0.0902347
0.0877244
0.0843494
0.0800058
0.0745789
0.0680179
0.0602306
0.0513016
0.0411634
0.0300534
0.0182249
0.00573159
-0.00723012
-0.0198829
-0.0327403
-0.0467062
-0.056253
0.0747497
0.0749525
0.0751594
0.0753705
0.0755898
0.0758198
0.0760642
0.0763243
0.0766035
0.0769029
0.0772257
0.0775723
0.077946
0.0783461
0.0787766
0.0792368
0.0797322
0.0802611
0.0808283
0.081433
0.082081
0.0827694
0.0835039
0.0842824
0.0851075
0.0859758
0.0868868
0.0878354
0.088818
0.0898275
0.0908542
0.0918877
0.09291
0.0938976
0.0948264
0.0956841
0.0964468
0.0970721
0.0975057
0.0976758
0.0974922
0.0968651
0.095696
0.0938691
0.0912623
0.0877493
0.0832205
0.0775555
0.0706997
0.0625563
0.0532189
0.0426268
0.0310329
0.018696
0.00568108
-0.00779822
-0.0209552
-0.0343052
-0.0487091
-0.0586086
0.0766784
0.0769087
0.0771552
0.0774127
0.0776836
0.0779651
0.0782616
0.0785705
0.0788978
0.0792417
0.0796091
0.0799967
0.0804124
0.0808523
0.081324
0.0818238
0.0823602
0.0829296
0.0835388
0.0841859
0.0848782
0.0856124
0.0863949
0.0872236
0.0881012
0.0890243
0.0899924
0.0910003
0.0920438
0.0931162
0.0942059
0.0953035
0.0963912
0.0974382
0.0984294
0.0993459
0.100165
0.100841
0.101317
0.101519
0.10135
0.100718
0.099519
0.0976313
0.0949269
0.0912736
0.0865559
0.0806485
0.0734922
0.0649867
0.0552327
0.0441793
0.0320913
0.0192328
0.00568153
-0.00833003
-0.0220062
-0.0358633
-0.0507164
-0.0609848
0.0792087
0.0794395
0.0796825
0.0799359
0.0802025
0.080483
0.0807804
0.0810949
0.0814301
0.0817862
0.0821674
0.0825733
0.0830083
0.0834716
0.083968
0.0844967
0.0850644
0.0856689
0.0863161
0.0870047
0.0877416
0.0885233
0.0893563
0.0902382
0.0911716
0.0921531
0.0931818
0.0942525
0.0953607
0.096499
0.0976566
0.0988215
0.0999743
0.101091
0.102144
0.103123
0.104001
0.10473
0.10525
0.105483
0.10533
0.104692
0.103462
0.101511
0.0987051
0.0949067
0.0899945
0.0838379
0.076374
0.0674983
0.0573191
0.0457929
0.0332
0.0198133
0.00572279
-0.00882238
-0.0230188
-0.0373859
-0.0526893
-0.0633334
0.0816113
0.0818519
0.0821055
0.0823709
0.0826499
0.0829434
0.0832549
0.0835845
0.0839374
0.0843131
0.084718
0.0851494
0.0856147
0.0861102
0.086643
0.0872094
0.087818
0.0884647
0.0891565
0.0898913
0.0906768
0.0915094
0.0923958
0.0933338
0.0943259
0.0953687
0.0964612
0.0975979
0.0987739
0.0999823
0.10121
0.102446
0.103672
0.104854
0.105977
0.10702
0.107959
0.108744
0.109311
0.10958
0.109444
0.108802
0.10754
0.105526
0.102618
0.0986721
0.0935617
0.0871512
0.079374
0.0701222
0.05951
0.0475036
0.0343951
0.0204661
0.00582033
-0.00927421
-0.0240069
-0.0388993
-0.0546659
-0.0657031
0.0840794
0.0843329
0.0846015
0.0848829
0.0851804
0.085494
0.0858274
0.0861803
0.0865571
0.0869577
0.0873872
0.087845
0.0883364
0.0888601
0.089422
0.0900207
0.0906639
0.091349
0.0920822
0.0928622
0.0936963
0.0945807
0.0955222
0.0965184
0.0975716
0.0986783
0.0998374
0.101043
0.102291
0.103572
0.104874
0.106185
0.107482
0.10874
0.109931
0.111042
0.112046
0.112888
0.113504
0.113807
0.113689
0.113042
0.111747
0.109667
0.106653
0.102554
0.0972395
0.0905681
0.0824705
0.0728346
0.0617805
0.0492815
0.0356458
0.0211674
0.0059637
-0.00968154
-0.0249521
-0.0403737
-0.0566067
-0.068045
0.0865149
0.0867846
0.0870714
0.0873732
0.0876923
0.0880287
0.0883864
0.0887646
0.0891693
0.0895992
0.0900616
0.0905531
0.0910822
0.0916445
0.0922484
0.0928896
0.093578
0.094309
0.0950905
0.0959202
0.0968065
0.0977454
0.0987443
0.0998007
0.100917
0.10209
0.103318
0.104596
0.105917
0.107274
0.108653
0.110042
0.111418
0.112748
0.114014
0.115195
0.116266
0.117168
0.117835
0.118176
0.118078
0.117427
0.116101
0.113953
0.110832
0.106578
0.101054
0.0941168
0.0856929
0.0756665
0.064162
0.0511627
0.0369886
0.0219458
0.00616711
-0.0100457
-0.0258709
-0.0418379
-0.0585515
-0.0704087
0.0891163
0.0894031
0.0897083
0.0900291
0.0903691
0.0907281
0.0911099
0.091514
0.0919452
0.092403
0.092893
0.0934143
0.0939729
0.0945671
0.0952035
0.0958804
0.0966067
0.0973792
0.0982051
0.0990829
0.100021
0.101015
0.102072
0.10319
0.104371
0.105612
0.106911
0.108262
0.10966
0.111095
0.112554
0.114023
0.115476
0.116888
0.118228
0.119483
0.120623
0.121588
0.122307
0.122686
0.122607
0.121951
0.120592
0.118375
0.115141
0.110726
0.104988
0.0977767
0.0890183
0.0785937
0.0666295
0.0531159
0.0383915
0.0227771
0.00642076
-0.0103613
-0.0267439
-0.0432612
-0.0604609
-0.0727456
0.0917215
0.0920287
0.0923558
0.0927004
0.0930651
0.0934495
0.093858
0.0942895
0.0947504
0.0952393
0.0957639
0.0963207
0.0969187
0.0975533
0.0982335
0.0989548
0.0997282
0.100549
0.101425
0.102354
0.103346
0.104396
0.105513
0.106694
0.107941
0.109251
0.110622
0.112049
0.113523
0.115039
0.11658
0.118131
0.119669
0.121158
0.122579
0.12391
0.125123
0.126153
0.126927
0.127348
0.12729
0.126631
0.125238
0.122951
0.119604
0.115025
0.109067
0.101576
0.0924768
0.0816465
0.0692136
0.0551771
0.039891
0.0236894
0.00673754
-0.0106316
-0.0275891
-0.0446737
-0.0623755
-0.0751053
0.0945018
0.0948291
0.0951781
0.0955453
0.0959347
0.0963456
0.0967823
0.0972435
0.0977347
0.0982549
0.0988104
0.0993998
0.10003
0.100699
0.101413
0.102172
0.102985
0.103848
0.10477
0.105749
0.106793
0.1079
0.109076
0.11032
0.111633
0.113013
0.114457
0.11596
0.117514
0.11911
0.120736
0.122372
0.123993
0.125569
0.12707
0.128481
0.129769
0.130866
0.131697
0.132159
0.132123
0.13146
0.130032
0.127672
0.124205
0.119457
0.113271
0.105493
0.0960436
0.0848004
0.0718873
0.0573132
0.041453
0.0246576
0.00710811
-0.01085
-0.0283863
-0.0460443
-0.0642552
-0.0774391
0.0973211
0.097671
0.0980442
0.0984375
0.0988538
0.0992923
0.0997578
0.100249
0.100772
0.101325
0.101917
0.102544
0.103215