/*--------------------------------*- C++ -*----------------------------------*\
  =========                 |
  \\      /  F ield         | OpenFOAM: The Open Source CFD Toolbox
   \\    /   O peration     | Website:  https://openfoam.org
    \\  /    A nd           | Version:  6.0
     \\/     M anipulation  |
\*---------------------------------------------------------------------------*/
FoamFile
{
    version     2.0;
    format      ascii;
    class       volVectorField;
    location    "12";
    object      U;
}
// * * * * * * * * * * * * * * * * * * * * * * * * * * * * * * * * * * * * * //

dimensions      [0 1 -1 0 0 0 0];

internalField   nonuniform List<vector> 
62000
(
(0.984704 0.172992 -4.78272e-21)
(0.984724 0.173031 4.01983e-21)
(0.984742 0.173073 4.16526e-21)
(0.984759 0.173111 -1.84468e-20)
(0.984774 0.17315 -2.12941e-20)
(0.984786 0.17319 7.44092e-20)
(0.984795 0.173231 -8.26969e-20)
(0.9848 0.173273 4.86075e-20)
(0.984802 0.173316 -2.30244e-20)
(0.984801 0.173359 -1.19003e-19)
(0.984797 0.173404 -1.5421e-20)
(0.984791 0.173448 1.70328e-19)
(0.984784 0.173493 3.5165e-20)
(0.984776 0.173536 -1.24565e-19)
(0.984767 0.173579 1.96765e-19)
(0.984759 0.173619 -1.05557e-19)
(0.984751 0.173658 1.10845e-19)
(0.984744 0.173694 -1.31548e-19)
(0.984738 0.173727 6.58264e-20)
(0.984733 0.173757 -2.05472e-19)
(0.984729 0.173784 2.71449e-19)
(0.984727 0.173808 8.16362e-20)
(0.984726 0.173828 1.19506e-19)
(0.984726 0.173844 -5.45801e-19)
(0.984727 0.173855 2.02506e-19)
(0.984729 0.173862 -1.26701e-19)
(0.984732 0.173865 -1.80281e-21)
(0.984735 0.173862 -1.0492e-19)
(0.98474 0.173855 3.29509e-19)
(0.984744 0.173843 -1.86431e-19)
(0.984749 0.173827 4.53349e-19)
(0.984753 0.173804 -9.44945e-19)
(0.984758 0.173768 8.97878e-20)
(0.984765 0.173719 -3.08425e-19)
(0.98477 0.173665 -9.88703e-20)
(0.984772 0.173616 -3.05976e-19)
(0.98477 0.173573 -9.01057e-20)
(0.984761 0.173538 -9.0132e-20)
(0.984743 0.173511 2.90535e-19)
(0.984714 0.173496 1.32644e-18)
(0.984668 0.173494 -3.16344e-19)
(0.984602 0.173505 -1.8239e-18)
(0.984511 0.173523 -2.89959e-18)
(0.984388 0.173535 1.58642e-18)
(0.984232 0.173525 4.76468e-19)
(0.984041 0.173464 -2.33369e-18)
(0.983818 0.173326 5.48805e-19)
(0.983568 0.173084 -1.00565e-18)
(0.983301 0.172724 -4.78854e-18)
(0.983023 0.17225 -1.12228e-18)
(0.982736 0.171675 -5.70927e-19)
(0.982418 0.171012 -7.61839e-18)
(0.982052 0.170195 1.00584e-18)
(0.981638 0.169135 8.92711e-18)
(0.981169 0.167629 2.43336e-18)
(0.980719 0.165483 8.60766e-18)
(0.980396 0.162262 -1.07654e-18)
(0.98037 0.157959 -1.80615e-18)
(0.98152 0.150282 4.02737e-18)
(0.955783 0.130368 7.88055e-19)
(0.984512 0.173778 -1.28219e-21)
(0.984506 0.173742 1.23675e-20)
(0.984511 0.173747 5.15232e-21)
(0.984527 0.173737 -2.24101e-20)
(0.984552 0.173725 9.39353e-21)
(0.984583 0.173713 -6.5506e-20)
(0.984619 0.1737 6.06509e-20)
(0.984655 0.173687 3.55025e-20)
(0.984691 0.173675 -6.71515e-20)
(0.984725 0.173665 2.91803e-21)
(0.984754 0.173658 6.66674e-20)
(0.984778 0.173655 2.22993e-22)
(0.984796 0.173656 1.97548e-20)
(0.984809 0.173662 -1.7078e-19)
(0.984816 0.173673 3.47483e-19)
(0.984819 0.173688 -3.10778e-19)
(0.984818 0.173708 1.47796e-19)
(0.984814 0.173732 -3.14055e-20)
(0.984808 0.17376 -8.71271e-20)
(0.9848 0.173791 2.4457e-19)
(0.984792 0.173826 -3.90636e-19)
(0.984783 0.173862 2.29938e-19)
(0.984774 0.173901 -2.9718e-19)
(0.984765 0.17394 1.78773e-19)
(0.984756 0.17398 1.68368e-19)
(0.984747 0.174019 -1.12484e-19)
(0.984739 0.174059 -7.95202e-22)
(0.98473 0.174097 1.28247e-19)
(0.984721 0.174135 1.09501e-19)
(0.984711 0.174173 -2.28894e-19)
(0.9847 0.174212 4.71271e-19)
(0.984686 0.174247 9.78277e-20)
(0.984674 0.174273 3.0267e-19)
(0.984662 0.174297 2.1989e-20)
(0.984646 0.174326 8.2031e-20)
(0.984621 0.174371 -9.29039e-20)
(0.984585 0.174431 -2.81119e-19)
(0.984536 0.174506 -1.39822e-19)
(0.984467 0.174592 -7.65148e-19)
(0.984374 0.174684 -8.73684e-19)
(0.984249 0.174772 6.79619e-19)
(0.984087 0.174836 4.07866e-19)
(0.983881 0.174849 3.03637e-18)
(0.98363 0.174776 1.78667e-19)
(0.983335 0.174577 -4.78641e-18)
(0.983004 0.174211 1.94264e-18)
(0.98265 0.173657 1.66445e-18)
(0.982291 0.172918 1.99375e-18)
(0.981937 0.172039 4.40594e-19)
(0.981584 0.171091 9.42876e-20)
(0.981208 0.170136 3.48036e-18)
(0.980741 0.16918 9.45469e-18)
(0.980136 0.168065 -6.45544e-18)
(0.979371 0.166511 -1.57096e-17)
(0.978492 0.164086 -3.87923e-18)
(0.977645 0.160415 -3.08068e-18)
(0.977176 0.15481 -6.67714e-18)
(0.976947 0.147746 -3.56888e-18)
(0.979918 0.136327 5.59961e-18)
(0.948221 0.110508 2.30396e-18)
(0.984422 0.175553 -6.24197e-21)
(0.984338 0.17544 -8.73529e-22)
(0.984269 0.17539 9.98801e-22)
(0.984215 0.175339 4.52598e-21)
(0.984182 0.175282 1.28948e-20)
(0.984169 0.175226 -1.23506e-20)
(0.984176 0.175168 6.64584e-20)
(0.9842 0.175108 -3.20377e-20)
(0.984239 0.175046 -1.73787e-20)
(0.984289 0.174983 -1.07987e-19)
(0.984347 0.17492 9.20583e-20)
(0.984409 0.174857 6.85155e-21)
(0.984471 0.174796 -2.15848e-20)
(0.984531 0.174739 5.80304e-20)
(0.984587 0.174687 -1.00555e-19)
(0.984637 0.17464 5.66514e-22)
(0.98468 0.174601 -4.75172e-20)
(0.984716 0.174569 6.58637e-22)
(0.984744 0.174547 1.13052e-19)
(0.984765 0.174534 -1.74738e-19)
(0.98478 0.17453 1.10349e-19)
(0.984789 0.174535 4.36789e-19)
(0.984793 0.17455 -5.74775e-20)
(0.984792 0.174572 -6.2499e-19)
(0.984787 0.174603 3.25697e-19)
(0.984778 0.174641 -1.80043e-19)
(0.984766 0.174687 2.97709e-19)
(0.984751 0.174739 -1.83104e-19)
(0.984732 0.1748 -3.69683e-19)
(0.98471 0.174867 4.00578e-19)
(0.984684 0.174945 -2.87319e-19)
(0.984654 0.175027 3.90804e-19)
(0.984625 0.175115 -1.08238e-18)
(0.984595 0.17521 9.48765e-19)
(0.984557 0.175316 -4.99086e-19)
(0.984509 0.175441 2.03582e-19)
(0.984447 0.17558 1.53243e-19)
(0.98437 0.175727 -5.98147e-21)
(0.984272 0.175871 -3.25377e-20)
(0.984149 0.175999 9.03677e-19)
(0.983996 0.17609 -3.53356e-19)
(0.983808 0.176112 5.51664e-19)
(0.983586 0.176028 -1.95313e-18)
(0.983334 0.175798 -9.67464e-19)
(0.983058 0.175382 1.06903e-18)
(0.982778 0.174758 -3.70614e-18)
(0.982511 0.173936 5.08819e-19)
(0.982279 0.17297 -3.35593e-18)
(0.982092 0.171971 4.78852e-18)
(0.981939 0.171071 1.2471e-18)
(0.981782 0.17038 6.58517e-19)
(0.981538 0.169913 -2.1134e-19)
(0.981158 0.169486 2.67399e-18)
(0.980603 0.168754 6.34641e-19)
(0.979936 0.167225 -5.25159e-18)
(0.979254 0.164505 -3.30823e-18)
(0.979004 0.159873 -1.75079e-18)
(0.978382 0.154109 -7.23986e-18)
(0.981736 0.146047 -1.01918e-18)
(0.95963 0.131253 6.0965e-19)
(0.984625 0.176196 -6.25428e-21)
(0.984537 0.17611 1.92566e-20)
(0.984441 0.176064 -2.97869e-21)
(0.984342 0.176036 -2.00607e-20)
(0.984247 0.176009 3.04014e-20)
(0.984164 0.175989 5.26863e-20)
(0.984097 0.175972 -6.92766e-20)
(0.984052 0.175956 7.55425e-21)
(0.984028 0.175939 2.42797e-20)
(0.984028 0.175919 5.08683e-20)
(0.984047 0.175897 -9.48759e-20)
(0.984085 0.17587 -2.94202e-20)
(0.984137 0.17584 -3.3141e-20)
(0.984199 0.175806 1.52601e-19)
(0.984268 0.175769 -1.02727e-19)
(0.984339 0.175731 2.42118e-19)
(0.98441 0.175693 -2.96336e-19)
(0.984477 0.175657 -4.3909e-20)
(0.984538 0.175625 3.18677e-19)
(0.984592 0.175597 -1.1223e-19)
(0.984639 0.175576 -4.16287e-20)
(0.984676 0.175562 -4.49902e-20)
(0.984705 0.175557 -4.1389e-19)
(0.984726 0.175561 2.4071e-19)
(0.984739 0.175574 -1.10638e-19)
(0.984744 0.175596 1.80412e-19)
(0.984742 0.175629 8.54802e-20)
(0.984733 0.175671 4.27803e-19)
(0.984718 0.175725 -2.71913e-19)
(0.984696 0.175791 -3.59871e-19)
(0.984669 0.17587 5.75344e-19)
(0.984637 0.175959 -4.78287e-19)
(0.984602 0.176064 8.82217e-19)
(0.984562 0.176177 -5.25351e-19)
(0.984511 0.1763 2.19356e-19)
(0.984446 0.176434 3.67728e-19)
(0.984366 0.176573 -1.53418e-19)
(0.984269 0.176707 1.82591e-19)
(0.98415 0.176821 -9.59835e-20)
(0.984004 0.176897 2.72022e-19)
(0.983826 0.176908 -7.7445e-19)
(0.983614 0.176819 2.11758e-19)
(0.983367 0.176591 4.57753e-19)
(0.98309 0.176184 1.12561e-18)
(0.982792 0.175565 1.49484e-18)
(0.982489 0.174725 3.39072e-19)
(0.982201 0.173695 2.44068e-18)
(0.981949 0.172557 2.71863e-18)
(0.981744 0.171449 3.27544e-18)
(0.981582 0.170529 -2.4001e-18)
(0.981439 0.169926 -3.1339e-18)
(0.981249 0.169662 2.14865e-18)
(0.980987 0.169553 2.90213e-18)
(0.980626 0.169244 6.32901e-18)
(0.980231 0.168239 4.03004e-18)
(0.979823 0.166144 6.74516e-18)
(0.979926 0.162204 1.22849e-17)
(0.979142 0.157148 -5.01154e-19)
(0.982325 0.151394 -6.5588e-18)
(0.966134 0.140558 -4.83345e-18)
(0.984995 0.176103 1.2125e-20)
(0.98501 0.176059 -4.08626e-21)
(0.98499 0.176036 6.84369e-21)
(0.984938 0.176039 -9.74447e-21)
(0.984861 0.176051 2.1899e-20)
(0.984767 0.176076 -1.09219e-20)
(0.984665 0.176114 5.86775e-21)
(0.984563 0.17616 -8.80269e-20)
(0.984469 0.176213 7.41213e-20)
(0.984389 0.176268 -1.48648e-19)
(0.984327 0.176324 1.64554e-19)
(0.984284 0.176376 -1.99974e-20)
(0.984262 0.176424 -4.43285e-20)
(0.984259 0.176466 -2.0397e-20)
(0.984273 0.1765 -4.42919e-21)
(0.984301 0.176526 -2.09491e-19)
(0.984339 0.176545 9.36169e-21)
(0.984383 0.176557 2.31491e-19)
(0.984432 0.176564 -7.58257e-20)
(0.984481 0.176567 -8.07586e-20)
(0.984527 0.176569 1.36913e-19)
(0.98457 0.17657 -6.88612e-20)
(0.984607 0.176573 2.91718e-19)
(0.984637 0.176579 1.62208e-19)
(0.984661 0.17659 1.25423e-19)
(0.984676 0.176606 -3.92671e-19)
(0.984684 0.17663 -5.59901e-20)
(0.984685 0.176661 -3.15705e-19)
(0.984678 0.176702 5.96886e-20)
(0.984663 0.176753 -1.08449e-19)
(0.984641 0.176818 -4.34387e-20)
(0.984614 0.17689 3.5363e-19)
(0.984578 0.176983 -8.87262e-19)
(0.984532 0.177078 -4.05461e-20)
(0.984471 0.177175 -4.37344e-19)
(0.984393 0.177275 -2.10513e-19)
(0.984298 0.17737 5.18304e-20)
(0.984183 0.177448 -6.52576e-19)
(0.984042 0.177495 9.81166e-19)
(0.983869 0.177489 1.60427e-19)
(0.983658 0.177404 1.05158e-18)
(0.983403 0.177203 -7.55832e-19)
(0.9831 0.176849 -5.10252e-19)
(0.982749 0.176302 -2.02088e-19)
(0.982353 0.175534 1.10742e-18)
(0.981923 0.174535 1.63782e-18)
(0.981471 0.17334 4.15704e-19)
(0.981015 0.172027 7.33419e-19)
(0.98057 0.170726 -1.06796e-18)
(0.980143 0.169585 6.21324e-18)
(0.979738 0.16872 1.59695e-18)
(0.979328 0.168146 -1.45177e-18)
(0.978936 0.167687 8.98854e-19)
(0.978572 0.167005 5.37561e-18)
(0.978329 0.165634 -5.35898e-19)
(0.978176 0.163212 -5.20722e-18)
(0.978738 0.159009 -1.26506e-17)
(0.978235 0.153604 1.12295e-17)
(0.981308 0.148419 -6.37731e-18)
(0.968148 0.137482 5.35182e-18)
(0.985199 0.176502 -4.58696e-21)
(0.985341 0.176451 1.85951e-20)
(0.985445 0.176425 -3.07701e-20)
(0.985507 0.176415 2.30905e-20)
(0.985525 0.176419 1.5023e-20)
(0.985504 0.176438 -1.60481e-20)
(0.985447 0.176474 1.34266e-21)
(0.985363 0.176526 -1.21633e-20)
(0.98526 0.176591 -4.11568e-20)
(0.985147 0.176668 7.9448e-20)
(0.985032 0.176753 -1.23899e-19)
(0.984922 0.176843 1.09155e-19)
(0.984823 0.176935 9.68103e-20)
(0.984739 0.177024 -1.50762e-19)
(0.984671 0.177109 -4.96093e-20)
(0.98462 0.177187 1.87514e-19)
(0.984585 0.177256 -2.2878e-19)
(0.984565 0.177316 3.18823e-19)
(0.984558 0.177368 -6.09003e-20)
(0.98456 0.17741 3.52818e-20)
(0.984569 0.177445 -5.69765e-20)
(0.984582 0.177473 -7.23434e-20)
(0.984597 0.177497 -1.36208e-19)
(0.984612 0.177518 2.38011e-19)
(0.984624 0.177537 -1.65001e-19)
(0.984634 0.177557 -1.63524e-19)
(0.984639 0.17758 3.3986e-19)
(0.984638 0.177605 -3.30241e-19)
(0.984632 0.177637 5.30816e-19)
(0.984619 0.177675 -2.86819e-19)
(0.984601 0.177721 2.21332e-19)
(0.984576 0.177772 -3.80792e-19)
(0.98454 0.177842 4.07469e-19)
(0.984486 0.177905 -3.59143e-20)
(0.984416 0.177964 -2.04944e-20)
(0.984329 0.178018 -1.07619e-20)
(0.984225 0.178061 -2.07587e-19)
(0.984101 0.178083 5.76664e-19)
(0.983949 0.178068 -4.40316e-19)
(0.983763 0.177999 -2.46166e-18)
(0.983534 0.177848 -1.0161e-18)
(0.983252 0.177585 7.20932e-19)
(0.982911 0.177171 -7.68562e-19)
(0.982503 0.17657 -8.80349e-19)
(0.982023 0.175754 -7.11336e-20)
(0.981473 0.174709 2.23816e-18)
(0.980856 0.173459 -3.35107e-18)
(0.980183 0.172063 -3.52039e-18)
(0.97947 0.170625 -2.47575e-18)
(0.978734 0.169259 -4.22123e-18)
(0.978006 0.168052 2.78347e-18)
(0.9773 0.167003 -1.1044e-18)
(0.976695 0.165949 -9.1934e-18)
(0.976249 0.164592 1.88925e-18)
(0.976101 0.162534 2.59765e-18)
(0.976191 0.159487 -5.04127e-18)
(0.977241 0.154842 3.45761e-18)
(0.977297 0.149115 3.08741e-18)
(0.980311 0.144416 1.03073e-17)
(0.970643 0.135306 -3.36874e-19)
(0.985 0.177879 5.36631e-21)
(0.985223 0.177781 -2.42692e-20)
(0.985423 0.177718 1.19084e-20)
(0.985597 0.177659 2.22185e-20)
(0.985733 0.17761 -4.7859e-20)
(0.985827 0.177574 4.03232e-20)
(0.985876 0.177554 -2.69803e-20)
(0.985881 0.177551 2.30151e-20)
(0.985847 0.177564 3.68544e-20)
(0.985778 0.177594 -8.92346e-20)
(0.985684 0.177639 1.29588e-19)
(0.985572 0.177697 5.52692e-20)
(0.98545 0.177765 -2.21885e-19)
(0.985327 0.177839 -4.18443e-20)
(0.985207 0.177917 1.19625e-19)
(0.985097 0.177994 7.77462e-20)
(0.984998 0.178069 -9.49414e-20)
(0.984914 0.17814 8.42594e-20)
(0.984843 0.178204 1.318e-19)
(0.984786 0.178261 -6.40644e-20)
(0.984741 0.178311 -3.70994e-20)
(0.984707 0.178352 1.35141e-19)
(0.984681 0.178388 2.81563e-19)
(0.984662 0.178417 -2.04106e-19)
(0.984646 0.178442 -2.29905e-19)
(0.984633 0.178463 2.57786e-19)
(0.984621 0.178485 -2.00715e-19)
(0.984607 0.178505 -8.3519e-20)
(0.984591 0.178529 6.95855e-19)
(0.984572 0.178554 -3.09167e-19)
(0.984549 0.178582 -2.41069e-19)
(0.984522 0.178612 3.20609e-19)
(0.98448 0.178654 2.22525e-19)
(0.984416 0.178684 -1.96778e-19)
(0.98434 0.178705 -1.31072e-19)
(0.984251 0.178718 4.12429e-19)
(0.984148 0.178717 8.90017e-20)
(0.984029 0.178695 1.34605e-19)
(0.983887 0.178642 -7.04405e-19)
(0.983713 0.178541 -6.66376e-19)
(0.9835 0.17837 1.29508e-18)
(0.983235 0.178101 1.01192e-18)
(0.982907 0.177703 1.68784e-18)
(0.982504 0.177142 -1.50859e-18)
(0.982015 0.17639 -1.65646e-18)
(0.981431 0.175428 -1.19118e-18)
(0.980746 0.174266 2.89644e-18)
(0.979964 0.17294 2.83722e-18)
(0.979096 0.171519 -3.32511e-18)
(0.978166 0.170078 -4.81698e-18)
(0.977223 0.168667 -1.18385e-18)
(0.976313 0.167271 9.94454e-19)
(0.975559 0.165739 2.10247e-19)
(0.975067 0.163825 -3.38209e-18)
(0.975013 0.161222 2.87024e-18)
(0.975319 0.157735 1.78688e-18)
(0.976776 0.152935 2.65239e-18)
(0.97741 0.14735 -9.22092e-18)
(0.980253 0.143588 -7.41801e-19)
(0.974957 0.138135 -3.08802e-19)
(0.984418 0.17996 -8.94778e-21)
(0.98465 0.17982 -7.11755e-21)
(0.984885 0.179716 9.79945e-21)
(0.98512 0.179606 3.45781e-20)
(0.985341 0.179497 -7.47695e-20)
(0.985537 0.179394 8.59e-20)
(0.985698 0.179299 -3.95813e-21)
(0.985818 0.179217 -5.44615e-21)
(0.985893 0.179148 -3.10956e-20)
(0.985924 0.179096 7.57857e-20)
(0.985914 0.17906 -1.176e-19)
(0.985867 0.179041 4.46404e-20)
(0.985791 0.179036 -1.47818e-21)
(0.985694 0.179045 7.09415e-20)
(0.985582 0.179065 3.41122e-20)
(0.985463 0.179093 -1.82496e-19)
(0.985343 0.179127 1.59773e-19)
(0.985228 0.179163 6.36735e-20)
(0.98512 0.179201 -1.8438e-19)
(0.985022 0.179236 9.11924e-20)
(0.984935 0.17927 4.3082e-20)
(0.984859 0.179298 -2.827e-20)
(0.984794 0.179323 3.72055e-20)
(0.984738 0.179343 -2.07081e-20)
(0.98469 0.17936 -2.50266e-19)
(0.984649 0.179373 1.6658e-19)
(0.984613 0.179384 -2.57148e-19)
(0.984579 0.179394 4.80048e-19)
(0.984547 0.179404 -9.05573e-20)
(0.984514 0.179414 -5.50652e-20)
(0.984482 0.179423 -1.50604e-20)
(0.984447 0.179431 5.30251e-19)
(0.984396 0.179445 -2.15263e-19)
(0.984324 0.179443 -1.30114e-19)
(0.984243 0.17943 3.26001e-19)
(0.984157 0.179407 2.73365e-19)
(0.984065 0.179372 -4.50178e-19)
(0.983963 0.179323 8.01431e-20)
(0.983847 0.179251 8.39412e-19)
(0.983709 0.179146 -5.89036e-20)
(0.98354 0.17899 5.03925e-19)
(0.983328 0.178761 -7.25821e-19)
(0.983059 0.178433 1.04576e-18)
(0.98272 0.177977 2.32748e-18)
(0.982292 0.177367 7.71773e-19)
(0.981762 0.17658 -8.90023e-19)
(0.981115 0.175613 -2.79868e-18)
(0.980348 0.174478 3.227e-19)
(0.979464 0.173214 1.02702e-18)
(0.97849 0.171854 2.59124e-18)
(0.977483 0.170416 -5.52688e-19)
(0.976506 0.168866 -3.93858e-18)
(0.975715 0.167069 3.48295e-18)
(0.975242 0.164829 -2.40793e-18)
(0.975294 0.161928 4.4151e-18)
(0.975769 0.158263 1.27693e-18)
(0.977495 0.153575 5.08009e-18)
(0.978586 0.148417 6.53152e-18)
(0.981085 0.145726 6.10723e-19)
(0.979957 0.143745 4.13701e-19)
(0.983655 0.182265 -4.31405e-21)
(0.983835 0.1821 3.72724e-21)
(0.984042 0.18197 1.86322e-20)
(0.984273 0.181829 2.94451e-20)
(0.984518 0.181682 -8.7645e-20)
(0.984763 0.181531 5.0583e-20)
(0.984997 0.181382 -9.056e-20)
(0.985208 0.181235 1.42358e-19)
(0.985387 0.181095 -6.70139e-20)
(0.985526 0.180965 1.1866e-20)
(0.985624 0.180847 1.30448e-19)
(0.985678 0.180743 -2.98713e-19)
(0.985692 0.180653 2.04828e-19)
(0.98567 0.180578 2.91123e-20)
(0.985618 0.180517 4.74313e-20)
(0.985542 0.180469 -1.99454e-19)
(0.985451 0.180433 9.87961e-20)
(0.985349 0.180406 -1.23634e-19)
(0.985243 0.180387 2.4641e-19)
(0.985138 0.180373 -3.23352e-20)
(0.985036 0.180364 -3.18145e-19)
(0.984941 0.180355 1.27091e-19)
(0.984854 0.180348 -7.32071e-21)
(0.984774 0.18034 -4.80409e-19)
(0.984703 0.180331 3.59657e-19)
(0.98464 0.180321 2.73891e-19)
(0.984582 0.180312 1.8953e-19)
(0.98453 0.180302 -2.45222e-19)
(0.984481 0.180292 -2.73556e-19)
(0.984435 0.180281 1.28224e-19)
(0.98439 0.180268 1.93592e-19)
(0.984346 0.180251 -2.39238e-19)
(0.984286 0.180238 -3.56775e-19)
(0.984206 0.180206 7.24432e-19)
(0.984124 0.180161 7.49773e-20)
(0.984044 0.180108 -1.04726e-18)
(0.983967 0.180049 9.07948e-20)
(0.983889 0.179983 6.70288e-19)
(0.983806 0.179907 5.60774e-20)
(0.983712 0.179813 8.53355e-19)
(0.983598 0.17969 -1.12509e-18)
(0.983453 0.179521 -4.89655e-20)
(0.983264 0.179286 -7.24806e-19)
(0.983015 0.17896 1.76255e-19)
(0.982686 0.17852 1.12225e-18)
(0.982258 0.177941 3.18548e-18)
(0.981713 0.177208 6.52381e-19)
(0.98104 0.176314 -2.23488e-18)
(0.980239 0.175269 1.54553e-18)
(0.979333 0.174073 6.0371e-18)
(0.97838 0.172714 -4.94229e-18)
(0.977453 0.171143 6.00902e-18)
(0.976719 0.169239 -3.92886e-18)
(0.976326 0.166846 -1.56007e-18)
(0.97649 0.163823 -8.7018e-18)
(0.97709 0.160135 -4.0804e-19)
(0.97896 0.155659 -2.88302e-18)
(0.980365 0.150951 -2.71657e-18)
(0.982395 0.149111 8.20111e-19)
(0.984369 0.149429 -7.36624e-19)
(0.982911 0.184455 5.96939e-21)
(0.983006 0.184295 2.05628e-21)
(0.98314 0.184164 -2.16676e-20)
(0.983315 0.184018 2.06907e-20)
(0.983525 0.183859 -9.18672e-21)
(0.983761 0.183691 1.64089e-20)
(0.98401 0.183515 5.59673e-21)
(0.98426 0.183334 -8.25123e-20)
(0.9845 0.18315 3.60679e-20)
(0.984719 0.182968 -2.4542e-20)
(0.984907 0.18279 1.50454e-20)
(0.985059 0.182619 5.85456e-20)
(0.985172 0.182457 -1.10788e-20)
(0.985245 0.182306 3.62461e-20)
(0.98528 0.182167 -1.54293e-19)
(0.985282 0.182041 5.97496e-20)
(0.985254 0.181929 2.63471e-20)
(0.985204 0.181828 -7.3166e-20)
(0.985137 0.181739 1.45957e-19)
(0.985059 0.181661 4.86751e-20)
(0.984974 0.181591 -5.26049e-21)
(0.984887 0.181529 -5.39588e-20)
(0.984801 0.181474 2.17706e-19)
(0.984718 0.181422 -6.04841e-19)
(0.98464 0.181375 3.16517e-19)
(0.984567 0.181329 1.36303e-19)
(0.984499 0.181288 -2.29638e-19)
(0.984435 0.181249 4.11061e-19)
(0.984376 0.181212 -1.9987e-19)
(0.98432 0.181175 -1.06016e-19)
(0.984267 0.181136 -2.0884e-19)
(0.984214 0.181093 -8.61532e-20)
(0.984147 0.18105 2.36478e-19)
(0.984062 0.18099 -7.02818e-19)
(0.98398 0.180918 1.29948e-18)
(0.983908 0.18084 -8.85076e-20)
(0.983846 0.180761 6.35727e-19)
(0.98379 0.180685 -1.58468e-18)
(0.983738 0.180609 -4.78837e-19)
(0.983683 0.180531 4.17391e-21)
(0.983619 0.180443 -3.17655e-19)
(0.983535 0.180333 -2.11829e-20)
(0.98342 0.180185 -1.09359e-18)
(0.983257 0.179981 2.79038e-19)
(0.983027 0.179696 4.70751e-19)
(0.98271 0.179305 -2.83285e-18)
(0.982284 0.178785 3.39902e-18)
(0.981738 0.178113 5.12319e-19)
(0.981066 0.177275 -1.06844e-19)
(0.980288 0.176245 -3.54768e-18)
(0.97946 0.17499 1.57082e-18)
(0.978655 0.173447 -3.02148e-18)
(0.978042 0.171504 4.79919e-18)
(0.977769 0.169042 1.70546e-18)
(0.978052 0.165974 -2.94305e-18)
(0.978747 0.162313 1.38599e-18)
(0.980677 0.158028 -3.50746e-18)
(0.982294 0.153655 -5.09476e-19)
(0.98382 0.152322 -4.22881e-18)
(0.987576 0.153777 -1.25221e-18)
(0.982301 0.18638 -1.32337e-21)
(0.982304 0.186232 -5.18687e-21)
(0.982347 0.186113 -4.49099e-21)
(0.982438 0.185979 4.37006e-20)
(0.982574 0.185829 -2.43739e-20)
(0.982753 0.185667 -2.92014e-20)
(0.982965 0.185493 -1.091e-20)
(0.983201 0.185307 -4.51475e-20)
(0.98345 0.185111 2.85243e-20)
(0.9837 0.184908 4.17107e-21)
(0.98394 0.184701 1.50804e-21)
(0.98416 0.184492 1.22979e-19)
(0.984352 0.184284 -8.76787e-20)
(0.98451 0.18408 -1.08984e-20)
(0.984633 0.183882 1.01911e-19)
(0.98472 0.183693 -5.65084e-20)
(0.984773 0.183515 -2.20323e-20)
(0.984795 0.183347 3.55768e-20)
(0.98479 0.183192 1.16261e-19)
(0.984764 0.183049 6.50373e-20)
(0.984722 0.182918 2.48632e-20)
(0.984668 0.182797 -1.64785e-19)
(0.984606 0.182686 8.49149e-20)
(0.98454 0.182583 1.64734e-19)
(0.984473 0.182489 -3.44592e-19)
(0.984406 0.1824 1.12253e-19)
(0.984341 0.182319 -4.48273e-19)
(0.984278 0.182244 3.68416e-19)
(0.984217 0.182174 3.27188e-19)
(0.984158 0.182105 -5.07094e-19)
(0.984102 0.182037 -2.4681e-19)
(0.984046 0.181965 3.28964e-19)
(0.983977 0.181894 1.10743e-19)
(0.98389 0.181807 -2.96358e-19)
(0.98381 0.181709 -3.68938e-19)
(0.983744 0.181609 -4.27609e-19)
(0.983694 0.181514 2.62299e-19)
(0.983655 0.181428 6.10607e-19)
(0.983624 0.181352 2.15935e-19)
(0.983596 0.181285 -1.77527e-19)
(0.983566 0.181222 1.89437e-18)
(0.983526 0.181155 -1.99566e-19)
(0.983464 0.181072 1.82601e-18)
(0.983365 0.180956 -3.10312e-18)
(0.983213 0.180785 4.29973e-19)
(0.982988 0.180531 1.08438e-19)
(0.98267 0.180165 -3.06514e-19)
(0.982246 0.179652 -1.93198e-18)
(0.981709 0.178961 -3.19906e-18)
(0.981078 0.178048 2.74415e-18)
(0.980403 0.176863 3.5157e-18)
(0.979756 0.175333 1.65586e-18)
(0.979298 0.173359 -4.1175e-18)
(0.97917 0.170844 2.09943e-18)
(0.979577 0.167745 5.66191e-18)
(0.980356 0.164103 1.22837e-18)
(0.982309 0.159944 3.40671e-18)
(0.984081 0.155774 1.30356e-18)
(0.985144 0.154651 2.48124e-18)
(0.98956 0.156476 -9.23756e-19)
(0.98186 0.188011 1.71453e-21)
(0.981781 0.187885 -5.14632e-21)
(0.981737 0.187783 1.83882e-20)
(0.981737 0.187667 4.75121e-21)
(0.981786 0.187536 -2.53639e-20)
(0.981882 0.187392 -2.91694e-20)
(0.982024 0.187233 6.9351e-20)
(0.982205 0.18706 -7.58524e-20)
(0.982418 0.186873 -1.85796e-20)
(0.982654 0.186674 4.71597e-20)
(0.9829 0.186463 4.37758e-20)
(0.983145 0.186244 1.33689e-19)
(0.983381 0.186019 -7.55724e-20)
(0.983597 0.185789 -1.30507e-19)
(0.983788 0.185559 2.88775e-20)
(0.983948 0.18533 -1.07902e-19)
(0.984076 0.185107 8.14805e-20)
(0.984172 0.18489 -1.38623e-19)
(0.984238 0.184682 2.21917e-20)
(0.984276 0.184483 -4.66304e-20)
(0.984291 0.184296 -3.00675e-20)
(0.984286 0.18412 -1.2936e-19)
(0.984265 0.183956 1.0909e-20)
(0.984233 0.183801 2.82903e-19)
(0.984193 0.183658 -9.82215e-20)
(0.984147 0.183523 3.05394e-20)
(0.984098 0.1834 9.04597e-20)
(0.984047 0.183284 -1.21423e-19)
(0.983995 0.183177 -2.63998e-20)
(0.983943 0.183074 1.74906e-19)
(0.983891 0.182973 1.9473e-19)
(0.983838 0.182873 -1.45637e-19)
(0.983771 0.182772 -4.66877e-19)
(0.983687 0.182659 -6.54891e-19)
(0.98361 0.182538 9.77944e-19)
(0.98355 0.182417 2.63049e-19)
(0.983507 0.182304 1.66163e-19)
(0.983477 0.182206 7.86382e-19)
(0.983456 0.182124 -6.92182e-19)
(0.983442 0.182059 4.20972e-19)
(0.983428 0.182007 8.12864e-21)
(0.983409 0.18196 2.51915e-20)
(0.983375 0.181909 -6.55767e-19)
(0.983313 0.181839 1.42967e-18)
(0.98321 0.181729 -1.76129e-18)
(0.983048 0.181548 9.69225e-19)
(0.982811 0.181262 -2.65295e-18)
(0.982486 0.180829 8.03776e-19)
(0.98207 0.180206 1.60749e-18)
(0.98158 0.179337 -2.57164e-18)
(0.981062 0.17816 -9.28153e-19)
(0.980581 0.176602 -4.66843e-19)
(0.980291 0.17457 -3.49798e-19)
(0.98032 0.171987 -1.60031e-18)
(0.980855 0.168843 1.90766e-19)
(0.981719 0.165194 4.85375e-19)
(0.983689 0.161102 -9.87017e-19)
(0.985595 0.157044 -2.87805e-19)
(0.986281 0.155938 -5.71425e-19)
(0.990581 0.157735 3.85699e-19)
(0.981575 0.189373 3.22492e-21)
(0.981435 0.189258 -2.73806e-21)
(0.98132 0.189171 2.4955e-21)
(0.98124 0.189072 1.60249e-20)
(0.981203 0.188962 2.32949e-20)
(0.981213 0.188839 -9.14052e-20)
(0.981271 0.188704 6.63081e-20)
(0.981376 0.188555 1.37918e-20)
(0.981524 0.188391 -4.24457e-21)
(0.981709 0.188211 -3.01984e-20)
(0.981922 0.188016 9.27926e-20)
(0.982154 0.187808 -3.03259e-20)
(0.982393 0.187587 -4.21508e-20)
(0.982631 0.187356 -1.26685e-19)
(0.982859 0.187117 2.54751e-19)
(0.983068 0.186873 -5.29061e-20)
(0.983253 0.186627 -4.45459e-20)
(0.983411 0.186382 -1.3398e-19)
(0.98354 0.18614 1.48794e-19)
(0.983642 0.185903 8.34391e-20)
(0.983716 0.185675 -3.83665e-20)
(0.983767 0.185455 6.69124e-20)
(0.983796 0.185245 -2.86361e-19)
(0.983808 0.185046 1.92322e-20)
(0.983806 0.184857 1.60703e-19)
(0.983793 0.184679 -3.06504e-20)
(0.983771 0.184513 -5.06031e-19)
(0.983742 0.184358 4.42767e-20)
(0.983709 0.184213 4.56718e-19)
(0.983672 0.184074 -1.23836e-19)
(0.983632 0.183941 -2.40061e-19)
(0.983588 0.18381 1.42598e-19)
(0.983529 0.183681 4.15869e-19)
(0.983451 0.183543 9.64532e-19)
(0.983379 0.183398 -1.45335e-19)
(0.983324 0.183255 1.90495e-19)
(0.983285 0.183124 -1.39511e-18)
(0.983256 0.18301 -3.84514e-19)
(0.983237 0.182914 2.37431e-19)
(0.983222 0.182837 -9.58383e-19)
(0.983208 0.182777 -1.93392e-19)
(0.983191 0.182725 4.18552e-19)
(0.983162 0.182673 3.37575e-19)
(0.983112 0.182607 8.4687e-19)
(0.98303 0.182503 2.57257e-18)
(0.982902 0.182332 -1.88927e-18)
(0.982717 0.182056 2.80794e-18)
(0.982466 0.181626 1.97977e-18)
(0.982148 0.180994 1.24826e-20)
(0.98178 0.180095 2.18296e-18)
(0.981407 0.178865 -2.84044e-18)
(0.981089 0.17723 -3.14205e-18)
(0.980966 0.175107 2.28429e-18)
(0.981154 0.172435 1.80658e-18)
(0.981818 0.169229 -5.87303e-19)
(0.982772 0.165553 -3.58396e-18)
(0.98477 0.161492 8.45195e-19)
(0.986804 0.157504 -4.05226e-19)
(0.987213 0.156326 -4.12084e-19)
(0.990974 0.157958 -2.13159e-19)
(0.981404 0.190517 -3.51333e-21)
(0.981224 0.190418 3.86327e-21)
(0.981057 0.190343 2.62769e-20)
(0.980916 0.190261 -3.44393e-20)
(0.980809 0.190168 6.26202e-20)
(0.980741 0.190066 -9.22948e-20)
(0.980717 0.189953 2.62293e-20)
(0.980741 0.189827 -1.2361e-21)
(0.980811 0.189687 5.83834e-20)
(0.980926 0.189532 -3.09349e-20)
(0.981082 0.189361 9.18548e-21)
(0.981269 0.189175 9.40702e-21)
(0.981481 0.188973 -1.48055e-19)
(0.981707 0.188756 4.44775e-20)
(0.981939 0.188526 1.03428e-19)
(0.982167 0.188285 3.21397e-21)
(0.982384 0.188036 -1.74633e-19)
(0.982583 0.187781 7.16076e-20)
(0.982761 0.187523 3.36426e-19)
(0.982915 0.187265 -2.20409e-19)
(0.983043 0.18701 -1.68978e-19)
(0.983147 0.18676 1.43609e-19)
(0.983227 0.186517 9.36045e-20)
(0.983287 0.186282 1.04628e-19)
(0.983329 0.186057 -2.02644e-19)
(0.983354 0.185841 -4.42318e-19)
(0.983367 0.185637 3.33912e-19)
(0.983368 0.185445 4.81237e-19)
(0.98336 0.185265 1.36234e-19)
(0.983345 0.185092 -2.65861e-19)
(0.983324 0.184927 1.23216e-19)
(0.983295 0.184767 2.09295e-19)
(0.983251 0.184609 -3.56626e-19)
(0.983183 0.184447 -5.48427e-20)
(0.983117 0.18428 -6.1056e-19)
(0.983065 0.184114 -1.57369e-19)
(0.983026 0.18396 -1.47129e-19)
(0.982995 0.183824 3.86972e-19)
(0.982968 0.183706 -5.32701e-19)
(0.982944 0.183605 1.44313e-19)
(0.982919 0.183518 2.39059e-19)
(0.982889 0.183438 5.87767e-20)
(0.982848 0.183355 -1.31589e-18)
(0.982791 0.183254 -1.73213e-18)
(0.982709 0.183112 -1.40434e-18)
(0.982594 0.182897 2.64471e-18)
(0.982438 0.182571 7.05646e-20)
(0.982238 0.182081 -9.15156e-19)
(0.981995 0.181375 4.41948e-19)
(0.981731 0.180386 -2.51572e-18)
(0.981487 0.179052 1.12313e-18)
(0.981317 0.1773 2.80853e-18)
(0.981353 0.17506 -2.49024e-19)
(0.981694 0.172284 -2.00008e-18)
(0.982485 0.169006 8.98819e-19)
(0.983534 0.165298 7.34776e-19)
(0.985573 0.161257 6.04352e-19)
(0.987734 0.157333 8.96169e-19)
(0.987957 0.156068 8.16438e-22)
(0.991016 0.157532 5.25933e-19)
(0.981301 0.191482 -3.02359e-21)
(0.981098 0.19139 4.37807e-21)
(0.980899 0.191325 9.10177e-22)
(0.980715 0.191255 1.66843e-20)
(0.980555 0.191177 -2.54034e-20)
(0.980426 0.191092 -5.20953e-20)
(0.980333 0.190999 1.87732e-20)
(0.980282 0.190895 -2.48559e-20)
(0.980277 0.190779 5.44005e-20)
(0.980318 0.19065 -1.09549e-20)
(0.980404 0.190505 -3.61714e-20)
(0.980531 0.190344 3.00583e-20)
(0.980693 0.190167 4.88898e-20)
(0.980883 0.189973 1.35438e-19)
(0.981093 0.189763 -2.46864e-19)
(0.981314 0.189537 1.26423e-19)
(0.981537 0.189299 1.91051e-20)
(0.981754 0.18905 -1.25514e-19)
(0.98196 0.188793 -7.8684e-20)
(0.982149 0.188531 2.5917e-19)
(0.982319 0.188266 -2.72762e-19)
(0.982467 0.188001 8.18861e-20)
(0.982593 0.187738 -2.21696e-19)
(0.982697 0.187479 3.72817e-19)
(0.982782 0.187227 -7.6072e-20)
(0.982848 0.186982 -2.14116e-19)
(0.982898 0.186748 1.72934e-19)
(0.982934 0.186525 3.25048e-19)
(0.982956 0.186313 -3.06531e-19)
(0.982968 0.186109 1.87997e-19)
(0.982971 0.185915 -6.4158e-19)
(0.982963 0.185728 -6.99158e-20)
(0.982937 0.185543 2.75226e-19)
(0.982883 0.185358 -1.61223e-19)
(0.982823 0.185167 -3.21667e-19)
(0.982775 0.184976 -7.35171e-19)
(0.982734 0.184797 9.12306e-19)
(0.982696 0.184633 -3.60522e-19)
(0.982659 0.184483 2.64081e-19)
(0.982619 0.184346 5.32519e-19)
(0.982575 0.184217 4.19194e-19)
(0.982524 0.184089 -2.28667e-19)
(0.982462 0.183949 7.72642e-19)
(0.982386 0.183783 1.37926e-18)
(0.982292 0.183568 -1.3997e-19)
(0.982175 0.183269 -1.62149e-18)
(0.982032 0.182848 -1.98282e-18)
(0.981866 0.182251 -1.24341e-19)
(0.981681 0.181426 1.28606e-18)
(0.981503 0.180307 -2.49454e-19)
(0.98137 0.178834 1.9005e-18)
(0.981333 0.176942 -2.6335e-18)
(0.981513 0.174571 -1.26806e-18)
(0.981998 0.171686 -3.70882e-19)
(0.982909 0.168337 -7.57769e-19)
(0.984054 0.164603 3.8445e-19)
(0.986144 0.160588 -4.37478e-19)
(0.988427 0.156744 -7.99461e-19)
(0.988536 0.155418 2.92884e-19)
(0.990908 0.15678 -4.20306e-19)
(0.981239 0.192306 -4.63471e-21)
(0.981024 0.192226 3.74993e-21)
(0.980807 0.192168 2.96413e-21)
(0.980597 0.192106 -2.11857e-20)
(0.980402 0.192038 2.19396e-20)
(0.980228 0.191964 -1.08239e-20)
(0.980082 0.191885 3.53043e-20)
(0.979971 0.191797 -5.26395e-20)
(0.979899 0.1917 3.04964e-21)
(0.97987 0.191592 4.16666e-21)
(0.979887 0.191472 -3.92013e-20)