/*--------------------------------*- C++ -*----------------------------------*\
  =========                 |
  \\      /  F ield         | OpenFOAM: The Open Source CFD Toolbox
   \\    /   O peration     | Website:  https://openfoam.org
    \\  /    A nd           | Version:  6.0
     \\/     M anipulation  |
\*---------------------------------------------------------------------------*/
FoamFile
{
    version     2.0;
    format      ascii;
    class       volScalarField;
    location    "19";
    object      p;
}
// * * * * * * * * * * * * * * * * * * * * * * * * * * * * * * * * * * * * * //

dimensions      [0 2 -2 0 0 0 0];

internalField   nonuniform List<scalar> 
15500
(
0.0189588
0.0190451
0.0191398
0.0192465
0.019365
0.0194994
0.0196498
0.0198209
0.0200128
0.0202307
0.0204745
0.0207488
0.0210531
0.0213902
0.0217563
0.0221462
0.0225478
0.0229463
0.0233117
0.0235913
0.0237088
0.0235797
0.0231249
0.0222933
0.0210732
0.0194795
0.017555
0.0151053
0.0127539
0.0116198
0.019039
0.019124
0.0192175
0.0193222
0.0194386
0.0195708
0.0197188
0.0198877
0.0200774
0.020293
0.020535
0.0208078
0.0211127
0.0214532
0.0218287
0.0222355
0.0226671
0.0231137
0.0235525
0.0239388
0.0242069
0.024283
0.0240956
0.0235942
0.022764
0.0215965
0.0201202
0.0180254
0.0162193
0.0143358
0.0191372
0.0192244
0.0193199
0.0194263
0.0195444
0.0196779
0.0198273
0.0199976
0.0201891
0.0204071
0.0206519
0.0209282
0.0212376
0.0215832
0.0219654
0.0223803
0.022822
0.0232804
0.0237312
0.0241277
0.0244016
0.0244709
0.0242507
0.0236691
0.0226979
0.0213181
0.0196003
0.0173026
0.0153751
0.0128018
0.0192633
0.0193544
0.0194546
0.0195657
0.0196883
0.0198263
0.0199798
0.0201541
0.0203495
0.0205718
0.0208214
0.0211034
0.0214194
0.0217727
0.0221641
0.02259
0.0230455
0.0235205
0.023991
0.0244099
0.0247076
0.0247956
0.0245795
0.0239698
0.02293
0.0214368
0.0195992
0.0172495
0.015286
0.0129126
0.0194188
0.0195123
0.0196159
0.0197318
0.0198605
0.0200051
0.0201659
0.0203474
0.02055
0.0207792
0.0210361
0.0213258
0.0216507
0.0220142
0.0224179
0.0228592
0.0233349
0.0238375
0.024345
0.0248132
0.025172
0.0253312
0.0251906
0.0246489
0.0236567
0.0221804
0.0203448
0.0180223
0.016107
0.0138128
0.0196086
0.0197037
0.0198098
0.0199291
0.0200624
0.0202129
0.020381
0.0205709
0.0207827
0.0210218
0.0212888
0.0215893
0.0219257
0.0223021
0.0227209
0.0231804
0.0236795
0.0242125
0.0247612
0.0252833
0.0257081
0.0259441
0.0258855
0.0254177
0.0244695
0.0229862
0.0210966
0.0187072
0.016731
0.0142999
0.0198556
0.0199504
0.0200562
0.0201756
0.0203102
0.0204635
0.0206362
0.0208324
0.0210525
0.0213012
0.0215793
0.0218919
0.0222419
0.0226338
0.0230709
0.0235526
0.0240788
0.0246461
0.0252388
0.0258161
0.0263092
0.0266255
0.0266569
0.0262748
0.0253815
0.0238906
0.0219233
0.0194097
0.0172418
0.0147277
0.0201482
0.0202463
0.0203546
0.0204755
0.0206113
0.020766
0.0209409
0.021141
0.0213667
0.0216235
0.0219116
0.0222366
0.0226014
0.0230109
0.0234696
0.023978
0.0245368
0.0251438
0.0257865
0.0264269
0.0269998
0.0274155
0.0275688
0.0273214
0.0265525
0.0251368
0.0231673
0.0205665
0.0181403
0.0155154
0.0204743
0.0205781
0.0206913
0.0208165
0.020956
0.021114
0.0212926
0.0214967
0.021728
0.021992
0.0222899
0.0226273
0.0230077
0.0234364
0.0239191
0.0244567
0.0250506
0.0257005
0.0263946
0.0270994
0.0277526
0.0282713
0.0285554
0.0284657
0.0278639
0.0265898
0.0246913
0.0220534
0.0193583
0.0164229
0.0208034
0.0209177
0.0210416
0.0211769
0.0213258
0.0214924
0.0216789
0.0218911
0.0221307
0.0224044
0.0227137
0.0230652
0.0234624
0.0239117
0.024419
0.0249857
0.0256135
0.0263011
0.0270396
0.0277959
0.0285099
0.0291035
0.0294812
0.0295082
0.0290372
0.0278864
0.0260613
0.0234038
0.0204723
0.0170819
0.0211382
0.0212629
0.0213984
0.0215463
0.0217085
0.0218887
0.0220888
0.0223143
0.0225674
0.0228551
0.0231796
0.0235479
0.0239644
0.0244355
0.0249676
0.0255617
0.0262186
0.0269374
0.0277074
0.0284943
0.0292371
0.0298557
0.0302581
0.0303126
0.0298721
0.0287501
0.0269334
0.0242389
0.0211298
0.0173307
0.0214834
0.0216189
0.021767
0.021929
0.0221063
0.0223028
0.0225197
0.0227628
0.0230338
0.02334
0.0236838
0.0240729
0.0245114
0.0250063
0.0255638
0.0261847
0.0268684
0.027612
0.0284047
0.0292076
0.0299546
0.0305591
0.0309266
0.0309247
0.030412
0.0292116
0.0273211
0.0245639
0.0213378
0.0173179
0.021866
0.0220081
0.0221648
0.0223381
0.0225294
0.0227419
0.022977
0.0232396
0.0235314
0.0238595
0.0242262
0.0246392
0.025103
0.0256245
0.0262098
0.0268589
0.0275703
0.0283414
0.0291568
0.0299753
0.0307209
0.0312985
0.0316039
0.0315014
0.0308516
0.0294975
0.0274677
0.0246201
0.02131
0.0172597
0.0222955
0.0224434
0.0226078
0.0227906
0.0229935
0.0232202
0.0234719
0.0237536
0.0240666
0.0244181
0.0248099
0.0252498
0.0257419
0.0262934
0.0269103
0.0275926
0.028339
0.0291444
0.0299954
0.0308445
0.0316076
0.0321783
0.0324385
0.0322439
0.0314501
0.0299197
0.0277182
0.0247546
0.0213527
0.0173777
0.0227967
0.0229465
0.0231141
0.0233024
0.0235136
0.0237513
0.0240173
0.0243162
0.0246498
0.0250245
0.0254423
0.0259108
0.0264342
0.0270195
0.0276734
0.0283963
0.0291869
0.0300426
0.0309481
0.0318531
0.032667
0.03327
0.0335301
0.0332866
0.032384
0.0306933
0.0283128
0.0252011
0.0216593
0.0177528
0.023356
0.0235099
0.0236828
0.0238771
0.0240958
0.0243435
0.0246219
0.0249368
0.0252895
0.0256872
0.0261315
0.0266304
0.0271878
0.0278112
0.028508
0.0292803
0.0301279
0.0310491
0.0320317
0.0330233
0.0339276
0.0346128
0.0349318
0.0347024
0.0337496
0.0319378
0.0293845
0.0260887
0.0223337
0.0184115
0.0239905
0.0241462
0.0243215
0.02452
0.0247452
0.0250016
0.0252922
0.0256221
0.0259939
0.0264146
0.0268862
0.0274169
0.0280113
0.0286772
0.0294234
0.0302537
0.0311697
0.032174
0.0332541
0.0343599
0.0353885
0.0361997
0.0366289
0.0364714
0.0355226
0.033629
0.0309086
0.0273871
0.0233374
0.0192739
0.0246731
0.0248341
0.0250162
0.0252221
0.0254561
0.0257234
0.026027
0.0263735
0.0267654
0.0272106
0.0277115
0.0282769
0.0289116
0.0296247
0.0304264
0.0313232
0.0323195
0.0334186
0.0346146
0.0358563
0.0370372
0.0380087
0.0385883
0.0385474
0.0376447
0.0356984
0.0328103
0.0290214
0.0246024
0.0202758
0.0254243
0.0255891
0.0257758
0.0259884
0.0262314
0.0265101
0.0268285
0.0271929
0.027607
0.0280788
0.0286115
0.0292145
0.0298936
0.0306587
0.0315225
0.0324936
0.0335784
0.0347852
0.0361091
0.0375003
0.0388497
0.0399982
0.0407486
0.0408446
0.0400071
0.0380172
0.0349517
0.0308544
0.0260063
0.0213134
0.0262126
0.0263857
0.0265826
0.0268064
0.027062
0.0273559
0.0276919
0.0280776
0.0285168
0.0290189
0.0295871
0.0302321
0.0309601
0.031783
0.0327148
0.0337673
0.0349491
0.03627
0.0377307
0.0392805
0.0408071
0.0421408
0.0430689
0.0433063
0.0425355
0.0404954
0.0372331
0.0327898
0.0274699
0.0223434
0.0270589
0.0272396
0.0274455
0.0276809
0.0279509
0.0282618
0.0286185
0.0290284
0.0294963
0.030032
0.0306397
0.0313307
0.0321129
0.0329991
0.0340054
0.0351453
0.0364296
0.0378732
0.0394753
0.0411879
0.0428911
0.0444069
0.0455038
0.04587
0.0451475
0.0430355
0.0395495
0.0347265
0.0289068
0.0233025
0.0279392
0.0281312
0.0283508
0.0286017
0.0288896
0.0292216
0.0296024
0.0300407
0.0305414
0.0311155
0.0317675
0.0325102
0.0333519
0.0343072
0.0353936
0.0366273
0.0380215
0.0395907
0.0413399
0.0432174
0.0450972
0.0467897
0.0480433
0.0485196
0.0478196
0.0456057
0.0418629
0.036628
0.0302903
0.0241904
0.0288749
0.0290783
0.0293109
0.0295778
0.0298849
0.0302395
0.0306472
0.0311165
0.0316536
0.0322697
0.0329705
0.0337694
0.0346762
0.0357064
0.0368793
0.038213
0.0397222
0.0414249
0.0433249
0.0453684
0.0474219
0.0492802
0.0506734
0.0512326
0.0505218
0.0481682
0.0441336
0.0384561
0.0315877
0.024982
0.0298469
0.0300649
0.0303148
0.030601
0.0309302
0.0313109
0.0317484
0.0322527
0.03283
0.033493
0.0342473
0.0351079
0.0360853
0.0371963
0.0384617
0.0399022
0.0415338
0.0433745
0.045431
0.0476445
0.0498721
0.0518912
0.0534107
0.0540292
0.0532753
0.0507431
0.0463777
0.0402249
0.0328132
0.0257038
0.0308706
0.0311051
0.0313728
0.0316802
0.0320338
0.0324425
0.0329127
0.0334544
0.0340751
0.0347878
0.0355995
0.0365262
0.0375796
0.0387769
0.0401414
0.0416953
0.0434556
0.0454436
0.0476625
0.0500515
0.0524529
0.0546273
0.0562574
0.056911
0.0560788
0.053328
0.0485928
0.0419326
0.0339636
0.0263482
0.0319431
0.0321952
0.0324832
0.0328135
0.0331932
0.0336324
0.0341375
0.0347199
0.0353872
0.0361539
0.0370273
0.0380251
0.0391594
0.040449
0.0419187
0.0435933
0.0454914
0.0476329
0.0500242
0.0525966
0.0551781
0.057509
0.0592424
0.059913
0.0589721
0.0559637
0.050816
0.0436112
0.0350673
0.026947
0.0330741
0.0333465
0.0336559
0.0340105
0.034418
0.0348887
0.0354306
0.036055
0.0367713
0.0375945
0.038533
0.0396058
0.0408262
0.0422137
0.0437953
0.045598
0.0476417
0.0499484
0.0525226
0.0552875
0.058056
0.0605427
0.0623719
0.0630393
0.0619594
0.0586539
0.0530532
0.045267
0.0361277
0.0274952
0.0342619
0.0345548
0.0348871
0.0352672
0.0357035
0.0362082
0.0367886
0.0374584
0.0382266
0.0391101
0.0401177
0.0412701
0.0425816
0.0440727
0.0457726
0.0477119
0.0499114
0.0523937
0.0551637
0.0581345
0.0611012
0.0637509
0.065675
0.0663257
0.0650803
0.0614384
0.0553393
0.046929
0.0371697
0.0280204
0.0355028
0.0358215
0.0361802
0.0365896
0.0370582
0.0375989
0.0382205
0.0389371
0.0397594
0.0407053
0.0417849
0.0430205
0.0444277
0.0460279
0.0478532
0.0499375
0.0523027
0.0549791
0.0579572
0.0611469
0.0643206
0.0671386
0.0691525
0.0697714
0.068331
0.0643139
0.0576737
0.0485985
0.0381929
0.0285145
0.0368209
0.0371623
0.0375462
0.0379835
0.0384837
0.0390613
0.039725
0.0404905
0.0413692
0.0423806
0.0435355
0.0448583
0.0463661
0.048081
0.0500389
0.0522759
0.054827
0.0577063
0.0609127
0.0643347
0.0677294
0.0707265
0.0728317
0.0734075
0.0717448
0.067312
0.0600811
0.0502948
0.039214
0.0289972
0.0382012
0.0385712
0.0389838
0.0394525
0.0399867
0.0406022
0.041309
0.042124
0.0430602
0.0441385
0.0453713
0.0467849
0.0483975
0.0502335
0.0523293
0.0547357
0.0574809
0.0605896
0.0640362
0.0677052
0.0713341
0.0745153
0.0767089
0.0772241
0.0753089
0.0704187
0.0625521
0.0520114
0.0402274
0.0294583
0.0396683
0.0400621
0.0405005
0.0409975
0.0415636
0.0422165
0.0429665
0.0438326
0.0448284
0.0459768
0.0472914
0.0488003
0.0505239
0.0524862
0.0547313
0.0573157
0.060277
0.0636238
0.067332
0.0712678
0.0751489
0.078526
0.0808093
0.0812492
0.079051
0.0736576
0.0651023
0.0537582
0.0412418
0.0299124
0.0411876
0.0416102
0.0420769
0.0426048
0.0432052
0.0438973
0.0446931
0.0456128
0.0466718
0.0478947
0.049296
0.0509062
0.0527474
0.0548446
0.0572478
0.0600227
0.063209
0.0668178
0.070805
0.0750305
0.0791786
0.0827582
0.085123
0.0854669
0.082949
0.0770067
0.0677146
0.0555234
0.0422483
0.0303486
0.0427449
0.0431913
0.0436856
0.0442457
0.0448842
0.045621
0.0464689
0.0474492
0.0485792
0.0498843
0.051381
0.0531015
0.0550698
0.0573114
0.0598809
0.062857
0.066286
0.0701696
0.0744645
0.0790048
0.0834403
0.0872331
0.0896761
0.0899044
0.0870278
0.0804846
0.070398
0.0573109
0.0432505
0.0307771
0.044314
0.0447918
0.0453195
0.0459183
0.0466007
0.0473882
0.0482946
0.0493424
0.0505504
0.0519459
0.0535463
0.0553864
0.0574913
0.0598874
0.0626352
0.0658245
0.06951
0.0736972
0.0783247
0.0832026
0.0879406
0.0919469
0.0944563
0.0945385
0.0912594
0.0840629
0.0731313
0.0591057
0.0442381
0.0311887
0.0459482
0.0464532
0.0470115
0.0476454
0.0483698
0.0492076
0.050174
0.0512926
0.052584
0.054077
0.0557904
0.0577604
0.060014
0.062577
0.0655154
0.0689355
0.0729007
0.0774125
0.0824004
0.0876398
0.0926971
0.0969237
0.0994914
0.0993979
0.0956682
0.087757
0.07592
0.0609075
0.0452119
0.0315911
0.0475785
0.0481218
0.0487192
0.0493975
0.0501717
0.0510667
0.0520995
0.0532955
0.0546779
0.0562771
0.0581134
0.0602253
0.0626408
0.0653862
0.0685342
0.0722048
0.076472
0.0813386
0.086709
0.0923296
0.097715
0.10216
0.104764
0.104455
0.10022
0.0915347
0.0787396
0.0627004
0.0461606
0.0319774
0.0492303
0.0498078
0.0504444
0.051171
0.0520001
0.0529613
0.0540688
0.0553522
0.0568344
0.0585496
0.0605194
0.0627856
0.0653783
0.0683237
0.071702
0.0756479
0.0802447
0.085487
0.091265
0.0972864
0.103015
0.107682
0.110304
0.109742
0.104939
0.0954113
0.0815932
0.0644829
0.0470836
0.0323527
0.0508953
0.0515216
0.0522089
0.0529903
0.053881
0.0549112
0.0560983
0.0574728
0.0590609
0.0608996
0.0630125
0.0654456
0.068231
0.0713968
0.0750295
0.0792769
0.0842281
0.089875
0.0960833
0.102523
0.108604
0.113483
0.116094
0.115223
0.109787
0.0993497
0.0844545
0.0662366
0.0479699
0.0327131
0.0525945
0.0532659
0.054003
0.0548418
0.0557965
0.0569017
0.0581738
0.0596475
0.0613503
0.0633229
0.0655917
0.0682066
0.0712034
0.0746112
0.078524
0.0831004
0.088435
0.0945116
0.101176
0.108057
0.114506
0.119594
0.122168
0.120933
0.11479
0.103364
0.0873264
0.0679591
0.0488188
0.0330626
0.0542898
0.0550184
0.0558162
0.0567213
0.05775
0.0589372
0.0603029
0.0618831
0.0637095
0.0658261
0.0682628
0.0710749
0.0743015
0.0779747
0.0821932
0.0871266
0.0928735
0.0994122
0.10656
0.113907
0.120728
0.12601
0.128499
0.126832
0.119903
0.107415
0.090179
0.0696311
0.0496183
0.0334004
0.056057
0.0568319
0.0576809
0.0586479
0.0597471
0.0610201
0.0624841
0.0641805
0.0661409
0.0684142
0.0710332
0.0740589
0.0775352
0.081496
0.0860471
0.0913661
0.0975589
0.104591
0.112255
0.120092
0.1273
0.132765
0.135128
0.132958
0.125152
0.111515
0.0930141
0.0712511
0.0503683
0.0337291
0.0578782
0.0587153
0.059628
0.0606634
0.0618392
0.0631982
0.0647623
0.066575
0.068673
0.0711093
0.0739204
0.0771736
0.0809173
0.0851893
0.0900983
0.0958352
0.102507
0.110069
0.118285
0.126636
0.134234
0.139851
0.142024
0.139262
0.130487
0.11562
0.0957998
0.0727961
0.0510573
0.0340509
0.0597782
0.0606696
0.0616412
0.0627451
0.0639981
0.0654494
0.0671201
0.0690589
0.0713049
0.0739161
0.0769336
0.0804309
0.0844626
0.0890682
0.0943654
0.100551
0.107739
0.11587
0.124673
0.133566
0.14156
0.147306
0.149229
0.145784
0.135934
0.119743
0.098539
0.0742659
0.051687
0.0343681
0.061683
0.0626497
0.0636987
0.064885
0.0662289
0.067781
0.0695677
0.0716406
0.0740447
0.0768434
0.0800822
0.0838425
0.0881838
0.0931512
0.0988651
0.105537
0.113279
0.12202
0.131449
0.140907
0.14929
0.155117
0.156704
0.152466
0.141436
0.123834
0.101195
0.0756355
0.0522439
0.0346858
0.063641
0.0646729
0.0657928
0.0670628
0.0685006
0.0701652
0.0720801
0.0743039
0.0768832
0.0798881
0.0833693
0.0874157
0.0920943
0.0974521
0.103619
0.110812
0.119152
0.128549
0.138641
0.148688
0.157456
0.163324
0.16449
0.159347
0.147016
0.127908
0.103771
0.0769083
0.0527328
0.0350057
0.0656155
0.0667347
0.0679446
0.0693106
0.0708546
0.0726372
0.0746879
0.0770691
0.0798344
0.0830599
0.086802
0.0911589
0.0962032
0.101987
0.108642
0.116402
0.125386
0.135484
0.146283
0.156935
0.166067
0.171904
0.172538
0.16636
0.15261
0.13191
0.106227
0.0780536
0.05314
0.0353354
0.067642
0.0688363
0.0701287
0.0715915
0.073245
0.0751577
0.0773577
0.0799143
0.0828846
0.086352
0.0903799
0.0950754
0.10052
0.106766
0.113955
0.122325
0.132005
0.142859
0.154399
0.165675
0.175154
0.180896
0.180889
0.173541
0.158242
0.135852
0.10857
0.0790785
0.0534753
0.035677
0.0696533
0.0709473
0.072343
0.0739172
0.0756945
0.077746
0.0801067
0.0828498
0.0860408
0.0897701
0.0941079
0.0991725
0.105052
0.111805
0.119571
0.128608
0.13904
0.150698
0.163027
0.174936
0.184719
0.190269
0.189481
0.180812
0.16384
0.139675
0.110753
0.0799491
0.0537227
0.0360419
0.0717258
0.0731046
0.0745931
0.0762779
0.0781808
0.0803836
0.0829186
0.0858678
0.0893003
0.0933156
0.0979918
0.103458
0.109813
0.117116
0.125516
0.135272
0.146516
0.159041
0.17219
0.184741
0.194792
0.200059
0.198351
0.188206
0.169423
0.143395
0.112787
0.0806796
0.0538979
0.0364324
0.0738167
0.0753076
0.0769114
0.0787197
0.0807602
0.0831183
0.0858346
0.0889967
0.0926837
0.0970038
0.102043
0.107945
0.114816
0.122721
0.131805
0.142348
0.154468
0.16791
0.181928
0.195117
0.20537
0.210224
0.207427
0.195637
0.174917
0.146948
0.114621
0.0812294
0.0539858
0.0368619
0.0759569
0.0775464
0.0792577
0.0811921
0.0833758
0.0859046
0.0888189
0.0922156
0.0961807
0.100832
0.106268
0.112643
0.120078
0.128635
0.13847
0.149858
0.162924
0.177354
0.192263
0.206085
0.216479
0.220796
0.216739
0.203132
0.180338
0.150349
0.116273
0.0816199
0.0540104
0.0373341
0.0780634
0.0797821
0.0816269
0.0837044
0.0860484
0.0887583
0.091885
0.0955313
0.0997957
0.104806
0.110672
0.117564
0.125611
0.134883
0.145528
0.157842
0.171922
0.187388
0.203238
0.217671
0.228108
0.231722
0.226206
0.210601
0.18561
0.153533
0.117683
0.0818074
0.0539542
0.0378654
0.0801835
0.0820188
0.0839902
0.0862166
0.0887297
0.0916418
0.095003
0.0989272
0.103521
0.108925
0.115261
0.122716
0.131432
0.14148
0.153013
0.166317
0.181491
0.198074
0.214875
0.229891
0.240279
0.243028
0.235852
0.218063
0.190748
0.156523
0.118876
0.0818258
0.0538504
0.0384612
0.0822605
0.0842475
0.0863752
0.0887687
0.091469
0.0945932
0.0982038
0.102422
0.10737
0.113199
0.120044
0.128111
0.137553
0.148448
0.160933
0.175331
0.191679
0.209422
0.227215
0.242769
0.252971
0.254648
0.245584
0.225426
0.195676
0.159248
0.119788
0.0816234
0.0536832
0.0391381
0.0842914
0.0864219
0.0887066
0.091281
0.0941873
0.0975536
0.101445
0.105993
0.111331
0.117625
0.125024
0.133753
0.143987
0.155788
0.16934
0.184908
0.202522
0.221503
0.240274
0.256309
0.266192
0.266598
0.255415
0.232702
0.200408
0.161736
0.120456
0.0812468
0.0534967
0.0399036
0.0861617
0.0884846
0.0909707
0.0937609
0.0969073
0.100542
0.104743
0.109651
0.115413
0.12221
0.130207
0.139656
0.150732
0.163554
0.178245
0.195103
0.214065
0.23431
0.254091
0.270527
0.279913
0.278796
0.265247
0.2398
0.204872
0.163913
0.120807
0.0806418
0.0532736
0.0407741
0.0878792
0.0904125
0.0931255
0.0961736
0.0995979
0.103549
0.1081
0.113405
0.119629
0.126968
0.13561
0.145825
0.15784
0.171739
0.187694
0.20593
0.226319
0.247912
0.268664
0.285409
0.294124
0.291243
0.275079
0.246723
0.209081
0.165817
0.120886
0.0798735
0.0530697
0.0417585
0.0896983
0.0924908
0.0954666
0.0987762
0.102479
0.10673
0.111623
0.117325
0.12402
0.131925
0.141247
0.152293
0.165292
0.180387
0.197685
0.2174
0.239311
0.262279
0.284026
0.300967
0.308777
0.303844
0.284807
0.253386
0.212968
0.167369
0.120618
0.078881
0.0528698
0.0428704
0.0917599
0.0947469
0.0979299
0.10147
0.105434
0.109987
0.115234
0.121351
0.128546
0.137053
0.147107
0.159037
0.173124
0.189473
0.208227
0.229524
0.253051
0.277487
0.300155
0.317157
0.323836
0.316577
0.294407
0.259784
0.216551
0.168612
0.120064
0.0777478
0.052742
0.0441198
0.09364
0.0968833
0.100323
0.104129
0.108382
0.113259
0.118881
0.125443
0.133173
0.14233
0.15317
0.166065
0.181294
0.199027
0.219327
0.24232
0.267568
0.293478
0.317085
0.333975
0.339241
0.329327
0.303782
0.265843
0.219765
0.169465
0.119136
0.0764133
0.0526689
0.0455171
0.0957181
0.0991391
0.102775
0.106811
0.111336
0.116539
0.122551
0.129579
0.137879
0.147731
0.159421
0.173346
0.189841
0.209024
0.231004
0.255814
0.282879
0.310355
0.334761
0.351344
0.35492
0.342048
0.312886
0.271546
0.22263
0.16998
0.117914
0.0749852
0.0527299
0.0470726
0.0974615
0.101159
0.105069
0.109394
0.114231
0.119788
0.126215
0.13374
0.142645
0.153241
0.165841
0.18089
0.198716
0.219508
0.243276
0.270028
0.299012
0.328022
0.353204
0.369252
0.370789
0.354619
0.321629
0.276839
0.225087
0.170066
0.116305
0.0733975
0.0529075
0.0487906
0.0994461
0.103326
0.107437
0.112
0.117119
0.123019
0.129863
0.137898
0.147439
0.158826
0.172408
0.188658
0.207966
0.230445
0.256156
0.284982
0.315978
0.346579
0.372319
0.38757
0.386739
0.366962
0.329941
0.281696
0.227159
0.169784
0.114411
0.0717819
0.0532908
0.0506806
0.100925
0.105094
0.109494
0.114361
0.119814
0.126097
0.133393
0.14198
0.152204
0.164444
0.179083
0.196649
0.217519
0.24188
0.269652
0.300679
0.333762
0.365866
0.392116
0.406264
0.402674
0.378946
0.337759
0.286083
0.228788
0.169035
0.112132
0.070074
0.0538565
0.0527404
0.102428
0.106792
0.111412
0.116546
0.122319
0.128992
0.136765
0.145934
0.15689
0.170045
0.185829
0.204809
0.227422
0.253749
0.283758
0.317117
0.352357
0.386003
0.412448
0.425158
0.418442
0.390468
0.344992
0.289973
0.229995
0.167889
0.109592
0.0684337
0.0547002
0.0549759
0.103195
0.10789
0.112845
0.118334
0.124494
0.13161
0.139904
0.149707
0.161448
0.175592
0.192611
0.213134
0.237581
0.266098
0.29846
0.334269
0.371725
0.406773
0.433314
0.444219
0.433933
0.401413
0.351607
0.293351
0.230724
0.166237
0.106694
0.0667914
0.055793
0.0573767
0.10406
0.108969
0.114162
0.119939
0.126447
0.133991
0.142814
0.153273
0.165848
0.181048
0.199397
0.22157
0.248048
0.278835
0.313745
0.352137
0.391865
0.428302
0.45452
0.463209
0.448955
0.41165
0.357497
0.296185
0.230994
0.164159
0.103596
0.0653322
0.0572329
0.0599442
0.104132
0.109381
0.114918
0.121061
0.127979
0.136
0.145399
0.156569
0.170038
0.18637
0.206144
0.230105
0.258696
0.292017
0.329594
0.370684
0.412704
0.450309
0.476064
0.482079
0.463409
0.421086
0.36268
0.298477
0.230742
0.161542
0.100197
0.0639862
0.058977
0.0626597
0.104025
0.109514
0.115321
0.121793
0.129109
0.13762
0.147624
0.159545
0.173964
0.191501
0.212799
0.238631
0.269605
0.305567
0.346021
0.389928
0.434246
0.47295
0.497689
0.500541
0.477057
0.429574
0.367033
0.300192
0.229982
0.158486
0.0966891
0.062964
0.0611203
0.0655173
0.102865
0.108751
0.114962
0.121864
0.12966
0.138726
0.149392
0.162121
0.177554
0.19638
0.219273
0.24723
0.280701
0.31957
0.363028
0.409819
0.456393
0.495879
0.519382
0.518557
0.489806
0.437065
0.370621
0.30134
0.22864
0.154875
0.0929816
0.0621836
0.0636038
0.0684893
0.101498
0.107665
0.114191
0.12147
0.129719
0.139334
0.150681
0.164251
0.180762
0.200947
0.225652
0.255811
0.292064
0.333987
0.380597
0.43037
0.479153
0.519253
0.540827
0.535763
0.501391
0.443402
0.373313
0.301871
0.226731
0.150832
0.0893103
0.061873
0.0665137
0.0715627
0.0990352
0.105622
0.112578
0.120316
0.129082
0.139304
0.151382
0.16586
0.183523
0.205213
0.231782
0.264442
0.303625
0.348791
0.39868
0.451482
0.502361
0.542644
0.562008
0.552116
0.511751
0.448586
0.375221
0.30179
0.22417
0.146251
0.0855856
0.0619372
0.069766
0.0747007
0.0962157
0.1031
0.110379
0.118507
0.127752
0.138568
0.151402
0.166836
0.185744
0.209029
0.237731
0.272972
0.315335
0.363915
0.417248
0.473178
0.526028
0.566225
0.582525
0.567205
0.520598
0.452462
0.376193
0.301039
0.220971
0.141296
0.0820837
0.0626153
0.0734325
0.0778825
0.0919598
0.0992614
0.106968
0.115571
0.125378
0.136875
0.150552
0.167049
0.18732
0.212386
0.243292
0.281449
0.327158
0.379346
0.436263
0.495325
0.549934
0.589489
0.60235
0.581007
0.52791
0.455099
0.376373
0.299599
0.21705
0.135876
0.0787231
0.0637829
0.0774029
0.0810628
0.0865045
0.0941943
0.102333
0.111457
0.121879
0.134123
0.148726
0.166383
0.18815
0.215131
0.248563
0.289744
0.339087
0.395091
0.455755
0.517964
0.574098
0.612592
0.621019
0.593055
0.533416
0.456338
0.375593
0.297394
0.212448
0.130204
0.0758217
0.065676
0.081731
0.0842118
0.0795283
0.0877135
0.0963706
0.106068
0.117159
0.130214
0.14582
0.164744
0.188145
0.217257
0.253331
0.297943
0.351132
0.411147
0.475636
0.540893
0.598208
0.634928
0.638496
0.603348
0.537152
0.456309
0.373998
0.294382
0.207087
0.12422
0.0732882
0.0681363
0.0862757
0.0872763
0.0712184
0.0798613
0.0890213
0.099311
0.111104
0.125014
0.141697
0.161992
0.187177
0.218598
0.257693
0.305896
0.363267
0.427494
0.495922
0.564152
0.622273
0.656659
0.654239
0.61142
0.538874
0.45486
0.371384
0.290493
0.201049
0.118203
0.0714673
0.0713865
0.0910704
0.09022
0.0611903
0.0703606
0.0800742
0.0909847
0.103517
0.118337
0.136173
0.157956
0.185098
0.219093
0.261395
0.313674
0.375469
0.444078
0.516468
0.587462
0.645901
0.677085
0.668215
0.61732
0.538682
0.452145
0.367886
0.285657
0.194295
0.112117
0.0702512
0.0752164
0.0959453
0.0929839
0.0494619
0.0591112
0.069347
0.0808795
0.0941688
0.10994
0.12901
0.152412
0.181704
0.21852
0.264479
0.321048
0.387651
0.460845
0.53729
0.610866
0.669098
0.696349
0.679857
0.620596
0.536388
0.447985
0.363282
0.279826
0.186989
0.106305
0.0699986
0.0798203
0.100916
0.0955271
0.0354638
0.0456406
0.0564358
0.0686157
0.0827009
0.0994888
0.119895
0.145064
0.176733
0.216707
0.266584
0.328006
0.399736
0.477727
0.558194
0.634009
0.69138
0.713675
0.689149
0.621373
0.532143
0.442527
0.357655
0.27294
0.179138
0.100754
0.0705541
0.0849316
0.105785
0.0977886
0.0189335
0.0295989
0.0409357
0.0537741
0.0686914
0.0865608
0.108402
0.135507
0.169803
0.213226
0.267658
0.334308
0.411673
0.494709
0.579176
0.656932
0.712752
0.729211
0.695521
0.619297
0.525773
0.435564
0.350772
0.265026
0.171004
0.0958698
0.0722608
0.0907104
0.110555
0.0997298
-0.00085982
0.010328
0.0222366
0.035765
0.0515571
0.070576
0.0939705
0.123201
0.160372
0.207854
0.267333
0.339938
0.423388
0.511658
0.599947
0.679209
0.732641
0.742118
0.699006
0.614554
0.517451
0.42716
0.342692
0.256049
0.162666
0.0916262
0.0748976
0.0968247
0.115012
0.10129
-0.0244028
-0.0127365
-0.000281996
0.0139289
0.0306198
0.0508478
0.0759297
0.107498
0.148065
0.200062
0.265412
0.344621
0.434616
0.528358
0.620484
0.700906
0.75106
0.752546
0.699128
0.606886
0.507009
0.417048
0.333255
0.246145
0.154511
0.0884577
0.0787687
0.103394
0.119154
0.102435
-0.0526146
-0.0404748
-0.0274723
-0.0125706
0.00505279
0.026574
0.0535032
0.0877594
0.132079
0.189393
0.26137
0.348043
0.445136
0.54453
0.640392
0.721499
0.76731
0.75967
0.695989
0.596536
0.494511
0.405221
0.322498
0.235357
0.146667
0.0863008
0.0835566
0.11003
0.122762
0.103106
-0.0860712
-0.0735587
-0.0601043
-0.0445817
-0.0260628
-0.00321682
0.0257105
0.0629323
0.111665
0.174964
0.254503
0.349741
0.45475
0.560049
0.659658
0.741035
0.781435
0.763651
0.689251
0.583369
0.479685
0.39143
0.310389
0.223993
0.139626
0.0855814
0.0895
0.116819
0.125839
0.103285
-0.125625
-0.112913
-0.0991759
-0.0831858
-0.0638715
-0.0397197
-0.00867929
0.0318667
0.0855007
0.155797
0.244062
0.349282
0.463038
0.574461
0.677963
0.758994
0.79265
0.763711
0.679122
0.567539
0.462448
0.375582
0.297037
0.212164
0.133548
0.0861376
0.096178
0.123325
0.128174
0.102918
-0.172128
-0.159531
-0.145829
-0.129643
-0.109747
-0.0844033
-0.0512064
-0.00708967
0.0521364
0.13038
0.228888
0.34595
0.469326
0.587502
0.695359
0.775466
0.800985
0.760016
0.665468
0.548898
0.442463
0.357535
0.282676
0.200342
0.129005
0.0883315
0.103755
0.129611
0.12979
0.101996
-0.226978
-0.214862
-0.201557
-0.185515
-0.165334
-0.139008
-0.103716
-0.0558291
0.00943063
0.0967285
0.207251
0.338516
0.472221
0.598844
0.711727
0.789925
0.805436
0.751924
0.64851
0.527402
0.41939
0.337275
0.267473
0.188709
0.126104
0.091868
0.111704
0.135215
0.1305
0.100479
-0.291434
-0.280286
-0.267869
-0.252448
-0.232418
-0.20547
-0.168319
-0.116697
-0.0450997
0.0519381
0.176533
0.324879
0.469035
0.609312
0.727341
0.80217
0.80567
0.739537
0.62826
0.502776
0.392869
0.315035
0.251916
0.177874
0.125407
0.0970073
0.120121
0.140205
0.130353
0.0983884
-0.366971
-0.357361
-0.346415
-0.3322
-0.312889
-0.28586
-0.247278
-0.192227
-0.114637
-0.00757519
0.13266
0.301074
0.452936
0.615516
0.74174
0.812336
0.799901
0.722254
0.60484
0.474444
0.36257
0.290985
0.236224
0.167968
0.126893
0.103289
0.12841
0.14412
0.129197
0.0957001
-0.454816
-0.44747
-0.438737
-0.426477
-0.40866
-0.38226
-0.342937
-0.285204
-0.202317
-0.086197
0.0689817
0.25944
0.428753
0.612462
0.758037
0.821033
0.788049
0.700293
0.578141
0.441857
0.328725
0.265883
0.221057
0.159581
0.131016
0.110864
0.136639
0.147057
0.127129
0.0924608
-0.55629
-0.552054
-0.546414
-0.537035
-0.521619
-0.496735
-0.457501
-0.397556
-0.311043
-0.189305
-0.0295582
0.160707
0.388331
0.598583
0.775684
0.826451
0.770659
0.67392
0.547645
0.404397
0.29159
0.240074
0.206342
0.152658
0.137499
0.119127
0.144199
0.148603
0.124048
0.0886651
-0.672239
-0.672169
-0.670735
-0.665375
-0.653483
-0.631087
-0.592341
-0.530488
-0.44098
-0.323674
-0.180277
-0.0191047
0.294136
0.56301
0.787394
0.826578
0.749729
0.643697
0.513362
0.362622
0.252392
0.214396
0.192528
0.147674
0.146639
0.128133
0.151176
0.148928
0.120102
0.0843941
-0.803568
-0.808884
-0.812911
-0.812911
-0.805895
-0.787032
-0.749425
-0.685014
-0.591832
-0.503016
-0.402057
-0.204065
0.118722
0.487425
0.783624
0.819307
0.725573
0.610114
0.475682
0.316782
0.211261
0.188386
0.178991
0.14443
0.158027
0.137185
0.157008
0.147698
0.115249
0.0796585
-0.950586
-0.962726
-0.97383
-0.980995
-0.980877
-0.967651
-0.932943
-0.869798
-0.78961
-0.752214
-0.668737
-0.36839
-0.0557471
0.406079
0.766588
0.803716
0.698292
0.57484
0.436111
0.267595
0.169132
0.162207
0.166092
0.14359
0.171961
0.146305
0.161838
0.145172
0.109695
0.0745661
-1.11339
-1.13397
-1.15398
-1.17056
-1.17993
-1.17526
-1.14741
-1.09551
-1.05953
-1.03114
-0.891226
-0.545896
-0.193849
0.348691
0.74781
0.779167
0.667118
0.541285
0.394174
0.21415
0.125323
0.135064
0.153498
0.145373
0.18791
0.154727
0.165195
0.141129
0.103467
0.0691513
-1.29048
-1.32113
-1.35195
-1.38006
-1.4013
-1.40802
-1.39325
-1.37101
-1.3711
-1.27124
-1.04062
-0.754446
-0.319551
0.313607
0.730718
0.747913
0.636469
0.510948
0.349013
0.157004
0.081533
0.107836
0.142552
0.150736
0.205847
0.16235
0.167302
0.135949
0.0968326
0.0635605
-1.47942
-1.52141
-1.56435
-1.60531
-1.63962
-1.65989
-1.66721
-1.68025
-1.66067
-1.5119
-1.19289
-0.931548
-0.429348
0.298097
0.71237
0.710823
0.611376
0.48339
0.297944
0.0960045
0.0380175
0.080029
0.132613
0.159078
0.224483
0.168254
0.167846
0.129548
0.0898929
0.0579084
-1.67682
-1.73082
-1.78645
-1.84041
-1.88762
-1.92273
-1.95453
-1.9753
-1.90212
-1.69298
-1.4063
-1.12323
-0.531922
0.29689
0.687526
0.664978
0.593788
0.456162
0.239777
0.0347092
-0.00262572
0.0528429
0.123997
0.169605
0.24276
0.172225
0.167221
0.122461
0.0829839
0.0524823
-1.87964
-1.94572
-2.01377
-2.07985
-2.13863
-2.18756
-2.23512
-2.23909
-2.11971
-1.85455
-1.62797
-1.33993
-0.633976
0.307039
0.648079
0.609081
0.583845
0.42906
0.17237
-0.0212137
-0.0413872
0.0255776
0.115623
0.180171
0.258628
0.173305
0.165349
0.114828
0.076361
0.0475118
-2.08507
-2.16296
-2.24269
-2.31944
-2.38765
-2.44712
-2.49239
-2.4619
-2.30006
-2.04244
-1.86415
-1.59208
-0.747662
0.311929
0.5826
0.549971
0.582899
0.398467
0.0989083
-0.0647732
-0.0770718
-0.00171399
0.108164
0.189307
0.271053
0.171405
0.162814
0.107421
0.070499
0.0433834
-2.29107
-2.38032
-2.47096
-2.55697
-2.63197
-2.69861
-2.74049
-2.67383
-2.46714
-2.27087
-2.12674
-1.88158
-0.889774
0.259051
0.484777
0.493084
0.594877
0.360733
0.018496
-0.0969885
-0.110907
-0.0303828
0.0994936
0.194258
0.278622
0.165921
0.159674
0.100553
0.0656228
0.0403701
-2.49534
-2.59576
-2.69653
-2.78985