/*--------------------------------*- C++ -*----------------------------------*\
  =========                 |
  \\      /  F ield         | OpenFOAM: The Open Source CFD Toolbox
   \\    /   O peration     | Website:  https://openfoam.org
    \\  /    A nd           | Version:  6.0
     \\/     M anipulation  |
\*---------------------------------------------------------------------------*/
FoamFile
{
    version     2.0;
    format      ascii;
    class       surfaceScalarField;
    location    "19";
    object      phi;
}
// * * * * * * * * * * * * * * * * * * * * * * * * * * * * * * * * * * * * * //

dimensions      [0 3 -1 0 0 0 0];

internalField   nonuniform List<scalar> 
30763
(
-5.3289e-05
4.48204e-05
5.48184e-05
-5.14821e-05
5.25456e-05
-4.93806e-05
6.16041e-05
-4.69023e-05
7.22266e-05
-4.40098e-05
8.46799e-05
-4.06012e-05
9.9285e-05
-3.66211e-05
0.000116415
-3.19161e-05
0.000136481
-2.64111e-05
0.000160031
-1.99014e-05
0.000187606
-1.22504e-05
0.000219941
-3.22282e-06
0.000257821
7.41572e-06
0.000302167
1.998e-05
0.000354041
3.47817e-05
0.000414671
5.22137e-05
0.000485395
7.27186e-05
0.000567665
9.68027e-05
0.000663014
0.000125026
0.0007729
0.000157998
0.000898496
0.000196347
0.00104031
0.000240649
0.0011976
0.000291377
0.00136723
0.000348738
0.00154209
0.000412422
0.00170848
0.000481246
0.00184219
0.000552558
0.00190275
0.000621357
0.00182619
0.000678922
0.00151437
0.000822341
0.000699469
-5.17061e-05
4.33418e-05
5.31868e-05
-4.99637e-05
5.0812e-05
-4.79337e-05
5.95717e-05
-4.5542e-05
6.98438e-05
-4.27504e-05
8.18829e-05
-3.94598e-05
9.60033e-05
-3.56184e-05
0.000112568
-3.10758e-05
0.000131947
-2.5761e-05
0.000154712
-1.94771e-05
0.00018133
-1.20885e-05
0.000212552
-3.37495e-06
0.000249113
6.89777e-06
0.000291897
1.90249e-05
0.000341918
3.33159e-05
0.000400385
5.01406e-05
0.000468571
6.99298e-05
0.00054787
9.31682e-05
0.000639769
0.000120395
0.000745675
0.000152194
0.000866712
0.00018917
0.00100336
0.000231877
0.00115493
0.000280769
0.00131838
0.000336054
0.00148688
0.000397441
0.00164719
0.000463801
0.00177599
0.000532561
0.00183421
0.000598906
0.00176016
0.000652443
0.00146131
0.000800664
0.000675014
-5.01938e-05
4.19159e-05
5.16201e-05
-4.85121e-05
4.91401e-05
-4.65533e-05
5.76113e-05
-4.42454e-05
6.75453e-05
-4.15506e-05
7.91847e-05
-3.83752e-05
9.28372e-05
-3.46676e-05
0.000108856
-3.02842e-05
0.000127573
-2.51557e-05
0.00014958
-1.9092e-05
0.000175274
-1.19627e-05
0.000205421
-3.55565e-06
0.000240711
6.35608e-06
0.000281988
1.80548e-05
0.000330223
3.18412e-05
0.000386604
4.80692e-05
0.000452344
6.71543e-05
0.00052878
8.95627e-05
0.000617354
0.000115815
0.000719426
0.000146472
0.000836068
0.00018212
0.000967735
0.000223292
0.00111378
0.000270433
0.00127127
0.000323747
0.0014336
0.000382961
0.00158801
0.000446989
0.00171198
0.000513309
0.00176788
0.000577282
0.00169613
0.000629477
0.00140899
0.000776269
0.000653351
-4.87287e-05
4.05425e-05
5.01081e-05
-4.71079e-05
4.75294e-05
-4.52193e-05
5.57224e-05
-4.29946e-05
6.53302e-05
-4.03977e-05
7.65839e-05
-3.73361e-05
8.9785e-05
-3.37624e-05
0.000105276
-2.95352e-05
0.000123355
-2.45901e-05
0.00014463
-1.87418e-05
0.000169433
-1.18662e-05
0.000198544
-3.75765e-06
0.000232608
5.80135e-06
0.000272431
1.70828e-05
0.000318945
3.0377e-05
0.000373315
4.60248e-05
0.000436698
6.44263e-05
0.000510373
8.60309e-05
0.000595742
0.000111341
0.000694117
0.000140899
0.000806522
0.000175271
0.000933386
0.000214973
0.00107411
0.00026044
0.00122585
0.000311871
0.00138223
0.000369007
0.00153096
0.000430796
0.00165032
0.000494774
0.00170408
0.000556451
0.0016347
0.000607232
0.00135864
0.000752727
0.000631558
-4.73155e-05
3.92181e-05
4.86408e-05
-4.57523e-05
4.59762e-05
-4.39322e-05
5.39011e-05
-4.17871e-05
6.31945e-05
-3.92829e-05
7.40766e-05
-3.63312e-05
8.68426e-05
-3.28853e-05
0.000101826
-2.88099e-05
0.000119288
-2.40425e-05
0.000139858
-1.84042e-05
0.000163803
-1.17755e-05
0.000191914
-3.95807e-06
0.000224795
5.25802e-06
0.000263218
1.61343e-05
0.000308072
2.89512e-05
0.000360503
4.40368e-05
0.000421614
6.1776e-05
0.000492626
8.26048e-05
0.000574907
0.000107005
0.000669715
0.000135505
0.000778035
0.000168648
0.000900261
0.000206937
0.00103584
0.000250791
0.00118202
0.000300409
0.00133263
0.000355538
0.00147584
0.000415163
0.00159069
0.000476886
0.00164232
0.000536327
0.00157515
0.000585493
0.00130929
0.000727429
0.000610143
-4.59314e-05
3.79419e-05
4.72125e-05
-4.44246e-05
4.44799e-05
-4.26705e-05
5.21464e-05
-4.0603e-05
6.11368e-05
-3.8191e-05
7.16607e-05
-3.53463e-05
8.40073e-05
-3.20268e-05
9.85009e-05
-2.8099e-05
0.000115369
-2.35049e-05
0.000135259
-1.80703e-05
0.000158376
-1.16814e-05
0.000185523
-4.14567e-06
0.000217265
4.73798e-06
0.000254336
1.52223e-05
0.000297591
2.75776e-05
0.000348153
4.21192e-05
0.000407072
5.92211e-05
0.000475519
7.92996e-05
0.000554819
0.000102824
0.000646189
0.000130302
0.000750567
0.00016226
0.000868322
0.000199185
0.000998947
0.000241483
0.00113976
0.000289349
0.00128482
0.000342539
0.00142272
0.00040007
0.00153327
0.000459619
0.00158292
0.000516906
0.0015181
0.000564471
0.00126213
0.000703421
0.000589239
-4.46003e-05
3.67105e-05
4.58315e-05
-4.31463e-05
4.30361e-05
-4.14554e-05
5.04537e-05
-3.94616e-05
5.91523e-05
-3.71356e-05
6.93312e-05
-3.43929e-05
8.12738e-05
-3.11924e-05
9.52957e-05
-2.74062e-05
0.000111592
-2.2978e-05
0.000130827
-1.77397e-05
0.000153145
-1.15818e-05
0.000179364
-4.31862e-06
0.000210006
4.24452e-06
0.000245776
1.43505e-05
0.000287488
2.62602e-05
0.000336249
4.02789e-05
0.000393055
5.67641e-05
0.000459027
7.61206e-05
0.000535453
9.88006e-05
0.000623508
0.000125294
0.000724083
0.000156111
0.000837521
0.00019172
0.000963355
0.000232518
0.00109898
0.000278691
0.00123866
0.000330008
0.0013714
0.000385514
0.00147774
0.000442966
0.0015254
0.000498191
0.00146274
0.000544158
0.00121592
0.000678377
0.000568517
-4.3304e-05
3.55237e-05
4.44952e-05
-4.19019e-05
4.16447e-05
-4.02715e-05
4.88223e-05
-3.83488e-05
5.72396e-05
-3.61079e-05
6.70859e-05
-3.34637e-05
7.86391e-05
-3.03802e-05
9.22061e-05
-2.67303e-05
0.000107951
-2.24629e-05
0.000126554
-1.74136e-05
0.000148103
-1.14785e-05
0.000173426
-4.47724e-06
0.00020301
3.77674e-06
0.000237524
1.35183e-05
0.000277749
2.49991e-05
0.000324773
3.85129e-05
0.000379542
5.44055e-05
0.000443128
7.30656e-05
0.000516782
9.49315e-05
0.000601638
0.000120476
0.000698545
0.000150193
0.000807822
0.000184534
0.000929037
0.000223885
0.00105966
0.000268423
0.00119417
0.000317928
0.00132197
0.000371475
0.00142429
0.000426899
0.00147013
0.000480146
0.00140971
0.000524486
0.00117197
0.000655621
0.000548004
-4.20629e-05
3.43781e-05
4.32056e-05
-4.07094e-05
4.03016e-05
-3.91377e-05
4.72478e-05
-3.72827e-05
5.53939e-05
-3.51207e-05
6.49197e-05
-3.25702e-05
7.60976e-05
-2.95959e-05
8.92265e-05
-2.60763e-05
0.00010444
-2.19618e-05
0.000122435
-1.70937e-05
0.000143242
-1.13723e-05
0.000167703
-4.62345e-06
0.000196266
3.3332e-06
0.00022957
1.27238e-05
0.000268361
2.37915e-05
0.00031371
3.68195e-05
0.000366516
5.21391e-05
0.000427799
7.01296e-05
0.000498783
9.12104e-05
0.000580553
0.000115841
0.000673922
0.000144497
0.000779178
0.000177617
0.000895932
0.000215569
0.00102172
0.00025853
0.00115121
0.000306283
0.00127421
0.000357932
0.00137261
0.000411394
0.00141659
0.000462734
0.00135822
0.000505461
0.00112899
0.000632298
0.000528071
-4.08476e-05
3.32747e-05
4.19528e-05
-3.95428e-05
3.90077e-05
-3.80279e-05
4.57307e-05
-3.62392e-05
5.36151e-05
-3.41566e-05
6.28317e-05
-3.16972e-05
7.36476e-05
-2.88315e-05
8.63539e-05
-2.54379e-05
0.000101055
-2.14722e-05
0.000118464
-1.67788e-05
0.000138556
-1.12637e-05
0.000162186
-4.75744e-06
0.000189764
2.91241e-06
0.000221902
1.19649e-05
0.000259312
2.26344e-05
0.000303046
3.51927e-05
0.000353957
4.99629e-05
0.000413023
6.73055e-05
0.000481428
8.76303e-05
0.000560223
0.000111379
0.000650179
0.000139011
0.00075156
0.000170951
0.000864016
0.000207554
0.000985147
0.000248991
0.00110983
0.000295049
0.00122821
0.000344861
0.00132289
0.000396423
0.00136516
0.000445927
0.00130894
0.00048711
0.00108818
0.000611174
0.000509015
-3.96788e-05
3.22104e-05
4.07387e-05
-3.84197e-05
3.77598e-05
-3.69601e-05
4.42673e-05
-3.52348e-05
5.18995e-05
-3.32261e-05
6.08179e-05
-3.08544e-05
7.12849e-05
-2.80905e-05
8.35839e-05
-2.48181e-05
9.77912e-05
-2.09944e-05
0.000114634
-1.64694e-05
0.000134039
-1.11526e-05
0.000156866
-4.88081e-06
0.000183497
2.51306e-06
0.00021451
1.12394e-05
0.000250588
2.15246e-05
0.000292765
3.36319e-05
0.00034185
4.78694e-05
0.000398776
6.45888e-05
0.000464697
8.41844e-05
0.000540622
0.000107082
0.000627285
0.000133727
0.000724927
0.000164528
0.000833226
0.000199828
0.000949854
0.000239791
0.00106986
0.000284212
0.00118378
0.000332249
0.00127481
0.000381974
0.00131535
0.000429708
0.00126104
0.000469442
0.00104817
0.000589031
0.000490866
-3.85289e-05
3.1186e-05
3.95536e-05
-3.73163e-05
3.65582e-05
-3.59103e-05
4.28582e-05
-3.42476e-05
5.0247e-05
-3.2314e-05
5.88778e-05
-3.00278e-05
6.90082e-05
-2.7366e-05
8.09142e-05
-2.42113e-05
9.46452e-05
-2.05267e-05
0.000110943
-1.61644e-05
0.000129683
-1.10398e-05
0.000151739
-4.99361e-06
0.000177455
2.13357e-06
0.000207385
1.05454e-05
0.000242178
2.04603e-05
0.000282854
3.21314e-05
0.00033018
4.5857e-05
0.000385043
6.19745e-05
0.000448566
8.08658e-05
0.000521724
0.000102943
0.000605212
0.000128634
0.000699248
0.000158334
0.000803544
0.000192376
0.000915843
0.000230916
0.00103136
0.000273755
0.001141
0.000320076
0.00122858
0.000368028
0.00126754
0.000414063
0.00121522
0.000452429
0.00101017
0.000568756
0.000473493
-3.74238e-05
3.01979e-05
3.84046e-05
-3.62535e-05
3.53995e-05
-3.48998e-05
4.14993e-05
-3.32967e-05
4.86536e-05
-3.14324e-05
5.70073e-05
-2.92286e-05
6.68133e-05
-2.66622e-05
7.83407e-05
-2.36213e-05
9.16127e-05
-2.00696e-05
0.000107385
-1.58647e-05
0.000125485
-1.0925e-05
0.000146796
-5.09732e-06
0.000171631
1.77281e-06
0.000200516
9.88109e-06
0.000234071
1.94388e-05
0.000273301
3.06898e-05
0.000318929
4.39195e-05
0.000371803
5.94576e-05
0.000433016
7.76692e-05
0.000503505
9.89548e-05
0.000583931
0.000123725
0.000674486
0.000152364
0.000774916
0.00018519
0.000883021
0.000222355
0.000994193
0.000263667
0.00109967
0.000308333
0.00118386
0.000354574
0.0012212
0.000398978
0.00117065
0.000436036
0.000972823
0.000547324
0.000456727
-3.63368e-05
2.92466e-05
3.72842e-05
-3.52103e-05
3.42838e-05
-3.39066e-05
4.01909e-05
-3.23623e-05
4.71192e-05
-3.05684e-05
5.52058e-05
-2.8445e-05
6.46991e-05
-2.59743e-05
7.58612e-05
-2.3044e-05
8.86907e-05
-1.96226e-05
0.000103957
-1.55701e-05
0.00012144
-1.08101e-05
0.000142033
-5.19285e-06
0.000166019
1.42865e-06
0.000193896
9.24414e-06
0.000226258
1.8457e-05
0.000264093
2.93014e-05
0.000308084
4.20558e-05
0.000359041
5.70327e-05
0.000418025
7.45895e-05
0.00048594
9.51104e-05
0.000563413
0.000118992
0.000650614
0.000146605
0.000747322
0.000178257
0.000851395
0.000214094
0.000958398
0.000253931
0.00105989
0.000297003
0.00114087
0.000341596
0.00117673
0.000384431
0.00112802
0.000420222
0.00093739
0.000527883
0.000440461
-3.5299e-05
2.83286e-05
3.62072e-05
-3.4211e-05
3.32077e-05
-3.29554e-05
3.89292e-05
-3.14664e-05
4.56399e-05
-2.9737e-05
5.34695e-05
-2.76907e-05
6.26616e-05
-2.53093e-05
7.34721e-05
-2.24856e-05
8.58752e-05
-1.91887e-05
0.000100653
-1.52836e-05
0.000117541
-1.06965e-05
0.000137442
-5.28332e-06
0.000160609
1.09867e-06
0.000187516
8.63134e-06
0.000218726
1.75114e-05
0.000255216
2.79654e-05
0.00029763
4.02586e-05
0.000346738
5.46961e-05
0.000403573
7.16213e-05
0.000469007
9.14045e-05
0.000543631
0.00011443
0.000627596
0.000141053
0.000720706
0.000171571
0.000820878
0.000206127
0.000923834
0.000244542
0.00102145
0.000286076
0.00109928
0.000329081
0.00113363
0.000370408
0.00108653
0.000404964
0.000902528
0.000507449
0.000424646
-3.42891e-05
2.74442e-05
3.51678e-05
-3.32416e-05
3.21708e-05
-3.20317e-05
3.77136e-05
-3.0597e-05
4.42147e-05
-2.89328e-05
5.17965e-05
-2.69608e-05
6.06984e-05
-2.46684e-05
7.11699e-05
-2.19473e-05
8.3162e-05
-1.87716e-05
9.74691e-05
-1.50083e-05
0.000113784
-1.05883e-05
0.000133018
-5.37112e-06
0.000155396
7.79552e-07
0.000181366
8.03987e-06
0.000211467
1.65994e-05
0.000246661
2.66761e-05
0.000287553
3.85265e-05
0.000334878
5.24431e-05
0.000389641
6.87586e-05
0.000452682
8.78306e-05
0.00052456
0.00011003
0.000605407
0.000135697
0.000695053
0.000165122
0.000791479
0.00019844
0.000890552
0.000235483
0.000984465
0.000275536
0.00105931
0.000317014
0.00109228
0.000356888
0.00104685
0.000390239
0.000869536
0.000489192
0.00040929
-3.33417e-05
2.65895e-05
3.41826e-05
-3.23283e-05
3.11694e-05
-3.11622e-05
3.654e-05
-2.97771e-05
4.28393e-05
-2.81712e-05
5.01827e-05
-2.62694e-05
5.88052e-05
-2.40584e-05
6.89504e-05
-2.14354e-05
8.05467e-05
-1.83743e-05
9.44006e-05
-1.47473e-05
0.000110163
-1.04874e-05
0.000128754
-5.45938e-06
0.000150371
4.68984e-07
0.000175439
7.46687e-06
0.00020447
1.57178e-05
0.000238413
2.54316e-05
0.00027784
3.68537e-05
0.000323445
5.02693e-05
0.000376211
6.59971e-05
0.000436944
8.43844e-05
0.000506175
0.000105786
0.000584011
0.000130533
0.000670312
0.000158904
0.000763107
0.00019103
0.000858416
0.00022675
0.000948716
0.000265376
0.00102063
0.000305382
0.00105217
0.000343857
0.0010082
0.000376036
0.000837044
0.000470038
0.000394411
-3.24237e-05
2.57655e-05
3.32383e-05
-3.14475e-05
3.02037e-05
-3.03232e-05
3.54083e-05
-2.89879e-05
4.1513e-05
-2.74417e-05
4.86264e-05
-2.56078e-05
5.69795e-05
-2.34783e-05
6.68101e-05
-2.09492e-05
7.80251e-05
-1.79993e-05
9.1442e-05
-1.45026e-05
0.000106673
-1.03968e-05
0.000124644
-5.54989e-06
0.000145527
1.64404e-07
0.000169725
6.91015e-06
0.000197725
1.4864e-05
0.000230463
2.42275e-05
0.000268475
3.52392e-05
0.000312424
4.81706e-05
0.000363263
6.33327e-05
0.000421771
8.10592e-05
0.000488449
0.000101693
0.000563385
0.000125552
0.000646467
0.000152907
0.000735774
0.000183884
0.000827475
0.00021833
0.000914324
0.000255581
0.000983456
0.00029417
0.0010137
0.000331297
0.000971272
0.00036234
0.000806343
0.000453144
0.000380041
-3.15719e-05
2.49686e-05
3.23518e-05
-3.06264e-05
2.92703e-05
-2.95414e-05
3.43148e-05
-2.82508e-05
4.02321e-05
-2.67571e-05
4.71241e-05
-2.4987e-05
5.52179e-05
-2.29315e-05
6.47456e-05
-2.04921e-05
7.55931e-05
-1.76473e-05
8.85891e-05
-1.42757e-05
0.000103307
-1.03172e-05
0.000120681
-5.64468e-06
0.000140857
-1.35608e-07
0.000164217
6.36742e-06
0.000191223
1.40355e-05
0.000222799
2.30631e-05
0.000259447
3.3678e-05
0.000301798
4.61441e-05
0.00035078
6.07616e-05
0.000407144
7.78515e-05
0.000471358
9.77458e-05
0.000543496
0.000120751
0.000623466
0.000147127
0.000709397
0.000176998
0.000797592
0.000210216
0.000881076
0.000246144
0.000947465
0.000283368
0.000976364
0.000319196
0.000935266
0.000349147
0.00077607
0.000435307
0.000366191
-3.07445e-05
2.42003e-05
3.15021e-05
-2.98339e-05
2.83701e-05
-2.87879e-05
3.32599e-05
-2.75434e-05
3.89961e-05
-2.61053e-05
4.56742e-05
-2.43973e-05
5.35176e-05
-2.24168e-05
6.27528e-05
-2.00629e-05
7.3246e-05
-1.73197e-05
8.58362e-05
-1.40673e-05
0.00010006
-1.02499e-05
0.000116858
-5.74372e-06
0.000136354
-4.31844e-07
0.000158905
5.83832e-06
0.000184953
1.32317e-05
0.000215408
2.19355e-05
0.000250743
3.21695e-05
0.000291553
4.41876e-05
0.000338745
5.82798e-05
0.00039304
7.4757e-05
0.00045488
9.39389e-05
0.000524322
0.000116121
0.000601296
0.000141555
0.000683984
0.000170361
0.000768817
0.000202398
0.000849093
0.000237052
0.000912885
0.000272962
0.00094057
0.000307536
0.000900879
0.000336437
0.00074751
0.00041968
0.00035287
-2.99856e-05
2.34566e-05
3.07072e-05
-2.91027e-05
2.74989e-05
-2.80924e-05
3.22396e-05
-2.68879e-05
3.78012e-05
-2.54968e-05
4.42734e-05
-2.38463e-05
5.18755e-05
-2.19327e-05
6.0829e-05
-1.96604e-05
7.09808e-05
-1.7013e-05
8.31799e-05
-1.3875e-05
9.69267e-05
-1.01927e-05
0.000113171
-5.8466e-06
0.00013201
-7.23734e-07
0.000153783
5.32245e-06
0.000178907
1.2452e-05
0.000208282
2.08446e-05
0.00024235
3.07113e-05
0.000281675
4.22983e-05
0.000327141
5.58851e-05
0.000379442
7.17733e-05
0.000438992
9.02694e-05
0.00050583
0.00011166
0.000579909
0.000136188
0.000659453
0.000163969
0.000741023
0.000194869
0.000818162
0.000228297
0.000879392
0.000262942
0.000905815
0.000296308
0.000867332
0.0003242
0.000719293
0.000403006
0.000340055
-2.92339e-05
2.274e-05
2.99364e-05
-2.83837e-05
2.66591e-05
-2.74103e-05
3.12555e-05
-2.62491e-05
3.66482e-05
-2.49101e-05
4.29211e-05
-2.33175e-05
5.029e-05
-2.14731e-05
5.89714e-05
-1.92795e-05
6.87937e-05
-1.67255e-05
8.06155e-05
-1.3697e-05
9.39032e-05
-1.01445e-05
0.000109613
-5.95164e-06
0.000127819
-1.01058e-06
0.000148842
4.82074e-06
0.000173075
1.16962e-05
0.00020141
1.97892e-05
0.000234256
2.93033e-05
0.000272149
4.0475e-05
0.000315951
5.35755e-05
0.000366328
6.88959e-05
0.000423671
8.67321e-05
0.000487999
0.000107361
0.000559292
0.000131016
0.000635815
0.000157812
0.000714259
0.000187618
0.000788403
0.000219867
0.000847216
0.000253293
0.000872494
0.000285496
0.000835313
0.000312417
0.000692695
0.000388483
0.000327738
-2.85429e-05
2.20466e-05
2.92113e-05
-2.77183e-05
2.58467e-05
-2.67777e-05
3.03039e-05
-2.56532e-05
3.55339e-05
-2.43574e-05
4.16149e-05
-2.28179e-05
4.87591e-05
-2.10354e-05
5.71782e-05
-1.89175e-05
6.66828e-05
-1.64522e-05
7.81408e-05
-1.35296e-05
9.09854e-05
-1.01019e-05
0.00010618
-6.05696e-06
0.000123776
-1.2904e-06
0.000144076
4.33383e-06
0.000167451
1.09651e-05
0.000194782
1.87701e-05
0.000226451
2.79443e-05
0.000262964
3.87161e-05
0.000305161
5.13492e-05
0.000353684
6.61233e-05
0.000408896
8.33254e-05
0.000470801
0.000103221
0.000539399
0.000126038
0.000612995
0.000151886
0.000688398
0.00018064
0.000759618
0.000211753
0.000816037
0.000244006
0.000840131
0.000275086
0.000804052
0.000301076
0.000666374
0.000372845
0.000315886
-2.7845e-05
2.13793e-05
2.84979e-05
-2.70519e-05
2.50643e-05
-2.61468e-05
2.93867e-05
-2.5064e-05
3.4459e-05
-2.38181e-05
4.03541e-05
-2.23329e-05
4.72808e-05
-2.06157e-05
5.54463e-05
-1.85708e-05
6.46441e-05
-1.61923e-05
7.5751e-05
-1.3371e-05
8.81686e-05
-1.00633e-05
0.000102866
-6.16014e-06
0.000119875
-1.56171e-06
0.000139477
3.86361e-06
0.000162025
1.02595e-05
0.000188388
1.77873e-05
0.000218923
2.66342e-05
0.000254105
3.70219e-05
0.000294755
4.92041e-05
0.000341488
6.34527e-05
0.000394645
8.00441e-05
0.000454216
9.92351e-05
0.000520217
0.000121246
0.000591004
0.000146181
0.00066349
0.000173923
0.000731924
0.000203943
0.000786082
0.000235066
0.00080911
0.000265063
0.000774225
0.000290156
0.000641602
0.000359297
0.000304488
-2.72067e-05
2.07332e-05
2.78237e-05
-2.64371e-05
2.43071e-05
-2.55622e-05
2.84996e-05
-2.45125e-05
3.34199e-05
-2.33061e-05
3.91361e-05
-2.18697e-05
4.58534e-05
-2.02096e-05
5.37745e-05
-1.8235e-05
6.26765e-05
-1.59389e-05
7.34447e-05
-1.3216e-05
8.54503e-05
-1.00242e-05
9.96685e-05
-6.25833e-06
0.000116111
-1.82183e-06
0.000135041
3.41139e-06
0.000156791
9.581e-06
0.000182222
1.68413e-05
0.000211662
2.53734e-05
0.000245561
3.53904e-05
0.000284718
4.71392e-05
0.000329726
6.08827e-05
0.000380902
7.68867e-05
0.000438216
9.54003e-05
0.000501707
0.000116635
0.000569765
0.000140693
0.000639418
0.000167461
0.000705125
0.000196429
0.00075705
0.000226463
0.000778966
0.000255416
0.000745091
0.000279644
0.000617042
0.000344598
0.00029351
-2.65448e-05
2.01122e-05
2.71498e-05
-2.58047e-05
2.35787e-05
-2.49637e-05
2.76453e-05
-2.39539e-05
3.24185e-05
-2.27951e-05
3.79614e-05
-2.14103e-05
4.44759e-05
-1.98117e-05
5.21606e-05
-1.79057e-05
6.0777e-05
-1.56909e-05
7.12183e-05
-1.30627e-05
8.28267e-05
-9.98301e-06
9.65829e-05
-6.34929e-06
0.000112478
-2.06921e-06
0.000130761
2.97907e-06
0.000151742
8.92993e-06
0.000176274
1.59328e-05
0.000204659
2.41612e-05
0.00023732
3.3822e-05
0.000275039
4.51533e-05
0.000318381
5.84101e-05
0.000367643
7.38488e-05
0.000422781
9.17104e-05
0.000483857
0.000112199
0.000549293
0.000135413
0.000616232
0.000161243
0.000679338
0.000189198
0.000729158
0.000218182
0.000750073
0.000246128
0.000717312
0.00026952
0.000593956
0.000331951
0.000282944
-2.59367e-05
1.95112e-05
2.65086e-05
-2.52181e-05
2.28741e-05
-2.44048e-05
2.68197e-05
-2.34257e-05
3.14514e-05
-2.23036e-05
3.68276e-05
-2.09648e-05
4.3147e-05
-1.94201e-05
5.0604e-05
-1.75804e-05
5.89449e-05
-1.54433e-05
6.90708e-05
-1.29076e-05
8.02958e-05
-9.93658e-06
9.3606e-05
-6.43104e-06
0.000108974
-2.30198e-06
0.000126632
2.56738e-06
0.000146872
8.30767e-06
0.000170537
1.50618e-05
0.000197904
2.29983e-05
0.000229373
3.23146e-05
0.000265701
4.3245e-05
0.000307438
5.60336e-05
0.000354853
7.09292e-05
0.000407891
8.81634e-05
0.000466625
0.000107934
0.00052952
0.000130337
0.000593816
0.000155264
0.000654381
0.000182243
0.000702117
0.000210215
0.000721994
0.000237188
0.000690161
0.000259772
0.000571038
0.00031813
0.000272757
-2.52982e-05
1.89344e-05
2.58612e-05
-2.46078e-05
2.21971e-05
-2.38274e-05
2.60254e-05
-2.28866e-05
3.05198e-05
-2.18105e-05
3.57344e-05
-2.05205e-05
4.18648e-05
-1.90342e-05
4.91015e-05
-1.7259e-05
5.71765e-05
-1.51981e-05
6.69979e-05
-1.27509e-05
7.78533e-05
-9.88451e-06
9.07337e-05
-6.50253e-06
0.000105594
-2.51938e-06
0.000122649
2.17775e-06
0.000142175
7.71413e-06
0.000165004
1.42294e-05
0.00019139
2.18827e-05
0.000221707
3.08692e-05
0.000256694
4.14125e-05
0.00029688
5.37505e-05
0.000342512
6.81228e-05
0.000393524
8.47533e-05
0.000450004
0.000103833
0.000510457
0.000125454
0.000572221
0.000149513
0.000630366
0.000175551
0.000676136
0.000202547
0.000695085
0.000228579
0.000664283
0.00025038
0.00054954
0.000306324
0.000262948
-2.47189e-05
1.83752e-05
2.52462e-05
-2.40482e-05
2.15415e-05
-2.32928e-05
2.52569e-05
-2.23794e-05
2.96196e-05
-2.13362e-05
3.46791e-05
-2.00882e-05
4.06277e-05
-1.86516e-05
4.76524e-05
-1.6938e-05
5.5471e-05
-1.49497e-05
6.49989e-05
-1.2589e-05
7.54977e-05
-9.82419e-06
8.79633e-05
-6.56214e-06
0.000102333
-2.71968e-06
0.000118808
1.81038e-06
0.000137644
7.1508e-06
0.000159668
1.34349e-05
0.00018511
2.08139e-05
0.000214312
2.94829e-05
0.000248006
3.96544e-05
0.000286694
5.15593e-05
0.000330607
6.54281e-05
0.00037966
8.14782e-05
0.000433958
9.98933e-05
0.00049204
0.000120762
0.00055134
0.000143983
0.000607116
0.000169114
0.000650945
0.000195168
0.000668926
0.000220292
0.000638982
0.000241336
0.000528164
0.00029334
0.000253487
-2.40984e-05
1.78392e-05
2.46206e-05
-2.34537e-05
2.09122e-05
-2.27293e-05
2.45184e-05
-2.18522e-05
2.87532e-05
-2.08526e-05
3.36623e-05
-1.96509e-05
3.9435e-05
-1.82692e-05
4.62546e-05
-1.66163e-05
5.38258e-05
-1.46996e-05
6.30705e-05
-1.24222e-05
7.32255e-05
-9.7557e-06
8.52914e-05
-6.60889e-06
9.91888e-05
-2.90281e-06
0.000115103
1.46647e-06
0.000133276
6.61956e-06
0.000154524
1.26725e-05
0.000179048
1.9793e-05
0.000207181
2.81547e-05
0.000239623
3.79696e-05
0.000276866
4.94566e-05
0.000319118
6.28405e-05
0.000366281
7.83317e-05
0.000418479
9.61067e-05
0.000474281
0.000116251
0.000531224
0.000138665
0.000584742
0.000162921
0.000626744
0.000188066
0.000643859
0.000212312
0.000614888
0.00023262
0.000508146
0.000282338
0.000244375
-2.35359e-05
1.73196e-05
2.40262e-05
-2.29085e-05
2.0303e-05
-2.22066e-05
2.38043e-05
-2.13542e-05
2.79166e-05
-2.03852e-05
3.26815e-05
-1.92226e-05
3.82852e-05
-1.78879e-05
4.49076e-05
-1.62932e-05
5.22404e-05
-1.4445e-05
6.12119e-05
-1.22489e-05
7.10352e-05
-9.67756e-06
8.27153e-05
-6.64263e-06
9.61567e-05
-3.06847e-06
0.000111531
1.14875e-06
0.000129063
6.10896e-06
0.000149558
1.19511e-05
0.000173205
1.88144e-05
0.000200298
2.68837e-05
0.000231536
3.63556e-05
0.000267386
4.74406e-05
0.000308033
6.03582e-05
0.000353369
7.53113e-05
0.00040353
9.24705e-05
0.00045712
0.000111916
0.000511766
0.000133552
0.000563079
0.000156965
0.000603274
0.000181232
0.00061949
0.000204628
0.000591318
0.000224225
0.000488217
0.000270151
0.000235583
-2.2932e-05
1.6822e-05
2.34216e-05
-2.23281e-05
1.97187e-05
-2.16552e-05
2.31184e-05
-2.0837e-05
2.7112e-05
-1.99093e-05
3.17371e-05
-1.87905e-05
3.71773e-05
-1.75081e-05
4.36089e-05
-1.59706e-05
5.07118e-05
-1.41898e-05
5.94198e-05
-1.2072e-05
6.89234e-05
-9.59179e-06
8.02315e-05
-6.66528e-06
9.32329e-05
-3.21627e-06
0.000108085
8.45575e-07
0.000124998
5.63261e-06
0.000144771
1.12591e-05
0.000167563
1.78813e-05
0.00019366
2.56697e-05
0.000223737
3.48098e-05
0.000258238
4.55076e-05
0.000297334
5.79761e-05
0.000340906
7.24111e-05
0.000389106
8.89773e-05
0.000440573
0.00010775
0.00049302
0.000128637
0.000542235
0.000151234
0.000580727
0.000174653
0.000596147
0.000197228
0.000568885
0.000216134
0.000469603
0.000259901
0.000227117
-2.23886e-05
1.63393e-05
2.28495e-05
-2.17998e-05
1.91528e-05
-2.11469e-05
2.24554e-05
-2.03515e-05
2.63353e-05
-1.94527e-05
3.08267e-05
-1.8371e-05
3.611e-05
-1.71332e-05
4.23584e-05
-1.56504e-05
4.92396e-05
-1.39341e-05
5.76934e-05
-1.1892e-05
6.68886e-05
-9.5006e-06
7.78375e-05
-6.67825e-06
9.04142e-05
-3.35232e-06
0.000104763
5.6685e-07
0.000121079
5.1768e-06
0.000140151
1.06043e-05
0.000162125
1.69936e-05
0.000187258
2.45079e-05
0.00021621
3.33298e-05
0.000249412
4.36558e-05
0.000287011
5.56922e-05
0.000328876
6.96291e-05
0.000375174
8.56239e-05
0.000424577
0.000103749
0.000474883
0.000123912
0.000522046
0.000145723
0.000558861
0.000168323
0.000573449
0.000190104
0.000546932
0.00020834
0.000451036
0.000248474
0.000218948
-2.1809e-05
1.58778e-05
2.22682e-05
-2.12436e-05
1.8611e-05
-2.06198e-05
2.18193e-05
-1.98587e-05
2.55889e-05
-1.89992e-05
2.99503e-05
-1.79592e-05
3.50815e-05
-1.67689e-05
4.11523e-05
-1.53389e-05
4.78196e-05
-1.36837e-05
5.60282e-05
-1.17136e-05
6.49259e-05
-9.40647e-06
7.55287e-05
-6.6841e-06
8.76961e-05
-3.47507e-06
0.00010156
3.02378e-07
0.000117299
4.75017e-06
0.000135698
9.98265e-06
0.000156877
1.61457e-05
0.00018108
2.33996e-05
0.000208951
3.19134e-05
0.000240893
4.1881e-05
0.000277044
5.35015e-05
0.000317261
6.69589e-05
0.00036173
8.24036e-05
0.000409152
9.99043e-05
0.000457413
0.000119369
0.000502621
0.000140421
0.00053786
0.000162229
0.000551709
0.000183242
0.000526063
0.000200828
0.000433731
0.000238939
0.000211083
-2.12933e-05
1.54272e-05
2.17089e-05
-2.07488e-05
1.80825e-05
-2.01485e-05
2.11998e-05
-1.94097e-05
2.48635e-05
-1.85757e-05
2.91004e-05
-1.75676e-05
3.40859e-05
-1.64155e-05
3.99866e-05
-1.50336e-05
4.64484e-05
-1.34358e-05
5.44212e-05
-1.15343e-05
6.30328e-05
-9.3086e-06
7.33021e-05
-6.68228e-06
8.50748e-05
-3.58728e-06
9.84703e-05
5.84657e-08
0.000113655
4.34471e-06
0.0001314
9.39281e-06
0.000151817
1.53407e-05
0.000175122
2.23387e-05
0.000201941
3.05581e-05
0.000232672
4.01814e-05
0.000267424
5.14026e-05
0.000306047
6.43984e-05
0.00034874
7.93136e-05
0.000394237
9.62119e-05
0.000440504
0.000115003
0.000483805
0.000135323
0.000517489
0.000156366
0.00053057
0.000176634
0.000505627
0.000193591
0.000416445
0.000228222
0.000203495
-2.07368e-05
1.49981e-05
2.11609e-05
-2.02092e-05
1.75787e-05
-1.96325e-05
2.06085e-05
-1.89242e-05
2.41697e-05
-1.81276e-05
2.8286e-05
-1.71601e-05
3.313e-05
-1.60548e-05
3.88658e-05
-1.47244e-05
4.51287e-05
-1.31855e-05
5.28733e-05
-1.13526e-05
6.12082e-05
-9.20615e-06
7.11555e-05
-6.67332e-06
8.25472e-05
-3.68699e-06
9.54909e-05
-1.72399e-07
0.000110139
3.96503e-06
0.000127258
8.83346e-06
0.000146934
1.45707e-05
0.00016937
2.13278e-05
0.000195181
2.92615e-05
0.000224734
3.85535e-05
0.000258132
4.93901e-05
0.000295218
6.19417e-05
0.000336202
7.63472e-05
0.000379854
9.26651e-05
0.000424217
0.000110806
0.000465706
0.000130418
0.000497925
0.000150722
0.000510335
0.000170271
0.000486214
0.000186617
0.000400382
0.000219349
0.000196191
-2.02398e-05
1.45809e-05
2.06346e-05
-1.97295e-05
1.70895e-05
-1.91743e-05
2.00351e-05
-1.84881e-05
2.34978e-05
-1.77168e-05
2.74983e-05
-1.6781e-05
3.22065e-05
-1.57125e-05
3.77835e-05
-1.44279e-05
4.38547e-05
-1.29427e-05
5.13794e-05
-1.11737e-05
5.94477e-05
-9.10257e-06
6.90843e-05
-6.65857e-06
8.01088e-05
-3.77781e-06
9.26168e-05
-3.84535e-07
0.000106748
3.60376e-06
0.000123258
8.30209e-06
0.000142223
1.38405e-05
0.000163821
2.036e-05
0.00018865
2.80213e-05
0.000217072
3.69954e-05
0.000249163
4.74625e-05
0.000284759
5.95874e-05
0.000324084
7.35017e-05
0.00036594
8.926e-05
0.000408447
0.000106774
0.000448168
0.000125701
0.000478948
0.000145291
0.000490652
0.000164144
0.000467194
0.0001799
0.000384299
0.000209312
0.000189143
-1.97203e-05
1.41791e-05
2.00981e-05
-1.92328e-05
1.66175e-05
-1.87046e-05
1.9481e-05
-1.80463e-05
2.28478e-05
-1.73087e-05
2.67358e-05
-1.64063e-05
3.13124e-05
-1.53776e-05
3.67361e-05
-1.41365e-05
4.2623e-05
-1.27029e-05
4.9936e-05
-1.0995e-05
5.77478e-05
-8.9959e-06
6.70854e-05
-6.63764e-06
7.77559e-05
-3.85705e-06
8.98439e-05
-5.852e-07
0.000103476
3.26614e-06
0.000119402
7.7983e-06
0.000137676
1.31414e-05
0.000158463
1.94383e-05
0.000182352
2.68353e-05
0.000209671
3.55032e-05
0.000240497
4.56151e-05
0.000274654
5.73295e-05
0.000312386
7.07709e-05
0.000352522
8.59901e-05
0.000393263
0.000102898
0.0004313
0.000121165
0.00046073
0.000140064
0.000471819
0.000158244
0.000449154
0.000173425
0.000369396
0.00020106
0.00018236
-1.92456e-05
1.37912e-05
1.96103e-05
-1.87689e-05
1.61627e-05
-1.82553e-05
1.89478e-05
-1.76161e-05
2.22229e-05
-1.69014e-05
2.60031e-05
-1.603e-05
3.04532e-05
-1.50375e-05
3.5729e-05
-1.38413e-05
4.14374e-05
-1.24597e-05
4.85456e-05
-1.08128e-05
5.61094e-05
-8.88487e-06
6.5158e-05
-6.60983e-06
7.54866e-05
-3.92755e-06
8.71689e-05
-7.6806e-07
0.000100319
2.94461e-06
0.000115678
7.31934e-06
0.00013329
1.24788e-05
0.000153295
1.85554e-05
0.000176263
2.57012e-05
0.000202525
3.40756e-05
0.000232127
4.38468e-05
0.000264892
5.51664e-05
0.000301074
6.81528e-05
0.000339537
8.28514e-05
0.000378553
9.91751e-05
0.000414952
0.000116804
0.000443053
0.000135035
0.000453494
0.000152564
0.000431461
0.00016719
0.000354444
0.000191651
0.000175816
-1.87526e-05
1.34177e-05
1.91041e-05
-1.82959e-05
1.57239e-05
-1.78061e-05
1.84327e-05
-1.71919e-05
2.16188e-05
-1.65076e-05
2.52944e-05
-1.56668e-05
2.96222e-05
-1.47111e-05
3.47554e-05
-1.35557e-05
4.02923e-05
-1.22224e-05
4.72033e-05
-1.06331e-05
5.45283e-05
-8.77252e-06
6.32985e-05
-6.57762e-06
7.32972e-05
-3.98852e-06
8.45882e-05
-9.42122e-07
9.72731e-05
2.64401e-06
0.000112088
6.86463e-06
0.000129054
1.18433e-05
0.000148301
1.77151e-05
0.00017039
2.46167e-05
0.000195619
3.27089e-05
0.000224037
4.21527e-05
0.000255458
5.30927e-05
0.000290151
6.56413e-05
0.000327016
7.98382e-05
0.000364391