/*--------------------------------*- C++ -*----------------------------------*\
  =========                 |
  \\      /  F ield         | OpenFOAM: The Open Source CFD Toolbox
   \\    /   O peration     | Website:  https://openfoam.org
    \\  /    A nd           | Version:  6.0
     \\/     M anipulation  |
\*---------------------------------------------------------------------------*/
FoamFile
{
    version     2.0;
    format      ascii;
    class       volVectorField;
    location    "19";
    object      U;
}
// * * * * * * * * * * * * * * * * * * * * * * * * * * * * * * * * * * * * * //

dimensions      [0 1 -1 0 0 0 0];

internalField   nonuniform List<vector> 
15500
(
(0.996155 0.0876161 -1.59281e-20)
(0.996157 0.0876121 1.82149e-21)
(0.996158 0.0876053 3.78711e-20)
(0.99616 0.0875989 9.89693e-20)
(0.996161 0.0875922 -1.85865e-19)
(0.996162 0.0875857 -3.52648e-20)
(0.996163 0.0875784 2.65145e-19)
(0.996163 0.087571 2.0352e-20)
(0.996164 0.0875622 8.8538e-21)
(0.996163 0.0875527 -2.11536e-19)
(0.996162 0.0875409 5.70387e-19)
(0.99616 0.0875279 -4.19809e-19)
(0.996156 0.0875088 -3.16325e-20)
(0.99615 0.0874828 -4.03602e-19)
(0.996141 0.0874507 2.5366e-19)
(0.996126 0.0874125 -3.92738e-19)
(0.996104 0.0873666 9.34941e-19)
(0.99607 0.0873093 -1.24037e-18)
(0.996021 0.0872329 5.15858e-19)
(0.995954 0.0871293 -1.74482e-18)
(0.995861 0.0869928 2.00295e-18)
(0.995733 0.0868172 5.36442e-19)
(0.995562 0.0865916 -3.1896e-19)
(0.99534 0.0862949 -4.14456e-18)
(0.995067 0.0858858 7.21523e-18)
(0.994755 0.0852908 3.35522e-18)
(0.994447 0.0843631 -2.99019e-18)
(0.994224 0.0829263 -3.46782e-18)
(0.994367 0.0802287 -5.39673e-18)
(0.986981 0.0730972 6.89406e-18)
(0.996036 0.0881975 -1.8949e-20)
(0.996038 0.0881874 6.27338e-20)
(0.996041 0.0881756 -1.84522e-20)
(0.996044 0.0881622 6.7228e-20)
(0.996048 0.0881483 -2.23655e-19)
(0.996051 0.0881329 -1.70608e-19)
(0.996053 0.0881152 4.62312e-20)
(0.996055 0.0880952 -2.47208e-19)
(0.996056 0.088071 4.47957e-19)
(0.996055 0.0880438 -1.55678e-19)
(0.996053 0.0880105 1.4157e-19)
(0.996049 0.0879717 2.72968e-19)
(0.996041 0.0879206 -1.23967e-19)
(0.99603 0.0878545 7.15273e-20)
(0.996012 0.0877748 -9.35635e-20)
(0.995987 0.0876821 -2.75925e-19)
(0.99595 0.0875754 6.83113e-19)
(0.995895 0.0874504 -9.93186e-20)
(0.995818 0.087299 1.28027e-18)
(0.995711 0.0871128 2.38295e-18)
(0.995565 0.0868858 -1.95573e-18)
(0.995365 0.0866095 1.12531e-18)
(0.995094 0.0862642 -1.79053e-18)
(0.994741 0.085808 -5.67106e-19)
(0.994303 0.0851488 -5.08179e-18)
(0.993807 0.0841549 -1.51044e-19)
(0.993352 0.0825633 3.64482e-19)
(0.993018 0.0802363 1.27573e-18)
(0.993657 0.0763009 1.31378e-17)
(0.98516 0.0680946 3.22847e-19)
(0.995898 0.0888019 5.16082e-20)
(0.995893 0.0887856 -4.95221e-20)
(0.99589 0.0887697 -3.04753e-20)
(0.995889 0.0887515 -9.33068e-20)
(0.995889 0.0887329 1.86247e-19)
(0.995889 0.0887112 -2.66247e-19)
(0.995889 0.0886864 1.64273e-19)
(0.995889 0.0886571 1.25977e-19)
(0.995887 0.088622 -7.30543e-20)
(0.995883 0.088581 -2.45251e-19)
(0.995877 0.0885315 9.32617e-20)
(0.995868 0.0884725 3.44901e-19)
(0.995855 0.0883981 -1.73209e-19)
(0.995838 0.0883049 1.91013e-19)
(0.995816 0.088194 -4.12127e-19)
(0.995788 0.0880665 6.09537e-19)
(0.99575 0.0879222 -1.00008e-18)
(0.995697 0.0877577 8.0156e-19)
(0.995628 0.0875659 -1.56343e-18)
(0.995538 0.0873399 1.14112e-18)
(0.995423 0.0870763 1.11754e-18)
(0.99527 0.0867707 -1.30662e-18)
(0.995071 0.0864085 3.0828e-18)
(0.994818 0.0859553 -3.99772e-19)
(0.994512 0.0853206 -3.5898e-18)
(0.994181 0.084396 -4.42234e-18)
(0.993941 0.0829316 -7.13347e-18)
(0.993725 0.0809268 2.50761e-18)
(0.994809 0.0780255 -8.91957e-18)
(0.98883 0.0742406 -9.33234e-18)
(0.995754 0.0894443 -1.85684e-20)
(0.995737 0.0894223 7.94622e-20)
(0.995724 0.0893996 -3.56121e-20)
(0.995713 0.0893747 -2.76526e-20)
(0.995704 0.0893498 -6.83504e-20)
(0.995696 0.089322 -2.23707e-19)
(0.995689 0.0892915 1.70035e-19)
(0.995682 0.0892557 1.50546e-19)
(0.995673 0.0892134 -7.5774e-20)
(0.995664 0.0891631 1.1576e-19)
(0.995651 0.0891024 -5.55715e-20)
(0.995636 0.0890284 4.04787e-20)
(0.995617 0.0889365 -3.71181e-20)
(0.995594 0.0888239 2.19504e-21)
(0.995568 0.0886906 -5.50639e-19)
(0.995536 0.088537 1.14561e-18)
(0.995495 0.0883632 -1.03587e-18)
(0.995442 0.0881649 3.65316e-19)
(0.995378 0.0879352 1.60353e-18)
(0.995302 0.0876671 -1.51857e-18)
(0.995212 0.0873575 -6.31084e-19)
(0.995104 0.0870031 1.92246e-18)
(0.994976 0.0865934 -1.30869e-18)
(0.994825 0.0861036 -1.15841e-18)
(0.99466 0.0854512 1.06841e-17)
(0.994494 0.0845506 4.39107e-18)
(0.994462 0.0831702 4.37692e-18)
(0.994345 0.0813553 -2.94184e-18)
(0.995629 0.0791165 3.4472e-18)
(0.991395 0.0768384 3.64e-18)
(0.995609 0.0900822 -1.3252e-20)
(0.995581 0.0900595 -5.073e-20)
(0.995556 0.0900353 4.66544e-20)
(0.995533 0.0900074 2.18683e-19)
(0.995511 0.0899781 -2.37386e-19)
(0.995492 0.0899451 -3.00292e-20)
(0.995473 0.0899089 1.39748e-19)
(0.995455 0.089867 -3.39453e-19)
(0.995436 0.0898186 -2.51027e-19)
(0.995417 0.089761 7.05436e-19)
(0.995395 0.0896919 -3.99393e-19)
(0.995371 0.0896068 5.26998e-19)
(0.995345 0.0895019 -2.99286e-19)
(0.995317 0.0893742 3.60603e-19)
(0.995285 0.089223 -6.89824e-20)
(0.995246 0.0890478 -6.63744e-20)
(0.995198 0.0888479 2.19622e-19)
(0.995139 0.0886172 -5.52373e-19)
(0.995069 0.0883474 -1.53568e-18)
(0.994991 0.0880301 5.92026e-19)
(0.994905 0.08766 -1.00322e-18)
(0.994813 0.0872323 -7.70407e-19)
(0.994719 0.0867364 -1.55538e-19)
(0.994627 0.0861542 8.89666e-18)
(0.994551 0.0854076 -3.21268e-18)
(0.994494 0.0844261 -7.9604e-18)
(0.994616 0.0829904 -4.54894e-18)
(0.994588 0.0811518 1.31252e-18)
(0.9959 0.0790719 -1.7433e-17)
(0.993034 0.0770813 -3.03319e-18)
(0.99545 0.0907251 2.75462e-20)
(0.995414 0.0907052 3.40619e-21)
(0.995379 0.0906805 -7.1957e-20)
(0.995346 0.09065 -2.70255e-20)
(0.995313 0.0906165 -9.01877e-21)
(0.995281 0.0905781 4.55313e-19)
(0.99525 0.0905358 -2.31416e-19)
(0.995219 0.090487 -1.27064e-20)
(0.995187 0.0904314 -8.49688e-21)
(0.995155 0.090366 -3.88313e-20)
(0.995121 0.0902886 -2.20693e-19)
(0.995085 0.0901933 1.78843e-19)
(0.995049 0.0900764 8.41976e-19)
(0.995014 0.0899348 7.05095e-20)
(0.994975 0.089767 -1.58052e-19)
(0.994927 0.0895716 -5.9642e-19)
(0.99487 0.0893463 6.83554e-19)
(0.994801 0.0890834 -3.95698e-19)
(0.994721 0.0887726 8.69974e-19)
(0.994635 0.0884031 -1.27871e-19)
(0.994547 0.0879666 1.75437e-18)
(0.994464 0.0874569 -3.19884e-19)
(0.994397 0.0868624 -1.82847e-18)
(0.994357 0.0861734 -9.47039e-18)
(0.994368 0.085321 -3.81669e-18)
(0.99443 0.0842584 8.07354e-18)
(0.994725 0.0827956 9.62695e-19)
(0.994847 0.0810078 7.25423e-18)
(0.996138 0.0791527 2.18279e-17)
(0.994428 0.0778558 7.79147e-18)
(0.995256 0.0913574 -1.97763e-21)
(0.995216 0.091341 -4.17044e-20)
(0.995176 0.0913203 -1.4099e-20)
(0.995136 0.0912919 3.88743e-20)
(0.995095 0.0912586 -7.67324e-20)
(0.995054 0.0912179 -7.60589e-20)
(0.995012 0.0911712 1.34057e-19)
(0.994969 0.0911159 2.89526e-19)
(0.994925 0.0910524 -2.73729e-19)
(0.994879 0.0909779 3.31771e-19)
(0.994832 0.0908907 -6.75648e-19)
(0.994782 0.0907841 1.72713e-19)
(0.994734 0.0906548 -3.1842e-19)
(0.994689 0.0904985 5.67901e-19)
(0.99464 0.0903137 -1.78593e-19)
(0.994581 0.0900971 -1.15469e-19)
(0.994512 0.0898458 3.94233e-19)
(0.99443 0.08955 -7.96827e-19)
(0.994338 0.0891964 7.02543e-19)
(0.994241 0.0887718 2.25589e-19)
(0.994146 0.0882644 -1.60721e-18)
(0.994067 0.0876651 -6.59309e-19)
(0.994019 0.0869613 1.75149e-18)
(0.994023 0.0861496 2.55638e-18)
(0.994118 0.0851752 2.81372e-18)
(0.994301 0.08402 -4.59166e-19)
(0.994785 0.082539 4.76011e-18)
(0.995108 0.0808421 -6.52409e-18)
(0.996393 0.0793013 -1.58433e-17)
(0.995296 0.0785855 -1.68551e-18)
(0.995014 0.0920074 -1.03665e-20)
(0.994973 0.0919907 3.68623e-20)
(0.994931 0.0919688 4.69948e-20)
(0.994887 0.0919389 -4.40981e-20)
(0.994842 0.0919042 -1.18544e-19)
(0.994795 0.0918612 3.24849e-23)
(0.994745 0.0918107 3.32742e-19)
(0.994694 0.09175 -4.83587e-19)
(0.99464 0.0916793 3.01783e-19)
(0.994582 0.0915957 4.54806e-19)
(0.994522 0.0914982 -6.75135e-19)
(0.994458 0.0913792 -1.04351e-19)
(0.994397 0.0912365 -1.13818e-19)
(0.994341 0.0910648 1.45611e-19)
(0.994279 0.0908619 -6.46208e-19)
(0.994207 0.0906232 6.75747e-19)
(0.994121 0.0903446 1.48069e-19)
(0.994022 0.0900139 -5.95246e-19)
(0.993913 0.0896157 9.75764e-20)
(0.993797 0.0891328 2.42571e-19)
(0.993688 0.0885492 1.13024e-18)
(0.993596 0.087851 -1.25703e-18)
(0.993547 0.087021 1.78282e-18)
(0.993566 0.0860568 4.80002e-18)
(0.993709 0.0849142 -1.12074e-18)
(0.993979 0.0835974 -9.24637e-18)
(0.994621 0.0820102 -4.8138e-18)
(0.995162 0.0802907 2.69259e-18)
(0.996496 0.0789444 8.12745e-19)
(0.995571 0.0784499 5.4805e-18)
(0.99473 0.092662 2.05128e-20)
(0.994687 0.0926402 -1.27084e-20)
(0.994642 0.0926154 5.53395e-20)
(0.994596 0.0925838 9.69367e-21)
(0.994548 0.0925478 1.03187e-19)
(0.994497 0.0925034 -2.66899e-19)
(0.994443 0.0924505 2.07992e-19)
(0.994386 0.0923856 6.90516e-20)
(0.994324 0.092309 -2.74005e-19)
(0.994257 0.0922172 3.19095e-20)
(0.994186 0.0921095 5.75401e-19)
(0.994109 0.0919782 -5.22887e-19)
(0.994035 0.0918222 3.79038e-19)
(0.993966 0.0916347 -2.2761e-19)
(0.99389 0.0914131 -7.06491e-20)
(0.993801 0.0911516 3.71499e-19)
(0.993696 0.0908449 6.18563e-19)
(0.993578 0.090478 7.67194e-19)
(0.993447 0.0900335 -4.97101e-19)
(0.99331 0.0894912 -1.18793e-18)
(0.993178 0.0888299 -1.54009e-18)
(0.993066 0.0880301 -1.41451e-18)
(0.992999 0.0870667 -8.11591e-19)
(0.993009 0.0859334 2.74274e-18)
(0.993166 0.0845889 1.44577e-18)
(0.993482 0.0830508 1.97968e-18)
(0.99424 0.0812662 2.34171e-18)
(0.994999 0.0793993 -5.07316e-18)
(0.99645 0.0780868 4.74675e-18)
(0.995674 0.0778772 -2.00045e-18)
(0.994421 0.093347 -3.63171e-20)
(0.994372 0.0933157 7.70279e-20)
(0.994323 0.0932804 -2.86992e-20)
(0.994273 0.0932396 -9.97502e-21)
(0.99422 0.0931966 7.81213e-20)
(0.994165 0.0931469 -2.03902e-19)
(0.994106 0.0930898 2.14304e-19)
(0.994044 0.0930205 1.83227e-19)
(0.993975 0.0929387 -2.68607e-19)
(0.993901 0.0928398 1.1113e-19)
(0.993819 0.0927233 3.95048e-19)
(0.993731 0.0925806 -6.73546e-19)
(0.993643 0.0924116 -1.52411e-19)
(0.99356 0.0922085 1.55421e-19)
(0.99347 0.0919681 9.50495e-20)
(0.993364 0.0916837 6.78802e-20)
(0.993241 0.0913475 -4.03291e-19)
(0.993103 0.0909436 -8.13731e-19)
(0.992953 0.0904533 7.40242e-19)
(0.992799 0.0898537 1.46382e-19)
(0.992649 0.0891198 3.06134e-18)
(0.992522 0.0882276 -6.57819e-19)
(0.992444 0.0871436 -8.40952e-19)
(0.99245 0.085857 -6.22549e-18)
(0.992619 0.0843251 -6.43666e-19)
(0.992973 0.0825725 8.84907e-19)
(0.993825 0.0805831 -4.47375e-18)
(0.994797 0.0785504 8.85015e-18)
(0.996412 0.0772208 1.13623e-17)
(0.99604 0.0776397 -6.75747e-18)
(0.994103 0.0940451 -2.50758e-20)
(0.994044 0.0940037 1.65942e-20)
(0.993986 0.093958 1.16493e-19)
(0.993928 0.0939079 -1.58436e-19)
(0.993869 0.093856 2.0509e-19)
(0.993807 0.0937988 -3.85743e-20)
(0.993742 0.0937351 -9.95043e-20)
(0.993672 0.0936594 -3.13369e-19)
(0.993596 0.0935713 1.70406e-19)
(0.993514 0.0934651 1.3775e-19)
(0.993423 0.09334 -2.09378e-21)
(0.993322 0.0931864 9.51129e-20)
(0.99322 0.093005 -5.91874e-19)
(0.993124 0.0927861 3.24049e-19)
(0.993019 0.0925265 1.63192e-19)
(0.992897 0.0922177 -3.35222e-20)
(0.992758 0.0918513 7.18474e-19)
(0.992605 0.0914098 -5.45108e-20)
(0.992443 0.0908735 -8.70019e-19)
(0.992279 0.0902196 -6.35293e-19)
(0.992126 0.0894213 -4.31536e-19)
(0.992003 0.0884518 6.20531e-19)
(0.991939 0.0872741 -7.83832e-20)
(0.991971 0.0858741 -1.43553e-18)
(0.992181 0.0842107 -6.23557e-18)
(0.992595 0.0823102 -1.13994e-18)
(0.993548 0.0801894 1.15861e-17)
(0.994723 0.078069 -8.30521e-18)
(0.996508 0.0767715 7.21372e-18)
(0.996759 0.0780432 -8.08436e-18)
(0.993781 0.0947649 1.54539e-20)
(0.99371 0.0947157 -3.94998e-20)
(0.993641 0.0946578 -1.98984e-20)
(0.993572 0.0945946 1.76503e-19)
(0.993502 0.0945308 -6.08023e-20)
(0.993431 0.0944626 -2.59001e-19)
(0.993357 0.0943894 1.83037e-19)
(0.993278 0.0943056 -3.98162e-19)
(0.993193 0.0942099 8.20097e-20)
(0.9931 0.0940959 9.71862e-20)
(0.992998 0.0939619 1.33602e-19)
(0.992885 0.0937974 -5.06129e-19)
(0.992768 0.093603 1.00396e-18)
(0.992658 0.0933678 -2.79721e-19)
(0.992538 0.0930874 -1.18071e-18)
(0.992402 0.0927526 8.1726e-19)
(0.992248 0.0923538 -1.85244e-19)
(0.992084 0.0918725 -6.85552e-19)
(0.991916 0.0912899 -5.09719e-19)
(0.991753 0.0905831 2.75973e-19)
(0.991612 0.0897262 -2.20526e-19)
(0.991513 0.088693 -1.76789e-19)
(0.991492 0.0874477 4.2409e-18)
(0.991583 0.0859765 4.0187e-18)
(0.991874 0.0842457 -1.75556e-19)
(0.992382 0.0822812 -3.0874e-18)
(0.99345 0.0801264 -2.93455e-18)
(0.994814 0.0780207 2.8391e-18)
(0.996741 0.0768222 -3.89911e-18)
(0.997669 0.0788812 6.03729e-18)
(0.993458 0.0954746 -1.40199e-20)
(0.993373 0.0954222 -9.51417e-21)
(0.993292 0.0953599 2.23453e-20)
(0.99321 0.0952906 -5.49903e-20)
(0.993128 0.0952186 2.84912e-20)
(0.993044 0.0951414 1.0518e-19)
(0.992957 0.0950589 7.74577e-20)
(0.992866 0.0949655 -1.26798e-19)
(0.992769 0.0948607 2.86896e-19)
(0.992664 0.0947373 -3.98582e-19)
(0.992548 0.0945932 3.65539e-19)
(0.992421 0.0944168 -5.48274e-19)
(0.992288 0.0942084 4.02015e-19)
(0.992162 0.0939549 -6.38284e-19)
(0.992028 0.0936515 8.38829e-19)
(0.991876 0.0932881 3.31439e-19)
(0.991709 0.0928545 -1.40732e-18)
(0.991536 0.0923305 1.44192e-18)
(0.991364 0.091698 -4.52738e-19)
(0.991207 0.0909362 -1.59974e-18)
(0.991085 0.0900207 2.45163e-19)
(0.991024 0.0889291 9.0201e-19)
(0.991061 0.0876295 -1.40358e-18)
(0.991236 0.0861142 -3.02521e-18)
(0.991631 0.0843594 5.68626e-18)
(0.992261 0.0823925 5.85213e-18)
(0.993455 0.0802734 -4.39481e-18)
(0.994993 0.0782512 5.67016e-18)
(0.997025 0.0771769 -2.13246e-18)
(0.998522 0.0797697 4.91833e-18)
(0.993123 0.0961953 -9.31142e-21)
(0.993029 0.0961452 9.31221e-21)
(0.992935 0.0960798 -2.62693e-21)
(0.992841 0.0960041 1.51858e-20)
(0.992745 0.0959246 -1.00754e-19)
(0.992647 0.0958385 6.55764e-20)
(0.992546 0.0957466 -1.74951e-19)
(0.99244 0.0956435 3.27214e-19)
(0.992328 0.0955288 -2.78256e-19)
(0.992208 0.095395 7.18342e-20)
(0.992076 0.0952395 3.76482e-19)
(0.991932 0.0950496 4.06198e-20)
(0.991781 0.0948252 -4.04111e-20)
(0.991637 0.0945511 -4.56611e-19)
(0.991486 0.094222 1.58797e-19)
(0.991318 0.0938275 -5.15763e-19)
(0.991136 0.0933549 1.0506e-18)
(0.990952 0.092784 4.89746e-19)
(0.990775 0.0920977 -2.97016e-19)
(0.990623 0.0912757 1.14697e-18)
(0.990518 0.0902964 1.93604e-18)
(0.990492 0.0891421 -2.25072e-18)
(0.990589 0.0877865 -4.95855e-18)
(0.990852 0.0862311 8.01149e-19)
(0.991358 0.084464 -1.68646e-18)
(0.992117 0.0825162 -1.32413e-18)
(0.99344 0.0804544 5.76218e-18)
(0.995142 0.0785301 -3.09299e-18)
(0.997255 0.0775547 -2.96783e-19)
(0.999156 0.0803805 4.27597e-18)
(0.992765 0.0969142 1.10266e-20)
(0.992665 0.0968676 2.34427e-20)
(0.992562 0.0968062 -8.55437e-22)
(0.992457 0.0967317 2.32875e-20)
(0.992348 0.09665 -1.60868e-19)
(0.992235 0.096559 1.26094e-19)
(0.992119 0.0964599 2.21244e-19)
(0.991997 0.0963475 -2.56026e-19)
(0.991868 0.0962221 -4.04828e-20)
(0.99173 0.0960764 -1.31265e-19)
(0.991579 0.0959077 5.21658e-19)
(0.991415 0.0957025 -1.83555e-19)
(0.991243 0.09546 -2.30522e-19)
(0.99108 0.0951624 -8.95142e-20)
(0.990909 0.0948048 4.15909e-19)
(0.990722 0.0943751 1.55094e-19)
(0.990522 0.0938605 -3.07385e-19)
(0.990321 0.0932387 -1.47852e-20)
(0.990134 0.0924925 -4.37519e-19)
(0.989979 0.0916033 -7.61758e-19)
(0.989882 0.0905513 -1.65371e-18)
(0.989882 0.0893223 2.83227e-18)
(0.990027 0.0878972 2.51062e-18)
(0.990363 0.0862858 -1.74968e-20)
(0.99097 0.084491 3.60707e-18)
(0.991853 0.0825458 -1.66496e-18)
(0.993302 0.0805215 -3.26816e-18)
(0.995164 0.0786644 -2.93116e-18)
(0.997359 0.0777334 -1.50802e-17)
(0.999506 0.0805595 -7.16774e-18)
(0.992362 0.0976794 -4.03387e-21)
(0.992264 0.0976377 1.20182e-20)
(0.992157 0.097576 2.33833e-22)
(0.992045 0.0974978 -1.26284e-19)
(0.991925 0.0974116 -1.48545e-21)
(0.9918 0.097314 1.39128e-19)
(0.991669 0.0972067 -1.75903e-19)
(0.99153 0.0970847 2.66141e-19)
(0.991383 0.0969479 1.1333e-19)
(0.991225 0.0967894 7.26971e-21)
(0.991053 0.0966058 -4.38024e-19)
(0.990867 0.0963831 2.29019e-19)
(0.990671 0.0961198 6.22564e-19)
(0.990484 0.0957959 -4.95059e-19)
(0.990292 0.0954064 3.48573e-19)
(0.990081 0.0949387 -3.61814e-19)
(0.989859 0.0943781 2.62867e-19)
(0.989637 0.0937012 -2.46572e-19)
(0.989432 0.0928905 1.05337e-18)
(0.989263 0.0919267 4.31209e-19)
(0.989162 0.0907918 1.88772e-18)
(0.98917 0.0894733 -1.32766e-18)
(0.989344 0.0879587 -3.77519e-18)
(0.989734 0.0862648 1.0315e-18)
(0.990422 0.0844096 -5.86447e-18)
(0.991413 0.082428 6.82059e-18)
(0.992987 0.0803956 -4.5276e-18)
(0.995014 0.0785527 1.14079e-17)
(0.997315 0.0776064 3.64613e-18)
(0.999613 0.0802936 -2.52727e-18)
(0.991901 0.0984736 8.24943e-21)
(0.991811 0.0984332 4.95794e-21)
(0.991706 0.0983759 -6.23698e-20)
(0.99159 0.0982995 1.66855e-20)
(0.991464 0.0982122 1.31921e-20)
(0.991329 0.0981107 6.00184e-21)
(0.991184 0.0979966 -3.18941e-20)
(0.99103 0.0978646 2.92984e-19)
(0.990864 0.0977156 -4.37503e-19)
(0.990685 0.0975422 3.6854e-19)
(0.990491 0.0973414 -3.225e-20)
(0.990281 0.0970987 -2.38395e-19)
(0.990058 0.096812 2.95179e-19)
(0.989845 0.0964587 -4.82271e-19)
(0.989628 0.0960342 1.67781e-19)
(0.989391 0.0955251 -3.40576e-19)
(0.98914 0.0949162 8.1304e-19)
(0.988891 0.0941806 7.53234e-19)
(0.988659 0.0932999 1.11632e-18)
(0.988468 0.0922549 -5.28095e-19)
(0.988351 0.0910267 -2.07571e-18)
(0.988352 0.0896044 -4.6384e-19)
(0.988536 0.087979 1.34592e-18)
(0.988958 0.086174 3.25548e-18)
(0.989705 0.0842199 2.64088e-18)
(0.990793 0.0821562 -1.40997e-17)
(0.992488 0.0800619 2.99109e-18)
(0.994693 0.0781799 -1.31423e-17)
(0.997137 0.0771687 1.02475e-17)
(0.999552 0.0796776 3.62021e-18)
(0.991364 0.0993537 3.1868e-21)
(0.991288 0.0993141 -3.45489e-20)
(0.991191 0.099253 -2.24616e-20)
(0.991077 0.0991697 6.16611e-20)
(0.990949 0.0990755 -1.14721e-19)
(0.990807 0.0989654 7.4384e-20)
(0.990651 0.0988411 -1.47107e-19)
(0.990483 0.098697 -6.81422e-20)
(0.9903 0.0985333 3.35047e-20)
(0.990101 0.098343 1.32112e-19)
(0.989884 0.0981224 -2.9395e-21)
(0.989648 0.0978567 1.4845e-19)
(0.989395 0.0975432 1.13652e-19)
(0.989155 0.0971576 5.6336e-19)
(0.98891 0.0966951 -9.52736e-20)
(0.988642 0.0961425 2.22271e-19)
(0.98836 0.0954814 -1.224e-18)
(0.988078 0.0946835 -4.69489e-19)
(0.987814 0.0937292 -1.40921e-18)
(0.987593 0.0925974 6.09146e-19)
(0.987449 0.0912678 1.66568e-18)
(0.987432 0.0897295 4.01402e-19)
(0.98761 0.0879746 7.97135e-19)
(0.98805 0.086033 5.34415e-19)
(0.988841 0.083945 3.99384e-18)
(0.990016 0.081757 7.34902e-18)
(0.991837 0.0795524 -6.1082e-18)
(0.994234 0.0775879 -1.82723e-18)
(0.996864 0.076482 2.09453e-18)
(0.999427 0.078831 8.36174e-19)
(0.990739 0.100295 3.22361e-21)
(0.990681 0.100252 -4.12016e-20)
(0.990596 0.10019 7.28279e-20)
(0.99049 0.100103 -1.08423e-19)
(0.990363 0.100003 1.43458e-19)
(0.990218 0.0998844 1.26454e-19)
(0.990056 0.0997487 -1.43826e-19)
(0.989876 0.0995899 7.35083e-20)
(0.989677 0.0994087 -3.05904e-19)
(0.989459 0.099198 8.52644e-20)
(0.989219 0.0989541 -6.51315e-20)
(0.988958 0.0986624 -4.86824e-19)
(0.988676 0.0983186 1.06585e-19)
(0.988405 0.0978977 6.46803e-19)
(0.98813 0.0973948 -1.62965e-19)
(0.98783 0.0967949 1.37307e-19)
(0.987514 0.0960792 -4.48911e-19)
(0.987196 0.0952161 8.79537e-19)
(0.986896 0.0941836 -3.66278e-19)
(0.98664 0.0929599 -2.11638e-18)
(0.986463 0.0915223 -3.11716e-19)
(0.98642 0.0898578 4.91385e-19)
(0.986586 0.0879597 -7.4325e-19)
(0.987035 0.0858613 -4.0229e-18)
(0.987863 0.0836128 -5.98261e-18)
(0.989122 0.0812675 -2.79415e-18)
(0.991079 0.0789175 4.40591e-18)
(0.993685 0.0768411 7.46974e-18)
(0.996539 0.0756307 -1.26483e-17)
(0.99932 0.0778797 -9.23457e-19)
(0.990015 0.101349 1.6023e-20)
(0.989978 0.101299 -4.1596e-21)
(0.989908 0.101225 6.34418e-20)
(0.989813 0.101124 -1.56622e-20)
(0.989693 0.10101 -8.73286e-20)
(0.989549 0.100877 7.11322e-20)
(0.989383 0.100724 9.60097e-20)
(0.989195 0.100547 -1.81149e-19)
(0.988984 0.100345 3.80537e-19)
(0.988749 0.100111 1.57909e-19)
(0.988488 0.0998407 -2.64056e-19)
(0.988202 0.0995191 -4.14295e-20)
(0.98789 0.099141 -6.10431e-20)
(0.987589 0.098682 -1.32451e-19)
(0.987282 0.0981358 5.52772e-19)
(0.986949 0.097486 -8.86526e-20)
(0.986597 0.0967121 1.97682e-19)
(0.986242 0.0957799 -1.01752e-18)
(0.985904 0.0946663 1.7241e-18)
(0.98561 0.0933462 3.88248e-19)
(0.9854 0.0917955 -1.50219e-18)
(0.98533 0.0899972 -2.31018e-18)
(0.985482 0.0879461 1.70635e-18)
(0.985939 0.0856768 -6.77352e-18)
(0.986807 0.0832501 8.714e-18)
(0.988154 0.0807251 4.41151e-18)
(0.99026 0.0782076 5.62832e-18)
(0.99309 0.0760042 -1.87606e-18)
(0.996204 0.0746938 1.35807e-17)
(0.999291 0.076907 -2.92903e-18)
(0.989192 0.102459 -4.34614e-21)
(0.989176 0.102401 -5.0892e-20)
(0.989124 0.102321 2.10137e-20)
(0.989042 0.102211 1.3266e-19)
(0.98893 0.102084 -1.71675e-19)
(0.988791 0.101936 7.2076e-21)
(0.988624 0.101767 -1.04565e-21)
(0.988431 0.101569 3.73823e-20)
(0.98821 0.101343 -3.34311e-20)
(0.987961 0.101082 -4.63301e-20)
(0.987682 0.100782 1.25512e-19)
(0.987372 0.100427 3.69505e-19)
(0.987033 0.100012 -3.48253e-19)
(0.9867 0.0995116 4.90416e-20)
(0.986362 0.0989186 -2.99475e-19)
(0.985994 0.0982153 -1.22043e-19)
(0.985606 0.0973805 -6.47431e-21)
(0.985214 0.0963758 1.01898e-18)
(0.984838 0.0951761 -1.21158e-18)
(0.984507 0.093755 3.16515e-18)
(0.984265 0.0920856 2.39198e-18)
(0.984171 0.090148 -9.11606e-19)
(0.984315 0.0879364 -1.06578e-18)
(0.984786 0.085488 9.99997e-18)
(0.985701 0.0828721 -7.48748e-18)
(0.987148 0.080156 -3.86308e-18)
(0.989418 0.0774597 -3.10906e-18)
(0.992487 0.0751274 1.69125e-18)
(0.995887 0.0737284 -1.10144e-17)
(0.999351 0.0759731 6.24387e-18)
(0.988274 0.103667 -5.53213e-21)
(0.988278 0.103599 -4.61499e-20)
(0.988241 0.103504 -1.12392e-21)
(0.988173 0.103376 7.32834e-20)
(0.988072 0.103231 -4.30268e-20)
(0.987938 0.103064 1.63496e-19)
(0.987773 0.102873 -2.52542e-19)
(0.987577 0.102652 8.3037e-20)
(0.987349 0.1024 2.25832e-19)
(0.987088 0.10211 -4.89839e-19)
(0.986793 0.101777 1.8437e-20)
(0.986463 0.101386 -1.03159e-19)
(0.986098 0.100929 1.87074e-19)
(0.985734 0.100385 -2.62673e-20)
(0.985363 0.0997414 2.71793e-19)
(0.984962 0.0989822 -9.20422e-19)
(0.984538 0.0980818 1.16201e-19)
(0.984109 0.0970001 -5.89252e-19)
(0.983697 0.0957103 3.67173e-19)
(0.983332 0.0941834 1.49537e-19)
(0.983061 0.0923901 -1.86928e-18)
(0.98295 0.0903081 -1.79905e-18)
(0.983093 0.0879303 3.66564e-18)
(0.983591 0.0852978 -5.88569e-18)
(0.984564 0.0824867 1.27815e-18)
(0.986127 0.0795751 2.61457e-18)
(0.988577 0.0766967 1.76192e-18)
(0.991899 0.0742408 -8.82526e-18)
(0.995607 0.0727695 -5.31094e-18)
(0.999513 0.0750951 -4.27632e-18)
(0.987267 0.104914 9.20532e-21)
(0.987286 0.104838 -6.02184e-21)
(0.987264 0.104734 -4.34094e-20)
(0.987208 0.104596 5.63082e-20)
(0.987116 0.104436 -9.9673e-20)
(0.986989 0.10425 1.73942e-19)
(0.986827 0.104037 -1.98502e-19)
(0.98663 0.103791 1.19456e-19)
(0.986397 0.10351 -2.38959e-19)
(0.986127 0.103189 5.01336e-19)
(0.985818 0.10282 -2.42915e-19)
(0.985469 0.10239 2.48372e-19)
(0.98508 0.10189 -1.02482e-18)
(0.984685 0.101298 5.77383e-19)
(0.984284 0.100601 -4.16695e-21)
(0.98385 0.0997817 3.18671e-19)
(0.983392 0.0988123 -4.26899e-19)
(0.982927 0.0976491 4.70448e-19)
(0.982481 0.0962629 1.67657e-19)
(0.982086 0.0946242 -1.60188e-18)
(0.981792 0.0927012 2.67289e-18)
(0.981671 0.0904687 8.53959e-19)
(0.981824 0.0879199 -5.68702e-18)
(0.98236 0.0850995 2.00811e-18)
(0.983409 0.0820915 1.32561e-18)
(0.985103 0.0789838 -5.82583e-18)
(0.987753 0.0759271 -2.3549e-18)
(0.991338 0.0733561 2.91581e-17)
(0.995369 0.0718321 -1.02865e-18)
(0.999761 0.0742815 2.06533e-19)
(0.986177 0.10624 -4.55764e-21)
(0.986206 0.106154 1.41084e-20)
(0.986194 0.106033 -1.88935e-20)
(0.986148 0.105874 -2.04804e-21)
(0.986065 0.105694 2.11993e-20)
(0.985944 0.105486 7.48565e-21)
(0.985785 0.10525 2.47666e-20)
(0.985589 0.104977 -1.84042e-19)
(0.985352 0.104667 3.9104e-19)
(0.985074 0.104312 -1.23749e-19)
(0.984753 0.103906 4.17243e-20)
(0.984388 0.103434 4.13515e-21)
(0.983977 0.102888 -1.90174e-19)
(0.983553 0.102245 -4.63946e-20)
(0.983121 0.101492 9.75131e-19)
(0.982657 0.100609 1.14745e-19)
(0.982165 0.0995658 7.20914e-19)
(0.981667 0.0983154 3.36602e-19)
(0.981189 0.0968277 -1.67459e-18)
(0.980767 0.0950704 1.1302e-18)
(0.980456 0.0930114 -9.90228e-19)
(0.980334 0.0906218 3.98601e-18)
(0.980509 0.0878972 5.72821e-18)
(0.981098 0.0848851 4.41479e-18)
(0.982239 0.0816798 6.63678e-18)
(0.984082 0.0783773 4.37863e-18)
(0.986949 0.0751482 -2.75248e-18)
(0.990807 0.0724724 -2.69818e-18)
(0.995175 0.070915 -2.47836e-20)
(1.00009 0.0735103 4.71648e-18)
(0.985015 0.107569 -1.09869e-21)
(0.985048 0.107478 2.75905e-20)
(0.985042 0.10735 -9.64377e-20)
(0.985002 0.10718 2.0643e-20)
(0.984925 0.106984 -7.45972e-20)
(0.984808 0.106758 1.45276e-19)
(0.984652 0.106499 -4.12786e-20)
(0.984456 0.106199 7.96757e-20)
(0.984216 0.105858 -6.54088e-20)
(0.983931 0.10547 -2.24521e-19)
(0.9836 0.105025 3.59125e-19)
(0.98322 0.10451 -3.74189e-19)
(0.982788 0.103916 6.97535e-19)
(0.982336 0.103221 -3.41434e-19)
(0.981875 0.102408 -3.03711e-19)
(0.98138 0.101457 -1.10804e-18)
(0.980856 0.100336 -8.89816e-19)
(0.980326 0.0989932 5.57681e-19)
(0.979819 0.0973962 3.96525e-19)
(0.979374 0.0955128 -1.00281e-18)
(0.979052 0.0933095 -9.37009e-19)
(0.978937 0.0907557 -4.13392e-19)
(0.979146 0.087849 -3.26629e-18)
(0.979802 0.0846421 -2.89299e-18)
(0.981052 0.0812386 -9.49936e-18)
(0.983062 0.0777449 1.06435e-18)
(0.986163 0.07435 -1.05102e-18)
(0.990305 0.0715821 -3.53278e-17)
(0.995017 0.0700071 1.34895e-17)
(1.00047 0.0727716 7.02831e-18)
(0.983793 0.108944 8.69888e-21)
(0.983825 0.108845 9.80655e-21)
(0.98382 0.108701 -2.58853e-20)
(0.983781 0.108515 1.66586e-19)
(0.983706 0.108301 -2.57617e-19)
(0.98359 0.108055 1.6035e-19)
(0.983434 0.107774 9.52975e-20)
(0.983236 0.107448 -2.78208e-19)
(0.982993 0.107077 2.7892e-19)
(0.982701 0.106655 -4.90086e-19)
(0.98236 0.106171 6.1367e-19)
(0.981965 0.105612 2.55528e-20)
(0.981514 0.104969 -5.82403e-19)
(0.981034 0.104218 1.34911e-19)
(0.980544 0.103341 6.51119e-20)
(0.98002 0.10232 1.46298e-19)
(0.979465 0.101116 7.5974e-19)
(0.978905 0.0996737 -1.08311e-18)
(0.978369 0.0979609 1.78492e-18)
(0.977905 0.0959435 4.96131e-20)
(0.977577 0.0935872 1.65311e-18)
(0.977478 0.0908614 -4.807e-18)
(0.977731 0.0877655 2.60875e-19)
(0.97847 0.08436 -4.54215e-19)
(0.979845 0.0807569 1.14131e-18)
(0.982038 0.0770748 6.17029e-18)
(0.98539 0.0735205 -1.11977e-18)
(0.989826 0.0706724 1.75325e-17)
(0.994889 0.0690947 -1.0788e-17)
(1.00089 0.0720345 -4.9174e-18)
(0.982517 0.110302 2.94285e-21)
(0.982542 0.110203 -8.63503e-21)
(0.982532 0.110055 -8.37075e-20)
(0.982491 0.10986 1.14347e-19)
(0.982413 0.109633 -2.85797e-20)
(0.982296 0.10937 -8.96588e-21)
(0.982137 0.109067 -6.1328e-20)
(0.981935 0.108716 9.67593e-20)
(0.981686 0.108315 -1.93081e-19)
(0.981387 0.107858 -7.9955e-20)
(0.981035 0.107336 1.66721e-19)
(0.980626 0.106732 -3.07722e-19)
(0.980155 0.106038 -1.84068e-19)
(0.979647 0.10523 1.81597e-19)
(0.979129 0.104286 -2.90107e-19)
(0.978575 0.10319 -2.57251e-19)
(0.97799 0.101898 1.22305e-18)
(0.9774 0.100351 -4.52085e-19)
(0.976839 0.0985134 1.64749e-19)
(0.976359 0.0963525 -7.57502e-19)
(0.976031 0.093834 -8.42024e-20)
(0.975955 0.0909268 3.96401e-18)
(0.976263 0.0876345 6.44415e-19)
(0.977098 0.0840255 -8.18355e-19)
(0.978613 0.0802221 3.12021e-18)
(0.981005 0.076354 -4.89988e-18)
(0.984623 0.0726479 5.10474e-18)
(0.989362 0.0697303 -2.97254e-17)
(0.994783 0.068165 8.13391e-18)
(1.00133 0.0712902 -1.25786e-17)
(0.981189 0.111696 4.40985e-21)
(0.981202 0.111592 -1.43077e-20)
(0.981184 0.111429 6.19017e-20)
(0.981135 0.111219 9.35287e-21)
(0.981051 0.110976 -1.3576e-19)
(0.980928 0.110695 3.24969e-20)
(0.980764 0.110371 3.07565e-20)
(0.980556 0.109996 4.48198e-20)
(0.9803 0.109565 2.29212e-20)
(0.979992 0.109074 -2.70178e-20)
(0.979628 0.108512 -2.68995e-19)
(0.979204 0.107863 3.07522e-22)
(0.978713 0.107117 4.12365e-19)
(0.978176 0.106249 9.14627e-20)
(0.97763 0.105236 4.59515e-19)
(0.977048 0.104061 3.4401e-19)
(0.976431 0.102675 -5.05171e-19)
(0.97581 0.101015 1.30916e-19)
(0.975227 0.0990459 -1.78729e-18)
(0.974733 0.0967324 -1.47312e-18)
(0.97441 0.0940426 -2.21077e-18)
(0.974365 0.0909445 -6.03525e-18)
(0.974739 0.0874482 -9.85378e-19)
(0.97568 0.0836301 4.86816e-18)
(0.977351 0.0796251 -7.95881e-18)
(0.979957 0.0755724 -2.6457e-19)
(0.983856 0.0717214 -4.972e-19)
(0.988907 0.0687444 2.05354e-17)
(0.994693 0.0672061 -5.02747e-18)
(1.00179 0.070513 2.40677e-18)
(0.979817 0.113052 -9.38914e-21)
(0.979813 0.112952 -4.54689e-21)
(0.979781 0.112788 5.85644e-20)
(0.979722 0.112572 -2.13018e-20)
(0.979628 0.112317 -1.81465e-20)
(0.979495 0.112021 4.89426e-20)
(0.979322 0.111677 -3.17059e-20)
(0.979105 0.111277 1.17387e-19)
(0.978839 0.110818 -1.58205e-19)
(0.978519 0.110293 -1.62113e-19)
(0.978143 0.109692 -2.2088e-20)
(0.977702 0.108997 2.45125e-19)
(0.977189 0.108199 -1.48251e-19)
(0.976623 0.10727 4.58441e-19)
(0.976048 0.106184 -6.17644e-19)
(0.975435 0.104926 -3.04565e-19)
(0.974783 0.103441 8.65178e-19)
(0.974134 0.101662 -2.10988e-19)
(0.973528 0.0995498 5.83395e-19)
(0.973025 0.0970743 6.97382e-19)
(0.972713 0.0942028 6.55692e-19)
(0.972705 0.0909045 5.60685e-18)
(0.973155 0.0871962 1.41999e-18)
(0.974216 0.0831642 -1.07683e-18)
(0.976055 0.0789561 3.61053e-18)
(0.97889 0.0747217 -1.4081e-18)
(0.983082 0.070732 9.12852e-18)
(0.988455 0.0677075 1.44297e-17)
(0.994613 0.0662082 8.05486e-18)
(1.00224 0.069705 7.06363e-18)
(0.978405 0.114426 -3.11025e-20)
(0.978382 0.114322 3.26238e-20)
(0.978333 0.114146 -4.24477e-20)
(0.978257 0.113918 1.4867e-20)
(0.978149 0.113651 -8.70544e-21)
(0.978004 0.113341 -1.20674e-19)
(0.977818 0.112979 -4.70129e-22)
(0.977588 0.112556 4.18677e-19)
(0.977309 0.112069 -1.28259e-19)
(0.976976 0.111512 1.58929e-19)
(0.976583 0.110872 -3.42496e-19)
(0.976123 0.110131 6.14472e-19)
(0.975586 0.109279 1.95401e-19)
(0.974989 0.108288 2.15059e-19)
(0.974381 0.107126 -3.46677e-19)
(0.973733 0.105783 7.61101e-19)
(0.97305 0.104192 -1.00276e-18)
(0.972372 0.102282 -8.62553e-19)
(0.971746 0.10002 1.38051e-18)