/*--------------------------------*- C++ -*----------------------------------*\
  =========                 |
  \\      /  F ield         | OpenFOAM: The Open Source CFD Toolbox
   \\    /   O peration     | Website:  https://openfoam.org
    \\  /    A nd           | Version:  6.0
     \\/     M anipulation  |
\*---------------------------------------------------------------------------*/
FoamFile
{
    version     2.0;
    format      ascii;
    class       volScalarField;
    location    "15";
    object      p;
}
// * * * * * * * * * * * * * * * * * * * * * * * * * * * * * * * * * * * * * //

dimensions      [0 2 -2 0 0 0 0];

internalField   nonuniform List<scalar> 
47000
(
0.0137216
0.0136807
0.0132584
0.0124696
0.0113661
0.0100841
0.00876692
0.00756969
0.00657028
0.00579809
0.00521544
0.00476997
0.00441076
0.00410368
0.003839
0.00360941
0.00341892
0.0032585
0.00312306
0.0029955
0.00286655
0.00272309
0.00256186
0.00237863
0.00217899
0.00196253
0.00175854
0.00150025
0.00160536
0.00259899
0.0137434
0.0137333
0.0133657
0.012646
0.0116123
0.010387
0.00910588
0.00792395
0.00692542
0.00614817
0.00556014
0.00511027
0.00474566
0.00442921
0.00415122
0.00390543
0.0037011
0.00353251
0.0033991
0.00328301
0.00317485
0.00305719
0.00292453
0.00276811
0.00259366
0.00239882
0.00222568
0.00203482
0.00228226
0.00299626
0.0137853
0.0137999
0.0134735
0.0128045
0.0118188
0.0106253
0.0093513
0.00814975
0.00711113
0.00628225
0.00563968
0.00513519
0.00471508
0.00433778
0.00399151
0.00366882
0.00338398
0.00313705
0.00293669
0.00277085
0.00263657
0.00251855
0.0024136
0.00231171
0.00221903
0.00213448
0.00210185
0.00210931
0.00251503
0.00322872
0.0138486
0.013897
0.0136286
0.0130356
0.0121313
0.0110095
0.00978767
0.00861505
0.00758797
0.00676276
0.00612639
0.00563486
0.00523358
0.00487424
0.00453846
0.00421244
0.00390997
0.00363312
0.00339743
0.00319671
0.00303563
0.0029034
0.00280145
0.00272086
0.00266895
0.00264587
0.0026922
0.00280023
0.00324484
0.00397158
0.0139313
0.0140178
0.013817
0.0133141
0.0125091
0.0114803
0.0103333
0.00921223
0.00821841
0.00741861
0.00681269
0.00636413
0.00602014
0.00572644
0.00545626
0.00518542
0.00492174
0.00466363
0.00442845
0.00421256
0.00402632
0.0038633
0.00373008
0.00362037
0.00354395
0.00350275
0.00353346
0.00363129
0.0040086
0.00460078
0.0140313
0.0141524
0.0140112
0.0135876
0.0128678
0.011914
0.0108189
0.0097196
0.00872135
0.00790228
0.00727812
0.0068251
0.00649771
0.0062408
0.00602162
0.00580622
0.0055941
0.00537675
0.00516902
0.00496637
0.00478182
0.00461161
0.00446671
0.00434369
0.00425565
0.00420758
0.00423315
0.00433395
0.00467355
0.00519169
0.0141441
0.0142948
0.0142048
0.0138496
0.0132023
0.0123087
0.0112468
0.0101444
0.00910785
0.00822575
0.00753086
0.00701604
0.00664879
0.00637913
0.00617369
0.00599201
0.00582653
0.00566088
0.00550526
0.00535131
0.00521175
0.00508282
0.00497757
0.00489362
0.00484577
0.00484038
0.00490598
0.00504507
0.00538456
0.00586848
0.0142683
0.0144512
0.0144168
0.0141387
0.0135778
0.0127634
0.0117564
0.0106714
0.00961162
0.00867197
0.00790019
0.00730649
0.00687432
0.00656378
0.00634573
0.0061778
0.00604786
0.00593301
0.00583804
0.00574933
0.00567683
0.00561416
0.00557354
0.00555088
0.0055596
0.00560431
0.00570593
0.005862
0.0061765
0.00659265
0.0143991
0.0146222
0.0146576
0.01448
0.014039
0.0133474
0.0124473
0.011436
0.010408
0.0094589
0.00864658
0.0079959
0.0075064
0.00715023
0.00690617
0.00673349
0.00661891
0.00653487
0.00648187
0.00644071
0.00641768
0.0064022
0.00640399
0.00641543
0.00644711
0.00650066
0.00659049
0.00670973
0.00695279
0.00726055
0.0145366
0.0148087
0.014928
0.0148734
0.0145852
0.0140601
0.0133207
0.0124443
0.0115121
0.0106141
0.00981284
0.00914337
0.00861892
0.00822374
0.00794605
0.0077496
0.00762264
0.00753568
0.00748657
0.00745185
0.00743454
0.00742017
0.00741589
0.00741099
0.00741394
0.00742486
0.0074554
0.00749818
0.00764601
0.0078402
0.0146773
0.0150011
0.0152091
0.0152859
0.015165
0.0148292
0.0142826
0.0135816
0.0127913
0.0119917
0.0112448
0.0105909
0.0100538
0.00962789
0.00931132
0.00907355
0.00890676
0.00878169
0.00869596
0.00862359
0.00856609
0.00850638
0.00845059
0.0083864
0.00832227
0.008259
0.00820894
0.00816686
0.00822567
0.00832535
0.0148222
0.0151945
0.015484
0.015683
0.0157213
0.0155708
0.01522
0.0147055
0.014076
0.0133988
0.0127316
0.012116
0.0115823
0.0111334
0.010776
0.0104861
0.0102608
0.0100732
0.00992244
0.00978227
0.00965439
0.00952107
0.00938898
0.00924603
0.00910234
0.00896077
0.00883584
0.0087246
0.00871796
0.00875562
0.0149673
0.015378
0.0157316
0.0160284
0.0161983
0.0162061
0.0160284
0.0156853
0.01521
0.0146567
0.0140767
0.0135094
0.0129891
0.0125241
0.0121288
0.0117848
0.011495
0.0112358
0.0110094
0.0107907
0.0105832
0.0103699
0.0101595
0.00994097
0.00972698
0.00952249
0.00934395
0.00918915
0.00914477
0.00914887
0.0151137
0.0155501
0.0159449
0.0163075
0.016571
0.0166973
0.0166551
0.0164519
0.016108
0.0156654
0.0151677
0.0146506
0.0141497
0.0136766
0.0132514
0.0128606
0.0125127
0.0121875
0.0118913
0.0116008
0.0113224
0.0110406
0.0107663
0.0104903
0.0102274
0.00998395
0.0097772
0.00960412
0.00954584
0.00954143
0.0152577
0.0157052
0.0161173
0.016512
0.0168285
0.0170295
0.01708
0.0169786
0.0167358
0.0163828
0.0159561
0.0154862
0.0150086
0.0145359
0.0140926
0.0136685
0.0132771
0.0129014
0.0125518
0.0122071
0.0118767
0.0115467
0.0112307
0.0109205
0.0106327
0.0103738
0.0101609
0.00998905
0.0099341
0.00993573
0.0154019
0.0158473
0.0162559
0.0166531
0.0169869
0.0172232
0.017327
0.017291
0.0171195
0.0168344
0.0164659
0.0160392
0.0155881
0.0151252
0.0146772
0.0142365
0.0138203
0.0134143
0.0130324
0.0126555
0.0122957
0.0119405
0.0116056
0.0112834
0.0109915
0.0107359
0.0105328
0.0103749
0.0103339
0.0103527
0.0155428
0.015975
0.0163637
0.0167407
0.0170637
0.0173039
0.0174286
0.0174279
0.0173018
0.0170654
0.0167435
0.0163557
0.015934
0.0154892
0.0150495
0.0146083
0.0141857
0.0137691
0.0133756
0.0129871
0.0126186
0.0122581
0.0119232
0.0116063
0.0113253
0.0110853
0.0109012
0.0107639
0.0107423
0.0107816
0.0156836
0.0160955
0.0164536
0.0167959
0.0170895
0.0173122
0.0174354
0.0174483
0.0173488
0.0171467
0.0168624
0.0165106
0.0161207
0.0157013
0.0152812
0.0148535
0.0144403
0.0140301
0.0136421
0.0132593
0.0128984
0.0125478
0.0122265
0.0119264
0.0116655
0.0114478
0.011287
0.0111726
0.0111724
0.0112352
0.0158212
0.016208
0.0165302
0.0168302
0.0170842
0.0172773
0.0173852
0.0173977
0.0173121
0.0171342
0.0168811
0.0165627
0.0162062
0.0158174
0.0154249
0.0150208
0.0146287
0.0142371
0.013867
0.0135015
0.013159
0.012828
0.0125281
0.0122508
0.0120142
0.0118208
0.011684
0.0115921
0.0116131
0.0116974
0.0159594
0.01632
0.0166052
0.0168617
0.0170736
0.0172326
0.0173192
0.0173246
0.0172461
0.0170868
0.016861
0.0165745
0.0162523
0.0158975
0.0155379
0.0151642
0.0148007
0.0144355
0.014091
0.0137502
0.0134324
0.0131258
0.0128511
0.0125988
0.0123872
0.0122178
0.0121034
0.0120324
0.0120733
0.0121793
0.016095
0.0164297
0.01668
0.0168958
0.0170679
0.0171937
0.0172586
0.0172549
0.0171806
0.0170367
0.0168357
0.0165797
0.0162917
0.0159719
0.0156474
0.0153072
0.0149759
0.0146408
0.0143254
0.014012
0.013721
0.0134403
0.0131911
0.012963
0.0127749
0.0126273
0.0125331
0.0124805
0.0125395
0.0126637
0.0162317
0.0165434
0.0167629
0.016944
0.0170819
0.0171795
0.0172259
0.0172147
0.017145
0.0170159
0.0168386
0.016612
0.0163576
0.0160728
0.0157838
0.0154778
0.0151796
0.0148756
0.0145899
0.0143043
0.01404
0.0137843
0.0135591
0.0133535
0.0131865
0.0130581
0.0129814
0.0129451
0.0130205
0.0131625
0.0163659
0.0166576
0.0168515
0.0170049
0.017116
0.0171916
0.0172247
0.0172094
0.0171458
0.0170317
0.0168774
0.0166788
0.0164564
0.0162048
0.0159499
0.0156768
0.0154105
0.0151361
0.0148788
0.0146191
0.0143796
0.0141465
0.0139429
0.0137569
0.0136083
0.0134963
0.0134348
0.0134127
0.013503
0.0136591
0.0165016
0.0167773
0.0169513
0.0170845
0.0171766
0.0172376
0.0172633
0.0172483
0.0171936
0.0170956
0.016964
0.0167925
0.0166005
0.0163803
0.0161575
0.0159152
0.0156786
0.0154317
0.0152004
0.0149646
0.0147473
0.0145344
0.0143497
0.0141809
0.0140481
0.0139505
0.0139022
0.0138929
0.0139966
0.014167
0.016635
0.016898
0.0170573
0.0171772
0.0172576
0.0173109
0.0173349
0.0173243
0.017281
0.0172
0.0170909
0.0169449
0.0167812
0.01659
0.0163965
0.016182
0.0159722
0.0157499
0.0155418
0.0153268
0.015129
0.0149336
0.0147653
0.0146111
0.0144921
0.0144068
0.0143703
0.0143725
0.0144885
0.0146698
0.0167697
0.0170239
0.0171734
0.0172862
0.0173615
0.0174132
0.0174408
0.0174387
0.0174094
0.0173467
0.01726
0.0171387
0.0170017
0.0168372
0.0166705
0.0164814
0.0162958
0.0160956
0.0159082
0.0157117
0.0155311
0.0153511
0.0151973
0.0150561
0.0149493
0.0148751
0.0148494
0.0148623
0.0149898
0.0151825
0.016902
0.0171495
0.0172933
0.017404
0.0174797
0.0175348
0.0175702
0.0175798
0.0175663
0.0175225
0.0174579
0.0173601
0.0172478
0.0171077
0.0169655
0.0167989
0.016635
0.0164542
0.0162851
0.0161047
0.0159393
0.0157727
0.0156316
0.0155019
0.0154062
0.0153421
0.0153264
0.0153495
0.0154877
0.0156889
0.0170353
0.0172789
0.0174203
0.0175331
0.0176136
0.0176761
0.0177228
0.0177467
0.017751
0.017727
0.0176845
0.0176094
0.0175207
0.0174034
0.0172838
0.017138
0.0169939
0.0168308
0.0166783
0.0165127
0.0163611
0.0162069
0.0160776
0.0159586
0.0158733
0.015819
0.0158129
0.0158458
0.0159943
0.0162049
0.0171656
0.0174063
0.017548
0.0176659
0.0177544
0.0178272
0.0178876
0.0179277
0.0179507
0.0179468
0.0179261
0.0178727
0.0178063
0.0177102
0.0176115
0.0174847
0.0173586
0.0172115
0.0170743
0.016922
0.0167832
0.0166402
0.016522
0.0164131
0.0163377
0.0162928
0.0162962
0.0163387
0.0164969
0.0167143
0.0172964
0.0175356
0.0176797
0.017805
0.0179038
0.0179892
0.0180652
0.0181229
0.0181657
0.0181825
0.0181835
0.0181516
0.0181069
0.0180313
0.0179525
0.0178439
0.017735
0.0176033
0.0174806
0.0173411
0.0172146
0.0170828
0.0169754
0.0168765
0.0168111
0.0167756
0.0167885
0.0168405
0.0170081
0.0172335
0.0174232
0.0176612
0.0178091
0.0179431
0.018054
0.0181532
0.0182458
0.0183219
0.0183849
0.0184224
0.018445
0.018434
0.0184102
0.0183542
0.0182946
0.0182031
0.0181107
0.0179934
0.0178846
0.0177575
0.017643
0.0175218
0.0174253
0.0173362
0.0172808
0.0172546
0.017277
0.0173384
0.0175152
0.0177463
0.0175495
0.0177871
0.01794
0.0180837
0.0182075
0.0183216
0.0184316
0.0185267
0.0186105
0.0186692
0.0187135
0.0187236
0.0187207
0.0186842
0.0186436
0.0185692
0.0184931
0.0183904
0.0182957
0.0181811
0.0180787
0.0179687
0.0178831
0.0178043
0.0177591
0.0177426
0.0177747
0.0178456
0.0180312
0.0182694
0.0176709
0.0179077
0.0180661
0.01822
0.0183574
0.0184866
0.0186142
0.0187286
0.0188333
0.018913
0.0189791
0.0190099
0.0190277
0.0190104
0.0189886
0.0189309
0.0188711
0.0187827
0.018702
0.0185998
0.0185097
0.0184108
0.0183365
0.0182681
0.0182333
0.0182266
0.0182684
0.0183488
0.0185431
0.0187862
0.0177908
0.0180271
0.0181917
0.0183559
0.0185071
0.0186518
0.0187972
0.0189312
0.019057
0.0191582
0.0192464
0.0192984
0.0193373
0.0193396
0.019337
0.0192967
0.0192535
0.01918
0.0191139
0.0190247
0.0189474
0.0188603
0.0187977
0.0187402
0.0187163
0.0187197
0.0187715
0.0188615
0.0190643
0.0193141
0.0179047
0.0181398
0.0183108
0.0184852
0.0186503
0.0188102
0.0189734
0.0191268
0.0192738
0.0193965
0.0195068
0.0195801
0.0196402
0.0196621
0.0196789
0.0196559
0.0196296
0.0195711
0.0195198
0.0194439
0.0193798
0.0193046
0.0192541
0.0192077
0.0191949
0.0192087
0.0192707
0.0193702
0.0195816
0.0198359
0.018016
0.0182502
0.0184278
0.0186124
0.0187911
0.0189663
0.0191471
0.0193201
0.0194887
0.0196333
0.0197663
0.0198614
0.0199434
0.0199858
0.0200226
0.0200179
0.0200092
0.0199666
0.0199309
0.0198691
0.0198188
0.0197563
0.0197185
0.0196839
0.0196827
0.0197072
0.0197796
0.0198888
0.0201086
0.0203694
0.0181203
0.0183528
0.0185369
0.0187313
0.0189235
0.0191136
0.0193119
0.0195043
0.0196944
0.019861
0.020017
0.0201342
0.0202383
0.0203014
0.0203587
0.0203724
0.0203817
0.0203553
0.0203356
0.0202881
0.0202521
0.0202027
0.020178
0.0201553
0.020166
0.0202015
0.0202844
0.0204034
0.0206317
0.020897
0.0182212
0.0184521
0.0186428
0.0188468
0.0190521
0.019257
0.0194726
0.0196846
0.0198966
0.0200858
0.0202653
0.0204054
0.0205327
0.0206174
0.0206961
0.0207292
0.0207575
0.0207482
0.0207453
0.0207132
0.0206922
0.0206566
0.0206457
0.0206357
0.0206587
0.0207055
0.0207993
0.0209282
0.021165
0.0214369
0.0183141
0.0185427
0.0187398
0.018953
0.0191712
0.0193904
0.0196232
0.0198547
0.0200886
0.0203006
0.020504
0.0206673
0.020818
0.0209247
0.0210252
0.0210782
0.0211259
0.0211341
0.0211485
0.0211319
0.0211265
0.021105
0.0211082
0.0211111
0.0211469
0.0212052
0.02131
0.0214489
0.0216943
0.0219709
0.0184027
0.0186291
0.0188326
0.0190547
0.0192854
0.0195189
0.0197687
0.0200199
0.0202762
0.0205116
0.0207397
0.0209272
0.0211024
0.0212321
0.0213556
0.0214294
0.0214975
0.0215242
0.0215569
0.0215569
0.0215677
0.0215612
0.0215792
0.0215957
0.0216446
0.0217149
0.021831
0.0219802
0.0222342
0.0225176
0.0184826
0.0187061
0.0189156
0.0191464
0.0193893
0.0196366
0.0199033
0.0201741
0.020453
0.020712
0.0209652
0.0211772
0.0213774
0.0215305
0.0216774
0.0217725
0.0218616
0.021907
0.0219585
0.0219753
0.0220029
0.0220116
0.0220449
0.0220752
0.0221376
0.02222
0.0223476
0.0225072
0.0227701
0.0230586
0.0185576
0.0187782
0.0189938
0.0192329
0.0194875
0.0197486
0.0200322
0.0203229
0.0206248
0.0209083
0.0211874
0.021425
0.0216512
0.0218289
0.0220004
0.0221178
0.0222288
0.0222942
0.0223653
0.0224
0.0224451
0.0224699
0.0225191
0.0225639
0.0226403
0.0227354
0.0228748
0.023045
0.0233169
0.0236127
0.018623
0.0188402
0.0190615
0.0193086
0.0195747
0.0198492
0.0201494
0.0204601
0.0207853
0.0210935
0.0213991
0.0216626
0.0219153
0.0221181
0.0223145
0.0224548
0.0225882
0.0226738
0.022765
0.0228178
0.022881
0.0229222
0.0229877
0.0230472
0.023138
0.0232458
0.0233974
0.0235784
0.0238596
0.024161
0.0186828
0.0188967
0.0191237
0.0193785
0.0196556
0.0199434
0.0202603
0.0205912
0.0209403
0.0212741
0.0216071
0.0218977
0.0221781
0.022407
0.0226297
0.0227938
0.0229507
0.0230577
0.0231699
0.0232418
0.0233238
0.0233823
0.0234648
0.0235399
0.0236455
0.0237666
0.0239307
0.0241229
0.0244135
0.0247227
0.0187324
0.0189424
0.0191748
0.0194371
0.0197249
0.0200255
0.020359
0.0207103
0.0210835
0.0214432
0.0218041
0.0221222
0.0224308
0.0226863
0.0229357
0.0231241
0.023305
0.0234335
0.0235673
0.0236586
0.0237599
0.0238359
0.0239359
0.0240267
0.0241476
0.0242823
0.0244591
0.0246626
0.0249631
0.0252786
0.0187758
0.0189821
0.0192198
0.0194893
0.0197873
0.0201006
0.0204507
0.0208228
0.0212207
0.0216073
0.021997
0.0223438
0.0226818
0.0229651
0.0232424
0.0234564
0.0236622
0.0238135
0.0239698
0.0240815
0.0242029
0.0242974
0.0244155
0.0245229
0.0246596
0.0248084
0.0249983
0.0252136
0.0255242
0.0258482
0.0188084
0.0190103
0.0192532
0.0195296
0.0198374
0.020163
0.0205297
0.0209226
0.0213457
0.0217594
0.0221786
0.0225545
0.0229223
0.0232339
0.0235395
0.0237793
0.0240107
0.024185
0.0243642
0.0244966
0.0246386
0.0247519
0.0248887
0.0250128
0.0251657
0.0253289
0.0255324
0.0257596
0.0260807
0.0264117
0.0188341
0.019032
0.0192798
0.019563
0.01988
0.0202177
0.0206009
0.0210151
0.021464
0.0219059
0.0223555
0.0227617
0.0231607
0.0235018
0.023837
0.0241039
0.0243619
0.0245604
0.0247635
0.0249176
0.025081
0.0252141
0.0253703
0.0255121
0.0256818
0.0258599
0.0260773
0.026317
0.0266489
0.0269893
0.0188481
0.0190415
0.0192939
0.0195837
0.0199095
0.0202591
0.0206588
0.0210945
0.0215696
0.0220401
0.0225206
0.0229575
0.0233881
0.0237592
0.0241244
0.0244186
0.0247038
0.0249266
0.025154
0.0253301
0.0255155
0.0256686
0.0258448
0.0260045
0.0261915
0.0263849
0.0266167
0.0268691
0.0272123
0.0275605
0.0188547
0.0190437
0.0193006
0.0195967
0.0199308
0.020292
0.0207082
0.0211658
0.0216679
0.0221679
0.0226805
0.0231494
0.0236129
0.0240152
0.0244117
0.0247346
0.0250479
0.0252964
0.0255492
0.0257483
0.0259565
0.0261307
0.0263276
0.0265062
0.0267111
0.0269203
0.027167
0.0274326
0.0277876
0.0281461
0.0188486
0.0190324
0.0192936
0.0195959
0.0199381
0.0203107
0.0207436
0.0212235
0.0217529
0.0222829
0.0228281
0.0233293
0.0238261
0.0242599
0.0246883
0.02504
0.025382
0.0256562
0.0259348
0.0261573
0.0263889
0.0265845
0.0268027
0.0270005
0.0272238
0.0274493
0.0277113
0.0279904
0.0283576
0.0287249
0.0188343
0.0190133
0.0192782
0.0195864
0.0199361
0.0203201
0.0207697
0.0212724
0.0218299
0.0223909
0.0229697
0.0235046
0.0240361
0.0245028
0.0249642
0.0253462
0.025718
0.0260193
0.0263247
0.0265717
0.0268275
0.0270457
0.027286
0.0275039
0.0277463
0.0279887
0.0282665
0.0285597
0.0289396
0.0293183
0.0188064
0.0189791
0.0192474
0.0195616
0.0199191
0.0203146
0.0207812
0.021307
0.0218931
0.0224855
0.0230984
0.0236672
0.0242339
0.0247338
0.0252286
0.025641
0.0260431
0.0263716
0.0267043
0.0269759
0.0272567
0.0274978
0.0277609
0.0279994
0.0282614
0.028521
0.0288151
0.0291228
0.0295161
0.0299045
0.0187695
0.018936
0.019207
0.0195269
0.0198917
0.0202987
0.0207827
0.0213321
0.0219477
0.0225724
0.0232206
0.0238247
0.0244278
0.0249622
0.0254917
0.025936
0.0263696
0.0267265
0.0270876
0.0273852
0.0276918
0.0279569
0.0282437
0.0285037
0.0287861
0.0290637
0.0293747
0.0296974
0.0301045
0.0305055
0.0187182
0.018876
0.0191495
0.0194754
0.019848
0.0202671
0.0207688
0.0213424
0.0219878
0.0226453
0.0233292
0.0239688
0.0246088
0.0251779
0.0257426
0.0262188
0.0266843
0.0270699
0.0274597
0.0277835
0.0281166
0.0284063
0.0287175
0.0289994
0.0293027
0.0295987
0.0299271
0.0302652
0.0306867
0.0310989
0.0186575
0.018806
0.0190811
0.0194128
0.019793
0.0202243
0.0207442
0.0213426
0.0220186
0.0227098
0.0234305
0.024107
0.0247851
0.0253904
0.0259915
0.0265011
0.0269997
0.0274154
0.0278351
0.0281864
0.028547
0.0288624
0.0291989
0.0295038
0.0298288
0.0301439
0.0304902
0.0308444
0.031281
0.0317072
0.0185816
0.0187182
0.0189945
0.0193323
0.019721
0.0201652
0.0207038
0.0213275
0.0220344
0.0227597
0.0235175
0.0242311
0.0249477
0.0255893
0.0262272
0.0267703
0.0273025
0.0277483
0.0281984
0.0285774
0.0289663
0.029308
0.0296706
0.0299989
0.0303462
0.0306808
0.0310456
0.0314161
0.0318684
0.0323071
0.0184962
0.0186203
0.0188965
0.01924
0.019637
0.0200944
0.0206522
0.0213016
0.0220403
0.0228005
0.0235966
0.0243484
0.0251048
0.0257843
0.0264603
0.0270383
0.0276054
0.0280827
0.0285644
0.0289727
0.0293909
0.0297601
0.0301496
0.0305024
0.0308728
0.0312277
0.0316116
0.0319992
0.0324678
0.032922
0.0183959
0.0185052
0.0187806
0.0191299
0.0195359
0.020007
0.0205845
0.0212601
0.0220307
0.0228261
0.0236606
0.024451
0.0252474
0.0259647
0.0266792
0.0272923
0.0278945
0.0284036
0.0289174
0.0293551
0.0298035
0.0302008
0.0306182
0.030996
0.0313901
0.0317655
0.032169
0.032574
0.0330596
0.0335278
0.0182868
0.0183806
0.018654
0.0190084
0.019423
0.019908
0.0205053
0.0212074
0.0220106
0.0228419
0.0237159
0.0245459
0.0253837
0.0261403
0.0268946
0.0275443
0.0281831
0.0287255
0.0292726
0.0297414
0.030221
0.0306477
0.0310939
0.0314978
0.0319163
0.0323132
0.0327369
0.0331601
0.0336632
0.0341489
0.0181636
0.0182407
0.0185112
0.0188703
0.0192938
0.0197928
0.0204102
0.0211388
0.0219745
0.0228418
0.0237554
0.0246252
0.0255046
0.0263006
0.0270949
0.0277812
0.028457
0.0290327
0.0296139
0.030114
0.030626
0.0310827
0.0315586
0.0319889
0.0324325
0.0328511
0.0332955
0.0337371
0.0342583
0.03476
0.018033
0.0180936
0.0183598
0.0187224
0.0191539
0.0196664
0.0203036
0.0210589
0.0219274
0.0228313
0.0237853
0.0246961
0.0256183
0.0264551
0.027291
0.0280155
0.0287297
0.0293405
0.029957
0.0304902
0.0310355
0.0315236
0.0320301
0.0324881
0.0329575
0.0333987
0.0338644
0.0343252
0.0348651
0.0353856
0.0178901
0.0179344
0.0181955
0.0185604
0.0189992
0.0195247
0.0201814
0.0209629
0.021864
0.0228043
0.0237988
0.0247504
0.0257157
0.0265932
0.0274709
0.0282337
0.0289867
0.0296328
0.0302853
0.0308519
0.0314317
0.0319518
0.0324899
0.032976
0.0334718
0.0339357
0.0344232
0.0349034
0.0354624
0.0359999
0.0177415
0.0177712
0.0180257
0.018391
0.0188355
0.0193729
0.0200481
0.0208554
0.0217891
0.0227662
0.0238019
0.0247955
0.025805
0.0267248
0.0276457
0.0284485
0.0292419
0.0299251
0.0306151
0.031217
0.0318323
0.0323859
0.0329564
0.0334716
0.0339947
0.0344821
0.034992
0.0354926
0.0360712
0.0366281
0.0175829
0.0175992
0.0178463
0.0182104
0.018659
0.0192069
0.0198997
0.0207319
0.0216975
0.022711
0.0237878
0.0248233
0.025877
0.0268391
0.0278035
0.0286463
0.0294805
0.0302011
0.0309294
0.031567
0.0322191
0.0328067
0.0334106
0.0339554
0.0345062
0.0350174
0.0355501
0.0360711
0.0366697
0.0372447
0.0174211
0.0174261
0.0176645
0.018025
0.0184754
0.0190318
0.0197406
0.0205968
0.0215941
0.0226441
0.0237627
0.024841
0.0259403
0.0269462
0.0279556
0.0288402
0.0297169
0.0304768
0.031245
0.0319202
0.0326102
0.0332332
0.0338713
0.0344468
0.0350261
0.0355618
0.036118
0.0366605
0.0372798
0.0378761
0.0172516
0.0172469
0.0174761
0.017831
0.0182808
0.0188435
0.0195668
0.0204457
0.0214735
0.0225595
0.0237195
0.0248406
0.0259854
0.027035
0.0280897
0.0290162
0.029936
0.0307355
0.0315447
0.032258
0.032987
0.0336461
0.0343194
0.0349259
0.0355341
0.0360943
0.0366742
0.0372383
0.037879
0.0384956
0.0170811
0.0170689
0.0172876
0.0176342
0.0180805
0.018647
0.0193828
0.020283
0.0213408
0.0224627
0.0236648
0.0248295
0.0260211
0.027116
0.0282176
0.029188
0.0301526
0.0309939
0.0318455
0.0325989
0.0333681
0.0340645
0.0347737
0.0354123
0.0360501
0.0366357
0.0372402
0.0378267
0.0384897
0.0391299
0.0169051
0.0168863
0.0170941
0.0174302
0.0178704
0.018438
0.0191841
0.020104
0.0211906
0.0223477
0.0235913
0.0247995
0.0260379
0.027178
0.0283269
0.0293412
0.0303513
0.0312349
0.0321301
0.032924
0.0337345
0.0344689
0.0352149
0.0358858
0.0365538
0.0371647
0.0377936
0.0384026
0.0390886
0.0397515
0.0167297
0.016706
0.0169014
0.0172242
0.0176551
0.0182212
0.0189754
0.0199134
0.0210281
0.0222202
0.0235059
0.0247584
0.0260449
0.0272318
0.0284296
0.02949
0.0305474
0.0314754
0.0324159
0.0332523
0.0341052
0.0348788
0.0356622
0.0363666
0.0370651
0.0377022
0.0383565
0.038989
0.039699
0.0403878
0.0165498
0.0165215
0.016704
0.0170113
0.0174301
0.0179919
0.018752
0.0197062
0.0208476
0.0220739
0.0234013
0.0246979
0.0260324
0.0272662
0.0285133
0.0296199
0.0307254
0.0316985
0.0326853
0.0335647
0.0344611
0.0352742
0.036096
0.0368339
0.0375637
0.0382266
0.038906
0.0395619
0.0402965
0.0410104
0.0163714
0.0163389
0.0165068
0.016796
0.0171998
0.0177546
0.0185184
0.0194875
0.0206547
0.0219151
0.0232845
0.0246261
0.0260099
0.0272923
0.0285904
0.0297455
0.0309009
0.0319213
0.0329561
0.0338803
0.0348212
0.0356751
0.0365357
0.0373082
0.0380696
0.0387592
0.0394646
0.0401449
0.040905
0.0416473
0.0161881
0.016151
0.0163035
0.0165727
0.0169591
0.0175045
0.0182698
0.0192518
0.0204436
0.0217371
0.0231483
0.0245347
0.0259677
0.0272987
0.0286483
0.0298521
0.0310584
0.0321266
0.0332105
0.03418
0.0351661
0.036061
0.0369614
0.0377686
0.0385621
0.039278
0.0400089
0.0407134
0.0414996
0.0422692
0.016006
0.0159638
0.0160991
0.0163459
0.0167123
0.017246
0.018011
0.0190046
0.0202203
0.0215469
0.0230001
0.0244321
0.0259157
0.0272971
0.0287
0.0299548
0.0312137
0.032332
0.0334666
0.034483
0.0355154
0.0364524
0.0373927
0.0382356
0.0390616
0.0398047
0.0405619
0.0412915
0.0421046
0.0429047
0.0158177
0.0157691
0.0158867
0.0161095
0.0164539
0.0169739
0.0177366
0.0187402
0.0199786
0.0213375
0.0228325
0.02431
0.0258442
0.0272761
0.0287328
0.0300387
0.0313512
0.0325201
0.0337066
0.0347703
0.0358491
0.0368282
0.0378096
0.0386883
0.0395472
0.0403171
0.0410997
0.0418539
0.0426943
0.0435235
0.0156296
0.0155736
0.0156715
0.0158683
0.0161887
0.0166931
0.0174522
0.0184647
0.0197252
0.0211165
0.0226536
0.0241775
0.0257636
0.0272477
0.02876
0.0301194
0.0314872
0.0327087
0.0339484
0.0350609
0.0361871
0.0372092
0.0382317
0.0391471
0.0400392
0.0408366
0.0416455
0.0424252
0.0432935
0.0441545
0.015433
0.0153683
0.0154462
0.0156159
0.0159109
0.0163983
0.0171521
0.0181719
0.0194538
0.0208768
0.0224559
0.024026
0.025664
0.0272004
0.0287689
0.030182
0.0316057
0.0328803
0.0341745
0.0353359
0.0365092
0.0375741
0.0386389
0.0395911
0.0405169
0.0413411
0.0421754
0.0429799
0.0438757
0.0447667
0.0152357
0.0151607
0.0152168
0.0153578
0.0156258
0.0160949
0.0168424
0.0178691
0.0191717
0.0206266
0.0222481
0.0238653
0.0255564
0.027147
0.0287734
0.0302422
0.0317234
0.0330529
0.0344025
0.0356142
0.0368353
0.0379438
0.0390508
0.0400405
0.0410004
0.041852
0.042712
0.043542
0.0444657
0.0453883
0.0150275
0.0149414
0.0149762
0.0150876
0.0153277
0.0157772
0.0165171
0.0175494
0.0188724
0.0203587
0.0220226
0.0236867
0.0254308
0.0270756
0.0287606
0.0302854
0.0318243
0.0332087
0.0346151
0.035877
0.0371451
0.0382966
0.0394472
0.0404745
0.0414685
0.0423469
0.0432317
0.0440862
0.0450369
0.0459884
0.0148176
0.0147191
0.0147308
0.0148116
0.0150225
0.0154518
0.0161836
0.0172211
0.0185641
0.0200822
0.0217887
0.0235006
0.0252989
0.0269995
0.0287446
0.0303272
0.0319251
0.0333658
0.0348296
0.0361429
0.0374584
0.0386537
0.0398473
0.0409127
0.0419414
0.0428466
0.0437564
0.0446358
0.0456134
0.0465943
0.0145942
0.0144838
0.0144737
0.0145233
0.0147046
0.0151127
0.0158353
0.0168772
0.01824
0.0197895
0.0215388
0.0232982
0.0251504
0.0269067
0.0287129
0.0303533
0.0320097
0.0335062
0.0350287
0.0363929
0.0377549
0.0389929
0.0402307
0.0413338
0.0423966
0.0433284
0.044262
0.0451656
0.0461686
0.0471754
0.0143682
0.0142455
0.0142124
0.0142299
0.0143808
0.0147674
0.0154807
0.0165268
0.0179092
0.0194906
0.0212831
0.0230907
0.0249977
0.0268112
0.0286796
0.0303795
0.032095
0.0336481
0.0352295
0.0366454
0.0380539
0.0393349
0.0406161
0.0417572
0.0428546
0.0438132
0.0447703
0.0456987
0.0467265
0.0477593
0.0141284
0.0139946
0.0139402
0.0139254
0.0140455
0.0144099
0.0151128
0.0161625
0.0175648
0.0191779
0.0210137
0.0228692
0.0248303
0.0267007
0.0286324
0.0303914
0.0321649
0.0337733
0.0354138
0.0368808
0.0383344
0.0396575
0.0409819
0.0421602
0.0432905
0.044276
0.0452562
0.0462093
0.0472611
0.0483166
0.0138875
0.0137423
0.0136655
0.0136177
0.0137064
0.0140484
0.0147412
0.0157948
0.0172168
0.0188621
0.0207414
0.0226454
0.0246613
0.0265894
0.0285852
0.0304045
0.0322363
0.0339
0.0355994
0.037117
0.0386157
0.0399801
0.0413468
0.0425615
0.0437244
0.0447373
0.0457414
0.0467204
0.0477968
0.048876
0.0136347
0.0134797
0.013382
0.0133008
0.0133578
0.0136769
0.0143586
0.0154156
0.0168578
0.0185352
0.0204584
0.0224104
0.0244799
0.0264649
0.0285257
0.0304046
0.0322928
0.0340093
0.0357659
0.0373333
0.0388749
0.0402798
0.0416869
0.0429368
0.04413
0.0451718
0.0462007
0.0472076
0.0483092
0.0494114
0.0133828
0.0132188
0.0130992
0.0129837
0.0130084
0.0133046
0.0139757
0.0150365
0.0164989
0.0182089
0.020176
0.0221764
0.0242996
0.026342
0.028468
0.0304068
0.0323512
0.0341195
0.0359321
0.0375486
0.0391316
0.0405761
0.0420215
0.0433057
0.0445291
0.0456015
0.046658
0.0476958
0.0488254
0.0499542
0.0131233
0.0129515
0.0128111
0.0126607
0.0126524
0.012925
0.0135847
0.014649
0.0161326
0.017875
0.0198864
0.0219343
0.0241098
0.026208
0.0283988
0.0303966
0.0323942
0.0342111
0.036075
0.037739
0.0393608
0.0408439
0.0423245
0.0436421
0.0448945
0.0460009
0.0470886
0.0481616
0.0493223
0.0504798
0.0128697
0.0126906
0.0125279
0.0123414
0.0122994
0.0125484
0.0131972
0.0142658
0.0157704
0.0175456
0.0196009
0.0216966
0.0239241
0.0260777
0.0283328
0.0303883
0.0324387
0.0343018
0.0362143
0.0379236
0.0395826
0.0411024
0.0426167
0.0439672
0.0452501
0.0463941
0.0475177
0.0486312
0.049828
0.0510206
0.0126141
0.0124285
0.0122436
0.0120199
0.0119431
0.0121679
0.012805
0.0138778
0.0154048
0.0172124
0.0193116
0.0214538
0.0237316
0.0259381
0.0282549
0.0303665
0.0324654
0.034371
0.0363253
0.038078
0.0397712
0.0413275
0.0428723
0.0442564
0.0455706
0.0467574
0.0479226
0.0490827
0.0503209
0.0515534
0.01237
0.0121782
0.0119692
0.0117066
0.011594
0.0117944
0.0124207
0.0134988
0.015048
0.0168879
0.0190301
0.0212186
0.0235461
0.025804
0.0281799
0.0303462
0.0324913
0.0344376
0.0364301
0.0382239
0.0399503
0.0415418
0.0431171
0.0445359
0.0458845
0.0471186
0.0483322
0.0495448
0.0508308
0.0521106
0.0121286
0.0119311
0.0116978
0.0113947
0.011245
0.0114204
0.0120356
0.0131192
0.0146919
0.0165631
0.0187475
0.0209807
0.0233558
0.0256617
0.0280913
0.0303092
0.0324954
0.034479
0.0365033
0.0383369
0.040095
0.0417226
0.0433268
0.0447829
0.0461692
0.0474564
0.0487246
0.0499961
0.0513356
0.0526675
0.0119039
0.0117004
0.0114408
0.0110953
0.0109071
0.0110575
0.0116627
0.0127532
0.0143492
0.0162512
0.0184761
0.0207526
0.0231745
0.0255256
0.0280042
0.0302703
0.0324948
0.0345141
0.0365681
0.0384408
0.0402311
0.0418956
0.043531
0.0450272
0.0464565
0.0478014
0.04913
0.0504655
0.0518642
0.0532547
0.0116849
0.0114764
0.0111894
0.0107995
0.0105719
0.010697
0.0112926
0.0123905
0.014011
0.0159418
0.0182048
0.0205226
0.0229887
0.0253814
0.0279008
0.0302111
0.0324683
0.0345215
0.0366011
0.0385132
0.0403367
0.0420408
0.0437083
0.0452487
0.0467251
0.0481324
0.0495262
0.0509302
0.0523922
0.0538446
0.0114859
0.0112725
0.0109561
0.0105191
0.010251
0.0103512
0.0109386
0.0120456
0.0136905
0.0156488
0.0179467
0.0203042
0.0228117
0.0252435
0.027798
0.0301482
0.0324357
0.0345232
0.036629
0.0385816
0.0404419
0.0421879
0.0438924
0.0454804
0.047009
0.0484814
0.0499437
0.0514189
0.0529477
0.0544659
0.0112937
0.0110766
0.0107289
0.0102421
0.00993363
0.0100091
0.0105897
0.0117068
0.0133768
0.0153602
0.0176884
0.0200831
0.0226289
0.0250964
0.0276781
0.0300642
0.0323779
0.0344995
0.0366311
0.0386261
0.0405265
0.0423183
0.0440626
0.0457021
0.047286
0.0488256
0.0503584
0.0519065
0.0535038
0.0550885
0.0111235
0.0109027
0.0105207
0.00998141
0.00963274
0.00968423
0.0102602
0.0113889
0.013084
0.0150903
0.0174441
0.0198727
0.0224533
0.0249542
0.0275586
0.0299782
0.0323168
0.0344752
0.0366364
0.0386769
0.0406223
0.0424632
0.0442524
0.045946
0.0475883
0.0491955
0.0507993
0.0524202
0.0540868
0.0557394
0.0109591
0.0107368
0.0103187
0.00972503
0.00933515
0.00936289
0.009936
0.0110775
0.0127982
0.0148248
0.0171989
0.0196588
0.0222698
0.0248019
0.0274236
0.0298744
0.0322369
0.0344338
0.0366264
0.0387147
0.0407081
0.0426016
0.044438
0.0461881
0.0478897
0.0495644
0.0512385
0.0529318
0.0546673
0.0563866
0.0108167
0.0105936
0.0101379
0.0094872
0.00905564
0.00906055
0.00963263
0.0107886
0.0125345
0.0145797
0.0169695
0.0194565
0.0220937
0.0246554
0.0272933
0.0297751
0.0321643
0.034403
0.0366326
0.0387713
0.0408167
0.0427647
0.0446519
0.0464589
0.0482203
0.0499608