/*--------------------------------*- C++ -*----------------------------------*\
  =========                 |
  \\      /  F ield         | OpenFOAM: The Open Source CFD Toolbox
   \\    /   O peration     | Website:  https://openfoam.org
    \\  /    A nd           | Version:  6.0
     \\/     M anipulation  |
\*---------------------------------------------------------------------------*/
FoamFile
{
    version     2.0;
    format      ascii;
    class       surfaceScalarField;
    location    "15";
    object      phi;
}
// * * * * * * * * * * * * * * * * * * * * * * * * * * * * * * * * * * * * * //

dimensions      [0 3 -1 0 0 0 0];

internalField   nonuniform List<scalar> 
93586
(
2.3294e-05
0.00154672
6.66597e-08
4.69859e-05
0.00154203
7.08556e-05
0.00153313
9.47297e-05
0.00152007
0.000118465
0.00150288
0.000141936
0.00148162
0.000165047
0.00145635
0.000187711
0.00142717
0.000209866
0.00139414
0.000231452
0.00135733
0.000252418
0.0013168
0.000272707
0.00127265
0.000292264
0.001225
0.000311028
0.00117397
0.000328944
0.00111973
0.000345955
0.00106241
0.000362013
0.00100218
0.000377069
0.000939176
0.000391084
0.00087356
0.000404017
0.000805499
0.000415835
0.000735163
0.000426502
0.000662741
0.000435991
0.000588421
0.000444271
0.000512406
0.000451322
0.000434885
0.000457125
0.000356056
0.000461632
0.000276073
0.000465045
0.00019498
0.000466919
0.000112687
2.99756e-05
0.00046185
2.29793e-05
0.00152366
7.83248e-08
4.63588e-05
0.00151865
6.98978e-05
0.00150959
9.34176e-05
0.00149654
0.000116775
0.00147951
0.000139853
0.00145852
0.000162566
0.00143362
0.000184839
0.00140488
0.00020662
0.00137234
0.000227853
0.00133607
0.000248486
0.00129614
0.00026846
0.00125265
0.000287716
0.00120572
0.00030619
0.00115547
0.000323829
0.00110207
0.000340573
0.00104565
0.00035638
0.000986351
0.000371199
0.000924335
0.000384997
0.000859744
0.000397731
0.000792747
0.00040937
0.000723509
0.000419878
0.000652216
0.000429229
0.000579056
0.000437394
0.000504228
0.000444348
0.00042792
0.000450078
0.000350313
0.000454523
0.000271616
0.000457667
0.000191824
0.00045941
0.000110931
2.98778e-05
0.000459488
2.26723e-05
0.00150093
6.36931e-08
4.57151e-05
0.00149561
6.88976e-05
0.0014864
9.20417e-05
0.0014734
0.000115011
0.00145654
0.000137698
0.00143583
0.000160029
0.00141129
0.000181938
0.00138297
0.000203374
0.0013509
0.000224281
0.00131516
0.000244603
0.00127582
0.000264276
0.00123298
0.000283241
0.00118675
0.000301432
0.00113728
0.000318798
0.0010847
0.000335282
0.00102916
0.000350843
0.000970792
0.000365434
0.000909743
0.000379021
0.00084616
0.000391563
0.000780205
0.00040303
0.000712045
0.000413386
0.000641862
0.000422604
0.000569842
0.000430654
0.00049618
0.000437511
0.000421066
0.000443156
0.00034467
0.000447547
0.000267229
0.000450588
0.000188786
0.000452317
0.000109207
2.98282e-05
0.000452381
2.23508e-05
0.00147853
4.34861e-08
4.50358e-05
0.00147292
6.78475e-05
0.00146359
9.06128e-05
0.00145063
0.000113202
0.00143394
0.000135518
0.00141351
0.000157493
0.0013893
0.000179062
0.00136139
0.000200175
0.00132977
0.000220771
0.00129455
0.000240791
0.00125579
0.000260168
0.00121358
0.000278843
0.00116806
0.000296752
0.00111936
0.000313848
0.0010676
0.000330074
0.00101292
0.000345393
0.000955463
0.000359759
0.000895364
0.00037314
0.00083277
0.000385493
0.00076784
0.000396791
0.000700739
0.000406995
0.000631647
0.000416079
0.00056075
0.000424011
0.000488238
0.000430768
0.000414302
0.000436321
0.000339109
0.000440641
0.0002629
0.000443636
0.000185783
0.000445272
0.000107563
2.96171e-05
0.000445472
2.20149e-05
0.0014565
1.62221e-08
4.43336e-05
0.0014506
6.67734e-05
0.00144115
8.91671e-05
0.00142824
0.000111392
0.00141172
0.000133355
0.00139155
0.000154992
0.00136767
0.000176238
0.00134014
0.000197038
0.00130898
0.000217329
0.00127426
0.000237049
0.00123607
0.00025613
0.0011945
0.000274517
0.00114968
0.000292146
0.00110173
0.000308973
0.00105078
0.000324944
0.000996952
0.000340026
0.000940388
0.000354171
0.000881222
0.000367349
0.000819598
0.000379518
0.000755674
0.000390648
0.000689615
0.000400702
0.000621596
0.000409654
0.000551804
0.00041747
0.000480425
0.000424128
0.000407649
0.000429595
0.000333645
0.000433849
0.000258651
0.000436803
0.000182834
0.000438421
0.000105951
2.91356e-05
0.000438916
2.16717e-05
0.00143483
-2.96231e-09
4.36259e-05
0.00142865
6.57004e-05
0.00141907
8.77336e-05
0.0014062
0.000109607
0.00138984
0.000131232
0.00136991
0.000152543
0.00134635
0.000173473
0.00131921
0.000193966
0.00128848
0.000213953
0.00125427
0.000233374
0.00121664
0.000252161
0.00117571
0.000270261
0.00113158
0.000287613
0.00108437
0.000304176
0.00103421
0.000319898
0.00098122
0.000334747
0.000925533
0.000348677
0.000867283
0.000361657
0.000806612
0.000373645
0.000743678
0.000384612
0.000678642
0.00039452
0.00061168
0.000403342
0.000542977
0.000411045
0.000472715
0.000417607
0.000401083
0.000422993
0.000328251
0.000427186
0.000254452
0.00043011
0.000179903
0.000431714
0.000104341
2.85493e-05
0.000432293
2.13274e-05
0.00141352
-1.47572e-08
4.29248e-05
0.00140705
6.46438e-05
0.00139735
8.63278e-05
0.00138452
0.000107861
0.00136831
0.000129158
0.00134862
0.000150149
0.00132536
0.000170767
0.00129859
0.000190954
0.00126829
0.000210639
0.00123458
0.000229761
0.00119753
0.000248257
0.00115722
0.000266073
0.00111377
0.000283153
0.00106729
0.000299457
0.00101791
0.000314937
0.000965744
0.000329559
0.000910918
0.000343279
0.000853567
0.000356066
0.000793833
0.000367878
0.00073187
0.000378685
0.000667841
0.000388449
0.00060192
0.000397144
0.000534288
0.000404735
0.000465127
0.000411201
0.000394622
0.000416508
0.000322948
0.000420639
0.000250325
0.000423538
0.000177008
0.000425128
0.000102757
2.80534e-05
0.000425636
2.0986e-05
0.00139255
-1.95677e-08
4.22365e-05
0.0013858
6.36105e-05
0.00137598
8.49555e-05
0.00136317
0.000106158
0.0013471
0.000127132
0.00132764
0.000147808
0.00130468
0.000168116
0.00127828
0.000187997
0.00124841
0.00020738
0.0012152
0.000226206
0.0011787
0.000244412
0.001139
0.000261949
0.00109623
0.000278762
0.00105047
0.000294814
0.00100185
0.000310057
0.000950494
0.000324459
0.000896513
0.000337974
0.000840045
0.000350572
0.00078123
0.000362211
0.000720224
0.00037286
0.000657188
0.000382482
0.000592291
0.000391051
0.000525715
0.000398531
0.00045764
0.000404901
0.000388247
0.000410129
0.000317714
0.000414197
0.000246252
0.000417067
0.000174132
0.000418657
0.000101161
2.76126e-05
0.000419091
2.06497e-05
0.00137191
-1.64122e-08
4.15634e-05
0.00136489
6.26021e-05
0.00135494
8.36168e-05
0.00134216
0.000104495
0.00132623
0.000125151
0.00130699
0.000145514
0.00128432
0.000165513
0.00125828
0.000185088
0.00122883
0.000204171
0.00119612
0.000222702
0.00116017
0.000240623
0.00112109
0.000257885
0.00107897
0.000274438
0.00103392
0.000290244
0.000986056
0.000305256
0.000935486
0.000319442
0.000882334
0.000332757
0.000826733
0.000345171
0.000768824
0.000356639
0.000708759
0.000367134
0.000646699
0.000376615
0.000582813
0.000385058
0.000517278
0.000392428
0.000450273
0.000398703
0.000381977
0.000403852
0.000312568
0.000407857
0.000242251
0.000410693
0.0001713
0.000412292
9.9566e-05
2.72135e-05
0.000412701
2.03198e-05
0.0013516
-8.35102e-09
4.09061e-05
0.0013443
6.1618e-05
0.00133422
8.23093e-05
0.00132146
0.000102868
0.00130566
0.000123209
0.00128664
0.000143261
0.00126426
0.000162952
0.00123858
0.000182223
0.00120956
0.000201007
0.00117733
0.000219248
0.00114193
0.000236887
0.00110344
0.000253881
0.00106197
0.000270179
0.00101762
0.000285745
0.000970488
0.000300532
0.000920693
0.000314508
0.000868356
0.000327628
0.000813608
0.00033986
0.000756589
0.000351162
0.000697452
0.000361503
0.000636355
0.000370846
0.000573464
0.000379165
0.000508956
0.000386425
0.000443007
0.000392605
0.000375793
0.000397675
0.000307492
0.000401619
0.000238302
0.000404417
0.000168496
0.000406024
9.7953e-05
2.67823e-05
0.000406449
1.99967e-05
0.0013316
4.38341e-09
4.02637e-05
0.00132404
6.06558e-05
0.00131383
8.10293e-05
0.00130109
0.000101273
0.00128542
0.000121302
0.00126662
0.000141044
0.00124452
0.00016043
0.0012192
0.000179399
0.00119059
0.000197889
0.00115884
0.000215843
0.00112398
0.000233207
0.00108608
0.000249939
0.00104525
0.000265989
0.00100157
0.000281321
0.000955163
0.000295888
0.000906129
0.000309658
0.000854593
0.000322586
0.000800684
0.000334641
0.000744542
0.000345777
0.000686318
0.000355968
0.00062617
0.000365173
0.000564261
0.000373369
0.000500767
0.00038052
0.000435858
0.000386606
0.00036971
0.000391599
0.000302501
0.000395482
0.000234423
0.000398238
0.000165742
0.000399847
9.63479e-05
2.63357e-05
0.000400301
1.96805e-05
0.0013119
1.73009e-08
3.96349e-05
0.00130408
5.97128e-05
0.00129375
7.97733e-05
0.00128103
9.97057e-05
0.00126548
0.000119425
0.0012469
0.000138861
0.00122508
0.000157944
0.00120011
0.000176616
0.00117192
0.000194815
0.00114064
0.000212489
0.0011063
0.000229585
0.00106898
0.000246061
0.00102877
0.000261868
0.000985761
0.000276972
0.000940058
0.000291324
0.000891772
0.000304894
0.000841022
0.000317633
0.000787939
0.000329512
0.000732661
0.000340486
0.000675339
0.000350527
0.000616126
0.000359596
0.000555186
0.000367669
0.000492691
0.000374711
0.000428809
0.000380705
0.000363713
0.00038562
0.000297579
0.000389442
0.000230597
0.000392156
0.000163022
0.000393757
9.47408e-05
2.58458e-05
0.00039424
1.9371e-05
0.0012925
2.80404e-08
3.90182e-05
0.00128444
5.87868e-05
0.00127399
7.85382e-05
0.00126128
9.81629e-05
0.00124586
0.000117577
0.00122749
0.000136709
0.00120595
0.000155494
0.00118133
0.000173874
0.00115354
0.000191789
0.00112273
0.000209189
0.00108891
0.000226023
0.00105215
0.000242249
0.00101255
0.00025782
0.000970194
0.000272701
0.000925185
0.000286843
0.000877633
0.000300214
0.000827658
0.000312768
0.000775388
0.000324473
0.000720963
0.000335286
0.000664529
0.000345179
0.00060624
0.000354112
0.000546255
0.000362063
0.000484745
0.000368997
0.000421876
0.000374897
0.000357818
0.000379734
0.000292743
0.000383496
0.000226839
0.000386167
0.000160353
0.000387752
9.31579e-05
2.53534e-05
0.000388251
1.90679e-05
0.0012734
3.48976e-08
3.84124e-05
0.00126509
5.7876e-05
0.00125452
7.73223e-05
0.00124183
9.66429e-05
0.00122654
0.000115755
0.00120837
0.000134589
0.00118711
0.000153081
0.00116284
0.000171174
0.00113545
0.000188812
0.00110509
0.000205945
0.00107177
0.000222523
0.00103557
0.000238506
0.000996565
0.000253846
0.000954849
0.000268508
0.000910522
0.000282444
0.000863693
0.00029562
0.00081448
0.00030799
0.000763013
0.000319523
0.000709427
0.000330176
0.00065387
0.000339921
0.000596493
0.000348719
0.000537451
0.000356548
0.000476914
0.000363375
0.000415043
0.000369181
0.000352008
0.00037394
0.000287977
0.00037764
0.000223134
0.000380267
0.00015772
0.000381831
9.15886e-05
2.48432e-05
0.000382334
1.87707e-05
0.00125459
3.73388e-08
3.78166e-05
0.00124605
5.69792e-05
0.00123536
7.61244e-05
0.00122269
9.51451e-05
0.00120752
0.00011396
0.00118956
0.000132501
0.00116858
0.000150706
0.00114464
0.000168519
0.00111764
0.000185886
0.00108773
0.000202758
0.0010549
0.000219087
0.00101924
0.000234832
0.000980826
0.000249946
0.000939739
0.000264393
0.000896082
0.000278125
0.000849964
0.000291108
0.000801504
0.000303296
0.000750827
0.000314659
0.000698071
0.000325152
0.000643379
0.00033475
0.000586901
0.000343413
0.000528789
0.000351121
0.000469211
0.000357839
0.000408326
0.000363552
0.000346298
0.000368234
0.000283297
0.000371872
0.000219499
0.000374455
0.000155139
0.000375991
9.00545e-05
2.43537e-05
0.000376485
1.84791e-05
0.00123608
3.58742e-08
3.72302e-05
0.0012273
5.60958e-05
0.00121649
7.49442e-05
0.00120384
9.36697e-05
0.00118879
0.000112193
0.00117103
0.000130446
0.00115032
0.000148369
0.00112671
0.000165909
0.00110009
0.000183011
0.00107062
0.000199629
0.00103828
0.000215714
0.00100316
0.000231227
0.000965312
0.000246118
0.000924843
0.000260353
0.000881846
0.000273884
0.00083643
0.000286676
0.00078871
0.000298683
0.000738815
0.000309877
0.000686876
0.000320211
0.000633039
0.000329662
0.000577448
0.000338191
0.000520254
0.000345777
0.000461622
0.000352389
0.000401709
0.000358008
0.000340675
0.000362612
0.000278686
0.000366189
0.000215917
0.000368726
0.000152596
0.000370232
8.85425e-05
2.38663e-05
0.000370712
1.81926e-05
0.00121785
3.12983e-08
3.66529e-05
0.00120885
5.52258e-05
0.00119792
7.37818e-05
0.00118529
9.22169e-05
0.00117036
0.000110453
0.0011528
0.000128425
0.00113235
0.000146073
0.00110907
0.000163345
0.00108283
0.000180189
0.00105378
0.000196558
0.00102192
0.000212405
0.000987314
0.000227688
0.000950035
0.000242361
0.000910174
0.000256387
0.000867827
0.000269718
0.000823102
0.00028232
0.000776114
0.000294148
0.000726989
0.000305173
0.000675859
0.00031535
0.000622864
0.000324654
0.000568149
0.000333049
0.00051186
0.000340515
0.000454162
0.000347019
0.000395206
0.000352546
0.000335151
0.000357072
0.00027416
0.000360588
0.000212404
0.000363079
0.000150105
0.000364553
8.70703e-05
2.34113e-05
0.000365012
1.79109e-05
0.00119992
2.52162e-08
3.60845e-05
0.00119067
5.43692e-05
0.00117964
7.26378e-05
0.00116702
9.07877e-05
0.00115221
0.000108743
0.00113484
0.000126439
0.00111465
0.000143818
0.00109169
0.000160828
0.00106581
0.000177419
0.00103719
0.000193545
0.00100579
0.000209157
0.000971699
0.000224215
0.000934976
0.000238671
0.000895713
0.00025249
0.000854007
0.000265623
0.000809964
0.000278038
0.000763698
0.000289687
0.000715334
0.000300543
0.000665002
0.000310563
0.000612839
0.000319722
0.000558987
0.000327984
0.000503592
0.000335329
0.000446814
0.000341727
0.000388802
0.000347162
0.000329712
0.000351611
0.000269705
0.000355066
0.000208945
0.000357512
0.000147652
0.000358953
8.5623e-05
2.29654e-05
0.000359391
1.76337e-05
0.00118227
1.90808e-08
3.55252e-05
0.00117279
5.35265e-05
0.00116164
7.15125e-05
0.00114904
8.93825e-05
0.00113434
0.000107062
0.00111717
0.000124488
0.00109723
0.000141603
0.00107458
0.000158358
0.00104906
0.000174701
0.00102085
0.000190587
0.000989915
0.000205968
0.000956322
0.000220804
0.000920147
0.000235046
0.000881475
0.00024866
0.000840401
0.000261597
0.000797031
0.000273824
0.000751478
0.000285296
0.000703865
0.000295985
0.000654319
0.000305848
0.000602978
0.000314863
0.000549978
0.000322992
0.000495464
0.000330219
0.000439592
0.000336511
0.000382511
0.000341855
0.000324371
0.000346228
0.000265331
0.000349622
0.000205553
0.000352023
0.000145251
0.000353432
8.42155e-05
2.25532e-05
0.000353847
1.73609e-05
0.00116489
1.42164e-08
3.4975e-05
0.00115517
5.26978e-05
0.00114391
7.04065e-05
0.00113133
8.8002e-05
0.00111674
0.000105411
0.00109976
0.000122572
0.00108006
0.000139429
0.00105772
0.000155933
0.00103256
0.000172032
0.00100475
0.000187683
0.000974262
0.000202836
0.000941166
0.000217452
0.000905529
0.000231483
0.000867439
0.000244893
0.000826989
0.000257635
0.000784284
0.000269677
0.000739436
0.000280972
0.000692564
0.000291495
0.000643795
0.000301203
0.000593264
0.000310074
0.000541105
0.000318072
0.00048746
0.00032518
0.000432482
0.000331368
0.000376317
0.000336622
0.000319114
0.00034092
0.000261027
0.000344255
0.000202214
0.000346611
0.000142888
0.000347988
8.28321e-05
2.21497e-05
0.000348384
1.70923e-05
0.00114779
1.14166e-08
3.44339e-05
0.00113783
5.18833e-05
0.00112647
6.93199e-05
0.0011139
8.66461e-05
0.00109942
0.000103791
0.00108262
0.000120692
0.00106317
0.000137295
0.00104112
0.000153552
0.0010163
0.000169412
0.000988892
0.00018483
0.000958852
0.000199758
0.000926243
0.000214156
0.000891138
0.000227978
0.000853622
0.000241186
0.000813788
0.000253734
0.00077174
0.000265591
0.000727586
0.000276711
0.000681446
0.000287069
0.000633444
0.000296623
0.000583712
0.000305352
0.000532382
0.000313221
0.000479592
0.000320212
0.000425495
0.000326297
0.000370232
0.000331463
0.000313951
0.000335687
0.000256802
0.000338962
0.000198941
0.000341275
0.000140575
0.000342622
8.14862e-05
2.1776e-05
0.000342998
1.68278e-05
0.00113095
1.10054e-08
3.3902e-05
0.00112076
5.10832e-05
0.00110928
6.82528e-05
0.00109673
8.53149e-05
0.00108235
0.000102199
0.00106573
0.000118846
0.00104652
0.0001352
0.00102476
0.000151214
0.00100029
0.000166838
0.000973265
0.000182026
0.000943661
0.000196731
0.000911534
0.000210914
0.000876953
0.000224528
0.000840005
0.000237536
0.000800779
0.000249892
0.000759379
0.000261565
0.000715911
0.000272512
0.000670495
0.000282707
0.000623249
0.000292108
0.000574304
0.000300697
0.000523792
0.000308437
0.000471846
0.000315313
0.000418617
0.000321296
0.000364243
0.000326375
0.000308869
0.000330526
0.000252643
0.000333745
0.000195718
0.000336015
0.000138298
0.000337333
8.0162e-05
2.14074e-05
0.000337694
1.65675e-05
0.00111437
1.29399e-08
3.33793e-05
0.00110396
5.02973e-05
0.00109237
6.72049e-05
0.00107983
8.40078e-05
0.00106556
0.000100637
0.00104911
0.000117033
0.00103013
0.000133142
0.00100866
0.000148917
0.000984519
0.000164307
0.000957881
0.000179268
0.000928707
0.000193753
0.000897054
0.000207723
0.000862991
0.00022113
0.000826603
0.000233939
0.000787978
0.000246105
0.000747217
0.000257597
0.000704427
0.000268371
0.000659723
0.000278404
0.000613223
0.000287655
0.000565055
0.000296105
0.000515348
0.000303718
0.000464233
0.000310482
0.000411858
0.000316365
0.00035836
0.000321358
0.000303879
0.000325439
0.000248562
0.000328601
0.000192558
0.00033083
0.000136069
0.000332121
7.8872e-05
2.10637e-05
0.000332466
1.63113e-05
0.00109804
1.67982e-08
3.28657e-05
0.0010874
4.95254e-05
0.00107571
6.61759e-05
0.00106318
8.27241e-05
0.001049
9.91025e-05
0.00103273
0.000115252
0.00101397
0.00013112
0.000992787
0.000146658
0.000968978
0.000161818
0.000942719
0.000176555
0.000913969
0.000190822
0.000882784
0.00020458
0.000849232
0.000217782
0.000813396
0.000230395
0.000775364
0.000242371
0.000735236
0.000253683
0.000693114
0.000264288
0.000649113
0.000274161
0.000603349
0.000283263
0.000555947
0.000291576
0.000507033
0.000299065
0.000456737
0.000305717
0.000405204
0.000311502
0.000352568
0.000316412
0.000298967
0.000320423
0.000244544
0.000323531
0.000189446
0.00032572
0.000133873
0.000326985
7.76008e-05
2.07211e-05
0.000327319
1.60592e-05
0.00108196
2.19896e-08
3.2361e-05
0.00107111
4.87672e-05
0.00105931
6.51651e-05
0.00104679
8.14631e-05
0.00103271
9.75946e-05
0.0010166
0.000113501
0.000998072
0.000129131
0.000977164
0.000144436
0.000953679
0.000159368
0.000927793
0.000173883
0.000899462
0.000187934
0.000868739
0.000201482
0.000835692
0.000214482
0.000800402
0.000226899
0.000762955
0.000238689
0.00072345
0.000249824
0.000681987
0.00026026
0.00063868
0.000269975
0.000593641
0.000278931
0.000546993
0.000287109
0.000498861
0.000294476
0.000449371
0.000301018
0.000398666
0.000306708
0.000346878
0.000311535
0.000294142
0.000315479
0.000240599
0.000318533
0.000186393
0.000320684
0.000131722
0.000321924
7.63605e-05
2.03988e-05
0.000322248
1.58113e-05
0.00106612
2.78552e-08
3.18651e-05
0.00105505
4.80222e-05
0.00104315
6.41719e-05
0.00103064
8.02237e-05
0.00101666
9.61122e-05
0.00100071
0.00011178
0.0009824
0.000127174
0.000961767
0.000142249
0.000938601
0.000156956
0.000913084
0.000171251
0.000885166
0.000185088
0.000854899
0.000198429
0.00082235
0.000211227
0.000787599
0.000223452
0.00075073
0.000235057
0.00071184
0.000246016
0.000671028
0.000256286
0.000628404
0.000265846
0.00058408
0.000274657
0.000538177
0.000282703
0.000490814
0.00028995
0.000442118
0.000296385
0.000392229
0.000301981
0.000341276
0.000306728
0.000289392
0.000310606
0.000236715
0.000313609
0.000183386
0.000315722
0.000129602
0.00031694
7.51364e-05
2.00744e-05
0.000317255
1.55675e-05
0.00105053
3.38161e-08
3.13775e-05
0.00103925
4.72899e-05
0.00102724
6.31954e-05
0.00101474
7.90049e-05
0.00100085
9.46539e-05
0.000985072
0.000110085
0.000966975
0.000125248
0.000946612
0.000140095
0.000923761
0.000154579
0.000898607
0.000168657
0.000871096
0.000182282
0.00084128
0.000195417
0.000809223
0.000208018
0.000775003
0.000220052
0.000738705
0.000231474
0.000700421
0.00024226
0.000660251
0.000252366
0.0006183
0.000261773
0.00057468
0.000270443
0.000529509
0.000278358
0.000482905
0.000285487
0.00043499
0.000291817
0.000385904
0.000297321
0.000335772
0.00030199
0.000284725
0.000305803
0.0002329
0.000308756
0.000180435
0.000310833
0.000127524
0.000312029
7.39401e-05
1.97667e-05
0.000312338
1.53277e-05
0.00103516
3.94249e-08
3.08982e-05
0.00102368
4.65697e-05
0.00101157
6.2235e-05
0.000999072
7.78057e-05
0.000985279
9.32186e-05
0.000969658
0.000108417
0.000951773
0.00012335
0.000931676
0.000137973
0.000909136
0.000152236
0.000884341
0.000166098
0.000857233
0.000179514
0.000827861
0.000192447
0.00079629
0.000204851
0.000762595
0.000216697
0.000726859
0.000227939
0.000689174
0.000238554
0.000649636
0.000248499
0.00060835
0.000257756
0.000565424
0.000266286
0.000520974
0.000274073
0.000475116
0.000281086
0.000427971
0.000287314
0.000379675
0.000292728
0.000330351
0.00029732
0.00028013
0.000301071
0.000229143
0.000303975
0.000177527
0.000306017
0.000125475
0.000307193
7.27578e-05
1.94547e-05
0.000307497
1.50918e-05
0.00102003
4.4367e-08
3.04266e-05
0.00100835
4.58611e-05
0.000996138
6.12896e-05
0.000983651
7.6625e-05
0.000969949
9.18049e-05
0.000954486
0.000106773
0.000936811
0.00012148
0.000916976
0.00013588
0.000894744
0.000149926
0.000870303
0.000163575
0.000843592
0.000176784
0.000814659
0.000189516
0.000783567
0.000201727
0.00075039
0.000213387
0.000715208
0.000224452
0.000678113
0.000234898
0.000639198
0.000244685
0.000598566
0.000253793
0.000556323
0.000262186
0.000512582
0.000269849
0.000467459
0.000276748
0.000421071
0.000282875
0.000373553
0.000288201
0.000325025
0.000292719
0.000275614
0.000296408
0.000225452
0.000299265
0.000174672
0.000301274
0.000123464
0.000302431
7.16007e-05
1.91567e-05
0.000302729
1.48598e-05
0.00100512
4.84999e-08
2.99626e-05
0.00099325
4.51636e-05
0.000980934
6.03588e-05
0.000968456
7.5462e-05
0.000954843
9.04121e-05
0.000939534
0.000105153
0.000922067
0.000119637
0.000902491
0.000133817
0.000880562
0.000147647
0.00085647
0.000161086
0.000830151
0.000174091
0.000801652
0.000186624
0.000771032
0.000198644
0.000738367
0.000210121
0.000703732
0.000221011
0.000667218
0.000231292
0.000628917
0.000240923
0.00058893
0.000249886
0.000547359
0.000258144
0.000504319
0.000265684
0.000459919
0.000272472
0.000414276
0.0002785
0.000367523
0.00028374
0.000319779
0.000288185
0.000271166
0.000291815
0.000221815
0.000294626
0.000171857
0.000296602
0.00012148
0.000297741
7.04558e-05
1.8853e-05
0.000298036
1.46314e-05
0.000990437
5.17904e-08
2.95057e-05
0.000978384
4.44766e-05
0.00096597
5.94417e-05
0.000953499
7.4316e-05
0.000939975
8.90391e-05
0.000924819
0.000103556
0.000907557
0.000117818
0.000888237
0.000131781
0.000866607
0.000145399
0.00084286
0.000158631
0.000816929
0.000171433
0.000788856
0.000183772
0.000758703
0.000195603
0.000726541
0.000206899
0.000692445
0.000217617
0.000656504
0.000227735
0.000618807
0.000237213
0.000579454
0.000246033
0.000538547
0.000254159
0.000496194
0.000261578
0.000452506
0.000268258
0.000407597
0.000274189
0.000361597
0.000279345
0.000314622
0.000283719
0.000266795
0.000287291
0.000218242
0.000290057
0.000169093
0.000292002
0.000119533
0.000293124
6.9334e-05
1.85615e-05
0.000293415
1.44066e-05
0.000975974
5.43173e-08
2.90558e-05
0.000963736
4.37997e-05
0.000951224
5.85379e-05
0.000938761
7.31862e-05
0.000925324
8.76852e-05
0.000910319
0.000101981
0.000893258
0.000116024
0.000874191
0.000129773
0.000852856
0.000143181
0.00082945
0.000156208
0.000803901
0.000168811
0.00077625
0.000180957
0.000746557
0.000192602
0.000714891
0.000203721
0.000681327
0.00021427
0.000645951
0.000224227
0.00060885
0.000233555
0.000570122
0.000242235
0.000529867
0.000250232
0.000488192
0.000257532
0.000445205
0.000264105
0.000401017
0.000269942
0.000355758
0.000275016
0.000309542
0.00027932
0.000262488
0.000282835
0.00021472
0.000285558
0.000166366
0.000287473
0.000117611
0.000288578
6.82231e-05
1.82634e-05
0.000288867
1.41852e-05
0.000961738
5.6186e-08
2.86124e-05
0.000949317
4.31325e-05
0.00093671
5.76468e-05
0.000924256
7.2072e-05
0.000910905
8.63498e-05
0.00089605
0.000100427
0.000879189
0.000114255
0.000860371
0.000127792
0.000839328
0.000140992
0.000816258
0.000153817
0.000791085
0.000166224
0.000763851
0.00017818
0.000734611
0.000189643
0.000703434
0.000200586
0.000670394
0.000210969
0.000635573
0.000220769
0.000599058
0.000229948
0.000560945
0.000238491
0.000521332
0.000246361
0.000480324
0.000253545
0.000438026
0.000260014
0.000394549
0.000265758
0.000350019
0.000270751
0.000304548
0.000274988
0.000258254
0.000278447
0.000211259
0.000281127
0.000163688
0.000283013
0.000115723
0.000284102
6.71337e-05
1.79763e-05
0.000284389
1.39672e-05
0.000947712
5.75451e-08
2.81754e-05
0.00093511
4.24748e-05
0.000922409
5.67681e-05
0.000909963
7.09731e-05
0.000896697
8.50325e-05
0.000881989
9.88933e-05
0.000865325
0.000112509
0.000846754
0.000125837
0.000825998
0.000138832
0.00080326
0.000151458
0.000778459
0.000163671
0.000751635
0.00017544
0.000722842
0.000186723
0.000692148
0.000197495
0.000659623
0.000207714
0.00062535
0.000217359
0.000589413
0.000226393
0.000551906
0.000234801
0.000512925
0.000242546
0.000472573
0.000249617
0.000430954
0.000255983
0.000388176
0.000261637
0.000344364
0.000266551
0.000299627
0.000270721
0.000254081
0.000274127
0.000207846
0.000276765
0.000161045
0.000278623
0.000113859
0.000279696
6.60541e-05
1.76823e-05
0.000279981
1.37522e-05
0.000933906
5.85183e-08
2.77446e-05
0.000921127
4.18261e-05
0.000908334
5.59014e-05
0.000895897
6.9889e-05
0.000882716
8.37328e-05
0.000868154
9.73805e-05
0.000851685
0.000110786
0.000833357
0.000123908
0.000812885
0.000136702
0.000790475
0.000149131
0.00076604
0.000161154
0.00073962
0.000172738
0.000711267
0.000183845
0.000681048
0.000194447
0.000649031
0.000204505
0.000615296
0.000213998
0.000579928
0.00022289
0.000543017
0.000231165
0.000504658
0.000238788
0.000464952
0.000245747
0.000424001
0.000252013
0.00038191
0.000257578
0.000338804
0.000262415
0.000294789
0.00026652
0.000249979
0.000269872
0.000204492
0.000272471
0.000158448
0.0002743
0.000112027
0.000275359
6.49947e-05
1.73985e-05
0.000275642
1.35405e-05
0.000920305
5.92336e-08
2.73199e-05
0.000907349
4.11863e-05
0.000894466
5.50464e-05
0.000882038
6.88195e-05
0.000868941
8.24506e-05
0.000854522
9.5888e-05
0.000838245
0.000109086
0.000820157
0.000122005
0.000799966
0.0001346
0.000777877
0.000146836
0.000753804
0.000158671
0.000727783
0.000170074
0.000699864
0.000181006
0.000670113
0.000191442
0.000638596
0.000201342
0.000605393
0.000210686
0.000570584
0.000219438
0.000534261
0.000227583
0.000496514
0.000235085
0.000457444
0.000241936
0.00041715
0.000248103
0.000375737
0.000253581
0.000333325
0.000258342
0.000290021
0.000262384
0.000245935
0.000265684
0.000201184
0.000268243
0.000155886
0.000270045
0.000110217
0.00027109
6.39444e-05
1.71078e-05
0.000271372
1.33316e-05
0.000906919
5.97701e-08
2.69009e-05
0.000893789
4.05553e-05
0.000880818
5.4203e-05
0.0008684
6.77644e-05
0.000855386
8.11856e-05
0.00084111
9.44155e-05
0.000825023
0.00010741
0.000807171
0.000120128
0.000787257
0.000132527
0.000765487
0.000144572
0.00074177
0.000156222
0.00071614
0.000167447
0.000688649
0.000178208
0.000659358
0.00018848
0.000628334
0.000198225
0.000595653
0.000207422
0.000561395
0.000216037
0.000525649
0.000224054
0.000488505
0.000231439
0.00045006
0.000238182
0.000410413
0.000244252
0.000369666
0.000249645
0.000327938
0.000254332
0.000285332
0.000258311
0.000241959
0.000261561
0.000197932
0.000264081
0.000153367
0.000265857
0.000108439
0.000266887
6.29134e-05
1.68268e-05
0.000267167
1.31258e-05
0.000893732
6.02036e-08
2.64878e-05
0.000880429
3.99328e-05
0.000867372
5.3371e-05
0.000854963
6.67236e-05
0.000842031
7.99377e-05
0.000827896
9.2963e-05
0.000811996
0.000105756
0.000794377
0.000118276
0.000774735
0.000130483
0.000753278
0.00014234
0.000729913
0.000153808
0.00070467
0.000164858
0.0006776
0.00017545
0.000648763
0.000185561
0.000618223
0.000195153
0.000586058
0.000204207
0.000552342
0.000212686
0.000517165
0.000220578
0.000480614
0.000227847
0.000442785
0.000234485
0.000403775
0.000240461
0.000363683
0.00024577
0.000322628
0.000250384
0.000280711
0.000254302
0.000238039
0.000257502
0.000194724
0.000259984
0.000150881
0.000261734
0.000106682
0.000262751
6.1891e-05
1.65391e-05
0.00026303
1.29228e-05
0.000880754
6.05643e-08
2.60803e-05
0.000867281
3.93189e-05
0.00085414
5.25503e-05
0.000841742
6.56969e-05
0.000828892
7.87069e-05
0.000814895
9.15304e-05
0.00079918
0.000104125
0.000781792
0.000116451
0.000762419
0.000128467
0.000741271
0.000140139
0.000718251
0.000151428
0.000693389
0.000162306
0.000666733
0.000172732
0.000638343
0.000182686
0.00060828
0.000192127
0.000576621
0.000201039
0.000543439
0.000209386
0.000508821
0.000217154
0.000472854
0.00022431
0.000435631
0.000230845
0.000397247
0.000236728
0.0003578
0.000241954
0.000317407
0.000246497
0.000276166
0.000250355
0.000234184
0.000253506
0.00019157
0.000255952
0.000148437
0.000257676
0.000104954
0.000258679
6.08869e-05
1.62607e-05
0.000258956
1.27227e-05
0.00086797
6.08851e-08
2.56785e-05
0.000854327
3.87134e-05
0.000841104
5.17409e-05
0.000828716
6.46843e-05
0.000815946
7.74929e-05
0.000802086
9.01176e-05
0.000786554
0.000102516
0.000769392
0.00011465
0.000750283
0.00012648
0.00072944
0.00013797
0.000706761
0.000149083
0.000682274
0.000159791
0.000656027
0.000170054
0.000628076
0.000179852
0.000598484
0.000189146
0.000567323
0.00019792
0.000534667
0.000206136
0.0005006
0.000213783
0.000465207
0.000220828
0.000428581
0.000227261
0.000390814
0.000233052
0.000352002
0.000238198
0.00031226
0.000242671
0.000271687
0.00024647
0.000230384
0.000249574
0.00018846
0.000251983
0.000146025
0.000253682
0.000103247
0.000254672
5.98912e-05
1.59761e-05
0.000254948
1.25254e-05
0.000855389
6.11653e-08
2.52822e-05
0.000841581
3.81162e-05
0.000828277
5.09426e-05
0.0008159
6.36858e-05
0.000803211
7.62959e-05
0.000789486
8.87246e-05
0.000774133
0.000100931
0.000757196
0.000112876
0.000738348
0.000124521
0.000717805
0.000135832
0.00069546
0.000146772
0.000671343
0.000157313
0.000645497
0.000167416
0.000617979
0.000177061
0.000588849
0.00018621
0.000558179
0.000194847
0.00052604
0.000202935
0.000492515
0.000210464
0.000457687
0.000217399
0.000421647
0.000223732
0.000384487
0.000229434
0.000346299
0.000234501
0.000307199
0.000238905
0.00026728