/*--------------------------------*- C++ -*----------------------------------*\
  =========                 |
  \\      /  F ield         | OpenFOAM: The Open Source CFD Toolbox
   \\    /   O peration     | Website:  https://openfoam.org
    \\  /    A nd           | Version:  6.0
     \\/     M anipulation  |
\*---------------------------------------------------------------------------*/
FoamFile
{
    version     2.0;
    format      ascii;
    class       surfaceScalarField;
    location    "16";
    object      phi;
}
// * * * * * * * * * * * * * * * * * * * * * * * * * * * * * * * * * * * * * //

dimensions      [0 3 -1 0 0 0 0];

internalField   nonuniform List<scalar> 
123526
(
2.77456e-05
2.33224e-05
-2.735e-05
2.8173e-05
2.5213e-05
2.86341e-05
2.72565e-05
2.91332e-05
2.94653e-05
2.96717e-05
3.18527e-05
3.02548e-05
3.44328e-05
3.08842e-05
3.72213e-05
3.15659e-05
4.02346e-05
3.23029e-05
4.349e-05
3.31017e-05
4.70082e-05
3.39644e-05
5.08103e-05
3.48985e-05
5.49184e-05
3.59076e-05
5.93567e-05
3.70025e-05
6.4149e-05
3.81886e-05
6.93247e-05
3.94727e-05
7.49179e-05
4.08603e-05
8.0958e-05
4.23684e-05
8.74738e-05
4.40017e-05
9.45108e-05
4.57692e-05
0.00010211
4.76861e-05
0.000110303
4.97662e-05
0.000119144
5.20139e-05
0.000128685
5.4458e-05
0.00013896
5.7101e-05
0.000150044
5.99656e-05
0.00016198
6.30694e-05
0.000174831
6.64271e-05
0.000188666
7.00654e-05
0.000203535
7.39975e-05
0.000219522
7.82543e-05
0.000236674
8.28532e-05
0.000255074
8.78259e-05
0.000274775
9.31969e-05
0.000295843
9.89897e-05
0.000318339
0.000105237
0.000342298
0.00011196
0.000367767
0.00011919
0.000394748
0.000126962
0.000423229
0.000135299
0.000453171
0.000144231
0.000484481
0.000153784
0.000517009
0.000163978
0.000550538
0.000174826
0.00058475
0.000186335
0.00061921
0.000198501
0.00065333
0.000211305
0.000686338
0.000224707
0.000717231
0.000238646
0.000744719
0.000253025
0.00076717
0.000267713
0.000782532
0.000282526
0.000788242
0.000297229
0.000781155
0.000311508
0.000757452
0.000324961
0.000712608
0.000337084
0.000641306
0.000347274
0.000537539
0.000354517
0.000394765
0.000358289
0.000208631
-2.42613e-05
0.000366509
2.72778e-05
2.29353e-05
-2.68895e-05
2.76974e-05
2.47946e-05
2.81501e-05
2.68043e-05
2.86401e-05
2.89764e-05
2.9169e-05
3.13241e-05
2.97416e-05
3.38613e-05
3.03599e-05
3.66031e-05
3.10294e-05
3.95659e-05
3.17536e-05
4.27658e-05
3.25383e-05
4.62242e-05
3.33859e-05
4.99625e-05
3.43035e-05
5.40014e-05
3.52948e-05
5.83649e-05
3.63703e-05
6.30741e-05
3.75354e-05
6.81591e-05
3.87965e-05
7.36573e-05
4.01594e-05
7.95947e-05
4.16404e-05
8.59935e-05
4.32444e-05
9.29064e-05
4.498e-05
0.000100375
4.68626e-05
0.000108421
4.8905e-05
0.000117102
5.11124e-05
0.000126477
5.35121e-05
0.00013656
5.61077e-05
0.000147448
5.89205e-05
0.000159167
6.19687e-05
0.000171783
6.52663e-05
0.000185368
6.88404e-05
0.00019996
7.27035e-05
0.000215658
7.68862e-05
0.000232491
8.14048e-05
0.000250555
8.62882e-05
0.00026989
9.15613e-05
0.000290568
9.72491e-05
0.000312649
0.000103386
0.000336159
0.000109993
0.000361158
0.000117101
0.000387638
0.00012474
0.000415587
0.000132935
0.000444972
0.000141714
0.000475698
0.000151103
0.000507615
0.00016112
0.000540515
0.000171777
0.000574085
0.000183083
0.000607895
0.000195031
0.000641371
0.000207604
0.000673754
0.000220762
0.000704058
0.000234444
0.000731021
0.000248557
0.000753037
0.000262971
0.000768099
0.000277508
0.00077368
0.000291935
0.00076671
0.000305942
0.000743431
0.000319139
0.000699406
0.000331027
0.000629414
0.000341042
0.000527532
0.00034831
0.000387516
0.000351906
0.00020509
-2.43943e-05
0.000352106
2.6884e-05
2.25548e-05
-2.65023e-05
2.72963e-05
2.43834e-05
2.77409e-05
2.636e-05
2.82221e-05
2.84963e-05
2.87414e-05
3.08051e-05
2.93034e-05
3.33001e-05
2.99104e-05
3.59963e-05
3.05675e-05
3.89096e-05
3.12782e-05
4.2055e-05
3.20483e-05
4.54548e-05
3.28801e-05
4.91304e-05
3.37806e-05
5.31015e-05
3.47536e-05
5.73916e-05
3.5809e-05
6.20192e-05
3.69526e-05
6.70152e-05
3.81904e-05
7.24201e-05
3.95283e-05
7.82566e-05
4.09821e-05
8.45404e-05
4.2557e-05
9.13314e-05
4.4261e-05
9.86716e-05
4.61096e-05
0.000106572
4.81152e-05
0.000115097
5.0283e-05
0.00012431
5.26398e-05
0.000134204
5.51891e-05
0.000144899
5.79519e-05
0.000156405
6.09461e-05
0.000168788
6.41854e-05
0.000182129
6.76964e-05
0.000196449
7.14915e-05
0.000211863
7.56005e-05
0.000228381
8.00392e-05
0.000246116
8.48359e-05
0.000265092
9.00147e-05
0.000285389
9.56001e-05
0.000307063
0.000101627
0.000330132
0.000108116
0.000354669
0.000115097
0.000380655
0.000122601
0.000408082
0.00013065
0.000436921
0.000139273
0.000467074
0.000148493
0.000498393
0.000158329
0.000530676
0.000168793
0.000563617
0.000179893
0.000596792
0.000191623
0.000629637
0.000203964
0.000661408
0.000216877
0.000691139
0.000230304
0.00071759
0.00024415
0.000739186
0.000258293
0.000753954
0.000272553
0.000759416
0.000286707
0.000752559
0.000300447
0.000729694
0.000313395
0.000686469
0.000325055
0.000617763
0.00033488
0.000517725
0.000342083
0.000380326
0.00034585
0.00020134
-2.58086e-05
0.000347304
2.65059e-05
2.2181e-05
-2.6131e-05
2.69108e-05
2.39795e-05
2.73476e-05
2.59236e-05
2.78203e-05
2.80246e-05
2.83304e-05
3.02952e-05
2.88827e-05
3.27489e-05
2.94789e-05
3.54002e-05
3.01245e-05
3.82649e-05
3.08227e-05
4.13568e-05
3.15791e-05
4.4699e-05
3.23963e-05
4.8313e-05
3.32808e-05
5.22176e-05
3.42364e-05
5.64356e-05
3.52731e-05
6.0983e-05
3.63963e-05
6.58916e-05
3.76121e-05
7.1205e-05
3.8926e-05
7.69423e-05
4.03539e-05
8.31132e-05
4.19006e-05
8.97846e-05
4.35742e-05
9.69988e-05
4.53898e-05
0.000104756
4.73596e-05
0.000113128
4.94888e-05
0.00012218
5.18036e-05
0.000131889
5.43076e-05
0.000142395
5.70212e-05
0.000153691
5.99621e-05
0.000165848
6.31438e-05
0.000178947
6.65922e-05
0.000193001
7.03195e-05
0.000208135
7.43549e-05
0.000224346
7.8714e-05
0.000241756
8.34246e-05
0.000260381
8.85101e-05
0.000280303
9.39945e-05
0.000301578
9.99118e-05
0.000324215
0.000106282
0.000348299
0.000113137
0.000373801
0.000120504
0.000400714
0.000128407
0.000429018
0.000136872
0.000458608
0.000145924
0.00048934
0.00015558
0.000521019
0.000165853
0.000553342
0.000176748
0.000585895
0.000188261
0.000618122
0.000200372
0.000649294
0.000213044
0.000678463
0.000226219
0.000704411
0.000239804
0.000725594
0.00025368
0.000740073
0.000267669
0.000745417
0.000281557
0.00073867
0.000295039
0.000716215
0.000307747
0.00067377
0.000319195
0.000606328
0.000328838
0.000508104
0.000335975
0.000373224
0.000339791
0.000197597
-2.63574e-05
0.000340439
2.61227e-05
2.18141e-05
-2.57544e-05
2.65204e-05
2.35831e-05
2.69493e-05
2.54951e-05
2.74136e-05
2.75614e-05
2.79145e-05
2.97945e-05
2.84569e-05
3.22075e-05
2.90425e-05
3.48148e-05
2.96766e-05
3.76317e-05
3.03623e-05
4.0671e-05
3.11054e-05
4.39567e-05
3.1908e-05
4.75103e-05
3.27769e-05
5.13493e-05
3.37157e-05
5.54966e-05
3.47341e-05
5.99652e-05
3.58375e-05
6.4788e-05
3.70318e-05
7.00113e-05
3.83227e-05
7.56513e-05
3.97253e-05
8.17113e-05
4.12448e-05
8.82651e-05
4.28887e-05
9.53555e-05
4.46722e-05
0.000102973
4.66071e-05
0.000111194
4.86986e-05
0.000120089
5.09722e-05
0.000129616
5.34317e-05
0.000139935
5.6097e-05
0.000151026
5.89854e-05
0.000162959
6.21102e-05
0.000175823
6.54968e-05
0.000189615
6.91572e-05
0.000204475
7.31198e-05
0.000220383
7.74003e-05
0.000237476
8.20258e-05
0.000255755
8.70196e-05
0.000275309
9.24047e-05
0.000296193
9.82145e-05
0.000318405
0.000104469
0.000342044
0.000111199
0.000367072
0.000118432
0.000393482
0.000126191
0.000421258
0.000134502
0.000450297
0.000143388
0.000480453
0.000152868
0.000511539
0.000162953
0.000543257
0.000173648
0.000575199
0.000184948
0.000606821
0.000196835
0.000637406
0.000209271
0.000666025
0.000222199
0.000691482
0.000235529
0.000712262
0.000249145
0.000726459
0.000262871
0.00073169
0.0002765
0.000725047
0.000289734
0.000702986
0.000302212
0.000661303
0.000313458
0.000595091
0.000322928
0.00049865
0.000329979
0.000366182
0.000333823
0.000193764
-2.64294e-05
0.000333921
2.57381e-05
2.14539e-05
-2.53769e-05
2.61284e-05
2.31938e-05
2.65494e-05
2.50744e-05
2.70052e-05
2.71066e-05
2.74971e-05
2.93028e-05
2.80297e-05
3.16759e-05
2.86048e-05
3.42399e-05
2.92274e-05
3.70098e-05
2.99009e-05
3.99975e-05
3.06305e-05
4.32277e-05
3.14187e-05
4.67218e-05
3.2272e-05
5.04966e-05
3.3194e-05
5.45742e-05
3.41941e-05
5.89656e-05
3.52778e-05
6.37039e-05
3.64509e-05
6.88388e-05
3.77188e-05
7.43832e-05
3.90965e-05
8.03341e-05
4.0589e-05
8.67725e-05
4.22039e-05
9.37413e-05
4.39557e-05
0.000101221
4.58563e-05
0.000109294
4.79106e-05
0.000118035
5.01439e-05
0.000127383
5.25595e-05
0.00013752
5.51773e-05
0.000148409
5.80141e-05
0.000160123
6.1083e-05
0.000172754
6.44089e-05
0.000186289
6.80035e-05
0.000200881
7.18948e-05
0.000216492
7.60981e-05
0.000233272
8.06403e-05
0.000251213
8.5544e-05
0.000270405
9.0832e-05
0.000290906
9.65368e-05
0.000312701
0.000102678
0.000335904
0.000109285
0.000360465
0.000116387
0.00038638
0.000124006
0.000413641
0.000132165
0.000442138
0.00014089
0.000471729
0.000150197
0.000502233
0.000160098
0.000533357
0.000170596
0.0005647
0.000181689
0.000595728
0.000193356
0.000625739
0.000205561
0.000653819
0.000218249
0.000678794
0.000231331
0.000699178
0.000244693
0.000713096
0.000258164
0.000718214
0.000271542
0.000711673
0.000284534
0.000690002
0.000296787
0.000649065
0.000307835
0.000584059
0.000317135
0.000489376
0.000324075
0.000359281
0.000327944
0.00018997
-2.62411e-05
0.000327865
2.5354e-05
2.11003e-05
-2.49993e-05
2.57373e-05
2.28117e-05
2.61507e-05
2.46614e-05
2.65982e-05
2.66601e-05
2.70812e-05
2.882e-05
2.76042e-05
3.11538e-05
2.81689e-05
3.36753e-05
2.87805e-05
3.63991e-05
2.94419e-05
3.93361e-05
3.01586e-05
4.25117e-05
3.09328e-05
4.59475e-05
3.17709e-05
4.96591e-05
3.26765e-05
5.36684e-05
3.36588e-05
5.79838e-05
3.47233e-05
6.26393e-05
3.58754e-05
6.76873e-05
3.71208e-05
7.31377e-05
3.8474e-05
7.89816e-05
3.994e-05
8.53065e-05
4.15261e-05
9.21559e-05
4.32469e-05
9.95002e-05
4.51137e-05
0.000107427
4.71315e-05
0.000116017
4.9325e-05
0.00012519
5.16977e-05
0.000135147
5.42688e-05
0.000145838
5.7055e-05
0.000157337
6.00689e-05
0.00016974
6.33353e-05
0.000183023
6.68653e-05
0.000197351
7.06867e-05
0.000212671
7.48145e-05
0.000229145
7.92748e-05
0.000246753
8.40903e-05
0.00026559
8.92831e-05
0.000285713
9.48849e-05
0.0003071
0.000100915
0.000329874
0.000107403
0.000353978
0.000114376
0.000379408
0.000121856
0.000406161
0.000129867
0.000434127
0.000138433
0.000463163
0.00014757
0.000493096
0.000157289
0.000523638
0.000167596
0.000554393
0.000178484
0.00058484
0.000189936
0.000614287
0.000201915
0.000641838
0.000214369
0.000666341
0.000227208
0.000686336
0.000240325
0.000699981
0.000253548
0.000704988
0.00026668
0.000698544
0.000279437
0.000677249
0.000291469
0.000637042
0.000302323
0.000573211
0.000311458
0.000480252
0.000318271
0.00035247
0.000322131
0.000186113
-2.62198e-05
0.000322121
2.49699e-05
2.07532e-05
-2.4622e-05
2.5346e-05
2.24365e-05
2.57517e-05
2.42559e-05
2.6191e-05
2.62217e-05
2.66652e-05
2.83459e-05
2.71788e-05
3.06411e-05
2.77335e-05
3.31207e-05
2.83343e-05
3.57991e-05
2.89841e-05
3.86861e-05
2.96883e-05
4.18081e-05
3.04491e-05
4.51864e-05
3.12726e-05
4.8836e-05
3.21624e-05
5.27782e-05
3.31276e-05
5.7019e-05
3.41734e-05
6.15931e-05
3.53054e-05
6.65558e-05
3.65289e-05
7.19139e-05
3.78584e-05
7.76527e-05
3.92986e-05
8.38662e-05
4.08568e-05
9.05983e-05
4.25472e-05
9.78098e-05
4.4381e-05
0.000105594
4.63632e-05
0.000114035
4.85178e-05
0.000123036
5.08484e-05
0.000132817
5.33737e-05
0.000143313
5.61103e-05
0.0001546
5.90705e-05
0.000166781
6.22784e-05
0.000179815
6.57453e-05
0.000193884
6.94981e-05
0.000208918
7.35516e-05
0.000225091
7.79319e-05
0.000242373
8.26605e-05
0.000260861
8.77597e-05
0.000280614
9.32603e-05
0.0003016
9.91814e-05
0.000323954
0.000105551
0.000347609
0.000112397
0.000372563
0.000119741
0.000398818
0.000127607
0.000426263
0.000136016
0.000454754
0.000144986
0.000484128
0.000154527
0.000514098
0.000164644
0.000544277
0.000175331
0.000574153
0.000186573
0.000603046
0.000198332
0.000630079
0.000210556
0.000654118
0.00022316
0.000673731
0.000236037
0.000687106
0.000249019
0.000692002
0.000261914
0.000685655
0.000274441
0.000664732
0.000286258
0.000625241
0.000296921
0.000562567
0.000305895
0.000471304
0.000312581
0.000345824
0.000316392
0.000182379
-2.62305e-05
0.000316513
2.45875e-05
2.04127e-05
-2.42458e-05
2.49568e-05
2.20685e-05
2.5355e-05
2.3858e-05
2.57863e-05
2.57915e-05
2.62518e-05
2.78806e-05
2.67562e-05
3.01378e-05
2.73008e-05
3.25762e-05
2.78908e-05
3.52099e-05
2.85291e-05
3.80478e-05
2.92209e-05
4.1117e-05
2.99684e-05
4.44389e-05
3.07776e-05
4.80274e-05
3.1652e-05
5.19036e-05
3.26006e-05
5.6071e-05
3.36284e-05
6.05651e-05
3.47407e-05
6.5444e-05
3.59431e-05
7.07114e-05
3.72494e-05
7.6347e-05
3.86645e-05
8.24511e-05
4.01955e-05
8.9068e-05
4.18563e-05
9.6149e-05
4.36579e-05
0.000103793
4.56051e-05
0.000112088
4.77217e-05
0.00012092
5.00111e-05
0.000130528
5.24917e-05
0.000140833
5.51796e-05
0.000151913
5.8087e-05
0.000163873
6.12377e-05
0.000176665
6.46425e-05
0.00019048
6.83281e-05
0.000205233
7.23088e-05
0.00022111
7.66101e-05
0.000238071
8.12537e-05
0.000256217
8.62609e-05
0.000275607
9.16621e-05
0.000296199
9.74758e-05
0.00031814
0.00010373
0.000341356
0.000110451
0.000365842
0.000117661
0.000391609
0.000125383
0.000418542
0.000133638
0.000446499
0.000142443
0.000475323
0.000151809
0.000504732
0.00016174
0.000534346
0.000172232
0.000563661
0.000183266
0.000592011
0.00019481
0.000618534
0.000206811
0.000642117
0.000219187
0.000661353
0.00023183
0.000674463
0.000244579
0.000679249
0.000257242
0.000672993
0.000269547
0.000652429
0.000281153
0.000613639
0.00029163
0.000552093
0.000300449
0.00046249
0.000307011
0.000339258
0.000310748
0.000178637
-2.64452e-05
0.000310954
2.42094e-05
2.00784e-05
-2.38744e-05
2.45718e-05
2.17072e-05
2.49627e-05
2.34673e-05
2.53862e-05
2.53689e-05
2.58434e-05
2.74236e-05
2.63387e-05
2.96434e-05
2.68736e-05
3.20413e-05
2.74532e-05
3.46311e-05
2.80801e-05
3.74207e-05
2.87597e-05
4.04379e-05
2.94939e-05
4.37043e-05
3.0289e-05
4.72328e-05
3.11481e-05
5.10441e-05
3.20802e-05
5.51393e-05
3.30901e-05
5.95548e-05
3.41832e-05
6.43514e-05
3.53646e-05
6.95297e-05
3.66483e-05
7.50638e-05
3.80388e-05
8.10605e-05
3.95431e-05
8.75643e-05
4.11748e-05
9.45172e-05
4.29449e-05
0.000102024
4.48579e-05
0.000110175
4.69371e-05
0.000118841
4.9186e-05
0.000128279
5.16226e-05
0.000138397
5.42628e-05
0.000149273
5.71184e-05
0.000161018
6.02128e-05
0.000173571
6.35566e-05
0.000187136
6.71761e-05
0.000201614
7.10852e-05
0.000217201
7.53092e-05
0.000233847
7.98689e-05
0.000251658
8.47857e-05
0.000270691
9.00891e-05
0.000290896
9.57974e-05
0.000312433
0.000101938
0.000335216
0.000108537
0.000359244
0.000115615
0.000384532
0.000123195
0.000410962
0.000131299
0.000438396
0.000139943
0.00046668
0.000149137
0.00049554
0.000158886
0.000524599
0.000169185
0.000553363
0.000180018
0.00058118
0.000191352
0.000607201
0.000203136
0.000630335
0.000215288
0.0006492
0.000227705
0.000662049
0.000240227
0.000666725
0.000252665
0.00066056
0.000264753
0.000640351
0.000276155
0.000602252
0.000286449
0.000541817
0.000295117
0.000453848
0.000301563
0.00033285
0.000305215
0.000175056
-2.65604e-05
0.000305438
2.38404e-05
1.97501e-05
-2.35112e-05
2.41965e-05
2.13522e-05
2.45807e-05
2.30834e-05
2.49969e-05
2.49537e-05
2.54461e-05
2.69745e-05
2.59327e-05
2.91577e-05
2.64582e-05
3.15159e-05
2.70275e-05
3.40627e-05
2.76432e-05
3.68049e-05
2.83106e-05
3.97712e-05
2.90317e-05
4.2983e-05
2.98126e-05
4.64525e-05
3.06564e-05
5.02e-05
3.1572e-05
5.42243e-05
3.2564e-05
5.85625e-05
3.36378e-05
6.32781e-05
3.47985e-05
6.83689e-05
3.60595e-05
7.38034e-05
3.74255e-05
7.96945e-05
3.89032e-05
8.60872e-05
4.05062e-05
9.29143e-05
4.22449e-05
0.000100286
4.4124e-05
0.000108296
4.61663e-05
0.000116799
4.83752e-05
0.00012607
5.07684e-05
0.000136004
5.33613e-05
0.00014668
5.61658e-05
0.000158214
5.92047e-05
0.000170532
6.24885e-05
0.000183853
6.60428e-05
0.00019806
6.98816e-05
0.000213363
7.40292e-05
0.000229699
7.85067e-05
0.00024718
8.33345e-05
0.000265863
8.85418e-05
0.000285689
9.41465e-05
0.000306829
0.000100175
0.000329188
0.000106654
0.000352766
0.000113603
0.000377584
0.000121045
0.000403521
0.000129001
0.00043044
0.000137487
0.000458195
0.000146512
0.000486514
0.000156083
0.000515028
0.000166195
0.000543251
0.000176832
0.000570543
0.00018796
0.000596071
0.000199532
0.000618762
0.000211468
0.000637261
0.000223664
0.000649852
0.000235964
0.000654419
0.000248183
0.000648341
0.000260059
0.000628476
0.000271261
0.000591051
0.000281376
0.000531701
0.000289896
0.000445329
0.000296231
0.000326506
0.0002998
0.000171474
-2.67717e-05
0.000299988
2.34854e-05
1.94271e-05
-2.3162e-05
2.38356e-05
2.10029e-05
2.42134e-05
2.27057e-05
2.46227e-05
2.45453e-05
2.50643e-05
2.65329e-05
2.55427e-05
2.86801e-05
2.60591e-05
3.09995e-05
2.66185e-05
3.3504e-05
2.72234e-05
3.61998e-05
2.78789e-05
3.91161e-05
2.85871e-05
4.22745e-05
2.93538e-05
4.56862e-05
3.01823e-05
4.9371e-05
3.10812e-05
5.33258e-05
3.20552e-05
5.75881e-05
3.31096e-05
6.22241e-05
3.42493e-05
6.72289e-05
3.54876e-05
7.25656e-05
3.68289e-05
7.8353e-05
3.82801e-05
8.46366e-05
3.98542e-05
9.13402e-05
4.15617e-05
9.85786e-05
4.3407e-05
0.000106451
4.54126e-05
0.000114794
4.75817e-05
0.000123901
4.99317e-05
0.000133654
5.2478e-05
0.000144134
5.52319e-05
0.00015546
5.82159e-05
0.000167549
6.14403e-05
0.000180628
6.49304e-05
0.00019457
6.86997e-05
0.000209593
7.27724e-05
0.000225627
7.71686e-05
0.000242784
8.19089e-05
0.000261123
8.70218e-05
0.000280577
9.25247e-05
0.000301326
9.84439e-05
0.000323269
0.000104805
0.000346406
0.000111627
0.000370762
0.000118933
0.000396216
0.000126745
0.00042263
0.000135076
0.000449865
0.000143937
0.000477653
0.000153335
0.000505632
0.000163263
0.000533323
0.000173708
0.0005601
0.000184637
0.000585143
0.000196002
0.000607399
0.000207726
0.000625538
0.000219707
0.000637874
0.00023179
0.000642333
0.000243794
0.000636342
0.000255463
0.000616818
0.00026647
0.000580059
0.000276409
0.00052178
0.000284783
0.000436979
0.000291011
0.000320315
0.0002945
0.000168054
-2.67959e-05
0.000294628
2.31494e-05
1.91093e-05
-2.28305e-05
2.34943e-05
2.06593e-05
2.38661e-05
2.23342e-05
2.42689e-05
2.41437e-05
2.47031e-05
2.60987e-05
2.51735e-05
2.82108e-05
2.5681e-05
3.0492e-05
2.62306e-05
3.29552e-05
2.68247e-05
3.56056e-05
2.74686e-05
3.8473e-05
2.81639e-05
4.15791e-05
2.89166e-05
4.49341e-05
2.97298e-05
4.85575e-05
3.0612e-05
5.2444e-05
3.15679e-05
5.66319e-05
3.26027e-05
6.11899e-05
3.37212e-05
6.61103e-05
3.49366e-05
7.13508e-05
3.62532e-05
7.70364e-05
3.76776e-05
8.32128e-05
3.92227e-05
8.97951e-05
4.08988e-05
9.69031e-05
4.27103e-05
0.000104639
4.46792e-05
0.000112826
4.68086e-05
0.000121772
4.91158e-05
0.000131347
5.16156e-05
0.000141634
5.43193e-05
0.000152757
5.7249e-05
0.000164619
6.04148e-05
0.000177463
6.38413e-05
0.000191143
6.75422e-05
0.000205893
7.15406e-05
0.000221628
7.58571e-05
0.000238468
8.05112e-05
0.000256469
8.55312e-05
0.000275557
9.09343e-05
0.000295924
9.6746e-05
0.000317458
0.000102991
0.000340162
0.00010969
0.000364064
0.000116863
0.000389043
0.000124533
0.000414961
0.000132713
0.000441685
0.000141414
0.000468952
0.000150642
0.000496404
0.000160392
0.000523573
0.00017065
0.000549841
0.000181384
0.000574407
0.000192548
0.000596235
0.000204064
0.000614018
0.000215834
0.000626103
0.000227706
0.000630455
0.000239499
0.000624546
0.000250964
0.000605352
0.000261778
0.000569245
0.000271544
0.000512011
0.000279774
0.000428746
0.000285897
0.000314179
0.00028931
0.000164621
-2.68943e-05
0.00028937
2.28342e-05
1.87963e-05
-2.25206e-05
2.31736e-05
2.03209e-05
2.35393e-05
2.19685e-05
2.39354e-05
2.37486e-05
2.43624e-05
2.56717e-05
2.48248e-05
2.77493e-05
2.53236e-05
2.99931e-05
2.58638e-05
3.24159e-05
2.64475e-05
3.50216e-05
2.70798e-05
3.78412e-05
2.77625e-05
4.0896e-05
2.85014e-05
4.41956e-05
2.92995e-05
4.7759e-05
3.01652e-05
5.15786e-05
3.11031e-05
5.56935e-05
3.21184e-05
6.0175e-05
3.32158e-05
6.50126e-05
3.44083e-05
7.01588e-05
3.57e-05
7.57445e-05
3.70977e-05
8.18157e-05
3.86139e-05
8.82789e-05
4.02586e-05
9.52588e-05
4.20364e-05
0.000102862
4.39687e-05
0.000110894
4.60586e-05
0.000119682
4.83231e-05
0.000129083
5.07768e-05
0.000139181
5.34307e-05
0.000150103
5.63066e-05
0.000161744
5.94143e-05
0.000174355
6.27781e-05
0.00018778
6.64111e-05
0.00020226
7.03368e-05
0.000217703
7.45744e-05
0.00023423
7.91438e-05
0.0002519
8.40725e-05
0.000270629
8.93774e-05
0.00029062
9.50836e-05
0.000311753
0.000101216
0.00033403
0.000107793
0.000357488
0.000114836
0.000382
0.000122367
0.000407431
0.0001304
0.000433654
0.000138945
0.000460408
0.000148007
0.000487343
0.000157583
0.000513998
0.000167658
0.000539768
0.000178202
0.000563864
0.000189168
0.00058527
0.000200482
0.000602704
0.000212045
0.000614543
0.000223708
0.000618789
0.000235295
0.000612964
0.000246559
0.000594099
0.000257184
0.000558634
0.000266779
0.000502432
0.000274866
0.000420681
0.000280883
0.000308196
0.000284222
0.000161347
-2.6792e-05
0.000284219
2.25395e-05
1.84883e-05
-2.22307e-05
2.28734e-05
1.99882e-05
2.3233e-05
2.16091e-05
2.36224e-05
2.33602e-05
2.4042e-05
2.52521e-05
2.44964e-05
2.72959e-05
2.49865e-05
2.95031e-05
2.55172e-05
3.1886e-05
2.60904e-05
3.44482e-05
2.67115e-05
3.72208e-05
2.73819e-05
4.02255e-05
2.81073e-05
4.34707e-05
2.88906e-05
4.69753e-05
2.97402e-05
5.07296e-05
3.06605e-05
5.4773e-05
3.16566e-05
5.91795e-05
3.27331e-05
6.39359e-05
3.39028e-05
6.89896e-05
3.51699e-05
7.44773e-05
3.6541e-05
8.04452e-05
3.80284e-05
8.67915e-05
3.9642e-05
9.36457e-05
4.13861e-05
0.000101118
4.3282e-05
0.000108998
4.53328e-05
0.000117631
4.75549e-05
0.000126861
4.99629e-05
0.000136773
5.25675e-05
0.000147499
5.53901e-05
0.000158921
5.84404e-05
0.000171305
6.17422e-05
0.000184478
6.53087e-05
0.000198693
6.91622e-05
0.000213849
7.33225e-05
0.00023007
7.78085e-05
0.000247414
8.26475e-05
0.000265791
8.7856e-05
0.000285412
9.34587e-05
0.000306151
9.94797e-05
0.00032801
0.000105938
0.00035103
0.000112855
0.000375084
0.00012025
0.000400036
0.000128138
0.000425765
0.00013653
0.000452017
0.000145431
0.000478442
0.000154836
0.000504592
0.000164732
0.000529871
0.00017509
0.000553504
0.000185863
0.000574496
0.000196978
0.000591586
0.000208338
0.000603181
0.000219797
0.000607323
0.00023118
0.000601577
0.000242246
0.000583031
0.000252683
0.000548194
0.00026211
0.000493001
0.000270055
0.000412728
0.000275967
0.000302267
0.000279233
0.000158055
-2.67791e-05
0.000279171
2.22623e-05
1.81854e-05
-2.19592e-05
2.25904e-05
1.96611e-05
2.29436e-05
2.12559e-05
2.33261e-05
2.29786e-05
2.37383e-05
2.48398e-05
2.41847e-05
2.68503e-05
2.46661e-05
2.90215e-05
2.51873e-05
3.13655e-05
2.57504e-05
3.38848e-05
2.63604e-05
3.66114e-05
2.70187e-05
3.95668e-05
2.77309e-05
4.27588e-05
2.84999e-05
4.62059e-05
2.93338e-05
4.9896e-05
3.02368e-05
5.38695e-05
3.12142e-05
5.82026e-05
3.22703e-05
6.28794e-05
3.34178e-05
6.78426e-05
3.46608e-05
7.32342e-05
3.60057e-05
7.91008e-05
3.74647e-05
8.53324e-05
3.90476e-05
9.20633e-05
4.07587e-05
9.94065e-05
4.26187e-05
0.000107139
4.46307e-05
0.000115619
4.68111e-05
0.000124681
4.91739e-05
0.00013441
5.17299e-05
0.000144943
5.44999e-05
0.000156152
5.74937e-05
0.000168312
6.07346e-05
0.000181237
6.42352e-05
0.000195193
6.80182e-05
0.000210066
7.21021e-05
0.000225986
7.65062e-05
0.00024301
8.1257e-05
0.00026104
8.63709e-05
0.000280299
9.18722e-05
0.00030065
9.77843e-05
0.000322099
0.000104126
0.00034469
0.000110918
0.000368293
0.000118181
0.000392774
0.000125928
0.000418019
0.00013417
0.000443776
0.000142912
0.000469702
0.000152151
0.000495355
0.000161872
0.000520151
0.000172047
0.000543331
0.000182631
0.000563915
0.00019355
0.000580667
0.000204711
0.000592024
0.000215968
0.000596064
0.00022715
0.0005904
0.00023802
0.000572171
0.000248273
0.000537955
0.000257532
0.000483759
0.000265337
0.000404946
0.000271142
0.000296496
0.000274338
0.00015492
-2.65718e-05
0.000274224
2.19988e-05
1.78881e-05
-2.17007e-05
2.23211e-05
1.93401e-05
2.26679e-05
2.09092e-05
2.30436e-05
2.26041e-05
2.34483e-05
2.44352e-05
2.38866e-05
2.6413e-05
2.43592e-05
2.85489e-05
2.48711e-05
3.08545e-05
2.54239e-05
3.33317e-05
2.60229e-05
3.60131e-05
2.66692e-05
3.89202e-05
2.73686e-05
4.206e-05
2.81236e-05
4.54505e-05
2.89422e-05
4.90779e-05
2.98285e-05
5.29828e-05
3.07877e-05
5.72439e-05
3.1824e-05
6.18429e-05
3.295e-05
6.67172e-05
3.41694e-05
7.20146e-05
3.54889e-05
7.77819e-05
3.69202e-05
8.39011e-05
3.84731e-05
9.0511e-05
4.01517e-05
9.7728e-05
4.19765e-05
0.000105314
4.39506e-05
0.000113645
4.609e-05
0.000122542
4.84085e-05
0.000132092
5.09167e-05
0.000142435
5.36351e-05
0.000153433
5.65734e-05
0.000165374
5.97543e-05
0.000178057
6.31905e-05
0.000191757
6.69038e-05
0.000206352
7.09131e-05
0.000221976
7.52368e-05
0.000238687
7.99011e-05
0.000256376
8.49222e-05
0.000275278
9.0324e-05
0.000295249
9.61294e-05
0.000316294
0.000102357
0.000338462
0.000109027
0.000361623
0.00011616
0.000385642
0.000123769
0.000410411
0.000131865
0.00043568
0.000140451
0.000461114
0.000149527
0.000486279
0.000159076
0.000510601
0.000169072
0.000533333
0.000179469
0.000553516
0.000190196
0.000569935
0.00020116
0.000581057
0.000212218
0.000584998
0.000223203
0.000579411
0.00023388
0.00056149
0.00024395
0.000527881
0.000253044
0.000474658
0.000260708
0.000397272
0.000266407
0.000290777
0.000269532
0.000151765
-2.64717e-05
0.000269371
2.17437e-05
1.75963e-05
-2.14515e-05
2.20598e-05
1.9025e-05
2.24001e-05
2.05689e-05
2.27687e-05
2.22365e-05
2.31659e-05
2.40379e-05
2.35962e-05
2.59837e-05
2.40602e-05
2.80847e-05
2.45628e-05
3.03528e-05
2.51056e-05
3.27885e-05
2.56938e-05
3.54255e-05
2.63285e-05
3.82851e-05
2.70153e-05
4.13736e-05
2.77566e-05
4.47087e-05
2.85604e-05
4.82744e-05
2.94306e-05
5.21121e-05
3.03723e-05
5.63027e-05
3.13895e-05
6.08253e-05
3.24947e-05
6.56126e-05
3.36915e-05
7.08176e-05
3.49864e-05
7.64876e-05
3.63909e-05
8.24965e-05
3.79147e-05
8.89877e-05
3.95619e-05
9.60809e-05
4.13525e-05
0.000103524
4.32896e-05
0.000111708
4.53889e-05
0.000120443
4.76641e-05
0.000129817
5.01257e-05
0.000139974
5.27937e-05
0.000150766
5.56775e-05
0.00016249
5.87997e-05
0.000174935
6.21727e-05
0.000188384
6.58181e-05
0.000202707
6.97539e-05
0.00021804
7.39989e-05
0.000234442
7.85785e-05
0.000251797
8.35087e-05
0.000270348
8.88129e-05
0.000289945
9.45138e-05
0.000310594
0.00010063
0.000332347
0.000107181
0.000355073
0.000114186
0.000378638
0.000121659
0.000402938
0.000129611
0.00042773
0.000138045
0.000452681
0.00014696
0.000477366
0.000156341
0.000501221
0.00016616
0.000523515
0.000176374
0.000543304
0.000186912
0.000559398
0.000197682
0.000570291
0.000208544
0.000574134
0.000219333
0.000568626
0.00022982
0.000551013
0.000239709
0.000518004
0.00024864
0.000465744
0.000256165
0.000389767
0.000261756
0.000285216
0.000264812
0.000148766
-2.6182e-05
0.000264608
2.14926e-05
1.73102e-05
-2.12059e-05
2.18028e-05
1.8716e-05
2.21365e-05
2.02351e-05
2.24982e-05
2.18758e-05
2.28879e-05
2.36481e-05
2.33102e-05
2.55623e-05
2.37656e-05
2.76293e-05
2.4259e-05
2.98602e-05
2.47919e-05
3.22553e-05
2.53694e-05
3.48486e-05
2.59926e-05
3.76616e-05
2.66671e-05
4.06996e-05
2.73951e-05
4.39802e-05
2.81846e-05
4.74854e-05
2.90393e-05
5.1257e-05
2.99641e-05
5.53784e-05
3.0963e-05
5.98261e-05
3.20481e-05
6.4528e-05
3.32231e-05
6.96425e-05
3.44943e-05
7.52169e-05
3.5873e-05
8.11177e-05
3.73687e-05
8.74925e-05
3.89854e-05
9.44642e-05
4.07429e-05
0.000101767
4.26441e-05
0.000109807
4.47046e-05
0.000118382
4.69377e-05
0.000127584
4.93538e-05
0.000137558
5.19726e-05
0.000148147
5.48034e-05
0.000159659
5.78684e-05
0.00017187
6.11797e-05
0.000185073
6.47583e-05
0.000199128
6.86226e-05
0.000214176
7.27905e-05
0.000230274
7.72872e-05
0.000247301
8.21283e-05
0.000265508
8.7337e-05
0.000284737
9.29354e-05
0.000304996
9.89417e-05
0.000326342
0.000105375
0.00034864
0.000112256
0.000371758
0.000119596
0.000395598
0.000127406
0.000419919
0.000135692
0.000444395
0.000144448
0.000468608
0.000153664
0.000492005
0.00016331
0.000513867
0.000173343
0.000533269
0.000183694
0.000549042
0.000194273
0.000559709
0.000204941
0.000563456
0.000215538
0.000558024
0.000225836
0.000540711
0.000235548
0.000508288
0.000244316
0.000456968
0.000251703
0.000382367
0.000257188
0.000279707
0.000260174
0.000145745
-2.60105e-05
0.000259931
2.12414e-05
1.70296e-05
-2.09606e-05
2.15454e-05
1.84129e-05
2.18728e-05
1.99076e-05
2.22277e-05
2.15219e-05
2.26101e-05
2.32655e-05
2.30245e-05
2.51487e-05
2.34715e-05
2.71821e-05
2.39559e-05
2.93767e-05
2.44791e-05
3.17317e-05
2.50462e-05
3.42821e-05
2.56581e-05
3.70491e-05
2.63206e-05
4.00376e-05
2.70356e-05
4.32646e-05
2.78111e-05
4.67102e-05
2.86507e-05
5.04169e-05
2.95591e-05
5.44704e-05
3.05403e-05
5.88445e-05
3.16062e-05
6.34626e-05
3.27602e-05
6.84882e-05
3.40086e-05
7.39691e-05
3.53625e-05
7.97637e-05
3.68312e-05
8.60243e-05
3.84186e-05
9.28768e-05
4.01441e-05
0.000100042
4.20106e-05
0.000107941
4.40335e-05
0.00011636
4.62258e-05
0.000125391
4.85978e-05
0.000135186
5.11688e-05
0.000145576
5.3948e-05
0.00015688
5.69571e-05
0.000168861
6.02081e-05
0.000181821
6.3722e-05
0.000195614
6.75161e-05
0.000210381
7.16087e-05
0.000226182
7.60242e-05
0.000242886
8.07782e-05
0.000260754
8.58933e-05
0.000279623
9.13915e-05
0.000299498
9.72903e-05
0.000320444
0.000103609
0.000342321
0.000110367
0.000365001
0.000117577
0.000388389
0.000125248
0.000412249
0.000133387
0.000436258
0.000141988
0.000460008
0.000151041
0.000482955
0.000160515
0.000504393
0.000170371
0.000523416
0.000180538
0.000538875
0.000190929
0.000549322
0.000201406
0.000552976
0.000211812
0.000547623
0.000221925
0.000530607
0.000231461
0.000498765
0.000240069
0.000448375
0.00024732
0.000375137
0.000252699
0.000274357
0.000255616
0.00014288
-2.56518e-05
0.000255337
2.09875e-05
1.67545e-05
-2.07117e-05
2.1286e-05
1.81157e-05
2.16072e-05
1.95864e-05
2.19556e-05
2.11747e-05
2.23308e-05
2.28902e-05
2.27376e-05
2.4743e-05
2.31763e-05
2.67433e-05
2.36517e-05
2.89021e-05
2.41653e-05
3.12179e-05
2.47221e-05
3.3726e-05
2.53229e-05
3.64479e-05
2.59735e-05
3.93876e-05
2.66758e-05
4.25618e-05
2.74376e-05
4.59489e-05
2.82623e-05
4.95918e-05
2.91549e-05
5.35784e-05
3.01189e-05
5.78802e-05
3.11661e-05
6.2416e-05
3.22998e-05
6.73543e-05
3.35262e-05
7.27432e-05