/*--------------------------------*- C++ -*----------------------------------*\
  =========                 |
  \\      /  F ield         | OpenFOAM: The Open Source CFD Toolbox
   \\    /   O peration     | Website:  https://openfoam.org
    \\  /    A nd           | Version:  6.0
     \\/     M anipulation  |
\*---------------------------------------------------------------------------*/
FoamFile
{
    version     2.0;
    format      ascii;
    class       volVectorField;
    location    "16";
    object      U;
}
// * * * * * * * * * * * * * * * * * * * * * * * * * * * * * * * * * * * * * //

dimensions      [0 1 -1 0 0 0 0];

internalField   nonuniform List<vector> 
62000
(
(0.996181 -0.0871557 -4.14243e-21)
(0.996179 -0.0871593 3.40272e-21)
(0.996177 -0.0871659 3.43762e-21)
(0.996175 -0.0871731 -1.48439e-20)
(0.996172 -0.0871806 -1.66766e-20)
(0.996171 -0.0871879 5.6875e-20)
(0.996169 -0.0871951 -6.15379e-20)
(0.996167 -0.0872022 3.52421e-20)
(0.996166 -0.0872079 -1.62108e-20)
(0.996165 -0.0872132 -8.14157e-20)
(0.996163 -0.0872175 -9.94424e-21)
(0.996162 -0.087222 1.10517e-19)
(0.99616 -0.0872253 2.20263e-20)
(0.996159 -0.0872283 -7.61992e-20)
(0.996157 -0.087231 1.1683e-19)
(0.996155 -0.0872332 -6.11466e-20)
(0.996153 -0.0872359 6.18338e-20)
(0.996151 -0.0872381 -7.18523e-20)
(0.996148 -0.0872411 3.46253e-20)
(0.996146 -0.0872434 -1.04832e-19)
(0.996143 -0.0872464 1.3494e-19)
(0.996139 -0.0872486 3.84098e-20)
(0.996135 -0.0872514 5.40477e-20)
(0.996131 -0.0872534 -2.46615e-19)
(0.996125 -0.0872559 8.90582e-20)
(0.996119 -0.0872574 -5.29365e-20)
(0.996112 -0.0872599 3.08053e-22)
(0.996105 -0.0872618 -3.99892e-20)
(0.996096 -0.087265 1.26576e-19)
(0.996088 -0.0872688 -6.72945e-20)
(0.996077 -0.0872758 1.5913e-19)
(0.996065 -0.0872831 -3.2175e-19)
(0.996052 -0.087291 3.14623e-20)
(0.996034 -0.087295 -9.94823e-20)
(0.996017 -0.0873002 -2.83652e-20)
(0.996002 -0.0873128 -9.93141e-20)
(0.995986 -0.0873313 -1.92736e-20)
(0.99597 -0.0873522 -2.1762e-20)
(0.995952 -0.0873743 8.88154e-20)
(0.995934 -0.0873981 3.8188e-19)
(0.995916 -0.0874244 -8.88321e-20)
(0.995899 -0.0874532 -4.66494e-19)
(0.995886 -0.0874842 -6.85856e-19)
(0.995877 -0.087516 3.38527e-19)
(0.995877 -0.0875468 1.04393e-19)
(0.995887 -0.0875737 -3.79096e-19)
(0.99591 -0.0875918 4.37168e-20)
(0.995953 -0.0875964 -1.18194e-19)
(0.996018 -0.0875767 -3.89907e-19)
(0.996108 -0.0875266 -6.16429e-20)
(0.996228 -0.0874265 -3.12528e-21)
(0.996371 -0.0872763 4.24524e-20)
(0.996556 -0.0870337 -7.56866e-20)
(0.996752 -0.0866883 -5.75433e-19)
(0.996962 -0.0861954 -1.93021e-19)
(0.997163 -0.0855259 -9.31676e-19)
(0.997346 -0.0845168 9.22635e-20)
(0.997715 -0.0830368 1.22351e-19)
(0.9963 -0.0794612 -5.61365e-19)
(1.00837 -0.0690305 -8.40975e-20)
(0.996187 -0.0872781 -1.11244e-21)
(0.996183 -0.0872765 1.0498e-20)
(0.99618 -0.0872772 4.28278e-21)
(0.996177 -0.0872816 -1.81579e-20)
(0.996173 -0.0872902 7.42721e-21)
(0.99617 -0.0873007 -5.0472e-20)
(0.996166 -0.087313 4.5566e-20)
(0.996162 -0.0873263 2.5918e-20)
(0.996158 -0.0873377 -4.77408e-20)
(0.996154 -0.0873485 2.08551e-21)
(0.996151 -0.0873575 4.4772e-20)
(0.996147 -0.0873666 3.56121e-23)
(0.996144 -0.0873736 1.23809e-20)
(0.99614 -0.0873794 -1.05004e-19)
(0.996137 -0.0873847 2.07334e-19)
(0.996134 -0.0873884 -1.80498e-19)
(0.99613 -0.0873934 8.32069e-20)
(0.996127 -0.0873964 -1.73431e-20)
(0.996123 -0.0874016 -4.60759e-20)
(0.996119 -0.0874045 1.25137e-19)
(0.996113 -0.0874098 -1.94556e-19)
(0.996108 -0.0874128 1.11307e-19)
(0.9961 -0.0874182 -1.38551e-19)
(0.996092 -0.0874213 8.19328e-20)
(0.996082 -0.0874269 7.36651e-20)
(0.996072 -0.0874301 -4.80855e-20)
(0.996058 -0.0874368 5.02191e-22)
(0.996045 -0.0874425 5.23992e-20)
(0.996027 -0.087453 4.28158e-20)
(0.996011 -0.0874669 -8.35373e-20)
(0.99599 -0.087491 1.68396e-19)
(0.99597 -0.0875198 3.19955e-20)
(0.995943 -0.0875438 9.92151e-20)
(0.995908 -0.0875502 5.02895e-21)
(0.995872 -0.0875548 2.50969e-20)
(0.995839 -0.0875788 -3.25009e-20)
(0.995808 -0.0876259 -9.05021e-20)
(0.995778 -0.0876869 -4.76887e-20)
(0.995747 -0.0877552 -2.3494e-19)
(0.995715 -0.0878285 -2.52201e-19)
(0.995684 -0.0879064 1.91763e-19)
(0.995657 -0.0879881 1.11754e-19)
(0.995637 -0.0880721 7.36848e-19)
(0.995627 -0.0881547 3.58108e-20)
(0.995632 -0.0882323 -9.42589e-19)
(0.995658 -0.0882988 3.30815e-19)
(0.995709 -0.0883439 2.27456e-19)
(0.995797 -0.08836 2.16704e-19)
(0.995923 -0.0883245 3.89778e-20)
(0.996093 -0.0882317 1.45723e-20)
(0.996312 -0.0880447 7.84334e-20)
(0.996571 -0.0877829 -7.45871e-20)
(0.99691 -0.0873571 2.51619e-19)
(0.997243 -0.0867596 1.13901e-18)
(0.997568 -0.0859457 3.99555e-19)
(0.997843 -0.0849319 2.80339e-19)
(0.998036 -0.0835389 1.04164e-18)
(0.998593 -0.0816485 5.70786e-19)
(0.997734 -0.0773159 -1.31048e-18)
(0.997683 -0.0713833 -6.13855e-19)
(0.99618 -0.0876495 -5.41754e-21)
(0.99618 -0.0876463 -7.5207e-22)
(0.996183 -0.0876374 8.22794e-22)
(0.996185 -0.0876337 3.67306e-21)
(0.996185 -0.0876362 1.02248e-20)
(0.996184 -0.0876425 -9.55417e-21)
(0.996182 -0.0876524 5.00684e-20)
(0.99618 -0.0876648 -2.35755e-20)
(0.996177 -0.0876764 -1.24503e-20)
(0.996174 -0.0876883 -7.49441e-20)
(0.996171 -0.0876984 6.22698e-20)
(0.996167 -0.0877087 4.48181e-21)
(0.996164 -0.0877163 -1.37306e-20)
(0.996161 -0.0877222 3.58425e-20)
(0.996157 -0.0877275 -6.03212e-20)
(0.996154 -0.0877306 5.06574e-22)
(0.996151 -0.0877355 -2.65772e-20)
(0.996149 -0.0877381 7.78593e-22)
(0.996145 -0.0877436 6.00962e-20)
(0.996143 -0.0877466 -8.9731e-20)
(0.996139 -0.087753 5.52974e-20)
(0.996135 -0.0877569 2.09476e-19)
(0.996129 -0.0877641 -2.93583e-20)
(0.996123 -0.0877689 -2.82797e-19)
(0.996115 -0.0877774 1.4383e-19)
(0.996107 -0.0877833 -7.51238e-20)
(0.996096 -0.0877939 1.21544e-19)
(0.996085 -0.0878038 -7.39637e-20)
(0.996071 -0.0878199 -1.41296e-19)
(0.996058 -0.0878412 1.46004e-19)
(0.996041 -0.0878757 -1.01722e-19)
(0.996026 -0.0879181 1.33634e-19)
(0.996005 -0.0879517 -3.59611e-19)
(0.995976 -0.0879601 3.13763e-19)
(0.995943 -0.0879606 -1.63963e-19)
(0.995914 -0.0879836 6.88401e-20)
(0.995891 -0.088036 5.05437e-20)
(0.995871 -0.0881069 4.25471e-21)
(0.99585 -0.0881867 1.63214e-21)
(0.99583 -0.0882715 2.63514e-19)
(0.995811 -0.08836 -9.76562e-20)
(0.995796 -0.0884511 1.47997e-19)
(0.995787 -0.0885434 -4.70565e-19)
(0.995788 -0.0886331 -2.11334e-19)
(0.995802 -0.0887165 2.2034e-19)
(0.995835 -0.0887872 -6.1747e-19)
(0.995893 -0.0888336 7.77284e-20)
(0.995985 -0.0888479 -3.64449e-19)
(0.996112 -0.0888047 3.97408e-19)
(0.996282 -0.0886988 6.74933e-20)
(0.996493 -0.0884947 8.10517e-21)
(0.996747 -0.0882211 -1.20997e-20)
(0.997074 -0.0877973 -1.45789e-19)
(0.997381 -0.087207 3.52638e-20)
(0.997654 -0.0864375 6.96972e-19)
(0.997875 -0.0855189 4.34888e-19)
(0.997995 -0.0843457 5.72128e-19)
(0.998577 -0.0827242 1.79164e-18)
(0.998145 -0.0789157 -1.37974e-19)
(1.00057 -0.0742004 -4.77281e-19)
(0.996152 -0.088072 -5.41972e-21)
(0.996159 -0.088063 1.63175e-20)
(0.99617 -0.088044 -2.46397e-21)
(0.996177 -0.0880318 -1.62304e-20)
(0.996182 -0.0880271 2.40046e-20)
(0.996186 -0.0880277 4.05519e-20)
(0.996188 -0.0880331 -5.2033e-20)
(0.996188 -0.0880425 5.5205e-21)
(0.996188 -0.0880532 1.72517e-20)
(0.996187 -0.0880662 3.51197e-20)
(0.996185 -0.0880794 -6.39704e-20)
(0.996182 -0.0880935 -1.91818e-20)
(0.99618 -0.0881052 -2.09152e-20)
(0.996178 -0.0881149 9.42431e-20)
(0.996175 -0.0881236 -6.16542e-20)
(0.996173 -0.0881299 1.4054e-19)
(0.99617 -0.0881377 -1.67496e-19)
(0.996168 -0.088143 -2.34902e-20)
(0.996166 -0.088151 1.68931e-19)
(0.996164 -0.0881564 -5.82416e-20)
(0.996161 -0.0881651 -2.09038e-20)
(0.996158 -0.0881713 -2.16875e-20)
(0.996154 -0.0881812 -1.91543e-19)
(0.99615 -0.0881887 1.10686e-19)
(0.996145 -0.0882002 -4.68789e-20)
(0.996139 -0.0882091 7.70208e-20)
(0.996132 -0.0882231 3.47609e-20)
(0.996125 -0.0882365 1.66806e-19)
(0.996115 -0.0882564 -1.04418e-19)
(0.996106 -0.088282 -1.31327e-19)
(0.996096 -0.0883214 1.99901e-19)
(0.996086 -0.088372 -1.62158e-19)
(0.996073 -0.08841 2.90207e-19)
(0.996052 -0.0884181 -1.68801e-19)
(0.996027 -0.0884156 7.4006e-20)
(0.996006 -0.0884344 1.19784e-19)
(0.995992 -0.0884843 -4.63364e-20)
(0.995982 -0.0885543 4.93983e-20)
(0.995972 -0.0886334 -2.90337e-20)
(0.995964 -0.0887172 6.92917e-20)
(0.995956 -0.088804 -2.11727e-19)
(0.995951 -0.0888929 5.62701e-20)
(0.99595 -0.088983 1.10814e-19)
(0.995956 -0.0890709 2.36975e-19)
(0.995972 -0.0891534 3.00482e-19)
(0.996005 -0.0892243 7.55678e-20)
(0.996057 -0.0892717 3.17914e-19)
(0.996141 -0.0892874 2.84383e-19)
(0.996255 -0.089245 2.14053e-19)
(0.996414 -0.0891375 -1.07648e-19)
(0.99661 -0.0889303 -4.95066e-20)
(0.99686 -0.0886525 -5.31654e-20)
(0.997185 -0.088233 -1.89499e-19)
(0.997495 -0.0876327 -5.37978e-19)
(0.997766 -0.0868553 -4.61459e-19)
(0.998006 -0.0859131 -1.19513e-18)
(0.998163 -0.0847374 -2.53387e-18)
(0.998804 -0.083032 5.43249e-19)
(0.998827 -0.0791677 2.33406e-18)
(1.00025 -0.0738592 2.42777e-18)
(0.996127 -0.0884633 1.04891e-20)
(0.996139 -0.0884464 -3.45453e-21)
(0.996153 -0.0884198 5.65435e-21)
(0.996163 -0.0883994 -7.86581e-21)
(0.996169 -0.0883866 1.72358e-20)
(0.996175 -0.0883806 -8.40392e-21)
(0.996179 -0.0883806 4.37102e-21)
(0.996182 -0.0883852 -6.41357e-20)
(0.996184 -0.088392 5.26474e-20)
(0.996184 -0.0884035 -1.02501e-19)
(0.996183 -0.0884175 1.10619e-19)
(0.996182 -0.0884348 -1.31071e-20)
(0.996181 -0.0884506 -2.80748e-20)
(0.996179 -0.0884646 -1.24301e-20)
(0.996178 -0.0884774 -2.49527e-21)
(0.996176 -0.0884878 -1.20925e-19)
(0.996175 -0.0884997 6.44557e-21)
(0.996174 -0.0885092 1.27006e-19)
(0.996172 -0.0885215 -3.99385e-20)
(0.996171 -0.0885312 -4.07662e-20)
(0.996169 -0.0885443 6.85456e-20)
(0.996168 -0.0885548 -3.25926e-20)
(0.996166 -0.0885689 1.35191e-19)
(0.996164 -0.0885804 7.08318e-20)
(0.996162 -0.0885958 5.15706e-20)
(0.996159 -0.0886084 -1.6577e-19)
(0.996155 -0.0886258 -2.27474e-20)
(0.996152 -0.0886423 -1.21972e-19)
(0.996147 -0.0886651 2.35777e-20)
(0.996143 -0.0886936 -3.76198e-20)
(0.996139 -0.0887364 -1.40325e-20)
(0.996136 -0.0887908 1.15354e-19)
(0.99613 -0.088832 -2.90636e-19)
(0.996118 -0.0888408 -1.21055e-20)
(0.996101 -0.0888354 -1.39562e-19)
(0.996089 -0.0888512 -6.73224e-20)
(0.996084 -0.0888984 1.71504e-20)
(0.996085 -0.088966 -1.92569e-19)
(0.996088 -0.0890428 2.77145e-19)
(0.996092 -0.0891236 3.73794e-20)
(0.996098 -0.0892067 2.77657e-19)
(0.996105 -0.0892912 -1.77007e-19)
(0.996116 -0.0893764 -1.11393e-19)
(0.996131 -0.0894589 -5.92201e-20)
(0.996154 -0.0895362 2.00805e-19)
(0.99619 -0.0896024 2.68036e-19)
(0.99624 -0.0896463 1.72612e-20)
(0.996318 -0.0896598 3.13441e-20)
(0.996423 -0.0896171 -1.2788e-19)
(0.996572 -0.0895098 2.00724e-19)
(0.996758 -0.0893033 -1.04852e-20)
(0.997012 -0.0890233 3.52363e-21)
(0.997348 -0.0886034 -1.31593e-19)
(0.997685 -0.0879781 -5.35299e-19)
(0.997987 -0.0871562 1.01055e-19)
(0.99828 -0.0861302 9.03143e-19)
(0.998513 -0.0848597 2.99476e-18)
(0.99919 -0.0830402 -3.34206e-18)
(0.9995 -0.079082 3.07475e-18)
(1.00037 -0.0743151 -3.19304e-18)
(0.996102 -0.0888181 -3.97967e-21)
(0.996116 -0.0887944 1.57831e-20)
(0.996131 -0.0887626 -2.55363e-20)
(0.99614 -0.0887351 1.87244e-20)
(0.996146 -0.0887153 1.18947e-20)
(0.996152 -0.0887042 -1.24018e-20)
(0.996158 -0.0887006 1.00547e-21)
(0.996163 -0.0887017 -8.91966e-21)
(0.996166 -0.0887047 -2.93239e-20)
(0.996168 -0.0887132 5.51756e-20)
(0.996168 -0.0887267 -8.35433e-20)
(0.996168 -0.088746 7.16897e-20)
(0.996167 -0.0887656 6.14139e-20)
(0.996166 -0.088784 -9.33439e-20)
(0.996166 -0.0888012 -2.94672e-20)
(0.996166 -0.0888157 1.09011e-19)
(0.996166 -0.0888314 -1.28842e-19)
(0.996167 -0.0888449 1.73755e-19)
(0.996167 -0.088861 -3.31682e-20)
(0.996168 -0.0888748 1.70637e-20)
(0.996169 -0.0888918 -2.91428e-20)
(0.99617 -0.0889064 -3.5227e-20)
(0.996172 -0.0889244 -6.28976e-20)
(0.996173 -0.0889399 1.05835e-19)
(0.996175 -0.0889591 -7.18463e-20)
(0.996176 -0.0889754 -6.72056e-20)
(0.996178 -0.0889963 1.36369e-19)
(0.99618 -0.0890159 -1.25205e-19)
(0.996182 -0.0890415 1.96499e-19)
(0.996185 -0.0890725 -1.03821e-19)
(0.99619 -0.0891175 7.52153e-20)
(0.996196 -0.0891755 -1.23103e-19)
(0.996201 -0.0892188 1.28698e-19)
(0.9962 -0.0892275 -1.29546e-20)
(0.996196 -0.0892215 -7.34933e-21)
(0.996197 -0.0892351 -3.70285e-21)
(0.996208 -0.0892796 -5.6513e-20)
(0.996225 -0.0893442 1.65597e-19)
(0.996247 -0.0894168 -1.28101e-19)
(0.996272 -0.0894919 -6.4588e-19)
(0.996299 -0.0895672 -2.49506e-19)
(0.99633 -0.0896415 1.74627e-19)
(0.996364 -0.0897136 -1.47246e-19)
(0.996401 -0.0897803 -1.71443e-19)
(0.996443 -0.0898394 -5.25035e-21)
(0.996492 -0.0898857 3.04967e-19)
(0.996551 -0.08991 -3.59744e-19)
(0.99663 -0.0899061 -2.88502e-19)
(0.996727 -0.0898514 -1.64798e-19)
(0.996863 -0.0897392 -9.06531e-20)
(0.997028 -0.0895376 -9.5018e-20)
(0.997268 -0.089272 2.04856e-20)
(0.997596 -0.0888803 6.67893e-19)
(0.997933 -0.0882743 -2.78799e-19)
(0.998241 -0.0874651 -3.427e-19)
(0.998558 -0.0864319 1.00322e-18)
(0.998848 -0.0851583 -7.07415e-19)
(0.999539 -0.0833553 -1.23197e-18)
(0.999975 -0.0794821 -4.92976e-18)
(1.00108 -0.0746177 -1.37649e-19)
(0.996067 -0.0891369 4.68018e-21)
(0.996082 -0.0891122 -2.07292e-20)
(0.996097 -0.0890792 9.93129e-21)
(0.996105 -0.0890475 1.81738e-20)
(0.99611 -0.0890229 -3.82423e-20)
(0.996115 -0.0890087 3.14467e-20)
(0.99612 -0.0890039 -2.05146e-20)
(0.996125 -0.0890039 1.70531e-20)
(0.99613 -0.0890048 2.65324e-20)
(0.996133 -0.089011 -6.25473e-20)
(0.996135 -0.0890237 8.82252e-20)
(0.996136 -0.0890449 3.6167e-20)
(0.996136 -0.0890686 -1.42486e-19)
(0.996136 -0.089092 -2.55744e-20)
(0.996137 -0.089114 7.24203e-20)
(0.996138 -0.0891328 4.51467e-20)
(0.996139 -0.0891523 -5.38778e-20)
(0.996142 -0.0891696 4.59002e-20)
(0.996144 -0.0891895 6.87569e-20)
(0.996148 -0.0892073 -3.38399e-20)
(0.996151 -0.0892284 -1.89008e-20)
(0.996155 -0.0892473 6.37649e-20)
(0.99616 -0.0892696 1.27132e-19)
(0.996165 -0.0892896 -9.31699e-20)
(0.996171 -0.0893131 -9.8497e-20)
(0.996178 -0.0893336 1.0549e-19)
(0.996185 -0.0893585 -8.05558e-20)
(0.996193 -0.0893819 -3.07424e-20)
(0.996202 -0.0894108 2.53731e-19)
(0.996213 -0.089445 -1.08521e-19)
(0.996227 -0.0894931 -7.84453e-20)
(0.996243 -0.0895538 1.06503e-19)
(0.996259 -0.0896 7.0534e-20)
(0.99627 -0.089611 -5.94437e-20)
(0.99628 -0.0896051 -3.94975e-20)
(0.996297 -0.0896183 1.20421e-19)
(0.996324 -0.0896615 2.74885e-20)
(0.99636 -0.0897234 3.82427e-20)
(0.996403 -0.0897916 -1.86093e-19)
(0.996452 -0.08986 -1.57078e-19)
(0.996507 -0.0899256 3.19082e-19)
(0.996566 -0.0899861 2.22305e-19)
(0.996631 -0.0900399 3.37272e-19)
(0.996699 -0.0900831 -2.71883e-19)
(0.996772 -0.0901138 -2.48317e-19)
(0.996848 -0.0901274 -1.57119e-19)
(0.996929 -0.0901169 2.64957e-19)
(0.997021 -0.0900791 1.50613e-19)
(0.997121 -0.0899963 -7.63985e-20)
(0.99725 -0.0898659 1.18608e-19)
(0.997395 -0.0896617 -3.96706e-20)
(0.997616 -0.0894116 -1.08263e-19)
(0.997922 -0.0890598 2.99971e-20)
(0.998241 -0.0884995 3.75228e-19)
(0.998535 -0.0877397 -5.15714e-19)
(0.998858 -0.0867449 -3.13695e-19)
(0.999199 -0.0855044 -5.73669e-19)
(0.99993 -0.083714 3.73019e-18)
(1.00041 -0.079826 2.39936e-19)
(1.00202 -0.0744731 -3.59186e-19)
(0.996023 -0.0894242 -7.86e-21)
(0.996039 -0.089399 -6.16218e-21)
(0.996055 -0.0893655 8.23251e-21)
(0.996062 -0.0893311 2.85597e-20)
(0.996064 -0.0893025 -6.03418e-20)
(0.996066 -0.0892859 6.76798e-20)
(0.996069 -0.0892812 -3.05478e-21)
(0.996072 -0.0892822 -4.10877e-21)
(0.996076 -0.0892832 -2.26688e-20)
(0.99608 -0.0892884 5.35881e-20)
(0.996083 -0.0893012 -8.09173e-20)
(0.996085 -0.0893251 2.98869e-20)
(0.996085 -0.0893543 -9.31036e-22)
(0.996086 -0.089385 4.43292e-20)
(0.996087 -0.0894143 2.02916e-20)
(0.996089 -0.0894398 -1.07027e-19)
(0.996091 -0.089465 9.07974e-20)
(0.996094 -0.0894875 3.44073e-20)
(0.996098 -0.089512 -9.75751e-20)
(0.996102 -0.0895346 4.69424e-20)
(0.996107 -0.0895602 2.08556e-20)
(0.996114 -0.089584 -1.43004e-20)
(0.99612 -0.0896109 1.5942e-20)
(0.996128 -0.0896359 -1.01264e-20)
(0.996137 -0.0896644 -1.06004e-19)
(0.996146 -0.08969 6.74487e-20)
(0.996157 -0.0897199 -9.97673e-20)
(0.99617 -0.0897483 1.79002e-19)
(0.996184 -0.0897819 -3.53823e-20)
(0.9962 -0.0898205 -1.97354e-20)
(0.996219 -0.0898728 -5.98457e-21)
(0.996242 -0.0899385 1.64182e-19)
(0.996265 -0.0899891 -6.78999e-20)
(0.996285 -0.0900037 -3.78895e-20)
(0.996304 -0.090002 9.45447e-20)
(0.996332 -0.0900181 7.57943e-20)
(0.996371 -0.0900634 -1.23423e-19)
(0.996421 -0.0901262 2.21451e-20)
(0.99648 -0.0901939 2.17222e-19)
(0.996548 -0.0902596 -9.90241e-21)
(0.996625 -0.0903193 1.15386e-19)
(0.996711 -0.0903699 -1.53524e-19)
(0.996804 -0.0904084 2.07724e-19)
(0.996905 -0.0904303 4.05259e-19)
(0.997011 -0.090433 1.1942e-19)
(0.997122 -0.0904121 -1.02345e-19)
(0.997236 -0.0903621 -2.10138e-19)
(0.997358 -0.0902823 -2.8013e-20)
(0.99748 -0.0901596 1.71527e-20)
(0.997624 -0.0899956 4.70414e-20)
(0.997774 -0.08977 -4.71677e-20)
(0.997997 -0.0895144 4.37574e-19)
(0.998303 -0.0891789 -5.42883e-19)
(0.998624 -0.0886395 4.75074e-19)
(0.998923 -0.0878987 -1.27514e-18)
(0.999267 -0.0869034 -3.26185e-19)
(0.999674 -0.0856345 -2.01895e-18)
(1.00048 -0.0837665 -3.37607e-18)
(1.00094 -0.0797222 -9.19829e-19)
(1.00287 -0.0739792 -1.79965e-18)
(0.995984 -0.08969 -3.79763e-21)
(0.996004 -0.0896689 3.20534e-21)
(0.996019 -0.0896387 1.57773e-20)
(0.996021 -0.0896039 2.44501e-20)
(0.996018 -0.0895722 -7.0955e-20)
(0.996015 -0.0895526 3.99866e-20)
(0.996013 -0.0895469 -6.9827e-20)
(0.996013 -0.0895481 1.06948e-19)
(0.996013 -0.0895486 -4.90385e-20)
(0.996015 -0.0895518 8.42849e-21)
(0.996017 -0.0895629 8.97126e-20)
(0.996018 -0.0895873 -1.99728e-19)
(0.996019 -0.0896205 1.32959e-19)
(0.996021 -0.0896578 1.79064e-20)
(0.996022 -0.0896946 2.81369e-20)
(0.996024 -0.0897276 -1.17059e-19)
(0.996026 -0.0897596 5.61025e-20)
(0.996029 -0.0897884 -6.74776e-20)
(0.996033 -0.0898189 1.29403e-19)
(0.996038 -0.0898474 -1.77989e-20)
(0.996044 -0.0898788 -1.55831e-19)
(0.996051 -0.0899085 6.07654e-20)
(0.996058 -0.0899413 -3.52966e-21)
(0.996067 -0.0899723 -2.07887e-19)
(0.996077 -0.0900066 1.53992e-19)
(0.996088 -0.0900382 1.11145e-19)
(0.996101 -0.090074 7.14648e-20)
(0.996115 -0.0901083 -9.23627e-20)
(0.996131 -0.0901476 -9.68536e-20)
(0.996149 -0.0901918 4.45573e-20)
(0.99617 -0.0902499 6.15554e-20)
(0.996196 -0.0903209 -7.34376e-20)
(0.996221 -0.0903779 -1.03191e-19)
(0.996244 -0.0903995 2.16638e-19)
(0.996266 -0.0904039 2.17012e-20)
(0.996298 -0.0904265 -2.9661e-19)
(0.996342 -0.0904778 2.92983e-20)
(0.996398 -0.0905462 1.77711e-19)
(0.996464 -0.0906185 1.28992e-20)
(0.996542 -0.0906874 2.13661e-19)
(0.996632 -0.0907484 -2.48773e-19)
(0.996734 -0.0907971 -2.49947e-21)
(0.996849 -0.0908293 -1.43844e-19)
(0.996975 -0.0908393 2.18504e-20)
(0.997112 -0.0908235 1.5943e-19)
(0.997259 -0.0907766 3.36156e-19)
(0.997413 -0.0906935 5.29292e-20)
(0.997576 -0.0905744 -7.41554e-20)
(0.997742 -0.090409 -6.23149e-20)
(0.997927 -0.0902017 -4.12791e-19)
(0.998115 -0.0899359 5.68656e-19)
(0.998378 -0.0896463 -9.84492e-19)
(0.998724 -0.0892875 7.88601e-19)
(0.999084 -0.0887213 6.39173e-19)
(0.999425 -0.0879406 2.67785e-18)
(0.999817 -0.0868787 1.9527e-19)
(1.0003 -0.0855089 1.27522e-18)
(1.00118 -0.0835081 1.83966e-18)
(1.00158 -0.0793 -2.13771e-18)
(1.00351 -0.0734481 -6.30304e-19)
(0.995958 -0.0899511 5.24392e-21)
(0.995979 -0.0899331 1.7912e-21)
(0.995989 -0.089907 -1.82787e-20)
(0.995984 -0.089874 1.70789e-20)
(0.995974 -0.0898408 -7.41168e-21)
(0.995965 -0.0898184 1.29411e-20)
(0.995957 -0.0898116 4.29295e-21)
(0.995951 -0.089813 -6.17347e-20)
(0.995947 -0.089813 2.63471e-20)
(0.995945 -0.089814 -1.72578e-20)
(0.995944 -0.0898221 1.04603e-20)
(0.995944 -0.0898451 3.89625e-20)
(0.995945 -0.0898801 -7.18147e-21)
(0.995946 -0.0899223 2.24271e-20)
(0.995947 -0.0899659 -9.26401e-20)
(0.99595 -0.0900062 3.52347e-20)
(0.995953 -0.090045 1.50769e-20)
(0.995958 -0.0900802 -3.91936e-20)
(0.995962 -0.0901165 7.60277e-20)
(0.995969 -0.0901507 2.37747e-20)
(0.995975 -0.0901875 -3.021e-21)
(0.995983 -0.0902228 -2.47726e-20)
(0.995993 -0.0902611 9.66039e-20)
(0.996003 -0.0902976 -2.58062e-19)
(0.996014 -0.0903375 1.31659e-19)
(0.996026 -0.0903747 5.30812e-20)
(0.99604 -0.0904161 -8.67896e-20)
(0.996055 -0.090456 1.48208e-19)
(0.996072 -0.0905009 -7.2359e-20)
(0.996091 -0.0905505 -3.52056e-20)
(0.996113 -0.0906139 -6.51067e-20)
(0.996139 -0.0906911 -2.31129e-20)
(0.996165 -0.0907543 7.03488e-20)
(0.996187 -0.0907825 -2.00013e-19)
(0.996209 -0.0907949 3.67271e-19)
(0.996241 -0.0908253 -2.61571e-20)
(0.996285 -0.0908845 1.67885e-19)
(0.996341 -0.090961 -4.11556e-19)
(0.996408 -0.0910414 -1.16115e-19)
(0.996489 -0.091118 1.18081e-21)
(0.996583 -0.0911859 -6.37056e-20)
(0.996694 -0.0912398 6.09613e-21)
(0.996822 -0.0912746 -1.97983e-19)
(0.996966 -0.0912829 3.94242e-20)
(0.997128 -0.0912601 6.11403e-20)
(0.997306 -0.0911994 -2.82114e-19)
(0.997499 -0.0910951 1.89684e-19)
(0.99771 -0.0909468 -2.64244e-21)
(0.997929 -0.0907449 -4.80506e-20)
(0.998174 -0.0904944 3.44685e-19)
(0.998425 -0.0901801 -1.6979e-19)
(0.998756 -0.0898388 5.39997e-19)
(0.999175 -0.0894279 -1.58648e-18)
(0.999606 -0.088798 -3.05083e-19)
(1.00002 -0.0879341 2.20524e-18)
(1.00047 -0.0867641 -9.5018e-19)
(1.00103 -0.0852631 3.31505e-18)
(1.00197 -0.0831365 9.28169e-19)
(1.0023 -0.0788341 7.74773e-18)
(1.00401 -0.0730727 2.21219e-18)
(0.995937 -0.0902252 -1.1491e-21)
(0.995953 -0.0902132 -4.42206e-21)
(0.995955 -0.0901948 -3.76146e-21)
(0.995941 -0.0901678 3.56541e-20)
(0.995924 -0.0901364 -1.94069e-20)
(0.99591 -0.090113 -2.27086e-20)
(0.995898 -0.090105 -8.25675e-21)
(0.995888 -0.0901062 -3.32465e-20)
(0.995881 -0.0901056 2.0608e-20)
(0.995876 -0.0901039 3.05647e-21)
(0.995872 -0.0901074 1.17299e-21)
(0.995871 -0.0901262 8.03994e-20)
(0.995871 -0.0901594 -5.57281e-20)
(0.995872 -0.0902028 -6.58383e-21)
(0.995874 -0.09025 6.01153e-20)
(0.995878 -0.0902949 -3.24703e-20)
(0.995884 -0.0903383 -1.19221e-20)
(0.99589 -0.0903779 1.91279e-20)
(0.995898 -0.0904184 5.88884e-20)
(0.995906 -0.0904567 3.05758e-20)
(0.995916 -0.0904976 9.74692e-21)
(0.995927 -0.0905371 -7.58591e-20)
(0.995939 -0.0905794 3.6339e-20)
(0.995953 -0.0906202 6.76851e-20)
(0.995967 -0.0906641 -1.39122e-19)
(0.995983 -0.0907055 4.22709e-20)
(0.996 -0.0907508 -1.6507e-19)
(0.996018 -0.0907948 1.30143e-19)
(0.996037 -0.0908435 1.07291e-19)
(0.996058 -0.090897 -1.65262e-19)
(0.996083 -0.0909643 -7.32768e-20)
(0.996111 -0.091045 9.43156e-20)
(0.996138 -0.0911129 3.07862e-20)
(0.996161 -0.0911469 -7.97499e-20)
(0.996185 -0.0911652 -9.39796e-20)
(0.996217 -0.0912022 -1.08436e-19)
(0.996262 -0.0912681 6.95233e-20)
(0.996318 -0.0913518 1.53173e-19)
(0.996386 -0.09144 5.63773e-20)
(0.996467 -0.0915249 -4.05031e-20)
(0.996563 -0.0916012 4.04953e-19)
(0.996678 -0.0916634 -4.26316e-20)
(0.996814 -0.0917053 3.3305e-19)
(0.996971 -0.0917189 -4.82866e-19)
(0.997151 -0.0916979 4.97593e-20)
(0.997356 -0.0916343 2.12976e-20)
(0.997583 -0.091521 -4.13816e-20)
(0.997839 -0.0913559 7.58991e-20)
(0.998113 -0.0911289 2.89234e-19)
(0.998422 -0.0908436 -4.95132e-19)
(0.998744 -0.0904844 -9.65338e-19)
(0.999157 -0.0900887 -7.1914e-19)
(0.999662 -0.0896166 1.61315e-18)
(1.00018 -0.0889108 -1.09205e-18)
(1.00067 -0.087951 -3.09046e-18)
(1.00119 -0.0866675 -1.71091e-18)
(1.00181 -0.0850459 -3.23649e-18)
(1.00279 -0.0828298 -2.01823e-18)
(1.00304 -0.0784952 -7.673e-18)
(1.00447 -0.0728935 6.86765e-18)
(0.995899 -0.0905365 1.46179e-21)
(0.995905 -0.0905297 -4.30072e-21)
(0.995899 -0.0905197 1.50313e-20)
(0.995878 -0.0905015 3.81352e-21)
(0.995857 -0.0904757 -1.98042e-20)
(0.995841 -0.0904544 -2.22119e-20)
(0.995829 -0.0904471 5.14634e-20)
(0.995819 -0.0904492 -5.47643e-20)
(0.995811 -0.090449 -1.29201e-20)
(0.995806 -0.0904455 3.22295e-20)
(0.995804 -0.0904449 2.88545e-20)
(0.995803 -0.0904583 8.49278e-20)
(0.995803 -0.0904873 -4.74461e-20)
(0.995805 -0.0905287 -7.7997e-20)
(0.995809 -0.090576 1.67812e-20)
(0.995816 -0.0906224 -5.94482e-20)
(0.995824 -0.0906673 4.40887e-20)
(0.995834 -0.0907085 -7.0311e-20)
(0.995845 -0.0907499 1.2238e-20)
(0.995859 -0.0907892 -2.04724e-20)
(0.995873 -0.0908311 -1.17529e-20)
(0.995889 -0.0908717 -5.46912e-20)
(0.995907 -0.090915 6.96017e-21)
(0.995926 -0.0909573 1.15089e-19)
(0.995946 -0.0910024 -3.70871e-20)
(0.995967 -0.0910453 1.22685e-20)
(0.99599 -0.0910921 3.26661e-20)
(0.996015 -0.0911375 -4.03068e-20)
(0.996041 -0.0911875 -7.28084e-21)
(0.996068 -0.0912419 5.2041e-20)
(0.996099 -0.0913101 5.66583e-20)
(0.996133 -0.091392 -4.18718e-20)
(0.996166 -0.0914612 -1.23143e-19)
(0.996195 -0.0914971 -1.62487e-19)
(0.996224 -0.0915186 2.50695e-19)
(0.996262 -0.0915588 6.3978e-20)
(0.996311 -0.091628 4.08358e-20)
(0.996372 -0.0917157 1.69643e-19)
(0.996444 -0.0918086 -1.52184e-19)
(0.996529 -0.0918988 8.67726e-20)
(0.996631 -0.0919815 -1.26114e-20)
(0.996751 -0.0920508 1.56259e-20)
(0.996894 -0.0921001 -1.22087e-19)
(0.997062 -0.0921209 2.18523e-19)
(0.997258 -0.092106 -1.8895e-19)
(0.997483 -0.092046 4.51414e-20)
(0.99774 -0.0919327 -4.53082e-20)
(0.998033 -0.0917618 2.99166e-20)
(0.998356 -0.0915219 -1.58606e-19)
(0.998723 -0.0912142 5.47485e-19)
(0.999113 -0.0908214 9.56645e-20)
(0.999603 -0.0903807 -3.5261e-20)
(1.00019 -0.0898547 4.00822e-19)
(1.00079 -0.0890803 1.27945e-18)
(1.00135 -0.0880343 -6.70862e-20)
(1.00193 -0.0866542 -1.85209e-18)
(1.0026 -0.0849387 2.12516e-18)
(1.0036 -0.0826661 6.86573e-19)
(1.00379 -0.0783238 9.83237e-19)
(1.00496 -0.0728633 -5.20331e-18)
(0.995822 -0.0909048 2.67223e-21)
(0.995819 -0.0909075 -2.21629e-21)
(0.995809 -0.0909082 1.98012e-21)
(0.995785 -0.0909015 1.24354e-20)
(0.995764 -0.0908844 1.76468e-20)
(0.995751 -0.0908677 -6.75226e-20)
(0.995742 -0.0908625 4.77198e-20)
(0.995736 -0.090866 9.58824e-21)
(0.995733 -0.0908664 -2.96488e-21)
(0.995733 -0.0908613 -1.99373e-20)
(0.995734 -0.0908562 5.90704e-20)
(0.995737 -0.0908632 -1.91958e-20)
(0.99574 -0.0908854 -2.54732e-20)
(0.995745 -0.0909213 -7.27145e-20)
(0.995753 -0.0909649 1.41641e-19)
(0.995762 -0.0910086 -2.93685e-20)
(0.995775 -0.0910515 -2.37175e-20)
(0.995789 -0.0910906 -6.60821e-20)
(0.995806 -0.09113 7.12601e-20)
(0.995825 -0.0911671 3.7558e-20)
(0.995846 -0.091207 -1.71501e-20)
(0.995869 -0.0912458 2.75269e-20)
(0.995894 -0.0912874 -1.15343e-19)
(0.99592 -0.0913281 8.85449e-21)
(0.995949 -0.0913717 6.06155e-20)
(0.995979 -0.0914131 -1.12214e-20)
(0.996012 -0.0914583 -1.67433e-19)
(0.996045 -0.0915021 1.82842e-20)
(0.996081 -0.0915504 1.4047e-19)
(0.996119 -0.0916028 -3.43163e-20)
(0.996161 -0.0916688 -6.68249e-20)
(0.996205 -0.0917479 3.35873e-20)
(0.99625 -0.0918151 1.02972e-19)
(0.99629 -0.09185 2.31994e-19)
(0.99633 -0.0918702 -3.70842e-20)
(0.996379 -0.0919097 3.17331e-20)
(0.99644 -0.091978 -3.0235e-19)
(0.996513 -0.092065 -8.72966e-20)
(0.996596 -0.0921579 4.80189e-20)
(0.996691 -0.0922489 -1.73924e-19)
(0.996803 -0.0923335 -4.20017e-20)
(0.996934 -0.0924061 7.20458e-20)
(0.997088 -0.09246 2.89853e-20)
(0.997268 -0.0924865 7.84639e-20)
(0.997479 -0.0924781 1.83422e-19)
(0.997724 -0.0924244 -4.3119e-20)
(0.998005 -0.0923162 -1.05226e-19)
(0.99833 -0.0921472 -1.93302e-19)
(0.998692 -0.0919043 2.13416e-20)
(0.999108 -0.091586 -7.15857e-19)
(0.999554 -0.0911727 1.23813e-18)
(1.00011 -0.0907008 1.92635e-18)
(1.00077 -0.0901348 -1.84616e-18)
(1.00143 -0.0893082 -1.8942e-18)
(1.00205 -0.088195 9.65989e-19)
(1.00268 -0.0867412 6.01884e-18)
(1.00338 -0.0849572 -1.63111e-18)
(1.00441 -0.0826461 2.12814e-18)
(1.00455 -0.0782932 3.9603e-18)
(1.00552 -0.0729214 -4.38933e-18)
(0.995695 -0.0913472 -2.81663e-21)
(0.995688 -0.0913547 3.02872e-21)
(0.99568 -0.0913626 2.0163e-20)
(0.995659 -0.0913661 -2.5815e-20)
(0.995643 -0.0913584 4.57996e-20)
(0.995636 -0.0913479 -6.58287e-20)
(0.995634 -0.0913465 1.82489e-20)
(0.995636 -0.0913529 -8.10738e-22)
(0.995642 -0.0913557 3.82232e-20)
(0.99565 -0.0913512 -1.9722e-20)
(0.995659 -0.0913441 5.5412e-21)
(0.995669 -0.0913462 5.51107e-21)
(0.995679 -0.0913624 -8.49863e-20)
(0.995689 -0.0913924 2.53931e-20)
(0.995701 -0.0914308 5.55906e-20)
(0.995716 -0.09147 1.32378e-21)
(0.995733 -0.0915085 -8.63227e-20)
(0.995753 -0.0915432 3.45725e-20)
(0.995776 -0.0915777 1.52808e-19)
(0.995802 -0.0916097 -9.82483e-20)
(0.99583 -0.0916443 -7.03821e-20)
(0.995861 -0.0916781 5.83765e-20)
(0.995895 -0.0917147 3.46128e-20)
(0.995931 -0.0917508 3.69337e-20)
(0.99597 -0.0917898 -7.13634e-20)
(0.996011 -0.0918268 -1.44037e-19)
(0.996054 -0.0918676 1.09616e-19)
(0.9961 -0.091907 1.44585e-19)
(0.996149 -0.0919507 3.19066e-20)
(0.9962 -0.0919983 -7.07333e-20)
(0.996255 -0.092059 3.06281e-20)
(0.996315 -0.092133 4.29303e-20)
(0.996374 -0.0921949 -8.34717e-20)
(0.996431 -0.0922248 -2.19969e-20)
(0.996488 -0.0922411 -1.2976e-19)
(0.996554 -0.0922762 -3.52536e-20)
(0.996632 -0.0923396 -1.50407e-20)
(0.996722 -0.0924218 7.30685e-20)
(0.996823 -0.0925105 -8.60933e-20)
(0.996936 -0.0925979 2.60013e-20)
(0.997064 -0.0926799 2.53743e-20)
(0.997211 -0.0927514 8.14385e-22)
(0.997382 -0.0928058 -1.32956e-19)
(0.997579 -0.0928348 -1.10818e-19)
(0.997808 -0.0928306 -7.31381e-20)
(0.998072 -0.0927827 -4.07649e-20)
(0.998376 -0.0926811 -1.10163e-19)
(0.998728 -0.0925179 1.08174e-19)
(0.999123 -0.0922784 -1.15561e-19)
(0.999577 -0.0919583 9.5232e-19)
(1.00007 -0.0915353 -5.87558e-19)
(1.00068 -0.0910449 -2.06698e-18)
(1.00139 -0.0904526 8.87824e-20)
(1.00211 -0.0895896 2.61693e-18)
(1.00278 -0.0884268 -1.39043e-18)
(1.00344 -0.0869177 -1.51161e-18)
(1.00417 -0.0850806 -2.26458e-18)
(1.00521 -0.0827342 -6.0539e-18)
(1.00532 -0.0783527 -7.34408e-18)
(1.00614 -0.073011 1.00472e-17)
(0.995519 -0.0918645 -2.32991e-21)
(0.995516 -0.0918755 3.30225e-21)
(0.995516 -0.0918882 6.6792e-22)
(0.995504 -0.0919 1.20009e-20)
(0.995496 -0.091901 -1.78402e-20)
(0.995499 -0.0918968 -3.56128e-20)
(0.995508 -0.0918993 1.25814e-20)
(0.995521 -0.0919086 -1.59677e-20)
(0.995538 -0.091914 3.42731e-20)
(0.995557 -0.0919111 -6.66561e-21)
(0.995578 -0.0919035 -2.12053e-20)
(0.995599 -0.0919028 1.73698e-20)
(0.995618 -0.0919144 2.69356e-20)
(0.995637 -0.0919391 7.12769e-20)
(0.995656 -0.0919721 -1.26528e-19)
(0.995677 -0.0920062 6.24556e-20)
(0.9957 -0.0920394 8.77092e-21)
(0.995726 -0.0920685 -5.73396e-20)
(0.995755 -0.0920967 -3.37009e-20)