/*--------------------------------*- C++ -*----------------------------------*\
  =========                 |
  \\      /  F ield         | OpenFOAM: The Open Source CFD Toolbox
   \\    /   O peration     | Website:  https://openfoam.org
    \\  /    A nd           | Version:  6.0
     \\/     M anipulation  |
\*---------------------------------------------------------------------------*/
FoamFile
{
    version     2.0;
    format      ascii;
    class       surfaceScalarField;
    location    "13";
    object      phi;
}
// * * * * * * * * * * * * * * * * * * * * * * * * * * * * * * * * * * * * * //

dimensions      [0 3 -1 0 0 0 0];

internalField   nonuniform List<scalar> 
123526
(
3.54371e-07
2.34172e-05
3.7044e-08
7.76507e-07
2.53182e-05
1.23501e-06
2.73735e-05
1.7288e-06
2.95954e-05
2.26509e-06
3.19976e-05
2.84295e-06
3.45945e-05
3.47034e-06
3.7402e-05
4.14699e-06
4.0437e-05
4.88236e-06
4.37171e-05
5.67648e-06
4.72632e-05
6.53785e-06
5.10972e-05
7.46771e-06
5.52416e-05
8.47583e-06
5.97214e-05
9.56691e-06
6.4561e-05
1.07524e-05
6.9791e-05
1.20331e-05
7.54465e-05
1.34204e-05
8.15581e-05
1.49259e-05
8.81558e-05
1.65599e-05
9.52869e-05
1.8326e-05
0.000102995
2.02455e-05
0.000111313
2.23273e-05
0.000120297
2.45805e-05
0.000130004
2.70307e-05
0.000140469
2.96848e-05
0.000151775
3.2562e-05
0.000163966
3.56849e-05
0.000177111
3.9065e-05
0.000191287
4.27343e-05
0.000206549
4.67032e-05
0.000222992
5.10071e-05
0.000240672
5.56618e-05
0.000259685
6.07018e-05
0.000280095
6.61519e-05
0.000301985
7.20375e-05
0.000325431
7.83976e-05
0.000350486
8.52549e-05
0.000377223
9.2646e-05
0.000405671
0.000100607
0.00043585
0.000109164
0.000467756
0.000118351
0.000501335
0.0001282
0.000536483
0.000138737
0.000573033
0.000149984
0.000610727
0.000161956
0.000649192
0.000174661
0.000687911
0.000188092
0.000726189
0.000202225
0.000763104
0.000217012
0.000797453
0.000232372
0.000827677
0.000248196
0.000851785
0.000264308
0.000867252
0.000280521
0.00087086
0.000296527
0.000858711
0.000311971
0.000826005
0.000326354
0.000767087
0.000339081
0.00067517
0.000349514
0.000542467
0.000356543
0.000359089
0.000115113
0.000353603
3.59647e-07
2.30295e-05
2.80328e-08
7.77589e-07
2.48991e-05
1.23134e-06
2.69203e-05
1.71999e-06
2.91055e-05
2.25042e-06
3.14679e-05
2.82191e-06
3.40218e-05
3.44202e-06
3.67827e-05
4.11073e-06
3.97672e-05
4.83701e-06
4.29918e-05
5.6212e-06
4.64781e-05
6.47129e-06
5.02482e-05
7.38886e-06
5.43234e-05
8.38307e-06
5.87283e-05
9.45899e-06
6.34846e-05
1.06274e-05
6.86235e-05
1.18896e-05
7.41837e-05
1.32561e-05
8.01923e-05
1.47391e-05
8.66721e-05
1.63481e-05
9.36783e-05
1.80871e-05
0.000101255
1.99764e-05
0.000109424
2.20254e-05
0.000118247
2.42423e-05
0.000127787
2.6653e-05
0.000138057
2.92633e-05
0.000149164
3.20931e-05
0.000161135
3.51631e-05
0.000174041
3.84861e-05
0.000187963
4.2092e-05
0.000202943
4.59921e-05
0.000219091
5.02196e-05
0.000236443
5.47914e-05
0.000255112
5.97397e-05
0.000275145
6.50902e-05
0.000296634
7.08668e-05
0.000319653
7.71081e-05
0.000344242
8.38363e-05
0.000370492
9.10872e-05
0.000398416
9.88959e-05
0.000428036
0.00010729
0.000459357
0.000116301
0.000492317
0.000125963
0.000526812
0.0001363
0.000562685
0.000147335
0.000599679
0.000159084
0.000637427
0.000171552
0.000675422
0.000184733
0.000712983
0.0001986
0.000749205
0.000213107
0.000782907
0.000228174
0.00081256
0.000243696
0.000836205
0.000259501
0.000851362
0.000275411
0.000854883
0.000291126
0.000842933
0.0003063
0.000810795
0.000320441
0.000752908
0.000332948
0.000662629
0.000343242
0.000532125
0.000349855
0.000352437
0.000114361
0.000350521
3.6633e-07
2.26471e-05
1.61061e-08
7.78623e-07
2.44857e-05
1.22606e-06
2.64735e-05
1.70804e-06
2.86224e-05
2.23103e-06
3.09456e-05
2.79459e-06
3.34571e-05
3.4059e-06
3.61721e-05
4.06516e-06
3.91069e-05
4.78095e-06
4.2277e-05
5.5538e-06
4.57045e-05
6.39138e-06
4.94116e-05
7.29533e-06
5.34188e-05
8.27459e-06
5.77501e-05
9.33409e-06
6.24245e-05
1.04845e-05
6.74741e-05
1.17269e-05
7.29407e-05
1.30718e-05
7.88481e-05
1.45309e-05
8.52122e-05
1.61137e-05
9.2096e-05
1.7824e-05
9.95436e-05
1.96817e-05
0.000107566
2.1696e-05
0.000116232
2.3875e-05
0.000125608
2.6244e-05
0.000135688
2.88086e-05
0.0001466
3.15883e-05
0.000158355
3.46034e-05
0.000171026
3.78665e-05
0.000184699
4.14065e-05
0.000199402
4.5235e-05
0.000215262
4.9384e-05
0.000232293
5.38705e-05
0.000250624
5.87263e-05
0.00027029
6.3976e-05
0.000291385
6.96439e-05
0.000313985
7.57676e-05
0.000338117
8.23693e-05
0.000363888
8.94843e-05
0.000391299
9.71474e-05
0.000420371
0.000105386
0.000451116
0.000114231
0.000483469
0.000123716
0.000517323
0.000133865
0.000552531
0.0001447
0.000588839
0.000156235
0.000625885
0.000168475
0.000663174
0.000181413
0.000700037
0.000195022
0.000735587
0.000209257
0.000768663
0.000224042
0.000797764
0.000239277
0.000820968
0.000254792
0.000835829
0.00027042
0.000839262
0.000285863
0.000827481
0.000300781
0.000795885
0.00031469
0.000738996
0.000326986
0.000650336
0.00033704
0.000522076
0.000343872
0.000345612
0.000112797
0.000345477
3.62202e-07
2.22713e-05
1.37854e-08
7.67496e-07
2.40794e-05
1.20733e-06
2.60342e-05
1.68114e-06
2.81475e-05
2.19525e-06
3.04322e-05
2.74928e-06
3.2902e-05
3.35021e-06
3.55719e-05
3.99834e-06
3.84579e-05
4.70197e-06
4.15742e-05
5.46179e-06
4.49439e-05
6.2851e-06
4.85892e-05
7.17378e-06
5.25296e-05
8.1363e-06
5.67885e-05
9.17782e-06
6.13825e-05
1.03084e-05
6.63443e-05
1.15296e-05
7.17191e-05
1.28512e-05
7.7527e-05
1.42851e-05
8.37777e-05
1.58402e-05
9.05413e-05
1.75206e-05
9.78625e-05
1.93456e-05
0.000105741
2.13242e-05
0.000114252
2.34644e-05
0.000123468
2.5791e-05
0.00013336
2.83094e-05
0.000144081
3.10389e-05
0.000155625
3.39993e-05
0.000168065
3.72029e-05
0.000181495
4.06782e-05
0.000195927
4.44366e-05
0.000211503
4.85093e-05
0.000228219
5.29135e-05
0.000246219
5.768e-05
0.000265523
6.28336e-05
0.000286232
6.83976e-05
0.000308421
7.44096e-05
0.000332104
8.08913e-05
0.000357405
8.78777e-05
0.000384312
9.54029e-05
0.000412844
0.000103493
0.000443024
0.000112181
0.00047478
0.000121496
0.000508006
0.000131464
0.000542562
0.000142103
0.000578198
0.000153428
0.000614558
0.000165444
0.000651156
0.00017814
0.000687336
0.000191495
0.000722226
0.000205463
0.000754687
0.000219972
0.000783241
0.000234927
0.000805997
0.000250162
0.000820552
0.000265516
0.000823881
0.000280695
0.000812273
0.000295362
0.000781204
0.00030904
0.000725298
0.000321132
0.000638221
0.000330959
0.000512215
0.000337644
0.000338901
0.00011119
0.000339191
3.51663e-07
2.19021e-05
1.73459e-08
7.4965e-07
2.36804e-05
1.18146e-06
2.56028e-05
1.64675e-06
2.76812e-05
2.15154e-06
2.9928e-05
2.69564e-06
3.23569e-05
3.28576e-06
3.49824e-05
3.9223e-06
3.78204e-05
4.61336e-06
4.08841e-05
5.35959e-06
4.4197e-05
6.16829e-06
4.77816e-05
7.04111e-06
5.16562e-05
7.98661e-06
5.58441e-05
9.00957e-06
6.0359e-05
1.01202e-05
6.52346e-05
1.13196e-05
7.05191e-05
1.26179e-05
7.62295e-05
1.40263e-05
8.23687e-05
1.55539e-05
8.90142e-05
1.72043e-05
9.62112e-05
1.8997e-05
0.000103949
2.09403e-05
0.000112308
2.30424e-05
0.000121366
2.53275e-05
0.000131075
2.78009e-05
0.000141608
3.04815e-05
0.000152944
3.33888e-05
0.000165158
3.6535e-05
0.000178349
3.99478e-05
0.000192514
4.36386e-05
0.000207811
4.76381e-05
0.000224218
5.1963e-05
0.000241893
5.66439e-05
0.000260843
6.17049e-05
0.000281172
6.71692e-05
0.000302957
7.30734e-05
0.000326199
7.9439e-05
0.000351039
8.63003e-05
0.00037745
9.36909e-05
0.000405453
0.000101637
0.000435078
0.000110168
0.000466249
0.000119315
0.000498858
0.000129102
0.000532775
0.000139546
0.000567753
0.000150662
0.000603442
0.000162453
0.000639365
0.000174911
0.000674877
0.000188014
0.000709123
0.00020172
0.000740983
0.000215961
0.000769002
0.000230643
0.000791323
0.000245607
0.000805581
0.000260693
0.000808811
0.000275614
0.000797355
0.000290034
0.000766799
0.000303482
0.000711854
0.000315374
0.000626337
0.000325005
0.000502594
0.000331519
0.0003324
0.000109594
0.000333164
3.40341e-07
2.15398e-05
2.19732e-08
7.3107e-07
2.32887e-05
1.155e-06
2.51794e-05
1.61181e-06
2.72234e-05
2.10738e-06
2.9433e-05
2.64157e-06
3.18217e-05
3.22092e-06
3.44037e-05
3.8459e-06
3.71946e-05
4.52436e-06
4.02064e-05
5.25711e-06
4.34635e-05
6.05112e-06
4.69885e-05
6.90824e-06
5.07986e-05
7.83663e-06
5.49167e-05
8.84126e-06
5.9354e-05
9.93192e-06
6.41448e-05
1.11099e-05
6.93407e-05
1.23849e-05
7.49552e-05
1.37681e-05
8.09848e-05
1.52685e-05
8.75143e-05
1.68895e-05
9.45894e-05
1.86502e-05
0.000102188
2.0559e-05
0.000110399
2.26237e-05
0.000119302
2.48681e-05
0.00012883
2.72976e-05
0.000139179
2.99305e-05
0.00015031
3.2786e-05
0.000162302
3.58762e-05
0.000175258
3.92282e-05
0.000189161
4.28531e-05
0.000204186
4.67812e-05
0.000220289
5.10289e-05
0.000237645
5.56261e-05
0.000256246
6.05967e-05
0.000276203
6.59632e-05
0.000297591
7.17615e-05
0.000320401
7.80127e-05
0.000344788
8.47505e-05
0.000370712
9.20077e-05
0.000398196
9.98094e-05
0.000427276
0.000108185
0.000457873
0.000117166
0.000489878
0.000126772
0.000523169
0.000137023
0.000557503
0.000147931
0.000592535
0.000159502
0.000627797
0.000171727
0.000662655
0.000184586
0.000696267
0.000198038
0.000727532
0.000212019
0.00075502
0.000226439
0.000776901
0.00024114
0.000790855
0.000255966
0.000793972
0.000270635
0.000782674
0.000284812
0.000752618
0.000298033
0.000698622
0.000309728
0.000614628
0.000319178
0.000493119
0.000325589
0.000325971
0.000107559
0.000327579
3.29926e-07
2.11842e-05
2.56306e-08
7.13422e-07
2.29042e-05
1.12953e-06
2.47637e-05
1.57793e-06
2.6774e-05
2.06439e-06
2.89471e-05
2.58878e-06
3.12963e-05
3.15753e-06
3.38355e-05
3.77108e-06
3.65801e-05
4.43717e-06
3.95411e-05
5.15656e-06
4.27435e-05
5.93613e-06
4.62098e-05
6.77766e-06
4.99565e-05
7.68924e-06
5.40061e-05
8.67566e-06
5.83671e-05
9.74664e-06
6.30747e-05
1.09033e-05
6.81835e-05
1.21554e-05
7.37038e-05
1.35137e-05
7.96258e-05
1.49871e-05
8.60414e-05
1.65791e-05
9.29967e-05
1.83083e-05
0.00010046
2.01828e-05
0.000108524
2.22106e-05
0.000117274
2.44148e-05
0.000126625
2.68008e-05
0.000136793
2.93867e-05
0.000147724
3.21912e-05
0.000159498
3.52261e-05
0.000172223
3.85182e-05
0.000185869
4.20782e-05
0.000200626
4.59359e-05
0.00021643
5.01074e-05
0.000233473
5.46222e-05
0.000251732
5.95034e-05
0.000271323
6.47733e-05
0.000292322
7.0467e-05
0.000314707
7.66051e-05
0.000338649
8.32206e-05
0.000364096
9.03455e-05
0.000391071
9.80047e-05
0.000419617
0.000106227
0.000449651
0.000115042
0.000481064
0.000124471
0.000513741
0.000134532
0.000547443
0.000145238
0.00058183
0.000156594
0.000616442
0.000168593
0.000650656
0.000181216
0.000683646
0.000194426
0.000714325
0.000208158
0.000741289
0.000222326
0.000762743
0.000236773
0.000776401
0.000251347
0.000779414
0.00026577
0.000768259
0.000279709
0.000738696
0.000292706
0.000685632
0.000304203
0.000603141
0.000313477
0.000483857
0.000319795
0.00031967
0.00010529
0.000322116
3.19571e-07
2.08351e-05
2.95416e-08
6.96091e-07
2.25267e-05
1.10463e-06
2.43556e-05
1.54487e-06
2.63327e-05
2.02247e-06
2.84701e-05
2.53732e-06
3.07804e-05
3.09568e-06
3.32778e-05
3.69808e-06
3.59769e-05
4.35201e-06
3.8888e-05
5.05835e-06
4.20365e-05
5.8237e-06
4.54453e-05
6.64999e-06
4.91298e-05
7.54495e-06
5.3112e-05
8.51352e-06
5.73982e-05
9.565e-06
6.20241e-05
1.07007e-05
6.70473e-05
1.19301e-05
7.24751e-05
1.32638e-05
7.82915e-05
1.47105e-05
8.45952e-05
1.62737e-05
9.14329e-05
1.79716e-05
9.87621e-05
1.98122e-05
0.000106682
2.18034e-05
0.000115283
2.39679e-05
0.00012446
2.63109e-05
0.00013445
2.88501e-05
0.000145185
3.1604e-05
0.000156744
3.45842e-05
0.000169243
3.78169e-05
0.000182636
4.13127e-05
0.000197129
4.51007e-05
0.000212641
4.91968e-05
0.000229376
5.363e-05
0.0002473
5.84228e-05
0.000266532
6.35971e-05
0.000287149
6.91873e-05
0.000309117
7.52136e-05
0.000332623
8.17083e-05
0.000357601
8.87027e-05
0.000384077
9.62213e-05
0.000412099
0.000104292
0.000441581
0.000112945
0.000472413
0.0001222
0.000504488
0.000132076
0.00053757
0.000142585
0.000571324
0.000153734
0.000605297
0.000165516
0.000638879
0.000177913
0.000671253
0.000190889
0.000701354
0.000204383
0.000727799
0.000218308
0.000748821
0.00023251
0.000762181
0.000246839
0.000765079
0.00026102
0.000754074
0.000274724
0.000724993
0.0002875
0.000672852
0.0002988
0.000591832
0.000307902
0.000474735
0.000314107
0.000313451
0.000102752
0.000316611
3.10901e-07
2.04923e-05
3.1681e-08
6.80518e-07
2.21561e-05
1.0816e-06
2.39549e-05
1.51379e-06
2.58995e-05
1.9827e-06
2.80017e-05
2.48815e-06
3.0274e-05
3.03638e-06
3.27301e-05
3.62777e-06
3.53847e-05
4.26983e-06
3.82467e-05
4.96323e-06
4.13425e-05
5.71468e-06
4.46948e-05
6.52581e-06
4.83182e-05
7.40451e-06
5.22343e-05
8.35531e-06
5.64469e-05
9.38766e-06
6.09926e-05
1.05026e-05
6.59319e-05
1.17095e-05
7.12689e-05
1.30189e-05
7.69816e-05
1.44392e-05
8.31754e-05
1.59738e-05
8.98976e-05
1.76408e-05
9.70955e-05
1.94479e-05
0.000104874
2.14028e-05
0.000113329
2.35278e-05
0.000122334
2.58281e-05
0.00013215
2.83212e-05
0.000142691
3.1025e-05
0.00015404
3.3951e-05
0.000166317
3.71249e-05
0.000179462
4.05571e-05
0.000193697
4.42762e-05
0.000208922
4.82978e-05
0.000225354
5.26502e-05
0.000242948
5.73557e-05
0.000261828
6.24355e-05
0.00028207
6.79236e-05
0.000303629
7.38396e-05
0.000326707
8.02152e-05
0.000351226
8.70813e-05
0.000377211
9.44618e-05
0.000404719
0.000102385
0.000433659
0.000110878
0.00046392
0.000119964
0.000495403
0.000129659
0.000527876
0.000139978
0.000561006
0.000150926
0.00059435
0.000162499
0.000627307
0.000174679
0.000659075
0.000187431
0.000688604
0.000200694
0.000714537
0.000214383
0.000735138
0.000228347
0.000748207
0.000242436
0.000751004
0.00025638
0.000740139
0.000269853
0.000711538
0.000282408
0.000660304
0.000293512
0.000580739
0.000302448
0.00046581
0.000308524
0.000307395
0.000100265
0.000311062
3.05272e-07
2.01558e-05
3.11265e-08
6.68101e-07
2.17923e-05
1.06182e-06
2.35616e-05
1.48605e-06
2.54743e-05
1.94632e-06
2.75419e-05
2.44246e-06
2.97769e-05
2.98055e-06
3.21926e-05
3.56105e-06
3.48034e-05
4.19123e-06
3.76173e-05
4.87187e-06
4.06613e-05
5.60942e-06
4.39581e-05
6.40564e-06
4.75215e-05
7.26809e-06
5.13728e-05
8.2014e-06
5.55133e-05
9.2147e-06
5.99802e-05
1.03091e-05
6.48371e-05
1.14938e-05
7.00849e-05
1.27791e-05
7.56957e-05
1.41733e-05
8.17817e-05
1.56797e-05
8.83905e-05
1.7316e-05
9.54596e-05
1.90899e-05
0.0001031
2.1009e-05
0.00011141
2.3095e-05
0.000120248
2.53533e-05
0.000129892
2.78006e-05
0.000140244
3.0455e-05
0.000151386
3.33274e-05
0.000163445
3.64432e-05
0.000176347
3.98126e-05
0.000190327
4.34637e-05
0.00020527
4.74117e-05
0.000221406
5.16845e-05
0.000238676
5.63038e-05
0.00025721
6.12907e-05
0.000277084
6.66782e-05
0.000298242
7.24858e-05
0.000320899
7.87445e-05
0.000344967
8.54848e-05
0.000370471
9.273e-05
0.000397475
0.000100508
0.000425882
0.000108847
0.000455582
0.000117767
0.000486484
0.000127288
0.000518358
0.000137422
0.000550875
0.000148176
0.0005836
0.000159546
0.000615941
0.000171516
0.000647111
0.00018405
0.000676076
0.000197091
0.000701503
0.000210551
0.000721683
0.000224281
0.000734463
0.000238134
0.000737149
0.000251843
0.000726431
0.000265087
0.0006983
0.000277425
0.000647965
0.000288334
0.000569824
0.000297109
0.000457019
0.00030305
0.000301446
9.77655e-05
0.000305522
3.01467e-07
1.98256e-05
2.86181e-08
6.57473e-07
2.14352e-05
1.04387e-06
2.31756e-05
1.46017e-06
2.5057e-05
1.91191e-06
2.70908e-05
2.39878e-06
2.92891e-05
2.92693e-06
3.16651e-05
3.49661e-06
3.42329e-05
4.11515e-06
3.69996e-05
4.78312e-06
3.99927e-05
5.50705e-06
4.32351e-05
6.28846e-06
4.67396e-05
7.135e-06
5.05273e-05
8.05099e-06
5.45969e-05
9.0456e-06
5.89865e-05
1.01197e-05
6.37624e-05
1.12826e-05
6.89227e-05
1.25441e-05
7.44336e-05
1.39126e-05
8.04138e-05
1.53912e-05
8.69112e-05
1.69974e-05
9.38538e-05
1.87387e-05
0.000101358
2.06224e-05
0.000109527
2.26701e-05
0.000118199
2.48868e-05
0.000127676
2.72892e-05
0.000137841
2.98948e-05
0.000148781
3.27145e-05
0.000160625
3.57731e-05
0.000173288
3.90807e-05
0.000187019
4.26648e-05
0.000201685
4.65404e-05
0.00021753
5.0735e-05
0.000234483
5.52697e-05
0.000252677
6.01652e-05
0.00027219
6.54541e-05
0.000292954
7.11555e-05
0.000315198
7.72999e-05
0.000338823
8.39172e-05
0.000363854
9.10305e-05
0.000390362
9.86672e-05
0.000418246
0.000106855
0.000447395
0.000115615
0.000477725
0.000124966
0.000509008
0.000134921
0.000540921
0.000145487
0.000573035
0.000156661
0.000604768
0.000168426
0.000635346
0.000180749
0.000663754
0.000193571
0.000688681
0.000206806
0.000708452
0.000220308
0.000720949
0.000233927
0.000723539
0.000247404
0.000712963
0.000260419
0.000685302
0.000272542
0.000635851
0.000283257
0.00055912
0.000291875
0.000448412
0.000297683
0.000295659
9.54595e-05
0.00030004
2.98267e-07
1.95015e-05
2.57805e-08
6.47629e-07
2.10849e-05
1.02681e-06
2.27968e-05
1.43531e-06
2.46475e-05
1.8786e-06
2.6648e-05
2.35639e-06
2.88103e-05
2.87465e-06
3.11474e-05
3.43374e-06
3.3673e-05
4.04074e-06
3.63933e-05
4.69635e-06
3.93365e-05
5.40681e-06
4.25254e-05
6.17382e-06
4.59722e-05
7.00465e-06
4.96973e-05
7.90377e-06
5.36974e-05
8.87995e-06
5.80111e-05
9.93432e-06
6.27077e-05
1.10757e-05
6.7782e-05
1.2314e-05
7.31948e-05
1.36572e-05
7.9071e-05
1.51086e-05
8.54592e-05
1.66852e-05
9.22776e-05
1.83943e-05
9.96481e-05
2.02434e-05
0.000107678
2.22534e-05
0.000116189
2.44293e-05
0.000125501
2.67876e-05
0.000135482
2.93454e-05
0.000146223
3.21133e-05
0.000157857
3.51158e-05
0.000170285
3.83628e-05
0.000183772
4.18813e-05
0.000198166
4.5686e-05
0.000213725
4.98038e-05
0.000230366
5.42558e-05
0.000248227
5.9062e-05
0.000267385
6.42544e-05
0.000287761
6.98521e-05
0.0003096
7.58849e-05
0.00033279
8.23823e-05
0.000357357
8.93671e-05
0.000383377
9.68664e-05
0.000410747
0.000104908
0.000439355
0.000113512
0.000469122
0.000122698
0.000499824
0.000132479
0.000531143
0.000142862
0.000562656
0.000153845
0.000593791
0.00016541
0.000623786
0.000177526
0.000651646
0.000190133
0.00067608
0.000203147
0.000695445
0.000216422
0.000707664
0.00022981
0.000710151
0.000243056
0.000699721
0.000255845
0.00067252
0.000267752
0.000623944
0.000278274
0.000548593
0.000286738
0.000439935
0.00029242
0.00028997
9.32086e-05
0.000294648
2.94531e-07
1.91834e-05
2.3141e-08
6.37279e-07
2.0741e-05
1.00939e-06
2.24251e-05
1.41025e-06
2.42456e-05
1.84535e-06
2.62134e-05
2.31425e-06
2.83404e-05
2.82301e-06
3.06392e-05
3.37172e-06
3.31234e-05
3.96762e-06
3.57982e-05
4.61106e-06
3.86923e-05
5.30854e-06
4.18289e-05
6.0613e-06
4.52189e-05
6.87695e-06
4.88827e-05
7.7594e-06
5.28145e-05
8.71773e-06
5.70538e-05
9.7526e-06
6.16723e-05
1.08731e-05
6.66623e-05
1.20885e-05
7.19788e-05
1.34071e-05
7.7753e-05
1.48318e-05
8.40339e-05
1.63794e-05
9.07304e-05
1.80572e-05
9.79697e-05
1.98724e-05
0.000105863
2.18455e-05
0.000114215
2.39816e-05
0.000123365
2.62966e-05
0.000133167
2.88076e-05
0.000143712
3.15249e-05
0.000155139
3.44726e-05
0.000167338
3.76604e-05
0.000180584
4.11147e-05
0.000194711
4.48502e-05
0.00020999
4.88931e-05
0.000226324
5.32642e-05
0.000243857
5.79832e-05
0.000262667
6.30817e-05
0.000282663
6.85782e-05
0.000304104
7.45023e-05
0.000326866
8.0883e-05
0.000350976
8.77429e-05
0.000376518
9.51086e-05
0.000403382
0.000103008
0.000431457
0.00011146
0.00046067
0.000120486
0.0004908
0.000130097
0.000521532
0.000140302
0.000552451
0.000151097
0.000582995
0.000162467
0.000612416
0.000174379
0.000639734
0.000186775
0.000663683
0.00019957
0.000682652
0.000212619
0.0006946
0.000225778
0.000696998
0.000238794
0.000686713
0.000251357
0.000659972
0.000263051
0.000612258
0.000273381
0.000538275
0.00028169
0.000431637
0.000287251
0.000284431
9.11513e-05
0.000289357
2.9052e-07
1.88712e-05
2.1563e-08
6.27037e-07
2.04035e-05
9.9235e-07
2.20601e-05
1.38587e-06
2.3851e-05
1.81297e-06
2.57868e-05
2.27325e-06
2.78791e-05
2.7726e-06
3.01404e-05
3.31122e-06
3.25839e-05
3.8961e-06
3.52141e-05
4.52773e-06
3.80601e-05
5.21232e-06
4.11452e-05
5.9513e-06
4.44795e-05
6.7519e-06
4.8083e-05
7.6182e-06
5.19478e-05
8.55889e-06
5.6114e-05
9.57482e-06
6.06559e-05
1.06747e-05
6.55632e-05
1.18679e-05
7.07851e-05
1.31624e-05
7.64591e-05
1.4561e-05
8.26347e-05
1.60804e-05
8.92115e-05
1.77275e-05
9.63219e-05
1.95096e-05
0.000104082
2.14468e-05
0.000112278
2.3544e-05
0.000121268
2.58169e-05
0.000130894
2.82822e-05
0.000141247
3.09502e-05
0.000152472
3.38444e-05
0.000164444
3.69743e-05
0.000177454
4.03662e-05
0.000191318
4.40341e-05
0.000206322
4.8004e-05
0.000222355
5.22963e-05
0.000239566
5.69304e-05
0.000258034
6.19373e-05
0.000277657
6.73354e-05
0.000298706
7.31537e-05
0.000321048
7.94208e-05
0.000344709
8.6159e-05
0.00036978
9.33947e-05
0.000396147
0.000101155
0.000423698
0.00010946
0.000452366
0.000118329
0.000481934
0.000127775
0.000512089
0.000137805
0.000542425
0.000148417
0.000572388
0.000159595
0.000601244
0.000171305
0.00062803
0.000183492
0.000651504
0.00019607
0.000670082
0.000208896
0.000681766
0.000221825
0.000684069
0.000234613
0.00067393
0.000246952
0.000647641
0.000258434
0.000600779
0.000268571
0.000528133
0.000276726
0.00042347
0.000282172
0.00027898
8.91339e-05
0.00028417
2.85321e-07
1.85647e-05
2.09169e-08
6.15596e-07
2.00721e-05
9.74255e-07
2.17019e-05
1.36055e-06
2.34637e-05
1.77989e-06
2.5368e-05
2.23175e-06
2.74263e-05
2.72206e-06
2.96507e-05
3.25083e-06
3.20543e-05
3.8251e-06
3.46406e-05
4.44517e-06
3.74394e-05
5.11734e-06
4.04739e-05
5.84279e-06
4.37535e-05
6.62888e-06
4.72979e-05
7.47935e-06
5.10969e-05
8.40299e-06
5.51912e-05
9.4004e-06
5.9658e-05
1.04804e-05
6.4484e-05
1.16519e-05
6.9613e-05
1.29229e-05
7.51886e-05
1.42962e-05
8.12608e-05
1.57881e-05
8.772e-05
1.74054e-05
9.4704e-05
1.91552e-05
0.000102332
2.10574e-05
0.000110375
2.31167e-05
0.000119209
2.53486e-05
0.000128662
2.77694e-05
0.000138826
3.03893e-05
0.000149852
3.32314e-05
0.000161602
3.63051e-05
0.00017438
3.9636e-05
0.000187987
4.32382e-05
0.000202719
4.7137e-05
0.000218457
5.13526e-05
0.000235352
5.59041e-05
0.000253484
6.08218e-05
0.000272739
6.6124e-05
0.000293404
7.18393e-05
0.000315333
7.79958e-05
0.000338553
8.46156e-05
0.000363161
9.17246e-05
0.000389039
9.93497e-05
0.000416073
0.000107511
0.000444206
0.000116227
0.000473218
0.00012551
0.000502805
0.00013537
0.000532566
0.000145801
0.000561957
0.000156789
0.000590256
0.000168301
0.000616518
0.00018028
0.000639524
0.000192641
0.000657721
0.000205245
0.000669147
0.000217948
0.00067137
0.000230508
0.000661379
0.000242624
0.00063554
0.000253894
0.000589516
0.000263842
0.000518196
0.000271842
0.000415479
0.000277177
0.000273668
8.72744e-05
0.000279083
2.79022e-07
1.82638e-05
2.19666e-08
6.03378e-07
1.97468e-05
9.55538e-07
2.13501e-05
1.33483e-06
2.30834e-05
1.74654e-06
2.49568e-05
2.19018e-06
2.69817e-05
2.67153e-06
2.91699e-05
3.19073e-06
3.15343e-05
3.75455e-06
3.40776e-05
4.36347e-06
3.68299e-05
5.02344e-06
3.98147e-05
5.7359e-06
4.30407e-05
6.50774e-06
4.6527e-05
7.343e-06
5.02613e-05
8.24995e-06
5.42851e-05
9.2295e-06
5.86781e-05
1.029e-05
6.34241e-05
1.14405e-05
6.8462e-05
1.26887e-05
7.3941e-05
1.40373e-05
7.99115e-05
1.55024e-05
8.62553e-05
1.70907e-05
9.31151e-05
1.88092e-05
0.000100614
2.06772e-05
0.000108507
2.26997e-05
0.000117187
2.48916e-05
0.00012647
2.72692e-05
0.000136449
2.98423e-05
0.000147279
3.26336e-05
0.00015881
3.56525e-05
0.000171361
3.89242e-05
0.000184715
4.24623e-05
0.000199181
4.62919e-05
0.000214629
5.04328e-05
0.000231213
5.49037e-05
0.000249014
5.97346e-05
0.000267909
6.49433e-05
0.000288195
7.05582e-05
0.000309718
7.66068e-05
0.000332505
8.3111e-05
0.000356657
9.00964e-05
0.000382054
9.75893e-05
0.000408581
0.00010561
0.000436187
0.000114176
0.000464655
0.0001233
0.000493683
0.000132991
0.000522879
0.000143244
0.000551708
0.000154045
0.000579461
0.00016536
0.00060521
0.000177133
0.000627758
0.00018928
0.000645581
0.000201664
0.000656757
0.00021414
0.000658895
0.000226474
0.00064905
0.000238368
0.000623654
0.00024943
0.000578457
0.000259188
0.000508434
0.000267035
0.00040762
0.000272262
0.000268436
8.54291e-05
0.00027409
2.71058e-07
1.79682e-05
2.4002e-08
5.89431e-07
1.94272e-05
9.3526e-07
2.10046e-05
1.30768e-06
2.27098e-05
1.71209e-06
2.45529e-05
2.14778e-06
2.65449e-05
2.62067e-06
2.86976e-05
3.13057e-06
3.10235e-05
3.68449e-06
3.35245e-05
4.28247e-06
3.62312e-05
4.93085e-06
3.91673e-05
5.63049e-06
4.23405e-05
6.38877e-06
4.57697e-05
7.20901e-06
4.94406e-05
8.09997e-06
5.33951e-05
9.06196e-06
5.77156e-05
1.01037e-05
6.23832e-05
1.12336e-05
6.73314e-05
1.24597e-05
7.27156e-05
1.37842e-05
7.85863e-05
1.52233e-05
8.48167e-05
1.67833e-05
9.15544e-05
1.84713e-05
9.89266e-05
2.03061e-05
0.000106671
2.22927e-05
0.000115201
2.44457e-05
0.000124316
2.67811e-05
0.000134114
2.93086e-05
0.000144751
3.20506e-05
0.000156068
3.50161e-05
0.000168396
3.82299e-05
0.0001815
4.17056e-05
0.000195706
4.54677e-05
0.000210867
4.95357e-05
0.000227147
5.39281e-05
0.000244622
5.86743e-05
0.000263163
6.37918e-05
0.000283078
6.93086e-05
0.000304201
7.52519e-05
0.000326562
8.16431e-05
0.000350266
8.85075e-05
0.00037519
9.58709e-05
0.000401218
0.000103753
0.000428305
0.000112172
0.000456237
0.00012114
0.000484715
0.000130665
0.000513354
0.000140742
0.00054163
0.000151358
0.000568845
0.000162477
0.000594089
0.000174046
0.000616188
0.000185981
0.000633646
0.000198145
0.000644577
0.000210397
0.000646643
0.000222507
0.000636947
0.000234182
0.000611993
0.000245037
0.00056761
0.000254609
0.000498871
0.000262303
0.000399934
0.000267424
0.000263338
8.37118e-05
0.000269185
2.62886e-07
1.76778e-05
2.74729e-08
5.75809e-07
1.91132e-05
9.1561e-07
2.06652e-05
1.28152e-06
2.23429e-05
1.67878e-06
2.41562e-05
2.10676e-06
2.61159e-05
2.57121e-06
2.82337e-05
3.07208e-06
3.05218e-05
3.6161e-06
3.29812e-05
4.20351e-06
3.56432e-05
4.84031e-06
3.85314e-05
5.52761e-06
4.16528e-05
6.27234e-06
4.5026e-05
7.07812e-06
4.86344e-05
7.9532e-06
5.25209e-05
8.8982e-06
5.67702e-05
9.92144e-06
6.13607e-05
1.10314e-05
6.62209e-05
1.22357e-05
7.15119e-05
1.35369e-05
7.72846e-05
1.49505e-05
8.34036e-05
1.6483e-05
9.00213e-05
1.81412e-05
9.72688e-05
1.99436e-05
0.000104868
2.18952e-05
0.00011325
2.40103e-05
0.000122201
2.63046e-05
0.00013182
2.87876e-05
0.000142268
3.14813e-05
0.000153375
3.43947e-05
0.000165482
3.75522e-05
0.000178343
4.09669e-05
0.000192291
4.46632e-05
0.000207172
4.866e-05
0.000223152
5.29756e-05
0.000240308
5.7639e-05
0.0002585
6.26674e-05
0.000278049
6.80883e-05
0.000298781
7.39283e-05
0.000320722
8.02088e-05
0.000343986
8.69545e-05
0.000368445
9.41909e-05
0.000393983
0.000101937
0.00042056
0.000110211
0.000447965
0.000119025
0.000475904
0.000128386
0.000503997
0.00013829
0.00053173
0.000148722
0.000558418
0.000159648
0.000583169
0.000171015
0.000604829
0.000182738
0.00062193
0.000194685
0.000632625
0.000206715
0.000634614
0.000218604
0.000625064
0.000230062
0.000600542
0.000240712
0.000556962
0.0002501
0.00048948
0.000257644
0.000392379
0.000262661
0.000258317
8.19939e-05
0.000264364
2.54166e-07
1.73924e-05
3.08992e-08
5.61497e-07
1.88048e-05
8.95334e-07
2.03318e-05
1.25478e-06
2.19824e-05
1.64509e-06
2.37664e-05
2.06555e-06
2.56945e-05
2.52191e-06
2.77779e-05
3.01395e-06
3.00289e-05
3.54847e-06
3.24475e-05
4.12549e-06
3.50655e-05
4.75113e-06
3.79066e-05
5.42625e-06
4.09771e-05
6.15796e-06
4.42952e-05
6.94946e-06
4.78425e-05
7.80923e-06
5.16621e-05
8.73753e-06
5.58413e-05
9.74286e-06
6.03562e-05
1.08333e-05
6.51299e-05
1.20165e-05
7.03293e-05
1.32948e-05
7.60056e-05
1.46836e-05
8.20152e-05
1.61892e-05
8.85152e-05
1.78183e-05
9.56401e-05
1.95892e-05
0.000103097
2.15065e-05
0.000111333
2.35846e-05
0.000120123
2.58387e-05
0.000129566
2.82783e-05
0.000139829
3.09249e-05
0.000150728
3.37874e-05
0.00016262
3.68897e-05
0.00017524
4.02449e-05
0.000188936
4.38767e-05
0.000203541
4.78038e-05
0.000219226
5.20443e-05
0.000236068
5.66266e-05
0.000253918
6.15677e-05
0.000273108
6.68945e-05
0.000293454
7.26334e-05
0.000314983
7.88051e-05
0.000337815
8.54342e-05
0.000361817
9.25457e-05
0.000386872
0.000100158
0.000412947
0.000108289
0.000439834
0.000116951
0.000467242
0.00012615
0.000494798
0.000135883
0.000521997
0.000146133
0.000548168
0.000156868
0.000572433
0.000168034
0.000593662
0.000179548
0.000610414
0.00019128
0.000620877
0.000203091
0.000622801
0.00021476
0.000613402
0.000226004
0.00058931
0.000236454
0.00054652
0.000245661
0.000480281
0.000253057
0.00038499
0.000257972
0.000253424
8.03854e-05
0.000259623
2.45623e-07
1.71121e-05
3.49328e-08
5.47684e-07
1.85018e-05
8.75649e-07
2.00042e-05
1.22878e-06
2.16283e-05
1.61216e-06
2.33836e-05
2.0252e-06
2.52805e-05
2.47341e-06
2.73302e-05
2.9568e-06
2.95447e-05
3.48182e-06
3.19232e-05
4.04877e-06
3.4498e-05
4.66335e-06
3.72928e-05
5.32675e-06
4.03133e-05
6.04554e-06
4.35773e-05
6.82333e-06
4.70643e-05
7.66796e-06
5.08183e-05
8.58015e-06
5.49287e-05
9.56783e-06
5.93691e-05
1.06392e-05
6.4058e-05
1.18017e-05
6.91673e-05
1.30577e-05
7.4749e-05
1.44223e-05
8.0651e-05
1.59016e-05
8.70353e-05
1.75023e-05
9.40399e-05
1.92423e-05
0.000101357
2.11261e-05
0.000109449
2.31679e-05
0.000118081
2.53828e-05
0.000127351
2.77798e-05
0.000137432
3.03803e-05
0.000148128
3.31929e-05
0.000159807
3.62412e-05
0.000172191
3.95379e-05
0.000185639
4.31066e-05
0.000199974
4.69654e-05
0.000215369
5.11323e-05
0.000231903
5.5635e-05
0.000249416
6.04903e-05
0.000268253
6.57247e-05
0.00028822
7.13641e-05
0.000309344
7.7429e-05
0.000331751
8.39433e-05
0.000355303
9.09317e-05
0.000379885
9.84127e-05
0.000405468
0.000106403
0.000431846
0.000114914
0.000458733
0.000123954
0.000485762
0.000133516
0.000512438
0.000143586
0.000538102
0.000154132
0.000561893
0.000165099
0.000582702
0.000176407
0.000599114
0.000187927
0.000609354
0.000199521
0.000611208
0.000210974
0.000601954
0.000222008
0.000578283
0.00023226
0.00053627
0.00024129
0.000471248
0.000248541
0.000377728
0.000253357
0.000248603
7.87689e-05
0.00025496
2.363e-07
1.68365e-05
3.86139e-08
5.32857e-07
1.82039e-05
8.55037e-07
1.96823e-05
1.20189e-06
2.12802e-05
1.57864e-06
2.30073e-05
1.98442e-06
2.48736e-05
2.42499e-06
2.68902e-05
2.89991e-06
2.90688e-05
3.41599e-06
3.14079e-05
3.97298e-06
3.39402e-05
4.57708e-06
3.66897e-05
5.22878e-06
3.9661e-05
5.9353e-06
4.28719e-05
6.69938e-06
4.62997e-05
7.52952e-06
4.99892e-05
8.42567e-06
5.4032e-05
9.39632e-06
5.83993e-05
1.0449e-05
6.30047e-05
1.15913e-05
6.80256e-05
1.28254e-05
7.35143e-05
1.41663e-05
7.93106e-05
1.56198e-05
8.55812e-05
1.71926e-05
9.24675e-05