/*--------------------------------*- C++ -*----------------------------------*\
  =========                 |
  \\      /  F ield         | OpenFOAM: The Open Source CFD Toolbox
   \\    /   O peration     | Website:  https://openfoam.org
    \\  /    A nd           | Version:  6.0
     \\/     M anipulation  |
\*---------------------------------------------------------------------------*/
FoamFile
{
    version     2.0;
    format      ascii;
    class       surfaceScalarField;
    location    "3.19";
    object      phi;
}
// * * * * * * * * * * * * * * * * * * * * * * * * * * * * * * * * * * * * * //

dimensions      [0 3 -1 0 0 0 0];

internalField   nonuniform List<scalar> 
26699
(
2.0051e-05
0.005201
5.7842e-10
4.0126e-05
0.0051116
5.9639e-05
0.0049351
7.8186e-05
0.0046741
9.5416e-05
0.0043332
0.00011102
0.0039182
0.00012471
0.0034362
0.00013626
0.0028953
0.00014546
0.002305
0.00015181
0.0016755
0.00015717
0.0010154
0.00046502
3.4358e-05
2.0051e-05
0.0051809
1.7287e-09
4.0127e-05
0.0050916
5.9641e-05
0.0049155
7.819e-05
0.0046556
9.5418e-05
0.004316
0.00011102
0.0039026
0.00012471
0.0034225
0.00013625
0.0028838
0.00014545
0.0022958
0.00015106
0.0016699
0.0001589
0.0010076
0.00055902
6.49e-05
2.0051e-05
0.0051609
2.9481e-09
4.0128e-05
0.0050715
5.9643e-05
0.004896
7.8193e-05
0.004637
9.5421e-05
0.0042988
0.00011103
0.003887
0.00012471
0.0034088
0.00013623
0.0028723
0.00014546
0.0022865
0.0001503
0.0016651
0.00016016
0.0009977
0.00062916
9.0021e-05
2.0051e-05
0.0051408
4.1838e-09
4.013e-05
0.0050514
5.9645e-05
0.0048765
7.8196e-05
0.0046185
9.5424e-05
0.0042815
0.00011103
0.0038714
0.0001247
0.0033951
0.0001362
0.0028608
0.00014551
0.0022772
0.00014955
0.001661
0.00016089
0.00098637
0.00067983
0.00011021
2.0051e-05
0.0051208
5.4217e-09
4.0131e-05
0.0050313
5.9648e-05
0.004857
7.8199e-05
0.0045999
9.5427e-05
0.0042643
0.00011103
0.0038558
0.0001247
0.0033815
0.00013618
0.0028493
0.00014557
0.0022678
0.00014886
0.0016577
0.00016109
0.00097413
0.00071467
0.00012625
2.0051e-05
0.0051007
6.6617e-09
4.0132e-05
0.0050112
5.965e-05
0.0048375
7.8202e-05
0.0045814
9.5431e-05
0.0042471
0.00011103
0.0038402
0.0001247
0.0033678
0.00013615
0.0028379
0.00014567
0.0022583
0.00014823
0.0016552
0.00016084
0.00096152
0.00073671
0.00013881
2.0051e-05
0.0050807
7.9039e-09
4.0133e-05
0.0049912
5.9653e-05
0.004818
7.8205e-05
0.0045628
9.5434e-05
0.0042299
0.00011103
0.0038246
0.0001247
0.0033541
0.00013611
0.0028264
0.00014578
0.0022486
0.0001477
0.0016532
0.00016024
0.00094898
0.00074851
0.00014844
2.0051e-05
0.0050606
9.1484e-09
4.0134e-05
0.0049711
5.9655e-05
0.0047984
7.8208e-05
0.0045443
9.5437e-05
0.0042126
0.00011103
0.003809
0.0001247
0.0033405
0.00013608
0.0028151
0.0001459
0.0022388
0.00014726
0.0016519
0.00015936
0.00093688
0.00075222
0.00015564
2.0051e-05
0.0050405
1.0395e-08
4.0136e-05
0.004951
5.9657e-05
0.0047789
7.8211e-05
0.0045257
9.544e-05
0.0041954
0.00011104
0.0037934
0.0001247
0.0033268
0.00013604
0.0028037
0.00014603
0.0022288
0.00014693
0.001651
0.0001583
0.00092551
0.00074967
0.00016085
2.0051e-05
0.0050205
1.1645e-08
4.0137e-05
0.0049309
5.966e-05
0.0047594
7.8214e-05
0.0045071
9.5444e-05
0.0041782
0.00011104
0.0037778
0.0001247
0.0033131
0.00013599
0.0027924
0.00014617
0.0022186
0.00014671
0.0016505
0.00015713
0.00091509
0.00074237
0.00016443
2.0051e-05
0.0050004
1.2896e-08
4.0138e-05
0.0049108
5.9662e-05
0.0047399
7.8217e-05
0.0044886
9.5447e-05
0.0041609
0.00011104
0.0037622
0.0001247
0.0032995
0.00013594
0.0027812
0.00014631
0.0022083
0.00014659
0.0016502
0.00015592
0.00090576
0.00073157
0.00016672
2.0051e-05
0.0049803
1.415e-08
4.0139e-05
0.0048907
5.9665e-05
0.0047203
7.822e-05
0.00447
9.5451e-05
0.0041437
0.00011104
0.0037466
0.00012471
0.0032858
0.00013589
0.00277
0.00014645
0.0021977
0.00014658
0.00165
0.00015473
0.00089761
0.0007183
0.000168
2.0051e-05
0.0049603
1.5407e-08
4.0141e-05
0.0048706
5.9667e-05
0.0047008
7.8223e-05
0.0044515
9.5454e-05
0.0041265
0.00011104
0.003731
0.00012472
0.0032721
0.00013583
0.0027589
0.00014658
0.002187
0.00014667
0.00165
0.00015359
0.00089069
0.0007034
0.00016849
2.0051e-05
0.0049402
1.6666e-08
4.0142e-05
0.0048506
5.9669e-05
0.0046813
7.8227e-05
0.0044329
9.5458e-05
0.0041092
0.00011105
0.0037154
0.00012473
0.0032585
0.00013577
0.0027479
0.0001467
0.002176
0.00014684
0.0016498
0.00015254
0.00088499
0.00068753
0.0001684
2.0051e-05
0.0049201
1.7928e-08
4.0143e-05
0.0048305
5.9672e-05
0.0046618
7.823e-05
0.0044144
9.5462e-05
0.004092
0.00011105
0.0036999
0.00012474
0.0032448
0.00013571
0.0027369
0.00014681
0.0021649
0.00014709
0.0016495
0.0001516
0.00088048
0.00067123
0.00016789
2.0051e-05
0.0049001
1.9193e-08
4.0144e-05
0.0048104
5.9674e-05
0.0046422
7.8233e-05
0.0043958
9.5466e-05
0.0040748
0.00011105
0.0036843
0.00012475
0.0032311
0.00013564
0.002726
0.0001469
0.0021537
0.0001474
0.001649
0.00015078
0.0008771
0.00065493
0.00016709
2.0051e-05
0.00488
2.0461e-08
4.0146e-05
0.0047903
5.9677e-05
0.0046227
7.8236e-05
0.0043772
9.5469e-05
0.0040575
0.00011105
0.0036687
0.00012476
0.0032174
0.00013557
0.0027152
0.00014698
0.0021423
0.00014777
0.0016482
0.00015011
0.00087477
0.00063894
0.0001661
2.0051e-05
0.0048599
2.1731e-08
4.0147e-05
0.0047702
5.9679e-05
0.0046032
7.8239e-05
0.0043587
9.5473e-05
0.0040403
0.00011105
0.0036531
0.00012478
0.0032036
0.0001355
0.0027045
0.00014704
0.0021307
0.00014819
0.0016471
0.00014957
0.00087339
0.00062349
0.00016501
2.0051e-05
0.0048399
2.3004e-08
4.0148e-05
0.0047501
5.9681e-05
0.0045836
7.8242e-05
0.0043401
9.5477e-05
0.0040231
0.00011105
0.0036375
0.00012479
0.0031899
0.00013543
0.0026938
0.00014708
0.0021191
0.00014863
0.0016455
0.00014917
0.00087285
0.00060877
0.00016389
2.0051e-05
0.0048198
2.428e-08
4.0149e-05
0.00473
5.9684e-05
0.0045641
7.8246e-05
0.0043216
9.5481e-05
0.0040058
0.00011106
0.003622
0.00012481
0.0031761
0.00013537
0.0026833
0.0001471
0.0021074
0.0001491
0.0016435
0.0001489
0.00087305
0.00059487
0.00016279
2.0051e-05
0.0047997
2.5559e-08
4.015e-05
0.0047099
5.9686e-05
0.0045446
7.8249e-05
0.004303
9.5486e-05
0.0039886
0.00011106
0.0036064
0.00012484
0.0031624
0.0001353
0.0026728
0.0001471
0.0020956
0.00014958
0.0016411
0.00014876
0.00087387
0.00058187
0.00016175
2.0051e-05
0.0047796
2.6841e-08
4.0152e-05
0.0046898
5.9689e-05
0.004525
7.8252e-05
0.0042844
9.549e-05
0.0039714
0.00011106
0.0035908
0.00012486
0.0031486
0.00013523
0.0026624
0.00014708
0.0020837
0.00015006
0.0016381
0.00014873
0.00087521
0.0005698
0.00016079
2.0051e-05
0.0047595
2.8126e-08
4.0153e-05
0.0046697
5.9691e-05
0.0045055
7.8255e-05
0.0042659
9.5494e-05
0.0039541
0.00011106
0.0035753
0.00012488
0.0031347
0.00013517
0.0026521
0.00014705
0.0020718
0.00015054
0.0016346
0.0001488
0.00087695
0.00055867
0.00015994
2.0051e-05
0.0047395
2.9415e-08
4.0154e-05
0.0046496
5.9694e-05
0.004486
7.8259e-05
0.0042473
9.5499e-05
0.0039369
0.00011106
0.0035597
0.00012491
0.0031209
0.00013511
0.002642
0.00014699
0.0020599
0.00015101
0.0016306
0.00014897
0.00087899
0.00054844
0.0001592
2.0052e-05
0.0047194
3.0706e-08
4.0155e-05
0.0046295
5.9696e-05
0.0044664
7.8262e-05
0.0042287
9.5503e-05
0.0039196
0.00011106
0.0035441
0.00012494
0.003107
0.00013505
0.0026318
0.00014692
0.0020481
0.00015146
0.001626
0.00014921
0.00088124
0.00053908
0.00015857
2.0052e-05
0.0046993
3.2001e-08
4.0157e-05
0.0046094
5.9699e-05
0.0044469
7.8265e-05
0.0042102
9.5508e-05
0.0039024
0.00011106
0.0035286
0.00012497
0.0030931
0.00013499
0.0026218
0.00014683
0.0020362
0.00015189
0.001621
0.00014952
0.00088361
0.00053054
0.00015806
2.0052e-05
0.0046792
3.33e-08
4.0158e-05
0.0045893
5.9701e-05
0.0044273
7.8269e-05
0.0041916
9.5513e-05
0.0038852
0.00011105
0.0035131
0.000125
0.0030791
0.00013495
0.0026119
0.00014672
0.0020245
0.00015229
0.0016154
0.00014989
0.00088601
0.00052277
0.00015766
2.0052e-05
0.0046591
3.4602e-08
4.0159e-05
0.0045692
5.9704e-05
0.0044078
7.8272e-05
0.004173
9.5518e-05
0.0038679
0.00011105
0.0034975
0.00012503
0.0030651
0.0001349
0.002602
0.0001466
0.0020128
0.00015266
0.0016094
0.00015029
0.00088838
0.0005157
0.00015737
2.0052e-05
0.004639
3.5907e-08
4.016e-05
0.0045491
5.9706e-05
0.0043882
7.8275e-05
0.0041545
9.5523e-05
0.0038507
0.00011105
0.003482
0.00012507
0.0030511
0.00013487
0.0025922
0.00014647
0.0020011
0.000153
0.0016028
0.00015073
0.00089064
0.00050926
0.00015717
2.0051e-05
0.0046189
3.7216e-08
4.0162e-05
0.0045289
5.9709e-05
0.0043687
7.8279e-05
0.0041359
9.5528e-05
0.0038334
0.00011105
0.0034665
0.0001251
0.0030371
0.00013484
0.0025825
0.00014633
0.0019897
0.0001533
0.0015958
0.0001512
0.00089275
0.00050339
0.00015707
2.0051e-05
0.0045989
3.8528e-08
4.0163e-05
0.0045088
5.9711e-05
0.0043491
7.8282e-05
0.0041173
9.5534e-05
0.0038162
0.00011105
0.003451
0.00012514
0.003023
0.00013481
0.0025728
0.00014617
0.0019783
0.00015357
0.0015885
0.00015167
0.00089465
0.00049802
0.00015704
2.0051e-05
0.0045788
3.9845e-08
4.0164e-05
0.0044887
5.9714e-05
0.0043296
7.8285e-05
0.0040988
9.5539e-05
0.0037989
0.00011104
0.0034355
0.00012517
0.0030089
0.0001348
0.0025632
0.00014601
0.0019671
0.0001538
0.0015807
0.00015215
0.0008963
0.00049309
0.00015708
2.0051e-05
0.0045587
4.1165e-08
4.0165e-05
0.0044686
5.9716e-05
0.00431
7.8289e-05
0.0040802
9.5545e-05
0.0037817
0.00011104
0.00342
0.00012521
0.0029947
0.00013479
0.0025536
0.00014585
0.001956
0.000154
0.0015725
0.00015262
0.00089768
0.00048854
0.00015717
2.0051e-05
0.0045386
4.2489e-08
4.0167e-05
0.0044485
5.9719e-05
0.0042905
7.8292e-05
0.0040616
9.5551e-05
0.0037644
0.00011103
0.0034045
0.00012525
0.0029805
0.00013479
0.002544
0.00014568
0.0019451
0.00015416
0.001564
0.00015309
0.00089875
0.00048431
0.00015731
2.0051e-05
0.0045185
4.3817e-08
4.0168e-05
0.0044284
5.9722e-05
0.0042709
7.8296e-05
0.004043
9.5557e-05
0.0037471
0.00011103
0.003389
0.00012528
0.0029662
0.0001348
0.0025345
0.0001455
0.0019344
0.00015428
0.0015553
0.00015353
0.00089949
0.00048035
0.00015749
2.0051e-05
0.0044984
4.5149e-08
4.0169e-05
0.0044083
5.9724e-05
0.0042514
7.8299e-05
0.0040245
9.5564e-05
0.0037299
0.00011103
0.0033735
0.00012532
0.0029519
0.00013482
0.002525
0.00014533
0.0019239
0.00015437
0.0015462
0.00015396
0.0008999
0.00047662
0.0001577
2.0051e-05
0.0044783
4.6485e-08
4.0171e-05
0.0043881
5.9727e-05
0.0042318
7.8303e-05
0.0040059
9.557e-05
0.0037126
0.00011102
0.0033581
0.00012535
0.0029376
0.00013485
0.0025155
0.00014516
0.0019136
0.00015443
0.0015369
0.00015437
0.00089995
0.00047306
0.00015792
2.0051e-05
0.0044582
4.7826e-08
4.0172e-05
0.004368
5.9729e-05
0.0042123
7.8306e-05
0.0039873
9.5577e-05
0.0036953
0.00011101
0.0033427
0.00012539
0.0029232
0.00013488
0.002506
0.00014499
0.0019035
0.00015445
0.0015275
0.00015475
0.00089966
0.00046965
0.00015816
2.0051e-05
0.0044381
4.9171e-08
4.0173e-05
0.0043479
5.9732e-05
0.0041927
7.831e-05
0.0039687
9.5584e-05
0.0036781
0.00011101
0.0033272
0.00012542
0.0029088
0.00013492
0.0024965
0.00014483
0.0018936
0.00015445
0.0015179
0.0001551
0.00089901
0.00046635
0.00015841
2.0051e-05
0.004418
5.052e-08
4.0174e-05
0.0043278
5.9735e-05
0.0041731
7.8313e-05
0.0039502
9.5592e-05
0.0036608
0.000111
0.0033118
0.00012545
0.0028944
0.00013497
0.002487
0.00014467
0.0018839
0.00015443
0.0015081
0.00015542
0.00089801
0.00046312
0.00015865
2.0051e-05
0.0043979
5.1874e-08
4.0176e-05
0.0043076
5.9737e-05
0.0041536
7.8317e-05
0.0039316
9.5599e-05
0.0036435
0.000111
0.0032964
0.00012549
0.0028799
0.00013503
0.0024775
0.00014452
0.0018744
0.00015438
0.0014982
0.00015572
0.00089668
0.00045994
0.00015889
2.0051e-05
0.0043778
5.3232e-08
4.0177e-05
0.0042875
5.974e-05
0.004134
7.832e-05
0.003913
9.5607e-05
0.0036262
0.00011099
0.003281
0.00012551
0.0028653
0.00013509
0.0024679
0.00014437
0.0018651
0.00015431
0.0014883
0.00015598
0.00089501
0.00045679
0.00015912
2.0051e-05
0.0043577
5.4595e-08
4.0178e-05
0.0042674
5.9743e-05
0.0041145
7.8324e-05
0.0038944
9.5615e-05
0.0036089
0.00011098
0.0032657
0.00012554
0.0028508
0.00013517
0.0024583
0.00014424
0.0018561
0.00015422
0.0014783
0.00015621
0.00089302
0.00045366
0.00015935
2.0051e-05
0.0043376
5.5963e-08
4.018e-05
0.0042473
5.9746e-05
0.0040949
7.8327e-05
0.0038758
9.5623e-05
0.0035916
0.00011098
0.0032503
0.00012557
0.0028362
0.00013525
0.0024486
0.00014412
0.0018472
0.00015412
0.0014683
0.00015641
0.00089073
0.00045051
0.00015955
2.0051e-05
0.0043175
5.7335e-08
4.0181e-05
0.0042271
5.9748e-05
0.0040753
7.8331e-05
0.0038573
9.5632e-05
0.0035743
0.00011097
0.003235
0.00012559
0.0028216
0.00013533
0.0024388
0.00014401
0.0018385
0.000154
0.0014583
0.00015658
0.00088815
0.00044735
0.00015975
2.0051e-05
0.0042973
5.8713e-08
4.0182e-05
0.004207
5.9751e-05
0.0040558
7.8334e-05
0.0038387
9.564e-05
0.003557
0.00011096
0.0032197
0.00012561
0.0028069
0.00013542
0.002429
0.00014391
0.00183
0.00015387
0.0014484
0.00015673
0.00088529
0.00044416
0.00015992
2.0051e-05
0.0042772
6.0095e-08
4.0184e-05
0.0041869
5.9754e-05
0.0040362
7.8338e-05
0.0038201
9.5649e-05
0.0035397
0.00011096
0.0032044
0.00012563
0.0027923
0.00013552
0.0024191
0.00014383
0.0018217
0.00015374
0.0014385
0.00015685
0.00088218
0.00044093
0.00016008
2.0051e-05
0.0042571
6.1483e-08
4.0185e-05
0.0041667
5.9757e-05
0.0040166
7.8342e-05
0.0038015
9.5659e-05
0.0035224
0.00011095
0.0031891
0.00012564
0.0027776
0.00013562
0.0024092
0.00014376
0.0018136
0.0001536
0.0014286
0.00015695
0.00087883
0.00043765
0.00016022
2.0051e-05
0.004237
6.2876e-08
4.0187e-05
0.0041466
5.976e-05
0.003997
7.8345e-05
0.0037829
9.5668e-05
0.0035051
0.00011094
0.0031738
0.00012565
0.0027628
0.00013572
0.0023991
0.0001437
0.0018056
0.00015346
0.0014189
0.00015703
0.00087527
0.00043433
0.00016035
2.0051e-05
0.0042169
6.4274e-08
4.0188e-05
0.0041265
5.9763e-05
0.0039775
7.8349e-05
0.0037643
9.5678e-05
0.0034877
0.00011094
0.0031585
0.00012566
0.0027481
0.00013583
0.0023889
0.00014366
0.0017978
0.00015332
0.0014092
0.00015708
0.0008715
0.00043095
0.00016046
2.0051e-05
0.0041968
6.5678e-08
4.0189e-05
0.0041063
5.9765e-05
0.0039579
7.8352e-05
0.0037457
9.5688e-05
0.0034704
0.00011093
0.0031433
0.00012567
0.0027334
0.00013594
0.0023787
0.00014363
0.0017901
0.00015317
0.0013996
0.00015712
0.00086755
0.00042753
0.00016055
2.0051e-05
0.0041767
6.7088e-08
4.0191e-05
0.0040862
5.9768e-05
0.0039383
7.8356e-05
0.0037272
9.5698e-05
0.0034531
0.00011093
0.003128
0.00012567
0.0027186
0.00013605
0.0023683
0.00014361
0.0017825
0.00015304
0.0013902
0.00015715
0.00086344
0.00042405
0.00016063
2.0051e-05
0.0041565
6.8503e-08
4.0192e-05
0.0040661
5.9771e-05
0.0039187
7.8359e-05
0.0037086
9.5708e-05
0.0034357
0.00011093
0.0031128
0.00012568
0.0027039
0.00013616
0.0023578
0.00014361
0.0017751
0.0001529
0.0013809
0.00015716
0.00085918
0.00042052
0.00016069
2.0051e-05
0.0041364
6.9924e-08
4.0194e-05
0.0040459
5.9774e-05
0.0038992
7.8363e-05
0.00369
9.5719e-05
0.0034184
0.00011092
0.0030976
0.00012567
0.0026891
0.00013627
0.0023472
0.00014362
0.0017677
0.00015278
0.0013718
0.00015717
0.00085479
0.00041694
0.00016074
2.0051e-05
0.0041163
7.1351e-08
4.0195e-05
0.0040258
5.9777e-05
0.0038796
7.8367e-05
0.0036714
9.5729e-05
0.003401
0.00011092
0.0030824
0.00012567
0.0026744
0.00013638
0.0023365
0.00014364
0.0017605
0.00015266
0.0013627
0.00015716
0.00085029
0.00041332
0.00016079
2.0051e-05
0.0040962
7.2784e-08
4.0196e-05
0.0040056
5.978e-05
0.00386
7.837e-05
0.0036528
9.574e-05
0.0033836
0.00011092
0.0030673
0.00012566
0.0026597
0.00013649
0.0023257
0.00014367
0.0017533
0.00015255
0.0013539
0.00015715
0.00084568
0.00040965
0.00016082
2.0051e-05
0.004076
7.4223e-08
4.0198e-05
0.0039855
5.9783e-05
0.0038404
7.8374e-05
0.0036342
9.5751e-05
0.0033662
0.00011092
0.0030521
0.00012565
0.0026449
0.0001366
0.0023147
0.00014372
0.0017462
0.00015245
0.0013451
0.00015713
0.000841
0.00040595
0.00016084
2.0051e-05
0.0040559
7.5668e-08
4.0199e-05
0.0039653
5.9787e-05
0.0038208
7.8378e-05
0.0036156
9.5762e-05
0.0033489
0.00011092
0.0030369
0.00012564
0.0026302
0.0001367
0.0023037
0.00014378
0.0017391
0.00015235
0.0013366
0.00015711
0.00083624
0.0004022
0.00016085
2.0051e-05
0.0040358
7.712e-08
4.0201e-05
0.0039452
5.979e-05
0.0038012
7.8381e-05
0.003597
9.5773e-05
0.0033315
0.00011092
0.0030218
0.00012562
0.0026155
0.00013681
0.0022925
0.00014384
0.0017321
0.00015227
0.0013281
0.00015709
0.00083142
0.00039843
0.00016086
2.0051e-05
0.0040157
7.8579e-08
4.0202e-05
0.003925
5.9793e-05
0.0037816
7.8385e-05
0.0035784
9.5785e-05
0.0033141
0.00011092
0.0030066
0.00012561
0.0026008
0.00013691
0.0022812
0.00014392
0.0017251
0.0001522
0.0013198
0.00015707
0.00082656
0.00039463
0.00016087
2.0051e-05
0.0039955
8.0044e-08
4.0204e-05
0.0039049
5.9796e-05
0.003762
7.8389e-05
0.0035598
9.5796e-05
0.0032967
0.00011093
0.0029915
0.00012559
0.0025862
0.000137
0.0022698
0.000144
0.0017181
0.00015215
0.0013117
0.00015705
0.00082165
0.00039081
0.00016087
2.0051e-05
0.0039754
8.1516e-08
4.0205e-05
0.0038847
5.9799e-05
0.0037425
7.8392e-05
0.0035412
9.5807e-05
0.0032792
0.00011093
0.0029764
0.00012556
0.0025715
0.0001371
0.0022582
0.00014409
0.0017111
0.0001521
0.0013037
0.00015703
0.00081672
0.00038698
0.00016087
2.0051e-05
0.0039553
8.2995e-08
4.0207e-05
0.0038646
5.9802e-05
0.0037229
7.8396e-05
0.0035227
9.5819e-05
0.0032618
0.00011094
0.0029613
0.00012554
0.0025569
0.00013718
0.0022466
0.00014418
0.0017041
0.00015206
0.0012958
0.00015701
0.00081178
0.00038313
0.00016086
2.0051e-05
0.0039351
8.4481e-08
4.0209e-05
0.0038444
5.9806e-05
0.0037033
7.84e-05
0.0035041
9.583e-05
0.0032444
0.00011095
0.0029462
0.00012552
0.0025424
0.00013726
0.0022348
0.00014429
0.001697
0.00015204
0.0012881
0.000157
0.00080682
0.00037927
0.00016086
2.0052e-05
0.003915
8.5975e-08
4.021e-05
0.0038242
5.9809e-05
0.0036837
7.8404e-05
0.0034855
9.5842e-05
0.003227
0.00011095
0.002931
0.00012549
0.0025278
0.00013734
0.002223
0.00014439
0.00169
0.00015203
0.0012804
0.00015699
0.00080185
0.00037541
0.00016085
2.0052e-05
0.0038948
8.7476e-08
4.0212e-05
0.0038041
5.9812e-05
0.0036641
7.8408e-05
0.0034669
9.5853e-05
0.0032095
0.00011096
0.0029159
0.00012546
0.0025133
0.00013741
0.002211
0.0001445
0.0016829
0.00015202
0.0012729
0.00015699
0.00079688
0.00037154
0.00016085
2.0052e-05
0.0038747
8.8984e-08
4.0213e-05
0.0037839
5.9816e-05
0.0036445
7.8411e-05
0.0034483
9.5864e-05
0.0031921
0.00011098
0.0029008
0.00012544
0.0024989
0.00013748
0.002199
0.00014461
0.0016758
0.00015203
0.0012655
0.00015699
0.00079193
0.00036769
0.00016084
2.0052e-05
0.0038546
9.0501e-08
4.0215e-05
0.0037638
5.9819e-05
0.0036249
7.8415e-05
0.0034297
9.5876e-05
0.0031746
0.00011099
0.0028857
0.00012541
0.0024844
0.00013754
0.0021869
0.00014472
0.0016686
0.00015204
0.0012582
0.00015699
0.00078697
0.00036384
0.00016084
2.0052e-05
0.0038344
9.2025e-08
4.0217e-05
0.0037436
5.9823e-05
0.0036052
7.8419e-05
0.0034111
9.5887e-05
0.0031571
0.000111
0.0028706
0.00012538
0.0024701
0.0001376
0.0021746
0.00014484
0.0016614
0.00015206
0.0012509
0.000157
0.00078204
0.00036
0.00016084
2.0052e-05
0.0038143
9.3557e-08
4.0218e-05
0.0037234
5.9826e-05
0.0035856
7.8423e-05
0.0033925
9.5898e-05
0.0031397
0.00011102
0.0028555
0.00012535
0.0024557
0.00013765
0.0021623
0.00014495
0.0016541
0.00015209
0.0012438
0.00015702
0.00077712
0.00035618
0.00016084
2.0052e-05
0.0037941
9.5098e-08
4.022e-05
0.0037033
5.983e-05
0.003566
7.8427e-05
0.0033739
9.5909e-05
0.0031222
0.00011103
0.0028403
0.00012532
0.0024414
0.0001377
0.00215
0.00014506
0.0016467
0.00015213
0.0012367
0.00015704
0.00077221
0.00035237
0.00016084
2.0052e-05
0.003774
9.6647e-08
4.0222e-05
0.0036831
5.9833e-05
0.0035464
7.8431e-05
0.0033553
9.592e-05
0.0031047
0.00011105
0.0028252
0.0001253
0.0024272
0.00013774
0.0021375
0.00014518
0.0016393
0.00015218
0.0012297
0.00015706
0.00076733
0.00034859
0.00016084
2.0052e-05
0.0037538
9.8205e-08
4.0223e-05
0.0036629
5.9837e-05
0.0035268
7.8435e-05
0.0033367
9.593e-05
0.0030872
0.00011107
0.0028101
0.00012527
0.002413
0.00013777
0.002125
0.00014529
0.0016317
0.00015223
0.0012228
0.00015709
0.00076246
0.00034483
0.00016085
2.0052e-05
0.0037337
9.9772e-08
4.0225e-05
0.0036427
5.984e-05
0.0035072
7.844e-05
0.0033181
9.5941e-05
0.0030697
0.00011109
0.0027949
0.00012524
0.0023988
0.0001378
0.0021125
0.00014539
0.0016241
0.00015228
0.0012159
0.00015712
0.00075762
0.0003411
0.00016086
2.0052e-05
0.0037135
1.0135e-07
4.0227e-05
0.0036226
5.9844e-05
0.0034876
7.8444e-05
0.0032995
9.5951e-05
0.0030522
0.00011111
0.0027798
0.00012522
0.0023847
0.00013783
0.0020999
0.0001455
0.0016165
0.00015234
0.0012091
0.00015716
0.00075279
0.00033739
0.00016087
2.0052e-05
0.0036934
1.0293e-07
4.0228e-05
0.0036024
5.9848e-05
0.003468
7.8448e-05
0.0032809
9.5962e-05
0.0030347
0.00011113
0.0027646
0.00012519
0.0023707
0.00013785
0.0020872
0.0001456
0.0016087
0.0001524
0.0012023
0.0001572
0.00074799
0.00033371
0.00016088
2.0052e-05
0.0036732
1.0453e-07
4.023e-05
0.0035822
5.9851e-05
0.0034483
7.8453e-05
0.0032623
9.5972e-05
0.0030172
0.00011116
0.0027494
0.00012517
0.0023567
0.00013787
0.0020745
0.0001457
0.0016009
0.00015247
0.0011955
0.00015725
0.00074321
0.00033006
0.0001609
2.0052e-05
0.0036531
1.0613e-07
4.0232e-05
0.003562
5.9855e-05
0.0034287
7.8457e-05
0.0032437
9.5982e-05
0.0029996
0.00011118
0.0027342
0.00012515
0.0023427
0.00013788
0.0020618
0.0001458
0.001593
0.00015254
0.0011888
0.0001573
0.00073845
0.00032644
0.00016091
2.0052e-05
0.0036329
1.0774e-07
4.0234e-05
0.0035419
5.9859e-05
0.0034091
7.8462e-05
0.0032251
9.5991e-05
0.0029821
0.0001112
0.002719
0.00012513
0.0023288
0.0001379
0.002049
0.00014589
0.001585
0.00015261
0.0011821
0.00015735
0.00073371
0.00032286
0.00016093
2.0052e-05
0.0036127
1.0937e-07
4.0236e-05
0.0035217
5.9863e-05
0.0033895
7.8467e-05
0.0032065
9.6001e-05
0.0029646
0.00011123
0.0027038
0.00012511
0.0023149
0.0001379
0.0020362
0.00014598
0.0015769
0.00015268
0.0011754
0.0001574
0.00072899
0.00031931
0.00016095
2.0052e-05
0.0035926
1.11e-07
4.0238e-05
0.0035015
5.9867e-05
0.0033698
7.8471e-05
0.0031879
9.601e-05
0.002947
0.00011125
0.0026885
0.00012509
0.002301
0.00013791
0.0020234
0.00014607
0.0015687
0.00015275
0.0011687
0.00015746
0.00072429
0.00031579
0.00016097
2.0052e-05
0.0035724
1.1264e-07
4.024e-05
0.0034813
5.9871e-05
0.0033502
7.8476e-05
0.0031693
9.602e-05
0.0029295
0.00011128
0.0026733
0.00012508
0.0022872
0.00013791
0.0020105
0.00014615
0.0015605
0.00015282
0.001162
0.00015751
0.0007196
0.00031231
0.000161
2.0052e-05
0.0035522
1.143e-07
4.0241e-05
0.0034611
5.9875e-05
0.0033306
7.8481e-05
0.0031507
9.6029e-05
0.0029119
0.00011131
0.002658
0.00012506
0.0022735
0.00013791
0.0019977
0.00014623
0.0015522
0.0001529
0.0011553
0.00015757
0.00071493
0.00030886
0.00016102
2.0052e-05
0.0035321
1.1596e-07
4.0243e-05
0.0034409
5.9879e-05
0.0033109
7.8486e-05
0.0031321
9.6038e-05
0.0028944
0.00011134
0.0026427
0.00012505
0.0022598
0.00013791
0.0019848
0.0001463
0.0015438
0.00015297
0.0011486
0.00015763
0.00071027
0.00030545
0.00016105
2.0052e-05
0.0035119
1.1764e-07
4.0245e-05
0.0034207
5.9883e-05
0.0032913
7.8491e-05
0.0031134
9.6046e-05
0.0028768
0.00011136
0.0026274
0.00012504
0.0022461
0.00013791
0.001972
0.00014637
0.0015353
0.00015305
0.001142
0.00015769
0.00070562
0.00030207
0.00016107
2.0053e-05
0.0034917
1.1933e-07
4.0247e-05
0.0034005
5.9887e-05
0.0032716
7.8496e-05
0.0030948
9.6055e-05
0.0028593
0.00011139
0.002612
0.00012503
0.0022325
0.00013791
0.0019591
0.00014644
0.0015268
0.00015312
0.0011353
0.00015775
0.00070099
0.00029872
0.0001611
2.0053e-05
0.0034716
1.2103e-07
4.0249e-05
0.0033803
5.9891e-05
0.003252
7.8502e-05
0.0030762
9.6063e-05
0.0028417
0.00011142
0.0025967
0.00012503
0.0022188
0.0001379
0.0019462
0.0001465
0.0015182
0.00015319
0.0011286
0.00015782
0.00069636
0.00029541
0.00016113
2.0053e-05
0.0034514
1.2274e-07
4.0251e-05
0.0033601
5.9896e-05
0.0032324
7.8507e-05
0.0030576
9.6072e-05
0.0028241
0.00011145
0.0025813
0.00012503
0.0022053
0.0001379
0.0019333
0.00014656
0.0015095
0.00015326
0.0011219
0.00015788
0.00069175
0.00029214
0.00016116
2.0053e-05
0.0034312
1.2446e-07
4.0253e-05
0.0033399
5.99e-05
0.0032127
7.8513e-05
0.003039
9.608e-05
0.0028066
0.00011148
0.0025659
0.00012502
0.0021917
0.00013789
0.0019205
0.00014662
0.0015008
0.00015333
0.0011152
0.00015794
0.00068714
0.00028889
0.00016119
2.0053e-05
0.003411
1.262e-07
4.0255e-05
0.0033197
5.9904e-05
0.0031931
7.8518e-05
0.0030204
9.6088e-05
0.002789
0.00011151
0.0025505
0.00012502
0.0021782
0.00013788
0.0019076
0.00014667
0.001492
0.0001534
0.0011084
0.00015801
0.00068254
0.00028568
0.00016122
2.0053e-05
0.0033908
1.2795e-07
4.0258e-05
0.0032995
5.9909e-05
0.0031734
7.8524e-05
0.0030018
9.6096e-05
0.0027714
0.00011154
0.0025351
0.00012503
0.0021647
0.00013788
0.0018948
0.00014672
0.0014832
0.00015347
0.0011017
0.00015807
0.00067794
0.00028251
0.00016125
2.0053e-05
0.0033707
1.2971e-07
4.026e-05
0.0032793
5.9913e-05
0.0031538
7.853e-05
0.0029832
9.6104e-05
0.0027539
0.00011157
0.0025196
0.00012503
0.0021513
0.00013787
0.0018819
0.00014677
0.0014743
0.00015354
0.0010949
0.00015813
0.00067335
0.00027936
0.00016128
2.0053e-05
0.0033505
1.3148e-07
4.0262e-05
0.0032591
5.9918e-05
0.0031341
7.8536e-05
0.0029645
9.6112e-05
0.0027363
0.00011159
0.0025041
0.00012503
0.0021378
0.00013786
0.0018691
0.00014682
0.0014653
0.00015361
0.0010881
0.00015819
0.00066876
0.00027625
0.00016131
2.0053e-05
0.0033303
1.3327e-07
4.0264e-05
0.0032389
5.9922e-05
0.0031144
7.8542e-05
0.0029459
9.6119e-05
0.0027187
0.00011162
0.0024886
0.00012504
0.0021244
0.00013786
0.0018563
0.00014686
0.0014563
0.00015367
0.0010813
0.00015826
0.00066418
0.00027317
0.00016134
2.0053e-05
0.0033101
1.3507e-07
4.0266e-05
0.0032187
5.9927e-05
0.0030948
7.8548e-05
0.0029273
9.6127e-05
0.0027011
0.00011165
0.0024731
0.00012505
0.002111
0.00013785
0.0018435
0.00014691
0.0014473
0.00015374
0.0010745
0.00015832
0.0006596
0.00027011
0.00016137
2.0054e-05
0.0032899
1.3688e-07
4.0268e-05
0.0031985
5.9931e-05
0.0030751
7.8554e-05
0.0029087
9.6135e-05
0.0026835
0.00011168
0.0024575
0.00012506
0.0020976
0.00013785
0.0018307
0.00014695
0.0014382
0.0001538
0.0010677
0.00015838
0.00065501
0.00026709
0.0001614
2.0054e-05
0.0032697
1.3871e-07
4.0271e-05
0.0031783
5.9936e-05
0.0030555
7.856e-05
0.0028901
9.6142e-05
0.002666
0.00011171
0.002442
0.00012507
0.0020843
0.00013784
0.0018179
0.00014699
0.001429
0.00015386
0.0010608
0.00015844
0.00065043
0.00026409
0.00016144
2.0054e-05
0.0032495
1.4055e-07
4.0273e-05
0.003158
5.9941e-05
0.0030358
7.8567e-05
0.0028714
9.615e-05
0.0026484
0.00011174
0.0024264
0.00012508
0.0020709
0.00013784
0.0018052
0.00014702
0.0014198
0.00015392
0.0010539
0.0001585
0.00064585
0.00026113
0.00016147
2.0054e-05
0.0032293
1.4241e-07
4.0275e-05
0.0031378
5.9946e-05
0.0030161
7.8573e-05
0.0028528
9.6158e-05
0.0026308
0.00011177
0.0024108
0.0001251
0.0020576
0.00013783
0.0017924
0.00014706
0.0014106
0.00015398
0.001047
0.00015856
0.00064127
0.00025819
0.0001615
2.0054e-05
0.0032091
1.4429e-07
4.0278e-05
0.0031176
5.9951e-05
0.0029964
7.858e-05
0.0028342
9.6165e-05
0.0026132
0.0001118
0.0023951
0.00012512
0.0020443
0.00013783
0.0017797
0.0001471
0.0014013
0.00015404
0.00104
0.00015862
0.00063668
0.00025528
0.00016153
2.0054e-05
0.0031889
1.4617e-07
4.028e-05
0.0030974
5.9956e-05
0.0029768
7.8586e-05
0.0028155
9.6173e-05
0.0025956
0.00011183
0.0023795
0.00012513
0.002031
0.00013783
0.001767
0.00014713
0.001392
0.00015409
0.0010331
0.00015868
0.00063209
0.00025239
0.00016157
2.0054e-05
0.0031687
1.4808e-07
4.0282e-05
0.0030771
5.9961e-05
0.0029571
7.8593e-05
0.0027969
9.618e-05
0.002578
0.00011186
0.0023638
0.00012515
0.0020177
0.00013783
0.0017544
0.00014716
0.0013827
0.00015415
0.0010261
0.00015874
0.0006275
0.00024953
0.0001616
2.0055e-05
0.0031485
1.5e-07
4.0285e-05
0.0030569
5.9966e-05
0.0029374
7.86e-05
0.0027783
9.6188e-05
0.0025604
0.00011189
0.0023481
0.00012517
0.0020044
0.00013783
0.0017417
0.00014719
0.0013733
0.00015421
0.0010191
0.0001588
0.00062291
0.0002467
0.00016163
2.0055e-05
0.0031283
1.5194e-07
4.0287e-05
0.0030367
5.9971e-05
0.0029177
7.8607e-05
0.0027596
9.6195e-05
0.0025429
0.00011192
0.0023324
0.00012519
0.0019911
0.00013783
0.0017291
0.00014723
0.0013639
0.00015426
0.001012
0.00015886
0.00061831
0.00024388
0.00016167
2.0055e-05
0.0031081
1.5389e-07
4.029e-05
0.0030164
5.9977e-05
0.002898
7.8614e-05
0.002741
9.6203e-05
0.0025253
0.00011195
0.0023166
0.00012521
0.0019779
0.00013783
0.0017164
0.00014726
0.0013545
0.00015431
0.001005
0.00015891
0.00061371
0.0002411
0.0001617
2.0055e-05
0.0030879
1.5586e-07
4.0292e-05
0.0029962
5.9982e-05
0.0028783
7.8621e-05
0.0027224
9.621e-05
0.0025077
0.00011197
0.0023009
0.00012524
0.0019646
0.00013784
0.0017038
0.00014729
0.0013451
0.00015436
0.0009979
0.00015897
0.0006091
0.00023833
0.00016174
2.0055e-05
0.0030677
1.5785e-07
4.0295e-05
0.002976
5.9988e-05
0.0028587
7.8628e-05
0.0027037
9.6218e-05
0.0024901
0.000112
0.0022851
0.00012526
0.0019513
0.00013784
0.0016913
0.00014732
0.0013356
0.00015442
0.0009908
0.00015903
0.0006045
0.00023559
0.00016177
2.0056e-05
0.0030475
1.5986e-07
4.0297e-05
0.0029557
5.9993e-05
0.002839
7.8636e-05
0.0026851
9.6225e-05
0.0024725
0.00011203
0.0022693
0.00012529
0.0019381
0.00013785
0.0016787
0.00014735
0.0013261
0.00015447
0.00098368
0.00015908
0.00059988
0.00023286
0.0001618
2.0056e-05
0.0030272
1.6188e-07
4.03e-05
0.0029355
5.9999e-05
0.0028193
7.8643e-05
0.0026664
9.6232e-05
0.0024549
0.00011206
0.0022534
0.00012531
0.0019248
0.00013785
0.0016661
0.00014737
0.0013166
0.00015452
0.00097654
0.00015914
0.00059526
0.00023016
0.00016184
2.0056e-05
0.003007
1.6392e-07
4.0302e-05
0.0029152
6.0005e-05
0.0027996
7.8651e-05
0.0026478
9.624e-05
0.0024373
0.00011209
0.0022376
0.00012534
0.0019116
0.00013786
0.0016536
0.0001474
0.001307
0.00015457
0.00096937
0.00015919
0.00059064
0.00022748
0.00016187
2.0056e-05
0.0029868
1.6599e-07
4.0305e-05
0.002895
6.0011e-05
0.0027799
7.8658e-05
0.0026291
9.6247e-05
0.0024197
0.00011212
0.0022217
0.00012537
0.0018983
0.00013787
0.0016411
0.00014743
0.0012975
0.00015462
0.00096219
0.00015924
0.00058601
0.00022482
0.00016191
2.0056e-05
0.0029666
1.6807e-07
4.0308e-05
0.0028747
6.0017e-05
0.0027601
7.8666e-05
0.0026105
9.6255e-05
0.0024021
0.00011214
0.0022058
0.00012539
0.0018851
0.00013788
0.0016286
0.00014746
0.0012879
0.00015466