/*--------------------------------*- C++ -*----------------------------------*\
  =========                 |
  \\      /  F ield         | OpenFOAM: The Open Source CFD Toolbox
   \\    /   O peration     | Website:  https://openfoam.org
    \\  /    A nd           | Version:  6.0
     \\/     M anipulation  |
\*---------------------------------------------------------------------------*/
FoamFile
{
    version     2.0;
    format      ascii;
    class       surfaceScalarField;
    location    "18";
    object      phi;
}
// * * * * * * * * * * * * * * * * * * * * * * * * * * * * * * * * * * * * * //

dimensions      [0 3 -1 0 0 0 0];

internalField   nonuniform List<scalar> 
123526
(
3.88673e-07
2.34136e-05
1.17199e-08
8.1779e-07
2.53143e-05
1.28202e-06
2.73693e-05
1.78305e-06
2.9591e-05
2.32495e-06
3.19929e-05
2.9102e-06
3.45896e-05
3.54321e-06
3.73969e-05
4.22722e-06
4.04317e-05
4.96802e-06
4.37116e-05
5.76932e-06
4.72576e-05
6.63608e-06
5.10915e-05
7.5729e-06
5.52359e-05
8.58634e-06
5.97156e-05
9.68422e-06
6.45553e-05
1.08751e-05
6.97853e-05
1.21625e-05
7.54408e-05
1.35551e-05
8.15526e-05
1.50673e-05
8.81503e-05
1.67065e-05
9.52816e-05
1.8479e-05
0.000102989
2.04033e-05
0.000111308
2.24907e-05
0.000120292
2.47478e-05
0.00013
2.72026e-05
0.000140465
2.98593e-05
0.000151772
3.27395e-05
0.000163964
3.58632e-05
0.00017711
3.92443e-05
0.000191287
4.29124e-05
0.000206551
4.68797e-05
0.000222996
5.11799e-05
0.000240678
5.58296e-05
0.000259694
6.08616e-05
0.000280109
6.63017e-05
0.000302005
7.2176e-05
0.000325459
7.85238e-05
0.000350524
8.53674e-05
0.000377275
9.27429e-05
0.000405741
0.000100686
0.000435943
0.000109225
0.000467879
0.000118391
0.000501496
0.00012822
0.00053669
0.000138735
0.000573298
0.00014996
0.000611058
0.00016191
0.000649597
0.000174594
0.000688394
0.000188007
0.000726745
0.000202125
0.000763712
0.000216905
0.000798074
0.000232271
0.000828257
0.000248111
0.000852262
0.000264261
0.000867585
0.000280507
0.000871103
0.000296551
0.000859009
0.000312016
0.000826656
0.00032641
0.000768505
0.000339138
0.00067793
0.00034954
0.000547392
0.000356547
0.000368043
0.000131917
0.000354661
3.89837e-07
2.30242e-05
4.53686e-09
8.12499e-07
2.48933e-05
1.26968e-06
2.69142e-05
1.76311e-06
2.9099e-05
2.29671e-06
3.14609e-05
2.87302e-06
3.40145e-05
3.49626e-06
3.6775e-05
4.1697e-06
3.97592e-05
4.89897e-06
4.29835e-05
5.68776e-06
4.64695e-05
6.54089e-06
5.02393e-05
7.46297e-06
5.43144e-05
8.46033e-06
5.87191e-05
9.54076e-06
6.34754e-05
1.07125e-05
6.86143e-05
1.19793e-05
7.41746e-05
1.33493e-05
8.01833e-05
1.48368e-05
8.66633e-05
1.64492e-05
9.36699e-05
1.81924e-05
0.000101247
2.00846e-05
0.000109416
2.2137e-05
0.00011824
2.43559e-05
0.000127782
2.67688e-05
0.000138053
2.93797e-05
0.000149161
3.22098e-05
0.000161134
3.52786e-05
0.000174042
3.85997e-05
0.000187966
4.2202e-05
0.000202949
4.60976e-05
0.0002191
5.03192e-05
0.000236457
5.48833e-05
0.00025513
5.98217e-05
0.000275171
6.516e-05
0.000296667
7.09237e-05
0.000319695
7.71514e-05
0.000344296
8.38651e-05
0.000370561
9.11005e-05
0.000398505
9.88929e-05
0.00042815
0.00010727
0.000459501
0.000116263
0.000492501
0.000125908
0.000527044
0.000136227
0.000562975
0.000147245
0.000600037
0.000158978
0.00063786
0.000171433
0.000675934
0.000184606
0.000713565
0.000198474
0.000749836
0.000212993
0.000783544
0.000228088
0.000813148
0.000243649
0.000836685
0.000259512
0.000851698
0.000275468
0.000855129
0.000291221
0.000843239
0.000306404
0.000811465
0.000320538
0.000754361
0.000333027
0.00066543
0.000343246
0.000537162
0.000349794
0.000361498
0.000130762
0.000350945
3.84495e-07
2.26419e-05
2.63738e-09
7.99432e-07
2.44801e-05
1.2482e-06
2.64674e-05
1.73261e-06
2.8616e-05
2.25643e-06
3.09387e-05
2.82223e-06
3.34498e-05
3.43409e-06
3.61644e-05
4.09531e-06
3.90988e-05
4.81132e-06
4.22685e-05
5.58584e-06
4.56957e-05
6.42355e-06
4.94025e-05
7.329e-06
5.34094e-05
8.3084e-06
5.77405e-05
9.3694e-06
6.24148e-05
1.05201e-05
6.74643e-05
1.17641e-05
7.2931e-05
1.31096e-05
7.88385e-05
1.45704e-05
8.5203e-05
1.61538e-05
9.20872e-05
1.78658e-05
9.95354e-05
1.9724e-05
0.000107559
2.17395e-05
0.000116225
2.39185e-05
0.000125603
2.62879e-05
0.000135684
2.88516e-05
0.000146598
3.16305e-05
0.000158356
3.46437e-05
0.000171029
3.79043e-05
0.000184706
4.1441e-05
0.000199413
4.52653e-05
0.000215276
4.94095e-05
0.000232313
5.38899e-05
0.00025065
5.87375e-05
0.000270324
6.39777e-05
0.000291428
6.96353e-05
0.000314038
7.57485e-05
0.000338183
8.23391e-05
0.000363971
8.94422e-05
0.000391402
9.70928e-05
0.000420499
0.000105318
0.000451276
0.00011415
0.000483669
0.000123622
0.000517572
0.000133759
0.000552838
0.000144582
0.000589213
0.000156109
0.000626333
0.000168346
0.000663695
0.000181289
0.000700621
0.000194915
0.000736208
0.000209181
0.000769277
0.000224011
0.000798316
0.000239296
0.0008214
0.000254874
0.000836117
0.000270541
0.000839468
0.000286006
0.000827777
0.000300909
0.00079657
0.000314785
0.000740493
0.00032704
0.00065319
0.000337025
0.000527191
0.000343734
0.000354811
0.000129376
0.00034516
3.73017e-07
2.22671e-05
6.65504e-09
7.79963e-07
2.40749e-05
1.22007e-06
2.60293e-05
1.69518e-06
2.81423e-05
2.20891e-06
3.04266e-05
2.76386e-06
3.2896e-05
3.36397e-06
3.55655e-05
4.01255e-06
3.84512e-05
4.71487e-06
4.15672e-05
5.47464e-06
4.49366e-05
6.29641e-06
4.85816e-05
7.1847e-06
5.25217e-05
8.14557e-06
5.67804e-05
9.18658e-06
6.13743e-05
1.03157e-05
6.6336e-05
1.15364e-05
7.17108e-05
1.28567e-05
7.75189e-05
1.42903e-05
8.37698e-05
1.58444e-05
9.05338e-05
1.75246e-05
9.78556e-05
1.93485e-05
0.000105735
2.13269e-05
0.000114248
2.34659e-05
0.000123465
2.57919e-05
0.000133359
2.83087e-05
0.000144082
3.10369e-05
0.000155628
3.39953e-05
0.000168071
3.71967e-05
0.000181505
4.06693e-05
0.000195941
4.44244e-05
0.000211522
4.84938e-05
0.000228243
5.28934e-05
0.000246251
5.76538e-05
0.000265564
6.27999e-05
0.000286282
6.83563e-05
0.000308483
7.43602e-05
0.00033218
8.08333e-05
0.000357499
8.78102e-05
0.000384426
9.53252e-05
0.000412985
0.000103405
0.000443197
0.000112082
0.000474993
0.000121387
0.000508267
0.000131347
0.000542879
0.000141981
0.000578579
0.000153307
0.000615007
0.000165331
0.000651671
0.000178048
0.000687904
0.000191436
0.00072282
0.00020545
0.000755263
0.000220016
0.000783747
0.000235027
0.000806388
0.000250321
0.000820815
0.000265699
0.000824088
0.000280877
0.000812599
0.000295502
0.000781951
0.000309121
0.000726878
0.000321148
0.000641169
0.000330912
0.000517432
0.000337479
0.000348264
0.000127873
0.000339008
3.60259e-07
2.18994e-05
1.2525e-08
7.59629e-07
2.36774e-05
1.19142e-06
2.55996e-05
1.6576e-06
2.76777e-05
2.16157e-06
2.99242e-05
2.70605e-06
3.23528e-05
3.29475e-06
3.49781e-05
3.93107e-06
3.78159e-05
4.62004e-06
4.08792e-05
5.36548e-06
4.41919e-05
6.17168e-06
4.77763e-05
7.04326e-06
5.16507e-05
7.986e-06
5.58385e-05
9.00748e-06
6.03533e-05
1.01154e-05
6.52288e-05
1.13133e-05
7.05134e-05
1.2609e-05
7.62239e-05
1.4016e-05
8.23634e-05
1.55412e-05
8.90093e-05
1.71903e-05
9.6207e-05
1.89807e-05
0.000103945
2.09227e-05
0.000112306
2.30226e-05
0.000121366
2.53061e-05
0.000131076
2.77771e-05
0.000141611
3.04558e-05
0.00015295
3.33606e-05
0.000165167
3.65043e-05
0.000178362
3.99144e-05
0.000192531
4.36021e-05
0.000207834
4.75986e-05
0.000224247
5.19196e-05
0.00024193
5.65952e-05
0.000260889
6.16498e-05
0.000281229
6.71076e-05
0.000303026
7.30052e-05
0.000326283
7.93637e-05
0.000351141
8.62173e-05
0.000377574
9.35997e-05
0.000405604
0.000101537
0.000435261
0.000110061
0.000466471
0.000119203
0.000499126
0.000128988
0.000533096
0.000139436
0.000568132
0.000150563
0.000603881
0.000162376
0.000639859
0.00017487
0.000675412
0.000188021
0.00070967
0.000201786
0.000741499
0.000216092
0.000769444
0.00023083
0.000791653
0.000245844
0.000805802
0.000260937
0.000809003
0.000275831
0.00079771
0.000290183
0.000767609
0.000303548
0.000713523
0.000315354
0.000629377
0.000324913
0.000507887
0.000331349
0.000341848
0.00012604
0.000333218
3.4822e-07
2.15385e-05
1.76251e-08
7.40245e-07
2.32872e-05
1.16407e-06
2.51778e-05
1.62169e-06
2.72216e-05
2.11635e-06
2.94311e-05
2.65081e-06
3.18196e-05
3.22863e-06
3.44015e-05
3.85322e-06
3.71923e-05
4.52945e-06
4.0204e-05
5.26111e-06
4.3461e-05
6.05238e-06
4.69858e-05
6.90783e-06
5.07958e-05
7.83314e-06
5.49139e-05
8.83575e-06
5.93511e-05
9.9232e-06
6.4142e-05
1.1099e-05
6.9338e-05
1.23709e-05
7.49527e-05
1.3752e-05
8.09827e-05
1.52492e-05
8.75127e-05
1.68682e-05
9.45885e-05
1.86258e-05
0.000102188
2.05324e-05
0.0001104
2.2594e-05
0.000119304
2.4836e-05
0.000128834
2.72623e-05
0.000139185
2.98925e-05
0.00015032
3.2745e-05
0.000162315
3.58321e-05
0.000175275
3.91809e-05
0.000189183
4.28026e-05
0.000204213
4.67276e-05
0.000220323
5.09715e-05
0.000237686
5.55638e-05
0.000256297
6.05286e-05
0.000276265
6.58894e-05
0.000297666
7.16825e-05
0.000320491
7.79284e-05
0.000344896
8.46608e-05
0.000370842
9.19127e-05
0.000398353
9.97101e-05
0.000427465
0.000108084
0.000458098
0.000117065
0.000490146
0.000126677
0.000523485
0.000136941
0.00055787
0.000147872
0.000592952
0.000159477
0.000628257
0.000171749
0.000663141
0.000184667
0.000696754
0.000198187
0.000727983
0.000212234
0.000755398
0.000226705
0.000777185
0.000241443
0.000791061
0.000256256
0.000794192
0.000270874
0.000783097
0.000284959
0.000753534
0.000298076
0.000700415
0.00030967
0.000617793
0.00031904
0.000498528
0.000325375
0.000335539
0.000123904
0.000327546
3.36908e-07
2.11842e-05
2.23737e-08
7.21883e-07
2.29041e-05
1.13802e-06
2.47636e-05
1.58737e-06
2.67739e-05
2.07305e-06
2.8947e-05
2.59784e-06
3.12961e-05
3.16516e-06
3.38354e-05
3.77844e-06
3.658e-05
4.44238e-06
3.9541e-05
5.16079e-06
4.27433e-05
5.93768e-06
4.62097e-05
6.77764e-06
4.99564e-05
7.68611e-06
5.40061e-05
8.67053e-06
5.83672e-05
9.73819e-06
6.3075e-05
1.08927e-05
6.8184e-05
1.21414e-05
7.37047e-05
1.34974e-05
7.96272e-05
1.49674e-05
8.60433e-05
1.6557e-05
9.29994e-05
1.82827e-05
0.000100463
2.01547e-05
0.000108528
2.2179e-05
0.000117281
2.43805e-05
0.000126633
2.67629e-05
0.000136804
2.93458e-05
0.000147737
3.21468e-05
0.000159514
3.51784e-05
0.000172244
3.84671e-05
0.000185894
4.20239e-05
0.000200657
4.58787e-05
0.000216468
5.00468e-05
0.000233519
5.45572e-05
0.000251787
5.94335e-05
0.000271389
6.46991e-05
0.000292401
7.03893e-05
0.000314802
7.65244e-05
0.000338762
8.31375e-05
0.00036423
9.0261e-05
0.00039123
9.79204e-05
0.000419806
0.000106146
0.000449874
0.000114968
0.000481325
0.000124411
0.000514044
0.000134493
0.000547789
0.000145231
0.000582215
0.00015663
0.000616859
0.000168684
0.000651088
0.000181371
0.000684068
0.000194648
0.000714708
0.000208441
0.000741606
0.000222648
0.000762982
0.000237114
0.000776594
0.000251654
0.000779659
0.000266002
0.000768754
0.000279828
0.000739717
0.000292704
0.000687547
0.000304091
0.000606418
0.00031329
0.00048934
0.000319512
0.000329333
0.000121705
0.000321738
3.25581e-07
2.08362e-05
2.71913e-08
7.03726e-07
2.25278e-05
1.11249e-06
2.43568e-05
1.55388e-06
2.6334e-05
2.03095e-06
2.84714e-05
2.54645e-06
3.07819e-05
3.10369e-06
3.32793e-05
3.70607e-06
3.59786e-05
4.35817e-06
3.88898e-05
5.06375e-06
4.20385e-05
5.82675e-06
4.54474e-05
6.65164e-06
4.91321e-05
7.54383e-06
5.31146e-05
8.51056e-06
5.74009e-05
9.55904e-06
6.20272e-05
1.06927e-05
6.70508e-05
1.1919e-05
7.2479e-05
1.32506e-05
7.8296e-05
1.46941e-05
8.46004e-05
1.6255e-05
9.1439e-05
1.79497e-05
9.87692e-05
1.9788e-05
0.000106691
2.17758e-05
0.000115293
2.39376e-05
0.000124472
2.62772e-05
0.000134465
2.88136e-05
0.000145201
3.15643e-05
0.000156764
3.45415e-05
0.000169267
3.77712e-05
0.000182665
4.12643e-05
0.000197164
4.50501e-05
0.000212682
4.91437e-05
0.000229425
5.35736e-05
0.000247358
5.8363e-05
0.000266601
6.35348e-05
0.000287231
6.91239e-05
0.000309214
7.515e-05
0.000332737
8.16457e-05
0.000357735
8.86429e-05
0.000384234
9.61665e-05
0.000412284
0.000104246
0.000441796
0.000112912
0.000472661
0.000122187
0.000504771
0.00013209
0.000537887
0.000142637
0.000571671
0.000153832
0.000605666
0.000165671
0.000639253
0.000178129
0.000671613
0.000191164
0.000701677
0.000204706
0.000728068
0.000218652
0.000749039
0.000232853
0.000762392
0.000247124
0.000765392
0.000261209
0.000754676
0.000274783
0.000726154
0.000287424
0.000674916
0.00029861
0.000595243
0.00030765
0.000480312
0.000313755
0.000323255
0.000119594
0.000315904
3.15761e-07
2.04944e-05
3.12538e-08
6.87373e-07
2.21582e-05
1.08892e-06
2.39572e-05
1.52258e-06
2.5902e-05
1.99115e-06
2.80044e-05
2.49753e-06
3.02769e-05
3.0448e-06
3.27332e-05
3.63648e-06
3.5388e-05
4.2769e-06
3.82503e-05
4.96994e-06
4.13463e-05
5.71927e-06
4.46988e-05
6.5295e-06
4.83225e-05
7.40569e-06
5.2239e-05
8.3552e-06
5.6452e-05
9.38489e-06
6.09981e-05
1.04983e-05
6.59378e-05
1.17026e-05
7.12754e-05
1.30104e-05
7.69887e-05
1.4428e-05
8.31834e-05
1.5961e-05
8.99065e-05
1.76253e-05
9.71056e-05
1.94306e-05
0.000104886
2.13828e-05
0.000113342
2.35058e-05
0.000122349
2.58034e-05
0.000132167
2.82943e-05
0.000142711
3.09957e-05
0.000154063
3.39195e-05
0.000166344
3.70914e-05
0.000179494
4.0522e-05
0.000193734
4.42401e-05
0.000208965
4.82606e-05
0.000225405
5.26114e-05
0.000243008
5.73154e-05
0.000261897
6.2395e-05
0.000282152
6.78845e-05
0.000303725
7.38034e-05
0.000326819
8.01836e-05
0.000351356
8.70563e-05
0.000377363
9.44462e-05
0.000404895
0.000102382
0.000433861
0.000110894
0.000464151
0.000120003
0.000495663
0.00012973
0.000528162
0.000140087
0.000561315
0.000151081
0.000594673
0.000162705
0.00062763
0.000174936
0.000659383
0.000187733
0.000688881
0.000201026
0.000714776
0.000214715
0.000735353
0.000228654
0.000748451
0.000242663
0.000751386
0.000256491
0.000740852
0.000269819
0.000712833
0.000282233
0.000662509
0.00029322
0.000584264
0.000302111
0.000471428
0.000308117
0.000317259
0.000117516
0.000310212
3.06983e-07
2.01585e-05
3.36048e-08
6.71945e-07
2.17952e-05
1.06634e-06
2.35647e-05
1.49229e-06
2.54777e-05
1.95255e-06
2.75456e-05
2.44996e-06
2.97808e-05
2.98754e-06
3.21967e-05
3.56875e-06
3.48078e-05
4.1978e-06
3.76221e-05
4.87852e-06
4.06663e-05
5.61454e-06
4.39635e-05
6.41032e-06
4.75273e-05
7.27094e-06
5.1379e-05
8.2035e-06
5.55199e-05
9.21486e-06
5.99873e-05
1.03084e-05
6.48447e-05
1.14912e-05
7.00931e-05
1.27757e-05
7.57047e-05
1.41681e-05
8.17916e-05
1.56737e-05
8.84014e-05
1.73082e-05
9.54716e-05
1.90812e-05
0.000103113
2.09985e-05
0.000111425
2.30836e-05
0.000120264
2.53401e-05
0.000129911
2.77864e-05
0.000140265
3.04395e-05
0.000151411
3.3311e-05
0.000163473
3.64261e-05
0.000176379
3.97953e-05
0.000190365
4.34469e-05
0.000205313
4.73955e-05
0.000221457
5.16685e-05
0.000238735
5.62885e-05
0.000257278
6.12774e-05
0.000277164
6.6669e-05
0.000298334
7.24823e-05
0.000321006
7.87487e-05
0.000345091
8.54989e-05
0.000370613
9.27569e-05
0.000397638
0.000100551
0.000426068
0.00010891
0.000455793
0.000117857
0.000486718
0.000127408
0.000518612
0.000137579
0.000551147
0.000148373
0.000583881
0.000159785
0.000616221
0.000171792
0.000647378
0.000184354
0.000676324
0.000197402
0.000701732
0.000210838
0.000721921
0.00022452
0.000734769
0.000238272
0.000737638
0.000251849
0.000727282
0.000264938
0.000699754
0.00027713
0.000650327
0.000287924
0.00057348
0.000296668
0.000462697
0.000302596
0.000311356
0.000115423
0.000304726
2.98881e-07
1.98287e-05
3.58436e-08
6.57395e-07
2.14386e-05
1.04475e-06
2.31793e-05
1.46312e-06
2.50609e-05
1.91516e-06
2.7095e-05
2.4037e-06
2.92936e-05
2.93168e-06
3.16699e-05
3.50254e-06
3.4238e-05
4.12038e-06
3.7005e-05
4.78903e-06
3.99985e-05
5.51194e-06
4.32413e-05
6.29363e-06
4.67462e-05
7.13892e-06
5.05343e-05
8.05496e-06
5.46044e-05
9.0483e-06
5.89945e-05
1.01225e-05
6.3771e-05
1.12842e-05
6.8932e-05
1.25458e-05
7.44436e-05
1.39133e-05
8.04246e-05
1.53921e-05
8.69231e-05
1.69974e-05
9.38668e-05
1.87388e-05
0.000101372
2.06219e-05
0.000109543
2.26697e-05
0.000118217
2.48859e-05
0.000127696
2.72884e-05
0.000137863
2.9894e-05
0.000148805
3.27142e-05
0.000160653
3.57735e-05
0.00017332
3.90824e-05
0.000187057
4.26687e-05
0.000201727
4.65466e-05
0.000217579
5.07432e-05
0.000234539
5.52805e-05
0.000252742
6.01802e-05
0.000272265
6.54753e-05
0.00029304
7.11847e-05
0.000315298
7.7339e-05
0.000338937
8.39684e-05
0.000363985
9.10964e-05
0.000390511
9.87508e-05
0.000418415
0.00010696
0.000447585
0.000115745
0.000477934
0.000125124
0.000509235
0.00013511
0.000541162
0.000145708
0.000573284
0.000156911
0.000605019
0.000168698
0.000635592
0.000181028
0.000663994
0.000193834
0.000688926
0.000207023
0.000708733
0.000220454
0.000721334
0.000233956
0.000724138
0.000247289
0.000713952
0.000260144
0.000686904
0.000272121
0.000638353
0.000282727
0.00056288
0.000291324
0.000454103
0.000297184
0.000305501
0.000113203
0.000299413
2.90554e-07
1.95046e-05
3.78907e-08
6.42636e-07
2.10883e-05
1.02311e-06
2.28005e-05
1.43406e-06
2.46515e-05
1.87811e-06
2.66523e-05
2.35803e-06
2.88149e-05
2.8767e-06
3.11523e-05
3.43747e-06
3.36782e-05
4.0444e-06
3.63989e-05
4.70117e-06
3.93424e-05
5.41129e-06
4.25318e-05
6.17906e-06
4.5979e-05
7.00937e-06
4.97046e-05
7.90908e-06
5.37051e-05
8.88478e-06
5.80194e-05
9.93981e-06
6.27165e-05
1.10809e-05
6.77915e-05
1.232e-05
7.3205e-05
1.36632e-05
7.9082e-05
1.51156e-05
8.54711e-05
1.66923e-05
9.22906e-05
1.84026e-05
9.96623e-05
2.0252e-05
0.000107694
2.22632e-05
0.000116206
2.44398e-05
0.00012552
2.67994e-05
0.000135504
2.93583e-05
0.000146247
3.2128e-05
0.000157884
3.51326e-05
0.000170316
3.83822e-05
0.000183807
4.19042e-05
0.000198206
4.57126e-05
0.000213771
4.9834e-05
0.000230418
5.42899e-05
0.000248287
5.91017e-05
0.000267454
6.43018e-05
0.000287841
6.99088e-05
0.000309692
7.59526e-05
0.000332895
8.24629e-05
0.000357476
8.94628e-05
0.000383513
9.69795e-05
0.0004109
0.000105041
0.000439525
0.000113667
0.00046931
0.000122876
0.000500028
0.00013268
0.000531359
0.000143085
0.000562882
0.000154082
0.000594024
0.000165652
0.000624025
0.000177755
0.000651895
0.000190327
0.000676359
0.000203274
0.000695791
0.00021646
0.000708148
0.000229718
0.000710883
0.000242812
0.000700865
0.000255441
0.000674285
0.000267209
0.000626595
0.00027763
0.000552468
0.000286082
0.000445663
0.000291874
0.000299733
0.000110893
0.000294218
2.83016e-07
1.91864e-05
4.03477e-08
6.29077e-07
2.07444e-05
1.00285e-06
2.24287e-05
1.40661e-06
2.42495e-05
1.84272e-06
2.62176e-05
2.31413e-06
2.83449e-05
2.82346e-06
3.0644e-05
3.37425e-06
3.31285e-05
3.97026e-06
3.58037e-05
4.61536e-06
3.86982e-05
5.31272e-06
4.18351e-05
6.06687e-06
4.52255e-05
6.88228e-06
4.88897e-05
7.76601e-06
5.28219e-05
8.72423e-06
5.70617e-05
9.76048e-06
6.16807e-05
1.08811e-05
6.66714e-05
1.20982e-05
7.19885e-05
1.34173e-05
7.77634e-05
1.48438e-05
8.40452e-05
1.63923e-05
9.07426e-05
1.80721e-05
9.7983e-05
1.98884e-05
0.000105878
2.18636e-05
0.000114231
2.40012e-05
0.000123383
2.63185e-05
0.000133187
2.88316e-05
0.000143734
3.15516e-05
0.000155164
3.45022e-05
0.000167366
3.76935e-05
0.000180616
4.11523e-05
0.000194747
4.48923e-05
0.000210031
4.89396e-05
0.000226372
5.33154e-05
0.000243912
5.80407e-05
0.00026273
6.31472e-05
0.000282735
6.86533e-05
0.000304186
7.45882e-05
0.00032696
8.09812e-05
0.000351084
8.78548e-05
0.00037664
9.52357e-05
0.00040352
0.000103151
0.000431611
0.000111621
0.000460841
0.000120662
0.000490987
0.000130288
0.000521734
0.000140503
0.000552668
0.000151299
0.000583228
0.000162657
0.000612667
0.000174538
0.000640015
0.00018688
0.000664017
0.000199591
0.00068308
0.000212539
0.000695195
0.00022556
0.000697863
0.000238423
0.000688003
0.000250831
0.00066188
0.000262395
0.000615033
0.000272637
0.000542229
0.000280946
0.000437354
0.000286661
0.000294019
0.000108459
0.000289096
2.75486e-07
1.88737e-05
4.15981e-08
6.15273e-07
2.04064e-05
9.82372e-07
2.20634e-05
1.37892e-06
2.38545e-05
1.80731e-06
2.57906e-05
2.27037e-06
2.78832e-05
2.77072e-06
3.01447e-05
3.31174e-06
3.25885e-05
3.89719e-06
3.5219e-05
4.53078e-06
3.80653e-05
5.21574e-06
4.11507e-05
5.95638e-06
4.44854e-05
6.75728e-06
4.80893e-05
7.62517e-06
5.19544e-05
8.5663e-06
5.6121e-05
9.584e-06
6.06635e-05
1.06846e-05
6.55712e-05
1.18799e-05
7.07937e-05
1.31754e-05
7.64683e-05
1.45764e-05
8.26447e-05
1.60972e-05
8.92223e-05
1.77468e-05
9.63337e-05
1.95306e-05
0.000104095
2.14704e-05
0.000112292
2.35696e-05
0.000121284
2.58453e-05
0.000130912
2.83133e-05
0.000141267
3.09844e-05
0.000152494
3.3882e-05
0.000164469
3.70158e-05
0.000177483
4.04123e-05
0.000191351
4.4085e-05
0.000206359
4.80594e-05
0.000222398
5.23563e-05
0.000239615
5.69963e-05
0.00025809
6.20107e-05
0.000277722
6.74173e-05
0.000298781
7.3245e-05
0.000321134
7.95224e-05
0.000344807
8.62716e-05
0.000369892
9.35187e-05
0.000396274
0.00010129
0.00042384
0.000109606
0.000452526
0.000118483
0.000482111
0.000127934
0.000512286
0.000137962
0.000542643
0.000148561
0.000572631
0.000159712
0.00060152
0.000171377
0.000628354
0.000183494
0.000651903
0.000195976
0.000670602
0.000208693
0.000682478
0.000221483
0.000685076
0.000234121
0.000675373
0.000246314
0.000649697
0.00025768
0.000603676
0.000267747
0.00053217
0.000275916
0.000429196
0.000281547
0.000288409
0.00010601
0.000284027
2.68759e-07
1.85667e-05
4.29196e-08
6.02524e-07
2.00746e-05
9.6303e-07
2.17046e-05
1.35246e-06
2.34667e-05
1.77314e-06
2.53713e-05
2.22785e-06
2.74298e-05
2.71918e-06
2.96544e-05
3.25048e-06
3.20583e-05
3.82541e-06
3.46449e-05
4.44769e-06
3.74439e-05
5.12037e-06
4.04786e-05
5.84782e-06
4.37586e-05
6.63435e-06
4.73033e-05
7.48676e-06
5.11026e-05
8.41101e-06
5.51973e-05
9.41051e-06
5.96645e-05
1.04914e-05
6.44908e-05
1.16652e-05
6.96204e-05
1.29375e-05
7.51966e-05
1.43133e-05
8.12694e-05
1.58067e-05
8.77294e-05
1.74268e-05
9.47142e-05
1.91785e-05
0.000102343
2.10834e-05
0.000110388
2.31448e-05
0.000119223
2.53795e-05
0.000128677
2.7803e-05
0.000138844
3.0426e-05
0.000149871
3.32713e-05
0.000161624
3.63486e-05
0.000174406
3.96838e-05
0.000188016
4.32902e-05
0.000202753
4.71927e-05
0.000218496
5.1412e-05
0.000235397
5.59681e-05
0.000253535
6.08917e-05
0.000272799
6.62004e-05
0.000293473
7.19225e-05
0.000315412
7.80861e-05
0.000338645
8.47128e-05
0.000363266
9.18283e-05
0.000389159
9.94588e-05
0.000416211
0.000107623
0.000444362
0.000116339
0.000473397
0.000125617
0.000503008
0.000135463
0.000532798
0.000145869
0.000562225
0.000156817
0.000590571
0.000168271
0.0006169
0.000180171
0.000640003
0.00019243
0.000658343
0.000204921
0.000669982
0.000217487
0.000672509
0.000229905
0.000662955
0.000241889
0.000637716
0.000253061
0.000592505
0.000262959
0.000522272
0.000270992
0.00042116
0.000276532
0.000282867
0.000103525
0.000279011
2.62026e-07
1.82651e-05
4.34167e-08
5.89639e-07
1.97486e-05
9.43641e-07
2.13522e-05
1.32605e-06
2.30856e-05
1.73922e-06
2.49593e-05
2.18583e-06
2.69843e-05
2.66844e-06
2.91727e-05
3.19025e-06
3.15374e-05
3.75496e-06
3.40809e-05
4.36606e-06
3.68334e-05
5.02674e-06
3.98185e-05
5.74107e-06
4.30447e-05
6.51354e-06
4.65313e-05
7.35058e-06
5.02659e-05
8.25827e-06
5.429e-05
9.23976e-06
5.86834e-05
1.03012e-05
6.34298e-05
1.14539e-05
6.84681e-05
1.27033e-05
7.39477e-05
1.40544e-05
7.99188e-05
1.55209e-05
8.62633e-05
1.71118e-05
9.31238e-05
1.88319e-05
0.000100624
2.07024e-05
0.000108517
2.27266e-05
0.000117199
2.4921e-05
0.000126483
2.73007e-05
0.000136465
2.98763e-05
0.000147296
3.26702e-05
0.00015883
3.56919e-05
0.000171385
3.89667e-05
0.000184741
4.25078e-05
0.000199212
4.63397e-05
0.000214664
5.04824e-05
0.000231255
5.49559e-05
0.000249062
5.97903e-05
0.000267965
6.50026e-05
0.000288261
7.06209e-05
0.000309795
7.66726e-05
0.000332594
8.31789e-05
0.000356761
9.01651e-05
0.000382174
9.76567e-05
0.00040872
0.000105673
0.000436347
0.00011423
0.000464841
0.00012334
0.000493901
0.000133006
0.000523133
0.000143224
0.000552009
0.000153975
0.000579823
0.000165223
0.000605655
0.00017691
0.000628319
0.000188952
0.000646305
0.000201224
0.00065771
0.000213572
0.000660165
0.000225776
0.000650757
0.000237554
0.000625946
0.000248537
0.00058153
0.000258268
0.000512549
0.000266168
0.00041327
0.000271614
0.00027744
0.00010111
0.000274056
2.5663e-07
1.79692e-05
4.4234e-08
5.78614e-07
1.94287e-05
9.26295e-07
2.10064e-05
1.30192e-06
2.27117e-05
1.70758e-06
2.4555e-05
2.14612e-06
2.65472e-05
2.61987e-06
2.87e-05
3.13224e-06
3.10261e-05
3.68659e-06
3.35272e-05
4.28668e-06
3.62342e-05
4.93529e-06
3.91705e-05
5.63679e-06
4.23439e-05
6.39518e-06
4.57734e-05
7.21718e-06
4.94445e-05
8.10837e-06
5.33993e-05
9.07219e-06
5.77201e-05
1.01144e-05
6.23881e-05
1.12463e-05
6.73367e-05
1.24731e-05
7.27213e-05
1.37997e-05
7.85927e-05
1.52398e-05
8.48237e-05
1.68018e-05
9.15622e-05
1.84908e-05
9.89353e-05
2.03276e-05
0.000106681
2.23152e-05
0.000115212
2.44698e-05
0.000124329
2.68065e-05
0.000134128
2.93354e-05
0.000144768
3.20787e-05
0.000156087
3.50456e-05
0.000168418
3.82611e-05
0.000181526
4.1738e-05
0.000195736
4.55003e-05
0.000210902
4.95679e-05
0.000227188
5.39602e-05
0.000244671
5.87068e-05
0.000263219
6.38245e-05
0.000283144
6.93408e-05
0.000304279
7.52824e-05
0.000326653
8.16705e-05
0.000350373
8.85298e-05
0.000375316
9.58853e-05
0.000401365
0.000103756
0.000428478
0.000112158
0.00045644
0.000121102
0.000484956
0.000130594
0.000513641
0.000140628
0.000541975
0.000151186
0.000569265
0.000162234
0.000594608
0.000173714
0.000616838
0.000185544
0.000634474
0.000197602
0.000645646
0.000209736
0.000648029
0.000221731
0.000638762
0.000233309
0.00061437
0.000244105
0.000570733
0.000253673
0.000502981
0.000261443
0.000405495
0.000266793
0.000272085
9.87181e-05
0.000269173
2.51194e-07
1.76784e-05
4.34522e-08
5.67161e-07
1.91143e-05
9.08512e-07
2.06666e-05
1.27731e-06
2.23444e-05
1.67567e-06
2.41578e-05
2.10633e-06
2.61177e-05
2.57163e-06
2.82356e-05
3.07478e-06
3.05239e-05
3.61921e-06
3.29835e-05
4.20843e-06
3.56457e-05
4.84538e-06
3.8534e-05
5.53412e-06
4.16556e-05
6.27885e-06
4.50291e-05
7.0859e-06
4.86378e-05
7.96102e-06
5.25246e-05
8.90734e-06
5.67742e-05
9.93075e-06
6.13651e-05
1.10421e-05
6.62258e-05
1.22467e-05
7.15172e-05
1.35493e-05
7.72905e-05
1.49633e-05
8.34102e-05
1.64971e-05
9.00288e-05
1.81555e-05
9.72773e-05
1.99589e-05
0.000104878
2.19105e-05
0.000113261
2.40261e-05
0.000122214
2.63204e-05
0.000131834
2.88035e-05
0.000142285
3.1497e-05
0.000153394
3.44101e-05
0.000165505
3.75673e-05
0.000178369
4.0981e-05
0.000192322
4.46751e-05
0.000207209
4.86689e-05
0.000223195
5.29815e-05
0.000240359
5.76418e-05
0.00025856
6.26666e-05
0.00027812
6.80827e-05
0.000298864
7.39165e-05
0.00032082
8.01887e-05
0.000344102
8.69235e-05
0.000368582
9.41457e-05
0.000394144
0.000101874
0.000420751
0.000110124
0.000448192
0.000118907
0.000476175
0.000128228
0.000504322
0.000138082
0.000532123
0.000148452
0.000558898
0.000159303
0.000583759
0.000170581
0.000605563
0.000182205
0.000622854
0.000194054
0.000633796
0.000205979
0.000636107
0.000217769
0.000626978
0.00022915
0.000602998
0.000239763
0.000560127
0.000249169
0.000493582
0.00025681
0.000397862
0.000262065
0.000266846
9.64349e-05
0.00026437
2.46733e-07
1.73931e-05
4.28871e-08
5.57011e-07
1.88059e-05
8.9212e-07
2.03331e-05
1.25417e-06
2.19838e-05
1.64523e-06
2.3768e-05
2.06798e-06
2.56962e-05
2.52473e-06
2.77798e-05
3.01869e-06
3.00309e-05
3.55318e-06
3.24497e-05
4.13172e-06
3.50679e-05
4.7571e-06
3.79092e-05
5.43342e-06
4.09799e-05
6.16462e-06
4.42983e-05
6.95712e-06
4.78459e-05
7.81634e-06
5.16658e-05
8.74556e-06
5.58455e-05
9.75038e-06
6.03607e-05
1.08416e-05
6.5135e-05
1.20244e-05
7.03349e-05
1.33034e-05
7.6012e-05
1.46917e-05
8.20223e-05
1.61976e-05
8.85233e-05
1.7826e-05
9.56494e-05
1.95967e-05
0.000103108
2.15129e-05
0.000111345
2.35901e-05
0.000120137
2.58428e-05
0.000129582
2.82808e-05
0.000139847
3.09255e-05
0.00015075
3.37858e-05
0.000162645
3.68857e-05
0.00017527
4.02375e-05
0.000188971
4.38645e-05
0.000203582
4.77859e-05
0.000219274
5.20202e-05
0.000236125
5.6596e-05
0.000253984
6.15297e-05
0.000273187
6.68477e-05
0.000293547
7.25758e-05
0.000315093
7.87344e-05
0.000337944
8.53473e-05
0.00036197
9.2439e-05
0.000387053
0.000100028
0.000413163
0.000108129
0.000440091
0.000116754
0.00046755
0.000125909
0.000495168
0.000135587
0.000522444
0.000145773
0.000548711
0.000156433
0.000573098
0.000167514
0.000594481
0.000178936
0.000611431
0.00019058
0.000622145
0.0002023
0.000624384
0.000213889
0.000615389
0.000225075
0.000591812
0.000235508
0.000549693
0.000244754
0.000484333
0.000252267
0.000390342
0.000257427
0.000261679
9.41914e-05
0.000259653
2.4181e-07
1.71128e-05
4.17081e-08
5.46217e-07
1.85029e-05
8.75186e-07
2.00055e-05
1.2306e-06
2.16296e-05
1.61461e-06
2.3385e-05
2.02972e-06
2.52821e-05
2.47831e-06
2.7332e-05
2.96335e-06
2.95467e-05
3.48826e-06
3.19254e-05
4.0563e-06
3.45005e-05
4.67041e-06
3.72956e-05
5.33441e-06
4.03164e-05
6.05244e-06
4.35807e-05
6.8305e-06
4.70682e-05
7.6742e-06
5.08225e-05
8.58653e-06
5.49335e-05
9.57319e-06
5.93745e-05
1.06446e-05
6.4064e-05
1.1806e-05
6.91741e-05
1.30618e-05
7.47567e-05
1.44249e-05
8.06596e-05
1.59036e-05
8.70451e-05
1.75024e-05
9.40511e-05
1.9241e-05
0.000101369
2.11225e-05
0.000109464
2.31621e-05
0.000118098
2.53739e-05
0.000127371
2.77677e-05
0.000137454
3.03645e-05
0.000148154
3.31729e-05
0.000159837
3.62166e-05
0.000172226
3.95078e-05
0.00018568
4.30691e-05
0.000200021
4.69194e-05
0.000215424
5.10771e-05
0.000231968
5.55701e-05
0.000249492
6.04145e-05
0.000268343
6.56363e-05
0.000288326
7.1261e-05
0.000309469
7.73084e-05
0.000331898
8.38021e-05
0.000355477
9.07662e-05
0.00038009
9.82184e-05
0.000405712
0.000106174
0.000432136
0.000114646
0.00045908
0.000123637
0.000486178
0.000133144
0.000512939
0.00014315
0.000538707
0.000153623
0.000562628
0.00016451
0.000583597
0.000175734
0.000600211
0.000187178
0.000610701
0.000198697
0.000612867
0.000210087
0.000604005
0.000221082
0.000580824
0.000231336
0.000539445
0.000240423
0.000475253
0.000247808
0.000382965
0.000252875
0.000256626
9.20606e-05
0.000255023
2.37784e-07
1.68379e-05
4.16742e-08
5.36976e-07
1.82056e-05
8.60037e-07
1.96841e-05
1.20911e-06
2.12822e-05
1.58607e-06
2.30093e-05
1.99362e-06
2.48759e-05
2.43388e-06
2.68927e-05
2.91007e-06
2.90716e-05
3.42524e-06
3.14109e-05
3.98297e-06
3.39435e-05
4.58578e-06
3.66933e-05
5.23778e-06
3.9665e-05
5.94262e-06
4.28763e-05
6.70663e-06
4.63047e-05
7.53491e-06
4.99947e-05
8.43074e-06
5.40382e-05
9.39942e-06
5.84062e-05
1.04515e-05
6.30124e-05
1.15917e-05
6.80343e-05
1.28247e-05
7.35241e-05
1.41632e-05
7.93216e-05
1.56151e-05