/*--------------------------------*- C++ -*----------------------------------*\
  =========                 |
  \\      /  F ield         | OpenFOAM: The Open Source CFD Toolbox
   \\    /   O peration     | Website:  https://openfoam.org
    \\  /    A nd           | Version:  6.0
     \\/     M anipulation  |
\*---------------------------------------------------------------------------*/
FoamFile
{
    version     2.0;
    format      ascii;
    class       volVectorField;
    location    "18";
    object      U;
}
// * * * * * * * * * * * * * * * * * * * * * * * * * * * * * * * * * * * * * //

dimensions      [0 1 -1 0 0 0 0];

internalField   nonuniform List<vector> 
62000
(
(1 4.25489e-06 -9.45939e-21)
(1 -2.03269e-06 7.4647e-21)
(1 -6.22106e-06 7.2776e-21)
(1 -1.02526e-05 -3.03258e-20)
(1 -1.41247e-05 -3.29668e-20)
(1 -1.7923e-05 1.0865e-19)
(1 -2.16685e-05 -1.13975e-19)
(1 -2.54014e-05 6.33169e-20)
(0.999999 -2.91745e-05 -2.83557e-20)
(0.999999 -3.2989e-05 -1.38782e-19)
(0.999999 -3.69225e-05 -1.68085e-20)
(0.999999 -4.09491e-05 1.79185e-19)
(0.999998 -4.51238e-05 3.50475e-20)
(0.999998 -4.94433e-05 -1.18575e-19)
(0.999998 -5.39358e-05 1.78427e-19)
(0.999997 -5.86139e-05 -9.15393e-20)
(0.999996 -6.34593e-05 9.13788e-20)
(0.999995 -6.8498e-05 -1.04354e-19)
(0.999994 -7.36956e-05 4.9702e-20)
(0.999993 -7.90793e-05 -1.48609e-19)
(0.999992 -8.46118e-05 1.88828e-19)
(0.99999 -9.03147e-05 5.34413e-20)
(0.999988 -9.61731e-05 7.4798e-20)
(0.999985 -0.000102198 -3.35636e-19)
(0.999982 -0.000108395 1.20313e-19)
(0.999978 -0.000114782 -7.09694e-20)
(0.999974 -0.000121356 2.59868e-22)
(0.999968 -0.000128171 -5.32152e-20)
(0.999962 -0.000135217 1.66637e-19)
(0.999955 -0.000142461 -8.8906e-20)
(0.999947 -0.000149854 2.09331e-19)
(0.999937 -0.000157374 -4.2261e-19)
(0.999926 -0.00016528 4.14604e-20)
(0.999913 -0.000173845 -1.30939e-19)
(0.999898 -0.00018279 -3.93564e-20)
(0.999881 -0.000191998 -1.29678e-19)
(0.999862 -0.000201384 -3.03308e-20)
(0.99984 -0.000211029 -3.17672e-20)
(0.999815 -0.000221086 1.18972e-19)
(0.999786 -0.00023188 5.24092e-19)
(0.999753 -0.000244015 -1.23693e-19)
(0.999715 -0.000258519 -6.79048e-19)
(0.999672 -0.000276977 -1.04343e-18)
(0.999623 -0.000301652 5.46925e-19)
(0.999568 -0.000335472 1.72152e-19)
(0.999507 -0.000382022 -7.33252e-19)
(0.999441 -0.000445286 1.25971e-19)
(0.99937 -0.000529158 -2.95919e-19)
(0.999298 -0.000636972 -1.30829e-18)
(0.99923 -0.000769712 -3.14032e-19)
(0.999172 -0.000926279 -1.48014e-19)
(0.99913 -0.00110083 -1.80226e-18)
(0.999111 -0.00128931 3.03918e-19)
(0.999122 -0.00148244 1.74268e-18)
(0.999161 -0.00168037 3.91554e-19)
(0.999229 -0.00188606 1.26507e-18)
(0.999324 -0.00214895 -1.12908e-19)
(0.999426 -0.00246166 -1.57054e-19)
(1.00012 -0.00313933 3.43166e-19)
(0.994142 -0.00466751 6.62609e-20)
(0.999942 -2.06196e-05 -2.54447e-21)
(0.999942 -3.14648e-05 2.30902e-20)
(0.999942 -4.04434e-05 9.09872e-21)
(0.999942 -4.95656e-05 -3.7128e-20)
(0.999942 -5.89811e-05 1.46773e-20)
(0.999943 -6.86373e-05 -9.65932e-20)
(0.999943 -7.86399e-05 8.44304e-20)
(0.999944 -8.89336e-05 4.66822e-20)
(0.999945 -9.95868e-05 -8.35423e-20)
(0.999946 -0.000110607 3.49699e-21)
(0.999947 -0.000122075 7.44272e-20)
(0.999948 -0.000134008 1.3176e-22)
(0.999949 -0.000146445 1.97603e-20)
(0.999951 -0.000159407 -1.63426e-19)
(0.999952 -0.000172931 3.16625e-19)
(0.999953 -0.000186998 -2.70473e-19)
(0.999954 -0.000201623 1.22716e-19)
(0.999955 -0.000216722 -2.51211e-20)
(0.999956 -0.000232278 -6.60353e-20)
(0.999956 -0.000248192 1.77181e-19)
(0.999957 -0.000264377 -2.71978e-19)
(0.999956 -0.000280733 1.53816e-19)
(0.999956 -0.000297129 -1.89975e-19)
(0.999955 -0.000313429 1.11025e-19)
(0.999953 -0.000329469 9.92809e-20)
(0.99995 -0.000345059 -6.42338e-20)
(0.999946 -0.00036 6.27205e-22)
(0.999941 -0.000374073 6.90546e-20)
(0.999934 -0.000387034 5.61334e-20)
(0.999925 -0.000398636 -1.09739e-19)
(0.999915 -0.000408654 2.20217e-19)
(0.999902 -0.000416992 4.2122e-20)
(0.999886 -0.000423596 1.30513e-19)
(0.999867 -0.000428385 7.1798e-21)
(0.999844 -0.000431352 3.33046e-20)
(0.999817 -0.000432767 -4.17701e-20)
(0.999786 -0.000433123 -1.18847e-19)
(0.999749 -0.000433067 -6.15037e-20)
(0.999705 -0.000433614 -3.13904e-19)
(0.999655 -0.000436412 -3.45654e-19)
(0.999597 -0.0004439 2.65941e-19)
(0.999529 -0.000459426 1.57813e-19)
(0.999451 -0.000487359 1.10918e-18)
(0.999363 -0.000533066 5.97348e-20)
(0.999263 -0.000602775 -1.61268e-18)
(0.999154 -0.000703268 6.25411e-19)
(0.999036 -0.000841121 5.08198e-19)
(0.998915 -0.00102161 5.73008e-19)
(0.998799 -0.00124687 1.28256e-19)
(0.998697 -0.00151295 2.99558e-20)
(0.998625 -0.0018092 8.81273e-19)
(0.998594 -0.00211708 2.2523e-18)
(0.998616 -0.00241365 -1.42499e-18)
(0.998695 -0.00267677 -3.15131e-18)
(0.998827 -0.00290286 -6.8394e-19)
(0.998998 -0.00309532 -4.64699e-19)
(0.999235 -0.00332878 -8.16872e-19)
(0.999409 -0.00353603 -3.73038e-19)
(1.00052 -0.00390073 4.4979e-19)
(0.997418 -0.0040187 1.76031e-19)
(0.999856 -2.70337e-05 -1.24683e-20)
(0.999856 -3.70542e-05 -1.67121e-21)
(0.999856 -4.64805e-05 1.7459e-21)
(0.999857 -5.60508e-05 7.55434e-21)
(0.999858 -6.60924e-05 2.03387e-20)
(0.999859 -7.63973e-05 -1.83744e-20)
(0.999861 -8.71985e-05 9.34587e-20)
(0.999863 -9.84122e-05 -4.26048e-20)
(0.999865 -0.000110093 -2.18672e-20)
(0.999868 -0.000122306 -1.28558e-19)
(0.999871 -0.000135028 1.04034e-19)
(0.999874 -0.000148397 7.33435e-21)
(0.999877 -0.000162343 -2.1934e-20)
(0.999881 -0.000176963 5.61002e-20)
(0.999885 -0.000192263 -9.26278e-20)
(0.999889 -0.000208216 6.81028e-22)
(0.999893 -0.000224886 -3.9534e-20)
(0.999897 -0.000242107 9.64653e-22)
(0.999901 -0.000259933 8.65191e-20)
(0.999906 -0.000278188 -1.27697e-19)
(0.99991 -0.000296794 7.76659e-20)
(0.999914 -0.00031558 2.91892e-19)
(0.999918 -0.000334387 -3.96019e-20)
(0.999921 -0.000352987 -3.86395e-19)
(0.999925 -0.000371157 1.94685e-19)
(0.999927 -0.000388589 -1.0159e-19)
(0.999929 -0.000405008 1.62952e-19)
(0.99993 -0.000420053 -9.82525e-20)
(0.99993 -0.000433363 -1.87252e-19)
(0.999929 -0.000444627 1.93908e-19)
(0.999926 -0.000453679 -1.34199e-19)
(0.999921 -0.000460357 1.75392e-19)
(0.999914 -0.000464403 -4.73124e-19)
(0.999904 -0.000465481 4.11711e-19)
(0.999891 -0.000463716 -2.15076e-19)
(0.999874 -0.000459815 8.92847e-20)
(0.999853 -0.000454655 6.64904e-20)
(0.999828 -0.000449168 2.75161e-21)
(0.999798 -0.000444694 -4.5654e-21)
(0.999763 -0.000443298 3.60988e-19)
(0.999721 -0.000447881 -1.36806e-19)
(0.999672 -0.000462242 2.11068e-19)
(0.999615 -0.000491124 -7.09946e-19)
(0.999549 -0.000540216 -3.37624e-19)
(0.999474 -0.000616029 3.75269e-19)
(0.999389 -0.000725644 -1.16287e-18)
(0.999298 -0.000875784 1.63567e-19)
(0.999204 -0.0010715 -9.50621e-19)
(0.999116 -0.00131354 1.30571e-18)
(0.999045 -0.00159421 3.31266e-19)
(0.999005 -0.00189658 1.40337e-19)
(0.999011 -0.00219323 -7.31351e-20)
(0.999076 -0.00244697 5.73554e-19)
(0.999202 -0.00262375 1.60113e-19)
(0.999381 -0.00271241 -9.11611e-19)
(0.999589 -0.0027114 -4.87971e-19)
(0.999875 -0.00269149 -1.8173e-19)
(1.00001 -0.00261813 -6.48252e-19)
(1.00091 -0.00246081 -1.1299e-19)
(0.999124 -0.000632876 2.70484e-20)
(0.999776 -1.37809e-05 -1.25459e-20)
(0.999777 -2.21804e-05 3.63332e-20)
(0.999777 -3.16346e-05 -5.27458e-21)
(0.999778 -4.1119e-05 -3.36055e-20)
(0.99978 -5.06964e-05 4.8041e-20)
(0.999782 -6.03132e-05 7.85985e-20)
(0.999784 -7.03148e-05 -9.75926e-20)
(0.999787 -8.06184e-05 1.00633e-20)
(0.99979 -9.12259e-05 3.05942e-20)
(0.999794 -0.000102252 6.06912e-20)
(0.999799 -0.000113595 -1.07548e-19)
(0.999803 -0.000125509 -3.15798e-20)
(0.999808 -0.000137913 -3.37268e-20)
(0.999814 -0.000150978 1.48421e-19)
(0.999819 -0.000164716 -9.52022e-20)
(0.999825 -0.000179162 2.13372e-19)
(0.999832 -0.000194432 -2.49912e-19)
(0.999838 -0.000210357 -3.47668e-20)
(0.999845 -0.000227046 2.4502e-19)
(0.999852 -0.000244327 -8.31777e-20)
(0.999859 -0.000262139 -2.95897e-20)
(0.999866 -0.00028032 -3.03815e-20)
(0.999874 -0.000298751 -2.66252e-19)
(0.999881 -0.00031719 1.51655e-19)
(0.999889 -0.000335466 -6.4449e-20)
(0.999896 -0.000353281 1.04101e-19)
(0.999903 -0.000370384 4.70405e-20)
(0.999909 -0.000386466 2.24055e-19)
(0.999915 -0.000401116 -1.3925e-19)
(0.99992 -0.00041413 -1.74824e-19)
(0.999924 -0.000425397 2.66882e-19)
(0.999926 -0.000434899 -2.15554e-19)
(0.999927 -0.000442271 3.85964e-19)
(0.999926 -0.000447083 -2.25112e-19)
(0.999923 -0.000449549 9.82256e-20)
(0.999917 -0.000450508 1.59501e-19)
(0.999908 -0.000450943 -6.3906e-20)
(0.999897 -0.000451798 7.00206e-20)
(0.999883 -0.000454355 -4.06456e-20)
(0.999866 -0.00046058 1.03154e-19)
(0.999846 -0.000473192 -3.00706e-19)
(0.99982 -0.000495722 8.08523e-20)
(0.99979 -0.000532556 1.65728e-19)
(0.999752 -0.000589077 3.86418e-19)
(0.999708 -0.000671621 5.0155e-19)
(0.999654 -0.000787467 1.25418e-19)
(0.999593 -0.000943944 6.98721e-19)
(0.999525 -0.00114714 7.39218e-19)
(0.999458 -0.00139904 7.87097e-19)
(0.999401 -0.0016924 -5.60504e-19)
(0.999367 -0.00201018 -7.44601e-19)
(0.999371 -0.00232316 4.26146e-19)
(0.999429 -0.00258925 5.18629e-19)
(0.999547 -0.00276725 1.2896e-18)
(0.999723 -0.00284036 7.42972e-19)
(0.999926 -0.00280399 9.50606e-19)
(1.00023 -0.00272176 1.43464e-18)
(1.00035 -0.00262021 -2.30079e-20)
(1.00104 -0.00231499 -4.64514e-19)
(0.999496 -0.000508054 -2.92745e-19)
(0.999714 4.88173e-06 2.44335e-20)
(0.999714 -5.88539e-06 -7.73288e-21)
(0.999715 -1.76467e-05 1.22281e-20)
(0.999716 -2.87742e-05 -1.63813e-20)
(0.999718 -3.9047e-05 3.47517e-20)
(0.99972 -4.87604e-05 -1.6349e-20)
(0.999723 -5.84905e-05 8.29646e-21)
(0.999726 -6.82375e-05 -1.1769e-19)
(0.99973 -7.80035e-05 9.38488e-20)
(0.999734 -8.7981e-05 -1.78188e-19)
(0.999739 -9.80376e-05 1.87334e-19)
(0.999744 -0.00010854 -2.16767e-20)
(0.99975 -0.000119392 -4.55115e-20)
(0.999756 -0.000130848 -1.97689e-20)
(0.999763 -0.000142968 -3.9682e-21)
(0.99977 -0.000155824 -1.85313e-19)
(0.999777 -0.000169624 9.1951e-21)
(0.999785 -0.000184186 1.87933e-19)
(0.999793 -0.000199727 -5.84551e-20)
(0.999801 -0.000216076 -5.90358e-20)
(0.99981 -0.000233228 9.74907e-20)
(0.99982 -0.000251032 -4.61603e-20)
(0.999829 -0.00026944 1.89338e-19)
(0.999839 -0.000288211 9.90798e-20)
(0.999849 -0.000307261 7.20642e-20)
(0.999859 -0.000326342 -2.2681e-19)
(0.999869 -0.000345274 -3.10451e-20)
(0.999879 -0.000363844 -1.6632e-19)
(0.999889 -0.000381668 3.14565e-20)
(0.999898 -0.000398628 -5.12683e-20)
(0.999906 -0.000414746 -1.9749e-20)
(0.999914 -0.000430089 1.55803e-19)
(0.999921 -0.000444194 -3.8987e-19)
(0.999927 -0.000456647 -1.79418e-20)
(0.999931 -0.000467694 -1.87462e-19)
(0.999933 -0.000478214 -8.99007e-20)
(0.999934 -0.000489214 1.89667e-20)
(0.999934 -0.000501473 -2.68328e-19)
(0.999933 -0.000516027 3.94026e-19)
(0.999931 -0.000534531 6.53708e-20)
(0.999928 -0.000559311 4.0793e-19)
(0.999923 -0.00059342 -2.80032e-19)
(0.999915 -0.000640686 -1.84201e-19)
(0.999905 -0.000705911 -7.32027e-20)
(0.999889 -0.000794872 3.54521e-19)
(0.999866 -0.000914515 5.00126e-19)
(0.999835 -0.00107224 9.66221e-20)
(0.999796 -0.00127488 1.63585e-19)
(0.999751 -0.00152619 -3.15995e-19)
(0.999705 -0.00182137 1.38012e-18)
(0.99967 -0.00214721 3.15674e-19)
(0.999659 -0.0024788 -3.46265e-19)
(0.999691 -0.00277707 -1.08825e-20)
(0.999776 -0.00299942 9.13217e-19)
(0.999924 -0.00312462 5.27294e-21)
(1.00011 -0.00314139 -7.68282e-19)
(1.00042 -0.0030911 -1.31995e-18)
(1.0006 -0.00301499 9.60391e-19)
(1.00117 -0.00261285 -3.3768e-19)
(1.00018 -0.000406734 2.66339e-19)
(0.999667 2.18273e-05 -9.32323e-21)
(0.999667 8.50312e-06 3.55935e-20)
(0.999667 -6.34741e-06 -5.55058e-20)
(0.999668 -2.02404e-05 3.92628e-20)
(0.99967 -3.24633e-05 2.41327e-20)
(0.999672 -4.37476e-05 -2.43027e-20)
(0.999674 -5.48128e-05 1.91908e-21)
(0.999677 -6.56264e-05 -1.64654e-20)
(0.999681 -7.61213e-05 -5.26831e-20)
(0.999685 -8.65017e-05 9.64343e-20)
(0.99969 -9.66185e-05 -1.42546e-19)
(0.999695 -0.000106914 1.19353e-19)
(0.999701 -0.000117364 1.00304e-19)
(0.999707 -0.000128283 -1.4911e-19)
(0.999714 -0.000139795 -4.63838e-20)
(0.999721 -0.000152063 1.68042e-19)
(0.999729 -0.000165373 -1.95512e-19)
(0.999737 -0.000179571 2.59907e-19)
(0.999746 -0.000194933 -4.85383e-20)
(0.999755 -0.000211315 2.52936e-20)
(0.999765 -0.000228723 -4.16639e-20)
(0.999775 -0.000247034 -5.00802e-20)
(0.999786 -0.000266253 -8.88232e-20)
(0.999798 -0.000286142 1.48765e-19)
(0.99981 -0.000306709 -9.99507e-20)
(0.999822 -0.00032776 -9.35304e-20)
(0.999834 -0.000349192 1.88234e-19)
(0.999847 -0.000370917 -1.7387e-19)
(0.999859 -0.000392578 2.69733e-19)
(0.999872 -0.000414187 -1.4211e-19)
(0.999884 -0.000435832 1.02692e-19)
(0.999896 -0.000457662 -1.70678e-19)
(0.999909 -0.000479197 1.76596e-19)
(0.99992 -0.000499911 -1.84014e-20)
(0.999931 -0.000520133 -9.87821e-21)
(0.999941 -0.000540863 -5.75916e-21)
(0.999952 -0.000563102 -8.77067e-20)
(0.999962 -0.000587455 2.35494e-19)
(0.999974 -0.000614639 -1.77937e-19)
(0.999987 -0.000645862 -9.70843e-19)
(1 -0.000682861 -3.91371e-19)
(1.00002 -0.000727957 2.66165e-19)
(1.00004 -0.00078403 -2.82404e-19)
(1.00006 -0.000854653 -2.94812e-19)
(1.00008 -0.000944018 -2.03095e-20)
(1.0001 -0.00105723 6.79424e-19)
(1.00012 -0.0011998 -9.36601e-19)
(1.00013 -0.00137711 -9.00495e-19)
(1.00013 -0.00159269 -5.82003e-19)
(1.00013 -0.00184329 -8.9393e-19)
(1.00012 -0.00212015 4.93746e-19)
(1.00012 -0.00240564 -2.16087e-19)
(1.00015 -0.00266939 -1.53865e-18)
(1.00021 -0.00287367 1.94387e-19)
(1.00033 -0.00299714 4.02611e-19)
(1.00049 -0.00302295 -5.49277e-19)
(1.00078 -0.00296577 4.34615e-19)
(1.00102 -0.00286069 1.4058e-19)
(1.00147 -0.00232235 5.55069e-19)
(1.00089 0.00034101 -6.0141e-20)
(0.99963 3.79797e-05 1.10259e-20)
(0.999628 2.06966e-05 -4.70215e-20)
(0.999627 1.66526e-06 2.17021e-20)
(0.999628 -1.58605e-05 3.83463e-20)
(0.999629 -3.09286e-05 -7.79775e-20)
(0.999631 -4.46308e-05 6.20241e-20)
(0.999633 -5.78654e-05 -3.92494e-20)
(0.999636 -7.0636e-05 3.16506e-20)
(0.999639 -8.28359e-05 4.79851e-20)
(0.999643 -9.47106e-05 -1.10042e-19)
(0.999647 -0.000106059 1.51505e-19)
(0.999652 -0.000117398 6.09889e-20)
(0.999657 -0.000128666 -2.33994e-19)
(0.999663 -0.000140255 -4.15484e-20)
(0.99967 -0.000152329 1.14341e-19)
(0.999677 -0.000165098 7.03237e-20)
(0.999684 -0.000178928 -8.24012e-20)
(0.999692 -0.000193679 6.92944e-20)
(0.999701 -0.000209721 1.02892e-19)
(0.999711 -0.000226932 -4.93288e-20)
(0.999721 -0.000245347 -2.72681e-20)
(0.999732 -0.000264866 9.23279e-20)
(0.999743 -0.000285547 1.83008e-19)
(0.999755 -0.000307147 -1.31347e-19)
(0.999768 -0.000329755 -1.39083e-19)
(0.999781 -0.000353233 1.4867e-19)
(0.999795 -0.000377552 -1.1246e-19)
(0.999809 -0.000402752 -4.32941e-20)
(0.999823 -0.000428543 3.54764e-19)
(0.999837 -0.000455061 -1.521e-19)
(0.999852 -0.000482516 -1.10619e-19)
(0.999867 -0.000511164 1.46691e-19)
(0.999882 -0.000540406 9.79774e-20)
(0.999897 -0.000569798 -8.59462e-20)
(0.999912 -0.000599795 -5.66186e-20)
(0.999927 -0.000631511 1.74197e-19)
(0.999943 -0.000666179 3.47029e-20)
(0.999961 -0.000704361 5.75978e-20)
(0.999981 -0.000746548 -2.88737e-19)
(1.00001 -0.000793582 -2.73211e-19)
(1.00003 -0.000846633 5.12374e-19)
(1.00007 -0.000907244 3.8589e-19)
(1.00011 -0.000977221 6.12621e-19)
(1.00016 -0.00105855 -5.57807e-19)
(1.00022 -0.00115314 -5.87343e-19)
(1.00028 -0.00126306 -3.59458e-19)
(1.00035 -0.0013902 8.26798e-19)
(1.00041 -0.00153623 7.59167e-19)
(1.00048 -0.00170197 -7.80104e-19)
(1.00054 -0.00188347 -1.04603e-18)
(1.00059 -0.00207495 -2.00742e-19)
(1.00063 -0.00226641 1.66834e-19)
(1.00068 -0.00243881 3.90278e-20)
(1.00074 -0.00256501 -4.66149e-19)
(1.00085 -0.0026304 3.23905e-19)
(1.00098 -0.00262184 1.92131e-19)
(1.00123 -0.00253835 2.40304e-19)
(1.0015 -0.00242241 -4.98575e-19)
(1.00185 -0.00183994 -4.24573e-20)
(1.00119 0.000844401 -4.35463e-20)
(0.999592 5.39198e-05 -1.86116e-20)
(0.999587 3.36572e-05 -1.40637e-20)
(0.999586 1.02225e-05 1.80877e-20)
(0.999586 -1.14949e-05 6.06112e-20)
(0.999588 -3.01835e-05 -1.23754e-19)
(0.999589 -4.72773e-05 1.34314e-19)
(0.999591 -6.37457e-05 -5.794e-21)
(0.999594 -7.9536e-05 -7.60545e-21)
(0.999597 -9.44622e-05 -4.11626e-20)
(0.999601 -0.000108759 9.49852e-20)
(0.999605 -0.000122201 -1.39772e-19)
(0.99961 -0.000135352 5.03758e-20)
(0.999615 -0.000148217 -1.56943e-21)
(0.99962 -0.000161227 7.19469e-20)
(0.999626 -0.000174596 3.25579e-20)
(0.999633 -0.000188632 -1.67759e-19)
(0.99964 -0.000203752 1.40078e-19)
(0.999648 -0.00021986 5.26152e-20)
(0.999657 -0.000237353 -1.46609e-19)
(0.999666 -0.000256155 6.96374e-20)
(0.999676 -0.000276279 3.08287e-20)
(0.999686 -0.000297664 -2.03907e-20)
(0.999697 -0.000320403 2.35495e-20)
(0.999709 -0.000344251 -1.40392e-20)
(0.999721 -0.000369382 -1.51925e-19)
(0.999734 -0.000395715 9.63764e-20)
(0.999747 -0.000423293 -1.4229e-19)
(0.999761 -0.00045231 2.55659e-19)
(0.999774 -0.000482531 -4.84864e-20)
(0.999788 -0.000514305 -2.78918e-20)
(0.999802 -0.000547936 -7.96783e-21)
(0.999816 -0.000583804 2.36781e-19)
(0.99983 -0.000621396 -9.7211e-20)
(0.999844 -0.000660237 -5.80167e-20)
(0.999858 -0.000700993 1.40118e-19)
(0.999872 -0.00074514 1.15912e-19)
(0.999886 -0.000794275 -1.91768e-19)
(0.999903 -0.000849177 3.48186e-20)
(0.999922 -0.000910368 3.47615e-19)
(0.999945 -0.000978606 -3.63222e-20)
(0.999974 -0.0010548 2.13375e-19)
(1.00001 -0.00114005 -2.90797e-19)
(1.00006 -0.00123545 4.35298e-19)
(1.00011 -0.00134173 8.84672e-19)
(1.00018 -0.0014587 2.31428e-19)
(1.00027 -0.00158531 -3.25051e-19)
(1.00037 -0.00171937 -9.25368e-19)
(1.00047 -0.00185787 1.8128e-19)
(1.00059 -0.00199729 2.33401e-19)
(1.0007 -0.00213099 4.38236e-19)
(1.0008 -0.00225388 -2.88807e-20)
(1.0009 -0.00236172 -7.29627e-19)
(1.00099 -0.00244613 5.59781e-19)
(1.00108 -0.00249235 -3.28056e-19)
(1.0012 -0.00249621 5.45726e-19)
(1.00133 -0.00245532 1.15501e-19)
(1.00156 -0.00236356 3.67303e-19)
(1.00187 -0.00227717 3.20706e-19)
(1.00221 -0.00173907 1.07268e-20)
(1.00133 0.00084587 -5.22819e-20)
(0.999551 6.78374e-05 -9.04844e-21)
(0.999543 4.08986e-05 7.35603e-21)
(0.999542 1.21411e-05 3.49375e-20)
(0.999542 -1.42074e-05 5.22969e-20)
(0.999544 -3.67693e-05 -1.46556e-19)
(0.999545 -5.72118e-05 7.99226e-20)
(0.999548 -7.66655e-05 -1.35489e-19)
(0.99955 -9.51551e-05 2.01386e-19)
(0.999554 -0.000112532 -8.97539e-20)
(0.999557 -0.000129078 1.50515e-20)
(0.999561 -0.000144579 1.56585e-19)
(0.999566 -0.000159636 -3.40358e-19)
(0.999571 -0.000174254 2.21694e-19)
(0.999576 -0.000188909 2.95247e-20)
(0.999582 -0.000203876 4.56879e-20)
(0.999588 -0.000219476 -1.85198e-19)
(0.999595 -0.000236212 8.73799e-20)
(0.999602 -0.000253972 -1.03822e-19)
(0.99961 -0.000273242 1.96951e-19)
(0.999618 -0.000293949 -2.62578e-20)
(0.999627 -0.000316126 -2.32067e-19)
(0.999637 -0.000339721 8.91132e-20)
(0.999647 -0.000364868 -5.12536e-21)
(0.999658 -0.000391301 -3.03503e-19)
(0.999669 -0.000419268 2.21968e-19)
(0.99968 -0.000448732 1.60389e-19)
(0.999692 -0.000479797 1.04312e-19)
(0.999704 -0.000512789 -1.32198e-19)
(0.999716 -0.000547548 -1.39419e-19)
(0.999727 -0.0005846 6.35631e-20)
(0.999739 -0.000624401 9.08293e-20)
(0.99975 -0.000667526 -1.07548e-19)
(0.999761 -0.000713372 -1.54527e-19)
(0.999771 -0.000761646 3.18861e-19)
(0.99978 -0.000813297 3.20363e-20)
(0.999788 -0.000870067 -4.51947e-19)
(0.999796 -0.000934154 3.94796e-20)
(0.999805 -0.00100672 2.8755e-19)
(0.999816 -0.00108852 2.6722e-20)
(0.999829 -0.00118052 3.60492e-19)
(0.999848 -0.00128374 -4.71219e-19)
(0.999872 -0.00139932 -2.55636e-20)
(0.999906 -0.00152824 -2.87834e-19)
(0.999953 -0.00167069 1.09545e-19)
(1.00001 -0.00182522 4.35392e-19)
(1.00009 -0.00198853 1.29445e-18)
(1.00019 -0.00215507 1.56953e-19)
(1.00031 -0.00231749 -7.35397e-19)
(1.00044 -0.00246774 5.32746e-19)
(1.00058 -0.00259537 1.71974e-18)
(1.00072 -0.00269389 -1.26978e-18)
(1.00086 -0.00276183 1.36199e-18)
(1.001 -0.00279801 -7.29102e-19)
(1.00114 -0.00279718 -3.59967e-19)
(1.0013 -0.00276352 -1.14605e-18)
(1.00146 -0.00270455 -4.56869e-20)
(1.00172 -0.00261067 -2.06482e-19)
(1.00209 -0.00254012 -1.41204e-19)
(1.00252 -0.00202064 1.77553e-20)
(1.00165 0.000664902 -6.79393e-20)
(0.999506 7.85907e-05 1.25876e-20)
(0.999496 4.67663e-05 4.15656e-21)
(0.999495 1.34169e-05 -4.07964e-20)
(0.999496 -1.72779e-05 3.67921e-20)
(0.999497 -4.37358e-05 -1.54361e-20)
(0.999499 -6.7777e-05 2.61232e-20)
(0.999501 -9.06106e-05 8.45724e-21)
(0.999504 -0.000112195 -1.1744e-19)
(0.999507 -0.000132413 4.86082e-20)
(0.999511 -0.000151493 -3.12536e-20)
(0.999515 -0.000169284 1.82785e-20)
(0.999519 -0.000186377 6.70812e-20)
(0.999524 -0.000202911 -1.21038e-20)
(0.999529 -0.00021936 3.72468e-20)
(0.999534 -0.000236072 -1.50978e-19)
(0.99954 -0.000253448 5.61329e-20)
(0.999547 -0.000272031 2.35469e-20)
(0.999553 -0.000291754 -6.13626e-20)
(0.999561 -0.000313091 1.17165e-19)
(0.999569 -0.000336026 3.65426e-20)
(0.999577 -0.000360535 -4.38323e-21)
(0.999586 -0.000386609 -3.75764e-20)
(0.999595 -0.000414388 1.44192e-19)
(0.999605 -0.0004436 -3.83e-19)
(0.999615 -0.000474544 1.94101e-19)
(0.999626 -0.00050722 7.88803e-20)
(0.999636 -0.000541767 -1.2738e-19)
(0.999647 -0.00057863 2.18253e-19)
(0.999658 -0.000617662 -1.04711e-19)
(0.999668 -0.000659579 -5.19114e-20)
(0.999678 -0.000704923 -9.65004e-20)
(0.999687 -0.000754375 -3.69317e-20)
(0.999695 -0.00080747 1.04806e-19)
(0.999703 -0.000863845 -3.04436e-19)
(0.999708 -0.00092464 5.64311e-19)
(0.999712 -0.00099203 -3.97895e-20)
(0.999715 -0.00106862 2.72325e-19)
(0.999718 -0.001156 -6.8344e-19)
(0.999721 -0.00125522 -2.04673e-19)
(0.999725 -0.00136751 5.03755e-21)
(0.999732 -0.00149421 -1.4258e-19)
(0.999742 -0.00163682 -1.41888e-20)
(0.99976 -0.00179667 -4.93712e-19)
(0.999787 -0.00197411 1.60085e-19)
(0.999829 -0.00216734 2.23765e-19)
(0.999888 -0.00237201 -1.20408e-18)
(0.999969 -0.00258053 1.4823e-18)
(1.00007 -0.00278256 2.05674e-19)
(1.0002 -0.00296634 6.38556e-20)
(1.00035 -0.00311773 -1.20816e-18)
(1.0005 -0.00322759 3.77795e-19)
(1.00067 -0.00329447 -7.27307e-19)
(1.00085 -0.00332007 1.27615e-18)
(1.00104 -0.0033036 2.25532e-19)
(1.00125 -0.0032519 -7.72523e-19)
(1.00148 -0.00317633 2.214e-19)
(1.0018 -0.00306051 -4.44531e-19)
(1.00228 -0.00295087 -5.35354e-20)
(1.00283 -0.00236362 -8.63529e-20)
(1.00225 0.00061498 1.60851e-20)
(0.999455 8.83329e-05 -2.78658e-21)
(0.999445 5.03359e-05 -1.03419e-20)
(0.999444 1.17931e-05 -8.50212e-21)
(0.999445 -2.33556e-05 7.76757e-20)
(0.999446 -5.36507e-05 -4.08269e-20)
(0.999448 -8.10069e-05 -4.63674e-20)
(0.999451 -0.000106779 -1.6439e-20)
(0.999453 -0.000131057 -6.41725e-20)
(0.999456 -0.000153794 3.83645e-20)
(0.99946 -0.000175267 5.38571e-21)
(0.999464 -0.000195321 1.92273e-21)
(0.999468 -0.00021458 1.40504e-19)
(0.999473 -0.000233157 -9.52364e-20)
(0.999478 -0.000251579 -1.11291e-20)
(0.999483 -0.000270236 9.94835e-20)
(0.999489 -0.000289541 -5.27244e-20)
(0.999495 -0.000310101 -1.93172e-20)
(0.999502 -0.00033185 3.01224e-20)
(0.999509 -0.000355332 9.26052e-20)
(0.999517 -0.000380539 4.81983e-20)
(0.999525 -0.000407462 1.6033e-20)
(0.999534 -0.000436093 -1.15379e-19)
(0.999543 -0.000466593 5.5702e-20)
(0.999553 -0.000498666 1.02721e-19)
(0.999564 -0.000532638 -2.09198e-19)
(0.999574 -0.000568523 6.40736e-20)
(0.999586 -0.000606468 -2.48245e-19)
(0.999597 -0.000646971 1.96009e-19)
(0.999608 -0.000689892 1.64048e-19)
(0.99962 -0.000735999 -2.48969e-19)
(0.999631 -0.000785929 -1.14667e-19)
(0.999642 -0.000840466 1.47068e-19)
(0.999652 -0.000898994 4.8424e-20)
(0.999661 -0.00096122 -1.26415e-19)
(0.999669 -0.0010284 -1.56025e-19)
(0.999675 -0.00110281 -1.82021e-19)
(0.99968 -0.00118737 1.13956e-19)
(0.999684 -0.00128392 2.62453e-19)
(0.999687 -0.0013937 9.41722e-20)
(0.999691 -0.00151797 -7.68926e-20)
(0.999695 -0.00165836 8.29552e-19)
(0.999701 -0.00181682 -8.75788e-20)
(0.999711 -0.00199515 8.17974e-19)
(0.999728 -0.0021942 -1.42051e-18)
(0.999755 -0.00241257 2.10821e-19)
(0.999797 -0.00264591 4.57496e-20)
(0.99986 -0.00288601 -9.44202e-20)
(0.999945 -0.00312114 -9.40671e-19)
(1.00006 -0.00333741 -1.46195e-18)
(1.00019 -0.00351806 1.22133e-18)
(1.00035 -0.00365128 1.48201e-18)
(1.00053 -0.00373413 6.97108e-19)
(1.00074 -0.00376778 -1.2399e-18)
(1.00097 -0.00375138 5.58121e-19)
(1.00125 -0.00368892 1.15828e-18)
(1.00155 -0.00358937 3.24562e-19)
(1.00195 -0.00342757 4.33768e-19)
(1.00254 -0.00323365 1.06978e-19)
(1.00319 -0.00252225 -2.25152e-20)
(1.00302 0.000782182 3.26337e-19)
(0.999395 9.7802e-05 3.58587e-21)
(0.999387 5.5459e-05 -1.01705e-20)
(0.999387 1.17652e-05 3.43287e-20)
(0.999388 -2.80227e-05 8.45512e-21)
(0.999389 -6.23662e-05 -4.22248e-20)
(0.999391 -9.33631e-05 -4.59824e-20)
(0.999394 -0.000122482 1.03223e-19)
(0.999397 -0.000149825 -1.06815e-19)
(0.9994 -0.000175388 -2.47551e-20)
(0.999404 -0.000199419 5.95612e-20)
(0.999408 -0.00022181 5.2306e-20)
(0.999412 -0.000243194 1.51126e-19)
(0.999417 -0.000263805 -8.18133e-20)
(0.999422 -0.000284189 -1.33239e-19)
(0.999428 -0.000304785 2.81245e-20)
(0.999434 -0.000326096 -9.89485e-20)
(0.99944 -0.000348749 7.18599e-20)
(0.999447 -0.000372736 -1.14558e-19)
(0.999455 -0.000398572 1.88434e-20)
(0.999463 -0.000426294 -3.36512e-20)
(0.999472 -0.000455844 -1.9775e-20)
(0.999482 -0.000487244 -8.68155e-20)
(0.999492 -0.00052064 9.50207e-21)
(0.999503 -0.000555734 1.78312e-19)
(0.999515 -0.000592858 -5.8391e-20)
(0.999527 -0.000632026 1.84044e-20)
(0.999541 -0.000673371 5.04947e-20)
(0.999555 -0.000717418 -6.30088e-20)
(0.999569 -0.000763958 -1.25256e-20)
(0.999585 -0.000813784 8.31027e-20)
(0.999601 -0.000867516 8.97024e-20)
(0.999617 -0.000925878 -6.51597e-20)
(0.999634 -0.000988341 -2.0071e-19)
(0.99965 -0.00105435 -2.75778e-19)
(0.999666 -0.00112505 4.16752e-19)
(0.999682 -0.00120294 1.1127e-19)
(0.999697 -0.00129077 7.10303e-20)
(0.999712 -0.00139045 3.28343e-19)
(0.999728 -0.00150316 -2.93782e-19)
(0.999743 -0.00162992 1.78424e-19)
(0.999758 -0.00177237 -3.10889e-21)
(0.999774 -0.00193274 1.78935e-20)
(0.999792 -0.00211319 -3.00729e-19)
(0.999813 -0.00231515 6.56012e-19)
(0.999841 -0.00253791 -8.16621e-19)
(0.99988 -0.00277786 4.59816e-19)
(0.999935 -0.00302732 -1.29217e-18)
(1.00001 -0.00327476 3.86853e-19)
(1.00011 -0.00350587 7.74069e-19)
(1.00024 -0.00370287 -1.20744e-18)
(1.00039 -0.00385223 -3.40531e-19)
(1.00057 -0.00394939 -1.18102e-19)
(1.0008 -0.00399347 -1.74824e-19)
(1.00106 -0.00398084 -5.41741e-19)
(1.00139 -0.00390947 4.76454e-20)
(1.00176 -0.00378226 1.95343e-19)
(1.00222 -0.00356616 -1.67175e-19)
(1.0029 -0.00327914 -2.34316e-20)
(1.00361 -0.00244896 -3.6318e-20)
(1.00383 0.00108451 -2.94788e-19)
(0.999332 0.000106659 6.64548e-21)
(0.999327 5.6341e-05 -5.31102e-21)
(0.999327 6.4429e-06 4.59341e-21)
(0.999328 -3.83492e-05 2.78532e-20)
(0.99933 -7.66789e-05 3.82942e-20)
(0.999332 -0.000110871 -1.41618e-19)
(0.999335 -0.000142638 9.70967e-20)
(0.999338 -0.000172309 1.91133e-20)
(0.999341 -0.00019999 -5.57427e-21)
(0.999345 -0.000226018 -3.74895e-20)
(0.999349 -0.00025032 1.09044e-19)
(0.999353 -0.000273568 -3.41317e-20)
(0.999358 -0.000295992 -4.48226e-20)
(0.999364 -0.000318192 -1.27003e-19)
(0.999369 -0.000340679 2.43165e-19)
(0.999376 -0.000363932 -4.8865e-20)
(0.999382 -0.00038866 -3.90805e-20)
(0.99939 -0.000414829 -1.09753e-19)
(0.999398 -0.000443037 1.16732e-19)
(0.999407 -0.000473286 6.16087e-20)
(0.999416 -0.000505558 -2.7708e-20)
(0.999427 -0.000539844 4.46714e-20)
(0.999439 -0.000576305 -1.85257e-19)
(0.999452 -0.00061461 1.32936e-20)
(0.999466 -0.000655093 9.60373e-20)
(0.999481 -0.000697742 -1.75523e-20)
(0.999498 -0.000742668 -2.71836e-19)
(0.999516 -0.00079037 2.63957e-20)
(0.999535 -0.000840581 2.2806e-19)
(0.999557 -0.000893995 -5.84647e-20)
(0.999579 -0.000951208 -1.10371e-19)
(0.999604 -0.00101291 6.13573e-20)
(0.99963 -0.00107832 1.76854e-19)
(0.999658 -0.00114682 4.04245e-19)
(0.999687 -0.0012194 -6.20349e-20)
(0.999717 -0.00129835 7.41056e-20)
(0.999749 -0.00138625 -5.77912e-19)
(0.999783 -0.00148475 -1.62083e-19)
(0.999819 -0.00159474 9.89301e-20)
(0.999856 -0.00171673 -3.96179e-19)
(0.999893 -0.00185201 -8.59925e-20)
(0.999932 -0.00200285 1.78631e-19)
(0.999971 -0.00217152 1.29811e-19)
(1.00001 -0.00235983 3.55512e-19)
(1.00006 -0.00256785 1.1402e-18)
(1.00011 -0.00279306 -8.60153e-19)
(1.00017 -0.00302906 1.29974e-18)
(1.00025 -0.00326568 9.547e-19)
(1.00035 -0.00348974 1.13215e-20)
(1.00047 -0.00368407 1.04656e-18)
(1.00062 -0.00383488 -1.34239e-18)
(1.00081 -0.00393679 -1.40035e-18)
(1.00104 -0.00398686 9.37049e-19)
(1.00133 -0.00397783 6.59705e-19)
(1.00168 -0.00390085 -1.87613e-19)
(1.0021 -0.00375172 -8.92359e-19)
(1.00261 -0.00349225 1.43998e-19)
(1.00336 -0.00313435 9.42832e-21)
(1.00408 -0.00223148 1.18738e-19)
(1.00456 0.00138897 -3.60671e-19)
(0.999268 0.000112929 -7.10998e-21)
(0.999265 5.82303e-05 7.37035e-21)
(0.999266 3.68449e-06 4.74314e-20)
(0.999267 -4.52869e-05 -5.86072e-20)
(0.999269 -8.71812e-05 1.00736e-19)
(0.999271 -0.000124544 -1.40179e-19)
(0.999273 -0.000159263 3.76235e-20)
(0.999276 -0.000191677 -1.69358e-21)
(0.999279 -0.000221932 7.50103e-20)
(0.999283 -0.000250315 -3.76386e-20)
(0.999287 -0.000276821 1.04936e-20)
(0.999291 -0.000302102 1.02444e-20)
(0.999296 -0.000326538 -1.53472e-19)
(0.999301 -0.000350732 4.43191e-20)
(0.999307 -0.00037526 9.70595e-20)
(0.999313 -0.000400675 2.60482e-21)
(0.99932 -0.000427705 -1.47818e-19)
(0.999328 -0.000456373 5.81746e-20)
(0.999336 -0.000487242 2.57813e-19)
(0.999346 -0.000520342 -1.62936e-19)
(0.999356 -0.000555621 -1.17677e-19)
(0.999368 -0.000593088 9.63372e-20)
(0.999381 -0.000632887 5.86033e-20)
(0.999396 -0.000674679 6.2432e-20)
(0.999412 -0.000718804 -1.18408e-19)
(0.99943 -0.000765224 -2.43538e-19)
(0.999451 -0.000814026 1.80957e-19)
(0.999473 -0.000865699 2.44933e-19)
(0.999498 -0.000919862 6.18946e-20)
(0.999525 -0.000977155 -1.25267e-19)
(0.999556 -0.00103805 5.49814e-20)
(0.999589 -0.00110307 8.68727e-20)
(0.999626 -0.00117149 -1.51242e-19)
(0.999665 -0.00124234 -2.77802e-20)
(0.999708 -0.00131632 -2.5075e-19)
(0.999755 -0.0013957 -6.46737e-20)
(0.999806 -0.00148259 -5.40572e-20)
(0.999861 -0.00157824 1.56983e-19)
(0.99992 -0.00168309 -2.12276e-19)
(0.999983 -0.00179694 5.95475e-20)
(1.00005 -0.0019205 9.16822e-20)
(1.00012 -0.00205577 2.05767e-20)
(1.00019 -0.00220489 -5.37601e-19)