/*--------------------------------*- C++ -*----------------------------------*\
  =========                 |
  \\      /  F ield         | OpenFOAM: The Open Source CFD Toolbox
   \\    /   O peration     | Website:  https://openfoam.org
    \\  /    A nd           | Version:  6.0
     \\/     M anipulation  |
\*---------------------------------------------------------------------------*/
FoamFile
{
    version     2.0;
    format      ascii;
    class       volScalarField;
    location    "9";
    object      p;
}
// * * * * * * * * * * * * * * * * * * * * * * * * * * * * * * * * * * * * * //

dimensions      [0 2 -2 0 0 0 0];

internalField   nonuniform List<scalar> 
62000
(
0.0187053
0.0188434
0.0189964
0.0191601
0.0193382
0.0195262
0.0197286
0.0199407
0.0201672
0.020403
0.0206531
0.0209127
0.0211873
0.0214719
0.0217727
0.0220852
0.0224164
0.0227624
0.0231307
0.0235181
0.0239324
0.0243714
0.024843
0.0253459
0.025888
0.0264695
0.0270978
0.0277747
0.0285076
0.0292999
0.0301592
0.0310899
0.032101
0.0332007
0.0343987
0.0357003
0.0371047
0.0385987
0.0401533
0.0417198
0.043227
0.0445802
0.0456667
0.0463706
0.0465988
0.0463207
0.0456104
0.044675
0.0438472
0.0435061
0.0439468
0.0452136
0.0470145
0.0487324
0.0496195
0.0490025
0.0467184
0.0425641
0.0392705
0.0374523
0.0186099
0.0188459
0.0190776
0.0193049
0.0195324
0.0197566
0.0199833
0.0202092
0.0204401
0.0206727
0.0209131
0.0211581
0.0214142
0.0216782
0.0219567
0.022247
0.0225561
0.0228814
0.0232301
0.0235999
0.0239981
0.024423
0.0248815
0.0253734
0.0259048
0.0264772
0.0270963
0.0277654
0.0284902
0.0292755
0.0301275
0.0310527
0.0320601
0.033162
0.0343686
0.0356882
0.0371212
0.0386564
0.0402674
0.0419083
0.0435106
0.044981
0.0462055
0.0470632
0.0474513
0.0473253
0.046745
0.0459111
0.0451703
0.0449479
0.0456228
0.0473468
0.0499201
0.0527581
0.0550373
0.0558887
0.0549432
0.0516079
0.0499268
0.0468449
0.0188109
0.0190685
0.0193165
0.0195553
0.0197901
0.0200174
0.0202428
0.0204634
0.0206848
0.0209042
0.021128
0.0213534
0.0215875
0.0218276
0.0220813
0.0223464
0.0226306
0.022932
0.0232583
0.0236081
0.0239884
0.0243985
0.0248449
0.0253277
0.0258529
0.0264218
0.0270398
0.0277099
0.028437
0.0292255
0.0300801
0.0310064
0.0320153
0.03312
0.0343336
0.035663
0.0371086
0.0386582
0.0402852
0.0419433
0.0435623
0.0450445
0.0462673
0.047094
0.047397
0.0470966
0.0462077
0.0448846
0.0434394
0.0422943
0.0418794
0.0424579
0.0439933
0.0460764
0.0480147
0.0489938
0.0486649
0.0463002
0.046364
0.0431772
0.0193656
0.019556
0.0197466
0.0199347
0.0201261
0.0203165
0.0205108
0.0207056
0.0209056
0.0211072
0.0213156
0.0215276
0.0217491
0.0219771
0.0222181
0.0224699
0.0227398
0.0230262
0.0233365
0.0236698
0.0240335
0.0244271
0.0248576
0.0253257
0.0258376
0.0263951
0.027004
0.0276674
0.0283903
0.0291766
0.0300304
0.030957
0.0319687
0.0330835
0.0343149
0.0356733
0.0371597
0.0387642
0.0404628
0.0422131
0.0439475
0.0455691
0.0469515
0.0479473
0.0484072
0.0482157
0.0473372
0.0458642
0.0440489
0.0422751
0.0409811
0.0405086
0.0409677
0.042145
0.0435359
0.0444667
0.0446808
0.043428
0.0450166
0.0438353
0.0197071
0.019827
0.019958
0.0200954
0.0202448
0.0204011
0.0205689
0.0207439
0.0209304
0.021124
0.0213292
0.021542
0.0217672
0.0220009
0.0222487
0.0225072
0.0227829
0.0230733
0.0233852
0.0237172
0.0240766
0.0244631
0.0248837
0.0253399
0.0258382
0.0263816
0.0269764
0.027627
0.0283391
0.0291173
0.0299662
0.0308919
0.0319108
0.0330423
0.0343068
0.0357179
0.0372813
0.0389926
0.0408353
0.0427758
0.0447561
0.0466879
0.0484506
0.0498971
0.0508677
0.0512224
0.0508822
0.0498787
0.0483925
0.0467419
0.0453289
0.0445142
0.0444973
0.0452028
0.0462852
0.0472022
0.0477731
0.0472377
0.0496433
0.0504251
0.019705
0.019791
0.019892
0.0200035
0.0201307
0.0202691
0.020423
0.0205884
0.0207692
0.0209612
0.0211685
0.0213867
0.0216203
0.0218649
0.0221253
0.0223975
0.0226872
0.022991
0.023315
0.0236572
0.0240241
0.024415
0.0248368
0.0252908
0.0257839
0.0263198
0.0269055
0.0275466
0.02825
0.0290219
0.0298679
0.0307968
0.0318267
0.0329833
0.0342885
0.0357638
0.0374195
0.0392586
0.0412741
0.0434439
0.0457233
0.0480375
0.0502787
0.0523086
0.0539686
0.0551059
0.0556104
0.0554611
0.0547678
0.0537708
0.0528062
0.0522078
0.0522019
0.0527933
0.0537453
0.0546149
0.0552522
0.054883
0.057412
0.0589589
0.0194327
0.0195191
0.0196198
0.0197307
0.019857
0.0199943
0.0201472
0.0203119
0.0204927
0.0206856
0.0208951
0.0211172
0.0213564
0.0216084
0.021878
0.0221611
0.022463
0.0227798
0.0231169
0.0234718
0.0238503
0.0242512
0.0246809
0.0251404
0.0256365
0.0261732
0.0267579
0.0273971
0.028099
0.0288708
0.02972
0.0306572
0.0317045
0.0328871
0.0342344
0.0357704
0.0375111
0.0394666
0.0416388
0.0440169
0.0465698
0.0492379
0.0519289
0.0545184
0.0568566
0.0587882
0.0601843
0.0609835
0.0612343
0.0611009
0.0608438
0.0607427
0.0610144
0.0616928
0.0626066
0.0633793
0.063866
0.0632845
0.0655314
0.066859
0.0190687
0.0191714
0.0192856
0.0194079
0.0195432
0.0196877
0.019846
0.0200148
0.0201984
0.0203932
0.0206038
0.0208266
0.0210662
0.0213189
0.0215896
0.0218746
0.0221791
0.0224997
0.0228415
0.0232022
0.0235871
0.0239947
0.0244311
0.0248968
0.0253984
0.0259398
0.0265285
0.0271715
0.0278777
0.0286552
0.0295125
0.0304626
0.0315276
0.0327374
0.03412
0.0357045
0.0375098
0.0395517
0.0418392
0.0443711
0.0471285
0.050066
0.0531071
0.0561437
0.0590389
0.061643
0.0638189
0.0654784
0.066622
0.0673479
0.0678439
0.0683278
0.0689812
0.0698416
0.0707713
0.0714424
0.0716967
0.0707663
0.0726128
0.0732952
0.0185954
0.0187233
0.0188608
0.0190045
0.0191591
0.0193205
0.0194932
0.0196738
0.0198668
0.0200685
0.020284
0.0205097
0.0207509
0.0210038
0.0212739
0.0215579
0.0218612
0.0221807
0.0225219
0.0228825
0.0232679
0.0236767
0.0241151
0.0245835
0.0250884
0.0256336
0.0262267
0.0268748
0.0275872
0.0283724
0.0292397
0.030203
0.0312865
0.0325165
0.0339262
0.035543
0.0373885
0.0394822
0.0418385
0.0444634
0.0473479
0.0504588
0.0537345
0.0570832
0.0603834
0.0634956
0.0662832
0.0686424
0.0705394
0.0720202
0.0732094
0.0742645
0.075327
0.0764182
0.0774158
0.0780268
0.0780804
0.0768403
0.0783434
0.0783582
0.0181246
0.0182762
0.0184354
0.0185989
0.0187713
0.0189487
0.0191354
0.0193282
0.0195311
0.0197408
0.0199618
0.0201909
0.020433
0.0206851
0.0209524
0.0212321
0.0215301
0.0218436
0.0221785
0.0225331
0.0229131
0.0233174
0.0237522
0.0242184
0.0247222
0.0252677
0.0258623
0.0265135
0.0272306
0.0280222
0.0288979
0.0298725
0.0309681
0.0322144
0.0336394
0.0352727
0.0371359
0.0392502
0.0416335
0.0442971
0.0472398
0.0504387
0.0538451
0.0573826
0.0609458
0.0644086
0.0676401
0.0705303
0.0730231
0.0751251
0.0769099
0.0784822
0.0799399
0.0812859
0.0824019
0.0830263
0.0829711
0.0815475
0.0828391
0.0823381
0.0175799
0.0177551
0.0179366
0.0181212
0.0183131
0.0185085
0.0187113
0.0189182
0.0191333
0.019353
0.0195821
0.0198172
0.0200636
0.0203178
0.0205855
0.020864
0.0211591
0.0214686
0.0217981
0.0221466
0.02252
0.0229176
0.0233461
0.0238065
0.0243055
0.0248474
0.0254399
0.0260906
0.0268088
0.0276032
0.0284835
0.0294642
0.0305684
0.0318203
0.0332517
0.0348878
0.0367502
0.0388613
0.0412407
0.0439032
0.0468537
0.0500775
0.0535371
0.0571702
0.0608868
0.0645751
0.0681137
0.0713928
0.0743429
0.0769427
0.0792265
0.0812547
0.0830892
0.0847093
0.0859963
0.086715
0.0866637
0.0852041
0.0864243
0.0856036
0.0170155
0.0172094
0.0174082
0.0176091
0.0178162
0.0180257
0.0182418
0.018461
0.0186872
0.018917
0.0191544
0.0193964
0.0196476
0.0199049
0.0201736
0.0204512
0.0207437
0.0210488
0.0213728
0.0217146
0.0220805
0.0224703
0.0228909
0.0233435
0.0238352
0.0243706
0.0249577
0.0256041
0.0263195
0.0271123
0.0279924
0.0289744
0.0300784
0.0313315
0.0327592
0.0343876
0.0362362
0.0383275
0.0406819
0.0433169
0.0462417
0.0494484
0.0529089
0.0565735
0.0603666
0.0641908
0.067936
0.0714965
0.0747965
0.0777952
0.0804976
0.0829289
0.085117
0.0870237
0.0885265
0.089416
0.0894718
0.0881075
0.0893747
0.0884014
0.0163195
0.0165327
0.0167508
0.0169708
0.0171965
0.0174239
0.017657
0.0178919
0.0181327
0.0183754
0.0186246
0.0188767
0.0191367
0.019401
0.0196752
0.0199565
0.020251
0.0205562
0.0208784
0.0212168
0.0215778
0.0219612
0.0223745
0.0228192
0.0233027
0.02383
0.0244092
0.0250485
0.0257575
0.0265447
0.0274199
0.0283973
0.0294978
0.0307423
0.0321607
0.0337737
0.0356002
0.0376624
0.039981
0.0425751
0.0454572
0.0486249
0.0520584
0.0557186
0.059543
0.0634479
0.067335
0.0711049
0.0746798
0.0780066
0.0810684
0.0838627
0.0863921
0.0885992
0.090358
0.0914801
0.0917278
0.0905598
0.0919602
0.0909606
0.0156055
0.0158335
0.0160655
0.0162988
0.0165373
0.0167771
0.017022
0.0172686
0.0175203
0.0177734
0.0180319
0.0182923
0.018559
0.0188288
0.0191068
0.0193905
0.0196855
0.01999
0.02031
0.0206449
0.0210011
0.0213787
0.0217852
0.0222222
0.0226973
0.0232158
0.023786
0.0244163
0.0251164
0.0258947
0.0267613
0.0277305
0.0288197
0.030054
0.0314565
0.0330496
0.0348497
0.0368786
0.0391568
0.0417046
0.0445375
0.0476575
0.0510515
0.0546901
0.0585224
0.0624773
0.0664681
0.0704028
0.0742047
0.0778123
0.0811933
0.0843234
0.0871814
0.0896977
0.0917412
0.0931437
0.0936433
0.0927406
0.0943313
0.0933838
0.0147808
0.0150231
0.0152692
0.0155163
0.0157681
0.0160207
0.0162778
0.0165356
0.0167979
0.0170608
0.0173284
0.0175971
0.0178716
0.0181482
0.0184323
0.0187208
0.0190197
0.0193267
0.0196476
0.0199819
0.0203359
0.0207097
0.0211109
0.0215413
0.0220087
0.0225185
0.0230792
0.0236995
0.0243891
0.0251564
0.0260117
0.0269685
0.0280459
0.0292625
0.0306476
0.0322184
0.0339908
0.0359863
0.0382253
0.040729
0.0435151
0.0465895
0.0499449
0.0535601
0.0573945
0.0613885
0.0654658
0.0695425
0.0735442
0.0774044
0.0810799
0.0845286
0.0877129
0.0905491
0.0929012
0.0946166
0.0954097
0.094815
0.0966298
0.0957822
0.0139192
0.0141713
0.0144261
0.0146815
0.0149411
0.0152013
0.0154658
0.0157312
0.0160009
0.0162712
0.0165457
0.016821
0.017101
0.0173827
0.0176705
0.0179621
0.0182628
0.0185706
0.0188913
0.0192243
0.019576
0.0199463
0.020343
0.0207675
0.0212279
0.0217295
0.0222809
0.0228908
0.0235691
0.0243243
0.0251666
0.0261099
0.02717
0.0283707
0.0297351
0.0312833
0.0330288
0.034993
0.0371962
0.0396605
0.0424058
0.0454411
0.0487643
0.0523615
0.0562011
0.0602335
0.0643926
0.0686018
0.0727902
0.0768881
0.0808443
0.0846028
0.0881091
0.0912709
0.0939467
0.0959975
0.097108
0.0968444
0.0989011
0.098173
0.0128979
0.0131615
0.0134283
0.0136957
0.0139674
0.0142394
0.0145153
0.0147914
0.0150713
0.0153509
0.0156344
0.0159178
0.0162058
0.0164945
0.0167889
0.0170862
0.0173918
0.0177032
0.0180264
0.0183606
0.0187119
0.0190805
0.0194738
0.0198936
0.0203478
0.0208418
0.0213843
0.021984
0.0226509
0.0233935
0.0242219
0.0251499
0.026195
0.0273747
0.0287199
0.030246
0.0319668
0.0339038
0.0360773
0.0385102
0.0412243
0.0442316
0.0475343
0.051125
0.0549799
0.0590587
0.0633039
0.0676461
0.0720177
0.0763475
0.0805785
0.084643
0.0884751
0.0919714
0.0949842
0.0973838
0.0988268
0.0989046
0.101211
0.10061
0.0118518
0.0121228
0.0123963
0.0126701
0.0129478
0.0132257
0.0135073
0.0137893
0.0140749
0.0143602
0.0146488
0.0149371
0.015229
0.0155214
0.0158185
0.0161178
0.0164247
0.0167367
0.0170599
0.0173933
0.0177431
0.0181093
0.0184993
0.0189147
0.0193632
0.0198502
0.0203843
0.0209744
0.0216301
0.0223601
0.0231747
0.024088
0.0251143
0.0262774
0.0276022
0.0291082
0.0308073
0.0327214
0.0348709
0.0372799
0.0399719
0.0429617
0.0462555
0.0498516
0.0537334
0.0578685
0.0622076
0.0666875
0.0712445
0.0758061
0.0803111
0.0846823
0.0888404
0.0926758
0.0960333
0.0987912
0.100573
0.100995
0.103554
0.103076
0.010677
0.010956
0.0112373
0.0115188
0.0118038
0.0120887
0.0123768
0.0126647
0.0129558
0.013246
0.0135394
0.0138321
0.0141286
0.014425
0.0147263
0.0150293
0.0153395
0.0156543
0.0159793
0.0163136
0.0166632
0.0170281
0.0174156
0.0178271
0.0182704
0.018751
0.0192772
0.019858
0.020503
0.0212209
0.0220221
0.0229202
0.0239319
0.0250747
0.0263824
0.0278702
0.0295509
0.0314471
0.0335794
0.035973
0.0386535
0.0416377
0.0449359
0.0485512
0.0524736
0.0566777
0.0611214
0.0657474
0.0704954
0.0752922
0.0800737
0.0847542
0.0892457
0.0934284
0.0971394
0.100261
0.102387
0.103152
0.105963
0.105602
0.00945975
0.00974242
0.0100265
0.0103102
0.0105972
0.0108839
0.0111738
0.011464
0.0117573
0.0120502
0.0123459
0.0126411
0.0129393
0.0132375
0.0135398
0.0138435
0.0141538
0.0144683
0.0147926
0.0151258
0.0154739
0.0158365
0.0162211
0.0166288
0.0170671
0.0175416
0.0180604
0.0186325
0.0192674
0.0199737
0.0207622
0.0216467
0.022641
0.0237694
0.0250598
0.0265321
0.0281979
0.0300805
0.0322011
0.034586
0.037263
0.0402513
0.0435644
0.0472105
0.0511851
0.0554696
0.0600283
0.0648091
0.0697553
0.0747926
0.0798555
0.0848503
0.0896781
0.0942131
0.0982834
0.101774
0.104244
0.105351
0.108414
0.108159
0.00806557
0.00835456
0.00864563
0.00893658
0.00923094
0.00952485
0.00982183
0.0101182
0.0104175
0.0107155
0.0110163
0.0113158
0.0116186
0.0119207
0.0122268
0.0125338
0.0128471
0.0131638
0.0134896
0.0138234
0.0141711
0.0145322
0.0149143
0.0153183
0.0157519
0.0162205
0.0167322
0.0172959
0.0179212
0.0186168
0.0193931
0.0202642
0.0212462
0.0223569
0.0236339
0.0250929
0.0267471
0.0286205
0.0307353
0.0331189
0.035801
0.0388035
0.0421428
0.0458317
0.049871
0.054248
0.0589328
0.0638782
0.0690307
0.0743154
0.079665
0.08498
0.090154
0.0950505
0.0994883
0.103352
0.10617
0.107616
0.11093
0.110774
0.00664677
0.00693849
0.00723153
0.00752414
0.00781988
0.00811509
0.00841333
0.00871125
0.00901195
0.00931161
0.00961347
0.00991406
0.0102171
0.0105193
0.0108248
0.0111309
0.0114427
0.0117578
0.0120816
0.0124132
0.0127585
0.0131167
0.0134954
0.0138954
0.014324
0.0147868
0.0152916
0.0158473
0.0164635
0.0171488
0.0179141
0.0187735
0.0197406
0.0208402
0.0221036
0.023552
0.0251974
0.0270652
0.0291781
0.0315654
0.0342588
0.0372824
0.0406562
0.0443968
0.0485103
0.0529893
0.0578097
0.0629286
0.0682957
0.0738348
0.0794789
0.0851215
0.0906465
0.0959106
0.100722
0.104964
0.108132
0.109915
0.113482
0.113416
0.00509194
0.00538755
0.00568446
0.00598079
0.00627997
0.00657832
0.00687924
0.00717918
0.0074816
0.00778237
0.00808532
0.0083867
0.0086908
0.00899372
0.0093002
0.00960699
0.00991953
0.0102348
0.0105583
0.010889
0.0112325
0.0115883
0.0119637
0.0123596
0.0127832
0.0132401
0.013738
0.014286
0.0148933
0.015569
0.0163237
0.0171716
0.018129
0.019214
0.0204678
0.0219073
0.0235466
0.0254122
0.0275278
0.0299243
0.0326356
0.0356882
0.039105
0.0429069
0.0471047
0.0516961
0.0566618
0.0619639
0.0675538
0.0733556
0.0793003
0.0852783
0.0911662
0.0968087
0.102003
0.106628
0.11015
0.112272
0.116091
0.116111
0.00349716
0.00379251
0.00408818
0.00438282
0.00467997
0.00497626
0.00527517
0.00557362
0.00587455
0.00617432
0.00647595
0.00677615
0.00707842
0.00737963
0.00768369
0.00798791
0.00829741
0.00860956
0.00892976
0.009257
0.00959699
0.00994888
0.0103201
0.0107113
0.0111295
0.0115804
0.0120714
0.0126116
0.0132104
0.0138768
0.0146217
0.0154598
0.0164044
0.0174814
0.0187249
0.0201576
0.0217928
0.0236585
0.0257795
0.0281883
0.0309215
0.0340079
0.0374734
0.0413432
0.0456325
0.0503438
0.0554633
0.0609563
0.0667778
0.0728497
0.0791043
0.0854268
0.0916844
0.0977127
0.103297
0.108311
0.112192
0.114654
0.118727
0.118828
0.00171791
0.00201637
0.00231591
0.00261467
0.0029162
0.00321661
0.00351946
0.00382095
0.00412473
0.00442635
0.00472983
0.00503113
0.00533476
0.00563653
0.00594138
0.00624577
0.00655537
0.0068669
0.00718597
0.00751132
0.00784871
0.00819721
0.00856437
0.0089506
0.00936327
0.00980777
0.0102917
0.0108241
0.0114144
0.0120717
0.0128071
0.013635
0.0145719
0.0156365
0.0168732
0.0183002
0.019933
0.0218012
0.0239308
0.0263561
0.029116
0.032242
0.035763
0.0397081
0.044097
0.0489371
0.0542188
0.0599123
0.0659732
0.0723247
0.0788954
0.0855726
0.0922134
0.0986397
0.104625
0.110035
0.11428
0.117085
0.121414
0.121593
-8.43986e-05
0.000213676
0.000512074
0.00080938
0.00110916
0.00140775
0.00170873
0.0020087
0.00231075
0.00261089
0.00291234
0.00321152
0.00351219
0.00381097
0.00411201
0.00441239
0.00471752
0.00502448
0.00533888
0.00565951
0.00599216
0.00633568
0.00669768
0.00707828
0.00748482
0.00792262
0.00839912
0.00892354
0.00950523
0.0101535
0.0108796
0.0116985
0.012624
0.0136825
0.0149108
0.0163333
0.017965
0.019837
0.0219765
0.02442
0.0272092
0.0303779
0.0339583
0.0379835
0.0424776
0.0474527
0.0529039
0.0588053
0.0651143
0.0717535
0.0786513
0.0856921
0.0927248
0.0995583
0.105953
0.111767
0.116382
0.119533
0.12412
0.124377
-0.00202992
-0.00173072
-0.00143113
-0.00113277
-0.000832143
-0.000533007
-0.000231917
6.74578e-05
0.000368631
0.000667222
0.000967167
0.00126447
0.00156365
0.00186049
0.00215997
0.0024585
0.00276184
0.00306653
0.00337826
0.00369564
0.0040244
0.00436336
0.00472017
0.00509488
0.00549485
0.00592547
0.00639412
0.00691012
0.00748283
0.00812184
0.00883831
0.00964731
0.010566
0.011613
0.0128358
0.0142541
0.0158855
0.0177628
0.0199145
0.0223793
0.0252013
0.0284173
0.0320625
0.0361739
0.0407801
0.045898
0.0515268
0.057645
0.0642106
0.0711478
0.0783793
0.085796
0.093235
0.100488
0.107303
0.11353
0.118522
0.122022
0.126872
0.127204
-0.0040175
-0.00372139
-0.00342585
-0.00313187
-0.00283587
-0.0025413
-0.00224461
-0.00194901
-0.00165152
-0.00135606
-0.00105955
-0.000765518
-0.0004703
-0.000177288
0.000117594
0.000411364
0.000709453
0.00100878
0.001315
0.00162673
0.00194981
0.00228276
0.00263335
0.00300134
0.00339407
0.00381691
0.00427712
0.00478413
0.00534733
0.00597646
0.00668312
0.00748277
0.00838994
0.00943124
0.010646
0.0120607
0.0136921
0.0155753
0.0177398
0.0202268
0.0230831
0.0263484
0.0300612
0.0342624
0.0389854
0.0442514
0.0500647
0.0564071
0.0632383
0.0704825
0.0780605
0.0858624
0.0937167
0.1014
0.108645
0.115292
0.120668
0.124524
0.129637
0.130047
-0.00619988
-0.0059029
-0.00560542
-0.00530911
-0.00501028
-0.00471308
-0.00441377
-0.00411649
-0.00381738
-0.00352143
-0.00322428
-0.00293054
-0.00263522
-0.00234314
-0.00204886
-0.00175656
-0.00145999
-0.00116312
-0.000859915
-0.000552121
-0.000233765
9.35703e-05
0.000437797
0.000798601
0.00118343
0.0015977
0.00204866
0.00254586
0.00309872
0.00371731
0.00441308
0.00520182
0.00610142
0.00713052
0.00833971
0.00975039
0.0113824
0.0132722
0.0154513
0.0179626
0.0208563
0.0241746
0.0279594
0.0322559
0.0371019
0.0425235
0.048529
0.0551049
0.0622105
0.0697732
0.0777054
0.0859071
0.0941905
0.102317
0.110003
0.11708
0.122848
0.127062
0.132442
0.132931
-0.00839843
-0.00810394
-0.0078096
-0.00751661
-0.00722123
-0.00692747
-0.00663152
-0.00633717
-0.00604113
-0.00574797
-0.00545419
-0.00516393
-0.00487301
-0.00458543
-0.00429659
-0.00401005
-0.00371982
-0.00342953
-0.00313308
-0.00283228
-0.002521
-0.00220115
-0.00186464
-0.00151215
-0.0011362
-0.000731413
-0.00029063
0.000195793
0.000737343
0.0013442
0.00202839
0.00280601
0.00369247
0.00471496
0.00591534
0.00732212
0.0089545
0.0108511
0.0130447
0.0155807
0.0185124
0.021885
0.025744
0.0301388
0.0351119
0.0406941
0.0468988
0.0537154
0.0611054
0.0689966
0.0772977
0.0859066
0.0946291
0.103208
0.111346
0.118862
0.125029
0.129608
0.135257
0.135827
-0.0107376
-0.0104437
-0.0101497
-0.00985713
-0.0095622
-0.00926914
-0.00897424
-0.00868169
-0.00838767
-0.00809728
-0.00780619
-0.00751912
-0.00723098
-0.00694681
-0.00666102
-0.00637805
-0.00609142
-0.00580545
-0.0055139
-0.0052188
-0.00491405
-0.00460158
-0.00427327
-0.00392981
-0.00356368
-0.00316944
-0.00273996
-0.0022655
-0.00173652
-0.00114247
-0.000471529
0.000292944
0.00117001
0.00217846
0.00337223
0.00477441
0.00640703
0.00831096
0.0105201
0.0130826
0.0160547
0.019485
0.0234222
0.0279202
0.0330265
0.0387765
0.0451881
0.0522551
0.059939
0.0681712
0.0768503
0.0858824
0.0950564
0.1041
0.1127
0.120664
0.127239
0.132186
0.138108
0.138762
-0.0131055
-0.0128166
-0.0125285
-0.0122421
-0.0119535
-0.0116667
-0.0113777
-0.0110904
-0.0108015
-0.0105157
-0.0102295
-0.0099472
-0.00966471
-0.00938615
-0.00910697
-0.00883092
-0.00855192
-0.00827387
-0.00799057
-0.00770403
-0.00740804
-0.00710483
-0.00678613
-0.00645295
-0.00609781
-0.00571525
-0.00529831
-0.00483708
-0.004322
-0.00374239
-0.00308574
-0.00233485
-0.00147337
-0.000473206
0.000710321
0.00210739
0.00373984
0.0056503
0.00787456
0.0104631
0.013476
0.0169647
0.0209818
0.0255857
0.030829
0.0367519
0.043377
0.0507023
0.0586902
0.0672748
0.0763471
0.0858101
0.0954445
0.104963
0.114035
0.122455
0.129445
0.134766
0.140964
0.141705
-0.0156682
-0.0153797
-0.0150906
-0.0148028
-0.0145121
-0.0142235
-0.0139327
-0.0136447
-0.0133552
-0.01307
-0.0127845
-0.012504
-0.0122229
-0.0119471
-0.0116704
-0.011398
-0.0111228
-0.0108498
-0.0105723
-0.0102928
-0.0100048
-0.00971074
-0.00940213
-0.00908008
-0.00873703
-0.00836744
-0.00796442
-0.00751791
-0.00701834
-0.00645449
-0.0058139
-0.00507883
-0.00422894
-0.00324487
-0.00206979
-0.000678956
0.000952427
0.00286937
0.00510924
0.00772517
0.0107808
0.0143308
0.0184316
0.0231463
0.0285324
0.0346354
0.0414822
0.0490752
0.0573777
0.0663272
0.0758039
0.085714
0.0958203
0.105824
0.115378
0.124264
0.131676
0.137376
0.143851
0.144684
-0.0182293
-0.0179446
-0.01766
-0.0173769
-0.0170912
-0.0168075
-0.0165217
-0.0162382
-0.0159534
-0.0156728
-0.0153925
-0.0151175
-0.0148432
-0.0145742
-0.0143056
-0.0140417
-0.0137759
-0.0135126
-0.0132451
-0.0129759
-0.0126986
-0.0124157
-0.0121188
-0.0118093
-0.0114797
-0.0111245
-0.0107369
-0.0103066
-0.00982409
-0.00927765
-0.00865418
-0.00793538
-0.00710339
-0.00612992
-0.00496767
-0.00358411
-0.00195506
-3.28914e-05
0.00222136
0.0048639
0.00796197
0.0115739
0.0157598
0.0205877
0.0261205
0.0324085
0.0394839
0.0473525
0.05598
0.0653059
0.0752024
0.0855667
0.0961535
0.106651
0.116697
0.126058
0.1339
0.139984
0.14674
0.14767
-0.0209263
-0.0206438
-0.0203612
-0.0200802
-0.0197966
-0.0195154
-0.0192323
-0.0189524
-0.0186715
-0.0183955
-0.0181198
-0.01785
-0.0175803
-0.0173167
-0.0170532
-0.016795
-0.016535
-0.0162785
-0.0160186
-0.0157581
-0.0154906
-0.0152189
-0.0149343
-0.0146384
-0.0143237
-0.0139845
-0.0136141
-0.0132019
-0.0127381
-0.0122106
-0.0116063
-0.0109063
-0.0100887
-0.00913472
-0.00798344
-0.00660899
-0.00498328
-0.0030564
-0.000787545
0.00188249
0.00502484
0.00870134
0.0129761
0.0179221
0.0236074
0.0300877
0.0373997
0.0455536
0.0545167
0.0642317
0.0745597
0.0853945
0.0964726
0.107474
0.118022
0.127865
0.136144
0.142616
0.149657
0.150688
-0.0236567
-0.0233822
-0.0231081
-0.0228351
-0.0225592
-0.0222848
-0.0220079
-0.0217332
-0.0214572
-0.0211857
-0.0209148
-0.0206499
-0.0203863
-0.0201292
-0.0198733
-0.0196236
-0.019373
-0.0191266
-0.0188776
-0.0186288
-0.0183737
-0.0181154
-0.0178452
-0.0175649
-0.0172671
-0.0169459
-0.0165947
-0.0162027
-0.0157597
-0.0152535
-0.0146701
-0.0139902
-0.0131947
-0.012254
-0.0111185
-0.00975399
-0.008133
-0.00620302
-0.00392107
-0.00122466
0.00196149
0.00570293
0.0100679
0.0151343
0.020976
0.0276536
0.0352091
0.0436562
0.0529651
0.0630803
0.0738537
0.0851667
0.0967452
0.10826
0.119319
0.129653
0.138377
0.145243
0.152571
0.153711
-0.0266411
-0.0263622
-0.0260797
-0.0257965
-0.025509
-0.025224
-0.0249371
-0.0246553
-0.0243734
-0.0240988
-0.0238256
-0.0235614
-0.0232986
-0.0230447
-0.0227923
-0.0225479
-0.0223034
-0.0220651
-0.0218254
-0.021588
-0.0213458
-0.0211023
-0.0208485
-0.0205864
-0.0203081
-0.0200078
-0.0196787
-0.0193096
-0.0188903
-0.0184078
-0.0178483
-0.0171916
-0.0164143
-0.0154961
-0.0143742
-0.0130212
-0.0114063
-0.00947374
-0.00717862
-0.00445495
-0.0012232
0.00258594
0.00704483
0.0122367
0.0182408
0.025123
0.0329302
0.0416803
0.0513454
0.0618726
0.0731036
0.0849106
0.097001
0.109038
0.120618
0.131452
0.140627
0.147891
0.15551
0.156764
-0.0292348
-0.0289746
-0.0287173
-0.0284626
-0.028206
-0.0279509
-0.0276939
-0.0274393
-0.0271838
-0.026933
-0.0266834
-0.0264403
-0.0261988
-0.0259648
-0.0257323
-0.025507
-0.0252815
-0.0250617
-0.0248406
-0.0246218
-0.0243987
-0.024175
-0.0239419
-0.0237017
-0.0234467
-0.0231707
-0.0228671
-0.0225243
-0.0221317
-0.021676
-0.0211424
-0.0205104
-0.0197586
-0.0188568
-0.0177534
-0.0164132
-0.0148057
-0.0128723
-0.0105655
-0.00781565
-0.00453876
-0.000661523
0.00389272
0.00921259
0.0153829
0.0224749
0.0305405
0.0396013
0.0496324
0.0605821
0.0722832
0.0845922
0.0972049
0.109776
0.121885
0.133227
0.142861
0.15053
0.158443
0.159819
-0.0323583
-0.0320924
-0.0318236
-0.0315547
-0.0312819
-0.0310125
-0.0307422
-0.030478
-0.0302149
-0.0299607
-0.0297093
-0.0294685
-0.0292306
-0.0290031
-0.0287784
-0.0285635
-0.02835
-0.0281447
-0.02794
-0.0277397
-0.0275372
-0.0273359
-0.027127
-0.0269125
-0.0266845
-0.0264368
-0.0261624
-0.0258494
-0.0254867
-0.0250604
-0.024556
-0.0239519
-0.0232222
-0.022347
-0.02126
-0.0199345
-0.0183354
-0.0164014
-0.0140825
-0.0113053
-0.00798119
-0.00403284
0.00062079
0.0060738
0.0124166
0.0197259
0.0280584
0.0374398
0.0478469
0.0592306
0.0714133
0.0842399
0.0973873
0.110502
0.123151
0.135009
0.145109
0.153186
0.161398
0.162904
-0.0349997
-0.0347531
-0.0345114
-0.0342745
-0.0340371
-0.0338028
-0.033568
-0.033337
-0.0331065
-0.0328824
-0.032661
-0.0324478
-0.0322379
-0.0320372
-0.0318397
-0.0316512
-0.0314645
-0.0312856
-0.0311076
-0.0309343
-0.0307592
-0.0305861
-0.0304063
-0.0302219
-0.0300253
-0.0298097
-0.0295682
-0.0292883
-0.0289589
-0.0285655
-0.0280927
-0.0275185
-0.0268196
-0.0259641
-0.0248992
-0.0235892
-0.0219999
-0.0200665
-0.0177367
-0.0149331
-0.0115619
-0.00754188
-0.00278729
0.00280153
0.00932085
0.0168527
0.025459
0.0351688
0.0459614
0.0577888
0.0704646
0.0838177
0.0975113
0.111181
0.124379
0.136763
0.147336
0.155828
0.164343
0.165989
-0.0382402
-0.0379838
-0.0377264
-0.0374713
-0.0372146
-0.036964
-0.0367148
-0.0364747
-0.0362382
-0.0360133
-0.0357939
-0.0355877
-0.035387
-0.035199
-0.0350162
-0.0348454
-0.0346785
-0.0345219
-0.0343686
-0.034222
-0.0340759
-0.0339335
-0.0337862
-0.0336356
-0.033474
-0.0332943
-0.0330894
-0.0328463
-0.0325536
-0.0321962
-0.0317587
-0.0312183
-0.0305462
-0.029721
-0.0286757
-0.0273829
-0.0258043
-0.0238716
-0.0215302
-0.0186984
-0.0152778
-0.0111826
-0.00632264
-0.000592486
0.00610996
0.0138723
0.0227611
0.0328093
0.0439977
0.0562801
0.0694607
0.0833558
0.0976093
0.111846
0.125604
0.138521
0.149574
0.158486
0.167307
0.169101
-0.0409564
-0.0407184
-0.0404891
-0.0402684
-0.0400508
-0.0398399
-0.0396318
-0.0394307
-0.0392332
-0.039045
-0.0388626
-0.038691
-0.0385255
-0.0383715
-0.0382234
-0.0380867
-0.0379543
-0.0378319
-0.0377131
-0.0376012
-0.0374903
-0.0373839
-0.0372732
-0.0371603
-0.0370373
-0.0368969
-0.036732
-0.0365291
-0.0362764
-0.0359582
-0.0355583
-0.0350534
-0.0344165
-0.0336148
-0.0325948
-0.0313207
-0.029754
-0.0278232
-0.0254711
-0.0226118
-0.0191417
-0.0149705
-0.0100034
-0.00412901
0.00276086
0.0107593
0.0199378
0.0303325
0.0419261
0.0546731
0.06837
0.0828165
0.0976427
0.11246
0.126788
0.140247
0.151788
0.161127
0.17026
0.172213
-0.0442473
-0.0440097
-0.0437777
-0.0435534
-0.0433316
-0.0431188
-0.0429097
-0.0427111
-0.0425176
-0.0423369
-0.0421632
-0.042004
-0.0418522
-0.0417148
-0.0415851
-0.0414695
-0.0413609
-0.041265
-0.0411756
-0.0410955
-0.0410191
-0.040949
-0.0408768
-0.0408039
-0.0407223
-0.040624
-0.0405021
-0.0403423
-0.0401324
-0.039856
-0.039497
-0.0390309
-0.0384256
-0.037659
-0.0366623
-0.0354089
-0.0338548
-0.0319257
-0.0295618
-0.026673
-0.0231505
-0.0188997
-0.0138206
-0.00779606
-0.000711736
0.00753114
0.0170086
0.0277602
0.0397697
0.0529932
0.067218
0.0822322
0.0976454
0.113054
0.127964
0.141973
0.154009
0.163781
0.17323
0.175352
-0.0474421
-0.0472106
-0.0469868
-0.0467728
-0.0465627
-0.0463626
-0.0461677
-0.045984
-0.0458074
-0.0456448
-0.0454922
-0.0453554
-0.0452292
-0.0451193
-0.0450198
-0.0449361
-0.0448612
-0.0448002
-0.044747
-0.0447042
-0.0446663
-0.044636
-0.0446048
-0.0445741
-0.0445361
-0.0444824
-0.0444057
-0.0442915
-0.044127
-0.0438954
-0.0435794
-0.0431541
-0.0425897
-0.0418509
-0.0408841
-0.0396522
-0.0381121
-0.0361858
-0.033811
-0.0308932
-0.0273182
-0.0229867
-0.0177938
-0.0116159
-0.00433247
0.00416088
0.0139449
0.0250622
0.0374974
0.0512073
0.065972
0.0815643
0.0975783
0.113593
0.129096
0.143664
0.156203
0.166416
0.176188
0.178491
-0.050801
-0.0505777
-0.0503633
-0.0501597
-0.0499618
-0.049776
-0.0495969
-0.0494311
-0.0492732
-0.0491307
-0.0489983
-0.048883
-0.0487783
-0.0486909
-0.0486147
-0.0485559
-0.048508
-0.0484763
-0.0484552
-0.0484469
-0.0484462
-0.0484554
-0.0484659
-0.0484789
-0.0484861
-0.0484788
-0.0484496
-0.0483833
-0.0482668
-0.0480823
-0.0478125
-0.0474315
-0.0469034
-0.0462043
-0.0452645
-0.0440561
-0.0425309
-0.0406073
-0.0382205
-0.0352718
-0.0316413
-0.0272251
-0.0219132
-0.0155757
-0.0080857
0.000666971
0.0107675
0.0222616
0.035134
0.0493428
0.0646602
0.0808476
0.0974775
0.114111
0.130217
0.145353
0.158402
0.169062
0.179162
0.181657
-0.0541756
-0.0539653
-0.0537655
-0.053578
-0.0533972
-0.0532288
-0.0530685
-0.0529219
-0.0527853
-0.0526653
-0.0525586
-0.0524702
-0.0523958
-0.0523402
-0.0522985
-0.0522753
-0.0522647
-0.0522712
-0.0522892
-0.0523209
-0.0523615
-0.052413
-0.0524675
-0.0525258
-0.0525799
-0.0526207
-0.0526409
-0.0526244
-0.0525579
-0.0524229
-0.0522007
-0.0518652
-0.051382
-0.0507147
-0.0498084
-0.048625
-0.0471162
-0.0451967
-0.0427991
-0.0398201
-0.036134
-0.0316322
-0.0261993
-0.0196987
-0.0119973
-0.0029786
0.00744655
0.019327
0.032647
0.0473657
0.0632487
0.0800427
0.0973031
0.11457
0.13129
0.147004
0.160572
0.171689
0.182125
0.184822
-0.0577547
-0.0575589
-0.0573748
-0.0572037
-0.0570407
-0.0568916
-0.0567517
-0.0566269
-0.0565125
-0.0564154
-0.0563312
-0.0562664
-0.0562153
-0.056184
-0.0561672
-0.0561707
-0.0561888
-0.0562263
-0.0562783
-0.0563464
-0.0564263
-0.0565195
-0.0566181
-0.0567225
-0.0568247
-0.056915
-0.0569859
-0.0570208
-0.0570058
-0.0569215
-0.0567494
-0.0564618
-0.0560188
-0.0553956
-0.0545201
-0.053364
-0.0518726
-0.0499572
-0.0475478
-0.0445365
-0.040792
-0.0362004
-0.0306412
-0.0239711
-0.0160501
-0.00675624
0.00400463
0.0162831
0.0300636
0.0453048
0.0617676
0.0791865
0.0970926
0.115005
0.132352
0.148651
0.162746
0.174325
0.185104
0.188013
-0.0613655
-0.061186
-0.06102
-0.0608687
-0.0607267
-0.0605991
-0.0604822
-0.0603807
-0.0602918
-0.0602214
-0.0601669
-0.0601327
-0.0601153
-0.0601188
-0.0601394
-0.0601811
-0.0602388
-0.0603165
-0.0604095
-0.0605195
-0.0606424
-0.0607798
-0.0609241
-0.0610757
-0.0612269
-0.0613675
-0.0614901
-0.0615774
-0.0616151
-0.0615834
-0.0614621
-0.0612234
-0.0608296
-0.0602417
-0.0594045
-0.0582769
-0.0568044