/*--------------------------------*- C++ -*----------------------------------*\
  =========                 |
  \\      /  F ield         | OpenFOAM: The Open Source CFD Toolbox
   \\    /   O peration     | Website:  https://openfoam.org
    \\  /    A nd           | Version:  6.0
     \\/     M anipulation  |
\*---------------------------------------------------------------------------*/
FoamFile
{
    version     2.0;
    format      ascii;
    class       volVectorField;
    location    "9";
    object      U;
}
// * * * * * * * * * * * * * * * * * * * * * * * * * * * * * * * * * * * * * //

dimensions      [0 1 -1 0 0 0 0];

internalField   nonuniform List<vector> 
62000
(
(0.98462 0.175931 -3.34693e-21)
(0.984589 0.175839 2.80839e-21)
(0.984562 0.175747 2.95679e-21)
(0.984539 0.17566 -1.32153e-20)
(0.984521 0.175571 -1.55322e-20)
(0.984508 0.175481 5.41788e-20)
(0.9845 0.175392 -6.08761e-20)
(0.984498 0.175302 3.59857e-20)
(0.984501 0.175212 -1.73906e-20)
(0.984509 0.175122 -9.12016e-20)
(0.98452 0.175034 -1.31327e-20)
(0.984534 0.174947 1.321e-19)
(0.984551 0.174863 2.80843e-20)
(0.984569 0.174781 -9.94447e-20)
(0.984588 0.174704 1.59311e-19)
(0.984607 0.174631 -8.57657e-20)
(0.984626 0.174563 9.24061e-20)
(0.984645 0.174501 -1.09648e-19)
(0.984662 0.174445 5.61665e-20)
(0.984679 0.174394 -1.772e-19)
(0.984694 0.174351 2.35808e-19)
(0.984707 0.174312 7.35085e-20)
(0.98472 0.174281 1.09356e-19)
(0.984731 0.174255 -4.92721e-19)
(0.98474 0.174235 1.84169e-19)
(0.984748 0.174222 -1.1893e-19)
(0.984755 0.174216 -3.63468e-21)
(0.984759 0.174216 -1.02988e-19)
(0.984761 0.174223 3.1835e-19)
(0.98476 0.174237 -1.8568e-19)
(0.984756 0.174259 4.56135e-19)
(0.984749 0.174289 -9.64662e-19)
(0.984735 0.174331 8.79425e-20)
(0.984715 0.174376 -3.35469e-19)
(0.984687 0.174422 -1.11216e-19)
(0.984652 0.174461 -3.47116e-19)
(0.984609 0.174488 -1.13393e-19)
(0.984557 0.174495 -1.21998e-19)
(0.984495 0.174471 3.45011e-19)
(0.984425 0.174409 1.67139e-18)
(0.984346 0.174298 -4.10808e-19)
(0.98426 0.17413 -2.40233e-18)
(0.984167 0.173903 -3.85102e-18)
(0.984069 0.17362 2.09983e-18)
(0.983965 0.173294 6.22052e-19)
(0.98385 0.172948 -2.9366e-18)
(0.983716 0.172611 6.57391e-19)
(0.983545 0.172307 -1.17178e-18)
(0.983311 0.172041 -5.35396e-18)
(0.982982 0.171772 -1.24184e-18)
(0.982526 0.171404 -6.37584e-19)
(0.981924 0.170781 -8.92273e-18)
(0.981182 0.16971 1.22845e-18)
(0.980354 0.167991 1.1696e-17)
(0.979548 0.165457 3.28278e-18)
(0.978911 0.161994 1.17242e-17)
(0.978626 0.157388 -1.39319e-18)
(0.978758 0.151544 -2.22465e-18)
(0.97993 0.14079 5.02556e-18)
(0.958286 0.115734 8.49823e-19)
(0.984746 0.177155 -9.01447e-22)
(0.984712 0.177181 8.8072e-21)
(0.98467 0.177147 3.83399e-21)
(0.984618 0.177132 -1.62523e-20)
(0.984559 0.177116 6.9062e-21)
(0.984498 0.1771 -4.90719e-20)
(0.984437 0.177084 4.54551e-20)
(0.98438 0.177065 2.72118e-20)
(0.984329 0.177043 -5.16869e-20)
(0.984286 0.177018 2.02759e-21)
(0.984251 0.176989 5.24415e-20)
(0.984226 0.176955 4.79651e-22)
(0.984211 0.176917 1.62095e-20)
(0.984204 0.176875 -1.3841e-19)
(0.984205 0.176828 2.84559e-19)
(0.984212 0.176778 -2.55844e-19)
(0.984225 0.176725 1.23098e-19)
(0.984241 0.176669 -2.61162e-20)
(0.984261 0.17661 -7.41935e-20)
(0.984282 0.176548 2.11302e-19)
(0.984304 0.176484 -3.39893e-19)
(0.984327 0.176417 2.01934e-19)
(0.984349 0.176348 -2.65545e-19)
(0.98437 0.176275 1.59718e-19)
(0.984391 0.1762 1.54282e-19)
(0.984411 0.176121 -1.0366e-19)
(0.98443 0.17604 -2.50388e-21)
(0.984447 0.175954 1.19397e-19)
(0.984463 0.175864 1.04595e-19)
(0.984477 0.175769 -2.2777e-19)
(0.98449 0.175669 4.7107e-19)
(0.9845 0.175564 1.03446e-19)
(0.984499 0.175454 3.19744e-19)
(0.984485 0.175321 2.86654e-20)
(0.984463 0.175163 9.49939e-20)
(0.98443 0.174972 -9.90183e-20)
(0.984388 0.174741 -3.19063e-19)
(0.984338 0.174461 -1.53349e-19)
(0.984281 0.17413 -9.30465e-19)
(0.984219 0.173745 -1.10288e-18)
(0.984153 0.173314 8.75135e-19)
(0.984084 0.172851 5.24463e-19)
(0.984012 0.172383 4.0501e-18)
(0.983934 0.171948 2.42697e-19)
(0.983843 0.171597 -6.25806e-18)
(0.983718 0.171383 2.45362e-18)
(0.983528 0.171345 1.9949e-18)
(0.983226 0.171477 2.28739e-18)
(0.982755 0.171699 5.34799e-19)
(0.982057 0.17183 1.31428e-19)
(0.981091 0.171589 3.85599e-18)
(0.979857 0.170625 1.0988e-17)
(0.978424 0.16859 -7.97476e-18)
(0.976936 0.165215 -2.04354e-17)
(0.97562 0.160355 -5.26903e-18)
(0.974735 0.154018 -4.07709e-18)
(0.974614 0.14605 -9.33041e-18)
(0.974778 0.13675 -4.75259e-18)
(0.978846 0.1205 7.78392e-18)
(0.955989 0.093359 2.93872e-18)
(0.985032 0.175718 -4.47382e-21)
(0.985113 0.175907 -7.05297e-22)
(0.985169 0.175995 6.62459e-22)
(0.985197 0.176099 3.33128e-21)
(0.985196 0.176209 9.76139e-21)
(0.98517 0.176319 -9.36158e-21)
(0.985121 0.176432 5.156e-20)
(0.985054 0.176547 -2.45918e-20)
(0.984973 0.176662 -1.34908e-20)
(0.984884 0.176776 -8.61842e-20)
(0.984791 0.176889 7.35427e-20)
(0.984697 0.176999 5.57815e-21)
(0.984607 0.177103 -1.76384e-20)
(0.984524 0.1772 4.78137e-20)
(0.984448 0.17729 -8.34216e-20)
(0.984381 0.17737 1.94622e-22)
(0.984323 0.177438 -4.04494e-20)
(0.984274 0.177494 -8.72e-23)
(0.984234 0.177536 9.68164e-20)
(0.984202 0.177562 -1.51464e-19)
(0.984176 0.177571 9.60046e-20)
(0.984155 0.177563 3.87711e-19)
(0.98414 0.177538 -4.76796e-20)
(0.984128 0.177492 -5.64226e-19)
(0.984119 0.177428 2.95662e-19)
(0.984114 0.177343 -1.68114e-19)
(0.984111 0.177237 2.79308e-19)
(0.984109 0.177109 -1.71202e-19)
(0.984111 0.176959 -3.56793e-19)
(0.984115 0.176785 3.93696e-19)
(0.984123 0.176586 -2.86655e-19)
(0.984131 0.176364 3.9824e-19)
(0.984132 0.176105 -1.12672e-18)
(0.984124 0.175799 1.00923e-18)
(0.984112 0.175451 -5.41953e-19)
(0.984097 0.17506 2.20418e-19)
(0.984081 0.174621 1.68395e-19)
(0.984066 0.174135 -2.22003e-20)
(0.984057 0.173609 -6.35082e-20)
(0.984056 0.173057 1.1342e-18)
(0.984065 0.172504 -4.59748e-19)
(0.984085 0.171985 7.23176e-19)
(0.984119 0.171553 -2.62177e-18)
(0.984161 0.17127 -1.29699e-18)
(0.984201 0.171208 1.34367e-18)
(0.98422 0.171429 -4.77048e-18)
(0.984185 0.171964 6.08495e-19)
(0.984051 0.17278 -3.86713e-18)
(0.983762 0.173749 5.28679e-18)
(0.983272 0.174624 1.34732e-18)
(0.982546 0.175058 6.16934e-19)
(0.981593 0.17465 -3.54682e-19)
(0.980482 0.17304 3.08798e-18)
(0.979342 0.169994 1.38526e-18)
(0.978369 0.165446 -6.81497e-18)
(0.977763 0.159517 -4.6476e-18)
(0.97788 0.152178 -2.7905e-18)
(0.977437 0.144 -1.0846e-17)
(0.982697 0.130329 -7.88686e-19)
(0.970086 0.114121 1.2462e-18)
(0.985016 0.175535 -4.58782e-21)
(0.985189 0.175726 1.42282e-20)
(0.985344 0.175844 -2.1311e-21)
(0.985478 0.175959 -1.51169e-20)
(0.985582 0.176083 2.31791e-20)
(0.985653 0.176205 4.08811e-20)
(0.985688 0.176331 -5.35678e-20)
(0.985688 0.176459 5.9517e-21)
(0.985654 0.176592 1.93965e-20)
(0.98559 0.176728 4.1122e-20)
(0.985499 0.176868 -7.63759e-20)
(0.985388 0.17701 -2.41589e-20)
(0.985262 0.177154 -2.75812e-20)
(0.985125 0.177298 1.2639e-19)
(0.984984 0.177441 -8.56615e-20)
(0.984843 0.177579 2.04244e-19)
(0.984705 0.177711 -2.50927e-19)
(0.984574 0.177832 -3.82763e-20)
(0.984451 0.17794 2.74738e-19)
(0.984337 0.178031 -9.68018e-20)
(0.984234 0.178103 -3.62305e-20)
(0.98414 0.178152 -3.9811e-20)
(0.984057 0.178177 -3.72009e-19)
(0.983984 0.178174 2.1463e-19)
(0.983919 0.178143 -1.03009e-19)
(0.983862 0.17808 1.65658e-19)
(0.983813 0.177986 7.98519e-20)
(0.983771 0.177857 4.08948e-19)
(0.983736 0.177692 -2.59858e-19)
(0.983707 0.17749 -3.53269e-19)
(0.983686 0.17725 5.75813e-19)
(0.983669 0.176973 -4.82738e-19)
(0.98365 0.176634 9.12077e-19)
(0.983627 0.176239 -5.60921e-19)
(0.983606 0.175798 2.26317e-19)
(0.983585 0.175314 3.98614e-19)
(0.983565 0.174788 -1.77174e-19)
(0.983551 0.174224 2.33042e-19)
(0.983544 0.173637 -1.11992e-19)
(0.983548 0.173047 3.61855e-19)
(0.983566 0.172489 -1.01327e-18)
(0.9836 0.172008 2.82933e-19)
(0.983651 0.171664 6.15036e-19)
(0.98372 0.171527 1.58491e-18)
(0.983801 0.171671 1.94244e-18)
(0.983885 0.172157 2.91907e-19)
(0.983951 0.173008 3.10338e-18)
(0.983971 0.174178 3.23331e-18)
(0.98391 0.175521 3.76873e-18)
(0.983737 0.176781 -2.60891e-18)
(0.983428 0.177606 -3.26038e-18)
(0.982979 0.177604 2.21988e-18)
(0.982432 0.176429 3.04055e-18)
(0.981858 0.173876 7.88675e-18)
(0.981381 0.169898 5.55621e-18)
(0.981104 0.164622 9.11303e-18)
(0.981383 0.158032 1.7687e-17)
(0.980304 0.150516 -1.06573e-18)
(0.9852 0.138461 -1.03949e-17)
(0.979142 0.124698 -7.95432e-18)
(0.984623 0.177401 8.94889e-21)
(0.984781 0.177511 -2.97571e-21)
(0.984948 0.177584 5.16955e-21)
(0.985118 0.17764 -7.27292e-21)
(0.985279 0.177699 1.67115e-20)
(0.985423 0.177751 -8.22265e-21)
(0.985543 0.177801 4.65775e-21)
(0.985632 0.177849 -6.87836e-20)
(0.985686 0.177899 5.81435e-20)
(0.985702 0.177952 -1.18622e-19)
(0.985681 0.178009 1.31661e-19)
(0.985624 0.178072 -1.60595e-20)
(0.985534 0.178141 -3.63426e-20)
(0.985417 0.178217 -1.71216e-20)
(0.985278 0.178298 -3.97584e-21)
(0.985122 0.178384 -1.77057e-19)
(0.984955 0.178473 6.2046e-21)
(0.984782 0.17856 1.97011e-19)
(0.984608 0.178644 -6.55922e-20)
(0.984438 0.178718 -7.09998e-20)
(0.984274 0.178781 1.19426e-19)
(0.984118 0.178828 -6.15423e-20)
(0.983973 0.178854 2.60988e-19)
(0.983839 0.178856 1.48703e-19)
(0.983716 0.17883 1.17845e-19)
(0.983605 0.178773 -3.60304e-19)
(0.983506 0.178682 -5.19521e-20)
(0.983416 0.178552 -2.99215e-19)
(0.983337 0.178383 5.56861e-20)
(0.983267 0.178171 -1.08196e-19)
(0.983206 0.177917 -4.34252e-20)
(0.98315 0.177619 3.62533e-19)
(0.983097 0.177248 -9.11448e-19)
(0.983047 0.176824 -4.06051e-20)
(0.982999 0.176356 -4.73092e-19)
(0.982948 0.175852 -2.31869e-19)
(0.982893 0.175311 6.70242e-20)
(0.982837 0.174742 -7.79329e-19)
(0.982779 0.174157 1.22629e-18)
(0.982722 0.173579 2.21012e-19)
(0.982666 0.173041 1.40349e-18)
(0.982614 0.172589 -1.07595e-18)
(0.982569 0.172277 -7.50848e-19)
(0.982534 0.17217 -2.05861e-19)
(0.982511 0.172333 1.52145e-18)
(0.982501 0.172817 2.10787e-18)
(0.9825 0.173632 7.46725e-19)
(0.982501 0.174726 1.12681e-18)
(0.982493 0.175951 -8.28854e-19)
(0.982466 0.177059 7.06887e-18)
(0.982411 0.17772 1.80711e-18)
(0.982321 0.177571 -1.40658e-18)
(0.982212 0.176292 1.3957e-18)
(0.98211 0.173691 6.33403e-18)
(0.982077 0.169713 -7.60275e-19)
(0.982132 0.164431 -6.99435e-18)
(0.982636 0.157802 -1.85104e-17)
(0.981338 0.149806 1.73632e-17)
(0.985336 0.137454 -1.19309e-17)
(0.98147 0.120568 1.00122e-17)
(0.98396 0.180189 -3.36611e-21)
(0.984038 0.180235 1.37127e-20)
(0.984144 0.180256 -2.28223e-20)
(0.984275 0.180257 1.72191e-20)
(0.984423 0.180254 1.13893e-20)
(0.984578 0.180238 -1.21096e-20)
(0.984732 0.180213 1.05998e-21)
(0.984876 0.180178 -9.40784e-21)
(0.985 0.180138 -3.23242e-20)
(0.985098 0.180093 6.25993e-20)
(0.985164 0.180047 -9.88928e-20)
(0.985195 0.180003 8.75536e-20)
(0.985188 0.179962 7.91411e-20)
(0.985145 0.179927 -1.23437e-19)
(0.985067 0.1799 -4.15674e-20)
(0.984959 0.17988 1.56897e-19)
(0.984826 0.179868 -1.93285e-19)
(0.984672 0.179862 2.7203e-19)
(0.984503 0.17986 -5.1223e-20)
(0.984324 0.179859 3.16673e-20)
(0.984142 0.179855 -4.88312e-20)
(0.98396 0.179843 -6.31585e-20)
(0.983782 0.179821 -1.21587e-19)
(0.98361 0.179782 2.14365e-19)
(0.983448 0.179723 -1.48926e-19)
(0.983296 0.179639 -1.50853e-19)
(0.983155 0.179525 3.15049e-19)
(0.983024 0.179378 -3.11418e-19)
(0.982904 0.179193 5.0712e-19)
(0.982795 0.178967 -2.74329e-19)
(0.982692 0.178701 2.2021e-19)
(0.982593 0.178393 -3.81347e-19)
(0.982502 0.178012 4.21777e-19)
(0.98242 0.177586 -3.02876e-20)
(0.982337 0.177123 -1.88343e-20)
(0.982245 0.176632 -8.0288e-21)
(0.982141 0.176111 -2.40449e-19)
(0.982023 0.175564 6.98016e-19)
(0.981889 0.175003 -5.40375e-19)
(0.981737 0.174448 -3.25321e-18)
(0.981568 0.173926 -1.41485e-18)
(0.981383 0.173473 1.003e-18)
(0.981183 0.173136 -1.23336e-18)
(0.980976 0.172965 -1.28169e-18)
(0.980769 0.173009 -1.26662e-19)
(0.980572 0.173304 3.43416e-18)
(0.980396 0.173849 -4.97013e-18)
(0.980256 0.174582 -4.87878e-18)
(0.980163 0.175361 -2.82809e-18)
(0.980133 0.175958 -5.12404e-18)
(0.980175 0.176075 3.91188e-18)
(0.980287 0.175388 -1.12066e-18)
(0.980475 0.173615 -1.07955e-17)
(0.980738 0.170581 2.9894e-18)
(0.981091 0.166219 3.05901e-18)
(0.981501 0.160549 -7.45165e-18)
(0.982314 0.15352 4.20789e-18)
(0.981192 0.144742 6.25102e-18)
(0.984445 0.131569 1.93352e-17)
(0.980826 0.111822 4.53873e-19)
(0.983227 0.182895 3.88215e-21)
(0.983208 0.182923 -1.76668e-20)
(0.983226 0.182923 8.64669e-21)
(0.983278 0.182903 1.64432e-20)
(0.98336 0.182875 -3.5732e-20)
(0.98347 0.182829 3.02651e-20)
(0.983599 0.182769 -2.05177e-20)
(0.983741 0.182693 1.76125e-20)
(0.983886 0.182603 2.87107e-20)
(0.984024 0.1825 -6.98485e-20)
(0.984148 0.182388 1.02533e-19)
(0.98425 0.182269 4.4931e-20)
(0.984323 0.182146 -1.78757e-19)
(0.984364 0.182021 -3.48317e-20)
(0.98437 0.1819 9.80102e-20)
(0.984341 0.181781 6.49415e-20)
(0.984278 0.181669 -7.93803e-20)
(0.984185 0.181563 7.16067e-20)
(0.984065 0.181463 1.13542e-19)
(0.983924 0.181366 -5.42166e-20)
(0.983766 0.181272 -3.17689e-20)
(0.983597 0.181177 1.18976e-19)
(0.983422 0.181079 2.51146e-19)
(0.983244 0.180972 -1.7994e-19)
(0.983068 0.180853 -2.07079e-19)
(0.982896 0.180717 2.35167e-19)
(0.982731 0.18056 -1.83486e-19)
(0.982573 0.180376 -7.96988e-20)
(0.982424 0.180161 6.57368e-19)
(0.982281 0.179911 -2.94531e-19)
(0.982143 0.179629 -2.39538e-19)
(0.982005 0.179311 3.16112e-19)
(0.981879 0.178928 2.25742e-19)
(0.981767 0.178511 -2.0149e-19)
(0.98165 0.178068 -1.39546e-19)
(0.981518 0.177603 4.62486e-19)
(0.981364 0.177113 1.08278e-19)
(0.981184 0.176599 1.57433e-19)
(0.980973 0.176068 -9.02098e-19)
(0.980728 0.175534 -9.35971e-19)
(0.980446 0.175017 1.80087e-18)
(0.980128 0.174543 1.51884e-18)
(0.979776 0.174144 2.62815e-18)
(0.979398 0.173857 -2.53005e-18)
(0.979006 0.173713 -2.92581e-18)
(0.978617 0.173731 -1.8626e-18)
(0.978255 0.173897 4.74215e-18)
(0.97795 0.174146 4.79051e-18)
(0.977736 0.174343 -5.23539e-18)
(0.977648 0.174285 -8.20384e-18)
(0.977717 0.173712 -8.1852e-19)
(0.97795 0.172348 1.82231e-18)
(0.97835 0.169952 -1.46768e-19)
(0.978901 0.166372 -4.29363e-18)
(0.97959 0.161544 4.50138e-18)
(0.980348 0.155445 2.35134e-18)
(0.981495 0.148059 3.60761e-18)
(0.980743 0.138745 -1.87345e-17)
(0.983602 0.125048 -1.00274e-18)
(0.980101 0.104351 9.83264e-19)
(0.982605 0.185135 -6.38005e-21)
(0.9825 0.185167 -5.19114e-21)
(0.982428 0.18517 7.01421e-21)
(0.982389 0.185156 2.53603e-20)
(0.982384 0.185134 -5.52913e-20)
(0.982413 0.185094 6.40646e-20)
(0.982475 0.185036 -2.71758e-21)
(0.982564 0.18496 -3.92237e-21)
(0.982676 0.184865 -2.38342e-20)
(0.982801 0.18475 5.91202e-20)
(0.982932 0.184618 -9.2208e-20)
(0.983061 0.184471 3.52085e-20)
(0.983177 0.184311 -1.22914e-21)
(0.983275 0.18414 5.75487e-20)
(0.983348 0.183964 2.83318e-20)
(0.983392 0.183783 -1.50351e-19)
(0.983404 0.183602 1.32596e-19)
(0.983383 0.183421 5.38292e-20)
(0.983331 0.183242 -1.56162e-19)
(0.98325 0.183064 7.75052e-20)
(0.983144 0.182889 3.74596e-20)
(0.983016 0.182714 -2.39739e-20)
(0.982872 0.182539 3.33226e-20)
(0.982716 0.182359 -1.78064e-20)
(0.982552 0.182172 -2.22213e-19)
(0.982384 0.181975 1.50018e-19)
(0.982215 0.181764 -2.34589e-19)
(0.982047 0.181532 4.40045e-19)
(0.981882 0.181277 -8.30059e-20)
(0.981719 0.180996 -5.05473e-20)
(0.981555 0.180692 -1.30225e-20)
(0.981389 0.180359 5.24274e-19)
(0.981235 0.179975 -2.09019e-19)
(0.981098 0.179568 -1.27142e-19)
(0.980955 0.179146 3.48437e-19)
(0.980789 0.17871 3.08413e-19)
(0.980594 0.17825 -5.24084e-19)
(0.980362 0.177766 9.44978e-20)
(0.980089 0.177259 1.08594e-18)
(0.979769 0.176737 -1.01979e-19)
(0.979399 0.176212 7.5425e-19)
(0.978978 0.1757 -1.14815e-18)
(0.97851 0.17522 1.7888e-18)
(0.978001 0.174793 4.05143e-18)
(0.977469 0.174436 1.16822e-18)
(0.976935 0.17415 -1.75084e-18)
(0.976431 0.173914 -5.52176e-18)
(0.976001 0.173661 1.27953e-18)
(0.975692 0.173266 1.63396e-18)
(0.975557 0.172552 3.08694e-18)
(0.975641 0.171299 -2.92068e-20)
(0.975963 0.169279 -7.2758e-18)
(0.976527 0.166294 6.55589e-18)
(0.977308 0.162221 -4.66011e-18)
(0.978277 0.157005 1.02725e-17)
(0.979346 0.150597 2.39585e-18)
(0.980788 0.143032 1.19605e-17)
(0.980429 0.133539 1.65081e-17)
(0.983179 0.119757 3.25936e-18)
(0.98032 0.0994799 5.07782e-18)
(0.982156 0.186901 -3.00577e-21)
(0.981983 0.186951 2.59351e-21)
(0.981836 0.186968 1.3295e-20)
(0.981715 0.186971 2.14093e-20)
(0.981622 0.186967 -6.36412e-20)
(0.981563 0.186946 3.70364e-20)
(0.981538 0.186909 -6.75881e-20)
(0.981548 0.186853 1.06914e-19)
(0.981591 0.186776 -5.06882e-20)
(0.981661 0.186678 9.1224e-21)
(0.981754 0.186559 1.01715e-19)
(0.981861 0.186419 -2.33955e-19)
(0.981976 0.186259 1.61612e-19)
(0.982088 0.186082 2.37597e-20)
(0.982192 0.185891 3.88323e-20)
(0.982279 0.185687 -1.61878e-19)
(0.982343 0.185474 8.08733e-20)
(0.982382 0.185253 -1.02297e-19)
(0.982392 0.185027 2.05604e-19)
(0.982372 0.184797 -2.57324e-20)
(0.982324 0.184564 -2.69094e-19)
(0.98225 0.184329 1.08638e-19)
(0.982152 0.184091 -5.96743e-21)
(0.982034 0.183849 -4.18728e-19)
(0.9819 0.183601 3.12112e-19)
(0.981754 0.183347 2.40993e-19)
(0.981599 0.183081 1.69244e-19)
(0.981438 0.182802 -2.21053e-19)
(0.981272 0.182504 -2.5306e-19)
(0.981103 0.182188 1.20048e-19)
(0.980927 0.181857 1.80714e-19)
(0.980744 0.181507 -2.3215e-19)
(0.980572 0.181117 -3.57688e-19)
(0.980421 0.180716 7.25236e-19)
(0.98026 0.180308 8.64422e-20)
(0.980071 0.179892 -1.14675e-18)
(0.979846 0.179454 9.6724e-20)
(0.979579 0.178988 8.08854e-19)
(0.979263 0.178491 7.20166e-20)
(0.978894 0.177967 1.14326e-18)
(0.978466 0.177418 -1.7334e-18)
(0.977981 0.176853 -1.36844e-19)
(0.97744 0.176279 -1.20021e-18)
(0.976855 0.175703 4.92994e-19)
(0.97624 0.175129 2.17157e-18)
(0.975624 0.174548 6.94579e-18)
(0.975043 0.173931 1.01968e-18)
(0.974546 0.173211 -4.75465e-18)
(0.974192 0.172278 3.828e-18)
(0.974045 0.170979 1.36988e-17)
(0.974158 0.169132 -1.13143e-17)
(0.97456 0.166553 1.39403e-17)
(0.975257 0.163085 -8.7886e-18)
(0.976221 0.158633 -5.24625e-18)
(0.977409 0.153155 -2.10525e-17)
(0.978729 0.146587 -1.23623e-18)
(0.980394 0.139013 -7.40492e-18)
(0.980361 0.129616 -8.58635e-18)
(0.983155 0.116067 7.06164e-18)
(0.981429 0.0968148 1.2027e-18)
(0.981862 0.188277 4.06014e-21)
(0.981644 0.188338 1.46803e-21)
(0.981443 0.188367 -1.50559e-20)
(0.981258 0.188387 1.45145e-20)
(0.981093 0.188401 -6.50925e-21)
(0.980954 0.188403 1.18907e-20)
(0.980846 0.188391 4.23444e-21)
(0.980771 0.188362 -6.10791e-20)
(0.980731 0.188315 2.65884e-20)
(0.980725 0.188246 -1.87569e-20)
(0.98075 0.188156 1.11836e-20)
(0.980803 0.188042 4.50508e-20)
(0.980877 0.187907 -8.42153e-21)
(0.980966 0.187749 2.85937e-20)
(0.98106 0.187572 -1.22245e-19)
(0.981154 0.187375 4.7281e-20)
(0.981238 0.187162 2.1325e-20)
(0.981308 0.186935 -5.93213e-20)
(0.981358 0.186694 1.19168e-19)
(0.981385 0.186442 4.04847e-20)
(0.981385 0.186181 -3.89342e-21)
(0.98136 0.185911 -4.40915e-20)
(0.981309 0.185634 1.83293e-19)
(0.981234 0.185349 -5.13435e-19)
(0.981138 0.185057 2.67806e-19)
(0.981024 0.184758 1.16409e-19)
(0.980894 0.184448 -2.01653e-19)
(0.980751 0.184126 3.64223e-19)
(0.980597 0.18379 -1.7666e-19)
(0.980434 0.18344 -9.73035e-20)
(0.980259 0.183082 -1.99458e-19)
(0.980072 0.182709 -8.28068e-20)
(0.979894 0.18231 2.28789e-19)
(0.979736 0.181907 -7.11283e-19)
(0.979567 0.181504 1.34299e-18)
(0.979365 0.181096 -8.26441e-20)
(0.979124 0.180664 7.41281e-19)
(0.978837 0.180199 -1.90562e-18)
(0.978498 0.179695 -6.42478e-19)
(0.978102 0.17915 -1.90083e-20)
(0.977647 0.178561 -5.12144e-19)
(0.977132 0.177928 -1.02102e-19)
(0.976562 0.177249 -2.03341e-18)
(0.975947 0.176521 6.62207e-19)
(0.975304 0.175739 1.07217e-18)
(0.974664 0.174886 -6.46418e-18)
(0.974064 0.173926 8.54875e-18)
(0.973557 0.172799 1.34041e-18)
(0.973208 0.171405 3.88528e-19)
(0.973085 0.169618 -9.41863e-18)
(0.973246 0.167287 3.46937e-18)
(0.973726 0.164267 -7.45169e-18)
(0.974534 0.160438 1.50971e-17)
(0.975637 0.155728 3.32551e-18)
(0.976987 0.15011 -1.40245e-17)
(0.978494 0.143505 5.59189e-18)
(0.980302 0.13604 -1.64838e-17)
(0.980496 0.126894 -3.69976e-18)
(0.983387 0.113741 -2.61936e-17)
(0.983013 0.0956451 -6.61658e-18)
(0.981682 0.189367 -8.68274e-22)
(0.981437 0.189439 -3.46771e-21)
(0.981203 0.189476 -3.09375e-21)
(0.980976 0.189507 2.9827e-20)
(0.980759 0.189535 -1.66256e-20)
(0.980559 0.189554 -2.04643e-20)
(0.980381 0.189562 -7.97567e-21)
(0.980231 0.189557 -3.28589e-20)
(0.980111 0.189537 2.01793e-20)
(0.980025 0.189499 2.69622e-21)
(0.979972 0.189441 7.69054e-22)
(0.979953 0.189362 9.23267e-20)
(0.979964 0.18926 -6.61736e-20)
(0.98 0.189135 -8.49135e-21)
(0.980055 0.188987 7.87151e-20)
(0.980122 0.188817 -4.36606e-20)
(0.980195 0.188626 -1.71738e-20)
(0.980265 0.188413 2.81465e-20)
(0.980327 0.188182 9.26584e-20)
(0.980376 0.187932 5.29452e-20)
(0.980406 0.187667 2.1245e-20)
(0.980415 0.187386 -1.33323e-19)
(0.980401 0.187093 6.92362e-20)
(0.980364 0.186787 1.37736e-19)
(0.980304 0.186469 -2.86203e-19)
(0.980222 0.186141 9.50252e-20)
(0.980122 0.1858 -3.80352e-19)
(0.980003 0.185446 3.14638e-19)
(0.97987 0.185079 2.86133e-19)
(0.979721 0.1847 -4.4787e-19)
(0.979556 0.184317 -2.17284e-19)
(0.979377 0.183922 3.00288e-19)
(0.979202 0.18351 1.02138e-19)
(0.979045 0.183096 -2.98608e-19)
(0.978877 0.182688 -3.74157e-19)
(0.978671 0.182274 -4.58592e-19)
(0.978424 0.181831 2.77848e-19)
(0.978129 0.18135 7.02046e-19)
(0.977782 0.180821 2.44055e-19)
(0.97738 0.180237 -2.69631e-19)
(0.97692 0.179591 2.86098e-18)
(0.976403 0.178876 -2.51303e-19)
(0.975836 0.178086 3.3209e-18)
(0.975228 0.177208 -6.30401e-18)
(0.974599 0.176231 9.49243e-19)
(0.973978 0.175131 2.05675e-19)
(0.973404 0.173874 -5.69083e-19)
(0.972932 0.172401 -5.97568e-18)
(0.972625 0.170627 -1.01314e-17)
(0.972553 0.168446 9.44716e-18)
(0.972778 0.165738 1.28993e-17)
(0.973335 0.16239 7.05397e-18)
(0.974232 0.15831 -1.45705e-17)
(0.975438 0.153445 8.14965e-18)
(0.976898 0.147779 2.10595e-17)
(0.978533 0.141224 8.71846e-18)
(0.980413 0.133928 1.60859e-17)
(0.980742 0.125102 8.13754e-18)
(0.983726 0.11239 2.43587e-17)
(0.984691 0.0953625 -1.80076e-17)
(0.981573 0.190243 1.07914e-21)
(0.981316 0.190317 -3.27959e-21)
(0.981064 0.190358 1.18837e-20)
(0.980812 0.190396 3.25724e-21)
(0.980562 0.190435 -1.67652e-20)
(0.98032 0.190466 -1.98172e-20)
(0.980091 0.190491 4.726e-20)
(0.979881 0.190506 -5.24676e-20)
(0.979695 0.190509 -1.34773e-20)
(0.979537 0.190497 3.30874e-20)
(0.97941 0.190468 3.14174e-20)
(0.979316 0.19042 9.74378e-20)
(0.979254 0.190352 -5.449e-20)
(0.979224 0.190262 -9.62033e-20)
(0.97922 0.190149 2.12738e-20)
(0.979239 0.190012 -8.14538e-20)
(0.979274 0.189852 6.10314e-20)
(0.97932 0.189669 -1.05896e-19)
(0.979368 0.189462 1.61957e-20)
(0.979414 0.189232 -3.64375e-20)
(0.979451 0.188982 -2.40459e-20)
(0.979475 0.18871 -1.02745e-19)
(0.979482 0.188419 7.20281e-21)
(0.97947 0.188111 2.24304e-19)
(0.979437 0.187785 -7.74181e-20)
(0.979384 0.187444 2.39994e-20)
(0.97931 0.187087 7.22838e-20)
(0.979217 0.186714 -1.02096e-19)
(0.979105 0.186326 -2.13357e-20)
(0.978976 0.185925 1.51014e-19)
(0.978827 0.18552 1.7187e-19)
(0.978663 0.185104 -1.33568e-19)
(0.978497 0.184676 -4.29371e-19)
(0.978348 0.184247 -6.14994e-19)
(0.978186 0.183822 9.60716e-19)
(0.977983 0.183389 2.57072e-19)
(0.977737 0.182922 1.55662e-19)
(0.977444 0.182408 8.83321e-19)
(0.977101 0.181837 -8.57747e-19)
(0.976705 0.181198 5.42883e-19)
(0.976256 0.180481 -9.76926e-21)
(0.975757 0.179675 7.94945e-20)
(0.975213 0.178768 -1.21357e-18)
(0.974637 0.177743 2.84785e-18)
(0.974049 0.176584 -3.93692e-18)
(0.973476 0.175266 2.50806e-18)
(0.972958 0.173751 -7.49116e-18)
(0.972548 0.171991 2.27717e-18)
(0.972307 0.169909 5.31347e-18)
(0.972305 0.16742 -9.43852e-18)
(0.972599 0.164427 -2.59893e-18)
(0.973229 0.160842 -7.57253e-19)
(0.974199 0.156599 -2.5281e-18)
(0.975478 0.151658 -8.39376e-18)
(0.977006 0.146007 5.9562e-19)
(0.978717 0.139551 8.02441e-18)
(0.980616 0.132447 -9.02028e-18)
(0.981008 0.123946 -2.58981e-18)
(0.984061 0.111652 -3.48773e-18)
(0.986199 0.0955266 1.32715e-17)
(0.981491 0.190972 1.91317e-21)
(0.98123 0.191054 -1.61738e-21)
(0.980972 0.191099 1.53612e-21)
(0.980707 0.191142 1.00061e-20)
(0.980439 0.191185 1.49175e-20)
(0.980172 0.191224 -5.82691e-20)
(0.97991 0.191258 4.27391e-20)
(0.979659 0.191284 9.27398e-21)
(0.979423 0.191302 -2.54295e-21)
(0.979207 0.191308 -2.01809e-20)
(0.979017 0.191301 6.36513e-20)
(0.978855 0.191279 -2.04312e-20)
(0.978725 0.191239 -2.92208e-20)
(0.978626 0.191179 -8.94973e-20)
(0.978558 0.191099 1.81688e-19)
(0.978517 0.190997 -3.74438e-20)
(0.978501 0.190871 -3.22459e-20)
(0.978503 0.19072 -9.79121e-20)
(0.978519 0.190544 1.09219e-19)
(0.978542 0.190342 6.21348e-20)
(0.978566 0.190116 -2.72498e-20)
(0.978586 0.189864 5.13675e-20)
(0.978597 0.18959 -2.17356e-19)
(0.978594 0.189292 1.35917e-20)
(0.978576 0.188972 1.24182e-19)
(0.978541 0.188632 -2.43919e-20)
(0.978487 0.188272 -3.97999e-19)
(0.978414 0.187891 3.29137e-20)
(0.978323 0.187492 3.67347e-19)
(0.978213 0.187077 -9.80265e-20)
(0.978082 0.186656 -2.00524e-19)
(0.977936 0.186222 1.14384e-19)
(0.977784 0.185776 3.65236e-19)
(0.977645 0.185326 8.81472e-19)
(0.977492 0.184878 -1.38589e-19)
(0.977297 0.184416 1.91515e-19)
(0.977057 0.183912 -1.4524e-18)
(0.976771 0.183353 -4.54563e-19)
(0.976438 0.182728 2.94002e-19)
(0.976056 0.182022 -1.2409e-18)
(0.975627 0.181224 -3.04023e-19)
(0.975156 0.18032 6.3601e-19)
(0.974649 0.179294 4.91602e-19)
(0.974118 0.178127 1.56195e-18)
(0.973584 0.176801 5.60975e-18)
(0.973075 0.175287 -4.72811e-18)
(0.972629 0.173553 7.9061e-18)
(0.972294 0.171554 6.3584e-18)
(0.972131 0.169226 -1.02119e-20)
(0.972205 0.166497 8.94039e-18)
(0.972571 0.163292 -1.27295e-17)
(0.973265 0.159543 -1.57782e-17)
(0.974292 0.155201 1.27064e-17)
(0.975619 0.150236 1.1331e-17)
(0.977184 0.144639 -4.84852e-18)
(0.978936 0.138303 -2.89152e-17)
(0.980815 0.131387 7.08018e-18)
(0.981222 0.123189 -7.22234e-18)
(0.98432 0.111256 -1.14568e-17)
(0.987414 0.0958596 1.0286e-17)
(0.98142 0.191584 -1.9546e-21)
(0.981159 0.191665 2.15204e-21)
(0.980899 0.19171 1.51165e-20)
(0.980631 0.191755 -1.99067e-20)
(0.980354 0.191801 3.71554e-20)
(0.980074 0.191844 -5.52802e-20)
(0.979792 0.191884 1.57208e-20)
(0.979515 0.191918 -9.10757e-22)
(0.979245 0.191947 3.67529e-20)
(0.978988 0.191966 -1.94114e-20)
(0.978749 0.191975 5.92011e-21)
(0.978533 0.191971 6.37248e-21)
(0.978343 0.191953 -9.81814e-20)
(0.978182 0.191919 2.9153e-20)
(0.978051 0.191867 6.98445e-20)
(0.977948 0.191794 2.37261e-21)
(0.977874 0.1917 -1.20583e-19)
(0.977824 0.191582 4.85986e-20)
(0.977795 0.191439 2.36026e-19)
(0.97778 0.19127 -1.54171e-19)
(0.977775 0.191074 -1.19328e-19)
(0.977774 0.19085 1.02923e-19)
(0.977773 0.190599 6.63178e-20)
(0.977766 0.190322 7.64524e-20)
(0.977749 0.190018 -1.4742e-19)
(0.97772 0.189689 -3.27742e-19)
(0.977676 0.189336 2.48515e-19)
(0.977616 0.188956 3.68698e-19)
(0.977539 0.188554 1.03504e-19)
(0.977445 0.188132 -1.98081e-19)
(0.977332 0.187701 9.78243e-20)
(0.977203 0.187251 1.63539e-19)
(0.977065 0.186788 -2.91442e-19)
(0.976936 0.186315 -4.70124e-20)
(0.976794 0.185837 -5.46063e-19)
(0.976607 0.185339 -1.66486e-19)
(0.976375 0.18479 -1.48379e-19)
(0.976099 0.184178 4.17495e-19)
(0.975778 0.183489 -5.73651e-19)
(0.975414 0.182709 1.88921e-19)
(0.97501 0.181823 2.94584e-19)
(0.97457 0.180817 8.01411e-20)
(0.974104 0.179674 -2.20964e-18)
(0.973624 0.178372 -3.23454e-18)
(0.97315 0.176892 -3.08889e-18)
(0.972709 0.175206 6.29064e-18)
(0.972339 0.173284 -1.37055e-20)
(0.972083 0.171087 -2.87994e-18)
(0.972001 0.16856 1.56896e-18)
(0.972149 0.165647 -1.03194e-17)
(0.972582 0.162285 5.26311e-18)
(0.973332 0.158424 1.50298e-17)
(0.974402 0.154028 -1.18132e-18)
(0.975758 0.149072 -1.42518e-17)
(0.977337 0.143547 7.08002e-18)
(0.979105 0.137334 6.94235e-18)
(0.980943 0.13059 8.63001e-18)
(0.981339 0.122657 1.99002e-17)
(0.984468 0.11102 1.96988e-17)
(0.98829 0.0961952 -2.34062e-17)
(0.981356 0.192112 -1.55451e-21)
(0.981097 0.192195 2.27101e-21)
(0.980839 0.192239 4.99568e-22)
(0.98057 0.192283 9.07184e-21)
(0.980291 0.192329 -1.38415e-20)
(0.980005 0.192373 -2.9316e-20)
(0.979714 0.192414 1.01847e-20)
(0.979421 0.192452 -1.4744e-20)
(0.979129 0.192486 3.15144e-20)
(0.978843 0.192513 -6.62306e-21)
(0.978569 0.192532 -2.20147e-20)
(0.978311 0.192542 1.81901e-20)
(0.978073 0.192541 3.03563e-20)
(0.977859 0.192527 8.52653e-20)
(0.977671 0.192497 -1.55594e-19)
(0.97751 0.19245 8.06447e-20)
(0.977379 0.192383 1.30603e-20)
(0.977273 0.192294 -8.16667e-20)
(0.977192 0.192181 -5.20698e-20)
(0.977131 0.192041 1.71847e-19)
(0.977087 0.191876 -1.82301e-19)
(0.977054 0.19168 5.46303e-20)
(0.977027 0.191457 -1.52735e-19)
(0.977002 0.191204 2.53664e-19)
(0.976974 0.190921 -5.17374e-20)
(0.976939 0.19061 -1.4957e-19)
(0.976895 0.19027 1.19958e-19)
(0.976839 0.189898 2.32416e-19)
(0.976769 0.1895 -2.26553e-19)
(0.976685 0.189077 1.43429e-19)
(0.976584 0.188639 -4.90802e-19)
(0.976469 0.188178 -5.98991e-20)
(0.976343 0.187698 2.25374e-19)
(0.976223 0.187201 -1.31234e-19)
(0.97609 0.186691 -2.70986e-19)
(0.97591 0.186152 -6.75556e-19)
(0.975686 0.185554 8.74172e-19)
(0.975419 0.184882 -3.38485e-19)
(0.975112 0.184126 2.8139e-19)
(0.974766 0.183267 5.79238e-19)
(0.974386 0.182291 4.57437e-19)
(0.973978 0.181185 -3.31548e-19)
(0.973551 0.179928 1.23298e-18)
(0.973121 0.178499 2.43861e-18)
(0.972705 0.176879 -2.46008e-19)
(0.972331 0.175041 -3.70191e-18)
(0.972033 0.172958 -5.3124e-18)
(0.971853 0.170596 -4.5379e-19)
(0.971846 0.167909 4.26033e-18)
(0.972064 0.164852 -6.78372e-19)
(0.972556 0.161373 8.61263e-18)
(0.973352 0.157437 -1.42184e-17)
(0.974453 0.153015 -8.00234e-18)
(0.975826 0.148085 -3.12365e-18)
(0.977403 0.142637 -7.31987e-18)
(0.979171 0.136541 4.83468e-18)
(0.980959 0.129945 -6.54918e-18)
(0.981334 0.122239 -2.57464e-17)
(0.984489 0.110831 -3.04418e-17)
(0.988846 0.0964535 1.2359e-17)
(0.981293 0.192571 -2.18654e-21)
(0.981037 0.19265 1.76634e-21)
(0.980782 0.192692 1.43723e-21)
(0.980515 0.192734 -1.0578e-20)
(0.980238 0.192781 1.0973e-20)
(0.97995 0.192825 -5.59245e-21)
(0.979655 0.192868 1.84823e-20)
(0.979353 0.192909 -2.79462e-20)
(0.979049 0.192946 1.38865e-21)
(0.978745 0.192978 1.96657e-21)