/*--------------------------------*- C++ -*----------------------------------*\
  =========                 |
  \\      /  F ield         | OpenFOAM: The Open Source CFD Toolbox
   \\    /   O peration     | Website:  https://openfoam.org
    \\  /    A nd           | Version:  6.0
     \\/     M anipulation  |
\*---------------------------------------------------------------------------*/
FoamFile
{
    version     2.0;
    format      ascii;
    class       surfaceScalarField;
    location    "20";
    object      phi;
}
// * * * * * * * * * * * * * * * * * * * * * * * * * * * * * * * * * * * * * //

dimensions      [0 3 -1 0 0 0 0];

internalField   nonuniform List<scalar> 
123526
(
-5.41763e-05
2.30597e-05
5.45636e-05
-5.37576e-05
2.49372e-05
-5.33027e-05
2.6968e-05
-5.2813e-05
2.91647e-05
-5.22812e-05
3.15408e-05
-5.17084e-05
3.41113e-05
-5.10869e-05
3.68919e-05
-5.04172e-05
3.99001e-05
-4.96899e-05
4.31537e-05
-4.89052e-05
4.66738e-05
-4.80542e-05
5.04829e-05
-4.71364e-05
5.46043e-05
-4.61412e-05
5.90636e-05
-4.50652e-05
6.38864e-05
-4.38954e-05
6.91042e-05
-4.26331e-05
7.47538e-05
-4.12654e-05
8.08677e-05
-3.97819e-05
8.7477e-05
-3.81711e-05
9.46325e-05
-3.64312e-05
0.00010238
-3.45392e-05
0.000110757
-3.24875e-05
0.000119822
-3.02663e-05
0.00012964
-2.78495e-05
0.000140246
-2.52299e-05
0.000151736
-2.23889e-05
0.00016416
-1.9301e-05
0.000177596
-1.5957e-05
0.000192134
-1.23201e-05
0.00020784
-8.3829e-06
0.000224827
-4.10419e-06
0.000243167
5.31476e-07
0.000262981
5.56365e-06
0.000284356
1.10208e-05
0.000307406
1.6929e-05
0.000332243
2.33349e-05
0.000358956
3.02633e-05
0.000387673
3.77591e-05
0.00041847
4.58678e-05
0.000451431
5.46234e-05
0.00048663
6.40688e-05
0.000524092
7.42506e-05
0.000563808
8.52049e-05
0.000605723
9.69667e-05
0.000649701
0.000109569
0.000695504
0.000123038
0.000742765
0.000137392
0.000790949
0.00015264
0.000839299
0.000168766
0.000886779
0.000185741
0.000931999
0.000203487
0.000973133
0.00022189
0.00100779
0.000240804
0.00103291
0.000259962
0.00104463
0.000279085
0.00103811
0.000297686
0.00100755
0.000315267
0.000945431
0.000331089
0.000843299
0.000343995
0.000686266
0.000453043
0.000341015
-5.32794e-05
2.26776e-05
5.36606e-05
-5.28676e-05
2.4524e-05
-5.24205e-05
2.65213e-05
-5.19389e-05
2.86818e-05
-5.14164e-05
3.10189e-05
-5.08536e-05
3.35473e-05
-5.02436e-05
3.62825e-05
-4.95864e-05
3.92417e-05
-4.88734e-05
4.24416e-05
-4.81043e-05
4.59035e-05
-4.72708e-05
4.96504e-05
-4.6372e-05
5.37044e-05
-4.53979e-05
5.80907e-05
-4.43446e-05
6.2832e-05
-4.31999e-05
6.79606e-05
-4.19642e-05
7.35171e-05
-4.06256e-05
7.953e-05
-3.91728e-05
8.60233e-05
-3.75955e-05
9.30559e-05
-3.58909e-05
0.000100675
-3.40373e-05
0.000108904
-3.20261e-05
0.00011781
-2.9849e-05
0.000127463
-2.74788e-05
0.000137875
-2.49102e-05
0.000149168
-2.21229e-05
0.000161372
-1.90943e-05
0.000174568
-1.58125e-05
0.000188851
-1.2244e-05
0.000204271
-8.3789e-06
0.000220961
-4.17954e-06
0.000238966
3.71285e-07
0.000258429
5.31101e-06
0.000279417
1.06673e-05
0.000302053
1.64666e-05
0.000326446
2.27556e-05
0.000352668
2.95579e-05
0.000380871
3.69172e-05
0.000411111
4.48773e-05
0.000443472
5.34709e-05
0.000478038
6.27399e-05
0.000514826
7.27301e-05
0.00055382
8.34773e-05
0.00059498
9.50169e-05
0.000638166
0.000107382
0.000683144
0.000120602
0.000729551
0.000134695
0.000776861
0.000149672
0.000824328
0.000165516
0.000870932
0.000182199
0.000915313
0.000199643
0.000955669
0.000217734
0.00098966
0.000236331
0.00101429
0.000255165
0.00102578
0.000273964
0.00101936
0.000292246
0.00098933
0.000309474
0.000928273
0.000324991
0.000827856
0.000334998
0.000676344
0.000454556
0.000333595
-5.24709e-05
2.23033e-05
5.28445e-05
-5.20672e-05
2.41188e-05
-5.16282e-05
2.60827e-05
-5.11549e-05
2.82072e-05
-5.06408e-05
3.05054e-05
-5.00865e-05
3.29919e-05
-4.94854e-05
3.5682e-05
-4.88374e-05
3.85927e-05
-4.81343e-05
4.17394e-05
-4.73759e-05
4.51441e-05
-4.65543e-05
4.88297e-05
-4.56686e-05
5.28176e-05
-4.47091e-05
5.71325e-05
-4.36722e-05
6.1794e-05
-4.2546e-05
6.68355e-05
-4.13308e-05
7.23009e-05
-4.00151e-05
7.82153e-05
-3.85879e-05
8.45951e-05
-3.70388e-05
9.15075e-05
-3.53652e-05
9.90003e-05
-3.35457e-05
0.000107085
-3.15718e-05
0.000115835
-2.94353e-05
0.000125327
-2.71094e-05
0.000135549
-2.4589e-05
0.000146648
-2.18538e-05
0.000158636
-1.88819e-05
0.000171596
-1.56611e-05
0.00018563
-1.21594e-05
0.000200769
-8.36596e-06
0.000217167
-4.24476e-06
0.000234843
2.2198e-07
0.000253961
5.07041e-06
0.00027457
1.03277e-05
0.000296798
1.60195e-05
0.000320756
2.21915e-05
0.000346496
2.88671e-05
0.000374196
3.60888e-05
0.00040389
4.38995e-05
0.000435663
5.23312e-05
0.000469608
6.14254e-05
0.000505734
7.12275e-05
0.000544021
8.17738e-05
0.000584436
9.31002e-05
0.000626843
0.000105241
0.000671006
0.000118226
0.00071657
0.000132074
0.000763014
0.000146796
0.000809609
0.000162374
0.000855353
0.000178779
0.00089891
0.000195934
0.000938516
0.000213726
0.000971862
0.000232017
0.000996019
0.000250542
0.00100725
0.000269026
0.00100091
0.000286998
0.000971359
0.00030386
0.000911407
0.00031905
0.000812667
0.000329584
0.000665789
0.000453667
0.000330474
-5.171e-05
2.19364e-05
5.20765e-05
-5.13144e-05
2.3722e-05
-5.08845e-05
2.56534e-05
-5.04209e-05
2.77425e-05
-4.99173e-05
3.00024e-05
-4.93737e-05
3.24474e-05
-4.87839e-05
3.50927e-05
-4.81472e-05
3.79551e-05
-4.74561e-05
4.1049e-05
-4.67096e-05
4.43967e-05
-4.59007e-05
4.80215e-05
-4.5028e-05
5.19439e-05
-4.40828e-05
5.61881e-05
-4.30607e-05
6.0771e-05
-4.19511e-05
6.57267e-05
-4.07538e-05
7.11026e-05
-3.94583e-05
7.69203e-05
-3.80531e-05
8.3189e-05
-3.65288e-05
8.99838e-05
-3.48826e-05
9.73531e-05
-3.30936e-05
0.000105296
-3.11534e-05
0.000113894
-2.90541e-05
0.000123228
-2.67693e-05
0.000133263
-2.4294e-05
0.000144173
-2.16083e-05
0.00015595
-1.86906e-05
0.000168679
-1.55289e-05
0.000182469
-1.20917e-05
0.000197332
-8.36847e-06
0.000213443
-4.32388e-06
0.000230797
5.96205e-08
0.000249577
4.81771e-06
0.000269813
9.97653e-06
0.000291641
1.55615e-05
0.000315172
2.16174e-05
0.000340441
2.81674e-05
0.000367646
3.52536e-05
0.000396805
4.29181e-05
0.000427999
5.11929e-05
0.000461335
6.0119e-05
0.00049681
6.97419e-05
0.000534401
8.0098e-05
0.000574085
9.12236e-05
0.000615723
0.000103153
0.000659084
0.000115916
0.000703817
0.00012953
0.000749411
0.000144005
0.00079515
0.000159324
0.000840048
0.000175456
0.000882795
0.000192326
0.000921656
0.000209822
0.000954361
0.000227809
0.000978038
0.000246028
0.000989039
0.0002642
0.00098278
0.000281861
0.000953743
0.000298375
0.000894934
0.000313226
0.000797857
0.000324202
0.000654866
0.000451487
0.000326455
-5.09564e-05
2.15748e-05
5.13172e-05
-5.05674e-05
2.33316e-05
-5.01453e-05
2.52316e-05
-4.96906e-05
2.72866e-05
-4.91973e-05
2.95096e-05
-4.86654e-05
3.19144e-05
-4.80883e-05
3.45161e-05
-4.74655e-05
3.73313e-05
-4.6789e-05
4.03733e-05
-4.60581e-05
4.36648e-05
-4.52652e-05
4.72296e-05
-4.44095e-05
5.1087e-05
-4.34815e-05
5.52612e-05
-4.24779e-05
5.97663e-05
-4.13872e-05
6.46372e-05
-4.02104e-05
6.99247e-05
-3.89361e-05
7.5647e-05
-3.75542e-05
8.18062e-05
-3.60549e-05
8.84852e-05
-3.44359e-05
9.57333e-05
-3.26766e-05
0.000103537
-3.07692e-05
0.000111986
-2.87056e-05
0.000121165
-2.64603e-05
0.000131017
-2.40282e-05
0.000141742
-2.139e-05
0.000153311
-1.85243e-05
0.000165813
-1.54195e-05
0.000179364
-1.20447e-05
0.000193957
-8.38949e-06
0.000209787
-4.41925e-06
0.000226825
-1.16709e-07
0.000245273
4.55296e-06
0.000265144
9.61595e-06
0.000286581
1.50969e-05
0.000309693
2.10401e-05
0.000334498
2.74686e-05
0.000361218
3.4424e-05
0.00038985
4.19481e-05
0.000420476
5.00726e-05
0.000453212
5.88382e-05
0.000488046
6.829e-05
0.000524952
7.84642e-05
0.000563913
8.93967e-05
0.000604794
0.000101121
0.000647362
0.000113667
0.000691275
0.00012705
0.000736031
0.00014128
0.000780925
0.000156338
0.000824992
0.000172198
0.000866943
0.000188782
0.000905079
0.000205982
0.000937161
0.000223667
0.000960377
0.00024158
0.000971126
0.000259439
0.000964943
0.000276788
0.000936389
0.000292979
0.000878732
0.000307462
0.000783367
0.000318467
0.000643835
0.000447788
0.000322162
-5.02234e-05
2.12178e-05
5.058e-05
-4.98389e-05
2.29459e-05
-4.94221e-05
2.48152e-05
-4.89735e-05
2.68371e-05
-4.84875e-05
2.90242e-05
-4.79642e-05
3.13902e-05
-4.73974e-05
3.39498e-05
-4.67862e-05
3.67193e-05
-4.61233e-05
3.97109e-05
-4.54072e-05
4.29478e-05
-4.46309e-05
4.6454e-05
-4.37927e-05
5.02479e-05
-4.2884e-05
5.43533e-05
-4.19004e-05
5.87817e-05
-4.08313e-05
6.35689e-05
-3.96768e-05
6.87693e-05
-3.84265e-05
7.43973e-05
-3.70698e-05
8.04485e-05
-3.55975e-05
8.70134e-05
-3.40072e-05
9.41421e-05
-3.22788e-05
0.000101809
-3.04047e-05
0.000110111
-2.83771e-05
0.000119138
-2.61711e-05
0.00012881
-2.37817e-05
0.000139353
-2.119e-05
0.000150719
-1.83751e-05
0.000162998
-1.53258e-05
0.000176314
-1.20115e-05
0.000190642
-8.42238e-06
0.000206197
-4.52419e-06
0.000222925
-3.00202e-07
0.000241048
4.28421e-06
0.000260561
9.25458e-06
0.000281612
1.46355e-05
0.000304314
2.04703e-05
0.000328664
2.6782e-05
0.000354906
3.36119e-05
0.000383021
4.1001e-05
0.000413088
4.89809e-05
0.000445233
5.75917e-05
0.000479438
6.6878e-05
0.000515668
7.68752e-05
0.00055392
8.76186e-05
0.000594056
9.91413e-05
0.000635847
0.000111471
0.000678956
0.000124624
0.00072289
0.000138609
0.000766957
0.000153408
0.000810209
0.000168995
0.000851379
0.000185296
0.000888793
0.000202204
0.000920258
0.000219587
0.000943004
0.000237197
0.000953526
0.000254748
0.000947431
0.00027179
0.000919383
0.000287675
0.000862876
0.000301792
0.000769276
0.000312805
0.000632858
0.000442951
0.000317696
-4.95188e-05
2.08672e-05
4.9869e-05
-4.91403e-05
2.25662e-05
-4.87292e-05
2.44044e-05
-4.82862e-05
2.63931e-05
-4.78062e-05
2.85447e-05
-4.72892e-05
3.08724e-05
-4.67298e-05
3.33908e-05
-4.61271e-05
3.61158e-05
-4.54741e-05
3.90586e-05
-4.47696e-05
4.22424e-05
-4.40066e-05
4.56917e-05
-4.31835e-05
4.94239e-05
-4.22917e-05
5.34623e-05
-4.13269e-05
5.78159e-05
-4.02784e-05
6.25213e-05
-3.91462e-05
6.76362e-05
-3.79199e-05
7.31718e-05
-3.65891e-05
7.91168e-05
-3.51446e-05
8.55695e-05
-3.3584e-05
9.25806e-05
-3.18876e-05
0.000100113
-3.00477e-05
0.00010827
-2.8057e-05
0.000117147
-2.58907e-05
0.000126643
-2.35443e-05
0.000137006
-2.09991e-05
0.000148173
-1.82347e-05
0.000160234
-1.52401e-05
0.000173319
-1.19853e-05
0.000187387
-8.46066e-06
0.000202672
-4.63268e-06
0.000219096
-4.84818e-07
0.000236899
4.01679e-06
0.00025606
8.89783e-06
0.000276734
1.41821e-05
0.000299031
1.99125e-05
0.000322934
2.61116e-05
0.000348707
3.28201e-05
0.000376313
4.00786e-05
0.00040583
4.79182e-05
0.000437395
5.63783e-05
0.000470979
6.55027e-05
0.000506546
7.53263e-05
0.000544099
8.58833e-05
0.000583502
9.72061e-05
0.000624527
0.000109322
0.000666843
0.000122246
0.000709967
0.000135988
0.00075322
0.00015053
0.000795668
0.000165848
0.000836067
0.00018187
0.000872778
0.000198488
0.000903636
0.000215574
0.000925936
0.000232884
0.000936216
0.000250128
0.000930204
0.000266866
0.000902637
0.000282463
0.000847265
0.000296248
0.000755481
0.000307228
0.000621852
0.000437403
0.000312771
-4.88124e-05
2.05261e-05
4.91535e-05
-4.84433e-05
2.21961e-05
-4.80413e-05
2.4003e-05
-4.76071e-05
2.59582e-05
-4.71357e-05
2.80738e-05
-4.6627e-05
3.03631e-05
-4.60762e-05
3.28404e-05
-4.54822e-05
3.55212e-05
-4.4839e-05
3.84158e-05
-4.41448e-05
4.15476e-05
-4.33939e-05
4.49413e-05
-4.2584e-05
4.86132e-05
-4.17075e-05
5.25864e-05
-4.07594e-05
5.68671e-05
-3.97302e-05
6.14927e-05
-3.8619e-05
6.65241e-05
-3.7416e-05
7.19693e-05
-3.61104e-05
7.78104e-05
-3.46936e-05
8.4153e-05
-3.31626e-05
9.10488e-05
-3.14985e-05
9.84495e-05
-2.96932e-05
0.000106464
-2.77398e-05
0.000115194
-2.56137e-05
0.000124516
-2.33105e-05
0.000134704
-2.08118e-05
0.000145674
-1.80977e-05
0.00015752
-1.51573e-05
0.000170378
-1.19613e-05
0.000184191
-8.50015e-06
0.00019921
-4.74094e-06
0.000215335
-6.67537e-07
0.000232825
3.75372e-06
0.00025164
8.54775e-06
0.000271942
1.37382e-05
0.000293842
1.93671e-05
0.000317306
2.54567e-05
0.000342618
3.2047e-05
0.000369723
3.9178e-05
0.0003987
4.68803e-05
0.000429694
5.51926e-05
0.000462669
6.41578e-05
0.000497583
7.38102e-05
0.00053445
8.41832e-05
0.000573134
9.53086e-05
0.000613408
0.000107213
0.000654948
0.000119911
0.000697279
0.000133414
0.000739734
0.000147703
0.000781394
0.000162756
0.000821036
0.000178502
0.000857047
0.000194835
0.000887308
0.000211624
0.000909155
0.000228633
0.000919217
0.000245572
0.000913298
0.000262008
0.000886233
0.000277329
0.000831968
0.000290816
0.000742012
0.000301656
0.000611039
0.000431684
0.000307416
-4.80735e-05
2.01956e-05
4.84037e-05
-4.77158e-05
2.18374e-05
-4.73261e-05
2.36137e-05
-4.69044e-05
2.55357e-05
-4.64457e-05
2.76155e-05
-4.59498e-05
2.98664e-05
-4.54116e-05
3.23026e-05
-4.48304e-05
3.49393e-05
-4.41999e-05
3.77859e-05
-4.35192e-05
4.08661e-05
-4.2782e-05
4.42048e-05
-4.19871e-05
4.78174e-05
-4.11264e-05
5.17266e-05
-4.0196e-05
5.59358e-05
-3.91858e-05
6.04833e-05
-3.80955e-05
6.5433e-05
-3.69154e-05
7.07898e-05
-3.56349e-05
7.65291e-05
-3.42453e-05
8.2764e-05
-3.27439e-05
8.95466e-05
-3.11117e-05
9.68177e-05
-2.93411e-05
0.000104692
-2.74248e-05
0.000113278
-2.53388e-05
0.000122429
-2.30787e-05
0.000132444
-2.06264e-05
0.000143221
-1.79622e-05
0.000154856
-1.50756e-05
0.000167492
-1.19376e-05
0.000181053
-8.53895e-06
0.000195811
-4.8473e-06
0.000211642
-8.46706e-07
0.000228823
3.49574e-06
0.000247299
8.20487e-06
0.000267235
1.33036e-05
0.000288745
1.88333e-05
0.000311776
2.48157e-05
0.000336636
3.12901e-05
0.000363249
3.82961e-05
0.000391695
4.58634e-05
0.000422128
5.40302e-05
0.000454503
6.28386e-05
0.000488776
7.23222e-05
0.000524968
8.25138e-05
0.000562944
9.34446e-05
0.000602478
0.000105141
0.000643254
0.000117618
0.000684803
0.000130885
0.000726469
0.000144926
0.000767353
0.000159719
0.000806248
0.000175193
0.000841576
0.000191242
0.000871252
0.000207736
0.000892671
0.000224445
0.000902508
0.000241078
0.000896678
0.00025721
0.000870093
0.000272259
0.000816905
0.000285481
0.000728778
0.000296126
0.000600372
0.000425793
0.00030201
-4.73077e-05
1.98738e-05
4.76294e-05
-4.69604e-05
2.14892e-05
-4.65827e-05
2.32364e-05
-4.61743e-05
2.51266e-05
-4.573e-05
2.71718e-05
-4.52492e-05
2.93851e-05
-4.47268e-05
3.17806e-05
-4.41617e-05
3.43736e-05
-4.35479e-05
3.71726e-05
-4.28839e-05
4.02015e-05
-4.21642e-05
4.34856e-05
-4.13869e-05
4.70395e-05
-4.0545e-05
5.08853e-05
-3.96339e-05
5.5024e-05
-3.86446e-05
5.94945e-05
-3.75762e-05
6.43639e-05
-3.64199e-05
6.96339e-05
-3.51647e-05
7.52732e-05
-3.38026e-05
8.14022e-05
-3.23306e-05
8.80738e-05
-3.07302e-05
9.52176e-05
-2.89937e-05
0.000102955
-2.71141e-05
0.000111399
-2.50677e-05
0.000120382
-2.28501e-05
0.000130226
-2.04435e-05
0.000140814
-1.78285e-05
0.000152241
-1.49948e-05
0.000164658
-1.19139e-05
0.000177972
-8.57669e-06
0.000192473
-4.95137e-06
0.000208015
-1.02231e-06
0.000224893
3.24306e-06
0.000243034
7.86881e-06
0.000262611
1.28776e-05
0.000283737
1.83099e-05
0.000306344
2.41871e-05
0.000330759
3.05477e-05
0.000356888
3.74306e-05
0.000384812
4.4865e-05
0.000414694
5.28886e-05
0.000446481
6.15426e-05
0.000480124
7.08599e-05
0.000515654
8.08731e-05
0.000552935
9.16128e-05
0.000591745
0.000103105
0.000631771
0.000115365
0.000672553
0.000128402
0.000713447
0.0001422
0.000753568
0.000156739
0.000791731
0.000171945
0.000826384
0.000187713
0.000855487
0.000203914
0.000876477
0.000220322
0.000886112
0.000236649
0.00088038
0.000252479
0.000854291
0.00026726
0.000802143
0.000280239
0.000715811
0.000290724
0.000589907
0.000419688
0.000296865
-4.65551e-05
1.95568e-05
4.68721e-05
-4.62144e-05
2.11476e-05
-4.58453e-05
2.28676e-05
-4.54472e-05
2.47279e-05
-4.50152e-05
2.67402e-05
-4.45482e-05
2.89175e-05
-4.4041e-05
3.12738e-05
-4.34922e-05
3.38243e-05
-4.28956e-05
3.65765e-05
-4.22496e-05
3.9555e-05
-4.15486e-05
4.27852e-05
-4.07907e-05
4.62809e-05
-3.99689e-05
5.0064e-05
-3.90787e-05
5.41331e-05
-3.81112e-05
5.85277e-05
-3.70658e-05
6.33178e-05
-3.59336e-05
6.85021e-05
-3.47041e-05
7.4043e-05
-3.33694e-05
8.00679e-05
-3.19265e-05
8.66302e-05
-3.03574e-05
9.36488e-05
-2.86545e-05
0.000101251
-2.68108e-05
0.000109555
-2.4803e-05
0.000118373
-2.2627e-05
0.00012805
-2.0265e-05
0.000138451
-1.76982e-05
0.000149674
-1.49162e-05
0.000161875
-1.18911e-05
0.000174946
-8.61406e-06
0.000189196
-5.05367e-06
0.000204453
-1.1946e-06
0.000221033
2.99505e-06
0.000238846
7.53911e-06
0.000258069
1.24596e-05
0.000278818
1.77963e-05
0.000301008
2.357e-05
0.000324985
2.98188e-05
0.00035064
3.65807e-05
0.000378051
4.38845e-05
0.000407391
5.17672e-05
0.0004386
6.02694e-05
0.000471623
6.94236e-05
0.000506501
7.92617e-05
0.000543098
8.9814e-05
0.000581193
0.000101106
0.000620479
0.000113154
0.000660505
0.000125966
0.000700637
0.000139527
0.000740006
0.000153815
0.000777447
0.000168757
0.000811442
0.000184249
0.000839985
0.00020016
0.000860571
0.000216269
0.000870001
0.000232294
0.000864366
0.000247825
0.000838752
0.000262338
0.000787615
0.000275093
0.000703042
0.00028548
0.000579501
0.000413141
0.000292017
-4.58612e-05
1.92411e-05
4.61771e-05
-4.55229e-05
2.08084e-05
-4.51576e-05
2.25028e-05
-4.47652e-05
2.43348e-05
-4.43406e-05
2.63161e-05
-4.38829e-05
2.84593e-05
-4.33869e-05
3.07782e-05
-4.28509e-05
3.32879e-05
-4.22688e-05
3.59949e-05
-4.16385e-05
3.89242e-05
-4.09546e-05
4.21017e-05
-4.02147e-05
4.55404e-05
-3.94121e-05
4.92619e-05
-3.85419e-05
5.32623e-05
-3.75957e-05
5.75819e-05
-3.65725e-05
6.2294e-05
-3.54639e-05
6.73938e-05
-3.42593e-05
7.28377e-05
-3.29512e-05
7.876e-05
-3.15365e-05
8.52147e-05
-2.99976e-05
9.21102e-05
-2.8327e-05
9.95799e-05
-2.6518e-05
0.000107746
-2.45476e-05
0.000116402
-2.24117e-05
0.000125915
-2.0093e-05
0.000136132
-1.75728e-05
0.000147154
-1.48411e-05
0.000159143
-1.18704e-05
0.000171975
-8.65195e-06
0.000185977
-5.15498e-06
0.000200955
-1.3644e-06
0.000217242
2.75123e-06
0.000234731
7.21515e-06
0.000253607
1.20491e-05
0.000273985
1.72919e-05
0.000295765
2.29642e-05
0.000319313
2.91032e-05
0.000344501
3.57462e-05
0.000371408
4.29218e-05
0.000400217
5.06662e-05
0.000430857
5.90194e-05
0.000463272
6.80134e-05
0.00049751
7.76798e-05
0.000533435
8.80485e-05
0.00057083
9.9145e-05
0.000609391
0.000110985
0.000648674
0.000123576
0.000688059
0.000136904
0.00072669
0.000150946
0.000763426
0.000165628
0.000796773
0.000180847
0.000824769
0.000196471
0.000844954
0.000212285
0.0008542
0.000228013
0.000848666
0.000243251
0.000823541
0.000257501
0.000773381
0.000270045
0.000690508
0.000280363
0.000569202
0.000406231
0.000287309
-4.52522e-05
1.89245e-05
4.55689e-05
-4.49134e-05
2.04688e-05
-4.45483e-05
2.21381e-05
-4.4157e-05
2.3943e-05
-4.37351e-05
2.58946e-05
-4.32816e-05
2.80053e-05
-4.27915e-05
3.02886e-05
-4.22633e-05
3.27592e-05
-4.16909e-05
3.54229e-05
-4.1072e-05
3.83049e-05
-4.04011e-05
4.14313e-05
-3.96757e-05
4.48145e-05
-3.88889e-05
4.84757e-05
-3.80361e-05
5.24089e-05
-3.71086e-05
5.6655e-05
-3.61055e-05
6.12902e-05
-3.50183e-05
6.6307e-05
-3.38367e-05
7.16555e-05
-3.25533e-05
7.74769e-05
-3.1165e-05
8.38257e-05
-2.96546e-05
9.06e-05
-2.80146e-05
9.79392e-05
-2.62385e-05
0.000105971
-2.43038e-05
0.000114467
-2.22063e-05
0.000123817
-1.99291e-05
0.000133854
-1.74539e-05
0.000144679
-1.47708e-05
0.00015646
-1.18528e-05
0.000169057
-8.69132e-06
0.000182814
-5.25604e-06
0.000197518
-1.53224e-06
0.000213517
2.51098e-06
0.000230689
6.89653e-06
0.000249223
1.16456e-05
0.000269238
1.67966e-05
0.000290615
2.23694e-05
0.00031374
2.84007e-05
0.00033847
3.49273e-05
0.000364882
4.19771e-05
0.000393168
4.95859e-05
0.000423249
5.77929e-05
0.000455066
6.66299e-05
0.000488673
7.61278e-05
0.000523938
8.63164e-05
0.000560641
9.72206e-05
0.000598487
0.000108856
0.000637039
0.00012123
0.000675686
0.000134328
0.000713591
0.000148126
0.000749631
0.000162552
0.000782347
0.0001775
0.000809809
0.000192841
0.000829612
0.000208365
0.000838674
0.000223802
0.000833239
0.000238755
0.000808581
0.00025275
0.000759373
0.000265092
0.000678151
0.000275322
0.000558955
0.000398968
0.00028257
-4.47289e-05
1.86073e-05
4.50463e-05
-4.43889e-05
2.0128e-05
-4.40226e-05
2.17722e-05
-4.36303e-05
2.35502e-05
-4.32079e-05
2.54727e-05
-4.27548e-05
2.75518e-05
-4.22665e-05
2.98006e-05
-4.17414e-05
3.22337e-05
-4.11738e-05
3.48557e-05
-4.05615e-05
3.76921e-05
-3.9899e-05
4.07692e-05
-3.91836e-05
4.40986e-05
-3.84088e-05
4.77014e-05
-3.75695e-05
5.1569e-05
-3.66573e-05
5.57432e-05
-3.56709e-05
6.03033e-05
-3.46022e-05
6.52386e-05
-3.34409e-05
7.04935e-05
-3.21795e-05
7.62158e-05
-3.08153e-05
8.24607e-05
-2.9331e-05
8.9116e-05
-2.77194e-05
9.63268e-05
-2.59742e-05
0.000104225
-2.4073e-05
0.000112565
-2.2012e-05
0.000121757
-1.97745e-05
0.000131616
-1.73424e-05
0.000142247
-1.4706e-05
0.000153823
-1.1839e-05
0.00016619
-8.73262e-06
0.000179708
-5.35736e-06
0.000194141
-1.6986e-06
0.000209858
2.274e-06
0.000226717
6.58291e-06
0.000244916
1.12491e-05
0.000264573
1.631e-05
0.000285554
2.17855e-05
0.000308264
2.77113e-05
0.000332544
3.41238e-05
0.00035847
4.10503e-05
0.000386242
4.8526e-05
0.000415774
5.65896e-05
0.000447004
6.52723e-05
0.000479993
7.46046e-05
0.000514609
8.46158e-05
0.000550635
9.53306e-05
0.000587779
0.000106764
0.000625614
0.000118923
0.000663538
0.000131793
0.000700732
0.00014535
0.000736094
0.000159521
0.000768189
0.000174201
0.000795131
0.000189264
0.000814557
0.000204503
0.000823449
0.000219655
0.000818115
0.000234333
0.000793929
0.000248081
0.000745641
0.000260226
0.000666015
0.000270326
0.000548871
0.000391619
0.000277711
-4.42726e-05
1.8291e-05
4.4589e-05
-4.39327e-05
1.97874e-05
-4.35658e-05
2.14058e-05
-4.31725e-05
2.31564e-05
-4.27491e-05
2.50496e-05
-4.2295e-05
2.70974e-05
-4.18064e-05
2.93124e-05
-4.12819e-05
3.17088e-05
-4.0716e-05
3.42903e-05
-4.01067e-05
3.70825e-05
-3.94489e-05
4.01118e-05
-3.87399e-05
4.33892e-05
-3.79731e-05
4.69351e-05
-3.71436e-05
5.07389e-05
-3.62431e-05
5.48431e-05
-3.52703e-05
5.93298e-05
-3.42169e-05
6.41857e-05
-3.30729e-05
6.93489e-05
-3.18309e-05
7.4974e-05
-3.04881e-05
8.11171e-05
-2.90275e-05
8.76556e-05
-2.7442e-05
9.47406e-05
-2.57254e-05
0.000102509
-2.38557e-05
0.000110694
-2.18292e-05
0.00011973
-1.96293e-05
0.000129416
-1.72385e-05
0.000139856
-1.46471e-05
0.000151232
-1.1829e-05
0.000163372
-8.77616e-06
0.000176654
-5.45906e-06
0.000190823
-1.86363e-06
0.000206261
2.04006e-06
0.000222814
6.27415e-06
0.000240684
1.08592e-05
0.000259989
1.58321e-05
0.000280581
2.12122e-05
0.000302884
2.70347e-05
0.000326721
3.33353e-05
0.00035217
4.01409e-05
0.000379436
4.7486e-05
0.000408429
5.54087e-05
0.000439081
6.39396e-05
0.000471463
7.31089e-05
0.00050544
8.29452e-05
0.000540799
9.34726e-05
0.000577252
0.000104705
0.000614379
0.000116652
0.000651593
0.000129295
0.000688087
0.000142612
0.00072278
0.000156529
0.00075427
0.000170945
0.000780703
0.000185732
0.000799766
0.000200692
0.000808486
0.000215567
0.000803246
0.00022998
0.000779509
0.00024349
0.000732116
0.000255443
0.000654045
0.00026537
0.000538926
0.000384228
0.00027274
-4.38567e-05
1.79781e-05
4.41697e-05
-4.35193e-05
1.94493e-05
-4.31542e-05
2.10411e-05
-4.27618e-05
2.27635e-05
-4.23386e-05
2.46269e-05
-4.18846e-05
2.66429e-05
-4.13957e-05
2.8824e-05
-4.08713e-05
3.1184e-05
-4.0306e-05
3.37255e-05
-3.96983e-05
3.64743e-05
-3.9043e-05
3.9457e-05
-3.83379e-05
4.26836e-05
-3.75766e-05
4.61743e-05
-3.67543e-05
4.9916e-05
-3.58627e-05
5.3952e-05
-3.49007e-05
5.83672e-05
-3.38601e-05
6.31454e-05
-3.27309e-05
6.8219e-05
-3.15058e-05
7.37492e-05
-3.0182e-05
7.97926e-05
-2.87429e-05
8.62167e-05
-2.71814e-05
9.31784e-05
-2.54913e-05
0.000100819
-2.36512e-05
0.000108853
-2.16572e-05
0.000117736
-1.94932e-05
0.000127251
-1.71418e-05
0.000137505
-1.45935e-05
0.000148683
-1.18229e-05
0.000160601
-8.8217e-06
0.000173652
-5.56119e-06
0.000187561
-2.02734e-06
0.000202727
1.80914e-06
0.000218979
5.97012e-06
0.000236525
1.04758e-05
0.000255484
1.53626e-05
0.000275695
2.06492e-05
0.000297597
2.63705e-05
0.000321
3.25612e-05
0.000345979
3.9248e-05
0.00037275
4.64646e-05
0.000401213
5.42487e-05
0.000431299
6.263e-05
0.000463083
7.16384e-05
0.000496435
8.13017e-05
0.000531139
9.16437e-05
0.000566915
0.000102678
0.000603352
0.000114412
0.00063987
0.000126831
0.000675679
0.000139909
0.000709721
0.000153574
0.000740616
0.000167727
0.000766553
0.000182244
0.000785257
0.00019693
0.000793816
0.000211536
0.000788667
0.000225694
0.000765377
0.000238974
0.000718849
0.000250741
0.000642285
0.000260471
0.000529211
0.000377014
0.000267719
-4.34553e-05
1.76707e-05
4.37632e-05
-4.31228e-05
1.9116e-05
-4.27618e-05
2.06806e-05
-4.23728e-05
2.23741e-05
-4.19524e-05
2.4207e-05
-4.15004e-05
2.61906e-05
-4.10132e-05
2.83373e-05
-4.04901e-05
3.06606e-05
-3.99265e-05
3.31622e-05
-3.93204e-05
3.5868e-05
-3.86678e-05
3.88048e-05
-3.7966e-05
4.19815e-05
-3.72093e-05
4.5418e-05
-3.63928e-05
4.90991e-05
-3.55089e-05
5.30685e-05
-3.4556e-05
5.74138e-05
-3.35265e-05
6.21161e-05
-3.24103e-05
6.71022e-05
-3.12005e-05
7.25395e-05
-2.98939e-05
7.84854e-05
-2.84746e-05
8.47975e-05
-2.69354e-05
9.16384e-05
-2.52702e-05
9.91542e-05
-2.34579e-05
0.00010704
-2.14949e-05
0.000115774
-1.93651e-05
0.000125121
-1.70515e-05
0.000135191
-1.45449e-05
0.000146176
-1.18201e-05
0.000157876
-8.86904e-06
0.000170701
-5.66341e-06
0.000184354
-2.18963e-06
0.000199252
1.58126e-06
0.000215208
5.67074e-06
0.000232437
1.00988e-05
0.000251057
1.49011e-05
0.000270892
2.00961e-05
0.000292402
2.57179e-05
0.000315378
3.18007e-05
0.000339896
3.83706e-05
0.00036618
4.54608e-05
0.000394124
5.31082e-05
0.000423651
6.1342e-05
0.000454849
7.01914e-05
0.000487585
7.96836e-05
0.000521646
8.98418e-05
0.000556757
0.000100679
0.000592513
0.000112203
0.000628346
0.000124398
0.000663483
0.000137239
0.000696883
0.000150655
0.000727197
0.000164549
0.000752645
0.0001788
0.000770999
0.000193219
0.000779392
0.000207564
0.000774326
0.000221474
0.00075146
0.000234534
0.000705773
0.00024612
0.00063068
0.00025565
0.000519664
0.000369907
0.000262727
-4.305e-05
1.73701e-05
4.33508e-05
-4.27241e-05
1.87896e-05
-4.23696e-05
2.03265e-05
-4.19866e-05
2.19906e-05
-4.15716e-05
2.37923e-05
-4.11244e-05
2.57429e-05
-4.06415e-05
2.78547e-05
-4.01222e-05
3.01409e-05
-3.95619e-05
3.26024e-05
-3.89595e-05
3.52651e-05
-3.83103e-05
3.81561e-05
-3.76128e-05
4.12834e-05
-3.68609e-05
4.46666e-05
-3.60504e-05
4.8288e-05
-3.51735e-05
5.2192e-05
-3.42294e-05
5.6469e-05
-3.321e-05
6.10971e-05
-3.2106e-05
6.59976e-05
-3.09102e-05
7.1344e-05
-2.96199e-05
7.71944e-05
-2.82191e-05
8.33969e-05
-2.6701e-05
9.01195e-05
-2.50594e-05
9.75128e-05
-2.32738e-05
0.000105254
-2.13404e-05
0.00011384
-1.92435e-05
0.000123023
-1.69665e-05
0.000132914
-1.45002e-05
0.00014371
-1.18198e-05
0.000155195
-8.9175e-06
0.000167798
-5.76551e-06
0.000181201
-2.35027e-06
0.000195836
1.35646e-06
0.000211503
5.37596e-06
0.00022842
9.7279e-06
0.000246706
1.44473e-05
0.000266173
1.95523e-05
0.000287297
2.50762e-05
0.000309854
3.10528e-05
0.00033392
3.75076e-05
0.000359726
4.44731e-05
0.000387158
5.19856e-05
0.00041614
6.00737e-05
0.000446763
6.87658e-05
0.000478895
7.80888e-05
0.000512326
8.80651e-05
0.000546785
9.87076e-05
0.000581876
0.000110023
0.000617041
0.000121996
0.00065152
0.000134602
0.000684294
0.000147773
0.000714038
0.000161412
0.000739008
0.000175403
0.000757016
0.000189562
0.000765248
0.000203653
0.000760261
0.000217324
0.000737812
0.00023017
0.000692937
0.000241582
0.000619271
0.000250926
0.000510331
0.000363031
0.000257828
-4.26288e-05
1.70773e-05
4.2922e-05
-4.2311e-05
1.84711e-05
-4.19644e-05
1.99804e-05
-4.15893e-05
2.16151e-05
-4.11819e-05
2.33854e-05
-4.07419e-05
2.53027e-05
-4.02658e-05
2.7379e-05
-3.97527e-05
2.96276e-05
-3.91985e-05
3.20486e-05
-3.86017e-05
3.4668e-05
-3.79583e-05
3.75131e-05
-3.72665e-05
4.05912e-05
-3.65209e-05
4.39214e-05
-3.57172e-05
4.74839e-05
-3.48483e-05
5.13235e-05
-3.39131e-05
5.55332e-05
-3.29041e-05
6.00885e-05
-3.1812e-05
6.49049e-05
-3.06301e-05
7.01623e-05
-2.93556e-05
7.59192e-05
-2.79728e-05
8.20144e-05
-2.6475e-05
8.86211e-05
-2.48564e-05
9.58945e-05
-2.30966e-05
0.000103494
-2.11919e-05
0.000111936
-1.91271e-05
0.000120958
-1.68856e-05
0.000130673
-1.44584e-05
0.000141282
-1.18214e-05
0.000152558
-8.96673e-06
0.000164943
-5.86696e-06
0.0001781
-2.5091e-06
0.000192478
1.13483e-06
0.000207859
5.08567e-06
0.00022447
9.36286e-06
0.00024243
1.40008e-05
0.000261535
1.90171e-05
0.00028228
2.44448e-05
0.000304426
3.03167e-05
0.000328048
3.66579e-05
0.000353385
4.35004e-05
0.000380316
5.08797e-05
0.00040876
5.88238e-05
0.000438818
6.73605e-05
0.000470358
7.65162e-05
0.00050317
8.63126e-05
0.000536989
9.67623e-05
0.000571425
0.000107871
0.000605932
0.000119626
0.000639764
0.000132001
0.000671922
0.00014493
0.000701106
0.00015832
0.000725603
0.000172057
0.000743269
0.000185963
0.000751336
0.000199807
0.000746418
0.000213247
0.000724363
0.000225886
0.000680281
0.00023713
0.000608005
0.000246311
0.00050113
0.000356242
0.000253062
-4.21866e-05
1.67925e-05
4.24715e-05
-4.18772e-05
1.81611e-05
-4.15397e-05
1.96432e-05
-4.11738e-05
2.12486e-05
-4.07757e-05
2.29876e-05
-4.03449e-05
2.48713e-05
-3.98776e-05
2.6912e-05
-3.93733e-05
2.91228e-05
-3.88272e-05
3.15029e-05
-3.82387e-05
3.40788e-05
-3.76029e-05
3.68779e-05
-3.69192e-05
3.99068e-05
-3.61813e-05
4.31842e-05
-3.53863e-05
4.66882e-05
-3.45262e-05
5.04641e-05
-3.36011e-05
5.46074e-05
-3.2603e-05
5.9091e-05
-3.15236e-05
6.38249e-05
-3.03556e-05
6.89948e-05
-2.9097e-05
7.466e-05
-2.77321e-05
8.06498e-05
-2.62546e-05
8.71429e-05
-2.46585e-05
9.42987e-05
-2.2924e-05
0.000101758
-2.10476e-05
0.00011006
-1.9014e-05
0.000118924
-1.68073e-05
0.000128466
-1.44186e-05
0.000138893
-1.1824e-05
0.000149963
-9.01591e-06
0.000162134
-5.96753e-06
0.000175051
-2.66581e-06
0.000189175
9.16403e-07
0.000204278
4.79981e-06
0.000220588
9.00348e-06
0.000238227
1.35611e-05
0.000256978
1.84902e-05
0.000277351
2.38229e-05
0.000299093
2.95915e-05
0.000322279
3.58206e-05
0.000347156
4.25416e-05
0.000373595
4.97893e-05
0.000401513
5.75911e-05
0.000431017
6.59745e-05
0.000461976
7.49649e-05
0.000494182
8.45837e-05
0.000527373
9.48433e-05
0.000561169
0.00010575
0.000595033
0.000117289
0.000628233
0.000129437
0.000659789
0.00014213
0.000688423
0.000155277
0.000712458
0.000168767
0.000729785
0.000182427
0.00073769
0.000196032
0.000732835
0.000209247
0.000711166
0.000221684
0.00066785