/*--------------------------------*- C++ -*----------------------------------*\
  =========                 |
  \\      /  F ield         | OpenFOAM: The Open Source CFD Toolbox
   \\    /   O peration     | Website:  https://openfoam.org
    \\  /    A nd           | Version:  6.0
     \\/     M anipulation  |
\*---------------------------------------------------------------------------*/
FoamFile
{
    version     2.0;
    format      ascii;
    class       volVectorField;
    location    "20";
    object      U;
}
// * * * * * * * * * * * * * * * * * * * * * * * * * * * * * * * * * * * * * //

dimensions      [0 1 -1 0 0 0 0];

internalField   nonuniform List<vector> 
62000
(
(0.984757 0.173889 -2.63219e-21)
(0.984762 0.173894 2.2099e-21)
(0.984766 0.173896 2.31234e-21)
(0.984768 0.173899 -1.02982e-20)
(0.98477 0.173902 -1.20096e-20)
(0.98477 0.173906 4.19147e-20)
(0.984769 0.173911 -4.68594e-20)
(0.984767 0.173916 2.76247e-20)
(0.984765 0.173922 -1.32227e-20)
(0.984762 0.173929 -6.88888e-20)
(0.98476 0.173935 -9.46559e-21)
(0.984757 0.173942 9.92073e-20)
(0.984755 0.173949 2.08125e-20)
(0.984753 0.173956 -7.37088e-20)
(0.984752 0.173962 1.17318e-19)
(0.98475 0.173968 -6.30563e-20)
(0.984749 0.173974 6.72407e-20)
(0.984748 0.17398 -7.97676e-20)
(0.984748 0.173985 4.04744e-20)
(0.984748 0.17399 -1.27298e-19)
(0.984748 0.173994 1.68936e-19)
(0.984748 0.173999 5.20438e-20)
(0.984748 0.174003 7.70566e-20)
(0.984748 0.174006 -3.48591e-19)
(0.984749 0.174009 1.29995e-19)
(0.984749 0.174012 -8.31919e-20)
(0.984749 0.174014 -2.17513e-21)
(0.984749 0.174015 -7.11661e-20)
(0.984749 0.174015 2.20904e-19)
(0.984748 0.174013 -1.27704e-19)
(0.984747 0.17401 3.12799e-19)
(0.984745 0.174005 -6.5836e-19)
(0.984742 0.173999 6.0825e-20)
(0.984736 0.17399 -2.24422e-19)
(0.984729 0.173979 -7.35505e-20)
(0.984718 0.173964 -2.29023e-19)
(0.984705 0.173944 -7.20552e-20)
(0.984686 0.173918 -7.56931e-20)
(0.984663 0.173888 2.23924e-19)
(0.984631 0.17385 1.06232e-18)
(0.984591 0.173806 -2.58526e-19)
(0.984539 0.173754 -1.50598e-18)
(0.984472 0.173693 -2.4177e-18)
(0.984388 0.173621 1.32934e-18)
(0.984281 0.173533 4.00538e-19)
(0.984148 0.173424 -1.94887e-18)
(0.983982 0.173281 4.54343e-19)
(0.983782 0.173091 -8.35019e-19)
(0.983542 0.172832 -3.99172e-18)
(0.983264 0.172479 -9.51886e-19)
(0.982947 0.172006 -5.00324e-19)
(0.982596 0.171375 -6.7146e-18)
(0.982233 0.170543 9.42129e-19)
(0.981874 0.169469 7.93981e-18)
(0.981549 0.168078 2.10797e-18)
(0.981312 0.166304 7.23577e-18)
(0.981215 0.163916 -8.41032e-19)
(0.981266 0.160799 -1.35571e-18)
(0.981884 0.154774 3.10791e-18)
(0.964848 0.140021 6.0365e-19)
(0.984727 0.174132 -7.02906e-22)
(0.984742 0.174147 6.82245e-21)
(0.984757 0.174158 2.90545e-21)
(0.984772 0.174167 -1.24777e-20)
(0.984785 0.174177 5.26849e-21)
(0.984796 0.174187 -3.71025e-20)
(0.984805 0.174198 3.43612e-20)
(0.98481 0.17421 2.0371e-20)
(0.984813 0.174223 -3.86258e-20)
(0.984813 0.174238 1.57414e-21)
(0.984811 0.174253 3.88293e-20)
(0.984807 0.17427 2.74498e-22)
(0.9848 0.174287 1.18036e-20)
(0.984793 0.174305 -1.0135e-19)
(0.984784 0.174323 2.07568e-19)
(0.984775 0.17434 -1.86328e-19)
(0.984766 0.174358 8.92954e-20)
(0.984757 0.174374 -1.89254e-20)
(0.984749 0.17439 -5.3487e-20)
(0.984741 0.174405 1.51513e-19)
(0.984733 0.174419 -2.43228e-19)
(0.984726 0.174433 1.44113e-19)
(0.984719 0.174445 -1.88528e-19)
(0.984713 0.174457 1.13379e-19)
(0.984708 0.174467 1.08782e-19)
(0.984702 0.174476 -7.29509e-20)
(0.984696 0.174484 -1.44629e-21)
(0.98469 0.17449 8.37733e-20)
(0.984683 0.174493 7.29008e-20)
(0.984676 0.174491 -1.56866e-19)
(0.984668 0.174485 3.24028e-19)
(0.984661 0.174476 6.97954e-20)
(0.984652 0.174467 2.16024e-19)
(0.984637 0.17446 1.78841e-20)
(0.984615 0.17445 6.23616e-20)
(0.984589 0.174429 -6.69392e-20)
(0.984559 0.174398 -2.10452e-19)
(0.984524 0.174359 -1.02662e-19)
(0.984479 0.174315 -5.99342e-19)
(0.984422 0.174268 -7.00711e-19)
(0.984348 0.174215 5.51911e-19)
(0.984252 0.174156 3.32059e-19)
(0.98413 0.174086 2.53792e-18)
(0.983973 0.173998 1.52184e-19)
(0.983776 0.173879 -4.02062e-18)
(0.983529 0.173711 1.62416e-18)
(0.983226 0.173469 1.38391e-18)
(0.982863 0.173119 1.65373e-18)
(0.982434 0.172626 3.70955e-19)
(0.981944 0.171953 7.635e-20)
(0.981392 0.171052 3.00338e-18)
(0.980793 0.169867 8.35794e-18)
(0.980204 0.168344 -5.7802e-18)
(0.979648 0.166435 -1.42569e-17)
(0.979185 0.164044 -3.49954e-18)
(0.978879 0.161115 -2.4306e-18)
(0.978873 0.157301 -5.69185e-18)
(0.978799 0.152724 -2.83882e-18)
(0.980503 0.144531 4.61339e-18)
(0.959388 0.127361 1.86894e-18)
(0.984722 0.174681 -3.38947e-21)
(0.984724 0.17469 -5.01203e-22)
(0.98473 0.174701 5.23813e-22)
(0.984741 0.174706 2.48672e-21)
(0.984755 0.174712 7.19889e-21)
(0.984771 0.174717 -6.89725e-21)
(0.984788 0.174721 3.76113e-20)
(0.984805 0.174725 -1.80037e-20)
(0.984821 0.17473 -9.85966e-21)
(0.984833 0.174736 -6.23007e-20)
(0.984843 0.174743 5.31598e-20)
(0.984849 0.174751 3.99912e-21)
(0.984851 0.174761 -1.27075e-20)
(0.984849 0.174772 3.43534e-20)
(0.984844 0.174783 -5.9812e-20)
(0.984836 0.174795 1.76193e-22)
(0.984825 0.174808 -2.88981e-20)
(0.984813 0.174822 7.37389e-24)
(0.984799 0.174835 6.91388e-20)
(0.984784 0.174849 -1.07875e-19)
(0.984769 0.174863 6.83056e-20)
(0.984753 0.174876 2.74914e-19)
(0.984737 0.17489 -3.43034e-20)
(0.984721 0.174903 -3.98591e-19)
(0.984705 0.174916 2.08571e-19)
(0.984688 0.174927 -1.17831e-19)
(0.984671 0.174937 1.95549e-19)
(0.984653 0.174945 -1.19944e-19)
(0.984634 0.174949 -2.48038e-19)
(0.984614 0.174948 2.72517e-19)
(0.984595 0.174939 -1.97542e-19)
(0.984577 0.174927 2.72332e-19)
(0.984559 0.174916 -7.65118e-19)
(0.984536 0.17491 6.80499e-19)
(0.984504 0.174902 -3.63113e-19)
(0.984468 0.174882 1.47852e-19)
(0.984433 0.174849 1.12699e-19)
(0.984396 0.174812 -1.08243e-20)
(0.984352 0.174774 -3.49967e-20)
(0.984298 0.174738 7.21517e-19)
(0.984231 0.174702 -2.89252e-19)
(0.984146 0.174665 4.55525e-19)
(0.984039 0.17462 -1.63642e-18)
(0.983903 0.174559 -8.1453e-19)
(0.983734 0.174465 8.96123e-19)
(0.983525 0.174318 -3.09998e-18)
(0.983273 0.174091 4.26665e-19)
(0.982977 0.173754 -2.77297e-18)
(0.982633 0.173277 3.96545e-18)
(0.982243 0.172635 1.05513e-18)
(0.981806 0.171783 5.21458e-19)
(0.981329 0.170671 -2.10312e-19)
(0.980883 0.169253 2.4103e-18)
(0.980481 0.167496 5.4559e-19)
(0.980174 0.165333 -4.9945e-18)
(0.979989 0.162776 -2.92567e-18)
(0.980133 0.159549 -1.96925e-18)
(0.979737 0.155962 -6.58988e-18)
(0.981919 0.150646 -5.40803e-19)
(0.965922 0.142734 6.43614e-19)
(0.984748 0.175373 -3.36131e-21)
(0.984734 0.175375 1.03879e-20)
(0.984721 0.175384 -1.57822e-21)
(0.984711 0.175389 -1.09425e-20)
(0.984706 0.175393 1.67e-20)
(0.984707 0.175397 2.92737e-20)
(0.984712 0.1754 -3.84105e-20)
(0.984723 0.175401 4.24731e-21)
(0.984736 0.175402 1.37844e-20)
(0.984752 0.175401 2.9159e-20)
(0.984768 0.1754 -5.42159e-20)
(0.984784 0.175399 -1.71033e-20)
(0.984797 0.175399 -1.94983e-20)
(0.984807 0.175398 8.93896e-20)
(0.984813 0.175398 -6.05587e-20)
(0.984815 0.175398 1.4438e-19)
(0.984814 0.175399 -1.7731e-19)
(0.984808 0.175401 -2.70341e-20)
(0.984799 0.175403 1.94065e-19)
(0.984787 0.175407 -6.83746e-20)
(0.984772 0.175412 -2.55272e-20)
(0.984754 0.175417 -2.80727e-20)
(0.984735 0.175424 -2.62017e-19)
(0.984713 0.175432 1.51274e-19)
(0.98469 0.17544 -7.22193e-20)
(0.984665 0.175448 1.16344e-19)
(0.984638 0.175456 5.58916e-20)
(0.984609 0.175462 2.85013e-19)
(0.984579 0.175465 -1.8108e-19)
(0.984547 0.175461 -2.44651e-19)
(0.984515 0.17545 3.97028e-19)
(0.984485 0.175435 -3.31924e-19)
(0.984455 0.175424 6.2221e-19)
(0.98442 0.175422 -3.78721e-19)
(0.984377 0.17542 1.54938e-19)
(0.984333 0.175403 2.68254e-19)
(0.984291 0.175374 -1.16653e-19)
(0.98425 0.17534 1.47268e-19)
(0.984205 0.175308 -7.30843e-20)
(0.984154 0.175278 2.23495e-19)
(0.984092 0.175248 -6.3224e-19)
(0.984017 0.175216 1.75722e-19)
(0.983926 0.175173 3.82973e-19)
(0.983814 0.17511 9.5471e-19)
(0.983677 0.17501 1.25637e-18)
(0.983514 0.174853 2.85331e-19)
(0.983321 0.174614 2.01149e-18)
(0.983101 0.174271 2.21792e-18)
(0.98285 0.173801 2.59378e-18)
(0.982567 0.17319 -1.90403e-18)
(0.982248 0.172394 -2.63566e-18)
(0.981891 0.171361 1.70205e-18)
(0.981565 0.170038 2.28098e-18)
(0.981271 0.16839 5.98899e-18)
(0.981052 0.166347 3.95247e-18)
(0.980892 0.163939 6.11383e-18)
(0.981086 0.160933 1.12156e-17)
(0.980384 0.157638 -5.74412e-19)
(0.982579 0.153811 -5.97811e-18)
(0.970298 0.149185 -4.45803e-18)
(0.984773 0.176029 6.43953e-21)
(0.984773 0.176025 -2.1485e-21)
(0.984765 0.17603 3.69903e-21)
(0.984752 0.176034 -5.21947e-21)
(0.984735 0.176041 1.1925e-20)
(0.984718 0.17605 -5.88341e-21)
(0.984703 0.176059 3.29665e-21)
(0.984693 0.176068 -4.88418e-20)
(0.984687 0.176075 4.12482e-20)
(0.984687 0.176082 -8.38969e-20)
(0.984691 0.176086 9.30434e-20)
(0.984699 0.176089 -1.13308e-20)
(0.984708 0.176089 -2.55922e-20)
(0.984718 0.176088 -1.2056e-20)
(0.984727 0.176086 -2.79935e-21)
(0.984735 0.176082 -1.24375e-19)
(0.98474 0.176077 4.36417e-21)
(0.984741 0.176071 1.38384e-19)
(0.984739 0.176066 -4.60996e-20)
(0.984733 0.176061 -4.98685e-20)
(0.984723 0.176057 8.39146e-20)
(0.984708 0.176053 -4.32266e-20)
(0.98469 0.176052 1.83247e-19)
(0.984668 0.176051 1.04316e-19)
(0.984643 0.176052 8.2572e-20)
(0.984614 0.176053 -2.5264e-19)
(0.984582 0.176055 -3.64263e-20)
(0.984546 0.176055 -2.09098e-19)
(0.984508 0.176054 3.89749e-20)
(0.984466 0.176046 -7.48518e-20)
(0.984424 0.17603 -3.02467e-20)
(0.984382 0.17601 2.48842e-19)
(0.98434 0.175997 -6.242e-19)
(0.984294 0.175998 -2.85404e-20)
(0.98424 0.175996 -3.18465e-19)
(0.984185 0.175978 -1.55153e-19)
(0.984133 0.175946 4.1523e-20)
(0.984083 0.175908 -5.05394e-19)
(0.98403 0.175868 7.79559e-19)
(0.983971 0.175828 1.33934e-19)
(0.983903 0.175784 8.65496e-19)
(0.983825 0.175732 -6.41622e-19)
(0.983732 0.175663 -4.3808e-19)
(0.983622 0.175566 -1.58452e-19)
(0.983492 0.175426 9.32442e-19)
(0.983342 0.175221 1.35663e-18)
(0.983169 0.174932 3.53101e-19)
(0.982978 0.174541 5.95196e-19)
(0.982767 0.174026 -8.74686e-19)
(0.982533 0.173384 4.89216e-18)
(0.982275 0.172569 1.23842e-18)
(0.981983 0.171524 -1.25854e-18)
(0.98172 0.170186 3.43391e-19)
(0.981478 0.168511 4.47515e-18)
(0.98129 0.166406 -1.63056e-19)
(0.981106 0.16389 -4.85336e-18)
(0.981311 0.160733 -1.10275e-17)
(0.980429 0.157197 1.02335e-17)
(0.982326 0.153587 -5.92639e-18)
(0.973027 0.149397 5.11578e-18)
(0.984702 0.176727 -2.41122e-21)
(0.984736 0.176714 9.82071e-21)
(0.984759 0.176708 -1.63389e-20)
(0.984771 0.176703 1.23223e-20)
(0.984772 0.176703 8.1407e-21)
(0.984764 0.176706 -8.65391e-21)
(0.984749 0.176713 7.54717e-22)
(0.984731 0.176722 -6.70415e-21)
(0.984712 0.176733 -2.29871e-20)
(0.984695 0.176743 4.44754e-20)
(0.984681 0.176754 -7.01212e-20)
(0.98467 0.176763 6.20144e-20)
(0.984664 0.17677 5.59166e-20)
(0.984661 0.176774 -8.71591e-20)
(0.98466 0.176776 -2.92753e-20)
(0.984661 0.176776 1.10485e-19)
(0.984662 0.176773 -1.35991e-19)
(0.984662 0.176768 1.91248e-19)
(0.984661 0.176762 -3.59689e-20)
(0.984656 0.176754 2.22525e-20)
(0.984648 0.176747 -3.4267e-20)
(0.984636 0.176739 -4.43815e-20)
(0.98462 0.176732 -8.5371e-20)
(0.984598 0.176726 1.50614e-19)
(0.984572 0.17672 -1.04659e-19)
(0.984541 0.176715 -1.05907e-19)
(0.984506 0.17671 2.21182e-19)
(0.984465 0.176704 -2.18578e-19)
(0.984421 0.176697 3.5464e-19)
(0.984371 0.176682 -1.92043e-19)
(0.98432 0.17666 1.52724e-19)
(0.984268 0.176631 -2.64956e-19)
(0.984217 0.176614 2.89024e-19)
(0.98416 0.17661 -2.2621e-20)
(0.984095 0.176602 -1.3593e-20)
(0.984028 0.176575 -6.66123e-21)
(0.983965 0.17653 -1.59455e-19)
(0.983903 0.176477 4.49958e-19)
(0.983839 0.176419 -3.45619e-19)
(0.983769 0.176356 -2.01588e-18)
(0.983693 0.176285 -8.55604e-19)
(0.983606 0.176199 6.04519e-19)
(0.983506 0.176092 -6.93271e-19)
(0.98339 0.17595 -7.50994e-19)
(0.983257 0.175759 -6.60429e-20)
(0.983106 0.1755 1.94278e-18)
(0.982937 0.175154 -2.85265e-18)
(0.982757 0.174705 -2.90008e-18)
(0.982569 0.174136 -1.9164e-18)
(0.982372 0.173449 -3.30906e-18)
(0.982173 0.172603 2.21119e-18)
(0.981959 0.171548 -8.48505e-19)
(0.981786 0.170224 -7.20096e-18)
(0.981637 0.168591 1.42746e-18)
(0.981534 0.166548 2.1609e-18)
(0.98138 0.164099 -4.12743e-18)
(0.98163 0.161015 3.05151e-18)
(0.980688 0.157491 2.69522e-18)
(0.982097 0.154236 9.64072e-18)
(0.975445 0.15135 -1.446e-19)
(0.984549 0.177517 2.79164e-21)
(0.98459 0.177495 -1.27033e-20)
(0.984632 0.17748 6.21348e-21)
(0.984671 0.177463 1.1819e-20)
(0.984702 0.177448 -2.56717e-20)
(0.984722 0.177437 2.17325e-20)
(0.984732 0.177431 -1.47222e-20)
(0.984731 0.177428 1.26273e-20)
(0.984723 0.177428 2.05573e-20)
(0.984709 0.177431 -4.99594e-20)
(0.984692 0.177436 7.32335e-20)
(0.984674 0.177443 3.20128e-20)
(0.984657 0.177449 -1.27321e-19)
(0.984642 0.177455 -2.47536e-20)
(0.984629 0.177459 6.96092e-20)
(0.984619 0.177461 4.60451e-20)
(0.98461 0.177461 -5.62436e-20)
(0.984602 0.177459 5.06438e-20)
(0.984594 0.177456 8.03216e-20)
(0.984585 0.177451 -3.82658e-20)
(0.984573 0.177444 -2.24037e-20)
(0.984559 0.177437 8.41503e-20)
(0.984541 0.17743 1.77553e-19)
(0.984518 0.177422 -1.2696e-19)
(0.984489 0.177414 -1.4624e-19)
(0.984455 0.177405 1.66175e-19)
(0.984416 0.177396 -1.2965e-19)
(0.98437 0.177384 -5.58946e-20)
(0.984319 0.177371 4.63413e-19)
(0.984262 0.17735 -2.07697e-19)
(0.984204 0.17732 -1.67259e-19)
(0.984143 0.177281 2.2037e-19)
(0.984082 0.177255 1.56129e-19)
(0.984015 0.177241 -1.401e-19)
(0.983938 0.17722 -9.53096e-20)
(0.983859 0.177177 3.09337e-19)
(0.983783 0.177113 6.83691e-20)
(0.983708 0.177037 1.04342e-19)
(0.983631 0.176953 -5.71392e-19)
(0.983549 0.17686 -5.72262e-19)
(0.98346 0.176754 1.093e-18)
(0.983361 0.176629 8.86873e-19)
(0.983249 0.176477 1.49969e-18)
(0.983121 0.176287 -1.40481e-18)
(0.982975 0.176043 -1.57974e-18)
(0.982811 0.175726 -1.03717e-18)
(0.982631 0.175317 2.58536e-18)
(0.982443 0.1748 2.57416e-18)
(0.982257 0.174155 -2.88378e-18)
(0.982075 0.173392 -4.35357e-18)
(0.981918 0.172478 -7.22148e-19)
(0.981778 0.171378 9.15343e-19)
(0.981709 0.170049 6.26064e-20)
(0.981683 0.168477 -2.57727e-18)
(0.981711 0.166569 2.34603e-18)
(0.981647 0.16432 1.36676e-18)
(0.981979 0.161503 2.04663e-18)
(0.981098 0.158195 -8.4336e-18)
(0.98201 0.155467 -5.72811e-19)
(0.977038 0.153916 1.2601e-19)
(0.984465 0.178269 -4.61741e-21)
(0.984463 0.178253 -3.75383e-21)
(0.984481 0.178242 5.07026e-21)
(0.984512 0.178225 1.83235e-20)
(0.984549 0.178207 -3.99237e-20)
(0.984587 0.17819 4.62329e-20)
(0.98462 0.178174 -1.95659e-21)
(0.984645 0.178162 -2.82557e-21)
(0.984661 0.178152 -1.7162e-20)
(0.984668 0.178145 4.2541e-20)
(0.984667 0.178141 -6.62754e-20)
(0.984659 0.17814 2.52771e-20)
(0.984647 0.178141 -8.8357e-22)
(0.984632 0.178142 4.12212e-20)
(0.984616 0.178144 2.02762e-20)
(0.9846 0.178146 -1.07521e-19)
(0.984583 0.178147 9.47407e-20)
(0.984567 0.178147 3.84504e-20)
(0.98455 0.178146 -1.1137e-19)
(0.984533 0.178143 5.52757e-20)
(0.984514 0.17814 2.67112e-20)
(0.984493 0.178135 -1.69761e-20)
(0.984468 0.17813 2.38583e-20)
(0.984439 0.178123 -1.2519e-20)
(0.984405 0.178116 -1.588e-19)
(0.984365 0.178106 1.07122e-19)
(0.984319 0.178095 -1.6737e-19)
(0.984266 0.178079 3.14801e-19)
(0.984207 0.178062 -5.85626e-20)
(0.984142 0.178034 -3.62147e-20)
(0.984075 0.177996 -9.39672e-21)
(0.984005 0.177947 3.69813e-19)
(0.983934 0.177909 -1.48143e-19)
(0.983855 0.177882 -9.15829e-20)
(0.983766 0.177844 2.39358e-19)
(0.983673 0.177781 2.07956e-19)
(0.983582 0.177693 -3.48997e-19)
(0.983492 0.177591 6.24598e-20)
(0.9834 0.177477 6.88095e-19)
(0.983302 0.17735 -6.75939e-20)
(0.983197 0.177207 4.54942e-19)
(0.98308 0.17704 -6.6554e-19)
(0.982949 0.176843 1.01559e-18)
(0.9828 0.176603 2.23276e-18)
(0.982628 0.176304 6.46794e-19)
(0.982434 0.175923 -9.17682e-19)
(0.98222 0.175439 -2.85693e-18)
(0.981993 0.174831 5.85035e-19)
(0.98177 0.174075 8.87833e-19)
(0.981558 0.173177 1.83557e-18)
(0.98139 0.172112 -1.479e-19)
(0.981269 0.170861 -3.76472e-18)
(0.981252 0.169407 3.3217e-18)
(0.981311 0.167765 -2.28314e-18)
(0.981456 0.165872 4.68683e-18)
(0.981494 0.163715 1.11635e-18)
(0.981932 0.161092 5.12296e-18)
(0.981246 0.157936 6.83588e-18)
(0.981843 0.155574 1.16956e-18)
(0.977644 0.154803 1.63986e-18)
(0.9846 0.178828 -2.20974e-21)
(0.984532 0.178832 1.90619e-21)
(0.984492 0.178838 9.73992e-21)
(0.984475 0.178839 1.56518e-20)
(0.984478 0.178838 -4.64936e-20)
(0.984496 0.178836 2.7023e-20)
(0.984523 0.178832 -4.92158e-20)
(0.984554 0.178828 7.77651e-20)
(0.984582 0.178825 -3.68169e-20)
(0.984605 0.178822 6.61652e-21)
(0.984621 0.178821 7.36977e-20)
(0.98463 0.178821 -1.69354e-19)
(0.984631 0.178823 1.16843e-19)
(0.984625 0.178826 1.71578e-20)
(0.984614 0.17883 2.80717e-20)
(0.984599 0.178834 -1.16777e-19)
(0.98458 0.178837 5.82921e-20)
(0.984559 0.17884 -7.37287e-20)
(0.984535 0.178842 1.48263e-19)
(0.984509 0.178843 -1.85223e-20)
(0.98448 0.178843 -1.94088e-19)
(0.984448 0.178841 7.80734e-20)
(0.984413 0.178838 -4.32646e-21)
(0.984373 0.178833 -3.02329e-19)
(0.984328 0.178826 2.2526e-19)
(0.984278 0.178816 1.7425e-19)
(0.984221 0.178803 1.22962e-19)
(0.984158 0.178785 -1.59327e-19)
(0.984089 0.178763 -1.81784e-19)
(0.984013 0.178729 8.57841e-20)
(0.983935 0.178683 1.31289e-19)
(0.983854 0.178623 -1.65906e-19)
(0.983771 0.178573 -2.5352e-19)
(0.983678 0.178531 5.1163e-19)
(0.983575 0.178474 5.68546e-20)
(0.983468 0.178388 -7.84972e-19)
(0.983362 0.178275 6.45327e-20)
(0.983256 0.178146 5.35673e-19)
(0.983149 0.178002 5.00735e-20)
(0.983036 0.177842 7.21166e-19)
(0.982915 0.177662 -1.03355e-18)
(0.982783 0.177457 -7.26216e-20)
(0.982634 0.177219 -6.81309e-19)
(0.982465 0.176933 2.64723e-19)
(0.982269 0.176585 1.15732e-18)
(0.982045 0.176148 3.59424e-18)
(0.981792 0.175594 5.42954e-19)
(0.981517 0.174894 -2.41292e-18)
(0.981238 0.174015 1.88974e-18)
(0.980965 0.172956 6.84418e-18)
(0.980743 0.171694 -5.62872e-18)
(0.980585 0.170219 6.87533e-18)
(0.98056 0.168534 -4.29394e-18)
(0.980642 0.166691 -2.37739e-18)
(0.980851 0.164664 -9.60503e-18)
(0.980973 0.162446 -5.2443e-19)
(0.981519 0.159883 -3.10181e-18)
(0.981124 0.156809 -3.41763e-18)
(0.981647 0.154687 2.50549e-18)
(0.97803 0.15478 2.26291e-19)
(0.984952 0.179215 3.04828e-21)
(0.984845 0.179242 1.09257e-21)
(0.984754 0.179271 -1.12459e-20)
(0.98468 0.179298 1.08143e-20)
(0.984627 0.179325 -4.8387e-21)
(0.984596 0.17935 8.79847e-21)
(0.984583 0.179373 3.11412e-21)
(0.984585 0.179394 -4.49966e-20)
(0.984596 0.179414 1.95709e-20)
(0.984611 0.179432 -1.37553e-20)
(0.984626 0.179449 8.20465e-21)
(0.984637 0.179465 3.2942e-20)
(0.984643 0.179481 -6.17581e-21)
(0.984643 0.179496 2.08588e-20)
(0.984636 0.179511 -8.90974e-20)
(0.984622 0.179524 3.43863e-20)
(0.984602 0.179535 1.54274e-20)
(0.984577 0.179545 -4.32857e-20)
(0.984547 0.179553 8.68207e-20)
(0.984512 0.17956 2.95894e-20)
(0.984472 0.179564 -2.81182e-21)
(0.984428 0.179565 -3.2516e-20)
(0.984378 0.179565 1.34193e-19)
(0.984324 0.179561 -3.76291e-19)
(0.984265 0.179554 1.96761e-19)
(0.984199 0.179543 8.60476e-20)
(0.984128 0.179528 -1.47731e-19)
(0.98405 0.179506 2.67415e-19)
(0.983966 0.179478 -1.29285e-19)
(0.983876 0.179437 -7.10479e-20)
(0.983784 0.179381 -1.43898e-19)
(0.983689 0.17931 -6.10732e-20)
(0.983591 0.179246 1.64518e-19)
(0.983484 0.179186 -5.04233e-19)
(0.983367 0.17911 9.47312e-19)
(0.983246 0.179001 -6.15559e-20)
(0.983126 0.178863 5.00256e-19)
(0.983008 0.178705 -1.27457e-18)
(0.98289 0.178532 -4.10618e-19)
(0.982769 0.178342 1.61614e-22)
(0.982642 0.178131 -3.14293e-19)
(0.982506 0.177894 -5.23383e-20)
(0.982356 0.177624 -1.16201e-18)
(0.982187 0.177308 3.7613e-19)
(0.981991 0.17693 5.7091e-19)
(0.981764 0.17646 -3.3278e-18)
(0.981502 0.175866 4.28995e-18)
(0.981209 0.175111 6.59221e-19)
(0.980902 0.174151 1.34297e-19)
(0.98059 0.172977 -4.58306e-18)
(0.980322 0.171559 1.74648e-18)
(0.980119 0.16989 -3.64651e-18)
(0.980058 0.16799 6.98054e-18)
(0.980123 0.165938 1.64685e-18)
(0.980351 0.163749 -5.89478e-18)
(0.98052 0.161433 2.30974e-18)
(0.98114 0.158908 -6.49562e-18)
(0.981047 0.155965 -1.37168e-18)
(0.981642 0.154124 -9.42935e-18)
(0.978906 0.155515 -2.33912e-18)
(0.985361 0.179602 -6.73995e-22)
(0.985278 0.179637 -2.67253e-21)
(0.985182 0.179677 -2.36214e-21)
(0.985082 0.179722 2.28169e-20)
(0.984989 0.17977 -1.27085e-20)
(0.984909 0.17982 -1.55196e-20)
(0.984846 0.17987 -5.9758e-21)
(0.9848 0.17992 -2.46355e-20)
(0.984769 0.179967 1.52067e-20)
(0.98475 0.180012 2.0607e-21)
(0.984739 0.180055 6.19612e-22)
(0.984731 0.180095 6.85848e-20)
(0.984724 0.180133 -4.90528e-20)
(0.984714 0.180167 -6.26293e-21)
(0.984699 0.180199 5.81432e-20)
(0.984679 0.180227 -3.22274e-20)
(0.984653 0.180252 -1.2732e-20)
(0.98462 0.180274 2.06838e-20)
(0.98458 0.180292 6.84599e-20)
(0.984534 0.180306 3.93178e-20)
(0.984481 0.180316 1.6057e-20)
(0.984422 0.180321 -9.8571e-20)
(0.984357 0.180323 5.16719e-20)
(0.984286 0.180319 1.02426e-19)
(0.984209 0.180311 -2.13096e-19)
(0.984125 0.180296 7.10709e-20)
(0.984035 0.180276 -2.84321e-19)
(0.983939 0.180247 2.35753e-19)
(0.983837 0.180212 2.14711e-19)
(0.983729 0.180161 -3.34014e-19)
(0.98362 0.180095 -1.64714e-19)
(0.983508 0.18001 2.24734e-19)
(0.983394 0.179929 7.61833e-20)
(0.983271 0.179851 -2.14669e-19)
(0.98314 0.179752 -2.71706e-19)
(0.983007 0.179618 -3.25656e-19)
(0.982877 0.179454 1.97883e-19)
(0.982753 0.179269 4.84736e-19)
(0.982632 0.179068 1.69502e-19)
(0.982513 0.178848 -1.64328e-19)
(0.982394 0.17861 1.77839e-18)
(0.982272 0.178347 -1.75887e-19)
(0.982143 0.178056 1.91436e-18)
(0.982002 0.177724 -3.49236e-18)
(0.98184 0.177336 5.29148e-19)
(0.981652 0.176864 1.11151e-19)
(0.981431 0.176272 -2.93734e-19)
(0.981177 0.175519 -2.86278e-18)
(0.980901 0.174553 -4.78938e-18)
(0.980608 0.173355 4.3608e-18)
(0.980344 0.171888 5.84701e-18)
(0.980133 0.170144 3.08209e-18)
(0.980054 0.168148 -6.58755e-18)
(0.980096 0.165995 3.55256e-18)
(0.980313 0.163737 9.11461e-18)
(0.980486 0.161399 3.30449e-18)
(0.981113 0.15897 6.33688e-18)
(0.981248 0.156238 3.02678e-18)
(0.981924 0.154719 8.38804e-18)
(0.980281 0.157446 -5.60251e-18)
(0.985606 0.180197 8.69452e-22)
(0.985613 0.180221 -2.62373e-21)
(0.985576 0.180255 9.44928e-21)
(0.985507 0.180296 2.52605e-21)
(0.985419 0.180347 -1.31813e-20)
(0.985324 0.180403 -1.5406e-20)
(0.98523 0.180464 3.66662e-20)
(0.985145 0.180527 -4.04547e-20)
(0.985072 0.180591 -1.02238e-20)
(0.98501 0.180655 2.53456e-20)
(0.984959 0.180717 2.3893e-20)
(0.984916 0.180776 7.37804e-20)
(0.984879 0.180832 -4.12558e-20)
(0.984844 0.180884 -7.25459e-20)
(0.984808 0.180932 1.60379e-20)
(0.984769 0.180975 -6.11991e-20)
(0.984726 0.181013 4.58697e-20)
(0.984677 0.181046 -7.97397e-20)
(0.984622 0.181073 1.20254e-20)
(0.984561 0.181094 -2.78214e-20)
(0.984492 0.181109 -1.85956e-20)
(0.984416 0.181117 -7.79718e-20)
(0.984334 0.18112 4.95668e-21)
(0.984244 0.181115 1.7006e-19)
(0.984147 0.181103 -5.95737e-20)
(0.984044 0.181082 1.81429e-20)
(0.983934 0.181055 5.54696e-20)
(0.983817 0.181017 -7.79983e-20)
(0.983695 0.180971 -1.70951e-20)
(0.983568 0.180907 1.15796e-19)
(0.98344 0.180826 1.30675e-19)
(0.983309 0.180724 -9.97834e-20)
(0.983178 0.180625 -3.23779e-19)
(0.983038 0.180525 -4.6351e-19)
(0.982893 0.180401 7.07917e-19)
(0.98275 0.180241 1.92209e-19)
(0.982614 0.180047 1.19374e-19)
(0.982486 0.179833 6.31727e-19)
(0.982368 0.179601 -5.84446e-19)
(0.982258 0.179352 3.66612e-19)
(0.982157 0.179086 8.01523e-21)
(0.982062 0.178799 3.1432e-20)
(0.98197 0.178489 -6.97563e-19)
(0.981878 0.178146 1.60429e-18)
(0.981778 0.17776 -2.13461e-18)
(0.981663 0.177304 1.29037e-18)
(0.981524 0.176744 -3.71668e-18)
(0.981357 0.176039 1.11505e-18)
(0.981169 0.175132 2.49275e-18)
(0.980956 0.173998 -4.28615e-18)
(0.980757 0.172596 -1.31285e-18)
(0.980588 0.170908 -5.08003e-19)
(0.980527 0.168959 -9.44265e-19)
(0.980557 0.166844 -3.39793e-18)
(0.980746 0.164641 2.84892e-19)
(0.980884 0.162378 2.62749e-18)
(0.981445 0.160091 -3.17178e-18)
(0.981703 0.157569 -9.18545e-19)
(0.982381 0.156283 -1.30693e-18)
(0.981682 0.159806 4.00765e-18)
(0.985527 0.181117 1.61627e-21)
(0.985664 0.181109 -1.36895e-21)
(0.985734 0.18112 1.2686e-21)
(0.985751 0.181138 8.19088e-21)
(0.985724 0.18117 1.20417e-20)
(0.985664 0.181211 -4.71204e-20)
(0.985583 0.181262 3.43486e-20)
(0.985492 0.181319 7.31058e-21)
(0.985399 0.181381 -2.10261e-21)
(0.985308 0.181445 -1.5928e-20)
(0.985223 0.181511 4.97134e-20)
(0.985145 0.181575 -1.60013e-20)
(0.985072 0.181638 -2.26774e-20)
(0.985004 0.181697 -6.92124e-20)
(0.984938 0.181752 1.40032e-19)
(0.984872 0.181802 -2.87676e-20)
(0.984805 0.181846 -2.46271e-20)
(0.984733 0.181884 -7.53558e-20)
(0.984657 0.181915 8.3987e-20)
(0.984576 0.181939 4.79742e-20)
(0.984488 0.181955 -2.12942e-20)
(0.984393 0.181963 3.96746e-20)
(0.98429 0.181963 -1.68463e-19)
(0.984181 0.181953 1.02897e-20)
(0.984065 0.181935 9.62529e-20)
(0.983941 0.181906 -1.87882e-20)
(0.983811 0.181867 -3.13379e-19)
(0.983674 0.181817 2.48294e-20)
(0.983531 0.181756 2.89185e-19)
(0.983384 0.181677 -7.91147e-20)
(0.983237 0.181578 -1.57559e-19)
(0.983088 0.181457 9.41144e-20)
(0.982938 0.181334 2.84332e-19)
(0.982782 0.181209 6.75943e-19)
(0.982624 0.181057 -1.03632e-19)
(0.98247 0.180866 1.47804e-19)
(0.982328 0.180641 -1.07316e-18)
(0.982199 0.180393 -3.14941e-19)
(0.982084 0.180127 2.02365e-19)
(0.981983 0.179843 -8.4669e-19)
(0.981899 0.179543 -1.86412e-19)
(0.981832 0.179225 4.05066e-19)
(0.981779 0.178889 3.33423e-19)
(0.981738 0.178529 9.36482e-19)
(0.981704 0.178138 3.11818e-18)
(0.981671 0.177695 -2.48923e-18)
(0.981629 0.177171 3.98138e-18)
(0.98157 0.176526 3.03604e-18)
(0.981498 0.175706 3.29383e-21)
(0.981399 0.174682 3.91719e-18)
(0.981301 0.173411 -5.41616e-18)
(0.981211 0.171865 -6.47869e-18)
(0.981196 0.17006 5.0495e-18)
(0.981231 0.168082 4.34431e-18)
(0.981388 0.166013 -1.73119e-18)
(0.981465 0.163871 -1.04454e-17)
(0.98191 0.161712 2.52989e-18)
(0.982208 0.159304 -2.35845e-18)
(0.982812 0.158038 -3.64193e-18)
(0.982616 0.161568 2.95063e-18)
(0.985071 0.182384 -1.73043e-21)
(0.985339 0.182342 1.90244e-21)
(0.985536 0.18232 1.30497e-20)
(0.985671 0.182304 -1.71221e-20)
(0.985744 0.182301 3.14046e-20)
(0.985765 0.182309 -4.64343e-20)
(0.985744 0.182329 1.31876e-20)
(0.98569 0.182359 -6.88003e-22)
(0.985614 0.182398 3.00078e-20)
(0.985526 0.182443 -1.5863e-20)
(0.98543 0.182493 4.79471e-21)
(0.985333 0.182545 5.04541e-21)
(0.985236 0.182597 -7.8367e-20)
(0.985141 0.182647 2.32715e-20)
(0.985047 0.182695 5.53989e-20)
(0.984954 0.182739 1.89829e-21)
(0.984859 0.182778 -9.53758e-20)
(0.984763 0.18281 3.86769e-20)
(0.984664 0.182836 1.87005e-19)
(0.984559 0.182854 -1.22104e-19)
(0.98445 0.182864 -9.52407e-20)
(0.984334 0.182865 8.17102e-20)
(0.984212 0.182857 5.39281e-20)
(0.984083 0.182838 6.18259e-20)
(0.983947 0.182809 -1.18879e-19)
(0.983804 0.182767 -2.66291e-19)
(0.983655 0.182714 2.00266e-19)
(0.983498 0.182648 2.98592e-19)
(0.983337 0.18257 8.80775e-20)
(0.983171 0.182471 -1.65607e-19)
(0.983005 0.182351 8.03583e-20)
(0.982838 0.182206 1.39314e-19)
(0.982671 0.182058 -2.36837e-19)
(0.982498 0.181904 -3.29105e-20)
(0.982326 0.18172 -4.32505e-19)
(0.982162 0.181495 -1.21235e-19)
(0.982011 0.181233 -1.19079e-19)
(0.981876 0.180947 3.08632e-19)
(0.981759 0.180641 -4.32691e-19)
(0.981661 0.180316 1.28465e-19)
(0.981585 0.179972 2.14998e-19)
(0.981532 0.179611 5.79886e-20)
(0.981504 0.179235 -1.38263e-18)
(0.9815 0.17884 -1.94967e-18)
(0.981514 0.178425 -1.71814e-18)
(0.981545 0.177972 3.43627e-18)
(0.981584 0.177458 8.86717e-20)
(0.981621 0.176853 -1.39132e-18)
(0.981656 0.176103 7.32739e-19)
(0.981669 0.175183 -4.54823e-18)
(0.981678 0.174048 2.20827e-18)
(0.981676 0.172662 6.05152e-18)
(0.981718 0.171027 -4.79271e-19)
(0.98177 0.16921 -5.2803e-18)
(0.981897 0.167285 2.55909e-18)
(0.981913 0.165246 2.41829e-18)
(0.982234 0.163147 2.85636e-18)
(0.982544 0.16072 6.4596e-18)
(0.983053 0.15924 6.09475e-18)
(0.982862 0.162107 -6.79068e-18)
(0.984285 0.183922 -1.45339e-21)
(0.984651 0.183848 2.10748e-21)
(0.98496 0.183794 4.42115e-22)
(0.985213 0.183742 8.10055e-21)
(0.985403 0.183701 -1.23384e-20)
(0.985531 0.18367 -2.55503e-20)
(0.985602 0.18365 9.07863e-21)
(0.985624 0.183641 -1.24496e-20)
(0.985605 0.183643 2.69539e-20)
(0.985554 0.183654 -5.539e-21)
(0.985481 0.183671 -1.83751e-20)
(0.985392 0.183694 1.51865e-20)
(0.985293 0.183719 2.5123e-20)
(0.985188 0.183746 7.03888e-20)
(0.98508 0.183773 -1.28352e-19)
(0.984968 0.183797 6.63264e-20)
(0.984854 0.183817 1.05465e-20)
(0.984737 0.183833 -6.70447e-20)
(0.984616 0.183843 -4.28884e-20)
(0.984492 0.183846 1.4151e-19)
(0.984362 0.183842 -1.50563e-19)
(0.984227 0.183828 4.49084e-20)
(0.984086 0.183805 -1.26667e-19)
(0.983939 0.18377 2.12162e-19)
(0.983785 0.183725 -4.35551e-20)
(0.983624 0.183666 -1.26681e-19)
(0.983457 0.183595 1.01343e-19)
(0.983283 0.183508 1.96815e-19)
(0.983104 0.183409 -1.8997e-19)
(0.982922 0.183288 1.19104e-19)
(0.982739 0.183144 -4.15461e-19)
(0.982555 0.182973 -4.97439e-20)
(0.982371 0.182796 1.85206e-19)
(0.982182 0.18261 -1.0907e-19)
(0.981995 0.182392 -2.26401e-19)
(0.981817 0.18213 -5.44077e-19)
(0.981654 0.181828 6.91019e-19)
(0.981506 0.181499 -2.78657e-19)
(0.981378 0.181148 2.13024e-19)
(0.98127 0.180773 4.48792e-19)
(0.981187 0.180377 3.66748e-19)
(0.981131 0.17996 -2.3115e-19)
(0.981103 0.179526 8.10536e-19)
(0.981107 0.179074 1.54041e-18)
(0.98114 0.178606 -1.58615e-19)
(0.9812 0.178109 -2.08455e-18)
(0.981282 0.177568 -2.79238e-18)
(0.981378 0.176957 -2.09825e-19)
(0.981486 0.176231 2.12676e-18)
(0.981581 0.175369 -4.34848e-19)
(0.981673 0.174326 3.82035e-18)
(0.981745 0.17306 -5.81719e-18)
(0.981841 0.171559 -3.09745e-18)
(0.981914 0.169865 -1.24024e-18)
(0.982026 0.16804 -2.62862e-18)
(0.982004 0.166046 1.65736e-18)
(0.98223 0.163922 -2.15504e-18)
(0.98258 0.161362 -8.41345e-18)
(0.983039 0.159506 -9.52068e-18)
(0.982491 0.16135 3.64135e-18)
(0.983279 0.185629 -2.16544e-21)
(0.983693 0.185537 1.75284e-21)
(0.984074 0.185459 1.38723e-21)
(0.984419 0.185377 -9.96539e-21)
(0.984712 0.185301 1.03191e-20)
(0.984948 0.185231 -5.13191e-21)
(0.985124 0.18517 1.68026e-20)
(0.985242 0.185118 -2.51721e-20)
(0.985306 0.185077 1.36895e-21)
(0.985325 0.185044 1.89321e-21)
(0.985305 0.18502 -1.92976e-20)