/*--------------------------------*- C++ -*----------------------------------*\
  =========                 |
  \\      /  F ield         | OpenFOAM: The Open Source CFD Toolbox
   \\    /   O peration     | Website:  https://openfoam.org
    \\  /    A nd           | Version:  6.0
     \\/     M anipulation  |
\*---------------------------------------------------------------------------*/
FoamFile
{
    version     2.0;
    format      ascii;
    class       volScalarField;
    location    "8";
    object      p;
}
// * * * * * * * * * * * * * * * * * * * * * * * * * * * * * * * * * * * * * //

dimensions      [0 2 -2 0 0 0 0];

internalField   nonuniform List<scalar> 
62000
(
0.0253811
0.0253
0.0252192
0.0251438
0.0250698
0.0249958
0.0249164
0.0248304
0.0247343
0.0246292
0.0245125
0.0243859
0.0242463
0.0240959
0.0239303
0.023752
0.0235559
0.0233443
0.0231115
0.0228591
0.0225812
0.0222785
0.0219446
0.0215795
0.0211763
0.0207345
0.0202467
0.0197119
0.0191229
0.0184784
0.0177708
0.0169987
0.0161571
0.01525
0.0142813
0.0132527
0.0121651
0.0110219
0.00982836
0.00859026
0.0073118
0.00599402
0.00463369
0.00322215
0.00174717
0.000194172
-0.00144643
-0.00317086
-0.00495956
-0.00675321
-0.00848279
-0.0100285
-0.0112905
-0.012107
-0.0123885
-0.0120431
-0.0110678
-0.00937104
-0.00765354
-0.00969429
0.0251946
0.0250491
0.0249084
0.0247848
0.0246791
0.0245926
0.0245187
0.0244515
0.0243827
0.0243093
0.0242263
0.0241343
0.0240294
0.0239134
0.0237819
0.0236367
0.023473
0.0232922
0.0230894
0.0228654
0.0226149
0.022338
0.0220294
0.0216881
0.0213084
0.0208888
0.0204234
0.0199096
0.0193421
0.0187175
0.0180305
0.0172763
0.0164519
0.0155607
0.0146064
0.013591
0.0125152
0.0113818
0.0101964
0.00896535
0.00769297
0.00638044
0.00502387
0.00361272
0.00213067
0.000556189
-0.00113037
-0.0029382
-0.00486202
-0.00685238
-0.00884652
-0.0107124
-0.012333
-0.0134816
-0.014001
-0.0137095
-0.0125452
-0.0104179
-0.00851949
-0.00570742
0.0250024
0.0248547
0.0247093
0.0245738
0.0244533
0.0243566
0.0242814
0.0242223
0.0241679
0.0241117
0.0240461
0.02397
0.0238791
0.0237753
0.0236547
0.0235194
0.0233648
0.0231926
0.0229977
0.022781
0.0225372
0.0222664
0.021963
0.0216262
0.0212506
0.0208343
0.0203718
0.0198605
0.0192953
0.0186725
0.0179872
0.017234
0.0164106
0.0155196
0.0145678
0.013557
0.0124892
0.0113695
0.0102063
0.00901
0.00779009
0.0065542
0.00530612
0.00404345
0.00275766
0.00143302
5.19736e-05
-0.00139798
-0.00292256
-0.00448847
-0.00605889
-0.00752764
-0.00881679
-0.00972033
-0.0101207
-0.00989712
-0.00910325
-0.00791593
-0.00785588
-0.00726348
0.0249371
0.0248366
0.0247339
0.0246283
0.0245271
0.0244455
0.0243879
0.0243523
0.0243268
0.0243024
0.024268
0.0242203
0.0241537
0.0240699
0.0239653
0.0238428
0.0236985
0.0235349
0.0233476
0.023138
0.0229012
0.0226377
0.022342
0.0220135
0.0216467
0.02124
0.0207878
0.0202872
0.0197332
0.0191217
0.0184477
0.0177051
0.0168907
0.0160087
0.0150632
0.0140576
0.0129942
0.0118785
0.0107205
0.00953311
0.00832975
0.00712345
0.00592514
0.00474095
0.00357139
0.00240903
0.0012419
5.76487e-05
-0.0011568
-0.00238422
-0.00361522
-0.00477903
-0.00585114
-0.00667241
-0.00718629
-0.00736054
-0.00735107
-0.00746683
-0.00923902
-0.0101295
0.0248361
0.0247834
0.0247238
0.0246518
0.024575
0.0245124
0.0244747
0.0244647
0.0244727
0.024488
0.0244978
0.0244956
0.024474
0.0244329
0.0243685
0.0242832
0.0241737
0.0240426
0.0238862
0.0237062
0.0234984
0.0232635
0.0229968
0.0226979
0.0223616
0.0219865
0.0215671
0.0211003
0.020581
0.0200048
0.0193658
0.0186574
0.0178761
0.0170222
0.0161016
0.0151144
0.0140622
0.0129488
0.0117831
0.0105777
0.00934595
0.00810258
0.00686174
0.00563444
0.00442753
0.00324044
0.00206701
0.00089795
-0.000282405
-0.00146529
-0.00265979
-0.00381913
-0.00495857
-0.00595336
-0.00678401
-0.00746225
-0.00815525
-0.00914248
-0.0116777
-0.0132197
0.0246757
0.024647
0.0246087
0.0245534
0.0244862
0.0244274
0.0243928
0.0243904
0.0244138
0.0244537
0.0244958
0.0245323
0.0245536
0.0245579
0.0245402
0.0245019
0.0244395
0.0243552
0.0242453
0.0241116
0.0239501
0.0237617
0.023542
0.0232907
0.023003
0.0226776
0.0223092
0.0218947
0.0214288
0.0209065
0.0203218
0.0196672
0.0189366
0.0181321
0.0172535
0.0163008
0.0152724
0.0141695
0.0129979
0.0117673
0.010489
0.00917603
0.00784243
0.00650089
0.00516159
0.00382883
0.00250193
0.0011761
-0.000162053
-0.00150569
-0.00287055
-0.00422139
-0.00559547
-0.0068831
-0.00806953
-0.00917128
-0.0103064
-0.0116905
-0.0143682
-0.0161487
0.0244408
0.0244129
0.0243769
0.0243236
0.0242539
0.0241869
0.0241412
0.024129
0.0241475
0.0241894
0.0242416
0.0242957
0.0243416
0.024376
0.0243931
0.0243933
0.0243726
0.0243323
0.0242686
0.0241826
0.0240702
0.0239321
0.0237639
0.0235652
0.0233315
0.0230614
0.0227496
0.0223933
0.0219868
0.0215251
0.0210015
0.0204079
0.0197387
0.0189903
0.0181649
0.0172574
0.016264
0.0151827
0.0140156
0.0127686
0.0114494
0.0100679
0.00863573
0.00716497
0.0056669
0.00414878
0.00261435
0.00106403
-0.000511175
-0.00210089
-0.00372061
-0.00533551
-0.00699174
-0.00858054
-0.0100761
-0.0114794
-0.0128488
-0.014369
-0.0169989
-0.0188494
0.0242005
0.0241578
0.0241098
0.0240468
0.0239647
0.0238804
0.0238139
0.0237801
0.023779
0.0238056
0.0238481
0.0238985
0.0239468
0.0239894
0.0240199
0.0240385
0.0240404
0.024027
0.0239939
0.0239421
0.0238671
0.0237691
0.0236436
0.02349
0.0233035
0.0230825
0.0228219
0.0225185
0.0221667
0.0217612
0.0212952
0.0207601
0.0201481
0.0194583
0.0186864
0.0178275
0.0168745
0.0158222
0.0146692
0.0134175
0.0120711
0.0106358
0.00912044
0.00753484
0.00588995
0.00419455
0.00245567
0.000678337
-0.00114092
-0.00298662
-0.00486894
-0.00674944
-0.00867533
-0.0105336
-0.0122787
-0.0138952
-0.0153908
-0.016961
-0.0195309
-0.0213832
0.0239307
0.0238653
0.0237995
0.0237226
0.0236261
0.0235243
0.0234371
0.0233801
0.0233556
0.0233597
0.0233825
0.0234167
0.023453
0.0234878
0.0235151
0.0235346
0.023542
0.0235381
0.0235186
0.0234842
0.0234303
0.0233569
0.0232593
0.0231365
0.0229836
0.0227989
0.022577
0.0223147
0.0220061
0.021646
0.0212271
0.0207405
0.0201796
0.0195382
0.0188155
0.0180019
0.0170887
0.0160681
0.0149356
0.0136898
0.0123308
0.010861
0.00928529
0.00761112
0.00584802
0.00400506
0.00209127
0.000115563
-0.00192078
-0.00399608
-0.00611489
-0.00823134
-0.010392
-0.012477
-0.0144234
-0.0162018
-0.0177848
-0.0194005
-0.0219438
-0.0237725
0.0237103
0.0236188
0.0235303
0.023434
0.0233182
0.0231949
0.023084
0.0230015
0.0229505
0.0229284
0.0229257
0.0229361
0.0229505
0.0229661
0.0229767
0.0229825
0.0229793
0.0229682
0.0229452
0.022911
0.0228613
0.0227956
0.0227095
0.0226017
0.022467
0.0223036
0.0221059
0.0218705
0.0215914
0.0212632
0.0208786
0.0204287
0.0199047
0.0193044
0.0186204
0.017845
0.0169667
0.0159758
0.014865
0.0136301
0.0122682
0.010778
0.00916128
0.00742265
0.00556979
0.0036113
0.00155725
-0.000580841
-0.00279755
-0.00506628
-0.00738515
-0.00970216
-0.0120627
-0.0143414
-0.0164595
-0.0183795
-0.0200485
-0.0217358
-0.0242933
-0.0260943
0.0234914
0.0233745
0.0232639
0.0231482
0.0230134
0.0228697
0.0227366
0.02263
0.0225537
0.0225054
0.0224767
0.0224613
0.0224512
0.0224433
0.0224324
0.0224184
0.0223977
0.0223712
0.0223354
0.0222909
0.0222337
0.0221635
0.0220759
0.0219697
0.0218397
0.0216839
0.0214969
0.0212749
0.0210121
0.0207028
0.0203395
0.0199133
0.0194169
0.0188428
0.0181887
0.0174423
0.0165919
0.015626
0.0145356
0.0133139
0.0119553
0.0104558
0.0088139
0.00703147
0.00511411
0.00306933
0.00090732
-0.00135868
-0.0037206
-0.00614737
-0.00863261
-0.0111178
-0.0136485
-0.0160951
-0.018367
-0.0204219
-0.0221886
-0.0239748
-0.0265747
-0.0283511
0.0233103
0.0231692
0.0230362
0.0228997
0.022744
0.0225783
0.0224221
0.0222915
0.0221906
0.0221172
0.0220631
0.0220224
0.021987
0.0219542
0.0219187
0.0218808
0.0218371
0.021789
0.0217331
0.0216703
0.0215972
0.0215134
0.0214147
0.0213
0.0211643
0.0210056
0.0208182
0.0205987
0.020341
0.0200394
0.0196866
0.0192737
0.0187913
0.0182367
0.017601
0.016875
0.0160447
0.0150978
0.0140235
0.0128131
0.0114591
0.00995489
0.00829636
0.00648285
0.0045178
0.00240735
0.000161229
-0.00220661
-0.00468622
-0.00724381
-0.00986868
-0.0124985
-0.0151789
-0.0177791
-0.0201978
-0.0223906
-0.0242703
-0.0261787
-0.0288416
-0.0306016
0.0230914
0.0229282
0.0227758
0.022622
0.02245
0.0222675
0.0220936
0.0219443
0.0218238
0.0217298
0.0216547
0.0215921
0.0215348
0.0214796
0.0214221
0.021362
0.0212966
0.0212269
0.0211501
0.0210671
0.0209748
0.020873
0.020758
0.0206287
0.0204804
0.0203112
0.0201158
0.0198905
0.0196294
0.0193271
0.018976
0.0185669
0.0180929
0.0175453
0.0169213
0.0162073
0.0153899
0.014456
0.0133936
0.0121924
0.0108432
0.00933732
0.00766825
0.00583296
0.00383279
0.00167223
-0.000639999
-0.00308979
-0.00566653
-0.00833421
-0.01108
-0.013837
-0.0166533
-0.0193966
-0.0219583
-0.0242922
-0.0262967
-0.0283409
-0.0310757
-0.0328275
0.0229174
0.022733
0.0225605
0.0223877
0.0221967
0.021995
0.0218017
0.0216327
0.0214924
0.0213784
0.0212827
0.0211992
0.0211203
0.021043
0.0209628
0.0208796
0.0207908
0.0206978
0.020598
0.0204925
0.0203785
0.0202559
0.0201213
0.0199738
0.019809
0.0196248
0.0194163
0.0191798
0.0189098
0.0186005
0.018245
0.0178341
0.0173585
0.0168152
0.0161945
0.0154863
0.0146757
0.013749
0.0126933
0.0114972
0.0101501
0.00864138
0.0069627
0.00510889
0.00307928
0.000876637
-0.00149155
-0.00401165
-0.00667288
-0.00943834
-0.0122932
-0.0151679
-0.0181127
-0.0209958
-0.0237012
-0.0261819
-0.028321
-0.0305102
-0.0333232
-0.0350769
0.0227249
0.0225222
0.0223325
0.0221432
0.0219358
0.0217172
0.0215065
0.0213195
0.0211609
0.0210279
0.0209132
0.0208101
0.0207117
0.0206145
0.0205143
0.0204108
0.0203018
0.0201881
0.0200676
0.0199411
0.0198063
0.0196631
0.0195085
0.0193417
0.0191584
0.018957
0.0187326
0.0184819
0.0181992
0.0178794
0.017515
0.0170971
0.0166188
0.0160709
0.0154501
0.0147425
0.0139337
0.0130098
0.0119572
0.0107633
0.00941645
0.00790457
0.00621732
0.00434765
0.00229293
5.41156e-05
-0.00236285
-0.00494506
-0.00768231
-0.0105372
-0.0134942
-0.0164805
-0.0195497
-0.0225699
-0.0254193
-0.0280491
-0.0303279
-0.0326649
-0.0355557
-0.0373208
0.0225601
0.0223405
0.0221336
0.0219269
0.0217015
0.0214641
0.0212344
0.0210286
0.0208513
0.0206998
0.0205665
0.0204447
0.020327
0.0202103
0.02009
0.019966
0.0198361
0.0197014
0.0195597
0.019412
0.0192564
0.0190926
0.0189179
0.0187315
0.0185294
0.01831
0.0180687
0.0178022
0.0175053
0.0171725
0.0167972
0.0163703
0.0158828
0.0153312
0.0147053
0.0139948
0.0131842
0.0122593
0.0112058
0.0100103
0.00866024
0.00714219
0.00544418
0.00355743
0.00147749
-0.00079647
-0.00326014
-0.00590167
-0.00871159
-0.0116529
-0.0147093
-0.017806
-0.0209989
-0.0241573
-0.0271532
-0.0299359
-0.0323588
-0.0348454
-0.0378156
-0.0396024
0.0223324
0.0220973
0.0218765
0.0216568
0.0214187
0.0211684
0.0209257
0.0207062
0.0205151
0.0203489
0.0202008
0.0200634
0.0199302
0.0197971
0.0196605
0.0195195
0.0193725
0.0192201
0.0190605
0.0188944
0.0187202
0.0185375
0.018344
0.0181389
0.0179186
0.0176814
0.0174232
0.0171407
0.0168288
0.0164824
0.0160946
0.0156567
0.0151619
0.0146004
0.0139689
0.0132529
0.0124379
0.0115095
0.0104529
0.00925396
0.00789919
0.00637394
0.00466469
0.00276101
0.000656654
-0.00165108
-0.00415964
-0.00685826
-0.00973876
-0.0127645
-0.0159198
-0.019126
-0.0224428
-0.0257392
-0.0288823
-0.0318184
-0.0343863
-0.0370212
-0.040068
-0.0418867
0.0221379
0.0218873
0.0216509
0.0214154
0.0211613
0.0208948
0.0206362
0.0204012
0.0201948
0.0200137
0.0198503
0.0196973
0.0195478
0.0193981
0.019244
0.0190852
0.0189199
0.0187489
0.0185706
0.0183859
0.0181932
0.0179922
0.0177808
0.0175579
0.0173203
0.0170663
0.0167919
0.0164939
0.0161674
0.0158073
0.0154072
0.0149585
0.014452
0.0138842
0.0132441
0.0125214
0.0117003
0.0107663
0.00970422
0.00849913
0.00713675
0.00560135
0.00387801
0.0019548
-0.000176218
-0.00251958
-0.00507447
-0.0078314
-0.0107835
-0.0138952
-0.0171507
-0.0204684
-0.023911
-0.0273479
-0.0306408
-0.0337326
-0.0364474
-0.0392304
-0.042355
-0.0442166
0.0219012
0.021637
0.0213875
0.0211387
0.020871
0.0205905
0.0203179
0.0200686
0.0198479
0.0196522
0.0194743
0.0193066
0.0191425
0.0189779
0.0188091
0.0186353
0.018455
0.0182687
0.0180749
0.0178744
0.0176657
0.0174485
0.0172209
0.016982
0.0167284
0.0164589
0.0161693
0.0158568
0.0155165
0.0151436
0.0147314
0.0142714
0.0137571
0.0131781
0.0125308
0.0118005
0.0109724
0.0100321
0.00896369
0.00775172
0.00638108
0.00483495
0.00309706
0.00115396
-0.00100398
-0.00338313
-0.00598454
-0.00879994
-0.0118241
-0.0150226
-0.01838
-0.0218105
-0.0253803
-0.0289584
-0.0324016
-0.0356487
-0.0385099
-0.0414388
-0.0446389
-0.0465545
0.0216755
0.021398
0.0211343
0.0208704
0.0205866
0.0202895
0.0200003
0.0197352
0.0194992
0.0192888
0.0190963
0.0189142
0.0187352
0.0185557
0.0183715
0.0181821
0.0179858
0.0177836
0.017574
0.0173576
0.0171335
0.0169009
0.0166583
0.0164046
0.0161366
0.015853
0.0155498
0.0152241
0.0148712
0.0144864
0.0140634
0.0135937
0.0130683
0.0124833
0.0118272
0.0110894
0.0102541
0.0093066
0.00823058
0.00700995
0.00562893
0.00406967
0.00231463
0.000348957
-0.00183862
-0.00425624
-0.00690674
-0.00978321
-0.0128821
-0.0161703
-0.0196323
-0.023179
-0.0268785
-0.0306005
-0.0341963
-0.0376008
-0.0406094
-0.0436846
-0.0469618
-0.0489432
0.021357
0.0210669
0.020792
0.0205173
0.0202232
0.0199158
0.0196165
0.019341
0.0190949
0.0188738
0.0186707
0.0184773
0.0182873
0.0180961
0.0179004
0.017699
0.0174909
0.0172763
0.0170542
0.016825
0.016588
0.0163423
0.0160866
0.0158199
0.0155391
0.0152429
0.0149276
0.0145903
0.0142264
0.0138312
0.0133983
0.0129194
0.0123878
0.0117927
0.0111304
0.0103853
0.00954283
0.00858829
0.00750484
0.00627574
0.00488446
0.0033121
0.00153986
-0.000448556
-0.00266606
-0.00512258
-0.00782281
-0.0107612
-0.0139363
-0.0173156
-0.0208846
-0.0245486
-0.0283793
-0.0322456
-0.0359942
-0.0395552
-0.0427104
-0.0459304
-0.0492839
-0.0513429
0.0210557
0.0207522
0.0204634
0.0201746
0.019866
0.0195442
0.0192313
0.0189431
0.0186849
0.0184524
0.0182378
0.0180329
0.0178308
0.0176273
0.0174186
0.0172039
0.0169822
0.0167541
0.0165186
0.0162762
0.0160264
0.0157682
0.0155006
0.0152222
0.0149302
0.0146232
0.0142976
0.0139504
0.0135771
0.0131731
0.0127322
0.0122461
0.0117058
0.0111067
0.010437
0.00968562
0.00883653
0.00787489
0.00678342
0.00554475
0.00414169
0.00255438
0.00076277
-0.00125073
-0.00350076
-0.00599873
-0.00875145
-0.0117545
-0.0150088
-0.0184825
-0.0221614
-0.0259457
-0.0299102
-0.0339236
-0.0378268
-0.0415465
-0.0448498
-0.0482157
-0.0516482
-0.0537975
0.0206902
0.0203748
0.0200744
0.0197738
0.0194532
0.0191193
0.0187946
0.0184946
0.0182253
0.0179815
0.0177561
0.0175402
0.0173276
0.0171133
0.0168944
0.0166692
0.0164374
0.016199
0.0159533
0.0157006
0.0154405
0.0151722
0.0148945
0.0146064
0.0143051
0.0139891
0.0136549
0.0132996
0.0129188
0.0125079
0.0120604
0.0115681
0.0110244
0.0104177
0.00974383
0.00898681
0.00813174
0.00716373
0.00606499
0.00481747
0.00340331
0.00180158
-8.95188e-06
-0.00204742
-0.00432986
-0.00686962
-0.00967517
-0.012744
-0.0160788
-0.0196485
-0.0234386
-0.0273449
-0.031444
-0.0356045
-0.0396624
-0.04354
-0.0469908
-0.0505022
-0.0540141
-0.0562664
0.0203201
0.0199927
0.0196794
0.0193646
0.0190289
0.0186797
0.0183401
0.0180265
0.0177444
0.017489
0.0172522
0.0170254
0.0168017
0.0165765
0.0163462
0.0161098
0.0158667
0.0156172
0.0153607
0.0150977
0.014828
0.0145504
0.0142642
0.0139679
0.013659
0.0133359
0.0129952
0.0126339
0.0122475
0.0118315
0.0113796
0.0108835
0.0103341
0.00972629
0.00904741
0.00828611
0.00742595
0.0064519
0.00534568
0.00408868
0.00266236
0.00104486
-0.000786346
-0.00285161
-0.00516872
-0.00775232
-0.0106133
-0.0137502
-0.0171688
-0.0208369
-0.0247414
-0.0287722
-0.0330083
-0.0373183
-0.041533
-0.0455707
-0.0491712
-0.0528303
-0.0564252
-0.0587944
0.0198326
0.0194936
0.0191702
0.0188459
0.0185013
0.0181434
0.0177959
0.0174743
0.0171849
0.0169219
0.0166779
0.0164436
0.0162127
0.0159799
0.0157425
0.0154986
0.0152484
0.0149917
0.0147283
0.0144582
0.0141816
0.0138973
0.0136047
0.0133026
0.0129881
0.01266
0.0123148
0.0119494
0.0115595
0.0111405
0.0106857
0.010187
0.00963754
0.00902501
0.00834461
0.00757986
0.00671551
0.00573645
0.00462385
0.00335851
0.00192116
0.000288882
-0.00156208
-0.00365355
-0.00600476
-0.00863214
-0.0115484
-0.0147542
-0.0182573
-0.0220255
-0.0260447
-0.0302012
-0.0345747
-0.0390338
-0.0434051
-0.0476025
-0.0513526
-0.0551601
-0.0588393
-0.0613392
0.0193442
0.0189922
0.0186555
0.0183176
0.0179595
0.0175885
0.0172291
0.0168971
0.0165984
0.0163271
0.0160752
0.015833
0.015594
0.0153531
0.0151072
0.0148549
0.0145962
0.0143314
0.0140602
0.013783
0.0135002
0.0132103
0.012913
0.0126067
0.0122888
0.0119577
0.0116102
0.011243
0.0108518
0.0104316
0.00997635
0.00947745
0.00892555
0.00831486
0.00763212
0.00686537
0.00599789
0.00501439
0.0038956
0.00262165
0.00117272
-0.000475278
-0.00234707
-0.00446626
-0.00685293
-0.00952603
-0.0124992
-0.0157765
-0.0193659
-0.0232372
-0.0273724
-0.0316589
-0.0361716
-0.0407817
-0.0453116
-0.0496713
-0.053574
-0.0575332
-0.0613002
-0.063946
0.0187676
0.018404
0.0180562
0.0177072
0.017338
0.0169563
0.0165869
0.0162456
0.0159386
0.0156594
0.0154004
0.0151514
0.0149064
0.0146595
0.0144085
0.0141511
0.0138881
0.013619
0.0133442
0.0130634
0.0127775
0.0124849
0.0121853
0.0118772
0.0115582
0.0112265
0.0108788
0.010512
0.0101214
0.00970243
0.00924812
0.00875021
0.00820138
0.00758879
0.0069071
0.00613924
0.0052697
0.0042831
0.00315957
0.00187866
0.000419686
-0.0012424
-0.00313379
-0.00527932
-0.00770062
-0.0104185
-0.0134482
-0.016797
-0.020473
-0.0244482
-0.0286992
-0.0331175
-0.0377698
-0.0425305
-0.0472189
-0.0517408
-0.0557968
-0.0599097
-0.0637663
-0.0665723
0.0181659
0.0177902
0.0174295
0.0170668
0.0166833
0.0162875
0.0159052
0.0155527
0.0152361
0.0149489
0.0146827
0.0144275
0.0141764
0.013924
0.0136673
0.0134048
0.0131369
0.0128635
0.012585
0.0123014
0.0120135
0.0117196
0.0114197
0.011112
0.010794
0.0104639
0.0101184
0.00975411
0.00936647
0.0089504
0.00849941
0.00800463
0.00745644
0.00684834
0.00616676
0.00539923
0.0045289
0.0035401
0.00241243
0.0011248
-0.000344325
-0.00202082
-0.00393247
-0.00610503
-0.00856198
-0.0113257
-0.0144133
-0.0178352
-0.0215994
-0.0256805
-0.0300488
-0.034602
-0.0393975
-0.044311
-0.0491602
-0.0538476
-0.0580607
-0.0623317
-0.0662834
-0.0692622
0.0174221
0.0170344
0.0166639
0.0162925
0.0159016
0.0154993
0.0151119
0.0147549
0.014435
0.0141447
0.0138765
0.0136191
0.0133667
0.0131128
0.0128556
0.0125925
0.0123247
0.0120515
0.0117736
0.0114908
0.0112044
0.0109121
0.0106145
0.0103095
0.00999482
0.0096686
0.00932741
0.00896783
0.00858503
0.00817408
0.00772762
0.00723707
0.00669469
0.00608721
0.00540906
0.00464293
0.0037731
0.0027838
0.00165396
0.000361572
-0.00111551
-0.00280457
-0.00473443
-0.00693245
-0.00942331
-0.0122316
-0.015376
-0.0188706
-0.0227222
-0.0269096
-0.0313941
-0.0360839
-0.041024
-0.0460906
-0.0511007
-0.0559543
-0.0603261
-0.0647585
-0.0688116
-0.0719719
0.0166678
0.0162665
0.0158827
0.0154984
0.0150952
0.0146819
0.0142853
0.0139214
0.0135965
0.0133027
0.0130318
0.0127723
0.0125179
0.0122623
0.0120034
0.0117387
0.0114697
0.0111959
0.0109183
0.0106365
0.0103522
0.0100629
0.00976923
0.00946897
0.00915973
0.00883954
0.00850486
0.00815206
0.00777624
0.00737194
0.00693222
0.00644775
0.00590869
0.00530821
0.00463242
0.0038693
0.0030015
0.00201295
0.000881793
-0.000414721
-0.00189956
-0.00360103
-0.00554934
-0.00777293
-0.0102982
-0.0131516
-0.0163537
-0.0199217
-0.023862
-0.0281568
-0.0327588
-0.0375903
-0.042678
-0.0479005
-0.0530744
-0.0580982
-0.0626333
-0.0672326
-0.0713942
-0.0747457
0.0158192
0.0154062
0.0150117
0.0146173
0.0142047
0.0137829
0.0133793
0.0130097
0.0126807
0.0123837
0.012111
0.0118503
0.011596
0.0113409
0.0110835
0.0108209
0.0105549
0.0102845
0.0100109
0.00973366
0.00945447
0.00917084
0.00888357
0.00859033
0.00828869
0.00797666
0.00765054
0.00730655
0.00693944
0.00654381
0.00611177
0.00563438
0.00510385
0.00450592
0.00383645
0.00307748
0.00221336
0.00122747
9.71037e-05
-0.00120128
-0.00269161
-0.00440321
-0.00636777
-0.00861476
-0.0111726
-0.0140692
-0.0173275
-0.0209675
-0.0249954
-0.0293968
-0.034116
-0.0390906
-0.0443285
-0.049708
-0.0550466
-0.0602419
-0.064943
-0.0697136
-0.0739897
-0.0775417
0.01495
0.014525
0.0141182
0.013711
0.0132855
0.0128515
0.0124375
0.01206
0.0117253
0.0114248
0.0111498
0.0108882
0.0106335
0.0103789
0.0101223
0.00986121
0.00959718
0.00932974
0.00906001
0.0087876
0.00851445
0.00823783
0.00795866
0.00767435
0.00738238
0.00708057
0.00676503
0.00643173
0.00607519
0.00568948
0.00526715
0.00479871
0.00427364
0.00368572
0.00302126
0.0022684
0.00140942
0.000427241
-0.000701551
-0.00200139
-0.00349682
-0.00521842
-0.00719896
-0.00946944
-0.0120596
-0.0149998
-0.0183144
-0.0220274
-0.0261428
-0.0306525
-0.03549
-0.040612
-0.0460045
-0.0515448
-0.057052
-0.0624234
-0.067296
-0.0722437
-0.0766401
-0.0804037
0.0139371
0.0135007
0.0130852
0.0126711
0.0122405
0.0118029
0.0113872
0.0110089
0.0106752
0.0103763
0.0101042
0.00984569
0.00959539
0.00934518
0.00909425
0.00883886
0.00858176
0.00832144
0.00805969
0.00779563
0.00753164
0.0072647
0.00699599
0.00672278
0.00644249
0.00615284
0.00584967
0.0055288
0.00518424
0.00481027
0.00439861
0.00393992
0.00342633
0.00284381
0.0021886
0.00144294
0.000590218
-0.000386762
-0.00151227
-0.00281151
-0.00430985
-0.00603912
-0.00803332
-0.0103249
-0.0129452
-0.015927
-0.019296
-0.0230801
-0.0272815
-0.0318983
-0.0368537
-0.0421237
-0.0476736
-0.0533769
-0.0590546
-0.0646045
-0.0696522
-0.0747823
-0.0793046
-0.0832897
0.012928
0.0124783
0.0120502
0.0116243
0.011183
0.0107364
0.0103141
0.0099322
0.00959711
0.00929889
0.00902867
0.00877301
0.00852579
0.00827945
0.00803246
0.00778166
0.00752971
0.00727555
0.00702104
0.00676539
0.00651121
0.00625512
0.00599848
0.00573815
0.0054714
0.00519571
0.00490664
0.00459971
0.00426881
0.00390783
0.00350885
0.00306204
0.00255698
0.00198736
0.00133984
0.000602424
-0.000243304
-0.00121472
-0.00233674
-0.00363524
-0.0051364
-0.00687309
-0.00888079
-0.0111932
-0.0138436
-0.0168666
-0.0202903
-0.0241455
-0.0284336
-0.033158
-0.0382334
-0.0436545
-0.0493663
-0.055237
-0.0610899
-0.0668235
-0.0720522
-0.0773705
-0.0820237
-0.0862414
0.0118251
0.0113643
0.0109266
0.0104921
0.0100431
0.00959021
0.00916359
0.00877911
0.00844363
0.00814647
0.0078792
0.00762756
0.00738621
0.00714642
0.00690766
0.00666577
0.00642417
0.00618095
0.00593836
0.00569519
0.00545429
0.00521199
0.00496977
0.00472432
0.00447281
0.00421254
0.00393892
0.00364728
0.0033313
0.00298486
0.00259934
0.00216504
0.0016741
0.00111169
0.000475562
-0.000253328
-0.00109137
-0.0020562
-0.00317331
-0.00446932
-0.00597118
-0.00771301
-0.00973174
-0.0120625
-0.0147406
-0.0178026
-0.0212789
-0.0252032
-0.0295765
-0.0344068
-0.0396025
-0.0451742
-0.0510507
-0.0570917
-0.0631226
-0.069043
-0.0744569
-0.0799692
-0.084758
-0.0892179
0.0106753
0.0102022
0.00975307
0.00930811
0.00884984
0.00838953
0.00795855
0.00757317
0.00723995
0.0069478
0.00668721
0.00644374
0.00621101
0.00598071
0.00575154
0.00551987
0.00528898
0.0050573
0.00482707
0.00459709
0.00437037
0.00414283
0.00391616
0.0036866
0.0034513
0.0032073
0.00294994
0.00267436
0.00237407
0.00204257
0.00167163
0.00125102
0.000769702
0.000222204
-0.000405185
-0.00112453
-0.00195445
-0.00291259
-0.00402485
-0.00531842
-0.00682094
-0.00856769
-0.0105971
-0.0129458
-0.0156513
-0.0187521
-0.0222811
-0.0262743
-0.0307336
-0.0356703
-0.0409889
-0.0467135
-0.0527582
-0.0589743
-0.0651882
-0.0713013
-0.0769064
-0.0826186
-0.0875467
-0.0922589
0.00934309
0.00885452
0.00839998
0.00795801
0.00750989
0.00706384
0.00665006
0.00628169
0.0059656
0.00568903
0.00544366
0.00521357
0.00499445
0.00477684
0.00456135
0.00434311
0.00412672
0.0039095
0.00369434
0.00347941
0.00326814
0.00305603
0.00284509
0.00263131
0.00241193
0.00218387
0.00194239
0.00168255
0.0013975
0.00108103
0.000724047
0.000316465
-0.00014957
-0.000688845
-0.00130355
-0.00201297
-0.00283419
-0.00378459
-0.00489055
-0.00617982
-0.00768074
-0.00942996
-0.0114675
-0.0138315
-0.0165618
-0.0196989
-0.0232785
-0.0273387
-0.0318825
-0.0369244
-0.0423656
-0.0482421
-0.0544567
-0.0608509
-0.0672512
-0.0735607
-0.079362
-0.0852801
-0.0903513
-0.0953226
0.00844124
0.00793659
0.00745602
0.00698128
0.0064968
0.0060165
0.00557202
0.00517962
0.00484447
0.00455482
0.00429976
0.00406431
0.00384178
0.00362359
0.00340901
0.00319399
0.00298253
0.00277227
0.00256572
0.00236089
0.00216114
0.00196142
0.00176379
0.00156379
0.00135854
0.00114484
0.000917762
0.000672263
0.00040149
9.89356e-05
-0.000244002
-0.000637919
-0.00109363
-0.00161701
-0.00222175
-0.00292056
-0.00373256
-0.004675
-0.00577452
-0.00705932
-0.00855838
-0.0103096
-0.0123547
-0.0147334
-0.017488
-0.0206611
-0.0242911
-0.0284185
-0.0330476
-0.0381953
-0.0437613
-0.0497917
-0.0561788
-0.0627555
-0.0693472
-0.0758589
-0.0818623
-0.0879919
-0.0932087
-0.0984472
0.00711446
0.00660758
0.00613444
0.00567275
0.00520535
0.00474195
0.00431503
0.00393796
0.00361765
0.00334037
0.0030972
0.0028715
0.00265878
0.00244947
0.00224418
0.00203814
0.00183607
0.00163516
0.00143814
0.001243
0.0010532
0.000863679
0.000676633
0.000487606
0.000293677
9.16563e-05
-0.000123391
-0.000356533
-0.000614704
-0.000904284
-0.0012346
-0.00161599
-0.00205642
-0.00257154
-0.00316272
-0.00385077
-0.00465258
-0.00558548
-0.00667656
-0.00795452
-0.00944901
-0.0111994
-0.013249
-0.0156396
-0.0184156
-0.0216222
-0.0253006
-0.0294933
-0.0342062
-0.0394589
-0.0451495
-0.0513325
-0.0578932
-0.064655
-0.0714418
-0.0781599
-0.0843706
-0.0907176
-0.0960829
-0.101591
0.00625308
0.00573624
0.00524362
0.0047553
0.00425671
0.00376257
0.00330687
0.00290615
0.00256611
0.00227403
0.00201867
0.00178436
0.00156425
0.00134962
0.00113973
0.000930664
0.000726622
0.000525405
0.000329358
0.000136701
-4.92145e-05
-0.000233691
-0.000414534
-0.00059643
-0.000782445
-0.000975825
-0.00118152
-0.00140463
-0.00165209
-0.00193067
-0.0022491
-0.00261838
-0.00304985
-0.00354904
-0.00413008
-0.00480625
-0.00559698
-0.00651958
-0.00760151
-0.00887194
-0.0103611
-0.0121097
-0.014163
-0.0165645
-0.0193613
-0.0226009
-0.0263273
-0.0305856
-0.0353833
-0.0407419
-0.046559
-0.0528964
-0.0596331
-0.0665838
-0.0735704
-0.0805002
-0.0869242
-0.0934935
-0.0990094
-0.104792
0.00493872
0.00442437
0.00394526
0.00347717
0.00300319
0.00253301
0.00210093
0.00172014
0.00139798
0.00111977
0.00087629
0.000650309
0.000437297
0.000227724
2.22151e-05
-0.000183643
-0.00038491
-0.000583896
-0.000778048
-0.000968791
-0.00115266
-0.00133464
-0.00151243
-0.00169047
-0.00187187
-0.00205966
-0.00225886
-0.00247448
-0.00271373
-0.00298297
-0.00329182
-0.00365096
-0.00406843
-0.00455979
-0.00512678
-0.00579052
-0.0065689
-0.00747909
-0.00854924
-0.0098091
-0.0112897
-0.0130331
-0.0150865
-0.0174958
-0.0203102
-0.0235801
-0.0273525
-0.0316747
-0.0365559
-0.0420199
-0.0479629
-0.0544535
-0.0613665
-0.0685083
-0.0756984
-0.0828444
-0.089487
-0.0962841
-0.101954
-0.108011
0.00416561
0.00364598
0.00314983
0.00265539
0.00214889
0.00164534
0.00118063
0.000771449
0.000423861
0.000124583
-0.000137948
-0.000379541
-0.000607155
-0.000829137
-0.00104637
-0.00126217
-0.00147232
-0.0016784
-0.00187839
-0.00207342
-0.00226017
-0.0024438
-0.00262201
-0.00279932
-0.00297901
-0.00316395
-0.00335928
-0.00356994
-0.00380303
-0.00406515
-0.00436523
-0.00471454
-0.00512401
-0.00559984
-0.00615591
-0.00680626
-0.00757112
-0.00846774
-0.00952488
-0.0107729
-0.0122436
-0.0139805
-0.0160329
-0.0184486
-0.0212796
-0.0245792
-0.0283972
-0.0327835
-0.0377491
-0.0433196
-0.0493902
-0.0560358
-0.0631269
-0.0704629
-0.0778607
-0.0852277
-0.0920945
-0.0991234
-0.104949
-0.111287
0.00295638
0.00244707
0.00196391
0.00148181
0.000986104
0.000490088
3.15315e-05
-0.000373551
-0.000717121
-0.00101328
-0.00127222
-0.00151115
-0.00173566
-0.00195512
-0.0021699
-0.0023841
-0.00259333
-0.00279935
-0.00300026
-0.00319671
-0.00338538
-0.00357091
-0.00375086
-0.00392928
-0.00410944
-0.00429383
-0.00448751
-0.00469522
-0.00492403
-0.00518023
-0.00547345
-0.00581436
-0.006211
-0.00667962
-0.00722085
-0.00785728
-0.00860684
-0.00948723
-0.0105281
-0.0117606
-0.0132175
-0.014944
-0.0169913
-0.0194098
-0.0222543
-0.0255808
-0.0294422
-0.0338911
-0.03894
-0.0446165
-0.0508145
-0.0576137
-0.0648832
-0.0724153
-0.0800242
-0.0876166
-0.0947127
-0.101978
-0.107964
-0.114583
0.00178781
0.00127514
0.000792541
0.000313521
-0.000176607
-0.000665484
-0.00111561
-0.00151159
-0.00184651
-0.00213496
-0.00238851
-0.00262361
-0.00284723
-0.00306757
-0.00328563
-0.00350413
-0.00371876
-0.00393028
-0.00413691
-0.00433872
-0.00453231
-0.00472227
-0.00490598
-0.00508737
-0.00526974
-0.0054553
-0.00564896
-0.00585527
-0.00608111
-0.00633303
-0.00661975
-0.00695261
-0.00734274
-0.00779572
-0.00832542
-0.0089462
-0.00967881
-0.0105413
-0.0115641
-0.0127795
-0.0142208
-0.0159351
-0.0179758
-0.0203956
-0.0232522
-0.0266047
-0.0305091
-0.0350207
-0.0401537
-0.0459373
-0.052264
-0.0592189
-0.0666686
-0.0743992
-0.0822227
-0.0900447
-0.097375
-0.10488
-0.111028
-0.117938
0.000599813
7.79461e-05
-0.000412138
-0.000896578
-0.00139051
-0.00188138
-0.00233108
-0.00272483
-0.00305542
-0.00333868
-0.00358583
-0.00381515
-0.0040327
-0.00424802
-0.00446174
-0.0046775
-0.00489079
-0.00510259
-0.00531111
-0.00551594
-0.00571353
-0.00590788
-0.00609611
-0.00628159
-0.00646752
-0.00665556
-0.00685056
-0.0070567
-0.00728095
-0.00752921
-0.00781096
-0.0081368
-0.00851441
-0.00895958
-0.00947273
-0.0100765
-0.0107899
-0.0116313
-0.0126324
-0.0138263
-0.0152477
-0.0169455
-0.0189753
-0.0213926
-0.0242578
-0.0276333
-0.0315785
-0.0361514
-0.0413675
-0.0472579
-0.0537128
-0.0608221
-0.0684517
-0.0763826
-0.0844238
-0.0924797
-0.100049
-0.107798
-0.11411
-0.121316
-0.000454493
-0.00098446
-0.00148452
-0.0019811
-0.00248821
-0.00299159
-0.00345223
-0.00385424
-0.00419155
-0.00447987
-0.0047324
-0.0049664
-0.00519006
-0.00541172
-0.00563324
-0.00585698
-0.00607891
-0.00629906
-0.00651603
-0.00672885
-0.006934
-0.00713539
-0.00733001
-0.00752104
-0.00771174
-0.00790332
-0.00810059
-0.00830746
-0.00853056
-0.00877587
-0.00905182
-0.00936962
-0.00973948
-0.0101673
-0.0106661
-0.0112507
-0.0119429
-0.0127611
-0.0137383
-0.0149089
-0.0163083
-0.0179876
-0.0200046
-0.0224176
-0.0252899
-0.0286875
-0.0326727
-0.0373069