/*--------------------------------*- C++ -*----------------------------------*\
  =========                 |
  \\      /  F ield         | OpenFOAM: The Open Source CFD Toolbox
   \\    /   O peration     | Website:  https://openfoam.org
    \\  /    A nd           | Version:  6.0
     \\/     M anipulation  |
\*---------------------------------------------------------------------------*/
FoamFile
{
    version     2.0;
    format      ascii;
    class       surfaceScalarField;
    location    "8";
    object      phi;
}
// * * * * * * * * * * * * * * * * * * * * * * * * * * * * * * * * * * * * * //

dimensions      [0 3 -1 0 0 0 0];

internalField   nonuniform List<scalar> 
123526
(
5.47904e-05
2.30564e-05
-5.44206e-05
5.52031e-05
2.49239e-05
5.56481e-05
2.69415e-05
5.61308e-05
2.91214e-05
5.66529e-05
3.14766e-05
5.72187e-05
3.40212e-05
5.78315e-05
3.67702e-05
5.84956e-05
3.97396e-05
5.92162e-05
4.29463e-05
5.99975e-05
4.64103e-05
6.08433e-05
5.01523e-05
6.17597e-05
5.41933e-05
6.27513e-05
5.85566e-05
6.3828e-05
6.32653e-05
6.49956e-05
6.83475e-05
6.62607e-05
7.38358e-05
6.76292e-05
7.97582e-05
6.91173e-05
8.61422e-05
7.07307e-05
9.30307e-05
7.24776e-05
0.000100462
7.4374e-05
0.000108467
7.64324e-05
0.000117095
7.86587e-05
0.000126396
8.10792e-05
0.000136399
8.3698e-05
0.000147174
8.65363e-05
0.000158761
8.96109e-05
0.000171214
9.29368e-05
0.000184596
9.65381e-05
0.000198951
0.00010043
0.00021435
0.000104637
0.000230835
0.000109179
0.000248472
0.000114078
0.000267303
0.000119358
0.000287378
0.000125042
0.000308734
0.000131161
0.000331389
0.000137732
0.000355363
0.000144784
0.000380634
0.000152341
0.00040716
0.000160426
0.000434864
0.000169059
0.000463614
0.000178261
0.000493214
0.000188046
0.000523395
0.000198421
0.00055378
0.000209385
0.000583872
0.000220925
0.000613017
0.000233011
0.000640378
0.000245593
0.000664887
0.000258589
0.000685208
0.00027189
0.000699672
0.000285337
0.000706231
0.000298736
0.000702358
0.000311805
0.000685046
0.000324224
0.000650582
0.000335565
0.000594682
0.000345313
0.000512434
0.000353013
0.000398561
0.000356007
0.000250503
0.00035977
7.14292e-05
-0.000221529
0.000382861
5.41842e-05
2.26757e-05
-5.38204e-05
5.45913e-05
2.45114e-05
5.50314e-05
2.64942e-05
5.55107e-05
2.86368e-05
5.60292e-05
3.09521e-05
5.65918e-05
3.34538e-05
5.72009e-05
3.61563e-05
5.78611e-05
3.90754e-05
5.85769e-05
4.22266e-05
5.93529e-05
4.56313e-05
6.01922e-05
4.93097e-05
6.11012e-05
5.3282e-05
6.20837e-05
5.75711e-05
6.31498e-05
6.21973e-05
6.43046e-05
6.71897e-05
6.55546e-05
7.25837e-05
6.69055e-05
7.84041e-05
6.8373e-05
8.46722e-05
6.99625e-05
9.14378e-05
7.16821e-05
9.87399e-05
7.35473e-05
0.000106599
7.55702e-05
0.00011507
7.77567e-05
0.000124206
8.01322e-05
0.00013402
8.27008e-05
0.000144602
8.54831e-05
0.000155976
8.84957e-05
0.000168199
9.17527e-05
0.000181337
9.52785e-05
0.000195423
9.90863e-05
0.00021054
0.000103203
0.000226716
0.000107645
0.000244028
0.000112436
0.000262509
0.000117598
0.000282211
0.000123154
0.000303173
0.000129137
0.000325403
0.000135564
0.000348933
0.000142465
0.000373732
0.000149864
0.00039976
0.000157783
0.000426945
0.000166245
0.000455153
0.000175271
0.000484192
0.000184874
0.000513797
0.000195061
0.0005436
0.000205832
0.000573112
0.000217171
0.000601692
0.000229046
0.000628519
0.000241407
0.000652548
0.000254168
0.000672469
0.000267225
0.000686646
0.000280414
0.000693067
0.000293551
0.000689258
0.000306349
0.000672246
0.0003185
0.000638406
0.000329579
0.000583531
0.000339083
0.000502834
0.000346504
0.00039099
0.000350948
0.000245843
0.000349901
7.20221e-05
-0.000216129
0.000344152
5.32217e-05
2.22994e-05
-5.28623e-05
5.36242e-05
2.41033e-05
5.40596e-05
2.60516e-05
5.45338e-05
2.81573e-05
5.50469e-05
3.04331e-05
5.56041e-05
3.28919e-05
5.62074e-05
3.55481e-05
5.68618e-05
3.84169e-05
5.75715e-05
4.15129e-05
5.83412e-05
4.48583e-05
5.91738e-05
4.84734e-05
6.00758e-05
5.23773e-05
6.10507e-05
5.65926e-05
6.21083e-05
6.11371e-05
6.32536e-05
6.60407e-05
6.44928e-05
7.13419e-05
6.5831e-05
7.70621e-05
6.72838e-05
8.32166e-05
6.88557e-05
8.98621e-05
7.0555e-05
9.70377e-05
7.23961e-05
0.000104754
7.43912e-05
0.000113072
7.65455e-05
0.000122048
7.88842e-05
0.000131679
8.14111e-05
0.000142072
8.41464e-05
0.000153238
8.71065e-05
0.000165235
9.03051e-05
0.000178135
9.37664e-05
0.000191958
9.75035e-05
0.0002068
0.000101543
0.000222674
0.000105901
0.000239668
0.000110601
0.000257804
0.000115665
0.00027714
0.000121117
0.000297713
0.000126988
0.000319526
0.000133297
0.000342617
0.000140072
0.000366951
0.000147339
0.000392488
0.00015512
0.00041916
0.000163437
0.000446834
0.000172309
0.000475318
0.00018175
0.000504357
0.000191765
0.000533587
0.000202352
0.000562528
0.000213494
0.000590554
0.000225157
0.000616859
0.000237289
0.000640421
0.000249806
0.000659953
0.000262604
0.000673852
0.000275522
0.000680141
0.000288381
0.000676393
0.000300897
0.000659689
0.000312771
0.000626487
0.000323588
0.000572643
0.000332864
0.000493484
0.000340039
0.000383709
0.000344428
0.000241335
0.000345198
7.10883e-05
-0.000215145
0.00034415
5.25766e-05
2.19242e-05
-5.22154e-05
5.29775e-05
2.36981e-05
5.34087e-05
2.56142e-05
5.38765e-05
2.76851e-05
5.43809e-05
2.99234e-05
5.4927e-05
3.23417e-05
5.55167e-05
3.49539e-05
5.61555e-05
3.77748e-05
5.6847e-05
4.08178e-05
5.75967e-05
4.41061e-05
5.84072e-05
4.766e-05
5.92852e-05
5.14975e-05
6.02342e-05
5.56408e-05
6.12645e-05
6.01054e-05
6.23806e-05
6.49218e-05
6.35892e-05
7.01314e-05
6.48953e-05
7.57528e-05
6.63144e-05
8.17952e-05
6.7851e-05
8.8322e-05
6.95133e-05
9.53727e-05
7.13155e-05
0.000102948
7.32694e-05
0.000111115
7.53802e-05
0.000119933
7.76726e-05
0.000129383
8.01501e-05
0.000139591
8.28325e-05
0.000150552
8.57359e-05
0.000162328
8.88739e-05
0.000174993
9.22703e-05
0.000188558
9.59377e-05
0.000203129
9.99031e-05
0.000218706
0.000104181
0.000235386
0.000108796
0.000253184
0.00011377
0.000272159
0.000119126
0.000292349
0.000124894
0.00031375
0.000131095
0.000336409
0.000137755
0.000360283
0.000144899
0.000385336
0.000152549
0.000411503
0.000160726
0.000438648
0.000169449
0.000466587
0.000178729
0.000495068
0.000188571
0.000523736
0.000198971
0.000552119
0.000209911
0.000579605
0.000221357
0.000605404
0.000233256
0.000628513
0.000245525
0.000647672
0.000258062
0.000661308
0.000270709
0.000667478
0.000283294
0.000663799
0.000295536
0.000647395
0.000307146
0.000614796
0.000317723
0.000561942
0.000326804
0.000484247
0.000333822
0.000376474
0.000338179
0.000236675
0.000339148
6.9554e-05
-0.000214327
0.000337908
5.22029e-05
2.15521e-05
-5.18484e-05
5.25971e-05
2.32976e-05
5.30212e-05
2.51829e-05
5.34802e-05
2.72203e-05
5.39752e-05
2.94224e-05
5.451e-05
3.18018e-05
5.50873e-05
3.43718e-05
5.5711e-05
3.71468e-05
5.63856e-05
4.01392e-05
5.71152e-05
4.33729e-05
5.79033e-05
4.68682e-05
5.87556e-05
5.06421e-05
5.96767e-05
5.47163e-05
6.06757e-05
5.91036e-05
6.17583e-05
6.38355e-05
6.29306e-05
6.89564e-05
6.41982e-05
7.44814e-05
6.55764e-05
8.04143e-05
6.70699e-05
8.68248e-05
6.8687e-05
9.37527e-05
7.04418e-05
0.00010119
7.23461e-05
0.000109207
7.44052e-05
0.000117871
7.66433e-05
0.000127142
7.90641e-05
0.000137166
8.16871e-05
0.000147925
8.45281e-05
0.000159483
8.76004e-05
0.000171917
9.09274e-05
0.000185227
9.45217e-05
0.000199531
9.84098e-05
0.000214814
0.000102606
0.000231186
0.000107135
0.00024865
0.000112016
0.000267269
0.000117275
0.000287082
0.00012294
0.000308076
0.000129031
0.00033031
0.000135573
0.000353732
0.000142593
0.000378308
0.000150109
0.000403979
0.000158143
0.000430608
0.000166712
0.000458012
0.000175827
0.000485948
0.000185492
0.000514067
0.0001957
0.000541907
0.000206435
0.000568867
0.000217661
0.000594175
0.000229326
0.000616846
0.000241348
0.000635644
0.000253628
0.000649025
0.000266013
0.00065508
0.000278333
0.00065147
0.000290316
0.000635374
0.000301679
0.000603392
0.000312034
0.000551525
0.00032094
0.000475281
0.000327827
0.000369504
0.000332118
0.000232302
0.000333334
6.82425e-05
-0.000213069
0.000332071
5.18961e-05
2.11898e-05
-5.15471e-05
5.22814e-05
2.29079e-05
5.26958e-05
2.47627e-05
5.31446e-05
2.67671e-05
5.36287e-05
2.89335e-05
5.41521e-05
3.12744e-05
5.47171e-05
3.38028e-05
5.53278e-05
3.65328e-05
5.59881e-05
3.94757e-05
5.67023e-05
4.26565e-05
5.74731e-05
4.6095e-05
5.83064e-05
4.98074e-05
5.92058e-05
5.38147e-05
6.01809e-05
5.81274e-05
6.12365e-05
6.27777e-05
6.2379e-05
6.78125e-05
6.36138e-05
7.3244e-05
6.49559e-05
7.90701e-05
6.64105e-05
8.53672e-05
6.79856e-05
9.21751e-05
6.96955e-05
9.94765e-05
7.1552e-05
0.000107348
7.35605e-05
0.000115859
7.5745e-05
0.000124954
7.81092e-05
0.000134798
8.06726e-05
0.000145359
8.34506e-05
0.000156702
8.64566e-05
0.000168907
8.97136e-05
0.000181966
9.32339e-05
0.000196007
9.70437e-05
0.000211001
0.000101158
0.000227069
0.000105598
0.000244203
0.000110387
0.000262473
0.000115547
0.000281914
0.000121107
0.000302509
0.000127086
0.000324323
0.000133509
0.000347301
0.0001404
0.000371408
0.00014778
0.00039659
0.000155668
0.00042271
0.00016408
0.000449589
0.000173026
0.00047699
0.000182509
0.000504571
0.000192524
0.000531879
0.000203051
0.000558325
0.000214057
0.000583152
0.00022549
0.000605396
0.000237271
0.000623842
0.000249301
0.000636975
0.000261432
0.00064292
0.0002735
0.000639378
0.000285236
0.000623574
0.000296366
0.000592168
0.000306511
0.000541246
0.000315247
0.000466379
0.000322007
0.000362518
0.000326229
0.000227767
0.000327588
6.63134e-05
-0.000212042
0.000326139
5.1532e-05
2.08375e-05
-5.11946e-05
5.19065e-05
2.25281e-05
5.23105e-05
2.43525e-05
5.27487e-05
2.63239e-05
5.32224e-05
2.84548e-05
5.37352e-05
3.07573e-05
5.42897e-05
3.32442e-05
5.48893e-05
3.59294e-05
5.55385e-05
3.88232e-05
5.62403e-05
4.19513e-05
5.69983e-05
4.53339e-05
5.78171e-05
4.89856e-05
5.87012e-05
5.29274e-05
5.96586e-05
5.71673e-05
6.06949e-05
6.1738e-05
6.18155e-05
6.66892e-05
6.30262e-05
7.20299e-05
6.43412e-05
7.77525e-05
6.57656e-05
8.39394e-05
6.73073e-05
9.06308e-05
6.89804e-05
9.78001e-05
7.07965e-05
0.000105529
7.27612e-05
0.000113891
7.48981e-05
0.000122815
7.72112e-05
0.000132481
7.97195e-05
0.000142847
8.24387e-05
0.000153979
8.53819e-05
0.000165961
8.85718e-05
0.000178773
9.20208e-05
0.000192555
9.57544e-05
0.000207265
9.97865e-05
0.000223033
0.000104142
0.000239844
0.000108838
0.000257768
0.0001139
0.000276844
0.000119355
0.000297046
0.000125222
0.000318449
0.000131525
0.00034099
0.000138288
0.000364638
0.00014553
0.000389341
0.000153269
0.000414964
0.000161523
0.00044133
0.000170299
0.000468209
0.0001796
0.000495266
0.000189421
0.000522055
0.000199742
0.000548002
0.00021053
0.000572362
0.000221735
0.00059419
0.000233279
0.000612295
0.000245066
0.000625188
0.000256951
0.000631027
0.000268776
0.000627556
0.000280276
0.000612048
0.000291183
0.000581233
0.00030113
0.000531257
0.0003097
0.000457772
0.000316337
0.000355833
0.000320505
0.000223566
0.000321917
6.4889e-05
-0.000210321
0.000320253
5.1076e-05
2.04955e-05
-5.07439e-05
5.14423e-05
2.21585e-05
5.18375e-05
2.39528e-05
5.22664e-05
2.58916e-05
5.27302e-05
2.79872e-05
5.32325e-05
3.02516e-05
5.37761e-05
3.26973e-05
5.4365e-05
3.53379e-05
5.5003e-05
3.81827e-05
5.56941e-05
4.12585e-05
5.64407e-05
4.45853e-05
5.72484e-05
4.8177e-05
5.812e-05
5.20541e-05
5.90646e-05
5.62221e-05
6.00864e-05
6.07145e-05
6.11911e-05
6.55835e-05
6.23835e-05
7.08352e-05
6.36779e-05
7.64564e-05
6.5079e-05
8.25356e-05
6.65945e-05
8.9113e-05
6.82383e-05
9.61533e-05
7.00215e-05
0.000103743
7.19497e-05
0.000111959
7.40462e-05
0.000120715
7.6315e-05
0.000130209
7.87749e-05
0.000140384
8.14412e-05
0.000151309
8.43271e-05
0.000163071
8.74549e-05
0.000175641
9.08369e-05
0.000189169
9.44982e-05
0.0002036
9.84535e-05
0.000219075
0.000102724
0.000235567
0.000107332
0.000253154
0.000112298
0.00027187
0.00011765
0.000291687
0.000123406
0.000312686
0.00012959
0.000334799
0.000136225
0.000357995
0.00014333
0.000382228
0.000150922
0.000407362
0.000159017
0.000433225
0.000167624
0.000459591
0.000176744
0.000486132
0.000186372
0.000512413
0.000196489
0.000537868
0.000207063
0.000561769
0.000218045
0.000583189
0.000229358
0.000600957
0.000240909
0.000613612
0.000252557
0.000619346
0.000264147
0.000615939
0.000275421
0.00060071
0.000286115
0.000570445
0.00029587
0.00052137
0.00030428
0.000449196
0.000310802
0.00034909
0.000314921
0.000219142
0.00031632
6.29392e-05
-0.00020885
0.000314446
5.05248e-05
2.01593e-05
-5.02043e-05
5.08822e-05
2.17948e-05
5.12694e-05
2.35593e-05
5.16895e-05
2.54659e-05
5.21449e-05
2.75268e-05
5.26381e-05
2.97535e-05
5.3173e-05
3.21584e-05
5.3752e-05
3.47547e-05
5.43806e-05
3.75509e-05
5.50609e-05
4.05746e-05
5.57973e-05
4.3846e-05
5.65934e-05
4.73779e-05
5.74541e-05
5.11905e-05
5.83862e-05
5.52873e-05
5.93955e-05
5.97022e-05
6.04861e-05
6.44902e-05
6.16639e-05
6.96544e-05
6.29416e-05
7.51762e-05
6.43242e-05
8.11499e-05
6.58187e-05
8.7616e-05
6.74388e-05
9.45303e-05
6.91951e-05
0.000101985
7.10931e-05
0.000110058
7.31554e-05
0.000118651
7.53861e-05
0.000127975
7.78036e-05
0.000137964
8.0423e-05
0.000148686
8.32573e-05
0.000160234
8.63283e-05
0.000172567
8.96485e-05
0.000185846
9.32424e-05
0.000200004
9.71236e-05
0.00021519
0.000101316
0.000231372
0.000105837
0.000248625
0.000110711
0.00026699
0.000115962
0.000286428
0.00012161
0.000307031
0.000127678
0.000328724
0.000134187
0.000351479
0.000141156
0.000375252
0.000148603
0.00039991
0.000156542
0.000425281
0.000164982
0.000451148
0.000173924
0.000477187
0.000183363
0.000502973
0.00019328
0.00052795
0.000203645
0.000551405
0.000214408
0.000572428
0.000225497
0.000589869
0.00023682
0.000602296
0.000248238
0.000607927
0.000259602
0.000604587
0.000270658
0.000589644
0.000281147
0.000559944
0.000290718
0.000511778
0.000298975
0.000440929
0.000305387
0.000342668
0.000309455
0.000215093
0.000310803
6.16678e-05
-0.000206673
0.000308747
4.99043e-05
1.98302e-05
-4.95854e-05
5.02566e-05
2.14388e-05
5.06375e-05
2.3174e-05
5.10505e-05
2.50491e-05
5.14978e-05
2.70759e-05
5.19821e-05
2.92657e-05
5.25071e-05
3.16305e-05
5.30759e-05
3.41832e-05
5.36934e-05
3.69313e-05
5.43628e-05
3.99036e-05
5.50874e-05
4.31199e-05
5.5872e-05
4.65925e-05
5.67201e-05
5.03412e-05
5.76399e-05
5.43671e-05
5.86357e-05
5.87051e-05
5.97126e-05
6.34126e-05
6.08753e-05
6.849e-05
6.21367e-05
7.39133e-05
6.35017e-05
7.97827e-05
6.49767e-05
8.61389e-05
6.65751e-05
9.29292e-05
6.83073e-05
0.00010025
7.01784e-05
0.000108184
7.22104e-05
0.000116616
7.44073e-05
0.000125775
7.67869e-05
0.000135582
7.93641e-05
0.000146106
8.21515e-05
0.000157443
8.51706e-05
0.000169544
8.84334e-05
0.00018258
9.19642e-05
0.00019647
9.57773e-05
0.000211375
9.98928e-05
0.00022725
0.000104333
0.00024418
0.000109117
0.0002622
0.000114272
0.000281267
0.000119815
0.000301482
0.000125769
0.000322764
0.000132156
0.000345085
0.000138993
0.000368408
0.000146298
0.000392597
0.000154084
0.000417485
0.00016236
0.00044286
0.000171128
0.000468406
0.000180382
0.000493704
0.000190105
0.00051821
0.000200265
0.000541225
0.000210817
0.000561855
0.000221688
0.000578972
0.00023279
0.000591168
0.000243986
0.000596696
0.000255132
0.000593415
0.000265978
0.000578739
0.000276269
0.000549564
0.000285664
0.00050226
0.000293771
0.000432667
0.000300078
0.000336158
0.000304091
0.000210799
0.00030537
5.98779e-05
-0.000204835
0.000303162
4.92287e-05
1.95057e-05
-4.89169e-05
4.95748e-05
2.10877e-05
4.99494e-05
2.27943e-05
5.03554e-05
2.46385e-05
5.07954e-05
2.66318e-05
5.12717e-05
2.87853e-05
5.17882e-05
3.11107e-05
5.23473e-05
3.36205e-05
5.29546e-05
3.63213e-05
5.36123e-05
3.92428e-05
5.43249e-05
4.24047e-05
5.5096e-05
4.58185e-05
5.5931e-05
4.95037e-05
5.68361e-05
5.34593e-05
5.78175e-05
5.7721e-05
5.88788e-05
6.23488e-05
6.00259e-05
6.73401e-05
6.12705e-05
7.26661e-05
6.26178e-05
7.84327e-05
6.40737e-05
8.46806e-05
6.56513e-05
9.13488e-05
6.73605e-05
9.85386e-05
6.92062e-05
0.000106335
7.12099e-05
0.00011461
7.33753e-05
0.000123607
7.57197e-05
0.000133235
7.82577e-05
0.000143565
8.10015e-05
0.000154697
8.39721e-05
0.00016657
8.71813e-05
0.000179368
9.06528e-05
0.000192996
9.43997e-05
0.000207624
9.84453e-05
0.000223203
0.000102806
0.000239813
0.000107505
0.000257495
0.000112567
0.0002762
0.000118008
0.000296035
0.000123852
0.000316914
0.00013012
0.000338812
0.000136828
0.000361694
0.000143994
0.000385427
0.000151632
0.000409843
0.000159749
0.000434741
0.000168348
0.000459806
0.000177422
0.00048463
0.000186956
0.000508678
0.000196919
0.000531265
0.000207266
0.000551513
0.000217927
0.000568316
0.000228815
0.00058029
0.000239797
0.00058572
0.000250733
0.000582503
0.000261376
0.000568098
0.000271476
0.000539466
0.0002807
0.000493034
0.000288663
0.000424714
0.000294866
0.000329977
0.000298818
0.00020691
0.000300024
5.88175e-05
-0.000202334
0.000297696
4.85206e-05
1.91878e-05
-4.82096e-05
4.88618e-05
2.07439e-05
4.92303e-05
2.24225e-05
4.96294e-05
2.42365e-05
5.00615e-05
2.61971e-05
5.05289e-05
2.8315e-05
5.10354e-05
3.06018e-05
5.15842e-05
3.30695e-05
5.218e-05
3.57238e-05
5.2826e-05
3.85954e-05
5.35258e-05
4.17038e-05
5.42842e-05
4.50597e-05
5.51047e-05
4.86822e-05
5.59954e-05
5.25684e-05
5.69609e-05
5.67545e-05
5.80059e-05
6.13031e-05
5.91355e-05
6.62091e-05
6.03618e-05
7.14384e-05
6.16896e-05
7.71028e-05
6.31248e-05
8.32434e-05
6.46804e-05
8.97908e-05
6.63657e-05
9.6851e-05
6.81858e-05
0.000104513
7.01612e-05
0.000112632
7.22957e-05
0.00012147
7.46059e-05
0.000130922
7.71061e-05
0.000141062
7.9808e-05
0.000151992
8.27323e-05
0.000163643
8.58901e-05
0.000176207
8.93049e-05
0.000189579
9.29903e-05
0.000203937
9.69654e-05
0.000219222
0.000101253
0.000235522
0.000105869
0.000252873
0.00011084
0.000271223
0.000116184
0.000290686
0.000121922
0.000311171
0.000128074
0.000332654
0.000134658
0.000355104
0.00014169
0.000378387
0.000149183
0.000402341
0.000157146
0.000426768
0.000165581
0.00045136
0.000174481
0.000475715
0.000183832
0.000499311
0.000193604
0.000521474
0.000203753
0.000541343
0.00021421
0.000557832
0.000224892
0.000569582
0.000235667
0.00057491
0.000246399
0.000571746
0.000256846
0.000557595
0.000266762
0.000529466
0.00027582
0.00048386
0.000283643
0.000416745
0.000289743
0.000323685
0.00029363
0.000202757
0.000294767
5.72022e-05
-0.000200251
0.000292343
4.77843e-05
1.88736e-05
-4.74844e-05
4.81177e-05
2.04042e-05
4.84793e-05
2.20553e-05
4.88706e-05
2.38395e-05
4.92953e-05
2.5768e-05
4.97543e-05
2.7851e-05
5.0253e-05
3.00998e-05
5.0792e-05
3.25262e-05
5.13782e-05
3.5135e-05
5.20124e-05
3.79575e-05
5.27005e-05
4.10134e-05
5.34446e-05
4.43123e-05
5.42515e-05
4.78732e-05
5.5126e-05
5.16909e-05
5.60756e-05
5.58026e-05
5.71028e-05
6.02732e-05
5.82144e-05
6.5095e-05
5.94212e-05
7.02292e-05
6.07288e-05
7.57929e-05
6.21423e-05
8.18276e-05
6.36748e-05
8.82559e-05
6.53353e-05
9.51883e-05
6.71289e-05
0.000102717
6.90754e-05
0.000110683
7.11785e-05
0.000119364
7.34545e-05
0.000128644
7.59171e-05
0.000138597
7.85778e-05
0.000149329
8.14566e-05
0.000160762
8.45646e-05
0.000173097
8.79243e-05
0.000186218
9.15482e-05
0.00020031
9.54589e-05
0.00021531
9.96718e-05
0.000231303
0.000104209
0.000248332
0.000109093
0.000266334
0.000114342
0.000285432
0.000119977
0.000305532
0.000126017
0.000326608
0.00013248
0.000348637
0.000139382
0.000371482
0.000146736
0.000394985
0.000154549
0.000418953
0.000162825
0.000443084
0.000171557
0.000466984
0.000180731
0.00049014
0.000190319
0.000511892
0.000200276
0.000531394
0.000210537
0.000547579
0.000221019
0.000559115
0.000231595
0.000564345
0.00024213
0.000561242
0.000252387
0.000547352
0.000262124
0.000519743
0.000271021
0.000474976
0.000278708
0.000409088
0.000284706
0.000317735
0.000288527
0.000199038
0.000289599
5.63403e-05
-0.000197539
0.000287102
4.70378e-05
1.85662e-05
-4.67385e-05
4.73665e-05
2.00719e-05
4.77222e-05
2.16961e-05
4.81068e-05
2.34512e-05
4.85239e-05
2.53481e-05
4.89744e-05
2.7397e-05
4.94634e-05
2.96086e-05
4.99923e-05
3.19945e-05
5.05672e-05
3.45586e-05
5.11899e-05
3.73332e-05
5.18651e-05
4.03376e-05
5.25961e-05
4.35807e-05
5.33878e-05
4.70811e-05
5.4247e-05
5.08316e-05
5.51792e-05
5.48699e-05
5.61884e-05
5.92635e-05
5.72803e-05
6.40021e-05
5.84662e-05
6.9042e-05
5.97515e-05
7.4506e-05
6.11414e-05
8.04358e-05
6.26491e-05
8.67461e-05
6.4283e-05
9.35522e-05
6.60484e-05
0.000100949
6.79646e-05
0.000108765
7.00354e-05
0.000117291
7.22763e-05
0.000126401
7.47009e-05
0.000136169
7.73201e-05
0.000146707
8.01537e-05
0.000157926
8.32121e-05
0.000170036
8.65176e-05
0.00018291
9.00831e-05
0.000196743
9.39269e-05
0.000211461
9.80703e-05
0.000227157
0.000102529
0.000243868
0.000107329
0.00026153
0.000112486
0.000280271
0.000118021
0.000299993
0.000123953
0.000320671
0.000130299
0.000342285
0.000137074
0.0003647
0.000144293
0.000387758
0.000151962
0.000411274
0.000160083
0.000434951
0.000168653
0.000458401
0.000177656
0.000481121
0.000187064
0.000502464
0.000196837
0.0005216
0.000206909
0.000537482
0.000217197
0.0005488
0.00022758
0.000553929
0.000237924
0.000550875
0.000247997
0.000537228
0.00025756
0.000510103
0.000266301
0.000466128
0.000273853
0.000401401
0.000279751
0.000311663
0.000283503
0.000195044
0.000284519
5.48866e-05
-0.000195296
0.000281967
4.62811e-05
1.82632e-05
-4.59892e-05
4.66035e-05
1.97445e-05
4.69531e-05
2.13422e-05
4.7331e-05
2.30687e-05
4.7741e-05
2.49347e-05
4.81839e-05
2.695e-05
4.86648e-05
2.91251e-05
4.91844e-05
3.14713e-05
4.97494e-05
3.39916e-05
5.03604e-05
3.67189e-05
5.10232e-05
3.96728e-05
5.17399e-05
4.28611e-05
5.25171e-05
4.6302e-05
5.33595e-05
4.99864e-05
5.42745e-05
5.39527e-05
5.52647e-05
5.82708e-05
5.6337e-05
6.29277e-05
5.75015e-05
6.7875e-05
5.87644e-05
7.3241e-05
6.01303e-05
7.90676e-05
6.16123e-05
8.52619e-05
6.32189e-05
9.19436e-05
6.49551e-05
9.92105e-05
6.68401e-05
0.000106878
6.88773e-05
0.000115251
7.10821e-05
0.000124194
7.34679e-05
0.000133781
7.60452e-05
0.000144128
7.88331e-05
0.000155136
8.18421e-05
0.000167025
8.50936e-05
0.000179657
8.85993e-05
0.000193235
9.23811e-05
0.000207678
9.64533e-05
0.00022308
0.000100837
0.000239481
0.000105554
0.000256808
0.000110621
0.000275201
0.000116058
0.000294552
0.000121885
0.000314841
0.000128117
0.00033605
0.00013477
0.000358044
0.000141857
0.00038067
0.000149385
0.000403745
0.000157358
0.000426979
0.00016577
0.000449991
0.000174608
0.000472289
0.000183843
0.000493236
0.000193437
0.000512017
0.000203324
0.000527606
0.000213426
0.000538716
0.000223621
0.000543751
0.00023378
0.000540753
0.000243674
0.000527357
0.000253068
0.000500731
0.000261657
0.000457565
0.000269079
0.000394023
0.000274876
0.000305937
0.00027856
0.000191491
0.000279527
5.41835e-05
-0.000192454
0.000276935
4.55266e-05
1.7967e-05
-4.52351e-05
4.58443e-05
1.94244e-05
4.6188e-05
2.09964e-05
4.65592e-05
2.26949e-05
4.69616e-05
2.45305e-05
4.7396e-05
2.65129e-05
4.78672e-05
2.86522e-05
4.83769e-05
3.09595e-05
4.89307e-05
3.34368e-05
4.95305e-05
3.6118e-05
5.01807e-05
3.90223e-05
5.08847e-05
4.21569e-05
5.16469e-05
4.55396e-05
5.24743e-05
4.91593e-05
5.3372e-05
5.30548e-05
5.43439e-05
5.72985e-05
5.53959e-05
6.18749e-05
5.65388e-05
6.6731e-05
5.77782e-05
7.20002e-05
5.9119e-05
7.77249e-05
6.05745e-05
8.38047e-05
6.21525e-05
9.03635e-05
6.38585e-05
9.75024e-05
6.57111e-05
0.000105023
6.77138e-05
0.000113247
6.98816e-05
0.000122024
7.22277e-05
0.000131433
7.47622e-05
0.000141591
7.75041e-05
0.000152392
8.04632e-05
0.000164064
8.36606e-05
0.000176458
8.71088e-05
0.000189786
9.08251e-05
0.000203957
9.483e-05
0.000219074
9.91384e-05
0.000235169
0.000103774
0.000252169
0.000108753
0.000270219
0.000114095
0.000289206
0.000119819
0.000309113
0.00012594
0.000329924
0.000132474
0.000351505
0.000139433
0.000373703
0.000146826
0.000396344
0.000154654
0.00041914
0.000162913
0.000441719
0.000171589
0.000463597
0.000180657
0.00048415
0.000190077
0.000502578
0.000199787
0.000517873
0.000209707
0.000528771
0.00021972
0.000533707
0.000229698
0.000530754
0.000239419
0.000517589
0.000248648
0.000491428
0.000257088
0.000449025
0.000264382
0.000386602
0.000270081
0.000300073
0.000273696
0.000187648
0.000274621
5.28499e-05
-0.000190116
0.000272001
4.4769e-05
1.76744e-05
-4.4489e-05
4.5079e-05
1.91083e-05
4.54159e-05
2.06547e-05
4.57796e-05
2.23257e-05
4.6175e-05
2.41315e-05
4.66016e-05
2.60815e-05
4.70655e-05
2.81858e-05
4.7566e-05
3.04549e-05
4.8111e-05
3.289e-05
4.86996e-05
3.55258e-05
4.93386e-05
3.83815e-05
5.0029e-05
4.14634e-05
5.0778e-05
4.47891e-05
5.15892e-05
4.83453e-05
5.24706e-05
5.21717e-05
5.3424e-05
5.63426e-05
5.44568e-05
6.08403e-05
5.55783e-05
6.56071e-05
5.67951e-05
7.07817e-05
5.81113e-05
7.64066e-05
5.95403e-05
8.23739e-05
6.10897e-05
8.8812e-05
6.27653e-05
9.5825e-05
6.45849e-05
0.000103202
6.65525e-05
0.000111277
6.86827e-05
0.000119892
7.09884e-05
0.000129126
7.34796e-05
0.000139098
7.61748e-05
0.000149694
7.90839e-05
0.000161153
8.22271e-05
0.000173314
8.56158e-05
0.000186395
8.9271e-05
0.000200302
9.32061e-05
0.000215134
9.74411e-05
0.000230931
0.000101997
0.00024761
0.000106889
0.000265323
0.000112138
0.000283955
0.00011776
0.000303487
0.000123773
0.000323909
0.000130191
0.000345085
0.000137026
0.000366868
0.000144286
0.000389085
0.000151973
0.000411456
0.000160084
0.000433613
0.000168604
0.000455084
0.000177509
0.000475254
0.000186761
0.00049334
0.000196297
0.000508351
0.000206041
0.000519048
0.000215876
0.000523891
0.000225679
0.000520992
0.00023523
0.000508069
0.000244299
0.000482389
0.000252594
0.000440767
0.000259762
0.00037949
0.000265364
0.000294561
0.000268913
0.000184258
0.000269801
5.22699e-05
-0.000187199
0.000267165
4.4021e-05
1.73885e-05
-4.37409e-05
4.43267e-05
1.87994e-05
4.4658e-05
2.03209e-05
4.50155e-05
2.19649e-05
4.54036e-05
2.37415e-05
4.58221e-05
2.56599e-05
4.62766e-05
2.77297e-05
4.67677e-05
2.99613e-05
4.73019e-05
3.23552e-05
4.78799e-05
3.49466e-05
4.85067e-05
3.77548e-05
4.91848e-05
4.07851e-05
4.99194e-05
4.40548e-05
5.0716e-05
4.75489e-05
5.15806e-05
5.13073e-05
5.25162e-05
5.54068e-05
5.35291e-05
5.9827e-05
5.46292e-05
6.45059e-05
5.58226e-05
6.95873e-05
5.71137e-05
7.51138e-05
5.85157e-05
8.09703e-05
6.00361e-05
8.72896e-05
6.16808e-05
9.41786e-05
6.34671e-05
0.000101413
6.53993e-05
0.000109343
6.74914e-05
0.000117798
6.97563e-05
0.000126859
7.22038e-05
0.000136649
7.48521e-05
0.000147044
7.77105e-05
0.000158293
8.07994e-05
0.000170224
8.41308e-05
0.000183063
8.7721e-05
0.000196708
9.15898e-05
0.000211264
9.57512e-05
0.000226766
0.000100228
0.00024313
0.000105035
0.000260514
0.000110192
0.000278795
0.000115716
0.00029796
0.000121623
0.000317998
0.000127926
0.000338776
0.00013464
0.000360148
0.000141771
0.000381946
0.000149321
0.000403896
0.000157287
0.000425636
0.000165655
0.000446701
0.000174402
0.000466491
0.000183489
0.000484235
0.000192856
0.000498962
0.000202428
0.000509453
0.000212091
0.000514199
0.000221723
0.000511342
0.000231108
0.000498641
0.000240021
0.000473409
0.000248173
0.000432522
0.000255219
0.000372328
0.000260724
0.000288905
0.000264207
0.000180568
0.000265065
5.1042e-05
-0.000184802
0.000262419
4.32767e-05
1.71068e-05
-4.30041e-05
4.35764e-05
1.8495e-05
4.39019e-05
1.9992e-05
4.4253e-05
2.16095e-05
4.46346e-05
2.33574e-05
4.5046e-05
2.52447e-05
4.54931e-05
2.72807e-05
4.59755e-05
2.94756e-05
4.65005e-05
3.18289e-05
4.70675e-05
3.43766e-05
4.76829e-05
3.7138e-05
4.83475e-05
4.01177e-05
4.90686e-05
4.33325e-05
4.98494e-05
4.67655e-05
5.06979e-05
5.04574e-05
5.16153e-05
5.44869e-05
5.26094e-05
5.88314e-05
5.36886e-05
6.34244e-05
5.48597e-05
6.84146e-05
5.61265e-05
7.38448e-05
5.75023e-05
7.95929e-05
5.89943e-05
8.57957e-05
6.06083e-05
9.25629e-05
6.23616e-05
9.96583e-05
6.42582e-05
0.000107445
6.63122e-05
0.000115742
6.85362e-05
0.000124633
7.09399e-05
0.000134243
7.3541e-05
0.000144442
7.63491e-05
0.000155484
7.93837e-05
0.000167188
8.26557e-05
0.00017979
8.61853e-05
0.000193179
8.99852e-05
0.000207461
9.40746e-05
0.000222675
9.84734e-05
0.000238729
0.000103196
0.000255788
0.000108262
0.000273727
0.00011369
0.00029253
0.000119492
0.000312194
0.000125685
0.000332583
0.000132279
0.000353554
0.000139284
0.000374944
0.0001467
0.000396483
0.000154525
0.000417817
0.000162745
0.000438489
0.000171337
0.00045791
0.000180264
0.000475324
0.000189467
0.000489777
0.000198871
0.000500073
0.000208365
0.000504729
0.00021783
0.000501923
0.000227053
0.000489453
0.000235812
0.000464686
0.000243825
0.000424554
0.00025075
0.00036547
0.000256161
0.000283598
0.00025958
0.000177331
0.000260413
5.05595e-05
-0.000181845
0.000257766
4.25456e-05
1.68317e-05
-4.22729e-05
4.2841e-05
1.81979e-05
4.3161e-05
1.96709e-05
4.35058e-05
2.12625e-05
4.38801e-05
2.29823e-05
4.42834e-05
2.4839e-05
4.47213e-05
2.68419e-05
4.51944e-05
2.90006e-05
4.57089e-05
3.13141e-05
4.62655e-05
3.38192e-05
4.68691e-05
3.65347e-05
4.75221e-05
3.94648e-05
4.82293e-05
4.26257e-05
4.89963e-05
4.59989e-05
4.98286e-05
4.96254e-05
5.07291e-05
5.35862e-05
5.1704e-05
5.78562e-05
5.27627e-05
6.23647e-05
5.39113e-05
6.72651e-05
5.51539e-05
7.26006e-05
5.65034e-05
7.8242e-05
5.7967e-05
8.43302e-05
5.95506e-05
9.09777e-05
6.1271e-05
9.79361e-05
6.31324e-05
0.000105582
6.51484e-05
0.000113725
6.73316e-05
0.000122449
6.96915e-05
0.000131882
7.22457e-05
0.000141886
7.50033e-05
0.000152725
7.79837e-05
0.000164207
8.11987e-05
0.000176575
8.46639e-05
0.000189711
8.83985e-05
0.000203726
9.24156e-05
0.000218656
9.67372e-05
0.000234405
0.000101377
0.000251146
0.000106354
0.000268748
0.000111686
0.000287196
0.000117386
0.000306491
0.00012347
0.000326496
0.000129948
0.00034707
0.000136829
0.000368057
0.000144114
0.00038919
0.000151801
0.000410121
0.000159876
0.000430402
0.000168317
0.000449456
0.000177087
0.000466539
0.000186129
0.000480716
0.000195369
0.000490813
0.000204698
0.000495374
0.000213999
0.000492607
0.000223064
0.000480349
0.000231673
0.000456013
0.000239549
0.00041659
0.000246356
0.000358552
0.000251674
0.000278138
0.00025503
0.000173779
0.000255841
4.94126e-05
-0.00017942
0.000253198
4.18189e-05
1.65597e-05
-4.15578e-05
4.21068e-05
1.79041e-05
4.24203e-05
1.93535e-05
4.27579e-05
2.09195e-05
4.31257e-05
2.26116e-05
4.35217e-05
2.44384e-05
4.39529e-05
2.64087e-05
4.44174e-05
2.8532e-05
4.49238e-05
3.08065e-05
4.54699e-05
3.32695e-05
4.60634e-05
3.59401e-05
4.67037e-05
3.88214e-05
4.73988e-05
4.19296e-05
4.81509e-05
4.52441e-05
4.89684e-05
4.88067e-05
4.98518e-05
5.27004e-05
5.08091e-05
5.68977e-05
5.1848e-05
6.13235e-05
5.29754e-05
6.61363e-05
5.41947e-05
7.13793e-05