/*--------------------------------*- C++ -*----------------------------------*\
  =========                 |
  \\      /  F ield         | OpenFOAM: The Open Source CFD Toolbox
   \\    /   O peration     | Website:  https://openfoam.org
    \\  /    A nd           | Version:  6.0
     \\/     M anipulation  |
\*---------------------------------------------------------------------------*/
FoamFile
{
    version     2.0;
    format      ascii;
    class       volVectorField;
    location    "8";
    object      U;
}
// * * * * * * * * * * * * * * * * * * * * * * * * * * * * * * * * * * * * * //

dimensions      [0 1 -1 0 0 0 0];

internalField   nonuniform List<vector> 
62000
(
(0.984583 -0.175492 -4.50308e-21)
(0.984605 -0.175495 3.75057e-21)
(0.98462 -0.175488 3.82438e-21)
(0.984633 -0.175441 -1.67215e-20)
(0.984646 -0.175364 -1.90007e-20)
(0.984658 -0.175273 6.57348e-20)
(0.984668 -0.175179 -7.20374e-20)
(0.984674 -0.17509 4.18108e-20)
(0.984677 -0.17501 -1.94434e-20)
(0.984677 -0.174937 -9.87559e-20)
(0.984674 -0.174871 -1.19422e-20)
(0.984669 -0.174811 1.37501e-19)
(0.984662 -0.174755 2.7586e-20)
(0.984654 -0.174704 -9.66339e-20)
(0.984644 -0.174656 1.495e-19)
(0.984635 -0.174612 -7.92407e-20)
(0.984624 -0.174573 8.0338e-20)
(0.984614 -0.174537 -9.43593e-20)
(0.984603 -0.174506 4.55332e-20)
(0.984592 -0.174479 -1.38714e-19)
(0.98458 -0.174456 1.798e-19)
(0.984569 -0.174436 5.06828e-20)
(0.984558 -0.174421 7.08222e-20)
(0.984547 -0.174409 -3.29748e-19)
(0.984536 -0.1744 1.19182e-19)
(0.984525 -0.174394 -7.00539e-20)
(0.984514 -0.174391 1.37196e-21)
(0.984503 -0.17439 -5.11426e-20)
(0.984493 -0.174391 1.65597e-19)
(0.984483 -0.174393 -8.49693e-20)
(0.984473 -0.174397 1.99119e-19)
(0.984465 -0.1744 -3.96189e-19)
(0.984459 -0.174403 4.01532e-20)
(0.984453 -0.1744 -1.11624e-19)
(0.984449 -0.174393 -2.78676e-20)
(0.984447 -0.174384 -1.05637e-19)
(0.984447 -0.174373 -1.10706e-20)
(0.984452 -0.174358 -1.2503e-20)
(0.984461 -0.17434 8.47982e-20)
(0.984474 -0.174317 3.16994e-19)
(0.984495 -0.174292 -6.68652e-20)
(0.984524 -0.174264 -3.09798e-19)
(0.984565 -0.174234 -3.80591e-19)
(0.984623 -0.174201 1.44575e-19)
(0.984704 -0.174162 3.29045e-20)
(0.984817 -0.174108 -1.5897e-20)
(0.984973 -0.174026 -3.02684e-20)
(0.985185 -0.173895 7.75763e-20)
(0.985466 -0.173683 6.30946e-19)
(0.985825 -0.173352 2.55273e-19)
(0.98627 -0.17285 1.76196e-19)
(0.986795 -0.172122 2.40685e-18)
(0.987389 -0.171088 -6.53179e-19)
(0.988009 -0.169678 -3.81628e-18)
(0.988616 -0.167779 -9.89535e-19)
(0.989154 -0.165213 -4.17029e-18)
(0.989499 -0.161618 3.49609e-19)
(0.991108 -0.15559 4.55743e-19)
(0.980724 -0.142615 -1.75642e-18)
(1.02911 -0.134539 -1.94326e-19)
(0.98459 -0.17654 -1.20475e-21)
(0.984581 -0.176582 1.14697e-20)
(0.98454 -0.176717 4.67402e-21)
(0.984502 -0.176803 -2.02666e-20)
(0.98448 -0.176827 8.37515e-21)
(0.984468 -0.176798 -5.75175e-20)
(0.984463 -0.176733 5.26585e-20)
(0.984461 -0.176652 3.03003e-20)
(0.984459 -0.176572 -5.65782e-20)
(0.984455 -0.176503 2.52501e-21)
(0.984449 -0.176446 5.43959e-20)
(0.984441 -0.176401 -1.03757e-24)
(0.98443 -0.176365 1.53331e-20)
(0.984418 -0.176337 -1.32053e-19)
(0.984404 -0.176313 2.63358e-19)
(0.98439 -0.176294 -2.3178e-19)
(0.984376 -0.176278 1.07765e-19)
(0.984361 -0.176265 -2.27335e-20)
(0.984347 -0.176254 -6.05712e-20)
(0.984333 -0.176244 1.65096e-19)
(0.98432 -0.176235 -2.58484e-19)
(0.984309 -0.176226 1.48612e-19)
(0.984298 -0.176217 -1.8477e-19)
(0.984289 -0.176207 1.10345e-19)
(0.984281 -0.176196 9.81698e-20)
(0.984276 -0.176183 -6.4339e-20)
(0.984271 -0.176166 1.70305e-21)
(0.98427 -0.176146 7.06584e-20)
(0.984269 -0.17612 5.66543e-20)
(0.984272 -0.176089 -1.05535e-19)
(0.984276 -0.176053 2.13021e-19)
(0.984284 -0.17601 3.71209e-20)
(0.984295 -0.175955 1.17031e-19)
(0.984308 -0.175886 2.08035e-21)
(0.984321 -0.175806 2.50083e-20)
(0.984336 -0.175718 -3.86703e-20)
(0.984354 -0.175628 -9.47481e-20)
(0.984374 -0.175538 -5.37857e-20)
(0.984398 -0.175448 -2.19129e-19)
(0.984426 -0.175364 -2.07691e-19)
(0.984461 -0.17529 1.52436e-19)
(0.984506 -0.17523 7.4328e-20)
(0.984569 -0.175186 4.2712e-19)
(0.984659 -0.175156 1.91829e-20)
(0.98479 -0.175131 -3.06987e-19)
(0.98498 -0.175091 3.28466e-20)
(0.985249 -0.175005 -9.21788e-20)
(0.985618 -0.174827 -1.40782e-19)
(0.986106 -0.174496 -1.46324e-19)
(0.986722 -0.173944 -4.31581e-20)
(0.987463 -0.17309 -8.45151e-19)
(0.988305 -0.171855 -2.94832e-18)
(0.989197 -0.170156 2.45128e-18)
(0.990042 -0.167935 6.61335e-18)
(0.990722 -0.165145 1.77501e-18)
(0.991083 -0.161765 1.67076e-18)
(0.990805 -0.157878 3.25933e-18)
(0.990998 -0.152818 1.85061e-18)
(0.98722 -0.143585 -3.18493e-18)
(0.973467 -0.173534 -5.64529e-19)
(0.984653 -0.176168 -5.83983e-21)
(0.98456 -0.176244 -7.87124e-22)
(0.984429 -0.176487 9.32216e-22)
(0.984318 -0.176701 4.08387e-21)
(0.984237 -0.176865 1.14349e-20)
(0.984178 -0.176962 -1.08318e-20)
(0.984135 -0.176993 5.73778e-20)
(0.984104 -0.176974 -2.74079e-20)
(0.984084 -0.176932 -1.46715e-20)
(0.98407 -0.176887 -8.94394e-20)
(0.984061 -0.176851 7.5334e-20)
(0.984057 -0.176828 5.50634e-21)
(0.984055 -0.176818 -1.701e-20)
(0.984057 -0.176818 4.49188e-20)
(0.984061 -0.176826 -7.65123e-20)
(0.984067 -0.17684 6.66757e-22)
(0.984076 -0.176859 -3.42166e-20)
(0.984086 -0.176879 1.28885e-21)
(0.984098 -0.176902 7.87677e-20)
(0.984112 -0.176924 -1.18461e-19)
(0.984127 -0.176945 7.3625e-20)
(0.984144 -0.176964 2.78493e-19)
(0.984162 -0.176979 -4.08348e-20)
(0.984181 -0.176989 -3.78726e-19)
(0.984203 -0.176994 1.93925e-19)
(0.984226 -0.176992 -9.98437e-20)
(0.984252 -0.176983 1.61665e-19)
(0.98428 -0.176964 -1.00501e-19)
(0.98431 -0.176937 -1.84868e-19)
(0.984343 -0.176899 1.89752e-19)
(0.984379 -0.176852 -1.29473e-19)
(0.984418 -0.176795 1.65651e-19)
(0.98446 -0.176722 -4.37172e-19)
(0.984503 -0.176632 3.67648e-19)
(0.984546 -0.176528 -1.85923e-19)
(0.984586 -0.176418 7.82444e-20)
(0.984625 -0.176309 5.89321e-20)
(0.984662 -0.176204 1.16944e-20)
(0.984696 -0.176109 6.16621e-21)
(0.984726 -0.176029 2.40498e-19)
(0.984753 -0.175972 -7.19975e-20)
(0.984778 -0.175946 9.54187e-20)
(0.984806 -0.175956 -2.84326e-19)
(0.984845 -0.176 -1.05196e-19)
(0.984905 -0.17607 2.36032e-20)
(0.985002 -0.176147 -1.82684e-19)
(0.985153 -0.1762 -2.66137e-20)
(0.985376 -0.176185 1.44301e-19)
(0.985686 -0.176043 -4.19644e-19)
(0.986092 -0.175713 -2.02525e-19)
(0.986587 -0.175129 2.0244e-20)
(0.987146 -0.174234 2.32008e-19)
(0.98771 -0.172983 -7.35658e-19)
(0.988184 -0.171375 -1.08744e-18)
(0.988443 -0.169459 1.5833e-18)
(0.988343 -0.167363 1.60221e-18)
(0.987604 -0.165493 3.43851e-19)
(0.987203 -0.163028 3.4994e-18)
(0.983381 -0.159719 5.30947e-20)
(0.990156 -0.173752 -4.4484e-19)
(0.98435 -0.176938 -5.80461e-21)
(0.984228 -0.177065 1.76686e-20)
(0.984082 -0.177328 -2.73184e-21)
(0.983962 -0.177592 -1.79444e-20)
(0.983875 -0.17784 2.683e-20)
(0.983809 -0.178033 4.58366e-20)
(0.983754 -0.178144 -5.96845e-20)
(0.98371 -0.17818 6.42389e-21)
(0.983673 -0.178162 2.03926e-20)
(0.983644 -0.178117 4.21676e-20)
(0.983622 -0.178065 -7.78349e-20)
(0.983607 -0.178017 -2.36991e-20)
(0.983599 -0.177977 -2.61754e-20)
(0.983599 -0.177946 1.19531e-19)
(0.983604 -0.177923 -7.90999e-20)
(0.983617 -0.177906 1.82079e-19)
(0.983636 -0.177895 -2.19634e-19)
(0.98366 -0.177888 -3.08575e-20)
(0.983689 -0.177884 2.25394e-19)
(0.983722 -0.177883 -7.8586e-20)
(0.983759 -0.177883 -2.8686e-20)
(0.983799 -0.177882 -2.95058e-20)
(0.983842 -0.177881 -2.6021e-19)
(0.983886 -0.177876 1.52878e-19)
(0.983933 -0.177868 -6.31842e-20)
(0.983983 -0.177854 1.0542e-19)
(0.984034 -0.177834 4.81124e-20)
(0.984088 -0.177807 2.23354e-19)
(0.984145 -0.177771 -1.41714e-19)
(0.984204 -0.177726 -1.73189e-19)
(0.984267 -0.177674 2.62433e-19)
(0.984333 -0.177613 -2.12147e-19)
(0.984402 -0.177538 3.69716e-19)
(0.984473 -0.177447 -2.05886e-19)
(0.984543 -0.177345 9.90528e-20)
(0.984612 -0.177239 1.48641e-19)
(0.984677 -0.177137 -5.78188e-20)
(0.984738 -0.177044 4.70435e-20)
(0.984794 -0.176965 -4.08534e-20)
(0.98484 -0.176907 7.59693e-20)
(0.984877 -0.176879 -1.94231e-19)
(0.984903 -0.176887 4.29574e-20)
(0.984919 -0.176939 7.26276e-20)
(0.984927 -0.177035 1.70203e-19)
(0.984936 -0.177169 1.13265e-19)
(0.984954 -0.177325 -5.04671e-20)
(0.984992 -0.177477 9.29147e-20)
(0.985067 -0.177585 -5.32561e-21)
(0.985189 -0.177603 -1.58662e-20)
(0.985367 -0.177478 1.05528e-19)
(0.985599 -0.177161 4.24516e-19)
(0.985868 -0.176609 -1.86895e-19)
(0.986131 -0.175794 -3.14977e-19)
(0.986316 -0.174728 -2.09252e-18)
(0.986334 -0.173469 -1.69826e-18)
(0.986104 -0.172113 -2.21077e-18)
(0.985501 -0.170982 -5.07219e-18)
(0.985509 -0.168738 6.41306e-19)
(0.982722 -0.163091 4.93828e-18)
(0.991628 -0.173283 2.25989e-18)
(0.983788 -0.17883 1.11262e-20)
(0.983724 -0.178963 -3.72617e-21)
(0.983633 -0.179177 6.12835e-21)
(0.983563 -0.179424 -8.66965e-21)
(0.983524 -0.179693 1.91746e-20)
(0.983502 -0.179933 -9.49178e-21)
(0.983483 -0.180103 5.01882e-21)
(0.983464 -0.180188 -7.46391e-20)
(0.983443 -0.180202 6.22053e-20)
(0.98342 -0.180168 -1.23518e-19)
(0.983396 -0.180109 1.3532e-19)
(0.983374 -0.180039 -1.63018e-20)
(0.983354 -0.179969 -3.55591e-20)
(0.983339 -0.1799 -1.59408e-20)
(0.983329 -0.179834 -3.23841e-21)
(0.983326 -0.179771 -1.59804e-19)
(0.983329 -0.17971 8.80262e-21)
(0.98334 -0.179652 1.71748e-19)
(0.983358 -0.179596 -5.44321e-20)
(0.983383 -0.179542 -5.5932e-20)
(0.983414 -0.179491 9.50815e-20)
(0.98345 -0.179442 -4.52964e-20)
(0.983492 -0.179395 1.90355e-19)
(0.983538 -0.179347 9.95994e-20)
(0.983587 -0.1793 7.1723e-20)
(0.983641 -0.179251 -2.36985e-19)
(0.983698 -0.179199 -3.26523e-20)
(0.983759 -0.179144 -1.74578e-19)
(0.983823 -0.179084 3.37827e-20)
(0.983892 -0.17902 -5.16126e-20)
(0.983965 -0.178953 -2.10108e-20)
(0.984043 -0.178881 1.53646e-19)
(0.984126 -0.178799 -3.88019e-19)
(0.984212 -0.178704 -2.29161e-20)
(0.984301 -0.1786 -1.75151e-19)
(0.984391 -0.178497 -8.02811e-20)
(0.98448 -0.1784 -2.80391e-21)
(0.984568 -0.178314 -2.30686e-19)
(0.984653 -0.178243 3.17461e-19)
(0.984731 -0.178193 7.54721e-20)
(0.984802 -0.178171 2.90088e-19)
(0.984862 -0.178184 -1.84841e-19)
(0.98491 -0.178237 -1.1795e-19)
(0.984947 -0.17833 -6.47265e-21)
(0.984976 -0.178457 1.15821e-19)
(0.985001 -0.178604 1.07822e-19)
(0.985031 -0.178746 5.02729e-20)
(0.985075 -0.178849 3.40968e-20)
(0.985144 -0.17887 6.54141e-20)
(0.985246 -0.178765 -2.85234e-19)
(0.985382 -0.178488 -1.26843e-19)
(0.985545 -0.178 2.04651e-19)
(0.985704 -0.17727 -5.27053e-20)
(0.985814 -0.176294 -1.15795e-18)
(0.985819 -0.175095 1.10682e-19)
(0.985683 -0.173684 1.6979e-18)
(0.985406 -0.172245 5.37792e-18)
(0.985867 -0.169178 -6.1796e-18)
(0.983554 -0.161901 7.10792e-18)
(0.993358 -0.172447 -3.2201e-18)
(0.983288 -0.181086 -4.17339e-21)
(0.983312 -0.18118 1.67667e-20)
(0.98328 -0.181323 -2.74816e-20)
(0.98326 -0.181516 2.04143e-20)
(0.983272 -0.181759 1.31122e-20)
(0.983301 -0.182005 -1.3881e-20)
(0.983332 -0.182201 1.14788e-21)
(0.983358 -0.182322 -1.02965e-20)
(0.983375 -0.18237 -3.45469e-20)
(0.983383 -0.182361 6.60242e-20)
(0.98338 -0.182317 -1.02032e-19)
(0.98337 -0.182253 8.89756e-20)
(0.983354 -0.18218 7.79648e-20)
(0.983336 -0.182101 -1.20139e-19)
(0.983316 -0.18202 -3.87818e-20)
(0.983297 -0.181935 1.45084e-19)
(0.983281 -0.181848 -1.74051e-19)
(0.983269 -0.181758 2.38114e-19)
(0.983264 -0.181667 -4.60472e-20)
(0.983264 -0.181574 2.41098e-20)
(0.98327 -0.181482 -4.15231e-20)
(0.983284 -0.18139 -5.05824e-20)
(0.983304 -0.181301 -9.06294e-20)
(0.98333 -0.181211 1.54384e-19)
(0.983362 -0.181124 -1.05544e-19)
(0.983399 -0.181037 -9.92719e-20)
(0.983443 -0.18095 2.01815e-19)
(0.983492 -0.180864 -1.8815e-19)
(0.983547 -0.180776 2.90464e-19)
(0.983609 -0.180688 -1.55699e-19)
(0.983677 -0.1806 1.06984e-19)
(0.983752 -0.180513 -1.83842e-19)
(0.983835 -0.180419 1.82147e-19)
(0.983924 -0.180316 -2.65207e-20)
(0.98402 -0.180206 -1.18499e-20)
(0.984121 -0.180099 -9.7083e-21)
(0.984228 -0.179999 -9.81204e-20)
(0.984338 -0.179912 2.07411e-19)
(0.984452 -0.179837 -1.44103e-19)
(0.984568 -0.17978 -7.83549e-19)
(0.984682 -0.179745 -2.94263e-19)
(0.984794 -0.179737 1.66466e-19)
(0.9849 -0.179759 -2.00428e-19)
(0.985001 -0.179807 -1.42138e-19)
(0.985097 -0.179876 -7.29201e-21)
(0.98519 -0.17995 2.49247e-19)
(0.985284 -0.180005 -2.33263e-19)
(0.985387 -0.180009 -1.15131e-19)
(0.985504 -0.179921 8.00485e-21)
(0.985643 -0.179699 1.82682e-19)
(0.985805 -0.1793 -2.72862e-19)
(0.985988 -0.178684 1.05641e-19)
(0.986171 -0.177812 1.50985e-18)
(0.98632 -0.176664 -5.58391e-19)
(0.986399 -0.175233 -6.15113e-19)
(0.986386 -0.173482 1.91739e-18)
(0.986348 -0.171555 -1.04948e-18)
(0.986996 -0.167888 -2.73401e-18)
(0.984715 -0.160326 -1.13101e-17)
(0.994349 -0.172223 -2.2015e-19)
(0.983013 -0.183189 4.84367e-21)
(0.983097 -0.183242 -2.17373e-20)
(0.983091 -0.183331 1.05641e-20)
(0.983092 -0.18347 1.95502e-20)
(0.98313 -0.183672 -4.16742e-20)
(0.98319 -0.183898 3.4743e-20)
(0.983257 -0.184097 -2.29934e-20)
(0.983321 -0.184235 1.94184e-20)
(0.983376 -0.184308 3.08302e-20)
(0.98342 -0.184325 -7.39359e-20)
(0.98345 -0.184304 1.06393e-19)
(0.983468 -0.184261 4.49811e-20)
(0.983474 -0.184204 -1.78517e-19)
(0.983471 -0.18414 -3.30979e-20)
(0.983459 -0.184069 9.4112e-20)
(0.983442 -0.183992 6.00286e-20)
(0.983421 -0.183908 -7.25674e-20)
(0.983398 -0.183818 6.30482e-20)
(0.983377 -0.183722 9.60271e-20)
(0.983357 -0.18362 -4.75658e-20)
(0.983341 -0.183514 -2.69677e-20)
(0.983329 -0.183405 9.24078e-20)
(0.983324 -0.183295 1.86986e-19)
(0.983324 -0.183184 -1.38055e-19)
(0.983331 -0.183073 -1.47718e-19)
(0.983345 -0.182962 1.59558e-19)
(0.983367 -0.182852 -1.22469e-19)
(0.983395 -0.182743 -4.728e-20)
(0.983432 -0.182634 3.89999e-19)
(0.983477 -0.182528 -1.69111e-19)
(0.983531 -0.182424 -1.19727e-19)
(0.983595 -0.182323 1.61431e-19)
(0.98367 -0.182219 1.05668e-19)
(0.983754 -0.182107 -9.44879e-20)
(0.983849 -0.18199 -6.07936e-20)
(0.983956 -0.181876 1.77996e-19)
(0.984073 -0.18177 2.48693e-20)
(0.984201 -0.181675 5.85593e-20)
(0.98434 -0.181589 -2.66537e-19)
(0.984489 -0.181515 -2.52792e-19)
(0.984646 -0.181456 4.24124e-19)
(0.984811 -0.181412 2.89774e-19)
(0.984982 -0.181384 3.95345e-19)
(0.985156 -0.181367 -3.48367e-19)
(0.985334 -0.181353 -3.10831e-19)
(0.985515 -0.181323 -1.40502e-19)
(0.985703 -0.181255 2.14165e-19)
(0.985898 -0.181116 7.79346e-20)
(0.986106 -0.180868 6.41673e-20)
(0.98633 -0.18047 3.93803e-19)
(0.98657 -0.179882 1.84258e-20)
(0.986825 -0.179064 -2.20331e-19)
(0.987075 -0.177973 5.0559e-20)
(0.987292 -0.176579 7.48431e-19)
(0.987449 -0.174867 -1.03329e-18)
(0.987515 -0.172789 -5.76157e-19)
(0.987595 -0.170519 -1.0484e-18)
(0.988251 -0.16663 8.06362e-18)
(0.985871 -0.159192 5.43938e-19)
(0.995063 -0.17238 -4.14563e-19)
(0.982927 -0.184947 -8.03769e-21)
(0.983028 -0.184978 -6.37088e-21)
(0.983015 -0.185039 8.65259e-21)
(0.983013 -0.18514 3.03141e-20)
(0.983055 -0.185306 -6.4871e-20)
(0.983125 -0.185508 7.37137e-20)
(0.983207 -0.185698 -3.37814e-21)
(0.983292 -0.185839 -4.56586e-21)
(0.983371 -0.185924 -2.58373e-20)
(0.983443 -0.18596 6.23744e-20)
(0.983504 -0.18596 -9.58286e-20)
(0.983553 -0.185939 3.60272e-20)
(0.983589 -0.185906 -1.16991e-21)
(0.983614 -0.185865 5.59595e-20)
(0.983626 -0.185819 2.63867e-20)
(0.983628 -0.185766 -1.40021e-19)
(0.983621 -0.185706 1.20854e-19)
(0.983606 -0.185637 4.68993e-20)
(0.983586 -0.18556 -1.34748e-19)
(0.983563 -0.185474 6.56984e-20)
(0.983538 -0.185381 2.99036e-20)
(0.983515 -0.18528 -2.03814e-20)
(0.983493 -0.185176 2.36039e-20)
(0.983476 -0.185066 -1.49155e-20)
(0.983463 -0.184954 -1.59154e-19)
(0.983457 -0.184839 1.02595e-19)
(0.983459 -0.184724 -1.53613e-19)
(0.983468 -0.184608 2.78493e-19)
(0.983486 -0.184492 -5.49913e-20)
(0.983514 -0.184378 -3.14729e-20)
(0.983554 -0.184268 -9.20505e-21)
(0.983606 -0.184161 2.59374e-19)
(0.983671 -0.184052 -1.09532e-19)
(0.983749 -0.183934 -6.49727e-20)
(0.983841 -0.183813 1.4951e-19)
(0.983949 -0.183693 1.19941e-19)
(0.984074 -0.183579 -1.9761e-19)
(0.984216 -0.183473 3.7589e-20)
(0.984376 -0.183372 3.26568e-19)
(0.984554 -0.183277 -3.81552e-20)
(0.984749 -0.183187 1.83007e-19)
(0.984962 -0.183101 -2.23577e-19)
(0.98519 -0.183016 3.1428e-19)
(0.985433 -0.182926 5.46082e-19)
(0.985689 -0.182819 1.26023e-19)
(0.985957 -0.182677 -1.28393e-19)
(0.986237 -0.182475 -2.21995e-19)
(0.986529 -0.182185 -2.78362e-20)
(0.986833 -0.181767 -2.50527e-20)
(0.98715 -0.181184 -5.96795e-20)
(0.987477 -0.180397 -4.86518e-20)
(0.987811 -0.17937 9.01662e-19)
(0.988133 -0.178059 -1.08324e-18)
(0.988414 -0.176434 9.64096e-19)
(0.988626 -0.174482 -2.64136e-18)
(0.988726 -0.172168 -6.80075e-19)
(0.988847 -0.169711 -4.28822e-18)
(0.989439 -0.165805 -7.47546e-18)
(0.986925 -0.15858 -2.20572e-18)
(0.995644 -0.172824 -1.95066e-18)
(0.982927 -0.186339 -3.84066e-21)
(0.983016 -0.186364 3.28621e-21)
(0.982982 -0.18642 1.63377e-20)
(0.982965 -0.186503 2.55744e-20)
(0.982999 -0.186646 -7.53199e-20)
(0.983066 -0.186831 4.2987e-20)
(0.98315 -0.187011 -7.60038e-20)
(0.98324 -0.187151 1.18164e-19)
(0.98333 -0.18724 -5.50293e-20)
(0.983417 -0.187285 9.63833e-21)
(0.983497 -0.1873 1.04795e-19)
(0.98357 -0.187295 -2.37259e-19)
(0.983633 -0.187282 1.60898e-19)
(0.983686 -0.187264 2.25199e-20)
(0.983728 -0.187242 3.59173e-20)
(0.983759 -0.187217 -1.50358e-19)
(0.983778 -0.187187 7.34327e-20)
(0.983786 -0.187149 -9.01426e-20)
(0.983785 -0.187103 1.75955e-19)
(0.983776 -0.187047 -2.37106e-20)
(0.98376 -0.186983 -2.18826e-19)
(0.983741 -0.18691 8.68438e-20)
(0.98372 -0.186829 -4.96762e-21)
(0.983699 -0.186741 -3.06731e-19)
(0.98368 -0.186647 2.2886e-19)
(0.983665 -0.186548 1.6783e-19)
(0.983656 -0.186445 1.09448e-19)
(0.983654 -0.186339 -1.42916e-19)
(0.983661 -0.186231 -1.51814e-19)
(0.983679 -0.186124 7.05434e-20)
(0.983709 -0.186018 9.78287e-20)
(0.983753 -0.185914 -1.17303e-19)
(0.983812 -0.185808 -1.65594e-19)
(0.983886 -0.185692 3.48661e-19)
(0.983977 -0.18557 3.49855e-20)
(0.984088 -0.185447 -4.75569e-19)
(0.98422 -0.185328 4.55562e-20)
(0.984375 -0.185212 2.84932e-19)
(0.984554 -0.185095 2.40326e-20)
(0.984757 -0.184977 3.33548e-19)
(0.984985 -0.184855 -3.81533e-19)
(0.985239 -0.184726 -5.08822e-21)
(0.985517 -0.184583 -2.07352e-19)
(0.985819 -0.18442 4.07147e-20)
(0.986142 -0.184222 2.18618e-19)
(0.986486 -0.18397 4.47009e-19)
(0.986847 -0.183642 5.61445e-20)
(0.987224 -0.183207 -4.04679e-20)
(0.987614 -0.182629 -1.54253e-19)
(0.988015 -0.181874 -8.98107e-19)
(0.988421 -0.180905 1.13061e-18)
(0.988826 -0.17969 -1.92153e-18)
(0.989208 -0.178189 1.54074e-18)
(0.989537 -0.176374 1.24188e-18)
(0.989785 -0.174239 5.4895e-18)
(0.989891 -0.17177 4.04405e-19)
(0.990017 -0.169223 2.71914e-18)
(0.99053 -0.165368 4.06381e-18)
(0.987881 -0.15833 -5.01536e-18)
(0.996201 -0.173407 -6.51354e-19)
(0.982938 -0.187433 5.26885e-21)
(0.983004 -0.187463 1.80439e-21)
(0.982948 -0.187525 -1.87924e-20)
(0.982915 -0.1876 1.77695e-20)
(0.982939 -0.187733 -7.80269e-21)
(0.982998 -0.187907 1.37487e-20)
(0.983076 -0.18808 4.59833e-21)
(0.983163 -0.188216 -6.74102e-20)
(0.983253 -0.188307 2.91671e-20)
(0.983343 -0.188356 -1.95264e-20)
(0.983431 -0.188378 1.18937e-20)
(0.983516 -0.188384 4.55778e-20)
(0.983596 -0.188383 -8.45423e-21)
(0.983671 -0.188381 2.74007e-20)
(0.983738 -0.18838 -1.15045e-19)
(0.983797 -0.188377 4.42662e-20)
(0.983844 -0.188374 1.94659e-20)
(0.983882 -0.188366 -5.14962e-20)
(0.983908 -0.188352 1.01584e-19)
(0.983924 -0.18833 3.26984e-20)
(0.983931 -0.188301 -3.86917e-21)
(0.983931 -0.188262 -3.44167e-20)
(0.983924 -0.188215 1.38285e-19)
(0.983914 -0.188159 -3.7508e-19)
(0.983903 -0.188096 1.92944e-19)
(0.983892 -0.188025 7.91048e-20)
(0.983886 -0.187949 -1.31953e-19)
(0.983884 -0.187867 2.27928e-19)
(0.983891 -0.187779 -1.12167e-19)
(0.983907 -0.18769 -5.53422e-20)
(0.983936 -0.1876 -1.03761e-19)
(0.983979 -0.18751 -3.69097e-20)
(0.984038 -0.187414 1.13191e-19)
(0.984114 -0.187307 -3.22027e-19)
(0.98421 -0.187191 5.93192e-19)
(0.984328 -0.18707 -4.30842e-20)
(0.98447 -0.186949 2.7057e-19)
(0.984639 -0.186825 -6.6647e-19)
(0.984836 -0.186696 -1.85754e-19)
(0.985063 -0.186557 5.88311e-21)
(0.985321 -0.186405 -1.03903e-19)
(0.98561 -0.186235 9.3571e-21)
(0.985931 -0.186039 -3.0836e-19)
(0.986281 -0.185807 6.70406e-20)
(0.986661 -0.185526 8.98587e-20)
(0.987067 -0.185176 -3.76247e-19)
(0.987496 -0.184733 2.05497e-19)
(0.987944 -0.184169 -2.10143e-20)
(0.988406 -0.183451 -7.63326e-20)
(0.988877 -0.182546 6.9514e-19)
(0.989348 -0.181421 -3.41846e-19)
(0.989811 -0.180049 1.04593e-18)
(0.990241 -0.178393 -2.96368e-18)
(0.990606 -0.17643 -6.46841e-19)
(0.990874 -0.174164 4.24672e-18)
(0.990974 -0.171596 -1.91518e-18)
(0.991092 -0.16901 6.77313e-18)
(0.991529 -0.16522 1.96338e-18)
(0.988746 -0.158342 1.82816e-17)
(0.99677 -0.174059 2.39397e-18)
(0.982924 -0.188297 -1.15015e-21)
(0.982969 -0.188334 -4.46735e-21)
(0.982894 -0.188404 -3.82327e-21)
(0.982849 -0.188479 3.68383e-20)
(0.982863 -0.188607 -2.03484e-20)
(0.982915 -0.188777 -2.396e-20)
(0.982987 -0.188946 -8.77226e-21)
(0.983067 -0.189081 -3.59607e-20)
(0.983151 -0.189171 2.26102e-20)
(0.983237 -0.189222 3.3404e-21)
(0.983323 -0.189246 1.21826e-21)
(0.983409 -0.189257 9.30403e-20)
(0.983495 -0.189264 -6.55512e-20)
(0.98358 -0.189271 -7.99892e-21)
(0.983663 -0.189282 7.37069e-20)
(0.983741 -0.189296 -4.03472e-20)
(0.983813 -0.189312 -1.51318e-20)
(0.983877 -0.189328 2.47456e-20)
(0.983933 -0.189341 7.78023e-20)
(0.983978 -0.18935 4.16104e-20)
(0.984013 -0.189354 1.41681e-20)
(0.984039 -0.18935 -1.04841e-19)
(0.984057 -0.189339 5.12969e-20)
(0.984069 -0.18932 9.79385e-20)
(0.984077 -0.189292 -2.02571e-19)
(0.984083 -0.189257 6.2715e-20)
(0.984091 -0.189214 -2.47919e-19)
(0.984101 -0.189163 1.98012e-19)
(0.984117 -0.189105 1.6616e-19)
(0.984143 -0.189043 -2.58296e-19)
(0.98418 -0.188977 -1.1613e-19)
(0.984231 -0.188908 1.51037e-19)
(0.984298 -0.188831 4.98017e-20)
(0.984383 -0.188739 -1.28528e-19)
(0.984488 -0.188635 -1.53701e-19)
(0.984617 -0.188522 -1.77382e-19)
(0.984774 -0.188403 1.14254e-19)
(0.98496 -0.188277 2.52877e-19)
(0.985177 -0.188138 9.3363e-20)
(0.985428 -0.187982 -6.35934e-20)
(0.985713 -0.187805 6.57942e-19)
(0.986035 -0.187599 -7.59279e-20)
(0.986393 -0.187356 5.24609e-19)
(0.986786 -0.187065 -7.43829e-19)
(0.987213 -0.186711 8.49538e-20)
(0.987671 -0.186275 2.95601e-20)
(0.988156 -0.185733 -4.4632e-20)
(0.988662 -0.185059 1.72678e-19)
(0.989183 -0.184222 5.72586e-19)
(0.989711 -0.183191 -9.03229e-19)
(0.990236 -0.181937 -1.7171e-18)
(0.990745 -0.180437 -1.26629e-18)
(0.991214 -0.178659 2.96378e-18)
(0.991606 -0.176584 -2.05372e-18)
(0.991888 -0.174223 -6.07665e-18)
(0.991979 -0.17159 -3.28766e-18)
(0.992087 -0.168987 -6.61167e-18)
(0.992458 -0.165251 -4.29317e-18)
(0.989552 -0.158477 -1.78991e-17)
(0.997382 -0.174708 7.33689e-18)
(0.982871 -0.188994 1.46417e-21)
(0.9829 -0.189038 -4.35336e-21)
(0.982812 -0.189115 1.53504e-20)
(0.982757 -0.18919 3.87327e-21)
(0.982766 -0.189315 -2.0665e-20)
(0.982812 -0.189483 -2.32974e-20)
(0.982878 -0.18965 5.47555e-20)
(0.982952 -0.189784 -5.8974e-20)
(0.983028 -0.189873 -1.41113e-20)
(0.983106 -0.189925 3.56959e-20)
(0.983184 -0.189951 3.25425e-20)
(0.983265 -0.189965 9.76659e-20)
(0.983348 -0.189975 -5.50476e-20)
(0.983434 -0.189988 -9.27453e-20)
(0.983523 -0.190006 2.02241e-20)
(0.983612 -0.19003 -7.36737e-20)
(0.983699 -0.190059 5.51315e-20)
(0.983784 -0.190092 -9.03968e-20)
(0.983863 -0.190125 1.53734e-20)
(0.983934 -0.190157 -2.77129e-20)
(0.983998 -0.190188 -1.65804e-20)
(0.984053 -0.190213 -7.61146e-20)
(0.9841 -0.190234 8.75688e-21)
(0.98414 -0.190249 1.63191e-19)
(0.984174 -0.190256 -5.35229e-20)
(0.984205 -0.190257 1.77849e-20)
(0.984235 -0.190249 4.83058e-20)
(0.984266 -0.190233 -6.15092e-20)
(0.984301 -0.190209 -1.14871e-20)
(0.984344 -0.190177 8.1724e-20)
(0.984397 -0.19014 9.02286e-20)
(0.984464 -0.190098 -6.70078e-20)
(0.984547 -0.190044 -1.99819e-19)
(0.984647 -0.189973 -2.67956e-19)
(0.984769 -0.189887 4.12228e-19)
(0.984915 -0.189786 1.07803e-19)
(0.98509 -0.189674 6.99443e-20)
(0.985296 -0.18955 2.9415e-19)
(0.985536 -0.189406 -2.58116e-19)
(0.985812 -0.189239 1.50421e-19)
(0.986125 -0.189043 -1.00556e-20)
(0.986478 -0.188808 1.4998e-20)
(0.98687 -0.188526 -1.897e-19)
(0.987302 -0.188184 3.47773e-19)
(0.98777 -0.187769 -3.05602e-19)
(0.988273 -0.187261 7.21218e-20)
(0.988805 -0.186637 -3.48625e-20)
(0.98936 -0.185871 2.71834e-21)
(0.989931 -0.184935 -3.11429e-19)
(0.990507 -0.183801 9.68942e-19)
(0.991076 -0.182442 2.29023e-19)
(0.991624 -0.18084 1.76107e-21)
(0.992126 -0.178967 6.66334e-19)
(0.992541 -0.176806 2.3084e-18)
(0.992835 -0.174374 -1.38757e-19)
(0.992917 -0.171696 -3.40912e-18)
(0.993019 -0.169085 4.16157e-18)
(0.99333 -0.16539 1.43946e-18)
(0.990303 -0.158698 2.32314e-18)
(0.998029 -0.175342 -5.54333e-18)
(0.982784 -0.189557 2.67994e-21)
(0.982801 -0.189607 -2.25689e-21)
(0.982704 -0.189692 2.01417e-21)
(0.982643 -0.18977 1.27741e-20)
(0.982647 -0.189896 1.82218e-20)
(0.98269 -0.190063 -7.08772e-20)
(0.982752 -0.19023 5.06503e-20)
(0.98282 -0.190364 1.02417e-20)
(0.982889 -0.190455 -3.23619e-21)
(0.982958 -0.190507 -2.19778e-20)
(0.983027 -0.190533 6.62707e-20)
(0.983098 -0.190547 -2.1718e-20)
(0.983173 -0.190558 -2.94572e-20)
(0.983254 -0.190573 -8.60438e-20)
(0.98334 -0.190595 1.70573e-19)
(0.983432 -0.190623 -3.55961e-20)
(0.983526 -0.19066 -2.94246e-20)
(0.983622 -0.190703 -8.41186e-20)
(0.983718 -0.190749 9.20777e-20)
(0.98381 -0.190798 4.97519e-20)
(0.983897 -0.190848 -2.25572e-20)
(0.983978 -0.190896 3.80363e-20)
(0.984053 -0.190943 -1.60421e-19)
(0.984122 -0.190986 1.18504e-20)
(0.984185 -0.191024 8.69951e-20)
(0.984244 -0.191056 -1.64712e-20)
(0.984302 -0.191081 -2.50426e-19)
(0.984359 -0.191099 2.62534e-20)
(0.98442 -0.191107 2.16403e-19)
(0.984487 -0.191108 -5.41911e-20)
(0.984563 -0.191102 -1.06565e-19)
(0.984652 -0.191088 5.58153e-20)
(0.984756 -0.191061 1.69666e-19)
(0.984878 -0.191014 3.86756e-19)
(0.985021 -0.190948 -6.11912e-20)
(0.98519 -0.190863 6.00737e-20)
(0.985388 -0.190763 -5.26598e-19)
(0.985618 -0.190645 -1.46879e-19)
(0.985883 -0.190502 8.39569e-20)
(0.986186 -0.190328 -3.16781e-19)
(0.986528 -0.190118 -6.64596e-20)
(0.986912 -0.189861 1.28191e-19)
(0.987338 -0.189548 7.76875e-20)
(0.987805 -0.189166 1.69125e-19)
(0.988311 -0.188702 3.72792e-19)
(0.988854 -0.188134 -1.17572e-19)
(0.989428 -0.187442 -9.67349e-20)
(0.990027 -0.186602 -2.91732e-19)
(0.990641 -0.185586 2.5525e-20)
(0.991259 -0.184368 -1.13198e-18)
(0.991868 -0.182925 2.03098e-18)
(0.992452 -0.181242 3.19993e-18)
(0.992983 -0.179293 -3.12468e-18)
(0.99342 -0.177065 -3.31905e-18)
(0.993727 -0.17458 1.72768e-18)
(0.993805 -0.171867 1.13942e-17)
(0.993905 -0.169248 -3.20981e-18)
(0.994162 -0.165578 4.39239e-18)
(0.991023 -0.158924 9.13579e-18)
(0.998724 -0.175925 -4.674e-18)
(0.982677 -0.190026 -2.83889e-21)
(0.982687 -0.190083 3.09323e-21)
(0.982582 -0.190176 2.06214e-20)
(0.982517 -0.190257 -2.67266e-20)
(0.982518 -0.190384 4.76071e-20)
(0.982559 -0.190553 -6.91673e-20)
(0.982617 -0.190721 1.9434e-20)
(0.98268 -0.190856 -8.37535e-22)
(0.982742 -0.190947 4.14317e-20)
(0.982802 -0.190999 -2.16752e-20)
(0.982861 -0.191026 6.18888e-21)
(0.982921 -0.19104 6.29941e-21)
(0.982986 -0.191052 -9.82074e-20)
(0.983057 -0.191067 2.95713e-20)
(0.983136 -0.191089 6.64555e-20)
(0.983223 -0.191119 1.73258e-21)
(0.983316 -0.191159 -1.07275e-19)
(0.983416 -0.191206 4.32908e-20)
(0.98352 -0.191258 1.96994e-19)
(0.983625 -0.191317 -1.27957e-19)
(0.983729 -0.191379 -9.38678e-20)
(0.983832 -0.191442 7.91272e-20)
(0.983931 -0.191508 4.80595e-20)
(0.984026 -0.191572 5.26113e-20)
(0.984117 -0.191634 -1.02127e-19)
(0.984204 -0.191693 -2.12039e-19)
(0.984291 -0.191746 1.62101e-19)
(0.984377 -0.191793 2.2074e-19)
(0.984467 -0.191831 5.19833e-20)
(0.984561 -0.191862 -1.11778e-19)
(0.984665 -0.191885 4.99038e-20)
(0.984781 -0.191901 7.37847e-20)
(0.984911 -0.1919 -1.39789e-19)
(0.985059 -0.191877 -3.29426e-20)
(0.985228 -0.191834 -2.27139e-19)
(0.985422 -0.191767 -5.99858e-20)
(0.985647 -0.191682 -3.71384e-20)
(0.985904 -0.191573 1.34894e-19)
(0.986198 -0.191435 -1.72734e-19)
(0.98653 -0.191259 4.72719e-20)
(0.986903 -0.191041 6.28881e-20)
(0.987318 -0.190769 9.53164e-21)
(0.987777 -0.190433 -2.92071e-19)
(0.988279 -0.19002 -2.91366e-19)
(0.988823 -0.189516 -1.74117e-19)
(0.989404 -0.188902 9.87434e-20)
(0.990018 -0.188156 -9.0162e-20)
(0.990657 -0.187256 1.43888e-19)
(0.991311 -0.186176 -1.59857e-19)
(0.991969 -0.184891 1.42766e-18)
(0.992614 -0.18338 -9.20717e-19)
(0.993232 -0.181632 -3.29945e-18)
(0.993794 -0.179622 1.9886e-19)
(0.994254 -0.177341 4.47013e-18)
(0.994576 -0.174811 -2.49655e-18)
(0.994653 -0.17207 -2.82842e-18)
(0.994754 -0.169443 -4.35815e-18)
(0.994961 -0.165788 -1.24638e-17)
(0.99171 -0.159165 -1.68603e-17)
(0.999448 -0.176471 1.06863e-17)
(0.982558 -0.190423 -2.36166e-21)
(0.982563 -0.190485 3.38241e-21)
(0.982452 -0.190584 6.75338e-22)
(0.982383 -0.190669 1.23881e-20)
(0.982383 -0.190799 -1.86659e-20)
(0.982423 -0.190969 -3.72941e-20)
(0.982478 -0.19114 1.35273e-20)
(0.982537 -0.191276 -1.69591e-20)
(0.982593 -0.191368 3.71507e-20)
(0.982645 -0.191421 -7.30823e-21)
(0.982694 -0.191448 -2.36069e-20)
(0.982743 -0.191462 1.95931e-20)
(0.982796 -0.191473 3.09685e-20)
(0.982855 -0.191488 8.35305e-20)
(0.982923 -0.191509 -1.50364e-19)
(0.983001 -0.191539 7.55586e-20)
(0.983088 -0.191579 1.1033e-20)
(0.983185 -0.191628 -7.18876e-20)
(0.983291 -0.191683 -4.33088e-20)
(0.983402 -0.191747 1.40922e-19)
(0.983516 -0.191816 -1.44302e-19)
(0.983633 -0.191889 4.34419e-20)
(0.98375 -0.191967 -1.10485e-19)
(0.983867 -0.192045 1.81574e-19)
(0.983982 -0.192124 -3.60253e-20)
(0.984096 -0.192203 -9.62403e-20)
(0.98421 -0.192278 7.82938e-20)
(0.984325 -0.192349 1.40211e-19)
(0.984444 -0.192413 -1.29957e-19)
(0.984568 -0.19247 7.82759e-20)
(0.984701 -0.19252 -2.45798e-19)
(0.984846 -0.192561 -2.32643e-20)
(0.985005 -0.192586 1.01983e-19)
(0.985182 -0.192588 -5.78408e-20)
(0.98538 -0.192566 -1.07371e-19)
(0.985604 -0.192519 -2.42485e-19)
(0.985857 -0.192449 3.04074e-19)
(0.986144 -0.192353 -1.06617e-19)
(0.986469 -0.192222 8.64694e-20)
(0.986832 -0.192049 1.47933e-19)
(0.987237 -0.191828 9.70291e-20)
(0.987686 -0.191546 -4.13482e-20)
(0.988179 -0.191194 1.40442e-19)