/*--------------------------------*- C++ -*----------------------------------*\
  =========                 |
  \\      /  F ield         | OpenFOAM: The Open Source CFD Toolbox
   \\    /   O peration     | Website:  https://openfoam.org
    \\  /    A nd           | Version:  6.0
     \\/     M anipulation  |
\*---------------------------------------------------------------------------*/
FoamFile
{
    version     2.0;
    format      ascii;
    class       volScalarField;
    location    "19";
    object      p;
}
// * * * * * * * * * * * * * * * * * * * * * * * * * * * * * * * * * * * * * //

dimensions      [0 2 -2 0 0 0 0];

internalField   nonuniform List<scalar> 
62000
(
0.0162938
0.0161339
0.0159683
0.0157981
0.0156224
0.0154419
0.0152549
0.0150615
0.01486
0.0146502
0.0144315
0.014203
0.0139646
0.0137133
0.0134495
0.013169
0.0128731
0.0125573
0.0122231
0.0118663
0.0114877
0.0110831
0.0106529
0.0101927
0.00970281
0.00917872
0.00862045
0.00802372
0.00738828
0.00671016
0.0059903
0.00522446
0.00441678
0.00355963
0.00265873
0.00171591
0.000733607
-0.000287882
-0.00134776
-0.00244357
-0.00357182
-0.00472822
-0.00590817
-0.00710551
-0.00831272
-0.00951792
-0.0107016
-0.0118409
-0.0128902
-0.0138129
-0.0145309
-0.0149959
-0.0151183
-0.0148651
-0.0141686
-0.0129429
-0.0111766
-0.00871332
-0.0105431
-0.022836
0.0163868
0.0162235
0.0160548
0.0158801
0.0156997
0.0155153
0.0153269
0.0151344
0.0149349
0.0147262
0.0145069
0.0142772
0.0140388
0.0137907
0.0135327
0.0132605
0.0129729
0.0126653
0.0123379
0.0119871
0.0116133
0.0112131
0.0107863
0.0103291
0.00984072
0.00931748
0.00875808
0.00815922
0.00751907
0.00683504
0.00610521
0.00532785
0.0045
0.00362177
0.0026945
0.00172147
0.000702847
-0.000363049
-0.00147636
-0.00263549
-0.003838
-0.00508128
-0.00636264
-0.00767847
-0.00902401
-0.0103902
-0.0117597
-0.0131106
-0.0143933
-0.0155646
-0.016525
-0.017203
-0.0174596
-0.0172211
-0.0163483
-0.0146695
-0.0121191
-0.00872708
-0.00764181
-0.00882559
0.0165641
0.0164177
0.0162647
0.0161016
0.0159279
0.0157454
0.015556
0.0153614
0.0151595
0.0149455
0.0147149
0.0144665
0.0142047
0.0139328
0.0136551
0.0133688
0.0130721
0.0127583
0.0124252
0.012068
0.0116865
0.0112774
0.0108408
0.0103732
0.00987399
0.00933945
0.0087684
0.00815761
0.00750529
0.00680905
0.00606699
0.00527656
0.00443624
0.00354496
0.00260805
0.00162968
0.000610675
-0.000450131
-0.00155111
-0.0026878
-0.00385471
-0.00504588
-0.00625528
-0.00747618
-0.00870102
-0.00991908
-0.0111125
-0.0122612
-0.0133183
-0.0142462
-0.0149491
-0.0153648
-0.0153609
-0.0148849
-0.0138236
-0.0120708
-0.00970942
-0.00699153
-0.00690021
-0.0104554
0.0169139
0.0167873
0.0166539
0.0165081
0.0163483
0.0161737
0.0159873
0.015795
0.015599
0.0153939
0.0151701
0.0149206
0.0146475
0.0143572
0.01406
0.0137584
0.0134528
0.0131356
0.0128019
0.0124441
0.0120602
0.0116463
0.0112025
0.0107258
0.0102158
0.00966913
0.00908457
0.00845886
0.00779013
0.00707605
0.00631405
0.00550213
0.00463668
0.00371896
0.0027545
0.00174873
0.000703033
-0.000383663
-0.00150873
-0.00266588
-0.00384744
-0.00504498
-0.00624958
-0.00745174
-0.00864116
-0.00980524
-0.0109259
-0.0119851
-0.0129406
-0.0137623
-0.0143622
-0.0146886
-0.0146134
-0.014098
-0.0130382
-0.0113509
-0.00915443
-0.00675392
-0.00642277
-0.00863812
0.0172765
0.0171599
0.0170371
0.0169049
0.0167589
0.0165948
0.0164131
0.0162235
0.0160344
0.0158443
0.0156414
0.0154112
0.0151495
0.014861
0.0145599
0.0142548
0.0139513
0.0136431
0.0133237
0.012982
0.012613
0.0122111
0.0117756
0.0113038
0.0107961
0.0102492
0.0096622
0.00903191
0.00835631
0.00763277
0.00685872
0.00603084
0.00514591
0.00420424
0.00321169
0.0021742
0.00109302
-3.33041e-05
-0.00120194
-0.00240581
-0.00363633
-0.00488361
-0.00613664
-0.00738324
-0.00860983
-0.00980059
-0.0109347
-0.0119935
-0.0129352
-0.0137343
-0.0143053
-0.0146038
-0.0144967
-0.0139434
-0.0128231
-0.0110359
-0.00869609
-0.00606702
-0.00521513
-0.00697507
0.0176069
0.0174931
0.0173752
0.0172526
0.017122
0.016974
0.0168039
0.0166206
0.0164374
0.0162595
0.0160767
0.0158707
0.0156306
0.0153559
0.0150616
0.0147608
0.0144653
0.0141723
0.0138757
0.0135616
0.0132216
0.0128468
0.0124352
0.0119835
0.0114926
0.0109599
0.010385
0.009765
0.00909778
0.00838088
0.00761098
0.00678523
0.00589884
0.00495204
0.00395107
0.00290122
0.0018038
0.000656958
-0.000536482
-0.00176919
-0.00303222
-0.00431489
-0.00560438
-0.00688568
-0.00814107
-0.00934963
-0.0104854
-0.0115254
-0.0124256
-0.0131615
-0.0136513
-0.0138592
-0.0136534
-0.0130034
-0.0117929
-0.00992371
-0.00754556
-0.00493636
-0.00401257
-0.00515726
0.0179818
0.0178691
0.017752
0.0176343
0.0175168
0.0173879
0.0172361
0.0170653
0.0168898
0.0167198
0.0165494
0.0163603
0.0161365
0.0158734
0.0155835
0.0152831
0.0149889
0.0147039
0.0144243
0.0141357
0.0138265
0.0134846
0.013105
0.0126833
0.0122201
0.0117132
0.0111629
0.0105665
0.00992235
0.00922779
0.00847988
0.00767458
0.00680736
0.0058781
0.00489179
0.00385403
0.0027655
0.00162379
0.000431256
-0.000805223
-0.00207737
-0.00337488
-0.00468452
-0.00598965
-0.00726936
-0.00849811
-0.00964411
-0.0106791
-0.011554
-0.0122443
-0.0126696
-0.012806
-0.0125285
-0.0118257
-0.0105963
-0.00875432
-0.00646302
-0.00399246
-0.00277883
-0.00287009
0.0184606
0.0183589
0.0182491
0.0181375
0.0180326
0.0179241
0.0177955
0.017644
0.0174815
0.0173199
0.0171576
0.0169773
0.0167619
0.0165018
0.0162077
0.0158957
0.0155871
0.0152896
0.0150047
0.0147195
0.014422
0.0140976
0.013739
0.0133397
0.0128998
0.0124168
0.0118913
0.0113211
0.0107046
0.0100395
0.00932208
0.00854911
0.00771475
0.00681797
0.0058644
0.00485807
0.00379931
0.00268484
0.00151591
0.000297992
-0.000962655
-0.00225792
-0.00357633
-0.00490221
-0.00621412
-0.00748419
-0.00867668
-0.00975779
-0.0106728
-0.011392
-0.0118328
-0.011974
-0.0116895
-0.0109784
-0.00974603
-0.00789962
-0.00557909
-0.00302361
-0.00114694
-0.000177584
0.0191057
0.0190258
0.0189305
0.0188275
0.0187325
0.0186409
0.0185343
0.0184047
0.0182593
0.0181101
0.0179568
0.0177849
0.0175756
0.0173177
0.0170172
0.01669
0.0163576
0.0160328
0.0157205
0.0154123
0.0150971
0.0147607
0.0143944
0.0139911
0.01355
0.0130689
0.0125488
0.0119879
0.0113851
0.0107379
0.0100434
0.00929713
0.00849357
0.0076319
0.0067158
0.00574974
0.00473322
0.00366208
0.00253653
0.00136037
0.000137303
-0.00112768
-0.00242643
-0.00374635
-0.00506811
-0.00636453
-0.00759839
-0.00873267
-0.00970614
-0.0104832
-0.0109712
-0.0111458
-0.0108681
-0.0101352
-0.00884543
-0.00689478
-0.00440689
-0.00162979
0.000931562
0.00263506
0.0198377
0.0197947
0.019728
0.0196424
0.0195617
0.0194873
0.0194025
0.019296
0.0191714
0.019039
0.0188999
0.0187408
0.0185442
0.0182961
0.0180011
0.0176712
0.0173279
0.0169838
0.0166469
0.0163107
0.0159664
0.0156007
0.0152053
0.0147731
0.014304
0.0137968
0.0132533
0.0126735
0.0120566
0.0114017
0.0107055
0.00996501
0.00917428
0.00833182
0.0074429
0.00651081
0.00553565
0.00451311
0.00344319
0.00232882
0.00117176
-2.57523e-05
-0.00125891
-0.00251904
-0.00379049
-0.00504904
-0.00625915
-0.00738317
-0.00835693
-0.00913887
-0.00962832
-0.00979288
-0.0094786
-0.00867975
-0.00729332
-0.00521776
-0.0025961
0.000275708
0.00326047
0.00531203
0.0206278
0.0206265
0.0205931
0.020529
0.0204628
0.0204022
0.0203341
0.0202463
0.0201402
0.0200239
0.0198994
0.0197547
0.0195731
0.0193416
0.0190623
0.0187464
0.0184126
0.0180735
0.0177359
0.0173944
0.0170394
0.0166581
0.0162415
0.0157827
0.0152821
0.0147396
0.0141591
0.0135423
0.0128906
0.0122044
0.0114826
0.0107225
0.00991959
0.00907434
0.00819089
0.00727455
0.00632625
0.00534265
0.00432489
0.00327664
0.00219934
0.00109411
-3.62699e-05
-0.00118625
-0.002344
-0.00348947
-0.00459096
-0.00561439
-0.00649648
-0.00719637
-0.00760911
-0.00770253
-0.00731393
-0.00644334
-0.00499793
-0.00289679
-0.000315404
0.00243073
0.0055462
0.00770857
0.0213649
0.0214063
0.0214092
0.021371
0.0213226
0.0212763
0.0212228
0.0211508
0.0210604
0.0209585
0.0208471
0.0207154
0.0205488
0.0203344
0.0200759
0.0197829
0.0194746
0.0191616
0.0188508
0.0185347
0.0182029
0.0178401
0.0174357
0.016981
0.0164755
0.0159192
0.0153171
0.0146727
0.0139894
0.0132702
0.0125152
0.011725
0.0108962
0.0100299
0.00913381
0.0082133
0.00727189
0.00630822
0.00532586
0.00433073
0.00332571
0.00231271
0.00129439
0.00027472
-0.000737279
-0.00172564
-0.00266398
-0.00352416
-0.00424914
-0.00480381
-0.0050884
-0.00507705
-0.00460908
-0.00369983
-0.00227743
-0.000281635
0.0020959
0.00457862
0.00765725
0.0098601
0.0220551
0.022128
0.022159
0.022143
0.0221096
0.0220745
0.0220315
0.0219713
0.0218929
0.0218028
0.0217019
0.0215806
0.0214243
0.0212228
0.0209795
0.0207065
0.0204226
0.0201405
0.0198662
0.0195925
0.019307
0.0189926
0.0186353
0.0182233
0.0177532
0.0172233
0.0166375
0.0159996
0.015314
0.0145849
0.0138151
0.013006
0.0121566
0.0112713
0.0103574
0.00942349
0.0084751
0.00751333
0.00654483
0.00557887
0.00462111
0.00367592
0.00274766
0.0018406
0.000962555
0.000126462
-0.000646252
-0.00133502
-0.00189108
-0.00229051
-0.00244247
-0.0023371
-0.0018206
-0.000928692
0.000392094
0.00219316
0.0042995
0.00652193
0.00953318
0.0118265
0.0226396
0.0227363
0.0227908
0.0227957
0.0227784
0.0227555
0.0227233
0.0226742
0.0226072
0.0225278
0.022437
0.0223246
0.0221772
0.0219844
0.0217517
0.0214915
0.0212255
0.0209667
0.020724
0.0204906
0.0202546
0.0199978
0.0197042
0.0193587
0.0189547
0.018487
0.0179567
0.0173661
0.0167182
0.016018
0.0152671
0.0144699
0.0136256
0.0127389
0.0118208
0.0108798
0.00992405
0.00895689
0.00798795
0.00702995
0.00609184
0.00518121
0.00430533
0.00347018
0.00268404
0.00195847
0.0013111
0.000756109
0.00033327
5.53494e-05
5.72793e-07
0.000163841
0.000689859
0.00152535
0.00271203
0.00431138
0.00618793
0.00824884
0.0112556
0.0137347
0.0231966
0.0233042
0.0233716
0.0233901
0.023384
0.0233689
0.0233439
0.0233022
0.0232432
0.0231717
0.0230881
0.0229822
0.0228399
0.0226518
0.0224229
0.0221677
0.0219081
0.0216604
0.0214346
0.0212271
0.021027
0.0208174
0.0205816
0.0203033
0.0199732
0.019583
0.0191307
0.0186155
0.0180382
0.0174012
0.0167062
0.0159551
0.015148
0.014291
0.013393
0.0124646
0.0115145
0.0105476
0.00957548
0.00861383
0.00767458
0.00676863
0.00590654
0.00509695
0.00434989
0.00367728
0.00309513
0.00261286
0.00226392
0.00205094
0.00204335
0.00222043
0.00272272
0.00348502
0.0045482
0.00599589
0.00774199
0.00977453
0.0128713
0.0156372
0.0237082
0.0238195
0.023894
0.0239224
0.0239253
0.0239171
0.0238978
0.0238618
0.0238087
0.0237429
0.0236649
0.0235637
0.023426
0.0232408
0.0230147
0.0227609
0.0225034
0.0222583
0.0220386
0.0218418
0.0216602
0.0214784
0.0212813
0.0210532
0.0207841
0.0204643
0.0200893
0.019656
0.0191618
0.0186073
0.0179902
0.0173123
0.016571
0.0157701
0.0149198
0.014028
0.013104
0.0121526
0.0111865
0.0102228
0.00927565
0.00835838
0.00748459
0.00666569
0.00591417
0.00524369
0.00467051
0.00420232
0.00386879
0.0036671
0.00366
0.00381879
0.00428392
0.00498568
0.00597052
0.00735047
0.00908205
0.011204
0.0144851
0.0176158
0.0242472
0.0243511
0.0244227
0.0244534
0.0244587
0.0244523
0.0244343
0.0244005
0.02435
0.0242876
0.0242124
0.0241141
0.0239777
0.023794
0.0235672
0.0233126
0.0230523
0.0228049
0.0225826
0.0223857
0.0222075
0.0220353
0.0218558
0.021655
0.021424
0.0211533
0.020838
0.0204734
0.0200552
0.0195811
0.0190475
0.0184516
0.0177895
0.0170635
0.0162796
0.0154449
0.0145667
0.0136487
0.0127029
0.0117469
0.0107955
0.00986363
0.00896712
0.00811975
0.00733663
0.00663398
0.00603001
0.00553257
0.00517149
0.00494156
0.00490556
0.00502822
0.00545754
0.00612342
0.00708262
0.0084733
0.0102835
0.0125781
0.0161126
0.0196621
0.0247715
0.0248663
0.0249336
0.0249649
0.024972
0.0249669
0.0249499
0.0249175
0.0248688
0.0248083
0.0247351
0.0246382
0.0245035
0.0243201
0.0240937
0.0238378
0.0235759
0.023325
0.0230987
0.022897
0.0227147
0.0225404
0.0223627
0.0221698
0.0219544
0.0217088
0.0214286
0.0211095
0.0207466
0.0203369
0.0198737
0.0193539
0.0187698
0.0181203
0.0174106
0.0166434
0.0158239
0.0149536
0.0140429
0.0131083
0.0121641
0.0112257
0.01031
0.00943229
0.00861001
0.00786209
0.00720939
0.00666209
0.00625204
0.0059761
0.0058987
0.00598556
0.00639425
0.00705807
0.00804381
0.00951144
0.0114659
0.0139791
0.0178152
0.0218123
0.0253581
0.025439
0.0254966
0.0255232
0.0255271
0.0255183
0.025498
0.0254627
0.0254118
0.0253493
0.025274
0.0251751
0.0250374
0.0248512
0.024621
0.0243616
0.0240952
0.0238398
0.0236078
0.0233998
0.0232103
0.0230288
0.0228447
0.0226478
0.0224324
0.0221925
0.0219255
0.0216283
0.0212968
0.0209276
0.0205148
0.0200522
0.0195317
0.0189506
0.0183094
0.0176092
0.0168519
0.0160361
0.0151697
0.0142674
0.0133422
0.0124087
0.0114839
0.0105839
0.00972771
0.00893666
0.00823469
0.00763458
0.00717269
0.00684899
0.00673442
0.00679492
0.00720179
0.00789217
0.00894139
0.0105251
0.0126555
0.0154045
0.0195653
0.0240234
0.0259621
0.0260296
0.0260778
0.026099
0.0260988
0.0260856
0.0260606
0.0260206
0.0259651
0.025898
0.0258184
0.0257145
0.0255725
0.0253812
0.025147
0.024883
0.0246132
0.0243536
0.0241177
0.0239044
0.0237087
0.0235195
0.0233269
0.0231212
0.0228978
0.0226523
0.0223836
0.0220902
0.0217693
0.0214191
0.0210331
0.020607
0.0201306
0.0195994
0.0190139
0.0183709
0.0176704
0.0169081
0.0160892
0.0152261
0.0143299
0.0134135
0.0124933
0.0115854
0.0107096
0.00988879
0.00914969
0.00850827
0.00800531
0.00764595
0.00750684
0.00755867
0.00798537
0.00872807
0.00986799
0.0115921
0.0139118
0.0168971
0.0213956
0.026317
0.0266333
0.0266826
0.0267163
0.0267278
0.026719
0.0266974
0.0266637
0.026616
0.0265529
0.026479
0.0263919
0.0262809
0.0261305
0.0259318
0.0256892
0.0254184
0.0251415
0.0248767
0.0246352
0.0244171
0.0242157
0.0240202
0.0238197
0.023605
0.0233716
0.0231162
0.0228385
0.0225384
0.0222149
0.0218668
0.0214903
0.0210799
0.0206274
0.0201284
0.0195806
0.0189805
0.0183256
0.0176092
0.0168342
0.0160107
0.0151476
0.0142562
0.0133516
0.0124491
0.0115689
0.0107346
0.00997519
0.00930899
0.00878218
0.00840349
0.00825813
0.00831782
0.00878163
0.00959244
0.0108356
0.0127055
0.0152105
0.0184225
0.0232588
0.028641
0.027303
0.0273374
0.0273594
0.0273626
0.0273467
0.0273178
0.0272766
0.0272214
0.027151
0.0270695
0.0269749
0.0268558
0.0266976
0.02649
0.0262398
0.0259611
0.025678
0.0254072
0.0251612
0.0249385
0.0247329
0.0245324
0.0243259
0.0241038
0.0238617
0.0235963
0.023308
0.0229975
0.0226645
0.0223099
0.0219298
0.0215221
0.0210779
0.0205931
0.020067
0.0194942
0.0188713
0.01819
0.0174515
0.0166642
0.0158348
0.0149727
0.0140919
0.0132066
0.0123363
0.011505
0.0107434
0.0100713
0.00953978
0.00916088
0.00902665
0.009112
0.0096288
0.0105205
0.0118751
0.0138928
0.0165771
0.0200063
0.0251807
0.0310193
0.0280343
0.0280519
0.0280597
0.0280521
0.0280261
0.0279866
0.0279349
0.0278692
0.0277886
0.0276969
0.0275917
0.0274617
0.0272917
0.0270727
0.0268104
0.0265212
0.026228
0.0259494
0.0256965
0.0254687
0.0252585
0.0250538
0.0248429
0.0246157
0.0243672
0.0240942
0.0237969
0.0234764
0.0231332
0.0227682
0.0223801
0.0219658
0.0215194
0.0210381
0.0205201
0.0199612
0.0193573
0.0186994
0.0179877
0.0172293
0.0164295
0.0155963
0.0147422
0.0138806
0.0130298
0.0122141
0.0114642
0.0108025
0.0102822
0.00991931
0.00981082
0.00993495
0.0105138
0.0114917
0.0129578
0.0151167
0.017969
0.021605
0.0271123
0.033402
0.0287673
0.0287709
0.028767
0.0287498
0.0287148
0.0286659
0.0286041
0.0285276
0.0284361
0.028333
0.0282165
0.0280743
0.0278925
0.0276606
0.027387
0.0270864
0.0267841
0.0264971
0.026238
0.0260047
0.0257904
0.0255821
0.0253678
0.0251371
0.0248845
0.0246066
0.0243031
0.0239753
0.0236234
0.0232494
0.0228512
0.0224287
0.0219755
0.0214896
0.0209715
0.0204167
0.0198214
0.0191767
0.0184827
0.0177457
0.0169702
0.0161632
0.0153363
0.0145016
0.0136769
0.0128852
0.0121585
0.0115189
0.0110239
0.0106895
0.0106193
0.0107928
0.0114431
0.0125125
0.0140915
0.0163894
0.0194046
0.0232425
0.0290818
0.0358193
0.0295464
0.0295322
0.0295128
0.0294833
0.0294364
0.0293755
0.0293012
0.0292127
0.0291086
0.0289935
0.0288638
0.0287086
0.0285121
0.0282666
0.0279782
0.0276648
0.0273501
0.0270535
0.0267859
0.0265465
0.026327
0.026115
0.0258976
0.0256643
0.0254092
0.0251284
0.0248216
0.0244893
0.0241322
0.0237511
0.023346
0.0229148
0.0224537
0.0219618
0.0214389
0.0208824
0.0202886
0.0196493
0.0189648
0.0182415
0.0174837
0.016698
0.0158952
0.0150869
0.0142897
0.0135266
0.0128283
0.0122194
0.0117569
0.0114606
0.0114342
0.0116643
0.0123887
0.0135498
0.015239
0.0176699
0.0208407
0.024876
0.0310427
0.0382243
0.0303001
0.0302722
0.0302411
0.0302019
0.0301457
0.0300752
0.0299907
0.0298916
0.0297768
0.0296502
0.0295091
0.0293412
0.0291322
0.0288727
0.0285717
0.0282453
0.0279199
0.0276133
0.0273379
0.0270918
0.0268672
0.0266511
0.0264306
0.0261949
0.025938
0.0256557
0.0253473
0.0250133
0.0246533
0.0242691
0.0238588
0.0234226
0.0229553
0.0224568
0.0219285
0.0213675
0.0207712
0.0201323
0.0194516
0.0187362
0.0179905
0.0172215
0.0164391
0.0156554
0.014885
0.0141521
0.0134849
0.0129115
0.0124861
0.012234
0.0122556
0.0125492
0.0133519
0.0146074
0.0164081
0.0189722
0.0222987
0.0265325
0.0330266
0.0406514
0.0310903
0.031047
0.0310021
0.0309511
0.0308835
0.0308009
0.0307042
0.0305925
0.0304649
0.0303255
0.0301706
0.0299887
0.0297643
0.0294899
0.029173
0.0288326
0.0284938
0.0281764
0.0278916
0.0276384
0.027408
0.0271876
0.0269638
0.026726
0.0264677
0.0261847
0.0258761
0.0255418
0.0251818
0.0247964
0.024385
0.0239455
0.0234748
0.0229722
0.0224391
0.0218735
0.0212733
0.0206318
0.0199511
0.0192387
0.0185002
0.0177426
0.0169765
0.0162132
0.0154675
0.0147628
0.0141267
0.0135896
0.0132026
0.0129972
0.0130662
0.0134264
0.0143073
0.0156562
0.0175668
0.0202616
0.0237412
0.028173
0.034991
0.0430561
0.0318586
0.0318027
0.0317465
0.0316853
0.0316078
0.0315145
0.0314064
0.0312826
0.0311427
0.03099
0.0308221
0.0306258
0.0303875
0.0300978
0.0297673
0.0294132
0.0290632
0.0287354
0.0284428
0.0281827
0.0279473
0.0277228
0.0274959
0.0272559
0.0269964
0.0267131
0.0264048
0.0260716
0.0257126
0.0253287
0.0249173
0.0244784
0.0240064
0.0235018
0.0229658
0.0223965
0.0217922
0.0211473
0.0204646
0.0197526
0.0190179
0.0182679
0.0175143
0.0167678
0.0160437
0.0153647
0.0147585
0.0142568
0.0139087
0.0137501
0.0138683
0.0142978
0.01526
0.0167047
0.0187277
0.0215566
0.0251933
0.0298272
0.0369695
0.0454748
0.0326467
0.0325739
0.0325024
0.0324284
0.0323382
0.0322322
0.0321108
0.0319742
0.0318208
0.0316553
0.0314733
0.0312634
0.0310094
0.0307053
0.0303591
0.0299917
0.0296288
0.0292913
0.0289899
0.0287237
0.0284831
0.028255
0.0280253
0.0277834
0.0275228
0.0272393
0.0269318
0.0266
0.0262433
0.0258612
0.0254526
0.0250146
0.0245441
0.0240395
0.0235022
0.0229307
0.0223231
0.0216746
0.0209889
0.0202755
0.0195418
0.0187965
0.0180514
0.0173183
0.0166117
0.0159556
0.0153757
0.0149081
0.0145955
0.0144839
0.0146469
0.0151477
0.0161903
0.0177299
0.019865
0.0228277
0.0266218
0.0314583
0.0389223
0.0478644
0.0333918
0.033306
0.0332229
0.0331384
0.0330379
0.0329215
0.0327893
0.0326413
0.0324767
0.0322995
0.0321059
0.0318833
0.031617
0.0312991
0.0309406
0.0305606
0.0301876
0.0298409
0.0295327
0.0292606
0.0290158
0.0287842
0.0285519
0.0283083
0.0280466
0.027763
0.0274563
0.0271262
0.0267714
0.0263925
0.0259861
0.0255517
0.0250828
0.0245796
0.0240427
0.0234699
0.0228599
0.0222084
0.0215197
0.0208041
0.0200702
0.0193274
0.0185884
0.0178652
0.0171732
0.0165363
0.0159807
0.015544
0.0152663
0.0151997
0.015409
0.0159837
0.017108
0.0187449
0.0209955
0.0240966
0.028053
0.0330967
0.040882
0.0502607
0.0341555
0.0340548
0.0339579
0.0338609
0.0337482
0.033619
0.0334737
0.0333128
0.0331351
0.0329451
0.032738
0.032502
0.0322211
0.0318893
0.0315163
0.031124
0.0307394
0.030384
0.0300686
0.0297915
0.0295428
0.0293085
0.0290742
0.0288293
0.0285671
0.0282836
0.0279777
0.0276492
0.027297
0.0269205
0.0265179
0.0260855
0.0256198
0.0251186
0.0245822
0.024009
0.0233973
0.0227432
0.0220516
0.0213333
0.020598
0.0198559
0.0191207
0.0184046
0.0177243
0.0171036
0.0165689
0.0161604
0.015914
0.0158913
0.0161432
0.0167921
0.017998
0.0197315
0.022098
0.0253381
0.0294578
0.0347085
0.0428124
0.0526234
0.0348862
0.0347733
0.0346649
0.034557
0.0344333
0.0342927
0.0341356
0.0339621
0.033772
0.033569
0.0333496
0.0331002
0.0328067
0.0324613
0.0320767
0.0316729
0.0312797
0.0309167
0.0305963
0.0303152
0.0300641
0.0298279
0.0295925
0.0293469
0.0290845
0.0288014
0.0284965
0.0281697
0.0278195
0.0274461
0.0270455
0.0266168
0.0261531
0.0256534
0.025118
0.0245445
0.0239315
0.0232753
0.022581
0.0218602
0.0211229
0.0203807
0.0196474
0.0189367
0.018265
0.0176583
0.0171417
0.0167597
0.0165426
0.0165634
0.0168592
0.0175849
0.0188733
0.0207053
0.0231911
0.0265745
0.030862
0.0363232
0.0447442
0.0549874
0.0356272
0.0354975
0.0353737
0.0352524
0.0351154
0.0349616
0.0347909
0.0346046
0.0344012
0.0341861
0.0339534
0.0336918
0.0333843
0.0330266
0.0326287
0.0322144
0.0318114
0.031442
0.0311164
0.0308327
0.0305796
0.0303427
0.0301069
0.0298614
0.0295995
0.0293171
0.0290135
0.0286883
0.0283404
0.0279688
0.0275712
0.0271438
0.0266821
0.026184
0.0256487
0.0250749
0.0244607
0.0238022
0.023105
0.022381
0.0216411
0.0208976
0.0201649
0.0194576
0.0187927
0.0181974
0.0176963
0.017338
0.0171479
0.0172107
0.0175479
0.0183495
0.0197207
0.0216509
0.024256
0.0277831
0.0322388
0.0379093
0.0466439
0.0573149
0.0363194
0.0361772
0.0360417
0.0359097
0.0357621
0.0355977
0.0354162
0.035219
0.0350051
0.0347793
0.0345365
0.0342638
0.0339461
0.033577
0.0331695
0.0327457
0.032336
0.031961
0.0316323
0.0313463
0.0310925
0.0308553
0.0306199
0.0303749
0.0301137
0.0298325
0.0295303
0.0292067
0.0288604
0.0284909
0.0280944
0.0276692
0.0272084
0.0267102
0.0261752
0.0256006
0.0249848
0.0243238
0.0236234
0.022896
0.0221531
0.0214075
0.0206746
0.0199689
0.0193092
0.0187229
0.0182362
0.0178993
0.0177362
0.0178396
0.0182219
0.0191006
0.0205549
0.0225844
0.0253114
0.0289849
0.0336119
0.0394931
0.0485383
0.059637
0.0370232
0.0368659
0.0367164
0.0365715
0.0364114
0.0362344
0.0360407
0.0358315
0.0356061
0.0353694
0.0351156
0.0348323
0.0345031
0.0341234
0.033705
0.0332726
0.0328552
0.0324756
0.0321437
0.0318568
0.0316029
0.0313666
0.0311323
0.0308887
0.030629
0.0303492
0.0300486
0.0297266
0.029382
0.0290136
0.0286189
0.0281939
0.0277335
0.0272359
0.0266996
0.0261235
0.0255052
0.0248406
0.024136
0.0234042
0.0226574
0.0219087
0.0211742
0.0204691
0.0198128
0.0192339
0.0187594
0.0184419
0.0183038
0.0184468
0.0188728
0.0198266
0.0213645
0.0234929
0.0263408
0.0301603
0.0349576
0.0410471
0.0503982
0.0619191
0.0376966
0.0375252
0.0373623
0.0372047
0.0370324
0.0368436
0.0366387
0.0364188
0.0361838
0.0359376
0.0356757
0.0353834
0.0350463
0.0346574
0.0342317
0.0337919
0.03337
0.0329868
0.032654
0.032367
0.0321145
0.0318799
0.0316476
0.031406
0.0311482
0.0308702
0.0305713
0.0302509
0.0299074
0.0295407
0.0291462
0.0287223
0.0282618
0.0277623
0.0272248
0.026646
0.0260241
0.025355
0.0246453
0.0239085
0.023157
0.0224045
0.0216675
0.0209616
0.0203075
0.0197343
0.0192708
0.0189712
0.0188583
0.0190401
0.0195134
0.020543
0.022164
0.0243916
0.0273616
0.0313281
0.0362967
0.0425944
0.0522466
0.064188
0.0384311
0.0382419
0.0380627
0.0378901
0.0377023
0.037497
0.0372749
0.0370389
0.0367886
0.0365293
0.0362544
0.0359512
0.0356021
0.0352033
0.0347668
0.0343195
0.0338906
0.0335043
0.0331695
0.0328833
0.0326321
0.0324
0.03217
0.0319308
0.0316751
0.031399
0.0311016
0.0307825
0.0304405
0.0300742
0.0296808
0.0292561
0.0287945
0.0282941
0.0277534
0.0271708
0.0265441
0.0258691
0.0251529
0.0244095
0.0236521
0.0228946
0.0221539
0.0214461
0.0207927
0.0202239
0.0197697
0.0194862
0.0193969
0.0196164
0.0201351
0.021238
0.022942
0.0252679
0.0283584
0.0324703
0.0376083
0.0441107
0.0540577
0.0664116
0.0391018
0.0389081
0.0387217
0.0385401
0.038342
0.0381257
0.0378924
0.0376446
0.0373836
0.0371131
0.0368294
0.0365164
0.0361599
0.0357527
0.0353103
0.0348568
0.0344245
0.0340355
0.0337003
0.0334144
0.0331648
0.0329345
0.0327064
0.0324691
0.0322148
0.03194
0.0316436
0.0313253
0.0309835
0.0306177
0.0302234
0.0297986
0.0293355
0.0288315
0.0282877
0.0277005
0.0270678
0.0263859
0.0256622
0.0249114
0.024147
0.0233836
0.0226382
0.0219272
0.0212732
0.0207074
0.0202613
0.0199928
0.0199269
0.0201834
0.0207498
0.0219259
0.0237119
0.0261356
0.029346
0.0336022
0.0389086
0.0456143
0.0558489
0.0686125
0.0399646
0.0397527
0.0395494
0.0393523
0.0391377
0.0389041
0.0386513
0.0383837
0.0381012
0.0378102
0.0375045
0.0371717
0.0367944
0.0363693
0.0359095
0.0354426
0.0349987
0.0346022
0.0342615
0.0339729
0.0337218
0.0334913
0.0332633
0.0330263
0.0327721
0.0324973
0.0322006
0.0318817
0.0315395
0.0311725
0.0307776
0.0303505
0.0298848
0.0293785
0.0288299
0.0282371
0.0275975
0.0269072
0.0261745
0.0254148
0.0246421
0.0238713
0.0231198
0.0224045
0.0217486
0.0211844
0.0207448
0.0204898
0.0204453
0.0207375
0.0213492
0.0225951
0.0244625
0.0269826
0.0303107
0.0347089
0.0401811
0.0470857
0.0575998
0.0707613
0.0406761
0.0404653
0.0402619
0.040064
0.0398477
0.0396111
0.0393546
0.0390812
0.038792
0.038492
0.0381775
0.0378331
0.037445
0.0370075
0.0365372
0.0360596
0.0356076
0.0352037
0.0348579
0.0345648
0.0343106
0.0340773
0.033847
0.0336078
0.0333515
0.0330745
0.0327756
0.0324547
0.03211
0.0317411
0.0313433
0.0309143
0.0304456
0.0299344
0.0293812
0.0287818
0.0281343
0.027435
0.0266925
0.0259232
0.0251414
0.0243622
0.0236035
0.0228826
0.0222234
0.0216593
0.021225
0.0209819
0.0209583
0.0212847
0.0219424
0.0232579
0.025205
0.0278201
0.031264
0.0358016
0.0414372
0.0485383
0.0593236
0.0728781
0.0416245
0.0414006
0.0411849
0.0409763
0.0407481
0.0404986
0.0402265
0.0399368
0.039629
0.0393102
0.0389742
0.0386088
0.0381973
0.0377377
0.0372449
0.0367479
0.0362782
0.0358603
0.0355026
0.0352002
0.0349382
0.0346984
0.0344624
0.0342179
0.0339566
0.0336749
0.0333714
0.0330461
0.0326975
0.0323244
0.0319235
0.0314898
0.0310168
0.0305014
0.0299419
0.0293353
0.0286791
0.0279698
0.0272165
0.0264362
0.0256439
0.0248549
0.0240877
0.0233599
0.0226961
0.0221308
0.0216999
0.0214672
0.0214621
0.021821
0.0225214
0.0239025
0.0259279
0.028636
0.0321934
0.0368678
0.0426639
0.0499566
0.0610044
0.0749396
0.0424277
0.0422118
0.0420032
0.0418012
0.0415783
0.0413321
0.0410615
0.0407701
0.0404583
0.0401318
0.0397866
0.0394078
0.0389821
0.0385052
0.037996
0.0374814
0.0369965
0.0365638
0.0361936
0.0358794
0.0356071
0.0353575
0.0351124
0.0348594
0.0345901
0.0343007
0.03399
0.033658
0.0333028
0.0329241
0.0325169
0.0320785
0.0315999
0.0310777
0.0305118
0.0298971
0.0292317
0.028512
0.0277475
0.0269559
0.0261523
0.0253527
0.0245758
0.0238397
0.0231699
0.0226017
0.0221728
0.0219485
0.0219607
0.0223496
0.0230923
0.0245379
0.0266394
0.0294382
0.0331061
0.0379134
0.0438671
0.0513485
0.0626511
0.0769632
0.0434191
0.0431979
0.0429842
0.0427792
0.0425533
0.0423043
0.0420289
0.0417309
0.0414091
0.04107
0.0407079
0.04031
0.0398611
0.0393601
0.038825
0.0382862
0.0377779
0.0373247
0.036936
0.0366057
0.0363187
0.0360558
0.0357982
0.0355334
0.035253
0.034953
0.0346323
0.0342907
0.0339268
0.0335395
0.0331252
0.0326788
0.032193
0.0316644
0.0310903
0.030467
0.0297916
0.0290606
0.0282841
0.0274801
0.0266642
0.0258527
0.0250649
0.0243193
0.0236419
0.0230695
0.0226406
0.0224232
0.0224498
0.0228667
0.0236477
0.0251534
0.0273288
0.0302163
0.0339923
0.0389305
0.0450389
0.0527042
0.0642533
0.0789324
0.0443282
0.0441081
0.0438978
0.0436991
0.0434796
0.0432364
0.0429651
0.0426692
0.0423471
0.0420042
0.041635
0.041225
0.0407613
0.0402411
0.0396862
0.0391259
0.0385976
0.0381247
0.0377184
0.037371
0.0370683
0.03679
0.0365178
0.0362387
0.0359444
0.0356312
0.0352976
0.0349441
0.0345686
0.0341711
0.0337461
0.0332913
0.0327969
0.0322589
0.0316763
0.0310432
0.0303572
0.0296148
0.028826
0.0280094
0.0271808
0.0263567
0.0255569
0.0248004
0.024114
0.0235353
0.0231048
0.0228915
0.0229307
0.0233724
0.0241904
0.0257548
0.0280016
0.0309748
0.0348554
0.0399201
0.04618
0.0540265
0.0658158
0.0808601
0.0452917
0.0450715
0.044863
0.0446673
0.0444521
0.0442131
0.0439455
0.043652
0.0433301
0.0429847
0.0426087
0.0421881
0.0417081
0.0411686
0.0405908
0.0400074
0.0394557
0.0389616
0.0385352
0.0381695
0.0378496
0.0375547
0.0372663
0.0369712
0.0366613
0.0363326
0.0359842
0.0356163
0.0352274
0.0348167
0.0343806
0.0339138
0.0334089
0.0328615
0.0322684
0.0316246
0.0309273
0.0301725
0.0293708
0.0285407
0.0276984
0.0268606
0.0260476
0.025279
0.0245821
0.023996
0.0235617
0.0233511
0.0233996
0.0238635
0.024714
0.0263327
0.0286482
0.0317051
0.0356885
0.0408782
0.0472871
0.0553104
0.0673327
0.0827348
0.0462613
0.0460389
0.0458289
0.0456333
0.0454185
0.0451803
0.0449134
0.0446199
0.0442973
0.0439492
0.043569
0.0431399
0.042649
0.0420941
0.0414997
0.0408973
0.0403275
0.0398148
0.0393714
0.0389889
0.0386529
0.0383418
0.0380371
0.0377254
0.0373988
0.0370535
0.0366886
0.0363048
0.0359004
0.0354755
0.0350248
0.034546
0.0340288
0.0334692
0.032865
0.0322095
0.0315001
0.0307326
0.0299175
0.0290738
0.0282172
0.0273651
0.026538
0.025756
0.0250469
0.0244513
0.0240109
0.0238001
0.023855
0.0243377
0.0252188
0.02689
0.0292712
0.0324083
0.0364902
0.0418005
0.0483557
0.0565538
0.0688043
0.0845639
0.0472811
0.047054
0.0468402
0.0466417
0.0464249
0.046185
0.0459163
0.0456208
0.0452949
0.0449426
0.0445551
0.0441167
0.0436118
0.0430408
0.0424267
0.0418045
0.0412142
0.0406828
0.0402215
0.0398224
0.0394703
0.0391433
0.0388226
0.0384944
0.0381509
0.0377884
0.0374064
0.0370056
0.0365848
0.0361436
0.0356784
0.0351845
0.0346539
0.0340821
0.033465
0.0327967
0.0320741
0.0312928
0.0304635
0.0296051
0.0287335
0.0278659
0.0270236
0.0262268
0.0255046
0.0248977
0.0244499
0.0242362
0.0242953
0.024792
0.0257005
0.0274196
0.0298639
0.0330795
0.0372586
0.0426884
0.049388
0.0577569
0.0702295
0.0863413
0.0482924
0.0480612
0.0478433
0.0476414
0.0474206
0.0471762
0.0469025
0.0466012
0.0462693
0.04591
0.0455154
0.0450671
0.0445517
0.0439666
0.0433384
0.0426999
0.0420945
0.0415475
0.0410719
0.0406584
0.0402924
0.0399508
0.0396151
0.0392711
0.0389112
0.0385317
0.0381325
0.0377144
0.0372764
0.036819
0.0363372
0.0358289
0.0352837
0.0346973
0.0340669
0.0333847
0.032648
0.0318523
0.0310081
0.0301345
0.0292471
0.0283634
0.0275048
0.0266922
0.0259546
0.0253348
0.0248761
0.0246573
0.0247157
0.025224
0.0261566
0.0279224
0.0304266
0.0337165
0.0379882
0.0435333
0.050375
0.0589138
0.0716053
0.0880699
0.0493511
0.0491155
0.0488936
0.0486878
0.0484631
0.0482138
0.0479339
0.047625
0.0472838