/*--------------------------------*- C++ -*----------------------------------*\
  =========                 |
  \\      /  F ield         | OpenFOAM: The Open Source CFD Toolbox
   \\    /   O peration     | Website:  https://openfoam.org
    \\  /    A nd           | Version:  6.0
     \\/     M anipulation  |
\*---------------------------------------------------------------------------*/
FoamFile
{
    version     2.0;
    format      ascii;
    class       volScalarField;
    location    "19";
    object      p;
}
// * * * * * * * * * * * * * * * * * * * * * * * * * * * * * * * * * * * * * //

dimensions      [0 2 -2 0 0 0 0];

internalField   nonuniform List<scalar> 
62000
(
0.0220256
0.0221134
0.0222029
0.0222932
0.0223865
0.022483
0.0225842
0.022691
0.0228048
0.0229268
0.0230588
0.0232018
0.0233585
0.0235294
0.0237179
0.0239241
0.0241521
0.0244021
0.0246782
0.0249811
0.0253149
0.0256811
0.0260834
0.0265245
0.0270072
0.0275353
0.0281105
0.0287372
0.0294151
0.0301474
0.0309305
0.0317636
0.0326415
0.033561
0.0345164
0.0354939
0.0364756
0.0374406
0.0383647
0.0392278
0.0400176
0.0407318
0.0413829
0.0420044
0.042653
0.0434
0.0443291
0.0454899
0.0468922
0.0484722
0.0500476
0.051489
0.0524495
0.0527312
0.0522218
0.0507576
0.0487875
0.0458689
0.0457108
0.0503017
0.0222151
0.022259
0.0223114
0.0223704
0.0224382
0.0225147
0.0226013
0.0226985
0.0228076
0.0229293
0.023065
0.0232151
0.0233817
0.0235646
0.0237667
0.0239875
0.0242301
0.0244946
0.0247842
0.0250997
0.0254445
0.0258203
0.02623
0.0266766
0.0271625
0.0276914
0.0282652
0.0288878
0.0295602
0.0302845
0.0310595
0.0318829
0.0327498
0.0336568
0.0345961
0.035556
0.036522
0.0374765
0.0383983
0.039269
0.040078
0.0408249
0.0415244
0.0422128
0.0429509
0.0438167
0.0449047
0.0462801
0.0479748
0.04995
0.0520488
0.0541708
0.0559723
0.0572226
0.0577629
0.0572861
0.0562592
0.0540162
0.0556286
0.0593766
0.0224795
0.0224972
0.0225233
0.0225557
0.0225969
0.0226468
0.0227075
0.0227791
0.0228638
0.022962
0.0230759
0.0232059
0.0233545
0.0235221
0.0237113
0.0239226
0.0241585
0.0244195
0.0247083
0.0250259
0.0253749
0.0257571
0.0261749
0.026631
0.0271274
0.0276677
0.0282534
0.0288885
0.0295747
0.0303139
0.0311057
0.0319459
0.0328291
0.0337487
0.0346965
0.0356594
0.0366238
0.0375733
0.0384857
0.0393408
0.040124
0.04083
0.0414666
0.0420619
0.0426669
0.0433495
0.0441955
0.0452657
0.0465925
0.0481458
0.0497888
0.0514592
0.0528529
0.0537408
0.0539636
0.0531387
0.0516976
0.0490063
0.0497274
0.0499157
0.0228133
0.0228314
0.0228572
0.0228881
0.0229269
0.0229724
0.0230273
0.0230909
0.0231661
0.0232526
0.0233532
0.0234678
0.0235995
0.0237484
0.023918
0.0241086
0.0243241
0.0245652
0.0248355
0.0251367
0.0254719
0.0258433
0.0262532
0.0267047
0.0271992
0.0277401
0.0283288
0.0289687
0.0296624
0.0304122
0.031218
0.0320747
0.0329738
0.033907
0.0348625
0.0358273
0.0367897
0.0377342
0.0386384
0.0394799
0.0402414
0.0409135
0.0414983
0.0420165
0.0425105
0.0430398
0.0436828
0.0444955
0.0455138
0.0467146
0.0479848
0.049312
0.050447
0.0512027
0.051435
0.0507383
0.0494689
0.0469811
0.0473539
0.0470613
0.022966
0.0229949
0.0230319
0.0230746
0.0231251
0.0231827
0.023249
0.0233237
0.0234085
0.0235035
0.0236105
0.0237301
0.0238642
0.0240138
0.0241811
0.0243679
0.0245766
0.0248096
0.0250699
0.0253606
0.0256846
0.0260455
0.0264457
0.0268893
0.0273777
0.0279147
0.0285013
0.0291414
0.0298376
0.0305931
0.0314087
0.0322779
0.0331907
0.0341334
0.0350928
0.0360556
0.0370132
0.0379526
0.0388514
0.0396873
0.0404416
0.0411026
0.0416689
0.0421564
0.0426017
0.0430582
0.0435991
0.044277
0.04513
0.04614
0.0472119
0.0483776
0.0494455
0.0502647
0.0507277
0.0504281
0.0496871
0.0477472
0.0484906
0.0485398
0.0230078
0.0230484
0.0230969
0.0231511
0.0232138
0.0232836
0.0233629
0.0234507
0.0235492
0.0236576
0.0237781
0.0239102
0.0240564
0.0242163
0.024393
0.0245867
0.024801
0.0250371
0.025299
0.0255891
0.0259114
0.0262696
0.0266667
0.0271072
0.0275931
0.0281286
0.028715
0.0293565
0.0300561
0.0308177
0.031643
0.0325252
0.0334514
0.0344057
0.0353702
0.0363329
0.0372877
0.0382238
0.03912
0.0399542
0.0407069
0.0413644
0.0419221
0.0423915
0.0428037
0.0432066
0.0436678
0.0442341
0.0449419
0.0457685
0.0466223
0.0475591
0.0484193
0.0490772
0.0494532
0.0491845
0.0486417
0.0469926
0.0479542
0.0476348
0.023071
0.0231046
0.0231438
0.023188
0.0232407
0.0233013
0.0233732
0.0234559
0.0235523
0.0236618
0.023787
0.0239274
0.0240851
0.0242599
0.0244536
0.0246666
0.024901
0.025158
0.02544
0.0257496
0.0260894
0.0264633
0.0268738
0.0273258
0.0278211
0.0283648
0.0289586
0.0296072
0.0303142
0.0310844
0.0319202
0.0328146
0.0337542
0.034719
0.0356904
0.0366553
0.0376099
0.0385456
0.0394426
0.0402801
0.041038
0.0417014
0.0422628
0.0427305
0.0431309
0.0435077
0.0439243
0.0444234
0.0450379
0.0457385
0.0464277
0.0471638
0.0477933
0.0481736
0.048237
0.047669
0.0469573
0.0452873
0.0460332
0.0452353
0.0232542
0.023253
0.0232579
0.0232679
0.0232871
0.0233147
0.023355
0.0234078
0.0234777
0.0235645
0.0236724
0.0238009
0.023954
0.0241306
0.0243339
0.0245628
0.0248199
0.0251046
0.025419
0.0257637
0.0261404
0.0265514
0.0269981
0.0274841
0.0280106
0.0285823
0.0292008
0.0298711
0.0305975
0.0313852
0.0322372
0.0331469
0.0340995
0.0350753
0.0360532
0.0370211
0.037977
0.0389151
0.0398177
0.040666
0.0414401
0.0421244
0.04271
0.0432032
0.0436289
0.0440301
0.0444713
0.0449972
0.0456449
0.0463826
0.0471097
0.0478764
0.0485087
0.0488224
0.0487055
0.047869
0.0468909
0.0450265
0.0452181
0.0440712
0.0235236
0.0234643
0.0234141
0.023372
0.0233415
0.023322
0.0233172
0.0233276
0.0233572
0.0234072
0.0234816
0.0235819
0.0237121
0.0238733
0.0240687
0.0242989
0.0245661
0.0248707
0.0252132
0.0255943
0.0260139
0.0264728
0.0269704
0.0275087
0.0280868
0.0287082
0.0293733
0.0300868
0.0308524
0.0316754
0.0325587
0.0334951
0.0344699
0.0354615
0.03645
0.037424
0.0383841
0.0393278
0.0402408
0.0411057
0.0419029
0.0426157
0.0432339
0.0437628
0.0442266
0.04467
0.0451626
0.0457589
0.0465084
0.04739
0.0483115
0.0493211
0.0502233
0.0507666
0.0507583
0.0498696
0.0487025
0.0465606
0.045992
0.0442203
0.023781
0.0236624
0.023559
0.0234684
0.0233942
0.0233346
0.0232928
0.0232682
0.0232647
0.0232825
0.0233263
0.0233969
0.0234997
0.0236358
0.0238104
0.0240245
0.0242827
0.0245855
0.0249356
0.0253334
0.0257795
0.0262739
0.0268152
0.0274037
0.0280367
0.0287158
0.0294396
0.0302114
0.0310337
0.0319108
0.0328441
0.0338251
0.0348369
0.0358577
0.0368667
0.0378548
0.0388256
0.0397803
0.0407068
0.0415884
0.0424036
0.043133
0.0437634
0.0442971
0.044756
0.0451858
0.0456619
0.0462516
0.0470253
0.0479822
0.0490555
0.0503087
0.0515377
0.0524389
0.0527133
0.0519553
0.0507118
0.0482938
0.0469135
0.0440212
0.023961
0.0237961
0.0236513
0.0235239
0.0234177
0.0233307
0.023266
0.0232221
0.0232021
0.0232051
0.0232349
0.0232917
0.0233799
0.0235009
0.0236594
0.0238579
0.0241012
0.024392
0.0247337
0.0251292
0.0255798
0.0260872
0.0266502
0.0272693
0.0279411
0.0286664
0.0294424
0.0302712
0.0311539
0.0320929
0.0330877
0.0341265
0.0351902
0.0362536
0.0372959
0.0383091
0.0392995
0.0402712
0.0412132
0.0421068
0.0429266
0.0436481
0.0442519
0.0447342
0.0451107
0.0454233
0.0457493
0.0461672
0.0467684
0.0475817
0.0485792
0.0498624
0.0512525
0.0524145
0.0529659
0.0524038
0.0511921
0.048609
0.0465389
0.0423659
0.0240668
0.0238786
0.0237136
0.0235686
0.0234481
0.0233498
0.0232772
0.0232282
0.0232061
0.0232091
0.0232407
0.0232997
0.0233903
0.0235119
0.0236697
0.0238643
0.0241018
0.024384
0.0247163
0.0251021
0.0255449
0.0260479
0.0266116
0.0272383
0.0279254
0.0286741
0.029482
0.030351
0.0312815
0.0322747
0.033328
0.0344264
0.0355465
0.0366602
0.0377445
0.0387918
0.0398102
0.0408049
0.0417641
0.0426651
0.0434767
0.0441671
0.0447091
0.0450892
0.0453126
0.0454122
0.0454611
0.0455425
0.0457664
0.0461899
0.046833
0.0478531
0.0491234
0.0503259
0.0510231
0.0506425
0.0495599
0.0470137
0.0445141
0.0393828
0.0241574
0.0239631
0.0237917
0.0236411
0.0235158
0.0234151
0.0233421
0.0232961
0.0232796
0.0232916
0.0233347
0.0234077
0.0235132
0.0236507
0.0238231
0.0240311
0.0242785
0.0245677
0.0249026
0.0252875
0.0257262
0.0262231
0.0267805
0.0274023
0.0280877
0.0288399
0.0296579
0.0305448
0.0315022
0.0325309
0.0336275
0.034774
0.035944
0.037105
0.0382323
0.0393173
0.0403683
0.0413907
0.0423699
0.0432786
0.0440791
0.0447325
0.0452026
0.045465
0.0455114
0.0453607
0.0450748
0.0447342
0.0444578
0.0443278
0.0444107
0.0449298
0.0458369
0.046859
0.0475517
0.0473012
0.0464272
0.0441312
0.0414951
0.0360373
0.0242589
0.024074
0.0239114
0.0237689
0.0236514
0.0235584
0.0234936
0.0234566
0.0234508
0.0234752
0.0235332
0.0236234
0.0237489
0.0239077
0.024103
0.0243338
0.0246037
0.0249127
0.0252645
0.025662
0.0261089
0.0266092
0.027166
0.027784
0.028464
0.029211
0.0300258
0.0309139
0.0318787
0.0329226
0.0340422
0.035219
0.0364234
0.037621
0.0387845
0.0399045
0.040989
0.0420423
0.0430469
0.0439704
0.0447704
0.0454017
0.0458209
0.0459926
0.0458942
0.0455282
0.04494
0.0441993
0.0434253
0.0427137
0.0421711
0.0420838
0.0424876
0.043186
0.0437549
0.0435818
0.0429514
0.0410541
0.038514
0.0333338
0.0244105
0.0242426
0.0240952
0.0239666
0.0238619
0.0237809
0.0237281
0.0237033
0.0237106
0.0237495
0.0238235
0.0239318
0.0240774
0.024259
0.0244789
0.0247366
0.025034
0.0253712
0.02575
0.0261724
0.0266407
0.0271581
0.0277269
0.0283517
0.0290334
0.0297782
0.0305883
0.0314712
0.0324327
0.0334772
0.0346032
0.0357922
0.0370147
0.0382346
0.0394237
0.0405725
0.0416882
0.0427746
0.0438117
0.0447638
0.0455855
0.0462286
0.0466444
0.0467888
0.0466256
0.0461399
0.0453574
0.0443307
0.0431684
0.0419697
0.0408673
0.040201
0.040091
0.0404175
0.0408019
0.0406515
0.0402452
0.0387819
0.036448
0.031938
0.0246226
0.0244793
0.0243551
0.0242478
0.0241626
0.0240992
0.0240624
0.024052
0.024073
0.0241251
0.0242131
0.0243361
0.0244986
0.0246988
0.0249404
0.0252217
0.0255459
0.0259115
0.0263202
0.0267727
0.0272702
0.0278145
0.0284068
0.0290503
0.0297454
0.0304978
0.0313104
0.0321915
0.0331486
0.0341887
0.0353118
0.0365016
0.0377292
0.0389592
0.040164
0.0413346
0.0424789
0.0436008
0.0446792
0.0456773
0.0465494
0.0472471
0.0477194
0.0479161
0.0477897
0.0473089
0.0464787
0.0453301
0.0439542
0.0424409
0.0409353
0.0398135
0.0392621
0.0392422
0.0394198
0.0392403
0.0389822
0.0378827
0.0357472
0.0320071
0.0249232
0.0248043
0.0247023
0.0246156
0.0245489
0.0245026
0.0244812
0.0244855
0.0245199
0.0245852
0.0246858
0.0248223
0.0249983
0.0252141
0.0254726
0.0257738
0.0261201
0.0265109
0.0269471
0.0274295
0.0279581
0.0285337
0.029156
0.0298271
0.0305458
0.0313168
0.0321422
0.0330303
0.0339896
0.035028
0.0361481
0.0373347
0.0385616
0.0397951
0.0410094
0.0421975
0.0433689
0.044529
0.0456581
0.04672
0.0476716
0.0484671
0.0490556
0.0493836
0.0493949
0.0490437
0.0483145
0.0472149
0.0458121
0.0441784
0.0424561
0.0410415
0.0401736
0.0398736
0.0398513
0.0395866
0.0393668
0.0384841
0.036447
0.0333609
0.0252797
0.0251878
0.0251119
0.0250498
0.0250062
0.024981
0.0249788
0.0250001
0.0250498
0.0251285
0.0252416
0.0253895
0.0255773
0.0258046
0.026076
0.0263913
0.0267542
0.0271638
0.0276219
0.028129
0.0286851
0.0292902
0.0299433
0.0306452
0.0313931
0.0321905
0.033038
0.0339431
0.0349137
0.0359586
0.037081
0.0382681
0.0394954
0.0407318
0.0419548
0.0431599
0.0443594
0.045562
0.0467506
0.0478921
0.0489477
0.049876
0.0506284
0.0511501
0.0513787
0.0512566
0.0507498
0.0498421
0.0485752
0.0469958
0.0452336
0.0436868
0.0426236
0.0421173
0.0419059
0.0415035
0.0411988
0.0403595
0.0382814
0.0355948
0.0256973
0.0256308
0.0255791
0.0255401
0.0255185
0.0255141
0.0255316
0.0255712
0.0256379
0.0257323
0.0258595
0.0260202
0.0262193
0.0264578
0.0267396
0.0270662
0.027441
0.0278646
0.0283387
0.0288648
0.0294427
0.0300727
0.0307533
0.0314846
0.0322627
0.0330899
0.0339652
0.0348948
0.0358858
0.0369462
0.03808
0.039275
0.040509
0.0417537
0.0429892
0.0442148
0.0454461
0.0466959
0.0479516
0.0491844
0.0503611
0.0514456
0.0523929
0.0531484
0.0536456
0.0538174
0.0536134
0.052996
0.0519791
0.0505825
0.048913
0.0473602
0.0462094
0.0455618
0.0451748
0.0445854
0.0440858
0.0431234
0.0408596
0.0382933
0.0261598
0.0261207
0.026096
0.0260829
0.0260861
0.0261048
0.0261436
0.0262025
0.0262867
0.0263965
0.0265375
0.0267102
0.0269204
0.0271684
0.0274596
0.0277949
0.028179
0.0286124
0.0290979
0.0296373
0.0302312
0.0308801
0.0315828
0.0323392
0.0331448
0.0340012
0.0349061
0.0358646
0.0368822
0.0379662
0.0391201
0.0403324
0.0415823
0.0428431
0.0440987
0.0453513
0.0466201
0.0479227
0.0492515
0.0505828
0.0518893
0.0531404
0.0542949
0.0552992
0.0560847
0.0565767
0.0567117
0.0564326
0.0557288
0.0545905
0.0530999
0.0516258
0.0504537
0.0497075
0.0491496
0.0483369
0.0475562
0.0463416
0.0437761
0.041075
0.0266856
0.0266703
0.0266679
0.0266766
0.0267004
0.0267392
0.026797
0.0268744
0.0269757
0.0271019
0.0272574
0.0274437
0.0276655
0.0279243
0.0282247
0.0285688
0.0289607
0.0294024
0.0298964
0.0304458
0.0310512
0.0317142
0.0324338
0.0332102
0.0340391
0.0349217
0.035855
0.0368431
0.0378907
0.0390037
0.0401852
0.0414232
0.0426979
0.0439848
0.0452692
0.0465568
0.0478698
0.0492304
0.0506363
0.0520687
0.0535061
0.0549231
0.0562817
0.0575301
0.0585981
0.0594058
0.0598787
0.0599441
0.0595682
0.0587151
0.0574373
0.056082
0.0549301
0.0541107
0.0533856
0.0523239
0.0512102
0.0496565
0.0467079
0.0436904
0.0272362
0.0272456
0.027268
0.0273007
0.0273479
0.027409
0.0274881
0.0275852
0.0277049
0.0278476
0.0280186
0.0282185
0.0284529
0.0287224
0.0290326
0.029385
0.0297848
0.0302334
0.0307346
0.0312913
0.0319052
0.0325783
0.0333104
0.0341022
0.0349498
0.0358545
0.0368133
0.0378299
0.0389081
0.0400529
0.0412666
0.0425372
0.0438449
0.0451658
0.0464882
0.0478189
0.0491829
0.0506063
0.0520917
0.0536244
0.0551881
0.0567615
0.0583095
0.0597816
0.0611069
0.0622019
0.0629839
0.0633673
0.0633003
0.0627215
0.0616585
0.0604303
0.0593044
0.0584172
0.0575224
0.0562017
0.0547312
0.0527966
0.0494239
0.0459781
0.0278168
0.0278483
0.0278922
0.0279462
0.0280146
0.0280965
0.0281963
0.0283137
0.0284531
0.0286147
0.0288031
0.0290193
0.029268
0.0295507
0.029872
0.0302346
0.0306427
0.0310992
0.0316072
0.032171
0.0327921
0.0334734
0.0342152
0.0350192
0.0358817
0.036805
0.037786
0.0388286
0.0399363
0.0411136
0.0423622
0.0436693
0.0450156
0.0463782
0.0477456
0.0491266
0.0505474
0.0520373
0.0536026
0.0552323
0.0569139
0.0586293
0.0603454
0.0620129
0.0635604
0.064902
0.0659489
0.0666062
0.0668059
0.0664673
0.0655912
0.064473
0.0633687
0.0624114
0.0613465
0.0597658
0.0579415
0.0556164
0.0518083
0.0478914
0.0284127
0.0284681
0.0285363
0.0286141
0.0287059
0.0288103
0.0289316
0.0290693
0.0292281
0.0294078
0.0296134
0.0298454
0.030109
0.0304051
0.0307388
0.0311122
0.0315303
0.0319954
0.0325113
0.0330822
0.0337105
0.0343992
0.0351496
0.0359637
0.0368388
0.0377777
0.0387781
0.0398442
0.0409794
0.0421884
0.0434723
0.0448184
0.0462073
0.0476157
0.049034
0.0504708
0.0519531
0.0535122
0.0551572
0.0568794
0.0586688
0.0605096
0.0623699
0.0642011
0.0659315
0.0674737
0.0687346
0.0696127
0.0700284
0.0698837
0.0691592
0.0681233
0.0670168
0.0659771
0.0647392
0.0629075
0.0607468
0.0580463
0.0538145
0.0494315
0.0290429
0.0291182
0.0292053
0.0293021
0.0294124
0.0295357
0.0296758
0.0298327
0.0300103
0.0302089
0.0304324
0.0306821
0.0309619
0.0312737
0.0316214
0.0320082
0.0324379
0.0329139
0.0334394
0.0340193
0.0346559
0.035353
0.036112
0.0369358
0.0378224
0.0387754
0.0397931
0.0408805
0.0420415
0.0432808
0.0445998
0.0459853
0.0474181
0.048876
0.0503485
0.051845
0.0533919
0.0550215
0.0567446
0.0585541
0.0604413
0.0623914
0.0643731
0.066338
0.0682144
0.0699138
0.0713402
0.0723875
0.0729671
0.0729682
0.0723511
0.0713636
0.0702356
0.0691022
0.0676915
0.0656206
0.0631509
0.060101
0.0554684
0.050656
0.0296751
0.0297716
0.0298802
0.0299983
0.0301299
0.030274
0.0304344
0.030611
0.0308077
0.0310248
0.0312665
0.0315333
0.03183
0.0321575
0.0325205
0.032921
0.0333639
0.0338517
0.0343883
0.0349784
0.0356246
0.0363311
0.0370996
0.0379337
0.0388318
0.0397983
0.0408325
0.04194
0.0431253
0.0443936
0.0457465
0.0471712
0.048649
0.0501568
0.0516859
0.0532444
0.0548578
0.0565585
0.0583583
0.0602509
0.0622267
0.0642721
0.0663552
0.068428
0.0704181
0.0722367
0.0737857
0.0749561
0.0756535
0.0757557
0.0752113
0.0742394
0.0730623
0.0718202
0.0702351
0.0679396
0.0651887
0.0618194
0.0568134
0.0516267
0.0303152
0.0304302
0.0305572
0.0306939
0.0308442
0.0310075
0.0311875
0.0313841
0.0316009
0.0318381
0.0320994
0.0323856
0.0327004
0.0330459
0.0334252
0.0338418
0.0342991
0.0348011
0.0353505
0.0359529
0.0366107
0.0373284
0.0381081
0.0389537
0.0398642
0.0408449
0.0418956
0.0430228
0.0442317
0.0455281
0.0469142
0.0483774
0.0498993
0.0514584
0.0530446
0.0546661
0.0563472
0.0581191
0.0599939
0.0619649
0.0640222
0.0661514
0.0683206
0.070481
0.0725601
0.0744685
0.0761067
0.0773637
0.0781405
0.0783078
0.0777999
0.0768166
0.075573
0.0742116
0.0724527
0.0699443
0.0669389
0.0632772
0.0579244
0.0524186
0.0309573
0.0310933
0.0312417
0.0313995
0.0315708
0.0317545
0.0319544
0.0321702
0.0324059
0.0326613
0.0329408
0.0332446
0.0335772
0.0339396
0.0343358
0.0347684
0.0352416
0.0357584
0.0363221
0.0369383
0.0376093
0.03834
0.0391326
0.0399915
0.040916
0.041912
0.0429801
0.0441273
0.0453598
0.0466841
0.0481027
0.0496041
0.0511703
0.0527795
0.0544235
0.0561084
0.0578576
0.0597011
0.0616499
0.0636961
0.0658297
0.068035
0.0702795
0.0725134
0.0746636
0.0766405
0.078343
0.0796596
0.0804873
0.0806916
0.0801986
0.0791797
0.0778488
0.0763559
0.0744214
0.0717107
0.0684702
0.0645371
0.0588591
0.0530921
0.0316167
0.0317693
0.0319333
0.0321071
0.032294
0.0324942
0.0327109
0.0329444
0.033198
0.0334722
0.0337701
0.0340931
0.034444
0.0348254
0.0352395
0.0356904
0.0361808
0.0367149
0.0372949
0.0379273
0.0386137
0.0393598
0.0401675
0.0410418
0.0419822
0.0429954
0.0440822
0.0452507
0.0465076
0.04786
0.0493115
0.0508507
0.0524605
0.0541208
0.0558219
0.0575707
0.0593879
0.061303
0.0633243
0.0654439
0.0676503
0.0699274
0.0722404
0.0745394
0.0767501
0.0787825
0.0805339
0.0818919
0.0827506
0.0829723
0.0824723
0.0814028
0.0799745
0.0783427
0.0762318
0.0733242
0.0698638
0.0656736
0.0596877
0.0537012
0.0322655
0.0324362
0.032619
0.0328112
0.0330168
0.0332352
0.0334699
0.0337211
0.0339924
0.0342841
0.0345997
0.0349403
0.0353094
0.0357085
0.0361409
0.0366094
0.0371178
0.0376693
0.0382668
0.0389163
0.0396198
0.0403828
0.0412077
0.0420994
0.0430578
0.0440902
0.0451977
0.046389
0.0476716
0.0490534
0.0505382
0.0521157
0.0537701
0.0554804
0.0572393
0.0590516
0.0609373
0.0629239
0.065018
0.0672106
0.0694894
0.0718364
0.0742158
0.0765761
0.0788421
0.0809233
0.0827151
0.0841044
0.0849821
0.0852084
0.0846921
0.083557
0.0820182
0.0802391
0.0779489
0.0748474
0.0711735
0.0667323
0.0604482
0.054285
0.0329017
0.0330882
0.0332863
0.0334944
0.0337162
0.0339514
0.0342036
0.0344731
0.0347631
0.035074
0.0354088
0.0357691
0.0361572
0.0365761
0.0370274
0.0375156
0.0380427
0.0386138
0.0392301
0.0398988
0.0406213
0.0414035
0.0422475
0.043159
0.0441377
0.0451914
0.0463217
0.047538
0.0488482
0.0502607
0.0517803
0.0533972
0.0550961
0.0568578
0.0586748
0.0605509
0.0625055
0.0645637
0.0667309
0.0689969
0.0713487
0.0737661
0.0762123
0.078634
0.0809551
0.0830837
0.0849134
0.0863294
0.0872192
0.0874419
0.0868977
0.0856926
0.0840392
0.0821082
0.079636
0.0763395
0.0724555
0.0677646
0.0611893
0.0548701
0.0335214
0.0337266
0.0339441
0.0341711
0.0344118
0.0346655
0.0349358
0.0352227
0.0355301
0.0358582
0.0362106
0.0365883
0.0369948
0.0374317
0.037902
0.038409
0.0389558
0.0395464
0.0401827
0.0408715
0.0416144
0.0424173
0.0432825
0.0442157
0.0452169
0.0462943
0.0474498
0.0486934
0.0500332
0.0514786
0.0530346
0.0546924
0.0564373
0.0582509
0.0601264
0.0620675
0.0640913
0.0662228
0.0684643
0.0708059
0.073233
0.0757239
0.0782397
0.080726
0.0831049
0.0852836
0.0871524
0.0885953
0.0894955
0.0897105
0.0891365
0.0878512
0.0860765
0.0839883
0.0813302
0.0778358
0.0737381
0.0687921
0.0619259
0.0554768
0.0341404
0.0343592
0.0345892
0.0348294
0.035083
0.0353508
0.0356356
0.0359387
0.0362625
0.0366087
0.036979
0.0373762
0.0378017
0.0382593
0.0387497
0.0392782
0.039846
0.0404586
0.0411166
0.041828
0.0425933
0.0434192
0.0443076
0.0452648
0.0462908
0.0473943
0.0485775
0.0498508
0.0512229
0.0527034
0.0542981
0.0559983
0.0577905
0.0596576
0.0615931
0.0636001
0.0656947
0.0679005
0.0702184
0.0726378
0.0751433
0.0777111
0.0803008
0.0828564
0.0852982
0.0875315
0.0894438
0.0909157
0.0918261
0.0920307
0.0914203
0.090056
0.0881603
0.0859128
0.0830652
0.0793675
0.075052
0.0698448
0.062688
0.0561113
0.0347239
0.0349583
0.0352046
0.0354612
0.0357315
0.0360158
0.0363174
0.0366371
0.0369781
0.0373416
0.0377302
0.0381457
0.0385909
0.039068
0.0395793
0.0401284
0.0407181
0.0413525
0.0420331
0.0427673
0.0435561
0.0444061
0.0453195
0.0463024
0.0473554
0.0484874
0.0497009
0.0510066
0.0524135
0.0539318
0.0555673
0.0573123
0.0591539
0.0610756
0.0630728
0.0651471
0.0673145
0.069597
0.0719941
0.0744948
0.077083
0.0797327
0.0824021
0.0850332
0.0875443
0.0898386
0.0917999
0.0933058
0.0942286
0.0944229
0.0937751
0.0923252
0.0903058
0.0878965
0.0848553
0.0809484
0.0764058
0.0709262
0.0634731
0.0567826
0.0352613
0.0355098
0.0357704
0.0360421
0.0363285
0.03663
0.0369501
0.0372893
0.0376507
0.0380351
0.0384449
0.0388823
0.0393488
0.0398482
0.040381
0.0409528
0.0415646
0.0422224
0.0429261
0.0436847
0.0444982
0.0453739
0.0463138
0.0473246
0.0484068
0.0495698
0.0508162
0.0521571
0.0536018
0.0551605
0.0568398
0.0586317
0.0605245
0.0625037
0.064564
0.0667078
0.0689499
0.0713116
0.0737907
0.0763761
0.0790509
0.0817875
0.0845422
0.087255
0.089842
0.0922041
0.0942206
0.0957649
0.0967021
0.0968847
0.0961951
0.0946634
0.0925228
0.0899515
0.0867134
0.0825904
0.0778135
0.0720523
0.0643
0.0574857
0.0357786
0.0360479
0.0363305
0.0366233
0.0369308
0.037252
0.0375913
0.0379484
0.0383276
0.038729
0.0391562
0.0396105
0.0400951
0.0406125
0.0411646
0.041756
0.0423888
0.0430683
0.0437951
0.0445778
0.0454167
0.0463192
0.0472874
0.048328
0.0494417
0.0506382
0.0519204
0.0532995
0.0547848
0.0563871
0.0581127
0.0599547
0.0619018
0.0639396
0.0660655
0.0682807
0.0706
0.0730439
0.0756088
0.078283
0.0810493
0.0838785
0.0867249
0.0895263
0.0921965
0.0946332
0.0967115
0.0982999
0.0992549
0.0994266
0.0986947
0.097076
0.0948136
0.0920799
0.0886414
0.0842957
0.0792734
0.0732173
0.0651572
0.0582248
0.0363503
0.0366263
0.0369131
0.0372102
0.0375214
0.037849
0.0381956
0.0385636
0.0389543
0.0393708
0.0398131
0.0402862
0.040789
0.0413278
0.0419006
0.0425156
0.0431716
0.0438767
0.044629
0.045439
0.0463059
0.0472378
0.0482367
0.0493098
0.0504576
0.0516905
0.0530112
0.0544315
0.0559607
0.0576096
0.059385
0.0612796
0.063283
0.0653828
0.067576
0.0698649
0.0722641
0.0747932
0.0774469
0.0802135
0.0830756
0.0860022
0.088946
0.0918421
0.0946017
0.0971193
0.0992651
0.100902
0.101877
0.102037
0.10126
0.0995585
0.0971778
0.0942824
0.090641
0.0860662
0.0807912
0.074431
0.0660586
0.0589908
0.0366765
0.0369793
0.0372974
0.0376268
0.0379716
0.0383305
0.0387078
0.0391033
0.039521
0.0399615
0.0404284
0.0409236
0.0414499
0.0420106
0.042607
0.0432448
0.0439254
0.0446552
0.0454339
0.0462714
0.0471674
0.04813
0.0491614
0.050269
0.0514535
0.0527253
0.0540876
0.055552
0.0571282
0.058827
0.0606548
0.0626051
0.0646681
0.066831
0.0690942
0.0714594
0.0739413
0.076559
0.0793054
0.0821687
0.0851314
0.0881611
0.0912081
0.0942053
0.0970607
0.0996654
0.101885
0.103575
0.104574
0.104723
0.1039
0.102113
0.0996136
0.0965574
0.0927105
0.0879
0.0823615
0.0756837
0.0669889
0.0597852
0.0372233
0.0375273
0.0378431
0.03817
0.0385121
0.0388717
0.0392511
0.0396533
0.0400791
0.0405325
0.0410127
0.0415259
0.04207
0.0426527
0.0432707
0.0439336
0.0446393
0.0453969
0.0462037
0.0470717
0.047999
0.048995
0.0500612
0.0512058
0.0524293
0.0537429
0.0551494
0.0566609
0.0582868
0.0600381
0.0619215
0.0639301
0.0660544
0.0682845
0.0706197
0.0730638
0.0756314
0.0783405
0.0811827
0.0841461
0.0872134
0.0903505
0.0935058
0.0966091
0.0995656
0.102262
0.10456
0.106307
0.107332
0.10747
0.106601
0.104731
0.102117
0.0989007
0.0948464
0.0897953
0.0839869
0.0769827
0.0679599
0.060599
0.0375115
0.0378376
0.0381801
0.0385355
0.0389077
0.0392956
0.0397034
0.0401311
0.0405825
0.0410588
0.0415627
0.0420973
0.0426644
0.043269
0.0439109
0.0445975
0.045329
0.0461133
0.0469487
0.0478468
0.0488063
0.0498364
0.0509391
0.0521223
0.053387
0.0547443
0.0561974
0.0577582
0.0594364
0.061243
0.0631843
0.0652539
0.0674432
0.0697414
0.0721521
0.0746779
0.0773339
0.0801377
0.0830795
0.0861471
0.0893236
0.0925733
0.095842
0.0990568
0.10212
0.104914
0.107294
0.109103
0.110157
0.110286
0.109371
0.107417
0.104688
0.101312
0.0970479
0.0917503
0.0856617
0.0783178
0.0689559
0.0614318
0.038052
0.0383753
0.0387112
0.0390596
0.0394243
0.0398083
0.0402137
0.0406441
0.0411
0.0415859
0.0421006
0.042651
0.0432345
0.0438595
0.0445224
0.0452335
0.0459902
0.0468027
0.0476675
0.0485974
0.0495906
0.0506565
0.0517972
0.0530209
0.0543284
0.0557314
0.057233
0.0588454
0.060578
0.062442
0.0644439
0.066577
0.0688329
0.0712037
0.0736916
0.0763018
0.0790491
0.0819505
0.0849948
0.0881698
0.0914589
0.0948249
0.0982111
0.101542
0.104715
0.10761
0.110077
0.11195
0.113036
0.113158
0.112197
0.110163
0.107321
0.103785
0.0993098
0.0937621
0.0873881
0.0796964
0.0699883
0.062278
0.038306
0.0386458
0.0390032
0.0393759
0.0397672
0.040177
0.0406088
0.0410637
0.0415446
0.0420535
0.0425925
0.0431654
0.0437733
0.0444219
0.0451104
0.0458471
0.0466317
0.0474727
0.0483681
0.0493303
0.0503578
0.0514602
0.0526399
0.053905
0.0552566
0.0567067
0.0582584
0.059924
0.0617131
0.0636366
0.0657011
0.0679001
0.0702263
0.0726703
0.075239
0.0779362
0.0807776
0.0837799
0.0869304
0.0902166
0.0936225
0.0971094
0.100618
0.104069
0.107357
0.110358
0.112914
0.114856
0.115976
0.116094
0.11509
0.112974
0.110019
0.106323
0.101634
0.0958308
0.0891613
0.0811084
0.0710416
0.0631347
0.0387236
0.0390688
0.03943
0.0398071
0.0402032
0.0406201
0.04106
0.0415257
0.0420181
0.0425413
0.0430947
0.0436852
0.0443107
0.04498
0.0456896
0.0464506
0.0472604
0.0481297
0.0490549
0.0500495
0.0511117
0.0522512
0.0534704
0.0547779
0.0561746
0.0576729
0.059276
0.0609963
0.0628434
0.0648283
0.0669576
0.0692248
0.0716224
0.0741446
0.0767957
0.0795828
0.0825209
0.0856268
0.0888862
0.0922865
0.0958124
0.0994233
0.103057
0.106632
0.110039
0.113147
0.115797
0.117809
0.118968
0.119083
0.118038
0.115845
0.112778
0.108921
0.104016
0.0979531
0.0909833
0.0825608
0.0721271
0.0639999
0.0391133
0.0394638
0.0398311
0.0402154
0.0406193
0.041045
0.0414947
0.0419711
0.0424761
0.0430129
0.0435825
0.04419
0.0448354
0.0455254
0.0462586
0.0470439
0.0478807
0.0487782
0.0497339
0.0507609
0.0518578
0.0530344
0.0542935
0.0556435
0.0570859
0.058633
0.0602884
0.0620646
0.0639711
0.0660191
0.0682151
0.0705527
0.0730259
0.0756264
0.0783639
0.0812432
0.0842809
0.0874935
0.0908653
0.0943835
0.0980333
0.101772
0.105536
0.109238
0.112768
0.115988
0.118734
0.12082
0.12202
0.122137
0.121054
0.118782
0.115603
0.111583
0.106458
0.100131
0.0928507
0.0840447
0.0732301
0.0648694
0.0394839
0.039843
0.04022
0.0406143
0.0410295
0.0414673
0.0419303
0.0424212
0.0429412
0.0434942
0.04408
0.0447054
0.0453688
0.0460789
0.0468325
0.0476408
0.0485019
0.0494263
0.0504109
0.0514695
0.0526006
0.053814
0.0551128
0.0565056
0.0579938
0.0595904
0.0612988
0.0631318
0.065099
0.0672116
0.0694764
0.0718868
0.0744364
0.0771204
0.0799457
0.0829202
0.0860602
0.089382
0.0928689
0.0965077
0.100284
0.104154
0.10805
0.111883
0.115538
0.118873
0.121718
0.123879
0.125124
0.125246
0.124127
0.121781
0.118488
0.114302
0.108956
0.102361
0.0947649
0.0855668
0.0743618
0.0657443
0.0398419
0.040211
0.0405987
0.0410046
0.0414316
0.0418814
0.042357
0.0428607
0.0433949
0.0439628
0.0445658
0.0452088
0.0458926
0.0466237
0.0474009
0.0482335
0.0491214
0.0500736
0.0510883
0.0521788
0.0533442
0.0545943
0.0559328
0.0573683
0.0589025
0.0605487
0.0623106
0.0642011
0.0662302
0.0684088
0.0707438
0.073229
0.0758589
0.0786263
0.0815435
0.0846161
0.0878613
0.0912957
0.0949012
0.0986642
0.102571
0.106576
0.110608
0.114576
0.11836
0.121813
0.124758
0.126999
0.128292
0.128421
0.127269
0.124848
0.121441
0.117089
0.111516
0.104645
0.0967233
0.0871186
0.0755081
0.0666193
0.0402295
0.0406076
0.0410051
0.0414212
0.0418597
0.042322
0.042811
0.0433292
0.0438781
0.0444617
0.0450801
0.0457403
0.0464409
0.047191
0.0479876
0.048842
0.049753
0.0507313
0.0517738
0.052895
0.0540938
0.0553801
0.0567579
0.0582358
0.059816
0.061512
0.0633275
0.0652761
0.0673675
0.0696132
0.07202
0.0745817
0.0772925
0.0801491
0.0831598
0.0863337
0.0896871
0.0932369
0.0969636
0.100854
0.104894
0.109037
0.113208
0.117313
0.121228
0.124801
0.12785
0.130172
0.131515
0.131656
0.130474
0.12798
0.124456
0.119932
0.114129
0.10698
0.0987265
0.0887062
0.0766797
0.0674975
0.040642
0.0410278
0.0414331
0.0418579
0.0423053
0.042777
0.0432761
0.0438051
0.0443664
0.0449633
0.0455974
0.0462738
0.0469933
0.0477629
0.0485814
0.0494587
0.0503948
0.0513994
0.0524705
0.0536222
0.0548542
0.0561761
0.0575928
0.0591127
0.0607384
0.0624838
0.0643529
0.0663595
0.0685137
0.070827
0.0733065
0.0759464
0.0787424
0.0816877
0.0847966
0.0880749
0.09154
0.0952087
0.0990606
0.103082
0.107259
0.111544
0.115858
0.120105
0.124155
0.127851
0.131006
0.13341
0.134805
0.13496
0.13375
0.131183
0.127542
0.122843
0.116805
0.109369
0.100772
0.0903213
0.0778632
0.0683726
0.0410911
0.0414851
0.041899
0.0423326
0.0427898
0.0432721
0.0437827
0.0443241
0.0448981
0.0455088
0.0461564
0.0468482
0.0475828
0.0483697
0.0492058
0.0501031
0.0510605
0.0520891
0.0531862
0.0543668
0.0556303
0.0569868
0.0584412
0.0600022
0.0616728
0.063467
0.0653893
0.0674537
0.0696707
0.0720521
0.0746056
0.0773253
0.0802066
0.0832466
0.0864553
0.0898417
0.093422
0.097213
0.101193
0.105349
0.109667
0.114096
0.118556
0.122947
0.127135
0.130956
0.134217
0.136706
0.138156
0.138328
0.137092
0.134451
0.130688
0.125809
0.119532
0.111805
0.10286
0.0919697
0.0790689
0.0692495
0.0415612
0.0419636
0.0423863
0.0428292
0.0432955
0.0437871
0.0443073
0.0448586
0.0454438
0.0460664
0.0467279
0.047434
0.0481854
0.0489897
0.0498457
0.0507636
0.051744
0.0527968
0.0539203
0.0551293
0.056424
0.0578141
0.0593054
0.0609067
0.0626212
0.0644635
0.0664384
0.0685603
0.07084
0.0732899
0.0759178
0.0787186
0.0816891
0.0848232
0.0881368
0.0916349
0.0953346
0.0992523
0.103366
0.10766
0.112123
0.116701