/*--------------------------------*- C++ -*----------------------------------*\
  =========                 |
  \\      /  F ield         | OpenFOAM: The Open Source CFD Toolbox
   \\    /   O peration     | Website:  https://openfoam.org
    \\  /    A nd           | Version:  6.0
     \\/     M anipulation  |
\*---------------------------------------------------------------------------*/
FoamFile
{
    version     2.0;
    format      ascii;
    class       surfaceScalarField;
    location    "19";
    object      phi;
}
// * * * * * * * * * * * * * * * * * * * * * * * * * * * * * * * * * * * * * //

dimensions      [0 3 -1 0 0 0 0];

internalField   nonuniform List<scalar> 
123526
(
8.17261e-05
2.26082e-05
-8.13459e-05
8.21401e-05
2.44355e-05
8.2585e-05
2.64096e-05
8.30682e-05
2.85423e-05
8.35878e-05
3.0846e-05
8.4152e-05
3.33342e-05
8.47597e-05
3.60213e-05
8.54195e-05
3.89228e-05
8.61318e-05
4.20549e-05
8.69053e-05
4.54371e-05
8.77396e-05
4.90889e-05
8.86445e-05
5.30306e-05
8.96213e-05
5.72844e-05
9.06824e-05
6.18724e-05
9.18313e-05
6.68213e-05
9.30763e-05
7.2162e-05
9.44214e-05
7.79211e-05
9.58838e-05
8.41243e-05
9.74669e-05
9.0812e-05
9.91808e-05
9.80201e-05
0.000101039
0.000105777
0.000103054
0.000114128
0.000105231
0.000123118
0.000107597
0.000132776
0.000110153
0.000143165
0.000112922
0.000154318
0.000115918
0.000166286
0.000119156
0.000179121
0.000122658
0.000192863
0.000126439
0.000207571
0.000130522
0.000223278
0.000134924
0.000240036
0.000139669
0.000257877
0.000144776
0.000276831
0.000150267
0.000296919
0.00015617
0.00031814
0.000162503
0.000340487
0.00016929
0.000363914
0.000176552
0.000388352
0.000184305
0.000413687
0.000192566
0.000439754
0.000201348
0.000466317
0.000210654
0.000493063
0.000220484
0.00051957
0.000230825
0.000545291
0.00024165
0.00056952
0.000252917
0.00059136
0.000264559
0.000609682
0.000276484
0.000623076
0.000288562
0.000629799
0.000300628
0.000627707
0.000312458
0.000614199
0.000323776
0.000586126
0.000334229
0.000539755
0.00034338
0.000470696
0.000350644
0.000373853
0.000355717
0.000243212
0.000357577
7.15657e-05
0.000363673
-0.000137424
-0.000371784
0.00039706
8.04191e-05
2.22331e-05
-8.00459e-05
8.08251e-05
2.40298e-05
8.12626e-05
2.59708e-05
8.17376e-05
2.80677e-05
8.22493e-05
3.03328e-05
8.28048e-05
3.27791e-05
8.34038e-05
3.54208e-05
8.40541e-05
3.8273e-05
8.47564e-05
4.13507e-05
8.55191e-05
4.46747e-05
8.63416e-05
4.82644e-05
8.72336e-05
5.21387e-05
8.8196e-05
5.63198e-05
8.92415e-05
6.08268e-05
9.03728e-05
6.56876e-05
9.15988e-05
7.09357e-05
9.2923e-05
7.65945e-05
9.43625e-05
8.26843e-05
9.59206e-05
8.92517e-05
9.76071e-05
9.63327e-05
9.94348e-05
0.000103947
0.000101417
0.000112145
0.000103558
0.000120975
0.000105883
0.00013045
0.000108396
0.00014065
0.000111116
0.000151596
0.000114059
0.000163341
0.000117239
0.000175939
0.000120678
0.000189422
0.00012439
0.000203857
0.000128399
0.000219267
0.00013272
0.000235712
0.000137377
0.000253216
0.000142391
0.000271813
0.000147783
0.000291524
0.000153578
0.000312341
0.000159795
0.000334265
0.000166458
0.000357247
0.000173587
0.000381218
0.0001812
0.000406071
0.000189312
0.000431637
0.000197934
0.00045769
0.000207072
0.000483919
0.000216725
0.000509912
0.000226879
0.000535131
0.000237508
0.000558884
0.000248569
0.000580292
0.000259997
0.000598246
0.000271699
0.000611365
0.000283549
0.000617939
0.000295381
0.000615864
0.000306978
0.000602589
0.000318067
0.000575027
0.000328299
0.000529517
0.000337244
0.000461747
0.000344323
0.000366773
0.000349022
0.000238502
0.000352064
6.84702e-05
0.000351454
-0.000136905
-0.000361582
0.000341172
7.91668e-05
2.18634e-05
-7.8799e-05
7.95667e-05
2.36301e-05
7.99972e-05
2.55388e-05
8.04643e-05
2.76009e-05
8.09673e-05
2.98283e-05
8.15128e-05
3.22339e-05
8.21008e-05
3.48313e-05
8.27386e-05
3.76354e-05
8.34275e-05
4.06601e-05
8.41749e-05
4.39271e-05
8.49813e-05
4.74559e-05
8.58553e-05
5.12643e-05
8.67988e-05
5.53739e-05
8.78234e-05
5.98016e-05
8.89327e-05
6.45758e-05
9.01349e-05
6.97328e-05
9.14341e-05
7.52929e-05
9.2847e-05
8.12708e-05
9.43771e-05
8.77195e-05
9.60339e-05
9.46753e-05
9.78302e-05
0.000102149
9.97786e-05
0.000110195
0.000101884
0.000118868
0.00010417
0.000128163
0.00010664
0.000138177
0.000109315
0.00014892
0.000112208
0.000160445
0.000115334
0.000172811
0.000118714
0.000186039
0.000122362
0.000200207
0.000126301
0.000215325
0.000130546
0.000231464
0.000135122
0.000248637
0.000140048
0.000266884
0.000145344
0.000286223
0.000151037
0.000306645
0.000157144
0.000328155
0.000163688
0.0003507
0.00017069
0.000374214
0.000178166
0.000398592
0.000186132
0.000423669
0.000194598
0.000449221
0.000203571
0.000474945
0.000213047
0.000500434
0.000223013
0.000525163
0.000233443
0.000548452
0.000244295
0.000569439
0.000255502
0.000587038
0.000266975
0.000599891
0.000278588
0.000606324
0.000290179
0.000604272
0.000301535
0.000591233
0.000312389
0.000564175
0.000322398
0.000519509
0.000331141
0.000453004
0.00033809
0.000359828
0.000342771
0.000233826
0.000345241
6.60509e-05
0.000345455
-0.000137037
-0.000364138
0.000348106
7.79979e-05
2.14991e-05
-7.76353e-05
7.83915e-05
2.32367e-05
7.88154e-05
2.51139e-05
7.92745e-05
2.7142e-05
7.97689e-05
2.93328e-05
8.03046e-05
3.16986e-05
8.08819e-05
3.42529e-05
8.15078e-05
3.701e-05
8.21837e-05
3.99828e-05
8.29171e-05
4.31942e-05
8.3708e-05
4.66634e-05
8.45652e-05
5.04074e-05
8.54902e-05
5.44472e-05
8.64945e-05
5.87974e-05
8.75814e-05
6.34871e-05
8.87592e-05
6.85551e-05
9.00316e-05
7.40186e-05
9.14153e-05
7.98869e-05
9.29141e-05
8.62189e-05
9.45377e-05
9.30513e-05
9.62988e-05
0.000100386
9.82101e-05
0.000108283
0.000100276
0.0001168
0.000102521
0.000125917
0.000104948
0.000135749
0.000107575
0.000146292
0.000110418
0.000157601
0.000113489
0.000169738
0.000116811
0.000182716
0.000120395
0.000196621
0.000124265
0.000211453
0.000128437
0.00022729
0.000132931
0.000244139
0.00013777
0.000262042
0.000142973
0.000281017
0.000148565
0.000301051
0.000154563
0.000322154
0.00016099
0.00034427
0.000167866
0.000367336
0.000175207
0.000391248
0.000183028
0.000415845
0.00019134
0.000440906
0.000200148
0.000466134
0.000209448
0.000491131
0.000219227
0.000515379
0.00022946
0.000538215
0.000240103
0.00055879
0.000251092
0.000576041
0.000262338
0.000588637
0.00027372
0.000594932
0.000285078
0.000592902
0.000296204
0.000580094
0.000306838
0.000553532
0.000316647
0.000509697
0.000325222
0.00044443
0.000332087
0.000352972
0.000336769
0.000229158
0.000339495
6.33231e-05
0.000339156
-0.000136716
-0.000360362
0.000335368
7.6849e-05
2.11424e-05
-7.6494e-05
7.7234e-05
2.28518e-05
7.76479e-05
2.46985e-05
7.80965e-05
2.66936e-05
7.85794e-05
2.88484e-05
7.91032e-05
3.1175e-05
7.96683e-05
3.36864e-05
8.02816e-05
3.63968e-05
8.09449e-05
3.93179e-05
8.1665e-05
4.24739e-05
8.2443e-05
4.58837e-05
8.32865e-05
4.95634e-05
8.41978e-05
5.3534e-05
8.51871e-05
5.78076e-05
8.62581e-05
6.2414e-05
8.74177e-05
6.73949e-05
8.86702e-05
7.27643e-05
9.00308e-05
7.85258e-05
9.15036e-05
8.47444e-05
9.30978e-05
9.14566e-05
9.48265e-05
9.86556e-05
9.67021e-05
0.000106407
9.87299e-05
0.000114771
0.000100933
0.000123713
0.000103315
0.000133365
0.000105895
0.000143711
0.000108687
0.000154807
0.000111705
0.00016672
0.000114968
0.000179451
0.000118489
0.000193098
0.000122291
0.00020765
0.000126389
0.00022319
0.000130805
0.000239722
0.000135557
0.000257286
0.000140668
0.000275904
0.00014616
0.000295557
0.000152051
0.000316261
0.000158362
0.000337957
0.000165113
0.000360583
0.000172321
0.000384039
0.000179999
0.000408165
0.000188159
0.000432745
0.000196804
0.000457488
0.000205931
0.000482003
0.000215527
0.000505783
0.000225565
0.000528176
0.000236004
0.000548352
0.00024678
0.000565265
0.000257806
0.000577611
0.000268963
0.000583774
0.000280097
0.000581769
0.000291003
0.000569188
0.000301429
0.00054311
0.000311049
0.000500079
0.000319466
0.000436015
0.000326232
0.000346215
0.000330876
0.000224522
0.000333444
6.08118e-05
0.000332944
-0.000136135
-0.000357822
0.000330495
7.56765e-05
2.07966e-05
-7.53325e-05
7.60494e-05
2.2479e-05
7.64507e-05
2.42961e-05
7.68858e-05
2.62587e-05
7.73554e-05
2.83778e-05
7.78655e-05
3.06651e-05
7.84172e-05
3.31337e-05
7.90172e-05
3.57971e-05
7.96675e-05
3.86664e-05
8.03749e-05
4.17666e-05
8.11406e-05
4.51166e-05
8.19723e-05
4.87317e-05
8.28724e-05
5.26324e-05
8.3851e-05
5.68289e-05
8.49116e-05
6.1352e-05
8.60603e-05
6.6246e-05
8.73011e-05
7.15222e-05
8.8648e-05
7.71787e-05
9.01046e-05
8.32865e-05
9.16789e-05
8.9882e-05
9.33837e-05
9.69495e-05
9.52309e-05
0.00010456
9.72259e-05
0.000112774
9.93916e-05
0.000121547
0.000101733
0.000131023
0.000104267
0.000141176
0.000107009
0.000152063
0.000109973
0.000163755
0.000113178
0.000176245
0.000116636
0.000189638
0.000120371
0.000203913
0.000124396
0.000219164
0.000128733
0.000235382
0.000133401
0.000252616
0.00013842
0.000270883
0.000143814
0.000290162
0.000149598
0.000310474
0.000155796
0.000331758
0.000162424
0.000353953
0.0001695
0.000376961
0.000177038
0.000400625
0.000185047
0.000424734
0.000193531
0.000449002
0.000202486
0.000473045
0.000211901
0.000496366
0.000221748
0.000518325
0.000231986
0.000538109
0.000242553
0.000554692
0.000253364
0.000566792
0.000264302
0.000572827
0.000275217
0.000570845
0.000285908
0.000558486
0.00029613
0.000532884
0.000305565
0.000490647
0.000313824
0.000427765
0.000320473
0.000339584
0.000325053
0.000219974
0.000327603
5.82909e-05
0.000326864
-0.000135375
-0.000354502
0.000323567
7.44703e-05
2.04625e-05
-7.41377e-05
7.48314e-05
2.21181e-05
7.5221e-05
2.39054e-05
7.56445e-05
2.58352e-05
7.61026e-05
2.79185e-05
7.66012e-05
3.01666e-05
7.71415e-05
3.25922e-05
7.77298e-05
3.52087e-05
7.83686e-05
3.80263e-05
7.90639e-05
4.10711e-05
7.98174e-05
4.43617e-05
8.06365e-05
4.79123e-05
8.15242e-05
5.17431e-05
8.24906e-05
5.58621e-05
8.35397e-05
6.03012e-05
8.46779e-05
6.51074e-05
8.59087e-05
7.02897e-05
8.72458e-05
7.58412e-05
8.86919e-05
8.18389e-05
9.02542e-05
8.83193e-05
9.1944e-05
9.52584e-05
9.37721e-05
0.000102731
9.57433e-05
0.000110802
9.78796e-05
0.00011941
0.000100186
0.000128716
0.000102679
0.000138681
0.000105376
0.000149365
0.000108288
0.000160842
0.000111437
0.000173095
0.000114834
0.00018624
0.000118501
0.000200244
0.000122454
0.00021521
0.000126713
0.000231122
0.000131297
0.00024803
0.000136225
0.000265953
0.000141521
0.000284865
0.0001472
0.000304793
0.000153284
0.000325673
0.000159791
0.000347444
0.000166737
0.000370015
0.000174135
0.000393227
0.000181994
0.000416874
0.000190319
0.000440677
0.000199105
0.000464258
0.000208341
0.000487131
0.000217999
0.000508667
0.00022804
0.000528069
0.000238402
0.000544329
0.000249004
0.000556192
0.000259729
0.000562101
0.000270431
0.000560145
0.000280914
0.000548004
0.000290938
0.000522864
0.000300195
0.000481393
0.000308305
0.000419659
0.000314846
0.000333051
0.000319378
0.00021545
0.000321861
5.58586e-05
0.000321019
-0.000134465
-0.00035056
0.000317158
7.32708e-05
2.01366e-05
-7.29466e-05
7.36242e-05
2.17645e-05
7.40075e-05
2.35212e-05
7.44247e-05
2.54179e-05
7.48772e-05
2.74652e-05
7.53695e-05
2.96744e-05
7.59033e-05
3.20576e-05
7.64841e-05
3.46281e-05
7.71143e-05
3.73951e-05
7.77996e-05
4.03859e-05
7.85416e-05
4.36188e-05
7.9347e-05
4.71068e-05
8.02194e-05
5.08696e-05
8.11687e-05
5.49128e-05
8.21998e-05
5.92689e-05
8.33193e-05
6.39878e-05
8.45322e-05
6.90757e-05
8.58519e-05
7.45214e-05
8.72818e-05
8.04079e-05
8.88285e-05
8.67723e-05
9.05028e-05
9.3583e-05
9.23141e-05
0.000100919
9.42661e-05
0.000108849
9.6379e-05
0.000117297
9.86567e-05
0.000126437
0.000101116
0.000136221
0.000103772
0.000146708
0.000106638
0.000157975
0.000109734
0.000169998
0.000113072
0.000182901
0.000116675
0.00019664
0.000120557
0.000211326
0.000124739
0.000226938
0.00012924
0.000243527
0.000134078
0.000261112
0.000139276
0.000279665
0.000144852
0.000299217
0.000150824
0.0003197
0.00015721
0.000341057
0.000164026
0.000363198
0.000171286
0.000385966
0.000178997
0.000409161
0.000187165
0.000432508
0.000195784
0.000455636
0.000204844
0.000478069
0.000214317
0.00049919
0.000224165
0.000518216
0.000234328
0.00053416
0.000244726
0.000545788
0.000255246
0.000551574
0.000265744
0.000549639
0.000276028
0.00053771
0.000285865
0.000513025
0.000294955
0.000472309
0.000302928
0.000411698
0.000309374
0.000326627
0.000313857
0.000211005
0.000316229
5.35278e-05
0.000315346
-0.000133545
-0.000346055
0.000310877
7.21473e-05
1.98121e-05
-7.18243e-05
7.25006e-05
2.14112e-05
7.28841e-05
2.31367e-05
7.33019e-05
2.5e-05
7.37543e-05
2.70117e-05
7.42458e-05
2.91828e-05
7.47774e-05
3.1525e-05
7.53543e-05
3.4051e-05
7.59788e-05
3.67694e-05
7.66561e-05
3.97083e-05
7.73874e-05
4.28861e-05
7.81791e-05
4.63147e-05
7.90343e-05
5.00129e-05
7.99626e-05
5.39841e-05
8.09691e-05
5.82609e-05
8.2061e-05
6.28954e-05
8.3244e-05
6.78913e-05
8.45326e-05
7.32325e-05
8.59313e-05
7.90079e-05
8.7448e-05
8.52553e-05
8.90938e-05
9.1936e-05
9.08782e-05
9.91346e-05
9.28041e-05
0.000106922
9.48903e-05
0.00011521
9.71395e-05
0.000124187
9.9567e-05
0.000133792
0.000102186
0.000144088
0.00010501
0.000155151
0.000108057
0.00016695
0.00011134
0.000179616
0.000114882
0.000193098
0.000118695
0.000207511
0.000122803
0.000222829
0.000127222
0.000239106
0.000131972
0.000256361
0.000137075
0.00027456
0.000142547
0.000293743
0.000148409
0.000313838
0.000154676
0.000334789
0.000161365
0.000356508
0.000168488
0.000378843
0.000176054
0.000401595
0.000184067
0.000424495
0.000192523
0.000447181
0.00020141
0.000469183
0.000210702
0.000489898
0.000220363
0.000508557
0.000230333
0.000524191
0.000240534
0.000535589
0.000250855
0.000541252
0.000261157
0.000539339
0.000271251
0.000527615
0.00028091
0.000503369
0.000289841
0.00046338
0.000297684
0.000403856
0.00030404
0.000320275
0.000308469
0.000206578
0.000310692
5.13404e-05
0.000309794
-0.000132599
-0.000341134
0.000304936
7.11553e-05
1.94843e-05
-7.08293e-05
7.15122e-05
2.10539e-05
7.18996e-05
2.27484e-05
7.23202e-05
2.45791e-05
7.27749e-05
2.65562e-05
7.32672e-05
2.86904e-05
7.37982e-05
3.09931e-05
7.43725e-05
3.34767e-05
7.49924e-05
3.61486e-05
7.56626e-05
3.90381e-05
7.63844e-05
4.21634e-05
7.71634e-05
4.55356e-05
7.80024e-05
4.9173e-05
7.89099e-05
5.30764e-05
7.98912e-05
5.72787e-05
8.09523e-05
6.18341e-05
8.20999e-05
6.67429e-05
8.33481e-05
7.1984e-05
8.47034e-05
7.76517e-05
8.61744e-05
8.37841e-05
8.77744e-05
9.03351e-05
8.95139e-05
9.73947e-05
9.13973e-05
0.000105037
9.3443e-05
0.000113164
9.56531e-05
0.000121976
9.80417e-05
0.000131403
0.000100621
0.000141508
0.000103401
0.00015237
0.0001064
0.000163949
0.00010963
0.000176385
0.000113112
0.000189615
0.000116861
0.000203761
0.000120896
0.000218792
0.000125236
0.000234764
0.000129901
0.000251695
0.00013491
0.00026955
0.000140282
0.000288371
0.000146034
0.000308084
0.000152185
0.000328637
0.000158749
0.000349943
0.000165739
0.000371852
0.000173163
0.00039417
0.000181024
0.000416632
0.00018932
0.000438883
0.000198038
0.000460462
0.000207155
0.000480778
0.000216633
0.000499075
0.000226415
0.000514403
0.000236425
0.000525574
0.000246554
0.000531116
0.000256667
0.00052922
0.000266577
0.000517696
0.000276063
0.00049388
0.000284839
0.000454609
0.000292555
0.00039615
0.000298819
0.000314031
0.00030319
0.000202242
0.000305256
4.93123e-05
0.000304352
-0.000131661
-0.000336089
0.000299345
7.03094e-05
1.91517e-05
-6.99784e-05
7.06705e-05
2.06924e-05
7.10609e-05
2.23571e-05
7.14832e-05
2.41564e-05
7.19382e-05
2.61003e-05
7.24291e-05
2.81992e-05
7.29574e-05
3.0464e-05
7.35269e-05
3.29068e-05
7.41406e-05
3.5534e-05
7.48023e-05
3.8376e-05
7.55139e-05
4.14508e-05
7.62803e-05
4.47687e-05
7.71045e-05
4.83478e-05
7.79938e-05
5.21866e-05
7.89528e-05
5.63186e-05
7.99868e-05
6.07996e-05
8.11016e-05
6.5627e-05
8.23109e-05
7.07744e-05
8.36208e-05
7.63407e-05
8.50409e-05
8.23638e-05
8.65854e-05
8.87897e-05
8.82668e-05
9.5713e-05
9.00916e-05
0.000103212
9.20798e-05
0.000111175
9.42346e-05
0.00011982
9.65702e-05
0.000129067
9.90976e-05
0.000138979
0.000101826
0.000149641
0.000104773
0.000161002
0.000107947
0.00017321
0.000111369
0.000186192
0.000115053
0.000200077
0.000119017
0.000214827
0.00012328
0.000230499
0.00012786
0.000247114
0.000132779
0.00026463
0.000138052
0.000283097
0.000143698
0.000302437
0.000149735
0.000322599
0.000156177
0.000343501
0.000163036
0.000364993
0.00017032
0.000386885
0.000178034
0.000408919
0.000186174
0.000430744
0.000194728
0.000451909
0.000203673
0.000471833
0.000212973
0.000489776
0.000222572
0.000504804
0.000232396
0.000515752
0.000242339
0.000521173
0.000252267
0.000519294
0.000261997
0.000507963
0.000271314
0.000484564
0.000279937
0.000445985
0.000287525
0.000388559
0.000293694
0.000307858
0.000298005
0.000197925
0.00029994
4.73952e-05
0.000299031
-0.000130722
-0.000331058
0.000294045
6.95865e-05
1.88171e-05
-6.92539e-05
6.99475e-05
2.03306e-05
7.03367e-05
2.19672e-05
7.07559e-05
2.37367e-05
7.12067e-05
2.56489e-05
7.16919e-05
2.77137e-05
7.22134e-05
2.9942e-05
7.27748e-05
3.23453e-05
7.33791e-05
3.49291e-05
7.40301e-05
3.77249e-05
7.473e-05
4.07504e-05
7.54832e-05
4.40153e-05
7.62931e-05
4.75373e-05
7.71662e-05
5.13132e-05
7.81071e-05
5.5377e-05
7.91197e-05
5.97868e-05
8.02091e-05
6.45368e-05
8.13874e-05
6.95959e-05
8.266e-05
7.50674e-05
8.40352e-05
8.09883e-05
8.55274e-05
8.72967e-05
8.71495e-05
9.40906e-05
8.89099e-05
0.000101451
9.08305e-05
0.000109254
9.29172e-05
0.000117732
9.51855e-05
0.000126798
9.76475e-05
0.000136517
0.000100312
0.000146975
0.000103196
0.000158117
0.000106308
0.000170098
0.000109665
0.000182834
0.00011328
0.000196461
0.000117172
0.000210934
0.000121357
0.000226313
0.000125853
0.000242616
0.000130682
0.000259801
0.000135858
0.00027792
0.0001414
0.000296894
0.000147325
0.000316674
0.000153647
0.000337179
0.000160378
0.000358261
0.000167527
0.000379736
0.000175096
0.000401348
0.000183084
0.000422755
0.000191478
0.000443513
0.000200256
0.000463052
0.000209383
0.000480646
0.000218805
0.000495378
0.000228448
0.000506104
0.000238208
0.000511406
0.000247955
0.000509541
0.000257508
0.000498399
0.000266659
0.000475409
0.000275131
0.000437515
0.000282591
0.000381105
0.000288663
0.0003018
0.000292907
0.000193708
0.000294753
4.55778e-05
0.000293836
-0.000129778
-0.000326148
0.00028896
6.89418e-05
1.8485e-05
-6.86113e-05
6.92988e-05
1.99731e-05
6.96819e-05
2.15832e-05
7.00938e-05
2.33244e-05
7.05359e-05
2.52059e-05
7.10114e-05
2.72377e-05
7.15221e-05
2.94304e-05
7.20719e-05
3.1795e-05
7.26638e-05
3.43363e-05
7.33016e-05
3.70866e-05
7.39875e-05
4.00635e-05
7.47263e-05
4.32759e-05
7.55212e-05
4.67414e-05
7.63789e-05
5.04549e-05
7.73036e-05
5.44513e-05
7.82988e-05
5.87909e-05
7.9369e-05
6.34656e-05
8.0525e-05
6.84395e-05
8.17709e-05
7.38206e-05
8.31133e-05
7.96456e-05
8.45651e-05
8.58441e-05
8.61381e-05
9.25173e-05
8.78408e-05
9.97472e-05
8.9696e-05
0.000107398
9.17118e-05
0.000115716
9.39059e-05
0.000124603
9.62928e-05
0.000134129
9.88831e-05
0.000144384
0.000101693
0.000155306
0.000104732
0.000167058
0.000108016
0.000179549
0.000111557
0.000192919
0.000115373
0.000207118
0.000119477
0.000222206
0.000123889
0.000238203
0.000128627
0.000255062
0.000133706
0.00027284
0.000139145
0.000291455
0.00014496
0.000310858
0.000151164
0.000330974
0.00015777
0.000351655
0.000164785
0.00037272
0.000172214
0.00039392
0.000180053
0.000414916
0.000188292
0.000435275
0.000196907
0.000454437
0.000205866
0.000471688
0.000215114
0.00048613
0.00022458
0.000496639
0.000234162
0.000501823
0.000243733
0.000499972
0.000253113
0.000489012
0.0002621
0.000466421
0.000270423
0.000429189
0.000277755
0.000373766
0.000283726
0.000295821
0.000287899
0.000189523
0.000289699
4.37817e-05
0.00028877
-0.000128837
-0.000321373
0.000284024
6.83307e-05
1.81598e-05
-6.80072e-05
6.86788e-05
1.96244e-05
6.90519e-05
2.12094e-05
6.94526e-05
2.29232e-05
6.98827e-05
2.47751e-05
7.03455e-05
2.67747e-05
7.08429e-05
2.89323e-05
7.13789e-05
3.12588e-05
7.19566e-05
3.37579e-05
7.25798e-05
3.64631e-05
7.32508e-05
3.93919e-05
7.39742e-05
4.25521e-05
7.47537e-05
4.59613e-05
7.55956e-05
4.96126e-05
7.65049e-05
5.35415e-05
7.74843e-05
5.78111e-05
7.85387e-05
6.24107e-05
7.96777e-05
6.73001e-05
8.0905e-05
7.25927e-05
8.22253e-05
7.8325e-05
8.36499e-05
8.44189e-05
8.51884e-05
9.09785e-05
8.68477e-05
9.80871e-05
8.86497e-05
0.000105596
9.06029e-05
0.000113762
9.27267e-05
0.000122479
9.50377e-05
0.000131817
9.7549e-05
0.000141872
0.000100279
0.000152576
0.000103237
0.0001641
0.000106441
0.000176344
0.000109901
0.000189458
0.000113633
0.000203383
0.000117654
0.000218185
0.000121977
0.000233878
0.000126623
0.000250416
0.000131605
0.000267857
0.00013694
0.000286118
0.000142645
0.000305153
0.000148733
0.000324886
0.000155216
0.000345172
0.000162101
0.000365834
0.000169392
0.000386627
0.000177086
0.00040722
0.000185172
0.000427186
0.000193629
0.000445976
0.000202424
0.000462891
0.000211503
0.000477047
0.000220797
0.000487341
0.000230205
0.000492408
0.000239603
0.000490569
0.000248814
0.000479788
0.000257641
0.000457588
0.000265816
0.000421011
0.000273021
0.000366562
0.000278889
0.00028996
0.000282988
0.000185443
0.000284768
4.20179e-05
0.000283824
-0.000127876
-0.000316716
0.000279194
6.77158e-05
1.78444e-05
-6.74019e-05
6.80528e-05
1.92868e-05
6.84139e-05
2.08475e-05
6.88019e-05
2.25348e-05
6.92187e-05
2.43576e-05
6.96675e-05
2.63254e-05
7.01507e-05
2.84484e-05
7.0672e-05
3.0737e-05
7.12348e-05
3.31944e-05
7.18427e-05
3.58548e-05
7.24983e-05
3.87355e-05
7.3206e-05
4.18438e-05
7.39697e-05
4.51967e-05
7.47957e-05
4.87858e-05
7.56891e-05
5.26473e-05
7.6653e-05
5.68465e-05
7.76921e-05
6.13707e-05
7.88161e-05
6.61757e-05
8.00283e-05
7.13798e-05
8.13329e-05
7.702e-05
8.27395e-05
8.30115e-05
8.42559e-05
8.94619e-05
8.58867e-05
9.64557e-05
8.76513e-05
0.000103831
8.9557e-05
0.000111855
9.1623e-05
0.000120412
9.38667e-05
0.000129573
9.63033e-05
0.000139435
9.89532e-05
0.000149925
0.000101828
0.000161224
0.000104947
0.000173225
0.000108321
0.000186083
0.000111966
0.000199737
0.000115897
0.000214252
0.000120129
0.000229645
0.00012468
0.000245865
0.000129563
0.000262974
0.000134794
0.000280886
0.00014039
0.000299557
0.000146362
0.000318913
0.000152723
0.000338811
0.000159479
0.000359078
0.000166634
0.000379472
0.000174186
0.000399669
0.000182124
0.000419249
0.000190426
0.000437674
0.00019906
0.000454258
0.000207975
0.000468132
0.0002171
0.000478217
0.000226339
0.000483169
0.000235568
0.000481341
0.000244614
0.000470734
0.000253283
0.000448915
0.000261314
0.000412974
0.000268392
0.000359474
0.000274156
0.000284182
0.000278179
0.000181402
0.000279953
4.0234e-05
0.000278989
-0.000126914
-0.000312158
0.000274446
6.70745e-05
1.75405e-05
-6.6772e-05
6.73991e-05
1.89616e-05
6.77476e-05
2.04984e-05
6.81224e-05
2.21595e-05
6.85258e-05
2.39537e-05
6.89609e-05
2.58901e-05
6.943e-05
2.79787e-05
6.99369e-05
3.02298e-05
7.04853e-05
3.26456e-05
7.10782e-05
3.52614e-05
7.17189e-05
3.80944e-05
7.24111e-05
4.11511e-05
7.31594e-05
4.44481e-05
7.39694e-05
4.79753e-05
7.4847e-05
5.17694e-05
7.57949e-05
5.58982e-05
7.68186e-05
6.03467e-05
7.79271e-05
6.50667e-05
7.91247e-05
7.01818e-05
8.04151e-05
7.57294e-05
8.18077e-05
8.16184e-05
8.33087e-05
8.79605e-05
8.49213e-05
9.48425e-05
8.6662e-05
0.00010209
8.85358e-05
0.000109981
9.05597e-05
0.000118388
9.27506e-05
0.000127381
9.5124e-05
0.000137061
9.77017e-05
0.000147347
0.000100498
0.000158427
0.000103533
0.000170189
0.00010682
0.000182796
0.000110375
0.00019618
0.000114215
0.000210412
0.000118352
0.000225507
0.000122805
0.000241411
0.000127587
0.000258191
0.000132714
0.000275759
0.0001382
0.000294071
0.000144056
0.000313056
0.000150296
0.000332571
0.000156925
0.000352448
0.000163946
0.000372449
0.000171358
0.000392255
0.00017915
0.000411455
0.000187301
0.000429521
0.000195778
0.000445777
0.000204531
0.000459375
0.000213492
0.000469251
0.000222564
0.00047409
0.000231628
0.000472272
0.000240512
0.000461837
0.000249026
0.000440392
0.000256915
0.000405079
0.000263868
0.000352516
0.000269528
0.000278522
0.000273476
0.000177464
0.000275243
3.8472e-05
0.000274254
-0.000125916
-0.000307657
0.000269773
6.63939e-05
1.72475e-05
-6.61023e-05
6.67073e-05
1.86475e-05
6.70442e-05
2.01608e-05
6.74073e-05
2.17959e-05
6.77985e-05
2.35617e-05
6.82211e-05
2.54671e-05
6.86775e-05
2.75217e-05
6.91712e-05
2.97355e-05
6.97059e-05
3.21102e-05
7.02849e-05
3.46818e-05
7.0911e-05
3.74675e-05
7.15885e-05
4.04728e-05
7.23214e-05
4.37144e-05
7.31159e-05
4.718e-05
7.39772e-05
5.09073e-05
7.49088e-05
5.49659e-05
7.59159e-05
5.93388e-05
7.70082e-05
6.39738e-05
7.81897e-05
6.89995e-05
7.94649e-05
7.44538e-05
8.08432e-05
8.02395e-05
8.23306e-05
8.64728e-05
8.39293e-05
9.32432e-05
8.56539e-05
0.000100365
8.75071e-05
0.000108127
8.95031e-05
0.000116391
9.16564e-05
0.000125227
9.39815e-05
0.000134735
9.65001e-05
0.000144828
9.92273e-05
0.0001557
0.000102185
0.000167231
0.000105389
0.000179591
0.000108857
0.000192712
0.000112604
0.000206663
0.000116647
0.000221463
0.000121002
0.000237055
0.000125682
0.00025351
0.000130703
0.000270738
0.000136078
0.000288695
0.00014182
0.000307314
0.000147939
0.000326452
0.000154442
0.000345945
0.000161331
0.00036556
0.000168605
0.000384981
0.000176253
0.000403808
0.000184255
0.00042152
0.000192578
0.000437455
0.000201172
0.00045078
0.000209972
0.000460452
0.000218882
0.000465179
0.000227783
0.000463371
0.000236508
0.000453102
0.00024487
0.000432024
0.000252618
0.000397323
0.000259447
0.000345675
0.000265005
0.000272949
0.000268879
0.000173571
0.00027063
3.67014e-05
0.000269613
-0.00012491
-0.000303208
0.000265168
6.56732e-05
1.69648e-05
-6.53918e-05
6.59763e-05
1.83439e-05
6.63028e-05
1.98337e-05
6.66553e-05
2.14431e-05
6.70357e-05
2.31807e-05
6.74472e-05
2.50553e-05
6.78921e-05
2.70762e-05
6.83739e-05
2.92533e-05
6.88963e-05
3.15873e-05
6.94624e-05
3.41152e-05
7.00753e-05
3.68541e-05
7.07387e-05
3.98088e-05
7.14572e-05
4.29955e-05
7.22362e-05
4.64003e-05
7.30818e-05
5.00614e-05
7.39967e-05
5.40504e-05
7.49869e-05
5.83483e-05
7.60616e-05
6.28987e-05
7.72257e-05
6.7835e-05
7.84836e-05
7.31955e-05
7.98455e-05
7.88772e-05
8.13175e-05
8.50005e-05
8.29021e-05
9.1658e-05
8.46128e-05
9.86538e-05
8.64508e-05
0.000106289
8.84279e-05
0.000114414
9.05557e-05
0.000123099
9.28465e-05
0.000132444
9.53202e-05
0.000142354
9.79918e-05
0.000153028
0.000100884
0.000164338
0.000104013
0.000176462
0.000107399
0.000189325
0.000111059
0.000203002
0.000115009
0.000217512
0.000119267
0.000232797
0.000123846
0.000248931
0.000128761
0.000265822
0.000134027
0.000283429
0.000139654
0.000301686
0.000145653
0.000320452
0.000152031
0.000339566
0.00015879
0.000358799
0.000165928
0.000377842
0.000173434
0.000396299
0.000181288
0.000413662
0.00018946
0.000429281
0.000197898
0.000442337
0.000206539
0.000451807
0.000215288
0.000456423
0.00022403
0.000454624
0.000232598
0.000444519
0.00024081
0.0004238
0.00024842
0.000389704
0.000255127
0.000338958
0.000260584
0.000267486
0.000264385
0.000169771
0.000266107
3.49739e-05
0.000265058
-0.00012386
-0.000298776
0.000260637
6.49141e-05
1.66906e-05
-6.46413e-05
6.52086e-05
1.80488e-05
6.55265e-05
1.95153e-05
6.587e-05
2.10991e-05
6.62412e-05
2.28088e-05
6.6643e-05
2.4653e-05
6.70778e-05
2.66408e-05
6.7549e-05
2.87816e-05
6.80602e-05
3.10754e-05
6.86145e-05
3.35603e-05
6.92148e-05
3.62531e-05
6.9865e-05
3.91578e-05
7.05694e-05
4.22904e-05
7.13337e-05
4.56352e-05
7.21635e-05
4.92309e-05
7.30619e-05
5.31513e-05
7.40347e-05
5.73748e-05
7.50913e-05
6.18415e-05
7.62367e-05
6.66891e-05
7.74756e-05
7.19562e-05
7.88186e-05
7.75338e-05
8.02724e-05
8.35464e-05
8.18401e-05
9.00898e-05
8.35353e-05
9.69583e-05
8.53586e-05
0.000104465
8.73202e-05
0.000112452
8.94294e-05
0.000120989
9.16958e-05
0.000130177
9.41369e-05
0.000139912
9.6766e-05
0.000150398
9.9605e-05
0.000161499
0.00010267
0.000173395
0.000105984
0.000186011
0.000109563
0.000199422
0.000113426
0.000213648
0.00011759
0.000228631
0.000122071
0.000244449
0.000126883
0.000261009
0.000132041
0.000278272
0.000137555
0.000296171
0.000143436
0.000314571
0.00014969
0.000333312
0.00015632
0.00035217
0.000163324
0.000370839
0.00017069
0.000388934
0.000178399
0.000405953
0.000186421
0.000421261
0.000194706
0.000434052
0.00020319
0.000443324
0.000211781
0.00044783
0.000220365
0.000446041
0.000228778
0.000436095
0.000236842
0.000415728
0.000244315
0.000382222
0.000250902
0.000332359
0.000256259
0.000262111
0.000259987
0.000166021
0.000261669
3.32645e-05
0.000260586
-0.000122799
-0.000294377
0.000256179
6.41231e-05
1.6424e-05
-6.38577e-05
6.44101e-05
1.77613e-05
6.47203e-05
1.92046e-05
6.50558e-05
2.07632e-05
6.54189e-05
2.24454e-05
6.5812e-05
2.42596e-05
6.62378e-05
2.62146e-05
6.66994e-05
2.83197e-05
6.72004e-05
3.0574e-05
6.77437e-05
3.30166e-05
6.83326e-05
3.5664e-05
6.89702e-05
3.85196e-05
6.96615e-05
4.15989e-05
7.04114e-05
4.48847e-05
7.12261e-05
4.8416e-05
7.21081e-05
5.22687e-05
7.30637e-05
5.6419e-05
7.41018e-05
6.08029e-05
7.52278e-05
6.55628e-05
7.64464e-05
7.07372e-05
7.77686e-05
7.62112e-05
7.92014e-05
8.21132e-05
8.0749e-05
8.85418e-05
8.24251e-05
9.52818e-05
8.4231e-05
0.000102658
8.61762e-05
0.000110506
8.82686e-05
0.000118896
9.05158e-05
0.00012793
9.29323e-05
0.000137495
9.55293e-05
0.000147801
9.83267e-05
0.000158701
0.000101341
0.000170381
0.000104592
0.000182759
0.0001081
0.000195913
0.000111883
0.000209865
0.000115961
0.000224553
0.000120348
0.000240062
0.000125061
0.000256296
0.000130113
0.000273219
0.000135517
0.000290767
0.000141282
0.000308805
0.000147414
0.000327178
0.000153918
0.000345665
0.000160788
0.000363966
0.000168017
0.000381703
0.000175583
0.000398384
0.000183457
0.000413384
0.00019159
0.000425914
0.00019992
0.00043499
0.000208354
0.000439388
0.000216783
0.000437606
0.000225043
0.000427818
0.000232961
0.000407797
0.0002403
0.000374871
0.000246767
0.000325879
0.000252025
0.000256842
0.00025568
0.000162361
0.000257309
3.16216e-05
0.000256191
-0.000121688
-0.00028998
0.000251796
6.33047e-05
1.61634e-05
-6.30453e-05
6.35856e-05
1.74797e-05
6.38896e-05
1.89001e-05
6.42186e-05
2.04336e-05
6.45747e-05
2.20886e-05
6.49604e-05
2.38733e-05
6.53782e-05
2.57962e-05
6.58311e-05
2.78661e-05
6.63227e-05
3.00817e-05
6.68559e-05
3.24826e-05
6.74337e-05
3.50855e-05
6.80595e-05
3.78928e-05
6.87379e-05
4.09199e-05
6.9474e-05
4.41476e-05
7.02736e-05
4.76157e-05
7.11395e-05
5.14019e-05
7.20777e-05
5.54801e-05
7.30973e-05
5.97826e-05
7.42034e-05
6.44561e-05