/*--------------------------------*- C++ -*----------------------------------*\
  =========                 |
  \\      /  F ield         | OpenFOAM: The Open Source CFD Toolbox
   \\    /   O peration     | Website:  https://openfoam.org
    \\  /    A nd           | Version:  6.0
     \\/     M anipulation  |
\*---------------------------------------------------------------------------*/
FoamFile
{
    version     2.0;
    format      ascii;
    class       surfaceScalarField;
    location    "19";
    object      phi;
}
// * * * * * * * * * * * * * * * * * * * * * * * * * * * * * * * * * * * * * //

dimensions      [0 3 -1 0 0 0 0];

internalField   nonuniform List<scalar> 
123526
(
-8.09272e-05
2.26139e-05
8.13181e-05
-8.05088e-05
2.44576e-05
-8.00567e-05
2.64524e-05
-7.95707e-05
2.86107e-05
-7.90446e-05
3.09461e-05
-7.84794e-05
3.34733e-05
-7.78672e-05
3.62082e-05
-7.72099e-05
3.91681e-05
-7.64963e-05
4.23708e-05
-7.57299e-05
4.58372e-05
-7.48972e-05
4.95897e-05
-7.4004e-05
5.36518e-05
-7.30322e-05
5.8049e-05
-7.1987e-05
6.2807e-05
-7.08461e-05
6.79575e-05
-6.96205e-05
7.35378e-05
-6.82871e-05
7.95806e-05
-6.6846e-05
8.61176e-05
-6.52742e-05
9.32004e-05
-6.35822e-05
0.000100876
-6.17331e-05
0.000109182
-5.97336e-05
0.00011818
-5.75577e-05
0.000127936
-5.51964e-05
0.000138488
-5.26228e-05
0.000149934
-4.98389e-05
0.000162327
-4.6797e-05
0.00017575
-4.35093e-05
0.000190296
-3.99174e-05
0.00020604
-3.60342e-05
0.0002231
-3.17981e-05
0.000241556
-2.72015e-05
0.000261538
-2.21856e-05
0.000283144
-1.6726e-05
0.000306507
-1.081e-05
0.000331757
-4.39455e-06
0.000358999
2.54773e-06
0.000388386
1.00658e-05
0.000420017
1.82093e-05
0.000454004
2.70125e-05
0.000490459
3.65214e-05
0.000529452
4.67839e-05
0.000571019
5.78391e-05
0.00061517
6.97237e-05
0.000661837
8.24728e-05
0.000710865
9.61268e-05
0.000761983
0.000110701
0.00081476
0.000126244
0.000868554
0.000142738
0.000922444
0.000160213
0.000975136
0.000178611
0.0010249
0.000197808
0.00106936
0.000217873
0.00110535
0.000238376
0.0011291
0.000259229
0.00113571
0.00027974
0.00111956
0.000299639
0.00107263
0.000317944
0.000986594
0.000333799
0.00084351
0.000620126
0.000333466
-7.95987e-05
2.22417e-05
7.99767e-05
-7.91933e-05
2.4055e-05
-7.8753e-05
2.60166e-05
-7.82798e-05
2.81389e-05
-7.7765e-05
3.04353e-05
-7.72118e-05
3.29203e-05
-7.66099e-05
3.56098e-05
-7.59635e-05
3.85208e-05
-7.52594e-05
4.16702e-05
-7.45032e-05
4.50789e-05
-7.36803e-05
4.87701e-05
-7.27979e-05
5.27661e-05
-7.18376e-05
5.70923e-05
-7.08056e-05
6.17712e-05
-6.96799e-05
6.68353e-05
-6.84719e-05
7.23257e-05
-6.71592e-05
7.82711e-05
-6.57416e-05
8.46958e-05
-6.4198e-05
9.16594e-05
-6.25367e-05
9.92103e-05
-6.07247e-05
0.000107372
-5.87641e-05
0.000116215
-5.66356e-05
0.00012581
-5.4322e-05
0.00013617
-5.1807e-05
0.000147421
-4.90802e-05
0.000159596
-4.61083e-05
0.00017278
-4.28879e-05
0.000187074
-3.93774e-05
0.00020253
-3.55727e-05
0.000219293
-3.14315e-05
0.00023741
-2.6934e-05
0.000257039
-2.20314e-05
0.000278254
-1.66988e-05
0.000301194
-1.09171e-05
0.000325991
-4.64001e-06
0.000352731
2.1582e-06
0.000381593
9.52429e-06
0.000412655
1.75031e-05
0.000446028
2.61282e-05
0.000481836
3.54432e-05
0.000520136
4.54961e-05
0.000560961
5.6326e-05
0.00060433
6.79716e-05
0.000650172
8.04714e-05
0.000698331
9.38705e-05
0.000748533
0.00010819
0.000800348
0.000123483
0.000853135
0.000139734
0.000905979
0.000156968
0.000957612
0.000175123
0.00100632
0.000194058
0.00104978
0.00021383
0.00108497
0.000233994
0.00110819
0.000254493
0.00111463
0.000274622
0.00109869
0.000294098
0.00105258
0.000311911
0.000968054
0.000323952
0.000830841
0.000619196
0.000323841
-7.84459e-05
2.18746e-05
7.88191e-05
-7.80469e-05
2.36586e-05
-7.76141e-05
2.55884e-05
-7.715e-05
2.76763e-05
-7.66453e-05
2.99352e-05
-7.61038e-05
3.23795e-05
-7.55142e-05
3.50246e-05
-7.4881e-05
3.78875e-05
-7.41897e-05
4.0984e-05
-7.3447e-05
4.43354e-05
-7.26358e-05
4.79653e-05
-7.17663e-05
5.18951e-05
-7.08163e-05
5.615e-05
-6.97968e-05
6.07497e-05
-6.86809e-05
6.57277e-05
-6.74862e-05
7.11287e-05
-6.61851e-05
7.69779e-05
-6.47836e-05
8.32917e-05
-6.3256e-05
9.01385e-05
-6.16157e-05
9.75672e-05
-5.98266e-05
0.000105589
-5.78942e-05
0.00011428
-5.57978e-05
0.000123718
-5.35216e-05
0.000133891
-5.10499e-05
0.000144954
-4.83712e-05
0.000156917
-4.54554e-05
0.000169868
-4.22957e-05
0.000183916
-3.88557e-05
0.000199092
-3.51271e-05
0.000215564
-3.10733e-05
0.000233352
-2.66705e-05
0.000252637
-2.1875e-05
0.00027347
-1.66593e-05
0.000296
-1.10063e-05
0.000320355
-4.86874e-06
0.000346602
1.78025e-06
0.000374949
8.98595e-06
0.000405453
1.67926e-05
0.000438224
2.5233e-05
0.000473397
3.43517e-05
0.000511017
4.41976e-05
0.00055111
5.48118e-05
0.000593706
6.62363e-05
0.000638731
7.85128e-05
0.000686025
9.16891e-05
0.000735318
0.000105788
0.000786182
0.000120862
0.000837984
0.000136889
0.000889826
0.000153889
0.000940467
0.000171795
0.000988235
0.000190451
0.00103085
0.000209925
0.00106539
0.00022976
0.00108811
0.000249919
0.00109448
0.000269686
0.00107875
0.000288729
0.00103361
0.000306118
0.000950621
0.000318366
0.000818733
0.000618027
0.000319976
-7.73213e-05
2.15099e-05
7.76888e-05
-7.69262e-05
2.32642e-05
-7.64974e-05
2.51626e-05
-7.6038e-05
2.72168e-05
-7.55397e-05
2.94396e-05
-7.5006e-05
3.18449e-05
-7.44266e-05
3.44478e-05
-7.38058e-05
3.7265e-05
-7.31297e-05
4.03108e-05
-7.24041e-05
4.36068e-05
-7.16128e-05
4.71771e-05
-7.07637e-05
5.1042e-05
-6.98366e-05
5.52265e-05
-6.88391e-05
5.97478e-05
-6.77474e-05
6.46402e-05
-6.65752e-05
6.99521e-05
-6.52983e-05
7.57054e-05
-6.39197e-05
8.19095e-05
-6.24168e-05
8.86405e-05
-6.08012e-05
9.59486e-05
-5.90389e-05
0.000103832
-5.71353e-05
0.000112374
-5.50703e-05
0.000121659
-5.28293e-05
0.000131649
-5.03968e-05
0.000142527
-4.77622e-05
0.000154283
-4.48959e-05
0.000167006
-4.17915e-05
0.000180814
-3.84139e-05
0.000195717
-3.47545e-05
0.000211906
-3.07785e-05
0.000229373
-2.64622e-05
0.000248321
-2.17602e-05
0.000268783
-1.66501e-05
0.00029091
-1.11122e-05
0.000314834
-5.10141e-06
0.000340601
1.40933e-06
0.000368443
8.46615e-06
0.0003984
1.61132e-05
0.00043058
2.43844e-05
0.000465129
3.33242e-05
0.00050208
4.29831e-05
0.000541453
5.34037e-05
0.000583287
6.46292e-05
0.000627507
7.67031e-05
0.00067395
8.96728e-05
0.000722348
0.000103561
0.000772279
0.000118414
0.000823119
0.000134208
0.00087398
0.000150959
0.000923649
0.000168592
0.000970467
0.000186952
0.00101222
0.000206109
0.00104604
0.000225625
0.00106832
0.000245442
0.0010745
0.000264862
0.00105903
0.000283497
0.00101477
0.000300518
0.000933267
0.000313189
0.000805809
0.000615005
0.000315764
-7.61947e-05
2.1157e-05
7.65535e-05
-7.5809e-05
2.28806e-05
-7.53879e-05
2.47463e-05
-7.49358e-05
2.67659e-05
-7.44433e-05
2.8952e-05
-7.39163e-05
3.13183e-05
-7.33435e-05
3.38799e-05
-7.27316e-05
3.66528e-05
-7.20649e-05
3.96502e-05
-7.13528e-05
4.28937e-05
-7.05757e-05
4.64075e-05
-6.97462e-05
5.02109e-05
-6.88387e-05
5.43282e-05
-6.78669e-05
5.87739e-05
-6.67999e-05
6.35832e-05
-6.56581e-05
6.8808e-05
-6.44101e-05
7.44669e-05
-6.30652e-05
8.0562e-05
-6.15946e-05
8.71782e-05
-6.00145e-05
9.43661e-05
-5.82871e-05
0.000102112
-5.6421e-05
0.000110506
-5.43941e-05
0.000119639
-5.21937e-05
0.000129448
-4.9804e-05
0.000140144
-4.72154e-05
0.000151696
-4.43991e-05
0.000164196
-4.13489e-05
0.000177767
-3.80311e-05
0.000192403
-3.44375e-05
0.000208314
-3.05337e-05
0.000225467
-2.62957e-05
0.000244085
-2.16818e-05
0.000264181
-1.66658e-05
0.000285916
-1.1233e-05
0.000309418
-5.33768e-06
0.000334714
1.04727e-06
0.000362063
7.96829e-06
0.000391482
1.54705e-05
0.000423081
2.35879e-05
0.000457014
3.23654e-05
0.000493303
4.18538e-05
0.000531964
5.20957e-05
0.000573041
6.31347e-05
0.00061646
7.50138e-05
0.000662057
8.77789e-05
0.000709566
0.000101451
0.000758573
0.000116073
0.000808465
0.000131618
0.000858372
0.000148102
0.000907105
0.000165448
0.000953047
0.000183503
0.000994013
0.000202342
0.00102722
0.000221536
0.00104905
0.000241014
0.00105515
0.000260087
0.00103993
0.00027834
0.000996682
0.000294976
0.000916683
0.000307655
0.000793357
0.000611291
0.00031189
-7.5009e-05
2.08203e-05
7.53489e-05
-7.46417e-05
2.25139e-05
-7.4239e-05
2.43469e-05
-7.38044e-05
2.6331e-05
-7.33283e-05
2.84792e-05
-7.28161e-05
3.08051e-05
-7.22568e-05
3.33239e-05
-7.16574e-05
3.60515e-05
-7.10034e-05
3.90001e-05
-7.0304e-05
4.21913e-05
-6.95416e-05
4.56495e-05
-6.87277e-05
4.93929e-05
-6.78397e-05
5.34454e-05
-6.68886e-05
5.78182e-05
-6.58473e-05
6.25475e-05
-6.47322e-05
6.76884e-05
-6.35154e-05
7.3256e-05
-6.22029e-05
7.92455e-05
-6.07681e-05
8.57495e-05
-5.9225e-05
9.28198e-05
-5.75372e-05
0.00010043
-5.57121e-05
0.000108679
-5.3728e-05
0.000117661
-5.15726e-05
0.000127292
-4.92298e-05
0.000137808
-4.66907e-05
0.000149158
-4.39267e-05
0.000161437
-4.09325e-05
0.000174777
-3.76746e-05
0.000189149
-3.41455e-05
0.000204787
-3.03115e-05
0.000221631
-2.615e-05
0.000239924
-2.16166e-05
0.000259663
-1.66915e-05
0.00028101
-1.13562e-05
0.000304099
-5.56803e-06
0.000328934
7.00107e-07
0.000355799
7.4952e-06
0.000384691
1.48628e-05
0.000415717
2.28369e-05
0.000449043
3.14621e-05
0.000484681
4.07888e-05
0.00052264
5.08594e-05
0.000562976
6.17165e-05
0.000605611
7.34022e-05
0.000650381
8.59603e-05
0.000697024
9.94105e-05
0.000745134
0.000113794
0.000794107
0.000129082
0.000843087
0.000145295
0.000890905
0.000162348
0.000935957
0.000180101
0.000976123
0.000198617
0.00100865
0.000217498
0.00103007
0.000236636
0.00103599
0.000255373
0.00102107
0.000273262
0.000978722
0.000289503
0.000900269
0.000302275
0.000780481
0.000605136
0.000308216
-7.37573e-05
2.04971e-05
7.40855e-05
-7.34071e-05
2.21645e-05
-7.30242e-05
2.39679e-05
-7.26119e-05
2.5919e-05
-7.21595e-05
2.80307e-05
-7.16717e-05
3.03169e-05
-7.11367e-05
3.27927e-05
-7.05606e-05
3.54744e-05
-6.99291e-05
3.83733e-05
-6.92508e-05
4.15115e-05
-6.85089e-05
4.49136e-05
-6.77153e-05
4.85971e-05
-6.68476e-05
5.25853e-05
-6.59186e-05
5.68865e-05
-6.49e-05
6.15375e-05
-6.38111e-05
6.65965e-05
-6.26219e-05
7.20752e-05
-6.13411e-05
7.79615e-05
-5.99398e-05
8.43559e-05
-5.84339e-05
9.13108e-05
-5.67852e-05
9.87882e-05
-5.50022e-05
0.000106893
-5.30621e-05
0.000115727
-5.09532e-05
0.000125182
-4.8659e-05
0.00013552
-4.6171e-05
0.000146672
-4.34609e-05
0.000158733
-4.05235e-05
0.000171843
-3.73262e-05
0.000185955
-3.38615e-05
0.000201324
-3.00966e-05
0.000217864
-2.6008e-05
0.000235839
-2.15561e-05
0.000255223
-1.6716e-05
0.000276192
-1.14748e-05
0.000298874
-5.78863e-06
0.000323256
3.68892e-07
0.000349646
7.0446e-06
0.000378018
1.42842e-05
0.000408479
2.21213e-05
0.000441207
3.06e-05
0.000476203
3.97699e-05
0.000513469
4.96724e-05
0.000553071
6.03495e-05
0.000594928
7.18417e-05
0.000638878
8.41914e-05
0.000684662
9.74173e-05
0.000731881
0.000111559
0.000779942
0.000126589
0.000828007
0.000142529
0.000874924
0.000159293
0.000919131
0.000176745
0.000958537
0.000194946
0.000990472
0.000213514
0.00101146
0.00023232
0.00101732
0.000250726
0.00100267
0.000268272
0.000961341
0.000284143
0.000884465
0.000297049
0.000767809
0.000598541
0.000304142
-7.25557e-05
2.01741e-05
7.28814e-05
-7.22108e-05
2.1819e-05
-7.18371e-05
2.35969e-05
-7.14382e-05
2.55192e-05
-7.10031e-05
2.75983e-05
-7.05357e-05
2.9848e-05
-7.00237e-05
3.22834e-05
-6.94722e-05
3.49207e-05
-6.88664e-05
3.77706e-05
-6.82138e-05
4.08557e-05
-6.7498e-05
4.42014e-05
-6.67292e-05
4.78243e-05
-6.5887e-05
5.17475e-05
-6.49819e-05
5.59769e-05
-6.39892e-05
6.05498e-05
-6.29251e-05
6.55278e-05
-6.17634e-05
7.09188e-05
-6.05101e-05
7.6704e-05
-5.91398e-05
8.29912e-05
-5.7666e-05
8.98337e-05
-5.60529e-05
9.71811e-05
-5.43078e-05
0.000105146
-5.24086e-05
0.000113834
-5.03435e-05
0.000123116
-4.80959e-05
0.000133279
-4.56576e-05
0.000144235
-4.30002e-05
0.000156081
-4.01188e-05
0.000168965
-3.69811e-05
0.000182821
-3.35799e-05
0.000197925
-2.98825e-05
0.000214165
-2.58675e-05
0.000231825
-2.14919e-05
0.000250862
-1.67373e-05
0.000271456
-1.15866e-05
0.000293739
-5.99904e-06
0.000317676
5.1812e-08
0.000343599
6.61239e-06
0.00037146
1.3728e-05
0.000401366
2.14318e-05
0.000433506
2.9767e-05
0.000467871
3.87824e-05
0.000504458
4.85187e-05
0.000543341
5.90166e-05
0.00058444
7.03158e-05
0.000627592
8.24573e-05
0.000672543
9.54597e-05
0.0007189
0.000109361
0.000766079
0.000124137
0.000813255
0.000139807
0.000859295
0.000156285
0.000902653
0.000173442
0.000941297
0.000191325
0.000972575
0.000209583
0.000993177
0.000228053
0.00099888
0.000246133
0.000984534
0.000263353
0.000944099
0.000278888
0.000868827
0.000291796
0.000754857
0.000590799
0.000299425
-7.15353e-05
1.9843e-05
7.18718e-05
-7.11826e-05
2.14669e-05
-7.08032e-05
2.32217e-05
-7.04024e-05
2.51185e-05
-6.99688e-05
2.71689e-05
-6.95077e-05
2.93864e-05
-6.90057e-05
3.17855e-05
-6.84683e-05
3.43823e-05
-6.78793e-05
3.71866e-05
-6.72464e-05
4.02212e-05
-6.6551e-05
4.35122e-05
-6.58047e-05
4.70758e-05
-6.49844e-05
5.09348e-05
-6.41028e-05
5.50927e-05
-6.31324e-05
5.95878e-05
-6.20925e-05
6.44849e-05
-6.09542e-05
6.97888e-05
-5.97269e-05
7.54736e-05
-5.83829e-05
8.16547e-05
-5.69383e-05
8.8386e-05
-5.53559e-05
9.56055e-05
-5.36445e-05
0.000103432
-5.17815e-05
0.000111978
-4.97558e-05
0.000121089
-4.75507e-05
0.00013108
-4.51583e-05
0.000141843
-4.25504e-05
0.000153479
-3.9722e-05
0.00016614
-3.66416e-05
0.000179745
-3.33015e-05
0.000194588
-2.96701e-05
0.000210531
-2.57247e-05
0.000227882
-2.14272e-05
0.000246576
-1.67536e-05
0.000266803
-1.1692e-05
0.000288692
-6.20048e-06
0.000312191
-2.53379e-07
0.000337655
6.1951e-06
0.000365013
1.31897e-05
0.000394373
2.07626e-05
0.000425934
2.89565e-05
0.000459677
3.78194e-05
0.000495593
4.73909e-05
0.000533766
5.7711e-05
0.000574114
6.88185e-05
0.000616474
8.07535e-05
0.000660596
9.35345e-05
0.000706094
0.000107199
0.000752393
0.000121723
0.000798684
0.000137126
0.000843852
0.000153323
0.000886391
0.000170185
0.000924298
0.000187753
0.000955009
0.000205694
0.000975209
0.000223828
0.000980856
0.000241579
0.000966791
0.00025849
0.000927327
0.000273713
0.000853664
0.000286478
0.000742309
0.000583388
0.000294332
-7.07461e-05
1.95006e-05
7.10919e-05
-7.03814e-05
2.11017e-05
-6.99892e-05
2.28327e-05
-6.95759e-05
2.47042e-05
-6.91313e-05
2.67275e-05
-6.86614e-05
2.8915e-05
-6.81538e-05
3.1281e-05
-6.76144e-05
3.38408e-05
-6.70273e-05
3.6603e-05
-6.63998e-05
3.95907e-05
-6.57137e-05
4.28302e-05
-6.49788e-05
4.6337e-05
-6.4173e-05
5.01339e-05
-6.33068e-05
5.42222e-05
-6.23544e-05
5.86408e-05
-6.13322e-05
6.34583e-05
-6.02139e-05
6.86763e-05
-5.90066e-05
7.42622e-05
-5.76849e-05
8.03389e-05
-5.62633e-05
8.6961e-05
-5.47068e-05
9.40549e-05
-5.30232e-05
0.000101746
-5.1191e-05
0.000110152
-4.91993e-05
0.000119096
-4.70317e-05
0.000128919
-4.46804e-05
0.000139493
-4.21176e-05
0.000150921
-3.93385e-05
0.000163364
-3.63115e-05
0.000176721
-3.30295e-05
0.000191308
-2.94609e-05
0.000206961
-2.55847e-05
0.000224007
-2.13594e-05
0.000242366
-1.67673e-05
0.000262229
-1.17921e-05
0.000283732
-6.39446e-06
0.0003068
-5.48905e-07
0.000331812
5.78964e-06
0.000358676
1.2665e-05
0.000387499
2.01088e-05
0.000418492
2.81631e-05
0.000451626
3.68749e-05
0.000486885
4.62832e-05
0.000524365
5.64272e-05
0.000563981
6.73453e-05
0.000605571
7.90766e-05
0.000648889
9.16399e-05
0.000693556
0.000105072
0.000739005
0.000119349
0.00078444
0.000134491
0.000828765
0.000150409
0.000870492
0.00016698
0.000907674
0.00018423
0.000937764
0.000201853
0.00095759
0.000219646
0.000963111
0.000237069
0.000949351
0.000253676
0.000910717
0.000268614
0.000838657
0.000281209
0.000729699
0.000575258
0.000289274
-7.01359e-05
1.9153e-05
7.04882e-05
-6.97629e-05
2.07283e-05
-6.93592e-05
2.24329e-05
-6.89328e-05
2.42771e-05
-6.84735e-05
2.6272e-05
-6.79891e-05
2.84295e-05
-6.74677e-05
3.07631e-05
-6.69162e-05
3.32878e-05
-6.63195e-05
3.60107e-05
-6.56853e-05
3.89545e-05
-6.49957e-05
4.2146e-05
-6.42607e-05
4.55995e-05
-6.34578e-05
4.93376e-05
-6.25976e-05
5.33591e-05
-6.16534e-05
5.77041e-05
-6.06424e-05
6.24442e-05
-5.95369e-05
6.75781e-05
-5.83449e-05
7.3067e-05
-5.70402e-05
7.9041e-05
-5.56379e-05
8.55556e-05
-5.41027e-05
9.2526e-05
-5.24432e-05
0.000100084
-5.06376e-05
0.000108352
-4.86757e-05
0.000117133
-4.65413e-05
0.00012679
-4.42268e-05
0.000137179
-4.17051e-05
0.000148405
-3.89711e-05
0.000160634
-3.59941e-05
0.000173748
-3.27668e-05
0.000188082
-2.92582e-05
0.00020345
-2.54463e-05
0.000220198
-2.12942e-05
0.000238224
-1.67787e-05
0.000257733
-1.18885e-05
0.000278855
-6.58272e-06
0.0003015
-8.3661e-07
0.000326068
5.394e-06
0.000352447
1.21521e-05
0.000380742
1.94688e-05
0.000411176
2.73855e-05
0.000443709
3.59483e-05
0.000478321
4.51956e-05
0.000515114
5.51662e-05
0.000554005
6.58978e-05
0.000594829
7.74291e-05
0.000637346
8.97787e-05
0.000681182
0.000102982
0.00072578
0.000117017
0.000770359
0.000131902
0.000813842
0.000147545
0.000854779
0.000163825
0.000891252
0.000180761
0.000920807
0.000198063
0.000940264
0.000215518
0.000945741
0.000232611
0.000932266
0.000248923
0.000894521
0.000263601
0.000824033
0.000276086
0.000717416
0.000567239
0.000284503
-6.96162e-05
1.88069e-05
6.99652e-05
-6.92426e-05
2.03534e-05
-6.88352e-05
2.20283e-05
-6.84017e-05
2.38422e-05
-6.79328e-05
2.58058e-05
-6.74361e-05
2.7931e-05
-6.69012e-05
3.02308e-05
-6.63356e-05
3.27198e-05
-6.57255e-05
3.54037e-05
-6.5079e-05
3.8305e-05
-6.43798e-05
4.14502e-05
-6.36371e-05
4.4853e-05
-6.28301e-05
4.8535e-05
-6.19681e-05
5.24928e-05
-6.10261e-05
5.6767e-05
-6.0019e-05
6.14327e-05
-5.89211e-05
6.64854e-05
-5.77382e-05
7.18801e-05
-5.64461e-05
7.77543e-05
-5.50581e-05
8.41642e-05
-5.35404e-05
9.10139e-05
-5.19007e-05
9.84415e-05
-5.01181e-05
0.000106576
-4.81824e-05
0.000115196
-4.60778e-05
0.000124692
-4.37968e-05
0.000134899
-4.13126e-05
0.000145926
-3.86207e-05
0.000157945
-3.56904e-05
0.000170821
-3.25146e-05
0.000184908
-2.90627e-05
0.000199996
-2.53145e-05
0.000216451
-2.12296e-05
0.000234153
-1.67909e-05
0.000253311
-1.19827e-05
0.000274061
-6.76661e-06
0.000296289
-1.11802e-06
0.000320421
5.00656e-06
0.000346323
1.16493e-05
0.0003741
1.88408e-05
0.000403985
2.66219e-05
0.00043593
3.5038e-05
0.000469909
4.41269e-05
0.000506032
5.39268e-05
0.000544216
6.44753e-05
0.000584296
7.58101e-05
0.000626037
8.79502e-05
0.000669069
0.00010093
0.000712846
0.000114727
0.0007566
0.000129358
0.000799272
0.000144729
0.000839437
0.000160724
0.000875225
0.000177346
0.0009042
0.00019433
0.000923303
0.000211451
0.000928675
0.000228221
0.000915498
0.000244242
0.000878507
0.000258688
0.000809536
0.00027114
0.00070496
0.000558325
0.000280015
-6.91046e-05
1.84698e-05
6.94471e-05
-6.87375e-05
1.99859e-05
-6.8334e-05
2.1629e-05
-6.79024e-05
2.34099e-05
-6.74319e-05
2.53394e-05
-6.69315e-05
2.74295e-05
-6.63898e-05
2.96931e-05
-6.5816e-05
3.21444e-05
-6.51958e-05
3.47882e-05
-6.45392e-05
3.76465e-05
-6.38294e-05
4.07461e-05
-6.30779e-05
4.40991e-05
-6.2263e-05
4.7727e-05
-6.13963e-05
5.16233e-05
-6.04511e-05
5.58294e-05
-5.94447e-05
6.04232e-05
-5.83493e-05
6.53974e-05
-5.71729e-05
7.07005e-05
-5.58893e-05
7.64774e-05
-5.45132e-05
8.2785e-05
-5.30099e-05
8.95168e-05
-5.13879e-05
9.6817e-05
-4.96259e-05
0.00010482
-4.7714e-05
0.000113283
-4.56368e-05
0.00012262
-4.33868e-05
0.00013265
-4.09379e-05
0.000143482
-3.82854e-05
0.000155295
-3.53993e-05
0.000167938
-3.22727e-05
0.000181783
-2.88755e-05
0.000196597
-2.51865e-05
0.000212764
-2.11699e-05
0.000230147
-1.68033e-05
0.000248964
-1.20756e-05
0.000269346
-6.94718e-06
0.000291166
-1.39396e-06
0.000314869
4.62672e-06
0.000340302
1.11563e-05
0.00036757
1.82251e-05
0.000396916
2.58731e-05
0.000428281
3.41452e-05
0.000461634
4.30785e-05
0.000497095
5.2711e-05
0.000534578
6.30794e-05
0.000573918
7.42211e-05
0.000614884
8.61547e-05
0.000657112
9.89133e-05
0.000700068
0.000112475
0.000742994
0.000126854
0.000784856
0.000141956
0.000824262
0.000157666
0.000859374
0.000173981
0.000887844
0.000190648
0.000906609
0.000207445
0.000911943
0.0002239
0.00089905
0.00023964
0.000862859
0.000253875
0.00079535
0.00026633
0.000692691
0.000549327
0.000275677
-6.85547e-05
1.8144e-05
6.88842e-05
-6.81995e-05
1.96293e-05
-6.78068e-05
2.12397e-05
-6.73843e-05
2.29859e-05
-6.69209e-05
2.48792e-05
-6.64249e-05
2.69317e-05
-6.58851e-05
2.91564e-05
-6.53104e-05
3.15674e-05
-6.46874e-05
3.41687e-05
-6.40262e-05
3.69822e-05
-6.33111e-05
4.00349e-05
-6.25536e-05
4.33379e-05
-6.17336e-05
4.69118e-05
-6.08621e-05
5.07476e-05
-5.99146e-05
5.48872e-05
-5.89068e-05
5.94112e-05
-5.78133e-05
6.43093e-05
-5.66403e-05
6.95237e-05
-5.53636e-05
7.52062e-05
-5.39965e-05
8.14146e-05
-5.25057e-05
8.80315e-05
-5.08988e-05
9.52075e-05
-4.91554e-05
0.000103082
-4.72654e-05
0.000111392
-4.52137e-05
0.000120574
-4.2993e-05
0.00013043
-4.05776e-05
0.000141071
-3.79627e-05
0.000152683
-3.51191e-05
0.000165097
-3.20397e-05
0.000178706
-2.86948e-05
0.00019325
-2.50652e-05
0.000209135
-2.11116e-05
0.000226207
-1.68175e-05
0.000244685
-1.21676e-05
0.000264708
-7.12477e-06
0.000286128
-1.66499e-06
0.00030941
4.25378e-06
0.000334384
1.06723e-05
0.000361152
1.76206e-05
0.000389969
2.51378e-05
0.000420766
3.32683e-05
0.000453508
4.20487e-05
0.000488322
5.15163e-05
0.000525122
6.17073e-05
0.000563743
7.26584e-05
0.000603958
8.4388e-05
0.000645411
9.69274e-05
0.000687573
0.000110256
0.000729707
0.000124385
0.000770792
0.000139219
0.000809464
0.000154648
0.000843928
0.000170659
0.000871853
0.000187018
0.000890282
0.000203498
0.00089552
0.000219651
0.00088291
0.000235121
0.000847398
0.00024916
0.000781271
0.000261603
0.000680251
0.00053957
0.000271334
-6.79435e-05
1.78314e-05
6.82611e-05
-6.76021e-05
1.92867e-05
-6.72232e-05
2.08647e-05
-6.68146e-05
2.2576e-05
-6.63639e-05
2.44323e-05
-6.58795e-05
2.64458e-05
-6.53494e-05
2.86297e-05
-6.47822e-05
3.09984e-05
-6.41643e-05
3.3555e-05
-6.3506e-05
3.63218e-05
-6.27919e-05
3.93258e-05
-6.20341e-05
4.25775e-05
-6.12129e-05
4.60967e-05
-6.03403e-05
4.98721e-05
-5.93921e-05
5.39458e-05
-5.8385e-05
5.8401e-05
-5.72934e-05
6.32244e-05
-5.6125e-05
6.8352e-05
-5.48548e-05
7.39422e-05
-5.34969e-05
8.00535e-05
-5.20179e-05
8.65583e-05
-5.04257e-05
9.36129e-05
-4.87001e-05
0.000101362
-4.68311e-05
0.000109522
-4.4804e-05
0.000118552
-4.26115e-05
0.000128239
-4.02283e-05
0.000138693
-3.76499e-05
0.000150108
-3.48473e-05
0.000162298
-3.18138e-05
0.000175674
-2.85202e-05
0.000189955
-2.49462e-05
0.000205563
-2.10574e-05
0.000222327
-1.68318e-05
0.000240477
-1.22587e-05
0.000260147
-7.29957e-06
0.000281173
-1.93124e-06
0.000304043
3.88769e-06
0.000328565
1.01974e-05
0.000354842
1.70274e-05
0.000383138
2.44164e-05
0.000413376
3.24078e-05
0.000445514
4.10377e-05
0.000479688
5.03427e-05
0.000515811
6.03586e-05
0.000553718
7.11209e-05
0.000593185
8.26478e-05
0.000633862
9.49693e-05
0.000675233
0.000108065
0.000716569
0.000121944
0.000756876
0.000136512
0.00079482
0.000151661
0.00082864
0.000167374
0.000856085
0.000183431
0.000874197
0.000199608
0.000879392
0.000215472
0.000867052
0.000230685
0.000832261
0.000244537
0.000767462
0.000256917
0.000668043
0.0005299
0.000266901
-6.72706e-05
1.75305e-05
6.75748e-05
-6.6943e-05
1.89571e-05
-6.6579e-05
2.05037e-05
-6.61857e-05
2.21809e-05
-6.57509e-05
2.40004e-05
-6.52817e-05
2.59745e-05
-6.4766e-05
2.81168e-05
-6.42119e-05
3.04417e-05
-6.36057e-05
3.29519e-05
-6.2957e-05
3.56699e-05
-6.22511e-05
3.86234e-05
-6.14995e-05
4.1822e-05
-6.06836e-05
4.52852e-05
-5.9815e-05
4.89993e-05
-5.88711e-05
5.30067e-05
-5.78678e-05
5.73934e-05
-5.67814e-05
6.2143e-05
-5.56185e-05
6.71853e-05
-5.43563e-05
7.26851e-05
-5.30077e-05
7.87016e-05
-5.1541e-05
8.50967e-05
-4.99633e-05
9.20327e-05
-4.82552e-05
9.96588e-05
-4.64069e-05
0.000107672
-4.44038e-05
0.000116555
-4.22389e-05
0.000126074
-3.98872e-05
0.000136346
-3.73444e-05
0.000147568
-3.45819e-05
0.000159538
-3.15931e-05
0.000172686
-2.83493e-05
0.000186709
-2.48319e-05
0.000202046
-2.10031e-05
0.000218511
-1.68469e-05
0.000236336
-1.23484e-05
0.00025566
-7.47141e-06
0.0002763
-2.19289e-06
0.000298764
3.52793e-06
0.000322843
9.7307e-06
0.000348639
1.64444e-05
0.000376425
2.3707e-05
0.000406115
3.15612e-05
0.000437664
4.00425e-05
0.000471214
4.91867e-05
0.000506678
5.90289e-05
0.000543892
6.96038e-05
0.000582635
8.0929e-05
0.000622565
9.30332e-05
0.000663172
0.000105896
0.000703748
0.000119527
0.000743312
0.000133831
0.000780557
0.000148705
0.00081376
0.000164126
0.000840687
0.00017989
0.000858472
0.000195773
0.000863567
0.000211363
0.000851483
0.000226331
0.000817303
0.000240002
0.000753758
0.000252263
0.000655784
0.000519789
0.000262354
-6.65405e-05
1.72409e-05
6.68354e-05
-6.62251e-05
1.86406e-05
-6.58747e-05
2.01574e-05
-6.54969e-05
2.18019e-05
-6.50781e-05
2.35857e-05
-6.46264e-05
2.55213e-05
-6.4128e-05
2.76222e-05
-6.35912e-05
2.99031e-05
-6.30011e-05
3.23662e-05
-6.23678e-05
3.50345e-05
-6.16752e-05
3.79361e-05
-6.09359e-05
4.10801e-05
-6.01304e-05
4.4486e-05
-5.92715e-05
4.81376e-05
-5.83359e-05
5.2078e-05
-5.73413e-05
5.63957e-05
-5.62629e-05
6.10713e-05
-5.51096e-05
6.60288e-05
-5.38574e-05
7.1439e-05
-5.25208e-05
7.73619e-05
-5.10675e-05
8.36491e-05
-4.95058e-05
9.04685e-05
-4.78159e-05
9.79742e-05
-4.59887e-05
0.000105844
-4.40099e-05
0.000114581
-4.18723e-05
0.000123938
-3.9552e-05
0.00013403
-3.70442e-05
0.000145062
-3.43212e-05
0.000156818
-3.13765e-05
0.000169743
-2.81819e-05
0.000183512
-2.4718e-05
0.000198584
-2.09515e-05
0.000214753
-1.68612e-05
0.000232262
-1.24366e-05
0.000251246
-7.64031e-06
0.000271507
-2.44997e-06
0.000293574
3.17446e-06
0.000317218
9.27204e-06
0.00034254
1.58712e-05
0.000369825
2.30093e-05
0.000398976
3.07283e-05
0.000429942
3.90626e-05
0.000462876
4.80477e-05
0.000497688
5.77176e-05
0.000534213
6.81063e-05
0.000572236
7.92307e-05
0.000611419
9.11185e-05
0.000651265
0.00010375
0.000691075
0.000117133
0.000729893
0.000131176
0.000766439
0.000145777
0.000799022
0.000160914
0.000825483
0.000176393
0.000842963
0.000191996
0.000847998
0.000207324
0.00083616
0.00022206
0.000802627
0.000235551
0.000740307
0.000247645
0.000643852
0.00050998
0.00025773
-6.57651e-05
1.69602e-05
6.60497e-05
-6.54608e-05
1.83344e-05
-6.51231e-05
1.98231e-05
-6.47595e-05
2.14365e-05
-6.43566e-05
2.3186e-05
-6.39218e-05
2.50843e-05
-6.34412e-05
2.71447e-05
-6.29229e-05
2.93821e-05
-6.23514e-05
3.17982e-05
-6.17364e-05
3.44164e-05
-6.10618e-05
3.72653e-05
-6.03392e-05
4.03537e-05
-5.95495e-05
4.3701e-05
-5.8705e-05
4.7289e-05
-5.77834e-05
5.11613e-05
-5.68012e-05
5.54094e-05
-5.57355e-05
6.00109e-05
-5.45943e-05
6.48837e-05
-5.33553e-05
7.02052e-05
-5.20322e-05
7.60355e-05
-5.05944e-05
8.22164e-05
-4.90496e-05
8.89212e-05
-4.7379e-05
9.63088e-05
-4.55736e-05
0.000104037
-4.36193e-05
0.000112632
-4.15095e-05
0.000121828
-3.92204e-05
0.000131745
-3.67476e-05
0.000142592
-3.40638e-05
0.000154136
-3.11626e-05
0.000166843
-2.80162e-05
0.000180364
-2.46071e-05
0.000195175
-2.08986e-05
0.000211056
-1.68755e-05
0.000228253
-1.2523e-05
0.000246904
-7.80618e-06
0.000266794
-2.70275e-06
0.000288471
2.82661e-06
0.000311688
8.82035e-06
0.000336546
1.53064e-05
0.000363339
2.23214e-05
0.000391963
2.99064e-05
0.000422361
3.80952e-05
0.000454694
4.69224e-05
0.000488871
5.64214e-05
0.00052473
6.6625e-05
0.000562057
7.75499e-05
0.000600521
8.92226e-05
0.000639635
0.000101625
0.000678716
0.000114763
0.000716821
0.000128548
0.000752698
0.000142884
0.00078469
0.000157744
0.000810648
0.000172948
0.0008278
0.000188281
0.000832721
0.00020336
0.000821104
0.000217873
0.000788124
0.000231187
0.000726962
0.000243084
0.000631954
0.000499967
0.000253079
-6.49519e-05
1.66877e-05
6.52293e-05
-6.46571e-05
1.8038e-05
-6.43303e-05
1.95001e-05
-6.39795e-05
2.10841e-05
-6.35909e-05
2.28012e-05
-6.31722e-05
2.46638e-05
-6.27094e-05
2.66852e-05
-6.22098e-05
2.88805e-05
-6.1658e-05
3.12505e-05
-6.1063e-05
3.3819e-05
-6.04082e-05
3.66154e-05
-5.97052e-05
3.9648e-05
-5.89345e-05
4.29362e-05
-5.81083e-05
4.64598e-05
-5.7204e-05
5.02634e-05
-5.62387e-05
5.4441e-05
-5.51892e-05
5.89676e-05
-5.40643e-05
6.37556e-05
-5.28417e-05
6.89882e-05
-5.15356e-05
7.47264e-05
-5.01157e-05
8.08018e-05
-4.85902e-05
8.73933e-05
-4.69406e-05
9.46642e-05
-4.51583e-05
0.000102253
-4.32297e-05
0.000110708
-4.11482e-05
0.000119748
-3.88909e-05
0.000129491
-3.64531e-05
0.000140157
-3.38084e-05
0.000151494
-3.09505e-05
0.000163986
-2.78524e-05
0.000177263
-2.44953e-05
0.000191819
-2.08476e-05
0.000207416
-1.68884e-05
0.000224309
-1.26077e-05
0.000242633
-7.96917e-06
0.000262158
-2.95136e-06
0.000283453
2.48429e-06
0.000306251
8.37559e-06
0.000330654
1.475e-05
0.000356964
2.16433e-05
0.000385068
2.90958e-05
0.000414906
3.71404e-05
0.000446645
4.58112e-05
0.000480195
5.51407e-05
0.000515391
6.51609e-05
0.000552026
7.5888e-05
0.000589773
8.73478e-05
0.000628156
9.95229e-05
0.0006665
0.00011242
0.000703889
0.000125952
0.00073909
0.000140028
0.00077048
0.00015462
0.000795982
0.000169557
0.000812829
0.000184632
0.000817669
0.000199473
0.000806268
0.000213771
0.000773876
0.00022691
0.000713861
0.000238601
0.000620414
0.000490356
0.000248459
-6.41115e-05
1.64215e-05
6.43811e-05
-6.38249e-05
1.77489e-05
-6.35076e-05
1.91858e-05
-6.31677e-05
2.0742e-05
-6.27919e-05
2.24283e-05
-6.23874e-05
2.42569e-05
-6.19405e-05
2.62411e-05
-6.14584e-05
2.83957e-05
-6.09258e-05
3.07209e-05
-6.03509e-05
3.32408e-05
-5.97174e-05
3.59853e-05
-5.90356e-05
3.89624e-05
-5.82867e-05
4.21914e-05
-5.74815e-05
4.56505e-05
-5.65985e-05
4.9385e-05
-5.56533e-05
5.34917e-05
-5.4624e-05
5.79431e-05
-5.35183e-05
6.26462e-05
-5.23154e-05
6.77901e-05
-5.10286e-05
7.34364e-05
-4.96292e-05
7.94072e-05
-4.81249e-05
8.58865e-05
-4.64981e-05
9.30422e-05
-4.47404e-05
0.000100494
-4.28387e-05
0.000108811
-4.07865e-05
0.000117696
-3.85615e-05
0.00012727
-3.61593e-05
0.000137757
-3.3554e-05
0.000148891
-3.07393e-05
0.000161173
-2.76887e-05
0.000174211
-2.43855e-05
0.000188516
-2.07944e-05
0.000203836
-1.69009e-05
0.000220428
-1.26904e-05
0.000238433
-8.12925e-06
0.0002576
-3.19607e-06
0.000278519
2.14689e-06
0.000300907
7.9368e-06
0.000324863
1.42006e-05
0.0003507
2.09733e-05
0.000378297
2.82945e-05
0.000407588
3.61964e-05
0.00043875
4.47122e-05
0.00047169
5.38739e-05
0.000506245
6.37127e-05
0.00054221
7.42445e-05
0.000579267
8.54943e-05
0.000616946
9.74465e-05
0.00065459
0.000110107
0.000691293
0.000123392
0.000725851
0.000137218
0.000756668
0.00015155
0.000781675
0.000166231
0.00079819