/*--------------------------------*- C++ -*----------------------------------*\
  =========                 |
  \\      /  F ield         | OpenFOAM: The Open Source CFD Toolbox
   \\    /   O peration     | Website:  https://openfoam.org
    \\  /    A nd           | Version:  6.0
     \\/     M anipulation  |
\*---------------------------------------------------------------------------*/
FoamFile
{
    version     2.0;
    format      ascii;
    class       surfaceScalarField;
    location    "18";
    object      phi;
}
// * * * * * * * * * * * * * * * * * * * * * * * * * * * * * * * * * * * * * //

dimensions      [0 3 -1 0 0 0 0];

internalField   nonuniform List<scalar> 
123526
(
2.77877e-05
2.33224e-05
-2.73925e-05
2.82148e-05
2.52131e-05
2.86755e-05
2.72567e-05
2.91743e-05
2.94656e-05
2.97123e-05
3.1853e-05
3.0295e-05
3.44331e-05
3.09239e-05
3.72216e-05
3.16049e-05
4.0235e-05
3.23414e-05
4.34904e-05
3.31394e-05
4.70086e-05
3.40016e-05
5.08107e-05
3.49347e-05
5.49188e-05
3.59435e-05
5.93571e-05
3.70374e-05
6.41494e-05
3.82234e-05
6.93251e-05
3.95066e-05
7.49183e-05
4.08943e-05
8.09584e-05
4.24018e-05
8.74743e-05
4.40353e-05
9.45113e-05
4.58024e-05
0.00010211
4.77199e-05
0.000110304
4.97999e-05
0.000119145
5.20484e-05
0.000128686
5.44926e-05
0.00013896
5.71367e-05
0.000150045
6.00019e-05
0.000161981
6.31069e-05
0.000174833
6.64657e-05
0.000188668
7.01056e-05
0.000203537
7.40389e-05
0.000219525
7.82969e-05
0.000236679
8.28967e-05
0.000255082
8.78692e-05
0.000274785
9.32395e-05
0.000295858
9.90303e-05
0.000318359
0.000105275
0.000342325
0.000111994
0.000367802
0.000119222
0.000394792
0.00012699
0.000423285
0.000135323
0.000453243
0.00014425
0.000484572
0.000153798
0.000517125
0.000163985
0.000550684
0.000174825
0.000584932
0.000186327
0.000619431
0.000198486
0.000653595
0.000211283
0.000686647
0.00022468
0.00071758
0.000238617
0.000745102
0.000252997
0.000767573
0.000267687
0.000782944
0.000282505
0.000788656
0.000297212
0.000781563
0.000311494
0.000757844
0.000324949
0.000712963
0.000337073
0.000641551
0.000347234
0.000537549
0.000354461
0.000393801
0.000358629
0.000202405
-3.35501e-05
0.000367205
2.73496e-05
2.29354e-05
-2.69616e-05
2.77689e-05
2.47948e-05
2.82215e-05
2.68045e-05
2.87114e-05
2.89767e-05
2.92401e-05
3.13244e-05
2.98126e-05
3.38616e-05
3.04306e-05
3.66035e-05
3.10999e-05
3.95664e-05
3.18236e-05
4.27663e-05
3.26078e-05
4.62248e-05
3.3455e-05
4.99631e-05
3.43718e-05
5.40021e-05
3.53627e-05
5.83655e-05
3.64373e-05
6.30747e-05
3.76021e-05
6.81597e-05
3.88625e-05
7.36579e-05
4.02253e-05
7.95953e-05
4.17058e-05
8.5994e-05
4.33098e-05
9.29069e-05
4.50451e-05
0.000100375
4.69279e-05
0.000108421
4.89702e-05
0.000117102
5.11779e-05
0.000126478
5.35776e-05
0.000136561
5.61735e-05
0.000147449
5.89863e-05
0.000159169
6.20345e-05
0.000171784
6.53317e-05
0.00018537
6.89051e-05
0.000199964
7.27667e-05
0.000215663
7.69469e-05
0.000232498
8.14624e-05
0.000250565
8.6343e-05
0.000269904
9.16136e-05
0.000290587
9.72981e-05
0.000312674
0.00010343
0.000336193
0.000110029
0.000361203
0.000117128
0.000387694
0.000124756
0.000415657
0.00013294
0.000445059
0.000141707
0.000475806
0.000151084
0.000507749
0.000161089
0.00054068
0.000171737
0.000574285
0.000183035
0.000608135
0.000194977
0.000641653
0.000207547
0.000674079
0.000220706
0.000704422
0.000234392
0.000731416
0.000248513
0.000753452
0.000262938
0.000768521
0.000277485
0.000774107
0.000291921
0.000767137
0.000305937
0.000743851
0.000319138
0.000699796
0.000331027
0.000629703
0.000341009
0.000527604
0.000348291
0.000386556
0.00035233
0.00019838
-3.42683e-05
0.000353092
2.69029e-05
2.25555e-05
-2.65219e-05
2.73146e-05
2.4384e-05
2.77589e-05
2.63604e-05
2.824e-05
2.84966e-05
2.8759e-05
3.08053e-05
2.93212e-05
3.33004e-05
2.99281e-05
3.59965e-05
3.05854e-05
3.89098e-05
3.12962e-05
4.20551e-05
3.20664e-05
4.54549e-05
3.28985e-05
4.91304e-05
3.3799e-05
5.31015e-05
3.47724e-05
5.73916e-05
3.58279e-05
6.2019e-05
3.6972e-05
6.7015e-05
3.821e-05
7.24199e-05
3.95485e-05
7.82564e-05
4.10025e-05
8.45402e-05
4.25779e-05
9.13312e-05
4.42821e-05
9.86715e-05
4.61311e-05
0.000106572
4.81367e-05
0.000115097
5.03046e-05
0.00012431
5.26611e-05
0.000134204
5.52101e-05
0.0001449
5.79721e-05
0.000156407
6.09652e-05
0.000168791
6.4203e-05
0.000182132
6.7712e-05
0.000196455
7.15043e-05
0.00021187
7.56096e-05
0.000228392
8.00442e-05
0.00024613
8.4837e-05
0.000265111
9.00123e-05
0.000285412
9.55943e-05
0.000307092
0.000101617
0.000330171
0.0001081
0.00035472
0.000115074
0.00038072
0.00012257
0.000408162
0.000130611
0.000437019
0.000139224
0.000467194
0.000148437
0.000498538
0.000158266
0.000530852
0.000168727
0.000563827
0.000179824
0.000597039
0.000191555
0.000629925
0.0002039
0.000661735
0.000216822
0.000691501
0.00023026
0.000717979
0.000244122
0.00073959
0.000258281
0.000754364
0.000272557
0.000759831
0.000286724
0.000752976
0.000300472
0.000730101
0.000313421
0.000686841
0.000325078
0.000618039
0.000334873
0.000517794
0.00034209
0.000379339
0.000346146
0.000194331
-3.6103e-05
0.000347966
2.64848e-05
2.21821e-05
-2.61103e-05
2.68894e-05
2.39804e-05
2.7326e-05
2.59242e-05
2.77985e-05
2.80252e-05
2.83084e-05
3.02957e-05
2.88604e-05
3.27493e-05
2.94564e-05
3.54006e-05
3.01017e-05
3.82652e-05
3.07996e-05
4.1357e-05
3.15557e-05
4.46991e-05
3.23726e-05
4.83131e-05
3.32567e-05
5.22175e-05
3.42122e-05
5.64354e-05
3.52485e-05
6.09828e-05
3.63717e-05
6.58913e-05
3.75871e-05
7.12046e-05
3.89011e-05
7.69419e-05
4.03288e-05
8.31128e-05
4.18755e-05
8.97842e-05
4.35488e-05
9.69986e-05
4.53642e-05
0.000104756
4.73336e-05
0.000113128
4.94623e-05
0.000122181
5.17763e-05
0.000131891
5.42793e-05
0.000142397
5.69916e-05
0.000153694
5.9931e-05
0.000165852
6.31107e-05
0.000178953
6.65569e-05
0.000193009
7.02815e-05
0.000208145
7.43136e-05
0.00022436
7.86694e-05
0.000241774
8.33767e-05
0.000260403
8.84592e-05
0.000280329
9.3941e-05
0.000301611
9.98558e-05
0.000324256
0.000106224
0.000348352
0.000113075
0.000373869
0.000120439
0.000400799
0.000128339
0.000429121
0.000136801
0.000458733
0.000145851
0.00048949
0.000155507
0.000521198
0.000165781
0.000553555
0.000176681
0.000586143
0.000188201
0.000618407
0.000200323
0.000649616
0.00021301
0.000678817
0.000226202
0.000704789
0.000239807
0.000725985
0.000253703
0.00074047
0.00026771
0.000745821
0.000281611
0.00073908
0.000295099
0.000716624
0.000307803
0.000674155
0.00031924
0.000606624
0.000328852
0.000508203
0.000335993
0.000372223
0.000340054
0.000190286
-3.70419e-05
0.000341031
2.60885e-05
2.18151e-05
-2.57203e-05
2.64862e-05
2.35838e-05
2.69151e-05
2.54956e-05
2.73794e-05
2.75619e-05
2.78802e-05
2.97949e-05
2.84224e-05
3.22079e-05
2.90077e-05
3.48152e-05
2.96414e-05
3.7632e-05
3.03267e-05
4.06713e-05
3.10691e-05
4.39569e-05
3.18713e-05
4.75104e-05
3.27393e-05
5.13494e-05
3.36776e-05
5.54966e-05
3.4695e-05
5.99653e-05
3.57979e-05
6.4788e-05
3.69911e-05
7.00113e-05
3.82814e-05
7.56513e-05
3.96831e-05
8.17114e-05
4.12018e-05
8.82653e-05
4.28448e-05
9.5356e-05
4.46275e-05
0.000102973
4.65613e-05
0.000111195
4.86516e-05
0.000120091
5.09239e-05
0.000129618
5.3382e-05
0.000139938
5.60456e-05
0.000151031
5.89322e-05
0.000162965
6.2055e-05
0.00017583
6.54395e-05
0.000189624
6.90976e-05
0.000204487
7.30577e-05
0.000220399
7.73357e-05
0.000237495
8.1959e-05
0.00025578
8.69506e-05
0.000275337
9.23339e-05
0.000296227
9.81424e-05
0.000318448
0.000104396
0.000342099
0.000111125
0.000367141
0.000118358
0.000393567
0.000126117
0.000421363
0.000134429
0.000450423
0.000143317
0.000480603
0.0001528
0.000511717
0.000162891
0.000543466
0.000173594
0.000575441
0.000184906
0.000607097
0.000196808
0.000637716
0.000209263
0.000666364
0.000222213
0.000691842
0.000235567
0.000712633
0.000249204
0.000726835
0.000262949
0.000732076
0.000276589
0.000725443
0.000289824
0.000703384
0.000302291
0.000661679
0.000313519
0.000595386
0.000322954
0.000498753
0.000329997
0.00036518
0.000334033
0.000186257
-3.76623e-05
0.000334641
2.57027e-05
2.14546e-05
-2.53412e-05
2.60932e-05
2.31943e-05
2.65145e-05
2.50747e-05
2.69705e-05
2.7107e-05
2.74624e-05
2.93032e-05
2.79951e-05
3.16763e-05
2.85699e-05
3.42404e-05
2.91924e-05
3.70103e-05
2.98654e-05
3.9998e-05
3.05946e-05
4.32282e-05
3.13823e-05
4.67223e-05
3.22347e-05
5.04971e-05
3.31561e-05
5.45748e-05
3.41552e-05
5.89661e-05
3.52382e-05
6.37046e-05
3.64101e-05
6.88395e-05
3.76771e-05
7.4384e-05
3.90536e-05
8.03351e-05
4.05451e-05
8.67737e-05
4.21585e-05
9.37428e-05
4.39092e-05
0.000101223
4.58082e-05
0.000109296
4.78611e-05
0.000118038
5.00927e-05
0.000127387
5.25067e-05
0.000137524
5.51226e-05
0.000148415
5.79576e-05
0.00016013
6.10244e-05
0.000172763
6.43483e-05
0.0001863
6.79409e-05
0.000200894
7.18301e-05
0.000216509
7.60315e-05
0.000233293
8.0572e-05
0.000251239
8.54742e-05
0.000270435
9.07608e-05
0.000290941
9.64647e-05
0.000312744
0.000102606
0.000335958
0.000109214
0.000360534
0.000116317
0.000386465
0.000123937
0.000413744
0.0001321
0.000442262
0.000140829
0.000471876
0.000150141
0.000502407
0.00016005
0.00053356
0.00017056
0.000564934
0.000181667
0.000595993
0.000193352
0.000626033
0.00020558
0.000654139
0.000218292
0.000679133
0.000231399
0.000699527
0.000244783
0.000713453
0.000258271
0.000718584
0.000271657
0.00071206
0.000284647
0.000690403
0.000296883
0.000649455
0.000307908
0.000584377
0.000317174
0.000489503
0.000324094
0.000358283
0.000328084
0.000182284
-3.81816e-05
0.000328645
2.53236e-05
2.11008e-05
-2.49684e-05
2.57071e-05
2.28119e-05
2.61207e-05
2.46614e-05
2.65684e-05
2.66603e-05
2.70515e-05
2.88203e-05
2.75744e-05
3.11543e-05
2.8139e-05
3.36758e-05
2.87502e-05
3.63997e-05
2.94112e-05
3.93368e-05
3.01272e-05
4.25125e-05
3.09009e-05
4.59483e-05
3.1738e-05
4.966e-05
3.26428e-05
5.36694e-05
3.3624e-05
5.79849e-05
3.46876e-05
6.26405e-05
3.58384e-05
6.76888e-05
3.70828e-05
7.31393e-05
3.84346e-05
7.89835e-05
3.98993e-05
8.53088e-05
4.1484e-05
9.21586e-05
4.32033e-05
9.95033e-05
4.50684e-05
0.000107431
4.70846e-05
0.000116022
4.92763e-05
0.000125196
5.16472e-05
0.000135153
5.42163e-05
0.000145846
5.70006e-05
0.000157345
6.00126e-05
0.000169751
6.3277e-05
0.000183036
6.68052e-05
0.000197366
7.06248e-05
0.000212689
7.47508e-05
0.000229167
7.921e-05
0.000246779
8.40243e-05
0.00026562
8.9216e-05
0.000285749
9.48171e-05
0.000307143
0.000100848
0.000329928
0.000107337
0.000354045
0.000114312
0.000379491
0.000121795
0.000406262
0.00012981
0.000434248
0.000138382
0.000463306
0.000147527
0.000493264
0.000157256
0.000523832
0.000167576
0.000554615
0.000178481
0.00058509
0.000189953
0.000614563
0.000201957
0.000642137
0.000214435
0.000666656
0.0002273
0.000686662
0.000240437
0.000700318
0.000253675
0.000705344
0.000266813
0.000698924
0.000279563
0.000677648
0.000291575
0.000637435
0.000302403
0.000573539
0.000311507
0.000480386
0.000318301
0.00035149
0.000322209
0.000178384
-3.88024e-05
0.00032282
2.49484e-05
2.07535e-05
-2.45999e-05
2.53246e-05
2.24365e-05
2.57308e-05
2.42557e-05
2.61703e-05
2.62218e-05
2.66446e-05
2.83463e-05
2.71581e-05
3.06417e-05
2.77126e-05
3.31215e-05
2.8313e-05
3.58002e-05
2.89621e-05
3.86874e-05
2.96655e-05
4.18096e-05
3.04253e-05
4.51881e-05
3.12476e-05
4.88379e-05
3.21363e-05
5.27803e-05
3.31e-05
5.70212e-05
3.41445e-05
6.15956e-05
3.52749e-05
6.65586e-05
3.6497e-05
7.19169e-05
3.78247e-05
7.76561e-05
3.92633e-05
8.387e-05
4.08197e-05
9.06026e-05
4.25083e-05
9.78146e-05
4.43402e-05
0.0001056
4.63205e-05
0.000114041
4.84731e-05
0.000123043
5.08017e-05
0.000132825
5.3325e-05
0.000143322
5.60596e-05
0.000154611
5.90178e-05
0.000166793
6.22238e-05
0.000179829
6.56889e-05
0.000193901
6.944e-05
0.000208938
7.34921e-05
0.000225114
7.78713e-05
0.0002424
8.25993e-05
0.000260892
8.76977e-05
0.000280651
9.31981e-05
0.000301643
9.91198e-05
0.000324006
0.000105492
0.000347674
0.000112341
0.000372643
0.000119689
0.000398915
0.00012756
0.000426378
0.000135976
0.000454891
0.000144955
0.000484287
0.000154508
0.000514281
0.00016464
0.000544486
0.000175347
0.000574386
0.000186609
0.000603303
0.000198392
0.000630356
0.000210641
0.000654411
0.000223269
0.000674036
0.000236164
0.000687426
0.000249158
0.000692346
0.000262055
0.00068603
0.000274573
0.000665136
0.000286367
0.000625651
0.000297004
0.000562915
0.000305954
0.00047145
0.00031263
0.000344835
0.000316432
0.000174598
-3.9357e-05
0.00031703
2.45756e-05
2.04126e-05
-2.42332e-05
2.49451e-05
2.20681e-05
2.53437e-05
2.38575e-05
2.57752e-05
2.57914e-05
2.62407e-05
2.78809e-05
2.67448e-05
3.01384e-05
2.72891e-05
3.25772e-05
2.78786e-05
3.52113e-05
2.85162e-05
3.80495e-05
2.9207e-05
4.11191e-05
2.99535e-05
4.44413e-05
3.07612e-05
4.80302e-05
3.16343e-05
5.19068e-05
3.2581e-05
5.60745e-05
3.36072e-05
6.0569e-05
3.47176e-05
6.54483e-05
3.59181e-05
7.07161e-05
3.72224e-05
7.63521e-05
3.86356e-05
8.24567e-05
4.01644e-05
8.90741e-05
4.18232e-05
9.61558e-05
4.36225e-05
0.000103801
4.55677e-05
0.000112096
4.7682e-05
0.000120929
4.99692e-05
0.000130538
5.24476e-05
0.000140844
5.51335e-05
0.000151925
5.8039e-05
0.000163887
6.11878e-05
0.000176681
6.45909e-05
0.000190498
6.82749e-05
0.000205254
7.22544e-05
0.000221134
7.6555e-05
0.000238099
8.11982e-05
0.000256249
8.62051e-05
0.000275644
9.16065e-05
0.000296242
9.74215e-05
0.000318192
0.000103678
0.000341418
0.000110403
0.000365918
0.000117619
0.000391701
0.000125347
0.000418651
0.000133611
0.000446628
0.000142427
0.000475472
0.000151806
0.000504904
0.000161753
0.00053454
0.000172263
0.000563877
0.000183319
0.000592249
0.000194886
0.00061879
0.00020691
0.000642389
0.000219306
0.000661639
0.000231964
0.00067477
0.000244721
0.000679586
0.000257383
0.000673369
0.000269675
0.00065284
0.000281258
0.00061406
0.00029171
0.000552455
0.000300511
0.000462636
0.000307079
0.000338268
0.000310777
0.000170903
-3.9855e-05
0.000311262
2.42042e-05
2.00781e-05
-2.38686e-05
2.45666e-05
2.17066e-05
2.49578e-05
2.34668e-05
2.53813e-05
2.5369e-05
2.58383e-05
2.74241e-05
2.63333e-05
2.96444e-05
2.68678e-05
3.20428e-05
2.74468e-05
3.46331e-05
2.8073e-05
3.74231e-05
2.87516e-05
4.04409e-05
2.94849e-05
4.37077e-05
3.02785e-05
4.72368e-05
3.11363e-05
5.10486e-05
3.20665e-05
5.51443e-05
3.30747e-05
5.95604e-05
3.41657e-05
6.43574e-05
3.53453e-05
6.95363e-05
3.66267e-05
7.5071e-05
3.80151e-05
8.10682e-05
3.95171e-05
8.75726e-05
4.11467e-05
9.45261e-05
4.29144e-05
0.000102033
4.48252e-05
0.000110185
4.69021e-05
0.000118852
4.91488e-05
0.000128291
5.15833e-05
0.00013841
5.42215e-05
0.000149287
5.70752e-05
0.000161034
6.01679e-05
0.000173588
6.35102e-05
0.000187155
6.71283e-05
0.000201635
7.10365e-05
0.000217226
7.52601e-05
0.000233875
7.98199e-05
0.000251689
8.47369e-05
0.000270727
9.00412e-05
0.000290938
9.57513e-05
0.000312482
0.000101895
0.000335275
0.000108498
0.000359316
0.000115583
0.000384618
0.000123171
0.000411064
0.000131285
0.000438515
0.00013994
0.000466819
0.000149148
0.000495698
0.000158913
0.000524778
0.000169231
0.000553562
0.000180084
0.000581398
0.000191439
0.000607438
0.000203242
0.000630589
0.000215411
0.000649472
0.000227839
0.000662345
0.000240364
0.000667057
0.000252797
0.000660938
0.00026487
0.000640772
0.000276249
0.000602689
0.00028652
0.000542194
0.000295177
0.000453991
0.000301644
0.00033182
0.000305248
0.000167314
-4.01365e-05
0.000305571
2.38354e-05
1.97499e-05
-2.35057e-05
2.41912e-05
2.13518e-05
2.45752e-05
2.30833e-05
2.49908e-05
2.49543e-05
2.54395e-05
2.69757e-05
2.59254e-05
2.91594e-05
2.64502e-05
3.1518e-05
2.70187e-05
3.40652e-05
2.76337e-05
3.68079e-05
2.83002e-05
3.97747e-05
2.90206e-05
4.29871e-05
2.98002e-05
4.64572e-05
3.06431e-05
5.02053e-05
3.15571e-05
5.42304e-05
3.25478e-05
5.85693e-05
3.36199e-05
6.32855e-05
3.47789e-05
6.8377e-05
3.60381e-05
7.38121e-05
3.74022e-05
7.97039e-05
3.8878e-05
8.60972e-05
4.0479e-05
9.2925e-05
4.22157e-05
0.000100297
4.40929e-05
0.000108308
4.61333e-05
0.000116812
4.83403e-05
0.000126084
5.07316e-05
0.000136018
5.3323e-05
0.000146695
5.6126e-05
0.000158231
5.91636e-05
0.00017055
6.24463e-05
0.000183872
6.59997e-05
0.000198081
6.98379e-05
0.000213387
7.39857e-05
0.000229727
7.84637e-05
0.000247211
8.32924e-05
0.000265898
8.85012e-05
0.000285729
9.41084e-05
0.000306876
0.000100141
0.000329244
0.000106625
0.000352833
0.000113581
0.000377663
0.000121031
0.000403615
0.000128997
0.00043055
0.000137495
0.000458322
0.000146535
0.00048666
0.000156122
0.000515192
0.000166251
0.000543434
0.000176905
0.000570745
0.000188052
0.000596292
0.000199639
0.000619003
0.000211587
0.000637524
0.000223789
0.000650144
0.000236089
0.000654754
0.000248299
0.000648727
0.000260158
0.000628909
0.000271337
0.000591502
0.000281432
0.00053209
0.000289946
0.000445465
0.000296314
0.000325451
0.000299839
0.000163787
-4.03211e-05
0.000300005
2.34707e-05
1.94277e-05
-2.31474e-05
2.38198e-05
2.10035e-05
2.41969e-05
2.27066e-05
2.46051e-05
2.4547e-05
2.50459e-05
2.65352e-05
2.55234e-05
2.86829e-05
2.60389e-05
3.10027e-05
2.65974e-05
3.35076e-05
2.72015e-05
3.62038e-05
2.78563e-05
3.91205e-05
2.85638e-05
4.22793e-05
2.93297e-05
4.56915e-05
3.01576e-05
4.9377e-05
3.10556e-05
5.33325e-05
3.2029e-05
5.75955e-05
3.30824e-05
6.22323e-05
3.42212e-05
6.72379e-05
3.54584e-05
7.25752e-05
3.67987e-05
7.83634e-05
3.82486e-05
8.46476e-05
3.98216e-05
9.1352e-05
4.15278e-05
9.85911e-05
4.3372e-05
0.000106464
4.53763e-05
0.000114808
4.75444e-05
0.000123916
4.98933e-05
0.000133669
5.24387e-05
0.00014415
5.51918e-05
0.000155478
5.81753e-05
0.000167567
6.13993e-05
0.000180648
6.48891e-05
0.000194591
6.86585e-05
0.000209617
7.27319e-05
0.000225653
7.71294e-05
0.000242813
8.18713e-05
0.000261156
8.69863e-05
0.000280615
9.24923e-05
0.00030137
9.84157e-05
0.000323321
0.000104782
0.000346467
0.000111612
0.000370834
0.000118927
0.000396301
0.000126748
0.00042273
0.000135091
0.000449981
0.000143966
0.000477786
0.000153378
0.000505782
0.000163322
0.000533493
0.000173782
0.000560288
0.000184726
0.000585351
0.000196102
0.000607629
0.000207834
0.000625794
0.000219816
0.000638165
0.000231895
0.000642672
0.000243887
0.000636736
0.000255538
0.000617263
0.000266522
0.000580524
0.000276443
0.000522177
0.000284817
0.000437101
0.000291085
0.000319199
0.00029454
0.000160345
-4.03252e-05
0.000294585
2.3114e-05
1.91111e-05
-2.27958e-05
2.34574e-05
2.06612e-05
2.3828e-05
2.23364e-05
2.42293e-05
2.41467e-05
2.46624e-05
2.61023e-05
2.51315e-05
2.82147e-05
2.5638e-05
3.04962e-05
2.61865e-05
3.29596e-05
2.678e-05
3.56101e-05
2.7423e-05
3.84778e-05
2.8118e-05
4.15841e-05
2.88702e-05
4.49395e-05
2.96835e-05
4.85634e-05
3.05655e-05
5.24505e-05
3.15217e-05
5.6639e-05
3.25564e-05
6.11978e-05
3.36751e-05
6.61189e-05
3.48905e-05
7.13602e-05
3.62072e-05
7.70466e-05
3.76316e-05
8.32237e-05
3.91768e-05
8.98067e-05
4.08528e-05
9.69154e-05
4.26643e-05
0.000104652
4.46331e-05
0.000112839
4.67627e-05
0.000121786
4.90699e-05
0.000131362
5.15698e-05
0.00014165
5.42738e-05
0.000152774
5.72039e-05
0.000164637
6.03702e-05
0.000177482
6.37974e-05
0.000191164
6.74991e-05
0.000205915
7.14991e-05
0.000221653
7.58175e-05
0.000238495
8.0474e-05
0.0002565
8.54967e-05
0.000275592
9.09033e-05
0.000295964
9.67196e-05
0.000317505
0.000102971
0.000340217
0.000109676
0.00036413
0.000116858
0.00038912
0.000124538
0.000415051
0.000132729
0.000441791
0.000141443
0.000469074
0.000150683
0.000496543
0.000160446
0.000523731
0.000170716
0.000550019
0.000181461
0.000574607
0.000192632
0.000596459
0.000204152
0.000614274
0.00021592
0.000626399
0.000227783
0.000630803
0.000239563
0.000624954
0.000251009
0.000605813
0.000261802
0.000569724
0.000271553
0.000512417
0.000279787
0.000428856
0.000285953
0.000313029
0.000289344
0.000156947
-4.03117e-05
0.000289306
2.27684e-05
1.87998e-05
-2.2456e-05
2.31059e-05
2.03244e-05
2.34706e-05
2.19723e-05
2.38652e-05
2.3753e-05
2.42912e-05
2.56766e-05
2.47525e-05
2.77544e-05
2.52504e-05
2.99983e-05
2.57897e-05
3.24211e-05
2.63728e-05
3.50269e-05
2.70046e-05
3.78464e-05
2.76872e-05
4.09013e-05
2.8426e-05
4.42009e-05
2.92246e-05
4.77645e-05
3.00906e-05
5.15845e-05
3.10295e-05
5.56998e-05
3.20456e-05
6.01819e-05
3.31442e-05
6.50201e-05
3.43377e-05
7.0167e-05
3.56308e-05
7.57534e-05
3.70297e-05
8.18252e-05
3.85473e-05
8.82892e-05
4.01933e-05
9.52698e-05
4.19724e-05
0.000102873
4.39059e-05
0.000110906
4.59973e-05
0.000119695
4.82631e-05
0.000129096
5.07182e-05
0.000139195
5.33736e-05
0.000150118
5.6251e-05
0.00016176
5.93603e-05
0.000174372
6.27258e-05
0.000187798
6.63608e-05
0.00020228
7.02887e-05
0.000217725
7.45291e-05
0.000234254
7.91015e-05
0.000251928
8.40335e-05
0.00027066
8.93423e-05
0.000290655
9.50533e-05
0.000311795
0.000101191
0.00033408
0.000107775
0.000357547
0.000114827
0.00038207
0.000122366
0.000407513
0.000130409
0.00043375
0.000138964
0.00046052
0.000148037
0.000487472
0.000157623
0.000514147
0.000167707
0.000539938
0.000178259
0.000564058
0.000189228
0.000585493
0.000200542
0.000602962
0.0002121
0.000614844
0.000223753
0.000619147
0.000235325
0.000613383
0.000246571
0.000594571
0.000257177
0.000559122
0.000266761
0.000502839
0.000274855
0.000420769
0.000280918
0.00030698
0.000284247
0.000153628
-4.01858e-05
0.000284158
2.24381e-05
1.84933e-05
-2.21301e-05
2.27705e-05
1.9993e-05
2.31293e-05
2.1614e-05
2.35175e-05
2.33657e-05
2.39364e-05
2.52579e-05
2.43898e-05
2.73018e-05
2.48794e-05
2.95089e-05
2.54092e-05
3.18918e-05
2.59824e-05
3.44537e-05
2.6603e-05
3.72261e-05
2.72736e-05
4.02305e-05
2.79991e-05
4.34755e-05
2.87833e-05
4.69801e-05
2.96336e-05
5.07343e-05
3.05553e-05
5.47779e-05
3.15527e-05
5.91846e-05
3.26312e-05
6.39414e-05
3.38029e-05
6.89957e-05
3.50723e-05
7.44838e-05
3.64456e-05
8.04523e-05
3.79356e-05
8.67992e-05
3.95516e-05
9.3654e-05
4.12984e-05
0.000101126
4.31969e-05
0.000109008
4.52503e-05
0.000117642
4.74751e-05
0.000126872
4.98857e-05
0.000136784
5.2493e-05
0.000147511
5.53183e-05
0.000158934
5.83713e-05
0.000171319
6.16759e-05
0.000184493
6.5245e-05
0.00019871
6.91018e-05
0.000213868
7.32654e-05
0.000230091
7.7755e-05
0.000247438
8.25977e-05
0.000265818
8.78104e-05
0.000285443
9.34179e-05
0.000306188
9.94443e-05
0.000328054
0.000105909
0.000351083
0.000112833
0.000375147
0.000120236
0.000400111
0.000128132
0.000425854
0.000136533
0.000452121
0.000145441
0.000478564
0.000154855
0.000504734
0.000164757
0.000530036
0.000175119
0.000553697
0.000185892
0.00057472
0.000197005
0.000591849
0.000208357
0.000603492
0.000219804
0.000607693
0.000231173
0.000602012
0.000242222
0.000583517
0.000252645
0.000548693
0.000262064
0.000493411
0.00027002
0.000412801
0.000275977
0.000301017
0.000279246
0.000150347
-4.00999e-05
0.000279127
2.21248e-05
1.81916e-05
-2.18221e-05
2.24516e-05
1.96668e-05
2.28047e-05
2.12615e-05
2.31864e-05
2.29847e-05
2.35986e-05
2.48462e-05
2.40445e-05
2.68567e-05
2.45258e-05
2.90278e-05
2.50468e-05
3.13716e-05
2.56099e-05
3.38906e-05
2.62199e-05
3.66167e-05
2.68784e-05
3.95717e-05
2.7591e-05
4.27632e-05
2.83608e-05
4.62098e-05
2.91956e-05
4.98996e-05
3.01002e-05
5.38729e-05
3.10791e-05
5.82059e-05
3.21376e-05
6.28828e-05
3.32874e-05
6.78461e-05
3.45333e-05
7.32379e-05
3.58812e-05
7.91048e-05
3.73435e-05
8.53369e-05
3.89297e-05
9.20682e-05
4.06443e-05
9.94119e-05
4.25078e-05
0.000107144
4.45235e-05
0.000115626
4.67075e-05
0.000124688
4.9074e-05
0.000134418
5.16337e-05
0.000144951
5.44074e-05
0.000156161
5.74048e-05
0.000168322
6.06491e-05
0.000181249
6.41534e-05
0.000195206
6.794e-05
0.000210081
7.2028e-05
0.000226003
7.64361e-05
0.00024303
8.11909e-05
0.000261063
8.6309e-05
0.000280326
9.18148e-05
0.000300682
9.7732e-05
0.000322138
0.000104079
0.000344737
0.000110877
0.00036835
0.000118146
0.000392843
0.0001259
0.000418102
0.000134149
0.000443874
0.000142897
0.000469818
0.000152141
0.000495493
0.000161865
0.000520314
0.000172042
0.000543523
0.000182624
0.000564141
0.000193539
0.000580936
0.000204691
0.000592343
0.000215937
0.000596444
0.000227106
0.000590843
0.000237963
0.000572663
0.000248204
0.000538455
0.000257461
0.000484158
0.00026528
0.000404987
0.000271131
0.000295178
0.000274339
0.000147149
-3.99304e-05
0.000274202
2.18297e-05
1.78947e-05
-2.15311e-05
2.21516e-05
1.93459e-05
2.24988e-05
2.09148e-05
2.28743e-05
2.26101e-05
2.32793e-05
2.44415e-05
2.37174e-05
2.64193e-05
2.41903e-05
2.8555e-05
2.4702e-05
3.08604e-05
2.52553e-05
3.33372e-05
2.58542e-05
3.60181e-05
2.65012e-05
3.89246e-05
2.72008e-05
4.20637e-05
2.79569e-05
4.54536e-05
2.87762e-05
4.90803e-05
2.96642e-05
5.29847e-05
3.06249e-05
5.72454e-05
3.16635e-05
6.1844e-05
3.27918e-05
6.67181e-05
3.40142e-05
7.20154e-05
3.53367e-05
7.77827e-05
3.67717e-05
8.3902e-05
3.83282e-05
9.0512e-05
4.00108e-05
9.77293e-05
4.18396e-05
0.000105316
4.38179e-05
0.000113648
4.59614e-05
0.000122544
4.82842e-05
0.000132095
5.07967e-05
0.000142439
5.35194e-05
0.000153438
5.64618e-05
0.000165379
5.96467e-05
0.000178064
6.30869e-05
0.000191765
6.68045e-05
0.000206363
7.08179e-05
0.000221989
7.51458e-05
0.000238702
7.98142e-05
0.000256395
8.48393e-05
0.000275301
9.02453e-05
0.000295277
9.60552e-05
0.000316329
0.000102287
0.000338505
0.000108963
0.000361676
0.0001161
0.000385706
0.000123714
0.000410489
0.000131814
0.000435775
0.000140405
0.000461228
0.000149483
0.000486415
0.000159034
0.000510763
0.000169029
0.000533528
0.000179423
0.000553748
0.000190146
0.000570213
0.000201101
0.000581388
0.000212149
0.000585389
0.000223123
0.000579865
0.00023379
0.000561992
0.000243854
0.000528385
0.000252949
0.000475053
0.000260633
0.000397292
0.000266378
0.000289425
0.000269524
0.000143985
-3.98179e-05
0.000269371
2.15507e-05
1.76027e-05
-2.12577e-05
2.18668e-05
1.90304e-05
2.22081e-05
2.0574e-05
2.2577e-05
2.2242e-05
2.29751e-05
2.40438e-05
2.34057e-05
2.59896e-05
2.38704e-05
2.80905e-05
2.43733e-05
3.03583e-05
2.49167e-05
3.27937e-05
2.55052e-05
3.54301e-05
2.61405e-05
3.8289e-05
2.68276e-05
4.13767e-05
2.75699e-05
4.47111e-05
2.83742e-05
4.8276e-05
2.92458e-05
5.21129e-05
3.01885e-05
5.63028e-05
3.12077e-05
6.08247e-05
3.23147e-05
6.56114e-05
3.35141e-05
7.08159e-05
3.48117e-05
7.64855e-05
3.62195e-05
8.24942e-05
3.77467e-05
8.89852e-05
3.93976e-05
9.60784e-05
4.11921e-05
0.000103522
4.31334e-05
0.000111706
4.52369e-05
0.000120441
4.75165e-05
0.000129816
4.99824e-05
0.000139973
5.26548e-05
0.000150766
5.55429e-05
0.000162491
5.86693e-05
0.000174937
6.20464e-05
0.000188388
6.56958e-05
0.000202713
6.9636e-05
0.000218049
7.3885e-05
0.000234453
7.84684e-05
0.000251812
8.34022e-05
0.000270367
8.87101e-05
0.00028997
9.44147e-05
0.000310625
0.000100534
0.000332387
0.000107089
0.000355122
0.000114097
0.000378699
0.000121574
0.000403014
0.000129528
0.000427822
0.000137965
0.000452793
0.000146881
0.000477502
0.000156262
0.000501385
0.00016608
0.000523712
0.00017629
0.000543541
0.000186823
0.000559682
0.000197586
0.000570628
0.00020844
0.000574532
0.000219222
0.000569084
0.000229702
0.000551513
0.000239591
0.000518499
0.000248528
0.000466118
0.000256076
0.000389746
0.000261716
0.000283794
0.000264799
0.00014091
-3.96242e-05
0.000264632
2.12859e-05
1.73158e-05
-2.09974e-05
2.15966e-05
1.87205e-05
2.19317e-05
2.02393e-05
2.2294e-05
2.18805e-05
2.26849e-05
2.36532e-05
2.31076e-05
2.55675e-05
2.3564e-05
2.76343e-05
2.40576e-05
2.98651e-05
2.45915e-05
3.22598e-05
2.51692e-05
3.48526e-05
2.57933e-05
3.76648e-05
2.6468e-05
4.07022e-05
2.7197e-05
4.3982e-05
2.79868e-05
4.74863e-05
2.88424e-05
5.12571e-05
2.97677e-05
5.53776e-05
3.07679e-05
5.98244e-05
3.18542e-05
6.45254e-05
3.30311e-05
6.9639e-05
3.43042e-05
7.52128e-05
3.56854e-05
8.11129e-05
3.71837e-05
8.74872e-05
3.88036e-05
9.44586e-05
4.05643e-05
0.000101761
4.24691e-05
0.000109802
4.45333e-05
0.000118377
4.67703e-05
0.000127579
4.91904e-05
0.000137553
5.18132e-05
0.000148143
5.46479e-05
0.000159656
5.77166e-05
0.000171868
6.10316e-05
0.000185073
6.46142e-05
0.000199131
6.84823e-05
0.000214181
7.26537e-05
0.000230282
7.71537e-05
0.000247312
8.19979e-05
0.000265523
8.72096e-05
0.000284759
9.28109e-05
0.000305024
9.88198e-05
0.000326378
0.000105256
0.000348687
0.000112139
0.000371817
0.000119481
0.000395672
0.000127292
0.000420011
0.000135578
0.000444508
0.000144335
0.000468745
0.000153549
0.000492172
0.000163193
0.000514068
0.000173223
0.000533511
0.000183571
0.000549333
0.000194145
0.000560054
0.000204808
0.00056386
0.0002154
0.000558487
0.000225697
0.000541212
0.000235412
0.000508777
0.000244192
0.000457328
0.000251608
0.00038232
0.000257143
0.000278248
0.000260163
0.000137867
-3.9487e-05
0.000259976
2.10311e-05
1.70342e-05
-2.07486e-05
2.13357e-05
1.84164e-05
2.16648e-05
1.99108e-05
2.20203e-05
2.15257e-05
2.24041e-05
2.32698e-05
2.28193e-05
2.51532e-05
2.32674e-05
2.71865e-05
2.37523e-05
2.93809e-05
2.42764e-05
3.17357e-05
2.4844e-05
3.42855e-05
2.54567e-05
3.70519e-05
2.61194e-05
4.00397e-05
2.68351e-05
4.3266e-05
2.76106e-05
4.67108e-05
2.84507e-05
5.04167e-05
2.93592e-05
5.44692e-05
3.0341e-05
5.88424e-05
3.14073e-05
6.34594e-05
3.25622e-05
6.8484e-05
3.38116e-05
7.39638e-05
3.51669e-05
7.97576e-05
3.66372e-05
8.60173e-05
3.82266e-05
9.28692e-05
3.99543e-05
0.000100034
4.18235e-05
0.000107932
4.3849e-05
0.000116351
4.60443e-05
0.000125383
4.84193e-05
0.000135178
5.09935e-05
0.000145569
5.37758e-05
0.000156874
5.67879e-05
0.000168856
6.0042e-05
0.000181818
6.35589e-05
0.000195614
6.73562e-05
0.000210383
7.14516e-05
0.000226187
7.58697e-05
0.000242894
8.0626e-05
0.000260767
8.57433e-05
0.000279642
9.12433e-05
0.000299525
9.71438e-05
0.000320479
0.000103464
0.000342367
0.000110223
0.000365059
0.000117434
0.000388463
0.000125105
0.00041234
0.000133243
0.000436371
0.000141844
0.000460146
0.000150895
0.000483123
0.000160368
0.000504598
0.00017022
0.000523662
0.000180386
0.00053917
0.000190774
0.000549669
0.00020125
0.000553381
0.000211655
0.000548081
0.000221771
0.000531097
0.000231316
0.000499234
0.000239941
0.000448702
0.000247224
0.000375037
0.000252655
0.000272823
0.000255611
0.000134918
-3.92625e-05
0.000255404
2.07836e-05
1.67579e-05
-2.05057e-05
2.10829e-05
1.8118e-05
2.14056e-05
1.95886e-05
2.17546e-05
2.11775e-05
2.21311e-05
2.28936e-05
2.25384e-05
2.47466e-05
2.29781e-05
2.67469e-05
2.34539e-05
2.89056e-05
2.39685e-05
3.12211e-05
2.45255e-05
3.37287e-05
2.51273e-05
3.64501e-05
2.57779e-05
3.93892e-05
2.64809e-05
4.25628e-05
2.72425e-05
4.59493e-05
2.80675e-05
4.95915e-05
2.89597e-05
5.35773e-05
2.99238e-05
5.78782e-05
3.09706e-05
6.24129e-05
3.21044e-05
6.73501e-05
3.33308e-05