/*--------------------------------*- C++ -*----------------------------------*\
  =========                 |
  \\      /  F ield         | OpenFOAM: The Open Source CFD Toolbox
   \\    /   O peration     | Website:  https://openfoam.org
    \\  /    A nd           | Version:  6.0
     \\/     M anipulation  |
\*---------------------------------------------------------------------------*/
FoamFile
{
    version     2.0;
    format      ascii;
    class       volVectorField;
    location    "18";
    object      U;
}
// * * * * * * * * * * * * * * * * * * * * * * * * * * * * * * * * * * * * * //

dimensions      [0 1 -1 0 0 0 0];

internalField   nonuniform List<vector> 
62000
(
(0.996173 -0.0873967 -3.77892e-21)
(0.996174 -0.0874001 3.1055e-21)
(0.996174 -0.0874023 3.12773e-21)
(0.996175 -0.0874019 -1.34833e-20)
(0.996175 -0.0874005 -1.50983e-20)
(0.996176 -0.0873984 5.15173e-20)
(0.996176 -0.0873969 -5.5633e-20)
(0.996176 -0.0873955 3.18306e-20)
(0.996175 -0.0873934 -1.45867e-20)
(0.996175 -0.087391 -7.3045e-20)
(0.996174 -0.0873884 -8.70159e-21)
(0.996173 -0.0873859 9.8938e-20)
(0.996171 -0.0873829 1.95887e-20)
(0.99617 -0.0873797 -6.7782e-20)
(0.996168 -0.0873769 1.03586e-19)
(0.996166 -0.0873742 -5.41756e-20)
(0.996165 -0.0873725 5.43929e-20)
(0.996163 -0.087371 -6.32247e-20)
(0.996161 -0.0873708 3.02466e-20)
(0.996159 -0.0873704 -9.12279e-20)
(0.996157 -0.0873711 1.17133e-19)
(0.996155 -0.0873714 3.28467e-20)
(0.996152 -0.0873725 4.58721e-20)
(0.996149 -0.087373 -2.10691e-19)
(0.996145 -0.0873742 7.58357e-20)
(0.996142 -0.0873746 -4.43233e-20)
(0.996138 -0.0873757 6.83185e-22)
(0.996135 -0.0873761 -3.25921e-20)
(0.99613 -0.0873772 1.04241e-19)
(0.996126 -0.087378 -5.44593e-20)
(0.996121 -0.0873802 1.27885e-19)
(0.996116 -0.0873816 -2.56146e-19)
(0.996109 -0.0873824 2.56104e-20)
(0.996101 -0.08738 -7.56813e-20)
(0.996094 -0.0873787 -2.12095e-20)
(0.99609 -0.0873811 -7.35579e-20)
(0.996087 -0.0873838 -1.35635e-20)
(0.996082 -0.0873841 -1.40347e-20)
(0.996076 -0.0873823 6.44261e-20)
(0.99607 -0.08738 2.63344e-19)
(0.996065 -0.0873783 -5.93571e-20)
(0.996061 -0.0873778 -3.08848e-19)
(0.99606 -0.0873787 -4.45935e-19)
(0.996063 -0.0873807 2.15569e-19)
(0.996071 -0.0873832 6.17071e-20)
(0.996087 -0.0873845 -2.27686e-19)
(0.996113 -0.0873811 3.18887e-20)
(0.996155 -0.0873689 -6.36462e-20)
(0.996216 -0.0873381 -1.76812e-19)
(0.996301 -0.0872808 -1.2183e-20)
(0.996414 -0.0871761 1.93289e-20)
(0.996553 -0.0870162 2.77539e-19)
(0.996729 -0.0867619 -1.28623e-19)
(0.996917 -0.0863996 -7.93585e-19)
(0.997121 -0.0858802 -2.40978e-19)
(0.997317 -0.0851676 -1.10875e-18)
(0.997489 -0.0840817 1.04933e-19)
(0.997708 -0.0825438 1.35922e-19)
(0.9965 -0.0800991 -5.70964e-19)
(1.01317 -0.0647047 -1.03083e-19)
(0.996171 -0.0876078 -1.01678e-21)
(0.99617 -0.0876134 9.57903e-21)
(0.996168 -0.0876227 3.88285e-21)
(0.996167 -0.0876293 -1.65241e-20)
(0.996167 -0.0876343 6.74434e-21)
(0.996166 -0.0876374 -4.56908e-20)
(0.996166 -0.08764 4.12448e-20)
(0.996166 -0.0876422 2.33617e-20)
(0.996166 -0.0876425 -4.29931e-20)
(0.996165 -0.0876424 1.91781e-21)
(0.996164 -0.0876416 4.0128e-20)
(0.996162 -0.0876413 -2.5108e-23)
(0.99616 -0.08764 1.09757e-20)
(0.996158 -0.0876383 -9.33705e-20)
(0.996156 -0.0876373 1.83811e-19)
(0.996153 -0.0876358 -1.59746e-19)
(0.996151 -0.0876363 7.33658e-20)
(0.996149 -0.0876359 -1.53065e-20)
(0.996147 -0.087638 -4.0303e-20)
(0.996145 -0.0876386 1.08871e-19)
(0.996142 -0.0876417 -1.68788e-19)
(0.99614 -0.0876428 9.61903e-20)
(0.996136 -0.087646 -1.1881e-19)
(0.996134 -0.0876469 7.02809e-20)
(0.996129 -0.0876495 6.24109e-20)
(0.996127 -0.0876495 -4.05964e-20)
(0.996122 -0.0876513 7.84995e-22)
(0.996119 -0.0876508 4.39976e-20)
(0.996114 -0.0876522 3.53892e-20)
(0.996113 -0.0876527 -6.75234e-20)
(0.996107 -0.0876571 1.35529e-19)
(0.996101 -0.0876614 2.49432e-20)
(0.996089 -0.087662 7.65319e-20)
(0.996073 -0.0876535 3.69807e-21)
(0.996064 -0.0876474 1.80241e-20)
(0.996064 -0.0876526 -2.42711e-20)
(0.99607 -0.0876643 -6.73315e-20)
(0.996074 -0.0876744 -3.51814e-20)
(0.996074 -0.087681 -1.63265e-19)
(0.996073 -0.087687 -1.7372e-19)
(0.996072 -0.0876951 1.27555e-19)
(0.996075 -0.0877068 8.06175e-20)
(0.996082 -0.0877228 4.63337e-19)
(0.996096 -0.0877418 1.61311e-20)
(0.996121 -0.0877622 -5.52226e-19)
(0.996161 -0.0877801 1.91256e-19)
(0.996222 -0.0877872 1.3638e-19)
(0.996313 -0.0877761 9.92795e-20)
(0.996439 -0.0877248 4.47544e-20)
(0.996609 -0.0876211 1.93648e-20)
(0.996829 -0.0874212 -5.57813e-20)
(0.997093 -0.0871234 -3.89512e-19)
(0.997423 -0.0866551 4.37722e-19)
(0.997752 -0.085999 1.59036e-18)
(0.998084 -0.085089 5.04258e-19)
(0.998387 -0.0838979 3.33166e-19)
(0.998586 -0.0821871 1.1824e-18)
(0.998953 -0.0800296 6.15975e-19)
(0.998549 -0.076669 -1.22028e-18)
(1.00193 -0.0679927 -5.84002e-19)
(0.996181 -0.087765 -4.9651e-21)
(0.996177 -0.0877732 -6.77091e-22)
(0.996173 -0.0877881 7.6227e-22)
(0.99617 -0.0878003 3.35323e-21)
(0.996168 -0.0878116 9.28876e-21)
(0.996167 -0.0878202 -8.67801e-21)
(0.996166 -0.0878271 4.52848e-20)
(0.996165 -0.0878326 -2.13668e-20)
(0.996165 -0.0878352 -1.12537e-20)
(0.996165 -0.0878368 -6.73507e-20)
(0.996165 -0.0878371 5.59388e-20)
(0.996165 -0.0878378 4.00942e-21)
(0.996165 -0.0878375 -1.22484e-20)
(0.996165 -0.0878369 3.18933e-20)
(0.996164 -0.0878374 -5.35578e-20)
(0.996164 -0.0878372 5.08153e-22)
(0.996164 -0.0878397 -2.33534e-20)
(0.996165 -0.0878409 8.40167e-22)
(0.996166 -0.0878453 5.26383e-20)
(0.996168 -0.0878477 -7.81977e-20)
(0.996169 -0.0878531 4.8108e-20)
(0.996171 -0.0878558 1.8048e-19)
(0.996172 -0.0878611 -2.60448e-20)
(0.996175 -0.0878632 -2.4153e-19)
(0.996176 -0.0878677 1.22508e-19)
(0.996179 -0.0878684 -6.29485e-20)
(0.996181 -0.0878717 1.01507e-19)
(0.996186 -0.087872 -6.19655e-20)
(0.996189 -0.0878749 -1.15926e-19)
(0.996197 -0.0878769 1.18117e-19)
(0.996201 -0.0878835 -8.14608e-20)
(0.996205 -0.0878916 1.05682e-19)
(0.996202 -0.0878949 -2.79755e-19)
(0.996194 -0.0878862 2.40413e-19)
(0.996193 -0.0878778 -1.2356e-19)
(0.99621 -0.0878845 5.22261e-20)
(0.996238 -0.0879024 3.71876e-20)
(0.996268 -0.0879207 5.71401e-21)
(0.996295 -0.0879356 6.49633e-21)
(0.996319 -0.0879494 1.74487e-19)
(0.996345 -0.0879649 -6.45281e-20)
(0.996373 -0.0879833 9.77976e-20)
(0.996406 -0.0880052 -2.86631e-19)
(0.996446 -0.088029 -1.23704e-19)
(0.996496 -0.0880527 1.48123e-19)
(0.99656 -0.0880727 -3.04095e-19)
(0.99664 -0.0880793 4.74492e-20)
(0.996748 -0.0880662 -1.42124e-19)
(0.996885 -0.0880083 1.16081e-19)
(0.997063 -0.0878945 7.09316e-21)
(0.997283 -0.0876765 -3.89428e-20)
(0.997545 -0.0873588 -2.05377e-20)
(0.997862 -0.0868783 -2.5116e-19)
(0.998161 -0.0862086 6.00905e-20)
(0.998441 -0.0853054 8.73178e-19)
(0.9987 -0.0841415 5.17938e-19)
(0.998822 -0.0825321 5.79024e-19)
(0.999219 -0.0805666 1.76156e-18)
(0.999256 -0.0778334 -1.23404e-20)
(1.00339 -0.0706703 -3.55678e-19)
(0.996172 -0.0880056 -4.97947e-21)
(0.996166 -0.0880201 1.49698e-20)
(0.996162 -0.0880384 -2.27544e-21)
(0.996161 -0.0880542 -1.48272e-20)
(0.99616 -0.0880697 2.18756e-20)
(0.996159 -0.0880826 3.68166e-20)
(0.996159 -0.0880928 -4.72732e-20)
(0.99616 -0.0881006 4.99479e-21)
(0.99616 -0.0881049 1.5559e-20)
(0.996161 -0.0881076 3.15841e-20)
(0.996163 -0.0881083 -5.75832e-20)
(0.996165 -0.0881087 -1.71756e-20)
(0.996167 -0.0881078 -1.8648e-20)
(0.996169 -0.0881064 8.41487e-20)
(0.996171 -0.0881064 -5.49092e-20)
(0.996173 -0.088106 1.24594e-19)
(0.996176 -0.0881086 -1.48285e-19)
(0.99618 -0.08811 -2.0527e-20)
(0.996184 -0.0881149 1.48364e-19)
(0.996189 -0.0881177 -5.1138e-20)
(0.996195 -0.0881239 -1.83139e-20)
(0.996201 -0.0881274 -1.87971e-20)
(0.996207 -0.088134 -1.64549e-19)
(0.996215 -0.0881371 9.5534e-20)
(0.996222 -0.0881434 -3.94384e-20)
(0.996231 -0.0881458 6.5319e-20)
(0.99624 -0.0881514 2.92122e-20)
(0.996253 -0.0881541 1.37808e-19)
(0.996265 -0.0881598 -8.63077e-20)
(0.996281 -0.0881648 -1.06499e-19)
(0.996296 -0.0881738 1.59717e-19)
(0.996311 -0.0881867 -1.28691e-19)
(0.99632 -0.0881934 2.26289e-19)
(0.996324 -0.0881871 -1.28124e-19)
(0.996336 -0.0881811 5.7614e-20)
(0.996368 -0.0881904 8.9868e-20)
(0.996416 -0.0882125 -3.33399e-20)
(0.99647 -0.0882359 3.17177e-20)
(0.996524 -0.088256 -1.9932e-20)
(0.996577 -0.0882742 4.21185e-20)
(0.996631 -0.0882927 -1.33738e-19)
(0.996688 -0.0883123 3.53752e-20)
(0.996751 -0.0883333 6.48598e-20)
(0.99682 -0.0883534 1.25772e-19)
(0.996897 -0.0883709 1.64926e-19)
(0.996984 -0.0883822 5.72285e-20)
(0.997084 -0.0883777 1.17039e-19)
(0.997206 -0.0883522 8.2316e-20)
(0.99735 -0.0882799 -1.94358e-20)
(0.997529 -0.0881504 4.62219e-20)
(0.99774 -0.0879136 1.15486e-19)
(0.997991 -0.0875739 -1.67579e-19)
(0.99829 -0.0870791 -3.20858e-19)
(0.998569 -0.0863862 -7.73147e-19)
(0.998821 -0.085462 -5.99635e-19)
(0.999076 -0.0842565 -1.32714e-18)
(0.9992 -0.0826102 -2.69523e-18)
(0.999616 -0.0805565 3.53048e-19)
(1.00011 -0.0779502 1.90489e-18)
(1.00271 -0.0700986 1.90802e-18)
(0.99614 -0.0883105 9.6671e-21)
(0.996135 -0.0883308 -3.19602e-21)
(0.996134 -0.0883507 5.17732e-21)
(0.996137 -0.088369 -7.2257e-21)
(0.996139 -0.088388 1.57465e-20)
(0.996141 -0.088405 -7.70384e-21)
(0.996143 -0.0884188 3.95669e-21)
(0.996145 -0.0884293 -5.82793e-20)
(0.996148 -0.0884358 4.78033e-20)
(0.996151 -0.0884404 -9.27174e-20)
(0.996154 -0.0884423 1.00021e-19)
(0.996159 -0.0884431 -1.18533e-20)
(0.996163 -0.0884415 -2.52472e-20)
(0.996168 -0.0884389 -1.10818e-20)
(0.996173 -0.0884377 -2.17415e-21)
(0.996178 -0.0884364 -1.0774e-19)
(0.996183 -0.0884387 6.15356e-21)
(0.99619 -0.0884402 1.12842e-19)
(0.996197 -0.0884457 -3.52412e-20)
(0.996205 -0.0884494 -3.56562e-20)
(0.996214 -0.088457 6.01836e-20)
(0.996223 -0.0884621 -2.82461e-20)
(0.996234 -0.0884706 1.17242e-19)
(0.996245 -0.088476 6.05485e-20)
(0.996258 -0.0884849 4.33393e-20)
(0.996272 -0.08849 -1.41629e-19)
(0.996287 -0.0884988 -1.93356e-20)
(0.996306 -0.0885049 -1.0213e-19)
(0.996325 -0.0885142 1.9876e-20)
(0.996349 -0.0885228 -3.02169e-20)
(0.996373 -0.0885347 -1.15074e-20)
(0.996398 -0.0885503 9.0632e-20)
(0.996419 -0.0885605 -2.28212e-19)
(0.996436 -0.0885587 -1.02086e-20)
(0.996461 -0.0885565 -1.05101e-19)
(0.996506 -0.0885698 -4.98943e-20)
(0.99657 -0.0885952 9.59427e-21)
(0.996644 -0.0886208 -1.34592e-19)
(0.996721 -0.088642 1.86598e-19)
(0.9968 -0.0886603 2.67773e-20)
(0.996882 -0.0886772 1.75396e-19)
(0.996968 -0.0886928 -1.05129e-19)
(0.997062 -0.0887068 -6.28828e-20)
(0.997163 -0.0887164 -3.44352e-20)
(0.997271 -0.0887193 9.57742e-20)
(0.99739 -0.0887118 1.18262e-19)
(0.997519 -0.0886841 -1.16091e-20)
(0.997667 -0.0886316 -1.82148e-20)
(0.997829 -0.0885286 -4.7829e-20)
(0.998023 -0.0883653 -1.82218e-19)
(0.998238 -0.0880913 -9.62874e-20)
(0.998492 -0.0877084 8.26164e-20)
(0.998789 -0.0871722 -1.46302e-19)
(0.999067 -0.0864241 -7.21147e-19)
(0.999319 -0.085436 8.89799e-20)
(0.999592 -0.0841356 1.02384e-18)
(0.999747 -0.0823807 2.93799e-18)
(1.00015 -0.0802034 -3.01088e-18)
(1.00089 -0.0776052 2.15688e-18)
(1.00275 -0.0702796 -2.32292e-18)
(0.996095 -0.0886374 -3.68618e-21)
(0.996094 -0.0886562 1.46e-20)
(0.996097 -0.0886744 -2.35841e-20)
(0.996103 -0.0886939 1.72679e-20)
(0.996108 -0.0887163 1.09238e-20)
(0.996112 -0.0887383 -1.14033e-20)
(0.996117 -0.0887575 9.1391e-22)
(0.996122 -0.0887725 -8.15694e-21)
(0.996126 -0.0887828 -2.6725e-20)
(0.996131 -0.0887909 5.02677e-20)
(0.996137 -0.0887963 -7.59212e-20)
(0.996143 -0.0887996 6.5089e-20)
(0.99615 -0.0887994 5.55424e-20)
(0.996158 -0.0887969 -8.44277e-20)
(0.996166 -0.0887953 -2.64957e-20)
(0.996174 -0.0887938 9.80566e-20)
(0.996183 -0.0887961 -1.15579e-19)
(0.996193 -0.0887982 1.55368e-19)
(0.996203 -0.0888045 -2.98538e-20)
(0.996214 -0.0888096 1.49265e-20)
(0.996226 -0.0888188 -2.60709e-20)
(0.996239 -0.0888259 -3.1254e-20)
(0.996254 -0.0888368 -5.49796e-20)
(0.996269 -0.0888449 9.22631e-20)
(0.996287 -0.0888569 -6.25612e-20)
(0.996306 -0.0888654 -5.77297e-20)
(0.996327 -0.088878 1.16747e-19)
(0.996351 -0.0888881 -1.06387e-19)
(0.996378 -0.0889014 1.6463e-19)
(0.996408 -0.0889139 -8.7151e-20)
(0.996441 -0.0889283 6.09055e-20)
(0.996476 -0.0889468 -1.00287e-19)
(0.996508 -0.0889596 1.01346e-19)
(0.99654 -0.0889611 -1.19869e-20)
(0.996579 -0.0889641 -6.25775e-21)
(0.996637 -0.0889817 -3.86382e-21)
(0.996716 -0.08901 -4.44584e-20)
(0.996807 -0.0890368 1.15696e-19)
(0.996906 -0.0890576 -8.60235e-20)
(0.997009 -0.0890737 -4.26295e-19)
(0.997118 -0.0890865 -1.58715e-19)
(0.997236 -0.0890953 1.02383e-19)
(0.997362 -0.0890987 -8.78733e-20)
(0.997498 -0.089093 -8.64203e-20)
(0.997645 -0.0890749 -1.11682e-21)
(0.997802 -0.0890402 1.20087e-19)
(0.997968 -0.0889785 -9.99244e-20)
(0.998151 -0.0888855 -3.08276e-20)
(0.998342 -0.0887368 1.38221e-20)
(0.998559 -0.0885242 1.60632e-19)
(0.998785 -0.0882002 -2.20011e-19)
(0.999042 -0.0877668 7.93272e-20)
(0.999334 -0.0871873 1.02939e-18)
(0.999603 -0.0863941 -3.04494e-19)
(0.999844 -0.0853654 -4.15021e-19)
(1.00012 -0.0840168 1.01471e-18)
(1.00029 -0.0822205 -7.56238e-19)
(1.00067 -0.0800194 -9.32979e-19)
(1.00148 -0.0775383 -3.48702e-18)
(1.00316 -0.0702947 2.33393e-21)
(0.996049 -0.0889675 4.3642e-21)
(0.99605 -0.088985 -1.93035e-20)
(0.996056 -0.0890019 9.25448e-21)
(0.996065 -0.0890214 1.68596e-20)
(0.996072 -0.0890459 -3.54044e-20)
(0.996079 -0.0890722 2.90808e-20)
(0.996086 -0.0890964 -1.89214e-20)
(0.996093 -0.0891158 1.5707e-20)
(0.9961 -0.0891297 2.4365e-20)
(0.996107 -0.0891417 -5.73796e-20)
(0.996114 -0.0891515 8.0801e-20)
(0.996122 -0.0891591 3.29689e-20)
(0.996131 -0.0891617 -1.3015e-19)
(0.99614 -0.0891605 -2.32541e-20)
(0.99615 -0.0891588 6.59619e-20)
(0.996161 -0.0891569 4.09566e-20)
(0.996172 -0.089159 -4.89006e-20)
(0.996184 -0.0891615 4.14175e-20)
(0.996196 -0.0891688 6.18562e-20)
(0.99621 -0.0891757 -3.062e-20)
(0.996225 -0.0891869 -1.70302e-20)
(0.996242 -0.0891967 5.68567e-20)
(0.996259 -0.0892106 1.12617e-19)
(0.996278 -0.0892222 -8.29902e-20)
(0.9963 -0.0892379 -8.6757e-20)
(0.996323 -0.0892506 9.22697e-20)
(0.996348 -0.0892675 -7.03331e-20)
(0.996377 -0.0892822 -2.60351e-20)
(0.996409 -0.0893002 2.17106e-19)
(0.996446 -0.0893173 -9.26834e-20)
(0.996486 -0.0893355 -6.47122e-20)
(0.996528 -0.0893568 8.77427e-20)
(0.996571 -0.0893729 5.70665e-20)
(0.996614 -0.0893792 -4.93163e-20)
(0.996666 -0.0893875 -3.15448e-20)
(0.996736 -0.0894111 9.23933e-20)
(0.996826 -0.0894442 1.67614e-20)
(0.996931 -0.0894741 2.95063e-20)
(0.997045 -0.0894963 -1.33964e-19)
(0.997168 -0.0895123 -1.16018e-19)
(0.997301 -0.0895233 2.12827e-19)
(0.997445 -0.0895275 1.40701e-19)
(0.997602 -0.0895228 1.9532e-19)
(0.997772 -0.0895039 -1.60453e-19)
(0.997956 -0.0894662 -1.34278e-19)
(0.998154 -0.0894038 -6.05687e-20)
(0.998363 -0.0893054 6.58411e-20)
(0.998589 -0.0891661 -1.3511e-20)
(0.998819 -0.088963 1.03114e-19)
(0.99907 -0.0886899 3.09759e-19)
(0.999319 -0.0883034 4.68468e-20)
(0.99959 -0.0878076 -1.28891e-19)
(0.999882 -0.0871752 5.19378e-21)
(1.00015 -0.0863334 4.71752e-19)
(1.00038 -0.085267 -5.31622e-19)
(1.00065 -0.0838824 -3.32131e-19)
(1.00085 -0.082056 -5.67255e-19)
(1.00123 -0.0798218 2.85466e-18)
(1.00207 -0.0773611 1.95355e-19)
(1.00351 -0.0700851 -1.17905e-19)
(0.996003 -0.0892941 -7.38959e-21)
(0.996006 -0.0893099 -5.77023e-21)
(0.996015 -0.0893257 7.73546e-21)
(0.996026 -0.0893446 2.67105e-20)
(0.996036 -0.0893698 -5.6341e-20)
(0.996044 -0.089399 6.30865e-20)
(0.996053 -0.0894274 -2.88822e-21)
(0.996062 -0.0894506 -3.85309e-21)
(0.996071 -0.0894675 -2.1025e-20)
(0.996081 -0.0894828 4.95767e-20)
(0.99609 -0.0894973 -7.4791e-20)
(0.996099 -0.0895103 2.75907e-20)
(0.996109 -0.0895179 -8.59387e-22)
(0.996119 -0.08952 4.07668e-20)
(0.99613 -0.0895198 1.85995e-20)
(0.996141 -0.0895186 -9.8288e-20)
(0.996153 -0.0895212 8.32888e-20)
(0.996166 -0.0895247 3.14259e-20)
(0.99618 -0.0895333 -8.90133e-20)
(0.996195 -0.0895421 4.28361e-20)
(0.996212 -0.0895555 1.88575e-20)
(0.99623 -0.0895681 -1.29953e-20)
(0.996249 -0.0895852 1.42317e-20)
(0.996271 -0.0896004 -9.13969e-21)
(0.996294 -0.0896202 -9.51535e-20)
(0.99632 -0.0896374 6.00614e-20)
(0.996349 -0.0896591 -8.82391e-20)
(0.996381 -0.0896791 1.58449e-19)
(0.996416 -0.0897025 -3.08383e-20)
(0.996456 -0.089725 -1.75104e-20)
(0.9965 -0.0897478 -5.30238e-21)
(0.996548 -0.089774 1.38722e-19)
(0.996597 -0.0897945 -5.83418e-20)
(0.996649 -0.0898061 -3.42182e-20)
(0.996708 -0.0898219 7.73908e-20)
(0.996786 -0.0898533 6.09158e-20)
(0.996882 -0.0898939 -9.85865e-20)
(0.996993 -0.0899303 1.80123e-20)
(0.997116 -0.0899578 1.60794e-19)
(0.997251 -0.0899784 -1.71722e-20)
(0.997398 -0.0899927 8.74087e-20)
(0.997559 -0.0899987 -1.05503e-19)
(0.997738 -0.0899929 1.48221e-19)
(0.997933 -0.0899686 2.50028e-19)
(0.998148 -0.0899195 4.99742e-20)
(0.998382 -0.0898374 -5.49416e-20)
(0.998633 -0.0897093 -7.27088e-20)
(0.998903 -0.0895287 -5.50713e-21)
(0.999181 -0.0892726 -3.73063e-20)
(0.99948 -0.0889356 -1.21787e-19)
(0.99977 -0.0884774 1.36953e-20)
(1.00008 -0.0879038 5.08618e-19)
(1.0004 -0.0871959 -5.69269e-19)
(1.00069 -0.0862765 4.65029e-19)
(1.00094 -0.085136 -1.11231e-18)
(1.00124 -0.0836744 -2.97696e-19)
(1.00147 -0.0817689 -1.60016e-18)
(1.0019 -0.0794515 -2.40121e-18)
(1.00273 -0.0769415 -4.88272e-19)
(1.00366 -0.0698575 -8.68069e-19)
(0.995961 -0.0896127 -3.60481e-21)
(0.995965 -0.0896318 3.04363e-21)
(0.995977 -0.089649 1.49256e-20)
(0.995991 -0.0896675 2.30617e-20)
(0.996002 -0.0896922 -6.69359e-20)
(0.996011 -0.0897222 3.7672e-20)
(0.99602 -0.0897527 -6.5586e-20)
(0.996029 -0.0897775 1.00362e-19)
(0.99604 -0.0897952 -4.59656e-20)
(0.996051 -0.0898115 7.88291e-21)
(0.996062 -0.0898286 8.37648e-20)
(0.996073 -0.0898462 -1.86423e-19)
(0.996084 -0.089859 1.23992e-19)
(0.996096 -0.0898654 1.6618e-20)
(0.996108 -0.0898679 2.61821e-20)
(0.99612 -0.0898683 -1.08914e-19)
(0.996133 -0.0898721 5.21246e-20)
(0.996147 -0.0898773 -6.2585e-20)
(0.996161 -0.0898881 1.19903e-19)
(0.996177 -0.0898997 -1.6785e-20)
(0.996195 -0.0899164 -1.43925e-19)
(0.996214 -0.0899327 5.57461e-20)
(0.996235 -0.0899538 -3.32951e-21)
(0.996258 -0.0899734 -1.89698e-19)
(0.996284 -0.0899978 1.40891e-19)
(0.996311 -0.0900199 1.01149e-19)
(0.996343 -0.0900468 6.47911e-20)
(0.996377 -0.0900723 -8.28534e-20)
(0.996415 -0.0901013 -8.56642e-20)
(0.996458 -0.0901296 3.90943e-20)
(0.996505 -0.0901581 5.49181e-20)
(0.996556 -0.0901889 -6.36061e-20)
(0.99661 -0.0902148 -8.88509e-20)
(0.996667 -0.0902329 1.85514e-19)
(0.996732 -0.0902558 1.70169e-20)
(0.996814 -0.0902956 -2.44795e-19)
(0.996913 -0.0903447 2.23503e-20)
(0.997027 -0.090389 1.43264e-19)
(0.997153 -0.090424 1.30776e-20)
(0.997292 -0.0904518 1.62987e-19)
(0.997446 -0.0904731 -1.85031e-19)
(0.997617 -0.0904855 -4.48297e-21)
(0.997807 -0.0904845 -9.63706e-20)
(0.998019 -0.0904624 2.92052e-20)
(0.998254 -0.090411 9.92188e-20)
(0.998516 -0.0903198 2.18647e-19)
(0.9988 -0.0901736 3.72488e-21)
(0.999112 -0.0899631 3.3408e-21)
(0.999438 -0.0896641 -7.09795e-20)
(0.999791 -0.08927 -4.73542e-19)
(1.00014 -0.0887415 5.73482e-19)
(1.0005 -0.0880842 -9.35291e-19)
(1.00088 -0.0872859 7.39048e-19)
(1.00122 -0.0862663 4.85363e-19)
(1.00153 -0.0850212 2.27522e-18)
(1.00187 -0.0834512 1.46565e-19)
(1.00214 -0.0814406 9.799e-19)
(1.00261 -0.0790459 1.21838e-18)
(1.00345 -0.0765452 -1.03508e-18)
(1.00367 -0.0698669 -1.15406e-19)
(0.995928 -0.0899219 5.03677e-21)
(0.995933 -0.0899411 1.71212e-21)
(0.995947 -0.0899591 -1.75165e-20)
(0.995962 -0.0899775 1.63471e-20)
(0.995972 -0.0900016 -7.08604e-21)
(0.995979 -0.0900326 1.23342e-20)
(0.995986 -0.0900655 4.07206e-21)
(0.995994 -0.0900926 -5.87053e-20)
(0.996003 -0.0901112 2.50625e-20)
(0.996014 -0.0901276 -1.63656e-20)
(0.996026 -0.0901462 9.93924e-21)
(0.996039 -0.0901675 3.69028e-20)
(0.996053 -0.0901856 -6.84501e-21)
(0.996067 -0.090197 2.12118e-20)
(0.996081 -0.0902032 -8.76205e-20)
(0.996096 -0.0902062 3.33002e-20)
(0.99611 -0.090212 1.41136e-20)
(0.996126 -0.0902195 -3.70727e-20)
(0.996143 -0.0902329 7.1702e-20)
(0.996161 -0.090248 2.23232e-20)
(0.99618 -0.0902683 -2.94768e-21)
(0.996202 -0.0902889 -2.36462e-20)
(0.996226 -0.0903142 9.04494e-20)
(0.996252 -0.0903385 -2.40888e-19)
(0.99628 -0.0903676 1.23383e-19)
(0.996312 -0.0903948 4.97281e-20)
(0.996347 -0.0904268 -7.97304e-20)
(0.996385 -0.0904577 1.35923e-19)
(0.996428 -0.090492 -6.62535e-20)
(0.996475 -0.0905258 -3.17656e-20)
(0.996527 -0.0905591 -5.71995e-20)
(0.996584 -0.090595 -2.09862e-20)
(0.996645 -0.0906253 6.20181e-20)
(0.996708 -0.090648 -1.73645e-19)
(0.996781 -0.0906772 3.17067e-19)
(0.996869 -0.0907235 -2.37739e-20)
(0.996973 -0.0907792 1.38849e-19)
(0.997091 -0.0908299 -3.40501e-19)
(0.997221 -0.0908709 -9.29505e-20)
(0.997364 -0.0909043 5.26248e-21)
(0.997523 -0.0909315 -5.53025e-20)
(0.997699 -0.0909497 1.25842e-21)
(0.997897 -0.0909542 -1.61982e-19)
(0.998118 -0.0909364 4.82407e-20)
(0.998367 -0.0908868 5.33348e-20)
(0.998647 -0.090793 -1.99783e-19)
(0.998955 -0.0906381 1.48578e-19)
(0.999299 -0.0904097 -3.82191e-21)
(0.999665 -0.0900817 -4.85212e-22)
(1.00007 -0.0896456 2.97668e-19)
(1.00047 -0.0890613 -1.85311e-19)
(1.00089 -0.0883326 4.94754e-19)
(1.00133 -0.0874522 -1.20538e-18)
(1.00173 -0.0863381 -3.28122e-19)
(1.0021 -0.0849924 1.42333e-18)
(1.00249 -0.0833237 -6.40361e-19)
(1.0028 -0.0812312 2.07129e-18)
(1.00329 -0.0788096 4.93941e-19)
(1.00415 -0.0763972 3.88688e-18)
(1.00371 -0.070148 1.21263e-18)
(0.995905 -0.0902191 -1.1208e-21)
(0.995911 -0.0902406 -4.30477e-21)
(0.995926 -0.0902615 -3.65273e-21)
(0.995939 -0.0902811 3.46451e-20)
(0.995945 -0.0903054 -1.8858e-20)
(0.995948 -0.0903372 -2.20188e-20)
(0.99595 -0.0903726 -7.97484e-21)
(0.995954 -0.0904025 -3.21375e-20)
(0.99596 -0.0904226 1.9954e-20)
(0.995969 -0.0904392 2.96521e-21)
(0.99598 -0.0904585 1.15677e-21)
(0.995993 -0.0904824 7.76179e-20)
(0.996008 -0.0905048 -5.37712e-20)
(0.996025 -0.090521 -6.33304e-21)
(0.996042 -0.0905311 5.80054e-20)
(0.99606 -0.0905368 -3.13567e-20)
(0.996078 -0.0905446 -1.15886e-20)
(0.996098 -0.0905543 1.83647e-20)
(0.996118 -0.0905706 5.67794e-20)
(0.99614 -0.0905892 2.93628e-20)
(0.996164 -0.0906137 9.24265e-21)
(0.996191 -0.0906389 -7.29008e-20)
(0.996219 -0.090669 3.50279e-20)
(0.996251 -0.0906983 6.42413e-20)
(0.996286 -0.0907324 -1.32782e-19)
(0.996324 -0.0907646 4.00559e-20)
(0.996366 -0.0908015 -1.56462e-19)
(0.996412 -0.0908372 1.23339e-19)
(0.996463 -0.0908763 1.00993e-19)
(0.996519 -0.0909146 -1.54153e-19)
(0.99658 -0.0909522 -6.99441e-20)
(0.996647 -0.0909912 8.79729e-20)
(0.996718 -0.0910247 2.87838e-20)
(0.996793 -0.0910507 -7.09644e-20)
(0.996878 -0.0910827 -8.59014e-20)
(0.996978 -0.0911322 -9.66835e-20)
(0.997093 -0.0911908 6.17137e-20)
(0.997221 -0.0912436 1.33009e-19)
(0.99736 -0.0912859 4.84762e-20)
(0.997512 -0.0913202 -3.15351e-20)
(0.99768 -0.0913478 3.38781e-19)
(0.997865 -0.0913665 -4.03673e-20)
(0.998072 -0.0913716 2.74274e-19)
(0.998303 -0.0913542 -4.07689e-19)
(0.998562 -0.0913045 5.72515e-20)
(0.998854 -0.091209 1.2322e-20)
(0.999178 -0.0910494 -3.03154e-21)
(0.999542 -0.0908114 -9.44525e-21)
(0.999934 -0.0904675 1.34569e-19)
(1.00037 -0.0900068 -2.75975e-19)
(1.00081 -0.0893879 -5.82287e-19)
(1.00128 -0.0886123 -4.28074e-19)
(1.00177 -0.0876761 1.14009e-18)
(1.00223 -0.0864967 -7.42435e-19)
(1.00264 -0.0850823 -2.17993e-18)
(1.00307 -0.083353 -9.3899e-19)
(1.00341 -0.0812233 -2.02074e-18)
(1.00392 -0.0788214 -1.08958e-18)
(1.00482 -0.0765208 -3.4756e-18)
(1.00388 -0.0705857 2.92491e-18)
(0.995888 -0.0905107 1.45259e-21)
(0.995892 -0.0905324 -4.26724e-21)
(0.995903 -0.0905561 1.49106e-20)
(0.995912 -0.0905786 3.76913e-21)
(0.995913 -0.0906045 -1.96085e-20)
(0.99591 -0.0906386 -2.19607e-20)
(0.995908 -0.090678 5.08733e-20)
(0.995907 -0.090713 -5.41043e-20)
(0.995908 -0.0907372 -1.27457e-20)
(0.995913 -0.0907561 3.18394e-20)
(0.995921 -0.0907771 2.85062e-20)
(0.995933 -0.0908036 8.39561e-20)
(0.995947 -0.0908301 -4.68039e-20)
(0.995964 -0.0908511 -7.71435e-20)
(0.995984 -0.0908653 1.66297e-20)
(0.996005 -0.0908741 -5.89186e-20)
(0.996028 -0.090884 4.37835e-20)
(0.996052 -0.0908958 -6.99641e-20)
(0.996078 -0.0909143 1.21668e-20)
(0.996106 -0.0909362 -2.05346e-20)
(0.996136 -0.0909643 -1.18005e-20)
(0.996169 -0.0909937 -5.40934e-20)
(0.996205 -0.0910282 7.02066e-21)
(0.996245 -0.091062 1.14009e-19)
(0.996288 -0.0911007 -3.73202e-20)
(0.996336 -0.0911375 1.21992e-20)
(0.996388 -0.0911788 3.25947e-20)
(0.996445 -0.0912189 -3.92125e-20)
(0.996508 -0.091262 -7.72404e-21)
(0.996576 -0.091304 5.06488e-20)
(0.99665 -0.0913446 5.43878e-20)
(0.996732 -0.0913861 -3.88541e-20)
(0.996818 -0.091421 -1.17839e-19)
(0.996911 -0.0914476 -1.58332e-19)
(0.997014 -0.0914803 2.34626e-19)
(0.997131 -0.0915295 6.21462e-20)
(0.997264 -0.0915869 4.04827e-20)
(0.997409 -0.0916374 1.63575e-19)
(0.997564 -0.0916761 -1.37955e-19)
(0.997733 -0.0917054 8.06663e-20)
(0.997917 -0.091727 -1.82567e-21)
(0.998118 -0.0917391 5.37366e-21)
(0.998339 -0.0917376 -1.00431e-19)
(0.998584 -0.0917138 1.94547e-19)
(0.998855 -0.0916581 -1.95229e-19)
(0.999158 -0.0915569 7.32866e-20)
(0.999493 -0.0913921 -1.321e-19)
(0.99987 -0.0911482 1.49342e-20)
(1.00028 -0.0907971 -6.54639e-20)
(1.00073 -0.0903265 2.72944e-19)
(1.0012 -0.0896938 1.2402e-19)
(1.0017 -0.0888978 5.97948e-20)
(1.00222 -0.087937 1.82289e-19)
(1.0027 -0.086728 7.31192e-19)
(1.00315 -0.0852828 -6.14961e-20)
(1.00361 -0.083532 -7.83579e-19)
(1.00397 -0.0814001 1.04429e-18)
(1.00451 -0.0790344 3.33519e-19)
(1.00547 -0.0768163 5.38404e-19)
(1.00423 -0.0710488 -2.09425e-18)
(0.995865 -0.090807 2.71514e-21)
(0.995862 -0.0908344 -2.25246e-21)
(0.995867 -0.0908643 2.0098e-21)
(0.99587 -0.0908915 1.26047e-20)
(0.995865 -0.09092 1.78674e-20)
(0.995857 -0.0909559 -6.83734e-20)
(0.995849 -0.0909988 4.83128e-20)
(0.995844 -0.0910388 9.72036e-21)
(0.995841 -0.091068 -2.99459e-21)
(0.995842 -0.0910905 -2.02222e-20)
(0.995847 -0.0911141 5.99652e-20)
(0.995855 -0.0911436 -1.93893e-20)
(0.995868 -0.091174 -2.58174e-20)
(0.995885 -0.0911995 -7.41656e-20)
(0.995905 -0.0912178 1.44461e-19)
(0.995928 -0.0912296 -2.97953e-20)
(0.995954 -0.0912415 -2.40439e-20)
(0.995983 -0.0912549 -6.79013e-20)
(0.996014 -0.0912754 7.32169e-20)
(0.996048 -0.0912999 3.86984e-20)
(0.996085 -0.0913311 -1.81028e-20)
(0.996126 -0.0913642 2.81091e-20)
(0.996171 -0.0914027 -1.18749e-19)
(0.99622 -0.0914407 9.21024e-21)
(0.996274 -0.0914835 6.20092e-20)
(0.996332 -0.0915244 -1.12576e-20)
(0.996396 -0.0915696 -1.73143e-19)
(0.996466 -0.0916133 1.83685e-20)
(0.996542 -0.0916598 1.4455e-19)
(0.996626 -0.0917047 -3.69924e-20)
(0.996716 -0.0917478 -6.83443e-20)
(0.996815 -0.0917905 3.808e-20)
(0.99692 -0.0918261 1.05427e-19)
(0.997032 -0.0918527 2.34944e-19)
(0.997156 -0.0918837 -3.55161e-20)
(0.997296 -0.0919305 3.8163e-20)
(0.997451 -0.0919841 -3.03682e-19)
(0.997619 -0.0920291 -7.84787e-20)
(0.997797 -0.0920606 4.57213e-20)
(0.997988 -0.0920805 -1.75467e-19)
(0.998195 -0.092091 -3.36777e-20)
(0.998418 -0.0920909 6.97967e-20)
(0.99866 -0.0920765 4.91381e-20)
(0.998923 -0.0920398 1.07799e-19)
(0.999211 -0.0919721 2.70977e-19)
(0.999528 -0.0918605 -1.44927e-19)
(0.999876 -0.0916875 1.26582e-19)
(1.00026 -0.0914378 7.41727e-21)
(1.00068 -0.0910838 4.98264e-21)
(1.00114 -0.0906126 -2.5552e-19)
(1.00162 -0.0899807 5.5607e-19)
(1.00213 -0.0891842 9.2409e-19)
(1.00267 -0.0882228 -9.21199e-19)
(1.00318 -0.0870116 -9.465e-19)
(1.00365 -0.0855634 4.34902e-19)
(1.00414 -0.0838152 3.0046e-18)
(1.00452 -0.0816945 -8.34407e-19)
(1.0051 -0.0793558 8.59638e-19)
(1.00612 -0.0771733 1.51871e-18)
(1.00472 -0.0714553 -1.47394e-18)
(0.995817 -0.0911275 -2.93684e-21)
(0.995803 -0.091157 3.15678e-21)
(0.9958 -0.0911917 2.09957e-20)
(0.995798 -0.0912243 -2.6871e-20)
(0.995789 -0.0912564 4.76493e-20)
(0.995777 -0.091295 -6.84719e-20)
(0.995767 -0.0913419 1.89789e-20)
(0.99576 -0.091388 -8.4565e-22)
(0.995755 -0.091424 3.98387e-20)
(0.995754 -0.0914525 -2.05775e-20)
(0.995756 -0.0914809 5.85101e-21)
(0.995763 -0.0915147 5.7772e-21)
(0.995773 -0.09155 -8.91829e-20)
(0.995788 -0.0915805 2.64829e-20)
(0.995808 -0.0916034 5.85222e-20)
(0.995831 -0.0916185 1.50606e-21)
(0.995859 -0.0916325 -9.16184e-20)
(0.995891 -0.0916472 3.69471e-20)
(0.995927 -0.0916688 1.63369e-19)
(0.995966 -0.0916948 -1.05103e-19)
(0.99601 -0.0917279 -7.60316e-20)
(0.996058 -0.0917635 6.26165e-20)
(0.996111 -0.0918047 3.82086e-20)
(0.996169 -0.0918457 4.02824e-20)
(0.996233 -0.0918915 -7.77463e-20)
(0.996302 -0.0919357 -1.57839e-19)
(0.996378 -0.0919839 1.18793e-19)
(0.996461 -0.0920306 1.57086e-19)
(0.996551 -0.0920798 3.84942e-20)
(0.996649 -0.0921272 -8.16537e-20)
(0.996756 -0.0921721 3.44272e-20)
(0.996871 -0.0922164 5.38704e-20)
(0.996996 -0.0922521 -9.36318e-20)
(0.997128 -0.0922778 -1.79615e-20)
(0.997274 -0.0923073 -1.45645e-19)
(0.997437 -0.092351 -3.32936e-20)
(0.997616 -0.0923999 -2.74085e-20)
(0.997808 -0.0924386 7.92955e-20)
(0.998012 -0.0924616 -1.0669e-19)
(0.998229 -0.0924709 2.60272e-20)
(0.998462 -0.0924685 4.10818e-20)
(0.998711 -0.0924534 8.13049e-21)
(0.998979 -0.0924229 -1.81801e-19)
(0.999266 -0.0923697 -2.07139e-19)
(0.999576 -0.0922861 -1.38805e-19)
(0.999912 -0.0921602 1.98551e-19)
(1.00028 -0.0919762 -5.39456e-21)
(1.00067 -0.0917193 -6.44846e-21)
(1.0011 -0.0913633 -2.07233e-20)
(1.00157 -0.0908952 2.89305e-19)
(1.00206 -0.0902711 -2.26224e-19)
(1.00259 -0.0894845 -8.45589e-19)
(1.00314 -0.088535 1.05081e-19)
(1.00366 -0.0873355 1.13766e-18)
(1.00416 -0.0858959 -6.41359e-19)
(1.00468 -0.0841561 -6.9935e-19)
(1.0051 -0.0820412 -9.20949e-19)
(1.00571 -0.0797068 -2.30494e-18)
(1.0068 -0.0775172 -2.43479e-18)
(1.00534 -0.0717752 3.32931e-18)
(0.995727 -0.0914872 -2.50062e-21)
(0.995701 -0.0915218 3.54044e-21)
(0.995692 -0.0915622 7.17979e-22)
(0.995688 -0.0916005 1.28644e-20)
(0.995679 -0.0916361 -1.91158e-20)
(0.995667 -0.0916763 -3.81667e-20)
(0.995658 -0.0917251 1.34649e-20)
(0.995653 -0.0917752 -1.71784e-20)
(0.995649 -0.0918169 3.67967e-20)
(0.995649 -0.0918515 -7.1681e-21)
(0.995653 -0.0918853 -2.29258e-20)
(0.99566 -0.0919243 1.86845e-20)
(0.99567 -0.0919649 2.9205e-20)
(0.995684 -0.0920009 7.79096e-20)
(0.995702 -0.0920286 -1.38392e-19)
(0.995725 -0.0920474 6.85609e-20)
(0.995753 -0.0920635 9.66713e-21)
(0.995786 -0.0920794 -6.35181e-20)
(0.995824 -0.0921015 -3.7761e-20)
(0.995867 -0.0921282 1.21297e-19)
(0.995915 -0.0921623 -1.22612e-19)