/*--------------------------------*- C++ -*----------------------------------*\
  =========                 |
  \\      /  F ield         | OpenFOAM: The Open Source CFD Toolbox
   \\    /   O peration     | Website:  https://openfoam.org
    \\  /    A nd           | Version:  6.0
     \\/     M anipulation  |
\*---------------------------------------------------------------------------*/
FoamFile
{
    version     2.0;
    format      ascii;
    class       volScalarField;
    location    "15";
    object      p;
}
// * * * * * * * * * * * * * * * * * * * * * * * * * * * * * * * * * * * * * //

dimensions      [0 2 -2 0 0 0 0];

internalField   nonuniform List<scalar> 
62000
(
0.0305552
0.0307957
0.0310446
0.0312881
0.0315427
0.0317934
0.0320582
0.0323226
0.032605
0.0328898
0.0331978
0.0335134
0.0338586
0.0342174
0.034613
0.0350311
0.0354945
0.0359918
0.0365443
0.0371435
0.0378096
0.0385346
0.0393406
0.0402166
0.0411893
0.0422418
0.0434066
0.0446622
0.0460444
0.0475309
0.0491651
0.0509303
0.052854
0.0548911
0.0570271
0.0592745
0.0616601
0.0641915
0.0668621
0.0696512
0.0725344
0.0754715
0.0784072
0.0812445
0.0838531
0.0860778
0.0877125
0.0886815
0.0887889
0.0883413
0.0872354
0.0860893
0.0852595
0.0840779
0.083251
0.0811896
0.0803239
0.077927
0.0811178
0.0888757
0.029649
0.0298547
0.0300908
0.0303392
0.0306181
0.0309082
0.031228
0.0315586
0.0319183
0.0322871
0.0326849
0.0330924
0.0335304
0.0339801
0.0344637
0.0349645
0.0355053
0.0360728
0.036689
0.0373444
0.0380598
0.0388283
0.0396698
0.0405786
0.041574
0.0426499
0.0438248
0.0450942
0.0464735
0.0479614
0.0495756
0.0513267
0.053219
0.0552193
0.0573086
0.0595029
0.0618303
0.0643039
0.0669192
0.0696639
0.0725214
0.0754665
0.0784554
0.0814047
0.0841973
0.086689
0.0886858
0.0901147
0.0907803
0.0909949
0.0906392
0.0903635
0.090549
0.090502
0.0909474
0.090097
0.0908082
0.0898393
0.0967955
0.104246
0.0291669
0.0293497
0.0295585
0.0297787
0.030027
0.0302875
0.0305782
0.0308827
0.0312197
0.0315698
0.0319556
0.0323548
0.0327944
0.0332484
0.0337485
0.0342669
0.0348377
0.0354349
0.0360913
0.0367854
0.0375466
0.0383585
0.0392463
0.0401985
0.0412364
0.0423525
0.0435643
0.0448703
0.0462814
0.0478019
0.0494413
0.0512172
0.0531277
0.0551466
0.0572516
0.0594615
0.0618043
0.0642921
0.0669222
0.0696819
0.0725573
0.0755262
0.0785452
0.0815298
0.0843595
0.0868835
0.0888956
0.0903042
0.0908865
0.0909328
0.0902978
0.0896172
0.0892896
0.0885717
0.0881821
0.086128
0.0854729
0.0828752
0.0877156
0.0888245
0.0297007
0.0298481
0.0300073
0.0301681
0.030347
0.0305313
0.0307397
0.0309592
0.0312093
0.0314751
0.0317787
0.0321043
0.032476
0.0328758
0.0333301
0.0338199
0.0343724
0.0349683
0.0356336
0.0363497
0.0371414
0.0379912
0.0389221
0.0399196
0.0410039
0.0421645
0.0434185
0.0447631
0.0462095
0.0477616
0.0494266
0.0512211
0.0531459
0.05517
0.0572829
0.0594993
0.0618488
0.0643455
0.0669875
0.0697638
0.0726637
0.0756695
0.07874
0.0817927
0.0847079
0.0873317
0.0894526
0.0909635
0.0916267
0.0917179
0.0910882
0.0904017
0.0900795
0.0894753
0.0892202
0.0872649
0.0864578
0.0835295
0.086754
0.0857313
0.0308449
0.0309
0.030972
0.0310484
0.0311455
0.0312469
0.031372
0.031505
0.0316676
0.0318414
0.0320544
0.0322854
0.0325678
0.0328765
0.0332502
0.0336609
0.0341498
0.0346883
0.0353152
0.0360034
0.0367863
0.0376393
0.0385895
0.0396162
0.0407397
0.0419444
0.0432455
0.0446374
0.0461296
0.0477258
0.0494305
0.0512601
0.0532078
0.0552527
0.0573745
0.0595975
0.0619529
0.0644564
0.0671081
0.0699003
0.0728281
0.0758803
0.0790215
0.082174
0.0852225
0.0880149
0.0903363
0.0920721
0.0929719
0.0933064
0.0929482
0.0926078
0.0928021
0.0930196
0.0939268
0.0933953
0.0939693
0.0922221
0.0957587
0.0949277
0.0318722
0.0318167
0.0317987
0.0318028
0.0318441
0.031904
0.0319977
0.0321064
0.0322469
0.032399
0.0325846
0.0327841
0.0330247
0.033286
0.0336008
0.0339494
0.0343678
0.0348367
0.0353915
0.036013
0.0367339
0.0375342
0.0384421
0.0394381
0.0405437
0.0417413
0.043046
0.0444493
0.0459607
0.0475821
0.0493183
0.0511814
0.0531677
0.0552416
0.0573948
0.0596461
0.0620302
0.0645633
0.0672459
0.0700728
0.0730444
0.076155
0.0793733
0.082625
0.0857961
0.0887305
0.0912033
0.0930771
0.0940776
0.0944439
0.0940513
0.0936656
0.0938844
0.0944526
0.0961018
0.0968325
0.0988223
0.0985908
0.103239
0.101941
0.0323397
0.0322268
0.0321678
0.0321468
0.03218
0.0322494
0.0323693
0.03252
0.0327151
0.0329315
0.0331866
0.0334551
0.0337602
0.0340746
0.0344298
0.0347989
0.0352204
0.0356698
0.0361881
0.0367542
0.0374077
0.0381299
0.0389553
0.0398671
0.0408914
0.0420127
0.0432481
0.04459
0.0460491
0.0476296
0.0493371
0.0511868
0.0531673
0.0552529
0.057421
0.0596973
0.0621141
0.0646856
0.0674108
0.0702856
0.073313
0.0764897
0.0797867
0.0831314
0.0864093
0.0894571
0.0920307
0.0939612
0.0949273
0.0951145
0.0943709
0.0934802
0.0931303
0.0932722
0.0948337
0.0959856
0.0988098
0.099795
0.105541
0.10366
0.0321363
0.032029
0.031978
0.0319693
0.0320217
0.0321202
0.0322813
0.0324879
0.032754
0.0330582
0.0334149
0.0337996
0.0342285
0.0346744
0.0351578
0.0356525
0.0361847
0.0367306
0.0373209
0.0379363
0.0386109
0.0393285
0.0401237
0.0409835
0.0419376
0.0429742
0.0441147
0.0453543
0.0467085
0.048185
0.0497961
0.0515593
0.0534741
0.0555039
0.0576391
0.0598981
0.0623129
0.0648959
0.0676451
0.0705583
0.0736412
0.0768931
0.0802897
0.083765
0.0872085
0.090453
0.0932387
0.0953592
0.0964416
0.09659
0.0955921
0.0942123
0.0931419
0.0925537
0.0935118
0.0945214
0.097594
0.0995066
0.106132
0.104653
0.0315197
0.0314656
0.0314632
0.0314977
0.0315907
0.0317275
0.0319289
0.0321791
0.0324974
0.0328628
0.0332958
0.0337699
0.0343066
0.0348727
0.0354928
0.0361311
0.0368154
0.0375106
0.0382467
0.038994
0.0397846
0.0405944
0.0414572
0.0423557
0.04332
0.0443383
0.0454332
0.0466022
0.0478634
0.0492307
0.0507218
0.0523653
0.0541617
0.0560921
0.0581386
0.0603277
0.0626902
0.0652388
0.0679744
0.0708995
0.0740255
0.0773582
0.0808834
0.0845492
0.088258
0.0918492
0.095056
0.0976467
0.0991968
0.0997302
0.0989547
0.0975664
0.0962294
0.0952012
0.0956763
0.0964225
0.0995219
0.10208
0.109358
0.10933
0.0307403
0.0307506
0.0308053
0.0308901
0.031026
0.0311995
0.0314321
0.03171
0.0320542
0.0324476
0.0329125
0.0334281
0.0340163
0.0346509
0.0353542
0.0360962
0.0368997
0.0377318
0.0386149
0.0395179
0.040464
0.0414248
0.0424262
0.0434457
0.0445079
0.0455967
0.0467316
0.0479076
0.0491434
0.0504534
0.0518622
0.0534032
0.0550926
0.0569078
0.0588484
0.0609389
0.0632149
0.0656942
0.0683845
0.0712979
0.0744566
0.0778791
0.0815679
0.0854929
0.0895778
0.0936781
0.0975341
0.1009
0.103317
0.104727
0.104752
0.103992
0.102998
0.102078
0.10243
0.103093
0.106099
0.109067
0.116711
0.118323
0.0299503
0.0300256
0.0301401
0.0302777
0.0304596
0.0306712
0.030934
0.0312348
0.0315954
0.032
0.0324733
0.0329962
0.0335951
0.0342451
0.0349746
0.0357538
0.0366115
0.0375136
0.0384863
0.0394953
0.0405638
0.0416583
0.0428008
0.0439621
0.0451608
0.0463738
0.0476138
0.04887
0.0501556
0.0514838
0.0528785
0.0543797
0.0560035
0.0577449
0.0595986
0.0616
0.0637892
0.0661922
0.0688276
0.0717206
0.074908
0.0784252
0.0822961
0.0865155
0.0910324
0.0957263
0.100353
0.104671
0.108198
0.110817
0.112071
0.112447
0.112376
0.112103
0.112789
0.113604
0.11655
0.119669
0.127411
0.130134
0.0291682
0.0292999
0.0294658
0.0296503
0.0298734
0.0301206
0.0304125
0.0307359
0.0311115
0.0315248
0.0319992
0.0325188
0.033109
0.0337504
0.0344703
0.0352466
0.0361068
0.0370246
0.0380252
0.03908
0.0402108
0.041386
0.0426252
0.0438973
0.0452165
0.0465545
0.0479176
0.0492876
0.0506716
0.0520759
0.0535223
0.0550477
0.0566764
0.0583957
0.060214
0.0621657
0.0642981
0.066647
0.0692435
0.0721268
0.0753506
0.0789698
0.0830306
0.0875524
0.0925098
0.0978072
0.103225
0.108532
0.113246
0.117199
0.119873
0.121648
0.122788
0.12349
0.124785
0.125956
0.128827
0.131928
0.139507
0.142455
0.028328
0.0285187
0.0287423
0.0289803
0.0292534
0.0295446
0.0298752
0.0302295
0.0306298
0.0310583
0.0315413
0.0320595
0.0326426
0.0332675
0.0339681
0.0347187
0.0355548
0.0364482
0.0374319
0.0384772
0.0396122
0.0408061
0.042082
0.0434086
0.0448001
0.046226
0.0476885
0.0491648
0.050655
0.0521601
0.0536953
0.0552959
0.0569782
0.0587382
0.0605747
0.0625287
0.0646511
0.0669861
0.0695761
0.0724733
0.075746
0.0794679
0.0837051
0.0884967
0.0938392
0.0996617
0.105769
0.111953
0.117737
0.122932
0.126977
0.130158
0.132612
0.134428
0.136512
0.138155
0.141027
0.144011
0.151288
0.153709
0.0274717
0.0277138
0.0279863
0.0282712
0.0285883
0.0289203
0.0292878
0.0296744
0.0301011
0.0305501
0.0310458
0.0315698
0.0321497
0.0327651
0.033447
0.0341742
0.0349799
0.0358411
0.03679
0.0378032
0.0389097
0.0400834
0.0413499
0.0426815
0.0440943
0.0455591
0.0470783
0.0486268
0.050202
0.0517997
0.053431
0.0551242
0.0568972
0.058732
0.0606339
0.0626376
0.0647971
0.0671628
0.0697853
0.0727262
0.0760653
0.0798914
0.0842862
0.0893025
0.0949545
0.101191
0.107844
0.114726
0.121387
0.127621
0.132849
0.137284
0.140927
0.14381
0.146686
0.148865
0.15177
0.154653
0.16155
0.162954
0.0266011
0.026891
0.0272107
0.0275406
0.0279008
0.0282729
0.0286773
0.029097
0.0295524
0.0300249
0.0305389
0.0310742
0.0316592
0.032271
0.0329429
0.0336506
0.0344307
0.0352581
0.0361688
0.0371391
0.0382022
0.0393334
0.0405626
0.0418647
0.0432596
0.0447212
0.0462539
0.0478343
0.0494588
0.0511227
0.0528331
0.0546169
0.0564817
0.058414
0.0604054
0.0624918
0.0647254
0.0671594
0.0698486
0.0728599
0.0762791
0.0802039
0.0847252
0.0899044
0.095768
0.102282
0.109298
0.116659
0.123938
0.130938
0.137078
0.142521
0.147185
0.151026
0.154675
0.157412
0.160466
0.163321
0.169887
0.170135
0.0257335
0.0260624
0.0264189
0.0267845
0.0271788
0.027584
0.02802
0.0284695
0.0289524
0.0294497
0.0299839
0.0305358
0.0311307
0.0317479
0.0324169
0.0331164
0.0338793
0.0346839
0.0355635
0.0364976
0.0375186
0.0386049
0.0397877
0.0410454
0.0424012
0.0438324
0.0453471
0.0469247
0.0485646
0.0502621
0.0520253
0.0538769
0.0558276
0.0578499
0.0599396
0.0621236
0.0644526
0.0669795
0.0697601
0.0728622
0.0763731
0.0803926
0.0850149
0.0903067
0.0963022
0.102978
0.110208
0.117861
0.125542
0.133063
0.139863
0.146071
0.151521
0.156153
0.160482
0.163787
0.167052
0.170007
0.176302
0.175473
0.0247745
0.0251469
0.0255474
0.0259555
0.0263917
0.0268363
0.02731
0.027794
0.0283094
0.0288349
0.029395
0.0299671
0.0305795
0.0312067
0.031882
0.0325789
0.0333344
0.0341223
0.0349798
0.0358834
0.0368687
0.0379133
0.0390512
0.0402619
0.0415713
0.0429599
0.044439
0.0459919
0.0476206
0.0493244
0.0511119
0.0530087
0.0550188
0.0571213
0.0592995
0.0615806
0.0640111
0.0666416
0.0695254
0.0727277
0.0763327
0.0804368
0.0851328
0.0904884
0.0965421
0.10328
0.11059
0.118371
0.126257
0.134083
0.141312
0.148062
0.15413
0.159428
0.164389
0.168267
0.171864
0.175047
0.181206
0.179544
0.0238024
0.0242115
0.0246475
0.0250904
0.0255602
0.0260378
0.0265435
0.0270585
0.027603
0.0281562
0.0287409
0.0293355
0.0299659
0.0306086
0.0312935
0.0319969
0.0327521
0.0335355
0.0343812
0.0352677
0.0362287
0.0372433
0.0383454
0.039516
0.0407826
0.0421279
0.0435662
0.0450838
0.0466867
0.048377
0.0501675
0.0520834
0.0541352
0.0562923
0.0585442
0.0609109
0.0634364
0.0661687
0.069157
0.0724611
0.0761592
0.0803413
0.0850953
0.0904876
0.0965584
0.103299
0.110616
0.118428
0.126406
0.134399
0.141912
0.149052
0.155575
0.161415
0.166934
0.171387
0.17537
0.178899
0.185011
0.182791
0.0227836
0.0232284
0.0237001
0.0241776
0.0246814
0.0251916
0.0257285
0.0262733
0.0268461
0.0274259
0.0280358
0.0286531
0.0293047
0.0299645
0.0306646
0.0313776
0.0321396
0.0329233
0.0337652
0.0346413
0.0355871
0.0365804
0.0376562
0.0387955
0.040027
0.0413347
0.0427344
0.0442156
0.0457865
0.0474535
0.0492316
0.0511511
0.0532193
0.0554149
0.0577192
0.0601544
0.0627614
0.0655853
0.0686701
0.072069
0.0758526
0.0801017
0.084898
0.0903047
0.0963618
0.103066
0.110336
0.118114
0.126099
0.134164
0.141852
0.149273
0.156179
0.162506
0.168566
0.173602
0.178058
0.182028
0.188221
0.185727
0.0217495
0.0222218
0.0227194
0.0232226
0.0237512
0.0242865
0.0248485
0.0254188
0.0260169
0.0266219
0.0272558
0.0278967
0.0285693
0.0292497
0.0299663
0.0306948
0.0314673
0.0322596
0.0331045
0.0339802
0.0349199
0.0359024
0.036962
0.0380801
0.0392859
0.0405642
0.0419321
0.0433806
0.0449206
0.0465606
0.0483196
0.0502285
0.052303
0.0545148
0.0568543
0.0593392
0.0620103
0.0649106
0.0680793
0.0715631
0.0754245
0.0797349
0.0845694
0.0899876
0.0960285
0.102693
0.109913
0.117648
0.125628
0.133741
0.141574
0.149236
0.156454
0.163213
0.169777
0.175396
0.180345
0.184817
0.19115
0.188608
0.0205878
0.0210936
0.0216261
0.0221633
0.0227265
0.0232945
0.0238889
0.0244894
0.0251173
0.0257497
0.026411
0.0270763
0.0277737
0.0284749
0.0292124
0.0299568
0.0307445
0.0315464
0.0323992
0.0332774
0.0342167
0.0351941
0.0362448
0.0373497
0.0385383
0.0397957
0.0411396
0.0425621
0.0440751
0.04569
0.0474269
0.0493219
0.0513877
0.053607
0.0559643
0.058482
0.0612001
0.0641601
0.0673973
0.0709523
0.0748803
0.0792434
0.0841103
0.0895377
0.0955632
0.102192
0.109366
0.117062
0.125033
0.133185
0.141145
0.149026
0.156562
0.163755
0.170834
0.177042
0.182533
0.18755
0.19412
0.191708
0.0194065
0.0199396
0.020498
0.0210611
0.0216496
0.022243
0.0228627
0.0234887
0.0241416
0.0247991
0.0254842
0.0261733
0.0268925
0.0276157
0.0283724
0.0291361
0.0299398
0.0307573
0.0316219
0.0325099
0.0334551
0.0344352
0.0354844
0.0365841
0.0377634
0.039008
0.0403355
0.041739
0.0432313
0.0448244
0.0465414
0.0484179
0.0504747
0.0526884
0.0550531
0.0575892
0.0603385
0.0633425
0.0666335
0.0702476
0.0742341
0.078647
0.0835502
0.0889979
0.0950277
0.101648
0.108811
0.116507
0.124513
0.132741
0.140867
0.148991
0.156831
0.164444
0.172024
0.178815
0.184836
0.19041
0.197238
0.19508
0.0181592
0.0187196
0.0193058
0.0198961
0.0205113
0.0211308
0.0217754
0.0224256
0.0231019
0.0237821
0.0244899
0.0252007
0.0259421
0.0266856
0.0274633
0.0282452
0.0290673
0.0298997
0.0307784
0.0316772
0.0326314
0.0336171
0.0346694
0.0357689
0.0369449
0.0381829
0.0395008
0.0408917
0.0423687
0.0439454
0.0456446
0.047506
0.0495468
0.0517538
0.0541164
0.0566605
0.0594286
0.0624629
0.065794
0.0694546
0.0734897
0.0779468
0.0828858
0.0883612
0.0944093
0.101043
0.108222
0.115951
0.12402
0.132357
0.140663
0.14905
0.157237
0.1653
0.173403
0.180779
0.187353
0.193496
0.200652
0.198823
0.016893
0.0174728
0.0180768
0.0186849
0.0193175
0.0199549
0.0206181
0.0212878
0.021984
0.0226849
0.0234129
0.0241449
0.0249059
0.0256704
0.0264669
0.0272687
0.0281083
0.0289588
0.029853
0.0307666
0.0317328
0.0327286
0.033788
0.0348919
0.0360693
0.0373058
0.0386192
0.0400028
0.04147
0.0430343
0.0447203
0.0465659
0.0485953
0.0507892
0.0531461
0.0556903
0.0584674
0.0615213
0.0648817
0.0685798
0.0726583
0.0771595
0.082142
0.0876608
0.0937535
0.100436
0.107677
0.115489
0.123682
0.13218
0.14073
0.149425
0.157965
0.166478
0.175095
0.183045
0.190146
0.196848
0.204329
0.202874
0.0154823
0.0160881
0.0167202
0.0173557
0.0180165
0.0186807
0.0193704
0.0200648
0.0207855
0.021509
0.0222602
0.0230131
0.0237965
0.0245804
0.0253981
0.0262177
0.0270765
0.0279428
0.0288533
0.0297803
0.0307595
0.0317657
0.0328343
0.0339449
0.0351268
0.0363654
0.0376781
0.0390587
0.0405198
0.0420763
0.0437512
0.0455861
0.0476005
0.0497842
0.0521312
0.0546709
0.0574506
0.0605159
0.0638967
0.0676238
0.071739
0.0762811
0.0813084
0.0868793
0.0930318
0.0997868
0.107117
0.115049
0.123394
0.13209
0.140901
0.149934
0.158877
0.167876
0.177031
0.185556
0.193196
0.200459
0.208322
0.207254
0.0140526
0.0146783
0.0153289
0.015983
0.0166619
0.0173447
0.0180532
0.0187667
0.0195068
0.02025
0.0210201
0.0217927
0.0225943
0.0233978
0.0242331
0.025072
0.0259482
0.0268333
0.0277607
0.0287047
0.0296991
0.0307192
0.0317995
0.0329198
0.0341091
0.0353526
0.0366678
0.0380483
0.0395069
0.0410579
0.0427257
0.0445492
0.0465541
0.0487241
0.0510611
0.0535931
0.0563708
0.0594417
0.0628375
0.0665885
0.0707391
0.0753235
0.0804049
0.0860413
0.0922789
0.0991349
0.106599
0.114691
0.123246
0.132187
0.141323
0.150734
0.160086
0.169572
0.179258
0.188344
0.196499
0.204305
0.212536
0.211865
0.0125385
0.013185
0.0138571
0.0145324
0.0152322
0.0159353
0.0166632
0.0173956
0.0181538
0.0189148
0.0197031
0.0204933
0.0213137
0.0221347
0.0229893
0.0238454
0.0247405
0.025642
0.0265868
0.0275462
0.0285559
0.0295895
0.0306824
0.0318134
0.0330116
0.0342619
0.0355814
0.036964
0.0384219
0.03997
0.0416313
0.0434477
0.04544
0.0476001
0.0499251
0.0524483
0.0552211
0.0582946
0.0617
0.0654711
0.0696521
0.074278
0.0794132
0.0851227
0.0914549
0.0984309
0.106046
0.114326
0.12311
0.132326
0.141792
0.151608
0.161416
0.171421
0.181659
0.191311
0.199991
0.208348
0.216997
0.216706
0.0109903
0.0116497
0.0123333
0.0130205
0.0137321
0.0144481
0.0151897
0.0159373
0.0167114
0.0174895
0.0182947
0.019103
0.0199405
0.0207803
0.0216519
0.022527
0.0234392
0.0243596
0.0253216
0.0262987
0.0273245
0.0283735
0.0294801
0.0306231
0.0318312
0.0330893
0.0344145
0.0358002
0.0372588
0.0388046
0.0404617
0.0422691
0.0442538
0.0464005
0.0487144
0.0512278
0.0539936
0.0570678
0.0604803
0.0642708
0.0684822
0.0731535
0.0783495
0.084144
0.090589
0.0977072
0.105506
0.114006
0.123064
0.132589
0.142444
0.152688
0.162958
0.173482
0.184264
0.19447
0.203657
0.212546
0.221594
0.221684
0.00927526
0.00995539
0.0106625
0.011373
0.0121096
0.0128491
0.0136147
0.0143842
0.0151806
0.0159789
0.0168054
0.0176325
0.0184909
0.0193484
0.0202402
0.021132
0.0220632
0.0229993
0.0239785
0.0249703
0.0260116
0.0270742
0.028194
0.0293484
0.0305666
0.0318329
0.033164
0.0345535
0.0360129
0.0375574
0.0392095
0.0410111
0.0429836
0.0451199
0.0474219
0.0499234
0.0526837
0.0557554
0.0591754
0.0629807
0.067222
0.0719355
0.0771932
0.0830752
0.0896386
0.0969095
0.104901
0.113638
0.122979
0.132835
0.143069
0.153768
0.164537
0.175605
0.18695
0.197719
0.207427
0.216864
0.226359
0.226803
0.00754659
0.00824141
0.00896229
0.00968705
0.0104378
0.0111922
0.0119735
0.0127596
0.0135731
0.014389
0.0152328
0.0160779
0.016953
0.0178286
0.0187367
0.0196465
0.0205942
0.0215483
0.0225441
0.0235531
0.0246103
0.025688
0.0268216
0.0279883
0.0292168
0.0304915
0.0318286
0.0332217
0.0346824
0.0362247
0.037873
0.0396654
0.0416295
0.0437516
0.0460416
0.0485318
0.0512839
0.0543538
0.0577796
0.0616015
0.0658733
0.0706333
0.0759582
0.0819365
0.0886311
0.09607
0.104278
0.113274
0.122933
0.133144
0.143808
0.154971
0.166242
0.177855
0.189756
0.20108
0.211295
0.221266
0.231183
0.231987
0.00573599
0.00644725
0.00718596
0.00792835
0.008697
0.00946894
0.010267
0.0110694
0.0118988
0.0127303
0.0135902
0.0144509
0.0153433
0.0162347
0.0171607
0.0180864
0.0190517
0.0200212
0.0210335
0.0220571
0.0231292
0.0242205
0.025367
0.026545
0.0277834
0.029066
0.0304088
0.0318052
0.033266
0.0348067
0.0364489
0.0382345
0.0401842
0.0422973
0.0445707
0.0470501
0.0497921
0.0528607
0.05629
0.0601277
0.0644273
0.0692326
0.0746225
0.080698
0.0875242
0.0951366
0.103563
0.112828
0.122806
0.13339
0.144472
0.156125
0.167922
0.180096
0.192572
0.204463
0.215202
0.225728
0.236113
0.237249
0.00391315
0.0046331
0.00537933
0.00612992
0.00690695
0.0076885
0.0084976
0.00931248
0.0101555
0.0110018
0.0118766
0.0127532
0.0136602
0.014568
0.0155084
0.0164502
0.0174301
0.0184157
0.0194427
0.0204816
0.0215681
0.022673
0.0238319
0.0250211
0.0262687
0.0275587
0.0289064
0.0303052
0.0317664
0.0333038
0.0349406
0.0367147
0.0386572
0.0407511
0.0430122
0.0454753
0.048208
0.0512719
0.0547064
0.0585587
0.0628893
0.0677415
0.0732024
0.0793795
0.0863481
0.0941434
0.102807
0.112356
0.12268
0.133657
0.145198
0.157337
0.169668
0.182405
0.195451
0.207903
0.219156
0.230222
0.241048
0.242529
0.00192339
0.00266091
0.00342831
0.00419991
0.00500002
0.00580323
0.00663441
0.00746928
0.00833258
0.00919685
0.0100906
0.0109838
0.0119093
0.0128325
0.0137907
0.014747
0.0157433
0.0167425
0.0177843
0.0188359
0.0199354
0.021052
0.0222221
0.023421
0.0246768
0.0259732
0.027325
0.0287259
0.030186
0.0317199
0.033349
0.0351155
0.0370404
0.0391215
0.0413631
0.0438094
0.0465307
0.049589
0.0530264
0.0568916
0.0612507
0.0661474
0.0716766
0.077954
0.0850636
0.0930431
0.101943
0.11178
0.122452
0.133833
0.145825
0.158473
0.17135
0.184662
0.198295
0.211321
0.223107
0.234738
0.246047
0.247846
-3.4079e-05
0.000714636
0.00149212
0.0022741
0.00308449
0.0038986
0.0047416
0.00558915
0.00646572
0.00734393
0.00825108
0.00915853
0.0100967
0.0110342
0.0120046
0.0129752
0.013984
0.0149976
0.0160525
0.0171181
0.0182304
0.0193594
0.0205403
0.0217488
0.023012
0.024314
0.025669
0.0270706
0.0285291
0.0300575
0.0316795
0.0334318
0.0353447
0.037404
0.0396256
0.0420544
0.0447607
0.0478123
0.0512504
0.0551294
0.0595171
0.0644616
0.0700616
0.0764447
0.0837016
0.0918746
0.101022
0.111162
0.122202
0.134006
0.146481
0.15963
0.173062
0.186951
0.201168
0.214763
0.227073
0.239255
0.251019
0.253156
-0.00207054
-0.00130958
-0.000518304
0.000277448
0.00110185
0.00192987
0.00278584
0.00364623
0.00453497
0.00542554
0.00634562
0.00726586
0.00821864
0.00916959
0.0101557
0.0111402
0.0121648
0.013192
0.0142614
0.0153396
0.0164644
0.0176043
0.0187949
0.0200115
0.0212805
0.0225867
0.0239431
0.0253439
0.0267984
0.0283209
0.0299315
0.0316724
0.0335639
0.0356052
0.0378036
0.0402118
0.0429017
0.0459432
0.0493797
0.0532691
0.057683
0.0626719
0.0683403
0.0748267
0.0822291
0.0905949
0.0999893
0.110433
0.121842
0.134078
0.147032
0.160704
0.174694
0.189168
0.203985
0.218161
0.231014
0.243769
0.256028
0.25848
-0.00414209
-0.00337626
-0.00258079
-0.00177859
-0.000947243
-0.0001092
0.000758157
0.00163264
0.0025362
0.00344326
0.00437913
0.00531671
0.00628476
0.00725257
0.00825288
0.00925352
0.0102919
0.0113344
0.012417
0.0135086
0.0146448
0.0157949
0.0169936
0.0182164
0.0194891
0.0207969
0.0221523
0.0235498
0.0249988
0.0265116
0.0281115
0.0298338
0.0317096
0.0337241
0.0359
0.0382846
0.0409549
0.0439833
0.0474162
0.0513151
0.0557555
0.0607907
0.0665302
0.0731244
0.0806781
0.0892445
0.0988952
0.109655
0.121448
0.134135
0.14759
0.16178
0.176339
0.191401
0.206815
0.221565
0.23495
0.248263
0.260987
0.26378
-0.00643697
-0.00564619
-0.00481735
-0.00397976
-0.00310921
-0.00223414
-0.00132949
-0.000424898
0.000508669
0.00143897
0.00239972
0.00335374
0.00434148
0.00532204
0.00633897
0.00735025
0.00840238
0.00945393
0.0105471
0.0116459
0.0127896
0.0139447
0.0151472
0.016372
0.0176446
0.0189505
0.0203016
0.0216928
0.0231326
0.0246345
0.0262183
0.027925
0.0297744
0.0317678
0.0339157
0.0362745
0.0389224
0.0419349
0.045361
0.0492659
0.0537298
0.0588081
0.0646166
0.0713164
0.07902
0.0877856
0.0976913
0.108767
0.120946
0.13409
0.148047
0.162771
0.177896
0.193554
0.209576
0.224913
0.238847
0.252742
0.265966
0.269079
-0.00808183
-0.007309
-0.00650956
-0.0057042
-0.00486947
-0.00402567
-0.0031513
-0.00226972
-0.00135734
-0.000440826
0.000506554
0.00145455
0.00243504
0.00341498
0.0044295
0.00544402
0.00649781
0.00755463
0.00865137
0.00975488
0.0109013
0.0120583
0.0132605
0.0144833
0.0157515
0.0170511
0.0183937
0.0197743
0.0212018
0.022688
0.0242553
0.0259381
0.0277676
0.0297301
0.031851
0.0341819
0.036805
0.039799
0.0432161
0.047126
0.0516135
0.0567366
0.0626169
0.0694266
0.0772856
0.0862575
0.0964268
0.10783
0.120407
0.134021
0.148497
0.163754
0.179458
0.195716
0.212342
0.228255
0.242726
0.257187
0.270884
0.274345
-0.0103994
-0.00959603
-0.00875511
-0.00790498
-0.0070222
-0.00613512
-0.00521877
-0.0043036
-0.00335945
-0.00242019
-0.00144999
-0.000488409
0.000507855
0.0014952
0.00251994
0.00353716
0.00459588
0.00565182
0.00674877
0.00784873
0.00899161
0.0101429
0.0113383
0.0125528
0.0138108
0.015099
0.0164279
0.0177934
0.0192035
0.0206714
0.0222161
0.023878
0.0256769
0.0276145
0.0297046
0.0320065
0.0346031
0.0375764
0.0409816
0.0448934
0.0494017
0.0545673
0.0605177
0.0674359
0.0754491
0.084626
0.0950583
0.106787
0.119764
0.133851
0.148847
0.164651
0.180933
0.197796
0.215036
0.231534
0.246557
0.261607
0.275806
0.279599
-0.0119474
-0.0111621
-0.0103516
-0.00953632
-0.00869246
-0.00784074
-0.00695911
-0.00607193
-0.00515461
-0.00423537
-0.00328576
-0.00233801
-0.00135782
-0.00038075
0.000631052
0.00164018
0.00268866
0.00373761
0.00482564
0.00591792
0.00705121
0.00819247
0.0093758
0.0105771
0.0118198
0.0130911
0.0144015
0.0157467
0.0171356
0.0185798
0.0201015
0.0217341
0.023509
0.0254133
0.027474
0.0297459
0.0323147
0.0352658
0.0386579
0.0425712
0.0471008
0.0523109
0.0583347
0.0653657
0.0735385
0.0829269
0.0936301
0.105695
0.11908
0.13365
0.149179
0.165533
0.182407
0.199881
0.217728
0.234799
0.250362
0.265983
0.280657
0.28481
-0.0142047
-0.013384
-0.012528
-0.0116658
-0.0107735
-0.00987996
-0.00895965
-0.00804331
-0.00710037
-0.00616486
-0.00520057
-0.00424712
-0.00326073
-0.00228504
-0.00127355
-0.000271273
0.000770957
0.00180874
0.00288541
0.00396327
0.00508146
0.00620585
0.00737115
0.00855313
0.00977498
0.0110243
0.012311
0.0136317
0.0149942
0.0164119
0.0179042
0.0195102
0.0212506
0.0231269
0.0251558
0.0273973
0.0299377
0.0328655
0.0362429
0.0401557
0.044705
0.0499586
0.0560548
0.0631977
0.071529
0.0811283
0.092102
0.104502
0.118294
0.133349
0.149411
0.166326
0.183793
0.201881
0.220343
0.237995
0.254111
0.270325
0.2855
0.290004
-0.0155996
-0.0147973
-0.0139743
-0.0131528
-0.0123072
-0.0114589
-0.0105845
-0.00970864
-0.00880567
-0.00790387
-0.00697416
-0.00604852
-0.00509227
-0.0041408
-0.00315614
-0.00217551
-0.00115697
-0.000139022
0.000916071
0.00197426
0.00307111
0.00417433
0.00531666
0.00647494
0.00767124
0.00889397
0.0101524
0.0114436
0.012776
0.0141619
0.0156237
0.0171946
0.0189061
0.0207472
0.0227452
0.024956
0.0274676
0.0303718
0.0337347
0.0376478
0.0422183
0.047518
0.0536904
0.0609493
0.0694444
0.0792609
0.0905129
0.103256
0.117463
0.13301
0.149615
0.167096
0.185171
0.203881
0.22295
0.241168
0.257824
0.274618
0.290269
0.295156
-0.0176632
-0.0168408
-0.0159934
-0.0151485
-0.0142795
-0.0134137
-0.0125235
-0.0116388
-0.0107279
-0.00982484
-0.00889278
-0.00797204
-0.00701845
-0.00607641
-0.00509951
-0.00413311
-0.00312843
-0.00212951
-0.00109414
-5.89425e-05
0.0010138
0.00209112
0.00320618
0.00433612
0.00550248
0.00669435
0.00792037
0.00917816
0.0104757
0.0118272
0.0132522
0.0147903
0.0164633
0.0182731
0.020238
0.0224176
0.0249003
0.0277809
0.031129
0.0350421
0.0396334
0.044979
0.0512273
0.0586022
0.0672604
0.0772941
0.0888243
0.10191
0.11653
0.132568
0.149716
0.167774
0.186459
0.205792
0.225474
0.244265
0.261476
0.27887
0.29502
0.30029
-0.0195786
-0.018745
-0.0178887
-0.0170379
-0.0161639
-0.0152949
-0.0144028
-0.0135183
-0.0126106
-0.0117131
-0.0107919
-0.00988282
-0.0089471
-0.00802278
-0.00706891
-0.00612414
-0.00514467
-0.00416938
-0.00316016
-0.0021505
-0.00110534
-5.6051e-05
0.00102896
0.00212786
0.00326128
0.00441903
0.00560935
0.00683015
0.0080902
0.00940238
0.0107903
0.0122873
0.0139262
0.0156974
0.017629
0.0197765
0.02223
0.0250875
0.0284221
0.032337
0.0369515
0.042346
0.0486741
0.0561695
0.0649962
0.0752537
0.0870698
0.100506
0.115546
0.132081
0.149781
0.168422
0.187733
0.207696
0.227983
0.247331
0.265084
0.283067
0.299696
0.305385
-0.0215553
-0.0207149
-0.0198549
-0.0190015
-0.0181294
-0.0172641
-0.0163792
-0.015503
-0.014605
-0.0137177
-0.0128058
-0.011908
-0.0109818
-0.0100697
-0.00912741
-0.00819828
-0.00723539
-0.00628082
-0.00529435
-0.0043106
-0.00329354
-0.00227444
-0.00122167
-0.000156411
0.000941466
0.00206246
0.00321442
0.00439575
0.00561475
0.00688604
0.00823085
0.00968882
0.0112838
0.0130187
0.0149139
0.0170283
0.0194524
0.0222871
0.0256088
0.0295262
0.0341645
0.0396082
0.0460166
0.0536329
0.0626283
0.0731103
0.085213
0.0989999
0.114457
0.131489
0.14974
0.168975
0.188911
0.209506
0.230402
0.250316
0.268625
0.287217
0.304349
0.310462
-0.0234938
-0.0226512
-0.0217907
-0.0209398
-0.0200704
-0.0192097
-0.0183303
-0.0174617
-0.016574
-0.0156993
-0.0148048
-0.0139249
-0.0130223
-0.0121333
-0.0112189
-0.0103159
-0.00938238
-0.00845547
-0.00749909
-0.00654478
-0.00555935
-0.00457235
-0.00355391
-0.00252402
-0.00146361
-0.000381309
0.000730108
0.00186949
0.00304558
0.00427211
0.00557378
0.00698454
0.00853929
0.010231
0.0120885
0.0141684
0.0165623
0.0193745
0.0226845
0.0266064
0.0312709
0.036767
0.0432598
0.0510023
0.060172
0.0708858
0.0832829
0.097429
0.113311
0.130845
0.149657
0.16949
0.190067
0.2113
0.232797
0.253262
0.272116
0.291311
0.308932
0.315506
-0.0255902
-0.0247486
-0.0238903
-0.0230415
-0.022177
-0.0213224
-0.0204513
-0.0195922
-0.0187143
-0.0178506
-0.0169657
-0.016098
-0.0152057
-0.0143304
-0.0134288
-0.0125433
-0.0116283
-0.0107242
-0.00979298
-0.00886704
-0.00791248
-0.00695844
-0.00597538
-0.00498224
-0.00396083
-0.00291874
-0.00184951
-0.000753585
0.000377207
0.00155822
0.00281167
0.00417807
0.00568372
0.00733324
0.00915008
0.0111936
0.0135565
0.016346
0.0196447
0.0235716
0.028263
0.0338118
0.0403905
0.0482603
0.0576058
0.0685524
0.0812465
0.0957518
0.112058
0.130091
0.149464
0.169907
0.191124
0.212996
0.235098
0.256121
0.275536
0.295353
0.313488
0.32053
-0.0276584
-0.0268215
-0.0259691
-0.0251288
-0.0242724
-0.0234272
-0.0225656
-0.0217173
-0.0208525
-0.0200035
-0.0191378
-0.0182894
-0.0174218
-0.0165706
-0.0156978
-0.0148394
-0.0139547
-0.0130793
-0.0121792
-0.0112838
-0.0103622
-0.00944174
-0.00849469
-0.00753877
-0.00655691
-0.00555583
-0.00452955
-0.00347824
-0.00239321
-0.00126037
-5.38384e-05
0.0012609
0.00272085
0.00432218
0.00609607
0.00810079
0.0104311
0.0131973
0.0164849
0.0204182
0.0251385
0.0307433
0.037412
0.0454149
0.0549417
0.0661298
0.0791284
0.0940036
0.11074
0.129282
0.149223
0.170282
0.192154
0.214669
0.237368
0.258936
0.278902
0.299338
0.317979
0.325524
-0.0298805
-0.0290484
-0.0282031
-0.0273704
-0.0265252
-0.0256924
-0.0248458
-0.0240133
-0.0231647
-0.022332
-0.021481
-0.0206489
-0.0197951
-0.0189603
-0.0181028
-0.0172634
-0.0163986
-0.015547
-0.0146727
-0.0138062
-0.0129158
-0.0120286
-0.0111172
-0.0101986
-0.00925633
-0.00829643
-0.00731336
-0.00630687
-0.00526891
-0.00418391
-0.00302867
-0.00176241
-0.000356145
0.00119717
0.00292503
0.00488864
0.00718456
0.00992632
0.0132023
0.0171417
0.0218914
0.027553
0.0343136
0.0424504
0.052161
0.0635922
0.0769001
0.0921451
0.109315
0.128357
0.148873
0.170559
0.193084
0.21624
0.239539
0.26166
0.282192
0.303265
0.322438
0.330496
-0.0321255
-0.0313005
-0.0304635
-0.0296415
-0.0288068
-0.0279859
-0.0271515
-0.0263325
-0.0254999
-0.0246847
-0.0238555
-0.0230452
-0.0222184
-0.0214093
-0.0205819
-0.0197704
-0.0189365
-0.0181136