/*--------------------------------*- C++ -*----------------------------------*\
  =========                 |
  \\      /  F ield         | OpenFOAM: The Open Source CFD Toolbox
   \\    /   O peration     | Website:  https://openfoam.org
    \\  /    A nd           | Version:  6.0
     \\/     M anipulation  |
\*---------------------------------------------------------------------------*/
FoamFile
{
    version     2.0;
    format      ascii;
    class       surfaceScalarField;
    location    "15";
    object      phi;
}
// * * * * * * * * * * * * * * * * * * * * * * * * * * * * * * * * * * * * * //

dimensions      [0 3 -1 0 0 0 0];

internalField   nonuniform List<scalar> 
123526
(
-0.000107093
2.19934e-05
0.000107472
-0.000106701
2.37896e-05
-0.00010625
2.57337e-05
-0.000105791
2.78382e-05
-0.000105268
3.01163e-05
-0.000104732
3.25824e-05
-0.000104127
3.52521e-05
-0.000103503
3.81423e-05
-0.0001028
4.12706e-05
-0.00010207
4.46571e-05
-0.000101253
4.83242e-05
-0.000100398
5.22951e-05
-9.94441e-05
5.65953e-05
-9.84385e-05
6.12504e-05
-9.73185e-05
6.6292e-05
-9.61325e-05
7.17579e-05
-9.48235e-05
7.76808e-05
-9.34216e-05
8.4093e-05
-9.18775e-05
9.10466e-05
-9.02255e-05
9.85898e-05
-8.84076e-05
0.00010676
-8.64514e-05
0.000115621
-8.43115e-05
0.000125241
-8.19996e-05
0.000135657
-7.94685e-05
0.000146972
-7.67438e-05
0.000159239
-7.37547e-05
0.000172548
-7.05394e-05
0.000186994
-6.70155e-05
0.000202657
-6.32238e-05
0.000219661
-5.90796e-05
0.000238097
-5.46008e-05
0.000258102
-4.97036e-05
0.00027979
-4.43848e-05
0.0003033
-3.86303e-05
0.000328778
-3.23951e-05
0.000356346
-2.56462e-05
0.000386186
-1.83298e-05
0.000418422
-1.03913e-05
0.000453199
-1.79273e-06
0.000490665
7.52442e-06
0.000530923
1.76268e-05
0.000574048
2.85779e-05
0.000620097
4.04432e-05
0.000669046
5.32896e-05
0.000720786
6.71902e-05
0.000775098
8.21687e-05
0.000831607
9.82904e-05
0.000889756
0.000115468
0.00094874
0.000133754
0.00100743
0.000152954
0.00106431
0.000173016
0.00111722
0.000194001
0.00116325
0.000215541
0.0011986
0.000237808
0.00121824
0.000259871
0.00121652
0.000281876
0.0011843
0.000302315
0.00111311
0.000321244
0.000978774
0.000759513
0.000322523
-0.000105491
2.1634e-05
0.000105861
-0.000105112
2.33981e-05
-0.000104673
2.53074e-05
-0.000104223
2.73745e-05
-0.000103705
2.96128e-05
-0.000103175
3.20368e-05
-0.000102573
3.46623e-05
-0.000101951
3.75062e-05
-0.000101251
4.05848e-05
-0.000100527
4.39186e-05
-9.97179e-05
4.75303e-05
-9.8877e-05
5.14416e-05
-9.79435e-05
5.56773e-05
-9.69651e-05
6.02599e-05
-9.58806e-05
6.52211e-05
-9.47382e-05
7.06025e-05
-9.34808e-05
7.64324e-05
-9.21382e-05
8.27356e-05
-9.06605e-05
8.95719e-05
-8.90798e-05
9.69915e-05
-8.73401e-05
0.000105018
-8.54618e-05
0.000113723
-8.34085e-05
0.00012318
-8.11767e-05
0.000133403
-7.87377e-05
0.000144522
-7.60922e-05
0.000156572
-7.31979e-05
0.00016964
-7.00607e-05
0.000183834
-6.66332e-05
0.00019921
-6.29193e-05
0.000215922
-5.88726e-05
0.000234022
-5.44736e-05
0.00025368
-4.96661e-05
0.00027498
-4.4431e-05
0.000298076
-3.87612e-05
0.00032311
-3.26095e-05
0.000350184
-2.59447e-05
0.000379505
-1.87106e-05
0.000411174
-1.08547e-05
0.000445331
-2.33762e-06
0.00048214
6.89713e-06
0.000521683
1.69165e-05
0.000564026
2.77793e-05
0.000609233
3.95429e-05
0.000657279
5.22628e-05
0.000708054
6.5996e-05
0.000761342
8.07527e-05
0.000816785
9.65861e-05
0.000873834
0.00011341
0.0009317
0.000131294
0.000989259
0.000150067
0.00104497
0.000169707
0.00109669
0.000190295
0.00114152
0.000211449
0.0011758
0.000233324
0.00119464
0.00025493
0.00119256
0.000276398
0.00116075
0.000296179
0.00109061
0.000310204
0.000962617
0.000756502
0.000309937
-0.000103835
2.12989e-05
0.000104181
-0.000103485
2.30349e-05
-0.000103078
2.49124e-05
-0.000102659
2.69434e-05
-0.000102175
2.91416e-05
-0.000101672
3.15216e-05
-0.000101096
3.40994e-05
-0.000100496
3.68924e-05
-9.98105e-05
3.99165e-05
-9.90973e-05
4.31926e-05
-9.82916e-05
4.67444e-05
-9.74558e-05
5.0593e-05
-9.65178e-05
5.47631e-05
-9.5544e-05
5.92737e-05
-9.4456e-05
6.41579e-05
-9.3325e-05
6.94593e-05
-9.20742e-05
7.52033e-05
-9.0756e-05
8.14052e-05
-8.9302e-05
8.81341e-05
-8.77619e-05
9.54392e-05
-8.60656e-05
0.000103331
-8.42441e-05
0.000111889
-8.22527e-05
0.000121193
-8.00916e-05
0.00013123
-7.77295e-05
0.000142161
-7.5165e-05
0.000153997
-7.23589e-05
0.00016683
-6.93098e-05
0.000180776
-6.59781e-05
0.000195868
-6.23577e-05
0.000212286
-5.84111e-05
0.000230053
-5.41098e-05
0.000249364
-4.94015e-05
0.000270278
-4.42653e-05
0.000292959
-3.86943e-05
0.00031755
-3.2642e-05
0.000344127
-2.60757e-05
0.000372929
-1.89404e-05
0.000404028
-1.11826e-05
0.000437566
-2.76347e-06
0.000473715
6.37122e-06
0.000512545
1.62826e-05
0.000554111
2.70224e-05
0.00059849
3.8639e-05
0.000645656
5.11774e-05
0.000695501
6.46845e-05
0.000747819
7.9165e-05
0.000802257
9.46737e-05
0.000858285
0.000111138
0.000915119
0.000128652
0.000971646
0.000147067
0.00102634
0.000166373
0.00107705
0.000186649
0.00112102
0.000207483
0.0011545
0.000229001
0.00117304
0.000250199
0.00117089
0.000271126
0.00114003
0.000290459
0.00107101
0.000304415
0.000949039
0.000756769
0.000305374
-0.000102013
2.09683e-05
0.000102356
-0.000101675
2.26843e-05
-0.00010129
2.45386e-05
-0.000100902
2.65428e-05
-0.000100458
2.87094e-05
-0.000100003
3.10526e-05
-9.94814e-05
3.35879e-05
-9.89358e-05
3.63328e-05
-9.83098e-05
3.93023e-05
-9.76493e-05
4.25181e-05
-9.68972e-05
4.6005e-05
-9.61024e-05
4.97841e-05
-9.52056e-05
5.38804e-05
-9.42573e-05
5.83113e-05
-9.31958e-05
6.31103e-05
-9.20768e-05
6.83262e-05
-9.08406e-05
7.39796e-05
-8.95283e-05
8.00792e-05
-8.80842e-05
8.67009e-05
-8.65529e-05
9.38954e-05
-8.48708e-05
0.000101659
-8.30691e-05
0.000110077
-8.1104e-05
0.000119236
-7.89782e-05
0.000129096
-7.6659e-05
0.000139847
-7.41464e-05
0.000151479
-7.14003e-05
0.000164085
-6.84188e-05
0.000177791
-6.51626e-05
0.000192608
-6.16236e-05
0.000208739
-5.77653e-05
0.000226179
-5.35578e-05
0.000245146
-4.89469e-05
0.000265679
-4.3915e-05
0.000287948
-3.84509e-05
0.0003121
-3.25101e-05
0.000338187
-2.60599e-05
0.000366473
-1.90451e-05
0.000397006
-1.14129e-05
0.000429927
-3.12393e-06
0.000465421
5.87267e-06
0.000503546
1.56322e-05
0.000544351
2.62006e-05
0.000587925
3.76214e-05
0.000634244
4.99359e-05
0.0006832
6.31879e-05
0.000734592
7.7386e-05
0.000788077
9.25911e-05
0.000843126
0.000108747
0.000898963
0.000125961
0.000954471
0.00014409
0.00100811
0.000163127
0.00105778
0.000183116
0.00110073
0.000203649
0.00113341
0.000224792
0.00115135
0.000245602
0.00114912
0.000266023
0.00111881
0.000285015
0.00105074
0.000299623
0.000933517
0.000753862
0.000301118
-0.000100534
2.06138e-05
0.000100896
-0.000100174
2.23108e-05
-9.97704e-05
2.41458e-05
-9.93702e-05
2.61295e-05
-9.89216e-05
2.82733e-05
-9.84728e-05
3.05902e-05
-9.79667e-05
3.30948e-05
-9.74507e-05
3.58033e-05
-9.68605e-05
3.87291e-05
-9.62492e-05
4.18937e-05
-9.5546e-05
4.53223e-05
-9.48107e-05
4.90356e-05
-9.39645e-05
5.3059e-05
-9.30737e-05
5.74074e-05
-9.20546e-05
6.21171e-05
-9.09817e-05
6.72401e-05
-8.97745e-05
7.27956e-05
-8.84929e-05
7.87844e-05
-8.70656e-05
8.52921e-05
-8.55518e-05
9.23693e-05
-8.38793e-05
0.0001
-8.20894e-05
0.000108277
-8.01343e-05
0.000117291
-7.80232e-05
0.000126978
-7.57224e-05
0.000137554
-7.32352e-05
0.000148989
-7.05217e-05
0.000161376
-6.7581e-05
0.00017485
-6.43749e-05
0.0001894
-6.08944e-05
0.000205255
-5.71045e-05
0.000222376
-5.29726e-05
0.000241009
-4.84495e-05
0.000261168
-4.35105e-05
0.000283036
-3.81497e-05
0.000306755
-3.23201e-05
0.000332358
-2.59894e-05
0.000360137
-1.91033e-05
0.000390114
-1.16094e-05
0.000422428
-3.46887e-06
0.000457277
5.36725e-06
0.000494708
1.49501e-05
0.000534766
2.53226e-05
0.000577552
3.65272e-05
0.000623039
4.86052e-05
0.000671118
6.16028e-05
0.000721596
7.55339e-05
0.00077413
9.04666e-05
0.000828202
0.000106354
0.000883036
0.00012331
0.000937532
0.000141185
0.000990173
0.000159961
0.0010389
0.000179658
0.00108108
0.000199862
0.00111312
0.000220613
0.00113089
0.000241019
0.00112869
0.000260985
0.00109941
0.000279591
0.00103226
0.000294317
0.000919519
0.000752059
0.000297676
-9.97429e-05
2.02321e-05
0.000100134
-9.9347e-05
2.19021e-05
-9.8902e-05
2.37109e-05
-9.84549e-05
2.56693e-05
-9.79593e-05
2.77883e-05
-9.74631e-05
3.00801e-05
-9.69162e-05
3.25582e-05
-9.63649e-05
3.52376e-05
-9.57523e-05
3.81295e-05
-9.51269e-05
4.12541e-05
-9.44262e-05
4.46363e-05
-9.37002e-05
4.82951e-05
-9.28796e-05
5.22553e-05
-9.20162e-05
5.65294e-05
-9.10367e-05
6.11546e-05
-8.99993e-05
6.61877e-05
-8.88335e-05
7.16449e-05
-8.75853e-05
7.75214e-05
-8.61915e-05
8.39111e-05
-8.47031e-05
9.08671e-05
-8.30531e-05
9.83609e-05
-8.12802e-05
0.000106493
-7.93395e-05
0.00011536
-7.72416e-05
0.000124872
-7.49541e-05
0.000135275
-7.24831e-05
0.000146514
-6.97898e-05
0.000158688
-6.68754e-05
0.000171936
-6.37024e-05
0.000186228
-6.02637e-05
0.000201813
-5.65238e-05
0.000218626
-5.24536e-05
0.000236933
-4.79989e-05
0.000256731
-4.31427e-05
0.000278204
-3.78729e-05
0.000301503
-3.21456e-05
0.000326633
-2.59281e-05
0.000353915
-1.91669e-05
0.000383347
-1.18105e-05
0.000415067
-3.82084e-06
0.000449284
4.84962e-06
0.000486036
1.4251e-05
0.000525365
2.44252e-05
0.000567383
3.54154e-05
0.00061206
4.72648e-05
0.000659289
6.00224e-05
0.000708877
7.37081e-05
0.000760488
8.83929e-05
0.000813603
0.000104037
0.000867457
0.000120751
0.000920957
0.000138375
0.000972597
0.000156885
0.00102038
0.000176265
0.00106167
0.000196123
0.00109308
0.000216457
0.0011104
0.000236464
0.00110825
0.000255995
0.00107954
0.000274181
0.00101337
0.000289077
0.000904199
0.000745384
0.000295053
-9.94182e-05
1.98448e-05
9.98145e-05
-9.90088e-05
2.14792e-05
-9.85402e-05
2.32522e-05
-9.80588e-05
2.51752e-05
-9.75194e-05
2.72597e-05
-9.69702e-05
2.95182e-05
-9.63652e-05
3.19639e-05
-9.57517e-05
3.46112e-05
-9.50782e-05
3.74697e-05
-9.43951e-05
4.05583e-05
-9.36439e-05
4.39014e-05
-9.28772e-05
4.75156e-05
-9.20263e-05
5.14243e-05
-9.11464e-05
5.56362e-05
-9.016e-05
6.0189e-05
-8.91289e-05
6.51427e-05
-8.79756e-05
7.05106e-05
-8.67492e-05
7.62808e-05
-8.53793e-05
8.25567e-05
-8.39186e-05
8.93928e-05
-8.22951e-05
9.67494e-05
-8.05485e-05
0.000104734
-7.86316e-05
0.000113452
-7.65562e-05
0.000122788
-7.42897e-05
0.000133016
-7.18397e-05
0.000144061
-6.91688e-05
0.000156022
-6.62794e-05
0.000169047
-6.31362e-05
0.000183084
-5.97325e-05
0.000198406
-5.60358e-05
0.000214918
-5.20149e-05
0.00023291
-4.76228e-05
0.000252352
-4.28355e-05
0.000273445
-3.76477e-05
0.000296331
-3.20132e-05
0.000321
-2.59002e-05
0.000347797
-1.9256e-05
0.000376698
-1.20302e-05
0.000407837
-4.18599e-06
0.000441436
4.32389e-06
0.000477524
1.355e-05
0.000516137
2.35347e-05
0.000557397
3.43223e-05
0.000601272
4.59577e-05
0.000647651
5.84925e-05
0.000696344
7.19501e-05
0.000747018
8.64029e-05
0.000799161
0.000101813
0.000852015
0.000118284
0.000904514
0.000135649
0.000955185
0.000153873
0.00100207
0.000172922
0.0010427
0.000192416
0.00107359
0.000212343
0.00109079
0.000231956
0.00108872
0.000251095
0.00106098
0.000268877
0.0009958
0.00028415
0.000889714
0.000738388
0.000292661
-9.91413e-05
1.94734e-05
9.95235e-05
-9.87433e-05
2.10688e-05
-9.82818e-05
2.28005e-05
-9.77992e-05
2.46804e-05
-9.72508e-05
2.67211e-05
-9.66812e-05
2.89358e-05
-9.60466e-05
3.13384e-05
-9.53919e-05
3.39436e-05
-9.46713e-05
3.67602e-05
-9.39324e-05
3.98069e-05
-9.31262e-05
4.31076e-05
-9.23008e-05
4.66775e-05
-9.14001e-05
5.05381e-05
-9.04715e-05
5.46945e-05
-8.94513e-05
5.91836e-05
-8.83908e-05
6.40683e-05
-8.72244e-05
6.93574e-05
-8.59903e-05
7.50324e-05
-8.46262e-05
8.1204e-05
-8.31756e-05
8.79284e-05
-8.15707e-05
9.51542e-05
-7.98455e-05
0.000102997
-7.79536e-05
0.000111569
-7.59044e-05
0.00012073
-7.36653e-05
0.000130784
-7.12433e-05
0.000141635
-6.86014e-05
0.000153385
-6.57428e-05
0.000166189
-6.26327e-05
0.000179975
-5.92663e-05
0.000195037
-5.56112e-05
0.000211253
-5.16406e-05
0.000228934
-4.7303e-05
0.000248033
-4.2583e-05
0.00026875
-3.74702e-05
0.000291236
-3.19219e-05
0.000315453
-2.59064e-05
0.000341777
-1.93719e-05
0.000370158
-1.22693e-05
0.00040073
-4.56284e-06
0.000433727
3.7944e-06
0.000469165
1.28544e-05
0.000507078
2.26605e-05
0.000547597
3.32579e-05
0.000590688
4.46929e-05
0.000636238
5.7018e-05
0.000684059
7.02591e-05
0.000733825
8.44862e-05
0.000785027
9.96628e-05
0.000836922
0.000115884
0.000888457
0.000132975
0.000938185
0.000150901
0.000984216
0.000169603
0.00102406
0.000188735
0.00105441
0.000208259
0.00107124
0.000227509
0.00106924
0.000246291
0.00104203
0.000263723
0.000977913
0.000279373
0.000873841
0.000727459
0.000289895
-9.86673e-05
1.91258e-05
9.9023e-05
-9.82961e-05
2.06839e-05
-9.78606e-05
2.23745e-05
-9.74029e-05
2.421e-05
-9.68743e-05
2.62032e-05
-9.63197e-05
2.83683e-05
-9.56907e-05
3.07201e-05
-9.50339e-05
3.32741e-05
-9.42992e-05
3.60391e-05
-9.35388e-05
3.90342e-05
-9.26995e-05
4.22842e-05
-9.18375e-05
4.58031e-05
-9.08922e-05
4.96118e-05
-8.99217e-05
5.37115e-05
-8.88573e-05
5.8139e-05
-8.7761e-05
6.2959e-05
-8.65619e-05
6.81762e-05
-8.53066e-05
7.37638e-05
-8.39281e-05
7.98401e-05
-8.24742e-05
8.64615e-05
-8.08735e-05
9.35649e-05
-7.91609e-05
0.000101273
-7.72875e-05
0.000109704
-7.52621e-05
0.000118697
-7.30507e-05
0.00012858
-7.06593e-05
0.00013924
-6.80507e-05
0.000150781
-6.52273e-05
0.000163366
-6.21555e-05
0.000176903
-5.88301e-05
0.000191709
-5.52211e-05
0.000207634
-5.12996e-05
0.000225011
-4.70213e-05
0.000243769
-4.23648e-05
0.000264121
-3.73259e-05
0.000286213
-3.18605e-05
0.000309989
-2.59382e-05
0.00033585
-1.95083e-05
0.000363723
-1.25227e-05
0.00039374
-4.94667e-06
0.000426148
3.26634e-06
0.00046095
1.21695e-05
0.000498173
2.18072e-05
0.000537958
3.22249e-05
0.000580268
4.34693e-05
0.000624989
5.5593e-05
0.000671935
6.86217e-05
0.000720781
8.2623e-05
0.000771031
9.75586e-05
0.000821949
0.000113517
0.000872516
0.000130318
0.000921321
0.000147927
0.000966519
0.000166278
0.00100575
0.000185048
0.00103564
0.000204193
0.00105235
0.000223102
0.00105041
0.000241583
0.00102404
0.000258706
0.00096099
0.000274528
0.00085878
0.000716898
0.000286461
-9.79493e-05
1.88003e-05
9.82849e-05
-9.7603e-05
2.0325e-05
-9.71967e-05
2.1978e-05
-9.67703e-05
2.37713e-05
-9.62752e-05
2.57183e-05
-9.57526e-05
2.78331e-05
-9.51544e-05
3.01313e-05
-9.45223e-05
3.26294e-05
-9.38076e-05
3.53361e-05
-9.3057e-05
3.82715e-05
-9.22213e-05
4.14617e-05
-9.13509e-05
4.49207e-05
-9.03927e-05
4.8669e-05
-8.93988e-05
5.27054e-05
-8.83109e-05
5.70667e-05
-8.71848e-05
6.182e-05
-8.59605e-05
6.69658e-05
-8.46795e-05
7.24694e-05
-8.32832e-05
7.84555e-05
-8.18155e-05
8.49809e-05
-8.02103e-05
9.19695e-05
-7.84997e-05
9.9551e-05
-7.66366e-05
0.00010785
-7.46281e-05
0.00011668
-7.24399e-05
0.000126399
-7.0077e-05
0.000136873
-6.75013e-05
0.00014821
-6.47149e-05
0.00016058
-6.16834e-05
0.000173872
-5.84025e-05
0.000188426
-5.48414e-05
0.000204063
-5.09747e-05
0.00022114
-4.6754e-05
0.000239566
-4.21648e-05
0.000259557
-3.71992e-05
0.000281264
-3.18159e-05
0.000304607
-2.59848e-05
0.000330014
-1.96564e-05
0.000357389
-1.27836e-05
0.000386862
-5.33263e-06
0.000418693
2.74246e-06
0.000452873
1.14958e-05
0.000489421
2.0972e-05
0.000528487
3.12165e-05
0.000570036
4.22757e-05
0.000613952
5.42007e-05
0.000660049
6.7017e-05
0.000708013
8.07873e-05
0.000757351
9.54737e-05
0.000807349
0.000111156
0.000857001
0.000127655
0.000904927
0.000144942
0.000949332
0.000162938
0.000987837
0.000181358
0.00101723
0.000200141
0.00103359
0.000218743
0.00103169
0.000236959
0.00100572
0.000253814
0.00094381
0.00026957
0.000842897
0.000703848
0.000282345
-9.70342e-05
1.84913e-05
9.73528e-05
-9.6709e-05
1.99864e-05
-9.63273e-05
2.1606e-05
-9.59297e-05
2.33615e-05
-9.54671e-05
2.52659e-05
-9.49797e-05
2.73336e-05
-9.44185e-05
2.958e-05
-9.38234e-05
3.20222e-05
-9.31438e-05
3.46688e-05
-9.24249e-05
3.75408e-05
-9.16149e-05
4.06659e-05
-9.07641e-05
4.4058e-05
-8.98169e-05
4.77385e-05
-8.88275e-05
5.17039e-05
-8.77358e-05
5.59922e-05
-8.66016e-05
6.06732e-05
-8.5364e-05
6.57439e-05
-8.40694e-05
7.11618e-05
-8.26592e-05
7.70584e-05
-8.11808e-05
8.34898e-05
-7.9569e-05
9.0368e-05
-7.78575e-05
9.78282e-05
-7.59997e-05
0.000106
-7.40032e-05
0.000114675
-7.18337e-05
0.000124236
-6.94953e-05
0.000134531
-6.69501e-05
0.000145669
-6.4199e-05
0.000157829
-6.12084e-05
0.000170881
-5.79724e-05
0.000185187
-5.44619e-05
0.000200543
-5.06494e-05
0.000217325
-4.64913e-05
0.000235423
-4.19688e-05
0.000255061
-3.70779e-05
0.000276389
-3.17769e-05
0.000299307
-2.60366e-05
0.000324268
-1.98082e-05
0.000351155
-1.30458e-05
0.000380095
-5.71615e-06
0.00041136
2.22574e-06
0.000444929
1.0834e-05
0.00048081
2.01533e-05
0.000519166
3.02284e-05
0.000559959
4.11043e-05
0.00060307
5.2831e-05
0.00064832
6.54316e-05
0.000695395
7.89658e-05
0.000743816
9.33939e-05
0.000792879
0.000108792
0.000841611
0.000124981
0.00088866
0.000141939
0.000932275
0.000159588
0.00097019
0.000177669
0.000999139
0.00019612
0.00101534
0.000214435
0.00101344
0.000232428
0.000988148
0.00024904
0.000927385
0.000264562
0.000828101
0.000691885
0.000277779
-9.59767e-05
1.81943e-05
9.62853e-05
-9.56654e-05
1.96629e-05
-9.53022e-05
2.12526e-05
-9.49266e-05
2.29743e-05
-9.44913e-05
2.48405e-05
-9.40347e-05
2.68651e-05
-9.35092e-05
2.90635e-05
-9.29516e-05
3.14527e-05
-9.23129e-05
3.40408e-05
-9.1633e-05
3.68496e-05
-9.08629e-05
3.99077e-05
-9.00457e-05
4.32296e-05
-8.91305e-05
4.68371e-05
-8.81637e-05
5.07257e-05
-8.70917e-05
5.49343e-05
-8.59671e-05
5.95365e-05
-8.47367e-05
6.45261e-05
-8.34417e-05
6.98542e-05
-8.2031e-05
7.56584e-05
-8.05489e-05
8.19953e-05
-7.89359e-05
8.87641e-05
-7.72248e-05
9.61061e-05
-7.53722e-05
0.000104155
-7.33855e-05
0.00011268
-7.12317e-05
0.000122089
-6.8915e-05
0.000132211
-6.63974e-05
0.000143156
-6.368e-05
0.000155111
-6.07283e-05
0.00016793
-5.75372e-05
0.000181994
-5.40765e-05
0.000197073
-5.03209e-05
0.000213565
-4.62236e-05
0.000231343
-4.17705e-05
0.000250633
-3.69547e-05
0.000271589
-3.17364e-05
0.00029409
-2.60867e-05
0.000318614
-1.9958e-05
0.00034502
-1.33047e-05
0.000373437
-6.09459e-06
0.000404147
1.71649e-06
0.000437117
1.01821e-05
0.000472346
1.93463e-05
0.000510007
2.92527e-05
0.000550065
3.99452e-05
0.000592399
5.14713e-05
0.000636831
6.38534e-05
0.000683059
7.71463e-05
0.000730608
9.13122e-05
0.000778798
0.000106422
0.000826665
0.000122302
0.000872888
0.00013894
0.000915755
0.000156252
0.00095297
0.000174015
0.000981406
0.000192156
0.000997237
0.000210212
0.000995317
0.000227997
0.000970295
0.000244401
0.000910725
0.000259628
0.000812787
0.000678287
0.000273014
-9.48215e-05
1.79053e-05
9.5119e-05
-9.45221e-05
1.93496e-05
-9.41721e-05
2.09121e-05
-9.38138e-05
2.26032e-05
-9.33982e-05
2.44351e-05
-9.29666e-05
2.6421e-05
-9.2469e-05
2.85759e-05
-9.19451e-05
3.09165e-05
-9.13419e-05
3.34501e-05
-9.07027e-05
3.61984e-05
-8.99721e-05
3.91914e-05
-8.91976e-05
4.24433e-05
-8.83203e-05
4.59767e-05
-8.73918e-05
4.97854e-05
-8.63505e-05
5.39102e-05
-8.52546e-05
5.84285e-05
-8.40447e-05
6.33317e-05
-8.27674e-05
6.85647e-05
-8.13684e-05
7.42721e-05
-7.9896e-05
8.05109e-05
-7.82905e-05
8.71688e-05
-7.65871e-05
9.43921e-05
-7.47436e-05
0.00010232
-7.2769e-05
0.000110698
-7.06314e-05
0.000119958
-6.83353e-05
0.000129911
-6.58441e-05
0.000140669
-6.31584e-05
0.000152426
-6.02447e-05
0.000165016
-5.7097e-05
0.000178844
-5.36862e-05
0.000193652
-4.99852e-05
0.000209862
-4.59512e-05
0.000227323
-4.15661e-05
0.000246274
-3.6826e-05
0.000266865
-3.16906e-05
0.000288956
-2.61318e-05
0.00031305
-2.01024e-05
0.000338985
-1.35578e-05
0.000366888
-6.46609e-06
0.000397052
1.21573e-06
0.000429433
9.53999e-06
0.000464019
1.85498e-05
0.000500995
2.82875e-05
0.000540324
3.87955e-05
0.000581884
5.01198e-05
0.000625502
6.22809e-05
0.000670879
7.53313e-05
0.000717554
8.92334e-05
0.000764852
0.000104056
0.000811843
0.000119633
0.000857225
0.000135959
0.000899324
0.000152954
0.000935944
0.000170417
0.000963918
0.000188275
0.000979521
0.000206087
0.000977563
0.000223683
0.000953036
0.000239904
0.000894675
0.000254854
0.000798524
0.000665996
0.000268277
-9.35967e-05
1.76229e-05
9.38899e-05
-9.3304e-05
1.90442e-05
-9.29636e-05
2.05813e-05
-9.26167e-05
2.22444e-05
-9.22164e-05
2.40448e-05
-9.18031e-05
2.59955e-05
-9.13287e-05
2.81108e-05
-9.08313e-05
3.04071e-05
-9.02603e-05
3.28904e-05
-8.96558e-05
3.55824e-05
-8.89653e-05
3.85136e-05
-8.82312e-05
4.1698e-05
-8.73982e-05
4.51583e-05
-8.6511e-05
4.8887e-05
-8.55124e-05
5.29264e-05
-8.44534e-05
5.73578e-05
-8.32791e-05
6.21706e-05
-8.20308e-05
6.73043e-05
-8.06581e-05
7.29105e-05
-7.92064e-05
7.90474e-05
-7.76197e-05
8.55912e-05
-7.59322e-05
9.26942e-05
-7.41047e-05
0.0001005
-7.21466e-05
0.000108732
-7.00279e-05
0.000117846
-6.7754e-05
0.000127634
-6.52894e-05
0.000138209
-6.26352e-05
0.000149772
-5.97584e-05
0.00016214
-5.66535e-05
0.000175736
-5.3291e-05
0.000190281
-4.96458e-05
0.000206213
-4.56723e-05
0.000223366
-4.13562e-05
0.000241982
-3.66911e-05
0.000262215
-3.16385e-05
0.000283904
-2.61702e-05
0.000307577
-2.02401e-05
0.000333049
-1.38039e-05
0.000360447
-6.83032e-06
0.000390075
7.22679e-07
0.000421879
8.90585e-06
0.000455837
1.77608e-05
0.000492146
2.7329e-05
0.000530768
3.76517e-05
0.000571582
4.8773e-05
0.000614416
6.0713e-05
0.000658982
7.35212e-05
0.000704824
8.71637e-05
0.00075129
0.000101706
0.000797457
0.000116992
0.000842049
0.000133026
0.000883418
0.000149721
0.000919341
0.000166907
0.000946772
0.0001845
0.000961975
0.000202088
0.000959938
0.000219495
0.000935579
0.000235561
0.000878399
0.000250293
0.000783724
0.000652434
0.000263676
-9.23268e-05
1.73454e-05
9.26141e-05
-9.20406e-05
1.87446e-05
-9.17073e-05
2.02576e-05
-9.13693e-05
2.18942e-05
-9.09798e-05
2.36654e-05
-9.058e-05
2.55836e-05
-9.01223e-05
2.76628e-05
-8.96455e-05
2.99185e-05
-8.90993e-05
3.23558e-05
-8.85243e-05
3.4996e-05
-8.78673e-05
3.78697e-05
-8.71713e-05
4.09905e-05
-8.63785e-05
4.43809e-05
-8.5535e-05
4.80318e-05
-8.45796e-05
5.19868e-05
-8.35647e-05
5.6331e-05
-8.24316e-05
6.10519e-05
-8.1223e-05
6.60835e-05
-7.98859e-05
7.15853e-05
-7.84666e-05
7.76164e-05
-7.69087e-05
8.40428e-05
-7.52474e-05
9.10226e-05
-7.3444e-05
9.87047e-05
-7.15094e-05
0.00010679
-6.94149e-05
0.000115758
-6.71666e-05
0.000125382
-6.4731e-05
0.000135778
-6.21092e-05
0.000147151
-5.927e-05
0.000159301
-5.62074e-05
0.000172672
-5.28934e-05
0.000186958
-4.93016e-05
0.000202619
-4.53899e-05
0.000219468
-4.1141e-05
0.000237758
-3.65508e-05
0.00025764
-3.15803e-05
0.000278934
-2.62022e-05
0.000302194
-2.03707e-05
0.000327212
-1.40425e-05
0.000354115
-7.1867e-06
0.000383216
2.38154e-07
0.000414452
8.28063e-06
0.000447792
1.69807e-05
0.000483443
2.63796e-05
0.000521366
3.65171e-05
0.000561438
4.74365e-05
0.000603492
5.9157e-05
0.000647243
7.17277e-05
0.000692248
8.51163e-05
0.000737858
9.93891e-05
0.00078318
0.000114397
0.000826951
0.000130151
0.000867558
0.000146569
0.000902869
0.000163496
0.000929808
0.000180846
0.000944726
0.000198218
0.000942615
0.000215441
0.000918637
0.000231366
0.000862634
0.000245945
0.000769799
0.000640156
0.000259264
-9.10253e-05
1.70728e-05
9.131e-05
-9.07434e-05
1.84505e-05
-9.0416e-05
1.99402e-05
-9.00846e-05
2.15514e-05
-8.9704e-05
2.32949e-05
-8.93144e-05
2.51825e-05
-8.88706e-05
2.72278e-05
-8.84095e-05
2.9446e-05
-8.78839e-05
3.18408e-05
-8.73318e-05
3.44331e-05
-8.67039e-05
3.72536e-05
-8.6039e-05
4.0315e-05
-8.52842e-05
4.36396e-05
-8.44791e-05
4.72162e-05
-8.3568e-05
5.10894e-05
-8.25961e-05
5.53479e-05
-8.15092e-05
5.99772e-05
-8.03437e-05
6.49064e-05
-7.90501e-05
7.03021e-05
-7.76703e-05
7.62252e-05
-7.61504e-05
8.25315e-05
-7.45234e-05
8.93856e-05
-7.27528e-05
9.69414e-05
-7.08489e-05
0.000104879
-6.87849e-05
0.0001137
-6.65674e-05
0.000123161
-6.41644e-05
0.000133379
-6.1578e-05
0.000144565
-5.87775e-05
0.000156501
-5.57584e-05
0.00016965
-5.24923e-05
0.000183683
-4.89553e-05
0.000199079
-4.51033e-05
0.000215632
-4.0922e-05
0.0002336
-3.64056e-05
0.000253138
-3.15165e-05
0.000274046
-2.62278e-05
0.0002969
-2.04944e-05
0.000321473
-1.42736e-05
0.000347889
-7.53519e-06
0.000376475
-2.38113e-07
0.000407154
7.66394e-06
0.000439892
1.62094e-05
0.000474904
2.54394e-05
0.000512147
3.53931e-05
0.000551503
4.61126e-05
0.000592805
5.76179e-05
0.000635777
6.99563e-05
0.000679982
8.31007e-05
0.00072479
9.71156e-05
0.000769313
0.000111861
0.000812314
0.000127359
0.000852196
0.000143517
0.000886801
0.000160201
0.000913167
0.000177321
0.000927656
0.000194487
0.00092543
0.000211518
0.000901564
0.000227315
0.000846652
0.000241789
0.000755256
0.000626764
0.000255012
-8.97051e-05
1.68041e-05
8.99828e-05
-8.94291e-05
1.81606e-05
-8.91071e-05
1.96276e-05
-8.87823e-05
2.12142e-05
-8.84083e-05
2.29309e-05
-8.80273e-05
2.47894e-05
-8.75927e-05
2.68028e-05
-8.71444e-05
2.89858e-05
-8.66329e-05
3.1341e-05
-8.61002e-05
3.38889e-05
-8.54935e-05
3.66602e-05
-8.48565e-05
3.96665e-05
-8.4131e-05
4.29297e-05
-8.33625e-05
4.64362e-05
-8.24888e-05
5.02317e-05
-8.15602e-05
5.44077e-05
-8.05166e-05
5.89479e-05
-7.93975e-05
6.37758e-05
-7.81493e-05
6.90657e-05
-7.68151e-05
7.48797e-05
-7.53388e-05
8.10647e-05
-7.37539e-05
8.7791e-05
-7.20232e-05
9.52183e-05
-7.01576e-05
0.000103006
-6.81308e-05
0.00011168
-6.595e-05
0.000120977
-6.35845e-05
0.000131017
-6.10369e-05
0.000142018
-5.82784e-05
0.000153742
-5.53041e-05
0.000166674
-5.20877e-05
0.000180458
-4.86044e-05
0.000195593
-4.48135e-05
0.000211855
-4.06986e-05
0.000229509
-3.62558e-05
0.00024871
-3.14474e-05
0.000269239
-2.62472e-05
0.000291695
-2.06109e-05
0.000315832
-1.44967e-05
0.000341771
-7.8746e-06
0.00036985
-7.04473e-07
0.000399981
7.05809e-06
0.000432127
1.54505e-05
0.000466509
2.45137e-05
0.000503081
3.42862e-05
0.000541724
4.48102e-05
0.000582277
5.61056e-05
0.000624464
6.82204e-05
0.00066786
8.11303e-05
0.000711838
9.49003e-05
0.000755536
0.000109399
0.000797723
0.000124651
0.00083684
0.000140567
0.000870812
0.000157023
0.000896662
0.000173923
0.000910824
0.000190885
0.000908507
0.000207722
0.000884955
0.000223387
0.000831137
0.00023778
0.000741489
0.000614603
0.000250892
-8.83715e-05
1.65399e-05
8.86471e-05
-8.8099e-05
1.78757e-05
-8.77818e-05
1.93202e-05
-8.74618e-05
2.08827e-05
-8.70942e-05
2.25733e-05
-8.67201e-05
2.44036e-05
-8.62945e-05
2.63863e-05
-8.5856e-05
2.85359e-05
-8.53577e-05
3.08537e-05
-8.48394e-05
3.33598e-05
-8.42519e-05
3.6085e-05
-8.36358e-05
3.90399e-05
-8.29377e-05
4.22456e-05
-8.21982e-05
4.56863e-05
-8.13605e-05
4.94081e-05
-8.04692e-05
5.35056e-05
-7.94685e-05
5.79598e-05
-7.83932e-05
6.26893e-05
-7.71921e-05
6.78751e-05
-7.59044e-05
7.35811e-05
-7.44757e-05
7.96447e-05
-7.29371e-05
8.62427e-05
-7.12519e-05
9.35404e-05
-6.94303e-05
0.000101177
-6.74467e-05
0.000109702
-6.53083e-05
0.000118836
-6.29854e-05
0.000128698
-6.04813e-05
0.000139514
-5.77678e-05
0.000151029
-5.48414e-05
0.000163746
-5.16758e-05
0.000177284
-4.82486e-05
0.000192162
-4.4518e-05
0.000208139
-4.04703e-05
0.000225484
-3.61005e-05
0.000244354
-3.13722e-05
0.000264511
-2.62597e-05
0.000286578
-2.07197e-05
0.000310286
-1.47109e-05
0.000335758
-8.20413e-06
0.00036334
-1.16006e-06
0.000392937
6.46435e-06
0.000424505
1.47057e-05
0.000458273
2.36047e-05
0.000494194
3.32001e-05
0.000532147
4.35335e-05
0.000571974
5.4626e-05
0.000613408
6.65251e-05
0.000656027
7.9212e-05
0.000699224
9.27495e-05
0.000742137
0.000107016
0.000783565
0.000122041
0.000821955
0.000137727
0.000855212
0.000153964
0.000880468
0.000170649
0.000894186
0.000187411
0.00089174
0.000204044
0.000868286
0.000219573
0.000815444
0.000233884
0.000727104
0.000601481
0.000246844
-8.70344e-05
1.62795e-05
8.7305e-05
-8.67666e-05
1.75947e-05
-8.6454e-05
1.90172e-05
-8.6139e-05
2.0556e-05
-8.57768e-05
2.22211e-05
-8.54085e-05
2.40239e-05
-8.49897e-05
2.59768e-05
-8.45593e-05
2.80942e-05
-8.40707e-05
3.03762e-05
-8.35647e-05
3.28427e-05
-8.29917e-05
3.55245e-05
-8.23941e-05
3.84311e-05
-8.17169e-05
4.1583e-05
-8.10036e-05
4.49619e-05
-8.01949e-05
4.86143e-05
-7.93381e-05
5.26375e-05
-7.83748e-05
5.70099e-05
-7.73414e-05
6.16444e-05
-7.61844e-05
6.67292e-05
-7.49436e-05
7.23294e-05
-7.35631e-05
7.8273e-05
-7.20733e-05
8.47434e-05
-7.04371e-05
9.19114e-05
-6.8664e-05
9.93974e-05
-6.67285e-05
0.000107773
-6.46374e-05
0.000116742
-6.23621e-05
0.000126427
-5.99056e-05
0.000137058
-5.72413e-05
0.000148365
-5.43656e-05
0.000160868
-5.12538e-05
0.000174164
-4.78833e-05
0.00018879
-4.42152e-05
0.000204484
-4.02346e-05
0.000221526
-3.5938e-05
0.000240071
-3.12895e-05
0.000259863
-2.6264e-05
0.000281548
-2.08191e-05
0.000304837
-1.49146e-05
0.00032985
-8.52163e-06
0.000356945
-1.60195e-06
0.000386016
5.88651e-06
0.000417015
1.39799e-05
0.000450178
2.27187e-05
0.000485452
3.21417e-05
0.000522719
4.22909e-05
0.000561821
5.3188e-05
0.000602494
6.48814e-05
0.000644326
7.73551e-05
0.000686709
9.06723e-05
0.00072881
0.000104718
0.000769427
0.000119524
0.000807047
0.00013499
0.00083966
0.000151014
0.000864385
0.000167489
0.000877755
0.000184045
0.000875216
0.000200468
0.000852054
0.000215846
0.000800213
0.00023006
0.000713491
0.000589584
0.000242839
-8.56964e-05
1.60237e-05
8.59649e-05
-8.5432e-05
1.73186e-05
-8.51241e-05
1.87193e-05
-8.48136e-05
2.02346e-05
-8.44571e-05
2.18745e-05
-8.40945e-05
2.36502e-05
-8.3683e-05
2.55741e-05
-8.32597e-05
2.76601e-05
-8.27807e-05
2.99075e-05
-8.22842e-05
3.23359e-05
-8.17245e-05
3.49762e-05
-8.11404e-05
3.78369e-05
-8.04823e-05
4.09379e-05
-7.97889e-05
4.42585e-05
-7.90067e-05
4.78452e-05
-7.8178e-05
5.17982e-05
-7.72491e-05
5.60928e-05
-7.62523e-05
6.06367e-05
-7.51374e-05
6.56242e-05
-7.39405e-05
7.11218e-05
-7.26075e-05
7.69482e-05
-7.11664e-05
8.3293e-05
-6.95805e-05
9.03325e-05
-6.78582e-05
9.76683e-05
-6.5974e-05
0.000105895
-6.39342e-05
0.000114699
-6.17103e-05
0.000124207
-5.93057e-05
0.000134654
-5.66941e-05
0.000145754
-5.38726e-05
0.000158045
-5.08166e-05
0.0001711
-4.75059e-05
0.000185476
-4.39008e-05
0.000200893
-3.99889e-05
0.000217636
-3.57658e-05
0.000235862
-3.11969e-05
0.000255295
-2.62579e-05
0.000276604
-2.09073e-05
0.000299481
-1.51057e-05
0.000324044
-8.82519e-06
0.000350662
-2.02815e-06
0.000379219
5.32674e-06
0.000409662
1.32755e-05
0.000442235
2.18582e-05
0.000476881
3.11143e-05
0.00051348
4.10855e-05
0.000551879
5.1795e-05
0.000591819
6.32907e-05
0.000632892
7.55618e-05
0.000674508
8.86683e-05
0.000715834
0.000102504
0.000755698
0.000117104