/*--------------------------------*- C++ -*----------------------------------*\
  =========                 |
  \\      /  F ield         | OpenFOAM: The Open Source CFD Toolbox
   \\    /   O peration     | Website:  https://openfoam.org
    \\  /    A nd           | Version:  6.0
     \\/     M anipulation  |
\*---------------------------------------------------------------------------*/
FoamFile
{
    version     2.0;
    format      ascii;
    class       volScalarField;
    location    "17";
    object      p;
}
// * * * * * * * * * * * * * * * * * * * * * * * * * * * * * * * * * * * * * //

dimensions      [0 2 -2 0 0 0 0];

internalField   nonuniform List<scalar> 
62000
(
0.017458
0.0174723
0.0174883
0.0175061
0.0175261
0.0175481
0.0175727
0.0175997
0.0176298
0.0176625
0.0176987
0.0177379
0.0177811
0.0178275
0.0178784
0.0179329
0.0179925
0.0180563
0.0181259
0.0182001
0.0182808
0.0183669
0.0184597
0.0185587
0.0186644
0.0187754
0.0188916
0.0190129
0.0191399
0.0192733
0.0194133
0.0195604
0.0197159
0.0198818
0.0200616
0.0202574
0.020471
0.0207047
0.0209606
0.0212398
0.0215412
0.0218608
0.0221891
0.0225113
0.0228051
0.0230414
0.0231894
0.0232069
0.0230669
0.0227189
0.022146
0.0213082
0.0202123
0.0189342
0.0175095
0.0160046
0.0145337
0.0128143
0.0118689
0.0127742
0.0175114
0.0175217
0.0175341
0.0175487
0.0175658
0.0175851
0.0176073
0.0176321
0.0176601
0.017691
0.0177256
0.0177633
0.017805
0.0178501
0.0178998
0.0179531
0.0180114
0.0180739
0.0181419
0.0182146
0.0182935
0.0183779
0.0184692
0.0185669
0.0186717
0.0187823
0.0188985
0.0190204
0.0191486
0.019284
0.0194274
0.0195799
0.019743
0.0199201
0.0201141
0.0203276
0.0205634
0.0208249
0.0211158
0.0214389
0.0217952
0.022183
0.0225955
0.023021
0.0234402
0.0238265
0.0241511
0.0243726
0.0244628
0.0243656
0.0240548
0.023471
0.0226006
0.0214911
0.0201624
0.018668
0.0171557
0.0152729
0.0146416
0.0146905
0.0175804
0.0175887
0.0175989
0.0176108
0.0176249
0.017641
0.0176599
0.0176812
0.0177059
0.0177336
0.0177651
0.0178001
0.0178394
0.0178824
0.0179302
0.017982
0.0180391
0.0181004
0.0181674
0.0182391
0.0183171
0.0184005
0.0184908
0.0185874
0.0186908
0.0187996
0.0189133
0.0190318
0.0191558
0.0192857
0.0194226
0.0195674
0.0197221
0.0198888
0.0200699
0.0202669
0.0204822
0.0207191
0.0209807
0.0212694
0.0215856
0.0219277
0.0222891
0.0226581
0.023016
0.0233369
0.0235935
0.0237471
0.0237715
0.0236143
0.0232488
0.022611
0.0216762
0.0204599
0.0189696
0.0172684
0.0155521
0.0135884
0.0129843
0.0124835
0.0176819
0.0176904
0.0177003
0.0177114
0.0177243
0.0177386
0.0177552
0.0177736
0.017795
0.0178189
0.0178464
0.017877
0.0179121
0.0179508
0.0179946
0.0180424
0.0180957
0.0181533
0.0182168
0.0182851
0.0183599
0.0184401
0.0185274
0.0186211
0.0187214
0.0188267
0.0189364
0.0190503
0.0191687
0.0192921
0.0194214
0.019558
0.0197032
0.019859
0.0200265
0.0202069
0.0204024
0.0206158
0.0208499
0.0211063
0.0213858
0.0216868
0.0220032
0.022324
0.0226318
0.0229028
0.023113
0.0232296
0.0232342
0.0230845
0.0227645
0.0222133
0.0213992
0.0203
0.0189
0.0172442
0.0155335
0.0136096
0.0129473
0.0126964
0.017813
0.0178202
0.0178286
0.0178381
0.0178493
0.0178617
0.0178762
0.0178922
0.0179108
0.0179315
0.0179555
0.0179822
0.0180129
0.0180471
0.0180859
0.0181287
0.0181767
0.0182291
0.0182874
0.0183504
0.0184199
0.0184949
0.018577
0.0186656
0.0187608
0.018861
0.0189655
0.0190738
0.0191861
0.0193029
0.019425
0.0195536
0.0196903
0.0198362
0.0199924
0.02016
0.0203407
0.020537
0.0207511
0.0209849
0.0212393
0.0215133
0.0218013
0.0220929
0.0223714
0.0226142
0.0228002
0.0229018
0.0229092
0.0227942
0.0225566
0.0221503
0.0215451
0.0206922
0.0195404
0.0180958
0.0165165
0.0146231
0.0138325
0.0135139
0.017966
0.0179687
0.0179726
0.0179779
0.017985
0.0179937
0.0180046
0.0180173
0.0180327
0.0180503
0.0180711
0.0180944
0.0181217
0.018152
0.0181869
0.0182253
0.0182688
0.0183163
0.0183693
0.0184269
0.0184906
0.0185595
0.0186354
0.0187176
0.0188063
0.0188999
0.0189979
0.0190993
0.0192045
0.0193136
0.0194272
0.0195463
0.019672
0.0198058
0.0199486
0.0201012
0.0202649
0.0204413
0.0206319
0.0208382
0.0210613
0.0213001
0.0215486
0.0217954
0.0220224
0.0222059
0.0223234
0.0223492
0.0222784
0.0220944
0.0218167
0.0214209
0.020895
0.0201826
0.0192197
0.0179777
0.0165708
0.0147701
0.0139217
0.0134189
0.0181438
0.0181412
0.0181396
0.0181391
0.0181405
0.0181434
0.0181488
0.0181561
0.0181665
0.0181793
0.0181955
0.0182144
0.0182372
0.0182632
0.0182935
0.0183273
0.0183659
0.0184083
0.0184561
0.018508
0.0185659
0.0186287
0.018698
0.0187733
0.0188549
0.0189412
0.0190319
0.0191259
0.0192235
0.0193246
0.0194297
0.0195392
0.0196545
0.0197768
0.0199074
0.0200473
0.0201969
0.020357
0.0205285
0.0207131
0.0209124
0.0211252
0.0213447
0.0215578
0.0217437
0.0218745
0.0219228
0.0218586
0.0216747
0.0213598
0.0209468
0.0204356
0.019841
0.0191239
0.0182289
0.0171229
0.0158916
0.014278
0.013477
0.0130372
0.018324
0.0183187
0.0183135
0.0183089
0.0183055
0.0183033
0.0183031
0.0183047
0.0183092
0.018316
0.0183264
0.0183395
0.0183569
0.0183773
0.0184024
0.0184308
0.0184642
0.0185011
0.0185433
0.0185896
0.0186415
0.0186981
0.018761
0.0188294
0.018904
0.0189832
0.0190667
0.0191538
0.0192447
0.0193394
0.019438
0.0195413
0.0196503
0.0197669
0.0198927
0.0200289
0.0201758
0.0203336
0.0205038
0.0206891
0.0208924
0.0211132
0.0213454
0.0215747
0.0217781
0.0219235
0.0219764
0.0218985
0.0216737
0.0212861
0.0207725
0.0201468
0.0194494
0.0186625
0.017757
0.0167102
0.015596
0.0141405
0.0133457
0.0130052
0.0184911
0.0184866
0.0184813
0.0184756
0.0184703
0.018465
0.018461
0.0184581
0.0184574
0.0184585
0.0184629
0.0184698
0.0184807
0.0184947
0.0185132
0.0185351
0.018562
0.0185926
0.0186284
0.0186684
0.0187141
0.0187645
0.0188211
0.0188832
0.0189513
0.0190242
0.0191015
0.0191827
0.0192682
0.0193581
0.0194529
0.0195531
0.0196605
0.0197769
0.0199047
0.0200453
0.020199
0.0203666
0.0205509
0.0207568
0.0209898
0.021252
0.0215391
0.0218383
0.0221263
0.0223685
0.0225243
0.0225454
0.0224025
0.0220667
0.021566
0.0209154
0.0201663
0.0193176
0.018361
0.0172911
0.0161694
0.0147105
0.0137384
0.0132256
0.0186243
0.0186227
0.0186195
0.0186151
0.0186102
0.0186044
0.0185991
0.0185938
0.01859
0.0185873
0.0185871
0.018589
0.0185945
0.0186028
0.0186154
0.0186313
0.0186521
0.0186765
0.0187063
0.0187401
0.0187799
0.0188244
0.0188753
0.0189317
0.0189942
0.0190616
0.0191336
0.0192095
0.0192901
0.0193756
0.0194667
0.0195645
0.0196705
0.019787
0.0199165
0.0200604
0.0202192
0.0203947
0.0205912
0.0208167
0.02108
0.0213865
0.0217354
0.0221174
0.0225122
0.0228856
0.0231941
0.0233818
0.023406
0.0232207
0.0228376
0.0222586
0.0215325
0.020658
0.0196392
0.0184798
0.0172295
0.0155901
0.0142584
0.0132793
0.0187256
0.0187267
0.0187259
0.0187234
0.0187199
0.0187149
0.0187097
0.0187038
0.0186987
0.018694
0.0186911
0.0186897
0.0186912
0.018695
0.0187028
0.0187135
0.0187289
0.0187477
0.0187719
0.0188002
0.0188345
0.0188738
0.0189197
0.0189712
0.0190291
0.0190917
0.0191587
0.0192292
0.019304
0.0193834
0.0194684
0.0195601
0.0196601
0.0197704
0.0198929
0.0200288
0.0201785
0.0203443
0.0205326
0.0207536
0.0210197
0.0213402
0.0217185
0.0221505
0.0226208
0.0230997
0.0235444
0.0238959
0.024101
0.0240983
0.0238792
0.0234268
0.0227747
0.0219112
0.0208377
0.0195636
0.0181251
0.0162198
0.0144567
0.0129054
0.0187919
0.0187936
0.0187935
0.0187918
0.0187889
0.0187847
0.0187799
0.0187743
0.0187691
0.0187638
0.01876
0.0187571
0.0187568
0.0187583
0.0187635
0.0187711
0.0187832
0.0187985
0.0188189
0.0188432
0.0188735
0.0189087
0.0189505
0.0189981
0.0190518
0.01911
0.0191718
0.0192362
0.0193033
0.0193735
0.019448
0.0195277
0.0196138
0.0197075
0.0198099
0.019921
0.0200407
0.0201715
0.0203208
0.0205009
0.0207265
0.0210103
0.0213599
0.0217769
0.0222527
0.0227644
0.0232744
0.0237256
0.0240603
0.0242064
0.0241387
0.0238194
0.0232642
0.0224413
0.021344
0.0199799
0.0183783
0.0162378
0.014101
0.0120685
0.0188291
0.0188284
0.0188267
0.0188239
0.0188204
0.0188159
0.0188111
0.0188058
0.0188009
0.0187961
0.0187925
0.0187898
0.0187893
0.0187904
0.0187947
0.0188013
0.0188119
0.0188254
0.0188437
0.0188657
0.0188934
0.0189258
0.0189646
0.0190089
0.0190591
0.0191129
0.0191691
0.0192259
0.0192833
0.0193411
0.0194005
0.019462
0.0195262
0.0195931
0.0196624
0.0197328
0.0198028
0.0198747
0.0199561
0.0200602
0.0202035
0.0204009
0.0206635
0.0209982
0.0214037
0.0218654
0.0223538
0.0228183
0.0232024
0.0234301
0.0234646
0.0232531
0.0227921
0.022031
0.02095
0.0195559
0.0178721
0.0156069
0.0132315
0.0109105
0.0188371
0.0188317
0.0188259
0.0188198
0.0188137
0.0188073
0.0188015
0.0187957
0.018791
0.0187868
0.0187843
0.0187829
0.0187839
0.0187865
0.0187923
0.0188001
0.0188117
0.0188257
0.0188442
0.0188658
0.0188926
0.0189235
0.0189604
0.0190022
0.019049
0.0190984
0.0191485
0.0191968
0.0192428
0.0192859
0.0193267
0.0193656
0.0194021
0.019435
0.0194625
0.0194816
0.0194891
0.0194867
0.0194813
0.0194863
0.0195184
0.0195936
0.0197255
0.0199254
0.0201985
0.0205389
0.020927
0.0213218
0.0216733
0.0219076
0.0219843
0.0218406
0.0214609
0.0207761
0.0197549
0.0184016
0.0167373
0.0144783
0.0120151
0.00960403
0.0188216
0.0188107
0.0188002
0.0187898
0.0187804
0.0187714
0.0187636
0.0187567
0.0187516
0.0187477
0.0187461
0.0187462
0.0187491
0.0187539
0.0187619
0.018772
0.0187857
0.0188018
0.0188217
0.0188444
0.0188716
0.0189023
0.0189381
0.018978
0.0190219
0.0190671
0.0191109
0.0191503
0.0191842
0.0192114
0.0192325
0.0192468
0.0192534
0.0192496
0.0192322
0.0191965
0.0191379
0.0190566
0.0189589
0.0188573
0.0187678
0.0187065
0.0186885
0.0187279
0.0188355
0.0190132
0.0192512
0.0195196
0.019778
0.0199598
0.0200259
0.0199116
0.0195929
0.018989
0.0180586
0.0168051
0.015245
0.0131006
0.0106687
0.0083158
0.0187819
0.0187659
0.0187507
0.0187364
0.0187235
0.0187117
0.0187019
0.0186936
0.0186878
0.0186839
0.0186831
0.0186845
0.0186894
0.0186967
0.0187077
0.0187209
0.0187379
0.018757
0.0187797
0.0188047
0.0188336
0.018865
0.0189006
0.0189392
0.0189806
0.0190219
0.0190597
0.0190905
0.0191126
0.0191246
0.0191264
0.0191171
0.0190948
0.0190559
0.018996
0.0189089
0.0187886
0.018634
0.0184503
0.0182485
0.0180434
0.0178504
0.0176844
0.0175615
0.0174961
0.0174968
0.0175627
0.0176751
0.0178043
0.017894
0.0179118
0.0177949
0.0175186
0.016993
0.0161705
0.0150524
0.0136492
0.011682
0.00935257
0.00713978
0.018726
0.0187058
0.018687
0.0186696
0.0186541
0.0186402
0.0186287
0.0186194
0.0186131
0.0186093
0.0186091
0.0186118
0.0186183
0.0186279
0.0186415
0.0186577
0.0186777
0.0187
0.0187257
0.0187534
0.0187843
0.0188171
0.018853
0.0188908
0.0189302
0.0189681
0.0190005
0.0190236
0.0190352
0.0190335
0.0190184
0.0189881
0.0189407
0.0188716
0.0187754
0.018645
0.0184732
0.0182576
0.0180024
0.017717
0.0174146
0.017109
0.0168145
0.0165476
0.0163251
0.0161602
0.0160592
0.0160135
0.0160039
0.0159853
0.0159334
0.0157927
0.0155393
0.0150803
0.0143634
0.0133894
0.012158
0.0103852
0.00818152
0.00613308
0.0186639
0.0186406
0.0186188
0.0185988
0.0185809
0.0185652
0.0185523
0.018542
0.0185351
0.0185314
0.0185318
0.0185356
0.0185438
0.0185555
0.0185716
0.0185907
0.0186138
0.0186392
0.018668
0.0186985
0.0187316
0.0187659
0.0188024
0.0188396
0.0188774
0.0189125
0.0189403
0.0189569
0.0189597
0.0189469
0.0189178
0.0188709
0.0188033
0.0187104
0.0185862
0.018423
0.0182125
0.0179518
0.0176435
0.0172957
0.0169197
0.0165274
0.0161318
0.0157487
0.0153959
0.0150896
0.0148414
0.014651
0.0145086
0.0143798
0.0142498
0.014071
0.0138251
0.0134169
0.012792
0.0119492
0.0108762
0.0092787
0.00719072
0.00529141
0.0186076
0.0185829
0.0185598
0.0185384
0.0185194
0.0185025
0.0184885
0.0184774
0.01847
0.018466
0.0184664
0.0184707
0.0184798
0.0184928
0.0185105
0.0185315
0.0185568
0.0185846
0.0186157
0.0186484
0.0186834
0.018719
0.0187561
0.018793
0.0188295
0.0188622
0.0188865
0.0188978
0.0188938
0.0188724
0.0188331
0.0187736
0.0186915
0.0185818
0.0184381
0.0182527
0.0180167
0.0177265
0.0173838
0.0169954
0.0165706
0.0161194
0.015653
0.0151862
0.0147361
0.0143206
0.0139548
0.0136446
0.0133876
0.0131589
0.0129519
0.0127283
0.0124746
0.0120964
0.011539
0.0107997
0.00985197
0.00839047
0.00638861
0.00460296
0.0185617
0.0185374
0.0185143
0.018493
0.0184738
0.0184567
0.0184424
0.018431
0.0184232
0.018419
0.0184193
0.0184236
0.0184331
0.0184467
0.0184654
0.0184876
0.0185144
0.0185438
0.0185768
0.0186111
0.0186476
0.0186841
0.0187216
0.0187581
0.0187935
0.0188245
0.0188459
0.0188533
0.0188444
0.018817
0.0187704
0.0187027
0.018611
0.0184905
0.0183351
0.0181369
0.017887
0.0175811
0.0172203
0.01681
0.016358
0.0158721
0.0153617
0.0148398
0.0143226
0.013828
0.0133732
0.0129683
0.0126165
0.0123008
0.012022
0.0117496
0.0114771
0.01111
0.010594
0.00992471
0.00906229
0.00768924
0.00573858
0.00402497
0.0185327
0.0185099
0.0184884
0.0184684
0.0184504
0.0184343
0.0184208
0.0184099
0.0184025
0.0183985
0.0183988
0.0184032
0.0184126
0.0184263
0.0184451
0.0184677
0.018495
0.0185251
0.0185588
0.018594
0.0186312
0.0186682
0.0187057
0.0187418
0.0187761
0.0188055
0.0188247
0.0188293
0.018817
0.0187856
0.0187346
0.0186617
0.0185646
0.0184384
0.0182773
0.0180737
0.0178187
0.0175077
0.0171413
0.0167238
0.0162615
0.0157605
0.0152283
0.0146757
0.0141176
0.0135712
0.0130542
0.0125796
0.0121544
0.0117673
0.0114241
0.0111028
0.0108005
0.0104251
0.00992324
0.00929004
0.00847243
0.00714311
0.00521091
0.00353149
0.0185275
0.0185068
0.0184872
0.0184689
0.0184523
0.0184376
0.0184252
0.0184154
0.0184088
0.0184054
0.0184063
0.0184111
0.0184208
0.0184346
0.0184536
0.0184763
0.0185037
0.018534
0.0185678
0.0186031
0.0186404
0.0186773
0.0187144
0.0187496
0.0187827
0.0188105
0.0188278
0.0188304
0.0188158
0.0187821
0.0187284
0.018653
0.0185532
0.0184248
0.0182622
0.0180582
0.017804
0.017495
0.0171312
0.0167162
0.0162548
0.0157517
0.0152123
0.0146456
0.0140646
0.0134855
0.0129254
0.0123994
0.0119164
0.0114696
0.0110687
0.0106977
0.0103594
0.00996128
0.00945174
0.00882553
0.00801879
0.00669553
0.00475696
0.00308147
0.0185512
0.0185336
0.0185168
0.018501
0.0184866
0.0184738
0.018463
0.0184544
0.0184488
0.0184462
0.0184475
0.0184526
0.0184623
0.0184761
0.0184948
0.0185172
0.0185441
0.018574
0.0186073
0.0186422
0.0186789
0.0187152
0.0187514
0.0187855
0.0188172
0.0188433
0.018859
0.01886
0.018844
0.0188087
0.0187538
0.0186769
0.0185764
0.0184477
0.0182861
0.0180845
0.0178344
0.0175311
0.0171745
0.0167674
0.0163134
0.0158158
0.0152786
0.0147088
0.0141174
0.0135192
0.012931
0.0123679
0.0118407
0.0113449
0.0108926
0.0104733
0.0100921
0.00965783
0.0091217
0.00847918
0.00765677
0.00631255
0.00435102
0.00265896
0.0186012
0.0185876
0.0185742
0.0185618
0.0185503
0.01854
0.0185314
0.0185245
0.0185203
0.0185188
0.0185209
0.0185264
0.0185364
0.0185501
0.0185687
0.0185907
0.0186172
0.0186464
0.0186791
0.0187132
0.0187491
0.0187844
0.0188195
0.0188522
0.0188823
0.0189067
0.0189208
0.0189204
0.018903
0.0188668
0.0188109
0.0187336
0.0186328
0.0185048
0.018345
0.0181467
0.0179018
0.0176055
0.0172573
0.0168595
0.0164148
0.0159253
0.0153933
0.0148244
0.0142279
0.0136169
0.0130072
0.0124146
0.0118499
0.0113109
0.0108105
0.0103427
0.00991613
0.00943839
0.00886352
0.00818861
0.00733296
0.00594997
0.00395764
0.00223629
0.0186781
0.0186688
0.0186597
0.0186511
0.0186434
0.0186363
0.0186307
0.0186264
0.0186243
0.0186245
0.0186278
0.0186342
0.0186446
0.0186585
0.0186767
0.0186984
0.0187242
0.0187527
0.0187844
0.0188175
0.0188522
0.0188863
0.0189201
0.0189513
0.0189795
0.019002
0.0190144
0.0190125
0.0189939
0.0189565
0.0188999
0.0188219
0.018721
0.0185935
0.0184351
0.0182398
0.0179994
0.0177092
0.0173686
0.0169791
0.0165429
0.0160609
0.0155343
0.0149672
0.0143673
0.0137463
0.0131192
0.0125015
0.0119046
0.0113269
0.0107819
0.0102668
0.0097907
0.00926227
0.00863935
0.00792155
0.00702209
0.00559152
0.0035666
0.00181051
0.0187843
0.0187792
0.0187738
0.018769
0.0187647
0.018761
0.0187584
0.018757
0.0187575
0.0187598
0.0187651
0.018773
0.0187846
0.0187993
0.018818
0.0188396
0.0188652
0.018893
0.0189238
0.0189558
0.0189892
0.0190218
0.0190539
0.0190833
0.0191095
0.0191299
0.0191403
0.0191367
0.0191165
0.0190778
0.0190198
0.0189409
0.0188391
0.0187113
0.0185535
0.0183599
0.0181223
0.0178362
0.0175007
0.0171166
0.0166855
0.0162075
0.0156828
0.015114
0.0145079
0.0138748
0.0132288
0.0125856
0.0119561
0.0113408
0.0107509
0.0101884
0.00966283
0.0090814
0.00840634
0.00764049
0.00669284
0.00521178
0.00315766
0.00136532
0.0189233
0.0189225
0.0189214
0.0189204
0.0189197
0.0189192
0.0189196
0.0189209
0.0189238
0.0189283
0.0189353
0.0189448
0.0189575
0.0189729
0.018992
0.0190137
0.0190389
0.0190661
0.019096
0.0191268
0.0191589
0.01919
0.0192204
0.0192478
0.0192718
0.0192899
0.0192981
0.0192923
0.0192702
0.0192295
0.0191699
0.0190891
0.0189858
0.0188565
0.0186978
0.018504
0.0182671
0.0179824
0.0176486
0.0172664
0.0168364
0.0163582
0.015831
0.0152566
0.0146405
0.0139922
0.0133254
0.0126552
0.0119935
0.0113404
0.0107075
0.0100979
0.00951993
0.00888199
0.0081518
0.00733592
0.00633963
0.00481011
0.00273252
0.00090612
0.01909
0.0190939
0.0190972
0.0191005
0.0191036
0.0191068
0.0191104
0.0191145
0.0191199
0.0191265
0.0191355
0.0191464
0.0191604
0.0191767
0.0191965
0.0192184
0.0192436
0.0192704
0.0192997
0.0193294
0.0193602
0.0193897
0.0194183
0.0194436
0.0194653
0.0194809
0.0194866
0.0194784
0.0194539
0.0194109
0.0193487
0.0192655
0.0191594
0.0190275
0.0188664
0.0186705
0.0184319
0.0181456
0.0178101
0.0174253
0.0169915
0.0165076
0.015972
0.0153859
0.0147538
0.0140847
0.0133916
0.0126902
0.0119923
0.0112997
0.0106219
0.00996499
0.00933481
0.00864049
0.00785538
0.00699016
0.00594767
0.00437398
0.00228065
0.00042295
0.019285
0.0192935
0.0193014
0.0193089
0.0193162
0.0193231
0.0193302
0.0193375
0.0193456
0.0193548
0.0193656
0.0193783
0.0193934
0.0194107
0.0194309
0.0194532
0.0194782
0.0195047
0.0195332
0.0195621
0.0195916
0.0196195
0.0196463
0.0196696
0.0196889
0.0197017
0.0197046
0.0196937
0.0196663
0.0196203
0.0195552
0.0194685
0.019359
0.0192232
0.0190582
0.0188584
0.0186158
0.0183251
0.0179844
0.0175932
0.0171512
0.0166567
0.0161077
0.0155046
0.0148515
0.0141565
0.0134331
0.0126964
0.0119602
0.0112259
0.0105039
0.00979909
0.00911389
0.00836119
0.00752094
0.00660812
0.00552315
0.00391144
0.00180995
-7.48907e-05
0.0195078
0.0195205
0.0195322
0.0195435
0.0195544
0.019565
0.0195755
0.019586
0.0195971
0.0196089
0.0196223
0.019637
0.019654
0.0196727
0.019694
0.0197168
0.019742
0.0197682
0.0197961
0.019824
0.0198521
0.0198784
0.0199032
0.0199241
0.0199408
0.0199508
0.0199506
0.0199366
0.019906
0.0198567
0.0197878
0.0196973
0.0195832
0.0194429
0.0192726
0.0190674
0.0188187
0.018521
0.0181719
0.0177704
0.0173157
0.0168054
0.0162373
0.0156111
0.0149306
0.0142037
0.0134436
0.0126664
0.0118866
0.0111079
0.0103388
0.00958503
0.00884472
0.00803426
0.0071404
0.00618251
0.00505948
0.00341611
0.00131432
-0.000594663
0.0197627
0.0197796
0.0197951
0.01981
0.0198242
0.0198377
0.019851
0.0198641
0.0198776
0.0198917
0.019907
0.0199235
0.0199419
0.0199617
0.0199838
0.020007
0.0200323
0.0200583
0.0200855
0.0201124
0.0201392
0.0201638
0.0201866
0.0202053
0.0202192
0.0202262
0.0202228
0.0202054
0.0201714
0.0201183
0.0200456
0.0199504
0.0198317
0.0196855
0.0195094
0.0192974
0.0190409
0.018734
0.0183739
0.0179591
0.0174881
0.0169583
0.0163668
0.0157131
0.0150006
0.014237
0.013436
0.0126139
0.0117875
0.0109612
0.0101447
0.00934
0.00854152
0.00767156
0.00672449
0.00572398
0.00456728
0.00289879
0.000803402
-0.00112612
0.020041
0.0200622
0.0200818
0.0201005
0.0201182
0.020135
0.0201512
0.0201669
0.0201827
0.0201987
0.0202158
0.0202337
0.0202535
0.0202743
0.0202972
0.020321
0.0203466
0.0203723
0.0203992
0.0204251
0.0204507
0.0204737
0.0204945
0.0205108
0.0205221
0.020526
0.0205193
0.0204985
0.0204607
0.0204039
0.0203267
0.0202272
0.0201028
0.019951
0.0197681
0.0195484
0.0192829
0.0189651
0.0185918
0.0181607
0.0176701
0.0171167
0.0164973
0.0158111
0.0150613
0.0142555
0.0134078
0.0125358
0.0116573
0.0107804
0.00991272
0.00905568
0.0081976
0.00726845
0.00626953
0.00522879
0.00404255
0.00235494
0.000272493
-0.00167568
0.0203447
0.0203699
0.0203933
0.0204157
0.0204368
0.0204567
0.0204757
0.0204939
0.0205119
0.0205298
0.0205484
0.0205677
0.0205884
0.0206101
0.0206334
0.0206575
0.020683
0.0207086
0.0207348
0.0207599
0.0207843
0.0208057
0.0208247
0.0208387
0.0208473
0.0208481
0.0208381
0.0208138
0.0207724
0.0207115
0.0206303
0.0205258
0.0203965
0.0202382
0.0200484
0.0198205
0.0195449
0.0192151
0.0188269
0.0183779
0.0178654
0.0172859
0.0166357
0.0159138
0.0151231
0.0142714
0.0133735
0.0124473
0.0115137
0.0105821
0.0096619
0.00874927
0.00782844
0.00683826
0.00578756
0.00470851
0.00349647
0.00179542
-0.000268799
-0.00223325
0.0206676
0.0206963
0.0207231
0.0207486
0.0207728
0.0207957
0.0208176
0.0208385
0.020859
0.0208792
0.0209
0.0209211
0.0209433
0.0209662
0.0209904
0.0210149
0.0210406
0.0210658
0.0210914
0.0211155
0.0211385
0.0211581
0.0211751
0.0211867
0.0211926
0.0211904
0.021177
0.0211494
0.0211044
0.0210398
0.0209544
0.0208456
0.0207107
0.0205469
0.0203498
0.0201134
0.0198273
0.0194845
0.0190803
0.0186116
0.0180752
0.0174669
0.0167827
0.0160213
0.0151856
0.0142835
0.0133304
0.0123455
0.0113515
0.0103617
0.00938475
0.0084139
0.00742835
0.006377
0.00527525
0.00415951
0.00292501
0.00121571
-0.000825097
-0.00280507
0.0210171
0.0210496
0.0210798
0.0211084
0.0211354
0.0211609
0.0211849
0.0212078
0.02123
0.0212518
0.0212737
0.0212959
0.0213188
0.0213421
0.0213665
0.0213909
0.021416
0.0214407
0.0214653
0.0214882
0.0215097
0.0215277
0.0215426
0.021552
0.0215553
0.0215502
0.0215337
0.0215029
0.0214547
0.0213866
0.0212977
0.0211844
0.0210452
0.0208752
0.0206714
0.0204264
0.0201298
0.0197737
0.0193531
0.0188641
0.0183027
0.0176642
0.0169443
0.0161413
0.0152582
0.0143028
0.0132914
0.0122443
0.0111865
0.0101341
0.00909735
0.0080642
0.00701086
0.00589639
0.00474322
0.00359215
0.00233821
0.000625475
-0.00138765
-0.00338156
0.0213926
0.021429
0.0214625
0.0214941
0.0215233
0.0215505
0.0215757
0.0215993
0.0216219
0.0216437
0.0216656
0.0216873
0.0217101
0.0217328
0.0217569
0.0217805
0.0218052
0.0218288
0.0218526
0.0218743
0.0218944
0.0219107
0.0219239
0.0219312
0.0219323
0.0219247
0.0219055
0.021872
0.0218209
0.0217499
0.0216576
0.021541
0.0213971
0.0212224
0.021012
0.0207591
0.0204522
0.0200831
0.0196458
0.0191357
0.0185481
0.0178778
0.0171199
0.0162726
0.0153386
0.0143264
0.0132526
0.0121389
0.0110124
0.00989327
0.00879175
0.00769281
0.00656948
0.00539143
0.0041871
0.00300182
0.00173131
1.97736e-05
-0.00196126
-0.00396891
0.021798
0.0218354
0.021869
0.0219004
0.0219292
0.0219558
0.0219804
0.0220034
0.0220253
0.0220465
0.0220675
0.0220886
0.0221102
0.0221324
0.0221553
0.0221784
0.0222021
0.0222251
0.022248
0.0222689
0.022288
0.0223033
0.0223151
0.022321
0.0223203
0.0223108
0.0222895
0.0222537
0.0222006
0.0221272
0.0220326
0.0219128
0.021766
0.0215864
0.0213707
0.0211106
0.0207942
0.0204124
0.0199588
0.0194278
0.0188139
0.0181112
0.0173144
0.0164213
0.0154347
0.0143633
0.0132244
0.0120409
0.0108421
0.0096514
0.00848086
0.00731164
0.00611544
0.00487181
0.00361576
0.00239744
0.00111313
-0.000592758
-0.0025378
-0.00455777
0.0221614
0.022203
0.0222408
0.0222759
0.0223083
0.0223381
0.0223658
0.0223914
0.0224158
0.0224391
0.0224623
0.0224849
0.0225082
0.0225313
0.0225553
0.0225786
0.0226026
0.0226254
0.0226481
0.0226685
0.0226871
0.0227016
0.0227128
0.0227177
0.0227161
0.0227053
0.0226826
0.0226456
0.022591
0.0225164
0.0224201
0.0222989
0.0221492
0.021967
0.0217466
0.0214803
0.0211553
0.0207617
0.0202921
0.01974
0.0190991
0.0183628
0.0175254
0.0165843
0.0155424
0.0144085
0.0132009
0.0119435
0.0106675
0.00940092
0.00815587
0.00691249
0.00564127
0.00433141
0.00302371
0.00177347
0.000478286
-0.0012174
-0.00312232
-0.00515451
0.0225306
0.0225753
0.0226158
0.0226532
0.0226876
0.0227192
0.0227484
0.0227756
0.0228014
0.0228261
0.0228504
0.0228745
0.0228989
0.0229233
0.0229481
0.0229727
0.0229975
0.0230213
0.0230448
0.023066
0.0230853
0.0231005
0.0231121
0.0231173
0.0231158
0.023105
0.0230821
0.0230449
0.0229903
0.0229153
0.0228191
0.022697
0.022547
0.0223622
0.0221389
0.0218676
0.021535
0.0211305
0.0206456
0.020073
0.0194052
0.0186352
0.0177565
0.0167664
0.0156676
0.0144693
0.0131904
0.011856
0.0104993
0.00915159
0.00782722
0.00650517
0.00515607
0.00377806
0.00241835
0.00113768
-0.000165382
-0.00184638
-0.00370724
-0.00574977
0.0228353
0.0228859
0.0229325
0.0229763
0.0230168
0.0230543
0.0230892
0.0231216
0.0231525
0.0231818
0.0232108
0.023239
0.0232676
0.0232956
0.0233242
0.0233519
0.0233799
0.0234065
0.0234326
0.0234563
0.023478
0.0234952
0.0235089
0.023516
0.0235161
0.0235068
0.0234851
0.0234493
0.0233959
0.0233225
0.0232274
0.0231068
0.0229566
0.0227721
0.0225468
0.0222718
0.0219328
0.0215183
0.0210186
0.0204254
0.0197304
0.0189256
0.0180043
0.0169633
0.0158051
0.0145393
0.0131856
0.0117703
0.0103281
0.0088948
0.00748566
0.00608098
0.00465185
0.00320507
0.00179365
0.000484106
-0.000823486
-0.00248504
-0.00429767
-0.00635022
0.0231307
0.0231842
0.0232338
0.0232805
0.0233244
0.0233655
0.0234042
0.0234408
0.023476
0.0235099
0.0235434
0.0235765
0.0236098
0.0236429
0.0236763
0.023709
0.0237419
0.0237735
0.0238044
0.0238329
0.0238592
0.023881
0.0238989
0.0239099
0.0239137
0.0239077
0.0238891
0.0238564
0.0238063
0.023736
0.0236442
0.0235261
0.0233789
0.0231949
0.0229695
0.0226922
0.022348
0.0219242
0.0214106
0.0207974
0.0200754
0.0192359
0.0182714
0.0171784
0.0159593
0.0146241
0.0131933
0.011694
0.0101628
0.00863886
0.00714021
0.00564855
0.0041366
0.00261932
0.00115635
-0.000179966
-0.00148863
-0.00312601
-0.0048863
-0.00694672
0.0233548
0.023414
0.0234695
0.0235227
0.0235733
0.0236213
0.0236672
0.0237111
0.0237538
0.0237952
0.0238365
0.0238772
0.0239184
0.0239591
0.0240003
0.0240404
0.0240809
0.0241196
0.0241579
0.0241933
0.0242265
0.0242548
0.0242792
0.0242964
0.0243059
0.0243054
0.024292
0.0242645
0.0242195
0.0241546
0.0240679
0.0239549
0.0238111
0.0236308
0.0234064
0.023128
0.0227795
0.0223475
0.0218202
0.0211871
0.0204377
0.0195626
0.0185536
0.0174066
0.0161243
0.0147167
0.0132053
0.0116182
0.00999367
0.0083748
0.00678154
0.00519925
0.00360252
0.00201429
0.000500463
-0.000860457
-0.00216634
-0.00377456
-0.00547845
-0.00754637
0.023536
0.023602
0.0236652
0.0237264
0.0237851
0.0238413
0.0238954
0.0239475
0.0239982
0.0240478
0.0240971
0.0241462
0.0241957
0.024245
0.0242948
0.0243441
0.0243935
0.0244417
0.0244892
0.0245341
0.0245766
0.0246141
0.0246474
0.0246731
0.0246908
0.0246981
0.0246921
0.024672
0.0246347
0.0245771
0.0244979
0.0243914
0.0242543
0.0240778
0.0238564
0.0235782
0.0232266
0.0227871
0.0222471
0.0215945
0.0208181
0.0199072
0.018853
0.0176512
0.016304
0.014822
0.0132276
0.0115498
0.00982866
0.00811034
0.00641824
0.00474133
0.00305713
0.00139657
-0.000167346
-0.00155014
-0.00284937
-0.00442357
-0.00606698
-0.00814017
0.0236851
0.0237563
0.0238255
0.0238935
0.0239595
0.0240237
0.0240862
0.0241469
0.0242066
0.0242654
0.0243242
0.0243828
0.0244422
0.0245015
0.0245617
0.0246213
0.0246816
0.0247406
0.0247993
0.0248553
0.0249091
0.0249578
0.0250023
0.0250389
0.0250671
0.0250844
0.0250883
0.025078
0.0250504
0.0250027
0.0249329
0.0248357
0.0247057
0.0245363
0.0243188
0.0240422
0.0236886
0.0232424
0.0226899
0.0220179
0.0212139
0.0202663
0.0191656
0.0179067
0.0164922
0.0149329
0.0132521
0.0114801
0.00965844
0.0078367
0.00604137
0.00426678
0.00249349
0.000760407
-0.000852491
-0.00225453
-0.00354293
-0.00507815
-0.00665729
-0.00873533
0.0238024
0.0238779
0.0239517
0.0240249
0.0240969
0.024168
0.024238
0.0243072
0.024376
0.0244445
0.0245135
0.0245829
0.0246533
0.0247243
0.0247962
0.0248682
0.0249411
0.0250132
0.0250851
0.0251548
0.0252223
0.0252847
0.0253428
0.0253926
0.0254337
0.0254637
0.0254797
0.0254815
0.0254662
0.0254305
0.0253726
0.0252861
0.0251669
0.0250048
0.0247935
0.0245197
0.0241651
0.0237131
0.0231488
0.0224579
0.0216264
0.0206418
0.0194937
0.0181767
0.0166931
0.0150544
0.0132848
0.0114158
0.00949061
0.00756178
0.00565986
0.00378415
0.00191936
0.000112765
-0.00154791
-0.00296609
-0.00423965
-0.00573115
-0.00724215
-0.00932278
0.0238686
0.0239499
0.0240299
0.0241098
0.024189
0.0242679
0.0243464
0.0244249
0.0245037
0.0245829
0.0246635
0.0247451
0.0248286
0.0249129
0.0249989
0.0250851
0.0251729
0.02526
0.0253474
0.0254327
0.0255162
0.0255945
0.0256687
0.0257342
0.0257907
0.0258357
0.0258663
0.0258828
0.0258819
0.0258608
0.0258169
0.0257441
0.0256362
0.025485
0.0252807
0.0250111
0.0246564
0.0241992
0.0236234
0.0229133
0.0220536
0.0210308
0.0198337
0.0184563
0.016901
0.0151796
0.0133181
0.0113486
0.00931665
0.00727725
0.00526523
0.00328632
0.00132885
-0.000551244
-0.00225842
-0.00368993
-0.00494446
-0.00638763
-0.0078272
-0.00990988
0.0238731
0.0239619
0.0240502
0.0241393
0.0242283
0.0243175
0.0244068
0.0244966
0.0245872
0.024679
0.0247726
0.024868
0.0249658
0.0250653
0.025167
0.0252699
0.0253746
0.0254794
0.0255848
0.0256886
0.0257907
0.0258877
0.0259805
0.0260643
0.0261388
0.0262013
0.026249
0.0262825
0.0262988
0.0262944
0.0262673
0.0262097
0.0261167
0.0259763
0.0257813
0.0255171
0.0251633
0.0247017
0.0241149
0.0233858
0.0224978
0.0214361
0.0201889
0.0187496
0.0171205
0.0153144
0.013358
0.0112857
0.00914418
0.0069918
0.00486709
0.00278213
0.000729964
-0.00122428
-0.0029765
-0.00441821
-0.00564987
-0.0070404
-0.00840508
-0.0104875
0.0238244
0.0239209
0.0240182
0.0241173
0.0242174
0.0243187
0.0244209
0.0245243
0.0246292
0.0247359
0.0248451
0.0249566
0.0250712
0.0251879
0.0253076
0.0254286
0.0255524
0.0256765
0.0258018
0.0259259
0.0260488
0.0261667
0.0262805
0.0263852
0.02648
0.0265625
0.0266298
0.0266827
0.0267184
0.0267336
0.0267251
0.0266856
0.0266077
0.0264819
0.0262969
0.0260393
0.0256874
0.0252217
0.0246238
0.0238752
0.0229577
0.0218557
0.0205562
0.0190523
0.0173466
0.0154523
0.0133981
0.0112196
0.00896589
0.00669727
0.00445745
0.0022653
0.000117728
-0.00191047
-0.00370647
-0.00515568
-0.00636062
-0.00769449
-0.0089816
-0.0110631
0.0237415
0.0238457
0.0239516
0.0240604
0.0241713
0.0242844
0.0243994
0.0245167
0.0246363
0.0247586
0.0248842
0.0250131
0.0251458
0.0252816
0.0254208
0.0255624
0.0257072
0.0258532
0.0260007
0.0261477
0.0262938
0.026435
0.0265722
0.0267001
0.0268177
0.0269226
0.0270116
0.0270863
0.0271438
0.0271804
0.0271931
0.0271729
0.0271139
0.0270024
0.0268298
0.0265799
0.0262306
0.0257614
0.0251526
0.0243842
0.0234367