/*--------------------------------*- C++ -*----------------------------------*\
  =========                 |
  \\      /  F ield         | OpenFOAM: The Open Source CFD Toolbox
   \\    /   O peration     | Website:  https://openfoam.org
    \\  /    A nd           | Version:  6.0
     \\/     M anipulation  |
\*---------------------------------------------------------------------------*/
FoamFile
{
    version     2.0;
    format      ascii;
    class       surfaceScalarField;
    location    "17";
    object      phi;
}
// * * * * * * * * * * * * * * * * * * * * * * * * * * * * * * * * * * * * * //

dimensions      [0 3 -1 0 0 0 0];

internalField   nonuniform List<scalar> 
123526
(
-2.69291e-05
2.33245e-05
2.7327e-05
-2.65009e-05
2.52207e-05
-2.60384e-05
2.72712e-05
-2.55382e-05
2.94887e-05
-2.49979e-05
3.18868e-05
-2.44137e-05
3.44801e-05
-2.37825e-05
3.72847e-05
-2.30999e-05
4.03177e-05
-2.23616e-05
4.3597e-05
-2.15624e-05
4.71436e-05
-2.06988e-05
5.09798e-05
-1.97648e-05
5.51286e-05
-1.87552e-05
5.96154e-05
-1.76609e-05
6.44652e-05
-1.64745e-05
6.97093e-05
-1.51915e-05
7.53837e-05
-1.38041e-05
8.15201e-05
-1.22971e-05
8.81492e-05
-1.06636e-05
9.53202e-05
-8.89708e-06
0.000103078
-6.97895e-06
0.000111458
-4.89761e-06
0.000120517
-2.64695e-06
0.000130318
-1.9774e-07
0.000140895
2.45338e-06
0.000152337
5.3288e-06
0.000164693
8.44885e-06
0.000178036
1.1827e-05
0.000192448
1.54945e-05
0.000207993
1.94628e-05
0.000224775
2.37677e-05
0.000242856
2.84257e-05
0.000262347
3.34713e-05
0.000283323
3.89322e-05
0.000305884
4.48353e-05
0.000330123
5.12237e-05
0.000356113
5.81201e-05
0.000383955
6.55648e-05
0.000413703
7.35985e-05
0.000445409
8.22526e-05
0.000479108
9.15662e-05
0.000514786
0.000101582
0.000552384
0.000112332
0.00059179
0.00012385
0.000632802
0.000136161
0.000675107
0.000149285
0.000718256
0.000163228
0.000761621
0.00017798
0.000804347
0.000193511
0.000845297
0.00020976
0.000882978
0.000226639
0.000915464
0.000244007
0.000940305
0.000261673
0.000954428
0.000279363
0.000954036
0.000296724
0.000934437
0.000313283
0.000889932
0.00032849
0.000813439
0.000341656
0.000697033
0.000351528
0.000528505
0.000289299
0.000347338
-2.65427e-05
2.29381e-05
2.6932e-05
-2.61235e-05
2.48028e-05
-2.56703e-05
2.68192e-05
-2.51802e-05
2.89998e-05
-2.46505e-05
3.1358e-05
-2.40776e-05
3.39082e-05
-2.34583e-05
3.66662e-05
-2.27886e-05
3.96488e-05
-2.20638e-05
4.28728e-05
-2.12793e-05
4.63598e-05
-2.04313e-05
5.01322e-05
-1.95141e-05
5.4212e-05
-1.85226e-05
5.86242e-05
-1.74479e-05
6.33911e-05
-1.62826e-05
6.85445e-05
-1.50226e-05
7.41242e-05
-1.36602e-05
8.01582e-05
-1.21803e-05
8.66699e-05
-1.05763e-05
9.37167e-05
-8.84188e-06
0.000101344
-6.95872e-06
0.000109575
-4.91545e-06
0.000118475
-2.70617e-06
0.000128109
-3.02192e-07
0.000138491
2.29965e-06
0.000149736
5.12129e-06
0.000161872
8.18272e-06
0.000174975
1.14972e-05
0.000189134
1.50954e-05
0.000204396
1.89889e-05
0.000220882
2.32125e-05
0.000238633
2.77828e-05
0.000257777
3.27333e-05
0.000278373
3.80913e-05
0.000300526
4.38835e-05
0.000324331
5.01529e-05
0.000349844
5.69223e-05
0.000377186
6.42318e-05
0.000406394
7.21217e-05
0.000437519
8.06233e-05
0.000470607
8.97752e-05
0.000505634
9.96191e-05
0.00054254
0.000110187
0.000581221
0.00012151
0.000621477
0.000133614
0.000663001
0.000146516
0.000705351
0.000160221
0.000747911
0.00017472
0.000789843
0.000189982
0.000830027
0.000205951
0.000866999
0.000222537
0.000898867
0.000239601
0.000923226
0.000256952
0.000937061
0.00027432
0.00093665
0.00029136
0.000917382
0.000307614
0.00087366
0.000322509
0.000798523
0.000335455
0.00068406
0.000343725
0.000520201
0.000290041
0.000342927
-2.61874e-05
2.25592e-05
2.65691e-05
-2.57763e-05
2.4393e-05
-2.5332e-05
2.6376e-05
-2.48514e-05
2.85204e-05
-2.43319e-05
3.08394e-05
-2.37699e-05
3.33473e-05
-2.31624e-05
3.60594e-05
-2.25052e-05
3.89925e-05
-2.17939e-05
4.21621e-05
-2.10238e-05
4.55904e-05
-2.01912e-05
4.93001e-05
-1.92906e-05
5.33121e-05
-1.83169e-05
5.7651e-05
-1.72615e-05
6.23363e-05
-1.61172e-05
6.74007e-05
-1.48798e-05
7.28874e-05
-1.35419e-05
7.88207e-05
-1.20887e-05
8.52173e-05
-1.05137e-05
9.21422e-05
-8.81075e-06
9.96416e-05
-6.96192e-06
0.000107727
-4.95607e-06
0.000116469
-2.78744e-06
0.000125941
-4.27956e-07
0.000136132
2.12548e-06
0.000147183
4.89449e-06
0.000159103
7.8988e-06
0.000171971
1.11516e-05
0.000185882
1.4683e-05
0.000200864
1.85046e-05
0.00021706
2.26509e-05
0.000234487
2.71379e-05
0.00025329
3.19989e-05
0.000273512
3.72607e-05
0.000295265
4.29497e-05
0.000318643
4.91086e-05
0.000343686
5.576e-05
0.000370535
6.29435e-05
0.000399211
7.0699e-05
0.000429764
7.90571e-05
0.000462249
8.80556e-05
0.000496635
9.7735e-05
0.00053286
0.000108126
0.000570829
0.000119259
0.000610344
0.000131158
0.000651101
0.000143839
0.000692668
0.000157308
0.00073444
0.000171557
0.000775593
0.000186555
0.000815027
0.000202247
0.000851305
0.000218544
0.000882568
0.000235307
0.000906459
0.000252348
0.000920019
0.000269399
0.000919595
0.000286125
0.000900654
0.000302085
0.000857696
0.000316668
0.000783936
0.000329331
0.000671393
0.000338225
0.000511304
0.00028863
0.000339638
-2.58227e-05
2.21868e-05
2.61975e-05
-2.54191e-05
2.39904e-05
-2.49828e-05
2.59407e-05
-2.45112e-05
2.80497e-05
-2.40014e-05
3.03304e-05
-2.34501e-05
3.27969e-05
-2.28542e-05
3.54642e-05
-2.22097e-05
3.83487e-05
-2.1512e-05
4.14651e-05
-2.07568e-05
4.48358e-05
-1.99402e-05
4.84839e-05
-1.90569e-05
5.24294e-05
-1.81018e-05
5.66963e-05
-1.70664e-05
6.13014e-05
-1.59436e-05
6.62783e-05
-1.47294e-05
7.16736e-05
-1.34163e-05
7.75082e-05
-1.19901e-05
8.37915e-05
-1.04441e-05
9.05967e-05
-8.77238e-06
9.79704e-05
-6.95737e-06
0.000105912
-4.98816e-06
0.000114501
-2.85906e-06
0.000123813
-5.42508e-07
0.000133816
1.96458e-06
0.000144676
4.68352e-06
0.000156385
7.63375e-06
0.000169021
1.08283e-05
0.000182688
1.42968e-05
0.000197396
1.80507e-05
0.000213307
2.21239e-05
0.000230414
2.65324e-05
0.000248882
3.13089e-05
0.000268737
3.64796e-05
0.000290095
4.20707e-05
0.000313053
4.81239e-05
0.000337633
5.46617e-05
0.000363998
6.17229e-05
0.00039215
6.93464e-05
0.000422141
7.75624e-05
0.000454033
8.64077e-05
0.00048779
9.59217e-05
0.000523346
0.000106135
0.000560616
0.000117074
0.000599404
0.000128766
0.00063941
0.000141226
0.000680208
0.00015446
0.000721205
0.000168459
0.000761592
0.000183195
0.000800289
0.000198613
0.000835884
0.000214623
0.000866553
0.000231087
0.000889986
0.000247819
0.000903279
0.000264557
0.000902846
0.000280971
0.000884229
0.000296636
0.000842016
0.000310929
0.000769625
0.000323285
0.000659011
0.000332305
0.000502252
0.00028628
0.000334602
-2.54476e-05
2.18205e-05
2.58168e-05
-2.50505e-05
2.35946e-05
-2.46215e-05
2.55129e-05
-2.41579e-05
2.75874e-05
-2.36572e-05
2.98306e-05
-2.31158e-05
3.22566e-05
-2.25309e-05
3.488e-05
-2.18985e-05
3.77172e-05
-2.12142e-05
4.07813e-05
-2.04734e-05
4.40958e-05
-1.96725e-05
4.76836e-05
-1.88063e-05
5.15638e-05
-1.78696e-05
5.57601e-05
-1.68541e-05
6.02866e-05
-1.57529e-05
6.51776e-05
-1.45618e-05
7.04831e-05
-1.32737e-05
7.62205e-05
-1.18743e-05
8.23927e-05
-1.03573e-05
8.90801e-05
-8.71664e-06
9.63303e-05
-6.93514e-06
0.000104131
-5.00202e-06
0.000112568
-2.91169e-06
0.000121723
-6.37042e-07
0.000131542
1.82504e-06
0.000142215
4.49553e-06
0.000153715
7.3935e-06
0.000166123
1.05317e-05
0.00017955
1.39394e-05
0.000193989
1.76277e-05
0.000209619
2.16299e-05
0.000226412
2.59619e-05
0.000244551
3.06555e-05
0.000264043
3.57369e-05
0.000285015
4.12316e-05
0.000307559
4.71805e-05
0.000331685
5.36054e-05
0.000357574
6.05445e-05
0.000385212
6.80359e-05
0.00041465
7.6109e-05
0.00044596
8.47999e-05
0.0004791
9.41471e-05
0.000513999
0.00010418
0.000550583
0.000114928
0.000588657
0.000126413
0.000627924
0.000138653
0.000667968
0.000151654
0.000708204
0.000165408
0.000747838
0.000179886
0.000785811
0.000195032
0.000820737
0.000210758
0.000850828
0.000226926
0.000873819
0.000243351
0.000886856
0.000259778
0.000886418
0.000275883
0.000868124
0.000291255
0.000826643
0.000305278
0.0007556
0.000317324
0.000646965
0.000326163
0.000493413
0.000283186
0.000329266
-2.50799e-05
2.14602e-05
2.54426e-05
-2.46894e-05
2.32051e-05
-2.42674e-05
2.50919e-05
-2.38115e-05
2.71324e-05
-2.3319e-05
2.93389e-05
-2.27867e-05
3.17251e-05
-2.22116e-05
3.43056e-05
-2.159e-05
3.70963e-05
-2.09175e-05
4.01094e-05
-2.01899e-05
4.33687e-05
-1.94033e-05
4.68975e-05
-1.85528e-05
5.07137e-05
-1.76332e-05
5.48409e-05
-1.66365e-05
5.92902e-05
-1.55556e-05
6.4097e-05
-1.43866e-05
6.93144e-05
-1.31223e-05
7.49566e-05
-1.17488e-05
8.10196e-05
-1.02597e-05
8.75915e-05
-8.64927e-06
9.47203e-05
-6.90042e-06
0.000102383
-5.00258e-06
0.000110671
-2.95022e-06
0.000119671
-7.1664e-07
0.000129309
1.70127e-06
0.000139797
4.32415e-06
0.000151092
7.17069e-06
0.000163277
1.02534e-05
0.000176468
1.3601e-05
0.000190642
1.72244e-05
0.000205996
2.11563e-05
0.000222481
2.54122e-05
0.000240295
3.00237e-05
0.000259432
3.50162e-05
0.000280023
4.04147e-05
0.000302161
4.62594e-05
0.000325841
5.25717e-05
0.000351262
5.93889e-05
0.000378395
6.67485e-05
0.00040729
7.46791e-05
0.00043803
8.32164e-05
0.000470563
9.23982e-05
0.000504817
0.000102254
0.000540727
0.000112811
0.0005781
0.000124093
0.000616642
0.000136118
0.000655943
0.000148891
0.000695431
0.000162404
0.000734325
0.000176628
0.000771586
0.000191507
0.000805856
0.000206952
0.000835381
0.000222827
0.000857938
0.000238951
0.000870727
0.000255073
0.000870289
0.000270878
0.000852311
0.000285961
0.000811547
0.000299732
0.000741813
0.000311495
0.000635179
0.000320195
0.000484682
0.000279243
0.000324087
-2.47283e-05
2.11061e-05
2.50849e-05
-2.43442e-05
2.28221e-05
-2.39291e-05
2.46779e-05
-2.34805e-05
2.66847e-05
-2.29958e-05
2.8855e-05
-2.24719e-05
3.12021e-05
-2.19059e-05
3.37403e-05
-2.12942e-05
3.64853e-05
-2.06326e-05
3.94483e-05
-1.99167e-05
4.26535e-05
-1.91431e-05
4.61244e-05
-1.83067e-05
4.9878e-05
-1.74027e-05
5.39373e-05
-1.6423e-05
5.83111e-05
-1.53609e-05
6.30354e-05
-1.42124e-05
6.81664e-05
-1.29705e-05
7.37152e-05
-1.16214e-05
7.96711e-05
-1.0159e-05
8.61296e-05
-8.57756e-06
9.31393e-05
-6.86021e-06
0.000100666
-4.99656e-06
0.000108807
-2.98115e-06
0.000117656
-7.87707e-07
0.000127116
1.58688e-06
0.000137423
4.16288e-06
0.000148516
6.95868e-06
0.000160482
9.98655e-06
0.00017344
1.32747e-05
0.000187354
1.68337e-05
0.000202437
2.0696e-05
0.000218619
2.48766e-05
0.000236115
2.94063e-05
0.000254903
3.43105e-05
0.000275119
3.96135e-05
0.000296858
4.53548e-05
0.0003201
5.15555e-05
0.000345062
5.82521e-05
0.000371699
6.54812e-05
0.000400062
7.32713e-05
0.00043024
8.16572e-05
0.000462177
9.06762e-05
0.000495798
0.000100357
0.000531046
0.000110728
0.000567729
0.000121811
0.000605558
0.000133625
0.00064413
0.000146173
0.000682882
0.000159449
0.00072105
0.000173422
0.000757614
0.000188037
0.000791242
0.000203205
0.000820214
0.000218792
0.000842352
0.000234619
0.000854902
0.000250445
0.000854464
0.000265958
0.0008368
0.000280763
0.000796743
0.000294293
0.000728283
0.000305811
0.000623662
0.000314392
0.000476105
0.000274929
0.00031872
-2.43845e-05
2.07585e-05
2.4734e-05
-2.40075e-05
2.2446e-05
-2.35997e-05
2.42709e-05
-2.31588e-05
2.62446e-05
-2.26821e-05
2.83791e-05
-2.21667e-05
3.06875e-05
-2.16098e-05
3.3184e-05
-2.10078e-05
3.5884e-05
-2.03566e-05
3.87976e-05
-1.96522e-05
4.19495e-05
-1.88909e-05
4.53635e-05
-1.80682e-05
4.90556e-05
-1.71789e-05
5.30484e-05
-1.62156e-05
5.73481e-05
-1.51712e-05
6.19914e-05
-1.40422e-05
6.70378e-05
-1.28216e-05
7.24949e-05
-1.1496e-05
7.83459e-05
-1.00591e-05
8.46931e-05
-8.50545e-06
9.15861e-05
-6.81849e-06
9.89794e-05
-4.98798e-06
0.000106977
-3.00851e-06
0.000115677
-8.54247e-07
0.000124962
1.47789e-06
0.000135091
4.00784e-06
0.000145987
6.75367e-06
0.000157737
9.72745e-06
0.000170467
1.29569e-05
0.000184125
1.64525e-05
0.000198942
2.02459e-05
0.000214826
2.4352e-05
0.000232009
2.88013e-05
0.000250454
3.36181e-05
0.000270303
3.88269e-05
0.00029165
4.44662e-05
0.000314461
5.05567e-05
0.000338972
5.71344e-05
0.000365121
6.42353e-05
0.000392961
7.18872e-05
0.000422589
8.01243e-05
0.00045394
8.89836e-05
0.000486939
9.84934e-05
0.000521537
0.00010868
0.000557543
0.000119568
0.000594671
0.000131173
0.000632525
0.0001435
0.000670556
0.00015654
0.00070801
0.000170263
0.00074389
0.000184616
0.000776889
0.000199508
0.00080532
0.00021481
0.000827046
0.000230347
0.000839361
0.000245883
0.000838923
0.000261114
0.000821563
0.000275648
0.000782198
0.000288946
0.000714971
0.000300255
0.000612332
0.000308679
0.000467651
0.000270531
0.000313027
-2.40325e-05
2.04182e-05
2.43755e-05
-2.36629e-05
2.20776e-05
-2.32632e-05
2.38722e-05
-2.28307e-05
2.58132e-05
-2.23631e-05
2.79123e-05
-2.18572e-05
3.01825e-05
-2.13104e-05
3.26379e-05
-2.07191e-05
3.52935e-05
-2.00794e-05
3.81585e-05
-1.93871e-05
4.1258e-05
-1.86391e-05
4.46159e-05
-1.78303e-05
4.82474e-05
-1.69563e-05
5.21748e-05
-1.60093e-05
5.64016e-05
-1.49829e-05
6.09654e-05
-1.38733e-05
6.59287e-05
-1.26739e-05
7.12959e-05
-1.13713e-05
7.70438e-05
-9.95965e-06
8.32819e-05
-8.43335e-06
9.00602e-05
-6.77626e-06
9.73227e-05
-4.97824e-06
0.00010518
-3.03401e-06
0.000113733
-9.18198e-07
0.000122847
1.37224e-06
0.000132801
3.8569e-06
0.000143503
6.55357e-06
0.00015504
9.47411e-06
0.000167546
1.26458e-05
0.000180954
1.60788e-05
0.000195509
1.98045e-05
0.0002111
2.38374e-05
0.000227977
2.82072e-05
0.000246085
3.29383e-05
0.000265572
3.80542e-05
0.000286535
4.35931e-05
0.000308923
4.95753e-05
0.00033299
5.60361e-05
0.000358661
6.30108e-05
0.000385987
7.05269e-05
0.000415073
7.86179e-05
0.000445849
8.73199e-05
0.000478237
9.6661e-05
0.000512196
0.000106667
0.000547536
0.000117362
0.000583976
0.00012876
0.000621127
0.000140866
0.000658449
0.000153671
0.000695205
0.000167146
0.000730416
0.000181237
0.000762799
0.000195855
0.000790703
0.000210876
0.000812027
0.000226127
0.000824113
0.00024138
0.000823672
0.000256335
0.00080661
0.000270607
0.000767928
0.00028368
0.0007019
0.000294803
0.000601213
0.000303058
0.000459403
0.000266367
0.000307241
-2.36653e-05
2.00851e-05
2.40003e-05
-2.33039e-05
2.17172e-05
-2.2913e-05
2.34821e-05
-2.24899e-05
2.53909e-05
-2.20323e-05
2.74553e-05
-2.1537e-05
2.9688e-05
-2.10014e-05
3.21029e-05
-2.04219e-05
3.47147e-05
-1.97947e-05
3.75317e-05
-1.91158e-05
4.05795e-05
-1.83819e-05
4.38822e-05
-1.75882e-05
4.74542e-05
-1.67303e-05
5.13171e-05
-1.58007e-05
5.54723e-05
-1.47929e-05
5.99579e-05
-1.37034e-05
6.48394e-05
-1.25254e-05
7.01183e-05
-1.12463e-05
7.57649e-05
-9.85987e-06
8.18959e-05
-8.36091e-06
8.85616e-05
-6.73348e-06
9.56956e-05
-4.96767e-06
0.000103414
-3.0583e-06
0.000111824
-9.80419e-07
0.000120769
1.2689e-06
0.000130552
3.70895e-06
0.000141063
6.3572e-06
0.000152392
9.22534e-06
0.000164679
1.23401e-05
0.000177839
1.57117e-05
0.000192138
1.93707e-05
0.000207442
2.33315e-05
0.000224016
2.76234e-05
0.000241793
3.22699e-05
0.000260926
3.72947e-05
0.00028151
4.27349e-05
0.000303483
4.86105e-05
0.000327115
5.49563e-05
0.000352315
6.1807e-05
0.000379136
6.91893e-05
0.000407691
7.71364e-05
0.000437902
8.56836e-05
0.00046969
9.48583e-05
0.000503021
0.000104686
0.000537709
0.000115189
0.000573473
0.000126382
0.000609935
0.000138269
0.000646562
0.000150841
0.000682633
0.000164069
0.000717188
0.000177899
0.000748969
0.000192246
0.000776354
0.000206989
0.000797281
0.00022196
0.000809139
0.000236935
0.000808692
0.000251623
0.000791917
0.000265641
0.000753901
0.000278493
0.000689034
0.000289446
0.000590241
0.000297568
0.000451254
0.000262259
0.000301629
-2.32862e-05
1.97594e-05
2.36143e-05
-2.29328e-05
2.13648e-05
-2.25506e-05
2.31008e-05
-2.2137e-05
2.49783e-05
-2.16897e-05
2.70087e-05
-2.12056e-05
2.92047e-05
-2.06819e-05
3.15798e-05
-2.01151e-05
3.41486e-05
-1.95014e-05
3.69185e-05
-1.88367e-05
3.99154e-05
-1.8118e-05
4.31639e-05
-1.73403e-05
4.66771e-05
-1.64995e-05
5.04767e-05
-1.5588e-05
5.45613e-05
-1.45997e-05
5.89699e-05
-1.35308e-05
6.37711e-05
-1.23752e-05
6.8963e-05
-1.11198e-05
7.451e-05
-9.75913e-06
8.05356e-05
-8.28773e-06
8.70907e-05
-6.69009e-06
9.40984e-05
-4.95643e-06
0.000101681
-3.0817e-06
0.00010995
-1.04141e-06
0.000118729
1.16728e-06
0.000128344
3.56332e-06
0.000138667
6.16388e-06
0.000149792
8.98044e-06
0.000161862
1.20393e-05
0.000174781
1.53505e-05
0.000188827
1.89439e-05
0.000203848
2.28339e-05
0.000220127
2.7049e-05
0.000237579
3.16127e-05
0.000256363
3.65477e-05
0.000276576
4.18908e-05
0.00029814
4.76616e-05
0.000321344
5.38941e-05
0.000346083
6.06226e-05
0.000372408
6.78732e-05
0.00040044
7.56784e-05
0.000430097
8.40728e-05
0.000461296
9.30832e-05
0.000494011
0.000102734
0.000528057
0.000113048
0.00056316
0.000124037
0.000598945
0.000135708
0.000634892
0.000148049
0.000670292
0.000161031
0.000704205
0.000174604
0.000735397
0.000188685
0.000762275
0.000203155
0.000782813
0.000217852
0.000794445
0.000232557
0.000793989
0.000246986
0.000777492
0.000260757
0.000740133
0.000273392
0.000676403
0.000284182
0.000579457
0.000292225
0.000443221
0.0002582
0.000296308
-2.29091e-05
1.94397e-05
2.32304e-05
-2.25628e-05
2.10193e-05
-2.21886e-05
2.27273e-05
-2.17838e-05
2.45743e-05
-2.13462e-05
2.65717e-05
-2.08727e-05
2.87318e-05
-2.03605e-05
3.1068e-05
-1.98061e-05
3.35948e-05
-1.92058e-05
3.63185e-05
-1.85555e-05
3.92656e-05
-1.7852e-05
4.24606e-05
-1.70909e-05
4.59162e-05
-1.62674e-05
4.96534e-05
-1.53745e-05
5.36686e-05
-1.44059e-05
5.80015e-05
-1.33582e-05
6.27236e-05
-1.2225e-05
6.783e-05
-1.09937e-05
7.32791e-05
-9.65878e-06
7.9201e-05
-8.21497e-06
8.56472e-05
-6.64701e-06
9.25307e-05
-4.94531e-06
9.99797e-05
-3.10494e-06
0.00010811
-1.10182e-06
0.000116727
1.06678e-06
0.000126176
3.41947e-06
0.000136315
5.9731e-06
0.000147239
8.73896e-06
0.000159097
1.17429e-05
0.000171777
1.49946e-05
0.000185576
1.85237e-05
0.00020032
2.2344e-05
0.000216307
2.64838e-05
0.000233439
3.09658e-05
0.000251881
3.58126e-05
0.000271729
4.10602e-05
0.000292893
4.67277e-05
0.000315677
5.28487e-05
0.000339962
5.94566e-05
0.0003658
6.65774e-05
0.000393319
7.42425e-05
0.000422432
8.24861e-05
0.000453052
9.1334e-05
0.000485163
0.000100811
0.000518581
0.000110937
0.000553034
0.000121726
0.000588156
0.000133182
0.000623437
0.000145295
0.00065818
0.000158037
0.000691464
0.000171357
0.000722076
0.000185177
0.000748454
0.000199381
0.000768607
0.000213811
0.000780012
0.000228254
0.000779543
0.000242431
0.00076331
0.000255963
0.000726593
0.000268385
0.000663968
0.000279016
0.000568808
0.00028702
0.000435191
0.000253926
0.00029125
-2.25484e-05
1.91253e-05
2.28654e-05
-2.22076e-05
2.06798e-05
-2.184e-05
2.23607e-05
-2.14426e-05
2.41781e-05
-2.10135e-05
2.61434e-05
-2.05493e-05
2.82686e-05
-2.00477e-05
3.0567e-05
-1.95048e-05
3.30527e-05
-1.89171e-05
3.57312e-05
-1.82804e-05
3.86295e-05
-1.75917e-05
4.17723e-05
-1.68462e-05
4.51713e-05
-1.60398e-05
4.88472e-05
-1.51649e-05
5.27943e-05
-1.42159e-05
5.70528e-05
-1.31888e-05
6.1697e-05
-1.20778e-05
6.67193e-05
-1.08703e-05
7.2072e-05
-9.56093e-06
7.78919e-05
-8.14438e-06
8.4231e-05
-6.60576e-06
9.09924e-05
-4.9356e-06
9.83099e-05
-3.12908e-06
0.000106303
-1.16256e-06
0.00011476
9.66629e-07
0.000124047
3.27673e-06
0.000134005
5.78428e-06
0.000144731
8.50036e-06
0.000156381
1.14503e-05
0.000168827
1.46438e-05
0.000182382
1.81096e-05
0.000196854
2.18615e-05
0.000212555
2.5927e-05
0.000229374
3.03288e-05
0.000247479
3.50887e-05
0.000266969
4.02422e-05
0.000287739
4.5808e-05
0.000310111
5.1819e-05
0.000333951
5.83081e-05
0.000359311
6.53006e-05
0.000386327
7.28275e-05
0.000414905
8.09221e-05
0.000444958
8.96097e-05
0.000476475
9.8914e-05
0.000509276
0.000108855
0.000543093
0.000119447
0.000577564
0.000130692
0.000612191
0.000142581
0.000646291
0.000155087
0.000678958
0.000168162
0.000709002
0.000181727
0.000734889
0.000195673
0.000754662
0.000209844
0.000765844
0.000224033
0.000765356
0.000237965
0.000749383
0.000251266
0.000713296
0.000263479
0.000651761
0.000273951
0.000558345
0.00028193
0.000427225
0.000249517
0.000286366
-2.22166e-05
1.8815e-05
2.25288e-05
-2.18808e-05
2.0345e-05
-2.15187e-05
2.19992e-05
-2.11275e-05
2.37878e-05
-2.07053e-05
2.57217e-05
-2.02489e-05
2.7813e-05
-1.9756e-05
3.00745e-05
-1.92229e-05
3.25202e-05
-1.86461e-05
3.51547e-05
-1.80214e-05
3.80053e-05
-1.73459e-05
4.10969e-05
-1.66149e-05
4.44405e-05
-1.5824e-05
4.80565e-05
-1.49662e-05
5.19366e-05
-1.40354e-05
5.61221e-05
-1.30281e-05
6.06899e-05
-1.19382e-05
6.56296e-05
-1.07535e-05
7.08876e-05
-9.46871e-06
7.66073e-05
-8.07857e-06
8.28412e-05
-6.56843e-06
8.94826e-05
-4.92898e-06
9.66708e-05
-3.1555e-06
0.00010453
-1.22472e-06
0.00011283
8.65903e-07
0.000121957
3.13433e-06
0.000131737
5.59676e-06
0.000142269
8.26407e-06
0.000153714
1.11611e-05
0.00016593
1.42973e-05
0.000179246
1.7701e-05
0.00019345
2.13856e-05
0.00020887
2.53783e-05
0.000225381
2.9701e-05
0.000243157
3.43754e-05
0.000262295
3.94361e-05
0.000282679
4.49016e-05
0.000304646
5.08042e-05
0.000328049
5.7176e-05
0.000352939
6.40419e-05
0.000379461
7.14324e-05
0.000407515
7.93799e-05
0.00043701
8.79094e-05
0.000467946
9.70439e-05
0.000500142
0.000106803
0.000533334
0.0001172
0.000567168
0.000128239
0.000601154
0.000139909
0.000634621
0.000152185
0.000666682
0.00016502
0.000696167
0.000178339
0.00072157
0.000192034
0.000740965
0.000205956
0.000751921
0.000219899
0.000751411
0.000233594
0.000735684
0.00024667
0.000700212
0.000258679
0.000639741
0.000268991
0.000548016
0.000276936
0.000419258
0.000244844
0.000281568
-2.19175e-05
1.85084e-05
2.22263e-05
-2.15857e-05
2.00142e-05
-2.1228e-05
2.16423e-05
-2.08419e-05
2.34026e-05
-2.04255e-05
2.5306e-05
-1.99756e-05
2.7364e-05
-1.94901e-05
2.95895e-05
-1.89653e-05
3.19961e-05
-1.83979e-05
3.45876e-05
-1.77836e-05
3.73916e-05
-1.71196e-05
4.04332e-05
-1.64012e-05
4.37226e-05
-1.56244e-05
4.72799e-05
-1.47818e-05
5.10946e-05
-1.38679e-05
5.52084e-05
-1.28788e-05
5.97013e-05
-1.18088e-05
6.45598e-05
-1.06457e-05
6.97249e-05
-9.38431e-06
7.53462e-05
-8.01943e-06
8.14767e-05
-6.53669e-06
8.80001e-05
-4.9269e-06
9.50613e-05
-3.18542e-06
0.000102789
-1.28939e-06
0.000110934
7.63705e-07
0.000119904
2.99148e-06
0.000129509
5.40983e-06
0.000139851
8.02942e-06
0.000151094
1.08746e-05
0.000163085
1.39547e-05
0.000176166
1.72974e-05
0.000190108
2.09159e-05
0.000205252
2.48367e-05
0.00022146
2.90817e-05
0.000238912
3.36718e-05
0.000257705
3.86412e-05
0.000277709
4.40079e-05
0.000299279
4.98035e-05
0.000322253
5.60597e-05
0.000346683
6.28008e-05
0.00037272
7.00568e-05
0.000400258
7.78594e-05
0.000429207
8.62331e-05
0.000459572
9.52005e-05
0.000491174
0.000104781
0.000523753
0.000114988
0.000556961
0.000125824
0.000590317
0.00013728
0.000623164
0.000149333
0.000654629
0.000161935
0.000683565
0.000175015
0.00070849
0.000188469
0.000727513
0.000202148
0.000738244
0.000215853
0.000737709
0.000229317
0.000722225
0.000242176
0.000687359
0.000253985
0.000627939
0.000264138
0.000537873
0.000272025
0.000411386
0.000240098
0.000276802
-2.16498e-05
1.82051e-05
2.19544e-05
-2.13219e-05
1.9687e-05
-2.09683e-05
2.12892e-05
-2.05867e-05
2.30217e-05
-2.01751e-05
2.48948e-05
-1.97308e-05
2.69203e-05
-1.92514e-05
2.91105e-05
-1.87336e-05
3.14789e-05
-1.8174e-05
3.40282e-05
-1.75686e-05
3.67866e-05
-1.69147e-05
3.97794e-05
-1.62076e-05
4.30157e-05
-1.54431e-05
4.65155e-05
-1.46145e-05
5.0266e-05
-1.37158e-05
5.43097e-05
-1.27436e-05
5.87292e-05
-1.16918e-05
6.35083e-05
-1.05489e-05
6.85822e-05
-9.30947e-06
7.41069e-05
-7.96851e-06
8.0136e-05
-6.51185e-06
8.65437e-05
-4.93047e-06
9.34802e-05
-3.2198e-06
0.000101079
-1.35736e-06
0.000109072
6.59318e-07
0.000117887
2.84755e-06
0.000127321
5.22291e-06
0.000137476
7.79587e-06
0.000148522
1.05903e-05
0.000160291
1.36153e-05
0.000173142
1.68982e-05
0.000186825
2.04516e-05
0.000201699
2.4302e-05
0.00021761
2.84703e-05
0.000234744
3.29775e-05
0.000253198
3.78569e-05
0.00027283
4.31263e-05
0.00029401
4.88166e-05
0.000316563
5.4959e-05
0.00034054
6.15772e-05
0.000366101
6.87007e-05
0.000393135
7.63608e-05
0.000421547
8.45814e-05
0.000451351
9.33848e-05
0.000482371
0.00010279
0.000514347
0.00011281
0.000546941
0.000123448
0.000579679
0.000134697
0.000611916
0.000146532
0.000642795
0.000158909
0.000671188
0.000171758
0.000695641
0.000184977
0.000714294
0.000198421
0.000724799
0.000211894
0.000724235
0.000225134
0.000708982
0.00023778
0.000674707
0.000249395
0.000616315
0.000259388
0.000527865
0.000267194
0.00040356
0.000235211
0.000272045
-2.14057e-05
1.7906e-05
2.17074e-05
-2.10814e-05
1.9364e-05
-2.07319e-05
2.09406e-05
-2.03545e-05
2.26454e-05
-1.99477e-05
2.44887e-05
-1.95085e-05
2.6482e-05
-1.9035e-05
2.86374e-05
-1.85236e-05
3.09682e-05
-1.79713e-05
3.34762e-05
-1.7374e-05
3.61899e-05
-1.67292e-05
3.91347e-05
-1.60321e-05
4.23191e-05
-1.52791e-05
4.57626e-05
-1.44629e-05
4.94503e-05
-1.35783e-05
5.34253e-05
-1.26215e-05
5.77728e-05
-1.15869e-05
6.24739e-05
-1.04628e-05
6.74585e-05
-9.24419e-06
7.28885e-05
-7.92589e-06
7.8818e-05
-6.49414e-06
8.51121e-05
-4.93997e-06
9.19264e-05
-3.25895e-06
9.93979e-05
-1.42897e-06
0.000107242
5.52403e-07
0.000115906
2.70218e-06
0.000125172
5.03565e-06
0.000135143
7.56304e-06
0.000145994
1.03079e-05
0.000157546
1.32789e-05
0.000170171
1.6503e-05
0.000183601
1.99927e-05
0.000198209
2.37736e-05
0.000213829
2.78667e-05
0.000230651
3.22923e-05
0.000248773
3.70832e-05
0.000268039
4.22568e-05
0.000288836
4.78436e-05
0.000310976
5.3874e-05
0.00033451
6.03714e-05
0.000359604
6.73648e-05
0.000386141
7.48849e-05
0.000414027
8.29553e-05
0.00044328
9.1598e-05
0.000473728
0.000100832
0.000505113
0.00011067
0.000537103
0.000121115
0.000569233
0.000132162
0.00060087
0.000143785
0.000631171
0.000155943
0.00065903
0.000168567
0.000683016
0.000181559
0.000701304
0.000194775
0.000711586
0.000208023
0.000710991
0.000221042
0.000695968
0.000233481
0.000662274
0.000244904
0.0006049
0.00025474
0.000518041
0.00026244
0.000395878
0.000230386
0.000267299
-2.11781e-05
1.76109e-05
2.14746e-05
-2.08585e-05
1.90452e-05
-2.05136e-05
2.05962e-05
-2.0141e-05
2.22735e-05
-1.97392e-05
2.40873e-05
-1.93052e-05
2.60488e-05
-1.88373e-05
2.81698e-05
-1.83321e-05
3.04635e-05
-1.77865e-05
3.29308e-05
-1.71968e-05
3.56005e-05
-1.65603e-05
3.84983e-05
-1.58727e-05
4.16317e-05
-1.51301e-05
4.502e-05
-1.43257e-05
4.86461e-05
-1.34541e-05
5.25537e-05
-1.25118e-05
5.68307e-05
-1.14932e-05
6.14554e-05
-1.03869e-05
6.63524e-05
-9.18785e-06
7.16896e-05
-7.89113e-06
7.75216e-05
-6.48313e-06
8.37043e-05
-4.95508e-06
9.03986e-05
-3.30263e-06
9.77456e-05
-1.50404e-06
0.000105444
4.43062e-07
0.000113959
2.55542e-06
0.00012306
4.84801e-06
0.00013285
7.33089e-06
0.000143512
1.00271e-05
0.00015485
1.29452e-05
0.000167253
1.61117e-05
0.000180435
1.95387e-05
0.000194782
2.32516e-05
0.000210117
2.72707e-05
0.000226632
3.16161e-05
0.000244427
3.63201e-05
0.000263335
4.13997e-05
0.000283757
4.68848e-05
0.000305491
5.28053e-05
0.000328589
5.91843e-05
0.000353225
6.60501e-05
0.000379275
7.3433e-05
0.000406644
8.13564e-05
0.000435357
8.98418e-05
0.000465243
9.89082e-05
0.000496047
0.000108568
0.000527444
0.000118826
0.000558976
0.000129675
0.000590022
0.000141093
0.000619754
0.000153039
0.000647084
0.000165445
0.00067061
0.000178215
0.000688534
0.000191209
0.000698592
0.000204236
0.000697964
0.00021704
0.000683161
0.000229274
0.000650036
0.00024051
0.000593657
0.000250187
0.000508352
0.000257766
0.000388281
0.000225543
0.000262576
-2.0957e-05
1.73208e-05
2.1249e-05
-2.06423e-05
1.87315e-05
-2.03026e-05
2.02572e-05
-1.99354e-05
2.19072e-05
-1.95392e-05
2.36916e-05
-1.91111e-05
2.56215e-05
-1.86494e-05
2.77085e-05
-1.81508e-05
2.99655e-05
-1.76124e-05
3.23926e-05
-1.70303e-05
3.5019e-05
-1.64023e-05
3.78704e-05
-1.57238e-05
4.09537e-05
-1.49914e-05
4.42877e-05
-1.41982e-05
4.78534e-05
-1.33392e-05
5.16948e-05
-1.24108e-05
5.59026e-05
-1.14077e-05
6.04525e-05
-1.03185e-05
6.52635e-05
-9.13835e-06
7.05096e-05
-7.86244e-06
7.6246e-05
-6.47743e-06
8.23195e-05
-4.97467e-06
8.88961e-05
-3.34994e-06
9.61211e-05
-1.58187e-06
0.000103676
3.31857e-07
0.000112046
2.4077e-06
0.000120984
4.66035e-06
0.000130598
7.09966e-06
0.000141072
9.74824e-06
0.000152202
1.26146e-05
0.000164386
1.57245e-05
0.000177325
1.90901e-05
0.000191417
2.27361e-05
0.000206471
2.66827e-05
0.000222685
3.09494e-05
0.00024016
3.55682e-05
0.000258716
4.05555e-05
0.000278769
4.59409e-05
0.000300105
5.17538e-05
0.000322776
5.80167e-05
0.000346961
6.47576e-05
0.000372534
7.20064e-05
0.000399395
7.97861e-05
0.000427577
8.8118e-05
0.00045691
9.7021e-05
0.000487143
0.000106508
0.000517956
0.000116583
0.0005489
0.00012724
0.000579364
0.000138458
0.000608536
0.000150197
0.000635346
0.00016239
0.000658416
0.000174944
0.000675982
0.000187721
0.000685818
0.000200531
0.000685158
0.000213123
0.000670575
0.000225155
0.00063801
0.000236205
0.000582615
0.000245725
0.000498845
0.00025317
0.000380855
0.000220857
0.000257894
-2.07367e-05
1.70358e-05
2.10226e-05
-2.04277e-05
1.84231e-05
-2.00937e-05
1.99236e-05
-1.97325e-05
2.15465e-05
-1.93424e-05
2.33018e-05
-1.89207e-05
2.52003e-05
-1.84656e-05
2.72536e-05
-1.7974e-05
2.94743e-05
-1.7443e-05
3.18617e-05
-1.68691e-05
3.44454e-05
-1.62497e-05
3.72511e-05
-1.55808e-05
4.0285e-05
-1.48587e-05
4.35656e-05
-1.4077e-05
4.70718e-05
-1.32305e-05
5.08483e-05
-1.23159e-05
5.49882e-05
-1.13278e-05
5.94645e-05
-1.02554e-05
6.41913e-05
-9.09369e-06
6.93481e-05
-7.83807e-06
7.49906e-05
-6.47545e-06
8.09571e-05
-4.99736e-06
8.74183e-05
-3.39966e-06
9.45236e-05
-1.66139e-06
0.000101938
2.1969e-07
0.000110165
2.25979e-06
0.000118944
4.47331e-06
0.000128384
6.86993e-06
0.000138676
9.47182e-06
0.0001496
1.22873e-05
0.000161571
1.53418e-05
0.00017427
1.86472e-05
0.000188111
2.22277e-05
0.00020289
2.6103e-05
0.00021881
3.02928e-05
0.00023597
3.4828e-05
0.000254181
3.9725e-05
0.000273872
4.50128e-05
0.000294817
5.07203e-05
0.000317068
5.68698e-05
0.000340812
6.34887e-05
0.000365915
7.06065e-05
0.000392277
7.82459e-05
0.000419938
8.64281e-05
0.000448728
9.51717e-05
0.0004784
0.00010449
0.000508639
0.000114386
0.000539004
0.000124857
0.000568895
0.000135879
0.000597513
0.000147416
0.00062381
0.000159402
0.00064643
0.000171745
0.00066364
0.000184308
0.000673256
0.000196905
0.000672562
0.000209288
0.000658191
0.00022112
0.000626175
0.000231985
0.000571744
0.000241347
0.000489473
0.000248653
0.000373533
0.000216216
0.000253265
-2.05108e-05
1.67566e-05
2.07923e-05
-2.02074e-05