/*--------------------------------*- C++ -*----------------------------------*\
  =========                 |
  \\      /  F ield         | OpenFOAM: The Open Source CFD Toolbox
   \\    /   O peration     | Website:  https://openfoam.org
    \\  /    A nd           | Version:  6.0
     \\/     M anipulation  |
\*---------------------------------------------------------------------------*/
FoamFile
{
    version     2.0;
    format      ascii;
    class       surfaceScalarField;
    location    "16";
    object      phi;
}
// * * * * * * * * * * * * * * * * * * * * * * * * * * * * * * * * * * * * * //

dimensions      [0 3 -1 0 0 0 0];

internalField   nonuniform List<scalar> 
123526
(
8.14597e-05
2.26089e-05
-8.10715e-05
8.18732e-05
2.44364e-05
8.2324e-05
2.6411e-05
8.28077e-05
2.85439e-05
8.33331e-05
3.08479e-05
8.38983e-05
3.33364e-05
8.45119e-05
3.60238e-05
8.51724e-05
3.89257e-05
8.58913e-05
4.20584e-05
8.66647e-05
4.54412e-05
8.75062e-05
4.9094e-05
8.84097e-05
5.30369e-05
8.93945e-05
5.72922e-05
9.04533e-05
6.18818e-05
9.16108e-05
6.68326e-05
9.28535e-05
7.21753e-05
9.42079e-05
7.79365e-05
9.56689e-05
8.41422e-05
9.72616e-05
9.08327e-05
9.89752e-05
9.80437e-05
0.000100842
0.000105804
0.000102858
0.000114159
0.000105044
0.000123154
0.00010741
0.000132816
0.000109974
0.00014321
0.000112744
0.000154369
0.000115746
0.000166343
0.000118986
0.000179184
0.000122493
0.000192933
0.000126276
0.000207647
0.000130362
0.00022336
0.000134767
0.000240124
0.000139519
0.000257969
0.000144639
0.000276927
0.000150144
0.000297018
0.000156059
0.00031824
0.000162405
0.000340586
0.000169206
0.000364013
0.000176483
0.000388448
0.000184253
0.000413782
0.000192532
0.000439849
0.00020133
0.000466418
0.000210653
0.000493179
0.000220499
0.000519719
0.000230852
0.0005455
0.000241686
0.000569829
0.000252957
0.000591824
0.000264597
0.000610373
0.000276517
0.000624081
0.000288586
0.000631227
0.000300644
0.000629688
0.000312469
0.000616917
0.000323793
0.00058985
0.00033426
0.000544991
0.000343435
0.000478396
0.000350761
0.000385821
0.000355978
0.0002631
0.000356519
0.00011166
0.000361645
-8.19183e-05
-0.000359786
0.000396192
8.03365e-05
2.22312e-05
-7.99538e-05
8.07426e-05
2.40286e-05
8.11857e-05
2.59708e-05
8.16601e-05
2.80688e-05
8.21756e-05
3.03348e-05
8.27289e-05
3.27822e-05
8.33293e-05
3.5425e-05
8.39751e-05
3.82784e-05
8.46772e-05
4.13573e-05
8.54331e-05
4.46825e-05
8.62547e-05
4.82735e-05
8.71381e-05
5.21494e-05
8.80997e-05
5.6332e-05
8.9136e-05
6.08407e-05
9.0267e-05
6.57032e-05
9.14844e-05
7.09532e-05
9.28089e-05
7.66139e-05
9.42414e-05
8.27056e-05
9.58008e-05
8.92751e-05
9.74826e-05
9.63585e-05
9.93133e-05
0.000103975
0.000101293
0.000112176
0.000103439
0.00012101
0.000105765
0.000130489
0.000108283
0.000140693
0.000111006
0.000151644
0.000113956
0.000163394
0.000117142
0.000175999
0.00012059
0.000189487
0.000124308
0.000203928
0.000128324
0.000219344
0.000132654
0.000235795
0.000137324
0.000253302
0.000142355
0.000271902
0.000147764
0.000291613
0.000153575
0.000312431
0.000159808
0.000334354
0.000166488
0.000357335
0.000173634
0.000381303
0.000181263
0.000406153
0.00018939
0.00043172
0.000198027
0.000457779
0.000207176
0.000484025
0.000216836
0.000510053
0.000226991
0.000535335
0.000237616
0.000559192
0.000248667
0.000580759
0.000260078
0.000598942
0.000271762
0.000612376
0.00028359
0.000619369
0.000295409
0.000617843
0.000306995
0.000605296
0.00031809
0.00057874
0.000328336
0.000534738
0.000337309
0.000469436
0.000344455
0.000378693
0.000349268
0.000258355
0.000351714
0.000109335
0.000349263
-7.92449e-05
-0.000347272
0.000336845
7.92137e-05
2.18605e-05
-7.88381e-05
7.96126e-05
2.36285e-05
8.00472e-05
2.55389e-05
8.05128e-05
2.76025e-05
8.10186e-05
2.98312e-05
8.1562e-05
3.22379e-05
8.21521e-05
3.48364e-05
8.27872e-05
3.76416e-05
8.34782e-05
4.06673e-05
8.42221e-05
4.39356e-05
8.50306e-05
4.74658e-05
8.58998e-05
5.12758e-05
8.68455e-05
5.53872e-05
8.78644e-05
5.98169e-05
8.89756e-05
6.45933e-05
9.01715e-05
6.97526e-05
9.14718e-05
7.53152e-05
9.2878e-05
8.12955e-05
9.44083e-05
8.77466e-05
9.6059e-05
9.47049e-05
9.78555e-05
0.000102181
9.97993e-05
0.00011023
0.000101906
0.000118905
0.00010419
0.000128203
0.000106663
0.000138221
0.000109338
0.000148969
0.000112236
0.000160498
0.000115366
0.000172869
0.000118753
0.000186102
0.000122407
0.000200275
0.000126351
0.000215398
0.000130605
0.000231542
0.000135192
0.000248718
0.000140133
0.000266968
0.000145445
0.000286308
0.00015115
0.00030673
0.00015727
0.000328239
0.000163826
0.000350783
0.000170839
0.000374295
0.000178325
0.000398672
0.000186299
0.000423751
0.00019477
0.000449312
0.000203741
0.000475057
0.000213211
0.000500587
0.000223164
0.000525385
0.000233574
0.000548785
0.0002444
0.000569938
0.000255576
0.00058777
0.000267019
0.000600943
0.000278601
0.000607795
0.000290172
0.000606293
0.000301511
0.000593981
0.000312366
0.000567935
0.00032238
0.000524788
0.00033114
0.000460772
0.000338118
0.000371833
0.000342803
0.000253846
0.000344757
0.000107597
0.000344579
-7.88235e-05
-0.000348407
0.000345917
7.80406e-05
2.14997e-05
-7.76755e-05
7.8428e-05
2.32394e-05
7.88509e-05
2.5119e-05
7.93039e-05
2.71487e-05
7.97975e-05
2.93402e-05
8.03285e-05
3.17062e-05
8.09066e-05
3.42604e-05
8.15299e-05
3.7017e-05
8.22098e-05
3.99891e-05
8.29432e-05
4.31999e-05
8.37418e-05
4.66688e-05
8.46014e-05
5.04128e-05
8.55373e-05
5.44531e-05
8.6546e-05
5.88044e-05
8.76458e-05
6.34956e-05
8.8829e-05
6.85657e-05
9.01143e-05
7.40321e-05
9.15032e-05
7.99036e-05
9.30126e-05
8.62393e-05
9.46397e-05
9.30755e-05
9.64084e-05
0.000100414
9.83212e-05
0.000108315
0.000100393
0.000116836
0.000102638
0.000125957
0.000105069
0.000135792
0.000107698
0.000146339
0.000110545
0.000157652
0.00011362
0.000169794
0.000116947
0.000182776
0.000120536
0.000196687
0.00012441
0.000211523
0.000128587
0.000227365
0.000133092
0.000244218
0.000137943
0.000262123
0.000143158
0.0002811
0.000148759
0.000301135
0.000154765
0.000322238
0.000161198
0.000344355
0.000168079
0.000367422
0.000175422
0.000391336
0.000183242
0.000415939
0.000191548
0.000441015
0.000200344
0.000466271
0.000209625
0.000491315
0.000219379
0.000515642
0.000229579
0.000538595
0.000240185
0.000559342
0.000251134
0.00057683
0.000262345
0.000589744
0.000273692
0.000596455
0.000285029
0.00059497
0.000296138
0.000582885
0.000306773
0.000557341
0.000316587
0.000515033
0.00032518
0.000452265
0.000332066
0.000365055
0.000336745
0.000249339
0.000338944
0.000105659
0.000338495
-7.80074e-05
-0.000342901
0.00033319
7.68139e-05
2.11515e-05
-7.64604e-05
7.71889e-05
2.28635e-05
7.75987e-05
2.47121e-05
7.80396e-05
2.67074e-05
7.85208e-05
2.88613e-05
7.90402e-05
3.11863e-05
7.96063e-05
3.36959e-05
8.02183e-05
3.64038e-05
8.08864e-05
3.9322e-05
8.16091e-05
4.24749e-05
8.2397e-05
4.58818e-05
8.32474e-05
4.9559e-05
8.41741e-05
5.35275e-05
8.5175e-05
5.77996e-05
8.62665e-05
6.24053e-05
8.74422e-05
6.73864e-05
8.87186e-05
7.27572e-05
9.00981e-05
7.85213e-05
9.15954e-05
8.47437e-05
9.32078e-05
9.1461e-05
9.49578e-05
9.86659e-05
9.68479e-05
0.000106424
9.88916e-05
0.000114794
0.000101104
0.000123743
0.000103498
0.000133401
0.000106084
0.000143753
0.000108883
0.000154854
0.000111906
0.000166773
0.000115174
0.00017951
0.000118699
0.000193162
0.000122503
0.000207718
0.000126604
0.000223264
0.000131027
0.000239799
0.000135789
0.000257368
0.000140908
0.000275988
0.000146405
0.000295643
0.000152299
0.00031635
0.000158611
0.000338049
0.000165362
0.000360679
0.000172564
0.000384141
0.000180234
0.000408279
0.000188378
0.000432879
0.000197001
0.000457656
0.000206099
0.000482226
0.000215659
0.00050609
0.000225657
0.000528607
0.000236053
0.000548957
0.000246785
0.000566108
0.000257775
0.00057877
0.000268901
0.000585344
0.000280018
0.000583879
0.000290911
0.000572018
0.000301344
0.000546958
0.000310976
0.000505464
0.000319416
0.000443916
0.000326211
0.000358366
0.000330847
0.000244858
0.00033289
0.000103792
0.000332627
-7.75531e-05
-0.000338814
0.0003287
7.55662e-05
2.08123e-05
-7.52231e-05
7.59328e-05
2.24955e-05
7.63353e-05
2.43122e-05
7.67694e-05
2.62726e-05
7.72442e-05
2.83887e-05
7.77571e-05
3.06729e-05
7.83161e-05
3.31385e-05
7.892e-05
3.57988e-05
7.95789e-05
3.86645e-05
8.02907e-05
4.17609e-05
8.10667e-05
4.51071e-05
8.19041e-05
4.87184e-05
8.28176e-05
5.26155e-05
8.38049e-05
5.68087e-05
8.48832e-05
6.13288e-05
8.60459e-05
6.62204e-05
8.73101e-05
7.1495e-05
8.86774e-05
7.71513e-05
9.01625e-05
8.32607e-05
9.17619e-05
8.98597e-05
9.34969e-05
9.69329e-05
9.53692e-05
0.00010455
9.73912e-05
0.000112773
9.95777e-05
0.000121556
0.000101939
0.000131041
0.000104488
0.000141203
0.000107244
0.0001521
0.000110217
0.0001638
0.00011343
0.000176298
0.000116894
0.000189699
0.00012063
0.000203981
0.000124657
0.000219238
0.000128999
0.000235462
0.000133673
0.0002527
0.000138696
0.000270972
0.000144089
0.000290255
0.000149872
0.000310573
0.000156066
0.000331862
0.000162687
0.000354065
0.000169752
0.000377085
0.000177273
0.000400767
0.000185259
0.000424903
0.000193714
0.000449213
0.000202635
0.000473318
0.000212008
0.000496731
0.000221811
0.000518819
0.000232004
0.00053878
0.000242528
0.0005556
0.000253305
0.000568012
0.000264216
0.00057445
0.000275119
0.000573001
0.000285803
0.000561357
0.000296035
0.000536776
0.000305485
0.000496086
0.000313766
0.000435732
0.000320443
0.000351813
0.000324999
0.000240486
0.000327054
0.000102019
0.000326704
-7.68224e-05
-0.000334689
0.000322794
7.44109e-05
2.04738e-05
-7.40678e-05
7.47785e-05
2.21269e-05
7.51819e-05
2.39115e-05
7.56166e-05
2.58375e-05
7.60909e-05
2.79166e-05
7.66019e-05
3.01613e-05
7.71576e-05
3.25845e-05
7.7756e-05
3.51992e-05
7.84067e-05
3.80151e-05
7.91075e-05
4.10581e-05
7.98689e-05
4.43468e-05
8.06889e-05
4.78955e-05
8.15813e-05
5.17244e-05
8.25455e-05
5.58414e-05
8.35977e-05
6.02779e-05
8.47339e-05
6.50813e-05
8.59701e-05
7.02603e-05
8.73103e-05
7.58088e-05
8.87685e-05
8.18042e-05
9.03426e-05
8.8284e-05
9.20527e-05
9.52246e-05
9.39004e-05
0.000102701
9.58968e-05
0.000110779
9.80555e-05
0.000119396
0.000100386
0.000128712
0.0001029
0.000138689
0.000105615
0.000149386
0.000108543
0.000160874
0.000111703
0.000173139
0.000115108
0.000186295
0.00011878
0.000200309
0.000122735
0.000215283
0.000126997
0.000231203
0.000131585
0.000248119
0.000136514
0.000266049
0.000141806
0.000284968
0.00014748
0.000304904
0.000153555
0.000325793
0.00016005
0.000347577
0.00016698
0.000370164
0.000174356
0.000393399
0.000182189
0.000417079
0.000190481
0.000440929
0.000199229
0.000464578
0.000208422
0.000487546
0.000218035
0.000509214
0.000228033
0.000528792
0.000238355
0.000545286
0.000248926
0.000557454
0.000259628
0.000563758
0.000270323
0.000562326
0.0002808
0.000550895
0.000290835
0.000526778
0.000300102
0.000486865
0.000308225
0.000427678
0.000314778
0.000345339
0.000319278
0.000236097
0.000321368
0.000100042
0.000320922
-7.62606e-05
-0.000330885
0.000317227
7.34403e-05
2.01296e-05
-7.30932e-05
7.38133e-05
2.17524e-05
7.42213e-05
2.35058e-05
7.4659e-05
2.53989e-05
7.51347e-05
2.74429e-05
7.56453e-05
2.96501e-05
7.61985e-05
3.2033e-05
7.67921e-05
3.46045e-05
7.74353e-05
3.73734e-05
7.81251e-05
4.03663e-05
7.88718e-05
4.36014e-05
7.96725e-05
4.70918e-05
8.05414e-05
5.0857e-05
8.14768e-05
5.49026e-05
8.24961e-05
5.92605e-05
8.35944e-05
6.398e-05
8.47896e-05
6.90671e-05
8.60857e-05
7.45104e-05
8.74986e-05
8.03933e-05
8.90273e-05
8.67538e-05
9.06927e-05
9.3561e-05
9.24975e-05
0.000100896
9.44523e-05
0.000108826
9.65705e-05
0.000117277
9.88603e-05
0.000126424
0.000101332
0.000136217
0.000104004
0.000146716
0.000106883
0.000157996
0.000109991
0.000170032
0.000113339
0.000182948
0.000116946
0.0001967
0.000120831
0.000211398
0.000125017
0.000227022
0.00012952
0.000243621
0.000134358
0.000261217
0.000139551
0.000279779
0.000145118
0.000299343
0.000151078
0.000319839
0.000157449
0.000341212
0.000164247
0.000363375
0.000171482
0.000386172
0.000179166
0.000409406
0.0001873
0.000432807
0.000195882
0.000456009
0.0002049
0.000478542
0.000214332
0.000499797
0.000224142
0.000519
0.00023427
0.000535175
0.000244643
0.000547102
0.000255143
0.000553276
0.000265636
0.00055186
0.000275915
0.000540641
0.000285758
0.000516983
0.00029485
0.000477841
0.000302823
0.000419799
0.000309259
0.000339021
0.000313716
0.000231814
0.000315849
9.8177e-05
0.000315299
-7.53521e-05
-0.000326929
0.000311547
7.2667e-05
1.97805e-05
-7.23127e-05
7.30444e-05
2.13745e-05
7.34544e-05
2.30986e-05
7.38925e-05
2.49608e-05
7.43659e-05
2.69717e-05
7.48727e-05
2.91432e-05
7.54196e-05
3.14876e-05
7.60058e-05
3.40176e-05
7.66391e-05
3.67411e-05
7.73179e-05
3.9686e-05
7.80502e-05
4.28701e-05
7.88343e-05
4.63054e-05
7.96816e-05
5.00108e-05
8.0592e-05
5.39895e-05
8.15799e-05
5.82738e-05
8.26421e-05
6.29153e-05
8.37941e-05
6.79164e-05
8.50421e-05
7.32605e-05
8.64008e-05
7.90361e-05
8.7872e-05
8.52812e-05
8.94773e-05
9.19574e-05
9.12214e-05
9.91506e-05
9.31162e-05
0.000106933
9.51759e-05
0.000115217
9.74086e-05
0.000124193
9.98249e-05
0.000133801
0.00010244
0.000144102
0.000105263
0.000155174
0.000108313
0.000166984
0.000111599
0.000179663
0.000115141
0.000193158
0.000118955
0.000207585
0.000123063
0.000222916
0.000127484
0.000239207
0.000132232
0.000256475
0.000137328
0.000274688
0.00014279
0.000293886
0.000148638
0.000313997
0.000154889
0.000334967
0.000161558
0.000356712
0.000168658
0.00037908
0.000176196
0.000401875
0.000184178
0.000424832
0.0001926
0.000447594
0.000201451
0.000469698
0.000210708
0.000490546
0.000220337
0.000509379
0.000230279
0.000525238
0.000240461
0.000536928
0.000250768
0.000542973
0.000261068
0.000541573
0.000271156
0.000530558
0.000280816
0.000507343
0.000289743
0.000468945
0.000297574
0.000412013
0.000303902
0.000332743
0.000308313
0.00022747
0.000310465
9.6075e-05
0.000309814
-7.46596e-05
-0.000322945
0.000305883
7.20294e-05
1.94314e-05
-7.16771e-05
7.2404e-05
2.09988e-05
7.28095e-05
2.26953e-05
7.32416e-05
2.45282e-05
7.37077e-05
2.65075e-05
7.42058e-05
2.86447e-05
7.4743e-05
3.09518e-05
7.53185e-05
3.34413e-05
7.59403e-05
3.61203e-05
7.66066e-05
3.90179e-05
7.73257e-05
4.21519e-05
7.80949e-05
4.55333e-05
7.89261e-05
4.91808e-05
7.98171e-05
5.30952e-05
8.07828e-05
5.73096e-05
8.18178e-05
6.18775e-05
8.29374e-05
6.67984e-05
8.41457e-05
7.20502e-05
8.54577e-05
7.77259e-05
8.68746e-05
8.3863e-05
8.84189e-05
9.04149e-05
9.0097e-05
9.74717e-05
9.19224e-05
0.000105109
9.39111e-05
0.000113228
9.60726e-05
0.000122033
9.84187e-05
0.000131455
0.000100965
0.000141557
0.000103719
0.000152421
0.0001067
0.000164004
0.000109917
0.000176448
0.000113387
0.000189687
0.000117125
0.000203846
0.000121155
0.00021889
0.000125491
0.000234876
0.000130149
0.000251822
0.000135149
0.000269692
0.000140508
0.000288531
0.000146246
0.000308264
0.00015238
0.00032884
0.000158924
0.000350176
0.000165891
0.000372121
0.00017329
0.000394485
0.000181124
0.000417009
0.000189391
0.000439339
0.00019808
0.000461022
0.00020717
0.000481472
0.000216624
0.000499941
0.000226386
0.000515492
0.000236385
0.00052695
0.000246506
0.00053287
0.00025662
0.000531487
0.000266524
0.000520674
0.000276009
0.000497901
0.000284776
0.000460238
0.000292472
0.000404399
0.000298697
0.000326623
0.000303055
0.000223264
0.000305192
9.41761e-05
0.000304448
-7.35964e-05
-0.000318629
0.000300314
7.14525e-05
1.90891e-05
-7.1106e-05
7.18186e-05
2.06319e-05
7.22141e-05
2.23023e-05
7.26352e-05
2.41068e-05
7.30895e-05
2.60553e-05
7.35749e-05
2.81589e-05
7.40988e-05
3.04294e-05
7.46605e-05
3.28788e-05
7.52684e-05
3.55136e-05
7.59209e-05
3.8364e-05
7.6626e-05
4.14478e-05
7.73818e-05
4.47754e-05
7.81986e-05
4.83651e-05
7.90757e-05
5.22158e-05
8.00252e-05
5.63613e-05
8.10431e-05
6.08576e-05
8.21415e-05
6.57014e-05
8.33246e-05
7.08655e-05
8.46044e-05
7.64476e-05
8.5982e-05
8.24844e-05
8.74779e-05
8.89205e-05
8.90994e-05
9.58497e-05
9.08603e-05
0.00010335
9.27785e-05
0.00011131
9.48653e-05
0.000119948
9.71342e-05
0.000129187
9.96021e-05
0.000139091
0.000102278
0.000149746
0.000105181
0.000161103
0.000108318
0.000173311
0.000111709
0.000186296
0.000115366
0.000200189
0.000119311
0.000214948
0.00012356
0.000230633
0.000128126
0.000247261
0.000133029
0.000264793
0.000138286
0.000283278
0.000143915
0.00030264
0.000149934
0.000322827
0.000156356
0.00034376
0.000163194
0.00036529
0.000170456
0.00038723
0.000178146
0.000409325
0.000186263
0.000431229
0.000194795
0.000452496
0.000203721
0.000472551
0.000213005
0.000490662
0.000222593
0.000505907
0.000232413
0.000517136
0.000242353
0.00052293
0.000252285
0.000521562
0.000262011
0.000510944
0.000271326
0.000488596
0.000279938
0.000451642
0.000287502
0.000396861
0.000293628
0.000320523
0.000297929
0.000218995
0.000300017
9.20897e-05
0.000299191
-7.27859e-05
-0.000314313
0.000294889
7.08699e-05
1.87575e-05
-7.05361e-05
7.12234e-05
2.02771e-05
7.16057e-05
2.19219e-05
7.20133e-05
2.36985e-05
7.24539e-05
2.56165e-05
7.29254e-05
2.76868e-05
7.34353e-05
2.99209e-05
7.39827e-05
3.23306e-05
7.45762e-05
3.49213e-05
7.52139e-05
3.77245e-05
7.59049e-05
4.0758e-05
7.66463e-05
4.40313e-05
7.745e-05
4.75628e-05
7.83135e-05
5.13494e-05
7.92506e-05
5.54257e-05
8.02553e-05
5.98503e-05
8.13408e-05
6.46176e-05
8.25088e-05
6.96958e-05
8.37706e-05
7.51876e-05
8.51248e-05
8.11291e-05
8.65903e-05
8.74567e-05
8.81726e-05
9.42669e-05
8.98848e-05
0.000101639
9.1745e-05
0.000109449
9.37655e-05
0.000117929
9.59615e-05
0.000126991
9.83514e-05
0.000136702
0.000100946
0.000147152
0.000103766
0.000158285
0.000106819
0.000170259
0.000110124
0.000182991
0.000113695
0.000196618
0.000117551
0.000211095
0.000121708
0.000226481
0.000126179
0.000242794
0.000130983
0.000259993
0.000136136
0.000278129
0.000141657
0.000297124
0.000147561
0.000316929
0.000153862
0.000337465
0.000160572
0.000358587
0.0001677
0.00038011
0.00017525
0.000401785
0.000183219
0.000423271
0.000191597
0.00044413
0.000200363
0.000463799
0.000209482
0.000481559
0.000218898
0.000496506
0.000228543
0.000507512
0.000238305
0.000513186
0.000248059
0.000511834
0.000257609
0.000501412
0.000266756
0.000479486
0.000275216
0.000443236
0.000282652
0.000389498
0.000288681
0.000314588
0.000292919
0.000214893
0.000294937
9.02854e-05
0.000294047
-7.16085e-05
-0.000309726
0.000289624
7.02468e-05
1.8439e-05
-6.99233e-05
7.05877e-05
1.99361e-05
7.09567e-05
2.15557e-05
7.13511e-05
2.33044e-05
7.17776e-05
2.51921e-05
7.22354e-05
2.72293e-05
7.27306e-05
2.94271e-05
7.32638e-05
3.17971e-05
7.38423e-05
3.43439e-05
7.44658e-05
3.70999e-05
7.51416e-05
4.0083e-05
7.58692e-05
4.3302e-05
7.66579e-05
4.67748e-05
7.75085e-05
5.04969e-05
7.84319e-05
5.45033e-05
7.9425e-05
5.88553e-05
8.04986e-05
6.35451e-05
8.16562e-05
6.85369e-05
8.29064e-05
7.39387e-05
8.42481e-05
7.97867e-05
8.56969e-05
8.60093e-05
8.72567e-05
9.27066e-05
8.89385e-05
9.99589e-05
9.07587e-05
0.000107629
9.27292e-05
0.00011596
9.48658e-05
0.000124855
9.71877e-05
0.000134382
9.97079e-05
0.000144633
0.000102447
0.000155547
0.000105416
0.00016729
0.000108634
0.000179772
0.000112115
0.000193137
0.000115879
0.000207333
0.000119942
0.000222423
0.000124315
0.000238425
0.000129019
0.000255293
0.000134067
0.000273085
0.000139478
0.000291717
0.000145268
0.000311144
0.000151448
0.00033129
0.000158033
0.000352008
0.000165028
0.00037312
0.000172439
0.000394379
0.000180263
0.000415452
0.00018849
0.000435908
0.000197097
0.000455195
0.000206052
0.000472608
0.000215299
0.000487259
0.00022477
0.000498043
0.000234357
0.000503596
0.000243934
0.000502259
0.000253311
0.000492023
0.000262293
0.000470504
0.000270603
0.000434933
0.000277912
0.000382202
0.000283845
0.000308663
0.000288014
0.000210727
0.000289953
8.83086e-05
0.000289014
-7.07317e-05
-0.00030525
0.000284518
6.95633e-05
1.81323e-05
-6.92537e-05
6.98917e-05
1.96069e-05
7.02481e-05
2.12013e-05
7.063e-05
2.29224e-05
7.1044e-05
2.47797e-05
7.14893e-05
2.67839e-05
7.1972e-05
2.89457e-05
7.24923e-05
3.12763e-05
7.30575e-05
3.37795e-05
7.36672e-05
3.64888e-05
7.43292e-05
3.94218e-05
7.50422e-05
4.25866e-05
7.5817e-05
4.60009e-05
7.66529e-05
4.96582e-05
7.75627e-05
5.35946e-05
7.85421e-05
5.78735e-05
7.96036e-05
6.24851e-05
8.07496e-05
6.73893e-05
8.19898e-05
7.27e-05
8.3322e-05
7.84537e-05
8.47609e-05
8.4572e-05
8.63085e-05
9.11586e-05
8.79733e-05
9.82956e-05
8.97699e-05
0.000105832
9.17079e-05
0.000114023
9.38021e-05
0.000122761
9.60715e-05
0.000132113
9.85298e-05
0.000142175
0.000101199
0.00015288
0.000104091
0.000164399
0.000107226
0.000176637
0.00011062
0.000189743
0.000114293
0.000203662
0.000118261
0.000218459
0.000122536
0.000234153
0.000127138
0.000250695
0.000132081
0.000268145
0.000137382
0.00028642
0.000143057
0.000305475
0.000149118
0.000325235
0.000155576
0.000345556
0.000162441
0.000366264
0.000169714
0.000387115
0.000177394
0.000407783
0.00018547
0.000427844
0.000193921
0.000446757
0.000202713
0.000463831
0.000211793
0.000478194
0.000221092
0.000488764
0.000230504
0.000494202
0.000239906
0.00049288
0.000249112
0.000482832
0.00025793
0.000461718
0.000266091
0.000426818
0.000273273
0.000375082
0.00027911
0.000302908
0.000283206
0.000206749
0.000285066
8.66351e-05
0.000284095
-6.95082e-05
-0.000300566
0.000279557
6.88213e-05
1.78363e-05
-6.85213e-05
6.91395e-05
1.92885e-05
6.94854e-05
2.08577e-05
6.98567e-05
2.25512e-05
7.02598e-05
2.43785e-05
7.06939e-05
2.63499e-05
7.1165e-05
2.8476e-05
7.16734e-05
3.07675e-05
7.22263e-05
3.32276e-05
7.28234e-05
3.58907e-05
7.3472e-05
3.87741e-05
7.41716e-05
4.18854e-05
7.49318e-05
4.52417e-05
7.57534e-05
4.88348e-05
7.66478e-05
5.27013e-05
7.76126e-05
5.69071e-05
7.86589e-05
6.14399e-05
7.97912e-05
6.6256e-05
8.10183e-05
7.14741e-05
8.23394e-05
7.71319e-05
8.37682e-05
8.31446e-05
8.53065e-05
8.962e-05
8.69608e-05
9.66427e-05
8.87436e-05
0.000104049
9.06621e-05
0.000112106
9.27291e-05
0.000120694
9.49621e-05
0.000129882
9.73739e-05
0.000139764
9.99865e-05
0.000150268
0.000102813
0.000161573
0.000105875
0.000173574
0.000109189
0.000186429
0.000112776
0.000200077
0.000116652
0.000214587
0.000120832
0.000229977
0.000125334
0.000246196
0.000130172
0.00026331
0.000135364
0.000281232
0.000140925
0.000299919
0.000146866
0.000319298
0.000153201
0.000339227
0.000159934
0.000359535
0.000167071
0.000379983
0.000174608
0.00040025
0.000182535
0.000419921
0.00019083
0.000438464
0.000199461
0.000455201
0.000208374
0.000469279
0.000217503
0.000479635
0.000226741
0.000484957
0.00023597
0.000483649
0.000245006
0.00047378
0.000253661
0.000453055
0.000261675
0.000418803
0.000268731
0.000368027
0.00027447
0.000297164
0.000278489
0.000202712
0.000280276
8.47802e-05
0.000279282
-6.86106e-05
-0.000296052
0.000274722
6.8025e-05
1.75485e-05
-6.77353e-05
6.83344e-05
1.8978e-05
6.86716e-05
2.05221e-05
6.90341e-05
2.21883e-05
6.94282e-05
2.39858e-05
6.9853e-05
2.59248e-05
7.03145e-05
2.80157e-05
7.08126e-05
3.02688e-05
7.13547e-05
3.26864e-05
7.19399e-05
3.53039e-05
7.25762e-05
3.81386e-05
7.32621e-05
4.1197e-05
7.40086e-05
4.44961e-05
7.48149e-05
4.80258e-05
7.5694e-05
5.18233e-05
7.66423e-05
5.59566e-05
7.76724e-05
6.04111e-05
7.8788e-05
6.5139e-05
7.99993e-05
7.02643e-05
8.13056e-05
7.5825e-05
8.27211e-05
8.17306e-05
8.42477e-05
8.80932e-05
8.58915e-05
9.50003e-05
8.76635e-05
0.000102277
8.95689e-05
0.000110202
9.16185e-05
0.000118645
9.38272e-05
0.000127674
9.62065e-05
0.000137386
9.87769e-05
0.000147699
0.000101552
0.000158799
0.000104553
0.000170573
0.000107797
0.000183185
0.000111306
0.00019657
0.000115097
0.000210799
0.000119187
0.000225891
0.000123592
0.000241794
0.000128329
0.000258576
0.000133414
0.000276151
0.000138862
0.000294475
0.000144687
0.000313479
0.000150897
0.000333023
0.000157502
0.000352938
0.000164503
0.00037299
0.000171899
0.000392864
0.000179678
0.000412153
0.000187819
0.000430335
0.00019629
0.000446744
0.000205038
0.000460545
0.000213996
0.000470695
0.000223063
0.000475906
0.00023212
0.000474613
0.000240987
0.000464925
0.000249483
0.000444586
0.00025735
0.000410977
0.000264281
0.000361153
0.00026992
0.000291599
0.00027386
0.000198878
0.000275582
8.32263e-05
0.000274571
-6.73705e-05
-0.000291344
0.000269998
6.71875e-05
1.72681e-05
-6.69024e-05
6.74908e-05
1.8675e-05
6.7821e-05
2.01944e-05
6.81764e-05
2.18336e-05
6.85623e-05
2.36018e-05
6.89788e-05
2.55089e-05
6.94308e-05
2.75649e-05
6.99194e-05
2.97802e-05
7.04506e-05
3.2156e-05
7.10251e-05
3.47288e-05
7.16488e-05
3.75155e-05
7.23225e-05
4.05219e-05
7.30545e-05
4.37648e-05
7.38466e-05
4.7232e-05
7.47092e-05
5.09615e-05
7.56412e-05
5.50231e-05
7.66532e-05
5.94001e-05
7.77506e-05
6.40405e-05
7.89429e-05
6.90731e-05
8.02309e-05
7.45365e-05
8.16288e-05
8.03339e-05
8.31396e-05
8.65822e-05
8.47692e-05
9.3372e-05
8.65283e-05
0.000100518
8.84212e-05
0.00010831
9.04569e-05
0.00011661
9.26481e-05
0.000125484
9.50041e-05
0.000135031
9.75438e-05
0.000145161
0.000100279
0.000156064
0.000103231
0.000167621
0.000106417
0.000179999
0.000109858
0.00019313
0.000113575
0.000207087
0.00011758
0.000221889
0.000121895
0.000237482
0.000126536
0.000253939
0.000131518
0.000271172
0.000136858
0.000289139
0.000142567
0.000307774
0.000148657
0.000326937
0.000155135
0.000346465
0.000162002
0.000366126
0.000169258
0.000385611
0.000176891
0.000404522
0.00018488
0.000422346
0.000193192
0.000438432
0.000201776
0.000451958
0.000210567
0.000461901
0.000219463
0.000467001
0.000228351
0.00046572
0.000237051
0.000456203
0.000245388
0.000436237
0.000253111
0.000403247
0.000259916
0.000354341
0.000265454
0.000286045
0.000269315
0.000194981
0.00027098
8.14686e-05
0.000269954
-6.64691e-05
-0.000286833
0.000265371
6.63146e-05
1.69929e-05
-6.6037e-05
6.66118e-05
1.83774e-05
6.69356e-05
1.98723e-05
6.72844e-05
2.14849e-05
6.76633e-05
2.32242e-05
6.80724e-05
2.51e-05
6.85164e-05
2.7122e-05
6.89962e-05
2.93e-05
6.9518e-05
3.16348e-05
7.00819e-05
3.41636e-05
7.06945e-05
3.69032e-05
7.13556e-05
3.98587e-05
7.20746e-05
4.30462e-05
7.28518e-05
4.64522e-05
7.36992e-05
5.01148e-05
7.46141e-05
5.41061e-05
7.56084e-05
5.84069e-05
7.66865e-05
6.2961e-05
7.78589e-05
6.7902e-05
7.91261e-05
7.32687e-05
8.05032e-05
7.89582e-05
8.19937e-05
8.50916e-05
8.36043e-05
9.17626e-05
8.53462e-05
9.87762e-05
8.72233e-05
0.000106434
8.92437e-05
0.000114589
9.14186e-05
0.00012331
9.37557e-05
0.000132695
9.62712e-05
0.000142646
9.89759e-05
0.00015336
0.000101889
0.000164707
0.000105027
0.00017686
0.000108412
0.000189747
0.000112061
0.00020344
0.000115993
0.00021796
0.000120225
0.000233252
0.000124775
0.000249392
0.00012966
0.00026629
0.000134896
0.000283908
0.000140494
0.00030218
0.000146467
0.00032097
0.00015282
0.000340118
0.000159557
0.000359397
0.000166676
0.000378502
0.000174164
0.000397043
0.000182003
0.000414519
0.000190159
0.000430288
0.000198582
0.000443547
0.000207207
0.000453292
0.000215935
0.000458285
0.000224656
0.000457019
0.000233192
0.000447675
0.000241372
0.000428079
0.000248952
0.000395704
0.000255633
0.000347709
0.000261069
0.000280673
0.000264851
0.000191291
0.000266465
8.0003e-05
0.000265425
-6.52291e-05
-0.000282118
0.000260831
6.54177e-05
1.67229e-05
-6.51441e-05
6.57099e-05
1.80852e-05
6.60282e-05
1.9556e-05
6.6371e-05
2.11425e-05
6.67433e-05
2.28535e-05
6.71451e-05
2.46985e-05
6.75812e-05
2.6687e-05
6.80525e-05
2.88286e-05
6.8565e-05
3.11231e-05
6.9119e-05
3.36088e-05
6.97206e-05
3.63023e-05
7.03701e-05
3.92078e-05
7.10758e-05
4.23412e-05
7.18394e-05
4.5687e-05
7.2671e-05
4.9284e-05
7.35696e-05
5.32062e-05
7.45454e-05
5.7432e-05
7.56043e-05
6.19013e-05
7.67553e-05
6.6752e-05
7.80005e-05
7.20231e-05
7.93543e-05
7.76055e-05
8.08214e-05
8.36244e-05
8.24089e-05
9.01764e-05
8.41287e-05
9.70564e-05
8.59851e-05
0.000104579
8.79863e-05
0.000112589
9.01426e-05
0.000121155
9.24603e-05
0.000130378
9.49541e-05
0.000140153
9.76325e-05
0.000150682
0.000100513
0.000161826
0.000103612
0.000173762
0.000106948
0.000186411
0.000110541
0.00019985
0.000114406
0.000214098
0.000118564
0.000229097
0.000123031
0.000244927
0.000127825
0.000261499
0.000132962
0.000278775
0.000138455
0.000296692
0.000144314
0.000315115
0.000150547
0.000333888
0.000157157
0.00035279
0.000164141
0.00037152
0.000171488
0.000389697
0.000179179
0.000406827
0.000187182
0.000422284
0.000195446
0.000435278
0.000203908
0.000444825
0.000212471
0.00044971
0.000221027
0.000448457
0.000229402
0.000439276
0.000237429
0.000420036
0.000244867
0.000388253
0.000251425
0.000341139
0.000256761
0.000275313
0.000260465
0.000187538
0.000262031
7.83237e-05
0.000260976
-6.43242e-05
-0.000277609
0.000256373
6.45014e-05
1.64569e-05
-6.42339e-05
6.47887e-05
1.77972e-05
6.51018e-05
1.92443e-05
6.5439e-05
2.08051e-05
6.58052e-05
2.24884e-05
6.62006e-05
2.43032e-05
6.66296e-05
2.62588e-05
6.7093e-05
2.83647e-05
6.75969e-05
3.06198e-05
6.81411e-05
3.30632e-05
6.87323e-05
3.57115e-05
6.93699e-05
3.8568e-05
7.00633e-05
4.16484e-05
7.08125e-05
4.49352e-05
7.16293e-05
4.8468e-05
7.25111e-05
5.23224e-05
7.34693e-05
5.64748e-05
7.45085e-05
6.08608e-05
7.56386e-05
6.56231e-05
7.68611e-05
7.08002e-05
7.81907e-05
7.62772e-05
7.96323e-05
8.21827e-05
8.11938e-05
8.86161e-05
8.28876e-05
9.53627e-05
8.47187e-05
0.000102749
8.66958e-05
0.000110612
8.88291e-05
0.000119022
9.11245e-05
0.000128083
9.3595e-05
0.000137684
9.62483e-05
0.00014803
9.90996e-05
0.000158974
0.000102163
0.000170699
0.000105458
0.000183119
0.000109
0.00019631
0.000112807
0.000210293
0.000116897
0.000225008
0.000121289
0.000240538
0.000125999
0.000256792
0.000131043
0.000273734
0.000136435
0.000291304
0.000142187
0.000309369
0.000148304
0.000327777
0.00015479
0.00034631
0.000161643
0.000364674
0.000168853
0.000382495
0.0001764
0.00039929
0.000184252
0.000414442
0.000192361
0.000427179
0.000200663
0.000436535
0.000209065
0.000441319
0.000217459
0.000440078
0.000225676
0.000431063
0.000233552
0.000412179
0.000240852
0.000380986
0.000247288
0.000334748
0.000252523
0.000270138
0.000256151
0.000183996
0.000257672
7.69372e-05
0.000256603
-6.30777e-05
-0.000272886
0.000251991
6.35753e-05
1.61956e-05
-6.33097e-05
6.38588e-05
1.75143e-05
6.41671e-05
1.89382e-05
6.44992e-05
2.04739e-05
6.48593e-05
2.21299e-05
6.52481e-05
2.39151e-05
6.56694e-05
2.58386e-05
6.6125e-05
2.79094e-05
6.66195e-05
3.01258e-05
6.71545e-05
3.25279e-05
6.77347e-05
3.51318e-05
6.83614e-05
3.79402e-05
6.90416e-05
4.09685e-05
6.97778e-05
4.41976e-05
7.0579e-05
4.76673e-05
7.14449e-05
5.14553e-05
7.2385e-05
5.55355e-05
7.34051e-05
5.98399e-05
7.45139e-05
6.45152e-05
7.57137e-05