/*--------------------------------*- C++ -*----------------------------------*\
  =========                 |
  \\      /  F ield         | OpenFOAM: The Open Source CFD Toolbox
   \\    /   O peration     | Website:  https://openfoam.org
    \\  /    A nd           | Version:  6.0
     \\/     M anipulation  |
\*---------------------------------------------------------------------------*/
FoamFile
{
    version     2.0;
    format      ascii;
    class       surfaceScalarField;
    location    "16";
    object      phi;
}
// * * * * * * * * * * * * * * * * * * * * * * * * * * * * * * * * * * * * * //

dimensions      [0 3 -1 0 0 0 0];

internalField   nonuniform List<scalar> 
123526
(
-8.08041e-05
2.26184e-05
8.11851e-05
-8.0403e-05
2.44627e-05
-7.9953e-05
2.64579e-05
-7.94796e-05
2.86166e-05
-7.89523e-05
3.09521e-05
-7.83952e-05
3.34791e-05
-7.77776e-05
3.62137e-05
-7.71227e-05
3.9173e-05
-7.63976e-05
4.23751e-05
-7.5627e-05
4.58406e-05
-7.4777e-05
4.95926e-05
-7.38729e-05
5.36541e-05
-7.28779e-05
5.80513e-05
-7.18159e-05
6.28096e-05
-7.06474e-05
6.7961e-05
-6.94009e-05
7.35428e-05
-6.80374e-05
7.95878e-05
-6.65726e-05
8.61276e-05
-6.49703e-05
9.32139e-05
-6.32537e-05
0.000100894
-6.13761e-05
0.000109205
-5.93531e-05
0.000118208
-5.71538e-05
0.00012797
-5.47727e-05
0.000138528
-5.21836e-05
0.000149981
-4.93873e-05
0.00016238
-4.63408e-05
0.000175811
-4.30515e-05
0.000190364
-3.94683e-05
0.000206114
-3.55979e-05
0.00022318
-3.13892e-05
0.000241644
-2.68358e-05
0.000261636
-2.18912e-05
0.000283256
-1.65314e-05
0.00030663
-1.07315e-05
0.000331885
-4.44088e-06
0.000359126
2.36833e-06
0.000388513
9.74509e-06
0.000420147
1.77392e-05
0.000454146
2.63884e-05
0.000490622
3.57446e-05
0.000529641
4.58674e-05
0.000571238
5.68088e-05
0.000615415
6.86236e-05
0.000662089
8.13655e-05
0.000711081
9.50846e-05
0.00076209
0.000109809
0.000814652
0.000125561
0.000868094
0.000142311
0.00092148
0.000160033
0.000973528
0.000178645
0.00102253
0.000198024
0.00106621
0.000218129
0.00110155
0.000238652
0.00112479
0.00025945
0.00113106
0.000279924
0.00111468
0.000299745
0.00106744
0.000317938
0.000980599
0.00033379
0.00083394
0.000601944
0.000332011
-7.9739e-05
2.2241e-05
8.01225e-05
-7.93404e-05
2.4055e-05
-7.88946e-05
2.60178e-05
-7.84277e-05
2.81416e-05
-7.79093e-05
3.04396e-05
-7.73641e-05
3.29261e-05
-7.67619e-05
3.56166e-05
-7.61246e-05
3.85283e-05
-7.54211e-05
4.16776e-05
-7.46728e-05
4.50857e-05
-7.3849e-05
4.87756e-05
-7.29707e-05
5.27696e-05
-7.20053e-05
5.70933e-05
-7.09714e-05
6.17695e-05
-6.98344e-05
6.6831e-05
-6.86173e-05
7.2319e-05
-6.72868e-05
7.82625e-05
-6.58529e-05
8.4686e-05
-6.42854e-05
9.16495e-05
-6.26013e-05
9.92014e-05
-6.07611e-05
0.000107366
-5.87732e-05
0.000116212
-5.66151e-05
0.000125812
-5.42728e-05
0.000136178
-5.17305e-05
0.000147438
-4.89782e-05
0.000159622
-4.59857e-05
0.000172816
-4.27481e-05
0.000187122
-3.92279e-05
0.000202591
-3.54197e-05
0.000219368
-3.1284e-05
0.000237503
-2.68035e-05
0.000257153
-2.19369e-05
0.000278393
-1.66587e-05
0.000301359
-1.09486e-05
0.000326177
-4.758e-06
0.000352933
1.94008e-06
0.000381809
9.19714e-06
0.000412884
1.70649e-05
0.00044627
2.55828e-05
0.000482094
3.48029e-05
0.000520408
4.47845e-05
0.00056124
5.5578e-05
0.000604599
6.72348e-05
0.0006504
7.98029e-05
0.000698468
9.33244e-05
0.000748509
0.000107818
0.000800072
0.0001233
0.0008525
0.000139739
0.000904877
0.000157115
0.000955938
0.000175353
0.00100399
0.000194344
0.00104678
0.000214067
0.00108136
0.000234217
0.00110407
0.000254639
0.00111009
0.000274715
0.00109391
0.000294073
0.00104746
0.000311799
0.000962084
0.000323728
0.000821244
0.000602482
0.000321984
-7.85653e-05
2.18708e-05
7.8943e-05
-7.81721e-05
2.36535e-05
-7.77312e-05
2.55829e-05
-7.72679e-05
2.76711e-05
-7.67535e-05
2.99314e-05
-7.62123e-05
3.23778e-05
-7.56158e-05
3.50258e-05
-7.49864e-05
3.7892e-05
-7.42939e-05
4.09917e-05
-7.35609e-05
4.4346e-05
-7.27565e-05
4.7978e-05
-7.19027e-05
5.1909e-05
-7.09657e-05
5.6164e-05
-6.99655e-05
6.07626e-05
-6.88656e-05
6.57386e-05
-6.76899e-05
7.11366e-05
-6.64033e-05
7.69823e-05
-6.50164e-05
8.32924e-05
-6.34978e-05
9.01357e-05
-6.18644e-05
9.75615e-05
-6.00765e-05
0.000105581
-5.81419e-05
0.000114271
-5.60387e-05
0.000123711
-5.37519e-05
0.000133887
-5.12671e-05
0.000144954
-4.85727e-05
0.000156924
-4.56409e-05
0.000169884
-4.24646e-05
0.000183943
-3.90092e-05
0.000199134
-3.52669e-05
0.000215623
-3.12006e-05
0.000233433
-2.67912e-05
0.000252741
-2.19979e-05
0.000273604
-1.67965e-05
0.000296165
-1.11664e-05
0.000320551
-5.06128e-06
0.000346826
1.54582e-06
0.000375197
8.70617e-06
0.000405717
1.64718e-05
0.000438498
2.48812e-05
0.000473676
3.39844e-05
0.000511295
4.38373e-05
0.000551374
5.44863e-05
0.000593933
6.59769e-05
0.000638889
7.83513e-05
0.000686066
9.1646e-05
0.00073518
0.000105877
0.00078579
0.000121062
0.000837257
0.000137176
0.000888676
0.000154212
0.000938799
0.000172106
0.000985964
0.000190753
0.00102794
0.000210136
0.00106185
0.000229941
0.00108405
0.000249996
0.00108996
0.0002697
0.00107403
0.000288586
0.00102856
0.000305958
0.000944624
0.000318266
0.00080899
0.000602441
0.000318636
-7.74e-05
2.15175e-05
7.77625e-05
-7.70226e-05
2.32689e-05
-7.65969e-05
2.51641e-05
-7.61476e-05
2.72153e-05
-7.56451e-05
2.94359e-05
-7.51134e-05
3.184e-05
-7.45246e-05
3.44432e-05
-7.39004e-05
3.7262e-05
-7.32128e-05
4.0311e-05
-7.24832e-05
4.36112e-05
-7.16842e-05
4.71864e-05
-7.08362e-05
5.10564e-05
-6.991e-05
5.52457e-05
-6.89226e-05
5.97709e-05
-6.78423e-05
6.4666e-05
-6.66895e-05
6.99792e-05
-6.54331e-05
7.57323e-05
-6.40803e-05
8.19346e-05
-6.26024e-05
8.86628e-05
-6.10133e-05
9.59672e-05
-5.92749e-05
0.000103846
-5.7393e-05
0.000112385
-5.53462e-05
0.000121667
-5.31185e-05
0.000131655
-5.06956e-05
0.000142533
-4.80651e-05
0.000154291
-4.51995e-05
0.000167019
-4.20913e-05
0.000180834
-3.87063e-05
0.000195748
-3.50361e-05
0.000211952
-3.10445e-05
0.000229437
-2.67117e-05
0.000248407
-2.1998e-05
0.000268895
-1.68787e-05
0.000291053
-1.13339e-05
0.00031501
-5.31757e-06
0.000340808
1.19629e-06
0.000368679
8.25765e-06
0.00039865
1.59166e-05
0.000430832
2.42097e-05
0.000465376
3.31845e-05
0.000502311
4.28936e-05
0.000541654
5.33796e-05
0.000583434
6.46843e-05
0.000627568
7.68465e-05
0.000673882
8.99012e-05
0.000722099
0.000103866
0.000771787
0.000118763
0.000822314
0.000134577
0.00087279
0.000151308
0.00092198
0.000168893
0.000968236
0.000187233
0.00100937
0.000206293
0.00104257
0.000225763
0.00106428
0.00024545
0.00106999
0.000264787
0.0010543
0.000283239
0.00100973
0.000300288
0.000927058
0.000313204
0.000795557
0.000600027
0.000314825
-7.61362e-05
2.11793e-05
7.64817e-05
-7.57783e-05
2.29034e-05
-7.53763e-05
2.47679e-05
-7.49524e-05
2.67847e-05
-7.44775e-05
2.89671e-05
-7.39734e-05
3.13294e-05
-7.34114e-05
3.3887e-05
-7.28126e-05
3.66569e-05
-7.21477e-05
3.96528e-05
-7.14389e-05
4.28964e-05
-7.06573e-05
4.64121e-05
-6.98256e-05
5.0219e-05
-6.89129e-05
5.43412e-05
-6.79399e-05
5.87924e-05
-6.68733e-05
6.36074e-05
-6.5737e-05
6.88376e-05
-6.44985e-05
7.45009e-05
-6.31681e-05
8.0599e-05
-6.17161e-05
8.72166e-05
-6.01581e-05
9.44043e-05
-5.84555e-05
0.000102148
-5.66145e-05
0.00011054
-5.46134e-05
0.000119669
-5.24361e-05
0.000129475
-5.0068e-05
0.000140167
-4.74963e-05
0.000151718
-4.46935e-05
0.000164217
-4.16514e-05
0.000177792
-3.83363e-05
0.000192433
-3.47393e-05
0.000208354
-3.08244e-05
0.000225519
-2.65721e-05
0.000244154
-2.19427e-05
0.000264271
-1.69121e-05
0.00028603
-1.14598e-05
0.000309562
-5.5405e-06
0.000334887
8.7118e-07
0.000362263
7.82307e-06
0.000391693
1.53628e-05
0.000423287
2.35251e-05
0.000457207
3.23556e-05
0.000493474
4.19046e-05
0.000532096
5.22127e-05
0.000573116
6.33198e-05
0.000616448
7.52642e-05
0.000661922
8.80815e-05
0.000709264
0.000101792
0.00075805
0.000116423
0.000807657
0.000131962
0.000857206
0.000148414
0.000905481
0.000165714
0.000950872
0.000183758
0.000991214
0.0002025
0.0010238
0.000221629
0.00104506
0.000240944
0.00105071
0.000259907
0.00103528
0.000277965
0.000991755
0.000294628
0.000910416
0.000307599
0.000782758
0.000596884
0.000311209
-7.48564e-05
2.08429e-05
7.52011e-05
-7.45041e-05
2.25441e-05
-7.41129e-05
2.43829e-05
-7.37052e-05
2.63708e-05
-7.3252e-05
2.85204e-05
-7.27743e-05
3.08457e-05
-7.22433e-05
3.33618e-05
-7.16777e-05
3.60857e-05
-7.10482e-05
3.90302e-05
-7.03744e-05
4.22176e-05
-6.96278e-05
4.5673e-05
-6.88284e-05
4.94151e-05
-6.7947e-05
5.34679e-05
-6.70016e-05
5.78428e-05
-6.59616e-05
6.25754e-05
-6.4849e-05
6.77207e-05
-6.36343e-05
7.3293e-05
-6.23266e-05
7.92869e-05
-6.08991e-05
8.57945e-05
-5.93664e-05
9.28673e-05
-5.76924e-05
0.000100478
-5.5883e-05
0.000108726
-5.39175e-05
0.000117707
-5.17801e-05
0.000127334
-4.94567e-05
0.000137847
-4.69342e-05
0.000149194
-4.41856e-05
0.00016147
-4.12025e-05
0.000174809
-3.79512e-05
0.000189182
-3.44227e-05
0.000204825
-3.05816e-05
0.000221675
-2.64079e-05
0.00023998
-2.18631e-05
0.000259731
-1.69224e-05
0.000281098
-1.15657e-05
0.000304209
-5.74792e-06
0.000329068
5.55589e-07
0.000355956
7.3908e-06
0.000384853
1.48031e-05
0.000415869
2.28261e-05
0.000449178
3.15039e-05
0.000484789
4.08857e-05
0.000522706
5.10112e-05
0.000562981
6.19199e-05
0.000605529
7.36505e-05
0.000650179
8.62398e-05
0.000696662
9.97112e-05
0.000744559
0.000114093
0.000793256
0.000129377
0.000841885
0.000145567
0.000889251
0.000162591
0.000933765
0.000180342
0.000973316
0.000198762
0.00100524
0.000217548
0.00102609
0.000236488
0.00103159
0.000255082
0.00101642
0.000272774
0.000973792
0.00028902
0.000893783
0.000302054
0.000769337
0.000590414
0.000307928
-7.37908e-05
2.04959e-05
7.41456e-05
-7.34284e-05
2.21746e-05
-7.30292e-05
2.39896e-05
-7.26162e-05
2.59517e-05
-7.21624e-05
2.80727e-05
-7.16888e-05
3.0366e-05
-7.11676e-05
3.28463e-05
-7.06173e-05
3.55296e-05
-7.00085e-05
3.84278e-05
-6.93596e-05
4.15634e-05
-6.86416e-05
4.49618e-05
-6.7873e-05
4.86413e-05
-6.70234e-05
5.26259e-05
-6.611e-05
5.69245e-05
-6.51012e-05
6.15742e-05
-6.40186e-05
6.66334e-05
-6.28324e-05
7.21135e-05
-6.15522e-05
7.8002e-05
-6.01513e-05
8.43991e-05
-5.86449e-05
9.13566e-05
-5.69981e-05
9.88358e-05
-5.52171e-05
0.000106942
-5.32824e-05
0.000115775
-5.11788e-05
0.000125228
-4.88929e-05
0.000135564
-4.64122e-05
0.000146712
-4.37101e-05
0.00015877
-4.07784e-05
0.000171877
-3.75841e-05
0.000185989
-3.4118e-05
0.000201359
-3.03451e-05
0.0002179
-2.62461e-05
0.00023588
-2.17821e-05
0.000255272
-1.69293e-05
0.000276252
-1.16671e-05
0.000298951
-5.95124e-06
0.000323351
2.42582e-07
0.000349758
6.95887e-06
0.000378132
1.42415e-05
0.000408581
2.21233e-05
0.00044129
3.06476e-05
0.000476258
3.98628e-05
0.000513484
4.98083e-05
0.000553028
6.05238e-05
0.000594805
7.20485e-05
0.000638643
8.44204e-05
0.000684278
9.76643e-05
0.000731297
0.000111809
0.000779094
0.000126847
0.000826816
0.000142779
0.00087329
0.000159528
0.000916969
0.000176982
0.000955775
0.000195079
0.000987138
0.000213519
0.00100761
0.000232095
0.00101308
0.00025033
0.000998174
0.000267687
0.000956558
0.000283544
0.000877995
0.000296717
0.000756392
0.000583154
0.000304493
-7.30401e-05
2.01379e-05
7.34063e-05
-7.26631e-05
2.17912e-05
-7.22473e-05
2.358e-05
-7.18164e-05
2.5515e-05
-7.1345e-05
2.76076e-05
-7.08552e-05
2.98706e-05
-7.0321e-05
3.23178e-05
-6.97613e-05
3.49647e-05
-6.91486e-05
3.78215e-05
-6.85003e-05
4.09105e-05
-6.77889e-05
4.42574e-05
-6.70309e-05
4.78792e-05
-6.61972e-05
5.17998e-05
-6.53022e-05
5.60257e-05
-6.43155e-05
6.05949e-05
-6.32557e-05
6.55697e-05
-6.20943e-05
7.09585e-05
-6.08386e-05
7.67423e-05
-5.94633e-05
8.3029e-05
-5.79823e-05
8.98716e-05
-5.63618e-05
9.72194e-05
-5.46077e-05
0.000105184
-5.27018e-05
0.000113873
-5.06291e-05
0.000123153
-4.8377e-05
0.000133314
-4.59336e-05
0.000144268
-4.32732e-05
0.000156111
-4.03877e-05
0.000168992
-3.7245e-05
0.000182847
-3.38361e-05
0.00019795
-3.01266e-05
0.000214188
-2.60972e-05
0.000231851
-2.17105e-05
0.000250891
-1.69417e-05
0.000271492
-1.17713e-05
0.000293785
-6.1552e-06
0.000317735
-6.96739e-08
0.000343669
6.52879e-06
0.000371529
1.36831e-05
0.000401422
2.14258e-05
0.000433542
2.97996e-05
0.000467879
3.88524e-05
0.000504424
4.86233e-05
0.00054325
5.91523e-05
0.000584269
7.04788e-05
0.000627309
8.26413e-05
0.000672109
9.56649e-05
0.000718262
0.000109578
0.000765173
0.000124371
0.000812002
0.000140042
0.0008576
0.00015651
0.000900447
0.000173663
0.000938516
0.000191431
0.000969275
0.00020953
0.000989375
0.000227749
0.000994737
0.000245643
0.000980075
0.000262695
0.00093929
0.000278212
0.000862162
0.000291431
0.000742857
0.000573678
0.000300423
-7.25218e-05
1.97767e-05
7.28902e-05
-7.21377e-05
2.14004e-05
-7.17112e-05
2.31589e-05
-7.12651e-05
2.5063e-05
-7.07756e-05
2.71239e-05
-7.0265e-05
2.93542e-05
-6.97091e-05
3.17672e-05
-6.91278e-05
3.4378e-05
-6.84952e-05
3.71951e-05
-6.78301e-05
4.02404e-05
-6.71056e-05
4.35395e-05
-6.63393e-05
4.71082e-05
-6.55018e-05
5.09697e-05
-6.46083e-05
5.51277e-05
-6.36272e-05
5.96212e-05
-6.25775e-05
6.45157e-05
-6.14293e-05
6.98168e-05
-6.01899e-05
7.54987e-05
-5.88331e-05
8.16775e-05
-5.73726e-05
8.84072e-05
-5.57745e-05
9.56256e-05
-5.40447e-05
0.000103451
-5.21649e-05
0.000111997
-5.01208e-05
0.000121107
-4.79001e-05
0.000131097
-4.54913e-05
0.000141858
-4.28694e-05
0.000153491
-4.00269e-05
0.000166151
-3.69322e-05
0.000179753
-3.35767e-05
0.000194594
-2.99267e-05
0.000210536
-2.59636e-05
0.000227887
-2.16497e-05
0.000246582
-1.69619e-05
0.000266812
-1.18799e-05
0.000288708
-6.36077e-06
0.000312215
-3.81001e-07
0.000337686
6.10222e-06
0.000365042
1.31314e-05
0.000394389
2.07386e-05
0.00042593
2.89661e-05
0.000459646
3.78614e-05
0.000495524
4.74634e-05
0.000533642
5.78117e-05
0.000573913
6.89456e-05
0.000616166
8.09032e-05
0.000660143
9.37092e-05
0.000705442
0.000107391
0.00075148
0.000121936
0.000797431
0.000137339
0.000842174
0.000153518
0.000884227
0.00017036
0.000921598
0.000187797
0.000951839
0.000205555
0.0009716
0.000223432
0.000976934
0.000241
0.000962526
0.00025778
0.000922644
0.000273001
0.000847037
0.000286081
0.00073004
0.000564638
0.000295653
-7.20826e-05
1.94218e-05
7.24449e-05
-7.17019e-05
2.10135e-05
-7.12758e-05
2.27385e-05
-7.08262e-05
2.46078e-05
-7.03294e-05
2.6633e-05
-6.98071e-05
2.88265e-05
-6.92364e-05
3.12019e-05
-6.86371e-05
3.37737e-05
-6.79853e-05
3.65494e-05
-6.73001e-05
3.95507e-05
-6.65568e-05
4.28029e-05
-6.57731e-05
4.63206e-05
-6.4922e-05
5.0126e-05
-6.4018e-05
5.422e-05
-6.30314e-05
5.86419e-05
-6.19799e-05
6.34606e-05
-6.08349e-05
6.86781e-05
-5.96023e-05
7.42624e-05
-5.82567e-05
8.0337e-05
-5.68102e-05
8.69571e-05
-5.52296e-05
9.40491e-05
-5.35199e-05
0.000101738
-5.16633e-05
0.000110143
-4.96451e-05
0.000119086
-4.74535e-05
0.000128908
-4.50772e-05
0.000139481
-4.24918e-05
0.000150908
-3.96899e-05
0.00016335
-3.66408e-05
0.000176705
-3.3336e-05
0.00019129
-2.97428e-05
0.000206941
-2.58426e-05
0.000223987
-2.15992e-05
0.000242344
-1.69888e-05
0.00026221
-1.19923e-05
0.000283716
-6.56717e-06
0.00030679
-6.90214e-07
0.000331807
5.68084e-06
0.000358667
1.25883e-05
0.000387477
2.00639e-05
0.00041845
2.81493e-05
0.000451556
3.68915e-05
0.000486776
4.63287e-05
0.000524199
5.65003e-05
0.000563736
6.7445e-05
0.000605216
7.91997e-05
0.000648384
9.1788e-05
0.000692847
0.000105235
0.000738031
0.000119527
0.000783127
0.000134656
0.000827038
0.000150539
0.000868306
0.000167067
0.00090499
0.000184171
0.000934665
0.000201595
0.00095408
0.00021914
0.000959294
0.000236399
0.000945107
0.000252929
0.000905937
0.000267895
0.000831808
0.000280711
0.000716961
0.000554511
0.000290429
-7.16098e-05
1.9079e-05
7.19596e-05
-7.12406e-05
2.06381e-05
-7.0825e-05
2.23283e-05
-7.03834e-05
2.41606e-05
-6.98919e-05
2.61471e-05
-6.93713e-05
2.83004e-05
-6.87985e-05
3.06342e-05
-6.81933e-05
3.31633e-05
-6.75323e-05
3.58943e-05
-6.68351e-05
3.88487e-05
-6.60782e-05
4.20523e-05
-6.52802e-05
4.55182e-05
-6.44152e-05
4.9268e-05
-6.34989e-05
5.32995e-05
-6.25026e-05
5.76525e-05
-6.14445e-05
6.23985e-05
-6.02966e-05
6.75362e-05
-5.9065e-05
7.30269e-05
-5.77245e-05
7.90015e-05
-5.62869e-05
8.55159e-05
-5.47192e-05
9.24854e-05
-5.30259e-05
0.000100042
-5.11892e-05
0.00010831
-4.91945e-05
0.00011709
-4.703e-05
0.000126746
-4.46843e-05
0.000137135
-4.21337e-05
0.000148359
-3.93707e-05
0.000160587
-3.63654e-05
0.0001737
-3.31096e-05
0.000188034
-2.95709e-05
0.000203401
-2.57318e-05
0.000220148
-2.15558e-05
0.000238174
-1.70208e-05
0.000257682
-1.21072e-05
0.000278807
-6.7733e-06
0.000301455
-9.96371e-07
0.000326027
5.2655e-06
0.000352402
1.20544e-05
0.000380684
1.94018e-05
0.000411099
2.73485e-05
0.000443605
3.59409e-05
0.000478179
4.52165e-05
0.000514918
5.5214e-05
0.000553733
6.59709e-05
0.000594452
7.7523e-05
0.000636825
8.98923e-05
0.000680466
0.000103102
0.000724812
0.000117136
0.000769071
0.000131987
0.00081217
0.00014757
0.000852685
0.000163783
0.000888709
0.000180558
0.000917891
0.000197657
0.000936979
0.000214886
0.000942142
0.00023185
0.000928179
0.000248149
0.000889778
0.000262891
0.000817184
0.000275424
0.000704713
0.000545362
0.000285115
-7.10507e-05
1.87503e-05
7.13867e-05
-7.06964e-05
2.02779e-05
-7.02964e-05
2.19337e-05
-6.987e-05
2.3729e-05
-6.9393e-05
2.56757e-05
-6.88848e-05
2.7787e-05
-6.83223e-05
3.00768e-05
-6.77239e-05
3.25601e-05
-6.70668e-05
3.5243e-05
-6.63696e-05
3.81473e-05
-6.56101e-05
4.1299e-05
-6.48066e-05
4.47108e-05
-6.39351e-05
4.84033e-05
-6.3011e-05
5.23719e-05
-6.2008e-05
5.66563e-05
-6.0944e-05
6.13309e-05
-5.97928e-05
6.63909e-05
-5.85604e-05
7.17909e-05
-5.72228e-05
7.76687e-05
-5.57913e-05
8.40809e-05
-5.42338e-05
9.09318e-05
-5.25544e-05
9.83599e-05
-5.07354e-05
0.000106494
-4.87622e-05
0.000115115
-4.66231e-05
0.00012461
-4.43067e-05
0.000134818
-4.17895e-05
0.000145844
-3.90644e-05
0.000157863
-3.61016e-05
0.000170739
-3.28933e-05
0.000184826
-2.94079e-05
0.000199914
-2.56278e-05
0.000216368
-2.15182e-05
0.000234069
-1.70561e-05
0.000253228
-1.22232e-05
0.000273979
-6.97824e-06
0.00029621
-1.2988e-06
0.000320345
4.85655e-06
0.000346243
1.15296e-05
0.000374007
1.87513e-05
0.000403873
2.65619e-05
0.00043579
3.50067e-05
0.000469729
4.41226e-05
0.000505798
5.39471e-05
0.000543905
6.45169e-05
0.000583879
7.58661e-05
0.000625474
8.80154e-05
0.000668314
0.000100986
0.000711843
0.000114761
0.00075529
0.000129333
0.0007976
0.000144617
0.000837373
0.000160521
0.000872745
0.000176977
0.000901381
0.000193763
0.00092012
0.00021069
0.000925141
0.000227375
0.000911362
0.000243451
0.000873549
0.000258002
0.000802404
0.00027032
0.000692165
0.000535359
0.000279963
-7.03977e-05
1.84347e-05
7.07197e-05
-7.00585e-05
1.99327e-05
-6.96754e-05
2.15557e-05
-6.92668e-05
2.3315e-05
-6.88085e-05
2.52226e-05
-6.83187e-05
2.72919e-05
-6.77737e-05
2.95368e-05
-6.71914e-05
3.19727e-05
-6.6548e-05
3.46052e-05
-6.58621e-05
3.74567e-05
-6.51108e-05
4.05539e-05
-6.43129e-05
4.39086e-05
-6.34442e-05
4.75414e-05
-6.25213e-05
5.1445e-05
-6.15181e-05
5.56598e-05
-6.04537e-05
6.02627e-05
-5.93024e-05
6.52456e-05
-5.80716e-05
7.05563e-05
-5.67375e-05
7.63395e-05
-5.53123e-05
8.26523e-05
-5.37642e-05
8.93878e-05
-5.20978e-05
9.66906e-05
-5.02954e-05
0.000104695
-4.83426e-05
0.00011316
-4.62278e-05
0.000122498
-4.39397e-05
0.000132529
-4.14552e-05
0.000143362
-3.87669e-05
0.000155176
-3.58458e-05
0.000167819
-3.26842e-05
0.000181665
-2.92509e-05
0.000196479
-2.5529e-05
0.000212646
-2.14836e-05
0.00023003
-1.70934e-05
0.000248846
-1.23394e-05
0.00026923
-7.1815e-06
0.000291052
-1.59748e-06
0.000314758
4.45351e-06
0.000340188
1.10128e-05
0.000367444
1.81108e-05
0.000396771
2.57869e-05
0.00042811
3.40856e-05
0.000461426
4.30428e-05
0.000496836
5.26952e-05
0.000534248
6.30781e-05
0.00057349
7.42245e-05
0.000614323
8.61535e-05
0.000656375
9.8885e-05
0.000699105
0.000112402
0.000741753
0.000126698
0.000783291
0.00014169
0.000822346
0.000157293
0.000857082
0.000173442
0.000885231
0.00018993
0.000903639
0.000206572
0.000908573
0.000222993
0.000894989
0.000238854
0.000857827
0.000253238
0.00078815
0.000265433
0.00068027
0.000526229
0.000275099
-6.96603e-05
1.81307e-05
6.99709e-05
-6.93342e-05
1.96008e-05
-6.89665e-05
2.11931e-05
-6.85751e-05
2.29184e-05
-6.8136e-05
2.47887e-05
-6.76663e-05
2.68171e-05
-6.71425e-05
2.90179e-05
-6.6581e-05
3.14065e-05
-6.59582e-05
3.3988e-05
-6.52911e-05
3.67853e-05
-6.45571e-05
3.9826e-05
-6.37738e-05
4.31214e-05
-6.29177e-05
4.6692e-05
-6.20047e-05
5.05285e-05
-6.101e-05
5.46717e-05
-5.99522e-05
5.92014e-05
-5.88072e-05
6.41064e-05
-5.75825e-05
6.93281e-05
-5.62557e-05
7.50175e-05
-5.4839e-05
8.12323e-05
-5.3302e-05
8.78545e-05
-5.16491e-05
9.50349e-05
-4.98634e-05
0.000102913
-4.79309e-05
0.000111226
-4.58402e-05
0.00012041
-4.358e-05
0.000130269
-4.11275e-05
0.000140911
-3.84756e-05
0.000152525
-3.55957e-05
0.00016494
-3.248e-05
0.00017855
-2.90981e-05
0.000193095
-2.54333e-05
0.000208981
-2.14518e-05
0.000226053
-1.71316e-05
0.000244534
-1.24554e-05
0.000264558
-7.38296e-06
0.00028598
-1.89264e-06
0.000309266
4.05572e-06
0.000334237
1.05029e-05
0.000360994
1.74785e-05
0.000389792
2.50213e-05
0.000420563
3.31747e-05
0.000453269
4.1974e-05
0.000488033
5.14547e-05
0.000524764
6.16511e-05
0.000563291
7.25952e-05
0.000603379
8.43051e-05
0.000644663
9.67999e-05
0.000686614
0.000110064
0.000728488
0.00012409
0.000769272
0.000138799
0.000807617
0.000154114
0.000841723
0.000169971
0.000869332
0.000186178
0.000887377
0.00020255
0.000892141
0.00021872
0.000878711
0.000234368
0.000842046
0.000248606
0.000773711
0.000260761
0.000667913
0.000516161
0.000270508
-6.88564e-05
1.78359e-05
6.91574e-05
-6.85415e-05
1.92801e-05
-6.8187e-05
2.08436e-05
-6.78108e-05
2.2537e-05
-6.73889e-05
2.43719e-05
-6.69384e-05
2.63615e-05
-6.64356e-05
2.85197e-05
-6.58963e-05
3.08622e-05
-6.52964e-05
3.33934e-05
-6.46522e-05
3.61367e-05
-6.39408e-05
3.91203e-05
-6.31787e-05
4.23552e-05
-6.23425e-05
4.58622e-05
-6.14474e-05
4.96297e-05
-6.04689e-05
5.36995e-05
-5.94255e-05
5.81543e-05
-5.82936e-05
6.29801e-05
-5.70811e-05
6.8112e-05
-5.57665e-05
7.37076e-05
-5.43624e-05
7.98248e-05
-5.28393e-05
8.63352e-05
-5.12021e-05
9.33949e-05
-4.94346e-05
0.000101148
-4.75231e-05
0.000109312
-4.54568e-05
0.000118347
-4.32246e-05
0.000128036
-4.08042e-05
0.000138493
-3.81884e-05
0.00014991
-3.53493e-05
0.000162102
-3.22793e-05
0.00017548
-2.89483e-05
0.000189763
-2.53401e-05
0.000205373
-2.14211e-05
0.00022214
-1.71707e-05
0.000240291
-1.25709e-05
0.000259963
-7.58272e-06
0.000280992
-2.18481e-06
0.000303865
3.66228e-06
0.000328387
9.99845e-06
0.000354654
1.68528e-05
0.000382934
2.42632e-05
0.00041315
3.22722e-05
0.000445257
4.09142e-05
0.000479387
5.02241e-05
0.000515451
6.02353e-05
0.000553275
7.09787e-05
0.000592631
8.24721e-05
0.000633161
9.47343e-05
0.000674347
0.00010775
0.000715455
0.000121515
0.000755498
0.000135953
0.000793146
0.000150994
0.000826628
0.000166575
0.000853748
0.000182515
0.000871451
0.000198633
0.000876096
0.000214563
0.000862837
0.000230002
0.000826745
0.000244103
0.000759752
0.000256265
0.000656062
0.000506825
0.000266132
-6.80018e-05
1.75489e-05
6.82953e-05
-6.76959e-05
1.89687e-05
-6.73524e-05
2.05051e-05
-6.69889e-05
2.21685e-05
-6.65822e-05
2.39702e-05
-6.61488e-05
2.59231e-05
-6.56655e-05
2.80411e-05
-6.51474e-05
3.03394e-05
-6.45707e-05
3.2822e-05
-6.39504e-05
3.55124e-05
-6.32639e-05
3.84394e-05
-6.25265e-05
4.1614e-05
-6.17147e-05
4.50567e-05
-6.08428e-05
4.87543e-05
-5.98867e-05
5.27495e-05
-5.88638e-05
5.71281e-05
-5.77515e-05
6.18733e-05
-5.65573e-05
6.69144e-05
-5.52605e-05
7.24153e-05
-5.38738e-05
7.84348e-05
-5.23687e-05
8.48337e-05
-5.07505e-05
9.1774e-05
-4.90036e-05
9.94047e-05
-4.7115e-05
0.000107422
-4.50744e-05
0.000116309
-4.28709e-05
0.000125832
-4.0483e-05
0.000136107
-3.79037e-05
0.000147332
-3.51054e-05
0.000159305
-3.20808e-05
0.000172456
-2.88005e-05
0.000186481
-2.52482e-05
0.000201821
-2.13917e-05
0.000218288
-1.72098e-05
0.000236117
-1.26857e-05
0.000255443
-7.78084e-06
0.000276087
-2.47419e-06
0.000298556
3.27272e-06
0.000322637
9.49895e-06
0.000348425
1.6233e-05
0.000376197
2.35118e-05
0.000405867
3.13774e-05
0.000437388
3.98633e-05
0.000470899
4.90036e-05
0.000506308
5.88314e-05
0.000543446
6.93769e-05
0.000582086
8.06578e-05
0.00062188
9.26928e-05
0.000662317
0.000105469
0.00070268
0.000118982
0.000741995
0.000133162
0.000778953
0.000147943
0.000811816
0.000163262
0.000838395
0.00017895
0.000855718
0.000194825
0.000860171
0.000210528
0.00084704
0.000225759
0.000811394
0.000239726
0.000745603
0.000251905
0.000643696
0.00049656
0.000261877
-6.71107e-05
1.72685e-05
6.73971e-05
-6.68126e-05
1.86648e-05
-6.64783e-05
2.01755e-05
-6.61255e-05
2.18105e-05
-6.57315e-05
2.3581e-05
-6.53127e-05
2.54994e-05
-6.48463e-05
2.75792e-05
-6.43472e-05
2.98356e-05
-6.37917e-05
3.22716e-05
-6.31947e-05
3.4911e-05
-6.25328e-05
3.77832e-05
-6.18213e-05
4.08985e-05
-6.10357e-05
4.42776e-05
-6.01905e-05
4.79053e-05
-5.92603e-05
5.18256e-05
-5.82631e-05
5.61272e-05
-5.71751e-05
6.07909e-05
-5.60047e-05
6.57404e-05
-5.47308e-05
7.11461e-05
-5.33665e-05
7.70672e-05
-5.18838e-05
8.33548e-05
-5.02884e-05
9.0176e-05
-4.85654e-05
9.76848e-05
-4.67024e-05
0.000105557
-4.46893e-05
0.000114298
-4.25162e-05
0.000123659
-4.01618e-05
0.000133754
-3.76194e-05
0.00014479
-3.48624e-05
0.000156549
-3.18833e-05
0.000169477
-2.86535e-05
0.00018325
-2.51574e-05
0.000198325
-2.13623e-05
0.000214498
-1.72488e-05
0.00023201
-1.27996e-05
0.000250999
-7.97713e-06
0.000271264
-2.76086e-06
0.000293338
2.88686e-06
0.000316986
9.00414e-06
0.000342305
1.56189e-05
0.000369579
2.27673e-05
0.000398716
3.04908e-05
0.000429661
3.88222e-05
0.000462564
4.77953e-05
0.000497332
5.74425e-05
0.000533795
6.77939e-05
0.000571732
7.88673e-05
0.0006108
9.06819e-05
0.000650499
0.000103226
0.000690122
0.000116499
0.000728715
0.000130431
0.00076499
0.000144965
0.000797234
0.000160037
0.000823316
0.000175485
0.000840286
0.000191129
0.000844596
0.000206611
0.00083162
0.000221636
0.000796504
0.000235462
0.000731924
0.000247642
0.000631832
0.00048704
0.000257683
-6.61924e-05
1.69938e-05
6.64731e-05
-6.59006e-05
1.83676e-05
-6.55742e-05
1.98537e-05
-6.52303e-05
2.14617e-05
-6.4847e-05
2.32026e-05
-6.44406e-05
2.50882e-05
-6.3989e-05
2.71319e-05
-6.35066e-05
2.93487e-05
-6.29703e-05
3.17404e-05
-6.23945e-05
3.43311e-05
-6.17561e-05
3.71504e-05
-6.10696e-05
4.02082e-05
-6.03109e-05
4.3525e-05
-5.9493e-05
4.7084e-05
-5.85912e-05
5.09299e-05
-5.76221e-05
5.51547e-05
-5.65624e-05
5.97366e-05
-5.54195e-05
6.45941e-05
-5.4173e-05
6.9904e-05
-5.28354e-05
7.57264e-05
-5.13794e-05
8.19024e-05
-4.98109e-05
8.86049e-05
-4.81153e-05
9.59922e-05
-4.62808e-05
0.000103721
-4.42979e-05
0.000112318
-4.2157e-05
0.000121517
-3.98376e-05
0.000131436
-3.73335e-05
0.000142287
-3.46183e-05
0.000153834
-3.16853e-05
0.000166545
-2.85062e-05
0.000180069
-2.50658e-05
0.000194885
-2.13326e-05
0.00021077
-1.72866e-05
0.000227972
-1.29118e-05
0.000246628
-8.17099e-06
0.000266524
-3.04422e-06
0.000288209
2.50525e-06
0.000311434
8.51468e-06
0.000336292
1.50113e-05
0.000363079
2.20309e-05
0.000391693
2.96141e-05
0.000422075
3.77933e-05
0.000454382
4.6602e-05
0.000488522
5.60724e-05
0.000524324
6.62343e-05
0.000561572
7.7106e-05
0.000599929
8.87074e-05
0.000638903
0.000101029
0.000677803
0.000114071
0.000715687
0.000127769
0.000751285
0.000142068
0.000782914
0.000156904
0.000808454
0.000172122
0.000825033
0.00018754
0.000829136
0.000202807
0.000816273
0.000217625
0.000781578
0.000231304
0.000718081
0.000243448
0.000619519
0.000476727
0.000253493
-6.52562e-05
1.67241e-05
6.55316e-05
-6.49702e-05
1.80762e-05
-6.46505e-05
1.95385e-05
-6.43142e-05
2.11206e-05
-6.39399e-05
2.2833e-05
-6.3544e-05
2.46874e-05
-6.31046e-05
2.66969e-05
-6.26366e-05
2.8876e-05
-6.21169e-05
3.12258e-05
-6.15601e-05
3.377e-05
-6.09431e-05
3.65388e-05
-6.02801e-05
3.95412e-05
-5.95469e-05
4.27979e-05
-5.87563e-05
4.62898e-05
-5.78831e-05
5.00627e-05
-5.69435e-05
5.42115e-05
-5.59138e-05
5.87122e-05
-5.48012e-05
6.34781e-05
-5.35851e-05
6.86923e-05
-5.22777e-05
7.44158e-05
-5.08521e-05
8.04803e-05
-4.9314e-05
8.70642e-05
-4.76491e-05
9.43303e-05
-4.58463e-05
0.000101917
-4.38963e-05
0.000110371
-4.179e-05
0.000119411
-3.95075e-05
0.000129156
-3.7043e-05
0.000139823
-3.43709e-05
0.000151163
-3.14847e-05
0.000163659
-2.83568e-05
0.00017694
-2.49725e-05
0.000191501
-2.13006e-05
0.000207103
-1.73222e-05
0.000224001
-1.30211e-05
0.000242332
-8.36136e-06
0.000261864
-3.32329e-06
0.000283169
2.12894e-06
0.000305979
8.03174e-06
0.000330387
1.44118e-05
0.000356697
2.13044e-05
0.000384798
2.87497e-05
0.000414627
3.67797e-05
0.00044635
4.54276e-05
0.000479871
5.47255e-05
0.000515023
6.47034e-05
0.000551592
7.53798e-05
0.000589246
8.67758e-05
0.000627505
9.88836e-05
0.000665684
0.000111705
0.00070286
0.000125177
0.000737783
0.000139251
0.000768798
0.00015386
0.000793838
0.000168855
0.000810056
0.000184054
0.000814003
0.000199108
0.000801285
0.000213719
0.0007671
0.000227238
0.000704717
0.000239303
0.000607774
0.000467249
0.000249296
-6.43085e-05
1.64593e-05
6.45792e-05
-6.40276e-05
1.779e-05
-6.37138e-05
1.92293e-05
-6.33842e-05
2.07862e-05
-6.3018e-05
2.24713e-05
-6.26311e-05
2.42958e-05
-6.22026e-05
2.62726e-05
-6.17469e-05
2.84158e-05
-6.12418e-05
3.07255e-05
-6.07014e-05
3.32255e-05
-6.01035e-05
3.59461e-05
-5.94616e-05
3.88956e-05
-5.87522e-05
4.20943e-05
-5.79871e-05
4.55213e-05
-5.71418e-05
4.92231e-05
-5.62312e-05
5.32975e-05
-5.52323e-05
5.77183e-05
-5.4151e-05
6.23935e-05
-5.29672e-05
6.75126e-05
-5.16922e-05
7.31377e-05
-5.02996e-05
7.90911e-05
-4.87947e-05
8.55567e-05
-4.71637e-05
9.27022e-05
-4.53954e-05
0.000100147
-4.3481e-05
0.000108459
-4.14117e-05
0.000117341
-3.91683e-05
0.000126914
-3.67452e-05
0.000137401
-3.41175e-05
0.000148537
-3.12791e-05
0.000160821
-2.82031e-05
0.000173862
-2.48751e-05
0.000188173
-2.1265e-05
0.000203498
-1.73537e-05
0.000220097
-1.31261e-05
0.000238108
-8.5467e-06
0.000257284
-3.59646e-06
0.000278216
1.75961e-06
0.00030062
7.55718e-06
0.000324586
1.38225e-05
0.000350429
2.05904e-05
0.000378028
2.79005e-05
0.000407315
3.57847e-05
0.000438463
4.42759e-05
0.000471379
5.34062e-05
0.000505892
6.32057e-05
0.000541794
7.36936e-05
0.00057876
8.48914e-05
0.000616314
9.67935e-05
0.000653787
0.000109403
0.000690267
0.000122659
0.000724524
0.000136516
0.000754929
0.000150905
0.000779428
0.000165682