/*--------------------------------*- C++ -*----------------------------------*\
  =========                 |
  \\      /  F ield         | OpenFOAM: The Open Source CFD Toolbox
   \\    /   O peration     | Website:  https://openfoam.org
    \\  /    A nd           | Version:  6.0
     \\/     M anipulation  |
\*---------------------------------------------------------------------------*/
FoamFile
{
    version     2.0;
    format      ascii;
    class       volVectorField;
    location    "16";
    object      U;
}
// * * * * * * * * * * * * * * * * * * * * * * * * * * * * * * * * * * * * * //

dimensions      [0 1 -1 0 0 0 0];

internalField   nonuniform List<vector> 
62000
(
(0.96578 -0.258864 -1.7726e-21)
(0.965786 -0.258869 1.48378e-21)
(0.965794 -0.258862 1.54346e-21)
(0.965801 -0.258862 -6.84423e-21)
(0.965805 -0.258864 -7.91748e-21)
(0.965809 -0.258867 2.75417e-20)
(0.965811 -0.25887 -3.05671e-20)
(0.965812 -0.258873 1.7921e-20)
(0.965811 -0.258878 -8.46282e-21)
(0.965807 -0.258888 -4.35126e-20)
(0.9658 -0.258903 -5.473e-21)
(0.965791 -0.258921 6.17412e-20)
(0.965781 -0.258941 1.25662e-20)
(0.965771 -0.258961 -4.43056e-20)
(0.965763 -0.258979 6.92458e-20)
(0.965757 -0.258995 -3.70734e-20)
(0.965752 -0.25901 3.7933e-20)
(0.965748 -0.259025 -4.48107e-20)
(0.965745 -0.25904 2.17563e-20)
(0.965742 -0.259054 -6.68826e-20)
(0.965739 -0.259069 8.725e-20)
(0.965736 -0.259084 2.46389e-20)
(0.965734 -0.259099 3.42984e-20)
(0.965731 -0.259114 -1.61575e-19)
(0.965729 -0.259129 5.84787e-20)
(0.965727 -0.259144 -3.43069e-20)
(0.965727 -0.259159 1.0828e-21)
(0.965726 -0.259174 -2.44899e-20)
(0.965728 -0.259189 8.04816e-20)
(0.96573 -0.259203 -4.04305e-20)
(0.965734 -0.259216 9.35931e-20)
(0.96574 -0.259229 -1.82083e-19)
(0.96575 -0.259242 1.89995e-20)
(0.965765 -0.259258 -4.51465e-20)
(0.965785 -0.259273 -9.2827e-21)
(0.965812 -0.259283 -3.81494e-20)
(0.965848 -0.25929 1.61865e-21)
(0.965896 -0.259291 5.0339e-21)
(0.965958 -0.259286 2.37052e-20)
(0.966038 -0.259272 2.68417e-20)
(0.966141 -0.259245 7.48049e-21)
(0.966271 -0.259199 9.4008e-20)
(0.966435 -0.259127 2.815e-19)
(0.966638 -0.259019 -2.21658e-19)
(0.966888 -0.258864 -1.17244e-19)
(0.967191 -0.258646 5.44015e-19)
(0.967552 -0.258346 -5.11684e-20)
(0.967977 -0.257941 3.39684e-19)
(0.968467 -0.257402 1.7878e-18)
(0.969024 -0.256695 5.98712e-19)
(0.969645 -0.255774 3.504e-19)
(0.970331 -0.254572 4.15931e-18)
(0.971077 -0.252991 -1.23333e-18)
(0.971884 -0.250872 -5.62654e-18)
(0.972753 -0.247931 -1.34203e-18)
(0.973725 -0.243683 -5.87782e-18)
(0.974577 -0.236961 4.01777e-19)
(0.979227 -0.223922 3.91174e-19)
(0.972158 -0.19077 -2.3429e-18)
(1.04487 -0.152657 -2.81819e-19)
(0.965758 -0.260176 -4.60074e-22)
(0.965773 -0.260181 4.44871e-21)
(0.965794 -0.260158 1.88077e-21)
(0.965809 -0.260145 -8.07548e-21)
(0.965821 -0.260136 3.39294e-21)
(0.965833 -0.260128 -2.37121e-20)
(0.965845 -0.260115 2.18941e-20)
(0.965857 -0.260091 1.28437e-20)
(0.965867 -0.260056 -2.42387e-20)
(0.965872 -0.260015 1.03556e-21)
(0.96587 -0.259981 2.39126e-20)
(0.965858 -0.259962 4.57467e-23)
(0.965837 -0.259959 6.90956e-21)
(0.965811 -0.259969 -5.99851e-20)
(0.965782 -0.259985 1.20739e-19)
(0.965752 -0.260003 -1.07252e-19)
(0.965725 -0.260019 5.02661e-20)
(0.9657 -0.260033 -1.06402e-20)
(0.965677 -0.260047 -2.87833e-20)
(0.965657 -0.260061 7.85628e-20)
(0.965638 -0.260077 -1.23943e-19)
(0.965621 -0.260096 7.17232e-20)
(0.965605 -0.260117 -8.90909e-20)
(0.96559 -0.260141 5.35917e-20)
(0.965577 -0.260167 4.78869e-20)
(0.965564 -0.260197 -3.11292e-20)
(0.965553 -0.260228 6.43034e-22)
(0.965544 -0.260262 3.41078e-20)
(0.965537 -0.260297 2.70852e-20)
(0.965533 -0.260333 -5.07177e-20)
(0.965531 -0.260368 1.00165e-19)
(0.965533 -0.260404 1.71747e-20)
(0.965541 -0.260442 4.79637e-20)
(0.965557 -0.260483 2.08149e-21)
(0.965581 -0.260521 7.53053e-21)
(0.965617 -0.260553 -1.46692e-20)
(0.965667 -0.260577 -3.42168e-20)
(0.965737 -0.260593 -2.04888e-20)
(0.96583 -0.260599 -4.45386e-20)
(0.965955 -0.260589 -1.48555e-20)
(0.966119 -0.260557 -4.75462e-21)
(0.966329 -0.260492 -1.0661e-20)
(0.966596 -0.260381 -3.21074e-19)
(0.96693 -0.260206 -3.5937e-20)
(0.967339 -0.259948 9.63919e-19)
(0.967832 -0.25958 -4.8403e-19)
(0.968415 -0.259077 -5.02558e-19)
(0.969088 -0.258405 -7.04205e-19)
(0.969849 -0.257531 -1.44934e-19)
(0.970691 -0.256414 -1.54855e-20)
(0.971607 -0.254998 -1.78246e-18)
(0.972583 -0.253205 -5.35284e-18)
(0.973596 -0.250917 3.97702e-18)
(0.974611 -0.247972 1.07391e-17)
(0.975556 -0.244091 2.86092e-18)
(0.976408 -0.238971 1.96794e-18)
(0.976659 -0.231998 5.63698e-18)
(0.978438 -0.220308 2.98218e-18)
(0.977779 -0.213015 -4.97025e-18)
(0.960848 -0.233259 -1.09864e-18)
(0.965749 -0.261389 -2.15313e-21)
(0.965767 -0.261379 -3.14152e-22)
(0.965803 -0.261346 3.34734e-22)
(0.965837 -0.26132 1.56051e-21)
(0.965866 -0.261299 4.48916e-21)
(0.965892 -0.261291 -4.28366e-21)
(0.965916 -0.261291 2.30912e-20)
(0.96594 -0.261286 -1.10577e-20)
(0.965965 -0.261257 -6.03434e-21)
(0.965989 -0.261203 -3.74205e-20)
(0.966009 -0.261135 3.18229e-20)
(0.966019 -0.261076 2.33913e-21)
(0.966016 -0.261041 -7.43494e-21)
(0.966 -0.261035 1.97657e-20)
(0.965975 -0.261051 -3.38575e-20)
(0.965942 -0.261081 3.35341e-22)
(0.965907 -0.261112 -1.53722e-20)
(0.965872 -0.261141 6.14291e-22)
(0.965839 -0.261165 3.60142e-20)
(0.965809 -0.261186 -5.41327e-20)
(0.965782 -0.261207 3.37558e-20)
(0.965758 -0.261229 1.2794e-19)
(0.965737 -0.261253 -1.96653e-20)
(0.965719 -0.261281 -1.74617e-19)
(0.965704 -0.261313 8.94396e-20)
(0.965691 -0.261348 -4.4838e-20)
(0.965682 -0.261387 7.29069e-20)
(0.965675 -0.261429 -4.50383e-20)
(0.96567 -0.261473 -8.34391e-20)
(0.965668 -0.261518 7.97974e-20)
(0.965668 -0.261563 -5.56783e-20)
(0.965671 -0.261608 7.21805e-20)
(0.965679 -0.261657 -1.77154e-19)
(0.965694 -0.261708 1.4693e-19)
(0.965715 -0.261756 -7.07952e-20)
(0.965744 -0.261795 3.1295e-20)
(0.965783 -0.261826 1.76785e-20)
(0.965836 -0.26185 1.15966e-20)
(0.965909 -0.261863 2.37848e-20)
(0.966008 -0.261862 1.48761e-20)
(0.966139 -0.261838 8.30848e-21)
(0.966312 -0.261782 -2.69977e-20)
(0.966535 -0.261678 2.14641e-19)
(0.966817 -0.261511 1.54014e-19)
(0.967166 -0.261258 -2.01832e-19)
(0.967588 -0.260899 9.49068e-19)
(0.968087 -0.260408 -1.47059e-19)
(0.968658 -0.259763 1.19479e-18)
(0.969298 -0.25894 -1.93069e-18)
(0.969993 -0.257915 -5.68025e-19)
(0.970735 -0.256654 -3.58176e-19)
(0.971507 -0.255103 9.67767e-20)
(0.972287 -0.253169 -1.80552e-18)
(0.973047 -0.250725 1.3818e-20)
(0.973722 -0.247537 4.68287e-18)
(0.974353 -0.243359 2.6005e-18)
(0.97463 -0.237573 3.26187e-18)
(0.976347 -0.227934 9.90505e-18)
(0.97554 -0.214815 -8.51837e-19)
(0.988578 -0.208603 -8.7774e-19)
(0.96569 -0.262356 -2.0796e-21)
(0.965733 -0.262326 6.3994e-21)
(0.965797 -0.262278 -9.76133e-22)
(0.96585 -0.262225 -6.67567e-21)
(0.965889 -0.262167 1.01273e-20)
(0.965916 -0.262127 1.75819e-20)
(0.965932 -0.26212 -2.30452e-20)
(0.965941 -0.262134 2.51387e-21)
(0.965951 -0.262141 8.07053e-21)
(0.965965 -0.262115 1.69064e-20)
(0.965985 -0.262054 -3.14349e-20)
(0.966005 -0.261982 -9.75136e-21)
(0.966021 -0.261926 -1.09203e-20)
(0.966028 -0.261906 5.00423e-20)
(0.966025 -0.261928 -3.34481e-20)
(0.966013 -0.261981 7.75378e-20)
(0.965995 -0.262048 -9.39402e-20)
(0.965972 -0.262119 -1.30894e-20)
(0.965948 -0.262183 9.68897e-20)
(0.965923 -0.262238 -3.39951e-20)
(0.965901 -0.262286 -1.21094e-20)
(0.965881 -0.262329 -1.26787e-20)
(0.965864 -0.26237 -1.11543e-19)
(0.965851 -0.262412 6.6203e-20)
(0.965843 -0.262454 -2.64753e-20)
(0.965839 -0.262499 4.57124e-20)
(0.96584 -0.262545 1.93549e-20)
(0.965845 -0.262594 9.33733e-20)
(0.965854 -0.262643 -5.83879e-20)
(0.965866 -0.262693 -7.05509e-20)
(0.965882 -0.262741 9.77878e-20)
(0.9659 -0.262789 -7.74691e-20)
(0.965922 -0.262839 1.27881e-19)
(0.96595 -0.26289 -6.3944e-20)
(0.965983 -0.262936 2.87848e-20)
(0.966022 -0.262971 3.86345e-20)
(0.966068 -0.262996 -5.45783e-21)
(0.966124 -0.263011 -3.20864e-21)
(0.966195 -0.263014 2.7531e-22)
(0.966287 -0.263001 -2.45278e-20)
(0.966408 -0.262963 3.11311e-20)
(0.966565 -0.26289 -1.23787e-20)
(0.966766 -0.262767 -4.70179e-20)
(0.967023 -0.262576 -2.14062e-19)
(0.967343 -0.262296 -2.72273e-19)
(0.967735 -0.261904 -1.33744e-20)
(0.968203 -0.261376 -8.05352e-19)
(0.968746 -0.260689 -1.00693e-18)
(0.969362 -0.259819 -1.47496e-18)
(0.970039 -0.258744 1.17373e-18)
(0.970771 -0.257429 1.66383e-18)
(0.971543 -0.255822 -1.39862e-18)
(0.97234 -0.25382 -2.20226e-18)
(0.973152 -0.251278 -4.66777e-18)
(0.973941 -0.247918 -3.06758e-18)
(0.974801 -0.243372 -7.3779e-18)
(0.975658 -0.236944 -1.41516e-17)
(0.977935 -0.22554 3.41921e-18)
(0.978678 -0.211425 9.36379e-18)
(0.980075 -0.213723 4.14149e-18)
(0.965849 -0.263039 3.89408e-21)
(0.965925 -0.262994 -1.30557e-21)
(0.965991 -0.262943 2.1993e-21)
(0.966017 -0.262879 -3.11339e-21)
(0.966016 -0.262793 7.02735e-21)
(0.965998 -0.262715 -3.479e-21)
(0.965964 -0.262682 1.88347e-21)
(0.965919 -0.262698 -2.81348e-20)
(0.965869 -0.262735 2.36372e-20)
(0.965826 -0.262754 -4.73417e-20)
(0.965797 -0.262732 5.22742e-20)
(0.965784 -0.262678 -6.30405e-21)
(0.965785 -0.262624 -1.40537e-20)
(0.965794 -0.262602 -6.47404e-21)
(0.965807 -0.262629 -1.3104e-21)
(0.965822 -0.262706 -6.42383e-20)
(0.965836 -0.262817 4.00935e-21)
(0.965851 -0.262944 6.98923e-20)
(0.965865 -0.26307 -2.19686e-20)
(0.965878 -0.263187 -2.22835e-20)
(0.96589 -0.263291 3.87967e-20)
(0.965901 -0.263382 -1.79142e-20)
(0.965913 -0.263462 7.49347e-20)
(0.965926 -0.263535 3.74582e-20)
(0.965941 -0.263602 2.59679e-20)
(0.965961 -0.263665 -9.03658e-20)
(0.965985 -0.263725 -1.21167e-20)
(0.966014 -0.263782 -6.09226e-20)
(0.966048 -0.263837 1.31088e-20)
(0.966086 -0.263888 -1.61248e-20)
(0.966128 -0.263935 -4.5093e-21)
(0.966174 -0.263979 4.59839e-20)
(0.966225 -0.264023 -1.17167e-19)
(0.966281 -0.264065 -1.00043e-22)
(0.966344 -0.264098 -4.34658e-20)
(0.966411 -0.264118 -2.06167e-20)
(0.966484 -0.264123 1.40821e-20)
(0.966565 -0.264115 -9.81017e-21)
(0.96666 -0.264092 -1.98722e-20)
(0.966772 -0.264048 -3.53803e-20)
(0.96691 -0.263976 -8.01972e-20)
(0.96708 -0.263863 1.16619e-19)
(0.967293 -0.263697 1.02651e-19)
(0.967558 -0.263458 -1.67383e-20)
(0.967888 -0.263125 -2.64996e-19)
(0.968292 -0.262673 -4.29272e-19)
(0.968779 -0.262074 -2.45415e-19)
(0.969354 -0.261302 -3.94862e-19)
(0.970017 -0.260327 3.16295e-19)
(0.970762 -0.259118 -3.20633e-18)
(0.971581 -0.257634 -9.52223e-19)
(0.97246 -0.255814 8.54804e-19)
(0.973378 -0.253547 -8.57597e-19)
(0.974321 -0.250682 -4.49117e-18)
(0.975242 -0.246952 6.48589e-19)
(0.976202 -0.242005 5.57626e-18)
(0.977201 -0.235362 1.70053e-17)
(0.979341 -0.224072 -1.89123e-17)
(0.978377 -0.212824 1.20991e-17)
(0.983305 -0.213684 -5.39508e-18)
(0.96631 -0.263526 -1.42996e-21)
(0.966361 -0.263481 5.78392e-21)
(0.966356 -0.263455 -9.55613e-21)
(0.96629 -0.263421 7.15961e-21)
(0.966194 -0.263353 4.67281e-21)
(0.966091 -0.263273 -4.96891e-21)
(0.965984 -0.263226 4.21556e-22)
(0.965869 -0.263238 -3.76557e-21)
(0.965748 -0.263292 -1.27197e-20)
(0.96563 -0.263347 2.44745e-20)
(0.965527 -0.263365 -3.81542e-20)
(0.965446 -0.263342 3.35798e-20)
(0.96539 -0.263301 2.98383e-20)
(0.965359 -0.263278 -4.62494e-20)
(0.965351 -0.263303 -1.49817e-20)
(0.965362 -0.263388 5.64645e-20)
(0.965391 -0.263523 -6.76301e-20)
(0.965436 -0.263692 9.19348e-20)
(0.965493 -0.263874 -1.82918e-20)
(0.96556 -0.264054 8.39407e-21)
(0.965631 -0.264222 -1.62314e-20)
(0.965704 -0.264375 -1.92091e-20)
(0.965776 -0.264511 -3.3531e-20)
(0.965845 -0.264633 5.50839e-20)
(0.965914 -0.264741 -3.78064e-20)
(0.965981 -0.264838 -3.3139e-20)
(0.96605 -0.264923 6.74208e-20)
(0.966121 -0.264998 -5.58709e-20)
(0.966196 -0.265063 8.88824e-20)
(0.966274 -0.265118 -4.59262e-20)
(0.966356 -0.265163 3.04539e-20)
(0.966441 -0.2652 -4.04734e-20)
(0.966531 -0.265233 3.96759e-20)
(0.966628 -0.26526 -4.16345e-21)
(0.966729 -0.265273 -3.08652e-21)
(0.966835 -0.265268 -6.98697e-23)
(0.966946 -0.265243 1.43569e-20)
(0.967064 -0.265201 -4.64275e-21)
(0.967191 -0.265141 -4.72606e-22)
(0.967333 -0.265056 2.08042e-19)
(0.967493 -0.26494 1.34873e-19)
(0.967679 -0.264782 -9.14058e-20)
(0.967898 -0.26457 2.2426e-19)
(0.968161 -0.264288 2.03871e-19)
(0.968478 -0.263916 3.65391e-20)
(0.968863 -0.263431 -8.2093e-19)
(0.969326 -0.262805 1.38324e-18)
(0.969875 -0.262011 1.57312e-18)
(0.970515 -0.261016 1.10111e-18)
(0.971246 -0.259785 2.29843e-18)
(0.972062 -0.258273 -1.87377e-18)
(0.972947 -0.256415 6.915e-19)
(0.973876 -0.254108 6.95749e-18)
(0.974832 -0.251207 -1.82994e-18)
(0.975758 -0.247484 -2.43725e-18)
(0.976679 -0.242649 6.00114e-18)
(0.977678 -0.2363 -4.1426e-18)
(0.979794 -0.225726 -6.80072e-18)
(0.979207 -0.213451 -1.94029e-17)
(0.983918 -0.212259 -2.46438e-19)
(0.966755 -0.264247 1.61037e-21)
(0.966698 -0.264229 -7.27898e-21)
(0.96658 -0.264245 3.55757e-21)
(0.966407 -0.264271 6.65496e-21)
(0.966218 -0.264261 -1.43444e-20)
(0.966045 -0.264218 1.20724e-20)
(0.96589 -0.264184 -8.08351e-21)
(0.965743 -0.264197 6.8899e-21)
(0.965597 -0.264255 1.09582e-20)
(0.965451 -0.264323 -2.65057e-20)
(0.965309 -0.264359 3.8385e-20)
(0.96518 -0.264347 1.6463e-20)
(0.965071 -0.264303 -6.55963e-20)
(0.964986 -0.26426 -1.22322e-20)
(0.964925 -0.264255 3.52582e-20)
(0.964891 -0.264307 2.24261e-20)
(0.964886 -0.264419 -2.72254e-20)
(0.964911 -0.264579 2.34579e-20)
(0.964967 -0.264767 3.46044e-20)
(0.965051 -0.264969 -1.82151e-20)
(0.965157 -0.265169 -1.01767e-20)
(0.965279 -0.265361 3.18532e-20)
(0.965411 -0.26554 6.2215e-20)
(0.965545 -0.265706 -4.87468e-20)
(0.965679 -0.265856 -4.8337e-20)
(0.965811 -0.26599 4.94375e-20)
(0.96594 -0.266107 -3.80261e-20)
(0.966067 -0.266209 -1.25344e-20)
(0.966195 -0.266293 1.03886e-19)
(0.966323 -0.266359 -4.10092e-20)
(0.966453 -0.266409 -2.40391e-20)
(0.966586 -0.266443 3.88317e-20)
(0.966723 -0.266467 2.07263e-20)
(0.966866 -0.266479 -8.51691e-21)
(0.967014 -0.266472 -4.54748e-21)
(0.967166 -0.26644 2.81845e-21)
(0.967323 -0.266382 8.06815e-21)
(0.967485 -0.266301 -6.2512e-21)
(0.967655 -0.266197 6.50832e-20)
(0.967835 -0.266065 1.27959e-19)
(0.968027 -0.265898 -1.90612e-19)
(0.968236 -0.26569 -2.19655e-19)
(0.968467 -0.265429 -4.35894e-19)
(0.968728 -0.265104 5.15981e-19)
(0.969029 -0.264699 6.89751e-19)
(0.96938 -0.264196 4.49072e-19)
(0.969794 -0.263569 -1.37659e-18)
(0.97028 -0.262795 -1.60226e-18)
(0.970851 -0.261841 1.98075e-18)
(0.971509 -0.26067 3.47957e-18)
(0.972257 -0.259231 4.74826e-19)
(0.973085 -0.257459 -9.29415e-19)
(0.973977 -0.255243 1.9716e-20)
(0.974925 -0.252433 2.89745e-18)
(0.975893 -0.24879 -3.18461e-18)
(0.976906 -0.243999 -1.90824e-18)
(0.978155 -0.237522 -3.27491e-18)
(0.98085 -0.226457 2.06717e-17)
(0.981049 -0.211878 9.22583e-19)
(0.984754 -0.211013 -5.72578e-19)
(0.966754 -0.265604 -2.53409e-21)
(0.966558 -0.26563 -2.04178e-21)
(0.966358 -0.265686 2.76831e-21)
(0.966136 -0.265771 9.82326e-21)
(0.965921 -0.265827 -2.12399e-20)
(0.965742 -0.265836 2.44046e-20)
(0.965603 -0.265832 -1.10357e-21)
(0.965493 -0.265854 -1.54394e-21)
(0.965396 -0.265911 -8.79221e-21)
(0.965299 -0.265975 2.12076e-20)
(0.965199 -0.266007 -3.2868e-20)
(0.965097 -0.265983 1.24754e-20)
(0.964997 -0.265914 -3.95591e-22)
(0.964902 -0.26583 1.97801e-20)
(0.964815 -0.265766 9.32528e-21)
(0.96474 -0.265749 -4.97018e-20)
(0.964683 -0.265789 4.28886e-20)
(0.96465 -0.26588 1.61859e-20)
(0.964649 -0.266011 -4.71646e-20)
(0.964686 -0.266165 2.27962e-20)
(0.964762 -0.266332 9.88774e-21)
(0.964873 -0.266503 -7.58624e-21)
(0.965013 -0.266674 6.63043e-21)
(0.965174 -0.266841 -5.83594e-21)
(0.965346 -0.267 -4.72491e-20)
(0.965524 -0.26715 2.9036e-20)
(0.965704 -0.267287 -4.11047e-20)
(0.965883 -0.267408 6.81e-20)
(0.96606 -0.267509 -1.74263e-20)
(0.966237 -0.26759 -7.38612e-21)
(0.966414 -0.267648 -3.1837e-21)
(0.966592 -0.267686 3.60989e-20)
(0.966775 -0.267707 -1.62001e-20)
(0.966964 -0.26771 5.80156e-22)
(0.967159 -0.267688 4.3273e-22)
(0.967359 -0.267633 -1.16323e-20)
(0.967567 -0.267546 2.91088e-20)
(0.967781 -0.267428 -5.89315e-21)
(0.968005 -0.26728 -9.85088e-20)
(0.96824 -0.267098 4.9954e-20)
(0.968486 -0.266877 -1.31268e-19)
(0.968745 -0.26661 2.04444e-19)
(0.969021 -0.266289 -3.89761e-19)
(0.969319 -0.265906 -8.95377e-19)
(0.969644 -0.265448 -2.12686e-19)
(0.970008 -0.2649 5.04998e-19)
(0.970421 -0.264244 1.75179e-18)
(0.970896 -0.263454 -5.47279e-19)
(0.971444 -0.262499 -6.13856e-19)
(0.972079 -0.261339 -1.19377e-18)
(0.972809 -0.259916 -3.92823e-20)
(0.973636 -0.258151 3.87535e-18)
(0.974557 -0.255919 -3.83899e-18)
(0.975585 -0.253039 2.98069e-18)
(0.976708 -0.249227 -7.2867e-18)
(0.977958 -0.244103 -1.85405e-18)
(0.979568 -0.236998 -1.09435e-17)
(0.982881 -0.224942 -1.86125e-17)
(0.983547 -0.209333 -3.62971e-18)
(0.985245 -0.210326 -2.87056e-18)
(0.966115 -0.267706 -1.11816e-21)
(0.965835 -0.267768 9.6026e-22)
(0.96564 -0.26784 4.88309e-21)
(0.965461 -0.267954 7.74004e-21)
(0.965305 -0.268052 -2.29592e-20)
(0.965193 -0.268102 1.32407e-20)
(0.965133 -0.268123 -2.37685e-20)
(0.965113 -0.268155 3.72312e-20)
(0.965118 -0.26821 -1.74817e-20)
(0.965131 -0.268266 3.06292e-21)
(0.965139 -0.268284 3.33537e-20)
(0.965136 -0.268243 -7.60141e-20)
(0.965121 -0.268144 5.19824e-20)
(0.965093 -0.268016 7.3843e-21)
(0.965052 -0.26789 1.15012e-20)
(0.964998 -0.267795 -4.91136e-20)
(0.964935 -0.267745 2.39945e-20)
(0.964868 -0.26774 -2.90305e-20)
(0.96481 -0.267771 5.5296e-20)
(0.964775 -0.267828 -7.97554e-21)
(0.964773 -0.267902 -6.63503e-20)
(0.964814 -0.26799 2.7181e-20)
(0.964897 -0.268086 -1.43245e-21)
(0.96502 -0.268193 -8.44607e-20)
(0.965174 -0.268306 6.36274e-20)
(0.965352 -0.268424 4.30761e-20)
(0.965544 -0.26854 2.30663e-20)
(0.965745 -0.26865 -3.39488e-20)
(0.96595 -0.268748 -3.16162e-20)
(0.966158 -0.268829 1.50243e-20)
(0.966368 -0.268889 1.04907e-20)
(0.96658 -0.268926 -1.26481e-20)
(0.966798 -0.268945 -5.03255e-21)
(0.967024 -0.268942 1.90856e-20)
(0.967258 -0.26891 1.70583e-21)
(0.967502 -0.26884 3.79646e-20)
(0.967757 -0.26873 9.39017e-21)
(0.968026 -0.268582 -7.90585e-20)
(0.968309 -0.268396 -2.19153e-20)
(0.96861 -0.268168 -1.50658e-19)
(0.968928 -0.267893 3.20539e-19)
(0.969265 -0.267563 6.057e-20)
(0.969623 -0.267172 2.39064e-19)
(0.970004 -0.266713 -2.19629e-19)
(0.970414 -0.266174 -5.84659e-19)
(0.97086 -0.265544 -2.25498e-18)
(0.971352 -0.264803 -2.28933e-19)
(0.971901 -0.263927 1.73028e-18)
(0.972523 -0.262884 -1.67842e-18)
(0.973231 -0.261626 -6.31522e-18)
(0.974041 -0.260087 5.73139e-18)
(0.974961 -0.258175 -7.7685e-18)
(0.975999 -0.255745 5.29183e-18)
(0.977176 -0.252588 3.70613e-18)
(0.978495 -0.248391 1.52309e-17)
(0.979963 -0.242746 1.03545e-18)
(0.981783 -0.234994 6.84658e-18)
(0.985371 -0.222333 1.00284e-17)
(0.986022 -0.207092 -8.22373e-18)
(0.985629 -0.210423 -8.4097e-19)
(0.964983 -0.270361 1.37679e-21)
(0.964723 -0.270436 4.97293e-22)
(0.964621 -0.270498 -5.06396e-21)
(0.964557 -0.27061 4.84713e-21)
(0.964518 -0.270718 -2.15076e-21)
(0.964522 -0.270783 3.86785e-21)
(0.964574 -0.270816 1.31982e-21)
(0.964667 -0.27085 -1.93072e-20)
(0.964789 -0.270899 8.44449e-21)
(0.964924 -0.270946 -5.56563e-21)
(0.96506 -0.270954 3.49504e-21)
(0.965186 -0.270899 1.32512e-20)
(0.965296 -0.270781 -2.38226e-21)
(0.965386 -0.270624 8.00104e-21)
(0.965453 -0.270457 -3.36102e-20)
(0.965492 -0.270306 1.32122e-20)
(0.965499 -0.270185 6.06524e-21)
(0.965473 -0.270097 -1.4125e-20)
(0.965421 -0.270034 2.80371e-20)
(0.965357 -0.269987 8.35563e-21)
(0.965296 -0.26995 -1.2336e-21)
(0.965258 -0.269922 -7.35555e-21)
(0.965256 -0.269903 3.25252e-20)
(0.965298 -0.2699 -8.42708e-20)
(0.965384 -0.269912 4.10725e-20)
(0.96551 -0.269943 1.38045e-20)
(0.965668 -0.269987 -2.52828e-20)
(0.965851 -0.27004 3.7325e-20)
(0.966051 -0.270095 -2.07824e-20)
(0.966264 -0.270145 -6.97327e-21)
(0.966484 -0.270182 -1.04453e-20)
(0.966713 -0.270202 4.61138e-21)
(0.96695 -0.270208 5.22261e-21)
(0.967199 -0.270193 1.1147e-20)
(0.967461 -0.270148 -4.82281e-20)
(0.967737 -0.270064 3.33177e-21)
(0.96803 -0.269935 -7.21077e-20)
(0.968344 -0.269764 2.3353e-19)
(0.968682 -0.269547 1.01449e-19)
(0.969048 -0.26928 -1.30824e-20)
(0.969442 -0.268956 1.50424e-19)
(0.969866 -0.268569 6.77795e-20)
(0.970323 -0.268108 6.1988e-19)
(0.970814 -0.267567 -3.25416e-19)
(0.971344 -0.266935 -3.99836e-19)
(0.971919 -0.266198 2.21839e-18)
(0.972547 -0.265336 -3.36263e-18)
(0.973236 -0.264325 -5.68469e-19)
(0.974002 -0.263126 -3.86014e-19)
(0.974855 -0.261689 4.62898e-18)
(0.975813 -0.259939 -1.68747e-18)
(0.976881 -0.257774 4.17876e-18)
(0.97807 -0.255043 -9.99692e-18)
(0.979396 -0.251528 -1.96648e-18)
(0.980854 -0.246917 1.17806e-17)
(0.982416 -0.24084 -4.98612e-18)
(0.98422 -0.23274 1.71187e-17)
(0.987757 -0.220016 4.85157e-18)
(0.988138 -0.205795 2.97678e-17)
(0.986066 -0.211057 3.61396e-18)
(0.963684 -0.273281 -2.61014e-22)
(0.963535 -0.273346 -1.04851e-21)
(0.963577 -0.27338 -9.23703e-22)
(0.963656 -0.273467 8.87282e-21)
(0.963754 -0.273559 -4.93501e-21)
(0.963882 -0.273616 -5.92707e-21)
(0.964048 -0.273645 -2.23507e-21)
(0.964246 -0.273672 -9.13036e-21)
(0.96447 -0.273713 5.82719e-21)
(0.964709 -0.27375 9.31554e-22)
(0.964953 -0.27375 3.48215e-22)
(0.965192 -0.273689 2.38339e-20)
(0.965421 -0.273565 -1.69229e-20)
(0.965634 -0.273397 -2.07639e-21)
(0.965826 -0.273213 1.89072e-20)
(0.965992 -0.273038 -1.03554e-20)
(0.966122 -0.272883 -3.46234e-21)
(0.966206 -0.27275 6.34939e-21)
(0.966239 -0.272629 1.76406e-20)
(0.966226 -0.272511 7.80532e-21)
(0.966179 -0.272389 1.00398e-21)
(0.966115 -0.27226 -2.166e-20)
(0.966058 -0.272128 8.29886e-21)
(0.966025 -0.272003 1.63016e-20)
(0.966031 -0.271891 -3.25138e-20)
(0.96608 -0.271799 7.45656e-21)
(0.966173 -0.27173 -2.97415e-20)
(0.966305 -0.271683 1.92943e-20)
(0.96647 -0.271653 7.73217e-21)
(0.96666 -0.271632 -1.66012e-20)
(0.966869 -0.271611 5.4782e-21)
(0.967095 -0.271586 -8.26928e-21)
(0.967337 -0.271555 -4.6733e-21)
(0.967595 -0.27151 1.92111e-20)
(0.967872 -0.271441 4.49559e-20)
(0.968168 -0.271335 6.1747e-20)
(0.968487 -0.271185 -3.44135e-20)
(0.968835 -0.27099 -1.11249e-19)
(0.969215 -0.270746 -3.61665e-20)
(0.969633 -0.270447 5.19917e-20)
(0.970092 -0.270084 -7.30859e-19)
(0.970595 -0.269647 8.79606e-20)
(0.971144 -0.269127 -1.01222e-18)
(0.971744 -0.268512 2.16346e-18)
(0.972397 -0.267792 -4.50557e-19)
(0.973108 -0.266949 -3.60345e-20)
(0.973885 -0.265961 1.66096e-20)
(0.974733 -0.264802 2.99739e-18)
(0.975661 -0.26343 5.23043e-18)
(0.97668 -0.26179 -5.37057e-18)
(0.977798 -0.259804 -7.9545e-18)
(0.979016 -0.257369 -4.85205e-18)
(0.980337 -0.254337 1.00053e-17)
(0.981765 -0.2505 -6.15432e-18)
(0.983278 -0.245577 -1.68336e-17)
(0.984814 -0.239259 -8.60976e-18)
(0.986465 -0.231101 -1.67045e-17)
(0.989817 -0.218579 -1.05281e-17)
(0.989883 -0.205359 -2.87939e-17)
(0.986671 -0.211923 1.05397e-17)
(0.962521 -0.2762 2.79986e-22)
(0.962533 -0.276241 -8.57207e-22)
(0.962724 -0.276244 3.08163e-21)
(0.962935 -0.276298 8.18042e-22)
(0.963152 -0.276362 -4.29282e-21)
(0.963386 -0.276401 -4.95602e-21)
(0.963643 -0.276415 1.17545e-20)
(0.963923 -0.27643 -1.28243e-20)
(0.964221 -0.276459 -3.07974e-21)
(0.964531 -0.276485 7.86347e-21)
(0.964848 -0.276479 7.13475e-21)
(0.965166 -0.276416 2.13582e-20)
(0.96548 -0.276292 -1.23598e-20)
(0.965787 -0.276127 -2.04602e-20)
(0.966085 -0.275946 4.44274e-21)
(0.966367 -0.275771 -1.55472e-20)
(0.966624 -0.275613 1.18532e-20)
(0.966843 -0.275473 -1.68808e-20)
(0.967009 -0.275339 4.2149e-21)
(0.967115 -0.275198 -2.68701e-21)
(0.967158 -0.275038 -2.23333e-22)
(0.96715 -0.274856 -8.55236e-21)
(0.967108 -0.27465 3.7748e-21)
(0.967054 -0.274432 1.82235e-20)
(0.967012 -0.274211 -2.83625e-21)
(0.966998 -0.274 2.68081e-21)
(0.967024 -0.273807 2.20966e-21)
(0.967094 -0.273638 -5.42306e-22)
(0.967205 -0.273494 2.41438e-21)
(0.967355 -0.273369 -6.54507e-21)
(0.967536 -0.273259 -6.02773e-21)
(0.967745 -0.273156 3.37179e-21)
(0.967978 -0.27306 3.75349e-20)
(0.968236 -0.272961 8.31319e-20)
(0.968518 -0.272847 -1.18735e-19)
(0.968824 -0.272704 -4.43855e-20)
(0.96916 -0.272521 -2.98733e-20)
(0.96953 -0.272297 -2.25247e-19)
(0.96994 -0.272025 2.10607e-19)
(0.970396 -0.271695 -1.55201e-19)
(0.970902 -0.271297 -4.28814e-20)
(0.971464 -0.270821 1.37705e-20)
(0.972086 -0.270253 3.81001e-19)
(0.972773 -0.269579 -1.04319e-18)
(0.973528 -0.268786 1.65841e-18)
(0.974356 -0.267854 -1.18489e-18)
(0.975261 -0.266759 3.60877e-18)
(0.976247 -0.265469 -9.27358e-19)
(0.97732 -0.263942 -2.81208e-18)
(0.978482 -0.262122 5.59686e-18)
(0.979735 -0.259928 1.22771e-18)
(0.98107 -0.257263 1.0932e-19)
(0.98248 -0.253989 2.1539e-18)
(0.983957 -0.249921 6.89207e-18)
(0.985462 -0.244809 -4.38173e-19)
(0.986914 -0.238407 -8.76386e-18)
(0.988389 -0.230338 1.03931e-17)
(0.991556 -0.218059 3.49466e-18)
(0.991359 -0.205555 3.79448e-18)
(0.987488 -0.212829 -7.88563e-18)
(0.961663 -0.278961 4.14941e-22)
(0.961839 -0.278973 -3.49792e-22)
(0.962152 -0.278945 3.31117e-22)
(0.962463 -0.278965 2.14856e-21)
(0.962764 -0.278998 3.14726e-21)
(0.96307 -0.279015 -1.23018e-20)
(0.963389 -0.279013 8.9149e-21)
(0.963721 -0.279013 1.82197e-21)
(0.964063 -0.27903 -5.92502e-22)
(0.964414 -0.279047 -3.93856e-21)
(0.964771 -0.279035 1.18824e-20)
(0.965132 -0.27897 -4.05379e-21)
(0.965496 -0.27885 -5.43927e-21)
(0.965861 -0.278693 -1.53747e-20)
(0.966227 -0.278522 3.05546e-20)
(0.966591 -0.27836 -6.91207e-21)
(0.966948 -0.278218 -5.63034e-21)
(0.967285 -0.278094 -1.27303e-20)
(0.967585 -0.277977 1.35269e-20)
(0.967833 -0.277852 5.53277e-21)
(0.968014 -0.277702 -2.74019e-21)
(0.968125 -0.277518 2.59044e-21)
(0.968171 -0.277294 -1.03345e-20)
(0.968169 -0.277036 2.27632e-21)
(0.968142 -0.276753 3.65051e-21)
(0.968112 -0.276458 -8.49776e-22)
(0.9681 -0.276165 1.3983e-20)
(0.968122 -0.275884 4.38305e-21)
(0.968184 -0.275624 -2.07519e-20)
(0.968289 -0.275385 1.15443e-20)
(0.968434 -0.275167 1.789e-20)
(0.968617 -0.274965 -2.2003e-20)
(0.968834 -0.27478 -5.11015e-20)
(0.969083 -0.274605 -1.39629e-19)
(0.969364 -0.274425 1.83022e-20)
(0.969676 -0.274226 -6.72134e-20)
(0.970021 -0.273995 3.55595e-19)
(0.970406 -0.273729 9.95017e-20)
(0.970836 -0.27342 -8.31265e-20)
(0.971318 -0.273055 4.1103e-19)
(0.971857 -0.272625 8.0784e-20)
(0.97246 -0.272113 -2.24953e-19)
(0.973132 -0.271505 -2.57127e-19)
(0.97388 -0.270786 -7.38003e-19)
(0.974708 -0.269936 -2.68709e-18)
(0.97562 -0.268936 2.42677e-18)
(0.976619 -0.267758 -4.37639e-18)
(0.977708 -0.266367 -3.65146e-18)
(0.978887 -0.264718 6.13701e-20)
(0.980155 -0.262757 -6.00872e-18)
(0.981503 -0.260403 8.90051e-18)
(0.982916 -0.257566 1.18965e-17)
(0.984376 -0.25412 -1.02568e-17)
(0.985866 -0.249901 -9.82534e-18)
(0.98734 -0.244688 4.70499e-18)
(0.98871 -0.238273 2.94605e-17)
(0.990055 -0.230306 -8.02353e-18)
(0.993105 -0.218164 1.0502e-17)
(0.992724 -0.206022 1.4356e-17)
(0.988528 -0.213616 -6.48561e-18)
(0.961149 -0.28147 -3.34723e-22)
(0.961459 -0.281456 3.69492e-22)
(0.961855 -0.28141 2.60232e-21)
(0.962225 -0.281404 -3.41756e-21)
(0.962573 -0.281413 6.26656e-21)
(0.962917 -0.281411 -9.24625e-21)
(0.963267 -0.281394 2.62131e-21)
(0.963625 -0.281383 -1.25535e-22)
(0.963988 -0.281388 5.72386e-21)
(0.964356 -0.281397 -2.98184e-21)
(0.964729 -0.28138 7.7615e-22)
(0.965108 -0.281313 8.9177e-22)
(0.965493 -0.281197 -1.36796e-20)
(0.965886 -0.281046 4.32481e-21)
(0.966287 -0.280888 9.26677e-21)
(0.966698 -0.280742 5.90076e-24)
(0.967117 -0.28062 -1.32874e-20)
(0.967535 -0.280522 5.31709e-21)
(0.96794 -0.280436 1.84107e-20)
(0.968314 -0.280345 -1.23918e-20)
(0.968637 -0.280233 -4.815e-21)
(0.968893 -0.280085 3.76758e-21)
(0.969074 -0.279889 -1.4457e-21)
(0.969184 -0.279646 -3.05435e-21)
(0.969235 -0.279356 4.39592e-21)
(0.96925 -0.279032 2.2896e-20)
(0.969251 -0.278686 -1.32546e-20)
(0.969261 -0.278332 -3.51734e-20)
(0.969296 -0.277983 -2.31984e-20)
(0.969368 -0.277644 3.14021e-20)
(0.969481 -0.277322 -1.64121e-20)
(0.969637 -0.277017 -4.4416e-20)
(0.969835 -0.276735 5.48398e-20)
(0.970073 -0.276469 -9.58189e-21)
(0.970349 -0.276207 1.35859e-19)
(0.970663 -0.275936 3.52527e-20)
(0.971015 -0.275642 7.23966e-20)
(0.971412 -0.275322 -1.31958e-19)
(0.971857 -0.274965 2.18642e-19)
(0.972357 -0.274558 -6.23643e-20)
(0.97292 -0.274089 -1.42031e-19)
(0.97355 -0.273541 -4.99644e-20)
(0.974256 -0.272896 1.01991e-18)
(0.975044 -0.272137 1.62391e-18)
(0.97592 -0.271244 1.5475e-18)
(0.976888 -0.270191 -3.54078e-18)
(0.977949 -0.268949 -2.76493e-19)
(0.979106 -0.267482 1.73952e-18)
(0.980356 -0.265744 -1.06108e-18)
(0.981691 -0.263677 7.28849e-18)
(0.9831 -0.261205 -3.89703e-18)
(0.984558 -0.258244 -1.19939e-17)
(0.986044 -0.254678 7.33183e-19)
(0.987535 -0.250358 1.29748e-17)
(0.988983 -0.245083 -6.80097e-18)
(0.990302 -0.238662 -7.26614e-18)
(0.991583 -0.230741 -1.06261e-17)
(0.994584 -0.218619 -2.95409e-17)
(0.994078 -0.206588 -2.60151e-17)
(0.98976 -0.214261 1.48133e-17)
(0.960936 -0.283711 -1.92105e-22)
(0.961336 -0.283679 2.8356e-22)
(0.961775 -0.283624 5.94716e-23)
(0.962171 -0.283603 1.11231e-21)
(0.962534 -0.283597 -1.6968e-21)
(0.96289 -0.283582 -3.49296e-21)
(0.963247 -0.283557 1.25633e-21)
(0.963609 -0.283538 -1.60538e-21)
(0.963975 -0.283536 3.55958e-21)
(0.964344 -0.283539 -7.1308e-22)
(0.964718 -0.283517 -2.20719e-21)
(0.965099 -0.283448 1.93193e-21)
(0.965488 -0.283332 2.97062e-21)
(0.965889 -0.283186 7.63169e-21)
(0.966303 -0.283036 -1.37027e-20)
(0.966734 -0.282903 6.66114e-21)
(0.967183 -0.282798 7.38403e-22)
(0.967646 -0.282723 -5.11734e-21)
(0.968116 -0.282667 -1.55979e-21)
(0.96858 -0.282615 4.55999e-21)
(0.969017 -0.282549 -1.09806e-21)
(0.969408 -0.282454 1.06395e-21)
(0.969734 -0.282313 6.80944e-21)
(0.969984 -0.28212 -1.39158e-20)
(0.970159 -0.281872 3.8502e-21)
(0.970271 -0.281571 1.7797e-20)
(0.970338 -0.281227 -1.26616e-20)
(0.970384 -0.280851 -3.33857e-20)
(0.97043 -0.280457 3.46261e-20)
(0.970496 -0.280055 -2.31318e-20)
(0.970593 -0.279656 1.06377e-19)
(0.970731 -0.279265 1.62356e-20)
(0.970913 -0.278893 -5.11875e-20)
(0.97114 -0.278538 3.4758e-20)
(0.971411 -0.278191 9.04594e-20)
(0.971726 -0.277841 2.32038e-19)
(0.972085 -0.277475 -3.08037e-19)
(0.972491 -0.27709 1.53625e-19)
(0.97295 -0.276675 -1.05503e-19)
(0.973468 -0.276218 -2.76804e-19)
(0.97405 -0.275702 -2.63611e-19)
(0.974702 -0.275113 1.80844e-19)
(0.975433 -0.274429 -6.52539e-19)