/*--------------------------------*- C++ -*----------------------------------*\
  =========                 |
  \\      /  F ield         | OpenFOAM: The Open Source CFD Toolbox
   \\    /   O peration     | Website:  https://openfoam.org
    \\  /    A nd           | Version:  6.0
     \\/     M anipulation  |
\*---------------------------------------------------------------------------*/
FoamFile
{
    version     2.0;
    format      ascii;
    class       volVectorField;
    location    "16";
    object      U;
}
// * * * * * * * * * * * * * * * * * * * * * * * * * * * * * * * * * * * * * //

dimensions      [0 1 -1 0 0 0 0];

internalField   nonuniform List<vector> 
62000
(
(0.965723 0.259863 -2.79511e-21)
(0.965712 0.259817 2.3573e-21)
(0.965698 0.259777 2.46922e-21)
(0.965681 0.259743 -1.10389e-20)
(0.965662 0.25971 -1.29184e-20)
(0.965643 0.259678 4.53254e-20)
(0.965626 0.259648 -5.09254e-20)
(0.965612 0.259618 3.01889e-20)
(0.9656 0.259587 -1.45358e-20)
(0.965593 0.259554 -7.61456e-20)
(0.96559 0.259522 -1.05231e-20)
(0.965591 0.259488 1.11098e-19)
(0.965595 0.259453 2.34645e-20)
(0.965602 0.259418 -8.35783e-20)
(0.965612 0.259384 1.33982e-19)
(0.965624 0.25935 -7.26024e-20)
(0.965637 0.259319 7.77862e-20)
(0.96565 0.259288 -9.28443e-20)
(0.965665 0.259261 4.73972e-20)
(0.96568 0.259234 -1.49835e-19)
(0.965695 0.25921 2.00154e-19)
(0.96571 0.259188 6.19189e-20)
(0.965725 0.259168 9.17441e-20)
(0.96574 0.25915 -4.18947e-19)
(0.965755 0.259134 1.56817e-19)
(0.965769 0.259121 -1.01035e-19)
(0.965784 0.25911 -2.57001e-21)
(0.965797 0.259102 -8.6882e-20)
(0.96581 0.2591 2.71251e-19)
(0.965821 0.259103 -1.57013e-19)
(0.965832 0.259116 3.86249e-19)
(0.96584 0.259132 -8.17615e-19)
(0.965848 0.259151 7.6512e-20)
(0.965855 0.259163 -2.97304e-19)
(0.965856 0.259184 -1.01136e-19)
(0.965848 0.259221 -3.25696e-19)
(0.965833 0.259272 -1.09721e-19)
(0.965809 0.259329 -1.18384e-19)
(0.965776 0.259389 3.30741e-19)
(0.965731 0.259446 1.60129e-18)
(0.965671 0.259492 -3.95044e-19)
(0.965594 0.259519 -2.35194e-18)
(0.965497 0.259514 -3.8701e-18)
(0.965378 0.259459 2.1832e-18)
(0.965235 0.25934 6.5279e-19)
(0.965065 0.25914 -3.34648e-18)
(0.964863 0.25885 8.53368e-19)
(0.964623 0.258464 -1.44968e-18)
(0.964336 0.257981 -6.98148e-18)
(0.963988 0.257398 -1.59786e-18)
(0.963581 0.256686 -8.31748e-19)
(0.963085 0.255825 -1.132e-17)
(0.962531 0.254676 1.35763e-18)
(0.961983 0.253179 1.3231e-17)
(0.961465 0.251178 3.60626e-18)
(0.96107 0.248667 1.20306e-17)
(0.960761 0.245097 -1.53969e-18)
(0.96064 0.24032 -2.64781e-18)
(0.960819 0.230626 5.74597e-18)
(0.942094 0.208936 1.15345e-18)
(0.965786 0.261091 -7.39e-22)
(0.965818 0.261084 7.2057e-21)
(0.965838 0.261058 3.08576e-21)
(0.965846 0.261043 -1.33081e-20)
(0.965838 0.261029 5.64906e-21)
(0.965815 0.261018 -4.00126e-20)
(0.965778 0.261011 3.72667e-20)
(0.96573 0.261005 2.223e-20)
(0.965674 0.261 -4.24128e-20)
(0.965614 0.260996 1.73793e-21)
(0.965553 0.260992 4.31956e-20)
(0.965495 0.260986 3.05969e-22)
(0.965441 0.260978 1.33041e-20)
(0.965393 0.260967 -1.15009e-19)
(0.965353 0.260954 2.37133e-19)
(0.965322 0.260938 -2.14307e-19)
(0.965299 0.260921 1.03356e-19)
(0.965284 0.2609 -2.20685e-20)
(0.965276 0.260878 -6.26504e-20)
(0.965276 0.260854 1.78444e-19)
(0.965281 0.260829 -2.88227e-19)
(0.965291 0.260802 1.71779e-19)
(0.965306 0.260774 -2.25536e-19)
(0.965323 0.260744 1.3651e-19)
(0.965345 0.260714 1.31411e-19)
(0.965367 0.260683 -8.85507e-20)
(0.965394 0.260654 -1.81121e-21)
(0.965418 0.260624 1.02446e-19)
(0.965448 0.260601 8.94574e-20)
(0.965473 0.260584 -1.93014e-19)
(0.965503 0.260583 3.99817e-19)
(0.965526 0.260581 8.70497e-20)
(0.965555 0.260566 2.73573e-19)
(0.965584 0.260524 2.52755e-20)
(0.965605 0.260486 8.55476e-20)
(0.965609 0.260476 -9.2833e-20)
(0.965594 0.26049 -3.06501e-19)
(0.965558 0.260509 -1.46568e-19)
(0.965501 0.260512 -8.86492e-19)
(0.965419 0.260486 -1.05751e-18)
(0.96531 0.260415 8.35527e-19)
(0.965169 0.260283 5.12634e-19)
(0.964993 0.260071 4.0392e-18)
(0.96478 0.259761 2.52808e-19)
(0.964525 0.259345 -6.70781e-18)
(0.964224 0.258813 2.76456e-18)
(0.963859 0.258181 2.38859e-18)
(0.963416 0.257451 2.89255e-18)
(0.962874 0.256627 6.15739e-19)
(0.962203 0.255682 1.1908e-19)
(0.961428 0.254513 5.1374e-18)
(0.960505 0.253076 1.41024e-17)
(0.959533 0.251106 -9.67681e-18)
(0.958652 0.248541 -2.38279e-17)
(0.957909 0.245223 -5.85447e-18)
(0.957348 0.241248 -3.93459e-18)
(0.956922 0.235643 -9.57384e-18)
(0.956297 0.228431 -4.81397e-18)
(0.957271 0.213913 8.01203e-18)
(0.932324 0.18684 3.17443e-18)
(0.965651 0.261897 -3.5692e-21)
(0.965698 0.261934 -5.34786e-22)
(0.965757 0.261937 5.53342e-22)
(0.965822 0.261937 2.66e-21)
(0.965885 0.261935 7.74683e-21)
(0.965939 0.261929 -7.46458e-21)
(0.965977 0.261923 4.09624e-20)
(0.965996 0.26192 -1.97241e-20)
(0.965993 0.26192 -1.0861e-20)
(0.965969 0.261925 -6.90614e-20)
(0.965925 0.261938 5.93104e-20)
(0.965866 0.261956 4.49479e-21)
(0.965796 0.261981 -1.43354e-20)
(0.965718 0.26201 3.89911e-20)
(0.965638 0.262044 -6.83239e-20)
(0.965559 0.26208 2.31451e-22)
(0.965485 0.262119 -3.33123e-20)
(0.965417 0.262156 1.29249e-22)
(0.965357 0.262193 8.07006e-20)
(0.965306 0.262224 -1.26481e-19)
(0.965265 0.262252 8.05563e-20)
(0.965233 0.262273 3.25113e-19)
(0.965209 0.262288 -4.14955e-20)
(0.965193 0.262294 -4.75924e-19)
(0.965185 0.262293 2.50367e-19)
(0.965182 0.262282 -1.41348e-19)
(0.965186 0.262266 2.35762e-19)
(0.965192 0.262241 -1.45468e-19)
(0.965204 0.262215 -3.01633e-19)
(0.965216 0.262188 3.30997e-19)
(0.965232 0.262169 -2.41494e-19)
(0.965244 0.26214 3.35743e-19)
(0.965265 0.262075 -9.63645e-19)
(0.965292 0.261963 8.91619e-19)
(0.965313 0.261844 -4.93011e-19)
(0.965318 0.261747 2.0717e-19)
(0.965303 0.261668 1.60176e-19)
(0.965263 0.261582 -2.12934e-20)
(0.9652 0.261458 -5.93728e-20)
(0.965115 0.261284 1.07115e-18)
(0.965009 0.261046 -4.43098e-19)
(0.964877 0.260732 7.07591e-19)
(0.964719 0.260335 -2.6042e-18)
(0.964532 0.259847 -1.3295e-18)
(0.964308 0.259278 1.48786e-18)
(0.964043 0.258637 -5.3076e-18)
(0.963713 0.257956 7.27317e-19)
(0.963299 0.257242 -4.87954e-18)
(0.962778 0.256486 6.97776e-18)
(0.962122 0.255638 1.83453e-18)
(0.961381 0.254553 9.87306e-19)
(0.96051 0.253188 -2.51514e-19)
(0.959668 0.251294 4.21981e-18)
(0.958989 0.248871 3.45043e-19)
(0.958545 0.245924 -8.99805e-18)
(0.958226 0.242701 -4.86336e-18)
(0.958055 0.238333 -3.85399e-18)
(0.956909 0.232962 -1.16844e-17)
(0.958883 0.222723 -7.72194e-19)
(0.938201 0.208291 1.16455e-18)
(0.96561 0.262787 -3.59327e-21)
(0.965548 0.262848 1.11596e-20)
(0.96552 0.262885 -1.69968e-21)
(0.965527 0.262912 -1.18734e-20)
(0.965565 0.262929 1.82212e-20)
(0.965629 0.262934 3.20914e-20)
(0.965708 0.26293 -4.23424e-20)
(0.965793 0.262919 4.70515e-21)
(0.965873 0.262903 1.53273e-20)
(0.96594 0.262889 3.25889e-20)
(0.965987 0.262879 -6.10059e-20)
(0.966012 0.262876 -1.93124e-20)
(0.966011 0.262884 -2.20893e-20)
(0.965987 0.262903 1.02071e-19)
(0.965941 0.262936 -6.94733e-20)
(0.965879 0.26298 1.66161e-19)
(0.965803 0.263036 -2.05307e-19)
(0.965719 0.2631 -3.1199e-20)
(0.96563 0.263171 2.26441e-19)
(0.965542 0.263243 -8.03152e-20)
(0.965456 0.263316 -3.00818e-20)
(0.965376 0.263384 -3.31275e-20)
(0.965302 0.263447 -3.09806e-19)
(0.965236 0.2635 1.80422e-19)
(0.965179 0.263542 -8.56951e-20)
(0.96513 0.26357 1.39537e-19)
(0.96509 0.263587 6.68818e-20)
(0.965056 0.263586 3.42964e-19)
(0.965031 0.263578 -2.18818e-19)
(0.965008 0.26356 -2.96566e-19)
(0.964991 0.263541 4.81325e-19)
(0.964975 0.2635 -4.04227e-19)
(0.96497 0.263403 7.75392e-19)
(0.964977 0.263242 -4.90372e-19)
(0.964985 0.26306 2.05061e-19)
(0.964979 0.26289 3.6945e-19)
(0.964954 0.262727 -1.65355e-19)
(0.964902 0.262541 2.20289e-19)
(0.964828 0.262302 -1.0176e-19)
(0.964737 0.262001 3.34052e-19)
(0.964629 0.26163 -9.47942e-19)
(0.964503 0.261184 2.68826e-19)
(0.964357 0.260662 6.07483e-19)
(0.964188 0.260069 1.54235e-18)
(0.963985 0.259423 2.10267e-18)
(0.963742 0.25874 4.98365e-19)
(0.963432 0.258054 3.5199e-18)
(0.963035 0.257363 3.93427e-18)
(0.962528 0.256636 4.67404e-18)
(0.961885 0.255796 -3.43104e-18)
(0.961171 0.254669 -4.69143e-18)
(0.960326 0.253206 3.12085e-18)
(0.959538 0.251176 4.27811e-18)
(0.95892 0.248588 1.04088e-17)
(0.958586 0.245555 6.69286e-18)
(0.95832 0.242406 1.12865e-17)
(0.958307 0.238435 2.01118e-17)
(0.956771 0.233607 -1.72307e-18)
(0.959612 0.225804 -1.08242e-17)
(0.942123 0.216613 -7.88816e-18)
(0.966183 0.263219 7.08027e-21)
(0.966038 0.263325 -2.36492e-21)
(0.965898 0.263413 4.10988e-21)
(0.965774 0.263505 -5.81782e-21)
(0.96568 0.26359 1.33628e-20)
(0.965625 0.263664 -6.63995e-21)
(0.965609 0.263727 3.70424e-21)
(0.96563 0.263775 -5.53094e-20)
(0.965682 0.26381 4.69459e-20)
(0.965752 0.263834 -9.55548e-20)
(0.965832 0.263852 1.06609e-19)
(0.965909 0.263865 -1.30886e-20)
(0.965974 0.26388 -2.94502e-20)
(0.96602 0.263899 -1.37539e-20)
(0.966042 0.263927 -3.1148e-21)
(0.966039 0.263965 -1.43869e-19)
(0.96601 0.264016 5.9044e-21)
(0.965958 0.264078 1.61709e-19)
(0.965885 0.264152 -5.37654e-20)
(0.965797 0.264231 -5.80495e-20)
(0.965697 0.264317 9.88158e-20)
(0.96559 0.264401 -5.06399e-20)
(0.96548 0.264485 2.15981e-19)
(0.965372 0.26456 1.22465e-19)
(0.965266 0.264626 9.67886e-20)
(0.965167 0.264677 -3.00442e-19)
(0.965075 0.264716 -4.33508e-20)
(0.964992 0.264735 -2.48897e-19)
(0.964917 0.264743 4.70056e-20)
(0.964848 0.264737 -8.95233e-20)
(0.964784 0.264723 -3.56264e-20)
(0.964726 0.26468 3.00941e-19)
(0.964682 0.264566 -7.71749e-19)
(0.964657 0.264376 -3.45214e-20)
(0.964636 0.264156 -4.24242e-19)
(0.964606 0.26394 -2.14278e-19)
(0.964558 0.263722 6.71481e-20)
(0.964482 0.263467 -7.30523e-19)
(0.964385 0.263151 1.13669e-18)
(0.964274 0.26277 1.84143e-19)
(0.964149 0.262318 1.28718e-18)
(0.964009 0.261793 -9.77794e-19)
(0.96385 0.261199 -6.7613e-19)
(0.963671 0.260543 -2.66697e-19)
(0.96346 0.259847 1.56513e-18)
(0.963212 0.259124 2.34011e-18)
(0.962897 0.258405 5.97585e-19)
(0.962499 0.257673 1.03895e-18)
(0.96199 0.256884 -1.6055e-18)
(0.961347 0.255941 8.78836e-18)
(0.960627 0.254652 2.22932e-18)
(0.959743 0.252956 -2.26187e-18)
(0.958884 0.250611 6.73367e-19)
(0.958136 0.247575 8.24796e-18)
(0.957663 0.243975 -4.43112e-19)
(0.957201 0.240125 -8.85678e-18)
(0.957167 0.235476 -2.09822e-17)
(0.955357 0.229728 1.91739e-17)
(0.958586 0.221661 -1.16417e-17)
(0.944629 0.212397 9.36322e-18)
(0.966986 0.263476 -2.74304e-21)
(0.966954 0.263595 1.12264e-20)
(0.966862 0.2637 -1.87551e-20)
(0.966723 0.26383 1.42013e-20)
(0.96656 0.263969 9.40458e-21)
(0.966393 0.264111 -1.00546e-20)
(0.966241 0.264253 8.64352e-22)
(0.966119 0.264389 -7.80666e-21)
(0.966032 0.264514 -2.6708e-20)
(0.965983 0.264628 5.19279e-20)
(0.965967 0.264728 -8.18085e-20)
(0.965979 0.264817 7.26079e-20)
(0.966007 0.264894 6.51155e-20)
(0.966041 0.264965 -1.02165e-19)
(0.966072 0.265032 -3.3975e-20)
(0.96609 0.265097 1.29284e-19)
(0.966091 0.265165 -1.59142e-19)
(0.966068 0.265236 2.23674e-19)
(0.966022 0.265312 -4.28992e-20)
(0.965953 0.26539 2.53643e-20)
(0.965862 0.265472 -4.0802e-20)
(0.965754 0.265552 -5.24551e-20)
(0.965632 0.265632 -1.00175e-19)
(0.965501 0.265703 1.76778e-19)
(0.965365 0.265767 -1.23516e-19)
(0.965228 0.265817 -1.24459e-19)
(0.965093 0.265855 2.61214e-19)
(0.964963 0.265873 -2.57171e-19)
(0.964839 0.26588 4.20497e-19)
(0.96472 0.265873 -2.28185e-19)
(0.964606 0.265856 1.82571e-19)
(0.964498 0.265804 -3.14991e-19)
(0.964407 0.265673 3.53621e-19)
(0.964338 0.265459 -2.66977e-20)
(0.964278 0.265211 -1.72813e-20)
(0.96421 0.264964 -7.27521e-21)
(0.964127 0.26471 -2.17047e-19)
(0.964019 0.264409 6.49456e-19)
(0.963891 0.264047 -5.03693e-19)
(0.963754 0.263617 -2.94885e-18)
(0.963606 0.263117 -1.27004e-18)
(0.963448 0.262546 9.26536e-19)
(0.963278 0.261909 -1.05769e-18)
(0.963094 0.261213 -1.21592e-18)
(0.96289 0.260478 -1.1205e-19)
(0.962663 0.259717 3.25981e-18)
(0.962389 0.258958 -4.90327e-18)
(0.962054 0.258182 -5.08076e-18)
(0.961632 0.257348 -3.45159e-18)
(0.961096 0.256359 -5.90981e-18)
(0.960489 0.255034 3.85078e-18)
(0.959686 0.25331 -1.55366e-18)
(0.958846 0.250931 -1.31082e-17)
(0.958019 0.247782 2.5142e-18)
(0.957404 0.243942 4.11704e-18)
(0.956702 0.239666 -7.84196e-18)
(0.95655 0.234537 5.85245e-18)
(0.954476 0.228054 5.32612e-18)
(0.957521 0.219564 1.87383e-17)
(0.947979 0.211203 -1.53749e-19)
(0.967201 0.264515 3.2715e-21)
(0.967435 0.264585 -1.49283e-20)
(0.967568 0.264645 7.34161e-21)
(0.967605 0.264734 1.39499e-20)
(0.967554 0.264845 -3.0354e-20)
(0.967435 0.264973 2.57793e-20)
(0.967269 0.265116 -1.74608e-20)
(0.967079 0.265268 1.501e-20)
(0.966886 0.265425 2.43541e-20)
(0.966706 0.265582 -5.93664e-20)
(0.966551 0.265734 8.69971e-20)
(0.966425 0.265878 3.75399e-20)
(0.966329 0.266012 -1.51374e-19)
(0.96626 0.266135 -2.88707e-20)
(0.96621 0.266249 8.2857e-20)
(0.966171 0.266354 5.42312e-20)
(0.966133 0.266452 -6.6728e-20)
(0.966091 0.266544 5.95473e-20)
(0.966037 0.266632 9.38122e-20)
(0.965967 0.266714 -4.59337e-20)
(0.965878 0.266794 -2.67591e-20)
(0.965772 0.266866 9.82776e-20)
(0.965648 0.266934 2.06493e-19)
(0.965511 0.266991 -1.50291e-19)
(0.965361 0.267039 -1.71269e-19)
(0.965205 0.267071 1.94176e-19)
(0.965044 0.267092 -1.52319e-19)
(0.964883 0.267093 -6.50879e-20)
(0.964723 0.267083 5.43372e-19)
(0.964564 0.26706 -2.43489e-19)
(0.964406 0.267027 -1.96596e-19)
(0.964253 0.266956 2.62106e-19)
(0.964117 0.266801 1.88945e-19)
(0.964002 0.266559 -1.72031e-19)
(0.963899 0.266281 -1.22595e-19)
(0.963788 0.266006 4.15078e-19)
(0.963663 0.265722 1.02308e-19)
(0.963517 0.265386 1.44275e-19)
(0.963357 0.264989 -8.1135e-19)
(0.963192 0.264523 -8.11582e-19)
(0.963022 0.263985 1.59142e-18)
(0.962847 0.263376 1.32632e-18)
(0.962668 0.262698 2.31674e-18)
(0.962487 0.261958 -2.1739e-18)
(0.962303 0.261173 -2.51041e-18)
(0.962119 0.260355 -1.73246e-18)
(0.961921 0.259538 4.38915e-18)
(0.961701 0.258711 4.40963e-18)
(0.961439 0.257849 -4.99412e-18)
(0.961105 0.256882 -7.44034e-18)
(0.960727 0.255657 -1.38241e-18)
(0.960139 0.254137 1.51679e-18)
(0.959465 0.252063 1.98675e-19)
(0.958705 0.249254 -4.74508e-18)
(0.958064 0.245713 4.29407e-18)
(0.957199 0.241601 2.67945e-18)
(0.956908 0.236587 4.08071e-18)
(0.954575 0.229977 -1.63568e-17)
(0.957024 0.2216 -1.1554e-18)
(0.951443 0.214689 2.51774e-19)
(0.96645 0.266778 -5.4725e-21)
(0.966925 0.26676 -4.41957e-21)
(0.96732 0.266737 6.05396e-21)
(0.967623 0.266733 2.17119e-20)
(0.967819 0.266751 -4.73597e-20)
(0.967909 0.266788 5.48964e-20)
(0.967901 0.266847 -2.45107e-21)
(0.96781 0.266925 -3.46364e-21)
(0.967656 0.26702 -2.04438e-20)
(0.967463 0.267129 5.04567e-20)
(0.967249 0.267247 -7.89207e-20)
(0.967033 0.26737 3.02018e-20)
(0.966829 0.267493 -1.03081e-21)
(0.966643 0.267614 4.89464e-20)
(0.966479 0.267729 2.37345e-20)
(0.966337 0.267838 -1.2775e-19)
(0.966211 0.267939 1.12634e-19)
(0.966097 0.268032 4.51017e-20)
(0.965988 0.268117 -1.3174e-19)
(0.965878 0.268192 6.56134e-20)
(0.965763 0.268261 3.11698e-20)
(0.965638 0.268318 -2.05491e-20)
(0.965503 0.268367 2.71877e-20)
(0.965355 0.268402 -1.53041e-20)
(0.965197 0.268426 -1.85566e-19)
(0.96503 0.268431 1.24679e-19)
(0.964856 0.268425 -1.94431e-19)
(0.964679 0.268399 3.65405e-19)
(0.964498 0.268363 -6.95554e-20)
(0.964315 0.268315 -4.22507e-20)
(0.964129 0.268257 -1.13055e-20)
(0.963945 0.268159 4.29993e-19)
(0.963774 0.267973 -1.74888e-19)
(0.963623 0.267698 -1.07752e-19)
(0.96348 0.267388 3.0289e-19)
(0.963329 0.267083 2.72539e-19)
(0.963162 0.26677 -4.73144e-19)
(0.962978 0.266401 8.55901e-20)
(0.962785 0.26597 9.68706e-19)
(0.962589 0.265467 -7.56607e-20)
(0.962389 0.264888 6.43243e-19)
(0.962187 0.264232 -9.79469e-19)
(0.961985 0.263496 1.49746e-18)
(0.961787 0.262685 3.44454e-18)
(0.961599 0.261813 1.0526e-18)
(0.961429 0.260891 -1.48847e-18)
(0.961273 0.259956 -4.76076e-18)
(0.961135 0.259012 9.68094e-19)
(0.961 0.258056 1.53325e-18)
(0.960844 0.257054 3.18825e-18)
(0.960682 0.2559 -2.90886e-19)
(0.96032 0.25459 -6.3335e-18)
(0.959845 0.252882 5.604e-18)
(0.959216 0.250538 -3.88842e-18)
(0.958633 0.247485 7.96847e-18)
(0.957698 0.243761 2.03264e-18)
(0.957308 0.239073 9.40765e-18)
(0.954831 0.232481 1.29184e-17)
(0.956568 0.224175 2.21366e-18)
(0.953434 0.217177 3.1978e-18)
(0.964956 0.269955 -2.58705e-21)
(0.965521 0.269874 2.24302e-21)
(0.96607 0.26978 1.13435e-20)
(0.96658 0.269687 1.81162e-20)
(0.967018 0.269602 -5.41781e-20)
(0.967364 0.269526 3.15169e-20)
(0.967604 0.269465 -5.7169e-20)
(0.967735 0.269422 9.05994e-20)
(0.967763 0.269398 -4.30439e-20)
(0.967703 0.269394 7.72461e-21)
(0.967572 0.269408 8.59075e-20)
(0.967391 0.269438 -1.98236e-19)
(0.967178 0.26948 1.37288e-19)
(0.966951 0.26953 1.99573e-20)
(0.966722 0.269586 3.25738e-20)
(0.966502 0.269643 -1.37641e-19)
(0.966294 0.269701 6.88714e-20)
(0.9661 0.269754 -8.68396e-20)
(0.965919 0.269803 1.74418e-19)
(0.965746 0.269844 -2.27474e-20)
(0.965579 0.269879 -2.28328e-19)
(0.965414 0.269902 9.22856e-20)
(0.965247 0.269917 -5.19492e-21)
(0.965076 0.269917 -3.52046e-19)
(0.9649 0.269906 2.64679e-19)
(0.964719 0.269877 2.03201e-19)
(0.964533 0.269835 1.41516e-19)
(0.964344 0.269773 -1.85231e-19)
(0.964152 0.269704 -2.09945e-19)
(0.963955 0.269624 9.96505e-20)
(0.963753 0.269535 1.49774e-19)
(0.963551 0.269406 -1.90746e-19)
(0.963358 0.269186 -2.94311e-19)
(0.963182 0.268876 6.16909e-19)
(0.963009 0.268532 7.38419e-20)
(0.962824 0.268196 -1.01597e-18)
(0.96262 0.267852 9.06902e-20)
(0.9624 0.26745 7.28439e-19)
(0.962173 0.266983 6.15748e-20)
(0.961939 0.266438 1.00013e-18)
(0.961698 0.26581 -1.47894e-18)
(0.961448 0.265092 -1.10365e-19)
(0.961193 0.264278 -1.01467e-18)
(0.96094 0.263365 4.01185e-19)
(0.960694 0.262362 1.82542e-18)
(0.960472 0.261277 5.83461e-18)
(0.960275 0.260147 8.8893e-19)
(0.96012 0.258987 -4.08149e-18)
(0.959998 0.257819 3.28035e-18)
(0.959895 0.256639 1.17802e-17)
(0.959824 0.255384 -9.63568e-18)
(0.959576 0.254093 1.16714e-17)
(0.959218 0.252546 -7.25176e-18)
(0.958688 0.250468 -4.11406e-18)
(0.95818 0.247713 -1.65446e-17)
(0.957256 0.244203 -9.33544e-19)
(0.956859 0.239659 -5.63675e-18)
(0.95447 0.232872 -6.3738e-18)
(0.955649 0.224219 4.9677e-18)
(0.953558 0.215479 8.01152e-19)
(0.963219 0.273433 3.45593e-21)
(0.963707 0.273325 1.20088e-21)
(0.96425 0.273199 -1.26847e-20)
(0.964821 0.273058 1.21912e-20)
(0.965386 0.272909 -5.44855e-21)
(0.965912 0.272754 9.84837e-21)
(0.966369 0.2726 3.42252e-21)
(0.966735 0.272451 -5.04175e-20)
(0.966999 0.272312 2.21335e-20)
(0.967157 0.272188 -1.53585e-20)
(0.967215 0.272081 9.36945e-21)
(0.967182 0.271992 3.73067e-20)
(0.967077 0.271919 -6.9719e-21)
(0.966916 0.271863 2.37166e-20)
(0.966717 0.27182 -1.01846e-19)
(0.966495 0.271787 3.97318e-20)
(0.966262 0.271762 1.80914e-20)
(0.966028 0.27174 -4.97241e-20)
(0.965798 0.27172 1.005e-19)
(0.965574 0.271696 3.39331e-20)
(0.965357 0.27167 -3.49824e-21)
(0.965146 0.271636 -3.73534e-20)
(0.964939 0.271596 1.55169e-19)
(0.964734 0.271544 -4.34805e-19)
(0.96453 0.271483 2.2821e-19)
(0.964327 0.271404 9.85358e-20)
(0.964124 0.271315 -1.69828e-19)
(0.963921 0.271209 3.06161e-19)
(0.963716 0.271097 -1.49723e-19)
(0.963508 0.270978 -8.11594e-20)
(0.963295 0.270852 -1.63599e-19)
(0.963081 0.270688 -6.71625e-20)
(0.962875 0.270432 1.90019e-19)
(0.962681 0.270086 -5.9828e-19)
(0.962487 0.269709 1.16128e-18)
(0.962274 0.269341 -7.53415e-20)
(0.962039 0.268965 6.61881e-19)
(0.961785 0.26853 -1.70961e-18)
(0.961521 0.268024 -5.62919e-19)
(0.961243 0.267435 -1.49566e-20)
(0.960947 0.266752 -4.33333e-19)
(0.960631 0.265964 -8.38181e-20)
(0.960298 0.265059 -1.70262e-18)
(0.959951 0.264026 5.59344e-19)
(0.959599 0.262866 9.01125e-19)
(0.959261 0.26158 -5.43116e-18)
(0.958944 0.260204 7.25709e-18)
(0.95867 0.258755 1.1492e-18)
(0.958441 0.257271 3.86732e-19)
(0.958254 0.255773 -8.08895e-18)
(0.958124 0.254235 2.88909e-18)
(0.957847 0.252728 -6.16607e-18)
(0.957487 0.251061 1.25698e-17)
(0.956981 0.248933 2.51888e-18)
(0.956537 0.246153 -1.13845e-17)
(0.955693 0.242545 4.31342e-18)
(0.955403 0.237865 -1.25395e-17)
(0.953358 0.230675 -2.79646e-18)
(0.954289 0.221387 -1.88813e-17)
(0.952557 0.210468 -4.38652e-18)
(0.961649 0.276771 -7.28175e-22)
(0.961953 0.276675 -2.87333e-21)
(0.962358 0.276555 -2.50411e-21)
(0.962847 0.276409 2.44793e-20)
(0.963394 0.276243 -1.3719e-20)
(0.963965 0.276055 -1.65898e-20)
(0.964528 0.275854 -6.31411e-21)
(0.965051 0.275642 -2.62521e-20)
(0.965506 0.275426 1.65286e-20)
(0.965874 0.275213 2.35984e-21)
(0.966144 0.275006 7.53617e-22)
(0.966314 0.274812 7.43107e-20)
(0.966388 0.27463 -5.35224e-20)
(0.966376 0.274465 -6.86954e-21)
(0.966292 0.274315 6.40088e-20)
(0.966152 0.274179 -3.56899e-20)
(0.965972 0.274055 -1.39808e-20)
(0.965763 0.27394 2.33383e-20)
(0.965537 0.273832 7.67547e-20)
(0.965303 0.273726 4.39413e-20)
(0.965065 0.273622 1.7469e-20)
(0.964827 0.273514 -1.12297e-19)
(0.964591 0.273404 5.81833e-20)
(0.964358 0.273284 1.16063e-19)
(0.964128 0.273158 -2.42518e-19)
(0.9639 0.273019 8.03315e-20)
(0.963676 0.272871 -3.22045e-19)
(0.963454 0.272709 2.66297e-19)
(0.963233 0.272545 2.39768e-19)
(0.963012 0.272377 -3.76513e-19)
(0.962786 0.272207 -1.81404e-19)
(0.96256 0.272002 2.48544e-19)
(0.962342 0.271708 8.50497e-20)
(0.962133 0.271325 -2.49179e-19)
(0.96192 0.270912 -3.20677e-19)
(0.961683 0.270513 -4.00892e-19)
(0.961421 0.270104 2.51289e-19)
(0.961134 0.269637 6.31768e-19)
(0.960831 0.269093 2.19105e-19)
(0.960505 0.26846 -2.30961e-19)
(0.960149 0.267722 2.43964e-18)
(0.959759 0.266866 -2.1569e-19)
(0.959335 0.265872 2.78345e-18)
(0.958879 0.264721 -5.28777e-18)
(0.9584 0.263406 8.10082e-19)
(0.957915 0.261919 1.62755e-19)
(0.957434 0.260289 -4.37002e-19)
(0.956983 0.258534 -5.24261e-18)
(0.956571 0.256698 -8.89343e-18)
(0.956207 0.254818 8.37506e-18)
(0.955914 0.252887 1.14324e-17)
(0.955502 0.251006 6.2739e-18)
(0.955046 0.249005 -1.23186e-17)
(0.954507 0.246579 6.76353e-18)
(0.954112 0.243508 1.671e-17)
(0.953407 0.23956 7.24515e-18)
(0.953319 0.234559 1.22295e-17)
(0.951815 0.226933 6.13492e-18)
(0.952823 0.217035 1.79547e-17)
(0.951551 0.204549 -1.26039e-17)
(0.960449 0.279758 8.91607e-22)
(0.96053 0.279687 -2.69461e-21)
(0.96073 0.279593 9.65341e-21)
(0.961044 0.279473 2.51677e-21)
(0.961458 0.279326 -1.34861e-20)
(0.96195 0.27915 -1.56482e-20)
(0.962492 0.278948 3.74501e-20)
(0.963052 0.278722 -4.13558e-20)
(0.963598 0.278477 -1.03603e-20)
(0.964101 0.278219 2.61207e-20)
(0.964539 0.277955 2.46103e-20)
(0.964892 0.277689 7.61642e-20)
(0.965154 0.277427 -4.31939e-20)
(0.965322 0.277174 -7.59067e-20)
(0.965401 0.276931 1.68496e-20)
(0.965401 0.276701 -6.47478e-20)
(0.965333 0.276484 4.88181e-20)
(0.965211 0.276276 -8.50695e-20)
(0.965048 0.276078 1.31212e-20)
(0.964854 0.275885 -2.95162e-20)
(0.964639 0.275696 -1.95973e-20)
(0.964411 0.275507 -8.48853e-20)
(0.964174 0.275319 6.11253e-21)
(0.963932 0.275124 1.87404e-19)
(0.963689 0.274926 -6.45884e-20)
(0.963446 0.274716 2.0345e-20)
(0.963205 0.274501 6.11543e-20)
(0.962966 0.274274 -8.57363e-20)
(0.962728 0.274049 -1.75839e-20)
(0.962491 0.273825 1.25852e-19)
(0.96225 0.273604 1.42758e-19)
(0.962009 0.273352 -1.10427e-19)
(0.961776 0.273015 -3.55088e-19)
(0.961551 0.272593 -5.16091e-19)
(0.961318 0.272145 8.2776e-19)
(0.961058 0.271712 2.27733e-19)
(0.960769 0.27127 1.43118e-19)
(0.960451 0.270771 7.92247e-19)
(0.960109 0.270191 -7.566e-19)
(0.959736 0.269517 4.72836e-19)
(0.959322 0.268733 -6.09679e-21)
(0.958862 0.267818 6.4688e-20)
(0.958352 0.266749 -1.02028e-18)
(0.957795 0.2655 2.39451e-18)
(0.957195 0.264057 -3.33686e-18)
(0.956569 0.262402 2.16268e-18)
(0.955926 0.260557 -6.50197e-18)
(0.955294 0.258534 1.94451e-18)
(0.954685 0.256379 4.69312e-18)
(0.954118 0.254131 -8.45712e-18)
(0.953624 0.251798 -2.14968e-18)
(0.953035 0.249493 -4.70758e-19)
(0.952446 0.247071 -2.37595e-18)
(0.951848 0.244225 -7.32573e-18)
(0.951501 0.240734 4.56966e-19)
(0.950978 0.23634 7.17786e-18)
(0.951149 0.230966 -7.40816e-18)
(0.950278 0.223016 -2.01526e-18)
(0.951624 0.212752 -2.50657e-18)
(0.951309 0.199676 9.37112e-18)
(0.959646 0.28237 1.56981e-21)
(0.959519 0.282335 -1.33844e-21)
(0.959506 0.282275 1.22462e-21)
(0.959609 0.28219 7.93045e-21)
(0.95983 0.282078 1.16327e-20)
(0.96016 0.281932 -4.58808e-20)
(0.960582 0.281756 3.35336e-20)
(0.961072 0.281547 7.07442e-21)
(0.961601 0.281309 -2.12432e-21)
(0.96214 0.281045 -1.56565e-20)
(0.962659 0.280761 4.8911e-20)
(0.963132 0.280463 -1.60379e-20)
(0.963539 0.280155 -2.26832e-20)
(0.963866 0.279846 -6.90714e-20)
(0.964108 0.279538 1.40932e-19)
(0.964265 0.279235 -2.93737e-20)
(0.964341 0.278941 -2.54055e-20)
(0.964344 0.278654 -7.70328e-20)
(0.964285 0.278376 8.65826e-20)
(0.964176 0.278103 4.96316e-20)
(0.964025 0.277836 -2.16323e-20)
(0.963843 0.277569 4.18399e-20)
(0.963638 0.277305 -1.7754e-19)
(0.963416 0.277035 1.1089e-20)
(0.963183 0.276763 1.03011e-19)
(0.962942 0.276482 -2.04539e-20)
(0.962697 0.276196 -3.31756e-19)
(0.96245 0.275902 2.85478e-20)
(0.9622 0.275611 3.08042e-19)
(0.961949 0.275326 -8.17873e-20)
(0.961692 0.275048 -1.67382e-19)
(0.961435 0.274743 9.47254e-20)
(0.961185 0.274359 3.02514e-19)
(0.960942 0.273894 7.40255e-19)
(0.960687 0.273407 -1.19806e-19)
(0.960405 0.272939 1.65154e-19)
(0.96009 0.272464 -1.29863e-18)
(0.95974 0.271933 -4.0488e-19)
(0.959362 0.271319 2.59081e-19)
(0.958947 0.270611 -1.07949e-18)
(0.958483 0.269789 -2.59001e-19)
(0.957965 0.268831 5.39557e-19)
(0.957389 0.267708 4.16815e-19)
(0.956753 0.266392 1.32121e-18)
(0.956062 0.26486 4.78097e-18)
(0.955327 0.26309 -4.08011e-18)
(0.954557 0.261094 6.91467e-18)
(0.953778 0.258877 5.65272e-18)
(0.953003 0.25648 -2.0029e-20)
(0.952257 0.253939 8.17528e-18)
(0.951581 0.251265 -1.16681e-17)
(0.950827 0.248577 -1.44375e-17)
(0.950112 0.245745 1.15534e-17)
(0.949465 0.242472 1.0137e-17)
(0.949177 0.238545 -4.30801e-18)
(0.948861 0.23371 -2.44615e-17)
(0.949306 0.228 5.77516e-18)
(0.949071 0.219892 -5.78168e-18)
(0.950907 0.209559 -8.67104e-18)
(0.952132 0.196704 7.10835e-18)
(0.959181 0.284627 -1.59719e-21)
(0.958888 0.284615 1.76516e-21)
(0.958687 0.284586 1.20789e-20)
(0.958589 0.284537 -1.5918e-20)
(0.958605 0.284463 2.9182e-20)
(0.958739 0.28436 -4.33092e-20)
(0.958985 0.284224 1.23722e-20)
(0.959332 0.284054 -6.23073e-22)
(0.959759 0.283848 2.81656e-20)
(0.960241 0.283609 -1.49682e-20)
(0.960751 0.283338 4.46391e-21)
(0.96126 0.283042 4.76656e-21)
(0.961743 0.282724 -7.46992e-20)
(0.962175 0.282391 2.25223e-20)
(0.962544 0.282049 5.34654e-20)
(0.962838 0.281702 1.73265e-21)
(0.963053 0.281355 -9.29071e-20)
(0.96319 0.28101 3.766e-20)
(0.963254 0.280668 1.83921e-19)
(0.963254 0.280329 -1.20993e-19)
(0.963196 0.279994 -9.41617e-20)
(0.963091 0.279658 8.20337e-20)
(0.962947 0.279324 5.30384e-20)
(0.962772 0.278986 6.18835e-20)
(0.962573 0.278646 -1.20018e-19)
(0.962355 0.278296 -2.68578e-19)
(0.962124 0.277942 2.05355e-19)
(0.961882 0.27758 3.05565e-19)
(0.961632 0.277224 8.44642e-20)
(0.961373 0.276875 -1.64738e-19)
(0.961106 0.276537 8.09819e-20)
(0.960835 0.276177 1.3376e-19)
(0.960569 0.275742 -2.42615e-19)
(0.960306 0.275232 -4.23106e-20)
(0.960031 0.274705 -4.70572e-19)
(0.959725 0.274199 -1.44229e-19)
(0.959385 0.273689 -1.30109e-19)
(0.959006 0.273126 3.7499e-19)
(0.958595 0.272481 -5.11842e-19)
(0.958144 0.271744 1.63954e-19)
(0.957643 0.270895 2.54206e-19)
(0.957085 0.269908 6.85434e-20)
(0.956465 0.268754 -1.87371e-18)
(0.955782 0.267402 -2.7395e-18)
(0.955035 0.265826 -2.64292e-18)
(0.954235 0.263996 5.40412e-18)
(0.953386 0.261918 -4.67428e-20)
(0.952513 0.259589 -2.55843e-18)
(0.951627 0.257041 1.40606e-18)
(0.950757 0.254303 -9.40036e-18)
(0.94995 0.251381 4.8385e-18)
(0.949078 0.248395 1.37875e-17)
(0.948276 0.245224 -1.11181e-18)
(0.947609 0.241583 -1.28181e-17)
(0.947398 0.237272 6.25264e-18)
(0.947299 0.232059 5.95568e-18)
(0.948006 0.226083 7.14502e-18)
(0.948347 0.217954 1.5801e-17)
(0.950729 0.207781 1.46006e-17)
(0.953873 0.195597 -1.60339e-17)
(0.95896 0.286591 -1.27846e-21)
(0.958549 0.286601 1.86305e-21)
(0.958205 0.286595 3.88499e-22)
(0.957939 0.286574 7.19569e-21)
(0.95777 0.286534 -1.10219e-20)
(0.95771 0.286468 -2.28569e-20)
(0.957765 0.286374 8.21707e-21)
(0.957932 0.286247 -1.11568e-20)
(0.958204 0.286084 2.44304e-20)
(0.958564 0.285884 -5.02676e-21)
(0.95899 0.285649 -1.66816e-20)
(0.959458 0.285379 1.39762e-20)
(0.95994 0.285078 2.30626e-20)
(0.960411 0.284751 6.45706e-20)
(0.960849 0.284403 -1.18622e-19)
(0.961237 0.28404 6.16077e-20)
(0.961562 0.283666 9.87199e-21)
(0.961816 0.283285 -6.28491e-20)
(0.961999 0.2829 -4.01395e-20)
(0.962112 0.282513 1.3355e-19)
(0.962159 0.282125 -1.42553e-19)
(0.962147 0.281734 4.30406e-20)
(0.962085 0.281343 -1.21373e-19)
(0.961977 0.280945 2.02585e-19)
(0.961833 0.280545 -4.1539e-20)
(0.961658 0.280134 -1.21221e-19)
(0.961458 0.279718 9.78864e-20)
(0.961238 0.279294 1.90879e-19)
(0.961 0.278875 -1.8712e-19)
(0.960746 0.278465 1.18796e-19)
(0.960476 0.278068 -4.04312e-19)
(0.960198 0.277653 -4.83276e-20)
(0.959919 0.277166 1.85802e-19)
(0.959641 0.276609 -1.10433e-19)
(0.959346 0.276039 -2.32821e-19)
(0.959019 0.275494 -5.90371e-19)
(0.958656 0.274947 7.82143e-19)
(0.958252 0.274352 -3.06484e-19)
(0.957813 0.273679 2.51358e-19)
(0.957335 0.272917 5.08722e-19)
(0.956809 0.272048 3.94717e-19)
(0.956227 0.271046 -2.80362e-19)
(0.955586 0.26988 1.04193e-18)
(0.954883 0.268518 2.05271e-18)
(0.954115 0.266932 -2.0318e-19)
(0.953291 0.265089 -3.16035e-18)
(0.952411 0.262988 -4.60875e-18)
(0.951497 0.260617 -4.09191e-19)
(0.950557 0.258 3.70595e-18)
(0.949623 0.255155 -4.85857e-19)
(0.948745 0.252078 7.62766e-18)
(0.94781 0.248884 -1.28299e-17)
(0.946971 0.245459 -7.2378e-18)
(0.946324 0.241527 -2.58156e-18)
(0.94621 0.236906 -6.30867e-18)
(0.946332 0.231391 4.0753e-18)
(0.947274 0.225211 -5.42449e-18)
(0.948104 0.217145 -2.00545e-17)
(0.951018 0.207254 -2.21364e-17)
(0.956233 0.19586 8.25401e-18)
(0.958898 0.288308 -1.82261e-21)
(0.958412 0.288328 1.48432e-21)
(0.957968 0.288338 1.1785e-21)
(0.957576 0.28834 -8.52357e-21)
(0.957257 0.288328 8.86489e-21)
(0.957029 0.288297 -4.4277e-21)
(0.956904 0.288243 1.45403e-20)
(0.956888 0.288159 -2.18794e-20)
(0.956984 0.288042 1.22295e-21)
(0.957185 0.287889 1.65695e-21)
(0.957479 0.287698 -1.68666e-20)