/*--------------------------------*- C++ -*----------------------------------*\
  =========                 |
  \\      /  F ield         | OpenFOAM: The Open Source CFD Toolbox
   \\    /   O peration     | Website:  https://openfoam.org
    \\  /    A nd           | Version:  6.0
     \\/     M anipulation  |
\*---------------------------------------------------------------------------*/
FoamFile
{
    version     2.0;
    format      ascii;
    class       surfaceScalarField;
    location    "13";
    object      phi;
}
// * * * * * * * * * * * * * * * * * * * * * * * * * * * * * * * * * * * * * //

dimensions      [0 3 -1 0 0 0 0];

internalField   nonuniform List<scalar> 
123526
(
5.50391e-05
2.30517e-05
-5.4647e-05
5.54594e-05
2.4918e-05
5.59158e-05
2.69345e-05
5.64066e-05
2.91136e-05
5.6939e-05
3.14681e-05
5.75122e-05
3.40119e-05
5.81339e-05
3.67601e-05
5.88044e-05
3.97286e-05
5.95327e-05
4.29343e-05
6.03192e-05
4.63973e-05
6.11718e-05
5.01381e-05
6.20923e-05
5.41778e-05
6.309e-05
5.85398e-05
6.41696e-05
6.32471e-05
6.53423e-05
6.83278e-05
6.66092e-05
7.38144e-05
6.79815e-05
7.9735e-05
6.94702e-05
8.6117e-05
7.10853e-05
9.30034e-05
7.28311e-05
0.000100433
7.47271e-05
0.000108435
7.67822e-05
0.00011706
7.90055e-05
0.000126358
8.14204e-05
0.000136357
8.40334e-05
0.000147129
8.68635e-05
0.000158711
8.99295e-05
0.000171161
9.32443e-05
0.000184538
9.68339e-05
0.000198889
0.000100711
0.000214283
0.000104903
0.000230764
0.000109426
0.000248396
0.000114309
0.000267223
0.000119572
0.000287294
0.000125238
0.000308648
0.000131337
0.000331303
0.000137889
0.000355277
0.000144924
0.000380552
0.000152466
0.000407085
0.000160539
0.000434803
0.000169163
0.000463573
0.000178358
0.000493207
0.000188136
0.000523437
0.000198504
0.000553895
0.000209458
0.000584087
0.000220982
0.000613365
0.000233046
0.000640888
0.000245598
0.000665577
0.000258561
0.000686064
0.000271826
0.000700635
0.000285244
0.000707167
0.000298614
0.000703055
0.000311675
0.000685143
0.000324094
0.000649649
0.000335443
0.000592145
0.000345207
0.000507407
0.000352769
0.000389847
0.000356179
0.000233915
0.000361354
2.56362e-05
-0.0002266
0.00038231
5.42289e-05
2.26684e-05
-5.38439e-05
5.46421e-05
2.45034e-05
5.50916e-05
2.64861e-05
5.55755e-05
2.86286e-05
5.6101e-05
3.09436e-05
5.6667e-05
3.34448e-05
5.72812e-05
3.61467e-05
5.79438e-05
3.90651e-05
5.86634e-05
4.22157e-05
5.94403e-05
4.56195e-05
6.02824e-05
4.92969e-05
6.11912e-05
5.32682e-05
6.2176e-05
5.75561e-05
6.32412e-05
6.2181e-05
6.43978e-05
6.71719e-05
6.56468e-05
7.25644e-05
6.69991e-05
7.83833e-05
6.84654e-05
8.46497e-05
7.00554e-05
9.14135e-05
7.17733e-05
9.87135e-05
7.3638e-05
0.00010657
7.56584e-05
0.000115039
7.7843e-05
0.000124172
8.0215e-05
0.000133984
8.27805e-05
0.000144562
8.55582e-05
0.000155932
8.85664e-05
0.000168151
9.1818e-05
0.000181285
9.53383e-05
0.000195367
9.91397e-05
0.00021048
0.00010325
0.000226651
0.000107685
0.000243959
0.00011247
0.000262435
0.000117629
0.000282132
0.000123184
0.000303089
0.000129164
0.000325318
0.00013559
0.000348846
0.000142489
0.000373646
0.000149888
0.00039968
0.000157807
0.000426876
0.000166269
0.000455103
0.000175291
0.000484174
0.000184886
0.00051383
0.00019506
0.000543708
0.000205809
0.000573323
0.000217118
0.000602038
0.000228957
0.000629028
0.000241275
0.000653234
0.000253998
0.000673312
0.00026702
0.000687579
0.000280192
0.000693953
0.000293317
0.000689876
0.000306136
0.000672257
0.000318317
0.000637387
0.000329443
0.000580923
0.000338981
0.000497745
0.000346297
0.000382363
0.00035074
0.000229227
0.000352687
2.32349e-05
-0.000223806
0.000349558
5.33315e-05
2.22924e-05
-5.29538e-05
5.37366e-05
2.40971e-05
5.4177e-05
2.60467e-05
5.4651e-05
2.81535e-05
5.5166e-05
3.04297e-05
5.57209e-05
3.28888e-05
5.63235e-05
3.5545e-05
5.69738e-05
3.84138e-05
5.76807e-05
4.15098e-05
5.84441e-05
4.48551e-05
5.92719e-05
4.847e-05
6.01654e-05
5.23737e-05
6.1134e-05
5.65884e-05
6.21818e-05
6.11321e-05
6.33199e-05
6.60346e-05
6.4549e-05
7.13343e-05
6.58799e-05
7.70528e-05
6.73231e-05
8.32053e-05
6.88882e-05
8.98485e-05
7.05791e-05
9.70215e-05
7.24143e-05
0.000104735
7.44024e-05
0.000113049
7.65518e-05
0.000122022
7.88849e-05
0.000131649
8.14078e-05
0.000142039
8.41387e-05
0.0001532
8.70954e-05
0.000165194
9.02907e-05
0.000178088
9.37493e-05
0.000191907
9.74834e-05
0.000206744
0.00010152
0.000222613
0.000105876
0.000239602
0.000110576
0.000257733
0.000115642
0.000277063
0.000121097
0.000297631
0.000126969
0.000319441
0.00013328
0.000342531
0.000140055
0.000366866
0.000147321
0.000392409
0.000155097
0.000419094
0.000163405
0.000446789
0.000172263
0.00047531
0.000181682
0.000504405
0.000191668
0.000533716
0.000202218
0.000562767
0.000213317
0.000590933
0.000224936
0.000617404
0.000237026
0.000641139
0.000249514
0.000660821
0.000262293
0.000674796
0.000275221
0.000681025
0.000288099
0.000676994
0.000300673
0.000659675
0.000312613
0.000625433
0.000323512
0.00057001
0.000332844
0.000488399
0.000340014
0.000375182
0.000344217
0.000225021
0.000345994
2.14953e-05
-0.00022749
0.000349744
5.25077e-05
2.19247e-05
-5.21381e-05
5.29038e-05
2.36997e-05
5.33347e-05
2.5617e-05
5.37986e-05
2.76886e-05
5.43029e-05
2.99266e-05
5.48465e-05
3.23441e-05
5.54372e-05
3.49553e-05
5.6075e-05
3.77752e-05
5.67685e-05
4.08173e-05
5.75178e-05
4.41049e-05
5.83307e-05
4.76583e-05
5.92082e-05
5.14954e-05
6.01594e-05
5.56383e-05
6.11885e-05
6.01023e-05
6.23063e-05
6.49179e-05
6.35133e-05
7.01264e-05
6.48205e-05
7.57464e-05
6.62379e-05
8.1787e-05
6.77752e-05
8.83115e-05
6.94361e-05
9.53596e-05
7.1239e-05
0.000102932
7.31922e-05
0.000111095
7.5304e-05
0.00011991
7.75965e-05
0.000129356
8.00754e-05
0.000139559
8.27588e-05
0.000150516
8.56639e-05
0.000162288
8.88034e-05
0.000174948
9.22013e-05
0.000188508
9.58699e-05
0.000203074
9.98353e-05
0.000218645
0.000104114
0.000235322
0.00010873
0.000253114
0.000113707
0.000272085
0.000119064
0.000292271
0.000124832
0.00031367
0.000131029
0.00033633
0.000137683
0.000360209
0.000144817
0.000385271
0.000152451
0.000411454
0.000160607
0.000438628
0.000169302
0.000466609
0.000178547
0.000495153
0.000188347
0.000523907
0.000198701
0.000552403
0.000209594
0.000580029
0.000220998
0.000605987
0.000232865
0.000629256
0.000245123
0.000648543
0.000257667
0.000662227
0.000270357
0.000668304
0.000282995
0.000664313
0.000295333
0.000647281
0.000307045
0.00061365
0.000317736
0.00055923
0.000326901
0.000479118
0.000333971
0.000367952
0.000338403
0.000220355
0.000339663
1.97944e-05
-0.000228166
0.000340019
5.16876e-05
2.15657e-05
-5.1327e-05
5.20748e-05
2.33111e-05
5.24969e-05
2.5196e-05
5.29518e-05
2.72325e-05
5.34467e-05
2.94327e-05
5.39806e-05
3.18091e-05
5.4561e-05
3.43757e-05
5.5188e-05
3.71471e-05
5.58703e-05
4.0136e-05
5.66077e-05
4.33665e-05
5.7408e-05
4.68589e-05
5.82723e-05
5.06301e-05
5.92096e-05
5.4702e-05
6.02237e-05
5.90872e-05
6.13251e-05
6.38173e-05
6.25142e-05
6.89363e-05
6.38016e-05
7.44595e-05
6.51972e-05
8.03904e-05
6.67102e-05
8.67988e-05
6.83443e-05
9.37244e-05
7.01175e-05
0.000101159
7.2038e-05
0.000109174
7.4114e-05
0.000117834
7.6367e-05
0.000127102
7.88031e-05
0.000137123
8.14396e-05
0.000147878
8.42937e-05
0.000159433
8.73778e-05
0.000171863
9.07155e-05
0.000185169
9.43187e-05
0.00019947
9.82133e-05
0.000214749
0.000102415
0.000231119
0.000106949
0.00024858
0.000111835
0.000267197
0.000117095
0.000287009
0.000122758
0.000308004
0.000128842
0.000330242
0.000135373
0.000353674
0.000142376
0.000378264
0.00014987
0.000403957
0.000157875
0.000430619
0.000166408
0.000458072
0.000175482
0.000486076
0.000185101
0.000514284
0.000195263
0.000542238
0.000205956
0.000569335
0.000217151
0.000594791
0.000228801
0.000617606
0.000240837
0.000636509
0.000253155
0.000649912
0.000265614
0.00065585
0.000278023
0.000651908
0.000290135
0.000635171
0.000301632
0.000602151
0.000312128
0.000548733
0.000321139
0.000470108
0.000328117
0.000360981
0.000332574
0.000215922
0.000333587
1.88654e-05
-0.000227072
0.00033259
5.08851e-05
2.12126e-05
-5.05302e-05
5.12668e-05
2.29282e-05
5.16832e-05
2.47808e-05
5.21317e-05
2.67829e-05
5.26195e-05
2.89461e-05
5.3145e-05
3.12825e-05
5.37161e-05
3.38056e-05
5.43324e-05
3.65298e-05
5.50029e-05
3.94666e-05
5.57274e-05
4.26412e-05
5.65139e-05
4.60736e-05
5.73632e-05
4.978e-05
5.82847e-05
5.37817e-05
5.9282e-05
5.80892e-05
6.03658e-05
6.27347e-05
6.15361e-05
6.77651e-05
6.28035e-05
7.31929e-05
6.41773e-05
7.90157e-05
6.56668e-05
8.53097e-05
6.72752e-05
9.21151e-05
6.90201e-05
9.94141e-05
7.09094e-05
0.000107283
7.29512e-05
0.000115792
7.51665e-05
0.000124886
7.75612e-05
0.000134727
8.01524e-05
0.000145286
8.29569e-05
0.000156627
8.59869e-05
0.000168832
8.92656e-05
0.000181889
9.28047e-05
0.00019593
9.66295e-05
0.000210923
0.000100756
0.000226991
0.000105207
0.000244127
0.000110005
0.000262398
0.00011517
0.000281842
0.000120729
0.000302442
0.000126702
0.000324266
0.000133113
0.000347259
0.000139987
0.000371387
0.000147343
0.000396597
0.0001552
0.000422758
0.000163577
0.000449691
0.000172483
0.000477164
0.000181926
0.000504836
0.000191902
0.000532254
0.0002024
0.000558828
0.000213392
0.000583788
0.000224833
0.000606152
0.000236652
0.000624674
0.000248748
0.000637796
0.000260982
0.000643589
0.000273165
0.000639688
0.000285055
0.000623233
0.000296341
0.000590803
0.000306645
0.000538351
0.0003155
0.000461148
0.000322375
0.000353961
0.000326818
0.000211263
0.000327651
1.76205e-05
-0.000225434
0.000325715
5.01654e-05
2.08614e-05
-4.98126e-05
5.05449e-05
2.25474e-05
5.09582e-05
2.43687e-05
5.14024e-05
2.63375e-05
5.18845e-05
2.8465e-05
5.2403e-05
3.07629e-05
5.29654e-05
3.32442e-05
5.35712e-05
3.59228e-05
5.42294e-05
3.88095e-05
5.49395e-05
4.193e-05
5.57095e-05
4.53046e-05
5.65405e-05
4.8948e-05
5.74419e-05
5.28814e-05
5.84173e-05
5.71128e-05
5.94777e-05
6.16752e-05
6.06233e-05
6.66185e-05
6.18649e-05
7.1952e-05
6.32115e-05
7.76681e-05
6.46723e-05
8.38493e-05
6.62505e-05
9.05359e-05
6.79633e-05
9.77014e-05
6.98184e-05
0.000105428
7.18235e-05
0.000113787
7.39992e-05
0.000122709
7.63512e-05
0.000132375
7.88961e-05
0.000142741
8.16504e-05
0.000153872
8.46261e-05
0.000165855
8.78459e-05
0.000178669
9.13212e-05
0.000192453
9.50771e-05
0.000207166
9.91283e-05
0.000222939
0.0001035
0.000239755
0.00010821
0.000257685
0.000113281
0.000276769
0.000118739
0.000296982
0.000124602
0.0003184
0.000130897
0.000340962
0.000137645
0.000364635
0.000144866
0.000389373
0.00015258
0.000415041
0.000160804
0.000441465
0.000169548
0.000468417
0.000178819
0.000495562
0.000188616
0.000522457
0.000198924
0.000548519
0.000209718
0.000572994
0.000220952
0.00059492
0.000232558
0.000613072
0.000244435
0.000625925
0.000256445
0.000631587
0.000268404
0.000627738
0.000280074
0.000611572
0.00029115
0.000579733
0.000301262
0.000528248
0.000309959
0.000452464
0.000316725
0.000347218
0.000321126
0.000206908
0.000321884
1.69871e-05
-0.000222962
0.000319538
4.95587e-05
2.05113e-05
-4.92066e-05
4.99361e-05
2.21686e-05
5.03461e-05
2.39599e-05
5.07857e-05
2.58968e-05
5.12621e-05
2.79899e-05
5.17733e-05
3.02506e-05
5.2327e-05
3.26915e-05
5.29225e-05
3.53264e-05
5.35686e-05
3.81647e-05
5.42645e-05
4.12333e-05
5.50181e-05
4.45522e-05
5.58302e-05
4.81352e-05
5.67101e-05
5.20029e-05
5.76614e-05
5.61608e-05
5.86952e-05
6.06426e-05
5.9812e-05
6.5501e-05
6.10227e-05
7.07422e-05
6.23363e-05
7.63535e-05
6.37626e-05
8.24236e-05
6.53045e-05
8.89931e-05
6.69793e-05
9.60267e-05
6.87945e-05
0.000103611
7.07579e-05
0.000111823
7.28893e-05
0.000120577
7.51946e-05
0.000130069
7.76899e-05
0.000140245
8.03914e-05
0.00015117
8.33107e-05
0.000162935
8.64699e-05
0.000175509
8.98804e-05
0.000189042
9.35664e-05
0.000203479
9.75431e-05
0.000218961
0.000101833
0.000235463
0.000106458
0.00025306
0.000111436
0.00027179
0.000116794
0.000291622
0.00012255
0.000312641
0.000128729
0.00033478
0.000135355
0.000358007
0.000142445
0.00038228
0.000150019
0.000407464
0.000158093
0.000433386
0.00016668
0.000459826
0.000175784
0.000486453
0.000185404
0.00051283
0.000195527
0.000538388
0.000206127
0.000562385
0.000217159
0.000583876
0.000228553
0.000601663
0.000240213
0.000614247
0.000252002
0.000619774
0.000263737
0.000615969
0.000275187
0.000600079
0.000286055
0.00056881
0.000295977
0.000518253
0.000304516
0.000443826
0.000311172
0.000340426
0.000315501
0.000202376
0.000316276
1.58229e-05
-0.000220751
0.000313786
4.90492e-05
2.01641e-05
-4.87005e-05
4.94221e-05
2.17943e-05
4.98263e-05
2.35568e-05
5.02591e-05
2.54626e-05
5.07278e-05
2.75222e-05
5.12305e-05
2.97467e-05
5.17748e-05
3.21482e-05
5.23597e-05
3.47403e-05
5.29939e-05
3.75315e-05
5.36764e-05
4.05497e-05
5.4415e-05
4.38146e-05
5.52099e-05
4.73393e-05
5.60701e-05
5.11437e-05
5.6999e-05
5.52309e-05
5.80074e-05
5.96352e-05
5.90958e-05
6.44116e-05
6.02751e-05
6.95636e-05
6.15547e-05
7.5073e-05
6.29442e-05
8.10345e-05
6.4447e-05
8.74893e-05
6.60805e-05
9.43935e-05
6.7852e-05
0.000101839
6.97696e-05
0.000109906
7.1853e-05
0.000118493
7.41078e-05
0.000127814
7.655e-05
0.000137802
7.91955e-05
0.000148524
8.20555e-05
0.000160075
8.51518e-05
0.000172412
8.84956e-05
0.000185697
9.21106e-05
0.000199863
9.60111e-05
0.000215059
0.000100221
0.000231253
0.000104758
0.000248521
0.000109644
0.000266903
0.000114903
0.000286361
0.000120553
0.000306988
0.000126619
0.000328711
0.000133124
0.0003515
0.000140085
0.000375316
0.000147522
0.000400025
0.000155451
0.000425455
0.000163883
0.000451392
0.000172823
0.000477511
0.00018227
0.000503383
0.000192211
0.000528447
0.00020262
0.000551978
0.000213452
0.000573048
0.000224638
0.000590481
0.000236083
0.00060281
0.000247652
0.000608215
0.000259167
0.000604465
0.000270401
0.000588859
0.000281062
0.000558163
0.000290796
0.000508536
0.00029918
0.000435466
0.00030572
0.000333923
0.000309955
0.000198209
0.000310803
1.51401e-05
-0.000218073
0.000308277
4.85976e-05
1.98233e-05
-4.8255e-05
4.8963e-05
2.14276e-05
4.9359e-05
2.31621e-05
4.9783e-05
2.50375e-05
5.02423e-05
2.70641e-05
5.07351e-05
2.92528e-05
5.12688e-05
3.16156e-05
5.18425e-05
3.41655e-05
5.24649e-05
3.69104e-05
5.31347e-05
3.9879e-05
5.38596e-05
4.30911e-05
5.46394e-05
4.65587e-05
5.5483e-05
5.03015e-05
5.63929e-05
5.43203e-05
5.73798e-05
5.86496e-05
5.84436e-05
6.3347e-05
5.95953e-05
6.84129e-05
6.08436e-05
7.38237e-05
6.21987e-05
7.96801e-05
6.36638e-05
8.60233e-05
6.52565e-05
9.2801e-05
6.69843e-05
0.00010011
6.88555e-05
0.000108034
7.08895e-05
0.000116458
7.30924e-05
0.000125611
7.54797e-05
0.000135414
7.80673e-05
0.000145936
8.08664e-05
0.000157275
8.38983e-05
0.000169379
8.71739e-05
0.000182421
9.07165e-05
0.000196319
9.45407e-05
0.000211235
9.86685e-05
0.000227124
0.00010312
0.00024407
0.000107913
0.000262109
0.000113073
0.000281199
0.000118619
0.000301441
0.000124573
0.000322754
0.000130958
0.000345113
0.000137792
0.000368479
0.000145094
0.00039272
0.00015288
0.000417666
0.00016116
0.000443108
0.000169939
0.000468726
0.000179216
0.0004941
0.000188978
0.000518678
0.000199198
0.000541749
0.000209832
0.000562403
0.000220814
0.000579486
0.000232046
0.000591561
0.000243399
0.00059684
0.000254697
0.000593137
0.000265716
0.000577801
0.000276175
0.000547655
0.000285726
0.00049892
0.000293954
0.000427147
0.000300376
0.000327376
0.000304508
0.000193891
0.000305444
1.38436e-05
-0.000215795
0.000302906
4.81627e-05
1.94908e-05
-4.78286e-05
4.85188e-05
2.107e-05
4.89052e-05
2.27769e-05
4.93191e-05
2.46222e-05
4.97682e-05
2.66162e-05
5.02503e-05
2.87694e-05
5.07731e-05
3.10938e-05
5.13353e-05
3.3602e-05
5.19459e-05
3.6301e-05
5.26033e-05
3.92204e-05
5.33152e-05
4.23802e-05
5.40814e-05
4.57915e-05
5.49104e-05
4.94736e-05
5.58044e-05
5.34252e-05
5.67736e-05
5.76815e-05
5.78174e-05
6.23022e-05
5.89463e-05
6.72848e-05
6.01688e-05
7.26003e-05
6.14944e-05
7.83549e-05
6.29266e-05
8.45901e-05
6.44827e-05
9.12452e-05
6.61703e-05
9.8422e-05
6.79978e-05
0.000106207
6.99846e-05
0.00011447
7.21369e-05
0.000123459
7.44703e-05
0.00013308
7.70007e-05
0.000143406
7.9739e-05
0.000154536
8.27065e-05
0.000166411
8.59139e-05
0.000179213
8.93843e-05
0.000192848
9.31315e-05
0.000207486
9.71785e-05
0.000223077
0.000101543
0.000239704
0.000106244
0.000257407
0.000111307
0.000276135
0.000116748
0.000295997
0.000122592
0.000316909
0.000128859
0.000338843
0.000135568
0.000361768
0.000142737
0.000385549
0.000150381
0.00041002
0.000158511
0.000434976
0.000167132
0.000460105
0.000176241
0.00048499
0.000185826
0.000509094
0.00019586
0.000531717
0.000206299
0.000551967
0.000217077
0.000568714
0.000228101
0.000580546
0.00023924
0.000585712
0.000250324
0.000582067
0.000261134
0.000567008
0.000271394
0.000537414
0.000280764
0.000489574
0.000288838
0.000419104
0.000295139
0.000321124
0.000299172
0.000189943
0.000300182
1.30313e-05
-0.000213068
0.000297628
4.7714e-05
1.91676e-05
-4.73889e-05
4.80606e-05
2.0722e-05
4.84373e-05
2.24015e-05
4.88412e-05
2.4217e-05
4.92801e-05
2.61787e-05
4.97515e-05
2.82968e-05
5.02634e-05
3.05831e-05
5.08144e-05
3.305e-05
5.14132e-05
3.57035e-05
5.20586e-05
3.85742e-05
5.27581e-05
4.16821e-05
5.35114e-05
4.50375e-05
5.43271e-05
4.86594e-05
5.5207e-05
5.25446e-05
5.61611e-05
5.67288e-05
5.71883e-05
6.12742e-05
5.82989e-05
6.61754e-05
5.95002e-05
7.13981e-05
6.08019e-05
7.7054e-05
6.22067e-05
8.31844e-05
6.37317e-05
8.97205e-05
6.53843e-05
9.67686e-05
6.71731e-05
0.000104418
6.91171e-05
0.000112526
7.12227e-05
0.000121353
7.35055e-05
0.000130796
7.59814e-05
0.000140929
7.86613e-05
0.000151856
8.15663e-05
0.000163505
8.47072e-05
0.000176071
8.81066e-05
0.000189448
9.17788e-05
0.000203814
9.5745e-05
0.00021911
0.000100025
0.000235425
0.000104635
0.000252795
0.000109601
0.000271167
0.00011494
0.000290656
0.000120674
0.000311172
0.000126825
0.00033269
0.000133411
0.000355181
0.000140448
0.000378509
0.000147952
0.000402512
0.000155934
0.000426991
0.000164398
0.000451636
0.000173341
0.000476041
0.000182751
0.000499677
0.000192601
0.000521858
0.000202848
0.00054171
0.000213426
0.000558123
0.000224244
0.000569713
0.000235172
0.000574762
0.000246046
0.000571166
0.00025665
0.000556368
0.000266715
0.000527303
0.000275908
0.00048032
0.000283831
0.000411096
0.000290012
0.000314822
0.00029395
0.000185828
0.000295005
1.16361e-05
-0.000210735
0.000292425
4.72347e-05
1.88529e-05
-4.69186e-05
4.75724e-05
2.03826e-05
4.79401e-05
2.20349e-05
4.83347e-05
2.38209e-05
4.87639e-05
2.57505e-05
4.92254e-05
2.78339e-05
4.97269e-05
3.00825e-05
5.02671e-05
3.25085e-05
5.08546e-05
3.5117e-05
5.14881e-05
3.79395e-05
5.21754e-05
4.09959e-05
5.29159e-05
4.42958e-05
5.37185e-05
4.7858e-05
5.45849e-05
5.16771e-05
5.5525e-05
5.57898e-05
5.65374e-05
6.02607e-05
5.7632e-05
6.50816e-05
5.88157e-05
7.02133e-05
6.00976e-05
7.57726e-05
6.14799e-05
8.18011e-05
6.29792e-05
8.82214e-05
6.46025e-05
9.51445e-05
6.63581e-05
0.000102663
6.82647e-05
0.000110618
7.03288e-05
0.000119289
7.25659e-05
0.000128559
7.49915e-05
0.000138504
7.7617e-05
0.00014923
8.0463e-05
0.000160659
8.35404e-05
0.000172993
8.68717e-05
0.000186116
9.04706e-05
0.000200214
9.43595e-05
0.000215221
9.85555e-05
0.000231228
0.000103077
0.000248273
0.000107949
0.000266294
0.000113187
0.000285416
0.000118814
0.000305543
0.00012485
0.000326651
0.000131313
0.000348715
0.000138221
0.0003716
0.000145588
0.000395144
0.000153423
0.000419154
0.000161732
0.000443327
0.000170512
0.000467262
0.000179749
0.000490442
0.000189417
0.000512193
0.000199474
0.000531657
0.000209854
0.000547748
0.000220468
0.000559109
0.00023119
0.000564052
0.000241857
0.000560514
0.00025226
0.000545985
0.000262133
0.000517453
0.000271152
0.00047133
0.000278926
0.000403361
0.00028499
0.000308816
0.000288841
0.000182077
0.00028991
1.07928e-05
-0.000207931
0.000287296
4.67193e-05
1.85458e-05
-4.64105e-05
4.70494e-05
2.0051e-05
4.74091e-05
2.16764e-05
4.77954e-05
2.34332e-05
4.8216e-05
2.53312e-05
4.86681e-05
2.73804e-05
4.91599e-05
2.95918e-05
4.96897e-05
3.19774e-05
5.02664e-05
3.45416e-05
5.08884e-05
3.73165e-05
5.15637e-05
4.03221e-05
5.22915e-05
4.35671e-05
5.3081e-05
4.707e-05
5.39338e-05
5.08236e-05
5.48599e-05
5.48652e-05
5.58578e-05
5.9262e-05
5.69372e-05
6.40033e-05
5.81047e-05
6.90449e-05
5.9369e-05
7.45091e-05
6.07317e-05
8.04374e-05
6.22091e-05
8.67445e-05
6.38072e-05
9.35454e-05
6.55345e-05
0.000100936
6.74088e-05
0.000108743
6.94366e-05
0.000117261
7.1633e-05
0.000126362
7.40134e-05
0.000136123
7.65891e-05
0.000146654
7.93805e-05
0.000157867
8.23986e-05
0.000169974
8.56654e-05
0.000182848
8.91952e-05
0.000196684
9.30086e-05
0.000211407
9.71247e-05
0.000227112
0.00010156
0.000243836
0.00010634
0.000261513
0.000111479
0.000280275
0.000117001
0.00030002
0.000122925
0.000320725
0.000129269
0.000342369
0.000136049
0.000364817
0.00014328
0.00038791
0.000150971
0.000411459
0.000159127
0.000435167
0.000167745
0.00045864
0.000176811
0.000481369
0.0001863
0.000502696
0.000196169
0.000521779
0.000206354
0.000537551
0.000216768
0.00054868
0.000227287
0.000553514
0.000237751
0.000550025
0.000247956
0.000535749
0.000257643
0.000507724
0.000266491
0.000462425
0.000274119
0.000395654
0.000280069
0.000302755
0.000283837
0.000178143
0.000284894
9.42267e-06
-0.000205514
0.000282244
4.61693e-05
1.82452e-05
-4.58671e-05
4.64926e-05
1.97259e-05
4.68453e-05
2.13248e-05
4.7224e-05
2.3053e-05
4.76365e-05
2.49199e-05
4.80801e-05
2.69353e-05
4.85627e-05
2.91102e-05
4.90827e-05
3.14561e-05
4.96489e-05
3.39765e-05
5.02596e-05
3.67046e-05
5.09229e-05
3.966e-05
5.1638e-05
4.28508e-05
5.24141e-05
4.62951e-05
5.32529e-05
4.99837e-05
5.41643e-05
5.39548e-05
5.51473e-05
5.8278e-05
5.62113e-05
6.29401e-05
5.73627e-05
6.78923e-05
5.861e-05
7.32624e-05
5.99547e-05
7.90918e-05
6.14121e-05
8.52874e-05
6.2988e-05
9.19686e-05
6.46903e-05
9.92333e-05
6.65363e-05
0.000106897
6.85321e-05
0.000115265
7.06923e-05
0.000124201
7.30323e-05
0.000133783
7.55628e-05
0.000144123
7.83042e-05
0.000155125
8.12673e-05
0.000167011
8.4474e-05
0.000179641
8.79379e-05
0.000193219
9.16808e-05
0.000207665
9.57197e-05
0.000223073
0.000100073
0.000239482
0.000104763
0.000256822
0.000109807
0.00027523
0.000115226
0.000294599
0.00012104
0.000314909
0.000127267
0.000336141
0.000133922
0.00035816
0.00014102
0.000380811
0.000148569
0.000403909
0.000156575
0.000427161
0.000165033
0.000450182
0.00017393
0.000472473
0.000183242
0.000493387
0.000192927
0.000512099
0.00020292
0.000527564
0.000213138
0.000538474
0.000223456
0.000543208
0.000233722
0.000539776
0.000243733
0.000525759
0.000253237
0.000498247
0.000261919
0.000453776
0.000269404
0.000388213
0.000275242
0.000296983
0.000278932
0.000174563
0.000279956
8.64709e-06
-0.000202627
0.000277274
4.55891e-05
1.79504e-05
-4.52925e-05
4.59064e-05
1.94071e-05
4.62526e-05
2.09799e-05
4.66243e-05
2.26799e-05
4.70293e-05
2.45162e-05
4.74647e-05
2.64986e-05
4.79385e-05
2.86375e-05
4.8449e-05
3.09445e-05
4.9005e-05
3.34219e-05
4.96047e-05
3.61039e-05
5.02562e-05
3.901e-05
5.09587e-05
4.21474e-05
5.17215e-05
4.5534e-05
5.2546e-05
4.91585e-05
5.34425e-05
5.30598e-05
5.44097e-05
5.731e-05
5.54577e-05
6.18934e-05
5.65922e-05
6.67569e-05
5.78221e-05
7.20333e-05
5.91484e-05
7.77646e-05
6.05863e-05
8.385e-05
6.21411e-05
9.0413e-05
6.38202e-05
9.75544e-05
6.56402e-05
0.000105076
6.76069e-05
0.000113298
6.97345e-05
0.000122073
7.20376e-05
0.000131479
7.45271e-05
0.000141633
7.72226e-05
0.000152429
8.01349e-05
0.000164098
8.32854e-05
0.000176489
8.66881e-05
0.000189816
9.03632e-05
0.000203989
9.43294e-05
0.000219107
9.8603e-05
0.000235208
0.000103207
0.000252216
0.000108159
0.000270276
0.000113479
0.000289277
0.000119186
0.000309199
0.000125298
0.000330027
0.000131831
0.000351625
0.000138798
0.000373841
0.000146209
0.000396495
0.000154066
0.0004193
0.000162367
0.000441876
0.000171099
0.000463735
0.000180237
0.000484242
0.00018974
0.000502588
0.000199545
0.000517746
0.00020957
0.000528437
0.000219692
0.000533066
0.000229764
0.000529682
0.000239586
0.000515907
0.000248911
0.000488882
0.00025743
0.000445203
0.000264776
0.000380792
0.000270504
0.000291148
0.000274118
0.000170791
0.000275097
7.37052e-06
-0.000200137
0.000272386
4.49842e-05
1.76606e-05
-4.46931e-05
4.52957e-05
1.90937e-05
4.56358e-05
2.06409e-05
4.60009e-05
2.23131e-05
4.63987e-05
2.41196e-05
4.68262e-05
2.60694e-05
4.72916e-05
2.81731e-05
4.77928e-05
3.04417e-05
4.83389e-05
3.2877e-05
4.89278e-05
3.55137e-05
4.95676e-05
3.83713e-05
5.02576e-05
4.14562e-05
5.10069e-05
4.47859e-05
5.18169e-05
4.83473e-05
5.2698e-05
5.21798e-05
5.36491e-05
5.63578e-05
5.468e-05
6.08633e-05
5.5797e-05
6.56388e-05
5.70085e-05
7.08224e-05
5.83158e-05
7.64563e-05
5.97337e-05
8.24324e-05
6.12673e-05
8.88786e-05
6.29236e-05
9.58983e-05
6.47186e-05
0.00010328
6.66579e-05
0.000111359
6.87549e-05
0.000119976
7.10239e-05
0.00012921
7.34752e-05
0.000139181
7.61281e-05
0.000149776
7.89931e-05
0.000161233
8.20912e-05
0.000173391
8.54356e-05
0.000186471
8.90478e-05
0.000200377
9.29439e-05
0.000215211
9.7142e-05
0.00023101
0.000101664
0.000247693
0.000106526
0.000265413
0.00011175
0.000284052
0.000117354
0.000303593
0.000123355
0.000324025
0.000129768
0.000345211
0.000136607
0.000367
0.000143881
0.00038922
0.000151594
0.000411587
0.000159741
0.00043373
0.000168311
0.000455167
0.000177278
0.000475279
0.000186603
0.000493269
0.000196223
0.000508133
0.000206059
0.000518614
0.00021599
0.000523148
0.000225871
0.000519819
0.000235509
0.000506294
0.000244658
0.000479761
0.000253019
0.000436879
0.000260228
0.000373631
0.000265849
0.0002856
0.000269388
0.000167372
0.000270316
6.70816e-06
-0.000197185
0.000267582
4.43602e-05
1.73759e-05
-4.40738e-05
4.46664e-05
1.87857e-05
4.50007e-05
2.03078e-05
4.53594e-05
2.19529e-05
4.57503e-05
2.373e-05
4.61702e-05
2.5648e-05
4.66273e-05
2.77171e-05
4.71196e-05
2.99482e-05
4.76559e-05
3.2342e-05
4.82342e-05
3.49343e-05
4.88627e-05
3.77444e-05
4.95402e-05
4.07778e-05
5.02762e-05
4.40517e-05
5.10717e-05
4.7551e-05
5.19374e-05
5.13158e-05
5.28718e-05
5.54226e-05
5.38852e-05
5.98511e-05
5.49835e-05
6.45395e-05
5.61757e-05
6.96311e-05
5.74628e-05
7.51683e-05
5.88596e-05
8.1036e-05
6.0371e-05
8.73663e-05
6.20039e-05
9.42655e-05
6.37738e-05
0.00010151
6.5686e-05
0.000109447
6.77532e-05
0.000117908
6.99895e-05
0.000126973
7.24045e-05
0.000136766
7.50171e-05
0.000147163
7.78373e-05
0.000158412
8.08856e-05
0.000170342
8.41757e-05
0.000183181
8.77268e-05
0.000196825
9.15571e-05
0.000211381
9.56825e-05
0.000226884
0.000100125
0.000243249
0.000104902
0.000260635
0.000110032
0.00027892
0.000115536
0.000298088
0.000121428
0.000318131
0.000127725
0.000338912
0.00013444
0.000360283
0.000141581
0.000382076
0.000149151
0.000404013
0.000157148
0.000425728
0.000165559
0.000446751
0.000174359
0.000466472
0.000183509
0.000484111
0.00019295
0.000498682
0.0002026
0.000508952
0.000212344
0.000513385
0.00022204
0.000510103
0.000231497
0.00049681
0.000240476
0.000470745
0.000248682
0.000428623
0.000255757
0.000366485
0.000261272
0.000279984
0.000264738
0.000163758
0.000265612
5.55895e-06
-0.000194643
0.000262862
4.37224e-05
1.7096e-05
-4.34409e-05
4.40233e-05
1.84829e-05
4.43519e-05
1.99803e-05
4.47043e-05
2.15989e-05
4.50884e-05
2.33471e-05
4.55008e-05
2.52339e-05
4.595e-05
2.72691e-05
4.64333e-05
2.94633e-05
4.69601e-05
3.18165e-05
4.75279e-05
3.43652e-05
4.81451e-05
3.71285e-05
4.88103e-05
4.01113e-05
4.95329e-05
4.33304e-05
5.0314e-05
4.67688e-05
5.1164e-05
5.0467e-05
5.20817e-05
5.45038e-05
5.30772e-05
5.88566e-05
5.41565e-05
6.34591e-05
5.53285e-05
6.84597e-05
5.65945e-05
7.39013e-05
5.79692e-05
7.96617e-05
5.94574e-05
8.58772e-05
6.10661e-05
9.2657e-05
6.28101e-05
9.97649e-05
6.46947e-05
0.000107562
6.67322e-05
0.00011587
6.89361e-05
0.000124769
7.13157e-05
0.000134386
7.38892e-05
0.000144589
7.66663e-05
0.000155634
7.96671e-05
0.00016734
8.29042e-05
0.000179943
8.63981e-05
0.000193332
9.01643e-05
0.000207614
9.42201e-05
0.000222827
9.85869e-05
0.000238881
0.00010328
0.00025594
0.000108321
0.000273878
0.000113727
0.000292681
0.000119514
0.000312342
0.000125698
0.000332727
0.000132291
0.000353689
0.000139302
0.000375065
0.000146734
0.000396582
0.000154584
0.00041788
0.000162839
0.000438498
0.000171476
0.000457839
0.000180456
0.000475137
0.00018972
0.000489426
0.00019919
0.000499494
0.000208752
0.000503837
0.000218267
0.000500608
0.000227547
0.000487554
0.00023636
0.000461963
0.000244414
0.000420607
0.000251359
0.000359592
0.000256771
0.000274649
0.000260163
0.000160496
0.000260984
5.01927e-06
-0.000191654
0.000258226
4.30752e-05
1.68209e-05
-4.27982e-05
4.33708e-05
1.81854e-05
4.36938e-05
1.96588e-05
4.40399e-05
2.12512e-05
4.44173e-05
2.29712e-05
4.48223e-05
2.48273e-05
4.52634e-05
2.68293e-05
4.5738e-05
2.89873e-05
4.62554e-05
3.13007e-05
4.68129e-05
3.38066e-05
4.74189e-05
3.65242e-05
4.80721e-05
3.94573e-05
4.87817e-05
4.26226e-05
4.95485e-05
4.60011e-05
5.03832e-05
4.9634e-05
5.12841e-05
5.36021e-05
5.22617e-05
5.78803e-05
5.33216e-05
6.23982e-05
5.44731e-05
6.73091e-05
5.57171e-05
7.26562e-05
5.70688e-05
7.83106e-05
5.85327e-05
8.44125e-05
6.01159e-05
9.1074e-05
6.18331e-05
9.80471e-05
6.36892e-05
0.000105706
6.56963e-05
0.000113862
6.78675e-05
0.000122598
7.02117e-05
0.000132041
7.27465e-05
0.000142054
7.54814e-05
0.000152899
7.84357e-05
0.000164385
8.16221e-05
0.000176756
8.50593e-05
0.000189894
8.87645e-05
0.00020391
9.27529e-05
0.000218839
9.70459e-05
0.000234587
0.000101659
0.000251325
0.000106612
0.000268924
0.000111924
0.000287368
0.000117609
0.000306656
0.000123682
0.000326651
0.000130157
0.000347212
0.000137041
0.000368178
0.000144338
0.000389281
0.000152044
0.000410169
0.000160148
0.000430389
0.000168625
0.000449355
0.000177439
0.000466317
0.000186531
0.000480324
0.000195825
0.00049019
0.000205209
0.000494437
0.000214548
0.00049125
0.000223657
0.000478419
0.000232308
0.000453277
0.000240214
0.000412652
0.000247031
0.000352707
0.000252342
0.000269242
0.000255662
0.000157032
0.000256431
3.99166e-06
-0.00018909
0.000253671
4.24219e-05
1.65503e-05
-4.21501e-05
4.27123e-05
1.7893e-05
4.30296e-05
1.93426e-05
4.33695e-05
2.09094e-05
4.37402e-05
2.26016e-05
4.41379e-05
2.44277e-05
4.45712e-05
2.6397e-05
4.50373e-05
2.85196e-05
4.55453e-05
3.07939e-05
4.60927e-05
3.32578e-05
4.66877e-05
3.59303e-05
4.73289e-05
3.88148e-05
4.80256e-05
4.19272e-05
4.87784e-05
4.52471e-05
4.95977e-05
4.88158e-05
5.04821e-05
5.27164e-05
5.14419e-05
5.69215e-05
5.24825e-05
6.13564e-05
5.36132e-05
6.61791e-05
5.48351e-05
7.14332e-05
5.61632e-05