/*--------------------------------*- C++ -*----------------------------------*\
  =========                 |
  \\      /  F ield         | OpenFOAM: The Open Source CFD Toolbox
   \\    /   O peration     | Website:  https://openfoam.org
    \\  /    A nd           | Version:  6.0
     \\/     M anipulation  |
\*---------------------------------------------------------------------------*/
FoamFile
{
    version     2.0;
    format      ascii;
    class       volVectorField;
    location    "13";
    object      U;
}
// * * * * * * * * * * * * * * * * * * * * * * * * * * * * * * * * * * * * * //

dimensions      [0 1 -1 0 0 0 0];

internalField   nonuniform List<vector> 
62000
(
(0.984651 -0.17477 -4.32799e-21)
(0.984652 -0.17478 3.60712e-21)
(0.984648 -0.17479 3.65613e-21)
(0.984644 -0.174788 -1.59144e-20)
(0.984641 -0.174775 -1.79414e-20)
(0.98464 -0.174756 6.21279e-20)
(0.984641 -0.174731 -6.77611e-20)
(0.984643 -0.174702 3.92383e-20)
(0.984646 -0.174671 -1.8103e-20)
(0.984648 -0.17464 -9.13222e-20)
(0.98465 -0.174611 -1.04671e-20)
(0.98465 -0.174585 1.26521e-19)
(0.984649 -0.174562 2.50435e-20)
(0.984646 -0.17454 -8.7727e-20)
(0.984643 -0.17452 1.3491e-19)
(0.984639 -0.174501 -7.13886e-20)
(0.984634 -0.174484 7.13238e-20)
(0.984629 -0.174468 -8.38513e-20)
(0.984623 -0.174454 4.00054e-20)
(0.984617 -0.174441 -1.20601e-19)
(0.984611 -0.174429 1.55662e-19)
(0.984604 -0.174419 4.27557e-20)
(0.984597 -0.17441 5.88249e-20)
(0.984591 -0.174401 -2.77481e-19)
(0.984584 -0.174394 9.96129e-20)
(0.984578 -0.174388 -5.71074e-20)
(0.984572 -0.174382 1.76246e-21)
(0.984566 -0.174376 -3.98257e-20)
(0.984562 -0.174372 1.31209e-19)
(0.984559 -0.174367 -6.47489e-20)
(0.984557 -0.174362 1.50346e-19)
(0.984557 -0.174356 -2.95882e-19)
(0.984558 -0.174348 3.13606e-20)
(0.984562 -0.174338 -7.74559e-20)
(0.98457 -0.174324 -1.76515e-20)
(0.984582 -0.174308 -6.85826e-20)
(0.984598 -0.174288 -2.40433e-21)
(0.98462 -0.174265 -1.552e-21)
(0.984649 -0.174237 4.89245e-20)
(0.984686 -0.174204 1.49687e-19)
(0.984734 -0.174165 -2.49698e-20)
(0.984795 -0.174118 -8.33609e-20)
(0.98487 -0.174061 -2.45283e-20)
(0.984963 -0.17399 -4.18291e-20)
(0.985076 -0.1739 -3.52791e-20)
(0.985211 -0.173786 2.19683e-19)
(0.985371 -0.173641 -3.76283e-20)
(0.985559 -0.173454 1.57005e-19)
(0.985776 -0.173214 8.7803e-19)
(0.986024 -0.172905 2.88605e-19)
(0.98631 -0.172502 1.73018e-19)
(0.986631 -0.171971 2.16701e-18)
(0.986992 -0.171255 -5.62992e-19)
(0.987376 -0.170288 -3.05571e-18)
(0.987766 -0.168959 -7.73374e-19)
(0.988132 -0.167138 -3.21473e-18)
(0.988384 -0.164371 2.79532e-19)
(0.988987 -0.159928 3.85081e-19)
(0.983859 -0.154725 -1.38515e-18)
(1.03801 -0.113013 -2.45805e-19)
(0.984587 -0.175233 -1.17554e-21)
(0.98457 -0.175252 1.11814e-20)
(0.984541 -0.175313 4.53117e-21)
(0.984517 -0.17536 -1.97002e-20)
(0.984499 -0.1754 8.11397e-21)
(0.984485 -0.175437 -5.53506e-20)
(0.984475 -0.175467 5.06602e-20)
(0.984469 -0.175486 2.88259e-20)
(0.984468 -0.17549 -5.36955e-20)
(0.984471 -0.17548 2.53522e-21)
(0.984477 -0.175464 5.10273e-20)
(0.984483 -0.175445 -1.82104e-22)
(0.984489 -0.175429 1.40295e-20)
(0.984494 -0.175415 -1.2157e-19)
(0.984499 -0.175405 2.40939e-19)
(0.984503 -0.175398 -2.11189e-19)
(0.984506 -0.175393 9.7402e-20)
(0.984509 -0.175389 -2.06441e-20)
(0.984511 -0.175386 -5.37128e-20)
(0.984513 -0.175384 1.45382e-19)
(0.984515 -0.175383 -2.2623e-19)
(0.984517 -0.175381 1.29125e-19)
(0.984518 -0.175378 -1.58485e-19)
(0.98452 -0.175373 9.46199e-20)
(0.984523 -0.175367 8.21706e-20)
(0.984526 -0.175359 -5.39159e-20)
(0.98453 -0.175348 2.34678e-21)
(0.984536 -0.175335 5.86999e-20)
(0.984544 -0.175318 4.61019e-20)
(0.984556 -0.175298 -8.07928e-20)
(0.98457 -0.175275 1.63727e-19)
(0.984588 -0.175248 2.5781e-20)
(0.984609 -0.175214 8.64875e-20)
(0.984635 -0.175173 -2.91767e-21)
(0.984668 -0.175127 1.59573e-20)
(0.984708 -0.175078 -2.94923e-20)
(0.984757 -0.175025 -6.02393e-20)
(0.984817 -0.174966 -3.80265e-20)
(0.984889 -0.174901 -1.25568e-19)
(0.984976 -0.174828 -9.57215e-20)
(0.985081 -0.174745 6.68096e-20)
(0.985209 -0.174647 1.9193e-20)
(0.985362 -0.174529 3.68479e-20)
(0.985543 -0.174385 -5.00561e-21)
(0.985755 -0.174207 2.8422e-19)
(0.986001 -0.173985 -1.86024e-19)
(0.986281 -0.17371 -2.29939e-19)
(0.986596 -0.173372 -3.19738e-19)
(0.986949 -0.172953 -9.50436e-20)
(0.987342 -0.172435 -1.84789e-20)
(0.987778 -0.171779 -8.87262e-19)
(0.988255 -0.170943 -2.72804e-18)
(0.988775 -0.169842 2.08089e-18)
(0.989289 -0.168388 5.48106e-18)
(0.989736 -0.166465 1.42795e-18)
(0.990052 -0.16405 1.25801e-18)
(0.989879 -0.160769 2.49066e-18)
(0.989405 -0.156905 1.36303e-18)
(0.988135 -0.157244 -2.06407e-18)
(0.993405 -0.161876 -5.94666e-19)
(0.984518 -0.175372 -5.78702e-21)
(0.984493 -0.175409 -7.74592e-22)
(0.984457 -0.175494 9.29855e-22)
(0.98443 -0.175559 4.04221e-21)
(0.984409 -0.175618 1.12429e-20)
(0.98439 -0.175682 -1.06483e-20)
(0.984371 -0.175751 5.58433e-20)
(0.984357 -0.175816 -2.68514e-20)
(0.984347 -0.175866 -1.42416e-20)
(0.984344 -0.175891 -8.54286e-20)
(0.984346 -0.175895 7.18861e-20)
(0.984352 -0.175883 5.18829e-21)
(0.98436 -0.175867 -1.59439e-20)
(0.984369 -0.175851 4.18914e-20)
(0.984379 -0.17584 -7.1005e-20)
(0.98439 -0.175835 8.29323e-22)
(0.984401 -0.175834 -3.10979e-20)
(0.984414 -0.175837 1.5396e-21)
(0.984427 -0.175842 7.1236e-20)
(0.984442 -0.17585 -1.06049e-19)
(0.984458 -0.175859 6.57809e-20)
(0.984475 -0.175868 2.44364e-19)
(0.984492 -0.175877 -3.74875e-20)
(0.984511 -0.175883 -3.27845e-19)
(0.98453 -0.175888 1.67003e-19)
(0.984551 -0.175889 -8.41359e-20)
(0.984573 -0.175887 1.3598e-19)
(0.984597 -0.175881 -8.44024e-20)
(0.984624 -0.175869 -1.51125e-19)
(0.984653 -0.175853 1.53864e-19)
(0.984686 -0.175833 -1.03125e-19)
(0.984724 -0.175807 1.27891e-19)
(0.984765 -0.175773 -3.31596e-19)
(0.984809 -0.175731 2.70987e-19)
(0.984861 -0.175682 -1.34067e-19)
(0.984921 -0.17563 5.53406e-20)
(0.984992 -0.175576 4.31873e-20)
(0.985073 -0.175515 1.11124e-20)
(0.985167 -0.175446 5.88011e-21)
(0.985276 -0.175366 1.36259e-19)
(0.985404 -0.175273 -2.62917e-20)
(0.985554 -0.175162 2.20257e-20)
(0.985728 -0.175026 -3.42206e-20)
(0.985927 -0.174859 1.88176e-20)
(0.986152 -0.174654 -1.02641e-19)
(0.986401 -0.174404 2.90829e-19)
(0.986672 -0.174103 -7.32426e-20)
(0.986963 -0.173751 5.06284e-19)
(0.987268 -0.17334 -8.61943e-19)
(0.987587 -0.172865 -2.72283e-19)
(0.987917 -0.172297 -1.17181e-19)
(0.988256 -0.171613 1.08156e-19)
(0.988602 -0.17075 -8.01949e-19)
(0.988907 -0.169636 -4.21041e-19)
(0.989108 -0.168192 1.73042e-18)
(0.989189 -0.16646 1.24119e-18)
(0.988758 -0.164172 4.90728e-19)
(0.988195 -0.161505 2.48885e-18)
(0.985684 -0.163895 2.86394e-19)
(1.00143 -0.159236 -2.02547e-19)
(0.984463 -0.175811 -5.8435e-21)
(0.98445 -0.175877 1.77578e-20)
(0.984418 -0.175974 -2.76595e-21)
(0.984391 -0.176042 -1.79455e-20)
(0.984367 -0.176097 2.67348e-20)
(0.984341 -0.176152 4.53036e-20)
(0.984314 -0.176222 -5.90802e-20)
(0.98429 -0.176305 6.27248e-21)
(0.984271 -0.176387 1.96878e-20)
(0.984258 -0.176449 4.02954e-20)
(0.984252 -0.17648 -7.46359e-20)
(0.984251 -0.176484 -2.23619e-20)
(0.984255 -0.176471 -2.44532e-20)
(0.984262 -0.176452 1.12059e-19)
(0.98427 -0.176435 -7.37846e-20)
(0.984279 -0.176424 1.68295e-19)
(0.98429 -0.176419 -2.0235e-19)
(0.984303 -0.176419 -2.77369e-20)
(0.984318 -0.176424 2.04516e-19)
(0.984337 -0.176431 -7.12514e-20)
(0.984358 -0.176441 -2.57985e-20)
(0.984382 -0.176452 -2.61979e-20)
(0.984409 -0.176463 -2.27981e-19)
(0.984438 -0.176473 1.34721e-19)
(0.98447 -0.176482 -5.35755e-20)
(0.984504 -0.176488 9.06559e-20)
(0.98454 -0.176491 4.07915e-20)
(0.984579 -0.17649 1.85734e-19)
(0.984621 -0.176485 -1.17973e-19)
(0.984666 -0.176475 -1.40538e-19)
(0.984714 -0.17646 2.09832e-19)
(0.984767 -0.176439 -1.68573e-19)
(0.984824 -0.176411 2.85837e-19)
(0.984884 -0.176373 -1.55294e-19)
(0.98495 -0.176328 7.6695e-20)
(0.985027 -0.176281 1.09796e-19)
(0.985114 -0.176229 -3.91443e-20)
(0.985214 -0.17617 2.73621e-20)
(0.985328 -0.1761 -3.12301e-20)
(0.985458 -0.176017 4.57866e-20)
(0.985609 -0.175917 -1.03613e-19)
(0.985783 -0.175793 1.64002e-20)
(0.985984 -0.175638 1.59607e-20)
(0.986214 -0.175445 2.65782e-20)
(0.986471 -0.175206 -7.94222e-20)
(0.986756 -0.174915 -8.51506e-20)
(0.987064 -0.174567 -2.29643e-19)
(0.98739 -0.174162 -3.52286e-19)
(0.987727 -0.173695 -4.72598e-19)
(0.988072 -0.173166 4.19803e-19)
(0.988414 -0.172547 7.10343e-19)
(0.988751 -0.171822 -4.9001e-19)
(0.989077 -0.170933 -7.35842e-19)
(0.989348 -0.169803 -2.06978e-18)
(0.989505 -0.168343 -1.43619e-18)
(0.989584 -0.166555 -2.30702e-18)
(0.98926 -0.16411 -4.29467e-18)
(0.988846 -0.160858 1.89688e-19)
(0.988448 -0.160606 2.57326e-18)
(0.995816 -0.158104 1.14895e-18)
(0.984576 -0.176271 1.14193e-20)
(0.984556 -0.176346 -3.85049e-21)
(0.984497 -0.176453 6.21261e-21)
(0.984441 -0.176537 -8.8361e-21)
(0.984389 -0.176597 1.93584e-20)
(0.984337 -0.176644 -9.65762e-21)
(0.984286 -0.176704 4.91625e-21)
(0.984241 -0.176789 -7.39555e-20)
(0.984203 -0.176891 6.14177e-20)
(0.984174 -0.176986 -1.19803e-19)
(0.984155 -0.177054 1.30939e-19)
(0.984147 -0.177088 -1.57307e-20)
(0.984147 -0.177095 -3.36668e-20)
(0.984153 -0.177088 -1.47864e-20)
(0.984163 -0.177077 -2.85585e-21)
(0.984176 -0.177072 -1.47573e-19)
(0.984191 -0.177075 9.25897e-21)
(0.984209 -0.177084 1.5764e-19)
(0.984229 -0.177099 -4.93178e-20)
(0.984253 -0.177116 -4.98681e-20)
(0.984281 -0.177135 8.54092e-20)
(0.984312 -0.177155 -3.97931e-20)
(0.984347 -0.177173 1.67069e-19)
(0.984386 -0.17719 8.54122e-20)
(0.984428 -0.177204 6.00518e-20)
(0.984474 -0.177216 -2.03075e-19)
(0.984523 -0.177223 -2.76453e-20)
(0.984575 -0.177226 -1.44991e-19)
(0.984631 -0.177225 2.85316e-20)
(0.98469 -0.177218 -4.10147e-20)
(0.984753 -0.177206 -1.60173e-20)
(0.984821 -0.177188 1.19491e-19)
(0.984892 -0.17716 -3.01233e-19)
(0.984968 -0.177122 -1.67511e-20)
(0.985049 -0.177077 -1.29919e-19)
(0.98514 -0.177028 -5.82223e-20)
(0.985243 -0.176974 -2.92076e-21)
(0.98536 -0.176911 -1.54414e-19)
(0.985493 -0.176835 2.00545e-19)
(0.985644 -0.176743 4.82745e-20)
(0.985819 -0.176631 1.61311e-19)
(0.986021 -0.176492 -8.85767e-20)
(0.986256 -0.176316 -5.2503e-20)
(0.986526 -0.176096 1.89094e-20)
(0.986835 -0.175821 -2.90021e-20)
(0.987184 -0.175483 -1.14502e-19)
(0.98757 -0.175072 7.76143e-21)
(0.987992 -0.174583 -4.44515e-20)
(0.988439 -0.174007 2.37047e-19)
(0.988907 -0.173335 -1.04342e-18)
(0.98938 -0.172535 -3.04785e-19)
(0.989847 -0.171585 3.81054e-19)
(0.990291 -0.170427 -5.10836e-20)
(0.990659 -0.16898 -1.54141e-18)
(0.990871 -0.167164 3.72264e-20)
(0.990969 -0.164986 1.84968e-18)
(0.990648 -0.162188 4.04263e-18)
(0.989998 -0.158764 -3.78407e-18)
(0.989583 -0.159784 1.72921e-18)
(0.993735 -0.162184 -9.66872e-19)
(0.984784 -0.176746 -4.38853e-21)
(0.984712 -0.176826 1.7574e-20)
(0.984594 -0.17695 -2.86979e-20)
(0.984492 -0.177063 2.12511e-20)
(0.984406 -0.177148 1.35589e-20)
(0.984324 -0.177205 -1.43718e-20)
(0.984245 -0.177261 1.14689e-21)
(0.984173 -0.177345 -1.04877e-20)
(0.984112 -0.177456 -3.45938e-20)
(0.984062 -0.177573 6.59233e-20)
(0.984026 -0.177671 -1.00417e-19)
(0.984003 -0.177732 8.71048e-20)
(0.983993 -0.177758 7.48724e-20)
(0.983996 -0.177761 -1.15354e-19)
(0.984009 -0.177754 -3.63926e-20)
(0.98403 -0.177751 1.3645e-19)
(0.984057 -0.177756 -1.62303e-19)
(0.98409 -0.177771 2.19861e-19)
(0.984127 -0.177794 -4.30797e-20)
(0.984168 -0.177822 2.10087e-20)
(0.984214 -0.177852 -3.81663e-20)
(0.984263 -0.177882 -4.57368e-20)
(0.984317 -0.177911 -7.95356e-20)
(0.984375 -0.177937 1.3443e-19)
(0.984436 -0.17796 -9.18039e-20)
(0.984501 -0.177978 -8.40081e-20)
(0.98457 -0.177991 1.70354e-19)
(0.984643 -0.177999 -1.55444e-19)
(0.984719 -0.178 2.37264e-19)
(0.984799 -0.177995 -1.26914e-19)
(0.984883 -0.177984 8.45833e-20)
(0.984972 -0.177964 -1.42685e-19)
(0.985064 -0.177934 1.37857e-19)
(0.985159 -0.177891 -2.09747e-20)
(0.98526 -0.177841 -9.40673e-21)
(0.98537 -0.177786 -7.4691e-21)
(0.985492 -0.177724 -6.6333e-20)
(0.985627 -0.177652 1.36796e-19)
(0.985777 -0.177566 -9.25619e-20)
(0.985945 -0.177464 -4.67907e-19)
(0.986136 -0.177341 -1.63232e-19)
(0.986356 -0.17719 7.74315e-20)
(0.98661 -0.177004 -1.00524e-19)
(0.986903 -0.176771 -2.97045e-20)
(0.98724 -0.176483 -3.94251e-22)
(0.987625 -0.176126 -1.99672e-20)
(0.988059 -0.175688 1.58938e-19)
(0.988542 -0.175159 3.01229e-19)
(0.989064 -0.174522 3.62436e-19)
(0.989622 -0.173761 6.49076e-19)
(0.99019 -0.172841 -3.8703e-19)
(0.99075 -0.171734 2.61782e-19)
(0.991271 -0.170394 2.18482e-18)
(0.991681 -0.168752 -2.96048e-19)
(0.991873 -0.166771 -8.53891e-19)
(0.991874 -0.164529 1.34459e-18)
(0.991383 -0.161934 -1.42404e-18)
(0.990313 -0.159247 -4.11921e-19)
(0.989557 -0.162666 -2.88639e-18)
(0.992698 -0.166067 2.27836e-19)
(0.984843 -0.177466 5.24905e-21)
(0.984699 -0.177559 -2.34852e-20)
(0.984532 -0.177698 1.14193e-20)
(0.984409 -0.177841 2.09769e-20)
(0.984315 -0.177958 -4.45778e-20)
(0.984229 -0.178037 3.7093e-20)
(0.984145 -0.178102 -2.44249e-20)
(0.984068 -0.178187 2.05208e-20)
(0.984001 -0.178303 3.21313e-20)
(0.983943 -0.178433 -7.65427e-20)
(0.983895 -0.17855 1.08915e-19)
(0.983859 -0.17863 4.46345e-20)
(0.983836 -0.178667 -1.79358e-19)
(0.983828 -0.17867 -3.23008e-20)
(0.983834 -0.178654 9.28451e-20)
(0.983853 -0.178635 5.80833e-20)
(0.983885 -0.178623 -7.02756e-20)
(0.983928 -0.178621 5.96561e-20)
(0.98398 -0.178631 8.99144e-20)
(0.98404 -0.17865 -4.5285e-20)
(0.984108 -0.178674 -2.52941e-20)
(0.984183 -0.1787 8.42925e-20)
(0.984262 -0.178727 1.66823e-19)
(0.984347 -0.178752 -1.24997e-19)
(0.984436 -0.178774 -1.29757e-19)
(0.984529 -0.178792 1.37937e-19)
(0.984627 -0.178804 -1.05816e-19)
(0.984728 -0.17881 -3.75912e-20)
(0.984832 -0.178809 3.22853e-19)
(0.984941 -0.178801 -1.38619e-19)
(0.985054 -0.178785 -9.29349e-20)
(0.985171 -0.17876 1.26491e-19)
(0.985291 -0.178722 8.08321e-20)
(0.985415 -0.178672 -7.3109e-20)
(0.985543 -0.178612 -4.46902e-20)
(0.985679 -0.178546 1.25492e-19)
(0.985824 -0.178472 1.42393e-20)
(0.985981 -0.178388 4.13987e-20)
(0.98615 -0.178289 -1.73463e-19)
(0.986333 -0.178175 -1.61955e-19)
(0.986537 -0.178043 2.49678e-19)
(0.986764 -0.177886 1.56758e-19)
(0.98702 -0.177698 1.83298e-19)
(0.987311 -0.17747 -1.75087e-19)
(0.987643 -0.177191 -1.445e-19)
(0.988022 -0.17685 2.22436e-21)
(0.988449 -0.176433 -5.7767e-20)
(0.988927 -0.175926 -1.01245e-19)
(0.989448 -0.175309 2.53654e-19)
(0.990007 -0.174562 3.52058e-19)
(0.990577 -0.173648 3.09716e-19)
(0.991134 -0.172542 -8.28209e-20)
(0.991636 -0.171207 -1.26287e-19)
(0.991999 -0.169599 8.22775e-19)
(0.992103 -0.167722 -5.92473e-19)
(0.991973 -0.165716 -5.35803e-19)
(0.991341 -0.163594 -8.21491e-19)
(0.990034 -0.161706 1.45361e-18)
(0.989242 -0.16622 2.7778e-19)
(0.992908 -0.168847 1.83233e-19)
(0.9846 -0.178581 -8.99609e-21)
(0.984412 -0.178685 -7.099e-21)
(0.984243 -0.178823 9.66665e-21)
(0.984142 -0.17898 3.37243e-20)
(0.984079 -0.17912 -7.20659e-20)
(0.984025 -0.179219 8.17725e-20)
(0.983972 -0.179296 -3.81551e-21)
(0.983922 -0.179384 -5.17093e-21)
(0.983876 -0.179503 -2.83433e-20)
(0.983836 -0.179642 6.75542e-20)
(0.9838 -0.179773 -1.03155e-19)
(0.983768 -0.17987 3.84802e-20)
(0.983742 -0.179918 -1.22601e-21)
(0.983724 -0.179921 5.80215e-20)
(0.983717 -0.179893 2.67026e-20)
(0.983723 -0.179851 -1.43388e-19)
(0.983744 -0.179809 1.22836e-19)
(0.983781 -0.179774 4.66067e-20)
(0.983832 -0.17975 -1.33134e-19)
(0.983897 -0.179736 6.48766e-20)
(0.983975 -0.179731 2.83932e-20)
(0.984064 -0.179731 -1.99158e-20)
(0.984162 -0.179735 2.15047e-20)
(0.984268 -0.179739 -1.40187e-20)
(0.984382 -0.179743 -1.47857e-19)
(0.984501 -0.179744 9.28426e-20)
(0.984626 -0.179741 -1.35944e-19)
(0.984756 -0.179734 2.47264e-19)
(0.984891 -0.179721 -4.67076e-20)
(0.98503 -0.179701 -2.77533e-20)
(0.985173 -0.179673 -8.59063e-21)
(0.985321 -0.179636 2.08991e-19)
(0.985473 -0.179585 -9.06952e-20)
(0.985628 -0.179521 -5.82279e-20)
(0.985788 -0.179447 1.14894e-19)
(0.985954 -0.179366 9.00396e-20)
(0.986128 -0.179278 -1.4549e-19)
(0.986311 -0.179178 2.64978e-20)
(0.986502 -0.179065 2.19521e-19)
(0.986705 -0.178938 -4.74282e-20)
(0.986922 -0.178795 1.29875e-19)
(0.987156 -0.178633 -1.39173e-19)
(0.987412 -0.178445 2.17214e-19)
(0.987693 -0.178227 3.09871e-19)
(0.988007 -0.177968 6.95684e-21)
(0.988358 -0.177659 -8.39055e-20)
(0.98875 -0.177286 -1.3655e-19)
(0.989186 -0.176834 1.21781e-19)
(0.98966 -0.176281 -7.87895e-20)
(0.990169 -0.175608 -4.03899e-19)
(0.990683 -0.174775 1.98399e-19)
(0.991181 -0.17376 3.36801e-19)
(0.991618 -0.172534 -3.46093e-19)
(0.991909 -0.171063 2.65223e-19)
(0.991934 -0.169375 -2.54895e-19)
(0.991736 -0.167626 -2.01009e-19)
(0.991101 -0.165839 -3.88459e-19)
(0.9898 -0.164309 -3.49429e-19)
(0.989184 -0.16888 2.85336e-19)
(0.993792 -0.170364 2.77695e-19)
(0.984101 -0.180066 -4.446e-21)
(0.983926 -0.180168 3.80537e-21)
(0.983802 -0.180287 1.88987e-20)
(0.983756 -0.180437 2.95761e-20)
(0.983751 -0.180581 -8.70563e-20)
(0.983753 -0.180688 4.96872e-20)
(0.983752 -0.180769 -8.77619e-20)
(0.983748 -0.180856 1.36192e-19)
(0.983746 -0.180973 -6.32319e-20)
(0.983745 -0.181116 1.09833e-20)
(0.983744 -0.181258 1.18098e-19)
(0.98374 -0.18137 -2.664e-19)
(0.983732 -0.181433 1.79429e-19)
(0.983721 -0.181446 2.42068e-20)
(0.983712 -0.181416 3.88912e-20)
(0.983707 -0.181361 -1.63619e-19)
(0.983712 -0.181295 7.91532e-20)
(0.983731 -0.181228 -9.59347e-20)
(0.983765 -0.181166 1.859e-19)
(0.983815 -0.181112 -2.71374e-20)
(0.983883 -0.181066 -2.27064e-19)
(0.983966 -0.181026 8.76382e-20)
(0.984064 -0.180991 -5.57793e-21)
(0.984175 -0.180959 -3.02231e-19)
(0.984297 -0.180929 2.27709e-19)
(0.98443 -0.180899 1.63669e-19)
(0.98457 -0.180867 1.05666e-19)
(0.984719 -0.180834 -1.3295e-19)
(0.984874 -0.180796 -1.35315e-19)
(0.985036 -0.180754 6.1025e-20)
(0.985204 -0.180706 9.15992e-20)
(0.985377 -0.180649 -1.00743e-19)
(0.985556 -0.180581 -1.41731e-19)
(0.985739 -0.180498 2.94172e-19)
(0.985928 -0.180406 2.10355e-20)
(0.986124 -0.180308 -3.77691e-19)
(0.986327 -0.180202 2.59254e-20)
(0.986538 -0.180085 2.25784e-19)
(0.986756 -0.179956 3.10232e-20)
(0.986982 -0.179813 2.42345e-19)
(0.987219 -0.179658 -2.77019e-19)
(0.987468 -0.179487 -2.09803e-20)
(0.987731 -0.179298 -1.26915e-19)
(0.988013 -0.179084 9.77675e-20)
(0.988318 -0.178841 1.51456e-19)
(0.98865 -0.178558 4.88038e-19)
(0.989013 -0.178224 -4.40306e-20)
(0.989411 -0.177823 -1.12508e-19)
(0.989839 -0.177333 1.25676e-19)
(0.990296 -0.176733 1.28104e-19)
(0.990754 -0.175984 -2.08602e-20)
(0.991196 -0.175059 -6.68874e-20)
(0.991579 -0.173935 1.688e-19)
(0.991823 -0.172576 -1.6721e-19)
(0.991822 -0.171011 4.26626e-19)
(0.991639 -0.169384 -1.13161e-20)
(0.99111 -0.167684 1.05262e-19)
(0.98993 -0.166141 -1.3009e-19)
(0.989515 -0.170406 7.90146e-19)
(0.994941 -0.171049 2.3758e-19)
(0.983511 -0.181783 6.29339e-21)
(0.983396 -0.181871 2.17707e-21)
(0.983341 -0.18196 -2.25084e-20)
(0.98336 -0.182088 2.12959e-20)
(0.983416 -0.18222 -9.36404e-21)
(0.983477 -0.182322 1.6539e-20)
(0.98353 -0.182397 5.55714e-21)
(0.983578 -0.182477 -8.11015e-20)
(0.983624 -0.182587 3.51317e-20)
(0.98367 -0.182727 -2.32579e-20)
(0.983714 -0.182874 1.43255e-20)
(0.983753 -0.182998 5.38577e-20)
(0.983782 -0.183079 -1.02139e-20)
(0.983801 -0.183108 3.18268e-20)
(0.983809 -0.183091 -1.33341e-19)
(0.983811 -0.183038 5.12619e-20)
(0.983811 -0.182965 2.17443e-20)
(0.983816 -0.182881 -5.88404e-20)
(0.98383 -0.182794 1.14739e-19)
(0.983858 -0.18271 3.58778e-20)
(0.983902 -0.182628 -5.08501e-21)
(0.983963 -0.182549 -4.00888e-20)
(0.984042 -0.182474 1.50056e-19)
(0.984138 -0.182401 -4.02182e-19)
(0.98425 -0.18233 2.09712e-19)
(0.984376 -0.182262 8.54885e-20)
(0.984515 -0.182194 -1.33695e-19)
(0.984665 -0.182126 2.30276e-19)
(0.984826 -0.182056 -1.12279e-19)
(0.984997 -0.181985 -5.37121e-20)
(0.985177 -0.181909 -9.25565e-20)
(0.985365 -0.181828 -3.81857e-20)
(0.98556 -0.181736 1.03741e-19)
(0.985763 -0.181632 -2.8941e-19)
(0.985974 -0.18152 5.33162e-19)
(0.986193 -0.181402 -4.42586e-20)
(0.986422 -0.181277 2.29207e-19)
(0.986659 -0.181143 -5.78127e-19)
(0.986904 -0.180995 -1.53323e-19)
(0.987157 -0.180837 2.88102e-20)
(0.98742 -0.180667 -1.23291e-19)
(0.987693 -0.180484 -2.15566e-20)
(0.987978 -0.180285 -3.44933e-19)
(0.988276 -0.180068 1.74389e-19)
(0.988592 -0.179827 1.46537e-19)
(0.988928 -0.179554 -5.14263e-19)
(0.989288 -0.179237 6.66974e-19)
(0.989676 -0.178861 7.51338e-20)
(0.990087 -0.178403 1.31717e-19)
(0.990522 -0.17784 -3.24059e-19)
(0.990956 -0.177131 -2.24922e-20)
(0.991375 -0.176247 -3.46674e-20)
(0.991743 -0.175162 4.30469e-19)
(0.991986 -0.173832 -1.55281e-19)
(0.992008 -0.17228 -7.56894e-19)
(0.991894 -0.17063 2.09419e-19)
(0.991505 -0.168843 -8.23012e-19)
(0.990447 -0.167133 -2.8512e-19)
(0.990161 -0.171115 -2.40062e-18)
(0.996114 -0.171306 -1.87029e-19)
(0.982988 -0.183573 -1.41851e-21)
(0.982952 -0.183639 -5.52879e-21)
(0.982961 -0.183697 -4.76486e-21)
(0.983035 -0.183796 4.57669e-20)
(0.98314 -0.183907 -2.52633e-20)
(0.983246 -0.183995 -2.99733e-20)
(0.983342 -0.18406 -1.10407e-20)
(0.983432 -0.184129 -4.51096e-20)
(0.983518 -0.184228 2.83894e-20)
(0.983606 -0.184359 4.27468e-21)
(0.983692 -0.184504 1.70521e-21)
(0.983776 -0.184635 1.15355e-19)
(0.983851 -0.18473 -8.10411e-20)
(0.983912 -0.184778 -9.67718e-21)
(0.983958 -0.18478 9.00637e-20)
(0.983987 -0.184744 -4.93891e-20)
(0.984003 -0.184681 -1.87204e-20)
(0.984012 -0.1846 2.95814e-20)
(0.98402 -0.184508 9.33418e-20)
(0.984032 -0.184412 4.90117e-20)
(0.984054 -0.184311 1.56186e-20)
(0.98409 -0.184207 -1.24101e-19)
(0.984142 -0.184104 6.07147e-20)
(0.984212 -0.183998 1.10422e-19)
(0.9843 -0.183893 -2.31948e-19)
(0.984405 -0.183789 7.09155e-20)
(0.984527 -0.183685 -2.7767e-19)
(0.984664 -0.183583 2.21152e-19)
(0.984815 -0.183479 1.82578e-19)
(0.98498 -0.183377 -2.76731e-19)
(0.985157 -0.183272 -1.32136e-19)
(0.985347 -0.183164 1.63266e-19)
(0.985547 -0.183047 5.42196e-20)
(0.985759 -0.18292 -1.28416e-19)
(0.985981 -0.182786 -1.66785e-19)
(0.986217 -0.182648 -1.87277e-19)
(0.986464 -0.182504 1.1823e-19)
(0.986722 -0.182352 2.54714e-19)
(0.986992 -0.182187 9.13866e-20)
(0.987273 -0.182011 -5.06428e-20)
(0.987565 -0.181824 6.85971e-19)
(0.987869 -0.181625 -1.04687e-19)
(0.988186 -0.181411 5.88014e-19)
(0.988517 -0.181181 -9.89088e-19)
(0.988863 -0.180927 2.14262e-19)
(0.989229 -0.180644 7.45392e-21)
(0.989615 -0.180319 7.84724e-20)
(0.990025 -0.179936 -6.04067e-19)
(0.990455 -0.179471 -8.01635e-19)
(0.990905 -0.178898 6.95345e-19)
(0.991353 -0.178175 8.62587e-19)
(0.991789 -0.177269 4.87599e-19)
(0.992179 -0.176151 -6.0388e-19)
(0.992456 -0.174769 3.45355e-19)
(0.992533 -0.17314 7.09874e-19)
(0.992503 -0.171375 6.14526e-19)
(0.992239 -0.169428 8.08656e-19)
(0.991253 -0.167547 5.65131e-19)
(0.991023 -0.17137 2.91569e-18)
(0.997221 -0.171387 -1.13426e-18)
(0.982613 -0.185306 1.85926e-21)
(0.982647 -0.185351 -5.5391e-21)
(0.9827 -0.185383 1.96568e-20)
(0.982808 -0.185455 5.05147e-21)
(0.982943 -0.185544 -2.66014e-20)
(0.983076 -0.185617 -3.02723e-20)
(0.983199 -0.185669 7.11611e-20)
(0.983315 -0.185726 -7.68427e-20)
(0.98343 -0.185813 -1.83691e-20)
(0.983547 -0.185935 4.65686e-20)
(0.983667 -0.186075 4.22992e-20)
(0.983787 -0.186208 1.26481e-19)
(0.983903 -0.186312 -7.1328e-20)
(0.984009 -0.186375 -1.19666e-19)
(0.984099 -0.186397 2.61852e-20)
(0.984171 -0.186382 -9.44513e-20)
(0.984222 -0.18634 7.10522e-20)
(0.984257 -0.186276 -1.15839e-19)
(0.98428 -0.186198 2.00658e-20)
(0.984296 -0.186108 -3.54831e-20)
(0.984311 -0.186008 -2.0854e-20)
(0.984332 -0.185899 -9.45759e-20)
(0.984363 -0.185785 1.20358e-20)
(0.984409 -0.185663 2.03805e-19)
(0.98447 -0.185538 -6.83532e-20)
(0.984548 -0.185409 2.17427e-20)
(0.984645 -0.185279 6.07875e-20)
(0.984759 -0.185149 -7.28802e-20)
(0.98489 -0.185018 -1.53328e-20)
(0.985039 -0.184888 9.73107e-20)
(0.985203 -0.184756 1.02557e-19)
(0.985384 -0.184623 -7.18195e-20)
(0.98558 -0.184483 -2.3193e-19)
(0.98579 -0.184334 -3.24508e-19)
(0.986015 -0.18418 4.67265e-19)
(0.986258 -0.184022 1.30645e-19)
(0.986517 -0.183861 8.85083e-20)
(0.986792 -0.183691 3.78617e-19)
(0.987082 -0.183509 -3.04663e-19)
(0.987388 -0.183316 1.90045e-19)
(0.98771 -0.183112 3.20633e-20)
(0.988049 -0.182894 -1.83563e-20)
(0.988405 -0.18266 -2.23635e-19)
(0.988778 -0.182407 5.17647e-19)
(0.98917 -0.182129 -6.67292e-19)
(0.989582 -0.181819 3.77258e-19)
(0.990016 -0.181462 -9.42087e-19)
(0.990474 -0.181043 1.42548e-19)
(0.990951 -0.180536 4.60876e-19)
(0.991448 -0.179913 -7.94723e-19)
(0.991941 -0.17913 -3.58124e-20)
(0.992423 -0.178151 9.1174e-20)
(0.992863 -0.176944 -2.45851e-19)
(0.993195 -0.175454 -5.51914e-19)
(0.993335 -0.173693 1.49342e-20)
(0.993383 -0.171775 7.6565e-19)
(0.993207 -0.16966 -7.30844e-19)
(0.992239 -0.167654 -2.21711e-19)
(0.992003 -0.17144 -2.62907e-19)
(0.998233 -0.171438 9.37146e-19)
(0.982395 -0.186903 3.51237e-21)
(0.982475 -0.186933 -2.952e-21)
(0.982547 -0.186948 2.68151e-21)
(0.982667 -0.187 1.70474e-20)
(0.982814 -0.187072 2.45266e-20)
(0.982958 -0.187131 -9.52e-20)
(0.983093 -0.187172 6.82906e-20)
(0.983223 -0.187219 1.39652e-20)
(0.983353 -0.187297 -4.36623e-21)
(0.983488 -0.187409 -2.98871e-20)
(0.983628 -0.187543 8.98577e-20)
(0.983774 -0.187673 -2.94067e-20)
(0.983921 -0.187781 -3.97657e-20)
(0.984064 -0.187854 -1.16291e-19)
(0.984197 -0.187891 2.29879e-19)
(0.984314 -0.187897 -4.78148e-20)
(0.98441 -0.187878 -3.92201e-20)
(0.984487 -0.187839 -1.13475e-19)
(0.984543 -0.187784 1.23982e-19)
(0.984583 -0.187715 6.67949e-20)
(0.984613 -0.187633 -3.15797e-20)
(0.984639 -0.187537 4.99715e-20)
(0.984664 -0.18743 -2.13754e-19)
(0.984697 -0.187311 1.64729e-20)
(0.98474 -0.187182 1.14027e-19)
(0.984797 -0.187046 -2.05847e-20)
(0.98487 -0.186905 -3.30665e-19)
(0.984961 -0.18676 3.39049e-20)
(0.985071 -0.186611 2.82115e-19)
(0.985198 -0.186463 -7.48168e-20)
(0.985345 -0.186312 -1.36502e-19)
(0.985511 -0.18616 8.13057e-20)
(0.985696 -0.186001 2.19388e-19)
(0.985899 -0.185834 4.93892e-19)
(0.986121 -0.185664 -7.20532e-20)
(0.986365 -0.185489 9.94097e-20)
(0.98663 -0.185312 -6.93504e-19)
(0.986917 -0.185127 -1.69148e-19)
(0.987224 -0.184929 1.08864e-19)
(0.987553 -0.184719 -4.4999e-19)
(0.987903 -0.184497 -7.16793e-20)
(0.988277 -0.184258 1.82874e-19)
(0.988674 -0.184 1.84199e-19)
(0.989094 -0.183718 4.0142e-19)
(0.989538 -0.183408 1.14835e-18)
(0.990008 -0.183057 -8.42373e-19)
(0.990503 -0.182654 1.28333e-18)
(0.991024 -0.182178 8.6827e-19)
(0.991565 -0.181604 -1.73223e-20)
(0.992126 -0.180902 1.03051e-18)
(0.992684 -0.180027 -1.2455e-18)
(0.993229 -0.17894 -1.42544e-18)
(0.993732 -0.17761 1.06026e-18)
(0.994125 -0.175982 8.95647e-19)
(0.994327 -0.174068 -4.12987e-19)
(0.994434 -0.171992 -2.20491e-18)
(0.994311 -0.169732 5.44032e-19)
(0.993319 -0.16765 -7.95581e-19)
(0.993044 -0.171478 -1.82633e-18)
(0.999166 -0.171512 9.96405e-19)
(0.982296 -0.188333 -3.8387e-21)
(0.982396 -0.188354 4.18193e-21)
(0.982468 -0.18836 2.82592e-20)
(0.982587 -0.188399 -3.66738e-20)
(0.982733 -0.188458 6.59902e-20)
(0.982877 -0.188508 -9.62091e-20)
(0.983013 -0.188543 2.70607e-20)
(0.983146 -0.188584 -1.22016e-21)
(0.983282 -0.188655 5.84782e-20)
(0.983425 -0.188762 -3.066e-20)
(0.983577 -0.18889 8.84073e-21)
(0.983737 -0.189017 8.83653e-21)
(0.983904 -0.189125 -1.38463e-19)
(0.984072 -0.189204 4.1565e-20)
(0.984238 -0.189251 9.35537e-20)
(0.984393 -0.189272 2.55535e-21)
(0.984534 -0.189273 -1.51306e-19)
(0.984656 -0.189258 6.1706e-20)
(0.984757 -0.189228 2.78665e-19)
(0.984837 -0.189187 -1.8123e-19)
(0.984899 -0.189131 -1.33859e-19)
(0.984948 -0.189061 1.11631e-19)
(0.984988 -0.188976 6.96926e-20)
(0.985026 -0.188874 7.47718e-20)
(0.985066 -0.18876 -1.45305e-19)
(0.985115 -0.188633 -3.01771e-19)
(0.985175 -0.188495 2.28006e-19)
(0.985249 -0.18835 3.09217e-19)
(0.985341 -0.188198 8.0097e-20)
(0.985452 -0.188043 -1.66672e-19)
(0.985582 -0.187884 7.12387e-20)
(0.985733 -0.187722 1.18974e-19)
(0.985906 -0.187552 -1.99838e-19)
(0.9861 -0.187374 -3.12546e-20)
(0.986318 -0.187192 -3.29134e-19)
(0.986561 -0.187006 -7.51075e-20)
(0.986829 -0.186817 -7.94514e-20)
(0.987124 -0.186618 1.98384e-19)
(0.987446 -0.186406 -2.81406e-19)
(0.987795 -0.186181 6.66324e-20)
(0.988172 -0.185941 1.27644e-19)
(0.988579 -0.185681 3.39734e-20)
(0.989016 -0.185397 -6.33019e-19)
(0.989484 -0.185084 -8.41262e-19)
(0.989982 -0.184735 -6.53343e-19)
(0.990512 -0.184337 1.30488e-18)
(0.991072 -0.183876 1.21152e-19)
(0.991663 -0.183332 -4.43723e-19)
(0.992275 -0.182675 2.32678e-19)
(0.992909 -0.181877 -1.32109e-18)
(0.993538 -0.180892 5.87207e-19)
(0.994152 -0.179681 1.57091e-18)
(0.99472 -0.178214 -3.44804e-20)
(0.995173 -0.176436 -1.28511e-18)
(0.995427 -0.174369 5.86815e-19)
(0.995577 -0.172146 5.75181e-19)
(0.995479 -0.169767 8.53861e-19)
(0.994437 -0.167641 2.35411e-18)
(0.9941 -0.171561 3.84173e-18)
(1.00003 -0.171634 -2.32187e-18)
(0.982268 -0.189595 -3.30017e-21)
(0.982367 -0.189612 4.73701e-21)
(0.982428 -0.189616 9.77186e-22)
(0.982538 -0.189647 1.77165e-20)
(0.982676 -0.189697 -2.67e-20)
(0.982814 -0.189741 -5.40628e-20)
(0.982945 -0.189773 1.93626e-20)
(0.983076 -0.18981 -2.50159e-20)
(0.983211 -0.189878 5.44227e-20)
(0.983356 -0.189981 -1.07182e-20)
(0.983512 -0.190106 -3.47553e-20)
(0.983679 -0.19023 2.87401e-20)
(0.983855 -0.190338 4.55321e-20)
(0.984038 -0.190418 1.23294e-19)
(0.984224 -0.190472 -2.22029e-19)
(0.984408 -0.190503 1.11619e-19)
(0.984583 -0.190519 1.61128e-20)
(0.984746 -0.190523 -1.06533e-19)
(0.984892 -0.190518 -6.45837e-20)
(0.985017 -0.190504 2.10025e-19)
(0.985123 -0.190478 -2.15718e-19)
(0.985209 -0.190438 6.47182e-20)
(0.98528 -0.190384 -1.64772e-19)
(0.985341 -0.190311 2.7427e-19)
(0.985397 -0.190222 -5.49122e-20)
(0.985452 -0.190117 -1.46622e-19)
(0.985514 -0.189998 1.19028e-19)
(0.985585 -0.189868 2.12686e-19)
(0.98567 -0.189726 -1.9359e-19)
(0.985771 -0.189578 1.14691e-19)
(0.985891 -0.189422 -3.76345e-19)
(0.986033 -0.18926 -3.50724e-20)
(0.986197 -0.18909 1.52168e-19)
(0.986385 -0.188908 -8.95268e-20)
(0.986599 -0.188722 -1.77646e-19)
(0.986841 -0.188529 -3.94602e-19)
(0.987114 -0.188333 4.912e-19)
(0.987417 -0.188126 -2.00921e-19)
(0.987752 -0.187903 1.38717e-19)
(0.98812 -0.187664 2.89437e-19)
(0.988523 -0.187408 2.34968e-19)
(0.988962 -0.187127 -1.18069e-19)
(0.989437 -0.186817 3.96614e-19)