/*--------------------------------*- C++ -*----------------------------------*\
  =========                 |
  \\      /  F ield         | OpenFOAM: The Open Source CFD Toolbox
   \\    /   O peration     | Website:  https://openfoam.org
    \\  /    A nd           | Version:  6.0
     \\/     M anipulation  |
\*---------------------------------------------------------------------------*/
FoamFile
{
    version     2.0;
    format      ascii;
    class       volScalarField;
    location    "1";
    object      p;
}
// * * * * * * * * * * * * * * * * * * * * * * * * * * * * * * * * * * * * * //

dimensions      [0 2 -2 0 0 0 0];

internalField   nonuniform List<scalar> 
62000
(
0.100054
0.099228
0.0983785
0.0975039
0.0966019
0.09567
0.0947054
0.0937053
0.0926664
0.0915855
0.0904587
0.0892823
0.0880519
0.0867632
0.0854112
0.0839909
0.0824969
0.0809236
0.079265
0.0775151
0.0756674
0.073716
0.0716542
0.0694763
0.0671763
0.0647493
0.0621911
0.0594989
0.0566713
0.0537092
0.0506161
0.0473984
0.0440668
0.0406356
0.0371241
0.0335566
0.0299621
0.0263749
0.0228333
0.0193788
0.0160542
0.0129017
0.00996066
0.00726494
0.00484089
0.00270556
0.000865823
-0.000681652
-0.001949
-0.00295587
-0.00372606
-0.00428665
-0.00466178
-0.004879
-0.00495908
-0.00492193
-0.00478217
-0.00455048
-0.00423543
-0.00403115
0.101648
0.100836
0.100003
0.099144
0.0982585
0.0973437
0.0963968
0.0954152
0.0943956
0.093335
0.0922296
0.0910757
0.0898693
0.088606
0.087281
0.0858894
0.084426
0.0828851
0.0812609
0.0795472
0.0777379
0.0758265
0.0738065
0.0716718
0.069416
0.0670337
0.0645201
0.0618712
0.0590847
0.0561601
0.053099
0.0499062
0.0465895
0.0431609
0.0396366
0.0360376
0.0323895
0.0287233
0.025074
0.0214801
0.0179821
0.0146208
0.0114349
0.00845892
0.00572094
0.00324089
0.00102938
-0.000912539
-0.00259224
-0.0040245
-0.00522796
-0.00622459
-0.00703152
-0.0076701
-0.00815204
-0.00848618
-0.00867202
-0.00870065
-0.00855626
-0.00860233
0.103324
0.102528
0.101709
0.100866
0.0999966
0.0990982
0.0981683
0.0972042
0.0962028
0.095161
0.0940752
0.0929417
0.0917565
0.0905154
0.0892138
0.0878468
0.086409
0.0848952
0.0832995
0.0816157
0.0798377
0.0779589
0.0759728
0.0738728
0.0716526
0.069306
0.0668276
0.0642127
0.0614581
0.0585618
0.0555242
0.0523478
0.0490386
0.0456062
0.0420636
0.0384291
0.034725
0.030979
0.0272228
0.0234922
0.0198249
0.0162602
0.0128358
0.00958648
0.00654152
0.00372323
0.00114551
-0.00118654
-0.00327582
-0.00513214
-0.00676923
-0.00820331
-0.00944524
-0.0105092
-0.0113971
-0.0121063
-0.0126209
-0.0129127
-0.0129474
-0.0132371
0.105096
0.104312
0.103507
0.102678
0.101823
0.100939
0.100024
0.0990752
0.0980897
0.0970643
0.0959955
0.0948797
0.0937128
0.0924908
0.091209
0.0898626
0.0884465
0.0869551
0.0853829
0.0837235
0.0819709
0.0801183
0.0781591
0.0760866
0.0738942
0.0715752
0.0691237
0.0665345
0.0638031
0.0609268
0.0579042
0.0547365
0.0514276
0.0479845
0.0444182
0.0407437
0.0369805
0.033153
0.02929
0.0254239
0.0215903
0.0178263
0.0141685
0.0106513
0.00730506
0.00415384
0.00121445
-0.0015043
-0.00400106
-0.0062808
-0.00835219
-0.0102257
-0.0119051
-0.0133975
-0.0146952
-0.0157833
-0.0166305
-0.0171893
-0.0174071
-0.0179344
0.106978
0.106205
0.105411
0.104593
0.103749
0.102877
0.101974
0.101038
0.100065
0.0990532
0.0979983
0.0968968
0.0957448
0.0945381
0.0932723
0.0919425
0.0905435
0.08907
0.0875162
0.0858759
0.0841429
0.0823106
0.080372
0.0783203
0.0761485
0.0738498
0.0714177
0.0688462
0.0661303
0.0632659
0.0602506
0.057084
0.053768
0.050308
0.046712
0.0429928
0.0391669
0.0352556
0.0312846
0.0272836
0.0232854
0.0193249
0.0154375
0.011657
0.00801418
0.00453463
0.00123761
-0.0018647
-0.00476695
-0.00746933
-0.00997557
-0.0122899
-0.01441
-0.0163346
-0.0180463
-0.0195174
-0.0207009
-0.0215302
-0.0219343
-0.022695
0.108969
0.108205
0.107419
0.10661
0.105775
0.104913
0.104019
0.103093
0.102131
0.101129
0.100085
0.098995
0.0978546
0.0966599
0.0954065
0.0940895
0.0927037
0.0912437
0.0897039
0.0880779
0.0863594
0.0845418
0.0826179
0.0805808
0.0784232
0.076138
0.0737181
0.0711571
0.0684491
0.0655891
0.0625737
0.0594009
0.0560711
0.0525874
0.0489561
0.0451871
0.0412944
0.0372964
0.0332158
0.0290793
0.0249172
0.0207623
0.016648
0.0126076
0.00867189
0.00486757
0.001216
-0.00226755
-0.00557402
-0.00869892
-0.011641
-0.0143984
-0.0169617
-0.0193218
-0.0214512
-0.0233095
-0.0248334
-0.025937
-0.0265305
-0.0275215
0.111083
0.110325
0.109545
0.108742
0.107913
0.107057
0.10617
0.105251
0.104296
0.103302
0.102265
0.101183
0.10005
0.098864
0.0976191
0.0963108
0.0949338
0.093483
0.0919524
0.0903357
0.0886266
0.0868183
0.0849035
0.082875
0.0807255
0.0784472
0.076033
0.0734755
0.0707684
0.0679058
0.0648831
0.0616971
0.0583466
0.0548331
0.0511604
0.0473366
0.0433727
0.0392845
0.0350919
0.0308188
0.0264926
0.022144
0.0178048
0.0135069
0.00928114
0.00515495
0.00115146
-0.00271134
-0.00642087
-0.0099681
-0.013347
-0.0165491
-0.0195588
-0.0223583
-0.0249097
-0.0271595
-0.0290277
-0.0304089
-0.0311946
-0.0324142
0.113318
0.112563
0.111787
0.110988
0.110163
0.109311
0.108428
0.107513
0.106562
0.105572
0.10454
0.103463
0.102335
0.101153
0.0999132
0.0986098
0.0972379
0.095792
0.0942664
0.0926545
0.09095
0.0891459
0.0872349
0.0852096
0.0830622
0.0807848
0.0783698
0.0758094
0.0730965
0.0702245
0.0671877
0.0639817
0.060604
0.0570541
0.0533344
0.0494503
0.0454107
0.0412285
0.036921
0.0325093
0.0280183
0.0234762
0.0189129
0.0143591
0.00984521
0.00539914
0.00104544
-0.00319542
-0.0073076
-0.0112777
-0.0150949
-0.0187443
-0.0222033
-0.0254456
-0.0284232
-0.0310687
-0.0332855
-0.034948
-0.035929
-0.0373765
0.115686
0.114932
0.114157
0.113359
0.112535
0.111684
0.110802
0.109888
0.108938
0.107949
0.106919
0.105842
0.104715
0.103535
0.102296
0.100993
0.0996223
0.0981771
0.0966519
0.0950402
0.0933355
0.0915307
0.0896182
0.0875906
0.0854398
0.0831575
0.0807358
0.0781662
0.0754411
0.0725531
0.0694956
0.0662631
0.0628516
0.0592594
0.0554866
0.0515368
0.0474165
0.0431362
0.0387106
0.0341578
0.0295004
0.0247641
0.0199768
0.015168
0.0103672
0.00560261
0.000899992
-0.00371802
-0.00823258
-0.0126261
-0.0168829
-0.0209818
-0.0248935
-0.0285829
-0.0319909
-0.0350366
-0.0376061
-0.0395534
-0.0407323
-0.0424082
0.118179
0.117424
0.116648
0.115848
0.115023
0.114171
0.113288
0.112373
0.111422
0.110432
0.109399
0.108321
0.107192
0.10601
0.104769
0.103464
0.10209
0.100642
0.0991132
0.0974975
0.0957882
0.093978
0.0920592
0.0900242
0.0878646
0.0855718
0.0831374
0.0805526
0.0778092
0.074899
0.0718144
0.0685491
0.0650977
0.0614568
0.0576251
0.0536041
0.0493982
0.0450153
0.0404678
0.0357711
0.0309452
0.0260134
0.0210016
0.0159377
0.0108504
0.00576793
0.000716867
-0.0042782
-0.00919562
-0.0140137
-0.0187123
-0.0232635
-0.0276313
-0.0317714
-0.0356144
-0.0390649
-0.0419917
-0.0442275
-0.0456074
-0.0475131
0.120808
0.12005
0.11927
0.118467
0.117638
0.116782
0.115896
0.114976
0.114021
0.113026
0.11199
0.110906
0.109773
0.108585
0.107338
0.106028
0.104647
0.103192
0.101656
0.100032
0.0983132
0.0964931
0.0945632
0.0925158
0.0903422
0.0880335
0.085581
0.0829753
0.0802076
0.077269
0.0741514
0.0708469
0.0673493
0.0636538
0.0597573
0.0556596
0.0513628
0.0468728
0.0421993
0.0373554
0.0323583
0.0272291
0.0219916
0.016672
0.011298
0.00589768
0.000498235
-0.00487404
-0.0101949
-0.0154388
-0.0205811
-0.0255873
-0.0304149
-0.0350104
-0.0392929
-0.0431528
-0.0464412
-0.048969
-0.0505528
-0.0526909
0.123569
0.122805
0.12202
0.121211
0.120377
0.119515
0.118623
0.117697
0.116735
0.115734
0.11469
0.113599
0.112458
0.111262
0.110006
0.108686
0.107296
0.10583
0.104283
0.102647
0.100915
0.0990807
0.0971352
0.0950706
0.0928781
0.0905483
0.0880723
0.0854401
0.0826425
0.0796697
0.0765129
0.0731634
0.0696136
0.0658574
0.0618903
0.0577102
0.0533174
0.0487154
0.0439116
0.0389167
0.0337454
0.0284165
0.0229515
0.0173749
0.0117134
0.00599455
0.000246038
-0.00550436
-0.0112301
-0.0169017
-0.0224903
-0.027955
-0.0332461
-0.0383011
-0.0430279
-0.0473022
-0.0509568
-0.0537807
-0.0555718
-0.0579455
0.126473
0.125702
0.124909
0.124092
0.12325
0.122379
0.121478
0.120543
0.119572
0.118561
0.117507
0.116406
0.115254
0.114046
0.112779
0.111446
0.110042
0.108562
0.107
0.105347
0.103598
0.101745
0.0997799
0.0976935
0.0954773
0.0931216
0.0906168
0.0879528
0.0851197
0.0821071
0.0789053
0.0755048
0.0718968
0.0680742
0.0640306
0.0597626
0.0552683
0.0505494
0.0456108
0.0404608
0.0351118
0.0295801
0.0238853
0.01805
0.0120996
0.00606112
-3.74816e-05
-0.00616714
-0.0122991
-0.0184005
-0.024438
-0.0303642
-0.0361231
-0.0416425
-0.0468184
-0.0515119
-0.0555374
-0.058661
-0.0606627
-0.0632761
0.129508
0.128728
0.127926
0.1271
0.126248
0.125367
0.124455
0.12351
0.122528
0.121505
0.120439
0.119325
0.118159
0.116938
0.115656
0.114307
0.112887
0.11139
0.109809
0.108137
0.106367
0.104492
0.102502
0.100389
0.0981448
0.0957582
0.0932198
0.0905188
0.0876448
0.0845868
0.0813344
0.0778772
0.0742053
0.0703102
0.0661845
0.0618229
0.0572218
0.0523807
0.0473026
0.0419933
0.0364628
0.0307252
0.0247978
0.0187014
0.0124601
0.0061002
-0.000350227
-0.00686103
-0.0134015
-0.0199352
-0.0264249
-0.0328166
-0.0390474
-0.0450357
-0.0506659
-0.055784
-0.0601852
-0.0636128
-0.065829
-0.0686869
0.132688
0.131897
0.131083
0.130245
0.129381
0.128488
0.127564
0.126605
0.125609
0.124573
0.123492
0.122363
0.121181
0.119943
0.118643
0.117276
0.115836
0.114318
0.112715
0.11102
0.109225
0.107323
0.105305
0.103162
0.100885
0.098463
0.0958861
0.093143
0.0902229
0.0871143
0.0838058
0.0802862
0.0765446
0.0725715
0.0683579
0.063897
0.0591837
0.0542152
0.0489925
0.0435193
0.0378031
0.0318559
0.0256926
0.0193324
0.0127978
0.00611434
-0.000689937
-0.00758394
-0.0145351
-0.0215039
-0.0284489
-0.0353098
-0.0420172
-0.0484796
-0.0545694
-0.0601171
-0.064899
-0.0686344
-0.0710688
-0.0741769
0.136005
0.135201
0.134374
0.133524
0.132646
0.131739
0.130801
0.129827
0.128816
0.127763
0.126666
0.125519
0.124319
0.123061
0.121741
0.120353
0.118891
0.117349
0.115721
0.113999
0.112176
0.110244
0.108194
0.106017
0.103702
0.10124
0.0986203
0.0958303
0.0928592
0.0896946
0.0863246
0.0827371
0.0789203
0.0748634
0.0705562
0.0659906
0.0611593
0.0560582
0.0506859
0.045044
0.0391379
0.0329769
0.0265743
0.019947
0.0131162
0.00610642
-0.00105437
-0.00833433
-0.0156993
-0.0231065
-0.0305107
-0.0378453
-0.0450339
-0.0519754
-0.0585302
-0.0645132
-0.0696811
-0.0737288
-0.0763858
-0.0797502
0.139473
0.138655
0.137813
0.136947
0.136054
0.135131
0.134175
0.133184
0.132155
0.131084
0.129967
0.1288
0.127579
0.126299
0.124956
0.123543
0.122056
0.120487
0.118831
0.117079
0.115224
0.113258
0.111172
0.108956
0.106601
0.104095
0.101427
0.0985853
0.0955582
0.0923325
0.0888958
0.085235
0.0813375
0.0771913
0.0727849
0.0681088
0.0631542
0.0579149
0.0523878
0.0465722
0.0404713
0.0340924
0.0274464
0.0205484
0.013418
0.00607896
-0.00144129
-0.00911011
-0.0168918
-0.0247408
-0.0326081
-0.0404206
-0.0480956
-0.0555218
-0.0625472
-0.0689708
-0.0745299
-0.0788942
-0.0817778
-0.0854057
0.143078
0.142244
0.141387
0.140504
0.139594
0.138653
0.13768
0.13667
0.135621
0.13453
0.133392
0.132203
0.130959
0.129655
0.128287
0.126848
0.125332
0.123734
0.122047
0.120262
0.118372
0.116369
0.114243
0.111985
0.109585
0.10703
0.10431
0.101412
0.0983244
0.0950328
0.0915242
0.0877849
0.0838012
0.0795601
0.075049
0.0702568
0.0651732
0.0597904
0.0541031
0.0481088
0.0418083
0.0352068
0.0283132
0.0211405
0.0137069
0.00603489
-0.00184831
-0.00990956
-0.0181118
-0.0264067
-0.0347416
-0.043037
-0.0512034
-0.0591198
-0.0666217
-0.073492
-0.0794478
-0.0841335
-0.0872488
-0.0911475
0.146835
0.145983
0.145108
0.144207
0.143278
0.142318
0.141324
0.140294
0.139224
0.13811
0.136949
0.135736
0.134466
0.133136
0.13174
0.130272
0.128725
0.127095
0.125373
0.123552
0.121624
0.119581
0.117411
0.115107
0.112658
0.11005
0.107274
0.104316
0.101162
0.0977998
0.0942144
0.0903913
0.086316
0.0819748
0.0773533
0.0724394
0.0672213
0.0616893
0.0558365
0.049658
0.0431528
0.0363239
0.029178
0.0217264
0.0139855
0.00597667
-0.00227323
-0.0107306
-0.0193572
-0.028102
-0.0369089
-0.045692
-0.0543556
-0.0627681
-0.0707524
-0.0780752
-0.0844332
-0.0894448
-0.0927964
-0.0969741
0.150735
0.149865
0.148971
0.14805
0.147101
0.146121
0.145106
0.144053
0.14296
0.141822
0.140636
0.139397
0.1381
0.136741
0.135315
0.133815
0.132236
0.13057
0.128812
0.126952
0.124983
0.122895
0.12068
0.118326
0.115823
0.11316
0.110323
0.107299
0.104076
0.100638
0.0969706
0.0930587
0.0888868
0.0844397
0.0797024
0.0746613
0.0693031
0.0636164
0.0575924
0.0512246
0.0445095
0.0374481
0.0300452
0.02231
0.0142572
0.00590733
-0.00271353
-0.0115713
-0.0206268
-0.0298263
-0.0391104
-0.0483868
-0.057553
-0.0664677
-0.0749407
-0.0827224
-0.0894884
-0.0948311
-0.0984244
-0.10289
0.154795
0.153905
0.15299
0.152048
0.151076
0.150073
0.149034
0.147957
0.146838
0.145674
0.14446
0.143193
0.141866
0.140476
0.139018
0.137484
0.135869
0.134165
0.132367
0.130465
0.128451
0.126317
0.124051
0.121645
0.119086
0.116361
0.11346
0.110367
0.107069
0.103551
0.0997972
0.0957914
0.0915175
0.0869595
0.0821009
0.0769271
0.0714232
0.0655761
0.0593754
0.0528125
0.045882
0.0385829
0.0309178
0.0228941
0.0145248
0.00582925
-0.00316705
-0.0124297
-0.0219185
-0.0315774
-0.0413437
-0.0511188
-0.0607939
-0.0702171
-0.0791851
-0.0874317
-0.0946116
-0.10029
-0.10413
-0.108893
0.158999
0.158087
0.15715
0.156185
0.155191
0.154164
0.153101
0.151998
0.150853
0.149661
0.148419
0.147121
0.145764
0.144341
0.142848
0.141278
0.139625
0.137881
0.136041
0.134094
0.132033
0.129849
0.12753
0.125067
0.122448
0.119659
0.116689
0.113523
0.110147
0.106544
0.102698
0.0985937
0.0942128
0.0895384
0.0845532
0.0792411
0.0735858
0.0675727
0.0611897
0.0544262
0.0472748
0.0397326
0.0318
0.0234826
0.0147918
0.00574555
-0.00363117
-0.0133037
-0.0232311
-0.0333547
-0.043609
-0.053889
-0.064079
-0.0740171
-0.0834869
-0.0922051
-0.0998052
-0.105825
-0.109918
-0.114988
0.163362
0.162427
0.161467
0.160478
0.159459
0.158406
0.157316
0.156186
0.155013
0.153792
0.152519
0.15119
0.149798
0.148341
0.146811
0.145203
0.143509
0.141723
0.139837
0.137843
0.135732
0.133494
0.131119
0.128596
0.125913
0.123057
0.120015
0.116771
0.113311
0.109619
0.105678
0.10147
0.0969764
0.0921807
0.0870634
0.0816075
0.0757953
0.0696105
0.0630394
0.0560695
0.0486916
0.0409005
0.0326949
0.0240783
0.0150606
0.00565849
-0.00410373
-0.0141914
-0.0245624
-0.0351563
-0.045904
-0.0566947
-0.0674064
-0.0778663
-0.0878445
-0.0970409
-0.105067
-0.111434
-0.115785
-0.121172
0.167877
0.166918
0.165933
0.16492
0.163875
0.162795
0.161678
0.16052
0.159317
0.158065
0.15676
0.155396
0.15397
0.152476
0.150907
0.149259
0.147522
0.145691
0.143759
0.141714
0.13955
0.137257
0.134822
0.132236
0.129486
0.126558
0.12344
0.120114
0.116567
0.112781
0.108739
0.104423
0.0998128
0.0948903
0.0896358
0.0840306
0.0780559
0.0716937
0.0649288
0.0577468
0.0501364
0.0420908
0.0336065
0.0246851
0.0153349
0.00557134
-0.00458207
-0.0150904
-0.0259111
-0.0369811
-0.0482287
-0.0595368
-0.0707767
-0.0817654
-0.0922592
-0.101941
-0.1104
-0.117119
-0.121735
-0.127451
0.172561
0.171577
0.170566
0.169525
0.168452
0.167344
0.166197
0.165007
0.163772
0.162487
0.161148
0.159749
0.158285
0.156752
0.155142
0.153451
0.151669
0.149791
0.147808
0.145711
0.143491
0.141139
0.138642
0.135989
0.133169
0.130166
0.126967
0.123557
0.119918
0.116035
0.111887
0.107458
0.102726
0.0976715
0.0922743
0.0865145
0.0803716
0.0738264
0.0668617
0.0594616
0.0516129
0.0433068
0.0345377
0.0253057
0.0156171
0.00548619
-0.00506405
-0.015999
-0.0272751
-0.0388274
-0.0505805
-0.0624128
-0.0741883
-0.0857129
-0.0967293
-0.106903
-0.115801
-0.122878
-0.127766
-0.133821
0.177396
0.176386
0.175348
0.17428
0.173178
0.172041
0.170863
0.169643
0.168375
0.167056
0.165681
0.164245
0.162742
0.161168
0.159516
0.15778
0.155951
0.154023
0.151988
0.149836
0.147558
0.145144
0.142581
0.139859
0.136965
0.133884
0.130602
0.127102
0.123368
0.119382
0.115125
0.110578
0.105719
0.100528
0.0949829
0.089063
0.0827465
0.0760124
0.0688423
0.0612182
0.0531252
0.0445524
0.0354927
0.0259438
0.0159108
0.0054064
-0.00554686
-0.0169148
-0.0286526
-0.0406939
-0.0529595
-0.0653232
-0.0776413
-0.0897092
-0.101256
-0.111929
-0.121274
-0.128714
-0.13388
-0.140287
0.182402
0.181364
0.180297
0.1792
0.178068
0.176899
0.175689
0.174435
0.173133
0.171778
0.170366
0.168891
0.167348
0.165731
0.164035
0.162251
0.160373
0.158393
0.156303
0.154094
0.151754
0.149275
0.146644
0.14385
0.140879
0.137716
0.134346
0.130753
0.12692
0.122827
0.118457
0.113787
0.108796
0.103464
0.0977657
0.0916803
0.0851845
0.0782558
0.0708742
0.0630201
0.0546766
0.045831
0.0364741
0.0266021
0.0162183
0.00533411
-0.00602853
-0.0178359
-0.0300419
-0.0425788
-0.0553631
-0.0682657
-0.0811341
-0.093753
-0.105837
-0.117017
-0.126815
-0.134625
-0.140076
-0.146846
0.187568
0.186502
0.185406
0.184278
0.183116
0.181915
0.180672
0.179384
0.178046
0.176654
0.175203
0.173688
0.172102
0.170441
0.168698
0.166866
0.164936
0.162902
0.160755
0.158485
0.156082
0.153536
0.150834
0.147964
0.144913
0.141664
0.138204
0.134514
0.130577
0.126374
0.121885
0.117089
0.111962
0.106483
0.100626
0.0943702
0.0876895
0.0805605
0.0729616
0.0648713
0.0562711
0.0471464
0.0374861
0.0272844
0.0165432
0.00527273
-0.00650614
-0.0187598
-0.031441
-0.0444808
-0.0577913
-0.0712403
-0.0846669
-0.0978446
-0.110474
-0.122169
-0.132427
-0.140613
-0.146356
-0.153503
0.192915
0.191818
0.190691
0.189531
0.188336
0.187101
0.185823
0.184498
0.183122
0.18169
0.180198
0.17864
0.17701
0.175302
0.173511
0.171627
0.169644
0.167554
0.165347
0.163015
0.160545
0.15793
0.155153
0.152204
0.14907
0.145733
0.142178
0.138388
0.134344
0.130027
0.125415
0.120487
0.11522
0.109589
0.103569
0.0971365
0.0902654
0.0829302
0.0751079
0.0667753
0.057912
0.0485017
0.0385313
0.0279933
0.016888
0.00522424
-0.00697762
-0.0196847
-0.032848
-0.0463981
-0.0602415
-0.0742452
-0.088238
-0.101982
-0.115166
-0.127382
-0.138107
-0.146676
-0.152718
-0.160255
0.198422
0.197295
0.196136
0.194944
0.193715
0.192445
0.191131
0.189769
0.188355
0.186883
0.185349
0.183747
0.182072
0.180316
0.178474
0.176538
0.174499
0.17235
0.170083
0.167685
0.165147
0.162459
0.159605
0.156575
0.153354
0.149925
0.146272
0.142378
0.138223
0.133788
0.129049
0.123986
0.118573
0.112785
0.106597
0.0999829
0.0929158
0.0853687
0.077317
0.068736
0.0596034
0.0499009
0.0396138
0.0287327
0.0172563
0.00519224
-0.00744
-0.0206078
-0.034261
-0.048329
-0.0627138
-0.07728
-0.0918471
-0.106167
-0.119912
-0.132658
-0.143858
-0.152816
-0.159165
-0.167106
0.20411
0.20295
0.201758
0.200532
0.199267
0.197961
0.19661
0.195209
0.193754
0.192241
0.190664
0.189016
0.187293
0.185487
0.183593
0.181602
0.179506
0.177296
0.174965
0.172499
0.16989
0.167126
0.164193
0.161079
0.157768
0.154244
0.15049
0.146488
0.142219
0.137661
0.132792
0.127588
0.122025
0.116076
0.109714
0.102913
0.0956446
0.0878797
0.0795926
0.0707568
0.0613482
0.0513469
0.0407362
0.029505
0.0176504
0.00517867
-0.0078913
-0.0215274
-0.035678
-0.050272
-0.0652053
-0.080343
-0.0954931
-0.110396
-0.124711
-0.137995
-0.149677
-0.15903
-0.165694
-0.174053
0.209968
0.208775
0.20755
0.206289
0.204989
0.203646
0.202256
0.200815
0.199319
0.197763
0.19614
0.194446
0.192673
0.190816
0.188869
0.186821
0.184665
0.182393
0.179995
0.17746
0.174778
0.171936
0.168921
0.165719
0.162316
0.158693
0.154835
0.150722
0.146334
0.14165
0.136646
0.131298
0.125579
0.119464
0.112924
0.105931
0.0984553
0.0904668
0.0819383
0.0728416
0.0631506
0.0528438
0.0419026
0.0303141
0.018074
0.00518709
-0.00832832
-0.0224408
-0.0370969
-0.0522253
-0.0677162
-0.0834334
-0.099175
-0.11467
-0.129563
-0.143394
-0.155566
-0.165321
-0.172309
-0.1811
0.216019
0.214791
0.21353
0.212232
0.210894
0.209511
0.208081
0.206598
0.205058
0.203457
0.201788
0.200044
0.19822
0.19631
0.194306
0.1922
0.189982
0.187645
0.185179
0.182572
0.179813
0.176891
0.17379
0.170499
0.167
0.163276
0.15931
0.155083
0.150573
0.145758
0.140615
0.135118
0.12924
0.122955
0.116231
0.10904
0.101352
0.0931338
0.0843577
0.0749936
0.0650136
0.0543943
0.0431155
0.0311624
0.0185292
0.00521946
-0.00874926
-0.023346
-0.0385159
-0.0541871
-0.0702437
-0.0865499
-0.102892
-0.118988
-0.134468
-0.148853
-0.161523
-0.171687
-0.179005
-0.188244
0.22224
0.220978
0.21968
0.218345
0.216969
0.215547
0.214076
0.212551
0.210967
0.209319
0.207602
0.205809
0.203933
0.201967
0.199906
0.197739
0.195458
0.193054
0.190518
0.187837
0.184999
0.181995
0.178806
0.175421
0.171824
0.167996
0.163919
0.159573
0.154938
0.149989
0.144702
0.139053
0.133011
0.12655
0.119637
0.112244
0.104337
0.0958842
0.0868545
0.0772167
0.066941
0.0560025
0.0443789
0.0320539
0.0190199
0.00527943
-0.00915085
-0.0242403
-0.0399328
-0.0561556
-0.0727876
-0.0896911
-0.106642
-0.123348
-0.139425
-0.154373
-0.167549
-0.178128
-0.185787
-0.195489
0.228656
0.227356
0.226021
0.224647
0.223231
0.221768
0.220254
0.218685
0.217055
0.21536
0.213593
0.211748
0.209818
0.207796
0.205675
0.203446
0.201098
0.198625
0.196016
0.193258
0.19034
0.187249
0.18397
0.18049
0.176791
0.172855
0.168665
0.164197
0.159432
0.154346
0.148912
0.143105
0.136895
0.130254
0.123147
0.115546
0.107416
0.0987216
0.0894322
0.0795141
0.068936
0.057671
0.0456952
0.0329907
0.0195481
0.00536876
-0.00953137
-0.025122
-0.0413458
-0.0581291
-0.0753453
-0.0928559
-0.110426
-0.127751
-0.144432
-0.159952
-0.173641
-0.184643
-0.19265
-0.202831
0.235257
0.23392
0.232547
0.231134
0.229677
0.228172
0.226615
0.225
0.223323
0.221579
0.219761
0.217862
0.215875
0.213795
0.211612
0.209319
0.206904
0.20436
0.201676
0.198839
0.195837
0.192659
0.189287
0.185708
0.181905
0.177858
0.17355
0.168958
0.16406
0.158832
0.153248
0.147279
0.140896
0.13407
0.126765
0.118951
0.110591
0.10165
0.0920945
0.0818897
0.0710024
0.059404
0.0470686
0.0339768
0.0201176
0.00549121
-0.00988738
-0.025988
-0.0427524
-0.0601055
-0.077916
-0.0960425
-0.11424
-0.132194
-0.14949
-0.16559
-0.179802
-0.191234
-0.199598
-0.210274
0.242075
0.240698
0.239283
0.237827
0.236325
0.234774
0.233169
0.231505
0.229778
0.227982
0.226109
0.224155
0.22211
0.219968
0.217722
0.215362
0.212878
0.21026
0.207499
0.204581
0.201494
0.198225
0.194758
0.191078
0.187168
0.183008
0.17858
0.173859
0.168825
0.163452
0.157713
0.151578
0.145019
0.138002
0.130494
0.122461
0.113866
0.104672
0.0948449
0.0843468
0.0731432
0.0612039
0.0485014
0.0350143
0.0207303
0.00564839
-0.0102173
-0.0268369
-0.0441511
-0.0620834
-0.0804976
-0.0992501
-0.118086
-0.136677
-0.154597
-0.171286
-0.186028
-0.197896
-0.206627
-0.217814
0.249014
0.2476
0.246147
0.244652
0.243112
0.24152
0.239873
0.238165
0.236392
0.234547
0.232623
0.230614
0.228512
0.22631
0.224001
0.221575
0.21902
0.216328
0.213489
0.210488
0.207313
0.203953
0.200387
0.196604
0.192585
0.188309
0.183757
0.178905
0.173732
0.168209
0.162311
0.156007
0.149266
0.142055
0.134338
0.126081
0.117246
0.107793
0.0976872
0.0868891
0.0753624
0.063075
0.0499977
0.0361075
0.0213904
0.00584424
-0.0105176
-0.0276653
-0.0455389
-0.0640603
-0.0830886
-0.102476
-0.12196
-0.1412
-0.159752
-0.177041
-0.19232
-0.204633
-0.213739
-0.225455
0.256231
0.254774
0.253276
0.251735
0.250145
0.248504
0.246805
0.245045
0.243217
0.241317
0.239336
0.237268
0.235104
0.232838
0.230462
0.227966
0.225337
0.222569
0.219649
0.216563
0.213299
0.209844
0.206179
0.20229
0.198159
0.193763
0.189085
0.184099
0.178782
0.173108
0.167047
0.160569
0.153641
0.146232
0.138301
0.129815
0.120733
0.111016
0.100625
0.0895199
0.0776629
0.0650198
0.0515598
0.0372581
0.0220994
0.00608024
-0.0107868
-0.0284721
-0.0469147
-0.0660349
-0.085687
-0.105721
-0.125862
-0.14576
-0.164955
-0.182851
-0.198677
-0.211441
-0.220932
-0.233193
0.263564
0.262066
0.260529
0.258947
0.257316
0.255632
0.253889
0.252082
0.250206
0.248254
0.246219
0.244094
0.24187
0.239541
0.237099
0.234533
0.231831
0.228985
0.225984
0.222811
0.219455
0.215904
0.212136
0.208139
0.203893
0.199376
0.194569
0.189445
0.183982
0.178151
0.171924
0.165268
0.15815
0.150536
0.142387
0.133666
0.124332
0.114344
0.103662
0.0922432
0.0800487
0.0670425
0.053192
0.0384707
0.0228618
0.00636058
-0.011021
-0.0292536
-0.0482751
-0.0680044
-0.0882911
-0.10898
-0.12979
-0.150356
-0.170204
-0.188717
-0.205099
-0.218321
-0.228206
-0.24103
0.271189
0.269646
0.26806
0.266428
0.264746
0.263009
0.261212
0.259349
0.257416
0.255406
0.253311
0.251124
0.248835
0.24644
0.243928
0.241289
0.23851
0.235583
0.232497
0.229236
0.225787
0.222136
0.218264
0.214156
0.209793
0.205152
0.200212
0.194948
0.189335
0.183344
0.176946
0.170108
0.162795
0.154973
0.146599
0.137638
0.128047
0.117782
0.106801
0.0950622
0.0825228
0.0691457
0.0548965
0.039747
0.023679
0.00668657
-0.011219
-0.0300086
-0.0496191
-0.0699677
-0.0908992
-0.112255
-0.133743
-0.154988
-0.175498
-0.194637
-0.211582
-0.225271
-0.235559
-0.248963
0.278924
0.277339
0.275711
0.274038
0.272313
0.270532
0.268689
0.266778
0.264794
0.26273
0.260579
0.258333
0.255983
0.253521
0.25094
0.248228
0.245373
0.242365
0.239194
0.235842
0.232297
0.228546
0.224567
0.220346
0.215863
0.211094
0.206019
0.200611
0.194844
0.18869
0.182118
0.175093
0.167581
0.159545
0.150943
0.141736
0.131881
0.121332
0.110047
0.097981
0.0850894
0.0713337
0.0566777
0.0410916
0.0245556
0.0070627
-0.0113766
-0.0307332
-0.0509431
-0.0719216
-0.093509
-0.115541
-0.137719
-0.159653
-0.180836
-0.200611
-0.218129
-0.232291
-0.242993
-0.256996
0.28696
0.285329
0.283652
0.281928
0.280151
0.278316
0.276418
0.27445
0.272407
0.270284
0.26807
0.265759
0.263341
0.260809
0.258155
0.255367
0.252431
0.249339
0.24608
0.242635
0.238992
0.235137
0.231049
0.226712
0.222107
0.217207
0.211994
0.206438
0.200515
0.194194
0.187443
0.180228
0.172512
0.164258
0.155421
0.145963
0.135839
0.125
0.113404
0.101003
0.0877514
0.073609
0.0585378
0.0425062
0.025493
0.00749012
-0.0114927
-0.0314266
-0.0522462
-0.0738653
-0.0961191
-0.11884
-0.141718
-0.164352
-0.186217
-0.206637
-0.224736
-0.239378
-0.250504
-0.265123
0.29518
0.293502
0.291778
0.290006
0.288178
0.286291
0.284339
0.282316
0.280215
0.278032
0.275756
0.27338
0.270895
0.268293
0.265565
0.2627
0.259683
0.256506
0.253157
0.249618
0.245875
0.241915
0.237715
0.23326
0.228529
0.223496
0.218142
0.212436
0.206352
0.19986
0.192927
0.185517
0.177592
0.169114
0.160039
0.150324
0.139924
0.128789
0.116875
0.104132
0.0905132
0.0759763
0.0604815
0.0439957
0.0264962
0.00797361
-0.0115629
-0.0320843
-0.0535244
-0.0757952
-0.0987269
-0.122146
-0.145736
-0.169081
-0.191639
-0.212715
-0.231404
-0.246533
-0.258093
-0.273348
0.30362
0.301895
0.300124
0.298302
0.296424
0.294485
0.292478
0.290399
0.288241
0.285997
0.283658
0.281217
0.278663
0.275988
0.273185
0.27024
0.26714
0.263875
0.260434
0.256798
0.252953
0.248884
0.24457
0.239994
0.235135
0.229966
0.224467
0.218607
0.21236
0.205693
0.198573
0.190964
0.182826
0.17412
0.164799
0.154822
0.14414
0.132703
0.120463
0.107372
0.0933777
0.0784379
0.0625109
0.0455618
0.0275663
0.00851416
-0.0115861
-0.0327058
-0.0547772
-0.0777106
-0.101331
-0.125462
-0.149774
-0.17384
-0.197102
-0.218842
-0.238129
-0.253753
-0.265757
-0.281666
0.312275
0.310503
0.308682
0.30681
0.30488
0.302888
0.300827
0.29869
0.296473
0.294168
0.291766
0.289258
0.286634
0.283888
0.281008
0.277984
0.2748
0.271447
0.267912
0.264178
0.260228
0.25605
0.251619
0.246919
0.241929
0.236621
0.230974
0.224957
0.218542
0.211697
0.204386
0.196573
0.188218
0.179278
0.169707
0.159462
0.148492
0.136745
0.124174
0.110726
0.0963495
0.0809987
0.0646309
0.0472093
0.0287085
0.0091168
-0.0115577
-0.0332863
-0.056
-0.0796076
-0.103929
-0.128781
-0.153828
-0.178627
-0.202603
-0.225017
-0.244912
-0.261039
-0.273497
-0.290081
0.321177
0.319356
0.317485
0.315561
0.313578
0.311531
0.309414
0.307219
0.304941
0.302573
0.300105
0.297529
0.294833
0.292011
0.289053
0.285946
0.282675
0.27923
0.2756
0.271764
0.267708
0.263417
0.258867
0.254041
0.248917
0.243467
0.237669
0.231491
0.224905
0.217877
0.210371
0.20235
0.193771
0.184593
0.174767
0.164247
0.152983
0.140921
0.128011
0.114199
0.0994312
0.0836611
0.0668434
0.04894
0.0299239
0.00978242
-0.011477
-0.0338255
-0.0571928
-0.0814857
-0.106519
-0.132106
-0.157899
-0.183441
-0.208141
-0.231239
-0.25175
-0.268386
-0.281309
-0.298588
0.330309
0.328437
0.326515
0.324538
0.322501
0.320399
0.318224
0.31597
0.31363
0.311198
0.308664
0.306018
0.30325
0.300352
0.297315
0.294125
0.290766
0.287229
0.283502
0.279563
0.275398
0.270992
0.266319
0.261364
0.256104
0.250508
0.244556
0.238213
0.231452
0.224238
0.216533
0.208299
0.199492
0.19007
0.179983
0.169183
0.157619
0.145234
0.131978
0.117794
0.102628
0.0864299
0.0691536
0.050759
0.0312179
0.0105162
-0.0113387
-0.0343184
-0.0583505
-0.0833406
-0.109099
-0.135432
-0.161982
-0.188279
-0.213715
-0.237507
-0.258643
-0.275797
-0.289194
-0.307188
0.3397
0.337777
0.335802
0.333772
0.331679
0.32952
0.327286
0.324971
0.322568
0.320071
0.317468
0.31475
0.311907
0.308931
0.305811
0.302535
0.299085
0.295452
0.291625
0.28758
0.283303
0.27878
0.273983
0.268896
0.263495
0.257751
0.25164
0.24513
0.23819
0.230784
0.222876
0.214424
0.205385
0.195714
0.185359
0.174273
0.162402
0.149688
0.136079
0.121516
0.105942
0.0893075
0.0715633
0.0526678
0.0325912
0.0113189
-0.0111428
-0.0347645
-0.0594734
-0.0851716
-0.111666
-0.138758
-0.166078
-0.193142
-0.219323
-0.243819
-0.265589
-0.283266
-0.297149
-0.315878
0.349336
0.34736
0.345332
0.343246
0.341098
0.33888
0.336586
0.334208
0.331741
0.329176
0.326504
0.323714
0.320795
0.31774
0.314537
0.311173
0.307632
0.303903
0.299973
0.295821
0.29143
0.286786
0.281862
0.276639
0.271096
0.2652
0.258928
0.252245
0.245122
0.237521
0.229404
0.22073
0.211453
0.201528
0.1909
0.179522
0.167338
0.154288
0.140318
0.125368
0.109379
0.0922992
0.0740779
0.0546719
0.0340498
0.0121962
-0.0108835
-0.0351588
-0.0605563
-0.0869746
-0.114219
-0.142082
-0.170183
-0.198025
-0.224963
-0.250173
-0.272586
-0.290794
-0.305174
-0.324661
0.359246
0.357217
0.355134
0.352992
0.350785
0.348507
0.346151
0.34371
0.341177
0.338543
0.335799
0.332934
0.329936
0.326798
0.32351
0.320055
0.316418
0.31259
0.308555
0.304292
0.299784
0.295017
0.289962
0.284602
0.278912
0.27286
0.266423
0.259564
0.252254
0.244454
0.236124
0.227223
0.217703
0.207517
0.196611
0.184935
0.17243
0.159037
0.144699
0.129354
0.112941
0.0954071
0.0766992
0.0567725
0.0355943
0.0131484
-0.0105607
-0.035501
-0.0615993
-0.0887488
-0.116756
-0.145403
-0.174298
-0.202928