/*--------------------------------*- C++ -*----------------------------------*\
  =========                 |
  \\      /  F ield         | OpenFOAM: The Open Source CFD Toolbox
   \\    /   O peration     | Website:  https://openfoam.org
    \\  /    A nd           | Version:  6.0
     \\/     M anipulation  |
\*---------------------------------------------------------------------------*/
FoamFile
{
    version     2.0;
    format      ascii;
    class       volVectorField;
    location    "1";
    object      U;
}
// * * * * * * * * * * * * * * * * * * * * * * * * * * * * * * * * * * * * * //

dimensions      [0 1 -1 0 0 0 0];

internalField   nonuniform List<vector> 
62000
(
(0.984487 -0.175836 -1.78498e-20)
(0.98447 -0.175872 1.48814e-20)
(0.984452 -0.175875 1.5017e-20)
(0.984434 -0.175877 -6.5176e-20)
(0.984416 -0.17588 -7.31209e-20)
(0.984397 -0.175883 2.53328e-19)
(0.984377 -0.175887 -2.75504e-19)
(0.984357 -0.175891 1.59299e-19)
(0.984337 -0.175895 -7.31475e-20)
(0.984316 -0.1759 -3.67429e-19)
(0.984295 -0.175905 -4.07652e-20)
(0.984273 -0.17591 5.07504e-19)
(0.984251 -0.175916 9.97023e-20)
(0.984229 -0.175923 -3.4919e-19)
(0.984206 -0.175929 5.35414e-19)
(0.984183 -0.175936 -2.83034e-19)
(0.98416 -0.175943 2.80587e-19)
(0.984137 -0.175949 -3.30082e-19)
(0.984113 -0.175956 1.56864e-19)
(0.984089 -0.175962 -4.69566e-19)
(0.984064 -0.175967 6.05094e-19)
(0.98404 -0.175971 1.64519e-19)
(0.984016 -0.175974 2.24619e-19)
(0.983991 -0.175975 -1.06601e-18)
(0.983968 -0.175974 3.81371e-19)
(0.983944 -0.17597 -2.17527e-19)
(0.983922 -0.175963 6.4776e-21)
(0.983901 -0.175952 -1.50032e-19)
(0.983881 -0.175937 4.95981e-19)
(0.983864 -0.175916 -2.41292e-19)
(0.98385 -0.175888 5.61874e-19)
(0.983839 -0.175854 -1.1122e-18)
(0.983833 -0.175812 1.1758e-19)
(0.983833 -0.175762 -3.00111e-19)
(0.98384 -0.175702 -6.7326e-20)
(0.983855 -0.175632 -2.72122e-19)
(0.98388 -0.175551 -9.99058e-21)
(0.983916 -0.17546 -1.98636e-20)
(0.983964 -0.175357 1.98532e-19)
(0.984027 -0.175243 7.33087e-19)
(0.984105 -0.175117 -1.53451e-19)
(0.9842 -0.174979 -6.81677e-19)
(0.984313 -0.17483 -8.2882e-19)
(0.984443 -0.174668 3.27744e-19)
(0.984592 -0.174493 8.82674e-20)
(0.984759 -0.174303 -1.76242e-19)
(0.984943 -0.174094 -1.6338e-21)
(0.985143 -0.173861 1.36139e-20)
(0.985358 -0.173597 2.80303e-19)
(0.985587 -0.173292 1.32263e-19)
(0.985826 -0.172933 1.08705e-19)
(0.986075 -0.172498 1.21564e-18)
(0.986329 -0.171959 -4.54866e-19)
(0.986586 -0.171272 -1.82694e-18)
(0.98684 -0.170361 -4.49968e-19)
(0.987086 -0.169088 -2.1178e-18)
(0.987318 -0.167154 1.08395e-19)
(0.98753 -0.163745 -3.20832e-20)
(0.987793 -0.155609 -1.11301e-18)
(0.985754 -0.161659 7.7053e-21)
(0.984473 -0.175794 -4.88165e-21)
(0.984455 -0.175829 4.63735e-20)
(0.984436 -0.175832 1.87125e-20)
(0.984417 -0.175835 -8.15301e-20)
(0.984397 -0.175838 3.3526e-20)
(0.984376 -0.175841 -2.28119e-19)
(0.984356 -0.175844 2.08752e-19)
(0.984335 -0.175848 1.18288e-19)
(0.984314 -0.175852 -2.20092e-19)
(0.984292 -0.175856 1.06739e-20)
(0.984271 -0.175861 2.08014e-19)
(0.984249 -0.175866 -1.13366e-21)
(0.984227 -0.175871 5.64719e-20)
(0.984205 -0.175877 -4.90612e-19)
(0.984183 -0.175883 9.69392e-19)
(0.984161 -0.175889 -8.47768e-19)
(0.984139 -0.175896 3.89437e-19)
(0.984117 -0.175902 -8.28301e-20)
(0.984096 -0.175909 -2.12499e-19)
(0.984074 -0.175915 5.74524e-19)
(0.984053 -0.17592 -8.91252e-19)
(0.984031 -0.175925 5.07168e-19)
(0.984011 -0.175929 -6.1962e-19)
(0.983991 -0.175931 3.69597e-19)
(0.983971 -0.175932 3.17753e-19)
(0.983952 -0.17593 -2.09609e-19)
(0.983935 -0.175926 1.00573e-20)
(0.983919 -0.175918 2.27166e-19)
(0.983905 -0.175905 1.78477e-19)
(0.983893 -0.175889 -3.04448e-19)
(0.983885 -0.175866 6.22479e-19)
(0.98388 -0.175837 9.52238e-20)
(0.983879 -0.175801 3.38919e-19)
(0.983885 -0.175757 -1.97181e-20)
(0.983897 -0.175704 6.68902e-20)
(0.983917 -0.175641 -1.21162e-19)
(0.983946 -0.175568 -2.35064e-19)
(0.983985 -0.175485 -1.49327e-19)
(0.984037 -0.175389 -5.62505e-19)
(0.984103 -0.175283 -4.77162e-19)
(0.984183 -0.175164 3.64711e-19)
(0.98428 -0.175033 1.3939e-19)
(0.984393 -0.174889 9.79946e-19)
(0.984525 -0.174732 5.06637e-20)
(0.984674 -0.17456 -7.88775e-19)
(0.984842 -0.174371 1.73402e-19)
(0.985027 -0.174162 2.82456e-20)
(0.985229 -0.173928 -6.51991e-20)
(0.985446 -0.173661 3.00735e-20)
(0.985678 -0.173352 3.7195e-20)
(0.985921 -0.172985 -5.28042e-19)
(0.986175 -0.172542 -1.7086e-18)
(0.986434 -0.171992 1.3046e-18)
(0.986697 -0.171291 4.30229e-18)
(0.986957 -0.170362 1.29137e-18)
(0.987209 -0.169064 2.65701e-19)
(0.987444 -0.167094 3.18696e-18)
(0.987659 -0.163622 1.49116e-18)
(0.987965 -0.155437 -4.67861e-18)
(0.986174 -0.161558 -7.34113e-19)
(0.984455 -0.175752 -2.42797e-20)
(0.984436 -0.175787 -3.21805e-21)
(0.984416 -0.17579 3.91826e-21)
(0.984396 -0.175793 1.69203e-20)
(0.984375 -0.175796 4.69179e-20)
(0.984354 -0.1758 -4.44315e-20)
(0.984332 -0.175803 2.32555e-19)
(0.984311 -0.175807 -1.11966e-19)
(0.984289 -0.175811 -5.92158e-20)
(0.984267 -0.175816 -3.53835e-19)
(0.984245 -0.175821 2.97583e-19)
(0.984223 -0.175826 2.13981e-20)
(0.984201 -0.175832 -6.53548e-20)
(0.98418 -0.175837 1.71327e-19)
(0.984158 -0.175843 -2.89766e-19)
(0.984137 -0.17585 3.79738e-21)
(0.984116 -0.175857 -1.25539e-19)
(0.984095 -0.175863 6.89567e-21)
(0.984075 -0.17587 2.86886e-19)
(0.984055 -0.175876 -4.25262e-19)
(0.984036 -0.175882 2.63685e-19)
(0.984018 -0.175888 9.71869e-19)
(0.984 -0.175893 -1.51396e-19)
(0.983983 -0.175896 -1.29786e-18)
(0.983967 -0.175898 6.59643e-19)
(0.983952 -0.175899 -3.30736e-19)
(0.983939 -0.175896 5.35222e-19)
(0.983927 -0.175891 -3.30524e-19)
(0.983918 -0.175882 -5.90637e-19)
(0.983911 -0.175869 6.04361e-19)
(0.983908 -0.17585 -4.04513e-19)
(0.983908 -0.175826 4.98509e-19)
(0.983913 -0.175795 -1.29974e-18)
(0.983924 -0.175757 1.06888e-18)
(0.983941 -0.17571 -5.36041e-19)
(0.983966 -0.175654 2.18086e-19)
(0.983999 -0.175588 1.72729e-19)
(0.984044 -0.175512 3.03135e-20)
(0.984099 -0.175424 5.29587e-21)
(0.984168 -0.175324 6.41521e-19)
(0.984252 -0.175212 -1.6874e-19)
(0.984351 -0.175087 2.17839e-19)
(0.984467 -0.174949 -6.71008e-19)
(0.9846 -0.174796 -2.45323e-19)
(0.984752 -0.174627 1.24948e-19)
(0.984922 -0.174439 -4.03658e-19)
(0.98511 -0.17423 1.88655e-20)
(0.985314 -0.173994 1.22792e-19)
(0.985536 -0.173723 -4.09722e-19)
(0.985771 -0.173408 -1.57369e-19)
(0.98602 -0.173034 -2.14773e-19)
(0.986279 -0.172581 -1.00243e-19)
(0.986545 -0.172019 -9.33114e-19)
(0.986815 -0.171301 8.29176e-19)
(0.987082 -0.17035 3.263e-18)
(0.98734 -0.169024 1.34044e-18)
(0.987581 -0.167011 3.09037e-18)
(0.9878 -0.163466 7.56445e-18)
(0.988153 -0.155173 -1.45924e-18)
(0.986559 -0.16139 -8.06849e-19)
(0.984433 -0.175715 -2.47815e-20)
(0.984413 -0.17575 7.52269e-20)
(0.984393 -0.175753 -1.17567e-20)
(0.984372 -0.175756 -7.58093e-20)
(0.984351 -0.17576 1.12774e-19)
(0.984329 -0.175763 1.90692e-19)
(0.984307 -0.175767 -2.48701e-19)
(0.984285 -0.175771 2.63463e-20)
(0.984263 -0.175776 8.25379e-20)
(0.984241 -0.175781 1.68464e-19)
(0.984219 -0.175786 -3.12165e-19)
(0.984197 -0.175791 -9.28859e-20)
(0.984175 -0.175797 -1.00944e-19)
(0.984154 -0.175803 4.6351e-19)
(0.984133 -0.17581 -3.04127e-19)
(0.984112 -0.175817 6.89488e-19)
(0.984092 -0.175824 -8.27608e-19)
(0.984072 -0.175831 -1.11844e-19)
(0.984053 -0.175838 8.29279e-19)
(0.984035 -0.175845 -2.88765e-19)
(0.984018 -0.175852 -1.04309e-19)
(0.984002 -0.175858 -1.05102e-19)
(0.983986 -0.175864 -9.09264e-19)
(0.983972 -0.175869 5.38522e-19)
(0.98396 -0.175873 -2.11224e-19)
(0.983948 -0.175875 3.5898e-19)
(0.983939 -0.175874 1.61044e-19)
(0.983932 -0.175872 7.29474e-19)
(0.983927 -0.175865 -4.6352e-19)
(0.983925 -0.175855 -5.50393e-19)
(0.983926 -0.175841 8.222e-19)
(0.983931 -0.175821 -6.60846e-19)
(0.983941 -0.175795 1.122e-18)
(0.983957 -0.175761 -6.14759e-19)
(0.983979 -0.17572 2.98606e-19)
(0.984009 -0.17567 4.33345e-19)
(0.984047 -0.175611 -1.55006e-19)
(0.984096 -0.175541 1.24625e-19)
(0.984156 -0.17546 -1.1827e-19)
(0.984229 -0.175366 1.98311e-19)
(0.984316 -0.175261 -5.03401e-19)
(0.984418 -0.175141 1.05934e-19)
(0.984537 -0.175008 1.79931e-19)
(0.984673 -0.174859 3.66731e-19)
(0.984828 -0.174692 2.84987e-19)
(0.985 -0.174506 -3.66405e-22)
(0.985191 -0.174297 7.89408e-20)
(0.9854 -0.174059 -1.09307e-19)
(0.985625 -0.173785 -4.30585e-19)
(0.985866 -0.173465 4.43187e-19)
(0.98612 -0.173083 7.2882e-19)
(0.986385 -0.17262 -7.97995e-19)
(0.986658 -0.172045 -1.41983e-18)
(0.986934 -0.17131 -2.63426e-18)
(0.987208 -0.170338 -1.73267e-18)
(0.987474 -0.168982 -5.44895e-18)
(0.98772 -0.166926 -1.04891e-17)
(0.987944 -0.163307 3.15852e-18)
(0.988339 -0.154914 1.03031e-17)
(0.986915 -0.161223 3.86383e-18)
(0.98441 -0.175685 4.89654e-20)
(0.98439 -0.175719 -1.65442e-20)
(0.984368 -0.175723 2.65129e-20)
(0.984347 -0.175726 -3.77718e-20)
(0.984325 -0.175729 8.24261e-20)
(0.984303 -0.175733 -4.12047e-20)
(0.98428 -0.175737 2.08028e-20)
(0.984258 -0.175742 -3.13566e-19)
(0.984235 -0.175747 2.60228e-19)
(0.984213 -0.175752 -5.0628e-19)
(0.984191 -0.175757 5.52999e-19)
(0.984169 -0.175763 -6.64435e-20)
(0.984147 -0.175769 -1.41034e-19)
(0.984126 -0.175776 -6.10985e-20)
(0.984105 -0.175783 -1.12785e-20)
(0.984085 -0.17579 -6.08885e-19)
(0.984066 -0.175798 4.12357e-20)
(0.984048 -0.175805 6.47743e-19)
(0.98403 -0.175813 -2.00877e-19)
(0.984013 -0.175821 -2.01521e-19)
(0.983998 -0.175829 3.46321e-19)
(0.983984 -0.175836 -1.59593e-19)
(0.983971 -0.175843 6.70046e-19)
(0.983959 -0.175849 3.39217e-19)
(0.983949 -0.175854 2.36264e-19)
(0.983941 -0.175858 -8.06455e-19)
(0.983936 -0.175859 -1.09431e-19)
(0.983932 -0.175859 -5.70717e-19)
(0.983931 -0.175855 1.12487e-19)
(0.983933 -0.175848 -1.60109e-19)
(0.983939 -0.175837 -6.28539e-20)
(0.983949 -0.175821 4.67044e-19)
(0.983964 -0.175799 -1.17868e-18)
(0.983985 -0.17577 -6.42643e-20)
(0.984012 -0.175734 -5.12834e-19)
(0.984047 -0.17569 -2.33002e-19)
(0.98409 -0.175636 2.0657e-21)
(0.984143 -0.175572 -6.26227e-19)
(0.984208 -0.175497 8.35373e-19)
(0.984284 -0.17541 1.70992e-19)
(0.984375 -0.17531 7.25441e-19)
(0.984481 -0.175195 -4.23668e-19)
(0.984604 -0.175066 -2.55544e-19)
(0.984743 -0.174921 -4.7279e-20)
(0.984901 -0.174757 2.2018e-19)
(0.985077 -0.174573 1.83182e-19)
(0.985272 -0.174363 -3.47984e-21)
(0.985484 -0.174124 -7.95044e-20)
(0.985714 -0.173846 5.71828e-20)
(0.98596 -0.173521 -1.29153e-18)
(0.98622 -0.173132 -4.85239e-19)
(0.986491 -0.172659 4.14279e-19)
(0.986771 -0.172071 -7.27388e-19)
(0.987055 -0.17132 -3.0111e-18)
(0.987336 -0.170326 6.23951e-19)
(0.987608 -0.16894 4.02066e-18)
(0.987861 -0.16684 1.36195e-17)
(0.98809 -0.163145 -1.53038e-17)
(0.988523 -0.154655 1.51004e-17)
(0.987251 -0.161052 -5.42441e-18)
(0.984386 -0.175661 -1.89788e-20)
(0.984365 -0.175695 7.58786e-20)
(0.984343 -0.175698 -1.23706e-19)
(0.98432 -0.175701 9.14594e-20)
(0.984298 -0.175705 5.80851e-20)
(0.984275 -0.175709 -6.1636e-20)
(0.984252 -0.175713 4.86699e-21)
(0.984229 -0.175718 -4.46978e-20)
(0.984206 -0.175723 -1.47106e-19)
(0.984184 -0.175729 2.80105e-19)
(0.984161 -0.175735 -4.25583e-19)
(0.984139 -0.175741 3.68638e-19)
(0.984118 -0.175748 3.14778e-19)
(0.984097 -0.175755 -4.84515e-19)
(0.984077 -0.175762 -1.51295e-19)
(0.984057 -0.17577 5.67376e-19)
(0.984039 -0.175778 -6.71503e-19)
(0.984021 -0.175786 9.05264e-19)
(0.984005 -0.175795 -1.78665e-19)
(0.98399 -0.175804 8.42949e-20)
(0.983976 -0.175812 -1.56641e-19)
(0.983963 -0.17582 -1.85784e-19)
(0.983953 -0.175829 -3.20464e-19)
(0.983944 -0.175835 5.39076e-19)
(0.983936 -0.175842 -3.67407e-19)
(0.983931 -0.175847 -3.3399e-19)
(0.983929 -0.175851 6.7536e-19)
(0.983929 -0.175852 -6.13226e-19)
(0.983932 -0.175851 9.34014e-19)
(0.983938 -0.175847 -4.98757e-19)
(0.983948 -0.175838 3.30664e-19)
(0.983963 -0.175826 -5.57214e-19)
(0.983983 -0.175808 5.38998e-19)
(0.984008 -0.175783 -8.10963e-20)
(0.98404 -0.175752 -3.63202e-20)
(0.984079 -0.175712 -2.77941e-20)
(0.984127 -0.175664 -2.54347e-19)
(0.984185 -0.175606 5.51425e-19)
(0.984254 -0.175536 -3.85875e-19)
(0.984336 -0.175454 -1.94566e-18)
(0.984431 -0.175359 -6.97998e-19)
(0.984541 -0.17525 3.93947e-19)
(0.984667 -0.175125 -4.03062e-19)
(0.984811 -0.174984 -2.82994e-19)
(0.984972 -0.174823 -3.90663e-21)
(0.985152 -0.174639 3.28481e-19)
(0.985351 -0.17443 -1.26467e-19)
(0.985568 -0.174189 1.86481e-19)
(0.985803 -0.173908 3.07806e-19)
(0.986054 -0.173577 9.67454e-19)
(0.98632 -0.173181 -1.02909e-18)
(0.986598 -0.172698 3.73017e-19)
(0.986885 -0.172097 4.49563e-18)
(0.987176 -0.171329 -1.47053e-18)
(0.987465 -0.170314 -1.71627e-18)
(0.987745 -0.168897 4.88409e-18)
(0.988004 -0.166752 -3.05697e-18)
(0.988238 -0.16298 -6.13376e-18)
(0.988707 -0.154395 -2.39768e-17)
(0.987569 -0.160875 -3.74175e-19)
(0.984361 -0.175643 2.28297e-20)
(0.984338 -0.175677 -1.01906e-19)
(0.984315 -0.175681 4.95682e-20)
(0.984292 -0.175684 9.05414e-20)
(0.984269 -0.175688 -1.91845e-19)
(0.984245 -0.175692 1.59304e-19)
(0.984222 -0.175696 -1.04415e-19)
(0.984199 -0.175701 8.7559e-20)
(0.984175 -0.175707 1.36492e-19)
(0.984152 -0.175712 -3.2486e-19)
(0.98413 -0.175719 4.61045e-19)
(0.984108 -0.175725 1.87466e-19)
(0.984086 -0.175732 -7.54681e-19)
(0.984066 -0.17574 -1.3377e-19)
(0.984046 -0.175748 3.8803e-19)
(0.984027 -0.175756 2.40403e-19)
(0.984009 -0.175765 -2.90589e-19)
(0.983993 -0.175774 2.45165e-19)
(0.983978 -0.175783 3.66097e-19)
(0.983964 -0.175793 -1.86369e-19)
(0.983951 -0.175802 -1.0355e-19)
(0.983941 -0.175811 3.38985e-19)
(0.983932 -0.175821 6.68624e-19)
(0.983925 -0.175828 -5.03601e-19)
(0.983921 -0.175837 -5.18613e-19)
(0.983918 -0.175843 5.48025e-19)
(0.983919 -0.175848 -4.19234e-19)
(0.983922 -0.175852 -1.49894e-19)
(0.983929 -0.175853 1.26863e-18)
(0.983939 -0.175851 -5.42874e-19)
(0.983953 -0.175845 -3.63692e-19)
(0.983972 -0.175836 4.96828e-19)
(0.983996 -0.175821 3.15945e-19)
(0.984026 -0.175801 -2.79434e-19)
(0.984063 -0.175774 -1.7333e-19)
(0.984108 -0.175739 4.88974e-19)
(0.984161 -0.175695 6.54488e-20)
(0.984223 -0.175641 1.56832e-19)
(0.984297 -0.175577 -6.7306e-19)
(0.984383 -0.1755 -5.99908e-19)
(0.984483 -0.17541 1.00562e-18)
(0.984597 -0.175305 6.39981e-19)
(0.984728 -0.175185 8.15332e-19)
(0.984876 -0.175046 -6.76814e-19)
(0.985041 -0.174888 -5.30087e-19)
(0.985226 -0.174706 -1.82518e-19)
(0.985429 -0.174496 9.19093e-20)
(0.985651 -0.174253 -2.41511e-19)
(0.985891 -0.173969 6.36833e-19)
(0.986148 -0.173633 1.59004e-18)
(0.986421 -0.17323 2.19996e-19)
(0.986705 -0.172737 -6.12127e-19)
(0.987 -0.172123 5.98794e-20)
(0.987299 -0.171339 2.10597e-18)
(0.987596 -0.170301 -2.58453e-18)
(0.987883 -0.168853 -1.54235e-18)
(0.988149 -0.166663 -2.73503e-18)
(0.988389 -0.162813 1.83323e-17)
(0.988891 -0.154133 1.15334e-18)
(0.987876 -0.160694 -7.51615e-19)
(0.984334 -0.175632 -3.92489e-20)
(0.984311 -0.175665 -3.07194e-20)
(0.984287 -0.175669 4.20718e-20)
(0.984263 -0.175673 1.45609e-19)
(0.984239 -0.175676 -3.10178e-19)
(0.984215 -0.175681 3.50687e-19)
(0.984191 -0.175685 -1.68305e-20)
(0.984167 -0.175691 -2.23599e-20)
(0.984143 -0.175696 -1.20223e-19)
(0.98412 -0.175702 2.84894e-19)
(0.984097 -0.175709 -4.34345e-19)
(0.984075 -0.175716 1.61766e-19)
(0.984054 -0.175723 -4.98323e-21)
(0.984033 -0.175731 2.40958e-19)
(0.984014 -0.175739 1.09361e-19)
(0.983995 -0.175748 -5.89268e-19)
(0.983978 -0.175758 5.02498e-19)
(0.983963 -0.175767 1.8854e-19)
(0.983948 -0.175777 -5.39385e-19)
(0.983936 -0.175788 2.61805e-19)
(0.983925 -0.175798 1.13646e-19)
(0.983916 -0.175808 -8.0835e-20)
(0.983909 -0.175819 8.41001e-20)
(0.983904 -0.175827 -5.73393e-20)
(0.983902 -0.175837 -5.8055e-19)
(0.983903 -0.175845 3.63626e-19)
(0.983906 -0.175852 -5.31295e-19)
(0.983913 -0.175857 9.56996e-19)
(0.983923 -0.17586 -1.86508e-19)
(0.983937 -0.175861 -1.07072e-19)
(0.983955 -0.175858 -3.29266e-20)
(0.983978 -0.175851 7.99239e-19)
(0.984006 -0.17584 -3.44595e-19)
(0.984041 -0.175823 -2.07475e-19)
(0.984082 -0.175799 4.31383e-19)
(0.984132 -0.175768 3.33764e-19)
(0.984189 -0.175729 -5.38633e-19)
(0.984257 -0.17568 1.00359e-19)
(0.984336 -0.17562 8.255e-19)
(0.984427 -0.175548 -1.07995e-19)
(0.984531 -0.175462 4.36283e-19)
(0.98465 -0.175362 -4.94645e-19)
(0.984786 -0.175245 6.79123e-19)
(0.984938 -0.17511 1.05941e-18)
(0.985108 -0.174953 1.99287e-19)
(0.985297 -0.174772 -1.80867e-19)
(0.985506 -0.174563 -1.06864e-19)
(0.985733 -0.174318 -1.07087e-19)
(0.985979 -0.174031 -2.11326e-19)
(0.986242 -0.17369 -5.36952e-19)
(0.986521 -0.173279 -1.02744e-20)
(0.986813 -0.172777 2.48417e-18)
(0.987116 -0.17215 -2.75059e-18)
(0.987423 -0.171348 2.32593e-18)
(0.987728 -0.170287 -6.01168e-18)
(0.988023 -0.168809 -1.59756e-18)
(0.988296 -0.166572 -9.62552e-18)
(0.988541 -0.162643 -1.65824e-17)
(0.989075 -0.153869 -4.65473e-18)
(0.988172 -0.160508 -3.49025e-18)
(0.984307 -0.175627 -1.94525e-20)
(0.984283 -0.175661 1.66405e-20)
(0.984258 -0.175665 8.19122e-20)
(0.984233 -0.175668 1.27356e-19)
(0.984208 -0.175672 -3.74753e-19)
(0.984183 -0.175677 2.13096e-19)
(0.984159 -0.175681 -3.73388e-19)
(0.984134 -0.175687 5.77614e-19)
(0.98411 -0.175693 -2.67336e-19)
(0.984086 -0.175699 4.61339e-20)
(0.984063 -0.175705 4.93207e-19)
(0.984041 -0.175713 -1.10936e-18)
(0.984019 -0.175721 7.44298e-19)
(0.983999 -0.175729 9.86099e-20)
(0.98398 -0.175737 1.56974e-19)
(0.983962 -0.175747 -6.65347e-19)
(0.983945 -0.175757 3.20008e-19)
(0.983931 -0.175767 -3.84758e-19)
(0.983917 -0.175777 7.39603e-19)
(0.983906 -0.175789 -1.09061e-19)
(0.983896 -0.1758 -8.93884e-19)
(0.983889 -0.175811 3.46222e-19)
(0.983884 -0.175822 -2.16639e-20)
(0.983881 -0.175832 -1.17111e-18)
(0.983881 -0.175843 8.81248e-19)
(0.983884 -0.175853 6.28028e-19)
(0.983891 -0.175861 3.98158e-19)
(0.9839 -0.175868 -5.08655e-19)
(0.983913 -0.175872 -5.16238e-19)
(0.983931 -0.175876 2.3489e-19)
(0.983953 -0.175875 3.33013e-19)
(0.98398 -0.175871 -3.74755e-19)
(0.984013 -0.175862 -5.15843e-19)
(0.984052 -0.175848 1.08195e-18)
(0.984098 -0.175829 9.01248e-20)
(0.984152 -0.175801 -1.37194e-18)
(0.984214 -0.175766 1.19912e-19)
(0.984287 -0.175721 7.82938e-19)
(0.984371 -0.175665 7.75957e-20)
(0.984467 -0.175597 8.46991e-19)
(0.984576 -0.175516 -9.00976e-19)
(0.9847 -0.175419 -1.17083e-20)
(0.98484 -0.175306 -4.39001e-19)
(0.984998 -0.175174 1.06829e-19)
(0.985173 -0.175019 3.82257e-19)
(0.985367 -0.174839 6.59879e-19)
(0.985581 -0.174629 1.5219e-20)
(0.985814 -0.174384 2.3563e-19)
(0.986066 -0.174093 -5.53871e-19)
(0.986336 -0.173747 -2.8221e-18)
(0.986622 -0.173329 3.12394e-18)
(0.986922 -0.172816 -4.90403e-18)
(0.987232 -0.172176 3.74868e-18)
(0.987548 -0.171358 2.76182e-18)
(0.987862 -0.170274 1.24662e-17)
(0.988164 -0.168764 8.87437e-19)
(0.988444 -0.166479 6.03496e-18)
(0.988696 -0.16247 8.91647e-18)
(0.98926 -0.153602 -1.06984e-17)
(0.988462 -0.160317 -1.32277e-18)
(0.98428 -0.175628 2.76052e-20)
(0.984255 -0.175662 9.35966e-21)
(0.984229 -0.175665 -9.77957e-20)
(0.984203 -0.175669 9.21645e-20)
(0.984177 -0.175673 -4.03549e-20)
(0.984151 -0.175677 7.06622e-20)
(0.984126 -0.175682 2.32963e-20)
(0.9841 -0.175688 -3.42864e-19)
(0.984076 -0.175694 1.48608e-19)
(0.984052 -0.175701 -9.68696e-20)
(0.984028 -0.175708 6.03334e-20)
(0.984006 -0.175715 2.23315e-19)
(0.983984 -0.175723 -4.22842e-20)
(0.983964 -0.175732 1.29645e-19)
(0.983945 -0.175741 -5.40472e-19)
(0.983927 -0.175751 2.08178e-19)
(0.983911 -0.175762 8.78417e-20)
(0.983897 -0.175772 -2.31882e-19)
(0.983884 -0.175783 4.50744e-19)
(0.983874 -0.175796 1.38749e-19)
(0.983866 -0.175807 -2.03501e-20)
(0.98386 -0.175819 -1.5187e-19)
(0.983856 -0.175832 5.71253e-19)
(0.983856 -0.175843 -1.52065e-18)
(0.983858 -0.175855 7.87136e-19)
(0.983864 -0.175865 3.15435e-19)
(0.983872 -0.175875 -4.97565e-19)
(0.983885 -0.175884 8.46686e-19)
(0.983901 -0.17589 -4.16331e-19)
(0.983922 -0.175895 -1.95008e-19)
(0.983948 -0.175896 -3.39648e-19)
(0.983979 -0.175895 -1.26182e-19)
(0.984016 -0.175889 3.71609e-19)
(0.984059 -0.175878 -1.01691e-18)
(0.98411 -0.175862 1.84862e-18)
(0.984168 -0.175837 -1.46413e-19)
(0.984236 -0.175806 7.7398e-19)
(0.984314 -0.175765 -1.89641e-18)
(0.984402 -0.175713 -4.9202e-19)
(0.984503 -0.175649 5.02839e-20)
(0.984618 -0.175572 -2.87729e-19)
(0.984747 -0.175479 1.42692e-20)
(0.984893 -0.175368 -7.47482e-19)
(0.985055 -0.175238 2.15988e-19)
(0.985236 -0.175086 1.97615e-19)
(0.985436 -0.174907 -5.64537e-19)
(0.985655 -0.174697 1.10983e-19)
(0.985894 -0.174449 -1.1069e-19)
(0.986153 -0.174156 -1.18777e-19)
(0.98643 -0.173804 1.99222e-18)
(0.986724 -0.173379 -9.58467e-19)
(0.987031 -0.172856 2.62925e-18)
(0.98735 -0.172203 -6.81719e-18)
(0.987674 -0.171367 -1.55541e-18)
(0.987997 -0.17026 9.21047e-18)
(0.988308 -0.168717 -4.16946e-18)
(0.988595 -0.166385 1.47612e-17)
(0.988854 -0.162294 4.32457e-18)
(0.989446 -0.153332 3.8867e-17)
(0.988746 -0.160121 4.19047e-18)
(0.984251 -0.175635 -6.24053e-21)
(0.984225 -0.175668 -2.41389e-20)
(0.984199 -0.175672 -2.05692e-20)
(0.984172 -0.175676 1.98077e-19)
(0.984145 -0.17568 -1.09249e-19)
(0.984118 -0.175685 -1.28247e-19)
(0.984092 -0.17569 -4.64568e-20)
(0.984066 -0.175695 -1.89884e-19)
(0.98404 -0.175702 1.20632e-19)
(0.984016 -0.175708 1.87174e-20)
(0.983992 -0.175716 7.8549e-21)
(0.983969 -0.175723 4.76767e-19)
(0.983947 -0.175732 -3.33691e-19)
(0.983927 -0.175741 -3.90298e-20)
(0.983908 -0.17575 3.63546e-19)
(0.983891 -0.175761 -1.98798e-19)
(0.983875 -0.175772 -7.36228e-20)
(0.983862 -0.175783 1.17064e-19)
(0.98385 -0.175795 3.61978e-19)
(0.98384 -0.175808 1.84861e-19)
(0.983833 -0.17582 5.44263e-20)
(0.983829 -0.175833 -4.71876e-19)
(0.983827 -0.175847 2.25644e-19)
(0.983828 -0.175858 4.08421e-19)
(0.983833 -0.175872 -8.56025e-19)
(0.98384 -0.175883 2.55728e-19)
(0.983852 -0.175894 -1.00251e-18)
(0.983867 -0.175905 7.90412e-19)
(0.983887 -0.175913 6.38758e-19)
(0.983911 -0.17592 -9.74906e-19)
(0.98394 -0.175923 -4.4607e-19)
(0.983975 -0.175924 5.50593e-19)
(0.984016 -0.17592 1.80284e-19)
(0.984063 -0.175912 -4.23539e-19)
(0.984118 -0.175899 -5.21134e-19)
(0.984182 -0.175877 -5.7769e-19)
(0.984254 -0.175849 3.70386e-19)
(0.984337 -0.175811 7.7727e-19)
(0.984431 -0.175763 2.83991e-19)
(0.984537 -0.175703 -1.54703e-19)
(0.984657 -0.175629 1.78935e-18)
(0.984792 -0.175539 -2.45235e-19)
(0.984943 -0.175432 1.29422e-18)
(0.985111 -0.175304 -1.76611e-18)
(0.985297 -0.175154 2.5945e-19)
(0.985503 -0.174975 4.76536e-20)
(0.985729 -0.174765 1.36147e-20)
(0.985974 -0.174516 4.98729e-19)
(0.986239 -0.174219 1.56149e-18)
(0.986524 -0.173862 -2.23753e-18)
(0.986825 -0.173429 -4.06736e-18)
(0.987141 -0.172897 -2.87547e-18)
(0.987468 -0.17223 6.73362e-18)
(0.987802 -0.171376 -4.54207e-18)
(0.988133 -0.170246 -1.33309e-17)
(0.988453 -0.168671 -7.12758e-18)
(0.988748 -0.16629 -1.44169e-17)
(0.989013 -0.162114 -9.41206e-18)
(0.989633 -0.153059 -3.83609e-17)
(0.989028 -0.15992 1.36224e-17)
(0.984222 -0.175647 8.20575e-21)
(0.984195 -0.17568 -2.43266e-20)
(0.984167 -0.175684 8.57324e-20)
(0.984139 -0.175687 2.15857e-20)
(0.984112 -0.175692 -1.14951e-19)
(0.984084 -0.175696 -1.29423e-19)
(0.984057 -0.175702 3.03501e-19)
(0.98403 -0.175708 -3.25548e-19)
(0.984004 -0.175714 -7.64292e-20)
(0.983979 -0.175721 1.95702e-19)
(0.983955 -0.175729 1.75977e-19)
(0.983931 -0.175737 5.21361e-19)
(0.983909 -0.175746 -2.95976e-19)
(0.983889 -0.175755 -4.88167e-19)
(0.98387 -0.175765 1.06513e-19)
(0.983853 -0.175776 -3.75803e-19)
(0.983838 -0.175788 2.837e-19)
(0.983825 -0.175799 -4.50425e-19)
(0.983814 -0.175812 8.22523e-20)
(0.983805 -0.175825 -1.30824e-19)
(0.983799 -0.175838 -7.32901e-20)
(0.983796 -0.175852 -3.48585e-19)
(0.983796 -0.175867 5.12723e-20)
(0.983799 -0.175879 7.49668e-19)
(0.983805 -0.175894 -2.45945e-19)
(0.983815 -0.175907 8.11538e-20)
(0.983829 -0.175919 2.16423e-19)
(0.983847 -0.175931 -2.52893e-19)
(0.983869 -0.17594 -5.02128e-20)
(0.983897 -0.175949 3.25579e-19)
(0.983929 -0.175954 3.45046e-19)
(0.983968 -0.175957 -2.42518e-19)
(0.984013 -0.175955 -7.45186e-19)
(0.984065 -0.17595 -1.00178e-18)
(0.984124 -0.175939 1.45461e-18)
(0.984192 -0.17592 3.90817e-19)
(0.984269 -0.175895 2.60805e-19)
(0.984357 -0.175861 1.01894e-18)
(0.984456 -0.175815 -8.18602e-19)
(0.984568 -0.175759 4.80506e-19)
(0.984693 -0.175688 2.23133e-20)
(0.984833 -0.175601 -3.95793e-21)
(0.98499 -0.175497 -4.74748e-19)
(0.985164 -0.175372 8.90879e-19)
(0.985357 -0.175222 -7.96528e-19)
(0.985569 -0.175045 1.97064e-19)
(0.985801 -0.174834 -4.14869e-20)
(0.986053 -0.174583 -1.10497e-19)
(0.986325 -0.174282 -8.20133e-19)
(0.986617 -0.173921 2.32071e-18)
(0.986927 -0.17348 6.4134e-19)
(0.987251 -0.172938 8.1156e-20)
(0.987588 -0.172258 1.44512e-18)
(0.98793 -0.171386 5.04679e-18)
(0.988271 -0.170231 -3.07553e-19)
(0.9886 -0.168623 -7.44014e-18)
(0.988902 -0.166192 9.14223e-18)
(0.989176 -0.161932 3.16537e-18)
(0.989822 -0.152783 4.7872e-18)
(0.989308 -0.159715 -1.04367e-17)
(0.984194 -0.175663 1.55495e-20)
(0.984165 -0.175698 -1.30695e-20)
(0.984136 -0.175702 1.16864e-20)
(0.984107 -0.175706 7.39483e-20)
(0.984078 -0.17571 1.05472e-19)
(0.98405 -0.175715 -4.09327e-19)
(0.984022 -0.17572 2.92156e-19)
(0.983994 -0.175726 5.87894e-20)
(0.983967 -0.175733 -1.89914e-20)
(0.983942 -0.17574 -1.25676e-19)
(0.983917 -0.175748 3.74043e-19)
(0.983893 -0.175756 -1.23481e-19)
(0.983871 -0.175765 -1.64598e-19)
(0.98385 -0.175775 -4.73519e-19)
(0.983831 -0.175785 9.29202e-19)
(0.983814 -0.175797 -1.95293e-19)
(0.983799 -0.175809 -1.57596e-19)
(0.983787 -0.175821 -4.4329e-19)
(0.983776 -0.175834 4.81431e-19)
(0.983769 -0.175848 2.53402e-19)
(0.983764 -0.175862 -1.21968e-19)
(0.983762 -0.175876 1.8365e-19)
(0.983763 -0.175892 -7.86939e-19)
(0.983768 -0.175905 6.45012e-20)
(0.983776 -0.17592 4.12451e-19)
(0.983788 -0.175934 -7.38928e-20)
(0.983804 -0.175948 -1.14601e-18)
(0.983824 -0.175961 1.27532e-19)
(0.98385 -0.175972 9.56903e-19)
(0.98388 -0.175982 -2.4593e-19)
(0.983916 -0.175989 -4.48014e-19)
(0.983958 -0.175994 2.53057e-19)
(0.984007 -0.175995 6.85005e-19)
(0.984063 -0.175991 1.50787e-18)
(0.984127 -0.175983 -2.2339e-19)
(0.9842 -0.175967 2.5096e-19)
(0.984282 -0.175945 -1.92277e-18)
(0.984374 -0.175913 -4.69843e-19)
(0.984479 -0.175871 2.77345e-19)
(0.984596 -0.175817 -1.06526e-18)
(0.984727 -0.17575 -1.7741e-19)
(0.984873 -0.175666 3.93689e-19)
(0.985035 -0.175564 3.08542e-19)
(0.985215 -0.17544 5.72939e-19)
(0.985414 -0.175292 1.20193e-18)
(0.985633 -0.175115 -4.53869e-19)
(0.985872 -0.174904 4.29215e-21)
(0.986131 -0.174651 -5.93131e-19)
(0.986411 -0.174347 4.15034e-20)
(0.986711 -0.17398 -2.48662e-18)
(0.987029 -0.173532 4.53152e-18)
(0.987362 -0.172979 7.09105e-18)
(0.987708 -0.172286 -6.86004e-18)
(0.98806 -0.171396 -7.23745e-18)
(0.98841 -0.170217 3.76808e-18)
(0.988748 -0.168575 2.48515e-17)
(0.989059 -0.166094 -7.03811e-18)
(0.98934 -0.161746 9.85144e-18)
(0.990013 -0.152504 1.99326e-17)
(0.989588 -0.159504 -9.12863e-18)
(0.984164 -0.175685 -1.70265e-20)
(0.984135 -0.175719 1.85177e-20)
(0.984105 -0.175723 1.23706e-19)
(0.984075 -0.175727 -1.60109e-19)
(0.984045 -0.175731 2.85594e-19)
(0.984015 -0.175736 -4.14629e-19)
(0.983986 -0.175742 1.16403e-19)
(0.983958 -0.175748 -4.91831e-21)
(0.98393 -0.175755 2.47086e-19)
(0.983903 -0.175763 -1.29337e-19)
(0.983878 -0.175771 3.67387e-20)
(0.983854 -0.17578 3.62536e-20)
(0.983831 -0.175789 -5.70213e-19)
(0.98381 -0.175799 1.72554e-19)
(0.983791 -0.17581 3.7998e-19)
(0.983774 -0.175822 9.05743e-21)
(0.983759 -0.175835 -5.99677e-19)
(0.983747 -0.175847 2.45421e-19)
(0.983738 -0.17586 1.07751e-18)
(0.98373 -0.175876 -7.01022e-19)
(0.983727 -0.17589 -5.05811e-19)
(0.983726 -0.175905 4.18383e-19)
(0.983728 -0.175921 2.54446e-19)
(0.983735 -0.175935 2.6703e-19)
(0.983744 -0.175952 -5.21991e-19)
(0.983758 -0.175967 -1.05285e-18)
(0.983777 -0.175981 8.00102e-19)
(0.9838 -0.175996 1.04756e-18)
(0.983828 -0.176008 2.51207e-19)
(0.983861 -0.17602 -5.49299e-19)
(0.983901 -0.176028 2.27093e-19)
(0.983946 -0.176035 3.57402e-19)
(0.983999 -0.176038 -6.20621e-19)
(0.984059 -0.176036 -1.19219e-19)
(0.984127 -0.176031 -9.5164e-19)
(0.984204 -0.176017 -2.10422e-19)
(0.984291 -0.175997 -1.78519e-19)
(0.984389 -0.175969 5.10334e-19)
(0.984499 -0.175929 -6.84624e-19)
(0.984621 -0.175878 1.56491e-19)
(0.984758 -0.175813 2.58003e-19)
(0.98491 -0.175732 5.14957e-20)
(0.985079 -0.175632 -1.02191e-18)
(0.985265 -0.175511 -1.07867e-18)
(0.98547 -0.175364 -6.16726e-19)
(0.985696 -0.175187 6.70844e-19)
(0.985942 -0.174975 -7.0253e-20)
(0.986208 -0.17472 2.52796e-19)
(0.986496 -0.174412 -3.18311e-19)
(0.986804 -0.17404 3.04479e-18)
(0.987131 -0.173585 -2.00931e-18)
(0.987474 -0.173021 -7.21681e-18)
(0.987829 -0.172314 4.49923e-19)
(0.988191 -0.171406 9.74728e-18)
(0.988551 -0.170202 -5.44774e-18)
(0.988899 -0.168526 -6.18992e-18)
(0.989218 -0.165993 -9.69602e-18)
(0.989508 -0.161558 -2.81107e-17)
(0.990206 -0.152222 -3.74325e-17)
(0.989869 -0.159289 2.09743e-17)
(0.984135 -0.175712 -1.46581e-20)
(0.984104 -0.175746 2.09677e-20)
(0.984073 -0.17575 4.23878e-21)
(0.984041 -0.175754 7.71564e-20)
(0.98401 -0.175758 -1.16061e-19)
(0.98398 -0.175763 -2.32695e-19)
(0.983949 -0.175769 8.39691e-20)
(0.98392 -0.175775 -1.05752e-19)
(0.983892 -0.175783 2.31161e-19)
(0.983864 -0.17579 -4.5021e-20)
(0.983838 -0.175799 -1.45121e-19)
(0.983813 -0.175808 1.20249e-19)
(0.98379 -0.175818 1.88103e-19)
(0.983769 -0.175828 5.03471e-19)
(0.98375 -0.175839 -9.04097e-19)
(0.983733 -0.175852 4.50256e-19)
(0.983718 -0.175865 6.23765e-20)
(0.983707 -0.175878 -4.20757e-19)
(0.983698 -0.175892 -2.4928e-19)
(0.983691 -0.175908 8.07596e-19)
(0.983688 -0.175923 -8.18213e-19)
(0.983688 -0.175938 2.46634e-19)
(0.983692 -0.175956 -6.01832e-19)
(0.9837 -0.17597 9.99772e-19)
(0.983711 -0.175988 -1.98005e-19)
(0.983727 -0.176004 -5.1073e-19)
(0.983748 -0.17602 4.17917e-19)
(0.983773 -0.176036 7.22291e-19)
(0.983804 -0.176049 -6.44359e-19)
(0.983841 -0.176062 3.74412e-19)
(0.983883 -0.176072 -1.18522e-18)
(0.983932 -0.176081 -9.85294e-20)
(0.983989 -0.176085 4.61114e-19)
(0.984053 -0.176086 -2.65823e-19)
(0.984125 -0.176082 -4.97958e-19)
(0.984207 -0.17607 -1.05631e-18)
(0.984299 -0.176053 1.28785e-18)
(0.984401 -0.176027 -4.93617e-19)
(0.984516 -0.17599 3.42049e-19)
(0.984645 -0.175942 6.40779e-19)
(0.984787 -0.175879 4.67794e-19)
(0.984945 -0.1758 -1.84573e-19)
(0.98512 -0.175702 5.84728e-19)