/*--------------------------------*- C++ -*----------------------------------*\
  =========                 |
  \\      /  F ield         | OpenFOAM: The Open Source CFD Toolbox
   \\    /   O peration     | Website:  https://openfoam.org
    \\  /    A nd           | Version:  6.0
     \\/     M anipulation  |
\*---------------------------------------------------------------------------*/
FoamFile
{
    version     2.0;
    format      ascii;
    class       volScalarField;
    location    "5";
    object      p;
}
// * * * * * * * * * * * * * * * * * * * * * * * * * * * * * * * * * * * * * //

dimensions      [0 2 -2 0 0 0 0];

internalField   nonuniform List<scalar> 
62000
(
0.0174041
0.0169062
0.0164068
0.0159105
0.015414
0.0149226
0.0144332
0.0139509
0.0134727
0.0130042
0.0125422
0.0120924
0.0116513
0.0112253
0.0108103
0.0104126
0.0100282
0.00966331
0.00931426
0.00898701
0.00867885
0.00839585
0.00813682
0.00790857
0.00771237
0.00755679
0.00744696
0.00739475
0.00741113
0.00751344
0.00772007
0.00805436
0.00853743
0.00919498
0.0100668
0.011209
0.0126929
0.0146057
0.0170488
0.0201339
0.023976
0.0286808
0.0343241
0.040922
0.0483917
0.0565101
0.0648787
0.072918
0.0799013
0.0850546
0.0877153
0.0874396
0.0842537
0.0784221
0.0706705
0.0617438
0.0523843
0.043137
0.0346038
0.0307957
0.0164941
0.0159155
0.0153551
0.0148149
0.014291
0.0137874
0.0133002
0.0128329
0.0123816
0.0119499
0.0115336
0.0111363
0.0107535
0.0103889
0.0100378
0.00970412
0.00938322
0.00907923
0.00878836
0.008515
0.00825679
0.00801858
0.00779994
0.00760667
0.00744103
0.00731057
0.00722163
0.007185
0.00721302
0.00732246
0.00753397
0.00787146
0.00835484
0.00900391
0.0098555
0.0109661
0.0124083
0.0142706
0.0166562
0.0196808
0.0234685
0.02814
0.0337951
0.0404844
0.0481713
0.0566888
0.0656981
0.0746724
0.0829119
0.089627
0.0940808
0.0956891
0.094298
0.0899632
0.0832376
0.0747306
0.0651079
0.0548631
0.0450342
0.0381819
0.01508
0.0145053
0.0139485
0.0134131
0.0128954
0.0123999
0.0119234
0.0114699
0.0110361
0.010626
0.0102358
0.00986932
0.00952206
0.00919784
0.00889165
0.00860699
0.00833884
0.00809055
0.00785773
0.0076438
0.00744573
0.00726737
0.00710764
0.00697137
0.00686017
0.00678059
0.00673819
0.00674258
0.00680521
0.00694164
0.00717187
0.0075179
0.00799484
0.00861563
0.00940914
0.0104258
0.0117326
0.0134106
0.0155545
0.018272
0.0216806
0.025899
0.0310312
0.037142
0.0442222
0.0521472
0.060635
0.0692246
0.0772791
0.0840524
0.0888146
0.0909369
0.0901608
0.0864097
0.0801113
0.0717685
0.0619988
0.0513057
0.0409642
0.0316947
0.0137631
0.0132527
0.012752
0.0122658
0.0117904
0.0113309
0.0108846
0.0104559
0.0100426
0.00964932
0.00927336
0.00891915
0.0085836
0.00827096
0.00797754
0.00770721
0.00745593
0.00722722
0.00701726
0.00682934
0.00666057
0.00651433
0.00638919
0.0062892
0.00621513
0.00617235
0.00616509
0.00620129
0.00629052
0.00644621
0.00668611
0.00702849
0.00748322
0.0080565
0.00876933
0.00966299
0.0107958
0.0122387
0.0140745
0.0163987
0.0193172
0.0229397
0.027367
0.0326689
0.0388542
0.0458322
0.0533723
0.06108
0.0683915
0.0746269
0.0790974
0.081175
0.0805468
0.0770521
0.0710154
0.0628674
0.053201
0.0425781
0.0322418
0.0223255
0.0126983
0.0122588
0.0118211
0.0113907
0.0109642
0.0105467
0.0101361
0.00973714
0.00934792
0.00897344
0.00861146
0.00826699
0.00793745
0.00762792
0.00733529
0.00706431
0.00681172
0.00658183
0.00637157
0.00618477
0.00601906
0.00587798
0.00576023
0.00566955
0.00560629
0.00557495
0.00557867
0.00562385
0.0057182
0.00587284
0.00610305
0.00642287
0.00683733
0.00734853
0.00796947
0.0087336
0.00969037
0.0109005
0.0124354
0.0143782
0.0168226
0.0198678
0.0236077
0.0281123
0.0334011
0.0394087
0.0459464
0.0526782
0.0591091
0.0646285
0.0686003
0.0704204
0.069748
0.0663676
0.060535
0.0526259
0.0432188
0.0329414
0.0228109
0.0132084
0.0117335
0.0113557
0.0109758
0.0105988
0.0102211
0.0098475
0.00947594
0.00911082
0.00875062
0.00840006
0.00805752
0.00772779
0.00740903
0.00710611
0.00681682
0.00654584
0.00629077
0.00605605
0.00583946
0.00564508
0.00547128
0.00532185
0.00519593
0.00509729
0.00502626
0.0049869
0.00498164
0.00501577
0.00509546
0.00522995
0.00543226
0.00571249
0.00607225
0.00651002
0.00703395
0.00767008
0.0084603
0.00945627
0.0107193
0.0123212
0.0143442
0.0168767
0.0200044
0.0237944
0.0282715
0.0333879
0.0389878
0.0447837
0.0503411
0.0551147
0.0585234
0.0599971
0.0591889
0.0558522
0.0501833
0.0425196
0.0334222
0.0235695
0.0136515
0.00466927
0.0108648
0.010534
0.0101985
0.00986343
0.0095251
0.00918792
0.00884989
0.00851513
0.00818198
0.00785493
0.00753219
0.00721847
0.00691183
0.0066173
0.00633265
0.0060628
0.00580557
0.00556574
0.00534142
0.00513695
0.00495111
0.00478788
0.00464671
0.0045314
0.00444234
0.00438329
0.00435627
0.00436577
0.00441682
0.00451716
0.00467808
0.00490628
0.00520048
0.00555825
0.00598272
0.00649511
0.00713058
0.00793313
0.0089553
0.0102592
0.0119165
0.0140056
0.0166035
0.0197725
0.0235394
0.0278682
0.0326282
0.0375717
0.0423162
0.0463748
0.0492192
0.0503175
0.0493248
0.0459752
0.0404265
0.0329811
0.0241776
0.0147241
0.00494932
-0.00340479
0.0100083
0.00971525
0.00941653
0.00911683
0.0088124
0.00850708
0.00819877
0.00789105
0.00758247
0.00727696
0.00697312
0.00667508
0.00638137
0.00609634
0.00581834
0.00555168
0.00529466
0.00505163
0.00482116
0.00460734
0.00440934
0.00423108
0.00407227
0.00393665
0.00382467
0.00373986
0.00368391
0.00366072
0.00367443
0.00373169
0.00384238
0.00401045
0.00423303
0.00450619
0.00483123
0.00522458
0.00571628
0.00634391
0.00715261
0.008196
0.00953651
0.0112431
0.0133845
0.0160171
0.0191672
0.0228066
0.0268237
0.031003
0.0350056
0.0383965
0.0406953
0.0414088
0.0402022
0.0368025
0.031329
0.0240579
0.0154982
0.00636808
-0.00335295
-0.0111838
0.00921957
0.00895216
0.00867769
0.00840102
0.00811843
0.00783373
0.00754485
0.00725536
0.00696351
0.00667323
0.00638263
0.00609592
0.00581112
0.00553285
0.00525888
0.00499377
0.00473546
0.00448852
0.0042513
0.0040279
0.00381743
0.00362372
0.00344642
0.00328911
0.00315215
0.00303876
0.00295031
0.00289017
0.00286179
0.00287089
0.00292635
0.00302983
0.00317691
0.00336442
0.00359061
0.00386943
0.0042264
0.00469375
0.00531039
0.00612264
0.00718478
0.00855731
0.0103009
0.0124659
0.0150765
0.0181097
0.0214682
0.024963
0.0282916
0.0310645
0.0328445
0.0331758
0.0317346
0.0282445
0.0228005
0.0156519
0.00727426
-0.00161808
-0.0113649
-0.0188029
0.00837449
0.00812853
0.00787542
0.0076196
0.0073573
0.00709192
0.00682137
0.00654875
0.00627255
0.00599621
0.00571824
0.00544223
0.00516664
0.00489525
0.00462636
0.0043637
0.00410556
0.00385584
0.00361313
0.00338104
0.00315882
0.00295003
0.00275429
0.00257497
0.00241232
0.00226919
0.00214668
0.00204763
0.00197485
0.00193335
0.00193107
0.00196788
0.00203876
0.00213973
0.00226884
0.00243684
0.00266596
0.00298399
0.00342449
0.00402745
0.00483994
0.00591476
0.00730509
0.00905514
0.0111863
0.0136784
0.0164455
0.0193198
0.0220301
0.0242262
0.0255093
0.0254589
0.0237657
0.020156
0.0146983
0.00762047
-0.000637889
-0.00937684
-0.0192142
-0.0263817
0.00753338
0.00730152
0.00706222
0.00681992
0.00657098
0.00631856
0.00606071
0.00580028
0.00553562
0.0052699
0.00500133
0.00473331
0.00446396
0.00419712
0.00393064
0.0036683
0.00340812
0.00315404
0.00290444
0.00266278
0.00242818
0.00220394
0.00198951
0.00178797
0.00159934
0.00142608
0.00126893
0.00113024
0.00101222
0.000919186
0.000858381
0.000828124
0.000822364
0.000838249
0.000871547
0.000931786
0.00103802
0.00121428
0.00148955
0.00189831
0.00248122
0.00328421
0.00435353
0.0057275
0.0074243
0.00942534
0.0116534
0.0139586
0.0160962
0.0177506
0.0185572
0.0181284
0.0161684
0.0124065
0.00689559
-0.000159051
-0.00835399
-0.0170097
-0.0269833
-0.0339826
0.0066347
0.00641529
0.00618892
0.00595947
0.0057233
0.00548308
0.00523687
0.00498699
0.00473213
0.00447489
0.00421399
0.00395216
0.00368805
0.00342459
0.00316024
0.00289787
0.00263589
0.00237748
0.00212126
0.00187009
0.0016232
0.0013835
0.00115036
0.000926537
0.000711868
0.000508376
0.000316467
0.000137997
-2.54167e-05
-0.000170035
-0.000289415
-0.000386418
-0.00046743
-0.000536328
-0.000596949
-0.000642314
-0.000655604
-0.000616048
-0.000498668
-0.000273893
9.32325e-05
0.000642377
0.00141343
0.00243912
0.00373422
0.00528089
0.00700889
0.0087834
0.0103821
0.0115202
0.0118634
0.0110549
0.00881391
0.00487634
-0.000723199
-0.00779766
-0.0159789
-0.0246119
-0.0347556
-0.0416696
0.00578033
0.00556578
0.00534338
0.00511733
0.00488414
0.00464664
0.00440296
0.00415563
0.003903
0.00364787
0.00338837
0.00312752
0.00286324
0.00259895
0.00233228
0.00206645
0.00179922
0.00153405
0.00126902
0.00100693
0.000746639
0.00049085
0.000238579
-7.73552e-06
-0.000248549
-0.000482289
-0.000708922
-0.000927082
-0.00113571
-0.00133169
-0.00150915
-0.00167213
-0.00182794
-0.00197962
-0.00213327
-0.00228264
-0.00241337
-0.00250756
-0.00254377
-0.00249679
-0.00233678
-0.00202969
-0.00154142
-0.000844435
7.2682e-05
0.00119237
0.00244998
0.00372375
0.00481093
0.00545419
0.00534571
0.00415834
0.00162386
-0.00251506
-0.00823429
-0.0153653
-0.0235734
-0.0322295
-0.0425646
-0.0494584
0.00484384
0.00463431
0.00441726
0.00419643
0.00396837
0.0037355
0.00349604
0.00325209
0.00300241
0.00274932
0.00249153
0.00223141
0.00196748
0.00170226
0.00143397
0.0011649
0.000893189
0.00062147
0.000348037
7.50118e-05
-0.000198662
-0.000470722
-0.000742303
-0.0010113
-0.00127841
-0.00154249
-0.00180385
-0.00206162
-0.00231529
-0.00256227
-0.00279745
-0.00302568
-0.00325467
-0.003489
-0.00373436
-0.00398689
-0.00423397
-0.00446028
-0.00464762
-0.00477472
-0.00481641
-0.00474373
-0.00452791
-0.00414621
-0.00359047
-0.00287831
-0.00206961
-0.00127493
-0.000679931
-0.00051741
-0.00107106
-0.00264088
-0.00548099
-0.0098402
-0.015707
-0.0229276
-0.0311983
-0.0399173
-0.0504601
-0.0573856
0.0039033
0.00369406
0.00347727
0.00325672
0.00302907
0.00279663
0.00255776
0.00231441
0.00206519
0.00181226
0.00155399
0.00129274
0.00102659
0.000758301
0.000485558
0.000210843
-6.81195e-05
-0.000348545
-0.000632494
-0.000917987
-0.00120635
-0.00149561
-0.0017872
-0.00207938
-0.00237312
-0.00266777
-0.00296399
-0.00326139
-0.00355998
-0.0038578
-0.00415024
-0.0044431
-0.0047451
-0.00506047
-0.00539741
-0.00575267
-0.00611579
-0.00647382
-0.0068115
-0.00711117
-0.00735184
-0.00750921
-0.00755929
-0.00748373
-0.00727741
-0.00695815
-0.00658182
-0.00624885
-0.0061297
-0.00643521
-0.00742773
-0.00938099
-0.0125374
-0.0171373
-0.0231757
-0.0305132
-0.0388749
-0.0476858
-0.0584456
-0.0654433
0.00289754
0.00268968
0.00247502
0.00225674
0.00203151
0.00180111
0.00156396
0.00132149
0.00107271
0.000819248
0.000560105
0.000296935
2.85114e-05
-0.000243391
-0.000520323
-0.000800826
-0.00108665
-0.00137588
-0.00167027
-0.00196854
-0.0022719
-0.00257883
-0.00289091
-0.00320675
-0.00352755
-0.00385312
-0.00418447
-0.00452169
-0.00486533
-0.0052139
-0.00556356
-0.00592072
-0.00629462
-0.00669159
-0.00711956
-0.00757774
-0.00805717
-0.00854717
-0.00903521
-0.00950698
-0.00994541
-0.0103304
-0.0106423
-0.010867
-0.011002
-0.0110655
-0.0111098
-0.0112263
-0.0115721
-0.0123379
-0.0137668
-0.0161081
-0.0195914
-0.0244475
-0.0306796
-0.0381596
-0.0466386
-0.0555679
-0.0665535
-0.0736571
0.00194623
0.00173336
0.00151284
0.0012883
0.0010565
0.000819543
0.000575854
0.000327185
7.21359e-05
-0.000187304
-0.00045286
-0.000722409
-0.000998031
-0.00127724
-0.00156261
-0.00185208
-0.00214824
-0.00244873
-0.00275597
-0.00306868
-0.00338851
-0.00371415
-0.0040476
-0.00438777
-0.00473622
-0.00509322
-0.00546014
-0.00583754
-0.00622647
-0.00662605
-0.00703292
-0.00745434
-0.00790066
-0.0083783
-0.00889798
-0.00945953
-0.0100561
-0.010679
-0.0113184
-0.011963
-0.0125994
-0.0132113
-0.013783
-0.014304
-0.0147745
-0.015213
-0.0156685
-0.0162241
-0.0170247
-0.0182431
-0.0201052
-0.0228362
-0.0266557
-0.0317845
-0.0382294
-0.0458727
-0.0544896
-0.0635563
-0.0747725
-0.0820085
0.000917823
0.000702025
0.000479032
0.000251993
1.76936e-05
-0.000222168
-0.000469083
-0.000721714
-0.000980985
-0.0012454
-0.00151601
-0.00179137
-0.00207286
-0.00235898
-0.00265156
-0.00294958
-0.00325513
-0.00356676
-0.0038866
-0.00421407
-0.00455075
-0.00489576
-0.00525127
-0.00561654
-0.00599338
-0.00638251
-0.00678564
-0.00720379
-0.00763857
-0.00808956
-0.00855417
-0.00904013
-0.00955845
-0.0101181
-0.0107297
-0.0113956
-0.0121103
-0.0128675
-0.0136595
-0.0144782
-0.0153132
-0.016152
-0.0169827
-0.0177978
-0.0186002
-0.0194084
-0.0202685
-0.0212563
-0.0225056
-0.0241726
-0.0264675
-0.0295935
-0.0337586
-0.0391736
-0.0458499
-0.0536774
-0.0624525
-0.0716761
-0.0831289
-0.0905203
-9.98667e-05
-0.000322323
-0.000551936
-0.000785474
-0.00102604
-0.00127204
-0.00152482
-0.0017832
-0.00204828
-0.00231868
-0.00259584
-0.00287825
-0.00316779
-0.00346259
-0.0037651
-0.00407398
-0.00439182
-0.00471686
-0.00505169
-0.00539578
-0.00575105
-0.00611682
-0.00649565
-0.0068871
-0.0072933
-0.00771546
-0.00815564
-0.00861535
-0.00909669
-0.00959985
-0.0101227
-0.0106738
-0.0112654
-0.0119068
-0.0126116
-0.013383
-0.0142175
-0.0151106
-0.0160572
-0.0170517
-0.0180871
-0.0191539
-0.0202435
-0.0213517
-0.0224833
-0.0236572
-0.0249167
-0.0263302
-0.0280218
-0.0301324
-0.0328587
-0.0363821
-0.0409013
-0.0466167
-0.05354
-0.0615684
-0.0705175
-0.0799114
-0.0916039
-0.0991688
-0.00116756
-0.00139419
-0.00162712
-0.00186382
-0.00210739
-0.00235681
-0.00261337
-0.00287643
-0.00314662
-0.00342316
-0.00370675
-0.00399665
-0.00429394
-0.00459782
-0.00490985
-0.00522979
-0.00555958
-0.0058984
-0.00624842
-0.00660985
-0.00698443
-0.00737196
-0.00777512
-0.00819383
-0.00863044
-0.00908668
-0.00956492
-0.0100672
-0.0105961
-0.0111522
-0.0117344
-0.0123515
-0.0130166
-0.0137418
-0.0145407
-0.0154191
-0.0163751
-0.017406
-0.0185091
-0.0196814
-0.0209187
-0.0222148
-0.023564
-0.024965
-0.0264246
-0.0279617
-0.029617
-0.0314525
-0.0335831
-0.0361357
-0.0392947
-0.0432213
-0.0481034
-0.0541313
-0.0613177
-0.0695648
-0.0787048
-0.0882843
-0.100222
-0.107976
-0.00215485
-0.00239191
-0.00263627
-0.00288483
-0.00314065
-0.0034023
-0.0036711
-0.00394598
-0.00422813
-0.00451623
-0.00481186
-0.00511364
-0.00542369
-0.00574025
-0.00606612
-0.00640023
-0.00674555
-0.00710061
-0.0074684
-0.00784898
-0.00824465
-0.00865531
-0.00908412
-0.00953127
-0.00999948
-0.0104909
-0.0110084
-0.0115543
-0.0121319
-0.0127423
-0.0133848
-0.0140691
-0.0148095
-0.0156188
-0.0165138
-0.0175009
-0.0185803
-0.0197513
-0.0210132
-0.0223656
-0.0238073
-0.0253344
-0.0269445
-0.0286387
-0.0304257
-0.0323242
-0.0343725
-0.0366261
-0.0391919
-0.0421837
-0.045775
-0.0501074
-0.0553609
-0.0617138
-0.0691767
-0.0776564
-0.0869997
-0.0967749
-0.10896
-0.116917
-0.00320364
-0.00344801
-0.00369928
-0.00395489
-0.00421786
-0.00448718
-0.00476409
-0.00504795
-0.0053394
-0.00563764
-0.0059435
-0.00625632
-0.00657742
-0.00690615
-0.0072444
-0.00759226
-0.00795213
-0.00832347
-0.0087089
-0.00910925
-0.00952668
-0.00996151
-0.0104171
-0.010894
-0.0113951
-0.0119231
-0.0124811
-0.013072
-0.0136996
-0.0143656
-0.01507
-0.0158228
-0.0166393
-0.0175353
-0.0185276
-0.0196254
-0.0208302
-0.0221434
-0.0235664
-0.0251013
-0.0267492
-0.0285094
-0.0303819
-0.0323702
-0.0344846
-0.0367438
-0.0391837
-0.0418537
-0.0448537
-0.0482843
-0.0523109
-0.0570556
-0.0626892
-0.0693788
-0.077133
-0.0858608
-0.0954221
-0.105405
-0.117842
-0.126014
-0.00422533
-0.00448048
-0.00474256
-0.00500888
-0.00528239
-0.00556216
-0.00584931
-0.00614333
-0.0064451
-0.00675388
-0.00707097
-0.00739556
-0.00772957
-0.0080718
-0.00842495
-0.00878859
-0.00916576
-0.00955549
-0.00996096
-0.010383
-0.010824
-0.0112847
-0.0117686
-0.0122767
-0.0128121
-0.0133782
-0.0139782
-0.0146157
-0.0152948
-0.0160179
-0.0167855
-0.0176086
-0.0185035
-0.0194868
-0.0205788
-0.0217892
-0.0231217
-0.0245795
-0.0261662
-0.0278861
-0.0297431
-0.0317388
-0.0338755
-0.0361595
-0.0386019
-0.0412218
-0.044052
-0.0471372
-0.0505691
-0.0544381
-0.0588993
-0.0640605
-0.0700827
-0.0771206
-0.085178
-0.0941655
-0.103955
-0.114154
-0.126845
-0.13524
-0.00528265
-0.00554529
-0.00581401
-0.00608687
-0.00636687
-0.00665364
-0.00694831
-0.0072509
-0.00756178
-0.00788085
-0.00820859
-0.00854505
-0.00889123
-0.00924716
-0.00961447
-0.00999399
-0.010388
-0.0107965
-0.0112223
-0.0116668
-0.0121325
-0.0126202
-0.0131339
-0.0136747
-0.014246
-0.0148517
-0.0154954
-0.016181
-0.0169133
-0.0176952
-0.0185279
-0.0194227
-0.0203971
-0.0214708
-0.0226639
-0.023989
-0.0254515
-0.0270562
-0.0288089
-0.0307162
-0.0327846
-0.0350179
-0.0374212
-0.0400022
-0.0427742
-0.045755
-0.0489762
-0.0524761
-0.0563412
-0.060649
-0.0655498
-0.071134
-0.0775542
-0.0849522
-0.0933266
-0.102588
-0.112618
-0.123044
-0.135991
-0.144619
-0.00623712
-0.00651377
-0.00679769
-0.00708625
-0.00738245
-0.00768541
-0.00799635
-0.00831479
-0.00864176
-0.00897649
-0.00932052
-0.00967307
-0.0100364
-0.0104094
-0.0107951
-0.0111933
-0.0116077
-0.0120373
-0.0124859
-0.0129548
-0.013447
-0.0139634
-0.0145085
-0.0150835
-0.0156924
-0.0163393
-0.0170283
-0.0177638
-0.018551
-0.0193935
-0.0202928
-0.0212614
-0.0223178
-0.0234826
-0.0247793
-0.0262213
-0.0278159
-0.02957
-0.0314914
-0.033589
-0.0358716
-0.0383456
-0.0410179
-0.0438987
-0.0470017
-0.0503452
-0.0539573
-0.0578732
-0.0621702
-0.0669191
-0.0722577
-0.0782714
-0.0850987
-0.0928674
-0.101569
-0.111114
-0.121393
-0.132051
-0.145257
-0.154122
-0.00723573
-0.00752249
-0.00781623
-0.00811487
-0.00842139
-0.00873539
-0.00905795
-0.00938905
-0.00972912
-0.010078
-0.0104363
-0.0108041
-0.0111828
-0.0115725
-0.0119752
-0.0123922
-0.0128261
-0.0132773
-0.013749
-0.0142434
-0.0147632
-0.0153098
-0.0158879
-0.0164989
-0.0171472
-0.0178371
-0.0185732
-0.0193604
-0.0202044
-0.0211091
-0.0220771
-0.023121
-0.0242606
-0.0255195
-0.0269213
-0.0284823
-0.0302113
-0.0321172
-0.0342096
-0.0365001
-0.0389996
-0.0417169
-0.0446609
-0.0478439
-0.0512799
-0.0549882
-0.0589927
-0.0633266
-0.0680577
-0.0732501
-0.0790328
-0.0854825
-0.092727
-0.100879
-0.109921
-0.119762
-0.130301
-0.1412
-0.154666
-0.163774
-0.00818678
-0.00848697
-0.00879434
-0.00910662
-0.00942676
-0.0097544
-0.0100906
-0.0104353
-0.0107895
-0.0111527
-0.0115264
-0.0119103
-0.0123066
-0.0127145
-0.0131372
-0.013575
-0.0140318
-0.014507
-0.0150046
-0.0155267
-0.0160764
-0.0166552
-0.0172683
-0.0179172
-0.0186066
-0.0193415
-0.0201266
-0.0209672
-0.0218697
-0.0228385
-0.0238768
-0.0249978
-0.026223
-0.0275767
-0.0290861
-0.030768
-0.0326337
-0.0346939
-0.0369604
-0.0394468
-0.0421666
-0.0451305
-0.0483498
-0.051838
-0.0556104
-0.0596857
-0.0640851
-0.0688392
-0.0740057
-0.0796451
-0.0858703
-0.0927646
-0.100435
-0.10898
-0.118371
-0.128517
-0.139323
-0.150466
-0.164191
-0.173547
-0.00915285
-0.00946253
-0.00977867
-0.0100999
-0.0104291
-0.0107668
-0.0111137
-0.0114707
-0.0118378
-0.0122156
-0.0126044
-0.013005
-0.0134185
-0.0138455
-0.0142879
-0.0147475
-0.0152272
-0.0157275
-0.0162519
-0.0168031
-0.0173842
-0.017997
-0.0186467
-0.0193354
-0.0200678
-0.0208493
-0.0216852
-0.0225811
-0.0235438
-0.0245784
-0.0256888
-0.0268886
-0.0282002
-0.0296516
-0.0312698
-0.0330749
-0.0350795
-0.0372966
-0.0397397
-0.042425
-0.0453682
-0.0485819
-0.0520797
-0.0558762
-0.0599883
-0.0644336
-0.0692315
-0.0744088
-0.080015
-0.0861051
-0.0927817
-0.100126
-0.108234
-0.117183
-0.126936
-0.137397
-0.148479
-0.159873
-0.173859
-0.183465
-0.0099897
-0.0103161
-0.0106506
-0.0109911
-0.0113405
-0.0116984
-0.0120661
-0.0124435
-0.0128317
-0.0132302
-0.0136406
-0.0140627
-0.0144991
-0.0149488
-0.0154157
-0.0159001
-0.0164065
-0.0169342
-0.0174881
-0.0180703
-0.0186848
-0.0193331
-0.0200213
-0.0207513
-0.0215283
-0.0223582
-0.0232465
-0.0241993
-0.0252239
-0.0263259
-0.0275097
-0.0287898
-0.0301902
-0.0317396
-0.033469
-0.0353991
-0.0375452
-0.039922
-0.0425451
-0.0454328
-0.048603
-0.0520707
-0.0558508
-0.0599602
-0.0644157
-0.0692355
-0.074435
-0.0800403
-0.0860886
-0.0926353
-0.0997624
-0.107568
-0.116121
-0.125483
-0.135605
-0.146387
-0.15775
-0.169397
-0.183642
-0.1935
-0.0108634
-0.011202
-0.0115488
-0.0119022
-0.0122652
-0.0126378
-0.0130212
-0.0134157
-0.0138216
-0.0142392
-0.0146692
-0.0151121
-0.0155695
-0.0160418
-0.0165318
-0.0170411
-0.0175734
-0.0181293
-0.0187128
-0.0193272
-0.0199762
-0.0206615
-0.0213896
-0.0221625
-0.0229858
-0.0238657
-0.0248081
-0.0258194
-0.0269075
-0.0280783
-0.0293371
-0.0306989
-0.0321886
-0.0338388
-0.0356805
-0.0377379
-0.0400281
-0.0425674
-0.0453736
-0.048467
-0.0518678
-0.055593
-0.0596596
-0.0640856
-0.0688889
-0.074087
-0.0796936
-0.0857311
-0.0922282
-0.0992371
-0.106826
-0.115098
-0.124106
-0.133891
-0.144393
-0.155507
-0.167157
-0.179062
-0.193564
-0.203676
-0.0116892
-0.0120436
-0.0124067
-0.0127765
-0.0131562
-0.0135458
-0.0139464
-0.0143584
-0.0147826
-0.015219
-0.0156691
-0.016133
-0.0166131
-0.0171091
-0.0176246
-0.0181605
-0.0187215
-0.0193074
-0.0199231
-0.0205714
-0.0212566
-0.0219807
-0.0227503
-0.0235677
-0.0244389
-0.0253703
-0.0263683
-0.0274395
-0.0285925
-0.0298336
-0.0311685
-0.0326134
-0.0341946
-0.0359459
-0.0379023
-0.0400892
-0.0425261
-0.0452311
-0.0482239
-0.0515267
-0.0551624
-0.0591496
-0.0635075
-0.068255
-0.0734113
-0.0789932
-0.0850117
-0.0914872
-0.098438
-0.105916
-0.113969
-0.122718
-0.132188
-0.142403
-0.15329
-0.164741
-0.176681
-0.188843
-0.203601
-0.213965
-0.0125362
-0.0129018
-0.0132756
-0.0136566
-0.0140479
-0.0144502
-0.0148646
-0.0152921
-0.0157329
-0.0161878
-0.0166572
-0.0171421
-0.017644
-0.0181638
-0.018704
-0.0192668
-0.019856
-0.0204725
-0.0211204
-0.0218037
-0.0225262
-0.0232902
-0.0241027
-0.0249662
-0.0258866
-0.0268711
-0.027926
-0.0290586
-0.0302778
-0.0315903
-0.0330029
-0.034532
-0.0362055
-0.0380607
-0.0401334
-0.0424521
-0.0450384
-0.0479121
-0.0510945
-0.0546104
-0.0584846
-0.0627381
-0.0673915
-0.0724655
-0.0779797
-0.0839509
-0.0903873
-0.0973077
-0.10472
-0.112676
-0.121205
-0.130436
-0.140376
-0.15103
-0.162311
-0.174106
-0.186343
-0.198764
-0.213774
-0.224392
-0.0132527
-0.0136376
-0.0140327
-0.0144359
-0.0148505
-0.0152765
-0.0157151
-0.0161666
-0.0166321
-0.0171114
-0.0176062
-0.0181166
-0.0186454
-0.0191921
-0.019761
-0.020353
-0.0209736
-0.0216222
-0.0223047
-0.0230242
-0.0237855
-0.0245907
-0.0254474
-0.026358
-0.027329
-0.0283679
-0.029481
-0.0306762
-0.0319627
-0.033348
-0.0348393
-0.0364543
-0.0382223
-0.0401822
-0.0423735
-0.0448263
-0.0475647
-0.0506099
-0.0539854
-0.0577182
-0.0618354
-0.0663601
-0.0713144
-0.0767207
-0.0825989
-0.0889658
-0.0958265
-0.103199
-0.111079
-0.119521
-0.128531
-0.138255
-0.148672
-0.159768
-0.171447
-0.183589
-0.196122
-0.2088
-0.224059
-0.234928
-0.0140167
-0.0144156
-0.0148249
-0.0152431
-0.0156736
-0.0161167
-0.0165735
-0.017045
-0.0175312
-0.0180327
-0.0185502
-0.0190847
-0.019638
-0.020211
-0.0208068
-0.0214278
-0.0220786
-0.0227599
-0.0234768
-0.0242336
-0.0250346
-0.0258823
-0.0267845
-0.0277438
-0.0287667
-0.0298611
-0.0310337
-0.0322926
-0.0336476
-0.0351068
-0.0366784
-0.0383806
-0.0402442
-0.0423116
-0.0446233
-0.0472125
-0.0501052
-0.0533246
-0.0568962
-0.0608494
-0.0652137
-0.070014
-0.0752744
-0.0810183
-0.0872667
-0.0940354
-0.101328
-0.109159
-0.117517
-0.126455
-0.13596
-0.146181
-0.157081
-0.168627
-0.180712
-0.193207
-0.20604
-0.218975
-0.234478
-0.245597
-0.0147421
-0.0151578
-0.0155846
-0.0160205
-0.0164688
-0.0169302
-0.0174057
-0.0178964
-0.0184027
-0.0189253
-0.0194655
-0.020024
-0.0206035
-0.0212038
-0.0218293
-0.0224814
-0.0231657
-0.0238821
-0.0246363
-0.0254324
-0.0262752
-0.027167
-0.0281162
-0.0291254
-0.0302012
-0.0313521
-0.032585
-0.0339085
-0.035333
-0.0368674
-0.0385204
-0.0403115
-0.0422728
-0.0444486
-0.0468828
-0.0496104
-0.0526597
-0.056056
-0.0598271
-0.0640046
-0.0686207
-0.0737022
-0.0792747
-0.0853628
-0.0919883
-0.0991663
-0.106898
-0.115196
-0.12404
-0.133483
-0.143489
-0.154219
-0.165606
-0.177604
-0.190096
-0.202945
-0.216076
-0.229266
-0.245008
-0.256373
-0.0154622
-0.0158895
-0.0163278
-0.0167767
-0.0172391
-0.0177167
-0.01821
-0.0187208
-0.0192489
-0.0197954
-0.0203607
-0.0209463
-0.0215537
-0.0221842
-0.0228406
-0.023526
-0.0242447
-0.0249977
-0.0257902
-0.0266269
-0.0275124
-0.0284493
-0.0294462
-0.0305058
-0.031635
-0.0328428
-0.0341364
-0.035525
-0.0370197
-0.0386299
-0.0403656
-0.0422466
-0.0443064
-0.0465929
-0.0491512
-0.0520193
-0.0552276
-0.0588036
-0.0627772
-0.067183
-0.0720554
-0.0774232
-0.0833135
-0.0897521
-0.0967616
-0.104356
-0.112536
-0.121308
-0.130649
-0.140607
-0.151128
-0.162371
-0.17425
-0.186708
-0.199614
-0.212821
-0.226252
-0.239693
-0.255669
-0.267279
-0.0160084
-0.0164646
-0.016937
-0.0174221
-0.017922
-0.018436
-0.0189653
-0.0195102
-0.020072
-0.0206503
-0.021248
-0.0218645
-0.0225044
-0.0231666
-0.0238567
-0.0245757
-0.0253301
-0.0261195
-0.0269504
-0.027827
-0.0287548
-0.0297359
-0.0307797
-0.0318889
-0.0330708
-0.0343348
-0.0356887
-0.0371421
-0.038707
-0.0403934
-0.042212
-0.0441838
-0.0463437
-0.0487418
-0.0514266
-0.0544373
-0.0578073
-0.0615661
-0.0657463
-0.0703848
-0.0755189
-0.0811791
-0.0873942
-0.0941908
-0.101592
-0.109612
-0.118247
-0.127503
-0.13735
-0.147831
-0.158875
-0.170641
-0.183018
-0.195935
-0.209255
-0.222819
-0.236546
-0.250236
-0.266437
-0.278288
-0.0169447
-0.0173988
-0.0178653
-0.0183443
-0.0188395
-0.0193524
-0.0198837
-0.0204349
-0.0210061
-0.0215977
-0.0222108
-0.0228463
-0.0235067
-0.0241926
-0.0249078
-0.025655
-0.0264395
-0.0272617
-0.0281273
-0.0290412
-0.0300085
-0.0310317
-0.0321202
-0.0332771
-0.0345097
-0.0358284
-0.0372412
-0.0387584
-0.0403927
-0.0421549
-0.0440569
-0.0461198
-0.0483807
-0.0508929
-0.0537059
-0.0568621
-0.0603967
-0.0643418
-0.0687324
-0.0736084
-0.0790095
-0.0849683
-0.0915146
-0.0986764
-0.106477
-0.11493
-0.12403
-0.133779
-0.144141
-0.155156
-0.166735
-0.179028
-0.191909
-0.205294
-0.219033
-0.232957
-0.24698
-0.260913
-0.277334
-0.289422
-0.0176566
-0.0181409
-0.0186405
-0.0191528
-0.0196804
-0.0202233
-0.0207828
-0.0213595
-0.0219552
-0.0225693
-0.0232053
-0.0238623
-0.0245459
-0.0252547
-0.0259949
-0.0267676
-0.02758
-0.0284312
-0.0293282
-0.0302753
-0.0312785
-0.0323398
-0.0334695
-0.0346707
-0.0359512
-0.0373219
-0.0387914
-0.0403706
-0.0420733
-0.0439108
-0.0458958
-0.0480509
-0.0504143
-0.0530415
-0.0559857
-0.05929
-0.0629928
-0.0671282
-0.0717341
-0.0768531
-0.0825278
-0.0887922
-0.0956776
-0.103213
-0.111422
-0.120317
-0.129891
-0.140142
-0.151029
-0.162586
-0.174708
-0.187538
-0.200929
-0.214782
-0.22894
-0.24322
-0.257534
-0.271705
-0.288337
-0.300656
-0.0187035
-0.0191902
-0.0196883
-0.0201982
-0.0207239
-0.0212672
-0.0218291
-0.0224113
-0.0230141
-0.0236379
-0.0242844
-0.0249545
-0.0256517
-0.0263763
-0.0271332
-0.0279249
-0.028758
-0.0296323
-0.0305546
-0.0315298
-0.0325637
-0.0336587
-0.0348253
-0.036067
-0.0373918
-0.0388116
-0.0403353
-0.0419748
-0.0437445
-0.0456566
-0.047725
-0.0499725
-0.0524391
-0.0551842
-0.0582615
-0.0617173
-0.065592
-0.0699223
-0.0747486
-0.0801165
-0.086071
-0.0926482
-0.0998804
-0.107798
-0.116424
-0.12577
-0.135827
-0.14659
-0.158011
-0.170121
-0.182796
-0.196169
-0.210075
-0.224405
-0.238986
-0.253624
-0.268227
-0.282631
-0.299466
-0.312011
-0.0194978
-0.0200201
-0.0205565
-0.021104
-0.0216656
-0.0222413
-0.0228328
-0.0234407
-0.0240671
-0.0247116
-0.025378
-0.0260657
-0.0267809
-0.0275225
-0.0282973
-0.029107
-0.0299595
-0.030854
-0.0317985
-0.0327977
-0.0338583
-0.0349827
-0.0361822
-0.0374606
-0.0388264
-0.0402924
-0.041868
-0.0435659
-0.0454014
-0.0473875
-0.0495388
-0.0518796
-0.0544512
-0.0573151
-0.0605288
-0.0641397
-0.0681907
-0.0727211
-0.0777738
-0.0833972
-0.0896392
-0.0965374
-0.104125
-0.112434
-0.121487
-0.131294
-0.141844
-0.153129
-0.165093
-0.177765
-0.191001
-0.204926
-0.219354
-0.234161
-0.249163
-0.264154
-0.27904
-0.293671
-0.310699
-0.323463
-0.020668
-0.0211942
-0.0217292
-0.0222728
-0.0228299
-0.0234021
-0.0239913
-0.0245991
-0.0252266
-0.0258742
-0.0265445
-0.0272383
-0.0279599
-0.0287099
-0.0294939
-0.0303148
-0.03118
-0.0320896
-0.033051
-0.0340701
-0.0351531
-0.0363033
-0.0375322
-0.0388442
-0.0402482
-0.0417579
-0.0433833
-0.0451379
-0.0470381
-0.0490975
-0.0513322
-0.0537666
-0.0564442
-0.0594304
-0.062783
-0.0665528
-0.070785
-0.0755208
-0.0808061
-0.086692
-0.0932291
-0.100456
-0.108409
-0.117118
-0.126607
-0.136885
-0.147938
-0.159754
-0.172273
-0.185514
-0.199322
-0.213804
-0.228762
-0.244054
-0.259482
-0.274826
-0.289992
-0.304844
-0.322056
-0.335036
-0.0216118
-0.0221631
-0.0227222
-0.0232879
-0.0238657
-0.024456
-0.0250625
-0.0256854
-0.0263283
-0.0269897
-0.0276745
-0.0283814
-0.0291173
-0.0298804
-0.0306785
-0.031513
-0.0323929
-0.0333175
-0.0342954
-0.0353327
-0.0364363
-0.0376099
-0.0388659
-0.040209
-0.0416489
-0.0432004
-0.044874
-0.0466842
-0.0486482
-0.0507809
-0.0530989
-0.0556285
-0.0584143
-0.061524
-0.0650195
-0.0689523
-0.0733706
-0.078318
-0.0838429
-0.0899993
-0.0968401
-0.104406
-0.112733
-0.121853
-0.131789
-0.142549
-0.154116
-0.166474
-0.179555
-0.193377
-0.207762
-0.222812
-0.238306
-0.254085
-0.269934
-0.285627
-0.301065
-0.316131
-0.333519
-0.346708
-0.0225507
-0.0231263
-0.0237101
-0.0242999
-0.0249011
-0.0255137
-0.0261407
-0.0267827
-0.0274423
-0.0281188
-0.0288162
-0.0295349
-0.0302806
-0.0310533
-0.0318604
-0.0327046
-0.0335947
-0.034531
-0.0355222
-0.036575
-0.0376969
-0.0388918
-0.0401729
-0.0415455
-0.0430199
-0.0446118
-0.0463325
-0.0481974
-0.0502252
-0.0524311
-0.0548337
-0.0574592
-0.0603547
-0.0635918
-0.0672332
-0.0713335
-0.0759435
-0.0811089
-0.0868807
-0.0933154
-0.100469
-0.108382
-0.117093
-0.126634
-0.137028
-0.14828
-0.160372
-0.173282
-0.186936
-0.201346
-0.21632
-0.231944
-0.247982
-0.264255
-0.280531
-0.29657
-0.312276
-0.327551
-0.345107
-0.358501
-0.0234996
-0.0240925
-0.0246928
-0.0252985
-0.0259146
-0.0265414
-0.027182
-0.0278371
-0.0285097
-0.0291988
-0.029909
-0.0306397
-0.0313978
-0.0321824
-0.0330014
-0.0338574
-0.0347598
-0.0357088
-0.0367138
-0.0377821
-0.0389216
-0.0401371
-0.0414424
-0.0428435
-0.0443513
-0.0459828
-0.0477502
-0.0496698
-0.0517612
-0.0540413
-0.056529
-0.0592527
-0.0622607
-0.0656272
-0.0694191
-0.073692
-0.0784996
-0.0838902
-0.0899167
-0.0966386
-0.104114
-0.112386
-0.121492
-0.131465
-0.142329
-0.154086
-0.166713
-0.180186
-0.194422
-0.20943
-0.225
-0.241209
-0.257797
-0.274565
-0.291263
-0.307643
-0.32361
-0.339086
-0.356801
-0.370394
-0.0245284
-0.0251318
-0.0257408