/*--------------------------------*- C++ -*----------------------------------*\
  =========                 |
  \\      /  F ield         | OpenFOAM: The Open Source CFD Toolbox
   \\    /   O peration     | Website:  https://openfoam.org
    \\  /    A nd           | Version:  6.0
     \\/     M anipulation  |
\*---------------------------------------------------------------------------*/
FoamFile
{
    version     2.0;
    format      ascii;
    class       surfaceScalarField;
    location    "5";
    object      phi;
}
// * * * * * * * * * * * * * * * * * * * * * * * * * * * * * * * * * * * * * //

dimensions      [0 3 -1 0 0 0 0];

internalField   nonuniform List<scalar> 
123526
(
-5.30698e-05
2.30591e-05
5.34843e-05
-5.26333e-05
2.49389e-05
-5.21706e-05
2.69723e-05
-5.16699e-05
2.9172e-05
-5.11378e-05
3.15515e-05
-5.05618e-05
3.41256e-05
-4.99478e-05
3.69102e-05
-4.92837e-05
3.99225e-05
-4.85723e-05
4.31805e-05
-4.78021e-05
4.67049e-05
-4.69742e-05
5.05184e-05
-4.60788e-05
5.4644e-05
-4.51126e-05
5.91074e-05
-4.4065e-05
6.39338e-05
-4.29277e-05
6.91548e-05
-4.16972e-05
7.48073e-05
-4.03631e-05
8.09234e-05
-3.89124e-05
8.75345e-05
-3.73342e-05
9.46911e-05
-3.56262e-05
0.000102439
-3.3764e-05
0.000110816
-3.17412e-05
0.00011988
-2.95457e-05
0.000129696
-2.71533e-05
0.0001403
-2.45542e-05
0.000151787
-2.17323e-05
0.000164207
-1.86591e-05
0.000177638
-1.53283e-05
0.00019217
-1.17007e-05
0.00020787
-7.77146e-06
0.000224851
-3.49729e-06
0.000243185
1.13666e-06
0.000262992
6.17057e-06
0.000284364
1.16291e-05
0.000307418
1.75311e-05
0.000332269
2.39171e-05
0.00035901
3.08056e-05
0.000387772
3.82352e-05
0.000418639
4.6244e-05
0.000451701
5.4859e-05
0.000487043
6.4118e-05
0.000524698
7.40667e-05
0.000564663
8.47464e-05
0.000606886
9.62063e-05
0.000651218
0.000108503
0.000697389
0.000121697
0.000744971
0.000135843
0.000793324
0.000150986
0.000841544
0.000167139
0.000888413
0.000184269
0.000932346
0.000202292
0.000971357
0.00022104
0.00100301
0.000240319
0.00102434
0.000259805
0.00103178
0.000279182
0.00102091
0.000297968
0.000986326
0.000315661
0.000921187
0.000331702
0.000817161
0.000344089
0.000663754
0.000432286
0.000340591
-5.28237e-05
2.26715e-05
5.32261e-05
-5.23925e-05
2.45183e-05
-5.19303e-05
2.65163e-05
-5.1427e-05
2.8678e-05
-5.08876e-05
3.10168e-05
-5.03013e-05
3.35473e-05
-4.96726e-05
3.62854e-05
-4.89918e-05
3.9248e-05
-4.82607e-05
4.24519e-05
-4.747e-05
4.59185e-05
-4.662e-05
4.96704e-05
-4.57036e-05
5.37299e-05
-4.47162e-05
5.81221e-05
-4.36503e-05
6.28694e-05
-4.24967e-05
6.8004e-05
-4.1254e-05
7.35665e-05
-3.99118e-05
7.95851e-05
-3.84584e-05
8.60837e-05
-3.68836e-05
9.31211e-05
-3.51851e-05
0.000100744
-3.33406e-05
0.000108977
-3.13425e-05
0.000117886
-2.91816e-05
0.000127541
-2.68319e-05
0.000137955
-2.42872e-05
0.000149249
-2.15289e-05
0.000161453
-1.85334e-05
0.000174649
-1.52909e-05
0.000188933
-1.17678e-05
0.000204353
-7.95566e-06
0.000221044
-3.81724e-06
0.000239051
6.63676e-07
0.000258518
5.52434e-06
0.000279514
1.07895e-05
0.000302167
1.64818e-05
0.000326592
2.26436e-05
0.000352861
2.92962e-05
0.000381132
3.6482e-05
0.000411466
4.42446e-05
0.000443952
5.26183e-05
0.000478682
6.16498e-05
0.00051568
7.13939e-05
0.000554932
8.19011e-05
0.000596392
9.32273e-05
0.000639903
0.000105432
0.000685194
0.000118573
0.000731836
0.000132696
0.000779199
0.000147829
0.0008264
0.000163961
0.000872253
0.000181038
0.000915221
0.000198956
0.000953372
0.000217534
0.000984329
0.000236579
0.0010052
0.000255774
0.00101248
0.000274824
0.00100178
0.000293266
0.000967774
0.000310623
0.000903754
0.000326353
0.00080133
0.000335637
0.000654405
0.000436028
0.000331768
-5.32468e-05
2.22914e-05
5.3641e-05
-5.28232e-05
2.41047e-05
-5.23674e-05
2.60664e-05
-5.18697e-05
2.81888e-05
-5.13335e-05
3.04852e-05
-5.07489e-05
3.29701e-05
-5.0119e-05
3.56592e-05
-4.94343e-05
3.85694e-05
-4.86958e-05
4.17163e-05
-4.78948e-05
4.5122e-05
-4.70308e-05
4.88095e-05
-4.60978e-05
5.28002e-05
-4.50912e-05
5.71188e-05
-4.40043e-05
6.17851e-05
-4.28284e-05
6.68321e-05
-4.15633e-05
7.23039e-05
-4.01989e-05
7.82254e-05
-3.87252e-05
8.46129e-05
-3.71322e-05
9.15333e-05
-3.54192e-05
9.90345e-05
-3.35643e-05
0.000107127
-3.1561e-05
0.000115886
-2.94008e-05
0.000125387
-2.70586e-05
0.000135617
-2.45291e-05
0.000146726
-2.17936e-05
0.000158723
-1.88303e-05
0.000171692
-1.56289e-05
0.000185737
-1.21576e-05
0.000200888
-8.40746e-06
0.0002173
-4.34347e-06
0.000234992
5.06317e-08
0.00025413
4.81114e-06
0.000274764
9.96672e-06
0.000297026
1.55404e-05
0.000321032
2.15771e-05
0.000346838
2.81007e-05
0.000374621
3.5156e-05
0.000404423
4.27896e-05
0.00043633
5.10393e-05
0.000470445
5.99553e-05
0.000506776
6.95954e-05
0.000545303
8.00121e-05
0.000585984
9.12606e-05
0.000628663
0.000103397
0.000673063
0.000116471
0.000718765
0.000130518
0.000765152
0.000145552
0.000811364
0.000161548
0.000856251
0.000178442
0.00089832
0.00019612
0.000935692
0.000214402
0.00096604
0.000233105
0.000986525
0.000251922
0.000993666
0.000270575
0.000983185
0.000288606
0.000949772
0.00030555
0.000886894
0.000320772
0.000786167
0.000330288
0.000645004
0.00043643
0.000330044
-5.33006e-05
2.19157e-05
5.36858e-05
-5.28857e-05
2.36972e-05
-5.24394e-05
2.56243e-05
-5.1953e-05
2.7709e-05
-5.14291e-05
2.99645e-05
-5.08582e-05
3.2405e-05
-5.02423e-05
3.5046e-05
-4.95729e-05
3.79043e-05
-4.88492e-05
4.09946e-05
-4.80638e-05
4.43391e-05
-4.72142e-05
4.79616e-05
-4.62956e-05
5.18825e-05
-4.53012e-05
5.61263e-05
-4.4226e-05
6.07102e-05
-4.30594e-05
6.56682e-05
-4.18028e-05
7.1048e-05
-4.04447e-05
7.6871e-05
-3.89767e-05
8.31466e-05
-3.73884e-05
8.99497e-05
-3.56802e-05
9.7329e-05
-3.38306e-05
0.000105283
-3.18341e-05
0.000113893
-2.96825e-05
0.000123241
-2.7352e-05
0.000133291
-2.48375e-05
0.000144217
-2.21214e-05
0.000156012
-1.91823e-05
0.000168759
-1.60103e-05
0.000182571
-1.25748e-05
0.000197458
-8.86662e-06
0.000213597
-4.85218e-06
0.000230982
-5.15326e-07
0.000249799
4.18181e-06
0.000270078
9.26657e-06
0.000291954
1.47653e-05
0.000315547
2.07229e-05
0.000340892
2.71646e-05
0.000368191
3.41363e-05
0.000397463
4.16853e-05
0.000428793
4.98507e-05
0.000462292
5.86831e-05
0.000497956
6.824e-05
0.000535759
7.85727e-05
0.000575667
8.97337e-05
0.000617518
0.000101774
0.000661039
0.000114738
0.000705819
0.000128651
0.000751256
0.000143519
0.000796513
0.00015931
0.000840473
0.000175955
0.000881684
0.000193338
0.000918311
0.000211285
0.000948078
0.000229619
0.0009682
0.000248046
0.000975244
0.000266294
0.000964966
0.000283914
0.000932158
0.000300438
0.000870399
0.000315149
0.000771467
0.000325492
0.000634699
0.000433796
0.000328145
-5.2958e-05
2.15493e-05
5.33392e-05
-5.25517e-05
2.33006e-05
-5.2116e-05
2.51949e-05
-5.16425e-05
2.72438e-05
-5.11335e-05
2.94604e-05
-5.05799e-05
3.18586e-05
-4.99836e-05
3.44537e-05
-4.93356e-05
3.72621e-05
-4.86355e-05
4.02976e-05
-4.78747e-05
4.35827e-05
-4.70516e-05
4.71416e-05
-4.61597e-05
5.09937e-05
-4.51935e-05
5.51635e-05
-4.41462e-05
5.96652e-05
-4.30081e-05
6.45341e-05
-4.17793e-05
6.98213e-05
-4.04489e-05
7.55451e-05
-3.90078e-05
8.17078e-05
-3.74458e-05
8.83926e-05
-3.5763e-05
9.56489e-05
-3.39383e-05
0.000103463
-3.19665e-05
0.000111925
-2.98395e-05
0.000121119
-2.75344e-05
0.000130989
-2.50465e-05
0.000141735
-2.23587e-05
0.000153328
-1.94503e-05
0.000165857
-1.6312e-05
0.000179438
-1.29137e-05
0.000194065
-9.24677e-06
0.000209935
-5.27791e-06
0.000227018
-9.90931e-07
0.000245519
3.65015e-06
0.000265446
8.67612e-06
0.000286942
1.41113e-05
0.000310125
2.0002e-05
0.000335013
2.63738e-05
0.00036183
3.32724e-05
0.000390575
4.07453e-05
0.000421331
4.88313e-05
0.000454216
5.75803e-05
0.000489217
6.70486e-05
0.0005263
7.72852e-05
0.000565438
8.83393e-05
0.000606471
0.000100258
0.000649127
0.000113079
0.000693004
0.000126822
0.000737517
0.000141488
0.000781854
0.000157041
0.000824927
0.000173409
0.000865324
0.000190479
0.000901258
0.000208082
0.000930492
0.000226047
0.000950284
0.00024409
0.000957234
0.000261945
0.000947185
0.000279171
0.000914981
0.000295296
0.000854365
0.00030955
0.000757279
0.000320412
0.000623949
0.000429578
0.000324774
-5.23771e-05
2.11913e-05
5.2745e-05
-5.19828e-05
2.29134e-05
-5.15594e-05
2.47759e-05
-5.10997e-05
2.67904e-05
-5.06055e-05
2.89696e-05
-5.00686e-05
3.13272e-05
-4.94902e-05
3.38782e-05
-4.88628e-05
3.66388e-05
-4.81846e-05
3.96215e-05
-4.7449e-05
4.28493e-05
-4.66522e-05
4.63466e-05
-4.57898e-05
5.01319e-05
-4.48537e-05
5.42294e-05
-4.38393e-05
5.86507e-05
-4.27346e-05
6.34319e-05
-4.15409e-05
6.86278e-05
-4.02456e-05
7.42533e-05
-3.88406e-05
8.0304e-05
-3.73146e-05
8.6871e-05
-3.56681e-05
9.40045e-05
-3.38795e-05
0.00010168
-3.19441e-05
0.000109992
-2.98532e-05
0.000119034
-2.75847e-05
0.000128724
-2.51336e-05
0.000139289
-2.24833e-05
0.000150682
-1.96137e-05
0.000162993
-1.65156e-05
0.000176345
-1.31595e-05
0.000190714
-9.53694e-06
0.000206318
-5.61537e-06
0.000223101
-1.37891e-06
0.000241288
3.20979e-06
0.000260867
8.178e-06
0.000281985
1.35532e-05
0.000304762
1.93799e-05
0.000329197
2.56839e-05
0.000355536
3.25105e-05
0.000383759
3.99064e-05
0.000413946
4.79098e-05
0.000446224
5.65692e-05
0.000480569
6.5939e-05
0.000516942
7.60654e-05
0.000555325
8.69947e-05
0.000595557
9.87694e-05
0.000637369
0.000111424
0.000680369
0.000124972
0.000723988
0.000139413
0.000767436
0.000154706
0.000809655
0.000170783
0.000849269
0.000187531
0.000884529
0.000204789
0.000913244
0.00022239
0.000932715
0.000240062
0.000939597
0.00025754
0.000929761
0.00027439
0.00089817
0.000290141
0.000838667
0.000304
0.000743461
0.000315047
0.00061296
0.000424355
0.000320323
-5.16667e-05
2.08425e-05
5.20279e-05
-5.12816e-05
2.25362e-05
-5.08685e-05
2.4368e-05
-5.04205e-05
2.63492e-05
-4.9939e-05
2.84923e-05
-4.94167e-05
3.08108e-05
-4.88545e-05
3.33193e-05
-4.82449e-05
3.60338e-05
-4.75864e-05
3.89658e-05
-4.6872e-05
4.21385e-05
-4.6099e-05
4.55765e-05
-4.52619e-05
4.92974e-05
-4.43542e-05
5.33249e-05
-4.33697e-05
5.76681e-05
-4.22977e-05
6.23639e-05
-4.11384e-05
6.74703e-05
-3.98798e-05
7.29991e-05
-3.85131e-05
7.89393e-05
-3.70269e-05
8.53895e-05
-3.54213e-05
9.24012e-05
-3.36745e-05
9.99377e-05
-3.17815e-05
0.000108102
-2.97336e-05
0.000116991
-2.75085e-05
0.000126503
-2.51013e-05
0.000136888
-2.24956e-05
0.000148081
-1.96713e-05
0.000160174
-1.66194e-05
0.000173298
-1.33108e-05
0.000187411
-9.73737e-06
0.000202749
-5.86645e-06
0.000219234
-1.68203e-06
0.000237109
2.85036e-06
0.000256343
7.76113e-06
0.000277087
1.30744e-05
0.00029946
1.88354e-05
0.000323446
2.50692e-05
0.000349312
3.18203e-05
0.000377017
3.91343e-05
0.000406641
4.70483e-05
0.000438318
5.56092e-05
0.000472016
6.4869e-05
0.00050769
7.48715e-05
0.000545329
8.56599e-05
0.000584774
9.72733e-05
0.00062576
0.000109742
0.000667905
0.000123078
0.000710655
0.000137277
0.000753242
0.000152299
0.000794638
0.000168076
0.000833499
0.000184502
0.000868119
0.000201418
0.00089634
0.000218665
0.000915508
0.000235978
0.000922313
0.000253095
0.000912705
0.000269589
0.000881714
0.000284992
0.000823337
0.000298507
0.000729995
0.000309523
0.00060203
0.00041873
0.000315255
-5.08928e-05
2.04997e-05
5.12427e-05
-5.05169e-05
2.21655e-05
-5.01128e-05
2.39672e-05
-4.96748e-05
2.59159e-05
-4.92036e-05
2.80238e-05
-4.8693e-05
3.03042e-05
-4.81428e-05
3.27716e-05
-4.75475e-05
3.54415e-05
-4.69041e-05
3.83244e-05
-4.62079e-05
4.14437e-05
-4.54541e-05
4.48243e-05
-4.46397e-05
4.84829e-05
-4.37556e-05
5.24428e-05
-4.27984e-05
5.67103e-05
-4.17551e-05
6.13232e-05
-4.06278e-05
6.63427e-05
-3.94026e-05
7.17775e-05
-3.80723e-05
7.76097e-05
-3.66242e-05
8.39457e-05
-3.50588e-05
9.08376e-05
-3.3354e-05
9.82376e-05
-3.15048e-05
0.000106255
-2.95019e-05
0.000114993
-2.73233e-05
0.000124327
-2.49637e-05
0.000134533
-2.24066e-05
0.000145528
-1.9632e-05
0.000157404
-1.66308e-05
0.000170301
-1.33744e-05
0.000184159
-9.85398e-06
0.000199234
-6.03794e-06
0.000215422
-1.9104e-06
0.000232986
2.56448e-06
0.000251878
7.41236e-06
0.000272249
1.26604e-05
0.000294223
1.83512e-05
0.000317765
2.45097e-05
0.000343162
3.11791e-05
0.000370356
3.8404e-05
0.000399424
4.62202e-05
0.000430511
5.46726e-05
0.000463573
6.38112e-05
0.000498561
7.36775e-05
0.000535474
8.43116e-05
0.000574152
9.575e-05
0.000614336
0.00010802
0.000655652
0.000121132
0.000697561
0.000135079
0.000739317
0.000149824
0.000779915
0.0001653
0.000818046
0.000181405
0.000852037
0.000197987
0.000879772
0.000214889
0.00089864
0.000231858
0.000905384
0.000248629
0.000895989
0.000264786
0.000865601
0.000279862
0.000808315
0.000293074
0.000716827
0.000303942
0.000591217
0.000412847
0.000309877
-5.0079e-05
2.0165e-05
5.04276e-05
-4.9709e-05
2.18037e-05
-4.9312e-05
2.3576e-05
-4.8882e-05
2.5493e-05
-4.84201e-05
2.75666e-05
-4.79197e-05
2.98099e-05
-4.73815e-05
3.2237e-05
-4.67987e-05
3.48635e-05
-4.61701e-05
3.76986e-05
-4.54889e-05
4.07662e-05
-4.47527e-05
4.40912e-05
-4.39565e-05
4.76893e-05
-4.3094e-05
5.15835e-05
-4.21592e-05
5.57775e-05
-4.11421e-05
6.03097e-05
-4.00423e-05
6.52447e-05
-3.88482e-05
7.05875e-05
-3.75509e-05
7.63141e-05
-3.61389e-05
8.25381e-05
-3.46117e-05
8.93124e-05
-3.29477e-05
9.65781e-05
-3.11414e-05
0.000104451
-2.91833e-05
0.00011304
-2.70517e-05
0.000122198
-2.47407e-05
0.000132227
-2.22339e-05
0.000143025
-1.95113e-05
0.000154687
-1.65636e-05
0.000167358
-1.33621e-05
0.000180963
-9.89856e-06
0.000195775
-6.14078e-06
0.000211668
-2.07277e-06
0.000228924
2.33811e-06
0.000247474
7.1207e-06
0.000267478
1.2298e-05
0.000289055
1.79134e-05
0.000312158
2.39906e-05
0.000337093
3.05718e-05
0.000363782
3.77001e-05
0.000392303
4.541e-05
0.000422808
5.37449e-05
0.000455244
6.27525e-05
0.000489559
7.2472e-05
0.000525759
8.29415e-05
0.000563686
9.41947e-05
0.000603086
0.000106257
0.000643592
0.000119137
0.000684683
0.000132828
0.000725628
0.000147293
0.000765453
0.000162471
0.000802874
0.000178259
0.000836257
0.000194515
0.000863523
0.000211084
0.000882097
0.000227721
0.000888767
0.000244162
0.000879591
0.000259998
0.000849791
0.000274767
0.000793599
0.000287704
0.000703922
0.00029837
0.000580611
0.000406913
0.000304376
-4.92537e-05
1.98351e-05
4.95915e-05
-4.88918e-05
2.1447e-05
-4.85025e-05
2.31904e-05
-4.8081e-05
2.50762e-05
-4.76275e-05
2.7116e-05
-4.71363e-05
2.93229e-05
-4.66074e-05
3.17106e-05
-4.60356e-05
3.42946e-05
-4.5418e-05
3.7083e-05
-4.47505e-05
4.00999e-05
-4.40283e-05
4.33706e-05
-4.3249e-05
4.69098e-05
-4.24037e-05
5.07401e-05
-4.14896e-05
5.48626e-05
-4.04939e-05
5.93165e-05
-3.94189e-05
6.41692e-05
-3.8251e-05
6.94229e-05
-3.69831e-05
7.50468e-05
-3.56029e-05
8.11618e-05
-3.41103e-05
8.78214e-05
-3.24836e-05
9.49558e-05
-3.07175e-05
0.000102687
-2.88022e-05
0.000111129
-2.6716e-05
0.000120115
-2.4453e-05
0.000129969
-2.19964e-05
0.000140572
-1.93263e-05
0.000152022
-1.64331e-05
0.000164469
-1.32887e-05
0.000177823
-9.88372e-06
0.000192374
-6.18716e-06
0.000207975
-2.18307e-06
0.000224924
2.16276e-06
0.000243137
6.87392e-06
0.000262775
1.19765e-05
0.000283962
1.75112e-05
0.000306631
2.35012e-05
0.00033111
2.99877e-05
0.000357303
3.70126e-05
0.000385285
4.46088e-05
0.000415219
5.28183e-05
0.000447043
6.16868e-05
0.000480699
7.12516e-05
0.000516204
8.15486e-05
0.000553401
9.26098e-05
0.000592038
0.000104459
0.000631759
0.000117104
0.000672055
0.000130537
0.000712215
0.000144724
0.000751286
0.000159606
0.000788016
0.000175085
0.000820801
0.000191023
0.000847599
0.00020727
0.000865881
0.000223586
0.000872488
0.00023971
0.000863518
0.00025524
0.000834303
0.000269717
0.000779169
0.000282402
0.000691275
0.000292846
0.000570212
0.000400944
0.000298856
-4.84192e-05
1.95122e-05
4.87532e-05
-4.80637e-05
2.10979e-05
-4.76813e-05
2.28129e-05
-4.72677e-05
2.4668e-05
-4.68225e-05
2.66747e-05
-4.63408e-05
2.88457e-05
-4.58219e-05
3.11949e-05
-4.52608e-05
3.37371e-05
-4.46548e-05
3.64798e-05
-4.39992e-05
3.94472e-05
-4.32905e-05
4.26648e-05
-4.2525e-05
4.61465e-05
-4.16962e-05
4.99144e-05
-4.0799e-05
5.39672e-05
-3.98233e-05
5.83445e-05
-3.87695e-05
6.3117e-05
-3.76261e-05
6.82835e-05
-3.63847e-05
7.3807e-05
-3.5034e-05
7.98153e-05
-3.35734e-05
8.63626e-05
-3.19816e-05
9.33685e-05
-3.02532e-05
0.000100961
-2.83785e-05
0.000109259
-2.63358e-05
0.000118075
-2.41191e-05
0.000127757
-2.17116e-05
0.000138168
-1.90935e-05
0.000149408
-1.6255e-05
0.000161635
-1.31678e-05
0.00017474
-9.82311e-06
0.000189034
-6.18924e-06
0.000204344
-2.25023e-06
0.00022099
2.02493e-06
0.000238868
6.66328e-06
0.000258147
1.16865e-05
0.000278947
1.7136e-05
0.000301189
2.30341e-05
0.000325219
2.94206e-05
0.000350923
3.63363e-05
0.000378376
4.38129e-05
0.000407748
5.18908e-05
0.00043897
6.06141e-05
0.00047198
7.00183e-05
0.000506803
8.01377e-05
0.000543284
9.10026e-05
0.000581174
0.000102635
0.000620128
0.000115043
0.000659647
0.00012822
0.00069904
0.000142132
0.000737375
0.000156723
0.000773427
0.0001719
0.000805628
0.000187529
0.00083197
0.000203463
0.000849964
0.00021947
0.000856494
0.000235288
0.00084773
0.000250524
0.000819083
0.000264723
0.000765007
0.000277171
0.000678846
0.000287393
0.000560031
0.000395008
0.000293375
-4.75904e-05
1.91937e-05
4.79139e-05
-4.72426e-05
2.07534e-05
-4.68674e-05
2.24405e-05
-4.64615e-05
2.42652e-05
-4.60238e-05
2.62393e-05
-4.55504e-05
2.83752e-05
-4.50396e-05
3.06863e-05
-4.44881e-05
3.31876e-05
-4.38917e-05
3.58853e-05
-4.3248e-05
3.8804e-05
-4.2551e-05
4.19696e-05
-4.18e-05
4.53949e-05
-4.09852e-05
4.91017e-05
-4.01053e-05
5.30862e-05
-3.9147e-05
5.73889e-05
-3.81137e-05
6.20831e-05
-3.69916e-05
6.71648e-05
-3.57745e-05
7.25904e-05
-3.445e-05
7.84948e-05
-3.30186e-05
8.49327e-05
-3.14587e-05
9.18129e-05
-2.97652e-05
9.92697e-05
-2.79284e-05
0.000107427
-2.59269e-05
0.000116076
-2.37545e-05
0.000125589
-2.13944e-05
0.000135811
-1.88271e-05
0.000146845
-1.60423e-05
0.000158854
-1.30125e-05
0.000171714
-9.72789e-06
0.000185753
-6.15794e-06
0.000200777
-2.28675e-06
0.000217122
1.91838e-06
0.000234671
6.47919e-06
0.000253594
1.14206e-05
0.000274014
1.67814e-05
0.000295835
2.25835e-05
0.000319423
2.88658e-05
0.000344646
3.56678e-05
0.00037158
4.30203e-05
0.000400401
5.09621e-05
0.000431035
5.95359e-05
0.000463414
6.87757e-05
0.000497572
7.87144e-05
0.000533356
8.93807e-05
0.00057052
0.000100796
0.000608728
0.000112968
0.000647492
0.000125891
0.000686137
0.000139532
0.000723754
0.000153839
0.000759144
0.00016872
0.000790768
0.000184049
0.000816656
0.000199679
0.000834362
0.000215386
0.000840823
0.000230908
0.000832254
0.000245861
0.00080417
0.000259792
0.000751118
0.000272015
0.000666658
0.000282023
0.000550061
0.000389098
0.000287962
-4.67618e-05
1.88828e-05
4.70863e-05
-4.64185e-05
2.04172e-05
-4.6049e-05
2.20768e-05
-4.56496e-05
2.3872e-05
-4.52197e-05
2.58141e-05
-4.47545e-05
2.79153e-05
-4.42537e-05
3.01891e-05
-4.37119e-05
3.265e-05
-4.31273e-05
3.53036e-05
-4.24943e-05
3.81745e-05
-4.18107e-05
4.12889e-05
-4.1072e-05
4.46589e-05
-4.02729e-05
4.83056e-05
-3.94077e-05
5.22231e-05
-3.84677e-05
5.64524e-05
-3.74526e-05
6.10698e-05
-3.6352e-05
6.60679e-05
-3.51575e-05
7.13975e-05
-3.38587e-05
7.71998e-05
-3.24546e-05
8.35304e-05
-3.09252e-05
9.02874e-05
-2.92646e-05
9.76112e-05
-2.74638e-05
0.00010563
-2.55013e-05
0.000114117
-2.33712e-05
0.000123463
-2.10568e-05
0.0001335
-1.85387e-05
0.000144331
-1.58067e-05
0.000156126
-1.28331e-05
0.000168744
-9.60881e-06
0.000182532
-6.10263e-06
0.000197274
-2.29884e-06
0.000213322
1.83219e-06
0.000230544
6.31587e-06
0.000249119
1.11727e-05
0.000269165
1.64423e-05
0.000290572
2.21458e-05
0.000313725
2.8321e-05
0.000338476
3.50063e-05
0.000364899
4.22315e-05
0.00039318
5.00343e-05
0.000423235
5.8456e-05
0.000454995
6.75292e-05
0.000488501
7.72856e-05
0.000523601
8.7753e-05
0.000560053
9.89522e-05
0.000597529
0.00011089
0.000635553
0.000123562
0.000673465
0.000136936
0.000710378
0.000150964
0.000745117
0.000165558
0.000776176
0.000180594
0.000801617
0.000195929
0.000819036
0.000211344
0.000825415
0.000226579
0.000817038
0.000241257
0.0007895
0.000254932
0.000737466
0.000266938
0.00065466
0.000276742
0.000540283
0.000383236
0.000282635
-4.59476e-05
1.8576e-05
4.62613e-05
-4.56118e-05
2.00853e-05
-4.52495e-05
2.17179e-05
-4.48576e-05
2.34838e-05
-4.44351e-05
2.53944e-05
-4.3978e-05
2.74616e-05
-4.3485e-05
2.96986e-05
-4.29525e-05
3.21199e-05
-4.23769e-05
3.47299e-05
-4.17553e-05
3.75538e-05
-4.10827e-05
4.06178e-05
-4.03575e-05
4.39333e-05
-3.95712e-05
4.75211e-05
-3.87219e-05
5.13728e-05
-3.77975e-05
5.55302e-05
-3.68006e-05
6.00724e-05
-3.57188e-05
6.49891e-05
-3.45457e-05
7.02248e-05
-3.32698e-05
7.59276e-05
-3.18913e-05
8.21532e-05
-3.03899e-05
8.87899e-05
-2.87602e-05
9.59835e-05
-2.69933e-05
0.000103867
-2.50679e-05
0.000112194
-2.29783e-05
0.000121377
-2.07078e-05
0.000131232
-1.82373e-05
0.000141865
-1.55566e-05
0.000153449
-1.26385e-05
0.00016583
-9.47331e-06
0.000179371
-6.03102e-06
0.000193834
-2.29599e-06
0.000209591
1.76312e-06
0.000226493
6.16651e-06
0.000244722
1.09381e-05
0.0002644
1.6115e-05
0.0002854
2.1718e-05
0.000308126
2.77841e-05
0.000332414
3.43508e-05
0.000358337
4.14469e-05
0.000386089
4.91091e-05
0.000415579
5.73773e-05
0.000446733
6.62832e-05
0.000479603
7.58573e-05
0.000514037
8.61265e-05
0.000549796
9.7111e-05
0.000586559
0.000108818
0.000623862
0.000121243
0.00066106
0.000134357
0.000697284
0.000148112
0.000731385
0.000162424
0.000761884
0.000177174
0.000786881
0.000192222
0.000804014
0.000207353
0.000810318
0.000222309
0.000802124
0.000236721
0.000775125
0.000250147
0.000724078
0.000261944
0.000642893
0.000271555
0.000530702
0.000377414
0.000277396
-4.514e-05
1.82758e-05
4.54507e-05
-4.48099e-05
1.97606e-05
-4.4454e-05
2.13666e-05
-4.40695e-05
2.31039e-05
-4.36547e-05
2.49834e-05
-4.32064e-05
2.70171e-05
-4.27228e-05
2.9218e-05
-4.22001e-05
3.16003e-05
-4.1635e-05
3.41676e-05
-4.10239e-05
3.69453e-05
-4.0363e-05
3.99598e-05
-3.96494e-05
4.32219e-05
-3.88769e-05
4.67518e-05
-3.80412e-05
5.0539e-05
-3.7133e-05
5.46256e-05
-3.61528e-05
5.90938e-05
-3.50903e-05
6.39303e-05
-3.39376e-05
6.90737e-05
-3.26848e-05
7.46785e-05
-3.1331e-05
8.08012e-05
-2.98569e-05
8.73197e-05
-2.8257e-05
9.43856e-05
-2.65226e-05
0.000102137
-2.4633e-05
0.000110306
-2.25822e-05
0.00011933
-2.03541e-05
0.000129007
-1.79297e-05
0.000139444
-1.52991e-05
0.000150822
-1.2435e-05
0.00016297
-9.32855e-06
0.000176267
-5.94908e-06
0.000190458
-2.28137e-06
0.000205927
1.70295e-06
0.000222512
6.02796e-06
0.000240405
1.07131e-05
0.000259721
1.57966e-05
0.000280322
2.12984e-05
0.000302629
2.72547e-05
0.000326462
3.37019e-05
0.000351894
4.06682e-05
0.000379126
4.81893e-05
0.000408061
5.63038e-05
0.000438621
6.50427e-05
0.000470865
7.44354e-05
0.000504645
8.45081e-05
0.000539723
9.52805e-05
0.000575786
0.00010676
0.00061238
0.000118943
0.000648876
0.000131801
0.000684423
0.00014529
0.000717895
0.000159327
0.000747845
0.000173798
0.000772404
0.000188565
0.000789251
0.000203419
0.000795468
0.000218103
0.000787452
0.000232255
0.000760977
0.000245439
0.000710908
0.000257032
0.000631302
0.000266461
0.000521287
0.00037164
0.000272251
-4.43489e-05
1.79794e-05
4.46489e-05
-4.40262e-05
1.944e-05
-4.36771e-05
2.10198e-05
-4.32999e-05
2.27289e-05
-4.28923e-05
2.45779e-05
-4.24517e-05
2.65786e-05
-4.19755e-05
2.8744e-05
-4.14618e-05
3.10879e-05
-4.09054e-05
3.36131e-05
-4.03054e-05
3.63453e-05
-3.9655e-05
3.93112e-05
-3.89548e-05
4.25206e-05
-3.81945e-05
4.59937e-05
-3.73743e-05
4.97174e-05
-3.64808e-05
5.37347e-05
-3.55182e-05
5.81304e-05
-3.44731e-05
6.28885e-05
-3.33407e-05
6.79415e-05
-3.21091e-05
7.34506e-05
-3.07791e-05
7.94724e-05
-2.93308e-05
8.58753e-05
-2.77594e-05
9.28162e-05
-2.60562e-05
0.000100437
-2.42008e-05
0.000108453
-2.21876e-05
0.000117321
-2.00005e-05
0.000126823
-1.7621e-05
0.000137068
-1.50388e-05
0.000148243
-1.2228e-05
0.000160162
-9.17854e-06
0.000173221
-5.86153e-06
0.000187143
-2.26167e-06
0.000202329
1.65106e-06
0.000218606
5.89565e-06
0.000236166
1.04951e-05
0.000255128
1.54851e-05
0.000275336
2.08855e-05
0.000297232
2.67318e-05
0.00032062
3.30595e-05
0.00034557
3.98961e-05
0.000372294
4.72764e-05
0.000400685
5.5238e-05
0.000430665
6.3811e-05
0.000462299
7.3024e-05
0.000495441
8.29026e-05
0.000529855
9.34662e-05
0.000565236
0.000104722
0.000601139
0.000116667
0.000636949
0.000129275
0.000671833
0.000142504
0.000704688
0.000156272
0.000734095
0.000170471
0.000758219
0.000184964
0.000774783
0.000199546
0.000780919
0.000213964
0.000773074
0.000227863
0.000747113
0.000240811
0.000697995
0.000252206
0.000619935
0.000261462
0.000512057
0.000365914
0.000267198
-4.35647e-05
1.76904e-05
4.38664e-05
-4.32458e-05
1.91273e-05
-4.29021e-05
2.06816e-05
-4.25308e-05
2.2363e-05
-4.21307e-05
2.41821e-05
-4.1698e-05
2.61505e-05
-4.12316e-05
2.82809e-05
-4.0727e-05
3.0587e-05
-4.01821e-05
3.30709e-05
-3.95922e-05
3.57584e-05
-3.89546e-05
3.86765e-05
-3.82656e-05
4.18341e-05
-3.75202e-05
4.52511e-05
-3.67131e-05
4.89123e-05
-3.58365e-05
5.28612e-05
-3.48898e-05
5.71855e-05
-3.3864e-05
6.1866e-05
-3.2751e-05
6.683e-05
-3.15417e-05
7.22446e-05
-3.02349e-05
7.81672e-05
-2.88126e-05
8.44564e-05
-2.72691e-05
9.12745e-05
-2.55964e-05
9.8768e-05
-2.37744e-05
0.000106634
-2.17976e-05
0.000115348
-1.96503e-05
0.000124678
-1.73143e-05
0.000134736
-1.47797e-05
0.000145711
-1.20205e-05
0.000157406
-9.02767e-06
0.000170231
-5.77159e-06
0.000183889
-2.23764e-06
0.000198799
1.60136e-06
0.00021477
5.76838e-06
0.000232006
1.0282e-05
0.000250619
1.51791e-05
0.000270444
2.04787e-05
0.000291936
2.62156e-05
0.000314886
3.24245e-05
0.000339364
3.91322e-05
0.000365588
4.63727e-05
0.000393447
5.41828e-05
0.000422856
6.25917e-05
0.000453891
7.16273e-05
0.000486405
8.13148e-05
0.000520166
9.1673e-05
0.000554876
0.000102709
0.0005901
0.000114422
0.000625234
0.000126785
0.000659465
0.000139759
0.000691712
0.000153265
0.000720585
0.000167197
0.000744281
0.000181421
0.000760558
0.000195738
0.000766603
0.000209895
0.000758923
0.000223546
0.000733462
0.000236265
0.000685283
0.000247465
0.000608732
0.000256555
0.000502971
0.000360236
0.00026224
-4.27998e-05
1.7405e-05
4.30907e-05
-4.24882e-05
1.88186e-05
-4.21514e-05
2.03476e-05
-4.17873e-05
2.20017e-05
-4.13942e-05
2.37913e-05
-4.09691e-05
2.57279e-05
-4.051e-05
2.7824e-05
-4.00143e-05
3.0093e-05
-3.94779e-05
3.25362e-05
-3.88988e-05
3.51797e-05
-3.82716e-05
3.80506e-05
-3.75956e-05
4.11573e-05
-3.6862e-05
4.45192e-05
-3.607e-05
4.8119e-05
-3.52076e-05
5.20009e-05
-3.42779e-05
5.62551e-05
-3.32689e-05
6.08598e-05
-3.21753e-05
6.57366e-05
-3.09863e-05
7.10589e-05
-2.97022e-05
7.68843e-05
-2.83044e-05
8.30621e-05
-2.67879e-05
8.97599e-05
-2.51448e-05
9.71284e-05
-2.33552e-05
0.000104846
-2.1414e-05
0.00011341
-1.93055e-05
0.000122573
-1.70121e-05
0.000132446
-1.45238e-05
0.000143226
-1.18155e-05
0.0001547
-8.87748e-06
0.000167296
-5.68188e-06
0.000180695
-2.21395e-06
0.000195333
1.55507e-06
0.000211007
5.64314e-06
0.000227922
1.00725e-05
0.000246195
1.48775e-05
0.000265642
2.00772e-05
0.00028674
2.57056e-05
0.000309261
3.17968e-05
0.000333276
3.8377e-05
0.000359012
4.54793e-05
0.000386349
5.31397e-05
0.000415201
6.13867e-05
0.00044565
7.02478e-05
0.000477552
7.97473e-05
0.000510677
8.9904e-05
0.000544731
0.000100725
0.000579292
0.00011221
0.000613766
0.000124333
0.000647358
0.000137058
0.000679008
0.000150308
0.000707352
0.000163979
0.000730622
0.00017794
0.00074662
0.000191997
0.000752579
0.000205899
0.000745058
0.000219306
0.000720088
0.0002318
0.000672821
0.000242809
0.000597746
0.000251742
0.000494058
0.000354608
0.00025737
-4.20444e-05
1.71259e-05
4.23329e-05
-4.17381e-05
1.85167e-05
-4.14073e-05
2.0021e-05
-4.10501e-05
2.16483e-05
-4.06643e-05
2.3409e-05
-4.02477e-05
2.53144e-05
-3.97975e-05
2.73766e-05
-3.93111e-05
2.96092e-05
-3.87848e-05
3.20125e-05
-3.82156e-05
3.46128e-05
-3.75997e-05
3.74375e-05
-3.69346e-05
4.04941e-05
-3.62143e-05
4.38019e-05
-3.54349e-05
4.73414e-05
-3.4588e-05
5.11573e-05
-3.36738e-05
5.53425e-05
-3.2683e-05
5.98724e-05
-3.16082e-05
6.46634e-05
-3.04404e-05
6.98945e-05
-2.91788e-05
7.56244e-05
-2.78058e-05
8.16925e-05
-2.63161e-05
8.82721e-05
-2.47022e-05
9.55179e-05
-2.29445e-05
0.000103091
-2.10381e-05
0.000111507
-1.89676e-05
0.000120505
-1.67157e-05
0.000130197
-1.42729e-05
0.000140786
-1.16141e-05
0.000152045
-8.73057e-06
0.000164415
-5.59376e-06
0.000177561
-2.18974e-06
0.000191932
1.50751e-06
0.000207312
5.52e-06
0.000223916
9.86555e-06
0.000241853
1.45797e-05
0.000260932
1.96809e-05
0.000281641
2.52023e-05
0.000303742
3.11774e-05
0.000327303
3.76317e-05
0.000352559
4.45977e-05
0.000379383
5.21107e-05
0.000407688
6.01985e-05
0.000437562
6.88879e-05
0.000468861
7.82029e-05
0.000501359
8.8162e-05
0.000534769
9.87726e-05
0.000568676
0.000110034
0.000602501
0.000121923
0.000635462
0.000134405
0.000666524
0.000147402
0.000694348
0.000160818
0.000717199
0.000174522
0.000732914
0.000188322
0.000738777
0.000201974
0.000731409
0.000215143
0.000706916
0.000227416
0.000660549
0.000238239
0.000586916
0.000247019
0.000485275
0.000349031
0.000252593
-4.13076e-05
1.68503e-05
4.15855e-05
-4.10083e-05
1.82185e-05
-4.06839e-05
1.96984e-05
-4.03336e-05
2.12994e-05
-3.99544e-05
2.30316e-05
-3.9545e-05
2.49062e-05
-3.91017e-05
2.69353e-05
-3.86238e-05
2.91321e-05
-3.81056e-05
3.14961e-05
-3.7547e-05
3.40539e-05
-3.6941e-05
3.68332e-05
-3.62887e-05
3.98407e-05
-3.558e-05
4.30954e-05
-3.48155e-05
4.65755e-05
-3.39824e-05
5.03268e-05
-3.3085e-05
5.44443e-05
-3.21106e-05
5.89011e-05
-3.10548e-05
6.36079e-05
-2.99068e-05
6.87499e-05
-2.86673e-05
7.43861e-05
-2.73181e-05
8.03469e-05
-2.58547e-05
8.68105e-05
-2.42692e-05
9.39359e-05
-2.25427e-05
0.000101367
-2.06705e-05
0.000109638
-1.86372e-05
0.000118474
-1.64262e-05
0.000127989
-1.40277e-05
0.00013839
-1.14178e-05
0.000149437
-8.58702e-06
0.000161586
-5.50859e-06
0.000174484
-2.16839e-06
0.000188593
1.46106e-06
0.000203688
5.39689e-06
0.000219983
9.66066e-06
0.000237594
1.42854e-05
0.00025631
1.92894e-05
0.00027664
2.47054e-05
0.000298328
3.0566e-05
0.000321444
3.68965e-05
0.000346231
4.37285e-05
0.000372555
5.10966e-05
0.000400324
5.9028e-05
0.000429635
6.75489e-05
0.000460346
7.6683e-05
0.000492233
8.64484e-05
0.000525014
9.68528e-05
0.000558283
0.000107896
0.000591472
0.000119556
0.000623816
0.000131799
0.0006543
0.000144551
0.00068161
0.000157716
0.000704045
0.000171167
0.000719486
0.000184717
0.000725261
0.000198123
0.00071804
0.000211057
0.000694015
0.000223114