/*--------------------------------*- C++ -*----------------------------------*\
  =========                 |
  \\      /  F ield         | OpenFOAM: The Open Source CFD Toolbox
   \\    /   O peration     | Website:  https://openfoam.org
    \\  /    A nd           | Version:  6.0
     \\/     M anipulation  |
\*---------------------------------------------------------------------------*/
FoamFile
{
    version     2.0;
    format      ascii;
    class       volVectorField;
    location    "5";
    object      U;
}
// * * * * * * * * * * * * * * * * * * * * * * * * * * * * * * * * * * * * * //

dimensions      [0 1 -1 0 0 0 0];

internalField   nonuniform List<vector> 
62000
(
(0.984859 0.170688 -3.13709e-21)
(0.984903 0.170737 2.64882e-21)
(0.984942 0.170836 2.586e-21)
(0.98498 0.170929 -1.11006e-20)
(0.985014 0.171024 -1.205e-20)
(0.985045 0.171121 4.24077e-20)
(0.985072 0.17122 -4.54992e-20)
(0.985094 0.171321 2.62569e-20)
(0.985111 0.171424 -1.1663e-20)
(0.985124 0.171529 -5.75621e-20)
(0.985131 0.171635 -4.81376e-21)
(0.985134 0.171741 7.9456e-20)
(0.985133 0.171848 1.48868e-20)
(0.985128 0.171955 -5.29546e-20)
(0.98512 0.172061 7.97281e-20)
(0.98511 0.172165 -4.23066e-20)
(0.985097 0.172267 4.07777e-20)
(0.985082 0.172367 -4.8395e-20)
(0.985067 0.172464 2.21451e-20)
(0.98505 0.172558 -6.75845e-20)
(0.985033 0.172649 8.70717e-20)
(0.985016 0.172737 2.3179e-20)
(0.984998 0.172823 3.26802e-20)
(0.98498 0.172907 -1.55757e-19)
(0.984962 0.172989 5.679e-20)
(0.984943 0.17307 -3.28785e-20)
(0.984925 0.17315 7.25398e-22)
(0.984906 0.173231 -2.61287e-20)
(0.984888 0.173313 8.34893e-20)
(0.984868 0.173396 -4.83549e-20)
(0.984849 0.173481 1.18453e-19)
(0.984828 0.173566 -2.49406e-19)
(0.984809 0.173654 2.03304e-20)
(0.984792 0.173754 -9.52931e-20)
(0.984774 0.173869 -3.49664e-20)
(0.984753 0.174006 -1.11572e-19)
(0.984725 0.174167 -5.16693e-20)
(0.984688 0.174357 -6.75758e-20)
(0.984637 0.174573 1.30624e-19)
(0.984566 0.174812 7.93535e-19)
(0.984469 0.175066 -2.27217e-19)
(0.984337 0.175319 -1.5021e-18)
(0.984156 0.175547 -2.86582e-18)
(0.983915 0.175713 1.83815e-18)
(0.983597 0.175765 6.29014e-19)
(0.983189 0.175642 -3.58466e-18)
(0.982679 0.175271 9.90589e-19)
(0.982064 0.174582 -1.86907e-18)
(0.981353 0.173515 -9.79675e-18)
(0.980568 0.172039 -2.4646e-18)
(0.979756 0.170158 -1.35698e-18)
(0.97898 0.16792 -1.78556e-17)
(0.978321 0.165393 2.58715e-18)
(0.977869 0.162666 1.95793e-17)
(0.977697 0.159794 4.83407e-18)
(0.977878 0.156769 1.54522e-17)
(0.978479 0.153478 -1.53713e-18)
(0.979545 0.149597 -2.17177e-18)
(0.982093 0.14473 4.41343e-18)
(0.956078 0.127688 6.88573e-19)
(0.984679 0.173849 -7.79357e-22)
(0.984711 0.173716 7.28873e-21)
(0.984749 0.173679 2.70261e-21)
(0.984795 0.173632 -1.26109e-20)
(0.984846 0.173582 5.09366e-21)
(0.984902 0.173532 -3.35834e-20)
(0.98496 0.173481 3.10313e-20)
(0.985018 0.173431 1.68947e-20)
(0.985074 0.173383 -3.14898e-20)
(0.985127 0.173337 1.79067e-21)
(0.985174 0.173295 2.88884e-20)
(0.985216 0.173256 -4.77523e-22)
(0.985251 0.173223 7.23946e-21)
(0.985279 0.173196 -6.61746e-20)
(0.9853 0.173175 1.29385e-19)
(0.985315 0.173162 -1.13648e-19)
(0.985322 0.173156 5.17725e-20)
(0.985325 0.17316 -1.0884e-20)
(0.985322 0.173173 -2.85812e-20)
(0.985315 0.173198 7.52766e-20)
(0.985305 0.173233 -1.1805e-19)
(0.985291 0.173283 6.76454e-20)
(0.985275 0.173346 -8.27255e-20)
(0.985256 0.173426 4.98101e-20)
(0.985234 0.173524 4.48592e-20)
(0.98521 0.173643 -2.89212e-20)
(0.985182 0.173785 -1.62624e-22)
(0.985151 0.173953 3.18251e-20)
(0.985113 0.174148 2.66151e-20)
(0.985069 0.174375 -5.87103e-20)
(0.985015 0.174631 1.1929e-19)
(0.984951 0.174919 2.85337e-20)
(0.984873 0.175261 8.32255e-20)
(0.984785 0.175658 1.37498e-20)
(0.984684 0.176098 3.08042e-20)
(0.984564 0.176578 -2.35354e-20)
(0.984418 0.177093 -1.0424e-19)
(0.984238 0.177632 -3.62008e-20)
(0.984014 0.178175 -3.64988e-19)
(0.983737 0.178691 -5.34021e-19)
(0.983395 0.179138 4.35873e-19)
(0.982973 0.179458 3.46508e-19)
(0.982454 0.179576 2.9277e-18)
(0.981817 0.179405 1.91749e-19)
(0.981046 0.178842 -6.21088e-18)
(0.980122 0.177785 2.91816e-18)
(0.979039 0.176134 2.95542e-18)
(0.977805 0.173819 3.71045e-18)
(0.976446 0.170809 1.03964e-18)
(0.975018 0.167134 2.08718e-19)
(0.973607 0.162871 7.97571e-18)
(0.972326 0.158159 2.22623e-17)
(0.971307 0.153141 -1.50252e-17)
(0.970696 0.14793 -3.58786e-17)
(0.970614 0.142576 -8.3523e-18)
(0.971191 0.13698 -4.9149e-18)
(0.972572 0.130945 -1.15735e-17)
(0.974788 0.123921 -5.0257e-18)
(0.980029 0.116399 6.94489e-18)
(0.945452 0.0916787 2.28449e-18)
(0.984439 0.179195 -3.42076e-21)
(0.984389 0.178965 -3.41574e-22)
(0.984355 0.178828 6.4364e-22)
(0.984336 0.178686 2.32222e-21)
(0.984333 0.178533 6.14462e-21)
(0.984347 0.178376 -5.85035e-21)
(0.984376 0.178213 2.91724e-20)
(0.984419 0.178044 -1.45301e-20)
(0.984472 0.177871 -7.64678e-21)
(0.984535 0.177693 -4.25179e-20)
(0.984604 0.177513 3.60607e-20)
(0.984677 0.17733 2.43311e-21)
(0.984751 0.177148 -7.74357e-21)
(0.984825 0.176968 1.9939e-20)
(0.984896 0.176791 -3.33144e-20)
(0.984962 0.176621 6.28549e-22)
(0.985023 0.176458 -1.41636e-20)
(0.985078 0.176306 1.05167e-21)
(0.985126 0.176166 3.30877e-20)
(0.985168 0.176044 -4.86894e-20)
(0.985202 0.175939 3.01403e-20)
(0.98523 0.175856 1.13353e-19)
(0.985251 0.175797 -1.75583e-20)
(0.985266 0.175766 -1.55354e-19)
(0.985274 0.175766 7.97147e-20)
(0.985277 0.1758 -4.15284e-20)
(0.985271 0.175871 6.86115e-20)
(0.985259 0.175985 -4.15996e-20)
(0.985236 0.176141 -8.58455e-20)
(0.985204 0.176346 9.05277e-20)
(0.985156 0.176597 -6.78739e-20)
(0.985094 0.176899 9.79361e-20)
(0.985007 0.177288 -2.81495e-19)
(0.984897 0.177746 2.66588e-19)
(0.98477 0.178251 -1.50032e-19)
(0.984622 0.178793 6.15628e-20)
(0.984445 0.179358 4.19487e-20)
(0.984232 0.17993 -2.26294e-20)
(0.983976 0.180477 -3.34283e-20)
(0.983668 0.180959 4.49604e-19)
(0.983301 0.181319 -2.54535e-19)
(0.982862 0.181483 4.7157e-19)
(0.982338 0.181366 -1.81897e-18)
(0.981713 0.180869 -1.05343e-18)
(0.980971 0.179885 1.64732e-18)
(0.980099 0.178315 -5.01668e-18)
(0.979088 0.176074 9.25038e-19)
(0.97794 0.173116 -5.93279e-18)
(0.976679 0.169443 9.25354e-18)
(0.975349 0.165125 2.70591e-18)
(0.974028 0.160273 1.12936e-18)
(0.972818 0.15506 -7.23451e-19)
(0.971849 0.149649 6.1784e-18)
(0.971279 0.144152 1.8325e-18)
(0.971241 0.138621 -1.16891e-17)
(0.971889 0.13297 -6.53975e-18)
(0.973384 0.127051 -3.53028e-18)
(0.975701 0.120425 -1.13703e-17)
(0.981172 0.114941 -1.2891e-18)
(0.956737 0.0987289 4.61054e-19)
(0.984126 0.182883 -3.10634e-21)
(0.984025 0.182664 9.33611e-21)
(0.983935 0.182514 -1.5996e-21)
(0.983859 0.182365 -9.09286e-21)
(0.983799 0.182203 1.32079e-20)
(0.983757 0.182034 2.14044e-20)
(0.983735 0.181856 -2.8592e-20)
(0.983734 0.18167 2.89492e-21)
(0.983752 0.181476 8.7839e-21)
(0.98379 0.181274 1.74449e-20)
(0.983845 0.181063 -3.32447e-20)
(0.983917 0.180846 -9.40266e-21)
(0.984001 0.180622 -9.94949e-21)
(0.984096 0.180393 4.68453e-20)
(0.984199 0.18016 -3.06055e-20)
(0.984306 0.179926 6.85454e-20)
(0.984415 0.179693 -8.21958e-20)
(0.984524 0.179464 -1.0756e-20)
(0.984629 0.179242 8.19596e-20)
(0.98473 0.179031 -2.87052e-20)
(0.984824 0.178834 -9.92858e-21)
(0.984911 0.178657 -1.0528e-20)
(0.984989 0.178502 -9.37185e-20)
(0.985058 0.178375 5.50625e-20)
(0.985117 0.178279 -2.37819e-20)
(0.985165 0.17822 3.99359e-20)
(0.985203 0.178201 1.7571e-20)
(0.98523 0.178228 9.25839e-20)
(0.985243 0.178302 -5.78041e-20)
(0.985243 0.178429 -7.93869e-20)
(0.985226 0.178606 1.2714e-19)
(0.985195 0.178838 -1.0729e-19)
(0.98513 0.179171 2.11148e-19)
(0.985031 0.179571 -1.37771e-19)
(0.984915 0.180012 4.76033e-20)
(0.984783 0.180476 9.591e-20)
(0.98463 0.180952 -4.43096e-20)
(0.984452 0.181417 8.3808e-20)
(0.984245 0.181841 -1.43685e-20)
(0.984006 0.182179 1.18052e-19)
(0.983728 0.182372 -4.12686e-19)
(0.983406 0.18235 1.48342e-19)
(0.983029 0.182027 3.90888e-19)
(0.982583 0.18131 9.61943e-19)
(0.982053 0.180101 1.87329e-18)
(0.981422 0.178311 9.16172e-19)
(0.980677 0.175872 3.30523e-18)
(0.979808 0.172755 4.21585e-18)
(0.978824 0.168981 4.82895e-18)
(0.97775 0.164633 -3.95715e-18)
(0.976649 0.159832 -6.55952e-18)
(0.975599 0.154761 3.62067e-18)
(0.974722 0.149584 4.57882e-18)
(0.974178 0.144411 1.54485e-17)
(0.974101 0.139306 1.02072e-17)
(0.974655 0.134213 1.16245e-17)
(0.975993 0.129041 2.09065e-17)
(0.978069 0.12346 1.73001e-18)
(0.982715 0.120335 -7.48678e-18)
(0.968678 0.110848 -3.76152e-18)
(0.983857 0.185059 5.54481e-21)
(0.983739 0.184877 -1.99371e-21)
(0.983627 0.184748 2.8e-21)
(0.983521 0.184624 -4.24034e-21)
(0.983425 0.184488 8.5952e-21)
(0.983343 0.184345 -4.55856e-21)
(0.983277 0.184194 1.91751e-21)
(0.98323 0.184035 -3.13964e-20)
(0.983204 0.183868 2.60873e-20)
(0.9832 0.183691 -4.85225e-20)
(0.983219 0.183505 5.32309e-20)
(0.98326 0.183309 -6.30123e-21)
(0.983322 0.183104 -1.28341e-20)
(0.983404 0.182889 -5.41844e-21)
(0.983504 0.182667 -7.83029e-22)
(0.983618 0.182437 -5.28591e-20)
(0.983744 0.182202 4.63562e-21)
(0.983879 0.181964 5.70678e-20)
(0.98402 0.181725 -1.74599e-20)
(0.984162 0.18149 -1.74798e-20)
(0.984303 0.181261 3.08428e-20)
(0.984441 0.181044 -1.42558e-20)
(0.984573 0.180843 5.96352e-20)
(0.984697 0.180663 3.1116e-20)
(0.984811 0.180509 2.34854e-20)
(0.984913 0.180386 -7.60577e-20)
(0.985003 0.180299 -1.05916e-20)
(0.98508 0.180254 -5.8945e-20)
(0.985141 0.180254 1.15416e-20)
(0.985187 0.180303 -2.18878e-20)
(0.985216 0.180397 -7.38036e-21)
(0.985232 0.180545 7.78365e-20)
(0.985203 0.180793 -1.97666e-19)
(0.985129 0.1811 -3.80561e-21)
(0.985035 0.181433 -1.133e-19)
(0.98493 0.181776 -5.94834e-20)
(0.984811 0.182116 4.15152e-20)
(0.98468 0.182433 -2.10628e-19)
(0.984533 0.182694 3.63908e-19)
(0.984372 0.182857 1.31083e-20)
(0.984194 0.182867 4.96917e-19)
(0.983994 0.182657 -4.1037e-19)
(0.983766 0.182148 -2.89156e-19)
(0.983497 0.181256 -2.9386e-19)
(0.983173 0.179894 1.15933e-18)
(0.982774 0.177986 2.0572e-18)
(0.98228 0.175478 1.61939e-19)
(0.981675 0.172351 6.07949e-19)
(0.980953 0.168638 -2.51973e-18)
(0.980121 0.164425 9.5384e-18)
(0.979227 0.159832 2.3993e-18)
(0.97833 0.155035 -3.30192e-18)
(0.97754 0.150194 -1.08978e-18)
(0.977009 0.145412 9.24781e-18)
(0.976869 0.140753 7.97848e-19)
(0.977287 0.136178 -9.78841e-18)
(0.978402 0.131625 -1.58583e-17)
(0.980197 0.126805 1.35383e-17)
(0.983757 0.125139 -3.186e-18)
(0.976613 0.119016 2.64721e-18)
(0.983718 0.186384 -1.94729e-21)
(0.983599 0.186237 7.70549e-21)
(0.98348 0.186134 -1.24314e-20)
(0.98336 0.186038 9.10969e-21)
(0.983246 0.185929 5.48408e-21)
(0.983139 0.185817 -6.02045e-21)
(0.983043 0.185697 4.13446e-22)
(0.982962 0.18557 -4.10689e-21)
(0.982897 0.185437 -1.3072e-20)
(0.982851 0.185295 2.49396e-20)
(0.982828 0.185145 -3.68435e-20)
(0.982828 0.184986 3.19083e-20)
(0.982851 0.184818 2.59781e-20)
(0.982899 0.18464 -4.02353e-20)
(0.982971 0.184452 -1.18613e-20)
(0.983064 0.184254 4.54797e-20)
(0.983178 0.184048 -5.30188e-20)
(0.983309 0.183834 7.05187e-20)
(0.983454 0.183615 -1.43186e-20)
(0.98361 0.183393 5.98161e-21)
(0.983773 0.18317 -1.21692e-20)
(0.98394 0.182953 -1.42686e-20)
(0.984108 0.182742 -2.57285e-20)
(0.984272 0.182546 4.26351e-20)
(0.98443 0.182366 -2.93934e-20)
(0.984579 0.18221 -2.80094e-20)
(0.984718 0.182081 5.83192e-20)
(0.984843 0.181987 -5.37086e-20)
(0.984954 0.181929 9.2295e-20)
(0.98505 0.181912 -4.8307e-20)
(0.98513 0.18193 4.2439e-20)
(0.985197 0.181995 -6.72727e-20)
(0.985212 0.182151 8.43675e-20)
(0.985165 0.182352 -1.1491e-22)
(0.985096 0.182563 -2.44824e-21)
(0.985018 0.182767 2.70114e-21)
(0.984932 0.182955 -3.21762e-20)
(0.984841 0.183105 1.79731e-19)
(0.984746 0.183189 -1.63536e-19)
(0.984649 0.183168 -9.36789e-19)
(0.984551 0.182991 -4.41242e-19)
(0.984449 0.182596 4.17163e-19)
(0.984338 0.181914 -3.62465e-19)
(0.984209 0.180871 -6.9109e-19)
(0.984046 0.179391 -5.724e-20)
(0.98383 0.17741 2.03201e-18)
(0.983536 0.174885 -3.48242e-18)
(0.983142 0.171807 -4.11374e-18)
(0.982632 0.168211 -3.51643e-18)
(0.982001 0.164183 -5.83888e-18)
(0.981283 0.159835 3.2326e-18)
(0.980519 0.155331 -1.82768e-18)
(0.979805 0.150818 -1.37288e-17)
(0.979285 0.146386 1.55146e-18)
(0.979084 0.142094 4.21552e-18)
(0.97937 0.137912 -5.6593e-18)
(0.980266 0.133786 5.30144e-18)
(0.981819 0.129445 1.1654e-18)
(0.984358 0.128584 5.81202e-18)
(0.981272 0.124274 -7.99543e-19)
(0.983676 0.187244 2.12373e-21)
(0.983561 0.187119 -9.40133e-21)
(0.983444 0.187033 4.65783e-21)
(0.983323 0.186957 8.1196e-21)
(0.983203 0.186869 -1.69579e-20)
(0.983086 0.186779 1.40172e-20)
(0.982974 0.186683 -8.90874e-21)
(0.982871 0.186583 7.44818e-21)
(0.982779 0.186477 1.10352e-20)
(0.982703 0.186365 -2.63614e-20)
(0.982645 0.186246 3.65647e-20)
(0.982607 0.18612 1.37288e-20)
(0.982592 0.185987 -5.78967e-20)
(0.982601 0.185845 -9.05419e-21)
(0.982635 0.185695 2.9033e-20)
(0.982694 0.185535 1.70759e-20)
(0.982778 0.185365 -2.07424e-20)
(0.982885 0.185187 1.71908e-20)
(0.983013 0.185001 2.44701e-20)
(0.983159 0.184809 -1.3372e-20)
(0.98332 0.184611 -7.32344e-21)
(0.983492 0.184414 2.25473e-20)
(0.983673 0.184217 4.47845e-20)
(0.983857 0.184026 -3.44657e-20)
(0.984041 0.183844 -3.60337e-20)
(0.984222 0.183678 3.88973e-20)
(0.984397 0.183529 -3.02419e-20)
(0.984561 0.183405 -1.31585e-20)
(0.984714 0.183307 1.03175e-19)
(0.984854 0.183239 -4.43276e-20)
(0.984981 0.183194 -3.9283e-20)
(0.985095 0.183185 5.48761e-20)
(0.985152 0.183251 4.0051e-20)
(0.985132 0.183348 -2.79301e-20)
(0.985084 0.183434 -2.31385e-20)
(0.985029 0.183499 8.57354e-20)
(0.984971 0.183534 4.01184e-20)
(0.984912 0.183521 2.49794e-20)
(0.984857 0.183432 -1.86557e-19)
(0.984808 0.183233 -1.6077e-19)
(0.984767 0.182878 4.67413e-19)
(0.984736 0.182313 4.38902e-19)
(0.98471 0.181477 9.25644e-19)
(0.984681 0.180305 -8.09897e-19)
(0.984634 0.178733 -1.02989e-18)
(0.984549 0.176707 -1.03002e-18)
(0.984402 0.174194 2.70576e-18)
(0.984165 0.171189 2.81733e-18)
(0.983816 0.167729 -3.65317e-18)
(0.98334 0.163895 -5.21411e-18)
(0.98276 0.159786 -1.83833e-18)
(0.982105 0.155551 1.0138e-18)
(0.981456 0.151322 5.07953e-19)
(0.980948 0.147176 -4.33764e-18)
(0.980698 0.143163 2.99514e-18)
(0.980871 0.139255 2.04356e-18)
(0.981579 0.135406 2.674e-18)
(0.982949 0.131355 -4.59367e-18)
(0.984638 0.130916 -5.41183e-19)
(0.983831 0.127712 -7.70222e-19)
(0.983678 0.187831 -3.29485e-21)
(0.983571 0.187723 -2.47056e-21)
(0.983461 0.187649 3.57741e-21)
(0.983345 0.187584 1.177e-20)
(0.983228 0.18751 -2.48271e-20)
(0.98311 0.187433 2.77525e-20)
(0.982993 0.187353 -1.64342e-21)
(0.982881 0.187269 -1.97479e-21)
(0.982776 0.187182 -9.12853e-21)
(0.982682 0.18709 2.05643e-20)
(0.9826 0.186993 -3.1376e-20)
(0.982535 0.186892 1.16823e-20)
(0.982489 0.186786 -2.58139e-22)
(0.982464 0.186672 1.61963e-20)
(0.982462 0.186552 6.74283e-21)
(0.982486 0.186425 -3.7944e-20)
(0.982535 0.186288 3.1845e-20)
(0.982609 0.186144 1.12482e-20)
(0.982708 0.185991 -3.30287e-20)
(0.98283 0.185831 1.57542e-20)
(0.982973 0.185664 6.60819e-21)
(0.983133 0.185493 -5.33122e-21)
(0.983308 0.185319 4.54691e-21)
(0.983494 0.185146 -3.89674e-21)
(0.983686 0.184975 -3.27634e-20)
(0.983881 0.184812 2.12677e-20)
(0.984076 0.184658 -3.22026e-20)
(0.984265 0.18452 5.58263e-20)
(0.984448 0.184397 -1.36186e-20)
(0.98462 0.184292 -5.99698e-21)
(0.984784 0.184196 -1.82974e-21)
(0.984937 0.184125 6.95612e-20)
(0.985029 0.184112 -2.50081e-20)
(0.985031 0.184112 -5.48264e-21)
(0.984999 0.184085 4.63673e-20)
(0.984961 0.184022 4.06725e-20)
(0.984922 0.183916 -6.92873e-20)
(0.984885 0.183752 1.16685e-20)
(0.984856 0.183505 1.94882e-19)
(0.984839 0.183146 4.54408e-20)
(0.984837 0.182634 1.14273e-19)
(0.984851 0.18192 -2.57337e-19)
(0.984879 0.180952 3.52603e-19)
(0.984914 0.179674 1.17714e-18)
(0.984942 0.178032 5.90986e-19)
(0.984945 0.175981 -5.89531e-19)
(0.984896 0.173493 -2.23133e-18)
(0.984766 0.170569 1.29038e-19)
(0.984531 0.167242 1.11113e-18)
(0.984167 0.163587 3.08396e-18)
(0.983693 0.15969 -7.88196e-19)
(0.983123 0.155684 -4.31173e-18)
(0.982529 0.151685 3.66765e-18)
(0.982036 0.147756 -2.34253e-18)
(0.981753 0.14394 3.42361e-18)
(0.98184 0.14021 1.02034e-18)
(0.982401 0.136523 2.4662e-18)
(0.983647 0.132637 1.7313e-18)
(0.984676 0.132401 -6.41728e-19)
(0.985139 0.129954 -1.62912e-18)
(0.983696 0.188251 -1.47308e-21)
(0.983599 0.188149 1.27166e-21)
(0.983497 0.18808 6.0331e-21)
(0.98339 0.188022 9.08124e-21)
(0.983279 0.187956 -2.71364e-20)
(0.983166 0.187888 1.52913e-20)
(0.983052 0.187817 -2.58131e-20)
(0.98294 0.187744 3.97079e-20)
(0.982831 0.187669 -1.82705e-20)
(0.982728 0.18759 3.0244e-21)
(0.982634 0.187508 3.10963e-20)
(0.982552 0.187423 -6.95935e-20)
(0.982484 0.187334 4.61088e-20)
(0.982434 0.187241 5.47128e-21)
(0.982404 0.187143 8.23664e-21)
(0.982396 0.187039 -3.78013e-20)
(0.982413 0.186928 1.78251e-20)
(0.982454 0.186811 -2.06162e-20)
(0.98252 0.186686 3.79868e-20)
(0.982612 0.186555 -5.99689e-21)
(0.982728 0.186415 -4.3936e-20)
(0.982865 0.186271 1.79456e-20)
(0.983022 0.186121 -9.45289e-22)
(0.983195 0.185968 -5.52308e-20)
(0.983381 0.185813 4.13853e-20)
(0.983576 0.18566 2.88235e-20)
(0.983775 0.185509 1.6966e-20)
(0.983976 0.185366 -2.56257e-20)
(0.984174 0.185228 -2.87534e-20)
(0.984366 0.185098 1.44309e-20)
(0.984554 0.184964 1.45071e-20)
(0.984735 0.184843 -2.43798e-20)
(0.984852 0.184763 -3.39346e-20)
(0.984869 0.18468 7.56005e-20)
(0.984845 0.184554 1.50353e-20)
(0.984817 0.184378 -1.27925e-19)
(0.984789 0.18415 2.37218e-20)
(0.984765 0.183855 8.65624e-20)
(0.984751 0.183472 -1.07981e-20)
(0.984751 0.182976 1.65728e-19)
(0.984769 0.18233 -2.80567e-19)
(0.984807 0.181491 -1.8057e-21)
(0.984864 0.180414 -2.84929e-19)
(0.984934 0.179053 -1.99612e-20)
(0.985004 0.17736 6.10628e-19)
(0.985056 0.175297 1.84807e-18)
(0.985066 0.172842 6.21656e-19)
(0.985004 0.169996 -1.90484e-18)
(0.984843 0.166792 1.38826e-18)
(0.984557 0.163294 5.9978e-18)
(0.984159 0.159577 -5.06658e-18)
(0.983656 0.155756 6.15238e-18)
(0.98311 0.151934 -3.89997e-18)
(0.982635 0.148162 -1.16561e-18)
(0.982335 0.144474 -6.69062e-18)
(0.982365 0.140848 -1.78209e-19)
(0.98282 0.137245 -1.14814e-18)
(0.983995 0.133445 -6.59101e-20)
(0.984532 0.133293 -1.92987e-18)
(0.985737 0.131424 -1.36009e-18)
(0.983713 0.188563 1.85887e-21)
(0.983624 0.18847 5.74768e-22)
(0.983531 0.188405 -6.44895e-21)
(0.983432 0.188352 6.03064e-21)
(0.98333 0.18829 -2.60798e-21)
(0.983224 0.188228 4.39882e-21)
(0.983117 0.188162 1.28746e-21)
(0.983009 0.188095 -2.05561e-20)
(0.982901 0.188025 9.15234e-21)
(0.982797 0.187953 -5.26919e-21)
(0.982699 0.187879 3.72751e-21)
(0.982608 0.187803 1.22715e-20)
(0.982528 0.187724 -2.2638e-21)
(0.982461 0.187643 6.48984e-21)
(0.982411 0.187558 -2.66975e-20)
(0.98238 0.18747 1.06606e-20)
(0.982369 0.187376 4.63223e-21)
(0.982381 0.187277 -9.88158e-21)
(0.982418 0.187172 1.93811e-20)
(0.982479 0.187062 5.35932e-21)
(0.982565 0.186944 -9.62366e-22)
(0.982675 0.186821 -4.69824e-21)
(0.982807 0.186691 2.06294e-20)
(0.982959 0.186556 -5.33483e-20)
(0.983128 0.186418 2.57534e-20)
(0.983311 0.186276 8.89743e-21)
(0.983503 0.186132 -1.76645e-20)
(0.983702 0.185988 2.82899e-20)
(0.983903 0.185843 -1.50554e-20)
(0.984103 0.185696 -7.10481e-21)
(0.984303 0.185532 -1.77553e-20)
(0.984498 0.185373 -2.19153e-21)
(0.984631 0.185237 1.75008e-20)
(0.984655 0.185085 -5.29723e-20)
(0.984633 0.184876 9.60925e-20)
(0.984607 0.184606 -1.18493e-21)
(0.984581 0.184277 6.16173e-20)
(0.984562 0.183873 -1.45596e-19)
(0.984552 0.183378 -6.27705e-20)
(0.984558 0.182768 -3.41137e-20)
(0.984582 0.182013 -1.4642e-20)
(0.984627 0.181073 1.46669e-20)
(0.984693 0.179912 -2.02318e-19)
(0.984775 0.178488 -7.00815e-20)
(0.984861 0.17676 1.3e-19)
(0.984935 0.174695 -1.54503e-18)
(0.984973 0.172276 2.02487e-18)
(0.984947 0.169504 3.90306e-19)
(0.98483 0.166407 -2.49151e-19)
(0.984595 0.163042 -3.29873e-18)
(0.984252 0.159473 1.64674e-18)
(0.9838 0.155799 -3.04857e-18)
(0.983295 0.15211 4.18274e-18)
(0.982844 0.148444 1.66137e-18)
(0.982542 0.144833 -8.90982e-19)
(0.982538 0.141256 3.14151e-19)
(0.982925 0.137684 8.2863e-19)
(0.98407 0.133918 7.46224e-19)
(0.984254 0.13379 5.94029e-18)
(0.98594 0.132394 1.28891e-18)
(0.983721 0.188805 -3.67885e-22)
(0.983638 0.188714 -1.39817e-21)
(0.983553 0.188652 -1.12759e-21)
(0.983461 0.188602 1.12195e-20)
(0.983366 0.188543 -6.27021e-21)
(0.983269 0.188483 -6.95224e-21)
(0.983168 0.188421 -2.28211e-21)
(0.983067 0.188357 -9.50331e-21)
(0.982964 0.188291 6.68238e-21)
(0.982863 0.188222 1.34807e-21)
(0.982766 0.188152 7.20827e-22)
(0.982673 0.18808 2.19219e-20)
(0.982587 0.188007 -1.5237e-20)
(0.982511 0.187932 -1.58385e-21)
(0.982448 0.187854 1.49002e-20)
(0.9824 0.187774 -8.10499e-21)
(0.982369 0.18769 -2.44835e-21)
(0.982358 0.187603 4.57914e-21)
(0.982369 0.187511 1.18569e-20)
(0.982403 0.187415 4.79926e-21)
(0.982461 0.187312 1.91962e-22)
(0.982543 0.187204 -1.39645e-20)
(0.982647 0.18709 5.07439e-21)
(0.982774 0.18697 1.00857e-20)
(0.98292 0.186844 -2.00243e-20)
(0.983083 0.186713 4.91559e-21)
(0.98326 0.186574 -1.97362e-20)
(0.983446 0.186433 1.37771e-20)
(0.98364 0.186282 9.16158e-21)
(0.983837 0.186124 -1.841e-20)
(0.984037 0.185939 -1.33656e-21)
(0.984237 0.18575 5.83549e-21)
(0.984376 0.185569 1.32274e-21)
(0.984399 0.185362 -1.02977e-20)
(0.984371 0.185085 -1.32934e-21)
(0.984341 0.18474 -5.35855e-21)
(0.984312 0.184328 4.78482e-21)
(0.984288 0.183837 1.93185e-20)
(0.984275 0.183252 7.80815e-21)
(0.984276 0.182553 -2.95712e-20)
(0.984295 0.181712 1.56253e-19)
(0.984335 0.180695 3.05686e-20)
(0.984396 0.179469 3.08556e-19)
(0.984473 0.177999 -6.55833e-19)
(0.984556 0.17625 -3.25546e-20)
(0.98463 0.174193 7.51153e-20)
(0.984674 0.171812 -4.37648e-19)
(0.984661 0.169107 -9.61003e-19)
(0.984566 0.166104 -2.15954e-18)
(0.984361 0.162851 2.0089e-18)
(0.984055 0.159401 2.71613e-18)
(0.983643 0.15584 1.13333e-18)
(0.983175 0.152245 -3.32423e-18)
(0.98275 0.148648 1.31921e-18)
(0.982458 0.145075 2.94303e-18)
(0.982442 0.141508 -8.1593e-19)
(0.982791 0.137932 -8.26776e-19)
(0.983938 0.13417 -1.49289e-18)
(0.983877 0.134035 -7.57849e-18)
(0.985936 0.13305 7.24292e-18)
(0.983723 0.188999 4.16736e-22)
(0.983644 0.188913 -1.23166e-21)
(0.983563 0.188853 4.21625e-21)
(0.983477 0.188804 9.25289e-22)
(0.983388 0.188747 -5.52438e-21)
(0.983297 0.188688 -5.84314e-21)
(0.983204 0.188627 1.37516e-20)
(0.983108 0.188564 -1.42817e-20)
(0.983011 0.188499 -2.85644e-21)
(0.982915 0.188431 8.33676e-21)
(0.982821 0.188362 6.86541e-21)
(0.982729 0.188292 1.88386e-20)
(0.982642 0.188221 -1.18105e-20)
(0.982561 0.188148 -1.68676e-20)
(0.982491 0.188073 3.6065e-21)
(0.982432 0.187997 -1.09334e-20)
(0.982387 0.187918 8.51888e-21)
(0.982359 0.187837 -1.0645e-20)
(0.982349 0.187752 3.10117e-21)
(0.98236 0.187664 -1.11825e-21)
(0.982392 0.187569 3.70462e-22)
(0.982447 0.187471 -4.52591e-21)
(0.982525 0.187367 2.39317e-21)
(0.982624 0.187256 9.80266e-21)
(0.982745 0.187139 -9.62751e-22)
(0.982884 0.187015 1.2761e-21)
(0.983039 0.186881 8.28758e-22)
(0.983208 0.186741 -8.29908e-22)
(0.983386 0.186587 1.55057e-21)
(0.983571 0.18642 -1.62628e-21)
(0.983763 0.186218 2.63242e-22)
(0.983956 0.186006 -2.87609e-21)
(0.984093 0.185791 6.29798e-21)
(0.984109 0.185539 2.23102e-20)
(0.98407 0.18521 -1.1311e-20)
(0.98403 0.184805 -1.06936e-20)
(0.983992 0.184329 -1.05048e-20)
(0.983959 0.183771 -4.808e-20)
(0.983935 0.183116 1.21327e-20)
(0.983924 0.182348 -1.55389e-20)
(0.98393 0.181442 -4.48167e-20)
(0.983955 0.180368 4.77455e-20)
(0.984 0.179097 -9.81373e-20)
(0.984059 0.177597 1.92189e-19)
(0.984126 0.175838 -2.46832e-19)
(0.984185 0.173794 1.78825e-19)
(0.984219 0.171451 -8.549e-19)
(0.984203 0.168807 6.32665e-19)
(0.984113 0.165885 1.0126e-18)
(0.983923 0.162725 -1.64006e-18)
(0.98364 0.15937 -1.14345e-18)
(0.983259 0.155894 -7.99732e-19)
(0.982824 0.152366 1.42763e-19)
(0.982428 0.148807 -3.9434e-19)
(0.982155 0.145242 1.81343e-19)
(0.982143 0.14166 -2.15119e-18)
(0.982479 0.138055 2.00782e-18)
(0.983653 0.134275 6.81818e-19)
(0.983427 0.13412 5.97286e-19)
(0.985819 0.133494 -5.95239e-18)
(0.983717 0.189162 6.71261e-22)
(0.983642 0.189074 -5.75368e-22)
(0.983564 0.189014 4.68228e-22)
(0.983482 0.188966 2.92644e-21)
(0.983398 0.188908 3.94738e-21)
(0.983312 0.188851 -1.57254e-20)
(0.983223 0.188791 1.09719e-20)
(0.983133 0.188729 1.88413e-21)
(0.983041 0.188664 -8.96124e-22)
(0.98295 0.188597 -4.1879e-21)
(0.982859 0.188528 1.1153e-20)
(0.982769 0.188458 -4.34986e-21)
(0.982683 0.188387 -4.91815e-21)
(0.982601 0.188314 -1.14784e-20)
(0.982526 0.18824 2.15753e-20)
(0.98246 0.188165 -5.34122e-21)
(0.982405 0.188087 -3.88295e-21)
(0.982364 0.188008 -6.86151e-21)
(0.982338 0.187926 7.0496e-21)
(0.98233 0.187841 2.28186e-21)
(0.98234 0.187751 -9.40531e-22)
(0.982371 0.187658 8.07118e-22)
(0.982424 0.187559 -2.48762e-21)
(0.982497 0.187453 1.01919e-21)
(0.982591 0.187341 3.4118e-22)
(0.982705 0.187221 -2.45698e-22)
(0.982836 0.187089 1.32937e-20)
(0.982982 0.186949 1.75956e-21)
(0.98314 0.186792 -1.47577e-20)
(0.983306 0.186617 8.10782e-21)
(0.983482 0.186403 9.6625e-21)
(0.983662 0.186173 -1.42481e-20)
(0.983789 0.185929 -2.27277e-20)
(0.983794 0.185643 -5.28067e-20)
(0.983739 0.185274 3.56456e-21)
(0.983685 0.184824 -3.01228e-20)
(0.983632 0.1843 1.02315e-19)
(0.983584 0.183691 6.69735e-21)
(0.983545 0.182984 -1.26546e-20)
(0.983518 0.182166 7.56013e-20)
(0.983504 0.181213 -1.38531e-20)
(0.983507 0.180098 -1.3695e-20)
(0.983528 0.178796 -8.36653e-20)
(0.983562 0.177279 -8.44137e-20)
(0.983602 0.17552 -2.12852e-20)
(0.983637 0.173494 -6.95203e-20)
(0.98365 0.171188 1.72567e-19)
(0.983618 0.1686 3.74919e-19)
(0.983521 0.165747 6.92663e-20)
(0.983334 0.162663 4.66314e-19)
(0.983065 0.159384 -9.76117e-19)
(0.982707 0.155972 -7.99163e-19)
(0.982302 0.152486 2.21282e-19)
(0.981936 0.148943 -3.85955e-19)
(0.981689 0.145366 7.42646e-19)
(0.981693 0.141749 4.37396e-18)
(0.982037 0.138101 -1.39912e-18)
(0.983255 0.134289 2.88155e-18)
(0.982926 0.134109 5.05147e-18)
(0.985649 0.133809 -6.15036e-18)
(0.9837 0.189303 -5.99292e-22)
(0.983627 0.189219 6.59701e-22)
(0.983552 0.18916 4.08785e-21)
(0.983473 0.189112 -5.29387e-21)
(0.983392 0.189056 8.81865e-21)
(0.983309 0.188999 -1.25738e-20)
(0.983225 0.188938 3.55626e-21)
(0.983138 0.188876 -3.25088e-23)
(0.983051 0.188811 6.2432e-21)
(0.982963 0.188743 -3.27103e-21)
(0.982875 0.188673 6.24227e-22)
(0.982788 0.188601 5.71819e-22)
(0.982703 0.188529 -1.01202e-20)
(0.982621 0.188454 3.74054e-21)
(0.982544 0.188379 5.64554e-21)
(0.982474 0.188302 -2.9818e-22)
(0.982412 0.188223 -5.33721e-21)
(0.98236 0.188142 1.98906e-21)
(0.982322 0.18806 3.2023e-21)
(0.982298 0.187975 -2.23639e-21)
(0.982291 0.187885 1.88591e-21)
(0.982301 0.187793 -1.45607e-21)
(0.982331 0.187695 -4.01746e-21)
(0.98238 0.18759 -4.69845e-21)
(0.982449 0.187479 8.25549e-21)
(0.982537 0.18736 2.46918e-20)
(0.982642 0.187228 -1.57096e-20)
(0.982763 0.187087 -2.93476e-20)
(0.982897 0.186926 -1.71575e-20)
(0.983041 0.186744 2.57683e-20)
(0.983196 0.186519 -1.12373e-20)
(0.983357 0.186274 -3.04411e-20)
(0.98347 0.186009 3.38368e-20)
(0.983459 0.185697 -8.16962e-21)
(0.983386 0.185297 6.65554e-20)
(0.983313 0.184813 8.37369e-21)
(0.983243 0.184254 3.76376e-20)
(0.983177 0.183609 -4.44248e-20)
(0.983118 0.182864 8.50936e-20)
(0.983069 0.182011 -1.11388e-20)
(0.983031 0.181027 -5.337e-20)
(0.983008 0.179885 -2.11763e-20)
(0.983 0.178565 1.69474e-19)
(0.983002 0.177041 2.45028e-19)
(0.983011 0.175287 7.31941e-20)
(0.983014 0.173282 -3.06255e-19)
(0.982997 0.171013 -3.58458e-19)
(0.982942 0.168475 -4.08554e-20)
(0.982829 0.165681 -3.58676e-20)
(0.982637 0.162661 2.61737e-20)
(0.982375 0.159441 4.27784e-20)
(0.982034 0.156075 -4.28487e-19)
(0.981655 0.152614 -4.35667e-19)
(0.981319 0.14907 1.68376e-18)
(0.981103 0.145465 -9.81273e-19)
(0.981132 0.141801 -1.3868e-18)
(0.981498 0.138097 -3.06276e-18)
(0.982774 0.134243 -8.84791e-18)
(0.982388 0.134036 -1.0982e-17)
(0.985449 0.134026 1.42969e-17)
(0.983673 0.189431 -4.03432e-22)
(0.9836 0.189345 5.75723e-22)
(0.983526 0.189286 8.87242e-23)
(0.983448 0.18924 1.82169e-21)
(0.983369 0.189183 -2.76747e-21)
(0.983288 0.189126 -4.89801e-21)
(0.983206 0.189067 2.0863e-21)
(0.983122 0.189004 -1.61889e-21)
(0.983038 0.188939 4.24365e-21)
(0.982953 0.18887 -6.50759e-22)
(0.982868 0.188799 -1.693e-21)
(0.982783 0.188725 1.73186e-21)
(0.9827 0.18865 1.73205e-21)
(0.982618 0.188573 2.53294e-21)
(0.98254 0.188495 -4.29832e-21)
(0.982467 0.188416 1.12496e-21)
(0.982401 0.188334 -3.01153e-22)
(0.982342 0.188251 1.18186e-21)
(0.982294 0.188166 2.32982e-21)
(0.982258 0.188079 -8.01997e-21)
(0.982235 0.187988 1.12114e-20)
(0.982228 0.187894 -2.87282e-21)
(0.982237 0.187795 1.34806e-20)
(0.982264 0.187688 -2.54305e-20)
(0.982309 0.187576 5.8866e-21)
(0.982372 0.187455 1.97878e-20)
(0.982452 0.187321 -1.51977e-20)
(0.982547 0.187176 -3.22832e-20)
(0.982655 0.18701 2.97784e-20)
(0.982774 0.186823 -1.78428e-20)
(0.982905 0.186588 7.87154e-20)
(0.983043 0.186331 9.67396e-21)
(0.983138 0.186049 -3.20104e-20)
(0.98311 0.185717 2.19211e-20)
(0.983015 0.185295 5.44275e-20)
(0.982922 0.184787 1.20862e-19)
(0.982831 0.184203 -1.46522e-19)
(0.982744 0.183533 8.21935e-20)
(0.982663 0.182763 -4.09416e-20)
(0.98259 0.181887 -1.23308e-19)
(0.982525 0.180882 -1.30305e-19)
(0.982472 0.179725 6.34092e-20)
(0.982431 0.178396 -1.79671e-19)
(0.982399 0.176873 -3.26467e-19)
(0.982371 0.175131 3.58464e-20)
(0.982337 0.173149 3.28585e-19)
(0.982286 0.170914 3.54347e-19)
(0.982202 0.168421 1.81907e-20)
(0.982068 0.165679 -5.58465e-19)
(0.981864 0.16271 4.36803e-19)
(0.981602 0.159536 -1.2451e-18)
(0.981273 0.156202 1.58274e-18)
(0.980918 0.152751 1.00674e-18)
(0.980612 0.149194 1.36969e-18)
(0.980429 0.145552 2.13199e-18)
(0.980491 0.141831 -1.65268e-18)
(0.98089 0.138065 2.40764e-18)
(0.982232 0.134161 1.3142e-17)
(0.981823 0.133927 1.82555e-17)
(0.985238 0.134186 -8.18047e-18)
(0.983642 0.189549 -4.4332e-22)
(0.983568 0.189465 3.72357e-22)
(0.983494 0.189407 2.47013e-22)
(0.983416 0.18936 -1.58453e-21)
(0.983336 0.189304 1.59489e-21)
(0.983256 0.189247 -6.49701e-22)
(0.983174 0.189186 1.81387e-21)
(0.983091 0.189123 -2.36719e-21)
(0.983008 0.189056 3.29959e-22)
(0.982924 0.188986 2.45086e-22)
(0.982841 0.188913 -3.30132e-22)