/*--------------------------------*- C++ -*----------------------------------*\
  =========                 |
  \\      /  F ield         | OpenFOAM: The Open Source CFD Toolbox
   \\    /   O peration     | Website:  https://openfoam.org
    \\  /    A nd           | Version:  6.0
     \\/     M anipulation  |
\*---------------------------------------------------------------------------*/
FoamFile
{
    version     2.0;
    format      ascii;
    class       volScalarField;
    location    "13";
    object      p;
}
// * * * * * * * * * * * * * * * * * * * * * * * * * * * * * * * * * * * * * //

dimensions      [0 2 -2 0 0 0 0];

internalField   nonuniform List<scalar> 
62000
(
0.0202538
0.0202188
0.0201815
0.0201414
0.0200983
0.0200515
0.0200007
0.0199454
0.0198855
0.0198202
0.0197497
0.0196727
0.0195898
0.019499
0.0194013
0.0192941
0.0191785
0.0190513
0.0189138
0.0187624
0.018598
0.0184168
0.0182193
0.0180014
0.017763
0.0174995
0.0172103
0.0168907
0.0165391
0.0161509
0.0157243
0.0152547
0.0147402
0.0141757
0.0135604
0.0128951
0.0121809
0.0114181
0.0106084
0.00975489
0.0088621
0.00793546
0.00698136
0.00600748
0.00502226
0.00403819
0.00306952
0.00213423
0.00125749
0.000447326
-0.00026206
-0.000902751
-0.00141645
-0.00188742
-0.00227316
-0.00256444
-0.00272395
-0.00254182
-0.00215722
-0.00282296
0.0202805
0.0202422
0.020203
0.0201626
0.0201204
0.0200757
0.0200283
0.0199771
0.0199221
0.0198622
0.0197974
0.0197264
0.0196495
0.0195651
0.0194737
0.0193731
0.0192641
0.0191442
0.019014
0.0188708
0.0187149
0.0185432
0.0183557
0.0181488
0.017922
0.0176713
0.0173954
0.0170905
0.0167545
0.0163835
0.0159745
0.0155232
0.0150263
0.0144801
0.0138846
0.0132399
0.0125458
0.0118015
0.0110078
0.0101671
0.00928253
0.00835792
0.00739776
0.00640731
0.0053927
0.00436402
0.00333402
0.00232073
0.00135172
0.000439514
-0.000372367
-0.00111359
-0.00170734
-0.00224846
-0.00268043
-0.002981
-0.00310068
-0.00278006
-0.00230833
-0.0021869
0.0203208
0.0202798
0.0202382
0.020196
0.0201526
0.0201075
0.0200604
0.0200108
0.0199584
0.019902
0.0198412
0.0197745
0.0197022
0.0196223
0.0195357
0.0194399
0.0193359
0.0192209
0.019096
0.018958
0.0188077
0.0186417
0.0184602
0.0182597
0.0180394
0.0177956
0.0175269
0.0172296
0.0169013
0.0165387
0.0161378
0.0156948
0.0152047
0.014666
0.0140783
0.0134427
0.012758
0.0120232
0.0112387
0.0104068
0.00953038
0.00861274
0.0076576
0.00666916
0.00565216
0.00461488
0.00356901
0.00253232
0.00153512
0.000596281
-0.000230422
-0.000961277
-0.00151142
-0.00196653
-0.00226459
-0.00239167
-0.00233589
-0.00194517
-0.00152703
-0.00159936
0.0203986
0.0203552
0.020312
0.0202687
0.0202248
0.0201797
0.0201336
0.0200863
0.0200375
0.0199862
0.0199315
0.0198716
0.0198062
0.0197338
0.0196545
0.0195665
0.0194703
0.0193637
0.0192472
0.0191183
0.0189773
0.0188213
0.0186503
0.0184609
0.0182525
0.0180213
0.0177662
0.0174833
0.0171705
0.0168243
0.0164409
0.0160155
0.0155445
0.015025
0.0144591
0.0138474
0.0131894
0.0124837
0.0117311
0.0109337
0.0100941
0.00921539
0.00830035
0.0073515
0.00637094
0.0053629
0.00433412
0.00329736
0.0022785
0.00129652
0.000407622
-0.000393548
-0.00101034
-0.00151309
-0.0018319
-0.00194548
-0.00186119
-0.0014978
-0.00110661
-0.00116939
0.0204917
0.0204468
0.0204023
0.0203584
0.0203146
0.0202703
0.0202255
0.0201804
0.0201355
0.0200897
0.0200421
0.0199905
0.0199341
0.0198709
0.0198013
0.0197231
0.019637
0.0195405
0.0194346
0.0193164
0.0191867
0.0190424
0.0188837
0.0187073
0.0185127
0.0182964
0.0180569
0.017791
0.0174961
0.0171693
0.016806
0.0164024
0.0159532
0.0154581
0.014918
0.0143353
0.0137095
0.0130398
0.0123274
0.0115745
0.0107844
0.00995996
0.00910411
0.00821828
0.00730221
0.00635574
0.00537924
0.00437695
0.00336585
0.00235683
0.00140214
0.000498502
-0.000247576
-0.000890786
-0.00133503
-0.0015346
-0.00148514
-0.0011195
-0.000627816
-0.000401879
0.0206066
0.020562
0.0205181
0.0204752
0.0204331
0.0203905
0.0203472
0.0203035
0.0202606
0.0202184
0.0201757
0.0201303
0.0200807
0.0200249
0.0199627
0.0198923
0.019814
0.0197258
0.019628
0.0195185
0.0193973
0.0192619
0.0191122
0.0189451
0.01876
0.0185534
0.018324
0.0180684
0.0177845
0.0174687
0.0171172
0.0167248
0.0162877
0.0158041
0.0152769
0.0147083
0.0140987
0.0134479
0.0127577
0.0120315
0.0112732
0.0104876
0.00967895
0.0088497
0.00799977
0.00712731
0.00622859
0.00530121
0.00435258
0.00338425
0.00243851
0.0015093
0.000708287
-7.53944e-06
-0.00052448
-0.000767785
-0.000722861
-0.000334804
0.000256208
0.000633129
0.0207636
0.0207222
0.0206814
0.020642
0.020604
0.0205657
0.0205259
0.020485
0.0204447
0.0204057
0.0203673
0.020327
0.0202832
0.0202333
0.020177
0.0201123
0.0200396
0.0199569
0.0198647
0.0197605
0.0196447
0.0195146
0.0193701
0.0192081
0.0190279
0.018826
0.0186012
0.0183499
0.0180697
0.0177576
0.0174086
0.0170184
0.0165815
0.0160979
0.0155694
0.0149989
0.0143873
0.0137349
0.0130443
0.0123198
0.011567
0.0107929
0.0100047
0.00920804
0.00840592
0.00759841
0.00678194
0.00595126
0.00510807
0.00424493
0.0033944
0.00254099
0.00179314
0.001107
0.000608031
0.000383021
0.000442637
0.000808969
0.00139572
0.00174999
0.0209874
0.0209508
0.0209151
0.0208811
0.0208494
0.0208179
0.0207844
0.020749
0.0207134
0.0206793
0.0206464
0.0206126
0.0205755
0.0205324
0.0204824
0.020424
0.020357
0.0202801
0.0201933
0.0200948
0.0199845
0.0198601
0.0197211
0.0195647
0.01939
0.0191936
0.0189741
0.0187277
0.0184524
0.0181443
0.017799
0.0174109
0.0169756
0.0164909
0.01596
0.0153853
0.0147678
0.0141078
0.0134085
0.0126748
0.0119134
0.0111333
0.0103451
0.00955823
0.00878003
0.00801483
0.0072622
0.00651803
0.00578143
0.00503999
0.00431599
0.00358484
0.00294531
0.00234711
0.0019088
0.00172041
0.00177548
0.0020613
0.00256782
0.00283946
0.0212755
0.021245
0.0212147
0.0211867
0.0211621
0.0211388
0.0211138
0.0210863
0.0210584
0.0210321
0.0210078
0.0209833
0.0209564
0.0209234
0.0208837
0.0208349
0.0207775
0.0207096
0.0206319
0.0205424
0.0204414
0.0203264
0.0201975
0.0200514
0.0198876
0.0197026
0.0194949
0.0192611
0.0189983
0.0187034
0.018371
0.0179962
0.0175726
0.0170994
0.016578
0.016011
0.015399
0.014742
0.0140426
0.0133058
0.0125385
0.0117507
0.0109551
0.0101647
0.00939071
0.00864236
0.0079238
0.00723409
0.00657327
0.00592605
0.00530842
0.00468563
0.00414527
0.00362385
0.00323276
0.00305662
0.00307371
0.00324683
0.00366312
0.00387798
0.0216287
0.0216043
0.0215799
0.0215574
0.0215393
0.0215238
0.0215072
0.0214883
0.0214687
0.021451
0.0214361
0.0214224
0.021407
0.0213867
0.0213596
0.0213238
0.0212791
0.0212244
0.02116
0.0210844
0.0209976
0.0208979
0.0207848
0.0206557
0.02051
0.0203443
0.0201573
0.0199453
0.0197062
0.0194359
0.0191299
0.0187819
0.0183867
0.0179412
0.0174475
0.016907
0.0163198
0.015685
0.0150044
0.0142819
0.0135235
0.0127391
0.0119419
0.0111466
0.0103671
0.00961653
0.00890312
0.00823
0.00759923
0.00699617
0.00643197
0.00586657
0.00537712
0.00489036
0.00450483
0.00430435
0.00425651
0.00431671
0.00467423
0.0048821
0.0220307
0.0220128
0.0219936
0.0219758
0.0219628
0.0219535
0.0219442
0.0219329
0.0219212
0.0219117
0.0219062
0.0219031
0.0219001
0.0218932
0.0218805
0.0218596
0.0218305
0.0217916
0.0217437
0.0216853
0.0216167
0.0215362
0.0214437
0.0213367
0.0212148
0.0210749
0.0209155
0.0207337
0.0205266
0.0202914
0.0200224
0.0197144
0.0193604
0.0189585
0.018509
0.0180128
0.0174694
0.0168766
0.0162347
0.0155462
0.0148151
0.0140497
0.0132628
0.0124686
0.0116825
0.0109193
0.0101909
0.00950361
0.00886275
0.00825512
0.00769119
0.00712708
0.00663352
0.00612805
0.00570437
0.00544682
0.00532181
0.00528651
0.00562501
0.00587155
0.0224815
0.0224695
0.0224552
0.0224412
0.0224318
0.0224265
0.022422
0.022416
0.0224097
0.0224063
0.0224075
0.0224129
0.0224197
0.0224246
0.0224246
0.0224179
0.0224036
0.0223808
0.0223498
0.0223097
0.0222606
0.0222011
0.0221313
0.0220489
0.0219536
0.0218426
0.0217147
0.021567
0.0213973
0.0212023
0.0209773
0.020716
0.0204127
0.0200635
0.0196692
0.0192296
0.0187433
0.018207
0.0176194
0.0169811
0.0162938
0.0155635
0.0148008
0.0140186
0.0132315
0.012455
0.0117024
0.0109827
0.0103036
0.00965534
0.0090483
0.0084397
0.00789618
0.00733331
0.00683917
0.00650589
0.00630256
0.006195
0.00654772
0.00686328
0.022967
0.0229601
0.0229497
0.0229385
0.0229311
0.0229282
0.0229265
0.0229238
0.022921
0.0229213
0.0229273
0.0229385
0.022953
0.0229667
0.0229777
0.0229826
0.0229817
0.022973
0.0229577
0.0229343
0.0229036
0.0228641
0.0228162
0.0227577
0.0226887
0.0226065
0.0225102
0.0223971
0.0222651
0.0221115
0.0219313
0.0217193
0.0214683
0.0211758
0.0208409
0.0204631
0.0200401
0.0195678
0.0190433
0.0184649
0.0178321
0.0171481
0.0164209
0.0156608
0.0148807
0.0140953
0.0133181
0.0125597
0.0118301
0.011122
0.0104485
0.00976844
0.00914839
0.00850278
0.00792155
0.00750539
0.00723098
0.00707226
0.00746135
0.00786412
0.023492
0.0234888
0.0234815
0.0234724
0.0234663
0.0234641
0.0234633
0.0234616
0.0234597
0.023461
0.0234684
0.0234819
0.0234999
0.0235188
0.0235362
0.0235494
0.0235577
0.02356
0.0235568
0.0235474
0.0235322
0.02351
0.0234814
0.0234443
0.0233989
0.0233429
0.0232754
0.0231941
0.0230972
0.022982
0.0228443
0.0226782
0.0224781
0.0222396
0.0219628
0.0216458
0.0212861
0.0208787
0.0204192
0.0199043
0.0193312
0.0187004
0.0180167
0.0172876
0.0165237
0.0157375
0.0149417
0.0141475
0.0133659
0.012593
0.0118436
0.0110811
0.010373
0.00963746
0.00896525
0.00846946
0.00813396
0.00794165
0.00838062
0.00887874
0.0240443
0.0240437
0.0240385
0.0240309
0.0240251
0.0240229
0.0240219
0.0240198
0.0240177
0.0240186
0.0240258
0.0240397
0.024059
0.0240803
0.0241014
0.0241194
0.024134
0.0241436
0.0241492
0.0241497
0.0241462
0.0241374
0.024124
0.0241042
0.0240783
0.0240441
0.024001
0.0239469
0.0238801
0.0237985
0.0236975
0.0235727
0.023417
0.0232277
0.0230032
0.022742
0.022441
0.0220944
0.0216969
0.0212438
0.0207301
0.0201539
0.019517
0.0188243
0.0180831
0.0173039
0.0164979
0.0156755
0.014849
0.0140161
0.0131947
0.012352
0.0115582
0.0107347
0.00997723
0.00940995
0.00902538
0.00881264
0.00930881
0.00990506
0.024632
0.0246324
0.0246285
0.0246215
0.0246155
0.0246122
0.0246097
0.0246061
0.0246021
0.0246011
0.0246061
0.0246183
0.0246362
0.0246573
0.0246787
0.0246984
0.0247155
0.024729
0.0247394
0.0247463
0.0247504
0.0247509
0.0247486
0.0247417
0.0247306
0.0247134
0.0246897
0.0246574
0.0246152
0.0245609
0.0244909
0.0243999
0.0242826
0.0241345
0.0239553
0.0237426
0.023493
0.0232005
0.022859
0.0224626
0.022005
0.0214818
0.0208926
0.0202392
0.0195262
0.0187615
0.0179542
0.0171139
0.0162525
0.0153697
0.0144853
0.0135712
0.0126998
0.0117984
0.0109658
0.0103383
0.00991529
0.00969246
0.0102496
0.0109433
0.0252429
0.025243
0.025239
0.0252317
0.0252246
0.0252198
0.0252155
0.0252099
0.0252038
0.0252003
0.0252031
0.0252128
0.025229
0.0252483
0.0252692
0.0252886
0.0253064
0.0253211
0.0253339
0.0253439
0.0253525
0.0253586
0.0253635
0.0253654
0.0253649
0.0253602
0.0253509
0.0253354
0.0253122
0.0252797
0.0252339
0.0251708
0.0250838
0.0249703
0.0248285
0.0246562
0.0244501
0.0242038
0.0239108
0.0235644
0.023157
0.0226826
0.0221386
0.0215244
0.020842
0.0200966
0.0192954
0.0184464
0.0175612
0.0166404
0.0157058
0.0147328
0.0137969
0.0128293
0.0119338
0.0112572
0.0108059
0.0105806
0.0112006
0.0119894
0.0258856
0.0258841
0.0258793
0.0258711
0.0258628
0.0258558
0.0258491
0.0258406
0.0258314
0.0258247
0.0258238
0.02583
0.0258425
0.0258588
0.0258767
0.0258941
0.0259102
0.0259242
0.0259368
0.0259478
0.0259583
0.0259675
0.0259766
0.0259842
0.0259909
0.025995
0.0259963
0.025993
0.0259844
0.0259683
0.0259417
0.0258999
0.025838
0.0257516
0.0256402
0.025501
0.0253307
0.025123
0.024871
0.0245677
0.0242045
0.0237742
0.0232724
0.0226964
0.0220459
0.0213236
0.0205345
0.019685
0.0187859
0.0178386
0.0168653
0.0158456
0.0148566
0.0138352
0.0128881
0.0121727
0.0117008
0.0114788
0.0121622
0.013043
0.0265466
0.0265431
0.0265367
0.0265273
0.0265171
0.0265079
0.0264986
0.0264873
0.0264751
0.0264651
0.0264611
0.0264639
0.0264732
0.0264862
0.0265014
0.026516
0.0265301
0.0265422
0.0265537
0.026564
0.0265746
0.0265848
0.026596
0.0266068
0.026618
0.026628
0.0266366
0.0266425
0.0266444
0.0266411
0.026629
0.0266046
0.0265615
0.0264975
0.0264105
0.0262982
0.0261572
0.0259813
0.0257637
0.0254968
0.0251716
0.0247799
0.0243159
0.0237753
0.0231557
0.0224577
0.0216842
0.0208401
0.019935
0.0189702
0.0179691
0.0169137
0.0158835
0.0148188
0.0138304
0.0130845
0.0125988
0.0123845
0.0131313
0.0141002
0.0272359
0.0272296
0.0272213
0.0272101
0.0271978
0.0271858
0.0271731
0.0271583
0.0271423
0.0271287
0.0271206
0.0271196
0.0271248
0.0271342
0.0271454
0.0271568
0.0271675
0.0271771
0.0271861
0.0271949
0.0272045
0.0272146
0.0272264
0.027239
0.0272529
0.0272668
0.0272808
0.0272933
0.0273035
0.0273097
0.0273095
0.0272981
0.0272713
0.0272248
0.0271578
0.0270676
0.0269507
0.0268013
0.0266125
0.0263766
0.0260844
0.0257269
0.0252972
0.0247897
0.0242002
0.0235272
0.0227719
0.0219374
0.021032
0.0200571
0.0190358
0.0179532
0.0168893
0.0157896
0.0147671
0.0139973
0.0135021
0.0132987
0.0141082
0.0151616
0.0279379
0.0279285
0.0279175
0.027904
0.0278891
0.0278742
0.0278584
0.0278403
0.0278212
0.0278041
0.0277929
0.0277885
0.0277908
0.0277968
0.0278053
0.0278135
0.0278217
0.0278285
0.0278354
0.0278421
0.0278503
0.0278594
0.0278712
0.0278845
0.0279002
0.027917
0.0279349
0.0279526
0.0279692
0.0279837
0.0279926
0.027993
0.0279788
0.0279476
0.0278974
0.0278257
0.0277293
0.0276023
0.027438
0.0272288
0.0269651
0.0266375
0.0262382
0.0257605
0.0251988
0.0245499
0.0238131
0.0229902
0.0220881
0.0211076
0.0200719
0.0189682
0.0178782
0.0167498
0.0156994
0.0149102
0.0144093
0.014219
0.0150904
0.0162236
0.0286642
0.0286512
0.0286374
0.0286214
0.0286038
0.0285857
0.0285663
0.0285443
0.028521
0.0285
0.0284846
0.0284763
0.0284744
0.0284768
0.0284813
0.0284862
0.0284909
0.028495
0.0284993
0.0285041
0.0285108
0.0285192
0.0285308
0.0285447
0.0285619
0.0285811
0.0286025
0.0286248
0.0286473
0.0286685
0.0286862
0.0286961
0.0286941
0.0286758
0.0286405
0.0285852
0.0285066
0.0283993
0.0282566
0.028071
0.0278328
0.0275321
0.0271607
0.0267108
0.0261755
0.0255501
0.0248322
0.0240221
0.0231255
0.0221426
0.0210958
0.019975
0.0188616
0.017708
0.0166329
0.0158273
0.0153223
0.0151463
0.016078
0.0172874
0.0293977
0.0293814
0.0293647
0.0293461
0.0293258
0.0293046
0.0292819
0.0292563
0.0292295
0.0292048
0.0291862
0.0291744
0.0291695
0.0291686
0.0291704
0.0291722
0.0291745
0.029176
0.0291783
0.0291812
0.0291866
0.0291941
0.0292056
0.0292203
0.0292389
0.0292606
0.0292854
0.0293122
0.0293401
0.0293683
0.0293937
0.0294135
0.0294219
0.0294164
0.0293948
0.0293546
0.0292925
0.0292031
0.02908
0.0289156
0.0287004
0.028424
0.0280777
0.027653
0.0271418
0.0265381
0.025838
0.0250404
0.0241496
0.0231652
0.0221092
0.0209732
0.0198404
0.0186644
0.0175673
0.0167471
0.0162397
0.0160786
0.0170692
0.0183496
0.0301514
0.0301315
0.0301121
0.0300906
0.0300672
0.0300423
0.0300156
0.0299859
0.0299547
0.0299261
0.0299032
0.0298879
0.029879
0.0298748
0.0298729
0.0298719
0.029871
0.0298702
0.0298701
0.0298716
0.0298758
0.029883
0.0298947
0.0299103
0.0299308
0.0299553
0.0299838
0.0300152
0.0300491
0.0300841
0.030118
0.0301467
0.0301666
0.030173
0.0301651
0.0301394
0.030093
0.0300207
0.0299161
0.0297719
0.0295783
0.0293249
0.0290024
0.0286015
0.0281133
0.0275304
0.0268475
0.0260622
0.0251773
0.024192
0.0231271
0.0219771
0.020824
0.0196259
0.0185071
0.0176729
0.0171628
0.0170167
0.0180639
0.0194118
0.0309048
0.0308816
0.0308588
0.0308344
0.0308078
0.0307797
0.0307495
0.0307161
0.0306816
0.0306494
0.0306238
0.0306053
0.0305942
0.0305872
0.0305834
0.0305799
0.0305773
0.0305745
0.0305732
0.0305733
0.030577
0.0305841
0.0305965
0.0306136
0.0306364
0.0306642
0.030697
0.0307338
0.0307739
0.0308166
0.0308588
0.030898
0.0309286
0.0309479
0.0309536
0.0309426
0.0309118
0.0308563
0.0307697
0.0306447
0.0304716
0.0302398
0.0299394
0.0295606
0.0290935
0.0285295
0.027862
0.0270875
0.0262073
0.0252202
0.024146
0.0229816
0.0218099
0.0205904
0.0194508
0.0186028
0.0180905
0.0179589
0.0190609
0.020471
0.0316754
0.0316485
0.0316225
0.0315948
0.0315649
0.031533
0.0314987
0.0314611
0.0314222
0.0313859
0.0313561
0.0313341
0.0313192
0.0313092
0.0313021
0.0312962
0.031291
0.0312866
0.0312838
0.0312834
0.0312869
0.0312948
0.0313086
0.031328
0.031354
0.0313858
0.0314237
0.0314666
0.031514
0.0315646
0.0316166
0.0316659
0.031709
0.0317412
0.0317612
0.0317652
0.0317503
0.0317118
0.0316433
0.0315374
0.0313847
0.0311741
0.0308954
0.0305381
0.0300915
0.0295458
0.0288931
0.0281287
0.0272522
0.0262627
0.0251775
0.0239989
0.0228059
0.0215635
0.0204017
0.0195392
0.0190234
0.0189055
0.0200594
0.0215284
0.032441
0.0324109
0.0323817
0.0323511
0.032318
0.0322828
0.0322449
0.0322035
0.0321609
0.0321211
0.0320882
0.0320632
0.032046
0.0320335
0.0320246
0.0320167
0.0320104
0.0320048
0.0320015
0.0320009
0.032005
0.032014
0.0320299
0.0320522
0.032082
0.0321188
0.0321625
0.0322124
0.0322676
0.0323277
0.0323896
0.032451
0.0325063
0.0325528
0.0325876
0.0326074
0.032609
0.0325879
0.0325375
0.0324508
0.0323181
0.0321281
0.0318701
0.0315331
0.0311055
0.0305764
0.0299367
0.0291805
0.0283062
0.0273123
0.0262151
0.0250202
0.0238068
0.0225415
0.0213576
0.0204801
0.0199603
0.0198551
0.0210589
0.0225815
0.033219
0.0331852
0.0331529
0.0331188
0.033082
0.0330427
0.0330003
0.0329546
0.0329075
0.0328638
0.0328269
0.0327989
0.0327782
0.0327635
0.0327518
0.0327423
0.0327341
0.0327278
0.0327238
0.0327237
0.0327288
0.0327397
0.0327583
0.0327845
0.0328189
0.0328614
0.0329119
0.0329697
0.0330341
0.0331039
0.0331775
0.0332508
0.0333205
0.0333814
0.0334321
0.0334684
0.0334872
0.033484
0.0334525
0.0333855
0.0332732
0.033104
0.0328669
0.0325502
0.0321414
0.0316285
0.0310012
0.0302525
0.0293792
0.0283795
0.0272684
0.0260569
0.0248197
0.0235289
0.022321
0.0214268
0.0209015
0.0208075
0.0220581
0.0236314
0.0339831
0.0339459
0.0339099
0.0338724
0.0338321
0.0337894
0.0337437
0.0336944
0.0336444
0.0335977
0.0335587
0.0335284
0.0335067
0.0334903
0.0334782
0.0334676
0.0334595
0.0334529
0.0334497
0.0334504
0.0334573
0.0334707
0.0334928
0.0335234
0.0335634
0.0336125
0.0336707
0.0337374
0.0338116
0.0338929
0.0339783
0.0340657
0.0341493
0.0342265
0.0342937
0.0343473
0.0343841
0.0343996
0.0343875
0.0343404
0.0342485
0.0341
0.0338832
0.0335858
0.0331946
0.0326966
0.0320802
0.0313372
0.030463
0.0294558
0.0283295
0.0270991
0.0258379
0.0245216
0.0232893
0.0223777
0.0218458
0.0217616
0.0230571
0.0246758
0.0347585
0.0347171
0.0346772
0.0346358
0.0345915
0.0345446
0.0344945
0.0344409
0.0343866
0.0343363
0.0342939
0.034261
0.0342366
0.0342187
0.0342046
0.0341934
0.0341845
0.0341783
0.0341758
0.0341784
0.0341878
0.0342048
0.0342313
0.0342674
0.0343139
0.0343707
0.0344378
0.0345143
0.0345998
0.0346929
0.0347921
0.0348932
0.0349933
0.0350865
0.0351714
0.0352432
0.0352986
0.0353337
0.0353417
0.0353152
0.0352445
0.0351173
0.0349213
0.0346436
0.0342701
0.0337868
0.0331809
0.0324428
0.0315668
0.0305505
0.0294071
0.0281577
0.026869
0.0255238
0.0242645
0.0233336
0.022793
0.0227165
0.0240536
0.0257153
0.035519
0.0354738
0.0354302
0.0353852
0.0353372
0.0352865
0.0352327
0.0351756
0.0351181
0.035065
0.0350205
0.0349859
0.0349606
0.0349417
0.0349277
0.0349165
0.0349086
0.0349034
0.0349029
0.0349079
0.0349207
0.0349419
0.0349737
0.0350162
0.0350701
0.0351356
0.0352124
0.0353
0.0353974
0.035504
0.0356171
0.0357343
0.03585
0.0359614
0.0360643
0.0361551
0.0362301
0.0362854
0.0363141
0.0363088
0.0362595
0.0361535
0.0359779
0.0357193
0.0353627
0.0348929
0.0342962
0.0335615
0.0326819
0.0316551
0.0304939
0.0292224
0.0279054
0.0265312
0.0252444
0.0242929
0.0237423
0.0236718
0.0250484
0.0267481
0.036287
0.0362374
0.0361896
0.0361402
0.0360877
0.0360324
0.0359739
0.0359125
0.0358509
0.0357947
0.0357473
0.035711
0.0356839
0.0356645
0.0356498
0.0356391
0.0356316
0.0356283
0.0356298
0.0356381
0.0356549
0.0356813
0.0357193
0.0357691
0.0358315
0.0359066
0.0359943
0.0360939
0.0362047
0.0363253
0.0364541
0.036587
0.0367209
0.0368499
0.0369721
0.0370825
0.0371778
0.0372541
0.0373044
0.0373211
0.037294
0.03721
0.0370556
0.0368165
0.036477
0.0360209
0.0354331
0.0347014
0.0338173
0.0327787
0.0315977
0.0303039
0.0289551
0.027548
0.0262307
0.025256
0.024693
0.024626
0.0260387
0.0277744
0.0370333
0.0369793
0.0369269
0.0368731
0.0368164
0.0367573
0.0366955
0.0366308
0.036567
0.0365088
0.0364609
0.036424
0.0363979
0.0363791
0.0363662
0.036357
0.0363522
0.0363515
0.0363566
0.036369
0.0363909
0.0364232
0.0364683
0.0365264
0.0365982
0.0366841
0.0367837
0.0368965
0.0370213
0.0371574
0.037302
0.0374528
0.0376041
0.0377527
0.0378945
0.0380253
0.0381418
0.0382397
0.0383121
0.0383513
0.0383469
0.0382849
0.0381515
0.0379315
0.0376084
0.0371649
0.0365849
0.0358549
0.034965
0.0339136
0.0327122
0.0313929
0.0300109
0.0285702
0.0272215
0.0262221
0.0256446
0.0255789
0.0270257
0.0287927
0.0377895
0.0377301
0.0376728
0.0376141
0.0375527
0.0374889
0.0374225
0.0373538
0.0372864
0.0372256
0.0371755
0.0371378
0.0371108
0.0370926
0.0370803
0.037073
0.0370701
0.0370728
0.0370818
0.0370994
0.0371274
0.037167
0.0372205
0.0372881
0.0373707
0.0374684
0.0375811
0.037708
0.0378482
0.0380003
0.0381625
0.0383307
0.0385017
0.0386695
0.038832
0.0389839
0.0391219
0.0392422
0.0393376
0.0394001
0.0394191
0.0393802
0.0392685
0.0390682
0.0387619
0.0383313
0.0377591
0.0370302
0.036134
0.0350683
0.0338453
0.0324998
0.0310811
0.0296024
0.0282184
0.027191
0.026596
0.0265288
0.0280062
0.0298027
0.0385279
0.0384639
0.0384019
0.0383385
0.0382725
0.0382043
0.0381338
0.0380615
0.0379914
0.0379287
0.037878
0.0378403
0.0378146
0.0377981
0.0377886
0.0377844
0.0377858
0.0377931
0.0378077
0.0378316
0.0378669
0.0379149
0.0379778
0.038056
0.0381502
0.038261
0.0383876
0.0385298
0.038686
0.0388555
0.0390354
0.0392231
0.0394131
0.0396019
0.0397854
0.0399589
0.0401191
0.0402622
0.0403811
0.0404675
0.0405104
0.0404945
0.0404045
0.0402236
0.0399335
0.039515
0.0389495
0.0382208
0.0373171
0.0362364
0.034991
0.0336159
0.0321588
0.030641
0.02922
0.0281623
0.0275472
0.0274758
0.0289817
0.0308033
0.0392688
0.0391982
0.0391304
0.0390615
0.0389905
0.0389176
0.038843
0.0387676
0.0386949
0.0386311
0.0385797
0.038543
0.0385184
0.0385046
0.0384976
0.0384976
0.0385031
0.0385161
0.0385368
0.0385682
0.0386117
0.0386691
0.0387424
0.0388323
0.0389391
0.0390637
0.0392052
0.0393632
0.0395366
0.0397238
0.0399229
0.0401297
0.0403409
0.0405501
0.0407553
0.0409508
0.0411337
0.0413005
0.0414436
0.0415547
0.0416222
0.0416303
0.0415626
0.0414018
0.0411284
0.0407223
0.0401635
0.0394347
0.0385229
0.0374261
0.0361569
0.0347511
0.033252
0.0316901
0.0302276
0.0291355
0.0284965
0.0284176
0.0299486
0.0317939
0.0400071
0.0399281
0.0398509
0.0397738
0.0396955
0.0396174
0.039539
0.039461
0.0393874
0.0393237
0.0392742
0.0392398
0.0392193
0.0392096
0.0392082
0.0392134
0.0392257
0.0392454
0.0392739
0.0393134
0.0393662
0.0394336
0.039518
0.03962
0.0397401
0.0398789
0.0400358
0.0402105
0.0404012
0.0406072
0.0408252
0.0410528
0.041284
0.0415152
0.0417423
0.0419604
0.0421668
0.0423579
0.0425259
0.0426621
0.0427545
0.0427867
0.0427414
0.0426004
0.0423433
0.0419488
0.0413958
0.0406659
0.0397449
0.0386311
0.0373368
0.0358971
0.034354
0.0327465
0.0312403
0.0301107
0.0294446
0.029355
0.0309088
0.032774
0.0407291
0.0406444
0.0405642
0.0404841
0.040404
0.0403242
0.0402452
0.0401674
0.0400948
0.0400329
0.0399855
0.0399543
0.0399367
0.039931
0.0399335
0.039944
0.0399617
0.0399883
0.0400241
0.0400723
0.0401345
0.0402123
0.0403082
0.0404226
0.040556
0.0407094
0.0408819
0.0410731
0.0412817
0.0415061
0.0417443
0.0419916
0.0422448
0.0424974
0.0427473
0.0429888
0.0432192
0.0434353
0.0436289
0.043791
0.0439091
0.0439661
0.043944
0.0438234
0.043583
0.0432004
0.0426534
0.041922
0.0409912
0.0398591
0.0385381
0.037063
0.0354725
0.033814
0.0322587
0.0310867
0.0303891
0.0302851
0.0318582
0.0337421
0.041543
0.0414512
0.0413607
0.04127
0.0411784
0.0410886
0.0410006
0.0409159
0.0408386
0.0407741
0.0407263
0.0406958
0.0406809
0.0406781
0.040685
0.0406999
0.0407233
0.0407556
0.0407985
0.0408541
0.0409249
0.0410121
0.0411186
0.0412446
0.0413908
0.0415582
0.0417458
0.0419535
0.0421794
0.0424227
0.0426801
0.0429487
0.0432227
0.0434984
0.0437713
0.0440367
0.0442919
0.0445336
0.0447534
0.0449418
0.045086
0.045168
0.0451689
0.0450686
0.0448445
0.0444731
0.043931
0.0431971
0.0422552
0.0411037
0.0397543
0.0382404
0.0366005
0.0348892
0.0332821
0.0320639
0.0313307
0.031209
0.032799
0.034698
0.0423638
0.0422688
0.0421767
0.0420837
0.0419901
0.0418971
0.0418062
0.0417185
0.0416386
0.0415723
0.0415229
0.0414918
0.041476
0.0414735
0.0414806
0.041497
0.0415222
0.0415579
0.0416048
0.041666
0.0417434
0.0418386
0.0419541
0.0420905
0.0422483
0.0424286
0.0426305
0.0428537
0.0430968
0.043358
0.0436353
0.0439238
0.0442205
0.0445182
0.044815
0.0451049
0.0453855
0.0456535
0.0459001
0.0461155
0.0462865
0.0463942
0.0464189
0.0463395
0.0461322
0.0457724
0.0452351
0.0444983
0.0435446
0.042372
0.0409924
0.0394379
0.0377448
0.0359751
0.0343102
0.0330406
0.0322669
0.0321237
0.0337269
0.0356399
0.0432968
0.0431969
0.043097
0.0429955
0.0428922
0.04279
0.0426898
0.0425939
0.0425067
0.0424345
0.0423807
0.0423458
0.0423276
0.0423226
0.0423284
0.0423433
0.0423684
0.0424043
0.0424528
0.0425164
0.0425978
0.0426981
0.0428203
0.0429649
0.0431324
0.043324
0.0435387
0.0437764
0.0440352
0.0443143
0.04461
0.0449196
0.045237
0.0455582
0.0458789
0.0461938
0.0465004
0.0467954
0.0470694
0.0473123
0.0475103
0.0476439
0.0476925
0.0476338
0.0474429
0.0470939
0.0465606
0.0458196
0.0448525
0.0436573
0.042245
0.0406469
0.0388986
0.0370684
0.0353426
0.0340172
0.0331986
0.0330302
0.0346441
0.0365681
0.0442434
0.0441449
0.0440475
0.0439472
0.0438443
0.0437403
0.0436371
0.0435368
0.0434447
0.0433671
0.0433077
0.0432675
0.0432436
0.0432335
0.0432338
0.0432444
0.0432654
0.0432986
0.0433452
0.0434087
0.0434911
0.0435941
0.0437206
0.0438711
0.0440461
0.044247
0.0444728
0.0447233
0.0449969
0.0452921
0.0456064
0.045935
0.0462746
0.0466181
0.0469632
0.0473036
0.0476367
0.0479593
0.0482613
0.0485324
0.0487583
0.0489187
0.0489918
0.0489545
0.0487805
0.0484427
0.0479132
0.0471674
0.0461858
0.0449662
0.0435193
0.041875
0.0400675
0.038171
0.0363781
0.0349912
0.0341226
0.0339252
0.0355464
0.0374806
0.0452981
0.0452012
0.0451033
0.0450005
0.0448927
0.044782
0.0446704
0.0445606
0.0444589
0.0443716
0.0443034
0.0442543
0.0442226
0.0442046
0.0441979
0.0442014
0.0442164
0.044244
0.0442864
0.0443465
0.0444273
0.04453
0.044658
0.0448117
0.0449918
0.0451997
0.0454344
0.045696
0.0459825
0.046293
0.0466238
0.0469721
0.0473319
0.0476988
0.048068
0.0484341
0.0487943
0.0491449
0.0494756
0.0497754
0.0500297
0.0502171
0.0503151
0.0502992
0.0501419
0.0498144
0.0492877
0.0485358
0.0475378
0.0462914
0.0448071
0.0431136
0.0412448
0.0392796
0.0374163
0.0359633
0.0350401
0.0348099
0.036436
0.038378
0.0463972
0.0463019
0.0462052
0.0461029
0.0459944
0.0458811
0.0457646
0.0456481
0.0455379
0.0454414
0.0453633
0.0453046
0.0452628
0.0452352
0.0452186
0.0452131
0.0452193
0.0452393
0.0452748
0.0453296
0.0454061
0.0455063
0.0456333
0.0457879
0.0459706
0.0461832
0.0464248
0.0466953
0.0469932
0.0473168
0.047664
0.0480297
0.0484106
0.0487991
0.0491929
0.0495849
0.0499724
0.0503517
0.0507118
0.0510412
0.0513249
0.0515403
0.051664
0.0516702
0.0515302
0.0512134
0.0506893
0.0499305
0.0489148
0.0476398
0.0461157
0.0443699
0.0424352
0.0403953
0.0384552
0.0369304
0.0359475
0.0356808
0.0373087
0.0392579
0.0475088
0.0474159
0.0473222
0.0472231
0.0471172
0.0470052
0.0468884
0.0467693
0.0466549
0.0465525
0.0464677
0.0464011
0.0463512
0.0463145
0.0462892
0.0462741
0.0462714
0.0462824
0.0463098
0.0463571
0.0464275
0.0465227
0.0466465
0.0467996
0.0469827
0.0471978
0.0474439
0.0477215
0.0480286
0.0483645
0.0487255
0.0491089
0.0495083
0.0499193
0.050337
0.0507549
0.0511703
0.0515789
0.0519691
0.0523289
0.0526425
0.0528867
0.0530365
0.0530651
0.0529421
0.0526355
0.0521129
0.0513455
0.0503101
0.0490035
0.0474362
0.0456352
0.0436323
0.0415152
0.0394947
0.0378934
0.0368461
0.0365392
0.0381666
0.0401212
0.0486585
0.0485671
0.0484757
0.0483789
0.048275
0.0481642
0.0480475
0.047927
0.0478096
0.0477031
0.0476126
0.0475395
0.0474818
0.0474369
0.0474022
0.047378
0.0473654
0.0473672
0.0473853
0.0474244
0.0474872
0.0475761
0.0476949
0.0478447
0.0480262
0.0482418
0.0484907
0.0487733
0.0490881
0.049434
0.0498085
0.0502068
0.0506259
0.0510575
0.0514993
0.0519434
0.0523869
0.0528254
0.0532466
0.0536378
0.0539827
0.0542567
0.0544338
0.0544858
0.0543806
0.0540844
0.0535632
0.0527863
0.0517295
0.0503893
0.0487764
0.0469162
0.0448401
0.0426393
0.040532
0.0388487
0.0377321
0.0373815
0.0390057
0.0409654
0.0498396
0.0497486
0.0496575
0.0495612
0.0494579
0.0493473
0.0492303
0.0491084
0.0489889
0.0488789
0.0487845
0.0487061
0.0486427
0.0485907
0.0485487
0.0485158
0.0484947
0.0484871
0.0484963
0.0485262
0.0485808
0.0486622
0.0487748
0.0489197
0.0490981
0.0493126
0.0495624
0.0498486
0.0501694
0.0505244
0.0509102
0.0513241
0.0517602
0.0522135
0.0526788
0.0531492
0.0536212
0.0540903
0.0545433
0.0549669
0.055344
0.0556488
0.0558539
0.0559296
0.0558423
0.055556
0.0550351
0.0542469
0.0531663
0.051789
0.0501267
0.0482044
0.0460524
0.0437652
0.0415674
0.0397973
0.038607
0.038209
0.039828
0.0417914
0.0510681
0.0509757
0.0508832
0.0507854
0.0506807
0.0505683
0.050449
0.0503243
0.0502012
0.0500871
0.0499875
0.0499035
0.0498332
0.049774
0.0497235
0.0496821
0.0496515
0.0496347
0.0496343
0.0496553
0.0497012
0.0497747
0.0498803
0.0500196
0.0501939
0.0504062
0.050656
0.0509444
0.0512704
0.0516329
0.0520302
0.0524575
0.0529119
0.053385
0.0538742
0.054371
0.0548719
0.0553723
0.0558581
0.0563154
0.0567261
0.0570631
0.0572976
0.0573983
0.0573296
0.0570536
0.0565326
0.0557323
0.0546262
0.0532097
0.051495
0.0495062
0.0472725
0.0448922
0.0425976
0.0407353
0.0394668
0.0390182
0.0406297
0.0425968
0.0523282
0.0522341
0.0521394
0.0520389
0.0519309
0.0518148
0.0516914
0.0515621
0.0514341
0.0513148
0.0512101
0.05112
0.0510437
0.0509773
0.0509196
0.0508696
0.0508305
0.0508043
0.0507946
0.0508061
0.050843
0.050908
0.0510062
0.0511394
0.0513089
0.0515184
0.0517673
0.0520576
0.0523877
0.0527579
0.053165
0.0536066
0.0540771
0.0545712
0.0550839
0.0556073
0.0561378
0.0566703
0.0571899
0.057682
0.0581276
0.058498
0.0587628
0.0588891
0.0588393
0.0585732
0.0580512
0.0572367
0.0561026
0.0546428
0.0528718
0.0508132
0.048495