/*--------------------------------*- C++ -*----------------------------------*\
  =========                 |
  \\      /  F ield         | OpenFOAM: The Open Source CFD Toolbox
   \\    /   O peration     | Website:  https://openfoam.org
    \\  /    A nd           | Version:  6.0
     \\/     M anipulation  |
\*---------------------------------------------------------------------------*/
FoamFile
{
    version     2.0;
    format      ascii;
    class       volVectorField;
    location    "2.42";
    object      U;
}
// * * * * * * * * * * * * * * * * * * * * * * * * * * * * * * * * * * * * * //

dimensions      [0 1 -1 0 0 0 0];

internalField   nonuniform List<vector> 
13500
(
(1 1.6683e-06 -4.2544e-18)
(1 -2.9449e-06 2.8787e-18)
(1 -6.4565e-06 -1.2385e-17)
(1 -9.3382e-06 -8.5602e-18)
(1 -9.4541e-06 1.6133e-17)
(1 -8.2191e-06 2.9961e-17)
(1 4.253e-07 2.5769e-17)
(0.99998 1.3637e-05 -4.1498e-18)
(0.99991 4.3606e-05 1.5252e-17)
(0.99981 7.1768e-05 3.2784e-18)
(0.99571 0.00075666 2.8546e-17)
(1.019 0.010838 7.7697e-18)
(1 4.9969e-06 2.6357e-18)
(1 -8.0668e-06 -8.7425e-18)
(1 -1.7998e-05 5.9142e-18)
(1 -2.6131e-05 -3.3755e-19)
(1 -2.5786e-05 -4.3023e-19)
(1 -2.2002e-05 -3.6026e-17)
(1 5.0031e-06 -4.4508e-17)
(0.99994 4.3036e-05 -2.3744e-17)
(0.99971 0.00014284 -1.5222e-17)
(0.99986 0.00017391 -1.6214e-18)
(0.98615 0.0021934 -1.3518e-17)
(1.0535 0.030627 -4.7043e-18)
(1 8.3039e-06 -3.4043e-18)
(1 -1.325e-05 1.737e-17)
(1 -2.9741e-05 3.0763e-18)
(1 -4.3128e-05 9.8697e-18)
(1 -4.2437e-05 -3.7203e-18)
(1 -3.6115e-05 2.8858e-17)
(0.99999 9.6605e-06 -6.2653e-18)
(0.99991 7.1796e-05 5.3936e-18)
(0.99948 0.00025066 -1.8466e-17)
(1.0004 0.00029137 2.4631e-17)
(0.97594 0.0032804 -7.0676e-18)
(1.082 0.045139 1.6503e-18)
(1 1.1603e-05 8.8997e-18)
(1 -1.8625e-05 -1.684e-17)
(1 -4.183e-05 -1.4582e-17)
(1 -6.0576e-05 -6.9245e-19)
(1 -5.9647e-05 5.7431e-18)
(1 -5.0746e-05 -8.0103e-19)
(0.99999 1.3978e-05 6.173e-17)
(0.99988 9.961e-05 9.7174e-18)
(0.99922 0.00036564 2.1836e-17)
(1.0013 0.00042931 -8.9216e-18)
(0.96545 0.0040432 3.4414e-17)
(1.1033 0.055655 -7.512e-18)
(1 1.4895e-05 -6.2534e-18)
(1 -2.4034e-05 1.4554e-17)
(1 -5.3982e-05 1.2413e-17)
(1 -7.8087e-05 1.2632e-17)
(1.0001 -7.6972e-05 2.8161e-18)
(1.0001 -6.5404e-05 2.121e-17)
(1 1.8272e-05 -2.7566e-17)
(0.99987 0.0001266 1.9737e-18)
(0.99892 0.00048635 -1.3388e-17)
(1.0027 0.00059023 -2.1286e-18)
(0.9551 0.0045319 -8.9262e-18)
(1.1173 0.06331 2.0827e-18)
(1 1.8181e-05 6.3285e-18)
(1 -2.9471e-05 -6.0336e-18)
(1 -6.6204e-05 3.7911e-18)
(1 -9.5654e-05 -2.5022e-17)
(1.0001 -9.4426e-05 -8.243e-20)
(1.0001 -8.0095e-05 -4.1989e-17)
(1 2.2522e-05 1.0578e-18)
(0.99986 0.00015263 -1.5843e-17)
(0.99855 0.00061123 5.0985e-18)
(1.0045 0.00078114 -2.1451e-17)
(0.94523 0.0047887 -2.1487e-17)
(1.1246 0.068718 2.0135e-18)
(0.99999 2.1459e-05 -1.0476e-18)
(1 -3.4939e-05 -7.2162e-18)
(1 -7.8497e-05 -3.0811e-18)
(1.0001 -0.00011328 1.8886e-17)
(1.0001 -0.00011201 -2.6083e-17)
(1.0001 -9.4835e-05 1.6066e-17)
(1 2.6744e-05 1.8438e-17)
(0.99987 0.00017765 5.574e-18)
(0.99812 0.00073876 1.1397e-17)
(1.0065 0.0010088 1.1548e-17)
(0.93613 0.0048516 9.2565e-18)
(1.1264 0.072307 3.2331e-18)
(0.99999 2.4731e-05 -2.1622e-18)
(1 -4.0441e-05 -1.4195e-18)
(1 -9.0865e-05 -2.6542e-17)
(1.0001 -0.00013098 -9.0183e-18)
(1.0001 -0.00012974 7.3003e-18)
(1.0001 -0.00010963 2.6328e-17)
(1 3.0937e-05 1.1736e-17)
(0.9999 0.00020165 4.9761e-18)
(0.99761 0.00086732 -7.4496e-18)
(1.0089 0.0012775 1.6177e-17)
(0.92803 0.0047568 7.4751e-18)
(1.1235 0.074439 -1.0282e-17)
(0.99999 2.7996e-05 -6.7122e-18)
(1 -4.5977e-05 6.103e-18)
(1 -0.00010331 4.4628e-17)
(1.0001 -0.00014876 -1.0817e-17)
(1.0001 -0.00014761 2.7339e-17)
(1.0001 -0.00012451 -5.1982e-17)
(1 3.5089e-05 -3.9093e-17)
(0.99994 0.00022465 9.6692e-18)
(0.99704 0.00099528 -5.5949e-18)
(1.0115 0.0015893 -8.9218e-18)
(0.92108 0.0045389 -1.3812e-17)
(1.1169 0.075419 1.3453e-17)
(0.99999 3.1255e-05 4.4222e-18)
(1 -5.155e-05 2.2972e-18)
(1 -0.00011584 -3.7803e-17)
(1.0001 -0.00016661 1.5394e-17)
(1.0001 -0.00016564 -1.1922e-17)
(1.0001 -0.00013946 2.217e-17)
(1 3.9181e-05 1.3893e-17)
(1 0.0002467 2.4443e-18)
(0.99638 0.001121 5.2848e-19)
(1.0142 0.0019442 1.4136e-18)
(0.9154 0.0042298 4.3941e-18)
(1.1076 0.075502 -7.0414e-19)
(0.99999 3.4507e-05 -2.428e-18)
(1 -5.7162e-05 -7.5339e-18)
(1 -0.00012845 9.2667e-18)
(1.0001 -0.00018454 -2.7162e-18)
(1.0001 -0.00018383 1.8404e-18)
(1.0002 -0.0001545 -2.4296e-17)
(1 4.3194e-05 -3.1998e-17)
(1.0001 0.0002679 -3.1045e-17)
(0.99564 0.0012428 1.5638e-17)
(1.017 0.002341 1.8362e-18)
(0.91102 0.0038587 -1.1146e-17)
(1.0965 0.074892 -5.7987e-18)
(0.99998 3.7754e-05 3.3513e-18)
(1 -6.2813e-05 2.8457e-18)
(1 -0.00014114 4.466e-18)
(1.0001 -0.00020256 -2.1646e-18)
(1.0001 -0.00020219 -5.5166e-18)
(1.0002 -0.00016964 9.1894e-18)
(1 4.7101e-05 1.8522e-17)
(1.0002 0.00028841 1.9179e-17)
(0.99483 0.0013592 1.0048e-17)
(1.0199 0.002777 -2.3186e-17)
(0.90794 0.0034514 1.1697e-19)
(1.0841 0.073762 -6.7147e-18)
(0.99998 4.0994e-05 -3.3507e-18)
(0.99999 -6.8507e-05 5.5961e-18)
(1 -0.00015392 8.0971e-18)
(1.0001 -0.00022067 5.6523e-18)
(1.0001 -0.00022073 -5.1168e-18)
(1.0002 -0.0001849 4.5176e-18)
(1 5.0874e-05 4.2237e-18)
(1.0003 0.00030839 -1.7127e-18)
(0.99394 0.0014687 -1.624e-17)
(1.0227 0.0032489 2.1502e-17)
(0.90612 0.0030308 1.0415e-19)
(1.0712 0.072248 1.437e-18)
(0.99998 4.4229e-05 5.0954e-18)
(0.99999 -7.4246e-05 -4.3682e-18)
(1 -0.00016679 7.0891e-19)
(1.0001 -0.00023887 -4.7151e-18)
(1.0002 -0.00023945 1.1621e-17)
(1.0002 -0.00020028 5.5118e-18)
(1 5.4474e-05 1.6995e-17)
(1.0005 0.00032807 -6.3607e-18)
(0.99298 0.0015697 -1.9842e-19)
(1.0255 0.0037525 5.2811e-18)
(0.9055 0.0026165 1.6917e-17)
(1.0582 0.070465 9.1652e-19)
(0.99997 4.7459e-05 1.2289e-18)
(0.99999 -8.0031e-05 9.6947e-18)
(1 -0.00017976 1.354e-17)
(1.0001 -0.00025718 -4.701e-18)
(1.0002 -0.00025836 8.4147e-18)
(1.0002 -0.00021579 -2.5731e-18)
(1 5.7856e-05 -2.9766e-17)
(1.0006 0.00034773 2.0133e-17)
(0.99196 0.001661 -1.8312e-17)
(1.0282 0.0042834 -3.0461e-17)
(0.90599 0.002225 -3.7136e-18)
(1.0455 0.068503 8.4931e-19)
(0.99997 5.0684e-05 -3.1353e-18)
(0.99999 -8.5866e-05 -1.031e-17)
(1 -0.00019281 -3.2499e-17)
(1.0001 -0.0002756 7.9204e-18)
(1.0002 -0.00027748 -1.2769e-17)
(1.0003 -0.00023144 8.2497e-18)
(1 6.0967e-05 -2.7852e-18)
(1.0008 0.00036766 -1.212e-17)
(0.99088 0.001741 4.0213e-18)
(1.0307 0.0048367 1.819e-17)
(0.90747 0.0018694 -7.794e-18)
(1.0334 0.066436 1.1808e-17)
(0.99996 5.3906e-05 3.2989e-19)
(0.99998 -9.1752e-05 7.7111e-18)
(1 -0.00020597 2.2438e-17)
(1.0001 -0.00029413 -1.7838e-18)
(1.0002 -0.0002968 -1.2686e-17)
(1.0003 -0.00024725 -1.5373e-17)
(1 6.3746e-05 1.0638e-17)
(1.0011 0.0003882 6.9506e-18)
(0.98975 0.0018086 2.3239e-17)
(1.0331 0.005408 -2.5469e-18)
(0.90984 0.0015602 1.9368e-18)
(1.0222 0.064321 -4.7109e-18)
(0.99996 5.7123e-05 -1.8508e-18)
(0.99998 -9.7693e-05 -9.3434e-18)
(1 -0.00021922 -1.0125e-17)
(1.0001 -0.00031278 5.9609e-18)
(1.0002 -0.00031634 -7.1251e-18)
(1.0003 -0.00026321 -1.2331e-17)
(1 6.612e-05 1.0342e-17)
(1.0013 0.00040974 -4.7154e-18)
(0.98859 0.0018625 -2.8757e-17)
(1.0353 0.0059926 -1.4273e-17)
(0.91296 0.001305 8.4059e-18)
(1.0121 0.062206 -5.1105e-18)
(0.99995 6.0337e-05 -2.6503e-18)
(0.99998 -0.00010369 -3.5314e-18)
(1 -0.00023257 -7.5032e-19)
(1.0001 -0.00033156 -2.6102e-17)
(1.0002 -0.0003361 5.978e-18)
(1.0003 -0.00027934 5.3697e-18)
(0.99999 6.8009e-05 -1.9652e-17)
(1.0016 0.00043268 -1.6099e-17)
(0.98739 0.0019016 4.207e-18)
(1.0372 0.0065862 -1.0725e-18)
(0.91673 0.0011088 -9.7066e-18)
(1.003 0.060125 9.6653e-19)
(0.99995 6.3549e-05 3.4472e-18)
(0.99997 -0.00010975 1.6189e-17)
(1 -0.00024603 1.9321e-17)
(1.0001 -0.00035046 2.4583e-18)
(1.0002 -0.00035609 1.6526e-17)
(1.0003 -0.00029565 9.4096e-18)
(0.99997 6.932e-05 2.8365e-18)
(1.002 0.00045746 1.762e-17)
(0.98618 0.0019247 2.0897e-17)
(1.0389 0.0071847 1.7044e-17)
(0.92102 0.00097456 7.2449e-18)
(0.99508 0.058104 1.147e-18)
(0.99994 6.6759e-05 -1.6431e-18)
(0.99997 -0.00011587 -3.8843e-18)
(1 -0.00025959 -2.0585e-17)
(1.0001 -0.00036951 -2.3274e-18)
(1.0002 -0.00037633 -1.2525e-17)
(1.0004 -0.00031213 -5.0908e-18)
(0.99995 6.9949e-05 -1.8206e-18)
(1.0023 0.00048455 -1.5932e-17)
(0.98496 0.0019308 -1.9979e-17)
(1.0403 0.0077845 8.7357e-18)
(0.92571 0.0009033 4.9752e-19)
(0.98834 0.056164 6.5846e-19)
(0.99994 6.9968e-05 4.3553e-18)
(0.99996 -0.00012206 -5.0747e-18)
(1 -0.00027325 -1.9307e-17)
(1.0002 -0.0003887 4.4249e-17)
(1.0003 -0.00039682 1.817e-17)
(1.0004 -0.0003288 -1.2457e-17)
(0.99992 6.9784e-05 2.4476e-17)
(1.0027 0.00051444 2.1532e-17)
(0.98374 0.0019189 3.2418e-17)
(1.0414 0.0083822 -3.2018e-17)
(0.9307 0.00089438 -1.3307e-17)
(0.98273 0.054316 1.7368e-19)
(0.99993 7.3176e-05 -3.1879e-18)
(0.99996 -0.00012831 -1.0184e-18)
(1 -0.00028703 3.2962e-17)
(1.0002 -0.00040803 -3.3449e-17)
(1.0003 -0.00041757 -1.749e-18)
(1.0004 -0.00034565 4.1275e-17)
(0.99989 6.8698e-05 7.5854e-18)
(1.0031 0.00054763 -3.3261e-18)
(0.98254 0.0018884 -2.0104e-17)
(1.0423 0.0089747 3.7731e-17)
(0.93589 0.00094586 -5.6373e-18)
(0.97822 0.052571 -2.7602e-19)
(0.99993 7.6384e-05 -1.6252e-18)
(0.99995 -0.00013464 -2.0292e-18)
(1 -0.00030092 1.7166e-18)
(1.0002 -0.00042753 3.4799e-17)
(1.0003 -0.00043859 -9.8617e-18)
(1.0004 -0.00036269 -3.0507e-17)
(0.99985 6.6555e-05 -1.934e-17)
(1.0036 0.00058463 -3.5813e-18)
(0.98137 0.0018383 6.3568e-18)
(1.0428 0.0095593 -3.183e-17)
(0.94119 0.0010547 9.4419e-18)
(0.97472 0.050933 2.9915e-18)
(0.99992 7.9593e-05 2.6857e-18)
(0.99995 -0.00014104 1.4123e-17)
(1 -0.00031492 -1.2659e-17)
(1.0002 -0.00044719 -3.6436e-18)
(1.0003 -0.00045989 -1.8927e-17)
(1.0005 -0.00037991 3.3189e-17)
(0.9998 6.3208e-05 -1.6978e-17)
(1.004 0.00062595 1.4845e-17)
(0.98024 0.0017681 -1.9592e-18)
(1.0431 0.010133 2.9842e-17)
(0.94652 0.0012171 -9.2144e-18)
(0.97216 0.049403 -4.9917e-18)
(0.99991 8.2803e-05 -5.1511e-19)
(0.99994 -0.00014753 -8.1227e-18)
(1 -0.00032904 -1.7726e-17)
(1.0002 -0.00046702 -9.984e-18)
(1.0003 -0.00048148 1.8358e-17)
(1.0005 -0.00039732 -4.2321e-17)
(0.99974 5.8499e-05 -2.6199e-18)
(1.0045 0.00067209 -2.0057e-17)
(0.97916 0.0016775 3.164e-18)
(1.0432 0.010695 -8.6073e-18)
(0.9518 0.0014287 9.8079e-18)
(0.97044 0.04798 2.1174e-18)
(0.9999 8.6016e-05 2.6985e-18)
(0.99994 -0.00015409 -8.7008e-18)
(1 -0.00034329 -1.7515e-18)
(1.0002 -0.00048702 2.4259e-18)
(1.0003 -0.00050337 5.8103e-18)
(1.0005 -0.0004149 1.2229e-17)
(0.99968 5.2261e-05 4.2952e-17)
(1.005 0.00072357 2.3967e-18)
(0.97814 0.001566 5.1553e-18)
(1.043 0.011242 9.4868e-18)
(0.95698 0.0016846 -8.3886e-18)
(0.96947 0.046663 1.626e-18)
(0.9999 8.9231e-05 -1.5473e-18)
(0.99993 -0.00016073 8.6928e-18)
(1 -0.00035765 2.5198e-17)
(1.0002 -0.00050721 -2.4443e-17)
(1.0003 -0.00052557 -9.0381e-18)
(1.0006 -0.00043266 -2.1516e-18)
(0.99962 4.4317e-05 -1.4157e-17)
(1.0055 0.00078084 1.8593e-18)
(0.9772 0.0014337 -8.9331e-18)
(1.0425 0.011773 -3.4866e-18)
(0.96201 0.0019797 -2.3737e-19)
(0.96915 0.045447 -1.9869e-18)
(0.99989 9.245e-05 -1.6631e-18)
(0.99992 -0.00016746 5.2032e-18)
(1 -0.00037214 -6.0933e-19)
(1.0002 -0.00052759 8.1052e-18)
(1.0003 -0.00054809 -1.6677e-17)
(1.0006 -0.00045059 2.4346e-17)
(0.99954 3.4484e-05 7.0618e-18)
(1.0061 0.00084435 -1.7738e-17)
(0.97633 0.0012805 -1.1453e-17)
(1.0418 0.012285 -1.3805e-17)
(0.96683 0.0023088 1.3295e-18)
(0.96938 0.044326 -3.6403e-18)
(0.99988 9.5673e-05 5.7794e-19)
(0.99992 -0.00017429 -1.2426e-17)
(1 -0.00038676 1.5604e-17)
(1.0002 -0.00054816 2.2418e-17)
(1.0004 -0.00057095 3.2688e-17)
(1.0007 -0.00046867 -1.788e-17)
(0.99946 2.2572e-05 -1.7557e-17)
(1.0066 0.00091451 3.5999e-18)
(0.97554 0.0011068 1.0731e-17)
(1.0409 0.012778 1.0806e-17)
(0.97142 0.0026667 6.1892e-18)
(0.97007 0.043296 3.6181e-18)
(0.99987 9.8902e-05 1.1076e-18)
(0.99991 -0.0001812 9.8814e-18)
(1 -0.00040151 -3.585e-17)
(1.0002 -0.00056894 -3.2481e-18)
(1.0004 -0.00059415 -2.7155e-17)
(1.0007 -0.00048689 -1.1262e-17)
(0.99937 8.387e-06 2.4665e-20)
(1.0072 0.00099168 -4.1166e-18)
(0.97486 0.00091309 -2.1141e-17)
(1.0398 0.01325 -1.7254e-17)
(0.97575 0.0030484 -8.4526e-18)
(0.97113 0.042349 -1.7829e-18)
(0.99986 0.00010214 -7.1787e-19)
(0.9999 -0.00018822 -6.4264e-18)
(1 -0.0004164 2.8208e-17)
(1.0002 -0.00058993 -3.0993e-17)
(1.0004 -0.00061771 -2.0428e-18)
(1.0007 -0.00050525 2.3983e-17)
(0.99927 -8.269e-06 7.0249e-19)
(1.0077 0.0010762 3.9265e-18)
(0.97427 0.00070013 1.8507e-17)
(1.0385 0.0137 2.2429e-17)
(0.97979 0.0034487 4.8359e-18)
(0.97249 0.04148 -9.9563e-19)
(0.99985 0.00010538 -1.8689e-18)
(0.99989 -0.00019533 -2.37e-18)
(1 -0.00043143 -1.2505e-17)
(1.0002 -0.00061114 1.544e-17)
(1.0004 -0.00064164 2.9845e-17)
(1.0008 -0.00052373 -1.0599e-17)
(0.99917 -2.7594e-05 2.1868e-17)
(1.0083 0.0011682 2.943e-18)
(0.97378 0.00046884 -2.0962e-18)
(1.0371 0.014127 1.0147e-17)
(0.98354 0.003863 -5.4033e-18)
(0.97408 0.040681 -6.9364e-19)
(0.99984 0.00010863 4.6739e-19)
(0.99989 -0.00020255 -6.2675e-18)
(1 -0.00044659 4.6813e-18)
(1.0002 -0.00063258 -1.5735e-17)
(1.0004 -0.00066595 -3.1569e-17)
(1.0008 -0.0005423 6.6792e-18)
(0.99906 -4.9785e-05 -3.1547e-17)
(1.0089 0.001268 -6.727e-18)
(0.9734 0.00022039 6.7998e-18)
(1.0356 0.014529 -3.1848e-17)
(0.98699 0.0042866 3.7e-18)
(0.97583 0.039947 1.9589e-18)
(0.99983 0.00011189 8.2081e-19)
(0.99988 -0.00020988 1.698e-17)
(1 -0.0004619 7.8385e-18)
(1.0002 -0.00065425 6.4097e-18)
(1.0004 -0.00069066 2.5243e-17)
(1.0009 -0.00056096 1.9914e-18)
(0.99894 -7.5034e-05 2.1784e-17)
(1.0094 0.0013756 4.8257e-18)
(0.97313 -4.3856e-05 -2.0665e-17)
(1.0339 0.014906 1.0965e-17)
(0.99013 0.0047153 2.502e-18)
(0.97768 0.03927 2.031e-18)
(0.99982 0.00011515 -2.8661e-18)
(0.99987 -0.00021732 -5.5894e-18)
(1 -0.00047736 -6.8865e-18)
(1.0002 -0.00067617 1.0526e-17)
(1.0004 -0.00071577 1.2196e-17)
(1.0009 -0.00057968 -3.9659e-18)
(0.99882 -0.00010353 -1.8299e-17)
(1.01 0.0014911 2.1968e-17)
(0.97297 -0.00032234 3.8275e-18)
(1.0322 0.015257 -3.3128e-18)
(0.99297 0.005145 1.0347e-17)
(0.97959 0.038646 -1.4115e-18)
(0.99981 0.00011843 5.8894e-18)
(0.99986 -0.00022487 6.6937e-18)
(1 -0.00049297 -7.3206e-18)
(1.0002 -0.00069833 -6.5571e-18)
(1.0004 -0.00074131 -1.75e-17)
(1.001 -0.00059844 -6.8113e-18)
(0.99869 -0.00013545 9.0222e-18)
(1.0105 0.0016144 -3.5234e-17)
(0.97292 -0.00061333 9.3676e-18)
(1.0304 0.015581 -3.9163e-18)
(0.99551 0.0055721 -1.0956e-17)
(0.98151 0.038066 4.0996e-18)
(0.9998 0.00012172 -2.5993e-18)
(0.99985 -0.00023254 -1.1761e-17)
(1 -0.00050873 -7.0952e-18)
(1.0002 -0.00072076 -1.2443e-17)
(1.0004 -0.00076728 -5.3435e-18)
(1.001 -0.00061723 2.0027e-17)
(0.99856 -0.00017096 -8.8632e-18)
(1.0111 0.0017454 3.9195e-17)
(0.97297 -0.00091495 8.8321e-18)
(1.0285 0.015878 1.1884e-17)
(0.99778 0.0059932 4.618e-18)
(0.98341 0.037528 -6.6483e-18)
(0.99979 0.00012503 -1.3788e-18)
(0.99984 -0.00024034 8.7463e-18)
(1 -0.00052465 1.4058e-17)
(1.0002 -0.00074345 3.3549e-17)
(1.0005 -0.00079369 7.083e-18)
(1.0011 -0.00063603 -1.3737e-17)
(0.99842 -0.00021021 4.2771e-18)
(1.0116 0.0018838 -4.2165e-17)
(0.97312 -0.0012252 -1.0712e-17)
(1.0266 0.016146 -6.6079e-18)
(0.99977 0.0064051 4.5299e-18)
(0.98527 0.037024 6.6854e-18)
(0.99978 0.00012835 1.0552e-18)
(0.99983 -0.00024826 2.0705e-18)
(0.99999 -0.00054072 -1.3806e-17)
(1.0002 -0.00076642 -5.5882e-18)
(1.0005 -0.00082057 8.9939e-18)
(1.0012 -0.00065481 1.6441e-17)
(0.99828 -0.00025334 1.4874e-17)
(1.0121 0.0020294 4.1744e-18)
(0.97338 -0.0015419 1.1984e-17)
(1.0248 0.016387 -3.0622e-18)
(1.0015 0.0068051 -8.0861e-18)
(0.98706 0.03655 -1.724e-18)
(0.99976 0.00013168 -4.3211e-20)
(0.99982 -0.00025632 2.3598e-18)
(0.99999 -0.00055697 3.0856e-18)
(1.0002 -0.00078968 -7.2546e-18)
(1.0005 -0.00084792 8.395e-20)
(1.0012 -0.00067356 -1.4907e-17)
(0.99814 -0.00030047 -1.0061e-17)
(1.0125 0.0021817 3.0875e-17)
(0.97372 -0.001863 -1.8109e-17)
(1.0229 0.016598 1.1891e-17)
(1.003 0.0071906 4.2704e-18)
(0.98877 0.036101 -4.8698e-18)
(0.99975 0.00013503 -3.2684e-18)
(0.99981 -0.00026451 -1.1067e-17)
(0.99998 -0.00057338 7.8781e-18)
(1.0002 -0.00081323 -1.9813e-17)
(1.0005 -0.00087577 -2.2746e-17)
(1.0013 -0.00069226 -2.0593e-17)
(0.99799 -0.00035169 -2.0505e-17)
(1.013 0.0023403 -3.162e-18)
(0.97416 -0.0021862 1.5826e-17)
(1.0211 0.016781 -1.0201e-17)
(1.0043 0.0075596 4.2435e-19)
(0.99039 0.035675 4.587e-18)
(0.99974 0.0001384 6.3085e-18)
(0.9998 -0.00027284 1.1566e-17)
(0.99998 -0.00058996 -1.2705e-17)
(1.0002 -0.00083709 1.6267e-17)
(1.0005 -0.00090412 -2.6678e-18)
(1.0014 -0.0007109 1.3498e-17)
(0.99784 -0.00040707 2.4647e-17)
(1.0134 0.0025045 -2.3948e-17)
(0.97468 -0.0025094 -8.0243e-18)
(1.0193 0.016936 1.0772e-17)
(1.0054 0.00791 3.6897e-18)
(0.99191 0.035266 -2.1701e-18)
(0.99972 0.00014179 -4.7336e-18)
(0.99978 -0.00028131 -3.4183e-18)
(0.99997 -0.00060671 -2.6568e-18)
(1.0002 -0.00086126 1.8613e-17)
(1.0005 -0.00093298 -5.711e-18)
(1.0014 -0.00072946 -1.7104e-19)
(0.99769 -0.00046666 -4.8229e-18)
(1.0138 0.0026739 1.9182e-17)
(0.97527 -0.0028302 -7.6182e-18)
(1.0176 0.017062 -7.3972e-18)
(1.0063 0.0082405 -1.0907e-17)
(0.99333 0.034871 2.5225e-18)
(0.99971 0.0001452 3.2178e-18)
(0.99977 -0.00028994 -4.3343e-18)
(0.99996 -0.00062365 6.0816e-18)
(1.0002 -0.00088575 -2.8241e-17)
(1.0005 -0.00096238 3.8689e-17)
(1.0015 -0.00074793 5.5922e-18)
(0.99754 -0.00053049 1.903e-17)
(1.0142 0.0028477 -1.1869e-17)
(0.97592 -0.0031468 1.0129e-19)
(1.016 0.017161 5.5015e-18)
(1.007 0.0085495 -2.121e-18)
(0.99464 0.034488 -9.4908e-19)
(0.9997 0.00014862 -9.2051e-19)
(0.99976 -0.00029871 8.4726e-19)
(0.99996 -0.00064077 1.4819e-17)
(1.0002 -0.00091058 7.6991e-18)
(1.0005 -0.00099232 -1.9342e-17)
(1.0016 -0.00076632 -1.0953e-17)
(0.99739 -0.00059854 3.3231e-18)
(1.0145 0.003025 -5.7698e-18)
(0.97664 -0.003457 1.2746e-17)
(1.0144 0.017233 -3.6114e-18)
(1.0077 0.0088362 1.021e-17)
(0.99586 0.034113 -3.4642e-18)
(0.99968 0.00015207 -1.6023e-18)
(0.99975 -0.00030764 -8.1672e-18)
(0.99995 -0.00065807 -4.4059e-18)
(1.0002 -0.00093575 3.0918e-17)
(1.0005 -0.0010228 -1.7233e-17)
(1.0017 -0.00078462 -9.2774e-19)
(0.99725 -0.00067079 -4.9692e-17)
(1.0148 0.0032052 5.6721e-18)
(0.97741 -0.0037589 -2.3833e-17)
(1.013 0.017278 -7.7995e-18)
(1.0081 0.0090997 -1.0209e-17)
(0.99697 0.033745 2.0571e-18)
(0.99967 0.00015554 -6.9177e-19)
(0.99973 -0.00031673 5.0599e-18)
(0.99994 -0.00067557 -1.8187e-18)
(1.0002 -0.00096128 -1.8002e-17)
(1.0005 -0.0010539 2.4765e-17)
(1.0018 -0.00080283 -2.2805e-18)
(0.9971 -0.00074716 2.6322e-17)
(1.0151 0.0033875 -3.4863e-18)
(0.97822 -0.0040508 1.1572e-17)
(1.0116 0.017298 9.7552e-18)
(1.0085 0.0093396 8.4212e-18)
(0.998 0.033381 -4.975e-19)
(0.99965 0.00015903 3.9213e-18)
(0.99972 -0.00032598 -3.0276e-18)
(0.99993 -0.00069326 -6.3632e-18)
(1.0002 -0.00098718 1.9648e-17)
(1.0005 -0.0010855 1.8176e-18)
(1.0018 -0.00082096 2.8274e-17)
(0.99695 -0.00082756 4.5408e-18)
(1.0153 0.0035708 1.6658e-17)
(0.97907 -0.0043311 4.3414e-18)
(1.0103 0.017294 -3.1563e-18)
(1.0088 0.0095556 1.0955e-18)
(0.99894 0.03302 4.5031e-19)
(0.99963 0.00016255 1.1182e-18)
(0.9997 -0.0003354 1.2378e-18)
(0.99992 -0.00071115 -5.7703e-18)
(1.0002 -0.0010135 -3.9129e-17)
(1.0005 -0.0011178 5.5045e-18)
(1.0019 -0.00083904 2.4521e-18)
(0.99681 -0.00091188 -1.9689e-17)
(1.0156 0.0037544 2.3427e-19)
(0.97995 -0.0045983 1.2791e-17)
(1.0091 0.017266 -2.0293e-18)
(1.009 0.0097475 -5.333e-18)
(0.9998 0.03266 2.6546e-18)
(0.99962 0.00016608 -4.7882e-18)
(0.99969 -0.000345 5.2467e-18)
(0.99991 -0.00072924 9.5103e-19)
(1.0002 -0.0010401 2.1729e-17)
(1.0005 -0.0011507 -2.5109e-17)
(1.002 -0.00085707 -1.0831e-17)
(0.99667 -0.00099997 2.0138e-17)
(1.0158 0.0039372 -1.1282e-17)
(0.98084 -0.0048514 -2.0219e-17)
(1.0081 0.017216 -1.0028e-17)
(1.0092 0.0099156 6.7919e-18)
(1.0006 0.032301 8.8495e-19)
(0.9996 0.00016964 -5.0672e-19)
(0.99967 -0.00035477 -5.2798e-18)
(0.9999 -0.00074755 1.0131e-17)
(1.0002 -0.0010672 9.6347e-18)
(1.0005 -0.0011841 3.1014e-17)
(1.0021 -0.0008751 4.1608e-18)
(0.99654 -0.0010917 1.7888e-17)
(1.0159 0.0041186 2.8603e-17)
(0.98176 -0.0050892 -8.9256e-19)
(1.0071 0.017146 1.7639e-17)
(1.0093 0.01006 -7.1876e-19)
(1.0013 0.03194 -2.5829e-18)
(0.99958 0.00017323 4.9111e-18)
(0.99966 -0.00036472 -7.6871e-18)
(0.99989 -0.00076606 -1.5378e-17)
(1.0002 -0.0010947 -2.5605e-18)
(1.0005 -0.0012182 -3.3662e-17)
(1.0022 -0.00089316 -1.238e-17)
(0.99641 -0.0011868 -6.2086e-18)
(1.0161 0.0042975 2.1374e-19)
(0.98268 -0.0053111 2.6311e-17)
(1.0062 0.017056 4.0647e-18)
(1.0094 0.010182 -9.3197e-18)
(1.002 0.031577 1.5491e-18)
(0.99956 0.00017684 -5.506e-18)
(0.99964 -0.00037486 9.6024e-18)
(0.99988 -0.00078479 8.0495e-18)
(1.0002 -0.0011226 -5.1027e-18)
(1.0005 -0.0012529 2.7071e-17)
(1.0023 -0.00091128 1.4811e-17)
(0.99628 -0.0012851 -4.908e-18)
(1.0162 0.0044731 -2.8824e-17)
(0.9836 -0.0055163 -8.948e-19)
(1.0054 0.016948 -1.1615e-17)
(1.0095 0.010281 1.1033e-17)
(1.0026 0.031213 -2.0291e-18)
(0.99954 0.00018047 3.3086e-18)
(0.99962 -0.00038519 -1.8376e-18)
(0.99987 -0.00080375 1.0659e-17)
(1.0002 -0.0011509 -2.1469e-17)
(1.0005 -0.0012883 8.8403e-18)
(1.0024 -0.00092952 -5.3206e-18)
(0.99616 -0.0013863 -1.0576e-17)
(1.0163 0.0046445 -2.3138e-18)
(0.98452 -0.0057045 -3.1749e-17)
(1.0047 0.016824 7.6634e-18)
(1.0095 0.010358 -1.0101e-17)
(1.0032 0.030846 6.7684e-19)
(0.99953 0.00018413 2.6162e-19)
(0.99961 -0.00039571 -5.7808e-18)
(0.99986 -0.00082293 6.0533e-18)
(1.0002 -0.0011797 2.8258e-17)
(1.0005 -0.0013243 -2.1055e-17)
(1.0025 -0.00094794 1.7115e-17)
(0.99604 -0.0014903 -6.1152e-18)
(1.0163 0.004811 5.3577e-18)
(0.98544 -0.0058756 3.7719e-17)
(1.0041 0.016684 -1.4226e-17)
(1.0096 0.010414 1.5439e-17)
(1.0037 0.030476 1.9149e-18)
(0.99951 0.00018781 4.6957e-19)
(0.99959 -0.00040644 -1.1966e-18)
(0.99985 -0.00084233 -8.7082e-18)
(1.0002 -0.001209 -4.2538e-18)
(1.0005 -0.0013609 1.8351e-17)
(1.0026 -0.00096659 1.3627e-19)
(0.99593 -0.0015968 -1.202e-17)
(1.0164 0.0049719 -1.2791e-17)
(0.98634 -0.0060295 -1.5789e-17)
(1.0036 0.016531 -1.343e-18)
(1.0096 0.010451 2.826e-18)
(1.0042 0.030103 2.0046e-19)
(0.99949 0.00019152 -7.5557e-19)
(0.99957 -0.00041737 1.4237e-17)
(0.99984 -0.00086198 -5.8085e-18)
(1.0002 -0.0012388 -2.4041e-17)
(1.0005 -0.0013982 8.4611e-18)
(1.0027 -0.00098556 -4.3607e-17)
(0.99582 -0.0017055 5.996e-18)
(1.0164 0.0051265 8.0538e-18)
(0.98722 -0.0061664 7.3341e-19)
(1.0032 0.016366 1.4449e-17)
(1.0097 0.010468 -9.4486e-19)
(1.0047 0.029727 -5.3504e-18)
(0.99946 0.00019525 -1.9947e-19)
(0.99955 -0.00042851 -2.7934e-19)
(0.99982 -0.00088185 7.8195e-18)
(1.0002 -0.0012691 1.4843e-17)
(1.0005 -0.0014361 -3.3617e-17)
(1.0028 -0.0010049 1.8836e-18)
(0.99572 -0.0018162 1.074e-17)
(1.0164 0.0052741 1.2614e-17)
(0.98809 -0.0062866 -9.9841e-18)
(1.0028 0.016189 -1.4068e-17)
(1.0097 0.010468 -1.5312e-17)
(1.0052 0.029348 5.6499e-18)
(0.99944 0.00019901 -1.3054e-18)
(0.99953 -0.00043986 3.9797e-19)
(0.99981 -0.00090198 -3.7702e-18)
(1.0002 -0.0012999 -9.9103e-18)
(1.0005 -0.0014747 1.8636e-17)
(1.0029 -0.0010247 2.3407e-17)
(0.99562 -0.0019285 3.1324e-18)
(1.0164 0.0054142 6.3924e-18)
(0.98894 -0.0063908 1.5924e-17)
(1.0025 0.016002 2.3676e-18)
(1.0098 0.010451 1.132e-17)
(1.0056 0.028967 -3.4294e-18)
(0.99942 0.0002028 2.4028e-18)
(0.99951 -0.00045144 7.337e-19)
(0.9998 -0.00092234 -5.3884e-18)
(1.0002 -0.0013312 1.4641e-18)
(1.0005 -0.0015139 -1.0104e-17)
(1.003 -0.001045 -5.6146e-18)
(0.99553 -0.0020424 -1.1577e-18)
(1.0164 0.0055463 -2.8865e-17)
(0.98976 -0.0064794 3.1253e-18)
(1.0023 0.015807 -4.8002e-18)
(1.0099 0.010418 -4.604e-18)
(1.006 0.028583 -4.1333e-18)
(0.9994 0.00020661 -4.9037e-18)
(0.99949 -0.00046325 9.5859e-19)
(0.99978 -0.00094296 2.8582e-18)
(1.0002 -0.0013631 -1.8398e-17)
(1.0005 -0.0015538 -1.152e-17)
(1.0031 -0.001066 -2.6066e-17)
(0.99544 -0.0021574 5.5874e-18)
(1.0164 0.0056701 1.1787e-17)
(0.99056 -0.0065532 -3.3517e-17)
(1.0022 0.015605 2.2134e-17)
(1.0099 0.01037 -4.9782e-18)
(1.0064 0.028197 2.6657e-18)
(0.99937 0.00021046 4.5015e-18)
(0.99947 -0.00047528 2.1451e-18)
(0.99977 -0.00096383 1.0992e-18)
(1.0002 -0.0013956 5.8346e-18)
(1.0005 -0.0015943 -2.5449e-18)
(1.0032 -0.0010877 5.0522e-17)
(0.99536 -0.0022734 2.0061e-17)
(1.0164 0.0057851 -1.8334e-17)
(0.99134 -0.0066131 3.2258e-17)
(1.002 0.015395 -8.2583e-18)
(1.01 0.010308 -3.2826e-18)
(1.0068 0.027809 -1.3296e-18)
(0.99935 0.00021433 1.1042e-18)
(0.99945 -0.00048756 -1.3583e-17)
(0.99975 -0.00098495 2.2001e-18)
(1.0002 -0.0014287 2.6205e-17)
(1.0005 -0.0016354 1.9692e-17)
(1.0033 -0.0011102 -8.1535e-19)
(0.99528 -0.0023901 -2.7792e-17)
(1.0163 0.0058911 5.5507e-18)
(0.99209 -0.00666 -7.2746e-18)
(1.002 0.015181 -1.1429e-17)
(1.0102 0.010234 8.3514e-18)
(1.0072 0.027419 1.2397e-18)
(0.99933 0.00021823 -4.3674e-18)
(0.99943 -0.00050009 -4.5286e-18)
(0.99974 -0.0010063 -1.1918e-17)
(1.0002 -0.0014624 -2.1977e-17)
(1.0005 -0.0016771 -1.9816e-17)
(1.0035 -0.0011336 -2.2959e-17)
(0.99521 -0.0025074 5.1323e-18)
(1.0163 0.005988 4.3159e-17)
(0.99282 -0.0066948 3.1704e-18)
(1.002 0.014961 -9.9804e-19)
(1.0103 0.010149 -2.9484e-18)
(1.0076 0.027028 -3.3307e-18)
(0.9993 0.00022217 3.2409e-18)
(0.9994 -0.00051286 4.2065e-18)
(0.99972 -0.001028 1.8366e-17)
(1.0002 -0.0014968 1.5222e-17)
(1.0005 -0.0017195 1.9279e-17)
(1.0036 -0.001158 -8.5333e-19)
(0.99514 -0.0026251 -2.8596e-17)
(1.0162 0.0060755 -2.3329e-17)
(0.99352 -0.0067185 7.8677e-18)
(1.002 0.014737 3.9562e-18)
(1.0104 0.010052 6.6473e-18)
(1.008 0.026637 2.5741e-18)
(0.99928 0.00022614 -2.2888e-18)
(0.99938 -0.0005259 6.5992e-18)
(0.9997 -0.0010499 -1.2152e-17)
(1.0002 -0.0015318 2.2033e-18)
(1.0004 -0.0017625 8.9642e-18)
(1.0037 -0.0011835 -2.2445e-18)
(0.99508 -0.0027429 6.4202e-18)
(1.0161 0.0061535 6.4784e-18)
(0.99419 -0.0067322 2.5892e-18)
(1.002 0.01451 9.7794e-18)
(1.0106 0.009946 -7.9944e-18)
(1.0084 0.026244 5.2006e-19)
(0.99925 0.00023014 3.4559e-18)
(0.99936 -0.0005392 4.0901e-19)
(0.99969 -0.0010721 -5.6887e-18)
(1.0002 -0.0015675 8.7708e-19)
(1.0004 -0.001806 -1.4725e-18)
(1.0038 -0.0012102 -2.2173e-17)
(0.99503 -0.0028609 1.7927e-17)
(1.0161 0.0062222 2.2994e-17)
(0.99484 -0.0067368 -1.2891e-17)
(1.0021 0.01428 -1.3607e-17)
(1.0108 0.0098309 -2.3367e-18)
(1.0087 0.025852 4.4271e-18)
(0.99922 0.00023417 -2.5105e-18)
(0.99933 -0.00055278 -3.1501e-19)
(0.99967 -0.0010946 7.0728e-18)
(1.0002 -0.0016039 -1.6845e-17)
(1.0004 -0.0018502 -1.3317e-17)
(1.0039 -0.0012381 2.7993e-17)
(0.99497 -0.0029789 -2.7416e-18)
(1.016 0.0062814 -2.4346e-17)
(0.99546 -0.0067335 3.2842e-18)
(1.0022 0.014048 1.2812e-17)
(1.011 0.0097076 7.9207e-18)
(1.0091 0.025459 -1.5963e-18)
(0.99919 0.00023824 2.4948e-19)
(0.99931 -0.00056663 2.3074e-18)
(0.99965 -0.0011173 3.8647e-18)
(1.0002 -0.001641 8.7082e-18)
(1.0004 -0.0018949 2.6103e-17)
(1.004 -0.0012674 6.527e-18)
(0.99493 -0.0030967 -2.3873e-17)
(1.0159 0.0063313 2.2818e-18)
(0.99607 -0.0067232 8.4594e-18)
(1.0024 0.013814 -1.1543e-17)
(1.0112 0.0095769 -5.3553e-18)
(1.0094 0.025067 -1.8468e-18)
(0.99917 0.00024234 7.0839e-19)
(0.99928 -0.00058078 -4.0131e-19)
(0.99963 -0.0011404 -1.0198e-17)
(1.0002 -0.0016789 -1.8729e-19)
(1.0004 -0.0019402 -5.161e-17)
(1.0042 -0.001298 8.0479e-18)
(0.99489 -0.0032144 2.345e-17)
(1.0158 0.0063719 -6.5556e-18)
(0.99665 -0.006707 -8.8588e-18)
(1.0025 0.013579 1.9168e-17)
(1.0114 0.0094395 6.4077e-18)
(1.0098 0.024675 4.7865e-18)
(0.99914 0.00024648 7.6099e-19)
(0.99925 -0.00059521 -8.3287e-19)
(0.99961 -0.0011637 1.8443e-17)
(1.0002 -0.0017176 4.0168e-18)
(1.0004 -0.001986 4.5736e-17)
(1.0043 -0.0013302 -2.8363e-17)
(0.99485 -0.0033318 -7.8532e-18)
(1.0157 0.0064034 6.1705e-18)
(0.99721 -0.0066857 3.0522e-18)
(1.0027 0.013342 -1.0785e-17)
(1.0116 0.0092961 -1.0373e-18)
(1.0101 0.024284 -3.5296e-18)
(0.99911 0.00025066 -2.9739e-18)
(0.99923 -0.00060995 1.3985e-18)
(0.99959 -0.0011873 -1.0841e-17)
(1.0002 -0.001757 5.2821e-18)
(1.0003 -0.0020325 -1.7379e-17)
(1.0044 -0.0013638 3.8464e-18)
(0.99482 -0.0034491 3.1444e-17)
(1.0156 0.006426 -2.3096e-17)
(0.99775 -0.0066604 -1.1219e-17)
(1.0029 0.013105 -1.0668e-17)
(1.0118 0.0091471 -5.0952e-18)
(1.0105 0.023894 -9.6928e-19)
(0.99908 0.00025488 3.7046e-18)
(0.9992 -0.000625 -3.3214e-18)
(0.99957 -0.0012112 -1.0521e-17)
(1.0002 -0.0017974 -8.4227e-18)
(1.0003 -0.0020795 -2.8415e-17)
(1.0045 -0.001399 -1.7841e-17)
(0.99479 -0.0035661 -1.928e-17)
(1.0155 0.0064397 2.1476e-17)
(0.99827 -0.0066319 1.0876e-17)
(1.0031 0.012866 1.6155e-17)
(1.012 0.0089932 -1.9945e-18)
(1.0108 0.023505 4.6788e-18)
(0.99905 0.00025913 -5.9541e-18)
(0.99917 -0.00064037 5.3817e-18)
(0.99954 -0.0012355 2.5761e-17)
(1.0002 -0.0018385 -1.9867e-18)
(1.0003 -0.002127 3.1439e-17)
(1.0047 -0.0014358 1.3447e-18)
(0.99477 -0.003683 -1.8466e-17)
(1.0154 0.0064449 8.4059e-18)
(0.99877 -0.006601 -3.9223e-18)
(1.0033 0.012628 -3.3829e-18)
(1.0122 0.0088349 6.4709e-18)
(1.0112 0.023117 -3.164e-18)
(0.99901 0.00026343 4.8794e-18)
(0.99914 -0.00065606 -7.3141e-18)
(0.99952 -0.00126 -3.0036e-17)
(1.0002 -0.0018806 1.2997e-17)
(1.0002 -0.0021751 -2.24e-17)
(1.0048 -0.0014743 2.4663e-17)
(0.99475 -0.0037997 6.019e-18)
(1.0153 0.0064415 -8.0018e-18)
(0.99926 -0.0065685 -1.8825e-18)
(1.0035 0.012389 -8.4718e-18)
(1.0125 0.0086724 -1.055e-17)
(1.0115 0.022731 4.3736e-18)
(0.99898 0.00026777 -3.5942e-18)
(0.99911 -0.00067209 2.4321e-18)
(0.9995 -0.0012848 1.8251e-17)
(1.0002 -0.0019236 -1.7134e-17)
(1.0002 -0.0022238 3.6042e-17)
(1.0049 -0.0015144 -1.9143e-17)
(0.99474 -0.0039164 3.5088e-18)
(1.0152 0.00643 -1.2648e-17)
(0.99973 -0.0065351 6.1446e-18)
(1.0038 0.01215 -1.1851e-18)
(1.0127 0.0085063 4.5156e-18)
(1.0118 0.022346 -1.9447e-18)
(0.99895 0.00027214 4.4084e-18)
(0.99908 -0.00068845 1.8936e-18)
(0.99947 -0.00131 -1.2168e-17)
(1.0002 -0.0019675 -3.4861e-19)
(1.0002 -0.002273 -1.5907e-18)
(1.005 -0.0015562 4.6295e-18)
(0.99473 -0.004033 3.332e-17)
(1.0151 0.0064103 8.6518e-18)
(1.0002 -0.0065015 -1.8213e-17)
(1.004 0.011911 -6.1436e-18)
(1.0129 0.0083368 -4.2472e-18)
(1.0121 0.021963 2.0439e-18)
(0.99891 0.00027656 -5.053e-18)
(0.99905 -0.00070517 -7.0173e-18)
(0.99945 -0.0013355 5.105e-18)
(1.0002 -0.0020124 1.4826e-17)
(1.0001 -0.0023229 -3.2696e-17)
(1.0052 -0.0015997 1.5556e-17)
(0.99473 -0.0041498 -3.2082e-17)