/*--------------------------------*- C++ -*----------------------------------*\
  =========                 |
  \\      /  F ield         | OpenFOAM: The Open Source CFD Toolbox
   \\    /   O peration     | Website:  https://openfoam.org
    \\  /    A nd           | Version:  6.0
     \\/     M anipulation  |
\*---------------------------------------------------------------------------*/
FoamFile
{
    version     2.0;
    format      ascii;
    class       surfaceScalarField;
    location    "3.59";
    object      phi;
}
// * * * * * * * * * * * * * * * * * * * * * * * * * * * * * * * * * * * * * //

dimensions      [0 3 -1 0 0 0 0];

internalField   nonuniform List<scalar> 
26699
(
2.0051e-05
0.005201
6.0064e-10
4.0126e-05
0.0051116
5.9639e-05
0.0049351
7.8187e-05
0.0046741
9.5416e-05
0.0043332
0.00011102
0.0039182
0.00012471
0.0034362
0.00013626
0.0028953
0.00014546
0.002305
0.00015181
0.0016755
0.00015717
0.0010154
0.00046503
3.435e-05
2.0051e-05
0.0051809
1.8044e-09
4.0127e-05
0.0050916
5.964e-05
0.0049155
7.819e-05
0.0046556
9.5417e-05
0.004316
0.00011102
0.0039026
0.00012471
0.0034225
0.00013625
0.0028838
0.00014545
0.0022958
0.00015106
0.0016699
0.0001589
0.0010076
0.00055905
6.488e-05
2.0051e-05
0.0051609
3.0913e-09
4.0128e-05
0.0050715
5.9643e-05
0.004896
7.8193e-05
0.004637
9.542e-05
0.0042988
0.00011103
0.003887
0.00012471
0.0034088
0.00013623
0.0028723
0.00014546
0.0022865
0.00015029
0.0016651
0.00016016
0.00099768
0.00062922
8.9992e-05
2.0051e-05
0.0051408
4.3972e-09
4.013e-05
0.0050514
5.9645e-05
0.0048765
7.8196e-05
0.0046185
9.5424e-05
0.0042815
0.00011103
0.0038714
0.0001247
0.0033951
0.0001362
0.0028608
0.00014551
0.0022772
0.00014955
0.001661
0.00016089
0.00098634
0.00067993
0.00011018
2.0051e-05
0.0051208
5.7058e-09
4.0131e-05
0.0050313
5.9647e-05
0.004857
7.8199e-05
0.0045999
9.5427e-05
0.0042643
0.00011103
0.0038558
0.0001247
0.0033815
0.00013618
0.0028493
0.00014558
0.0022678
0.00014885
0.0016578
0.0001611
0.00097409
0.00071482
0.00012621
2.0051e-05
0.0051007
7.0171e-09
4.0132e-05
0.0050112
5.965e-05
0.0048375
7.8202e-05
0.0045814
9.543e-05
0.0042471
0.00011103
0.0038402
0.0001247
0.0033678
0.00013615
0.0028378
0.00014567
0.0022583
0.00014823
0.0016552
0.00016085
0.00096147
0.0007369
0.00013877
2.0051e-05
0.0050807
8.3312e-09
4.0133e-05
0.0049912
5.9652e-05
0.004818
7.8205e-05
0.0045628
9.5433e-05
0.0042299
0.00011103
0.0038246
0.0001247
0.0033541
0.00013612
0.0028264
0.00014578
0.0022486
0.00014769
0.0016533
0.00016025
0.0009489
0.00074874
0.00014841
2.0051e-05
0.0050606
9.648e-09
4.0134e-05
0.0049711
5.9654e-05
0.0047984
7.8208e-05
0.0045443
9.5436e-05
0.0042126
0.00011104
0.003809
0.0001247
0.0033405
0.00013608
0.002815
0.00014591
0.0022388
0.00014725
0.001652
0.00015937
0.00093678
0.0007525
0.00015561
2.0051e-05
0.0050405
1.0968e-08
4.0135e-05
0.004951
5.9657e-05
0.0047789
7.8212e-05
0.0045257
9.544e-05
0.0041954
0.00011104
0.0037934
0.0001247
0.0033268
0.00013604
0.0028037
0.00014604
0.0022288
0.00014691
0.0016511
0.00015832
0.00092538
0.00074999
0.00016082
2.0051e-05
0.0050205
1.229e-08
4.0137e-05
0.0049309
5.9659e-05
0.0047594
7.8215e-05
0.0045071
9.5443e-05
0.0041782
0.00011104
0.0037778
0.0001247
0.0033132
0.00013599
0.0027924
0.00014618
0.0022186
0.00014669
0.0016506
0.00015715
0.00091492
0.00074273
0.00016442
2.0051e-05
0.0050004
1.3616e-08
4.0138e-05
0.0049108
5.9661e-05
0.0047399
7.8218e-05
0.0044886
9.5446e-05
0.004161
0.00011104
0.0037622
0.0001247
0.0032995
0.00013595
0.0027812
0.00014632
0.0022082
0.00014658
0.0016503
0.00015595
0.00090555
0.00073196
0.00016672
2.0051e-05
0.0049803
1.4945e-08
4.0139e-05
0.0048907
5.9664e-05
0.0047204
7.8221e-05
0.00447
9.545e-05
0.0041437
0.00011104
0.0037466
0.00012471
0.0032858
0.00013589
0.00277
0.00014646
0.0021977
0.00014657
0.0016502
0.00015475
0.00089736
0.00071871
0.000168
2.0051e-05
0.0049603
1.6276e-08
4.014e-05
0.0048706
5.9666e-05
0.0047008
7.8224e-05
0.0044515
9.5453e-05
0.0041265
0.00011105
0.003731
0.00012472
0.0032722
0.00013584
0.0027589
0.00014659
0.0021869
0.00014665
0.0016501
0.00015362
0.00089039
0.00070383
0.0001685
2.005e-05
0.0049402
1.7611e-08
4.0141e-05
0.0048506
5.9669e-05
0.0046813
7.8227e-05
0.0044329
9.5457e-05
0.0041093
0.00011105
0.0037154
0.00012472
0.0032585
0.00013578
0.0027478
0.00014671
0.002176
0.00014682
0.00165
0.00015257
0.00088465
0.00068798
0.00016842
2.005e-05
0.0049201
1.8949e-08
4.0143e-05
0.0048305
5.9671e-05
0.0046618
7.823e-05
0.0044144
9.5461e-05
0.004092
0.00011105
0.0036998
0.00012473
0.0032448
0.00013571
0.0027368
0.00014682
0.0021649
0.00014707
0.0016498
0.00015163
0.00088009
0.0006717
0.00016791
2.005e-05
0.0049001
2.029e-08
4.0144e-05
0.0048104
5.9673e-05
0.0046422
7.8233e-05
0.0043958
9.5464e-05
0.0040748
0.00011105
0.0036842
0.00012475
0.0032311
0.00013565
0.0027259
0.00014691
0.0021536
0.00014739
0.0016493
0.00015082
0.00087666
0.00065541
0.00016711
2.005e-05
0.00488
2.1635e-08
4.0145e-05
0.0047903
5.9676e-05
0.0046227
7.8236e-05
0.0043772
9.5468e-05
0.0040576
0.00011106
0.0036686
0.00012476
0.0032174
0.00013558
0.0027151
0.00014699
0.0021422
0.00014776
0.0016485
0.00015015
0.00087427
0.00063943
0.00016613
2.005e-05
0.0048599
2.2982e-08
4.0146e-05
0.0047702
5.9678e-05
0.0046032
7.824e-05
0.0043587
9.5472e-05
0.0040403
0.00011106
0.0036531
0.00012477
0.0032037
0.00013551
0.0027044
0.00014705
0.0021307
0.00014818
0.0016474
0.00014962
0.00087284
0.000624
0.00016504
2.005e-05
0.0048399
2.4334e-08
4.0147e-05
0.0047501
5.968e-05
0.0045836
7.8243e-05
0.0043401
9.5476e-05
0.0040231
0.00011106
0.0036375
0.00012479
0.00319
0.00013544
0.0026937
0.00014709
0.002119
0.00014863
0.0016458
0.00014922
0.00087224
0.00060929
0.00016393
2.005e-05
0.0048198
2.5688e-08
4.0148e-05
0.00473
5.9683e-05
0.0045641
7.8246e-05
0.0043215
9.548e-05
0.0040059
0.00011106
0.0036219
0.00012481
0.0031762
0.00013537
0.0026832
0.00014711
0.0021073
0.0001491
0.0016439
0.00014896
0.00087238
0.00059542
0.00016283
2.005e-05
0.0047997
2.7046e-08
4.015e-05
0.0047099
5.9685e-05
0.0045446
7.8249e-05
0.004303
9.5484e-05
0.0039886
0.00011106
0.0036063
0.00012483
0.0031624
0.00013531
0.0026727
0.00014712
0.0020955
0.00014958
0.0016414
0.00014882
0.00087315
0.00058244
0.00016179
2.005e-05
0.0047796
2.8408e-08
4.0151e-05
0.0046898
5.9688e-05
0.004525
7.8252e-05
0.0042844
9.5488e-05
0.0039714
0.00011106
0.0035907
0.00012486
0.0031486
0.00013524
0.0026623
0.0001471
0.0020836
0.00015007
0.0016384
0.00014879
0.00087443
0.0005704
0.00016083
2.005e-05
0.0047595
2.9774e-08
4.0152e-05
0.0046697
5.969e-05
0.0045055
7.8256e-05
0.0042659
9.5492e-05
0.0039542
0.00011106
0.0035752
0.00012488
0.0031348
0.00013517
0.002652
0.00014706
0.0020717
0.00015055
0.0016349
0.00014887
0.00087611
0.0005593
0.00015998
2.005e-05
0.0047395
3.1143e-08
4.0153e-05
0.0046496
5.9693e-05
0.004486
7.8259e-05
0.0042473
9.5497e-05
0.0039369
0.00011106
0.0035596
0.00012491
0.003121
0.00013511
0.0026418
0.00014701
0.0020598
0.00015103
0.0016309
0.00014905
0.00087809
0.0005491
0.00015924
2.005e-05
0.0047194
3.2516e-08
4.0154e-05
0.0046295
5.9695e-05
0.0044664
7.8262e-05
0.0042287
9.5501e-05
0.0039197
0.00011106
0.0035441
0.00012494
0.0031071
0.00013505
0.0026317
0.00014693
0.002048
0.00015148
0.0016264
0.0001493
0.00088027
0.00053979
0.00015861
2.005e-05
0.0046993
3.3893e-08
4.0155e-05
0.0046094
5.9698e-05
0.0044469
7.8266e-05
0.0042101
9.5506e-05
0.0039024
0.00011106
0.0035285
0.00012497
0.0030932
0.000135
0.0026217
0.00014684
0.0020361
0.00015192
0.0016213
0.00014962
0.00088257
0.0005313
0.00015811
2.005e-05
0.0046792
3.5273e-08
4.0157e-05
0.0045893
5.97e-05
0.0044273
7.8269e-05
0.0041916
9.5511e-05
0.0038852
0.00011106
0.0035129
0.000125
0.0030793
0.00013495
0.0026117
0.00014673
0.0020243
0.00015232
0.0016157
0.00014999
0.0008849
0.00052358
0.00015771
2.005e-05
0.0046591
3.6658e-08
4.0158e-05
0.0045692
5.9702e-05
0.0044078
7.8272e-05
0.004173
9.5516e-05
0.003868
0.00011106
0.0034974
0.00012503
0.0030653
0.00013491
0.0026018
0.00014661
0.0020126
0.0001527
0.0016096
0.00015041
0.00088719
0.00051656
0.00015743
2.005e-05
0.004639
3.8047e-08
4.0159e-05
0.004549
5.9705e-05
0.0043882
7.8276e-05
0.0041544
9.5521e-05
0.0038507
0.00011106
0.0034819
0.00012506
0.0030513
0.00013487
0.002592
0.00014648
0.002001
0.00015305
0.0016031
0.00015086
0.00088938
0.00051018
0.00015724
2.005e-05
0.0046189
3.944e-08
4.016e-05
0.0045289
5.9707e-05
0.0043687
7.8279e-05
0.0041359
9.5526e-05
0.0038335
0.00011105
0.0034663
0.0001251
0.0030372
0.00013484
0.0025823
0.00014633
0.0019895
0.00015336
0.001596
0.00015133
0.0008914
0.00050437
0.00015714
2.005e-05
0.0045989
4.0838e-08
4.0161e-05
0.0045088
5.971e-05
0.0043491
7.8282e-05
0.0041173
9.5531e-05
0.0038162
0.00011105
0.0034508
0.00012514
0.0030232
0.00013481
0.0025726
0.00014618
0.0019781
0.00015363
0.0015886
0.00015182
0.00089322
0.00049906
0.00015713
2.0049e-05
0.0045788
4.2239e-08
4.0163e-05
0.0044887
5.9713e-05
0.0043296
7.8286e-05
0.0040987
9.5537e-05
0.003799
0.00011105
0.0034353
0.00012517
0.003009
0.00013479
0.002563
0.00014601
0.0019669
0.00015387
0.0015807
0.0001523
0.00089478
0.00049418
0.00015718
2.0049e-05
0.0045587
4.3645e-08
4.0164e-05
0.0044686
5.9715e-05
0.00431
7.8289e-05
0.0040801
9.5543e-05
0.0037817
0.00011105
0.0034198
0.00012521
0.0029949
0.00013478
0.0025534
0.00014584
0.0019559
0.00015407
0.0015725
0.00015279
0.00089605
0.00048969
0.00015729
2.0049e-05
0.0045386
4.5056e-08
4.0165e-05
0.0044485
5.9718e-05
0.0042905
7.8292e-05
0.0040616
9.5549e-05
0.0037645
0.00011104
0.0034043
0.00012525
0.0029807
0.00013478
0.0025439
0.00014566
0.001945
0.00015423
0.0015639
0.00015327
0.00089702
0.00048551
0.00015744
2.0049e-05
0.0045185
4.6471e-08
4.0166e-05
0.0044284
5.972e-05
0.0042709
7.8296e-05
0.004043
9.5555e-05
0.0037472
0.00011104
0.0033888
0.00012529
0.0029664
0.00013479
0.0025344
0.00014549
0.0019343
0.00015436
0.0015551
0.00015373
0.00089765
0.00048161
0.00015764
2.0049e-05
0.0044984
4.7891e-08
4.0167e-05
0.0044082
5.9723e-05
0.0042514
7.8299e-05
0.0040244
9.5561e-05
0.0037299
0.00011103
0.0033734
0.00012533
0.0029521
0.0001348
0.0025249
0.00014531
0.0019238
0.00015445
0.0015459
0.00015417
0.00089793
0.00047791
0.00015786
2.0049e-05
0.0044783
4.9315e-08
4.0169e-05
0.0043881
5.9725e-05
0.0042318
7.8303e-05
0.0040058
9.5568e-05
0.0037127
0.00011102
0.0033579
0.00012536
0.0029378
0.00013483
0.0025154
0.00014513
0.0019135
0.00015451
0.0015365
0.00015458
0.00089786
0.0004744
0.0001581
2.0049e-05
0.0044582
5.0744e-08
4.017e-05
0.004368
5.9728e-05
0.0042123
7.8306e-05
0.0039873
9.5575e-05
0.0036954
0.00011102
0.0033425
0.0001254
0.0029234
0.00013486
0.002506
0.00014495
0.0019034
0.00015454
0.0015269
0.00015497
0.00089742
0.00047101
0.00015836
2.0049e-05
0.0044381
5.2179e-08
4.0171e-05
0.0043479
5.9731e-05
0.0041927
7.831e-05
0.0039687
9.5582e-05
0.0036781
0.00011101
0.003327
0.00012544
0.002909
0.0001349
0.0024965
0.00014477
0.0018935
0.00015454
0.0015172
0.00015533
0.00089663
0.00046773
0.00015862
2.0049e-05
0.004418
5.3618e-08
4.0172e-05
0.0043278
5.9733e-05
0.0041732
7.8313e-05
0.0039501
9.559e-05
0.0036609
0.00011101
0.0033116
0.00012547
0.0028945
0.00013494
0.0024871
0.00014461
0.0018839
0.00015451
0.0015073
0.00015566
0.00089548
0.00046451
0.00015888
2.0049e-05
0.0043979
5.5062e-08
4.0174e-05
0.0043076
5.9736e-05
0.0041536
7.8316e-05
0.0039315
9.5597e-05
0.0036436
0.000111
0.0032962
0.00012551
0.00288
0.000135
0.0024776
0.00014444
0.0018744
0.00015446
0.0014973
0.00015596
0.00089398
0.00046134
0.00015913
2.0049e-05
0.0043778
5.6512e-08
4.0175e-05
0.0042875
5.9739e-05
0.004134
7.832e-05
0.0039129
9.5605e-05
0.0036263
0.00011099
0.0032808
0.00012554
0.0028654
0.00013506
0.002468
0.00014429
0.0018652
0.00015438
0.0014872
0.00015622
0.00089213
0.00045818
0.00015938
2.0049e-05
0.0043577
5.7967e-08
4.0176e-05
0.0042674
5.9741e-05
0.0041145
7.8323e-05
0.0038944
9.5614e-05
0.003609
0.00011098
0.0032655
0.00012557
0.0028508
0.00013513
0.0024585
0.00014414
0.0018562
0.00015429
0.001477
0.00015646
0.00088997
0.00045502
0.00015962
2.0049e-05
0.0043376
5.9427e-08
4.0177e-05
0.0042472
5.9744e-05
0.0040949
7.8327e-05
0.0038758
9.5622e-05
0.0035917
0.00011097
0.0032501
0.0001256
0.0028362
0.00013521
0.0024489
0.00014401
0.0018474
0.00015418
0.0014669
0.00015666
0.00088748
0.00045184
0.00015983
2.0049e-05
0.0043174
6.0893e-08
4.0179e-05
0.0042271
5.9747e-05
0.0040753
7.833e-05
0.0038572
9.5631e-05
0.0035744
0.00011097
0.0032348
0.00012563
0.0028216
0.00013529
0.0024392
0.00014389
0.0018388
0.00015405
0.0014567
0.00015683
0.00088471
0.00044864
0.00016004
2.0048e-05
0.0042973
6.2364e-08
4.018e-05
0.004207
5.975e-05
0.0040558
7.8334e-05
0.0038386
9.564e-05
0.0035571
0.00011096
0.0032195
0.00012565
0.0028069
0.00013539
0.0024295
0.00014378
0.0018304
0.00015391
0.0014466
0.00015697
0.00088165
0.00044539
0.00016022
2.0048e-05
0.0042772
6.3842e-08
4.0181e-05
0.0041869
5.9753e-05
0.0040362
7.8337e-05
0.00382
9.565e-05
0.0035398
0.00011095
0.0032042
0.00012568
0.0027921
0.00013548
0.0024197
0.00014368
0.0018222
0.00015377
0.0014365
0.00015709
0.00087833
0.00044209
0.00016038
2.0048e-05
0.0042571
6.5325e-08
4.0182e-05
0.0041667
5.9755e-05
0.0040166
7.8341e-05
0.0038014
9.5659e-05
0.0035225
0.00011094
0.0031889
0.0001257
0.0027774
0.00013558
0.0024098
0.00014359
0.0018142
0.00015361
0.0014264
0.00015717
0.00087477
0.00043874
0.00016053
2.0048e-05
0.004237
6.6814e-08
4.0184e-05
0.0041466
5.9758e-05
0.003997
7.8344e-05
0.0037829
9.5669e-05
0.0035051
0.00011093
0.0031736
0.00012571
0.0027626
0.00013569
0.0023998
0.00014352
0.0018064
0.00015346
0.0014165
0.00015724
0.00087099
0.00043533
0.00016065
2.0048e-05
0.0042169
6.8309e-08
4.0185e-05
0.0041264
5.9761e-05
0.0039775
7.8348e-05
0.0037643
9.568e-05
0.0034878
0.00011092
0.0031584
0.00012573
0.0027478
0.0001358
0.0023897
0.00014346
0.0017987
0.0001533
0.0014067
0.00015728
0.000867
0.00043185
0.00016076
2.0048e-05
0.0041968
6.981e-08
4.0186e-05
0.0041063
5.9764e-05
0.0039579
7.8351e-05
0.0037457
9.5691e-05
0.0034705
0.00011091
0.0031432
0.00012574
0.002733
0.00013591
0.0023796
0.00014342
0.0017912
0.00015314
0.001397
0.00015731
0.00086283
0.00042832
0.00016084
2.0048e-05
0.0041766
7.1317e-08
4.0188e-05
0.0040862
5.9767e-05
0.0039383
7.8354e-05
0.0037271
9.5702e-05
0.0034531
0.00011091
0.0031279
0.00012575
0.0027181
0.00013603
0.0023693
0.0001434
0.0017838
0.00015298
0.0013874
0.00015731
0.0008585
0.00042473
0.00016091
2.0048e-05
0.0041565
7.2831e-08
4.0189e-05
0.004066
5.977e-05
0.0039187
7.8358e-05
0.0037085
9.5713e-05
0.0034358
0.0001109
0.0031128
0.00012575
0.0027033
0.00013615
0.0023589
0.00014338
0.0017766
0.00015283
0.0013779
0.00015731
0.00085402
0.00042107
0.00016096
2.0048e-05
0.0041364
7.4351e-08
4.019e-05
0.0040459
5.9773e-05
0.0038991
7.8361e-05
0.0036899
9.5724e-05
0.0034184
0.00011089
0.0030976
0.00012576
0.0026884
0.00013627
0.0023484
0.00014338
0.0017695
0.00015268
0.0013686
0.00015729
0.00084942
0.00041737
0.000161
2.0048e-05
0.0041163
7.5878e-08
4.0192e-05
0.0040257
5.9776e-05
0.0038796
7.8364e-05
0.0036713
9.5736e-05
0.003401
0.00011089
0.0030824
0.00012576
0.0026735
0.00013639
0.0023377
0.0001434
0.0017625
0.00015254
0.0013595
0.00015726
0.0008447
0.0004136
0.00016102
2.0048e-05
0.0040961
7.7412e-08
4.0193e-05
0.0040056
5.9779e-05
0.00386
7.8368e-05
0.0036527
9.5748e-05
0.0033836
0.00011088
0.0030673
0.00012575
0.0026587
0.00013651
0.002327
0.00014343
0.0017555
0.00015241
0.0013505
0.00015722
0.00083989
0.00040979
0.00016103
2.0048e-05
0.004076
7.8953e-08
4.0194e-05
0.0039855
5.9782e-05
0.0038404
7.8371e-05
0.0036342
9.5761e-05
0.0033663
0.00011088
0.0030522
0.00012575
0.0026438
0.00013663
0.0023161
0.00014347
0.0017487
0.00015229
0.0013417
0.00015718
0.00083501
0.00040594
0.00016103
2.0048e-05
0.0040559
8.0501e-08
4.0196e-05
0.0039653
5.9785e-05
0.0038208
7.8374e-05
0.0036156
9.5773e-05
0.0033489
0.00011087
0.0030371
0.00012574
0.0026289
0.00013674
0.0023051
0.00014353
0.0017419
0.00015218
0.001333
0.00015713
0.00083006
0.00040205
0.00016102
2.0048e-05
0.0040358
8.2056e-08
4.0197e-05
0.0039452
5.9789e-05
0.0038012
7.8378e-05
0.003597
9.5786e-05
0.0033314
0.00011087
0.003022
0.00012572
0.0026141
0.00013686
0.002294
0.00014359
0.0017352
0.00015209
0.0013245
0.00015708
0.00082507
0.00039812
0.000161
2.0048e-05
0.0040156
8.3618e-08
4.0199e-05
0.003925
5.9792e-05
0.0037816
7.8381e-05
0.0035784
9.5799e-05
0.003314
0.00011087
0.0030069
0.00012571
0.0025992
0.00013697
0.0022827
0.00014367
0.0017285
0.000152
0.0013162
0.00015703
0.00082004
0.00039417
0.00016098
2.0048e-05
0.0039955
8.5188e-08
4.02e-05
0.0039049
5.9795e-05
0.003762
7.8384e-05
0.0035598
9.5812e-05
0.0032966
0.00011087
0.0029919
0.00012569
0.0025844
0.00013709
0.0022713
0.00014376
0.0017218
0.00015193
0.001308
0.00015698
0.00081499
0.0003902
0.00016095
2.0047e-05
0.0039754
8.6765e-08
4.0201e-05
0.0038847
5.9798e-05
0.0037424
7.8388e-05
0.0035412
9.5826e-05
0.0032792
0.00011087
0.0029769
0.00012567
0.0025696
0.00013719
0.0022598
0.00014385
0.0017152
0.00015187
0.0013
0.00015693
0.00080992
0.00038621
0.00016092
2.0047e-05
0.0039552
8.835e-08
4.0203e-05
0.0038645
5.9802e-05
0.0037228
7.8391e-05
0.0035226
9.5839e-05
0.0032617
0.00011087
0.0029618
0.00012564
0.0025548
0.0001373
0.0022481
0.00014396
0.0017085
0.00015182
0.0012921
0.00015689
0.00080485
0.0003822
0.00016089
2.0047e-05
0.0039351
8.9943e-08
4.0204e-05
0.0038444
5.9805e-05
0.0037032
7.8394e-05
0.003504
9.5853e-05
0.0032443
0.00011087
0.0029468
0.00012562
0.0025401
0.00013739
0.0022363
0.00014407
0.0017018
0.00015179
0.0012844
0.00015685
0.00079979
0.00037819
0.00016086
2.0047e-05
0.003915
9.1545e-08
4.0206e-05
0.0038242
5.9808e-05
0.0036836
7.8397e-05
0.0034854
9.5866e-05
0.0032268
0.00011087
0.0029318
0.00012559
0.0025254
0.00013749
0.0022244
0.00014419
0.0016951
0.00015176
0.0012769
0.00015682
0.00079473
0.00037419
0.00016082
2.0047e-05
0.0038948
9.3154e-08
4.0207e-05
0.0038041
5.9812e-05
0.003664
7.8401e-05
0.0034669
9.588e-05
0.0032093
0.00011088
0.0029168
0.00012556
0.0025107
0.00013758
0.0022124
0.00014432
0.0016884
0.00015176
0.0012694
0.00015679
0.0007897
0.00037018
0.00016079
2.0047e-05
0.0038747
9.4772e-08
4.0209e-05
0.0037839
5.9815e-05
0.0036444
7.8404e-05
0.0034483
9.5894e-05
0.0031918
0.00011089
0.0029018
0.00012553
0.002496
0.00013766
0.0022003
0.00014445
0.0016816
0.00015176
0.0012621
0.00015677
0.00078469
0.00036619
0.00016076
2.0047e-05
0.0038545
9.6398e-08
4.021e-05
0.0037637
5.9819e-05
0.0036248
7.8407e-05
0.0034297
9.5908e-05
0.0031743
0.0001109
0.0028868
0.00012549
0.0024814
0.00013773
0.002188
0.00014458
0.0016747
0.00015177
0.0012549
0.00015675
0.00077971
0.00036221
0.00016073
2.0047e-05
0.0038344
9.8033e-08
4.0212e-05
0.0037436
5.9822e-05
0.0036052
7.841e-05
0.0034111
9.5921e-05
0.0031568
0.00011091
0.0028718
0.00012546
0.0024669
0.00013781
0.0021757
0.00014472
0.0016678
0.0001518
0.0012478
0.00015675
0.00077477
0.00035825
0.00016071
2.0047e-05
0.0038142
9.9677e-08
4.0213e-05
0.0037234
5.9826e-05
0.0035856
7.8413e-05
0.0033925
9.5935e-05
0.0031393
0.00011092
0.0028569
0.00012542
0.0024524
0.00013787
0.0021633
0.00014485
0.0016608
0.00015184
0.0012408
0.00015675
0.00076986
0.00035431
0.00016068
2.0047e-05
0.0037941
1.0133e-07
4.0215e-05
0.0037032
5.983e-05
0.003566
7.8417e-05
0.0033739
9.5949e-05
0.0031218
0.00011093
0.0028419
0.00012539
0.0024379
0.00013793
0.0021507
0.00014499
0.0016538
0.00015188
0.001234
0.00015675
0.00076499
0.0003504
0.00016067
2.0047e-05
0.0037739
1.0299e-07
4.0216e-05
0.0036831
5.9833e-05
0.0035463
7.842e-05
0.0033553
9.5962e-05
0.0031042
0.00011095
0.0028269
0.00012535
0.0024235
0.00013798
0.0021381
0.00014513
0.0016466
0.00015194
0.0012272
0.00015677
0.00076016
0.00034652
0.00016065
2.0047e-05
0.0037538
1.0466e-07
4.0218e-05
0.0036629
5.9837e-05
0.0035267
7.8423e-05
0.0033367
9.5976e-05
0.0030867
0.00011096
0.0028119
0.00012531
0.0024092
0.00013803
0.0021254
0.00014527
0.0016394
0.000152
0.0012204
0.00015679
0.00075537
0.00034267
0.00016064
2.0047e-05
0.0037336
1.0634e-07
4.022e-05
0.0036427
5.9841e-05
0.0035071
7.8427e-05
0.0033182
9.5989e-05
0.0030691
0.00011098
0.0027969
0.00012527
0.0023949
0.00013806
0.0021126
0.0001454
0.001632
0.00015207
0.0012138
0.00015682
0.00075062
0.00033885
0.00016063
2.0047e-05
0.0037135
1.0804e-07
4.0221e-05
0.0036226
5.9845e-05
0.0034875
7.843e-05
0.0032996
9.6002e-05
0.0030515
0.000111
0.0027819
0.00012524
0.0023807
0.0001381
0.0020997
0.00014554
0.0016246
0.00015215
0.0012071
0.00015685
0.00074591
0.00033507
0.00016063
2.0047e-05
0.0036933
1.0974e-07
4.0223e-05
0.0036024
5.9848e-05
0.0034678
7.8433e-05
0.003281
9.6015e-05
0.0030339
0.00011102
0.0027669
0.0001252
0.0023665
0.00013812
0.0020868
0.00014567
0.0016171
0.00015223
0.0012006
0.0001569
0.00074124
0.00033134
0.00016063
2.0047e-05
0.0036732
1.1145e-07
4.0225e-05
0.0035822
5.9852e-05
0.0034482
7.8437e-05
0.0032624
9.6027e-05
0.0030164
0.00011105
0.0027519
0.00012517
0.0023524
0.00013815
0.0020738
0.00014579
0.0016094
0.00015231
0.0011941
0.00015694
0.00073661
0.00032764
0.00016064
2.0047e-05
0.003653
1.1317e-07
4.0226e-05
0.003562
5.9856e-05
0.0034286
7.844e-05
0.0032438
9.604e-05
0.0029988
0.00011107
0.0027368
0.00012513
0.0023383
0.00013816
0.0020608
0.00014592
0.0016017
0.0001524
0.0011876
0.000157
0.00073201
0.00032398
0.00016065
2.0047e-05
0.0036328
1.149e-07
4.0228e-05
0.0035418
5.986e-05
0.003409
7.8444e-05
0.0032252
9.6052e-05
0.0029811
0.0001111
0.0027218
0.0001251
0.0023243
0.00013817
0.0020477
0.00014604
0.0015938
0.00015249
0.0011811
0.00015705
0.00072746
0.00032037
0.00016066
2.0047e-05
0.0036127
1.1664e-07
4.023e-05
0.0035217
5.9864e-05
0.0033893
7.8448e-05
0.0032066
9.6063e-05
0.0029635
0.00011113
0.0027067
0.00012507
0.0023104
0.00013818
0.0020346
0.00014615
0.0015858
0.00015259
0.0011747
0.00015711
0.00072293
0.00031681
0.00016068
2.0047e-05
0.0035925
1.184e-07
4.0232e-05
0.0035015
5.9868e-05
0.0033697
7.8452e-05
0.0031881
9.6075e-05
0.0029459
0.00011116
0.0026917
0.00012504
0.0022965
0.00013818
0.0020215
0.00014626
0.0015777
0.00015269
0.0011683
0.00015718
0.00071844
0.00031328
0.0001607
2.0047e-05
0.0035723
1.2016e-07
4.0233e-05
0.0034813
5.9873e-05
0.00335
7.8455e-05
0.0031695
9.6086e-05
0.0029283
0.00011119
0.0026765
0.00012501
0.0022827
0.00013818
0.0020083
0.00014636
0.0015696
0.00015278
0.0011618
0.00015725
0.00071397
0.00030981
0.00016073
2.0047e-05
0.0035522
1.2194e-07
4.0235e-05
0.0034611
5.9877e-05
0.0033304
7.8459e-05
0.0031509
9.6096e-05
0.0029106
0.00011122
0.0026614
0.00012498
0.0022689
0.00013817
0.0019951
0.00014646
0.0015613
0.00015288
0.0011554
0.00015732
0.00070954
0.00030637
0.00016075
2.0047e-05
0.003532
1.2373e-07
4.0237e-05
0.0034409
5.9881e-05
0.0033108
7.8463e-05
0.0031323
9.6107e-05
0.002893
0.00011125
0.0026463
0.00012496
0.0022552
0.00013816
0.0019819
0.00014655
0.0015529
0.00015298
0.001149
0.00015739
0.00070512
0.00030299
0.00016078
2.0047e-05
0.0035118
1.2553e-07
4.0239e-05
0.0034207
5.9885e-05
0.0032911
7.8468e-05
0.0031137
9.6116e-05
0.0028753
0.00011128
0.0026311
0.00012494
0.0022415
0.00013814
0.0019687
0.00014664
0.0015444
0.00015308
0.0011426
0.00015747
0.00070073
0.00029964
0.00016081
2.0047e-05
0.0034917
1.2734e-07
4.0241e-05
0.0034005
5.989e-05
0.0032715
7.8472e-05
0.0030952
9.6126e-05
0.0028577
0.00011132
0.0026159
0.00012492
0.0022279
0.00013813
0.0019555
0.00014672
0.0015358
0.00015317
0.0011361
0.00015755
0.00069636
0.00029634
0.00016085
2.0047e-05
0.0034715
1.2917e-07
4.0242e-05
0.0033803
5.9894e-05
0.0032518
7.8476e-05
0.0030766
9.6135e-05
0.00284
0.00011135
0.0026007
0.0001249
0.0022144
0.00013811
0.0019423
0.0001468
0.0015271
0.00015327
0.0011296
0.00015762
0.000692
0.00029309
0.00016088
2.0047e-05
0.0034513
1.3101e-07
4.0244e-05
0.0033601
5.9898e-05
0.0032322
7.8481e-05
0.003058
9.6144e-05
0.0028224
0.00011139
0.0025855
0.00012489
0.0022009
0.00013809
0.0019291
0.00014687
0.0015183
0.00015336
0.0011232
0.0001577
0.00068766
0.00028987
0.00016092
2.0047e-05
0.0034311
1.3286e-07
4.0246e-05
0.0033399
5.9903e-05
0.0032125
7.8486e-05
0.0030394
9.6152e-05
0.0028047
0.00011143
0.0025702
0.00012488
0.0021875
0.00013807
0.0019159
0.00014694
0.0015094
0.00015345
0.0011166
0.00015778
0.00068333
0.0002867
0.00016096
2.0047e-05
0.0034109
1.3472e-07
4.0248e-05
0.0033197
5.9907e-05
0.0031928
7.849e-05
0.0030208
9.616e-05
0.002787
0.00011146
0.0025549
0.00012487
0.002174
0.00013804
0.0019027
0.000147
0.0015005
0.00015354
0.0011101
0.00015786
0.000679
0.00028357
0.000161
2.0047e-05
0.0033908
1.366e-07
4.025e-05
0.0032995
5.9912e-05
0.0031732
7.8495e-05
0.0030022
9.6167e-05
0.0027694
0.0001115
0.0025395
0.00012486
0.0021607
0.00013802
0.0018896
0.00014705
0.0014914
0.00015362
0.0011035
0.00015794
0.00067469
0.00028047
0.00016104
2.0047e-05
0.0033706
1.3849e-07
4.0252e-05
0.0032793
5.9917e-05
0.0031535
7.8501e-05
0.0029837
9.6175e-05
0.0027517
0.00011154
0.0025242
0.00012486
0.0021474
0.00013799
0.0018764
0.00014711
0.0014823
0.00015371
0.0010969
0.00015802
0.00067037
0.00027742
0.00016108
2.0047e-05
0.0033504
1.404e-07
4.0254e-05
0.0032591
5.9921e-05
0.0031339
7.8506e-05
0.0029651
9.6181e-05
0.002734
0.00011158
0.0025088
0.00012486
0.0021341
0.00013797
0.0018633
0.00014715
0.0014731
0.00015379
0.0010903
0.0001581
0.00066606
0.0002744
0.00016112
2.0047e-05
0.0033302
1.4232e-07
4.0256e-05
0.0032389
5.9926e-05
0.0031142
7.8511e-05
0.0029465
9.6188e-05
0.0027163
0.00011161
0.0024934
0.00012486
0.0021208
0.00013794
0.0018502
0.0001472
0.0014639
0.00015387
0.0010836
0.00015818
0.00066175
0.00027141
0.00016116
2.0047e-05
0.00331
1.4425e-07
4.0258e-05
0.0032187
5.9931e-05
0.0030945
7.8517e-05
0.0029279
9.6194e-05
0.0026987
0.00011165
0.0024779
0.00012487
0.0021076
0.00013792
0.0018372
0.00014724
0.0014546
0.00015394
0.0010769
0.00015825
0.00065744
0.00026846
0.0001612
2.0047e-05
0.0032898
1.462e-07
4.0261e-05
0.0031985
5.9936e-05
0.0030748
7.8523e-05
0.0029093
9.62e-05
0.002681
0.00011169
0.0024624
0.00012488
0.0020944
0.00013789
0.0018242
0.00014727
0.0014452
0.00015401
0.0010702
0.00015833
0.00065312
0.00026555
0.00016125
2.0047e-05
0.0032696
1.4817e-07
4.0263e-05
0.0031783
5.994e-05
0.0030552
7.8529e-05
0.0028907
9.6205e-05
0.0026633
0.00011173
0.0024469
0.00012489
0.0020813
0.00013787
0.0018112
0.0001473
0.0014357
0.00015408
0.0010634
0.00015841
0.0006488
0.00026266
0.00016129
2.0047e-05
0.0032494
1.5015e-07
4.0265e-05
0.003158
5.9945e-05
0.0030355
7.8535e-05
0.0028721
9.6211e-05
0.0026456
0.00011177
0.0024313
0.0001249
0.0020681
0.00013785
0.0017983
0.00014733
0.0014262
0.00015415
0.0010566
0.00015848
0.00064447
0.0002598
0.00016134
2.0047e-05
0.0032292
1.5215e-07
4.0267e-05
0.0031378
5.995e-05
0.0030158
7.8542e-05
0.0028535
9.6216e-05
0.002628
0.0001118
0.0024157
0.00012492
0.002055
0.00013783
0.0017853
0.00014736
0.0014167
0.00015421
0.0010497
0.00015855
0.00064013
0.00025698
0.00016138
2.0047e-05
0.003209
1.5416e-07
4.0269e-05
0.0031176
5.9955e-05
0.0029961
7.8548e-05
0.002835
9.6221e-05
0.0026103
0.00011184
0.0024001
0.00012494
0.0020419
0.00013781
0.0017725
0.00014739
0.0014071
0.00015428
0.0010428
0.00015862
0.00063578
0.00025418
0.00016142
2.0047e-05
0.0031888
1.5619e-07
4.0272e-05
0.0030974
5.996e-05
0.0029764
7.8555e-05
0.0028164
9.6225e-05
0.0025926
0.00011188
0.0023845
0.00012496
0.0020288
0.00013779
0.0017596
0.00014741
0.0013975
0.00015433
0.0010359
0.00015869
0.00063142
0.0002514
0.00016147
2.0047e-05
0.0031686
1.5824e-07
4.0274e-05
0.0030771
5.9965e-05
0.0029567
7.8562e-05
0.0027978
9.623e-05
0.0025749
0.00011192
0.0023688
0.00012498
0.0020158
0.00013777
0.0017468
0.00014743
0.0013879
0.00015439
0.001029
0.00015876
0.00062705
0.00024865
0.00016151
2.0047e-05
0.0031484
1.603e-07
4.0276e-05
0.0030569
5.9971e-05
0.002937
7.8569e-05
0.0027792
9.6234e-05
0.0025573
0.00011195
0.0023531
0.000125
0.0020027
0.00013776
0.0017341
0.00014745
0.0013782
0.00015445
0.001022
0.00015883
0.00062267
0.00024593
0.00016155
2.0047e-05
0.0031282
1.6238e-07
4.0278e-05
0.0030367
5.9976e-05
0.0029173
7.8576e-05
0.0027606
9.6238e-05
0.0025396
0.00011199
0.0023373
0.00012503
0.0019897
0.00013774
0.0017214
0.00014747
0.0013684
0.0001545
0.0010149
0.00015889
0.00061827
0.00024323
0.0001616
2.0047e-05
0.003108
1.6448e-07
4.0281e-05
0.0030164
5.9981e-05
0.0028976
7.8584e-05
0.002742
9.6242e-05
0.002522
0.00011202
0.0023215
0.00012506
0.0019767
0.00013773
0.0017087
0.00014748
0.0013587
0.00015455
0.0010079
0.00015896
0.00061386
0.00024054
0.00016164
2.0047e-05
0.0030878
1.666e-07
4.0283e-05
0.0029962
5.9986e-05
0.0028779
7.8592e-05
0.0027234
9.6246e-05
0.0025043
0.00011206
0.0023057
0.00012509
0.0019636
0.00013772
0.0016961
0.0001475
0.0013489
0.0001546
0.0010008
0.00015902
0.00060944
0.00023788
0.00016168
2.0047e-05
0.0030676
1.6874e-07
4.0286e-05
0.002976
5.9992e-05
0.0028582
7.8599e-05
0.0027047
9.625e-05
0.0024867
0.00011209
0.0022899
0.00012512
0.0019506
0.00013772
0.0016835
0.00014751
0.0013391
0.00015464
0.00099363
0.00015908
0.000605
0.00023524
0.00016173
2.0047e-05
0.0030473
1.709e-07
4.0288e-05
0.0029557
5.9997e-05
0.0028385
7.8608e-05
0.0026861
9.6254e-05
0.002469
0.00011212
0.002274
0.00012515
0.0019376
0.00013771
0.0016709
0.00014753
0.0013293
0.00015469
0.00098647
0.00015915
0.00060054
0.00023262
0.00016177
2.0047e-05
0.0030271
1.7308e-07
4.0291e-05
0.0029355
6.0003e-05
0.0028188
7.8616e-05
0.0026675
9.6257e-05
0.0024514
0.00011216
0.0022581
0.00012518
0.0019245
0.00013771
0.0016584
0.00014754
0.0013195
0.00015473
0.00097928
0.0001592
0.00059607
0.00023001
0.00016181
2.0047e-05
0.0030069
1.7528e-07
4.0293e-05
0.0029152
6.0008e-05
0.0027991
7.8624e-05
0.0026489
9.6261e-05
0.0024337
0.00011219
0.0022422
0.00012522
0.0019115
0.00013771
0.0016459
0.00014756
0.0013096
0.00015478
0.00097206
0.00015926
0.00059158
0.00022742
0.00016185
2.0047e-05
0.0029867
1.775e-07
4.0296e-05
0.002895
6.0014e-05
0.0027794
7.8633e-05
0.0026303
9.6265e-05
0.0024161
0.00011222
0.0022262
0.00012526
0.0018985
0.00013771
0.0016334
0.00014757
0.0012998
0.00015482
0.00096481
0.00015932
0.00058708
0.00022485
0.0001619
2.0047e-05
0.0029664
1.7974e-07
4.0298e-05
0.0028747
6.0019e-05
0.0027597
7.8642e-05
0.0026117
9.6269e-05
0.0023985
0.00011225
0.0022103
0.00012529
0.0018854
0.00013772
0.001621
0.00014758
0.0012899
0.00015486