/*--------------------------------*- C++ -*----------------------------------*\
  =========                 |
  \\      /  F ield         | OpenFOAM: The Open Source CFD Toolbox
   \\    /   O peration     | Website:  https://openfoam.org
    \\  /    A nd           | Version:  6.0
     \\/     M anipulation  |
\*---------------------------------------------------------------------------*/
FoamFile
{
    version     2.0;
    format      ascii;
    class       surfaceScalarField;
    location    "1.91";
    object      phi;
}
// * * * * * * * * * * * * * * * * * * * * * * * * * * * * * * * * * * * * * //

dimensions      [0 3 -1 0 0 0 0];

internalField   nonuniform List<scalar> 
26699
(
2.0051e-05
0.005201
4.1998e-10
4.0126e-05
0.0051116
5.9639e-05
0.0049351
7.8186e-05
0.0046741
9.5416e-05
0.0043332
0.00011102
0.0039182
0.00012472
0.0034362
0.00013626
0.0028953
0.00014546
0.002305
0.00015182
0.0016755
0.00015718
0.0010154
0.00046489
3.4492e-05
2.0051e-05
0.0051809
1.318e-09
4.0127e-05
0.0050916
5.9641e-05
0.0049155
7.8189e-05
0.0046556
9.5419e-05
0.004316
0.00011102
0.0039026
0.00012471
0.0034225
0.00013624
0.0028838
0.00014545
0.0022958
0.00015107
0.0016699
0.00015893
0.0010075
0.0005586
6.5225e-05
2.0052e-05
0.0051609
2.2969e-09
4.0128e-05
0.0050715
5.9643e-05
0.004896
7.8192e-05
0.004637
9.5422e-05
0.0042988
0.00011102
0.003887
0.00012471
0.0034088
0.00013622
0.0028723
0.00014546
0.0022865
0.00015031
0.001665
0.00016022
0.00099762
0.00062833
9.0483e-05
2.0052e-05
0.0051408
3.2836e-09
4.013e-05
0.0050514
5.9646e-05
0.0048765
7.8195e-05
0.0046185
9.5425e-05
0.0042815
0.00011102
0.0038714
0.0001247
0.0033951
0.00013619
0.0028608
0.0001455
0.0022772
0.00014957
0.001661
0.00016097
0.00098622
0.00067853
0.00011077
2.0052e-05
0.0051208
4.2714e-09
4.0131e-05
0.0050313
5.9648e-05
0.004857
7.8198e-05
0.0045999
9.5428e-05
0.0042643
0.00011102
0.0038558
0.0001247
0.0033814
0.00013616
0.0028494
0.00014556
0.0022678
0.00014888
0.0016576
0.0001612
0.0009739
0.00071285
0.00012688
2.0052e-05
0.0051007
5.2602e-09
4.0133e-05
0.0050112
5.9651e-05
0.0048375
7.8201e-05
0.0045814
9.5431e-05
0.0042471
0.00011103
0.0038402
0.0001247
0.0033678
0.00013613
0.0028379
0.00014565
0.0022583
0.00014826
0.001655
0.00016098
0.00096117
0.00073435
0.00013949
2.0052e-05
0.0050807
6.2501e-09
4.0134e-05
0.0049912
5.9653e-05
0.004818
7.8204e-05
0.0045628
9.5434e-05
0.0042298
0.00011103
0.0038246
0.0001247
0.0033541
0.0001361
0.0028265
0.00014575
0.0022487
0.00014773
0.001653
0.00016041
0.00094849
0.0007456
0.00014916
2.0053e-05
0.0050606
7.2411e-09
4.0135e-05
0.0049711
5.9655e-05
0.0047984
7.8207e-05
0.0045443
9.5437e-05
0.0042126
0.00011103
0.003809
0.0001247
0.0033404
0.00013606
0.0028152
0.00014586
0.0022389
0.00014729
0.0016516
0.00015957
0.00093621
0.00074877
0.0001564
2.0053e-05
0.0050405
8.2333e-09
4.0137e-05
0.004951
5.9658e-05
0.0047789
7.821e-05
0.0045257
9.544e-05
0.0041954
0.00011103
0.0037934
0.0001247
0.0033267
0.00013602
0.0028038
0.00014598
0.0022289
0.00014697
0.0016506
0.00015856
0.00092461
0.00074568
0.00016165
2.0053e-05
0.0050205
9.2267e-09
4.0138e-05
0.0049309
5.966e-05
0.0047594
7.8213e-05
0.0045072
9.5443e-05
0.0041782
0.00011103
0.0037778
0.0001247
0.0033131
0.00013598
0.0027926
0.0001461
0.0022188
0.00014675
0.00165
0.00015745
0.00091392
0.00073785
0.00016527
2.0053e-05
0.0050004
1.0221e-08
4.0139e-05
0.0049108
5.9662e-05
0.0047399
7.8216e-05
0.0044886
9.5446e-05
0.0041609
0.00011104
0.0037623
0.00012471
0.0032994
0.00013594
0.0027813
0.00014622
0.0022085
0.00014664
0.0016496
0.0001563
0.00090426
0.00072654
0.00016762
2.0053e-05
0.0049804
1.1217e-08
4.0141e-05
0.0048907
5.9665e-05
0.0047204
7.822e-05
0.0044701
9.5449e-05
0.0041437
0.00011104
0.0037467
0.00012471
0.0032857
0.00013589
0.0027701
0.00014634
0.0021981
0.00014663
0.0016493
0.00015517
0.00089571
0.00071275
0.00016895
2.0054e-05
0.0049603
1.2215e-08
4.0142e-05
0.0048707
5.9667e-05
0.0047008
7.8223e-05
0.0044515
9.5453e-05
0.0041265
0.00011104
0.0037311
0.00012472
0.0032721
0.00013584
0.002759
0.00014644
0.0021874
0.00014671
0.001649
0.0001541
0.00088832
0.00069734
0.00016951
2.0054e-05
0.0049402
1.3213e-08
4.0143e-05
0.0048506
5.9669e-05
0.0046813
7.8226e-05
0.0044329
9.5456e-05
0.0041092
0.00011104
0.0037155
0.00012472
0.0032584
0.00013579
0.002748
0.00014654
0.0021767
0.00014687
0.0016487
0.00015312
0.00088207
0.00068096
0.0001695
2.0054e-05
0.0049202
1.4213e-08
4.0145e-05
0.0048305
5.9672e-05
0.0046618
7.8229e-05
0.0044144
9.5459e-05
0.004092
0.00011104
0.0036999
0.00012473
0.0032447
0.00013573
0.002737
0.00014662
0.0021658
0.00014711
0.0016482
0.00015225
0.00087693
0.00066415
0.00016906
2.0054e-05
0.0049001
1.5215e-08
4.0146e-05
0.0048104
5.9674e-05
0.0046422
7.8232e-05
0.0043958
9.5463e-05
0.0040748
0.00011104
0.0036843
0.00012474
0.003231
0.00013568
0.002726
0.00014669
0.0021548
0.0001474
0.0016475
0.00015151
0.00087282
0.00064732
0.00016834
2.0054e-05
0.00488
1.6217e-08
4.0148e-05
0.0047903
5.9676e-05
0.0046227
7.8235e-05
0.0043773
9.5466e-05
0.0040575
0.00011105
0.0036688
0.00012475
0.0032173
0.00013563
0.0027151
0.00014674
0.0021437
0.00014774
0.0016465
0.0001509
0.00086966
0.00063078
0.00016744
2.0054e-05
0.0048599
1.7222e-08
4.0149e-05
0.0047702
5.9679e-05
0.0046032
7.8238e-05
0.0043587
9.5469e-05
0.0040403
0.00011105
0.0036532
0.00012476
0.0032036
0.00013558
0.0027043
0.00014677
0.0021325
0.00014812
0.0016451
0.00015042
0.00086735
0.00061477
0.00016644
2.0055e-05
0.0048399
1.8228e-08
4.015e-05
0.0047501
5.9681e-05
0.0045837
7.8242e-05
0.0043401
9.5473e-05
0.0040231
0.00011105
0.0036376
0.00012477
0.0031899
0.00013553
0.0026935
0.00014678
0.0021213
0.00014852
0.0016434
0.00015007
0.00086579
0.00059944
0.0001654
2.0055e-05
0.0048198
1.9235e-08
4.0152e-05
0.00473
5.9683e-05
0.0045641
7.8245e-05
0.0043216
9.5477e-05
0.0040059
0.00011105
0.003622
0.00012479
0.0031761
0.00013549
0.0026828
0.00014677
0.00211
0.00014893
0.0016412
0.00014985
0.00086488
0.00058492
0.00016437
2.0055e-05
0.0047997
2.0244e-08
4.0153e-05
0.0047099
5.9686e-05
0.0045446
7.8248e-05
0.004303
9.548e-05
0.0039886
0.00011105
0.0036064
0.0001248
0.0031624
0.00013545
0.0026722
0.00014675
0.0020987
0.00014935
0.0016386
0.00014973
0.0008645
0.00057126
0.00016339
2.0055e-05
0.0047796
2.1255e-08
4.0154e-05
0.0046898
5.9688e-05
0.0045251
7.8251e-05
0.0042845
9.5484e-05
0.0039714
0.00011105
0.0035909
0.00012482
0.0031486
0.00013541
0.0026616
0.00014671
0.0020874
0.00014976
0.0016356
0.00014971
0.00086455
0.00055849
0.00016248
2.0055e-05
0.0047596
2.2267e-08
4.0156e-05
0.0046697
5.9691e-05
0.0045055
7.8255e-05
0.0042659
9.5488e-05
0.0039542
0.00011106
0.0035753
0.00012483
0.0031348
0.00013538
0.0026511
0.00014665
0.0020761
0.00015016
0.0016321
0.00014978
0.00086493
0.00054661
0.00016166
2.0056e-05
0.0047395
2.3281e-08
4.0157e-05
0.0046496
5.9693e-05
0.004486
7.8258e-05
0.0042473
9.5492e-05
0.0039369
0.00011106
0.0035597
0.00012485
0.003121
0.00013535
0.0026406
0.00014658
0.0020649
0.00015054
0.0016281
0.00014993
0.00086555
0.0005356
0.00016094
2.0056e-05
0.0047194
2.4297e-08
4.0158e-05
0.0046295
5.9695e-05
0.0044665
7.8261e-05
0.0042288
9.5496e-05
0.0039197
0.00011106
0.0035442
0.00012487
0.0031072
0.00013533
0.0026301
0.0001465
0.0020537
0.0001509
0.0016237
0.00015013
0.00086632
0.00052542
0.00016031
2.0056e-05
0.0046993
2.5315e-08
4.016e-05
0.0046094
5.9698e-05
0.0044469
7.8265e-05
0.0042102
9.55e-05
0.0039025
0.00011106
0.0035286
0.00012488
0.0030934
0.00013531
0.0026197
0.00014641
0.0020426
0.00015124
0.0016189
0.00015039
0.00086717
0.00051603
0.00015978
2.0056e-05
0.0046792
2.6334e-08
4.0161e-05
0.0045893
5.97e-05
0.0044274
7.8268e-05
0.0041916
9.5504e-05
0.0038852
0.00011106
0.0035131
0.0001249
0.0030796
0.0001353
0.0026093
0.00014631
0.0020316
0.00015154
0.0016136
0.00015068
0.00086804
0.00050736
0.00015934
2.0056e-05
0.0046592
2.7356e-08
4.0163e-05
0.0045692
5.9703e-05
0.0044078
7.8271e-05
0.0041731
9.5508e-05
0.003868
0.00011106
0.0034975
0.00012492
0.0030657
0.00013529
0.0025989
0.0001462
0.0020207
0.00015182
0.001608
0.000151
0.00086886
0.00049936
0.00015899
2.0056e-05
0.0046391
2.838e-08
4.0164e-05
0.0045491
5.9705e-05
0.0043883
7.8275e-05
0.0041545
9.5512e-05
0.0038507
0.00011106
0.003482
0.00012493
0.0030519
0.0001353
0.0025885
0.00014609
0.0020099
0.00015206
0.0016021
0.00015133
0.00086958
0.00049197
0.00015872
2.0057e-05
0.004619
2.9406e-08
4.0165e-05
0.004529
5.9708e-05
0.0043688
7.8278e-05
0.0041359
9.5517e-05
0.0038335
0.00011106
0.0034664
0.00012495
0.003038
0.0001353
0.0025782
0.00014597
0.0019992
0.00015227
0.0015958
0.00015167
0.00087018
0.00048512
0.00015852
2.0057e-05
0.0045989
3.0434e-08
4.0167e-05
0.0045089
5.971e-05
0.0043492
7.8282e-05
0.0041173
9.5521e-05
0.0038163
0.00011107
0.0034509
0.00012496
0.0030241
0.00013531
0.0025678
0.00014586
0.0019887
0.00015245
0.0015892
0.00015202
0.00087061
0.00047876
0.00015838
2.0057e-05
0.0045788
3.1464e-08
4.0168e-05
0.0044887
5.9712e-05
0.0043297
7.8285e-05
0.0040988
9.5526e-05
0.003799
0.00011107
0.0034353
0.00012498
0.0030102
0.00013533
0.0025575
0.00014574
0.0019783
0.0001526
0.0015823
0.00015236
0.00087085
0.00047282
0.00015829
2.0057e-05
0.0045587
3.2497e-08
4.017e-05
0.0044686
5.9715e-05
0.0043101
7.8289e-05
0.0040802
9.5531e-05
0.0037818
0.00011107
0.0034198
0.000125
0.0029962
0.00013535
0.0025471
0.00014563
0.001968
0.00015272
0.0015752
0.00015269
0.00087088
0.00046727
0.00015825
2.0057e-05
0.0045386
3.3532e-08
4.0171e-05
0.0044485
5.9717e-05
0.0042906
7.8292e-05
0.0040616
9.5535e-05
0.0037645
0.00011107
0.0034043
0.00012501
0.0029823
0.00013538
0.0025367
0.00014552
0.0019579
0.00015282
0.0015679
0.00015301
0.00087069
0.00046204
0.00015824
2.0058e-05
0.0045185
3.457e-08
4.0172e-05
0.0044284
5.972e-05
0.004271
7.8296e-05
0.004043
9.554e-05
0.0037473
0.00011107
0.0033887
0.00012502
0.0029683
0.00013541
0.0025264
0.00014541
0.0019479
0.0001529
0.0015604
0.00015331
0.00087027
0.00045709
0.00015826
2.0058e-05
0.0044984
3.561e-08
4.0174e-05
0.0044083
5.9723e-05
0.0042515
7.8299e-05
0.0040245
9.5545e-05
0.0037301
0.00011107
0.0033732
0.00012504
0.0029544
0.00013545
0.0025159
0.00014531
0.001938
0.00015295
0.0015528
0.0001536
0.00086963
0.00045239
0.0001583
2.0058e-05
0.0044783
3.6653e-08
4.0175e-05
0.0043882
5.9725e-05
0.0042319
7.8303e-05
0.0040059
9.5551e-05
0.0037128
0.00011107
0.0033577
0.00012505
0.0029404
0.00013549
0.0025055
0.00014522
0.0019283
0.00015299
0.001545
0.00015387
0.00086875
0.00044789
0.00015836
2.0058e-05
0.0044583
3.7699e-08
4.0177e-05
0.0043681
5.9728e-05
0.0042124
7.8306e-05
0.0039873
9.5556e-05
0.0036956
0.00011107
0.0033422
0.00012506
0.0029264
0.00013553
0.002495
0.00014513
0.0019187
0.00015301
0.0015371
0.00015411
0.00086765
0.00044357
0.00015843
2.0058e-05
0.0044382
3.8747e-08
4.0178e-05
0.0043479
5.973e-05
0.0041928
7.831e-05
0.0039687
9.5561e-05
0.0036783
0.00011108
0.0033266
0.00012507
0.0029124
0.00013558
0.0024845
0.00014506
0.0019092
0.00015302
0.0015292
0.00015434
0.00086633
0.0004394
0.00015852
2.0058e-05
0.0044181
3.9799e-08
4.0179e-05
0.0043278
5.9733e-05
0.0041733
7.8314e-05
0.0039502
9.5567e-05
0.003661
0.00011108
0.0033111
0.00012508
0.0028984
0.00013562
0.002474
0.00014499
0.0018998
0.00015302
0.0015211
0.00015456
0.0008648
0.00043536
0.0001586
2.0059e-05
0.004398
4.0853e-08
4.0181e-05
0.0043077
5.9735e-05
0.0041537
7.8317e-05
0.0039316
9.5572e-05
0.0036438
0.00011108
0.0032956
0.00012509
0.0028844
0.00013567
0.0024634
0.00014493
0.0018906
0.00015302
0.0015131
0.00015475
0.00086306
0.00043141
0.00015869
2.0059e-05
0.0043779
4.191e-08
4.0182e-05
0.0042876
5.9738e-05
0.0041342
7.8321e-05
0.003913
9.5578e-05
0.0036265
0.00011108
0.0032801
0.0001251
0.0028704
0.00013572
0.0024528
0.00014488
0.0018814
0.00015301
0.0015049
0.00015493
0.00086114
0.00042756
0.00015879
2.0059e-05
0.0043578
4.2971e-08
4.0184e-05
0.0042674
5.9741e-05
0.0041146
7.8325e-05
0.0038944
9.5584e-05
0.0036093
0.00011108
0.0032646
0.0001251
0.0028564
0.00013577
0.0024421
0.00014483
0.0018723
0.00015299
0.0014968
0.0001551
0.00085903
0.00042378
0.00015888
2.0059e-05
0.0043377
4.4035e-08
4.0185e-05
0.0042473
5.9744e-05
0.004095
7.8328e-05
0.0038758
9.559e-05
0.003592
0.00011109
0.0032491
0.00012511
0.0028424
0.00013582
0.0024314
0.0001448
0.0018634
0.00015297
0.0014886
0.00015525
0.00085676
0.00042006
0.00015897
2.0059e-05
0.0043175
4.5102e-08
4.0187e-05
0.0042272
5.9746e-05
0.0040755
7.8332e-05
0.0038572
9.5596e-05
0.0035748
0.00011109
0.0032336
0.00012512
0.0028283
0.00013587
0.0024206
0.00014477
0.0018545
0.00015295
0.0014804
0.00015539
0.00085433
0.00041639
0.00015905
2.006e-05
0.0042974
4.6173e-08
4.0188e-05
0.0042071
5.9749e-05
0.0040559
7.8336e-05
0.0038386
9.5603e-05
0.0035575
0.00011109
0.0032181
0.00012512
0.0028143
0.00013592
0.0024098
0.00014475
0.0018456
0.00015294
0.0014722
0.00015551
0.00085175
0.00041276
0.00015914
2.006e-05
0.0042773
4.7247e-08
4.019e-05
0.0041869
5.9752e-05
0.0040364
7.834e-05
0.0038201
9.5609e-05
0.0035402
0.00011109
0.0032027
0.00012513
0.0028003
0.00013597
0.002399
0.00014473
0.0018369
0.00015292
0.001464
0.00015563
0.00084904
0.00040917
0.00015922
2.006e-05
0.0042572
4.8325e-08
4.0191e-05
0.0041668
5.9755e-05
0.0040168
7.8343e-05
0.0038015
9.5616e-05
0.0035229
0.0001111
0.0031872
0.00012513
0.0027862
0.00013602
0.0023881
0.00014473
0.0018282
0.00015291
0.0014558
0.00015574
0.0008462
0.00040562
0.0001593
2.006e-05
0.0042371
4.9407e-08
4.0193e-05
0.0041467
5.9757e-05
0.0039972
7.8347e-05
0.0037829
9.5623e-05
0.0035057
0.0001111
0.0031717
0.00012514
0.0027722
0.00013607
0.0023772
0.00014473
0.0018195
0.0001529
0.0014477
0.00015585
0.00084325
0.0004021
0.00015937
2.006e-05
0.004217
5.0492e-08
4.0194e-05
0.0041265
5.976e-05
0.0039777
7.8351e-05
0.0037643
9.563e-05
0.0034884
0.0001111
0.0031562
0.00012514
0.0027582
0.00013612
0.0023662
0.00014473
0.0018109
0.00015289
0.0014395
0.00015595
0.00084019
0.0003986
0.00015944
2.0061e-05
0.0041969
5.1581e-08
4.0196e-05
0.0041064
5.9763e-05
0.0039581
7.8355e-05
0.0037457
9.5637e-05
0.0034711
0.00011111
0.0031407
0.00012514
0.0027441
0.00013616
0.0023552
0.00014474
0.0018023
0.00015288
0.0014314
0.00015604
0.00083704
0.00039512
0.00015951
2.0061e-05
0.0041768
5.2674e-08
4.0197e-05
0.0040863
5.9766e-05
0.0039385
7.8358e-05
0.0037271
9.5644e-05
0.0034538
0.00011111
0.0031253
0.00012515
0.0027301
0.00013621
0.0023441
0.00014476
0.0017938
0.00015288
0.0014233
0.00015613
0.00083379
0.00039167
0.00015958
2.0061e-05
0.0041567
5.3772e-08
4.0199e-05
0.0040661
5.9769e-05
0.003919
7.8362e-05
0.0037085
9.5651e-05
0.0034365
0.00011112
0.0031098
0.00012515
0.0027161
0.00013625
0.002333
0.00014478
0.0017852
0.00015289
0.0014151
0.00015621
0.00083047
0.00038825
0.00015964
2.0061e-05
0.0041365
5.4873e-08
4.02e-05
0.004046
5.9772e-05
0.0038994
7.8366e-05
0.0036899
9.5659e-05
0.0034192
0.00011112
0.0030943
0.00012515
0.002702
0.0001363
0.0023219
0.0001448
0.0017767
0.00015289
0.001407
0.00015629
0.00082707
0.00038484
0.0001597
2.0062e-05
0.0041164
5.5979e-08
4.0202e-05
0.0040258
5.9775e-05
0.0038798
7.837e-05
0.0036713
9.5667e-05
0.0034019
0.00011113
0.0030789
0.00012516
0.002688
0.00013634
0.0023107
0.00014482
0.0017683
0.0001529
0.001399
0.00015637
0.0008236
0.00038146
0.00015975
2.0062e-05
0.0040963
5.709e-08
4.0203e-05
0.0040057
5.9778e-05
0.0038602
7.8374e-05
0.0036527
9.5675e-05
0.0033846
0.00011113
0.0030634
0.00012516
0.002674
0.00013638
0.0022995
0.00014485
0.0017598
0.00015291
0.0013909
0.00015645
0.00082007
0.0003781
0.00015981
2.0062e-05
0.0040762
5.8205e-08
4.0205e-05
0.0039856
5.9781e-05
0.0038407
7.8378e-05
0.0036341
9.5683e-05
0.0033673
0.00011114
0.003048
0.00012516
0.0026599
0.00013642
0.0022882
0.00014488
0.0017513
0.00015293
0.0013829
0.00015652
0.00081647
0.00037476
0.00015986
2.0062e-05
0.0040561
5.9324e-08
4.0206e-05
0.0039654
5.9784e-05
0.0038211
7.8381e-05
0.0036155
9.5691e-05
0.00335
0.00011114
0.0030325
0.00012516
0.0026459
0.00013646
0.0022769
0.00014492
0.0017429
0.00015295
0.0013748
0.00015659
0.00081283
0.00037144
0.00015991
2.0063e-05
0.0040359
6.0449e-08
4.0208e-05
0.0039453
5.9788e-05
0.0038015
7.8385e-05
0.0035969
9.5699e-05
0.0033327
0.00011115
0.0030171
0.00012516
0.0026319
0.0001365
0.0022656
0.00014495
0.0017344
0.00015297
0.0013668
0.00015667
0.00080913
0.00036814
0.00015996
2.0063e-05
0.0040158
6.1578e-08
4.021e-05
0.0039251
5.9791e-05
0.0037819
7.8389e-05
0.0035783
9.5708e-05
0.0033154
0.00011116
0.0030016
0.00012517
0.0026179
0.00013654
0.0022542
0.00014499
0.001726
0.00015299
0.0013588
0.00015674
0.00080538
0.00036487
0.00016001
2.0063e-05
0.0039957
6.2712e-08
4.0211e-05
0.003905
5.9794e-05
0.0037623
7.8393e-05
0.0035597
9.5717e-05
0.0032981
0.00011116
0.0029862
0.00012517
0.0026039
0.00013658
0.0022428
0.00014503
0.0017175
0.00015302
0.0013508
0.0001568
0.00080159
0.00036162
0.00016005
2.0063e-05
0.0039756
6.3851e-08
4.0213e-05
0.0038848
5.9798e-05
0.0037428
7.8397e-05
0.0035411
9.5725e-05
0.0032807
0.00011117
0.0029707
0.00012517
0.0025899
0.00013662
0.0022313
0.00014507
0.0017091
0.00015304
0.0013428
0.00015687
0.00079776
0.00035839
0.0001601
2.0064e-05
0.0039554
6.4996e-08
4.0214e-05
0.0038647
5.9801e-05
0.0037232
7.8401e-05
0.0035225
9.5734e-05
0.0032634
0.00011118
0.0029553
0.00012517
0.0025759
0.00013665
0.0022198
0.00014511
0.0017006
0.00015307
0.0013349
0.00015694
0.0007939
0.00035519
0.00016014
2.0064e-05
0.0039353
6.6146e-08
4.0216e-05
0.0038445
5.9805e-05
0.0037036
7.8405e-05
0.0035039
9.5743e-05
0.0032461
0.00011119
0.0029398
0.00012518
0.0025619
0.00013669
0.0022083
0.00014515
0.0016922
0.0001531
0.0013269
0.000157
0.00078999
0.000352
0.00016019
2.0064e-05
0.0039152
6.7301e-08
4.0218e-05
0.0038244
5.9808e-05
0.003684
7.8408e-05
0.0034853
9.5752e-05
0.0032287
0.0001112
0.0029244
0.00012518
0.0025479
0.00013673
0.0021968
0.00014519
0.0016837
0.00015313
0.001319
0.00015707
0.00078605
0.00034884
0.00016023
2.0065e-05
0.003895
6.8462e-08
4.0219e-05
0.0038042
5.9812e-05
0.0036644
7.8412e-05
0.0034667
9.5761e-05
0.0032114
0.00011121
0.002909
0.00012518
0.002534
0.00013676
0.0021852
0.00014523
0.0016752
0.00015316
0.0013111
0.00015713
0.00078208
0.00034571
0.00016027
2.0065e-05
0.0038749
6.9629e-08
4.0221e-05
0.0037841
5.9815e-05
0.0036448
7.8416e-05
0.0034481
9.577e-05
0.003194
0.00011122
0.0028935
0.00012519
0.00252
0.00013679
0.0021736
0.00014527
0.0016668
0.00015319
0.0013031
0.00015719
0.00077808
0.00034259
0.00016031
2.0065e-05
0.0038548
7.0802e-08
4.0223e-05
0.0037639
5.9819e-05
0.0036252
7.842e-05
0.0034295
9.578e-05
0.0031767
0.00011123
0.0028781
0.00012519
0.002506
0.00013683
0.002162
0.00014532
0.0016583
0.00015322
0.0012952
0.00015725
0.00077405
0.0003395
0.00016034
2.0066e-05
0.0038346
7.198e-08
4.0224e-05
0.0037437
5.9823e-05
0.0036056
7.8424e-05
0.0034109
9.5789e-05
0.0031593
0.00011124
0.0028626
0.00012519
0.0024921
0.00013686
0.0021503
0.00014536
0.0016498
0.00015325
0.0012874
0.00015731
0.00076999
0.00033643
0.00016038
2.0066e-05
0.0038145
7.3165e-08
4.0226e-05
0.0037236
5.9827e-05
0.003586
7.8428e-05
0.0033923
9.5798e-05
0.0031419
0.00011125
0.0028472
0.0001252
0.0024781
0.00013689
0.0021386
0.0001454
0.0016413
0.00015329
0.0012795
0.00015737
0.00076591
0.00033338
0.00016042
2.0066e-05
0.0037944
7.4356e-08
4.0228e-05
0.0037034
5.983e-05
0.0035664
7.8432e-05
0.0033737
9.5808e-05
0.0031246
0.00011126
0.0028317
0.0001252
0.0024642
0.00013693
0.0021269
0.00014545
0.0016328
0.00015332
0.0012716
0.00015743
0.0007618
0.00033035
0.00016045
2.0067e-05
0.0037742
7.5554e-08
4.023e-05
0.0036833
5.9834e-05
0.0035468
7.8437e-05
0.0033551
9.5817e-05
0.0031072
0.00011128
0.0028162
0.00012521
0.0024502
0.00013696
0.0021151
0.00014549
0.0016242
0.00015335
0.0012637
0.00015749
0.00075766
0.00032735
0.00016049
2.0067e-05
0.0037541
7.6758e-08
4.0231e-05
0.0036631
5.9838e-05
0.0035272
7.8441e-05
0.0033365
9.5826e-05
0.0030898
0.00011129
0.0028008
0.00012522
0.0024363
0.00013699
0.0021034
0.00014553
0.0016157
0.00015338
0.0012559
0.00015754
0.0007535
0.00032437
0.00016052
2.0067e-05
0.0037339
7.7968e-08
4.0233e-05
0.0036429
5.9843e-05
0.0035076
7.8445e-05
0.0033179
9.5836e-05
0.0030724
0.0001113
0.0027853
0.00012522
0.0024224
0.00013702
0.0020916
0.00014558
0.0016071
0.00015342
0.0012481
0.0001576
0.00074932
0.0003214
0.00016056
2.0068e-05
0.0037138
7.9186e-08
4.0235e-05
0.0036228
5.9847e-05
0.003488
7.845e-05
0.0032993
9.5845e-05
0.003055
0.00011132
0.0027698
0.00012523
0.0024085
0.00013705
0.0020797
0.00014562
0.0015986
0.00015345
0.0012402
0.00015765
0.00074512
0.00031846
0.00016059
2.0068e-05
0.0036936
8.041e-08
4.0237e-05
0.0036026
5.9851e-05
0.0034684
7.8454e-05
0.0032807
9.5854e-05
0.0030376
0.00011133
0.0027544
0.00012524
0.0023946
0.00013709
0.0020679
0.00014566
0.00159
0.00015348
0.0012324
0.0001577
0.0007409
0.00031554
0.00016063
2.0068e-05
0.0036735
8.1642e-08
4.0238e-05
0.0035824
5.9855e-05
0.0034487
7.8459e-05
0.0032621
9.5863e-05
0.0030202
0.00011135
0.0027389
0.00012525
0.0023807
0.00013712
0.002056
0.00014571
0.0015814
0.00015351
0.0012246
0.00015776
0.00073666
0.00031263
0.00016066
2.0069e-05
0.0036533
8.2881e-08
4.024e-05
0.0035623
5.986e-05
0.0034291
7.8464e-05
0.0032435
9.5873e-05
0.0030028
0.00011136
0.0027234
0.00012526
0.0023668
0.00013715
0.0020441
0.00014575
0.0015728
0.00015355
0.0012168
0.00015781
0.00073239
0.00030975
0.00016069
2.0069e-05
0.0036332
8.4127e-08
4.0242e-05
0.0035421
5.9864e-05
0.0034095
7.8468e-05
0.0032249
9.5882e-05
0.0029854
0.00011138
0.0027079
0.00012527
0.0023529
0.00013718
0.0020322
0.00014579
0.0015642
0.00015358
0.001209
0.00015786
0.00072811
0.00030689
0.00016072
2.007e-05
0.003613
8.5381e-08
4.0244e-05
0.0035219
5.9868e-05
0.0033899
7.8474e-05
0.0032063
9.5891e-05
0.002968
0.0001114
0.0026924
0.00012528
0.002339
0.00013721
0.0020203
0.00014584
0.0015555
0.00015361
0.0012012
0.00015791
0.00072382
0.00030404
0.00016075
2.007e-05
0.0035929
8.6643e-08
4.0246e-05
0.0035017
5.9873e-05
0.0033703
7.8479e-05
0.0031877
9.5901e-05
0.0029505
0.00011141
0.0026769
0.00012529
0.0023251
0.00013724
0.0020083
0.00014588
0.0015469
0.00015364
0.0011935
0.00015796
0.0007195
0.00030122
0.00016078
2.0071e-05
0.0035727
8.7913e-08
4.0248e-05
0.0034816
5.9878e-05
0.0033506
7.8484e-05
0.0031691
9.591e-05
0.0029331
0.00011143
0.0026613
0.0001253
0.0023113
0.00013727
0.0019964
0.00014592
0.0015383
0.00015367
0.0011857
0.000158
0.00071517
0.00029841
0.00016081
2.0071e-05
0.0035525
8.919e-08
4.025e-05
0.0034614
5.9882e-05
0.003331
7.849e-05
0.0031505
9.5919e-05
0.0029157
0.00011145
0.0026458
0.00012532
0.0022974
0.0001373
0.0019844
0.00014596
0.0015296
0.00015371
0.001178
0.00015805
0.00071083
0.00029562
0.00016084
2.0072e-05
0.0035324
9.0476e-08
4.0252e-05
0.0034412
5.9887e-05
0.0033114
7.8495e-05
0.0031319
9.5929e-05
0.0028982
0.00011147
0.0026303
0.00012533
0.0022835
0.00013733
0.0019724
0.000146
0.0015209
0.00015374
0.0011703
0.0001581
0.00070646
0.00029284
0.00016087
2.0072e-05
0.0035122
9.1771e-08
4.0254e-05
0.003421
5.9892e-05
0.0032917
7.8501e-05
0.0031133
9.5938e-05
0.0028808
0.00011149
0.0026147
0.00012535
0.0022697
0.00013736
0.0019604
0.00014605
0.0015122
0.00015377
0.0011625
0.00015814
0.00070209
0.00029008
0.0001609
2.0073e-05
0.0034921
9.3073e-08
4.0256e-05
0.0034008
5.9897e-05
0.0032721
7.8507e-05
0.0030947
9.5947e-05
0.0028634
0.00011151
0.0025992
0.00012536
0.0022558
0.00013738
0.0019484
0.00014609
0.0015035
0.0001538
0.0011548
0.00015819
0.0006977
0.00028734
0.00016093
2.0073e-05
0.0034719
9.4385e-08
4.0258e-05
0.0033806
5.9902e-05
0.0032524
7.8514e-05
0.003076
9.5957e-05
0.0028459
0.00011153
0.0025836
0.00012538
0.002242
0.00013741
0.0019363
0.00014613
0.0014948
0.00015383
0.0011471
0.00015823
0.0006933
0.00028462
0.00016096
2.0074e-05
0.0034517
9.5705e-08
4.026e-05
0.0033605
5.9907e-05
0.0032328
7.852e-05
0.0030574
9.5967e-05
0.0028285
0.00011155
0.002568
0.00012539
0.0022281
0.00013744
0.0019243
0.00014617
0.0014861
0.00015386
0.0011394
0.00015828
0.00068888
0.00028191
0.00016099
2.0074e-05
0.0034315
9.7034e-08
4.0262e-05
0.0033403
5.9912e-05
0.0032131
7.8527e-05
0.0030388
9.5977e-05
0.002811
0.00011157
0.0025524
0.00012541
0.0022143
0.00013747
0.0019122
0.00014621
0.0014773
0.00015389
0.0011317
0.00015832
0.00068445
0.00027922
0.00016102
2.0075e-05
0.0034114
9.8372e-08
4.0264e-05
0.0033201
5.9917e-05
0.0031935
7.8534e-05
0.0030202
9.5987e-05
0.0027936
0.00011159
0.0025368
0.00012542
0.0022005
0.0001375
0.0019001
0.00014625
0.0014686
0.00015393
0.0011241
0.00015837
0.00068001
0.00027654
0.00016104
2.0075e-05
0.0033912
9.9719e-08
4.0267e-05
0.0032999
5.9922e-05
0.0031738
7.8541e-05
0.0030016
9.5997e-05
0.0027761
0.00011161
0.0025212
0.00012544
0.0021866
0.00013752
0.0018881
0.00014629
0.0014598
0.00015396
0.0011164
0.00015841
0.00067556
0.00027388
0.00016107
2.0076e-05
0.003371
1.0108e-07
4.0269e-05
0.0032797
5.9928e-05
0.0031542
7.8549e-05
0.002983
9.6007e-05
0.0027587
0.00011163
0.0025056
0.00012546
0.0021728
0.00013755
0.001876
0.00014633
0.001451
0.00015399
0.0011087
0.00015845
0.00067109
0.00027123
0.0001611
2.0077e-05
0.0033508
1.0244e-07
4.0271e-05
0.0032595
5.9933e-05
0.0031345
7.8557e-05
0.0029643
9.6017e-05
0.0027412
0.00011165
0.0024899
0.00012548
0.002159
0.00013758
0.0018639
0.00014637
0.0014422
0.00015402
0.0011011
0.00015849
0.00066662
0.0002686
0.00016113
2.0077e-05
0.0033307
1.0382e-07
4.0274e-05
0.0032393
5.9938e-05
0.0031148
7.8565e-05
0.0029457
9.6028e-05
0.0027237
0.00011168
0.0024743
0.00012549
0.0021452
0.00013761
0.0018518
0.00014641
0.0014334
0.00015405
0.0010935
0.00015853
0.00066214
0.00026598
0.00016115
2.0078e-05
0.0033105
1.052e-07
4.0276e-05
0.0032191
5.9944e-05
0.0030952
7.8573e-05
0.0029271
9.6039e-05
0.0027063
0.0001117
0.0024586
0.00012551
0.0021314
0.00013763
0.0018396
0.00014645
0.0014246
0.00015408
0.0010858
0.00015858
0.00065764
0.00026338
0.00016118
2.0079e-05
0.0032903
1.0659e-07
4.0279e-05
0.0031989
5.995e-05
0.0030755
7.8582e-05
0.0029084
9.605e-05
0.0026888
0.00011172
0.002443
0.00012553
0.0021175
0.00013766
0.0018275
0.00014649
0.0014158
0.00015411
0.0010782
0.00015862
0.00065314
0.00026079
0.00016121
2.008e-05
0.0032701
1.08e-07
4.0282e-05
0.0031787
5.9956e-05
0.0030558
7.859e-05
0.0028898
9.6061e-05
0.0026713
0.00011174
0.0024273
0.00012555
0.0021037
0.00013768
0.0018154
0.00014653
0.0014069
0.00015415
0.0010706
0.00015866
0.00064863
0.00025821
0.00016123
2.008e-05
0.0032499
1.0941e-07
4.0284e-05
0.0031585
5.9961e-05
0.0030362
7.8599e-05
0.0028712
9.6072e-05
0.0026539
0.00011176
0.0024116
0.00012557
0.0020899
0.00013771
0.0018032
0.00014657
0.0013981
0.00015418
0.001063
0.0001587
0.00064411
0.00025565
0.00016126
2.0081e-05
0.0032297
1.1083e-07
4.0287e-05
0.0031383
5.9967e-05
0.0030165
7.8609e-05
0.0028525
9.6084e-05
0.0026364
0.00011179
0.0023959
0.00012559
0.0020761
0.00013774
0.0017911
0.00014661
0.0013892
0.00015421
0.0010554
0.00015874
0.00063959
0.0002531
0.00016129
2.0082e-05
0.0032095
1.1227e-07
4.029e-05
0.0031181
5.9973e-05
0.0029968
7.8618e-05
0.0028339
9.6095e-05
0.0026189
0.00011181
0.0023802
0.00012561
0.0020623
0.00013776
0.0017789
0.00014665
0.0013803
0.00015424
0.0010478
0.00015877
0.00063505
0.00025056
0.00016131
2.0083e-05
0.0031893
1.1371e-07
4.0293e-05
0.0030979
5.998e-05
0.0029771
7.8628e-05
0.0028152
9.6107e-05
0.0026014
0.00011183
0.0023644
0.00012563
0.0020485
0.00013779
0.0017668
0.00014669
0.0013714
0.00015427
0.0010402
0.00015881
0.00063051
0.00024803
0.00016134
2.0084e-05
0.0031691
1.1516e-07
4.0296e-05
0.0030777
5.9986e-05
0.0029574
7.8638e-05
0.0027966
9.6119e-05
0.002584
0.00011185
0.0023487
0.00012565
0.0020347
0.00013781
0.0017546
0.00014673
0.0013625
0.0001543
0.0010327
0.00015885
0.00062596
0.00024552
0.00016137
2.0085e-05
0.0031489
1.1662e-07
4.0299e-05
0.0030574
5.9992e-05
0.0029377
7.8649e-05
0.0027779
9.6132e-05
0.0025665
0.00011187
0.002333
0.00012567
0.0020209
0.00013784
0.0017424
0.00014677
0.0013535
0.00015434
0.0010251
0.00015889
0.0006214
0.00024302
0.00016139
2.0086e-05
0.0031287
1.1809e-07
4.0303e-05
0.0030372
5.9999e-05
0.002918
7.8659e-05
0.0027593
9.6144e-05
0.002549
0.0001119
0.0023172
0.00012569
0.0020071
0.00013786
0.0017303
0.00014681
0.0013446
0.00015437
0.0010175
0.00015893
0.00061684
0.00024053
0.00016142
2.0086e-05
0.0031085
1.1956e-07
4.0306e-05
0.003017
6.0005e-05
0.0028983
7.867e-05
0.0027406
9.6156e-05
0.0025315
0.00011192
0.0023015
0.00012571
0.0019934
0.00013789
0.0017181
0.00014685
0.0013356
0.0001544
0.00101
0.00015897
0.00061228
0.00023805
0.00016145
2.0087e-05
0.0030883
1.2105e-07
4.0309e-05
0.0029968
6.0012e-05
0.0028786
7.8681e-05
0.0027219
9.6169e-05
0.002514
0.00011194
0.0022857
0.00012573
0.0019796
0.00013791
0.0017059
0.00014689
0.0013267
0.00015443
0.0010024
0.00015901
0.0006077
0.00023558
0.00016147
2.0089e-05
0.0030681
1.2255e-07
4.0313e-05
0.0029766
6.0019e-05
0.0028589
7.8692e-05
0.0027033
9.6182e-05
0.0024965
0.00011196
0.0022699
0.00012575
0.0019658
0.00013793
0.0016937
0.00014693
0.0013177
0.00015447
0.00099489
0.00015904
0.00060312
0.00023313
0.0001615
2.009e-05
0.0030479
1.2405e-07
4.0317e-05
0.0029563
6.0026e-05
0.0028392
7.8703e-05
0.0026846
9.6195e-05
0.002479
0.00011199
0.0022541
0.00012577
0.001952
0.00013796
0.0016815
0.00014696
0.0013087
0.0001545
0.00098735
0.00015908
0.00059854
0.00023068
0.00016153
2.0091e-05
0.0030277
1.2556e-07
4.032e-05
0.0029361
6.0033e-05
0.0028195
7.8715e-05
0.0026659
9.6208e-05
0.0024615
0.00011201
0.0022383
0.00012579
0.0019382
0.00013798
0.0016693
0.000147
0.0012996
0.00015453
0.00097982
0.00015912
0.00059395
0.00022825
0.00016155
2.0092e-05
0.0030075
1.2708e-07
4.0324e-05
0.0029159
6.004e-05
0.0027998
7.8726e-05
0.0026472
9.6221e-05
0.002444
0.00011203
0.0022225
0.00012581
0.0019245
0.00013801
0.0016571
0.00014704
0.0012906
0.00015456
0.0009723
0.00015916
0.00058936
0.00022583
0.00016158
2.0093e-05
0.0029872
1.2861e-07
4.0328e-05
0.0028956
6.0047e-05
0.0027801
7.8738e-05
0.0026285
9.6234e-05
0.0024265
0.00011205
0.0022067
0.00012583
0.0019107
0.00013803
0.0016449
0.00014708
0.0012816
0.0001546
0.00096479
0.00015919
0.00058476
0.00022341
0.00016161
2.0094e-05
0.002967
1.3014e-07
4.0332e-05
0.0028754
6.0054e-05
0.0027603
7.875e-05
0.0026098
9.6248e-05
0.002409
0.00011207
0.0021909
0.00012585
0.0018969
0.00013805
0.0016327