/*--------------------------------*- C++ -*----------------------------------*\
  =========                 |
  \\      /  F ield         | OpenFOAM: The Open Source CFD Toolbox
   \\    /   O peration     | Website:  https://openfoam.org
    \\  /    A nd           | Version:  6.0
     \\/     M anipulation  |
\*---------------------------------------------------------------------------*/
FoamFile
{
    version     2.0;
    format      ascii;
    class       volScalarField;
    location    "2";
    object      p;
}
// * * * * * * * * * * * * * * * * * * * * * * * * * * * * * * * * * * * * * //

dimensions      [0 2 -2 0 0 0 0];

internalField   nonuniform List<scalar> 
62000
(
0.12294
0.123772
0.124635
0.125526
0.12645
0.127406
0.128397
0.129422
0.130486
0.131587
0.13273
0.133914
0.135143
0.136417
0.13774
0.139113
0.14054
0.14202
0.143559
0.145156
0.146814
0.148532
0.150312
0.15215
0.154046
0.155992
0.157984
0.160008
0.162052
0.164095
0.166113
0.168073
0.169949
0.171716
0.173322
0.174693
0.175738
0.176346
0.176389
0.175718
0.174173
0.171582
0.16778
0.162621
0.156003
0.147895
0.138361
0.127591
0.115881
0.103649
0.0913513
0.0794538
0.0684655
0.0585344
0.049869
0.0423632
0.0359924
0.0306152
0.0261362
0.0231944
0.124219
0.125099
0.126
0.126921
0.127867
0.128837
0.129836
0.130863
0.131922
0.133014
0.134141
0.135305
0.13651
0.137755
0.139045
0.14038
0.141764
0.143199
0.144687
0.146229
0.147828
0.149483
0.151196
0.152965
0.154788
0.15666
0.158577
0.160528
0.162503
0.164485
0.166452
0.168377
0.170241
0.172025
0.173688
0.175165
0.176377
0.177226
0.177598
0.177359
0.17636
0.174444
0.17145
0.167234
0.161682
0.154742
0.146441
0.136921
0.126422
0.115304
0.103973
0.0928634
0.0824934
0.0730146
0.064666
0.0573537
0.0510819
0.0457185
0.0411924
0.0381989
0.125416
0.126337
0.127274
0.128226
0.129197
0.130186
0.131199
0.132234
0.133296
0.134384
0.135504
0.136655
0.137843
0.139066
0.140331
0.141637
0.142989
0.144388
0.145838
0.147338
0.148894
0.150503
0.152168
0.153887
0.155659
0.157481
0.159347
0.161251
0.163182
0.165126
0.167064
0.168973
0.170837
0.172644
0.174359
0.175925
0.177271
0.178309
0.178934
0.179024
0.178443
0.177041
0.174667
0.171178
0.166457
0.160439
0.153127
0.144627
0.135136
0.124968
0.114483
0.104085
0.0942889
0.0852397
0.0772032
0.0700987
0.0639555
0.0586579
0.054167
0.0511541
0.126817
0.127753
0.128702
0.129666
0.130647
0.131644
0.132662
0.1337
0.134762
0.135848
0.136961
0.138103
0.139277
0.140484
0.141729
0.143011
0.144337
0.145707
0.147124
0.148591
0.15011
0.151681
0.153307
0.154986
0.156718
0.1585
0.160329
0.162198
0.164097
0.166016
0.167937
0.169839
0.17171
0.173545
0.175313
0.176962
0.178427
0.179629
0.180472
0.180842
0.180613
0.179644
0.177792
0.174918
0.170904
0.165675
0.159218
0.151611
0.143016
0.133705
0.123999
0.114274
0.105032
0.0964224
0.088713
0.0818466
0.0758723
0.0706976
0.0663226
0.0633479
0.128285
0.129227
0.130184
0.131154
0.132142
0.133145
0.134168
0.135209
0.136274
0.13736
0.138473
0.139611
0.14078
0.141978
0.143212
0.144481
0.14579
0.14714
0.148536
0.149978
0.151471
0.153013
0.15461
0.156258
0.15796
0.159713
0.161514
0.163357
0.165236
0.167139
0.169051
0.170955
0.17284
0.174707
0.176529
0.178257
0.179833
0.181184
0.18222
0.182838
0.182918
0.182329
0.180933
0.178597
0.175203
0.170672
0.164976
0.158174
0.150394
0.141878
0.132909
0.123834
0.115146
0.106982
0.0996205
0.0930217
0.0872574
0.0822584
0.0780611
0.075183
0.129842
0.130789
0.131749
0.132723
0.133714
0.13472
0.135745
0.13679
0.137856
0.138944
0.140056
0.141194
0.142359
0.143554
0.144782
0.146043
0.147343
0.148681
0.150063
0.151489
0.152964
0.154488
0.156065
0.157693
0.159374
0.161106
0.162889
0.164716
0.166582
0.168478
0.170391
0.172303
0.174208
0.176112
0.177988
0.179795
0.181478
0.182968
0.184184
0.185027
0.185387
0.185139
0.184154
0.182301
0.179467
0.175568
0.170566
0.164502
0.15748
0.149711
0.141444
0.133003
0.124863
0.117161
0.110166
0.103864
0.0983437
0.0935611
0.0895854
0.086834
0.131433
0.132385
0.13335
0.134329
0.135324
0.136335
0.137365
0.138413
0.139483
0.140575
0.14169
0.14283
0.143998
0.145194
0.146422
0.147683
0.14898
0.150315
0.151692
0.153112
0.154579
0.156093
0.157659
0.159276
0.160946
0.162668
0.164441
0.166261
0.168123
0.17002
0.17194
0.173867
0.1758
0.177743
0.179679
0.181564
0.183351
0.184976
0.186362
0.187417
0.188038
0.188107
0.187501
0.186095
0.183777
0.180462
0.176105
0.170731
0.164424
0.157367
0.149781
0.141966
0.13438
0.127148
0.120542
0.11456
0.109312
0.104778
0.101049
0.0984461
0.133111
0.134066
0.135034
0.136016
0.137014
0.138029
0.139062
0.140114
0.141188
0.142283
0.143402
0.144546
0.145718
0.146917
0.148148
0.149411
0.15071
0.152046
0.153423
0.154843
0.156309
0.157822
0.159385
0.160999
0.162667
0.164386
0.166158
0.16798
0.169847
0.171753
0.173687
0.175637
0.177601
0.179591
0.181588
0.183555
0.185446
0.187202
0.188753
0.190011
0.190879
0.191247
0.190997
0.190011
0.188178
0.185412
0.181663
0.176943
0.171317
0.164945
0.15802
0.150822
0.143786
0.137037
0.130833
0.125192
0.120239
0.115975
0.112508
0.110055
0.134812
0.135772
0.136747
0.137735
0.138741
0.139762
0.140803
0.141863
0.142944
0.144047
0.145174
0.146325
0.147505
0.148712
0.14995
0.151221
0.152527
0.15387
0.155254
0.156679
0.158151
0.159668
0.161237
0.162856
0.164528
0.166254
0.168033
0.169863
0.171742
0.173665
0.175621
0.1776
0.179603
0.181642
0.183705
0.185756
0.187753
0.189641
0.191353
0.19281
0.193918
0.194574
0.194665
0.194078
0.192706
0.190464
0.187293
0.183199
0.178228
0.17252
0.166243
0.159657
0.153178
0.146919
0.141134
0.135851
0.131212
0.127233
0.124034
0.121734
0.13663
0.137595
0.138575
0.139568
0.140578
0.141604
0.14265
0.143715
0.144802
0.145911
0.147045
0.148204
0.14939
0.150605
0.151851
0.15313
0.154445
0.155796
0.157189
0.158624
0.160105
0.161633
0.163212
0.164842
0.166526
0.168264
0.170057
0.171904
0.173803
0.175749
0.177734
0.179748
0.181794
0.18389
0.186023
0.188161
0.190266
0.192287
0.19416
0.195811
0.197153
0.198088
0.198509
0.198307
0.197379
0.195639
0.193026
0.189534
0.185197
0.180136
0.174494
0.168513
0.162586
0.156826
0.151468
0.146558
0.142244
0.13856
0.135629
0.133476
0.138494
0.139467
0.140454
0.141455
0.142473
0.143507
0.144561
0.145634
0.14673
0.147847
0.14899
0.150158
0.151355
0.15258
0.153838
0.155128
0.156456
0.157821
0.159227
0.160676
0.162171
0.163714
0.165309
0.166955
0.168656
0.170413
0.172227
0.174097
0.176022
0.177997
0.180018
0.182073
0.18417
0.186326
0.188534
0.190763
0.192979
0.195134
0.197169
0.199014
0.200588
0.201797
0.20254
0.202713
0.202215
0.20096
0.198886
0.195978
0.192258
0.187828
0.182812
0.177432
0.172064
0.166807
0.161889
0.157362
0.153386
0.150003
0.147339
0.14533
0.140463
0.141442
0.142436
0.143444
0.144469
0.14551
0.146572
0.147653
0.148758
0.149885
0.151037
0.152216
0.153423
0.15466
0.15593
0.157233
0.158574
0.159953
0.161374
0.162839
0.164352
0.165913
0.167527
0.169195
0.170918
0.172699
0.174539
0.176438
0.178394
0.180406
0.182467
0.18457
0.186722
0.188944
0.191232
0.193557
0.195886
0.198178
0.200376
0.202415
0.204218
0.205698
0.206756
0.207295
0.207216
0.206435
0.204885
0.202547
0.199428
0.195617
0.191216
0.186432
0.181616
0.176868
0.172394
0.16826
0.164627
0.16155
0.159147
0.157274
0.142455
0.143445
0.14445
0.14547
0.146507
0.147562
0.148637
0.149732
0.15085
0.151991
0.153157
0.15435
0.155573
0.156826
0.158112
0.159432
0.16079
0.162188
0.163628
0.165114
0.166647
0.168231
0.169868
0.17156
0.173311
0.17512
0.176991
0.178924
0.180917
0.18297
0.185078
0.187233
0.189447
0.191739
0.194111
0.196535
0.198983
0.201415
0.203778
0.206012
0.208045
0.209793
0.211163
0.212062
0.212395
0.212076
0.211038
0.209255
0.206725
0.20352
0.199728
0.195536
0.191277
0.18704
0.183021
0.179286
0.176006
0.173236
0.17109
0.16935
0.144586
0.145586
0.146601
0.14763
0.148678
0.149742
0.150827
0.151933
0.153063
0.154216
0.155396
0.156602
0.157839
0.159107
0.160408
0.161744
0.16312
0.164536
0.165996
0.167503
0.16906
0.170668
0.172332
0.174052
0.175832
0.177675
0.179581
0.181552
0.183587
0.185686
0.187846
0.190059
0.192337
0.194707
0.197167
0.199696
0.202265
0.20484
0.207371
0.209801
0.212063
0.214078
0.215758
0.217012
0.217748
0.217883
0.217348
0.216109
0.214157
0.211549
0.208357
0.204751
0.201042
0.197318
0.193755
0.190426
0.1875
0.185039
0.183144
0.181531
0.146768
0.147781
0.148809
0.149852
0.150913
0.151991
0.15309
0.15421
0.155354
0.156522
0.157717
0.158939
0.160193
0.161478
0.162798
0.164155
0.165552
0.16699
0.168474
0.170005
0.171588
0.173223
0.174917
0.176669
0.178483
0.180362
0.182307
0.18432
0.186402
0.188553
0.190768
0.193044
0.195394
0.197843
0.200397
0.203033
0.205728
0.20845
0.211152
0.213781
0.216274
0.218556
0.220543
0.222148
0.223283
0.223865
0.223823
0.223118
0.221733
0.219713
0.217114
0.21409
0.210935
0.207726
0.204628
0.201709
0.199143
0.196991
0.195342
0.193854
0.149069
0.150095
0.151134
0.152189
0.153262
0.154353
0.155465
0.156599
0.157757
0.15894
0.160151
0.16139
0.162661
0.163964
0.165303
0.16668
0.168098
0.169559
0.171066
0.172623
0.174234
0.175899
0.177625
0.179411
0.181262
0.18318
0.185168
0.187228
0.189361
0.191566
0.193843
0.196186
0.198609
0.201145
0.203796
0.206545
0.20937
0.212242
0.215117
0.217947
0.220672
0.223221
0.225514
0.227468
0.228997
0.23002
0.230463
0.230284
0.229459
0.228018
0.226005
0.223559
0.22095
0.218255
0.21562
0.213115
0.21091
0.209066
0.207658
0.206289
0.15139
0.152432
0.153489
0.154562
0.155653
0.156763
0.157895
0.159048
0.160226
0.161429
0.16266
0.16392
0.165213
0.166539
0.167901
0.169302
0.170746
0.172233
0.173768
0.175355
0.176996
0.178694
0.180454
0.182277
0.184168
0.186129
0.188164
0.190274
0.19246
0.194725
0.197067
0.199481
0.201985
0.204608
0.207361
0.210227
0.213186
0.216212
0.219265
0.222298
0.225258
0.228075
0.230674
0.232975
0.234895
0.236353
0.237275
0.237615
0.23734
0.23647
0.235036
0.233164
0.231105
0.228927
0.226761
0.224673
0.222831
0.221294
0.220124
0.218874
0.153862
0.154919
0.15599
0.157078
0.158184
0.159309
0.160456
0.161626
0.162821
0.164042
0.165292
0.166572
0.167885
0.169232
0.170616
0.17204
0.173509
0.175022
0.176586
0.178202
0.179876
0.181608
0.183405
0.185268
0.187201
0.189208
0.191292
0.193456
0.1957
0.198028
0.200438
0.202928
0.205514
0.208232
0.211091
0.214078
0.217175
0.220359
0.223592
0.226832
0.230027
0.233113
0.236018
0.238665
0.240973
0.242862
0.244257
0.245109
0.245378
0.245073
0.244213
0.24291
0.241393
0.239728
0.23803
0.236361
0.234882
0.23365
0.232712
0.231576
0.15638
0.157455
0.158545
0.159651
0.160777
0.161921
0.163087
0.164277
0.165492
0.166733
0.168005
0.169306
0.170643
0.172014
0.173424
0.174875
0.176372
0.177916
0.179511
0.181161
0.18287
0.184639
0.186476
0.188382
0.19036
0.192416
0.194553
0.196773
0.199078
0.201473
0.203956
0.206525
0.209199
0.212013
0.214984
0.218095
0.221334
0.22468
0.228097
0.231546
0.23498
0.238337
0.241549
0.244541
0.247235
0.249552
0.251416
0.252773
0.253578
0.253831
0.25354
0.252801
0.251829
0.250681
0.249453
0.248205
0.24709
0.246163
0.245454
0.244431
0.15902
0.160112
0.161219
0.162342
0.163485
0.164646
0.165831
0.167039
0.168275
0.169537
0.17083
0.172155
0.173514
0.174911
0.176346
0.177825
0.17935
0.180924
0.182551
0.184235
0.18598
0.187789
0.189668
0.191618
0.193645
0.195752
0.197944
0.200224
0.202594
0.205059
0.207618
0.21027
0.213035
0.215952
0.219036
0.222277
0.225661
0.229172
0.232777
0.236439
0.240114
0.243743
0.247261
0.250598
0.253676
0.256419
0.258747
0.260605
0.261942
0.262748
0.26302
0.262842
0.262407
0.26177
0.261012
0.260183
0.259431
0.258805
0.25832
0.257409
0.16167
0.162784
0.163914
0.16506
0.166227
0.167413
0.168623
0.169857
0.171118
0.172407
0.173727
0.175079
0.176468
0.177893
0.179359
0.180869
0.182427
0.184035
0.185699
0.18742
0.189205
0.191055
0.192979
0.194976
0.197054
0.199216
0.201466
0.203808
0.206247
0.208785
0.211423
0.214162
0.217023
0.220044
0.223247
0.22662
0.230155
0.233835
0.237632
0.241509
0.245428
0.249332
0.253159
0.256841
0.260303
0.263468
0.266257
0.268612
0.270474
0.271826
0.272655
0.273034
0.273141
0.273018
0.272731
0.272323
0.271934
0.271607
0.271344
0.270543
0.164479
0.165612
0.166762
0.167928
0.169114
0.17032
0.171551
0.172807
0.174091
0.175403
0.176747
0.178125
0.17954
0.180993
0.182488
0.184028
0.185618
0.18726
0.188959
0.190719
0.192545
0.194438
0.196409
0.198456
0.200586
0.202805
0.205116
0.207525
0.210034
0.212649
0.215371
0.2182
0.221159
0.22429
0.227614
0.231125
0.234813
0.238667
0.242658
0.246754
0.250919
0.2551
0.259236
0.263263
0.267108
0.270694
0.273942
0.276789
0.279173
0.281067
0.282452
0.283385
0.284023
0.284409
0.28459
0.284601
0.284573
0.284541
0.284495
0.283802
0.16733
0.168486
0.169659
0.170849
0.172059
0.17329
0.174546
0.175826
0.177136
0.178474
0.179846
0.181252
0.182696
0.18418
0.185708
0.187281
0.188908
0.190587
0.192326
0.194127
0.195997
0.197937
0.199956
0.202055
0.204242
0.206521
0.208896
0.211373
0.213957
0.216652
0.21946
0.222383
0.225445
0.228687
0.232137
0.235789
0.239634
0.243665
0.247855
0.252174
0.256589
0.261049
0.265496
0.26987
0.274098
0.278104
0.281808
0.285144
0.288044
0.290476
0.292409
0.293892
0.295067
0.295964
0.296615
0.297044
0.297376
0.297638
0.297805
0.297219
0.170306
0.171484
0.172678
0.173889
0.175121
0.176375
0.177653
0.178958
0.180293
0.181658
0.183057
0.184491
0.185965
0.18748
0.189039
0.190647
0.192309
0.194026
0.195804
0.197647
0.199562
0.20155
0.203621
0.205775
0.20802
0.210361
0.212803
0.215353
0.218013
0.220791
0.22369
0.226709
0.229876
0.233236
0.236815
0.240611
0.244618
0.248829
0.25322
0.257765
0.262432
0.267174
0.271935
0.276656
0.281267
0.285692
0.289851
0.293673
0.297089
0.300053
0.302534
0.304564
0.306267
0.307669
0.308785
0.30963
0.310317
0.310869
0.311244
0.310763
0.173283
0.174487
0.175708
0.176948
0.17821
0.179494
0.180803
0.182139
0.183506
0.184902
0.186335
0.187802
0.189311
0.190862
0.192459
0.194105
0.195807
0.197566
0.199387
0.201277
0.20324
0.205279
0.207403
0.209615
0.21192
0.214327
0.216838
0.219463
0.222203
0.225068
0.228059
0.231179
0.234455
0.237933
0.241646
0.24559
0.249761
0.254157
0.258754
0.263528
0.268452
0.273478
0.278555
0.283625
0.28862
0.293465
0.298077
0.302384
0.306309
0.309804
0.312824
0.315399
0.317635
0.319545
0.321127
0.322386
0.323427
0.324264
0.324844
0.324466
0.176423
0.177651
0.178896
0.18016
0.181446
0.182754
0.184089
0.185452
0.186846
0.188272
0.189734
0.191233
0.192775
0.194359
0.195991
0.197674
0.199416
0.201216
0.203081
0.205017
0.20703
0.209121
0.211302
0.213573
0.215942
0.218417
0.221001
0.223703
0.226527
0.22948
0.232567
0.235791
0.239178
0.242781
0.246629
0.250724
0.255065
0.259648
0.264454
0.269461
0.274643
0.279957
0.285352
0.290773
0.296153
0.301417
0.306482
0.311272
0.315707
0.319728
0.32329
0.326405
0.329166
0.331577
0.333619
0.335288
0.336677
0.337794
0.338574
0.338298
0.179597
0.180853
0.182126
0.183419
0.184734
0.186071
0.187436
0.188829
0.190254
0.191712
0.193207
0.19474
0.196318
0.197939
0.199611
0.201336
0.20312
0.204966
0.206879
0.208865
0.210931
0.213078
0.215318
0.217651
0.220086
0.222631
0.225291
0.228073
0.230983
0.234029
0.237215
0.240545
0.244049
0.247775
0.251764
0.256014
0.260526
0.265302
0.270321
0.275564
0.28101
0.286615
0.292331
0.298105
0.303872
0.309556
0.315073
0.320345
0.325286
0.329832
0.333927
0.337582
0.340871
0.343785
0.346288
0.348364
0.350099
0.351491
0.352465
0.352289
0.182898
0.184179
0.185478
0.186796
0.188137
0.189501
0.190894
0.192316
0.193772
0.195261
0.19679
0.198358
0.199971
0.201631
0.203342
0.205108
0.206936
0.208827
0.210788
0.212825
0.214945
0.21715
0.219451
0.221848
0.224353
0.226971
0.229708
0.232573
0.235572
0.238713
0.242001
0.245441
0.249061
0.252918
0.257049
0.261458
0.266146
0.271117
0.276353
0.281836
0.287548
0.293447
0.299487
0.305616
0.311772
0.317877
0.323848
0.329601
0.335048
0.340117
0.344746
0.348937
0.352746
0.356155
0.359111
0.361588
0.363662
0.365324
0.366487
0.36641
0.186189
0.187501
0.188832
0.190184
0.19156
0.19296
0.19439
0.195849
0.197344
0.198872
0.20044
0.202048
0.203704
0.205407
0.207163
0.208974
0.210851
0.212792
0.214805
0.216896
0.219074
0.221338
0.223702
0.226167
0.228742
0.231436
0.234253
0.237204
0.240294
0.243533
0.246926
0.250478
0.254221
0.258208
0.262486
0.267056
0.271924
0.277095
0.282551
0.288279
0.294261
0.300458
0.306825
0.313313
0.31986
0.326388
0.332813
0.339047
0.344998
0.350588
0.355746
0.360472
0.364804
0.368708
0.372116
0.374992
0.3774
0.379324
0.380672
0.380688
0.189659
0.190999
0.192358
0.193738
0.195143
0.196572
0.198032
0.199523
0.20105
0.202613
0.204218
0.205864
0.207559
0.209302
0.2111
0.212956
0.214879
0.21687
0.218935
0.221081
0.223317
0.225642
0.228072
0.230606
0.233255
0.236027
0.238927
0.241967
0.245151
0.24849
0.251991
0.255657
0.259523
0.263647
0.268073
0.272809
0.27786
0.283235
0.288916
0.294892
0.301147
0.307646
0.314344
0.321193
0.328133
0.335085
0.341966
0.348682
0.355137
0.361247
0.366937
0.372191
0.377037
0.381429
0.385281
0.388547
0.391282
0.393462
0.394987
0.395097
0.193168
0.194539
0.195931
0.197344
0.198783
0.200247
0.201742
0.203268
0.204832
0.206432
0.208076
0.209762
0.211499
0.213286
0.215131
0.217035
0.21901
0.221053
0.223174
0.225378
0.227675
0.230065
0.232563
0.235168
0.237893
0.240745
0.243731
0.246861
0.250142
0.253585
0.257195
0.26098
0.264974
0.269234
0.273814
0.278718
0.283956
0.289539
0.295449
0.301677
0.308211
0.315015
0.322047
0.329261
0.336597
0.343977
0.351314
0.358513
0.365472
0.372101
0.378317
0.3841
0.389462
0.39434
0.398633
0.402285
0.405339
0.407767
0.409463
0.409662
0.196818
0.19822
0.199641
0.201083
0.202552
0.204047
0.205574
0.207135
0.208734
0.210372
0.212054
0.213781
0.21556
0.217392
0.219282
0.221234
0.223258
0.225354
0.22753
0.229793
0.232152
0.234608
0.237175
0.239855
0.242657
0.245592
0.248666
0.25189
0.25527
0.258818
0.262543
0.266448
0.270571
0.274974
0.279709
0.284786
0.290215
0.296008
0.30215
0.308635
0.31545
0.322564
0.329934
0.337516
0.345251
0.35306
0.360856
0.368538
0.376002
0.383151
0.389894
0.396201
0.402068
0.407422
0.412148
0.416177
0.419543
0.42221
0.424071
0.424357
0.200458
0.201895
0.203353
0.204835
0.206344
0.20788
0.20945
0.211054
0.212697
0.214378
0.216106
0.217879
0.219706
0.221586
0.223528
0.225532
0.227612
0.229764
0.232
0.234325
0.236749
0.239273
0.241913
0.244668
0.247551
0.250571
0.253735
0.257055
0.260537
0.264194
0.268033
0.272063
0.27632
0.280866
0.285761
0.291014
0.296637
0.302645
0.309024
0.315768
0.322871
0.330298
0.33801
0.345964
0.354101
0.362343
0.370599
0.378767
0.386736
0.394405
0.401673
0.408502
0.414874
0.420703
0.425856
0.430256
0.433923
0.436821
0.438839
0.439207
0.204303
0.205771
0.207261
0.208774
0.210316
0.211885
0.213489
0.215129
0.216809
0.218531
0.220299
0.222115
0.223986
0.225913
0.227902
0.229956
0.232088
0.234297
0.236591
0.238979
0.241469
0.244062
0.246776
0.24961
0.252575
0.255683
0.25894
0.262358
0.265944
0.269712
0.273671
0.277828
0.28222
0.286916
0.291972
0.297404
0.303224
0.30945
0.316069
0.323078
0.33047
0.338215
0.346272
0.354602
0.363146
0.371822
0.380542
0.389196
0.397673
0.405861
0.413654
0.421
0.427868
0.43416
0.439731
0.444491
0.448451
0.45157
0.453737
0.454187
0.208191
0.209694
0.211221
0.212771
0.21435
0.215958
0.217602
0.219281
0.221002
0.222765
0.224576
0.226437
0.228356
0.230332
0.232374
0.234484
0.236674
0.238942
0.2413
0.243754
0.246313
0.248979
0.25177
0.254684
0.257733
0.260931
0.264282
0.267801
0.271495
0.275377
0.279457
0.283744
0.288277
0.29312
0.298343
0.303957
0.309978
0.316426
0.32329
0.330567
0.338254
0.346321
0.35473
0.36344
0.372393
0.381508
0.390694
0.399837
0.408821
0.41753
0.425846
0.433708
0.441068
0.447821
0.453804
0.458915
0.463157
0.466486
0.468795
0.46932
0.212228
0.213764
0.215323
0.216906
0.218519
0.220162
0.221842
0.223561
0.225323
0.227129
0.228985
0.230892
0.232859
0.234886
0.236979
0.239144
0.241391
0.243719
0.24614
0.24866
0.25129
0.254029
0.256897
0.259893
0.263029
0.266318
0.269766
0.273387
0.27719
0.281188
0.285393
0.289812
0.294485
0.299484
0.304874
0.310674
0.316899
0.323573
0.330685
0.338234
0.346221
0.354614
0.363377
0.372472
0.381839
0.391396
0.40105
0.410684
0.420178
0.429407
0.438245
0.446617
0.454461
0.461663
0.468047
0.473498
0.47801
0.48154
0.483983
0.484584
0.216219
0.217796
0.219401
0.221034
0.222699
0.224395
0.226129
0.227899
0.229715
0.231574
0.233484
0.235446
0.237468
0.239551
0.241703
0.243926
0.246235
0.248627
0.251114
0.253703
0.256404
0.259218
0.262164
0.265242
0.268465
0.271846
0.275391
0.279116
0.283029
0.287146
0.291476
0.29603
0.300849
0.306002
0.311566
0.317555
0.323989
0.330894
0.338258
0.346085
0.354376
0.363102
0.372225
0.381709
0.391494
0.401498
0.411623
0.421751
0.431754
0.441504
0.450863
0.459743
0.468069
0.475715
0.482493
0.488272
0.493042
0.49676
0.499329
0.499999
0.22072
0.222326
0.223953
0.225605
0.227287
0.229002
0.230756
0.232551
0.234393
0.236282
0.238224
0.240222
0.242284
0.244409
0.246606
0.248879
0.251241
0.25369
0.256237
0.258891
0.261661
0.264548
0.267572
0.270732
0.274042
0.277515
0.281158
0.284988
0.289013
0.293249
0.297709
0.3024
0.307365
0.312681
0.318419
0.324602
0.331248
0.338387
0.346009
0.354117
0.362717
0.371779
0.381268
0.391145
0.401353
0.411806
0.422406
0.433029
0.443545
0.453815
0.463693
0.473074
0.481873
0.489953
0.497111
0.503207
0.508223
0.512118
0.514805
0.515545
0.224925
0.22658
0.228262
0.229972
0.231716
0.233492
0.235307
0.237162
0.239063
0.241009
0.24301
0.245063
0.247183
0.249365
0.251621
0.253952
0.256376
0.258887
0.261499
0.264219
0.26706
0.27002
0.273121
0.276363
0.27976
0.283326
0.287068
0.291004
0.295142
0.2995
0.304089
0.30892
0.314038
0.319514
0.325433
0.331813
0.338676
0.346055
0.353939
0.362336
0.371251
0.380656
0.390515
0.400792
0.411428
0.422335
0.433414
0.444535
0.455563
0.466353
0.476748
0.48663
0.495898
0.504406
0.511935
0.518335
0.523582
0.527641
0.530436
0.531242
0.2297
0.231385
0.233092
0.234824
0.236588
0.238385
0.240223
0.242103
0.244031
0.246009
0.248043
0.250134
0.252292
0.254517
0.256818
0.259198
0.261672
0.264239
0.26691
0.269693
0.272601
0.275633
0.278811
0.282135
0.285618
0.289278
0.293119
0.297162
0.301415
0.305896
0.310619
0.315592
0.320861
0.326507
0.332607
0.339189
0.346274
0.353897
0.362049
0.370738
0.379974
0.389727
0.399962
0.410643
0.421711
0.433077
0.444637
0.456258
0.4678
0.47911
0.490019
0.500394
0.510123
0.519048
0.526935
0.533625
0.53909
0.543301
0.546197
0.547068
0.234163
0.235901
0.237668
0.239463
0.241291
0.243152
0.245054
0.246995
0.248984
0.25102
0.253112
0.25526
0.257476
0.259757
0.262116
0.264554
0.26709
0.269718
0.272452
0.275302
0.278279
0.281383
0.284639
0.288045
0.291616
0.295369
0.299312
0.303463
0.307832
0.312439
0.317295
0.322414
0.327842
0.333654
0.339943
0.346731
0.354043
0.361916
0.370342
0.379331
0.388893
0.399001
0.409619
0.420711
0.432216
0.444046
0.456091
0.468215
0.480271
0.492101
0.503523
0.51439
0.524576
0.53391
0.542144
0.549109
0.554776
0.559125
0.562111
0.563043
0.239224
0.240995
0.242789
0.244606
0.246454
0.248336
0.250259
0.252224
0.25424
0.256306
0.25843
0.260614
0.262867
0.265189
0.267591
0.270077
0.272662
0.275345
0.278137
0.28105
0.284094
0.28727
0.290603
0.294092
0.297751
0.301599
0.305643
0.309904
0.314392
0.319125
0.32412
0.329387
0.334973
0.340962
0.347441
0.35444
0.361984
0.370111
0.378816
0.38811
0.398005
0.408473
0.419479
0.430986
0.442935
0.455232
0.467766
0.480396
0.492967
0.505315
0.517247
0.528599
0.539233
0.548965
0.557531
0.564757
0.570611
0.575086
0.578154
0.579147
0.243991
0.245814
0.247663
0.249537
0.251444
0.253383
0.255363
0.257384
0.259457
0.261578
0.263758
0.265997
0.268307
0.270688
0.273149
0.275694
0.278341
0.281086
0.283944
0.286924
0.290038
0.293289
0.296701
0.300273
0.304021
0.307966
0.312114
0.316486
0.321093
0.325957
0.331092
0.33651
0.342261
0.348424
0.355101
0.362315
0.370096
0.378485
0.387477
0.397082
0.407317
0.418154
0.429555
0.441486
0.453884
0.466654
0.479681
0.492818
0.505906
0.518771
0.53121
0.543045
0.554123
0.564243
0.57313
0.580599
0.586623
0.591208
0.594347
0.595396
0.249052
0.250919
0.252812
0.254731
0.256683
0.258667
0.260694
0.262763
0.264883
0.267052
0.269279
0.271567
0.273925
0.276354
0.278865
0.281462
0.284163
0.286966
0.289884
0.292929
0.296113
0.299438
0.302929
0.306586
0.310425
0.314468
0.318721
0.323207
0.327937
0.332933
0.338211
0.343784
0.3497
0.356048
0.362923
0.370358
0.378382
0.387038
0.396321
0.406244
0.416825
0.428036
0.439838
0.452197
0.46505
0.478297
0.491821
0.505469
0.519074
0.532456
0.545399
0.557709
0.569222
0.579718
0.588908
0.596606
0.602785
0.607467
0.610668
0.611771
0.2542
0.256109
0.258045
0.260005
0.262
0.264027
0.266096
0.268208
0.270373
0.272588
0.274865
0.277202
0.279614
0.282099
0.284668
0.287325
0.290088
0.292955
0.29594
0.299054
0.302311
0.305712
0.309284
0.313028
0.31696
0.321103
0.325463
0.330065
0.33492
0.340052
0.345475
0.351206
0.357296
0.363826
0.370908
0.37857
0.386842
0.395773
0.405355
0.415604
0.426539
0.438132
0.450343
0.463139
0.476453
0.490183
0.504208
0.518369
0.532491
0.546389
0.559832
0.572617
0.584559
0.595421
0.604901
0.612808
0.619123
0.623886
0.627136
0.628286
0.259543
0.261495
0.263472
0.265474
0.26751
0.269578
0.27169
0.273846
0.276054
0.278314
0.280635
0.283018
0.285476
0.288008
0.290625
0.293333
0.296151
0.299076
0.302122
0.305303
0.308631
0.312109
0.315764
0.319596
0.323622
0.327866
0.332336
0.337057
0.34204
0.34731
0.352885
0.358778
0.365042
0.371766
0.379058
0.386951
0.395478
0.404689
0.414576
0.425157
0.436452
0.448433
0.46106
0.474297
0.488078
0.502297
0.516826
0.531503
0.546144
0.560556
0.574498
0.587748
0.600109
0.611324
0.621076
0.629176
0.635611
0.640441
0.64373
0.644923
0.264891
0.266886
0.268907
0.270954
0.273034
0.275147
0.277304
0.279504
0.281759
0.284067
0.286438
0.288874
0.291386
0.293975
0.296652
0.299422
0.302303
0.305294
0.308409
0.311662
0.315065
0.318622
0.322362
0.326284
0.330407
0.334756
0.339339
0.344181
0.349297
0.35471
0.360439
0.3665
0.372946
0.379863
0.387372
0.395503
0.404292
0.413789
0.42399
0.434911
0.446576
0.458954
0.472005
0.485692
0.499947
0.514661
0.5297
0.544895
0.560054
0.574978
0.589414
0.603129
0.615903
0.627458
0.637467
0.645738
0.652274
0.657153
0.660468
0.661697
0.270421
0.27246
0.274524
0.276613
0.278736
0.280893
0.283094
0.28534
0.28764
0.289994
0.292411
0.294894
0.297453
0.300092
0.302818
0.305641
0.308579
0.311631
0.31481
0.318132
0.32161
0.325248
0.329074
0.33309
0.337313
0.34177
0.346468
0.351437
0.356688
0.362249
0.368138
0.374371
0.381
0.388123
0.395852
0.404227
0.413283
0.423075
0.433594
0.444862
0.456903
0.469684
0.483165
0.497309
0.512044
0.527257
0.54281
0.558526
0.574206
0.589641
0.604567
0.618739
0.631914
0.643794
0.654041
0.662468
0.669087
0.674001
0.677331
0.678589
0.275946
0.278031
0.28014
0.282275
0.284444
0.286645
0.288892
0.291183
0.293531
0.295934
0.298403
0.300938
0.303555
0.306251
0.30904
0.311927
0.314931
0.318052
0.321303
0.324701
0.328259
0.331981
0.335897
0.340009
0.344336
0.348905
0.353724
0.358823
0.364214
0.369927
0.37598
0.38239
0.389214
0.396539
0.404499
0.413125
0.422455
0.432548
0.443396
0.455019
0.467445
0.480639
0.49456
0.509169
0.524392
0.540111
0.556183
0.572423
0.588623
0.604565
0.619979
0.634605
0.648173
0.660365
0.670832
0.679393
0.686074
0.691003
0.694333
0.695612
0.281627
0.283757
0.285911
0.28809
0.290303
0.29255
0.294843
0.297182
0.299577
0.302029
0.304545
0.307131
0.309797
0.312546
0.315387
0.318331
0.321396
0.324581
0.327901
0.331374
0.335012
0.338821
0.34283
0.347042
0.351475
0.35616
0.361103
0.366337
0.371874
0.377743
0.383967
0.39056
0.397579
0.405123
0.413314
0.422198
0.431809
0.44221
0.453391
0.465377
0.478194
0.491808
0.506175
0.521256
0.536973
0.553205
0.5698
0.586567
0.603287
0.619736
0.635632
0.650705
0.664654
0.677142
0.687811
0.696486
0.703212
0.708141
0.711458
0.712751
0.287275
0.289452
0.291654
0.293881
0.296143
0.298438
0.30078
0.303169
0.305616
0.30812
0.310693
0.313336
0.316063
0.318875
0.321783
0.324795
0.327931
0.331191
0.334588
0.338142
0.341866
0.345765
0.349871
0.354186
0.358731
0.363535
0.368608
0.37398
0.379667
0.3857
0.392098
0.39888
0.406106
0.413864
0.422299
0.431446
0.441346
0.452062
0.463588
0.475945
0.489164
0.503208
0.518031
0.533593
0.549812
0.566563
0.583688
0.600984
0.618227
0.635177
0.651553
0.667068
0.681388
0.694155
0.705006
0.713774
0.720522
0.72543
0.728718
0.730014
0.293094
0.295317
0.297565
0.299838
0.302146
0.304489
0.306879
0.309318
0.311815
0.31437
0.316994
0.31969
0.32247
0.325338
0.328303
0.331376
0.334576
0.337906
0.341377
0.345012
0.348822
0.352814
0.35702
0.361442
0.366102
0.37103
0.376236
0.381753
0.387595
0.393795
0.400375
0.407351
0.414784
0.422773
0.431453
0.440871
0.451066
0.462106
0.473981
0.486716
0.500344
0.514825
0.530112
0.546161
0.56289
0.580167
0.597825
0.615655
0.633421
0.650872
0.667723
0.683671
0.698349
0.711378
0.722391
0.731232
0.737984
0.742854
0.746098
0.747389
0.298889
0.301161
0.303458
0.30578
0.308137
0.31053
0.312969
0.315458
0.318008
0.320618
0.323299
0.326055
0.3289
0.331834
0.334869
0.338014
0.341291
0.3447
0.348254
0.351975
0.355878
0.359966
0.364276
0.36881
0.373588
0.378645
0.383988
0.389653
0.395655
0.402028
0.408793
0.415971
0.423623
0.431839
0.440777
0.450473
0.460972
0.472344
0.484578
0.497703
0.511749
0.526679
0.542439
0.558987
0.576234
0.594044
0.612242
0.630609
0.6489
0.666849
0.684173
0.700545
0.715568
0.728841
0.739995
0.748885
0.755616
0.760426
0.763609
0.764883
0.304839
0.307159
0.309503
0.311873
0.314278
0.31672
0.31921
0.321751
0.324354
0.327018
0.329753
0.332565
0.335466
0.33846
0.341556
0.344767
0.348114
0.351597
0.355231
0.359039
0.363034
0.367221
0.371639
0.376286
0.381187
0.386376
0.39186
0.397679
0.403846
0.410396
0.417355
0.42474
0.432611
0.441074
0.450271
0.460253
0.471062
0.482773
0.495375
0.508895
0.523369
0.538754
0.554995
0.572049
0.589822
0.608171
0.626915
0.645823
0.664641
0.683089
0.700877
0.717665
0.733019
0.746517
0.75779
0.766709
0.7734
0.778131
0.781237
0.782485
0.310744
0.313113
0.315509
0.317931
0.320388
0.322883
0.325427
0.328023
0.330683
0.333406
0.336204
0.33908
0.342051
0.345116
0.348287
0.351575
0.355003
0.358571
0.362293
0.366193
0.370286
0.374577
0.379104
0.38387
0.388896
0.394221
0.399852
0.405828
0.412165
0.4189
0.426056
0.433655
0.44176
0.450463
0.459933
0.470208
0.481337
0.493397
0.506377
0.520305
0.535218
0.55107
0.567804
0.585374
0.603682
0.62258
0.641876
0.66133
0.680678
0.699621
0.717873
0.735065