/*--------------------------------*- C++ -*----------------------------------*\
  =========                 |
  \\      /  F ield         | OpenFOAM: The Open Source CFD Toolbox
   \\    /   O peration     | Website:  https://openfoam.org
    \\  /    A nd           | Version:  6.0
     \\/     M anipulation  |
\*---------------------------------------------------------------------------*/
FoamFile
{
    version     2.0;
    format      ascii;
    class       surfaceScalarField;
    location    "2";
    object      phi;
}
// * * * * * * * * * * * * * * * * * * * * * * * * * * * * * * * * * * * * * //

dimensions      [0 3 -1 0 0 0 0];

internalField   nonuniform List<scalar> 
123526
(
-5.55486e-05
2.30441e-05
5.59199e-05
-5.51372e-05
2.49184e-05
-5.4683e-05
2.69457e-05
-5.41958e-05
2.91386e-05
-5.3659e-05
3.15106e-05
-5.30836e-05
3.40766e-05
-5.24517e-05
3.68526e-05
-5.17738e-05
3.98559e-05
-5.10306e-05
4.31043e-05
-5.0232e-05
4.6619e-05
-4.93608e-05
5.04226e-05
-4.8424e-05
5.45383e-05
-4.74051e-05
5.89919e-05
-4.63062e-05
6.38089e-05
-4.51105e-05
6.9021e-05
-4.38227e-05
7.46651e-05
-4.24277e-05
8.07737e-05
-4.09173e-05
8.73781e-05
-3.92781e-05
9.45292e-05
-3.75105e-05
0.000102273
-3.55896e-05
0.000110647
-3.35096e-05
0.000119711
-3.12596e-05
0.000129528
-2.88145e-05
0.000140137
-2.6167e-05
0.00015163
-2.32985e-05
0.000164059
-2.01843e-05
0.000177503
-1.68142e-05
0.00019205
-1.31526e-05
0.000207767
-9.19042e-06
0.000224767
-4.88785e-06
0.000243119
-2.29172e-07
0.000262945
4.82461e-06
0.000284324
1.0303e-05
0.000307369
1.62362e-05
0.000332184
2.26747e-05
0.000358852
2.96468e-05
0.00038749
3.72014e-05
0.000418161
4.5388e-05
0.000450931
5.42451e-05
0.000485849
6.38203e-05
0.000522909
7.41635e-05
0.000562064
8.53119e-05
0.000603216
9.72979e-05
0.000646173
0.000110146
0.000690647
0.00012387
0.000736223
0.000138465
0.000782328
0.00015392
0.000828195
0.000170197
0.000872807
0.00018725
0.000914822
0.000205005
0.000952488
0.000223331
0.000983496
0.00024213
0.00100478
0.000261146
0.00101246
0.000280115
0.00100149
0.000298588
0.000965624
0.000316032
0.000896769
0.000331745
0.000784447
0.000344678
0.000613596
0.000347735
0.000351645
-5.54098e-05
2.26596e-05
5.57803e-05
-5.50045e-05
2.45023e-05
-5.4559e-05
2.64953e-05
-5.40815e-05
2.8651e-05
-5.3557e-05
3.09827e-05
-5.29947e-05
3.35051e-05
-5.23784e-05
3.62337e-05
-5.17161e-05
3.91858e-05
-5.09909e-05
4.23782e-05
-5.02097e-05
4.58321e-05
-4.93579e-05
4.95706e-05
-4.84396e-05
5.36159e-05
-4.74412e-05
5.79934e-05
-4.63614e-05
6.27257e-05
-4.51865e-05
6.78453e-05
-4.39184e-05
7.3393e-05
-4.25442e-05
7.93973e-05
-4.10536e-05
8.58823e-05
-3.94351e-05
9.29071e-05
-3.7687e-05
0.000100519
-3.57863e-05
0.000108742
-3.37253e-05
0.000117643
-3.14944e-05
0.000127292
-2.90672e-05
0.000137702
-2.64375e-05
0.000148995
-2.3585e-05
0.0001612
-2.04865e-05
0.000174398
-1.71295e-05
0.000188686
-1.34801e-05
0.000204111
-9.52726e-06
0.000220807
-5.23263e-06
0.000238817
-5.78658e-07
0.000258282
4.47105e-06
0.000279266
9.94572e-06
0.000301885
1.58735e-05
0.000326244
2.23039e-05
0.000352407
2.92632e-05
0.000380516
3.67969e-05
0.000410612
4.49505e-05
0.000442761
5.37578e-05
0.000477024
6.32607e-05
0.000513388
7.3503e-05
0.000551801
8.45161e-05
0.000592179
9.63271e-05
0.000634336
0.000108957
0.000677987
0.000122419
0.000722727
0.00013671
0.000767996
0.000151822
0.000813037
0.000167724
0.000856847
0.000184381
0.000898099
0.000201722
0.000935058
0.000219623
0.00096545
0.000237996
0.000986268
0.000256589
0.000993708
0.000275149
0.000982816
0.000293231
0.000947404
0.000310312
0.000879523
0.000325696
0.000768859
0.000338297
0.000600733
0.000340638
0.000344973
-5.45929e-05
2.22816e-05
5.49579e-05
-5.41943e-05
2.40936e-05
-5.3757e-05
2.60534e-05
-5.32884e-05
2.81731e-05
-5.27748e-05
3.04659e-05
-5.22243e-05
3.2946e-05
-5.1622e-05
3.56291e-05
-5.09753e-05
3.85317e-05
-5.02682e-05
4.16697e-05
-4.95068e-05
4.50647e-05
-4.86771e-05
4.87399e-05
-4.77827e-05
5.27166e-05
-4.681e-05
5.70198e-05
-4.57578e-05
6.16691e-05
-4.46121e-05
6.6698e-05
-4.33745e-05
7.21507e-05
-4.20321e-05
7.80523e-05
-4.05745e-05
8.44194e-05
-3.89904e-05
9.13195e-05
-3.72776e-05
9.88003e-05
-3.54137e-05
0.000106873
-3.33905e-05
0.000115613
-3.11989e-05
0.000125096
-2.88122e-05
0.000135309
-2.62248e-05
0.000146402
-2.3416e-05
0.000158384
-2.03634e-05
0.000171339
-1.7054e-05
0.00018537
-1.3455e-05
0.000200505
-9.55478e-06
0.0002169
-5.31596e-06
0.00023457
-7.20933e-07
0.000253679
4.26641e-06
0.000274271
9.67233e-06
0.000296469
1.5526e-05
0.000320379
2.18746e-05
0.000346045
2.87437e-05
0.000373632
3.61771e-05
0.000403164
4.42182e-05
0.000434705
5.28988e-05
0.000468329
6.22586e-05
0.000504014
7.23388e-05
0.000541707
8.31688e-05
0.000581335
9.47743e-05
0.000622716
0.000107175
0.000665571
0.000120384
0.000709504
0.000134401
0.000753964
0.000149218
0.000798206
0.000164809
0.000841239
0.000181138
0.000881753
0.00019814
0.000918039
0.000215689
0.000947843
0.000233704
0.000968228
0.000251932
0.000975406
0.000270128
0.000964569
0.000287854
0.000929602
0.000304593
0.000862698
0.000319654
0.000753714
0.000331946
0.000588325
0.000333739
0.000338814
-5.36475e-05
2.1913e-05
5.40073e-05
-5.32568e-05
2.36949e-05
-5.28287e-05
2.56222e-05
-5.237e-05
2.77068e-05
-5.18678e-05
2.99615e-05
-5.13293e-05
3.24006e-05
-5.0741e-05
3.50391e-05
-5.01087e-05
3.78936e-05
-4.94183e-05
4.09786e-05
-4.8674e-05
4.43163e-05
-4.78641e-05
4.793e-05
-4.69901e-05
5.18399e-05
-4.60411e-05
5.60706e-05
-4.50132e-05
6.0639e-05
-4.38953e-05
6.55792e-05
-4.26864e-05
7.09389e-05
-4.1376e-05
7.67397e-05
-3.99517e-05
8.2991e-05
-3.84039e-05
8.97682e-05
-3.67287e-05
9.71199e-05
-3.49049e-05
0.000105045
-3.29237e-05
0.000113626
-3.07762e-05
0.000122943
-2.84358e-05
0.000132962
-2.58969e-05
0.000143857
-2.3139e-05
0.00015562
-2.01399e-05
0.000168334
-1.68869e-05
0.00018211
-1.33475e-05
0.000196959
-9.51031e-06
0.000213055
-5.33843e-06
0.000230391
-8.14103e-07
0.000249147
4.09636e-06
0.000269351
9.42046e-06
0.000291136
1.51843e-05
0.000314603
2.14351e-05
0.000339782
2.81971e-05
0.000366857
3.55129e-05
0.000395835
4.34244e-05
0.00042678
5.19622e-05
0.000459777
6.11643e-05
0.000494797
7.10704e-05
0.000531786
8.17089e-05
0.000570681
9.31044e-05
0.000611304
0.000105277
0.000653381
0.000118239
0.000696523
0.000131992
0.000740189
0.00014653
0.000783646
0.000161827
0.000825915
0.00017785
0.000865701
0.000194534
0.000901311
0.000211753
0.000930526
0.000229429
0.00095045
0.000247313
0.000957392
0.000265163
0.000946594
0.000282547
0.000912059
0.000298957
0.000846092
0.000313704
0.000738726
0.000325718
0.000576009
0.000326248
0.00033276
-5.26806e-05
2.15508e-05
5.3029e-05
-5.22988e-05
2.33032e-05
-5.18801e-05
2.51984e-05
-5.1431e-05
2.72484e-05
-5.0939e-05
2.94658e-05
-5.04112e-05
3.18644e-05
-4.9834e-05
3.44592e-05
-4.92142e-05
3.72666e-05
-4.85369e-05
4.02998e-05
-4.78078e-05
4.35813e-05
-4.70138e-05
4.71348e-05
-4.61583e-05
5.09796e-05
-4.52283e-05
5.51396e-05
-4.42225e-05
5.96291e-05
-4.31277e-05
6.44829e-05
-4.19449e-05
6.9752e-05
-4.06621e-05
7.54545e-05
-3.92685e-05
8.15928e-05
-3.77534e-05
8.82499e-05
-3.6114e-05
9.54752e-05
-3.43286e-05
0.000103256
-3.23887e-05
0.00011168
-3.02854e-05
0.000120835
-2.79922e-05
0.000130663
-2.55036e-05
0.000141364
-2.27991e-05
0.000152909
-1.9857e-05
0.000165386
-1.66643e-05
0.000178912
-1.31894e-05
0.000193478
-9.42061e-06
0.00020928
-5.32202e-06
0.000226284
-8.76326e-07
0.000244693
3.95097e-06
0.000264517
9.18343e-06
0.000285894
1.4849e-05
0.000308928
2.09923e-05
0.000333626
2.76373e-05
0.0003602
3.48255e-05
0.000388635
4.25978e-05
0.000418996
5.09837e-05
0.00045138
6.00203e-05
0.000485751
6.97463e-05
0.00052205
8.01893e-05
0.000560229
9.13738e-05
0.000600112
0.00010332
0.000641429
0.000116041
0.000683798
0.000129537
0.000726688
0.000143807
0.000769376
0.000158822
0.000810896
0.000174554
0.00084997
0.000190934
0.00088493
0.00020784
0.000913582
0.000225193
0.000933092
0.000242748
0.00093979
0.000260265
0.000929047
0.000277321
0.000894948
0.000293412
0.00082994
0.000307857
0.000724225
0.000319614
0.000564184
0.000319121
0.000326781
-5.17214e-05
2.11961e-05
5.20664e-05
-5.13455e-05
2.29195e-05
-5.09341e-05
2.47835e-05
-5.04927e-05
2.67995e-05
-5.00096e-05
2.89802e-05
-4.94913e-05
3.13392e-05
-4.89253e-05
3.38912e-05
-4.83167e-05
3.66523e-05
-4.76524e-05
3.96348e-05
-4.69364e-05
4.28613e-05
-4.61577e-05
4.6356e-05
-4.53175e-05
5.01369e-05
-4.44057e-05
5.42278e-05
-4.34186e-05
5.864e-05
-4.23455e-05
6.34092e-05
-4.11856e-05
6.85896e-05
-3.99288e-05
7.41958e-05
-3.85631e-05
8.02234e-05
-3.70791e-05
8.67629e-05
-3.5473e-05
9.38645e-05
-3.37242e-05
0.000101503
-3.18239e-05
0.000109775
-2.97633e-05
0.00011877
-2.75164e-05
0.000128411
-2.50775e-05
0.00013892
-2.24265e-05
0.000150252
-1.95418e-05
0.000162496
-1.64108e-05
0.000175775
-1.30021e-05
0.000190063
-9.30434e-06
0.000205576
-5.28208e-06
0.000222255
-9.17835e-07
0.000240322
3.82012e-06
0.000259771
8.95788e-06
0.000280749
1.45196e-05
0.000303356
2.05505e-05
0.000327584
2.70734e-05
0.000353666
3.4129e-05
0.000381568
4.17572e-05
0.000411357
4.9987e-05
0.000443139
5.88546e-05
0.000476872
6.83981e-05
0.000512495
7.86448e-05
0.000549971
8.96191e-05
0.000589127
0.000101341
0.000629694
0.000113825
0.000671302
0.000127073
0.000713427
0.000141081
0.000755357
0.000155825
0.000796137
0.000171275
0.000834507
0.000187363
0.000868815
0.000203967
0.000896903
0.000221008
0.000915972
0.000238246
0.000922448
0.000255442
0.000911741
0.000272179
0.000878066
0.000287962
0.000813972
0.000302117
0.000709841
0.000313638
0.000552381
0.000311464
0.000320876
-5.07797e-05
2.08472e-05
5.11169e-05
-5.04107e-05
2.2542e-05
-5.00067e-05
2.43751e-05
-4.95729e-05
2.63578e-05
-4.90983e-05
2.85025e-05
-4.85888e-05
3.08225e-05
-4.80323e-05
3.33324e-05
-4.74343e-05
3.6048e-05
-4.67815e-05
3.89806e-05
-4.60784e-05
4.21531e-05
-4.53135e-05
4.55899e-05
-4.44889e-05
4.93082e-05
-4.35934e-05
5.33313e-05
-4.26249e-05
5.76677e-05
-4.15715e-05
6.23541e-05
-4.04334e-05
6.74477e-05
-3.92e-05
7.296e-05
-3.78602e-05
7.88793e-05
-3.64045e-05
8.5304e-05
-3.48294e-05
9.22846e-05
-3.31147e-05
9.97848e-05
-3.12516e-05
0.000107906
-2.92317e-05
0.000116746
-2.70292e-05
0.000126203
-2.46386e-05
0.000136525
-2.204e-05
0.000147648
-1.92121e-05
0.000159663
-1.61423e-05
0.000172699
-1.28e-05
0.000186715
-9.17365e-06
0.000201943
-5.22873e-06
0.000218303
-9.48454e-07
0.000236034
3.70053e-06
0.000255117
8.73986e-06
0.000275702
1.41963e-05
0.000297891
2.01124e-05
0.000321658
2.65111e-05
0.000347256
3.3432e-05
0.000374637
4.09144e-05
0.000403865
4.89867e-05
0.000435058
5.76846e-05
0.000468166
6.70457e-05
0.000503128
7.70971e-05
0.000539915
8.78634e-05
0.000578357
9.93649e-05
0.00061819
0.000111616
0.00065905
0.00012462
0.000700423
0.000138374
0.000741606
0.000152854
0.000781658
0.00016803
0.000819337
0.000183834
0.000853015
0.000200145
0.000880561
0.000216883
0.00089924
0.000233814
0.000905493
0.000250698
0.000894851
0.000267126
0.000861609
0.00028261
0.00079846
0.000296486
0.000695947
0.000307784
0.000541069
0.000304305
0.000315052
-4.9852e-05
2.05055e-05
5.01864e-05
-4.94887e-05
2.21725e-05
-4.90917e-05
2.39753e-05
-4.86654e-05
2.59254e-05
-4.81994e-05
2.80347e-05
-4.76992e-05
3.03164e-05
-4.71533e-05
3.2785e-05
-4.6566e-05
3.5456e-05
-4.59256e-05
3.83396e-05
-4.52347e-05
4.14591e-05
-4.4484e-05
4.48391e-05
-4.36734e-05
4.84959e-05
-4.27947e-05
5.24523e-05
-4.18428e-05
5.67145e-05
-4.0809e-05
6.13195e-05
-3.96912e-05
6.6328e-05
-3.84809e-05
7.17478e-05
-3.71658e-05
7.7561e-05
-3.57377e-05
8.3873e-05
-3.41924e-05
9.0735e-05
-3.25105e-05
9.80992e-05
-3.06832e-05
0.000106074
-2.87024e-05
0.000114761
-2.65427e-05
0.000124038
-2.41988e-05
0.000134177
-2.16511e-05
0.000145095
-1.88786e-05
0.000156886
-1.58691e-05
0.000169685
-1.25922e-05
0.000183433
-9.03692e-06
0.000198382
-5.16904e-06
0.000214429
-9.71551e-07
0.000231831
3.58584e-06
0.000250552
8.52832e-06
0.000270754
1.38785e-05
0.000292532
1.96797e-05
0.000315847
2.59539e-05
0.000340972
3.27402e-05
0.000367841
4.00771e-05
0.000396519
4.79925e-05
0.000427133
5.65218e-05
0.000459628
6.5702e-05
0.000493938
7.55604e-05
0.000530047
8.61214e-05
0.000567786
9.7406e-05
0.000606896
0.000109429
0.000647019
0.000122194
0.000687649
0.000135699
0.000728094
0.000149921
0.000767428
0.000164829
0.000804423
0.000180355
0.000837471
0.00019638
0.000864477
0.000212823
0.000882734
0.000229455
0.000888779
0.000246035
0.000878178
0.000262162
0.000845354
0.000277355
0.0007831
0.000290962
0.000682132
0.000302051
0.000529726
0.00029667
0.000309312
-4.89468e-05
2.01688e-05
4.92704e-05
-4.85913e-05
2.18081e-05
-4.82022e-05
2.35812e-05
-4.77841e-05
2.5499e-05
-4.73266e-05
2.75735e-05
-4.68353e-05
2.98176e-05
-4.62984e-05
3.22456e-05
-4.57216e-05
3.48727e-05
-4.50916e-05
3.77081e-05
-4.44133e-05
4.07755e-05
-4.36751e-05
4.40997e-05
-4.28797e-05
4.76961e-05
-4.20157e-05
5.15873e-05
-4.10815e-05
5.57766e-05
-4.00654e-05
6.03019e-05
-3.89681e-05
6.5227e-05
-3.77791e-05
7.05566e-05
-3.6488e-05
7.62659e-05
-3.50856e-05
8.24676e-05
-3.35688e-05
8.92137e-05
-3.1918e-05
9.64451e-05
-3.0125e-05
0.000104276
-2.81818e-05
0.000112814
-2.60634e-05
0.000121914
-2.37647e-05
0.000131874
-2.12663e-05
0.000142591
-1.85478e-05
0.000154162
-1.55971e-05
0.000166729
-1.23845e-05
0.000180215
-8.89895e-06
0.000194891
-5.10712e-06
0.00021063
-9.92835e-07
0.00022771
3.47635e-06
0.000246079
8.32074e-06
0.000265902
1.35661e-05
0.000287279
1.92532e-05
0.000310151
2.5404e-05
0.000334812
3.20568e-05
0.000361179
3.92496e-05
0.000389318
4.701e-05
0.000419366
5.53727e-05
0.000451259
6.43747e-05
0.000484931
7.40429e-05
0.000520375
8.44022e-05
0.000557425
9.54737e-05
0.000595824
0.000107273
0.000635221
0.000119803
0.000675119
0.000133064
0.000714837
0.000147032
0.000753462
0.000161678
0.000789784
0.000176932
0.000822222
0.000192676
0.000848706
0.000208831
0.000866592
0.000225169
0.000872434
0.000241452
0.000861909
0.000257286
0.000829515
0.000272196
0.00076819
0.000285543
0.0006688
0.000296432
0.000518873
0.000289605
0.000303663
-4.80564e-05
1.98393e-05
4.83778e-05
-4.77064e-05
2.14517e-05
-4.73239e-05
2.31956e-05
-4.6913e-05
2.50818e-05
-4.64638e-05
2.71222e-05
-4.59815e-05
2.93294e-05
-4.54551e-05
3.17175e-05
-4.48887e-05
3.43015e-05
-4.42709e-05
3.70897e-05
-4.36045e-05
4.0106e-05
-4.28802e-05
4.33755e-05
-4.20984e-05
4.69127e-05
-4.12507e-05
5.07396e-05
-4.03326e-05
5.48574e-05
-3.93355e-05
5.93043e-05
-3.82577e-05
6.41475e-05
-3.70909e-05
6.93882e-05
-3.58233e-05
7.49954e-05
-3.44471e-05
8.10888e-05
-3.29584e-05
8.7721e-05
-3.13385e-05
9.48219e-05
-2.95792e-05
0.000102512
-2.76726e-05
0.000110904
-2.55945e-05
0.000119831
-2.33396e-05
0.000129615
-2.08893e-05
0.000140136
-1.82234e-05
0.000151492
-1.53301e-05
0.000163831
-1.21802e-05
0.00017706
-8.76315e-06
0.000191468
-5.04592e-06
0.000206907
-1.0121e-06
0.00022367
3.36749e-06
0.000241692
8.11736e-06
0.000261148
1.32588e-05
0.000282131
1.88335e-05
0.000304568
2.48627e-05
0.000328774
3.13842e-05
0.000354649
3.84352e-05
0.000382259
4.6043e-05
0.00041175
5.4242e-05
0.000443052
6.30687e-05
0.000476097
7.25502e-05
0.000510886
8.27113e-05
0.000547256
9.35735e-05
0.000584954
0.000105153
0.000623635
0.000117453
0.000662811
0.000130474
0.000701811
0.000144193
0.000739737
0.00015858
0.000775395
0.000173567
0.000807223
0.000189037
0.000833188
0.000204908
0.000850672
0.000220959
0.000856318
0.000236952
0.00084584
0.000252498
0.000813861
0.000267133
0.000753411
0.000280228
0.000655524
0.000290925
0.000507958
0.000282099
0.000298105
-4.7188e-05
1.9515e-05
4.75016e-05
-4.68447e-05
2.11008e-05
-4.64692e-05
2.2816e-05
-4.60655e-05
2.46712e-05
-4.56244e-05
2.6678e-05
-4.51503e-05
2.8849e-05
-4.46329e-05
3.11979e-05
-4.40765e-05
3.37396e-05
-4.34694e-05
3.64813e-05
-4.28154e-05
3.94473e-05
-4.21041e-05
4.2663e-05
-4.13373e-05
4.61419e-05
-4.05046e-05
4.99058e-05
-3.9604e-05
5.39532e-05
-3.86248e-05
5.83234e-05
-3.75671e-05
6.30861e-05
-3.64211e-05
6.82399e-05
-3.51768e-05
7.37471e-05
-3.38254e-05
7.97346e-05
-3.23641e-05
8.62553e-05
-3.07739e-05
9.32284e-05
-2.90473e-05
0.000100781
-2.71762e-05
0.000109029
-2.51373e-05
0.000117788
-2.29252e-05
0.000127399
-2.05217e-05
0.000137728
-1.79071e-05
0.000148873
-1.50698e-05
0.000160989
-1.19812e-05
0.000173967
-8.63085e-06
0.000188113
-4.9867e-06
0.000203257
-1.03313e-06
0.000219711
3.26146e-06
0.000237395
7.91638e-06
0.000256487
1.29565e-05
0.000277084
1.84208e-05
0.000299096
2.43307e-05
0.000322857
3.07232e-05
0.000348249
3.76351e-05
0.00037534
4.50932e-05
0.000404286
5.31316e-05
0.000435009
6.17865e-05
0.000467438
7.10849e-05
0.000501585
8.10517e-05
0.000537288
9.17085e-05
0.000574297
0.000103072
0.000612273
0.000115146
0.000650737
0.000127931
0.000689031
0.000141405
0.000726266
0.000155538
0.000761269
0.000170262
0.000792504
0.000185462
0.000817965
0.000201055
0.000835094
0.000216824
0.000840556
0.000232532
0.00083016
0.000247797
0.000798608
0.000262164
0.000739068
0.000275014
0.000642714
0.000285524
0.000497523
0.000275191
0.000292642
-4.63348e-05
1.91978e-05
4.66464e-05
-4.59967e-05
2.07577e-05
-4.56277e-05
2.24448e-05
-4.52312e-05
2.42696e-05
-4.47982e-05
2.62435e-05
-4.43331e-05
2.83789e-05
-4.38259e-05
3.06894e-05
-4.32798e-05
3.31895e-05
-4.26848e-05
3.58856e-05
-4.20424e-05
3.88024e-05
-4.13448e-05
4.19652e-05
-4.05911e-05
4.5387e-05
-3.97745e-05
4.9089e-05
-3.88895e-05
5.30674e-05
-3.79288e-05
5.73619e-05
-3.68899e-05
6.20457e-05
-3.57655e-05
6.71138e-05
-3.45439e-05
7.25227e-05
-3.32179e-05
7.84059e-05
-3.17835e-05
8.4817e-05
-3.02231e-05
9.16648e-05
-2.85286e-05
9.90818e-05
-2.66927e-05
0.00010719
-2.46921e-05
0.000115782
-2.25218e-05
0.000125225
-2.01641e-05
0.000135365
-1.75996e-05
0.000146304
-1.4817e-05
0.000158201
-1.17882e-05
0.000170933
-8.50331e-06
0.000184823
-4.93051e-06
0.000199679
-1.05398e-06
0.000215829
3.15445e-06
0.00023318
7.71876e-06
0.000251919
1.2659e-05
0.000272138
1.80154e-05
0.000293733
2.38085e-05
0.000317056
3.00748e-05
0.000341976
3.68504e-05
0.000368558
4.4162e-05
0.000396968
5.20432e-05
0.000427121
6.05298e-05
0.000458945
6.96487e-05
0.000492459
7.9425e-05
0.000527505
8.98805e-05
0.000563834
0.000101032
0.000601116
0.000112884
0.000638878
0.000125437
0.000676473
0.00013867
0.000713028
0.000152553
0.000747386
0.000167018
0.000778031
0.000181953
0.000802992
0.000197271
0.000819735
0.000212763
0.000825011
0.000228192
0.000814667
0.000243183
0.000783523
0.000257287
0.000724835
0.0002699
0.000629939
0.000280229
0.000487
0.000267861
0.000287272
-4.55046e-05
1.88848e-05
4.58046e-05
-4.51744e-05
2.0419e-05
-4.4813e-05
2.20784e-05
-4.44245e-05
2.38732e-05
-4.39995e-05
2.58148e-05
-4.3543e-05
2.79152e-05
-4.30441e-05
3.01879e-05
-4.25081e-05
3.26472e-05
-4.19226e-05
3.52986e-05
-4.12923e-05
3.81669e-05
-4.06063e-05
4.12779e-05
-3.98672e-05
4.46435e-05
-3.90641e-05
4.82849e-05
-3.81962e-05
5.21955e-05
-3.72519e-05
5.64162e-05
-3.62326e-05
6.10226e-05
-3.51278e-05
6.60071e-05
-3.39288e-05
7.13198e-05
-3.26264e-05
7.71009e-05
-3.12185e-05
8.34049e-05
-2.96866e-05
9.01299e-05
-2.80236e-05
9.74143e-05
-2.62218e-05
0.000105385
-2.42588e-05
0.000113815
-2.21295e-05
0.000123092
-1.98166e-05
0.000133048
-1.7301e-05
0.000143785
-1.45718e-05
0.000155468
-1.16017e-05
0.000167959
-8.38039e-06
0.000181597
-4.87742e-06
0.00019617
-1.07766e-06
0.000212024
3.04966e-06
0.000229051
7.52302e-06
0.000247441
1.23663e-05
0.00026729
1.76171e-05
0.000288475
2.32959e-05
0.000311371
2.94388e-05
0.000335826
3.60812e-05
0.00036191
4.32495e-05
0.000389794
5.09769e-05
0.00041939
5.92988e-05
0.00045062
6.82421e-05
0.000483514
7.78318e-05
0.000517915
8.80898e-05
0.000553577
9.9033e-05
0.000590175
0.000110667
0.000627246
0.000122992
0.000664153
0.000135988
0.000700036
0.000149624
0.000733757
0.000163834
0.000763826
0.000178507
0.000788299
0.000193557
0.000804702
0.000208776
0.000809806
0.000223931
0.000799549
0.000238653
0.000768828
0.0002525
0.000711028
0.000264882
0.000617617
0.000275034
0.000476954
0.000261136
0.000281997
-4.46879e-05
1.85788e-05
4.49866e-05
-4.43627e-05
2.0088e-05
-4.40074e-05
2.17202e-05
-4.36257e-05
2.34858e-05
-4.32085e-05
2.53956e-05
-4.27606e-05
2.74617e-05
-4.22717e-05
2.96973e-05
-4.17456e-05
3.21167e-05
-4.11718e-05
3.47242e-05
-4.05527e-05
3.7545e-05
-3.98799e-05
4.06051e-05
-3.91537e-05
4.39157e-05
-3.83661e-05
4.74975e-05
-3.75133e-05
5.13417e-05
-3.65871e-05
5.54897e-05
-3.55861e-05
6.002e-05
-3.45023e-05
6.4922e-05
-3.33255e-05
7.01401e-05
-3.20477e-05
7.58209e-05
-3.06661e-05
8.20195e-05
-2.91629e-05
8.86238e-05
-2.75311e-05
9.57781e-05
-2.5763e-05
0.000103614
-2.3837e-05
0.000111884
-2.17479e-05
0.000120999
-1.94788e-05
0.000130775
-1.70111e-05
0.000141313
-1.43343e-05
0.000152787
-1.14213e-05
0.000165042
-8.26258e-06
0.000178434
-4.82769e-06
0.00019273
-1.10142e-06
0.000208294
2.94351e-06
0.000225
7.33047e-06
0.000243052
1.20784e-05
0.000262537
1.7226e-05
0.000283322
2.27934e-05
0.000305797
2.88157e-05
0.000329798
3.53279e-05
0.000355391
4.23562e-05
0.00038276
4.99331e-05
0.000411807
5.8094e-05
0.000442453
6.68653e-05
0.000474737
7.62722e-05
0.000508501
8.63367e-05
0.000543505
9.70757e-05
0.000579429
0.000108495
0.000615819
0.000120596
0.000652047
0.000133358
0.00068727
0.000146753
0.000720364
0.000160711
0.000749861
0.000175127
0.000773852
0.000189911
0.000789884
0.000204863
0.000794811
0.000219749
0.00078461
0.000234206
0.000754289
0.000247803
0.000697319
0.000259959
0.000605317
0.000269938
0.000466806
0.000254008
0.000276814
-4.38921e-05
1.82775e-05
4.41831e-05
-4.35733e-05
1.9762e-05
-4.32245e-05
2.13676e-05
-4.28497e-05
2.31043e-05
-4.244e-05
2.49829e-05
-4.19997e-05
2.70154e-05
-4.1519e-05
2.92146e-05
-4.10024e-05
3.15946e-05
-4.04385e-05
3.4159e-05
-3.98312e-05
3.69331e-05
-3.91706e-05
3.99432e-05
-3.84586e-05
4.31997e-05
-3.76852e-05
4.67229e-05
-3.6849e-05
5.05019e-05
-3.59395e-05
5.45786e-05
-3.49576e-05
5.90344e-05
-3.38934e-05
6.38558e-05
-3.27385e-05
6.89812e-05
-3.1484e-05
7.45639e-05
-3.0128e-05
8.06593e-05
-2.86525e-05
8.71455e-05
-2.70511e-05
9.41723e-05
-2.53161e-05
0.000101875
-2.34262e-05
0.00010999
-2.13765e-05
0.000118946
-1.91504e-05
0.000128544
-1.67297e-05
0.000138889
-1.4104e-05
0.000150157
-1.12471e-05
0.000162181
-8.14914e-06
0.000175332
-4.78098e-06
0.000189357
-1.12803e-06
0.000204636
2.83964e-06
0.000221031
7.13973e-06
0.000238748
1.17953e-05
0.000257877
1.68421e-05
0.000278269
2.23004e-05
0.000300333
2.82049e-05
0.000323888
3.459e-05
0.000349002
4.14814e-05
0.000375865
4.89114e-05
0.000404374
5.69147e-05
0.000434448
6.55178e-05
0.000466133
7.47457e-05
0.000499274
8.46205e-05
0.000533632
9.51594e-05
0.000568894
0.000106369
0.000604612
0.000118249
0.000640173
0.000130781
0.000674742
0.000143937
0.000707218
0.000157648
0.000736155
0.00017181
0.000759673
0.000186333
0.000775377
0.000201022
0.000780143
0.000215643
0.000770032
0.000229842
0.000740126
0.000243193
0.000684021
0.000255129
0.000593454
0.000264937
0.000457127
0.000247481
0.000271725
-4.31096e-05
1.7983e-05
4.33995e-05
-4.27955e-05
1.94434e-05
-4.24527e-05
2.1023e-05
-4.20844e-05
2.27314e-05
-4.16823e-05
2.45795e-05
-4.12504e-05
2.6579e-05
-4.07796e-05
2.87425e-05
-4.02726e-05
3.10839e-05
-3.97201e-05
3.3606e-05
-3.91236e-05
3.63343e-05
-3.84759e-05
3.92954e-05
-3.77761e-05
4.24989e-05
-3.70179e-05
4.59646e-05
-3.61963e-05
4.96796e-05
-3.53043e-05
5.36862e-05
-3.434e-05
5.80687e-05
-3.32963e-05
6.28107e-05
-3.21627e-05
6.78449e-05
-3.09321e-05
7.3331e-05
-2.96015e-05
7.93249e-05
-2.81538e-05
8.5695e-05
-2.65825e-05
9.25967e-05
-2.48801e-05
0.00010017
-2.30259e-05
0.000108131
-2.10148e-05
0.000116932
-1.8831e-05
0.000126356
-1.64563e-05
0.000136511
-1.38808e-05
0.000147578
-1.10785e-05
0.000159375
-8.04041e-06
0.00017229
-4.73726e-06
0.00018605
-1.15443e-06
0.000201049
2.73451e-06
0.000217138
6.95229e-06
0.000234529
1.15168e-05
0.000253309
1.64653e-05
0.000273316
2.18173e-05
0.000294976
2.76068e-05
0.000318093
3.38677e-05
0.000342736
4.06253e-05
0.000369102
4.79116e-05
0.000397083
5.57608e-05
0.000426593
6.41993e-05
0.000457688
7.32519e-05
0.000490215
8.29408e-05
0.000523936
9.32832e-05
0.000558545
0.000104286
0.000593603
0.00011595
0.000628505
0.000128256
0.000662432
0.000141176
0.0006943
0.000154644
0.000722684
0.000168557
0.000745736
0.000182823
0.000761082
0.000197252
0.000765675
0.000211614
0.000755622
0.000225559
0.000726106
0.000238668
0.000670807
0.000250389
0.000581602
0.000260031
0.000447332
0.000240565
0.000266725
-4.23486e-05
1.76922e-05
4.2627e-05
-4.20422e-05
1.91288e-05
-4.17065e-05
2.06826e-05
-4.13458e-05
2.23633e-05
-4.0951e-05
2.41813e-05
-4.05272e-05
2.61483e-05
-4.00638e-05
2.82768e-05
-3.95662e-05
3.05803e-05
-3.90224e-05
3.30608e-05
-3.84374e-05
3.57442e-05
-3.78002e-05
3.86572e-05
-3.71143e-05
4.18086e-05
-3.63685e-05
4.52181e-05
-3.55631e-05
4.88702e-05
-3.46864e-05
5.28083e-05
-3.37406e-05
5.71191e-05
-3.27151e-05
6.17836e-05
-3.16028e-05
6.67287e-05
-3.03942e-05
7.21203e-05
-2.90884e-05
7.8015e-05
-2.76674e-05
8.42715e-05
-2.61255e-05
9.10505e-05
-2.44549e-05
9.84966e-05
-2.26356e-05
0.000106308
-2.06625e-05
0.000114956
-1.852e-05
0.00012421
-1.61904e-05
0.000134178
-1.36639e-05
0.000145048
-1.09154e-05
0.000156622
-7.93544e-06
0.000169306
-4.69612e-06
0.000182806
-1.18334e-06
0.000197532
2.63196e-06
0.000213322
6.76676e-06
0.00023039
1.12431e-05
0.000248829
1.60956e-05
0.000268458
2.13436e-05
0.000289722
2.70206e-05
0.000312412
3.31602e-05
0.000336592
3.97871e-05
0.000362472
4.69329e-05
0.000389935
5.46315e-05
0.000418893
6.29089e-05
0.000449411
7.179e-05
0.000481335
8.12967e-05
0.000514432
9.14464e-05
0.000548399
0.000102246
0.000582807
0.000113697
0.000617061
0.000125781
0.000650354
0.000138469
0.000681622
0.000151698
0.000709461
0.000165364
0.000732054
0.000179378
0.000747083
0.000193552
0.000751526
0.000207659
0.000741563
0.000221354
0.000712454
0.000234229
0.000657994
0.000245739
0.000570176
0.000255216
0.000438003
0.000234241
0.000261817
-4.15989e-05
1.74082e-05
4.18768e-05
-4.12968e-05
1.88215e-05
-4.09667e-05
2.03502e-05
-4.06124e-05
2.20036e-05
-4.02249e-05
2.37922e-05
-3.98091e-05
2.57274e-05
-3.93551e-05
2.78214e-05
-3.88668e-05
3.00879e-05
-3.8334e-05
3.25277e-05
-3.77594e-05
3.51671e-05
-3.71348e-05
3.80329e-05
-3.64607e-05
4.11332e-05
-3.57296e-05
4.44875e-05
-3.49382e-05
4.8078e-05
-3.40785e-05
5.19486e-05
-3.31498e-05
5.61889e-05
-3.21442e-05
6.0777e-05
-3.10526e-05
6.56344e-05
-2.98671e-05
7.0933e-05
-2.85859e-05
7.67301e-05
-2.71918e-05
8.28749e-05
-2.5679e-05
8.95335e-05
-2.40399e-05
9.68547e-05
-2.22549e-05
0.000104519
-2.0319e-05
0.000113017
-1.82171e-05
0.000122104
-1.59317e-05
0.000131889
-1.34534e-05
0.000142566
-1.07572e-05
0.000153923
-7.83462e-06
0.00016638
-4.65743e-06
0.000179624
-1.21165e-06
0.000194083
2.52837e-06
0.000209578
6.58469e-06
0.000226334
1.09742e-05
0.000244437
1.57328e-05
0.000263695
2.08793e-05
0.000284571
2.64466e-05
0.00030684
3.24676e-05
0.000330567
3.89668e-05
0.000355968
4.59753e-05
0.000382922
5.35265e-05
0.000411337
6.16463e-05
0.000441286
7.03592e-05
0.000472617
7.96874e-05
0.000505098
8.96481e-05
0.000538434
0.000100249
0.000572201
0.00011149
0.000605816
0.000123355
0.000638487
0.000135816
0.000669164
0.000148808
0.000696468
0.000162234
0.00071861
0.000175998
0.000733293
0.000189922
0.000737568
0.000203778
0.000727665
0.000217229
0.000698936
0.000229872
0.000645258
0.000241176
0.000558753
0.000250491
0.000428552
0.000227544
0.000256996
-4.08683e-05
1.71284e-05
4.11386e-05
-4.05723e-05
1.85188e-05
-4.02484e-05
2.00227e-05
-3.99003e-05
2.16494e-05
-3.95198e-05
2.34091e-05
-3.9111e-05
2.5313e-05
-3.86647e-05
2.73733e-05
-3.81851e-05
2.96032e-05
-3.76616e-05
3.2003e-05
-3.7098e-05
3.4599e-05
-3.64847e-05
3.74185e-05
-3.58241e-05
4.04687e-05
-3.51062e-05
4.37686e-05
-3.43306e-05
4.72986e-05
-3.34864e-05
5.11032e-05
-3.25757e-05
5.52744e-05
-3.15882e-05
5.97878e-05
-3.05171e-05
6.45593e-05
-2.93533e-05
6.97671e-05
-2.80961e-05
7.54686e-05
-2.67277e-05
8.15041e-05
-2.52432e-05
8.80447e-05
-2.36348e-05
9.52435e-05
-2.18834e-05
0.000102763
-1.9984e-05
0.000111115
-1.79218e-05
0.000120038
-1.56798e-05
0.000129644
-1.32485e-05
0.000140131
-1.06039e-05
0.000151275
-7.73694e-06
0.000163509
-4.62087e-06
0.000176504
-1.24208e-06
0.0001907
2.42768e-06
0.000205908
6.40465e-06
0.000222354
1.071e-05
0.000240129
1.53769e-05
0.000259024
2.04241e-05
0.00027952
2.58842e-05
0.000301376
3.17892e-05
0.000324658
3.81636e-05
0.000349592
4.50378e-05
0.000376046
5.24449e-05
0.00040393
6.04104e-05
0.000433321
6.89588e-05
0.000464071
7.8112e-05
0.000495948
8.78874e-05
0.000528664
9.82923e-05
0.000561801
0.000109328
0.000594788
0.000120979
0.000626844
0.000133215
0.000656939
0.000145976
0.000683713
0.000159162
0.00070541
0.000172682
0.000719786
0.000186359
0.000723919
0.000199969
0.000714105
0.00021318
0.000685773
0.000225596
0.000632909
0.000236698
0.000547745
0.000245854
0.00041956
0.000221428
0.000252263
-4.01489e-05
1.68551e-05
4.04188e-05
-3.98571e-05
1.82232e-05
-3.95387e-05
1.97029e-05
-3.91967e-05
2.13034e-05
-3.88235e-05
2.30347e-05
-3.84226e-05
2.4908e-05
-3.79856e-05
2.69352e-05
-3.7515e-05
2.91294e-05
-3.70024e-05
3.14899e-05
-3.64488e-05
3.40434e-05
-3.58478e-05
3.68174e-05
-3.51984e-05
3.98184e-05
-3.44949e-05
4.3065e-05
-3.37326e-05
4.65357e-05
-3.29051e-05
5.02752e-05
-3.20106e-05
5.43785e-05
-3.10424e-05
5.88182e-05
-2.99911e-05
6.35054e-05
-2.88497e-05
6.86235e-05
-2.7616e-05
7.42312e-05
-2.62736e-05
8.01592e-05
-2.48171e-05
8.6584e-05
-2.3239e-05
9.36627e-05
-2.15206e-05
0.000101041
-1.9657e-05
0.000109249
-1.76339e-05
0.000118011
-1.54342e-05
0.000127441
-1.30492e-05
0.000137743
-1.04548e-05
0.000148677
-7.64287e-06
0.000160694
-4.58624e-06
0.000173444
-1.27151e-06
0.000187383
2.32616e-06
0.000202307
6.22823e-06
0.000218452
1.04506e-05
0.000235904
1.50278e-05
0.000254443
1.99781e-05
0.000274566
2.53333e-05
0.000296017
3.11251e-05
0.000318863
3.73774e-05
0.000343336
4.41203e-05
0.0003693
5.13863e-05
0.00039666
5.92008e-05
0.000425503
6.7588e-05
0.000455679
7.65697e-05
0.000486962
8.61633e-05
0.000519066
9.63764e-05
0.000551585
0.000107211
0.000583952
0.000118649
0.000615405
0.000130666
0.000644927
0.000143197
0.000671184
0.000156151
0.000692444
0.00016943
0.000706484
0.000182864
0.000710452
0.000196231
0.000700696
0.000209207
0.000672733