/*--------------------------------*- C++ -*----------------------------------*\
  =========                 |
  \\      /  F ield         | OpenFOAM: The Open Source CFD Toolbox
   \\    /   O peration     | Website:  https://openfoam.org
    \\  /    A nd           | Version:  6.0
     \\/     M anipulation  |
\*---------------------------------------------------------------------------*/
FoamFile
{
    version     2.0;
    format      ascii;
    class       volVectorField;
    location    "2";
    object      U;
}
// * * * * * * * * * * * * * * * * * * * * * * * * * * * * * * * * * * * * * //

dimensions      [0 1 -1 0 0 0 0];

internalField   nonuniform List<vector> 
62000
(
(0.984078 0.178441 -2.158e-20)
(0.984043 0.178403 1.81231e-20)
(0.984012 0.178322 1.90517e-20)
(0.983982 0.178242 -8.504e-20)
(0.983955 0.178158 -9.96169e-20)
(0.98393 0.178072 3.47762e-19)
(0.983908 0.177984 -3.89883e-19)
(0.983889 0.177894 2.30258e-19)
(0.983874 0.177801 -1.10712e-19)
(0.983862 0.177706 -5.78354e-19)
(0.983853 0.17761 -8.06793e-20)
(0.983848 0.177513 8.35459e-19)
(0.983848 0.177414 1.75982e-19)
(0.983851 0.177314 -6.23491e-19)
(0.983858 0.177214 9.94567e-19)
(0.983869 0.177113 -5.35086e-19)
(0.983885 0.177012 5.70956e-19)
(0.983904 0.176911 -6.7815e-19)
(0.983928 0.176809 3.44387e-19)
(0.983956 0.176705 -1.0803e-18)
(0.983988 0.176601 1.43369e-18)
(0.984024 0.176494 4.38658e-19)
(0.984063 0.176385 6.45938e-19)
(0.984106 0.176273 -2.93692e-18)
(0.984153 0.176158 1.0932e-18)
(0.984201 0.176037 -6.90969e-19)
(0.984252 0.175912 -1.26806e-20)
(0.984303 0.175779 -5.77019e-19)
(0.984354 0.175639 1.80925e-18)
(0.984403 0.175489 -1.02539e-18)
(0.984447 0.175329 2.49632e-18)
(0.984483 0.175162 -5.22505e-18)
(0.984507 0.174982 5.0066e-19)
(0.984516 0.174781 -1.70136e-18)
(0.984507 0.174556 -5.42262e-19)
(0.984475 0.1743 -1.67746e-18)
(0.984418 0.174007 -4.80574e-19)
(0.984327 0.173672 -4.70958e-19)
(0.984198 0.173289 1.57506e-18)
(0.984024 0.172855 7.06212e-18)
(0.983798 0.172364 -1.65326e-18)
(0.983516 0.171813 -9.32184e-18)
(0.983174 0.171202 -1.42275e-17)
(0.982771 0.170532 7.41285e-18)
(0.98231 0.169807 2.14104e-18)
(0.981799 0.169037 -9.47546e-18)
(0.981253 0.168231 1.83719e-18)
(0.980691 0.167401 -3.47578e-18)
(0.980138 0.166556 -1.4669e-17)
(0.979622 0.165696 -3.08649e-18)
(0.979171 0.164811 -1.4076e-18)
(0.978802 0.163884 -1.6838e-17)
(0.97853 0.162847 2.51848e-18)
(0.978381 0.16163 1.51399e-17)
(0.978364 0.160121 3.47601e-18)
(0.978514 0.158176 1.10766e-17)
(0.978857 0.155523 -9.93005e-19)
(0.979482 0.151636 -1.28516e-18)
(0.980496 0.14523 3.31905e-18)
(0.979052 0.128549 3.97099e-19)
(0.983765 0.18087 -5.87245e-21)
(0.983694 0.180904 5.71421e-20)
(0.983623 0.180876 2.45135e-20)
(0.983554 0.180847 -1.04888e-19)
(0.983485 0.180813 4.43968e-20)
(0.983419 0.180774 -3.13763e-19)
(0.983355 0.180729 2.90789e-19)
(0.983295 0.180677 1.73015e-19)
(0.983238 0.18062 -3.28445e-19)
(0.983186 0.180555 1.33247e-20)
(0.983139 0.180484 3.31597e-19)
(0.983097 0.180405 2.42429e-21)
(0.983063 0.180319 1.01338e-19)
(0.983035 0.180226 -8.68877e-19)
(0.983014 0.180126 1.7814e-18)
(0.983001 0.180018 -1.59949e-18)
(0.982996 0.179903 7.66708e-19)
(0.983 0.179779 -1.6317e-19)
(0.983012 0.179646 -4.57774e-19)
(0.983033 0.179503 1.29726e-18)
(0.983063 0.179349 -2.07967e-18)
(0.983102 0.179183 1.22989e-18)
(0.98315 0.179003 -1.60227e-18)
(0.983206 0.178807 9.64664e-19)
(0.983271 0.178593 9.15134e-19)
(0.983342 0.178359 -6.13923e-19)
(0.983421 0.178102 -5.28196e-21)
(0.983503 0.177817 7.03725e-19)
(0.983589 0.177503 6.03389e-19)
(0.983675 0.177155 -1.26206e-18)
(0.983758 0.176769 2.60358e-18)
(0.983832 0.17635 5.39132e-19)
(0.983895 0.17588 1.67762e-18)
(0.983936 0.175364 1.15611e-19)
(0.983949 0.174797 4.50306e-19)
(0.983929 0.174169 -5.16821e-19)
(0.983866 0.173477 -1.53805e-18)
(0.983751 0.172716 -7.78287e-19)
(0.983575 0.171887 -4.15726e-18)
(0.983328 0.170989 -4.64186e-18)
(0.982999 0.170028 3.61283e-18)
(0.98258 0.169009 2.03803e-18)
(0.982066 0.167942 1.5096e-17)
(0.981457 0.166841 8.93661e-19)
(0.980758 0.16572 -2.15875e-17)
(0.979984 0.164595 8.06876e-18)
(0.979158 0.163479 5.98748e-18)
(0.978311 0.162379 7.00822e-18)
(0.977482 0.161292 7.05372e-19)
(0.976711 0.160201 3.98528e-20)
(0.97604 0.159069 9.02588e-18)
(0.975491 0.157849 2.16814e-17)
(0.975094 0.156442 -1.29566e-17)
(0.97488 0.154738 -3.03576e-17)
(0.974867 0.152581 -6.96366e-18)
(0.975098 0.149756 -2.56866e-18)
(0.975619 0.145894 -1.02632e-17)
(0.976553 0.1403 -4.07802e-18)
(0.97807 0.131387 7.58677e-18)
(0.97782 0.110684 2.57493e-18)
(0.983668 0.181163 -2.90276e-20)
(0.983587 0.181235 -4.38526e-21)
(0.983506 0.18124 4.42689e-21)
(0.983423 0.181246 2.14398e-20)
(0.983339 0.181248 6.22893e-20)
(0.983255 0.181246 -5.97538e-20)
(0.983172 0.18124 3.27162e-19)
(0.98309 0.181228 -1.56619e-19)
(0.98301 0.18121 -8.56973e-20)
(0.982933 0.181186 -5.44309e-19)
(0.98286 0.181154 4.64762e-19)
(0.982791 0.181114 3.51564e-20)
(0.982729 0.181066 -1.10981e-19)
(0.982673 0.181007 3.00548e-19)
(0.982624 0.180939 -5.23972e-19)
(0.982583 0.18086 1.81831e-21)
(0.982551 0.180769 -2.52109e-19)
(0.982528 0.180665 1.18865e-21)
(0.982515 0.180547 6.0243e-19)
(0.982513 0.180413 -9.37895e-19)
(0.98252 0.180263 5.94111e-19)
(0.982539 0.180094 2.37055e-18)
(0.982567 0.179905 -3.0534e-19)
(0.982606 0.179692 -3.41519e-18)
(0.982654 0.179454 1.78413e-18)
(0.982712 0.179188 -9.93404e-19)
(0.982777 0.17889 1.64462e-18)
(0.982848 0.178556 -1.01285e-18)
(0.982924 0.178183 -2.04858e-18)
(0.983001 0.177765 2.22668e-18)
(0.983076 0.177299 -1.59609e-18)
(0.983144 0.176791 2.16997e-18)
(0.983206 0.176215 -6.01046e-18)
(0.983252 0.175585 5.25403e-18)
(0.983268 0.174896 -2.75774e-18)
(0.98325 0.174138 1.12251e-18)
(0.983189 0.173307 8.50627e-19)
(0.983074 0.1724 -2.64768e-20)
(0.982897 0.171419 -1.81584e-19)
(0.982647 0.170365 4.92856e-18)
(0.982311 0.169246 -1.85282e-18)
(0.981883 0.168071 2.81296e-18)
(0.981354 0.166853 -9.83747e-18)
(0.980725 0.165608 -4.67375e-18)
(0.979999 0.164355 4.48086e-18)
(0.979189 0.163109 -1.63512e-17)
(0.978319 0.161885 1.89088e-18)
(0.977421 0.160687 -1.23836e-17)
(0.976533 0.159509 1.62394e-17)
(0.975698 0.158325 3.75654e-18)
(0.974962 0.157092 2.42405e-18)
(0.97435 0.155756 1.74465e-19)
(0.973899 0.154209 6.8989e-18)
(0.973645 0.152326 -2.40363e-18)
(0.973612 0.149946 -1.4117e-17)
(0.973843 0.146828 -5.50647e-18)
(0.974391 0.142585 -7.56362e-18)
(0.975378 0.136492 -1.60122e-17)
(0.976986 0.126964 1.35793e-18)
(0.977686 0.105644 2.24649e-18)
(0.983578 0.181172 -2.94677e-20)
(0.983492 0.181257 9.12854e-20)
(0.983404 0.181275 -1.37666e-20)
(0.983313 0.181296 -9.66848e-20)
(0.98322 0.181315 1.48006e-19)
(0.983126 0.181332 2.6034e-19)
(0.98303 0.181346 -3.41511e-19)
(0.982933 0.181357 3.78618e-20)
(0.982836 0.181364 1.23067e-19)
(0.98274 0.181365 2.60651e-19)
(0.982646 0.18136 -4.84682e-19)
(0.982555 0.181347 -1.52945e-19)
(0.982467 0.181327 -1.74182e-19)
(0.982385 0.181297 7.99611e-19)
(0.982308 0.181257 -5.41203e-19)
(0.982238 0.181205 1.2869e-18)
(0.982176 0.18114 -1.58077e-18)
(0.982124 0.181061 -2.38541e-19)
(0.98208 0.180965 1.72085e-18)
(0.982048 0.180851 -6.06825e-19)
(0.982026 0.180716 -2.26888e-19)
(0.982015 0.180559 -2.46329e-19)
(0.982016 0.180377 -2.27777e-18)
(0.982027 0.180166 1.32356e-18)
(0.98205 0.179925 -6.13939e-19)
(0.982083 0.179649 9.9871e-19)
(0.982125 0.179336 4.76002e-19)
(0.982174 0.17898 2.38125e-18)
(0.982229 0.178578 -1.51595e-18)
(0.982286 0.178123 -2.00678e-18)
(0.982342 0.177615 3.21202e-18)
(0.982393 0.177057 -2.67094e-18)
(0.982446 0.176418 4.91578e-18)
(0.982489 0.175722 -2.91941e-18)
(0.982501 0.174964 1.22332e-18)
(0.982479 0.174133 2.04353e-18)
(0.982413 0.173225 -8.54409e-19)
(0.982294 0.172237 1.00513e-18)
(0.982113 0.171171 -5.47949e-19)
(0.981858 0.170029 1.51003e-18)
(0.981518 0.16882 -4.22296e-18)
(0.981085 0.167554 1.12498e-18)
(0.980552 0.166245 2.35626e-18)
(0.979916 0.164909 5.74408e-18)
(0.979182 0.163566 6.96259e-18)
(0.978363 0.162232 1.1336e-18)
(0.977478 0.16092 1.03298e-17)
(0.976562 0.159633 1.05915e-17)
(0.975651 0.158363 1.20934e-17)
(0.974789 0.157082 -8.22464e-18)
(0.974024 0.155744 -9.60449e-18)
(0.97338 0.15429 6.61393e-18)
(0.972902 0.152608 8.60099e-18)
(0.972626 0.150567 1.5835e-17)
(0.972585 0.147999 8.87283e-18)
(0.972823 0.144652 1.76833e-17)
(0.973394 0.140125 2.84357e-17)
(0.974421 0.133678 -4.77563e-18)
(0.976103 0.12375 -1.44889e-17)
(0.977566 0.102138 -1.11993e-17)
(0.9835 0.181119 5.78778e-20)
(0.983408 0.181209 -1.92082e-20)
(0.983314 0.181232 3.3521e-20)
(0.983216 0.181258 -4.71196e-20)
(0.983115 0.181283 1.08385e-19)
(0.983011 0.181307 -5.33754e-20)
(0.982904 0.18133 3.01359e-20)
(0.982796 0.18135 -4.45415e-19)
(0.982686 0.181366 3.76417e-19)
(0.982575 0.181379 -7.66228e-19)
(0.982464 0.181387 8.50433e-19)
(0.982353 0.181389 -1.03954e-19)
(0.982245 0.181385 -2.33883e-19)
(0.98214 0.181371 -1.09101e-19)
(0.982038 0.181349 -2.4941e-20)
(0.981942 0.181315 -1.12999e-18)
(0.981852 0.181269 4.44472e-20)
(0.981769 0.181207 1.25461e-18)
(0.981695 0.181129 -4.14881e-19)
(0.981631 0.181032 -4.44623e-19)
(0.981576 0.180913 7.51709e-19)
(0.981533 0.180769 -3.81469e-19)
(0.981501 0.180598 1.61925e-18)
(0.98148 0.180397 9.06011e-19)
(0.98147 0.18016 7.02992e-19)
(0.981472 0.179886 -2.19453e-18)
(0.981483 0.17957 -3.13818e-19)
(0.981502 0.179207 -1.77223e-18)
(0.981528 0.178793 3.34617e-19)
(0.981557 0.178323 -6.08219e-19)
(0.981586 0.177793 -2.45233e-19)
(0.981611 0.17721 1.97932e-18)
(0.981649 0.176538 -4.96087e-18)
(0.981684 0.175808 -2.30389e-19)
(0.98169 0.175015 -2.43303e-18)
(0.981661 0.174148 -1.16825e-18)
(0.981589 0.173203 2.69294e-19)
(0.981466 0.172176 -3.63598e-18)
(0.981282 0.17107 5.46049e-18)
(0.981026 0.169887 9.52214e-19)
(0.980689 0.168633 5.81051e-18)
(0.980261 0.167321 -4.15311e-18)
(0.979736 0.165964 -2.78698e-18)
(0.979111 0.164577 -9.07735e-19)
(0.978389 0.163178 5.31878e-18)
(0.977583 0.161784 7.33485e-18)
(0.976711 0.160406 2.02137e-18)
(0.975803 0.159048 3.12532e-18)
(0.974898 0.157699 -3.50316e-18)
(0.974037 0.156331 2.13061e-17)
(0.973267 0.154897 5.10801e-18)
(0.972613 0.153335 -4.30254e-18)
(0.972125 0.151536 2.78958e-18)
(0.971841 0.149362 1.48468e-17)
(0.971798 0.146645 -1.644e-18)
(0.972041 0.143123 -1.34346e-17)
(0.972627 0.13839 -3.33745e-17)
(0.973679 0.131701 2.95614e-17)
(0.975409 0.121517 -1.88359e-17)
(0.97744 0.0997536 1.49016e-17)
(0.983423 0.181066 -2.22977e-20)
(0.983324 0.181154 9.10305e-20)
(0.983223 0.181176 -1.51736e-19)
(0.983118 0.181202 1.14621e-19)
(0.983009 0.181228 7.60392e-20)
(0.982896 0.181254 -8.07472e-20)
(0.98278 0.181278 7.03773e-21)
(0.98266 0.181301 -6.27228e-20)
(0.982538 0.181321 -2.14848e-19)
(0.982414 0.181338 4.15984e-19)
(0.982289 0.181351 -6.55331e-19)
(0.982162 0.181359 5.79378e-19)
(0.982036 0.181361 5.20856e-19)
(0.981911 0.181355 -8.12686e-19)
(0.981788 0.181342 -2.71181e-19)
(0.981667 0.181318 1.02417e-18)
(0.981552 0.181282 -1.25679e-18)
(0.981442 0.181233 1.76056e-18)
(0.981338 0.181167 -3.34888e-19)
(0.981242 0.181081 1.98873e-19)
(0.981156 0.180974 -3.1657e-19)
(0.981079 0.180842 -4.04578e-19)
(0.981012 0.180681 -7.62755e-19)
(0.980957 0.180489 1.3387e-18)
(0.980912 0.18026 -9.28958e-19)
(0.980878 0.179991 -9.22308e-19)
(0.980854 0.179679 1.91786e-18)
(0.980839 0.179316 -1.8683e-18)
(0.980831 0.1789 2.9962e-18)
(0.980827 0.178424 -1.62167e-18)
(0.980825 0.177887 1.24612e-18)
(0.980819 0.177295 -2.14966e-18)
(0.980838 0.176608 2.28584e-18)
(0.980863 0.175864 -2.06268e-19)
(0.98086 0.175059 -1.15076e-19)
(0.980823 0.17418 -6.30065e-20)
(0.980744 0.173222 -1.1877e-18)
(0.980616 0.172183 3.22635e-18)
(0.98043 0.171064 -2.43936e-18)
(0.980176 0.169867 -1.38205e-17)
(0.979845 0.168599 -5.70928e-18)
(0.979427 0.167269 3.91081e-18)
(0.978917 0.16589 -4.40556e-18)
(0.978312 0.164476 -4.52893e-18)
(0.977614 0.163044 -3.6674e-19)
(0.976833 0.161609 1.09998e-17)
(0.975989 0.160182 -1.53754e-17)
(0.975107 0.158764 -1.48035e-17)
(0.974224 0.157345 -8.94143e-18)
(0.973381 0.155897 -1.47763e-17)
(0.972622 0.154373 9.80185e-18)
(0.971974 0.152713 -3.22748e-18)
(0.971487 0.150807 -2.67349e-17)
(0.971203 0.148515 5.96559e-18)
(0.971163 0.14567 6.76725e-18)
(0.971411 0.142004 -1.41811e-17)
(0.972008 0.137108 8.11382e-18)
(0.973074 0.130231 1.03688e-17)
(0.974841 0.119857 3.02056e-17)
(0.977289 0.0979561 6.303e-19)
(0.983343 0.181025 2.66393e-20)
(0.983237 0.181112 -1.21435e-19)
(0.983129 0.181134 5.93942e-20)
(0.983016 0.181159 1.13352e-19)
(0.982898 0.181184 -2.46413e-19)
(0.982777 0.181209 2.08727e-19)
(0.982651 0.181232 -1.41501e-19)
(0.982521 0.181254 1.2127e-19)
(0.982388 0.181273 1.97401e-19)
(0.982251 0.18129 -4.79103e-19)
(0.982112 0.181304 7.01516e-19)
(0.98197 0.181314 3.04716e-19)
(0.981828 0.181318 -1.21611e-18)
(0.981684 0.181315 -2.3463e-19)
(0.981541 0.181305 6.61946e-19)
(0.981399 0.181285 4.34543e-19)
(0.98126 0.181255 -5.31471e-19)
(0.981125 0.18121 4.7355e-19)
(0.980994 0.181151 7.46081e-19)
(0.980869 0.181072 -3.6046e-19)
(0.980751 0.180972 -2.09454e-19)
(0.980642 0.180847 7.68472e-19)
(0.980541 0.180694 1.60261e-18)
(0.980451 0.180509 -1.16086e-18)
(0.98037 0.180287 -1.30873e-18)
(0.9803 0.180024 1.46788e-18)
(0.98024 0.179717 -1.14299e-18)
(0.980189 0.179358 -4.73732e-19)
(0.980144 0.178944 3.95703e-18)
(0.980105 0.178469 -1.75931e-18)
(0.980068 0.177932 -1.36502e-18)
(0.980029 0.177339 1.81578e-18)
(0.980026 0.176649 1.25381e-18)
(0.980041 0.175904 -1.11099e-18)
(0.980028 0.1751 -7.38445e-19)
(0.979982 0.174224 2.32557e-18)
(0.979896 0.173269 4.83137e-19)
(0.979763 0.172235 7.69827e-19)
(0.979576 0.17112 -4.03716e-18)
(0.979324 0.169927 -3.94171e-18)
(0.979 0.16866 7.40394e-18)
(0.978595 0.16733 5.79501e-18)
(0.978103 0.165945 9.45866e-18)
(0.977521 0.16452 -8.73615e-18)
(0.976852 0.163069 -9.4968e-18)
(0.976104 0.161606 -5.90476e-18)
(0.975294 0.160139 1.40946e-17)
(0.974448 0.15867 1.34459e-17)
(0.973597 0.157188 -1.42062e-17)
(0.972781 0.155666 -2.06027e-17)
(0.972044 0.154057 -2.82583e-18)
(0.971411 0.152303 4.00936e-18)
(0.970934 0.150297 2.86665e-20)
(0.970657 0.147897 -9.5208e-18)
(0.970623 0.144937 8.78412e-18)
(0.970877 0.141145 4.56531e-18)
(0.971483 0.136108 6.58655e-18)
(0.97256 0.129074 -3.13129e-17)
(0.974358 0.118536 -1.57236e-18)
(0.977122 0.0964716 1.57604e-18)
(0.983261 0.180997 -4.54708e-20)
(0.983148 0.181082 -3.70997e-20)
(0.983032 0.181102 4.99964e-20)
(0.982911 0.181126 1.81169e-19)
(0.982785 0.18115 -3.94879e-19)
(0.982654 0.181173 4.57294e-19)
(0.982518 0.181196 -1.94946e-20)
(0.982377 0.181216 -2.81545e-20)
(0.982232 0.181235 -1.69386e-19)
(0.982083 0.181251 4.18925e-19)
(0.98193 0.181264 -6.51707e-19)
(0.981774 0.181273 2.48049e-19)
(0.981616 0.181276 -8.64739e-21)
(0.981455 0.181273 4.0055e-19)
(0.981294 0.181263 1.9483e-19)
(0.981132 0.181245 -1.03915e-18)
(0.98097 0.181215 9.12396e-19)
(0.980811 0.181173 3.65503e-19)
(0.980655 0.181116 -1.05763e-18)
(0.980502 0.181041 5.24418e-19)
(0.980355 0.180945 2.47994e-19)
(0.980215 0.180825 -1.61728e-19)
(0.980082 0.180676 2.14036e-19)
(0.979958 0.180497 -1.18887e-19)
(0.979842 0.18028 -1.44112e-18)
(0.979736 0.180022 9.57331e-19)
(0.979639 0.17972 -1.47578e-18)
(0.979551 0.179365 2.75603e-18)
(0.97947 0.178957 -5.18562e-19)
(0.979394 0.178485 -3.16393e-19)
(0.979321 0.177952 -8.65875e-20)
(0.979248 0.177364 3.01843e-18)
(0.979222 0.176678 -1.22373e-18)
(0.979227 0.17594 -7.43102e-19)
(0.979204 0.175145 1.8477e-18)
(0.979148 0.174279 1.56172e-18)
(0.979055 0.173337 -2.58858e-18)
(0.978918 0.172316 4.63632e-19)
(0.978728 0.171215 4.86722e-18)
(0.978479 0.170035 -4.86028e-19)
(0.978162 0.16878 3.08426e-18)
(0.97777 0.167459 -4.35937e-18)
(0.977297 0.166079 6.55872e-18)
(0.97674 0.164651 1.38724e-17)
(0.976101 0.16319 3.8284e-18)
(0.975389 0.161706 -5.35081e-18)
(0.974617 0.160207 -1.58761e-17)
(0.973809 0.158693 3.20367e-18)
(0.972996 0.157153 4.36324e-18)
(0.972214 0.155561 8.41201e-18)
(0.971505 0.153872 -4.46291e-19)
(0.970893 0.152029 -1.63019e-17)
(0.970431 0.149928 1.3824e-17)
(0.970165 0.147426 -9.23323e-18)
(0.970141 0.144357 1.89899e-17)
(0.970403 0.140449 4.30927e-18)
(0.971018 0.135284 2.03365e-17)
(0.972104 0.128105 2.73383e-17)
(0.973932 0.117411 5.17227e-18)
(0.976936 0.0951501 8.20966e-18)
(0.983174 0.180986 -2.2348e-20)
(0.983054 0.181073 1.92938e-20)
(0.98293 0.181093 9.87675e-20)
(0.9828 0.181117 1.58865e-19)
(0.982665 0.18114 -4.71867e-19)
(0.982524 0.181162 2.74295e-19)
(0.982378 0.181182 -4.98936e-19)
(0.982226 0.181201 7.87938e-19)
(0.98207 0.181218 -3.727e-19)
(0.981908 0.181232 6.68096e-20)
(0.981742 0.181243 7.41281e-19)
(0.981572 0.18125 -1.70145e-18)
(0.981398 0.181252 1.17098e-18)
(0.981221 0.181247 1.68863e-19)
(0.981041 0.181236 2.76288e-19)
(0.98086 0.181216 -1.15493e-18)
(0.980678 0.181185 5.73407e-19)
(0.980497 0.181143 -7.19113e-19)
(0.980316 0.181085 1.43638e-18)
(0.980138 0.181011 -1.88952e-19)
(0.979964 0.180916 -1.85564e-18)
(0.979794 0.180798 7.39729e-19)
(0.97963 0.180651 -4.28903e-20)
(0.979474 0.180475 -2.79048e-18)
(0.979324 0.180261 2.09089e-18)
(0.979183 0.180008 1.58855e-18)
(0.97905 0.17971 1.0953e-18)
(0.978926 0.17936 -1.41497e-18)
(0.978808 0.178956 -1.57216e-18)
(0.978696 0.17849 7.36586e-19)
(0.978587 0.177962 1.11067e-18)
(0.978481 0.177381 -1.36782e-18)
(0.978432 0.176704 -2.03156e-18)
(0.978425 0.175976 4.10236e-18)
(0.978392 0.175195 4.28493e-19)
(0.978328 0.174345 -5.98359e-18)
(0.978228 0.173419 4.99065e-19)
(0.978085 0.172416 3.91532e-18)
(0.977893 0.171334 3.64637e-19)
(0.977646 0.170173 5.05946e-18)
(0.977336 0.168935 -6.92676e-18)
(0.976956 0.167627 -4.34952e-19)
(0.976501 0.166256 -4.38382e-18)
(0.975969 0.164832 1.67139e-18)
(0.97536 0.163365 6.98305e-18)
(0.974683 0.161865 2.11032e-17)
(0.97395 0.160338 2.87214e-18)
(0.973182 0.158783 -1.29484e-17)
(0.972408 0.15719 9.72178e-18)
(0.971662 0.155532 3.33019e-17)
(0.970984 0.153767 -2.61564e-17)
(0.970397 0.151839 3.05227e-17)
(0.969955 0.149646 -1.82409e-17)
(0.969705 0.147046 -1.02061e-17)
(0.969692 0.143874 -3.90776e-17)
(0.969964 0.139855 -2.16784e-18)
(0.970589 0.134568 -1.25226e-17)
(0.971686 0.127252 -1.42867e-17)
(0.973543 0.116403 1.16718e-17)
(0.976741 0.0939126 2.69997e-18)
(0.983083 0.180992 3.14724e-20)
(0.982955 0.181076 1.13386e-20)
(0.982823 0.181094 -1.16381e-19)
(0.982685 0.181117 1.11995e-19)
(0.98254 0.181139 -5.01469e-20)
(0.98239 0.18116 9.11413e-20)
(0.982233 0.181179 3.21736e-20)
(0.982071 0.181197 -4.65568e-19)
(0.981903 0.181213 2.02758e-19)
(0.981729 0.181225 -1.41659e-19)
(0.981549 0.181235 8.5055e-20)
(0.981364 0.18124 3.38319e-19)
(0.981176 0.18124 -6.40353e-20)
(0.980983 0.181233 2.11956e-19)
(0.980786 0.18122 -9.03508e-19)
(0.980586 0.181198 3.49379e-19)
(0.980384 0.181167 1.54282e-19)
(0.980181 0.181123 -4.3103e-19)
(0.979978 0.181065 8.59406e-19)
(0.979775 0.18099 2.86082e-19)
(0.979575 0.180895 -3.14852e-20)
(0.979377 0.180777 -3.18058e-19)
(0.979184 0.180632 1.2763e-18)
(0.978996 0.180457 -3.53884e-18)
(0.978814 0.180245 1.8525e-18)
(0.97864 0.179995 7.93893e-19)
(0.978472 0.1797 -1.33251e-18)
(0.978312 0.179354 2.37989e-18)
(0.978159 0.178955 -1.15819e-18)
(0.978012 0.178494 -6.11792e-19)
(0.977868 0.177973 -1.19742e-18)
(0.977727 0.177399 -4.93451e-19)
(0.977656 0.176732 1.34952e-18)
(0.977639 0.176018 -3.99642e-18)
(0.977597 0.175251 7.40975e-18)
(0.977524 0.174419 -4.99917e-19)
(0.977416 0.173512 3.70586e-18)
(0.977268 0.172529 -9.33367e-18)
(0.977074 0.171468 -2.89441e-18)
(0.976828 0.170326 4.54693e-20)
(0.976524 0.169107 -2.126e-18)
(0.976155 0.167816 -3.0303e-19)
(0.975717 0.166457 -7.55242e-18)
(0.975207 0.165038 2.50589e-18)
(0.974628 0.163568 3.5638e-18)
(0.973984 0.162054 -1.96041e-17)
(0.973288 0.160503 2.47249e-17)
(0.97256 0.158911 3.59091e-18)
(0.971825 0.157268 1.09157e-18)
(0.971117 0.155547 -2.29196e-17)
(0.970472 0.153709 7.87295e-18)
(0.969913 0.151699 -1.62e-17)
(0.969493 0.149417 3.13545e-17)
(0.96926 0.146723 6.39379e-18)
(0.969262 0.14345 -2.66768e-17)
(0.969546 0.139323 1.00718e-17)
(0.970182 0.133918 -2.89902e-17)
(0.97129 0.126466 -6.56838e-18)
(0.973179 0.115459 -4.30671e-17)
(0.976534 0.0927111 -1.02707e-17)
(0.982992 0.181014 -7.05569e-21)
(0.982857 0.181099 -2.80309e-20)
(0.982716 0.181118 -2.4858e-20)
(0.982569 0.18114 2.39839e-19)
(0.982415 0.18116 -1.33633e-19)
(0.982255 0.18118 -1.63408e-19)
(0.982088 0.181198 -6.28473e-20)
(0.981914 0.181214 -2.59045e-19)
(0.981734 0.181228 1.60364e-19)
(0.981547 0.181239 2.20657e-20)
(0.981354 0.181247 7.13619e-21)
(0.981155 0.18125 7.17478e-19)
(0.98095 0.181249 -5.12508e-19)
(0.980741 0.181241 -6.44628e-20)
(0.980527 0.181226 6.01047e-19)
(0.980309 0.181202 -3.33299e-19)
(0.980088 0.181168 -1.30613e-19)
(0.979864 0.181122 2.10459e-19)
(0.979639 0.181062 6.88383e-19)
(0.979412 0.180985 3.84631e-19)
(0.979187 0.180889 1.45593e-19)
(0.978963 0.18077 -9.73667e-19)
(0.978741 0.180625 4.99499e-19)
(0.978524 0.18045 9.65048e-19)
(0.978311 0.180239 -2.01914e-18)
(0.978104 0.17999 6.54649e-19)
(0.977904 0.179698 -2.60961e-18)
(0.97771 0.179355 2.13899e-18)
(0.977522 0.178961 1.88997e-18)
(0.97734 0.178504 -2.92971e-18)
(0.977162 0.177989 -1.41977e-18)
(0.976989 0.177423 1.89036e-18)
(0.976896 0.176767 6.31512e-19)
(0.976869 0.176066 -1.6911e-18)
(0.976819 0.175315 -2.11321e-18)
(0.976737 0.174501 -2.48043e-18)
(0.976622 0.173613 1.51618e-18)
(0.976469 0.17265 3.59406e-18)
(0.976272 0.17161 1.26233e-18)
(0.976027 0.170489 -1.11825e-18)
(0.975727 0.169288 1.21838e-17)
(0.975367 0.168013 -1.27647e-18)
(0.974944 0.166666 1.25187e-17)
(0.974456 0.165253 -2.23308e-17)
(0.973902 0.163781 3.52254e-18)
(0.97329 0.162256 6.34609e-19)
(0.97263 0.160682 -1.21076e-18)
(0.97194 0.159055 -1.67663e-17)
(0.971243 0.157364 -2.66136e-17)
(0.970572 0.155584 2.3538e-17)
(0.96996 0.153675 3.04874e-17)
(0.96943 0.151586 1.58914e-17)
(0.969034 0.149219 -3.05129e-17)
(0.968822 0.146432 1.62263e-17)
(0.96884 0.143061 3.95516e-17)
(0.969138 0.138828 1.65926e-17)
(0.969786 0.133306 2.82824e-17)
(0.97091 0.125719 1.43064e-17)
(0.972832 0.114549 4.17228e-17)
(0.976324 0.0915217 -3.17167e-17)
(0.982902 0.181053 9.19683e-21)
(0.982759 0.181136 -2.78003e-20)
(0.98261 0.181153 1.00431e-19)
(0.982454 0.181174 2.70575e-20)
(0.98229 0.181194 -1.40489e-19)
(0.98212 0.181213 -1.64567e-19)
(0.981942 0.18123 3.91722e-19)
(0.981756 0.181246 -4.32267e-19)
(0.981564 0.181259 -1.0894e-19)
(0.981364 0.181269 2.70865e-19)
(0.981157 0.181276 2.54666e-19)
(0.980943 0.181277 7.83851e-19)
(0.980723 0.181274 -4.3995e-19)
(0.980498 0.181264 -7.67861e-19)
(0.980267 0.181247 1.69951e-19)
(0.98003 0.181221 -6.39283e-19)
(0.979789 0.181185 4.81648e-19)
(0.979546 0.181137 -8.21641e-19)
(0.979298 0.181076 1.31295e-19)
(0.979049 0.180997 -2.75206e-19)
(0.9788 0.1809 -1.76094e-19)
(0.97855 0.18078 -7.60958e-19)
(0.978302 0.180633 6.72519e-20)
(0.978056 0.180458 1.66214e-18)
(0.977813 0.180247 -5.73401e-19)
(0.977576 0.179999 1.79225e-19)
(0.977343 0.179708 5.27414e-19)
(0.977117 0.179367 -7.0291e-19)
(0.976896 0.178977 -1.50497e-19)
(0.976681 0.178524 1.00729e-18)
(0.97647 0.178015 1.11973e-18)
(0.976266 0.177456 -8.38289e-19)
(0.976152 0.176811 -2.66468e-18)
(0.976116 0.176123 -3.71855e-18)
(0.976057 0.175387 5.58375e-18)
(0.975967 0.17459 1.50308e-18)
(0.975846 0.17372 9.43064e-19)
(0.975687 0.172776 4.68295e-18)
(0.975487 0.171756 -4.22089e-18)
(0.975241 0.170654 2.61517e-18)
(0.974945 0.169471 7.76353e-20)
(0.974593 0.168212 1.71374e-19)
(0.974183 0.166876 -4.57911e-18)
(0.973713 0.165469 1.04038e-17)
(0.973183 0.163995 -1.36388e-17)
(0.9726 0.162459 8.10045e-18)
(0.971973 0.160863 -2.26899e-17)
(0.971318 0.159202 6.09289e-18)
(0.970658 0.157466 1.40489e-17)
(0.970023 0.155629 -2.38033e-17)
(0.969445 0.153652 -5.57613e-18)
(0.968945 0.151487 -1.12168e-18)
(0.968575 0.149035 -5.77468e-18)
(0.968383 0.146159 -1.73465e-17)
(0.96842 0.14269 1.09743e-18)
(0.968734 0.138353 1.65647e-17)
(0.969397 0.132714 -1.71571e-17)
(0.970538 0.124992 -4.71375e-18)
(0.972496 0.113654 -5.41813e-18)
(0.976104 0.0903265 2.41382e-17)
(0.982807 0.181107 1.72601e-20)
(0.982656 0.181193 -1.46039e-20)
(0.982498 0.181212 1.36771e-20)
(0.982333 0.181233 8.84532e-20)
(0.98216 0.181253 1.30484e-19)
(0.981979 0.181271 -5.10064e-19)
(0.98179 0.181288 3.72238e-19)
(0.981594 0.181302 7.93724e-20)
(0.981389 0.181313 -2.2877e-20)
(0.981176 0.181321 -1.72896e-19)
(0.980955 0.181326 5.38166e-19)
(0.980727 0.181327 -1.73859e-19)
(0.980493 0.181321 -2.451e-19)
(0.980251 0.181309 -7.43224e-19)
(0.980003 0.18129 1.49797e-18)
(0.979749 0.181262 -3.10046e-19)
(0.979489 0.181224 -2.62565e-19)
(0.979226 0.181173 -7.90851e-19)
(0.978957 0.181109 8.77978e-19)
(0.978686 0.181028 4.91766e-19)
(0.978413 0.180928 -2.251e-19)
(0.978139 0.180806 3.93126e-19)
(0.977864 0.180658 -1.67937e-18)
(0.977591 0.180482 1.14432e-19)
(0.97732 0.180271 9.39225e-19)
(0.977053 0.180023 -1.78696e-19)
(0.97679 0.179733 -2.9282e-18)
(0.976532 0.179393 2.61954e-19)
(0.97628 0.179005 2.63336e-18)
(0.976033 0.178555 -7.08679e-19)
(0.975791 0.178052 -1.37834e-18)
(0.975556 0.177499 8.10819e-19)
(0.975422 0.176864 2.3651e-18)
(0.975377 0.176188 5.45873e-18)
(0.975311 0.175466 -8.25702e-19)
(0.975214 0.174685 1.11185e-18)
(0.975085 0.173832 -8.13592e-18)
(0.974921 0.172906 -2.30651e-18)
(0.974717 0.171904 1.45739e-18)
(0.974471 0.170819 -6.00628e-18)
(0.974177 0.169652 -1.27517e-18)
(0.973832 0.168407 2.77211e-18)
(0.973433 0.167081 2.29053e-18)
(0.972979 0.165678 6.22015e-18)
(0.97247 0.164202 2.02669e-17)
(0.971913 0.162654 -1.59363e-17)
(0.971316 0.161037 2.52509e-17)
(0.970695 0.159345 1.88402e-17)
(0.97007 0.157564 -8.3775e-20)
(0.969469 0.155672 2.38279e-17)
(0.968923 0.15363 -3.16413e-17)
(0.968453 0.15139 -3.72576e-17)
(0.96811 0.148857 2.85578e-17)
(0.967941 0.145892 2.42999e-17)
(0.967998 0.142328 -1.02831e-17)
(0.968329 0.137887 -5.6785e-17)
(0.96901 0.132132 1.32428e-17)
(0.970171 0.124274 -1.42494e-17)
(0.972166 0.112763 -2.12159e-17)
(0.975884 0.0891186 2.05926e-17)
(0.98271 0.181177 -1.87282e-20)
(0.98255 0.181261 2.05882e-20)
(0.982384 0.181278 1.42578e-19)
(0.98221 0.181298 -1.87207e-19)
(0.982027 0.181317 3.45156e-19)
(0.981836 0.181335 -5.10912e-19)
(0.981636 0.181352 1.45174e-19)
(0.981428 0.181365 -7.61554e-21)
(0.981211 0.181376 3.31159e-19)
(0.980986 0.181384 -1.75195e-19)
(0.980752 0.181388 5.28927e-20)
(0.98051 0.181387 5.50514e-20)
(0.98026 0.18138 -8.58075e-19)
(0.980003 0.181367 2.56194e-19)
(0.979738 0.181346 6.02502e-19)
(0.979466 0.181316 1.93004e-20)
(0.979188 0.181276 -1.02228e-18)
(0.978905 0.181224 4.17407e-19)
(0.978616 0.181158 1.97022e-18)
(0.978323 0.181075 -1.28934e-18)
(0.978028 0.180973 -9.86263e-19)
(0.977729 0.18085 8.38912e-19)
(0.97743 0.180699 5.41839e-19)
(0.97713 0.180523 6.05483e-19)
(0.976832 0.18031 -1.17337e-18)
(0.976536 0.180062 -2.54835e-18)
(0.976243 0.179772 1.92798e-18)
(0.975956 0.179433 2.76499e-18)
(0.975672 0.179047 7.68721e-19)
(0.975395 0.1786 -1.51323e-18)
(0.975122 0.1781 7.01515e-19)
(0.974859 0.177552 1.18356e-18)
(0.974705 0.176927 -2.01216e-18)
(0.974652 0.176263 -3.07578e-19)
(0.974579 0.175553 -3.45206e-18)
(0.974475 0.174786 -9.19049e-19)
(0.97434 0.173947 -8.68884e-19)
(0.97417 0.173037 2.29518e-18)
(0.973962 0.172051 -3.17357e-18)
(0.973714 0.170982 9.07212e-19)
(0.973422 0.169829 1.50403e-18)
(0.973082 0.168595 3.92871e-19)
(0.972692 0.167278 -9.27942e-18)
(0.972252 0.165878 -1.28653e-17)
(0.971762 0.164398 -1.12081e-17)
(0.971228 0.162839 2.21838e-17)
(0.970659 0.161201 6.29246e-19)
(0.970068 0.159477 -8.81403e-18)
(0.969476 0.157654 4.62343e-18)
(0.968908 0.155709 -2.83257e-17)
(0.968394 0.153603 1.3513e-17)
(0.967954 0.151291 3.69177e-17)
(0.967638 0.148677 -2.11027e-18)
(0.967493 0.145626 -3.17989e-17)
(0.967571 0.141968 1.48954e-17)
(0.967922 0.137423 1.39832e-17)
(0.968622 0.131552 1.76158e-17)
(0.969805 0.123556 4.02502e-17)
(0.971841 0.111867 3.90996e-17)
(0.975655 0.0878902 -4.73901e-17)
(0.982613 0.181261 -1.59689e-20)
(0.982445 0.181347 2.31947e-20)
(0.982271 0.181364 4.97595e-21)
(0.982087 0.181385 9.04374e-20)
(0.981895 0.181403 -1.37701e-19)
(0.981693 0.18142 -2.86625e-19)
(0.981483 0.181435 1.01451e-19)
(0.981263 0.181448 -1.40059e-19)
(0.981034 0.181457 3.02823e-19)
(0.980796 0.181464 -6.20514e-20)
(0.980548 0.181467 -2.05623e-19)
(0.980292 0.181465 1.70076e-19)
(0.980027 0.181458 2.7957e-19)
(0.979754 0.181443 7.78416e-19)
(0.979472 0.181421 -1.41797e-18)
(0.979182 0.181389 7.28248e-19)
(0.978886 0.181347 1.11904e-19)
(0.978584 0.181293 -7.25362e-19)
(0.978275 0.181225 -4.55401e-19)
(0.97796 0.18114 1.49855e-18)
(0.977642 0.181036 -1.57563e-18)
(0.977321 0.18091 4.73218e-19)
(0.976997 0.180758 -1.27749e-18)
(0.976672 0.18058 2.14057e-18)
(0.976347 0.180366 -4.35578e-19)
(0.976023 0.180116 -1.22103e-18)
(0.975703 0.179826 9.8679e-19)
(0.975386 0.179487 1.84907e-18)
(0.975073 0.179103 -1.74531e-18)
(0.974767 0.178657 1.07144e-18)
(0.974465 0.17816 -3.63514e-18)
(0.974173 0.177617 -3.96672e-19)
(0.974001 0.177 1.55112e-18)
(0.97394 0.176345 -8.96793e-19)
(0.97386 0.175646 -1.80081e-18)
(0.97375 0.174893 -4.19114e-18)
(0.973608 0.174067 5.25702e-18)
(0.973433 0.17317 -2.08001e-18)
(0.973221 0.172198 1.56575e-18)
(0.97297 0.171141 3.20879e-18)
(0.972679 0.17 2.55082e-18)
(0.972342 0.168776 -1.53847e-18)
(0.97196 0.167465 5.39695e-18)
(0.971532 0.166066 1.00964e-17)
(0.971058 0.164581 -1.02255e-18)
(0.970545 0.16301 -1.34457e-17)
(0.970001 0.16135 -1.7884e-17)
(0.969438 0.159595 -1.33651e-18)
(0.968876 0.157731 1.33279e-17)
(0.96834 0.155734 -2.6347e-18)
(0.967857 0.153567 2.39456e-17)
(0.967447 0.151183 -3.64342e-17)
(0.967157 0.148492 -1.92826e-17)
(0.967038 0.145355 -8.15512e-18)
(0.967139 0.141603 -1.65378e-17)
(0.967511 0.136956 1.04806e-17)
(0.968232 0.130969 -1.35222e-17)
(0.969441 0.122835 -5.39542e-17)
(0.971518 0.110962 -6.19108e-17)
(0.975426 0.0866406 2.58711e-17)
(0.982518 0.181359 -2.42234e-20)
(0.982342 0.181443 1.95503e-20)
(0.982159 0.181459 1.56677e-20)
(0.981966 0.181479 -1.13217e-19)
(0.981764 0.181497 1.17297e-19)
(0.981552 0.181514 -5.86177e-20)
(0.981331 0.181529 1.92257e-19)
(0.981099 0.181542 -2.88103e-19)
(0.980858 0.181551 1.57267e-20)
(0.980606 0.181557 2.19666e-20)
(0.980345 0.18156 -2.19625e-19)