/*--------------------------------*- C++ -*----------------------------------*\
  =========                 |
  \\      /  F ield         | OpenFOAM: The Open Source CFD Toolbox
   \\    /   O peration     | Website:  https://openfoam.org
    \\  /    A nd           | Version:  6.0
     \\/     M anipulation  |
\*---------------------------------------------------------------------------*/
FoamFile
{
    version     2.0;
    format      ascii;
    class       surfaceScalarField;
    location    "1.76";
    object      phi;
}
// * * * * * * * * * * * * * * * * * * * * * * * * * * * * * * * * * * * * * //

dimensions      [0 3 -1 0 0 0 0];

internalField   nonuniform List<scalar> 
26699
(
2.0051e-05
0.005201
3.951e-10
4.0126e-05
0.0051116
5.9639e-05
0.0049351
7.8186e-05
0.0046741
9.5416e-05
0.0043332
0.00011102
0.0039182
0.00012472
0.0034362
0.00013626
0.0028953
0.00014546
0.002305
0.00015182
0.0016755
0.00015718
0.0010154
0.00046489
3.45e-05
2.0051e-05
0.0051809
1.2686e-09
4.0127e-05
0.0050916
5.9641e-05
0.0049155
7.8189e-05
0.0046556
9.5419e-05
0.004316
0.00011102
0.0039026
0.00012471
0.0034225
0.00013624
0.0028838
0.00014545
0.0022958
0.00015107
0.0016699
0.00015894
0.0010075
0.00055859
6.5238e-05
2.0052e-05
0.0051609
2.2198e-09
4.0128e-05
0.0050715
5.9643e-05
0.004896
7.8192e-05
0.004637
9.5422e-05
0.0042988
0.00011102
0.003887
0.00012471
0.0034088
0.00013622
0.0028723
0.00014545
0.0022865
0.00015031
0.001665
0.00016024
0.0009976
0.00062834
9.0497e-05
2.0052e-05
0.0051408
3.1773e-09
4.013e-05
0.0050514
5.9646e-05
0.0048765
7.8195e-05
0.0046185
9.5424e-05
0.0042815
0.00011102
0.0038714
0.0001247
0.0033951
0.00013619
0.0028608
0.00014549
0.0022772
0.00014958
0.0016609
0.00016101
0.00098617
0.00067856
0.00011079
2.0052e-05
0.0051208
4.1359e-09
4.0131e-05
0.0050313
5.9648e-05
0.004857
7.8198e-05
0.0045999
9.5427e-05
0.0042643
0.00011102
0.0038558
0.0001247
0.0033814
0.00013616
0.0028494
0.00014555
0.0022678
0.0001489
0.0016576
0.00016126
0.00097381
0.00071292
0.00012689
2.0052e-05
0.0051007
5.0956e-09
4.0133e-05
0.0050112
5.965e-05
0.0048375
7.8201e-05
0.0045814
9.543e-05
0.0042471
0.00011103
0.0038402
0.0001247
0.0033678
0.00013613
0.0028379
0.00014563
0.0022583
0.00014828
0.0016549
0.00016106
0.00096104
0.00073448
0.0001395
2.0052e-05
0.0050807
6.0563e-09
4.0134e-05
0.0049912
5.9653e-05
0.004818
7.8204e-05
0.0045628
9.5433e-05
0.0042299
0.00011103
0.0038246
0.0001247
0.0033541
0.0001361
0.0028265
0.00014573
0.0022487
0.00014776
0.0016529
0.00016051
0.00094829
0.0007458
0.00014918
2.0053e-05
0.0050606
7.018e-09
4.0135e-05
0.0049711
5.9655e-05
0.0047984
7.8207e-05
0.0045443
9.5436e-05
0.0042126
0.00011103
0.003809
0.0001247
0.0033404
0.00013607
0.0028151
0.00014584
0.0022389
0.00014734
0.0016514
0.00015969
0.00093594
0.00074906
0.00015643
2.0053e-05
0.0050405
7.9806e-09
4.0137e-05
0.004951
5.9657e-05
0.0047789
7.821e-05
0.0045257
9.5439e-05
0.0041954
0.00011103
0.0037934
0.0001247
0.0033267
0.00013603
0.0028038
0.00014595
0.002229
0.00014702
0.0016503
0.00015871
0.00092425
0.00074608
0.00016168
2.0053e-05
0.0050205
8.9441e-09
4.0138e-05
0.0049309
5.966e-05
0.0047594
7.8213e-05
0.0045072
9.5442e-05
0.0041782
0.00011103
0.0037778
0.0001247
0.0033131
0.00013599
0.0027925
0.00014607
0.0022189
0.00014681
0.0016496
0.00015762
0.00091344
0.00073838
0.00016532
2.0053e-05
0.0050004
9.9086e-09
4.0139e-05
0.0049108
5.9662e-05
0.0047399
7.8216e-05
0.0044886
9.5445e-05
0.0041609
0.00011104
0.0037623
0.0001247
0.0032994
0.00013595
0.0027813
0.00014618
0.0022087
0.00014671
0.001649
0.0001565
0.00090365
0.00072721
0.00016768
2.0053e-05
0.0049804
1.0874e-08
4.0141e-05
0.0048907
5.9664e-05
0.0047204
7.8219e-05
0.00447
9.5448e-05
0.0041437
0.00011104
0.0037467
0.00012471
0.0032857
0.0001359
0.0027701
0.00014628
0.0021983
0.0001467
0.0016486
0.0001554
0.00089495
0.00071358
0.00016903
2.0054e-05
0.0049603
1.1841e-08
4.0142e-05
0.0048707
5.9667e-05
0.0047008
7.8223e-05
0.0044515
9.5452e-05
0.0041265
0.00011104
0.0037311
0.00012471
0.0032721
0.00013585
0.002759
0.00014638
0.0021878
0.00014679
0.0016482
0.00015436
0.00088737
0.00069834
0.00016961
2.0054e-05
0.0049402
1.2808e-08
4.0144e-05
0.0048506
5.9669e-05
0.0046813
7.8226e-05
0.0044329
9.5455e-05
0.0041092
0.00011104
0.0037155
0.00012472
0.0032584
0.00013581
0.0027479
0.00014647
0.0021771
0.00014696
0.0016477
0.00015342
0.00088091
0.00068214
0.00016961
2.0054e-05
0.0049202
1.3777e-08
4.0145e-05
0.0048305
5.9671e-05
0.0046618
7.8229e-05
0.0044144
9.5458e-05
0.004092
0.00011104
0.0036999
0.00012473
0.0032447
0.00013576
0.0027368
0.00014654
0.0021664
0.00014719
0.0016471
0.00015258
0.00087553
0.00066552
0.0001692
2.0054e-05
0.0049001
1.4747e-08
4.0146e-05
0.0048104
5.9674e-05
0.0046423
7.8232e-05
0.0043958
9.5461e-05
0.0040748
0.00011104
0.0036843
0.00012473
0.003231
0.00013571
0.0027259
0.00014659
0.0021555
0.00014749
0.0016462
0.00015186
0.00087116
0.00064889
0.0001685
2.0055e-05
0.00488
1.5718e-08
4.0148e-05
0.0047903
5.9676e-05
0.0046227
7.8235e-05
0.0043773
9.5465e-05
0.0040576
0.00011105
0.0036687
0.00012474
0.0032173
0.00013567
0.0027149
0.00014663
0.0021445
0.00014782
0.001645
0.00015128
0.0008677
0.00063255
0.00016761
2.0055e-05
0.0048599
1.6691e-08
4.0149e-05
0.0047702
5.9678e-05
0.0046032
7.8238e-05
0.0043587
9.5468e-05
0.0040403
0.00011105
0.0036532
0.00012475
0.0032036
0.00013562
0.0027041
0.00014665
0.0021335
0.00014819
0.0016434
0.00015082
0.00086508
0.00061674
0.00016663
2.0055e-05
0.0048399
1.7665e-08
4.015e-05
0.0047501
5.9681e-05
0.0045837
7.8241e-05
0.0043401
9.5472e-05
0.0040231
0.00011105
0.0036376
0.00012476
0.0031899
0.00013558
0.0026932
0.00014665
0.0021224
0.00014858
0.0016415
0.00015048
0.00086318
0.00060161
0.00016561
2.0055e-05
0.0048198
1.864e-08
4.0152e-05
0.00473
5.9683e-05
0.0045641
7.8245e-05
0.0043216
9.5475e-05
0.0040059
0.00011105
0.003622
0.00012478
0.0031762
0.00013554
0.0026825
0.00014664
0.0021113
0.00014898
0.0016392
0.00015027
0.0008619
0.00058728
0.0001646
2.0055e-05
0.0047997
1.9617e-08
4.0153e-05
0.0047099
5.9685e-05
0.0045446
7.8248e-05
0.004303
9.5479e-05
0.0039886
0.00011105
0.0036064
0.00012479
0.0031625
0.00013551
0.0026718
0.00014661
0.0021002
0.00014939
0.0016364
0.00015015
0.00086113
0.0005738
0.00016364
2.0056e-05
0.0047796
2.0596e-08
4.0154e-05
0.0046898
5.9688e-05
0.0045251
7.8251e-05
0.0042845
9.5482e-05
0.0039714
0.00011106
0.0035909
0.0001248
0.0031487
0.00013548
0.0026611
0.00014656
0.0020891
0.00014978
0.0016332
0.00015014
0.00086077
0.00056119
0.00016275
2.0056e-05
0.0047596
2.1576e-08
4.0156e-05
0.0046697
5.969e-05
0.0045055
7.8254e-05
0.0042659
9.5486e-05
0.0039542
0.00011106
0.0035753
0.00012481
0.0031349
0.00013545
0.0026504
0.0001465
0.0020781
0.00015016
0.0016295
0.0001502
0.00086073
0.00054945
0.00016194
2.0056e-05
0.0047395
2.2558e-08
4.0157e-05
0.0046496
5.9693e-05
0.004486
7.8258e-05
0.0042473
9.549e-05
0.0039369
0.00011106
0.0035597
0.00012483
0.0031212
0.00013543
0.0026398
0.00014643
0.0020671
0.00015052
0.0016254
0.00015033
0.00086092
0.00053857
0.00016122
2.0056e-05
0.0047194
2.3542e-08
4.0159e-05
0.0046295
5.9695e-05
0.0044665
7.8261e-05
0.0042288
9.5494e-05
0.0039197
0.00011106
0.0035441
0.00012484
0.0031074
0.00013542
0.0026293
0.00014635
0.0020562
0.00015086
0.0016209
0.00015052
0.00086126
0.00052849
0.0001606
2.0056e-05
0.0046993
2.4527e-08
4.016e-05
0.0046094
5.9697e-05
0.0044469
7.8264e-05
0.0042102
9.5498e-05
0.0039025
0.00011106
0.0035286
0.00012486
0.0030936
0.0001354
0.0026187
0.00014626
0.0020453
0.00015117
0.001616
0.00015076
0.00086167
0.00051916
0.00016008
2.0057e-05
0.0046792
2.5515e-08
4.0161e-05
0.0045893
5.97e-05
0.0044274
7.8268e-05
0.0041916
9.5502e-05
0.0038852
0.00011106
0.003513
0.00012487
0.0030798
0.0001354
0.0026082
0.00014616
0.0020345
0.00015145
0.0016107
0.00015102
0.0008621
0.00051054
0.00015964
2.0057e-05
0.0046592
2.6504e-08
4.0163e-05
0.0045692
5.9702e-05
0.0044078
7.8271e-05
0.0041731
9.5506e-05
0.003868
0.00011107
0.0034975
0.00012489
0.003066
0.0001354
0.0025977
0.00014606
0.0020239
0.0001517
0.0016051
0.00015131
0.00086249
0.00050256
0.00015929
2.0057e-05
0.0046391
2.7496e-08
4.0164e-05
0.0045491
5.9705e-05
0.0043883
7.8274e-05
0.0041545
9.551e-05
0.0038508
0.00011107
0.0034819
0.0001249
0.0030521
0.0001354
0.0025872
0.00014595
0.0020133
0.00015192
0.0015991
0.00015161
0.0008628
0.00049516
0.00015902
2.0057e-05
0.004619
2.8489e-08
4.0166e-05
0.004529
5.9707e-05
0.0043688
7.8278e-05
0.0041359
9.5515e-05
0.0038335
0.00011107
0.0034664
0.00012492
0.0030383
0.00013541
0.0025767
0.00014585
0.0020029
0.00015211
0.0015928
0.00015192
0.00086299
0.00048827
0.00015881
2.0057e-05
0.0045989
2.9485e-08
4.0167e-05
0.0045089
5.971e-05
0.0043492
7.8281e-05
0.0041173
9.5519e-05
0.0038163
0.00011107
0.0034508
0.00012493
0.0030244
0.00013543
0.0025662
0.00014574
0.0019926
0.00015228
0.0015863
0.00015223
0.00086304
0.00048184
0.00015866
2.0058e-05
0.0045788
3.0483e-08
4.0168e-05
0.0044888
5.9712e-05
0.0043297
7.8285e-05
0.0040988
9.5524e-05
0.0037991
0.00011107
0.0034353
0.00012494
0.0030106
0.00013545
0.0025557
0.00014564
0.0019824
0.00015241
0.0015795
0.00015254
0.00086292
0.00047582
0.00015856
2.0058e-05
0.0045587
3.1484e-08
4.017e-05
0.0044686
5.9715e-05
0.0043101
7.8288e-05
0.0040802
9.5528e-05
0.0037818
0.00011107
0.0034197
0.00012495
0.0029967
0.00013547
0.0025452
0.00014554
0.0019723
0.00015253
0.0015725
0.00015283
0.00086262
0.00047015
0.0001585
2.0058e-05
0.0045386
3.2487e-08
4.0171e-05
0.0044485
5.9717e-05
0.0042906
7.8291e-05
0.0040616
9.5533e-05
0.0037646
0.00011107
0.0034042
0.00012497
0.0029828
0.0001355
0.0025346
0.00014544
0.0019624
0.00015262
0.0015653
0.00015311
0.00086212
0.00046479
0.00015848
2.0058e-05
0.0045185
3.3492e-08
4.0172e-05
0.0044284
5.972e-05
0.004271
7.8295e-05
0.004043
9.5538e-05
0.0037473
0.00011108
0.0033886
0.00012498
0.0029689
0.00013553
0.0025241
0.00014536
0.0019526
0.00015269
0.001558
0.00015338
0.00086143
0.0004597
0.00015848
2.0058e-05
0.0044985
3.45e-08
4.0174e-05
0.0044083
5.9722e-05
0.0042515
7.8298e-05
0.0040245
9.5543e-05
0.0037301
0.00011108
0.0033731
0.00012499
0.002955
0.00013556
0.0025135
0.00014527
0.0019428
0.00015274
0.0015505
0.00015364
0.00086053
0.00045483
0.00015851
2.0059e-05
0.0044784
3.551e-08
4.0175e-05
0.0043882
5.9725e-05
0.0042319
7.8302e-05
0.0040059
9.5548e-05
0.0037128
0.00011108
0.0033576
0.000125
0.002941
0.0001356
0.0025029
0.0001452
0.0019332
0.00015278
0.001543
0.00015388
0.00085944
0.00045015
0.00015855
2.0059e-05
0.0044583
3.6523e-08
4.0177e-05
0.0043681
5.9727e-05
0.0042124
7.8305e-05
0.0039873
9.5554e-05
0.0036956
0.00011108
0.003342
0.00012501
0.0029271
0.00013563
0.0024923
0.00014513
0.0019238
0.00015281
0.0015353
0.0001541
0.00085816
0.00044564
0.00015861
2.0059e-05
0.0044382
3.7539e-08
4.0178e-05
0.0043479
5.973e-05
0.0041928
7.8309e-05
0.0039687
9.5559e-05
0.0036783
0.00011108
0.0033265
0.00012502
0.0029132
0.00013567
0.0024816
0.00014507
0.0019144
0.00015283
0.0015275
0.0001543
0.00085669
0.00044127
0.00015867
2.0059e-05
0.0044181
3.8558e-08
4.018e-05
0.0043278
5.9733e-05
0.0041733
7.8313e-05
0.0039502
9.5565e-05
0.0036611
0.00011109
0.003311
0.00012503
0.0028992
0.00013571
0.0024709
0.00014502
0.0019051
0.00015284
0.0015197
0.00015449
0.00085504
0.00043702
0.00015874
2.0059e-05
0.004398
3.958e-08
4.0181e-05
0.0043077
5.9735e-05
0.0041537
7.8316e-05
0.0039316
9.557e-05
0.0036438
0.00011109
0.0032955
0.00012504
0.0028853
0.00013576
0.0024602
0.00014497
0.0018958
0.00015285
0.0015118
0.00015467
0.00085322
0.00043287
0.00015882
2.006e-05
0.0043779
4.0604e-08
4.0182e-05
0.0042876
5.9738e-05
0.0041342
7.832e-05
0.003913
9.5576e-05
0.0036266
0.00011109
0.00328
0.00012505
0.0028713
0.0001358
0.0024495
0.00014493
0.0018867
0.00015285
0.0015039
0.00015484
0.00085124
0.00042881
0.0001589
2.006e-05
0.0043578
4.1632e-08
4.0184e-05
0.0042675
5.9741e-05
0.0041146
7.8323e-05
0.0038944
9.5582e-05
0.0036093
0.00011109
0.0032645
0.00012506
0.0028574
0.00013584
0.0024387
0.00014491
0.0018776
0.00015286
0.0014959
0.00015499
0.0008491
0.00042483
0.00015897
2.006e-05
0.0043377
4.2663e-08
4.0185e-05
0.0042473
5.9743e-05
0.0040951
7.8327e-05
0.0038758
9.5588e-05
0.0035921
0.00011109
0.0032489
0.00012506
0.0028434
0.00013589
0.0024279
0.00014488
0.0018686
0.00015286
0.001488
0.00015513
0.00084683
0.00042091
0.00015905
2.006e-05
0.0043176
4.3698e-08
4.0187e-05
0.0042272
5.9746e-05
0.0040755
7.833e-05
0.0038572
9.5595e-05
0.0035748
0.0001111
0.0032334
0.00012507
0.0028294
0.00013593
0.002417
0.00014487
0.0018597
0.00015286
0.00148
0.00015526
0.00084443
0.00041704
0.00015912
2.0061e-05
0.0042975
4.4735e-08
4.0188e-05
0.0042071
5.9749e-05
0.0040559
7.8334e-05
0.0038387
9.5601e-05
0.0035575
0.0001111
0.0032179
0.00012508
0.0028154
0.00013597
0.0024061
0.00014486
0.0018508
0.00015286
0.001472
0.00015538
0.0008419
0.00041323
0.0001592
2.0061e-05
0.0042774
4.5777e-08
4.019e-05
0.0041869
5.9752e-05
0.0040364
7.8338e-05
0.0038201
9.5608e-05
0.0035403
0.0001111
0.0032025
0.00012508
0.0028015
0.00013601
0.0023952
0.00014485
0.001842
0.00015286
0.001464
0.0001555
0.00083926
0.00040946
0.00015927
2.0061e-05
0.0042572
4.6821e-08
4.0191e-05
0.0041668
5.9755e-05
0.0040168
7.8341e-05
0.0038015
9.5615e-05
0.003523
0.00011111
0.003187
0.00012509
0.0027875
0.00013606
0.0023842
0.00014485
0.0018332
0.00015286
0.001456
0.00015561
0.00083651
0.00040573
0.00015934
2.0061e-05
0.0042371
4.787e-08
4.0193e-05
0.0041467
5.9757e-05
0.0039973
7.8345e-05
0.0037829
9.5622e-05
0.0035057
0.00011111
0.0031715
0.00012509
0.0027735
0.0001361
0.0023732
0.00014486
0.0018244
0.00015287
0.0014479
0.00015571
0.00083367
0.00040204
0.0001594
2.0061e-05
0.004217
4.8922e-08
4.0194e-05
0.0041266
5.976e-05
0.0039777
7.8349e-05
0.0037643
9.5629e-05
0.0034884
0.00011111
0.003156
0.0001251
0.0027595
0.00013614
0.0023622
0.00014487
0.0018157
0.00015288
0.0014399
0.00015581
0.00083074
0.00039838
0.00015946
2.0062e-05
0.0041969
4.9978e-08
4.0196e-05
0.0041064
5.9763e-05
0.0039581
7.8352e-05
0.0037457
9.5636e-05
0.0034711
0.00011112
0.0031405
0.0001251
0.0027455
0.00013618
0.0023511
0.00014489
0.001807
0.00015289
0.0014319
0.00015591
0.00082772
0.00039477
0.00015953
2.0062e-05
0.0041768
5.1038e-08
4.0197e-05
0.0040863
5.9766e-05
0.0039385
7.8356e-05
0.0037271
9.5644e-05
0.0034539
0.00011112
0.003125
0.00012511
0.0027315
0.00013622
0.00234
0.00014491
0.0017983
0.0001529
0.0014239
0.000156
0.00082463
0.00039118
0.00015958
2.0062e-05
0.0041567
5.2102e-08
4.0199e-05
0.0040661
5.9769e-05
0.003919
7.836e-05
0.0037085
9.5651e-05
0.0034366
0.00011113
0.0031096
0.00012511
0.0027175
0.00013626
0.0023288
0.00014493
0.0017896
0.00015292
0.0014159
0.00015608
0.00082147
0.00038762
0.00015964
2.0063e-05
0.0041366
5.317e-08
4.02e-05
0.004046
5.9773e-05
0.0038994
7.8363e-05
0.00369
9.5659e-05
0.0034193
0.00011113
0.0030941
0.00012512
0.0027036
0.0001363
0.0023176
0.00014495
0.001781
0.00015294
0.001408
0.00015617
0.00081824
0.0003841
0.00015969
2.0063e-05
0.0041165
5.4242e-08
4.0202e-05
0.0040259
5.9776e-05
0.0038798
7.8367e-05
0.0036714
9.5667e-05
0.003402
0.00011114
0.0030786
0.00012512
0.0026896
0.00013634
0.0023064
0.00014498
0.0017724
0.00015296
0.0014
0.00015625
0.00081494
0.00038061
0.00015974
2.0063e-05
0.0040963
5.5319e-08
4.0203e-05
0.0040057
5.9779e-05
0.0038603
7.8371e-05
0.0036528
9.5675e-05
0.0033847
0.00011114
0.0030632
0.00012513
0.0026756
0.00013638
0.0022951
0.00014501
0.0017637
0.00015298
0.001392
0.00015633
0.00081159
0.00037715
0.00015979
2.0063e-05
0.0040762
5.64e-08
4.0205e-05
0.0039856
5.9782e-05
0.0038407
7.8374e-05
0.0036342
9.5683e-05
0.0033674
0.00011115
0.0030477
0.00012513
0.0026616
0.00013642
0.0022839
0.00014504
0.0017551
0.00015301
0.001384
0.00015641
0.00080819
0.00037371
0.00015984
2.0064e-05
0.0040561
5.7485e-08
4.0206e-05
0.0039654
5.9785e-05
0.0038211
7.8378e-05
0.0036156
9.5692e-05
0.00335
0.00011115
0.0030322
0.00012513
0.0026476
0.00013646
0.0022725
0.00014507
0.0017465
0.00015303
0.0013761
0.00015649
0.00080473
0.00037031
0.00015989
2.0064e-05
0.004036
5.8576e-08
4.0208e-05
0.0039453
5.9789e-05
0.0038015
7.8382e-05
0.003597
9.57e-05
0.0033327
0.00011116
0.0030168
0.00012514
0.0026336
0.0001365
0.0022612
0.0001451
0.0017379
0.00015306
0.0013681
0.00015656
0.00080123
0.00036694
0.00015993
2.0064e-05
0.0040158
5.9671e-08
4.021e-05
0.0039252
5.9792e-05
0.0037819
7.8385e-05
0.0035784
9.5709e-05
0.0033154
0.00011117
0.0030013
0.00012514
0.0026197
0.00013653
0.0022498
0.00014514
0.0017293
0.00015308
0.0013602
0.00015663
0.00079768
0.0003636
0.00015998
2.0065e-05
0.0039957
6.0771e-08
4.0211e-05
0.003905
5.9796e-05
0.0037624
7.8389e-05
0.0035598
9.5717e-05
0.0032981
0.00011118
0.0029859
0.00012515
0.0026057
0.00013657
0.0022384
0.00014518
0.0017207
0.00015311
0.0013522
0.00015671
0.00079409
0.00036028
0.00016002
2.0065e-05
0.0039756
6.1876e-08
4.0213e-05
0.0038849
5.9799e-05
0.0037428
7.8393e-05
0.0035412
9.5726e-05
0.0032807
0.00011118
0.0029704
0.00012515
0.0025917
0.00013661
0.0022269
0.00014521
0.0017121
0.00015314
0.0013443
0.00015678
0.00079045
0.000357
0.00016006
2.0065e-05
0.0039555
6.2986e-08
4.0214e-05
0.0038647
5.9803e-05
0.0037232
7.8397e-05
0.0035226
9.5735e-05
0.0032634
0.00011119
0.0029549
0.00012516
0.0025778
0.00013664
0.0022154
0.00014525
0.0017035
0.00015317
0.0013364
0.00015684
0.00078678
0.00035374
0.0001601
2.0066e-05
0.0039353
6.4101e-08
4.0216e-05
0.0038446
5.9806e-05
0.0037036
7.8401e-05
0.003504
9.5744e-05
0.0032461
0.0001112
0.0029395
0.00012516
0.0025638
0.00013668
0.0022039
0.00014529
0.0016949
0.0001532
0.0013285
0.00015691
0.00078307
0.00035051
0.00016014
2.0066e-05
0.0039152
6.5221e-08
4.0218e-05
0.0038244
5.981e-05
0.003684
7.8405e-05
0.0034854
9.5753e-05
0.0032287
0.00011121
0.002924
0.00012517
0.0025498
0.00013671
0.0021924
0.00014533
0.0016862
0.00015323
0.0013206
0.00015698
0.00077932
0.00034731
0.00016018
2.0066e-05
0.0038951
6.6347e-08
4.0219e-05
0.0038043
5.9814e-05
0.0036644
7.8409e-05
0.0034668
9.5762e-05
0.0032114
0.00011122
0.0029086
0.00012518
0.0025359
0.00013675
0.0021808
0.00014536
0.0016776
0.00015326
0.0013127
0.00015704
0.00077554
0.00034414
0.00016022
2.0067e-05
0.0038749
6.7479e-08
4.0221e-05
0.0037841
5.9817e-05
0.0036448
7.8413e-05
0.0034482
9.5771e-05
0.003194
0.00011124
0.0028931
0.00012518
0.0025219
0.00013678
0.0021692
0.0001454
0.001669
0.00015329
0.0013048
0.00015711
0.00077173
0.00034099
0.00016025
2.0067e-05
0.0038548
6.8616e-08
4.0223e-05
0.0037639
5.9821e-05
0.0036252
7.8417e-05
0.0034296
9.578e-05
0.0031766
0.00011125
0.0028776
0.00012519
0.002508
0.00013681
0.0021576
0.00014544
0.0016604
0.00015332
0.0012969
0.00015717
0.00076788
0.00033787
0.00016029
2.0067e-05
0.0038347
6.9759e-08
4.0224e-05
0.0037438
5.9825e-05
0.0036056
7.8421e-05
0.003411
9.5789e-05
0.0031593
0.00011126
0.0028621
0.0001252
0.0024941
0.00013685
0.0021459
0.00014548
0.0016517
0.00015335
0.001289
0.00015723
0.000764
0.00033478
0.00016032
2.0068e-05
0.0038145
7.0908e-08
4.0226e-05
0.0037236
5.9829e-05
0.003586
7.8425e-05
0.0033924
9.5798e-05
0.0031419
0.00011127
0.0028467
0.00012521
0.0024801
0.00013688
0.0021343
0.00014552
0.0016431
0.00015339
0.0012812
0.00015729
0.0007601
0.00033171
0.00016036
2.0068e-05
0.0037944
7.2063e-08
4.0228e-05
0.0037035
5.9833e-05
0.0035664
7.843e-05
0.0033739
9.5807e-05
0.0031245
0.00011129
0.0028312
0.00012522
0.0024662
0.00013691
0.0021226
0.00014556
0.0016345
0.00015342
0.0012733
0.00015735
0.00075616
0.00032867
0.00016039
2.0069e-05
0.0037742
7.3225e-08
4.023e-05
0.0036833
5.9837e-05
0.0035468
7.8434e-05
0.0033553
9.5816e-05
0.0031071
0.0001113
0.0028157
0.00012523
0.0024523
0.00013695
0.0021109
0.0001456
0.0016258
0.00015345
0.0012655
0.00015741
0.0007522
0.00032565
0.00016043
2.0069e-05
0.0037541
7.4392e-08
4.0231e-05
0.0036631
5.9842e-05
0.0035272
7.8439e-05
0.0033367
9.5825e-05
0.0030897
0.00011132
0.0028002
0.00012524
0.0024384
0.00013698
0.0020991
0.00014564
0.0016172
0.00015348
0.0012576
0.00015746
0.00074821
0.00032266
0.00016046
2.0069e-05
0.003734
7.5566e-08
4.0233e-05
0.003643
5.9846e-05
0.0035076
7.8444e-05
0.0033181
9.5834e-05
0.0030724
0.00011133
0.0027847
0.00012525
0.0024244
0.00013701
0.0020874
0.00014567
0.0016085
0.00015351
0.0012498
0.00015752
0.0007442
0.00031969
0.00016049
2.007e-05
0.0037138
7.6747e-08
4.0235e-05
0.0036228
5.985e-05
0.003488
7.8449e-05
0.0032995
9.5843e-05
0.003055
0.00011135
0.0027692
0.00012526
0.0024105
0.00013704
0.0020756
0.00014571
0.0015998
0.00015354
0.001242
0.00015758
0.00074016
0.00031675
0.00016052
2.007e-05
0.0036937
7.7934e-08
4.0237e-05
0.0036027
5.9854e-05
0.0034683
7.8454e-05
0.0032809
9.5853e-05
0.0030376
0.00011137
0.0027537
0.00012527
0.0023966
0.00013707
0.0020638
0.00014575
0.0015911
0.00015357
0.0012341
0.00015763
0.0007361
0.00031382
0.00016055
2.0071e-05
0.0036735
7.9128e-08
4.0239e-05
0.0035825
5.9859e-05
0.0034487
7.8459e-05
0.0032623
9.5862e-05
0.0030202
0.00011138
0.0027382
0.00012529
0.0023827
0.00013711
0.0020519
0.00014579
0.0015825
0.0001536
0.0012263
0.00015768
0.00073201
0.00031092
0.00016058
2.0071e-05
0.0036534
8.0328e-08
4.0241e-05
0.0035623
5.9863e-05
0.0034291
7.8465e-05
0.0032437
9.5872e-05
0.0030028
0.0001114
0.0027226
0.0001253
0.0023688
0.00013714
0.0020401
0.00014583
0.0015738
0.00015362
0.0012185
0.00015773
0.0007279
0.00030804
0.00016061
2.0072e-05
0.0036332
8.1536e-08
4.0243e-05
0.0035421
5.9868e-05
0.0034095
7.8471e-05
0.0032251
9.5881e-05
0.0029853
0.00011142
0.0027071
0.00012531
0.0023549
0.00013717
0.0020283
0.00014587
0.0015651
0.00015365
0.0012108
0.00015779
0.00072377
0.00030518
0.00016064
2.0072e-05
0.0036131
8.2751e-08
4.0245e-05
0.003522
5.9873e-05
0.0033898
7.8477e-05
0.0032065
9.5891e-05
0.0029679
0.00011144
0.0026916
0.00012533
0.002341
0.0001372
0.0020164
0.0001459
0.0015564
0.00015368
0.001203
0.00015784
0.00071961
0.00030235
0.00016067
2.0073e-05
0.0035929
8.3973e-08
4.0247e-05
0.0035018
5.9878e-05
0.0033702
7.8483e-05
0.0031878
9.5901e-05
0.0029505
0.00011146
0.002676
0.00012534
0.0023271
0.00013723
0.0020045
0.00014594
0.0015476
0.00015371
0.0011952
0.00015789
0.00071544
0.00029953
0.0001607
2.0074e-05
0.0035727
8.5202e-08
4.0249e-05
0.0034816
5.9882e-05
0.0033506
7.8489e-05
0.0031692
9.5911e-05
0.0029331
0.00011147
0.0026604
0.00012536
0.0023133
0.00013726
0.0019926
0.00014598
0.0015389
0.00015374
0.0011874
0.00015793
0.00071125
0.00029674
0.00016073
2.0074e-05
0.0035526
8.6438e-08
4.0251e-05
0.0034614
5.9887e-05
0.0033309
7.8496e-05
0.0031506
9.5921e-05
0.0029157
0.00011149
0.0026449
0.00012537
0.0022994
0.00013728
0.0019807
0.00014602
0.0015302
0.00015377
0.0011797
0.00015798
0.00070704
0.00029396
0.00016076
2.0075e-05
0.0035324
8.7682e-08
4.0253e-05
0.0034413
5.9892e-05
0.0033113
7.8503e-05
0.003132
9.5931e-05
0.0028982
0.00011151
0.0026293
0.00012539
0.0022855
0.00013731
0.0019688
0.00014606
0.0015214
0.0001538
0.0011719
0.00015803
0.00070281
0.0002912
0.00016079
2.0075e-05
0.0035122
8.8933e-08
4.0255e-05
0.0034211
5.9897e-05
0.0032917
7.851e-05
0.0031134
9.5942e-05
0.0028808
0.00011153
0.0026137
0.0001254
0.0022716
0.00013734
0.0019568
0.00014609
0.0015127
0.00015383
0.0011642
0.00015808
0.00069856
0.00028846
0.00016082
2.0076e-05
0.0034921
9.0191e-08
4.0258e-05
0.0034009
5.9903e-05
0.003272
7.8517e-05
0.0030948
9.5952e-05
0.0028634
0.00011155
0.0025981
0.00012542
0.0022578
0.00013737
0.0019449
0.00014613
0.0015039
0.00015386
0.0011565
0.00015812
0.00069429
0.00028574
0.00016084
2.0077e-05
0.0034719
9.1456e-08
4.026e-05
0.0033807
5.9908e-05
0.0032524
7.8525e-05
0.0030762
9.5963e-05
0.0028459
0.00011157
0.0025825
0.00012544
0.0022439
0.0001374
0.0019329
0.00014617
0.0014952
0.00015389
0.0011488
0.00015817
0.00069001
0.00028304
0.00016087
2.0077e-05
0.0034517
9.2729e-08
4.0262e-05
0.0033605
5.9913e-05
0.0032327
7.8533e-05
0.0030576
9.5974e-05
0.0028285
0.0001116
0.0025669
0.00012545
0.00223
0.00013742
0.001921
0.0001462
0.0014864
0.00015391
0.0011411
0.00015821
0.00068572
0.00028035
0.0001609
2.0078e-05
0.0034316
9.4009e-08
4.0265e-05
0.0033404
5.9919e-05
0.0032131
7.8541e-05
0.0030389
9.5985e-05
0.002811
0.00011162
0.0025512
0.00012547
0.0022162
0.00013745
0.001909
0.00014624
0.0014776
0.00015394
0.0011334
0.00015826
0.0006814
0.00027768
0.00016093
2.0079e-05
0.0034114
9.5297e-08
4.0268e-05
0.0033202
5.9924e-05
0.0031934
7.855e-05
0.0030203
9.5996e-05
0.0027936
0.00011164
0.0025356
0.00012549
0.0022023
0.00013748
0.001897
0.00014628
0.0014688
0.00015397
0.0011257
0.0001583
0.00067707
0.00027503
0.00016095
2.008e-05
0.0033912
9.6591e-08
4.027e-05
0.0033
5.993e-05
0.0031737
7.8559e-05
0.0030017
9.6008e-05
0.0027762
0.00011166
0.0025199
0.00012551
0.0021885
0.0001375
0.001885
0.00014632
0.00146
0.000154
0.001118
0.00015834
0.00067273
0.0002724
0.00016098
2.008e-05
0.003371
9.7892e-08
4.0273e-05
0.0032798
5.9936e-05
0.0031541
7.8568e-05
0.002983
9.6019e-05
0.0027587
0.00011168
0.0025043
0.00012552
0.0021746
0.00013753
0.001873
0.00014635
0.0014511
0.00015403
0.0011103
0.00015839
0.00066838
0.00026978
0.00016101
2.0081e-05
0.0033509
9.92e-08
4.0276e-05
0.0032596
5.9942e-05
0.0031344
7.8577e-05
0.0029644
9.6031e-05
0.0027412
0.0001117
0.0024886
0.00012554
0.0021608
0.00013756
0.001861
0.00014639
0.0014423
0.00015406
0.0011026
0.00015843
0.00066401
0.00026717
0.00016103
2.0082e-05
0.0033307
1.0051e-07
4.0279e-05
0.0032394
5.9948e-05
0.0031147
7.8586e-05
0.0029458
9.6043e-05
0.0027238
0.00011172
0.0024729
0.00012556
0.002147
0.00013758
0.0018489
0.00014643
0.0014335
0.00015409
0.001095
0.00015847
0.00065963
0.00026458
0.00016106
2.0083e-05
0.0033105
1.0184e-07
4.0282e-05
0.0032192
5.9954e-05
0.0030951
7.8596e-05
0.0029271
9.6055e-05
0.0027063
0.00011174
0.0024572
0.00012557
0.0021331
0.00013761
0.0018369
0.00014646
0.0014246
0.00015412
0.0010873
0.00015851
0.00065523
0.00026201
0.00016108
2.0084e-05
0.0032903
1.0316e-07
4.0285e-05
0.003199
5.996e-05
0.0030754
7.8606e-05
0.0029085
9.6068e-05
0.0026889
0.00011176
0.0024416
0.00012559
0.0021193
0.00013763
0.0018249
0.0001465
0.0014157
0.00015415
0.0010797
0.00015855
0.00065083
0.00025945
0.00016111
2.0085e-05
0.0032701
1.0449e-07
4.0288e-05
0.0031788
5.9967e-05
0.0030557
7.8616e-05
0.0028898
9.608e-05
0.0026714
0.00011178
0.0024259
0.00012561
0.0021055
0.00013766
0.0018128
0.00014654
0.0014069
0.00015418
0.001072
0.00015859
0.00064641
0.00025691
0.00016114
2.0086e-05
0.0032499
1.0583e-07
4.0292e-05
0.0031586
5.9973e-05
0.003036
7.8626e-05
0.0028712
9.6092e-05
0.0026539
0.0001118
0.0024101
0.00012563
0.0020917
0.00013768
0.0018008
0.00014657
0.001398
0.0001542
0.0010644
0.00015863
0.00064198
0.00025438
0.00016116
2.0087e-05
0.0032297
1.0717e-07
4.0295e-05
0.0031384
5.998e-05
0.0030164
7.8637e-05
0.0028525
9.6105e-05
0.0026365
0.00011182
0.0023944
0.00012564
0.0020778
0.00013771
0.0017887
0.00014661
0.0013891
0.00015423
0.0010568
0.00015867
0.00063754
0.00025186
0.00016119
2.0088e-05
0.0032095
1.0852e-07
4.0299e-05
0.0031182
5.9987e-05
0.0029967
7.8648e-05
0.0028339
9.6117e-05
0.002619
0.00011184
0.0023787
0.00012566
0.002064
0.00013773
0.0017766
0.00014665
0.0013802
0.00015426
0.0010491
0.00015871
0.00063309
0.00024936
0.00016122
2.0089e-05
0.0031893
1.0987e-07
4.0303e-05
0.0030979
5.9994e-05
0.002977
7.8659e-05
0.0028152
9.613e-05
0.0026015
0.00011187
0.002363
0.00012568
0.0020502
0.00013775
0.0017646
0.00014668
0.0013712
0.00015429
0.0010415
0.00015875
0.00062864
0.00024687
0.00016124
2.0091e-05
0.0031691
1.1123e-07
4.0306e-05
0.0030777
6.0001e-05
0.0029573
7.867e-05
0.0027965
9.6143e-05
0.0025841
0.00011189
0.0023472
0.0001257
0.0020364
0.00013778
0.0017525
0.00014672
0.0013623
0.00015432
0.0010339
0.00015879
0.00062417
0.00024439
0.00016127
2.0092e-05
0.0031489
1.1259e-07
4.031e-05
0.0030575
6.0008e-05
0.0029376
7.8681e-05
0.0027779
9.6155e-05
0.0025666
0.00011191
0.0023315
0.00012571
0.0020226
0.0001378
0.0017404
0.00014676
0.0013533
0.00015435
0.0010263
0.00015883
0.00061969
0.00024192
0.00016129
2.0093e-05
0.0031287
1.1395e-07
4.0314e-05
0.0030373
6.0015e-05
0.0029179
7.8692e-05
0.0027592
9.6168e-05
0.0025491
0.00011193
0.0023157
0.00012573
0.0020088
0.00013783
0.0017283
0.00014679
0.0013444
0.00015438
0.0010187
0.00015887
0.00061521
0.00023947
0.00016132
2.0094e-05
0.0031085
1.1532e-07
4.0318e-05
0.0030171
6.0022e-05
0.0028982
7.8703e-05
0.0027405
9.6181e-05
0.0025316
0.00011195
0.0022999
0.00012575
0.001995
0.00013785
0.0017162
0.00014683
0.0013354
0.00015441
0.0010112
0.0001589
0.00061072
0.00023703
0.00016135
2.0096e-05
0.0030883
1.1668e-07
4.0322e-05
0.0029968
6.0029e-05
0.0028785
7.8714e-05
0.0027218
9.6193e-05
0.0025141
0.00011197
0.0022842
0.00012577
0.0019812
0.00013787
0.0017041
0.00014687
0.0013264
0.00015444
0.0010036
0.00015894
0.00060622
0.0002346
0.00016137
2.0097e-05
0.0030681
1.1805e-07
4.0327e-05
0.0029766
6.0036e-05
0.0028588
7.8726e-05
0.0027031
9.6206e-05
0.0024967
0.00011199
0.0022684
0.00012579
0.0019674
0.0001379
0.001692
0.0001469
0.0013174
0.00015447
0.00099601
0.00015898
0.00060171
0.00023218
0.0001614
2.0098e-05
0.0030479
1.1942e-07
4.0331e-05
0.0029564
6.0044e-05
0.002839
7.8737e-05
0.0026844
9.6219e-05
0.0024792
0.00011201
0.0022526
0.0001258
0.0019536
0.00013792
0.0016799
0.00014694
0.0013084
0.0001545
0.00098845
0.00015902
0.0005972
0.00022978
0.00016142
2.01e-05
0.0030276
1.2079e-07
4.0335e-05
0.0029361
6.0051e-05
0.0028193
7.8749e-05
0.0026657
9.6231e-05
0.0024617
0.00011203
0.0022368
0.00012582
0.0019398
0.00013794
0.0016677
0.00014698
0.0012993
0.00015454
0.00098089
0.00015906
0.00059268
0.00022738
0.00016145
2.0101e-05
0.0030074
1.2217e-07
4.034e-05
0.0029159
6.0059e-05
0.0027996
7.876e-05
0.002647
9.6244e-05
0.0024442
0.00011204
0.002221
0.00012584
0.001926
0.00013797
0.0016556
0.00014701
0.0012903
0.00015457
0.00097334
0.00015909
0.00058815
0.000225
0.00016148
2.0103e-05
0.0029872
1.2354e-07
4.0344e-05
0.0028957
6.0066e-05
0.0027799
7.8772e-05
0.0026283
9.6256e-05
0.0024267
0.00011206
0.0022052
0.00012586
0.0019122
0.00013799
0.0016435
0.00014705
0.0012812
0.0001546
0.00096579
0.00015913
0.00058362
0.00022262
0.0001615
2.0104e-05
0.002967
1.2491e-07
4.0349e-05
0.0028754
6.0074e-05
0.0027602
7.8783e-05
0.0026096
9.6269e-05
0.0024093
0.00011208
0.0021894
0.00012588
0.0018984
0.00013801
0.0016313
0.00014709
0.0012722