/*--------------------------------*- C++ -*----------------------------------*\
  =========                 |
  \\      /  F ield         | OpenFOAM: The Open Source CFD Toolbox
   \\    /   O peration     | Website:  https://openfoam.org
    \\  /    A nd           | Version:  6.0
     \\/     M anipulation  |
\*---------------------------------------------------------------------------*/
FoamFile
{
    version     2.0;
    format      ascii;
    class       surfaceScalarField;
    location    "17";
    object      phi;
}
// * * * * * * * * * * * * * * * * * * * * * * * * * * * * * * * * * * * * * //

dimensions      [0 3 -1 0 0 0 0];

internalField   nonuniform List<scalar> 
123526
(
-8.06448e-05
2.262e-05
8.10227e-05
-8.02416e-05
2.44645e-05
-7.98004e-05
2.646e-05
-7.9322e-05
2.8619e-05
-7.8804e-05
3.09549e-05
-7.82406e-05
3.34826e-05
-7.76326e-05
3.62179e-05
-7.69715e-05
3.91784e-05
-7.6259e-05
4.23817e-05
-7.54835e-05
4.58489e-05
-7.4649e-05
4.96026e-05
-7.37418e-05
5.36662e-05
-7.2766e-05
5.80655e-05
-7.17034e-05
6.2826e-05
-7.05565e-05
6.79796e-05
-6.9311e-05
7.35635e-05
-6.79703e-05
7.96105e-05
-6.65078e-05
8.6152e-05
-6.49292e-05
9.32397e-05
-6.32152e-05
0.000100921
-6.13632e-05
0.000109232
-5.93426e-05
0.000118236
-5.7172e-05
0.000127998
-5.4793e-05
0.000138555
-5.22359e-05
0.000150007
-4.94421e-05
0.000162405
-4.6427e-05
0.000175832
-4.31404e-05
0.000190384
-3.95829e-05
0.000206128
-3.57077e-05
0.000223193
-3.15066e-05
0.000241649
-2.6949e-05
0.000261639
-2.20258e-05
0.000283253
-1.66993e-05
0.000306621
-1.09148e-05
0.000331867
-4.61212e-06
0.000359101
2.22572e-06
0.00038848
9.64053e-06
0.00042011
1.76759e-05
0.000454107
2.6368e-05
0.000490585
3.57626e-05
0.000529612
4.59166e-05
0.000571224
5.68734e-05
0.000615425
6.86828e-05
0.000662133
8.14007e-05
0.000711168
9.50668e-05
0.000762223
0.000109748
0.000814819
0.000125441
0.000868258
0.000142192
0.00092156
0.000159943
0.000973426
0.000178622
0.00102209
0.000198243
0.00106534
0.000218312
0.00110051
0.000238935
0.00112372
0.000259555
0.00113026
0.000280098
0.00111392
0.00029981
0.00106739
0.000318066
0.00098118
0.000333731
0.000837158
0.000605994
0.000332232
-7.96144e-05
2.2245e-05
7.99898e-05
-7.92156e-05
2.40593e-05
-7.87811e-05
2.60221e-05
-7.83104e-05
2.81457e-05
-7.78024e-05
3.04433e-05
-7.72495e-05
3.29294e-05
-7.66548e-05
3.56195e-05
-7.60062e-05
3.85309e-05
-7.53083e-05
4.16803e-05
-7.45458e-05
4.50887e-05
-7.37257e-05
4.87795e-05
-7.28311e-05
5.2775e-05
-7.18691e-05
5.71009e-05
-7.08186e-05
6.17797e-05
-6.96852e-05
6.68443e-05
-6.84527e-05
7.23357e-05
-6.71266e-05
7.82831e-05
-6.56797e-05
8.47103e-05
-6.41185e-05
9.16778e-05
-6.24249e-05
9.92332e-05
-6.05941e-05
0.000107401
-5.86008e-05
0.00011625
-5.64565e-05
0.000125853
-5.41139e-05
0.000136221
-5.159e-05
0.000147481
-4.88438e-05
0.000159665
-4.58715e-05
0.000172858
-4.26457e-05
0.000187161
-3.91439e-05
0.000202626
-3.53452e-05
0.000219399
-3.12162e-05
0.000237528
-2.67467e-05
0.000257171
-2.19181e-05
0.000278404
-1.66916e-05
0.000301362
-1.10204e-05
0.000326168
-4.84675e-06
0.000352911
1.84821e-06
0.000381776
9.10566e-06
0.000412845
1.69726e-05
0.000446234
2.54854e-05
0.000482068
3.46928e-05
0.000520404
4.46532e-05
0.00056127
5.54131e-05
0.000604679
6.70241e-05
0.00065055
7.95421e-05
0.000698704
9.30045e-05
0.000748843
0.000107472
0.000800504
0.00012293
0.000853012
0.00013942
0.000905426
0.000156875
0.000956467
0.000175224
0.00100442
0.000194504
0.00104709
0.000214215
0.00108172
0.000234491
0.00110455
0.000254739
0.00111088
0.000274925
0.00109483
0.000294177
0.00104897
0.00031196
0.000964451
0.000323826
0.000826218
0.000608782
0.000322446
-7.84851e-05
2.1873e-05
7.88578e-05
-7.80889e-05
2.36569e-05
-7.76574e-05
2.55873e-05
-7.71914e-05
2.76764e-05
-7.66893e-05
2.99371e-05
-7.61455e-05
3.23835e-05
-7.55617e-05
3.50309e-05
-7.49283e-05
3.78961e-05
-7.42493e-05
4.09945e-05
-7.35086e-05
4.43472e-05
-7.2716e-05
4.79777e-05
-7.18489e-05
5.19075e-05
-7.09211e-05
5.61617e-05
-6.99015e-05
6.07603e-05
-6.88065e-05
6.5737e-05
-6.76064e-05
7.11367e-05
-6.63196e-05
7.6985e-05
-6.49057e-05
8.32987e-05
-6.33833e-05
9.01463e-05
-6.17237e-05
9.75769e-05
-5.99314e-05
0.000105602
-5.79749e-05
0.000114297
-5.58702e-05
0.000123742
-5.35688e-05
0.000133922
-5.10877e-05
0.000144994
-4.83886e-05
0.000156967
-4.54647e-05
0.000169929
-4.2294e-05
0.000183989
-3.88486e-05
0.000199179
-3.51147e-05
0.000215666
-3.10525e-05
0.000233472
-2.66588e-05
0.000252776
-2.19082e-05
0.000273635
-1.67687e-05
0.000296187
-1.11913e-05
0.000320563
-5.12178e-06
0.000346826
1.45748e-06
0.000375187
8.59003e-06
0.000405705
1.63238e-05
0.000438494
2.46965e-05
0.000473692
3.37572e-05
0.000511342
4.35641e-05
0.000551469
5.41631e-05
0.000594094
6.56038e-05
0.000639135
7.79382e-05
0.000686417
9.11985e-05
0.000735648
0.000105438
0.000786377
0.000120638
0.000837948
0.000136837
0.000889434
0.000153972
0.000939585
0.00017198
0.000986687
0.000190918
0.00102859
0.00021028
0.00106254
0.000230217
0.00108499
0.000250101
0.00109101
0.000269937
0.00107526
0.000288719
0.0010301
0.000306126
0.000947133
0.000318343
0.000813813
0.000607795
0.000318829
-7.73433e-05
2.15142e-05
7.77067e-05
-7.69571e-05
2.32667e-05
-7.65329e-05
2.51636e-05
-7.60743e-05
2.72168e-05
-7.55763e-05
2.94396e-05
-7.50376e-05
3.18458e-05
-7.44576e-05
3.44508e-05
-7.38297e-05
3.72709e-05
-7.31565e-05
4.03204e-05
-7.24256e-05
4.36204e-05
-7.16436e-05
4.71947e-05
-7.0794e-05
5.10632e-05
-6.98848e-05
5.52507e-05
-6.88923e-05
5.97738e-05
-6.7825e-05
6.46672e-05
-6.66611e-05
6.9979e-05
-6.54111e-05
7.57315e-05
-6.40407e-05
8.19338e-05
-6.25628e-05
8.86633e-05
-6.09512e-05
9.59698e-05
-5.92083e-05
0.000103852
-5.73025e-05
0.000112395
-5.52499e-05
0.000121682
-5.30012e-05
0.000131675
-5.05745e-05
0.000142559
-4.7931e-05
0.000154323
-4.50645e-05
0.000167055
-4.19536e-05
0.000180874
-3.85703e-05
0.000195792
-3.49021e-05
0.000211996
-3.09085e-05
0.000229483
-2.65858e-05
0.000248453
-2.19143e-05
0.000268939
-1.6854e-05
0.000291096
-1.13638e-05
0.000315045
-5.38802e-06
0.000340835
1.09027e-06
0.0003687
8.11415e-06
0.000398674
1.57324e-05
0.00043087
2.39817e-05
0.000465437
3.29105e-05
0.000502408
4.25748e-05
0.0005418
5.30184e-05
0.000583646
6.42874e-05
0.000627863
7.64293e-05
0.000674276
8.94729e-05
0.000722605
0.000103467
0.000772411
0.000118394
0.000823054
0.000134293
0.000873634
0.000151108
0.000922913
0.000168791
0.000969231
0.000187403
0.00101044
0.000206443
0.00104381
0.000226038
0.00106581
0.000245572
0.00107172
0.000265048
0.00105623
0.000283402
0.00101204
0.000300474
0.000930556
0.000313151
0.000801554
0.000606868
0.000314711
-7.61426e-05
2.11714e-05
7.64868e-05
-7.57746e-05
2.28939e-05
-7.5372e-05
2.47576e-05
-7.49323e-05
2.67745e-05
-7.44552e-05
2.89579e-05
-7.39329e-05
3.13219e-05
-7.33698e-05
3.38819e-05
-7.27541e-05
3.66543e-05
-7.20946e-05
3.96526e-05
-7.13728e-05
4.28983e-05
-7.06046e-05
4.64153e-05
-6.97637e-05
5.02228e-05
-6.88715e-05
5.43447e-05
-6.78914e-05
5.87949e-05
-6.68475e-05
6.36082e-05
-6.57031e-05
6.88366e-05
-6.44838e-05
7.4498e-05
-6.31418e-05
8.05948e-05
-6.17022e-05
8.72116e-05
-6.01284e-05
9.43996e-05
-5.84311e-05
0.000102145
-5.65717e-05
0.000110539
-5.45708e-05
0.000119671
-5.23757e-05
0.000129482
-5.00059e-05
0.00014018
-4.74213e-05
0.000151736
-4.46163e-05
0.000164242
-4.15694e-05
0.000177822
-3.82522e-05
0.000192469
-3.4653e-05
0.000208395
-3.07308e-05
0.000225565
-2.64853e-05
0.000244203
-2.18897e-05
0.000264324
-1.69145e-05
0.000286084
-1.15111e-05
0.000309615
-5.62817e-06
0.000334937
7.50873e-07
0.000362313
7.66864e-06
0.00039175
1.51724e-05
0.000423361
2.3298e-05
0.000457307
3.2092e-05
0.000493611
4.16084e-05
0.000532285
5.18886e-05
0.000573371
6.29759e-05
0.000616787
7.49148e-05
0.000662361
8.77327e-05
0.000709816
0.000101477
0.000758725
0.000116132
0.000808458
0.000131741
0.000858126
0.000148254
0.000906513
0.00016563
0.000951965
0.00018393
0.000992387
0.000202654
0.00102508
0.000221911
0.00104667
0.00024109
0.00105237
0.000260201
0.00103718
0.000278162
0.000993857
0.000294848
0.000913815
0.000307478
0.000788609
0.000602816
0.000310911
-7.48621e-05
2.08407e-05
7.51964e-05
-7.45094e-05
2.2538e-05
-7.41256e-05
2.43731e-05
-7.37094e-05
2.63579e-05
-7.32578e-05
2.85052e-05
-7.27639e-05
3.08293e-05
-7.22294e-05
3.33455e-05
-7.16429e-05
3.60705e-05
-7.10104e-05
3.90171e-05
-7.03153e-05
4.22073e-05
-6.95694e-05
4.56657e-05
-6.8752e-05
4.94107e-05
-6.78783e-05
5.34661e-05
-6.692e-05
5.78428e-05
-6.58938e-05
6.25766e-05
-6.47726e-05
6.7722e-05
-6.35747e-05
7.32939e-05
-6.22605e-05
7.92868e-05
-6.08494e-05
8.57935e-05
-5.93098e-05
9.28653e-05
-5.76495e-05
0.000100476
-5.58315e-05
0.000108725
-5.38758e-05
0.000117707
-5.17293e-05
0.000127337
-4.9412e-05
0.000137853
-4.68831e-05
0.000149206
-4.41373e-05
0.000161488
-4.11525e-05
0.000174832
-3.79012e-05
0.000189213
-3.4371e-05
0.000204862
-3.05221e-05
0.000221719
-2.63512e-05
0.00024003
-2.18395e-05
0.000259787
-1.69471e-05
0.00028116
-1.16342e-05
0.000304274
-5.84649e-06
0.000329136
4.31222e-07
0.000356028
7.24e-06
0.000384936
1.46256e-05
0.00041597
2.26223e-05
0.000449305
3.12754e-05
0.000484952
4.06369e-05
0.000522916
5.07464e-05
0.000563251
6.16456e-05
0.000605874
7.33772e-05
0.000650613
8.59686e-05
0.000697199
9.94667e-05
0.000745212
0.000113859
0.000794036
0.000129193
0.0008428
0.000145418
0.000890305
0.000162503
0.000934949
0.000180502
0.000974641
0.000198924
0.00100676
0.000217836
0.0010279
0.000236671
0.00103356
0.000255411
0.00101862
0.00027301
0.000976356
0.000289279
0.000897806
0.000301926
0.000776176
0.000597586
0.000307474
-7.36676e-05
2.05055e-05
7.40043e-05
-7.33133e-05
2.21807e-05
-7.29332e-05
2.39914e-05
-7.25253e-05
2.59486e-05
-7.20871e-05
2.80647e-05
-7.1612e-05
3.03535e-05
-7.10996e-05
3.28301e-05
-7.05399e-05
3.55109e-05
-6.99357e-05
3.8408e-05
-6.92711e-05
4.15437e-05
-6.85563e-05
4.49435e-05
-6.77689e-05
4.86253e-05
-6.69257e-05
5.26127e-05
-6.59944e-05
5.69145e-05
-6.49969e-05
6.15672e-05
-6.38999e-05
6.66291e-05
-6.27291e-05
7.21112e-05
-6.14387e-05
7.80013e-05
-6.00553e-05
8.43993e-05
-5.85425e-05
9.13575e-05
-5.69133e-05
9.88373e-05
-5.51282e-05
0.000106944
-5.32098e-05
0.000115779
-5.1104e-05
0.000125234
-4.88318e-05
0.000135572
-4.63518e-05
0.000146724
-4.36593e-05
0.000158787
-4.0732e-05
0.0001719
-3.75422e-05
0.000186017
-3.40779e-05
0.000201394
-3.0299e-05
0.000217943
-2.62053e-05
0.000235931
-2.17705e-05
0.000255333
-1.69655e-05
0.000276319
-1.17423e-05
0.000299025
-6.05119e-06
0.000323432
1.23234e-07
0.000349847
6.82061e-06
0.000378234
1.40847e-05
0.000408702
2.1949e-05
0.000441438
3.04574e-05
0.000476442
3.96605e-05
0.000513714
4.95968e-05
0.000553319
6.03069e-05
0.000595172
7.18331e-05
0.000639104
8.4203e-05
0.000684849
9.7464e-05
0.000731995
0.000111606
0.000779933
0.000126678
0.000827805
0.000142629
0.000874431
0.000159433
0.000918225
0.000177134
0.000957154
0.000195251
0.000988614
0.000213824
0.00100938
0.000232315
0.00101489
0.000250695
0.00100025
0.000267956
0.000958863
0.000283835
0.000881841
0.000296588
0.000763092
0.000589806
0.000303767
-7.27205e-05
2.01598e-05
7.30691e-05
-7.23543e-05
2.18127e-05
-7.19623e-05
2.35996e-05
-7.15451e-05
2.55315e-05
-7.10999e-05
2.76198e-05
-7.06227e-05
2.98778e-05
-7.01124e-05
3.23197e-05
-6.95604e-05
3.49617e-05
-6.89676e-05
3.78143e-05
-6.832e-05
4.09001e-05
-6.76235e-05
4.42452e-05
-6.68595e-05
4.78667e-05
-6.60381e-05
5.17882e-05
-6.51332e-05
5.60161e-05
-6.41583e-05
6.05881e-05
-6.30882e-05
6.55659e-05
-6.19401e-05
7.09579e-05
-6.06763e-05
7.67444e-05
-5.93171e-05
8.30335e-05
-5.78315e-05
8.9878e-05
-5.62294e-05
9.72275e-05
-5.44744e-05
0.000105194
-5.2588e-05
0.000113884
-5.05176e-05
0.000123166
-4.82843e-05
0.000133329
-4.5847e-05
0.000144285
-4.32018e-05
0.000156133
-4.0326e-05
0.000169019
-3.71928e-05
0.000182879
-3.37899e-05
0.000197988
-3.00783e-05
0.000214234
-2.60546e-05
0.000231905
-2.17007e-05
0.000250953
-1.69769e-05
0.000271565
-1.18438e-05
0.000293866
-6.24888e-06
0.000317825
-1.77853e-07
0.00034377
6.40746e-06
0.000371645
1.35495e-05
0.000401556
2.12806e-05
0.000433702
2.96441e-05
0.000468073
3.86891e-05
0.000504662
4.84536e-05
0.000543543
5.89776e-05
0.000584631
7.03027e-05
0.000627757
8.24575e-05
0.000672659
9.54889e-05
0.000718933
0.000109389
0.000765981
0.000124205
0.000812963
0.000139886
0.000858718
0.00015641
0.000901711
0.000173812
0.00093992
0.000191624
0.000970834
0.000209851
0.000991186
0.000228007
0.00099668
0.00024603
0.000982295
0.000262985
0.00094193
0.000278517
0.000866466
0.00029127
0.000750469
0.000581894
0.000299366
-7.20455e-05
1.98037e-05
7.24023e-05
-7.16655e-05
2.14307e-05
-7.12594e-05
2.31911e-05
-7.08242e-05
2.50955e-05
-7.0363e-05
2.71553e-05
-6.98681e-05
2.93828e-05
-6.93441e-05
3.17918e-05
-6.87796e-05
3.43976e-05
-6.81803e-05
3.72093e-05
-6.75284e-05
4.02494e-05
-6.68349e-05
4.35439e-05
-6.60752e-05
4.71091e-05
-6.52653e-05
5.09683e-05
-6.43715e-05
5.51255e-05
-6.34141e-05
5.96193e-05
-6.23594e-05
6.45154e-05
-6.12316e-05
6.98187e-05
-5.99858e-05
7.55036e-05
-5.86481e-05
8.16854e-05
-5.71829e-05
8.84182e-05
-5.56043e-05
9.56394e-05
-5.38736e-05
0.000103468
-5.20145e-05
0.000112015
-4.99742e-05
0.000121128
-4.77745e-05
0.00013112
-4.53749e-05
0.000141885
-4.27715e-05
0.000153522
-3.99424e-05
0.000166185
-3.68608e-05
0.000179792
-3.35149e-05
0.000194639
-2.98655e-05
0.000210588
-2.59124e-05
0.000227947
-2.163e-05
0.000246652
-1.69893e-05
0.00026689
-1.19431e-05
0.000288796
-6.44298e-06
0.000312313
-4.74601e-07
0.000337796
5.9992e-06
0.000365168
1.30196e-05
0.000394533
2.06185e-05
0.000426101
2.88382e-05
0.000459852
3.77271e-05
0.000495774
4.73227e-05
0.000533951
5.76643e-05
0.000574297
6.87936e-05
0.000616643
8.07391e-05
0.000660731
9.35471e-05
0.000706163
0.00010721
0.000752352
0.000121775
0.000798467
0.000137188
0.000843373
0.000153428
0.000885552
0.000170525
0.000923038
0.000188022
0.000953342
0.000205904
0.000973334
0.000223723
0.000978714
0.000241402
0.000964609
0.000258072
0.000925063
0.000273298
0.000851154
0.000285887
0.000737569
0.000572912
0.000294331
-7.15369e-05
1.94475e-05
7.18946e-05
-7.11526e-05
2.10452e-05
-7.07379e-05
2.27754e-05
-7.02909e-05
2.46491e-05
-6.98139e-05
2.66773e-05
-6.93016e-05
2.88722e-05
-6.87585e-05
3.12472e-05
-6.81751e-05
3.3817e-05
-6.75576e-05
3.65893e-05
-6.68905e-05
3.95863e-05
-6.61835e-05
4.28336e-05
-6.54158e-05
4.63465e-05
-6.45998e-05
5.01477e-05
-6.37067e-05
5.42384e-05
-6.2751e-05
5.86582e-05
-6.17047e-05
6.34758e-05
-6.05857e-05
6.86935e-05
-5.93542e-05
7.42789e-05
-5.80311e-05
8.03554e-05
-5.65845e-05
8.69777e-05
-5.50253e-05
9.40724e-05
-5.3317e-05
0.000101764
-5.14821e-05
0.000110172
-4.9469e-05
0.000119118
-4.72996e-05
0.000128942
-4.49338e-05
0.000139518
-4.23685e-05
0.000150948
-3.95819e-05
0.000163394
-3.65482e-05
0.000176753
-3.32552e-05
0.000191344
-2.96655e-05
0.000207001
-2.57755e-05
0.000224055
-2.15675e-05
0.00024242
-1.70029e-05
0.000262296
-1.20425e-05
0.000283811
-6.63531e-06
0.000306896
-7.6793e-07
0.000331925
5.59587e-06
0.000358802
1.24965e-05
0.000387631
1.99653e-05
0.00041863
2.80439e-05
0.000451769
3.67799e-05
0.000487031
4.62102e-05
0.000524509
5.63738e-05
0.000564116
6.73115e-05
0.00060568
7.9052e-05
0.000648952
9.16401e-05
0.000693538
0.000105069
0.000738862
0.000119382
0.000784113
0.000134523
0.000828176
0.000150476
0.00086958
0.000167259
0.000906378
0.000184439
0.000936166
0.000201973
0.00095578
0.000219461
0.000961143
0.000236801
0.000947288
0.000253207
0.000908648
0.00026816
0.000836304
0.00028051
0.00072531
0.00056451
0.000289035
-7.10734e-05
1.90981e-05
7.14228e-05
-7.0693e-05
2.06641e-05
-7.02809e-05
2.23612e-05
-6.98323e-05
2.42005e-05
-6.93506e-05
2.61932e-05
-6.88297e-05
2.83518e-05
-6.82746e-05
3.06894e-05
-6.7677e-05
3.32206e-05
-6.70434e-05
3.59517e-05
-6.636e-05
3.89048e-05
-6.56377e-05
4.21055e-05
-6.48558e-05
4.55676e-05
-6.40291e-05
4.93131e-05
-6.31273e-05
5.33405e-05
-6.21682e-05
5.76898e-05
-6.11203e-05
6.24329e-05
-6.00051e-05
6.75687e-05
-5.87792e-05
7.30587e-05
-5.74663e-05
7.90334e-05
-5.60316e-05
8.55489e-05
-5.44882e-05
9.25203e-05
-5.2798e-05
0.000100079
-5.09843e-05
0.000108349
-4.89955e-05
0.000117132
-4.68537e-05
0.000126791
-4.45192e-05
0.000137183
-4.19892e-05
0.000148411
-3.92425e-05
0.000160642
-3.62534e-05
0.00017376
-3.30106e-05
0.000188098
-2.94764e-05
0.000203471
-2.56504e-05
0.000220224
-2.15082e-05
0.000238259
-1.7021e-05
0.000257776
-1.21427e-05
0.00027891
-6.82632e-06
0.000301569
-1.05812e-06
0.000326153
5.1975e-06
0.000352544
1.19803e-05
0.000380847
1.93213e-05
0.000411288
2.72614e-05
0.000443829
3.58473e-05
0.000478448
4.51155e-05
0.000515245
5.51045e-05
0.000554134
6.58543e-05
0.000594944
7.73931e-05
0.000637429
8.97641e-05
0.000681202
0.00010296
0.000725697
0.000117021
0.000770117
0.00013189
0.000813371
0.000147551
0.000854005
0.000164021
0.000890127
0.000180878
0.000919342
0.00019807
0.000938613
0.000215231
0.000943866
0.000232245
0.000930265
0.000248398
0.00089233
0.000263114
0.000821506
0.000275262
0.000712873
0.000555443
0.000283844
-7.05671e-05
1.87615e-05
7.09044e-05
-7.01989e-05
2.02956e-05
-6.9797e-05
2.19587e-05
-6.93573e-05
2.37618e-05
-6.88814e-05
2.57168e-05
-6.83636e-05
2.78361e-05
-6.78081e-05
3.01331e-05
-6.72069e-05
3.26224e-05
-6.65665e-05
3.53097e-05
-6.58743e-05
3.82167e-05
-6.51407e-05
4.13694e-05
-6.43483e-05
4.47805e-05
-6.35098e-05
4.8471e-05
-6.25997e-05
5.24365e-05
-6.16322e-05
5.67175e-05
-6.05812e-05
6.13886e-05
-5.94638e-05
6.64457e-05
-5.82416e-05
7.18432e-05
-5.69341e-05
7.77195e-05
-5.55098e-05
8.4131e-05
-5.3979e-05
9.09821e-05
-5.23055e-05
9.8411e-05
-5.0511e-05
0.000106547
-4.85452e-05
0.000115169
-4.64294e-05
0.000124667
-4.41247e-05
0.000134877
-4.16285e-05
0.000145907
-3.89196e-05
0.000157929
-3.59735e-05
0.000170809
-3.27786e-05
0.000184901
-2.92987e-05
0.000199994
-2.55308e-05
0.000216455
-2.14574e-05
0.000234163
-1.70413e-05
0.000253332
-1.2244e-05
0.000274091
-7.01622e-06
0.000296333
-1.34498e-06
0.00032048
4.80475e-06
0.000346394
1.14723e-05
0.000374178
1.86882e-05
0.00040407
2.64925e-05
0.00043602
3.49314e-05
0.000470002
4.40407e-05
0.000506124
5.38579e-05
0.000544298
6.44224e-05
0.000584354
7.57616e-05
0.00062605
8.79169e-05
0.000669006
0.00010088
0.000712669
0.000114688
0.000756258
0.000129284
0.000798706
0.000144654
0.0008386
0.000160808
0.000874066
0.00017735
0.000902789
0.000194205
0.000921708
0.000211052
0.000926923
0.00022775
0.000913555
0.000243662
0.000876395
0.000258171
0.000807069
0.000270217
0.0007009
0.000546791
0.00027896
-6.99858e-05
1.84378e-05
7.03083e-05
-6.9631e-05
1.99408e-05
-6.92453e-05
2.157e-05
-6.88196e-05
2.33367e-05
-6.8359e-05
2.52526e-05
-6.78528e-05
2.73307e-05
-6.7308e-05
2.95847e-05
-6.67135e-05
3.20292e-05
-6.6078e-05
3.46694e-05
-6.53866e-05
3.75272e-05
-6.46527e-05
4.06291e-05
-6.38562e-05
4.39868e-05
-6.30143e-05
4.76209e-05
-6.20981e-05
5.15243e-05
-6.11275e-05
5.57375e-05
-6.00722e-05
6.03382e-05
-5.89544e-05
6.53185e-05
-5.77324e-05
7.06268e-05
-5.64296e-05
7.64079e-05
-5.5012e-05
8.27192e-05
-5.34921e-05
8.94538e-05
-5.18326e-05
9.67566e-05
-5.00558e-05
0.000104762
-4.81113e-05
0.000113228
-4.60203e-05
0.000122568
-4.37445e-05
0.000132601
-4.12809e-05
0.000143436
-3.86091e-05
0.000155253
-3.57045e-05
0.0001679
-3.25564e-05
0.000181751
-2.91284e-05
0.00019657
-2.54203e-05
0.000212743
-2.14086e-05
0.000230134
-1.70653e-05
0.000248957
-1.23459e-05
0.000269351
-7.20467e-06
0.000291184
-1.62842e-06
0.000314902
4.41747e-06
0.000340348
1.09718e-05
0.000367624
1.80647e-05
0.000396977
2.57355e-05
0.00042835
3.40295e-05
0.000461711
4.29818e-05
0.000497176
5.26293e-05
0.000534657
6.30103e-05
0.000573986
7.41514e-05
0.000614923
8.60921e-05
0.000657097
9.88236e-05
0.000699965
0.000112381
0.000742762
0.000126706
0.000784441
0.000141786
0.000823608
0.000157633
0.000858437
0.000173863
0.00088662
0.000190396
0.000905198
0.00020694
0.000910294
0.000223339
0.000897146
0.000239016
0.000860585
0.00025335
0.000792658
0.000265392
0.000688594
0.000537359
0.0002744
-6.93211e-05
1.81276e-05
6.96308e-05
-6.89811e-05
1.96013e-05
-6.86112e-05
2.11983e-05
-6.82027e-05
2.29296e-05
-6.77592e-05
2.48073e-05
-6.72704e-05
2.68443e-05
-6.67422e-05
2.90544e-05
-6.61626e-05
3.14528e-05
-6.55401e-05
3.4044e-05
-6.48594e-05
3.68506e-05
-6.41331e-05
3.98993e-05
-6.33426e-05
4.32014e-05
-6.25035e-05
4.6777e-05
-6.15901e-05
5.06167e-05
-6.06196e-05
5.47615e-05
-5.95664e-05
5.92914e-05
-5.84497e-05
6.41956e-05
-5.7232e-05
6.94158e-05
-5.59341e-05
7.51034e-05
-5.45251e-05
8.13163e-05
-5.30158e-05
8.79373e-05
-5.13708e-05
9.51167e-05
-4.96111e-05
0.000102994
-4.76878e-05
0.000111308
-4.56212e-05
0.000120493
-4.33736e-05
0.000130353
-4.09422e-05
0.000140998
-3.83068e-05
0.000152614
-3.54433e-05
0.000165033
-3.2341e-05
0.000178646
-2.89649e-05
0.000193197
-2.53121e-05
0.000209089
-2.13658e-05
0.000226166
-1.70902e-05
0.000244655
-1.2448e-05
0.000264688
-7.3916e-06
0.00028612
-1.90835e-06
0.000309417
4.03578e-06
0.000334404
1.04791e-05
0.000361181
1.74511e-05
0.000390004
2.49904e-05
0.000420808
3.31414e-05
0.000453553
4.19385e-05
0.000488367
5.14179e-05
0.000525159
6.16166e-05
0.000563761
7.25605e-05
0.000603939
8.42874e-05
0.000645329
9.67884e-05
0.000687398
0.000110096
0.0007294
0.000124152
0.000770308
0.000138949
0.000808766
0.000154494
0.000842965
0.000170426
0.00087067
0.00018665
0.000888908
0.000202908
0.000893938
0.000219024
0.000881001
0.000234475
0.000845108
0.000248652
0.000778535
0.000260751
0.000676557
0.00052811
0.000270079
-6.85853e-05
1.78282e-05
6.88831e-05
-6.82576e-05
1.92743e-05
-6.79028e-05
2.08408e-05
-6.75106e-05
2.25384e-05
-6.70854e-05
2.43792e-05
-6.66156e-05
2.63759e-05
-6.61068e-05
2.85427e-05
-6.55469e-05
3.08947e-05
-6.4943e-05
3.34362e-05
-6.42798e-05
3.61899e-05
-6.35695e-05
3.91836e-05
-6.27925e-05
4.24279e-05
-6.19657e-05
4.5943e-05
-6.10616e-05
4.97171e-05
-6.01003e-05
5.37919e-05
-5.90538e-05
5.82502e-05
-5.79445e-05
6.30779e-05
-5.67335e-05
6.82105e-05
-5.54441e-05
7.38059e-05
-5.40443e-05
7.99225e-05
-5.25469e-05
8.6432e-05
-5.09162e-05
9.34911e-05
-4.91738e-05
0.000101244
-4.72712e-05
0.000109408
-4.52287e-05
0.000118443
-4.30091e-05
0.000128133
-4.06095e-05
0.000138591
-3.80102e-05
0.000150011
-3.51873e-05
0.000162206
-3.21304e-05
0.000175588
-2.88046e-05
0.000189875
-2.52095e-05
0.00020549
-2.13228e-05
0.000222263
-1.71171e-05
0.000240421
-1.25498e-05
0.000260101
-7.5767e-06
0.00028114
-2.18496e-06
0.000304025
3.65896e-06
0.000328561
9.99271e-06
0.000354848
1.68452e-05
0.000383153
2.42542e-05
0.0004134
3.22634e-05
0.000445547
4.09064e-05
0.000479728
5.02185e-05
0.000515854
6.02359e-05
0.000553756
7.09837e-05
0.000593205
8.24985e-05
0.000633844
9.47709e-05
0.000675152
0.000107832
0.000716396
0.000121626
0.000756571
0.000136146
0.000794336
0.000151401
0.000827925
0.000167045
0.000855106
0.000182978
0.000873
0.000198964
0.000877889
0.000214815
0.000865141
0.000230048
0.000829766
0.000244081
0.000764428
0.000256251
0.000664144
0.000518103
0.000265883
-6.77895e-05
1.75386e-05
6.80782e-05
-6.74731e-05
1.8959e-05
-6.71309e-05
2.0497e-05
-6.67536e-05
2.2163e-05
-6.63449e-05
2.39689e-05
-6.58936e-05
2.59273e-05
-6.54049e-05
2.80523e-05
-6.48657e-05
3.03591e-05
-6.42834e-05
3.28514e-05
-6.36414e-05
3.55523e-05
-6.29515e-05
3.84905e-05
-6.21943e-05
4.1676e-05
-6.1385e-05
4.51292e-05
-6.04979e-05
4.88361e-05
-5.95508e-05
5.28394e-05
-5.85185e-05
5.72245e-05
-5.74213e-05
6.19746e-05
-5.62232e-05
6.70191e-05
-5.49459e-05
7.25222e-05
-5.35599e-05
7.85426e-05
-5.20768e-05
8.4942e-05
-5.04628e-05
9.18822e-05
-4.8739e-05
9.95127e-05
-4.68581e-05
0.00010753
-4.484e-05
0.000116417
-4.26486e-05
0.000125941
-4.02808e-05
0.000136217
-3.77173e-05
0.000147444
-3.49348e-05
0.00015942
-3.19229e-05
0.000172574
-2.86478e-05
0.000186603
-2.51068e-05
0.000201948
-2.12836e-05
0.00021842
-1.71437e-05
0.000236256
-1.26511e-05
0.00025559
-7.76004e-06
0.000276243
-2.45838e-06
0.000298723
3.28681e-06
0.000322817
9.51249e-06
0.000348623
1.62469e-05
0.000376418
2.3527e-05
0.000406117
3.13956e-05
0.000437672
3.98857e-05
0.000471227
4.90317e-05
0.00050669
5.88689e-05
0.000543893
6.9422e-05
0.000582613
8.07262e-05
0.000622498
9.27729e-05
0.000663041
0.000105592
0.00070352
0.000119128
0.000742954
0.000133381
0.000780033
0.000148356
0.000813008
0.000163726
0.000839713
0.000179383
0.000857267
0.000195113
0.00086206
0.000210714
0.000849501
0.000225737
0.000814716
0.000239629
0.00075058
0.000251846
0.000651986
0.000508309
0.000261718
-6.69503e-05
1.72562e-05
6.72301e-05
-6.66422e-05
1.86522e-05
-6.6312e-05
2.01632e-05
-6.59469e-05
2.17993e-05
-6.5554e-05
2.35721e-05
-6.51192e-05
2.54941e-05
-6.46496e-05
2.7579e-05
-6.41307e-05
2.98422e-05
-6.35704e-05
3.22864e-05
-6.29509e-05
3.49354e-05
-6.22845e-05
3.78183e-05
-6.15499e-05
4.09448e-05
-6.07635e-05
4.43354e-05
-5.98973e-05
4.79743e-05
-5.89712e-05
5.1905e-05
-5.79574e-05
5.62159e-05
-5.68787e-05
6.08875e-05
-5.56973e-05
6.58434e-05
-5.44371e-05
7.12541e-05
-5.30676e-05
7.71789e-05
-5.16021e-05
8.3469e-05
-5.00069e-05
9.0292e-05
-4.83034e-05
9.78018e-05
-4.64454e-05
0.000105675
-4.44528e-05
0.000114417
-4.22901e-05
0.000123778
-3.99544e-05
0.000133875
-3.74269e-05
0.000144913
-3.46846e-05
0.000156674
-3.17175e-05
0.000169606
-2.84921e-05
0.000183381
-2.50077e-05
0.000198461
-2.12429e-05
0.00021464
-1.7171e-05
0.000232158
-1.27514e-05
0.000251153
-7.94143e-06
0.000271427
-2.72887e-06
0.00029351
2.9186e-06
0.000317171
9.03713e-06
0.000342506
1.56543e-05
0.000369802
2.28064e-05
0.000398967
3.05353e-05
0.000429947
3.88735e-05
0.000462893
4.78546e-05
0.000497715
5.75133e-05
0.000534246
6.78736e-05
0.000572265
7.89704e-05
0.000611429
9.07953e-05
0.00065124
0.000103377
0.000690993
0.000116665
0.00072972
0.000130659
0.000766129
0.000145367
0.00079851
0.000160475
0.0008247
0.000175872
0.000841897
0.000191359
0.000846529
0.000206725
0.000834128
0.000221544
0.000799808
0.000235293
0.00073676
0.000247508
0.000639549
0.000497964
0.000257528
-6.60764e-05
1.6981e-05
6.63498e-05
-6.57765e-05
1.83539e-05
-6.5455e-05
1.98393e-05
-6.51009e-05
2.14474e-05
-6.47203e-05
2.31891e-05
-6.42999e-05
2.50767e-05
-6.38472e-05
2.71238e-05
-6.33468e-05
2.93454e-05
-6.28073e-05
3.17437e-05
-6.22098e-05
3.43424e-05
-6.15668e-05
3.71713e-05
-6.08564e-05
4.02398e-05
-6.00943e-05
4.35682e-05
-5.9253e-05
4.7139e-05
-5.83505e-05
5.09967e-05
-5.73607e-05
5.52326e-05
-5.63043e-05
5.98248e-05
-5.51455e-05
6.46912e-05
-5.39067e-05
7.00087e-05
-5.2559e-05
7.58373e-05
-5.11151e-05
8.20182e-05
-4.95424e-05
8.87244e-05
-4.78622e-05
9.61145e-05
-4.60296e-05
0.000103846
-4.4064e-05
0.000112444
-4.19312e-05
0.000121645
-3.96284e-05
0.000131566
-3.71374e-05
0.000142419
-3.44355e-05
0.000153969
-3.15133e-05
0.000166682
-2.83381e-05
0.00018021
-2.49071e-05
0.00019503
-2.12044e-05
0.000210919
-1.71971e-05
0.000228127
-1.28506e-05
0.000246789
-8.12086e-06
0.000266693
-2.99636e-06
0.000288387
2.55449e-06
0.000311622
8.56705e-06
0.000336495
1.50682e-05
0.000363301
2.20935e-05
0.000391939
2.96842e-05
0.00042235
3.78722e-05
0.000454694
4.66902e-05
0.00048888
5.61724e-05
0.000524739
6.63429e-05
0.000562057
7.72357e-05
0.000600497
8.88437e-05
0.00063957
0.000101195
0.000678584
0.000114242
0.000716592
0.000127987
0.00075233
0.000142437
0.000784106
0.000157296
0.000809815
0.000172445
0.00082667
0.0001877
0.000831179
0.000202841
0.000818945
0.000217462
0.000785163
0.000231061
0.0007232
0.000243222
0.000627446
0.00048798
0.000253294
-6.51794e-05
1.6711e-05
6.54465e-05
-6.48854e-05
1.80617e-05
-6.45721e-05
1.95227e-05
-6.42268e-05
2.11039e-05
-6.38571e-05
2.2816e-05
-6.34495e-05
2.4671e-05
-6.3011e-05
2.66822e-05
-6.25275e-05
2.88643e-05
-6.20064e-05
3.12186e-05
-6.143e-05
3.3769e-05
-6.08096e-05
3.65456e-05
-6.01233e-05
3.95574e-05
-5.93868e-05
4.28247e-05
-5.85712e-05
4.63282e-05
-5.76957e-05
5.01132e-05
-5.67318e-05
5.42742e-05
-5.57018e-05
5.87868e-05
-5.45684e-05
6.35637e-05
-5.33552e-05
6.87879e-05
-5.20323e-05
7.45201e-05
-5.06134e-05
8.05921e-05
-4.90662e-05
8.71821e-05
-4.74122e-05
9.44532e-05
-4.56071e-05
0.000102044
-4.36707e-05
0.000110501
-4.15694e-05
0.000119544
-3.93007e-05
0.000129292
-3.6847e-05
0.000139962
-3.41861e-05
0.000151305
-3.1309e-05
0.000163803
-2.81833e-05
0.000177088
-2.48084e-05
0.000191652
-2.11634e-05
0.00020726
-1.72229e-05
0.000224162
-1.2948e-05
0.000242498
-8.29778e-06
0.000262038
-3.26062e-06
0.00028335
2.1944e-06
0.000306169
8.1018e-06
0.00033059
1.44879e-05
0.000356917
2.13876e-05
0.000385041
2.88415e-05
0.0004149
3.68809e-05
0.00044666
4.55382e-05
0.000480229
5.48469e-05
0.000515442
6.48311e-05
0.000552085
7.55247e-05
0.000589831
8.69215e-05
0.000628198
9.90495e-05
0.000666509
0.000111864
0.000703831
0.000125369
0.000738915
0.000139574
0.000770105
0.000154193
0.000795301
0.000169107
0.000811789
0.000184137
0.000816118
0.000199062
0.000804015
0.000213487
0.000770666
0.000226928
0.000709692
0.000238982
0.000615189
0.00047766
0.000249018
-6.42645e-05
1.64468e-05
6.45269e-05
-6.39766e-05
1.77759e-05
-6.36696e-05
1.92135e-05
-6.33323e-05
2.07691e-05
-6.29715e-05
2.24531e-05
-6.25744e-05
2.42771e-05
-6.21488e-05
2.62543e-05
-6.16795e-05
2.8399e-05
-6.11755e-05
3.07115e-05
-6.06175e-05
3.32158e-05
-6.00183e-05
3.59424e-05
-5.93547e-05
3.88995e-05
-5.86427e-05
4.21074e-05
-5.78532e-05
4.5545e-05
-5.70045e-05
4.92584e-05
-5.60686e-05
5.3345e-05
-5.50666e-05
5.77782e-05
-5.39619e-05
6.24655e-05
-5.27769e-05
6.75962e-05
-5.14826e-05
7.32319e-05
-5.00922e-05
7.91949e-05
-4.85741e-05
8.56688e-05
-4.69491e-05
9.28214e-05
-4.51746e-05
0.000100272
-4.32697e-05
0.000108589
-4.12019e-05
0.000117476
-3.89688e-05
0.000127053
-3.65536e-05
0.000137544
-3.39346e-05
0.000148683
-3.11031e-05
0.000160971
-2.80279e-05
0.000174016
-2.47064e-05
0.00018833
-2.11229e-05
0.000203659
-1.72462e-05
0.000220263
-1.30431e-05
0.00023828
-8.47167e-06
0.000257462
-3.52091e-06
0.000278401
1.83933e-06
0.000300811
7.64282e-06
0.000324788
1.39153e-05
0.000350645
2.06911e-05
0.000378263
2.80103e-05
0.000407575
3.59037e-05
0.000438756
4.44033e-05
0.000471714
5.35421e-05
0.00050628
6.33443e-05
0.000542247
7.38438e-05
0.000579293
8.50356e-05
0.000616947
9.69474e-05
0.00065454
0.000109537
0.00069116
0.000122812
0.000725585
0.00013678
0.000756173
0.000151169
0.000780884
0.000165854