/*--------------------------------*- C++ -*----------------------------------*\
  =========                 |
  \\      /  F ield         | OpenFOAM: The Open Source CFD Toolbox
   \\    /   O peration     | Website:  https://openfoam.org
    \\  /    A nd           | Version:  6.0
     \\/     M anipulation  |
\*---------------------------------------------------------------------------*/
FoamFile
{
    version     2.0;
    format      ascii;
    class       volVectorField;
    location    "17";
    object      U;
}
// * * * * * * * * * * * * * * * * * * * * * * * * * * * * * * * * * * * * * //

dimensions      [0 1 -1 0 0 0 0];

internalField   nonuniform List<vector> 
62000
(
(0.965764 0.259243 -2.11803e-21)
(0.965752 0.259223 1.78827e-21)
(0.965741 0.259215 1.84593e-21)
(0.965731 0.259205 -8.19701e-21)
(0.965724 0.259193 -9.47887e-21)
(0.96572 0.259179 3.33058e-20)
(0.965719 0.259164 -3.71959e-20)
(0.965722 0.259147 2.19839e-20)
(0.965728 0.259129 -1.04852e-20)
(0.965738 0.259109 -5.46161e-20)
(0.965749 0.259089 -7.25255e-21)
(0.965762 0.259068 7.93567e-20)
(0.965775 0.259047 1.65989e-20)
(0.965789 0.259027 -5.91608e-20)
(0.965801 0.259008 9.44027e-20)
(0.965813 0.258991 -5.11088e-20)
(0.965824 0.258977 5.4438e-20)
(0.965834 0.258964 -6.49473e-20)
(0.965843 0.258953 3.29022e-20)
(0.96585 0.258945 -1.04133e-19)
(0.965856 0.25894 1.38852e-19)
(0.965862 0.258936 4.26578e-20)
(0.965866 0.258936 6.31883e-20)
(0.96587 0.258938 -2.88932e-19)
(0.965874 0.258944 1.08116e-19)
(0.965876 0.258953 -6.94354e-20)
(0.965878 0.258965 -1.65293e-21)
(0.965879 0.258979 -5.99184e-20)
(0.965878 0.258997 1.86917e-19)
(0.965878 0.259017 -1.08912e-19)
(0.965876 0.259039 2.6829e-19)
(0.965875 0.259068 -5.6894e-19)
(0.965871 0.259109 5.22603e-20)
(0.96586 0.259166 -2.1113e-19)
(0.965842 0.259232 -7.32745e-20)
(0.96582 0.259294 -2.37532e-19)
(0.965797 0.25935 -8.52338e-20)
(0.965771 0.259402 -9.61764e-20)
(0.965739 0.259455 2.48281e-19)
(0.965698 0.25951 1.25367e-18)
(0.965644 0.259564 -3.17653e-19)
(0.965573 0.259611 -1.92781e-18)
(0.96548 0.259641 -3.264e-18)
(0.96536 0.25964 1.89346e-18)
(0.965207 0.259588 5.81617e-19)
(0.965015 0.259461 -3.08666e-18)
(0.964781 0.25923 8.24508e-19)
(0.9645 0.258869 -1.41493e-18)
(0.964168 0.258353 -7.05829e-18)
(0.96379 0.257666 -1.65937e-18)
(0.963358 0.256796 -8.86798e-19)
(0.962909 0.255708 -1.20914e-17)
(0.962446 0.254433 1.43768e-18)
(0.961958 0.252892 1.38582e-17)
(0.961508 0.250972 3.70286e-18)
(0.961126 0.248508 1.22625e-17)
(0.960924 0.245154 -1.5337e-18)
(0.960851 0.24063 -2.60747e-18)
(0.961094 0.23169 5.58803e-18)
(0.942035 0.210482 1.12356e-18)
(0.965867 0.26082 -5.50905e-22)
(0.965867 0.260779 5.32956e-21)
(0.965856 0.260751 2.2244e-21)
(0.965833 0.260728 -9.73815e-21)
(0.965801 0.260705 4.10055e-21)
(0.965762 0.260682 -2.87458e-20)
(0.96572 0.260659 2.67613e-20)
(0.965677 0.260634 1.5778e-20)
(0.965637 0.260607 -3.00404e-20)
(0.965603 0.260575 1.28243e-21)
(0.965575 0.26054 3.02913e-20)
(0.965555 0.2605 1.54088e-22)
(0.965543 0.260456 9.18712e-21)
(0.965538 0.260408 -7.98459e-20)
(0.96554 0.260358 1.64121e-19)
(0.965547 0.260305 -1.48203e-19)
(0.965558 0.260253 7.1309e-20)
(0.965572 0.260201 -1.51757e-20)
(0.965589 0.260152 -4.32002e-20)
(0.965607 0.260103 1.22394e-19)
(0.965625 0.260059 -1.97711e-19)
(0.965644 0.260018 1.17756e-19)
(0.965662 0.259981 -1.54283e-19)
(0.965678 0.25995 9.34101e-20)
(0.965695 0.259924 9.00866e-20)
(0.965709 0.259904 -6.04533e-20)
(0.965722 0.259892 -1.49971e-21)
(0.965731 0.259887 6.98547e-20)
(0.965741 0.259892 6.11913e-20)
(0.965746 0.259906 -1.33851e-19)
(0.965753 0.259938 2.76762e-19)
(0.965757 0.259979 6.13513e-20)
(0.96576 0.260033 1.91382e-19)
(0.965754 0.260094 1.98266e-20)
(0.965731 0.260171 6.29399e-20)
(0.96569 0.260269 -6.498e-20)
(0.965637 0.260379 -2.23711e-19)
(0.965572 0.260497 -1.038e-19)
(0.965492 0.260616 -6.75519e-19)
(0.96539 0.260728 -8.30219e-19)
(0.965261 0.260821 6.6349e-19)
(0.965099 0.260875 4.17431e-19)
(0.9649 0.260867 3.40305e-18)
(0.964661 0.260764 2.20632e-19)
(0.964376 0.260534 -5.97071e-18)
(0.964042 0.260143 2.5401e-18)
(0.963651 0.259567 2.28929e-18)
(0.963194 0.258792 2.83567e-18)
(0.96266 0.257809 6.42467e-19)
(0.962026 0.256613 1.2269e-19)
(0.961296 0.255158 5.41865e-18)
(0.960468 0.253409 1.50543e-17)
(0.959581 0.251238 -1.02289e-17)
(0.958721 0.248555 -2.49551e-17)
(0.957963 0.245143 -6.01744e-18)
(0.9574 0.241028 -4.00617e-18)
(0.957082 0.235433 -9.58136e-18)
(0.956581 0.228421 -4.75754e-18)
(0.957372 0.214718 7.76628e-18)
(0.932227 0.187208 3.08521e-18)
(0.965783 0.261856 -2.63435e-21)
(0.965835 0.261838 -3.70753e-22)
(0.965884 0.261815 4.24699e-22)
(0.965923 0.261797 1.93573e-21)
(0.965946 0.261778 5.54806e-21)
(0.965952 0.26176 -5.34176e-21)
(0.96594 0.261745 2.89094e-20)
(0.96591 0.261732 -1.40034e-20)
(0.965867 0.261722 -7.65736e-21)
(0.965814 0.261713 -4.78825e-20)
(0.965755 0.261707 4.10829e-20)
(0.965697 0.261699 3.08296e-21)
(0.965641 0.261691 -9.81657e-21)
(0.965592 0.26168 2.65873e-20)
(0.965552 0.261666 -4.64497e-20)
(0.965521 0.261648 1.82311e-22)
(0.9655 0.261627 -2.24977e-20)
(0.965488 0.261601 1.59501e-22)
(0.965485 0.261571 5.44821e-20)
(0.965488 0.261538 -8.52601e-20)
(0.965497 0.261502 5.42231e-20)
(0.96551 0.261464 2.19053e-19)
(0.965526 0.261427 -2.79753e-20)
(0.965542 0.261388 -3.20715e-19)
(0.965559 0.261353 1.68725e-19)
(0.965574 0.261319 -9.53693e-20)
(0.965589 0.261291 1.5919e-19)
(0.965598 0.261266 -9.80802e-20)
(0.965608 0.261252 -2.05383e-19)
(0.965612 0.261248 2.25557e-19)
(0.965619 0.261263 -1.65671e-19)
(0.965619 0.261287 2.32224e-19)
(0.965621 0.261314 -6.69972e-19)
(0.965614 0.261337 6.26194e-19)
(0.965586 0.261377 -3.50095e-19)
(0.965533 0.261446 1.46772e-19)
(0.965463 0.261536 1.14055e-19)
(0.965375 0.261637 -2.27101e-20)
(0.96527 0.261726 -5.4868e-20)
(0.965143 0.261794 8.29565e-19)
(0.964991 0.261821 -3.56726e-19)
(0.96481 0.261787 5.81518e-19)
(0.964601 0.261664 -2.19041e-18)
(0.964363 0.261421 -1.14855e-18)
(0.964094 0.261035 1.34676e-18)
(0.963796 0.260483 -4.8262e-18)
(0.963457 0.259766 6.9307e-19)
(0.963066 0.258889 -4.74964e-18)
(0.962605 0.257864 6.98679e-18)
(0.962038 0.256693 1.89389e-18)
(0.961382 0.255299 1.01099e-18)
(0.96061 0.253658 -2.96461e-19)
(0.959807 0.251591 4.42216e-18)
(0.959086 0.249038 4.84681e-19)
(0.958539 0.24585 -9.10986e-18)
(0.958175 0.242265 -4.96211e-18)
(0.958074 0.237597 -3.72487e-18)
(0.957092 0.232181 -1.14094e-17)
(0.958607 0.22239 -8.32802e-19)
(0.937709 0.206735 1.09495e-18)
(0.965524 0.262804 -2.64961e-21)
(0.96553 0.262801 8.18741e-21)
(0.965565 0.262791 -1.27555e-21)
(0.965622 0.262776 -8.5941e-21)
(0.965692 0.262755 1.30807e-20)
(0.965764 0.262728 2.27555e-20)
(0.965829 0.262701 -3.0103e-20)
(0.96588 0.262674 3.29866e-21)
(0.965912 0.26265 1.06538e-20)
(0.965923 0.262631 2.24596e-20)
(0.965913 0.262619 -4.21726e-20)
(0.965885 0.262615 -1.31703e-20)
(0.965843 0.262618 -1.49455e-20)
(0.965792 0.262628 6.92704e-20)
(0.965736 0.262644 -4.69774e-20)
(0.96568 0.262664 1.11737e-19)
(0.965627 0.262687 -1.37805e-19)
(0.965581 0.262709 -2.0752e-20)
(0.965542 0.262729 1.5113e-19)
(0.965511 0.262745 -5.35762e-20)
(0.965488 0.262757 -1.99677e-20)
(0.965473 0.262761 -2.20181e-20)
(0.965464 0.262761 -2.06069e-19)
(0.965459 0.262754 1.19879e-19)
(0.965458 0.262743 -5.73065e-20)
(0.965458 0.262727 9.31743e-20)
(0.96546 0.26271 4.45693e-20)
(0.965459 0.262689 2.31158e-19)
(0.965458 0.262672 -1.4721e-19)
(0.965453 0.262659 -2.01626e-19)
(0.965451 0.262661 3.28605e-19)
(0.965442 0.262664 -2.76675e-19)
(0.965436 0.262657 5.35416e-19)
(0.965423 0.262635 -3.43767e-19)
(0.965388 0.262624 1.40486e-19)
(0.965329 0.26264 2.60897e-19)
(0.96525 0.262675 -1.2105e-19)
(0.965147 0.262714 1.7106e-19)
(0.965026 0.262726 -7.35196e-20)
(0.964886 0.262702 2.62933e-19)
(0.964725 0.262623 -7.4848e-19)
(0.964544 0.262469 2.17594e-19)
(0.96434 0.262217 5.07253e-19)
(0.964117 0.261844 1.30843e-18)
(0.963873 0.261335 1.8619e-18)
(0.963608 0.26068 4.91198e-19)
(0.96331 0.259893 3.27041e-18)
(0.962963 0.258987 3.77548e-18)
(0.962545 0.257973 4.58264e-18)
(0.962015 0.256841 -3.45041e-18)
(0.961399 0.255483 -4.89468e-18)
(0.960653 0.25386 3.22542e-18)
(0.959887 0.251767 4.34102e-18)
(0.959205 0.24913 1.0872e-17)
(0.95873 0.245851 6.94072e-18)
(0.958391 0.242256 1.11087e-17)
(0.958401 0.237826 1.97257e-17)
(0.957005 0.232845 -1.29558e-18)
(0.959186 0.225208 -1.02542e-17)
(0.94111 0.214307 -7.47545e-18)
(0.965735 0.263492 5.16452e-21)
(0.965611 0.263524 -1.74734e-21)
(0.965522 0.263551 2.93692e-21)
(0.965471 0.263574 -4.20269e-21)
(0.965461 0.263585 9.4802e-21)
(0.965487 0.263587 -4.76216e-21)
(0.965541 0.26358 2.55356e-21)
(0.965613 0.263564 -3.86161e-20)
(0.965692 0.263545 3.27061e-20)
(0.965767 0.263525 -6.58268e-20)
(0.965829 0.263509 7.33483e-20)
(0.965874 0.263498 -8.9813e-21)
(0.965898 0.263496 -1.99727e-20)
(0.965901 0.263504 -9.21903e-21)
(0.965884 0.263525 -2.01894e-21)
(0.965852 0.263556 -9.6109e-20)
(0.965808 0.263597 4.33415e-21)
(0.965757 0.263645 1.07758e-19)
(0.965702 0.263698 -3.56384e-20)
(0.965647 0.263751 -3.83175e-20)
(0.965594 0.263804 6.53898e-20)
(0.965546 0.263851 -3.33926e-20)
(0.965502 0.263894 1.42363e-19)
(0.965463 0.263927 8.0766e-20)
(0.965429 0.263952 6.41523e-20)
(0.965398 0.263967 -1.9837e-19)
(0.965371 0.263976 -2.86948e-20)
(0.965345 0.263974 -1.65624e-19)
(0.965321 0.263969 3.11475e-20)
(0.965296 0.263962 -6.0806e-20)
(0.965272 0.26396 -2.42113e-20)
(0.965246 0.263953 2.06598e-19)
(0.965223 0.263922 -5.30238e-19)
(0.965195 0.263865 -2.31116e-20)
(0.965151 0.263812 -2.99226e-19)
(0.965083 0.263779 -1.52915e-19)
(0.964993 0.263757 5.31746e-20)
(0.964875 0.263729 -5.44121e-19)
(0.964736 0.263661 8.65998e-19)
(0.964579 0.263545 1.38626e-19)
(0.964405 0.263367 1.01346e-18)
(0.964212 0.263109 -7.90082e-19)
(0.964001 0.262753 -5.53009e-19)
(0.963772 0.262278 -2.33501e-19)
(0.963524 0.261679 1.37361e-18)
(0.963258 0.260947 2.11784e-18)
(0.962959 0.260105 5.27766e-19)
(0.962613 0.25916 9.64292e-19)
(0.962196 0.258116 -1.6392e-18)
(0.961665 0.256951 8.82001e-18)
(0.961052 0.255531 2.27565e-18)
(0.960286 0.253798 -2.39423e-18)
(0.95948 0.251524 5.33656e-19)
(0.958709 0.248581 8.31187e-18)
(0.958131 0.244862 -2.91164e-19)
(0.957619 0.240672 -8.80338e-18)
(0.957582 0.23562 -1.98362e-17)
(0.955839 0.229831 1.8109e-17)
(0.958254 0.221891 -1.03646e-17)
(0.943242 0.210688 8.64176e-18)
(0.966535 0.263791 -1.98623e-21)
(0.966384 0.26386 8.09358e-21)
(0.96622 0.263927 -1.34613e-20)
(0.966056 0.264005 1.0151e-20)
(0.965912 0.264078 6.63838e-21)
(0.965801 0.264146 -7.12743e-21)
(0.965729 0.264206 5.94964e-22)
(0.965699 0.264255 -5.44345e-21)
(0.965703 0.264294 -1.84586e-20)
(0.965735 0.264324 3.58335e-20)
(0.965783 0.264348 -5.60481e-20)
(0.965837 0.264369 4.96318e-20)
(0.965887 0.26439 4.40565e-20)
(0.965926 0.264415 -6.90827e-20)
(0.965949 0.264447 -2.27202e-20)
(0.965953 0.264488 8.65348e-20)
(0.965939 0.264539 -1.06038e-19)
(0.965907 0.264599 1.48432e-19)
(0.96586 0.264667 -2.86271e-20)
(0.965803 0.264739 1.6535e-20)
(0.965738 0.264814 -2.69765e-20)
(0.96567 0.264886 -3.44877e-20)
(0.965599 0.264956 -6.57618e-20)
(0.96553 0.265017 1.15866e-19)
(0.965462 0.26507 -8.09509e-20)
(0.965397 0.26511 -8.18169e-20)
(0.965335 0.265141 1.72026e-19)
(0.965276 0.265158 -1.70096e-19)
(0.96522 0.265167 2.79925e-19)
(0.965164 0.265167 -1.51917e-19)
(0.96511 0.265168 1.23764e-19)
(0.965055 0.265155 -2.13682e-19)
(0.965005 0.265107 2.43306e-19)
(0.964954 0.265025 -1.62119e-20)
(0.96489 0.26494 -1.09947e-20)
(0.964804 0.264869 -3.70673e-21)
(0.964696 0.264801 -1.57371e-19)
(0.964558 0.264716 4.85526e-19)
(0.964395 0.26458 -3.81528e-19)
(0.964218 0.264393 -2.28602e-18)
(0.964026 0.264139 -1.00401e-18)
(0.963818 0.263805 7.49823e-19)
(0.963594 0.263374 -8.62185e-19)
(0.963356 0.26283 -1.03125e-18)
(0.963103 0.262169 -9.91901e-20)
(0.96284 0.261384 2.87251e-18)
(0.962554 0.260499 -4.45406e-18)
(0.962236 0.259522 -4.75968e-18)
(0.961868 0.258453 -3.37455e-18)
(0.961408 0.257273 -5.89329e-18)
(0.96089 0.255846 3.8754e-18)
(0.960215 0.254121 -1.60271e-18)
(0.959481 0.251864 -1.3301e-17)
(0.958712 0.248902 2.43518e-18)
(0.958083 0.24509 4.03346e-18)
(0.957407 0.240656 -7.40751e-18)
(0.957271 0.235307 5.66587e-18)
(0.955204 0.229012 4.62146e-18)
(0.957307 0.220808 1.67626e-17)
(0.946306 0.210336 -2.89332e-19)
(0.967277 0.264339 2.34946e-21)
(0.967302 0.264403 -1.06772e-20)
(0.967247 0.264468 5.25966e-21)
(0.967126 0.264558 9.87071e-21)
(0.966961 0.264657 -2.13598e-20)
(0.966777 0.264762 1.80789e-20)
(0.966595 0.26487 -1.21416e-20)
(0.966432 0.264974 1.04033e-20)
(0.966299 0.265073 1.66874e-20)
(0.9662 0.265163 -4.06051e-20)
(0.966135 0.265245 5.91475e-20)
(0.966097 0.265317 2.51627e-20)
(0.96608 0.265383 -1.01978e-19)
(0.966073 0.265443 -1.91029e-20)
(0.966069 0.265502 5.54282e-20)
(0.96606 0.265562 3.59699e-20)
(0.966041 0.265626 -4.42319e-20)
(0.966009 0.265693 3.93039e-20)
(0.965962 0.265766 6.14982e-20)
(0.965902 0.265842 -3.03456e-20)
(0.96583 0.265921 -1.76109e-20)
(0.965749 0.265998 6.40928e-20)
(0.965661 0.266075 1.34625e-19)
(0.96557 0.266144 -9.80417e-20)
(0.965476 0.266207 -1.11781e-19)
(0.965383 0.266256 1.26961e-19)
(0.96529 0.266296 -9.9621e-20)
(0.965201 0.26632 -4.32179e-20)
(0.965113 0.266334 3.59727e-19)
(0.965028 0.266337 -1.61779e-19)
(0.964942 0.266337 -1.32957e-19)
(0.964856 0.266318 1.76642e-19)
(0.964776 0.266256 1.28771e-19)
(0.964696 0.266153 -1.17858e-19)
(0.964604 0.266042 -8.56041e-20)
(0.964494 0.265939 2.97828e-19)
(0.964362 0.265833 7.69553e-20)
(0.964198 0.2657 1.05391e-19)
(0.964009 0.265511 -6.14415e-19)
(0.963809 0.265267 -6.25582e-19)
(0.963595 0.264955 1.24403e-18)
(0.963366 0.264563 1.06254e-18)
(0.963124 0.264075 1.90083e-18)
(0.962871 0.263474 -1.7939e-18)
(0.962609 0.262756 -2.11612e-18)
(0.962347 0.261913 -1.52216e-18)
(0.962079 0.260969 3.955e-18)
(0.961807 0.259934 4.07361e-18)
(0.961519 0.258818 -4.78018e-18)
(0.961184 0.257613 -7.28236e-18)
(0.960838 0.256213 -1.42479e-18)
(0.960355 0.254595 1.54211e-18)
(0.959811 0.252551 2.05518e-19)
(0.959179 0.249885 -4.69087e-18)
(0.958623 0.246414 4.08199e-18)
(0.957883 0.242265 2.52881e-18)
(0.957673 0.237192 3.77927e-18)
(0.955337 0.230981 -1.43857e-17)
(0.95678 0.223117 -1.06363e-18)
(0.949318 0.213903 6.78538e-20)
(0.967262 0.26582 -3.91932e-21)
(0.967573 0.265819 -3.12082e-21)
(0.967775 0.265829 4.3251e-21)
(0.967869 0.265865 1.52621e-20)
(0.967863 0.26592 -3.31067e-20)
(0.967775 0.265992 3.81486e-20)
(0.967626 0.266079 -1.80286e-21)
(0.96744 0.266174 -2.46207e-21)
(0.96724 0.266276 -1.39461e-20)
(0.967042 0.266377 3.39915e-20)
(0.96686 0.266476 -5.30466e-20)
(0.966701 0.266568 2.02514e-20)
(0.966567 0.266653 -6.65056e-22)
(0.966456 0.266731 3.23555e-20)
(0.966363 0.266803 1.55069e-20)
(0.966281 0.266869 -8.37614e-20)
(0.966205 0.266934 7.3639e-20)
(0.966128 0.266996 2.92933e-20)
(0.966047 0.26706 -8.57862e-20)
(0.965959 0.267123 4.2631e-20)
(0.965863 0.267188 2.02329e-20)
(0.965759 0.267251 -1.33731e-20)
(0.965649 0.267314 1.75742e-20)
(0.965535 0.267371 -9.97475e-21)
(0.965418 0.267422 -1.20093e-19)
(0.9653 0.267463 8.10477e-20)
(0.965182 0.267495 -1.26996e-19)
(0.965067 0.267511 2.39152e-19)
(0.964954 0.267518 -4.53633e-20)
(0.964843 0.267514 -2.76695e-20)
(0.964731 0.267505 -7.23299e-21)
(0.964619 0.267475 2.90863e-19)
(0.964511 0.267397 -1.17353e-19)
(0.964404 0.267275 -7.28496e-20)
(0.964286 0.26714 2.1249e-19)
(0.964149 0.267011 1.96271e-19)
(0.963991 0.266871 -3.4452e-19)
(0.963799 0.266697 6.22075e-20)
(0.963582 0.266463 7.32779e-19)
(0.963352 0.266171 -5.43032e-20)
(0.963107 0.26581 4.99472e-19)
(0.962845 0.265365 -7.79839e-19)
(0.962565 0.264818 1.19757e-18)
(0.962272 0.264151 2.83675e-18)
(0.961968 0.263354 9.07362e-19)
(0.961668 0.262416 -1.27222e-18)
(0.961373 0.261357 -4.20813e-18)
(0.961094 0.260187 8.44892e-19)
(0.960831 0.258926 1.47222e-18)
(0.960566 0.257587 3.19175e-18)
(0.960341 0.256099 -3.3568e-19)
(0.960018 0.254483 -6.4322e-18)
(0.959656 0.25258 5.62448e-18)
(0.959183 0.250192 -3.81249e-18)
(0.958753 0.24711 7.54473e-18)
(0.958031 0.243344 1.8812e-18)
(0.957812 0.238669 8.358e-18)
(0.955376 0.232624 1.1122e-17)
(0.956131 0.225072 1.75678e-18)
(0.950804 0.215761 2.46358e-18)
(0.966301 0.268355 -1.84097e-21)
(0.966844 0.268277 1.59625e-21)
(0.967306 0.268209 7.93439e-21)
(0.967673 0.268156 1.24931e-20)
(0.96793 0.268119 -3.73998e-20)
(0.968075 0.268099 2.16142e-20)
(0.968114 0.268099 -3.86408e-20)
(0.968063 0.268115 6.0932e-20)
(0.967941 0.268148 -2.88025e-20)
(0.967769 0.268191 5.10222e-21)
(0.96757 0.268243 5.61682e-20)
(0.96736 0.268298 -1.29202e-19)
(0.967152 0.268353 8.9107e-20)
(0.966955 0.268406 1.27858e-20)
(0.966772 0.268454 2.07026e-20)
(0.966604 0.268497 -8.80756e-20)
(0.966449 0.268536 4.39978e-20)
(0.966303 0.26857 -5.53597e-20)
(0.966161 0.268602 1.1092e-19)
(0.966022 0.268631 -1.42512e-20)
(0.965882 0.26866 -1.45185e-19)
(0.965739 0.268686 5.90875e-20)
(0.965595 0.268712 -3.21037e-21)
(0.965449 0.268735 -2.25606e-19)
(0.965302 0.268754 1.69076e-19)
(0.965156 0.268765 1.30556e-19)
(0.965012 0.268769 9.15681e-20)
(0.964872 0.26876 -1.2034e-19)
(0.964735 0.268744 -1.38238e-19)
(0.964601 0.26872 6.59091e-20)
(0.964467 0.268693 9.95369e-20)
(0.964334 0.268646 -1.2845e-19)
(0.964203 0.268549 -2.01033e-19)
(0.964073 0.268405 4.20164e-19)
(0.963931 0.268249 5.30796e-20)
(0.963769 0.268094 -7.22183e-19)
(0.963584 0.267924 6.34646e-20)
(0.963365 0.267714 5.37222e-19)
(0.963117 0.267442 4.51697e-20)
(0.962852 0.267108 7.60501e-19)
(0.962564 0.2667 -1.15652e-18)
(0.96225 0.266202 -8.93774e-20)
(0.961909 0.265591 -8.165e-19)
(0.961543 0.264843 3.12584e-19)
(0.961155 0.263943 1.5242e-18)
(0.960762 0.262868 4.9283e-18)
(0.960369 0.261631 8.26204e-19)
(0.959997 0.260238 -3.67831e-18)
(0.959657 0.258715 3.02127e-18)
(0.959342 0.25709 1.12624e-17)
(0.959107 0.255325 -9.45239e-18)
(0.958814 0.253488 1.16732e-17)
(0.958518 0.251472 -7.22218e-18)
(0.958127 0.24909 -3.94864e-18)
(0.957795 0.246126 -1.56037e-17)
(0.957135 0.242485 -8.43398e-19)
(0.956993 0.237966 -4.98005e-18)
(0.954704 0.231855 -5.40012e-18)
(0.954993 0.224266 3.84048e-18)
(0.950693 0.213703 3.58858e-19)
(0.964701 0.271532 2.44696e-21)
(0.965322 0.271397 8.15563e-22)
(0.965927 0.271268 -8.82316e-21)
(0.966493 0.271137 8.41364e-21)
(0.966988 0.271011 -3.72679e-21)
(0.967389 0.270892 6.61247e-21)
(0.967682 0.270788 2.20814e-21)
(0.967864 0.270697 -3.31965e-20)
(0.96794 0.270625 1.46286e-20)
(0.967925 0.270568 -9.8068e-21)
(0.967834 0.270527 6.14177e-21)
(0.967689 0.270498 2.37486e-20)
(0.967507 0.270478 -4.40272e-21)
(0.967304 0.270463 1.48328e-20)
(0.967092 0.270451 -6.35175e-20)
(0.966881 0.270439 2.48308e-20)
(0.966674 0.270426 1.14012e-20)
(0.966473 0.270409 -3.06684e-20)
(0.966277 0.270389 6.2194e-20)
(0.966087 0.270366 2.11103e-20)
(0.965899 0.270341 -2.03054e-21)
(0.965714 0.270313 -2.27489e-20)
(0.965529 0.270285 9.69051e-20)
(0.965346 0.270254 -2.72849e-19)
(0.965164 0.270222 1.42758e-19)
(0.964986 0.270184 6.20662e-20)
(0.964812 0.270142 -1.08945e-19)
(0.964644 0.27009 1.97709e-19)
(0.964481 0.270035 -9.63769e-20)
(0.964322 0.269976 -5.34978e-20)
(0.964166 0.269919 -1.09822e-19)
(0.964011 0.269844 -4.5568e-20)
(0.963859 0.269722 1.2813e-19)
(0.963707 0.269555 -4.11561e-19)
(0.963543 0.269375 8.07669e-19)
(0.963357 0.269195 -5.04506e-20)
(0.963147 0.268997 4.83118e-19)
(0.962901 0.268756 -1.25926e-18)
(0.962621 0.268449 -4.25819e-19)
(0.962316 0.268078 -1.62666e-20)
(0.961979 0.267627 -3.33448e-19)
(0.961604 0.267077 -6.67552e-20)
(0.961187 0.266402 -1.33918e-18)
(0.96073 0.26557 4.18249e-19)
(0.960233 0.264555 7.21039e-19)
(0.959714 0.263327 -4.56167e-18)
(0.959177 0.261885 6.16398e-18)
(0.95865 0.260226 1.01519e-18)
(0.958151 0.258376 2.52064e-19)
(0.957685 0.256371 -7.56388e-18)
(0.957319 0.254197 2.89348e-18)
(0.956925 0.251955 -6.16157e-18)
(0.95657 0.249587 1.21009e-17)
(0.95616 0.246931 2.57478e-18)
(0.955871 0.243775 -1.01937e-17)
(0.955294 0.239952 3.82597e-18)
(0.955306 0.235319 -1.06657e-17)
(0.953397 0.228975 -2.23298e-18)
(0.953532 0.221181 -1.47399e-17)
(0.950021 0.209493 -3.63315e-18)
(0.962934 0.274867 -5.10962e-22)
(0.963475 0.274716 -1.98569e-21)
(0.96407 0.274562 -1.68258e-21)
(0.964694 0.274392 1.65986e-20)
(0.965311 0.27421 -9.30722e-21)
(0.965887 0.274022 -1.09663e-20)
(0.966392 0.273834 -4.01692e-21)
(0.966806 0.27365 -1.67578e-20)
(0.967117 0.273476 1.08419e-20)
(0.967321 0.273315 1.68594e-21)
(0.967425 0.273169 6.24942e-22)
(0.967439 0.273039 4.59936e-20)
(0.96738 0.272922 -3.29905e-20)
(0.967264 0.272818 -4.16568e-21)
(0.967107 0.272723 3.87992e-20)
(0.966923 0.272634 -2.15775e-20)
(0.966722 0.27255 -8.30148e-21)
(0.966513 0.272465 1.41174e-20)
(0.966299 0.27238 4.60963e-20)
(0.966085 0.272293 2.65288e-20)
(0.965869 0.272203 1.08483e-20)
(0.965654 0.272111 -6.7757e-20)
(0.96544 0.272018 3.5295e-20)
(0.965226 0.271922 7.1955e-20)
(0.965014 0.271826 -1.49498e-19)
(0.964806 0.271726 5.03304e-20)
(0.964602 0.271624 -2.02429e-19)
(0.964405 0.271515 1.6856e-19)
(0.964214 0.271407 1.54933e-19)
(0.964029 0.271299 -2.44263e-19)
(0.963846 0.271198 -1.18637e-19)
(0.963667 0.271087 1.65169e-19)
(0.963492 0.270931 5.67872e-20)
(0.963317 0.270734 -1.72355e-19)
(0.963129 0.270526 -2.24467e-19)
(0.962919 0.270319 -2.86334e-19)
(0.962685 0.270093 1.78475e-19)
(0.962411 0.269822 4.61451e-19)
(0.9621 0.269485 1.59666e-19)
(0.961755 0.26908 -1.78099e-19)
(0.96137 0.268592 1.86905e-18)
(0.960937 0.267997 -1.56706e-19)
(0.960451 0.267265 2.18064e-18)
(0.959909 0.266359 -4.17982e-18)
(0.959312 0.265246 6.06096e-19)
(0.958671 0.263882 1.44669e-19)
(0.957993 0.262257 -4.79953e-19)
(0.957306 0.260357 -4.35645e-18)
(0.956628 0.258199 -7.70443e-18)
(0.955975 0.255822 7.39729e-18)
(0.955424 0.253223 1.03345e-17)
(0.954861 0.250526 5.6825e-18)
(0.954369 0.247711 -1.16452e-17)
(0.953871 0.244638 6.235e-18)
(0.953579 0.241119 1.52965e-17)
(0.953093 0.236945 5.99599e-18)
(0.953301 0.232072 1.04047e-17)
(0.95191 0.225519 4.90283e-18)
(0.952165 0.217644 1.3359e-17)
(0.949878 0.205799 -8.99344e-18)
(0.961358 0.278019 6.22452e-22)
(0.961718 0.277881 -1.86373e-21)
(0.962178 0.277734 6.57368e-21)
(0.962724 0.277563 1.61481e-21)
(0.963326 0.277369 -8.99707e-21)
(0.96395 0.277154 -1.01578e-20)
(0.964561 0.276926 2.42401e-20)
(0.965129 0.276687 -2.6381e-20)
(0.965626 0.276445 -6.30884e-21)
(0.966036 0.276204 1.64107e-20)
(0.966348 0.275971 1.51069e-20)
(0.966561 0.275748 4.60068e-20)
(0.96668 0.275537 -2.64335e-20)
(0.966716 0.275339 -4.53966e-20)
(0.966683 0.275155 1.00338e-20)
(0.966595 0.274981 -3.80593e-20)
(0.966464 0.274816 2.87078e-20)
(0.966302 0.274656 -4.96582e-20)
(0.966119 0.2745 7.65137e-21)
(0.965921 0.274343 -1.72471e-20)
(0.965712 0.274187 -1.16758e-20)
(0.965496 0.274027 -5.06043e-20)
(0.965274 0.273868 2.9579e-21)
(0.965049 0.273705 1.1161e-19)
(0.964823 0.273542 -3.86211e-20)
(0.964596 0.273375 1.20836e-20)
(0.964371 0.273206 3.69368e-20)
(0.964151 0.273032 -5.42284e-20)
(0.963935 0.272861 -1.1236e-20)
(0.963724 0.272695 8.16592e-20)
(0.963515 0.272541 9.38679e-20)
(0.963309 0.272381 -7.35289e-20)
(0.963108 0.272184 -2.38282e-19)
(0.962907 0.271951 -3.51781e-19)
(0.962695 0.271709 5.72759e-19)
(0.96246 0.271471 1.59023e-19)
(0.962202 0.271215 9.90942e-20)
(0.961902 0.270914 5.78883e-19)
(0.961561 0.270547 -5.62145e-19)
(0.961182 0.270111 3.53356e-19)
(0.960759 0.26959 -9.35478e-21)
(0.960283 0.26896 5.67091e-20)
(0.959747 0.268186 -7.97153e-19)
(0.959149 0.267228 1.86836e-18)
(0.958483 0.266048 -2.59857e-18)
(0.957761 0.264594 1.69114e-18)
(0.956984 0.262846 -5.21909e-18)
(0.956177 0.260778 1.7291e-18)
(0.955357 0.2584 4.02638e-18)
(0.954545 0.255745 -7.31241e-18)
(0.953821 0.252813 -2.25812e-18)
(0.953085 0.249735 -7.83254e-19)
(0.952442 0.246519 -1.89078e-18)
(0.951837 0.243044 -6.32814e-18)
(0.951517 0.239148 4.67505e-19)
(0.951121 0.234613 5.21632e-18)
(0.951522 0.22951 -5.67862e-18)
(0.95068 0.222887 -1.536e-18)
(0.951224 0.215185 -2.1199e-18)
(0.950801 0.204148 6.39077e-18)
(0.960141 0.28087 1.09049e-21)
(0.960282 0.280761 -9.33904e-22)
(0.960542 0.280641 8.19589e-22)
(0.960919 0.280493 5.2481e-21)
(0.961397 0.280315 7.51719e-21)
(0.961951 0.280107 -2.9793e-20)
(0.96255 0.279874 2.15415e-20)
(0.963161 0.279617 4.35051e-21)
(0.963754 0.279344 -1.45317e-21)
(0.964299 0.279059 -9.68416e-21)
(0.964775 0.278769 2.95204e-20)
(0.965167 0.278478 -9.90042e-21)
(0.965468 0.278193 -1.35998e-20)
(0.965678 0.277916 -4.05097e-20)
(0.965804 0.27765 8.22078e-20)
(0.965854 0.277394 -1.72673e-20)
(0.96584 0.27715 -1.47827e-20)
(0.965773 0.276914 -4.42012e-20)
(0.965665 0.276685 4.9678e-20)
(0.965525 0.276458 2.85301e-20)
(0.965359 0.276235 -1.2226e-20)
(0.965175 0.27601 2.44416e-20)
(0.964975 0.275786 -1.03261e-19)
(0.964763 0.275558 5.93174e-21)
(0.964543 0.275331 6.08507e-20)
(0.964316 0.275098 -1.24135e-20)
(0.964086 0.274864 -2.02036e-19)
(0.963855 0.274624 1.56318e-20)
(0.963623 0.274388 1.91952e-19)
(0.963393 0.274159 -5.15872e-20)
(0.963162 0.273946 -1.07992e-19)
(0.962932 0.273732 6.16554e-20)
(0.962705 0.273486 2.0133e-19)
(0.962478 0.273208 5.01992e-19)
(0.96224 0.272928 -8.21126e-20)
(0.961981 0.272654 1.2008e-19)
(0.9617 0.272362 -9.33487e-19)
(0.961375 0.272029 -2.98403e-19)
(0.961008 0.271632 1.92555e-19)
(0.960604 0.271168 -8.0679e-19)
(0.960156 0.270619 -1.98235e-19)
(0.959656 0.269961 4.09406e-19)
(0.9591 0.269161 3.0247e-19)
(0.95848 0.268176 9.85186e-19)
(0.957791 0.266968 3.61222e-18)
(0.957039 0.265478 -3.09374e-18)
(0.956222 0.26368 5.25121e-18)
(0.955359 0.26154 4.40673e-18)
(0.954464 0.259058 1.57382e-20)
(0.953555 0.256258 6.50099e-18)
(0.952712 0.253136 -9.67326e-18)
(0.951848 0.249821 -1.20776e-17)
(0.951081 0.246333 9.58701e-18)
(0.950381 0.242565 8.23747e-18)
(0.950032 0.23838 -3.2427e-18)
(0.949719 0.233562 -1.91759e-17)
(0.950282 0.228302 4.5297e-18)
(0.949937 0.221746 -3.89685e-18)
(0.950835 0.214426 -5.7607e-18)
(0.952752 0.204726 4.00102e-18)
(0.959308 0.283375 -1.11334e-21)
(0.959238 0.283295 1.22964e-21)
(0.959286 0.283207 8.1664e-21)
(0.959457 0.283093 -1.07181e-20)
(0.95975 0.282947 1.91724e-20)
(0.960152 0.282769 -2.82077e-20)
(0.960643 0.282559 8.04891e-21)
(0.961198 0.282317 -3.30857e-22)
(0.961785 0.282046 1.74804e-20)
(0.962375 0.281751 -9.2927e-21)
(0.962938 0.281438 2.66388e-21)
(0.963451 0.281112 2.77389e-21)
(0.963895 0.28078 -4.41298e-20)
(0.96426 0.280447 1.34766e-20)
(0.964542 0.280119 3.11399e-20)
(0.964742 0.279796 9.18221e-22)
(0.964865 0.279482 -5.32527e-20)
(0.964921 0.279177 2.16155e-20)
(0.964919 0.27888 1.0472e-19)
(0.964867 0.278588 -6.88826e-20)
(0.964775 0.2783 -5.36244e-20)
(0.96465 0.278014 4.68456e-20)
(0.964499 0.27773 3.0572e-20)
(0.964325 0.277443 3.62056e-20)
(0.964133 0.277156 -6.98891e-20)
(0.963927 0.276864 -1.59871e-19)
(0.963709 0.27657 1.21681e-19)
(0.963482 0.276268 1.87099e-19)
(0.963249 0.275969 5.46689e-20)
(0.963011 0.275678 -1.02086e-19)
(0.962766 0.275405 5.23814e-20)
(0.962518 0.275134 8.81313e-20)
(0.96227 0.274835 -1.58981e-19)
(0.962022 0.274509 -2.51218e-20)
(0.961761 0.274184 -3.23279e-19)
(0.96148 0.273868 -1.03471e-19)
(0.961177 0.273537 -9.68288e-20)
(0.960832 0.273168 2.73137e-19)
(0.960444 0.272739 -3.75949e-19)
(0.960022 0.272245 1.2291e-19)
(0.959563 0.27167 1.87926e-19)
(0.95906 0.270992 4.91479e-20)
(0.958507 0.270177 -1.39578e-18)
(0.957898 0.269188 -2.02395e-18)
(0.957226 0.267983 -1.97447e-18)
(0.956491 0.266505 3.9593e-18)
(0.955689 0.264724 -1.79836e-19)
(0.954833 0.262597 -1.93414e-18)
(0.953927 0.26012 1.041e-18)
(0.952988 0.257304 -7.16309e-18)
(0.952092 0.254134 3.80542e-18)
(0.951158 0.25073 1.0822e-17)
(0.950314 0.247116 -1.18116e-18)
(0.949553 0.243187 -9.69225e-18)
(0.949183 0.238827 4.76617e-18)
(0.948947 0.233826 4.47627e-18)
(0.949631 0.228473 4.83144e-18)
(0.9497 0.222053 1.01323e-17)
(0.950942 0.215184 8.40895e-18)
(0.95534 0.206833 -8.85584e-18)
(0.958804 0.285572 -8.98321e-22)
(0.95856 0.28552 1.30064e-21)
(0.958416 0.285461 2.55878e-22)
(0.958384 0.28538 4.81473e-21)
(0.958475 0.28527 -7.36598e-21)
(0.958688 0.285128 -1.48433e-20)
(0.959014 0.284953 5.5061e-21)
(0.959438 0.284742 -6.89784e-21)
(0.959938 0.284497 1.54402e-20)
(0.960485 0.284219 -3.06884e-21)
(0.961053 0.283913 -1.00763e-20)
(0.961611 0.283582 8.5194e-21)
(0.962136 0.283234 1.37149e-20)
(0.962608 0.282873 3.78618e-20)
(0.963014 0.282506 -6.94916e-20)
(0.963347 0.282137 3.58123e-20)
(0.963603 0.281771 5.56873e-21)
(0.963786 0.281409 -3.61312e-20)
(0.963901 0.281053 -2.29158e-20)
(0.963955 0.280702 7.63206e-20)
(0.963956 0.280356 -8.14797e-20)
(0.963912 0.280013 2.45417e-20)
(0.963829 0.279673 -7.00755e-20)
(0.963712 0.279332 1.17192e-19)
(0.963568 0.278991 -2.41231e-20)
(0.9634 0.278645 -7.21403e-20)
(0.963212 0.278296 5.7804e-20)
(0.963006 0.277939 1.16012e-19)
(0.962786 0.277583 -1.15832e-19)
(0.962552 0.277234 7.48606e-20)
(0.962306 0.276903 -2.6132e-19)
(0.96205 0.276577 -3.35085e-20)
(0.96179 0.276224 1.23258e-19)
(0.961527 0.275846 -7.40834e-20)
(0.961249 0.275474 -1.61332e-19)
(0.96095 0.275112 -4.20419e-19)
(0.96063 0.274738 5.62112e-19)
(0.96027 0.27433 -2.23338e-19)
(0.959867 0.273865 1.85158e-19)
(0.959435 0.27334 3.76294e-19)
(0.958975 0.27274 2.90756e-19)
(0.958482 0.272045 -2.05266e-19)
(0.957951 0.271224 7.61097e-19)
(0.957375 0.270243 1.48745e-18)
(0.956744 0.269063 -1.47041e-19)
(0.95606 0.26763 -2.26827e-18)
(0.955309 0.26591 -3.30919e-18)
(0.954502 0.263859 -2.96444e-19)
(0.953635 0.261462 2.53186e-18)
(0.952718 0.258723 -1.52091e-19)
(0.951823 0.255613 5.28733e-18)
(0.950874 0.252235 -9.38891e-18)
(0.950001 0.248607 -5.32156e-18)
(0.949214 0.244624 -1.35815e-18)
(0.948843 0.240179 -4.15456e-18)
(0.948684 0.235069 2.65708e-18)
(0.949457 0.229653 -3.60469e-18)
(0.949856 0.223364 -1.19014e-17)
(0.951399 0.21689 -1.20224e-17)
(0.958114 0.209588 4.20346e-18)
(0.958546 0.287493 -1.30285e-21)
(0.958173 0.287459 1.06449e-21)
(0.957875 0.287425 8.23087e-22)
(0.957669 0.287373 -5.82633e-21)
(0.957571 0.287298 6.04458e-21)
(0.95759 0.287194 -2.94063e-21)
(0.957729 0.28706 9.5294e-21)
(0.957983 0.286891 -1.41702e-20)
(0.958339 0.286684 8.86061e-22)
(0.958779 0.286441 1.14398e-21)
(0.959279 0.286162 -1.03398e-20)