/*--------------------------------*- C++ -*----------------------------------*\
  =========                 |
  \\      /  F ield         | OpenFOAM: The Open Source CFD Toolbox
   \\    /   O peration     | Website:  https://openfoam.org
    \\  /    A nd           | Version:  6.0
     \\/     M anipulation  |
\*---------------------------------------------------------------------------*/
FoamFile
{
    version     2.0;
    format      ascii;
    class       volScalarField;
    location    "0.68";
    object      p;
}
// * * * * * * * * * * * * * * * * * * * * * * * * * * * * * * * * * * * * * //

dimensions      [0 2 -2 0 0 0 0];

internalField   nonuniform List<scalar> 
13500
(
0.1013
0.10148
0.10059
0.10083
0.099033
0.099938
0.097707
0.10036
0.099463
0.10644
0.12325
0.17428
0.1013
0.10148
0.10059
0.10084
0.099032
0.09994
0.097704
0.10036
0.099458
0.10649
0.1226
0.16919
0.1013
0.10148
0.10058
0.10084
0.099028
0.099944
0.097698
0.10036
0.099445
0.10652
0.12174
0.1647
0.1013
0.10148
0.10058
0.10084
0.099024
0.099949
0.09769
0.10037
0.099426
0.10654
0.1208
0.1612
0.1013
0.10148
0.10058
0.10085
0.09902
0.099953
0.097681
0.10037
0.099402
0.10654
0.11981
0.15825
0.1013
0.10149
0.10058
0.10085
0.099017
0.099957
0.097672
0.10037
0.099374
0.10652
0.11879
0.15562
0.10131
0.10149
0.10058
0.10085
0.099013
0.099961
0.097662
0.10037
0.099342
0.1065
0.11778
0.15325
0.10131
0.10149
0.10058
0.10086
0.099009
0.099964
0.097652
0.10036
0.099306
0.10647
0.11678
0.15107
0.10131
0.1015
0.10058
0.10086
0.099006
0.099967
0.097641
0.10036
0.099266
0.10643
0.11581
0.14907
0.10131
0.1015
0.10058
0.10087
0.099002
0.09997
0.09763
0.10035
0.099222
0.10638
0.11488
0.14721
0.10131
0.1015
0.10058
0.10087
0.098999
0.099973
0.097618
0.10035
0.099174
0.10632
0.11399
0.14548
0.10132
0.10151
0.10058
0.10088
0.098995
0.099975
0.097606
0.10034
0.099123
0.10625
0.11313
0.14385
0.10132
0.10151
0.10058
0.10088
0.098992
0.099977
0.097593
0.10033
0.099068
0.10618
0.11231
0.14231
0.10132
0.10152
0.10058
0.10088
0.098988
0.099979
0.097579
0.10032
0.099009
0.10611
0.11153
0.14086
0.10133
0.10152
0.10059
0.10089
0.098985
0.09998
0.097565
0.10031
0.098948
0.10603
0.11077
0.13948
0.10133
0.10153
0.10059
0.10089
0.098981
0.099981
0.09755
0.10029
0.098883
0.10594
0.11004
0.13816
0.10134
0.10153
0.10059
0.1009
0.098978
0.099982
0.097535
0.10028
0.098815
0.10585
0.10934
0.1369
0.10134
0.10154
0.10059
0.10091
0.098975
0.099983
0.097519
0.10026
0.098744
0.10576
0.10866
0.1357
0.10135
0.10155
0.10059
0.10091
0.098972
0.099983
0.097503
0.10025
0.09867
0.10567
0.10799
0.13453
0.10135
0.10155
0.1006
0.10092
0.098969
0.099983
0.097486
0.10023
0.098593
0.10557
0.10734
0.13341
0.10136
0.10156
0.1006
0.10092
0.098966
0.099982
0.097468
0.10021
0.098514
0.10546
0.1067
0.13233
0.10136
0.10157
0.1006
0.10093
0.098963
0.099982
0.09745
0.10018
0.098431
0.10536
0.10608
0.13128
0.10137
0.10157
0.10061
0.10093
0.09896
0.099981
0.097432
0.10016
0.098347
0.10525
0.10547
0.13026
0.10138
0.10158
0.10061
0.10094
0.098957
0.099979
0.097413
0.10014
0.09826
0.10514
0.10487
0.12927
0.10139
0.10159
0.10062
0.10095
0.098955
0.099978
0.097393
0.10011
0.098171
0.10502
0.10428
0.1283
0.10139
0.1016
0.10062
0.10095
0.098952
0.099976
0.097373
0.10008
0.098079
0.10491
0.1037
0.12736
0.1014
0.10161
0.10063
0.10096
0.09895
0.099974
0.097353
0.10006
0.097985
0.10479
0.10313
0.12644
0.10141
0.10162
0.10063
0.10097
0.098947
0.099971
0.097332
0.10003
0.097889
0.10466
0.10257
0.12555
0.10142
0.10163
0.10064
0.10097
0.098945
0.099968
0.097311
0.099997
0.097791
0.10454
0.10202
0.12467
0.10143
0.10164
0.10064
0.10098
0.098943
0.099965
0.097289
0.099965
0.097692
0.10441
0.10148
0.12381
0.10144
0.10165
0.10065
0.10099
0.098941
0.099961
0.097266
0.099932
0.09759
0.10427
0.10094
0.12297
0.10145
0.10166
0.10066
0.10099
0.098939
0.099957
0.097243
0.099898
0.097486
0.10414
0.10042
0.12214
0.10146
0.10167
0.10066
0.101
0.098937
0.099953
0.09722
0.099862
0.097381
0.104
0.099908
0.12133
0.10147
0.10168
0.10067
0.10101
0.098936
0.099949
0.097196
0.099826
0.097275
0.10386
0.099404
0.12053
0.10148
0.10169
0.10068
0.10102
0.098934
0.099944
0.097172
0.099788
0.097166
0.10372
0.098908
0.11975
0.10149
0.1017
0.10069
0.10102
0.098933
0.099939
0.097147
0.09975
0.097056
0.10358
0.098422
0.11897
0.10151
0.10172
0.1007
0.10103
0.098932
0.099933
0.097122
0.09971
0.096945
0.10343
0.097945
0.11822
0.10152
0.10173
0.10071
0.10104
0.098931
0.099928
0.097096
0.099669
0.096833
0.10328
0.097476
0.11747
0.10153
0.10174
0.10072
0.10105
0.09893
0.099921
0.09707
0.099627
0.096719
0.10313
0.097016
0.11673
0.10154
0.10176
0.10072
0.10106
0.098929
0.099915
0.097044
0.099583
0.096604
0.10298
0.096565
0.11601
0.10156
0.10177
0.10074
0.10107
0.098928
0.099909
0.097017
0.099539
0.096488
0.10282
0.096122
0.11529
0.10157
0.10178
0.10075
0.10107
0.098928
0.099902
0.09699
0.099494
0.09637
0.10266
0.095687
0.11459
0.10159
0.1018
0.10076
0.10108
0.098927
0.099895
0.096962
0.099447
0.096252
0.10251
0.095261
0.11389
0.1016
0.10181
0.10077
0.10109
0.098927
0.099887
0.096934
0.0994
0.096133
0.10234
0.094843
0.11321
0.10162
0.10183
0.10078
0.1011
0.098927
0.099879
0.096905
0.099351
0.096013
0.10218
0.094432
0.11253
0.10164
0.10185
0.10079
0.10111
0.098928
0.099871
0.096876
0.099302
0.095892
0.10202
0.09403
0.11186
0.10165
0.10186
0.1008
0.10112
0.098928
0.099863
0.096847
0.099251
0.09577
0.10185
0.093636
0.1112
0.10167
0.10188
0.10082
0.10113
0.098929
0.099855
0.096818
0.0992
0.095648
0.10168
0.093249
0.11055
0.10169
0.1019
0.10083
0.10114
0.098929
0.099846
0.096788
0.099147
0.095525
0.10151
0.092869
0.10991
0.10171
0.10191
0.10085
0.10115
0.09893
0.099837
0.096757
0.099094
0.095401
0.10134
0.092497
0.10927
0.10173
0.10193
0.10086
0.10116
0.098932
0.099827
0.096727
0.09904
0.095277
0.10117
0.092132
0.10864
0.10175
0.10195
0.10087
0.10117
0.098933
0.099818
0.096696
0.098984
0.095152
0.10099
0.091775
0.10802
0.10177
0.10197
0.10089
0.10118
0.098935
0.099808
0.096664
0.098928
0.095027
0.10082
0.091424
0.10741
0.10179
0.10199
0.10091
0.1012
0.098936
0.099798
0.096633
0.098871
0.094901
0.10064
0.09108
0.1068
0.10181
0.10201
0.10092
0.10121
0.098939
0.099788
0.096601
0.098813
0.094775
0.10046
0.090743
0.1062
0.10183
0.10203
0.10094
0.10122
0.098941
0.099777
0.096569
0.098754
0.094649
0.10028
0.090412
0.10561
0.10185
0.10205
0.10096
0.10123
0.098943
0.099767
0.096536
0.098694
0.094522
0.1001
0.090088
0.10503
0.10187
0.10207
0.10097
0.10124
0.098946
0.099756
0.096504
0.098633
0.094396
0.099913
0.08977
0.10445
0.1019
0.1021
0.10099
0.10126
0.098949
0.099745
0.096471
0.098572
0.094269
0.099728
0.089458
0.10388
0.10192
0.10212
0.10101
0.10127
0.098953
0.099734
0.096437
0.098509
0.094141
0.099543
0.089153
0.10332
0.10194
0.10214
0.10103
0.10128
0.098956
0.099722
0.096404
0.098446
0.094014
0.099356
0.088853
0.10276
0.10197
0.10216
0.10105
0.1013
0.09896
0.09971
0.09637
0.098382
0.093887
0.099168
0.088559
0.10221
0.102
0.10219
0.10107
0.10131
0.098964
0.099699
0.096336
0.098317
0.093759
0.098979
0.08827
0.10166
0.10202
0.10221
0.10109
0.10132
0.098968
0.099687
0.096302
0.098252
0.093632
0.098789
0.087987
0.10112
0.10205
0.10224
0.10111
0.10134
0.098973
0.099674
0.096268
0.098185
0.093504
0.098598
0.08771
0.10059
0.10208
0.10226
0.10113
0.10135
0.098978
0.099662
0.096234
0.098118
0.093377
0.098406
0.087437
0.10006
0.1021
0.10229
0.10116
0.10137
0.098983
0.09965
0.096199
0.09805
0.093249
0.098213
0.08717
0.099544
0.10213
0.10232
0.10118
0.10138
0.098989
0.099637
0.096164
0.097981
0.093122
0.098019
0.086908
0.099029
0.10216
0.10235
0.1012
0.1014
0.098995
0.099624
0.096129
0.097912
0.092995
0.097825
0.08665
0.098521
0.10219
0.10237
0.10123
0.10142
0.099001
0.099611
0.096094
0.097842
0.092868
0.097629
0.086398
0.098018
0.10222
0.1024
0.10125
0.10143
0.099007
0.099598
0.096059
0.097771
0.092741
0.097433
0.086149
0.097521
0.10225
0.10243
0.10128
0.10145
0.099014
0.099585
0.096024
0.0977
0.092614
0.097236
0.085906
0.097029
0.10229
0.10246
0.10131
0.10147
0.099022
0.099572
0.095989
0.097627
0.092488
0.097038
0.085667
0.096543
0.10232
0.10249
0.10133
0.10148
0.099029
0.099559
0.095953
0.097555
0.092362
0.096839
0.085431
0.096063
0.10235
0.10252
0.10136
0.1015
0.099037
0.099545
0.095918
0.097481
0.092236
0.09664
0.085201
0.095588
0.10239
0.10256
0.10139
0.10152
0.099045
0.099532
0.095882
0.097407
0.09211
0.09644
0.084974
0.095118
0.10242
0.10259
0.10142
0.10154
0.099054
0.099518
0.095847
0.097332
0.091985
0.096239
0.084751
0.094654
0.10246
0.10262
0.10145
0.10156
0.099063
0.099504
0.095811
0.097257
0.09186
0.096038
0.084531
0.094194
0.10249
0.10266
0.10148
0.10158
0.099073
0.099491
0.095775
0.097181
0.091735
0.095837
0.084316
0.09374
0.10253
0.10269
0.10151
0.1016
0.099083
0.099477
0.09574
0.097104
0.091611
0.095634
0.084103
0.093291
0.10257
0.10273
0.10154
0.10162
0.099093
0.099463
0.095704
0.097027
0.091487
0.095432
0.083895
0.092847
0.10261
0.10276
0.10157
0.10164
0.099104
0.09945
0.095668
0.096949
0.091364
0.095228
0.083689
0.092408
0.10265
0.1028
0.1016
0.10166
0.099115
0.099436
0.095633
0.096871
0.091241
0.095025
0.083487
0.091973
0.10269
0.10284
0.10164
0.10168
0.099127
0.099422
0.095597
0.096792
0.091118
0.094821
0.083288
0.091544
0.10273
0.10287
0.10167
0.1017
0.099139
0.099408
0.095562
0.096712
0.090996
0.094616
0.083092
0.091119
0.10277
0.10291
0.10171
0.10173
0.099152
0.099394
0.095526
0.096633
0.090874
0.094411
0.082898
0.090699
0.10282
0.10295
0.10174
0.10175
0.099165
0.099381
0.095491
0.096552
0.090752
0.094206
0.082708
0.090283
0.10286
0.10299
0.10178
0.10177
0.099178
0.099367
0.095456
0.096471
0.090631
0.094
0.08252
0.089871
0.1029
0.10304
0.10182
0.1018
0.099193
0.099354
0.09542
0.09639
0.090511
0.093794
0.082335
0.089464
0.10295
0.10308
0.10186
0.10182
0.099207
0.09934
0.095385
0.096308
0.090391
0.093588
0.082152
0.089062
0.103
0.10312
0.1019
0.10185
0.099223
0.099327
0.09535
0.096226
0.090271
0.093381
0.081972
0.088663
0.10304
0.10317
0.10194
0.10188
0.099238
0.099313
0.095315
0.096143
0.090152
0.093175
0.081793
0.088269
0.10309
0.10321
0.10198
0.1019
0.099255
0.0993
0.095281
0.09606
0.090033
0.092968
0.081617
0.087878
0.10314
0.10326
0.10202
0.10193
0.099272
0.099287
0.095246
0.095976
0.089915
0.09276
0.081443
0.087492
0.10319
0.1033
0.10206
0.10196
0.099289
0.099274
0.095212
0.095892
0.089798
0.092553
0.081271
0.08711
0.10324
0.10335
0.10211
0.10199
0.099307
0.099261
0.095178
0.095807
0.08968
0.092345
0.081101
0.086731
0.1033
0.1034
0.10215
0.10202
0.099326
0.099249
0.095144
0.095723
0.089564
0.092137
0.080933
0.086356
0.10335
0.10345
0.1022
0.10205
0.099346
0.099236
0.09511
0.095637
0.089447
0.091929
0.080766
0.085985
0.10341
0.1035
0.10225
0.10208
0.099366
0.099224
0.095077
0.095552
0.089332
0.091721
0.080601
0.085617
0.10346
0.10355
0.10229
0.10211
0.099387
0.099212
0.095044
0.095466
0.089216
0.091513
0.080437
0.085253
0.10352
0.10361
0.10234
0.10214
0.099408
0.0992
0.095011
0.09538
0.089101
0.091304
0.080275
0.084892
0.10358
0.10366
0.10239
0.10217
0.09943
0.099189
0.094978
0.095293
0.088987
0.091095
0.080114
0.084534
0.10364
0.10372
0.10245
0.10221
0.099453
0.099178
0.094946
0.095206
0.088873
0.090887
0.079955
0.084179
0.1037
0.10377
0.1025
0.10224
0.099477
0.099167
0.094913
0.095119
0.08876
0.090678
0.079796
0.083828
0.10376
0.10383
0.10255
0.10228
0.099502
0.099156
0.094882
0.095031
0.088647
0.090469
0.079639
0.08348
0.10382
0.10389
0.10261
0.10232
0.099527
0.099146
0.09485
0.094944
0.088534
0.09026
0.079482
0.083134
0.10389
0.10395
0.10266
0.10235
0.099553
0.099136
0.094819
0.094856
0.088422
0.09005
0.079327
0.082792
0.10395
0.10401
0.10272
0.10239
0.09958
0.099126
0.094789
0.094767
0.088311
0.089841
0.079172
0.082452
0.10402
0.10407
0.10278
0.10243
0.099608
0.099117
0.094758
0.094679
0.0882
0.089632
0.079018
0.082115
0.10409
0.10414
0.10284
0.10247
0.099637
0.099109
0.094728
0.09459
0.088089
0.089422
0.078865
0.08178
0.10416
0.1042
0.1029
0.10251
0.099667
0.0991
0.094699
0.094501
0.087978
0.089213
0.078712
0.081448
0.10423
0.10427
0.10296
0.10256
0.099697
0.099093
0.09467
0.094412
0.087869
0.089003
0.078559
0.081118
0.1043
0.10434
0.10302
0.1026
0.099729
0.099085
0.094641
0.094323
0.087759
0.088793
0.078407
0.080791
0.10437
0.10441
0.10309
0.10265
0.099762
0.099079
0.094613
0.094234
0.08765
0.088584
0.078256
0.080465
0.10445
0.10448
0.10316
0.10269
0.099796
0.099073
0.094586
0.094144
0.087541
0.088374
0.078104
0.080142
0.10453
0.10455
0.10322
0.10274
0.099831
0.099067
0.094559
0.094055
0.087433
0.088164
0.077953
0.079821
0.10461
0.10462
0.10329
0.10279
0.099867
0.099062
0.094532
0.093965
0.087325
0.087954
0.077801
0.079501
0.10469
0.1047
0.10337
0.10284
0.099904
0.099058
0.094506
0.093875
0.087217
0.087744
0.07765
0.079184
0.10477
0.10478
0.10344
0.10289
0.099942
0.099054
0.094481
0.093785
0.08711
0.087533
0.077499
0.078868
0.10485
0.10486
0.10351
0.10294
0.099982
0.099052
0.094456
0.093696
0.087003
0.087323
0.077347
0.078553
0.10494
0.10494
0.10359
0.103
0.10002
0.09905
0.094432
0.093606
0.086896
0.087113
0.077195
0.078241
0.10503
0.10502
0.10367
0.10305
0.10007
0.099048
0.094408
0.093516
0.08679
0.086902
0.077043
0.077929
0.10512
0.10511
0.10375
0.10311
0.10011
0.099048
0.094386
0.093426
0.086684
0.086691
0.07689
0.077619
0.10521
0.10519
0.10383
0.10317
0.10015
0.099049
0.094364
0.093336
0.086578
0.086481
0.076737
0.07731
0.1053
0.10528
0.10391
0.10323
0.1002
0.09905
0.094342
0.093246
0.086472
0.08627
0.076583
0.077001
0.1054
0.10537
0.104
0.10329
0.10025
0.099052
0.094322
0.093157
0.086367
0.086058
0.076429
0.076694
0.1055
0.10547
0.10409
0.10335
0.1003
0.099056
0.094302
0.093067
0.086262
0.085847
0.076274
0.076388
0.1056
0.10556
0.10418
0.10342
0.10035
0.099061
0.094283
0.092978
0.086157
0.085636
0.076118
0.076082
0.1057
0.10566
0.10427
0.10349
0.1004
0.099066
0.094265
0.092888
0.086053
0.085424
0.075961
0.075777
0.10581
0.10576
0.10437
0.10356
0.10046
0.099073
0.094248
0.092799
0.085949
0.085212
0.075803
0.075473
0.10592
0.10586
0.10446
0.10363
0.10051
0.099081
0.094232
0.09271
0.085844
0.085
0.075644
0.075169
0.10603
0.10597
0.10456
0.1037
0.10057
0.099091
0.094217
0.092622
0.085741
0.084788
0.075484
0.074865
0.10614
0.10608
0.10467
0.10378
0.10063
0.099102
0.094203
0.092533
0.085637
0.084575
0.075323
0.074561
0.10625
0.10619
0.10477
0.10386
0.1007
0.099114
0.09419
0.092445
0.085533
0.084362
0.07516
0.074257
0.10637
0.1063
0.10488
0.10394
0.10076
0.099128
0.094179
0.092358
0.08543
0.084149
0.074996
0.073953
0.1065
0.10642
0.10499
0.10403
0.10083
0.099144
0.094168
0.092271
0.085326
0.083935
0.074831
0.073649
0.10662
0.10654
0.1051
0.10411
0.1009
0.099161
0.094159
0.092184
0.085223
0.083722
0.074664
0.073344
0.10675
0.10666
0.10522
0.1042
0.10097
0.09918
0.094151
0.092097
0.08512
0.083507
0.074495
0.073039
0.10688
0.10678
0.10534
0.10429
0.10104
0.0992
0.094144
0.092012
0.085018
0.083293
0.074325
0.072734
0.10701
0.10691
0.10546
0.10439
0.10112
0.099223
0.094139
0.091926
0.084915
0.083078
0.074153
0.072427
0.10715
0.10705
0.10559
0.10449
0.1012
0.099248
0.094135
0.091842
0.084812
0.082863
0.073979
0.07212
0.10729
0.10718
0.10572
0.10459
0.10128
0.099274
0.094133
0.091758
0.08471
0.082647
0.073803
0.071812
0.10744
0.10732
0.10585
0.10469
0.10136
0.099303
0.094132
0.091674
0.084607
0.082431
0.073625
0.071502
0.10759
0.10747
0.10599
0.1048
0.10145
0.099335
0.094133
0.091592
0.084505
0.082214
0.073444
0.071191
0.10774
0.10762
0.10613
0.10491
0.10154
0.099368
0.094136
0.09151
0.084403
0.081997
0.073262
0.070879
0.1079
0.10777
0.10628
0.10503
0.10164
0.099405
0.094141
0.091429
0.084301
0.081779
0.073077
0.070565
0.10806
0.10793
0.10643
0.10515
0.10174
0.099444
0.094147
0.091349
0.084199
0.081561
0.072889
0.070249
0.10823
0.10809
0.10658
0.10527
0.10184
0.099485
0.094156
0.09127
0.084097
0.081342
0.0727
0.069931
0.1084
0.10825
0.10674
0.1054
0.10194
0.09953
0.094166
0.091192
0.083995
0.081122
0.072507
0.069611
0.10857
0.10842
0.1069
0.10553
0.10205
0.099578
0.094179
0.091115
0.083893
0.080902
0.072312
0.069289
0.10875
0.1086
0.10707
0.10567
0.10216
0.099628
0.094194
0.091039
0.083792
0.080681
0.072114
0.068965
0.10894
0.10878
0.10724
0.10581
0.10228
0.099683
0.094212
0.090965
0.08369
0.08046
0.071913
0.068638
0.10913
0.10897
0.10742
0.10595
0.1024
0.09974
0.094232
0.090892
0.083589
0.080238
0.071709
0.068308
0.10933
0.10916
0.10761
0.1061
0.10253
0.099801
0.094255
0.09082
0.083487
0.080015
0.071501
0.067975
0.10953
0.10936
0.1078
0.10626
0.10266
0.099866
0.09428
0.090749
0.083386
0.079791
0.071291
0.06764
0.10974
0.10956
0.10799
0.10642
0.10279
0.099935
0.094308
0.090681
0.083285
0.079566
0.071077
0.0673
0.10995
0.10977
0.1082
0.10659
0.10293
0.10001
0.094339
0.090614
0.083184
0.07934
0.070859
0.066958
0.11017
0.10999
0.1084
0.10677
0.10308
0.10009
0.094374
0.090548
0.083083
0.079114
0.070638
0.066611
0.1104
0.11022
0.10862
0.10695
0.10323
0.10017
0.094411
0.090484
0.082982
0.078886
0.070414
0.066261
0.11064
0.11045
0.10884
0.10713
0.10339
0.10025
0.094452
0.090423
0.082882
0.078658
0.070185
0.065906
0.11088
0.11069
0.10907
0.10733
0.10355
0.10035
0.094496
0.090363
0.082781
0.078428
0.069952
0.065548
0.11113
0.11093
0.10931
0.10753
0.10372
0.10044
0.094544
0.090305
0.082681
0.078197
0.069715
0.065184
0.11139
0.11119
0.10955
0.10773
0.1039
0.10054
0.094596
0.09025
0.082581
0.077965
0.069474
0.064816
0.11165
0.11145
0.1098
0.10795
0.10408
0.10065
0.094652
0.090196
0.082481
0.077731
0.069229
0.064443
0.11192
0.11172
0.11007
0.10817
0.10427
0.10076
0.094712
0.090145
0.082381
0.077497
0.068978
0.064064
0.11221
0.112
0.11034
0.10841
0.10447
0.10088
0.094776
0.090097
0.082281
0.07726
0.068723
0.06368
0.1125
0.11229
0.11061
0.10865
0.10467
0.10101
0.094844
0.09005
0.082181
0.077022
0.068463
0.06329
0.1128
0.11259
0.1109
0.10889
0.10488
0.10114
0.094917
0.090007
0.082081
0.076783
0.068198
0.062894
0.11311
0.11289
0.1112
0.10915
0.1051
0.10128
0.094995
0.089966
0.081981
0.076542
0.067927
0.062491
0.11343
0.11321
0.11151
0.10942
0.10533
0.10142
0.095077
0.089928
0.081882
0.076299
0.067651
0.062082
0.11376
0.11354
0.11182
0.1097
0.10557
0.10158
0.095165
0.089893
0.081782
0.076053
0.067369
0.061665
0.1141
0.11388
0.11215
0.10998
0.10581
0.10174
0.095257
0.08986
0.081682
0.075806
0.067081
0.061241
0.11445
0.11423
0.11249
0.11028
0.10607
0.1019
0.095356
0.089831
0.081582
0.075556
0.066786
0.06081
0.11481
0.11459
0.11284
0.11059
0.10634
0.10208
0.095459
0.089804
0.081482
0.075304
0.066485
0.06037
0.11519
0.11497
0.11321
0.11091
0.10661
0.10226
0.095569
0.089781
0.081382
0.07505
0.066177
0.059922
0.11557
0.11536
0.11358
0.11124
0.1069
0.10245
0.095684
0.089761
0.081281
0.074792
0.065862
0.059464
0.11597
0.11576
0.11397
0.11159
0.10719
0.10265
0.095805
0.089744
0.081179
0.074532
0.06554
0.058997
0.11638
0.11617
0.11437
0.11195
0.1075
0.10286
0.095933
0.08973
0.081078
0.074268
0.065209
0.058521
0.11681
0.1166
0.11479
0.11232
0.10782
0.10308
0.096067
0.08972
0.080975
0.074
0.064871
0.058034
0.11725
0.11704
0.11522
0.1127
0.10815
0.10331
0.096207
0.089712
0.080872
0.073729
0.064524
0.057536
0.1177
0.1175
0.11567
0.1131
0.1085
0.10355
0.096354
0.089708
0.080767
0.073453
0.064167
0.057026
0.11817
0.11797
0.11613
0.11351
0.10885
0.1038
0.096508
0.089708
0.080662
0.073173
0.063802
0.056505
0.11866
0.11846
0.1166
0.11394
0.10922
0.10406
0.096669
0.08971
0.080555
0.072889
0.063426
0.055971
0.11916
0.11896
0.1171
0.11438
0.10961
0.10433
0.096837
0.089716
0.080446
0.072599
0.06304
0.055424
0.11968
0.11949
0.11761
0.11484
0.11
0.10461
0.097013
0.089725
0.080336
0.072303
0.062643
0.054863
0.12021
0.12003
0.11813
0.11532
0.11042
0.10491
0.097196
0.089737
0.080223
0.072001
0.062234
0.054287
0.12076
0.12059
0.11868
0.11581
0.11084
0.10521
0.097386
0.089752
0.080108
0.071693
0.061813
0.053696
0.12134
0.12117
0.11925
0.11633
0.11129
0.10553
0.097584
0.08977
0.07999
0.071377
0.061379
0.053089
0.12193
0.12177
0.11983
0.11686
0.11175
0.10586
0.09779
0.08979
0.079868
0.071054
0.060931
0.052465
0.12254
0.12239
0.12044
0.11741
0.11223
0.10621
0.098004
0.089814
0.079743
0.070722
0.060469
0.051823
0.12317
0.12303
0.12107
0.11798
0.11272
0.10657
0.098227
0.089839
0.079615
0.070382
0.059992
0.051162
0.12383
0.12369
0.12172
0.11858
0.11324
0.10694
0.098457
0.089868
0.079481
0.070032
0.059499
0.050482
0.1245
0.12438
0.1224
0.11919
0.11377
0.10732
0.098696
0.089898
0.079343
0.069671
0.058989
0.049781
0.12521
0.1251
0.1231
0.11983
0.11432
0.10773
0.098944
0.089931
0.079199
0.069299
0.05846
0.049057
0.12593
0.12584
0.12383
0.1205
0.1149
0.10815
0.099201
0.089965
0.07905
0.068915
0.057913
0.048311
0.12669
0.12661
0.12458
0.12119
0.11549
0.10858
0.099467
0.090001
0.078893
0.068518
0.057346
0.04754
0.12747
0.12741
0.12537
0.12191
0.11611
0.10903
0.099742
0.090038
0.078729
0.068107
0.056757
0.046743
0.12828
0.12824
0.12619
0.12266
0.11676
0.1095
0.10003
0.090076
0.078557
0.067681
0.056146
0.045919
0.12913
0.1291
0.12704
0.12344
0.11743
0.10999
0.10032
0.090115
0.078377
0.067239
0.055511
0.045067
0.13
0.13
0.12792
0.12425
0.11813
0.1105
0.10063
0.090155
0.078187
0.06678
0.05485
0.044184
0.13092
0.13094
0.12884
0.1251
0.11886
0.11103
0.10094
0.090195
0.077986
0.066302
0.054163
0.043269
0.13187
0.13191
0.1298
0.12598
0.11961
0.11158
0.10127
0.090235
0.077774
0.065804
0.053447
0.04232
0.13286
0.13293
0.13081
0.1269
0.1204
0.11216
0.10161
0.090274
0.077549
0.065285
0.052701
0.041335
0.13389
0.134
0.13186
0.12787
0.12123
0.11276
0.10195
0.090312
0.077311
0.064742
0.051922
0.040312
0.13497
0.13511
0.13295
0.12888
0.12209
0.11338
0.10232
0.090349
0.077058
0.064175
0.05111
0.03925
0.1361
0.13627
0.1341
0.12994
0.12299
0.11404
0.10269
0.090384
0.076789
0.06358
0.050261
0.038144
0.13728
0.13749
0.13531
0.13105
0.12394
0.11472
0.10307
0.090415
0.076502
0.062957
0.049373
0.036993
0.13851
0.13877
0.13657
0.13222
0.12493
0.11543
0.10347
0.090443
0.076195
0.062303
0.048443
0.035794
0.13981
0.14011
0.1379
0.13344
0.12596
0.11618
0.10388
0.090466
0.075866
0.061614
0.047469
0.034544
0.14117
0.14152
0.1393
0.13473
0.12705
0.11695
0.10431
0.090483
0.075513
0.060889
0.046447
0.033239
0.1426
0.14301
0.14077
0.13609
0.12819
0.11777
0.10474
0.090491
0.075133
0.060123
0.045373
0.031876
0.1441
0.14457
0.14232
0.13752
0.12939
0.11862
0.10519
0.090489
0.074723
0.059312
0.044244
0.030451
0.14568
0.14622
0.14396
0.13903
0.13065
0.11951
0.10565
0.090475
0.074278
0.058453
0.043055
0.028959
0.14734
0.14796
0.14568
0.14062
0.13198
0.12044
0.10612
0.090444
0.073795
0.057539
0.0418
0.027396
0.14909
0.1498
0.14751
0.14231
0.13337
0.1214
0.1066
0.090394
0.073267
0.056566
0.040474
0.025756
0.15094
0.15174
0.14944
0.14408
0.13484
0.12241
0.10709
0.090319
0.07269
0.055527
0.03907
0.024033
0.15289
0.15379
0.15149
0.14596
0.13638
0.12346
0.10757
0.090214
0.072055
0.054413
0.037582
0.02222
0.15494
0.15596
0.15365
0.14795
0.138
0.12455
0.10806
0.090072
0.071355
0.053217
0.035999
0.02031
0.15711
0.15826
0.15594
0.15005
0.1397
0.12568
0.10854
0.089884
0.07058
0.051928
0.034314
0.018295
0.1594
0.16069
0.15837
0.15227
0.14149
0.12685
0.109
0.089643
0.069719
0.050534
0.032515
0.016164
0.16183
0.16327
0.16095
0.15462
0.14336
0.12805
0.10945
0.089335
0.068759
0.049025
0.03059
0.013908
0.16439
0.16601
0.16369
0.15711
0.14532
0.12928
0.10986
0.088949
0.067687
0.047385
0.028527
0.011514
0.16709
0.16892
0.1666
0.15974
0.14737
0.13053
0.11023
0.088469
0.066485
0.045599
0.026311
0.0089697
0.16996
0.172
0.1697
0.16252
0.14952
0.13179
0.11054
0.087877
0.065136
0.04365
0.023926
0.0062614
0.17299
0.17529
0.17299
0.16547
0.15175
0.13306
0.11078
0.087152
0.063619
0.041518
0.021356
0.0033735
0.17621
0.17879
0.1765
0.16859
0.15407
0.13431
0.11092
0.08627
0.06191
0.039181
0.01858
0.00028994
0.17963
0.18252
0.18026
0.17189
0.15648
0.13554
0.11093
0.085202
0.05998
0.036616
0.01558
-0.0030067
0.18327
0.18652
0.18427
0.17539
0.15896
0.13672
0.1108
0.083914
0.057799
0.033795
0.012331
-0.0065346
0.18716
0.19081
0.18858
0.17909
0.16152
0.13782
0.11047
0.082364
0.05533
0.030687
0.0088098
-0.010313
0.1913
0.19543
0.19322
0.18302
0.16412
0.13881
0.1099
0.080504
0.052528
0.027257
0.0049877
-0.014362
0.19574
0.20041
0.19821
0.18717
0.16676
0.13963
0.10902
0.078273
0.049342
0.023464
0.00083377
-0.018703
0.20051
0.20581
0.20359
0.19155
0.16939
0.14022
0.10777
0.075602
0.045711
0.019259
-0.0036876
-0.02336
0.20563
0.21166
0.20941
0.19616
0.17195
0.14049
0.10605
0.072403
0.041564
0.014587
-0.0086161
-0.028354
0.21113
0.21803
0.21568
0.20096
0.17436
0.14033
0.10375
0.068575
0.036819
0.009387
-0.013995
-0.033711
0.21706
0.22497
0.22244
0.2059
0.17651
0.13961
0.10072
0.064
0.031384
0.0035911
-0.019871
-0.039452
0.22344
0.23253
0.22968
0.2109
0.17824
0.13812
0.096791
0.058545
0.025162
-0.0028684
-0.026284
-0.045595
0.2303
0.24076
0.23736
0.21581
0.17931
0.13565
0.091773
0.052064
0.018052
-0.010053
-0.033269
-0.052143
0.23768
0.24968
0.24539
0.22037
0.17942
0.1319
0.08544
0.044405
0.0099661
-0.018007
-0.040836
-0.059081
0.24563
0.25928
0.25356
0.22422
0.17816
0.12651
0.077546
0.035424
0.00083611
-0.026745
-0.048964
-0.066358
0.25421
0.26948
0.2615
0.22682
0.17498
0.11909
0.067841
0.025002
-0.0093644
-0.036232
-0.05758
-0.073884
0.26356
0.28007
0.26857
0.22734
0.16919
0.10916
0.056097
0.013073
-0.0206
-0.046375
-0.066556
-0.081517
0.27387
0.29062
0.2737
0.22461
0.15992
0.096282
0.042161
-0.00033406
-0.032748
-0.057006
-0.075704
-0.089074
0.28543
0.30025
0.27518
0.21702
0.14616
0.080038
0.026018
-0.015052
-0.045575
-0.067879
-0.084782
-0.096342
0.29869
0.30745
0.27046
0.20248
0.12685
0.060186
0.0078575
-0.030738
-0.058724
-0.078679
-0.093521
-0.10311
0.3142
0.30993
0.25613
0.17857
0.10102
0.03673
-0.011899
-0.046886
-0.071744
-0.089055
-0.10166
-0.1092
0.33239
0.30476
0.2285
0.14303
0.068083
0.0099865
-0.032661
-0.062916
-0.084166
-0.098674
-0.10898
-0.11453
0.35272
0.2881
0.18488
0.095042
0.028318
-0.019411
-0.053816
-0.078346
-0.095647
-0.10733
-0.11541
-0.1191
0.37405
0.25285
0.12193
0.034748
-0.017622
-0.051118
-0.075269
-0.093214
-0.1063
-0.11518
-0.12114
-0.12322
0.4048
0.19757
0.037857
-0.03728
-0.069465
-0.085867
-0.098208
-0.10875
-0.11724
-0.12322
-0.12706
-0.1277
0.45661
0.13871
-0.054892
-0.11316
-0.12255
-0.12153
-0.12209
-0.12512
-0.12889
-0.13186
-0.13358
-0.13282
0.10128
0.061306
0.05096
0.045457
0.042729
0.041954
0.042502
0.043845
0.045489
0.04713
0.048324
0.04915
0.12014
0.075854
0.062845
0.055242
0.051226
0.049714
0.049908
0.051177
0.052915
0.054759
0.05612
0.057562
0.10741
0.070647
0.058707
0.050993
0.046686
0.04479
0.044561
0.045429
0.046827
0.048429
0.049623
0.051064
0.10218
0.070081
0.058357
0.050398
0.045766
0.043555
0.043048
0.043695
0.044932
0.046439
0.047571
0.048985
0.10134
0.072003
0.060026
0.051744
0.046767
0.044271
0.043545
0.044042
0.045184
0.046646
0.047752
0.049167
0.10055
0.073678
0.06157
0.053068
0.047806
0.045052
0.044116
0.044454
0.045483
0.046872
0.047931
0.049304
0.099368
0.07494
0.062885
0.054271
0.048784
0.045794
0.044645
0.044804
0.045692
0.046973
0.047959
0.04924
0.09818
0.076075
0.064199
0.055553
0.04989
0.046683
0.045319
0.045279
0.046002
0.047144
0.048033
0.049184
0.097117
0.077149
0.065553
0.056947
0.051157
0.047753
0.046172
0.04592
0.046455
0.04743
0.048202
0.049191
0.096154
0.078136
0.066906
0.058408
0.052543
0.048966
0.047175
0.0467
0.047029
0.047814
0.04845
0.049253
0.09526
0.079017
0.068221
0.05989
0.054
0.050281
0.048289
0.047588
0.047701
0.048279
0.048766
0.049367
0.094425
0.079789
0.069471
0.061355
0.055486
0.051655
0.04948
0.048558
0.048452
0.048812
0.049144
0.049534
0.093642
0.080452
0.070636
0.062771
0.056962
0.053051
0.050713
0.049582
0.04926
0.049402
0.049575
0.049755
0.092904
0.081014
0.071706
0.064114
0.058399
0.054436
0.05196
0.050633
0.050106
0.050033
0.050049
0.050027
0.092209
0.08148
0.072674
0.065368
0.059771
0.055785
0.053193
0.051691
0.050971
0.050692
0.050558
0.050344
0.091552
0.08186
0.073541
0.066526
0.061066
0.057078
0.054394
0.052736
0.05184
0.051368
0.051092
0.050701
0.090932
0.082163
0.074309
0.067586
0.062273
0.058304
0.055548
0.053755
0.0527
0.052051
0.051642
0.051093
0.090345
0.082399
0.074986
0.068547
0.063391
0.059455
0.056647
0.054738
0.053543
0.052733
0.052202
0.051512
0.08979
0.082578
0.075579
0.069416
0.064419
0.06053
0.057686
0.05568
0.054362
0.053408
0.052766
0.051954
0.089267
0.082707
0.076095
0.070198
0.065362
0.061528
0.058663
0.056577
0.055151
0.054071
0.053329
0.052411
0.088773
0.082796
0.076544
0.0709
0.066222
0.062452
0.059578
0.057427
0.05591
0.054718
0.053886
0.052879
0.088308
0.082849
0.076932
0.071528
0.067007
0.063306
0.060433
0.058231
0.056636
0.055347
0.054436
0.053353
0.08787
0.082875
0.077267
0.072091
0.067722
0.064093
0.06123
0.058989
0.057328
0.055957
0.054974
0.05383
0.087458
0.082876
0.077555
0.072594
0.068372
0.064818
0.061972
0.059703
0.057987
0.056546
0.055501
0.054305
0.08707
0.082859
0.077802
0.073044
0.068964
0.065486
0.062663
0.060374
0.058614
0.057113
0.056013
0.054776
0.086706
0.082825
0.078013
0.073445
0.069501
0.066101
0.063305
0.061005
0.059209
0.057659
0.056511
0.05524
0.086363
0.082779
0.078193
0.073804
0.06999
0.066666
0.063903
0.061598
0.059774
0.058184
0.056993
0.055696
0.086041
0.082723
0.078345
0.074124
0.070435
0.067187
0.064458
0.062155
0.060309
0.058687
0.057459
0.056142
0.085738
0.082659
0.078474
0.074409
0.070839
0.067667
0.064974
0.062678
0.060817
0.059168
0.057908
0.056576
0.085452
0.082588
0.078581
0.074663
0.071206
0.068108
0.065454
0.063169
0.061297
0.059629
0.058341
0.056998
0.085184
0.082512
0.078669
0.07489
0.07154
0.068514
0.0659
0.063629
0.061751
0.060069
0.058758
0.057406
0.08493
0.082432
0.078741
0.075092
0.071843
0.068888
0.066315
0.064061
0.062181
0.06049
0.059158
0.057801
0.084691
0.082348
0.078798
0.075271
0.072119
0.069232
0.0667
0.064467
0.062587
0.06089
0.059541
0.058182
0.084464
0.082263
0.078843
0.075429
0.072369
0.069549
0.067058
0.064847
0.062971
0.061272
0.059908
0.058548
0.08425
0.082175
0.078876
0.075569
0.072596
0.06984
0.067391
0.065203
0.063333
0.061634
0.060259
0.0589
0.084046
0.082085
0.078899
0.075692
0.072801
0.070108
0.0677
0.065536
0.063674
0.061979
0.060594
0.059237
0.083852
0.081995
0.078912
0.0758
0.072987
0.070354
0.067986
0.065848
0.063997
0.062307
0.060914
0.05956
0.083667
0.081903
0.078918
0.075894
0.073155
0.070579
0.068252
0.06614