/*--------------------------------*- C++ -*----------------------------------*\
  =========                 |
  \\      /  F ield         | OpenFOAM: The Open Source CFD Toolbox
   \\    /   O peration     | Website:  https://openfoam.org
    \\  /    A nd           | Version:  6.0
     \\/     M anipulation  |
\*---------------------------------------------------------------------------*/
FoamFile
{
    version     2.0;
    format      ascii;
    class       volVectorField;
    location    "0.68";
    object      U;
}
// * * * * * * * * * * * * * * * * * * * * * * * * * * * * * * * * * * * * * //

dimensions      [0 1 -1 0 0 0 0];

internalField   nonuniform List<vector> 
13500
(
(1 2.3217e-06 -4.4076e-18)
(1 -4.9614e-06 2.9868e-18)
(1 -4.4967e-06 -1.2798e-17)
(1 -1.0695e-05 -8.9121e-18)
(1 -6.392e-06 1.6651e-17)
(1 -8.8425e-06 3.1374e-17)
(0.99999 2.8538e-06 2.6599e-17)
(0.99998 1.2427e-05 -4.3671e-18)
(0.99991 4.3961e-05 1.5732e-17)
(0.99974 9.4568e-05 3.4669e-18)
(0.99662 0.00057721 2.8764e-17)
(1.0176 0.010931 8.1978e-18)
(1 7.084e-06 2.7306e-18)
(1 -1.4744e-05 -9.0709e-18)
(1 -1.2545e-05 6.1115e-18)
(1 -3.2032e-05 -3.5178e-19)
(1 -1.6733e-05 -4.4409e-19)
(1 -2.7673e-05 -3.7725e-17)
(0.99998 1.354e-05 -4.594e-17)
(0.99995 3.3328e-05 -2.4989e-17)
(0.99971 0.00014317 -1.5701e-17)
(0.99951 0.000261 -1.7136e-18)
(0.98955 0.0015629 -1.3622e-17)
(1.0486 0.030897 -4.9635e-18)
(1 1.1865e-05 -3.5269e-18)
(1 -2.4753e-05 1.8022e-17)
(1 -2.0457e-05 3.1787e-18)
(1 -5.4211e-05 1.0275e-17)
(1 -2.6365e-05 -3.8396e-18)
(1 -4.8406e-05 3.022e-17)
(0.99998 2.6474e-05 -6.465e-18)
(0.99993 5.0479e-05 5.6762e-18)
(0.99952 0.00025067 -1.9046e-17)
(0.99956 0.00045224 2.6036e-17)
(0.98251 0.0021232 -7.1255e-18)
(1.0731 0.045585 1.7484e-18)
(1 1.6649e-05 9.22e-18)
(1 -3.4993e-05 -1.7473e-17)
(1 -2.8432e-05 -1.5069e-17)
(1 -7.7091e-05 -7.2111e-19)
(1 -3.5845e-05 5.9269e-18)
(1.0001 -7.0485e-05 -8.3823e-19)
(0.99997 4.0474e-05 6.371e-17)
(0.99992 6.4608e-05 1.0228e-17)
(0.99931 0.00036322 2.2522e-17)
(0.99986 0.00067325 -9.4312e-18)
(0.97589 0.0022873 3.4712e-17)
(1.0899 0.056309 -7.9578e-18)
(1 2.1443e-05 -6.4785e-18)
(1 -4.5356e-05 1.5101e-17)
(1 -3.6414e-05 1.2827e-17)
(1 -0.00010034 1.3152e-17)
(1 -4.5182e-05 2.9059e-18)
(1.0001 -9.344e-05 2.2214e-17)
(0.99996 5.5305e-05 -2.845e-17)
(0.99992 7.578e-05 2.0778e-18)
(0.99909 0.00047841 -1.3808e-17)
(1.0004 0.00092371 -2.2505e-18)
(0.97 0.0021182 -8.9928e-18)
(1.0991 0.06423 2.2042e-18)
(1 2.624e-05 6.5562e-18)
(1 -5.5836e-05 -6.2604e-18)
(1 -4.4415e-05 3.9171e-18)
(1.0001 -0.00012396 -2.6053e-17)
(1 -5.4378e-05 -8.5316e-20)
(1.0001 -0.00011737 -4.3976e-17)
(0.99995 7.1025e-05 1.0913e-18)
(0.99993 8.3501e-05 -1.6677e-17)
(0.99885 0.00059462 5.2583e-18)
(1.001 0.0012048 -2.267e-17)
(0.96508 0.0016798 -2.1685e-17)
(1.1019 0.069979 2.1349e-18)
(0.99999 3.1031e-05 -1.0853e-18)
(1 -6.6438e-05 -7.4875e-18)
(1 -5.2437e-05 -3.1837e-18)
(1.0001 -0.00014799 1.9665e-17)
(1.0001 -6.3408e-05 -2.6914e-17)
(1.0001 -0.00014242 1.6827e-17)
(0.99995 8.7751e-05 1.9026e-17)
(0.99996 8.7305e-05 5.8673e-18)
(0.99859 0.00071033 1.1754e-17)
(1.0017 0.0015162 1.2204e-17)
(0.96127 0.001035 9.3537e-18)
(1.0994 0.073994 3.4366e-18)
(0.99999 3.5806e-05 -2.24e-18)
(1 -7.716e-05 -1.473e-18)
(1 -6.0494e-05 -2.7424e-17)
(1.0001 -0.00017247 -9.3904e-18)
(1.0001 -7.2273e-05 7.5336e-18)
(1.0001 -0.00016871 2.7578e-17)
(0.99994 0.0001055 1.2108e-17)
(1 8.6809e-05 5.2386e-18)
(0.99832 0.00082385 -7.6833e-18)
(1.0025 0.0018553 1.7095e-17)
(0.9586 0.00024633 7.5663e-18)
(1.0929 0.076638 -1.094e-17)
(0.99999 4.0557e-05 -6.9536e-18)
(1 -8.8002e-05 6.3325e-18)
(1 -6.8603e-05 4.611e-17)
(1.0001 -0.00019741 -1.1264e-17)
(1.0001 -8.1002e-05 2.8209e-17)
(1.0002 -0.00019633 -5.4449e-17)
(0.99993 0.00012419 -4.0338e-17)
(1 8.1675e-05 1.018e-17)
(0.99803 0.00093339 -5.7708e-18)
(1.0034 0.0022171 -9.428e-18)
(0.95703 -0.0006273 -1.3966e-17)
(1.0838 0.078214 1.4323e-17)
(0.99999 4.5274e-05 4.5812e-18)
(1 -9.896e-05 2.3836e-18)
(1 -7.6784e-05 -3.9058e-17)
(1.0001 -0.00022282 1.603e-17)
(1.0001 -8.9631e-05 -1.2301e-17)
(1.0002 -0.00022539 2.3223e-17)
(0.99992 0.00014371 1.4334e-17)
(1.0001 7.16e-05 2.5739e-18)
(0.99774 0.0010371 5.4436e-19)
(1.0042 0.0025956 1.4951e-18)
(0.95645 -0.0015326 4.4535e-18)
(1.0731 0.078965 -7.4457e-19)
(0.99999 4.9945e-05 -2.5152e-18)
(1 -0.00011003 -7.8174e-18)
(1 -8.5062e-05 9.5741e-18)
(1.0001 -0.00024871 -2.8286e-18)
(1.0001 -9.8208e-05 1.8987e-18)
(1.0002 -0.00025598 -2.5452e-17)
(0.9999 0.00016383 -3.3012e-17)
(1.0002 5.6334e-05 -3.2686e-17)
(0.99744 0.0011334 1.613e-17)
(1.0049 0.0029843 1.9427e-18)
(0.95673 -0.0024243 -1.1295e-17)
(1.0619 0.079084 -6.1841e-18)
(0.99998 5.4561e-05 3.4717e-18)
(1 -0.00012122 2.9527e-18)
(1 -9.3462e-05 4.614e-18)
(1.0001 -0.00027511 -2.2543e-18)
(1.0001 -0.0001068 -5.6917e-18)
(1.0003 -0.00028823 9.6263e-18)
(0.99989 0.00018427 1.911e-17)
(1.0003 3.5692e-05 2.0193e-17)
(0.99715 0.0012203 1.0366e-17)
(1.0056 0.0033767 -2.4516e-17)
(0.95768 -0.0032661 1.1488e-19)
(1.0507 0.078724 -7.1758e-18)
(0.99998 5.911e-05 -3.471e-18)
(1 -0.00013252 5.8066e-18)
(1 -0.00010201 8.365e-18)
(1.0001 -0.00030204 5.8859e-18)
(1.0001 -0.00011548 -5.2785e-18)
(1.0003 -0.00032227 4.7325e-18)
(0.99987 0.0002046 4.3576e-18)
(1.0004 9.5751e-06 -1.8031e-18)
(0.99686 0.0012965 -1.6753e-17)
(1.0063 0.0037668 2.2738e-17)
(0.95915 -0.0040312 1.024e-19)
(1.0401 0.078003 1.5285e-18)
(0.99998 6.3581e-05 5.2783e-18)
(1 -0.00014394 -4.5326e-18)
(1 -0.00011075 7.3209e-19)
(1.0001 -0.00032952 -4.9103e-18)
(1.0001 -0.00012436 1.1988e-17)
(1.0003 -0.00035822 5.7746e-18)
(0.99986 0.0002243 1.7532e-17)
(1.0006 -2.2021e-05 -6.6979e-18)
(0.99659 0.0013604 -2.0506e-19)
(1.0068 0.0041495 5.59e-18)
(0.96097 -0.0047017 1.7189e-17)
(1.0306 0.077017 9.7443e-19)
(0.99997 6.796e-05 1.273e-18)
(1 -0.00015546 1.0059e-17)
(1 -0.00011972 1.3987e-17)
(1.0002 -0.00035757 -4.896e-18)
(1.0001 -0.00013359 8.6796e-18)
(1.0004 -0.00039623 -2.6957e-18)
(0.99984 0.00024272 -3.0705e-17)
(1.0007 -5.8996e-05 2.1201e-17)
(0.99634 0.0014108 -1.8898e-17)
(1.0073 0.0045204 -3.2234e-17)
(0.96301 -0.0052683 -3.7686e-18)
(1.0224 0.075837 9.0425e-19)
(0.99997 7.2236e-05 -3.2478e-18)
(1 -0.00016711 -1.0698e-17)
(1 -0.00012897 -3.3572e-17)
(1.0002 -0.00038624 8.2483e-18)
(1.0001 -0.00014334 -1.3172e-17)
(1.0004 -0.00043645 8.6438e-18)
(0.99983 0.00025913 -2.8722e-18)
(1.0009 -0.00010113 -1.2763e-17)
(0.99611 0.001447 4.147e-18)
(1.0077 0.0048764 1.9251e-17)
(0.96514 -0.0057285 -7.9252e-18)
(1.0154 0.07452 1.2668e-17)
(0.99997 7.6396e-05 3.417e-19)
(1 -0.00017888 8.0012e-18)
(1 -0.00013855 2.3178e-17)
(1.0002 -0.00041557 -1.8578e-18)
(1.0001 -0.0001538 -1.3085e-17)
(1.0005 -0.00047906 -1.6108e-17)
(0.99981 0.00027268 1.0973e-17)
(1.001 -0.0001481 7.32e-18)
(0.99591 0.0014682 2.3987e-17)
(1.0081 0.0052153 -2.6974e-18)
(0.96727 -0.0060854 1.9725e-18)
(1.0097 0.07311 -5.0526e-18)
(0.99996 8.0425e-05 -1.9172e-18)
(1 -0.00019079 -9.6949e-18)
(1 -0.00014853 -1.0458e-17)
(1.0002 -0.00044562 6.208e-18)
(1.0001 -0.00016525 -7.348e-18)
(1.0005 -0.00052424 -1.2921e-17)
(0.9998 0.00028249 1.0667e-17)
(1.0012 -0.00019944 -4.9658e-18)
(0.99574 0.0014744 -2.9692e-17)
(1.0084 0.0055359 -1.5123e-17)
(0.96935 -0.0063461 8.5617e-18)
(1.0052 0.071639 -5.4933e-18)
(0.99996 8.431e-05 -2.7451e-18)
(1 -0.00020285 -3.6642e-18)
(1 -0.00015898 -7.7509e-19)
(1.0002 -0.00047646 -2.7185e-17)
(1.0001 -0.00017796 6.1662e-18)
(1.0006 -0.00057219 5.6261e-18)
(0.99979 0.00028766 -2.0269e-17)
(1.0014 -0.00025458 -1.6956e-17)
(0.9956 0.0014657 4.3397e-18)
(1.0087 0.005838 -1.1424e-18)
(0.97132 -0.0065205 -9.8838e-18)
(1.0018 0.070135 1.0383e-18)
(0.99995 8.8033e-05 3.5706e-18)
(0.99999 -0.00021508 1.6798e-17)
(1 -0.00017 1.9956e-17)
(1.0002 -0.00050818 2.56e-18)
(1.0001 -0.00019226 1.7044e-17)
(1.0006 -0.00062311 9.8598e-18)
(0.99978 0.0002873 2.926e-18)
(1.0016 -0.00031282 1.8558e-17)
(0.99549 0.0014428 2.1583e-17)
(1.0089 0.0061216 1.8063e-17)
(0.97315 -0.0066199 7.3827e-18)
(0.99923 0.068615 1.2348e-18)
(0.99995 9.1578e-05 -1.7018e-18)
(0.99999 -0.00022751 -4.0304e-18)
(1 -0.00018169 -2.1261e-17)
(1.0002 -0.00054091 -2.4241e-18)
(1.0001 -0.00020853 -1.2917e-17)
(1.0007 -0.00067719 -5.3351e-18)
(0.99978 0.00028062 -1.877e-18)
(1.0018 -0.00037338 -1.6782e-17)
(0.99542 0.0014066 -2.0646e-17)
(1.0091 0.0063875 9.2631e-18)
(0.97485 -0.006656 5.0898e-19)
(0.99746 0.067094 7.1024e-19)
(0.99994 9.4926e-05 4.511e-18)
(0.99999 -0.00024019 -5.2655e-18)
(1 -0.00019416 -1.994e-17)
(1.0002 -0.00057476 4.6084e-17)
(1.0002 -0.00022716 1.8737e-17)
(1.0007 -0.00073463 -1.3055e-17)
(0.99978 0.00026694 2.524e-17)
(1.0021 -0.0004354 2.2682e-17)
(0.99537 0.0013582 3.3506e-17)
(1.0093 0.0066369 -3.3959e-17)
(0.97641 -0.0066401 -1.3562e-17)
(0.9963 0.065583 1.8828e-19)
(0.99993 9.8056e-05 -3.3019e-18)
(0.99999 -0.00025315 -1.0566e-18)
(1 -0.00020756 3.4042e-17)
(1.0003 -0.00060991 -3.4837e-17)
(1.0002 -0.00024857 -1.8039e-18)
(1.0008 -0.00079557 4.3255e-17)
(0.99978 0.00024574 7.8214e-18)
(1.0023 -0.00049793 -3.5031e-18)
(0.99535 0.0012991 -2.0783e-17)
(1.0094 0.0068708 4.0024e-17)
(0.97783 -0.0065829 -5.748e-18)
(0.99561 0.06409 -2.9805e-19)
(0.99993 0.00010095 -1.6832e-18)
(0.99998 -0.00026645 -2.1054e-18)
(1 -0.00022204 1.7722e-18)
(1.0003 -0.00064653 3.6242e-17)
(1.0002 -0.00027315 -1.0169e-17)
(1.0008 -0.00086012 -3.1972e-17)
(0.9998 0.00021672 -1.9942e-17)
(1.0025 -0.00056004 -3.7722e-18)
(0.99535 0.001231 6.5743e-18)
(1.0095 0.0070905 -3.3772e-17)
(0.97914 -0.0064938 9.6263e-18)
(0.99528 0.062619 3.2377e-18)
(0.99992 0.00010357 2.7816e-18)
(0.99998 -0.00028016 1.4654e-17)
(1 -0.00023775 -1.3073e-17)
(1.0003 -0.00068481 -3.7949e-18)
(1.0002 -0.00030132 -1.9513e-17)
(1.0009 -0.00092832 3.4783e-17)
(0.99982 0.00017979 -1.7505e-17)
(1.0027 -0.00062074 1.5642e-17)
(0.99538 0.0011555 -2.0263e-18)
(1.0096 0.0072973 3.1666e-17)
(0.98034 -0.0063809 -9.3961e-18)
(0.99522 0.061175 -5.4029e-18)
(0.99991 0.00010589 -5.3348e-19)
(0.99997 -0.00029436 -8.4278e-18)
(1 -0.00025487 -1.8305e-17)
(1.0003 -0.00072496 -1.0398e-17)
(1.0002 -0.00033343 1.8927e-17)
(1.001 -0.0010001 -4.4355e-17)
(0.99984 0.00013513 -2.7005e-18)
(1.0029 -0.00067911 -2.1132e-17)
(0.99543 0.0010743 3.2754e-18)
(1.0097 0.0074923 -9.1341e-18)
(0.98145 -0.0062508 1.0002e-17)
(0.99534 0.05976 2.294e-18)
(0.99991 0.0001079 2.7946e-18)
(0.99997 -0.00030913 -9.0274e-18)
(1 -0.00027357 -1.8079e-18)
(1.0003 -0.00076716 2.5266e-18)
(1.0002 -0.00036979 5.9901e-18)
(1.0011 -0.0010754 1.2816e-17)
(0.99987 8.3105e-05 4.4283e-17)
(1.0031 -0.00073429 2.5257e-18)
(0.99549 0.00098892 5.3399e-18)
(1.0098 0.0076763 1.0069e-17)
(0.98248 -0.006109 -8.5565e-18)
(0.99559 0.058374 1.7652e-18)
(0.9999 0.00010954 -1.6025e-18)
(0.99997 -0.00032458 9.0191e-18)
(1 -0.00029405 2.6018e-17)
(1.0003 -0.00081162 -2.5457e-17)
(1.0002 -0.00041063 -9.3173e-18)
(1.0011 -0.001154 -2.2554e-18)
(0.99991 2.4342e-05 -1.4596e-17)
(1.0033 -0.00078548 1.9595e-18)
(0.99556 0.00090082 -9.2502e-18)
(1.0099 0.0078501 -3.7005e-18)
(0.98344 -0.0059599 -2.4347e-19)
(0.99592 0.05702 -2.1558e-18)
(0.99989 0.0001108 -1.7223e-18)
(0.99996 -0.00034079 5.3984e-18)
(1 -0.00031646 -6.2945e-19)
(1.0003 -0.00085849 8.4415e-18)
(1.0002 -0.00045609 -1.7191e-17)
(1.0012 -0.0012355 2.5518e-17)
(0.99995 -4.0367e-05 7.2796e-18)
(1.0035 -0.00083203 -1.8695e-17)
(0.99565 0.00081129 -1.1868e-17)
(1.0099 0.0080145 -1.4651e-17)
(0.98436 -0.0058067 1.355e-18)
(0.9963 0.055697 -3.9572e-18)
(0.99988 0.00011163 5.9848e-19)
(0.99996 -0.00035787 -1.2892e-17)
(1 -0.00034097 1.611e-17)
(1.0004 -0.0009079 2.3348e-17)
(1.0003 -0.00050619 3.3694e-17)
(1.0013 -0.0013194 -1.8741e-17)
(1 -0.00011008 -1.8099e-17)
(1.0037 -0.00087341 3.7932e-18)
(0.99574 0.00072139 1.112e-17)
(1.01 0.0081698 1.1468e-17)
(0.98522 -0.005652 6.316e-18)
(0.9967 0.054404 3.9334e-18)
(0.99987 0.000112 1.1469e-18)
(0.99995 -0.00037591 1.0252e-17)
(1 -0.00036771 -3.7013e-17)
(1.0004 -0.00095993 -3.3831e-18)
(1.0003 -0.00056084 -2.7988e-17)
(1.0014 -0.0014052 -1.1805e-17)
(1 -0.00018375 2.5568e-20)
(1.0039 -0.00090921 -4.3401e-18)
(0.99584 0.00063201 -2.1924e-17)
(1.01 0.0083164 -1.8308e-17)
(0.98606 -0.0054975 -8.6316e-18)
(0.99712 0.053141 -1.9421e-18)
(0.99986 0.00011189 -7.4337e-19)
(0.99995 -0.00039499 -6.6671e-18)
(1 -0.00039677 2.9121e-17)
(1.0004 -0.0010146 -3.2278e-17)
(1.0003 -0.00061981 -2.1042e-18)
(1.0015 -0.0014922 2.5138e-17)
(1.0001 -0.00026029 7.242e-19)
(1.004 -0.00093922 4.1381e-18)
(0.99594 0.00054379 1.9192e-17)
(1.01 0.0084546 2.3797e-17)
(0.98685 -0.0053445 4.9368e-18)
(0.99753 0.051907 -1.0865e-18)
(0.99985 0.00011126 -1.9351e-18)
(0.99994 -0.0004152 -2.4586e-18)
(1 -0.00042822 -1.291e-17)
(1.0004 -0.0010718 1.608e-17)
(1.0003 -0.00068278 3.0758e-17)
(1.0016 -0.0015799 -1.111e-17)
(1.0001 -0.00033862 2.2539e-17)
(1.0042 -0.00096334 3.1019e-18)
(0.99604 0.00045723 -2.1766e-18)
(1.0101 0.0085846 1.0762e-17)
(0.98763 -0.0051938 -5.5231e-18)
(0.99793 0.050702 -7.5904e-19)
(0.99984 0.0001101 4.8398e-19)
(0.99994 -0.00043658 -6.5018e-18)
(1 -0.00046206 4.8322e-18)
(1.0004 -0.0011315 -1.6388e-17)
(1.0004 -0.0007493 -3.2532e-17)
(1.0016 -0.0016674 7.0016e-18)
(1.0002 -0.00041768 -3.2516e-17)
(1.0043 -0.00098162 -7.0938e-18)
(0.99615 0.0003726 7.0574e-18)
(1.0101 0.0087065 -3.3782e-17)
(0.98837 -0.0050461 3.7788e-18)
(0.99832 0.049525 2.136e-18)
(0.99983 0.00010839 8.4986e-19)
(0.99993 -0.00045916 1.7616e-17)
(1 -0.00049824 8.0907e-18)
(1.0005 -0.0011934 6.6755e-18)
(1.0004 -0.00081881 2.6013e-17)
(1.0017 -0.001754 2.0875e-18)
(1.0002 -0.00049654 2.2452e-17)
(1.0045 -0.00099426 5.0873e-18)
(0.99626 0.00029008 -2.146e-17)
(1.0101 0.0088203 1.1629e-17)
(0.9891 -0.0049016 2.5563e-18)
(0.9987 0.048375 2.2181e-18)
(0.99982 0.00010611 -2.9674e-18)
(0.99992 -0.00048293 -5.7984e-18)
(1 -0.00053666 -7.1087e-18)
(1.0005 -0.0012573 1.0963e-17)
(1.0004 -0.00089069 1.2566e-17)
(1.0018 -0.001839 -4.1572e-18)
(1.0003 -0.00057435 -1.8859e-17)
(1.0046 -0.0010015 2.3167e-17)
(0.99637 0.0002097 3.9696e-18)
(1.0102 0.0089262 -3.5119e-18)
(0.98981 -0.0047606 1.0587e-17)
(0.99906 0.047252 -1.5429e-18)
(0.99981 0.00010329 6.0973e-18)
(0.99991 -0.00050788 6.9437e-18)
(1 -0.00057717 -7.5561e-18)
(1.0005 -0.0013229 -6.8288e-18)
(1.0004 -0.00096427 -1.8032e-17)
(1.0019 -0.0019218 -7.1403e-18)
(1.0003 -0.00065041 9.2982e-18)
(1.0047 -0.0010038 -3.7161e-17)
(0.99648 0.00013141 9.7296e-18)
(1.0102 0.0090241 -4.1501e-18)
(0.9905 -0.004623 -1.1214e-17)
(0.99941 0.046154 4.4857e-18)
(0.9998 9.9918e-05 -2.691e-18)
(0.99991 -0.00053394 -1.22e-17)
(1 -0.00061955 -7.3229e-18)
(1.0005 -0.0013896 -1.2958e-17)
(1.0005 -0.0010388 -5.5054e-18)
(1.0019 -0.0020017 2.0994e-17)
(1.0004 -0.00072419 -9.1338e-18)
(1.0048 -0.0010016 4.1341e-17)
(0.99659 5.5083e-05 9.1787e-18)
(1.0102 0.0091142 1.2594e-17)
(0.99117 -0.004489 4.7286e-18)
(0.99975 0.045081 -7.2781e-18)
(0.99978 9.6028e-05 -1.4273e-18)
(0.9999 -0.00056101 9.0726e-18)
(1 -0.00066353 1.4509e-17)
(1.0005 -0.0014571 3.4938e-17)
(1.0005 -0.0011137 7.2974e-18)
(1.002 -0.0020782 -1.44e-17)
(1.0004 -0.00079528 4.4078e-18)
(1.0049 -0.00099533 -4.4479e-17)
(0.9967 -1.9439e-05 -1.1137e-17)
(1.0102 0.0091964 -7.0014e-18)
(0.99182 -0.0043584 4.6443e-18)
(1.0001 0.044032 7.3245e-18)
(0.99977 9.1651e-05 1.0923e-18)
(0.99989 -0.00058898 2.1476e-18)
(1 -0.00070881 -1.4248e-17)
(1.0006 -0.0015249 -5.8197e-18)
(1.0005 -0.0011882 9.265e-18)
(1.0021 -0.002151 1.7236e-17)
(1.0005 -0.00086344 1.5327e-17)
(1.005 -0.00098557 4.4016e-18)
(0.99682 -9.2345e-05 1.2462e-17)
(1.0102 0.0092709 -3.2427e-18)
(0.99246 -0.0042313 -8.2912e-18)
(1.0004 0.043007 -1.8879e-18)
(0.99975 8.6828e-05 -4.4741e-20)
(0.99988 -0.00061768 2.4475e-18)
(1 -0.00075506 3.1844e-18)
(1.0006 -0.0015925 -7.5549e-18)
(1.0005 -0.0012617 8.5868e-20)
(1.0021 -0.0022197 -1.5628e-17)
(1.0005 -0.00092856 -1.0367e-17)
(1.0051 -0.00097284 3.2574e-17)
(0.99693 -0.00016383 -1.8839e-17)
(1.0102 0.0093378 1.2592e-17)
(0.99309 -0.0041075 4.3812e-18)
(1.0007 0.042005 -5.3425e-18)
(0.99974 8.1612e-05 -3.3831e-18)
(0.99987 -0.00064696 -1.1479e-17)
(1 -0.00080191 8.1292e-18)
(1.0006 -0.0016594 -2.0632e-17)
(1.0006 -0.0013335 -2.343e-17)
(1.0022 -0.0022842 -2.1589e-17)
(1.0006 -0.00099065 -2.1128e-17)
(1.0052 -0.00095766 -3.3357e-18)
(0.99705 -0.00023409 1.6465e-17)
(1.0102 0.0093971 -1.08e-17)
(0.9937 -0.003987 4.3697e-19)
(1.001 0.041025 5.0347e-18)
(0.99972 7.606e-05 6.5297e-18)
(0.99986 -0.00067662 1.1996e-17)
(0.99999 -0.000849 -1.311e-17)
(1.0006 -0.0017252 1.694e-17)
(1.0006 -0.0014034 -2.7468e-18)
(1.0023 -0.0023443 1.4151e-17)
(1.0006 -0.0010498 2.5396e-17)
(1.0053 -0.00094056 -2.5271e-17)
(0.99716 -0.00030332 -8.3515e-18)
(1.0102 0.0094489 1.1401e-17)
(0.99429 -0.0038696 3.7937e-18)
(1.0013 0.040067 -2.383e-18)
(0.9997 7.0235e-05 -4.8995e-18)
(0.99985 -0.00070647 -3.5455e-18)
(0.99999 -0.00089598 -2.7407e-18)
(1.0006 -0.0017895 1.9381e-17)
(1.0006 -0.0014708 -5.8807e-18)
(1.0023 -0.0024002 -1.7928e-19)
(1.0006 -0.0011063 -4.9694e-18)
(1.0054 -0.000922 2.0242e-17)
(0.99728 -0.00037168 -7.9328e-18)
(1.0103 0.0094934 -7.8288e-18)
(0.99487 -0.0037553 -1.1216e-17)
(1.0015 0.039131 2.7726e-18)
(0.99968 6.4204e-05 3.3303e-18)
(0.99983 -0.0007363 -4.4953e-18)
(0.99998 -0.00094249 6.2751e-18)
(1.0006 -0.001852 -2.9407e-17)
(1.0006 -0.0015355 3.9844e-17)
(1.0024 -0.0024519 5.8626e-18)
(1.0006 -0.0011602 1.9607e-17)
(1.0055 -0.00090243 -1.2526e-17)
(0.9974 -0.00043932 1.0227e-19)
(1.0103 0.0095307 5.8195e-18)
(0.99544 -0.003644 -2.1885e-18)
(1.0018 0.038215 -1.043e-18)
(0.99967 5.8035e-05 -9.5272e-19)
(0.99982 -0.00076593 8.7861e-19)
(0.99997 -0.00098823 1.5288e-17)
(1.0007 -0.0019122 8.017e-18)
(1.0006 -0.0015973 -1.9919e-17)
(1.0024 -0.0024996 -1.1483e-17)
(1.0007 -0.001212 3.4233e-18)
(1.0055 -0.00088226 -6.0902e-18)
(0.99752 -0.00050639 1.3273e-17)
(1.0103 0.009561 -3.8209e-18)
(0.996 -0.0035357 1.0513e-17)
(1.0021 0.037319 -3.8108e-18)
(0.99965 5.1795e-05 -1.6582e-18)
(0.99981 -0.00079516 -8.4697e-18)
(0.99996 -0.0010329 -4.5458e-18)
(1.0007 -0.0019701 3.2192e-17)
(1.0006 -0.001656 -1.7745e-17)
(1.0024 -0.0025436 -9.7254e-19)
(1.0007 -0.0012619 -5.1196e-17)
(1.0056 -0.00086185 5.9861e-18)
(0.99764 -0.00057299 -2.4829e-17)
(1.0103 0.0095843 -8.247e-18)
(0.99654 -0.0034303 -1.0524e-17)
(1.0023 0.036444 2.2633e-18)
(0.99962 4.5547e-05 -7.1582e-19)
(0.99979 -0.00082384 5.2473e-18)
(0.99995 -0.0010763 -1.8765e-18)
(1.0007 -0.0020253 -1.8744e-17)
(1.0006 -0.0017118 2.5501e-17)
(1.0025 -0.0025842 -2.3908e-18)
(1.0007 -0.0013102 2.7118e-17)
(1.0057 -0.00084152 -3.6802e-18)
(0.99777 -0.00063923 1.2053e-17)
(1.0103 0.0096008 1.0313e-17)
(0.99707 -0.0033277 8.6831e-18)
(1.0026 0.035587 -5.4785e-19)
(0.9996 3.9352e-05 4.0578e-18)
(0.99977 -0.0008518 -3.1393e-18)
(0.99994 -0.0011182 -6.5636e-18)
(1.0007 -0.002078 2.0457e-17)
(1.0007 -0.0017646 1.8714e-18)
(1.0025 -0.0026217 2.9641e-17)
(1.0007 -0.0013573 4.6779e-18)
(1.0057 -0.00082156 1.7582e-17)
(0.99789 -0.00070518 4.5218e-18)
(1.0103 0.0096107 -3.3368e-18)
(0.99758 -0.0032279 1.1317e-18)
(1.0028 0.03475 4.9597e-19)
(0.99958 3.3262e-05 1.1569e-18)
(0.99976 -0.00087893 1.2837e-18)
(0.99993 -0.0011584 -5.9515e-18)
(1.0007 -0.0021279 -4.0738e-17)
(1.0007 -0.0018146 5.6665e-18)
(1.0026 -0.0026566 2.5704e-18)
(1.0007 -0.0014034 -2.0284e-17)
(1.0058 -0.00080221 2.4731e-19)
(0.99802 -0.00077091 1.3331e-17)
(1.0103 0.0096141 -2.1445e-18)
(0.99808 -0.0031309 -5.5107e-18)
(1.0031 0.033931 2.9249e-18)
(0.99956 2.7324e-05 -4.9544e-18)
(0.99974 -0.00090513 5.4403e-18)
(0.99992 -0.0011969 9.8147e-19)
(1.0007 -0.0021752 2.2621e-17)
(1.0007 -0.001862 -2.5849e-17)
(1.0026 -0.002689 -1.1355e-17)
(1.0008 -0.0014489 2.0746e-17)
(1.0058 -0.00078368 -1.1909e-17)
(0.99815 -0.00083648 -2.1079e-17)
(1.0103 0.0096112 -1.0593e-17)
(0.99858 -0.0030366 7.022e-18)
(1.0033 0.03313 9.7618e-19)
(0.99953 2.1577e-05 -5.2419e-19)
(0.99972 -0.00093033 -5.4743e-18)
(0.9999 -0.0012337 1.0449e-17)
(1.0007 -0.0022199 1.003e-17)
(1.0007 -0.001907 3.1926e-17)
(1.0026 -0.0027195 4.3616e-18)
(1.0008 -0.0014939 1.8427e-17)
(1.0059 -0.00076616 3.0191e-17)
(0.99828 -0.00090194 -9.3399e-19)
(1.0103 0.0096021 1.8632e-17)
(0.99906 -0.0029449 -7.4198e-19)
(1.0036 0.032346 -2.8467e-18)
(0.99951 1.6049e-05 5.081e-18)
(0.9997 -0.00095449 -7.9697e-18)
(0.99989 -0.0012686 -1.5859e-17)
(1.0007 -0.0022621 -2.6662e-18)
(1.0007 -0.0019499 -3.465e-17)
(1.0026 -0.0027482 -1.2979e-17)
(1.0008 -0.0015388 -6.3962e-18)
(1.006 -0.00074979 2.2506e-19)
(0.99841 -0.00096732 2.7439e-17)
(1.0103 0.009587 4.2907e-18)
(0.99952 -0.002856 -9.654e-18)
(1.0038 0.03158 1.7084e-18)
(0.99948 1.0763e-05 -5.6962e-18)
(0.99968 -0.00097757 9.9557e-18)
(0.99987 -0.0013019 8.3014e-18)
(1.0007 -0.0023021 -5.3123e-18)
(1.0007 -0.0019908 2.7864e-17)
(1.0027 -0.0027756 1.5527e-17)
(1.0008 -0.0015837 -5.0563e-18)
(1.006 -0.0007347 -3.0423e-17)
(0.99854 -0.0010326 -9.317e-19)
(1.0103 0.009566 -1.2265e-17)
(0.99998 -0.0027696 1.1434e-17)
(1.004 0.030831 -2.237e-18)
(0.99946 5.7316e-06 3.4227e-18)
(0.99966 -0.0009996 -1.9049e-18)
(0.99985 -0.0013334 1.0991e-17)
(1.0007 -0.00234 -2.2348e-17)
(1.0007 -0.0020302 9.0977e-18)
(1.0027 -0.002802 -5.5778e-18)
(1.0008 -0.0016288 -1.0894e-17)
(1.0061 -0.00072102 -2.4415e-18)
(0.99867 -0.0010979 -3.3125e-17)
(1.0103 0.0095394 8.0897e-18)
(1.0004 -0.0026858 -1.048e-17)
(1.0043 0.030099 7.4675e-19)
(0.99943 9.6093e-07 2.7058e-19)
(0.99963 -0.0010206 -5.9924e-18)
(0.99983 -0.0013634 6.2409e-18)
(1.0007 -0.002376 2.9413e-17)
(1.0006 -0.0020682 -2.1669e-17)
(1.0027 -0.0028276 1.7942e-17)
(1.0009 -0.0016743 -6.2992e-18)
(1.0061 -0.00070882 5.6548e-18)
(0.99881 -0.0011633 3.9358e-17)
(1.0103 0.0095071 -1.5016e-17)
(1.0009 -0.0026047 1.6029e-17)
(1.0045 0.029382 2.1122e-18)
(0.9994 -3.5501e-06 4.8564e-19)
(0.99961 -0.0010406 -1.2399e-18)
(0.99981 -0.0013919 -8.979e-18)
(1.0007 -0.0024103 -4.4282e-18)
(1.0006 -0.0021051 1.8885e-17)
(1.0027 -0.0028526 1.4224e-19)
(1.0009 -0.0017202 -1.2382e-17)
(1.0062 -0.00069819 -1.3497e-17)
(0.99894 -0.0012286 -1.6477e-17)
(1.0104 0.0094694 -1.416e-18)
(1.0013 -0.0025261 2.9455e-18)
(1.0047 0.028681 2.2178e-19)
(0.99937 -7.8084e-06 -7.8158e-19)
(0.99959 -0.0010597 1.4758e-17)
(0.99979 -0.0014192 -5.9885e-18)
(1.0007 -0.0024432 -2.5022e-17)
(1.0006 -0.0021412 8.7053e-18)
(1.0028 -0.0028773 -4.5711e-17)
(1.0009 -0.0017668 6.1763e-18)
(1.0062 -0.00068919 8.4997e-18)
(0.99908 -0.0012939 7.6534e-19)
(1.0104 0.0094265 1.5246e-17)
(1.0017 -0.00245 -9.7275e-19)
(1.0049 0.027996 -5.9027e-18)
(0.99934 -1.1826e-05 -2.0636e-19)
(0.99956 -0.0010779 -2.8969e-19)
(0.99977 -0.0014452 8.0612e-18)
(1.0007 -0.0024749 1.5448e-17)
(1.0006 -0.0021766 -3.4591e-17)
(1.0028 -0.0029018 1.9749e-18)
(1.0009 -0.001814 1.1063e-17)
(1.0063 -0.00068188 1.331e-17)
(0.99922 -0.0013593 -1.0426e-17)
(1.0104 0.0093784 -1.4841e-17)
(1.0021 -0.0023765 -1.5933e-17)
(1.0051 0.027326 6.2339e-18)
(0.99931 -1.5619e-05 -1.3501e-18)
(0.99954 -0.0010954 4.1232e-19)
(0.99974 -0.0014702 -3.8868e-18)
(1.0007 -0.0025055 -1.0314e-17)
(1.0006 -0.0022117 1.9174e-17)
(1.0028 -0.0029263 2.4535e-17)
(1.0009 -0.001862 3.2267e-18)
(1.0064 -0.00067632 6.7435e-18)
(0.99936 -0.0014248 1.6629e-17)
(1.0104 0.0093253 2.4984e-18)
(1.0025 -0.0023055 1.1792e-17)
(1.0053 0.02667 -3.7836e-18)
(0.99928 -1.9206e-05 2.4849e-18)
(0.99951 -0.0011121 7.6022e-19)
(0.99972 -0.0014944 -5.5543e-18)
(1.0006 -0.0025353 1.5236e-18)
(1.0006 -0.0022465 -1.0396e-17)
(1.0028 -0.002951 -5.8851e-18)
(1.0009 -0.0019108 -1.1924e-18)
(1.0064 -0.00067254 -3.0449e-17)
(0.9995 -0.0014903 3.2659e-18)
(1.0104 0.0092674 -5.0617e-18)
(1.0029 -0.002237 -4.7955e-18)
(1.0056 0.026029 -4.5602e-18)
(0.99925 -2.2609e-05 -5.071e-18)
(0.99948 -0.0011283 9.9315e-19)
(0.99969 -0.0015178 2.946e-18)
(1.0006 -0.0025645 -1.9144e-17)
(1.0006 -0.0022813 -1.1851e-17)
(1.0028 -0.002976 -2.732e-17)
(1.001 -0.0019604 5.7557e-18)
(1.0065 -0.00067059 1.2434e-17)
(0.99964 -0.001556 -3.5019e-17)
(1.0104 0.0092047 2.3342e-17)
(1.0033 -0.002171 -5.1943e-18)
(1.0058 0.025402 2.9411e-18)
(0.99922 -2.5849e-05 4.6548e-18)
(0.99946 -0.0011439 2.2227e-18)
(0.99967 -0.0015407 1.133e-18)
(1.0006 -0.0025931 6.0723e-18)
(1.0006 -0.0023162 -2.6169e-18)
(1.0029 -0.0030014 5.2951e-17)
(1.001 -0.002011 2.0665e-17)
(1.0065 -0.00067049 -1.9333e-17)
(0.99978 -0.0016217 3.3707e-17)
(1.0104 0.0091374 -8.7089e-18)
(1.0036 -0.0021076 -3.4312e-18)
(1.006 0.024789 -1.4666e-18)
(0.99919 -2.8949e-05 1.1417e-18)
(0.99943 -0.0011591 -1.4076e-17)
(0.99964 -0.0015631 2.2673e-18)
(1.0006 -0.0026215 2.7265e-17)
(1.0006 -0.0023513 2.0256e-17)
(1.0029 -0.0030272 -8.5599e-19)
(1.001 -0.0020625 -2.8629e-17)
(1.0066 -0.00067228 5.8567e-18)
(0.99992 -0.0016876 -7.6026e-18)
(1.0104 0.0090657 -1.205e-17)
(1.004 -0.0020466 8.7256e-18)
(1.0062 0.024189 1.3677e-18)
(0.99916 -3.1933e-05 -4.5156e-18)
(0.9994 -0.0011739 -4.692e-18)
(0.99962 -0.0015851 -1.2282e-17)
(1.0006 -0.0026496 -2.2865e-17)
(1.0006 -0.0023867 -2.0381e-17)
(1.0029 -0.0030536 -2.4062e-17)
(1.001 -0.002115 5.2872e-18)
(1.0066 -0.00067599 4.5504e-17)
(1.0001 -0.0017536 3.3147e-18)
(1.0105 0.0089895 -1.051e-18)
(1.0043 -0.001988 -3.0828e-18)
(1.0064 0.023602 -3.6735e-18)
(0.99912 -3.4821e-05 3.3507e-18)
(0.99937 -0.0011884 4.359e-18)
(0.99959 -0.001607 1.8926e-17)
(1.0006 -0.0026777 1.5836e-17)
(1.0005 -0.0024225 1.9828e-17)
(1.0029 -0.0030806 -8.9453e-19)
(1.0011 -0.0021684 -2.9459e-17)
(1.0066 -0.00068164 -2.4594e-17)
(1.0002 -0.0018197 8.2287e-18)
(1.0105 0.0089092 4.171e-18)
(1.0047 -0.001932 6.9602e-18)
(1.0066 0.023028 2.8399e-18)
(0.99909 -3.7636e-05 -2.3663e-18)
(0.99934 -0.0012028 6.8374e-18)
(0.99956 -0.0016287 -1.2522e-17)
(1.0006 -0.0027058 2.2915e-18)
(1.0005 -0.0024589 9.2186e-18)
(1.0029 -0.0031082 -2.3519e-18)
(1.0011 -0.0022229 6.6136e-18)
(1.0067 -0.00068926 6.8278e-18)
(1.0004 -0.001886 2.7108e-18)
(1.0105 0.0088247 1.0307e-17)
(1.005 -0.0018784 -8.3731e-18)
(1.0068 0.022467 5.7378e-19)
(0.99906 -4.0396e-05 3.5725e-18)
(0.99931 -0.0012169 4.2373e-19)
(0.99953 -0.0016504 -5.8611e-18)
(1.0006 -0.002734 9.12e-19)
(1.0005 -0.0024958 -1.5151e-18)
(1.003 -0.0031366 -2.3233e-17)
(1.0011 -0.0022784 1.8468e-17)
(1.0067 -0.00069888 2.4228e-17)
(1.0005 -0.0019525 -1.3484e-17)
(1.0105 0.0087363 -1.434e-17)
(1.0053 -0.0018273 -2.4523e-18)
(1.007 0.021918 4.8818e-18)
(0.99902 -4.312e-05 -2.5951e-18)
(0.99928 -0.001231 -3.2634e-19)
(0.9995 -0.0016722 7.2873e-18)
(1.0005 -0.0027624 -1.7522e-17)
(1.0005 -0.0025334 -1.3694e-17)
(1.003 -0.0031657 2.9331e-17)
(1.0011 -0.0023349 -2.8244e-18)
(1.0068 -0.00071051 -2.5654e-17)
(1.0006 -0.0020192 3.4371e-18)
(1.0105 0.0086439 1.3501e-17)
(1.0056 -0.0017787 8.3099e-18)
(1.0072 0.021381 -1.7603e-18)
(0.99899 -4.5825e-05 2.5786e-19)
(0.99924 -0.001245 2.3901e-18)
(0.99947 -0.0016941 3.9817e-18)
(1.0005 -0.0027911 9.0577e-18)
(1.0005 -0.0025716 2.684e-17)
(1.003 -0.0031956 6.8381e-18)
(1.0011 -0.0023925 -2.4595e-17)
(1.0068 -0.00072417 2.4027e-18)
(1.0008 -0.0020861 8.8557e-18)
(1.0105 0.0085478 -1.2162e-17)
(1.0059 -0.0017325 -5.6225e-18)
(1.0074 0.020855 -2.0355e-18)
(0.99895 -4.8525e-05 7.3213e-19)
(0.99921 -0.001259 -4.1586e-19)
(0.99944 -0.0017161 -1.0505e-17)
(1.0005 -0.0028202 -1.948e-19)
(1.0005 -0.0026106 -5.3065e-17)
(1.003 -0.0032264 8.4302e-18)
(1.0012 -0.0024511 2.416e-17)
(1.0069 -0.0007399 -6.905e-18)
(1.0009 -0.0021532 -9.272e-18)
(1.0106 0.0084479 2.0194e-17)
(1.0062 -0.0016887 6.7348e-18)
(1.0076 0.020341 5.2751e-18)
(0.99891 -5.1235e-05 7.8641e-19)
(0.99918 -0.0012731 -8.6275e-19)
(0.99941 -0.0017385 1.8999e-17)
(1.0005 -0.0028496 4.1772e-18)
(1.0005 -0.0026503 4.7023e-17)
(1.003 -0.003258 -2.9713e-17)
(1.0012 -0.0025108 -8.0913e-18)
(1.0069 -0.0007577 6.4968e-18)
(1.0011 -0.0022207 3.1971e-18)
(1.0106 0.0083445 -1.1362e-17)
(1.0065 -0.0016474 -1.0878e-18)
(1.0077 0.019838 -3.8896e-18)
(0.99888 -5.3965e-05 -3.0734e-18)
(0.99915 -0.0012872 1.4483e-18)
(0.99938 -0.0017611 -1.1166e-17)
(1.0005 -0.0028794 5.4922e-18)
(1.0005 -0.0026908 -1.7867e-17)
(1.003 -0.0032905 4.0294e-18)
(1.0012 -0.0025716 3.2398e-17)
(1.007 -0.0007776 -2.4313e-17)
(1.0012 -0.0022883 -1.175e-17)
(1.0106 0.0082377 -1.1237e-17)
(1.0068 -0.0016086 -5.3617e-18)
(1.0079 0.019346 -1.0675e-18)
(0.99884 -5.6727e-05 3.8282e-18)
(0.99911 -0.0013015 -3.4398e-18)
(0.99935 -0.001784 -1.0836e-17)
(1.0005 -0.0029096 -8.7582e-18)
(1.0004 -0.0027321 -2.9211e-17)
(1.0031 -0.0033239 -1.8687e-17)
(1.0013 -0.0026335 -1.9865e-17)
(1.007 -0.00079962 2.2605e-17)
(1.0014 -0.0023563 1.1394e-17)
(1.0106 0.0081274 1.7016e-17)
(1.0071 -0.0015721 -2.103e-18)
(1.0081 0.018865 5.1525e-18)
(0.9988 -5.953e-05 -6.1525e-18)
(0.99908 -0.0013159 5.573e-18)
(0.99931 -0.0018073 2.6531e-17)
(1.0004 -0.0029404 -2.0658e-18)
(1.0004 -0.0027743 3.2318e-17)
(1.0031 -0.0033582 1.4103e-18)
(1.0013 -0.0026965 -1.9028e-17)
(1.007 -0.00082378 8.8435e-18)
(1.0015 -0.0024247 -4.109e-18)
(1.0107 0.0080139 -3.5633e-18)
(1.0074 -0.0015382 6.8208e-18)
(1.0083 0.018394 -3.4842e-18)
(0.99876 -6.2382e-05 5.0417e-18)
(0.99904 -0.0013304 -7.5738e-18)
(0.99928 -0.001831 -3.0932e-17)
(1.0004 -0.0029717 1.3512e-17)
(1.0004 -0.0028174 -2.3024e-17)
(1.0031 -0.0033936 2.583e-17)
(1.0013 -0.0027606 6.2016e-18)
(1.0071 -0.00085009 -8.4203e-18)
(1.0017 -0.0024933 -1.9726e-18)
(1.0107 0.0078972 -8.9216e-18)
(1.0076 -0.0015066 -1.113e-17)
(1.0085 0.017933 4.814e-18)
(0.99872 -6.529e-05 -3.7135e-18)
(0.999 -0.0013451 2.5184e-18)
(0.99925 -0.0018551 1.8795e-17)
(1.0004 -0.0030035 -1.7812e-17)
(1.0004 -0.0028613 3.7045e-17)
(1.0031 -0.0034299 -2.0046e-17)
(1.0013 -0.0028258 3.6154e-18)
(1.0071 -0.00087858 -1.3303e-17)
(1.0018 -0.0025624 6.4427e-18)
(1.0107 0.0077773 -1.2474e-18)
(1.0079 -0.0014775 4.7624e-18)
(1.0087 0.017482 -2.1416e-18)
(0.99868 -6.826e-05 4.5544e-18)
(0.99897 -0.00136 1.9605e-18)
(0.99921 -0.0018796 -1.253e-17)
(1.0004 -0.0030359 -3.6183e-19)
(1.0004 -0.0029062 -1.636e-18)
(1.0031 -0.0034672 4.8487e-18)
(1.0014 -0.0028922 3.4338e-17)
(1.0072 -0.00090926 9.0988e-18)
(1.002 -0.0026318 -1.9099e-17)
(1.0107 0.0076545 -6.468e-18)
(1.0082 -0.0014508 -4.491e-18)
(1.0089 0.01704 2.2477e-18)
(0.99864 -7.1298e-05 -5.2201e-18)
(0.99893 -0.0013751 -7.2648e-18)
(0.99918 -0.0019046 5.2567e-18)
(1.0004 -0.0030689 1.541e-17)