/*--------------------------------*- C++ -*----------------------------------*\
  =========                 |
  \\      /  F ield         | OpenFOAM: The Open Source CFD Toolbox
   \\    /   O peration     | Website:  https://openfoam.org
    \\  /    A nd           | Version:  6.0
     \\/     M anipulation  |
\*---------------------------------------------------------------------------*/
FoamFile
{
    version     2.0;
    format      ascii;
    class       surfaceScalarField;
    location    "17";
    object      phi;
}
// * * * * * * * * * * * * * * * * * * * * * * * * * * * * * * * * * * * * * //

dimensions      [0 3 -1 0 0 0 0];

internalField   nonuniform List<scalar> 
123526
(
5.49707e-05
2.30524e-05
-5.45752e-05
5.53916e-05
2.49182e-05
5.58513e-05
2.69347e-05
5.63435e-05
2.91138e-05
5.68796e-05
3.14684e-05
5.74546e-05
3.40124e-05
5.80801e-05
3.67609e-05
5.87523e-05
3.97299e-05
5.94844e-05
4.29363e-05
6.0272e-05
4.64001e-05
6.11284e-05
5.0142e-05
6.20492e-05
5.41829e-05
6.30504e-05
5.85464e-05
6.41296e-05
6.32553e-05
6.53054e-05
6.83379e-05
6.65712e-05
7.38268e-05
6.79456e-05
7.975e-05
6.94323e-05
8.61351e-05
7.10482e-05
9.3025e-05
7.27909e-05
0.000100458
7.46858e-05
0.000108466
7.67362e-05
0.000117096
7.89561e-05
0.0001264
8.13641e-05
0.000136407
8.39711e-05
0.000147187
8.67918e-05
0.00015878
8.98487e-05
0.000171241
9.31518e-05
0.000184631
9.67296e-05
0.000198996
0.000100592
0.000214407
0.000104771
0.000230905
0.000109279
0.000248558
0.000114149
0.000267407
0.000119401
0.000287503
0.000125058
0.000308882
0.00013115
0.000331564
0.000137699
0.000355567
0.000144733
0.00038087
0.00015228
0.000407433
0.00016036
0.000435178
0.000168995
0.000463975
0.000178204
0.000493633
0.000187999
0.000523884
0.000198386
0.00055436
0.000209361
0.00058457
0.000220907
0.000613869
0.000232992
0.000641424
0.000245564
0.000666169
0.000258545
0.000686756
0.000271821
0.000701497
0.000285246
0.000708289
0.000298616
0.00070456
0.000311676
0.00068717
0.00032409
0.0006524
0.00033544
0.000595888
0.00034519
0.000512667
0.000352818
0.000397198
0.000356636
0.000243589
0.000360027
5.18283e-05
-0.000182857
0.000379443
5.39936e-05
2.26692e-05
-5.36065e-05
5.44059e-05
2.45041e-05
5.48562e-05
2.64871e-05
5.53386e-05
2.86299e-05
5.58643e-05
3.09452e-05
5.64287e-05
3.34465e-05
5.7043e-05
3.61487e-05
5.77038e-05
3.90675e-05
5.84238e-05
4.22185e-05
5.9199e-05
4.56231e-05
6.00418e-05
4.93015e-05
6.09486e-05
5.32739e-05
6.19344e-05
5.75633e-05
6.29976e-05
6.219e-05
6.41554e-05
6.7183e-05
6.54023e-05
7.25779e-05
6.67555e-05
7.83996e-05
6.82197e-05
8.46693e-05
6.98103e-05
9.14369e-05
7.15263e-05
9.87414e-05
7.33909e-05
0.000106603
7.54093e-05
0.000115078
7.75933e-05
0.000124218
7.99632e-05
0.000134037
8.25276e-05
0.000144625
8.53031e-05
0.000156005
8.83098e-05
0.000168235
9.15595e-05
0.000181382
9.50783e-05
0.000195478
9.88783e-05
0.000210607
0.000102987
0.000226796
0.000107422
0.000244124
0.000112211
0.00026262
0.000117377
0.00028234
0.00012294
0.000303321
0.000128931
0.000325574
0.00013537
0.000349128
0.000142286
0.000373954
0.000149704
0.000400014
0.000157645
0.000427236
0.00016613
0.000455488
0.000175178
0.000484581
0.0001848
0.000514258
0.000195
0.000544153
0.000205775
0.000573786
0.000217109
0.000602524
0.000228971
0.00062955
0.000241308
0.000653817
0.000254045
0.000674002
0.00026707
0.000688448
0.00028024
0.000695095
0.000293354
0.000691416
0.000306164
0.000674339
0.000318339
0.000640206
0.00032947
0.000584748
0.000339014
0.000503114
0.000346458
0.000389771
0.000351256
0.000238829
0.000352958
5.02343e-05
-0.00017777
0.000347945
5.32009e-05
2.22927e-05
-5.28205e-05
5.36059e-05
2.40974e-05
5.40477e-05
2.60478e-05
5.45208e-05
2.81554e-05
5.5036e-05
3.04324e-05
5.55888e-05
3.28923e-05
5.61902e-05
3.55494e-05
5.68369e-05
3.84192e-05
5.75414e-05
4.15163e-05
5.82999e-05
4.48628e-05
5.91246e-05
4.84792e-05
6.00121e-05
5.23844e-05
6.09771e-05
5.66011e-05
6.20181e-05
6.1147e-05
6.31522e-05
6.60519e-05
6.4374e-05
7.13544e-05
6.57005e-05
7.7076e-05
6.71363e-05
8.32321e-05
6.86966e-05
8.98792e-05
7.03804e-05
9.70567e-05
7.22108e-05
0.000104775
7.41926e-05
0.000113095
7.63376e-05
0.000122075
7.86657e-05
0.000131709
8.11854e-05
0.000142107
8.39132e-05
0.000153277
8.68685e-05
0.000165281
9.00632e-05
0.000178188
9.35226e-05
0.00019202
9.72587e-05
0.000206872
0.000101299
0.000222757
0.000105659
0.000239764
0.000110368
0.000257914
0.000115446
0.000277265
0.000120914
0.000297855
0.000126803
0.000319688
0.000133131
0.000342801
0.000139926
0.000367161
0.000147213
0.000392728
0.000155012
0.000419437
0.000163344
0.000447156
0.000172227
0.000475698
0.000181672
0.000504812
0.000191683
0.000534142
0.000202256
0.000563212
0.000213376
0.000591403
0.000225012
0.000617913
0.000237111
0.000641716
0.000249602
0.000661513
0.000262373
0.000675677
0.000275286
0.000682188
0.000288142
0.000678568
0.000300699
0.000661802
0.00031263
0.000628302
0.000323534
0.000573888
0.000332884
0.000493815
0.000340159
0.000382575
0.000344747
0.00023433
0.000346951
4.8177e-05
-0.000179189
0.000348494
5.24478e-05
2.19228e-05
-5.20744e-05
5.28457e-05
2.36978e-05
5.32797e-05
2.56162e-05
5.37446e-05
2.76892e-05
5.42507e-05
2.99287e-05
5.47938e-05
3.23478e-05
5.53845e-05
3.49607e-05
5.60197e-05
3.77824e-05
5.67114e-05
4.08266e-05
5.74561e-05
4.41163e-05
5.82656e-05
4.76719e-05
5.91366e-05
5.15113e-05
6.00835e-05
5.56567e-05
6.1105e-05
6.01233e-05
6.22178e-05
6.49418e-05
6.34166e-05
7.01536e-05
6.47183e-05
7.5777e-05
6.61274e-05
8.18215e-05
6.76588e-05
8.83502e-05
6.93117e-05
9.54029e-05
7.11086e-05
0.000102981
7.30544e-05
0.000111149
7.51607e-05
0.00011997
7.74471e-05
0.000129423
7.99218e-05
0.000139634
8.26011e-05
0.000150599
8.5504e-05
0.00016238
8.86424e-05
0.000175051
9.20409e-05
0.000188623
9.57114e-05
0.000203203
9.96803e-05
0.000218789
0.000103964
0.000235481
0.00010859
0.000253292
0.000113578
0.000272281
0.000118949
0.000292488
0.000124732
0.000313908
0.000130946
0.00033659
0.000137618
0.000360491
0.000144772
0.000385577
0.000152428
0.000411784
0.000160606
0.00043898
0.000169324
0.000466983
0.000178592
0.000495547
0.000188415
0.000524322
0.000198787
0.000552841
0.000209695
0.000580497
0.000221108
0.000606502
0.000232975
0.000629849
0.000245224
0.000649264
0.000257747
0.000663151
0.00027041
0.000669527
0.000283015
0.000665961
0.000295329
0.0006495
0.000307029
0.000616623
0.000317724
0.000563226
0.00032691
0.000484672
0.000334058
0.000375499
0.000338725
0.00022977
0.000340837
4.62679e-05
-0.000177024
0.000338828
5.16822e-05
2.15601e-05
-5.13156e-05
5.20726e-05
2.3306e-05
5.24982e-05
2.5193e-05
5.29544e-05
2.7232e-05
5.34508e-05
2.94345e-05
5.3984e-05
3.18135e-05
5.45638e-05
3.43827e-05
5.51879e-05
3.71571e-05
5.58675e-05
4.0149e-05
5.65996e-05
4.33827e-05
5.73953e-05
4.68784e-05
5.82518e-05
5.0653e-05
5.91828e-05
5.47283e-05
6.01872e-05
5.91171e-05
6.12811e-05
6.38507e-05
6.24597e-05
6.89733e-05
6.37391e-05
7.45003e-05
6.51242e-05
8.0435e-05
6.66293e-05
8.68475e-05
6.82537e-05
9.37775e-05
7.00197e-05
0.000101217
7.19319e-05
0.000109237
7.40018e-05
0.000117902
7.62484e-05
0.000127176
7.86801e-05
0.000137204
8.13126e-05
0.000147967
8.41647e-05
0.00015953
8.72479e-05
0.000171969
9.05863e-05
0.000185286
9.41919e-05
0.000199598
9.80904e-05
0.000214891
0.000102298
0.000231275
0.000106841
0.000248752
0.000111739
0.000267386
0.000117014
0.000287217
0.000122692
0.000308232
0.000128793
0.000330491
0.000135343
0.000353944
0.000142366
0.000378557
0.00014988
0.000404272
0.000157907
0.000430956
0.000166463
0.00045843
0.000175557
0.000486455
0.000185195
0.000514686
0.000195373
0.000542666
0.000206074
0.000569798
0.00021727
0.00059531
0.00022891
0.000618212
0.000240925
0.000637255
0.000253209
0.000650872
0.00026563
0.000657117
0.000277996
0.000653606
0.000290077
0.000637442
0.000301557
0.000605172
0.000312055
0.000552773
0.000321088
0.000475689
0.000328123
0.000368536
0.000332707
0.000225262
0.000334901
4.41941e-05
-0.000174831
0.000332804
5.09063e-05
2.1205e-05
-5.05478e-05
5.12883e-05
2.29225e-05
5.17048e-05
2.47787e-05
5.21515e-05
2.67842e-05
5.26378e-05
2.89502e-05
5.31606e-05
3.12895e-05
5.37295e-05
3.38156e-05
5.43423e-05
3.6543e-05
5.501e-05
3.94831e-05
5.57298e-05
4.26612e-05
5.65125e-05
4.60976e-05
5.73554e-05
4.98081e-05
5.82717e-05
5.38142e-05
5.92605e-05
5.81263e-05
6.03372e-05
6.27763e-05
6.14972e-05
6.78114e-05
6.27562e-05
7.32436e-05
6.4119e-05
7.90708e-05
6.55996e-05
8.53692e-05
6.71974e-05
9.21788e-05
6.8934e-05
9.94821e-05
7.08142e-05
0.000107356
7.28492e-05
0.000115869
7.50578e-05
0.000124968
7.74479e-05
0.000134815
8.00352e-05
0.00014538
8.28378e-05
0.000156728
8.58673e-05
0.000168941
8.91473e-05
0.000182007
9.26893e-05
0.000196058
9.65186e-05
0.000211062
0.000100651
0.000227143
0.000105113
0.000244293
0.000109923
0.00026258
0.000115102
0.000282041
0.000120677
0.00030266
0.000126667
0.000324503
0.000133098
0.000347516
0.000139992
0.000371665
0.000147368
0.000396898
0.000155247
0.000423081
0.000163644
0.000450037
0.000172569
0.000477534
0.000182027
0.000505232
0.000192014
0.000532684
0.000202514
0.000559303
0.000213498
0.00058433
0.000224919
0.000606796
0.000236706
0.000625473
0.000248758
0.000638824
0.000260944
0.000644939
0.000273076
0.000641481
0.000284931
0.000625607
0.000296197
0.000593935
0.000306501
0.000542514
0.000315377
0.000466869
0.000322296
0.0003617
0.000326771
0.000220908
0.000328923
4.22635e-05
-0.000172691
0.000326958
5.01189e-05
2.08581e-05
-4.97686e-05
5.04923e-05
2.25478e-05
5.08996e-05
2.43737e-05
5.13369e-05
2.63459e-05
5.18133e-05
2.84758e-05
5.23261e-05
3.07757e-05
5.28843e-05
3.32591e-05
5.34862e-05
3.59399e-05
5.41422e-05
3.88288e-05
5.48502e-05
4.19519e-05
5.56203e-05
4.53293e-05
5.64505e-05
4.89763e-05
5.73531e-05
5.29139e-05
5.83277e-05
5.715e-05
5.93889e-05
6.17175e-05
6.05326e-05
6.66662e-05
6.17733e-05
7.20052e-05
6.31162e-05
7.77267e-05
6.45744e-05
8.39131e-05
6.61477e-05
9.06047e-05
6.78569e-05
9.77748e-05
6.9707e-05
0.000105505
7.17087e-05
0.000113869
7.38806e-05
0.000122796
7.62305e-05
0.000132467
7.87738e-05
0.000142838
8.15283e-05
0.000153975
8.45053e-05
0.000165965
8.77279e-05
0.000178786
9.12075e-05
0.000192579
9.49689e-05
0.000207302
9.90279e-05
0.000223086
0.000103409
0.000239914
0.000108133
0.00025786
0.000113218
0.000276959
0.000118692
0.000297189
0.000124573
0.000318625
0.000130885
0.000341206
0.000137653
0.000364901
0.000144894
0.00038966
0.000152627
0.000415351
0.000160868
0.000441799
0.000169628
0.000468777
0.00017891
0.000495953
0.00018871
0.000522887
0.000199014
0.000549002
0.000209793
0.000573555
0.000220999
0.000595593
0.000232566
0.000613912
0.000244392
0.000627002
0.000256349
0.000632991
0.000268254
0.000629583
0.000279886
0.000613993
0.000290944
0.000582902
0.000301057
0.000532436
0.000309776
0.000458188
0.000316585
0.000354946
0.000320977
0.000216569
0.000323016
4.03035e-05
-0.000170886
0.000321269
4.93282e-05
2.05187e-05
-4.89859e-05
4.9694e-05
2.21806e-05
5.00936e-05
2.39761e-05
5.05231e-05
2.59153e-05
5.09913e-05
2.80094e-05
5.14954e-05
3.02705e-05
5.20443e-05
3.27118e-05
5.26361e-05
3.53469e-05
5.32811e-05
3.81855e-05
5.39771e-05
4.12543e-05
5.47344e-05
4.45737e-05
5.55509e-05
4.81579e-05
5.64392e-05
5.20276e-05
5.73987e-05
5.61885e-05
5.84441e-05
6.06743e-05
5.95711e-05
6.55375e-05
6.07941e-05
7.07843e-05
6.21179e-05
7.64016e-05
6.35552e-05
8.24778e-05
6.51056e-05
8.90535e-05
6.67892e-05
9.6093e-05
6.86109e-05
0.000103683
7.05811e-05
0.000111901
7.27181e-05
0.000120659
7.50294e-05
0.000130157
7.75301e-05
0.000140338
8.02378e-05
0.000151269
8.31636e-05
0.00016304
8.633e-05
0.000175621
8.97485e-05
0.000189162
9.34432e-05
0.000203608
9.74296e-05
0.0002191
0.000101732
0.000235614
0.000106371
0.000253225
0.000111364
0.000271969
0.000116738
0.000291817
0.000122511
0.000312854
0.000128708
0.000335012
0.000135351
0.00035826
0.000142459
0.000382556
0.000150049
0.000407764
0.000158138
0.000433713
0.000166735
0.000460184
0.000175845
0.000486848
0.000185463
0.000513274
0.000195575
0.000538895
0.000206153
0.000562983
0.000217151
0.000584601
0.000228503
0.000602568
0.00024011
0.000615401
0.000251846
0.000621265
0.000263531
0.000617907
0.000274949
0.000602595
0.000285804
0.000572077
0.000295734
0.000522551
0.000304302
0.000449677
0.000311006
0.000348325
0.000315336
0.00021236
0.000317225
3.8633e-05
-0.000169001
0.000315512
4.85609e-05
2.01848e-05
-4.82234e-05
4.89217e-05
2.18187e-05
4.93159e-05
2.35841e-05
4.97398e-05
2.54907e-05
5.02015e-05
2.75495e-05
5.06987e-05
2.97726e-05
5.12393e-05
3.21727e-05
5.18219e-05
3.47633e-05
5.24561e-05
3.75528e-05
5.31403e-05
4.05689e-05
5.3884e-05
4.38318e-05
5.46859e-05
4.73546e-05
5.55577e-05
5.11577e-05
5.64999e-05
5.52447e-05
5.75264e-05
5.96499e-05
5.8634e-05
6.44285e-05
5.98363e-05
6.9584e-05
6.11387e-05
7.50981e-05
6.25531e-05
8.10653e-05
6.40793e-05
8.75265e-05
6.57367e-05
9.44373e-05
6.753e-05
0.00010189
6.94689e-05
0.000109963
7.15715e-05
0.000118557
7.38449e-05
0.000127885
7.6304e-05
0.000137879
7.89659e-05
0.000148608
8.18415e-05
0.000160166
8.4953e-05
0.00017251
8.83115e-05
0.000185804
9.19408e-05
0.000199979
9.58562e-05
0.000215186
0.000100081
0.000231391
0.000104636
0.000248673
0.000109539
0.00026707
0.000114815
0.000286544
0.000120482
0.000307189
0.000126566
0.000328931
0.000133087
0.000351741
0.000140063
0.000375582
0.000147513
0.000400316
0.000155453
0.000425776
0.000163891
0.000451748
0.000172832
0.00047791
0.000182273
0.000503836
0.000192198
0.000528972
0.000202582
0.000552602
0.000213378
0.000573807
0.000224522
0.000591427
0.000235916
0.000604008
0.000247439
0.000609748
0.000258911
0.000606437
0.000270122
0.000591395
0.000280783
0.000561433
0.000290538
0.00051282
0.00029896
0.00044128
0.000305561
0.000341758
0.000309838
0.000208109
0.000311564
3.69409e-05
-0.00016714
0.000309721
4.78449e-05
1.98536e-05
-4.7511e-05
4.82028e-05
2.14597e-05
4.85935e-05
2.31952e-05
4.90135e-05
2.50699e-05
4.94703e-05
2.70944e-05
4.99616e-05
2.92804e-05
5.04951e-05
3.16406e-05
5.10694e-05
3.41879e-05
5.16938e-05
3.69299e-05
5.23663e-05
3.9895e-05
5.30964e-05
4.31031e-05
5.38827e-05
4.65666e-05
5.47369e-05
5.03052e-05
5.56595e-05
5.43203e-05
5.66644e-05
5.86468e-05
5.77486e-05
6.33426e-05
5.89262e-05
6.84084e-05
6.02025e-05
7.38205e-05
6.15896e-05
7.96799e-05
6.30875e-05
8.60278e-05
6.4715e-05
9.28114e-05
6.64768e-05
0.000100128
6.83823e-05
0.000108059
7.04488e-05
0.00011649
7.26832e-05
0.000125652
7.51001e-05
0.000135463
7.7716e-05
0.000145994
8.05415e-05
0.000157341
8.35984e-05
0.000169454
8.68976e-05
0.000182506
9.04624e-05
0.000196415
9.43076e-05
0.000211342
9.84571e-05
0.000227244
0.000102929
0.000244204
0.000107743
0.000262259
0.000112923
0.000281366
0.000118487
0.000301626
0.000124459
0.000322961
0.00013086
0.000345343
0.000137708
0.000368736
0.000145022
0.000393006
0.000152815
0.000417987
0.000161098
0.000443469
0.000169875
0.000469137
0.000179142
0.000494573
0.000188886
0.000519234
0.00019908
0.000542414
0.00020968
0.000563213
0.000220622
0.000580493
0.000231811
0.000592825
0.000243127
0.000598443
0.000254393
0.000595178
0.000265404
0.000580403
0.000275877
0.000550989
0.000285462
0.000503276
0.000293743
0.000433052
0.000300242
0.000335335
0.000304466
0.000203997
0.000306026
3.55829e-05
-0.000164947
0.000303991
4.71998e-05
1.95242e-05
-4.68674e-05
4.75556e-05
2.11028e-05
4.79433e-05
2.28094e-05
4.83594e-05
2.46531e-05
4.88112e-05
2.66443e-05
4.92965e-05
2.87944e-05
4.98227e-05
3.11157e-05
5.03887e-05
3.36211e-05
5.10031e-05
3.63169e-05
5.16644e-05
3.92326e-05
5.23812e-05
4.23878e-05
5.31525e-05
4.57939e-05
5.39891e-05
4.94704e-05
5.4892e-05
5.34161e-05
5.58742e-05
5.76665e-05
5.69335e-05
6.2282e-05
5.80833e-05
6.72604e-05
5.933e-05
7.25729e-05
6.06854e-05
7.83263e-05
6.21502e-05
8.45623e-05
6.37431e-05
9.12201e-05
6.54689e-05
9.84015e-05
6.73367e-05
0.000106193
6.93635e-05
0.000114464
7.15561e-05
0.000123461
7.39283e-05
0.000133091
7.64964e-05
0.000143427
7.92707e-05
0.000154568
8.22723e-05
0.000166454
8.55118e-05
0.000179267
8.90121e-05
0.000192915
9.27879e-05
0.000207567
9.68617e-05
0.000223172
0.000101253
0.000239816
0.000105979
0.000257536
0.000111064
0.000276282
0.000116527
0.000296166
0.000122389
0.0003171
0.000128673
0.000339061
0.000135396
0.000362015
0.000142576
0.000385829
0.000150227
0.000410338
0.000158358
0.00043534
0.000166975
0.000460523
0.000176073
0.000485477
0.00018564
0.000509668
0.00019565
0.000532406
0.000206059
0.000552806
0.000216805
0.000569749
0.000227794
0.000581836
0.000238908
0.000587332
0.000249974
0.00058411
0.00026079
0.000569593
0.000271079
0.000540709
0.000280498
0.000493872
0.000288641
0.000424923
0.00029504
0.000328955
0.000299205
0.000199836
0.00030061
3.41746e-05
-0.000162744
0.000298396
4.66262e-05
1.91967e-05
-4.62964e-05
4.69792e-05
2.07487e-05
4.73629e-05
2.24273e-05
4.77742e-05
2.4241e-05
4.82201e-05
2.61999e-05
4.86986e-05
2.83151e-05
4.92169e-05
3.05986e-05
4.9774e-05
3.3063e-05
5.03783e-05
3.57139e-05
5.10281e-05
3.85814e-05
5.17321e-05
4.16852e-05
5.24887e-05
4.50357e-05
5.33088e-05
4.86518e-05
5.41928e-05
5.25304e-05
5.51535e-05
5.67075e-05
5.61884e-05
6.12456e-05
5.73109e-05
6.61396e-05
5.85271e-05
7.13556e-05
5.98492e-05
7.70058e-05
6.12783e-05
8.31325e-05
6.28332e-05
8.96667e-05
6.45191e-05
9.67153e-05
6.63453e-05
0.000104368
6.83286e-05
0.00011248
7.04756e-05
0.000121315
7.28001e-05
0.000130767
7.53177e-05
0.00014091
7.80384e-05
0.000151848
8.0983e-05
0.00016351
8.41618e-05
0.00017609
8.75968e-05
0.00018948
9.13025e-05
0.000203862
9.53014e-05
0.000219176
9.96114e-05
0.000235508
0.000104251
0.000252899
0.000109243
0.000271292
0.000114605
0.000290805
0.000120361
0.000311347
0.00012653
0.000332893
0.00013313
0.000355417
0.000140178
0.000378783
0.00014769
0.00040283
0.000155674
0.00042736
0.000164134
0.000452067
0.000173068
0.000476548
0.000182462
0.000500279
0.000192292
0.000522582
0.000202514
0.000542589
0.000213068
0.000559203
0.000223862
0.000571049
0.000234779
0.000576425
0.000245648
0.000573247
0.000256273
0.000558985
0.000266382
0.000530627
0.000275639
0.000484652
0.000283646
0.000416965
0.000289944
0.000322727
0.000294042
0.00019584
0.000295314
3.30907e-05
-0.000160251
0.000292967
4.61132e-05
1.88731e-05
-4.57863e-05
4.64617e-05
2.03996e-05
4.68396e-05
2.20512e-05
4.72444e-05
2.38359e-05
4.76826e-05
2.57634e-05
4.81528e-05
2.78445e-05
4.86617e-05
3.0091e-05
4.92089e-05
3.25153e-05
4.9802e-05
3.5122e-05
5.04403e-05
3.79423e-05
5.11312e-05
4.09957e-05
5.1874e-05
4.42917e-05
5.26784e-05
4.78489e-05
5.35454e-05
5.16622e-05
5.44865e-05
5.5768e-05
5.54998e-05
6.02312e-05
5.65972e-05
6.50438e-05
5.77853e-05
7.01666e-05
5.90754e-05
7.57172e-05
6.04696e-05
8.17378e-05
6.1986e-05
8.81516e-05
6.36309e-05
9.50702e-05
6.54134e-05
0.000102587
6.73508e-05
0.000110543
6.94495e-05
0.000119217
7.17235e-05
0.000128494
7.4188e-05
0.000138447
7.68529e-05
0.000149184
7.97386e-05
0.000160625
8.28548e-05
0.000172974
8.62235e-05
0.000186112
8.98586e-05
0.000200228
9.37817e-05
0.000215254
9.80111e-05
0.000231282
0.000102564
0.000248349
0.000107464
0.000266394
0.000112727
0.000285543
0.000118377
0.000305699
0.000124433
0.000326839
0.000130913
0.00034894
0.000137833
0.000371865
0.000145208
0.000395457
0.000153047
0.000419522
0.000161354
0.000443761
0.000170127
0.000467777
0.000179353
0.000491055
0.000189006
0.000512929
0.000199046
0.000532549
0.000209412
0.000548837
0.000220014
0.000560445
0.000230738
0.000565703
0.000241415
0.000562565
0.000251851
0.000548549
0.000261783
0.0005207
0.00027088
0.000475562
0.000278752
0.000409098
0.000284948
0.000316536
0.000288972
0.000191802
0.000290135
3.18912e-05
-0.000157865
0.00028771
4.56389e-05
1.85548e-05
-4.53182e-05
4.59806e-05
2.0057e-05
4.6351e-05
2.16824e-05
4.67476e-05
2.34388e-05
4.71769e-05
2.53354e-05
4.76378e-05
2.73831e-05
4.81367e-05
2.95933e-05
4.86732e-05
3.1978e-05
4.9255e-05
3.45413e-05
4.98812e-05
3.7315e-05
5.05593e-05
4.03187e-05
5.12885e-05
4.35611e-05
5.20783e-05
4.70605e-05
5.29294e-05
5.08095e-05
5.38532e-05
5.48456e-05
5.48473e-05
5.92358e-05
5.59231e-05
6.39694e-05
5.70866e-05
6.90021e-05
5.83487e-05
7.44565e-05
5.97111e-05
8.03749e-05
6.11919e-05
8.66721e-05
6.27974e-05
9.34644e-05
6.45371e-05
0.000100848
6.64285e-05
0.000108652
6.84784e-05
0.000117169
7.07008e-05
0.000126272
7.31108e-05
0.000136038
7.57185e-05
0.000146577
7.85436e-05
0.000157801
8.15962e-05
0.000169922
8.48974e-05
0.000182811
8.84609e-05
0.000196665
9.23082e-05
0.000211409
9.64565e-05
0.000227136
0.000100923
0.000243884
0.000105731
0.000261588
0.000110897
0.000280379
0.000116442
0.000300156
0.000122387
0.000320896
0.000128748
0.000342581
0.000135541
0.000365074
0.000142782
0.000388219
0.00015048
0.000411829
0.000158637
0.000435608
0.000167252
0.000459166
0.000176313
0.000481999
0.000185794
0.000503454
0.000195655
0.000522694
0.000205837
0.000538663
0.000216251
0.000550038
0.000226784
0.000555179
0.00023727
0.000552083
0.000247522
0.000538312
0.000257278
0.000510968
0.000266216
0.000466657
0.000273955
0.000401404
0.000280046
0.000310506
0.00028399
0.00018795
0.000285072
3.09775e-05
-0.00015527
0.000282609
4.51833e-05
1.8244e-05
-4.48697e-05
4.55171e-05
1.97226e-05
4.58787e-05
2.13225e-05
4.62662e-05
2.30509e-05
4.66858e-05
2.49172e-05
4.71365e-05
2.69319e-05
4.76247e-05
2.91063e-05
4.81501e-05
3.1452e-05
4.87202e-05
3.39723e-05
4.93343e-05
3.67e-05
4.99996e-05
3.96546e-05
5.07156e-05
4.2844e-05
5.14912e-05
4.62862e-05
5.23276e-05
4.9972e-05
5.32354e-05
5.39393e-05
5.42124e-05
5.82578e-05
5.52693e-05
6.2914e-05
5.64119e-05
6.78588e-05
5.76499e-05
7.32199e-05
5.89849e-05
7.90393e-05
6.04344e-05
8.52239e-05
6.20046e-05
9.1894e-05
6.37049e-05
9.9149e-05
6.55529e-05
0.000106804
6.75557e-05
0.000115167
6.97275e-05
0.0001241
7.20835e-05
0.000133682
7.4634e-05
0.000144027
7.73985e-05
0.000155037
8.0387e-05
0.000166934
8.36204e-05
0.000179578
8.71123e-05
0.000193174
9.08832e-05
0.000207639
9.49508e-05
0.00022307
9.93315e-05
0.000239506
0.000104048
0.000256873
0.000109117
0.000275312
0.000114558
0.000294715
0.000120393
0.000315063
0.000126637
0.000336339
0.000133307
0.000358406
0.000140416
0.000381111
0.000147974
0.000404272
0.000155985
0.000427598
0.000164445
0.000450707
0.000173343
0.000473102
0.000182655
0.000494142
0.00019234
0.000513008
0.000202341
0.000528662
0.000212569
0.000539806
0.000222914
0.000544833
0.000233214
0.000541775
0.000243283
0.00052824
0.000252866
0.000501384
0.000261647
0.000457877
0.000269252
0.000393797
0.000275238
0.000304512
0.000279099
0.00018406
0.000280119
2.98937e-05
-0.000152859
0.000277647
4.47278e-05
1.79408e-05
-4.44228e-05
4.5053e-05
1.93965e-05
4.54058e-05
2.09711e-05
4.57841e-05
2.26721e-05
4.61941e-05
2.45084e-05
4.66349e-05
2.64906e-05
4.71127e-05
2.86296e-05
4.76272e-05
3.09368e-05
4.81859e-05
3.34147e-05
4.87879e-05
3.60969e-05
4.94406e-05
3.90029e-05
5.01433e-05
4.21399e-05
5.09052e-05
4.55256e-05
5.1727e-05
4.91487e-05
5.26196e-05
5.30481e-05
5.35805e-05
5.72956e-05
5.46203e-05
6.18755e-05
5.57443e-05
6.6734e-05
5.69616e-05
7.20038e-05
5.82735e-05
7.77269e-05
5.96963e-05
8.38023e-05
6.12359e-05
9.03542e-05
6.29015e-05
9.74845e-05
6.47104e-05
0.000104995
6.66698e-05
0.000113208
6.87941e-05
0.000121976
7.10985e-05
0.000131379
7.35936e-05
0.000141533
7.62988e-05
0.000152333
7.92243e-05
0.000164009
8.23906e-05
0.000176412
8.58111e-05
0.000189754
8.95067e-05
0.000203945
9.34939e-05
0.000219085
9.77894e-05
0.000235212
0.000102415
0.000252248
0.000107388
0.000270341
0.000112727
0.000289377
0.000118454
0.000309339
0.000124582
0.000330212
0.00013113
0.000351861
0.000138109
0.000374134
0.00014553
0.000396855
0.000153396
0.000419736
0.000161704
0.000442402
0.000170443
0.000464368
0.000179589
0.000485002
0.000189101
0.000503501
0.000198923
0.000518847
0.000208968
0.000529767
0.000219129
0.000534682
0.000229244
0.000531663
0.000239132
0.000518364
0.000248544
0.000491994
0.00025717
0.000449281
0.000264641
0.000386366
0.000270521
0.000298689
0.000274297
0.000180368
0.000275272
2.90721e-05
-0.000150272
0.000272804
4.42622e-05
1.76459e-05
-4.39644e-05
4.45794e-05
1.90789e-05
4.49235e-05
2.06286e-05
4.5293e-05
2.23025e-05
4.56935e-05
2.41093e-05
4.61246e-05
2.60593e-05
4.6592e-05
2.81633e-05
4.70959e-05
3.04325e-05
4.7643e-05
3.28685e-05
4.82334e-05
3.55058e-05
4.88735e-05
3.83638e-05
4.95635e-05
4.1449e-05
5.03115e-05
4.47787e-05
5.11193e-05
4.83399e-05
5.19967e-05
5.21719e-05
5.29422e-05
5.63491e-05
5.39656e-05
6.08534e-05
5.50724e-05
6.56265e-05
5.62711e-05
7.08063e-05
5.75626e-05
7.6435e-05
5.89624e-05
8.24037e-05
6.04759e-05
8.88405e-05
6.21116e-05
9.58499e-05
6.38863e-05
0.00010322
6.5807e-05
0.000111289
6.78881e-05
0.000119896
7.01448e-05
0.000129123
7.25877e-05
0.00013909
7.52365e-05
0.000149685
7.81012e-05
0.000161145
8.12024e-05
0.000173311
8.45535e-05
0.000186403
8.81747e-05
0.000200325
9.20831e-05
0.000215179
9.62947e-05
0.000231002
0.000100831
0.000247713
0.000105709
0.000265464
0.000110948
0.00028414
0.000116567
0.000303721
0.000122582
0.000324198
0.000129009
0.000345436
0.000135861
0.000367284
0.000143147
0.00038957
0.000150871
0.000412014
0.000159029
0.000434245
0.000167611
0.000455786
0.000176592
0.00047602
0.000185934
0.000494158
0.00019558
0.0005092
0.000205445
0.000519897
0.000215424
0.000524701
0.000225356
0.000521719
0.000235067
0.000508648
0.00024431
0.000482747
0.000252782
0.000440806
0.00026012
0.00037902
0.000265892
0.0002929
0.000269585
0.000176633
0.000270523
2.80489e-05
-0.000147896
0.000268066
4.37783e-05
1.73584e-05
-4.34887e-05
4.40877e-05
1.87689e-05
4.44237e-05
2.02939e-05
4.47849e-05
2.19409e-05
4.51767e-05
2.37186e-05
4.55988e-05
2.56369e-05
4.60566e-05
2.77065e-05
4.65504e-05
2.99382e-05
4.70869e-05
3.23329e-05
4.76659e-05
3.49258e-05
4.82941e-05
3.77365e-05
4.89713e-05
4.07705e-05
4.9706e-05
4.4045e-05
5.04996e-05
4.7545e-05
5.13622e-05
5.13104e-05
5.22922e-05
5.5418e-05
5.32995e-05
5.98473e-05
5.43894e-05
6.45357e-05
5.55704e-05
6.96265e-05
5.68431e-05
7.51618e-05
5.82223e-05
8.10256e-05
5.97129e-05
8.73498e-05
6.13225e-05
9.42412e-05
6.30674e-05
0.000101476
6.49541e-05
0.000109403
6.69967e-05
0.000117854
6.92102e-05
0.00012691
7.16053e-05
0.000136696
7.42013e-05
0.000147089
7.70087e-05
0.000158338
8.00478e-05
0.000170272
8.3332e-05
0.000183119
8.68816e-05
0.000196777
9.0713e-05
0.000211349
9.48428e-05
0.000226874
9.92922e-05
0.000243264
0.000104077
0.000260681
0.000109217
0.000279001
0.000114731
0.000298209
0.000120634
0.000318297
0.000126943
0.00033913
0.000133669
0.000360559
0.000140822
0.00038242
0.000148406
0.000404433
0.000156417
0.000426237
0.000164844
0.000447363
0.000173664
0.000467205
0.000182837
0.000484989
0.00019231
0.000499733
0.000201997
0.000510214
0.000211796
0.000514911
0.000221549
0.000511967
0.000231084
0.000499124
0.00024016
0.000473689
0.00024848
0.000432513
0.000255686
0.00037185
0.00026135
0.000287285
0.000264961
0.000173095
0.000265867
2.72779e-05
-0.000145347
0.00026342
4.32751e-05
1.70778e-05
-4.29921e-05
4.35775e-05
1.84661e-05
4.39061e-05
1.99667e-05
4.42596e-05
2.15872e-05
4.46433e-05
2.33361e-05
4.50568e-05
2.52232e-05
4.55054e-05
2.72588e-05
4.59896e-05
2.94536e-05
4.65157e-05
3.18076e-05
4.70839e-05
3.4357e-05
4.77003e-05
3.7121e-05
4.83654e-05
4.01046e-05
4.90868e-05
4.33245e-05
4.98667e-05
4.67641e-05
5.07144e-05
5.04639e-05
5.16289e-05
5.45026e-05
5.26198e-05
5.88576e-05
5.36928e-05
6.34621e-05
5.48559e-05
6.84645e-05
5.61103e-05
7.39071e-05
5.74697e-05
7.96671e-05
5.89391e-05
8.58803e-05
6.05252e-05
9.2656e-05
6.22437e-05
9.97573e-05
6.41003e-05
0.000107547
6.61087e-05
0.000115846
6.82835e-05
0.000124736
7.06351e-05
0.000134345
7.31828e-05
0.000144542
7.59368e-05
0.000155585
7.89175e-05
0.000167291
8.21384e-05
0.000179899
8.56191e-05
0.000193297
8.93768e-05
0.000207593
9.34271e-05
0.000222825
9.77916e-05
0.000238901
0.000102486
0.000255988
0.000107529
0.000273959
0.00011294
0.000292799
0.000118734
0.000312504
0.000124926
0.000332939
0.000131529
0.000353958
0.000138551
0.000375398
0.000145997
0.000396988
0.000153863
0.000418371
0.000162138
0.000439088
0.000170798
0.000458544
0.000179807
0.000475978
0.000189108
0.00049043
0.000198621
0.000500695
0.000208242
0.000505286
0.000217818
0.000502378
0.00022718
0.000489754
0.000236091
0.000464771
0.00024426
0.000424337
0.000251335
0.000364762
0.000256893
0.000281703
0.000260423
0.000169511
0.000261297
2.62983e-05
-0.00014301
0.000258861
4.27518e-05
1.6803e-05
-4.24755e-05
4.30479e-05
1.81692e-05
4.33699e-05
1.96458e-05
4.37166e-05
2.12402e-05
4.40929e-05
2.29608e-05
4.44986e-05
2.48171e-05
4.49389e-05
2.68194e-05
4.5414e-05
2.89779e-05
4.59305e-05
3.1292e-05
4.64881e-05
3.37985e-05
4.70933e-05
3.65166e-05
4.77461e-05
3.94506e-05
4.84547e-05
4.26169e-05
4.92205e-05
4.5997e-05
5.00535e-05
4.9632e-05
5.09523e-05
5.36027e-05
5.19266e-05
5.78843e-05
5.29822e-05
6.24058e-05
5.41272e-05
6.73205e-05
5.53628e-05
7.26713e-05
5.67026e-05
7.83283e-05
5.81512e-05
8.44316e-05
5.97151e-05
9.10931e-05
6.1409e-05
9.80635e-05
6.32383e-05
0.000105718
6.52159e-05
0.000113868
6.73557e-05
0.000122597
6.96679e-05
0.000132033
7.21713e-05
0.000142039
7.48762e-05
0.00015288
7.78024e-05
0.000164365
8.09635e-05
0.000176738
8.43794e-05
0.000189883
8.80662e-05
0.000203908
9.20405e-05
0.000218852
9.63229e-05
0.00023462
0.000100929
0.000251383
0.000105878
0.000269011
0.000111189
0.00028749
0.000116875
0.000306819
0.000122954
0.000326863
0.000129436
0.000347478
0.00013633
0.000368506
0.00014364
0.000389681
0.000151363
0.000410651
0.000159488
0.000430966
0.000167992
0.000450043
0.000176837
0.000467136
0.00018597
0.000481301
0.00019531
0.000491358
0.000204757
0.000495846
0.000214159
0.000492976
0.00022335
0.000480571
0.000232099
0.000456039
0.000240119
0.000416342
0.000247064
0.00035785
0.000252516
0.000276297
0.000255968
0.000166125
0.00025681
2.55736e-05
-0.00014049
0.000254381
4.22124e-05
1.6534e-05
-4.19407e-05
4.25031e-05
1.78784e-05
4.2819e-05
1.93313e-05
4.31593e-05
2.09e-05
4.35285e-05
2.25927e-05
4.39267e-05
2.44189e-05
4.43586e-05
2.63884e-05
4.4825e-05
2.85113e-05
4.53317e-05
3.0786e-05
4.58793e-05
3.32504e-05
4.64732e-05
3.59235e-05
4.71144e-05
3.88086e-05
4.781e-05
4.19222e-05
4.85623e-05
4.52438e-05
4.93803e-05
4.88149e-05
5.02636e-05
5.27187e-05
5.1221e-05
5.69278e-05
5.2259e-05
6.13673e-05
5.33853e-05
6.61952e-05
5.46016e-05
7.14547e-05