/*--------------------------------*- C++ -*----------------------------------*\
  =========                 |
  \\      /  F ield         | OpenFOAM: The Open Source CFD Toolbox
   \\    /   O peration     | Website:  https://openfoam.org
    \\  /    A nd           | Version:  6.0
     \\/     M anipulation  |
\*---------------------------------------------------------------------------*/
FoamFile
{
    version     2.0;
    format      ascii;
    class       volVectorField;
    location    "17";
    object      U;
}
// * * * * * * * * * * * * * * * * * * * * * * * * * * * * * * * * * * * * * //

dimensions      [0 1 -1 0 0 0 0];

internalField   nonuniform List<vector> 
62000
(
(0.98475 -0.173662 -2.71123e-21)
(0.984744 -0.173666 2.25865e-21)
(0.984738 -0.17368 2.29331e-21)
(0.984734 -0.173701 -9.98875e-21)
(0.984729 -0.173726 -1.12741e-20)
(0.984726 -0.173751 3.90257e-20)
(0.984722 -0.173775 -4.259e-20)
(0.98472 -0.173797 2.46668e-20)
(0.984717 -0.173817 -1.13959e-20)
(0.984716 -0.173835 -5.75558e-20)
(0.984715 -0.17385 -6.68469e-21)
(0.984715 -0.173864 7.98072e-20)
(0.984716 -0.173875 1.58535e-20)
(0.984716 -0.173886 -5.55252e-20)
(0.984717 -0.173896 8.55162e-20)
(0.984718 -0.173905 -4.5263e-20)
(0.984718 -0.173913 4.54283e-20)
(0.984718 -0.17392 -5.33679e-20)
(0.984718 -0.173926 2.55173e-20)
(0.984717 -0.173932 -7.73286e-20)
(0.984717 -0.173936 9.99163e-20)
(0.984716 -0.173939 2.76907e-20)
(0.984715 -0.173942 3.84146e-20)
(0.984714 -0.173944 -1.80056e-19)
(0.984713 -0.173944 6.48822e-20)
(0.984711 -0.173944 -3.7552e-20)
(0.98471 -0.173943 1.07352e-21)
(0.984708 -0.173941 -2.69385e-20)
(0.984707 -0.173939 8.78235e-20)
(0.984705 -0.173936 -4.49322e-20)
(0.984704 -0.173932 1.04836e-19)
(0.984702 -0.173928 -2.07158e-19)
(0.984701 -0.173925 2.09935e-20)
(0.984701 -0.173924 -5.71397e-20)
(0.984702 -0.173923 -1.45089e-20)
(0.984705 -0.173924 -5.36527e-20)
(0.98471 -0.173925 -6.16953e-21)
(0.984719 -0.173927 -5.42539e-21)
(0.984733 -0.17393 4.33172e-20)
(0.984754 -0.173932 1.49141e-19)
(0.984784 -0.173933 -2.85096e-20)
(0.984826 -0.173928 -1.21856e-19)
(0.984883 -0.173916 -1.1419e-19)
(0.98496 -0.173891 1.65612e-20)
(0.98506 -0.173846 -1.48344e-20)
(0.985188 -0.173772 1.24926e-19)
(0.985351 -0.17366 -2.06789e-20)
(0.985551 -0.173494 1.1993e-19)
(0.985793 -0.173258 7.37082e-19)
(0.986079 -0.17293 2.613e-19)
(0.986407 -0.172485 1.70798e-19)
(0.986776 -0.171887 2.09676e-18)
(0.987179 -0.171092 -6.00999e-19)
(0.987608 -0.170029 -3.0439e-18)
(0.988059 -0.168575 -7.69518e-19)
(0.988524 -0.16652 -3.31735e-18)
(0.988869 -0.16338 2.62391e-19)
(0.990255 -0.158586 2.95686e-19)
(0.986552 -0.145418 -1.55253e-18)
(1.02493 -0.107515 -2.19444e-19)
(0.984753 -0.173736 -7.31178e-22)
(0.984743 -0.173729 6.96823e-21)
(0.984741 -0.173718 2.84152e-21)
(0.984742 -0.17372 -1.23078e-20)
(0.98474 -0.173736 5.07736e-21)
(0.984738 -0.173762 -3.46866e-20)
(0.984735 -0.173791 3.17496e-20)
(0.98473 -0.173823 1.80885e-20)
(0.984726 -0.173856 -3.36991e-20)
(0.98472 -0.17389 1.58695e-21)
(0.984715 -0.173924 3.20312e-20)
(0.984711 -0.173956 -1.08314e-22)
(0.984708 -0.173985 8.81063e-21)
(0.984706 -0.174012 -7.63767e-20)
(0.984706 -0.174035 1.51454e-19)
(0.984706 -0.174058 -1.32853e-19)
(0.984706 -0.17408 6.13401e-20)
(0.984705 -0.174101 -1.29502e-20)
(0.984704 -0.174121 -3.40298e-20)
(0.984703 -0.174141 9.19824e-20)
(0.984702 -0.17416 -1.43461e-19)
(0.9847 -0.174179 8.20825e-20)
(0.984698 -0.174197 -1.00964e-19)
(0.984695 -0.174215 6.0277e-20)
(0.984692 -0.174233 5.31133e-20)
(0.984689 -0.174252 -3.45202e-20)
(0.984685 -0.17427 8.8468e-22)
(0.98468 -0.174289 3.747e-20)
(0.984675 -0.174309 2.974e-20)
(0.98467 -0.17433 -5.59357e-20)
(0.984664 -0.174352 1.11411e-19)
(0.984657 -0.174377 1.99695e-20)
(0.984651 -0.174405 5.82114e-20)
(0.984644 -0.174436 3.47541e-21)
(0.98464 -0.174472 1.21071e-20)
(0.98464 -0.17451 -1.77866e-20)
(0.984645 -0.17455 -4.90392e-20)
(0.984657 -0.174591 -2.59049e-20)
(0.984678 -0.174631 -1.01934e-19)
(0.984712 -0.174669 -9.78375e-20)
(0.984764 -0.1747 6.39637e-20)
(0.984837 -0.17472 4.12254e-20)
(0.984939 -0.17472 1.05972e-19)
(0.985075 -0.174693 -9.07648e-21)
(0.985254 -0.174626 1.33373e-19)
(0.985483 -0.174504 -1.13395e-19)
(0.985769 -0.17431 -1.5112e-19)
(0.986119 -0.17402 -2.71322e-19)
(0.986536 -0.173608 -3.58311e-20)
(0.987019 -0.173043 6.91359e-21)
(0.987564 -0.17229 -8.62252e-19)
(0.988162 -0.171303 -2.71478e-18)
(0.988792 -0.170021 2.08434e-18)
(0.989435 -0.168362 5.86178e-18)
(0.990066 -0.166174 1.5999e-18)
(0.99066 -0.163234 1.07309e-18)
(0.990905 -0.159149 3.1989e-18)
(0.991971 -0.153906 1.6531e-18)
(0.993258 -0.141636 -3.49686e-18)
(0.990223 -0.135254 -1.00438e-18)
(0.984761 -0.174475 -3.56546e-21)
(0.984762 -0.174467 -4.89342e-22)
(0.984776 -0.174429 5.66326e-22)
(0.984792 -0.174401 2.50256e-21)
(0.984803 -0.174388 6.99044e-21)
(0.984811 -0.174387 -6.6208e-21)
(0.984818 -0.174392 3.4792e-20)
(0.984822 -0.174402 -1.67181e-20)
(0.984825 -0.174416 -8.88244e-21)
(0.984824 -0.174435 -5.32133e-20)
(0.984822 -0.174462 4.47746e-20)
(0.984818 -0.174493 3.21662e-21)
(0.984815 -0.174524 -9.9031e-21)
(0.984813 -0.174551 2.59627e-20)
(0.984812 -0.174574 -4.39172e-20)
(0.984813 -0.174593 5.36772e-22)
(0.984814 -0.17461 -1.91905e-20)
(0.984816 -0.174626 9.60138e-22)
(0.984817 -0.174642 4.40139e-20)
(0.984819 -0.17466 -6.53625e-20)
(0.98482 -0.174677 4.04593e-20)
(0.984821 -0.174696 1.50649e-19)
(0.984822 -0.174715 -2.31746e-20)
(0.984823 -0.174737 -2.02086e-19)
(0.984825 -0.17476 1.02805e-19)
(0.984826 -0.174785 -5.15565e-20)
(0.984827 -0.174813 8.33725e-20)
(0.984829 -0.174843 -5.13017e-20)
(0.984831 -0.174875 -9.44106e-20)
(0.984833 -0.174911 9.30307e-20)
(0.984834 -0.174949 -6.42978e-20)
(0.984836 -0.174992 8.33247e-20)
(0.984837 -0.175039 -2.13066e-19)
(0.984838 -0.17509 1.80794e-19)
(0.984841 -0.175146 -9.07037e-20)
(0.98485 -0.175205 3.93525e-20)
(0.984863 -0.175265 2.51448e-20)
(0.984882 -0.175323 8.18955e-21)
(0.984909 -0.175379 1.5547e-20)
(0.984948 -0.17543 9.13923e-20)
(0.985004 -0.175473 -3.04768e-20)
(0.985079 -0.1755 4.1479e-20)
(0.98518 -0.175505 -5.44494e-20)
(0.985312 -0.17548 3.68878e-21)
(0.985483 -0.175411 -2.17979e-21)
(0.985699 -0.175285 2.77749e-19)
(0.985968 -0.175083 -3.91338e-20)
(0.986294 -0.174785 4.80348e-19)
(0.98668 -0.174366 -8.39498e-19)
(0.987123 -0.173801 -2.62621e-19)
(0.987616 -0.173061 -1.93881e-19)
(0.988148 -0.172111 2.76256e-20)
(0.988696 -0.170907 -9.87769e-19)
(0.98924 -0.169388 4.70326e-20)
(0.989763 -0.167424 2.64366e-18)
(0.990271 -0.164815 1.48646e-18)
(0.990443 -0.161301 1.64918e-18)
(0.991485 -0.156753 4.9337e-18)
(0.992235 -0.147141 -3.13991e-19)
(1.00058 -0.134325 -6.54788e-19)
(0.98475 -0.175326 -3.58575e-21)
(0.984759 -0.175312 1.09209e-20)
(0.984783 -0.175258 -1.68735e-21)
(0.98481 -0.175211 -1.1091e-20)
(0.984832 -0.175177 1.65555e-20)
(0.98485 -0.175156 2.81017e-20)
(0.984867 -0.175146 -3.66369e-20)
(0.984882 -0.17514 3.89309e-21)
(0.984896 -0.175135 1.22094e-20)
(0.984907 -0.175136 2.49328e-20)
(0.984914 -0.175149 -4.6207e-20)
(0.984917 -0.175176 -1.37422e-20)
(0.984918 -0.175211 -1.49228e-20)
(0.984919 -0.175247 6.85253e-20)
(0.984921 -0.175278 -4.49692e-20)
(0.984924 -0.175303 1.02011e-19)
(0.984928 -0.175321 -1.2236e-19)
(0.984933 -0.175338 -1.65655e-20)
(0.984937 -0.175353 1.22719e-19)
(0.984942 -0.175369 -4.2715e-20)
(0.984947 -0.175386 -1.52427e-20)
(0.984952 -0.175406 -1.55446e-20)
(0.984958 -0.175426 -1.34933e-19)
(0.984964 -0.175449 7.97231e-20)
(0.984971 -0.175475 -3.15249e-20)
(0.984979 -0.175503 5.37737e-20)
(0.984988 -0.175534 2.33444e-20)
(0.984998 -0.175568 1.0971e-19)
(0.98501 -0.175605 -6.88163e-20)
(0.985022 -0.175645 -8.32993e-20)
(0.985036 -0.175688 1.20265e-19)
(0.985051 -0.175736 -9.61e-20)
(0.985066 -0.175787 1.64127e-19)
(0.985082 -0.175844 -8.82701e-20)
(0.985101 -0.175904 3.96618e-20)
(0.985125 -0.175965 5.88878e-20)
(0.985154 -0.176025 -1.77857e-20)
(0.985188 -0.176081 1.33027e-20)
(0.98523 -0.176133 -8.05767e-21)
(0.985282 -0.176178 7.14058e-21)
(0.985349 -0.17621 -4.9766e-20)
(0.985433 -0.176226 1.23948e-20)
(0.98554 -0.176217 1.13837e-20)
(0.985676 -0.176174 -3.67383e-20)
(0.985847 -0.176086 -3.7168e-20)
(0.98606 -0.175937 2.8965e-20)
(0.986322 -0.17571 -3.15902e-19)
(0.98664 -0.175382 -4.29136e-19)
(0.987017 -0.174929 -7.0427e-19)
(0.987452 -0.174323 5.76603e-19)
(0.987938 -0.173536 8.53237e-19)
(0.988468 -0.172533 -7.41948e-19)
(0.989019 -0.171266 -1.18294e-18)
(0.989579 -0.169673 -2.62904e-18)
(0.990132 -0.167616 -1.78245e-18)
(0.99072 -0.164857 -3.98556e-18)
(0.991065 -0.161121 -7.56638e-18)
(0.992239 -0.156163 1.39074e-18)
(0.994188 -0.145703 6.04579e-18)
(0.996235 -0.132811 3.36133e-18)
(0.98473 -0.176069 7.00559e-21)
(0.984739 -0.176044 -2.3466e-21)
(0.984768 -0.175981 3.84798e-21)
(0.984802 -0.17592 -5.44956e-21)
(0.98483 -0.17587 1.19904e-20)
(0.984853 -0.175836 -5.97749e-21)
(0.984874 -0.175819 3.04299e-21)
(0.984894 -0.175809 -4.57847e-20)
(0.984914 -0.175796 3.80155e-20)
(0.984934 -0.175784 -7.3955e-20)
(0.984951 -0.175783 8.07731e-20)
(0.984963 -0.1758 -9.68744e-21)
(0.984973 -0.175837 -2.04982e-20)
(0.98498 -0.175884 -8.86038e-21)
(0.984987 -0.17593 -1.59295e-21)
(0.984995 -0.175969 -8.76925e-20)
(0.985003 -0.175999 6.13781e-21)
(0.985013 -0.176023 9.32648e-20)
(0.985023 -0.176045 -2.88222e-20)
(0.985033 -0.176066 -2.88219e-20)
(0.985044 -0.176088 4.97747e-20)
(0.985055 -0.176114 -2.27541e-20)
(0.985068 -0.17614 9.50604e-20)
(0.985081 -0.17617 4.75365e-20)
(0.985096 -0.176202 3.29146e-20)
(0.985113 -0.176236 -1.1314e-19)
(0.985131 -0.176272 -1.52231e-20)
(0.985152 -0.176311 -7.80015e-20)
(0.985176 -0.176353 1.593e-20)
(0.985201 -0.176396 -2.1574e-20)
(0.985229 -0.176442 -7.39393e-21)
(0.98526 -0.176491 6.31415e-20)
(0.985293 -0.176544 -1.59983e-19)
(0.985328 -0.176599 -4.62122e-21)
(0.985367 -0.176657 -6.80174e-20)
(0.985412 -0.176714 -3.23313e-20)
(0.985462 -0.176767 1.16906e-20)
(0.985519 -0.176815 -6.5747e-20)
(0.985583 -0.176855 7.61785e-20)
(0.985659 -0.176885 -5.97567e-21)
(0.985748 -0.176899 4.45766e-20)
(0.985855 -0.176893 5.7691e-21)
(0.985983 -0.176859 1.91247e-20)
(0.986138 -0.176788 -2.82379e-20)
(0.986327 -0.176668 -7.49171e-20)
(0.986557 -0.176483 -1.37848e-19)
(0.986835 -0.176214 -1.24966e-19)
(0.98717 -0.175838 -1.9766e-19)
(0.987567 -0.175327 1.2359e-19)
(0.988027 -0.174651 -1.60343e-18)
(0.988547 -0.173777 -4.95607e-19)
(0.98912 -0.172663 4.522e-19)
(0.989727 -0.171252 -4.40039e-19)
(0.990357 -0.169476 -2.44405e-18)
(0.990988 -0.167197 3.10417e-19)
(0.991654 -0.16417 3.0423e-18)
(0.992121 -0.16017 8.68986e-18)
(0.993249 -0.155088 -9.00805e-18)
(0.995062 -0.14525 7.41696e-18)
(0.99723 -0.13335 -4.18687e-18)
(0.984716 -0.176703 -2.68786e-21)
(0.984731 -0.176675 1.07859e-20)
(0.984768 -0.176612 -1.76509e-20)
(0.984807 -0.176544 1.30906e-20)
(0.984836 -0.176479 8.36588e-21)
(0.984855 -0.176432 -8.86926e-21)
(0.98487 -0.176409 7.04957e-22)
(0.984883 -0.176399 -6.4521e-21)
(0.984898 -0.176388 -2.12419e-20)
(0.984915 -0.176371 4.04374e-20)
(0.984934 -0.176358 -6.13541e-20)
(0.984951 -0.176366 5.31209e-20)
(0.984967 -0.1764 4.50732e-20)
(0.984981 -0.176456 -6.93244e-20)
(0.984995 -0.17652 -2.13913e-20)
(0.98501 -0.176579 8.03739e-20)
(0.985025 -0.176628 -9.46381e-20)
(0.985042 -0.176667 1.26897e-19)
(0.985059 -0.176699 -2.51975e-20)
(0.985078 -0.176729 1.13758e-20)
(0.985097 -0.176759 -2.18621e-20)
(0.985117 -0.176792 -2.56658e-20)
(0.98514 -0.176828 -4.40647e-20)
(0.985164 -0.176866 7.29856e-20)
(0.98519 -0.176906 -4.97245e-20)
(0.985219 -0.176948 -4.42425e-20)
(0.985251 -0.176992 8.94629e-20)
(0.985286 -0.177038 -7.79075e-20)
(0.985325 -0.177085 1.20938e-19)
(0.985367 -0.177132 -6.34821e-20)
(0.985413 -0.177181 4.26501e-20)
(0.985463 -0.177231 -6.53969e-20)
(0.985517 -0.177283 6.48578e-20)
(0.985575 -0.177337 -7.75233e-21)
(0.985638 -0.17739 -4.34677e-21)
(0.985708 -0.177441 -1.69997e-21)
(0.985784 -0.177485 -1.22051e-20)
(0.985868 -0.177521 4.99742e-20)
(0.985962 -0.177546 -3.99954e-20)
(0.986066 -0.177558 -9.51003e-20)
(0.986184 -0.177552 -8.33985e-21)
(0.986319 -0.177521 6.0274e-21)
(0.986474 -0.177458 6.96386e-20)
(0.986653 -0.177355 5.3717e-20)
(0.986861 -0.1772 1.75972e-20)
(0.987106 -0.176979 -3.34001e-19)
(0.987394 -0.176674 6.10474e-19)
(0.987732 -0.176262 7.30435e-19)
(0.988127 -0.175717 5.20163e-19)
(0.988582 -0.175007 1.16486e-18)
(0.989099 -0.174099 -9.95488e-19)
(0.989671 -0.172947 3.62605e-19)
(0.990284 -0.171491 3.7416e-18)
(0.99093 -0.169661 -9.80716e-19)
(0.991586 -0.167323 -1.32057e-18)
(0.992272 -0.164244 3.13454e-18)
(0.992802 -0.160257 -2.18578e-18)
(0.993936 -0.155322 -3.02505e-18)
(0.995562 -0.146043 -1.19647e-17)
(0.997929 -0.132605 -9.20406e-20)
(0.984766 -0.177234 3.19612e-21)
(0.984792 -0.177204 -1.43183e-20)
(0.984833 -0.177147 6.95921e-21)
(0.984865 -0.17708 1.28216e-20)
(0.984879 -0.177007 -2.72537e-20)
(0.984881 -0.176949 2.26662e-20)
(0.984877 -0.176919 -1.48791e-20)
(0.98487 -0.176911 1.24873e-20)
(0.984865 -0.176905 1.94334e-20)
(0.984865 -0.17689 -4.62718e-20)
(0.98487 -0.176872 6.55656e-20)
(0.98488 -0.176872 2.64526e-20)
(0.984893 -0.176903 -1.06788e-19)
(0.984909 -0.176966 -1.85119e-20)
(0.984928 -0.177048 5.45048e-20)
(0.984949 -0.177133 3.33106e-20)
(0.984973 -0.177209 -4.02258e-20)
(0.984999 -0.177272 3.36512e-20)
(0.985027 -0.177324 4.94873e-20)
(0.985056 -0.177371 -2.56916e-20)
(0.985087 -0.177416 -1.417e-20)
(0.985119 -0.177461 4.48875e-20)
(0.985153 -0.177508 8.73202e-20)
(0.98519 -0.177558 -6.69819e-20)
(0.98523 -0.177608 -6.71833e-20)
(0.985273 -0.17766 6.9652e-20)
(0.98532 -0.177713 -5.32742e-20)
(0.985371 -0.177767 -1.82542e-20)
(0.985427 -0.17782 1.53753e-19)
(0.985487 -0.177872 -6.36742e-20)
(0.985552 -0.177924 -4.1079e-20)
(0.985623 -0.177976 5.94141e-20)
(0.985699 -0.178028 3.59138e-20)
(0.985781 -0.178079 -2.60285e-20)
(0.985869 -0.178129 -1.61355e-20)
(0.985965 -0.178172 4.18804e-20)
(0.986069 -0.178206 1.18521e-20)
(0.986183 -0.17823 9.79645e-21)
(0.986308 -0.17824 -2.74591e-20)
(0.986445 -0.178233 1.27132e-20)
(0.986596 -0.178203 3.99673e-21)
(0.986764 -0.178145 -4.28558e-20)
(0.986951 -0.17805 -1.20554e-19)
(0.98716 -0.177912 1.79105e-19)
(0.987394 -0.177718 2.77451e-19)
(0.987659 -0.177458 1.86323e-19)
(0.987959 -0.177114 -6.36302e-19)
(0.9883 -0.176668 -7.87982e-19)
(0.988688 -0.176096 1.0077e-18)
(0.989127 -0.175369 1.83906e-18)
(0.989622 -0.174453 2.36076e-19)
(0.990172 -0.173303 -5.0493e-19)
(0.990768 -0.171853 1.35361e-20)
(0.991411 -0.170027 1.56072e-18)
(0.99209 -0.167686 -1.68806e-18)
(0.992819 -0.164576 -1.00657e-18)
(0.993466 -0.160517 -1.67078e-18)
(0.994789 -0.155429 9.24631e-18)
(0.996511 -0.145719 6.12852e-19)
(0.998425 -0.131399 -3.44494e-19)
(0.98492 -0.177692 -5.41713e-21)
(0.984943 -0.177668 -4.27865e-21)
(0.984967 -0.177626 5.82157e-21)
(0.984973 -0.177573 2.03152e-20)
(0.984956 -0.177508 -4.33858e-20)
(0.984928 -0.177447 4.91527e-20)
(0.984896 -0.177414 -2.36086e-21)
(0.984863 -0.177407 -3.15122e-21)
(0.984832 -0.177406 -1.68755e-20)
(0.984805 -0.177394 3.98665e-20)
(0.984787 -0.177374 -6.0775e-20)
(0.984779 -0.177364 2.26367e-20)
(0.984778 -0.177386 -6.67274e-22)
(0.984786 -0.177447 3.32977e-20)
(0.984802 -0.177538 1.48082e-20)
(0.984825 -0.177643 -8.0343e-20)
(0.984855 -0.177745 6.80833e-20)
(0.98489 -0.177836 2.50715e-20)
(0.98493 -0.177915 -7.19483e-20)
(0.984973 -0.177985 3.4705e-20)
(0.985017 -0.17805 1.47493e-20)
(0.985064 -0.178114 -1.09696e-20)
(0.985113 -0.178178 1.02741e-20)
(0.985164 -0.178243 -7.87295e-21)
(0.985218 -0.178308 -7.20814e-20)
(0.985277 -0.178373 4.43498e-20)
(0.985339 -0.178437 -6.35092e-20)
(0.985406 -0.1785 1.10848e-19)
(0.985478 -0.178562 -2.37407e-20)
(0.985555 -0.178621 -1.21527e-20)
(0.985638 -0.178677 -4.27625e-21)
(0.985727 -0.178732 8.04232e-20)
(0.985823 -0.178785 -3.47651e-20)
(0.985926 -0.178836 -1.50549e-20)
(0.986038 -0.178882 3.39177e-20)
(0.986157 -0.17892 2.04873e-20)
(0.986288 -0.178946 -2.81093e-20)
(0.98643 -0.178959 4.80445e-21)
(0.986586 -0.178955 2.20154e-20)
(0.986758 -0.17893 1.87167e-20)
(0.986946 -0.178878 -2.6806e-20)
(0.987154 -0.178792 5.38156e-20)
(0.987383 -0.178664 -1.26808e-19)
(0.987636 -0.178485 -3.2736e-19)
(0.987915 -0.178246 -7.84834e-20)
(0.988222 -0.177934 2.24823e-19)
(0.988562 -0.177535 8.341e-19)
(0.988938 -0.177032 -2.80465e-19)
(0.989355 -0.176404 -3.15682e-19)
(0.989818 -0.175623 -6.24464e-19)
(0.990331 -0.174656 -1.9824e-20)
(0.990899 -0.173455 2.08864e-18)
(0.991518 -0.171947 -2.06667e-18)
(0.992201 -0.170042 1.58871e-18)
(0.992947 -0.167584 -3.77499e-18)
(0.99377 -0.164289 -9.45461e-19)
(0.994562 -0.159936 -5.21012e-18)
(0.99609 -0.154438 -8.12989e-18)
(0.997922 -0.144234 -2.0113e-18)
(0.998533 -0.130311 -1.93726e-18)
(0.985112 -0.178183 -2.6381e-21)
(0.985103 -0.178168 2.25657e-21)
(0.985089 -0.178146 1.11935e-20)
(0.985056 -0.178119 1.74884e-20)
(0.985004 -0.178074 -5.14621e-20)
(0.984947 -0.178024 2.93211e-20)
(0.984892 -0.177996 -5.14727e-20)
(0.984841 -0.177994 7.96301e-20)
(0.984792 -0.178001 -3.6857e-20)
(0.984748 -0.177994 6.34196e-21)
(0.984712 -0.177972 6.75774e-20)
(0.984685 -0.177951 -1.51778e-19)
(0.984669 -0.177957 1.01579e-19)
(0.984663 -0.178002 1.31657e-20)
(0.984669 -0.178084 2.06675e-20)
(0.984686 -0.17819 -8.87831e-20)
(0.984715 -0.178301 4.23763e-20)
(0.984755 -0.178408 -5.03179e-20)
(0.984805 -0.178504 9.54855e-20)
(0.984861 -0.178592 -1.44937e-20)
(0.984922 -0.178675 -1.13272e-19)
(0.984986 -0.178756 4.40957e-20)
(0.985053 -0.178836 -2.73061e-21)
(0.985122 -0.178917 -1.42102e-19)
(0.985194 -0.178997 1.07272e-19)
(0.98527 -0.179076 7.4158e-20)
(0.985349 -0.179153 4.42179e-20)
(0.985433 -0.179227 -5.83181e-20)
(0.985521 -0.179298 -5.67575e-20)
(0.985615 -0.179364 2.59438e-20)
(0.985714 -0.179427 3.14964e-20)
(0.98582 -0.179486 -3.53799e-20)
(0.985934 -0.179541 -4.20882e-20)
(0.986056 -0.179593 9.28823e-20)
(0.986187 -0.179638 7.8132e-21)
(0.986328 -0.179673 -8.74288e-20)
(0.986481 -0.179693 1.43509e-20)
(0.986649 -0.179697 2.2917e-20)
(0.986835 -0.179682 -5.26237e-21)
(0.98704 -0.179642 -2.83863e-21)
(0.987267 -0.179571 7.72536e-20)
(0.987519 -0.179459 2.81948e-20)
(0.987798 -0.179298 7.44586e-20)
(0.988106 -0.179079 -9.51895e-20)
(0.988446 -0.178789 -2.44701e-19)
(0.988821 -0.178417 -1.01753e-18)
(0.989232 -0.177947 -1.14255e-19)
(0.989682 -0.177364 8.58884e-19)
(0.990174 -0.176644 -8.59233e-19)
(0.990712 -0.175762 -3.31204e-18)
(0.991301 -0.174681 3.04127e-18)
(0.991944 -0.17335 -4.1424e-18)
(0.99264 -0.17169 2.82253e-18)
(0.993407 -0.1696 1.91095e-18)
(0.994247 -0.166914 7.84982e-18)
(0.995161 -0.163336 5.07279e-19)
(0.99604 -0.158646 3.23202e-18)
(0.997631 -0.152848 4.29849e-18)
(0.999434 -0.142596 -4.48252e-18)
(0.998412 -0.129813 -4.64204e-19)
(0.985208 -0.178824 3.67207e-21)
(0.985143 -0.178828 1.26231e-21)
(0.985086 -0.178831 -1.3093e-20)
(0.985022 -0.178836 1.23712e-20)
(0.984949 -0.178821 -5.42986e-21)
(0.984879 -0.178792 9.54853e-21)
(0.984819 -0.178776 3.15209e-21)
(0.984769 -0.178783 -4.63582e-20)
(0.984723 -0.178798 2.01268e-20)
(0.984682 -0.178798 -1.30107e-20)
(0.984646 -0.178777 8.1904e-21)
(0.984617 -0.178747 2.99715e-20)
(0.984597 -0.178734 -5.66355e-21)
(0.984585 -0.178754 1.70972e-20)
(0.984582 -0.178812 -7.08994e-20)
(0.984591 -0.178898 2.74711e-20)
(0.984614 -0.178995 1.15403e-20)
(0.984651 -0.179093 -2.92084e-20)
(0.984703 -0.179185 5.65876e-20)
(0.984767 -0.179271 1.68853e-20)
(0.984841 -0.179354 -2.70209e-21)
(0.984923 -0.179437 -1.78552e-20)
(0.985009 -0.179523 6.74247e-20)
(0.9851 -0.17961 -1.76354e-19)
(0.985194 -0.179697 9.01266e-20)
(0.985291 -0.179784 3.43069e-20)
(0.985392 -0.179869 -5.42403e-20)
(0.985496 -0.179951 8.85489e-20)
(0.985604 -0.180028 -4.47856e-20)
(0.985717 -0.1801 -1.8929e-20)
(0.985836 -0.180166 -3.14244e-20)
(0.98596 -0.180228 -7.5234e-21)
(0.986092 -0.180285 3.13329e-20)
(0.986233 -0.180336 -7.22935e-20)
(0.986384 -0.18038 1.17519e-19)
(0.986546 -0.180412 -9.48425e-21)
(0.986721 -0.180428 2.4355e-20)
(0.986913 -0.180425 -3.28544e-20)
(0.987126 -0.1804 9.94469e-21)
(0.987362 -0.180348 -3.48491e-21)
(0.987626 -0.180261 4.92493e-20)
(0.98792 -0.180128 3.3523e-20)
(0.988248 -0.17994 2.30628e-19)
(0.988613 -0.179684 -1.33726e-19)
(0.98902 -0.179348 -1.70164e-19)
(0.98947 -0.178918 1.00572e-18)
(0.989966 -0.178376 -1.58279e-18)
(0.990509 -0.177705 -2.81463e-19)
(0.991101 -0.176881 -1.75546e-19)
(0.991743 -0.175875 2.39191e-18)
(0.992437 -0.17465 -9.11678e-19)
(0.993185 -0.173152 2.22745e-18)
(0.993981 -0.171299 -5.18152e-18)
(0.994838 -0.168989 -1.07693e-18)
(0.995758 -0.166062 5.77164e-18)
(0.996716 -0.162237 -2.39163e-18)
(0.997591 -0.15734 7.73691e-18)
(0.999106 -0.151507 1.98748e-18)
(1.00078 -0.141553 1.64782e-17)
(0.998291 -0.129906 2.5326e-18)
(0.985094 -0.179712 -8.1195e-22)
(0.984973 -0.179732 -3.16009e-21)
(0.984893 -0.179753 -2.71144e-21)
(0.984823 -0.179785 2.60656e-20)
(0.984754 -0.179799 -1.43849e-20)
(0.984695 -0.179794 -1.69685e-20)
(0.984653 -0.179793 -6.16958e-21)
(0.984625 -0.17981 -2.51667e-20)
(0.984606 -0.179835 1.60568e-20)
(0.98459 -0.179845 2.54793e-21)
(0.984577 -0.179829 1.11013e-21)
(0.984567 -0.179796 6.27058e-20)
(0.984561 -0.179769 -4.38179e-20)
(0.98456 -0.179767 -5.00815e-21)
(0.984563 -0.179797 4.67285e-20)
(0.984572 -0.179853 -2.55099e-20)
(0.98459 -0.179921 -9.09412e-21)
(0.984621 -0.17999 1.47011e-20)
(0.984668 -0.180055 4.38604e-20)
(0.984732 -0.180116 2.12136e-20)
(0.984811 -0.180177 5.0753e-21)
(0.984904 -0.180241 -5.54149e-20)
(0.985007 -0.18031 2.51277e-20)
(0.985118 -0.180385 4.47391e-20)
(0.985235 -0.180463 -9.36401e-20)
(0.985357 -0.180544 2.61123e-20)
(0.985483 -0.180625 -1.02349e-19)
(0.985612 -0.180704 7.79115e-20)
(0.985745 -0.180779 5.73767e-20)
(0.985883 -0.180849 -8.90788e-20)
(0.986026 -0.180913 -3.45673e-20)
(0.986174 -0.180972 4.04059e-20)
(0.986329 -0.181025 1.22014e-20)
(0.986493 -0.181073 -2.28666e-20)
(0.986667 -0.181112 -1.83671e-20)
(0.986852 -0.181138 -1.38446e-20)
(0.987051 -0.181147 1.14014e-20)
(0.987267 -0.181136 5.34875e-21)
(0.987506 -0.181102 4.08689e-21)
(0.987772 -0.181039 1.23479e-20)
(0.988069 -0.180938 -2.06995e-19)
(0.9884 -0.180789 2.30305e-20)
(0.988771 -0.180579 -3.70452e-19)
(0.989187 -0.180295 8.67092e-19)
(0.989652 -0.179923 -1.84939e-19)
(0.990169 -0.179446 -1.46025e-20)
(0.990742 -0.178846 2.70222e-20)
(0.991371 -0.1781 1.42687e-18)
(0.992057 -0.177185 2.56934e-18)
(0.992798 -0.176069 -2.67603e-18)
(0.993593 -0.174713 -4e-18)
(0.994439 -0.173063 -2.4265e-18)
(0.995322 -0.171039 5.12095e-18)
(0.996249 -0.168546 -3.09646e-18)
(0.997213 -0.165441 -8.38949e-18)
(0.998168 -0.161475 -3.94969e-18)
(0.998981 -0.156528 -7.54825e-18)
(1.00037 -0.150842 -4.31469e-18)
(1.00191 -0.141249 -1.55885e-17)
(0.99834 -0.130348 6.89945e-18)
(0.984741 -0.180866 1.04406e-21)
(0.984591 -0.180901 -3.10928e-21)
(0.984521 -0.180932 1.10048e-20)
(0.984477 -0.180983 2.80649e-21)
(0.98444 -0.181018 -1.48467e-20)
(0.984415 -0.181031 -1.68035e-20)
(0.98441 -0.181042 3.94397e-20)
(0.984422 -0.181067 -4.23647e-20)
(0.984444 -0.181098 -9.91811e-21)
(0.984469 -0.181115 2.54892e-20)
(0.984496 -0.181105 2.28286e-20)
(0.984522 -0.181075 6.72408e-20)
(0.984549 -0.181043 -3.85561e-20)
(0.984576 -0.181028 -6.25074e-20)
(0.984602 -0.181038 1.36234e-20)
(0.984626 -0.181067 -4.65964e-20)
(0.984651 -0.181104 3.54921e-20)
(0.984682 -0.18114 -5.38619e-20)
(0.984723 -0.181168 1.08649e-20)
(0.98478 -0.181191 -1.40166e-20)
(0.984856 -0.181211 -6.91511e-21)
(0.984949 -0.181236 -3.7526e-20)
(0.98506 -0.181268 7.51465e-21)
(0.985184 -0.18131 8.07778e-20)
(0.985319 -0.18136 -2.49368e-20)
(0.985463 -0.181416 9.15355e-21)
(0.985614 -0.181476 2.1426e-20)
(0.985771 -0.181537 -2.24742e-20)
(0.985933 -0.181597 -3.45168e-21)
(0.986099 -0.181653 2.45341e-20)
(0.98627 -0.181705 2.58315e-20)
(0.986448 -0.181752 -1.77337e-20)
(0.986632 -0.181794 -4.21142e-20)
(0.986824 -0.18183 -4.0692e-20)
(0.987026 -0.181858 5.62826e-20)
(0.987239 -0.181873 9.6553e-21)
(0.987465 -0.18187 6.31457e-21)
(0.98771 -0.181847 -2.98807e-20)
(0.987977 -0.181802 3.88451e-20)
(0.988272 -0.181727 -3.73704e-20)
(0.988599 -0.181612 -1.8433e-20)
(0.988963 -0.181448 6.08187e-21)
(0.989369 -0.181222 1.41132e-19)
(0.989825 -0.180918 -4.14205e-19)
(0.990334 -0.180522 7.00567e-19)
(0.990903 -0.180014 -5.26673e-19)
(0.991532 -0.179374 1.65424e-18)
(0.992226 -0.178579 -4.58591e-19)
(0.992982 -0.177601 -1.37329e-18)
(0.993798 -0.176408 2.75601e-18)
(0.994669 -0.174959 6.87879e-19)
(0.995585 -0.173202 1.38406e-19)
(0.996528 -0.171062 1.01033e-18)
(0.997496 -0.168453 3.34356e-18)
(0.998475 -0.16525 -2.31299e-19)
(0.999403 -0.161236 -3.78529e-18)
(1.00015 -0.156331 4.43698e-18)
(1.00143 -0.150829 1.39709e-18)
(1.00287 -0.141489 2.17181e-18)
(0.998636 -0.130896 -5.09021e-18)
(0.9842 -0.18226 1.93311e-21)
(0.984062 -0.182296 -1.62407e-21)
(0.984035 -0.182321 1.47101e-21)
(0.984043 -0.182375 9.34163e-21)
(0.984057 -0.18242 1.3399e-20)
(0.984082 -0.182443 -5.19959e-20)
(0.984125 -0.18246 3.72047e-20)
(0.984185 -0.182488 7.50506e-21)
(0.984255 -0.182521 -2.43622e-21)
(0.984328 -0.182543 -1.60563e-20)
(0.984401 -0.182538 4.76623e-20)
(0.984473 -0.182513 -1.58949e-20)
(0.984542 -0.182483 -2.10058e-20)
(0.98461 -0.182466 -5.94347e-20)
(0.984673 -0.182467 1.1584e-19)
(0.984728 -0.182483 -2.48649e-20)
(0.984777 -0.182501 -1.96556e-20)
(0.984821 -0.182512 -5.26456e-20)
(0.984866 -0.182509 5.67402e-20)
(0.984919 -0.182494 2.85685e-20)
(0.984986 -0.182471 -1.42866e-20)
(0.985073 -0.182449 1.938e-20)
(0.985179 -0.182434 -8.35906e-20)
(0.985305 -0.182429 7.99915e-21)
(0.985448 -0.182435 4.20984e-20)
(0.985606 -0.18245 -7.38911e-21)
(0.985776 -0.182473 -1.02059e-19)
(0.985956 -0.182501 1.49506e-20)
(0.986144 -0.182531 7.85114e-20)
(0.986339 -0.182561 -1.76074e-20)
(0.98654 -0.182588 -3.1168e-20)
(0.986749 -0.182612 1.3153e-20)
(0.986965 -0.182633 3.38431e-20)
(0.987189 -0.182649 5.79967e-20)
(0.987423 -0.182657 -8.95381e-21)
(0.987668 -0.182654 -1.09561e-20)
(0.987927 -0.182633 1.84047e-20)
(0.988203 -0.182593 1.28824e-20)
(0.988501 -0.182532 -1.86408e-20)
(0.988827 -0.18244 1.12559e-19)
(0.989184 -0.182311 2.52552e-20)
(0.989578 -0.182132 -7.49442e-20)
(0.990015 -0.181891 -9.34288e-20)
(0.990502 -0.181573 -2.92317e-19)
(0.991044 -0.181161 -1.12887e-18)
(0.991648 -0.180636 1.06094e-18)
(0.992316 -0.179975 -1.96065e-18)
(0.993052 -0.179153 -1.68495e-18)
(0.993853 -0.178142 2.42658e-20)
(0.994716 -0.176906 -2.83965e-18)
(0.995634 -0.175406 4.28003e-18)
(0.996593 -0.173589 5.71617e-18)
(0.99757 -0.171386 -4.89922e-18)
(0.998558 -0.168718 -4.62794e-18)
(0.999541 -0.165476 2.12085e-18)
(1.00045 -0.161463 1.31987e-17)
(1.00116 -0.156615 -3.45991e-18)
(1.00239 -0.151239 4.00834e-18)
(1.00377 -0.141985 7.5181e-18)
(0.999185 -0.131367 -3.98428e-18)
(0.983574 -0.183811 -2.06837e-21)
(0.983486 -0.183843 2.25285e-21)
(0.983524 -0.183858 1.52171e-20)
(0.983595 -0.183904 -1.97365e-20)
(0.983668 -0.183948 3.54295e-20)
(0.983747 -0.183972 -5.15808e-20)
(0.98384 -0.183989 1.4505e-20)
(0.983947 -0.184013 -6.242e-22)
(0.984062 -0.184044 3.09663e-20)
(0.984182 -0.184064 -1.62228e-20)
(0.9843 -0.184062 4.57651e-21)
(0.984417 -0.18404 4.50782e-21)
(0.984531 -0.184015 -7.10633e-20)
(0.984643 -0.184001 2.17967e-20)
(0.98475 -0.184004 4.68825e-20)
(0.984848 -0.184019 8.61695e-22)
(0.984935 -0.184032 -7.16838e-20)
(0.985008 -0.184033 2.95829e-20)
(0.985071 -0.184014 1.23908e-19)
(0.985131 -0.183974 -8.10106e-20)
(0.985197 -0.183919 -5.58048e-20)
(0.985275 -0.183857 4.55761e-20)
(0.985371 -0.183796 2.59648e-20)
(0.985489 -0.183742 2.57471e-20)
(0.985629 -0.183698 -5.1475e-20)
(0.985789 -0.183664 -9.48126e-20)
(0.985966 -0.183641 7.39752e-20)
(0.98616 -0.183624 8.49513e-20)
(0.986366 -0.183614 1.34976e-20)
(0.986584 -0.183605 -3.99735e-20)
(0.986811 -0.183598 1.35883e-20)
(0.987049 -0.18359 1.38016e-20)
(0.987295 -0.18358 -3.11579e-20)
(0.987552 -0.183567 -1.38442e-20)
(0.98782 -0.183548 -1.8271e-20)
(0.988099 -0.183519 1.51388e-21)
(0.988392 -0.183473 1.72711e-20)
(0.988703 -0.183411 -2.19197e-20)
(0.989035 -0.183327 4.5502e-20)
(0.989393 -0.183216 -1.75862e-20)
(0.989782 -0.183068 -4.38506e-20)
(0.990206 -0.182873 -1.81056e-20)
(0.990672 -0.182617 3.8811e-19)
(0.991187 -0.182286 6.50679e-19)
(0.991756 -0.181863 6.5364e-19)
(0.992386 -0.181328 -1.52222e-18)
(0.99308 -0.180657 -9.8547e-20)
(0.993843 -0.179825 7.90612e-19)
(0.994672 -0.1788 -4.83585e-19)
(0.995563 -0.177547 3.38098e-18)
(0.996508 -0.176025 -1.8304e-18)
(0.997492 -0.174181 -5.6023e-18)
(0.998489 -0.171949 4.14815e-19)
(0.999491 -0.169255 5.93099e-18)
(1.00048 -0.165999 -3.08349e-18)
(1.00139 -0.161989 -3.198e-18)
(1.0021 -0.157165 -4.32483e-18)
(1.00334 -0.151829 -1.11204e-17)
(1.00469 -0.142526 -1.32102e-17)
(0.999951 -0.131691 9.08688e-18)
(0.982972 -0.185438 -1.7373e-21)
(0.982957 -0.185457 2.49514e-21)
(0.983066 -0.185455 5.13832e-22)
(0.983199 -0.185487 9.32307e-21)
(0.983325 -0.185523 -1.40466e-20)
(0.983451 -0.185542 -2.83644e-20)
(0.983587 -0.185554 1.02012e-20)
(0.983733 -0.185574 -1.29846e-20)
(0.983887 -0.185598 2.83719e-20)
(0.984044 -0.185614 -5.54028e-21)
(0.984201 -0.18561 -1.78291e-20)
(0.984357 -0.185589 1.4838e-20)
(0.984511 -0.185568 2.30631e-20)
(0.984664 -0.185559 6.11197e-20)
(0.984814 -0.185569 -1.09701e-19)
(0.984958 -0.185591 5.41376e-20)
(0.98509 -0.185611 7.06804e-21)
(0.985205 -0.185617 -4.9265e-20)
(0.985302 -0.185599 -2.80714e-20)
(0.985386 -0.185553 9.06443e-20)
(0.985462 -0.185484 -8.96196e-20)
(0.985541 -0.185399 2.74478e-20)
(0.985631 -0.185306 -6.08209e-20)
(0.985738 -0.185212 1.00785e-19)
(0.985867 -0.185124 -1.94541e-20)
(0.986019 -0.185044 -4.52023e-20)
(0.986193 -0.184972 3.82564e-20)
(0.986388 -0.184909 5.87688e-20)
(0.986602 -0.184852 -4.8288e-20)
(0.986833 -0.1848 2.55722e-20)
(0.987078 -0.184751 -6.60046e-20)
(0.987337 -0.184703 -8.45917e-22)
(0.987609 -0.184656 1.8587e-20)
(0.987894 -0.184608 -8.81947e-21)
(0.988193 -0.184556 -4.90013e-21)
(0.988504 -0.184495 1.42019e-20)
(0.988831 -0.18442 -3.1837e-20)
(0.989176 -0.184329 2.44425e-20)
(0.989543 -0.18422 -2.0697e-20)
(0.989935 -0.184084 -7.01457e-20)
(0.990358 -0.183914 -7.4808e-20)
(0.990814 -0.183699 6.52711e-20)
(0.991311 -0.183427 -2.46418e-19)
(0.991854 -0.183082 -5.32675e-19)