/*--------------------------------*- C++ -*----------------------------------*\
  =========                 |
  \\      /  F ield         | OpenFOAM: The Open Source CFD Toolbox
   \\    /   O peration     | Website:  https://openfoam.org
    \\  /    A nd           | Version:  6.0
     \\/     M anipulation  |
\*---------------------------------------------------------------------------*/
FoamFile
{
    version     2.0;
    format      ascii;
    class       volVectorField;
    location    "2.8";
    object      U;
}
// * * * * * * * * * * * * * * * * * * * * * * * * * * * * * * * * * * * * * //

dimensions      [0 1 -1 0 0 0 0];

internalField   nonuniform List<vector> 
13500
(
(1 1.954e-06 -4.2413e-18)
(1 -2.9704e-06 2.8704e-18)
(1 -6.2509e-06 -1.2346e-17)
(1 -9.7585e-06 -8.5371e-18)
(1 -9.2702e-06 1.607e-17)
(1 -8.9071e-06 2.9884e-17)
(1 1.9228e-07 2.5632e-17)
(0.99998 1.3737e-05 -4.1368e-18)
(0.99992 4.0519e-05 1.5165e-17)
(0.9998 7.3855e-05 3.2533e-18)
(0.99572 0.00075585 2.8483e-17)
(1.019 0.010843 7.7272e-18)
(1 6.0059e-06 2.6276e-18)
(1 -8.0989e-06 -8.7171e-18)
(1 -1.7162e-05 5.8957e-18)
(1 -2.7105e-05 -3.3668e-19)
(1 -2.4801e-05 -4.2854e-19)
(1 -2.383e-05 -3.5934e-17)
(0.99999 5.082e-06 -4.427e-17)
(0.99994 4.3447e-05 -2.367e-17)
(0.99973 0.00013404 -1.5135e-17)
(0.99984 0.00018072 -1.6089e-18)
(0.98617 0.0021901 -1.3489e-17)
(1.0534 0.030649 -4.6786e-18)
(1 1.0016e-05 -3.3939e-18)
(1 -1.3279e-05 1.7319e-17)
(1 -2.829e-05 3.0666e-18)
(1 -4.4709e-05 9.843e-18)
(1 -4.0609e-05 -3.7056e-18)
(1 -3.9281e-05 2.8784e-17)
(0.99999 1.0242e-05 -6.2316e-18)
(0.9999 7.2165e-05 5.3767e-18)
(0.99952 0.00023633 -1.8361e-17)
(1.0003 0.00030246 2.4442e-17)
(0.97597 0.0032749 -7.052e-18)
(1.0819 0.04519 1.6405e-18)
(1 1.3982e-05 8.8723e-18)
(1 -1.8654e-05 -1.6791e-17)
(1 -3.9809e-05 -1.4537e-17)
(1 -6.284e-05 -6.906e-19)
(1 -5.7007e-05 5.7204e-18)
(1 -5.5408e-05 -7.9887e-19)
(0.99999 1.5117e-05 6.14e-17)
(0.99988 9.9664e-05 9.6871e-18)
(0.99927 0.00034609 2.1711e-17)
(1.0013 0.00044372 -8.8532e-18)
(0.96551 0.0040363 3.4338e-17)
(1.1031 0.055742 -7.4672e-18)
(1 1.7937e-05 -6.2342e-18)
(1 -2.4058e-05 1.4512e-17)
(1 -5.1396e-05 1.2374e-17)
(1 -8.1043e-05 1.2598e-17)
(1.0001 -7.3519e-05 2.8049e-18)
(1.0001 -7.1608e-05 2.1156e-17)
(1 2.0046e-05 -2.7418e-17)
(0.99986 0.00012616 1.9676e-18)
(0.99897 0.00046202 -1.3312e-17)
(1.0027 0.00060667 -2.1124e-18)
(0.95517 0.0045243 -8.9068e-18)
(1.117 0.063438 2.0706e-18)
(1 2.1881e-05 6.309e-18)
(1 -2.9489e-05 -6.016e-18)
(1 -6.3058e-05 3.7792e-18)
(1 -9.931e-05 -2.4955e-17)
(1.0001 -9.0154e-05 -8.2128e-20)
(1.0001 -8.789e-05 -4.1882e-17)
(1 2.5018e-05 1.0521e-18)
(0.99986 0.00015149 -1.5794e-17)
(0.99861 0.00058271 5.0693e-18)
(1.0044 0.000798 -2.1286e-17)
(0.94531 0.0047816 -2.1439e-17)
(1.1244 0.068891 2.0011e-18)
(0.99999 2.5815e-05 -1.0443e-18)
(1 -3.4946e-05 -7.1952e-18)
(1 -7.4797e-05 -3.0714e-18)
(1.0001 -0.00011765 1.8836e-17)
(1.0001 -0.00010691 -2.598e-17)
(1.0001 -0.00010428 1.6025e-17)
(1 3.0062e-05 1.8339e-17)
(0.99987 0.00017557 5.5567e-18)
(0.99819 0.00070678 1.1332e-17)
(1.0065 0.0010241 1.1459e-17)
(0.93622 0.0048463 9.2355e-18)
(1.1261 0.072526 3.212e-18)
(0.99999 2.9737e-05 -2.1556e-18)
(1 -4.0434e-05 -1.4154e-18)
(1 -8.6616e-05 -2.6459e-17)
(1.0001 -0.00013607 -8.9942e-18)
(1.0001 -0.0001238 7.2715e-18)
(1.0001 -0.00012078 2.6262e-17)
(1 3.5187e-05 1.1672e-17)
(0.99989 0.00019833 4.9608e-18)
(0.99769 0.0008328 -7.4068e-18)
(1.0089 0.001289 1.6051e-17)
(0.92812 0.004755 7.458e-18)
(1.1231 0.074707 -1.0213e-17)
(0.99999 3.3649e-05 -6.6916e-18)
(1 -4.5953e-05 6.0853e-18)
(1 -9.8518e-05 4.4488e-17)
(1.0001 -0.00015457 -1.0788e-17)
(1.0001 -0.00014083 2.7231e-17)
(1.0001 -0.00013741 -5.1851e-17)
(1 4.0387e-05 -3.8883e-17)
(0.99993 0.00021976 9.6396e-18)
(0.99712 0.00095934 -5.5627e-18)
(1.0115 0.0015943 -8.8527e-18)
(0.92118 0.0045424 -1.3781e-17)
(1.1165 0.075739 1.3362e-17)
(0.99999 3.7549e-05 4.4087e-18)
(1 -5.1504e-05 2.2905e-18)
(1 -0.00011051 -3.7684e-17)
(1.0001 -0.00017316 1.5353e-17)
(1.0001 -0.00015801 -1.1875e-17)
(1.0001 -0.00015419 2.2114e-17)
(1 4.5651e-05 1.3818e-17)
(0.99999 0.00023986 2.437e-18)
(0.99646 0.001085 5.255e-19)
(1.0142 0.0019396 1.4025e-18)
(0.91549 0.0042409 4.3839e-18)
(1.1072 0.075874 -7.0014e-19)
(0.99998 4.1438e-05 -2.4205e-18)
(1 -5.709e-05 -7.5122e-18)
(1 -0.00012258 9.2375e-18)
(1.0001 -0.00019183 -2.709e-18)
(1.0001 -0.00017535 1.8331e-18)
(1.0002 -0.00017111 -2.4236e-17)
(1 5.097e-05 -3.1825e-17)
(1.0001 0.00025867 -3.0951e-17)
(0.99572 0.0012083 1.5548e-17)
(1.0171 0.0023233 1.8217e-18)
(0.9111 0.0038799 -1.112e-17)
(1.0959 0.07532 -5.7573e-18)
(0.99998 4.5317e-05 3.341e-18)
(1 -6.2711e-05 2.8375e-18)
(1 -0.00013475 4.4519e-18)
(1.0001 -0.0002106 -2.1589e-18)
(1.0001 -0.00019285 -5.4948e-18)
(1.0002 -0.0001882 9.1665e-18)
(1 5.6329e-05 1.8422e-17)
(1.0002 0.00027627 1.9121e-17)
(0.9949 0.0013282 9.9897e-18)
(1.02 0.0027424 -2.3005e-17)
(0.90801 0.0034857 1.167e-19)
(1.0835 0.074247 -6.6644e-18)
(0.99998 4.9184e-05 -3.3405e-18)
(0.99999 -6.837e-05 5.5799e-18)
(1 -0.00014702 8.0717e-18)
(1.0001 -0.00022947 5.6372e-18)
(1.0001 -0.00021052 -5.0965e-18)
(1.0002 -0.00020546 4.5063e-18)
(1 6.171e-05 4.2008e-18)
(1.0003 0.00029276 -1.7075e-18)
(0.99399 0.0014432 -1.6146e-17)
(1.0229 0.0031931 2.1333e-17)
(0.90618 0.0030813 1.0386e-19)
(1.0704 0.072793 1.4272e-18)
(0.99997 5.304e-05 5.0799e-18)
(0.99999 -7.4067e-05 -4.3556e-18)
(1 -0.00015938 7.0669e-19)
(1.0001 -0.00024844 -4.7026e-18)
(1.0002 -0.00022837 1.1574e-17)
(1.0002 -0.0002229 5.4982e-18)
(1 6.7089e-05 1.6903e-17)
(1.0005 0.00030829 -6.3418e-18)
(0.99301 0.0015523 -1.9728e-19)
(1.0258 0.003671 5.2393e-18)
(0.90555 0.0026867 1.6878e-17)
(1.0573 0.071071 9.1036e-19)
(0.99997 5.6885e-05 1.2252e-18)
(0.99999 -7.9805e-05 9.6668e-18)
(1 -0.00017185 1.3498e-17)
(1.0001 -0.00026751 -4.6887e-18)
(1.0002 -0.00024642 8.3812e-18)
(1.0002 -0.00024055 -2.5667e-18)
(1 7.2438e-05 -2.9604e-17)
(1.0006 0.00032303 2.0074e-17)
(0.99195 0.0016544 -1.8205e-17)
(1.0286 0.0041712 -3.022e-17)
(0.90603 0.0023182 -3.7049e-18)
(1.0445 0.069173 8.4338e-19)
(0.99997 6.0719e-05 -3.1257e-18)
(0.99999 -8.5585e-05 -1.0281e-17)
(1 -0.00018442 -3.2398e-17)
(1.0001 -0.0002867 7.8995e-18)
(1.0002 -0.00026467 -1.2719e-17)
(1.0003 -0.0002584 8.2296e-18)
(1 7.772e-05 -2.7699e-18)
(1.0009 0.00033719 -1.2084e-17)
(0.99083 0.0017485 3.9982e-18)
(1.0312 0.0046887 1.8046e-17)
(0.90751 0.0019894 -7.7762e-18)
(1.0323 0.067173 1.1713e-17)
(0.99996 6.4541e-05 3.2889e-19)
(0.99998 -9.1409e-05 7.6889e-18)
(1 -0.0001971 2.2368e-17)
(1.0001 -0.000306 -1.7791e-18)
(1.0002 -0.00028312 -1.2636e-17)
(1.0003 -0.00027647 -1.5336e-17)
(1 8.2891e-05 1.058e-17)
(1.0011 0.00035101 6.9305e-18)
(0.98965 0.0018337 2.3103e-17)
(1.0337 0.0052186 -2.5267e-18)
(0.90987 0.0017105 1.9324e-18)
(1.0209 0.065128 -4.6732e-18)
(0.99996 6.8351e-05 -1.8452e-18)
(0.99998 -9.7278e-05 -9.3166e-18)
(1 -0.00020989 -1.0093e-17)
(1.0001 -0.00032541 5.9452e-18)
(1.0002 -0.00030179 -7.0967e-18)
(1.0003 -0.00029476 -1.2301e-17)
(0.99999 8.7901e-05 1.0285e-17)
(1.0014 0.00036478 -4.7016e-18)
(0.98842 0.0019089 -2.8589e-17)
(1.036 0.0057562 -1.4159e-17)
(0.913 0.001489 8.3875e-18)
(1.0106 0.063085 -5.0681e-18)
(0.99995 7.215e-05 -2.6422e-18)
(0.99998 -0.00010319 -3.5213e-18)
(1 -0.0002228 -7.4798e-19)
(1.0001 -0.00034495 -2.6034e-17)
(1.0002 -0.00032069 5.9542e-18)
(1.0003 -0.0003133 5.3566e-18)
(0.99998 9.2689e-05 -1.9545e-17)
(1.0017 0.00037879 -1.6053e-17)
(0.98714 0.0019735 4.1827e-18)
(1.038 0.006297 -1.0636e-18)
(0.91678 0.0013299 -9.6852e-18)
(1.0014 0.061078 9.586e-19)
(0.99995 7.5936e-05 3.4367e-18)
(0.99997 -0.00010916 1.6142e-17)
(1 -0.00023582 1.9261e-17)
(1.0001 -0.00036462 2.4517e-18)
(1.0002 -0.00033983 1.6461e-17)
(1.0004 -0.00033208 9.3869e-18)
(0.99995 9.7188e-05 2.8211e-18)
(1.002 0.00039337 1.757e-17)
(0.98583 0.0020266 2.0773e-17)
(1.0399 0.0068369 1.6908e-17)
(0.92109 0.0012359 7.2296e-18)
(0.99333 0.059134 1.1373e-18)
(0.99994 7.971e-05 -1.6381e-18)
(0.99997 -0.00011517 -3.8732e-18)
(1 -0.00024897 -2.0521e-17)
(1.0002 -0.00038442 -2.3215e-18)
(1.0002 -0.00035921 -1.2476e-17)
(1.0004 -0.00035111 -5.0788e-18)
(0.99992 0.00010132 -1.8105e-18)
(1.0024 0.00040889 -1.5888e-17)
(0.9845 0.0020673 -1.9861e-17)
(1.0414 0.0073722 8.6654e-18)
(0.92582 0.0012077 4.9693e-19)
(0.98647 0.057272 6.5274e-19)
(0.99994 8.3472e-05 4.3421e-18)
(0.99996 -0.00012124 -5.0603e-18)
(1 -0.00026224 -1.9247e-17)
(1.0002 -0.00040435 4.4134e-17)
(1.0002 -0.00037886 1.8098e-17)
(1.0004 -0.0003704 -1.2428e-17)
(0.99989 0.00010499 2.4341e-17)
(1.0028 0.00042574 2.1472e-17)
(0.98316 0.002095 3.2226e-17)
(1.0428 0.0078996 -3.1759e-17)
(0.93087 0.0012442 -1.3279e-17)
(0.98077 0.055504 1.7207e-19)
(0.99993 8.7222e-05 -3.1783e-18)
(0.99996 -0.00012737 -1.0155e-18)
(1 -0.00027565 3.2859e-17)
(1.0002 -0.00042443 -3.3363e-17)
(1.0003 -0.00039877 -1.742e-18)
(1.0005 -0.00038995 4.1178e-17)
(0.99985 0.0001081 7.5435e-18)
(1.0033 0.00044433 -3.3167e-18)
(0.98182 0.002109 -1.9985e-17)
(1.0438 0.0084162 3.7426e-17)
(0.93613 0.0013431 -5.6265e-18)
(0.97619 0.05384 -2.7358e-19)
(0.99992 9.0959e-05 -1.6203e-18)
(0.99995 -0.00013354 -2.0234e-18)
(1 -0.00028919 1.7113e-18)
(1.0002 -0.00044466 3.4709e-17)
(1.0003 -0.00041896 -9.8225e-18)
(1.0005 -0.00040976 -3.0436e-17)
(0.9998 0.00011054 -1.9233e-17)
(1.0038 0.00046508 -3.5713e-18)
(0.98049 0.0021086 6.3187e-18)
(1.0446 0.0089196 -3.1572e-17)
(0.94152 0.0015009 9.4234e-18)
(0.97265 0.052283 2.9645e-18)
(0.99992 9.4684e-05 2.6776e-18)
(0.99995 -0.00013978 1.4083e-17)
(1 -0.00030286 -1.262e-17)
(1.0002 -0.00046503 -3.6341e-18)
(1.0003 -0.00043945 -1.8852e-17)
(1.0005 -0.00042985 3.3112e-17)
(0.99974 0.00011219 -1.6884e-17)
(1.0043 0.00048845 1.4806e-17)
(0.97919 0.0020933 -1.9474e-18)
(1.0451 0.0094075 2.9599e-17)
(0.94695 0.0017135 -9.1976e-18)
(0.97009 0.050835 -4.9465e-18)
(0.99991 9.8396e-05 -5.1356e-19)
(0.99994 -0.00014608 -8.0997e-18)
(1 -0.00031668 -1.7672e-17)
(1.0002 -0.00048557 -9.9583e-18)
(1.0003 -0.00046023 1.8285e-17)
(1.0006 -0.0004502 -4.2223e-17)
(0.99967 0.00011291 -2.6052e-18)
(1.0048 0.0005149 -2.0003e-17)
(0.97791 0.0020624 3.1446e-18)
(1.0453 0.0098782 -8.5373e-18)
(0.95236 0.0019758 9.79e-18)
(0.9684 0.049495 2.098e-18)
(0.9999 0.00010209 2.6904e-18)
(0.99994 -0.00015244 -8.6763e-18)
(1 -0.00033064 -1.7462e-18)
(1.0002 -0.00050626 2.4198e-18)
(1.0003 -0.00048133 5.7873e-18)
(1.0006 -0.00047081 1.22e-17)
(0.9996 0.00011256 4.2713e-17)
(1.0054 0.0005449 2.3905e-18)
(0.97669 0.0020156 5.1234e-18)
(1.0453 0.01033 9.4092e-18)
(0.95767 0.0022826 -8.3743e-18)
(0.96749 0.048258 1.6108e-18)
(0.99989 0.00010578 -1.5427e-18)
(0.99993 -0.00015886 8.6683e-18)
(1 -0.00034475 2.512e-17)
(1.0002 -0.00052713 -2.4381e-17)
(1.0003 -0.00050276 -9.0024e-18)
(1.0006 -0.00049169 -2.1468e-18)
(0.99952 0.00011097 -1.4079e-17)
(1.006 0.00057892 1.8546e-18)
(0.97552 0.0019523 -8.8783e-18)
(1.045 0.010763 -3.4583e-18)
(0.96285 0.0026285 -2.3751e-19)
(0.96727 0.047122 -1.9684e-18)
(0.99989 0.00010945 -1.6581e-18)
(0.99992 -0.00016536 5.1886e-18)
(1 -0.00035901 -6.0741e-19)
(1.0002 -0.00054817 8.0845e-18)
(1.0003 -0.00052453 -1.6611e-17)
(1.0007 -0.00051282 2.4291e-17)
(0.99942 0.00010798 7.0222e-18)
(1.0066 0.00061743 -1.7693e-17)
(0.97441 0.0018723 -1.1382e-17)
(1.0445 0.011174 -1.3692e-17)
(0.96784 0.0030078 1.3269e-18)
(0.96764 0.04608 -3.6057e-18)
(0.99988 0.00011312 5.7622e-19)
(0.99992 -0.00017192 -1.2391e-17)
(1 -0.00037343 1.5556e-17)
(1.0002 -0.00056938 2.2361e-17)
(1.0003 -0.00054665 3.2559e-17)
(1.0007 -0.00053419 -1.7839e-17)
(0.99932 0.0001034 -1.7459e-17)
(1.0073 0.0006609 3.5905e-18)
(0.97339 0.0017755 1.0664e-17)
(1.0437 0.011564 1.0718e-17)
(0.9726 0.0034149 6.1793e-18)
(0.96851 0.045126 3.5837e-18)
(0.99987 0.00011676 1.1043e-18)
(0.99991 -0.00017855 9.8538e-18)
(1 -0.00038801 -3.574e-17)
(1.0002 -0.00059078 -3.2398e-18)
(1.0003 -0.00056913 -2.7047e-17)
(1.0008 -0.00055579 -1.1237e-17)
(0.9992 9.7036e-05 2.4556e-20)
(1.008 0.00070979 -4.1067e-18)
(0.97244 0.0016615 -2.1008e-17)
(1.0427 0.011932 -1.7112e-17)
(0.97711 0.0038444 -8.44e-18)
(0.96978 0.044254 -1.7656e-18)
(0.99986 0.0001204 -7.1574e-19)
(0.9999 -0.00018526 -6.4085e-18)
(1 -0.00040275 2.8121e-17)
(1.0002 -0.00061238 -3.0915e-17)
(1.0004 -0.000592 -2.0348e-18)
(1.0008 -0.00057761 2.3929e-17)
(0.99908 8.8691e-05 6.9856e-19)
(1.0086 0.00076452 3.9165e-18)
(0.97159 0.0015306 1.8391e-17)
(1.0416 0.012277 2.2245e-17)
(0.98134 0.004291 4.8284e-18)
(0.97138 0.043457 -9.8574e-19)
(0.99985 0.00012402 -1.8634e-18)
(0.99989 -0.00019204 -2.3634e-18)
(1 -0.00041767 -1.2467e-17)
(1.0002 -0.00063416 1.5401e-17)
(1.0004 -0.00061526 2.9727e-17)
(1.0009 -0.00059962 -1.0576e-17)
(0.99894 7.8146e-05 2.1744e-17)
(1.0093 0.00082552 2.9356e-18)
(0.97084 0.0013829 -2.0826e-18)
(1.0402 0.012599 1.0064e-17)
(0.98527 0.0047498 -5.3959e-18)
(0.97323 0.042728 -6.8651e-19)
(0.99984 0.00012763 4.6601e-19)
(0.99988 -0.0001989 -6.2502e-18)
(1 -0.00043276 4.6671e-18)
(1.0002 -0.00065616 -1.5696e-17)
(1.0004 -0.00063894 -3.1444e-17)
(1.0009 -0.00062181 6.6647e-18)
(0.9988 6.5178e-05 -3.1369e-17)
(1.01 0.00089316 -6.7111e-18)
(0.97019 0.0012186 6.7561e-18)
(1.0387 0.012898 -3.1586e-17)
(0.9889 0.005216 3.6945e-18)
(0.97526 0.04206 1.9396e-18)
(0.99983 0.00013123 8.1839e-19)
(0.99988 -0.00020585 1.6933e-17)
(1 -0.00044802 7.8148e-18)
(1.0002 -0.00067836 6.3936e-18)
(1.0004 -0.00066304 2.5144e-17)
(1.001 -0.00064416 1.9872e-18)
(0.99864 4.9557e-05 2.1661e-17)
(1.0108 0.0009678 4.8139e-18)
(0.96966 0.0010382 -2.0531e-17)
(1.0371 0.013174 1.0875e-17)
(0.99222 0.0056852 2.4984e-18)
(0.97741 0.041446 2.0105e-18)
(0.99982 0.00013481 -2.8577e-18)
(0.99987 -0.00021288 -5.5739e-18)
(1 -0.00046347 -6.8656e-18)
(1.0002 -0.00070077 1.05e-17)
(1.0004 -0.00068759 1.2148e-17)
(1.001 -0.00066663 -3.9573e-18)
(0.99847 3.1045e-05 -1.8195e-17)
(1.0115 0.0010497 2.1916e-17)
(0.96924 0.00084239 3.8032e-18)
(1.0353 0.013426 -3.2855e-18)
(0.99522 0.0061533 1.0334e-17)
(0.97963 0.040882 -1.3972e-18)
(0.99981 0.00013838 5.8722e-18)
(0.99986 -0.00022 6.6753e-18)
(1 -0.0004791 -7.2985e-18)
(1.0002 -0.00072341 -6.541e-18)
(1.0004 -0.00071259 -1.7432e-17)
(1.0011 -0.00068919 -6.7969e-18)
(0.9983 9.4005e-06 8.9711e-18)
(1.0122 0.0011392 -3.5152e-17)
(0.96894 0.00063183 9.3065e-18)
(1.0335 0.013654 -3.8841e-18)
(0.99792 0.0066165 -1.0942e-17)
(0.98187 0.04036 4.0573e-18)
(0.9998 0.00014195 -2.5917e-18)
(0.99985 -0.00022721 -1.1728e-17)
(0.99999 -0.00049492 -7.0739e-18)
(1.0002 -0.00074628 -1.2413e-17)
(1.0004 -0.00073808 -5.3227e-18)
(1.0012 -0.00071181 1.9985e-17)
(0.99811 -1.5623e-05 -8.8128e-18)
(1.0129 0.0012364 3.9104e-17)
(0.96875 0.00040747 8.7736e-18)
(1.0316 0.013859 1.1786e-17)
(1.0003 0.0070715 4.612e-18)
(0.98409 0.039874 -6.5791e-18)
(0.99978 0.00014549 -1.3748e-18)
(0.99984 -0.00023451 8.7224e-18)
(0.99999 -0.00051094 1.4016e-17)
(1.0002 -0.00076938 3.3467e-17)
(1.0004 -0.00076406 7.0553e-18)
(1.0012 -0.00073446 -1.3708e-17)
(0.99792 -4.4271e-05 4.2528e-18)
(1.0136 0.0013416 -4.2068e-17)
(0.96869 0.00017036 -1.0641e-17)
(1.0296 0.014041 -6.5536e-18)
(1.0024 0.007515 4.524e-18)
(0.98626 0.039421 6.6151e-18)
(0.99977 0.00014903 1.0521e-18)
(0.99983 -0.00024191 2.0649e-18)
(0.99998 -0.00052715 -1.3765e-17)
(1.0002 -0.00079273 -5.5745e-18)
(1.0004 -0.00079056 8.9589e-18)
(1.0013 -0.00075709 1.6408e-17)
(0.99772 -7.6791e-05 1.4789e-17)
(1.0142 0.0014547 4.1645e-18)
(0.96875 -7.8273e-05 1.1904e-17)
(1.0276 0.014199 -3.0371e-18)
(1.0043 0.0079445 -8.0758e-18)
(0.98835 0.038994 -1.706e-18)
(0.99976 0.00015256 -4.3086e-20)
(0.99982 -0.00024942 2.3535e-18)
(0.99997 -0.00054357 3.0763e-18)
(1.0002 -0.00081632 -7.237e-18)
(1.0004 -0.0008176 8.3697e-20)
(1.0014 -0.00077966 -1.4877e-17)
(0.99751 -0.00011342 -1.0003e-17)
(1.0149 0.0015759 3.0804e-17)
(0.96892 -0.0003371 -1.7987e-17)
(1.0255 0.014334 1.1794e-17)
(1.0058 0.0083573 4.2648e-18)
(0.99034 0.03859 -4.8174e-18)
(0.99975 0.00015607 -3.259e-18)
(0.9998 -0.00025702 -1.1037e-17)
(0.99997 -0.00056019 7.8547e-18)
(1.0002 -0.00084017 -1.9765e-17)
(1.0004 -0.00084519 -2.2658e-17)
(1.0015 -0.00080213 -2.0551e-17)
(0.99729 -0.00015441 -2.0387e-17)
(1.0155 0.001705 -3.1548e-18)
(0.96921 -0.00060467 1.5719e-17)
(1.0235 0.014445 -1.0117e-17)
(1.0071 0.0087514 4.2369e-19)
(0.99222 0.038204 4.5372e-18)
(0.99973 0.00015957 6.2904e-18)
(0.99979 -0.00026474 1.1535e-17)
(0.99996 -0.00057703 -1.2668e-17)
(1.0002 -0.00086429 1.6228e-17)
(1.0004 -0.00087337 -2.6576e-18)
(1.0016 -0.00082445 1.3471e-17)
(0.99707 -0.00019997 2.4506e-17)
(1.0161 0.0018419 -2.3894e-17)
(0.9696 -0.00087941 -7.9697e-18)
(1.0215 0.014534 1.0684e-17)
(1.0082 0.0091248 3.6848e-18)
(0.99398 0.037832 -2.1463e-18)
(0.99972 0.00016307 -4.7201e-18)
(0.99978 -0.00027256 -3.409e-18)
(0.99995 -0.00059408 -2.6491e-18)
(1.0003 -0.00088867 1.8568e-17)
(1.0004 -0.00090215 -5.6892e-18)
(1.0017 -0.00084658 -1.7073e-19)
(0.99685 -0.00025033 -4.7952e-18)
(1.0167 0.0019865 1.9139e-17)
(0.97011 -0.0011597 -7.5661e-18)
(1.0195 0.014601 -7.3365e-18)
(1.0091 0.0094761 -1.0893e-17)
(0.9956 0.037471 2.4944e-18)
(0.9997 0.00016655 3.2086e-18)
(0.99977 -0.0002805 -4.3227e-18)
(0.99995 -0.00061136 6.0637e-18)
(1.0003 -0.00091334 -2.8174e-17)
(1.0004 -0.00093156 3.854e-17)
(1.0017 -0.00086845 5.581e-18)
(0.99662 -0.0003057 1.892e-17)
(1.0173 0.0021385 -1.1842e-17)
(0.97071 -0.0014438 1.008e-19)
(1.0176 0.014646 5.4564e-18)
(1.0098 0.009804 -2.1181e-18)
(0.9971 0.037118 -9.3853e-19)
(0.99969 0.00017002 -9.1789e-19)
(0.99975 -0.00028856 8.4501e-19)
(0.99994 -0.00062885 1.4776e-17)
(1.0003 -0.00093829 7.6808e-18)
(1.0004 -0.00096161 -1.9268e-17)
(1.0018 -0.00089003 -1.0932e-17)
(0.99638 -0.00036625 3.3036e-18)
(1.0178 0.0022976 -5.7568e-18)
(0.97141 -0.0017299 1.2659e-17)
(1.0157 0.014669 -3.5818e-18)
(1.0103 0.010107 1.0197e-17)
(0.99846 0.036771 -3.4249e-18)
(0.99967 0.00017349 -1.5978e-18)
(0.99974 -0.00029674 -8.1456e-18)
(0.99993 -0.00064658 -4.393e-18)
(1.0003 -0.00096353 3.0845e-17)
(1.0004 -0.00099234 -1.7167e-17)
(1.002 -0.00091126 -9.2606e-19)
(0.99615 -0.00043216 -4.9404e-17)
(1.0182 0.0024632 5.6593e-18)
(0.9722 -0.0020164 -2.3669e-17)
(1.0139 0.014671 -7.7356e-18)
(1.0107 0.010385 -1.0195e-17)
(0.9997 0.036426 2.0336e-18)
(0.99966 0.00017694 -6.8984e-19)
(0.99973 -0.00030504 5.0465e-18)
(0.99992 -0.00066455 -1.8134e-18)
(1.0003 -0.00098907 -1.796e-17)
(1.0004 -0.0010238 2.4671e-17)
(1.0021 -0.00093209 -2.2763e-18)
(0.99591 -0.00050358 2.6169e-17)
(1.0187 0.002635 -3.4785e-18)
(0.97307 -0.0023014 1.1493e-17)
(1.0122 0.014653 9.6752e-18)
(1.0109 0.010637 8.4096e-18)
(1.0008 0.036082 -4.9168e-19)
(0.99964 0.00018039 3.9104e-18)
(0.99971 -0.00031348 -3.0196e-18)
(0.99991 -0.00068275 -6.3448e-18)
(1.0003 -0.0010149 1.9603e-17)
(1.0004 -0.0010559 1.8108e-18)
(1.0022 -0.00095247 2.822e-17)
(0.99568 -0.00058063 4.5143e-18)
(1.0191 0.0028124 1.662e-17)
(0.97401 -0.0025831 4.3115e-18)
(1.0106 0.014616 -3.1305e-18)
(1.011 0.010863 1.0939e-18)
(1.0018 0.035737 4.4509e-19)
(0.99962 0.00018383 1.1151e-18)
(0.9997 -0.00032205 1.2345e-18)
(0.9999 -0.0007012 -5.7538e-18)
(1.0003 -0.0010411 -3.9038e-17)
(1.0004 -0.0010888 5.4837e-18)
(1.0023 -0.00097235 2.4477e-18)
(0.99544 -0.00066341 -1.9574e-17)
(1.0195 0.0029948 2.3375e-19)
(0.97501 -0.0028599 1.2702e-17)
(1.009 0.01456 -2.0127e-18)
(1.0111 0.011063 -5.3254e-18)
(1.0027 0.035389 2.6232e-18)
(0.99961 0.00018727 -4.7749e-18)
(0.99968 -0.00033077 5.233e-18)
(0.99989 -0.00071989 9.4822e-19)
(1.0003 -0.0010676 2.1678e-17)
(1.0004 -0.0011225 -2.5015e-17)
(1.0024 -0.00099169 -1.081e-17)
(0.99521 -0.00075198 2.002e-17)
(1.0198 0.0031815 -1.1257e-17)
(0.97607 -0.0031302 -2.008e-17)
(1.0076 0.014487 -9.9458e-18)
(1.011 0.011236 6.782e-18)
(1.0035 0.035038 8.7416e-19)
(0.99959 0.00019069 -5.0534e-19)
(0.99967 -0.00033962 -5.2661e-18)
(0.99988 -0.00073884 1.0102e-17)
(1.0003 -0.0010944 9.6127e-18)
(1.0004 -0.001157 3.0897e-17)
(1.0025 -0.0010105 4.153e-18)
(0.99498 -0.00084638 1.7782e-17)
(1.0201 0.0033717 2.8539e-17)
(0.97718 -0.0033924 -8.8656e-19)
(1.0063 0.014397 1.7495e-17)
(1.0109 0.011383 -7.1775e-19)
(1.0042 0.034682 -2.5521e-18)
(0.99957 0.00019411 4.8976e-18)
(0.99965 -0.00034862 -7.6673e-18)
(0.99987 -0.00075806 -1.5334e-17)
(1.0003 -0.0011216 -2.5544e-18)
(1.0004 -0.0011924 -3.3535e-17)
(1.0026 -0.0010286 -1.2357e-17)
(0.99476 -0.00094661 -6.1724e-18)
(1.0203 0.0035646 2.1344e-19)
(0.97833 -0.003645 2.613e-17)
(1.0051 0.014291 4.0315e-18)
(1.0108 0.011505 -9.3055e-18)
(1.0048 0.03432 1.5302e-18)
(0.99955 0.00019753 -5.4909e-18)
(0.99963 -0.00035778 9.5776e-18)
(0.99986 -0.00077753 8.0268e-18)
(1.0003 -0.0011491 -5.0909e-18)
(1.0004 -0.0012285 2.697e-17)
(1.0028 -0.0010461 1.4784e-17)
(0.99454 -0.0010526 -4.8793e-18)
(1.0205 0.0037595 -2.876e-17)
(0.9795 -0.0038867 -8.8858e-19)
(1.004 0.014172 -1.152e-17)
(1.0106 0.011601 1.1015e-17)
(1.0053 0.033951 -2.0045e-18)
(0.99953 0.00020094 3.2995e-18)
(0.99962 -0.00036709 -1.8329e-18)
(0.99985 -0.00079728 1.0629e-17)
(1.0003 -0.001177 -2.1421e-17)
(1.0004 -0.0012656 8.8078e-18)
(1.0029 -0.0010629 -5.3107e-18)
(0.99433 -0.0011644 -1.0513e-17)
(1.0206 0.0039554 -2.3088e-18)
(0.9807 -0.0041165 -3.1531e-17)
(1.0031 0.014039 7.6007e-18)
(1.0104 0.011674 -1.0085e-17)
(1.0058 0.033576 6.685e-19)
(0.99951 0.00020435 2.6093e-19)
(0.9996 -0.00037656 -5.7661e-18)
(0.99984 -0.0008173 6.0367e-18)
(1.0003 -0.0012052 2.8194e-17)
(1.0004 -0.0013036 -2.0977e-17)
(1.003 -0.001079 1.7084e-17)
(0.99412 -0.0012818 -6.0789e-18)
(1.0208 0.0041514 5.3459e-18)
(0.98192 -0.0043331 3.7461e-17)
(1.0022 0.013894 -1.411e-17)
(1.0101 0.011722 1.5414e-17)
(1.0062 0.033194 1.8913e-18)
(0.99949 0.00020775 4.6833e-19)
(0.99958 -0.0003862 -1.1937e-18)
(0.99983 -0.0008376 -8.684e-18)
(1.0003 -0.0012339 -4.2441e-18)
(1.0004 -0.0013425 1.8284e-17)
(1.0032 -0.0010944 1.3633e-19)
(0.99392 -0.0014047 -1.1949e-17)
(1.0208 0.0043466 -1.2763e-17)
(0.98314 -0.0045358 -1.5681e-17)
(1.0015 0.013739 -1.332e-18)
(1.0099 0.011748 2.821e-18)
(1.0066 0.032805 1.9771e-19)
(0.99947 0.00021116 -7.5352e-19)
(0.99956 -0.00039601 1.4201e-17)
(0.99981 -0.00085819 -5.7925e-18)
(1.0003 -0.0012629 -2.3987e-17)
(1.0004 -0.0013824 8.4306e-18)
(1.0033 -0.0011091 -4.3528e-17)
(0.99374 -0.0015329 5.9604e-18)
(1.0209 0.0045401 8.0362e-18)
(0.98436 -0.0047238 7.2838e-19)
(1.0008 0.013574 1.433e-17)
(1.0097 0.011752 -9.4369e-19)
(1.0069 0.032408 -5.2837e-18)
(0.99945 0.00021456 -1.9893e-19)
(0.99954 -0.00040599 -2.7859e-19)
(0.9998 -0.00087907 7.7982e-18)
(1.0003 -0.0012923 1.481e-17)
(1.0004 -0.0014233 -3.3495e-17)
(1.0034 -0.001123 1.8801e-18)
(0.99356 -0.0016663 1.0676e-17)
(1.0209 0.0047309 1.2587e-17)
(0.98557 -0.0048966 -9.9165e-18)
(1.0003 0.013401 -1.3952e-17)
(1.0095 0.011736 -1.5286e-17)
(1.0072 0.032005 5.5789e-18)
(0.99943 0.00021796 -1.3019e-18)
(0.99952 -0.00041616 3.9702e-19)
(0.99978 -0.00090025 -3.7599e-18)
(1.0003 -0.0013221 -9.8884e-18)
(1.0004 -0.0014652 1.8569e-17)
(1.0036 -0.0011363 2.3365e-17)
(0.99339 -0.0018045 3.1136e-18)
(1.0208 0.0049182 6.3791e-18)
(0.98678 -0.0050538 1.5816e-17)
(0.99981 0.013222 2.3482e-18)
(1.0093 0.0117 1.13e-17)
(1.0075 0.031595 -3.3862e-18)
(0.99941 0.00022136 2.3965e-18)
(0.9995 -0.00042651 7.3193e-19)
(0.99977 -0.00092173 -5.3739e-18)
(1.0003 -0.0013523 1.4608e-18)
(1.0003 -0.0015081 -1.0068e-17)
(1.0037 -0.0011489 -5.6045e-18)
(0.99323 -0.0019474 -1.1508e-18)
(1.0208 0.0051009 -2.8806e-17)
(0.98796 -0.0051952 3.1043e-18)
(0.99945 0.013036 -4.7609e-18)
(1.0091 0.011646 -4.596e-18)
(1.0078 0.031178 -4.0808e-18)
(0.99938 0.00022476 -4.8909e-18)
(0.99948 -0.00043706 9.5628e-19)
(0.99976 -0.00094352 2.8505e-18)
(1.0003 -0.001383 -1.8357e-17)
(1.0003 -0.001552 -1.1479e-17)
(1.0039 -0.0011608 -2.602e-17)
(0.99309 -0.0020946 5.5539e-18)
(1.0207 0.0052781 1.1762e-17)
(0.98913 -0.0053207 -3.3292e-17)
(0.99917 0.012845 2.1953e-17)
(1.009 0.011575 -4.9691e-18)
(1.008 0.030756 2.6319e-18)
(0.99936 0.00022816 4.4897e-18)
(0.99946 -0.0004478 2.1399e-18)
(0.99974 -0.00096562 1.0962e-18)
(1.0003 -0.0014141 5.8218e-18)
(1.0003 -0.0015971 -2.5361e-18)
(1.004 -0.0011722 5.0433e-17)
(0.99295 -0.0022458 1.9941e-17)
(1.0206 0.0054491 -1.8298e-17)
(0.99026 -0.0054304 3.2041e-17)
(0.99898 0.012651 -8.1906e-18)
(1.0088 0.011488 -3.2765e-18)
(1.0083 0.030327 -1.3125e-18)
(0.99934 0.00023157 1.1014e-18)
(0.99944 -0.00045874 -1.355e-17)
(0.99972 -0.00098805 2.1943e-18)
(1.0003 -0.0014457 2.6148e-17)
(1.0003 -0.0016432 1.9623e-17)
(1.0042 -0.001183 -8.1376e-19)
(0.99283 -0.0024006 -2.7625e-17)
(1.0204 0.005613 5.5388e-18)
(0.99137 -0.0055246 -7.2259e-18)
(0.99885 0.012455 -1.1336e-17)
(1.0088 0.011386 8.3358e-18)
(1.0085 0.029894 1.2239e-18)
(0.99931 0.00023498 -4.3561e-18)
(0.99941 -0.0004699 -4.5176e-18)
(0.99971 -0.0010108 -1.1887e-17)
(1.0003 -0.0014777 -2.193e-17)
(1.0003 -0.0016904 -1.9746e-17)
(1.0043 -0.0011933 -2.2919e-17)
(0.99272 -0.0025588 5.1015e-18)
(1.0202 0.0057689 4.3077e-17)
(0.99244 -0.0056036 3.1492e-18)
(0.9988 0.012256 -9.8986e-19)
(1.0087 0.011271 -2.9429e-18)
(1.0087 0.029457 -3.2877e-18)
(0.99929 0.00023839 3.2326e-18)
(0.99939 -0.00048126 4.1962e-18)
(0.99969 -0.0010339 1.8319e-17)
(1.0003 -0.0015102 1.5189e-17)
(1.0003 -0.0017388 1.9211e-17)
(1.0044 -0.0012032 -8.5182e-19)
(0.99262 -0.0027198 -2.8424e-17)
(1.02 0.0059163 -2.3285e-17)
(0.99348 -0.0056679 7.8155e-18)
(0.9988 0.012057 3.9237e-18)
(1.0087 0.011143 6.6341e-18)
(1.009 0.029015 2.541e-18)
(0.99926 0.00024181 -2.283e-18)
(0.99936 -0.00049285 6.5833e-18)
(0.99967 -0.0010573 -1.2121e-17)
(1.0002 -0.0015432 2.1986e-18)
(1.0002 -0.0017883 8.9335e-18)
(1.0046 -0.0012128 -2.2406e-18)
(0.99253 -0.0028834 6.3816e-18)
(1.0198 0.0060543 6.4666e-18)
(0.99448 -0.0057181 2.5722e-18)
(0.99886 0.011857 9.699e-18)
(1.0087 0.011004 -7.9785e-18)
(1.0092 0.02857 5.1344e-19)
(0.99923 0.00024524 3.4471e-18)
(0.99934 -0.00050466 4.0803e-19)
(0.99965 -0.0010811 -5.6743e-18)
(1.0002 -0.0015767 8.7531e-19)
(1.0002 -0.0018389 -1.467e-18)
(1.0047 -0.0012222 -2.2135e-17)
(0.99245 -0.0030492 1.7819e-17)
(1.0196 0.0061825 2.2954e-17)
(0.99544 -0.005755 -1.2806e-17)
(0.99897 0.011658 -1.3496e-17)
(1.0087 0.010855 -2.3319e-18)
(1.0095 0.028123 4.3696e-18)
(0.9992 0.00024867 -2.5041e-18)
(0.99931 -0.0005167 -3.1425e-19)
(0.99964 -0.0011052 7.0547e-18)
(1.0002 -0.0016108 -1.681e-17)
(1.0002 -0.0018907 -1.3271e-17)
(1.0049 -0.0012315 2.7945e-17)
(0.99239 -0.0032167 -2.7251e-18)
(1.0194 0.0063003 -2.4303e-17)
(0.99636 -0.0057792 3.2625e-18)
(0.99913 0.01146 1.2706e-17)
(1.0088 0.010697 7.9043e-18)
(1.0097 0.027673 -1.5755e-18)
(0.99918 0.0002521 2.4886e-19)
(0.99929 -0.00052898 2.302e-18)
(0.99962 -0.0011297 3.855e-18)
(1.0002 -0.0016454 8.6899e-18)
(1.0002 -0.0019436 2.6015e-17)
(1.005 -0.0012408 6.5159e-18)
(0.99234 -0.0033856 -2.3729e-17)
(1.0191 0.0064073 2.2782e-18)
(0.99724 -0.0057918 8.4038e-18)
(0.99932 0.011263 -1.1448e-17)
(1.0089 0.01053 -5.344e-18)
(1.0099 0.027221 -1.8227e-18)
(0.99915 0.00025555 7.0664e-19)
(0.99926 -0.0005415 -4.0033e-19)
(0.9996 -0.0011545 -1.0172e-17)
(1.0002 -0.0016805 -1.8692e-19)
(1.0001 -0.0019976 -5.1437e-17)
(1.0052 -0.0012502 8.0344e-18)
(0.99229 -0.0035555 2.3309e-17)
(1.0188 0.006503 -6.5448e-18)
(0.99808 -0.0057935 -8.8004e-18)
(0.99954 0.011067 1.901e-17)
(1.009 0.010356 6.3937e-18)
(1.0102 0.026768 4.7239e-18)
(0.99912 0.00025901 7.5914e-19)
(0.99923 -0.00055427 -8.3089e-19)
(0.99957 -0.0011797 1.8398e-17)
(1.0002 -0.0017163 4.0085e-18)
(1.0001 -0.0020529 4.5584e-17)
(1.0053 -0.0012598 -2.8315e-17)
(0.99226 -0.0037259 -7.806e-18)
(1.0186 0.0065872 6.1609e-18)
(0.99888 -0.0057855 3.0322e-18)
(0.9998 0.010874 -1.0696e-17)
(1.0092 0.010176 -1.0352e-18)
(1.0104 0.026314 -3.4833e-18)
(0.99909 0.00026247 -2.9666e-18)
(0.99921 -0.0005673 1.3952e-18)
(0.99955 -0.0012053 -1.0814e-17)
(1.0002 -0.0017526 5.2712e-18)
(1.0001 -0.0021092 -1.7321e-17)
(1.0055 -0.0012699 3.8398e-18)
(0.99224 -0.0038967 3.1255e-17)
(1.0183 0.0066595 -2.3061e-17)
(0.99964 -0.0057685 -1.1146e-17)
(1.0001 0.010683 -1.058e-17)
(1.0093 0.0099902 -5.0837e-18)
(1.0107 0.025861 -9.5659e-19)
(0.99906 0.00026594 3.6955e-18)
(0.99918 -0.00058059 -3.3137e-18)
(0.99953 -0.0012313 -1.0495e-17)
(1.0002 -0.0017895 -8.4054e-18)
(1 -0.0021667 -2.8323e-17)
(1.0056 -0.0012804 -1.7811e-17)
(0.99223 -0.0040674 -1.9165e-17)
(1.018 0.00672 2.1444e-17)
(1.0004 -0.0057437 1.0805e-17)
(1.0004 0.010495 1.6022e-17)
(1.0095 0.0097994 -1.9897e-18)
(1.011 0.025407 4.6173e-18)
(0.99902 0.00026943 -5.9397e-18)
(0.99915 -0.00059414 5.3694e-18)
(0.99951 -0.0012576 2.5698e-17)
(1.0002 -0.0018271 -1.9827e-18)
(0.99999 -0.0022253 3.1336e-17)
(1.0058 -0.0012916 1.3423e-18)
(0.99223 -0.0042377 -1.8356e-17)
(1.0177 0.0067684 8.3946e-18)
(1.001 -0.0057121 -3.8967e-18)
(1.0007 0.010308 -3.3551e-18)
(1.0097 0.0096042 6.4555e-18)
(1.0112 0.024954 -3.1224e-18)
(0.99899 0.00027292 4.8676e-18)
(0.99912 -0.00060798 -7.2973e-18)
(0.99948 -0.0012844 -2.9964e-17)
(1.0002 -0.0018653 1.2971e-17)
(0.99996 -0.0022851 -2.2328e-17)
(1.0059 -0.0013037 2.4622e-17)
(0.99224 -0.0044073 5.9828e-18)
(1.0174 0.0068048 -7.9905e-18)
(1.0017 -0.0056746 -1.8702e-18)
(1.001 0.010124 -8.402e-18)
(1.01 0.0094054 -1.0524e-17)
(1.0115 0.024502 4.3159e-18)
(0.99896 0.00027643 -3.5857e-18)
(0.99909 -0.0006221 2.4266e-18)
(0.99946 -0.0013115 1.8207e-17)
(1.0002 -0.0019043 -1.7099e-17)
(0.99992 -0.0023459 3.5927e-17)
(1.006 -0.0013167 -1.9112e-17)
(0.99226 -0.0045759 3.4877e-18)
(1.0172 0.0068292 -1.2632e-17)
(1.0023 -0.0056323 6.1046e-18)
(1.0014 0.0099428 -1.1753e-18)
(1.0102 0.0092034 4.5047e-18)
(1.0118 0.024051 -1.9191e-18)
(0.99892 0.00027994 4.3979e-18)
(0.99905 -0.0006365 1.8893e-18)
(0.99944 -0.0013391 -1.214e-17)
(1.0002 -0.0019439 -3.4798e-19)
(0.99988 -0.0024079 -1.5851e-18)
(1.0062 -0.0013308 4.6218e-18)
(0.99228 -0.0047434 3.3121e-17)
(1.0169 0.0068416 8.6409e-18)
(1.0029 -0.005586 -1.8095e-17)
(1.0017 0.0097633 -6.093e-18)
(1.0104 0.0089986 -4.236e-18)
(1.0121 0.023602 2.0168e-18)
(0.99889 0.00028347 -5.0411e-18)
(0.99902 -0.00065121 -7.0016e-18)
(0.99941 -0.001367 5.0929e-18)
(1.0002 -0.0019843 1.4796e-17)
(0.99984 -0.0024709 -3.2594e-17)
(1.0063 -0.0013461 1.553e-17)
(0.99232 -0.0049096 -3.189e-17)