/*--------------------------------*- C++ -*----------------------------------*\
  =========                 |
  \\      /  F ield         | OpenFOAM: The Open Source CFD Toolbox
   \\    /   O peration     | Website:  https://openfoam.org
    \\  /    A nd           | Version:  6.0
     \\/     M anipulation  |
\*---------------------------------------------------------------------------*/
FoamFile
{
    version     2.0;
    format      ascii;
    class       volScalarField;
    location    "3.98";
    object      p;
}
// * * * * * * * * * * * * * * * * * * * * * * * * * * * * * * * * * * * * * //

dimensions      [0 2 -2 0 0 0 0];

internalField   nonuniform List<scalar> 
13500
(
0.098725
0.098893
0.098219
0.098027
0.096616
0.096494
0.095063
0.095812
0.096814
0.099681
0.12284
0.16405
0.098725
0.098893
0.098219
0.098028
0.096616
0.096495
0.095061
0.095812
0.09681
0.099742
0.12216
0.15899
0.098725
0.098894
0.098219
0.09803
0.096615
0.096496
0.095059
0.095812
0.096802
0.099785
0.12128
0.1545
0.098726
0.098896
0.098219
0.098032
0.096613
0.096498
0.095055
0.09581
0.096788
0.099804
0.12031
0.15099
0.098727
0.098898
0.09822
0.098034
0.096612
0.0965
0.09505
0.095807
0.096769
0.099808
0.11927
0.14802
0.098729
0.0989
0.098221
0.098037
0.096611
0.096502
0.095045
0.095803
0.096745
0.0998
0.1182
0.14538
0.098731
0.098903
0.098222
0.09804
0.096611
0.096503
0.095039
0.095799
0.096716
0.099779
0.11712
0.14298
0.098734
0.098906
0.098224
0.098043
0.09661
0.096505
0.095033
0.095794
0.096682
0.099743
0.11604
0.14077
0.098737
0.09891
0.098226
0.098047
0.09661
0.096507
0.095026
0.095787
0.096642
0.099694
0.11499
0.13873
0.098741
0.098914
0.098229
0.098051
0.09661
0.096508
0.095019
0.09578
0.096598
0.099632
0.11397
0.13683
0.098745
0.098919
0.098232
0.098055
0.09661
0.09651
0.095011
0.095772
0.096549
0.099556
0.11299
0.13504
0.098749
0.098924
0.098236
0.09806
0.09661
0.096512
0.095002
0.095763
0.096494
0.099469
0.11205
0.13336
0.098755
0.098929
0.09824
0.098065
0.09661
0.096514
0.094993
0.095753
0.096434
0.099372
0.11116
0.13176
0.09876
0.098935
0.098244
0.09807
0.096611
0.096515
0.094984
0.095742
0.096368
0.099265
0.1103
0.13024
0.098766
0.098942
0.098249
0.098076
0.096612
0.096517
0.094973
0.09573
0.096297
0.099151
0.10949
0.12879
0.098773
0.098949
0.098254
0.098082
0.096613
0.096519
0.094962
0.095717
0.096221
0.09903
0.10871
0.12741
0.09878
0.098956
0.09826
0.098088
0.096614
0.09652
0.094951
0.095703
0.096139
0.098904
0.10796
0.12609
0.098788
0.098964
0.098266
0.098095
0.096615
0.096522
0.094939
0.095687
0.096052
0.098775
0.10725
0.12482
0.098796
0.098973
0.098273
0.098102
0.096617
0.096524
0.094926
0.095671
0.09596
0.098644
0.10657
0.12359
0.098805
0.098981
0.09828
0.09811
0.096619
0.096526
0.094913
0.095653
0.095863
0.098512
0.10591
0.12242
0.098815
0.098991
0.098288
0.098117
0.096621
0.096527
0.094899
0.095635
0.095761
0.098379
0.10526
0.12128
0.098824
0.099001
0.098296
0.098126
0.096623
0.096529
0.094885
0.095615
0.095654
0.098246
0.10464
0.12018
0.098835
0.099011
0.098305
0.098134
0.096625
0.096531
0.09487
0.095594
0.095543
0.098115
0.10404
0.11911
0.098846
0.099022
0.098314
0.098143
0.096628
0.096533
0.094855
0.095571
0.095428
0.097985
0.10344
0.11807
0.098857
0.099033
0.098323
0.098152
0.096631
0.096535
0.094839
0.095548
0.09531
0.097856
0.10286
0.11706
0.09887
0.099045
0.098333
0.098162
0.096634
0.096537
0.094823
0.095522
0.095188
0.09773
0.10229
0.11608
0.098882
0.099058
0.098344
0.098172
0.096637
0.096538
0.094806
0.095496
0.095064
0.097605
0.10172
0.11512
0.098895
0.099071
0.098355
0.098183
0.096641
0.09654
0.094788
0.095468
0.094937
0.097481
0.10117
0.11418
0.098909
0.099084
0.098366
0.098193
0.096645
0.096542
0.09477
0.095439
0.094807
0.09736
0.10062
0.11326
0.098924
0.099098
0.098378
0.098205
0.096649
0.096544
0.094752
0.095408
0.094676
0.09724
0.10007
0.11236
0.098939
0.099113
0.098391
0.098216
0.096653
0.096546
0.094732
0.095376
0.094543
0.097121
0.099529
0.11148
0.098954
0.099128
0.098404
0.098228
0.096657
0.096548
0.094713
0.095342
0.09441
0.097002
0.098994
0.11062
0.09897
0.099144
0.098417
0.098241
0.096662
0.09655
0.094692
0.095307
0.094275
0.096885
0.098463
0.10977
0.098987
0.09916
0.098432
0.098254
0.096667
0.096552
0.094672
0.095271
0.09414
0.096767
0.097936
0.10894
0.099004
0.099177
0.098446
0.098267
0.096672
0.096555
0.09465
0.095233
0.094005
0.09665
0.097414
0.10812
0.099022
0.099194
0.098461
0.098281
0.096678
0.096557
0.094628
0.095194
0.093869
0.096532
0.096897
0.10732
0.099041
0.099212
0.098477
0.098295
0.096683
0.096559
0.094606
0.095154
0.093734
0.096413
0.096384
0.10653
0.09906
0.09923
0.098493
0.098309
0.096689
0.096561
0.094583
0.095113
0.0936
0.096294
0.095876
0.10576
0.09908
0.099249
0.09851
0.098324
0.096696
0.096563
0.094559
0.09507
0.093466
0.096173
0.095372
0.105
0.0991
0.099269
0.098527
0.098339
0.096702
0.096566
0.094534
0.095027
0.093332
0.096051
0.094875
0.10426
0.099121
0.099289
0.098545
0.098355
0.096709
0.096568
0.094509
0.094982
0.0932
0.095928
0.094382
0.10352
0.099143
0.09931
0.098564
0.098372
0.096716
0.096571
0.094484
0.094937
0.093068
0.095802
0.093895
0.10281
0.099165
0.099331
0.098583
0.098388
0.096723
0.096573
0.094458
0.094891
0.092937
0.095675
0.093415
0.1021
0.099188
0.099353
0.098602
0.098405
0.096731
0.096575
0.094431
0.094845
0.092808
0.095546
0.09294
0.10141
0.099212
0.099376
0.098622
0.098423
0.096739
0.096578
0.094403
0.094798
0.092679
0.095414
0.092471
0.10073
0.099236
0.099399
0.098643
0.098441
0.096747
0.096581
0.094375
0.09475
0.092551
0.09528
0.092009
0.10006
0.099261
0.099423
0.098664
0.098459
0.096756
0.096583
0.094346
0.094702
0.092424
0.095144
0.091554
0.099401
0.099286
0.099447
0.098686
0.098478
0.096765
0.096586
0.094316
0.094654
0.092298
0.095006
0.091106
0.098758
0.099312
0.099472
0.098709
0.098497
0.096774
0.096588
0.094286
0.094607
0.092173
0.094866
0.090664
0.098126
0.099339
0.099498
0.098732
0.098517
0.096783
0.096591
0.094255
0.094559
0.092048
0.094723
0.090229
0.097505
0.099367
0.099524
0.098755
0.098537
0.096793
0.096594
0.094224
0.094511
0.091924
0.094578
0.089801
0.096897
0.099395
0.099551
0.09878
0.098558
0.096803
0.096597
0.094191
0.094463
0.0918
0.094431
0.08938
0.0963
0.099424
0.099578
0.098804
0.098579
0.096814
0.096599
0.094159
0.094416
0.091677
0.094282
0.088967
0.095713
0.099453
0.099606
0.09883
0.098601
0.096825
0.096602
0.094125
0.09437
0.091554
0.09413
0.08856
0.095138
0.099483
0.099635
0.098856
0.098623
0.096836
0.096605
0.094091
0.094324
0.091432
0.093977
0.088161
0.094573
0.099514
0.099664
0.098883
0.098645
0.096847
0.096608
0.094056
0.094278
0.091309
0.093822
0.087768
0.094019
0.099545
0.099694
0.09891
0.098668
0.096859
0.096611
0.094021
0.094233
0.091186
0.093665
0.087382
0.093475
0.099577
0.099725
0.098938
0.098691
0.096871
0.096613
0.093986
0.094189
0.091064
0.093506
0.087004
0.092941
0.09961
0.099756
0.098966
0.098715
0.096884
0.096616
0.09395
0.094145
0.090941
0.093345
0.086631
0.092416
0.099644
0.099788
0.098995
0.098739
0.096897
0.096619
0.093913
0.094102
0.090818
0.093183
0.086266
0.091901
0.099678
0.09982
0.099025
0.098764
0.09691
0.096622
0.093876
0.09406
0.090694
0.09302
0.085907
0.091395
0.099713
0.099854
0.099055
0.098789
0.096924
0.096625
0.093839
0.094019
0.09057
0.092855
0.085555
0.090898
0.099748
0.099887
0.099086
0.098815
0.096938
0.096627
0.093801
0.093979
0.090446
0.092689
0.085208
0.09041
0.099785
0.099922
0.099118
0.098841
0.096952
0.09663
0.093763
0.093939
0.090321
0.092521
0.084868
0.08993
0.099822
0.099957
0.09915
0.098868
0.096967
0.096633
0.093725
0.0939
0.090195
0.092353
0.084534
0.089458
0.099859
0.099993
0.099183
0.098895
0.096982
0.096636
0.093686
0.093862
0.090069
0.092183
0.084206
0.088994
0.099898
0.10003
0.099217
0.098923
0.096998
0.096638
0.093648
0.093824
0.089943
0.092012
0.083884
0.088537
0.099937
0.10007
0.099251
0.098951
0.097014
0.096641
0.093609
0.093787
0.089816
0.091841
0.083567
0.088088
0.099977
0.1001
0.099286
0.098979
0.09703
0.096644
0.093571
0.093751
0.089689
0.091669
0.083255
0.087646
0.10002
0.10014
0.099321
0.099008
0.097047
0.096646
0.093532
0.093715
0.08956
0.091496
0.082949
0.087211
0.10006
0.10018
0.099357
0.099037
0.097064
0.096649
0.093493
0.09368
0.089432
0.091322
0.082648
0.086782
0.1001
0.10022
0.099394
0.099067
0.097082
0.096652
0.093455
0.093645
0.089303
0.091148
0.082352
0.08636
0.10014
0.10026
0.099431
0.099098
0.0971
0.096654
0.093416
0.09361
0.089174
0.090974
0.08206
0.085944
0.10019
0.1003
0.09947
0.099128
0.097119
0.096657
0.093378
0.093575
0.089044
0.090799
0.081774
0.085535
0.10023
0.10035
0.099508
0.09916
0.097137
0.09666
0.09334
0.093541
0.088914
0.090623
0.081492
0.085131
0.10028
0.10039
0.099548
0.099191
0.097157
0.096663
0.093302
0.093507
0.088784
0.090448
0.081214
0.084732
0.10032
0.10043
0.099588
0.099224
0.097176
0.096666
0.093264
0.093473
0.088654
0.090272
0.080941
0.08434
0.10037
0.10048
0.099629
0.099256
0.097197
0.096669
0.093227
0.093438
0.088523
0.090096
0.080672
0.083952
0.10041
0.10052
0.09967
0.09929
0.097217
0.096672
0.09319
0.093404
0.088393
0.089919
0.080407
0.08357
0.10046
0.10057
0.099712
0.099323
0.097238
0.096675
0.093153
0.093369
0.088262
0.089743
0.080147
0.083193
0.10051
0.10061
0.099755
0.099357
0.09726
0.096678
0.093116
0.093335
0.088131
0.089567
0.07989
0.08282
0.10056
0.10066
0.099799
0.099392
0.097281
0.096682
0.09308
0.093299
0.088001
0.08939
0.079636
0.082452
0.10061
0.10071
0.099843
0.099427
0.097304
0.096686
0.093045
0.093264
0.087871
0.089214
0.079387
0.082089
0.10066
0.10075
0.099888
0.099463
0.097326
0.09669
0.093009
0.093228
0.087741
0.089038
0.079141
0.081731
0.10071
0.1008
0.099934
0.099499
0.097349
0.096694
0.092974
0.093191
0.087611
0.088862
0.078899
0.081377
0.10076
0.10085
0.09998
0.099536
0.097373
0.096699
0.092939
0.093154
0.087482
0.088686
0.07866
0.081027
0.10082
0.1009
0.10003
0.099573
0.097397
0.096704
0.092905
0.093117
0.087353
0.08851
0.078424
0.080681
0.10087
0.10095
0.10007
0.09961
0.097421
0.096709
0.092871
0.093078
0.087225
0.088335
0.078192
0.080339
0.10092
0.10101
0.10012
0.099649
0.097446
0.096715
0.092837
0.093039
0.087097
0.08816
0.077963
0.080001
0.10098
0.10106
0.10017
0.099687
0.097471
0.096721
0.092804
0.093
0.08697
0.087985
0.077737
0.079667
0.10104
0.10111
0.10022
0.099726
0.097497
0.096728
0.092771
0.092959
0.086843
0.087811
0.077514
0.079337
0.10109
0.10117
0.10027
0.099766
0.097523
0.096735
0.092738
0.092918
0.086717
0.087636
0.077294
0.07901
0.10115
0.10122
0.10032
0.099807
0.097549
0.096743
0.092706
0.092876
0.086592
0.087463
0.077076
0.078687
0.10121
0.10128
0.10038
0.099847
0.097576
0.096751
0.092674
0.092834
0.086467
0.087289
0.076862
0.078368
0.10127
0.10133
0.10043
0.099889
0.097603
0.09676
0.092642
0.09279
0.086343
0.087116
0.076651
0.078052
0.10133
0.10139
0.10048
0.099931
0.097631
0.096769
0.09261
0.092746
0.08622
0.086944
0.076442
0.077739
0.10139
0.10145
0.10054
0.099973
0.097659
0.096779
0.092578
0.092701
0.086097
0.086771
0.076235
0.07743
0.10145
0.10151
0.10059
0.10002
0.097687
0.096789
0.092547
0.092655
0.085975
0.0866
0.076032
0.077124
0.10151
0.10157
0.10065
0.10006
0.097716
0.096801
0.092516
0.092608
0.085854
0.086428
0.075831
0.076821
0.10158
0.10163
0.10071
0.10011
0.097746
0.096813
0.092485
0.092561
0.085734
0.086257
0.075632
0.076521
0.10164
0.10169
0.10077
0.10015
0.097775
0.096825
0.092454
0.092513
0.085615
0.086087
0.075436
0.076224
0.10171
0.10175
0.10082
0.1002
0.097806
0.096839
0.092423
0.092463
0.085496
0.085917
0.075242
0.07593
0.10177
0.10182
0.10088
0.10024
0.097836
0.096853
0.092393
0.092414
0.085378
0.085748
0.07505
0.075639
0.10184
0.10188
0.10094
0.10029
0.097867
0.096868
0.092362
0.092363
0.085261
0.085578
0.07486
0.075351
0.10191
0.10195
0.10101
0.10034
0.097899
0.096883
0.092332
0.092311
0.085145
0.08541
0.074673
0.075065
0.10198
0.10201
0.10107
0.10039
0.097931
0.0969
0.092302
0.092259
0.08503
0.085241
0.074488
0.074782
0.10205
0.10208
0.10113
0.10044
0.097964
0.096917
0.092272
0.092206
0.084915
0.085074
0.074304
0.074502
0.10212
0.10215
0.10119
0.10049
0.097997
0.096935
0.092242
0.092153
0.084801
0.084906
0.074123
0.074224
0.10219
0.10222
0.10126
0.10054
0.09803
0.096954
0.092212
0.092098
0.084688
0.084739
0.073943
0.073949
0.10226
0.10229
0.10133
0.10059
0.098064
0.096974
0.092183
0.092043
0.084575
0.084572
0.073766
0.073676
0.10234
0.10236
0.10139
0.10064
0.098099
0.096994
0.092153
0.091987
0.084463
0.084406
0.07359
0.073405
0.10241
0.10244
0.10146
0.1007
0.098134
0.097015
0.092124
0.091931
0.084352
0.08424
0.073416
0.073136
0.10249
0.10251
0.10153
0.10075
0.09817
0.097037
0.092096
0.091874
0.084242
0.084074
0.073243
0.07287
0.10257
0.10258
0.1016
0.10081
0.098206
0.09706
0.092067
0.091817
0.084133
0.083908
0.073072
0.072605
0.10265
0.10266
0.10167
0.10086
0.098243
0.097084
0.092039
0.091758
0.084024
0.083743
0.072903
0.072343
0.10273
0.10274
0.10175
0.10092
0.098281
0.097109
0.092012
0.0917
0.083915
0.083578
0.072735
0.072082
0.10281
0.10282
0.10182
0.10098
0.098319
0.097134
0.091985
0.091641
0.083808
0.083413
0.072569
0.071824
0.10289
0.1029
0.10189
0.10104
0.098359
0.097161
0.091958
0.091581
0.083701
0.083249
0.072404
0.071567
0.10298
0.10298
0.10197
0.1011
0.098399
0.097188
0.091932
0.091521
0.083595
0.083084
0.07224
0.071312
0.10306
0.10306
0.10205
0.10117
0.098439
0.097216
0.091906
0.09146
0.083489
0.08292
0.072077
0.071058
0.10315
0.10315
0.10213
0.10123
0.098481
0.097245
0.091881
0.0914
0.083384
0.082756
0.071916
0.070806
0.10324
0.10324
0.10221
0.1013
0.098524
0.097275
0.091857
0.091339
0.08328
0.082592
0.071756
0.070555
0.10333
0.10333
0.10229
0.10137
0.098567
0.097306
0.091833
0.091277
0.083176
0.082428
0.071596
0.070306
0.10342
0.10342
0.10238
0.10144
0.098612
0.097337
0.09181
0.091216
0.083074
0.082264
0.071438
0.070058
0.10351
0.10351
0.10246
0.10151
0.098657
0.09737
0.091789
0.091154
0.082971
0.0821
0.071281
0.069811
0.10361
0.1036
0.10255
0.10158
0.098704
0.097404
0.091768
0.091092
0.08287
0.081936
0.071124
0.069565
0.10371
0.1037
0.10264
0.10165
0.098753
0.097439
0.091748
0.09103
0.082769
0.081772
0.070968
0.069321
0.10381
0.1038
0.10273
0.10173
0.098802
0.097475
0.091729
0.090968
0.082668
0.081609
0.070813
0.069077
0.10391
0.1039
0.10282
0.10181
0.098853
0.097512
0.091711
0.090906
0.082569
0.081445
0.070659
0.068834
0.10401
0.104
0.10292
0.10189
0.098905
0.097551
0.091695
0.090844
0.08247
0.081281
0.070506
0.068592
0.10412
0.1041
0.10301
0.10197
0.098959
0.09759
0.09168
0.090783
0.082372
0.081117
0.070352
0.068351
0.10423
0.10421
0.10311
0.10206
0.099015
0.097631
0.091666
0.090721
0.082275
0.080953
0.0702
0.06811
0.10434
0.10432
0.10322
0.10214
0.099072
0.097674
0.091654
0.09066
0.082178
0.08079
0.070048
0.06787
0.10445
0.10443
0.10332
0.10223
0.099132
0.097717
0.091644
0.0906
0.082083
0.080626
0.069896
0.06763
0.10457
0.10455
0.10343
0.10233
0.099193
0.097763
0.091635
0.090539
0.081988
0.080462
0.069745
0.067391
0.10469
0.10467
0.10354
0.10242
0.099257
0.097809
0.091628
0.09048
0.081894
0.080298
0.069594
0.067152
0.10481
0.10479
0.10365
0.10252
0.099323
0.097858
0.091623
0.090421
0.081801
0.080134
0.069443
0.066913
0.10493
0.10492
0.10377
0.10262
0.099391
0.097908
0.09162
0.090363
0.08171
0.07997
0.069292
0.066674
0.10506
0.10505
0.10388
0.10273
0.099462
0.097961
0.091619
0.090306
0.081619
0.079806
0.069142
0.066435
0.10519
0.10518
0.10401
0.10284
0.099536
0.098015
0.091621
0.090249
0.081529
0.079641
0.068991
0.066196
0.10533
0.10531
0.10413
0.10295
0.099613
0.098072
0.091625
0.090194
0.081441
0.079477
0.068841
0.065957
0.10547
0.10545
0.10426
0.10306
0.099693
0.09813
0.091631
0.09014
0.081354
0.079313
0.068691
0.065717
0.10561
0.1056
0.10439
0.10318
0.099776
0.098192
0.09164
0.090087
0.081268
0.07915
0.06854
0.065478
0.10576
0.10575
0.10453
0.10331
0.099862
0.098255
0.091652
0.090036
0.081183
0.078986
0.06839
0.065237
0.10591
0.1059
0.10467
0.10343
0.099953
0.098322
0.091667
0.089986
0.0811
0.078822
0.068239
0.064997
0.10607
0.10606
0.10482
0.10357
0.10005
0.098391
0.091685
0.089938
0.081019
0.078658
0.068088
0.064755
0.10623
0.10622
0.10497
0.1037
0.10015
0.098464
0.091707
0.089892
0.080939
0.078495
0.067937
0.064513
0.10639
0.10639
0.10513
0.10385
0.10025
0.098539
0.091731
0.089848
0.080861
0.078332
0.067786
0.06427
0.10656
0.10656
0.10529
0.10399
0.10035
0.098619
0.09176
0.089806
0.080784
0.078169
0.067634
0.064026
0.10674
0.10674
0.10545
0.10414
0.10047
0.098701
0.091792
0.089766
0.08071
0.078007
0.067482
0.063781
0.10692
0.10692
0.10562
0.1043
0.10058
0.098788
0.091828
0.089729
0.080637
0.077844
0.067329
0.063535
0.10711
0.10711
0.1058
0.10447
0.10071
0.098879
0.091868
0.089694
0.080567
0.077683
0.067176
0.063287
0.1073
0.10731
0.10598
0.10464
0.10083
0.098973
0.091913
0.089662
0.080499
0.077521
0.067023
0.063038
0.1075
0.10751
0.10617
0.10481
0.10097
0.099073
0.091962
0.089633
0.080433
0.077361
0.066869
0.062788
0.1077
0.10772
0.10637
0.10499
0.10111
0.099177
0.092016
0.089607
0.08037
0.0772
0.066715
0.062536
0.10792
0.10794
0.10657
0.10518
0.10125
0.099286
0.092075
0.089584
0.080309
0.077041
0.06656
0.062282
0.10814
0.10816
0.10678
0.10538
0.10141
0.099401
0.092139
0.089565
0.080251
0.076882
0.066404
0.062027
0.10836
0.10839
0.107
0.10559
0.10157
0.099521
0.092208
0.08955
0.080196
0.076724
0.066247
0.061769
0.1086
0.10863
0.10723
0.1058
0.10173
0.099646
0.092283
0.089538
0.080143
0.076566
0.06609
0.06151
0.10884
0.10888
0.10746
0.10602
0.10191
0.099778
0.092364
0.08953
0.080094
0.07641
0.065932
0.061248
0.10909
0.10914
0.1077
0.10625
0.10209
0.099916
0.092451
0.089526
0.080048
0.076254
0.065773
0.060984
0.10934
0.1094
0.10795
0.10648
0.10228
0.10006
0.092544
0.089527
0.080004
0.076099
0.065613
0.060717
0.10961
0.10967
0.10821
0.10673
0.10248
0.10021
0.092644
0.089532
0.079964
0.075945
0.065452
0.060448
0.10989
0.10996
0.10848
0.10698
0.10269
0.10037
0.09275
0.089542
0.079928
0.075793
0.06529
0.060175
0.11017
0.11025
0.10876
0.10725
0.1029
0.10054
0.092863
0.089557
0.079895
0.075641
0.065127
0.0599
0.11046
0.11055
0.10905
0.10752
0.10313
0.10071
0.092983
0.089577
0.079865
0.07549
0.064962
0.059622
0.11077
0.11087
0.10935
0.10781
0.10337
0.10089
0.093111
0.089601
0.07984
0.07534
0.064796
0.05934
0.11108
0.11119
0.10966
0.1081
0.10361
0.10108
0.093246
0.089631
0.079817
0.075191
0.064629
0.059054
0.1114
0.11152
0.10998
0.10841
0.10387
0.10128
0.09339
0.089667
0.079799
0.075043
0.064459
0.058765
0.11173
0.11187
0.11031
0.10873
0.10414
0.10149
0.09354
0.089708
0.079784
0.074896
0.064288
0.058471
0.11208
0.11222
0.11065
0.10906
0.10442
0.1017
0.0937
0.089755
0.079773
0.074749
0.064115
0.058173
0.11243
0.11259
0.11101
0.1094
0.10471
0.10193
0.093867
0.089807
0.079766
0.074604
0.063939
0.057871
0.1128
0.11297
0.11137
0.10975
0.10501
0.10216
0.094043
0.089865
0.079763
0.074459
0.063761
0.057563
0.11318
0.11336
0.11175
0.11011
0.10532
0.10241
0.094227
0.089929
0.079763
0.074314
0.063581
0.05725
0.11356
0.11377
0.11214
0.11049
0.10565
0.10266
0.09442
0.089999
0.079767
0.07417
0.063397
0.056932
0.11396
0.11418
0.11255
0.11088
0.10599
0.10293
0.094622
0.090074
0.079774
0.074026
0.06321
0.056608
0.11438
0.11461
0.11296
0.11128
0.10634
0.1032
0.094833
0.090156
0.079784
0.073882
0.06302
0.056277
0.1148
0.11505
0.1134
0.11169
0.1067
0.10349
0.095053
0.090243
0.079798
0.073738
0.062826
0.055939
0.11524
0.11551
0.11384
0.11212
0.10708
0.10378
0.095282
0.090335
0.079815
0.073593
0.062627
0.055595
0.11569
0.11598
0.1143
0.11256
0.10747
0.10409
0.09552
0.090434
0.079835
0.073447
0.062424
0.055242
0.11615
0.11646
0.11477
0.11302
0.10787
0.1044
0.095768
0.090537
0.079857
0.0733
0.062215
0.054881
0.11662
0.11695
0.11526
0.11349
0.10829
0.10473
0.096024
0.090646
0.079881
0.073152
0.062001
0.054512
0.11711
0.11746
0.11576
0.11397
0.10872
0.10507
0.096289
0.09076
0.079907
0.073001
0.06178
0.054133
0.11761
0.11798
0.11628
0.11447
0.10917
0.10542
0.096564
0.090879
0.079935
0.072848
0.061553
0.053744
0.11812
0.11852
0.11681
0.11498
0.10963
0.10578
0.096847
0.091002
0.079963
0.072691
0.061318
0.053345
0.11865
0.11907
0.11736
0.11551
0.1101
0.10616
0.09714
0.09113
0.079993
0.072531
0.061075
0.052934
0.11919
0.11964
0.11792
0.11606
0.1106
0.10654
0.097441
0.091262
0.080023
0.072367
0.060824
0.052511
0.11974
0.12022
0.11851
0.11661
0.1111
0.10694
0.097752
0.091397
0.080052
0.072198
0.060563
0.052075
0.12031
0.12082
0.1191
0.11719
0.11162
0.10735
0.098071
0.091536
0.080081
0.072023
0.060292
0.051625
0.1209
0.12143
0.11972
0.11778
0.11216
0.10777
0.098399
0.091679
0.080108
0.071842
0.060009
0.051161
0.1215
0.12206
0.12035
0.11839
0.11272
0.1082
0.098736
0.091824
0.080134
0.071654
0.059715
0.050682
0.12211
0.12271
0.121
0.11902
0.11329
0.10865
0.099082
0.091971
0.080157
0.071459
0.059408
0.050186
0.12275
0.12337
0.12168
0.11966
0.11388
0.1091
0.099437
0.092121
0.080178
0.071255
0.059087
0.049672
0.1234
0.12406
0.12237
0.12032
0.11449
0.10958
0.099801
0.092273
0.080194
0.071042
0.058751
0.049141
0.12406
0.12476
0.12308
0.12101
0.11512
0.11006
0.10017
0.092427
0.080207
0.070819
0.0584
0.04859
0.12475
0.12548
0.12382
0.12171
0.11577
0.11056
0.10056
0.092582
0.080216
0.070585
0.058032
0.048018
0.12546
0.12623
0.12458
0.12244
0.11644
0.11108
0.10095
0.092739
0.080219
0.070339
0.057646
0.047425
0.12619
0.127
0.12537
0.1232
0.11714
0.11161
0.10135
0.092898
0.080217
0.070081
0.057242
0.046808
0.12694
0.1278
0.12619
0.12398
0.11786
0.11216
0.10177
0.093058
0.080209
0.06981
0.056818
0.046168
0.12772
0.12862
0.12704
0.12479
0.1186
0.11273
0.1022
0.09322
0.080195
0.069525
0.056373
0.045502
0.12853
0.12948
0.12792
0.12563
0.11938
0.11332
0.10263
0.093384
0.080175
0.069226
0.055906
0.044809
0.12937
0.13036
0.12883
0.1265
0.12019
0.11393
0.10309
0.09355
0.080147
0.068911
0.055417
0.044089
0.13024
0.13129
0.12979
0.12741
0.12103
0.11457
0.10356
0.093719
0.080112
0.068579
0.054903
0.043338
0.13115
0.13225
0.13079
0.12837
0.12191
0.11524
0.10404
0.09389
0.080069
0.068231
0.054364
0.042557
0.13209
0.13325
0.13184
0.12937
0.12283
0.11593
0.10454
0.094066
0.080019
0.067864
0.053798
0.041742
0.13308
0.13431
0.13294
0.13041
0.12379
0.11666
0.10506
0.094244
0.07996
0.067479
0.053204
0.040893
0.13411
0.13541
0.13409
0.13151
0.1248
0.11742
0.1056
0.094428
0.079891
0.067073
0.052581
0.040008
0.13519
0.13657
0.1353
0.13267
0.12586
0.11822
0.10616
0.094615
0.079813
0.066645
0.051926
0.039085
0.13632
0.13778
0.13658
0.1339
0.12698
0.11905
0.10674
0.094807
0.079723
0.066194
0.051237
0.038122
0.13751
0.13907
0.13793
0.13519
0.12816
0.11994
0.10735
0.095003
0.079621
0.065717
0.050513
0.037116
0.13876
0.14042
0.13936
0.13656
0.1294
0.12087
0.10798
0.095202
0.079504
0.065212
0.04975
0.036064
0.14008
0.14184
0.14087
0.13801
0.13071
0.12184
0.10864
0.095404
0.07937
0.064676
0.048946
0.034965
0.14145
0.14335
0.14247
0.13954
0.13209
0.12287
0.10932
0.095607
0.079216
0.064104
0.048095
0.033814
0.1429
0.14494
0.14415
0.14116
0.13355
0.12395
0.11003
0.095807
0.079037
0.063493
0.047194
0.032608
0.14441
0.14661
0.14594
0.14288
0.13508
0.12509
0.11075
0.096003
0.078828
0.062836
0.046236
0.031342
0.146
0.14838
0.14783
0.14471
0.1367
0.12628
0.1115
0.096189
0.078583
0.062126
0.045216
0.03001
0.14765
0.15023
0.14982
0.14663
0.1384
0.12753
0.11226
0.09636
0.078296
0.061358
0.044125
0.028607
0.14938
0.15219
0.15192
0.14867
0.14019
0.12883
0.11304
0.09651
0.077958
0.06052
0.042956
0.027124
0.15117
0.15424
0.15414
0.15082
0.14206
0.13018
0.11382
0.096631
0.077559
0.059605
0.041699
0.025555
0.15303
0.15639
0.15647
0.15309
0.14403
0.13158
0.1146
0.096714
0.077089
0.058601
0.040344
0.023889
0.15495
0.15863
0.15892
0.15548
0.14608
0.13302
0.11538
0.096749
0.076536
0.057497
0.038879
0.022116
0.15692
0.16098
0.1615
0.15799
0.14822
0.13451
0.11613
0.096724
0.075889
0.05628
0.037293
0.020225
0.15895
0.16344
0.16422
0.16064
0.15045
0.13602
0.11686
0.096627
0.075132
0.054939
0.035573
0.018204
0.16103
0.16599
0.16707
0.16342
0.15277
0.13757
0.11755
0.096443
0.074253
0.053459
0.033708
0.016041
0.16315
0.16866
0.17008
0.16636
0.15518
0.13913
0.11819
0.096156
0.073235
0.051827
0.031683
0.013725
0.1653
0.17145
0.17326
0.16945
0.15769
0.14071
0.11876
0.095748
0.07206
0.050029
0.029489
0.011243
0.16749
0.17437
0.17663
0.17271
0.1603
0.14229
0.11924
0.095196
0.070709
0.048049
0.02711
0.0085857
0.16971
0.17743
0.18022
0.17617
0.16301
0.14385
0.11961
0.094474
0.069158
0.045868
0.024534
0.0057432
0.17195
0.18065
0.18405
0.17984
0.16584
0.14538
0.11984
0.093548
0.067377
0.043462
0.021746
0.0027065
0.17421
0.18405
0.18817
0.18376
0.16876
0.14686
0.11989
0.092376
0.06533
0.040805
0.018725
-0.00053398
0.17645
0.18765
0.19262
0.18794
0.17179
0.14824
0.11972
0.090905
0.062969
0.037859
0.015447
-0.0039894
0.17866
0.19147
0.19742
0.1924
0.1749
0.14949
0.11925
0.08907
0.060236
0.034577
0.01188
-0.0076743
0.18077
0.19551
0.20262
0.19716
0.17806
0.15052
0.11841
0.086788
0.057062
0.030903
0.0079845
-0.011608
0.1827
0.19976
0.20824
0.20219
0.1812
0.15126
0.1171
0.083968
0.053366
0.026773
0.0037129
-0.015815
0.18433
0.20418
0.21425
0.20747
0.18423
0.15158
0.11519
0.080501
0.049062
0.022119
-0.00098406
-0.020323
0.18547
0.2087
0.22062
0.2129
0.18702
0.15132
0.11254
0.076277
0.044065
0.016877
-0.0061506
-0.025156
0.1859
0.21319
0.22723
0.21833
0.18937
0.1503
0.109
0.071181
0.038302
0.011003
-0.011814
-0.030326
0.18531
0.21743
0.23389
0.22353
0.19102
0.14829
0.10439
0.065108
0.031719
0.0044784
-0.01797
-0.03582
0.18331
0.22109
0.24026
0.22812
0.19161
0.14501
0.098532
0.057964
0.024288
-0.0026774
-0.024575
-0.041588
0.17945
0.22368
0.24573
0.2315
0.19066
0.14012
0.091239
0.049674
0.016013
-0.010409
-0.031542
-0.047537
0.17324
0.22438
0.24929
0.23274
0.18749
0.13324
0.082331
0.040193
0.0069235
-0.018631
-0.038749
-0.053541
0.16422
0.22198
0.24927
0.23036
0.18114
0.12387
0.071645
0.029517
-0.00291
-0.027237
-0.04606
-0.059458
0.15206
0.21457
0.24294
0.22207
0.17025
0.11145
0.059059
0.01772
-0.013359
-0.036094
-0.053338
-0.065159
0.13677
0.19948
0.22622
0.20452
0.15293
0.095251
0.044491
0.0049736
-0.024202
-0.045017
-0.060442
-0.070541
0.11912
0.17339
0.19366
0.17319
0.12667
0.074307
0.027819
-0.0085022
-0.035147
-0.053773
-0.067224
-0.075536
0.10089
0.13327
0.13955
0.12305
0.088511
0.047344
0.0087077
-0.022605
-0.045943
-0.062132
-0.07355
-0.080108
0.084437
0.076749
0.06005
0.050317
0.035694
0.012814
-0.013535
-0.037537
-0.056552
-0.069999
-0.079367
-0.08429
0.072808
-0.00086113
-0.049543
-0.048488
-0.034867
-0.03162
-0.040363
-0.054122
-0.067437
-0.077659
-0.084906
-0.088344
0.080308
-0.091895
-0.18328
-0.16882
-0.12192
-0.086957
-0.073383
-0.073859
-0.079859
-0.086147
-0.091028
-0.093034
0.1196
-0.17367
-0.31464
-0.28701
-0.20885
-0.14422
-0.10882
-0.095599
-0.093738
-0.095698
-0.098037
-0.098533
0.10286
0.063487
0.05339
0.047376
0.043231
0.040133
0.037661
0.035542
0.033731
0.031907
0.030452
0.02807
0.12222
0.078756
0.06621
0.05821
0.052755
0.048731
0.045548
0.042843
0.040554
0.038252
0.03647
0.033691
0.10956
0.07365
0.062297
0.054424
0.04904
0.045086
0.041979
0.039353
0.037155
0.034938
0.033283
0.030587
0.1045
0.07331
0.062287
0.054324
0.048804
0.044738
0.041546
0.038853
0.036614
0.034351
0.032695
0.029876
0.10385
0.075459
0.064278
0.056101
0.050336
0.046066
0.042708
0.039874
0.037526
0.035152
0.033428
0.030453
0.10318
0.07725
0.065999
0.05769
0.051729
0.047283
0.043777
0.040818
0.03837
0.035898
0.034107
0.03102
0.10204
0.078507
0.067331
0.058974
0.052867
0.048277
0.044646
0.041581
0.039046
0.036497
0.034646
0.031491
0.10083
0.079531
0.06852
0.060165
0.053946
0.049229
0.045483
0.04232
0.039704
0.03709
0.035182
0.031998
0.099696
0.080411
0.069633
0.061324
0.055022
0.050192
0.046339
0.043082
0.040388
0.037719
0.035759
0.032583
0.09861
0.081138
0.070656
0.062436
0.056085
0.05116
0.047209
0.043867
0.041099
0.038385
0.036377
0.033245
0.097557
0.081712
0.071578
0.063489
0.057125
0.052126
0.04809
0.04467
0.041835
0.039086
0.037037
0.033983
0.096534
0.082147
0.072397
0.064475
0.058131
0.053082
0.048976
0.04549
0.042594
0.039821
0.037739
0.034793
0.095544
0.082459
0.073115
0.065386
0.059095
0.054021
0.049863
0.046322
0.043374
0.040587
0.038479
0.035665
0.094588
0.082664
0.073734
0.066221
0.06001
0.054934
0.05074
0.047159
0.044169
0.041377
0.039252
0.036587
0.093668
0.082777
0.07426
0.066975
0.060868
0.055812
0.051601
0.047992
0.04497
0.042184
0.040047
0.037543
0.092785
0.082814
0.074699
0.067651
0.061665
0.056649
0.052437
0.048814
0.045771
0.042997
0.040854
0.038515
0.091939
0.082786
0.075059
0.068251
0.062399
0.057439
0.053241
0.049616
0.046561
0.043808
0.041664
0.039486
0.091132
0.082704
0.075347
0.068778
0.06307
0.058179
0.054008
0.050393
0.047336
0.044608
0.042466
0.040439
0.090361
0.08258
0.075572
0.069237
0.063679
0.058868
0.054735
0.051139
0.048087
0.045389
0.043251
0.041362
0.089625
0.08242
0.07574
0.069634
0.064228
0.059505
0.055419
0.051851
0.04881
0.046144
0.044012
0.042242
0.088924
0.082232
0.075859
0.069973
0.06472
0.06009
0.056058
0.052525
0.049502
0.046869
0.044743
0.04307
0.088255
0.082022
0.075935
0.07026
0.065159
0.060627
0.056654
0.053161
0.050159
0.047558
0.045439
0.043842
0.087616
0.081794
0.075973
0.070501
0.065549
0.061115
0.057207
0.053757
0.05078
0.04821
0.046098
0.044553
0.087006
0.081552
0.075979
0.070699
0.065893
0.061559
0.057717
0.054313
0.051364
0.048823
0.046717
0.045203
0.086423
0.081299
0.075957
0.07086
0.066194
0.06196
0.058187
0.054831
0.051911
0.049396
0.047297
0.045793
0.085864
0.081039
0.07591
0.070986
0.066458
0.062322
0.058618
0.055311
0.052423
0.04993
0.047837
0.046326
0.085328
0.080772
0.075843
0.071083
0.066686
0.062647
0.059012
0.055755
0.052899
0.050426
0.048339
0.046805
0.084812
0.0805
0.075757
0.071153
0.066882
0.062938
0.059373
0.056164
0.053341
0.050885
0.048805
0.047234
0.084316
0.080226
0.075656
0.071198
0.067049
0.063198
0.059701
0.056541
0.053751
0.051308
0.049235
0.047618
0.083838
0.07995
0.075541
0.071223
0.067189
0.063428
0.059999
0.056886
0.054131
0.051699
0.049632
0.047963
0.083377
0.079673
0.075415
0.071228
0.067306
0.063631
0.060269
0.057203
0.054481
0.052058
0.049999
0.048273
0.082931
0.079395
0.075278
0.071216
0.0674
0.063809
0.060513
0.057492
0.054804
0.052389
0.050337
0.048551
0.082499
0.079118
0.075134
0.071189
0.067475
0.063965
0.060733
0.057756
0.055101
0.052692
0.050649
0.048804
0.082081