/*--------------------------------*- C++ -*----------------------------------*\
  =========                 |
  \\      /  F ield         | OpenFOAM: The Open Source CFD Toolbox
   \\    /   O peration     | Website:  https://openfoam.org
    \\  /    A nd           | Version:  6.0
     \\/     M anipulation  |
\*---------------------------------------------------------------------------*/
FoamFile
{
    version     2.0;
    format      ascii;
    class       volVectorField;
    location    "3.98";
    object      U;
}
// * * * * * * * * * * * * * * * * * * * * * * * * * * * * * * * * * * * * * //

dimensions      [0 1 -1 0 0 0 0];

internalField   nonuniform List<vector> 
13500
(
(1 3.0984e-06 -4.2955e-18)
(1 -3.2203e-06 2.9107e-18)
(1 -5.6941e-06 -1.2497e-17)
(1 -1.0436e-05 -8.6639e-18)
(1 -9.7771e-06 1.6245e-17)
(1 -9.2136e-06 3.0292e-17)
(1 -2.6913e-06 2.5879e-17)
(0.99998 1.5125e-05 -4.1694e-18)
(0.99993 3.5313e-05 1.5313e-17)
(0.9998 7.4384e-05 3.2465e-18)
(0.99571 0.00075845 2.8666e-17)
(1.019 0.010844 7.713e-18)
(1 9.3623e-06 2.6612e-18)
(1 -8.2349e-06 -8.8397e-18)
(1 -1.4653e-05 5.9678e-18)
(1 -2.8159e-05 -3.4179e-19)
(1 -2.4245e-05 -4.3324e-19)
(1 -2.3616e-05 -3.6425e-17)
(1 -1.2136e-06 -4.4698e-17)
(0.99993 4.975e-05 -2.3856e-17)
(0.99976 0.00011854 -1.5283e-17)
(0.99983 0.00018592 -1.6053e-18)
(0.98614 0.0021966 -1.3575e-17)
(1.0534 0.030657 -4.6701e-18)
(1 1.5688e-05 -3.4372e-18)
(1 -1.3433e-05 1.7563e-17)
(1 -2.3741e-05 3.1041e-18)
(1 -4.6377e-05 9.9893e-18)
(1 -3.8918e-05 -3.746e-18)
(1 -3.8881e-05 2.9178e-17)
(1 3.8725e-07 -6.2916e-18)
(0.99989 8.3441e-05 5.4191e-18)
(0.99957 0.00020927 -1.854e-17)
(1.0003 0.0003136 2.4389e-17)
(0.97591 0.0032839 -7.098e-18)
(1.082 0.045214 1.6373e-18)
(1 2.2036e-05 8.9856e-18)
(1 -1.8994e-05 -1.7027e-17)
(1 -3.3284e-05 -1.4714e-17)
(1 -6.5425e-05 -7.0092e-19)
(1 -5.4383e-05 5.7827e-18)
(1 -5.5169e-05 -8.0964e-19)
(1 1.3743e-06 6.1992e-17)
(0.99985 0.00011583 9.7634e-18)
(0.99934 0.00030653 2.1924e-17)
(1.0013 0.00046146 -8.8345e-18)
(0.96542 0.0040466 3.4565e-17)
(1.1033 0.055788 -7.4525e-18)
(1 2.8391e-05 -6.3137e-18)
(1 -2.4594e-05 1.4716e-17)
(1 -4.2871e-05 1.2526e-17)
(1 -8.4586e-05 1.2785e-17)
(1 -6.9913e-05 2.8354e-18)
(1.0001 -7.1596e-05 2.1446e-17)
(1 2.425e-06 -2.7683e-17)
(0.99983 0.00014731 1.9831e-18)
(0.99907 0.00040946 -1.3443e-17)
(1.0026 0.00063155 -2.108e-18)
(0.95505 0.004535 -8.9644e-18)
(1.1173 0.063509 2.0666e-18)
(0.99999 3.4756e-05 6.3896e-18)
(1 -3.0232e-05 -6.1008e-18)
(1 -5.2506e-05 3.8253e-18)
(1 -0.00010385 -2.5327e-17)
(1.0001 -8.5519e-05 -8.3074e-20)
(1.0001 -8.8174e-05 -4.2456e-17)
(1 3.5357e-06 1.0622e-18)
(0.99981 0.00017771 -1.5918e-17)
(0.99874 0.00051662 5.119e-18)
(1.0044 0.00083053 -2.1239e-17)
(0.94516 0.0047911 -2.1582e-17)
(1.1248 0.068989 1.9972e-18)
(0.99999 4.1134e-05 -1.0577e-18)
(1 -3.5913e-05 -7.2966e-18)
(1 -6.2185e-05 -3.1089e-18)
(1.0001 -0.00012323 1.9116e-17)
(1.0001 -0.00010119 -2.6262e-17)
(1.0001 -0.00010494 1.6245e-17)
(1 4.7485e-06 1.8515e-17)
(0.99981 0.00020695 5.6005e-18)
(0.99834 0.00062668 1.1444e-17)
(1.0065 0.0010648 1.1434e-17)
(0.93604 0.0048525 9.298e-18)
(1.1266 0.072653 3.2051e-18)
(0.99999 4.7526e-05 -2.1831e-18)
(1 -4.1641e-05 -1.4354e-18)
(1 -7.1911e-05 -2.6782e-17)
(1.0001 -0.00014275 -9.1284e-18)
(1.0001 -0.00011693 7.3505e-18)
(1.0001 -0.00012191 2.6623e-17)
(1 6.08e-06 1.1785e-17)
(0.99982 0.00023495 4.9998e-18)
(0.99787 0.00073827 -7.48e-18)
(1.0088 0.0013382 1.6015e-17)
(0.92791 0.0047557 7.5094e-18)
(1.1238 0.074862 -1.0191e-17)
(0.99999 5.3932e-05 -6.7771e-18)
(1 -4.7417e-05 6.1711e-18)
(1 -8.1686e-05 4.5031e-17)
(1.0001 -0.0001624 -1.0949e-17)
(1.0001 -0.00013274 2.7526e-17)
(1.0001 -0.0001391 -5.2564e-17)
(1.0001 7.5322e-06 -3.9257e-17)
(0.99985 0.00026166 9.7157e-18)
(0.99732 0.00085003 -5.6181e-18)
(1.0114 0.0016521 -8.8327e-18)
(0.92094 0.0045349 -1.3875e-17)
(1.1173 0.075922 1.3331e-17)
(0.99999 6.0353e-05 4.465e-18)
(1 -5.3243e-05 2.3229e-18)
(1 -9.1513e-05 -3.8144e-17)
(1.0001 -0.00018218 1.5583e-17)
(1.0001 -0.00014863 -1.2004e-17)
(1.0001 -0.00015653 2.2419e-17)
(1.0001 9.1059e-06 1.3951e-17)
(0.9999 0.00028707 2.4564e-18)
(0.99669 0.00096066 5.3048e-19)
(1.0142 0.0020062 1.399e-18)
(0.91523 0.0042223 4.4143e-18)
(1.108 0.076084 -6.9891e-19)
(0.99998 6.6788e-05 -2.4515e-18)
(1 -5.9121e-05 -7.6183e-18)
(1 -0.00010139 9.3503e-18)
(1.0001 -0.00020211 -2.7496e-18)
(1.0001 -0.00016461 1.8529e-18)
(1.0002 -0.00017422 -2.457e-17)
(1.0001 1.0803e-05 -3.2131e-17)
(0.99997 0.00031117 -3.1196e-17)
(0.99598 0.0010689 1.5704e-17)
(1.017 0.0023986 1.817e-18)
(0.91082 0.0038471 -1.1197e-17)
(1.0969 0.075556 -5.7436e-18)
(0.99998 7.3236e-05 3.3837e-18)
(0.99999 -6.5052e-05 2.8775e-18)
(1 -0.00011133 4.5063e-18)
(1.0001 -0.00022219 -2.1914e-18)
(1.0001 -0.00018068 -5.5544e-18)
(1.0002 -0.00019219 9.2929e-18)
(1.0001 1.2622e-05 1.86e-17)
(1.0001 0.000334 1.9272e-17)
(0.99518 0.0011737 1.009e-17)
(1.02 0.0028259 -2.2949e-17)
(0.90773 0.0034355 1.1726e-19)
(1.0845 0.074508 -6.6476e-18)
(0.99998 7.9698e-05 -3.3832e-18)
(0.99999 -7.1038e-05 5.6588e-18)
(1 -0.00012134 8.1702e-18)
(1.0001 -0.00024242 5.7217e-18)
(1.0001 -0.00019685 -5.1517e-18)
(1.0002 -0.00021044 4.5686e-18)
(1.0001 1.4562e-05 4.2413e-18)
(1.0002 0.0003556 -1.721e-18)
(0.9943 0.001274 -1.6308e-17)
(1.0229 0.0032842 2.1281e-17)
(0.90591 0.0030105 1.0431e-19)
(1.0716 0.073079 1.4241e-18)
(0.99997 8.6173e-05 5.1448e-18)
(0.99999 -7.7079e-05 -4.4173e-18)
(1 -0.0001314 7.1532e-19)
(1.0001 -0.00026281 -4.7733e-18)
(1.0002 -0.00021312 1.17e-17)
(1.0002 -0.00022901 5.5746e-18)
(1.0001 1.6616e-05 1.7066e-17)
(1.0003 0.00037606 -6.3922e-18)
(0.99334 0.0013689 -1.9924e-19)
(1.0258 0.0037687 5.2255e-18)
(0.9053 0.0025918 1.6998e-17)
(1.0585 0.071382 9.0837e-19)
(0.99997 9.2661e-05 1.2409e-18)
(0.99999 -8.3177e-05 9.8037e-18)
(1 -0.00014154 1.3663e-17)
(1.0001 -0.00028337 -4.7594e-18)
(1.0002 -0.00022951 8.472e-18)
(1.0002 -0.00024791 -2.6024e-18)
(1.0001 1.8776e-05 -2.9889e-17)
(1.0005 0.00039546 2.0234e-17)
(0.99231 0.0014575 -1.839e-17)
(1.0286 0.0042741 -3.0142e-17)
(0.9058 0.0021962 -3.7309e-18)
(1.0457 0.06951 8.4147e-19)
(0.99996 9.916e-05 -3.1657e-18)
(0.99998 -8.9333e-05 -1.0426e-17)
(1 -0.00015174 -3.2793e-17)
(1.0001 -0.00030409 8.0183e-18)
(1.0002 -0.00024601 -1.2856e-17)
(1.0003 -0.00026716 8.3444e-18)
(1.0001 2.1028e-05 -2.7966e-18)
(1.0007 0.00041393 -1.218e-17)
(0.9912 0.0015393 4.0382e-18)
(1.0312 0.0047952 1.7999e-17)
(0.90732 0.001837 -7.8318e-18)
(1.0335 0.067536 1.168e-17)
(0.99996 0.00010567 3.3311e-19)
(0.99998 -9.5548e-05 7.7981e-18)
(1 -0.00016202 2.2641e-17)
(1.0001 -0.00032498 -1.806e-18)
(1.0002 -0.00026263 -1.2773e-17)
(1.0003 -0.00028678 -1.555e-17)
(1.0001 2.3355e-05 1.0682e-17)
(1.0009 0.00043158 6.9861e-18)
(0.99003 0.0016136 2.3339e-17)
(1.0337 0.0053266 -2.5198e-18)
(0.90975 0.0015246 1.9464e-18)
(1.0222 0.065518 -4.6602e-18)
(0.99995 0.00011219 -1.8689e-18)
(0.99998 -0.00010182 -9.449e-18)
(1 -0.00017238 -1.0216e-17)
(1.0001 -0.00034606 6.0351e-18)
(1.0002 -0.00027939 -7.1736e-18)
(1.0003 -0.00030679 -1.2474e-17)
(1.0001 2.5738e-05 1.0385e-17)
(1.0012 0.00044858 -4.7391e-18)
(0.98881 0.00168 -2.8881e-17)
(1.0361 0.0058632 -1.412e-17)
(0.91296 0.0012668 8.4487e-18)
(1.0118 0.063504 -5.0533e-18)
(0.99995 0.00011872 -2.6761e-18)
(0.99997 -0.00010816 -3.5715e-18)
(1 -0.00018283 -7.5715e-19)
(1.0001 -0.00036732 -2.6428e-17)
(1.0002 -0.00029628 6.0187e-18)
(1.0003 -0.0003272 5.4312e-18)
(1.0001 2.8151e-05 -1.9733e-17)
(1.0015 0.00046507 -1.6182e-17)
(0.98753 0.0017379 4.2249e-18)
(1.0382 0.0064002 -1.0596e-18)
(0.91684 0.0010684 -9.756e-18)
(1.0026 0.061528 9.5579e-19)
(0.99994 0.00012526 3.4809e-18)
(0.99997 -0.00011456 1.6372e-17)
(1 -0.00019336 1.9497e-17)
(1.0001 -0.00038877 2.4883e-18)
(1.0002 -0.00031332 1.6639e-17)
(1.0003 -0.00034804 9.5187e-18)
(1.0001 3.0563e-05 2.8483e-18)
(1.0018 0.00048123 1.7712e-17)
(0.98621 0.0017872 2.0987e-17)
(1.04 0.0069331 1.686e-17)
(0.92126 0.00093239 7.2832e-18)
(0.99456 0.059617 1.1339e-18)
(0.99994 0.0001318 -1.6592e-18)
(0.99996 -0.00012103 -3.9283e-18)
(1 -0.00020398 -2.0772e-17)
(1.0002 -0.00041042 -2.3573e-18)
(1.0002 -0.0003305 -1.2611e-17)
(1.0004 -0.00036933 -5.1508e-18)
(1.0001 3.2941e-05 -1.8279e-18)
(1.0022 0.00049723 -1.6016e-17)
(0.98487 0.0018274 -2.0067e-17)
(1.0417 0.0074578 8.64e-18)
(0.92613 0.00085941 5.0117e-19)
(0.9877 0.057791 6.5066e-19)
(0.99993 0.00013836 4.398e-18)
(0.99996 -0.00012756 -5.1325e-18)
(1 -0.0002147 -1.9483e-17)
(1.0002 -0.00043226 4.4805e-17)
(1.0002 -0.00034784 1.8294e-17)
(1.0004 -0.00039108 -1.2604e-17)
(1 3.5246e-05 2.4576e-17)
(1.0026 0.00051327 2.1647e-17)
(0.9835 0.0018586 3.2561e-17)
(1.043 0.0079707 -3.1664e-17)
(0.93132 0.00084858 -1.3379e-17)
(0.98202 0.056062 1.7143e-19)
(0.99992 0.00014492 -3.2192e-18)
(0.99995 -0.00013415 -1.03e-18)
(1 -0.00022551 3.3262e-17)
(1.0002 -0.00045432 -3.3871e-17)
(1.0003 -0.00036535 -1.7609e-18)
(1.0004 -0.00041332 4.1762e-17)
(1 3.7433e-05 7.6161e-18)
(1.0031 0.00052953 -3.3434e-18)
(0.98212 0.0018805 -2.0193e-17)
(1.0441 0.0084686 3.7313e-17)
(0.93674 0.00089759 -5.6695e-18)
(0.97746 0.054438 -2.7268e-19)
(0.99992 0.00015149 -1.6412e-18)
(0.99995 -0.00014082 -2.0525e-18)
(1 -0.00023643 1.7324e-18)
(1.0002 -0.00047659 3.5239e-17)
(1.0003 -0.00038303 -9.9289e-18)
(1.0004 -0.00043605 -3.0869e-17)
(0.99996 3.9455e-05 -1.9418e-17)
(1.0035 0.00054621 -3.6004e-18)
(0.98074 0.001893 6.385e-18)
(1.045 0.0089488 -3.1474e-17)
(0.94231 0.001003 9.4949e-18)
(0.97396 0.052925 2.9546e-18)
(0.99991 0.00015806 2.7122e-18)
(0.99994 -0.00014756 1.4285e-17)
(1 -0.00024745 -1.2775e-17)
(1.0002 -0.00049908 -3.6891e-18)
(1.0003 -0.00040089 -1.9056e-17)
(1.0005 -0.00045931 3.3586e-17)
(0.99991 4.1258e-05 -1.7046e-17)
(1.0041 0.0005635 1.4929e-17)
(0.97937 0.0018962 -1.9677e-18)
(1.0455 0.009409 2.9506e-17)
(0.94793 0.0011606 -9.2689e-18)
(0.97145 0.051522 -4.93e-18)
(0.9999 0.00016464 -5.2019e-19)
(0.99994 -0.00015437 -8.2158e-18)
(1 -0.00025859 -1.7889e-17)
(1.0002 -0.0005218 -1.011e-17)
(1.0003 -0.00041893 1.8483e-17)
(1.0005 -0.00048309 -4.2829e-17)
(0.99985 4.2785e-05 -2.6303e-18)
(1.0046 0.00058159 -2.0169e-17)
(0.97802 0.00189 3.1781e-18)
(1.0458 0.0098473 -8.5103e-18)
(0.95354 0.0013654 9.8657e-18)
(0.96985 0.050228 2.0909e-18)
(0.9999 0.00017122 2.7253e-18)
(0.99993 -0.00016125 -8.801e-18)
(1 -0.00026984 -1.7678e-18)
(1.0002 -0.00054475 2.4573e-18)
(1.0003 -0.00043717 5.8501e-18)
(1.0005 -0.00050743 1.2375e-17)
(0.99978 4.3973e-05 4.3124e-17)
(1.0052 0.00060067 2.4105e-18)
(0.9767 0.0018747 5.1783e-18)
(1.0458 0.010262 9.3782e-18)
(0.95907 0.0016123 -8.4405e-18)
(0.96904 0.04904 1.6051e-18)
(0.99989 0.0001778 -1.5626e-18)
(0.99992 -0.00016821 8.793e-18)
(1 -0.00028121 2.5429e-17)
(1.0002 -0.00056794 -2.4756e-17)
(1.0003 -0.00045561 -9.1001e-18)
(1.0006 -0.00053234 -2.1784e-18)
(0.99969 4.4757e-05 -1.4214e-17)
(1.0058 0.00062093 1.8704e-18)
(0.97542 0.0018502 -8.9728e-18)
(1.0456 0.010652 -3.4474e-18)
(0.96447 0.0018956 -2.4011e-19)
(0.96895 0.047952 -1.9617e-18)
(0.99988 0.00018439 -1.6796e-18)
(0.99992 -0.00017524 5.2635e-18)
(1 -0.0002927 -6.1481e-19)
(1.0002 -0.00059138 8.2088e-18)
(1.0003 -0.00047426 -1.6792e-17)
(1.0006 -0.00055783 2.4644e-17)
(0.9996 4.5066e-05 7.0898e-18)
(1.0065 0.00064252 -1.7842e-17)
(0.97419 0.0018169 -1.1504e-17)
(1.0451 0.011017 -1.3646e-17)
(0.96968 0.0022098 1.3369e-18)
(0.96948 0.046959 -3.593e-18)
(0.99987 0.00019098 5.837e-19)
(0.99991 -0.00018236 -1.257e-17)
(1 -0.00030432 1.5748e-17)
(1.0002 -0.00061506 2.2707e-17)
(1.0003 -0.00049313 3.2912e-17)
(1.0007 -0.00058391 -1.8099e-17)
(0.99949 4.4825e-05 -1.7627e-17)
(1.0072 0.00066561 3.6204e-18)
(0.97302 0.0017748 1.0779e-17)
(1.0443 0.011356 1.0681e-17)
(0.97467 0.0025494 6.2289e-18)
(0.97053 0.046053 3.571e-18)
(0.99986 0.00019757 1.1187e-18)
(0.9999 -0.00018955 9.9962e-18)
(1 -0.00031607 -3.6181e-17)
(1.0002 -0.00063901 -3.2895e-18)
(1.0003 -0.00051224 -2.7341e-17)
(1.0007 -0.00061061 -1.1402e-17)
(0.99938 4.3958e-05 2.4801e-20)
(1.0079 0.00069036 -4.1423e-18)
(0.97191 0.0017243 -2.1236e-17)
(1.0434 0.011668 -1.7053e-17)
(0.9794 0.0029089 -8.5093e-18)
(0.97201 0.045228 -1.7591e-18)
(0.99985 0.00020416 -7.2504e-19)
(0.99989 -0.00019683 -6.5013e-18)
(0.99999 -0.00032797 2.8469e-17)
(1.0002 -0.00066322 -3.1395e-17)
(1.0003 -0.00053157 -2.057e-18)
(1.0008 -0.00063792 2.4281e-17)
(0.99924 4.2382e-05 7.0529e-19)
(1.0087 0.00071688 3.9495e-18)
(0.97088 0.0016657 1.859e-17)
(1.0422 0.011954 2.2167e-17)
(0.98385 0.0032832 4.8676e-18)
(0.97384 0.044476 -9.8206e-19)
(0.99984 0.00021076 -1.8877e-18)
(0.99989 -0.00020419 -2.3978e-18)
(0.99999 -0.00034 -1.2621e-17)
(1.0002 -0.0006877 1.564e-17)
(1.0004 -0.00055116 3.0051e-17)
(1.0008 -0.00066587 -1.0732e-17)
(0.9991 4.0013e-05 2.1954e-17)
(1.0094 0.00074531 2.9606e-18)
(0.96993 0.0015993 -2.1056e-18)
(1.0409 0.012213 1.0027e-17)
(0.988 0.0036674 -5.4413e-18)
(0.97594 0.043789 -6.838e-19)
(0.99983 0.00021735 4.7207e-19)
(0.99988 -0.00021163 -6.3412e-18)
(0.99998 -0.00035218 4.725e-18)
(1.0002 -0.00071246 -1.5941e-17)
(1.0004 -0.000571 -3.1787e-17)
(1.0009 -0.00069447 6.7637e-18)
(0.99894 3.6762e-05 -3.1671e-17)
(1.0102 0.00077574 -6.77e-18)
(0.96907 0.0015255 6.8305e-18)
(1.0394 0.012446 -3.1473e-17)
(0.99183 0.0040568 3.7247e-18)
(0.97824 0.043161 1.9323e-18)
(0.99982 0.00022394 8.291e-19)
(0.99987 -0.00021917 1.718e-17)
(0.99998 -0.00036452 7.912e-18)
(1.0002 -0.00073751 6.493e-18)
(1.0004 -0.00059111 2.5418e-17)
(1.0009 -0.00072371 2.0172e-18)
(0.99876 3.2538e-05 2.187e-17)
(1.011 0.00080826 4.8554e-18)
(0.96831 0.0014447 -2.0759e-17)
(1.0377 0.012652 1.0836e-17)
(0.99533 0.0044474 2.5191e-18)
(0.98067 0.042584 2.0028e-18)
(0.99981 0.00023053 -2.8952e-18)
(0.99986 -0.00022679 -5.6552e-18)
(0.99997 -0.00037701 -6.9507e-18)
(1.0002 -0.00076284 1.0665e-17)
(1.0004 -0.0006115 1.228e-17)
(1.001 -0.00075361 -4.0161e-18)
(0.99857 2.7248e-05 -1.837e-17)
(1.0119 0.00084293 2.2109e-17)
(0.96765 0.0013575 3.8445e-18)
(1.0359 0.012834 -3.2735e-18)
(0.9985 0.0048351 1.0422e-17)
(0.98318 0.042051 -1.3917e-18)
(0.9998 0.00023711 5.9493e-18)
(0.99985 -0.0002345 6.7729e-18)
(0.99997 -0.00038966 -7.3893e-18)
(1.0002 -0.00078848 -6.6441e-18)
(1.0004 -0.00063218 -1.7622e-17)
(1.0011 -0.00078418 -6.8992e-18)
(0.99837 2.0794e-05 9.0573e-18)
(1.0127 0.00087981 -3.5464e-17)
(0.96709 0.0012642 9.4103e-18)
(1.034 0.01299 -3.8696e-18)
(1.0013 0.0052165 -1.1036e-17)
(0.98571 0.041556 4.041e-18)
(0.99978 0.0002437 -2.6258e-18)
(0.99984 -0.00024231 -1.19e-17)
(0.99996 -0.00040248 -7.1622e-18)
(1.0002 -0.00081443 -1.2609e-17)
(1.0004 -0.00065316 -5.3809e-18)
(1.0011 -0.00081542 2.0288e-17)
(0.99815 1.3077e-05 -8.8974e-18)
(1.0136 0.00091892 3.9452e-17)
(0.96665 0.0011654 8.8729e-18)
(1.032 0.013122 1.1742e-17)
(1.0039 0.0055885 4.6517e-18)
(0.98822 0.041093 -6.5524e-18)
(0.99977 0.00025028 -1.3929e-18)
(0.99983 -0.00025022 8.8502e-18)
(0.99995 -0.00041548 1.4191e-17)
(1.0002 -0.00084068 3.3996e-17)
(1.0004 -0.00067445 7.1323e-18)
(1.0012 -0.00084734 -1.3916e-17)
(0.99791 3.9924e-06 4.2937e-18)
(1.0144 0.00096027 -4.2445e-17)
(0.96632 0.0010617 -1.0762e-17)
(1.0299 0.013231 -6.5291e-18)
(1.006 0.0059483 4.5634e-18)
(0.99067 0.040656 6.5875e-18)
(0.99976 0.00025685 1.066e-18)
(0.99982 -0.00025822 2.0954e-18)
(0.99995 -0.00042865 -1.3937e-17)
(1.0002 -0.00086726 -5.6624e-18)
(1.0004 -0.00069606 9.0568e-18)
(1.0013 -0.00087993 1.6659e-17)
(0.99766 -6.5641e-06 1.4931e-17)
(1.0153 0.0010039 4.2008e-18)
(0.9661 0.00095359 1.204e-17)
(1.0277 0.013316 -3.0255e-18)
(1.0079 0.0062935 -8.1468e-18)
(0.99302 0.04024 -1.699e-18)
(0.99975 0.00026342 -4.3656e-20)
(0.99981 -0.00026632 2.3883e-18)
(0.99994 -0.00044201 3.1148e-18)
(1.0002 -0.00089417 -7.3519e-18)
(1.0004 -0.00071802 8.4672e-20)
(1.0014 -0.00091319 -1.5104e-17)
(0.99739 -1.8702e-05 -1.0099e-17)
(1.0162 0.0010497 3.1083e-17)
(0.966 0.00084172 -1.8196e-17)
(1.0255 0.01338 1.1748e-17)
(1.0095 0.0066219 4.3023e-18)
(0.99526 0.039841 -4.7965e-18)
(0.99973 0.00026998 -3.3023e-18)
(0.99979 -0.00027453 -1.12e-17)
(0.99993 -0.00045555 7.9533e-18)
(1.0003 -0.00092141 -2.0081e-17)
(1.0004 -0.00074033 -2.2906e-17)
(1.0015 -0.00094713 -2.0869e-17)
(0.99711 -3.2532e-05 -2.0582e-17)
(1.017 0.0010976 -3.1831e-18)
(0.96602 0.00072667 1.5902e-17)
(1.0233 0.013422 -1.0078e-17)
(1.0108 0.0069319 4.2733e-19)
(0.99736 0.039455 4.5171e-18)
(0.99972 0.00027654 6.3739e-18)
(0.99978 -0.00028283 1.1706e-17)
(0.99992 -0.0004693 -1.2827e-17)
(1.0003 -0.00094899 1.6487e-17)
(1.0004 -0.00076301 -2.6868e-18)
(1.0016 -0.00098173 1.3679e-17)
(0.99681 -4.817e-05 2.474e-17)
(1.0179 0.0011477 -2.4113e-17)
(0.96616 0.00060905 -8.0638e-18)
(1.021 0.013444 1.0642e-17)
(1.0118 0.007222 3.7179e-18)
(0.9993 0.039077 -2.1366e-18)
(0.9997 0.00028309 -4.7829e-18)
(0.99977 -0.00029125 -3.4593e-18)
(0.99991 -0.00048324 -2.6826e-18)
(1.0003 -0.00097692 1.8867e-17)
(1.0004 -0.00078607 -5.7518e-18)
(1.0017 -0.001017 -1.7362e-19)
(0.9965 -6.5735e-05 -4.8411e-18)
(1.0187 0.0011999 1.9315e-17)
(0.96642 0.0004895 -7.6569e-18)
(1.0188 0.013447 -7.3077e-18)
(1.0125 0.007491 -1.0991e-17)
(1.0011 0.038704 2.4827e-18)
(0.99969 0.00028963 3.2514e-18)
(0.99976 -0.00029977 -4.3868e-18)
(0.9999 -0.00049739 6.1401e-18)
(1.0003 -0.0010052 -2.8628e-17)
(1.0004 -0.00080953 3.8963e-17)
(1.0018 -0.0010529 5.6688e-18)
(0.99617 -8.5349e-05 1.91e-17)
(1.0195 0.001254 -1.1952e-17)
(0.96679 0.00036864 1.0041e-19)
(1.0166 0.013431 5.4344e-18)
(1.0131 0.0077379 -2.1376e-18)
(1.0027 0.038334 -9.3418e-19)
(0.99967 0.00029616 -9.3013e-19)
(0.99974 -0.00030841 8.5759e-19)
(0.99989 -0.00051176 1.4962e-17)
(1.0003 -0.0010339 7.8044e-18)
(1.0004 -0.0008334 -1.9479e-17)
(1.0019 -0.0010894 -1.1105e-17)
(0.99583 -0.00010714 3.3347e-18)
(1.0203 0.00131 -5.811e-18)
(0.96728 0.00024709 1.2811e-17)
(1.0144 0.013397 -3.5674e-18)
(1.0134 0.0079621 1.0289e-17)
(1.0041 0.037963 -3.4083e-18)
(0.99966 0.00030268 -1.6192e-18)
(0.99973 -0.00031716 -8.2671e-18)
(0.99988 -0.00052634 -4.4485e-18)
(1.0003 -0.0010629 3.1345e-17)
(1.0004 -0.00085772 -1.7356e-17)
(1.002 -0.0011266 -9.416e-19)
(0.99547 -0.00013123 -4.9873e-17)
(1.0211 0.0013678 5.7116e-18)
(0.96788 0.00012546 -2.3961e-17)
(1.0123 0.013346 -7.7043e-18)
(1.0135 0.0081632 -1.0288e-17)
(1.0054 0.03759 2.0237e-18)
(0.99964 0.00030919 -6.9914e-19)
(0.99972 -0.00032602 5.1218e-18)
(0.99987 -0.00054115 -1.8363e-18)
(1.0003 -0.0010923 -1.8251e-17)
(1.0004 -0.00088248 2.4942e-17)
(1.0022 -0.0011644 -2.3137e-18)
(0.99511 -0.00015776 2.6418e-17)
(1.0219 0.0014272 -3.5117e-18)
(0.96859 4.3705e-06 1.1632e-17)
(1.0103 0.01328 9.6356e-18)
(1.0134 0.0083408 8.4863e-18)
(1.0064 0.037213 -4.8916e-19)
(0.99962 0.00031569 3.963e-18)
(0.9997 -0.000335 -3.0649e-18)
(0.99986 -0.0005562 -6.4255e-18)
(1.0003 -0.0011221 1.9923e-17)
(1.0004 -0.00090773 1.831e-18)
(1.0023 -0.0012027 2.8675e-17)
(0.99473 -0.00018688 4.5569e-18)
(1.0226 0.0014881 1.6777e-17)
(0.9694 -0.0001156 4.3639e-18)
(1.0083 0.013199 -3.1176e-18)
(1.0132 0.008495 1.1039e-18)
(1.0073 0.03683 4.4282e-19)
(0.9996 0.00032217 1.1302e-18)
(0.99969 -0.00034411 1.2529e-18)
(0.99985 -0.00057148 -5.8272e-18)
(1.0003 -0.0011522 -3.9676e-17)
(1.0004 -0.00093346 5.5443e-18)
(1.0025 -0.0012416 2.4891e-18)
(0.99434 -0.00021871 -1.9759e-17)
(1.0233 0.0015505 2.3609e-19)
(0.9703 -0.00023387 1.2863e-17)
(1.0065 0.013103 -2.0044e-18)
(1.0129 0.0086258 -5.3747e-18)
(1.0081 0.036439 2.6094e-18)
(0.99959 0.00032865 -4.8394e-18)
(0.99967 -0.00035334 5.3117e-18)
(0.99984 -0.00058701 9.6018e-19)
(1.0003 -0.0011828 2.2034e-17)
(1.0004 -0.00095972 -2.5291e-17)
(1.0026 -0.0012811 -1.0985e-17)
(0.99394 -0.00025341 2.0209e-17)
(1.0239 0.0016141 -1.1364e-17)
(0.97131 -0.00034991 -2.0338e-17)
(1.0047 0.012995 -9.9045e-18)
(1.0124 0.0087335 6.8447e-18)
(1.0087 0.03604 8.6923e-19)
(0.99957 0.00033511 -5.1223e-19)
(0.99965 -0.00036269 -5.3455e-18)
(0.99983 -0.00060279 1.0231e-17)
(1.0003 -0.0012138 9.7718e-18)
(1.0003 -0.00098653 3.1239e-17)
(1.0028 -0.001321 4.2223e-18)
(0.99353 -0.00029114 1.7949e-17)
(1.0245 0.0016788 2.8813e-17)
(0.9724 -0.00046317 -9.0072e-19)
(1.0031 0.012874 1.7421e-17)
(1.0118 0.0088185 -7.2437e-19)
(1.0091 0.035632 -2.5384e-18)
(0.99955 0.00034156 4.9642e-18)
(0.99964 -0.00037217 -7.7834e-18)
(0.99981 -0.00061884 -1.5531e-17)
(1.0003 -0.0012452 -2.5955e-18)
(1.0003 -0.0010139 -3.3907e-17)
(1.003 -0.0013613 -1.256e-17)
(0.99311 -0.00033204 -6.2309e-18)
(1.0251 0.0017445 2.1636e-19)
(0.97357 -0.00057318 2.6472e-17)
(1.0015 0.012743 4.0143e-18)
(1.0112 0.0088813 -9.3927e-18)
(1.0094 0.035215 1.5217e-18)
(0.99953 0.00034799 -5.5656e-18)
(0.99962 -0.00038179 9.7225e-18)
(0.9998 -0.00063515 8.1297e-18)
(1.0003 -0.001277 -5.1744e-18)
(1.0003 -0.0010419 2.7269e-17)
(1.0031 -0.0014021 1.503e-17)
(0.99269 -0.00037629 -4.9254e-18)
(1.0256 0.001811 -2.9038e-17)
(0.97482 -0.00067946 -8.989e-19)
(1.0001 0.012601 -1.1471e-17)
(1.0105 0.0089226 1.1119e-17)
(1.0096 0.034787 -1.9935e-18)
(0.99951 0.00035441 3.3445e-18)
(0.9996 -0.00039153 -1.8608e-18)
(0.99978 -0.00065175 1.0766e-17)
(1.0003 -0.0013092 -2.1777e-17)
(1.0003 -0.0010705 8.9058e-18)
(1.0033 -0.0014432 -5.3982e-18)
(0.99226 -0.00042404 -1.0611e-17)
(1.0261 0.0018782 -2.3316e-18)
(0.97614 -0.0007816 -3.1957e-17)
(0.99885 0.01245 7.5679e-18)
(1.0097 0.0089431 -1.018e-17)
(1.0097 0.03435 6.6464e-19)
(0.99949 0.00036081 2.6454e-19)
(0.99959 -0.00040142 -5.8541e-18)
(0.99977 -0.00066862 6.1148e-18)
(1.0003 -0.0013419 2.8665e-17)
(1.0003 -0.0010997 -2.121e-17)
(1.0035 -0.0014847 1.7374e-17)
(0.99183 -0.00047547 -6.1354e-18)
(1.0266 0.0019458 5.3976e-18)
(0.97751 -0.00087919 3.7969e-17)
(0.9977 0.01229 -1.4049e-17)
(1.009 0.0089436 1.556e-17)
(1.0097 0.033902 1.8804e-18)
(0.99947 0.00036719 4.7479e-19)
(0.99957 -0.00041144 -1.2122e-18)
(0.99975 -0.00068579 -8.7962e-18)
(1.0003 -0.001375 -4.3141e-18)
(1.0002 -0.0011297 1.8488e-17)
(1.0037 -0.0015264 1.4159e-19)
(0.99139 -0.00053075 -1.2059e-17)
(1.0269 0.0020138 -1.2889e-17)
(0.97895 -0.00097189 -1.5896e-17)
(0.99669 0.012123 -1.3262e-18)
(1.0082 0.008925 2.8481e-18)
(1.0096 0.033444 1.9631e-19)
(0.99944 0.00037355 -7.6384e-19)
(0.99955 -0.00042161 1.4418e-17)
(0.99974 -0.00070325 -5.8676e-18)
(1.0003 -0.0014085 -2.4391e-17)
(1.0002 -0.0011603 8.5249e-18)
(1.004 -0.0015683 -4.4271e-17)
(0.99096 -0.00059006 6.0157e-18)
(1.0273 0.0020819 8.1146e-18)
(0.98043 -0.0010594 7.383e-19)
(0.99582 0.011949 1.4268e-17)
(1.0074 0.0088883 -9.5227e-19)
(1.0095 0.032977 -5.2526e-18)
(0.99942 0.0003799 -2.0164e-19)
(0.99953 -0.00043192 -2.8273e-19)
(0.99972 -0.00072103 7.8997e-18)
(1.0003 -0.0014425 1.506e-17)
(1.0002 -0.0011918 -3.3868e-17)
(1.0042 -0.0016103 1.9108e-18)
(0.99052 -0.00065357 1.0774e-17)
(1.0275 0.0021499 1.2711e-17)
(0.98194 -0.0011414 -1.0058e-17)
(0.99509 0.01177 -1.3892e-17)
(1.0067 0.0088346 -1.5433e-17)
(1.0093 0.0325 5.5456e-18)
(0.9994 0.00038622 -1.3199e-18)
(0.99951 -0.00044238 4.0325e-19)
(0.99971 -0.00073912 -3.8088e-18)
(1.0003 -0.001477 -1.0056e-17)
(1.0001 -0.001224 1.8776e-17)
(1.0044 -0.0016524 2.3768e-17)
(0.99009 -0.00072146 3.1421e-18)
(1.0278 0.0022178 6.4428e-18)
(0.98349 -0.0012177 1.6042e-17)
(0.99449 0.011585 2.3382e-18)
(1.0059 0.0087649 1.1409e-17)
(1.009 0.032014 -3.366e-18)
(0.99938 0.00039253 2.4297e-18)
(0.99949 -0.000453 7.4335e-19)
(0.99969 -0.00075754 -5.4441e-18)
(1.0003 -0.0015119 1.4853e-18)
(1.0001 -0.0012571 -1.018e-17)
(1.0047 -0.0016944 -5.7012e-18)
(0.98966 -0.00079392 -1.1614e-18)
(1.0279 0.0022852 -2.9094e-17)
(0.98507 -0.0012881 3.1504e-18)
(0.99402 0.011397 -4.74e-18)
(1.0053 0.0086803 -4.6405e-18)
(1.0088 0.031521 -4.056e-18)
(0.99935 0.00039881 -4.9588e-18)
(0.99947 -0.00046376 9.7121e-19)
(0.99967 -0.00077629 2.8877e-18)
(1.0003 -0.0015472 -1.8671e-17)
(1.0001 -0.001291 -1.1607e-17)
(1.0049 -0.0017364 -2.6476e-17)
(0.98924 -0.00087111 5.6042e-18)
(1.028 0.002352 1.1879e-17)
(0.98665 -0.0013524 -3.3782e-17)
(0.99369 0.011206 2.1856e-17)
(1.0046 0.0085819 -5.0177e-18)
(1.0085 0.031019 2.6161e-18)
(0.99933 0.00040507 4.5521e-18)
(0.99944 -0.00047468 2.1733e-18)
(0.99965 -0.00079539 1.1107e-18)
(1.0003 -0.0015831 5.9204e-18)
(1 -0.0013259 -2.5647e-18)
(1.0052 -0.0017782 5.132e-17)
(0.98882 -0.00095321 2.012e-17)
(1.0281 0.0024179 -1.8484e-17)
(0.98825 -0.0014107 3.2515e-17)
(0.99348 0.011013 -8.1547e-18)
(1.004 0.008471 -3.309e-18)
(1.0082 0.030511 -1.3044e-18)
(0.9993 0.00041131 1.1168e-18)
(0.99942 -0.00048577 -1.376e-17)
(0.99963 -0.00081484 2.2233e-18)
(1.0003 -0.0016194 2.6597e-17)
(0.99996 -0.0013618 1.9843e-17)
(1.0054 -0.0018197 -8.2543e-19)
(0.98842 -0.0010404 -2.7875e-17)
(1.028 0.0024828 5.5936e-18)
(0.98985 -0.0014627 -7.334e-18)
(0.9934 0.010818 -1.1286e-17)
(1.0035 0.0083488 8.4181e-18)
(1.0079 0.029997 1.2165e-18)
(0.99927 0.00041752 -4.417e-18)
(0.9994 -0.00049701 -4.5882e-18)
(0.99961 -0.00083466 -1.2044e-17)
(1.0003 -0.0016562 -2.2308e-17)
(0.99991 -0.0013987 -1.9969e-17)
(1.0057 -0.0018608 -2.3325e-17)
(0.98802 -0.0011328 5.1472e-18)
(1.028 0.0025463 4.3519e-17)
(0.99144 -0.0015085 3.1971e-18)
(0.99343 0.010623 -9.8578e-19)
(1.0031 0.0082164 -2.9722e-18)
(1.0076 0.029478 -3.2673e-18)
(0.99925 0.00042371 3.2779e-18)
(0.99937 -0.00050843 4.2612e-18)
(0.99959 -0.00085485 1.8561e-17)
(1.0003 -0.0016935 1.5451e-17)
(0.99985 -0.0014367 1.9428e-17)
(1.006 -0.0019015 -8.6668e-19)
(0.98764 -0.0012306 -2.8678e-17)
(1.0278 0.0026084 -2.3525e-17)
(0.99302 -0.0015481 7.9367e-18)
(0.99357 0.010428 3.9062e-18)
(1.0027 0.008075 6.7006e-18)
(1.0074 0.028955 2.5252e-18)
(0.99922 0.00042987 -2.3151e-18)
(0.99935 -0.00052001 6.6859e-18)
(0.99957 -0.00087542 -1.2281e-17)
(1.0003 -0.0017312 2.237e-18)
(0.99979 -0.0014758 9.0348e-18)
(1.0063 -0.0019416 -2.2805e-18)
(0.98728 -0.001334 6.4391e-18)
(1.0276 0.0026686 6.5342e-18)
(0.99458 -0.0015817 2.6141e-18)
(0.99382 0.010235 9.6563e-18)
(1.0024 0.0079257 -8.0587e-18)
(1.0071 0.028428 5.1032e-19)
(0.99919 0.000436 3.4957e-18)
(0.99933 -0.00053177 4.1444e-19)
(0.99954 -0.00089639 -5.75e-18)
(1.0003 -0.0017695 8.9101e-19)
(0.99972 -0.0015162 -1.4833e-18)
(1.0066 -0.0019811 -2.2536e-17)
(0.98693 -0.0014431 1.7978e-17)
(1.0274 0.0027267 2.3197e-17)
(0.99612 -0.0016092 -1.3006e-17)
(0.99417 0.010042 -1.3437e-17)
(1.0022 0.0077699 -2.3559e-18)
(1.0069 0.027899 4.3422e-18)
(0.99916 0.00044211 -2.5395e-18)
(0.9993 -0.0005437 -3.1916e-19)
(0.99952 -0.00091776 7.1486e-18)
(1.0003 -0.0018082 -1.7103e-17)
(0.99965 -0.0015578 -1.3422e-17)
(1.0069 -0.0020198 2.8453e-17)
(0.9866 -0.0015579 -2.7492e-18)
(1.0271 0.0027825 -2.4559e-17)
(0.99762 -0.001631 3.3144e-18)
(0.9946 0.0098525 1.2651e-17)
(1.0021 0.0076086 7.985e-18)
(1.0067 0.027369 -1.5656e-18)
(0.99913 0.00044818 2.5239e-19)
(0.99927 -0.00055581 2.3382e-18)
(0.9995 -0.00093955 3.9066e-18)
(1.0003 -0.0018474 8.8419e-18)
(0.99958 -0.0016007 2.6311e-17)
(1.0072 -0.0020577 6.6361e-18)
(0.98628 -0.0016786 -2.3938e-17)
(1.0267 0.0028356 2.303e-18)
(0.99908 -0.0016472 8.5396e-18)
(0.99512 0.0096656 -1.1398e-17)
(1.002 0.0074429 -5.399e-18)
(1.0066 0.026838 -1.8114e-18)
(0.9991 0.00045423 7.167e-19)
(0.99925 -0.0005681 -4.0657e-19)
(0.99947 -0.00096177 -1.0309e-17)
(1.0004 -0.0018871 -1.9029e-19)
(0.9995 -0.001645 -5.2023e-17)
(1.0075 -0.0020946 8.1835e-18)
(0.98599 -0.0018054 2.3515e-17)
(1.0263 0.0028857 -6.615e-18)
(1.0005 -0.0016581 -8.9417e-18)
(0.99572 0.0094822 1.8928e-17)
(1.002 0.0072739 6.4598e-18)
(1.0065 0.026308 4.6941e-18)
(0.99907 0.00046024 7.7e-19)
(0.99922 -0.00058059 -8.4395e-19)
(0.99945 -0.00098443 1.8645e-17)
(1.0004 -0.0019273 4.0792e-18)
(0.99942 -0.0016907 4.6105e-17)
(1.0078 -0.0021304 -2.8836e-17)
(0.98573 -0.0019381 -7.8746e-18)
(1.0259 0.0029325 6.2283e-18)
(1.0019 -0.001664 3.0825e-18)
(0.99638 0.0093028 -1.065e-17)
(1.0021 0.0071026 -1.0457e-18)
(1.0065 0.025779 -3.4614e-18)
(0.99904 0.00046622 -3.0089e-18)
(0.99919 -0.00059326 1.4174e-18)
(0.99942 -0.0010075 -1.0959e-17)
(1.0004 -0.001968 5.3648e-18)
(0.99933 -0.001738 -1.7519e-17)
(1.0081 -0.002165 3.9107e-18)
(0.98548 -0.002077 3.153e-17)
(1.0254 0.0029756 -2.3315e-17)
(1.0032 -0.0016652 -1.1329e-17)
(0.9971 0.0091279 -1.0536e-17)
(1.0023 0.0069301 -5.1369e-18)
(1.0065 0.025252 -9.5062e-19)
(0.99901 0.00047217 3.7484e-18)
(0.99916 -0.00060612 -3.3662e-18)
(0.99939 -0.0010311 -1.0637e-17)
(1.0004 -0.0020092 -8.5544e-18)
(0.99924 -0.0017869 -2.8648e-17)
(1.0084 -0.0021984 -1.8144e-17)
(0.98527 -0.002222 -1.9333e-17)
(1.0248 0.0030148 2.1681e-17)
(1.0045 -0.0016621 1.0985e-17)
(0.99787 0.0089579 1.5955e-17)
(1.0025 0.0067572 -2.0108e-18)
(1.0065 0.024729 4.5882e-18)
(0.99897 0.00047808 -6.0249e-18)
(0.99913 -0.00061919 5.4548e-18)
(0.99936 -0.0010552 2.6047e-17)
(1.0004 -0.0020509 -2.0182e-18)
(0.99915 -0.0018375 3.1697e-17)
(1.0087 -0.0022304 1.366e-18)
(0.98508 -0.002373 -1.8517e-17)
(1.0243 0.0030495 8.4894e-18)
(1.0057 -0.0016551 -3.9614e-18)
(0.99868 0.008793 -3.3409e-18)
(1.0028 0.0065848 6.5238e-18)
(1.0066 0.024209 -3.1028e-18)
(0.99894 0.00048395 4.9376e-18)
(0.9991 -0.00063245 -7.4136e-18)
(0.99934 -0.0010797 -3.0371e-17)
(1.0004 -0.0020931 1.3203e-17)
(0.99905 -0.0018898 -2.2585e-17)
(1.0091 -0.002261 2.5084e-17)
(0.98492 -0.0025301 6.0351e-18)
(1.0236 0.0030796 -8.0798e-18)
(1.0068 -0.0016446 -1.9019e-18)
(0.99953 0.0086336 -8.3678e-18)
(1.0031 0.0064138 -1.0636e-17)
(1.0068 0.023694 4.2886e-18)
(0.9989 0.00048979 -3.6373e-18)
(0.99907 -0.00064592 2.4653e-18)
(0.99931 -0.0011048 1.8455e-17)
(1.0004 -0.0021358 -1.7405e-17)
(0.99894 -0.001944 3.6343e-17)
(1.0094 -0.00229 -1.9473e-17)
(0.98479 -0.0026932 3.5182e-18)
(1.023 0.0031045 -1.2776e-17)
(1.0079 -0.0016313 6.2089e-18)
(1.0004 0.0084799 -1.171e-18)
(1.0036 0.0062448 4.5528e-18)
(1.007 0.023184 -1.9069e-18)
(0.99887 0.00049559 4.4614e-18)
(0.99904 -0.0006596 1.9196e-18)
(0.99927 -0.0011303 -1.2306e-17)
(1.0004 -0.002179 -3.5456e-19)
(0.99883 -0.0020001 -1.6029e-18)
(1.0097 -0.0023173 4.7086e-18)
(0.98468 -0.0028622 3.3412e-17)
(1.0223 0.0031238 8.7401e-18)
(1.0089 -0.0016156 -1.8405e-17)
(1.0013 0.0083319 -6.0696e-18)
(1.004 0.0060786 -4.2823e-18)
(1.0072 0.022681 2.0041e-18)
(0.99883 0.00050136 -5.1141e-18)
(0.999 -0.00067349 -7.1139e-18)
(0.99924 -0.0011564 5.1624e-18)
(1.0004 -0.0022227 1.5063e-17)