/*--------------------------------*- C++ -*----------------------------------*\
  =========                 |
  \\      /  F ield         | OpenFOAM: The Open Source CFD Toolbox
   \\    /   O peration     | Website:  https://openfoam.org
    \\  /    A nd           | Version:  6.0
     \\/     M anipulation  |
\*---------------------------------------------------------------------------*/
FoamFile
{
    version     2.0;
    format      ascii;
    class       surfaceScalarField;
    location    "3.33";
    object      phi;
}
// * * * * * * * * * * * * * * * * * * * * * * * * * * * * * * * * * * * * * //

dimensions      [0 3 -1 0 0 0 0];

internalField   nonuniform List<scalar> 
26699
(
2.0051e-05
0.005201
5.8973e-10
4.0126e-05
0.0051116
5.9639e-05
0.0049351
7.8187e-05
0.0046741
9.5416e-05
0.0043332
0.00011102
0.0039182
0.00012471
0.0034362
0.00013626
0.0028953
0.00014546
0.002305
0.00015181
0.0016755
0.00015717
0.0010154
0.00046502
3.4353e-05
2.0051e-05
0.0051809
1.7619e-09
4.0127e-05
0.0050916
5.9641e-05
0.0049155
7.819e-05
0.0046556
9.5418e-05
0.004316
0.00011102
0.0039026
0.00012471
0.0034225
0.00013625
0.0028838
0.00014545
0.0022958
0.00015106
0.0016699
0.0001589
0.0010076
0.00055903
6.4889e-05
2.0051e-05
0.0051609
3.0058e-09
4.0128e-05
0.0050715
5.9643e-05
0.004896
7.8193e-05
0.004637
9.5421e-05
0.0042988
0.00011103
0.003887
0.00012471
0.0034088
0.00013623
0.0028723
0.00014546
0.0022865
0.00015029
0.0016651
0.00016016
0.00099769
0.00062919
9.0005e-05
2.0051e-05
0.0051408
4.2669e-09
4.013e-05
0.0050514
5.9645e-05
0.0048765
7.8196e-05
0.0046185
9.5424e-05
0.0042815
0.00011103
0.0038714
0.0001247
0.0033951
0.0001362
0.0028608
0.00014551
0.0022772
0.00014955
0.001661
0.00016089
0.00098636
0.00067988
0.00011019
2.0051e-05
0.0051208
5.5303e-09
4.0131e-05
0.0050313
5.9648e-05
0.004857
7.8199e-05
0.0045999
9.5427e-05
0.0042643
0.00011103
0.0038558
0.0001247
0.0033815
0.00013618
0.0028493
0.00014558
0.0022678
0.00014886
0.0016577
0.00016109
0.00097412
0.00071475
0.00012623
2.0051e-05
0.0051007
6.7959e-09
4.0132e-05
0.0050112
5.965e-05
0.0048375
7.8202e-05
0.0045814
9.543e-05
0.0042471
0.00011103
0.0038402
0.0001247
0.0033678
0.00013615
0.0028378
0.00014567
0.0022583
0.00014823
0.0016552
0.00016085
0.0009615
0.00073681
0.00013879
2.0051e-05
0.0050807
8.0639e-09
4.0133e-05
0.0049912
5.9652e-05
0.004818
7.8205e-05
0.0045628
9.5434e-05
0.0042299
0.00011103
0.0038246
0.0001247
0.0033541
0.00013612
0.0028264
0.00014578
0.0022486
0.00014769
0.0016533
0.00016024
0.00094895
0.00074863
0.00014842
2.0051e-05
0.0050606
9.3343e-09
4.0134e-05
0.0049711
5.9655e-05
0.0047984
7.8208e-05
0.0045443
9.5437e-05
0.0042126
0.00011103
0.003809
0.0001247
0.0033405
0.00013608
0.002815
0.0001459
0.0022388
0.00014725
0.0016519
0.00015936
0.00093684
0.00075237
0.00015562
2.0051e-05
0.0050405
1.0607e-08
4.0136e-05
0.004951
5.9657e-05
0.0047789
7.8211e-05
0.0045257
9.544e-05
0.0041954
0.00011104
0.0037934
0.0001247
0.0033268
0.00013604
0.0028037
0.00014604
0.0022288
0.00014692
0.001651
0.00015831
0.00092546
0.00074985
0.00016083
2.0051e-05
0.0050205
1.1883e-08
4.0137e-05
0.0049309
5.966e-05
0.0047594
7.8214e-05
0.0045071
9.5444e-05
0.0041782
0.00011104
0.0037778
0.0001247
0.0033131
0.00013599
0.0027924
0.00014617
0.0022186
0.0001467
0.0016505
0.00015714
0.00091502
0.00074257
0.00016442
2.0051e-05
0.0050004
1.3161e-08
4.0138e-05
0.0049108
5.9662e-05
0.0047399
7.8217e-05
0.0044886
9.5447e-05
0.0041609
0.00011104
0.0037622
0.0001247
0.0032995
0.00013594
0.0027812
0.00014631
0.0022083
0.00014659
0.0016502
0.00015593
0.00090567
0.00073179
0.00016671
2.0051e-05
0.0049803
1.4442e-08
4.0139e-05
0.0048907
5.9664e-05
0.0047204
7.8221e-05
0.00447
9.5451e-05
0.0041437
0.00011104
0.0037466
0.00012471
0.0032858
0.00013589
0.00277
0.00014645
0.0021977
0.00014658
0.0016501
0.00015474
0.00089751
0.00071854
0.00016799
2.0051e-05
0.0049603
1.5725e-08
4.014e-05
0.0048706
5.9667e-05
0.0047008
7.8224e-05
0.0044515
9.5454e-05
0.0041265
0.00011105
0.003731
0.00012472
0.0032721
0.00013583
0.0027589
0.00014658
0.002187
0.00014666
0.00165
0.0001536
0.00089057
0.00070365
0.00016849
2.0051e-05
0.0049402
1.7011e-08
4.0142e-05
0.0048506
5.9669e-05
0.0046813
7.8227e-05
0.0044329
9.5458e-05
0.0041093
0.00011105
0.0037154
0.00012472
0.0032585
0.00013577
0.0027478
0.0001467
0.002176
0.00014683
0.0016499
0.00015255
0.00088486
0.0006878
0.0001684
2.0051e-05
0.0049201
1.8301e-08
4.0143e-05
0.0048305
5.9671e-05
0.0046618
7.823e-05
0.0044144
9.5461e-05
0.004092
0.00011105
0.0036998
0.00012473
0.0032448
0.00013571
0.0027369
0.00014681
0.0021649
0.00014708
0.0016496
0.00015161
0.00088033
0.00067152
0.00016789
2.0051e-05
0.0049001
1.9593e-08
4.0144e-05
0.0048104
5.9674e-05
0.0046422
7.8233e-05
0.0043958
9.5465e-05
0.0040748
0.00011105
0.0036843
0.00012475
0.0032311
0.00013564
0.002726
0.0001469
0.0021537
0.0001474
0.0016491
0.0001508
0.00087693
0.00065523
0.00016709
2.0051e-05
0.00488
2.0888e-08
4.0145e-05
0.0047903
5.9676e-05
0.0046227
7.8236e-05
0.0043772
9.5469e-05
0.0040576
0.00011105
0.0036687
0.00012476
0.0032174
0.00013558
0.0027151
0.00014698
0.0021423
0.00014777
0.0016483
0.00015012
0.00087458
0.00063926
0.0001661
2.0051e-05
0.0048599
2.2185e-08
4.0147e-05
0.0047702
5.9679e-05
0.0046032
7.8239e-05
0.0043587
9.5473e-05
0.0040403
0.00011105
0.0036531
0.00012478
0.0032037
0.00013551
0.0027044
0.00014704
0.0021307
0.00014819
0.0016472
0.00014959
0.00087318
0.00062383
0.00016501
2.0051e-05
0.0048399
2.3487e-08
4.0148e-05
0.0047501
5.9681e-05
0.0045836
7.8243e-05
0.0043401
9.5477e-05
0.0040231
0.00011106
0.0036375
0.00012479
0.0031899
0.00013544
0.0026938
0.00014708
0.0021191
0.00014863
0.0016456
0.00014919
0.00087262
0.00060913
0.0001639
2.0051e-05
0.0048198
2.4791e-08
4.0149e-05
0.00473
5.9684e-05
0.0045641
7.8246e-05
0.0043216
9.5481e-05
0.0040059
0.00011106
0.0036219
0.00012481
0.0031762
0.00013537
0.0026832
0.00014711
0.0021073
0.0001491
0.0016436
0.00014892
0.0008728
0.00059525
0.0001628
2.0051e-05
0.0047997
2.6098e-08
4.015e-05
0.0047099
5.9686e-05
0.0045446
7.8249e-05
0.004303
9.5485e-05
0.0039886
0.00011106
0.0036064
0.00012483
0.0031624
0.0001353
0.0026727
0.00014711
0.0020955
0.00014958
0.0016412
0.00014878
0.0008736
0.00058228
0.00016175
2.0051e-05
0.0047796
2.7409e-08
4.0151e-05
0.0046898
5.9688e-05
0.004525
7.8252e-05
0.0042844
9.5489e-05
0.0039714
0.00011106
0.0035908
0.00012486
0.0031486
0.00013523
0.0026624
0.00014709
0.0020837
0.00015007
0.0016382
0.00014875
0.00087492
0.00057023
0.0001608
2.0051e-05
0.0047595
2.8722e-08
4.0153e-05
0.0046697
5.9691e-05
0.0045055
7.8255e-05
0.0042659
9.5494e-05
0.0039541
0.00011106
0.0035752
0.00012488
0.0031348
0.00013517
0.0026521
0.00014705
0.0020718
0.00015055
0.0016347
0.00014883
0.00087664
0.00055912
0.00015994
2.0051e-05
0.0047395
3.004e-08
4.0154e-05
0.0046496
5.9693e-05
0.004486
7.8259e-05
0.0042473
9.5498e-05
0.0039369
0.00011106
0.0035597
0.00012491
0.0031209
0.00013511
0.0026419
0.000147
0.0020599
0.00015102
0.0016307
0.000149
0.00087866
0.00054893
0.0001592
2.0051e-05
0.0047194
3.136e-08
4.0155e-05
0.0046295
5.9696e-05
0.0044664
7.8262e-05
0.0042287
9.5503e-05
0.0039197
0.00011106
0.0035441
0.00012494
0.003107
0.00013505
0.0026318
0.00014692
0.002048
0.00015147
0.0016261
0.00014924
0.00088089
0.0005396
0.00015857
2.0051e-05
0.0046993
3.2685e-08
4.0156e-05
0.0046094
5.9698e-05
0.0044469
7.8265e-05
0.0042102
9.5507e-05
0.0039024
0.00011106
0.0035286
0.00012497
0.0030931
0.000135
0.0026218
0.00014683
0.0020362
0.0001519
0.001621
0.00014956
0.00088324
0.0005311
0.00015806
2.0051e-05
0.0046792
3.4012e-08
4.0157e-05
0.0045893
5.9701e-05
0.0044273
7.8269e-05
0.0041916
9.5512e-05
0.0038852
0.00011106
0.003513
0.000125
0.0030792
0.00013495
0.0026118
0.00014673
0.0020244
0.00015231
0.0016155
0.00014993
0.00088562
0.00052336
0.00015766
2.0051e-05
0.0046591
3.5344e-08
4.0159e-05
0.0045692
5.9703e-05
0.0044078
7.8272e-05
0.004173
9.5517e-05
0.0038679
0.00011106
0.0034975
0.00012503
0.0030652
0.0001349
0.0026019
0.00014661
0.0020127
0.00015268
0.0016094
0.00015034
0.00088796
0.00051633
0.00015737
2.0051e-05
0.004639
3.6679e-08
4.016e-05
0.0045491
5.9706e-05
0.0043882
7.8275e-05
0.0041545
9.5522e-05
0.0038507
0.00011105
0.0034819
0.00012507
0.0030512
0.00013487
0.0025921
0.00014647
0.0020011
0.00015302
0.0016028
0.00015078
0.0008902
0.00050993
0.00015718
2.0051e-05
0.0046189
3.8018e-08
4.0161e-05
0.0045289
5.9708e-05
0.0043687
7.8279e-05
0.0041359
9.5528e-05
0.0038334
0.00011105
0.0034664
0.0001251
0.0030371
0.00013484
0.0025824
0.00014633
0.0019896
0.00015333
0.0015958
0.00015125
0.00089229
0.0005041
0.00015708
2.0051e-05
0.0045989
3.9361e-08
4.0162e-05
0.0045088
5.9711e-05
0.0043491
7.8282e-05
0.0041173
9.5533e-05
0.0038162
0.00011105
0.0034509
0.00012514
0.003023
0.00013481
0.0025727
0.00014617
0.0019783
0.0001536
0.0015884
0.00015173
0.00089416
0.00049877
0.00015706
2.0051e-05
0.0045788
4.0707e-08
4.0164e-05
0.0044887
5.9713e-05
0.0043296
7.8285e-05
0.0040987
9.5539e-05
0.0037989
0.00011104
0.0034354
0.00012517
0.0030089
0.0001348
0.0025631
0.00014601
0.001967
0.00015384
0.0015806
0.00015221
0.00089579
0.00049388
0.0001571
2.0051e-05
0.0045587
4.2058e-08
4.0165e-05
0.0044686
5.9716e-05
0.00431
7.8289e-05
0.0040802
9.5545e-05
0.0037817
0.00011104
0.0034199
0.00012521
0.0029947
0.00013479
0.0025535
0.00014584
0.001956
0.00015403
0.0015724
0.00015269
0.00089713
0.00048937
0.0001572
2.0051e-05
0.0045386
4.3413e-08
4.0166e-05
0.0044485
5.9719e-05
0.0042905
7.8292e-05
0.0040616
9.5551e-05
0.0037644
0.00011104
0.0034044
0.00012525
0.0029805
0.00013479
0.002544
0.00014567
0.0019451
0.00015419
0.0015639
0.00015316
0.00089817
0.00048518
0.00015735
2.0051e-05
0.0045185
4.4772e-08
4.0167e-05
0.0044284
5.9721e-05
0.0042709
7.8296e-05
0.004043
9.5557e-05
0.0037472
0.00011103
0.0033889
0.00012529
0.0029663
0.00013479
0.0025345
0.00014549
0.0019344
0.00015432
0.001555
0.00015361
0.00089888
0.00048126
0.00015753
2.0051e-05
0.0044984
4.6135e-08
4.0169e-05
0.0044083
5.9724e-05
0.0042514
7.8299e-05
0.0040245
9.5563e-05
0.0037299
0.00011103
0.0033735
0.00012532
0.002952
0.00013481
0.002525
0.00014532
0.0019239
0.00015441
0.0015459
0.00015404
0.00089925
0.00047756
0.00015774
2.0051e-05
0.0044783
4.7503e-08
4.017e-05
0.0043881
5.9726e-05
0.0042318
7.8303e-05
0.0040059
9.557e-05
0.0037126
0.00011102
0.003358
0.00012536
0.0029376
0.00013483
0.0025155
0.00014514
0.0019136
0.00015447
0.0015366
0.00015446
0.00089926
0.00047404
0.00015798
2.0051e-05
0.0044582
4.8875e-08
4.0171e-05
0.004368
5.9729e-05
0.0042123
7.8306e-05
0.0039873
9.5577e-05
0.0036954
0.00011102
0.0033426
0.0001254
0.0029233
0.00013487
0.0025061
0.00014497
0.0019035
0.0001545
0.0015271
0.00015484
0.00089892
0.00047065
0.00015822
2.0051e-05
0.0044381
5.0251e-08
4.0172e-05
0.0043479
5.9732e-05
0.0041927
7.8309e-05
0.0039687
9.5584e-05
0.0036781
0.00011101
0.0033272
0.00012543
0.0029088
0.00013491
0.0024966
0.0001448
0.0018936
0.0001545
0.0015174
0.00015519
0.00089823
0.00046737
0.00015848
2.0051e-05
0.004418
5.1633e-08
4.0174e-05
0.0043278
5.9734e-05
0.0041731
7.8313e-05
0.0039501
9.5591e-05
0.0036608
0.000111
0.0033118
0.00012546
0.0028944
0.00013496
0.0024871
0.00014464
0.0018839
0.00015447
0.0015075
0.00015552
0.00089718
0.00046416
0.00015873
2.0051e-05
0.0043979
5.3018e-08
4.0175e-05
0.0043076
5.9737e-05
0.0041536
7.8316e-05
0.0039316
9.5599e-05
0.0036435
0.000111
0.0032964
0.0001255
0.0028799
0.00013501
0.0024776
0.00014448
0.0018744
0.00015442
0.0014976
0.00015581
0.00089579
0.000461
0.00015898
2.0051e-05
0.0043778
5.4409e-08
4.0176e-05
0.0042875
5.974e-05
0.004134
7.832e-05
0.003913
9.5607e-05
0.0036262
0.00011099
0.003281
0.00012553
0.0028653
0.00013508
0.002468
0.00014434
0.0018652
0.00015435
0.0014876
0.00015608
0.00089406
0.00045786
0.00015921
2.005e-05
0.0043577
5.5805e-08
4.0178e-05
0.0042674
5.9743e-05
0.0041145
7.8323e-05
0.0038944
9.5615e-05
0.0036089
0.00011098
0.0032656
0.00012556
0.0028508
0.00013515
0.0024584
0.0001442
0.0018561
0.00015426
0.0014775
0.00015631
0.00089201
0.00045473
0.00015944
2.005e-05
0.0043376
5.7205e-08
4.0179e-05
0.0042473
5.9745e-05
0.0040949
7.8327e-05
0.0038758
9.5623e-05
0.0035916
0.00011097
0.0032503
0.00012558
0.0028361
0.00013523
0.0024488
0.00014407
0.0018473
0.00015415
0.0014674
0.00015651
0.00088965
0.00045159
0.00015966
2.005e-05
0.0043175
5.8611e-08
4.018e-05
0.0042271
5.9748e-05
0.0040753
7.833e-05
0.0038572
9.5632e-05
0.0035743
0.00011097
0.0032349
0.00012561
0.0028215
0.00013531
0.0024391
0.00014396
0.0018386
0.00015403
0.0014574
0.00015668
0.000887
0.00044842
0.00015985
2.005e-05
0.0042973
6.0022e-08
4.0181e-05
0.004207
5.9751e-05
0.0040558
7.8334e-05
0.0038387
9.5641e-05
0.003557
0.00011096
0.0032196
0.00012563
0.0028068
0.0001354
0.0024293
0.00014385
0.0018302
0.0001539
0.0014473
0.00015683
0.00088407
0.00044521
0.00016003
2.005e-05
0.0042772
6.1438e-08
4.0183e-05
0.0041869
5.9754e-05
0.0040362
7.8338e-05
0.0038201
9.565e-05
0.0035397
0.00011095
0.0032043
0.00012565
0.0027921
0.0001355
0.0024195
0.00014376
0.0018219
0.00015376
0.0014373
0.00015695
0.00088089
0.00044197
0.00016019
2.005e-05
0.0042571
6.2859e-08
4.0184e-05
0.0041667
5.9757e-05
0.0040166
7.8341e-05
0.0038015
9.566e-05
0.0035224
0.00011094
0.003189
0.00012567
0.0027774
0.0001356
0.0024095
0.00014369
0.0018138
0.00015362
0.0014274
0.00015704
0.00087746
0.00043867
0.00016034
2.005e-05
0.004237
6.4287e-08
4.0186e-05
0.0041466
5.9759e-05
0.003997
7.8345e-05
0.0037829
9.567e-05
0.0035051
0.00011094
0.0031738
0.00012568
0.0027627
0.0001357
0.0023995
0.00014362
0.0018059
0.00015347
0.0014175
0.00015711
0.00087382
0.00043532
0.00016046
2.005e-05
0.0042169
6.5719e-08
4.0187e-05
0.0041265
5.9762e-05
0.0039775
7.8348e-05
0.0037643
9.568e-05
0.0034877
0.00011093
0.0031585
0.00012569
0.0027479
0.00013581
0.0023894
0.00014357
0.0017982
0.00015332
0.0014078
0.00015717
0.00086997
0.00043192
0.00016057
2.005e-05
0.0041968
6.7158e-08
4.0188e-05
0.0041063
5.9765e-05
0.0039579
7.8352e-05
0.0037457
9.569e-05
0.0034704
0.00011092
0.0031433
0.0001257
0.0027331
0.00013592
0.0023792
0.00014354
0.0017905
0.00015317
0.0013982
0.0001572
0.00086594
0.00042846
0.00016066
2.005e-05
0.0041766
6.8602e-08
4.019e-05
0.0040862
5.9768e-05
0.0039383
7.8355e-05
0.0037271
9.57e-05
0.0034531
0.00011092
0.0031281
0.00012571
0.0027183
0.00013604
0.0023688
0.00014352
0.0017831
0.00015303
0.0013887
0.00015722
0.00086175
0.00042494
0.00016074
2.005e-05
0.0041565
7.0052e-08
4.0191e-05
0.004066
5.9771e-05
0.0039187
7.8359e-05
0.0037086
9.5711e-05
0.0034357
0.00011091
0.0031129
0.00012571
0.0027035
0.00013615
0.0023584
0.00014351
0.0017757
0.00015288
0.0013793
0.00015723
0.0008574
0.00042137
0.0001608
2.005e-05
0.0041364
7.1508e-08
4.0192e-05
0.0040459
5.9774e-05
0.0038991
7.8362e-05
0.00369
9.5722e-05
0.0034183
0.00011091
0.0030977
0.00012571
0.0026887
0.00013627
0.0023479
0.00014352
0.0017685
0.00015275
0.00137
0.00015722
0.00085293
0.00041775
0.00016084
2.005e-05
0.0041163
7.2971e-08
4.0194e-05
0.0040258
5.9777e-05
0.0038796
7.8366e-05
0.0036714
9.5733e-05
0.003401
0.0001109
0.0030825
0.00012571
0.0026739
0.00013638
0.0023372
0.00014354
0.0017613
0.00015262
0.001361
0.00015721
0.00084835
0.00041408
0.00016088
2.005e-05
0.0040962
7.4439e-08
4.0195e-05
0.0040056
5.978e-05
0.00386
7.8369e-05
0.0036528
9.5745e-05
0.0033836
0.0001109
0.0030673
0.0001257
0.0026591
0.0001365
0.0023264
0.00014357
0.0017542
0.0001525
0.001352
0.00015718
0.00084367
0.00041036
0.0001609
2.005e-05
0.004076
7.5914e-08
4.0197e-05
0.0039855
5.9783e-05
0.0038404
7.8373e-05
0.0036342
9.5756e-05
0.0033662
0.0001109
0.0030522
0.00012569
0.0026443
0.00013661
0.0023155
0.00014362
0.0017472
0.00015239
0.0013433
0.00015716
0.00083891
0.0004066
0.00016092
2.005e-05
0.0040559
7.7396e-08
4.0198e-05
0.0039653
5.9786e-05
0.0038208
7.8376e-05
0.0036156
9.5768e-05
0.0033488
0.0001109
0.0030371
0.00012568
0.0026295
0.00013672
0.0023044
0.00014367
0.0017403
0.0001523
0.0013346
0.00015713
0.00083407
0.0004028
0.00016092
2.005e-05
0.0040358
7.8885e-08
4.02e-05
0.0039452
5.9789e-05
0.0038012
7.838e-05
0.003597
9.578e-05
0.0033314
0.0001109
0.003022
0.00012567
0.0026148
0.00013683
0.0022933
0.00014374
0.0017333
0.00015221
0.0013262
0.00015709
0.00082919
0.00039897
0.00016093
2.005e-05
0.0040156
8.038e-08
4.0201e-05
0.003925
5.9793e-05
0.0037816
7.8383e-05
0.0035784
9.5792e-05
0.003314
0.0001109
0.0030068
0.00012565
0.0026
0.00013693
0.002282
0.00014382
0.0017265
0.00015213
0.0013178
0.00015706
0.00082426
0.00039511
0.00016092
2.005e-05
0.0039955
8.1882e-08
4.0203e-05
0.0039049
5.9796e-05
0.003762
7.8387e-05
0.0035598
9.5804e-05
0.0032966
0.0001109
0.0029918
0.00012563
0.0025853
0.00013704
0.0022706
0.0001439
0.0017196
0.00015207
0.0013097
0.00015703
0.0008193
0.00039123
0.00016091
2.005e-05
0.0039754
8.3391e-08
4.0204e-05
0.0038847
5.9799e-05
0.0037424
7.839e-05
0.0035412
9.5816e-05
0.0032792
0.0001109
0.0029767
0.00012561
0.0025706
0.00013713
0.002259
0.00014399
0.0017127
0.00015202
0.0013017
0.000157
0.00081431
0.00038733
0.0001609
2.005e-05
0.0039552
8.4908e-08
4.0206e-05
0.0038646
5.9802e-05
0.0037228
7.8394e-05
0.0035227
9.5828e-05
0.0032617
0.00011091
0.0029616
0.00012558
0.0025559
0.00013723
0.0022474
0.0001441
0.0017059
0.00015198
0.0012938
0.00015697
0.00080932
0.00038342
0.00016088
2.005e-05
0.0039351
8.6432e-08
4.0207e-05
0.0038444
5.9806e-05
0.0037032
7.8397e-05
0.0035041
9.584e-05
0.0032443
0.00011091
0.0029465
0.00012556
0.0025413
0.00013732
0.0022356
0.0001442
0.001699
0.00015195
0.001286
0.00015695
0.00080431
0.0003795
0.00016087
2.005e-05
0.003915
8.7963e-08
4.0209e-05
0.0038242
5.9809e-05
0.0036836
7.8401e-05
0.0034855
9.5852e-05
0.0032269
0.00011092
0.0029314
0.00012553
0.0025267
0.0001374
0.0022238
0.00014431
0.0016921
0.00015193
0.0012784
0.00015693
0.00079931
0.00037558
0.00016085
2.005e-05
0.0038948
8.9502e-08
4.021e-05
0.0038041
5.9812e-05
0.003664
7.8405e-05
0.0034669
9.5865e-05
0.0032094
0.00011093
0.0029164
0.0001255
0.0025121
0.00013748
0.0022118
0.00014443
0.0016851
0.00015192
0.0012709
0.00015692
0.00079432
0.00037166
0.00016084
2.005e-05
0.0038747
9.1049e-08
4.0212e-05
0.0037839
5.9816e-05
0.0036444
7.8408e-05
0.0034483
9.5877e-05
0.0031919
0.00011094
0.0029013
0.00012547
0.0024976
0.00013755
0.0021997
0.00014455
0.0016781
0.00015193
0.0012635
0.00015691
0.00078933
0.00036774
0.00016083
2.005e-05
0.0038545
9.2605e-08
4.0213e-05
0.0037638
5.9819e-05
0.0036248
7.8412e-05
0.0034297
9.5889e-05
0.0031744
0.00011095
0.0028862
0.00012544
0.0024831
0.00013762
0.0021875
0.00014467
0.0016711
0.00015194
0.0012563
0.00015691
0.00078437
0.00036384
0.00016081
2.005e-05
0.0038344
9.4168e-08
4.0215e-05
0.0037436
5.9823e-05
0.0036052
7.8416e-05
0.0034111
9.5901e-05
0.003157
0.00011096
0.0028712
0.00012541
0.0024686
0.00013768
0.0021753
0.00014479
0.001664
0.00015197
0.0012491
0.00015691
0.00077942
0.00035994
0.0001608
2.005e-05
0.0038143
9.5739e-08
4.0217e-05
0.0037234
5.9826e-05
0.0035856
7.8419e-05
0.0033925
9.5913e-05
0.0031395
0.00011098
0.0028561
0.00012538
0.0024542
0.00013774
0.0021629
0.00014491
0.0016568
0.000152
0.001242
0.00015692
0.0007745
0.00035607
0.0001608
2.005e-05
0.0037941
9.7319e-08
4.0218e-05
0.0037033
5.983e-05
0.003566
7.8423e-05
0.0033739
9.5925e-05
0.003122
0.00011099
0.0028411
0.00012535
0.0024399
0.00013779
0.0021505
0.00014504
0.0016495
0.00015204
0.001235
0.00015694
0.00076961
0.00035222
0.00016079
2.005e-05
0.003774
9.8908e-08
4.022e-05
0.0036831
5.9833e-05
0.0035464
7.8427e-05
0.0033553
9.5937e-05
0.0031045
0.00011101
0.002826
0.00012532
0.0024256
0.00013783
0.002138
0.00014516
0.0016422
0.00015209
0.0012281
0.00015696
0.00076474
0.00034838
0.00016079
2.005e-05
0.0037538
1.0051e-07
4.0221e-05
0.0036629
5.9837e-05
0.0035268
7.8431e-05
0.0033367
9.5948e-05
0.0030869
0.00011103
0.0028109
0.00012528
0.0024113
0.00013787
0.0021254
0.00014528
0.0016348
0.00015214
0.0012212
0.00015698
0.00075989
0.00034458
0.00016079
2.005e-05
0.0037337
1.0211e-07
4.0223e-05
0.0036427
5.9841e-05
0.0035071
7.8435e-05
0.0033181
9.596e-05
0.0030694
0.00011105
0.0027958
0.00012525
0.0023971
0.0001379
0.0021127
0.0001454
0.0016273
0.0001522
0.0012144
0.00015701
0.00075508
0.0003408
0.00016079
2.005e-05
0.0037135
1.0373e-07
4.0225e-05
0.0036226
5.9844e-05
0.0034875
7.8439e-05
0.0032995
9.5971e-05
0.0030519
0.00011107
0.0027807
0.00012522
0.002383
0.00013793
0.0021
0.00014552
0.0016197
0.00015226
0.0012077
0.00015705
0.00075029
0.00033706
0.0001608
2.005e-05
0.0036933
1.0535e-07
4.0227e-05
0.0036024
5.9848e-05
0.0034679
7.8443e-05
0.0032809
9.5982e-05
0.0030343
0.00011109
0.0027656
0.00012519
0.0023689
0.00013795
0.0020873
0.00014563
0.001612
0.00015233
0.001201
0.00015709
0.00074554
0.00033334
0.0001608
2.005e-05
0.0036732
1.0699e-07
4.0228e-05
0.0035822
5.9852e-05
0.0034483
7.8447e-05
0.0032623
9.5993e-05
0.0030168
0.00011112
0.0027505
0.00012517
0.0023548
0.00013797
0.0020745
0.00014574
0.0016043
0.00015241
0.0011943
0.00015714
0.00074081
0.00032966
0.00016082
2.005e-05
0.003653
1.0863e-07
4.023e-05
0.003562
5.9856e-05
0.0034287
7.8451e-05
0.0032438
9.6004e-05
0.0029992
0.00011114
0.0027353
0.00012514
0.0023408
0.00013799
0.0020616
0.00014585
0.0015964
0.00015248
0.0011877
0.00015718
0.0007361
0.00032602
0.00016083
2.005e-05
0.0036329
1.1029e-07
4.0232e-05
0.0035419
5.986e-05
0.003409
7.8455e-05
0.0032252
9.6014e-05
0.0029817
0.00011117
0.0027202
0.00012511
0.0023269
0.000138
0.0020487
0.00014595
0.0015885
0.00015256
0.0011811
0.00015724
0.00073143
0.00032241
0.00016085
2.005e-05
0.0036127
1.1195e-07
4.0234e-05
0.0035217
5.9864e-05
0.0033894
7.846e-05
0.0032066
9.6024e-05
0.0029641
0.00011119
0.002705
0.00012509
0.002313
0.000138
0.0020358
0.00014605
0.0015804
0.00015264
0.0011745
0.00015729
0.00072677
0.00031884
0.00016086
2.005e-05
0.0035925
1.1363e-07
4.0236e-05
0.0035015
5.9868e-05
0.0033698
7.8464e-05
0.003188
9.6034e-05
0.0029465
0.00011122
0.0026898
0.00012507
0.0022991
0.00013801
0.0020229
0.00014614
0.0015723
0.00015272
0.0011679
0.00015735
0.00072214
0.0003153
0.00016088
2.005e-05
0.0035724
1.1532e-07
4.0237e-05
0.0034813
5.9872e-05
0.0033501
7.8469e-05
0.0031694
9.6043e-05
0.002929
0.00011125
0.0026746
0.00012505
0.0022853
0.00013801
0.0020099
0.00014623
0.0015641
0.0001528
0.0011613
0.00015741
0.00071753
0.0003118
0.00016091
2.005e-05
0.0035522
1.1701e-07
4.0239e-05
0.0034611
5.9876e-05
0.0033305
7.8473e-05
0.0031508
9.6053e-05
0.0029114
0.00011128
0.0026594
0.00012503
0.0022716
0.00013801
0.0019969
0.00014631
0.0015558
0.00015288
0.0011548
0.00015747
0.00071294
0.00030835
0.00016093
2.005e-05
0.003532
1.1872e-07
4.0241e-05
0.0034409
5.988e-05
0.0033109
7.8478e-05
0.0031322
9.6062e-05
0.0028938
0.00011131
0.0026441
0.00012502
0.0022579
0.000138
0.0019839
0.00014639
0.0015474
0.00015296
0.0011482
0.00015754
0.00070837
0.00030492
0.00016096
2.005e-05
0.0035119
1.2044e-07
4.0243e-05
0.0034207
5.9884e-05
0.0032912
7.8483e-05
0.0031136
9.6071e-05
0.0028762
0.00011134
0.0026289
0.000125
0.0022442
0.00013799
0.001971
0.00014647
0.0015389
0.00015304
0.0011416
0.0001576
0.00070381
0.00030154
0.00016098
2.005e-05
0.0034917
1.2217e-07
4.0245e-05
0.0034005
5.9888e-05
0.0032716
7.8488e-05
0.003095
9.6079e-05
0.0028586
0.00011137
0.0026136
0.00012499
0.0022306
0.00013799
0.001958
0.00014654
0.0015303
0.00015313
0.001135
0.00015767
0.00069927
0.0002982
0.00016101
2.005e-05
0.0034715
1.2392e-07
4.0247e-05
0.0033803
5.9892e-05
0.0032519
7.8493e-05
0.0030764
9.6088e-05
0.002841
0.0001114
0.0025983
0.00012498
0.002217
0.00013798
0.001945
0.00014661
0.0015217
0.00015321
0.0011284
0.00015774
0.00069474
0.00029489
0.00016104
2.0051e-05
0.0034514
1.2567e-07
4.0249e-05
0.0033601
5.9897e-05
0.0032323
7.8498e-05
0.0030578
9.6096e-05
0.0028234
0.00011143
0.0025829
0.00012498
0.0022034
0.00013796
0.001932
0.00014667
0.001513
0.00015328
0.0011218
0.0001578
0.00069022
0.00029162
0.00016107
2.0051e-05
0.0034312
1.2744e-07
4.0251e-05
0.0033399
5.9901e-05
0.0032126
7.8504e-05
0.0030392
9.6104e-05
0.0028058
0.00011146
0.0025676
0.00012497
0.0021899
0.00013795
0.001919
0.00014673
0.0015042
0.00015336
0.0011152
0.00015787
0.00068571
0.00028838
0.00016111
2.0051e-05
0.003411
1.2922e-07
4.0253e-05
0.0033197
5.9905e-05
0.003193
7.8509e-05
0.0030206
9.6112e-05
0.0027882
0.0001115
0.0025522
0.00012497
0.0021765
0.00013794
0.001906
0.00014679
0.0014953
0.00015344
0.0011086
0.00015794
0.0006812
0.00028518
0.00016114
2.0051e-05
0.0033908
1.3102e-07
4.0255e-05
0.0032995
5.991e-05
0.0031733
7.8515e-05
0.003002
9.6119e-05
0.0027706
0.00011153
0.0025368
0.00012497
0.002163
0.00013793
0.0018931
0.00014684
0.0014864
0.00015351
0.0011019
0.00015801
0.00067671
0.00028202
0.00016117
2.0051e-05
0.0033706
1.3282e-07
4.0257e-05
0.0032793
5.9914e-05
0.0031537
7.852e-05
0.0029834
9.6127e-05
0.002753
0.00011156
0.0025214
0.00012497
0.0021496
0.00013791
0.0018801
0.00014689
0.0014774
0.00015358
0.0010952
0.00015808
0.00067221
0.00027889
0.00016121
2.0051e-05
0.0033504
1.3464e-07
4.0259e-05
0.0032591
5.9919e-05
0.003134
7.8526e-05
0.0029647
9.6134e-05
0.0027354
0.00011159
0.0025059
0.00012497
0.0021362
0.0001379
0.0018672
0.00014694
0.0014684
0.00015365
0.0010885
0.00015814
0.00066772
0.00027579
0.00016124
2.0051e-05
0.0033303
1.3648e-07
4.0261e-05
0.0032389
5.9923e-05
0.0031143
7.8532e-05
0.0029461
9.6141e-05
0.0027178
0.00011162
0.0024904
0.00012498
0.0021229
0.00013789
0.0018543
0.00014698
0.0014593
0.00015372
0.0010817
0.00015821
0.00066323
0.00027273
0.00016128
2.0051e-05
0.0033101
1.3832e-07
4.0264e-05
0.0032187
5.9928e-05
0.0030947
7.8538e-05
0.0029275
9.6148e-05
0.0027002
0.00011166
0.0024749
0.00012499
0.0021096
0.00013788
0.0018414
0.00014703
0.0014502
0.00015379
0.001075
0.00015828
0.00065874
0.0002697
0.00016131
2.0051e-05
0.0032899
1.4019e-07
4.0266e-05
0.0031985
5.9933e-05
0.003075
7.8544e-05
0.0029089
9.6155e-05
0.0026826
0.00011169
0.0024594
0.000125
0.0020962
0.00013786
0.0018285
0.00014706
0.001441
0.00015386
0.0010682
0.00015834
0.00065426
0.0002667
0.00016135
2.0051e-05
0.0032697
1.4206e-07
4.0268e-05
0.0031783
5.9937e-05
0.0030553
7.8551e-05
0.0028903
9.6162e-05
0.002665
0.00011172
0.0024438
0.00012501
0.002083
0.00013785
0.0018157
0.0001471
0.0014317
0.00015392
0.0010614
0.00015841
0.00064976
0.00026372
0.00016138
2.0051e-05
0.0032495
1.4395e-07
4.027e-05
0.003158
5.9942e-05
0.0030357
7.8557e-05
0.0028717
9.6168e-05
0.0026474
0.00011175
0.0024282
0.00012502
0.0020697
0.00013784
0.0018029
0.00014714
0.0014224
0.00015398
0.0010545
0.00015848
0.00064527
0.00026078
0.00016142
2.0051e-05
0.0032293
1.4586e-07
4.0273e-05
0.0031378
5.9947e-05
0.003016
7.8564e-05
0.0028531
9.6175e-05
0.0026298
0.00011179
0.0024126
0.00012504
0.0020564
0.00013783
0.0017901
0.00014717
0.0014131
0.00015404
0.0010477
0.00015854
0.00064077
0.00025787
0.00016145
2.0052e-05
0.0032091
1.4778e-07
4.0275e-05
0.0031176
5.9952e-05
0.0029963
7.8571e-05
0.0028345
9.6182e-05
0.0026121
0.00011182
0.002397
0.00012506
0.0020432
0.00013783
0.0017773
0.0001472
0.0014037
0.0001541
0.0010407
0.0001586
0.00063627
0.00025498
0.00016149
2.0052e-05
0.0031889
1.4972e-07
4.0277e-05
0.0030974
5.9957e-05
0.0029766
7.8577e-05
0.0028158
9.6188e-05
0.0025945
0.00011185
0.0023813
0.00012507
0.00203
0.00013782
0.0017646
0.00014723
0.0013943
0.00015416
0.0010338
0.00015867
0.00063177
0.00025212
0.00016153
2.0052e-05
0.0031687
1.5168e-07
4.028e-05
0.0030771
5.9962e-05
0.002957
7.8584e-05
0.0027972
9.6194e-05
0.0025769
0.00011188
0.0023656
0.00012509
0.0020168
0.00013781
0.0017519
0.00014726
0.0013848
0.00015422
0.0010269
0.00015873
0.00062726
0.00024929
0.00016156
2.0052e-05
0.0031485
1.5365e-07
4.0282e-05
0.0030569
5.9967e-05
0.0029373
7.8591e-05
0.0027786
9.6201e-05
0.0025593
0.00011191
0.0023499
0.00012511
0.0020035
0.00013781
0.0017392
0.00014729
0.0013754
0.00015427
0.0010199
0.00015879
0.00062274
0.00024647
0.0001616
2.0052e-05
0.0031283
1.5564e-07
4.0284e-05
0.0030367
5.9972e-05
0.0029176
7.8599e-05
0.00276
9.6207e-05
0.0025417
0.00011194
0.0023342
0.00012514
0.0019904
0.00013781
0.0017265
0.00014731
0.0013659
0.00015433
0.0010129
0.00015885
0.00061821
0.00024369
0.00016164
2.0052e-05
0.0031081
1.5764e-07
4.0287e-05
0.0030164
5.9978e-05
0.0028979
7.8606e-05
0.0027413
9.6214e-05
0.0025241
0.00011197
0.0023184
0.00012516
0.0019772
0.0001378
0.0017138
0.00014734
0.0013563
0.00015438
0.0010058
0.00015891
0.00061368
0.00024093
0.00016167
2.0052e-05
0.0030879
1.5967e-07
4.0289e-05
0.0029962
5.9983e-05
0.0028782
7.8613e-05
0.0027227
9.622e-05
0.0025065
0.000112
0.0023026
0.00012519
0.001964
0.0001378
0.0017012
0.00014737
0.0013468
0.00015443
0.00099877
0.00015897
0.00060914
0.00023819
0.00016171
2.0052e-05
0.0030676
1.6171e-07
4.0292e-05
0.002976
5.9988e-05
0.0028585
7.8621e-05
0.0027041
9.6226e-05
0.0024889
0.00011203
0.0022868
0.00012521
0.0019508
0.0001378
0.0016886
0.00014739
0.0013372
0.00015448
0.00099168
0.00015903
0.00060459
0.00023547
0.00016175
2.0053e-05
0.0030474
1.6377e-07
4.0294e-05
0.0029557
5.9994e-05
0.0028388
7.8628e-05
0.0026854
9.6233e-05
0.0024713
0.00011206
0.002271
0.00012524
0.0019376
0.00013781
0.0016761
0.00014741
0.0013276
0.00015453
0.00098456
0.00015909
0.00060004
0.00023277
0.00016178
2.0053e-05
0.0030272
1.6585e-07
4.0297e-05
0.0029355
5.9999e-05
0.0028191
7.8636e-05
0.0026668
9.6239e-05
0.0024537
0.00011209
0.0022552
0.00012527
0.0019244
0.00013781
0.0016635
0.00014744
0.0013179
0.00015458
0.00097742
0.00015914
0.00059547
0.00023009
0.00016182
2.0053e-05
0.003007
1.6794e-07
4.0299e-05
0.0029152
6.0005e-05
0.0027994
7.8644e-05
0.0026482
9.6245e-05
0.0024361
0.00011212
0.0022393
0.0001253
0.0019113
0.00013781
0.001651
0.00014746
0.0013083
0.00015463
0.00097026
0.0001592
0.0005909
0.00022743
0.00016186
2.0053e-05
0.0029868
1.7006e-07
4.0302e-05
0.002895
6.0011e-05
0.0027797
7.8652e-05
0.0026295
9.6252e-05
0.0024185
0.00011215
0.0022234
0.00012533
0.0018981
0.00013782
0.0016385
0.00014749
0.0012986
0.00015467
0.00096307
0.00015926
0.00058632
0.00022479
0.0001619
2.0053e-05
0.0029665
1.722e-07
4.0305e-05
0.0028747
6.0017e-05
0.00276
7.866e-05
0.0026109
9.6258e-05
0.0024009
0.00011218
0.0022075
0.00012536
0.0018849
0.00013783
0.0016261
0.00014751
0.0012889
0.00015472
0.00095586
0.00015931
0.00058172
0.00022217
0.00016193