/*--------------------------------*- C++ -*----------------------------------*\
  =========                 |
  \\      /  F ield         | OpenFOAM: The Open Source CFD Toolbox
   \\    /   O peration     | Website:  https://openfoam.org
    \\  /    A nd           | Version:  6.0
     \\/     M anipulation  |
\*---------------------------------------------------------------------------*/
FoamFile
{
    version     2.0;
    format      ascii;
    class       surfaceScalarField;
    location    "1.52";
    object      phi;
}
// * * * * * * * * * * * * * * * * * * * * * * * * * * * * * * * * * * * * * //

dimensions      [0 3 -1 0 0 0 0];

internalField   nonuniform List<scalar> 
26699
(
2.0051e-05
0.005201
4.0233e-10
4.0126e-05
0.0051116
5.9639e-05
0.0049351
7.8186e-05
0.0046741
9.5416e-05
0.0043332
0.00011102
0.0039182
0.00012472
0.0034362
0.00013626
0.0028953
0.00014546
0.002305
0.00015182
0.0016755
0.00015719
0.0010154
0.0004649
3.4489e-05
2.0051e-05
0.0051809
1.2475e-09
4.0127e-05
0.0050916
5.9641e-05
0.0049155
7.8189e-05
0.0046556
9.5418e-05
0.004316
0.00011102
0.0039026
0.00012471
0.0034225
0.00013624
0.0028838
0.00014544
0.0022958
0.00015109
0.0016698
0.00015897
0.0010075
0.00055867
6.5197e-05
2.0052e-05
0.0051609
2.15e-09
4.0129e-05
0.0050715
5.9643e-05
0.004896
7.8192e-05
0.004637
9.5421e-05
0.0042988
0.00011102
0.003887
0.00012471
0.0034088
0.00013622
0.0028723
0.00014545
0.0022865
0.00015034
0.0016649
0.00016028
0.00099758
0.00062853
9.0426e-05
2.0052e-05
0.0051408
3.0595e-09
4.013e-05
0.0050514
5.9645e-05
0.0048765
7.8195e-05
0.0046185
9.5424e-05
0.0042815
0.00011102
0.0038714
0.0001247
0.0033951
0.00013619
0.0028608
0.00014548
0.0022773
0.00014963
0.0016608
0.00016107
0.00098613
0.00067891
0.00011069
2.0052e-05
0.0051208
3.9697e-09
4.0131e-05
0.0050313
5.9648e-05
0.004857
7.8198e-05
0.0045999
9.5426e-05
0.0042643
0.00011103
0.0038558
0.0001247
0.0033814
0.00013617
0.0028493
0.00014553
0.0022679
0.00014896
0.0016574
0.00016135
0.00097374
0.00071349
0.00012677
2.0052e-05
0.0051007
4.8808e-09
4.0133e-05
0.0050112
5.965e-05
0.0048375
7.8201e-05
0.0045814
9.5429e-05
0.0042471
0.00011103
0.0038402
0.0001247
0.0033678
0.00013614
0.0028379
0.0001456
0.0022584
0.00014837
0.0016546
0.00016119
0.00096092
0.00073532
0.00013937
2.0053e-05
0.0050807
5.7926e-09
4.0134e-05
0.0049912
5.9652e-05
0.004818
7.8204e-05
0.0045628
9.5432e-05
0.0042299
0.00011103
0.0038246
0.0001247
0.0033541
0.00013611
0.0028265
0.00014569
0.0022488
0.00014787
0.0016524
0.00016068
0.00094811
0.00074697
0.00014904
2.0053e-05
0.0050606
6.7052e-09
4.0136e-05
0.0049711
5.9655e-05
0.0047984
7.8207e-05
0.0045443
9.5435e-05
0.0042126
0.00011103
0.003809
0.0001247
0.0033404
0.00013608
0.0028151
0.00014578
0.0022391
0.00014748
0.0016507
0.00015992
0.00093567
0.00075061
0.00015628
2.0053e-05
0.0050405
7.6187e-09
4.0137e-05
0.004951
5.9657e-05
0.0047789
7.821e-05
0.0045257
9.5438e-05
0.0041954
0.00011103
0.0037934
0.0001247
0.0033268
0.00013604
0.0028038
0.00014588
0.0022293
0.00014718
0.0016494
0.00015898
0.00092387
0.00074806
0.00016153
2.0053e-05
0.0050205
8.5331e-09
4.0138e-05
0.0049309
5.9659e-05
0.0047594
7.8213e-05
0.0045072
9.5441e-05
0.0041782
0.00011103
0.0037778
0.0001247
0.0033131
0.00013601
0.0027925
0.00014598
0.0022193
0.000147
0.0016484
0.00015795
0.00091292
0.00074085
0.00016517
2.0053e-05
0.0050004
9.4485e-09
4.014e-05
0.0049108
5.9661e-05
0.0047399
7.8216e-05
0.0044886
9.5444e-05
0.0041609
0.00011104
0.0037622
0.0001247
0.0032994
0.00013597
0.0027812
0.00014607
0.0022092
0.00014692
0.0016476
0.0001569
0.00090294
0.00073021
0.00016754
2.0054e-05
0.0049804
1.0365e-08
4.0141e-05
0.0048907
5.9664e-05
0.0047204
7.8219e-05
0.00447
9.5447e-05
0.0041437
0.00011104
0.0037466
0.0001247
0.0032858
0.00013593
0.00277
0.00014616
0.002199
0.00014694
0.0016468
0.00015586
0.00089402
0.00071716
0.0001689
2.0054e-05
0.0049603
1.1282e-08
4.0142e-05
0.0048707
5.9666e-05
0.0047008
7.8222e-05
0.0044515
9.545e-05
0.0041265
0.00011104
0.0037311
0.00012471
0.0032721
0.00013589
0.0027588
0.00014624
0.0021886
0.00014704
0.001646
0.00015488
0.00088619
0.00070254
0.0001695
2.0054e-05
0.0049402
1.2201e-08
4.0144e-05
0.0048506
5.9668e-05
0.0046813
7.8225e-05
0.0044329
9.5453e-05
0.0041093
0.00011104
0.0037155
0.00012471
0.0032584
0.00013585
0.0027476
0.0001463
0.0021782
0.00014722
0.0016451
0.00015398
0.00087942
0.000687
0.00016953
2.0054e-05
0.0049202
1.3121e-08
4.0145e-05
0.0048305
5.9671e-05
0.0046618
7.8229e-05
0.0044144
9.5456e-05
0.004092
0.00011104
0.0036999
0.00012472
0.0032448
0.00013581
0.0027365
0.00014635
0.0021676
0.00014746
0.0016439
0.0001532
0.00087368
0.00067105
0.00016914
2.0055e-05
0.0049001
1.4042e-08
4.0146e-05
0.0048104
5.9673e-05
0.0046423
7.8232e-05
0.0043958
9.546e-05
0.0040748
0.00011105
0.0036843
0.00012472
0.0032311
0.00013577
0.0027255
0.00014638
0.002157
0.00014776
0.0016426
0.00015253
0.00086891
0.00065511
0.00016848
2.0055e-05
0.00488
1.4964e-08
4.0148e-05
0.0047903
5.9675e-05
0.0046227
7.8235e-05
0.0043773
9.5463e-05
0.0040576
0.00011105
0.0036687
0.00012473
0.0032174
0.00013574
0.0027145
0.0001464
0.0021464
0.00014809
0.0016409
0.00015199
0.00086501
0.00063946
0.00016763
2.0055e-05
0.0048599
1.5888e-08
4.0149e-05
0.0047702
5.9678e-05
0.0046032
7.8238e-05
0.0043587
9.5466e-05
0.0040404
0.00011105
0.0036531
0.00012474
0.0032037
0.0001357
0.0027035
0.00014641
0.0021357
0.00014844
0.0016389
0.00015156
0.00086189
0.00062433
0.00016669
2.0055e-05
0.0048399
1.6813e-08
4.0151e-05
0.0047501
5.968e-05
0.0045837
7.8241e-05
0.0043401
9.547e-05
0.0040231
0.00011105
0.0036375
0.00012475
0.00319
0.00013567
0.0026926
0.00014639
0.002125
0.00014881
0.0016364
0.00015125
0.00085944
0.00060987
0.00016572
2.0056e-05
0.0048198
1.7739e-08
4.0152e-05
0.00473
5.9682e-05
0.0045641
7.8244e-05
0.0043216
9.5473e-05
0.0040059
0.00011105
0.003622
0.00012476
0.0031763
0.00013565
0.0026817
0.00014636
0.0021142
0.00014918
0.0016336
0.00015105
0.00085758
0.00059616
0.00016475
2.0056e-05
0.0047997
1.8667e-08
4.0153e-05
0.0047099
5.9685e-05
0.0045446
7.8247e-05
0.004303
9.5477e-05
0.0039887
0.00011106
0.0036064
0.00012477
0.0031626
0.00013562
0.0026708
0.00014632
0.0021035
0.00014955
0.0016304
0.00015094
0.0008562
0.00058326
0.00016384
2.0056e-05
0.0047797
1.9597e-08
4.0155e-05
0.0046898
5.9687e-05
0.0045251
7.8251e-05
0.0042844
9.548e-05
0.0039714
0.00011106
0.0035908
0.00012478
0.0031489
0.0001356
0.00266
0.00014627
0.0020929
0.00014991
0.0016268
0.00015091
0.00085519
0.00057118
0.00016299
2.0056e-05
0.0047596
2.0528e-08
4.0156e-05
0.0046697
5.969e-05
0.0045056
7.8254e-05
0.0042659
9.5484e-05
0.0039542
0.00011106
0.0035752
0.00012479
0.0031352
0.00013559
0.0026492
0.00014621
0.0020822
0.00015025
0.0016227
0.00015096
0.00085448
0.00055991
0.00016223
2.0056e-05
0.0047395
2.1461e-08
4.0157e-05
0.0046496
5.9692e-05
0.004486
7.8257e-05
0.0042473
9.5488e-05
0.003937
0.00011106
0.0035597
0.0001248
0.0031214
0.00013557
0.0026385
0.00014614
0.0020717
0.00015056
0.0016183
0.00015106
0.00085398
0.00054941
0.00016156
2.0057e-05
0.0047194
2.2395e-08
4.0159e-05
0.0046295
5.9694e-05
0.0044665
7.826e-05
0.0042287
9.5492e-05
0.0039197
0.00011106
0.0035441
0.00012481
0.0031077
0.00013557
0.0026277
0.00014606
0.0020612
0.00015086
0.0016135
0.00015122
0.00085363
0.00053965
0.00016098
2.0057e-05
0.0046993
2.3332e-08
4.016e-05
0.0046094
5.9697e-05
0.0044469
7.8263e-05
0.0042102
9.5496e-05
0.0039025
0.00011106
0.0035285
0.00012482
0.0030939
0.00013556
0.002617
0.00014598
0.0020508
0.00015112
0.0016083
0.0001514
0.00085334
0.00053057
0.00016049
2.0057e-05
0.0046793
2.427e-08
4.0162e-05
0.0045893
5.9699e-05
0.0044274
7.8267e-05
0.0041916
9.55e-05
0.0038853
0.00011107
0.003513
0.00012483
0.0030801
0.00013556
0.0026062
0.00014589
0.0020404
0.00015136
0.0016029
0.00015162
0.00085309
0.00052211
0.00016008
2.0057e-05
0.0046592
2.521e-08
4.0163e-05
0.0045692
5.9702e-05
0.0044079
7.827e-05
0.004173
9.5504e-05
0.003868
0.00011107
0.0034974
0.00012485
0.0030664
0.00013557
0.0025955
0.00014581
0.0020302
0.00015157
0.0015971
0.00015185
0.0008528
0.00051421
0.00015975
2.0058e-05
0.0046391
2.6153e-08
4.0164e-05
0.0045491
5.9704e-05
0.0043883
7.8273e-05
0.0041545
9.5508e-05
0.0038508
0.00011107
0.0034818
0.00012486
0.0030526
0.00013558
0.0025848
0.00014572
0.0020201
0.00015176
0.0015911
0.0001521
0.00085246
0.00050681
0.00015949
2.0058e-05
0.004619
2.7097e-08
4.0166e-05
0.004529
5.9707e-05
0.0043688
7.8276e-05
0.0041359
9.5513e-05
0.0038336
0.00011107
0.0034663
0.00012487
0.0030388
0.00013559
0.0025741
0.00014564
0.00201
0.00015192
0.0015848
0.00015235
0.00085203
0.00049986
0.0001593
2.0058e-05
0.0045989
2.8043e-08
4.0167e-05
0.0045089
5.9709e-05
0.0043492
7.828e-05
0.0041173
9.5517e-05
0.0038163
0.00011107
0.0034507
0.00012488
0.003025
0.0001356
0.0025633
0.00014556
0.0020001
0.00015205
0.0015783
0.00015259
0.00085149
0.0004933
0.00015916
2.0058e-05
0.0045788
2.8992e-08
4.0168e-05
0.0044888
5.9712e-05
0.0043297
7.8283e-05
0.0040988
9.5522e-05
0.0037991
0.00011108
0.0034352
0.00012489
0.0030112
0.00013562
0.0025526
0.00014548
0.0019902
0.00015217
0.0015716
0.00015284
0.00085083
0.00048708
0.00015906
2.0059e-05
0.0045587
2.9943e-08
4.017e-05
0.0044686
5.9714e-05
0.0043102
7.8286e-05
0.0040802
9.5527e-05
0.0037819
0.00011108
0.0034196
0.0001249
0.0029973
0.00013564
0.0025419
0.00014541
0.0019804
0.00015227
0.0015648
0.00015307
0.00085002
0.00048116
0.000159
2.0059e-05
0.0045387
3.0896e-08
4.0171e-05
0.0044485
5.9717e-05
0.0042906
7.829e-05
0.0040616
9.5532e-05
0.0037646
0.00011108
0.0034041
0.00012491
0.0029835
0.00013567
0.0025311
0.00014535
0.0019707
0.00015235
0.0015578
0.0001533
0.00084907
0.00047549
0.00015897
2.0059e-05
0.0045186
3.1852e-08
4.0173e-05
0.0044284
5.9719e-05
0.0042711
7.8293e-05
0.004043
9.5537e-05
0.0037474
0.00011108
0.0033885
0.00012492
0.0029697
0.00013569
0.0025203
0.00014529
0.0019612
0.00015242
0.0015506
0.00015352
0.00084797
0.00047005
0.00015896
2.0059e-05
0.0044985
3.281e-08
4.0174e-05
0.0044083
5.9722e-05
0.0042515
7.8296e-05
0.0040245
9.5542e-05
0.0037301
0.00011108
0.003373
0.00012493
0.0029558
0.00013572
0.0025096
0.00014524
0.0019516
0.00015247
0.0015434
0.00015372
0.00084672
0.00046479
0.00015897
2.006e-05
0.0044784
3.3771e-08
4.0175e-05
0.0043882
5.9725e-05
0.004232
7.83e-05
0.0040059
9.5548e-05
0.0037129
0.00011108
0.0033574
0.00012494
0.0029419
0.00013575
0.0024987
0.00014519
0.0019422
0.00015252
0.0015361
0.00015391
0.00084533
0.00045971
0.000159
2.006e-05
0.0044583
3.4734e-08
4.0177e-05
0.0043681
5.9727e-05
0.0042124
7.8303e-05
0.0039873
9.5553e-05
0.0036956
0.00011109
0.0033419
0.00012495
0.0029281
0.00013578
0.0024879
0.00014515
0.0019328
0.00015256
0.0015287
0.00015409
0.0008438
0.00045476
0.00015904
2.006e-05
0.0044382
3.57e-08
4.0178e-05
0.004348
5.973e-05
0.0041929
7.8307e-05
0.0039687
9.5559e-05
0.0036784
0.00011109
0.0033264
0.00012496
0.0029142
0.00013581
0.0024771
0.00014512
0.0019235
0.00015259
0.0015212
0.00015426
0.00084213
0.00044994
0.00015908
2.006e-05
0.0044181
3.6669e-08
4.018e-05
0.0043278
5.9733e-05
0.0041733
7.831e-05
0.0039502
9.5565e-05
0.0036611
0.00011109
0.0033109
0.00012497
0.0029003
0.00013585
0.0024662
0.0001451
0.0019143
0.00015262
0.0015137
0.00015442
0.00084033
0.00044524
0.00015913
2.0061e-05
0.004398
3.7641e-08
4.0181e-05
0.0043077
5.9735e-05
0.0041538
7.8313e-05
0.0039316
9.5571e-05
0.0036439
0.00011109
0.0032953
0.00012498
0.0028864
0.00013588
0.0024553
0.00014508
0.0019051
0.00015265
0.0015061
0.00015458
0.0008384
0.00044062
0.00015919
2.0061e-05
0.0043779
3.8616e-08
4.0183e-05
0.0042876
5.9738e-05
0.0041342
7.8317e-05
0.003913
9.5577e-05
0.0036266
0.00011109
0.0032798
0.00012499
0.0028725
0.00013592
0.0024444
0.00014507
0.0018959
0.00015268
0.0014985
0.00015472
0.00083636
0.0004361
0.00015924
2.0061e-05
0.0043578
3.9594e-08
4.0184e-05
0.0042675
5.9741e-05
0.0041146
7.832e-05
0.0038944
9.5584e-05
0.0036093
0.0001111
0.0032643
0.000125
0.0028586
0.00013595
0.0024334
0.00014506
0.0018868
0.0001527
0.0014908
0.00015485
0.00083421
0.00043165
0.0001593
2.0061e-05
0.0043377
4.0574e-08
4.0185e-05
0.0042473
5.9744e-05
0.0040951
7.8324e-05
0.0038759
9.559e-05
0.0035921
0.0001111
0.0032488
0.00012501
0.0028447
0.00013599
0.0024224
0.00014506
0.0018777
0.00015272
0.0014832
0.00015498
0.00083196
0.00042727
0.00015936
2.0062e-05
0.0043176
4.1558e-08
4.0187e-05
0.0042272
5.9747e-05
0.0040755
7.8327e-05
0.0038573
9.5597e-05
0.0035748
0.0001111
0.0032333
0.00012502
0.0028308
0.00013602
0.0024114
0.00014506
0.0018687
0.00015275
0.0014755
0.0001551
0.00082961
0.00042296
0.00015941
2.0062e-05
0.0042975
4.2546e-08
4.0188e-05
0.0042071
5.975e-05
0.004056
7.833e-05
0.0038387
9.5604e-05
0.0035575
0.00011111
0.0032178
0.00012502
0.0028169
0.00013606
0.0024004
0.00014506
0.0018597
0.00015277
0.0014678
0.00015521
0.00082717
0.00041871
0.00015946
2.0062e-05
0.0042774
4.3536e-08
4.019e-05
0.004187
5.9753e-05
0.0040364
7.8334e-05
0.0038201
9.5611e-05
0.0035402
0.00011111
0.0032023
0.00012503
0.002803
0.0001361
0.0023893
0.00014507
0.0018507
0.0001528
0.00146
0.00015532
0.00082464
0.00041452
0.00015951
2.0063e-05
0.0042573
4.453e-08
4.0191e-05
0.0041668
5.9756e-05
0.0040168
7.8337e-05
0.0038015
9.5618e-05
0.003523
0.00011111
0.0031868
0.00012504
0.002789
0.00013613
0.0023782
0.00014509
0.0018418
0.00015282
0.0014523
0.00015543
0.00082203
0.00041039
0.00015956
2.0063e-05
0.0042372
4.5528e-08
4.0193e-05
0.0041467
5.9759e-05
0.0039973
7.8341e-05
0.0037829
9.5626e-05
0.0035057
0.00011112
0.0031713
0.00012505
0.0027751
0.00013617
0.0023671
0.0001451
0.0018328
0.00015285
0.0014446
0.00015553
0.00081935
0.00040631
0.00015961
2.0063e-05
0.004217
4.6529e-08
4.0194e-05
0.0041266
5.9762e-05
0.0039777
7.8344e-05
0.0037644
9.5633e-05
0.0034884
0.00011112
0.0031558
0.00012506
0.0027612
0.00013621
0.002356
0.00014512
0.0018239
0.00015288
0.0014368
0.00015563
0.0008166
0.00040228
0.00015966
2.0064e-05
0.0041969
4.7534e-08
4.0196e-05
0.0041064
5.9765e-05
0.0039581
7.8348e-05
0.0037458
9.5641e-05
0.0034711
0.00011113
0.0031403
0.00012506
0.0027472
0.00013624
0.0023448
0.00014514
0.001815
0.00015291
0.001429
0.00015572
0.00081378
0.0003983
0.0001597
2.0064e-05
0.0041768
4.8542e-08
4.0197e-05
0.0040863
5.9768e-05
0.0039386
7.8351e-05
0.0037272
9.5649e-05
0.0034538
0.00011113
0.0031249
0.00012507
0.0027333
0.00013628
0.0023336
0.00014517
0.0018061
0.00015293
0.0014213
0.00015582
0.0008109
0.00039437
0.00015975
2.0064e-05
0.0041567
4.9555e-08
4.0199e-05
0.0040662
5.9772e-05
0.003919
7.8355e-05
0.0037086
9.5657e-05
0.0034365
0.00011114
0.0031094
0.00012508
0.0027194
0.00013632
0.0023223
0.00014519
0.0017973
0.00015296
0.0014135
0.00015591
0.00080796
0.00039049
0.00015979
2.0065e-05
0.0041366
5.0571e-08
4.02e-05
0.004046
5.9775e-05
0.0038994
7.8358e-05
0.00369
9.5665e-05
0.0034192
0.00011115
0.0030939
0.00012509
0.0027054
0.00013635
0.0023111
0.00014522
0.0017884
0.00015299
0.0014057
0.00015599
0.00080496
0.00038665
0.00015983
2.0065e-05
0.0041165
5.1592e-08
4.0202e-05
0.0040259
5.9778e-05
0.0038798
7.8362e-05
0.0036714
9.5673e-05
0.0034019
0.00011115
0.0030784
0.0001251
0.0026915
0.00013639
0.0022998
0.00014524
0.0017795
0.00015302
0.0013979
0.00015608
0.0008019
0.00038287
0.00015987
2.0065e-05
0.0040964
5.2616e-08
4.0203e-05
0.0040058
5.9782e-05
0.0038603
7.8366e-05
0.0036529
9.5681e-05
0.0033846
0.00011116
0.0030629
0.0001251
0.0026775
0.00013643
0.0022885
0.00014527
0.0017707
0.00015305
0.0013902
0.00015616
0.0007988
0.00037912
0.0001599
2.0066e-05
0.0040762
5.3645e-08
4.0205e-05
0.0039856
5.9785e-05
0.0038407
7.837e-05
0.0036343
9.5689e-05
0.0033672
0.00011117
0.0030474
0.00012511
0.0026636
0.00013646
0.0022771
0.0001453
0.0017619
0.00015309
0.0013824
0.00015624
0.00079564
0.00037542
0.00015994
2.0066e-05
0.0040561
5.4678e-08
4.0207e-05
0.0039655
5.9789e-05
0.0038211
7.8374e-05
0.0036157
9.5698e-05
0.0033499
0.00011118
0.003032
0.00012512
0.0026497
0.0001365
0.0022657
0.00014533
0.001753
0.00015312
0.0013746
0.00015632
0.00079244
0.00037177
0.00015998
2.0066e-05
0.004036
5.5715e-08
4.0208e-05
0.0039453
5.9792e-05
0.0038015
7.8378e-05
0.0035971
9.5706e-05
0.0033326
0.00011119
0.0030165
0.00012513
0.0026357
0.00013653
0.0022543
0.00014536
0.0017442
0.00015315
0.0013668
0.0001564
0.00078919
0.00036815
0.00016001
2.0067e-05
0.0040159
5.6757e-08
4.021e-05
0.0039252
5.9796e-05
0.0037819
7.8382e-05
0.0035785
9.5715e-05
0.0033153
0.0001112
0.003001
0.00012514
0.0026218
0.00013657
0.0022429
0.00014539
0.0017354
0.00015318
0.001359
0.00015647
0.00078589
0.00036458
0.00016004
2.0067e-05
0.0039957
5.7803e-08
4.0211e-05
0.0039051
5.98e-05
0.0037623
7.8386e-05
0.0035599
9.5724e-05
0.0032979
0.00011121
0.0029855
0.00012515
0.0026078
0.0001366
0.0022315
0.00014542
0.0017266
0.00015321
0.0013512
0.00015655
0.00078255
0.00036105
0.00016008
2.0068e-05
0.0039756
5.8854e-08
4.0213e-05
0.0038849
5.9804e-05
0.0037428
7.839e-05
0.0035414
9.5733e-05
0.0032806
0.00011123
0.00297
0.00012516
0.0025939
0.00013664
0.00222
0.00014545
0.0017177
0.00015324
0.0013435
0.00015662
0.00077917
0.00035757
0.00016011
2.0068e-05
0.0039555
5.991e-08
4.0215e-05
0.0038648
5.9808e-05
0.0037232
7.8395e-05
0.0035228
9.5742e-05
0.0032632
0.00011124
0.0029545
0.00012518
0.00258
0.00013667
0.0022085
0.00014548
0.0017089
0.00015327
0.0013357
0.00015669
0.00077575
0.00035412
0.00016014
2.0069e-05
0.0039354
6.0971e-08
4.0216e-05
0.0038446
5.9812e-05
0.0037036
7.8399e-05
0.0035042
9.5751e-05
0.0032459
0.00011125
0.002939
0.00012519
0.002566
0.00013671
0.002197
0.00014551
0.0017001
0.0001533
0.0013279
0.00015676
0.00077229
0.00035071
0.00016017
2.0069e-05
0.0039152
6.2036e-08
4.0218e-05
0.0038245
5.9816e-05
0.003684
7.8404e-05
0.0034856
9.576e-05
0.0032285
0.00011127
0.0029235
0.0001252
0.0025521
0.00013674
0.0021854
0.00014555
0.0016913
0.00015333
0.0013201
0.00015683
0.00076879
0.00034733
0.0001602
2.007e-05
0.0038951
6.3106e-08
4.022e-05
0.0038043
5.982e-05
0.0036644
7.8409e-05
0.003467
9.577e-05
0.0032112
0.00011128
0.002908
0.00012521
0.0025382
0.00013677
0.0021739
0.00014558
0.0016825
0.00015336
0.0013123
0.00015689
0.00076525
0.000344
0.00016023
2.007e-05
0.003875
6.4181e-08
4.0222e-05
0.0037842
5.9824e-05
0.0036448
7.8415e-05
0.0034484
9.5779e-05
0.0031938
0.0001113
0.0028925
0.00012523
0.0025242
0.0001368
0.0021623
0.00014561
0.0016737
0.00015339
0.0013045
0.00015696
0.00076168
0.0003407
0.00016026
2.0071e-05
0.0038548
6.5261e-08
4.0224e-05
0.003764
5.9828e-05
0.0036252
7.842e-05
0.0034298
9.5789e-05
0.0031764
0.00011131
0.0028769
0.00012524
0.0025103
0.00013683
0.0021507
0.00014564
0.0016649
0.00015341
0.0012968
0.00015702
0.00075807
0.00033744
0.00016028
2.0071e-05
0.0038347
6.6346e-08
4.0226e-05
0.0037439
5.9833e-05
0.0036056
7.8426e-05
0.0034112
9.5799e-05
0.0031591
0.00011133
0.0028614
0.00012525
0.0024964
0.00013687
0.0021391
0.00014567
0.0016561
0.00015344
0.001289
0.00015708
0.00075443
0.00033421
0.00016031
2.0072e-05
0.0038146
6.7436e-08
4.0228e-05
0.0037237
5.9837e-05
0.0035859
7.8432e-05
0.0033926
9.5809e-05
0.0031417
0.00011135
0.0028459
0.00012527
0.0024825
0.0001369
0.0021275
0.0001457
0.0016473
0.00015347
0.0012812
0.00015714
0.00075076
0.00033101
0.00016034
2.0072e-05
0.0037944
6.853e-08
4.023e-05
0.0037035
5.9842e-05
0.0035663
7.8438e-05
0.003374
9.5819e-05
0.0031243
0.00011136
0.0028303
0.00012528
0.0024686
0.00013693
0.0021158
0.00014573
0.0016385
0.0001535
0.0012735
0.0001572
0.00074706
0.00032785
0.00016037
2.0073e-05
0.0037743
6.963e-08
4.0232e-05
0.0036834
5.9847e-05
0.0035467
7.8444e-05
0.0033554
9.583e-05
0.0031069
0.00011138
0.0028148
0.0001253
0.0024546
0.00013696
0.0021041
0.00014576
0.0016297
0.00015353
0.0012657
0.00015726
0.00074332
0.00032472
0.00016039
2.0074e-05
0.0037541
7.0734e-08
4.0234e-05
0.0036632
5.9852e-05
0.0035271
7.8451e-05
0.0033368
9.584e-05
0.0030895
0.0001114
0.0027992
0.00012531
0.0024407
0.00013699
0.0020925
0.00014579
0.0016209
0.00015355
0.0012579
0.00015732
0.00073955
0.00032163
0.00016042
2.0074e-05
0.003734
7.1843e-08
4.0236e-05
0.0036431
5.9856e-05
0.0035075
7.8458e-05
0.0033182
9.5851e-05
0.0030721
0.00011142
0.0027836
0.00012532
0.0024268
0.00013701
0.0020808
0.00014582
0.0016121
0.00015358
0.0012502
0.00015738
0.00073576
0.00031856
0.00016044
2.0075e-05
0.0037138
7.2956e-08
4.0239e-05
0.0036229
5.9862e-05
0.0034879
7.8465e-05
0.0032996
9.5862e-05
0.0030547
0.00011144
0.0027681
0.00012534
0.0024129
0.00013704
0.0020691
0.00014585
0.0016032
0.00015361
0.0012424
0.00015743
0.00073193
0.00031552
0.00016047
2.0076e-05
0.0036937
7.4073e-08
4.0241e-05
0.0036027
5.9867e-05
0.0034682
7.8473e-05
0.003281
9.5873e-05
0.0030373
0.00011146
0.0027525
0.00012535
0.002399
0.00013707
0.0020574
0.00014589
0.0015944
0.00015364
0.0012347
0.00015749
0.00072808
0.00031252
0.00016049
2.0076e-05
0.0036735
7.5195e-08
4.0243e-05
0.0035826
5.9872e-05
0.0034486
7.8481e-05
0.0032624
9.5885e-05
0.0030199
0.00011147
0.0027369
0.00012537
0.0023851
0.0001371
0.0020456
0.00014592
0.0015856
0.00015366
0.0012269
0.00015754
0.0007242
0.00030954
0.00016052
2.0077e-05
0.0036534
7.632e-08
4.0246e-05
0.0035624
5.9878e-05
0.003429
7.8489e-05
0.0032438
9.5896e-05
0.0030025
0.00011149
0.0027213
0.00012538
0.0023712
0.00013713
0.0020339
0.00014595
0.0015768
0.00015369
0.0012192
0.00015759
0.0007203
0.00030659
0.00016054
2.0078e-05
0.0036332
7.7449e-08
4.0249e-05
0.0035422
5.9883e-05
0.0034093
7.8497e-05
0.0032252
9.5908e-05
0.0029851
0.00011151
0.0027057
0.0001254
0.0023573
0.00013715
0.0020221
0.00014598
0.001568
0.00015372
0.0012115
0.00015765
0.00071637
0.00030367
0.00016057
2.0079e-05
0.0036131
7.8581e-08
4.0252e-05
0.0035221
5.9889e-05
0.0033897
7.8506e-05
0.0032066
9.592e-05
0.0029677
0.00011153
0.0026901
0.00012541
0.0023435
0.00013718
0.0020104
0.00014601
0.0015591
0.00015374
0.0012037
0.0001577
0.00071241
0.00030077
0.00016059
2.008e-05
0.0035929
7.9715e-08
4.0254e-05
0.0035019
5.9895e-05
0.0033701
7.8515e-05
0.003188
9.5932e-05
0.0029503
0.00011155
0.0026745
0.00012543
0.0023296
0.0001372
0.0019986
0.00014604
0.0015503
0.00015377
0.001196
0.00015775
0.00070843
0.0002979
0.00016062
2.0081e-05
0.0035727
8.0852e-08
4.0258e-05
0.0034817
5.9901e-05
0.0033504
7.8524e-05
0.0031693
9.5944e-05
0.0029329
0.00011157
0.0026588
0.00012544
0.0023157
0.00013723
0.0019868
0.00014607
0.0015415
0.0001538
0.0011883
0.0001578
0.00070443
0.00029506
0.00016064
2.0082e-05
0.0035526
8.1991e-08
4.0261e-05
0.0034615
5.9907e-05
0.0033308
7.8533e-05
0.0031507
9.5956e-05
0.0029154
0.00011159
0.0026432
0.00012546
0.0023018
0.00013726
0.001975
0.0001461
0.0015326
0.00015382
0.0011805
0.00015785
0.00070041
0.00029224
0.00016066
2.0083e-05
0.0035324
8.3131e-08
4.0264e-05
0.0034413
5.9913e-05
0.0033111
7.8543e-05
0.0031321
9.5968e-05
0.002898
0.00011161
0.0026276
0.00012547
0.002288
0.00013728
0.0019632
0.00014613
0.0015238
0.00015385
0.0011728
0.00015789
0.00069636
0.00028945
0.00016069
2.0084e-05
0.0035122
8.4272e-08
4.0267e-05
0.0034212
5.992e-05
0.0032915
7.8553e-05
0.0031134
9.598e-05
0.0028806
0.00011162
0.0026119
0.00012549
0.0022741
0.00013731
0.0019514
0.00014616
0.0015149
0.00015387
0.0011651
0.00015794
0.0006923
0.00028668
0.00016071
2.0085e-05
0.0034921
8.5413e-08
4.0271e-05
0.003401
5.9926e-05
0.0032718
7.8563e-05
0.0030948
9.5992e-05
0.0028632
0.00011164
0.0025963
0.0001255
0.0022602
0.00013733
0.0019396
0.0001462
0.001506
0.0001539
0.0011574
0.00015799
0.00068821
0.00028393
0.00016074
2.0086e-05
0.0034719
8.6554e-08
4.0274e-05
0.0033808
5.9933e-05
0.0032522
7.8573e-05
0.0030762
9.6004e-05
0.0028457
0.00011166
0.0025806
0.00012552
0.0022464
0.00013735
0.0019277
0.00014623
0.0014972
0.00015393
0.0011497
0.00015803
0.00068411
0.0002812
0.00016076
2.0088e-05
0.0034517
8.7694e-08
4.0278e-05
0.0033606
5.9939e-05
0.0032325
7.8583e-05
0.0030575
9.6016e-05
0.0028283
0.00011168
0.002565
0.00012553
0.0022325
0.00013738
0.0019159
0.00014626
0.0014883
0.00015395
0.001142
0.00015808
0.00067998
0.0002785
0.00016078
2.0089e-05
0.0034315
8.8832e-08
4.0282e-05
0.0033404
5.9946e-05
0.0032128
7.8593e-05
0.0030389
9.6028e-05
0.0028109
0.0001117
0.0025493
0.00012554
0.0022187
0.0001374
0.001904
0.00014629
0.0014794
0.00015398
0.0011343
0.00015812
0.00067584
0.00027582
0.00016081
2.009e-05
0.0034114
8.9968e-08
4.0286e-05
0.0033202
5.9953e-05
0.0031932
7.8603e-05
0.0030202
9.604e-05
0.0027934
0.00011171
0.0025336
0.00012556
0.0022048
0.00013743
0.0018921
0.00014632
0.0014705
0.00015401
0.0011266
0.00015817
0.00067168
0.00027316
0.00016083
2.0092e-05
0.0033912
9.1101e-08
4.0289e-05
0.0033
5.996e-05
0.0031735
7.8613e-05
0.0030016
9.6052e-05
0.002776
0.00011173
0.0025179
0.00012557
0.002191
0.00013745
0.0018803
0.00014635
0.0014616
0.00015403
0.001119
0.00015821
0.0006675
0.00027051
0.00016085
2.0093e-05
0.003371
9.2231e-08
4.0294e-05
0.0032798
5.9967e-05
0.0031538
7.8624e-05
0.0029829
9.6064e-05
0.0027585
0.00011175
0.0025023
0.00012559
0.0021772
0.00013747
0.0018684
0.00014639
0.0014527
0.00015406
0.0011113
0.00015825
0.0006633
0.00026789
0.00016088
2.0094e-05
0.0033508
9.3357e-08
4.0298e-05
0.0032596
5.9974e-05
0.0031341
7.8634e-05
0.0029643
9.6076e-05
0.0027411
0.00011176
0.0024866
0.0001256
0.0021633
0.0001375
0.0018565
0.00014642
0.0014438
0.00015409
0.0011036
0.0001583
0.00065909
0.00026529
0.0001609
2.0096e-05
0.0033306
9.4478e-08
4.0302e-05
0.0032394
5.9981e-05
0.0031145
7.8644e-05
0.0029456
9.6087e-05
0.0027237
0.00011178
0.0024709
0.00012561
0.0021495
0.00013752
0.0018446
0.00014645
0.0014348
0.00015411
0.001096
0.00015834
0.00065487
0.00026271
0.00016092
2.0097e-05
0.0033104
9.5594e-08
4.0306e-05
0.0032192
5.9988e-05
0.0030948
7.8655e-05
0.0029269
9.6098e-05
0.0027062
0.0001118
0.0024552
0.00012563
0.0021357
0.00013754
0.0018327
0.00014648
0.0014259
0.00015414
0.0010883
0.00015838
0.00065062
0.00026014
0.00016095
2.0099e-05
0.0032902
9.6705e-08
4.031e-05
0.003199
5.9995e-05
0.0030751
7.8665e-05
0.0029083
9.611e-05
0.0026888
0.00011182
0.0024395
0.00012564
0.0021218
0.00013757
0.0018207
0.00014651
0.001417
0.00015417
0.0010807
0.00015842
0.00064637
0.0002576
0.00016097
2.01e-05
0.00327
9.7809e-08
4.0315e-05
0.0031788
6.0002e-05
0.0030554
7.8675e-05
0.0028896
9.6121e-05
0.0026713
0.00011183
0.0024238
0.00012566
0.002108
0.00013759
0.0018088
0.00014655
0.001408
0.00015419
0.001073
0.00015846
0.0006421
0.00025507
0.00016099
2.0102e-05
0.0032498
9.8907e-08
4.0319e-05
0.0031586
6.0009e-05
0.0030357
7.8685e-05
0.0028709
9.6132e-05
0.0026539
0.00011185
0.002408
0.00012567
0.0020942
0.00013761
0.0017969
0.00014658
0.001399
0.00015422
0.0010654
0.0001585
0.00063782
0.00025255
0.00016102
2.0104e-05
0.0032296
9.9999e-08
4.0323e-05
0.0031383
6.0016e-05
0.003016
7.8695e-05
0.0028522
9.6143e-05
0.0026364
0.00011186
0.0023923
0.00012569
0.0020804
0.00013764
0.0017849
0.00014661
0.0013901
0.00015425
0.0010577
0.00015854
0.00063352
0.00025006
0.00016104
2.0105e-05
0.0032094
1.0108e-07
4.0328e-05
0.0031181
6.0023e-05
0.0029963
7.8705e-05
0.0028335
9.6153e-05
0.002619
0.00011188
0.0023766
0.0001257
0.0020666
0.00013766
0.0017729
0.00014665
0.0013811
0.00015427
0.0010501
0.00015858
0.00062921
0.00024758
0.00016106
2.0107e-05
0.0031892
1.0216e-07
4.0332e-05
0.0030979
6.003e-05
0.0029766
7.8715e-05
0.0028149
9.6164e-05
0.0026015
0.0001119
0.0023609
0.00012571
0.0020527
0.00013768
0.001761
0.00014668
0.0013721
0.0001543
0.0010425
0.00015862
0.00062489
0.00024511
0.00016109
2.0109e-05
0.003169
1.0323e-07
4.0336e-05
0.0030777
6.0037e-05
0.0029569
7.8725e-05
0.0027962
9.6174e-05
0.0025841
0.00011191
0.0023451
0.00012573
0.0020389
0.00013771
0.001749
0.00014671
0.0013631
0.00015433
0.0010349
0.00015866
0.00062056
0.00024266
0.00016111
2.011e-05
0.0031488
1.043e-07
4.0341e-05
0.0030574
6.0044e-05
0.0029372
7.8734e-05
0.0027775
9.6185e-05
0.0025666
0.00011193
0.0023294
0.00012574
0.0020251
0.00013773
0.001737
0.00014675
0.001354
0.00015436
0.0010273
0.0001587
0.00061621
0.00024023
0.00016113
2.0112e-05
0.0031286
1.0535e-07
4.0345e-05
0.0030372
6.005e-05
0.0029175
7.8744e-05
0.0027588
9.6195e-05
0.0025492
0.00011194
0.0023136
0.00012576
0.0020113
0.00013775
0.001725
0.00014678
0.001345
0.00015438
0.0010197
0.00015874
0.00061186
0.00023781
0.00016116
2.0113e-05
0.0031084
1.064e-07
4.0349e-05
0.003017
6.0057e-05
0.0028978
7.8753e-05
0.0027401
9.6205e-05
0.0025317
0.00011196
0.0022979
0.00012578
0.0019975
0.00013777
0.001713
0.00014681
0.001336
0.00015441
0.0010121
0.00015878
0.00060749
0.0002354
0.00016118
2.0115e-05
0.0030881
1.0745e-07
4.0353e-05
0.0029967
6.0063e-05
0.0028781
7.8763e-05
0.0027214
9.6215e-05
0.0025143
0.00011198
0.0022821
0.00012579
0.0019837
0.0001378
0.001701
0.00014685
0.0013269
0.00015444
0.0010045
0.00015881
0.00060312
0.00023301
0.00016121
2.0117e-05
0.0030679
1.0848e-07
4.0358e-05
0.0029765
6.007e-05
0.0028584
7.8772e-05
0.0027027
9.6225e-05
0.0024968
0.00011199
0.0022663
0.00012581
0.0019698
0.00013782
0.001689
0.00014688
0.0013179
0.00015447
0.00099688
0.00015885
0.00059873
0.00023063
0.00016123
2.0118e-05
0.0030477
1.0952e-07
4.0362e-05
0.0029562
6.0076e-05
0.0028387
7.8781e-05
0.002684
9.6235e-05
0.0024794
0.00011201
0.0022506
0.00012582
0.001956
0.00013784
0.001677
0.00014691
0.0013088
0.00015449
0.0009893
0.00015889
0.00059434
0.00022826
0.00016125
2.012e-05
0.0030274
1.1054e-07
4.0366e-05
0.002936
6.0082e-05
0.002819
7.879e-05
0.0026653
9.6245e-05
0.0024619
0.00011203
0.0022348
0.00012584
0.0019422
0.00013787
0.001665
0.00014695
0.0012997
0.00015452
0.00098173
0.00015893
0.00058994
0.00022591
0.00016128
2.0121e-05
0.0030072
1.1157e-07
4.037e-05
0.0029157
6.0089e-05
0.0027992
7.8799e-05
0.0026466
9.6255e-05
0.0024445
0.00011204
0.002219
0.00012586
0.0019284
0.00013789
0.0016529
0.00014698
0.0012906
0.00015455
0.00097416
0.00015896
0.00058552
0.00022357
0.0001613
2.0123e-05
0.002987
1.1259e-07
4.0374e-05
0.0028955
6.0095e-05
0.0027795
7.8808e-05
0.0026279
9.6265e-05
0.002427
0.00011206
0.0022032
0.00012587
0.0019146
0.00013791
0.0016409
0.00014702
0.0012815
0.00015458
0.0009666
0.000159
0.0005811
0.00022124
0.00016133
2.0124e-05
0.0029667
1.136e-07
4.0378e-05
0.0028752
6.0101e-05
0.0027598
7.8818e-05
0.0026091
9.6275e-05
0.0024095
0.00011207
0.0021874
0.00012589
0.0019008
0.00013794
0.0016288
0.00014705
0.0012724
0.00015461
0.00095904