/*--------------------------------*- C++ -*----------------------------------*\
  =========                 |
  \\      /  F ield         | OpenFOAM: The Open Source CFD Toolbox
   \\    /   O peration     | Website:  https://openfoam.org
    \\  /    A nd           | Version:  6.0
     \\/     M anipulation  |
\*---------------------------------------------------------------------------*/
FoamFile
{
    version     2.0;
    format      ascii;
    class       volVectorField;
    location    "3";
    object      U;
}
// * * * * * * * * * * * * * * * * * * * * * * * * * * * * * * * * * * * * * //

dimensions      [0 1 -1 0 0 0 0];

internalField   nonuniform List<vector> 
62000
(
(1.00007 9.16654e-05 -1.96747e-20)
(1.00007 0.000115115 1.55788e-20)
(1.00007 0.000131731 1.52057e-20)
(1.00007 0.00014746 -6.34259e-20)
(1.00007 0.000162699 -6.90584e-20)
(1.00007 0.000177638 2.27583e-19)
(1.00007 0.000192487 -2.38992e-19)
(1.00007 0.000207342 1.32838e-19)
(1.00007 0.000222533 -5.9627e-20)
(1.00007 0.000238037 -2.92504e-19)
(1.00007 0.000254264 -3.61483e-20)
(1.00006 0.000271116 3.78333e-19)
(1.00006 0.000288971 7.44688e-20)
(1.00006 0.000307748 -2.51943e-19)
(1.00006 0.000327737 3.80426e-19)
(1.00005 0.000348861 -1.95331e-19)
(1.00005 0.000371269 1.96906e-19)
(1.00005 0.000394865 -2.24711e-19)
(1.00004 0.000419699 1.0811e-19)
(1.00003 0.000445653 -3.25771e-19)
(1.00003 0.000472661 4.1566e-19)
(1.00002 0.000500499 1.20833e-19)
(1.00001 0.000529003 1.71815e-19)
(0.999991 0.000557764 -7.61404e-19)
(0.999975 0.000586365 2.74834e-19)
(0.999956 0.000614229 -1.67786e-19)
(0.999934 0.000640385 -2.58775e-21)
(0.999907 0.000664019 -1.33511e-19)
(0.999876 0.000683533 4.08936e-19)
(0.99984 0.000697349 -2.28021e-19)
(0.999797 0.000703024 5.4491e-19)
(0.999748 0.000698979 -1.12098e-18)
(0.99969 0.000682977 1.03598e-19)
(0.999622 0.000653465 -3.81771e-19)
(0.999544 0.000605645 -1.20188e-19)
(0.999454 0.000534253 -3.98953e-19)
(0.999352 0.000435415 -1.06636e-19)
(0.999235 0.000305925 -1.21624e-19)
(0.999104 0.000142778 3.8546e-19)
(0.998958 -5.64231e-05 1.82048e-18)
(0.998797 -0.000292834 -4.45519e-19)
(0.998624 -0.000565666 -2.47765e-18)
(0.99844 -0.000871754 -3.84894e-18)
(0.998251 -0.00120526 2.0231e-18)
(0.998063 -0.00155792 6.54523e-19)
(0.997883 -0.00191927 -2.634e-18)
(0.99772 -0.00227796 3.6597e-19)
(0.997585 -0.00262295 -9.93344e-19)
(0.997487 -0.00294504 -4.10091e-18)
(0.997433 -0.0032392 -9.26458e-19)
(0.997428 -0.00350378 -4.16157e-19)
(0.997474 -0.00374497 -4.58578e-18)
(0.997573 -0.00396792 8.62512e-19)
(0.997714 -0.00419253 3.85563e-18)
(0.997897 -0.00443994 7.95977e-19)
(0.998111 -0.00475615 2.55464e-18)
(0.998361 -0.00520187 -1.72003e-19)
(0.99865 -0.00592701 -1.72893e-19)
(0.99901 -0.00709952 5.54784e-19)
(0.995122 -0.0148459 6.10221e-20)
(1.00006 0.000189364 -5.2706e-21)
(1.00006 0.000216922 4.80027e-20)
(1.00006 0.000229593 1.89442e-20)
(1.00006 0.000239354 -7.72537e-20)
(1.00006 0.000246343 3.05629e-20)
(1.00006 0.000250708 -2.01347e-19)
(1.00006 0.000252669 1.75983e-19)
(1.00006 0.000252018 9.75199e-20)
(1.00006 0.000249274 -1.74603e-19)
(1.00005 0.000243956 7.17002e-21)
(1.00005 0.00023677 1.56028e-19)
(1.00005 0.000227118 4.90524e-22)
(1.00004 0.000215697 4.18303e-20)
(1.00004 0.000201949 -3.45159e-19)
(1.00003 0.000186205 6.70902e-19)
(1.00002 0.000168092 -5.74388e-19)
(1.00001 0.000147527 2.61874e-19)
(0.999995 0.000124189 -5.34264e-20)
(0.99998 9.77029e-05 -1.42781e-19)
(0.999962 6.77984e-05 3.85914e-19)
(0.99994 3.38633e-05 -5.95531e-19)
(0.999915 -4.42912e-06 3.39204e-19)
(0.999885 -4.78379e-05 -4.24934e-19)
(0.99985 -9.68824e-05 2.48157e-19)
(0.999809 -0.000152623 2.28015e-19)
(0.999761 -0.000215717 -1.48125e-19)
(0.999705 -0.000287943 -1.90132e-21)
(0.99964 -0.000370162 1.60701e-19)
(0.999563 -0.000464823 1.35181e-19)
(0.999476 -0.000573629 -2.8112e-19)
(0.999374 -0.000699872 5.66776e-19)
(0.999258 -0.000844681 1.18471e-19)
(0.999124 -0.00100854 3.63477e-19)
(0.99897 -0.00119197 2.95384e-20)
(0.998795 -0.00140068 1.06135e-19)
(0.998598 -0.00164074 -1.19067e-19)
(0.998378 -0.00191541 -3.6588e-19)
(0.998135 -0.0022258 -1.83662e-19)
(0.997868 -0.00257219 -1.05358e-18)
(0.99758 -0.00295405 -1.20361e-18)
(0.997272 -0.00336915 9.51855e-19)
(0.99695 -0.00381274 5.44092e-19)
(0.99662 -0.00427748 4.17401e-18)
(0.996294 -0.00475341 2.57092e-19)
(0.99598 -0.00522884 -6.13822e-18)
(0.995695 -0.0056909 2.30726e-18)
(0.995451 -0.00612755 1.70408e-18)
(0.995263 -0.00652941 2.01189e-18)
(0.995145 -0.00689044 1.72026e-19)
(0.995106 -0.00721202 4.73312e-21)
(0.995153 -0.00749865 2.53807e-18)
(0.995287 -0.00776678 5.95095e-18)
(0.995507 -0.00802661 -3.46355e-18)
(0.995797 -0.00831067 -7.82016e-18)
(0.996153 -0.00865468 -1.70629e-18)
(0.996559 -0.00913272 -6.46281e-19)
(0.997023 -0.0098397 -2.17426e-18)
(0.99755 -0.0109904 -8.20077e-19)
(0.998157 -0.0127548 1.30103e-18)
(0.995725 -0.0202093 4.35061e-19)
(0.999896 0.000230973 -2.55723e-20)
(0.999897 0.000253612 -3.45027e-21)
(0.999896 0.00025732 3.58677e-21)
(0.999895 0.000256321 1.55504e-20)
(0.999893 0.000251018 4.19569e-20)
(0.999891 0.000241497 -3.78876e-20)
(0.999889 0.000227969 1.93006e-19)
(0.999886 0.000210241 -8.78318e-20)
(0.999883 0.000188813 -4.52021e-20)
(0.999878 0.000163113 -2.66471e-19)
(0.999874 0.000133771 2.15663e-19)
(0.999868 0.000100055 1.52142e-20)
(0.999861 6.24897e-05 -4.58188e-20)
(0.999854 2.03735e-05 1.17403e-19)
(0.999845 -2.60944e-05 -1.94172e-19)
(0.999834 -7.7498e-05 1.16483e-21)
(0.999821 -0.000134105 -8.40668e-20)
(0.999806 -0.000196422 1.19511e-21)
(0.999789 -0.000264961 1.84965e-19)
(0.999768 -0.000340167 -2.75056e-19)
(0.999744 -0.000422863 1.67643e-19)
(0.999716 -0.000513439 6.41592e-19)
(0.999683 -0.000612906 -8.20438e-20)
(0.999644 -0.000721803 -8.63412e-19)
(0.999599 -0.000841369 4.37186e-19)
(0.999546 -0.000972196 -2.35471e-19)
(0.999485 -0.0011162 3.80208e-19)
(0.999414 -0.00127403 -2.27432e-19)
(0.999331 -0.00144808 -4.5458e-19)
(0.999236 -0.00163982 4.81075e-19)
(0.999126 -0.00185218 -3.41691e-19)
(0.999 -0.00208569 4.62124e-19)
(0.998855 -0.00233923 -1.28442e-18)
(0.99869 -0.00261208 1.15803e-18)
(0.998502 -0.00290888 -6.2389e-19)
(0.998291 -0.0032349 2.59178e-19)
(0.998056 -0.00359181 1.94425e-19)
(0.997796 -0.00397877 -1.23815e-20)
(0.997512 -0.00439378 -4.18357e-20)
(0.997205 -0.00483418 1.25125e-18)
(0.996878 -0.00529578 -4.97654e-19)
(0.996536 -0.00577207 7.7777e-19)
(0.996188 -0.0062545 -2.7139e-18)
(0.995841 -0.00673262 -1.30808e-18)
(0.995509 -0.00719512 1.34186e-18)
(0.995206 -0.00763043 -4.615e-18)
(0.994947 -0.00802883 5.65982e-19)
(0.994747 -0.00838405 -3.53335e-18)
(0.994621 -0.0086936 4.63291e-18)
(0.994581 -0.00896261 1.07678e-18)
(0.994633 -0.00919933 6.17459e-19)
(0.994783 -0.00942296 -1.70746e-20)
(0.995027 -0.00964714 1.75718e-18)
(0.995351 -0.00990304 -3.2268e-19)
(0.995749 -0.0102311 -3.14468e-18)
(0.996208 -0.0107009 -1.26401e-18)
(0.996733 -0.0114097 -1.28284e-18)
(0.997331 -0.0125488 -2.74055e-18)
(0.997963 -0.0141619 6.64824e-20)
(0.997057 -0.0205867 2.77348e-19)
(0.99961 0.000261152 -2.53691e-20)
(0.999611 0.000277935 7.36975e-20)
(0.99961 0.000275484 -1.06794e-20)
(0.999608 0.00026763 -6.82391e-20)
(0.999606 0.000254789 9.75944e-20)
(0.999603 0.00023702 1.59893e-19)
(0.9996 0.000214482 -1.98457e-19)
(0.999596 0.000186725 2.05057e-20)
(0.999591 0.000154223 6.24837e-20)
(0.999586 0.000116179 1.24173e-19)
(0.99958 7.32866e-05 -2.19884e-19)
(0.999574 2.46374e-05 -6.48596e-20)
(0.999566 -2.91119e-05 -6.95997e-20)
(0.999558 -8.88228e-05 3.05688e-19)
(0.999548 -0.000154342 -1.96727e-19)
(0.999536 -0.000226252 4.4364e-19)
(0.999523 -0.000305018 -5.2032e-19)
(0.999508 -0.000391127 -7.38113e-20)
(0.99949 -0.000485327 5.16205e-19)
(0.99947 -0.000588069 -1.75224e-19)
(0.999446 -0.000700421 -6.23574e-20)
(0.999418 -0.000822707 -6.54208e-20)
(0.999385 -0.00095617 -5.83083e-19)
(0.999347 -0.00110127 3.28907e-19)
(0.999303 -0.00125937 -1.47106e-19)
(0.999252 -0.001431 2.34014e-19)
(0.999193 -0.00161811 1.07196e-19)
(0.999124 -0.00182122 5.30917e-19)
(0.999044 -0.00204269 -3.28972e-19)
(0.998952 -0.00228374 -4.30503e-19)
(0.998846 -0.00254715 6.73663e-19)
(0.998725 -0.00283321 -5.50849e-19)
(0.998586 -0.00313937 1.02443e-18)
(0.998426 -0.00346448 -6.26451e-19)
(0.998245 -0.00381259 2.57732e-19)
(0.998042 -0.00418811 4.503e-19)
(0.997815 -0.00459197 -1.91065e-19)
(0.997565 -0.00502221 2.43262e-19)
(0.99729 -0.00547552 -1.17307e-19)
(0.996993 -0.0059481 3.58035e-19)
(0.996676 -0.00643478 -1.07168e-18)
(0.996344 -0.0069282 3.00396e-19)
(0.996003 -0.00741933 6.42017e-19)
(0.995664 -0.00789769 1.52571e-18)
(0.995337 -0.00835242 1.99331e-18)
(0.995037 -0.00877286 4.41487e-19)
(0.994779 -0.00915065 2.8274e-18)
(0.994578 -0.00948118 2.92163e-18)
(0.99445 -0.00976379 3.17459e-18)
(0.994409 -0.0100053 -2.16809e-18)
(0.994461 -0.0102157 -2.58786e-18)
(0.994614 -0.0104153 1.59856e-18)
(0.994866 -0.0106194 1.93274e-18)
(0.995204 -0.0108565 3.95133e-18)
(0.995619 -0.0111699 2.19502e-18)
(0.996104 -0.0116245 3.42868e-18)
(0.996658 -0.0123174 5.29288e-18)
(0.99729 -0.0134238 -4.37791e-19)
(0.997899 -0.0149256 -2.08854e-18)
(0.997903 -0.0210041 -1.47404e-18)
(0.999236 0.00028312 4.84854e-20)
(0.999238 0.000302209 -1.53768e-20)
(0.999237 0.000297279 2.43767e-20)
(0.999235 0.000285468 -3.26361e-20)
(0.999233 0.000267497 6.92984e-20)
(0.99923 0.000243525 -3.25391e-20)
(0.999226 0.000213731 1.66218e-20)
(0.999222 0.000177913 -2.35376e-19)
(0.999217 0.000136522 1.87757e-19)
(0.999211 8.88997e-05 -3.57527e-19)
(0.999205 3.56938e-05 3.75849e-19)
(0.999198 -2.39848e-05 -4.33654e-20)
(0.99919 -8.96288e-05 -9.17651e-20)
(0.999182 -0.000162116 -4.04566e-20)
(0.999172 -0.000241242 -8.36275e-21)
(0.99916 -0.000327804 -3.78246e-19)
(0.999147 -0.000422208 1.65183e-20)
(0.999133 -0.000525143 3.85291e-19)
(0.999115 -0.000637191 -1.21193e-19)
(0.999096 -0.000759071 -1.24231e-19)
(0.999073 -0.000891749 2.03902e-19)
(0.999046 -0.00103567 -9.87924e-20)
(0.999015 -0.00119215 4.04589e-19)
(0.998979 -0.00136167 2.17515e-19)
(0.998937 -0.00154561 1.63565e-19)
(0.998889 -0.00174453 -4.98758e-19)
(0.998833 -0.00196033 -6.91187e-20)
(0.998769 -0.00219351 -3.80674e-19)
(0.998694 -0.00244626 7.09484e-20)
(0.998608 -0.00271981 -1.26987e-19)
(0.998509 -0.00301662 -4.79237e-20)
(0.998395 -0.00333675 4.03443e-19)
(0.998265 -0.00367728 -1.01267e-18)
(0.998116 -0.00403625 -4.03426e-20)
(0.997947 -0.00441731 -5.24886e-19)
(0.997757 -0.00482447 -2.60674e-19)
(0.997545 -0.005258 8.70295e-20)
(0.997311 -0.00571532 -8.31389e-19)
(0.997055 -0.00619233 1.28041e-18)
(0.996777 -0.00668459 1.86308e-19)
(0.996479 -0.00718649 1.42456e-18)
(0.996167 -0.00769026 -1.02041e-18)
(0.995847 -0.00818679 -6.85174e-19)
(0.995527 -0.00866584 -3.05875e-19)
(0.995218 -0.009117 1.43789e-18)
(0.994934 -0.00953038 2.03987e-18)
(0.994689 -0.00989853 4.2508e-19)
(0.994499 -0.0102178 7.16268e-19)
(0.99438 -0.0104885 -1.12033e-18)
(0.994344 -0.0107181 5.43243e-18)
(0.994402 -0.0109173 1.23421e-18)
(0.994562 -0.0111065 -1.15886e-18)
(0.994821 -0.0113019 3.24957e-19)
(0.99517 -0.0115294 3.23151e-18)
(0.995599 -0.0118337 -1.64401e-19)
(0.996101 -0.0122764 -2.68802e-18)
(0.996675 -0.0129548 -5.49958e-18)
(0.997328 -0.0140349 4.49758e-18)
(0.997908 -0.0154682 -2.1941e-18)
(0.998471 -0.0213592 1.77662e-18)
(0.998798 0.000301687 -1.81152e-20)
(0.998802 0.00031781 6.93326e-20)
(0.998801 0.000309506 -1.08169e-19)
(0.998799 0.000294293 7.65408e-20)
(0.998797 0.00027266 4.70769e-20)
(0.998794 0.000244832 -4.73997e-20)
(0.998791 0.000210927 3.77977e-21)
(0.998788 0.000170478 -3.2193e-20)
(0.998783 0.000123902 -1.03364e-19)
(0.998778 7.03629e-05 1.89162e-19)
(0.998773 1.06305e-05 -2.8033e-19)
(0.998767 -5.63295e-05 2.3497e-19)
(0.99876 -0.000129755 1.98486e-19)
(0.998752 -0.000210665 -2.94832e-19)
(0.998742 -0.000298785 -9.25541e-20)
(0.998732 -0.000394874 3.35112e-19)
(0.99872 -0.000499445 -3.91528e-19)
(0.998706 -0.000613116 5.23221e-19)
(0.99869 -0.000736624 -9.64681e-20)
(0.998672 -0.000870693 5.28895e-20)
(0.99865 -0.00101642 -8.36218e-20)
(0.998625 -0.00117416 -1.02149e-19)
(0.998597 -0.00134541 -1.86556e-19)
(0.998564 -0.00153052 3.14155e-19)
(0.998525 -0.00173093 -2.11598e-19)
(0.998481 -0.0019472 -2.03518e-19)
(0.998429 -0.00218114 4.12666e-19)
(0.99837 -0.00243324 -3.87732e-19)
(0.998301 -0.00270558 6.17484e-19)
(0.998222 -0.0029993 -3.24627e-19)
(0.998132 -0.00331677 2.51198e-19)
(0.998029 -0.003658 -4.14868e-19)
(0.99791 -0.00401939 4.54933e-19)
(0.997774 -0.00439894 -3.33192e-20)
(0.997619 -0.0048001 -2.20307e-20)
(0.997446 -0.00522621 -7.91085e-21)
(0.997253 -0.00567738 -2.30578e-19)
(0.997039 -0.00615067 7.26968e-19)
(0.996805 -0.00664151 -5.77209e-19)
(0.996552 -0.00714525 -3.21445e-18)
(0.99628 -0.00765614 -1.34765e-18)
(0.995995 -0.00816635 9.82866e-19)
(0.995702 -0.00866694 -1.01082e-18)
(0.995409 -0.00914808 -1.1647e-18)
(0.995125 -0.00959988 -8.2062e-20)
(0.994865 -0.010013 2.75854e-18)
(0.99464 -0.0103807 -3.86864e-18)
(0.994469 -0.0106998 -3.74218e-18)
(0.994363 -0.0109709 -2.34819e-18)
(0.99434 -0.0112013 -3.63236e-18)
(0.994407 -0.011402 2.16299e-18)
(0.994576 -0.0115929 -7.90795e-19)
(0.994844 -0.0117901 -5.86869e-18)
(0.995204 -0.012017 1.04281e-18)
(0.995645 -0.0123192 1.38592e-18)
(0.996161 -0.0127557 -2.39537e-18)
(0.996749 -0.0134246 1.48679e-18)
(0.997418 -0.0144868 1.23748e-18)
(0.99797 -0.0158761 3.56233e-18)
(0.998886 -0.0216567 -1.49298e-20)
(0.998323 0.000316411 2.08885e-20)
(0.998327 0.000333588 -8.93272e-20)
(0.998326 0.000323936 4.12139e-20)
(0.998325 0.000306481 7.29296e-20)
(0.998324 0.000282141 -1.48426e-19)
(0.998322 0.000251101 1.1809e-19)
(0.998319 0.000213576 -7.47962e-20)
(0.998317 0.000169335 6.04029e-20)
(0.998313 0.000118762 9.17034e-20)
(0.99831 6.11903e-05 -2.10656e-19)
(0.998305 -2.76858e-06 2.905e-19)
(0.9983 -7.40478e-05 1.17788e-19)
(0.998294 -0.000152192 -4.50248e-19)
(0.998287 -0.000238111 -8.05036e-20)
(0.998279 -0.000331571 2.21153e-19)
(0.99827 -0.000433455 1.37059e-19)
(0.998259 -0.00054426 -1.60372e-19)
(0.998247 -0.000664683 1.36523e-19)
(0.998232 -0.000795266 2.03819e-19)
(0.998215 -0.000936953 -9.65344e-20)
(0.998196 -0.00109066 -5.38196e-20)
(0.998173 -0.00125679 1.86414e-19)
(0.998147 -0.00143695 3.74882e-19)
(0.998117 -0.00163137 -2.65566e-19)
(0.998082 -0.00184155 -2.88497e-19)
(0.998041 -0.00206808 3.13393e-19)
(0.997995 -0.00231263 -2.37909e-19)
(0.997941 -0.00257583 -9.76124e-20)
(0.997879 -0.00285946 7.85322e-19)
(0.997807 -0.00316486 -3.39143e-19)
(0.997726 -0.00349409 -2.63835e-19)
(0.997632 -0.00384709 3.48921e-19)
(0.997525 -0.00422044 2.41912e-19)
(0.997403 -0.00461162 -2.06547e-19)
(0.997263 -0.00502401 -1.44696e-19)
(0.997107 -0.00546074 4.74024e-19)
(0.996934 -0.0059217 1.2375e-19)
(0.996742 -0.00640388 1.56857e-19)
(0.996532 -0.00690251 -8.68664e-19)
(0.996304 -0.00741298 -8.17915e-19)
(0.99606 -0.00792968 1.68529e-18)
(0.995804 -0.00844489 1.33437e-18)
(0.995541 -0.00895005 2.24614e-18)
(0.995278 -0.00943577 -2.01904e-18)
(0.995024 -0.00989269 -2.19308e-18)
(0.994791 -0.010312 -1.46277e-18)
(0.994593 -0.0106872 3.38429e-18)
(0.994444 -0.0110153 3.13207e-18)
(0.994358 -0.0112969 -3.28998e-18)
(0.994352 -0.0115388 -4.48096e-18)
(0.994433 -0.0117514 -7.8394e-19)
(0.994615 -0.0119537 7.78842e-19)
(0.994895 -0.0121617 8.17839e-20)
(0.995268 -0.0123962 -1.90058e-18)
(0.995721 -0.012703 1.50685e-18)
(0.996252 -0.0131397 7.96712e-19)
(0.996853 -0.0138048 1.06126e-18)
(0.997535 -0.0148569 -3.82998e-18)
(0.998064 -0.0162181 -2.13494e-19)
(0.999205 -0.0219321 7.44958e-20)
(0.997839 0.000327037 -3.42893e-20)
(0.997838 0.000338477 -2.59983e-20)
(0.997837 0.000326332 3.33972e-20)
(0.997836 0.000307012 1.12047e-19)
(0.997835 0.000281258 -2.28909e-19)
(0.997833 0.000249195 2.48613e-19)
(0.997831 0.00021097 -1.06336e-20)
(0.997829 0.00016594 -1.39842e-20)
(0.997826 0.000114436 -7.64362e-20)
(0.997823 5.5533e-05 1.76671e-19)
(0.997819 -1.00546e-05 -2.6038e-19)
(0.997815 -8.34144e-05 9.40602e-20)
(0.997809 -0.000163822 -2.90955e-21)
(0.997803 -0.00025229 1.35436e-19)
(0.997796 -0.000348572 6.18178e-20)
(0.997788 -0.000453377 -3.16855e-19)
(0.997779 -0.000567427 2.65325e-19)
(0.997768 -0.000691136 1.00753e-19)
(0.997755 -0.000825329 -2.81458e-19)
(0.99774 -0.000970806 1.33609e-19)
(0.997723 -0.00112867 6.04738e-20)
(0.997702 -0.00129908 -3.93786e-20)
(0.997679 -0.00148394 4.7722e-20)
(0.997651 -0.00168318 -2.74398e-20)
(0.99762 -0.00189844 -3.04115e-19)
(0.997583 -0.00213027 1.96731e-19)
(0.997541 -0.00238024 -2.95464e-19)
(0.997493 -0.00264905 5.3203e-19)
(0.997437 -0.00293834 -1.02893e-19)
(0.997372 -0.00324946 -5.79138e-20)
(0.997299 -0.00358441 -1.60245e-20)
(0.997216 -0.00394326 5.47324e-19)
(0.99712 -0.00432219 -2.17694e-19)
(0.99701 -0.00471897 -1.2132e-19)
(0.996885 -0.00513696 3.46982e-19)
(0.996746 -0.0055788 2.97614e-19)
(0.996591 -0.00604456 -5.00536e-19)
(0.996421 -0.00653127 8.98563e-20)
(0.996234 -0.00703411 1.01626e-18)
(0.996031 -0.00754871 -4.03787e-20)
(0.995815 -0.00806972 6.29196e-19)
(0.995588 -0.0085897 -9.48156e-19)
(0.995356 -0.00910051 1.39203e-18)
(0.995124 -0.00959333 3.1208e-18)
(0.994901 -0.0100592 9.70146e-19)
(0.994698 -0.0104898 -1.18784e-18)
(0.994528 -0.0108789 -3.53286e-18)
(0.994405 -0.0112232 5.62253e-19)
(0.994343 -0.0115231 1.00353e-18)
(0.994358 -0.0117843 2.06734e-18)
(0.994457 -0.0120168 -2.26892e-19)
(0.994656 -0.0122384 -3.17938e-18)
(0.994952 -0.0124644 2.52854e-18)
(0.99534 -0.0127132 -1.57059e-18)
(0.995809 -0.0130303 2.8666e-18)
(0.996357 -0.0134724 6.47516e-19)
(0.996972 -0.0141386 2.58969e-18)
(0.997669 -0.0151862 3.09071e-18)
(0.99818 -0.0165285 4.36143e-19)
(0.999465 -0.022203 6.47858e-19)
(0.997343 0.000334505 -1.61272e-20)
(0.997337 0.000353392 1.3129e-20)
(0.997335 0.00034303 6.24783e-20)
(0.997333 0.000324271 9.3617e-20)
(0.997332 0.000298207 -2.62378e-19)
(0.997331 0.000265151 1.43146e-19)
(0.997329 0.000225292 -2.43158e-19)
(0.997328 0.000178467 3.61633e-19)
(0.997326 0.000124928 -1.61364e-19)
(0.997324 6.41182e-05 2.7112e-20)
(0.997321 -3.38656e-06 2.82785e-19)
(0.997318 -7.85068e-05 -6.15044e-19)
(0.997314 -0.000160796 4.01439e-19)
(0.997309 -0.000251147 5.4289e-20)
(0.997303 -0.000349208 8.35837e-20)
(0.997297 -0.000455927 -3.38262e-19)
(0.997289 -0.00057185 1.6031e-19)
(0.997279 -0.000697583 -1.91651e-19)
(0.997268 -0.000833587 3.64899e-19)
(0.997255 -0.000981048 -4.63596e-20)
(0.99724 -0.00114073 -4.34285e-19)
(0.997222 -0.00131294 1.69244e-19)
(0.997201 -0.00149967 -9.13917e-21)
(0.997176 -0.00170072 -5.87257e-19)
(0.997148 -0.00191782 4.26795e-19)
(0.997115 -0.00215158 3.13362e-19)
(0.997077 -0.00240339 2.07225e-19)
(0.997033 -0.00267416 -2.67628e-19)
(0.996983 -0.00296523 -2.92283e-19)
(0.996926 -0.00327826 1.3545e-19)
(0.99686 -0.0036149 1.89931e-19)
(0.996785 -0.00397532 -2.38498e-19)
(0.996699 -0.00435609 -3.49924e-19)
(0.996601 -0.0047546 7.27246e-19)
(0.99649 -0.00517437 8.52453e-20)
(0.996366 -0.00561792 -1.11082e-18)
(0.996229 -0.00608538 1.09239e-19)
(0.996078 -0.00657396 7.44275e-19)
(0.995914 -0.00707893 5.04466e-20)
(0.995735 -0.00759625 1.02563e-18)
(0.995545 -0.00812099 -1.41933e-18)
(0.995347 -0.008646 -6.45947e-20)
(0.995144 -0.00916368 -9.63535e-19)
(0.994943 -0.00966574 2.59997e-19)
(0.994751 -0.0101437 1.5244e-18)
(0.994579 -0.0105895 4.42335e-18)
(0.99444 -0.010997 7.24175e-19)
(0.994345 -0.0113628 -2.77828e-18)
(0.99431 -0.0116865 1.9311e-18)
(0.994348 -0.0119731 6.6385e-18)
(0.99447 -0.0122312 -5.02238e-18)
(0.994689 -0.0124776 5.57674e-18)
(0.995005 -0.0127265 -3.17916e-18)
(0.995412 -0.0129947 -1.51585e-18)
(0.9959 -0.0133264 -5.83037e-18)
(0.996466 -0.0137779 -2.73332e-19)
(0.997099 -0.0144486 -1.53842e-18)
(0.997813 -0.0154951 -1.50626e-18)
(0.998311 -0.0168234 9.18619e-19)
(0.999687 -0.0224747 9.73465e-20)
(0.99684 0.000341094 2.16626e-20)
(0.996824 0.000357237 7.16609e-21)
(0.99682 0.000345938 -7.03773e-20)
(0.996819 0.000326984 6.35057e-20)
(0.996819 0.000301027 -2.66443e-20)
(0.996818 0.000268487 4.51954e-20)
(0.996818 0.000229431 1.46766e-20)
(0.996818 0.000183334 -2.03485e-19)
(0.996818 0.000130376 8.41673e-20)
(0.996818 6.98006e-05 -5.42965e-20)
(0.996817 2.36351e-06 3.16601e-20)
(0.996815 -7.30282e-05 1.16923e-19)
(0.996813 -0.000155527 -2.07629e-20)
(0.99681 -0.000246178 6.53754e-20)
(0.996806 -0.000344495 -2.65257e-19)
(0.996802 -0.000451317 9.86587e-20)
(0.996795 -0.000567339 4.23285e-20)
(0.996788 -0.000692933 -1.08709e-19)
(0.996779 -0.000828795 2.09051e-19)
(0.996767 -0.000976056 6.6365e-20)
(0.996754 -0.0011356 -7.03014e-21)
(0.996738 -0.00130752 -6.60734e-20)
(0.99672 -0.00149414 2.64573e-19)
(0.996698 -0.00169489 -7.09349e-19)
(0.996672 -0.00191171 3.57042e-19)
(0.996643 -0.00214517 1.46744e-19)
(0.996609 -0.00239652 -2.46524e-19)
(0.996569 -0.00266684 4.26213e-19)
(0.996524 -0.00295728 -2.04498e-19)
(0.996472 -0.00326961 -1.05133e-19)
(0.996414 -0.00360541 -2.08184e-19)
(0.996347 -0.00396509 -7.73961e-20)
(0.99627 -0.00434492 2.26135e-19)
(0.996183 -0.00474273 -6.8219e-19)
(0.996084 -0.00516218 1.28305e-18)
(0.995974 -0.00560533 -8.17958e-20)
(0.995853 -0.00607269 6.74964e-19)
(0.99572 -0.0065617 -1.70758e-18)
(0.995576 -0.00706773 -5.48867e-19)
(0.99542 -0.0075872 -2.22336e-20)
(0.995255 -0.00811559 -3.70663e-19)
(0.995083 -0.00864614 -2.77714e-20)
(0.994908 -0.00917176 -1.42945e-18)
(0.994737 -0.00968474 3.76302e-19)
(0.994576 -0.010177 6.71706e-19)
(0.994435 -0.0106408 -4.00469e-18)
(0.994326 -0.0110699 4.89535e-18)
(0.994261 -0.0114607 7.05773e-19)
(0.994254 -0.0118122 7.79719e-20)
(0.99432 -0.012128 -4.36165e-18)
(0.994466 -0.0124157 1.53281e-18)
(0.994709 -0.0126908 -2.91925e-18)
(0.995048 -0.0129666 4.99306e-18)
(0.995478 -0.0132575 1.11667e-18)
(0.995988 -0.0136069 -3.38687e-18)
(0.996576 -0.0140706 1.21312e-18)
(0.997229 -0.0147479 -3.09356e-18)
(0.997962 -0.0157953 -5.94626e-19)
(0.998453 -0.0171121 -3.53768e-18)
(0.999887 -0.0227504 -9.0295e-19)
(0.996342 0.00034655 -4.59865e-21)
(0.996314 0.000366075 -1.71322e-20)
(0.996309 0.000355483 -1.40897e-20)
(0.996308 0.000336419 1.28772e-19)
(0.996308 0.000310156 -6.76784e-20)
(0.996308 0.000277043 -7.69185e-20)
(0.99631 0.000237296 -2.74119e-20)
(0.996311 0.000190753 -1.06919e-19)
(0.996312 0.000137521 6.37147e-20)
(0.996314 7.71635e-05 8.88211e-21)
(0.996314 1.01354e-05 2.99378e-21)
(0.996315 -6.44346e-05 2.35039e-19)
(0.996314 -0.000146194 -1.59567e-19)
(0.996313 -0.000235942 -1.89308e-20)
(0.996311 -0.000333292 1.6794e-19)
(0.996308 -0.000439196 -8.88761e-20)
(0.996304 -0.000554343 -3.24017e-20)
(0.996298 -0.000679128 5.17111e-20)
(0.99629 -0.000813973 1.58954e-19)
(0.996281 -0.000960317 8.4229e-20)
(0.99627 -0.00111871 2.96321e-20)
(0.996256 -0.00128932 -2.00518e-19)
(0.996239 -0.00147462 9.74171e-20)
(0.99622 -0.00167383 1.85795e-19)
(0.996197 -0.00188901 -3.74736e-19)
(0.996171 -0.00212078 1.17142e-19)
(0.99614 -0.00237019 -4.56219e-19)
(0.996105 -0.00263864 3.62991e-19)
(0.996064 -0.00292686 3.12094e-19)
(0.996017 -0.00323707 -4.80078e-19)
(0.995965 -0.00357046 -2.18658e-19)
(0.995905 -0.00392763 2.92629e-19)
(0.995836 -0.00430534 9.71089e-20)
(0.995758 -0.00470109 -2.74412e-19)
(0.99567 -0.00511882 -3.35622e-19)
(0.995573 -0.00556048 -4.05515e-19)
(0.995467 -0.0060268 2.53239e-19)
(0.99535 -0.00651549 6.18967e-19)
(0.995224 -0.00702211 2.21994e-19)
(0.995089 -0.00754355 -2.16826e-19)
(0.994947 -0.00807579 2.21667e-18)
(0.994799 -0.0086124 -2.02758e-19)
(0.994652 -0.00914688 2.36224e-18)
(0.994509 -0.00967204 -4.20062e-18)
(0.994378 -0.0101802 5.81124e-19)
(0.994268 -0.0106638 1.51961e-19)
(0.994189 -0.0111168 -3.84584e-19)
(0.994155 -0.011535 -2.99383e-18)
(0.994178 -0.0119167 -4.794e-18)
(0.994271 -0.0122643 4.06824e-18)
(0.994445 -0.0125843 5.05887e-18)
(0.994715 -0.0128907 2.44083e-18)
(0.995081 -0.0131954 -4.71587e-18)
(0.995536 -0.0135116 2.29152e-18)
(0.996071 -0.0138806 5.29536e-18)
(0.996684 -0.0143584 1.79633e-18)
(0.99736 -0.0150434 3.01395e-18)
(0.998117 -0.0160925 1.29753e-18)
(0.998604 -0.0173987 3.1707e-18)
(1.00007 -0.0230304 -2.31472e-18)
(0.995865 0.000349931 5.66311e-21)
(0.995822 0.000362083 -1.61235e-20)
(0.995813 0.000349575 5.43385e-20)
(0.995812 0.000329858 1.34045e-20)
(0.995811 0.000303923 -6.69612e-20)
(0.995812 0.000272007 -7.30079e-20)
(0.995813 0.000234214 1.63957e-19)
(0.995815 0.000189822 -1.69925e-19)
(0.995817 0.000138854 -3.96531e-20)
(0.995819 8.0548e-05 9.48291e-20)
(0.995821 1.54706e-05 8.35188e-20)
(0.995822 -5.74311e-05 2.41877e-19)
(0.995822 -0.000137465 -1.3087e-19)
(0.995822 -0.000225521 -2.13929e-19)
(0.995822 -0.000321242 4.50051e-20)
(0.99582 -0.000425289 -1.60319e-19)
(0.995817 -0.000538727 1.15699e-19)
(0.995812 -0.000661455 -1.86476e-19)
(0.995806 -0.000794343 2.9722e-20)
(0.995799 -0.000938592 -5.56068e-20)
(0.995789 -0.00109499 -3.35721e-20)
(0.995777 -0.00126333 -1.46923e-19)
(0.995763 -0.00144657 1.36655e-20)
(0.995746 -0.00164339 3.00873e-19)
(0.995725 -0.00185615 -9.77896e-20)
(0.995702 -0.0020854 3.09962e-20)
(0.995674 -0.00233206 8.59165e-20)
(0.995642 -0.00259773 -1.1411e-19)
(0.995605 -0.00288293 -2.16177e-20)
(0.995563 -0.00319005 1.54412e-19)
(0.995516 -0.00352022 1.71883e-19)
(0.995462 -0.00387433 -1.30285e-19)
(0.995401 -0.00424886 -3.95815e-19)
(0.995331 -0.00464185 -5.4845e-19)
(0.995253 -0.00505741 8.67301e-19)
(0.995167 -0.00549705 2.2904e-19)
(0.995074 -0.00596197 1.41722e-19)
(0.994972 -0.00645017 7.27593e-19)
(0.994863 -0.00695735 -6.98112e-19)
(0.994746 -0.00748093 4.29849e-19)
(0.994625 -0.00801738 -2.72893e-20)
(0.994501 -0.00856061 6.72449e-20)
(0.994378 -0.00910468 -8.51754e-19)
(0.994262 -0.00964293 1.89132e-18)
(0.99416 -0.0101681 -2.42193e-18)
(0.994079 -0.0106727 1.40678e-18)
(0.994031 -0.0111509 -4.02537e-18)
(0.994027 -0.0115978 1.21932e-18)
(0.994081 -0.0120113 2.49183e-18)
(0.994205 -0.0123922 -3.99259e-18)
(0.994408 -0.012746 -1.10485e-18)
(0.994707 -0.0130852 -3.48602e-19)
(0.995102 -0.0134206 -7.1885e-19)
(0.995585 -0.0137634 -2.2563e-18)
(0.996149 -0.0141535 1.73856e-19)
(0.99679 -0.0146462 1.56509e-18)
(0.997492 -0.0153395 -1.59761e-18)
(0.998275 -0.0163905 -3.98767e-19)
(0.998762 -0.0176861 -4.63277e-19)
(1.00025 -0.0233149 1.69147e-18)
(0.995393 0.000350339 9.96762e-21)
(0.995335 0.000373196 -7.98289e-21)
(0.995324 0.000364221 6.89698e-21)
(0.995321 0.000346585 4.19363e-20)
(0.99532 0.000321726 5.77672e-20)
(0.995321 0.000290145 -2.13658e-19)
(0.995322 0.000251999 1.46583e-19)
(0.995324 0.000207229 2.89273e-20)
(0.995327 0.000155718 -8.33237e-21)
(0.995329 9.72498e-05 -5.66622e-20)
(0.995332 3.21612e-05 1.6555e-19)
(0.995334 -4.03489e-05 -5.187e-20)
(0.995336 -0.000119979 -6.83558e-20)
(0.995337 -0.000207437 -1.93804e-19)
(0.995337 -0.000302228 3.72797e-19)
(0.995337 -0.000405332 -7.48601e-20)
(0.995335 -0.000517578 -6.06299e-20)
(0.995333 -0.000639092 -1.69831e-19)
(0.995328 -0.000770269 1.81235e-19)
(0.995322 -0.000912847 9.67278e-20)
(0.995314 -0.00106713 -4.13853e-20)
(0.995304 -0.00123309 7.24603e-20)
(0.995292 -0.00141388 -2.96534e-19)
(0.995277 -0.00160793 1.96933e-20)
(0.995259 -0.00181777 1.57009e-19)
(0.995237 -0.00204406 -2.98229e-20)
(0.995212 -0.00228746 -4.53618e-19)
(0.995183 -0.00254997 4.1724e-20)
(0.99515 -0.00283164 3.90406e-19)
(0.995112 -0.00313541 -9.7978e-20)
(0.995069 -0.00346195 -1.9697e-19)
(0.995021 -0.0038124 1.03672e-19)
(0.994966 -0.00418381 3.29612e-19)
(0.994904 -0.00457382 7.80097e-19)
(0.994834 -0.00498695 -1.25572e-19)
(0.994759 -0.00542453 1.46922e-19)
(0.994677 -0.00588805 -1.21949e-18)
(0.994588 -0.00637584 -3.77467e-19)
(0.994494 -0.00688377 2.32747e-19)
(0.994394 -0.0074098 -9.48028e-19)
(0.994292 -0.00795088 -2.30112e-19)
(0.994189 -0.00850124 4.64334e-19)
(0.99409 -0.0090555 3.29595e-19)
(0.994 -0.00960751 9.94386e-19)
(0.993924 -0.0101503 3.35464e-18)
(0.993873 -0.0106768 -2.62926e-18)
(0.993854 -0.0111809 4.10311e-18)
(0.993882 -0.0116573 3.07807e-18)
(0.993966 -0.0121034 1.94618e-20)
(0.994121 -0.0125185 3.62081e-18)
(0.994356 -0.0129069 -4.7341e-18)
(0.994686 -0.0132797 -5.25471e-18)
(0.995112 -0.0136464 3.78226e-18)
(0.995627 -0.0140168 2.97747e-18)
(0.996222 -0.0144286 -1.10977e-18)
(0.996894 -0.0149368 -5.85942e-18)
(0.997625 -0.0156384 1.25267e-18)
(0.998437 -0.0166908 -1.08778e-18)
(0.998928 -0.0179754 -1.44476e-18)
(1.00043 -0.0236036 1.27032e-18)
(0.994921 0.000351268 -1.00943e-20)
(0.994846 0.000370987 1.04881e-20)
(0.994831 0.000361515 6.75154e-20)
(0.994827 0.000344504 -8.34831e-20)
(0.994827 0.000320751 1.43652e-19)
(0.994828 0.000290913 -2.00064e-19)
(0.994831 0.000254944 5.36772e-20)
(0.994834 0.000212346 -2.49406e-21)
(0.994838 0.000162873 1.07418e-19)
(0.994843 0.000106099 -5.3751e-20)
(0.994847 4.25652e-05 1.48506e-20)
(0.994851 -2.87347e-05 1.48983e-20)
(0.994855 -0.000106995 -2.21362e-19)
(0.994858 -0.000193102 6.39182e-20)
(0.99486 -0.00028639 1.40786e-19)
(0.994861 -0.000387704 3.81439e-21)
(0.994861 -0.000498079 -2.16068e-19)
(0.99486 -0.000617308 8.37015e-20)
(0.994857 -0.0007461 3.79932e-19)
(0.994853 -0.000886148 -2.39458e-19)
(0.994846 -0.00103787 -1.73883e-19)
(0.994838 -0.00120096 1.44561e-19)
(0.994827 -0.00137908 8.67164e-20)
(0.994814 -0.00157009 9.56527e-20)
(0.994798 -0.00177687 -1.80444e-19)
(0.994779 -0.00200003 -3.78952e-19)
(0.994756 -0.00224005 2.83035e-19)
(0.99473 -0.00249922 3.95696e-19)
(0.9947 -0.00277734 9.84512e-20)
(0.994665 -0.00307757 -1.95549e-19)
(0.994626 -0.00340047 9.21642e-20)
(0.994583 -0.00374754 1.40566e-19)
(0.994533 -0.00411552 -2.60342e-19)
(0.994477 -0.00450266 -5.38271e-20)
(0.994416 -0.00491365 -4.6548e-19)
(0.994349 -0.00534933 -1.39756e-19)
(0.994277 -0.00581174 -1.03928e-19)
(0.9942 -0.00629949 3.3443e-19)
(0.99412 -0.00680858 -4.47227e-19)
(0.994036 -0.00733751 1.43871e-19)
(0.993951 -0.00788371 2.08974e-19)
(0.993868 -0.00844173 4.91097e-20)
(0.993791 -0.00900668 -1.44667e-18)
(0.993724 -0.00957294 -1.99369e-18)
(0.993675 -0.0101339 -1.80976e-18)
(0.993651 -0.0106826 3.44169e-18)
(0.993662 -0.0112129 -8.61701e-20)
(0.99372 -0.0117193 -1.38849e-18)
(0.993836 -0.0121981 6.81794e-19)
(0.994023 -0.0126477 -4.11116e-18)
(0.99429 -0.013071 1.91151e-18)
(0.994654 -0.0134779 4.90079e-18)
(0.995113 -0.0138763 -3.73088e-19)
(0.995661 -0.0142745 -3.64861e-18)
(0.99629 -0.0147083 1.62337e-18)