/*--------------------------------*- C++ -*----------------------------------*\
  =========                 |
  \\      /  F ield         | OpenFOAM: The Open Source CFD Toolbox
   \\    /   O peration     | Website:  https://openfoam.org
    \\  /    A nd           | Version:  6.0
     \\/     M anipulation  |
\*---------------------------------------------------------------------------*/
FoamFile
{
    version     2.0;
    format      ascii;
    class       volVectorField;
    location    "3.01";
    object      U;
}
// * * * * * * * * * * * * * * * * * * * * * * * * * * * * * * * * * * * * * //

dimensions      [0 1 -1 0 0 0 0];

internalField   nonuniform List<vector> 
13500
(
(1 2.1548e-06 -4.2423e-18)
(1 -2.9869e-06 2.8707e-18)
(1 -6.1163e-06 -1.2348e-17)
(1 -9.949e-06 -8.5403e-18)
(1 -9.2255e-06 1.6065e-17)
(1 -9.1086e-06 2.99e-17)
(1 -1.957e-07 2.5608e-17)
(0.99998 1.4056e-05 -4.1365e-18)
(0.99992 3.8909e-05 1.5152e-17)
(0.9998 7.4721e-05 3.2451e-18)
(0.99572 0.00075599 2.8486e-17)
(1.019 0.010844 7.7149e-18)
(1 6.6058e-06 2.6282e-18)
(1 -8.0317e-06 -8.7181e-18)
(1 -1.6783e-05 5.8968e-18)
(1 -2.7343e-05 -3.3684e-19)
(1 -2.4541e-05 -4.2842e-19)
(1 -2.4175e-05 -3.5953e-17)
(1 4.2785e-06 -4.4229e-17)
(0.99994 4.4619e-05 -2.3668e-17)
(0.99974 0.00012925 -1.5122e-17)
(0.99983 0.00018398 -1.6048e-18)
(0.98618 0.0021899 -1.349e-17)
(1.0534 0.030656 -4.6712e-18)
(1 1.1049e-05 -3.3946e-18)
(1 -1.3226e-05 1.7321e-17)
(1 -2.7536e-05 3.0671e-18)
(1 -4.5183e-05 9.8467e-18)
(1 -3.9967e-05 -3.7045e-18)
(1 -3.9979e-05 2.8799e-17)
(0.99999 9.1424e-06 -6.2258e-18)
(0.9999 7.4083e-05 5.3763e-18)
(0.99953 0.00022821 -1.8345e-17)
(1.0003 0.00030838 2.438e-17)
(0.97598 0.0032737 -7.0528e-18)
(1.0819 0.045206 1.6377e-18)
(1 1.5456e-05 8.8744e-18)
(1 -1.866e-05 -1.6793e-17)
(1 -3.8641e-05 -1.4539e-17)
(1 -6.3667e-05 -6.9087e-19)
(1 -5.5936e-05 5.7187e-18)
(1.0001 -5.66e-05 -7.9925e-19)
(1 1.3769e-05 6.1343e-17)
(0.99987 0.00010222 9.6864e-18)
(0.99929 0.00033457 2.1693e-17)
(1.0013 0.00045231 -8.8309e-18)
(0.96552 0.0040337 3.4343e-17)
(1.1031 0.055771 -7.4542e-18)
(1 1.9851e-05 -6.2356e-18)
(1 -2.4115e-05 1.4514e-17)
(1 -4.9825e-05 1.2377e-17)
(1 -8.2215e-05 1.2602e-17)
(1 -7.2021e-05 2.8041e-18)
(1.0001 -7.331e-05 2.1167e-17)
(1 1.8477e-05 -2.7393e-17)
(0.99986 0.00012931 1.9675e-18)
(0.999 0.00044712 -1.3301e-17)
(1.0026 0.00061786 -2.1071e-18)
(0.95518 0.0045201 -8.9078e-18)
(1.117 0.063481 2.0671e-18)
(1 2.4237e-05 6.3105e-18)
(1 -2.9594e-05 -6.0168e-18)
(1 -6.1086e-05 3.7798e-18)
(1 -0.00010083 -2.4964e-17)
(1.0001 -8.8225e-05 -8.2121e-20)
(1.0001 -9.0125e-05 -4.1904e-17)
(1 2.3264e-05 1.0511e-18)
(0.99985 0.00015518 -1.5793e-17)
(0.99865 0.00056446 5.065e-18)
(1.0044 0.00081162 -2.1231e-17)
(0.94533 0.0047752 -2.1442e-17)
(1.1244 0.068949 1.9976e-18)
(0.99999 2.8611e-05 -1.0446e-18)
(1 -3.51e-05 -7.1962e-18)
(1 -7.2424e-05 -3.0719e-18)
(1.0001 -0.00011953 1.8843e-17)
(1.0001 -0.00010454 -2.5972e-17)
(1.0001 -0.00010708 1.6034e-17)
(1 2.8169e-05 1.8321e-17)
(0.99986 0.00017974 5.5564e-18)
(0.99824 0.00068526 1.1323e-17)
(1.0065 0.00104 1.143e-17)
(0.93624 0.0048373 9.2367e-18)
(1.1261 0.072601 3.2059e-18)
(0.99999 3.2975e-05 -2.1561e-18)
(1 -4.0636e-05 -1.4157e-18)
(1 -8.3841e-05 -2.6463e-17)
(1.0001 -0.00013831 -8.9977e-18)
(1.0001 -0.00012098 7.2693e-18)
(1.0001 -0.00012418 2.6277e-17)
(1 3.3204e-05 1.1661e-17)
(0.99988 0.00020291 4.9605e-18)
(0.99775 0.00080815 -7.4007e-18)
(1.0088 0.0013067 1.601e-17)
(0.92815 0.0047428 7.459e-18)
(1.1232 0.074799 -1.0193e-17)
(0.99999 3.7329e-05 -6.6932e-18)
(1 -4.6202e-05 6.0861e-18)
(1 -9.5341e-05 4.4495e-17)
(1.0001 -0.00015719 -1.0793e-17)
(1.0001 -0.00013754 2.7223e-17)
(1.0001 -0.00014145 -5.1879e-17)
(1 3.8366e-05 -3.8846e-17)
(0.99991 0.00022465 9.6391e-18)
(0.99718 0.00093174 -5.5581e-18)
(1.0114 0.0016134 -8.83e-18)
(0.92122 0.0045266 -1.3783e-17)
(1.1166 0.075848 1.3335e-17)
(0.99999 4.1671e-05 4.4097e-18)
(1 -5.1801e-05 2.2909e-18)
(1 -0.00010693 -3.769e-17)
(1.0001 -0.00017616 1.536e-17)
(1.0001 -0.00015424 -1.1871e-17)
(1.0002 -0.00015889 2.2126e-17)
(1 4.365e-05 1.3805e-17)
(0.99997 0.00024495 2.4369e-18)
(0.99653 0.0010547 5.2503e-19)
(1.0142 0.0019595 1.3988e-18)
(0.91553 0.0042211 4.3845e-18)
(1.1073 0.076002 -6.99e-19)
(0.99998 4.6002e-05 -2.4211e-18)
(1 -5.7434e-05 -7.5133e-18)
(1 -0.0001186 9.239e-18)
(1.0001 -0.00019522 -2.7101e-18)
(1.0001 -0.00017109 1.8325e-18)
(1.0002 -0.00017653 -2.4249e-17)
(1 4.9049e-05 -3.1795e-17)
(1.0001 0.00026383 -3.0949e-17)
(0.99579 0.0011757 1.5536e-17)
(1.017 0.0023433 1.8168e-18)
(0.91115 0.0038556 -1.1122e-17)
(1.096 0.075466 -5.7452e-18)
(0.99998 5.0321e-05 3.3418e-18)
(1 -6.3101e-05 2.8379e-18)
(1 -0.00013037 4.4526e-18)
(1.0001 -0.00021439 -2.1598e-18)
(1.0001 -0.00018808 -5.493e-18)
(1.0002 -0.00019437 9.1716e-18)
(1 5.4554e-05 1.8405e-17)
(1.0002 0.00028135 1.912e-17)
(0.99497 0.0012936 9.9817e-18)
(1.0199 0.0027617 -2.2944e-17)
(0.90808 0.0034566 1.167e-19)
(1.0836 0.074412 -6.6496e-18)
(0.99998 5.4629e-05 -3.3412e-18)
(0.99999 -6.8805e-05 5.5808e-18)
(1 -0.00014223 8.0729e-18)
(1.0001 -0.00023367 5.6396e-18)
(1.0001 -0.00020524 -5.0949e-18)
(1.0002 -0.00021242 4.5089e-18)
(1 6.0155e-05 4.1969e-18)
(1.0003 0.00029757 -1.7074e-18)
(0.99407 0.0014073 -1.6133e-17)
(1.0229 0.0032107 2.1277e-17)
(0.90626 0.0030473 1.0384e-19)
(1.0705 0.072977 1.4244e-18)
(0.99997 5.8924e-05 5.081e-18)
(0.99999 -7.4546e-05 -4.3564e-18)
(1 -0.00015419 7.0678e-19)
(1.0001 -0.00025306 -4.7046e-18)
(1.0002 -0.00022256 1.1571e-17)
(1.0002 -0.0002307 5.5014e-18)
(1 6.5833e-05 1.6887e-17)
(1.0004 0.00031262 -6.3416e-18)
(0.99309 0.0015157 -1.9713e-19)
(1.0258 0.0036856 5.2251e-18)
(0.90565 0.0026475 1.688e-17)
(1.0574 0.071276 9.0857e-19)
(0.99997 6.3207e-05 1.2255e-18)
(0.99999 -8.0327e-05 9.6684e-18)
(1 -0.00016625 1.35e-17)
(1.0001 -0.00027256 -4.6907e-18)
(1.0002 -0.00024006 8.3785e-18)
(1.0003 -0.00024922 -2.5682e-18)
(1 7.1567e-05 -2.9576e-17)
(1.0006 0.00032662 2.0073e-17)
(0.99203 0.001618 -1.8191e-17)
(1.0285 0.0041816 -3.0139e-17)
(0.90614 0.002274 -3.7054e-18)
(1.0445 0.0694 8.4165e-19)
(0.99997 6.7477e-05 -3.1264e-18)
(0.99999 -8.6149e-05 -1.0282e-17)
(1 -0.00017842 -3.2402e-17)
(1.0001 -0.00029218 7.9029e-18)
(1.0002 -0.00025775 -1.2714e-17)
(1.0003 -0.000268 8.2345e-18)
(1 7.7329e-05 -2.7672e-18)
(1.0008 0.00033975 -1.2084e-17)
(0.99091 0.0017131 3.995e-18)
(1.0312 0.0046933 1.7997e-17)
(0.90764 0.0019402 -7.7773e-18)
(1.0323 0.067422 1.1685e-17)
(0.99996 7.1734e-05 3.2897e-19)
(0.99998 -9.2014e-05 7.6903e-18)
(1 -0.00019069 2.2371e-17)
(1.0001 -0.00031192 -1.7799e-18)
(1.0002 -0.00027563 -1.2632e-17)
(1.0003 -0.00028704 -1.5345e-17)
(1 8.3086e-05 1.057e-17)
(1.0011 0.0003522 6.9305e-18)
(0.98972 0.0018005 2.3085e-17)
(1.0337 0.0052159 -2.5198e-18)
(0.91003 0.0016565 1.9327e-18)
(1.0209 0.065401 -4.6619e-18)
(0.99996 7.5979e-05 -1.8456e-18)
(0.99998 -9.7922e-05 -9.3183e-18)
(1 -0.00020308 -1.0094e-17)
(1.0001 -0.0003318 5.9479e-18)
(1.0002 -0.00029371 -7.0944e-18)
(1.0003 -0.00030635 -1.2308e-17)
(1 8.8797e-05 1.0276e-17)
(1.0014 0.00036419 -4.7015e-18)
(0.98848 0.0018792 -2.8566e-17)
(1.036 0.0057443 -1.4121e-17)
(0.91319 0.0014304 8.3889e-18)
(1.0106 0.063383 -5.0554e-18)
(0.99995 8.021e-05 -2.6428e-18)
(0.99998 -0.00010388 -3.522e-18)
(1 -0.00021558 -7.4809e-19)
(1.0001 -0.0003518 -2.6046e-17)
(1.0002 -0.00031201 5.9523e-18)
(1.0003 -0.00032596 5.3597e-18)
(0.99999 9.4415e-05 -1.9526e-17)
(1.0017 0.00037598 -1.6053e-17)
(0.98719 0.0019487 4.1793e-18)
(1.0381 0.006274 -1.0603e-18)
(0.917 0.0012671 -9.687e-18)
(1.0013 0.061403 9.5621e-19)
(0.99995 8.4428e-05 3.4375e-18)
(0.99997 -0.00010988 1.6146e-17)
(1 -0.0002282 1.9264e-17)
(1.0001 -0.00037194 2.4527e-18)
(1.0002 -0.00033053 1.6455e-17)
(1.0004 -0.00034587 9.3927e-18)
(0.99996 9.9884e-05 2.8184e-18)
(1.002 0.00038783 1.757e-17)
(0.98586 0.0020082 2.0757e-17)
(1.04 0.0068008 1.6861e-17)
(0.92134 0.0011692 7.2311e-18)
(0.99324 0.059486 1.1344e-18)
(0.99994 8.8632e-05 -1.6385e-18)
(0.99997 -0.00011593 -3.8739e-18)
(1 -0.00024095 -2.0524e-17)
(1.0002 -0.00039222 -2.3227e-18)
(1.0002 -0.00034929 -1.2472e-17)
(1.0004 -0.00036608 -5.0821e-18)
(0.99993 0.00010514 -1.8087e-18)
(1.0024 0.00040005 -1.5888e-17)
(0.98451 0.0020573 -1.9845e-17)
(1.0416 0.0073208 8.6411e-18)
(0.92611 0.0011373 4.972e-19)
(0.98635 0.057653 6.51e-19)
(0.99993 9.2823e-05 4.3431e-18)
(0.99996 -0.00012203 -5.0613e-18)
(1 -0.00025382 -1.925e-17)
(1.0002 -0.00041264 4.4155e-17)
(1.0002 -0.00036829 1.8092e-17)
(1.0004 -0.00038661 -1.2436e-17)
(0.9999 0.00011011 2.4318e-17)
(1.0028 0.00041295 2.1473e-17)
(0.98314 0.0020953 3.22e-17)
(1.0429 0.0078306 -3.167e-17)
(0.9312 0.0011706 -1.3283e-17)
(0.98062 0.055916 1.7157e-19)
(0.99993 9.6999e-05 -3.179e-18)
(0.99996 -0.00012818 -1.0157e-18)
(1 -0.00026683 3.2864e-17)
(1.0002 -0.00043322 -3.3378e-17)
(1.0003 -0.00038755 -1.7415e-18)
(1.0005 -0.00040746 4.1204e-17)
(0.99986 0.00011471 7.5361e-18)
(1.0033 0.00042689 -3.3167e-18)
(0.98177 0.0021218 -1.9969e-17)
(1.044 0.0083273 3.732e-17)
(0.93651 0.0012667 -5.6281e-18)
(0.97602 0.054283 -2.7284e-19)
(0.99992 0.00010116 -1.6207e-18)
(0.99995 -0.00013439 -2.0239e-18)
(1 -0.00027997 1.7116e-18)
(1.0002 -0.00045395 3.4725e-17)
(1.0003 -0.00040707 -9.8192e-18)
(1.0005 -0.00042865 -3.0456e-17)
(0.9998 0.00011885 -1.9214e-17)
(1.0038 0.00044221 -3.5714e-18)
(0.9804 0.0021362 6.3137e-18)
(1.0448 0.0088084 -3.1482e-17)
(0.94195 0.001422 9.4259e-18)
(0.97247 0.052759 2.9562e-18)
(0.99991 0.00010531 2.6783e-18)
(0.99995 -0.00014066 1.4086e-17)
(1 -0.00029325 -1.2622e-17)
(1.0002 -0.00047484 -3.6358e-18)
(1.0003 -0.00042686 -1.8845e-17)
(1.0005 -0.00045017 3.3134e-17)
(0.99975 0.00012243 -1.6867e-17)
(1.0043 0.0004593 1.4807e-17)
(0.97905 0.0021381 -1.9459e-18)
(1.0454 0.0092717 2.9514e-17)
(0.94744 0.0016322 -9.2005e-18)
(0.9699 0.051344 -4.9327e-18)
(0.99991 0.00010944 -5.1368e-19)
(0.99994 -0.00014698 -8.1015e-18)
(1 -0.00030667 -1.7674e-17)
(1.0002 -0.00049589 -9.9631e-18)
(1.0003 -0.00044695 1.8279e-17)
(1.0006 -0.00047203 -4.2252e-17)
(0.99968 0.00012533 -2.6026e-18)
(1.0049 0.00047854 -2.0005e-17)
(0.97772 0.002127 3.1422e-18)
(1.0457 0.0097155 -8.5128e-18)
(0.9529 0.0018925 9.793e-18)
(0.96822 0.050037 2.0921e-18)
(0.9999 0.00011356 2.6911e-18)
(0.99994 -0.00015337 -8.6783e-18)
(1 -0.00032024 -1.7464e-18)
(1.0002 -0.00051712 2.4211e-18)
(1.0003 -0.00046733 5.7854e-18)
(1.0006 -0.00049422 1.2209e-17)
(0.9996 0.00012742 4.2671e-17)
(1.0055 0.00050035 2.3908e-18)
(0.97644 0.0021026 5.1194e-18)
(1.0457 0.010138 9.3818e-18)
(0.95828 0.0021974 -8.3774e-18)
(0.96733 0.048835 1.6061e-18)
(0.99989 0.00011767 -1.5431e-18)
(0.99993 -0.00015981 8.6703e-18)
(1 -0.00033396 2.5123e-17)
(1.0002 -0.00053851 -2.4393e-17)
(1.0003 -0.00048803 -8.9994e-18)
(1.0006 -0.00051676 -2.1484e-18)
(0.99951 0.00012858 -1.4065e-17)
(1.0061 0.00052513 1.8549e-18)
(0.9752 0.0020646 -8.8713e-18)
(1.0454 0.010539 -3.4484e-18)
(0.96352 0.0025414 -2.3783e-19)
(0.96714 0.047733 -1.9628e-18)
(0.99988 0.00012176 -1.6585e-18)
(0.99992 -0.00016633 5.1899e-18)
(1 -0.00034783 -6.0749e-19)
(1.0002 -0.00056009 8.0886e-18)
(1.0003 -0.00050905 -1.6606e-17)
(1.0007 -0.00053963 2.4308e-17)
(0.99941 0.00012866 7.0152e-18)
(1.0068 0.00055329 -1.7695e-17)
(0.97402 0.0020127 -1.1373e-17)
(1.0449 0.010917 -1.3652e-17)
(0.96858 0.0029188 1.3272e-18)
(0.96754 0.046726 -3.5951e-18)
(0.99987 0.00012583 5.7636e-19)
(0.99992 -0.0001729 -1.2394e-17)
(1 -0.00036187 1.5558e-17)
(1.0002 -0.00058185 2.2372e-17)
(1.0003 -0.00053041 3.2548e-17)
(1.0007 -0.00056282 -1.7852e-17)
(0.9993 0.00012749 -1.7441e-17)
(1.0074 0.00058526 3.5909e-18)
(0.97291 0.0019466 1.0656e-17)
(1.0442 0.011272 1.0686e-17)
(0.97341 0.003324 6.1818e-18)
(0.96846 0.045806 3.5732e-18)
(0.99987 0.00012989 1.1046e-18)
(0.99991 -0.00017955 9.8563e-18)
(1 -0.00037607 -3.5745e-17)
(1.0002 -0.00060381 -3.2414e-18)
(1.0003 -0.00055213 -2.7038e-17)
(1.0008 -0.00058635 -1.1245e-17)
(0.99918 0.00012491 2.4545e-20)
(1.0081 0.00062144 -4.1075e-18)
(0.97188 0.0018662 -2.0991e-17)
(1.0433 0.011602 -1.7061e-17)
(0.97799 0.0037514 -8.4439e-18)
(0.9698 0.044967 -1.7603e-18)
(0.99986 0.00013393 -7.1591e-19)
(0.9999 -0.00018627 -6.4101e-18)
(1 -0.00039044 2.8126e-17)
(1.0002 -0.00062595 -3.0931e-17)
(1.0003 -0.00057421 -2.0341e-18)
(1.0008 -0.00061018 2.3947e-17)
(0.99904 0.00012074 6.9786e-19)
(1.0089 0.00066224 3.917e-18)
(0.97094 0.0017714 1.8376e-17)
(1.0422 0.011909 2.2178e-17)
(0.98229 0.0041959 4.8306e-18)
(0.97147 0.044202 -9.8271e-19)
(0.99985 0.00013796 -1.8638e-18)
(0.99989 -0.00019306 -2.364e-18)
(1 -0.00040499 -1.2468e-17)
(1.0002 -0.0006483 1.5409e-17)
(1.0004 -0.00059667 2.9717e-17)
(1.0009 -0.0006343 -1.0584e-17)
(0.9989 0.00011478 2.1722e-17)
(1.0096 0.00070806 2.9361e-18)
(0.97009 0.0016623 -2.0809e-18)
(1.0408 0.012191 1.0033e-17)
(0.98629 0.0046522 -5.3988e-18)
(0.97341 0.043505 -6.8433e-19)
(0.99984 0.00014197 4.6612e-19)
(0.99988 -0.00019992 -6.2519e-18)
(1 -0.00041971 4.6678e-18)
(1.0002 -0.00067086 -1.5705e-17)
(1.0004 -0.00061953 -3.1434e-17)
(1.0009 -0.00065871 6.6698e-18)
(0.99874 0.00010683 -3.1337e-17)
(1.0103 0.00075926 -6.7127e-18)
(0.96934 0.001539 6.7506e-18)
(1.0394 0.012449 -3.1492e-17)
(0.98998 0.0051157 3.6962e-18)
(0.97553 0.042867 1.9337e-18)
(0.99983 0.00014597 8.186e-19)
(0.99988 -0.00020686 1.6938e-17)
(1 -0.00043461 7.8161e-18)
(1.0002 -0.00069362 6.3971e-18)
(1.0004 -0.0006428 2.5136e-17)
(1.001 -0.00068338 1.9888e-18)
(0.99857 9.667e-05 2.1639e-17)
(1.0111 0.0008162 4.8148e-18)
(0.9687 0.0014017 -2.0514e-17)
(1.0377 0.012683 1.0842e-17)
(0.99336 0.0055819 2.4996e-18)
(0.97778 0.042283 2.0043e-18)
(0.99981 0.00014994 -2.8585e-18)
(0.99987 -0.00021389 -5.5755e-18)
(0.99999 -0.00044971 -6.8666e-18)
(1.0002 -0.0007166 1.0506e-17)
(1.0004 -0.00066651 1.2144e-17)
(1.0011 -0.00070828 -3.9603e-18)
(0.99839 8.4088e-05 -1.8176e-17)
(1.0119 0.00087923 2.1922e-17)
(0.96818 0.0012507 3.8001e-18)
(1.036 0.012893 -3.2756e-18)
(0.99642 0.0060467 1.0339e-17)
(0.9801 0.041745 -1.3928e-18)
(0.9998 0.00015391 5.8737e-18)
(0.99986 -0.00022099 6.6772e-18)
(0.99999 -0.000465 -7.2997e-18)
(1.0002 -0.00073981 -6.5448e-18)
(1.0004 -0.00069066 -1.7426e-17)
(1.0011 -0.0007334 -6.8024e-18)
(0.99819 6.8846e-05 8.9617e-18)
(1.0126 0.00094863 -3.5161e-17)
(0.96777 0.0010865 9.2988e-18)
(1.0341 0.01308 -3.8723e-18)
(0.99917 0.0065064 -1.0948e-17)
(0.98245 0.041249 4.0443e-18)
(0.99979 0.00015785 -2.5924e-18)
(0.99985 -0.00022818 -1.1732e-17)
(0.99998 -0.00048048 -7.0751e-18)
(1.0002 -0.00076324 -1.242e-17)
(1.0004 -0.00071528 -5.3209e-18)
(1.0012 -0.00075869 2.0001e-17)
(0.99799 5.0706e-05 -8.8035e-18)
(1.0134 0.0010247 3.9114e-17)
(0.96747 0.00090959 8.7664e-18)
(1.0322 0.013242 1.175e-17)
(1.0016 0.0069575 4.6147e-18)
(0.98477 0.040788 -6.5579e-18)
(0.99978 0.00016178 -1.3751e-18)
(0.99984 -0.00023546 8.725e-18)
(0.99998 -0.00049617 1.4018e-17)
(1.0002 -0.00078691 3.3486e-17)
(1.0004 -0.00074038 7.053e-18)
(1.0013 -0.00078412 -1.3719e-17)
(0.99777 2.9419e-05 4.2484e-18)
(1.0142 0.0011076 -4.208e-17)
(0.9673 0.00072073 -1.0632e-17)
(1.0302 0.013382 -6.5337e-18)
(1.0037 0.007397 4.5267e-18)
(0.98705 0.040357 6.5935e-18)
(0.99977 0.00016569 1.0524e-18)
(0.99983 -0.00024282 2.0656e-18)
(0.99997 -0.00051207 -1.3768e-17)
(1.0002 -0.00081082 -5.5777e-18)
(1.0004 -0.000766 8.956e-18)
(1.0014 -0.00080966 1.6422e-17)
(0.99755 4.7331e-06 1.4773e-17)
(1.0149 0.0011976 4.1654e-18)
(0.96725 0.00052068 1.1894e-17)
(1.0281 0.013499 -3.0277e-18)
(1.0056 0.0078221 -8.0808e-18)
(0.98925 0.03995 -1.7004e-18)
(0.99975 0.00016958 -4.3097e-20)
(0.99981 -0.00025028 2.3542e-18)
(0.99997 -0.00052818 3.0769e-18)
(1.0003 -0.00083497 -7.2413e-18)
(1.0004 -0.00079214 8.3683e-20)
(1.0014 -0.00083527 -1.4889e-17)
(0.99731 -2.3607e-05 -9.9926e-18)
(1.0157 0.0012948 3.0813e-17)
(0.96733 0.00031035 -1.7972e-17)
(1.026 0.013594 1.1757e-17)
(1.0072 0.0082304 4.2675e-18)
(0.99134 0.039564 -4.8012e-18)
(0.99974 0.00017346 -3.26e-18)
(0.9998 -0.00025783 -1.1041e-17)
(0.99996 -0.00054451 7.8561e-18)
(1.0003 -0.00085938 -1.9778e-17)
(1.0004 -0.00081883 -2.265e-17)
(1.0015 -0.00086089 -2.0569e-17)
(0.99707 -5.5861e-05 -2.0365e-17)
(1.0164 0.0013993 -3.1557e-18)
(0.96752 9.0783e-05 1.5706e-17)
(1.0239 0.013666 -1.0086e-17)
(1.0085 0.0086197 4.2392e-19)
(0.99331 0.039194 4.5218e-18)
(0.99973 0.00017732 6.2922e-18)
(0.99979 -0.00026549 1.1539e-17)
(0.99995 -0.00056106 -1.267e-17)
(1.0003 -0.00088404 1.6238e-17)
(1.0004 -0.00084609 -2.6568e-18)
(1.0016 -0.00088648 1.3482e-17)
(0.99681 -9.2286e-05 2.4479e-17)
(1.0171 0.0015112 -2.3901e-17)
(0.96783 -0.00013691 -7.9632e-18)
(1.0219 0.013718 1.0651e-17)
(1.0096 0.0089884 3.6873e-18)
(0.99515 0.038837 -2.1389e-18)
(0.99971 0.00018116 -4.7215e-18)
(0.99978 -0.00027324 -3.4101e-18)
(0.99994 -0.00057785 -2.6496e-18)
(1.0003 -0.00090897 1.858e-17)
(1.0004 -0.00087395 -5.6874e-18)
(1.0017 -0.00091198 -1.7092e-19)
(0.99655 -0.00013314 -4.79e-18)
(1.0178 0.0016304 1.9145e-17)
(0.96826 -0.00037152 -7.5599e-18)
(1.0198 0.013748 -7.3138e-18)
(1.0104 0.0093347 -1.09e-17)
(0.99685 0.038489 2.4857e-18)
(0.9997 0.00018498 3.2096e-18)
(0.99977 -0.0002811 -4.3241e-18)
(0.99994 -0.00059486 6.0648e-18)
(1.0003 -0.00093417 -2.8192e-17)
(1.0004 -0.00090244 3.8527e-17)
(1.0018 -0.00093734 5.5862e-18)
(0.99628 -0.00017868 1.8899e-17)
(1.0184 0.0017568 -1.1846e-17)
(0.9688 -0.00061174 1.0061e-19)
(1.0178 0.013758 5.4394e-18)
(1.0111 0.0096575 -2.1196e-18)
(0.99841 0.038147 -9.3527e-19)
(0.99968 0.00018878 -9.1816e-19)
(0.99975 -0.00028906 8.4531e-19)
(0.99993 -0.00061212 1.4778e-17)
(1.0003 -0.00095965 7.6856e-18)
(1.0004 -0.00093157 -1.9262e-17)
(1.0019 -0.00096251 -1.0942e-17)
(0.99601 -0.00022915 3.2997e-18)
(1.019 0.0018903 -5.7589e-18)
(0.96944 -0.00085621 1.2648e-17)
(1.0158 0.013748 -3.5706e-18)
(1.0115 0.0099557 1.0204e-17)
(0.99983 0.037808 -3.4127e-18)
(0.99967 0.00019257 -1.5983e-18)
(0.99974 -0.00029713 -8.1485e-18)
(0.99992 -0.00062963 -4.3938e-18)
(1.0003 -0.00098541 3.0865e-17)
(1.0004 -0.00096138 -1.7162e-17)
(1.0021 -0.00098741 -9.2705e-19)
(0.99573 -0.00028478 -4.9348e-17)
(1.0196 0.0020308 5.6612e-18)
(0.97018 -0.0011035 -2.3651e-17)
(1.0139 0.013719 -7.7113e-18)
(1.0118 0.010229 -1.0202e-17)
(1.0011 0.03747 2.0264e-18)
(0.99965 0.00019634 -6.9006e-19)
(0.99973 -0.00030532 5.0483e-18)
(0.99991 -0.00064738 -1.8138e-18)
(1.0003 -0.0010115 -1.7971e-17)
(1.0004 -0.0009919 2.4663e-17)
(1.0022 -0.001012 -2.2786e-18)
(0.99544 -0.00034581 2.6139e-17)
(1.0201 0.002178 -3.4799e-18)
(0.97102 -0.0013522 1.1483e-17)
(1.0121 0.013672 9.6448e-18)
(1.012 0.010476 8.4153e-18)
(1.0022 0.037131 -4.8987e-19)
(0.99964 0.00020009 3.9116e-18)
(0.99971 -0.00031363 -3.0208e-18)
(0.9999 -0.00066539 -6.3461e-18)
(1.0003 -0.0010378 1.9616e-17)
(1.0004 -0.0010231 1.8103e-18)
(1.0023 -0.0010362 2.8247e-17)
(0.99516 -0.00041245 4.509e-18)
(1.0206 0.0023314 1.6626e-17)
(0.97195 -0.0016009 4.308e-18)
(1.0104 0.013608 -3.1206e-18)
(1.012 0.010696 1.0946e-18)
(1.0032 0.03679 4.4347e-19)
(0.99962 0.00020382 1.1155e-18)
(0.9997 -0.00032205 1.2349e-18)
(0.99989 -0.00068367 -5.755e-18)
(1.0003 -0.0010644 -3.9064e-17)
(1.0004 -0.0010552 5.4821e-18)
(1.0024 -0.0010599 2.4503e-18)
(0.99487 -0.0004849 -1.9552e-17)
(1.0211 0.0024909 2.3386e-19)
(0.97295 -0.001848 1.2693e-17)
(1.0087 0.013526 -2.0064e-18)
(1.012 0.010891 -5.3291e-18)
(1.0041 0.036444 2.6134e-18)
(0.9996 0.00020754 -4.7764e-18)
(0.99968 -0.0003306 5.235e-18)
(0.99988 -0.00070221 9.4839e-19)
(1.0003 -0.0010914 2.1693e-17)
(1.0004 -0.001088 -2.5007e-17)
(1.0026 -0.0010831 -1.0821e-17)
(0.99459 -0.00056332 1.9997e-17)
(1.0215 0.0026558 -1.1261e-17)
(0.97403 -0.0020921 -2.0065e-17)
(1.0072 0.013429 -9.9144e-18)
(1.0118 0.011059 6.7866e-18)
(1.0049 0.036092 8.7078e-19)
(0.99958 0.00021123 -5.0551e-19)
(0.99966 -0.00033928 -5.2681e-18)
(0.99987 -0.00072103 1.0105e-17)
(1.0003 -0.0011187 9.6194e-18)
(1.0004 -0.0011216 3.0888e-17)
(1.0027 -0.0011057 4.1574e-18)
(0.9943 -0.00064788 1.7761e-17)
(1.0219 0.0028258 2.855e-17)
(0.97517 -0.0023317 -8.8619e-19)
(1.0058 0.013317 1.7439e-17)
(1.0116 0.011201 -7.1825e-19)
(1.0055 0.035733 -2.5425e-18)
(0.99957 0.00021491 4.8993e-18)
(0.99965 -0.00034809 -7.6704e-18)
(0.99986 -0.00074013 -1.5338e-17)
(1.0003 -0.0011463 -2.556e-18)
(1.0004 -0.0011561 -3.3526e-17)
(1.0028 -0.0011276 -1.237e-17)
(0.99402 -0.0007387 -6.1653e-18)
(1.0222 0.0030002 2.1368e-19)
(0.97637 -0.0025656 2.6111e-17)
(1.0045 0.013192 4.0186e-18)
(1.0113 0.011317 -9.3119e-18)
(1.0061 0.035367 1.5243e-18)
(0.99955 0.00021858 -5.4928e-18)
(0.99963 -0.00035703 9.5814e-18)
(0.99985 -0.00075952 8.0286e-18)
(1.0003 -0.0011742 -5.0943e-18)
(1.0004 -0.0011915 2.6962e-17)
(1.003 -0.0011488 1.4799e-17)
(0.99375 -0.00083588 -4.8736e-18)
(1.0225 0.0031784 -2.8772e-17)
(0.97761 -0.0027924 -8.878e-19)
(1.0033 0.013053 -1.1484e-17)
(1.011 0.011409 1.1023e-17)
(1.0066 0.034993 -1.9969e-18)
(0.99953 0.00022222 3.3007e-18)
(0.99961 -0.00036611 -1.8337e-18)
(0.99983 -0.00077919 1.0632e-17)
(1.0003 -0.0012025 -2.1436e-17)
(1.0004 -0.0012279 8.8054e-18)
(1.0031 -0.0011692 -5.3161e-18)
(0.99347 -0.0009395 -1.05e-17)
(1.0227 0.0033597 -2.3099e-18)
(0.97889 -0.003011 -3.151e-17)
(1.0022 0.012903 7.5763e-18)
(1.0106 0.011476 -1.0092e-17)
(1.007 0.034611 6.6587e-19)
(0.99951 0.00022585 2.6103e-19)
(0.9996 -0.00037534 -5.7685e-18)
(0.99982 -0.00079917 6.0382e-18)
(1.0003 -0.0012311 2.8215e-17)
(1.0003 -0.0012652 -2.0971e-17)
(1.0033 -0.0011887 1.7103e-17)
(0.99321 -0.0010496 -6.0714e-18)
(1.0229 0.0035435 5.3481e-18)
(0.9802 -0.00322 3.7436e-17)
(1.0012 0.012743 -1.4065e-17)
(1.0102 0.011519 1.5425e-17)
(1.0073 0.034219 1.8838e-18)
(0.99949 0.00022946 4.685e-19)
(0.99958 -0.00038472 -1.1942e-18)
(0.99981 -0.00081945 -8.6862e-18)
(1.0003 -0.00126 -4.247e-18)
(1.0003 -0.0013035 1.8279e-17)
(1.0034 -0.0012074 1.3683e-19)
(0.99295 -0.0011662 -1.1934e-17)
(1.023 0.0037289 -1.2769e-17)
(0.98153 -0.0034187 -1.5671e-17)
(1.0004 0.012574 -1.3277e-18)
(1.0099 0.011539 2.8229e-18)
(1.0076 0.033819 1.9683e-19)
(0.99947 0.00023305 -7.5379e-19)
(0.99956 -0.00039424 1.4207e-17)
(0.99979 -0.00084004 -5.794e-18)
(1.0003 -0.0012893 -2.4005e-17)
(1.0003 -0.0013428 8.4285e-18)
(1.0036 -0.0012251 -4.3576e-17)
(0.9927 -0.0012892 5.953e-18)
(1.0231 0.0039151 8.0396e-18)
(0.98287 -0.0036059 7.2788e-19)
(0.99965 0.012397 1.4284e-17)
(1.0095 0.011538 -9.4436e-19)
(1.0079 0.03341 -5.2627e-18)
(0.99944 0.00023663 -1.99e-19)
(0.99954 -0.00040393 -2.7869e-19)
(0.99978 -0.00086095 7.8003e-18)
(1.0003 -0.001319 1.4821e-17)
(1.0003 -0.0013833 -3.3486e-17)
(1.0038 -0.0012418 1.882e-18)
(0.99247 -0.0014186 1.0662e-17)
(1.0231 0.0041014 1.2593e-17)
(0.98422 -0.0037811 -9.9107e-18)
(0.99903 0.012212 -1.3907e-17)
(1.0091 0.011516 -1.5297e-17)
(1.0081 0.032992 5.5565e-18)
(0.99942 0.00024019 -1.3024e-18)
(0.99952 -0.00041377 3.9722e-19)
(0.99977 -0.00088218 -3.7609e-18)
(1.0003 -0.001349 -9.8959e-18)
(1.0003 -0.0014248 1.8564e-17)
(1.0039 -0.0012574 2.3391e-17)
(0.99224 -0.0015543 3.1096e-18)
(1.0231 0.0042867 6.3823e-18)
(0.98557 -0.0039435 1.5806e-17)
(0.99852 0.012023 2.3407e-18)
(1.0088 0.011474 1.1308e-17)
(1.0083 0.032567 -3.3726e-18)
(0.9994 0.00024374 2.3974e-18)
(0.9995 -0.00042378 7.3229e-19)
(0.99975 -0.00090375 -5.3754e-18)
(1.0003 -0.0013795 1.4619e-18)
(1.0002 -0.0014675 -1.0065e-17)
(1.0041 -0.001272 -5.6108e-18)
(0.99202 -0.0016961 -1.1493e-18)
(1.0231 0.0044703 -2.882e-17)
(0.98691 -0.0040926 3.1027e-18)
(0.99811 0.011829 -4.7455e-18)
(1.0085 0.011414 -4.5992e-18)
(1.0084 0.032133 -4.0642e-18)
(0.99938 0.00024727 -4.8928e-18)
(0.99948 -0.00043396 9.5675e-19)
(0.99974 -0.00092565 2.8513e-18)
(1.0003 -0.0014103 -1.8372e-17)
(1.0002 -0.0015114 -1.1476e-17)
(1.0043 -0.0012855 -2.605e-17)
(0.99182 -0.0018439 5.5466e-18)
(1.023 0.0046513 1.1768e-17)
(0.98824 -0.004228 -3.3274e-17)
(0.9978 0.011631 2.1882e-17)
(1.0082 0.011337 -4.9726e-18)
(1.0086 0.031692 2.6213e-18)
(0.99935 0.00025078 4.4915e-18)
(0.99946 -0.00044432 2.141e-18)
(0.99972 -0.00094789 1.0966e-18)
(1.0003 -0.0014415 5.8262e-18)
(1.0002 -0.0015564 -2.5356e-18)
(1.0044 -0.0012979 5.0491e-17)
(0.99163 -0.0019974 1.9914e-17)
(1.0228 0.0048287 -1.8308e-17)
(0.98954 -0.0043496 3.2024e-17)
(0.99758 0.011432 -8.1642e-18)
(1.008 0.011244 -3.2788e-18)
(1.0087 0.031243 -1.3071e-18)
(0.99933 0.00025428 1.1018e-18)
(0.99943 -0.00045486 -1.3556e-17)
(0.9997 -0.00097048 2.195e-18)
(1.0003 -0.0014731 2.6168e-17)
(1.0002 -0.0016028 1.9618e-17)
(1.0046 -0.0013092 -8.1447e-19)
(0.99146 -0.0021564 -2.7589e-17)
(1.0227 0.0050017 5.5413e-18)
(0.99082 -0.0044572 -7.2222e-18)
(0.99745 0.011231 -1.1299e-17)
(1.0078 0.011136 8.3416e-18)
(1.0088 0.030789 1.219e-18)
(0.9993 0.00025777 -4.3579e-18)
(0.99941 -0.00046559 -4.5199e-18)
(0.99968 -0.00099343 -1.1891e-17)
(1.0003 -0.0015052 -2.1948e-17)
(1.0001 -0.0016504 -1.9742e-17)
(1.0048 -0.0013194 -2.2946e-17)
(0.9913 -0.0023206 5.0946e-18)
(1.0225 0.0051694 4.3101e-17)
(0.99207 -0.0045509 3.1476e-18)
(0.9974 0.01103 -9.867e-19)
(1.0076 0.011015 -2.945e-18)
(1.009 0.030329 -3.2741e-18)
(0.99928 0.00026124 3.2339e-18)
(0.99939 -0.0004765 4.1981e-18)
(0.99967 -0.0010167 1.8324e-17)
(1.0003 -0.0015376 1.5201e-17)
(1.0001 -0.0016994 1.9207e-17)
(1.005 -0.0013285 -8.528e-19)
(0.99115 -0.0024896 -2.8386e-17)
(1.0222 0.0053309 -2.3298e-17)
(0.99329 -0.0046309 7.8119e-18)
(0.99742 0.01083 3.911e-18)
(1.0075 0.010882 6.6388e-18)
(1.0091 0.029863 2.5305e-18)
(0.99925 0.0002647 -2.284e-18)
(0.99936 -0.00048762 6.5865e-18)
(0.99965 -0.0010404 -1.2125e-17)
(1.0003 -0.0015705 2.2004e-18)
(1.0001 -0.0017496 8.9319e-18)
(1.0051 -0.0013366 -2.2432e-18)
(0.99103 -0.0026632 6.3731e-18)
(1.022 0.0054853 6.4706e-18)
(0.99446 -0.0046974 2.5712e-18)
(0.9975 0.010631 9.6676e-18)
(1.0075 0.010737 -7.984e-18)
(1.0092 0.029394 5.1135e-19)
(0.99922 0.00026815 3.4486e-18)
(0.99934 -0.00049893 4.0824e-19)
(0.99963 -0.0010645 -5.6762e-18)
(1.0003 -0.0016038 8.7609e-19)
(1.0001 -0.0018013 -1.4666e-18)
(1.0053 -0.0013437 -2.2161e-17)
(0.99091 -0.0028409 1.7795e-17)
(1.0217 0.005632 2.2969e-17)
(0.9956 -0.0047508 -1.28e-17)
(0.99765 0.010435 -1.3452e-17)
(1.0074 0.010582 -2.3335e-18)
(1.0094 0.02892 4.3514e-18)
(0.99919 0.00027159 -2.5052e-18)
(0.99931 -0.00051045 -3.1441e-19)
(0.99961 -0.0010889 7.0571e-18)
(1.0003 -0.0016376 -1.6823e-17)
(1 -0.0018544 -1.3269e-17)
(1.0055 -0.0013499 2.7979e-17)
(0.99082 -0.0030224 -2.7213e-18)
(1.0214 0.00577 -2.4319e-17)
(0.99669 -0.0047917 3.2611e-18)
(0.99785 0.010241 1.2665e-17)
(1.0074 0.010419 7.9098e-18)
(1.0095 0.028444 -1.569e-18)
(0.99917 0.00027501 2.4897e-19)
(0.99928 -0.00052219 2.3032e-18)
(0.99959 -0.0011138 3.8564e-18)
(1.0003 -0.0016719 8.6971e-18)
(0.99998 -0.0019088 2.6011e-17)
(1.0057 -0.0013553 6.524e-18)
(0.99074 -0.0032073 -2.3696e-17)
(1.0211 0.0058988 2.2799e-18)
(0.99773 -0.0048207 8.4004e-18)
(0.99809 0.010051 -1.1411e-17)
(1.0075 0.010248 -5.3478e-18)
(1.0097 0.027965 -1.8151e-18)
(0.99914 0.00027843 7.0696e-19)
(0.99926 -0.00053415 -4.0052e-19)
(0.99957 -0.001139 -1.0176e-17)
(1.0003 -0.0017066 -1.8708e-19)
(0.99994 -0.0019648 -5.1428e-17)
(1.0058 -0.0013598 8.0443e-18)
(0.99067 -0.003395 2.3277e-17)
(1.0207 0.0060177 -6.5494e-18)
(0.99873 -0.0048384 -8.7969e-18)
(0.99838 0.0098641 1.8949e-17)
(1.0075 0.01007 6.3981e-18)
(1.0099 0.027484 4.7041e-18)
(0.99911 0.00028183 7.5949e-19)
(0.99923 -0.00054633 -8.3132e-19)
(0.99955 -0.0011647 1.8404e-17)
(1.0003 -0.0017418 4.0119e-18)
(0.9999 -0.0020221 4.5577e-17)
(1.006 -0.0013638 -2.8349e-17)
(0.99062 -0.0035851 -7.7952e-18)
(1.0203 0.006126 6.1655e-18)
(0.99969 -0.0048457 3.031e-18)
(0.9987 0.0096818 -1.0662e-17)
(1.0077 0.0098862 -1.0359e-18)
(1.0101 0.027002 -3.4687e-18)
(0.99908 0.00028523 -2.968e-18)
(0.9992 -0.00055874 1.396e-18)
(0.99952 -0.0011907 -1.0818e-17)
(1.0003 -0.0017776 5.2757e-18)
(0.99986 -0.002081 -1.7319e-17)
(1.0062 -0.0013671 3.8446e-18)
(0.99059 -0.0037773 3.1212e-17)
(1.02 0.0062233 -2.3079e-17)
(1.0006 -0.0048433 -1.1141e-17)
(0.99906 0.0095038 -1.0546e-17)
(1.0078 0.0096974 -5.0872e-18)
(1.0103 0.02652 -9.5258e-19)
(0.99904 0.00028862 3.6972e-18)
(0.99917 -0.0005714 -3.3155e-18)
(0.9995 -0.0012172 -1.0499e-17)
(1.0003 -0.0018138 -8.4126e-18)
(0.99982 -0.0021413 -2.8319e-17)
(1.0063 -0.0013701 -1.7833e-17)
(0.99057 -0.003971 -1.9138e-17)
(1.0196 0.0063091 2.1461e-17)
(1.0014 -0.0048322 1.0801e-17)
(0.99943 0.0093304 1.5971e-17)
(1.008 0.0095043 -1.991e-18)
(1.0105 0.026038 4.5979e-18)
(0.99901 0.000292 -5.9425e-18)
(0.99914 -0.00058429 5.3724e-18)
(0.99948 -0.0012441 2.5709e-17)
(1.0003 -0.0018506 -1.9844e-18)
(0.99977 -0.0022031 3.1333e-17)
(1.0065 -0.0013727 1.3439e-18)
(0.99057 -0.0041658 -1.833e-17)
(1.0192 0.0063829 8.4018e-18)
(1.0023 -0.0048131 -3.8953e-18)
(0.99983 0.0091615 -3.3443e-18)
(1.0082 0.0093077 6.4597e-18)
(1.0107 0.025556 -3.1093e-18)
(0.99898 0.00029537 4.8699e-18)
(0.99911 -0.00059744 -7.3014e-18)
(0.99945 -0.0012715 -2.9976e-17)
(1.0003 -0.0018879 1.2982e-17)
(0.99973 -0.0022665 -2.2325e-17)
(1.0067 -0.0013752 2.4653e-17)
(0.99058 -0.0043613 5.9745e-18)
(1.0188 0.0064446 -7.9971e-18)
(1.003 -0.0047872 -1.8696e-18)
(1.0002 0.0089972 -8.3753e-18)
(1.0084 0.0091082 -1.0531e-17)
(1.011 0.025075 4.2976e-18)
(0.99895 0.00029873 -3.5874e-18)
(0.99908 -0.00061085 2.428e-18)
(0.99943 -0.0012993 1.8215e-17)
(1.0003 -0.0019258 -1.7114e-17)
(0.99968 -0.0023313 3.5924e-17)
(1.0068 -0.0013777 -1.9136e-17)
(0.99061 -0.0045569 3.4829e-18)
(1.0184 0.0064938 -1.2643e-17)
(1.0037 -0.0047553 6.1026e-18)
(1.0007 0.0088373 -1.1717e-18)
(1.0086 0.0089065 4.5077e-18)
(1.0112 0.024596 -1.911e-18)
(0.99891 0.00030209 4.4001e-18)
(0.99905 -0.00062452 1.8904e-18)
(0.9994 -0.0013275 -1.2145e-17)
(1.0003 -0.0019643 -3.4833e-19)
(0.99963 -0.0023976 -1.5848e-18)
(1.007 -0.0013804 4.6276e-18)
(0.99065 -0.0047524 3.3075e-17)
(1.018 0.0065303 8.6487e-18)
(1.0044 -0.0047184 -1.8089e-17)
(1.0011 0.0086818 -6.0738e-18)
(1.0089 0.0087029 -4.2387e-18)
(1.0115 0.024118 2.0083e-18)
(0.99888 0.00030545 -5.0436e-18)
(0.99901 -0.00063847 -7.0056e-18)
(0.99938 -0.0013562 5.095e-18)
(1.0003 -0.0020034 1.4809e-17)
(0.99958 -0.0024654 -3.2592e-17)
(1.0072 -0.0013834 1.555e-17)
(0.9907 -0.0049472 -3.1846e-17)