/*--------------------------------*- C++ -*----------------------------------*\
  =========                 |
  \\      /  F ield         | OpenFOAM: The Open Source CFD Toolbox
   \\    /   O peration     | Website:  https://openfoam.org
    \\  /    A nd           | Version:  6.0
     \\/     M anipulation  |
\*---------------------------------------------------------------------------*/
FoamFile
{
    version     2.0;
    format      ascii;
    class       surfaceScalarField;
    location    "3.38";
    object      phi;
}
// * * * * * * * * * * * * * * * * * * * * * * * * * * * * * * * * * * * * * //

dimensions      [0 3 -1 0 0 0 0];

internalField   nonuniform List<scalar> 
26699
(
2.0051e-05
0.005201
5.6691e-10
4.0126e-05
0.0051116
5.9639e-05
0.0049351
7.8187e-05
0.0046741
9.5416e-05
0.0043332
0.00011102
0.0039182
0.00012471
0.0034362
0.00013626
0.0028953
0.00014546
0.002305
0.00015181
0.0016755
0.00015717
0.0010154
0.00046502
3.4352e-05
2.0051e-05
0.0051809
1.7468e-09
4.0127e-05
0.0050916
5.9641e-05
0.0049155
7.819e-05
0.0046556
9.5418e-05
0.004316
0.00011102
0.0039026
0.00012471
0.0034225
0.00013625
0.0028838
0.00014545
0.0022958
0.00015106
0.0016699
0.0001589
0.0010076
0.00055904
6.4886e-05
2.0051e-05
0.0051609
3.0017e-09
4.0128e-05
0.0050715
5.9643e-05
0.004896
7.8193e-05
0.004637
9.5421e-05
0.0042988
0.00011103
0.003887
0.00012471
0.0034088
0.00013623
0.0028723
0.00014546
0.0022865
0.00015029
0.0016651
0.00016016
0.00099769
0.0006292
9.0001e-05
2.0051e-05
0.0051408
4.2717e-09
4.013e-05
0.0050514
5.9645e-05
0.0048765
7.8196e-05
0.0046185
9.5424e-05
0.0042815
0.00011103
0.0038714
0.0001247
0.0033951
0.0001362
0.0028608
0.00014551
0.0022772
0.00014955
0.001661
0.00016089
0.00098635
0.0006799
0.00011019
2.0051e-05
0.0051208
5.5445e-09
4.0131e-05
0.0050313
5.9648e-05
0.004857
7.8199e-05
0.0045999
9.5427e-05
0.0042643
0.00011103
0.0038558
0.0001247
0.0033815
0.00013618
0.0028493
0.00014558
0.0022678
0.00014886
0.0016577
0.0001611
0.00097411
0.00071477
0.00012622
2.0051e-05
0.0051007
6.8198e-09
4.0132e-05
0.0050112
5.965e-05
0.0048375
7.8202e-05
0.0045814
9.543e-05
0.0042471
0.00011103
0.0038402
0.0001247
0.0033678
0.00013615
0.0028378
0.00014567
0.0022583
0.00014823
0.0016552
0.00016085
0.00096149
0.00073684
0.00013878
2.0051e-05
0.0050807
8.0975e-09
4.0133e-05
0.0049912
5.9652e-05
0.004818
7.8205e-05
0.0045628
9.5433e-05
0.0042299
0.00011103
0.0038246
0.0001247
0.0033541
0.00013612
0.0028264
0.00014578
0.0022486
0.00014769
0.0016533
0.00016024
0.00094894
0.00074867
0.00014842
2.0051e-05
0.0050606
9.3778e-09
4.0134e-05
0.0049711
5.9655e-05
0.0047984
7.8208e-05
0.0045443
9.5437e-05
0.0042126
0.00011104
0.003809
0.0001247
0.0033405
0.00013608
0.002815
0.0001459
0.0022388
0.00014725
0.0016519
0.00015937
0.00093683
0.00075241
0.00015562
2.0051e-05
0.0050405
1.0661e-08
4.0136e-05
0.004951
5.9657e-05
0.0047789
7.8211e-05
0.0045257
9.544e-05
0.0041954
0.00011104
0.0037934
0.0001247
0.0033268
0.00013604
0.0028037
0.00014604
0.0022288
0.00014692
0.001651
0.00015831
0.00092544
0.00074989
0.00016083
2.0051e-05
0.0050205
1.1946e-08
4.0137e-05
0.0049309
5.9659e-05
0.0047594
7.8214e-05
0.0045071
9.5444e-05
0.0041782
0.00011104
0.0037778
0.0001247
0.0033131
0.00013599
0.0027924
0.00014618
0.0022186
0.0001467
0.0016505
0.00015714
0.000915
0.00074262
0.00016442
2.0051e-05
0.0050004
1.3234e-08
4.0138e-05
0.0049108
5.9662e-05
0.0047399
7.8217e-05
0.0044886
9.5447e-05
0.0041609
0.00011104
0.0037622
0.0001247
0.0032995
0.00013594
0.0027812
0.00014631
0.0022083
0.00014658
0.0016502
0.00015594
0.00090565
0.00073184
0.00016671
2.0051e-05
0.0049803
1.4525e-08
4.0139e-05
0.0048907
5.9664e-05
0.0047204
7.8221e-05
0.00447
9.545e-05
0.0041437
0.00011104
0.0037466
0.00012471
0.0032858
0.00013589
0.00277
0.00014645
0.0021977
0.00014657
0.0016501
0.00015474
0.00089748
0.0007186
0.00016799
2.0051e-05
0.0049603
1.5818e-08
4.014e-05
0.0048706
5.9667e-05
0.0047008
7.8224e-05
0.0044515
9.5454e-05
0.0041265
0.00011105
0.003731
0.00012472
0.0032721
0.00013583
0.0027589
0.00014658
0.002187
0.00014666
0.00165
0.0001536
0.00089053
0.00070371
0.00016849
2.0051e-05
0.0049402
1.7115e-08
4.0142e-05
0.0048506
5.9669e-05
0.0046813
7.8227e-05
0.0044329
9.5458e-05
0.0041093
0.00011105
0.0037154
0.00012472
0.0032585
0.00013577
0.0027478
0.0001467
0.002176
0.00014683
0.0016499
0.00015255
0.00088481
0.00068786
0.0001684
2.0051e-05
0.0049201
1.8414e-08
4.0143e-05
0.0048305
5.9671e-05
0.0046618
7.823e-05
0.0044144
9.5461e-05
0.004092
0.00011105
0.0036998
0.00012473
0.0032448
0.00013571
0.0027369
0.00014681
0.0021649
0.00014708
0.0016496
0.00015162
0.00088028
0.00067159
0.00016789
2.0051e-05
0.0049001
1.9716e-08
4.0144e-05
0.0048104
5.9674e-05
0.0046422
7.8233e-05
0.0043958
9.5465e-05
0.0040748
0.00011105
0.0036843
0.00012475
0.0032311
0.00013564
0.002726
0.00014691
0.0021537
0.0001474
0.0016491
0.00015081
0.00087687
0.0006553
0.00016709
2.0051e-05
0.00488
2.1021e-08
4.0145e-05
0.0047903
5.9676e-05
0.0046227
7.8236e-05
0.0043772
9.5469e-05
0.0040576
0.00011105
0.0036687
0.00012476
0.0032174
0.00013558
0.0027151
0.00014698
0.0021423
0.00014777
0.0016484
0.00015013
0.00087451
0.00063933
0.0001661
2.0051e-05
0.0048599
2.2329e-08
4.0146e-05
0.0047702
5.9679e-05
0.0046032
7.8239e-05
0.0043587
9.5473e-05
0.0040403
0.00011106
0.0036531
0.00012478
0.0032037
0.00013551
0.0027044
0.00014704
0.0021307
0.00014818
0.0016472
0.00014959
0.0008731
0.0006239
0.00016502
2.0051e-05
0.0048399
2.3641e-08
4.0148e-05
0.0047501
5.9681e-05
0.0045836
7.8243e-05
0.0043401
9.5477e-05
0.0040231
0.00011106
0.0036375
0.00012479
0.0031899
0.00013544
0.0026938
0.00014709
0.0021191
0.00014863
0.0016457
0.0001492
0.00087254
0.0006092
0.0001639
2.0051e-05
0.0048198
2.4955e-08
4.0149e-05
0.00473
5.9683e-05
0.0045641
7.8246e-05
0.0043216
9.5481e-05
0.0040059
0.00011106
0.0036219
0.00012481
0.0031762
0.00013537
0.0026832
0.00014711
0.0021073
0.0001491
0.0016437
0.00014893
0.00087271
0.00059533
0.0001628
2.0051e-05
0.0047997
2.6273e-08
4.015e-05
0.0047099
5.9686e-05
0.0045446
7.8249e-05
0.004303
9.5485e-05
0.0039886
0.00011106
0.0036064
0.00012483
0.0031624
0.0001353
0.0026727
0.00014711
0.0020955
0.00014958
0.0016412
0.00014879
0.00087351
0.00058236
0.00016176
2.0051e-05
0.0047796
2.7594e-08
4.0151e-05
0.0046898
5.9688e-05
0.004525
7.8252e-05
0.0042844
9.5489e-05
0.0039714
0.00011106
0.0035908
0.00012486
0.0031486
0.00013523
0.0026624
0.00014709
0.0020837
0.00015007
0.0016382
0.00014876
0.00087481
0.00057032
0.0001608
2.0051e-05
0.0047595
2.8918e-08
4.0152e-05
0.0046697
5.9691e-05
0.0045055
7.8255e-05
0.0042659
9.5493e-05
0.0039541
0.00011106
0.0035752
0.00012488
0.0031348
0.00013517
0.0026521
0.00014705
0.0020718
0.00015055
0.0016347
0.00014884
0.00087653
0.00055922
0.00015994
2.0051e-05
0.0047395
3.0246e-08
4.0154e-05
0.0046496
5.9693e-05
0.004486
7.8259e-05
0.0042473
9.5498e-05
0.0039369
0.00011106
0.0035597
0.00012491
0.0031209
0.00013511
0.0026419
0.000147
0.0020599
0.00015102
0.0016307
0.00014901
0.00087854
0.00054902
0.0001592
2.0051e-05
0.0047194
3.1577e-08
4.0155e-05
0.0046295
5.9696e-05
0.0044664
7.8262e-05
0.0042287
9.5502e-05
0.0039197
0.00011106
0.0035441
0.00012494
0.003107
0.00013505
0.0026318
0.00014693
0.002048
0.00015148
0.0016261
0.00014926
0.00088076
0.00053971
0.00015857
2.0051e-05
0.0046993
3.2912e-08
4.0156e-05
0.0046094
5.9698e-05
0.0044469
7.8265e-05
0.0042102
9.5507e-05
0.0039024
0.00011106
0.0035286
0.00012497
0.0030931
0.000135
0.0026217
0.00014683
0.0020362
0.00015191
0.0016211
0.00014957
0.0008831
0.00053121
0.00015807
2.0051e-05
0.0046792
3.4251e-08
4.0157e-05
0.0045893
5.9701e-05
0.0044273
7.8269e-05
0.0041916
9.5512e-05
0.0038852
0.00011106
0.003513
0.000125
0.0030792
0.00013495
0.0026118
0.00014673
0.0020244
0.00015231
0.0016155
0.00014994
0.00088547
0.00052348
0.00015767
2.0051e-05
0.0046591
3.5593e-08
4.0159e-05
0.0045692
5.9703e-05
0.0044078
7.8272e-05
0.004173
9.5517e-05
0.0038679
0.00011106
0.0034975
0.00012503
0.0030652
0.0001349
0.0026019
0.00014661
0.0020127
0.00015269
0.0016094
0.00015035
0.00088781
0.00051646
0.00015738
2.0051e-05
0.004639
3.6939e-08
4.016e-05
0.004549
5.9706e-05
0.0043882
7.8275e-05
0.0041545
9.5522e-05
0.0038507
0.00011105
0.0034819
0.00012507
0.0030512
0.00013487
0.0025921
0.00014647
0.0020011
0.00015303
0.0016028
0.0001508
0.00089004
0.00051007
0.00015719
2.0051e-05
0.0046189
3.8289e-08
4.0161e-05
0.0045289
5.9708e-05
0.0043687
7.8279e-05
0.0041359
9.5527e-05
0.0038334
0.00011105
0.0034664
0.0001251
0.0030372
0.00013484
0.0025824
0.00014633
0.0019896
0.00015334
0.0015958
0.00015127
0.00089211
0.00050425
0.00015709
2.0051e-05
0.0045989
3.9643e-08
4.0162e-05
0.0045088
5.9711e-05
0.0043491
7.8282e-05
0.0041173
9.5533e-05
0.0038162
0.00011105
0.0034509
0.00012514
0.0030231
0.00013481
0.0025727
0.00014617
0.0019782
0.00015361
0.0015884
0.00015175
0.00089397
0.00049893
0.00015707
2.0051e-05
0.0045788
4.1e-08
4.0163e-05
0.0044887
5.9713e-05
0.0043296
7.8285e-05
0.0040987
9.5538e-05
0.0037989
0.00011105
0.0034354
0.00012517
0.0030089
0.00013479
0.0025631
0.00014601
0.001967
0.00015384
0.0015806
0.00015223
0.00089559
0.00049404
0.00015711
2.0051e-05
0.0045587
4.2362e-08
4.0165e-05
0.0044686
5.9716e-05
0.00431
7.8289e-05
0.0040802
9.5544e-05
0.0037817
0.00011104
0.0034199
0.00012521
0.0029948
0.00013479
0.0025535
0.00014584
0.001956
0.00015404
0.0015724
0.00015271
0.00089692
0.00048954
0.00015721
2.005e-05
0.0045386
4.3728e-08
4.0166e-05
0.0044485
5.9718e-05
0.0042905
7.8292e-05
0.0040616
9.555e-05
0.0037644
0.00011104
0.0034044
0.00012525
0.0029806
0.00013478
0.002544
0.00014567
0.0019451
0.0001542
0.0015638
0.00015318
0.00089794
0.00048536
0.00015736
2.005e-05
0.0045185
4.5099e-08
4.0167e-05
0.0044284
5.9721e-05
0.0042709
7.8296e-05
0.004043
9.5557e-05
0.0037472
0.00011103
0.0033889
0.00012529
0.0029663
0.00013479
0.0025345
0.00014549
0.0019344
0.00015433
0.001555
0.00015364
0.00089864
0.00048145
0.00015755
2.005e-05
0.0044984
4.6473e-08
4.0168e-05
0.0044082
5.9724e-05
0.0042514
7.8299e-05
0.0040244
9.5563e-05
0.0037299
0.00011103
0.0033735
0.00012532
0.002952
0.00013481
0.002525
0.00014531
0.0019239
0.00015442
0.0015459
0.00015407
0.00089899
0.00047775
0.00015776
2.005e-05
0.0044783
4.7852e-08
4.017e-05
0.0043881
5.9726e-05
0.0042318
7.8303e-05
0.0040059
9.557e-05
0.0037126
0.00011102
0.003358
0.00012536
0.0029377
0.00013483
0.0025155
0.00014514
0.0019136
0.00015448
0.0015365
0.00015448
0.00089899
0.00047424
0.000158
2.005e-05
0.0044582
4.9236e-08
4.0171e-05
0.004368
5.9729e-05
0.0042123
7.8306e-05
0.0039873
9.5577e-05
0.0036954
0.00011102
0.0033426
0.0001254
0.0029233
0.00013486
0.0025061
0.00014496
0.0019035
0.00015451
0.001527
0.00015487
0.00089863
0.00047086
0.00015825
2.005e-05
0.0044381
5.0624e-08
4.0172e-05
0.0043479
5.9732e-05
0.0041927
7.8309e-05
0.0039687
9.5584e-05
0.0036781
0.00011101
0.0033271
0.00012543
0.0029089
0.0001349
0.0024966
0.00014479
0.0018936
0.00015451
0.0015173
0.00015522
0.00089792
0.00046758
0.0001585
2.005e-05
0.004418
5.2017e-08
4.0173e-05
0.0043278
5.9734e-05
0.0041731
7.8313e-05
0.0039501
9.5591e-05
0.0036608
0.000111
0.0033117
0.00012547
0.0028944
0.00013495
0.0024871
0.00014463
0.0018839
0.00015448
0.0015074
0.00015555
0.00089685
0.00046437
0.00015876
2.005e-05
0.0043979
5.3414e-08
4.0175e-05
0.0043076
5.9737e-05
0.0041536
7.8316e-05
0.0039316
9.5599e-05
0.0036435
0.000111
0.0032963
0.0001255
0.0028799
0.00013501
0.0024776
0.00014447
0.0018744
0.00015443
0.0014975
0.00015585
0.00089544
0.00046121
0.00015901
2.005e-05
0.0043778
5.4817e-08
4.0176e-05
0.0042875
5.974e-05
0.004134
7.832e-05
0.003913
9.5607e-05
0.0036262
0.00011099
0.003281
0.00012553
0.0028653
0.00013507
0.002468
0.00014432
0.0018652
0.00015436
0.0014874
0.00015611
0.00089369
0.00045807
0.00015925
2.005e-05
0.0043577
5.6224e-08
4.0177e-05
0.0042674
5.9742e-05
0.0041145
7.8323e-05
0.0038944
9.5615e-05
0.0036089
0.00011098
0.0032656
0.00012556
0.0028508
0.00013514
0.0024585
0.00014418
0.0018561
0.00015427
0.0014773
0.00015634
0.00089161
0.00045494
0.00015948
2.005e-05
0.0043376
5.7636e-08
4.0179e-05
0.0042473
5.9745e-05
0.0040949
7.8327e-05
0.0038758
9.5623e-05
0.0035917
0.00011097
0.0032502
0.00012559
0.0028361
0.00013522
0.0024488
0.00014406
0.0018473
0.00015416
0.0014672
0.00015654
0.00088923
0.00045179
0.00015969
2.005e-05
0.0043175
5.9054e-08
4.018e-05
0.0042271
5.9748e-05
0.0040753
7.833e-05
0.0038572
9.5632e-05
0.0035743
0.00011097
0.0032349
0.00012561
0.0028215
0.00013531
0.0024391
0.00014394
0.0018387
0.00015404
0.0014571
0.00015672
0.00088655
0.00044862
0.00015989
2.005e-05
0.0042973
6.0477e-08
4.0181e-05
0.004207
5.9751e-05
0.0040558
7.8334e-05
0.0038386
9.5641e-05
0.003557
0.00011096
0.0032196
0.00012564
0.0028068
0.0001354
0.0024294
0.00014383
0.0018302
0.00015391
0.0014471
0.00015686
0.0008836
0.00044541
0.00016007
2.005e-05
0.0042772
6.1905e-08
4.0182e-05
0.0041869
5.9753e-05
0.0040362
7.8337e-05
0.0038201
9.565e-05
0.0035397
0.00011095
0.0032043
0.00012566
0.0027921
0.00013549
0.0024195
0.00014374
0.001822
0.00015377
0.001437
0.00015698
0.00088039
0.00044216
0.00016023
2.005e-05
0.0042571
6.3339e-08
4.0184e-05
0.0041667
5.9756e-05
0.0040166
7.8341e-05
0.0038015
9.566e-05
0.0035224
0.00011094
0.003189
0.00012568
0.0027774
0.00013559
0.0024096
0.00014366
0.0018139
0.00015362
0.0014271
0.00015707
0.00087694
0.00043885
0.00016038
2.005e-05
0.004237
6.4778e-08
4.0185e-05
0.0041466
5.9759e-05
0.003997
7.8344e-05
0.0037829
9.567e-05
0.0035051
0.00011093
0.0031737
0.00012569
0.0027626
0.0001357
0.0023996
0.0001436
0.001806
0.00015347
0.0014172
0.00015714
0.00087326
0.00043549
0.0001605
2.005e-05
0.0042169
6.6223e-08
4.0187e-05
0.0041265
5.9762e-05
0.0039775
7.8348e-05
0.0037643
9.568e-05
0.0034878
0.00011093
0.0031585
0.0001257
0.0027479
0.00013581
0.0023895
0.00014355
0.0017983
0.00015332
0.0014074
0.00015719
0.00086939
0.00043208
0.00016061
2.005e-05
0.0041968
6.7674e-08
4.0188e-05
0.0041063
5.9765e-05
0.0039579
7.8351e-05
0.0037457
9.569e-05
0.0034704
0.00011092
0.0031433
0.00012571
0.0027331
0.00013592
0.0023793
0.00014351
0.0017907
0.00015317
0.0013978
0.00015723
0.00086533
0.0004286
0.0001607
2.005e-05
0.0041766
6.9131e-08
4.0189e-05
0.0040862
5.9768e-05
0.0039383
7.8355e-05
0.0037271
9.5701e-05
0.0034531
0.00011091
0.0031281
0.00012572
0.0027183
0.00013603
0.002369
0.00014349
0.0017832
0.00015302
0.0013883
0.00015724
0.00086111
0.00042507
0.00016077
2.005e-05
0.0041565
7.0593e-08
4.0191e-05
0.004066
5.9771e-05
0.0039187
7.8358e-05
0.0037085
9.5712e-05
0.0034357
0.00011091
0.0031129
0.00012572
0.0027034
0.00013615
0.0023586
0.00014348
0.0017759
0.00015288
0.0013789
0.00015725
0.00085674
0.00042149
0.00016083
2.005e-05
0.0041364
7.2062e-08
4.0192e-05
0.0040459
5.9774e-05
0.0038991
7.8362e-05
0.00369
9.5723e-05
0.0034184
0.0001109
0.0030977
0.00012572
0.0026886
0.00013627
0.002348
0.00014349
0.0017687
0.00015274
0.0013696
0.00015724
0.00085224
0.00041785
0.00016088
2.005e-05
0.0041163
7.3537e-08
4.0193e-05
0.0040258
5.9777e-05
0.0038796
7.8365e-05
0.0036714
9.5734e-05
0.003401
0.0001109
0.0030825
0.00012572
0.0026738
0.00013638
0.0023373
0.00014351
0.0017616
0.00015261
0.0013605
0.00015722
0.00084762
0.00041416
0.00016091
2.005e-05
0.0040962
7.5019e-08
4.0195e-05
0.0040056
5.978e-05
0.00386
7.8369e-05
0.0036528
9.5746e-05
0.0033836
0.0001109
0.0030674
0.00012571
0.002659
0.0001365
0.0023266
0.00014354
0.0017545
0.00015249
0.0013516
0.00015719
0.00084292
0.00041042
0.00016093
2.005e-05
0.004076
7.6507e-08
4.0196e-05
0.0039855
5.9783e-05
0.0038404
7.8372e-05
0.0036342
9.5757e-05
0.0033662
0.00011089
0.0030522
0.0001257
0.0026442
0.00013661
0.0023157
0.00014358
0.0017475
0.00015238
0.0013428
0.00015716
0.00083813
0.00040664
0.00016094
2.005e-05
0.0040559
7.8002e-08
4.0198e-05
0.0039653
5.9786e-05
0.0038208
7.8376e-05
0.0036156
9.5769e-05
0.0033488
0.00011089
0.0030371
0.00012569
0.0026294
0.00013673
0.0023046
0.00014364
0.0017406
0.00015227
0.0013341
0.00015713
0.00083327
0.00040282
0.00016095
2.005e-05
0.0040358
7.9503e-08
4.0199e-05
0.0039452
5.9789e-05
0.0038012
7.8379e-05
0.003597
9.5781e-05
0.0033314
0.00011089
0.003022
0.00012568
0.0026146
0.00013684
0.0022935
0.00014371
0.0017338
0.00015218
0.0013257
0.00015709
0.00082836
0.00039897
0.00016094
2.005e-05
0.0040156
8.1012e-08
4.0201e-05
0.003925
5.9793e-05
0.0037816
7.8383e-05
0.0035784
9.5794e-05
0.003314
0.00011089
0.0030069
0.00012566
0.0025998
0.00013694
0.0022822
0.00014378
0.0017269
0.00015211
0.0013173
0.00015706
0.00082341
0.0003951
0.00016094
2.005e-05
0.0039955
8.2527e-08
4.0202e-05
0.0039049
5.9796e-05
0.003762
7.8386e-05
0.0035598
9.5806e-05
0.0032966
0.00011089
0.0029918
0.00012564
0.0025851
0.00013705
0.0022708
0.00014387
0.0017201
0.00015204
0.0013092
0.00015702
0.00081843
0.0003912
0.00016092
2.005e-05
0.0039754
8.405e-08
4.0203e-05
0.0038847
5.9799e-05
0.0037424
7.839e-05
0.0035412
9.5818e-05
0.0032792
0.00011089
0.0029767
0.00012562
0.0025703
0.00013715
0.0022593
0.00014396
0.0017133
0.00015199
0.0013011
0.00015699
0.00081343
0.00038728
0.00016091
2.005e-05
0.0039552
8.558e-08
4.0205e-05
0.0038646
5.9802e-05
0.0037228
7.8393e-05
0.0035227
9.5831e-05
0.0032617
0.0001109
0.0029617
0.0001256
0.0025556
0.00013724
0.0022476
0.00014407
0.0017065
0.00015194
0.0012933
0.00015696
0.00080842
0.00038335
0.00016089
2.005e-05
0.0039351
8.7118e-08
4.0207e-05
0.0038444
5.9806e-05
0.0037032
7.8397e-05
0.0035041
9.5843e-05
0.0032443
0.0001109
0.0029466
0.00012557
0.002541
0.00013733
0.0022358
0.00014417
0.0016996
0.00015191
0.0012855
0.00015693
0.0008034
0.00037941
0.00016087
2.005e-05
0.003915
8.8663e-08
4.0208e-05
0.0038242
5.9809e-05
0.0036836
7.84e-05
0.0034855
9.5856e-05
0.0032268
0.00011091
0.0029315
0.00012554
0.0025263
0.00013742
0.002224
0.00014429
0.0016927
0.0001519
0.0012779
0.00015691
0.00079839
0.00037547
0.00016085
2.005e-05
0.0038948
9.0216e-08
4.021e-05
0.0038041
5.9812e-05
0.003664
7.8404e-05
0.0034669
9.5868e-05
0.0032094
0.00011092
0.0029165
0.00012551
0.0025117
0.0001375
0.002212
0.00014441
0.0016858
0.00015189
0.0012704
0.00015689
0.00079338
0.00037153
0.00016083
2.0049e-05
0.0038747
9.1777e-08
4.0211e-05
0.0037839
5.9816e-05
0.0036444
7.8407e-05
0.0034483
9.5881e-05
0.0031919
0.00011093
0.0029014
0.00012548
0.0024972
0.00013757
0.0021999
0.00014453
0.0016789
0.00015189
0.0012631
0.00015688
0.00078839
0.00036759
0.00016082
2.0049e-05
0.0038545
9.3346e-08
4.0213e-05
0.0037638
5.9819e-05
0.0036248
7.8411e-05
0.0034297
9.5893e-05
0.0031744
0.00011094
0.0028864
0.00012545
0.0024827
0.00013764
0.0021877
0.00014465
0.0016719
0.00015191
0.0012558
0.00015688
0.00078343
0.00036367
0.0001608
2.0049e-05
0.0038344
9.4923e-08
4.0214e-05
0.0037436
5.9823e-05
0.0036052
7.8414e-05
0.0034111
9.5906e-05
0.0031569
0.00011095
0.0028714
0.00012542
0.0024682
0.00013771
0.0021754
0.00014478
0.0016648
0.00015193
0.0012486
0.00015688
0.00077848
0.00035976
0.00016079
2.0049e-05
0.0038143
9.6509e-08
4.0216e-05
0.0037234
5.9826e-05
0.0035856
7.8418e-05
0.0033925
9.5918e-05
0.0031394
0.00011097
0.0028563
0.00012539
0.0024538
0.00013776
0.002163
0.0001449
0.0016577
0.00015197
0.0012416
0.00015689
0.00077356
0.00035587
0.00016078
2.0049e-05
0.0037941
9.8103e-08
4.0218e-05
0.0037033
5.983e-05
0.003566
7.8422e-05
0.0033739
9.593e-05
0.0031219
0.00011098
0.0028413
0.00012536
0.0024394
0.00013782
0.0021506
0.00014503
0.0016505
0.00015201
0.0012346
0.0001569
0.00076867
0.000352
0.00016077
2.0049e-05
0.003774
9.9706e-08
4.0219e-05
0.0036831
5.9833e-05
0.0035464
7.8425e-05
0.0033553
9.5943e-05
0.0031044
0.000111
0.0028262
0.00012532
0.0024251
0.00013786
0.002138
0.00014515
0.0016432
0.00015206
0.0012277
0.00015692
0.0007638
0.00034816
0.00016076
2.0049e-05
0.0037538
1.0132e-07
4.0221e-05
0.0036629
5.9837e-05
0.0035268
7.8429e-05
0.0033367
9.5954e-05
0.0030869
0.00011102
0.0028111
0.00012529
0.0024108
0.0001379
0.0021254
0.00014528
0.0016358
0.00015211
0.0012209
0.00015694
0.00075897
0.00034434
0.00016076
2.0049e-05
0.0037337
1.0294e-07
4.0222e-05
0.0036427
5.9841e-05
0.0035071
7.8433e-05
0.0033181
9.5966e-05
0.0030693
0.00011104
0.0027961
0.00012526
0.0023966
0.00013794
0.0021128
0.0001454
0.0016283
0.00015217
0.0012141
0.00015697
0.00075417
0.00034055
0.00016076
2.0049e-05
0.0037135
1.0457e-07
4.0224e-05
0.0036226
5.9845e-05
0.0034875
7.8437e-05
0.0032996
9.5978e-05
0.0030518
0.00011106
0.002781
0.00012523
0.0023824
0.00013797
0.0021
0.00014552
0.0016208
0.00015224
0.0012074
0.00015701
0.0007494
0.0003368
0.00016077
2.0049e-05
0.0036933
1.0621e-07
4.0226e-05
0.0036024
5.9848e-05
0.0034679
7.8441e-05
0.003281
9.5989e-05
0.0030342
0.00011108
0.0027659
0.0001252
0.0023683
0.00013799
0.0020872
0.00014564
0.0016131
0.00015231
0.0012007
0.00015705
0.00074466
0.00033307
0.00016077
2.0049e-05
0.0036732
1.0786e-07
4.0228e-05
0.0035822
5.9852e-05
0.0034483
7.8445e-05
0.0032624
9.6e-05
0.0030167
0.0001111
0.0027508
0.00012517
0.0023542
0.00013801
0.0020744
0.00014575
0.0016054
0.00015239
0.0011941
0.0001571
0.00073995
0.00032939
0.00016078
2.0049e-05
0.003653
1.0952e-07
4.0229e-05
0.003562
5.9856e-05
0.0034286
7.8449e-05
0.0032438
9.6011e-05
0.0029991
0.00011113
0.0027357
0.00012514
0.0023402
0.00013802
0.0020615
0.00014586
0.0015975
0.00015246
0.0011875
0.00015715
0.00073527
0.00032574
0.0001608
2.005e-05
0.0036329
1.1119e-07
4.0231e-05
0.0035418
5.986e-05
0.003409
7.8453e-05
0.0032252
9.6022e-05
0.0029816
0.00011115
0.0027205
0.00012511
0.0023263
0.00013803
0.0020486
0.00014597
0.0015896
0.00015254
0.0011809
0.0001572
0.00073061
0.00032212
0.00016081
2.005e-05
0.0036127
1.1287e-07
4.0233e-05
0.0035217
5.9864e-05
0.0033894
7.8457e-05
0.0032066
9.6032e-05
0.002964
0.00011118
0.0027054
0.00012509
0.0023124
0.00013804
0.0020356
0.00014607
0.0015816
0.00015263
0.0011743
0.00015725
0.00072598
0.00031855
0.00016083
2.005e-05
0.0035925
1.1456e-07
4.0235e-05
0.0035015
5.9868e-05
0.0033697
7.8462e-05
0.003188
9.6042e-05
0.0029464
0.00011121
0.0026902
0.00012506
0.0022985
0.00013804
0.0020226
0.00014616
0.0015735
0.00015271
0.0011678
0.00015731
0.00072138
0.00031501
0.00016085
2.005e-05
0.0035724
1.1626e-07
4.0237e-05
0.0034813
5.9872e-05
0.0033501
7.8466e-05
0.0031694
9.6052e-05
0.0029288
0.00011124
0.002675
0.00012504
0.0022847
0.00013804
0.0020096
0.00014626
0.0015652
0.00015279
0.0011612
0.00015738
0.0007168
0.00031151
0.00016087
2.005e-05
0.0035522
1.1798e-07
4.0238e-05
0.0034611
5.9876e-05
0.0033305
7.8471e-05
0.0031508
9.6061e-05
0.0029112
0.00011127
0.0026598
0.00012502
0.002271
0.00013804
0.0019966
0.00014634
0.0015569
0.00015288
0.0011547
0.00015744
0.00071224
0.00030806
0.0001609
2.005e-05
0.003532
1.197e-07
4.024e-05
0.0034409
5.988e-05
0.0033108
7.8475e-05
0.0031322
9.6071e-05
0.0028936
0.0001113
0.0026446
0.000125
0.0022573
0.00013803
0.0019836
0.00014643
0.0015485
0.00015296
0.0011482
0.00015751
0.0007077
0.00030464
0.00016092
2.005e-05
0.0035119
1.2144e-07
4.0242e-05
0.0034207
5.9884e-05
0.0032912
7.848e-05
0.0031136
9.608e-05
0.002876
0.00011133
0.0026294
0.00012499
0.0022436
0.00013802
0.0019705
0.00014651
0.0015401
0.00015305
0.0011416
0.00015757
0.00070317
0.00030126
0.00016095
2.005e-05
0.0034917
1.2318e-07
4.0244e-05
0.0034005
5.9888e-05
0.0032715
7.8485e-05
0.003095
9.6088e-05
0.0028584
0.00011136
0.0026141
0.00012498
0.00223
0.00013801
0.0019575
0.00014658
0.0015315
0.00015313
0.0011351
0.00015764
0.00069866
0.00029792
0.00016098
2.005e-05
0.0034715
1.2494e-07
4.0246e-05
0.0033803
5.9893e-05
0.0032519
7.849e-05
0.0030764
9.6097e-05
0.0028408
0.00011139
0.0025988
0.00012497
0.0022164
0.000138
0.0019445
0.00014665
0.0015228
0.00015321
0.0011285
0.00015771
0.00069416
0.00029462
0.00016101
2.005e-05
0.0034513
1.2671e-07
4.0248e-05
0.0033601
5.9897e-05
0.0032323
7.8495e-05
0.0030578
9.6105e-05
0.0028232
0.00011142
0.0025835
0.00012496
0.0022029
0.00013799
0.0019314
0.00014671
0.0015141
0.00015329
0.0011219
0.00015778
0.00068968
0.00029135
0.00016104
2.005e-05
0.0034312
1.285e-07
4.025e-05
0.0033399
5.9901e-05
0.0032126
7.85e-05
0.0030392
9.6113e-05
0.0028056
0.00011146
0.0025681
0.00012495
0.0021894
0.00013797
0.0019184
0.00014678
0.0015053
0.00015337
0.0011153
0.00015785
0.0006852
0.00028812
0.00016108
2.005e-05
0.003411
1.3029e-07
4.0252e-05
0.0033197
5.9906e-05
0.0031929
7.8506e-05
0.0030206
9.6121e-05
0.002788
0.00011149
0.0025528
0.00012495
0.0021759
0.00013796
0.0019054
0.00014683
0.0014964
0.00015345
0.0011087
0.00015792
0.00068074
0.00028493
0.00016111
2.005e-05
0.0033908
1.321e-07
4.0254e-05
0.0032995
5.991e-05
0.0031733
7.8511e-05
0.003002
9.6128e-05
0.0027704
0.00011152
0.0025374
0.00012495
0.0021625
0.00013794
0.0018924
0.00014689
0.0014875
0.00015353
0.0011021
0.00015799
0.00067627
0.00028178
0.00016115
2.005e-05
0.0033706
1.3393e-07
4.0256e-05
0.0032793
5.9915e-05
0.0031536
7.8517e-05
0.0029834
9.6136e-05
0.0027527
0.00011156
0.002522
0.00012495
0.0021491
0.00013793
0.0018794
0.00014694
0.0014785
0.0001536
0.0010954
0.00015806
0.00067182
0.00027866
0.00016118
2.005e-05
0.0033504
1.3576e-07
4.0258e-05
0.0032591
5.9919e-05
0.003134
7.8523e-05
0.0029648
9.6143e-05
0.0027351
0.00011159
0.0025065
0.00012495
0.0021357
0.00013791
0.0018665
0.00014698
0.0014694
0.00015368
0.0010887
0.00015813
0.00066736
0.00027557
0.00016122
2.005e-05
0.0033302
1.3761e-07
4.0261e-05
0.0032389
5.9924e-05
0.0031143
7.8528e-05
0.0029462
9.615e-05
0.0027175
0.00011162
0.002491
0.00012496
0.0021224
0.0001379
0.0018535
0.00014703
0.0014603
0.00015375
0.001082
0.0001582
0.00066291
0.00027252
0.00016125
2.005e-05
0.0033101
1.3948e-07
4.0263e-05
0.0032187
5.9929e-05
0.0030946
7.8535e-05
0.0029276
9.6156e-05
0.0026999
0.00011166
0.0024755
0.00012497
0.0021091
0.00013788
0.0018406
0.00014707
0.0014511
0.00015381
0.0010753
0.00015827
0.00065845
0.0002695
0.00016129
2.005e-05
0.0032899
1.4136e-07
4.0265e-05
0.0031985
5.9933e-05
0.003075
7.8541e-05
0.002909
9.6163e-05
0.0026823
0.00011169
0.00246
0.00012498
0.0020958
0.00013787
0.0018277
0.00014711
0.0014419
0.00015388
0.0010685
0.00015834
0.000654
0.00026651
0.00016133
2.005e-05
0.0032697
1.4325e-07
4.0267e-05
0.0031783
5.9938e-05
0.0030553
7.8547e-05
0.0028904
9.6169e-05
0.0026646
0.00011172
0.0024444
0.00012499
0.0020826
0.00013786
0.0018149
0.00014714
0.0014326
0.00015395
0.0010617
0.0001584
0.00064954
0.00026355
0.00016136
2.005e-05
0.0032495
1.4516e-07
4.0269e-05
0.003158
5.9943e-05
0.0030356
7.8553e-05
0.0028718
9.6176e-05
0.002647
0.00011176
0.0024289
0.000125
0.0020693
0.00013784
0.001802
0.00014718
0.0014233
0.00015401
0.0010548
0.00015847
0.00064508
0.00026062
0.0001614
2.005e-05
0.0032293
1.4709e-07
4.0272e-05
0.0031378
5.9948e-05
0.003016
7.856e-05
0.0028532
9.6182e-05
0.0026294
0.00011179
0.0024133
0.00012502
0.0020561
0.00013783
0.0017892
0.00014721
0.0014139
0.00015407
0.001048
0.00015854
0.00064062
0.00025772
0.00016144
2.0051e-05
0.0032091
1.4903e-07
4.0274e-05
0.0031176
5.9953e-05
0.0029963
7.8567e-05
0.0028346
9.6188e-05
0.0026118
0.00011182
0.0023976
0.00012503
0.0020429
0.00013782
0.0017764
0.00014724
0.0014045
0.00015413
0.0010411
0.0001586
0.00063615
0.00025485
0.00016148
2.0051e-05
0.0031889
1.5098e-07
4.0276e-05
0.0030974
5.9958e-05
0.0029766
7.8574e-05
0.0028159
9.6194e-05
0.0025942
0.00011185
0.002382
0.00012505
0.0020297
0.00013781
0.0017636
0.00014727
0.001395
0.00015419
0.0010342
0.00015867
0.00063167
0.000252
0.00016151
2.0051e-05
0.0031687
1.5296e-07
4.0279e-05
0.0030771
5.9963e-05
0.0029569
7.8581e-05
0.0027973
9.62e-05
0.0025765
0.00011189
0.0023663
0.00012507
0.0020165
0.00013781
0.0017509
0.00014729
0.0013855
0.00015425
0.0010272
0.00015873
0.00062719
0.00024918
0.00016155
2.0051e-05
0.0031485
1.5495e-07
4.0281e-05
0.0030569
5.9968e-05
0.0029372
7.8588e-05
0.0027787
9.6206e-05
0.0025589
0.00011192
0.0023506
0.00012509
0.0020033
0.0001378
0.0017382
0.00014732
0.001376
0.0001543
0.0010202
0.00015879
0.00062269
0.00024638
0.00016159
2.0051e-05
0.0031283
1.5695e-07
4.0283e-05
0.0030367
5.9973e-05
0.0029175
7.8595e-05
0.0027601
9.6212e-05
0.0025413
0.00011195
0.0023348
0.00012512
0.0019901
0.0001378
0.0017255
0.00014735
0.0013665
0.00015435
0.0010132
0.00015885
0.0006182
0.00024361
0.00016163
2.0051e-05
0.003108
1.5898e-07
4.0286e-05
0.0030164
5.9978e-05
0.0028978
7.8602e-05
0.0027415
9.6218e-05
0.0025237
0.00011198
0.0023191
0.00012514
0.001977
0.00013779
0.0017129
0.00014737
0.0013569
0.00015441
0.0010062
0.00015891
0.00061369
0.00024086
0.00016166
2.0051e-05
0.0030878
1.6102e-07
4.0288e-05
0.0029962
5.9983e-05
0.0028781
7.861e-05
0.0027228
9.6224e-05
0.0025061
0.00011201
0.0023033
0.00012517
0.0019638
0.00013779
0.0017003
0.00014739
0.0013473
0.00015446
0.00099912
0.00015897
0.00060917
0.00023813
0.0001617
2.0051e-05
0.0030676
1.6308e-07
4.0291e-05
0.002976
5.9989e-05
0.0028584
7.8617e-05
0.0027042
9.623e-05
0.0024885
0.00011204
0.0022875
0.0001252
0.0019507
0.00013779
0.0016877
0.00014742
0.0013377
0.00015451
0.00099202
0.00015903
0.00060465
0.00023542
0.00016174
2.0052e-05
0.0030474
1.6516e-07
4.0293e-05
0.0029557
5.9994e-05
0.0028387
7.8625e-05
0.0026856
9.6236e-05
0.0024708
0.00011207
0.0022716
0.00012522
0.0019375
0.00013779
0.0016751
0.00014744
0.001328
0.00015456
0.00098491
0.00015909
0.00060011
0.00023274
0.00016178
2.0052e-05
0.0030272
1.6726e-07
4.0296e-05
0.0029355
6e-05
0.002819
7.8633e-05
0.0026669
9.6242e-05
0.0024532
0.0001121
0.0022558
0.00012525
0.0019244
0.00013779
0.0016626
0.00014746
0.0013183
0.0001546
0.00097776
0.00015915
0.00059557
0.00023007
0.00016182
2.0052e-05
0.003007
1.6937e-07
4.0298e-05
0.0029152
6.0005e-05
0.0027993
7.8641e-05
0.0026483
9.6248e-05
0.0024356
0.00011213
0.0022399
0.00012528
0.0019112
0.0001378
0.00165
0.00014748
0.0013087
0.00015465
0.00097059
0.00015921
0.00059101
0.00022742
0.00016185
2.0052e-05
0.0029867
1.7151e-07
4.0301e-05
0.002895
6.0011e-05
0.0027796
7.8649e-05
0.0026297
9.6254e-05
0.002418
0.00011216
0.002224
0.00012531
0.0018981
0.0001378
0.0016376
0.0001475
0.001299
0.0001547
0.0009634
0.00015926
0.00058645
0.00022479
0.00016189
2.0052e-05
0.0029665
1.7367e-07
4.0304e-05
0.0028747
6.0017e-05
0.0027599
7.8658e-05
0.002611
9.626e-05
0.0024004
0.00011219
0.002208
0.00012535
0.0018849
0.00013781
0.0016251
0.00014753
0.0012892
0.00015474
0.00095618
0.00015932
0.00058187
0.00022218