/*--------------------------------*- C++ -*----------------------------------*\
  =========                 |
  \\      /  F ield         | OpenFOAM: The Open Source CFD Toolbox
   \\    /   O peration     | Website:  https://openfoam.org
    \\  /    A nd           | Version:  6.0
     \\/     M anipulation  |
\*---------------------------------------------------------------------------*/
FoamFile
{
    version     2.0;
    format      ascii;
    class       surfaceScalarField;
    location    "20";
    object      phi;
}
// * * * * * * * * * * * * * * * * * * * * * * * * * * * * * * * * * * * * * //

dimensions      [0 3 -1 0 0 0 0];

internalField   nonuniform List<scalar> 
68636
(
3.72404e-05
0.00309863
-2.59499e-08
7.49004e-05
0.0030638
0.000112122
0.00299581
0.000148314
0.00289494
0.000182987
0.0027622
0.000215685
0.00259917
0.000246038
0.00240766
0.000273688
0.00218982
0.000298324
0.00194809
0.000319658
0.00168524
0.000337451
0.00140399
0.000351508
0.00110722
0.000361752
0.000798271
0.000367872
0.000480103
0.000150558
0.000365258
3.6784e-05
0.00306188
-2.66199e-08
7.39906e-05
0.00302661
0.000110782
0.00295904
0.00014656
0.00285919
0.00018083
0.00272798
0.00021314
0.00256692
0.000243132
0.00237773
0.000270453
0.00216256
0.000294794
0.00192383
0.00031587
0.00166423
0.00033345
0.00138649
0.000347323
0.00109343
0.00035753
0.000788163
0.00036314
0.00047462
0.000152274
0.000361649
3.63325e-05
0.00302557
-1.77414e-08
7.31032e-05
0.00298984
0.000109473
0.00292268
0.000144838
0.00282384
0.000178704
0.00269413
0.00021063
0.00253499
0.000240264
0.00234812
0.000267258
0.00213557
0.000291307
0.00189979
0.000312127
0.0016434
0.000329496
0.00136912
0.000343188
0.00107973
0.000353245
0.000778092
0.000359073
0.000468765
0.000152489
0.000358758
3.58914e-05
0.00298969
-6.88618e-09
7.22378e-05
0.0029535
0.00010819
0.00288674
0.00014314
0.0027889
0.000176603
0.0026607
0.000208148
0.00250348
0.00023743
0.00231887
0.0002641
0.00210894
0.000287858
0.00187608
0.000308423
0.00162288
0.000325583
0.00135202
0.000339101
0.00106626
0.000348974
0.000768289
0.000354838
0.000462994
0.000152412
0.000355075
3.54616e-05
0.00295422
9.29337e-09
7.13908e-05
0.00291757
0.000106925
0.00285121
0.00014146
0.00275437
0.000174522
0.00262765
0.000205694
0.0024723
0.000234628
0.00228994
0.000260978
0.00208258
0.000284447
0.00185261
0.000304761
0.00160255
0.000321712
0.00133505
0.000335065
0.00105289
0.000344758
0.000758575
0.000350553
0.000457162
0.000151618
0.000351234
3.50418e-05
0.00291915
2.47815e-08
7.05581e-05
0.00288206
0.000105676
0.0028161
0.000139797
0.00272026
0.000172463
0.002595
0.000203266
0.00244151
0.000231857
0.00226138
0.000257893
0.00205657
0.000281077
0.00182946
0.000301143
0.00158252
0.000317888
0.00131835
0.000331083
0.00103974
0.000340613
0.000749102
0.000346335
0.000451514
0.000150713
0.00034737
3.46303e-05
0.00288449
3.62728e-08
6.97364e-05
0.00284696
0.000104438
0.00278141
0.000138149
0.00268655
0.000170425
0.00256273
0.000200864
0.00241107
0.000229117
0.00223312
0.000254842
0.00203083
0.000277746
0.00180655
0.000297568
0.00156268
0.00031411
0.00130179
0.000327152
0.00102668
0.00033654
0.000739689
0.000342187
0.000445827
0.000149367
0.000343417
3.42253e-05
0.00285022
4.34945e-08
6.89234e-05
0.00281227
0.000103213
0.00274712
0.000136518
0.00265325
0.000168408
0.00253085
0.000198487
0.002381
0.000226407
0.00220522
0.000251823
0.00200544
0.000274451
0.00178395
0.000294034
0.00154313
0.000310375
0.00128549
0.000323267
0.00101383
0.00033253
0.000730475
0.0003381
0.000440323
0.000148143
0.000339437
3.38254e-05
0.00281636
4.26352e-08
6.81173e-05
0.00277797
0.000101998
0.00271325
0.000134904
0.00262034
0.000166414
0.00249935
0.000196138
0.00235127
0.000223725
0.00217763
0.000248837
0.00198032
0.000271192
0.00176159
0.000290539
0.00152377
0.000306683
0.00126933
0.000319425
0.00100106
0.000328576
0.000721298
0.000334079
0.000434778
0.000146593
0.000335515
3.34293e-05
0.0027829
3.51136e-08
6.73175e-05
0.00274409
0.000100795
0.00267977
0.000133308
0.00258784
0.000164444
0.00246822
0.000193815
0.00232191
0.000221073
0.00215039
0.000245882
0.00195553
0.000267968
0.00173953
0.000287082
0.00150468
0.000303032
0.00125341
0.000315626
0.000988503
0.000324671
0.000712298
0.000330118
0.000429389
0.000145137
0.000331674
3.30365e-05
0.00274984
2.30069e-08
6.65236e-05
0.0027106
9.96029e-05
0.0026467
0.000131731
0.00255571
0.000162498
0.00243746
0.00019152
0.00229288
0.000218451
0.00212346
0.000242961
0.00193101
0.00026478
0.0017177
0.000283666
0.00148578
0.000299425
0.00123763
0.000311873
0.000976034
0.000320813
0.000703331
0.00032621
0.000423949
0.000143347
0.000327888
3.26468e-05
0.00271718
9.23001e-09
6.57361e-05
0.00267752
9.8423e-05
0.00261402
0.000130171
0.00252397
0.000160576
0.00240706
0.000189252
0.00226422
0.000215859
0.00209687
0.000240074
0.00190681
0.000261631
0.00169616
0.000280292
0.00146714
0.000295864
0.00122209
0.000308166
0.000963764
0.000317004
0.000694534
0.000322347
0.00041866
0.000141665
0.000324123
3.22602e-05
0.00268493
-1.55842e-09
6.49558e-05
0.00264482
9.72557e-05
0.00258172
0.000128631
0.00249259
0.000158676
0.00237702
0.000187012
0.00223587
0.000213298
0.00207058
0.00023722
0.00188288
0.000258519
0.00167485
0.00027696
0.00144868
0.000292348
0.00120668
0.000304508
0.000951583
0.000313245
0.000685769
0.00031853
0.000413331
0.000139726
0.00032036
3.18771e-05
0.00265306
-6.93652e-09
6.41836e-05
0.00261252
9.61016e-05
0.0025498
0.000127108
0.00246159
0.000156799
0.00234734
0.000184796
0.00220789
0.000210766
0.00204462
0.000234401
0.00185926
0.000255445
0.00165383
0.000273669
0.00143048
0.000288877
0.0011915
0.000300896
0.000939594
0.000309536
0.000677167
0.000314757
0.000408159
0.000137971
0.0003166
3.14979e-05
0.00262157
-5.53892e-09
6.34202e-05
0.0025806
9.4961e-05
0.00251826
0.000125603
0.00243095
0.000154943
0.002318
0.000182605
0.00218022
0.000208263
0.00201896
0.000231614
0.0018359
0.000252409
0.00163303
0.000270419
0.00141245
0.00028545
0.00117645
0.000297332
0.00092769
0.000305877
0.000668594
0.000311032
0.000402958
0.00013604
0.000312854
3.11228e-05
0.00259045
2.13995e-09
6.2666e-05
0.00254906
9.38339e-05
0.0024871
0.000124114
0.00240067
0.000153107
0.00228901
0.000180438
0.00215289
0.000205787
0.00199362
0.000228859
0.00181284
0.000249408
0.00161249
0.000267209
0.00139467
0.000282067
0.00116162
0.000293813
0.000915973
0.000302265
0.000660178
0.000307355
0.000397914
0.000134339
0.00030914
3.07522e-05
0.00255968
1.36058e-08
6.19211e-05
0.00251789
9.27204e-05
0.0024563
0.000122643
0.00237075
0.00015129
0.00226037
0.000178294
0.00212588
0.000203339
0.00196857
0.000226136
0.00179003
0.000246444
0.00159218
0.000264039
0.00137706
0.000278726
0.00114692
0.000290338
0.000904338
0.0002987
0.000651788
0.000303728
0.000392839
0.000132493
0.000305468
3.03861e-05
0.00252927
2.62449e-08
6.11856e-05
0.0024871
9.162e-05
0.00242587
0.000121188
0.00234119
0.000149493
0.00223207
0.000176173
0.00209921
0.000200918
0.00194384
0.000223445
0.00176752
0.000243516
0.00157212
0.000260909
0.00135969
0.000275427
0.00113242
0.000286908
0.000892885
0.000295179
0.000643551
0.000300149
0.000387912
0.000130874
0.000301848
3.00245e-05
0.00249921
3.71338e-08
6.0459e-05
0.00245666
9.05323e-05
0.0023958
0.000119748
0.00231197
0.000147715
0.0022041
0.000174075
0.00207284
0.000198524
0.00191938
0.000220787
0.00174524
0.000240624
0.00155227
0.000257817
0.00134248
0.000272171
0.00111805
0.000283521
0.000881512
0.000291703
0.000635341
0.000296618
0.00038295
0.000129105
0.000298283
2.96674e-05
0.0024695
4.41901e-08
5.97411e-05
0.00242659
8.9457e-05
0.00236609
0.000118324
0.00228311
0.000145956
0.00217648
0.000172
0.00204681
0.000196159
0.00189523
0.000218161
0.00172326
0.000237769
0.00153268
0.000254765
0.0013255
0.000268955
0.00110388
0.000280176
0.000870317
0.000288269
0.000627281
0.000293133
0.000378127
0.000127541
0.000294774
2.93146e-05
0.00244014
4.64333e-08
5.90316e-05
0.00239687
8.83938e-05
0.00233672
0.000116916
0.00225458
0.000144216
0.00214917
0.00016995
0.00202107
0.000193823
0.00187135
0.000215568
0.0017015
0.00023495
0.00151329
0.000251752
0.00130869
0.000265781
0.00108983
0.000276874
0.000859202
0.000284878
0.000619249
0.000289693
0.000373265
0.000125817
0.000291315
2.89661e-05
0.00241113
4.38387e-08
5.833e-05
0.00236752
8.73423e-05
0.00230772
0.000115523
0.0022264
0.000142497
0.00212221
0.000167924
0.00199565
0.000191516
0.00184777
0.000213008
0.00168002
0.000232168
0.00149414
0.000248779
0.00129209
0.000262648
0.00107599
0.000273614
0.00084826
0.000281529
0.000611365
0.000286296
0.000368538
0.00012428
0.000287906
2.86216e-05
0.00238247
3.74515e-08
5.76363e-05
0.0023385
8.63025e-05
0.00227905
0.000114146
0.00219856
0.000140798
0.00209556
0.000165923
0.00197052
0.000189239
0.00182445
0.000210483
0.00165877
0.000229423
0.00147519
0.000245844
0.00127566
0.000259555
0.00106226
0.000270396
0.000837397
0.000278222
0.00060351
0.00028294
0.000363771
0.000122579
0.000284541
2.82811e-05
0.00235417
2.88708e-08
5.69503e-05
0.00230983
8.52744e-05
0.00225073
0.000112786
0.00217105
0.000139119
0.00206923
0.000163948
0.00194569
0.000186991
0.00180141
0.00020799
0.00163778
0.000226714
0.00145648
0.000242948
0.00125944
0.000256502
0.00104872
0.000267218
0.000826705
0.000274956
0.000595803
0.000279626
0.000359139
0.000121058
0.000281218
2.79444e-05
0.0023262
1.99367e-08
5.62719e-05
0.00228151
8.4258e-05
0.00222274
0.000111441
0.00214387
0.000137462
0.00204321
0.000161998
0.00192115
0.000184774
0.00177863
0.000205532
0.00161701
0.000224041
0.00143796
0.00024009
0.00124338
0.000253489
0.00103531
0.000264081
0.000816091
0.00027173
0.000588126
0.000276351
0.00035447
0.000119379
0.000277933
2.76116e-05
0.00229858
1.23668e-08
5.56013e-05
0.00225352
8.32537e-05
0.00219509
0.000110113
0.00211701
0.000135825
0.0020175
0.000160075
0.00189691
0.000182587
0.00175613
0.000203106
0.0015965
0.000221404
0.00141968
0.000237269
0.00122753
0.000250514
0.00102208
0.000260983
0.000805646
0.000268543
0.000580595
0.000273114
0.000349934
0.000117878
0.000274684
2.72825e-05
0.00227129
7.39513e-09
5.49385e-05
0.00222586
8.22615e-05
0.00216777
0.000108802
0.00209047
0.000134211
0.00199209
0.000158178
0.00187294
0.000180429
0.00173387
0.000200714
0.00157621
0.000218802
0.00140158
0.000234485
0.00121183
0.000247576
0.00100897
0.000257923
0.000795278
0.000265395
0.000573094
0.000269916
0.000345366
0.000116228
0.000271471
2.69572e-05
0.00224433
5.69476e-09
5.42837e-05
0.00219854
8.12818e-05
0.00214078
0.000107508
0.00206425
0.000132618
0.00196698
0.000156306
0.00184926
0.000178301
0.00171188
0.000198353
0.00155617
0.000216233
0.00138371
0.000231736
0.00119634
0.000244676
0.000996051
0.000254901
0.000785075
0.000262285
0.000565738
0.000266754
0.000340932
0.000114757
0.000268291
2.66358e-05
0.00221768
7.30577e-09
5.3637e-05
0.00217154
8.03146e-05
0.0021141
0.000106231
0.00203833
0.000131047
0.00194216
0.00015446
0.00182584
0.000176202
0.00169014
0.000196023
0.00153634
0.000213698
0.00136603
0.000229022
0.00118101
0.00024181
0.000983246
0.000251915
0.000774949
0.000259212
0.000558413
0.000263628
0.000336468
0.000113149
0.000265145
2.63182e-05
0.00219136
1.17769e-08
5.29986e-05
0.00214486
7.93602e-05
0.00208774
0.000104971
0.00201273
0.000129497
0.00191764
0.000152639
0.0018027
0.00017413
0.00166865
0.000193724
0.00151676
0.000211196
0.00134857
0.000226341
0.00116588
0.00023898
0.000970625
0.000248965
0.000764986
0.000256175
0.000551231
0.000260538
0.000332138
0.000111717
0.000262033
2.60045e-05
0.00216533
1.83237e-08
5.23684e-05
0.0021185
7.84185e-05
0.00206169
0.000103728
0.00198741
0.000127969
0.0018934
0.000150843
0.00177982
0.000172087
0.0016474
0.000191455
0.00149738
0.000208724
0.00133129
0.000223693
0.00115089
0.000236183
0.000958118
0.000246049
0.000755099
0.000253173
0.00054408
0.000257482
0.00032778
0.000110144
0.000258953
2.56948e-05
0.00213962
2.6029e-08
5.17467e-05
0.00209245
7.74896e-05
0.00203595
0.000102503
0.0019624
0.000126461
0.00186945
0.000149071
0.00175722
0.000170069
0.00162641
0.000189214
0.00147824
0.000206282
0.00131423
0.000221076
0.00113612
0.000233419
0.000945793
0.000243167
0.000745373
0.000250204
0.00053707
0.000254461
0.000323557
0.000108758
0.000255907
2.53891e-05
0.00211419
3.40093e-08
5.11333e-05
0.0020667
7.65733e-05
0.00201051
0.000101294
0.00193768
0.000124974
0.00184577
0.000147322
0.00173487
0.000168078
0.00160565
0.000187001
0.00145931
0.00020387
0.00129735
0.00021849
0.00112148
0.000230687
0.00093358
0.000240318
0.000735722
0.000247269
0.000530091
0.000251473
0.000319305
0.000107232
0.000252893
2.50873e-05
0.00208907
4.15412e-08
5.05282e-05
0.00204127
7.56694e-05
0.00198537
0.000100101
0.00191326
0.000123506
0.00182237
0.000145595
0.00171278
0.000166111
0.00158514
0.000184814
0.00144062
0.000201487
0.00128069
0.000215934
0.00110705
0.000227986
0.000921546
0.0002375
0.000726228
0.000244367
0.00052325
0.000248517
0.000315186
0.000105898
0.000249913
2.47896e-05
0.00206423
4.81137e-08
4.99312e-05
0.00201612
7.47778e-05
0.00196052
9.89245e-05
0.00188911
0.000122057
0.00179923
0.00014389
0.00169095
0.000164168
0.00156486
0.000182654
0.00142213
0.00019913
0.00126421
0.000213407
0.00109276
0.000225315
0.000909622
0.000234714
0.000716808
0.000241497
0.00051644
0.000245594
0.000311041
0.000104412
0.000246965
2.44958e-05
0.00203968
5.34542e-08
4.93423e-05
0.00199128
7.3898e-05
0.00193597
9.77632e-05
0.00186525
0.000120627
0.00177637
0.000142207
0.00166937
0.000162249
0.00154482
0.000180518
0.00140387
0.000196801
0.00124794
0.000210908
0.00107867
0.000222673
0.000897874
0.000231959
0.000707543
0.000238659
0.000509766
0.000242703
0.000307027
0.000103131
0.000244051
2.4206e-05
0.00201542
5.74799e-08
4.87611e-05
0.00196672
7.30297e-05
0.0019117
9.66168e-05
0.00184166
0.000119215
0.00175377
0.000140544
0.00164804
0.000160352
0.00152501
0.000178407
0.0013858
0.000194498
0.00123184
0.000208437
0.00106472
0.000220061
0.000886234
0.000229234
0.000698349
0.000235851
0.000503122
0.000239844
0.000302985
0.000101689
0.00024117
2.39199e-05
0.00199144
6.02698e-08
4.81875e-05
0.00194246
7.21726e-05
0.00188772
9.54848e-05
0.00181835
0.00011782
0.00173144
0.0001389
0.00162696
0.000158477
0.00150544
0.00017632
0.00136797
0.00019222
0.00121595
0.000205993
0.00105096
0.000217477
0.000874767
0.000226539
0.000689308
0.000233074
0.000496611
0.000237015
0.000299074
0.000100458
0.000238321
2.36376e-05
0.00196774
6.19835e-08
4.76213e-05
0.00191847
7.13263e-05
0.00186401
9.43667e-05
0.00179531
0.000116441
0.00170937
0.000137276
0.00160613
0.000156623
0.00148609
0.000174256
0.00135033
0.000189967
0.00120023
0.000203576
0.00103734
0.000214921
0.000863406
0.000223873
0.000680336
0.000230328
0.00049013
0.000234218
0.000295134
9.90633e-05
0.000235503
2.33589e-05
0.00194432
6.28364e-08
4.70622e-05
0.00189478
7.04904e-05
0.00184059
9.3262e-05
0.00177254
0.000115079
0.00168755
0.00013567
0.00158554
0.00015479
0.00146697
0.000172214
0.00133292
0.000187739
0.00118471
0.000201184
0.00102391
0.000212394
0.000852214
0.000221236
0.000671513
0.000227612
0.000483779
0.000231451
0.000291324
9.78796e-05
0.000232717
2.30838e-05
0.00192117
6.30345e-08
4.651e-05
0.00187135
6.96645e-05
0.00181743
9.21703e-05
0.00175003
0.000113732
0.00166599
0.000134081
0.00156519
0.000152976
0.00144807
0.000170195
0.00131569
0.000185535
0.00116936
0.000198819
0.00101061
0.000209893
0.000841124
0.000218628
0.000662758
0.000224925
0.000477455
0.000228715
0.000287485
9.65358e-05
0.00022996
2.2812e-05
0.0018983
6.27758e-08
4.59644e-05
0.0018482
6.88484e-05
0.00179455
9.10911e-05
0.00172779
0.0001124
0.00164469
0.000132511
0.00154508
0.000151183
0.00142941
0.000168197
0.00129869
0.000183354
0.00115422
0.000196479
0.000997501
0.00020742
0.0008302
0.000216049
0.000654148
0.000222269
0.000471259
0.000226009
0.000283773
9.5396e-05
0.000227235
2.25436e-05
0.00187569
6.22109e-08
4.54253e-05
0.00182532
6.80416e-05
0.00177193
9.0024e-05
0.00170581
0.000111083
0.00162362
0.000130957
0.0015252
0.000149408
0.00141095
0.000166221
0.00128187
0.000181197
0.00113923
0.000194165
0.000984521
0.000204973
0.000819376
0.000213498
0.000645603
0.000219641
0.000465089
0.000223333
0.000280033
9.40995e-05
0.000224541
2.22783e-05
0.00185336
6.14675e-08
4.48924e-05
0.00180271
6.7244e-05
0.00174958
8.89688e-05
0.00168409
0.000109781
0.00160282
0.00012942
0.00150557
0.000147653
0.00139272
0.000164266
0.00126526
0.000179063
0.00112444
0.000191875
0.000971723
0.000202554
0.000808714
0.000210975
0.000637201
0.000217043
0.000459045
0.000220687
0.000276416
9.29982e-05
0.000221879
2.20162e-05
0.00183128
6.06263e-08
4.43655e-05
0.00178035
6.64553e-05
0.00172749
8.79252e-05
0.00166262
0.000108492
0.00158225
0.0001279
0.00148616
0.000145917
0.0013747
0.000162331
0.00124884
0.000176952
0.00110981
0.000189611
0.000959052
0.000200161
0.000798148
0.00020848
0.000628862
0.000214474
0.000453024
0.000218072
0.00027277
9.17445e-05
0.000219246
2.1757e-05
0.00180947
5.97541e-08
4.38445e-05
0.00175827
6.56752e-05
0.00170567
8.68928e-05
0.0016414
0.000107217
0.00156193
0.000126396
0.00146699
0.000144199
0.0013569
0.000160418
0.00123263
0.000174864
0.00109538
0.000187371
0.000946559
0.000197794
0.000787741
0.000206013
0.000620662
0.000211934
0.000447125
0.000215486
0.000269244
9.06756e-05
0.000216645
2.15008e-05
0.0017879
5.88831e-08
4.33293e-05
0.00173644
6.49036e-05
0.00168409
8.58715e-05
0.00162043
0.000105956
0.00154184
0.000124908
0.00144803
0.000142499
0.00133931
0.000158525
0.0012166
0.000172799
0.0010811
0.000185156
0.00093419
0.000195454
0.000777428
0.000203574
0.000612522
0.000209423
0.000441249
0.000212931
0.000265689
8.94598e-05
0.000214074
2.12474e-05
0.0017666
5.80443e-08
4.28197e-05
0.00171487
6.41403e-05
0.00166277
8.48612e-05
0.00159972
0.000104709
0.001522
0.000123435
0.00142931
0.000140818
0.00132193
0.000156653
0.00120077
0.000170756
0.001067
0.000182965
0.000921994
0.00019314
0.00076727
0.000201162
0.000604518
0.000206941
0.000435492
0.000210404
0.000262251
8.84193e-05
0.000211534
2.09968e-05
0.00174555
5.7246e-08
4.23156e-05
0.00169355
6.33851e-05
0.0016417
8.38616e-05
0.00157924
0.000103474
0.00150238
0.000121979
0.0014108
0.000139155
0.00130475
0.000154801
0.00118512
0.000168736
0.00105306
0.000180799
0.000909919
0.000190852
0.000757202
0.000198778
0.000596572
0.000204487
0.000429757
0.000207908
0.000258782
8.72373e-05
0.000209023
2.0749e-05
0.00172474
5.65023e-08
4.18169e-05
0.00167249
6.26381e-05
0.00162088
8.28727e-05
0.00155901
0.000102253
0.00148301
0.000120538
0.00139252
0.00013751
0.00128778
0.00015297
0.00116967
0.000166738
0.0010393
0.000178657
0.000898013
0.00018859
0.000747285
0.000196421
0.000588759
0.000202061
0.000424138
0.00020544
0.000255428
8.62211e-05
0.000206543
2.05038e-05
0.00170418
5.58109e-08
4.13236e-05
0.00165167
6.18991e-05
0.0016003
8.18944e-05
0.00153901
0.000101045
0.00146385
0.000119113
0.00137445
0.000135883
0.00127101
0.000151159
0.00115438
0.000164763
0.00102569
0.000176539
0.000886225
0.000186353
0.000737456
0.000194091
0.000581001
0.000199664
0.000418538
0.000203002
0.000252043
8.50694e-05
0.000204092
2.02614e-05
0.00168387
5.51786e-08
4.08356e-05
0.0016311
6.11679e-05
0.00157998
8.09266e-05
0.00151926
9.98502e-05
0.00144493
0.000117704
0.0013566
0.000134274
0.00125444
0.000149368
0.0011393
0.000162809
0.00101226
0.000174446
0.000874602
0.000184142
0.000727775
0.000191788
0.000573374
0.000197294
0.000413053
0.000200592
0.000248768
8.40752e-05
0.000201671
2.00216e-05
0.00166379
5.45991e-08
4.03529e-05
0.00161076
6.04447e-05
0.00155988
7.99693e-05
0.00149973
9.86683e-05
0.00142623
0.000116309
0.00133896
0.000132682
0.00123806
0.000147597
0.00112438
0.000160878
0.000998964
0.000172376
0.000863092
0.000181957
0.000718179
0.000189512
0.0005658
0.000194953
0.000407586
0.000198211
0.000245463
8.2951e-05
0.000199278
1.97844e-05
0.00164396
5.40752e-08
3.98754e-05
0.00159068
5.97293e-05
0.00154003
7.90223e-05
0.00148044
9.74993e-05
0.00140776
0.000114931
0.00132153
0.000131109
0.00122189
0.000145846
0.00110965
0.000158969
0.00098585
0.00017033
0.000851744
0.000179798
0.000708726
0.000187262
0.000558352
0.000192639
0.000402229
0.000195858
0.000242266
8.19764e-05
0.000196914
1.95498e-05
0.00162435
5.35981e-08
3.94031e-05
0.00157082
5.90217e-05
0.00152041
7.80858e-05
0.00146137
9.63433e-05
0.0013895
0.000113567
0.0013043
0.000129553
0.0012059
0.000144115
0.00109508
0.000157082
0.000972873
0.000168308
0.000840507
0.000177663
0.000699357
0.000185039
0.000550956
0.000190352
0.00039689
0.000193533
0.000239038
8.08775e-05
0.000194579
1.93177e-05
0.00160498
5.31685e-08
3.8936e-05
0.00155121
5.83219e-05
0.00150103
7.71596e-05
0.00144254
9.52001e-05
0.00137146
0.000112219
0.00128729
0.000128015
0.00119011
0.000142403
0.0010807
0.000155217
0.000960069
0.000166309
0.000829427
0.000175553
0.000690127
0.000182843
0.000543684
0.000188093
0.00039166
0.000191237
0.000235914
7.99211e-05
0.000192272
1.90883e-05
0.00158584
5.27766e-08
3.8474e-05
0.00153182
5.76298e-05
0.00148187
7.62438e-05
0.00142392
9.40698e-05
0.00135363
0.000110887
0.00127047
0.000126495
0.0011745
0.000140712
0.00106647
0.000153373
0.000947398
0.000164334
0.000818454
0.000173469
0.000680978
0.000180672
0.000536462
0.00018586
0.000386445
0.000188968
0.000232761
7.88458e-05
0.000189993
1.88614e-05
0.00156693
5.24214e-08
3.80172e-05
0.00151267
5.69455e-05
0.00146295
7.53382e-05
0.00140553
9.29523e-05
0.00133602
0.000109569
0.00125386
0.000124992
0.00115908
0.00013904
0.00105243
0.000151551
0.000934896
0.000162382
0.000807635
0.000171409
0.000671966
0.000178527
0.000529361
0.000183654
0.000381337
0.000186726
0.000229709
7.79062e-05
0.000187741
1.86371e-05
0.00154824
5.2093e-08
3.75655e-05
0.00149373
5.62688e-05
0.00144424
7.44428e-05
0.00138736
9.18475e-05
0.00131861
0.000108267
0.00123743
0.000123506
0.00114384
0.000137388
0.00103854
0.00014975
0.000922524
0.000160453
0.000796921
0.000169373
0.000663032
0.000176408
0.000522307
0.000181475
0.000376243
0.000184511
0.000226627
7.68528e-05
0.000185517
1.84152e-05
0.00152978
5.17898e-08
3.71189e-05
0.00147503
5.55998e-05
0.00142576
7.35577e-05
0.0013694
9.07553e-05
0.00130142
0.00010698
0.00122121
0.000122038
0.00112878
0.000135755
0.00102484
0.000147971
0.000910317
0.000158547
0.000786356
0.000167362
0.000654231
0.000174314
0.000515372
0.000179322
0.000371254
0.000182323
0.000223645
7.59294e-05
0.00018332
1.8196e-05
0.00151152
5.15027e-08
3.66773e-05
0.00145655
5.49384e-05
0.0014075
7.26827e-05
0.00135166
8.96758e-05
0.00128442
0.000105707
0.00120518
0.000120587
0.0011139
0.000134141
0.00101127
0.000146213
0.000898236
0.000156664
0.000775894
0.000165375
0.000645506
0.000172245
0.000508483
0.000177195
0.000366278
0.000180162
0.000220633
7.48969e-05
0.000181149
1.79792e-05
0.0014935
5.12297e-08
3.62408e-05
0.00143829
5.42846e-05
0.00138946
7.18178e-05
0.00133413
8.86089e-05
0.00126764
0.00010445
0.00118934
0.000119153
0.0010992
0.000132546
0.000997889
0.000144475
0.000886316
0.000154803
0.000765577
0.000163412
0.000636911
0.000170201
0.000501709
0.000175093
0.000361404
0.000178027
0.000217718
7.39886e-05
0.000179005
1.7765e-05
0.00147568
5.09626e-08
3.58093e-05
0.00142025
5.36384e-05
0.00137163
7.0963e-05
0.0013168
8.75544e-05
0.00125104
0.000103207
0.00117368
0.000117736
0.00108467
0.000130971
0.000984646
0.000142759
0.000874519
0.000152965
0.00075536
0.000161472
0.00062839
0.000168182
0.00049498
0.000173018
0.000356542
0.000175918
0.000214773
7.2976e-05
0.000176887
1.75532e-05
0.00145808
5.06999e-08
3.53828e-05
0.00140242
5.29996e-05
0.00135401
7.01182e-05
0.00129969
8.65124e-05
0.00123465
0.00010198
0.00115822
0.000116336
0.00107032
0.000129414
0.000971575
0.000141063
0.000862879
0.000151148
0.000745285
0.000159556
0.000619996
0.000166188
0.000488364
0.000170967
0.00035178
0.000173834
0.000211923
7.20827e-05
0.000174795
1.73439e-05
0.00144068
5.04347e-08
3.49613e-05
0.0013848
5.23684e-05
0.0013366
6.92832e-05
0.00128277
8.54826e-05
0.00121845
0.000100766
0.00114293
0.000114952
0.00105612
0.000127876
0.000958644
0.000139387
0.000851358
0.000149354
0.000735307
0.000157663
0.000611674
0.000164217
0.000481791
0.000168941
0.000347031
0.000171776
0.000209044
7.10893e-05
0.000172728
1.71371e-05
0.0014235
5.01657e-08
3.45448e-05
0.0013674
5.17446e-05
0.00131941
6.84582e-05
0.00126606
8.44651e-05
0.00120245
9.95673e-05
0.00112784
0.000113585
0.00104211
0.000126356
0.000945881
0.000137731
0.000839992
0.000147581
0.000725468
0.000155793
0.000603476
0.00016227
0.000475329
0.00016694
0.000342378
0.000169743
0.000206257
7.02101e-05
0.000170687
1.69327e-05
0.00140651
4.98875e-08
3.41331e-05
0.00135019
5.11281e-05
0.00130241
6.76429e-05
0.00124954
8.34596e-05
0.00118663
9.83828e-05
0.00111291
0.000112235
0.00102825
0.000124855
0.000933254
0.000136096
0.000828741
0.00014583
0.000715723
0.000153945
0.000595347
0.000160347
0.000468908
0.000164963
0.000337737
0.000167734
0.000203442
6.92351e-05
0.00016867
1.67308e-05
0.00138974
4.95994e-08
3.37264e-05
0.0013332
5.0519e-05
0.00128562
6.68374e-05
0.00123323
8.24662e-05
0.001171
9.72124e-05
0.00109817
0.000110901
0.00101457
0.000123372
0.00092079
0.00013448
0.000817641
0.0001441
0.000706114
0.00015212
0.00058734
0.000158448
0.000462595
0.00016301
0.000333191
0.000165751
0.000200717
6.83702e-05
0.000166679
1.65313e-05
0.00137315
4.92977e-08
3.33244e-05
0.00131641
4.99171e-05
0.00126902
6.60414e-05
0.0012171
8.14847e-05
0.00115555
9.60562e-05
0.00108359
0.000109582
0.00100104
0.000121906
0.000908459
0.000132884
0.000806653
0.000142391
0.000696597
0.000150317
0.0005794
0.000156571
0.000456323
0.000161081
0.000328655
0.000163791
0.000197964
6.74131e-05
0.000164711
1.63342e-05
0.00135677
4.89818e-08
3.29273e-05
0.00129982
4.93224e-05
0.00125263
6.5255e-05
0.00120117
8.0515e-05
0.0011403
9.49138e-05
0.0010692
0.00010828
0.000987678
0.000120459
0.000896288
0.000131307
0.000795813
0.000140703
0.000687212
0.000148536
0.000571579
0.000154718
0.000450156
0.000159176
0.000324213
0.000161855
0.0001953
6.65617e-05
0.000162767
1.61394e-05
0.00134058
4.86492e-08
3.25349e-05
0.00128342
4.87349e-05
0.00123643
6.44781e-05
0.00118542
7.9557e-05
0.00112522
9.37853e-05
0.00105497
0.000106994
0.000974463
0.000119029
0.000884245
0.00012975
0.000785082
0.000139035
0.000677916
0.000146777
0.000563823
0.000152887
0.000444028
0.000157294
0.000319781
0.000159943
0.000192607
6.5622e-05
0.000160847
1.5947e-05
0.00132459
4.82998e-08
3.21472e-05
0.00126722
4.81544e-05
0.00122043
6.37105e-05
0.00116987
7.86106e-05
0.00111032
9.26705e-05
0.00104091
0.000105723
0.000961417
0.000117616
0.000872359
0.000128211
0.000774495
0.000137388
0.00066875
0.000145039
0.000556184
0.000151078
0.000438003
0.000155434
0.00031544
0.000158055
0.000190001
6.47843e-05
0.000158951
1.5757e-05
0.00130878
4.79322e-08
3.17642e-05
0.00125121
4.75809e-05
0.0012046
6.29522e-05
0.0011545
7.76756e-05
0.00109559
9.15691e-05
0.00102701
0.000104467
0.000948512
0.000116221
0.000860599
0.000126691
0.000764015
0.00013576
0.00065967
0.000143323
0.000548608
0.000149292
0.000432016
0.000153598
0.000311109
0.000156189
0.000187368
6.38616e-05
0.000157078
1.55692e-05
0.00129317
4.75464e-08
3.13858e-05
0.0012354
4.70143e-05
0.00118898
6.22031e-05
0.00113931
7.67519e-05
0.00108105
9.04812e-05
0.00101329
0.000103227
0.000935771
0.000114842
0.000848991
0.00012519
0.000753675
0.000134153
0.000650717
0.000141627
0.000541146
0.000147527
0.00042613
0.000151784
0.000306866
0.000154347
0.000184819
6.3037e-05
0.000155227
1.53838e-05
0.00127774
4.71419e-08
3.1012e-05
0.00121977
4.64546e-05
0.00117353
6.1463e-05
0.0011243
7.58394e-05
0.00106667
8.94064e-05
0.000999718
0.000102002
0.000923169
0.00011348
0.000837506
0.000123707
0.000743439
0.000132565
0.000641849
0.000139952
0.000533745
0.000145784
0.000420281
0.000149992
0.000302633
0.000152526
0.000182244
6.21309e-05
0.0001534
1.52005e-05
0.00126249
4.67189e-08
3.06427e-05
0.00120433
4.59016e-05
0.00115828
6.07319e-05
0.00110947
7.49381e-05
0.00105247
8.83447e-05
0.000986316
0.000100792
0.000910727
0.000112135
0.000826169
0.000122242
0.00073334
0.000130997
0.000633104
0.000138298
0.000526455
0.000144062
0.00041453
0.000148222
0.000298487
0.000150728
0.00017975
6.13195e-05
0.000151594
1.50196e-05
0.00124742
4.62778e-08
3.02779e-05
0.00118907
4.53554e-05
0.0011432
6.00097e-05
0.00109482
7.40477e-05
0.00103842
8.7296e-05
0.000973063
9.95968e-05
0.00089842
0.000110807
0.000814952
0.000120795
0.000723342
0.000129447
0.000624441
0.000136664
0.000519225
0.000142361
0.000408815
0.000146474
0.00029435
0.000148952
0.000177232
6.04296e-05
0.000149811
1.48408e-05
0.00123254
4.58187e-08
2.99175e-05
0.001174
4.48158e-05
0.0011283
5.92963e-05
0.00108034
7.31681e-05
0.00102456
8.62601e-05
0.000959977
9.8416e-05
0.00088627
0.000109494
0.00080388
0.000119366
0.000713478
0.000127917
0.000615899
0.00013505
0.000512104
0.000140682
0.000403196
0.000144747
0.000290298
0.000147198
0.000174792
5.96308e-05
0.000148049
1.46642e-05
0.00121783
4.53425e-08
2.95616e-05
0.0011591
4.42828e-05
0.00111358
5.85915e-05
0.00106603
7.22993e-05
0.00101084
8.52368e-05
0.000947034
9.72497e-05
0.00087425
0.000108198
0.000792925
0.000117954
0.000703713
0.000126406
0.000607437
0.000133455
0.000505041
0.000139022
0.000397612
0.000143041
0.000286254
0.000145465
0.000172329
5.87569e-05
0.000146309
1.44898e-05
0.0012033
4.48492e-08
2.92099e-05
0.00114438
4.37562e-05
0.00109904
5.78954e-05
0.00105189
7.1441e-05
0.000997303
8.42259e-05
0.000934254
9.60976e-05
0.000862384
0.000106918
0.000782111
0.000116559
0.000694079
0.000124913
0.000599093
0.000131881
0.000498084
0.000137383
0.000392122
0.000141357
0.000282293
0.000143754
0.000169943
5.79708e-05
0.00014459
1.43175e-05
0.00118893
4.43402e-08
2.88625e-05
0.00112983
4.32361e-05
0.00108466
5.72077e-05
0.00103792
7.05932e-05
0.000983913
8.32275e-05
0.000921615
9.49597e-05
0.000850645
0.000105653
0.000771411
0.000115182
0.000684541
0.000123438
0.000590827
0.000130325
0.000491184
0.000135764
0.000386665
0.000139692
0.000278341
0.000142063
0.000167533
5.71125e-05
0.000142893
1.41474e-05
0.00117475
4.38153e-08
2.85194e-05
0.00111546
4.27223e-05
0.00107046
5.65284e-05
0.00102412
6.97558e-05
0.00097069
8.22412e-05
0.000909135
9.38356e-05
0.000839057
0.000104404