/*--------------------------------*- C++ -*----------------------------------*\
  =========                 |
  \\      /  F ield         | OpenFOAM: The Open Source CFD Toolbox
   \\    /   O peration     | Website:  https://openfoam.org
    \\  /    A nd           | Version:  6.0
     \\/     M anipulation  |
\*---------------------------------------------------------------------------*/
FoamFile
{
    version     2.0;
    format      ascii;
    class       volScalarField;
    location    "13";
    object      p;
}
// * * * * * * * * * * * * * * * * * * * * * * * * * * * * * * * * * * * * * //

dimensions      [0 2 -2 0 0 0 0];

internalField   nonuniform List<scalar> 
15500
(
0.0171882
0.0172417
0.0173047
0.0173762
0.0174603
0.0175565
0.0176695
0.0177995
0.0179516
0.0181267
0.0183302
0.018563
0.0188308
0.0191341
0.0194779
0.0198609
0.0202808
0.0207269
0.0211765
0.0216012
0.0219472
0.022143
0.0220872
0.0216658
0.0207578
0.0193124
0.0174373
0.0150471
0.0129667
0.0119384
0.017176
0.0172302
0.0172952
0.0173697
0.0174572
0.0175574
0.017674
0.0178073
0.0179618
0.0181385
0.0183425
0.018576
0.0188446
0.0191514
0.0195009
0.0198955
0.0203358
0.0208152
0.0213253
0.0218389
0.0223128
0.0226875
0.0228756
0.0227653
0.0222176
0.0211343
0.0196068
0.017441
0.0159461
0.0140829
0.0171672
0.01722
0.0172841
0.0173592
0.0174483
0.0175517
0.017673
0.0178124
0.017974
0.0181583
0.0183699
0.0186105
0.0188856
0.0191984
0.0195535
0.019953
0.0203944
0.0208743
0.0213784
0.0218782
0.022331
0.0226739
0.0228167
0.0226289
0.0219417
0.0205986
0.0187
0.016082
0.0142107
0.011475
0.0172138
0.017267
0.0173309
0.0174053
0.0174936
0.0175965
0.0177176
0.0178581
0.018022
0.0182104
0.0184274
0.0186749
0.0189578
0.0192795
0.0196454
0.020056
0.0205103
0.021
0.0215131
0.0220218
0.0224911
0.0228663
0.0230655
0.0229573
0.0223626
0.0210715
0.0191504
0.0164029
0.0140927
0.0113212
0.0172808
0.0173404
0.017409
0.0174871
0.0175776
0.0176819
0.0178039
0.0179452
0.0181101
0.0183009
0.0185215
0.0187745
0.0190653
0.0193966
0.0197744
0.0201997
0.0206702
0.0211824
0.021717
0.022257
0.0227741
0.0232329
0.0235673
0.0236689
0.0233693
0.0224272
0.0208409
0.0183081
0.0157623
0.0126538
0.0173335
0.0174052
0.0174853
0.0175742
0.0176739
0.017786
0.0179139
0.01806
0.0182289
0.0184238
0.0186492
0.0189087
0.0192074
0.0195479
0.0199356
0.0203699
0.0208515
0.0213681
0.0219088
0.0224509
0.0229726
0.023447
0.0238228
0.0240182
0.0238941
0.0232124
0.0219329
0.0196727
0.0170716
0.0132636
0.0173713
0.0174544
0.0175465
0.0176477
0.01776
0.0178848
0.018025
0.018183
0.0183628
0.0185681
0.0188031
0.0190724
0.0193813
0.0197313
0.0201267
0.0205659
0.0210447
0.0215548
0.0220737
0.022576
0.0230367
0.0234223
0.0236895
0.0237715
0.0235688
0.0228759
0.0216811
0.0196064
0.0170866
0.0128171
0.0174121
0.0175052
0.0176091
0.0177238
0.0178504
0.0179904
0.0181457
0.0183188
0.0185131
0.0187327
0.0189815
0.0192646
0.0195865
0.0199484
0.0203536
0.020797
0.0212756
0.0217721
0.0222655
0.022719
0.0230971
0.0233543
0.0234412
0.0232966
0.0228543
0.0219595
0.0206765
0.0187094
0.0163416
0.012115
0.0175094
0.0176019
0.0177072
0.017826
0.0179599
0.0181106
0.0182795
0.018469
0.0186809
0.0189194
0.0191866
0.0194879
0.0198277
0.0202066
0.0206267
0.0210831
0.0215687
0.0220724
0.0225571
0.0229876
0.023311
0.0234725
0.023405
0.0230463
0.0223448
0.0211944
0.0197458
0.0178246
0.0155905
0.0117327
0.0176589
0.0177502
0.0178566
0.0179792
0.0181191
0.0182783
0.0184579
0.0186604
0.0188877
0.0191438
0.0194304
0.0197528
0.0201144
0.0205162
0.0209603
0.021441
0.0219567
0.0224843
0.0229996
0.0234538
0.0237886
0.0239361
0.0238112
0.0233397
0.0224679
0.0211187
0.0195132
0.0175956
0.0154088
0.011968
0.0179087
0.0179902
0.0180882
0.0182045
0.0183415
0.0185021
0.0186876
0.0189008
0.0191426
0.019417
0.0197245
0.0200707
0.020459
0.0208903
0.0213676
0.0218882
0.0224472
0.0230336
0.0236128
0.0241393
0.0245532
0.0247717
0.0246981
0.0242342
0.0233127
0.021854
0.0201232
0.018156
0.0158941
0.0127209
0.0181972
0.0182769
0.018375
0.0184931
0.0186329
0.0187979
0.0189894
0.0192112
0.0194651
0.0197556
0.0200837
0.0204552
0.0208733
0.0213399
0.0218595
0.0224301
0.0230541
0.0237148
0.0243911
0.0250347
0.0255844
0.025951
0.0260233
0.0256775
0.0248186
0.0233431
0.0215276
0.0194678
0.0170132
0.0139013
0.018573
0.0186461
0.018738
0.0188514
0.0189892
0.0191558
0.0193529
0.0195851
0.0198535
0.0201632
0.0205146
0.0209141
0.0213657
0.0218727
0.0224408
0.0230723
0.023769
0.024529
0.0253198
0.0261078
0.0268261
0.0273871
0.027662
0.0275058
0.0267818
0.0253492
0.0234654
0.0212642
0.018517
0.0152723
0.0189645
0.0190433
0.0191424
0.0192645
0.0194112
0.0195873
0.0197946
0.0200384
0.0203213
0.0206495
0.0210243
0.0214533
0.0219406
0.0224914
0.0231137
0.0238115
0.0245963
0.0254553
0.0263788
0.0273255
0.0282343
0.0290151
0.0295259
0.0295979
0.0290504
0.0276953
0.025755
0.0233791
0.0202741
0.0167629
0.0194521
0.0195305
0.0196291
0.0197517
0.0199012
0.0200834
0.0203004
0.0205584
0.0208592
0.0212097
0.0216111
0.0220721
0.0225983
0.0231961
0.0238763
0.0246477
0.0255183
0.0264922
0.027549
0.0286568
0.0297595
0.0307599
0.0315105
0.0318141
0.0314501
0.0301728
0.028165
0.0255769
0.0220713
0.018206
0.0199444
0.0200351
0.0201475
0.0202851
0.0204495
0.0206466
0.0208788
0.0211528
0.0214722
0.0218451
0.0222741
0.022769
0.0233358
0.0239834
0.0247252
0.0255711
0.0265369
0.027619
0.0288136
0.0300853
0.0313796
0.0325969
0.0335804
0.0341075
0.033917
0.0327081
0.0306221
0.0278011
0.0238759
0.0196198
0.0205224
0.0206179
0.0207347
0.0208776
0.0210499
0.0212584
0.0215057
0.0217994
0.0221423
0.0225432
0.0230043
0.0235364
0.0241474
0.0248475
0.0256529
0.0265776
0.027635
0.0288373
0.0301645
0.0315964
0.0330706
0.0344912
0.0356859
0.0364141
0.0363701
0.0352035
0.0330112
0.0299302
0.0255697
0.020905
0.0210936
0.021206
0.0213414
0.0215043
0.0216966
0.0219253
0.0221931
0.022508
0.0228747
0.0233032
0.023797
0.0243685
0.0250254
0.0257805
0.0266528
0.0276576
0.0288171
0.0301288
0.0315959
0.0331849
0.0348368
0.0364512
0.0378435
0.038752
0.0388297
0.0376804
0.0353628
0.0320052
0.0272045
0.0221353
0.0217592
0.0218786
0.0220203
0.0221903
0.0223924
0.0226347
0.0229202
0.0232581
0.0236518
0.0241121
0.0246423
0.0252558
0.0259624
0.0267756
0.0277178
0.0288087
0.030065
0.0315011
0.0331039
0.0348466
0.0366706
0.0384645
0.0400372
0.0410998
0.041271
0.0401052
0.0376311
0.0339677
0.0287135
0.0232363
0.0224047
0.0225424
0.0227041
0.0228958
0.0231197
0.0233842
0.0236925
0.0240542
0.024475
0.0249668
0.0255343
0.0261925
0.026951
0.0278256
0.028842
0.0300205
0.0313849
0.0329388
0.034685
0.0365877
0.0385846
0.0405578
0.042303
0.0435058
0.0437488
0.0425421
0.0398896
0.0359013
0.0301831
0.0243032
0.0231214
0.023268
0.0234378
0.0236385
0.0238743
0.024155
0.0244841
0.0248725
0.0253246
0.0258533
0.0264629
0.0271694
0.0279841
0.0289241
0.0300179
0.0312903
0.0327616
0.0344511
0.036341
0.0384078
0.040576
0.0427257
0.0446323
0.0459608
0.0462515
0.0449757
0.0421099
0.0377642
0.0315566
0.025262
0.0238057
0.0239715
0.0241628
0.0243872
0.0246473
0.0249528
0.0253078
0.0257235
0.0262068
0.0267717
0.027424
0.0281813
0.0290549
0.030064
0.0312404
0.0326107
0.0342041
0.036023
0.0380726
0.0403112
0.0426623
0.0449952
0.0470669
0.0485159
0.0488408
0.0474748
0.0443736
0.0396452
0.0329276
0.0262144
0.0245668
0.0247416
0.0249409
0.0251741
0.025446
0.0257682
0.026145
0.026589
0.027106
0.027711
0.0284098
0.0292211
0.0301582
0.0312409
0.0325049
0.0339821
0.0356963
0.0376668
0.0398794
0.0422976
0.0448399
0.0473583
0.0495959
0.0511565
0.0515015
0.0500186
0.0466478
0.0414969
0.0342345
0.0270765
0.0252844
0.0254772
0.0256973
0.0259537
0.02625
0.0265976
0.0270012
0.0274742
0.028025
0.02867
0.0294166
0.0302852
0.0312891
0.0324503
0.0338082
0.0353968
0.0372475
0.039368
0.0417602
0.0443749
0.0471229
0.0498427
0.052256
0.0539315
0.0542881
0.0526708
0.0490063
0.0434035
0.0355672
0.0279495
0.0260506
0.0262537
0.0264832
0.0267501
0.0270601
0.0274265
0.0278546
0.0283592
0.0289478
0.029638
0.0304373
0.0313671
0.032443
0.033688
0.035145
0.0368541
0.038844
0.0411383
0.0437169
0.0465418
0.0495054
0.0524376
0.05503
0.0568199
0.0571757
0.0554016
0.0514057
0.0453084
0.0368541
0.02874
0.0267697
0.0269906
0.0272411
0.0275322
0.0278679
0.0282616
0.0287188
0.0292555
0.0298816
0.0306165
0.0314692
0.0324636
0.033615
0.0349489
0.0365122
0.0383484
0.0404961
0.0429627
0.0457507
0.0488019
0.052003
0.0551659
0.0579535
0.059864
0.0602141
0.0582655
0.0539135
0.0472879
0.0381821
0.0295491
0.0275461
0.0277766
0.0280354
0.0283358
0.0286844
0.0290965
0.0295786
0.0301478
0.0308137
0.0315968
0.0325068
0.0335691
0.0348015
0.03623
0.0379063
0.0398809
0.0421895
0.0448549
0.0478612
0.0511534
0.0546084
0.0580134
0.0610061
0.0630363
0.0633723
0.0612246
0.0564784
0.0492777
0.0394725
0.0302748
0.0282711
0.0285166
0.0287939
0.0291166
0.0294895
0.0299282
0.0304395
0.0310419
0.0317474
0.0325788
0.0335476
0.0346814
0.0359987
0.0375281
0.0393252
0.0414464
0.0439339
0.0468012
0.0500475
0.0536037
0.0573341
0.0610045
0.0642191
0.0663778
0.0666936
0.0643289
0.0591606
0.05135
0.0408089
0.0310199
0.0290242
0.0292801
0.0295669
0.0299
0.030287
0.0307459
0.031284
0.0319215
0.0326703
0.0335547
0.0345867
0.0357961
0.0372041
0.0388405
0.0407665
0.0430442
0.045717
0.0488143
0.0523113
0.0561504
0.0601719
0.0641243
0.0675688
0.0698579
0.0701422
0.0675364
0.0619041
0.0534365
0.0421071
0.0316764
0.0297357
0.030005
0.0303089
0.0306636
0.0310747
0.0315603
0.0321285
0.0328007
0.0335915
0.0345279
0.035624
0.0369122
0.0384151
0.0401647
0.0422258
0.0446677
0.0475443
0.0508719
0.0546534
0.0587971
0.0631365
0.0673937
0.0710876
0.0735144
0.0737603
0.0708914
0.0647662
0.0556042
0.0434504
0.0323489
0.0304974
0.0307746
0.0310847
0.0314464
0.0318682
0.0323711
0.0329638
0.0336697
0.0345037
0.0354942
0.0366572
0.0380271
0.039629
0.0414952
0.0436963
0.0463071
0.0493945
0.052994
0.0570704
0.0615404
0.0662191
0.0707969
0.0747514
0.0773136
0.0775097
0.0743496
0.0676887
0.0577832
0.0447519
0.0329236
0.0312318
0.0315175
0.0318394
0.0322172
0.0326578
0.0331826
0.0338011
0.0345386
0.0354129
0.0364559
0.0376848
0.0391375
0.0408395
0.0428261
0.0451675
0.0479661
0.0512907
0.0551624
0.0595681
0.0643892
0.0694319
0.0743569
0.0785898
0.0812941
0.081429
0.0779532
0.0707238
0.0600385
0.046093
0.0335072
0.032018
0.0323068
0.0326287
0.0330068
0.0334511
0.0339867
0.0346241
0.0353912
0.0363058
0.0374021
0.0386987
0.0402362
0.0420439
0.0441556
0.0466598
0.0496538
0.053226
0.0574106
0.0621465
0.0673385
0.0727663
0.0780587
0.0825775
0.0854215
0.0854781
0.0816572
0.0738134
0.0623004
0.0473849
0.0339821
0.0327621
0.0330522
0.0333762
0.0337617
0.034217
0.0347682
0.0354267
0.0362224
0.0371765
0.0383261
0.0396926
0.0413207
0.0432417
0.0454951
0.0481655
0.0513814
0.0552263
0.059709
0.0648079
0.070394
0.0762377
0.0819225
0.0867456
0.0897313
0.0896949
0.0854987
0.0770069
0.064629
0.048709
0.0344558
0.0334505
0.0337487
0.0340811
0.034474
0.0349399
0.0355067
0.036188
0.037016
0.0380132
0.0392197
0.0406602
0.0423835
0.0444271
0.0468308
0.0496948
0.0531395
0.0572585
0.0620796
0.0675461
0.0735519
0.0798389
0.0859341
0.0910692
0.0941874
0.0940386
0.0894325
0.0802465
0.0669559
0.0499758
0.0348072
0.0340486
0.0343477
0.0346866
0.0350947
0.0355818
0.0361754
0.0368889
0.0377554
0.0388012
0.0400702
0.0415907
0.0434173
0.0455922
0.0481613
0.0512211
0.0549172
0.0593354
0.0644905
0.0703655
0.076825
0.0835849
0.0901165
0.0955766
0.0988261
0.0985422
0.0934929
0.0835756
0.0693386
0.051264
0.0351456
0.0346931
0.0349889
0.0353196
0.0357198
0.0362046
0.0368058
0.0375389
0.0384396
0.0395347
0.04087
0.0424768
0.0444138
0.0467296
0.0494713
0.0527506
0.0567032
0.0614313
0.0669696
0.0732685
0.0802128
0.0874711
0.094457
0.100243
0.10361
0.103164
0.0976345
0.0869382
0.07171
0.0524842
0.0353468
0.0351504
0.0354581
0.0358071
0.0362306
0.0367412
0.0373712
0.0381372
0.0390782
0.0402255
0.0416298
0.0433261
0.0453789
0.0478417
0.0507678
0.054266
0.0585004
0.0635693
0.0694941
0.0762669
0.0837286
0.0915162
0.0989762
0.105097
0.108572
0.107934
0.101884
0.0903736
0.0741218
0.0537141
0.0355192
0.0355798
0.0358902
0.0362445
0.0366782
0.037207
0.0378647
0.0386686
0.0396586
0.0408672
0.042348
0.0441404
0.0463144
0.0489312
0.0520467
0.0557858
0.0603098
0.0657334
0.0720991
0.0793635
0.0873737
0.0957166
0.103663
0.110114
0.113671
0.11281
0.106198
0.0938275
0.0765102
0.0548651
0.0355373
0.0360358
0.0363516
0.0367118
0.0371543
0.0376953
0.0383705
0.0391997
0.0402262
0.0414871
0.0430402
0.0449284
0.0472274
0.0500038
0.0533199
0.0573019
0.0621415
0.0679514
0.0747664
0.0825702
0.091164
0.100088
0.108537
0.115318
0.118941
0.117816
0.110598
0.097331
0.078923
0.0560101
0.0355093
0.0364511
0.036772
0.0371368
0.0375861
0.038139
0.0388337
0.0396919
0.0407593
0.0420761
0.0437041
0.0456912
0.0481192
0.0510624
0.0545861
0.058834
0.0639983
0.0702139
0.0775301
0.085892
0.0950999
0.104627
0.113586
0.120682
0.124337
0.122907
0.115041
0.100834
0.0812999
0.0570629
0.0353084
0.0367835
0.0371152
0.0374929
0.0379591
0.0385317
0.0392511
0.0401406
0.0412502
0.0426247
0.0443314
0.0464231
0.0489882
0.0521077
0.0558537
0.0603732
0.0658924
0.0725459
0.0803726
0.0893416
0.0991946
0.109349
0.118827
0.12623
0.129886
0.128102
0.119539
0.104363
0.0836808
0.0580934
0.0350393
0.037044
0.0373828
0.0377696
0.0382491
0.0388421
0.0395909
0.0405198
0.0416811
0.0431225
0.0449161
0.0471205
0.0498315
0.053139
0.0571196
0.0619373
0.0678244
0.0749371
0.0833266
0.0929213
0.103448
0.114249
0.124247
0.131931
0.135541
0.133357
0.124051
0.10787
0.0860112
0.0590171
0.0345762
0.0372716
0.0376171
0.0380137
0.0385079
0.0391207
0.0398959
0.0408603
0.0420699
0.0435776
0.0454609
0.0477842
0.0506505
0.0541579
0.0583902
0.0635178
0.0698063
0.0774107
0.0863767
0.0966437
0.107876
0.119342
0.129858
0.137802
0.141325
0.13868
0.128585
0.111372
0.0883259
0.0598969
0.034021
0.0374638
0.0378124
0.0382135
0.0387167
0.0393464
0.0401483
0.0411514
0.042414
0.0439931
0.0459713
0.0484197
0.0514494
0.055168
0.0596661
0.0651334
0.0718401
0.0799628
0.0895559
0.100515
0.11248
0.124623
0.135649
0.143812
0.147187
0.144026
0.1331
0.11483
0.0905744
0.0606522
0.0332486
0.0376256
0.0379773
0.0383849
0.0389007
0.0395485
0.0403768
0.0414166
0.0427307
0.0443815
0.0464579
0.0490373
0.0522394
0.0561809
0.0609625
0.0667839
0.0739445
0.0826182
0.0928545
0.104554
0.117276
0.130107
0.141628
0.149973
0.153143
0.149398
0.137593
0.118252
0.0927825
0.0613407
0.0323545
0.0377868
0.0381388
0.0385481
0.0390703
0.0397331
0.0405871
0.0416657
0.0430345
0.0447605
0.0469387
0.0496543
0.0530366
0.0572123
0.0622925
0.0684961
0.076127
0.0853799
0.09631
0.108768
0.122271
0.135794
0.147784
0.156253
0.15914
0.154752
0.142031
0.121607
0.0949081
0.0618847
0.0312174
0.0379776
0.0383297
0.0387415
0.0392713
0.0399473
0.040823
0.0419348
0.0433534
0.0451521
0.0474331
0.0502893
0.0538597
0.0582819
0.0636779
0.0702778
0.0784129
0.0882774
0.0999212
0.113181
0.127486
0.141697
0.154124
0.162658
0.165188
0.160077
0.146401
0.124894
0.0969706
0.0623314
0.0299276
0.0381909
0.0385431
0.0389556
0.0394902
0.040179
0.0410777
0.0422258
0.0436975
0.0455724
0.0479597
0.0509617
0.0547285
0.0594088
0.0651367
0.0721598
0.0808164
0.0913249
0.10373
0.117811
0.132932
0.14782
0.160639
0.169154
0.171234
0.165336
0.150678
0.128091
0.0989335
0.062609
0.0283659
0.0384385
0.0387911
0.0392066
0.0397502
0.0404536
0.0413764
0.0425602
0.0440854
0.046038
0.0485361
0.0516907
0.0556637
0.060616
0.0666938
0.0741565
0.0833706
0.0945558
0.107744
0.122685
0.138632
0.154177
0.167328
0.175743
0.177277
0.17051
0.154839
0.131193
0.100805
0.0627563
0.0266141
0.0387542
0.0391066
0.0395227
0.0400712
0.040788
0.041735
0.0429572
0.0445389
0.046573
0.0491858
0.0524994
0.0566883
0.061926
0.0683723
0.0763029
0.0860951
0.0979912
0.112008
0.127824
0.144602
0.160772
0.174185
0.18239
0.183264
0.175565
0.158871
0.134187
0.10256
0.0627045
0.0245592
0.0391652
0.0395178
0.0399359
0.0404915
0.0412213
0.0421906
0.043448
0.0450841
0.0471996
0.0499304
0.0534097
0.0578252
0.0633644
0.0701993
0.0786184
0.0890261
0.101667
0.116537
0.133261
0.150867
0.167619
0.181206
0.189088
0.189192
0.180471
0.162743
0.137056
0.104198
0.0624786
0.0222766
0.0396692
0.0400232
0.0404432
0.0410046
0.0417486
0.0427426
0.0440395
0.0457341
0.0479357
0.05079
0.0544426
0.0590966
0.0649534
0.0721999
0.0811384
0.0921866
0.105611
0.121376
0.13902
0.157442
0.174721
0.188381
0.195801
0.195006
0.185208
0.166456
0.139807
0.105698
0.062017
0.0196565
0.0402676
0.0406251
0.0410506
0.0416235
0.0423854
0.0434074
0.0447459
0.0465026
0.0487951
0.0517803
0.0556166
0.060523
0.0667176
0.0743999
0.0838842
0.0956141
0.109859
0.126547
0.145135
0.164354
0.182088
0.195698
0.202518
0.200692
0.189736
0.16997
0.142416
0.107048
0.0613339
0.0167647
0.0409906
0.0413523
0.0417834
0.0423659
0.043147
0.0441994
0.0455846
0.0474086
0.0497985
0.0529223
0.0569528
0.0621269
0.0686785
0.0768238
0.0868863
0.0993322
0.114442
0.132094
0.151631
0.171616
0.18972
0.203144
0.209198
0.206204
0.194046
0.173304
0.1449
0.108238
0.0603715
0.0135017
0.0418498
0.0422186
0.0426589
0.0432559
0.0440589
0.045144
0.0465772
0.0484714
0.0509641
0.0542347
0.0584716
0.0639283
0.0708591
0.0794888
0.0901645
0.103377
0.1194
0.138046
0.158542
0.179251
0.19762
0.210702
0.215818
0.211518
0.19809
0.176416
0.147227
0.109243
0.059128
0.00992649
0.042839
0.0432193
0.043673
0.0442879
0.0451188
0.0462431
0.0477327
0.0497053
0.0523093
0.0557364
0.06019
0.0659444
0.0732681
0.082415
0.0937506
0.107783
0.12477
0.144444
0.165891
0.187268
0.205781
0.218348
0.222339
0.216593
0.201878
0.179342
0.149431
0.110059
0.0575545
0.00594684
0.0439239
0.0443288
0.0448115
0.0454624
0.0463353
0.0475125
0.049068
0.051128
0.0538511
0.0574425
0.0621241
0.0681879
0.0759315
0.0856352
0.0976829
0.112593
0.130591
0.151315
0.173706
0.19568
0.214196
0.226054
0.22873
0.221398
0.205359
0.182035
0.151473
0.110643
0.0556359
0.00161088
0.0452386
0.0456752
0.0461917
0.0468754
0.0477882
0.0490134
0.0506319
0.0527762
0.0556169
0.0593762
0.064294
0.0706896
0.0788868
0.0891922
0.102004
0.117841
0.136889
0.158685
0.182001
0.204488
0.222848
0.233793
0.234948
0.225905
0.20856
0.184556
0.153398
0.111003
0.0533288
-0.00315934
0.0468571
0.0473094
0.0478409
0.0485442
0.0494852
0.0507496
0.0524246
0.0546497
0.0576102
0.0615447
0.0667178
0.0734728
0.0821627
0.0931155
0.106737
0.123544
0.143679
0.166573
0.190792
0.213696
0.231718
0.241523
0.240952
0.230075
0.211427
0.186856
0.155151
0.111077
0.0506012
-0.00832262
0.0486874
0.0491628
0.0497122
0.0504338
0.0514007
0.0527027
0.0544341
0.0567428
0.0598281
0.0639499
0.0693967
0.076544
0.085767
0.0974119
0.111887
0.129708
0.150979
0.174995
0.20009
0.223292
0.240777
0.249207
0.246706
0.233899
0.214016
0.189016
0.156796
0.110876
0.0474207
-0.0139449
0.0505954
0.0510964
0.051678
0.0524387
0.0534528
0.0548123
0.0566179
0.0590257
0.0622526
0.0665792
0.0723249
0.0798942
0.0896916
0.102073
0.117452
0.136345
0.158806
0.183974
0.209902
0.233268
0.249993
0.25679
0.252158
0.237328
0.216274
0.190982
0.158261
0.110318
0.0437429
-0.0199961
0.0526662
0.0531997
0.0538133
0.0546118
0.0556737
0.0570956
0.0589833
0.0615018
0.0648828
0.0694312
0.075495
0.0835176
0.0939261
0.107094
0.123433
0.143464
0.167178
0.19352
0.220235
0.243602
0.25932
0.264233
0.257277
0.240383
0.218283
0.192859
0.159614
0.109422
0.0395439
-0.0265242
0.0549575
0.0555122
0.0561545
0.0569901
0.0581006
0.0595855
0.0615572
0.0641895
0.0677321
0.0725126
0.0789132
0.0874116
0.0984715
0.112473
0.129839
0.151084
0.176116
0.203658
0.231079
0.254269
0.268712
0.271465
0.262002
0.243012
0.219992
0.19459
0.160765
0.108087
0.0347661
-0.0335057
0.0575075
0.058086
0.0587495
0.059612
0.0607615
0.0623028
0.0643548
0.0671016
0.0708091
0.0758311
0.0825814
0.0915828
0.103327
0.11822
0.136679
0.159216
0.185634
0.214377
0.242431
0.265229
0.278107
0.278442
0.266323
0.245265
0.221516
0.196293
0.161786
0.106332
0.0294
-0.0409718
0.0602657
0.0608638
0.0615507
0.0624437
0.0636352
0.0652344
0.0673682
0.0702312
0.0741091
0.0793814
0.0864996
0.0960268
0.108501
0.124336
0.143964
0.167876
0.195741
0.225697
0.254257
0.276432
0.287439
0.285076
0.270171
0.24709
0.222809
0.197899
0.162561
0.104035
0.0233806
-0.0489064
0.0631742
0.0638073
0.0645258
0.0654549
0.0666923
0.0683536
0.0705733
0.0735584
0.0776139
0.0831494
0.0906526
0.10074
0.113983
0.130827
0.151698
0.177068
0.206439
0.237583
0.266535
0.28782
0.296625
0.291331
0.273556
0.248581
0.224012
0.199541
0.16316
0.101224
0.016712
-0.0573195
0.0662531
0.0669127
0.0676615
0.0686276
0.0699133
0.0716386
0.0739469
0.0770575
0.0812988
0.0871098
0.0950218
0.105699
0.119768
0.137679
0.159877
0.186791
0.217724
0.250041
0.279202
0.299312
0.305579
0.297103
0.276404
0.249689
0.22508
0.201131
0.163437
0.0977591
0.00932375
-0.0661974
0.0694725
0.0701651
0.070944
0.0719447
0.073276
0.0750641
0.0774611
0.0807011
0.0851343
0.0912351
0.0995764
0.110884
0.125824
0.144882
0.168492
0.197038
0.22958
0.263005
0.292216
0.310823
0.314204
0.302362
0.278769
0.250548
0.226183
0.202798
0.163455
0.0936741
0.00123896
-0.0755297
0.0728173
0.0735359
0.0743433
0.0753785
0.0767556
0.0786057
0.0810913
0.0844609
0.0890914
0.0954915
0.104285
0.116251
0.132129
0.152412
0.177534
0.2078
0.241988
0.27647
0.305479
0.322246
0.322396
0.306998
0.280578
0.251117
0.227269
0.20443
0.163038
0.0888131
-0.00761194
-0.0853028
0.0762412
0.0769954
0.0778354
0.0789067
0.080329
0.0822398
0.0848117
0.0883098
0.0931371
0.0998438
0.109101
0.121772
0.138655
0.160258
0.18699
0.219058
0.254911
0.290333
0.318923
0.333475
0.330043
0.31101
0.281928
0.251576
0.228519
0.206145
0.162237
0.0832244
-0.0171866
-0.0954844
0.0797773
0.0805562
0.081423
0.0825254
0.0839883
0.0859526
0.0886033
0.0922216
0.0972426
0.104256
0.114002
0.127423
0.14539
0.168401
0.196837
0.230784
0.26831
0.304571
0.332413
0.344372
0.337034
0.31429
0.282757
0.251891
0.229865
0.207795
0.160845
0.0767451
-0.0275484
-0.106059
0.0834041
0.0842124
0.0851043
0.0862326
0.0877273
0.089735
0.0924517
0.0961811
0.101389
0.108719
0.118974
0.133195
0.152312
0.176816
0.207038
0.242929
0.28212
0.319038
0.345857
0.354814
0.343263
0.316873
0.283224
0.252277
0.23149
0.209471
0.158904
0.0694386
-0.0386317
-0.116978
0.0871604
0.0879853
0.0888906
0.0900331
0.091546
0.0935813
0.0963493
0.100177
0.10557
0.113222
0.124012
0.139064
0.15939
0.18545
0.217539
0.255445
0.296279
0.333691
0.35908
0.36464
0.348621
0.318671
0.283283
0.252702
0.233294
0.210985
0.156184
0.0611422
-0.0504883
-0.12822
0.0909981
0.0918409
0.092756
0.0939065
0.0954279
0.0974794
0.100284
0.104198
0.109767
0.117745
0.129077
0.144993
0.166569
0.194251
0.228292
0.268276
0.310701
0.348345
0.371964
0.37372
0.35302
0.319782
0.283151
0.253405
0.235436
0.212397
0.152719
0.0519431
-0.0630289
-0.139718
0.0949453
0.0957939
0.0967094
0.0978592
0.0993776
0.10143
0.104253
0.108232
0.113961
0.122254
0.134135
0.150928
0.1738
0.203169
0.23925
0.281374
0.32531
0.362935
0.384299
0.381881
0.356375
0.32015
0.282801
0.254342
0.237773
0.213471
0.148267
0.0416892
-0.076288
-0.151437
0.0990331
0.0998816
0.100785
0.101916
0.10341
0.10544
0.108255
0.112271
0.118132
0.126721
0.139139
0.15683
0.18104
0.212168
0.250377
0.294682
0.339999
0.37723
0.395947
0.388999
0.358642
0.319945
0.282508
0.255747
0.24042
0.21423
0.142859
0.0304957
-0.0901532
-0.163294
0.103273
0.104108
0.104983
0.106076
0.107524
0.109503
0.112279
0.116298
0.122257
0.131112
0.144061
0.162662
0.188251
0.221213
0.261643
0.308152
0.354668
0.391138
0.406665
0.394905
0.359781
0.319153
0.282249
0.257544
0.243173
0.214405
0.136255
0.0182299
-0.104639
-0.175243
0.107593
0.108416
0.109257
0.110302
0.111687
0.113593
0.116298
0.120287
0.126308
0.135404
0.148868
0.168401
0.195411
0.230285
0.273018
0.321711
0.369175
0.404383
0.416298
0.399502
0.359811
0.318027
0.282331
0.259933
0.246081
0.21398
0.128497
0.0050415
-0.119609
-0.187189
0.111963
0.112763
0.113561
0.114546
0.115852
0.117662
0.12027
0.124195
0.130248
0.139559
0.153535
0.174018
0.2025
0.23936
0.284466
0.335286
0.383384
0.416835
0.424593
0.402652
0.358767
0.316594
0.282721
0.262776
0.248877
0.212662
0.119361
-0.00917367
-0.135051
-0.199076
0.11633
0.117103
0.117852
0.118765
0.119974
0.121666
0.124147
0.127978
0.134032
0.143538
0.15802
0.17949
0.209493
0.248422
0.295963
0.348793
0.397116
0.428179
0.431394
0.404309
0.35676
0.31517
0.283715
0.266199
0.25154
0.210416
0.108911
-0.0242279
-0.150808
-0.2108
0.120691
0.121422
0.122104
0.122927
0.124017
0.125562
0.127884
0.131585
0.137609
0.147287
0.162291
0.184791
0.216377
0.257456
0.307467
0.362131
0.410185
0.438249
0.436464
0.404408
0.353912
0.31381
0.285228
0.269986
0.253738
0.206949
0.0969553
-0.0401894
-0.166845
-0.222293
0.125004
0.125683
0.126284
0.126997
0.127941
0.129306
0.13143
0.134962
0.140918
0.150763
0.16631
0.189898
0.22313
0.266442
0.318939
0.375195
0.422376
0.446722
0.439682
0.402991
0.350446
0.312849
0.287495
0.274157
0.255384
0.20222
0.0835912
-0.0568314
-0.182986
-0.233448
0.129253
0.129862
0.130358
0.130935
0.131699
0.132845
0.13473
0.138051
0.143917
0.153927
0.170052
0.194779
0.229712
0.275339
0.330318
0.387849
0.433455
0.453413
0.44089
0.400109
0.346589
0.312313
0.290345
0.278398
0.256114
0.195961
0.0686811
-0.074183
-0.199166
-0.24419
0.133364
0.133888
0.13426
0.134673
0.135225
0.136118
0.137727
0.14081
0.146567
0.156748
0.173478
0.199384
0.236068
0.2841
0.341561
0.39997
0.443167
0.458049
0.440056
0.395942
0.342654
0.312488
0.293887
0.282613
0.255794
0.188153
0.0523601
-0.0919792
-0.215199
-0.254415
0.137276
0.137694
0.137914
0.138134
0.138442
0.139046
0.140347
0.14317
0.148809
0.159162
0.176523
0.203615
0.242122
0.29268
0.352586
0.411377
0.451237
0.460478
0.437163
0.390721
0.338934
0.3133
0.297822
0.286407
0.254055
0.178585
0.0345512
-0.110208
-0.231002
-0.264037
0.140866
0.14116
0.141206
0.141201
0.141229
0.141507
0.142469
0.145013
0.150529
0.161071
0.179089
0.207374
0.2478
0.301033
0.363317
0.42189
0.45739
0.460546
0.432347
0.38479
0.335768
0.314856
0.302097
0.289575
0.250755
0.167279
0.0154397
-0.12857
-0.24638
-0.272965
0.143992
0.144135
0.143973
0.14371
0.14342
0.143331
0.143921
0.146167
0.151567
0.162334
0.181063
0.210556
0.253018
0.309071
0.373604
0.431277
0.461348
0.458222
0.425795
0.378596
0.333422
0.316882
0.306294
0.291669
0.245577
0.154105
-0.004974
-0.147019
-0.26123
-0.281112
0.146469
0.146427
0.146023
0.145462
0.144812
0.144313
0.144492
0.146427
0.151734
0.162782
0.182297
0.213032
0.257676
0.316703
0.383326
0.439317
0.462856
0.453562
0.417891
0.372699
0.332055
0.319204
0.310214
0.292445
0.238414
0.139154
-0.0264524
-0.165231
-0.275362
-0.288398
0.148104
0.147833
0.147141
0.146235
0.145177
0.14422
0.14395
0.145565
0.150808
0.162218
0.182597
0.214611
0.261574
0.32371
0.392299
0.445765
0.461738
0.446829
0.409175
0.367807
0.331491
0.321207
0.313351
0.291517
0.229054
0.122405
-0.0489182
-0.183132
-0.288667
-0.294739
0.148684
0.148135
0.147097
0.145789
0.144266
0.142798
0.142042
0.143322
0.148541
0.160397
0.181707
0.215041
0.26444
0.329867
0.40039
0.450375
0.457861
0.438512
0.400593
0.364472
0.331093
0.3223
0.315359
0.288727
0.217505
0.104049
-0.0720706
-0.200389
-0.300973
-0.300079
0.147969
0.14708
0.145636
0.143862
0.141809
0.139774
0.138481
0.139411
0.14466
0.15703
0.179274
0.213957
0.265875
0.334777
0.407374
0.452875
0.45128
0.429497
0.393531
0.362524
0.329656
0.321818
0.315751
0.28388
0.203752
0.0842034
-0.0957306
-0.216916
-0.312168
-0.304334
0.145688
0.1444
0.142479
0.140167
0.137516
0.134846
0.132967
0.133576
0.138896
0.151831
0.174886
0.21085
0.265325
0.337882
0.413009
0.453054
0.44286
0.42175
0.388219
0.360319
0.32616
0.319472
0.314223
0.276966
0.187938
0.063192
-0.119529
-0.232388
-0.322105
-0.307462
0.14157
0.139819
0.137348
0.134423
0.131103
0.127741
0.125275
0.125579
0.131053
0.144557
0.168167
0.205106
0.261909
0.338034
0.41664
0.450575
0.433895
0.416375
0.383561
0.35656
0.320715
0.315943
0.310723
0.267726
0.170108
0.0412611
-0.143204
-0.246721
-0.330682
-0.309399
0.135326
0.133045
0.129961
0.126359
0.122318
0.118233
0.115179
0.115267
0.120966
0.134993
0.158814
0.196064
0.254531
0.333287
0.417132
0.446034
0.427132
0.410494
0.378492
0.351141
0.313776
0.312506
0.305716
0.255744
0.150238
0.0187867
-0.16635
-0.259631
-0.337789
-0.310163
0.126649
0.123785
0.120029
0.115697
0.110896
0.106077
0.102481
0.102457
0.108509
0.122984
0.146494
0.182718
0.241604
0.320655
0.410521
0.437908
0.422211
0.401297
0.373784
0.344398
0.305
0.308582
0.29844
0.240216
0.128279
-0.00392189
-0.188665
-0.271075
-0.34337
-0.309742
0.115155
0.111664
0.107191
0.102101
0.0965338
0.0910128
0.0869592
0.0870136
0.0935991
0.108461
0.131077
0.163657
0.221102
0.30561
0.393563
0.424505
0.41265
0.393383
0.370719
0.335365
0.292205
0.301254
0.286831
0.220196
0.104252
-0.0263972
-0.209764
-0.280842
-0.347395
-0.308178
0.100412
0.0962548
0.0910394
0.0851828
0.0788881
0.0727656
0.0684576
0.0688307
0.0761981
0.0913995
0.112386
0.136247
0.186623
0.28371
0.366838
0.409277
0.399807
0.393947
0.369287
0.322265
0.273326
0.28834
0.269512
0.195231
0.0784693
-0.0482232
-0.229353
-0.28897
-0.34985
-0.305451
0.0819114
0.0770628
0.0710896
0.0644966
0.0575703
0.051059
0.0468347
0.0479633
0.0563199
0.0718779
0.0900216
0.0978648
0.137211
0.249471
0.334983
0.396331
0.390042
0.401416
0.36733
0.302992
0.247189
0.269459
0.246627
0.166056
0.0515637
-0.0688407
-0.247103
-0.295365
-0.350747
-0.301608
0.0590356
0.053473
0.0467544
0.0394885
0.0321053
0.0255556
0.0220107
0.0244813
0.0341853
0.0502038
0.0642827
0.0542756
0.0820615
0.203171
0.304561
0.388449
0.384779
0.408666
0.36283
0.276864
0.213473
0.244653
0.21823
0.134072
0.0246071
-0.0876698
-0.26275
-0.300169
-0.350083
-0.296639
0.0310278
0.0247282
0.0172766
0.00944
0.0018665
-0.00420092
-0.00631039
-0.00167246
0.0100174
0.0265167
0.0371648
0.0170782
0.0391634
0.152811
0.280194
0.384209
0.381176
0.411712
0.354358
0.244123
0.17277
0.21366
0.184354
0.100569
-0.00142382
-0.104002
-0.276035
-0.303362
-0.347871
-0.290622
-0.00305162
-0.0101481
-0.0183306
-0.0266124
-0.0340163
-0.0389243
-0.0388055
-0.0312085
-0.0166801
-0.0011214
0.00937589
-0.0072234
0.0129782
0.111853
0.262018
0.379803
0.378412
0.409768
0.340225
0.205762
0.127343
0.176
0.14515
0.0665388
-0.0255823
-0.117347
-0.286746
-0.305072
-0.34408
-0.28358
-0.0443435
-0.0523605
-0.0613153
-0.069917
-0.0767374
-0.0798445
-0.0764228
-0.0648968
-0.0469404
-0.0336815