/*--------------------------------*- C++ -*----------------------------------*\
  =========                 |
  \\      /  F ield         | OpenFOAM: The Open Source CFD Toolbox
   \\    /   O peration     | Website:  https://openfoam.org
    \\  /    A nd           | Version:  6.0
     \\/     M anipulation  |
\*---------------------------------------------------------------------------*/
FoamFile
{
    version     2.0;
    format      ascii;
    class       surfaceScalarField;
    location    "13";
    object      phi;
}
// * * * * * * * * * * * * * * * * * * * * * * * * * * * * * * * * * * * * * //

dimensions      [0 3 -1 0 0 0 0];

internalField   nonuniform List<scalar> 
30763
(
-5.30074e-05
4.48236e-05
5.45301e-05
-5.12193e-05
5.25495e-05
-4.91191e-05
6.16088e-05
-4.66604e-05
7.22321e-05
-4.37698e-05
8.46863e-05
-4.0382e-05
9.92924e-05
-3.64054e-05
0.000116424
-3.17228e-05
0.000136491
-2.62252e-05
0.000160043
-1.97404e-05
0.00018762
-1.21025e-05
0.000219958
-3.10433e-06
0.000257841
7.50976e-06
0.000302191
2.0038e-05
0.000354069
3.4805e-05
0.000414707
5.21972e-05
0.000485441
7.26656e-05
0.000567728
9.67095e-05
0.000663105
0.00012488
0.000773034
0.000157787
0.000898697
0.00019607
0.00104061
0.000240318
0.00119804
0.000291023
0.00136784
0.00034841
0.0015429
0.00041218
0.00170946
0.000481108
0.0018434
0.000552509
0.00190445
0.000621328
0.00182913
0.000678923
0.00151959
0.000835973
0.000697605
-5.14434e-05
4.3347e-05
5.29155e-05
-4.97149e-05
5.08185e-05
-4.76864e-05
5.95798e-05
-4.53108e-05
6.98537e-05
-4.25191e-05
8.1895e-05
-3.92469e-05
9.60177e-05
-3.5407e-05
0.000112585
-3.08854e-05
0.000131968
-2.55776e-05
0.000154736
-1.93164e-05
0.000181358
-1.19425e-05
0.000212585
-3.25403e-06
0.000249152
6.99492e-06
0.000291943
1.90933e-05
0.000341971
3.3353e-05
0.000400448
5.01465e-05
0.000468648
6.99094e-05
0.000547969
9.31188e-05
0.000639899
0.000120307
0.000745851
0.000152057
0.000866953
0.000188983
0.00100369
0.000231652
0.00115538
0.000280539
0.00131897
0.000335862
0.00148759
0.000397336
0.00164801
0.00046378
0.00177699
0.000532586
0.00183569
0.000598951
0.00176285
0.000652124
0.00146653
0.000814884
0.000673549
-4.99562e-05
4.1921e-05
5.13749e-05
-4.82869e-05
4.91468e-05
-4.63281e-05
5.762e-05
-4.40329e-05
6.75565e-05
-4.13365e-05
7.91989e-05
-3.81754e-05
9.28548e-05
-3.44669e-05
0.000108877
-3.00996e-05
0.000127599
-2.4974e-05
0.000149611
-1.8928e-05
0.000175312
-1.18085e-05
0.000205466
-3.42053e-06
0.000240765
6.4728e-06
0.00028205
1.81497e-05
0.000330295
3.19102e-05
0.000386688
4.81149e-05
0.000452445
6.71814e-05
0.000528904
8.95719e-05
0.000617513
0.000115798
0.00071963
0.000146422
0.000836334
0.000182038
0.000968082
0.000223192
0.00111423
0.000270341
0.00127182
0.000323695
0.00143423
0.000382974
0.00158872
0.000447043
0.00171291
0.000513351
0.00176935
0.000577347
0.00169881
0.000629357
0.00141444
0.000790864
0.000653153
-4.85437e-05
4.05464e-05
4.99163e-05
-4.6931e-05
4.75347e-05
-4.50417e-05
5.57297e-05
-4.28261e-05
6.534e-05
-4.02246e-05
7.6597e-05
-3.7173e-05
8.9802e-05
-3.35936e-05
0.000105298
-2.93773e-05
0.000123382
-2.44295e-05
0.000144664
-1.8593e-05
0.000169475
-1.17213e-05
0.000198595
-3.62591e-06
0.000232669
5.92045e-06
0.000272505
1.71856e-05
0.00031903
3.04598e-05
0.000373414
4.60899e-05
0.000436816
6.44807e-05
0.000510517
8.60764e-05
0.00059592
0.000111373
0.000694338
0.000140913
0.000806799
0.000175272
0.000933731
0.000214975
0.00107454
0.000260461
0.00122635
0.000311927
0.00138279
0.000369095
0.00153158
0.000430873
0.00165118
0.000494779
0.00170551
0.000556467
0.00163722
0.000607276
0.0013638
0.000767034
0.000631474
-4.71644e-05
3.9221e-05
4.84815e-05
-4.5611e-05
4.59801e-05
-4.37896e-05
5.39066e-05
-4.16523e-05
6.32022e-05
-3.91432e-05
7.40872e-05
-3.61988e-05
8.6857e-05
-3.2746e-05
0.000101845
-2.86779e-05
0.000119313
-2.39049e-05
0.000139891
-1.82739e-05
0.000163844
-1.16446e-05
0.000191966
-3.83511e-06
0.00022486
5.37338e-06
0.000263297
1.62391e-05
0.000308165
2.90416e-05
0.000360613
4.41168e-05
0.000421743
6.18529e-05
0.000492781
8.26829e-05
0.000575095
0.000107081
0.000669944
0.000135576
0.00077831
0.000168719
0.000900593
0.000207019
0.00103624
0.000250893
0.00118248
0.000300526
0.00133315
0.000355644
0.00147646
0.000415202
0.0015916
0.000476798
0.00164388
0.000536216
0.00157774
0.000585436
0.00131448
0.000742627
0.00060956
-4.57672e-05
3.79467e-05
4.70402e-05
-4.42696e-05
4.44854e-05
-4.25179e-05
5.21531e-05
-4.046e-05
6.11454e-05
-3.80459e-05
7.16718e-05
-3.52105e-05
8.40218e-05
-3.18861e-05
9.852e-05
-2.7967e-05
0.000115394
-2.33684e-05
0.000135292
-1.79414e-05
0.000158418
-1.15517e-05
0.000185576
-4.02278e-06
0.000217332
4.85544e-06
0.000254419
1.5332e-05
0.000297689
2.76771e-05
0.000348269
4.22126e-05
0.000407208
5.93174e-05
0.00047568
7.94032e-05
0.000555011
0.000102933
0.000646418
0.000130412
0.000750837
0.000162373
0.000868637
0.000199307
0.000999317
0.000241614
0.00114019
0.000289467
0.00128532
0.000342602
0.00142335
0.000400017
0.00153424
0.000459399
0.00158456
0.000516622
0.00152064
0.000564241
0.00126704
0.000718594
0.000588674
-4.43857e-05
3.67194e-05
4.56055e-05
-4.29455e-05
4.3046e-05
-4.12598e-05
5.04649e-05
-3.92787e-05
5.91654e-05
-3.69555e-05
6.93467e-05
-3.42255e-05
8.12926e-05
-3.10258e-05
9.53189e-05
-2.72518e-05
0.000111621
-2.2824e-05
0.000130863
-1.75966e-05
0.000153191
-1.14414e-05
0.000179421
-4.18699e-06
0.000210078
4.36915e-06
0.000245864
1.4467e-05
0.000287592
2.63666e-05
0.00033637
4.03804e-05
0.000393196
5.68692e-05
0.000459192
7.62349e-05
0.000535649
9.89204e-05
0.000623737
0.000125413
0.000724348
0.000156228
0.000837827
0.000191835
0.000963712
0.000232622
0.0010994
0.000278755
0.00123919
0.00032998
0.00137212
0.000385336
0.00147886
0.000442606
0.00152725
0.000497743
0.00146544
0.000543877
0.00122078
0.000693319
0.00056885
-4.30395e-05
3.5538e-05
4.42189e-05
-4.16498e-05
4.16609e-05
-4.00281e-05
4.88407e-05
-3.81205e-05
5.72605e-05
-3.58858e-05
6.71098e-05
-3.32584e-05
7.86668e-05
-3.01797e-05
9.22386e-05
-2.6547e-05
0.000107989
-2.2285e-05
0.000126601
-1.72518e-05
0.000148159
-1.13245e-05
0.000173494
-4.33648e-06
0.000203091
3.90687e-06
0.000237621
1.36371e-05
0.000277862
2.51057e-05
0.000324902
3.8612e-05
0.000379691
5.45064e-05
0.0004433
7.31727e-05
0.000516983
9.504e-05
0.000601872
0.000120577
0.000698814
0.000150281
0.00080813
0.000184604
0.000929398
0.000223921
0.0010601
0.000268395
0.00119473
0.000317786
0.00132276
0.00037117
0.00142552
0.000426425
0.00147207
0.000479597
0.00141238
0.000524304
0.00117627
0.000668415
0.000549639
-4.17698e-05
3.43967e-05
4.29024e-05
-4.04309e-05
4.03237e-05
-3.88671e-05
4.72734e-05
-3.70282e-05
5.54234e-05
-3.48749e-05
6.49534e-05
-3.23428e-05
7.61362e-05
-2.93775e-05
8.92708e-05
-2.58779e-05
0.000104491
-2.17734e-05
0.000122494
-1.69251e-05
0.000143312
-1.12158e-05
0.000167784
-4.48407e-06
0.00019636
3.458e-06
0.00022968
1.28341e-05
0.000268487
2.3886e-05
0.000313851
3.69035e-05
0.000366675
5.22208e-05
0.000427982
7.02129e-05
0.000498994
9.12889e-05
0.000580798
0.000115904
0.000674203
0.000144533
0.000779503
0.000177617
0.000896316
0.000215517
0.0010222
0.000258396
0.00115185
0.000306025
0.00127511
0.000357522
0.00137399
0.000410852
0.00141869
0.000462167
0.00136099
0.000505449
0.00113284
0.000642799
0.000530727
-4.05828e-05
3.32947e-05
4.16801e-05
-3.9287e-05
3.9033e-05
-3.77784e-05
4.57612e-05
-3.6003e-05
5.36513e-05
-3.39268e-05
6.2874e-05
-3.14851e-05
7.36965e-05
-2.86271e-05
8.64103e-05
-2.52541e-05
0.00010112
-2.1299e-05
0.000118538
-1.66271e-05
0.000138641
-1.1126e-05
0.000162282
-4.63918e-06
0.000189875
3.01405e-06
0.000222027
1.20496e-05
0.000259452
2.27015e-05
0.000303201
3.52462e-05
0.00035413
5.00108e-05
0.00041322
6.73501e-05
0.000481654
8.76642e-05
0.000560485
0.000111389
0.000650482
0.000138983
0.000751913
0.000170873
0.000864435
0.00020741
0.000985674
0.000248755
0.00111052
0.000294695
0.0012292
0.000344382
0.00132435
0.000395868
0.00136728
0.000445419
0.00131157
0.00048726
0.0010912
0.000618438
0.000512086
-3.94869e-05
3.22282e-05
4.05437e-05
-3.82354e-05
3.77842e-05
-3.67776e-05
4.42987e-05
-3.50621e-05
5.19383e-05
-3.30573e-05
6.08648e-05
-3.06993e-05
7.13404e-05
-2.79414e-05
8.36487e-05
-2.46863e-05
9.7866e-05
-2.08716e-05
0.00011472
-1.63656e-05
0.000134136
-1.10616e-05
0.000156977
-4.80799e-06
0.000183622
2.56957e-06
0.000214651
1.12795e-05
0.000250742
2.15463e-05
0.000292935
3.36395e-05
0.000342039
4.78691e-05
0.000398989
6.45827e-05
0.000464942
8.41633e-05
0.000540907
0.000107031
0.000627617
0.000133631
0.000725315
0.000164373
0.000833694
0.0001996
0.000950444
0.000239473
0.00107064
0.000283791
0.00118486
0.000331741
0.00127637
0.000381455
0.00131751
0.000429317
0.00126363
0.000469718
0.00105064
0.000594009
0.000493795
-3.84692e-05
3.11977e-05
3.94927e-05
-3.72566e-05
3.65774e-05
-3.5848e-05
4.28853e-05
-3.41891e-05
5.0283e-05
-3.22521e-05
5.89236e-05
-2.99739e-05
6.90646e-05
-2.73106e-05
8.0982e-05
-2.41677e-05
9.4725e-05
-2.0486e-05
0.000111036
-1.61379e-05
0.00012979
-1.10215e-05
0.00015186
-4.98994e-06
0.000177591
2.12416e-06
0.000207537
1.0522e-05
0.000242345
2.04211e-05
0.000283037
3.20789e-05
0.000330382
4.57976e-05
0.000385272
6.19085e-05
0.000448829
8.07839e-05
0.000522032
0.000102829
0.000605573
0.000128474
0.000699676
0.000158114
0.00080406
0.000192084
0.000916488
0.000230542
0.0010322
0.000273303
0.00114213
0.000319582
0.00123013
0.00036759
0.00126958
0.000413827
0.00121752
0.000452805
0.00101187
0.000571325
0.000475981
-3.75144e-05
3.02004e-05
3.84984e-05
-3.63439e-05
3.54094e-05
-3.4982e-05
4.15175e-05
-3.33779e-05
4.86814e-05
-3.15056e-05
5.7046e-05
-2.93028e-05
6.68638e-05
-2.67295e-05
7.84041e-05
-2.36926e-05
9.16898e-05
-2.01372e-05
0.000107477
-1.59389e-05
0.000125593
-1.10009e-05
0.00014692
-5.18127e-06
0.000171773
1.68098e-06
0.000200675
9.78046e-06
0.000234246
1.93262e-05
0.000273492
3.05681e-05
0.000319142
4.37937e-05
0.000372044
5.93278e-05
0.000433296
7.75258e-05
0.000503833
9.87822e-05
0.000584319
0.000123509
0.00067495
0.000152092
0.000775477
0.000184856
0.00088372
0.000221956
0.000995092
0.000263219
0.00110085
0.000307892
0.00118542
0.00035425
0.00122316
0.000398916
0.00117276
0.000436508
0.000974107
0.000548726
0.000458717
-3.65994e-05
2.92381e-05
3.75529e-05
-3.54657e-05
3.42819e-05
-3.41509e-05
4.01967e-05
-3.26001e-05
4.71344e-05
-3.07916e-05
5.52321e-05
-2.86631e-05
6.47378e-05
-2.61774e-05
7.59139e-05
-2.32439e-05
8.87583e-05
-1.98106e-05
0.000104041
-1.5757e-05
0.000121541
-1.09908e-05
0.000142152
-5.37448e-06
0.000166158
1.24617e-06
0.000194055
9.05884e-06
0.000226433
1.82663e-05
0.000264287
2.91067e-05
0.000308302
4.18622e-05
0.00035929
5.684e-05
0.000418315
7.43887e-05
0.000486284
9.48866e-05
0.000563823
0.000118734
0.000651105
0.000146302
0.000747916
0.000177907
0.000852126
0.000213703
0.000959315
0.000253525
0.00106105
0.000296648
0.00114234
0.000341411
0.00117847
0.000384555
0.00112976
0.000420803
0.000938075
0.000527984
0.000442061
-3.57144e-05
2.83083e-05
3.66293e-05
-3.46212e-05
3.31922e-05
-3.33514e-05
3.89201e-05
-3.18529e-05
4.56392e-05
-3.01061e-05
5.3479e-05
-2.80489e-05
6.26831e-05
-2.56481e-05
7.35075e-05
-2.28139e-05
8.5926e-05
-1.94984e-05
0.000100721
-1.55839e-05
0.000117628
-1.09828e-05
0.000137549
-5.56229e-06
0.000160738
8.26007e-07
0.000187667
8.36321e-06
0.000218896
1.72441e-05
0.000255406
2.77011e-05
0.000297846
4.00015e-05
0.000346987
5.44471e-05
0.000403868
7.13717e-05
0.000469359
9.11414e-05
0.000544054
0.000114144
0.000628105
0.000140738
0.000721321
0.00017123
0.00082163
0.000205771
0.000924763
0.000244205
0.00102259
0.000285831
0.00110068
0.00032905
0.0011352
0.000370717
0.001088
0.000405671
0.000902929
0.000507235
0.000426011
-3.48391e-05
2.74129e-05
3.57248e-05
-3.37818e-05
3.21423e-05
-3.25582e-05
3.76894e-05
-3.11117e-05
4.4197e-05
-2.94268e-05
5.17876e-05
-2.74411e-05
6.07002e-05
-2.51238e-05
7.11848e-05
-2.23877e-05
8.31919e-05
-1.91872e-05
9.75166e-05
-1.54085e-05
0.000113851
-1.09678e-05
0.000133106
-5.73671e-06
0.000155508
4.27159e-07
0.000181503
7.69824e-06
0.000211625
1.62658e-05
0.00024684
2.63515e-05
0.000287761
3.82167e-05
0.000335122
5.2149e-05
0.000389932
6.84733e-05
0.000453034
8.75433e-05
0.000524984
0.000109733
0.000605918
0.00013539
0.000695669
0.000164812
0.000792219
0.000198144
0.000891445
0.00023524
0.000985523
0.000275421
0.00106053
0.000317143
0.00109355
0.000357376
0.0010479
0.000391082
0.00086945
0.000488283
0.000410566
-3.39759e-05
2.65484e-05
3.48218e-05
-3.29585e-05
3.11286e-05
-3.17779e-05
3.65011e-05
-3.03818e-05
4.28046e-05
-2.87558e-05
5.01545e-05
-2.68383e-05
5.87857e-05
-2.46021e-05
6.89422e-05
-2.19605e-05
8.05524e-05
-1.88719e-05
9.44232e-05
-1.52247e-05
0.000110205
-1.09395e-05
0.000128819
-5.89201e-06
0.000150461
5.47342e-08
0.000175557
7.06929e-06
0.000204611
1.53334e-05
0.000238577
2.5063e-05
0.000278033
3.65065e-05
0.000323676
4.99459e-05
0.000376491
6.56921e-05
0.000437285
8.40892e-05
0.000506589
0.000105497
0.00058451
0.000130253
0.000670912
0.000158643
0.000763823
0.000190811
0.000859265
0.000226615
0.000949696
0.000265399
0.00102171
0.000305671
0.00105322
0.000344511
0.00100896
0.000377016
0.000836746
0.00046916
0.00039569
-3.31043e-05
2.57172e-05
3.39251e-05
-3.21207e-05
3.01534e-05
-3.09852e-05
3.53573e-05
-2.96395e-05
4.14636e-05
-2.80738e-05
4.8581e-05
-2.62257e-05
5.69405e-05
-2.40703e-05
6.67802e-05
-2.15229e-05
7.80072e-05
-1.85444e-05
9.14397e-05
-1.50263e-05
0.000106689
-1.08929e-05
0.000124683
-6.02365e-06
0.000145593
-2.87169e-07
0.00016982
6.47862e-06
0.000197844
1.44505e-05
0.000230607
2.38343e-05
0.000268649
3.48737e-05
0.000312636
4.78362e-05
0.000363524
6.30262e-05
0.000422093
8.0774e-05
0.000488841
0.000101428
0.000563858
0.000125315
0.00064703
0.000152711
0.000736436
0.000183757
0.000828235
0.000218312
0.000915162
0.000255744
0.000984314
0.000294611
0.00101442
0.000332099
0.000971612
0.000363445
0.000805625
0.000451798
0.000381366
-3.22445e-05
2.4915e-05
3.30267e-05
-3.12988e-05
2.92124e-05
-3.02039e-05
3.42539e-05
-2.89058e-05
4.01702e-05
-2.73963e-05
4.70636e-05
-2.56132e-05
5.5161e-05
-2.35352e-05
6.46951e-05
-2.10782e-05
7.55524e-05
-1.82061e-05
8.8562e-05
-1.48128e-05
0.000103297
-1.08265e-05
0.000120693
-6.13016e-06
0.000140897
-5.97427e-07
0.000164287
5.92812e-06
0.000191319
1.36164e-05
0.000222919
2.26684e-05
0.000259598
3.33152e-05
0.000301986
4.5819e-05
0.000351017
6.04721e-05
0.000407438
7.7594e-05
0.000471719
9.75222e-05
0.00054393
0.00012057
0.00062398
0.000147008
0.000709993
0.000176968
0.000798263
0.000210317
0.000881789
0.000246442
0.000948147
0.000283948
0.000976853
0.000320125
0.000935332
0.000350354
0.000775185
0.000434125
0.000367557
-3.1375e-05
2.41442e-05
3.21342e-05
-3.04614e-05
2.83078e-05
-2.94097e-05
3.31926e-05
-2.81603e-05
3.89254e-05
-2.67082e-05
4.56025e-05
-2.49915e-05
5.34469e-05
-2.29901e-05
6.26861e-05
-2.06222e-05
7.31866e-05
-1.7854e-05
8.57882e-05
-1.45827e-05
0.000100027
-1.07393e-05
0.000116847
-6.21074e-06
0.000136369
-8.75358e-07
0.000158952
5.41727e-06
0.000185025
1.28325e-05
0.000215506
2.1562e-05
0.000250869
3.18315e-05
0.000291715
4.38918e-05
0.000338952
5.80262e-05
0.0003933
7.4544e-05
0.0004552
9.37705e-05
0.000524705
0.000116009
0.000601745
0.000141521
0.000684491
0.000170432
0.000769365
0.000202615
0.000849627
0.000237474
0.000913321
0.000273663
0.000940739
0.000308569
0.000900564
0.00033772
0.000746268
0.000418164
0.000354256
-3.05255e-05
2.33998e-05
3.12452e-05
-2.9648e-05
2.74345e-05
-2.86335e-05
3.21684e-05
-2.74281e-05
3.77246e-05
-2.60278e-05
4.41935e-05
-2.43715e-05
5.17942e-05
-2.24423e-05
6.07491e-05
-2.01593e-05
7.09058e-05
-1.74913e-05
8.3114e-05
-1.43374e-05
9.68747e-05
-1.06324e-05
0.000113138
-6.26622e-06
0.000132003
-1.12199e-06
0.000153807
4.94589e-06
0.000178957
1.20961e-05
0.000208356
2.05155e-05
0.000242451
3.0419e-05
0.000281808
4.20511e-05
0.000327316
5.56845e-05
0.000379664
7.16192e-05
0.000439266
9.0168e-05
0.000506157
0.000111625
0.000580287
0.000136241
0.00065987
0.000164139
0.000741455
0.000195194
0.000818549
0.00022883
0.000879642
0.000263744
0.00090576
0.000297419
0.000866781
0.000325531
0.00071794
0.000401763
0.000341424
-2.96642e-05
2.2685e-05
3.03662e-05
-2.88159e-05
2.65955e-05
-2.78421e-05
3.11838e-05
-2.66827e-05
3.65696e-05
-2.53369e-05
4.28375e-05
-2.37432e-05
5.0203e-05
-2.18865e-05
5.88837e-05
-1.96875e-05
6.87087e-05
-1.71173e-05
8.05374e-05
-1.4078e-05
9.38367e-05
-1.05071e-05
0.000109564
-6.29836e-06
0.000127795
-1.33883e-06
0.000148847
4.51125e-06
0.000173106
1.14063e-05
0.000201462
1.95245e-05
0.000234332
2.90756e-05
0.000272255
4.02934e-05
0.000316093
5.34432e-05
0.00036651
6.88136e-05
0.000423895
8.67077e-05
0.000488263
0.000107409
0.000559589
0.00013116
0.000636127
0.000158078
0.00071455
0.000188041
0.000788603
0.000220493
0.000847224
0.000254175
0.000872149
0.00028666
0.000834437
0.000313767
0.000691063
0.000387053
0.000329059
-2.88343e-05
2.19941e-05
2.94987e-05
-2.8019e-05
2.5785e-05
-2.7079e-05
3.02334e-05
-2.59595e-05
3.54554e-05
-2.46613e-05
4.153e-05
-2.31235e-05
4.86693e-05
-2.13341e-05
5.70858e-05
-1.92142e-05
6.65913e-05
-1.67377e-05
7.80541e-05
-1.38083e-05
9.09087e-05
-1.03668e-05
0.000106119
-6.30976e-06
0.000123738
-1.52872e-06
0.000144066
4.11146e-06
0.000167465
1.0759e-05
0.000194816
1.85876e-05
0.000226505
2.7797e-05
0.000263042
3.86147e-05
0.000305269
5.12971e-05
0.000353825
6.61225e-05
0.000409069
8.33841e-05
0.000471002
0.000103355
0.000539617
0.000126269
0.000613209
0.00015224
0.000688567
0.000181149
0.000759671
0.000212456
0.000815873
0.000244946
0.000839593
0.00027628
0.000802993
0.000302419
0.000664697
0.000371822
0.000317124
-2.79955e-05
2.13309e-05
2.8645e-05
-2.72075e-05
2.50066e-05
-2.63061e-05
2.93197e-05
-2.52301e-05
3.43834e-05
-2.3983e-05
4.02713e-05
-2.25037e-05
4.71921e-05
-2.07814e-05
5.53538e-05
-1.87394e-05
6.45511e-05
-1.63534e-05
7.56611e-05
-1.35303e-05
8.80868e-05
-1.02135e-05
0.000102798
-6.30305e-06
0.000119828
-1.69414e-06
0.000139456
3.74294e-06
0.000162027
1.01524e-05
0.000188408
1.77001e-05
0.000218958
2.65801e-05
0.00025416
3.70117e-05
0.000294833
4.92417e-05
0.00034159
6.35406e-05
0.000394769
8.01903e-05
0.000454354
9.94554e-05
0.000520355
0.000121561
0.000591111
0.000146616
0.000663523
0.000174505
0.000731801
0.000204706
0.000785703
0.000236044
0.000808328
0.000266266
0.000772908
0.00029147
0.000639729
0.000358253
0.000305624
-2.71994e-05
2.0689e-05
2.78105e-05
-2.64423e-05
2.42536e-05
-2.55706e-05
2.84369e-05
-2.45304e-05
3.33484e-05
-2.33258e-05
3.90569e-05
-2.18971e-05
4.57676e-05
-2.02362e-05
5.3684e-05
-1.82671e-05
6.25845e-05
-1.59678e-05
7.33546e-05
-1.32466e-05
8.5367e-05
-1.00501e-05
9.95975e-05
-6.28074e-06
0.000116058
-1.83809e-06
0.000135013
3.40349e-06
0.000156785
9.58227e-06
0.00018223
1.68596e-05
0.000211682
2.54213e-05
0.000245595
3.54789e-05
0.000284768
4.72725e-05
0.000329793
6.10628e-05
0.000380979
7.71215e-05
0.000438296
9.57048e-05
0.000501772
0.000117029
0.000569784
0.0001412
0.000639342
0.000168103
0.000704874
0.000197235
0.000756527
0.000227461
0.000778035
0.000256609
0.000743648
0.000280912
0.000615195
0.000344087
0.000294527
-2.63901e-05
2.00732e-05
2.69925e-05
-2.56574e-05
2.35308e-05
-2.48219e-05
2.75885e-05
-2.38222e-05
3.2353e-05
-2.26659e-05
3.7888e-05
-2.12917e-05
4.43958e-05
-1.96938e-05
5.20755e-05
-1.77969e-05
6.06897e-05
-1.55818e-05
7.1132e-05
-1.29593e-05
8.27459e-05
-9.87872e-06
9.65129e-05
-6.24571e-06
0.000112426
-1.96311e-06
0.00013073
3.0894e-06
0.000151731
9.04641e-06
0.000176274
1.6062e-05
0.000204667
2.43163e-05
0.000237337
3.40136e-05
0.000275065
4.53855e-05
0.000318416
5.8684e-05
0.00036768
7.4172e-05
0.000422808
9.20962e-05
0.00048385
0.000112666
0.000549221
0.000135982
0.000616038
0.000161933
0.000678938
0.000190033
0.000728459
0.000219185
0.000748952
0.000247297
0.000715674
0.00027073
0.000591993
0.000331568
0.00028384
-2.56327e-05
1.94768e-05
2.6199e-05
-2.49273e-05
2.28313e-05
-2.41186e-05
2.67684e-05
-2.31506e-05
3.13918e-05
-2.2033e-05
3.67603e-05
-2.0705e-05
4.3073e-05
-1.91637e-05
5.05248e-05
-1.73342e-05
5.88633e-05
-1.51995e-05
6.89896e-05
-1.26716e-05
8.02195e-05
-9.70255e-06
9.35396e-05
-6.20041e-06
0.000108924
-2.0722e-06
0.000126602
2.79849e-06
0.00014686
8.54082e-06
0.000170533
1.53045e-05
0.000197904
2.32621e-05
0.000229376
3.26108e-05
0.000265709
4.35758e-05
0.000307447
5.63999e-05
0.000354856
7.13371e-05
0.000407873
8.86251e-05
0.000466563
0.000108466
0.000529377
0.000130957
0.000593537
0.00015599
0.000653883
0.000183093
0.000701313
0.000211209
0.000720769
0.000238321
0.000688449
0.000260917
0.000569161
0.000318391
0.00027353
-2.48615e-05
1.8905e-05
2.54217e-05
-2.41793e-05
2.216e-05
-2.34051e-05
2.59803e-05
-2.24756e-05
3.04669e-05
-2.14033e-05
3.56743e-05
-2.01259e-05
4.17983e-05
-1.86427e-05
4.903e-05
-1.68797e-05
5.71026e-05
-1.48224e-05
6.69243e-05
-1.23854e-05
7.7784e-05
-9.52322e-06
9.06733e-05
-6.14728e-06
0.000105548
-2.16759e-06
0.000122622
2.52774e-06
0.000142164
8.06359e-06
0.000164999
1.45838e-05
0.000191385
2.22548e-05
0.000221702
3.12682e-05
0.00025669
4.18399e-05
0.00029687
5.42062e-05
0.000342488
6.86113e-05
0.000393468
8.52855e-05
0.000449891
0.000104423
0.000510246
0.000126118
0.000571853
0.000150264
0.000629754
0.000176406
0.0006752
0.000203522
0.000693723
0.00022967
0.000662433
0.000251459
0.000547608
0.000306833
0.000263607
-2.41511e-05
1.83502e-05
2.46734e-05
-2.34941e-05
2.15093e-05
-2.27432e-05
2.52175e-05
-2.18417e-05
2.95729e-05
-2.08034e-05
3.46256e-05
-1.95676e-05
4.05684e-05
-1.81358e-05
4.75884e-05
-1.64345e-05
5.54049e-05
-1.44511e-05
6.4933e-05
-1.21013e-05
7.54361e-05
-9.34229e-06
8.79101e-05
-6.08788e-06
0.000102293
-2.25069e-06
0.000118785
2.27541e-06
0.000137637
7.6121e-06
0.000159664
1.38982e-05
0.000185103
2.12915e-05
0.000214304
2.99805e-05
0.000247993
4.0174e-05
0.000286672
5.20989e-05
0.000330564
6.5991e-05
0.000379578
8.20734e-05
0.000433811
0.000100533
0.000491785
0.00012146
0.000550918
0.000144751
0.000606442
0.000169965
0.000649944
0.000196118
0.000667504
0.000221336
0.000637101
0.000242348
0.000526358
0.000294562
0.000254038
-2.34191e-05
1.78188e-05
2.39405e-05
-2.27831e-05
2.08853e-05
-2.20644e-05
2.44848e-05
-2.11989e-05
2.87131e-05
-2.02036e-05
3.36159e-05
-1.90149e-05
3.93833e-05
-1.76374e-05
4.61988e-05
-1.59977e-05
5.37682e-05
-1.40864e-05
6.30133e-05
-1.18207e-05
7.31725e-05
-9.16101e-06
8.52463e-05
-6.02276e-06
9.91563e-05
-2.32376e-06
0.000115087
2.04005e-06
0.000133274
7.18627e-06
0.000154523
1.32409e-05
0.000179044
2.0369e-05
0.000207172
2.87463e-05
0.00023961
3.85751e-05
0.000276838
5.0074e-05
0.000319063
6.34716e-05
0.00036618
7.8983e-05
0.000418302
9.67891e-05
0.000473986
0.000116976
0.000530744
0.000139442
0.000583991
0.000163762
0.000625653
0.000188985
0.000642347
0.000213308
0.000612911
0.00023357
0.000506324
0.000283895
0.000244831
-2.27524e-05
1.73029e-05
2.32385e-05
-2.21382e-05
2.02803e-05
-2.14402e-05
2.37756e-05
-2.05993e-05
2.7882e-05
-1.96347e-05
3.26411e-05
-1.84841e-05
3.824e-05
-1.7154e-05
4.48588e-05
-1.55715e-05
5.21902e-05
-1.37288e-05
6.11624e-05
-1.1544e-05
7.09902e-05
-8.97957e-06
8.26785e-05
-5.95414e-06
9.61323e-05
-2.38734e-06
0.000111522
1.82118e-06
0.000129068
6.77589e-06
0.000149565
1.26151e-05
0.000173206
1.94846e-05
0.000200295
2.75611e-05
0.000231525
3.70397e-05
0.000267358
4.81285e-05
0.000307976
6.10497e-05
0.000353262
7.60111e-05
0.000403344
9.31875e-05
0.000456809
0.00011266
0.000511264
0.000134332
0.000562299
0.00015779
0.000602154
0.000182118
0.000617954
0.000205578
0.000589338
0.00022512
0.000486541
0.000272469
0.000235955
-2.20608e-05
1.68091e-05
2.25494e-05
-2.1466e-05
1.97003e-05
-2.07983e-05
2.30944e-05
-1.99913e-05
2.70824e-05
-1.90669e-05
3.17023e-05
-1.79601e-05
3.71382e-05
-1.66807e-05
4.35669e-05
-1.5155e-05
5.0669e-05
-1.33792e-05
5.93784e-05
-1.12719e-05
6.8887e-05
-8.79963e-06
8.02035e-05
-5.88262e-06
9.32175e-05
-2.44347e-06
0.000108086
1.61014e-06
0.000125013
6.38958e-06
0.000144787
1.20131e-05
0.000167574
1.86355e-05
0.000193665
2.64259e-05
0.000223734
3.55651e-05
0.000258217
4.62587e-05
0.000297282
5.87208e-05
0.000340801
7.31526e-05
0.000388915
8.97224e-05
0.000440247
0.000108508
0.000492489
0.000129414
0.00054141
0.000152041
0.000579555
0.000175506
0.000594556
0.000198134
0.000566835
0.000216981
0.000467923
0.000262621
0.000227419
-2.14367e-05
1.63292e-05
2.18957e-05
-2.08592e-05
1.91376e-05
-2.02086e-05
2.24351e-05
-1.94222e-05
2.63102e-05
-1.85261e-05
3.07969e-05
-1.74543e-05
3.60766e-05
-1.62199e-05
4.23227e-05
-1.47481e-05
4.92038e-05
-1.30371e-05
5.76597e-05
-1.10059e-05
6.68604e-05
-8.62266e-06
7.78184e-05
-5.811e-06
9.04082e-05
-2.49557e-06
0.000104774
1.41404e-06
0.000121105
6.01567e-06
0.000140179
1.14381e-05
0.000162148
1.78244e-05
0.000187276
2.53339e-05
0.000216219
3.41482e-05
0.000249404
4.44616e-05
0.000286971
5.64821e-05
0.000328784
7.04045e-05
0.000374996
8.63903e-05
0.000424262
0.000104514
0.000474359
0.000124682
0.000521223
0.00014651
0.000557688
0.000169143
0.000571858
0.000190969
0.000544896
0.000209149
0.000449501
0.000251978
0.000219189
-2.07854e-05
1.58719e-05
2.12539e-05
-2.02249e-05
1.86006e-05
-1.9605e-05
2.18043e-05
-1.88515e-05
2.55695e-05
-1.7996e-05
2.99265e-05
-1.69657e-05
3.50545e-05
-1.57795e-05
4.11235e-05
-1.43599e-05
4.77912e-05
-1.27105e-05
5.60024e-05
-1.07504e-05
6.49063e-05
-8.45201e-06
7.55187e-05
-5.74037e-06
8.76997e-05
-2.54327e-06
0.00010158
1.2234e-06
0.000117337
5.66233e-06
0.000135739
1.08876e-05
0.000156915
1.70432e-05
0.000181114
2.42874e-05
0.000208978
3.27871e-05
0.000240904
4.27342e-05
0.000277025
5.43299e-05
0.00031719
6.77619e-05
0.000361568
8.31859e-05
0.000408845
0.000100673
0.000456885
0.00012013
0.000501781
0.000141186
0.000536661
0.000163018
0.00055009
0.000184072
0.000523965
0.000201609
0.000432187
0.000242896
0.000211279
-2.02116e-05
1.54236e-05
2.06278e-05
-1.96791e-05
1.80747e-05
-1.90782e-05
2.1188e-05
-1.83471e-05
2.48476e-05
-1.75134e-05
2.90808e-05
-1.6513e-05
3.40637e-05
-1.53627e-05
3.99633e-05
-1.39895e-05
4.64262e-05
-1.23961e-05
5.44023e-05
-1.05044e-05
6.30207e-05
-8.28669e-06
7.33006e-05
-5.67154e-06
8.50879e-05
-2.58856e-06
9.85017e-05
1.04523e-06
0.000113705
5.32087e-06
0.000131457
1.03599e-05
0.000151872
1.62969e-05
0.000175176
2.32802e-05
0.000201991
3.14789e-05
0.000232709
4.10744e-05
0.000267433
5.22618e-05
0.000306008
6.52224e-05
0.000348612
8.01061e-05
0.000393964
9.69796e-05
0.000440006
0.000115753
0.000482989
0.000136066
0.000516309
0.000157125
0.000528969
0.000177436
0.000503542
0.000194354
0.000415027
0.000232988
0.000203652
-1.96026e-05
1.49976e-05
2.00379e-05
-1.90801e-05
1.75744e-05
-1.85038e-05
2.06005e-05
-1.78012e-05
2.41581e-05
-1.70057e-05
2.8271e-05
-1.60456e-05
3.3113e-05
-1.49426e-05
3.88482e-05
-1.36208e-05
4.51128e-05
-1.20868e-05
5.28614e-05
-1.02631e-05
6.12039e-05
-8.12516e-06
7.11625e-05
-5.60322e-06
8.25698e-05
-2.6301e-06
9.55331e-05
8.71641e-07
0.000110202
4.99737e-06
0.000127331
9.85414e-06
0.000147008
1.55774e-05
0.000169447
2.2315e-05
0.000195258
3.02223e-05
0.000224802
3.94797e-05
0.000258178
5.02744e-05
0.000295216
6.27817e-05
0.000336109
7.71456e-05
0.000379609
9.3429e-05
0.000423735
0.000111544
0.000464891
0.000131141
0.00049674
0.000151456
0.000508718
0.00017105
0.000484064
0.000187372
0.000398928
0.000224616
0.000196323
-1.90575e-05
1.45838e-05
1.94603e-05
-1.85578e-05
1.70889e-05
-1.80008e-05
2.00311e-05
-1.73209e-05
2.34905e-05
-1.65498e-05
2.74878e-05
-1.56204e-05
3.21942e-05
-1.45537e-05
3.77709e-05
-1.32764e-05
4.38442e-05
-1.17951e-05
5.13735e-05
-1.00346e-05
5.94502e-05
-7.97111e-06
6.90993e-05
-5.53803e-06
8.01406e-05
-2.67012e-06
9.26702e-05
7.09127e-07
0.000106826
4.68403e-06
0.000123349
9.36881e-06
0.00014232
1.489e-05
0.000163925
2.13859e-05
0.000188758
2.90152e-05
0.000217177
3.79478e-05
0.00024925
4.83654e-05
0.000284804
6.04375e-05
0.000324043
7.43016e-05
0.000365748
9.00174e-05
0.000408015
0.000107498
0.000447394
0.000126406
0.000477795
0.000146003
0.00048906
0.000164906
0.000465051
0.000180655
0.000382938
0.0002154
0.000189257
-1.85076e-05
1.41844e-05
1.88909e-05
-1.80309e-05
1.66196e-05
-1.74962e-05
1.94801e-05
-1.68455e-05
2.28441e-05
-1.61027e-05
2.67295e-05
-1.52074e-05
3.1305e-05
-1.41771e-05
3.67291e-05
-1.29434e-05
4.26185e-05
-1.15126e-05
4.99367e-05
-9.81261e-06
5.77576e-05
-7.8211e-06
6.71085e-05
-5.47335e-06
7.77973e-05
-2.70655e-06
8.99087e-05
5.50811e-07
0.000103568
4.38731e-06
0.000119512
8.90373e-06
0.000137796
1.4227e-05
0.000158596
2.0496e-05
0.000182495
2.78563e-05
0.000209818
3.64766e-05
0.000240632
4.6532e-05
0.000274751
5.81857e-05
0.000312394
7.15694e-05
0.000352372
8.67389e-05
0.000392858
0.000103608
0.00043054
0.000121852
0.000459581
0.000140757
0.000470214
0.000158995
0.000446926
0.000174191
0.000367956
0.000207697
0.000182469
-1.79914e-05
1.37996e-05
1.83637e-05
-1.75279e-05
1.61679e-05
-1.70101e-05
1.89501e-05
-1.63786e-05
2.22226e-05
-1.56611e-05
2.60003e-05
-1.47963e-05
3.04493e-05
-1.3803e-05
3.57258e-05
-1.26134e-05
4.14374e-05
-1.12339e-05
4.85515e-05
-9.59452e-06
5.61252e-05
-7.6734e-06
6.51886e-05
-5.40903e-06
7.55372e-05
-2.74019e-06
8.72456e-05
4.03281e-07
0.000100428
4.10027e-06
0.000115809
8.45755e-06
0.000133435
1.35939e-05
0.000153459
1.96397e-05
0.000176446
2.67435e-05
0.000202718
3.50644e-05
0.000232316
4.47723e-05
0.00026505
5.60242e-05
0.000301148
6.89465e-05
0.000339454
8.35902e-05
0.000378211
9.98708e-05
0.000414243
0.000117474
0.000441942
0.000135713
0.000451917
0.00015331
0.00042922
0.000167975
0.000353054
0.000199131
0.000175923
-1.7476e-05
1.34283e-05
1.78339e-05
-1.70314e-05
1.57317e-05
-1.65344e-05
1.84379e-05
-1.59282e-05
2.16217e-05
-1.52377e-05
2.52952e-05
-1.4404e-05
2.96224e-05
-1.34456e-05
3.47566e-05
-1.22971e-05
4.0297e-05
-1.09655e-05
4.72146e-05
-9.38324e-06
5.45504e-05
-7.52969e-06
6.33364e-05
-5.34502e-06
7.33572e-05
-2.77047e-06
8.46767e-05
2.60028e-07
9.73984e-05
3.82879e-06
0.00011224
8.03009e-06
0.000129227
1.29838e-05
0.000148501
1.88202e-05
0.000170615
2.5676e-05
0.000195864
3.37094e-05
0.000224286
4.30834e-05
0.000255679
5.39496e-05
0.000290288
6.6428e-05
0.000326985
8.05658e-05
0.000364086
9.62793e-05
0.000398545
0.000113265
0.000424986