/*--------------------------------*- C++ -*----------------------------------*\
  =========                 |
  \\      /  F ield         | OpenFOAM: The Open Source CFD Toolbox
   \\    /   O peration     | Website:  https://openfoam.org
    \\  /    A nd           | Version:  6.0
     \\/     M anipulation  |
\*---------------------------------------------------------------------------*/
FoamFile
{
    version     2.0;
    format      ascii;
    class       volVectorField;
    location    "2.55";
    object      U;
}
// * * * * * * * * * * * * * * * * * * * * * * * * * * * * * * * * * * * * * //

dimensions      [0 1 -1 0 0 0 0];

internalField   nonuniform List<vector> 
13500
(
(1 1.7647e-06 -4.2477e-18)
(1 -2.9324e-06 2.8737e-18)
(1 -6.3982e-06 -1.2365e-17)
(1 -9.4756e-06 -8.5463e-18)
(1 -9.3997e-06 1.6102e-17)
(1 -8.4708e-06 2.9917e-17)
(1 3.9502e-07 2.5703e-17)
(0.99998 1.3604e-05 -4.1438e-18)
(0.99991 4.258e-05 1.5209e-17)
(0.99981 7.248e-05 3.2688e-18)
(0.99571 0.00075629 2.851e-17)
(1.019 0.01084 7.7515e-18)
(1 5.2898e-06 2.6316e-18)
(1 -7.9564e-06 -8.7273e-18)
(1 -1.7892e-05 5.905e-18)
(1 -2.6296e-05 -3.3703e-19)
(1 -2.5626e-05 -4.294e-19)
(1 -2.2598e-05 -3.5974e-17)
(0.99999 5.1425e-06 -4.4394e-17)
(0.99994 4.2915e-05 -2.371e-17)
(0.99972 0.00014003 -1.5179e-17)
(0.99986 0.00017604 -1.6166e-18)
(0.98616 0.0021922 -1.3501e-17)
(1.0535 0.030636 -4.6934e-18)
(1 8.8069e-06 -3.399e-18)
(1 -1.3107e-05 1.7339e-17)
(1 -2.9492e-05 3.0714e-18)
(1 -4.3461e-05 9.8537e-18)
(1 -4.2043e-05 -3.7131e-18)
(1 -3.7212e-05 2.8816e-17)
(0.99999 1.0088e-05 -6.2492e-18)
(0.99991 7.1437e-05 5.3858e-18)
(0.99949 0.00024617 -1.8414e-17)
(1.0004 0.00029462 2.4559e-17)
(0.97595 0.0032787 -7.0586e-18)
(1.082 0.04516 1.6461e-18)
(1 1.2313e-05 8.8857e-18)
(1 -1.8476e-05 -1.6811e-17)
(1 -4.1405e-05 -1.456e-17)
(1 -6.1158e-05 -6.9134e-19)
(1 -5.8973e-05 5.732e-18)
(1 -5.2444e-05 -7.9984e-19)
(0.99999 1.475e-05 6.1571e-17)
(0.99988 9.8885e-05 9.7034e-18)
(0.99924 0.00035967 2.1775e-17)
(1.0013 0.00043316 -8.8955e-18)
(0.96547 0.0040417 3.4371e-17)
(1.1032 0.05569 -7.4928e-18)
(1 1.581e-05 -6.2435e-18)
(1 -2.3869e-05 1.4529e-17)
(1 -5.3395e-05 1.2394e-17)
(1 -7.8908e-05 1.2611e-17)
(1.0001 -7.6032e-05 2.8106e-18)
(1.0001 -6.7708e-05 2.1179e-17)
(0.99999 1.941e-05 -2.7495e-17)
(0.99987 0.00012544 1.9709e-18)
(0.99893 0.00047913 -1.3351e-17)
(1.0027 0.00059402 -2.1224e-18)
(0.95512 0.0045311 -8.9149e-18)
(1.1171 0.06336 2.0775e-18)
(1 1.9298e-05 6.3185e-18)
(1 -2.9288e-05 -6.0231e-18)
(1 -6.5458e-05 3.7851e-18)
(1 -9.6713e-05 -2.4982e-17)
(1.0001 -9.3222e-05 -8.2279e-20)
(1.0001 -8.3017e-05 -4.1928e-17)
(1 2.4053e-05 1.055e-18)
(0.99986 0.00015094 -1.582e-17)
(0.99857 0.00060304 5.0841e-18)
(1.0045 0.00078406 -2.1388e-17)
(0.94525 0.0047896 -2.1459e-17)
(1.1245 0.068786 2.0082e-18)
(0.99999 2.2778e-05 -1.0459e-18)
(1 -3.4735e-05 -7.2037e-18)
(1 -7.7597e-05 -3.0762e-18)
(1.0001 -0.00011458 1.8856e-17)
(1.0001 -0.00011055 -2.6032e-17)
(1.0001 -9.8391e-05 1.6043e-17)
(1 2.8704e-05 1.839e-17)
(0.99987 0.00017534 5.566e-18)
(0.99814 0.00072995 1.1365e-17)
(1.0065 0.0010099 1.1514e-17)
(0.93615 0.0048551 9.2445e-18)
(1.1262 0.072392 3.2241e-18)
(0.99999 2.6248e-05 -2.1588e-18)
(1 -4.0214e-05 -1.4171e-18)
(1 -8.9814e-05 -2.6501e-17)
(1.0001 -0.00013252 -9.0038e-18)
(1.0001 -0.00012801 7.2862e-18)
(1.0001 -0.00011384 2.629e-17)
(1 3.3363e-05 1.1705e-17)
(0.9999 0.00019859 4.9689e-18)
(0.99764 0.00085833 -7.4286e-18)
(1.0089 0.0012757 1.6129e-17)
(0.92805 0.0047641 7.4653e-18)
(1.1232 0.074543 -1.0253e-17)
(0.99999 2.9709e-05 -6.7017e-18)
(1 -4.5726e-05 6.0925e-18)
(1 -0.00010211 4.4558e-17)
(1.0001 -0.00015054 -1.08e-17)
(1.0001 -0.00014562 2.7286e-17)
(1.0001 -0.00012938 -5.1907e-17)
(1 3.8021e-05 -3.8993e-17)
(0.99994 0.00022071 9.6553e-18)
(0.99706 0.00098662 -5.5791e-18)
(1.0115 0.0015833 -8.8954e-18)
(0.9211 0.0045513 -1.3794e-17)
(1.1167 0.075543 1.3414e-17)
(0.99999 3.3162e-05 4.4153e-18)
(1 -5.1272e-05 2.2932e-18)
(1 -0.00011449 -3.7743e-17)
(1.0001 -0.00016863 1.537e-17)
(1.0001 -0.00016338 -1.1899e-17)
(1.0001 -0.00014502 2.2138e-17)
(1 4.2662e-05 1.3857e-17)
(1 0.00024172 2.4408e-18)
(0.9964 0.0011133 5.27e-19)
(1.0142 0.0019327 1.4094e-18)
(0.9154 0.0042486 4.3883e-18)
(1.1074 0.075646 -7.0242e-19)
(0.99998 3.6606e-05 -2.4242e-18)
(1 -5.6854e-05 -7.521e-18)
(1 -0.00012696 9.252e-18)
(1.0001 -0.00018681 -2.7119e-18)
(1.0001 -0.00018131 1.8368e-18)
(1.0002 -0.00016077 -2.4261e-17)
(1 4.727e-05 -3.1915e-17)
(1.0001 0.00026171 -3.1001e-17)
(0.99566 0.0012367 1.5594e-17)
(1.0171 0.0023224 1.8307e-18)
(0.91101 0.0038854 -1.1131e-17)
(1.0961 0.075058 -5.7811e-18)
(0.99998 4.0041e-05 3.346e-18)
(1 -6.2474e-05 2.8408e-18)
(1 -0.00013952 4.4589e-18)
(1.0001 -0.00020507 -2.1612e-18)
(1.0001 -0.00019941 -5.5059e-18)
(1.0002 -0.00017663 9.1762e-18)
(1 5.1823e-05 1.8474e-17)
(1.0002 0.00028079 1.9151e-17)
(0.99483 0.0013556 1.0019e-17)
(1.02 0.0027496 -2.3117e-17)
(0.90792 0.0034878 1.1681e-19)
(1.0837 0.073949 -6.6933e-18)
(0.99998 4.3467e-05 -3.3454e-18)
(0.99999 -6.8134e-05 5.5865e-18)
(1 -0.00015217 8.0843e-18)
(1.0001 -0.00022343 5.6433e-18)
(1.0001 -0.00021769 -5.1068e-18)
(1.0002 -0.00019263 4.5111e-18)
(1 5.6295e-05 4.2128e-18)
(1.0003 0.00029912 -1.7102e-18)
(0.99394 0.0014684 -1.6194e-17)
(1.0228 0.0032109 2.1437e-17)
(0.90609 0.0030786 1.0399e-19)
(1.0707 0.072459 1.4328e-18)
(0.99998 4.6885e-05 5.0874e-18)
(0.99999 -7.3835e-05 -4.3608e-18)
(1 -0.00016491 7.0777e-19)
(1.0001 -0.00024188 -4.7076e-18)
(1.0002 -0.00023616 1.1598e-17)
(1.0002 -0.00020876 5.504e-18)
(1 6.0653e-05 1.6951e-17)
(1.0005 0.00031689 -6.3517e-18)
(0.99296 0.0015739 -1.9786e-19)
(1.0257 0.003702 5.2651e-18)
(0.90545 0.0026776 1.6895e-17)
(1.0577 0.070699 9.1389e-19)
(0.99997 5.0293e-05 1.227e-18)
(0.99999 -7.9579e-05 9.6782e-18)
(1 -0.00017775 1.3519e-17)
(1.0001 -0.00026043 -4.6936e-18)
(1.0002 -0.00025483 8.3983e-18)
(1.0002 -0.00022505 -2.5694e-18)
(1 6.4857e-05 -2.9689e-17)
(1.0006 0.00033433 2.0105e-17)
(0.99192 0.0016707 -1.826e-17)
(1.0284 0.0042182 -3.0369e-17)
(0.90592 0.0023011 -3.7087e-18)
(1.0449 0.068761 8.4677e-19)
(0.99997 5.3694e-05 -3.1303e-18)
(0.99999 -8.5368e-05 -1.0293e-17)
(1 -0.00019069 -3.2448e-17)
(1.0001 -0.00027908 7.9079e-18)
(1.0002 -0.00027369 -1.2744e-17)
(1.0003 -0.00024149 8.238e-18)
(1 6.8859e-05 -2.7779e-18)
(1.0009 0.00035172 -1.2103e-17)
(0.99082 0.0017576 4.01e-18)
(1.031 0.0047548 1.8135e-17)
(0.90739 0.0019625 -7.7838e-18)
(1.0328 0.066719 1.1768e-17)
(0.99996 5.7086e-05 3.2938e-19)
(0.99998 -9.1204e-05 7.698e-18)
(1 -0.00020374 2.2402e-17)
(1.0001 -0.00029785 -1.781e-18)
(1.0002 -0.00029278 -1.2661e-17)
(1.0003 -0.0002581 -1.5352e-17)
(1 7.2604e-05 1.0611e-17)
(1.0011 0.00036937 6.941e-18)
(0.98967 0.0018334 2.3173e-17)
(1.0334 0.0053071 -2.5392e-18)
(0.90975 0.0016719 1.9343e-18)
(1.0215 0.064631 -4.6949e-18)
(0.99996 6.047e-05 -1.8479e-18)
(0.99998 -9.7088e-05 -9.3276e-18)
(1 -0.00021689 -1.0108e-17)
(1.0001 -0.00031673 5.9515e-18)
(1.0002 -0.00031208 -7.1112e-18)
(1.0003 -0.00027489 -1.2313e-17)
(1 7.6027e-05 1.0315e-17)
(1.0014 0.00038761 -4.7088e-18)
(0.98847 0.0018971 -2.8675e-17)
(1.0356 0.0058705 -1.423e-17)
(0.91286 0.001437 8.3953e-18)
(1.0113 0.062543 -5.0925e-18)
(0.99995 6.3846e-05 -2.6461e-18)
(0.99998 -0.00010302 -3.5255e-18)
(1 -0.00023015 -7.4913e-19)
(1.0001 -0.00033573 -2.6062e-17)
(1.0002 -0.00033162 5.9663e-18)
(1.0003 -0.00029187 5.3621e-18)
(0.99998 7.9051e-05 -1.9601e-17)
(1.0017 0.00040683 -1.6076e-17)
(0.98724 0.0019475 4.1951e-18)
(1.0376 0.0064407 -1.0691e-18)
(0.91662 0.0012627 -9.6944e-18)
(1.0022 0.060489 9.6317e-19)
(0.99995 6.7214e-05 3.4418e-18)
(0.99997 -0.00010901 1.6161e-17)
(1 -0.00024352 1.9291e-17)
(1.0001 -0.00035486 2.4544e-18)
(1.0002 -0.0003514 1.6494e-17)
(1.0004 -0.00030903 9.3963e-18)
(0.99996 8.1593e-05 2.8292e-18)
(1.002 0.00042743 1.7596e-17)
(0.98598 0.0019835 2.0836e-17)
(1.0394 0.0070136 1.6992e-17)
(0.92091 0.0011517 7.236e-18)
(0.9942 0.058497 1.1429e-18)
(0.99994 7.0575e-05 -1.6405e-18)
(0.99997 -0.00011506 -3.8777e-18)
(1 -0.00025701 -2.0552e-17)
(1.0001 -0.00037411 -2.3238e-18)
(1.0002 -0.00037143 -1.2501e-17)
(1.0004 -0.00032639 -5.0837e-18)
(0.99993 8.3556e-05 -1.8159e-18)
(1.0024 0.00044985 -1.5911e-17)
(0.98471 0.0020044 -1.9922e-17)
(1.0409 0.0075856 8.7088e-18)
(0.92561 0.0011048 4.971e-19)
(0.98741 0.056584 6.5604e-19)
(0.99994 7.3928e-05 4.3485e-18)
(0.99996 -0.00012116 -5.0662e-18)
(1 -0.00027061 -1.9276e-17)
(1.0002 -0.00039351 4.418e-17)
(1.0003 -0.00039171 1.8134e-17)
(1.0004 -0.00034395 -1.244e-17)
(0.9999 8.4832e-05 2.4412e-17)
(1.0028 0.00047456 2.1503e-17)
(0.98344 0.0020091 3.2325e-17)
(1.0421 0.0081534 -3.1919e-17)
(0.93061 0.0011213 -1.3291e-17)
(0.98176 0.054766 1.73e-19)
(0.99993 7.7274e-05 -3.1829e-18)
(0.99996 -0.00012733 -1.0167e-18)
(1 -0.00028434 3.2909e-17)
(1.0002 -0.00041304 -3.3397e-17)
(1.0003 -0.00041227 -1.7456e-18)
(1.0004 -0.00036172 4.1217e-17)
(0.99987 8.5302e-05 7.5657e-18)
(1.0032 0.00050202 -3.3215e-18)
(0.98218 0.0019968 -2.0046e-17)
(1.043 0.008714 3.7615e-17)
(0.93582 0.001199 -5.6308e-18)
(0.97723 0.05305 -2.7499e-19)
(0.99992 8.0614e-05 -1.6227e-18)
(0.99995 -0.00013355 -2.0258e-18)
(1 -0.00029819 1.7139e-18)
(1.0002 -0.00043273 3.4745e-17)
(1.0003 -0.00043311 -9.8424e-18)
(1.0005 -0.00037969 -3.0465e-17)
(0.99982 8.4836e-05 -1.929e-17)
(1.0037 0.00053275 -3.5764e-18)
(0.98094 0.0019667 6.3382e-18)
(1.0437 0.0092649 -3.1731e-17)
(0.94115 0.0013345 9.431e-18)
(0.97372 0.05144 2.9801e-18)
(0.99992 8.3947e-05 2.6815e-18)
(0.99995 -0.00013985 1.41e-17)
(1 -0.00031217 -1.2639e-17)
(1.0002 -0.00045257 -3.6379e-18)
(1.0003 -0.00045423 -1.889e-17)
(1.0005 -0.00039786 3.3143e-17)
(0.99977 8.329e-05 -1.6934e-17)
(1.0042 0.00056725 1.4826e-17)
(0.97973 0.0019182 -1.9535e-18)
(1.0441 0.0098038 2.9749e-17)
(0.94651 0.001524 -9.2042e-18)
(0.97116 0.049939 -4.9725e-18)
(0.99991 8.7274e-05 -5.143e-19)
(0.99994 -0.00014621 -8.1091e-18)
(1 -0.00032627 -1.7698e-17)
(1.0002 -0.00047257 -9.9685e-18)
(1.0003 -0.00047566 1.8322e-17)
(1.0005 -0.00041624 -4.2262e-17)
(0.99971 8.0511e-05 -2.6131e-18)
(1.0047 0.00060602 -2.003e-17)
(0.97857 0.0018508 3.1546e-18)
(1.0442 0.010329 -8.5806e-18)
(0.95184 0.0017626 9.797e-18)
(0.96946 0.048545 2.1092e-18)
(0.9999 9.0597e-05 2.6943e-18)
(0.99994 -0.00015264 -8.6864e-18)
(1 -0.00034051 -1.7487e-18)
(1.0002 -0.00049273 2.4222e-18)
(1.0003 -0.0004974 5.799e-18)
(1.0006 -0.00043481 1.2212e-17)
(0.99964 7.6333e-05 4.2839e-17)
(1.0052 0.00064958 2.3936e-18)
(0.97747 0.001764 5.1398e-18)
(1.0441 0.010838 9.4572e-18)
(0.95708 0.0020455 -8.3797e-18)
(0.96852 0.047256 1.6195e-18)
(0.9999 9.3914e-05 -1.5449e-18)
(0.99993 -0.00015915 8.6784e-18)
(1 -0.00035488 2.5158e-17)
(1.0002 -0.00051308 -2.4405e-17)
(1.0003 -0.00051946 -9.0206e-18)
(1.0006 -0.00045357 -2.1487e-18)
(0.99957 7.058e-05 -1.4121e-17)
(1.0058 0.00069842 1.8569e-18)
(0.97643 0.0016576 -8.9065e-18)
(1.0437 0.01133 -3.4758e-18)
(0.96216 0.0023673 -2.3732e-19)
(0.96824 0.046067 -1.9791e-18)
(0.99989 9.7227e-05 -1.6605e-18)
(0.99992 -0.00016573 5.1946e-18)
(1 -0.00036939 -6.0836e-19)
(1.0002 -0.0005336 8.0927e-18)
(1.0003 -0.00054185 -1.6645e-17)
(1.0006 -0.00047252 2.4313e-17)
(0.99949 6.3067e-05 7.0433e-18)
(1.0063 0.00075303 -1.7715e-17)
(0.97546 0.0015313 -1.1418e-17)
(1.043 0.011803 -1.3762e-17)
(0.96705 0.0027226 1.328e-18)
(0.96853 0.044973 -3.6256e-18)
(0.99988 0.00010054 5.7704e-19)
(0.99992 -0.0001724 -1.2406e-17)
(1 -0.00038405 1.5579e-17)
(1.0002 -0.00055431 2.2383e-17)
(1.0004 -0.00056459 3.2624e-17)
(1.0007 -0.00049163 -1.7855e-17)
(0.99939 5.3598e-05 -1.7511e-17)
(1.0069 0.00081386 3.5952e-18)
(0.97458 0.0013853 1.0699e-17)
(1.0422 0.012257 1.0772e-17)
(0.97171 0.0031061 6.1829e-18)
(0.9693 0.043969 3.6036e-18)
(0.99987 0.00010384 1.1059e-18)
(0.99991 -0.00017915 9.8651e-18)
(1 -0.00039884 -3.5793e-17)
(1.0002 -0.00057522 -3.2431e-18)
(1.0004 -0.0005877 -2.7102e-17)
(1.0007 -0.0005109 -1.1247e-17)
(0.99929 4.1971e-05 2.4609e-20)
(1.0075 0.00088133 -4.1115e-18)
(0.9738 0.0012198 -2.1076e-17)
(1.0412 0.01269 -1.72e-17)
(0.97611 0.0035125 -8.4442e-18)
(0.97045 0.043047 -1.7756e-18)
(0.99986 0.00010715 -7.1675e-19)
(0.9999 -0.00018599 -6.4158e-18)
(1 -0.00041378 2.8163e-17)
(1.0002 -0.00059633 -3.0945e-17)
(1.0004 -0.00061117 -2.0389e-18)
(1.0008 -0.00053031 2.395e-17)
(0.99919 2.7977e-05 7.0065e-19)
(1.0081 0.00095583 3.9215e-18)
(0.9731 0.0010351 1.8451e-17)
(1.0399 0.013101 2.2359e-17)
(0.98023 0.0039367 4.831e-18)
(0.97191 0.042202 -9.9143e-19)
(0.99985 0.00011045 -1.866e-18)
(0.99989 -0.00019292 -2.3661e-18)
(1 -0.00042888 -1.2485e-17)
(1.0002 -0.00061764 1.5416e-17)
(1.0004 -0.00063503 2.9787e-17)
(1.0008 -0.00054985 -1.0585e-17)
(0.99907 1.1401e-05 2.181e-17)
(1.0088 0.0010377 2.9393e-18)
(0.97252 0.00083186 -2.0896e-18)
(1.0385 0.013489 1.0115e-17)
(0.98405 0.0043739 -5.3981e-18)
(0.97361 0.041427 -6.9061e-19)
(0.99984 0.00011375 4.6667e-19)
(0.99989 -0.00019994 -6.2572e-18)
(1 -0.00044412 4.6739e-18)
(1.0002 -0.00063917 -1.5711e-17)
(1.0004 -0.00065929 -3.1508e-17)
(1.0009 -0.00056949 6.6702e-18)
(0.99895 -7.9729e-06 -3.1464e-17)
(1.0094 0.0011272 -6.7187e-18)
(0.97204 0.00061089 6.7786e-18)
(1.037 0.013855 -3.1749e-17)
(0.98757 0.0048194 3.6964e-18)
(0.97547 0.040715 1.9507e-18)
(0.99983 0.00011705 8.1954e-19)
(0.99988 -0.00020706 1.6953e-17)
(1 -0.00045953 7.8262e-18)
(1.0002 -0.00066093 6.3999e-18)
(1.0004 -0.00068397 2.5195e-17)
(1.0009 -0.00058921 1.9887e-18)
(0.99881 -3.0363e-05 2.1727e-17)
(1.01 0.0012246 4.8196e-18)
(0.97167 0.00037317 -2.06e-17)
(1.0353 0.014196 1.0931e-17)
(0.99079 0.0052689 2.4996e-18)
(0.97745 0.04006 2.0223e-18)
(0.99982 0.00012035 -2.8617e-18)
(0.99987 -0.00021429 -5.5803e-18)
(1 -0.00047509 -6.8756e-18)
(1.0002 -0.00068292 1.051e-17)
(1.0004 -0.00070907 1.2172e-17)
(1.001 -0.00060898 -3.9605e-18)
(0.99868 -5.5987e-05 -1.8251e-17)
(1.0106 0.00133 2.1941e-17)
(0.97142 0.00011989 3.8157e-18)
(1.0336 0.014513 -3.3024e-18)
(0.9937 0.0057184 1.0338e-17)
(0.97948 0.039456 -1.4054e-18)
(0.99981 0.00012365 5.8803e-18)
(0.99986 -0.00022161 6.6828e-18)
(1 -0.00049082 -7.3091e-18)
(1.0002 -0.00070514 -6.5473e-18)
(1.0004 -0.00073462 -1.7466e-17)
(1.001 -0.00062878 -6.8022e-18)
(0.99853 -8.5057e-05 8.9984e-18)
(1.0112 0.0014435 -3.5191e-17)
(0.97128 -0.00014758 9.338e-18)
(1.0318 0.014805 -3.9041e-18)
(0.99631 0.0061641 -1.0946e-17)
(0.98153 0.038896 4.0817e-18)
(0.9998 0.00012695 -2.5953e-18)
(0.99985 -0.00022905 -1.1742e-17)
(1 -0.00050672 -7.0841e-18)
(1.0002 -0.00072761 -1.2424e-17)
(1.0004 -0.00076063 -5.3333e-18)
(1.0011 -0.00064859 2e-17)
(0.99838 -0.00011778 -8.8398e-18)
(1.0118 0.0015651 3.9146e-17)
(0.97125 -0.0004277 8.8038e-18)
(1.0299 0.015072 1.1847e-17)
(0.99863 0.0066026 4.6137e-18)
(0.98356 0.038376 -6.6189e-18)
(0.99979 0.00013025 -1.3766e-18)
(0.99984 -0.00023659 8.7322e-18)
(1 -0.00052279 1.4036e-17)
(1.0002 -0.00075033 3.3499e-17)
(1.0004 -0.00078712 7.0694e-18)
(1.0012 -0.00066837 -1.3719e-17)
(0.99822 -0.00015436 4.2658e-18)
(1.0124 0.0016948 -4.2113e-17)
(0.97133 -0.00071878 -1.0678e-17)
(1.0279 0.015312 -6.5873e-18)
(1.0007 0.0070309 4.5256e-18)
(0.98554 0.037889 6.6556e-18)
(0.99977 0.00013356 1.0536e-18)
(0.99983 -0.00024426 2.0672e-18)
(0.99999 -0.00053903 -1.3785e-17)
(1.0002 -0.00077332 -5.5798e-18)
(1.0005 -0.0008141 8.9766e-18)
(1.0012 -0.00068809 1.642e-17)
(0.99806 -0.00019497 1.4834e-17)
(1.0129 0.0018324 4.1692e-18)
(0.97152 -0.001019 1.1945e-17)
(1.026 0.015527 -3.0527e-18)
(1.0025 0.0074461 -8.0785e-18)
(0.98745 0.037432 -1.7163e-18)
(0.99976 0.00013687 -4.3144e-20)
(0.99982 -0.00025204 2.356e-18)
(0.99998 -0.00055545 3.0807e-18)
(1.0002 -0.00079657 -7.2437e-18)
(1.0005 -0.00084159 8.3822e-20)
(1.0013 -0.00070772 -1.4888e-17)
(0.99789 -0.0002398 -1.0034e-17)
(1.0135 0.0019776 3.0837e-17)
(0.97182 -0.0013265 -1.805e-17)
(1.0241 0.015715 1.1854e-17)
(1.004 0.0078458 4.2663e-18)
(0.98927 0.037 -4.8476e-18)
(0.99975 0.00014019 -3.2634e-18)
(0.99981 -0.00025994 -1.1049e-17)
(0.99998 -0.00057206 7.8658e-18)
(1.0002 -0.0008201 -1.9784e-17)
(1.0005 -0.0008696 -2.2702e-17)
(1.0014 -0.00072724 -2.0566e-17)
(0.99772 -0.000289 -2.0451e-17)
(1.014 0.0021301 -3.1581e-18)
(0.97221 -0.0016391 1.5775e-17)
(1.0222 0.015878 -1.0169e-17)
(1.0053 0.0082278 4.239e-19)
(0.99099 0.036588 4.5659e-18)
(0.99974 0.00014351 6.2988e-18)
(0.99979 -0.00026798 1.1548e-17)
(0.99997 -0.00058885 -1.2686e-17)
(1.0002 -0.00084392 1.6243e-17)
(1.0005 -0.00089816 -2.6628e-18)
(1.0014 -0.00074662 1.348e-17)
(0.99754 -0.0003427 2.4582e-17)
(1.0145 0.0022896 -2.3918e-17)
(0.9727 -0.0019549 -7.998e-18)
(1.0203 0.016014 1.0739e-17)
(1.0064 0.0085903 3.6861e-18)
(0.9926 0.036192 -2.16e-18)
(0.99972 0.00014684 -4.7264e-18)
(0.99978 -0.00027614 -3.4128e-18)
(0.99997 -0.00060583 -2.6527e-18)
(1.0002 -0.00086804 1.8585e-17)
(1.0005 -0.00092729 -5.7002e-18)
(1.0015 -0.00076582 -1.7082e-19)
(0.99737 -0.00040103 -4.8101e-18)
(1.0149 0.0024555 1.9159e-17)
(0.97328 -0.0022718 -7.593e-18)
(1.0185 0.016124 -7.3743e-18)
(1.0073 0.0089317 -1.0897e-17)
(0.9941 0.03581 2.5106e-18)
(0.99971 0.00015017 3.2129e-18)
(0.99977 -0.00028444 -4.3274e-18)
(0.99996 -0.000623 6.0722e-18)
(1.0002 -0.00089246 -2.82e-17)
(1.0005 -0.00095699 3.8615e-17)
(1.0016 -0.00078481 5.5848e-18)
(0.99719 -0.00046407 1.8979e-17)
(1.0153 0.0026273 -1.1854e-17)
(0.97393 -0.0025876 1.0107e-19)
(1.0167 0.016209 5.4845e-18)
(1.008 0.0092506 -2.1189e-18)
(0.99549 0.035439 -9.4461e-19)
(0.99969 0.00015352 -9.1911e-19)
(0.99976 -0.00029288 8.4592e-19)
(0.99995 -0.00064037 1.4796e-17)
(1.0002 -0.00091719 7.6877e-18)
(1.0005 -0.00098729 -1.9305e-17)
(1.0017 -0.00080359 -1.0939e-17)
(0.99701 -0.00053188 3.3142e-18)
(1.0157 0.0028044 -5.7626e-18)
(0.97466 -0.0029004 1.2704e-17)
(1.015 0.01627 -3.6002e-18)
(1.0086 0.009546 1.02e-17)
(0.99676 0.035075 -3.4476e-18)
(0.99968 0.00015687 -1.5999e-18)
(0.99974 -0.00030147 -8.1543e-18)
(0.99994 -0.00065795 -4.3991e-18)
(1.0002 -0.00094224 3.0872e-17)
(1.0005 -0.0010182 -1.7201e-17)
(1.0018 -0.00082212 -9.2656e-19)
(0.99684 -0.00060452 -4.9559e-17)
(1.0161 0.002986 5.6651e-18)
(0.97546 -0.0032081 -2.3754e-17)
(1.0134 0.016306 -7.7754e-18)
(1.0091 0.0098171 -1.0199e-17)
(0.99792 0.034716 2.0471e-18)
(0.99966 0.00016024 -6.9073e-19)
(0.99973 -0.0003102 5.052e-18)
(0.99993 -0.00067573 -1.8159e-18)
(1.0002 -0.00096763 -1.7976e-17)
(1.0005 -0.0010497 2.4718e-17)
(1.0019 -0.00084038 -2.2776e-18)
(0.99666 -0.00068198 2.6252e-17)
(1.0164 0.0031714 -3.482e-18)
(0.97631 -0.0035089 1.1534e-17)
(1.0119 0.016318 9.7251e-18)
(1.0094 0.010064 8.4127e-18)
(0.99898 0.034361 -4.9503e-19)
(0.99965 0.00016362 3.9154e-18)
(0.99972 -0.00031909 -3.0228e-18)
(0.99993 -0.00069372 -6.3534e-18)
(1.0002 -0.00099336 1.962e-17)
(1.0005 -0.0010819 1.8143e-18)
(1.002 -0.00085838 2.8237e-17)
(0.99649 -0.00076424 4.5286e-18)
(1.0167 0.0033597 1.6637e-17)
(0.97721 -0.003801 4.3269e-18)
(1.0105 0.016308 -3.1466e-18)
(1.0096 0.010285 1.0944e-18)
(0.99995 0.034007 4.481e-19)
(0.99963 0.00016701 1.1165e-18)
(0.9997 -0.00032813 1.2358e-18)
(0.99992 -0.00071193 -5.7615e-18)
(1.0002 -0.0010194 -3.9072e-17)
(1.0005 -0.0011148 5.4942e-18)
(1.0021 -0.00087608 2.449e-18)
(0.99631 -0.00085124 -1.9637e-17)
(1.017 0.0035503 2.3397e-19)
(0.97815 -0.0040826 1.2748e-17)
(1.0092 0.016276 -2.0231e-18)
(1.0098 0.010481 -5.3275e-18)
(1.0008 0.033653 2.6413e-18)
(0.99961 0.00017041 -4.781e-18)
(0.99969 -0.00033734 5.2385e-18)
(0.99991 -0.00073036 9.4955e-19)
(1.0002 -0.0010459 2.1697e-17)
(1.0005 -0.0011484 -2.5062e-17)
(1.0022 -0.00089351 -1.0817e-17)
(0.99615 -0.00094292 2.0084e-17)
(1.0172 0.003742 -1.1268e-17)
(0.97913 -0.0043525 -2.0151e-17)
(1.0079 0.016224 -9.997e-18)
(1.0099 0.010652 6.7847e-18)
(1.0016 0.033298 8.8039e-19)
(0.9996 0.00017383 -5.0596e-19)
(0.99967 -0.00034671 -5.2716e-18)
(0.9999 -0.00074901 1.0116e-17)
(1.0002 -0.0010727 9.6207e-18)
(1.0005 -0.0011826 3.0956e-17)
(1.0023 -0.00091065 4.1554e-18)
(0.99598 -0.0010391 1.784e-17)
(1.0174 0.0039341 2.8567e-17)
(0.98013 -0.0046091 -8.8959e-19)
(1.0068 0.016152 1.7585e-17)
(1.0099 0.010798 -7.1802e-19)
(1.0023 0.03294 -2.5699e-18)
(0.99958 0.00017726 4.9038e-18)
(0.99965 -0.00035625 -7.6752e-18)
(0.99989 -0.00076788 -1.5355e-17)
(1.0002 -0.0010999 -2.5567e-18)
(1.0005 -0.0012176 -3.3599e-17)
(1.0024 -0.00092752 -1.2364e-17)
(0.99582 -0.0011398 -6.192e-18)
(1.0176 0.0041256 2.135e-19)
(0.98114 -0.0048515 2.6223e-17)
(1.0058 0.016063 4.0522e-18)
(1.0099 0.01092 -9.3095e-18)
(1.003 0.032579 1.5411e-18)
(0.99956 0.00018071 -5.4978e-18)
(0.99964 -0.00036597 9.5876e-18)
(0.99988 -0.000787 8.0373e-18)
(1.0002 -0.0011275 -5.0953e-18)
(1.0005 -0.0012533 2.7021e-17)
(1.0025 -0.00094414 1.4792e-17)
(0.99567 -0.0012446 -4.8948e-18)
(1.0177 0.0043156 -2.8788e-17)
(0.98217 -0.0050785 -8.9181e-19)
(1.0049 0.015956 -1.158e-17)
(1.0099 0.011018 1.102e-17)
(1.0036 0.032214 -2.0187e-18)
(0.99954 0.00018418 3.3036e-18)
(0.99962 -0.00037587 -1.8347e-18)
(0.99987 -0.00080634 1.0643e-17)
(1.0002 -0.0011555 -2.1438e-17)
(1.0005 -0.0012897 8.8241e-18)
(1.0026 -0.00096053 -5.3138e-18)
(0.99552 -0.0013535 -1.0547e-17)
(1.0178 0.0045031 -2.3109e-18)
(0.98321 -0.0052896 -3.1643e-17)
(1.0041 0.015834 7.6398e-18)
(1.0099 0.011093 -1.009e-17)
(1.0041 0.031845 6.7331e-19)
(0.99952 0.00018766 2.6124e-19)
(0.9996 -0.00038596 -5.7719e-18)
(0.99985 -0.00082594 6.0443e-18)
(1.0002 -0.001184 2.8217e-17)
(1.0005 -0.0013269 -2.1016e-17)
(1.0027 -0.00097674 1.7094e-17)
(0.99538 -0.0014662 -6.0988e-18)
(1.0179 0.0046872 5.3511e-18)
(0.98424 -0.005484 3.7593e-17)
(1.0034 0.015698 -1.4182e-17)
(1.0098 0.011145 1.5421e-17)
(1.0046 0.031472 1.9049e-18)
(0.9995 0.00019116 4.6889e-19)
(0.99958 -0.00039624 -1.1948e-18)
(0.99984 -0.00084578 -8.6951e-18)
(1.0002 -0.0012128 -4.2476e-18)
(1.0005 -0.0013648 1.8318e-17)
(1.0028 -0.00099279 1.3615e-19)
(0.99524 -0.0015825 -1.1988e-17)
(1.0179 0.0048671 -1.2775e-17)
(0.98526 -0.0056615 -1.5736e-17)
(1.0028 0.015549 -1.3389e-18)
(1.0098 0.011177 2.8225e-18)
(1.0051 0.031095 1.993e-19)
(0.99948 0.00019468 -7.5445e-19)
(0.99957 -0.00040671 1.4216e-17)
(0.99983 -0.00086587 -5.7998e-18)
(1.0002 -0.0012421 -2.4007e-17)
(1.0005 -0.0014036 8.4458e-18)
(1.0029 -0.0010087 -4.3552e-17)
(0.99512 -0.001702 5.9798e-18)
(1.0179 0.0050419 8.0438e-18)
(0.98627 -0.0058219 7.3096e-19)
(1.0023 0.015389 1.4404e-17)
(1.0097 0.011188 -9.4397e-19)
(1.0055 0.030713 -5.3222e-18)
(0.99946 0.00019822 -1.9917e-19)
(0.99955 -0.00041738 -2.7889e-19)
(0.99982 -0.00088622 7.808e-18)
(1.0002 -0.0012719 1.4822e-17)
(1.0005 -0.0014431 -3.3556e-17)
(1.003 -0.0010246 1.8812e-18)
(0.99499 -0.0018246 1.0711e-17)
(1.0179 0.0052108 1.2599e-17)
(0.98727 -0.0059652 -9.951e-18)
(1.0019 0.015218 -1.4024e-17)
(1.0097 0.01118 -1.5294e-17)
(1.006 0.030326 5.6199e-18)
(0.99944 0.00020178 -1.3035e-18)
(0.99953 -0.00042826 3.9739e-19)
(0.9998 -0.00090683 -3.7646e-18)
(1.0002 -0.0013022 -9.8963e-18)
(1.0005 -0.0014834 1.8602e-17)
(1.0031 -0.0010406 2.3377e-17)
(0.99488 -0.0019498 3.1239e-18)
(1.0179 0.005373 6.3847e-18)
(0.98825 -0.0060915 1.5871e-17)
(1.0015 0.015039 2.3603e-18)
(1.0097 0.011154 1.1306e-17)
(1.0063 0.029936 -3.4111e-18)
(0.99942 0.00020536 2.3993e-18)
(0.99951 -0.00043934 7.3261e-19)
(0.99979 -0.00092771 -5.3805e-18)
(1.0002 -0.0013329 1.462e-18)
(1.0005 -0.0015245 -1.0086e-17)
(1.0032 -0.0010566 -5.6075e-18)
(0.99477 -0.0020775 -1.1546e-18)
(1.0179 0.005528 -2.883e-17)
(0.9892 -0.0062011 3.115e-18)
(1.0013 0.014851 -4.7854e-18)
(1.0097 0.011111 -4.5984e-18)
(1.0067 0.029541 -4.1111e-18)
(0.99939 0.00020895 -4.8966e-18)
(0.99949 -0.00045064 9.5717e-19)
(0.99978 -0.00094886 2.854e-18)
(1.0002 -0.0013641 -1.8372e-17)
(1.0005 -0.0015664 -1.1499e-17)
(1.0034 -0.0010728 -2.6033e-17)
(0.99467 -0.0022073 5.5724e-18)
(1.0178 0.0056749 1.1772e-17)
(0.99013 -0.0062947 -3.3406e-17)
(1.001 0.014657 2.2066e-17)
(1.0097 0.011052 -4.9719e-18)
(1.0071 0.029143 2.6514e-18)
(0.99937 0.00021257 4.4949e-18)
(0.99946 -0.00046217 2.1419e-18)
(0.99976 -0.00097028 1.0976e-18)
(1.0002 -0.0013959 5.8264e-18)
(1.0004 -0.0016091 -2.5405e-18)
(1.0035 -0.0010893 5.0458e-17)
(0.99458 -0.0023389 2.0007e-17)
(1.0177 0.0058133 -1.8312e-17)
(0.99103 -0.0063727 3.2151e-17)
(1.0009 0.014457 -8.2328e-18)
(1.0097 0.010978 -3.2784e-18)
(1.0074 0.028741 -1.3224e-18)
(0.99935 0.00021621 1.1026e-18)
(0.99944 -0.00047392 -1.3563e-17)
(0.99975 -0.00099199 2.1969e-18)
(1.0002 -0.0014282 2.6168e-17)
(1.0004 -0.0016526 1.9657e-17)
(1.0036 -0.0011061 -8.143e-19)
(0.99449 -0.002472 -2.7717e-17)
(1.0177 0.0059427 5.5439e-18)
(0.9919 -0.0064359 -7.2506e-18)
(1.0008 0.014252 -1.1394e-17)
(1.0098 0.01089 8.3407e-18)
(1.0078 0.028337 1.233e-18)
(0.99932 0.00021988 -4.3611e-18)
(0.99942 -0.0004859 -4.5219e-18)
(0.99973 -0.001014 -1.1901e-17)
(1.0002 -0.0014611 -2.1947e-17)
(1.0004 -0.0016969 -1.9781e-17)
(1.0037 -0.0011234 -2.293e-17)
(0.99441 -0.0026063 5.1185e-18)
(1.0176 0.0060626 4.311e-17)
(0.99274 -0.006485 3.1599e-18)
(1.0008 0.014043 -9.9491e-19)
(1.0098 0.01079 -2.9446e-18)
(1.0081 0.02793 -3.3125e-18)
(0.9993 0.00022356 3.2363e-18)
(0.9994 -0.00049811 4.2002e-18)
(0.99971 -0.0010363 1.834e-17)
(1.0002 -0.0014946 1.52e-17)
(1.0004 -0.001742 1.9245e-17)
(1.0038 -0.0011412 -8.5225e-19)
(0.99434 -0.0027415 -2.8519e-17)
(1.0174 0.0061727 -2.3302e-17)
(0.99355 -0.006521 7.842e-18)
(1.0008 0.013831 3.9439e-18)
(1.0099 0.010679 6.6384e-18)
(1.0085 0.027522 2.5601e-18)
(0.99927 0.00022727 -2.2856e-18)
(0.99937 -0.00051058 6.5894e-18)
(0.9997 -0.0010588 -1.2135e-17)
(1.0002 -0.0015286 2.2003e-18)
(1.0004 -0.0017878 8.9487e-18)
(1.004 -0.0011597 -2.2417e-18)
(0.99428 -0.0028774 6.4029e-18)
(1.0173 0.0062728 6.4711e-18)
(0.99433 -0.0065449 2.5807e-18)
(1.0008 0.013617 9.749e-18)
(1.01 0.010557 -7.9837e-18)
(1.0088 0.027111 5.1726e-19)
(0.99924 0.000231 3.4509e-18)
(0.99935 -0.00052329 4.0841e-19)
(0.99968 -0.0010817 -5.6807e-18)
(1.0002 -0.0015633 8.759e-19)
(1.0004 -0.0018345 -1.4698e-18)
(1.0041 -0.001179 -2.2145e-17)
(0.99422 -0.0030137 1.7879e-17)
(1.0172 0.0063626 2.2969e-17)
(0.99508 -0.0065575 -1.2849e-17)
(1.0009 0.0134 -1.3565e-17)
(1.0102 0.010425 -2.3335e-18)
(1.0091 0.0267 4.4028e-18)
(0.99922 0.00023475 -2.5069e-18)
(0.99932 -0.00053626 -3.1454e-19)
(0.99966 -0.0011049 7.0627e-18)
(1.0002 -0.0015986 -1.6822e-17)
(1.0003 -0.0018819 -1.3294e-17)
(1.0042 -0.0011992 2.7958e-17)
(0.99417 -0.0031501 -2.7342e-18)
(1.0171 0.0064421 -2.4319e-17)
(0.99579 -0.00656 3.2735e-18)
(1.001 0.013182 1.2772e-17)
(1.0103 0.010285 7.9097e-18)
(1.0094 0.026287 -1.5875e-18)
(0.99919 0.00023853 2.4913e-19)
(0.9993 -0.00054949 2.304e-18)
(0.99964 -0.0011284 3.8593e-18)
(1.0002 -0.0016346 8.6962e-18)
(1.0003 -0.0019301 2.6058e-17)
(1.0043 -0.0012203 6.5188e-18)
(0.99412 -0.0032865 -2.3809e-17)
(1.0169 0.006511 2.2794e-18)
(0.99648 -0.0065533 8.4319e-18)
(1.0012 0.012963 -1.1507e-17)
(1.0105 0.010136 -5.3478e-18)
(1.0098 0.025874 -1.8366e-18)
(0.99916 0.00024233 7.074e-19)
(0.99927 -0.00056299 -4.0071e-19)
(0.99962 -0.0011522 -1.0184e-17)
(1.0002 -0.0016712 -1.8704e-19)
(1.0003 -0.001979 -5.1522e-17)
(1.0045 -0.0012425 8.0379e-18)
(0.99408 -0.0034228 2.3387e-17)
(1.0168 0.0065695 -6.5486e-18)
(0.99714 -0.0065386 -8.8299e-18)
(1.0014 0.012744 1.9108e-17)
(1.0107 0.0099809 6.3985e-18)
(1.0101 0.025461 4.76e-18)
(0.99913 0.00024616 7.5993e-19)
(0.99924 -0.00057677 -8.3165e-19)
(0.9996 -0.0011763 1.8418e-17)
(1.0002 -0.0017086 4.0113e-18)
(1.0003 -0.0020287 4.5659e-17)
(1.0046 -0.0012659 -2.8327e-17)
(0.99405 -0.0035586 -7.8322e-18)
(1.0166 0.0066176 6.1641e-18)
(0.99777 -0.0065168 3.0422e-18)
(1.0016 0.012524 -1.0751e-17)
(1.0108 0.0098192 -1.0359e-18)
(1.0104 0.025048 -3.51e-18)
(0.9991 0.00025001 -2.9698e-18)
(0.99922 -0.00059083 1.3965e-18)
(0.99958 -0.0012008 -1.0825e-17)
(1.0002 -0.0017467 5.2749e-18)
(1.0003 -0.0020791 -1.7349e-17)
(1.0047 -0.0012907 3.8415e-18)
(0.99403 -0.003694 3.136e-17)
(1.0165 0.0066553 -2.3073e-17)
(0.99838 -0.006489 -1.1183e-17)
(1.0018 0.012304 -1.0635e-17)
(1.011 0.0096518 -5.0877e-18)
(1.0107 0.024636 -9.6391e-19)
(0.99907 0.0002539 3.6994e-18)
(0.99919 -0.00060519 -3.3166e-18)
(0.99956 -0.0012256 -1.0506e-17)
(1.0002 -0.0017856 -8.4112e-18)
(1.0002 -0.0021303 -2.8368e-17)
(1.0048 -0.0013168 -1.7819e-17)
(0.99401 -0.0038287 -1.9229e-17)
(1.0163 0.0066828 2.1454e-17)
(0.99895 -0.0064561 1.0841e-17)
(1.002 0.012084 1.6105e-17)
(1.0113 0.0094794 -1.9914e-18)
(1.011 0.024225 4.6528e-18)
(0.99904 0.00025781 -5.9458e-18)
(0.99916 -0.00061984 5.374e-18)
(0.99954 -0.0012507 2.5725e-17)
(1.0002 -0.0018252 -1.984e-18)
(1.0002 -0.0021821 3.1386e-17)
(1.005 -0.0013443 1.343e-18)
(0.99399 -0.0039628 -1.8417e-17)
(1.0162 0.0067003 8.3978e-18)
(0.99951 -0.0064192 -3.9096e-18)
(1.0023 0.011864 -3.3723e-18)
(1.0115 0.0093023 6.461e-18)
(1.0114 0.023814 -3.1464e-18)
(0.99901 0.00026175 4.8726e-18)
(0.99913 -0.0006348 -7.3036e-18)
(0.99951 -0.0012761 -2.9994e-17)
(1.0002 -0.0018657 1.298e-17)
(1.0002 -0.0022347 -2.2363e-17)
(1.0051 -0.0013735 2.4633e-17)
(0.99398 -0.0040962 6.0029e-18)
(1.016 0.0067079 -7.9938e-18)
(1 -0.0063791 -1.8764e-18)
(1.0025 0.011644 -8.4451e-18)
(1.0117 0.0091213 -1.0533e-17)
(1.0117 0.023405 4.3492e-18)
(0.99897 0.00026571 -3.5893e-18)
(0.9991 -0.00065007 2.4287e-18)
(0.99949 -0.0013019 1.8226e-17)
(1.0002 -0.001907 -1.7111e-17)
(1.0001 -0.002288 3.5983e-17)
(1.0052 -0.0014042 -1.912e-17)
(0.99398 -0.0042288 3.4994e-18)
(1.0158 0.0067059 -1.2636e-17)
(1.0006 -0.0063366 6.1247e-18)
(1.0028 0.011425 -1.1813e-18)
(1.0119 0.0089366 4.5086e-18)
(1.012 0.022997 -1.9339e-18)
(0.99894 0.00026971 4.4023e-18)
(0.99907 -0.00066567 1.8909e-18)
(0.99946 -0.0013281 -1.2152e-17)
(1.0002 -0.0019492 -3.4817e-19)
(1.0001 -0.0023419 -1.5879e-18)
(1.0054 -0.0014367 4.6237e-18)
(0.99398 -0.0043606 3.3231e-17)
(1.0157 0.0066945 8.6437e-18)
(1.001 -0.0062927 -1.8154e-17)
(1.003 0.011206 -6.1241e-18)
(1.0122 0.0087487 -4.2402e-18)
(1.0123 0.022591 2.0324e-18)
(0.9989 0.00027374 -5.0461e-18)
(0.99904 -0.0006816 -7.0074e-18)
(0.99944 -0.0013545 5.098e-18)
(1.0002 -0.0019922 1.4806e-17)
(1.0001 -0.0023965 -3.2643e-17)
(1.0055 -0.0014709 1.5537e-17)
(0.99399 -0.0044917 -3.1997e-17)
(1.0155 0.0066739 1.037e-17)