/*--------------------------------*- C++ -*----------------------------------*\
  =========                 |
  \\      /  F ield         | OpenFOAM: The Open Source CFD Toolbox
   \\    /   O peration     | Website:  https://openfoam.org
    \\  /    A nd           | Version:  6.0
     \\/     M anipulation  |
\*---------------------------------------------------------------------------*/
FoamFile
{
    version     2.0;
    format      ascii;
    class       volScalarField;
    location    "18";
    object      p;
}
// * * * * * * * * * * * * * * * * * * * * * * * * * * * * * * * * * * * * * //

dimensions      [0 2 -2 0 0 0 0];

internalField   nonuniform List<scalar> 
248000
(
0.0207316
0.0207541
0.0207766
0.0207991
0.0208218
0.0208446
0.0208676
0.0208908
0.0209143
0.020938
0.0209622
0.0209867
0.0210116
0.021037
0.021063
0.0210896
0.0211168
0.0211446
0.0211732
0.0212026
0.0212328
0.0212638
0.0212959
0.0213289
0.021363
0.0213982
0.0214347
0.0214725
0.0215115
0.021552
0.021594
0.0216373
0.0216822
0.0217286
0.0217766
0.021826
0.021877
0.0219295
0.0219835
0.022039
0.022096
0.0221544
0.0222143
0.0222755
0.022338
0.0224018
0.0224667
0.0225328
0.0225998
0.0226678
0.0227364
0.0228056
0.0228749
0.0229442
0.0230129
0.0230807
0.0231473
0.0232119
0.0232743
0.0233337
0.0233898
0.0234418
0.0234893
0.023532
0.0235692
0.023601
0.0236271
0.0236476
0.0236625
0.0236718
0.0236762
0.0236764
0.0236735
0.0236688
0.0236638
0.0236604
0.0236608
0.0236669
0.023681
0.0237052
0.0237412
0.0237906
0.0238543
0.0239326
0.0240252
0.0241312
0.0242493
0.0243778
0.0245146
0.0246578
0.0248052
0.0249542
0.0251014
0.0252409
0.0253656
0.025463
0.02552
0.0255168
0.0254387
0.0252654
0.0249927
0.0246132
0.0241464
0.0236043
0.0230288
0.0224373
0.0218679
0.0213376
0.0208475
0.0203837
0.0199203
0.0194209
0.0188507
0.018174
0.0173847
0.016443
0.0154759
0.0141556
0.0136776
0.0158774
0.0207269
0.020749
0.0207714
0.0207939
0.0208166
0.0208395
0.0208627
0.0208862
0.02091
0.0209342
0.0209588
0.0209838
0.0210093
0.0210353
0.0210619
0.0210891
0.0211169
0.0211454
0.0211746
0.0212046
0.0212354
0.0212671
0.0212996
0.0213332
0.0213677
0.0214034
0.0214402
0.0214782
0.0215176
0.0215582
0.0216003
0.0216438
0.0216887
0.021735
0.0217829
0.0218322
0.021883
0.0219354
0.0219892
0.0220444
0.0221012
0.0221594
0.022219
0.02228
0.0223424
0.022406
0.0224708
0.0225368
0.0226039
0.0226721
0.0227413
0.0228112
0.0228815
0.0229519
0.0230221
0.0230917
0.0231602
0.0232273
0.0232923
0.0233548
0.0234143
0.0234703
0.0235222
0.0235698
0.0236125
0.0236503
0.0236832
0.0237111
0.0237342
0.0237526
0.023767
0.0237781
0.0237871
0.0237954
0.0238047
0.0238169
0.0238343
0.0238591
0.0238938
0.0239406
0.0240017
0.0240787
0.0241729
0.0242851
0.0244152
0.0245628
0.024727
0.0249065
0.0250998
0.0253058
0.025523
0.0257497
0.0259834
0.0262194
0.026451
0.0266661
0.0268506
0.0269828
0.0270445
0.0270106
0.0268713
0.0266126
0.02625
0.0257916
0.0252807
0.0247361
0.0242041
0.0237084
0.0232572
0.022841
0.0224336
0.0219923
0.0214714
0.020817
0.0200091
0.0189758
0.0178683
0.0162722
0.0161358
0.0173183
0.0206937
0.0207121
0.0207314
0.0207512
0.0207718
0.020793
0.020815
0.0208375
0.0208608
0.0208847
0.0209094
0.0209347
0.0209607
0.0209875
0.021015
0.0210433
0.0210724
0.0211023
0.021133
0.0211647
0.0211972
0.0212307
0.0212651
0.0213006
0.0213371
0.0213748
0.0214136
0.0214536
0.021495
0.0215376
0.0215816
0.021627
0.0216739
0.0217222
0.0217719
0.021823
0.0218757
0.0219297
0.0219852
0.0220422
0.0221006
0.0221603
0.0222214
0.0222839
0.0223475
0.0224125
0.0224785
0.0225456
0.0226138
0.0226829
0.0227529
0.0228235
0.0228945
0.0229654
0.0230359
0.0231057
0.0231741
0.0232409
0.0233054
0.0233671
0.0234255
0.0234799
0.0235299
0.023575
0.0236148
0.023649
0.0236776
0.0237006
0.0237178
0.0237296
0.0237363
0.0237386
0.0237374
0.023734
0.0237299
0.023727
0.0237273
0.0237331
0.0237464
0.0237696
0.0238045
0.0238527
0.0239154
0.0239929
0.0240853
0.0241918
0.0243115
0.024443
0.0245849
0.0247363
0.0248963
0.0250641
0.0252388
0.0254174
0.0255953
0.0257622
0.0259057
0.0260044
0.0260385
0.0259791
0.0258106
0.0255105
0.0250854
0.0245346
0.0238952
0.0231833
0.0224479
0.0217206
0.0210224
0.0203606
0.0197264
0.0190928
0.0184281
0.0176875
0.01686
0.0158817
0.0149167
0.0136534
0.0139836
0.014785
0.0206627
0.0206781
0.0206948
0.0207125
0.0207312
0.0207507
0.0207713
0.0207928
0.0208153
0.0208386
0.020863
0.0208882
0.0209144
0.0209416
0.0209697
0.0209987
0.0210287
0.0210597
0.0210916
0.0211246
0.0211586
0.0211936
0.0212297
0.021267
0.0213053
0.0213449
0.0213857
0.0214277
0.0214711
0.0215158
0.0215619
0.0216094
0.0216584
0.0217088
0.0217606
0.0218139
0.0218686
0.0219248
0.0219824
0.0220415
0.0221019
0.0221636
0.0222267
0.0222911
0.0223566
0.0224233
0.0224911
0.0225599
0.0226298
0.0227004
0.0227718
0.0228437
0.0229157
0.0229877
0.0230591
0.0231296
0.0231987
0.0232659
0.0233306
0.0233924
0.0234506
0.0235046
0.0235538
0.0235978
0.0236361
0.0236684
0.0236946
0.0237147
0.0237286
0.0237364
0.0237383
0.023735
0.0237273
0.0237163
0.0237035
0.0236904
0.0236793
0.0236721
0.023671
0.0236781
0.023695
0.0237234
0.023764
0.0238174
0.0238831
0.0239604
0.0240479
0.0241441
0.0242478
0.024358
0.0244747
0.0245984
0.0247301
0.0248697
0.0250163
0.0251639
0.0253044
0.0254201
0.0254934
0.0254953
0.0254065
0.0251978
0.024866
0.0243986
0.0238208
0.023138
0.0223931
0.0216165
0.0208344
0.0200649
0.0193132
0.0185681
0.017814
0.017021
0.0161916
0.0152773
0.0144557
0.0134856
0.0140532
0.0153186
0.0206259
0.0206408
0.0206569
0.0206741
0.0206923
0.0207114
0.0207317
0.0207529
0.0207752
0.0207985
0.0208229
0.0208482
0.0208747
0.0209022
0.0209308
0.0209605
0.0209913
0.0210231
0.021056
0.0210901
0.0211253
0.0211617
0.0211993
0.021238
0.021278
0.0213193
0.0213619
0.0214059
0.0214512
0.0214979
0.0215461
0.0215957
0.0216468
0.0216994
0.0217534
0.0218089
0.0218659
0.0219243
0.0219841
0.0220454
0.022108
0.022172
0.0222373
0.0223038
0.0223714
0.0224402
0.02251
0.0225809
0.0226527
0.0227253
0.0227985
0.0228722
0.022946
0.0230196
0.0230927
0.0231648
0.0232354
0.0233041
0.0233702
0.0234334
0.0234928
0.023548
0.0235984
0.0236434
0.0236825
0.0237155
0.0237422
0.0237627
0.0237768
0.0237847
0.0237865
0.0237827
0.023774
0.0237614
0.0237464
0.0237306
0.023716
0.0237047
0.0236987
0.0236999
0.0237101
0.0237306
0.023762
0.0238045
0.0238575
0.0239196
0.023989
0.0240636
0.0241415
0.0242215
0.0243037
0.0243891
0.0244804
0.0245802
0.0246917
0.0248143
0.0249464
0.0250771
0.0251951
0.0252759
0.025302
0.0252423
0.0250874
0.0248148
0.0244373
0.023945
0.0233682
0.0227261
0.0220396
0.0213257
0.0205926
0.0198352
0.0190462
0.0182047
0.0173225
0.0163607
0.0155081
0.0145445
0.0150246
0.0162662
0.0206006
0.0206154
0.0206314
0.0206483
0.0206663
0.0206852
0.0207051
0.0207261
0.0207481
0.0207711
0.0207952
0.0208204
0.0208467
0.0208742
0.0209028
0.0209325
0.0209635
0.0209957
0.021029
0.0210636
0.0210994
0.0211366
0.021175
0.0212148
0.0212559
0.0212985
0.0213425
0.021388
0.0214351
0.0214836
0.0215338
0.0215855
0.0216388
0.0216936
0.02175
0.0218078
0.0218673
0.0219282
0.0219905
0.0220544
0.0221195
0.0221861
0.0222539
0.0223229
0.0223931
0.0224643
0.0225365
0.0226097
0.0226838
0.0227587
0.022834
0.0229098
0.0229857
0.0230614
0.0231365
0.0232105
0.023283
0.0233536
0.0234215
0.0234864
0.0235476
0.0236044
0.0236564
0.0237029
0.0237434
0.0237775
0.0238053
0.0238266
0.0238415
0.0238502
0.0238527
0.0238492
0.0238404
0.023827
0.0238107
0.023793
0.0237761
0.0237617
0.0237518
0.0237483
0.0237526
0.0237659
0.0237885
0.0238201
0.0238594
0.0239041
0.0239514
0.0239979
0.0240401
0.0240754
0.0241024
0.0241213
0.0241345
0.024146
0.0241615
0.024185
0.0242211
0.024267
0.0243201
0.0243644
0.0243896
0.0243687
0.0242929
0.0241361
0.0239034
0.0235732
0.0231628
0.0226793
0.0221333
0.0215351
0.0208888
0.0201885
0.0194296
0.018596
0.0177064
0.0167304
0.0158678
0.014927
0.0153233
0.0163893
0.0205949
0.0206086
0.0206236
0.0206397
0.0206569
0.0206752
0.0206946
0.0207151
0.0207368
0.0207596
0.0207835
0.0208086
0.0208348
0.0208622
0.0208908
0.0209206
0.0209516
0.0209839
0.0210174
0.0210522
0.0210884
0.0211258
0.0211647
0.021205
0.0212467
0.0212901
0.0213349
0.0213815
0.0214297
0.0214796
0.0215312
0.0215845
0.0216395
0.0216963
0.0217547
0.0218147
0.0218764
0.0219397
0.0220045
0.0220708
0.0221386
0.0222078
0.0222783
0.0223501
0.0224229
0.0224969
0.0225717
0.0226475
0.0227242
0.0228016
0.0228794
0.0229577
0.0230361
0.0231144
0.023192
0.0232686
0.0233436
0.0234168
0.0234874
0.0235549
0.0236189
0.0236785
0.0237334
0.0237828
0.0238264
0.0238637
0.0238945
0.0239192
0.0239377
0.0239503
0.0239568
0.0239574
0.0239523
0.0239428
0.0239303
0.0239167
0.0239038
0.0238937
0.0238881
0.0238889
0.0238976
0.0239151
0.0239415
0.023976
0.0240167
0.0240603
0.0241026
0.0241383
0.0241619
0.0241681
0.0241527
0.0241131
0.0240497
0.0239646
0.0238639
0.0237533
0.0236415
0.0235321
0.0234307
0.0233311
0.0232328
0.0231176
0.0229832
0.0228065
0.0225928
0.022315
0.0219836
0.0215968
0.0211576
0.0206691
0.0201299
0.0195306
0.0188666
0.0181248
0.0173285
0.0164553
0.0157096
0.0149375
0.0153708
0.0164277
0.0205949
0.0206086
0.0206236
0.0206396
0.0206567
0.0206749
0.0206943
0.0207148
0.0207364
0.0207592
0.0207833
0.0208085
0.0208349
0.0208626
0.0208916
0.0209218
0.0209533
0.0209861
0.0210201
0.0210555
0.0210922
0.0211303
0.0211697
0.0212106
0.021253
0.021297
0.0213426
0.0213899
0.021439
0.0214899
0.0215426
0.0215971
0.0216535
0.0217117
0.0217717
0.0218335
0.021897
0.0219622
0.0220292
0.0220977
0.0221678
0.0222394
0.0223124
0.0223868
0.0224624
0.0225391
0.0226168
0.0226954
0.022775
0.0228552
0.022936
0.0230173
0.0230988
0.0231803
0.0232613
0.0233414
0.0234202
0.0234972
0.023572
0.023644
0.0237127
0.0237774
0.0238377
0.0238931
0.0239431
0.0239872
0.0240255
0.0240581
0.0240855
0.0241076
0.0241245
0.024136
0.0241427
0.0241458
0.0241471
0.0241486
0.0241525
0.0241609
0.0241757
0.0241992
0.0242329
0.024278
0.0243349
0.0244026
0.0244789
0.0245601
0.0246406
0.0247138
0.0247719
0.0248066
0.0248103
0.0247765
0.0247015
0.0245838
0.0244263
0.0242335
0.0240144
0.0237756
0.0235281
0.0232733
0.0230198
0.0227589
0.0224976
0.0222199
0.021936
0.0216204
0.0212818
0.0209159
0.0205209
0.0200959
0.0196341
0.0191228
0.0185554
0.0179189
0.0172371
0.0164909
0.0158779
0.015268
0.0157058
0.0166959
0.0205915
0.0206058
0.0206213
0.0206379
0.0206555
0.0206743
0.0206943
0.0207154
0.0207377
0.0207611
0.0207859
0.0208118
0.0208391
0.0208676
0.0208974
0.0209285
0.020961
0.0209948
0.0210299
0.0210664
0.0211043
0.0211436
0.0211842
0.0212264
0.02127
0.0213152
0.021362
0.0214105
0.0214608
0.0215128
0.0215667
0.0216225
0.0216802
0.0217398
0.0218013
0.0218646
0.0219297
0.0219968
0.0220655
0.0221361
0.0222083
0.0222821
0.0223575
0.0224344
0.0225127
0.0225922
0.0226728
0.0227545
0.0228373
0.0229207
0.0230049
0.0230897
0.0231749
0.0232601
0.0233452
0.0234296
0.0235129
0.0235949
0.0236749
0.0237526
0.0238273
0.0238986
0.023966
0.0240292
0.0240876
0.0241409
0.024189
0.0242324
0.0242714
0.024306
0.0243362
0.024362
0.0243841
0.0244041
0.0244241
0.0244466
0.0244738
0.0245083
0.0245525
0.0246091
0.0246804
0.0247683
0.0248736
0.0249961
0.0251339
0.0252834
0.025439
0.0255931
0.0257365
0.0258586
0.0259486
0.0259961
0.0259924
0.0259312
0.0258105
0.0256305
0.0253974
0.0251165
0.0248003
0.0244538
0.0240913
0.0237118
0.0233299
0.0229378
0.0225524
0.0221524
0.0217495
0.0213399
0.020921
0.0204895
0.0200354
0.0195424
0.0190013
0.0183969
0.0177495
0.0170391
0.0164491
0.0158594
0.0161591
0.0168668
0.0205894
0.0206052
0.0206222
0.0206401
0.0206589
0.0206787
0.0206996
0.0207214
0.0207444
0.0207685
0.0207938
0.0208204
0.0208482
0.0208774
0.0209078
0.0209397
0.020973
0.0210077
0.0210439
0.0210815
0.0211206
0.0211612
0.0212033
0.0212469
0.021292
0.0213388
0.0213872
0.0214374
0.0214893
0.021543
0.0215986
0.0216561
0.0217155
0.0217769
0.0218402
0.0219055
0.0219726
0.0220416
0.0221125
0.0221853
0.0222598
0.0223361
0.022414
0.0224936
0.0225747
0.0226572
0.0227409
0.022826
0.0229122
0.0229992
0.023087
0.0231755
0.0232645
0.0233537
0.0234429
0.0235315
0.0236194
0.0237061
0.023791
0.0238738
0.023954
0.024031
0.0241045
0.0241742
0.0242395
0.0243002
0.0243562
0.0244077
0.0244551
0.0244984
0.0245375
0.0245725
0.0246043
0.0246349
0.024667
0.024703
0.0247457
0.0247977
0.0248625
0.0249431
0.0250428
0.0251645
0.0253101
0.0254806
0.0256752
0.0258913
0.026124
0.0263661
0.026608
0.0268382
0.0270437
0.027211
0.0273275
0.0273819
0.0273665
0.0272761
0.0271117
0.0268746
0.0265748
0.0262171
0.0258174
0.0253785
0.0249198
0.0244398
0.0239604
0.0234659
0.022972
0.0224774
0.0219807
0.0214781
0.0209578
0.0204018
0.0197986
0.0191311
0.0184156
0.0176317
0.0169517
0.0162662
0.0163379
0.0166673
0.0206096
0.0206253
0.0206421
0.0206599
0.0206786
0.0206984
0.0207192
0.0207411
0.0207641
0.0207883
0.0208137
0.0208403
0.0208682
0.0208975
0.0209282
0.0209603
0.0209939
0.021029
0.0210657
0.021104
0.0211439
0.0211855
0.0212286
0.0212735
0.0213201
0.0213685
0.0214185
0.0214705
0.0215242
0.0215799
0.0216375
0.021697
0.0217586
0.0218222
0.0218877
0.0219553
0.0220248
0.0220964
0.0221699
0.0222453
0.0223226
0.0224017
0.0224825
0.0225651
0.0226493
0.0227351
0.0228223
0.0229109
0.0230007
0.0230914
0.0231829
0.023275
0.0233677
0.0234605
0.0235531
0.0236453
0.0237366
0.0238267
0.0239149
0.0240008
0.024084
0.0241639
0.0242401
0.0243123
0.0243801
0.0244431
0.0245009
0.0245537
0.0246016
0.0246444
0.0246818
0.0247141
0.0247426
0.0247695
0.0247973
0.024829
0.0248672
0.0249149
0.0249761
0.0250545
0.0251544
0.0252796
0.0254334
0.0256182
0.0258349
0.0260824
0.0263576
0.0266546
0.0269648
0.0272771
0.0275778
0.0278523
0.0280849
0.0282609
0.0283677
0.0283947
0.0283369
0.0281907
0.0279608
0.0276493
0.0272701
0.0268264
0.0263389
0.0258094
0.025263
0.024688
0.0241042
0.0235132
0.0229157
0.0223092
0.0216818
0.0210161
0.0203005
0.019519
0.0186869
0.0177876
0.0169904
0.0162071
0.0160823
0.0161241
0.020657
0.020672
0.0206881
0.0207051
0.0207231
0.0207421
0.020762
0.0207831
0.0208052
0.0208286
0.0208531
0.020879
0.0209062
0.0209348
0.0209649
0.0209966
0.0210298
0.0210648
0.0211014
0.0211398
0.0211799
0.0212218
0.0212656
0.0213113
0.0213587
0.0214082
0.0214596
0.021513
0.0215684
0.0216258
0.0216854
0.0217471
0.0218109
0.0218769
0.021945
0.0220153
0.0220876
0.0221621
0.0222386
0.0223172
0.0223976
0.02248
0.0225642
0.0226502
0.0227379
0.0228272
0.022918
0.0230103
0.0231038
0.0231981
0.0232931
0.0233887
0.0234845
0.0235802
0.0236756
0.0237702
0.0238636
0.0239552
0.0240447
0.0241314
0.0242147
0.0242941
0.0243692
0.0244395
0.0245046
0.0245639
0.0246169
0.0246632
0.0247029
0.0247352
0.0247599
0.024777
0.0247881
0.0247954
0.0248014
0.0248089
0.0248204
0.024839
0.0248689
0.0249145
0.0249805
0.0250718
0.025193
0.0253477
0.0255389
0.0257672
0.0260317
0.0263286
0.0266514
0.0269907
0.0273335
0.0276657
0.0279706
0.0282316
0.0284328
0.0285597
0.0286019
0.028551
0.0284058
0.0281645
0.0278364
0.0274237
0.0269444
0.0264024
0.0258221
0.0251954
0.0245446
0.0238742
0.0231874
0.022484
0.0217541
0.0209831
0.0201622
0.0192798
0.0183544
0.0173779
0.0165223
0.0157291
0.0155181
0.0154529
0.0207386
0.0207504
0.0207635
0.0207777
0.0207931
0.0208097
0.0208277
0.0208469
0.0208675
0.0208894
0.0209127
0.0209375
0.0209637
0.0209915
0.0210208
0.0210519
0.0210846
0.021119
0.0211553
0.0211935
0.0212336
0.0212757
0.0213197
0.0213659
0.021414
0.0214643
0.0215167
0.0215712
0.021628
0.021687
0.0217483
0.0218119
0.0218778
0.021946
0.0220166
0.0220894
0.0221646
0.0222421
0.0223217
0.0224035
0.0224874
0.0225733
0.022661
0.0227506
0.0228419
0.0229349
0.0230294
0.0231253
0.0232224
0.0233202
0.0234185
0.0235171
0.0236156
0.0237138
0.0238111
0.0239073
0.0240017
0.0240939
0.0241831
0.0242689
0.0243505
0.0244273
0.0244988
0.0245643
0.0246233
0.0246751
0.0247189
0.024754
0.0247799
0.0247955
0.0248004
0.0247945
0.0247793
0.0247569
0.0247296
0.0246995
0.024669
0.024641
0.0246196
0.0246094
0.0246155
0.0246434
0.0246985
0.0247858
0.0249097
0.0250729
0.0252767
0.0255196
0.0257978
0.0261042
0.0264281
0.026757
0.027075
0.0273655
0.027611
0.0277948
0.0279031
0.0279232
0.0278491
0.0276748
0.0274047
0.0270382
0.0265899
0.0260631
0.0254807
0.0248357
0.0241524
0.0234375
0.0226966
0.0219324
0.0211385
0.0203046
0.0194271
0.0185011
0.0175506
0.0165778
0.0157582
0.0150631
0.014881
0.0148669
0.0208389
0.0208479
0.0208585
0.0208703
0.0208835
0.0208979
0.0209138
0.0209311
0.0209498
0.0209701
0.0209919
0.0210153
0.0210404
0.0210671
0.0210956
0.021126
0.0211581
0.0211922
0.0212282
0.0212663
0.0213064
0.0213486
0.0213929
0.0214394
0.021488
0.021539
0.0215922
0.0216477
0.0217056
0.021766
0.0218288
0.0218941
0.021962
0.0220323
0.0221052
0.0221807
0.0222586
0.0223389
0.0224217
0.0225068
0.022594
0.0226834
0.0227747
0.022868
0.0229629
0.0230595
0.0231576
0.023257
0.0233576
0.0234587
0.0235601
0.0236615
0.0237626
0.0238629
0.0239621
0.0240596
0.0241549
0.0242473
0.0243362
0.0244208
0.0245006
0.0245747
0.0246424
0.024703
0.0247557
0.0247998
0.024834
0.0248575
0.0248693
0.0248679
0.0248526
0.0248232
0.024781
0.0247277
0.0246652
0.024595
0.0245189
0.0244395
0.0243604
0.0242861
0.0242218
0.0241731
0.024146
0.0241461
0.0241791
0.0242493
0.02436
0.0245121
0.0247042
0.0249322
0.0251883
0.0254623
0.0257405
0.0260074
0.0262461
0.0264394
0.0265714
0.0266273
0.0265974
0.0264723
0.0262516
0.0259325
0.0255248
0.0250314
0.024471
0.0238381
0.0231572
0.0224365
0.0216838
0.0209052
0.0200977
0.0192563
0.018383
0.0174803
0.0165778
0.0156868
0.0149821
0.0144589
0.0143771
0.0145004
0.0209604
0.020965
0.0209715
0.0209797
0.0209895
0.021001
0.0210143
0.0210294
0.0210462
0.0210649
0.0210854
0.0211077
0.0211319
0.021158
0.021186
0.021216
0.021248
0.0212821
0.0213183
0.0213566
0.0213971
0.0214398
0.0214847
0.021532
0.0215815
0.0216335
0.0216878
0.0217446
0.0218038
0.0218656
0.0219299
0.021997
0.0220666
0.022139
0.0222141
0.0222918
0.0223722
0.0224553
0.0225409
0.0226291
0.0227195
0.0228122
0.022907
0.0230037
0.0231022
0.0232022
0.0233037
0.0234066
0.0235104
0.0236148
0.0237192
0.0238235
0.0239273
0.0240301
0.0241314
0.0242308
0.0243277
0.0244213
0.0245109
0.0245958
0.0246753
0.0247486
0.0248147
0.0248728
0.0249222
0.0249617
0.02499
0.0250061
0.0250083
0.0249952
0.0249655
0.0249191
0.0248567
0.0247799
0.0246898
0.0245872
0.0244733
0.0243501
0.0242205
0.0240888
0.0239597
0.0238386
0.0237316
0.0236445
0.0235838
0.023555
0.0235626
0.0236096
0.023697
0.0238235
0.023984
0.0241712
0.0243742
0.0245799
0.0247728
0.0249367
0.0250555
0.0251137
0.025099
0.0250004
0.0248135
0.0245334
0.0241661
0.0237128
0.0231889
0.0225885
0.021936
0.0212405
0.0205114
0.0197576
0.0189795
0.0181767
0.0173564
0.0165273
0.0157228
0.01496
0.0144076
0.0140767
0.0141124
0.0143856
0.0210839
0.0210861
0.0210904
0.0210965
0.0211044
0.0211141
0.0211256
0.021139
0.0211544
0.0211717
0.021191
0.0212125
0.021236
0.0212616
0.0212894
0.0213195
0.0213517
0.0213862
0.0214229
0.021462
0.0215033
0.021547
0.0215931
0.0216415
0.0216924
0.0217457
0.0218014
0.0218598
0.0219206
0.0219842
0.0220503
0.0221193
0.022191
0.0222656
0.0223429
0.0224231
0.022506
0.0225918
0.0226802
0.0227712
0.0228648
0.0229607
0.0230587
0.0231587
0.0232606
0.023364
0.0234689
0.023575
0.0236821
0.0237897
0.0238973
0.0240048
0.0241117
0.0242176
0.024322
0.0244245
0.0245243
0.0246208
0.0247132
0.0248008
0.024883
0.0249588
0.0250271
0.0250872
0.0251381
0.0251786
0.0252073
0.0252228
0.0252236
0.0252075
0.0251735
0.0251211
0.0250505
0.0249631
0.0248594
0.0247392
0.0246032
0.0244526
0.0242896
0.0241179
0.0239416
0.0237656
0.0235954
0.023437
0.0232968
0.023181
0.023095
0.0230433
0.0230284
0.0230515
0.0231103
0.0232002
0.0233131
0.0234386
0.0235636
0.0236738
0.0237539
0.023789
0.0237658
0.0236726
0.0235022
0.0232489
0.0229145
0.0225
0.0220159
0.0214569
0.0208461
0.020193
0.0195078
0.0188019
0.0180779
0.0173391
0.0165963
0.0158627
0.0151728
0.0145462
0.0141404
0.0139762
0.0141052
0.014494
0.0212224
0.0212212
0.0212223
0.0212254
0.0212306
0.021238
0.0212476
0.0212594
0.0212735
0.0212898
0.0213085
0.0213295
0.0213527
0.0213784
0.0214064
0.0214368
0.0214696
0.0215049
0.0215425
0.0215827
0.0216253
0.0216705
0.021718
0.0217682
0.0218208
0.021876
0.0219337
0.021994
0.0220569
0.0221225
0.0221909
0.022262
0.0223359
0.0224127
0.0224924
0.022575
0.0226604
0.0227487
0.0228399
0.0229338
0.0230302
0.0231292
0.0232303
0.0233336
0.0234387
0.0235455
0.0236537
0.0237631
0.0238736
0.0239847
0.0240958
0.0242069
0.0243177
0.0244276
0.0245362
0.0246431
0.0247477
0.0248492
0.0249469
0.0250402
0.0251285
0.0252106
0.0252857
0.0253528
0.0254109
0.0254588
0.025495
0.0255183
0.0255266
0.0255179
0.025491
0.0254451
0.0253802
0.0252973
0.0251963
0.0250761
0.0249368
0.0247791
0.0246041
0.024415
0.024215
0.0240082
0.0237996
0.0235945
0.0233992
0.0232199
0.0230622
0.0229317
0.0228319
0.0227657
0.0227331
0.0227317
0.0227563
0.0227991
0.0228495
0.0228955
0.0229236
0.0229201
0.0228718
0.0227672
0.0225978
0.022357
0.0220441
0.0216595
0.02121
0.0206899
0.020121
0.0195127
0.0188756
0.0182225
0.0175573
0.0168857
0.0162205
0.0155772
0.0149894
0.0144761
0.0141816
0.0141323
0.0143103
0.0147595
0.021364
0.021362
0.0213625
0.021365
0.0213696
0.0213763
0.0213851
0.0213962
0.0214095
0.0214252
0.0214433
0.0214638
0.0214869
0.0215124
0.0215406
0.0215713
0.0216046
0.0216406
0.0216792
0.0217205
0.0217643
0.0218109
0.02186
0.0219119
0.0219662
0.0220234
0.0220831
0.0221455
0.0222106
0.0222785
0.0223492
0.0224227
0.0224992
0.0225785
0.0226608
0.022746
0.0228342
0.0229253
0.0230192
0.023116
0.0232155
0.0233175
0.0234219
0.0235284
0.0236368
0.023747
0.0238586
0.0239716
0.0240857
0.0242006
0.0243157
0.0244311
0.0245464
0.0246613
0.0247754
0.0248882
0.0249993
0.0251079
0.0252134
0.0253152
0.0254127
0.0255049
0.0255909
0.0256697
0.0257404
0.0258017
0.0258522
0.0258905
0.0259149
0.025923
0.0259136
0.0258859
0.0258396
0.0257752
0.0256921
0.0255886
0.0254642
0.0253188
0.025153
0.0249689
0.0247691
0.0245567
0.024336
0.0241113
0.0238884
0.0236733
0.0234713
0.0232881
0.0231282
0.0229953
0.0228911
0.022815
0.022764
0.0227327
0.022713
0.0226954
0.0226679
0.0226191
0.022536
0.0224089
0.0222274
0.0219862
0.0216814
0.0213147
0.0208879
0.0203966
0.0198602
0.0192879
0.0186901
0.0180802
0.0174628
0.0168446
0.0162391
0.0156624
0.0151457
0.0147063
0.0144745
0.0144812
0.0146612
0.015117
0.0215288
0.0215251
0.0215239
0.0215248
0.021528
0.0215335
0.0215414
0.0215517
0.0215644
0.0215797
0.0215975
0.0216178
0.0216408
0.0216665
0.0216948
0.0217259
0.0217597
0.0217963
0.0218357
0.0218779
0.0219229
0.0219707
0.0220213
0.0220748
0.022131
0.02219
0.0222518
0.0223164
0.0223837
0.022454
0.0225271
0.0226031
0.022682
0.022764
0.0228489
0.0229368
0.0230276
0.0231215
0.0232183
0.0233181
0.0234206
0.0235257
0.0236333
0.0237432
0.023855
0.0239687
0.024084
0.0242008
0.0243188
0.0244379
0.0245575
0.0246777
0.0247984
0.0249192
0.0250399
0.02516
0.025279
0.0253965
0.0255117
0.0256242
0.0257335
0.0258387
0.0259389
0.026033
0.0261204
0.0261997
0.0262697
0.026329
0.0263758
0.026408
0.0264242
0.0264236
0.0264058
0.0263708
0.0263176
0.0262441
0.0261491
0.0260319
0.0258925
0.0257323
0.025553
0.0253568
0.0251471
0.0249272
0.0247022
0.0244772
0.0242574
0.0240481
0.0238539
0.023679
0.0235262
0.023396
0.0232873
0.0231965
0.0231176
0.0230432
0.0229633
0.0228685
0.0227469
0.0225898
0.0223869
0.0221336
0.0218242
0.0214612
0.0210429
0.0205655
0.0200464
0.0194942
0.018919
0.0183342
0.0177443
0.0171564
0.0165834
0.0160413
0.0155582
0.0151492
0.0149324
0.014943
0.0150867
0.0155061
0.0217003
0.0216977
0.0216976
0.0216994
0.0217033
0.0217092
0.0217173
0.0217277
0.0217404
0.0217556
0.0217733
0.0217935
0.0218165
0.0218422
0.0218706
0.0219019
0.0219361
0.0219732
0.0220132
0.0220562
0.0221021
0.022151
0.0222028
0.0222576
0.0223153
0.0223759
0.0224395
0.022506
0.0225755
0.0226479
0.0227233
0.0228018
0.0228833
0.0229679
0.0230555
0.0231462
0.02324
0.0233368
0.0234366
0.0235394
0.023645
0.0237534
0.0238644
0.0239777
0.0240932
0.0242107
0.0243299
0.0244507
0.0245731
0.0246967
0.0248212
0.0249469
0.0250735
0.0252011
0.025329
0.0254573
0.0255854
0.0257129
0.0258392
0.0259639
0.0260867
0.0262068
0.0263231
0.026435
0.0265416
0.0266418
0.0267344
0.0268181
0.0268914
0.0269522
0.026999
0.0270312
0.027048
0.0270494
0.0270339
0.0269989
0.0269429
0.0268648
0.0267639
0.0266409
0.0264968
0.0263329
0.0261516
0.0259554
0.0257483
0.0255348
0.0253191
0.0251063
0.0249005
0.0247062
0.0245264
0.0243625
0.0242145
0.0240801
0.0239553
0.0238342
0.0237087
0.0235711
0.0234107
0.0232203
0.0229896
0.0227153
0.0223902
0.022018
0.0215937
0.0211149
0.0205963
0.0200464
0.0194746
0.0188939
0.0183085
0.0177253
0.0171563
0.016617
0.0161321
0.0157155
0.0154748
0.0154506
0.0155326
0.0158889
0.0219004
0.0218973
0.0218965
0.0218978
0.0219012
0.0219068
0.0219148
0.0219252
0.021938
0.0219533
0.0219712
0.0219918
0.022015
0.022041
0.0220698
0.0221016
0.0221362
0.0221738
0.0222143
0.022258
0.0223047
0.0223545
0.0224073
0.0224633
0.0225223
0.0225845
0.0226497
0.0227179
0.0227892
0.0228637
0.0229412
0.0230218
0.0231056
0.0231926
0.0232826
0.0233759
0.0234723
0.0235719
0.0236746
0.0237804
0.0238892
0.0240009
0.0241152
0.0242321
0.0243513
0.0244728
0.0245961
0.0247213
0.0248482
0.0249767
0.0251066
0.0252381
0.0253712
0.0255058
0.0256417
0.0257786
0.0259163
0.0260545
0.0261925
0.0263301
0.0264671
0.0266027
0.0267361
0.0268665
0.0269933
0.0271155
0.0272319
0.0273415
0.0274428
0.0275339
0.0276134
0.0276806
0.0277347
0.0277753
0.0278009
0.0278085
0.0277963
0.0277627
0.0277067
0.0276284
0.0275281
0.0274062
0.0272643
0.0271041
0.0269286
0.0267414
0.0265458
0.0263463
0.0261465
0.0259505
0.0257614
0.0255809
0.0254097
0.0252466
0.0250885
0.0249312
0.0247679
0.0245925
0.0243952
0.0241706
0.0239085
0.0236066
0.0232571
0.0228646
0.022422
0.0219274
0.0213939
0.0208295
0.020243
0.019647
0.019045
0.0184437
0.0178541
0.0172911
0.0167767
0.0163242
0.0160334
0.0159508
0.0159582
0.016238
0.0221113
0.0221105
0.022112
0.0221152
0.0221204
0.0221274
0.0221365
0.0221478
0.0221612
0.022177
0.0221953
0.0222161
0.0222396
0.0222658
0.0222948
0.0223268
0.0223616
0.0223996
0.0224405
0.0224846
0.0225318
0.0225822
0.0226356
0.0226924
0.0227522
0.0228154
0.0228817
0.0229512
0.0230239
0.0230999
0.0231792
0.0232618
0.0233477
0.0234369
0.0235294
0.0236252
0.0237242
0.0238266
0.0239322
0.024041
0.0241529
0.0242679
0.0243856
0.0245062
0.0246293
0.0247548
0.0248824
0.0250121
0.0251439
0.0252775
0.0254129
0.0255504
0.0256902
0.0258321
0.025976
0.0261218
0.0262693
0.0264181
0.0265678
0.0267183
0.0268694
0.0270204
0.0271705
0.0273192
0.0274658
0.0276096
0.0277493
0.0278843
0.0280131
0.028134
0.0282456
0.0283472
0.0284381
0.0285177
0.0285842
0.0286346
0.0286667
0.0286787
0.0286693
0.028638
0.0285846
0.0285089
0.0284116
0.0282937
0.0281571
0.0280047
0.027839
0.0276635
0.0274814
0.027296
0.0271104
0.0269263
0.0267445
0.0265645
0.0263839
0.0261998
0.0260061
0.0257983
0.0255675
0.0253095
0.0250144
0.0246812
0.0243013
0.0238807
0.0234101
0.022889
0.0223286
0.0217363
0.0211207
0.020494
0.019859
0.0192223
0.0185939
0.0179886
0.0174262
0.0169202
0.0165652
0.0164131
0.0163434
0.0165448
0.0223558
0.0223553
0.0223569
0.0223603
0.0223657
0.0223731
0.0223827
0.0223945
0.0224086
0.022425
0.0224439
0.0224653
0.0224893
0.022516
0.0225454
0.0225777
0.0226129
0.0226511
0.0226924
0.0227368
0.0227843
0.0228351
0.0228891
0.0229464
0.023007
0.023071
0.0231382
0.0232088
0.0232826
0.02336
0.0234407
0.0235248
0.0236123
0.0237034
0.0237978
0.0238958
0.0239971
0.0241019
0.02421
0.0243217
0.0244366
0.0245547
0.0246758
0.0248
0.0249269
0.0250564
0.0251884
0.0253227
0.0254593
0.0255982
0.0257392
0.0258828
0.0260292
0.0261784
0.0263302
0.0264847
0.0266416
0.0268007
0.0269616
0.0271244
0.0272888
0.0274543
0.0276201
0.0277859
0.0279511
0.0281148
0.0282763
0.0284349
0.0285892
0.0287376
0.028879
0.0290126
0.0291376
0.0292534
0.029358
0.0294485
0.0295223
0.0295776
0.0296127
0.0296269
0.0296193
0.0295893
0.0295371
0.0294626
0.0293673
0.029253
0.0291215
0.0289756
0.0288175
0.0286501
0.0284761
0.0282968
0.0281132
0.0279249
0.0277301
0.0275265
0.0273089
0.0270737
0.0268128
0.0265231
0.0261951
0.0258286
0.0254149
0.024961
0.0244561
0.0239009
0.0233048
0.0226755
0.0220209
0.0213529
0.020674
0.0199907
0.0193124
0.0186539
0.0180338
0.0174665
0.0170427
0.01682
0.0166772
0.0168046
0.0226081
0.0226106
0.0226151
0.0226211
0.0226289
0.0226384
0.0226497
0.0226629
0.0226782
0.0226956
0.0227153
0.0227374
0.022762
0.0227892
0.0228191
0.0228518
0.0228874
0.022926
0.0229676
0.0230124
0.0230603
0.0231115
0.0231659
0.0232237
0.0232847
0.0233492
0.023417
0.0234884
0.0235631
0.0236415
0.0237233
0.0238088
0.0238979
0.0239906
0.0240869
0.0241868
0.0242903
0.0243974
0.0245081
0.0246223
0.0247401
0.0248612
0.0249856
0.0251132
0.0252438
0.0253774
0.0255136
0.0256524
0.0257939
0.0259379
0.0260845
0.026234
0.0263869
0.0265431
0.0267025
0.0268651
0.0270309
0.0271996
0.027371
0.027545
0.0277215
0.0279002
0.0280802
0.0282614
0.0284431
0.0286248
0.0288056
0.028985
0.029162
0.0293349
0.0295026
0.0296644
0.0298195
0.0299673
0.0301058
0.0302318
0.0303429
0.0304371
0.0305124
0.0305679
0.0306024
0.0306148
0.0306046
0.0305715
0.030516
0.0304393
0.0303424
0.0302272
0.0300955
0.0299494
0.029791
0.0296213
0.0294412
0.0292502
0.0290469
0.0288293
0.0285928
0.0283345
0.028047
0.0277279
0.0273681
0.0269683
0.0265195
0.0260298
0.0254872
0.0248938
0.0242576
0.023586
0.0228869
0.0221718
0.0214433
0.0207079
0.0199747
0.0192589
0.0185782
0.0179486
0.0174582
0.0171694
0.0169612
0.0170235
0.0228937
0.0228967
0.0229015
0.022908
0.0229163
0.0229265
0.0229386
0.0229528
0.0229691
0.0229876
0.0230083
0.0230315
0.023057
0.0230851
0.0231158
0.0231492
0.0231855
0.0232246
0.0232668
0.023312
0.0233604
0.023412
0.0234669
0.0235252
0.0235868
0.0236519
0.0237204
0.0237925
0.023868
0.0239472
0.02403
0.0241165
0.0242067
0.0243006
0.0243983
0.0244998
0.0246049
0.024714
0.0248267
0.0249433
0.0250636
0.0251875
0.0253149
0.0254457
0.0255798
0.0257171
0.0258574
0.0260006
0.0261467
0.0262957
0.0264476
0.0266028
0.0267619
0.0269246
0.027091
0.0272613
0.0274352
0.0276127
0.0277934
0.0279774
0.0281648
0.0283551
0.0285476
0.0287421
0.0289383
0.0291354
0.0293329
0.0295303
0.0297266
0.0299204
0.0301105
0.0302962
0.030477
0.030652
0.0308192
0.0309757
0.0311187
0.0312461
0.0313562
0.0314475
0.0315187
0.0315683
0.0315955
0.0315994
0.03158