/*--------------------------------*- C++ -*----------------------------------*\
  =========                 |
  \\      /  F ield         | OpenFOAM: The Open Source CFD Toolbox
   \\    /   O peration     | Website:  https://openfoam.org
    \\  /    A nd           | Version:  6.0
     \\/     M anipulation  |
\*---------------------------------------------------------------------------*/
FoamFile
{
    version     2.0;
    format      ascii;
    class       volScalarField;
    location    "19";
    object      p;
}
// * * * * * * * * * * * * * * * * * * * * * * * * * * * * * * * * * * * * * //

dimensions      [0 2 -2 0 0 0 0];

internalField   nonuniform List<scalar> 
62000
(
0.0150113
0.0149344
0.014854
0.0147698
0.0146818
0.014589
0.014491
0.0143865
0.0142753
0.0141565
0.0140298
0.0138942
0.0137498
0.013595
0.0134304
0.0132539
0.0130661
0.0128647
0.01265
0.0124195
0.0121729
0.0119081
0.0116241
0.0113191
0.0109916
0.01064
0.0102625
0.00985751
0.00942325
0.00895816
0.00846111
0.0079304
0.00736684
0.0067681
0.00613587
0.00547004
0.00477175
0.00404225
0.00328222
0.00249225
0.00167289
0.00082474
-5.21557e-05
-0.000957637
-0.00189121
-0.00285055
-0.0038284
-0.00481439
-0.00578461
-0.00671373
-0.00755563
-0.00826857
-0.00879762
-0.00909296
-0.00911247
-0.008792
-0.0081319
-0.00674881
-0.00567204
-0.0117428
0.0150175
0.0149277
0.0148347
0.0147392
0.0146421
0.0145433
0.0144425
0.0143384
0.0142299
0.0141156
0.0139949
0.0138665
0.0137303
0.0135841
0.0134283
0.0132605
0.0130812
0.0128881
0.0126814
0.0124587
0.0122195
0.0119618
0.0116845
0.0113857
0.011064
0.0107175
0.0103445
0.00994331
0.00951194
0.00904878
0.00855222
0.00802126
0.00745478
0.00685232
0.00621319
0.00553774
0.00482706
0.00408154
0.003301
0.00248516
0.00163385
0.000746554
-0.00017808
-0.00114196
-0.00214717
-0.0031945
-0.00428018
-0.00539739
-0.00652402
-0.00763537
-0.00867869
-0.00960277
-0.0103302
-0.0107852
-0.0108876
-0.0105127
-0.00961609
-0.00779493
-0.00629161
-0.0078727
0.0149935
0.0149019
0.0148066
0.0147075
0.0146059
0.0145021
0.0143965
0.0142882
0.0141761
0.0140583
0.0139344
0.0138035
0.0136658
0.0135194
0.0133641
0.0131969
0.0130178
0.0128242
0.0126164
0.0123919
0.0121506
0.0118899
0.0116091
0.0113058
0.0109789
0.0106262
0.0102461
0.0098366
0.00939588
0.00892207
0.00841353
0.00786907
0.00728787
0.00666905
0.00601283
0.0053205
0.00459374
0.00383325
0.00303952
0.0022138
0.00135785
0.000473472
-0.000438212
-0.0013766
-0.00234131
-0.003331
-0.00434054
-0.00536282
-0.00637653
-0.0073594
-0.00826026
-0.00903207
-0.00959813
-0.00989257
-0.00984207
-0.00934156
-0.00839987
-0.00679697
-0.00578294
-0.00807117
0.0150453
0.0149605
0.0148717
0.0147777
0.014679
0.0145762
0.0144705
0.014362
0.0142497
0.0141312
0.0140057
0.0138724
0.0137328
0.013586
0.0134316
0.0132663
0.013089
0.0128966
0.0126888
0.0124636
0.0122205
0.0119576
0.0116739
0.0113671
0.0110359
0.0106782
0.0102921
0.00987564
0.00942671
0.00894333
0.00842342
0.00786549
0.00726822
0.00663099
0.00595472
0.00524136
0.0044928
0.00370944
0.00289212
0.00204317
0.00116587
0.000263787
-0.000659884
-0.00160236
-0.00256094
-0.00353222
-0.00450979
-0.00548654
-0.00644282
-0.00736052
-0.00819291
-0.00890029
-0.00941194
-0.00967066
-0.00960346
-0.00910996
-0.00822813
-0.00681177
-0.00595775
-0.00791755
0.0151382
0.0150604
0.0149777
0.0148885
0.0147934
0.0146926
0.014588
0.0144813
0.0143724
0.0142583
0.0141366
0.0140059
0.0138685
0.0137249
0.013576
0.0134182
0.0132493
0.013065
0.0128642
0.0126445
0.0124057
0.012146
0.0118649
0.01156
0.0112302
0.0108732
0.0104871
0.0100697
0.00961872
0.00913193
0.00860681
0.00804145
0.00743388
0.00678355
0.00609145
0.00535991
0.00459052
0.00378307
0.00293829
0.00205898
0.00114907
0.000213036
-0.000744661
-0.00171966
-0.00270727
-0.00370195
-0.00469532
-0.00567914
-0.00663379
-0.00754326
-0.00836403
-0.00906092
-0.00956737
-0.00982639
-0.00975576
-0.00924011
-0.00831728
-0.00686688
-0.00579143
-0.00729696
0.0152507
0.0151752
0.0150947
0.015008
0.014915
0.0148152
0.0147109
0.0146055
0.0145007
0.0143936
0.0142797
0.0141561
0.0140247
0.0138877
0.0137474
0.0136013
0.0134462
0.0132765
0.0130895
0.012882
0.0126537
0.0124032
0.0121299
0.0118323
0.011509
0.011158
0.0107772
0.0103645
0.00991728
0.00943316
0.00890935
0.00834345
0.0077333
0.0070778
0.00637819
0.00563644
0.00485384
0.00402962
0.0031644
0.00226118
0.00132421
0.000358473
-0.000630602
-0.00163719
-0.00265442
-0.00367392
-0.00468408
-0.00567352
-0.00661997
-0.00750691
-0.00829161
-0.00894339
-0.00940007
-0.00961025
-0.00949145
-0.00892571
-0.00796456
-0.00652677
-0.00541934
-0.00670783
0.0153546
0.0152788
0.0151988
0.0151142
0.0150243
0.0149272
0.0148242
0.0147205
0.0146198
0.01452
0.0144157
0.0143018
0.0141792
0.0140509
0.0139215
0.0137897
0.0136527
0.0135033
0.0133371
0.0131495
0.0129393
0.0127051
0.0124468
0.0121629
0.0118527
0.0115141
0.0111452
0.0107438
0.0103074
0.00983329
0.00931858
0.00876081
0.00815726
0.00750702
0.00681066
0.00606987
0.00528541
0.00445599
0.00358202
0.0026665
0.00171353
0.000728011
-0.000284398
-0.00131721
-0.00236216
-0.00340871
-0.00444222
-0.00544786
-0.00639954
-0.00727839
-0.00804072
-0.0086588
-0.00907442
-0.00924451
-0.00909478
-0.00851581
-0.0075769
-0.00621535
-0.00512641
-0.00602258
0.0154635
0.0153867
0.0153071
0.0152253
0.0151404
0.0150486
0.0149499
0.0148492
0.0147524
0.0146589
0.014563
0.0144579
0.0143428
0.0142212
0.0140993
0.0139783
0.0138564
0.0137263
0.0135817
0.0134165
0.0132281
0.0130147
0.0127761
0.0125111
0.0122193
0.0118986
0.0115473
0.0111633
0.0107438
0.0102865
0.00978817
0.00924626
0.00865819
0.00802247
0.00733968
0.00661076
0.00583585
0.0050131
0.00414258
0.00322695
0.00226966
0.00127479
0.00024717
-0.000807415
-0.00188095
-0.00296252
-0.00403628
-0.00508519
-0.00607981
-0.00699812
-0.00779269
-0.00843537
-0.00886584
-0.00904424
-0.00889808
-0.00831816
-0.00737744
-0.00600446
-0.00475391
-0.00506522
0.0155977
0.0155223
0.0154442
0.0153655
0.0152867
0.0152029
0.0151115
0.0150166
0.0149249
0.0148378
0.0147497
0.0146526
0.014544
0.0144267
0.0143082
0.0141919
0.0140778
0.0139592
0.0138295
0.013681
0.0135099
0.0133138
0.0130921
0.012844
0.0125691
0.0122655
0.0119315
0.0115649
0.0111632
0.0107238
0.0102435
0.00972
0.00915027
0.00853319
0.00786881
0.00715769
0.00639948
0.00559185
0.00473466
0.00383027
0.00288144
0.00189122
0.00086311
-0.000198654
-0.00128759
-0.00239409
-0.00350306
-0.00459731
-0.00564552
-0.00662283
-0.00747686
-0.008175
-0.00864878
-0.00885235
-0.00870608
-0.00809236
-0.00708011
-0.00560095
-0.00410357
-0.00384465
0.0157932
0.0157217
0.015647
0.0155724
0.0155005
0.015426
0.0153443
0.0152577
0.0151731
0.0150932
0.0150134
0.0149249
0.0148235
0.0147109
0.0145945
0.0144795
0.0143673
0.0142528
0.0141293
0.0139884
0.0138257
0.0136379
0.0134246
0.013185
0.012919
0.0126249
0.0123012
0.0119456
0.0115556
0.0111285
0.0106613
0.0101515
0.00959636
0.00899457
0.00834633
0.00765195
0.00691098
0.00612101
0.00528213
0.00439694
0.00346804
0.002498
0.00148948
0.000445396
-0.000629441
-0.00172732
-0.00283502
-0.00393682
-0.00500149
-0.00600313
-0.00688524
-0.00761123
-0.00810271
-0.00830666
-0.00813426
-0.00746174
-0.00636399
-0.00480142
-0.00315327
-0.00250246
0.0160491
0.0159863
0.015918
0.0158488
0.015784
0.0157193
0.0156483
0.0155717
0.0154957
0.0154241
0.0153535
0.0152752
0.0151839
0.0150799
0.01497
0.0148597
0.0147516
0.0146414
0.0145227
0.0143868
0.0142285
0.0140441
0.0138332
0.0135954
0.0133309
0.0130388
0.0127175
0.0123651
0.011979
0.0115567
0.0110951
0.0105919
0.0100443
0.00945121
0.00881287
0.00812972
0.00740166
0.00662662
0.00580555
0.00494196
0.00403912
0.00310012
0.00212785
0.00112493
9.53463e-05
-0.000954625
-0.0020138
-0.00306897
-0.0040909
-0.0050554
-0.00590561
-0.0066045
-0.0070687
-0.00724238
-0.00703501
-0.00632713
-0.00521115
-0.00368584
-0.00204558
-0.00120343
0.0163639
0.0163134
0.0162547
0.0161925
0.016135
0.0160795
0.0160189
0.015952
0.0158845
0.0158206
0.0157581
0.0156892
0.0156083
0.0155151
0.0154156
0.0153151
0.0152167
0.0151166
0.0150082
0.0148824
0.0147331
0.014556
0.0143503
0.0141158
0.0138534
0.0135625
0.0132423
0.0128911
0.0125064
0.0120859
0.0116267
0.0111265
0.0105826
0.00999397
0.00936108
0.00868453
0.0079648
0.00720044
0.00639361
0.00554924
0.00467191
0.00376603
0.00283581
0.00188472
0.000917106
-6.11583e-05
-0.00104036
-0.00200998
-0.00294408
-0.00382287
-0.00459292
-0.00522268
-0.00563025
-0.00576581
-0.00554512
-0.00486074
-0.00382387
-0.00245242
-0.000922967
-2.55305e-05
0.0167112
0.0166766
0.0166298
0.0165754
0.0165245
0.0164767
0.016425
0.016367
0.0163069
0.0162493
0.0161929
0.0161311
0.0160588
0.0159757
0.0158876
0.0157999
0.015716
0.015632
0.0155415
0.0154346
0.0153038
0.0151442
0.014954
0.0147327
0.0144815
0.0142002
0.0138885
0.0135449
0.0131674
0.012754
0.0123016
0.0118084
0.0112714
0.0106897
0.0100639
0.00939453
0.00868264
0.00792739
0.00713206
0.00630311
0.00544654
0.00456845
0.00367491
0.00277097
0.0018623
0.000955352
5.92396e-05
-0.000817814
-0.00165359
-0.00243414
-0.00311243
-0.00366632
-0.00402108
-0.00413783
-0.00394369
-0.00334406
-0.00245828
-0.00129511
0.000108077
0.00100737
0.0170758
0.0170574
0.0170236
0.0169783
0.0169344
0.0168936
0.0168497
0.0167993
0.0167456
0.0166928
0.0166402
0.0165821
0.0165144
0.0164373
0.016357
0.0162797
0.0162089
0.0161418
0.0160716
0.0159882
0.015883
0.0157498
0.0155858
0.0153897
0.0151623
0.0149034
0.0146129
0.0142896
0.0139315
0.0135368
0.0131026
0.0126269
0.0121068
0.0115414
0.0109308
0.0102755
0.00957673
0.00883388
0.00805099
0.00723565
0.00639497
0.00553648
0.004668
0.00379633
0.00292887
0.00207336
0.00123917
0.00043308
-0.000325786
-0.00102925
-0.00163712
-0.00213847
-0.00246704
-0.00259722
-0.00246631
-0.00198691
-0.00127243
-0.000298085
0.00102826
0.00193645
0.0174333
0.0174312
0.0174108
0.017375
0.0173382
0.0173038
0.0172666
0.017223
0.0171751
0.0171265
0.0170765
0.0170203
0.0169542
0.0168792
0.0168024
0.0167307
0.0166687
0.0166143
0.0165616
0.0165002
0.0164212
0.0163175
0.016185
0.0160215
0.0158274
0.0156018
0.0153443
0.0150539
0.0147283
0.0143657
0.0139631
0.0135184
0.0130284
0.012492
0.0119088
0.0112786
0.0106026
0.00987985
0.00911454
0.0083147
0.00748792
0.0066425
0.0057874
0.0049308
0.0040817
0.00324933
0.00244395
0.00167183
0.00095024
0.000282989
-0.000295385
-0.000783578
-0.00112278
-0.00129745
-0.00125122
-0.000896526
-0.000329449
0.000517565
0.00184075
0.00279667
0.0177901
0.0178014
0.0177931
0.0177669
0.0177371
0.0177084
0.0176769
0.0176388
0.0175957
0.0175503
0.0175019
0.0174456
0.0173786
0.0173022
0.0172241
0.0171523
0.0170925
0.0170438
0.017001
0.0169547
0.016896
0.0168172
0.0167139
0.0165831
0.0164242
0.016236
0.0160175
0.0157675
0.0154831
0.0151624
0.014802
0.0143994
0.0139512
0.0134557
0.0129117
0.0123183
0.0116758
0.0109827
0.0102426
0.00946333
0.00865211
0.0078172
0.00696788
0.006113
0.00526264
0.00442744
0.00361885
0.00284349
0.00211827
0.00144469
0.000854339
0.000341501
-3.83497e-05
-0.000276442
-0.000316908
-6.56813e-05
0.00040361
0.00120016
0.00259063
0.00364128
0.0181443
0.0181662
0.0181674
0.0181488
0.0181243
0.0180998
0.0180722
0.0180382
0.0179986
0.0179557
0.0179084
0.0178518
0.017783
0.0177037
0.0176223
0.017547
0.0174847
0.0174355
0.0173954
0.0173559
0.0173085
0.0172461
0.017164
0.017059
0.0169301
0.0167757
0.0165945
0.0163847
0.0161431
0.0158674
0.0155534
0.0151986
0.0147987
0.0143513
0.0138546
0.0133065
0.0127062
0.0120512
0.0113441
0.0105917
0.00980022
0.0089772
0.00813137
0.00727143
0.0064079
0.00555235
0.00471745
0.00391075
0.00315007
0.0024367
0.001802
0.00123679
0.000796814
0.000489398
0.000374068
0.000554697
0.000979946
0.00179166
0.00330062
0.00448834
0.0185044
0.0185322
0.0185398
0.0185272
0.0185074
0.0184862
0.0184616
0.0184305
0.0183936
0.0183526
0.0183058
0.0182485
0.0181774
0.0180946
0.0180083
0.0179275
0.0178594
0.0178051
0.0177614
0.0177209
0.0176759
0.0176199
0.0175486
0.017459
0.0173502
0.0172205
0.0170685
0.0168922
0.0166879
0.016453
0.0161829
0.0158744
0.0155228
0.0151248
0.0146777
0.0141782
0.0136244
0.0130125
0.0123437
0.0116234
0.0108566
0.0100492
0.0092088
0.00834334
0.00746306
0.00657998
0.00570778
0.00485517
0.00404182
0.0032705
0.00257478
0.00194473
0.00144048
0.00107042
0.000900959
0.00104668
0.00147509
0.00235115
0.00400981
0.00536649
0.0188631
0.0188938
0.0189053
0.0188971
0.0188805
0.0188617
0.0188391
0.0188102
0.0187752
0.0187357
0.0186896
0.0186318
0.0185591
0.0184734
0.018383
0.018297
0.0182229
0.018162
0.018112
0.018066
0.0180173
0.01796
0.0178903
0.0178059
0.0177063
0.0175902
0.0174562
0.0173026
0.0171256
0.0169223
0.0166878
0.0164185
0.016109
0.0157555
0.0153546
0.0149016
0.0143936
0.0138254
0.0131966
0.0125113
0.0117727
0.010985
0.0101543
0.00928711
0.00839285
0.00748348
0.00657331
0.00567218
0.00480207
0.0039682
0.0032079
0.00251276
0.00194903
0.0015293
0.00132766
0.00146835
0.0019331
0.00290124
0.00472272
0.00626948
0.0192378
0.0192677
0.0192804
0.0192749
0.0192605
0.0192428
0.0192211
0.019193
0.0191587
0.0191193
0.0190727
0.0190135
0.0189386
0.0188497
0.0187552
0.0186642
0.018584
0.0185163
0.0184589
0.0184054
0.0183494
0.0182858
0.0182114
0.0181243
0.0180249
0.0179121
0.0177853
0.0176429
0.0174815
0.0172983
0.0170882
0.0168474
0.0165702
0.0162524
0.0158897
0.0154765
0.0150091
0.0144807
0.01389
0.0132393
0.0125302
0.0117651
0.0109485
0.010085
0.00918314
0.00825423
0.00731286
0.00636976
0.00544927
0.00455944
0.00374221
0.00299161
0.00238193
0.00192972
0.00171698
0.00187599
0.0023985
0.00347296
0.00545972
0.00720864
0.0196295
0.0196567
0.0196682
0.0196625
0.0196476
0.019629
0.0196061
0.0195769
0.0195416
0.0195011
0.0194528
0.0193916
0.0193139
0.0192219
0.0191237
0.0190285
0.0189435
0.0188702
0.0188064
0.0187458
0.0186821
0.0186105
0.0185283
0.0184342
0.0183289
0.0182122
0.018084
0.0179432
0.0177868
0.0176125
0.0174153
0.0171916
0.0169355
0.0166422
0.0163076
0.0159249
0.0154899
0.0149947
0.0144369
0.0138176
0.0131368
0.0123953
0.0115957
0.0107413
0.00983895
0.00889928
0.0079367
0.0069625
0.00600317
0.00506938
0.0042078
0.0034153
0.00277385
0.00230487
0.00209721
0.00228919
0.00287942
0.0040622
0.0062097
0.00816627
0.0200447
0.0200661
0.020074
0.0200668
0.0200504
0.0200297
0.0200046
0.0199733
0.0199358
0.0198929
0.0198418
0.0197771
0.0196956
0.0195995
0.019497
0.0193972
0.0193075
0.0192291
0.0191595
0.0190924
0.0190214
0.0189419
0.0188511
0.0187483
0.0186343
0.0185097
0.0183746
0.0182288
0.0180698
0.0178956
0.0177017
0.0174847
0.0172389
0.0169599
0.0166426
0.0162804
0.0158683
0.0153979
0.014866
0.0142728
0.0136168
0.0128975
0.0121162
0.0112745
0.0103779
0.00943601
0.00846289
0.00746993
0.00648552
0.00552234
0.00463164
0.00381263
0.00315552
0.00268466
0.00249499
0.00272945
0.00339164
0.00468089
0.00698288
0.00914859
0.0204689
0.020484
0.0204874
0.0204773
0.0204583
0.0204347
0.0204065
0.0203722
0.0203318
0.0202859
0.0202314
0.0201631
0.0200776
0.0199772
0.0198706
0.0197669
0.0196732
0.0195907
0.0195168
0.0194447
0.019368
0.0192819
0.0191836
0.0190724
0.0189496
0.0188158
0.0186717
0.0185174
0.0183512
0.0181713
0.0179739
0.0177561
0.0175123
0.0172381
0.0169291
0.016578
0.0161798
0.0157259
0.0152123
0.0146388
0.0140029
0.013303
0.0125393
0.011712
0.0108254
0.00988786
0.00891292
0.00791206
0.00691471
0.00593531
0.00502867
0.00419656
0.0035355
0.00307312
0.00290921
0.00319003
0.00392317
0.00531315
0.00776264
0.0101363
0.0209142
0.0209214
0.0209193
0.0209058
0.0208835
0.0208563
0.0208241
0.0207859
0.0207414
0.0206911
0.0206319
0.0205585
0.0204676
0.0203619
0.0202501
0.0201416
0.0200436
0.0199571
0.0198792
0.0198029
0.0197216
0.0196302
0.0195259
0.0194079
0.0192773
0.0191351
0.0189821
0.0188187
0.0186434
0.0184552
0.0182507
0.0180271
0.0177795
0.0175042
0.0171961
0.0168487
0.0164568
0.0160116
0.0155092
0.0149488
0.0143277
0.0136432
0.0128948
0.0120817
0.0112071
0.0102783
0.00930814
0.00830776
0.00730779
0.00632311
0.00541212
0.00457811
0.00392442
0.00347925
0.00334685
0.00367625
0.00447889
0.00596523
0.0085568
0.0111363
0.0213753
0.0213749
0.0213663
0.0213475
0.02132
0.0212874
0.0212497
0.021206
0.021156
0.0211002
0.0210354
0.0209559
0.020859
0.0207474
0.0206301
0.0205168
0.0204146
0.0203247
0.0202436
0.0201642
0.0200796
0.0199845
0.0198759
0.0197528
0.0196165
0.0194676
0.0193071
0.0191356
0.0189519
0.0187551
0.0185421
0.0183108
0.0180567
0.0177759
0.0174644
0.0171154
0.016724
0.0162817
0.0157845
0.0152317
0.01462
0.0139467
0.0132107
0.0124103
0.0115478
0.0106295
0.0096677
0.00867332
0.00767705
0.00669473
0.00578654
0.0049584
0.00431779
0.00389405
0.00379531
0.00417275
0.00504165
0.0066195
0.00934851
0.0121306
0.0218544
0.0218447
0.0218287
0.0218042
0.0217713
0.0217329
0.0216893
0.0216396
0.0215836
0.0215215
0.0214499
0.0213635
0.0212593
0.0211406
0.0210166
0.0208974
0.0207901
0.0206959
0.0206112
0.0205286
0.0204411
0.020343
0.0202312
0.0201047
0.0199643
0.0198108
0.019645
0.0194674
0.0192768
0.0190726
0.0188519
0.0186129
0.0183512
0.0180639
0.0177465
0.0173928
0.0169983
0.0165546
0.016058
0.015508
0.0149013
0.0142351
0.0135078
0.0127178
0.0118658
0.0109585
0.0100061
0.00902113
0.00803212
0.00705774
0.00615659
0.00534048
0.00471836
0.00431975
0.00425655
0.00468205
0.00561565
0.00728258
0.010146
0.0131277
0.0223307
0.0223124
0.0222892
0.0222587
0.02222
0.0221757
0.0221259
0.0220701
0.0220079
0.0219396
0.0218615
0.0217682
0.021657
0.0215314
0.0214011
0.0212763
0.0211643
0.0210662
0.0209782
0.020893
0.0208031
0.0207029
0.0205891
0.0204604
0.0203176
0.0201613
0.0199923
0.0198108
0.0196157
0.0194061
0.0191795
0.018934
0.0186659
0.0183716
0.0180479
0.0176884
0.0172888
0.0168412
0.0163422
0.0157917
0.0151866
0.0145239
0.0138023
0.0130197
0.0121763
0.0112783
0.0103352
0.00935987
0.00837959
0.00741473
0.0065225
0.00572086
0.00511823
0.00474508
0.00471701
0.00518917
0.00618516
0.00793898
0.0109342
0.0141118
0.0228161
0.0227884
0.0227577
0.0227213
0.0226769
0.0226264
0.0225703
0.0225078
0.0224389
0.0223635
0.0222781
0.0221771
0.0220581
0.0219248
0.0217874
0.0216563
0.021539
0.0214365
0.021345
0.0212569
0.0211647
0.0210626
0.0209473
0.0208173
0.0206734
0.0205159
0.0203454
0.0201621
0.0199645
0.0197519
0.0195215
0.0192716
0.0189982
0.0186989
0.0183693
0.018004
0.0175988
0.017146
0.016643
0.0160896
0.0154834
0.0148213
0.0141024
0.0133242
0.012487
0.0115963
0.010661
0.00969467
0.00872275
0.00776832
0.00688497
0.00609985
0.00551868
0.0051721
0.00517968
0.00569856
0.00675661
0.00859689
0.0117223
0.0150925
0.0233024
0.0232663
0.0232276
0.0231839
0.0231322
0.0230743
0.0230106
0.0229406
0.0228641
0.0227812
0.022688
0.0225792
0.0224522
0.0223115
0.0221673
0.0220304
0.0219083
0.0218021
0.0217076
0.0216173
0.0215234
0.0214201
0.0213039
0.0211734
0.0210292
0.0208717
0.0207012
0.0205176
0.0203196
0.020106
0.0198739
0.0196216
0.0193454
0.019042
0.0187082
0.018338
0.0179274
0.0174694
0.0169615
0.0164043
0.0157952
0.0151319
0.0144133
0.0136372
0.0128035
0.0119177
0.0109879
0.0100287
0.00906351
0.00811813
0.00724254
0.00647326
0.0059121
0.00559082
0.00563295
0.00619748
0.00731654
0.00924277
0.0124969
0.0160562
0.023794
0.0237479
0.0237006
0.0236494
0.0235906
0.0235253
0.023454
0.0233764
0.0232923
0.0232015
0.0231002
0.022983
0.0228477
0.0226989
0.0225472
0.0224039
0.0222764
0.022166
0.0220683
0.0219754
0.0218797
0.0217751
0.0216581
0.0215275
0.0213836
0.0212267
0.0210572
0.0208748
0.0206777
0.0204647
0.0202328
0.01998
0.0197024
0.0193973
0.0190605
0.0186866
0.0182715
0.0178087
0.0172959
0.0167341
0.0161213
0.0154551
0.0147349
0.0139586
0.0131259
0.0122426
0.011316
0.0103619
0.00940143
0.00846406
0.00759441
0.0068415
0.00630053
0.00600465
0.00608167
0.00669241
0.00787299
0.00988547
0.0132668
0.0170131
0.0242679
0.0242128
0.0241573
0.0240988
0.0240326
0.0239601
0.0238814
0.0237965
0.0237051
0.0236072
0.0234985
0.0233739
0.0232311
0.0230753
0.0229173
0.0227686
0.0226369
0.0225233
0.0224231
0.0223285
0.0222315
0.0221262
0.0220089
0.0218786
0.0217354
0.0215798
0.021412
0.0212315
0.0210364
0.0208253
0.0205949
0.0203431
0.0200661
0.0197601
0.019422
0.0190455
0.0186271
0.0181602
0.0176431
0.0170768
0.0164599
0.01579
0.0150671
0.0142887
0.0134552
0.0125718
0.0116462
0.0106945
0.00973655
0.00880464
0.00793935
0.00720082
0.00667787
0.00640567
0.0065165
0.00717273
0.00841448
0.0105134
0.0140205
0.0179508
0.0247399
0.0246751
0.0246113
0.0245457
0.0244726
0.0243928
0.0243067
0.0242143
0.0241153
0.0240097
0.0238933
0.0237609
0.0236104
0.0234473
0.0232829
0.0231288
0.0229929
0.022876
0.0227735
0.0226773
0.0225793
0.0224734
0.0223561
0.0222263
0.0220842
0.0219303
0.0217646
0.0215866
0.0213943
0.0211859
0.020958
0.0207083
0.0204324
0.0201276
0.0197889
0.0194111
0.0189901
0.01852
0.017999
0.0174286
0.0168072
0.0161332
0.0154061
0.0146244
0.0137879
0.0129028
0.0119755
0.0110246
0.0100665
0.00913935
0.00827617
0.00755245
0.00704704
0.00679852
0.00694365
0.00764617
0.00894987
0.0111354
0.0147666
0.0188787
0.0252032
0.0251298
0.0250574
0.0249834
0.0249019
0.0248137
0.0247191
0.0246184
0.0245114
0.0243979
0.0242737
0.0241337
0.0239759
0.0238063
0.0236363
0.023478
0.023339
0.0232203
0.0231166
0.0230199
0.0229217
0.0228161
0.0226994
0.0225706
0.02243
0.0222781
0.0221149
0.0219398
0.0217507
0.0215455
0.0213207
0.0210737
0.0208003
0.0204965
0.0201586
0.0197802
0.0193576
0.018885
0.0183609
0.0177867
0.0171611
0.0164827
0.0157509
0.0149647
0.014124
0.0132351
0.0123044
0.0113518
0.0103918
0.00946684
0.00860463
0.00789315
0.00740316
0.00717676
0.00735519
0.00810337
0.00946884
0.0117413
0.0154948
0.0197853
0.0256648
0.0255812
0.0254996
0.0254174
0.0253278
0.0252314
0.0251287
0.0250199
0.0249048
0.0247835
0.0246514
0.0245036
0.0243384
0.024162
0.0239863
0.0238235
0.0236813
0.0235606
0.0234558
0.0233587
0.0232605
0.0231554
0.0230395
0.0229121
0.0227732
0.0226237
0.0224632
0.0222914
0.0221057
0.0219041
0.0216828
0.021439
0.0211679
0.0208664
0.0205293
0.0201509
0.0197274
0.019253
0.0187262
0.0181484
0.0175185
0.0168351
0.0160981
0.0153063
0.01446
0.0135657
0.01263
0.0116737
0.0107103
0.00978642
0.00892432
0.00822483
0.00774979
0.00754559
0.00775781
0.00855224
0.00997993
0.012339
0.0162124
0.0206788
0.0260965
0.0260036
0.0259135
0.0258233
0.0257259
0.025622
0.0255119
0.025396
0.0252742
0.0251465
0.0250083
0.0248546
0.0246838
0.0245026
0.024323
0.0241577
0.0240141
0.023893
0.0237885
0.0236922
0.0235951
0.0234913
0.0233769
0.0232513
0.0231147
0.0229678
0.0228105
0.022642
0.02246
0.0222621
0.0220445
0.021804
0.021536
0.0212364
0.0209008
0.0205229
0.0200988
0.0196229
0.0190937
0.0185125
0.0178785
0.0171901
0.0164474
0.0156491
0.0147962
0.0138953
0.012953
0.0119913
0.0110229
0.0100982
0.00923544
0.00854538
0.00808345
0.00789997
0.00814477
0.00898455
0.010474
0.0129197
0.0169107
0.0215493
0.0265204
0.0264167
0.0263174
0.0262194
0.0261149
0.026004
0.0258873
0.0257653
0.0256376
0.0255044
0.0253608
0.0252017
0.0250258
0.02484
0.0246569
0.024489
0.0243441
0.0242227
0.0241188
0.0240234
0.0239278
0.0238256
0.0237132
0.0235899
0.0234559
0.023312
0.023158
0.0229932
0.022815
0.022621
0.0224071
0.0221701
0.0219049
0.021608
0.0212738
0.0208965
0.020472
0.0199945
0.0194628
0.0188781
0.0182395
0.0175456
0.0167965
0.0159911
0.0151305
0.0142215
0.0132714
0.0123027
0.0113283
0.0104018
0.00953811
0.00885722
0.00840799
0.00824522
0.00852275
0.009408
0.0109591
0.0134905
0.0175959
0.0224038
0.0269521
0.0268411
0.0267332
0.0266254
0.0265104
0.0263891
0.0262623
0.0261311
0.0259953
0.0258548
0.0257047
0.0255398
0.0253588
0.0251689
0.0249828
0.0248134
0.0246682
0.0245478
0.0244456
0.0243525
0.0242593
0.0241598
0.0240501
0.0239296
0.0237987
0.0236581
0.0235077
0.0233467
0.0231724
0.0229823
0.0227722
0.0225387
0.022277
0.0219822
0.0216498
0.0212729
0.0208477
0.0203685
0.019834
0.0192456
0.0186023
0.0179027
0.0171467
0.0163335
0.0154643
0.0145463
0.013587
0.01261
0.0116283
0.0106984
0.00983293
0.00915889
0.00872065
0.00857699
0.00888565
0.00981503
0.0114269
0.0140436
0.0182604
0.0232331
0.027395
0.0272722
0.0271544
0.0270384
0.0269152
0.0267853
0.0266496
0.0265095
0.0263651
0.0262166
0.0260592
0.0258876
0.0257007
0.0255058
0.025316
0.0251442
0.0249982
0.0248781
0.0247771
0.024686
0.0245951
0.0244981
0.0243912
0.0242737
0.0241459
0.0240087
0.0238619
0.0237047
0.0235344
0.0233482
0.023142
0.0229122
0.0226533
0.0223612
0.0220299
0.0216532
0.021227
0.0207456
0.0202079
0.0196152
0.0189666
0.0182605
0.017497
0.0166751
0.0157964
0.0148681
0.0138985
0.0129119
0.0119218
0.0109877
0.0101201
0.00945249
0.00902475
0.00889994
0.00923938
0.0102124
0.0118842
0.0145846
0.0189088
0.0240429
0.0278287
0.0276997
0.0275742
0.0274492
0.0273168
0.0271774
0.0270323
0.0268831
0.0267302
0.026574
0.0264097
0.0262321
0.0260404
0.025842
0.0256501
0.0254777
0.0253323
0.0252138
0.025115
0.0250265
0.0249384
0.0248443
0.0247402
0.0246257
0.024501
0.024367
0.0242236
0.02407
0.0239033
0.0237209
0.0235184
0.0232919
0.0230361
0.0227456
0.0224156
0.0220387
0.021611
0.021127
0.0205856
0.0199883
0.0193339
0.018621
0.0178494
0.0170182
0.016129
0.0151896
0.0142085
0.0132109
0.0122113
0.0112714
0.0104005
0.00973704
0.00931808
0.00921029
0.00957852
0.0105934
0.0123238
0.0151072
0.0195351
0.0248254
0.0282947
0.0281559
0.0280224
0.0278909
0.0277518
0.0276051
0.027452
0.0272943
0.0271327
0.0269677
0.0267947
0.0266091
0.0264102
0.0262059
0.0260097
0.0258345
0.0256877
0.025569
0.0254709
0.0253834
0.0252969
0.0252045
0.0251024
0.02499
0.0248676
0.0247362
0.0245956
0.024445
0.0242814
0.0241023
0.0239028
0.0236793
0.0234257
0.0231374
0.0228078
0.0224303
0.0220007
0.0215136
0.020968
0.0203653
0.0197045
0.0189839
0.0182035
0.017362
0.0164613
0.0155096
0.0145158
0.0135061
0.0124956
0.0115489
0.010674
0.010014
0.00960319
0.00951183
0.00990806
0.0109637
0.0127514
0.0156157
0.0201425
0.0255854
0.0287758
0.0286333
0.0284946
0.0283569
0.0282108
0.0280567
0.0278959
0.0277302
0.0275605
0.0273873
0.0272063
0.0270128
0.0268067
0.0265962
0.0263952
0.0262166
0.0260677
0.0259479
0.0258494
0.0257619
0.0256756
0.0255837
0.0254822
0.0253707
0.0252495
0.0251195
0.0249806
0.024832
0.0246706
0.0244938
0.0242968
0.0240755
0.0238242
0.0235367
0.0232075
0.022829
0.0223971
0.0219065
0.0213562
0.0207478
0.0200801
0.0193514
0.0185613
0.0177088
0.0167959
0.0158307
0.014823
0.0137998
0.012777
0.0118218
0.0109413
0.0102825
0.00987796
0.00980092
0.0102229
0.0113173
0.0131607
0.0161047
0.0207261
0.0263167
0.0292938
0.0291459
0.0290036
0.0288634
0.0287144
0.0285563
0.0283901
0.0282177
0.0280403
0.0278584
0.0276682
0.0274651
0.0272496
0.0270303
0.0268219
0.0266372
0.0264836
0.0263602
0.0262588
0.0261689
0.0260807
0.025987
0.0258842
0.0257718
0.02565
0.0255199
0.0253812
0.0252332
0.0250729
0.0248974
0.0247019
0.0244822
0.0242318
0.0239453
0.0236157
0.0232357
0.022801
0.0223064
0.0217509
0.0211361
0.0204607
0.0197229
0.0189223
0.0180578
0.0171313
0.0161515
0.0151285
0.0140904
0.0130539
0.0120888
0.0112014
0.0105429
0.0101436
0.01008
0.0105266
0.0116581
0.0135554
0.0165768
0.0212882
0.0270237
0.029815
0.0296652
0.0295215
0.0293806
0.0292315
0.0290728
0.0289053
0.0287304
0.0285491
0.0283619
0.0281649
0.0279538
0.0277297
0.0275019
0.0272855
0.0270938
0.0269344
0.026806
0.0267003
0.0266065
0.0265144
0.0264173
0.0263113
0.0261959
0.0260718
0.0259397
0.0257997
0.0256508
0.0254901
0.0253147
0.0251195
0.0249002
0.0246504
0.0243633
0.0240329
0.0236509
0.0232131
0.022714
0.0221529
0.0215313
0.0208478
0.0201003
0.0192884
0.0184109
0.0174698
0.0164742
0.0154347
0.01438
0.0133282
0.0123512
0.0114551
0.0107943
0.0103982
0.0103457
0.0108146
0.0119811
0.0139307
0.0170282
0.0218264
0.0277021
0.0303878
0.0302362
0.0300912
0.0299496
0.0297998
0.0296402
0.0294711
0.0292936
0.0291086
0.028916
0.0287121
0.0284923
0.0282584
0.0280204
0.0277941
0.0275933
0.0274258
0.0272901
0.0271778
0.0270777
0.0269797
0.0268769
0.0267656
0.0266454
0.0265169
0.0263811
0.0262379
0.0260866
0.0259238
0.025747
0.0255507
0.0253308
0.0250798
0.0247922
0.02446
0.0240753
0.0236338
0.0231298
0.0225624
0.0219333
0.0212407
0.0204825
0.0196582
0.0187665
0.0178096
0.0167968
0.015739
0.0146663
0.0135973
0.0126067
0.0117001
0.0110358
0.0106418
0.0105992
0.011089
0.0122889
0.0142888
0.01746
0.0223431
0.0283554
0.0309709
0.0308186
0.0306742
0.0305341
0.0303861
0.0302282
0.0300603
0.0298834
0.0296975
0.0295025
0.0292939
0.0290673
0.0288247
0.0285768
0.0283404
0.0281298
0.0279532
0.0278092
0.0276891
0.0275815
0.0274762
0.0273662
0.027248
0.0271212
0.0269866
0.0268453
0.0266972
0.0265416
0.0263753
0.0261954
0.0259967
0.0257746
0.0255221
0.0252319
0.0248974
0.0245093
0.0240633
0.0235538
0.0229797
0.0223426
0.0216403
0.0208707
0.0200331
0.0191262
0.0181522
0.0171208
0.0160434
0.0149509
0.0138628
0.0128563
0.0119371
0.0112667
0.0108725
0.0108376
0.011346
0.0125771
0.0146257
0.0178695
0.0228358
0.0289801
0.0315734
0.03142
0.0312759
0.0311379
0.0309925
0.0308374
0.0306722
0.0304972
0.0303124
0.0301167
0.0299055
0.029674
0.0294245
0.0291679
0.0289221
0.0287018
0.0285158
0.0283626
0.0282337
0.0281174
0.0280036
0.027885
0.0277584
0.0276235
0.0274813
0.0273329
0.0271783
0.0270168
0.0268453
0.0266609
0.0264582
0.0262327
0.0259766
0.0256837
0.0253453
0.0249528
0.0245017
0.0239859
0.0234043
0.0227582
0.0220453
0.0212631
0.020411
0.0194875
0.0184949
0.0174434
0.0163446
0.0152306
0.0141212
0.0130967
0.0121629
0.011485
0.0110891
0.0110606
0.0115862
0.0128468
0.0149422
0.0182565
0.0233042
0.029578
0.0322
0.0320453
0.0319007
0.031763
0.0316186
0.0314648
0.0313009
0.0311271
0.0309428
0.0307468
0.0305338
0.0302985
0.0300434
0.0297799
0.0295263
0.0292978
0.0291036
0.0289423
0.0288053
0.0286807
0.0285582
0.0284308
0.0282952
0.0281514
0.0280004
0.0278436
0.0276811
0.0275124
0.0273342
0.0271438
0.0269357
0.0267051
0.0264447
0.0261466
0.0258036
0.0254058
0.0249486
0.0244258
0.023836
0.0231802
0.022456
0.0216603
0.0207926
0.0198514
0.0188391
0.017766
0.0166443
0.0155066
0.0143739
0.0133288
0.0123782
0.0116902
0.0112903
0.011266
0.0118065
0.0130947
0.0152356
0.0186195
0.023747
0.030147
0.0328618
0.0327047
0.0325584
0.0324198
0.0322749
0.0321209
0.0319569
0.0317827
0.0315979
0.0314005
0.031185
0.0309458
0.0306852
0.0304149
0.0301538
0.0299175
0.0297155
0.0295463
0.0294013
0.0292683
0.0291373
0.0290008
0.0288559
0.0287026
0.0285422
0.0283761
0.0282047
0.0280275
0.0278414
0.0276435
0.0274285
0.0271916
0.0269247
0.0266213
0.0262721
0.0258678
0.0254036
0.0248727
0.0242737
0.0236072
0.0228704
0.0220601
0.0211755