/*--------------------------------*- C++ -*----------------------------------*\
  =========                 |
  \\      /  F ield         | OpenFOAM: The Open Source CFD Toolbox
   \\    /   O peration     | Website:  https://openfoam.org
    \\  /    A nd           | Version:  6.0
     \\/     M anipulation  |
\*---------------------------------------------------------------------------*/
FoamFile
{
    version     2.0;
    format      ascii;
    class       volVectorField;
    location    "3.6";
    object      U;
}
// * * * * * * * * * * * * * * * * * * * * * * * * * * * * * * * * * * * * * //

dimensions      [0 1 -1 0 0 0 0];

internalField   nonuniform List<vector> 
13500
(
(1 2.7117e-06 -4.2665e-18)
(1 -3.1225e-06 2.8896e-18)
(1 -5.7943e-06 -1.2415e-17)
(1 -1.0341e-05 -8.5993e-18)
(1 -9.3782e-06 1.6143e-17)
(1 -9.2984e-06 3.0089e-17)
(1 -1.6957e-06 2.5717e-17)
(0.99998 1.4953e-05 -4.1504e-18)
(0.99993 3.599e-05 1.5222e-17)
(0.9998 7.516e-05 3.2389e-18)
(0.99571 0.00075768 2.8575e-17)
(1.019 0.010844 7.7075e-18)
(1 8.4544e-06 2.6432e-18)
(1 -8.3368e-06 -8.7755e-18)
(1 -1.5163e-05 5.9289e-18)
(1 -2.8241e-05 -3.3921e-19)
(1 -2.388e-05 -4.305e-19)
(1 -2.4232e-05 -3.618e-17)
(1 8.7544e-07 -4.4417e-17)
(0.99993 4.8433e-05 -2.3748e-17)
(0.99976 0.00012036 -1.5192e-17)
(0.99982 0.00018729 -1.6017e-18)
(0.98615 0.0021941 -1.3532e-17)
(1.0534 0.030659 -4.6667e-18)
(1 1.4207e-05 -3.414e-18)
(1 -1.3672e-05 1.7435e-17)
(1 -2.4704e-05 3.0839e-18)
(1 -4.6557e-05 9.9148e-18)
(1 -3.8579e-05 -3.7224e-18)
(1 -3.9983e-05 2.8982e-17)
(1 3.7351e-06 -6.2521e-18)
(0.99989 8.086e-05 5.3944e-18)
(0.99956 0.00021263 -1.843e-17)
(1.0003 0.00031536 2.4333e-17)
(0.97594 0.0032796 -7.0753e-18)
(1.0819 0.045218 1.636e-18)
(1 1.9913e-05 8.9249e-18)
(1 -1.9273e-05 -1.6904e-17)
(1 -3.47e-05 -1.4618e-17)
(1 -6.5596e-05 -6.9568e-19)
(1 -5.3965e-05 5.7463e-18)
(1 -5.6694e-05 -8.0422e-19)
(1 6.1934e-06 6.1602e-17)
(0.99986 0.00011193 9.7189e-18)
(0.99933 0.00031178 2.1793e-17)
(1.0013 0.0004635 -8.814e-18)
(0.96546 0.0040404 3.4453e-17)
(1.1032 0.055794 -7.4466e-18)
(1 2.5617e-05 -6.2711e-18)
(1 -2.4909e-05 1.4609e-17)
(1 -4.4752e-05 1.2444e-17)
(1 -8.4735e-05 1.269e-17)
(1 -6.9429e-05 2.8176e-18)
(1.0001 -7.3545e-05 2.1302e-17)
(1 8.7571e-06 -2.7509e-17)
(0.99984 0.000142 1.9741e-18)
(0.99906 0.00041678 -1.3362e-17)
(1.0026 0.0006337 -2.1031e-18)
(0.95511 0.0045266 -8.9359e-18)
(1.1172 0.063517 2.065e-18)
(0.99999 3.1322e-05 6.3464e-18)
(1 -3.0578e-05 -6.0564e-18)
(1 -5.4865e-05 3.8004e-18)
(1 -0.00010397 -2.5137e-17)
(1.0001 -8.4977e-05 -8.2543e-20)
(1.0001 -9.0551e-05 -4.2171e-17)
(1 1.1424e-05 1.0555e-18)
(0.99982 0.00017089 -1.5846e-17)
(0.99873 0.00052623 5.0884e-18)
(1.0044 0.00083259 -2.119e-17)
(0.94524 0.0047805 -2.1511e-17)
(1.1246 0.068999 1.9955e-18)
(0.99999 3.7026e-05 -1.0505e-18)
(1 -3.6281e-05 -7.2435e-18)
(1 -6.5037e-05 -3.0887e-18)
(1.0001 -0.00012331 1.8974e-17)
(1.0001 -0.0001006 -2.6097e-17)
(1.0001 -0.00010775 1.6136e-17)
(1 1.4241e-05 1.8399e-17)
(0.99982 0.00019851 5.575e-18)
(0.99833 0.00063881 1.1375e-17)
(1.0064 0.0010665 1.1407e-17)
(0.93613 0.0048399 9.267e-18)
(1.1264 0.072665 3.2023e-18)
(0.99999 4.273e-05 -2.1683e-18)
(1 -4.202e-05 -1.425e-18)
(1 -7.5273e-05 -2.6608e-17)
(1.0001 -0.00014277 -9.0601e-18)
(1.0001 -0.00011631 7.3043e-18)
(1.0001 -0.00012515 2.6445e-17)
(1 1.7225e-05 1.171e-17)
(0.99984 0.00022479 4.9771e-18)
(0.99785 0.00075317 -7.4351e-18)
(1.0088 0.0013393 1.5978e-17)
(0.92803 0.004741 7.4838e-18)
(1.1236 0.074877 -1.0182e-17)
(0.99999 4.8433e-05 -6.7313e-18)
(1 -4.7798e-05 6.1262e-18)
(1 -8.5575e-05 4.4738e-17)
(1.0001 -0.00016234 -1.0868e-17)
(1.0001 -0.0001321 2.7353e-17)
(1.0001 -0.00014279 -5.2211e-17)
(1 2.0379e-05 -3.901e-17)
(0.99987 0.00024966 9.6716e-18)
(0.9973 0.00086797 -5.5841e-18)
(1.0114 0.0016523 -8.8123e-18)
(0.92108 0.0045186 -1.3828e-17)
(1.1171 0.07594 1.3319e-17)
(0.99999 5.4134e-05 4.4348e-18)
(1 -5.3615e-05 2.3059e-18)
(1 -9.5947e-05 -3.7896e-17)
(1.0001 -0.00018204 1.5466e-17)
(1.0001 -0.00014799 -1.1928e-17)
(1.0001 -0.00016066 2.2268e-17)
(1 2.3703e-05 1.3863e-17)
(0.99992 0.0002731 2.4452e-18)
(0.99667 0.0009819 5.2737e-19)
(1.0141 0.0020052 1.3958e-18)
(0.91539 0.0042047 4.3992e-18)
(1.1078 0.076107 -6.9837e-19)
(0.99998 5.9834e-05 -2.4349e-18)
(1 -5.9472e-05 -7.5628e-18)
(1 -0.00010639 9.2894e-18)
(1.0001 -0.00020187 -2.729e-18)
(1.0001 -0.00016397 1.8413e-18)
(1.0002 -0.00017879 -2.4405e-17)
(1.0001 2.7199e-05 -3.1929e-17)
(0.99999 0.00029512 -3.1054e-17)
(0.99595 0.0010938 1.5609e-17)
(1.017 0.0023958 1.8129e-18)
(0.91101 0.0038287 -1.1159e-17)
(1.0967 0.075583 -5.738e-18)
(0.99998 6.5532e-05 3.3609e-18)
(0.99999 -6.537e-05 2.8565e-18)
(1 -0.00011691 4.4769e-18)
(1.0001 -0.00022183 -2.1749e-18)
(1.0001 -0.00018007 -5.5194e-18)
(1.0002 -0.0001972 9.2304e-18)
(1.0001 3.0865e-05 1.8482e-17)
(1.0001 0.00031573 1.9185e-17)
(0.99515 0.0012025 1.0029e-17)
(1.0199 0.0028211 -2.2896e-17)
(0.90793 0.0034169 1.17e-19)
(1.0843 0.074541 -6.6408e-18)
(0.99998 7.1227e-05 -3.3603e-18)
(0.99999 -7.131e-05 5.6175e-18)
(1 -0.00012752 8.1171e-18)
(1.0001 -0.00024193 5.6789e-18)
(1.0001 -0.00019628 -5.1193e-18)
(1.0002 -0.0002159 4.5379e-18)
(1.0001 3.4698e-05 4.2145e-18)
(1.0002 0.00033498 -1.7132e-18)
(0.99426 0.001307 -1.6209e-17)
(1.0228 0.0032769 2.1232e-17)
(0.90613 0.0029925 1.0408e-19)
(1.0713 0.073118 1.4228e-18)
(0.99997 7.6919e-05 5.1101e-18)
(0.99999 -7.7295e-05 -4.3851e-18)
(1 -0.0001382 7.1067e-19)
(1.0001 -0.00026217 -4.7375e-18)
(1.0002 -0.00021261 1.1626e-17)
(1.0002 -0.00023491 5.537e-18)
(1.0001 3.8693e-05 1.6958e-17)
(1.0003 0.00035296 -6.3632e-18)
(0.9933 0.0014064 -1.9804e-19)
(1.0257 0.0037585 5.2136e-18)
(0.90553 0.0025753 1.6938e-17)
(1.0582 0.071428 9.0755e-19)
(0.99997 8.2608e-05 1.2325e-18)
(0.99999 -8.3324e-05 9.7322e-18)
(1 -0.00014898 1.3574e-17)
(1.0001 -0.00028255 -4.7236e-18)
(1.0002 -0.00022908 8.4187e-18)
(1.0002 -0.00025424 -2.5848e-18)
(1.0001 4.2838e-05 -2.97e-17)
(1.0005 0.00036975 2.0142e-17)
(0.99226 0.0014999 -1.8277e-17)
(1.0285 0.0042605 -3.0073e-17)
(0.90605 0.002182 -3.7179e-18)
(1.0453 0.069563 8.4067e-19)
(0.99996 8.8292e-05 -3.1443e-18)
(0.99998 -8.9401e-05 -1.035e-17)
(1 -0.00015984 -3.258e-17)
(1.0001 -0.00030309 7.9581e-18)
(1.0002 -0.00024567 -1.2775e-17)
(1.0003 -0.00027392 8.2881e-18)
(1.0001 4.712e-05 -2.7788e-18)
(1.0007 0.00038547 -1.2125e-17)
(0.99115 0.0015869 4.0138e-18)
(1.0312 0.0047777 1.7958e-17)
(0.90758 0.001826 -7.804e-18)
(1.0331 0.067597 1.1667e-17)
(0.99996 9.3971e-05 3.3086e-19)
(0.99998 -9.5525e-05 7.7411e-18)
(1 -0.0001708 2.2493e-17)
(1.0001 -0.00032378 -1.7924e-18)
(1.0002 -0.00026242 -1.2692e-17)
(1.0003 -0.00029396 -1.5445e-17)
(1.0001 5.152e-05 1.0615e-17)
(1.001 0.00040024 6.9545e-18)
(0.98997 0.0016667 2.3195e-17)
(1.0337 0.0053048 -2.5141e-18)
(0.91001 0.0015181 1.9394e-18)
(1.0218 0.065589 -4.6551e-18)
(0.99995 9.9646e-05 -1.8562e-18)
(0.99998 -0.0001017 -9.3799e-18)
(1 -0.00018185 -1.015e-17)
(1.0001 -0.00034463 5.9896e-18)
(1.0002 -0.00027931 -7.1284e-18)
(1.0003 -0.00031438 -1.2389e-17)
(1.0001 5.6016e-05 1.0319e-17)
(1.0012 0.00041423 -4.7176e-18)
(0.98874 0.0017389 -2.8704e-17)
(1.036 0.0058367 -1.4088e-17)
(0.91322 0.0012656 8.4182e-18)
(1.0114 0.063584 -5.0475e-18)
(0.99995 0.00010531 -2.658e-18)
(0.99997 -0.00010792 -3.5454e-18)
(1 -0.00019301 -7.5221e-19)
(1.0001 -0.00036565 -2.6229e-17)
(1.0002 -0.00029636 5.9808e-18)
(1.0003 -0.00033519 5.3945e-18)
(1.0001 6.058e-05 -1.9608e-17)
(1.0015 0.00042759 -1.6109e-17)
(0.98745 0.0018029 4.1992e-18)
(1.0381 0.0063686 -1.0573e-18)
(0.91709 0.0010739 -9.7208e-18)
(1.0022 0.061619 9.5473e-19)
(0.99994 0.00011098 3.4573e-18)
(0.99997 -0.0001142 1.6252e-17)
(1 -0.00020427 1.937e-17)
(1.0002 -0.00038683 2.4697e-18)
(1.0002 -0.00031358 1.6534e-17)
(1.0004 -0.00035642 9.4542e-18)
(1 6.5179e-05 2.8303e-18)
(1.0019 0.0004405 1.7631e-17)
(0.98613 0.0018585 2.0858e-17)
(1.04 0.0068959 1.6822e-17)
(0.92151 0.00094561 7.2566e-18)
(0.99412 0.059719 1.1325e-18)
(0.99994 0.00011663 -1.6479e-18)
(0.99997 -0.00012053 -3.8996e-18)
(1 -0.00021564 -2.0637e-17)
(1.0002 -0.0004082 -2.3394e-18)
(1.0002 -0.00033098 -1.2531e-17)
(1.0004 -0.00037808 -5.1158e-18)
(1 6.9776e-05 -1.8162e-18)
(1.0023 0.00045316 -1.5944e-17)
(0.98478 0.0019054 -1.9942e-17)
(1.0416 0.0074147 8.6205e-18)
(0.92636 0.00088158 4.9918e-19)
(0.98724 0.057903 6.4989e-19)
(0.99993 0.00012228 4.3682e-18)
(0.99996 -0.00012691 -5.0948e-18)
(1 -0.00022713 -1.9356e-17)
(1.0002 -0.00042974 4.4467e-17)
(1.0002 -0.00034856 1.8178e-17)
(1.0004 -0.00040018 -1.2519e-17)
(0.99998 7.4327e-05 2.4419e-17)
(1.0027 0.00046577 2.1549e-17)
(0.98341 0.0019434 3.2358e-17)
(1.0429 0.0079212 -3.1593e-17)
(0.93154 0.00088092 -1.333e-17)
(0.98153 0.056186 1.7124e-19)
(0.99993 0.00012793 -3.1974e-18)
(0.99996 -0.00013336 -1.0225e-18)
(1 -0.00023873 3.3045e-17)
(1.0002 -0.00045147 -3.3615e-17)
(1.0002 -0.00036633 -1.7498e-18)
(1.0004 -0.00042275 4.1478e-17)
(0.99994 7.8782e-05 7.5675e-18)
(1.0031 0.00047854 -3.3282e-18)
(0.98202 0.0019722 -2.0067e-17)
(1.044 0.0084125 3.7229e-17)
(0.93694 0.00094131 -5.6484e-18)
(0.97694 0.054574 -2.7236e-19)
(0.99992 0.00013356 -1.6301e-18)
(0.99995 -0.00013986 -2.0374e-18)
(1 -0.00025045 1.7211e-18)
(1.0002 -0.0004734 3.4972e-17)
(1.0003 -0.0003843 -9.8663e-18)
(1.0005 -0.00044579 -3.0659e-17)
(0.9999 8.3086e-05 -1.9295e-17)
(1.0036 0.00049169 -3.584e-18)
(0.98063 0.0019917 6.3449e-18)
(1.0449 0.0088858 -3.1403e-17)
(0.94249 0.0010594 9.4598e-18)
(0.97342 0.053073 2.9509e-18)
(0.99991 0.00013919 2.6938e-18)
(0.99995 -0.00014642 1.418e-17)
(1 -0.0002623 -1.2691e-17)
(1.0002 -0.00049552 -3.6613e-18)
(1.0003 -0.00040248 -1.8936e-17)
(1.0005 -0.00046932 3.3356e-17)
(0.99984 8.7179e-05 -1.6937e-17)
(1.0042 0.00050544 1.4861e-17)
(0.97926 0.0020019 -1.9554e-18)
(1.0454 0.0093387 2.944e-17)
(0.94808 0.0012308 -9.2343e-18)
(0.97088 0.051682 -4.9239e-18)
(0.9999 0.0001448 -5.1666e-19)
(0.99994 -0.00015304 -8.1554e-18)
(1 -0.00027428 -1.7772e-17)
(1.0002 -0.00051784 -1.0034e-17)
(1.0003 -0.00042089 1.8366e-17)
(1.0005 -0.00049335 -4.2536e-17)
(0.99977 9.0993e-05 -2.6133e-18)
(1.0047 0.00052002 -2.0077e-17)
(0.9779 0.0020027 3.158e-18)
(1.0457 0.0097695 -8.4912e-18)
(0.95367 0.0014507 9.8289e-18)
(0.96924 0.050401 2.0883e-18)
(0.9999 0.00015041 2.7067e-18)
(0.99993 -0.00015973 -8.7362e-18)
(1 -0.0002864 -1.7562e-18)
(1.0002 -0.00054037 2.4385e-18)
(1.0003 -0.00043952 5.8131e-18)
(1.0006 -0.0005179 1.2291e-17)
(0.9997 9.4455e-05 4.2848e-17)
(1.0053 0.00053566 2.3996e-18)
(0.97657 0.0019941 5.1453e-18)
(1.0457 0.010177 9.3572e-18)
(0.95917 0.0017138 -8.4087e-18)
(0.9684 0.049226 1.6031e-18)
(0.99989 0.00015601 -1.552e-18)
(0.99993 -0.00016648 8.7282e-18)
(1 -0.00029865 2.5263e-17)
(1.0002 -0.00056312 -2.4568e-17)
(1.0003 -0.00045839 -9.0426e-18)
(1.0006 -0.00054297 -2.1633e-18)
(0.99961 9.7486e-05 -1.4123e-17)
(1.006 0.00055258 1.8618e-18)
(0.97529 0.001976 -8.9159e-18)
(1.0455 0.010559 -3.4397e-18)
(0.96453 0.0020145 -2.3906e-19)
(0.96828 0.048152 -1.9592e-18)
(0.99988 0.0001616 -1.6682e-18)
(0.99992 -0.0001733 5.2246e-18)
(1 -0.00031104 -6.1082e-19)
(1.0002 -0.00058608 8.1464e-18)
(1.0003 -0.0004775 -1.6685e-17)
(1.0007 -0.00056858 2.4474e-17)
(0.99951 9.9998e-05 7.0442e-18)
(1.0066 0.00057102 -1.7761e-17)
(0.97405 0.0019487 -1.143e-17)
(1.045 0.010915 -1.3615e-17)
(0.96972 0.0023473 1.332e-18)
(0.96876 0.047172 -3.5883e-18)
(0.99987 0.00016717 5.7973e-19)
(0.99991 -0.00018019 -1.2477e-17)
(1 -0.00032358 1.5645e-17)
(1.0002 -0.00060927 2.2533e-17)
(1.0003 -0.00049688 3.2704e-17)
(1.0007 -0.00059474 -1.7974e-17)
(0.9994 0.0001019 -1.7514e-17)
(1.0073 0.0005912 3.604e-18)
(0.97287 0.0019121 1.071e-17)
(1.0443 0.011246 1.0657e-17)
(0.97468 0.0027066 6.2053e-18)
(0.96977 0.046281 3.5664e-18)
(0.99986 0.00017274 1.1111e-18)
(0.99991 -0.00018715 9.9224e-18)
(1 -0.00033628 -3.5944e-17)
(1.0002 -0.00063269 -3.2645e-18)
(1.0003 -0.00051653 -2.7168e-17)
(1.0007 -0.00062145 -1.1323e-17)
(0.99928 0.0001031 2.4658e-20)
(1.008 0.00061332 -4.1234e-18)
(0.97176 0.0018665 -2.1099e-17)
(1.0434 0.011549 -1.7015e-17)
(0.97938 0.0030869 -8.4767e-18)
(0.97121 0.04547 -1.7568e-18)
(0.99985 0.00017829 -7.201e-19)
(0.9999 -0.00019418 -6.4532e-18)
(1 -0.00034913 2.8283e-17)
(1.0002 -0.00065635 -3.1155e-17)
(1.0003 -0.00053646 -2.0439e-18)
(1.0008 -0.00064872 2.4113e-17)
(0.99914 0.00010348 7.0075e-19)
(1.0088 0.00063761 3.9316e-18)
(0.97073 0.0018119 1.847e-17)
(1.0422 0.011826 2.2117e-17)
(0.9838 0.003483 4.8491e-18)
(0.973 0.044733 -9.8074e-19)
(0.99984 0.00018383 -1.8748e-18)
(0.99989 -0.00020129 -2.38e-18)
(0.99999 -0.00036215 -1.2538e-17)
(1.0002 -0.00068025 1.5521e-17)
(1.0003 -0.00055669 2.986e-17)
(1.0009 -0.00067655 -1.0657e-17)
(0.99899 0.00010293 2.1812e-17)
(1.0096 0.00066425 2.9471e-18)
(0.96978 0.0017486 -2.0918e-18)
(1.0409 0.012076 1.0005e-17)
(0.98792 0.0038898 -5.4203e-18)
(0.97505 0.044062 -6.8288e-19)
(0.99983 0.00018936 4.6886e-19)
(0.99988 -0.00020847 -6.2941e-18)
(0.99999 -0.00037533 4.694e-18)
(1.0002 -0.0007044 -1.5819e-17)
(1.0004 -0.00057722 -3.1585e-17)
(1.0009 -0.00070495 6.7167e-18)
(0.99882 0.00010134 -3.1466e-17)
(1.0104 0.00069345 -6.739e-18)
(0.96892 0.0016768 6.7859e-18)
(1.0394 0.0123 -3.1404e-17)
(0.99172 0.0043029 3.7105e-18)
(0.97731 0.04345 1.9298e-18)
(0.99982 0.00019487 8.2343e-19)
(0.99987 -0.00021573 1.7052e-17)
(0.99998 -0.00038868 7.86e-18)
(1.0002 -0.0007288 6.4434e-18)
(1.0004 -0.00059807 2.5256e-17)
(1.001 -0.00073391 2.0031e-18)
(0.99864 9.8578e-05 2.1728e-17)
(1.0112 0.00072538 4.8332e-18)
(0.96816 0.0015968 -2.0622e-17)
(1.0378 0.012498 1.0812e-17)
(0.9952 0.0047178 2.5094e-18)
(0.9797 0.042889 2.0001e-18)
(0.99981 0.00020037 -2.8754e-18)
(0.99986 -0.00022308 -5.6132e-18)
(0.99998 -0.00040221 -6.9051e-18)
(1.0002 -0.00075347 1.0583e-17)
(1.0004 -0.00061925 1.2202e-17)
(1.001 -0.00076344 -3.9882e-18)
(0.99845 9.4515e-05 -1.8251e-17)
(1.012 0.00076021 2.2008e-17)
(0.96751 0.0015089 3.8197e-18)
(1.036 0.01267 -3.2662e-18)
(0.99835 0.0051306 1.0381e-17)
(0.98217 0.042373 -1.3899e-18)
(0.9998 0.00020586 5.9086e-18)
(0.99985 -0.0002305 6.7226e-18)
(0.99997 -0.00041593 -7.3407e-18)
(1.0002 -0.0007784 -6.5929e-18)
(1.0004 -0.00064078 -1.751e-17)
(1.0011 -0.00079352 -6.8509e-18)
(0.99824 8.901e-05 8.9985e-18)
(1.0129 0.00079809 -3.5301e-17)
(0.96696 0.0014135 9.3481e-18)
(1.0341 0.012816 -3.861e-18)
(1.0012 0.0055377 -1.0993e-17)
(0.98466 0.041896 4.0356e-18)
(0.99979 0.00021133 -2.6078e-18)
(0.99984 -0.00023801 -1.1812e-17)
(0.99997 -0.00042983 -7.115e-18)
(1.0002 -0.0008036 -1.2512e-17)
(1.0004 -0.00066267 -5.3466e-18)
(1.0012 -0.00082415 2.0145e-17)
(0.99801 8.1917e-05 -8.8395e-18)
(1.0137 0.00083917 3.927e-17)
(0.96652 0.0013109 8.8137e-18)
(1.0321 0.012939 1.1716e-17)
(1.0037 0.0059359 4.6335e-18)
(0.98713 0.041451 -6.5436e-18)
(0.99977 0.00021679 -1.3833e-18)
(0.99983 -0.00024561 8.7844e-18)
(0.99996 -0.00044392 1.4098e-17)
(1.0003 -0.00082908 3.3733e-17)
(1.0004 -0.00068494 7.0869e-18)
(1.0013 -0.00085532 -1.3818e-17)
(0.99777 7.3081e-05 4.2657e-18)
(1.0146 0.00088356 -4.2249e-17)
(0.9662 0.0012017 -1.069e-17)
(1.03 0.013037 -6.5146e-18)
(1.0059 0.0063221 4.5455e-18)
(0.98955 0.041033 6.5787e-18)
(0.99976 0.00022223 1.0587e-18)
(0.99982 -0.00025329 2.0798e-18)
(0.99995 -0.00045822 -1.3845e-17)
(1.0003 -0.00085484 -5.6188e-18)
(1.0004 -0.00070761 8.9991e-18)
(1.0014 -0.00088702 1.6541e-17)
(0.99752 6.2343e-05 1.4833e-17)
(1.0154 0.00093139 4.1816e-18)
(0.966 0.0010863 1.1959e-17)
(1.0279 0.013112 -3.0187e-18)
(1.0077 0.006694 -8.1146e-18)
(0.99188 0.040638 -1.6967e-18)
(0.99975 0.00022765 -4.3355e-20)
(0.99981 -0.00026107 2.3704e-18)
(0.99994 -0.00047272 3.0943e-18)
(1.0003 -0.0008809 -7.295e-18)
(1.0004 -0.00073068 8.4098e-20)
(1.0014 -0.00091923 -1.4997e-17)
(0.99725 4.9535e-05 -1.0033e-17)
(1.0163 0.00098274 3.094e-17)
(0.96591 0.00096511 -1.8072e-17)
(1.0257 0.013164 1.1722e-17)
(1.0093 0.0070493 4.2853e-18)
(0.9941 0.040259 -4.7901e-18)
(0.99973 0.00023306 -3.2795e-18)
(0.9998 -0.00026894 -1.1116e-17)
(0.99994 -0.00048743 7.9008e-18)
(1.0003 -0.00090725 -1.9925e-17)
(1.0004 -0.00075419 -2.276e-17)
(1.0015 -0.00095193 -2.0721e-17)
(0.99697 3.4479e-05 -2.0448e-17)
(1.0171 0.0010377 -3.1684e-18)
(0.96595 0.00083879 1.5794e-17)
(1.0235 0.013195 -1.0056e-17)
(1.0106 0.0073861 4.2565e-19)
(0.99618 0.039894 4.5111e-18)
(0.99972 0.00023845 6.33e-18)
(0.99979 -0.00027691 1.1618e-17)
(0.99993 -0.00050236 -1.2742e-17)
(1.0003 -0.0009339 1.6359e-17)
(1.0004 -0.00077814 -2.6696e-18)
(1.0016 -0.0009851 1.3582e-17)
(0.99667 1.6995e-05 2.4578e-17)
(1.018 0.0010963 -2.4001e-17)
(0.96611 0.00070788 -8.0082e-18)
(1.0214 0.013206 1.0618e-17)
(1.0116 0.0077027 3.703e-18)
(0.99812 0.039538 -2.1338e-18)
(0.99971 0.00024382 -4.7499e-18)
(0.99978 -0.00028497 -3.4335e-18)
(0.99992 -0.00051751 -2.6648e-18)
(1.0003 -0.00096086 1.872e-17)
(1.0004 -0.00080256 -5.7149e-18)
(1.0017 -0.0010187 -1.7232e-19)
(0.99636 -3.1073e-06 -4.8093e-18)
(1.0188 0.0011586 1.9225e-17)
(0.96639 0.00057299 -7.6035e-18)
(1.0192 0.013196 -7.2915e-18)
(1.0124 0.0079979 -1.0947e-17)
(0.9999 0.039188 2.4795e-18)
(0.99969 0.00024917 3.229e-18)
(0.99976 -0.00029314 -4.3539e-18)
(0.99991 -0.00053289 6.0994e-18)
(1.0003 -0.00098813 -2.8404e-17)
(1.0004 -0.00082748 3.8714e-17)
(1.0019 -0.0010527 5.6282e-18)
(0.99603 -2.6026e-05 1.8975e-17)
(1.0196 0.0012247 -1.1897e-17)
(0.96678 0.00043476 1.0034e-19)
(1.017 0.013167 5.4224e-18)
(1.013 0.0082706 -2.1289e-18)
(1.0015 0.03884 -9.3295e-19)
(0.99967 0.0002545 -9.2371e-19)
(0.99975 -0.00030141 8.5116e-19)
(0.9999 -0.00054851 1.4863e-17)
(1.0003 -0.0010157 7.7435e-18)
(1.0004 -0.0008529 -1.9355e-17)
(1.002 -0.0010871 -1.1025e-17)
(0.9957 -5.1963e-05 3.3126e-18)
(1.0204 0.0012945 -5.7839e-18)
(0.96729 0.00029384 1.2722e-17)
(1.0149 0.01312 -3.5595e-18)
(1.0133 0.0085199 1.0248e-17)
(1.003 0.038493 -3.4038e-18)
(0.99966 0.00025981 -1.608e-18)
(0.99974 -0.00030978 -8.205e-18)
(0.99989 -0.00056437 -4.419e-18)
(1.0003 -0.0010436 3.11e-17)
(1.0004 -0.00087887 -1.7245e-17)
(1.0021 -0.0011218 -9.3457e-19)
(0.99535 -8.1129e-05 -4.9544e-17)
(1.0211 0.001368 5.6851e-18)
(0.96791 0.00015093 -2.3791e-17)
(1.0128 0.013055 -7.6871e-18)
(1.0135 0.0087453 -1.0247e-17)
(1.0042 0.038144 2.0211e-18)
(0.99964 0.0002651 -6.9428e-19)
(0.99972 -0.00031826 5.0833e-18)
(0.99988 -0.00058047 -1.8242e-18)
(1.0003 -0.0010719 -1.8108e-17)
(1.0004 -0.00090539 2.4782e-17)
(1.0023 -0.0011569 -2.2967e-18)
(0.99499 -0.00011374 2.6243e-17)
(1.0218 0.0014452 -3.4953e-18)
(0.96864 6.7153e-06 1.155e-17)
(1.0109 0.012974 9.6141e-18)
(1.0135 0.0089464 8.452e-18)
(1.0054 0.037791 -4.8852e-19)
(0.99963 0.00027037 3.9355e-18)
(0.99971 -0.00032685 -3.0418e-18)
(0.99987 -0.00059684 -6.3828e-18)
(1.0003 -0.0011005 1.9766e-17)
(1.0004 -0.00093251 1.8192e-18)
(1.0024 -0.0011921 2.8466e-17)
(0.99462 -0.00015002 4.5268e-18)
(1.0225 0.001526 1.6698e-17)
(0.96947 -0.00013809 4.3332e-18)
(1.009 0.012877 -3.1107e-18)
(1.0133 0.009123 1.0994e-18)
(1.0063 0.037432 4.4226e-19)
(0.99961 0.00027562 1.1224e-18)
(0.99969 -0.00033556 1.2435e-18)
(0.99986 -0.00061347 -5.7884e-18)
(1.0003 -0.0011294 -3.9364e-17)
(1.0003 -0.00096024 5.5087e-18)
(1.0025 -0.0012275 2.4704e-18)
(0.99425 -0.00019018 -1.9628e-17)
(1.0232 0.0016104 2.3496e-19)
(0.9704 -0.00028278 1.277e-17)
(1.0071 0.012766 -1.9999e-18)
(1.0131 0.0092751 -5.3527e-18)
(1.0071 0.037066 2.606e-18)
(0.99959 0.00028085 -4.8057e-18)
(0.99968 -0.00034437 5.2716e-18)
(0.99985 -0.00063036 9.5381e-19)
(1.0003 -0.0011587 2.186e-17)
(1.0003 -0.00098862 -2.5129e-17)
(1.0027 -0.0012631 -1.0905e-17)
(0.99386 -0.00023447 2.0075e-17)
(1.0238 0.0016983 -1.1311e-17)
(0.97142 -0.00042662 -2.0189e-17)
(1.0054 0.01264 -9.8822e-18)
(1.0127 0.0094028 6.8167e-18)
(1.0078 0.036692 8.6814e-19)
(0.99957 0.00028605 -5.0865e-19)
(0.99966 -0.00035331 -5.3051e-18)
(0.99983 -0.00064754 1.0163e-17)
(1.0003 -0.0011883 9.6942e-18)
(1.0003 -0.0010177 3.1038e-17)
(1.0029 -0.0012987 4.1909e-18)
(0.99347 -0.00028311 1.783e-17)
(1.0243 0.0017896 2.8677e-17)
(0.97253 -0.00056891 -8.9313e-19)
(1.0038 0.012502 1.7382e-17)
(1.0122 0.0095065 -7.2142e-19)
(1.0083 0.036308 -2.5352e-18)
(0.99955 0.00029123 4.9296e-18)
(0.99964 -0.00036237 -7.7245e-18)
(0.99982 -0.000665 -1.5428e-17)
(1.0003 -0.0012183 -2.5753e-18)
(1.0003 -0.0010474 -3.3689e-17)
(1.003 -0.0013343 -1.2468e-17)
(0.99308 -0.00033634 -6.1897e-18)
(1.0249 0.001884 2.1519e-19)
(0.97372 -0.00070895 2.6276e-17)
(1.0024 0.012353 4.0052e-18)
(1.0116 0.0095867 -9.3539e-18)
(1.0087 0.035915 1.5197e-18)
(0.99953 0.00029639 -5.5268e-18)
(0.99963 -0.00037155 9.6489e-18)
(0.99981 -0.00068275 8.0755e-18)
(1.0003 -0.0012486 -5.1336e-18)
(1.0003 -0.001078 2.7094e-17)
(1.0032 -0.0013699 1.4918e-17)
(0.99268 -0.00039438 -4.8928e-18)
(1.0253 0.0019816 -2.8901e-17)
(0.97498 -0.00084604 -8.9274e-19)
(1.001 0.012192 -1.1446e-17)
(1.011 0.0096438 1.1073e-17)
(1.009 0.035512 -1.9909e-18)
(0.99951 0.00030151 3.3212e-18)
(0.99961 -0.00038086 -1.8467e-18)
(0.9998 -0.0007008 1.0694e-17)
(1.0003 -0.0012794 -2.1603e-17)
(1.0003 -0.0011093 8.8484e-18)
(1.0034 -0.0014052 -5.3584e-18)
(0.99228 -0.00045747 -1.0541e-17)
(1.0258 0.0020819 -2.3205e-18)
(0.9763 -0.00097952 -3.1716e-17)
(0.99976 0.012021 7.5508e-18)
(1.0104 0.0096786 -1.0138e-17)
(1.0092 0.035098 6.6381e-19)
(0.99949 0.00030662 2.6267e-19)
(0.99959 -0.0003903 -5.8096e-18)
(0.99978 -0.00071917 6.0738e-18)
(1.0003 -0.0013104 2.8436e-17)
(1.0002 -0.0011414 -2.1073e-17)
(1.0036 -0.0014404 1.7244e-17)
(0.99188 -0.00052584 -6.0945e-18)
(1.0261 0.0021849 5.3721e-18)
(0.97768 -0.0011088 3.7682e-17)
(0.99866 0.011842 -1.4018e-17)
(1.0097 0.0096919 1.5495e-17)
(1.0093 0.034673 1.878e-18)
(0.99947 0.0003117 4.7146e-19)
(0.99957 -0.00039987 -1.2029e-18)
(0.99977 -0.00073784 -8.7373e-18)
(1.0003 -0.0013419 -4.2799e-18)
(1.0002 -0.0011744 1.8368e-17)
(1.0038 -0.0014751 1.3959e-19)
(0.99149 -0.0005997 -1.1979e-17)
(1.0265 0.0022903 -1.2828e-17)
(0.97911 -0.0012331 -1.5775e-17)
(0.99769 0.011655 -1.3231e-18)
(1.0091 0.0096845 2.8361e-18)
(1.0094 0.034238 1.9608e-19)
(0.99945 0.00031675 -7.5849e-19)
(0.99955 -0.00040957 1.4309e-17)
(0.99975 -0.00075684 -5.8283e-18)
(1.0003 -0.0013737 -2.4195e-17)
(1.0002 -0.0012083 8.4699e-18)
(1.004 -0.0015095 -4.3936e-17)
(0.99109 -0.00067928 5.9756e-18)
(1.0267 0.0023979 8.0762e-18)
(0.98058 -0.0013521 7.3269e-19)
(0.99684 0.011461 1.4236e-17)
(1.0084 0.0096576 -9.4845e-19)
(1.0093 0.033792 -5.246e-18)
(0.99943 0.00032177 -2.0023e-19)
(0.99954 -0.00041941 -2.8061e-19)
(0.99974 -0.00077618 7.8466e-18)
(1.0003 -0.001406 1.4939e-17)
(1.0002 -0.0012432 -3.365e-17)
(1.0042 -0.0015434 1.8968e-18)
(0.9907 -0.00076478 1.0702e-17)
(1.0269 0.0025072 1.2651e-17)
(0.98208 -0.0014651 -9.9793e-18)
(0.99613 0.011262 -1.386e-17)
(1.0077 0.009612 -1.5368e-17)
(1.0093 0.033337 5.5387e-18)
(0.99941 0.00032677 -1.3106e-18)
(0.99952 -0.0004294 4.0014e-19)
(0.99972 -0.00079586 -3.7833e-18)
(1.0003 -0.0014386 -9.9748e-18)
(1.0001 -0.001279 1.8655e-17)
(1.0044 -0.0015766 2.3587e-17)
(0.99032 -0.00085638 3.1211e-18)
(1.0271 0.002618 6.4122e-18)
(0.98361 -0.0015717 1.5916e-17)
(0.99555 0.011058 2.3328e-18)
(1.0071 0.009549 1.1361e-17)
(1.0092 0.032871 -3.3618e-18)
(0.99938 0.00033173 2.4126e-18)
(0.99949 -0.00043952 7.3763e-19)
(0.9997 -0.00081588 -5.4075e-18)
(1.0003 -0.0014716 1.4734e-18)
(1.0001 -0.001316 -1.0115e-17)
(1.0047 -0.0016091 -5.6578e-18)
(0.98994 -0.00095428 -1.1536e-18)
(1.0272 0.00273 -2.8955e-17)
(0.98516 -0.0016714 3.1251e-18)
(0.99509 0.01085 -4.7291e-18)
(1.0065 0.0094697 -4.6208e-18)
(1.009 0.032397 -4.051e-18)
(0.99936 0.00033667 -4.9238e-18)
(0.99947 -0.0004498 9.6374e-19)
(0.99968 -0.00083627 2.8683e-18)
(1.0003 -0.001505 -1.852e-17)
(1.0001 -0.001354 -1.1532e-17)
(1.0049 -0.0016408 -2.6272e-17)
(0.98958 -0.0010586 5.5666e-18)
(1.0272 0.0028427 1.1823e-17)
(0.98671 -0.001764 -3.3512e-17)
(0.99476 0.01064 2.1806e-17)
(1.006 0.0093752 -4.9962e-18)
(1.0089 0.031914 2.6128e-18)
(0.99933 0.00034157 4.52e-18)
(0.99945 -0.00046023 2.1566e-18)
(0.99967 -0.00085703 1.1032e-18)
(1.0003 -0.0015388 5.8727e-18)
(1 -0.0013932 -2.5481e-18)
(1.0051 -0.0016716 5.0923e-17)
(0.98922 -0.0011696 1.9985e-17)
(1.0272 0.0029557 -1.8396e-17)
(0.98826 -0.001849 3.2255e-17)
(0.99454 0.010428 -8.136e-18)
(1.0055 0.0092669 -3.2947e-18)
(1.0087 0.031424 -1.3028e-18)
(0.99931 0.00034645 1.1089e-18)
(0.99943 -0.00047081 -1.3654e-17)
(0.99965 -0.00087816 2.2082e-18)
(1.0003 -0.001573 2.638e-17)
(0.99997 -0.0014336 1.9715e-17)
(1.0054 -0.0017014 -8.2002e-19)
(0.98888 -0.0012872 -2.7688e-17)
(1.0271 0.0030686 5.567e-18)
(0.98981 -0.0019263 -7.2748e-18)
(0.99444 0.010215 -1.126e-17)
(1.0051 0.0091459 8.3817e-18)
(1.0086 0.030926 1.215e-18)
(0.99928 0.00035129 -4.3858e-18)
(0.99941 -0.00048155 -4.5529e-18)
(0.99963 -0.00089968 -1.1963e-17)
(1.0003 -0.0016076 -2.2126e-17)
(0.99992 -0.0014752 -1.984e-17)
(1.0056 -0.00173 -2.3144e-17)
(0.98856 -0.0014117 5.1127e-18)
(1.027 0.0031809 4.331e-17)
(0.99134 -0.0019956 3.1709e-18)
(0.99444 0.010003 -9.8338e-19)
(1.0047 0.0090136 -2.9593e-18)
(1.0084 0.030422 -3.2632e-18)
(0.99926 0.0003561 3.2547e-18)
(0.99938 -0.00049245 4.2286e-18)
(0.99961 -0.0009216 1.8436e-17)
(1.0003 -0.0016426 1.5325e-17)
(0.99987 -0.0015182 1.9303e-17)
(1.0059 -0.0017574 -8.6003e-19)
(0.98825 -0.001543 -2.8486e-17)
(1.0268 0.0032921 -2.3412e-17)
(0.99286 -0.002057 7.8709e-18)
(0.99454 0.0097927 3.8973e-18)
(1.0044 0.0088711 6.6712e-18)
(1.0083 0.029913 2.522e-18)
(0.99923 0.00036088 -2.2987e-18)
(0.99936 -0.00050351 6.6345e-18)
(0.99959 -0.00094393 -1.2198e-17)
(1.0003 -0.0016781 2.2186e-18)
(0.99981 -0.0015626 8.9764e-18)
(1.0062 -0.0017835 -2.2627e-18)
(0.98796 -0.0016812 6.396e-18)
(1.0265 0.0034017 6.5027e-18)
(0.99435 -0.0021103 2.5916e-18)
(0.99474 0.0095842 9.6339e-18)
(1.0041 0.0087198 -8.0232e-18)
(1.0082 0.029399 5.0968e-19)
(0.9992 0.00036563 3.4709e-18)
(0.99933 -0.00051475 4.1124e-19)
(0.99957 -0.00096668 -5.7109e-18)
(1.0003 -0.0017139 8.8354e-19)
(0.99975 -0.0016085 -1.4737e-18)
(1.0064 -0.0018082 -2.2357e-17)
(0.98769 -0.0018264 1.7857e-17)
(1.0262 0.0035091 2.3085e-17)
(0.9958 -0.0021556 -1.2898e-17)
(0.99502 0.0093788 -1.3405e-17)
(1.0039 0.0085609 -2.3453e-18)
(1.0081 0.028882 4.3367e-18)
(0.99917 0.00037034 -2.5214e-18)
(0.99931 -0.00052615 -3.167e-19)
(0.99954 -0.00098985 7.1001e-18)
(1.0004 -0.0017502 -1.6963e-17)
(0.99969 -0.0016558 -1.3335e-17)
(1.0067 -0.0018313 2.8227e-17)
(0.98743 -0.0019784 -2.7307e-18)
(1.0259 0.0036138 -2.4441e-17)
(0.99722 -0.002193 3.2864e-18)
(0.99539 0.0091771 1.2621e-17)
(1.0038 0.0083956 7.9494e-18)
(1.008 0.028362 -1.5637e-18)
(0.99914 0.00037501 2.5059e-19)
(0.99928 -0.00053773 2.3201e-18)
(0.99952 -0.0010135 3.8801e-18)
(1.0004 -0.0017868 8.7691e-18)
(0.99963 -0.0017048 2.6141e-17)
(1.0069 -0.0018529 6.5827e-18)
(0.98721 -0.0021373 -2.3777e-17)
(1.0255 0.0037151 2.2918e-18)
(0.9986 -0.0022228 8.4666e-18)
(0.99582 0.00898 -1.1371e-17)
(1.0038 0.008225 -5.3748e-18)
(1.008 0.02784 -1.809e-18)
(0.99911 0.00037965 7.1158e-19)
(0.99925 -0.00054949 -4.0344e-19)
(0.9995 -0.0010375 -1.0239e-17)
(1.0004 -0.0018239 -1.8869e-19)
(0.99956 -0.0017554 -5.1686e-17)
(1.0072 -0.0018728 8.1173e-18)
(0.987 -0.0023029 2.3357e-17)
(1.0251 0.0038125 -6.583e-18)
(0.99993 -0.0022451 -8.8657e-18)
(0.99631 0.008788 1.8883e-17)
(1.0038 0.0080503 6.4306e-18)
(1.008 0.027317 4.6881e-18)
(0.99908 0.00038426 7.6449e-19)
(0.99923 -0.00056144 -8.3743e-19)
(0.99947 -0.0010621 1.8518e-17)
(1.0004 -0.0018614 4.0454e-18)
(0.99949 -0.0018077 4.5806e-17)
(1.0075 -0.0018909 -2.8605e-17)
(0.98682 -0.0024751 -7.8215e-18)
(1.0246 0.0039054 6.1979e-18)
(1.0012 -0.0022603 3.0556e-18)
(0.99687 0.0086017 -1.0625e-17)
(1.0039 0.0078724 -1.0411e-18)
(1.008 0.026794 -3.4569e-18)
(0.99905 0.00038882 -2.9874e-18)
(0.9992 -0.00057357 1.4064e-18)
(0.99945 -0.001087 -1.0885e-17)
(1.0004 -0.0018994 5.3201e-18)
(0.99941 -0.0018618 -1.7406e-17)
(1.0078 -0.0019073 3.8792e-18)
(0.98666 -0.0026537 3.1317e-17)
(1.0241 0.0039932 -2.3202e-17)
(1.0024 -0.0022688 -1.1231e-17)
(0.99747 0.0084216 -1.051e-17)
(1.004 0.0076925 -5.1134e-18)
(1.008 0.026272 -9.4937e-19)
(0.99902 0.00039335 3.7216e-18)
(0.99917 -0.0005859 -3.3401e-18)
(0.99942 -0.0011125 -1.0565e-17)
(1.0004 -0.0019377 -8.4832e-18)
(0.99934 -0.0019178 -2.8463e-17)
(1.008 -0.0019218 -1.7996e-17)
(0.98653 -0.0028386 -1.9202e-17)
(1.0235 0.0040752 2.1575e-17)
(1.0036 -0.002271 1.0889e-17)
(0.99811 0.0082481 1.5917e-17)
(1.0042 0.0075115 -2.0014e-18)
(1.0081 0.025751 4.5822e-18)
(0.99898 0.00039784 -5.9817e-18)
(0.99914 -0.00059842 5.4125e-18)
(0.99939 -0.0011385 2.5869e-17)
(1.0004 -0.0019765 -2.0013e-18)
(0.99926 -0.0019757 3.1492e-17)
(1.0083 -0.0019344 1.3555e-18)
(0.98643 -0.0030293 -1.8392e-17)
(1.023 0.0041509 8.4478e-18)
(1.0047 -0.0022675 -3.9268e-18)
(0.99878 0.0080815 -3.3329e-18)
(1.0044 0.0073301 6.4935e-18)
(1.0083 0.025233 -3.0987e-18)
(0.99895 0.00040229 4.9022e-18)
(0.99911 -0.00061115 -7.356e-18)
(0.99937 -0.001165 -3.0163e-17)
(1.0004 -0.0020157 1.3092e-17)
(0.99917 -0.0020356 -2.2439e-17)
(1.0086 -0.0019451 2.4879e-17)
(0.98635 -0.0032258 5.9945e-18)
(1.0224 0.0042197 -8.0403e-18)
(1.0057 -0.0022589 -1.885e-18)
(0.99948 0.0079219 -8.3474e-18)
(1.0047 0.0071493 -1.0586e-17)
(1.0084 0.024717 4.2829e-18)
(0.99892 0.0004067 -3.6112e-18)
(0.99908 -0.00062407 2.4461e-18)
(0.99934 -0.001192 1.8329e-17)
(1.0004 -0.0020553 -1.7259e-17)
(0.99909 -0.0020975 3.6107e-17)
(1.0088 -0.0019539 -1.9313e-17)
(0.9863 -0.0034276 3.4945e-18)
(1.0217 0.0042809 -1.2713e-17)
(1.0067 -0.0022457 6.1533e-18)
(1.0002 0.0077696 -1.1681e-18)
(1.005 0.0069696 4.5315e-18)
(1.0086 0.024205 -1.9044e-18)
(0.99888 0.00041107 4.4294e-18)
(0.99904 -0.00063721 1.9046e-18)
(0.99931 -0.0012195 -1.2221e-17)
(1.0004 -0.0020953 -3.5146e-19)
(0.999 -0.0021616 -1.5925e-18)
(1.0091 -0.0019608 4.6701e-18)
(0.98628 -0.0036345 3.3186e-17)
(1.0211 0.004334 8.697e-18)
(1.0076 -0.0022286 -1.824e-17)
(1.0009 0.0076245 -6.0544e-18)
(1.0054 0.0067917 -4.2616e-18)
(1.0088 0.023698 2.0014e-18)
(0.99884 0.0004154 -5.0773e-18)
(0.99901 -0.00065057 -7.0584e-18)
(0.99928 -0.0012476 5.1271e-18)
(1.0004 -0.0021358 1.4936e-17)
(0.99891 -0.0022278 -3.2759e-17)