/*--------------------------------*- C++ -*----------------------------------*\
  =========                 |
  \\      /  F ield         | OpenFOAM: The Open Source CFD Toolbox
   \\    /   O peration     | Website:  https://openfoam.org
    \\  /    A nd           | Version:  6.0
     \\/     M anipulation  |
\*---------------------------------------------------------------------------*/
FoamFile
{
    version     2.0;
    format      ascii;
    class       volScalarField;
    location    "9";
    object      p;
}
// * * * * * * * * * * * * * * * * * * * * * * * * * * * * * * * * * * * * * //

dimensions      [0 2 -2 0 0 0 0];

internalField   nonuniform List<scalar> 
62000
(
0.00968686
0.00984765
0.0100124
0.0101782
0.0103435
0.0105029
0.0106559
0.0107994
0.0109358
0.0110631
0.0111844
0.0112971
0.0114039
0.0115014
0.0115923
0.0116726
0.0117448
0.0118049
0.0118551
0.011891
0.011914
0.0119199
0.0119085
0.0118759
0.0118202
0.0117376
0.0116248
0.0114774
0.0112914
0.0110618
0.010783
0.0104487
0.0100521
0.00958791
0.00905006
0.00843373
0.00773593
0.00695683
0.00609929
0.00516847
0.00417092
0.003114
0.00200446
0.000846669
-0.000358633
-0.00161567
-0.00293054
-0.0043072
-0.00574068
-0.00720242
-0.00864484
-0.00997984
-0.0111169
-0.0119157
-0.0122751
-0.0120975
-0.0113431
-0.00982952
-0.00870847
-0.0113222
0.00921255
0.00934321
0.0094862
0.00964649
0.00982278
0.0100066
0.0101913
0.0103681
0.0105349
0.0106885
0.0108317
0.0109634
0.0110869
0.0112
0.0113055
0.0114
0.0114859
0.0115594
0.0116224
0.0116709
0.0117061
0.0117239
0.0117243
0.0117034
0.0116596
0.011589
0.0114885
0.0113537
0.0111805
0.010964
0.0106986
0.0103776
0.0099945
0.0095423
0.0090148
0.0084055
0.00771121
0.00693163
0.00606931
0.00512887
0.00411645
0.00303926
0.00190409
0.000715171
-0.000527811
-0.0018318
-0.00320824
-0.00466961
-0.00622222
-0.00784877
-0.00951066
-0.0111173
-0.012569
-0.0136844
-0.0143117
-0.0142845
-0.0135088
-0.0117736
-0.0106359
-0.00947509
0.00867395
0.00876936
0.00887789
0.00900974
0.00916896
0.00935127
0.00954905
0.00974874
0.00994152
0.0101196
0.010283
0.0104303
0.0105654
0.0106869
0.0107986
0.0108974
0.0109865
0.0110619
0.011126
0.0111746
0.0112093
0.0112258
0.0112244
0.0112011
0.0111547
0.0110812
0.0109777
0.01084
0.010664
0.0104452
0.0101776
0.00985543
0.00947154
0.00901974
0.0084921
0.00788253
0.00718821
0.00640996
0.00555187
0.00462071
0.00362555
0.00257805
0.00149118
0.000376865
-0.000756289
-0.00190634
-0.00307753
-0.00427914
-0.00552081
-0.00679628
-0.00808751
-0.00933175
-0.0104689
-0.0113583
-0.0119046
-0.0120197
-0.0117215
-0.0109923
-0.0116475
-0.0129505
0.00812409
0.00821248
0.00831017
0.00842571
0.00856934
0.00874532
0.00895057
0.00917105
0.00939316
0.00960372
0.00979818
0.00997293
0.0101308
0.0102711
0.0103977
0.010509
0.0106081
0.0106922
0.0107635
0.0108187
0.0108591
0.0108813
0.0108855
0.010868
0.0108277
0.010761
0.0106648
0.0105353
0.0103681
0.0101586
0.00990099
0.00958904
0.00921617
0.00877402
0.00825443
0.00764945
0.00695567
0.00617331
0.00530615
0.00436091
0.00334729
0.00227887
0.00117241
4.57144e-05
-0.00108479
-0.00220799
-0.00331926
-0.00442138
-0.00552299
-0.00662473
-0.00772634
-0.00879322
-0.0098111
-0.0106923
-0.0114075
-0.0119546
-0.012432
-0.0128478
-0.0150705
-0.0175827
0.00733057
0.00742892
0.00752991
0.00763767
0.00776723
0.00793084
0.00813303
0.00836315
0.00860683
0.00884712
0.00907563
0.00928531
0.00947739
0.00965002
0.00980738
0.00994749
0.0100741
0.010184
0.0102803
0.0103594
0.0104234
0.0104687
0.0104963
0.0105026
0.0104869
0.0104457
0.0103763
0.0102746
0.0101363
0.00995672
0.00972954
0.00944861
0.0091059
0.00869268
0.00819784
0.00761141
0.00692747
0.00614367
0.00526093
0.00428293
0.00321638
0.0020725
0.000867054
-0.000381324
-0.00165304
-0.00293159
-0.00420535
-0.00546979
-0.00672823
-0.00797982
-0.00922942
-0.0104539
-0.0116617
-0.0127917
-0.0138434
-0.0148427
-0.0158704
-0.0168224
-0.0194098
-0.0220627
0.00627554
0.00638252
0.00648494
0.00658317
0.00669305
0.00683218
0.0070124
0.00722877
0.00746893
0.00771544
0.00795741
0.00818575
0.00839944
0.00859613
0.0087788
0.00894595
0.00910045
0.00923972
0.00936584
0.00947566
0.00957061
0.0096475
0.00970702
0.00974598
0.00976375
0.009757
0.00972323
0.00965853
0.00955854
0.00941835
0.00923176
0.00899185
0.00869064
0.00831723
0.00785905
0.00730313
0.00664053
0.00586546
0.00497483
0.00396777
0.00284608
0.00161605
0.000289204
-0.00111859
-0.00258836
-0.00410156
-0.00564181
-0.00719752
-0.00876379
-0.0103319
-0.0119007
-0.0134426
-0.014968
-0.0164161
-0.0177794
-0.0190707
-0.0203077
-0.0212875
-0.0236662
-0.0261104
0.0050093
0.00511566
0.00521405
0.0053018
0.00539179
0.00550322
0.00565272
0.00584053
0.00605748
0.00628734
0.00651883
0.00674184
0.00695442
0.00715334
0.00734158
0.00751722
0.00768337
0.00783702
0.00798024
0.00810938
0.00822563
0.00832548
0.00840939
0.00847409
0.00851884
0.0085404
0.00853629
0.00850274
0.00843538
0.00832946
0.00817845
0.00797589
0.00771279
0.00737793
0.00695692
0.00643456
0.00579917
0.00504175
0.00415541
0.00313481
0.00197665
0.000681679
-0.00074398
-0.00228897
-0.00393711
-0.00567021
-0.00746926
-0.00931684
-0.0111996
-0.0130982
-0.0149998
-0.0168647
-0.0186921
-0.0204079
-0.0219853
-0.0234143
-0.0246581
-0.0254857
-0.0276035
-0.0297972
0.00363573
0.00372963
0.00381586
0.00388966
0.00395919
0.00404285
0.00415971
0.00431367
0.00449811
0.00469856
0.00490382
0.00510393
0.00529596
0.00547711
0.00564955
0.00581238
0.0059682
0.006115
0.00625425
0.00638279
0.00650112
0.00660579
0.0066967
0.00677048
0.00682607
0.00686018
0.00687024
0.00685254
0.00680279
0.00671622
0.0065867
0.00640743
0.00617
0.00586254
0.00546978
0.00497517
0.00436492
0.00362761
0.00275338
0.00173328
0.000559719
-0.000771574
-0.0022597
-0.00389815
-0.00567447
-0.00757222
-0.00957157
-0.0116511
-0.0137901
-0.0159596
-0.0181343
-0.0202604
-0.0223235
-0.0242345
-0.0259451
-0.0274317
-0.0286266
-0.0293235
-0.0312867
-0.0332721
0.00215956
0.00223314
0.00230263
0.00236175
0.002414
0.00247535
0.00256564
0.00269025
0.00284462
0.00301505
0.00319132
0.003363
0.00352766
0.00368161
0.00382788
0.00396507
0.00409687
0.00422105
0.00433993
0.00445019
0.00455273
0.0046439
0.0047236
0.0047883
0.00483678
0.00486565
0.00487224
0.00485284
0.00480316
0.0047187
0.00459321
0.00442069
0.00419259
0.00389711
0.00351916
0.00304113
0.00244819
0.00172738
0.000866849
-0.000144855
-0.00131855
-0.00266246
-0.00418015
-0.00586962
-0.00772231
-0.00972439
-0.0118566
-0.0140953
-0.016415
-0.0187787
-0.021151
-0.023466
-0.025697
-0.0277422
-0.0295392
-0.0310616
-0.0322299
-0.032882
-0.0347984
-0.0366269
0.000648312
0.000695787
0.00074305
0.000783238
0.000815789
0.000854687
0.000919755
0.00101736
0.00114367
0.00128583
0.00143353
0.00157668
0.00171209
0.00183658
0.00195236
0.00205894
0.00215961
0.0022533
0.00234212
0.00242363
0.00249865
0.00256393
0.00261925
0.00266123
0.00268855
0.00269781
0.00268633
0.00265041
0.0025859
0.00248829
0.00235191
0.00217061
0.0019366
0.00163874
0.0012615
0.000787688
0.000201827
-0.000509851
-0.00136027
-0.00236245
-0.00352938
-0.00487214
-0.0063978
-0.00810815
-0.00999828
-0.0120572
-0.0142672
-0.0166042
-0.0190396
-0.0215316
-0.0240374
-0.0264823
-0.0288317
-0.0309757
-0.0328428
-0.0344121
-0.0356009
-0.0362892
-0.0382352
-0.0399529
-0.00093434
-0.000913643
-0.000889066
-0.000867868
-0.000853846
-0.000834721
-0.000791127
-0.000716261
-0.000613529
-0.000495444
-0.000372127
-0.00025387
-0.00014382
-4.58008e-05
4.26775e-05
0.000120564
0.000191673
0.000254678
0.000312326
0.000362203
0.000405654
0.000439591
0.000464067
0.000475901
0.000473849
0.000454663
0.000415739
0.000353486
0.000263855
0.000142639
-1.58673e-05
-0.000216977
-0.000468191
-0.000780661
-0.00116844
-0.00164905
-0.00223772
-0.00294839
-0.00379445
-0.00478973
-0.00594852
-0.00728386
-0.00880543
-0.0105181
-0.0124203
-0.0145038
-0.016753
-0.0191446
-0.021649
-0.0242217
-0.0268156
-0.0293507
-0.0317873
-0.0340111
-0.0359472
-0.037584
-0.0388376
-0.0396196
-0.0416383
-0.0432783
-0.00255493
-0.00256087
-0.00255994
-0.00255945
-0.00256561
-0.00256724
-0.00254508
-0.00249187
-0.00241096
-0.00231449
-0.00221302
-0.0021166
-0.00202925
-0.00195434
-0.0018905
-0.00183814
-0.00179427
-0.00175941
-0.00173131
-0.0017117
-0.00169939
-0.00169701
-0.0017045
-0.00172474
-0.00175889
-0.00180999
-0.00188049
-0.00197383
-0.00209379
-0.00224455
-0.00243117
-0.00265907
-0.00293515
-0.00326919
-0.0036759
-0.00417136
-0.00477073
-0.00548776
-0.00633585
-0.00732917
-0.00848265
-0.0098106
-0.0113246
-0.0130319
-0.0149336
-0.0170243
-0.0192908
-0.0217111
-0.0242561
-0.0268804
-0.0295352
-0.0321378
-0.0346465
-0.036946
-0.0389592
-0.0406853
-0.0420367
-0.0429456
-0.0450588
-0.0466479
-0.00427122
-0.00430133
-0.0043212
-0.00433844
-0.00436098
-0.00437908
-0.00437352
-0.0043374
-0.00427349
-0.00419441
-0.0041101
-0.0040314
-0.0039617
-0.00390556
-0.00386087
-0.00382923
-0.00380695
-0.00379545
-0.00379191
-0.00379847
-0.00381348
-0.00383968
-0.00387671
-0.00392728
-0.00399242
-0.00407495
-0.00417713
-0.00430221
-0.0044538
-0.00463572
-0.00485303
-0.0051104
-0.00541421
-0.00577477
-0.00620456
-0.00672
-0.00733545
-0.00806421
-0.00891946
-0.00991538
-0.0110672
-0.01239
-0.0138967
-0.0155964
-0.0174926
-0.0195825
-0.0218551
-0.0242906
-0.026861
-0.0295216
-0.0322234
-0.0348829
-0.0374579
-0.0398336
-0.041933
-0.0437647
-0.0452346
-0.0462868
-0.0485018
-0.0500581
-0.00602682
-0.00608022
-0.00612132
-0.00615754
-0.00619824
-0.00623424
-0.0062464
-0.00622756
-0.00618066
-0.00611807
-0.00605023
-0.00598771
-0.00593463
-0.00589507
-0.00586791
-0.0058542
-0.00585109
-0.00585945
-0.0058771
-0.00590582
-0.00594424
-0.00599492
-0.0060576
-0.00613486
-0.00622768
-0.00633873
-0.00647013
-0.00662496
-0.00680656
-0.00701871
-0.00726584
-0.00755272
-0.00788543
-0.0082725
-0.00872759
-0.00926525
-0.0098997
-0.0106437
-0.0115101
-0.012513
-0.0136675
-0.0149893
-0.0164922
-0.0181869
-0.0200786
-0.0221669
-0.0244432
-0.0268898
-0.0294804
-0.0321719
-0.0349161
-0.0376302
-0.0402728
-0.0427307
-0.0449262
-0.0468759
-0.0484763
-0.0496768
-0.0519954
-0.0535353
-0.0078738
-0.00794738
-0.00800662
-0.00805898
-0.00811497
-0.00816594
-0.00819297
-0.00818887
-0.00815651
-0.00810836
-0.00805467
-0.00800625
-0.00796695
-0.00794142
-0.00792816
-0.00792894
-0.00794062
-0.00796475
-0.00799896
-0.00804545
-0.00810272
-0.00817351
-0.00825748
-0.0083572
-0.00847362
-0.00860931
-0.00876627
-0.00894744
-0.00915603
-0.00939551
-0.00967037
-0.00998473
-0.010344
-0.0107579
-0.0112374
-0.0117977
-0.0124521
-0.0132129
-0.0140925
-0.0151049
-0.0162652
-0.0175892
-0.0190916
-0.0207842
-0.0226739
-0.0247623
-0.0270432
-0.0295011
-0.0321117
-0.0348339
-0.0376211
-0.0403917
-0.0431052
-0.0456502
-0.0479489
-0.050024
-0.0517604
-0.0531092
-0.0555293
-0.0570647
-0.00977237
-0.00986455
-0.00994138
-0.0100102
-0.0100823
-0.0101492
-0.0101918
-0.0102025
-0.0101846
-0.0101503
-0.0101103
-0.0100752
-0.0100493
-0.0100368
-0.0100371
-0.0100512
-0.0100768
-0.0101148
-0.0101637
-0.0102252
-0.0102983
-0.0103857
-0.0104873
-0.0106055
-0.0107416
-0.0108979
-0.0110764
-0.0112801
-0.0115119
-0.0117753
-0.0120744
-0.0124133
-0.0127976
-0.0132347
-0.0137375
-0.0143192
-0.0149931
-0.015771
-0.016665
-0.0176889
-0.0188577
-0.0201874
-0.0216933
-0.0233882
-0.0252803
-0.0273732
-0.0296627
-0.0321355
-0.0347695
-0.0375258
-0.0403597
-0.043191
-0.0459808
-0.0486196
-0.0510282
-0.0532343
-0.0551091
-0.056603
-0.0591233
-0.0606672
-0.011788
-0.0118961
-0.0119869
-0.0120681
-0.0121515
-0.0122293
-0.0122822
-0.0123034
-0.0122956
-0.0122716
-0.0122418
-0.0122171
-0.0122014
-0.0121996
-0.01221
-0.0122348
-0.012271
-0.0123202
-0.0123804
-0.0124541
-0.0125399
-0.0126408
-0.0127566
-0.01289
-0.0130421
-0.0132153
-0.0134117
-0.0136341
-0.0138855
-0.0141691
-0.0144891
-0.0148492
-0.0152543
-0.0157134
-0.0162365
-0.0168378
-0.0175298
-0.0183239
-0.019232
-0.0202677
-0.021446
-0.0227831
-0.0242948
-0.0259948
-0.0278926
-0.0299934
-0.0322951
-0.0347866
-0.0374479
-0.0402423
-0.0431271
-0.0460235
-0.0488942
-0.0516308
-0.0541537
-0.0564932
-0.0585066
-0.0601426
-0.0627618
-0.0643242
-0.013854
-0.0139777
-0.0140833
-0.0141782
-0.0142747
-0.014365
-0.0144297
-0.0144619
-0.0144646
-0.0144507
-0.0144309
-0.0144162
-0.0144107
-0.0144189
-0.0144398
-0.0144749
-0.0145216
-0.0145812
-0.0146521
-0.0147365
-0.0148332
-0.0149454
-0.015073
-0.0152188
-0.0153839
-0.015571
-0.015782
-0.0160197
-0.0162871
-0.0165876
-0.0169248
-0.0173028
-0.0177266
-0.0182031
-0.0187444
-0.0193629
-0.0200711
-0.02088
-0.0218016
-0.0228494
-0.0240383
-0.0253846
-0.0269047
-0.0286131
-0.0305205
-0.0326333
-0.0349517
-0.0374664
-0.0401598
-0.042997
-0.0459377
-0.048904
-0.0518605
-0.0547
-0.0573414
-0.0598169
-0.0619688
-0.063744
-0.0664626
-0.0680553
-0.0160258
-0.0161626
-0.0162802
-0.0163859
-0.0164926
-0.0165924
-0.0166662
-0.016707
-0.016718
-0.0167123
-0.0167006
-0.0166941
-0.0166966
-0.0167129
-0.0167417
-0.0167848
-0.0168393
-0.0169069
-0.0169858
-0.0170786
-0.017184
-0.0173053
-0.0174424
-0.0175982
-0.0177739
-0.0179721
-0.0181949
-0.018445
-0.0187255
-0.0190395
-0.0193912
-0.019784
-0.0202222
-0.0207148
-0.0212709
-0.0219041
-0.0226263
-0.0234483
-0.0243818
-0.0254406
-0.0266395
-0.0279952
-0.0295245
-0.0312426
-0.0331613
-0.0352887
-0.0376266
-0.0401678
-0.0428967
-0.0457807
-0.0487809
-0.0518209
-0.0548666
-0.0578118
-0.0605741
-0.0631865
-0.0654765
-0.0673894
-0.0702081
-0.0718412
-0.0182572
-0.0184062
-0.0185358
-0.0186532
-0.0187713
-0.018882
-0.018966
-0.0190159
-0.0190355
-0.0190377
-0.019034
-0.0190351
-0.0190456
-0.0190696
-0.0191064
-0.0191572
-0.0192196
-0.0192949
-0.0193815
-0.0194818
-0.0195948
-0.0197238
-0.0198688
-0.0200327
-0.020217
-0.0204242
-0.0206563
-0.0209163
-0.0212072
-0.0215323
-0.0218952
-0.0222999
-0.0227511
-0.0232553
-0.0238242
-0.0244695
-0.0252034
-0.0260365
-0.0269807
-0.0280499
-0.0292587
-0.0306243
-0.032164
-0.0338937
-0.0358262
-0.0379709
-0.0403315
-0.0429027
-0.045671
-0.0486055
-0.0516691
-0.0547864
-0.0579249
-0.0609795
-0.0638654
-0.0666165
-0.0690448
-0.0710944
-0.0740162
-0.0757013
-0.020617
-0.0207763
-0.0209147
-0.0210397
-0.0211643
-0.021281
-0.0213699
-0.0214246
-0.0214484
-0.0214552
-0.0214558
-0.0214619
-0.0214771
-0.0215064
-0.0215481
-0.0216044
-0.021672
-0.0217527
-0.0218447
-0.0219506
-0.0220694
-0.0222043
-0.0223555
-0.0225259
-0.0227169
-0.0229311
-0.0231707
-0.0234385
-0.0237375
-0.0240711
-0.0244431
-0.0248572
-0.0253173
-0.0258324
-0.0264109
-0.027066
-0.0278094
-0.0286516
-0.0296044
-0.0306821
-0.0318996
-0.0332741
-0.0348236
-0.0365649
-0.0385117
-0.0406747
-0.0430593
-0.0456624
-0.0484722
-0.0514598
-0.0545893
-0.0577862
-0.0610196
-0.0641852
-0.0671964
-0.070087
-0.0726539
-0.0748408
-0.0778684
-0.0796156
-0.0230335
-0.0232034
-0.023352
-0.0234863
-0.0236196
-0.023744
-0.0238397
-0.0238999
-0.0239286
-0.0239397
-0.0239448
-0.0239553
-0.0239754
-0.0240096
-0.0240567
-0.0241181
-0.0241912
-0.0242771
-0.0243744
-0.0244853
-0.024609
-0.0247489
-0.024905
-0.0250804
-0.0252765
-0.0254961
-0.0257412
-0.0260149
-0.02632
-0.0266601
-0.0270387
-0.0274598
-0.027928
-0.0284497
-0.0290362
-0.0296987
-0.0304494
-0.0312987
-0.0322587
-0.0333439
-0.0345693
-0.0359524
-0.0375121
-0.0392657
-0.0412279
-0.0434107
-0.0458212
-0.0484583
-0.0513122
-0.0543555
-0.0575535
-0.0608324
-0.0641633
-0.0674425
-0.0705812
-0.073613
-0.0763196
-0.0786449
-0.0817825
-0.0836033
-0.0255618
-0.0257403
-0.0258966
-0.0260376
-0.0261769
-0.0263063
-0.0264061
-0.0264697
-0.0265013
-0.0265153
-0.0265231
-0.0265364
-0.0265593
-0.0265966
-0.0266465
-0.026711
-0.0267868
-0.0268757
-0.0269759
-0.0270899
-0.0272167
-0.0273598
-0.0275193
-0.0276982
-0.027898
-0.0281213
-0.0283704
-0.0286481
-0.0289576
-0.0293021
-0.0296856
-0.0301118
-0.0305844
-0.0311124
-0.0317039
-0.0323718
-0.0331278
-0.0339821
-0.0349472
-0.0360378
-0.0372692
-0.0386595
-0.0402279
-0.0419928
-0.0439698
-0.0461721
-0.0486086
-0.0512801
-0.0541793
-0.0572795
-0.0605473
-0.0639096
-0.0673392
-0.0707333
-0.0740007
-0.0771749
-0.0800223
-0.0824883
-0.0857399
-0.0876446
-0.0281538
-0.0283404
-0.0285048
-0.0286536
-0.0288005
-0.0289366
-0.0290421
-0.02911
-0.0291451
-0.0291618
-0.0291724
-0.0291882
-0.0292141
-0.0292539
-0.0293069
-0.0293742
-0.0294531
-0.0295447
-0.0296475
-0.029764
-0.0298931
-0.0300384
-0.0302
-0.030381
-0.030583
-0.0308086
-0.03106
-0.0313402
-0.0316522
-0.0319995
-0.0323858
-0.0328149
-0.0332916
-0.0338219
-0.0344172
-0.0350883
-0.0358475
-0.0367051
-0.0376737
-0.0387684
-0.0400049
-0.0414015
-0.0429784
-0.0447544
-0.0467464
-0.0489687
-0.051432
-0.0541392
-0.057085
-0.0602437
-0.0635829
-0.0670304
-0.0705607
-0.0740717
-0.0774699
-0.0807885
-0.0837788
-0.0863879
-0.0897584
-0.0917584
-0.0308792
-0.0310725
-0.0312421
-0.031395
-0.0315446
-0.0316826
-0.0317886
-0.0318566
-0.031891
-0.0319073
-0.0319172
-0.031933
-0.0319585
-0.0319988
-0.0320518
-0.0321197
-0.0321987
-0.0322907
-0.0323938
-0.0325108
-0.0326404
-0.0327863
-0.0329485
-0.0331302
-0.0333329
-0.0335593
-0.0338116
-0.0340927
-0.0344056
-0.0347539
-0.0351414
-0.0355719
-0.0360491
-0.036582
-0.0371784
-0.0378509
-0.0386114
-0.0394701
-0.04044
-0.0415366
-0.0427759
-0.0441768
-0.0457601
-0.0475456
-0.0495511
-0.0517921
-0.0542815
-0.0570238
-0.0600162
-0.0632336
-0.0666451
-0.0701784
-0.0738104
-0.0774391
-0.0809694
-0.084434
-0.0875692
-0.0903248
-0.0938187
-0.0959247
-0.0336678
-0.0338685
-0.0340449
-0.0342037
-0.0343583
-0.0345
-0.0346082
-0.034677
-0.0347114
-0.0347269
-0.0347362
-0.0347513
-0.0347767
-0.0348167
-0.0348701
-0.034938
-0.0350175
-0.0351096
-0.0352128
-0.0353296
-0.0354588
-0.0356042
-0.0357658
-0.0359469
-0.0361489
-0.0363747
-0.0366263
-0.0369067
-0.037219
-0.0375667
-0.0379536
-0.0383837
-0.0388613
-0.0393928
-0.0399892
-0.0406612
-0.0414211
-0.0422792
-0.0432488
-0.0443459
-0.0455867
-0.0469908
-0.0485797
-0.050374
-0.0523924
-0.0546521
-0.0571673
-0.0599452
-0.0629845
-0.066262
-0.0697461
-0.0733677
-0.0771026
-0.0808507
-0.084515
-0.088128
-0.0914108
-0.0943164
-0.0979387
-0.100162
-0.0365719
-0.0367781
-0.0369591
-0.0371214
-0.0372784
-0.0374212
-0.0375293
-0.037597
-0.0376294
-0.0376428
-0.0376497
-0.0376626
-0.0376857
-0.0377237
-0.0377748
-0.0378408
-0.0379178
-0.0380078
-0.0381087
-0.0382233
-0.0383503
-0.0384935
-0.038653
-0.0388319
-0.0390318
-0.0392555
-0.039505
-0.0397833
-0.0400935
-0.0404391
-0.040824
-0.0412521
-0.0417269
-0.0422576
-0.0428514
-0.0435211
-0.0442785
-0.0451338
-0.0461009
-0.047196
-0.0484359
-0.0498407
-0.0514327
-0.0532334
-0.0552626
-0.0575389
-0.0600785
-0.0628907
-0.0659762
-0.0693131
-0.0728708
-0.0765809
-0.0804196
-0.0842879
-0.0880876
-0.091851
-0.0952841
-0.0983437
-0.102099
-0.104449
-0.0395448
-0.0397561
-0.039942
-0.0401087
-0.0402696
-0.0404153
-0.0405247
-0.040592
-0.0406231
-0.0406343
-0.0406389
-0.0406493
-0.0406701
-0.0407057
-0.0407547
-0.0408182
-0.0408931
-0.0409805
-0.0410788
-0.0411905
-0.0413143
-0.0414543
-0.0416104
-0.0417859
-0.0419824
-0.0422026
-0.0424486
-0.0427234
-0.04303
-0.043372
-0.0437533
-0.0441777
-0.0446498
-0.0451757
-0.0457662
-0.0464317
-0.0471846
-0.0480354
-0.0489981
-0.0500896
-0.0513272
-0.0527314
-0.0543252
-0.0561313
-0.0581703
-0.0604625
-0.0630258
-0.065872
-0.0690033
-0.0724004
-0.0760317
-0.0798326
-0.0837765
-0.0877664
-0.0917034
-0.09562
-0.0992065
-0.102425
-0.106318
-0.108802
-0.0426528
-0.042868
-0.0430559
-0.0432232
-0.0433831
-0.0435265
-0.043632
-0.0436946
-0.0437201
-0.043726
-0.0437248
-0.0437302
-0.0437457
-0.0437768
-0.0438207
-0.0438798
-0.0439498
-0.0440326
-0.044126
-0.044233
-0.044352
-0.0444873
-0.0446387
-0.0448094
-0.0450011
-0.0452166
-0.0454578
-0.0457277
-0.0460294
-0.0463664
-0.0467428
-0.0471623
-0.0476284
-0.0481502
-0.0487347
-0.0493944
-0.0501409
-0.0509849
-0.0519409
-0.0530263
-0.0542588
-0.0556596
-0.0572526
-0.0590612
-0.0611074
-0.063413
-0.065998
-0.068876
-0.072052
-0.0755081
-0.0792138
-0.0831052
-0.0871551
-0.0912673
-0.0953431
-0.0994152
-0.103158
-0.106539
-0.110577
-0.113199
-0.0458265
-0.0460461
-0.0462376
-0.0464071
-0.0465679
-0.0467106
-0.0468137
-0.0468722
-0.0468925
-0.0468925
-0.0468857
-0.0468853
-0.0468956
-0.0469215
-0.0469609
-0.0470153
-0.0470807
-0.0471587
-0.0472473
-0.0473491
-0.0474627
-0.0475925
-0.047738
-0.0479029
-0.0480886
-0.048298
-0.0485331
-0.0487968
-0.0490923
-0.049423
-0.049793
-0.050206
-0.0506664
-0.0511802
-0.0517581
-0.0524098
-0.053148
-0.0539834
-0.054931
-0.0560086
-0.0572345
-0.0586305
-0.0602212
-0.0620309
-0.0640829
-0.0664008
-0.0690063
-0.0719156
-0.0751352
-0.0786507
-0.0824305
-0.0864153
-0.090572
-0.0948074
-0.0990237
-0.103254
-0.107158
-0.110707
-0.114895
-0.117658
-0.0491119
-0.049334
-0.0495267
-0.0496961
-0.0498554
-0.049995
-0.0500934
-0.050146
-0.0501596
-0.0501526
-0.0501386
-0.0501313
-0.0501347
-0.050154
-0.0501865
-0.0502344
-0.0502929
-0.0503642
-0.0504458
-0.0505408
-0.0506475
-0.0507703
-0.0509088
-0.0510666
-0.0512452
-0.0514474
-0.0516752
-0.0519315
-0.0522195
-0.0525427
-0.0529051
-0.0533105
-0.0537619
-0.0542688
-0.0548371
-0.0554792
-0.0562071
-0.0570317
-0.0579685
-0.0590359
-0.0602526
-0.061641
-0.0632265
-0.0650343
-0.0670893
-0.0694166
-0.0720401
-0.0749782
-0.0782397
-0.0818129
-0.0856675
-0.0897449
-0.0940088
-0.0983678
-0.102726
-0.107117
-0.111184
-0.114906
-0.11925
-0.122158
-0.0524626
-0.0526866
-0.0528808
-0.0530509
-0.0532102
-0.0533485
-0.0534439
-0.0534918
-0.0534995
-0.0534858
-0.0534649
-0.0534507
-0.0534475
-0.0534601
-0.0534862
-0.0535275
-0.0535797
-0.0536442
-0.0537188
-0.0538066
-0.0539057
-0.0540207
-0.0541513
-0.0543009
-0.0544712
-0.0546651
-0.0548844
-0.0551322
-0.0554116
-0.0557261
-0.0560795
-0.0564757
-0.0569188
-0.0574143
-0.0579726
-0.0586033
-0.0593191
-0.0601313
-0.0610557
-0.0621114
-0.0633175
-0.0646968
-0.0662756
-0.0680801
-0.0701365
-0.0724718
-0.0751118
-0.0780776
-0.0813795
-0.0850105
-0.0889392
-0.0931113
-0.0974831
-0.101966
-0.106468
-0.111022
-0.115257
-0.119156
-0.12366
-0.126717
-0.0559471
-0.0561718
-0.0563647
-0.0565318
-0.0566861
-0.0568179
-0.0569051
-0.0569439
-0.0569416
-0.0569182
-0.0568872
-0.0568638
-0.0568512
-0.0568551
-0.0568722
-0.056905
-0.0569481
-0.0570039
-0.0570695
-0.0571484
-0.0572384
-0.0573443
-0.0574657
-0.057606
-0.057767
-0.0579514
-0.0581612
-0.0583994
-0.0586691
-0.0589737
-0.0593173
-0.0597032
-0.0601344
-0.06062
-0.0611655
-0.0617832
-0.0624854
-0.0632833
-0.0641934
-0.0652351
-0.0664279
-0.0677954
-0.0693646
-0.0711628
-0.0732176
-0.0755578
-0.0782114
-0.0812021
-0.0845424
-0.0882291
-0.0922317
-0.0964969
-0.100976
-0.105584
-0.11023
-0.11495
-0.119355
-0.123436
-0.128105
-0.131316
-0.0594973
-0.0597235
-0.0599167
-0.0600826
-0.0602342
-0.0603614
-0.0604419
-0.0604722
-0.0604602
-0.0604264
-0.0603853
-0.0603517
-0.0603297
-0.0603243
-0.0603327
-0.0603568
-0.0603914
-0.0604383
-0.060495
-0.0605646
-0.0606449
-0.0607409
-0.0608521
-0.0609822
-0.0611327
-0.0613066
-0.0615059
-0.0617335
-0.0619925
-0.0622862
-0.0626185
-0.0629927
-0.0634129
-0.0638842
-0.0644169
-0.0650203
-0.0657074
-0.0664899
-0.0673844
-0.0684108
-0.0695892
-0.0709435
-0.0725016
-0.0742919
-0.0763433
-0.0786869
-0.0813524
-0.0843664
-0.0877434
-0.091485
-0.0955605
-0.0999197
-0.104507
-0.109239
-0.11403
-0.118918
-0.123497
-0.127764
-0.132601
-0.13597
-0.0631619
-0.0633875
-0.0635787
-0.063741
-0.0638873
-0.0640076
-0.0640794
-0.0640996
-0.0640765
-0.0640314
-0.0639787
-0.063934
-0.0639006
-0.0638844
-0.0638816
-0.0638947
-0.063918
-0.0639539
-0.0639991
-0.0640574
-0.0641262
-0.0642109
-0.0643107
-0.0644293
-0.0645684
-0.064731
-0.0649188
-0.0651349
-0.0653822
-0.0656641
-0.0659843
-0.0663461
-0.066752
-0.0672112
-0.0677286
-0.0683167
-0.0689877
-0.0697532
-0.0706301
-0.0716391
-0.0728005
-0.0741389
-0.0756829
-0.0774622
-0.0795072
-0.0818508
-0.0845252
-0.0875593
-0.0909705
-0.0947644
-0.0989119
-0.103362
-0.108056
-0.112912
-0.11785
-0.122907
-0.127663
-0.132121
-0.13713
-0.140661
-0.0669189
-0.0671421
-0.0673298
-0.0674876
-0.0676286
-0.0677423
-0.0678054
-0.0678152
-0.0677801
-0.0677222
-0.0676565
-0.0675987
-0.0675526
-0.0675238
-0.0675089
-0.06751
-0.0675214
-0.0675452
-0.0675783
-0.0676245
-0.067681
-0.0677535
-0.0678409
-0.0679473
-0.0680742
-0.0682246
-0.0684003
-0.0686042
-0.0688392
-0.0691086
-0.069416
-0.0697643
-0.0701576
-0.0706004
-0.0711031
-0.0716747
-0.0723284
-0.0730758
-0.0739343
-0.0749247
-0.0760678
-0.0773888
-0.0789173
-0.0806838
-0.0827205
-0.0850623
-0.0877435
-0.090796
-0.0942395
-0.0980842
-0.102302
-0.106843
-0.111643
-0.116623
-0.121707
-0.126936
-0.131871
-0.136523
-0.141707
-0.145405
-0.0708784
-0.0710994
-0.0712779
-0.0714207
-0.071541
-0.0716318
-0.0716701
-0.0716562
-0.0715978
-0.0715191
-0.0714333
-0.0713581
-0.0712949
-0.0712507
-0.0712203
-0.0712069
-0.0712036
-0.0712134
-0.0712325
-0.0712651
-0.0713082
-0.0713677
-0.0714422
-0.0715358
-0.0716502
-0.0717881
-0.0719513
-0.0721426
-0.0723651
-0.0726216
-0.0729158
-0.0732506
-0.073628
-0.0740573
-0.0745427
-0.075097
-0.0757324
-0.0764604
-0.0772985
-0.0782681
-0.0793903
-0.080691
-0.0822008
-0.0839512
-0.0859763
-0.0883127
-0.0909975
-0.0940649
-0.0975378
-0.10143
-0.105716
-0.110345
-0.115249
-0.120353
-0.125583
-0.130985
-0.136102
-0.140952
-0.146313
-0.150182
-0.0746286
-0.0748535
-0.0750407
-0.075194
-0.0753265
-0.0754267
-0.0754722
-0.0754609
-0.0754029
-0.0753212
-0.0752313
-0.0751495
-0.0750793
-0.0750265
-0.074987
-0.0749633
-0.0749493
-0.0749476
-0.0749549
-0.0749753
-0.075006
-0.0750528
-0.0751146
-0.0751956
-0.0752973
-0.0754226
-0.0755733
-0.075752
-0.0759616
-0.076205
-0.0764856
-0.076806
-0.0771697
-0.077581
-0.0780501
-0.0785861
-0.0792022
-0.0799097
-0.0807264
-0.081674
-0.082774
-0.0840528
-0.0855421
-0.0872746
-0.0892859
-0.091615
-0.0943009
-0.0973811
-0.100881
-0.104819
-0.10917
-0.113886
-0.118894
-0.12412
-0.129497
-0.135071
-0.140373
-0.145425
-0.150965
-0.155008
-0.0788029
-0.0790185
-0.0791887
-0.0793202
-0.079426
-0.0794985
-0.0795146
-0.0794755
-0.07939
-0.0792835
-0.0791699
-0.0790673
-0.0789769
-0.0789059
-0.0788486
-0.0788085
-0.0787784
-0.0787615
-0.0787542
-0.0787607
-0.0787777
-0.0788114
-0.0788602
-0.0789285
-0.0790175
-0.0791302
-0.0792682
-0.0794341
-0.0796308
-0.0798608
-0.0801277
-0.0804338
-0.0807806
-0.0811775
-0.081628
-0.082145
-0.0827407
-0.0834261
-0.0842193
-0.0851424
-0.0862173
-0.0874713
-0.0889367
-0.0906478
-0.0926418
-0.0949597
-0.0976433
-0.100732
-0.104256
-0.108236
-0.112649
-0.117447
-0.122557
-0.127905
-0.133429
-0.139177
-0.144665
-0.149922
-0.155642
-0.159863
-0.0827111
-0.0829297
-0.083108
-0.0832502
-0.0833686
-0.0834513
-0.0834752
-0.0834389
-0.0833536
-0.0832434
-0.0831249
-0.0830147
-0.0829164
-0.0828357
-0.0827686
-0.0827175
-0.0826761
-0.0826473
-0.0826277
-0.0826215
-0.0826257
-0.0826464
-0.0826823
-0.0827375
-0.0828136
-0.0829134
-0.0830385
-0.0831913
-0.0833747
-0.0835913
-0.083844
-0.0841351
-0.0844678
-0.0848457
-0.0852787
-0.0857757
-0.0863498
-0.087012
-0.0877805
-0.0886778
-0.0897262
-0.0909534
-0.0923931
-0.0940807
-0.0960552
-0.0983595
-0.101038
-0.104134
-0.107678
-0.111697
-0.11617
-0.121049
-0.126259
-0.131727
-0.137397
-0.143319
-0.148995
-0.154462
-0.160362
-0.164762
-0.087093
-0.0873015
-0.087461
-0.0875789
-0.0876677
-0.0877198
-0.0877112
-0.0876441
-0.0875282
-0.0873903
-0.087245
-0.0871112
-0.0869899
-0.0868886
-0.0868013
-0.0867316
-0.0866721
-0.0866263
-0.0865903
-0.0865686
-0.0865577
-0.0865639
-0.0865856
-0.0866269
-0.0866894
-0.0867756
-0.0868872
-0.0870266
-0.0871964
-0.087399
-0.0876374
-0.0879137
-0.0882287
-0.0885913
-0.0890043
-0.0894803
-0.0900316
-0.0906688
-0.0914105
-0.0922795
-0.0932983
-0.0944956
-0.0959061
-0.0975665
-0.0995176
-0.101804
-0.104474
-0.107572
-0.111134
-0.115188
-0.119717
-0.124672
-0.129979
-0.135567
-0.141382
-0.147479
-0.153345
-0.159023
-0.165106
-0.169687
-0.0911482
-0.0913621
-0.0915339
-0.0916676
-0.0917745
-0.0918419
-0.0918458
-0.0917854
-0.0916728
-0.0915334
-0.0913848
-0.0912439
-0.0911148
-0.0910032
-0.0909052
-0.0908231
-0.0907507
-0.0906907
-0.0906403
-0.0906035
-0.0905775
-0.0905684
-0.090575
-0.0906013
-0.090649
-0.0907206
-0.0908179
-0.090943
-0.0910984
-0.0912865
-0.0915098
-0.0917702
-0.0920699
-0.0924123
-0.0928062
-0.0932603
-0.0937875
-0.0943987
-0.0951123
-0.0959515
-0.0969392
-0.0981048
-0.099484
-0.101115
-0.10304
-0.105307
-0.107965
-0.111062
-0.114638
-0.118724
-0.123305
-0.128335
-0.133738
-0.139443
-0.145403
-0.151675
-0.157732
-0.163625
-0.169892
-0.174655
-0.0956633
-0.0958678
-0.0960263
-0.0961454
-0.0962353
-0.0962851
-0.0962687
-0.0961875
-0.0960518
-0.0958896
-0.0957167
-0.0955527
-0.0953997
-0.0952651
-0.0951438
-0.0950395
-0.0949452
-0.0948642
-0.0947936
-0.0947375
-0.0946928
-0.0946659
-0.0946553
-0.0946648
-0.0946963
-0.0947521
-0.0948338
-0.0949434
-0.0950835
-0.095256
-0.0954636
-0.0957077
-0.0959884
-0.0963142
-0.0966863
-0.0971175
-0.0976193
-0.0982024
-0.0988855
-0.0996924
-0.100646
-0.101777
-0.103121
-0.104719
-0.106614
-0.108857
-0.111499
-0.114591
-0.118176
-0.12229
-0.12692
-0.13202
-0.137515
-0.143336
-0.149439
-0.155886
-0.162136
-0.168246
-0.174699
-0.179649
-0.100183
-0.100389
-0.100546
-0.10066
-0.100742
-0.100781
-0.10075
-0.100651
-0.100496
-0.100313
-0.10012
-0.0999349
-0.0997619
-0.0996075
-0.0994674
-0.0993442
-0.0992313
-0.0991315
-0.0990422
-0.0989672
-0.0989037
-0.0988581
-0.0988291
-0.0988205
-0.0988344
-0.0988728
-0.0989376
-0.0990305
-0.099154
-0.09931
-0.0995005
-0.0997271
-0.0999911
-0.100295
-0.100646
-0.101053
-0.101528
-0.102082
-0.102733
-0.103506
-0.104424
-0.105518
-0.106826
-0.108388
-0.110251
-0.112467
-0.115089
-0.118174
-0.121765
-0.125902
-0.130577
-0.135745
-0.14133
-0.147265
-0.15351
-0.160132
-0.166576
-0.172906
-0.179547
-0.184687
-0.104787
-0.104995
-0.105153
-0.105266
-0.105346
-0.105379
-0.105339
-0.105228
-0.105058
-0.104859
-0.104646
-0.104441
-0.104247
-0.10407
-0.103908
-0.103762
-0.103626
-0.103504
-0.103393
-0.103297
-0.103213
-0.103147
-0.103098
-0.10307
-0.103066
-0.103085
-0.103132
-0.103207
-0.103313
-0.103451
-0.103624
-0.103832
-0.104075
-0.10436
-0.104687
-0.105068
-0.105515
-0.106037
-0.106655
-0.107391
-0.108271
-0.109325
-0.110592
-0.112115
-0.113942
-0.116126
-0.118725
-0.121797
-0.125389
-0.129546
-0.13426
-0.139491
-0.145163
-0.15121
-0.157596
-0.164392
-0.171031