/*--------------------------------*- C++ -*----------------------------------*\
  =========                 |
  \\      /  F ield         | OpenFOAM: The Open Source CFD Toolbox
   \\    /   O peration     | Website:  https://openfoam.org
    \\  /    A nd           | Version:  6.0
     \\/     M anipulation  |
\*---------------------------------------------------------------------------*/
FoamFile
{
    version     2.0;
    format      ascii;
    class       surfaceScalarField;
    location    "0.01";
    object      phi;
}
// * * * * * * * * * * * * * * * * * * * * * * * * * * * * * * * * * * * * * //

dimensions      [0 3 -1 0 0 0 0];

internalField   nonuniform List<scalar> 
26699
(
2.0069e-05
0.005201
5.7369e-11
4.016e-05
0.0051116
5.9692e-05
0.004935
7.8258e-05
0.0046741
9.5509e-05
0.0043332
0.00011113
0.0039182
0.00012485
0.0034361
0.00013643
0.0028953
0.00014565
0.0023049
0.00015233
0.0016752
0.00015634
0.0010168
0.00039144
0.00010711
2.0088e-05
0.0051809
1.154e-09
4.0199e-05
0.0050915
5.975e-05
0.0049155
7.8334e-05
0.0046555
9.56e-05
0.0043159
0.00011124
0.0039026
0.00012497
0.0034224
0.00013655
0.0028837
0.00014577
0.0022957
0.00015242
0.0016685
0.00015643
0.0010127
0.00039885
0.00014902
2.0093e-05
0.0051608
1.61e-09
4.021e-05
0.0050714
5.9765e-05
0.0048959
7.8352e-05
0.0046369
9.5622e-05
0.0042987
0.00011126
0.0038869
0.00012499
0.0034087
0.00013657
0.0028721
0.00014579
0.0022865
0.00015244
0.0016619
0.0001564
0.0010088
0.00039678
0.00015847
2.0093e-05
0.0051407
1.6202e-09
4.021e-05
0.0050513
5.9765e-05
0.0048764
7.8353e-05
0.0046183
9.5623e-05
0.0042814
0.00011126
0.0038713
0.00012499
0.0033949
0.00013657
0.0028606
0.00014579
0.0022773
0.00015244
0.0016552
0.00015637
0.0010049
0.00039266
0.00016049
2.0093e-05
0.0051206
1.6298e-09
4.021e-05
0.0050312
5.9766e-05
0.0048568
7.8354e-05
0.0045998
9.5623e-05
0.0042641
0.00011126
0.0038556
0.000125
0.0033812
0.00013658
0.002849
0.00014579
0.0022681
0.00015245
0.0016486
0.00015637
0.0010009
0.0003882
0.00016082
2.0093e-05
0.0051005
1.6389e-09
4.0211e-05
0.005011
5.9766e-05
0.0048373
7.8354e-05
0.0045812
9.5624e-05
0.0042469
0.00011127
0.00384
0.000125
0.0033675
0.00013658
0.0028374
0.00014579
0.0022589
0.00015246
0.0016419
0.00015638
0.00099701
0.00038381
0.00016077
2.0093e-05
0.0050804
1.6474e-09
4.0211e-05
0.0049909
5.9767e-05
0.0048177
7.8355e-05
0.0045626
9.5625e-05
0.0042296
0.00011127
0.0038243
0.000125
0.0033538
0.00013658
0.0028258
0.0001458
0.0022496
0.00015246
0.0016352
0.00015639
0.00099308
0.00037956
0.00016064
2.0094e-05
0.0050603
1.6554e-09
4.0211e-05
0.0049708
5.9767e-05
0.0047982
7.8356e-05
0.004544
9.5626e-05
0.0042123
0.00011127
0.0038087
0.000125
0.00334
0.00013658
0.0028143
0.0001458
0.0022404
0.00015247
0.0016286
0.00015641
0.00098914
0.00037547
0.0001605
2.0094e-05
0.0050402
1.663e-09
4.0212e-05
0.0049507
5.9768e-05
0.0047786
7.8356e-05
0.0045254
9.5627e-05
0.004195
0.00011127
0.0037931
0.000125
0.0033263
0.00013658
0.0028027
0.0001458
0.0022312
0.00015247
0.0016219
0.00015642
0.0009852
0.00037153
0.00016036
2.0094e-05
0.0050201
1.6703e-09
4.0212e-05
0.0049306
5.9768e-05
0.004759
7.8357e-05
0.0045068
9.5628e-05
0.0041778
0.00011127
0.0037774
0.000125
0.0033126
0.00013658
0.0027911
0.0001458
0.002222
0.00015248
0.0016152
0.00015644
0.00098124
0.00036773
0.00016023
2.0094e-05
0.005
1.6773e-09
4.0212e-05
0.0049105
5.9769e-05
0.0047395
7.8358e-05
0.0044882
9.5628e-05
0.0041605
0.00011127
0.0037618
0.000125
0.0032988
0.00013658
0.0027795
0.0001458
0.0022128
0.00015249
0.0016085
0.00015645
0.00097728
0.00036408
0.0001601
2.0094e-05
0.0049799
1.6842e-09
4.0213e-05
0.0048903
5.9769e-05
0.0047199
7.8358e-05
0.0044696
9.5629e-05
0.0041432
0.00011127
0.0037461
0.000125
0.0032851
0.00013659
0.0027679
0.0001458
0.0022035
0.00015249
0.0016018
0.00015646
0.0009733
0.00036055
0.00015999
2.0094e-05
0.0049598
1.691e-09
4.0213e-05
0.0048702
5.977e-05
0.0047004
7.8359e-05
0.004451
9.563e-05
0.004126
0.00011127
0.0037305
0.00012501
0.0032714
0.00013659
0.0027563
0.00014581
0.0021943
0.0001525
0.0015951
0.00015648
0.00096932
0.00035715
0.00015988
2.0095e-05
0.0049397
1.6979e-09
4.0213e-05
0.0048501
5.977e-05
0.0046808
7.836e-05
0.0044325
9.5631e-05
0.0041087
0.00011127
0.0037149
0.00012501
0.0032576
0.00013659
0.0027448
0.00014581
0.0021851
0.0001525
0.0015885
0.00015649
0.00096533
0.00035386
0.00015978
2.0095e-05
0.0049196
1.7049e-09
4.0214e-05
0.00483
5.9771e-05
0.0046613
7.836e-05
0.0044139
9.5632e-05
0.0040914
0.00011127
0.0036992
0.00012501
0.0032439
0.00013659
0.0027332
0.00014581
0.0021759
0.00015251
0.0015818
0.00015651
0.00096132
0.00035068
0.00015969
2.0095e-05
0.0048996
1.7121e-09
4.0214e-05
0.0048099
5.9772e-05
0.0046417
7.8361e-05
0.0043953
9.5633e-05
0.0040742
0.00011128
0.0036836
0.00012501
0.0032302
0.00013659
0.0027216
0.00014581
0.0021667
0.00015251
0.0015751
0.00015652
0.00095731
0.0003476
0.0001596
2.0095e-05
0.0048795
1.7196e-09
4.0214e-05
0.0047897
5.9772e-05
0.0046221
7.8362e-05
0.0043767
9.5634e-05
0.0040569
0.00011128
0.0036679
0.00012501
0.0032164
0.00013659
0.00271
0.00014582
0.0021574
0.00015251
0.0015684
0.00015653
0.00095329
0.00034462
0.00015952
2.0095e-05
0.0048594
1.7275e-09
4.0215e-05
0.0047696
5.9773e-05
0.0046026
7.8363e-05
0.0043581
9.5635e-05
0.0040396
0.00011128
0.0036523
0.00012501
0.0032027
0.00013659
0.0026984
0.00014582
0.0021482
0.00015252
0.0015617
0.00015655
0.00094926
0.00034173
0.00015944
2.0096e-05
0.0048393
1.7358e-09
4.0215e-05
0.0047495
5.9773e-05
0.004583
7.8363e-05
0.0043395
9.5636e-05
0.0040223
0.00011128
0.0036366
0.00012501
0.003189
0.0001366
0.0026869
0.00014582
0.002139
0.00015252
0.001555
0.00015656
0.00094523
0.00033892
0.00015937
2.0096e-05
0.0048192
1.7446e-09
4.0215e-05
0.0047294
5.9774e-05
0.0045635
7.8364e-05
0.0043209
9.5636e-05
0.0040051
0.00011128
0.003621
0.00012501
0.0031752
0.0001366
0.0026753
0.00014582
0.0021298
0.00015253
0.0015483
0.00015657
0.00094118
0.00033619
0.0001593
2.0096e-05
0.0047991
1.7539e-09
4.0216e-05
0.0047093
5.9774e-05
0.0045439
7.8365e-05
0.0043023
9.5637e-05
0.0039878
0.00011128
0.0036054
0.00012502
0.0031615
0.0001366
0.0026637
0.00014582
0.0021205
0.00015253
0.0015415
0.00015658
0.00093713
0.00033353
0.00015924
2.0096e-05
0.004779
1.7639e-09
4.0216e-05
0.0046891
5.9775e-05
0.0045244
7.8366e-05
0.0042837
9.5638e-05
0.0039705
0.00011128
0.0035897
0.00012502
0.0031477
0.0001366
0.0026521
0.00014583
0.0021113
0.00015254
0.0015348
0.00015659
0.00093307
0.00033095
0.00015918
2.0096e-05
0.0047589
1.7744e-09
4.0217e-05
0.004669
5.9776e-05
0.0045048
7.8366e-05
0.0042651
9.5639e-05
0.0039532
0.00011128
0.0035741
0.00012502
0.003134
0.0001366
0.0026405
0.00014583
0.0021021
0.00015254
0.0015281
0.0001566
0.00092901
0.00032843
0.00015912
2.0096e-05
0.0047388
1.7855e-09
4.0217e-05
0.0046489
5.9776e-05
0.0044852
7.8367e-05
0.0042466
9.564e-05
0.003936
0.00011128
0.0035584
0.00012502
0.0031203
0.0001366
0.0026289
0.00014583
0.0020929
0.00015254
0.0015214
0.00015662
0.00092494
0.00032597
0.00015907
2.0097e-05
0.0047187
1.7973e-09
4.0217e-05
0.0046288
5.9777e-05
0.0044657
7.8368e-05
0.004228
9.5641e-05
0.0039187
0.00011129
0.0035428
0.00012502
0.0031065
0.00013661
0.0026174
0.00014583
0.0020836
0.00015255
0.0015147
0.00015662
0.00092086
0.00032358
0.00015902
2.0097e-05
0.0046986
1.8096e-09
4.0218e-05
0.0046087
5.9777e-05
0.0044461
7.8369e-05
0.0042094
9.5642e-05
0.0039014
0.00011129
0.0035271
0.00012502
0.0030928
0.00013661
0.0026058
0.00014584
0.0020744
0.00015255
0.001508
0.00015663
0.00091677
0.00032123
0.00015898
2.0097e-05
0.0046785
1.8226e-09
4.0218e-05
0.0045885
5.9778e-05
0.0044266
7.837e-05
0.0041908
9.5643e-05
0.0038842
0.00011129
0.0035115
0.00012502
0.0030791
0.00013661
0.0025942
0.00014584
0.0020652
0.00015255
0.0015013
0.00015664
0.00091268
0.00031895
0.00015893
2.0097e-05
0.0046584
1.8362e-09
4.0219e-05
0.0045684
5.9779e-05
0.004407
7.837e-05
0.0041722
9.5644e-05
0.0038669
0.00011129
0.0034958
0.00012503
0.0030653
0.00013661
0.0025826
0.00014584
0.0020559
0.00015256
0.0014946
0.00015665
0.00090859
0.00031671
0.00015889
2.0097e-05
0.0046383
1.8503e-09
4.0219e-05
0.0045483
5.9779e-05
0.0043874
7.8371e-05
0.0041536
9.5645e-05
0.0038496
0.00011129
0.0034802
0.00012503
0.0030516
0.00013661
0.002571
0.00014584
0.0020467
0.00015256
0.0014878
0.00015666
0.00090449
0.00031451
0.00015885
2.0098e-05
0.0046182
1.8649e-09
4.0219e-05
0.0045282
5.978e-05
0.0043679
7.8372e-05
0.004135
9.5647e-05
0.0038323
0.00011129
0.0034646
0.00012503
0.0030379
0.00013661
0.0025594
0.00014585
0.0020375
0.00015257
0.0014811
0.00015667
0.00090039
0.00031237
0.00015882
2.0098e-05
0.0045981
1.8801e-09
4.022e-05
0.0045081
5.9781e-05
0.0043483
7.8373e-05
0.0041164
9.5648e-05
0.0038151
0.00011129
0.0034489
0.00012503
0.0030241
0.00013662
0.0025478
0.00014585
0.0020283
0.00015257
0.0014744
0.00015668
0.00089628
0.00031026
0.00015878
2.0098e-05
0.004578
1.8956e-09
4.022e-05
0.0044879
5.9781e-05
0.0043288
7.8374e-05
0.0040978
9.5649e-05
0.0037978
0.00011129
0.0034333
0.00012503
0.0030104
0.00013662
0.0025363
0.00014585
0.002019
0.00015257
0.0014677
0.00015668
0.00089217
0.00030819
0.00015875
2.0098e-05
0.0045579
1.9116e-09
4.0221e-05
0.0044678
5.9782e-05
0.0043092
7.8375e-05
0.0040792
9.565e-05
0.0037805
0.0001113
0.0034176
0.00012503
0.0029966
0.00013662
0.0025247
0.00014585
0.0020098
0.00015258
0.0014609
0.00015669
0.00088806
0.00030616
0.00015872
2.0099e-05
0.0045378
1.928e-09
4.0221e-05
0.0044477
5.9783e-05
0.0042896
7.8376e-05
0.0040606
9.5651e-05
0.0037632
0.0001113
0.003402
0.00012503
0.0029829
0.00013662
0.0025131
0.00014586
0.0020006
0.00015258
0.0014542
0.0001567
0.00088394
0.00030416
0.00015869
2.0099e-05
0.0045177
1.9446e-09
4.0222e-05
0.0044276
5.9783e-05
0.0042701
7.8376e-05
0.004042
9.5652e-05
0.003746
0.0001113
0.0033863
0.00012504
0.0029692
0.00013662
0.0025015
0.00014586
0.0019913
0.00015258
0.0014475
0.0001567
0.00087982
0.0003022
0.00015867
2.0099e-05
0.0044976
1.9616e-09
4.0222e-05
0.0044074
5.9784e-05
0.0042505
7.8377e-05
0.0040234
9.5653e-05
0.0037287
0.0001113
0.0033707
0.00012504
0.0029554
0.00013663
0.0024899
0.00014586
0.0019821
0.00015259
0.0014408
0.00015671
0.0008757
0.00030027
0.00015864
2.0099e-05
0.0044775
1.9787e-09
4.0222e-05
0.0043873
5.9785e-05
0.0042309
7.8378e-05
0.0040049
9.5654e-05
0.0037114
0.0001113
0.003355
0.00012504
0.0029417
0.00013663
0.0024783
0.00014586
0.0019729
0.00015259
0.001434
0.00015672
0.00087157
0.00029837
0.00015862
2.0099e-05
0.0044574
1.996e-09
4.0223e-05
0.0043672
5.9785e-05
0.0042114
7.8379e-05
0.0039863
9.5656e-05
0.0036941
0.0001113
0.0033394
0.00012504
0.002928
0.00013663
0.0024667
0.00014587
0.0019636
0.00015259
0.0014273
0.00015672
0.00086744
0.0002965
0.00015859
2.01e-05
0.0044373
2.0134e-09
4.0223e-05
0.0043471
5.9786e-05
0.0041918
7.838e-05
0.0039677
9.5657e-05
0.0036768
0.0001113
0.0033237
0.00012504
0.0029142
0.00013663
0.0024551
0.00014587
0.0019544
0.0001526
0.0014206
0.00015673
0.00086331
0.00029465
0.00015857
2.01e-05
0.0044172
2.0309e-09
4.0224e-05
0.0043269
5.9787e-05
0.0041723
7.8381e-05
0.0039491
9.5658e-05
0.0036596
0.00011131
0.0033081
0.00012504
0.0029005
0.00013663
0.0024436
0.00014587
0.0019451
0.0001526
0.0014139
0.00015673
0.00085918
0.00029283
0.00015855
2.01e-05
0.0043971
2.0484e-09
4.0224e-05
0.0043068
5.9787e-05
0.0041527
7.8382e-05
0.0039305
9.5659e-05
0.0036423
0.00011131
0.0032924
0.00012505
0.0028867
0.00013664
0.002432
0.00014587
0.0019359
0.0001526
0.0014071
0.00015674
0.00085505
0.00029104
0.00015853
2.01e-05
0.004377
2.0658e-09
4.0225e-05
0.0042867
5.9788e-05
0.0041331
7.8383e-05
0.0039119
9.566e-05
0.003625
0.00011131
0.0032768
0.00012505
0.002873
0.00013664
0.0024204
0.00014588
0.0019267
0.00015261
0.0014004
0.00015674
0.00085092
0.00028926
0.00015852
2.0101e-05
0.0043569
2.0832e-09
4.0225e-05
0.0042666
5.9789e-05
0.0041136
7.8384e-05
0.0038933
9.5662e-05
0.0036077
0.00011131
0.0032611
0.00012505
0.0028593
0.00013664
0.0024088
0.00014588
0.0019174
0.00015261
0.0013937
0.00015675
0.00084678
0.00028751
0.0001585
2.0101e-05
0.0043368
2.1005e-09
4.0226e-05
0.0042464
5.979e-05
0.004094
7.8385e-05
0.0038747
9.5663e-05
0.0035905
0.00011131
0.0032455
0.00012505
0.0028455
0.00013664
0.0023972
0.00014588
0.0019082
0.00015261
0.0013869
0.00015675
0.00084264
0.00028578
0.00015848
2.0101e-05
0.0043167
2.1177e-09
4.0226e-05
0.0042263
5.979e-05
0.0040744
7.8386e-05
0.0038561
9.5664e-05
0.0035732
0.00011131
0.0032299
0.00012505
0.0028318
0.00013664
0.0023856
0.00014588
0.001899
0.00015262
0.0013802
0.00015676
0.0008385
0.00028407
0.00015847
2.0101e-05
0.0042966
2.1347e-09
4.0227e-05
0.0042062
5.9791e-05
0.0040549
7.8387e-05
0.0038375
9.5666e-05
0.0035559
0.00011131
0.0032142
0.00012506
0.002818
0.00013665
0.002374
0.00014589
0.0018897
0.00015262
0.0013735
0.00015676
0.00083436
0.00028238
0.00015845
2.0102e-05
0.0042764
2.1515e-09
4.0227e-05
0.0041861
5.9792e-05
0.0040353
7.8388e-05
0.0038189
9.5667e-05
0.0035386
0.00011132
0.0031986
0.00012506
0.0028043
0.00013665
0.0023624
0.00014589
0.0018805
0.00015262
0.0013667
0.00015676
0.00083022
0.0002807
0.00015844
2.0102e-05
0.0042563
2.168e-09
4.0228e-05
0.0041659
5.9793e-05
0.0040157
7.8389e-05
0.0038003
9.5668e-05
0.0035213
0.00011132
0.0031829
0.00012506
0.0027906
0.00013665
0.0023508
0.00014589
0.0018712
0.00015263
0.00136
0.00015677
0.00082608
0.00027904
0.00015843
2.0102e-05
0.0042362
2.1843e-09
4.0228e-05
0.0041458
5.9793e-05
0.0039962
7.839e-05
0.0037817
9.567e-05
0.0035041
0.00011132
0.0031673
0.00012506
0.0027768
0.00013665
0.0023392
0.00014589
0.001862
0.00015263
0.0013532
0.00015677
0.00082194
0.00027739
0.00015842
2.0103e-05
0.0042161
2.2004e-09
4.0229e-05
0.0041257
5.9794e-05
0.0039766
7.8391e-05
0.0037631
9.5671e-05
0.0034868
0.00011132
0.0031516
0.00012506
0.0027631
0.00013666
0.0023276
0.0001459
0.0018527
0.00015263
0.0013465
0.00015678
0.0008178
0.00027576
0.00015841
2.0103e-05
0.004196
2.2161e-09
4.0229e-05
0.0041056
5.9795e-05
0.0039571
7.8392e-05
0.0037445
9.5672e-05
0.0034695
0.00011132
0.003136
0.00012507
0.0027493
0.00013666
0.002316
0.0001459
0.0018435
0.00015264
0.0013398
0.00015678
0.00081366
0.00027415
0.0001584
2.0103e-05
0.0041759
2.2316e-09
4.023e-05
0.0040854
5.9796e-05
0.0039375
7.8393e-05
0.0037259
9.5674e-05
0.0034522
0.00011132
0.0031203
0.00012507
0.0027356
0.00013666
0.0023045
0.0001459
0.0018343
0.00015264
0.001333
0.00015678
0.00080952
0.00027254
0.00015839
2.0103e-05
0.0041558
2.2468e-09
4.0231e-05
0.0040653
5.9797e-05
0.0039179
7.8395e-05
0.0037073
9.5675e-05
0.0034349
0.00011133
0.0031047
0.00012507
0.0027218
0.00013666
0.0022929
0.00014591
0.001825
0.00015264
0.0013263
0.00015679
0.00080538
0.00027095
0.00015838
2.0104e-05
0.0041357
2.2617e-09
4.0231e-05
0.0040452
5.9798e-05
0.0038984
7.8396e-05
0.0036887
9.5677e-05
0.0034177
0.00011133
0.003089
0.00012507
0.0027081
0.00013667
0.0022813
0.00014591
0.0018158
0.00015265
0.0013196
0.00015679
0.00080123
0.00026937
0.00015837
2.0104e-05
0.0041156
2.2763e-09
4.0232e-05
0.0040251
5.9799e-05
0.0038788
7.8397e-05
0.0036701
9.5678e-05
0.0034004
0.00011133
0.0030733
0.00012507
0.0026944
0.00013667
0.0022697
0.00014591
0.0018065
0.00015265
0.0013128
0.00015679
0.00079709
0.0002678
0.00015836
2.0104e-05
0.0040955
2.2906e-09
4.0232e-05
0.0040049
5.9799e-05
0.0038592
7.8398e-05
0.0036515
9.5679e-05
0.0033831
0.00011133
0.0030577
0.00012508
0.0026806
0.00013667
0.0022581
0.00014591
0.0017973
0.00015265
0.0013061
0.0001568
0.00079295
0.00026625
0.00015835
2.0105e-05
0.0040754
2.3046e-09
4.0233e-05
0.0039848
5.98e-05
0.0038397
7.8399e-05
0.0036329
9.5681e-05
0.0033658
0.00011133
0.003042
0.00012508
0.0026669
0.00013667
0.0022465
0.00014592
0.001788
0.00015266
0.0012993
0.0001568
0.00078881
0.0002647
0.00015835
2.0105e-05
0.0040553
2.3184e-09
4.0233e-05
0.0039647
5.9801e-05
0.0038201
7.84e-05
0.0036143
9.5682e-05
0.0033485
0.00011133
0.0030264
0.00012508
0.0026531
0.00013667
0.0022349
0.00014592
0.0017788
0.00015266
0.0012926
0.0001568
0.00078467
0.00026316
0.00015834
2.0105e-05
0.0040352
2.3319e-09
4.0234e-05
0.0039445
5.9802e-05
0.0038005
7.8402e-05
0.0035957
9.5684e-05
0.0033313
0.00011134
0.0030107
0.00012508
0.0026394
0.00013668
0.0022233
0.00014592
0.0017695
0.00015266
0.0012859
0.0001568
0.00078053
0.00026163
0.00015833
2.0105e-05
0.0040151
2.3453e-09
4.0235e-05
0.0039244
5.9803e-05
0.0037809
7.8403e-05
0.0035771
9.5686e-05
0.003314
0.00011134
0.0029951
0.00012508
0.0026256
0.00013668
0.0022117
0.00014593
0.0017603
0.00015267
0.0012791
0.00015681
0.00077639
0.00026011
0.00015833
2.0106e-05
0.003995
2.3585e-09
4.0235e-05
0.0039043
5.9804e-05
0.0037614
7.8404e-05
0.0035585
9.5687e-05
0.0032967
0.00011134
0.0029794
0.00012509
0.0026119
0.00013668
0.0022001
0.00014593
0.0017511
0.00015267
0.0012724
0.00015681
0.00077225
0.00025859
0.00015832
2.0106e-05
0.0039749
2.3715e-09
4.0236e-05
0.0038842
5.9805e-05
0.0037418
7.8405e-05
0.0035399
9.5689e-05
0.0032794
0.00011134
0.0029638
0.00012509
0.0025981
0.00013669
0.0021885
0.00014593
0.0017418
0.00015267
0.0012656
0.00015681
0.00076811
0.00025709
0.00015832
2.0106e-05
0.0039547
2.3845e-09
4.0236e-05
0.003864
5.9806e-05
0.0037222
7.8407e-05
0.0035213
9.569e-05
0.0032621
0.00011134
0.0029481
0.00012509
0.0025844
0.00013669
0.0021769
0.00014594
0.0017326
0.00015268
0.0012589
0.00015681
0.00076397
0.00025559
0.00015831
2.0107e-05
0.0039346
2.3974e-09
4.0237e-05
0.0038439
5.9807e-05
0.0037027
7.8408e-05
0.0035027
9.5692e-05
0.0032448
0.00011135
0.0029325
0.00012509
0.0025706
0.00013669
0.0021653
0.00014594
0.0017233
0.00015268
0.0012521
0.00015682
0.00075984
0.00025409
0.00015831
2.0107e-05
0.0039145
2.4103e-09
4.0238e-05
0.0038238
5.9808e-05
0.0036831
7.8409e-05
0.0034841
9.5694e-05
0.0032276
0.00011135
0.0029168
0.0001251
0.0025569
0.00013669
0.0021537
0.00014594
0.0017141
0.00015268
0.0012454
0.00015682
0.0007557
0.0002526
0.00015831
2.0107e-05
0.0038944
2.4233e-09
4.0238e-05
0.0038036
5.9809e-05
0.0036635
7.8411e-05
0.0034655
9.5695e-05
0.0032103
0.00011135
0.0029012
0.0001251
0.0025432
0.0001367
0.0021421
0.00014594
0.0017048
0.00015269
0.0012387
0.00015682
0.00075157
0.00025112
0.0001583
2.0108e-05
0.0038743
2.4364e-09
4.0239e-05
0.0037835
5.981e-05
0.003644
7.8412e-05
0.0034469
9.5697e-05
0.003193
0.00011135
0.0028855
0.0001251
0.0025294
0.0001367
0.0021305
0.00014595
0.0016956
0.00015269
0.0012319
0.00015683
0.00074743
0.00024965
0.0001583
2.0108e-05
0.0038542
2.4497e-09
4.024e-05
0.0037634
5.9811e-05
0.0036244
7.8413e-05
0.0034283
9.5699e-05
0.0031757
0.00011135
0.0028699
0.0001251
0.0025157
0.0001367
0.0021189
0.00014595
0.0016863
0.00015269
0.0012252
0.00015683
0.0007433
0.00024818
0.0001583
2.0108e-05
0.0038341
2.4633e-09
4.024e-05
0.0037432
5.9812e-05
0.0036048
7.8415e-05
0.0034097
9.57e-05
0.0031584
0.00011136
0.0028542
0.0001251
0.0025019
0.0001367
0.0021073
0.00014595
0.0016771
0.0001527
0.0012184
0.00015683
0.00073916
0.00024671
0.0001583
2.0109e-05
0.003814
2.4772e-09
4.0241e-05
0.0037231
5.9813e-05
0.0035852
7.8416e-05
0.0033911
9.5702e-05
0.0031411
0.00011136
0.0028385
0.00012511
0.0024882
0.00013671
0.0020957
0.00014596
0.0016678
0.0001527
0.0012117
0.00015683
0.00073503
0.00024525
0.00015829
2.0109e-05
0.0037939
2.4915e-09
4.0242e-05
0.003703
5.9814e-05
0.0035657
7.8418e-05
0.0033725
9.5704e-05
0.0031238
0.00011136
0.0028229
0.00012511
0.0024744
0.00013671
0.0020841
0.00014596
0.0016586
0.0001527
0.0012049
0.00015684
0.0007309
0.0002438
0.00015829
2.0109e-05
0.0037738
2.5063e-09
4.0242e-05
0.0036828
5.9815e-05
0.0035461
7.8419e-05
0.0033539
9.5706e-05
0.0031066
0.00011136
0.0028072
0.00012511
0.0024607
0.00013671
0.0020725
0.00014596
0.0016493
0.00015271
0.0011982
0.00015684
0.00072677
0.00024235
0.00015829
2.011e-05
0.0037536
2.5216e-09
4.0243e-05
0.0036627
5.9816e-05
0.0035265
7.842e-05
0.0033353
9.5708e-05
0.0030893
0.00011137
0.0027916
0.00012511
0.0024469
0.00013672
0.0020609
0.00014597
0.0016401
0.00015271
0.0011915
0.00015684
0.00072264
0.0002409
0.00015829
2.011e-05
0.0037335
2.5376e-09
4.0244e-05
0.0036426
5.9817e-05
0.003507
7.8422e-05
0.0033167
9.571e-05
0.003072
0.00011137
0.0027759
0.00012512
0.0024332
0.00013672
0.0020493
0.00014597
0.0016308
0.00015271
0.0011847
0.00015684
0.00071851
0.00023945
0.00015829
2.011e-05
0.0037134
2.5543e-09
4.0245e-05
0.0036224
5.9819e-05
0.0034874
7.8423e-05
0.0032981
9.5711e-05
0.0030547
0.00011137
0.0027603
0.00012512
0.0024194
0.00013672
0.0020377
0.00014597
0.0016216
0.00015272
0.001178
0.00015685
0.00071438
0.00023801
0.00015829
2.0111e-05
0.0036933
2.5717e-09
4.0245e-05
0.0036023
5.982e-05
0.0034678
7.8425e-05
0.0032795
9.5713e-05
0.0030374
0.00011137
0.0027446
0.00012512
0.0024057
0.00013673
0.0020261
0.00014598
0.0016123
0.00015272
0.0011712
0.00015685
0.00071025
0.00023658
0.00015828
2.0111e-05
0.0036732
2.5901e-09
4.0246e-05
0.0035822
5.9821e-05
0.0034482
7.8427e-05
0.0032609
9.5715e-05
0.0030201
0.00011137
0.0027289
0.00012513
0.0023919
0.00013673
0.0020145
0.00014598
0.0016031
0.00015272
0.0011645
0.00015685
0.00070613
0.00023515
0.00015828
2.0112e-05
0.0036531
2.6093e-09
4.0247e-05
0.003562
5.9822e-05
0.0034287
7.8428e-05
0.0032423
9.5717e-05
0.0030028
0.00011138
0.0027133
0.00012513
0.0023782
0.00013673
0.0020029
0.00014598
0.0015938
0.00015273
0.0011577
0.00015685
0.000702
0.00023372
0.00015828
2.0112e-05
0.003633
2.6296e-09
4.0248e-05
0.0035419
5.9823e-05
0.0034091
7.843e-05
0.0032237
9.5719e-05
0.0029855
0.00011138
0.0026976
0.00012513
0.0023644
0.00013673
0.0019913
0.00014599
0.0015846
0.00015273
0.001151
0.00015686
0.00069788
0.00023229
0.00015828
2.0112e-05
0.0036128
2.651e-09
4.0248e-05
0.0035218
5.9824e-05
0.0033895
7.8431e-05
0.0032051
9.5721e-05
0.0029682
0.00011138
0.002682
0.00012513
0.0023507
0.00013674
0.0019797
0.00014599
0.0015753
0.00015273
0.0011443
0.00015686
0.00069375
0.00023087
0.00015828
2.0113e-05
0.0035927
2.6734e-09
4.0249e-05
0.0035016
5.9826e-05
0.0033699
7.8433e-05
0.0031865
9.5723e-05
0.002951
0.00011138
0.0026663
0.00012514
0.0023369
0.00013674
0.0019681
0.00014599
0.001566
0.00015274
0.0011375
0.00015686
0.00068963
0.00022944
0.00015828
2.0113e-05
0.0035726
2.6971e-09
4.025e-05
0.0034815
5.9827e-05
0.0033503
7.8435e-05
0.0031678
9.5726e-05
0.0029337
0.00011139
0.0026506
0.00012514
0.0023231
0.00013674
0.0019565
0.000146
0.0015568
0.00015274
0.0011308
0.00015686
0.0006855
0.00022803
0.00015828
2.0114e-05
0.0035525
2.7219e-09
4.0251e-05
0.0034613
5.9828e-05
0.0033308
7.8436e-05
0.0031492
9.5728e-05
0.0029164
0.00011139
0.002635
0.00012514
0.0023094
0.00013675
0.0019449
0.000146
0.0015475
0.00015275
0.001124
0.00015687
0.00068138
0.00022661
0.00015828
2.0114e-05
0.0035324
2.748e-09
4.0252e-05
0.0034412
5.9829e-05
0.0033112
7.8438e-05
0.0031306
9.573e-05
0.0028991
0.00011139
0.0026193
0.00012515
0.0022956
0.00013675
0.0019333
0.00014601
0.0015383
0.00015275
0.0011173
0.00015687
0.00067726
0.00022519
0.00015829
2.0114e-05
0.0035123
2.7754e-09
4.0253e-05
0.0034211
5.9831e-05
0.0032916
7.844e-05
0.003112
9.5732e-05
0.0028818
0.00011139
0.0026036
0.00012515
0.0022819
0.00013675
0.0019217
0.00014601
0.001529
0.00015275
0.0011105
0.00015687
0.00067314
0.00022378
0.00015829
2.0115e-05
0.0034921
2.804e-09
4.0254e-05
0.0034009
5.9832e-05
0.003272
7.8442e-05
0.0030934
9.5734e-05
0.0028645
0.0001114
0.002588
0.00012515
0.0022681
0.00013676
0.0019101
0.00014601
0.0015198
0.00015276
0.0011038
0.00015688
0.00066902
0.00022237
0.00015829
2.0115e-05
0.003472
2.8339e-09
4.0254e-05
0.0033808
5.9833e-05
0.0032525
7.8443e-05
0.0030748
9.5737e-05
0.0028472
0.0001114
0.0025723
0.00012516
0.0022544
0.00013676
0.0018985
0.00014602
0.0015105
0.00015276
0.001097
0.00015688
0.0006649
0.00022096
0.00015829
2.0116e-05
0.0034519
2.865e-09
4.0255e-05
0.0033607
5.9835e-05
0.0032329
7.8445e-05
0.0030562
9.5739e-05
0.0028299
0.0001114
0.0025567
0.00012516
0.0022406
0.00013677
0.0018868
0.00014602
0.0015013
0.00015276
0.0010903
0.00015688
0.00066078
0.00021956
0.00015829
2.0116e-05
0.0034318
2.8974e-09
4.0256e-05
0.0033405
5.9836e-05
0.0032133
7.8447e-05
0.0030376
9.5741e-05
0.0028126
0.00011141
0.002541
0.00012516
0.0022269
0.00013677
0.0018752
0.00014602
0.001492
0.00015277
0.0010836
0.00015689
0.00065666
0.00021815
0.00015829
2.0117e-05
0.0034117
2.9309e-09
4.0257e-05
0.0033204
5.9838e-05
0.0031937
7.8449e-05
0.003019
9.5744e-05
0.0027953
0.00011141
0.0025253
0.00012517
0.0022131
0.00013677
0.0018636
0.00014603
0.0014828
0.00015277
0.0010768
0.00015689
0.00065255
0.00021675
0.00015829
2.0117e-05
0.0033916
2.9656e-09
4.0258e-05
0.0033002
5.9839e-05
0.0031741
7.8451e-05
0.0030004
9.5746e-05
0.002778
0.00011141
0.0025097
0.00012517
0.0021993
0.00013678
0.001852
0.00014603
0.0014735
0.00015278
0.0010701
0.00015689
0.00064843
0.00021535
0.0001583
2.0118e-05
0.0033714
3.0013e-09
4.0259e-05
0.0032801
5.984e-05
0.0031546
7.8453e-05
0.0029817
9.5748e-05
0.0027607
0.00011141
0.002494
0.00012517
0.0021856
0.00013678
0.0018404
0.00014604
0.0014642
0.00015278
0.0010633
0.0001569
0.00064431
0.00021395
0.0001583
2.0118e-05
0.0033513
3.038e-09
4.026e-05
0.0032599
5.9842e-05
0.003135
7.8455e-05
0.0029631
9.5751e-05
0.0027434
0.00011142
0.0024783
0.00012518
0.0021718
0.00013678
0.0018288
0.00014604
0.001455
0.00015278
0.0010566
0.0001569
0.0006402
0.00021255
0.0001583
2.0119e-05
0.0033312
3.0755e-09
4.0261e-05
0.0032398
5.9843e-05
0.0031154
7.8457e-05
0.0029445
9.5753e-05
0.0027261
0.00011142
0.0024627
0.00012518
0.0021581
0.00013679
0.0018172
0.00014604
0.0014457
0.00015279
0.0010498
0.0001569
0.00063608
0.00021115
0.0001583
2.0119e-05
0.0033111
3.1138e-09
4.0262e-05
0.0032197
5.9845e-05
0.0030958
7.8459e-05
0.0029259
9.5756e-05
0.0027088
0.00011142
0.002447
0.00012518
0.0021443
0.00013679
0.0018056
0.00014605
0.0014365
0.00015279
0.0010431
0.00015691
0.00063197
0.00020975
0.0001583
2.012e-05
0.0032909
3.1528e-09
4.0263e-05
0.0031995
5.9846e-05
0.0030762
7.8461e-05
0.0029073
9.5759e-05
0.0026915
0.00011143
0.0024313
0.00012519
0.0021305
0.0001368
0.001794
0.00014605
0.0014272
0.0001528
0.0010363
0.00015691
0.00062786
0.00020836
0.00015831
2.012e-05
0.0032708
3.1923e-09
4.0264e-05
0.0031794
5.9848e-05
0.0030566
7.8463e-05
0.0028887
9.5761e-05
0.0026742
0.00011143
0.0024157
0.00012519
0.0021168
0.0001368
0.0017824
0.00014606
0.001418
0.0001528
0.0010296
0.00015692
0.00062374
0.00020696
0.00015831
2.0121e-05
0.0032507
3.2321e-09
4.0265e-05
0.0031592
5.985e-05
0.0030371
7.8465e-05
0.0028701
9.5764e-05
0.0026569
0.00011143
0.0024
0.00012519
0.002103
0.0001368
0.0017708
0.00014606
0.0014087
0.00015281
0.0010229
0.00015692
0.00061963
0.00020557
0.00015831
2.0121e-05
0.0032306
3.2723e-09
4.0266e-05
0.0031391
5.9851e-05
0.0030175
7.8468e-05
0.0028514
9.5767e-05
0.0026396
0.00011144
0.0023843
0.0001252
0.0020893
0.00013681
0.0017592
0.00014607
0.0013994
0.00015281
0.0010161
0.00015692
0.00061552
0.00020417
0.00015832
2.0122e-05
0.0032104
3.3126e-09
4.0268e-05
0.0031189
5.9853e-05
0.0029979
7.847e-05
0.0028328
9.5769e-05
0.0026223
0.00011144
0.0023687
0.0001252
0.0020755
0.00013681
0.0017475
0.00014607
0.0013902
0.00015282
0.0010094
0.00015693
0.00061141
0.00020278
0.00015832
2.0122e-05
0.0031903
3.3528e-09
4.0269e-05
0.0030988
5.9854e-05
0.0029783
7.8472e-05
0.0028142
9.5772e-05
0.002605
0.00011144
0.002353
0.0001252
0.0020617
0.00013682
0.0017359
0.00014608
0.0013809
0.00015282
0.0010026
0.00015693
0.00060729
0.00020139
0.00015832
2.0123e-05
0.0031702
3.393e-09
4.027e-05
0.0030786
5.9856e-05
0.0029587
7.8474e-05
0.0027956
9.5775e-05
0.0025877
0.00011145
0.0023373
0.00012521
0.002048
0.00013682
0.0017243
0.00014608
0.0013717
0.00015283
0.00099588
0.00015694
0.00060318
0.0002
0.00015833
2.0123e-05
0.0031501
3.4328e-09
4.0271e-05
0.0030585
5.9858e-05
0.0029391
7.8477e-05
0.002777
9.5778e-05
0.0025704
0.00011145
0.0023216
0.00012521
0.0020342
0.00013683
0.0017127
0.00014609
0.0013624
0.00015283
0.00098913
0.00015694
0.00059907
0.00019861
0.00015833
2.0124e-05
0.0031299
3.4723e-09
4.0272e-05
0.0030384
5.986e-05
0.0029195
7.8479e-05
0.0027583
9.5781e-05
0.0025531
0.00011145
0.002306
0.00012522
0.0020205
0.00013683
0.0017011
0.00014609
0.0013531
0.00015283
0.00098239
0.00015694
0.00059496
0.00019722
0.00015833
2.0125e-05
0.0031098
3.5112e-09
4.0273e-05
0.0030182
5.9861e-05
0.0029
7.8482e-05
0.0027397
9.5784e-05
0.0025358
0.00011146
0.0022903
0.00012522
0.0020067
0.00013684
0.0016895
0.0001461
0.0013439
0.00015284
0.00097564
0.00015695
0.00059085
0.00019583
0.00015834
2.0125e-05
0.0030897
3.5495e-09
4.0275e-05
0.0029981
5.9863e-05
0.0028804
7.8484e-05
0.0027211
9.5787e-05
0.0025185
0.00011146
0.0022746
0.00012523
0.0019929
0.00013684
0.0016779
0.0001461
0.0013346
0.00015284
0.0009689
0.00015695
0.00058674
0.00019444
0.00015834
2.0126e-05
0.0030696
3.5871e-09
4.0276e-05
0.0029779
5.9865e-05
0.0028608
7.8487e-05
0.0027025
9.579e-05
0.0025012
0.00011146
0.002259
0.00012523
0.0019792
0.00013684
0.0016662
0.00014611
0.0013254
0.00015285
0.00096216
0.00015696
0.00058264
0.00019306
0.00015835
2.0126e-05
0.0030494
3.624e-09
4.0277e-05
0.0029578
5.9867e-05
0.0028412
7.8489e-05
0.0026839
9.5793e-05
0.0024839
0.00011147
0.0022433
0.00012523
0.0019654
0.00013685
0.0016546
0.00014611
0.0013161
0.00015286
0.00095541
0.00015696
0.00057853
0.00019167
0.00015835
2.0127e-05
0.0030293
3.6601e-09
4.0278e-05
0.0029376
5.9869e-05
0.0028216
7.8492e-05
0.0026652
9.5797e-05
0.0024666
0.00011147
0.0022276
0.00012524
0.0019516
0.00013685
0.001643
0.00014612
0.0013068
0.00015286
0.00094867
0.00015697
0.00057442
0.00019028
0.00015836
2.0128e-05
0.0030092
3.6954e-09
4.028e-05
0.0029174
5.9871e-05
0.002802
7.8494e-05
0.0026466
9.58e-05
0.0024493
0.00011148
0.0022119
0.00012524
0.0019379
0.00013686
0.0016314
0.00014612
0.0012976
0.00015287
0.00094192
0.00015697
0.00057031
0.00018889
0.00015836
2.0128e-05
0.002989
3.7298e-09
4.0281e-05
0.0028973
5.9873e-05
0.0027824
7.8497e-05
0.002628
9.5803e-05
0.002432
0.00011148
0.0021963
0.00012525
0.0019241
0.00013686
0.0016198
0.00014613
0.0012883
0.00015287
0.00093518
0.00015698
0.0005662
0.00018751
0.00015837
2.0129e-05
0.0029689
3.7635e-09
4.0282e-05
0.0028771
5.9875e-05
0.0027628
7.85e-05
0.0026094
9.5807e-05
0.0024147
0.00011148
0.0021806
0.00012525
0.0019103
0.00013687
0.0016082
0.00014613
0.0012791