/*--------------------------------*- C++ -*----------------------------------*\
  =========                 |
  \\      /  F ield         | OpenFOAM: The Open Source CFD Toolbox
   \\    /   O peration     | Website:  https://openfoam.org
    \\  /    A nd           | Version:  6.0
     \\/     M anipulation  |
\*---------------------------------------------------------------------------*/
FoamFile
{
    version     2.0;
    format      ascii;
    class       volVectorField;
    location    "0.01";
    object      U;
}
// * * * * * * * * * * * * * * * * * * * * * * * * * * * * * * * * * * * * * //

dimensions      [0 1 -1 0 0 0 0];

internalField   nonuniform List<vector> 
13500
(
(1 -5.7407e-05 -6.5555e-17)
(1 -0.00017277 4.3915e-17)
(1.0001 -0.00028021 -1.8606e-16)
(1.0002 -0.000374 -1.254e-16)
(1.0003 -0.0004494 2.2897e-16)
(1.0005 -0.00050126 4.0568e-16)
(1.0006 -0.00052353 3.2967e-16)
(1.0008 -0.00051001 -4.8707e-17)
(1.0009 -0.00045503 1.6121e-16)
(1.0011 -0.00035782 2.9784e-17)
(0.99954 -4.7938e-06 1.8734e-16)
(1.0119 0.0051295 4.8091e-17)
(1 -0.00011899 4.0614e-17)
(1.0001 -0.00036718 -1.3337e-16)
(1.0002 -0.00058828 8.8858e-17)
(1.0004 -0.00077388 -4.9474e-18)
(1.0006 -0.00090775 -6.1097e-18)
(1.0009 -0.00098518 -4.8781e-16)
(1.0012 -0.00099539 -5.6942e-16)
(1.0014 -0.00093549 -2.7871e-16)
(1.0017 -0.00080234 -1.6089e-16)
(1.0018 -0.00059185 -1.4684e-17)
(0.99958 -2.415e-05 -8.878e-17)
(1.0147 0.010637 -2.9127e-17)
(1 -0.00013553 -5.2458e-17)
(1.0001 -0.0004206 2.6497e-16)
(1.0002 -0.00067119 4.6221e-17)
(1.0004 -0.00087891 1.4459e-16)
(1.0007 -0.001024 -5.2805e-17)
(1.001 -0.0011027 3.9077e-16)
(1.0013 -0.0011035 -8.0198e-17)
(1.0016 -0.001027 6.3286e-17)
(1.0018 -0.00087116 -1.9525e-16)
(1.0019 -0.00062446 2.2336e-16)
(0.99977 -2.7151e-05 -4.7003e-17)
(1.0135 0.011457 1.0449e-17)
(0.99999 -0.00013661 1.3714e-16)
(1.0001 -0.0004239 -2.569e-16)
(1.0002 -0.00067655 -2.1909e-16)
(1.0004 -0.00088611 -1.0143e-17)
(1.0007 -0.0010324 8.1523e-17)
(1.001 -0.001112 -1.0829e-17)
(1.0013 -0.0011132 7.8987e-16)
(1.0016 -0.0010359 1.1408e-16)
(1.0018 -0.00087726 2.3086e-16)
(1.0019 -0.00061923 -8.0913e-17)
(0.99995 -2.8875e-05 2.3089e-16)
(1.0124 0.010864 -4.7479e-17)
(0.99998 -0.0001377 -9.6363e-17)
(1.0001 -0.0004272 2.2203e-16)
(1.0002 -0.0006818 1.8651e-16)
(1.0004 -0.00089312 1.8507e-16)
(1.0007 -0.0010406 3.9976e-17)
(1.001 -0.001121 2.8726e-16)
(1.0013 -0.0011223 -3.5273e-16)
(1.0016 -0.0010443 2.3189e-17)
(1.0018 -0.00088315 -1.4161e-16)
(1.002 -0.00061505 -1.9289e-17)
(1.0001 -2.6875e-05 -5.8758e-17)
(1.0116 0.010337 1.3138e-17)
(0.99997 -0.00013879 9.7524e-17)
(1.0001 -0.00043053 -9.2048e-17)
(1.0002 -0.00068709 5.6968e-17)
(1.0004 -0.00090016 -3.6662e-16)
(1.0007 -0.0010489 -1.1687e-18)
(1.001 -0.0011301 -5.6865e-16)
(1.0013 -0.0011315 1.3551e-17)
(1.0016 -0.0010527 -1.8603e-16)
(1.0018 -0.00088921 5.3898e-17)
(1.002 -0.000612 -1.9447e-16)
(1.0003 -2.3364e-05 -1.4565e-16)
(1.0109 0.0097808 1.2754e-17)
(0.99997 -0.00013989 -1.6141e-17)
(1 -0.0004339 -1.101e-16)
(1.0002 -0.00069244 -4.6292e-17)
(1.0004 -0.00090729 2.7673e-16)
(1.0007 -0.0010573 -3.7029e-16)
(1.001 -0.0011393 2.176e-16)
(1.0013 -0.0011408 2.3602e-16)
(1.0016 -0.0010613 6.5427e-17)
(1.0018 -0.00089543 1.2061e-16)
(1.002 -0.00060999 1.0471e-16)
(1.0004 -1.9357e-05 6.3808e-17)
(1.0104 0.0092452 2.0486e-17)
(0.99996 -0.00014101 -3.332e-17)
(1 -0.00043731 -2.1663e-17)
(1.0002 -0.00069785 -3.9886e-16)
(1.0004 -0.00091449 -1.3215e-16)
(1.0007 -0.0010658 1.0363e-16)
(1.001 -0.0011486 3.5667e-16)
(1.0013 -0.0011502 1.5029e-16)
(1.0016 -0.00107 5.8442e-17)
(1.0018 -0.00090184 -7.887e-17)
(1.002 -0.00060894 1.4674e-16)
(1.0006 -1.5389e-05 5.2581e-17)
(1.0099 0.0087353 -6.5115e-17)
(0.99995 -0.00014214 -1.0345e-16)
(1 -0.00044075 9.3115e-17)
(1.0002 -0.00070332 6.7067e-16)
(1.0004 -0.00092178 -1.5852e-16)
(1.0007 -0.0010743 3.8818e-16)
(1.001 -0.001158 -7.0418e-16)
(1.0013 -0.0011597 -5.0052e-16)
(1.0016 -0.0010789 1.1359e-16)
(1.0018 -0.00090843 -5.9313e-17)
(1.002 -0.00060879 -8.0895e-17)
(1.0007 -1.1765e-05 -9.6049e-17)
(1.0094 0.0082512 8.5133e-17)
(0.99994 -0.00014329 6.8156e-17)
(1 -0.00044424 3.5051e-17)
(1.0002 -0.00070886 -5.6813e-16)
(1.0004 -0.00092915 2.256e-16)
(1.0007 -0.001083 -1.6927e-16)
(1.001 -0.0011676 3.0037e-16)
(1.0013 -0.0011694 1.7791e-16)
(1.0016 -0.0010878 2.8733e-17)
(1.0018 -0.00091521 5.5329e-18)
(1.002 -0.00060949 1.2874e-17)
(1.0008 -8.6878e-06 3.1263e-17)
(1.009 0.0077921 -4.495e-18)
(0.99993 -0.00014445 -3.7423e-17)
(1 -0.00044777 -1.1496e-16)
(1.0002 -0.00071447 1.3927e-16)
(1.0004 -0.00093661 -3.9808e-17)
(1.0007 -0.0010918 2.6138e-17)
(1.001 -0.0011772 -3.2922e-16)
(1.0013 -0.0011792 -4.0986e-16)
(1.0016 -0.0010969 -3.6485e-16)
(1.0018 -0.00092219 1.6584e-16)
(1.002 -0.00061097 1.6743e-17)
(1.0009 -6.3018e-06 -7.9264e-17)
(1.0087 0.0073568 -3.6614e-17)
(0.99992 -0.00014562 5.1656e-17)
(1 -0.00045134 4.3419e-17)
(1.0002 -0.00072014 6.7121e-17)
(1.0004 -0.00094415 -3.1738e-17)
(1.0007 -0.0011007 -7.8348e-17)
(1.001 -0.001187 1.2452e-16)
(1.0013 -0.0011891 2.3725e-16)
(1.0016 -0.0011062 2.2541e-16)
(1.0019 -0.00092937 1.0671e-16)
(1.002 -0.00061321 -2.1075e-16)
(1.0011 -4.7129e-06 5.4929e-19)
(1.0083 0.0069442 -4.2274e-17)
(0.99991 -0.00014681 -5.1651e-17)
(0.99999 -0.00045495 8.5399e-17)
(1.0002 -0.00072587 1.2172e-16)
(1.0004 -0.00095177 8.2855e-17)
(1.0006 -0.0011096 -7.2683e-17)
(1.001 -0.0011968 6.1224e-17)
(1.0013 -0.0011991 5.4105e-17)
(1.0016 -0.0011156 -2.0145e-17)
(1.0019 -0.00093676 -1.724e-16)
(1.0021 -0.00061615 1.9556e-16)
(1.0012 -3.9979e-06 4.9232e-19)
(1.008 0.0065531 9.1041e-18)
(0.9999 -0.00014801 7.8549e-17)
(0.99998 -0.0004586 -6.667e-17)
(1.0001 -0.00073168 1.0666e-17)
(1.0004 -0.00095949 -6.9125e-17)
(1.0006 -0.0011187 1.6508e-16)
(1.001 -0.0012068 7.472e-17)
(1.0013 -0.0012092 2.1784e-16)
(1.0016 -0.0011251 -7.4826e-17)
(1.0019 -0.00094435 -2.1209e-18)
(1.0021 -0.00061975 4.8177e-17)
(1.0013 -4.2117e-06 1.2351e-16)
(1.0078 0.0061822 5.8087e-18)
(0.99989 -0.00014923 1.895e-17)
(0.99997 -0.0004623 1.4797e-16)
(1.0001 -0.00073755 2.0359e-16)
(1.0004 -0.0009673 -6.8934e-17)
(1.0006 -0.0011279 1.1956e-16)
(1.001 -0.0012169 -3.4881e-17)
(1.0013 -0.0012195 -3.8157e-16)
(1.0016 -0.0011347 2.3685e-16)
(1.0019 -0.00095216 -1.9487e-16)
(1.0021 -0.00062398 -2.7759e-16)
(1.0014 -5.3911e-06 -2.6716e-17)
(1.0075 0.0058304 5.3728e-18)
(0.99988 -0.00015047 -4.8335e-17)
(0.99996 -0.00046604 -1.5738e-16)
(1.0001 -0.0007435 -4.8863e-16)
(1.0004 -0.00097519 1.1613e-16)
(1.0006 -0.0011372 -1.8143e-16)
(1.001 -0.0012271 1.1188e-16)
(1.0013 -0.00123 -3.576e-17)
(1.0016 -0.0011446 -1.4259e-16)
(1.0019 -0.00096018 4.2651e-17)
(1.0021 -0.00062881 1.6585e-16)
(1.0015 -7.5586e-06 -5.739e-17)
(1.0073 0.0054968 7.3949e-17)
(0.99987 -0.00015171 5.0879e-18)
(0.99995 -0.00046983 1.1771e-16)
(1.0001 -0.00074951 3.3739e-16)
(1.0003 -0.00098318 -2.6159e-17)
(1.0006 -0.0011466 -1.8029e-16)
(1.001 -0.0012375 -2.0849e-16)
(1.0013 -0.0012405 1.3641e-16)
(1.0016 -0.0011545 8.1828e-17)
(1.0019 -0.00096842 2.4761e-16)
(1.0021 -0.0006342 -2.3253e-17)
(1.0016 -1.0725e-05 1.4501e-17)
(1.007 0.0051803 -2.9517e-17)
(0.99986 -0.00015298 -2.8539e-17)
(0.99995 -0.00047366 -1.4264e-16)
(1.0001 -0.0007556 -1.5225e-16)
(1.0003 -0.00099127 8.7417e-17)
(1.0006 -0.0011562 -1.013e-16)
(1.001 -0.001248 -1.673e-16)
(1.0013 -0.0012512 1.3269e-16)
(1.0016 -0.0011646 -5.5482e-17)
(1.0019 -0.00097688 -3.0683e-16)
(1.0021 -0.00064013 -1.3057e-16)
(1.0017 -1.4889e-05 6.3314e-17)
(1.0068 0.0048799 -3.194e-17)
(0.99985 -0.00015426 -4.0871e-17)
(0.99994 -0.00047754 -5.3927e-17)
(1.0001 -0.00076177 -1.128e-17)
(1.0003 -0.00099945 -3.8288e-16)
(1.0006 -0.0011658 8.4945e-17)
(1.0009 -0.0012586 7.2813e-17)
(1.0013 -0.0012621 -2.5222e-16)
(1.0016 -0.0011749 -1.8965e-16)
(1.0019 -0.00098556 4.4708e-17)
(1.0021 -0.00064657 -9.9853e-18)
(1.0017 -2.0045e-05 -7.2895e-17)
(1.0066 0.0045949 6.0374e-18)
(0.99984 -0.00015556 5.3161e-17)
(0.99993 -0.00048146 2.4719e-16)
(1.0001 -0.000768 2.9064e-16)
(1.0003 -0.0010077 3.6021e-17)
(1.0006 -0.0011756 2.3495e-16)
(1.0009 -0.0012693 1.2767e-16)
(1.0013 -0.001273 3.6361e-17)
(1.0016 -0.0011853 2.0761e-16)
(1.0019 -0.00099447 2.2333e-16)
(1.0022 -0.0006535 1.5608e-16)
(1.0018 -2.6177e-05 5.5187e-17)
(1.0065 0.0043243 7.1545e-18)
(0.99983 -0.00015687 -2.5343e-17)
(0.99992 -0.00048544 -5.9309e-17)
(1.0001 -0.00077432 -3.0964e-16)
(1.0003 -0.0010161 -3.4187e-17)
(1.0006 -0.0011854 -1.7811e-16)
(1.0009 -0.0012802 -6.9117e-17)
(1.0013 -0.0012842 -2.3432e-17)
(1.0016 -0.0011959 -1.8784e-16)
(1.0019 -0.0010036 -2.1392e-16)
(1.0022 -0.0006609 8.0183e-17)
(1.0019 -3.3265e-05 4.1884e-18)
(1.0063 0.0040673 4.0998e-18)
(0.99982 -0.0001582 6.7182e-17)
(0.99991 -0.00048946 -7.7501e-17)
(1.0001 -0.00078071 -2.9049e-16)
(1.0003 -0.0010246 6.4928e-16)
(1.0006 -0.0011954 2.5842e-16)
(1.0009 -0.0012912 -1.6918e-16)
(1.0013 -0.0012954 3.144e-16)
(1.0016 -0.0012066 2.5396e-16)
(1.0019 -0.001013 3.4744e-16)
(1.0022 -0.00066874 -2.9415e-16)
(1.002 -4.1285e-05 -1.0203e-16)
(1.0061 0.0038232 1.0724e-18)
(0.99981 -0.00015955 -4.9177e-17)
(0.9999 -0.00049353 -1.5559e-17)
(1.0001 -0.00078718 4.9595e-16)
(1.0003 -0.0010331 -4.9089e-16)
(1.0006 -0.0012055 -2.486e-17)
(1.0009 -0.0013024 5.6052e-16)
(1.0013 -0.0013069 9.7536e-17)
(1.0016 -0.0012176 -3.9199e-17)
(1.002 -0.0010226 -2.1564e-16)
(1.0022 -0.00067701 3.469e-16)
(1.002 -5.021e-05 -4.3813e-17)
(1.006 0.0035914 -1.7147e-18)
(0.9998 -0.00016092 -2.5076e-17)
(0.99989 -0.00049765 -3.1005e-17)
(1.0001 -0.00079373 2.5861e-17)
(1.0003 -0.0010418 5.1079e-16)
(1.0006 -0.0012158 -1.403e-16)
(1.0009 -0.0013137 -4.1438e-16)
(1.0013 -0.0013184 -2.4857e-16)
(1.0016 -0.0012286 -4.2228e-17)
(1.002 -0.0010324 6.8326e-17)
(1.0022 -0.00068569 -2.9305e-16)
(1.0021 -6.0009e-05 7.3072e-17)
(1.0059 0.003371 1.8626e-17)
(0.99979 -0.0001623 4.1439e-17)
(0.99988 -0.00050182 2.1577e-16)
(1.0001 -0.00080037 -1.905e-16)
(1.0003 -0.0010506 -5.3442e-17)
(1.0006 -0.0012262 -2.6938e-16)
(1.0009 -0.0013251 4.5098e-16)
(1.0013 -0.0013302 -2.1838e-16)
(1.0016 -0.0012399 1.7543e-16)
(1.002 -0.0010424 -2.1044e-17)
(1.0022 -0.00069477 2.7504e-16)
(1.0022 -7.0651e-05 -7.2137e-17)
(1.0057 0.0031617 -3.1104e-17)
(0.99978 -0.0001637 -7.9482e-18)
(0.99987 -0.00050605 -1.241e-16)
(1 -0.00080708 -2.6685e-16)
(1.0003 -0.0010595 -1.4656e-16)
(1.0006 -0.0012367 2.6126e-16)
(1.0009 -0.0013367 -5.7519e-16)
(1.0013 -0.001342 -3.38e-17)
(1.0016 -0.0012513 -2.3698e-16)
(1.002 -0.0010527 3.4146e-17)
(1.0022 -0.00070424 -7.9339e-17)
(1.0022 -8.2101e-05 7.677e-17)
(1.0056 0.0029626 1.319e-17)
(0.99977 -0.00016512 4.1649e-17)
(0.99986 -0.00051032 -1.3297e-16)
(1 -0.00081388 -2.6406e-17)
(1.0003 -0.0010685 3.5652e-17)
(1.0006 -0.0012473 8.2719e-17)
(1.0009 -0.0013484 1.662e-16)
(1.0013 -0.0013541 5.5279e-16)
(1.0017 -0.0012629 2.8349e-17)
(1.002 -0.0010632 5.5749e-17)
(1.0023 -0.00071407 8.7739e-17)
(1.0023 -9.4325e-05 -6.6366e-17)
(1.0055 0.0027734 1.0136e-17)
(0.99976 -0.00016656 -2.388e-17)
(0.99985 -0.00051465 1.3285e-16)
(1 -0.00082077 3.7939e-16)
(1.0003 -0.0010776 -3.5903e-16)
(1.0006 -0.0012581 -1.2871e-16)
(1.0009 -0.0013603 -2.9289e-17)
(1.0013 -0.0013663 -1.8219e-16)
(1.0017 -0.0012747 2.2016e-17)
(1.002 -0.0010739 -9.6469e-17)
(1.0023 -0.00072427 -3.2126e-17)
(1.0023 -0.00010729 -2.2372e-18)
(1.0054 0.0025934 -1.2402e-17)
(0.99975 -0.00016802 -2.5673e-17)
(0.99983 -0.00051903 7.9541e-17)
(1 -0.00082775 -9.1577e-18)
(1.0003 -0.0010868 1.1905e-16)
(1.0006 -0.001269 -2.3759e-16)
(1.0009 -0.0013723 3.3121e-16)
(1.0013 -0.0013787 9.1034e-17)
(1.0017 -0.0012867 -2.1006e-16)
(1.002 -0.0010849 -1.2405e-16)
(1.0023 -0.00073481 -1.2781e-16)
(1.0024 -0.00012095 1.0264e-17)
(1.0053 0.0024223 -2.2765e-17)
(0.99973 -0.0001695 8.923e-18)
(0.99982 -0.00052347 -1.8997e-16)
(1 -0.00083481 2.3506e-16)
(1.0003 -0.0010962 3.2942e-16)
(1.0006 -0.00128 4.6567e-16)
(1.0009 -0.0013844 -2.4329e-16)
(1.0013 -0.0013912 -2.2621e-16)
(1.0017 -0.0012988 4.2558e-17)
(1.002 -0.0010961 1.1626e-16)
(1.0023 -0.0007457 1.0021e-16)
(1.0024 -0.00013528 4.9448e-17)
(1.0052 0.0022594 2.2623e-17)
(0.99972 -0.000171 1.7105e-17)
(0.99981 -0.00052797 1.5108e-16)
(1 -0.00084196 -5.4005e-16)
(1.0003 -0.0011056 -4.7689e-17)
(1.0006 -0.0012912 -3.8698e-16)
(1.0009 -0.0013968 -1.5335e-16)
(1.0013 -0.0014039 3.0744e-19)
(1.0017 -0.0013112 -4.8894e-17)
(1.002 -0.0011075 -2.2975e-16)
(1.0023 -0.00075692 -1.6018e-16)
(1.0025 -0.00015024 -6.8323e-17)
(1.0052 0.0021044 -1.1171e-17)
(0.99971 -0.00017251 -1.1084e-17)
(0.9998 -0.00053252 -9.8275e-17)
(0.99999 -0.00084921 4.2502e-16)
(1.0002 -0.0011152 -4.556e-16)
(1.0006 -0.0013025 -2.9188e-17)
(1.0009 -0.0014093 3.2657e-16)
(1.0013 -0.0014168 9.052e-18)
(1.0017 -0.0013237 4.6479e-17)
(1.002 -0.0011192 2.0109e-16)
(1.0023 -0.00076846 2.0845e-16)
(1.0025 -0.00016579 3.8864e-17)
(1.0051 0.0019569 -6.2856e-18)
(0.9997 -0.00017405 -2.8868e-17)
(0.99979 -0.00053713 -3.6259e-17)
(0.99998 -0.00085654 -1.8842e-16)
(1.0002 -0.0011249 2.2698e-16)
(1.0006 -0.001314 4.2551e-16)
(1.0009 -0.0014219 -1.4437e-16)
(1.0013 -0.0014298 2.8228e-16)
(1.0017 -0.0013364 3.4866e-17)
(1.002 -0.001131 -2.2898e-17)
(1.0024 -0.00078031 9.4612e-17)
(1.0026 -0.0001819 -4.4319e-17)
(1.005 0.0018165 -4.4073e-18)
(0.99969 -0.00017561 7.2182e-18)
(0.99978 -0.00054179 -9.5901e-17)
(0.99997 -0.00086398 7.0576e-17)
(1.0002 -0.0011347 -2.3145e-16)
(1.0006 -0.0013256 -4.5027e-16)
(1.0009 -0.0014347 9.1029e-17)
(1.0013 -0.001443 -4.0732e-16)
(1.0017 -0.0013494 -8.0029e-17)
(1.0021 -0.0011432 7.4181e-17)
(1.0024 -0.00079247 -2.9664e-16)
(1.0026 -0.00019855 2.9927e-17)
(1.0049 0.0016828 1.2298e-17)
(0.99968 -0.0001772 1.2682e-17)
(0.99977 -0.00054652 2.598e-16)
(0.99996 -0.0008715 1.1821e-16)
(1.0002 -0.0011447 9.4234e-17)
(1.0005 -0.0013373 3.6009e-16)
(1.0009 -0.0014477 2.7187e-17)
(1.0013 -0.0014565 2.8144e-16)
(1.0017 -0.0013625 5.7265e-17)
(1.0021 -0.0011555 -2.2605e-16)
(1.0024 -0.00080494 1.0224e-16)
(1.0027 -0.00021569 2.0359e-17)
(1.0049 0.0015554 1.2814e-17)
(0.99966 -0.0001788 -4.4297e-17)
(0.99976 -0.00055131 -8.5531e-17)
(0.99995 -0.00087913 -1.0381e-16)
(1.0002 -0.0011547 1.5486e-16)
(1.0005 -0.0013493 1.7408e-16)
(1.0009 -0.0014608 -5.4056e-17)
(1.0013 -0.00147 -2.3653e-16)
(1.0017 -0.0013758 2.6145e-16)
(1.0021 -0.0011681 4.1597e-17)
(1.0024 -0.0008177 -3.0941e-17)
(1.0027 -0.00023329 8.5613e-17)
(1.0048 0.0014342 -8.9466e-18)
(0.99965 -0.00018043 9.1032e-17)
(0.99974 -0.00055616 1.0246e-16)
(0.99994 -0.00088686 -1.104e-16)
(1.0002 -0.0011649 -9.6527e-17)
(1.0005 -0.0013613 -2.4978e-16)
(1.0009 -0.0014741 -9.2936e-17)
(1.0013 -0.0014838 1.1667e-16)
(1.0017 -0.0013894 -4.197e-16)
(1.0021 -0.0011809 1.0256e-16)
(1.0024 -0.00083074 -3.6678e-17)
(1.0027 -0.00025134 -9.1028e-17)
(1.0048 0.0013186 2.6047e-17)
(0.99964 -0.00018208 -4.0179e-17)
(0.99973 -0.00056107 -1.8005e-16)
(0.99993 -0.00089469 -1.0704e-16)
(1.0002 -0.0011752 -1.8324e-16)
(1.0005 -0.0013736 -7.6321e-17)
(1.0009 -0.0014876 2.7343e-16)
(1.0013 -0.0014978 -1.1472e-16)
(1.0017 -0.0014031 4.6719e-16)
(1.0021 -0.0011939 9.7027e-17)
(1.0024 -0.00084407 1.1129e-16)
(1.0028 -0.0002698 3.8473e-17)
(1.0047 0.0012086 -4.2331e-17)
(0.99962 -0.00018375 -2.132e-17)
(0.99972 -0.00056605 1.3392e-16)
(0.99992 -0.00090262 2.1213e-16)
(1.0002 -0.0011857 4.9404e-16)
(1.0005 -0.001386 1.0116e-16)
(1.0009 -0.0015013 -1.8754e-16)
(1.0013 -0.001512 5.5346e-17)
(1.0017 -0.0014171 -5.0312e-16)
(1.0021 -0.0012072 -1.1796e-16)
(1.0024 -0.00085768 -6.1935e-17)
(1.0028 -0.00028864 3.812e-17)
(1.0047 0.0011038 4.2672e-17)
(0.99961 -0.00018545 1.6318e-17)
(0.99971 -0.00057109 3.1727e-17)
(0.9999 -0.00091065 -2.0837e-16)
(1.0002 -0.0011963 -8.2271e-17)
(1.0005 -0.0013985 1.2854e-16)
(1.0009 -0.0015151 2.2471e-16)
(1.0013 -0.0015263 1.9277e-16)
(1.0017 -0.0014312 4.9598e-17)
(1.0021 -0.0012207 1.3211e-16)
(1.0025 -0.00087156 -2.8798e-17)
(1.0028 -0.00030784 -6.8225e-17)
(1.0046 0.0010039 -1.0999e-17)
(0.9996 -0.00018717 -6.6758e-19)
(0.99969 -0.0005762 3.6174e-17)
(0.99989 -0.0009188 4.6567e-17)
(1.0002 -0.001207 -1.0688e-16)
(1.0005 -0.0014113 1.2438e-18)
(1.0009 -0.0015292 -2.037e-16)
(1.0013 -0.0015409 -1.3038e-16)
(1.0017 -0.0014456 3.6895e-16)
(1.0021 -0.0012344 -2.0015e-16)
(1.0025 -0.00088571 1.1183e-16)
(1.0029 -0.00032738 3.6148e-17)
(1.0046 0.00090868 -3.1317e-17)
(0.99959 -0.00018892 -5.0576e-17)
(0.99968 -0.00058138 -1.6957e-16)
(0.99988 -0.00092705 1.1897e-16)
(1.0002 -0.0012179 -2.9208e-16)
(1.0005 -0.0014242 -3.2527e-16)
(1.0009 -0.0015434 -2.8167e-16)
(1.0013 -0.0015556 -2.6611e-16)
(1.0017 -0.0014602 -3.7743e-17)
(1.0021 -0.0012484 1.7501e-16)
(1.0025 -0.00090011 -9.6035e-17)
(1.0029 -0.00034723 3.6426e-18)
(1.0045 0.00081795 2.954e-17)
(0.99957 -0.00019069 9.7629e-17)
(0.99967 -0.00058662 1.7728e-16)
(0.99987 -0.00093541 -1.9191e-16)
(1.0002 -0.0012289 2.398e-16)
(1.0005 -0.0014372 -3.8244e-17)
(1.0009 -0.0015578 1.8463e-16)
(1.0013 -0.0015706 3.1995e-16)
(1.0017 -0.001475 -2.8684e-16)
(1.0021 -0.0012626 -8.901e-17)
(1.0025 -0.00091478 1.0162e-16)
(1.0029 -0.00036736 3.1716e-17)
(1.0045 0.00073146 -1.4042e-17)
(0.99956 -0.00019248 -7.3271e-17)
(0.99966 -0.00059194 -5.2378e-17)
(0.99986 -0.00094388 -4.0179e-17)
(1.0001 -0.0012401 2.7456e-16)
(1.0005 -0.0014505 -8.1841e-17)
(1.0009 -0.0015724 -2.3614e-18)
(1.0013 -0.0015858 -6.2624e-17)
(1.0017 -0.00149 2.2983e-16)
(1.0021 -0.001277 -8.481e-17)
(1.0025 -0.0009297 -6.98e-17)
(1.003 -0.00038777 -9.3935e-17)
(1.0044 0.00064901 1.6378e-17)
(0.99954 -0.00019431 4.9821e-17)
(0.99964 -0.00059733 -6.6453e-17)
(0.99985 -0.00095247 9.1874e-17)
(1.0001 -0.0012514 -4.1668e-16)
(1.0005 -0.0014639 5.5388e-16)
(1.0009 -0.0015872 7.6604e-17)
(1.0013 -0.0016012 2.4753e-16)
(1.0017 -0.0015052 -1.4246e-16)
(1.0022 -0.0012917 8.3257e-19)
(1.0025 -0.00094486 5.2095e-17)
(1.003 -0.00040842 -1.8643e-17)
(1.0044 0.00057039 -6.1492e-18)
(0.99953 -0.00019616 -1.4251e-17)
(0.99963 -0.00060279 1.2998e-17)
(0.99984 -0.00096117 2.2403e-16)
(1.0001 -0.0012629 1.1359e-16)
(1.0005 -0.0014775 -2.7699e-16)
(1.0009 -0.0016021 -1.5014e-16)
(1.0013 -0.0016168 4.3458e-17)
(1.0017 -0.0015207 -6.9457e-17)
(1.0022 -0.0013066 1.4196e-16)
(1.0026 -0.00096027 -3.414e-17)
(1.003 -0.00042929 8.8606e-17)
(1.0044 0.00049542 -2.2701e-17)
(0.99952 -0.00019804 -2.4821e-17)
(0.99962 -0.00060832 -1.2531e-16)
(0.99983 -0.00097 -6.6585e-17)
(1.0001 -0.0012745 4.5656e-16)
(1.0005 -0.0014913 -2.4701e-16)
(1.0009 -0.0016173 -1.2791e-17)
(1.0013 -0.0016327 -6.4706e-16)
(1.0018 -0.0015364 6.8032e-17)
(1.0022 -0.0013218 -2.6647e-16)
(1.0026 -0.00097592 -7.4056e-17)
(1.003 -0.00045037 -8.9328e-17)
(1.0044 0.00042391 1.3456e-17)
(0.9995 -0.00019994 -1.0724e-17)
(0.9996 -0.00061394 7.7633e-17)
(0.99981 -0.00097894 -2.7484e-17)
(1.0001 -0.0012863 -2.6581e-16)
(1.0005 -0.0015053 3.5497e-16)
(1.0009 -0.0016327 -3.1377e-17)
(1.0013 -0.0016487 3.4288e-16)
(1.0018 -0.0015524 -4.2118e-17)
(1.0022 -0.0013372 1.2907e-16)
(1.0026 -0.00099181 9.2727e-17)
(1.0031 -0.00047164 7.3728e-17)
(1.0043 0.00035567 -3.3141e-18)
(0.99949 -0.00020188 6.078e-17)
(0.99959 -0.00061962 -4.649e-17)
(0.9998 -0.00098801 -9.6281e-17)
(1.0001 -0.0012982 2.9044e-16)
(1.0005 -0.0015195 2.6103e-17)
(1.0009 -0.0016483 3.8821e-16)
(1.0013 -0.001665 5.9247e-17)
(1.0018 -0.0015685 2.0059e-16)
(1.0022 -0.0013529 4.8442e-17)
(1.0026 -0.0010079 -3.0004e-17)
(1.0031 -0.00049307 9.6671e-18)
(1.0043 0.00029055 2.9438e-18)
(0.99947 -0.00020384 1.7348e-17)
(0.99957 -0.00062539 1.8988e-17)
(0.99979 -0.0009972 -8.7365e-17)
(1.0001 -0.0013103 -5.7837e-16)
(1.0005 -0.0015339 7.9046e-17)
(1.0009 -0.0016642 3.3841e-17)
(1.0013 -0.0016815 -2.5706e-16)
(1.0018 -0.0015849 2.8565e-18)
(1.0022 -0.0013688 1.4363e-16)
(1.0026 -0.0010243 -1.9349e-17)
(1.0031 -0.00051466 -4.7328e-17)
(1.0043 0.00022838 1.7669e-17)
(0.99946 -0.00020584 -7.4249e-17)
(0.99956 -0.00063124 8.0586e-17)
(0.99978 -0.0010065 1.4356e-17)
(1.0001 -0.0013226 3.2132e-16)
(1.0005 -0.0015485 -3.6047e-16)
(1.0009 -0.0016802 -1.4879e-16)
(1.0013 -0.0016983 2.6302e-16)
(1.0018 -0.0016016 -1.3625e-16)
(1.0022 -0.001385 -2.2774e-16)
(1.0026 -0.0010408 -9.5961e-17)
(1.0031 -0.00053638 6.0419e-17)
(1.0042 0.000169 5.9755e-18)
(0.99944 -0.00020786 -7.8678e-18)
(0.99955 -0.00063717 -8.1129e-17)
(0.99976 -0.001016 1.5345e-16)
(1.0001 -0.0013351 1.4265e-16)
(1.0004 -0.0015633 4.4546e-16)
(1.0009 -0.0016965 5.733e-17)
(1.0013 -0.0017153 2.3404e-16)
(1.0018 -0.0016184 3.4575e-16)
(1.0022 -0.0014014 -1.0457e-17)
(1.0027 -0.0010576 1.6887e-16)
(1.0032 -0.00055822 -6.3369e-18)
(1.0042 0.00011226 -1.7284e-17)
(0.99943 -0.00020992 7.6211e-17)
(0.99953 -0.00064318 -1.1819e-16)
(0.99975 -0.0010255 -2.3304e-16)
(1.0001 -0.0013477 -3.7779e-17)
(1.0004 -0.0015783 -4.8371e-16)
(1.0009 -0.001713 -1.7037e-16)
(1.0013 -0.0017326 -8.102e-17)
(1.0018 -0.0016356 2.8547e-18)
(1.0022 -0.0014181 2.9726e-16)
(1.0027 -0.0010747 3.9188e-17)
(1.0032 -0.00058017 -8.3871e-17)
(1.0042 5.802e-05 1.0467e-17)
(0.99941 -0.000212 -8.5463e-17)
(0.99952 -0.00064928 1.476e-16)
(0.99974 -0.0010353 1.2197e-16)
(1 -0.0013605 -7.5457e-17)
(1.0004 -0.0015935 3.8919e-16)
(1.0009 -0.0017297 2.0409e-16)
(1.0013 -0.0017501 -6.4113e-17)
(1.0018 -0.0016529 -3.4904e-16)
(1.0022 -0.001435 -9.9321e-18)
(1.0027 -0.0010919 -1.1155e-16)
(1.0032 -0.00060221 9.9493e-17)
(1.0042 6.1467e-06 -1.3728e-17)
(0.99939 -0.00021412 5.1369e-17)
(0.9995 -0.00065547 -2.8277e-17)
(0.99972 -0.0010451 1.6163e-16)
(1 -0.0013734 -3.1804e-16)
(1.0004 -0.0016089 1.273e-16)
(1.0009 -0.0017467 -7.322e-17)
(1.0013 -0.0017678 -1.3857e-16)
(1.0018 -0.0016706 -2.8193e-17)
(1.0023 -0.0014522 -3.6046e-16)
(1.0027 -0.0011094 7.3868e-17)
(1.0032 -0.00062433 -9.1679e-17)
(1.0042 -4.3489e-05 4.6025e-18)
(0.99938 -0.00021628 4.0689e-18)
(0.99949 -0.00066174 -8.8979e-17)
(0.99971 -0.0010551 9.1885e-17)
(1 -0.0013866 4.1886e-16)
(1.0004 -0.0016245 -3.0298e-16)
(1.0009 -0.0017639 2.3629e-16)
(1.0013 -0.0017858 -8.0264e-17)
(1.0018 -0.0016885 6.4921e-17)
(1.0023 -0.0014696 4.2875e-16)
(1.0027 -0.001127 -1.3732e-16)
(1.0032 -0.00064651 1.4071e-16)
(1.0042 -9.101e-05 1.3148e-17)
(0.99936 -0.00021846 7.3039e-18)
(0.99947 -0.0006681 -1.8475e-17)
(0.9997 -0.0010652 -1.321e-16)
(1 -0.0013999 -6.2951e-17)
(1.0004 -0.0016404 2.6436e-16)
(1.0009 -0.0017813 2.1704e-18)
(1.0013 -0.0018041 -1.5803e-16)
(1.0018 -0.0017066 -1.5563e-16)
(1.0023 -0.0014873 -1.7976e-16)
(1.0027 -0.0011449 -1.3155e-17)
(1.0032 -0.00066875 2.6268e-17)
(1.0041 -0.00013653 1.4464e-18)
(0.99934 -0.00022068 -1.1737e-17)
(0.99945 -0.00067456 2.1919e-16)
(0.99968 -0.0010755 -8.8177e-17)
(1 -0.0014134 -3.5665e-16)
(1.0004 -0.0016565 1.221e-16)
(1.0009 -0.001799 -6.0243e-16)
(1.0013 -0.0018226 7.8657e-17)
(1.0018 -0.001725 9.7792e-17)
(1.0023 -0.0015053 8.3374e-18)
(1.0027 -0.001163 1.4003e-16)
(1.0033 -0.00069103 -8.233e-18)
(1.0041 -0.00018016 -3.6928e-17)
(0.99933 -0.00022294 -3.0967e-18)
(0.99944 -0.0006811 -4.2817e-18)
(0.99967 -0.0010859 1.1878e-16)
(0.99999 -0.0014271 2.2031e-16)
(1.0004 -0.0016728 -4.8462e-16)
(1.0008 -0.001817 2.5883e-17)
(1.0013 -0.0018414 1.413e-16)
(1.0018 -0.0017437 1.5361e-16)
(1.0023 -0.0015235 -1.1442e-16)
(1.0028 -0.0011813 -1.3668e-16)
(1.0033 -0.00071334 -1.4127e-16)
(1.0041 -0.00022199 3.917e-17)
(0.99931 -0.00022523 -2.0304e-17)
(0.99942 -0.00068775 6.1543e-18)
(0.99966 -0.0010965 -5.7261e-17)
(0.99998 -0.001441 -1.4717e-16)
(1.0004 -0.0016894 2.6889e-16)
(1.0008 -0.0018352 3.2388e-16)
(1.0013 -0.0018605 4.1302e-17)
(1.0018 -0.0017627 7.8057e-17)
(1.0023 -0.001542 1.8257e-16)
(1.0028 -0.0011999 2.2924e-17)
(1.0033 -0.00073567 1.0503e-16)
(1.0041 -0.00026214 -2.386e-17)
(0.99929 -0.00022756 3.7392e-17)
(0.99941 -0.00069449 1.1336e-17)
(0.99964 -0.0011073 -8.1917e-17)
(0.99997 -0.0014551 2.1725e-17)
(1.0004 -0.0017062 -1.4581e-16)
(1.0008 -0.0018537 -7.7682e-17)
(1.0013 -0.0018798 -1.5231e-17)
(1.0018 -0.0017819 -3.5262e-16)
(1.0023 -0.0015608 3.6075e-17)
(1.0028 -0.0012186 -4.7028e-17)
(1.0033 -0.00075801 -4.2717e-17)
(1.0041 -0.00030068 -2.9039e-17)
(0.99927 -0.00022993 -7.6338e-17)
(0.99939 -0.00070133 1.4814e-17)
(0.99963 -0.0011182 4.3459e-17)
(0.99996 -0.0014694 -2.7361e-16)
(1.0004 -0.0017232 -1.6645e-16)
(1.0008 -0.0018724 -3.614e-16)
(1.0013 -0.0018995 7.3858e-17)
(1.0018 -0.0018014 1.439e-16)
(1.0023 -0.0015799 -3.8632e-16)
(1.0028 -0.0012376 2.1651e-16)
(1.0033 -0.00078036 -4.6588e-17)
(1.0041 -0.0003377 1.8651e-17)
(0.99926 -0.00023233 7.0095e-17)
(0.99937 -0.00070827 3.314e-17)
(0.99961 -0.0011292 1.6721e-17)
(0.99994 -0.0014839 8.6638e-17)
(1.0004 -0.0017405 -3.6904e-17)
(1.0008 -0.0018915 7.0088e-16)
(1.0013 -0.0019194 2.6548e-16)
(1.0018 -0.0018212 -2.2475e-16)
(1.0023 -0.0015992 3.7218e-16)
(1.0028 -0.0012567 -8.0787e-17)
(1.0034 -0.00080271 -3.1042e-17)
(1.0041 -0.00037329 -9.5055e-18)
(0.99924 -0.00023478 1.7216e-17)
(0.99935 -0.00071531 -2.0965e-16)
(0.9996 -0.0011404 3.3506e-17)
(0.99993 -0.0014987 3.9001e-16)
(1.0004 -0.001758 2.8481e-16)
(1.0008 -0.0019108 -1.0989e-17)
(1.0013 -0.0019396 -3.6761e-16)
(1.0019 -0.0018413 6.7663e-17)
(1.0024 -0.0016188 -8.4105e-17)
(1.0028 -0.0012761 -1.1238e-16)
(1.0034 -0.00082506 7.8753e-17)
(1.0041 -0.00040751 8.7225e-18)
(0.99922 -0.00023726 -6.8066e-17)
(0.99934 -0.00072246 -6.9988e-17)
(0.99958 -0.0011518 -1.8155e-16)
(0.99992 -0.0015136 -3.2731e-16)
(1.0003 -0.0017759 -2.8686e-16)
(1.0008 -0.0019304 -3.1887e-16)
(1.0013 -0.0019601 6.8057e-17)
(1.0019 -0.0018617 5.298e-16)
(1.0024 -0.0016387 3.6781e-17)
(1.0029 -0.0012957 -1.0052e-17)
(1.0034 -0.00084739 -2.7929e-17)
(1.0041 -0.00044045 -2.3944e-17)
(0.9992 -0.00023979 5.0532e-17)
(0.99932 -0.00072971 6.4925e-17)
(0.99957 -0.0011634 2.7989e-16)
(0.99991 -0.0015288 2.268e-16)
(1.0003 -0.0017939 2.7922e-16)
(1.0008 -0.0019503 -1.1815e-17)
(1.0013 -0.0019809 -3.795e-16)
(1.0019 -0.0018825 -2.8658e-16)
(1.0024 -0.0016588 9.1646e-17)
(1.0029 -0.0013155 3.8889e-17)
(1.0034 -0.00086971 6.3383e-17)
(1.0041 -0.00047217 1.8328e-17)
(0.99918 -0.00024236 -3.5702e-17)
(0.9993 -0.00073708 1.0198e-16)
(0.99955 -0.0011751 -1.8525e-16)
(0.9999 -0.0015441 3.2901e-17)
(1.0003 -0.0018123 1.3004e-16)
(1.0008 -0.0019705 -3.1221e-17)
(1.0013 -0.0020021 8.4951e-17)
(1.0019 -0.0019035 7.9762e-17)
(1.0024 -0.0016793 3.049e-17)
(1.0029 -0.0013356 9.681e-17)
(1.0034 -0.00089201 -7.6356e-17)
(1.0041 -0.00050274 3.6636e-18)
(0.99916 -0.00024497 5.394e-17)
(0.99928 -0.00074455 6.3284e-18)
(0.99953 -0.001187 -8.6829e-17)
(0.99988 -0.0015597 1.3156e-17)
(1.0003 -0.0018309 -2.1197e-17)
(1.0008 -0.001991 -3.0911e-16)
(1.0013 -0.0020235 2.3828e-16)
(1.0019 -0.0019248 2.8369e-16)
(1.0024 -0.0017 -1.504e-16)
(1.0029 -0.0013558 -1.3512e-16)
(1.0034 -0.00091429 -2.258e-17)
(1.0041 -0.00053222 3.2117e-17)
(0.99914 -0.00024762 -3.9188e-17)
(0.99926 -0.00075214 -4.8697e-18)
(0.99952 -0.0011991 1.0792e-16)
(0.99987 -0.0015756 -2.515e-16)
(1.0003 -0.0018498 -1.9324e-16)
(1.0008 -0.0020118 3.9037e-16)
(1.0013 -0.0020453 -3.6509e-17)
(1.0019 -0.0019465 -3.0021e-16)
(1.0024 -0.001721 3.8496e-17)
(1.0029 -0.0013763 1.2742e-16)
(1.0035 -0.00093656 7.6367e-17)
(1.0041 -0.00056067 -1.159e-17)
(0.99912 -0.00025032 3.8989e-18)
(0.99925 -0.00075985 3.573e-17)
(0.9995 -0.0012114 5.9023e-17)
(0.99986 -0.0015917 1.3004e-16)
(1.0003 -0.001869 3.7937e-16)
(1.0008 -0.0020329 9.127e-17)
(1.0013 -0.0020673 -3.1853e-16)
(1.0019 -0.0019685 2.8284e-17)
(1.0024 -0.0017423 9.9507e-17)
(1.0029 -0.001397 -1.1523e-16)
(1.0035 -0.00095881 -5.1839e-17)
(1.0041 -0.00058814 -1.3569e-17)
(0.9991 -0.00025307 1.1077e-17)
(0.99923 -0.00076767 -6.1967e-18)
(0.99948 -0.0012238 -1.5586e-16)
(0.99984 -0.001608 -2.8109e-18)
(1.0003 -0.0018884 -7.5037e-16)
(1.0008 -0.0020543 1.1273e-16)
(1.0013 -0.0020898 3.1283e-16)
(1.0019 -0.0019908 -8.1092e-17)
(1.0024 -0.0017639 -1.0402e-16)
(1.0029 -0.0014179 1.9182e-16)
(1.0035 -0.00098105 6.236e-17)
(1.0041 -0.00061469 3.5327e-17)
(0.99908 -0.00025586 1.191e-17)
(0.99921 -0.00077561 -1.2891e-17)
(0.99947 -0.0012365 2.8201e-16)
(0.99983 -0.0016245 6.0094e-17)
(1.0003 -0.0019082 6.6549e-16)
(1.0008 -0.0020761 -3.9669e-16)
(1.0013 -0.0021125 -1.0509e-16)
(1.0019 -0.0020134 7.6526e-17)
(1.0024 -0.0017859 3.6146e-17)
(1.003 -0.0014391 -1.0801e-16)
(1.0035 -0.0010033 -9.9602e-18)
(1.0041 -0.00064037 -2.609e-17)
(0.99906 -0.0002587 -4.6523e-17)
(0.99919 -0.00078368 2.1701e-17)
(0.99945 -0.0012493 -1.658e-16)
(0.99982 -0.0016414 7.9133e-17)
(1.0003 -0.0019283 -2.5294e-16)
(1.0008 -0.0020982 5.3806e-17)
(1.0013 -0.0021356 4.2104e-16)
(1.0019 -0.0020364 -2.8682e-16)
(1.0025 -0.0018081 -1.3265e-16)
(1.003 -0.0014605 -1.0745e-16)
(1.0035 -0.0010255 -4.9941e-17)
(1.0041 -0.00066523 -7.2538e-18)
(0.99904 -0.00026159 5.7993e-17)
(0.99917 -0.00079187 -5.1515e-17)
(0.99943 -0.0012624 -1.6112e-16)
(0.9998 -0.0016584 -1.2614e-16)
(1.0003 -0.0019486 -4.143e-16)
(1.0008 -0.0021206 -2.5027e-16)
(1.0013 -0.0021591 -2.5823e-16)
(1.0019 -0.0020598 2.6686e-16)
(1.0025 -0.0018306 1.2897e-16)
(1.003 -0.0014821 1.6295e-16)
(1.0035 -0.0010477 -1.9744e-17)
(1.0041 -0.0006893 3.5117e-17)
(0.99902 -0.00026453 -9.3252e-17)
(0.99915 -0.00080018 8.3556e-17)
(0.99941 -0.0012756 3.9463e-16)
(0.99979 -0.0016758 -2.9795e-17)
(1.0003 -0.0019693 4.5851e-16)
(1.0008 -0.0021434 1.8579e-17)
(1.0013 -0.0021829 -2.4803e-16)
(1.0019 -0.0020835 1.0482e-16)
(1.0025 -0.0018535 -4.6487e-17)
(1.003 -0.001504 -3.4082e-17)
(1.0036 -0.0010699 6.3969e-17)
(1.0041 -0.00071264 -2.376e-17)
(0.999 -0.00026752 7.6451e-17)
(0.99913 -0.00080863 -1.1359e-16)
(0.9994 -0.0012891 -4.604e-16)
(0.99977 -0.0016934 1.9504e-16)
(1.0002 -0.0019904 -3.2712e-16)
(1.0008 -0.0021666 3.4639e-16)
(1.0014 -0.0022071 8.0652e-17)
(1.0019 -0.0021076 -9.9624e-17)
(1.0025 -0.0018766 -2.2412e-17)
(1.003 -0.0015261 -8.601e-17)
(1.0036 -0.0010921 -1.0488e-16)
(1.0041 -0.00073529 3.3227e-17)
(0.99897 -0.00027057 -5.6355e-17)
(0.99911 -0.00081721 3.7785e-17)
(0.99938 -0.0013028 2.7987e-16)
(0.99976 -0.0017112 -2.5722e-16)
(1.0002 -0.0020117 5.2674e-16)
(1.0008 -0.0021901 -2.6931e-16)
(1.0014 -0.0022317 4.7064e-17)
(1.0019 -0.002132 -1.5802e-16)
(1.0025 -0.0019001 7.3502e-17)
(1.003 -0.0015485 -1.2247e-17)
(1.0036 -0.0011144 4.4814e-17)
(1.0041 -0.00075728 -1.4635e-17)