/*--------------------------------*- C++ -*----------------------------------*\
  =========                 |
  \\      /  F ield         | OpenFOAM: The Open Source CFD Toolbox
   \\    /   O peration     | Website:  https://openfoam.org
    \\  /    A nd           | Version:  6.0
     \\/     M anipulation  |
\*---------------------------------------------------------------------------*/
FoamFile
{
    version     2.0;
    format      ascii;
    class       volScalarField;
    location    "11";
    object      p;
}
// * * * * * * * * * * * * * * * * * * * * * * * * * * * * * * * * * * * * * //

dimensions      [0 2 -2 0 0 0 0];

internalField   nonuniform List<scalar> 
248000
(
0.022845
0.0228506
0.022856
0.0228613
0.0228665
0.0228718
0.022877
0.0228825
0.022888
0.0228938
0.0228998
0.0229062
0.0229128
0.0229201
0.0229276
0.0229358
0.0229445
0.0229539
0.0229639
0.0229747
0.0229861
0.0229986
0.0230117
0.0230258
0.0230408
0.0230569
0.0230739
0.0230922
0.0231113
0.0231319
0.0231533
0.0231762
0.0232
0.0232251
0.0232511
0.0232785
0.0233065
0.0233358
0.0233656
0.0233966
0.023428
0.0234604
0.0234929
0.0235263
0.0235596
0.0235935
0.0236271
0.023661
0.0236939
0.0237257
0.0237552
0.0237828
0.0238075
0.0238296
0.0238482
0.0238636
0.023875
0.0238829
0.0238868
0.0238871
0.0238835
0.023877
0.0238677
0.0238572
0.0238464
0.0238374
0.0238323
0.0238345
0.0238468
0.0238719
0.0239127
0.023972
0.0240533
0.0241598
0.0242944
0.0244593
0.0246557
0.0248829
0.0251388
0.0254186
0.0257153
0.0260192
0.0263182
0.0265981
0.0268437
0.0270398
0.0271733
0.0272351
0.0272222
0.0271403
0.0270049
0.0268424
0.02669
0.0265911
0.0265954
0.0267465
0.0270845
0.0276259
0.028375
0.0292981
0.0303503
0.0314471
0.0325082
0.0334259
0.0341209
0.0344985
0.0345135
0.0341397
0.0333778
0.0322517
0.0308054
0.0290934
0.0271778
0.0251191
0.0229783
0.0207892
0.018682
0.0163725
0.0149447
0.0159882
0.0228743
0.0228704
0.0228676
0.0228661
0.0228657
0.0228664
0.022868
0.0228708
0.0228744
0.0228791
0.0228845
0.0228909
0.0228981
0.0229061
0.0229148
0.0229244
0.0229346
0.0229457
0.0229573
0.0229698
0.0229829
0.0229969
0.0230115
0.0230272
0.0230434
0.0230608
0.0230789
0.0230983
0.0231185
0.0231399
0.0231622
0.0231858
0.0232103
0.023236
0.0232624
0.0232901
0.0233184
0.0233478
0.0233778
0.0234087
0.02344
0.0234722
0.0235046
0.0235377
0.0235708
0.0236044
0.0236378
0.0236715
0.0237045
0.0237364
0.0237661
0.0237938
0.0238188
0.0238412
0.0238603
0.0238762
0.0238884
0.023897
0.0239018
0.0239031
0.0239008
0.0238955
0.0238878
0.0238789
0.02387
0.023863
0.0238605
0.0238656
0.0238815
0.0239109
0.0239567
0.0240219
0.0241099
0.0242244
0.0243686
0.0245449
0.0247547
0.024998
0.0252725
0.0255741
0.0258957
0.0262278
0.0265578
0.0268711
0.0271516
0.0273829
0.0275499
0.0276418
0.0276532
0.0275878
0.0274595
0.0272941
0.0271295
0.0270121
0.0269967
0.027135
0.027477
0.0280511
0.028874
0.029923
0.0311623
0.0325106
0.0338876
0.0351763
0.0362856
0.0370978
0.0375463
0.037582
0.0371828
0.0363513
0.0351147
0.0335141
0.0316036
0.029438
0.0270783
0.0245487
0.0220231
0.0191305
0.0176263
0.0175902
0.0228938
0.022883
0.0228742
0.0228674
0.0228622
0.0228587
0.0228567
0.0228562
0.0228571
0.0228595
0.0228631
0.0228681
0.0228743
0.0228817
0.02289
0.0228996
0.0229101
0.0229217
0.022934
0.0229475
0.0229616
0.0229767
0.0229926
0.0230095
0.0230272
0.0230461
0.0230658
0.0230868
0.0231087
0.0231321
0.0231563
0.023182
0.0232085
0.0232362
0.0232647
0.0232944
0.0233246
0.0233558
0.0233875
0.02342
0.0234528
0.0234863
0.02352
0.0235541
0.0235883
0.0236227
0.0236569
0.0236911
0.0237245
0.0237564
0.0237859
0.0238132
0.0238376
0.0238589
0.0238767
0.0238908
0.0239009
0.0239069
0.0239086
0.0239062
0.0238997
0.0238894
0.0238759
0.0238603
0.0238439
0.0238284
0.0238163
0.0238111
0.0238159
0.0238333
0.0238658
0.0239163
0.0239884
0.0240857
0.0242118
0.0243692
0.0245594
0.0247825
0.0250364
0.025317
0.0256171
0.0259268
0.026233
0.0265199
0.0267696
0.0269634
0.0270829
0.0271129
0.0270433
0.0268719
0.0266067
0.0262674
0.025887
0.0255086
0.0251861
0.0249734
0.0249268
0.0250849
0.0254782
0.0261006
0.0269346
0.0279158
0.0289808
0.030023
0.0309608
0.031674
0.0320931
0.0321628
0.031851
0.0311486
0.0300714
0.0286513
0.0269366
0.0249797
0.0228461
0.0205636
0.0183454
0.0158982
0.0149705
0.0149379
0.0229251
0.0229174
0.0229111
0.0229062
0.0229024
0.0228999
0.0228985
0.0228984
0.0228992
0.0229012
0.0229042
0.0229084
0.0229134
0.0229197
0.0229268
0.022935
0.022944
0.0229542
0.0229651
0.0229771
0.0229899
0.0230037
0.0230183
0.0230341
0.0230507
0.0230686
0.0230876
0.023108
0.0231296
0.0231527
0.0231769
0.0232027
0.0232294
0.0232576
0.0232866
0.0233168
0.0233477
0.0233795
0.0234118
0.023445
0.0234784
0.0235124
0.0235466
0.0235813
0.0236159
0.0236509
0.0236855
0.0237201
0.0237536
0.0237856
0.0238152
0.0238423
0.0238664
0.0238873
0.0239046
0.0239181
0.0239276
0.0239329
0.0239339
0.0239306
0.0239231
0.0239117
0.0238972
0.0238805
0.0238629
0.0238463
0.0238334
0.0238277
0.0238326
0.0238507
0.0238843
0.0239365
0.0240113
0.024113
0.0242455
0.0244121
0.0246147
0.0248542
0.0251293
0.0254366
0.0257696
0.0261188
0.0264715
0.0268116
0.0271202
0.0273767
0.02756
0.0276509
0.0276337
0.0274995
0.0272489
0.0268928
0.0264559
0.0259734
0.0254933
0.0250662
0.024749
0.024585
0.0246142
0.0248438
0.0252736
0.0258574
0.0265518
0.0272662
0.0279355
0.0284456
0.028733
0.0287443
0.0284444
0.027818
0.0268732
0.0256354
0.0241482
0.0224605
0.0206394
0.0187142
0.0169168
0.0150199
0.0145776
0.0152071
0.0229655
0.0229631
0.0229609
0.0229595
0.0229587
0.0229586
0.0229591
0.0229603
0.0229622
0.0229649
0.0229682
0.0229724
0.0229773
0.0229831
0.0229895
0.022997
0.0230051
0.0230142
0.0230241
0.0230349
0.0230464
0.023059
0.0230724
0.0230869
0.0231023
0.023119
0.0231368
0.0231561
0.0231766
0.0231988
0.0232221
0.0232471
0.0232731
0.0233007
0.0233291
0.0233588
0.0233892
0.0234206
0.0234525
0.0234852
0.0235182
0.023552
0.0235858
0.0236202
0.0236546
0.0236895
0.0237242
0.0237588
0.0237925
0.0238246
0.0238542
0.0238815
0.0239057
0.0239269
0.0239445
0.0239586
0.0239688
0.0239751
0.0239773
0.0239755
0.0239699
0.0239608
0.0239491
0.0239358
0.0239225
0.0239111
0.0239044
0.0239062
0.0239199
0.0239483
0.0239936
0.0240598
0.0241516
0.0242741
0.0244322
0.0246298
0.0248703
0.0251556
0.0254861
0.0258598
0.026272
0.0267149
0.0271772
0.0276438
0.0280966
0.0285147
0.028876
0.0291585
0.0293427
0.0294139
0.0293653
0.0291991
0.0289303
0.0285841
0.0281988
0.0278172
0.0274908
0.0272609
0.0271701
0.0272317
0.0274567
0.0278116
0.0282689
0.0287526
0.0292127
0.0295442
0.0296914
0.0296058
0.0292521
0.0286108
0.0276845
0.0264926
0.0250715
0.0234627
0.0217261
0.019882
0.0181562
0.0163287
0.0158264
0.0163701
0.0230136
0.0230117
0.02301
0.023009
0.0230082
0.0230081
0.0230084
0.0230095
0.023011
0.0230134
0.0230163
0.0230202
0.0230247
0.0230301
0.0230363
0.0230435
0.0230515
0.0230605
0.0230702
0.0230811
0.0230927
0.0231054
0.023119
0.0231337
0.0231493
0.0231663
0.0231844
0.023204
0.0232247
0.0232471
0.0232707
0.0232959
0.0233221
0.0233498
0.0233784
0.0234082
0.0234387
0.0234702
0.0235021
0.0235348
0.0235678
0.0236014
0.0236352
0.0236694
0.0237037
0.0237385
0.0237732
0.023808
0.0238417
0.0238738
0.0239034
0.0239304
0.0239541
0.0239748
0.0239917
0.0240051
0.0240145
0.0240199
0.024021
0.024018
0.0240111
0.0240006
0.0239875
0.0239728
0.0239582
0.0239459
0.0239386
0.0239399
0.0239531
0.0239808
0.0240259
0.0240927
0.0241871
0.0243149
0.0244816
0.0246925
0.0249518
0.025263
0.0256284
0.026048
0.0265193
0.027037
0.027592
0.0281718
0.0287602
0.0293375
0.0298825
0.0303724
0.0307859
0.0311046
0.0313159
0.031415
0.0314077
0.0313091
0.031147
0.0309541
0.0307731
0.0306392
0.0305917
0.0306449
0.0308137
0.0310726
0.031404
0.0317431
0.0320514
0.0322324
0.0322383
0.0320254
0.031559
0.0308166
0.0297967
0.0285132
0.0269951
0.0252751
0.0234033
0.0213898
0.0194519
0.0173603
0.0164789
0.0164084
0.0230592
0.0230543
0.0230502
0.0230469
0.0230442
0.0230424
0.0230411
0.0230408
0.0230412
0.0230426
0.0230447
0.0230479
0.0230519
0.0230571
0.0230631
0.0230704
0.0230785
0.0230879
0.0230983
0.0231099
0.0231224
0.0231362
0.023151
0.023167
0.0231841
0.0232027
0.0232223
0.0232436
0.023266
0.02329
0.0233152
0.023342
0.0233698
0.023399
0.0234291
0.0234603
0.0234921
0.0235248
0.0235579
0.0235917
0.0236255
0.02366
0.0236944
0.0237291
0.0237639
0.0237989
0.0238338
0.0238687
0.0239024
0.0239342
0.023963
0.0239888
0.0240108
0.0240291
0.0240432
0.024053
0.0240581
0.0240584
0.0240534
0.0240434
0.0240283
0.0240086
0.0239849
0.0239585
0.0239308
0.0239041
0.023881
0.0238644
0.0238574
0.0238621
0.0238819
0.0239216
0.0239876
0.0240866
0.0242242
0.0244066
0.024639
0.0249262
0.0252722
0.0256792
0.0261467
0.0266722
0.0272494
0.0278688
0.028517
0.0291768
0.0298293
0.0304528
0.0310259
0.0315289
0.0319457
0.0322668
0.0324907
0.0326245
0.0326861
0.0326986
0.0326951
0.0327029
0.0327555
0.0328642
0.0330444
0.0332739
0.0335409
0.0337881
0.0339851
0.0340427
0.0339197
0.0335764
0.0329791
0.0321038
0.0309465
0.0295179
0.0278419
0.025946
0.0238749
0.021636
0.0194506
0.0170974
0.0158701
0.0152801
0.0231156
0.0231059
0.0230976
0.0230906
0.0230846
0.0230798
0.023076
0.0230735
0.0230721
0.023072
0.023073
0.0230753
0.0230786
0.0230834
0.0230893
0.0230966
0.0231051
0.023115
0.023126
0.0231385
0.0231521
0.0231672
0.0231834
0.0232011
0.0232199
0.0232404
0.023262
0.0232853
0.0233098
0.0233361
0.0233635
0.0233925
0.0234226
0.0234541
0.0234863
0.0235197
0.0235536
0.0235884
0.0236233
0.0236589
0.0236944
0.0237303
0.023766
0.0238018
0.0238373
0.0238729
0.023908
0.0239428
0.0239761
0.024007
0.0240343
0.0240577
0.0240765
0.0240907
0.0240997
0.0241032
0.0241006
0.0240918
0.0240761
0.0240536
0.0240242
0.0239881
0.0239458
0.0238982
0.0238468
0.0237936
0.0237408
0.0236907
0.0236457
0.0236077
0.0235798
0.0235674
0.0235772
0.0236161
0.0236897
0.0238046
0.0239668
0.0241818
0.0244551
0.0247906
0.0251899
0.0256529
0.0261761
0.0267529
0.0273735
0.0280237
0.0286875
0.0293456
0.0299784
0.0305664
0.0310926
0.0315446
0.0319165
0.0322092
0.0324333
0.0326033
0.032744
0.0328748
0.0330227
0.0331949
0.0334047
0.0336309
0.0338642
0.0340528
0.0341714
0.0341366
0.0339126
0.0334634
0.0327565
0.0317682
0.0304938
0.0289438
0.0271404
0.025111
0.0229004
0.0205227
0.0182133
0.0157764
0.0143901
0.0136004
0.0231994
0.0231843
0.0231711
0.0231596
0.0231497
0.0231414
0.0231346
0.0231294
0.0231257
0.0231237
0.0231232
0.0231242
0.0231267
0.0231309
0.0231364
0.0231435
0.023152
0.0231622
0.0231737
0.0231869
0.0232014
0.0232175
0.0232349
0.0232539
0.0232742
0.0232963
0.0233196
0.0233447
0.0233711
0.0233993
0.0234287
0.0234598
0.0234919
0.0235255
0.0235598
0.0235953
0.0236313
0.023668
0.023705
0.0237424
0.0237796
0.023817
0.0238539
0.0238907
0.0239269
0.0239628
0.0239979
0.0240322
0.0240645
0.0240938
0.0241188
0.024139
0.0241536
0.0241625
0.0241648
0.0241603
0.0241482
0.024128
0.0240992
0.0240614
0.0240145
0.0239584
0.0238932
0.0238197
0.0237391
0.0236531
0.0235634
0.0234718
0.0233798
0.0232887
0.0232017
0.0231242
0.023063
0.0230246
0.0230149
0.0230399
0.0231061
0.0232198
0.0233872
0.0236134
0.0239017
0.0242542
0.0246696
0.0251443
0.0256715
0.0262406
0.0268385
0.0274493
0.0280556
0.0286399
0.0291855
0.0296793
0.0301131
0.0304837
0.0307964
0.0310596
0.031291
0.0315034
0.0317178
0.031937
0.0321715
0.0323999
0.0326143
0.0327656
0.0328329
0.0327369
0.0324464
0.0319286
0.0311529
0.030097
0.0287573
0.0271458
0.0252864
0.0232094
0.020964
0.0185751
0.0162945
0.013956
0.0125799
0.0118379
0.023312
0.0232932
0.0232765
0.0232618
0.0232487
0.0232376
0.0232281
0.0232206
0.0232148
0.023211
0.0232088
0.0232085
0.0232099
0.0232131
0.023218
0.0232247
0.0232329
0.023243
0.0232546
0.0232681
0.0232829
0.0232996
0.0233176
0.0233374
0.0233586
0.0233816
0.023406
0.0234323
0.0234599
0.0234894
0.0235202
0.0235527
0.0235862
0.0236213
0.0236571
0.0236942
0.0237316
0.0237699
0.0238082
0.023847
0.0238854
0.0239239
0.0239616
0.023999
0.0240354
0.0240712
0.0241057
0.024139
0.0241697
0.0241969
0.024219
0.0242354
0.0242453
0.0242484
0.0242436
0.0242308
0.0242088
0.0241771
0.024135
0.0240819
0.0240174
0.0239414
0.0238535
0.0237543
0.0236446
0.0235258
0.0233993
0.0232661
0.023127
0.0229829
0.0228368
0.0226937
0.0225604
0.0224431
0.022347
0.0222779
0.0222425
0.022247
0.0222981
0.0224019
0.0225628
0.0227842
0.0230672
0.0234102
0.0238094
0.0242571
0.0247435
0.025256
0.0257799
0.0263
0.0268014
0.0272713
0.0277008
0.0280845
0.0284243
0.0287242
0.0289965
0.0292491
0.0294976
0.0297414
0.0299881
0.0302155
0.0304163
0.0305436
0.0305793
0.0304473
0.0301205
0.0295693
0.028765
0.0276877
0.0263355
0.0247234
0.0228775
0.0208332
0.0186444
0.0163469
0.0142046
0.012075
0.0108011
0.0102228
0.0234606
0.0234392
0.0234199
0.0234027
0.0233872
0.0233738
0.0233623
0.0233528
0.0233452
0.0233396
0.0233359
0.0233343
0.0233344
0.0233366
0.0233405
0.0233464
0.0233541
0.0233637
0.0233749
0.0233881
0.0234028
0.0234195
0.0234376
0.0234576
0.0234791
0.0235025
0.0235273
0.0235541
0.0235822
0.0236123
0.0236437
0.0236768
0.023711
0.0237467
0.0237833
0.023821
0.0238591
0.0238981
0.023937
0.0239763
0.0240152
0.024054
0.0240919
0.0241292
0.0241652
0.0242002
0.0242336
0.0242653
0.024294
0.0243186
0.0243375
0.02435
0.0243552
0.0243526
0.0243413
0.0243208
0.0242899
0.024248
0.0241941
0.0241277
0.0240482
0.023955
0.0238478
0.0237266
0.0235921
0.0234452
0.023287
0.0231181
0.0229385
0.0227487
0.0225514
0.0223514
0.022155
0.0219679
0.0217948
0.0216409
0.0215127
0.0214163
0.0213586
0.021346
0.0213837
0.021476
0.0216255
0.0218325
0.0220954
0.0224094
0.0227671
0.023159
0.0235735
0.0239977
0.0244189
0.0248254
0.0252085
0.025562
0.0258858
0.0261809
0.026456
0.0267151
0.02697
0.0272168
0.0274612
0.0276801
0.0278666
0.0279754
0.0279906
0.0278389
0.0274965
0.0269367
0.0261329
0.0250679
0.0237417
0.0221721
0.0203879
0.0184287
0.0163521
0.0142024
0.012248
0.010362
0.00921264
0.00881596
0.0236407
0.0236189
0.0235989
0.0235809
0.0235645
0.02355
0.0235372
0.0235264
0.0235175
0.0235106
0.0235055
0.0235025
0.0235013
0.0235023
0.023505
0.0235099
0.0235165
0.0235252
0.0235357
0.0235481
0.0235622
0.0235783
0.0235959
0.0236155
0.0236366
0.0236597
0.0236843
0.0237108
0.0237388
0.0237688
0.0238001
0.0238331
0.0238673
0.023903
0.0239395
0.0239772
0.0240153
0.0240541
0.024093
0.0241321
0.0241707
0.0242091
0.0242464
0.0242829
0.024318
0.0243517
0.0243834
0.0244131
0.0244394
0.0244613
0.0244769
0.0244857
0.0244866
0.0244791
0.0244622
0.0244353
0.0243973
0.0243473
0.0242843
0.0242077
0.0241168
0.0240108
0.0238891
0.0237516
0.0235985
0.0234307
0.0232488
0.023053
0.0228429
0.0226184
0.022382
0.0221383
0.021893
0.0216511
0.0214169
0.0211948
0.0209909
0.0208113
0.0206623
0.0205506
0.0204818
0.0204607
0.0204909
0.0205741
0.0207102
0.0208967
0.0211285
0.0213988
0.0216983
0.0220167
0.0223436
0.0226686
0.0229838
0.0232832
0.0235652
0.0238295
0.0240817
0.0243238
0.0245638
0.0247968
0.0250254
0.0252274
0.0253949
0.0254856
0.0254837
0.0253191
0.0249706
0.0244146
0.0236263
0.0225912
0.0213106
0.0198049
0.0181045
0.0162525
0.0143076
0.0123197
0.0105548
0.00889498
0.0078505
0.00760477
0.023861
0.0238389
0.0238185
0.0237999
0.0237827
0.0237674
0.0237537
0.0237419
0.0237318
0.0237237
0.0237174
0.0237132
0.0237107
0.0237103
0.0237117
0.0237152
0.0237205
0.023728
0.0237371
0.0237484
0.0237613
0.0237763
0.0237929
0.0238115
0.0238317
0.0238539
0.0238776
0.0239034
0.0239306
0.0239598
0.0239903
0.0240227
0.0240561
0.0240911
0.0241268
0.0241637
0.024201
0.024239
0.024277
0.0243152
0.0243528
0.0243901
0.0244263
0.0244615
0.024495
0.024527
0.0245567
0.0245841
0.0246079
0.024627
0.0246396
0.024645
0.0246422
0.0246307
0.0246094
0.0245777
0.0245346
0.0244789
0.0244098
0.0243265
0.0242282
0.024114
0.0239831
0.0238352
0.0236704
0.0234893
0.0232921
0.0230791
0.0228491
0.0226018
0.0223394
0.0220663
0.0217874
0.0215073
0.0212297
0.0209582
0.0206984
0.0204561
0.0202372
0.0200482
0.0198949
0.0197821
0.0197142
0.0196936
0.0197215
0.0197971
0.019917
0.0200765
0.0202686
0.0204851
0.0207177
0.0209573
0.0211974
0.0214319
0.0216592
0.0218778
0.0220917
0.022301
0.0225114
0.0227168
0.0229184
0.0230941
0.0232362
0.023304
0.0232828
0.0231044
0.0227506
0.0222003
0.0214306
0.0204289
0.0191979
0.0177594
0.0161446
0.0143984
0.0125792
0.010739
0.00913739
0.00766042
0.00668395
0.00653989
0.0241128
0.0240922
0.024073
0.0240552
0.0240386
0.0240234
0.0240096
0.0239974
0.0239867
0.0239777
0.0239704
0.0239649
0.0239611
0.0239593
0.0239592
0.0239611
0.0239648
0.0239705
0.023978
0.0239876
0.0239988
0.0240121
0.0240271
0.0240441
0.0240626
0.0240833
0.0241055
0.0241298
0.0241556
0.0241834
0.0242126
0.0242436
0.0242757
0.0243094
0.0243439
0.0243795
0.0244155
0.0244522
0.0244888
0.0245255
0.0245617
0.0245975
0.024632
0.0246655
0.0246971
0.0247271
0.0247547
0.0247796
0.0248009
0.0248174
0.0248272
0.0248297
0.0248239
0.0248094
0.024785
0.0247501
0.0247037
0.0246448
0.0245722
0.0244853
0.0243833
0.0242652
0.0241299
0.0239772
0.0238069
0.0236193
0.0234147
0.0231929
0.0229527
0.0226933
0.0224168
0.0221272
0.0218287
0.0215257
0.021221
0.0209176
0.0206207
0.0203354
0.0200673
0.0198225
0.0196067
0.0194247
0.019281
0.0191787
0.0191197
0.0191045
0.0191309
0.0191959
0.0192944
0.0194198
0.0195657
0.0197244
0.0198905
0.0200585
0.0202265
0.0203928
0.0205598
0.020727
0.0208978
0.0210663
0.0212312
0.0213727
0.0214814
0.0215207
0.0214738
0.0212764
0.020912
0.0203621
0.0196053
0.0186313
0.0174429
0.016063
0.0145223
0.0128667
0.0111522
0.00943172
0.00795529
0.00661106
0.00566439
0.00557467
0.0244047
0.024385
0.0243664
0.024349
0.0243325
0.0243174
0.0243034
0.0242909
0.0242796
0.02427
0.0242617
0.0242551
0.02425
0.0242467
0.024245
0.0242452
0.024247
0.0242509
0.0242563
0.0242639
0.024273
0.0242842
0.0242971
0.024312
0.0243285
0.0243471
0.0243674
0.0243897
0.0244136
0.0244395
0.0244668
0.0244959
0.0245262
0.024558
0.0245906
0.0246244
0.0246586
0.0246935
0.0247282
0.0247631
0.0247974
0.0248313
0.0248639
0.0248953
0.0249249
0.0249527
0.024978
0.0250006
0.0250194
0.0250335
0.0250409
0.025041
0.025033
0.0250163
0.0249899
0.0249532
0.0249052
0.0248449
0.0247712
0.0246834
0.0245807
0.024462
0.0243263
0.0241731
0.0240022
0.0238138
0.023608
0.0233846
0.0231419
0.0228791
0.0225979
0.0223021
0.0219956
0.0216819
0.0213635
0.0210427
0.0207241
0.0204126
0.0201128
0.0198307
0.0195717
0.0193403
0.0191411
0.0189773
0.0188515
0.0187648
0.0187162
0.0187037
0.0187236
0.018771
0.0188409
0.0189267
0.0190239
0.0191279
0.0192366
0.0193484
0.0194644
0.0195839
0.0197087
0.0198329
0.019954
0.0200536
0.0201217
0.0201247
0.0200448
0.0198204
0.0194371
0.0188785
0.018125
0.0171675
0.0160093
0.0146734
0.0131895
0.0116033
0.00996768
0.00833534
0.00694576
0.00568843
0.00473946
0.00466405
0.0247212
0.0247039
0.0246872
0.0246714
0.0246563
0.024642
0.0246286
0.0246162
0.0246048
0.0245947
0.0245857
0.0245782
0.024572
0.0245673
0.024564
0.0245625
0.0245625
0.0245643
0.0245677
0.0245731
0.0245799
0.0245888
0.0245993
0.0246118
0.0246259
0.0246421
0.0246599
0.0246798
0.0247014
0.024725
0.02475
0.0247769
0.024805
0.0248347
0.0248652
0.0248969
0.024929
0.0249617
0.0249944
0.0250272
0.0250594
0.0250912
0.0251217
0.025151
0.0251783
0.025204
0.025227
0.0252474
0.025264
0.0252758
0.0252811
0.0252794
0.0252697
0.0252517
0.0252242
0.0251869
0.0251386
0.0250785
0.0250053
0.0249185
0.0248174
0.0247006
0.0245673
0.0244168
0.024249
0.0240638
0.0238614
0.0236413
0.0234018
0.0231418
0.0228629
0.0225686
0.0222622
0.021947
0.0216248
0.0212974
0.020969
0.0206438
0.0203259
0.0200211
0.0197341
0.0194691
0.0192308
0.0190223
0.0188463
0.0187049
0.0185971
0.0185224
0.0184779
0.0184598
0.0184642
0.0184859
0.0185209
0.0185654
0.018617
0.0186747
0.0187383
0.0188075
0.0188821
0.0189575
0.0190288
0.019081
0.0191017
0.0190622
0.0189413
0.0186817
0.0182704
0.017693
0.0169314
0.0159781
0.0148358
0.0135277
0.0120817
0.0105431
0.00896107
0.00738765
0.00605162
0.00484397
0.00386926
0.0037796
0.0250709
0.0250546
0.0250387
0.0250235
0.0250088
0.0249949
0.0249816
0.0249694
0.0249579
0.0249475
0.024938
0.0249299
0.0249227
0.024917
0.0249124
0.0249094
0.0249077
0.0249077
0.0249091
0.0249123
0.024917
0.0249235
0.0249316
0.0249417
0.0249533
0.0249669
0.0249822
0.0249996
0.0250186
0.0250397
0.0250622
0.0250866
0.0251122
0.0251394
0.0251674
0.0251967
0.0252263
0.0252567
0.025287
0.0253175
0.0253474
0.0253769
0.0254052
0.0254323
0.0254574
0.0254809
0.0255018
0.02552
0.0255346
0.0255445
0.0255481
0.0255449
0.0255341
0.0255153
0.0254875
0.0254503
0.0254027
0.0253437
0.0252723
0.0251879
0.0250897
0.0249766
0.0248474
0.0247017
0.0245393
0.0243599
0.0241638
0.0239504
0.0237177
0.0234645
0.0231924
0.0229044
0.0226036
0.0222929
0.0219737
0.0216471
0.0213168
0.0209868
0.0206605
0.0203432
0.0200392
0.0197524
0.0194872
0.0192467
0.0190336
0.0188502
0.0186962
0.0185714
0.018474
0.0184009
0.0183494
0.0183146
0.0182937
0.0182831
0.0182808
0.0182854
0.0182966
0.0183138
0.018336
0.0183587
0.0183765
0.018376
0.0183441
0.0182557
0.0180874
0.017785
0.0173371
0.0167313
0.0159511
0.0149898
0.0138503
0.0125548
0.0111299
0.00961975
0.00806991
0.00653148
0.00522323
0.00403769
0.0030217
0.00289757
0.025436
0.0254222
0.0254086
0.0253954
0.0253824
0.0253698
0.0253576
0.025346
0.0253348
0.0253245
0.0253149
0.0253063
0.0252985
0.0252919
0.0252862
0.0252819
0.0252787
0.0252771
0.0252766
0.0252779
0.0252804
0.0252847
0.0252904
0.025298
0.025307
0.0253181
0.0253307
0.0253454
0.0253617
0.0253801
0.0253999
0.0254217
0.0254447
0.0254693
0.0254949
0.0255216
0.0255489
0.0255768
0.0256047
0.0256329
0.0256605
0.0256877
0.0257138
0.0257387
0.0257617
0.0257831
0.025802
0.0258183
0.025831
0.0258393
0.0258414
0.0258371
0.0258256
0.0258065
0.0257789
0.0257423
0.025696
0.0256388
0.0255698
0.0254886
0.0253942
0.0252856
0.0251617
0.0250219
0.024866
0.0246939
0.0245057
0.0243006
0.0240767
0.0238326
0.0235697
0.0232908
0.0229988
0.022696
0.0223836
0.0220622
0.0217351
0.0214058
0.0210773
0.0207543
0.0204407
0.0201401
0.0198564
0.0195928
0.0193518
0.0191358
0.018945
0.0187795
0.0186379
0.0185182
0.0184179
0.0183333
0.0182616
0.0182001
0.0181464
0.0180999
0.018059
0.018024
0.017992
0.0179604
0.0179213
0.0178652
0.0177762
0.0176349
0.0174132
0.017062
0.0165706
0.0159286
0.0151206
0.0141413
0.0129931
0.0116978
0.0102799
0.00878263
0.007248
0.00572634
0.00442698
0.00324422
0.00217789
0.00200748
0.025829
0.0258161
0.0258033
0.0257908
0.0257784
0.0257664
0.0257546
0.0257434
0.0257325
0.0257224
0.0257127
0.0257039
0.0256957
0.0256885
0.025682
0.0256767
0.0256722
0.0256692
0.0256671
0.0256666
0.0256672
0.0256695
0.025673
0.0256783
0.025685
0.0256937
0.0257038
0.025716
0.0257297
0.0257455
0.0257627
0.0257818
0.0258022
0.0258242
0.0258471
0.0258713
0.025896
0.0259215
0.0259469
0.0259727
0.0259979
0.026023
0.0260469
0.0260697
0.0260907
0.0261101
0.0261271
0.0261417
0.0261527
0.0261595
0.0261605
0.0261554
0.0261435
0.0261244
0.0260972
0.0260617
0.0260169
0.0259619
0.0258957
0.0258179
0.0257277
0.0256239
0.0255055
0.0253721
0.0252233
0.0250588
0.0248789
0.0246829
0.0244686
0.0242343
0.0239816
0.0237129
0.0234308
0.0231375
0.0228338
0.0225198
0.0221985
0.0218729
0.0215456
0.0212207
0.0209021
0.0205924
0.0202958
0.0200147
0.019752
0.0195099
0.0192887
0.0190889
0.0189095
0.018749
0.0186054
0.0184756
0.0183572
0.0182478
0.0181452
0.0180487
0.0179564
0.0178687
0.0177818
0.0176941
0.0175965
0.0174819
0.0173332
0.0171349
0.0168561
0.0164513
0.015911
0.0152263
0.0143836
0.0133784
0.0122127
0.0109078
0.00948627
0.00799043
0.00645878
0.00494098
0.00363783
0.00244516
0.0013238
0.00109963
0.0262279
0.0262177
0.0262074
0.0261971
0.0261865
0.0261761
0.0261656
0.0261554
0.0261452
0.0261355
0.026126
0.0261172
0.0261088
0.0261012
0.0260941
0.0260881
0.0260827
0.0260786
0.0260753
0.0260734
0.0260725
0.0260731
0.0260747
0.0260781
0.0260827
0.0260891
0.026097
0.0261068
0.0261182
0.0261316
0.0261464
0.0261631
0.0261811
0.0262007
0.0262213
0.0262431
0.0262655
0.0262887
0.0263119
0.0263354
0.0263585
0.0263815
0.0264034
0.0264242
0.0264433
0.026461
0.0264764
0.0264894
0.026499
0.0265045
0.0265045
0.0264988
0.0264867
0.0264679
0.0264413
0.0264069
0.0263639
0.0263112
0.0262478
0.0261734
0.0260874
0.0259884
0.0258755
0.0257482
0.0256062
0.0254493
0.0252776
0.0250904
0.0248854
0.024661
0.0244182
0.0241598
0.0238877
0.023604
0.0233093
0.0230033
0.0226886
0.022368
0.0220433
0.0217185
0.021397
0.021081
0.0207744
0.0204794
0.0201986
0.0199344
0.0196869
0.0194571
0.0192441
0.0190468
0.0188637
0.018692
0.0185298
0.0183749
0.0182249
0.0180796
0.0179364
0.0177962
0.017654
0.0175095
0.0173521
0.0171776
0.0169671
0.0167097
0.0163705
0.0159092
0.0153164
0.0145848
0.0137021
0.0126652
0.0114754
0.0101537
0.00872084
0.00721809
0.00568074
0.00415794
0.00284259
0.00163184
0.000453787
0.000172877
0.026648
0.0266384
0.0266284
0.0266186
0.0266086
0.0265987
0.0265888
0.0265791
0.0265695
0.0265603
0.0265513
0.0265428
0.0265346
0.026527
0.0265198
0.0265135
0.0265077
0.0265029
0.0264989
0.0264961
0.0264941
0.0264934
0.0264937
0.0264956
0.0264986
0.0265034
0.0265095
0.0265175
0.0265269
0.0265383
0.026551
0.0265655
0.0265812
0.0265986
0.0266169
0.0266366
0.0266568
0.0266778
0.0266988
0.0267203
0.0267414
0.0267624
0.0267824
0.0268015
0.0268189
0.026835
0.0268489
0.0268606
0.026869
0.0268734
0.0268726
0.0268665
0.0268543
0.0268358
0.02681
0.0267769
0.0267355
0.026685
0.0266244
0.0265533
0.0264711
0.0263766
0.0262687
0.0261471
0.0260115
0.0258615
0.0256973
0.0255183
0.0253219
0.0251064
0.0248729
0.0246238
0.024361
0.0240864
0.0238001
0.0235017
0.0231933
0.0228775
0.0225557
0.0222314
0.0219076
0.0215864
0.0212711
0.0209639
0.020667
0.0203829
0.0201117
0.0198544
0.0196104
0.0193788
0.0191586
0.0189472
0.0187428
0.0185437
0.0183475
0.0181541
0.0179602
0.0177674
0.0175697
0.0173677
0.01715
0.0169144
0.016641
0.0163225
0.0159216
0.0154014
0.0147536
0.013972
0.013046
0.0119732
0.010755
0.00941152
0.00796195
0.00644668
0.00489801
0.00336448
0.00203189
0.000798164
-0.000436711
-0.000776008
0.0270668
0.0270599
0.0270526
0.0270451
0.0270373
0.0270292
0.0270208
0.0270125
0.027004
0.0269957
0.0269873
0.0269793
0.0269715
0.0269642
0.0269571
0.0269508
0.0269448
0.0269398
0.0269353
0.0269319
0.0269292
0.0269277
0.026927
0.0269277
0.0269295
0.0269328
0.0269375
0.0269439
0.0269517
0.0269613
0.0269723
0.0269851
0.026999
0.0270146
0.0270311
0.027049
0.0270674
0.0270866
0.0271059
0.0271255
0.0271449
0.0271643
0.0271828
0.0272004
0.0272164
0.0272311
0.0272438
0.0272543
0.0272617
0.0272652
0.0272637
0.0272574
0.0272453
0.0272272
0.0272022
0.0271702
0.0271305
0.027082
0.0270239
0.0269558
0.0268771
0.0267866
0.0266832
0.0265667
0.0264367
0.0262928
0.0261353
0.0259632
0.0257744
0.0255667
0.0253413
0.0251005
0.0248458
0.024579
0.0243001
0.0240082
0.0237052
0.0233934
0.0230737
0.0227495
0.0224233
0.0220969
0.0217733
0.0214543
0.0211422
0.0208392
0.0205455
0.020262
0.0199885
0.0197241
0.0194681
0.0192182
0.0189728
0.0187305
0.0184887
0.0182474
0.0180033
0.0177578
0.0175046
0.017245
0.0169666
0.0166694
0.0163326
0.0159521
0.015488
0.0149082
0.014204
0.0133709
0.0123993
0.0112881
0.0100383
0.00866958
0.00719967
0.00566807
0.00410425
0.00255624
0.00120318
-5.66225e-05
-0.00134748
-0.00174462
0.0275049
0.0274985
0.0274916
0.0274846
0.0274773
0.0274699
0.0274624
0.0274549
0.0274473
0.0274399
0.0274324
0.0274252
0.027418
0.0274113
0.0274047
0.0273986
0.0273929
0.0273879
0.0273833
0.0273797
0.0273766
0.0273747
0.0273735
0.0273735
0.0273745
0.0273771
0.0273807
0.0273861
0.0273927
0.0274012
0.0274108
0.0274222
0.0274347
0.0274487
0.0274637
0.02748
0.0274969
0.0275145
0.0275323
0.0275505
0.0275684
0.0275865
0.0276036
0.0276199
0.0276347
0.0276483
0.02766
0.0276697
0.0276762
0.027679
0.0276771
0.0276706
0.0276587
0.027641
0.0276167
0.0275859
0.0275477
0.0275011
0.0274451
0.0273797
0.0273041
0.0272171
0.0271176
0.0270054
0.0268802
0.0267415
0.0265895
0.0264235
0.0262409
0.0260399
0.0258212
0.0255872
0.0253393
0.0250789
0.024806
0.0245193
0.0242204
0.0239114
0.0235928
0.0232676
0.0229382
0.022606
0.0222736
0.0219428
0.0216155
0.0212938
0.020978
0.020669
0.0203664
0.02007
0.0197788
0.019491
0.0192051
0.0189198
0.0186326
0.0183436
0.0180492
0.0177509
0.0174421
0.0171245
0.0167854
0.0164263
0.0160258
0.0155824
0.0150551
0.0144147
0.0136534
0.0127677
0.0117494
0.010598
0.00931467
0.00791856
0.00642597
0.00487559
0.00329428
0.00172944
0.000354142
-0.000933575
-0.00227937
-0.00273398
0.0279355
0.0279319
0.0279278
0.0279234
0.0279186
0.0279134
0.0279077
0.0279019
0.0278958
0.0278897
0.0278834
0.0278772
0.027871
0.027865
0.0278591
0.0278537
0.0278485
0.0278439
0.0278397
0.0278362
0.0278333
0.0278313
0.02783
0.0278298
0.0278304
0.0278324
0.0278355
0.0278403
0.0278462
0.0278538
0.0278626
0.0278731
0.0278847
0.0278978
0.0279118
0.0279272
0.027943
0.0279596
0.0279763
0.0279935
0.0280104
0.0280275
0.0280437
0.0280591
0.028073
0.0280858
0.0280968
0.0281058
0.0281117
0.028114
0.0281117
0.0281052
0.0280935
0.0280763
0.0280527
0.0280229
0.0279861
0.0279411
0.0278871
0.027824
0.0277511
0.027667
0.0275708
0.0274622
0.027341
0.0272066
0.0270592
0.026898
0.0267205
0.0265247
0.0263115
0.026083
0.0258403
0.025585
0.0253167
0.0250337
0.0247376
0.0244299
0.0241111
0.0237838
0.0234501
0.0231111
0.0227692
0.0224259
0.0220831
0.0217426
0.0214045
0.02107
0.0207387
0.0204103
0.0200841
0.0197586
0.0194324
0.0191042
0.0187716
0.0184348
0.0180899
0.0177388
0.0173744
0.0169988
0.016599
0.0161779
0.0157138
0.0152073
0.0146162
0.0139153
0.0130969
0.0121584
0.0110925
0.00990007
0.00858186
0.00715681
0.00563985
0.00406894
0.00246841
0.000885054
-0.00051381
-0.00183082
-0.00323039
-0.00374096
0.0283861
0.0283827
0.0283788
0.0283749
0.0283706
0.0283663
0.0283616
0.028357
0.0283521
0.0283472
0.0283422
0.0283372
0.0283322
0.0283273
0.0283224
0.0283178
0.0283134
0.0283094
0.0283058
0.0283028
0.0283003
0.0282986
0.0282975
0.0282975
0.0282982
0.0283003
0.0283033
0.0283079
0.0283136
0.028321
0.0283294
0.0283394
0.0283503
0.0283628
0.0283762
0.0283908
0.0284059
0.0284218
0.0284377
0.0284541
0.0284703
0.0284867
0.0285023
0.0285171
0.0285304
0.0285426
0.0285531
0.0285617
0.0285673
0.0285692
0.0285668
0.0285603
0.0285489
0.0285322
0.0285093
0.0284805
0.0284449
0.0284014
0.0283491
0.0282879
0.0282172
0.0281356
0.0280421
0.0279365
0.0278186
0.0276876
0.0275437
0.0273864
0.0272129
0.0270211
0.0268121
0.0265877
0.026349