/*--------------------------------*- C++ -*----------------------------------*\
  =========                 |
  \\      /  F ield         | OpenFOAM: The Open Source CFD Toolbox
   \\    /   O peration     | Website:  https://openfoam.org
    \\  /    A nd           | Version:  6.0
     \\/     M anipulation  |
\*---------------------------------------------------------------------------*/
FoamFile
{
    version     2.0;
    format      ascii;
    class       volScalarField;
    location    "3.31";
    object      p;
}
// * * * * * * * * * * * * * * * * * * * * * * * * * * * * * * * * * * * * * //

dimensions      [0 2 -2 0 0 0 0];

internalField   nonuniform List<scalar> 
13500
(
0.097701
0.097753
0.097239
0.096869
0.095692
0.095471
0.094164
0.095158
0.095917
0.09945
0.12221
0.16393
0.097701
0.097754
0.097239
0.09687
0.095691
0.095472
0.094163
0.095158
0.095914
0.099511
0.12153
0.15887
0.097701
0.097755
0.097239
0.096871
0.09569
0.095473
0.09416
0.095158
0.095905
0.099554
0.12066
0.15438
0.097702
0.097756
0.097239
0.096873
0.095689
0.095475
0.094156
0.095157
0.09589
0.099574
0.11968
0.15087
0.097703
0.097758
0.097239
0.096876
0.095688
0.095476
0.094151
0.095154
0.09587
0.099579
0.11865
0.1479
0.097705
0.097761
0.09724
0.096878
0.095687
0.095477
0.094146
0.095151
0.095845
0.099571
0.11757
0.14525
0.097707
0.097763
0.097242
0.096881
0.095687
0.095479
0.09414
0.095147
0.095815
0.099551
0.11649
0.14285
0.09771
0.097767
0.097243
0.096884
0.095686
0.09548
0.094133
0.095142
0.09578
0.099517
0.11542
0.14064
0.097712
0.09777
0.097245
0.096887
0.095686
0.095481
0.094126
0.095135
0.095739
0.099469
0.11437
0.1386
0.097716
0.097774
0.097248
0.09689
0.095686
0.095482
0.094119
0.095128
0.095694
0.099407
0.11335
0.13669
0.09772
0.097778
0.097251
0.096894
0.095686
0.095483
0.09411
0.09512
0.095643
0.099333
0.11237
0.1349
0.097724
0.097783
0.097254
0.096898
0.095686
0.095483
0.094101
0.095111
0.095586
0.099247
0.11143
0.13322
0.097729
0.097788
0.097257
0.096902
0.095686
0.095484
0.094092
0.095101
0.095525
0.099151
0.11054
0.13162
0.097734
0.097794
0.097262
0.096907
0.095687
0.095485
0.094082
0.09509
0.095458
0.099046
0.10968
0.1301
0.09774
0.0978
0.097266
0.096912
0.095687
0.095485
0.094071
0.095078
0.095385
0.098933
0.10887
0.12865
0.097746
0.097806
0.097271
0.096917
0.095688
0.095486
0.09406
0.095064
0.095307
0.098814
0.10809
0.12727
0.097752
0.097813
0.097276
0.096922
0.095689
0.095486
0.094048
0.09505
0.095224
0.09869
0.10735
0.12594
0.09776
0.097821
0.097282
0.096928
0.09569
0.095486
0.094035
0.095034
0.095135
0.098563
0.10664
0.12467
0.097767
0.097828
0.097288
0.096934
0.095691
0.095487
0.094022
0.095017
0.09504
0.098434
0.10595
0.12345
0.097775
0.097837
0.097294
0.09694
0.095693
0.095487
0.094009
0.094999
0.094941
0.098303
0.10529
0.12227
0.097784
0.097845
0.097301
0.096947
0.095694
0.095487
0.093994
0.09498
0.094837
0.098172
0.10465
0.12113
0.097793
0.097854
0.097309
0.096954
0.095696
0.095487
0.09398
0.09496
0.094728
0.098042
0.10403
0.12003
0.097802
0.097864
0.097317
0.096961
0.095698
0.095486
0.093964
0.094938
0.094615
0.097913
0.10343
0.11897
0.097812
0.097874
0.097325
0.096968
0.095701
0.095486
0.093948
0.094915
0.094498
0.097784
0.10283
0.11793
0.097823
0.097885
0.097334
0.096976
0.095703
0.095486
0.093932
0.09489
0.094377
0.097658
0.10225
0.11692
0.097834
0.097896
0.097343
0.096984
0.095706
0.095485
0.093915
0.094864
0.094253
0.097533
0.10168
0.11593
0.097846
0.097907
0.097353
0.096993
0.095708
0.095485
0.093897
0.094837
0.094126
0.09741
0.10112
0.11497
0.097858
0.097919
0.097363
0.097001
0.095712
0.095484
0.093879
0.094808
0.093996
0.097289
0.10056
0.11404
0.097871
0.097931
0.097373
0.09701
0.095715
0.095484
0.093861
0.094777
0.093864
0.097169
0.10001
0.11312
0.097884
0.097944
0.097384
0.09702
0.095718
0.095483
0.093841
0.094745
0.09373
0.09705
0.099464
0.11222
0.097898
0.097958
0.097396
0.09703
0.095722
0.095482
0.093822
0.094712
0.093594
0.096933
0.098924
0.11134
0.097912
0.097972
0.097408
0.09704
0.095726
0.095481
0.093801
0.094677
0.093457
0.096816
0.098389
0.11048
0.097927
0.097986
0.097421
0.09705
0.09573
0.09548
0.09378
0.094641
0.093319
0.0967
0.097858
0.10963
0.097942
0.098001
0.097434
0.097061
0.095734
0.095479
0.093759
0.094603
0.09318
0.096584
0.097332
0.1088
0.097958
0.098016
0.097447
0.097072
0.095739
0.095477
0.093737
0.094564
0.093041
0.096468
0.09681
0.10799
0.097975
0.098032
0.097461
0.097083
0.095744
0.095476
0.093714
0.094523
0.092901
0.096351
0.096293
0.10719
0.097992
0.098049
0.097476
0.097095
0.095749
0.095475
0.093691
0.094481
0.092762
0.096234
0.095781
0.1064
0.098009
0.098066
0.097491
0.097107
0.095754
0.095473
0.093668
0.094438
0.092623
0.096116
0.095273
0.10563
0.098028
0.098083
0.097506
0.09712
0.09576
0.095471
0.093643
0.094394
0.092484
0.095996
0.094771
0.10487
0.098047
0.098101
0.097522
0.097133
0.095766
0.09547
0.093618
0.094349
0.092346
0.095875
0.094274
0.10413
0.098066
0.09812
0.097539
0.097146
0.095772
0.095468
0.093593
0.094303
0.092209
0.095753
0.093782
0.1034
0.098086
0.098139
0.097556
0.097159
0.095779
0.095466
0.093567
0.094256
0.092072
0.095628
0.093296
0.10269
0.098107
0.098159
0.097574
0.097173
0.095785
0.095464
0.09354
0.094208
0.091935
0.095502
0.092816
0.10198
0.098128
0.098179
0.097592
0.097188
0.095792
0.095462
0.093513
0.09416
0.0918
0.095374
0.092342
0.10129
0.09815
0.0982
0.09761
0.097202
0.0958
0.095459
0.093485
0.094111
0.091665
0.095243
0.091874
0.10061
0.098172
0.098221
0.09763
0.097218
0.095807
0.095457
0.093456
0.094062
0.091531
0.09511
0.091413
0.099949
0.098195
0.098243
0.09765
0.097233
0.095815
0.095455
0.093427
0.094013
0.091398
0.094975
0.090958
0.099296
0.098219
0.098266
0.09767
0.097249
0.095823
0.095452
0.093397
0.093964
0.091265
0.094838
0.09051
0.098655
0.098243
0.098289
0.097691
0.097265
0.095832
0.09545
0.093367
0.093914
0.091132
0.094698
0.090069
0.098026
0.098268
0.098313
0.097712
0.097282
0.095841
0.095447
0.093336
0.093865
0.091
0.094556
0.089635
0.097409
0.098293
0.098337
0.097734
0.097299
0.09585
0.095444
0.093304
0.093816
0.090869
0.094412
0.089208
0.096803
0.09832
0.098362
0.097757
0.097316
0.09586
0.095441
0.093272
0.093767
0.090738
0.094266
0.088788
0.096208
0.098346
0.098387
0.09778
0.097334
0.095869
0.095438
0.093239
0.093718
0.090607
0.094117
0.088374
0.095624
0.098374
0.098413
0.097804
0.097352
0.09588
0.095435
0.093206
0.09367
0.090476
0.093967
0.087968
0.095052
0.098402
0.09844
0.097828
0.09737
0.09589
0.095432
0.093173
0.093622
0.090345
0.093814
0.087569
0.094489
0.098431
0.098467
0.097853
0.097389
0.095901
0.095429
0.093138
0.093575
0.090214
0.09366
0.087176
0.093937
0.09846
0.098495
0.097879
0.097409
0.095912
0.095425
0.093104
0.093529
0.090082
0.093503
0.08679
0.093395
0.09849
0.098524
0.097905
0.097429
0.095924
0.095422
0.093069
0.093483
0.089951
0.093345
0.086411
0.092862
0.098521
0.098553
0.097932
0.097449
0.095936
0.095419
0.093033
0.093438
0.089819
0.093185
0.086039
0.092339
0.098552
0.098582
0.097959
0.09747
0.095948
0.095415
0.092998
0.093394
0.089687
0.093023
0.085673
0.091825
0.098584
0.098613
0.097987
0.097491
0.095961
0.095412
0.092962
0.09335
0.089555
0.09286
0.085313
0.09132
0.098617
0.098644
0.098016
0.097512
0.095974
0.095408
0.092925
0.093308
0.089422
0.092696
0.08496
0.090824
0.09865
0.098676
0.098045
0.097534
0.095988
0.095404
0.092888
0.093265
0.089289
0.09253
0.084613
0.090336
0.098684
0.098708
0.098075
0.097556
0.096002
0.095401
0.092852
0.093224
0.089155
0.092362
0.084272
0.089856
0.098719
0.098741
0.098105
0.097579
0.096016
0.095397
0.092815
0.093183
0.089021
0.092194
0.083936
0.089385
0.098755
0.098774
0.098136
0.097602
0.096031
0.095394
0.092777
0.093142
0.088887
0.092024
0.083606
0.088921
0.098791
0.098809
0.098168
0.097626
0.096046
0.09539
0.09274
0.093103
0.088752
0.091853
0.083282
0.088464
0.098828
0.098844
0.0982
0.09765
0.096061
0.095387
0.092702
0.093063
0.088616
0.091681
0.082963
0.088015
0.098865
0.098879
0.098233
0.097675
0.096077
0.095383
0.092665
0.093025
0.088481
0.091508
0.08265
0.087573
0.098904
0.098916
0.098267
0.0977
0.096093
0.09538
0.092627
0.092986
0.088345
0.091335
0.082341
0.087137
0.098943
0.098953
0.098301
0.097725
0.09611
0.095377
0.092589
0.092948
0.088209
0.09116
0.082038
0.086709
0.098982
0.09899
0.098336
0.097752
0.096127
0.095374
0.092552
0.09291
0.088072
0.090985
0.081739
0.086286
0.099023
0.099029
0.098372
0.097778
0.096145
0.095371
0.092514
0.092872
0.087936
0.090809
0.081445
0.08587
0.099064
0.099068
0.098408
0.097805
0.096163
0.095368
0.092476
0.092835
0.087799
0.090632
0.081156
0.08546
0.099106
0.099108
0.098445
0.097832
0.096181
0.095366
0.092439
0.092797
0.087663
0.090455
0.080871
0.085056
0.099149
0.099148
0.098483
0.09786
0.0962
0.095363
0.092401
0.09276
0.087526
0.090278
0.08059
0.084657
0.099192
0.099189
0.098521
0.097889
0.096219
0.095361
0.092363
0.092722
0.08739
0.0901
0.080314
0.084264
0.099236
0.099231
0.09856
0.097918
0.096238
0.09536
0.092326
0.092685
0.087253
0.089921
0.080042
0.083877
0.099281
0.099274
0.0986
0.097948
0.096258
0.095358
0.092288
0.092647
0.087117
0.089742
0.079774
0.083494
0.099327
0.099317
0.09864
0.097978
0.096278
0.095357
0.092251
0.092609
0.086982
0.089563
0.07951
0.083117
0.099373
0.099362
0.098681
0.098008
0.096299
0.095357
0.092214
0.09257
0.086846
0.089383
0.07925
0.082744
0.099421
0.099406
0.098723
0.098039
0.09632
0.095357
0.092176
0.092531
0.086711
0.089203
0.078993
0.082377
0.099469
0.099452
0.098766
0.098071
0.096342
0.095357
0.092139
0.092492
0.086577
0.089024
0.07874
0.082014
0.099517
0.099499
0.098809
0.098103
0.096364
0.095357
0.092102
0.092453
0.086443
0.088843
0.078491
0.081656
0.099567
0.099546
0.098853
0.098136
0.096386
0.095358
0.092065
0.092413
0.086309
0.088663
0.078245
0.081302
0.099617
0.099594
0.098898
0.09817
0.096408
0.09536
0.092028
0.092372
0.086177
0.088483
0.078003
0.080952
0.099669
0.099643
0.098943
0.098204
0.096431
0.095362
0.091991
0.092331
0.086044
0.088303
0.077764
0.080607
0.099721
0.099692
0.098989
0.098239
0.096455
0.095364
0.091954
0.092289
0.085913
0.088122
0.077528
0.080265
0.099773
0.099743
0.099036
0.098274
0.096479
0.095368
0.091917
0.092247
0.085783
0.087942
0.077295
0.079928
0.099827
0.099794
0.099084
0.09831
0.096503
0.095371
0.09188
0.092204
0.085653
0.087762
0.077066
0.079595
0.099882
0.099846
0.099132
0.098347
0.096527
0.095376
0.091844
0.09216
0.085524
0.087581
0.076839
0.079265
0.099937
0.099899
0.099181
0.098384
0.096552
0.09538
0.091807
0.092116
0.085396
0.087401
0.076616
0.078939
0.099993
0.099953
0.099231
0.098422
0.096578
0.095386
0.09177
0.092071
0.085269
0.087221
0.076395
0.078617
0.10005
0.10001
0.099282
0.098461
0.096603
0.095392
0.091734
0.092025
0.085142
0.087041
0.076178
0.078298
0.10011
0.10006
0.099334
0.0985
0.09663
0.095399
0.091698
0.091979
0.085017
0.086861
0.075963
0.077983
0.10017
0.10012
0.099386
0.09854
0.096656
0.095406
0.091661
0.091932
0.084893
0.086682
0.07575
0.07767
0.10023
0.10018
0.099439
0.098581
0.096683
0.095414
0.091625
0.091884
0.084769
0.086502
0.075541
0.077362
0.10029
0.10024
0.099493
0.098623
0.09671
0.095422
0.091589
0.091835
0.084647
0.086323
0.075334
0.077056
0.10035
0.1003
0.099548
0.098665
0.096738
0.095432
0.091553
0.091786
0.084525
0.086144
0.075129
0.076753
0.10041
0.10036
0.099604
0.098709
0.096766
0.095442
0.091517
0.091736
0.084404
0.085965
0.074927
0.076453
0.10048
0.10042
0.09966
0.098753
0.096795
0.095452
0.091482
0.091685
0.084285
0.085787
0.074727
0.076157
0.10054
0.10048
0.099718
0.098798
0.096824
0.095464
0.091446
0.091633
0.084166
0.085609
0.07453
0.075862
0.10061
0.10054
0.099776
0.098844
0.096853
0.095476
0.091411
0.091581
0.084049
0.08543
0.074335
0.075571
0.10067
0.10061
0.099835
0.098891
0.096883
0.095489
0.091376
0.091528
0.083932
0.085253
0.074142
0.075282
0.10074
0.10067
0.099896
0.098938
0.096913
0.095502
0.091341
0.091474
0.083816
0.085075
0.073951
0.074996
0.10081
0.10074
0.099957
0.098987
0.096944
0.095516
0.091307
0.09142
0.083702
0.084898
0.073762
0.074712
0.10088
0.10081
0.10002
0.099037
0.096975
0.095531
0.091273
0.091364
0.083588
0.08472
0.073575
0.074431
0.10095
0.10088
0.10008
0.099087
0.097007
0.095547
0.091239
0.091308
0.083475
0.084543
0.07339
0.074152
0.10102
0.10095
0.10015
0.099139
0.09704
0.095563
0.091205
0.091252
0.083363
0.084367
0.073208
0.073875
0.1011
0.10102
0.10021
0.099192
0.097073
0.09558
0.091172
0.091194
0.083252
0.08419
0.073026
0.0736
0.10117
0.10109
0.10028
0.099245
0.097106
0.095598
0.091139
0.091137
0.083142
0.084014
0.072847
0.073327
0.10125
0.10116
0.10035
0.0993
0.09714
0.095617
0.091107
0.091078
0.083032
0.083838
0.072669
0.073056
0.10132
0.10124
0.10041
0.099356
0.097175
0.095636
0.091075
0.091019
0.082924
0.083662
0.072493
0.072787
0.1014
0.10132
0.10048
0.099414
0.09721
0.095657
0.091044
0.090959
0.082816
0.083487
0.072319
0.07252
0.10148
0.10139
0.10055
0.099472
0.097247
0.095678
0.091013
0.090899
0.08271
0.083311
0.072146
0.072255
0.10156
0.10147
0.10063
0.099532
0.097283
0.0957
0.090983
0.090838
0.082604
0.083136
0.071975
0.071991
0.10164
0.10155
0.1007
0.099593
0.097321
0.095722
0.090953
0.090776
0.082499
0.082961
0.071805
0.071728
0.10173
0.10164
0.10078
0.099656
0.09736
0.095746
0.090924
0.090715
0.082395
0.082786
0.071636
0.071468
0.10181
0.10172
0.10085
0.09972
0.097399
0.09577
0.090896
0.090652
0.082291
0.082611
0.071468
0.071208
0.1019
0.10181
0.10093
0.099785
0.097439
0.095796
0.090868
0.090589
0.082189
0.082437
0.071302
0.07095
0.10199
0.10189
0.10101
0.099852
0.09748
0.095822
0.090842
0.090526
0.082087
0.082262
0.071137
0.070693
0.10208
0.10198
0.10109
0.09992
0.097523
0.09585
0.090816
0.090463
0.081986
0.082088
0.070973
0.070437
0.10217
0.10207
0.10117
0.099991
0.097566
0.095878
0.09079
0.090399
0.081885
0.081913
0.07081
0.070182
0.10227
0.10217
0.10126
0.10006
0.09761
0.095907
0.090766
0.090335
0.081786
0.081739
0.070648
0.069928
0.10236
0.10226
0.10134
0.10014
0.097656
0.095938
0.090743
0.09027
0.081687
0.081565
0.070486
0.069675
0.10246
0.10236
0.10143
0.10021
0.097703
0.095969
0.090721
0.090206
0.081589
0.081391
0.070326
0.069423
0.10256
0.10246
0.10152
0.10029
0.097751
0.096002
0.0907
0.090141
0.081492
0.081217
0.070166
0.069172
0.10266
0.10256
0.10161
0.10037
0.097801
0.096036
0.09068
0.090076
0.081395
0.081043
0.070007
0.068921
0.10277
0.10266
0.1017
0.10045
0.097852
0.096071
0.090661
0.090011
0.081299
0.080869
0.069849
0.068671
0.10287
0.10277
0.1018
0.10053
0.097905
0.096108
0.090644
0.089946
0.081204
0.080695
0.069691
0.068421
0.10298
0.10288
0.1019
0.10062
0.09796
0.096146
0.090627
0.089881
0.08111
0.080521
0.069534
0.068171
0.10309
0.10299
0.102
0.10071
0.098016
0.096185
0.090613
0.089817
0.081016
0.080347
0.069377
0.067922
0.10321
0.1031
0.1021
0.1008
0.098074
0.096226
0.090599
0.089752
0.080924
0.080173
0.069221
0.067673
0.10332
0.10322
0.10221
0.10089
0.098134
0.096268
0.090588
0.089688
0.080832
0.079999
0.069065
0.067424
0.10344
0.10334
0.10231
0.10099
0.098197
0.096312
0.090578
0.089624
0.080741
0.079825
0.068909
0.067175
0.10356
0.10346
0.10242
0.10108
0.098261
0.096358
0.090569
0.08956
0.080651
0.079652
0.068753
0.066926
0.10369
0.10359
0.10254
0.10118
0.098328
0.096406
0.090563
0.089497
0.080561
0.079478
0.068598
0.066677
0.10382
0.10372
0.10266
0.10129
0.098397
0.096456
0.090559
0.089435
0.080473
0.079304
0.068442
0.066428
0.10395
0.10385
0.10278
0.1014
0.098469
0.096508
0.090556
0.089373
0.080385
0.07913
0.068287
0.066178
0.10408
0.10398
0.1029
0.10151
0.098544
0.096562
0.090556
0.089312
0.080299
0.078956
0.068131
0.065928
0.10422
0.10412
0.10303
0.10162
0.098622
0.096618
0.090558
0.089252
0.080213
0.078781
0.067976
0.065677
0.10436
0.10427
0.10316
0.10174
0.098702
0.096676
0.090562
0.089192
0.080129
0.078607
0.06782
0.065426
0.10451
0.10441
0.10329
0.10186
0.098786
0.096737
0.090569
0.089134
0.080046
0.078433
0.067664
0.065173
0.10466
0.10457
0.10343
0.10199
0.098873
0.096801
0.090578
0.089077
0.079963
0.078259
0.067508
0.06492
0.10482
0.10472
0.10357
0.10212
0.098964
0.096868
0.09059
0.089021
0.079882
0.078085
0.067351
0.064667
0.10497
0.10488
0.10372
0.10225
0.099059
0.096937
0.090605
0.088967
0.079803
0.077911
0.067194
0.064411
0.10514
0.10505
0.10387
0.10239
0.099157
0.09701
0.090623
0.088914
0.079724
0.077737
0.067037
0.064155
0.10531
0.10522
0.10403
0.10253
0.09926
0.097085
0.090645
0.088862
0.079647
0.077563
0.066879
0.063898
0.10548
0.10539
0.10419
0.10268
0.099367
0.097165
0.090669
0.088813
0.079571
0.07739
0.06672
0.063639
0.10566
0.10558
0.10436
0.10283
0.099479
0.097247
0.090697
0.088765
0.079497
0.077216
0.066561
0.063379
0.10584
0.10576
0.10453
0.10299
0.099595
0.097334
0.090729
0.088719
0.079424
0.077042
0.066401
0.063117
0.10603
0.10595
0.10471
0.10315
0.099716
0.097425
0.090764
0.088676
0.079353
0.076869
0.06624
0.062853
0.10623
0.10615
0.10489
0.10332
0.099843
0.097519
0.090804
0.088634
0.079284
0.076696
0.066079
0.062588
0.10643
0.10636
0.10508
0.1035
0.099975
0.097618
0.090848
0.088596
0.079217
0.076523
0.065916
0.06232
0.10664
0.10657
0.10528
0.10368
0.10011
0.097722
0.090896
0.08856
0.079151
0.07635
0.065753
0.062051
0.10685
0.10679
0.10548
0.10387
0.10026
0.097831
0.090948
0.088526
0.079088
0.076177
0.065588
0.061779
0.10707
0.10701
0.10569
0.10407
0.10041
0.097944
0.091006
0.088496
0.079026
0.076005
0.065423
0.061505
0.1073
0.10725
0.10591
0.10427
0.10056
0.098063
0.091068
0.088469
0.078967
0.075832
0.065256
0.061228
0.10753
0.10749
0.10613
0.10448
0.10073
0.098187
0.091136
0.088445
0.078909
0.075661
0.065088
0.060949
0.10778
0.10773
0.10637
0.1047
0.1009
0.098317
0.091209
0.088424
0.078855
0.075489
0.064918
0.060667
0.10803
0.10799
0.10661
0.10492
0.10108
0.098453
0.091287
0.088407
0.078802
0.075318
0.064747
0.060382
0.10829
0.10826
0.10686
0.10516
0.10126
0.098595
0.091371
0.088394
0.078752
0.075147
0.064575
0.060094
0.10855
0.10853
0.10712
0.1054
0.10146
0.098744
0.091461
0.088384
0.078704
0.074977
0.064401
0.059802
0.10883
0.10881
0.10738
0.10565
0.10166
0.098899
0.091558
0.088379
0.07866
0.074806
0.064225
0.059507
0.10911
0.1091
0.10766
0.10591
0.10187
0.099062
0.091661
0.088378
0.078617
0.074636
0.064047
0.059209
0.10941
0.10941
0.10795
0.10618
0.10209
0.099231
0.09177
0.088381
0.078578
0.074467
0.063867
0.058906
0.10971
0.10972
0.10824
0.10646
0.10232
0.099408
0.091886
0.088389
0.078541
0.074298
0.063685
0.0586
0.11003
0.11004
0.10855
0.10675
0.10256
0.099593
0.09201
0.088401
0.078507
0.074129
0.063501
0.058289
0.11035
0.11037
0.10887
0.10705
0.1028
0.099786
0.09214
0.088419
0.078476
0.07396
0.063314
0.057973
0.11068
0.11071
0.1092
0.10736
0.10306
0.099987
0.092278
0.088441
0.078448
0.073791
0.063125
0.057653
0.11103
0.11107
0.10954
0.10768
0.10333
0.1002
0.092423
0.088468
0.078423
0.073623
0.062933
0.057328
0.11138
0.11143
0.10989
0.10802
0.10361
0.10042
0.092577
0.0885
0.078401
0.073454
0.062738
0.056997
0.11175
0.11181
0.11025
0.10836
0.1039
0.10064
0.092738
0.088537
0.078381
0.073285
0.062539
0.05666
0.11213
0.1122
0.11063
0.10872
0.10421
0.10088
0.092907
0.08858
0.078364
0.073116
0.062337
0.056318
0.11252
0.1126
0.11102
0.10909
0.10452
0.10113
0.093085
0.088628
0.078351
0.072947
0.062131
0.055969
0.11292
0.11302
0.11142
0.10947
0.10485
0.10138
0.093271
0.088681
0.078339
0.072777
0.061922
0.055613
0.11333
0.11344
0.11183
0.10987
0.10519
0.10165
0.093465
0.088739
0.078331
0.072606
0.061707
0.05525
0.11376
0.11388
0.11226
0.11028
0.10554
0.10192
0.093668
0.088803
0.078325
0.072434
0.061489
0.05488
0.1142
0.11434
0.1127
0.1107
0.1059
0.10221
0.09388
0.088872
0.078321
0.072261
0.061264
0.054502
0.11465
0.11481
0.11316
0.11113
0.10628
0.10251
0.094101
0.088946
0.078319
0.072087
0.061035
0.054115
0.11511
0.11529
0.11363
0.11158
0.10667
0.10281
0.09433
0.089026
0.078319
0.07191
0.060799
0.053719
0.11559
0.11578
0.11412
0.11205
0.10708
0.10313
0.094568
0.08911
0.078321
0.071731
0.060557
0.053314
0.11609
0.11629
0.11462
0.11252
0.1075
0.10346
0.094816
0.089199
0.078324
0.071549
0.060308
0.052898
0.11659
0.11682
0.11514
0.11302
0.10793
0.1038
0.095072
0.089293
0.078328
0.071365
0.060052
0.052472
0.11711
0.11736
0.11567
0.11353
0.10838
0.10415
0.095337
0.089392
0.078332
0.071177
0.059787
0.052034
0.11765
0.11792
0.11622
0.11405
0.10884
0.10452
0.095611
0.089495
0.078337
0.070984
0.059514
0.051584
0.1182
0.11849
0.11679
0.11459
0.10932
0.10489
0.095894
0.089602
0.078342
0.070787
0.059231
0.051122
0.11877
0.11908
0.11737
0.11515
0.10982
0.10528
0.096187
0.089712
0.078347
0.070585
0.058938
0.050646
0.11935
0.11969
0.11797
0.11572
0.11033
0.10568
0.096488
0.089827
0.07835
0.070377
0.058635
0.050156
0.11995
0.12031
0.11859
0.11632
0.11086
0.10609
0.096798
0.089945
0.078352
0.070163
0.058319
0.04965
0.12057
0.12095
0.11923
0.11693
0.1114
0.10651
0.097118
0.090066
0.078353
0.069941
0.057992
0.049129
0.12121
0.12161
0.11989
0.11756
0.11197
0.10695
0.097447
0.09019
0.07835
0.069712
0.057651
0.04859
0.12186
0.1223
0.12058
0.11821
0.11255
0.1074
0.097785
0.090316
0.078345
0.069474
0.057295
0.048033
0.12253
0.123
0.12128
0.11888
0.11315
0.10787
0.098132
0.090445
0.078336
0.069226
0.056925
0.047458
0.12323
0.12372
0.12201
0.11957
0.11378
0.10835
0.098489
0.090577
0.078323
0.068969
0.056538
0.046862
0.12394
0.12447
0.12276
0.12028
0.11442
0.10884
0.098856
0.09071
0.078306
0.0687
0.056135
0.046246
0.12468
0.12524
0.12354
0.12102
0.11509
0.10935
0.099233
0.090845
0.078284
0.06842
0.055713
0.045607
0.12544
0.12604
0.12434
0.12179
0.11578
0.10988
0.099621
0.090982
0.078256
0.068127
0.055272
0.044944
0.12623
0.12686
0.12518
0.12258
0.11649
0.11043
0.10002
0.091121
0.078221
0.067821
0.05481
0.044257
0.12705
0.12772
0.12605
0.1234
0.11724
0.111
0.10043
0.091262
0.07818
0.0675
0.054327
0.043543
0.1279
0.12861
0.12695
0.12426
0.11801
0.11158
0.10085
0.091405
0.078133
0.067164
0.053822
0.042802
0.12878
0.12953
0.12789
0.12515
0.11882
0.11219
0.10129
0.091549
0.078077
0.066812
0.053292
0.042032
0.12969
0.13049
0.12887
0.12608
0.11966
0.11283
0.10174
0.091696
0.078013
0.066443
0.052737
0.041231
0.13064
0.13149
0.12989
0.12705
0.12053
0.11349
0.10221
0.091845
0.077941
0.066056
0.052156
0.040399
0.13163
0.13254
0.13097
0.12807
0.12145
0.11417
0.10269
0.091996
0.077859
0.06565
0.051547
0.039532
0.13267
0.13363
0.13209
0.12913
0.12241
0.11489
0.10319
0.09215
0.077767
0.065224
0.050909
0.03863
0.13375
0.13478
0.13327
0.13025
0.12341
0.11565
0.1037
0.092307
0.077664
0.064775
0.050239
0.03769
0.13489
0.13598
0.13451
0.13143
0.12446
0.11643
0.10424
0.092466
0.077549
0.064303
0.049535
0.03671
0.13608
0.13725
0.13581
0.13266
0.12557
0.11726
0.1048
0.092627
0.077421
0.063806
0.048797
0.035689
0.13733
0.13858
0.13719
0.13397
0.12674
0.11813
0.10538
0.092791
0.077278
0.063281
0.04802
0.034623
0.13864
0.13998
0.13864
0.13535
0.12797
0.11904
0.10597
0.092955
0.077117
0.062726
0.047203
0.03351
0.14001
0.14145
0.14017
0.1368
0.12926
0.11999
0.1066
0.093118
0.076936
0.062137
0.046341
0.032347
0.14146
0.14301
0.14179
0.13835
0.13062
0.121
0.10724
0.09328
0.076733
0.06151
0.045431
0.03113
0.14298
0.14465
0.1435
0.13998
0.13205
0.12205
0.1079
0.093437
0.076501
0.060841
0.044468
0.029856
0.14457
0.14639
0.1453
0.1417
0.13357
0.12316
0.10858
0.093585
0.076238
0.060125
0.043446
0.028519
0.14624
0.14821
0.14721
0.14352
0.13516
0.12432
0.10928
0.093721
0.075936
0.059354
0.04236
0.027115
0.14799
0.15014
0.14923
0.14545
0.13683
0.12552
0.10999
0.093839
0.075589
0.058522
0.041202
0.025638
0.14982
0.15217
0.15137
0.14749
0.13859
0.12678
0.11072
0.093933
0.075188
0.05762
0.039964
0.024079
0.15173
0.1543
0.15362
0.14965
0.14043
0.12809
0.11144
0.093995
0.074725
0.056639
0.038637
0.022432
0.15373
0.15655
0.15599
0.15192
0.14236
0.12945
0.11217
0.094016
0.074188
0.055567
0.03721
0.020688
0.1558
0.15891
0.1585
0.15431
0.14439
0.13084
0.11288
0.093986
0.073567
0.054394
0.035672
0.018835
0.15796
0.16138
0.16114
0.15684
0.1465
0.13228
0.11357
0.093893
0.072848
0.053106
0.034012
0.016864
0.1602
0.16398
0.16392
0.1595
0.1487
0.13374
0.11423
0.093724
0.072017
0.051692
0.032217
0.014763
0.16251
0.1667
0.16686
0.1623
0.15099
0.13523
0.11485
0.093463
0.071059
0.050135
0.030274
0.012519
0.16491
0.16956
0.16996
0.16525
0.15338
0.13674
0.11542
0.093094
0.069957
0.048423
0.02817
0.010121
0.16738
0.17257
0.17325
0.16837
0.15586
0.13825
0.1159
0.092596
0.068693
0.046538
0.025891
0.0075556
0.16994
0.17573
0.17675
0.17166
0.15843
0.13976
0.1163
0.091946
0.067243
0.044463
0.023422
0.0048116
0.17258
0.17907
0.18047
0.17514
0.16111
0.14124
0.11657
0.091115
0.065584
0.042177
0.020748
0.0018777
0.1753
0.18261
0.18445
0.17884
0.16388
0.14268
0.11669
0.09007
0.063685
0.039657
0.017853
-0.001257
0.17811
0.18637
0.18872
0.18277
0.16674
0.14405
0.11662
0.088766
0.061507
0.036874
0.014714
-0.004604
0.18099
0.19037
0.19333
0.18695
0.16968
0.14531
0.11631
0.08715
0.059003
0.033789
0.011308
-0.0081758
0.18394
0.19465
0.19831
0.1914
0.17268
0.14641
0.11569
0.085156
0.056117
0.030359
0.0076028
-0.011987
0.18693
0.19921
0.20369
0.19612
0.1757
0.14727
0.11467
0.082702
0.052779
0.026529
0.0035608
-0.016057
0.1899
0.20408
0.2095
0.2011
0.17866
0.14781
0.11315
0.079695
0.048911
0.022237
-0.00086184
-0.020407
0.19277
0.20923
0.21572
0.20629
0.18148
0.14789
0.11102
0.076027
0.044426
0.017417
-0.0057113
-0.025061
0.19544
0.21462
0.22234
0.21161
0.18401
0.14735
0.10811
0.071581
0.039239
0.012007
-0.011029
-0.030039
0.19774
0.22019
0.22926
0.21691
0.18604
0.14601
0.10427
0.066238
0.03327
0.0059585
-0.016843
-0.03535
0.19946
0.22577
0.23632
0.22195
0.18732
0.1436
0.099312
0.059882
0.026458
-0.00075161
-0.023152
-0.04098
0.20034
0.23115
0.2432
0.22636
0.18746
0.13984
0.093039
0.052409
0.018769
-0.0081115
-0.029917
-0.046882
0.20008
0.23592
0.24939
0.22957
0.18598
0.13438
0.085254
0.043737
0.010198
-0.01607
-0.037058
-0.052968
0.19838
0.23948
0.25399
0.23067
0.18219
0.12681
0.075768
0.033816
0.00078159
-0.024542
-0.044454
-0.059115
0.19495
0.24081
0.2555
0.2283
0.17519
0.11668
0.064427
0.022655
-0.0093994
-0.033406
-0.051963
-0.065181
0.18963
0.23834
0.25151
0.22039
0.16372
0.10345
0.051138
0.010348
-0.020195
-0.042508
-0.059431
-0.071029
0.18258
0.22973
0.23843
0.20398
0.14615
0.086551
0.035891
-0.0028993
-0.031365
-0.05165
-0.066701
-0.076544
0.17447
0.21202
0.21143
0.17518
0.12043
0.065282
0.018702
-0.016805
-0.042594
-0.060587
-0.073618
-0.081648
0.16672
0.18222
0.16545
0.12981
0.084282
0.038811
-0.00051954
-0.031155
-0.053595
-0.069085
-0.080046
-0.086304
0.16084
0.13759
0.096984
0.064914
0.035801
0.0061934
-0.022116
-0.045973
-0.064257
-0.077029
-0.085932
-0.090544
0.15874
0.072846
0.0017103
-0.021988
-0.02706
-0.034157
-0.04711
-0.061868
-0.074947
-0.084671
-0.0915
-0.09463
0.17304
-0.0069648
-0.1167
-0.12759
-0.10337
-0.083173
-0.076986
-0.080255
-0.086875
-0.093015
-0.097595
-0.099322
0.21597
-0.081168
-0.23583
-0.23279
-0.18002
-0.13387
-0.10889
-0.10035
-0.10008
-0.10232
-0.10452
-0.10479
0.10269
0.06328
0.053155
0.047116
0.042948
0.039832
0.037346
0.035216
0.033401
0.031572
0.030125
0.027736
0.122
0.078503
0.065926
0.057894
0.052412
0.048363
0.045163
0.042443
0.040148
0.037838
0.036065
0.033275
0.10935
0.073411
0.062031
0.054128
0.048718
0.044741
0.041617
0.038976
0.036772
0.034545
0.032899
0.030189
0.10428
0.073068
0.062019
0.054027
0.04848
0.044391
0.041181
0.038471
0.036226
0.033952
0.032305
0.02947
0.10361
0.075207
0.063999
0.055791
0.05
0.045705
0.042327
0.039477
0.037121
0.034735
0.033018
0.030026
0.10294
0.076989
0.065712
0.057371
0.051382
0.04691
0.043383
0.040406
0.037949
0.035464
0.03368
0.030574
0.10179
0.078239
0.067038
0.058648
0.052513
0.047895
0.044243
0.041157
0.038613
0.03605
0.034205
0.03103
0.10058
0.07926
0.068224
0.059836
0.053587
0.048841
0.045073
0.041888
0.039262
0.036632
0.03473
0.031524
0.099431
0.080137
0.069334
0.060993
0.054661
0.049801
0.045924
0.042646
0.03994
0.037255
0.035298
0.0321
0.098341
0.080862
0.070358
0.062106
0.055725
0.05077
0.046794
0.043429
0.040648
0.037916
0.035912
0.032757
0.097285
0.081436
0.071282
0.063162
0.056768
0.051738
0.047677
0.044234
0.041384
0.038617
0.03657
0.033493
0.096259
0.081871
0.072104
0.064152
0.057779
0.0527
0.048569
0.045058
0.042147
0.039355
0.037274
0.034305
0.095266
0.082185
0.072826
0.06507
0.058751
0.053647
0.049463
0.045898
0.042934
0.040128
0.03802
0.035183
0.094309
0.082392
0.07345
0.065911
0.059674
0.05457
0.050351
0.046744
0.043738
0.040928
0.038801
0.036114
0.093388
0.082509
0.073981
0.066673
0.060541
0.055459
0.051223
0.04759
0.044552
0.041747
0.039607
0.037083
0.092504
0.082548
0.074426
0.067357
0.061348
0.056307
0.052071
0.048425
0.045366
0.042574
0.040429
0.03807
0.091659
0.082522
0.074791
0.067964
0.062092
0.057109
0.052888
0.049242
0.046171
0.043402
0.041254
0.039059
0.09085
0.082444
0.075085
0.068499
0.062773
0.057861
0.053669
0.050034
0.046961
0.044219
0.042073
0.040032
0.090079
0.082322
0.075314
0.068966
0.063392
0.058562
0.05441
0.050796
0.047729
0.045018
0.042876
0.040976
0.089343
0.082165
0.075488
0.069369
0.063951
0.059211
0.055107
0.051523
0.048469
0.045792
0.043656
0.041878
0.088641
0.081979
0.075611
0.069715
0.064452
0.059808
0.05576
0.052213
0.049176
0.046534
0.044405
0.04273
0.087972
0.081771
0.075691
0.070009
0.064899
0.060354
0.056368
0.052863
0.049849
0.047242
0.04512
0.043525
0.087333
0.081544
0.075732
0.070255
0.065297
0.060853
0.056932
0.053473
0.050485
0.047912
0.045797
0.044259
0.086722
0.081303
0.075741
0.070458
0.065647
0.061306
0.057453
0.054042
0.051084
0.048542
0.046434
0.044932
0.086137
0.081052
0.075721
0.070623
0.065955
0.061716
0.057933
0.054572
0.051645
0.049131
0.047031
0.045544
0.085577
0.080792
0.075677
0.070754
0.066224
0.062085
0.058374
0.055063
0.052169
0.049681
0.047587
0.046097
0.08504
0.080525
0.075611
0.070854
0.066458
0.062417
0.058777
0.055517
0.052656
0.05019
0.048104
0.046595
0.084524
0.080254
0.075527
0.070926
0.066658
0.062714
0.059145
0.055936
0.053109
0.050662
0.048583
0.047042
0.084027
0.07998
0.075427
0.070975
0.066829
0.062979
0.05948
0.056321
0.053529
0.051097
0.049025
0.047443
0.083548
0.079704
0.075313
0.071001
0.066973
0.063214
0.059784
0.056674
0.053917
0.051498
0.049434
0.047802
0.083085
0.079426
0.075187
0.071008
0.067092
0.063421
0.060059
0.056998
0.054275
0.051867
0.049811
0.048124
0.082638
0.079149
0.075052
0.070998
0.067189
0.063603
0.060308
0.057293
0.054605