/*--------------------------------*- C++ -*----------------------------------*\
  =========                 |
  \\      /  F ield         | OpenFOAM: The Open Source CFD Toolbox
   \\    /   O peration     | Website:  https://openfoam.org
    \\  /    A nd           | Version:  6.0
     \\/     M anipulation  |
\*---------------------------------------------------------------------------*/
FoamFile
{
    version     2.0;
    format      ascii;
    class       volScalarField;
    location    "14";
    object      p;
}
// * * * * * * * * * * * * * * * * * * * * * * * * * * * * * * * * * * * * * //

dimensions      [0 2 -2 0 0 0 0];

internalField   nonuniform List<scalar> 
34500
(
1.00724
1.00616
1.00547
1.00546
1.00547
1.00485
1.00417
1.0037
1.00353
1.00333
1.003
1.00255
1.00191
1.00159
1.00148
1.00725
1.00619
1.0055
1.00554
1.00565
1.00507
1.00436
1.00385
1.0037
1.00358
1.00333
1.00295
1.00227
1.00208
1.0018
1.00727
1.00617
1.00539
1.00536
1.00544
1.00481
1.00391
1.00315
1.00278
1.00256
1.00232
1.00204
1.00155
1.00165
1.00146
1.0073
1.00619
1.00534
1.00527
1.00542
1.00488
1.00397
1.00305
1.00248
1.00209
1.00178
1.00152
1.00117
1.00148
1.00151
1.00734
1.00622
1.00532
1.00523
1.00551
1.00519
1.00445
1.00355
1.00288
1.00234
1.00191
1.00158
1.00122
1.00158
1.00168
1.00739
1.00626
1.00524
1.00504
1.00533
1.00521
1.0047
1.00393
1.00325
1.00264
1.0021
1.00169
1.00129
1.00165
1.00177
1.00745
1.00628
1.00509
1.00464
1.00479
1.00472
1.00438
1.00376
1.00316
1.00255
1.00199
1.00156
1.00119
1.00159
1.00179
1.00752
1.00632
1.00495
1.0042
1.00409
1.00394
1.00366
1.00318
1.00268
1.00215
1.00165
1.00128
1.00102
1.00151
1.00186
1.00761
1.00642
1.00493
1.00391
1.0035
1.00318
1.00289
1.00249
1.0021
1.00168
1.00129
1.00103
1.0009
1.0015
1.00198
1.00771
1.0066
1.00508
1.00388
1.00321
1.00271
1.00235
1.00199
1.00169
1.00138
1.00109
1.00094
1.00094
1.00161
1.00218
1.00784
1.00684
1.00539
1.00413
1.00329
1.00262
1.00218
1.00181
1.00156
1.00131
1.0011
1.00103
1.0011
1.00181
1.00241
1.00797
1.00714
1.00584
1.00462
1.0037
1.00291
1.00238
1.00198
1.00172
1.0015
1.00132
1.00127
1.00138
1.00207
1.00265
1.00811
1.00745
1.00635
1.00525
1.00432
1.00347
1.00285
1.00239
1.0021
1.00186
1.00168
1.00161
1.0017
1.00234
1.00287
1.00826
1.00777
1.00688
1.00594
1.00506
1.00418
1.0035
1.00298
1.00262
1.00234
1.00211
1.00199
1.00204
1.0026
1.00308
1.0084
1.00807
1.00738
1.00661
1.00581
1.00494
1.00421
1.00362
1.00319
1.00284
1.00254
1.00236
1.00234
1.00283
1.00326
1.00854
1.00834
1.00782
1.00722
1.00652
1.00567
1.00491
1.00426
1.00376
1.00333
1.00296
1.00269
1.00262
1.00304
1.00342
1.00867
1.00857
1.0082
1.00774
1.00713
1.00632
1.00554
1.00484
1.00426
1.00376
1.00331
1.00297
1.00284
1.00321
1.00355
1.00879
1.00878
1.00851
1.00817
1.00764
1.00687
1.00608
1.00534
1.0047
1.00413
1.00361
1.00321
1.00304
1.00336
1.00367
1.00891
1.00895
1.00877
1.0085
1.00804
1.00731
1.00652
1.00574
1.00505
1.00442
1.00385
1.0034
1.00319
1.00347
1.00377
1.00902
1.00911
1.00897
1.00877
1.00836
1.00766
1.00687
1.00608
1.00534
1.00467
1.00405
1.00355
1.00332
1.00358
1.00386
1.00913
1.00924
1.00913
1.00897
1.0086
1.00793
1.00715
1.00634
1.00557
1.00486
1.0042
1.00367
1.00343
1.00367
1.00394
1.00925
1.00937
1.00928
1.00914
1.00879
1.00815
1.00738
1.00655
1.00576
1.00502
1.00434
1.00378
1.00352
1.00376
1.00403
1.00936
1.00949
1.00941
1.00928
1.00895
1.00832
1.00756
1.00673
1.00592
1.00515
1.00445
1.00387
1.00361
1.00383
1.0041
1.00947
1.00962
1.00953
1.00941
1.00909
1.00847
1.00772
1.00689
1.00606
1.00528
1.00455
1.00396
1.0037
1.00392
1.00418
1.00959
1.00974
1.00965
1.00953
1.00922
1.00861
1.00786
1.00702
1.00618
1.00539
1.00465
1.00404
1.00378
1.00399
1.00426
1.00972
1.00987
1.00979
1.00967
1.00935
1.00875
1.008
1.00717
1.00631
1.0055
1.00475
1.00413
1.00387
1.00407
1.00434
1.00985
1.01
1.00992
1.0098
1.00949
1.0089
1.00814
1.0073
1.00644
1.00561
1.00485
1.00421
1.00395
1.00415
1.00441
1.00998
1.01014
1.01007
1.00996
1.00964
1.00905
1.0083
1.00745
1.00657
1.00574
1.00495
1.00431
1.00404
1.00424
1.0045
1.01013
1.01029
1.01023
1.01012
1.0098
1.00921
1.00846
1.0076
1.00671
1.00586
1.00506
1.0044
1.00413
1.00432
1.00457
1.01028
1.01045
1.0104
1.01029
1.00998
1.00939
1.00863
1.00777
1.00686
1.00599
1.00518
1.00451
1.00423
1.00441
1.00466
1.01043
1.01061
1.01057
1.01048
1.01017
1.00957
1.00881
1.00793
1.00701
1.00613
1.0053
1.00461
1.00432
1.0045
1.00474
1.01059
1.01078
1.01076
1.01067
1.01037
1.00978
1.009
1.00812
1.00718
1.00628
1.00543
1.00472
1.00443
1.0046
1.00483
1.01076
1.01096
1.01095
1.01088
1.01058
1.00998
1.0092
1.0083
1.00735
1.00642
1.00556
1.00483
1.00453
1.00469
1.00491
1.01093
1.01114
1.01115
1.0111
1.01081
1.01021
1.00942
1.0085
1.00753
1.00659
1.0057
1.00496
1.00464
1.00479
1.00501
1.01111
1.01133
1.01136
1.01132
1.01104
1.01043
1.00963
1.0087
1.00771
1.00675
1.00584
1.00507
1.00475
1.00489
1.0051
1.01129
1.01152
1.01158
1.01156
1.01128
1.01068
1.00987
1.00892
1.0079
1.00692
1.00599
1.0052
1.00486
1.00499
1.0052
1.01148
1.01172
1.0118
1.0118
1.01153
1.01092
1.0101
1.00914
1.0081
1.00709
1.00613
1.00533
1.00498
1.0051
1.0053
1.01167
1.01193
1.01203
1.01205
1.01179
1.01118
1.01035
1.00937
1.00831
1.00727
1.00629
1.00547
1.0051
1.00521
1.00541
1.01187
1.01214
1.01226
1.0123
1.01205
1.01144
1.0106
1.0096
1.00851
1.00745
1.00645
1.0056
1.00522
1.00532
1.00551
1.01207
1.01235
1.0125
1.01257
1.01233
1.01171
1.01086
1.00984
1.00873
1.00765
1.00662
1.00574
1.00534
1.00544
1.00563
1.01228
1.01257
1.01274
1.01283
1.0126
1.01199
1.01112
1.01009
1.00895
1.00784
1.00678
1.00589
1.00547
1.00555
1.00575
1.01249
1.0128
1.01299
1.01311
1.01289
1.01228
1.0114
1.01034
1.00918
1.00804
1.00696
1.00604
1.0056
1.00567
1.00587
1.01271
1.01303
1.01325
1.01339
1.01318
1.01257
1.01168
1.0106
1.00941
1.00825
1.00714
1.00619
1.00573
1.00579
1.00599
1.01293
1.01326
1.01351
1.01368
1.01349
1.01287
1.01197
1.01087
1.00966
1.00846
1.00732
1.00635
1.00587
1.00592
1.00612
1.01315
1.0135
1.01377
1.01397
1.01379
1.01318
1.01226
1.01114
1.0099
1.00868
1.00751
1.0065
1.00601
1.00605
1.00625
1.01339
1.01375
1.01405
1.01427
1.01411
1.0135
1.01257
1.01143
1.01016
1.0089
1.0077
1.00667
1.00616
1.00619
1.00639
1.01362
1.014
1.01432
1.01458
1.01443
1.01382
1.01288
1.01172
1.01042
1.00913
1.0079
1.00683
1.0063
1.00632
1.00651
1.01386
1.01426
1.01461
1.01489
1.01477
1.01415
1.0132
1.01202
1.01069
1.00937
1.0081
1.00701
1.00645
1.00646
1.00665
1.01411
1.01451
1.01489
1.01521
1.0151
1.01449
1.01352
1.01232
1.01096
1.0096
1.00831
1.00718
1.0066
1.00659
1.00679
1.01436
1.01478
1.01519
1.01554
1.01545
1.01484
1.01386
1.01263
1.01124
1.00985
1.00852
1.00737
1.00676
1.00674
1.00693
1.01461
1.01505
1.01549
1.01587
1.01581
1.0152
1.0142
1.01295
1.01153
1.0101
1.00873
1.00755
1.00691
1.00688
1.00706
1.01488
1.01533
1.01579
1.01622
1.01617
1.01556
1.01456
1.01328
1.01183
1.01037
1.00896
1.00774
1.00708
1.00703
1.00721
1.01514
1.01561
1.0161
1.01656
1.01654
1.01594
1.01492
1.01362
1.01213
1.01063
1.00918
1.00793
1.00724
1.00717
1.00735
1.01541
1.0159
1.01643
1.01692
1.01692
1.01632
1.01529
1.01397
1.01244
1.0109
1.00942
1.00813
1.00741
1.00733
1.0075
1.01568
1.01619
1.01675
1.01729
1.01731
1.01671
1.01567
1.01432
1.01276
1.01118
1.00965
1.00832
1.00758
1.00747
1.00764
1.01597
1.01649
1.01708
1.01766
1.01771
1.01712
1.01606
1.01468
1.01309
1.01147
1.0099
1.00853
1.00776
1.00763
1.00779
1.01625
1.01679
1.01742
1.01804
1.01811
1.01753
1.01646
1.01505
1.01342
1.01175
1.01015
1.00873
1.00793
1.00778
1.00793
1.01654
1.0171
1.01777
1.01843
1.01853
1.01795
1.01687
1.01543
1.01376
1.01206
1.0104
1.00895
1.00811
1.00795
1.00809
1.01683
1.01741
1.01811
1.01882
1.01895
1.01838
1.01728
1.01582
1.01411
1.01236
1.01066
1.00916
1.00829
1.0081
1.00823
1.01713
1.01773
1.01847
1.01923
1.01939
1.01882
1.01771
1.01622
1.01447
1.01267
1.01093
1.00939
1.00848
1.00827
1.00839
1.01744
1.01805
1.01884
1.01964
1.01983
1.01927
1.01815
1.01663
1.01483
1.01299
1.01119
1.00961
1.00867
1.00843
1.00854
1.01775
1.01838
1.01921
1.02007
1.02029
1.01973
1.0186
1.01705
1.01521
1.01332
1.01147
1.00984
1.00886
1.0086
1.0087
1.01806
1.01872
1.01959
1.02049
1.02075
1.0202
1.01905
1.01747
1.01559
1.01364
1.01175
1.01007
1.00905
1.00876
1.00885
1.01838
1.01906
1.01998
1.02094
1.02122
1.02069
1.01952
1.01791
1.01598
1.01399
1.01204
1.01031
1.00925
1.00894
1.00901
1.0187
1.0194
1.02037
1.02138
1.0217
1.02118
1.02
1.01835
1.01638
1.01433
1.01233
1.01055
1.00945
1.0091
1.00917
1.01903
1.01976
1.02077
1.02184
1.0222
1.02168
1.02049
1.01881
1.01679
1.01469
1.01263
1.0108
1.00966
1.00928
1.00933
1.01936
1.02012
1.02118
1.0223
1.0227
1.02219
1.02099
1.01928
1.01721
1.01505
1.01293
1.01104
1.00986
1.00945
1.00949
1.0197
1.02048
1.02159
1.02278
1.02322
1.02272
1.02151
1.01976
1.01764
1.01542
1.01324
1.0113
1.01007
1.00964
1.00966
1.02005
1.02085
1.02201
1.02326
1.02374
1.02326
1.02202
1.02024
1.01807
1.01579
1.01355
1.01155
1.01028
1.00981
1.00982
1.0204
1.02123
1.02245
1.02376
1.02428
1.02381
1.02256
1.02074
1.01852
1.01618
1.01388
1.01182
1.01049
1.01
1.00999
1.02075
1.0216
1.02288
1.02426
1.02482
1.02436
1.0231
1.02125
1.01897
1.01656
1.0142
1.01208
1.01071
1.01018
1.01015
1.02111
1.02199
1.02333
1.02478
1.02538
1.02494
1.02366
1.02177
1.01944
1.01696
1.01453
1.01235
1.01093
1.01036
1.01033
1.02147
1.02238
1.02378
1.0253
1.02595
1.02552
1.02423
1.0223
1.0199
1.01737
1.01486
1.01262
1.01115
1.01055
1.01049
1.02184
1.02278
1.02425
1.02583
1.02653
1.02611
1.02481
1.02284
1.02039
1.01778
1.01521
1.0129
1.01138
1.01074
1.01067
1.02221
1.02318
1.02471
1.02637
1.02712
1.02672
1.0254
1.02339
1.02088
1.0182
1.01555
1.01318
1.0116
1.01092
1.01084
1.02259
1.0236
1.02519
1.02693
1.02772
1.02734
1.02601
1.02395
1.02138
1.01863
1.01591
1.01347
1.01183
1.01112
1.01102
1.02297
1.02401
1.02567
1.02749
1.02833
1.02797
1.02662
1.02452
1.02189
1.01906
1.01627
1.01375
1.01206
1.01131
1.01119
1.02336
1.02443
1.02617
1.02806
1.02896
1.02861
1.02725
1.02511
1.02241
1.01951
1.01663
1.01405
1.0123
1.01151
1.01137
1.02374
1.02486
1.02667
1.02864
1.0296
1.02927
1.02789
1.0257
1.02294
1.01996
1.017
1.01434
1.01253
1.0117
1.01154
1.02414
1.02529
1.02718
1.02924
1.03025
1.02994
1.02854
1.02631
1.02348
1.02042
1.01738
1.01465
1.01278
1.0119
1.01172
1.02454
1.02573
1.02769
1.02984
1.03091
1.03061
1.0292
1.02693
1.02402
1.02088
1.01776
1.01494
1.01301
1.01209
1.0119
1.02495
1.02618
1.02822
1.03046
1.03158
1.03131
1.02988
1.02756
1.02458
1.02136
1.01815
1.01526
1.01326
1.0123
1.01208
1.02536
1.02662
1.02875
1.03108
1.03226
1.03201
1.03057
1.0282
1.02515
1.02183
1.01854
1.01556
1.0135
1.01249
1.01225
1.02578
1.02708
1.0293
1.03172
1.03296
1.03274
1.03127
1.02885
1.02573
1.02233
1.01894
1.01588
1.01376
1.0127
1.01244
1.0262
1.02754
1.02984
1.03236
1.03367
1.03346
1.03199
1.02951
1.02631
1.02282
1.01934
1.0162
1.014
1.01289
1.01261
1.02663
1.02801
1.03041
1.03302
1.0344
1.03421
1.03272
1.03019
1.02691
1.02333
1.01975
1.01652
1.01426
1.0131
1.0128
1.02705
1.02848
1.03097
1.03369
1.03513
1.03497
1.03345
1.03087
1.02752
1.02384
1.02016
1.01684
1.0145
1.0133
1.01297
1.02749
1.02897
1.03155
1.03437
1.03588
1.03574
1.03421
1.03158
1.02814
1.02436
1.02058
1.01718
1.01476
1.01351
1.01316
1.02793
1.02945
1.03213
1.03506
1.03663
1.03652
1.03497
1.03228
1.02876
1.02488
1.021
1.0175
1.01502
1.01371
1.01333
1.02838
1.02995
1.03273
1.03576
1.03741
1.03732
1.03575
1.03301
1.0294
1.02542
1.02144
1.01784
1.01528
1.01391
1.01352
1.02883
1.03044
1.03333
1.03647
1.03819
1.03813
1.03654
1.03373
1.03004
1.02596
1.02187
1.01817
1.01553
1.01411
1.01369
1.02929
1.03095
1.03394
1.0372
1.03899
1.03896
1.03735
1.03448
1.0307
1.02651
1.02231
1.01852
1.0158
1.01432
1.01387
1.02975
1.03146
1.03456
1.03793
1.0398
1.03979
1.03816
1.03523
1.03136
1.02706
1.02275
1.01886
1.01605
1.01452
1.01404
1.03022
1.03198
1.03519
1.03868
1.04063
1.04065
1.03899
1.03601
1.03204
1.02763
1.02321
1.01921
1.01632
1.01472
1.01422
1.03068
1.0325
1.03583
1.03944
1.04146
1.0415
1.03983
1.03678
1.03272
1.0282
1.02366
1.01955
1.01657
1.01492
1.01439
1.03117
1.03303
1.03648
1.04021
1.04231
1.04238
1.04069
1.03757
1.03341
1.02878
1.02412
1.01991
1.01684
1.01512
1.01456
1.03165
1.03357
1.03713
1.04099
1.04317
1.04327
1.04155
1.03837
1.03411
1.02936
1.02458
1.02025
1.0171
1.01532
1.01472
1.03214
1.03412
1.0378
1.04178
1.04405
1.04418
1.04243
1.03919
1.03483
1.02996
1.02505
1.02061
1.01736
1.01552
1.01489
1.03263
1.03466
1.03847
1.04258
1.04493
1.04509
1.04332
1.04
1.03554
1.03055
1.02552
1.02096
1.01762
1.0157
1.01505
1.03313
1.03523
1.03916
1.0434
1.04584
1.04602
1.04423
1.04084
1.03628
1.03116
1.026
1.02133
1.01788
1.0159
1.01521
1.03364
1.03579
1.03985
1.04423
1.04674
1.04696
1.04514
1.04168
1.03701
1.03177
1.02648
1.02168
1.01814
1.01608
1.01536
1.03415
1.03636
1.04056
1.04507
1.04767
1.04792
1.04607
1.04254
1.03776
1.03239
1.02696
1.02204
1.0184
1.01627
1.01552
1.03467
1.03694
1.04127
1.04592
1.04861
1.04888
1.04701
1.0434
1.03851
1.03301
1.02745
1.0224
1.01865
1.01645
1.01566
1.0352
1.03753
1.042
1.04679
1.04956
1.04987
1.04797
1.04428
1.03928
1.03364
1.02794
1.02276
1.01891
1.01663
1.0158
1.03573
1.03812
1.04273
1.04766
1.05052
1.05085
1.04893
1.04516
1.04005
1.03427
1.02843
1.02312
1.01915
1.0168
1.01593
1.03627
1.03873
1.04348
1.04855
1.05151
1.05186
1.04991
1.04606
1.04083
1.03491
1.02893
1.02348
1.01941
1.01697
1.01607
1.03681
1.03934
1.04424
1.04944
1.05249
1.05288
1.05089
1.04696
1.04161
1.03555
1.02942
1.02384
1.01965
1.01713
1.01618
1.03737
1.03996
1.04501
1.05036
1.0535
1.05391
1.05189
1.04788
1.04241
1.03621
1.02993
1.0242
1.01989
1.01729
1.01631
1.03793
1.04059
1.04578
1.05128
1.05451
1.05495
1.05289
1.0488
1.04321
1.03686
1.03042
1.02455
1.02012
1.01744
1.01641
1.03851
1.04123
1.04657
1.05222
1.05554
1.056
1.05391
1.04974
1.04402
1.03752
1.03093
1.02491
1.02036
1.01758
1.01651
1.03908
1.04187
1.04737
1.05316
1.05657
1.05706
1.05494
1.05067
1.04483
1.03818
1.03143
1.02526
1.02058
1.01771
1.0166
1.03968
1.04254
1.04819
1.05413
1.05763
1.05814
1.05598
1.05163
1.04565
1.03885
1.03194
1.02562
1.02081
1.01785
1.01669
1.04027
1.0432
1.04901
1.0551
1.05868
1.05922
1.05702
1.05258
1.04647
1.03951
1.03243
1.02596
1.02102
1.01796
1.01676
1.04088
1.04388
1.04985
1.05609
1.05976
1.06032
1.05808
1.05354
1.0473
1.04019
1.03294
1.02631
1.02123
1.01808
1.01682
1.0415
1.04457
1.05069
1.05708
1.06084
1.06142
1.05914
1.05451
1.04813
1.04086
1.03344
1.02664
1.02143
1.01817
1.01687
1.04213
1.04527
1.05155
1.0581
1.06195
1.06254
1.06022
1.05549
1.04898
1.04154
1.03395
1.02698
1.02163
1.01827
1.01691
1.04277
1.04598
1.05242
1.05912
1.06305
1.06367
1.06129
1.05646
1.04981
1.04221
1.03444
1.0273
1.02181
1.01835
1.01693
1.04343
1.04671
1.05332
1.06016
1.06417
1.0648
1.06238
1.05745
1.05066
1.04289
1.03494
1.02763
1.02199
1.01842
1.01695
1.04409
1.04744
1.05421
1.0612
1.0653
1.06594
1.06347
1.05844
1.0515
1.04356
1.03543
1.02795
1.02215
1.01847
1.01695
1.04477
1.0482
1.05513
1.06227
1.06645
1.0671
1.06457
1.05944
1.05236
1.04424
1.03593
1.02826
1.02231
1.01852
1.01694
1.04546
1.04896
1.05606
1.06334
1.0676
1.06826
1.06567
1.06043
1.0532
1.04491
1.03641
1.02856
1.02245
1.01854
1.0169
1.04617
1.04974
1.05701
1.06443
1.06876
1.06943
1.06679
1.06144
1.05406
1.04559
1.0369
1.02886
1.02259
1.01856
1.01686
1.04689
1.05053
1.05796
1.06553
1.06993
1.0706
1.0679
1.06244
1.05491
1.04626
1.03737
1.02914
1.02271
1.01855
1.01679
1.04763
1.05135
1.05894
1.06665
1.07112
1.07179
1.06902
1.06345
1.05576
1.04693
1.03784
1.02942
1.02282
1.01854
1.01671
1.04838
1.05217
1.05993
1.06778
1.07231
1.07297
1.07014
1.06445
1.0566
1.04759
1.0383
1.02968
1.02291
1.0185
1.0166
1.04916
1.05302
1.06094
1.06893
1.07352
1.07417
1.07127
1.06546
1.05746
1.04825
1.03877
1.02994
1.023
1.01845
1.01648
1.04995
1.05388
1.06197
1.07008
1.07473
1.07537
1.07239
1.06646
1.0583
1.0489
1.03921
1.03018
1.02306
1.01837
1.01634
1.05077
1.05478
1.06302
1.07126
1.07597
1.07658
1.07353
1.06747
1.05914
1.04956
1.03966
1.03042
1.02311
1.01829
1.01617
1.0516
1.05568
1.06408
1.07245
1.0772
1.07778
1.07465
1.06846
1.05997
1.05019
1.04008
1.03063
1.02314
1.01817
1.01598
1.05246
1.05661
1.06517
1.07366
1.07845
1.079
1.07578
1.06947
1.06081
1.05083
1.04051
1.03084
1.02315
1.01804
1.01577
1.05333
1.05755
1.06627
1.07487
1.0797
1.08022
1.07691
1.07045
1.06163
1.05146
1.04092
1.03103
1.02315
1.01788
1.01553
1.05424
1.05853
1.0674
1.07612
1.08097
1.08145
1.07804
1.07145
1.06245
1.05208
1.04132
1.03121
1.02312
1.0177
1.01526
1.05516
1.05952
1.06855
1.07736
1.08223
1.08267
1.07916
1.07243
1.06326
1.05268
1.0417
1.03137
1.02307
1.01749
1.01496
1.05612
1.06055
1.06972
1.07864
1.08352
1.0839
1.08029
1.07341
1.06406
1.05328
1.04208
1.03151
1.02301
1.01726
1.01464
1.0571
1.0616
1.07091
1.07992
1.08481
1.08513
1.0814
1.07438
1.06485
1.05387
1.04244
1.03163
1.02292
1.01699
1.01428
1.05812
1.06268
1.07214
1.08123
1.08612
1.08636
1.08252
1.07534
1.06563
1.05444
1.04279
1.03174
1.02281
1.01671
1.0139
1.05916
1.06379
1.07338
1.08255
1.08743
1.08759
1.08362
1.07629
1.0664
1.055
1.04311
1.03183
1.02267
1.01638
1.01348
1.06024
1.06493
1.07466
1.0839
1.08875
1.08883
1.08473
1.07724
1.06716
1.05555
1.04343
1.0319
1.02251
1.01604
1.01303
1.06134
1.0661
1.07596
1.08525
1.09008
1.09006
1.08582
1.07816
1.0679
1.05608
1.04372
1.03194
1.02231
1.01565
1.01253
1.06249
1.06731
1.07729
1.08664
1.09142
1.0913
1.08691
1.07908
1.06863
1.05659
1.044
1.03196
1.02209
1.01523
1.01201
1.06367
1.06855
1.07865
1.08804
1.09277
1.09252
1.08798
1.07998
1.06933
1.05709
1.04426
1.03196
1.02184
1.01478
1.01145
1.06489
1.06983
1.08004
1.08947
1.09413
1.09376
1.08905
1.08087
1.07003
1.05757
1.0445
1.03193
1.02156
1.01429
1.01085
1.06615
1.07114
1.08146
1.0909
1.09549
1.09498
1.09011
1.08174
1.0707
1.05802
1.04471
1.03188
1.02124
1.01375
1.01021
1.06745
1.0725
1.08292
1.09237
1.09687
1.09621
1.09115
1.0826
1.07137
1.05847
1.04491
1.0318
1.0209
1.01319
1.00954
1.06879
1.07388
1.0844
1.09386
1.09825
1.09743
1.09218
1.08343
1.072
1.05888
1.04508
1.03169
1.02051
1.01257
1.00881
1.07018
1.07533
1.08593
1.09537
1.09965
1.09865
1.0932
1.08425
1.07262
1.05928
1.04522
1.03155
1.02008
1.01192
1.00805
1.07161
1.0768
1.08748
1.0969
1.10105
1.09986
1.0942
1.08504
1.0732
1.05965
1.04534
1.03137
1.01961
1.01121
1.00724
1.0731
1.07833
1.08908
1.09846
1.10246
1.10107
1.09519
1.08581
1.07377
1.06
1.04543
1.03117
1.01911
1.01047
1.00639
1.07463
1.07989
1.09071
1.10003
1.10388
1.10226
1.09615
1.08656
1.07431
1.06031
1.04549
1.03092
1.01855
1.00967
1.00548
1.07622
1.08152
1.09238
1.10165
1.10531
1.10346
1.0971
1.08728
1.07482
1.06061
1.04552
1.03063
1.01795
1.00883
1.00453
1.07785
1.08318
1.09408
1.10327
1.10674
1.10464
1.09802
1.08797
1.0753
1.06087
1.04552
1.0303
1.0173
1.00794
1.00353
1.07955
1.0849
1.09584
1.10493
1.10818
1.10581
1.09893
1.08864
1.07576
1.0611
1.04548
1.02993
1.01661
1.00699
1.00249
1.0813
1.08666
1.09762
1.1066
1.10962
1.10697
1.0998
1.08927
1.07618
1.0613
1.04539
1.02951
1.01585
1.00599
1.00139
1.08311
1.08849
1.09946
1.10831
1.11108
1.10813
1.10066
1.08988
1.07658
1.06146
1.04527
1.02904
1.01505
1.00495
1.00025
1.08498
1.09036
1.10132
1.11003
1.11254
1.10926
1.10149
1.09044
1.07693
1.06159
1.0451
1.02852
1.01419
1.00384
0.999055
1.08691
1.0923
1.10325
1.11179
1.11401
1.11039
1.10229
1.09098
1.07725
1.06167
1.04489
1.02795
1.01326
1.00268
0.997821
1.0889
1.09427
1.1052
1.11356
1.11547
1.11149
1.10305
1.09148
1.07752
1.06171
1.04463
1.02731
1.01228
1.00147
0.996532
1.09097
1.09632
1.1072
1.11538
1.11695
1.11259
1.10379
1.09194
1.07776
1.06171
1.04431
1.02661
1.01124
1.0002
0.995202
1.09309
1.09841
1.10924
1.1172
1.11842
1.11365
1.10449
1.09235
1.07795
1.06166
1.04393
1.02585
1.01013
0.998863
0.993818
1.09529
1.10058
1.11134
1.11906
1.1199
1.11471
1.10516
1.09273
1.0781
1.06156
1.0435
1.02503
1.00895
0.997475
0.992393
1.09754
1.10279
1.11346
1.12093
1.12138
1.11573
1.10579
1.09305
1.07819
1.0614
1.043
1.02413
1.00771
0.996022
0.990913
1.09988
1.10507
1.11564
1.12284
1.12286
1.11675
1.10638
1.09333
1.07824
1.06118
1.04244
1.02316
1.00639
0.994513
0.989394
1.10228
1.1074
1.11785
1.12475
1.12433
1.11772
1.10692
1.09356
1.07822
1.0609
1.0418
1.02212
1.00501
0.992938
0.987819
1.10477
1.10981
1.12012
1.12671
1.12581
1.11868
1.10742
1.09373
1.07815
1.06056
1.04109
1.021
1.00355
0.991303
0.986204
1.10731
1.11225
1.12242
1.12867
1.12728
1.1196
1.10787
1.09385
1.07802
1.06014
1.04031
1.01981
1.00201
0.989601
0.984535
1.10995
1.11478
1.12477
1.13067
1.12875
1.1205
1.10828
1.09391
1.07782
1.05966
1.03944
1.01852
1.0004
0.987838
0.982828
1.11264
1.11735
1.12715
1.13267
1.1302
1.12135
1.10862
1.0939
1.07755
1.05909
1.0385
1.01716
0.998705
0.986006
0.981065
1.11543
1.11999
1.12958
1.1347
1.13165
1.12218
1.10892
1.09383
1.07721
1.05845
1.03746
1.0157
0.99693
0.984112
0.979265
1.11828
1.12268
1.13204
1.13674
1.13308
1.12296
1.10915
1.09368
1.07679
1.05773
1.03634
1.01416
0.995072
0.982147
0.977412
1.12122
1.12544
1.13456
1.1388
1.13451
1.1237
1.10933
1.09347
1.07629
1.05692
1.03513
1.01252
0.993128
0.980118
0.975522
1.12422
1.12825
1.13709
1.14087
1.13591
1.12439
1.10943
1.09318
1.07571
1.05602
1.03382
1.01079
0.991099
0.978017
0.973578
1.12732
1.13112
1.13968
1.14296
1.13731
1.12505
1.10947
1.09281
1.07505
1.05503
1.03241
1.00895
0.98898
0.975851
0.971602
1.13048
1.13404
1.14228
1.14505
1.13867
1.12564
1.10943
1.09235
1.07429
1.05395
1.03091
1.00703
0.986773
0.973612
0.969573
1.13373
1.13703
1.14493
1.14716
1.14002
1.12619
1.10932
1.09181
1.07345
1.05277
1.02931
1.00499
0.984473
0.971308
0.967514
1.13704
1.14005
1.1476
1.14926
1.14134
1.12667
1.10912
1.09117
1.0725
1.05149
1.0276
1.00286
0.982082
0.96893
0.965406
1.14045
1.14314
1.15031
1.15138
1.14263
1.1271
1.10885
1.09045
1.07146
1.05011
1.02578
1.00062
0.979594
0.966487
0.963271
1.14392
1.14627
1.15304
1.15348
1.14388
1.12745
1.10848
1.08962
1.07032
1.04863
1.02386
0.998272
0.977014
0.96397
0.96109
1.14748
1.14945
1.1558
1.15559
1.1451
1.12774
1.10802
1.08869
1.06908
1.04704
1.02183
0.995811
0.974335
0.961388
0.958886
1.15109
1.15267
1.15856
1.15769
1.14627
1.12795
1.10745
1.08766
1.06774
1.04535
1.01969
0.993244
0.97156
0.958733
0.95664
1.1548
1.15595
1.16137
1.15979
1.14741
1.12808
1.10679
1.08652
1.06629
1.04355
1.01743
0.990558
0.968684
0.956014
0.954377
1.15856
1.15926
1.16417
1.16187
1.14848
1.12812
1.10602
1.08528
1.06474
1.04166
1.01506
0.987764
0.965711
0.953222
0.952075
1.16241
1.16262
1.167
1.16394
1.14951
1.12808
1.10514
1.08392
1.06308
1.03964
1.01257
0.984846
0.962637
0.950369
0.949761
1.16631
1.166
1.16983
1.16598
1.15047
1.12793
1.10415
1.08245
1.06132
1.03753
1.00998
0.981817
0.959463
0.947443
0.947413
1.17029
1.16943
1.17268
1.168
1.15137
1.12769
1.10303
1.08087
1.05946
1.0353
1.00725
0.978662
0.956188
0.94446
0.945057
1.17433
1.17289
1.17553
1.16999
1.15219
1.12733
1.10179
1.07918
1.05749
1.03298
1.00442
0.975391
0.952812
0.941407
0.942673
1.17844
1.17639
1.17839
1.17195
1.15293
1.12686
1.10043
1.07737
1.05541
1.03054
1.00146
0.971993
0.949334
0.9383
0.940289
1.1826
1.1799
1.18123
1.17386
1.15358
1.12626
1.09892
1.07544
1.05324
1.028
0.998389
0.968475
0.945755
0.935124
0.937885
1.18684
1.18346
1.18409
1.17573
1.15414
1.12554
1.09729
1.07341
1.05096
1.02535
0.995188
0.964827
0.942076
0.931898
0.93549
1.19111
1.18703
1.18692
1.17754
1.15458
1.12467
1.09552
1.07126
1.0486
1.02261
0.991874
0.961056
0.938294
0.928607
0.933083
1.19546
1.19064
1.18975
1.1793
1.15492
1.12366
1.09361
1.069
1.04614
1.01975
0.988429
0.957154
0.934413
0.92527
0.930695
1.19985
1.19426
1.19256
1.18098
1.15513
1.1225
1.09155
1.06664
1.04359
1.0168
0.984868
0.953125
0.930429
0.921872
0.928302
1.20431
1.19793
1.19536
1.18259
1.15521
1.12118
1.08935
1.06416
1.04095
1.01375
0.981175
0.948962
0.926348
0.918435
0.925938
1.2088
1.2016
1.19812
1.18411
1.15514
1.11969
1.08701
1.06159
1.03824
1.01061
0.977363
0.944668
0.922162
0.914941
0.923579
1.21335
1.20531
1.20086
1.18554
1.15493
1.11803
1.08452
1.05893
1.03545
1.00736
0.973417
0.940239
0.917883
0.911414
0.921259
1.21795
1.20903
1.20356
1.18686
1.15454
1.11618
1.08188
1.05617
1.0326
1.00403
0.969348
0.935673
0.913499
0.907835
0.918953
1.2226
1.21278
1.20623
1.18808
1.15398
1.11415
1.0791
1.05333
1.02967
1.00059
0.965141
0.93097
0.909022
0.904231
0.916697
1.22729
1.21655
1.20885
1.18916
1.15322
1.11192
1.07617
1.05041
1.02669
0.997066
0.960805
0.926125
0.904442
0.90058
0.914465
1.23204
1.22035
1.21143
1.19012
1.15227
1.10949
1.0731
1.04742
1.02364
0.99344
0.956328
0.921141
0.899772
0.896913
0.912294
1.23682
1.22417
1.21395
1.19092
1.15111
1.10685
1.0699
1.04437
1.02056
0.989727
0.951714
0.916009
0.894999
0.893207
0.910158
1.24167
1.22803
1.21642
1.19157
1.14972
1.10399
1.06656
1.04126
1.01742
0.98591
0.946952
0.910735
0.89014
0.889495
0.908096
1.24656
1.23191
1.21882
1.19204
1.14809
1.10092
1.06309
1.03812
1.01425
0.982002
0.942044
0.905309
0.885178
0.885752
0.906083
1.25151
1.23583
1.22116
1.19234
1.14623
1.09763
1.0595
1.03493
1.01103
0.977985
0.936979
0.899738
0.880135
0.882015
0.904156
1.2565
1.23978
1.22342
1.19244
1.1441
1.09411
1.0558
1.03173
1.00779
0.973868
0.931756
0.894008
0.874994
0.878258
0.902291
1.26157
1.24378
1.22561
1.19234
1.1417
1.09036
1.05199
1.0285
1.00451
0.969633
0.926366
0.888131
0.869776
0.87452
0.900529
1.2667
1.24781
1.22771
1.19203
1.13902
1.08639
1.04808
1.02527
1.0012
0.965285
0.920803
0.882092
0.864467
0.870777
0.898845
1.2719
1.2519
1.22973
1.19149
1.13606
1.08219
1.04409
1.02204
0.997857
0.960805
0.91506
0.875902
0.85909
0.867069
0.897281
1.27717
1.25604
1.23165
1.19071
1.1328
1.07776
1.04002
1.01883
0.994483
0.956192
0.909129
0.869547
0.853629
0.863373
0.895815
1.28253
1.26024
1.23349
1.18969
1.12923
1.07312
1.03589
1.01563
0.991061
0.951425
0.903001
0.863042
0.848114
0.859732
0.894488
1.28798
1.2645
1.23522
1.18841
1.12536
1.06826
1.03173
1.01247
0.987597
0.946499
0.896667
0.85637
0.842528
0.856123
0.893282
1.29352
1.26883
1.23686
1.18687
1.12117
1.0632
1.02752
1.00934
0.984068
0.941391
0.890118
0.849548
0.836903
0.852592
0.892238
1.29917
1.27324
1.23839
1.18505
1.11666
1.05795
1.02331
1.00625
0.980472
0.936089
0.883343
0.842563
0.831226
0.84912
0.891339
1.30493
1.27773
1.23982
1.18295
1.11184
1.05252
1.01911
1.00319
0.976781
0.930568
0.876334
0.835433
0.825531
0.845753
0.890626
1.31081
1.2823
1.24114
1.18056
1.1067
1.04694
1.01494
1.00017
0.972985
0.92481
0.869078
0.828145
0.81981
0.842478
0.890086
1.31683
1.28697
1.24234
1.17788
1.10126
1.04123
1.01082
0.997189
0.96905
0.918788
0.86157
0.820722
0.814098
0.839343
0.88976
1.32297
1.29174
1.24342
1.1749
1.09553
1.03543
1.00678
0.994238
0.964955
0.912478
0.853795
0.813153
0.808392
0.836337
0.889636
1.32925
1.2966
1.24438
1.17161
1.08951
1.02957
1.00285
0.9913
0.960659
0.90585
0.84575
0.805466
0.802731
0.833509
0.889754
1.33568
1.30157
1.2452
1.16801
1.08324
1.0237
0.999051
0.988371
0.956133
0.898878
0.837421
0.797653
0.797116
0.830854
0.890108
1.34225
1.30663
1.24587
1.1641
1.07673
1.01788
0.995419
0.985421
0.951327
0.89153
0.828809
0.789747
0.791591
0.828422
0.890739
1.34896
1.31178
1.24639
1.15987
1.07003
1.01217
0.991991
0.982438
0.946202
0.883777
0.819905
0.781745
0.786161
0.826212
0.891639
1.3558
1.31703
1.24674
1.15531
1.06318
1.00666
0.988799
0.979385
0.940704
0.875589
0.810714
0.773687
0.780875
0.824276
0.892849
1.36277
1.32235
1.24689
1.15042
1.05623
1.00143
0.985884
0.976238
0.934787
0.86694
0.801232
0.765578
0.775745
0.822618
0.894363
1.36984
1.32773
1.24683
1.1452
1.04923
0.996576
0.983282
0.972954
0.928395
0.857806
0.791477
0.757465
0.770826
0.821292
0.896218
1.377
1.33315
1.2465
1.13962
1.04226
0.992219
0.981033
0.9695
0.921481
0.84817
0.781456
0.749365
0.766137
0.820306
0.898416
1.38422
1.33859
1.24588
1.13368
1.03539
0.98847
0.979168
0.965828
0.913999
0.838025
0.771201
0.741336
0.761738
0.819713
0.90099
1.39146
1.34401
1.24492
1.12735
1.02869
0.985444
0.977714
0.961905
0.905916
0.827375
0.760743
0.733412
0.757659
0.819529
0.903942
1.39868
1.34938
1.24355
1.12062
1.02225
0.983242
0.976679
0.957689
0.897214
0.816251
0.750141
0.725666
0.753966
0.819805
0.907304
1.40583
1.35465
1.2417
1.11346
1.01615
0.981928
0.976044
0.953156
0.887904
0.804701
0.739459
0.718155
0.750702
0.820563
0.911078
1.41285
1.35977
1.23931
1.10585
1.01046
0.981495
0.975736
0.948292
0.878042
0.792826
0.728807
0.71098
0.747946
0.821855
0.91529
1.41968
1.36467
1.23628
1.09782
1.00525
0.981803
0.975599
0.943114
0.867746
0.780772
0.718312
0.704235
0.745755
0.823707
0.919942
1.42623
1.36928
1.23253
1.08943
1.00054
0.982467
0.975307
0.937686
0.857261
0.768793
0.708179
0.698069
0.74423
0.826173
0.925052
1.43244
1.3735
1.22797
1.08085
0.996414
0.982776
0.974211
0.932021
0.846953
0.75727
0.69869
0.692666
0.743471
0.829296
0.930627
1.43822
1.37724
1.22256
1.07232
0.992794
0.981727
0.971421
0.925979
0.837243
0.746719
0.690261
0.688313
0.743656
0.833168
0.936701
1.4435
1.38036
1.21636
1.06406
0.989282
0.978103
0.96615
0.919301
0.828466
0.737648
0.683338
0.685337
0.744992
0.837898
0.943317
1.44816
1.38271
1.20948
1.05612
0.985217
0.971071
0.958205
0.911853
0.820846
0.730466
0.67833
0.684069
0.747715
0.843624
0.950539
1.45213
1.38422
1.20217
1.04827
0.979909
0.960837
0.948351
0.903915
0.814524
0.725347
0.67544
0.684705
0.751975
0.850444
0.958416
1.45525
1.38528
1.19456
1.03924
0.972549
0.9487
0.938185
0.89648
0.809768
0.722309
0.674666
0.687268
0.757815
0.858382
0.966971
1.45752
1.38664
1.18607
1.02686
0.962223
0.93651
0.929753
0.891151
0.807081
0.721272
0.675784
0.69156
0.765095
0.867342
0.976146
1.4594
1.38831
1.1755
1.00955
0.948526
0.92587
0.925023
0.8896
0.807086
0.722167
0.678492
0.69726
0.773556
0.87712
0.985817
1.46188
1.38911
1.16102
0.987521
0.93258
0.918306
0.925485
0.892801
0.810054
0.724763
0.682371
0.703941
0.782834
0.887439
0.995827
1.466
1.38712
1.13875
0.961531
0.915989
0.915012
0.931786
0.900684
0.815606
0.728553
0.686905
0.71114
0.792556
0.89801
1.00601
1.47272
1.38014
1.10461
0.932187
0.898712
0.915099
0.942979
0.911939
0.822581
0.732643
0.69142
0.718357
0.802354
0.908622
1.01621
1.48269
1.3663
1.06277
0.902568
0.879741
0.915012
0.955841
0.923791
0.828978
0.735734
0.695096
0.725082
0.811932
0.919239
1.02631
1.4952
1.34698
1.02987
0.880518
0.861898
0.911961
0.965691
0.932158
0.831888
0.735913
0.696704
0.730609
0.82092
0.929825
1.03611
1.50675
1.32902
1.02124