/*--------------------------------*- C++ -*----------------------------------*\
  =========                 |
  \\      /  F ield         | OpenFOAM: The Open Source CFD Toolbox
   \\    /   O peration     | Website:  https://openfoam.org
    \\  /    A nd           | Version:  6.0
     \\/     M anipulation  |
\*---------------------------------------------------------------------------*/
FoamFile
{
    version     2.0;
    format      ascii;
    class       surfaceScalarField;
    location    "14";
    object      phi;
}
// * * * * * * * * * * * * * * * * * * * * * * * * * * * * * * * * * * * * * //

dimensions      [0 3 -1 0 0 0 0];

internalField   nonuniform List<scalar> 
68636
(
3.72881e-05
0.00309852
1.74486e-08
7.50104e-05
0.00306354
0.000112204
0.0029956
0.000148333
0.00289495
0.000182995
0.00276231
0.000215706
0.00259934
0.000246058
0.00240821
0.000273684
0.00219099
0.000298298
0.00194954
0.000319622
0.00168629
0.000337417
0.00140406
0.000351483
0.00110592
0.000361755
0.000795419
0.000367946
0.000474535
0.000140045
0.000363883
3.68566e-05
0.00306169
-1.20988e-08
7.4101e-05
0.00302632
0.000110838
0.00295892
0.000146552
0.00285932
0.000180824
0.00272815
0.000213153
0.00256713
0.000243136
0.00237837
0.000270423
0.00216384
0.000294741
0.00192539
0.000315816
0.00166536
0.000333414
0.00138664
0.000347298
0.00109221
0.000357603
0.000785337
0.000363228
0.000469203
0.000143186
0.000360594
3.64018e-05
0.00302532
-2.98397e-08
7.31798e-05
0.00298954
0.00010949
0.00292263
0.000144807
0.00282402
0.000178689
0.00269431
0.000210629
0.0025352
0.000240246
0.0023488
0.000267202
0.00213689
0.000291236
0.00190137
0.000312071
0.00164453
0.000329475
0.00136924
0.000343182
0.00107849
0.000353341
0.00077516
0.000359301
0.0004632
0.000143785
0.000358521
3.59424e-05
0.00298942
-3.7928e-08
7.22734e-05
0.00295323
0.000108174
0.00288677
0.000143099
0.00278914
0.000176584
0.0026609
0.000208132
0.00250372
0.000237383
0.00231963
0.000264016
0.00211035
0.000287772
0.00187772
0.00030837
0.00162403
0.00032558
0.00135215
0.000339123
0.00106509
0.000349069
0.000765388
0.000355111
0.00045739
0.000144131
0.000355153
3.54912e-05
0.00295397
-3.8619e-08
7.13923e-05
0.00291733
0.000106891
0.00285129
0.000141421
0.00275461
0.000174504
0.00262783
0.000205658
0.00247256
0.000234547
0.00229075
0.000260862
0.00208402
0.000284346
0.00185424
0.00030471
0.00160365
0.000321727
0.00133512
0.000335117
0.00105167
0.000344859
0.000755606
0.000350798
0.000451385
0.000143379
0.000351336
3.50525e-05
0.00291896
-2.82648e-08
7.05365e-05
0.00288186
0.000105637
0.00281622
0.000139767
0.00272051
0.000172445
0.00259521
0.000203208
0.00244184
0.000231743
0.00226228
0.000257747
0.00205808
0.000280961
0.00183111
0.000301095
0.0015836
0.00031792
0.00131839
0.000331163
0.00103854
0.000340729
0.000746187
0.000346552
0.000445758
0.000142716
0.000347542
3.46264e-05
0.00288434
-1.29026e-08
6.97015e-05
0.00284679
0.000104402
0.00278153
0.000138131
0.00268678
0.000170405
0.00256294
0.000200785
0.00241145
0.000228974
0.0022341
0.000254674
0.00203237
0.000277624
0.00180815
0.000297531
0.00156367
0.000314164
0.00130173
0.000327263
0.0010254
0.000336675
0.000736725
0.000342398
0.000439955
0.000141149
0.000343738
3.42113e-05
0.00285014
6.7713e-09
6.88825e-05
0.00281213
0.000103182
0.00274725
0.000136507
0.00265348
0.000168383
0.00253111
0.000198389
0.00238149
0.000226241
0.0022063
0.000251645
0.00200702
0.000274336
0.00178553
0.000294018
0.00154406
0.000310461
0.00128538
0.000323416
0.00101255
0.000332694
0.000727578
0.000338315
0.000434509
0.000139887
0.000339867
3.38054e-05
0.0028163
2.52019e-08
6.80756e-05
0.00277786
0.000101973
0.00271336
0.000134895
0.00262056
0.000166378
0.00249963
0.00019602
0.00235183
0.000223544
0.00217877
0.000248659
0.00198188
0.000271095
0.00176308
0.000290555
0.00152457
0.000306809
0.00126909
0.000319621
0.000999694
0.000328777
0.000718365
0.000334295
0.000428901
0.000138014
0.000335934
3.34068e-05
0.00278287
3.90056e-08
6.72776e-05
0.002744
0.000100772
0.00267989
0.000133293
0.00258806
0.00016439
0.00246857
0.000193678
0.00232258
0.000220884
0.0021516
0.000245716
0.0019571
0.0002679
0.00174095
0.000287141
0.00150539
0.000303206
0.0012531
0.000315874
0.00098712
0.000324919
0.000709438
0.000330336
0.000423642
0.000136631
0.000331985
3.30141e-05
0.00274981
4.72945e-08
6.64866e-05
0.00271053
9.95777e-05
0.0026468
0.000131702
0.00255593
0.000162422
0.00243785
0.000191365
0.00229362
0.00021826
0.0021247
0.000242814
0.00193253
0.000264749
0.001719
0.000283772
0.00148634
0.00029965
0.00123719
0.000312173
0.000974549
0.000321113
0.000700437
0.000326438
0.000418218
0.000134775
0.000328054
3.26259e-05
0.00271714
4.82242e-08
6.57015e-05
0.00267747
9.83919e-05
0.00261412
0.000130125
0.00252422
0.000160475
0.00240753
0.000189081
0.00226504
0.000215673
0.00209815
0.000239952
0.00190829
0.000261641
0.00169737
0.000280447
0.00146759
0.00029614
0.00122157
0.000308518
0.000962259
0.000317354
0.000691711
0.000322596
0.000413123
0.000133449
0.00032417
3.22414e-05
0.00268486
4.29578e-08
6.49221e-05
0.00264479
9.72155e-05
0.00258183
0.000128563
0.00249287
0.000158552
0.00237754
0.00018683
0.00223675
0.000213123
0.00207185
0.000237131
0.00188426
0.000258574
0.0016759
0.000277166
0.00144897
0.000292674
0.00120602
0.000304905
0.000949977
0.00031364
0.000682909
0.000318807
0.000407852
0.000131674
0.00032034
3.18603e-05
0.00265297
3.28056e-08
6.41488e-05
0.00261251
9.60501e-05
0.00254995
0.00012702
0.00246192
0.000156656
0.00234793
0.000184612
0.00220882
0.00021061
0.00204589
0.00023435
0.00186056
0.000255549
0.00165475
0.000273926
0.00143065
0.00028925
0.00119076
0.000301335
0.000937973
0.000309968
0.000674379
0.000315067
0.00040289
0.000130405
0.000316569
3.14824e-05
0.00262147
2.00929e-08
6.33825e-05
0.00258061
9.48976e-05
0.00251843
0.000125497
0.00243131
0.000154788
0.00231863
0.000182428
0.00218117
0.000208134
0.00202017
0.000231607
0.00183707
0.000252564
0.00163377
0.000270726
0.00141245
0.000285868
0.00117558
0.000297806
0.000925981
0.000306338
0.000665778
0.000311373
0.000397744
0.000128682
0.000312851
3.1108e-05
0.00259036
7.629e-09
6.26243e-05
0.00254911
9.37598e-05
0.00248731
0.000123996
0.00240109
0.000152949
0.00228971
0.000180277
0.00215387
0.000205695
0.00199478
0.000228903
0.0018139
0.000249618
0.00161311
0.000267567
0.00139456
0.000282526
0.00116069
0.000294318
0.000914267
0.000302747
0.000657447
0.000307721
0.0003929
0.000127441
0.000309185
3.07373e-05
0.00255963
-2.58906e-09
6.18753e-05
0.00251796
9.2638e-05
0.00245654
0.000122519
0.00237121
0.000151139
0.00226108
0.000178159
0.00212683
0.000203292
0.00196963
0.000226235
0.00179093
0.000246708
0.00159261
0.000264445
0.00137678
0.000279223
0.00114586
0.00029087
0.000902565
0.000299197
0.000649047
0.000304112
0.000387869
0.000125745
0.000305563
3.03708e-05
0.00252927
-8.87855e-09
6.11363e-05
0.00248721
9.15331e-05
0.00242616
0.000121065
0.00234169
0.000149358
0.00223281
0.000176074
0.00210014
0.000200922
0.00194482
0.000223602
0.00176829
0.000243835
0.00157242
0.00026136
0.00135931
0.000275958
0.00113133
0.00028746
0.000891137
0.000295685
0.000640916
0.000300542
0.000383134
0.000124516
0.000301984
3.00088e-05
0.00249927
-1.0738e-08
6.0408e-05
0.00245681
9.04458e-05
0.00239612
0.000119635
0.00231249
0.000147605
0.00220483
0.00017402
0.0020737
0.000198585
0.00192023
0.000221002
0.00174585
0.000240996
0.0015524
0.00025831
0.00134196
0.00027273
0.00111686
0.000284088
0.000879722
0.000292212
0.000632718
0.000297011
0.000378216
0.00012284
0.000298442
2.96515e-05
0.00246964
-8.27166e-09
5.96907e-05
0.00242678
8.93759e-05
0.00236645
0.000118228
0.00228366
0.00014588
0.0021772
0.000171995
0.00204762
0.000196279
0.00189598
0.000218434
0.00172373
0.00023819
0.00153268
0.000255295
0.00132491
0.000269538
0.00110268
0.000280753
0.000868576
0.000288776
0.000624785
0.000293518
0.00037359
0.000121624
0.000294938
2.92993e-05
0.00244034
-2.29923e-09
5.89847e-05
0.00239709
8.83234e-05
0.00233711
0.000116843
0.00225513
0.00014418
0.00214986
0.000169998
0.00202178
0.000194001
0.00187196
0.000215897
0.00170181
0.000235416
0.00151314
0.000252313
0.00130797
0.00026638
0.00108856
0.000277455
0.000857443
0.000285378
0.000616786
0.000290063
0.000368784
0.000119974
0.00029147
2.89522e-05
0.00241139
5.99824e-09
5.82898e-05
0.00236777
8.72875e-05
0.00230812
0.000115479
0.00222696
0.000142504
0.00212286
0.000168026
0.00199628
0.000191751
0.00184826
0.000213388
0.00168021
0.000232672
0.00149389
0.000249363
0.00129133
0.000263256
0.00107473
0.000274193
0.000846574
0.000282017
0.000609047
0.000286645
0.000364267
0.000118776
0.000288037
2.86103e-05
0.00238276
1.53605e-08
5.76057e-05
0.00233877
8.62676e-05
0.00227945
0.000114136
0.00219908
0.000140851
0.00209613
0.000166079
0.00197103
0.000189527
0.0018248
0.000210907
0.0016588
0.000229958
0.00147481
0.000246444
0.00127481
0.000260166
0.00106096
0.000270965
0.000835716
0.000278693
0.000601242
0.000283263
0.000359573
0.000117156
0.00028464
2.82735e-05
0.00235447
2.46137e-08
5.6932e-05
0.00231012
8.52627e-05
0.00225114
0.000112811
0.00217155
0.000139219
0.00206974
0.000164155
0.00194612
0.000187327
0.00180165
0.000208452
0.00163771
0.000227272
0.00145603
0.000243556
0.00125857
0.000257108
0.00104746
0.000267772
0.000825117
0.000275404
0.000593694
0.000279918
0.000355165
0.000115983
0.000281279
2.79417e-05
0.00232649
3.28932e-08
5.62681e-05
0.00228179
8.42719e-05
0.00222313
0.000111503
0.00214431
0.000137606
0.00204363
0.000162253
0.00192146
0.000185151
0.00177873
0.000206022
0.00161682
0.000224614
0.00143741
0.000240698
0.00124245
0.000254083
0.00103403
0.000264614
0.000814527
0.000272151
0.000586079
0.000276609
0.000350581
0.000114399
0.000277952
2.76146e-05
0.00229885
3.96241e-08
5.56134e-05
0.0022538
8.32942e-05
0.00219546
0.000110211
0.00211741
0.000136012
0.00201785
0.00016037
0.00189712
0.000182997
0.00175613
0.000203618
0.00159623
0.000221982
0.00141909
0.00023787
0.00122661
0.000251089
0.00102086
0.000261489
0.000804189
0.000268933
0.000578715
0.000273337
0.000346279
0.000113251
0.000274663
2.72921e-05
0.0022715
4.45686e-08
5.49674e-05
0.00222612
8.23287e-05
0.00216809
0.000108934
0.00209079
0.000134435
0.00199234
0.000158508
0.00187303
0.000180865
0.00173375
0.000201237
0.00157583
0.000219378
0.00140092
0.00023507
0.00121088
0.000248127
0.00100776
0.000258397
0.000793859
0.000265751
0.000571283
0.0002701
0.000341802
0.000111699
0.000271409
2.69739e-05
0.00224449
4.7739e-08
5.43294e-05
0.00219878
8.13746e-05
0.00214106
0.000107672
0.00206451
0.000132875
0.00196715
0.000156664
0.00184926
0.000178754
0.00171169
0.00019888
0.00155574
0.0002168
0.00138303
0.0002323
0.00119542
0.000245196
0.000994915
0.000255339
0.000783776
0.000262603
0.000564098
0.000266899
0.000337603
0.000110573
0.000268192
2.66597e-05
0.00221778
4.93313e-08
5.36991e-05
0.00217173
8.04312e-05
0.00211432
0.000106423
0.00203851
0.00013133
0.00194223
0.000154838
0.00182574
0.000176664
0.00168984
0.000196546
0.00153583
0.000214248
0.0013653
0.000229558
0.00118007
0.000242296
0.000982131
0.000252315
0.000773697
0.000259489
0.000556845
0.000263734
0.000333229
0.000109057
0.000265011
2.63493e-05
0.00219139
4.96377e-08
5.30758e-05
0.00214502
7.94978e-05
0.00208791
0.000105186
0.00201284
0.000129801
0.00191764
0.000153029
0.00180253
0.000174594
0.0016683
0.000194236
0.00151622
0.000211722
0.00134785
0.000226845
0.00116499
0.000239427
0.000969598
0.000249323
0.000763859
0.000256411
0.000549833
0.000260605
0.000329128
0.000107945
0.000261867
2.60426e-05
0.00216529
4.8981e-08
5.24592e-05
0.00211859
7.8574e-05
0.00206179
0.000103962
0.00198744
0.000128286
0.0018933
0.000151239
0.00177956
0.000172544
0.00164697
0.000191949
0.00149679
0.000209222
0.00133055
0.000224161
0.00115002
0.000236589
0.000957123
0.000246364
0.000754024
0.000253366
0.000542752
0.000257511
0.000324853
0.000106425
0.000258758
2.57392e-05
0.00213951
4.76654e-08
5.1849e-05
0.0020925
7.76594e-05
0.00203599
0.000102749
0.00196236
0.000126786
0.00186928
0.000149465
0.0017569
0.000170515
0.00162595
0.000189685
0.00147765
0.000206748
0.00131352
0.000221505
0.0011353
0.000233782
0.000944895
0.000243438
0.000744426
0.000250356
0.000535909
0.000254453
0.000320846
0.000105322
0.000255687
2.54391e-05
0.00211402
4.59533e-08
5.12449e-05
0.00206668
7.67537e-05
0.00201047
0.000101549
0.00193756
0.000125301
0.00184552
0.000147709
0.00173447
0.000168505
0.00160513
0.000187444
0.00145868
0.0002043
0.00129663
0.000218878
0.00112069
0.000231006
0.000932721
0.000240545
0.000734827
0.00024738
0.000528995
0.000251429
0.000316665
0.000103816
0.000252651
2.5142e-05
0.00208884
4.40423e-08
5.06467e-05
0.00204119
7.58566e-05
0.00198527
0.000100359
0.00191307
0.000123829
0.00182206
0.00014597
0.00171235
0.000166516
0.00158461
0.000185226
0.00144
0.000201879
0.00128001
0.00021628
0.00110633
0.000228261
0.000920787
0.000237685
0.000725459
0.000244438
0.000522314
0.00024844
0.000312747
0.000102726
0.000249652
2.4848e-05
0.00206394
4.20816e-08
5.00544e-05
0.00201598
7.49682e-05
0.00196035
9.91812e-05
0.00188884
0.000122372
0.00179886
0.000144248
0.00169046
0.000164548
0.00156429
0.000183032
0.00142149
0.000199483
0.00126353
0.00021371
0.00109206
0.000225547
0.000908904
0.000234857
0.000716089
0.00024153
0.000515562
0.000245486
0.000308658
0.000101214
0.000246686
2.45569e-05
0.00203936
4.01644e-08
4.94678e-05
0.00199108
7.40882e-05
0.00193574
9.80146e-05
0.00186493
0.000120929
0.00177596
0.000142544
0.00166886
0.000162599
0.00154425
0.000180861
0.00140326
0.000197113
0.00124731
0.000211169
0.00107805
0.000222864
0.000897256
0.000232062
0.000706945
0.000238656
0.000509039
0.000242566
0.000304829
0.000100146
0.000243758
2.42688e-05
0.00201504
3.83537e-08
4.88869e-05
0.00196645
7.32168e-05
0.0019114
9.68594e-05
0.00184128
0.000119501
0.00175331
0.000140857
0.00164749
0.000160672
0.00152442
0.000178713
0.00138519
0.00019477
0.00123122
0.000208657
0.00106412
0.000220211
0.000885656
0.000229299
0.000697797
0.000235815
0.000502444
0.00023968
0.000300829
9.8651e-05
0.000240862
2.39834e-05
0.00199103
3.66762e-08
4.83116e-05
0.00194213
7.23539e-05
0.00188737
9.57156e-05
0.00181793
0.000118087
0.00173095
0.000139187
0.00162641
0.000158764
0.00150486
0.000176589
0.00136739
0.000192453
0.00121539
0.000206173
0.00105044
0.000217588
0.000874286
0.000226568
0.000688871
0.000233007
0.000496073
0.000236828
0.000297087
9.76144e-05
0.000238002
2.37009e-05
0.00196729
3.51472e-08
4.7742e-05
0.00191808
7.14995e-05
0.0018636
9.45834e-05
0.00179483
0.000116688
0.00170883
0.000137536
0.00160554
0.000156878
0.0014855
0.000174489
0.00134976
0.000190162
0.00119969
0.000203717
0.00103685
0.000214997
0.000862961
0.000223869
0.000679939
0.000230233
0.000489631
0.000234009
0.000293177
9.6155e-05
0.000235174
2.34212e-05
0.00194384
3.37629e-08
4.71781e-05
0.00189434
7.06537e-05
0.00184014
9.34628e-05
0.00177204
0.000115304
0.00168701
0.000135902
0.00158497
0.000155012
0.00146641
0.000172412
0.00133238
0.000187897
0.00118423
0.00020129
0.0010235
0.000212435
0.000851862
0.000221202
0.000671224
0.000227491
0.000483409
0.000231223
0.000289522
9.51535e-05
0.00023238
2.31444e-05
0.00192065
3.252e-08
4.66199e-05
0.00187085
6.98166e-05
0.00181693
9.2354e-05
0.00174949
0.000113934
0.00166542
0.000134285
0.0015646
0.000153167
0.0014475
0.000170358
0.00131517
0.000185658
0.0011689
0.000198891
0.00101023
0.000209903
0.000840805
0.000218566
0.000662501
0.000224782
0.000477116
0.000228471
0.000285702
9.37379e-05
0.000229619
2.28704e-05
0.00189776
3.14022e-08
4.60674e-05
0.00184767
6.89883e-05
0.00179402
9.12569e-05
0.00172723
0.000112579
0.00164411
0.000132687
0.00154451
0.000151343
0.00142887
0.000168328
0.00129821
0.000183445
0.00115382
0.00019652
0.000997189
0.000207402
0.000829968
0.000215962
0.000653992
0.000222105
0.000471037
0.000225751
0.000282132
9.27684e-05
0.000226892
2.25993e-05
0.00187512
3.04005e-08
4.55207e-05
0.00182474
6.81687e-05
0.00177136
9.01716e-05
0.00170522
0.000111239
0.00162303
0.000131107
0.00152462
0.000149539
0.00141041
0.000166322
0.0012814
0.000181258
0.00113885
0.000194177
0.000984233
0.000204929
0.00081917
0.000213389
0.000645473
0.000219461
0.000464888
0.000223064
0.000278398
9.13953e-05
0.000224195
2.2331e-05
0.00185277
2.94959e-08
4.49799e-05
0.0018021
6.73579e-05
0.001749
8.90983e-05
0.00168349
0.000109914
0.00160223
0.000129544
0.00150501
0.000147756
0.00139222
0.000164338
0.00126484
0.000179096
0.00112412
0.000191862
0.000971504
0.000202487
0.00080859
0.000210847
0.000637163
0.000216848
0.000458952
0.000220409
0.000274912
9.04534e-05
0.000221533
2.20657e-05
0.00183067
2.86801e-08
4.44449e-05
0.00177971
6.65561e-05
0.00172688
8.80368e-05
0.001662
0.000108604
0.00158165
0.000127999
0.00148559
0.000145994
0.00137421
0.000162378
0.00124843
0.00017696
0.00110951
0.000189575
0.000958854
0.000200074
0.000798046
0.000208335
0.000628843
0.000214266
0.000452944
0.000217786
0.000271263
8.91187e-05
0.000218901
2.18032e-05
0.00180885
2.79324e-08
4.39158e-05
0.00175761
6.57631e-05
0.00170504
8.69873e-05
0.00164079
0.000107308
0.00156134
0.000126473
0.00146645
0.000144252
0.00135645
0.000160441
0.00123227
0.00017485
0.00109513
0.000187314
0.000946426
0.000197689
0.000787715
0.000205853
0.000620728
0.000211716
0.000447144
0.000215195
0.000267857
8.81983e-05
0.000216302
2.15437e-05
0.00178727
2.72465e-08
4.33926e-05
0.00173575
6.4979e-05
0.00168344
8.59498e-05
0.0016198
0.000106028
0.00154125
0.000124963
0.00144749
0.000142531
0.00133886
0.000158527
0.00121625
0.000172764
0.00108086
0.000185081
0.000934074
0.000195333
0.000777418
0.000203402
0.000612601
0.000209196
0.000441273
0.000212635
0.00026429
8.68973e-05
0.000213733
2.1287e-05
0.00176596
2.66035e-08
4.28753e-05
0.00171417
6.42039e-05
0.00166212
8.49241e-05
0.0015991
0.000104763
0.00152142
0.000123472
0.0014288
0.00014083
0.00132152
0.000156636
0.00120047
0.000170704
0.00106682
0.000182875
0.000921939
0.000193006
0.000767329
0.00020098
0.000604676
0.000206707
0.000435608
0.000210106
0.000260963
8.59954e-05
0.000211196
2.10333e-05
0.00174489
2.60008e-08
4.23638e-05
0.00169283
6.34377e-05
0.00164104
8.39104e-05
0.00157861
0.000103512
0.00150181
0.000121998
0.0014103
0.00013915
0.00130434
0.000154767
0.00118482
0.000168668
0.00105289
0.000180695
0.000909877
0.000190707
0.000757273
0.000198587
0.000596737
0.000204248
0.000429871
0.000207609
0.000257475
8.47242e-05
0.000208689
2.07825e-05
0.00172409
2.54194e-08
4.18583e-05
0.00167177
6.26803e-05
0.00162023
8.29085e-05
0.00155839
0.000102276
0.00148245
0.000120542
0.00139205
0.000137489
0.00128742
0.000152921
0.00116942
0.000166657
0.00103918
0.000178541
0.000898028
0.000188435
0.000747421
0.000196223
0.000588997
0.000201819
0.000424336
0.000205141
0.000254223
8.38371e-05
0.000206214
2.05347e-05
0.00170352
2.48604e-08
4.13586e-05
0.00165093
6.19318e-05
0.00159964
8.19184e-05
0.0015384
0.000101055
0.0014633
0.000119103
0.00137398
0.000135849
0.00127065
0.000151097
0.00115414
0.00016467
0.00102558
0.000176414
0.000886249
0.000186191
0.0007376
0.000193888
0.000581242
0.000199419
0.000418729
0.000202704
0.000250812
8.25928e-05
0.000203767
2.02897e-05
0.00168322
2.43069e-08
4.08648e-05
0.00163037
6.11921e-05
0.00157932
8.094e-05
0.00151866
9.98482e-05
0.00144441
0.000117681
0.00135617
0.000134228
0.00125412
0.000149295
0.0011391
0.000162707
0.00101219
0.000174312
0.000874678
0.000183975
0.000727979
0.000191582
0.000573683
0.000197048
0.000413322
0.000200296
0.000247633
8.17199e-05
0.000201351
2.00476e-05
0.00166314
2.37632e-08
4.03768e-05
0.00161003
6.04611e-05
0.00155923
7.99733e-05
0.00149913
9.8656e-05
0.00142571
0.000116277
0.00133853
0.000132626
0.00123775
0.000147515
0.00112418
0.000160768
0.000998908
0.000172236
0.000863175
0.000181785
0.000718386
0.000189303
0.000566107
0.000194707
0.000407843
0.000197918
0.000244298
8.05006e-05
0.000198964
1.98084e-05
0.00164331
2.32123e-08
3.98945e-05
0.00158995
5.97389e-05
0.00153939
7.90181e-05
0.00147987
9.7478e-05
0.00140726
0.000114889
0.00132113
0.000131044
0.00122161
0.000145756
0.00110949
0.000158852
0.000985837
0.000170185
0.000851876
0.000179622
0.00070899
0.000187052
0.000558723
0.000192394
0.00040256
0.000195568
0.000241189
7.964e-05
0.000196606
1.9572e-05
0.00162371
2.26618e-08
3.94181e-05
0.0015701
5.90253e-05
0.00151978
7.80744e-05
0.00146081
9.63142e-05
0.00138901
0.000113518
0.00130391
0.000129481
0.00120563
0.000144019
0.00109493
0.00015696
0.000972865
0.000168159
0.000840642
0.000177485
0.000699621
0.000184829
0.000551321
0.000190109
0.000397205
0.000193248
0.000237926
7.84443e-05
0.000194276
1.93385e-05
0.00160436
2.20961e-08
3.89473e-05
0.0015505
5.83202e-05
0.00150041
7.7142e-05
0.00144199
9.51644e-05
0.001371
0.000112164
0.00128693
0.000127937
0.00118987
0.000142302
0.00108059
0.000155091
0.000960102
0.000166158
0.000829608
0.000175375
0.000690445
0.000182633
0.00054411
0.000187851
0.000392044
0.000190955
0.000234888
7.75966e-05
0.000191975
1.91077e-05
0.00158522
2.15256e-08
3.84822e-05
0.00153111
5.76236e-05
0.00148126
7.62209e-05
0.00142338
9.40286e-05
0.00135318
0.000110826
0.00127011
0.000126412
0.00117426
0.000140607
0.00106637
0.000153244
0.000947435
0.000164181
0.000818637
0.00017329
0.000681293
0.000180463
0.000536879
0.000185622
0.000386811
0.000188691
0.000231695
7.64235e-05
0.000189702
1.88798e-05
0.00156632
2.09339e-08
3.80226e-05
0.00151198
5.69355e-05
0.00146235
7.53109e-05
0.00140502
9.29065e-05
0.00133559
0.000109504
0.00125353
0.000124905
0.00115888
0.000138932
0.00105236
0.00015142
0.000934971
0.000162228
0.000807861
0.00017123
0.000672331
0.00017832
0.000529834
0.000183419
0.000381768
0.000186454
0.000228724
7.55877e-05
0.000187456
1.86546e-05
0.00154764
2.03343e-08
3.75687e-05
0.00149305
5.62556e-05
0.00144366
7.44119e-05
0.00138685
9.17981e-05
0.00131819
0.000108198
0.00123711
0.000123417
0.00114364
0.000137278
0.00103848
0.000149619
0.000922601
0.000160299
0.000797146
0.000169196
0.000663392
0.000176203
0.00052277
0.000181243
0.000376653
0.000184244
0.000225601
7.44363e-05
0.000185237
1.84322e-05
0.00152919
1.97109e-08
3.71202e-05
0.00147437
5.5584e-05
0.0014252
7.35238e-05
0.00136892
9.0703e-05
0.00130103
0.000106908
0.00122092
0.000121947
0.00112861
0.000135643
0.0010248
0.000147839
0.00091043
0.000158394
0.000786623
0.000167186
0.000654639
0.000174112
0.000515889
0.000179094
0.000371726
0.000182061
0.000222696
7.36132e-05
0.000183046
1.82125e-05
0.00151095
1.90786e-08
3.66771e-05
0.0014559
5.49205e-05
0.00140695
7.26465e-05
0.00135118
8.96214e-05
0.00128404
0.000105634
0.00120489
0.000120494
0.00111373
0.000134029
0.00101124
0.000146081
0.00089835
0.000156511
0.000776157
0.000165201
0.000645907
0.000172046
0.000508987
0.000176971
0.000366727
0.000179905
0.00021964
7.24831e-05
0.000180881
1.79954e-05
0.00149295
1.842e-08
3.62395e-05
0.00143766
5.42651e-05
0.00138893
7.17799e-05
0.00133368
8.85528e-05
0.00126727
0.000104376
0.00118908
0.00011906
0.00109906
0.000132435
0.000997888
0.000144344
0.000886464
0.000154652
0.00076588
0.00016324
0.000637358
0.000170005
0.000502265
0.000174874
0.000361913
0.000177775
0.0002168
7.16721e-05
0.000178743
1.7781e-05
0.00147514
1.7752e-08
3.58071e-05
0.00141963
5.36177e-05
0.00137111
7.09239e-05
0.00131636
8.74973e-05
0.00125069
0.000103132
0.00117343
0.000117643
0.00108453
0.000130859
0.000984647
0.000142628
0.000874666
0.000152816
0.000755659
0.000161303
0.000628828
0.00016799
0.000495521
0.000172802
0.000357026
0.000175671
0.00021381
7.05627e-05
0.000176629
1.75693e-05
0.00145756
1.70573e-08
3.538e-05
0.00140183
5.29782e-05
0.00135352
7.00782e-05
0.00129927
8.64547e-05
0.00123432
0.000101904
0.00115799
0.000116243
0.00107021
0.000129304
0.000971605
0.000140934
0.000863058
0.000151001
0.000745621
0.00015939
0.000620478
0.000165999
0.000488955
0.000170756
0.000352323
0.000173592
0.000211033
6.97648e-05
0.000174542
1.73601e-05
0.00144017
1.63544e-08
3.49582e-05
0.00138422
5.23464e-05
0.00133612
6.92429e-05
0.00128236
8.54248e-05
0.00121813
0.000100691
0.00114271
0.00011486
0.00105602
0.000127767
0.000958675
0.00013926
0.000851536
0.00014921
0.000735638
0.0001575
0.000612146
0.000164032
0.000482366
0.000168735
0.000347546
0.000171539
0.000208108
6.86758e-05
0.00017248
1.71535e-05
0.00142301
1.56242e-08
3.45414e-05
0.00136684
5.17224e-05
0.00131895
6.84177e-05
0.00126567
8.44074e-05
0.00120215
9.94928e-05
0.00112764
0.000113494
0.00104203
0.000126248
0.000945939
0.000137607
0.0008402
0.000147439
0.000725835
0.000155633
0.00060399
0.000162089
0.000475952
0.000166738
0.00034295
0.000169511
0.000205392
6.78903e-05
0.000170444
1.69494e-05
0.00140603
1.48867e-08
3.41298e-05
0.00134965
5.11059e-05
0.00130196
6.76027e-05
0.00124916
8.34025e-05
0.00118633
9.83092e-05
0.00111271
0.000112145
0.00102818
0.000124749
0.000933312
0.000135973
0.000828947
0.000145691
0.000716083
0.000153789
0.00059585
0.00016017
0.000469514
0.000164765
0.000338281
0.000167508
0.000202531
6.68212e-05
0.000168431
1.67478e-05
0.00138928
1.41229e-08
3.37232e-05
0.00133268
5.0497e-05
0.00128519
6.67975e-05
0.00123287
8.24098e-05
0.00117073
9.71399e-05
0.001098
0.000110812
0.00101452
0.000123268
0.000920875
0.00013436
0.000817876
0.000143964
0.000706509
0.000151967
0.000587884
0.000158275
0.000463248
0.000162817
0.000333791
0.000165529
0.000199876
6.6049e-05
0.000166444
1.65487e-05
0.00137271
1.33533e-08
3.33215e-05
0.0013159
4.98955e-05
0.00126861
6.60022e-05
0.00121675
8.14292e-05
0.00115529
9.5985e-05
0.00108343
0.000109496
0.00100099
0.000121804
0.000908543
0.000132767
0.000806885
0.000142258
0.000696984
0.000150168
0.000579932
0.000156402
0.000456957
0.000160892
0.000329227
0.000163574
0.000197076
6.49997e-05
0.000164479
1.6352e-05
0.00135635
1.25569e-08
3.29248e-05
0.00129933
4.93014e-05
0.00125224
6.52166e-05
0.00120085
8.04606e-05
0.00114006
9.48442e-05
0.00106905
0.000108196
0.000987651
0.000120359
0.000896396
0.000131193
0.000796073
0.000140573
0.000687632
0.00014839
0.00057215
0.000154553
0.000450836
0.000158991
0.000324839
0.000161643
0.00019448
6.42402e-05
0.00016254
1.61577e-05
0.00134017
1.17558e-08
3.25329e-05
0.00128295
4.87145e-05
0.00123605
6.44406e-05
0.00118511
7.95039e-05
0.00112498
9.37173e-05
0.00105482
0.000106911
0.000974437
0.000118932
0.000884353
0.000129638
0.000785338
0.000138908
0.000678328
0.000146635
0.000564382
0.000152726
0.000444689
0.000157113
0.000320379
0.000159735
0.000191741
6.32102e-05
0.000160623
1.59658e-05
0.0013242
1.09287e-08
3.21457e-05
0.00126677
4.81348e-05
0.00122006
6.36741e-05
0.00116958
7.85588e-05
0.0011101
9.26041e-05
0.00104079
0.000105642
0.000961413
0.000117521
0.000872491
0.000128102
0.000774778
0.000137264
0.000669194
0.000144901
0.000556781
0.000150921
0.000438709
0.000155258
0.000316091
0.00015785
0.000189203
6.24644e-05
0.00015873
1.57763e-05
0.0013084
1.00984e-08
3.17634e-05
0.00125078
4.75621e-05
0.00120425
6.29169e-05
0.00115421
7.76253e-05
0.00109538
9.15046e-05
0.0010269
0.000104389
0.000948508
0.000116129
0.000860728
0.000126585
0.000764293
0.00013564
0.000660106
0.000143188
0.000549192
0.000149138
0.000432703
0.000153426
0.000311731
0.000155989
0.000186524
6.14536e-05
0.00015686
1.55891e-05
0.00129281
9.24197e-09
3.13857e-05
0.00123499
4.69965e-05
0.00118865
6.2169e-05
0.00113905
7.67032e-05
0.00108086
9.04185e-05
0.00101319
0.000103151
0.000935788
0.000114753
0.000849143
0.000125087
0.000753979
0.000134036
0.000651184
0.000141496
0.000541766
0.000147377
0.00042686
0.000151616
0.000307541
0.00015415
0.000184042
6.07207e-05
0.000155013
1.54042e-05
0.00127739
8.38358e-09
3.10126e-05
0.00121937
4.64378e-05
0.00117321
6.14302e-05
0.00112404
7.57924e-05
0.00106648
8.93458e-05
0.000999622
0.000101929
0.000923186
0.000113394
0.000837655
0.000123607
0.000743738
0.000132451
0.000642306
0.000139824
0.000534352
0.000145638
0.000420991
0.000149828
0.000303278
0.000152334
0.000181421
5.97286e-05
0.000153188
1.52216e-05
0.00126216
7.50017e-09
3.06441e-05
0.00120396
4.58859e-05
0.00115798
6.07004e-05
0.00110924
7.48926e-05
0.0010523
8.82861e-05
0.000986239
0.000100721
0.000910764
0.000112051
0.000826341
0.000122145
0.000733664
0.000130886
0.000633591
0.000138174
0.000527098
0.00014392
0.000415282
0.000148062
0.000299185
0.00015054
0.000178995
5.90096e-05
0.000151385
1.50412e-05
0.00124711
6.61583e-09
3.028e-05
0.00118871
4.53407e-05
0.00114291
5.99796e-05
0.00109459
7.40039e-05
0.00103826
8.72394e-05
0.000972988
9.95278e-05
0.000898457
0.000110725
0.000815121
0.000120701
0.000723661
0.00012934
0.000624919
0.000136543
0.000519854
0.000142223
0.000409547
0.000146317
0.000295018
0.000148767
0.000176431
5.80362e-05
0.000149604
1.4863e-05
0.00123224
5.70587e-09
2.99205e-05
0.00117366
4.48022e-05
0.00112803
5.92676e-05
0.00108013
7.31261e-05
0.00102441
8.62054e-05
0.000959919
9.83494e-05
0.000886325
0.000109416
0.00080407
0.000119274
0.000713821
0.000127813
0.000616406
0.000134932
0.000512767
0.000140547
0.00040397
0.000144594
0.000291017
0.000147016
0.000174059
5.73303e-05
0.000147845
1.46871e-05
0.00121754
4.79581e-09
2.95653e-05
0.00115877
4.42703e-05
0.00111332
5.85643e-05
0.00106582
7.2259e-05
0.0010107
8.51842e-05
0.000946979
9.71854e-05
0.000874305
0.000108122
0.000793111
0.000117865
0.00070405
0.000126305
0.000607934
0.000133341
0.00050569
0.000138891
0.000398365
0.000142892
0.000286944
0.000145287
0.000171551
5.63752e-05
0.000146107
1.45132e-05
0.00120303
3.86095e-09
2.92145e-05
0.00114407
4.37449e-05
0.00109879
5.78696e-05
0.0010517
7.14025e-05
0.000997179
8.41754e-05
0.000934216
9.60357e-05
0.000862456
0.000106844
0.000782317
0.000116474
0.000694439
0.000124815
0.000599618
0.00013177
0.000498766
0.000137255
0.000392916
0.000141211
0.000283035
0.000143579
0.000169232
5.56833e-05
0.00014439
1.43416e-05
0.00118868
2.92686e-09
2.8868e-05
0.00112954
4.32259e-05
0.00108443
5.71833e-05
0.00103774
7.05565e-05
0.000983794
8.3179e-05
0.000921579
9.49e-05
0.000850717
0.000105582
0.000771613
0.000115099
0.000684894
0.000123343
0.000591342
0.000130217
0.000491852
0.00013564
0.000387439
0.00013955
0.000279053
0.000141891
0.000166778
5.47464e-05
0.000142694
1.4172e-05
0.00117451
1.96764e-09
2.85257e-05
0.00111519
4.27133e-05
0.00107024
5.65055e-05
0.00102395
6.97208e-05
0.000970586
8.21948e-05
0.000909114