/*--------------------------------*- C++ -*----------------------------------*\
  =========                 |
  \\      /  F ield         | OpenFOAM: The Open Source CFD Toolbox
   \\    /   O peration     | Website:  https://openfoam.org
    \\  /    A nd           | Version:  6.0
     \\/     M anipulation  |
\*---------------------------------------------------------------------------*/
FoamFile
{
    version     2.0;
    format      ascii;
    class       volVectorField;
    location    "14";
    object      U;
}
// * * * * * * * * * * * * * * * * * * * * * * * * * * * * * * * * * * * * * //

dimensions      [0 1 -1 0 0 0 0];

internalField   nonuniform List<vector> 
34500
(
(0.999996 -5.22189e-05 -9.42503e-18)
(0.999976 -9.52864e-05 9.03118e-17)
(0.999941 -7.35866e-05 2.28713e-17)
(0.999873 -5.50516e-05 -1.34704e-17)
(0.999781 -0.00012073 1.31973e-16)
(0.999719 -0.000229373 3.05e-16)
(0.999684 -0.000317544 1.52408e-17)
(0.999649 -0.000398473 -2.40004e-16)
(0.999577 -0.000548913 3.70038e-16)
(0.999504 -0.000795426 -2.20492e-17)
(0.999456 -0.00112767 -2.81344e-16)
(0.999462 -0.0015502 -4.62601e-16)
(0.999499 -0.00194086 2.1544e-16)
(1.00028 -0.00285849 4.42404e-16)
(0.992205 -0.00669105 -3.95723e-16)
(0.999989 -0.000138352 -2.98448e-17)
(0.999981 -0.000100702 -8.03462e-17)
(0.999933 1.48578e-05 1.89126e-16)
(0.999801 -4.00239e-06 -1.04634e-16)
(0.999659 -0.000212721 -6.85473e-17)
(0.999604 -0.00040869 -5.98533e-16)
(0.999606 -0.000467538 9.86147e-17)
(0.999556 -0.000514267 1.59411e-16)
(0.999419 -0.000733709 -2.76315e-16)
(0.99927 -0.00118418 -4.53566e-16)
(0.999186 -0.0017809 -1.92449e-16)
(0.999238 -0.00250672 -3.95399e-16)
(0.999186 -0.00309741 -3.06633e-16)
(1.00121 -0.0041549 -5.85495e-16)
(0.993408 -0.00697847 7.05009e-16)
(0.99999 -0.000154612 -2.22374e-17)
(1.00001 -5.24542e-06 9.84249e-17)
(0.99999 0.000156704 3.51684e-17)
(0.999867 6.00305e-05 -4.5561e-17)
(0.999758 -0.000249018 -1.09311e-16)
(0.999775 -0.00043101 6.46648e-17)
(0.999887 -0.000332325 -5.74737e-17)
(0.999936 -0.000164803 -8.88783e-17)
(0.999876 -0.000177878 4.63041e-16)
(0.999766 -0.000476208 -2.56326e-16)
(0.999693 -0.000938616 3.55555e-16)
(0.999763 -0.00152731 5.17427e-16)
(0.999517 -0.0020112 -3.45248e-16)
(1.00157 -0.0026644 3.14089e-16)
(0.997336 -0.00285037 -5.15301e-17)
(0.999997 -0.000127758 4.00661e-18)
(1.00003 0.000106282 -1.63282e-16)
(1.00003 0.000255516 -1.63713e-16)
(0.999896 5.08937e-05 7.39759e-17)
(0.999769 -0.000364706 -2.73751e-16)
(0.999777 -0.000569093 1.37827e-16)
(0.999929 -0.00039649 3.35798e-16)
(1.00006 -9.71716e-05 -2.46984e-16)
(1.0001 4.89852e-05 -9.70977e-16)
(1.00008 -9.67664e-05 3.1544e-16)
(1.00006 -0.000414657 -4.8868e-17)
(1.00016 -0.000860911 2.68525e-16)
(0.999807 -0.00131307 4.32714e-16)
(1.00138 -0.0017721 -2.58685e-16)
(0.998815 -0.00132772 -1.96171e-16)
(1.00001 -8.82932e-05 4.8679e-17)
(1.00005 0.000188985 9.31769e-17)
(1.00006 0.000294248 -1.19472e-16)
(0.9999 -8.56297e-06 5.02402e-17)
(0.9997 -0.000517207 3.36268e-16)
(0.99961 -0.000787653 4.31537e-16)
(0.999698 -0.000660448 -8.69807e-16)
(0.999833 -0.000384071 3.36247e-16)
(0.999939 -0.0002304 9.26012e-16)
(1.00001 -0.000340741 -3.86779e-16)
(1.00008 -0.000604394 -1.13251e-16)
(1.00027 -0.000976267 -2.99606e-17)
(0.999935 -0.00142509 -2.68022e-16)
(1.00106 -0.00177996 5.91803e-16)
(0.99927 -0.00096981 -3.83912e-16)
(1.00002 -5.40831e-05 2.8266e-17)
(1.00009 0.00022976 3.48607e-17)
(1.00013 0.000291272 1.25927e-16)
(0.999992 -5.51402e-05 -1.44882e-16)
(0.999742 -0.000586566 -6.50388e-17)
(0.999547 -0.000890922 -4.0611e-16)
(0.99953 -0.000836033 3.21836e-16)
(0.99962 -0.000648025 -8.16651e-17)
(0.999751 -0.000560712 -3.70999e-16)
(0.999903 -0.000690817 7.44554e-16)
(1.00005 -0.000927873 1.42191e-16)
(1.00034 -0.00122157 3.98499e-17)
(1.00009 -0.00159899 4.20872e-16)
(1.00088 -0.00178743 -1.20267e-15)
(0.99972 -0.000360975 4.47486e-16)
(1.00004 -3.30022e-05 -4.91888e-17)
(1.00014 0.000229784 5.53916e-17)
(1.00027 0.000261712 9.71665e-17)
(1.00021 -6.11918e-05 2.73064e-16)
(0.999985 -0.000523661 7.5769e-17)
(0.999736 -0.000784147 3.44352e-16)
(0.999633 -0.000756074 -1.4799e-16)
(0.999667 -0.000641037 -6.356e-16)
(0.999795 -0.000619633 -5.75236e-16)
(0.999989 -0.000771438 -7.90168e-16)
(1.00019 -0.00097645 -3.35831e-16)
(1.00054 -0.00117807 1.28724e-17)
(1.00037 -0.0014496 -3.10173e-16)
(1.00088 -0.00146836 1.0245e-15)
(1.00012 0.000394331 -1.31596e-16)
(1.00005 -2.71036e-05 -3.20539e-17)
(1.0002 0.000194472 -2.24775e-17)
(1.00043 0.000208586 -4.51053e-17)
(1.0005 -4.34636e-05 -1.46523e-16)
(1.00035 -0.00037032 1.08112e-16)
(1.00011 -0.000521294 3.93811e-18)
(0.999969 -0.000466377 1.05125e-16)
(0.999957 -0.000388494 6.83956e-16)
(1.00007 -0.000413519 5.58881e-17)
(1.00027 -0.000582035 -3.09731e-16)
(1.00049 -0.000761703 4.29519e-16)
(1.00084 -0.000891623 -3.93012e-17)
(1.00073 -0.00109089 -7.61941e-18)
(1.001 -0.0010264 1.84072e-16)
(1.00034 0.000958787 -3.81033e-16)
(1.00004 -3.5264e-05 -2.77951e-18)
(1.00024 0.00013188 -1.18889e-16)
(1.00056 0.000131761 -2.70788e-17)
(1.00075 -3.25198e-05 1.88974e-16)
(1.00072 -0.000200926 -1.43812e-16)
(1.00053 -0.000216917 2.29111e-16)
(1.00038 -0.000108446 1.50401e-16)
(1.00035 -4.60095e-05 1.01382e-17)
(1.00044 -0.000106955 1.38261e-16)
(1.00063 -0.000297045 3.49788e-17)
(1.00085 -0.000473649 -4.06526e-16)
(1.00117 -0.000573194 2.52176e-16)
(1.00108 -0.000755614 -1.59022e-16)
(1.00117 -0.000701244 -8.13123e-16)
(1.00041 0.00123016 4.78212e-16)
(1.00003 -5.40254e-05 9.11694e-17)
(1.00025 5.28325e-05 7.27656e-17)
(1.00062 3.6171e-05 -3.23091e-17)
(1.00091 -4.84796e-05 -1.62744e-16)
(1.00098 -7.34381e-05 -1.64558e-16)
(1.00086 3.25321e-05 -6.28037e-16)
(1.00074 0.000190756 4.43771e-16)
(1.0007 0.000239871 9.43005e-18)
(1.00078 0.000142222 7.65665e-16)
(1.00097 -7.94489e-05 7.74751e-16)
(1.00117 -0.000275939 -2.23306e-16)
(1.00145 -0.000380672 -6.63261e-17)
(1.00138 -0.000581829 3.86901e-16)
(1.00135 -0.000583435 6.78572e-16)
(1.00041 0.00125495 -5.13941e-16)
(1 -7.90904e-05 -2.65722e-17)
(1.00022 -3.11758e-05 4.96656e-17)
(1.00061 -6.85774e-05 2.13357e-17)
(1.00095 -9.54386e-05 -4.10051e-17)
(1.00109 -1.42425e-05 -1.39934e-16)
(1.00104 0.000177042 -2.01863e-17)
(1.00096 0.000361695 -4.6997e-16)
(1.00095 0.000387414 -6.59457e-16)
(1.00104 0.000247745 -8.25213e-16)
(1.00123 -1.26438e-05 -4.88067e-16)
(1.00142 -0.000241385 2.78728e-16)
(1.00167 -0.000367431 -3.27461e-16)
(1.00162 -0.000591967 -2.37945e-16)
(1.00154 -0.000645872 -8.86854e-16)
(1.00042 0.00113441 2.90374e-16)
(0.999966 -0.000106133 -7.45239e-17)
(1.00017 -0.000110142 -1.11091e-16)
(1.00053 -0.000171217 -5.3551e-18)
(1.00088 -0.000166137 9.57845e-17)
(1.00107 -2.34519e-05 1.23656e-16)
(1.00107 0.00020811 -1.60892e-16)
(1.00105 0.000388754 -1.72122e-16)
(1.00107 0.000377333 2.14041e-16)
(1.00119 0.000191608 1.04217e-15)
(1.0014 -0.000107786 -9.82208e-17)
(1.0016 -0.000368105 -1.55706e-16)
(1.00184 -0.000512768 2.7475e-16)
(1.00182 -0.000743268 4.19664e-18)
(1.00173 -0.000819056 2.27935e-16)
(1.00049 0.000956957 4.75992e-17)
(0.999926 -0.000131761 1.07405e-16)
(1.0001 -0.000177356 7.05735e-17)
(1.00042 -0.000262814 -1.8317e-16)
(1.00074 -0.000249318 -7.40527e-17)
(1.00094 -8.71844e-05 5.36065e-18)
(1.00099 0.00014222 3.03897e-16)
(1.00102 0.000290361 4.14204e-16)
(1.0011 0.000230339 3.05907e-16)
(1.00126 -1.4508e-06 -4.90233e-16)
(1.0015 -0.00033338 6.63752e-16)
(1.00173 -0.000614794 -2.11482e-16)
(1.00197 -0.000763498 1.66901e-16)
(1.00199 -0.000973423 7.7831e-16)
(1.00192 -0.00103443 -2.44783e-17)
(1.00063 0.000788616 1.55082e-18)
(0.999886 -0.000153577 -6.25659e-18)
(1.00003 -0.000229534 -6.10532e-17)
(1.00028 -0.000338082 2.50975e-16)
(1.00056 -0.000334808 1.07202e-16)
(1.00076 -0.000187333 -4.06684e-17)
(1.00085 5.80029e-06 3.45377e-16)
(1.00093 9.96657e-05 -7.098e-16)
(1.00107 -1.56063e-05 -4.49006e-16)
(1.00128 -0.000289183 -3.83772e-16)
(1.00157 -0.000642725 -5.58952e-16)
(1.00184 -0.000929752 3.31429e-16)
(1.0021 -0.00106376 -1.42132e-16)
(1.00215 -0.00122757 -1.04228e-15)
(1.00213 -0.00124342 4.67649e-16)
(1.00082 0.000661315 1.00043e-16)
(0.999849 -0.000170448 -3.53731e-17)
(0.999952 -0.000266675 2.33816e-17)
(1.00015 -0.000396173 -3.05493e-17)
(1.00039 -0.000416358 -1.86596e-16)
(1.00057 -0.000308274 1.40881e-17)
(1.00069 -0.000175199 1.82129e-16)
(1.00082 -0.000149121 3.1993e-16)
(1.00102 -0.000320967 4.68942e-16)
(1.00129 -0.000628826 2.20153e-16)
(1.00164 -0.000991175 -2.00955e-16)
(1.00194 -0.00126757 3.12664e-17)
(1.00223 -0.00136921 2.22119e-16)
(1.00233 -0.00146731 -1.24214e-16)
(1.00234 -0.00141757 -5.49934e-16)
(1.00106 0.000589787 1.76105e-17)
(0.999817 -0.000182122 -2.61592e-17)
(0.999888 -0.000291007 1.11889e-17)
(1.00004 -0.000439449 6.12151e-17)
(1.00023 -0.000491862 7.47997e-17)
(1.0004 -0.000439039 -1.06346e-16)
(1.00054 -0.000380056 -6.96641e-16)
(1.00072 -0.000427582 -2.05969e-16)
(1.00098 -0.000652899 -3.44877e-16)
(1.00131 -0.000985736 -5.9855e-16)
(1.00171 -0.00134433 6.52738e-16)
(1.00206 -0.00159575 3.77418e-16)
(1.00237 -0.00165128 -4.08273e-16)
(1.00251 -0.00167155 1.04655e-15)
(1.00256 -0.00154576 2.09366e-16)
(1.00132 0.000570795 6.78879e-17)
(0.999791 -0.000189186 1.63301e-17)
(0.999835 -0.000306287 -8.08164e-17)
(0.999949 -0.000472748 -3.37305e-16)
(1.0001 -0.000562796 7.9213e-17)
(1.00026 -0.000573995 3.34415e-16)
(1.00042 -0.00059502 2.9677e-17)
(1.00065 -0.000715785 6.36487e-17)
(1.00097 -0.000988256 -1.29437e-17)
(1.00136 -0.00133628 7.30501e-16)
(1.00181 -0.00168007 -1.90248e-16)
(1.0022 -0.00189544 -5.12862e-16)
(1.00253 -0.0018957 -1.08872e-16)
(1.0027 -0.00183262 -4.54833e-17)
(1.00278 -0.00162781 2.26007e-16)
(1.00159 0.000597743 -3.65155e-16)
(0.99977 -0.000192622 2.16944e-17)
(0.999794 -0.000316705 5.90705e-17)
(0.999883 -0.000501648 2.21478e-16)
(1.00001 -0.000632627 -1.97966e-16)
(1.00016 -0.000711233 -2.05124e-16)
(1.00035 -0.000812219 1.10259e-16)
(1.00062 -0.00100146 2.11798e-16)
(1.001 -0.00131297 4.18816e-16)
(1.00144 -0.00166679 -5.58341e-16)
(1.00193 -0.00198687 1.19526e-17)
(1.00236 -0.00215851 -1.65423e-16)
(1.00271 -0.00209863 1.62282e-17)
(1.00291 -0.00195174 -2.11254e-16)
(1.00301 -0.00167001 6.46896e-17)
(1.00185 0.00065785 6.05797e-16)
(0.999752 -0.000193744 -2.79019e-18)
(0.999763 -0.000326425 1.0161e-16)
(0.999839 -0.000531849 -1.00618e-16)
(0.999951 -0.000705723 2.78665e-16)
(1.00011 -0.000851542 9.79824e-17)
(1.00032 -0.00102837 1.57152e-16)
(1.00064 -0.00127857 2.95981e-16)
(1.00106 -0.00162019 -6.60497e-16)
(1.00155 -0.00197139 1.5101e-16)
(1.00208 -0.00226106 -4.33928e-17)
(1.00254 -0.0023843 4.66138e-16)
(1.00291 -0.00226265 -2.7935e-16)
(1.00312 -0.00203464 -1.34774e-16)
(1.00324 -0.00168062 -4.62409e-17)
(1.0021 0.000742237 -1.32529e-16)
(0.999737 -0.000193838 -3.17859e-17)
(0.99974 -0.000338925 -2.42272e-17)
(0.999814 -0.000568013 3.20201e-16)
(0.999925 -0.00078604 -2.12157e-16)
(1.0001 -0.000996511 1.50243e-16)
(1.00034 -0.00124264 -2.78565e-16)
(1.00069 -0.00154489 -5.96238e-17)
(1.00116 -0.00190776 4.82997e-16)
(1.00169 -0.00224912 2.31642e-16)
(1.00225 -0.00250367 3.4207e-16)
(1.00274 -0.00257617 -5.83623e-16)
(1.00311 -0.00239337 6.49271e-16)
(1.00333 -0.00208867 -1.70391e-16)
(1.00346 -0.00166809 -1.59444e-16)
(1.00234 0.000840497 -1.08347e-16)
(0.99972 -0.000194161 4.10779e-17)
(0.999723 -0.000356969 1.2325e-17)
(0.999804 -0.000613784 -3.80062e-16)
(0.999923 -0.000876727 -1.57101e-17)
(1.00011 -0.00114803 -1.21828e-16)
(1.00038 -0.00145568 2.2697e-16)
(1.00078 -0.00180065 -9.80501e-17)
(1.00128 -0.00217645 -1.99272e-16)
(1.00184 -0.00250207 3.1287e-16)
(1.00243 -0.00271842 -7.10596e-17)
(1.00294 -0.00273964 7.42394e-16)
(1.00331 -0.00249762 -7.58893e-16)
(1.00354 -0.00212131 2.31223e-16)
(1.00367 -0.00163996 -7.65218e-17)
(1.00255 0.000947506 -1.55381e-16)
(0.999702 -0.000195699 -5.52137e-18)
(0.999709 -0.000382306 -1.73022e-16)
(0.999803 -0.000671225 1.47299e-16)
(0.999938 -0.000979539 5.56126e-17)
(1.00015 -0.00130713 -7.4912e-17)
(1.00045 -0.00166817 -7.52796e-17)
(1.00088 -0.00204684 1.68749e-16)
(1.00142 -0.00242818 3.45117e-16)
(1.00201 -0.00273339 -3.74551e-16)
(1.00262 -0.0029098 -7.83145e-17)
(1.00313 -0.0028803 -4.1065e-16)
(1.00351 -0.00258173 7.59762e-16)
(1.00374 -0.00213899 -8.33488e-17)
(1.00388 -0.00160225 -4.25103e-17)
(1.00274 0.00105658 1.46912e-16)
(0.999678 -0.000199249 5.99677e-18)
(0.999696 -0.000415911 1.10531e-16)
(0.999807 -0.000741278 -5.31499e-18)
(0.999963 -0.00109505 1.24444e-16)
(1.0002 -0.00147421 -1.58431e-16)
(1.00054 -0.00188069 5.56437e-17)
(1.001 -0.00228473 -5.49882e-17)
(1.00157 -0.00266525 -2.87975e-16)
(1.00218 -0.00294652 7.81685e-17)
(1.0028 -0.00308226 -3.03288e-16)
(1.00333 -0.00300332 9.30028e-17)
(1.0037 -0.00265113 -4.19477e-16)
(1.00394 -0.0021467 -5.32697e-17)
(1.00407 -0.00155916 8.38628e-17)
(1.00291 0.0011663 -1.36624e-16)
(0.99965 -0.000205272 -2.99135e-17)
(0.999681 -0.000457897 -2.80609e-17)
(0.999812 -0.00082357 -8.43263e-18)
(0.999992 -0.00122255 -1.76946e-16)
(1.00026 -0.00164847 -7.50454e-18)
(1.00063 -0.00209301 1.20636e-16)
(1.00113 -0.00251506 2.18877e-17)
(1.00172 -0.0028895 2.94761e-16)
(1.00235 -0.00314428 -1.16092e-16)
(1.00298 -0.00323933 4.25433e-16)
(1.00352 -0.00311265 -5.37426e-17)
(1.00389 -0.00270972 -2.99543e-18)
(1.00412 -0.00214791 -1.53281e-16)
(1.00425 -0.00151344 -3.57695e-16)
(1.00307 0.00127328 1.60242e-16)
(0.999615 -0.000214026 2.52055e-17)
(0.999662 -0.000507876 8.70081e-17)
(0.999815 -0.000917056 3.19473e-17)
(1.00002 -0.00136055 -3.32552e-17)
(1.00032 -0.00182869 3.37829e-16)
(1.00072 -0.0023046 -7.26316e-17)
(1.00125 -0.00273833 -3.11761e-16)
(1.00186 -0.00310247 -1.65019e-16)
(1.00251 -0.00332911 1.79468e-16)
(1.00315 -0.00338401 -4.61528e-16)
(1.00369 -0.00321155 -2.32957e-16)
(1.00406 -0.00276063 -7.29016e-17)
(1.00429 -0.00214515 2.92935e-16)
(1.00442 -0.00146702 -1.52429e-16)
(1.00321 0.00137851 -1.26543e-16)
(0.999574 -0.000225479 -5.25417e-17)
(0.999639 -0.000564908 -5.4434e-17)
(0.999814 -0.00101991 -1.04123e-16)
(1.00005 -0.00150685 2.40781e-17)
(1.00038 -0.00201281 5.30784e-17)
(1.00081 -0.00251422 -9.01038e-17)
(1.00137 -0.00295439 -3.26984e-17)
(1.002 -0.00330503 -3.22788e-17)
(1.00266 -0.0035026 3.46584e-17)
(1.00331 -0.00351833 1.09043e-16)
(1.00386 -0.00330212 5.01936e-16)
(1.00422 -0.00280582 1.90622e-16)
(1.00445 -0.00214004 -1.72041e-16)
(1.00458 -0.00142105 3.21061e-16)
(1.00334 0.00147942 5.74955e-17)
(0.999527 -0.000239469 3.60578e-17)
(0.99961 -0.000627863 -1.17999e-16)
(0.999806 -0.00113013 1.29654e-16)
(1.00007 -0.00165902 -1.40627e-16)
(1.00043 -0.00219877 -1.0791e-16)
(1.00089 -0.00272062 -1.00296e-16)
(1.00147 -0.00316297 -4.14356e-17)
(1.00213 -0.0034978 -1.18476e-16)
(1.0028 -0.00366601 -2.15463e-16)
(1.00346 -0.00364384 2.26244e-16)
(1.00401 -0.00338597 -2.89315e-16)
(1.00436 -0.00284666 -2.51433e-16)
(1.0046 -0.00213344 1.74603e-16)
(1.00472 -0.00137591 -1.79375e-16)
(1.00345 0.00157785 -8.24082e-17)
(0.999473 -0.000255643 1.10107e-17)
(0.999575 -0.000695354 -1.68046e-17)
(0.999792 -0.00124541 -4.06007e-17)
(1.00008 -0.00181441 3.75096e-17)
(1.00047 -0.00238418 -1.22328e-16)
(1.00096 -0.00292218 9.37867e-17)
(1.00157 -0.00336339 3.18425e-16)
(1.00224 -0.00368087 4.45982e-16)
(1.00293 -0.00381993 -1.16733e-16)
(1.00359 -0.00376134 -2.52515e-16)
(1.00414 -0.00346387 -1.29647e-16)
(1.0045 -0.00288375 2.00513e-16)
(1.00473 -0.00212566 -2.45413e-16)
(1.00485 -0.00133171 7.97547e-16)
(1.00356 0.00167194 3.50751e-16)
(0.999413 -0.000273621 -4.44564e-17)
(0.999533 -0.000766064 7.22156e-17)
(0.99977 -0.00136366 1.07767e-16)
(1.00008 -0.00197065 1.15508e-16)
(1.0005 -0.00256702 -1.43026e-16)
(1.00102 -0.00311761 -2.82121e-17)
(1.00165 -0.00355519 7.30497e-17)
(1.00234 -0.00385445 1.88374e-17)
(1.00304 -0.003965 3.51967e-16)
(1.00371 -0.00387162 2.2239e-16)
(1.00426 -0.00353662 3.95622e-16)
(1.00462 -0.00291772 5.2919e-17)
(1.00485 -0.00211698 8.9306e-17)
(1.00498 -0.00128853 -3.60933e-16)
(1.00366 0.00176438 -3.3507e-16)
(0.999347 -0.000292917 1.89419e-17)
(0.999484 -0.000838623 4.8955e-17)
(0.99974 -0.00148278 -2.08691e-16)
(1.00007 -0.00212544 1.9246e-16)
(1.00052 -0.0027453 1.56045e-16)
(1.00107 -0.00330558 3.00673e-16)
(1.00172 -0.00373776 -5.81416e-17)
(1.00243 -0.0040185 -3.26672e-17)
(1.00314 -0.00410149 -1.13479e-16)
(1.00382 -0.00397509 6.61966e-17)
(1.00437 -0.00360456 -6.95112e-16)
(1.00473 -0.00294883 5.42001e-16)
(1.00496 -0.00210755 -5.09398e-17)
(1.00509 -0.00124643 -5.13029e-16)
(1.00376 0.00185233 2.57731e-16)
(0.999277 -0.000313103 3.36905e-17)
(0.999429 -0.000911872 7.13503e-17)
(0.999702 -0.00160109 2.27804e-16)
(1.00006 -0.00227698 -3.23669e-16)
(1.00053 -0.00291758 2.57649e-17)
(1.00111 -0.00348525 -2.31394e-16)
(1.00178 -0.00391086 2.27322e-17)
(1.0025 -0.00417324 -4.45769e-16)
(1.00322 -0.00422988 3.0109e-16)
(1.00391 -0.00407227 -3.63634e-16)
(1.00447 -0.00366816 5.25379e-16)
(1.00483 -0.00297737 -6.02494e-16)
(1.00507 -0.00209733 -2.98162e-16)
(1.0052 -0.00120522 2.10427e-16)
(1.00384 0.0019349 -2.05891e-16)
(0.999201 -0.000333709 -3.98503e-17)
(0.999367 -0.000984698 -3.39528e-17)
(0.999657 -0.00171702 -4.0053e-17)
(1.00003 -0.00242365 1.25532e-17)
(1.00053 -0.00308252 -1.89925e-17)
(1.00113 -0.0036558 -2.77077e-16)
(1.00183 -0.00407419 -2.58765e-16)
(1.00257 -0.00431871 1.76062e-16)
(1.0033 -0.00435036 8.42846e-17)
(1.00399 -0.00416337 5.51839e-16)
(1.00456 -0.00372751 -4.12337e-16)
(1.00492 -0.00300333 1.06646e-16)
(1.00516 -0.00208618 3.93675e-17)
(1.0053 -0.00116499 -8.44104e-17)
(1.00393 0.00201272 3.10866e-16)
(0.999121 -0.00035438 2.34518e-17)
(0.999299 -0.00105628 -4.01281e-17)
(0.999604 -0.0018295 1.65661e-17)
(1 -0.00256441 1.6575e-16)
(1.00052 -0.00323945 8.11403e-17)
(1.00115 -0.003817 4.21337e-16)
(1.00186 -0.00422793 8.46454e-17)
(1.00261 -0.00445536 -7.46214e-17)
(1.00336 -0.00446351 -2.60788e-16)
(1.00406 -0.00424895 -3.57859e-16)
(1.00464 -0.00378312 3.13147e-16)
(1.005 -0.00302708 2.52313e-17)
(1.00525 -0.00207423 1.55303e-16)
(1.00539 -0.00112574 1.77125e-16)
(1.00402 0.00208731 -7.15683e-17)
(0.999036 -0.000374743 -2.9313e-17)
(0.999224 -0.00112586 -1.05115e-16)
(0.999544 -0.00193759 -6.63686e-17)
(0.99996 -0.00269842 1.17363e-16)
(1.0005 -0.00338779 7.60741e-17)
(1.00115 -0.00396867 4.96942e-17)
(1.00188 -0.00437223 1.96982e-17)
(1.00265 -0.00458355 3.37961e-16)
(1.00341 -0.00456975 1.13298e-16)
(1.00412 -0.00432937 -2.39101e-16)
(1.0047 -0.00383526 -4.81599e-17)
(1.00507 -0.00304881 -2.48383e-16)
(1.00533 -0.00206166 -2.28966e-16)
(1.00548 -0.00108745 5.67351e-17)
(1.0041 0.00215834 -1.14096e-16)
(0.998947 -0.000394562 2.37493e-17)
(0.999144 -0.00119298 1.2799e-16)
(0.999477 -0.00204078 -7.57094e-17)
(0.999911 -0.00282532 -5.41783e-17)
(1.00047 -0.0035275 7.64891e-17)
(1.00114 -0.00411109 -4.92141e-17)
(1.00189 -0.00450764 -7.98465e-17)
(1.00268 -0.00470396 -2.08745e-16)
(1.00345 -0.00466977 4.54811e-17)
(1.00417 -0.00440527 5.22557e-16)
(1.00476 -0.00388445 1.75625e-16)
(1.00514 -0.00306887 4.67233e-16)
(1.00541 -0.00204862 1.97644e-16)
(1.00556 -0.00104987 2.74469e-16)
(1.00419 0.00222424 2.42741e-17)
(0.998854 -0.00041359 2.85739e-17)
(0.999059 -0.00125723 3.559e-17)
(0.999404 -0.00213866 9.25707e-17)
(0.999855 -0.00294485 -1.65066e-16)
(1.00044 -0.00365856 -4.22921e-16)
(1.00112 -0.00424451 -7.18039e-17)
(1.00189 -0.00463458 -3.48182e-18)
(1.0027 -0.00481708 4.56597e-17)
(1.00348 -0.00476401 2.39518e-17)
(1.00421 -0.00447699 -3.2805e-16)
(1.00482 -0.00393088 1.9588e-16)
(1.0052 -0.00308735 -3.16801e-16)
(1.00548 -0.00203509 -1.03015e-16)
(1.00564 -0.00101318 -3.38924e-16)
(1.00427 0.00228814 -1.86395e-17)
(0.998758 -0.000431722 -3.98162e-17)
(0.998969 -0.00131844 -6.81906e-17)
(0.999325 -0.00223121 -6.06573e-17)
(0.999793 -0.00305719 -3.12442e-17)
(1.00039 -0.00378144 6.29883e-17)
(1.0011 -0.00436962 -1.66959e-16)
(1.00189 -0.00475388 7.0917e-17)
(1.0027 -0.00492378 1.86539e-16)
(1.0035 -0.00485333 -2.47745e-16)
(1.00425 -0.00454525 1.07772e-16)
(1.00486 -0.00397518 1.1946e-16)
(1.00526 -0.00310472 9.17641e-17)
(1.00555 -0.00202139 6.47036e-16)
(1.00572 -0.000977311 3.37014e-17)
(1.00435 0.00234969 -1.53873e-16)
(0.998658 -0.000448825 9.61829e-18)
(0.998874 -0.0013765 -3.86328e-18)
(0.999241 -0.0023184 -6.71317e-17)
(0.999724 -0.00316255 2.66246e-16)
(1.00034 -0.00389654 8.01767e-18)
(1.00107 -0.00448698 1.75505e-16)
(1.00187 -0.00486622 -9.74768e-17)
(1.00271 -0.00502473 -5.00601e-16)
(1.00352 -0.00493829 2.31132e-16)
(1.00428 -0.00461054 1.49363e-17)
(1.00491 -0.00401771 -5.58546e-16)
(1.00531 -0.00312128 3.69754e-18)
(1.00561 -0.00200787 -4.15034e-16)
(1.00579 -0.00094226 2.23782e-16)
(1.00443 0.00240945 5.45238e-17)
(0.998555 -0.000464897 1.34797e-17)
(0.998774 -0.00143147 -9.85138e-18)
(0.999152 -0.00240052 1.60566e-16)
(0.999649 -0.00326143 -1.05488e-16)
(1.00028 -0.00400458 -1.63559e-16)
(1.00103 -0.00459749 -3.98544e-16)
(1.00185 -0.00497253 -1.92716e-16)
(1.0027 -0.00512084 2.119e-16)
(1.00353 -0.00501974 5.13889e-17)
(1.00431 -0.00467358 -2.78189e-16)
(1.00495 -0.00405904 1.80125e-16)
(1.00536 -0.00313743 -4.85304e-17)
(1.00568 -0.00199472 1.53647e-16)
(1.00587 -0.000907875 -4.03293e-17)
(1.0045 0.00247002 -1.03446e-16)
(0.998448 -0.000479892 -3.32762e-17)
(0.998671 -0.0014834 2.8375e-17)
(0.999059 -0.0024778 -9.35025e-17)
(0.99957 -0.00335427 -5.69499e-17)
(1.00022 -0.00410614 2.54419e-16)
(1.00098 -0.00470182 6.16304e-16)
(1.00182 -0.00507349 4.05156e-16)
(1.00269 -0.00521274 1.60658e-16)
(1.00354 -0.00509818 2.93643e-17)
(1.00433 -0.00473471 3.41798e-17)
(1.00498 -0.00409939 1.22632e-16)
(1.00541 -0.00315329 -1.83593e-16)
(1.00574 -0.00198203 -2.5072e-17)
(1.00594 -0.000874028 1.34321e-16)
(1.00458 0.00253009 2.71257e-16)
(0.998339 -0.000493893 1.00944e-17)
(0.998564 -0.00153254 -3.57342e-17)
(0.998961 -0.0025507 8.39872e-19)
(0.999486 -0.00344173 8.26191e-17)
(1.00015 -0.0042021 5.54126e-17)
(1.00093 -0.00480091 -3.56932e-16)
(1.00179 -0.00517008 -1.75343e-16)
(1.00268 -0.00530135 -3.08891e-16)
(1.00354 -0.00517444 -6.72567e-17)
(1.00435 -0.00479467 7.253e-16)
(1.00502 -0.00413938 8.67004e-18)
(1.00546 -0.00316933 -1.34284e-16)
(1.0058 -0.00197012 -4.14445e-16)
(1.00602 -0.000840747 -1.93383e-17)
(1.00465 0.00259366 -7.08019e-17)
(0.998226 -0.00050691 2.27178e-17)
(0.998453 -0.00157903 -3.0056e-18)
(0.99886 -0.00261959 2.92247e-17)
(0.999397 -0.00352439 -7.42271e-17)
(1.00008 -0.0042931 -2.17793e-17)
(1.00088 -0.00489551 1.45923e-16)
(1.00175 -0.00526301 -2.06213e-16)
(1.00266 -0.00538731 2.59012e-16)
(1.00354 -0.00524905 4.49768e-18)
(1.00436 -0.00485388 -3.87124e-16)
(1.00505 -0.00417931 -8.32458e-17)
(1.00551 -0.00318583 5.16045e-16)
(1.00586 -0.00195924 1.81588e-16)
(1.00609 -0.000808356 -4.79748e-16)
(1.00472 0.00265712 -3.5759e-17)
(0.998111 -0.000519069 -1.65454e-17)
(0.998339 -0.00162319 5.25799e-17)
(0.998754 -0.002685 9.68003e-18)
(0.999305 -0.00360296 -1.58692e-16)
(1 -0.00438004 1.8349e-17)
(1.00082 -0.00498652 -6.13857e-18)
(1.00171 -0.00535317 4.79057e-16)
(1.00264 -0.00547144 2.64625e-16)
(1.00353 -0.00532274 -6.58268e-16)
(1.00437 -0.00491294 -2.90623e-16)
(1.00508 -0.00421969 1.73282e-16)
(1.00556 -0.00320314 2.35491e-18)
(1.00592 -0.00194952 4.34704e-16)
(1.00617 -0.000776647 4.40728e-16)
(1.00479 0.00272343 1.19556e-16)
(0.997994 -0.000530411 -7.47831e-18)
(0.998222 -0.00166523 6.73429e-18)
(0.998646 -0.00274733 1.05863e-16)
(0.999209 -0.00367798 2.73234e-16)
(0.999919 -0.0044635 -3.26654e-17)
(1.00075 -0.00507456 -3.11058e-16)
(1.00167 -0.00544113 -3.58648e-16)
(1.00261 -0.00555422 -6.76255e-16)
(1.00353 -0.00539587 4.32754e-16)
(1.00439 -0.0049721 3.45362e-16)
(1.00511 -0.00426064 -1.56183e-16)
(1.0056 -0.00322132 -2.69628e-16)
(1.00598 -0.00194094 -4.26922e-16)
(1.00624 -0.000745773 -3.51156e-17)
(1.00487 0.00278907 -3.57884e-16)
(0.997874 -0.000541091 1.11456e-17)
(0.998102 -0.00170547 -3.31066e-17)
(0.998534 -0.00280711 -1.24575e-16)
(0.99911 -0.00375017 -2.1611e-16)
(0.999835 -0.00454432 -4.54489e-17)
(1.00069 -0.00516049 2.96164e-16)
(1.00162 -0.00552772 2.22089e-16)
(1.00258 -0.0056364 6.85916e-16)
(1.00352 -0.00546913 7.03663e-18)
(1.0044 -0.00503194 -1.47373e-16)
(1.00514 -0.00430265 1.17933e-17)
(1.00565 -0.00324077 -2.68686e-16)
(1.00605 -0.00193374 -3.63889e-16)
(1.00632 -0.000715654 -3.2632e-16)
(1.00494 0.00285731 3.73423e-16)
(0.997751 -0.000551159 -3.7997e-17)
(0.99798 -0.00174414 8.40452e-17)
(0.99842 -0.00286474 -9.69739e-18)
(0.999007 -0.00382003 2.60316e-16)
(0.999747 -0.00462303 -1.01743e-16)
(1.00062 -0.00524486 -7.18416e-17)
(1.00157 -0.00561346 7.47817e-17)
(1.00255 -0.00571845 -4.32756e-16)
(1.00351 -0.00554286 -3.10142e-16)
(1.00441 -0.00509275 -1.09071e-17)
(1.00517 -0.00434595 9.54649e-17)
(1.0057 -0.00326168 1.48338e-16)
(1.00611 -0.00192814 3.80725e-16)
(1.0064 -0.000686745 3.865e-16)
(1.00502 0.00292405 -5.25783e-17)
(0.997627 -0.00056077 3.18204e-18)
(0.997854 -0.00178156 -2.78329e-17)
(0.998303 -0.00292072 -1.71011e-16)
(0.998902 -0.00388819 -2.68145e-16)
(0.999657 -0.00470038 9.67822e-17)
(1.00054 -0.0053284 1.37049e-16)
(1.00152 -0.00569903 -3.38485e-16)
(1.00252 -0.00580098 -8.31786e-17)
(1.0035 -0.00561763 2.98259e-16)
(1.00442 -0.005155 -1.18878e-16)
(1.0052 -0.00439091 1.28685e-16)
(1.00575 -0.00328434 1.32811e-16)
(1.00618 -0.00192421 5.87006e-17)
(1.00648 -0.000658841 -4.78318e-16)
(1.0051 0.00299295 -1.05857e-16)
(0.9975 -0.000569968 2.64329e-17)
(0.997727 -0.00181792 -4.57045e-17)
(0.998183 -0.00297536 1.26309e-16)
(0.998795 -0.00395507 2.26832e-16)
(0.999564 -0.00477675 7.28478e-17)
(1.00047 -0.00541151 -2.64961e-16)
(1.00146 -0.00578479 1.70246e-16)
(1.00249 -0.00588428 1.37724e-16)
(1.00349 -0.0056936 2.60185e-16)
(1.00443 -0.00521877 1.69212e-16)
(1.00524 -0.00443753 -3.13814e-16)
(1.0058 -0.00330871 3.54455e-17)
(1.00625 -0.00192188 -5.11329e-17)
(1.00656 -0.000632172 -1.3468e-17)
(1.00519 0.00306002 4.14412e-17)
(0.997371 -0.000578906 3.2145e-17)
(0.997597 -0.00185352 5.10602e-18)
(0.998061 -0.00302911 1.77042e-16)
(0.998685 -0.0040212 -6.59951e-17)
(0.999469 -0.0048528 1.51695e-16)
(1.00039 -0.00549483 1.31632e-16)
(1.00141 -0.00587133 4.91217e-17)
(1.00245 -0.00596889 9.62765e-17)
(1.00348 -0.00577131 -1.21182e-16)
(1.00444 -0.00528453 -1.16058e-17)
(1.00527 -0.00448623 -9.01195e-17)
(1.00585 -0.0033351 -3.48798e-17)
(1.00632 -0.00192137 1.23729e-16)
(1.00665 -0.000606612 -1.25715e-18)
(1.00528 0.00312886 -1.21645e-16)
(0.997239 -0.000587616 5.13781e-18)
(0.997464 -0.00188852 -8.92934e-17)
(0.997937 -0.00308226 -1.93249e-16)
(0.998572 -0.00408693 -1.21765e-16)
(0.999371 -0.00492886 -9.88205e-17)
(1.00031 -0.0055787 3.21243e-18)
(1.00135 -0.00595897 -5.34762e-17)
(1.00242 -0.00605508 -1.11663e-16)
(1.00346 -0.00585093 -5.53634e-17)
(1.00445 -0.00535242 -1.6542e-16)
(1.0053 -0.00453712 2.78317e-16)
(1.00591 -0.00336364 4.34791e-17)
(1.00639 -0.00192286 -2.64343e-16)
(1.00674 -0.000582662 2.52834e-16)
(1.00537 0.00319512 4.23193e-17)
(0.997106 -0.000596235 -5.05631e-17)
(0.99733 -0.0019232 6.94638e-17)
(0.997811 -0.00313516 -7.22507e-18)
(0.998458 -0.00415273 -1.98e-17)
(0.999272 -0.00500545 -1.44322e-16)
(1.00023 -0.00566363 1.85106e-16)
(1.00129 -0.0060482 -5.32463e-18)
(1.00238 -0.00614331 1.78587e-16)
(1.00345 -0.0059329 1.443e-17)
(1.00446 -0.0054228 -4.41012e-18)
(1.00534 -0.00459049 -4.16362e-16)
(1.00597 -0.00339453 -1.01957e-16)
(1.00647 -0.00192639 3.00154e-16)
(1.00683 -0.000560056 -1.90256e-16)
(1.00547 0.00326275 1.0254e-16)
(0.99697 -0.000604776 1.66967e-17)
(0.997193 -0.00195766 5.57081e-17)
(0.997682 -0.00318803 -5.78732e-17)
(0.998341 -0.00421882 -5.76111e-17)
(0.999171 -0.00508279 9.91916e-17)
(1.00015 -0.00574983 -1.67131e-16)
(1.00123 -0.00613918 -1.9104e-16)
(1.00235 -0.00623367 -9.17208e-18)
(1.00344 -0.00601723 -3.81033e-17)
(1.00448 -0.00549564 2.66849e-16)
(1.00538 -0.00464627 2.46218e-16)
(1.00602 -0.00342767 1.20701e-16)
(1.00655 -0.00193188 7.18544e-17)
(1.00693 -0.000539068 4.2614e-16)
(1.00557 0.00332767 -2.01801e-16)
(0.996833 -0.000613366 -2.91756e-17)
(0.997054 -0.00199214 -7.41518e-17)
(0.997551 -0.00324118 2.82681e-16)
(0.998222 -0.00428559 2.32495e-16)
(0.999068 -0.00516133 -5.69634e-17)
(1.00007 -0.00583775 -8.69012e-17)
(1.00117 -0.00623235 8.80547e-18)
(1.00231 -0.00632657 -2.42797e-16)
(1.00343 -0.00610434 -2.89188e-16)
(1.00449 -0.00557131 8.42529e-17)
(1.00542 -0.0047048 2.20804e-16)
(1.00609 -0.00346332 -1.36073e-16)
(1.00663 -0.0019395 -1.80575e-16)
(1.00702 -0.000519516 -4.17638e-16)
(1.00568 0.00339371 2.2956e-17)
(0.996693 -0.000622003 6.08971e-17)
(0.996913 -0.00202672 8.70167e-17)
(0.997419 -0.00329477 -2.59693e-16)
(0.998102 -0.00435323 -1.10456e-16)
(0.998963 -0.00524125 1.82339e-16)
(0.999984 -0.00592755 2.60034e-16)
(1.00111 -0.00632785 9.61879e-17)
(1.00228 -0.00642215 1.48355e-16)
(1.00342 -0.0061943 1.96856e-17)
(1.00451 -0.00564987 -3.09014e-16)
(1.00546 -0.00476611 -2.15404e-16)
(1.00615 -0.00350157 8.3338e-17)
(1.00672 -0.00194944 -2.94405e-16)
(1.00712 -0.000501941 5.02738e-16)
(1.00579 0.00345648 1.33175e-16)
(0.996551 -0.000630795 -5.31518e-17)
(0.99677 -0.00206161 -6.7667e-17)
(0.997284 -0.00334907 3.39823e-17)
(0.997979 -0.00442206 -8.321e-17)
(0.998857 -0.00532291 -1.99744e-16)
(0.999898 -0.00601961 -1.2126e-16)
(1.00105 -0.00642605 8.6518e-17)
(1.00224 -0.00652074 1.01896e-17)
(1.00341 -0.00628744 3.12959e-16)
(1.00453 -0.00573162 3.27042e-16)
(1.0055 -0.00483046 1.55466e-17)
(1.00622 -0.00354257 2.00847e-17)
(1.00681 -0.00196167 6.3915e-16)
(1.00723 -0.00048602 3.36495e-17)
(1.0059 0.0035201 4.17167e-17)
(0.996408 -0.000639721 1.17725e-17)
(0.996625 -0.00209684 2.34591e-17)
(0.997147 -0.00340415 1.81531e-17)
(0.997855 -0.00449217 1.10318e-16)
(0.998749 -0.00540638 -9.01367e-17)
(0.999812 -0.00611399 -2.32086e-16)
(1.00099 -0.00652698 -1.26251e-16)
(1.0022 -0.00662234 -2.20408e-17)
(1.0034 -0.0063837 -2.208e-16)
(1.00454 -0.00581646 -2.54699e-16)
(1.00555 -0.00489772 -3.05592e-17)
(1.00629 -0.00358621 -5.83108e-17)
(1.0069 -0.00197613 5.92032e-18)
(1.00734 -0.00047205 -4.06512e-16)
(1.00602 0.00358048 -4.63775e-17)
(0.996262 -0.000648883 1.19923e-17)
(0.996478 -0.00213259 -3.23509e-17)
(0.997009 -0.00346025 7.25201e-18)
(0.997729 -0.00456385 -5.34316e-17)