/*--------------------------------*- C++ -*----------------------------------*\
  =========                 |
  \\      /  F ield         | OpenFOAM: The Open Source CFD Toolbox
   \\    /   O peration     | Website:  https://openfoam.org
    \\  /    A nd           | Version:  6.0
     \\/     M anipulation  |
\*---------------------------------------------------------------------------*/
FoamFile
{
    version     2.0;
    format      ascii;
    class       volScalarField;
    location    "2";
    object      p;
}
// * * * * * * * * * * * * * * * * * * * * * * * * * * * * * * * * * * * * * //

dimensions      [0 2 -2 0 0 0 0];

internalField   nonuniform List<scalar> 
62000
(
0.0797164
0.079542
0.0793591
0.0791659
0.0789602
0.0787407
0.0785061
0.078255
0.0779858
0.0776971
0.0773869
0.0770534
0.0766943
0.0763075
0.07589
0.0754394
0.0749518
0.0744241
0.0738517
0.0732307
0.0725553
0.0718207
0.0710198
0.0701466
0.0691926
0.0681502
0.0670094
0.065761
0.0643931
0.0628951
0.0612531
0.0594559
0.0574893
0.0553443
0.0530111
0.0504812
0.0477486
0.0448117
0.0416758
0.0383544
0.0348709
0.0312594
0.0275661
0.0238479
0.0201713
0.0166077
0.0132289
0.0101013
0.00727714
0.00479828
0.00267674
0.000923225
-0.000493688
-0.00157635
-0.00236609
-0.00287722
-0.00315146
-0.00320158
-0.00307429
-0.00289105
0.0799651
0.0797905
0.0796101
0.0794221
0.0792235
0.0790125
0.0787875
0.0785471
0.0782899
0.0780144
0.0777187
0.0774014
0.0770599
0.0766928
0.0762968
0.0758699
0.0754084
0.0749098
0.0743693
0.0737836
0.0731472
0.0724556
0.0717021
0.0708811
0.0699845
0.0690052
0.0679337
0.0667608
0.0654756
0.0640668
0.062522
0.0608279
0.0589719
0.056943
0.0547307
0.0523247
0.0497159
0.0468993
0.0438754
0.040652
0.0372456
0.0336831
0.0300023
0.0262524
0.0224928
0.0187891
0.0152102
0.0118223
0.00868068
0.00583386
0.00330185
0.00110834
-0.000771539
-0.00231909
-0.00356067
-0.00448527
-0.00511363
-0.0054215
-0.00542095
-0.0051507
0.080215
0.0800307
0.0798441
0.0796537
0.0794551
0.0792461
0.0790244
0.0787888
0.0785374
0.0782691
0.0779819
0.0776742
0.0773439
0.0769891
0.0766071
0.0761957
0.0757513
0.0752715
0.0747518
0.0741889
0.0735774
0.0729132
0.0721899
0.0714021
0.070542
0.0696028
0.0685754
0.067451
0.066219
0.0648683
0.0633866
0.0617609
0.0599784
0.0580275
0.055898
0.0535779
0.0510567
0.0483269
0.0453859
0.0422375
0.0388932
0.035374
0.0317113
0.0279476
0.0241359
0.0203364
0.0166142
0.0130341
0.0096527
0.00652266
0.00367046
0.00112889
-0.00111832
-0.00303684
-0.00464139
-0.00590198
-0.00682286
-0.00735584
-0.00750179
-0.0073076
0.0805097
0.080313
0.0801181
0.0799226
0.0797213
0.0795111
0.0792899
0.0790559
0.0788074
0.0785431
0.078261
0.0779596
0.0776366
0.0772903
0.0769178
0.0765171
0.0760847
0.0756182
0.0751131
0.0745664
0.0739728
0.0733284
0.0726266
0.0718625
0.0710286
0.0701181
0.0691223
0.0680326
0.0668387
0.0655298
0.064094
0.0625181
0.0607895
0.058897
0.056829
0.0545737
0.0521189
0.0494557
0.0465791
0.0434896
0.0401949
0.0367113
0.0330647
0.0292918
0.0254397
0.0215635
0.0177244
0.0139848
0.0104019
0.00703062
0.00390287
0.00105829
-0.00151285
-0.00376354
-0.0056947
-0.0072632
-0.0084587
-0.00921711
-0.00953581
-0.00944664
0.0808417
0.080636
0.080435
0.0802356
0.0800323
0.0798214
0.0796005
0.0793677
0.0791212
0.0788596
0.078581
0.0782838
0.077966
0.0776256
0.07726
0.076867
0.0764434
0.0759864
0.0754921
0.074957
0.0743763
0.0737459
0.0730597
0.0723127
0.0714975
0.0706077
0.0696347
0.0685702
0.0674041
0.0661259
0.0647237
0.0631848
0.0614967
0.0596476
0.0576266
0.0554205
0.0530167
0.0504051
0.0475788
0.0445357
0.0412804
0.037825
0.0341907
0.030409
0.0265217
0.0225789
0.0186377
0.0147579
0.0109962
0.00740884
0.00403226
0.000911307
-0.00195597
-0.00451238
-0.0067483
-0.00860897
-0.0100717
-0.0110591
-0.0115653
-0.0115914
0.0812675
0.0810555
0.0808488
0.0806447
0.0804376
0.0802237
0.0800005
0.0797661
0.0795188
0.0792569
0.0789787
0.0786826
0.0783663
0.0780282
0.0776655
0.0772762
0.0768569
0.0764053
0.0759171
0.0753894
0.0748169
0.0741959
0.0735202
0.0727851
0.0719831
0.0711081
0.0701515
0.0691052
0.0679595
0.0667037
0.0653266
0.0638153
0.0621575
0.0603419
0.0583564
0.0561883
0.0538239
0.0512522
0.0484648
0.0454575
0.0422324
0.0387979
0.0351711
0.031379
0.0274582
0.0234544
0.0194204
0.0154131
0.0114882
0.00770225
0.00409555
0.000716752
-0.00243037
-0.00527989
-0.00780918
-0.00995525
-0.0116828
-0.0129034
-0.0136051
-0.0137495
0.0817723
0.0815559
0.0813451
0.0811372
0.0809266
0.0807096
0.0804838
0.0802471
0.0799977
0.0797342
0.0794547
0.0791577
0.0788412
0.0785033
0.0781415
0.0777537
0.0773366
0.0768878
0.0764031
0.0758795
0.0753119
0.0746968
0.0740278
0.0733004
0.0725073
0.0716424
0.0706973
0.069664
0.0685329
0.0672936
0.0659349
0.0644443
0.0628096
0.0610189
0.0590608
0.0569216
0.0545875
0.0520465
0.0492891
0.0463092
0.0431065
0.0396863
0.0360621
0.0322565
0.0283016
0.0242384
0.0201157
0.0159874
0.0119075
0.0079325
0.00410569
0.000478881
-0.0029376
-0.00607017
-0.00888651
-0.0113147
-0.013308
-0.0147657
-0.0156673
-0.01593
0.0823846
0.0821638
0.0819482
0.0817353
0.0815198
0.0812981
0.0810678
0.080827
0.0805738
0.0803068
0.0800242
0.0797245
0.0794054
0.0790654
0.0787017
0.0783126
0.0778946
0.0774455
0.076961
0.0764385
0.0758727
0.0752601
0.0745946
0.0738715
0.0730837
0.0722251
0.0712875
0.070263
0.069142
0.0679144
0.0665691
0.0650936
0.0634757
0.0617043
0.0597666
0.0576494
0.0553382
0.0528203
0.0500851
0.047125
0.0439374
0.0405252
0.0368983
0.0330753
0.0290843
0.0249618
0.0207528
0.0165075
0.0122785
0.00812148
0.00408229
0.000214793
-0.00346554
-0.00687864
-0.00997983
-0.0126905
-0.0149513
-0.0166498
-0.0177535
-0.0181343
0.0830613
0.0828375
0.082619
0.0824032
0.0821849
0.0819605
0.0817276
0.081484
0.0812282
0.0809584
0.0806732
0.0803707
0.0800492
0.0797067
0.079341
0.0789497
0.0785301
0.0780793
0.0775938
0.0770703
0.0765043
0.0758918
0.0752271
0.0745055
0.0737201
0.0728648
0.0719314
0.0709122
0.0697977
0.068578
0.0672418
0.0657771
0.0641717
0.0624136
0.0604912
0.05839
0.0560956
0.0535945
0.0508752
0.0479286
0.0447501
0.0413401
0.0377054
0.0338611
0.0298311
0.0256477
0.021352
0.0169908
0.0126148
0.00827845
0.00402973
-7.57759e-05
-0.0040166
-0.00770682
-0.0110925
-0.0140869
-0.0166186
-0.0185616
-0.0198694
-0.0203677
0.083856
0.0836283
0.0834054
0.0831848
0.0829615
0.0827318
0.0824936
0.0822448
0.0819838
0.0817092
0.0814189
0.0811116
0.0807851
0.080438
0.0800675
0.0796719
0.0792478
0.0787933
0.0783042
0.0777777
0.077209
0.0765946
0.0759285
0.0752062
0.0744207
0.0735661
0.0726343
0.0716176
0.0705067
0.0692914
0.0679611
0.0665033
0.064906
0.0631577
0.0612456
0.0591557
0.0568727
0.054383
0.0516736
0.0487345
0.0455593
0.0421459
0.0384983
0.0346283
0.0305559
0.0263096
0.0219264
0.0174497
0.0129283
0.00841487
0.00395938
-0.000381685
-0.00458235
-0.00855117
-0.0122228
-0.0155037
-0.0183095
-0.0205006
-0.0220139
-0.0226298
0.0847174
0.0844867
0.0842606
0.0840367
0.0838098
0.0835764
0.083334
0.0830809
0.0828154
0.0825359
0.0822409
0.0819286
0.0815975
0.0812454
0.0808705
0.0804702
0.0800419
0.0795829
0.0790898
0.0785593
0.077987
0.0773691
0.0767
0.0759751
0.0751876
0.0743316
0.0733991
0.0723825
0.0712724
0.0700591
0.0687314
0.0672775
0.0656853
0.0639424
0.0620369
0.0599539
0.0576779
0.0551947
0.0524905
0.0495538
0.0463768
0.0429552
0.0392902
0.0353903
0.031272
0.0269598
0.022487
0.0178936
0.0132258
0.00853497
0.00387228
-0.000704941
-0.00516529
-0.00941228
-0.0133719
-0.0169425
-0.0200269
-0.0224699
-0.0241909
-0.0249249
0.0856794
0.0854446
0.0852138
0.0849848
0.0847524
0.0845134
0.0842653
0.0840064
0.0837351
0.08345
0.0831492
0.0828313
0.0824941
0.0821363
0.0817552
0.0813491
0.0809146
0.08045
0.0799511
0.0794153
0.0788378
0.0782151
0.0775415
0.0768125
0.0760214
0.0751622
0.0742271
0.0732084
0.0720971
0.0708831
0.0695558
0.0681029
0.0665124
0.0647724
0.0628697
0.0607899
0.0585169
0.0560358
0.0533321
0.050393
0.0472093
0.0437745
0.0400872
0.0361531
0.0319852
0.0276042
0.0230397
0.0183282
0.0135137
0.00864534
0.00377578
-0.00103756
-0.00575913
-0.0102876
-0.0145383
-0.0184027
-0.0217695
-0.0244683
-0.0263989
-0.0272522
0.0866832
0.0864453
0.086212
0.0859805
0.0857458
0.0855042
0.0852535
0.0849915
0.084717
0.0844281
0.0841234
0.0838011
0.0834597
0.0830969
0.0827111
0.0822996
0.08186
0.0813896
0.0808852
0.0803434
0.0797601
0.0791315
0.0784523
0.0777179
0.0769217
0.0760577
0.0751184
0.074096
0.0729814
0.0717649
0.0704354
0.0689813
0.0673903
0.0656496
0.063747
0.0616669
0.0593932
0.0569105
0.0542033
0.0512578
0.0480631
0.0446109
0.0408974
0.0369251
0.0327038
0.0282507
0.0235916
0.0187596
0.0137961
0.00874831
0.00366978
-0.00138194
-0.00636613
-0.0111772
-0.0157223
-0.0198845
-0.023539
-0.0264982
-0.0286412
-0.0296151
0.0878037
0.0875613
0.0873229
0.087086
0.0868454
0.0865978
0.0863409
0.0860728
0.0857919
0.0854968
0.0851856
0.0848569
0.0845084
0.084139
0.0837458
0.0833273
0.0828803
0.0824028
0.081891
0.0813422
0.0807519
0.0801166
0.0794307
0.0786899
0.0778874
0.0770175
0.0760726
0.0750449
0.0739255
0.0727045
0.0713714
0.0699136
0.0683193
0.0665762
0.0646706
0.0625873
0.0603097
0.0578218
0.0551073
0.0521512
0.0489413
0.0454674
0.0417232
0.0377086
0.0334303
0.0289018
0.0241455
0.0191907
0.0140767
0.00884809
0.00355959
-0.00173174
-0.00698146
-0.0120794
-0.016923
-0.0213876
-0.0253342
-0.028558
-0.0309164
-0.0320128
0.0889765
0.0887304
0.0884884
0.0882478
0.0880033
0.0877516
0.08749
0.0872168
0.0869306
0.0866296
0.0863125
0.0859775
0.0856229
0.0852469
0.0848474
0.0844221
0.0839685
0.083484
0.0829652
0.0824091
0.0818115
0.0811687
0.0804755
0.0797273
0.0789176
0.0780407
0.077089
0.0760548
0.0749291
0.0737022
0.0723632
0.0709003
0.069301
0.0675525
0.0656417
0.0635525
0.061268
0.0587718
0.0560467
0.0530767
0.0498481
0.0463488
0.0425702
0.0385098
0.0341708
0.0295636
0.0247067
0.0196263
0.0143586
0.0089464
0.00344483
-0.00208938
-0.00760692
-0.0129937
-0.0181398
-0.0229117
-0.0271563
-0.0306499
-0.0332278
-0.0344486
0.0902469
0.0899955
0.0897477
0.0895009
0.0892499
0.0889914
0.088723
0.088443
0.0881497
0.087842
0.0875177
0.0871756
0.0868133
0.0864299
0.0860223
0.0855892
0.0851272
0.0846347
0.0841076
0.0835433
0.0829375
0.0822865
0.0815851
0.0808288
0.0800111
0.0791262
0.0781667
0.0771248
0.0759916
0.0747573
0.0734114
0.0719413
0.070335
0.0685797
0.0666612
0.0645638
0.0622697
0.0597623
0.0570234
0.0540359
0.0507848
0.0472563
0.0434396
0.0393294
0.0349262
0.0302369
0.0252765
0.0200676
0.0146441
0.0090462
0.00332975
-0.00244939
-0.00823852
-0.0139191
-0.0193723
-0.0244566
-0.0290041
-0.0327726
-0.0355739
-0.0369221
0.0915422
0.091287
0.091036
0.0907863
0.0905326
0.0902712
0.0899997
0.089716
0.0894189
0.0891066
0.0887776
0.08843
0.0880625
0.0876727
0.0872591
0.0868189
0.0863501
0.0858498
0.0853149
0.0847423
0.0841281
0.0834683
0.0827582
0.0819931
0.0811666
0.0802729
0.0793046
0.0782541
0.0771123
0.0758697
0.074515
0.0730367
0.071422
0.0696575
0.0677296
0.0656217
0.0633158
0.0607946
0.0580392
0.0550314
0.0517548
0.0481939
0.0443358
0.0401726
0.0357017
0.0309269
0.0258597
0.0205191
0.0149362
0.00914902
0.00321396
-0.00281405
-0.00887754
-0.0148547
-0.0206196
-0.0260219
-0.0308787
-0.0349279
-0.0379579
-0.039438
0.0929535
0.0926925
0.0924351
0.0921788
0.0919181
0.0916494
0.0913704
0.0910794
0.0907747
0.0904549
0.090118
0.0897627
0.0893867
0.0889888
0.0885663
0.0881175
0.0876394
0.0871303
0.0865861
0.0860045
0.085381
0.0847122
0.0839928
0.0832183
0.0823825
0.0814794
0.0805018
0.0794418
0.0782906
0.0770383
0.0756744
0.0741862
0.0725615
0.0707868
0.0688475
0.0667271
0.0644072
0.0618698
0.0590951
0.056064
0.0527587
0.0491621
0.045259
0.0410392
0.0364973
0.0316337
0.0264565
0.0209811
0.0152362
0.00925723
0.00310117
-0.00317825
-0.00952074
-0.0157998
-0.0218816
-0.0276074
-0.0327791
-0.0371148
-0.0403784
-0.0419955
0.0944038
0.094138
0.0938762
0.0936153
0.0933499
0.0930762
0.0927918
0.0924948
0.0921837
0.0918571
0.0915133
0.0911505
0.0907673
0.0903616
0.0899315
0.0894746
0.0889886
0.0884709
0.0879182
0.0873275
0.0866949
0.0860166
0.0852877
0.0845035
0.0836578
0.0827448
0.0817571
0.0806871
0.0795257
0.0782632
0.0768885
0.0753897
0.0737539
0.0719671
0.0700151
0.0678805
0.0655446
0.0629889
0.0601928
0.0571359
0.0537995
0.0501644
0.0462134
0.041934
0.0373178
0.0323621
0.0270715
0.0214578
0.015547
0.00937224
0.00299096
-0.00354436
-0.0101689
-0.0167532
-0.023157
-0.0292125
-0.0347061
-0.0393349
-0.0428384
-0.0445981
0.0959474
0.095675
0.0954059
0.0951376
0.0948643
0.0945827
0.0942901
0.093985
0.0936657
0.0933312
0.0929789
0.0926081
0.0922159
0.0918017
0.0913622
0.0908964
0.0904006
0.0898737
0.0893112
0.088711
0.0880686
0.0873805
0.0866416
0.0858474
0.0849914
0.0840681
0.0830699
0.0819892
0.080817
0.0795433
0.0781576
0.0766468
0.0749987
0.0731991
0.0712328
0.0690825
0.0667288
0.0641528
0.0613329
0.0582477
0.0548772
0.0512006
0.0471987
0.0428563
0.0381627
0.0331116
0.0277044
0.0219493
0.0158697
0.00949621
0.00288692
-0.00390725
-0.0108191
-0.0177144
-0.0244459
-0.0308371
-0.0366588
-0.0415872
-0.0453364
-0.0472444
0.0975005
0.0972232
0.0969502
0.0966784
0.0964019
0.0961169
0.0958208
0.0955116
0.095188
0.0948481
0.0944907
0.0941135
0.0937154
0.0932939
0.0928477
0.0923738
0.0918703
0.0913344
0.0907631
0.0901532
0.0895011
0.0888028
0.0880537
0.087249
0.0863825
0.0854484
0.0844393
0.0833475
0.0821638
0.0808787
0.0794806
0.0779577
0.0762965
0.0744825
0.0725009
0.0703334
0.0679604
0.0653623
0.0625168
0.0594014
0.0559946
0.0522741
0.0482185
0.0438105
0.0390363
0.0338868
0.0283596
0.0224593
0.0162069
0.00963036
0.00278838
-0.00426953
-0.0114716
-0.0186817
-0.0257466
-0.0324803
-0.0386377
-0.0438732
-0.0478755
-0.0499382
0.0991693
0.0988849
0.0986043
0.0983246
0.0980398
0.0977463
0.0974416
0.0971239
0.0967916
0.0964433
0.096077
0.0956911
0.0952835
0.094853
0.0943968
0.0939134
0.0933997
0.092854
0.0922725
0.0916526
0.0909902
0.0902817
0.0895222
0.0887069
0.0878296
0.0868846
0.0858643
0.0847611
0.0835659
0.0822684
0.0808581
0.0793217
0.0776466
0.0758179
0.0738197
0.0716338
0.06924
0.0666182
0.0637451
0.0605971
0.0571516
0.0533845
0.0492725
0.0447958
0.0399381
0.0346869
0.0290366
0.0229881
0.0165597
0.0097769
0.00269922
-0.00462569
-0.0121242
-0.0196552
-0.0270596
-0.0341424
-0.0406423
-0.046192
-0.0504539
-0.0526773
0.100867
0.100577
0.100291
0.100006
0.0997154
0.0994163
0.0991054
0.0987809
0.0984414
0.0980855
0.0977114
0.0973173
0.0969017
0.0964625
0.095998
0.0955056
0.0949833
0.0944282
0.0938374
0.0932075
0.0925353
0.0918164
0.0910464
0.0902204
0.0893322
0.0883761
0.0873445
0.0862297
0.0850224
0.0837127
0.082289
0.0807393
0.0790496
0.0772048
0.0751893
0.0729839
0.070568
0.0679211
0.0650188
0.0618365
0.0583504
0.0545347
0.0503638
0.045816
0.0408719
0.0355161
0.0297392
0.0235389
0.0169304
0.009937
0.00261817
-0.00497885
-0.0127765
-0.0206326
-0.0283827
-0.035822
-0.0426728
-0.0485451
-0.0530748
-0.0554661
0.102655
0.102357
0.102062
0.101769
0.101469
0.101161
0.100841
0.100507
0.100159
0.0997938
0.0994104
0.0990074
0.0985819
0.0981335
0.0976589
0.0971569
0.096624
0.0960591
0.0954578
0.0948179
0.0941353
0.093406
0.0926255
0.0917888
0.0908897
0.0899224
0.0888794
0.0877528
0.0865334
0.0852108
0.0837741
0.0822098
0.0805051
0.078644
0.0766101
0.0743842
0.0719451
0.0692715
0.0663383
0.0631199
0.059591
0.0557243
0.0514923
0.0468706
0.0418375
0.0363741
0.0304678
0.0241123
0.0173207
0.010113
0.00254989
-0.00532298
-0.0134264
-0.0216143
-0.0297167
-0.0375196
-0.0447288
-0.0509314
-0.0557362
-0.0583019
0.104439
0.104135
0.103837
0.103539
0.103236
0.102924
0.1026
0.102262
0.101909
0.101538
0.101149
0.100739
0.100308
0.0998513
0.0993695
0.0988588
0.0983178
0.0977434
0.0971329
0.0964829
0.0957902
0.0950504
0.0942593
0.0934118
0.0925017
0.0915232
0.0904687
0.0893303
0.0880984
0.0867631
0.0853124
0.083734
0.0820135
0.080135
0.0780822
0.0758348
0.0733713
0.07067
0.0677047
0.0644486
0.0608755
0.056956
0.0526607
0.047963
0.0428382
0.0372644
0.0312252
0.0247114
0.0177321
0.0103061
0.00249227
-0.00566111
-0.0140731
-0.0225973
-0.0310588
-0.0392336
-0.0468102
-0.0533523
-0.0584414
-0.0611893
0.106339
0.106027
0.105719
0.105413
0.105101
0.104779
0.104445
0.104098
0.103735
0.103355
0.102957
0.102538
0.102096
0.10163
0.101138
0.100617
0.100066
0.0994815
0.0988606
0.0982006
0.0974977
0.0967478
0.0959463
0.0950883
0.0941674
0.0931779
0.092112
0.0909616
0.0897176
0.0883689
0.0869048
0.0853109
0.0835745
0.0816783
0.0796057
0.0773361
0.0748473
0.0721171
0.0691183
0.0658231
0.0622038
0.0582297
0.053869
0.0490931
0.0438741
0.0381874
0.0320125
0.0253373
0.0181672
0.010519
0.0024513
-0.00598737
-0.0147149
-0.0235826
-0.0324104
-0.0409646
-0.0489168
-0.0558069
-0.0611881
-0.0641251
0.108259
0.10794
0.107626
0.107313
0.106995
0.106667
0.106327
0.105972
0.105601
0.105213
0.104807
0.104379
0.103929
0.103454
0.102954
0.102424
0.101864
0.101271
0.100641
0.099971
0.0992585
0.0984984
0.0976869
0.0968185
0.095887
0.0948865
0.0938093
0.0926472
0.0913906
0.0900291
0.0885503
0.0869418
0.0851885
0.0832739
0.0811809
0.0788883
0.0763734
0.0736134
0.0705802
0.0672447
0.0635781
0.0595478
0.0551201
0.0502638
0.0449485
0.0391461
0.0328325
0.0259925
0.0186273
0.0107529
0.00242428
-0.00630384
-0.0153501
-0.0245666
-0.0337682
-0.0427107
-0.0510483
-0.0582965
-0.0639797
-0.0671145
0.110265
0.109937
0.109613
0.109291
0.108963
0.108625
0.108275
0.10791
0.10753
0.107133
0.106716
0.10628
0.10582
0.105336
0.104825
0.104287
0.103717
0.103114
0.102474
0.101795
0.101072
0.100303
0.099481
0.0986025
0.0976606
0.0966492
0.0955608
0.094387
0.093118
0.091743
0.0902504
0.0886257
0.0868557
0.0849222
0.0828083
0.0804921
0.0779503
0.0751598
0.0720911
0.0687141
0.0649988
0.0609107
0.0564142
0.0514756
0.0460619
0.0401413
0.0336866
0.0266788
0.0191156
0.0110111
0.0024184
-0.006605
-0.0159777
-0.0255505
-0.0351337
-0.0444729
-0.0532045
-0.0608201
-0.0668136
-0.0701535
0.112258
0.111923
0.111594
0.111268
0.110936
0.110595
0.110241
0.109872
0.109488
0.109085
0.108664
0.10822
0.107755
0.107264
0.106747
0.106199
0.105622
0.10501
0.104361
0.103673
0.102941
0.102161
0.10133
0.100441
0.0994886
0.0984665
0.0973669
0.0961814
0.0948999
0.0935117
0.0920041
0.0903643
0.0885764
0.0866238
0.0844883
0.0821479
0.0795788
0.076757
0.0736522
0.0702329
0.0664678
0.0623208
0.0577541
0.0527315
0.0472171
0.0411761
0.0345772
0.0273988
0.0196331
0.0112946
0.00243073
-0.0068914
-0.0165945
-0.02653
-0.0365031
-0.0462487
-0.0553851
-0.0633789
-0.0696935
-0.0732479
0.114373
0.114029
0.11369
0.113354
0.113012
0.11266
0.112296
0.111917
0.111523
0.111111
0.11068
0.110228
0.109752
0.109252
0.108725
0.108168
0.107581
0.10696
0.106301
0.105603
0.104862
0.104073
0.103232
0.102333
0.101371
0.100338
0.0992279
0.0980308
0.096737
0.0953351
0.0938135
0.0921567
0.0903517
0.0883792
0.0862218
0.083857
0.08126
0.0784064
0.0752646
0.0718021
0.0679862
0.063779
0.0591405
0.0540323
0.0484155
0.0422517
0.0355064
0.0281543
0.0201835
0.0116071
0.00246926
-0.00715939
-0.0172009
-0.0275072
-0.0378786
-0.0480394
-0.05759
-0.0659717
-0.0726163
-0.0763926
0.116506
0.116155
0.115809
0.115467
0.115118
0.11476
0.114389
0.114003
0.113601
0.113181
0.112742
0.112281
0.111797
0.111288
0.110753
0.110188
0.109592
0.108962
0.108296
0.107589
0.106838
0.10604
0.10519
0.104281
0.103309
0.102266
0.101145
0.0999362
0.0986299
0.0972149
0.0956778
0.0940057
0.0921821
0.0901898
0.0880102
0.0856205
0.0829953
0.0801095
0.0769302
0.0734236
0.0695561
0.0652876
0.0605762
0.0553808
0.0496597
0.0433711
0.0364766
0.0289479
0.0207678
0.0119498
0.00253096
-0.0074071
-0.0177924
-0.0284769
-0.0392557
-0.0498422
-0.0598187
-0.0686001
-0.075586
-0.0795946
0.118735
0.118373
0.118017
0.117663
0.117304
0.116935
0.116553
0.116157
0.115745
0.115315
0.114866
0.114396
0.113903
0.113385
0.11284
0.112266
0.11166
0.111021
0.110345
0.109629
0.10887
0.108063
0.107203
0.106286
0.105303
0.104251
0.103119
0.101899
0.10058
0.0991513
0.0976001
0.0959108
0.0940698
0.0920572
0.0898552
0.0874402
0.0847863
0.0818676
0.07865
0.0750988
0.0711786
0.0668479
0.0620623
0.0567783
0.0509511
0.0445357
0.0374899
0.0297817
0.0213897
0.0123265
0.00262361
-0.00763282
-0.0183704
-0.0294419
-0.0406371
-0.0516588
-0.0620712
-0.0712624
-0.0785991
-0.0828474
0.120944
0.120575
0.120214
0.119857
0.119494
0.119122
0.118737
0.118336
0.11792
0.117485
0.117032
0.116555
0.116056
0.115531
0.11498
0.114397
0.113785
0.113137
0.112453
0.111728
0.11096
0.110143
0.109275
0.108348
0.107356
0.106293
0.105151
0.10392
0.102589
0.101147
0.0995802
0.0978754
0.0960157
0.0939829
0.0917583
0.0893177
0.0866347
0.0836825
0.0804263
0.0768296
0.0728562
0.0684624
0.0636015
0.0582276
0.0522928
0.0457487
0.0385489
0.0306585
0.0220507
0.0127382
0.00274491
-0.00783275
-0.0189291
-0.0303959
-0.0420176
-0.053486
-0.0643468
-0.0739605
-0.0816598
-0.086159
0.123291
0.122911
0.122539
0.122171
0.121797
0.121414
0.121017
0.120606
0.120179
0.119735
0.119271
0.118785
0.118275
0.117741
0.117179
0.116588
0.115966
0.115309
0.114616
0.113883
0.113106
0.112281
0.111404
0.110469
0.109468
0.108396
0.107243
0.106
0.104657
0.103202
0.101621
0.0998993
0.098022
0.0959687
0.0937211
0.0912546
0.0885418
0.0855557
0.0822601
0.0786174
0.07459
0.0701323
0.0651953
0.0597302
0.0536863
0.0470114
0.0396556
0.0315801
0.0227539
0.0131884
0.00290146
-0.00800756
-0.0194718
-0.031343
-0.0434006
-0.0553258
-0.0666456
-0.0766924
-0.0847639
-0.0895217
0.125652
0.125264
0.124885
0.124509
0.124129
0.123738
0.123334
0.122915
0.12248
0.122027
0.121554
0.12106
0.120542
0.12
0.119431
0.118832
0.118203
0.117539
0.116839
0.116097
0.115313
0.11448
0.113595
0.112651
0.111642
0.11056
0.109396
0.108143
0.106788
0.105319
0.103723
0.101986
0.100089
0.0980152
0.0957446
0.0932518
0.0905091
0.0874888
0.0841534
0.0804643
0.0763825
0.0718603
0.0668463
0.0612891
0.0551347
0.0483273
0.0408131
0.0325496
0.0235012
0.0136784
0.00309164
-0.00815193
-0.0199911
-0.032276
-0.0447804
-0.0571749
-0.0689669
-0.0794601
-0.0879163
-0.0929445
0.128102
0.127703
0.127311
0.126924
0.126532
0.12613
0.125715
0.125287
0.124842
0.124381
0.1239
0.123398
0.122872
0.122323
0.121746
0.12114
0.120503
0.119832
0.119124
0.118376
0.117585
0.116744
0.115851
0.114898
0.113879
0.112787
0.111614
0.110349
0.108981
0.107499
0.105888
0.104133
0.102218
0.100124
0.0978296
0.0953105
0.0925376
0.0894827
0.0861073
0.0823715
0.0782349
0.0736477
0.068556
0.0629056
0.0566394
0.0496975
0.0420229
0.0335685
0.0242951
0.0142108
0.0033204
-0.0082683
-0.0204919
-0.0331998
-0.0461609
-0.0590355
-0.0713108
-0.0822613
-0.0911119
-0.0964186
0.130483
0.130079
0.129688
0.129303
0.128915
0.128518
0.128108
0.127682
0.12724
0.126778
0.126298
0.125793
0.125266
0.124712
0.124131
0.123519
0.122876
0.122198
0.121483
0.120726
0.119927
0.119077
0.118174
0.117212
0.116183
0.115081
0.113896
0.112619
0.111238
0.109742
0.108115
0.106344
0.10441
0.102294
0.0999768
0.0974313
0.0946283
0.091539
0.0881237
0.0843412
0.0801497
0.0754974
0.0703275
0.0645832
0.0582039
0.0511262
0.0432886
0.0346404
0.025138
0.0147877
0.00358732
-0.00835013
-0.0209655
-0.0341063
-0.0475361
-0.0609039
-0.0736767
-0.0850985
-0.0943564
-0.0999539
0.133276
0.132855
0.132441
0.132031
0.131615
0.13119
0.130752
0.130301
0.129834
0.12935
0.128848
0.128325
0.12778
0.12721
0.126614
0.125989
0.125333
0.124644
0.123917
0.12315
0.12234
0.12148
0.120568
0.119595
0.118555
0.11744
0.116243
0.114953
0.113559
0.112047
0.110406
0.108616
0.106664
0.104527
0.102187
0.0996151
0.0967821
0.0936585
0.0902034
0.0863742
0.0821279
0.0774101
0.0721617
0.0663226
0.0598291
0.0526136
0.0446111
0.0357661
0.0260315
0.0154105
0.00389571
-0.0084014
-0.0214182
-0.0350014
-0.0489101
-0.0627825
-0.0760643
-0.0879685
-0.0976437
-0.10354
0.135774
0.135351
0.134943
0.134541
0.134136
0.133722
0.133294
0.132849
0.132388
0.131907
0.131407
0.130882
0.130335
0.12976
0.129159
0.128526
0.127863
0.127163
0.126427
0.125649
0.124828
0.123956
0.123031
0.122046
0.120994
0.119867
0.118656
0.117352
0.115944
0.114417
0.112759
0.110952
0.108981
0.106823
0.10446
0.101862
0.0989999
0.0958426
0.0923482
0.0884729
0.084172
0.0793891
0.074062
0.0681278
0.0615192
0.0541646
0.0459946
0.0369499
0.0269787
0.0160823
0.00424615
-0.0084146
-0.0218404
-0.0358764
-0.0502768
-0.0646679
-0.0784735
-0.0908745
-0.10098
-0.107188
0.138736
0.138297
0.137867
0.137439
0.137007
0.136564
0.136108
0.135638
0.135151
0.134648
0.134126
0.133582
0.133015
0.132424
0.131805
0.131157
0.130477
0.129764
0.129014
0.128222
0.127388
0.126503
0.125564
0.124566
0.1235
0.122359
0.121134
0.119816
0.118392
0.11685
0.115176
0.113351
0.111361
0.109183
0.106796
0.104174
0.101282
0.0980919
0.0945589
0.0906379
0.0862829
0.0814349
0.076029
0.069999
0.0632742
0.0557787
0.0474392
0.0381916
0.0279804
0.0168034
0.00464073
-0.00839463
-0.0222394
-0.036738
-0.0516409
-0.0665623
-0.0809036
-0.0938127
-0.104359
-0.110887
0.141381
0.140943
0.14052
0.140104
0.139684
0.139253
0.138809
0.138346
0.137866
0.137366
0.136845
0.136299
0.135729
0.135131
0.134506
0.133848
0.133159
0.132434
0.131671
0.130866
0.130018
0.129119
0.128166
0.127153
0.126072
0.124917
0.123677
0.122344
0.120905
0.119347
0.117655
0.115813
0.113804
0.111605
0.109197
0.10655
0.10363
0.100408
0.0968371
0.0928715
0.0884632
0.0835509
0.0780664
0.0719406
0.0650989
0.0574612
0.0489498
0.0394963
0.0290403
0.0175776
0.00508117
-0.00833303
-0.0226043
-0.0375767
-0.0529958
-0.0684625
-0.0833549
-0.096787
-0.107787
-0.114649
0.144526
0.144072
0.143626
0.143183
0.142734
0.142274
0.141799
0.141308
0.1408
0.140274
0.139729
0.139161
0.138569
0.137951
0.137306
0.13663
0.135923
0.135181
0.134402
0.133581
0.132717
0.131803
0.130835
0.129807
0.12871
0.127539
0.126284
0.124935
0.12348
0.121905
0.120197
0.118337
0.11631
0.114092
0.111662
0.108991
0.106045
0.102791
0.0991837
0.0951743
0.0907134
0.0857371
0.0801742
0.073952
0.0669926
0.0592111
0.0505255
0.0408628
0.0301583
0.0184043
0.00556864
-0.0082358
-0.0229439
-0.0384001
-0.0543464
-0.0703705
-0.0858261
-0.0997924
-0.111256
-0.11846
0.147371
0.146914
0.146471
0.146032
0.145589
0.145133
0.144662
0.144173
0.143668
0.143141
0.142594
0.142022
0.141425
0.1408
0.140148
0.139462
0.138744
0.13799
0.137197
0.136362
0.135483
0.134553
0.133569
0.132524
0.131412
0.130225
0.128954
0.127589
0.126117
0.124527
0.122802
0.120925
0.118879
0.116642
0.114192
0.111498
0.108526
0.105243
0.1016
0.0975486
0.0930365
0.0879973
0.0823565
0.0760384
0.0689605
0.0610341
0.052172
0.0422968
0.0313388
0.0192881
0.00610537
-0.00809351
-0.0232462
-0.0391983
-0.0556862
-0.0722836
-0.0883182
-0.102834
-0.114774
-0.122334
0.150452
0.149985
0.149533
0.149084
0.148632
0.148167
0.147688
0.147189
0.146674
0.146137
0.145578
0.144993
0.144383
0.143744
0.143075
0.142373
0.141639
0.140868
0.140059
0.139207
0.138312
0.137365
0.136365
0.135304
0.134175
0.132972
0.131685
0.130303
0.128816
0.127209
0.125468
0.123574
0.121512
0.119256
0.116787
0.114072
0.111075
0.107764
0.104088
0.0999948
0.0954324
0.090331
0.0846127
0.0781983
0.0710014
0.0629284
0.0538876
0.0437965
0.0325809
0.0202277
0.0066921
-0.00791298
-0.0235211
-0.0399794
-0.0570204
-0.0742033
-0.090829
-0.105905
-0.118333
-0.126257
0.1536
0.153121
0.152657
0.152198
0.151734
0.151258
0.150765
0.150254
0.149725
0.149175
0.148604
0.148007
0.147385
0.146733
0.146053
0.145338
0.14459
0.143805
0.142981
0.142113
0.141201
0.140238
0.139221
0.138144
0.136998
0.135778
0.134475
0.133078
0.131574
0.129952
0.128195
0.126286
0.124207
0.121934
0.119447
0.116713
0.113694
0.110356
0.106648
0.102515
0.0979045
0.0927423
0.0869476
0.0804373
0.073121
0.0649005
0.0556785
0.0453683
0.0338897
0.021228
0.00733137
-0.00768381
-0.0237555
-0.0407329
-0.0583427
-0.0761276
-0.0933606
-0.109013
-0.12194
-0.130242
0.156884
0.156393
0.155916
0.155444
0.154967
0.154476
0.15397
0.153444
0.152899
0.152333
0.151744
0.151129
0.150487
0.149817
0.149115
0.148381
0.147613
0.146809
0.145965
0.145079
0.144149
0.143168
0.142134
0.14104
0.139877
0.138641
0.137321
0.135909
0.134391
0.132753
0.130982
0.129058
0.126964
0.124676
0.122173
0.119421
0.116381
0.113019
0.10928
0.105111
0.100452
0.0952304
0.0893597
0.0827536
0.0753172
0.0669477
0.0575423
0.0470096
0.0352633
0.0222874
0.00802374
-0.00741392
-0.0239604
-0.0414675
-0.0596576
-0.0780571
-0.0959097
-0.112149
-0.125587
-0.134275
0.160158
0.159656
0.159168
0.158686
0.158197
0.157695
0.157175
0.156636
0.156078
0.155498
0.154897
0.154267
0.153613
0.152928
0.152213
0.151464
0.150681
0.149861
0.149001
0.148098
0.14715
0.146152
0.1451
0.143989
0.142809
0.141557
0.140222
0.138795
0.137263
0.135612
0.133827
0.131891
0.129784
0.127482
0.124966
0.122197
0.119139
0.115755
0.111989
0.107783
0.10308
0.0977997
0.0918544
0.0851531
0.0775969
0.0690771
0.0594863
0.048727
0.0367082
0.0234103
0.00877148
-0.00709212
-0.0241221
-0.0421729
-0.0609599
-0.0799907
-0.0984793
-0.115321
-0.129282
-0.13837
0.16355
0.163036
0.162536
0.16204
0.161538
0.161021
0.160488
0.159933
0.15936
0.158763
0.158143
0.157496
0.15682
0.156115
0.155379
0.15461
0.153806
0.152966
0.152086
0.151164
0.150198
0.149183
0.148114
0.146986
0.145791
0.144524
0.143175
0.141734
0.14019
0.138527
0.136732
0.134783
0.132666
0.130353
0.127825
0.125043
0.121968
0.118564
0.114772
0.110533
0.105786
0.100449
0.0944296
0.0876335
0.0799566
0.0712857
0.0615067
0.0505179
0.0382209
0.0245956
0.00957498
-0.00672709
-0.0242523
-0.0428578
-0.0622536
-0.0819284
-0.101065
-0.11852
-0.133014
-0.142513
0.166922
0.166396
0.165885
0.165378
0.164864
0.164335
0.163788
0.163219
0.162631
0.16202
0.161386
0.160724
0.160035
0.159316
0.158566
0.157781
0.156962
0.156106
0.15521
0.154272
0.153289
0.152257
0.151172
0.150029
0.14882
0.147539
0.146177
0.144725
0.14317
0.141498
0.139692
0.137736
0.13561
0.133289
0.130751
0.127958
0.12487
0.121448
0.117633
0.113363
0.108574
0.103183
0.0970913
0.0902012
0.0824042
0.0735807
0.0636121
0.0523888
0.0398093
0.0258467
0.0104375
-0.0063067
-0.0243366
-0.043512
-0.0635339
-0.08387
-0.103671
-0.121754
-0.136795
-0.146716
0.17039
0.169852
0.169327
0.168806
0.168279
0.167735
0.167174
0.16659
0.165985
0.165358
0.164705
0.164025
0.163316
0.162577
0.161806
0.161002
0.160163
0.159288
0.158374
0.157418
0.156419
0.155371
0.154272
0.153115
0.151893
0.150601
0.149228
0.147766
0.146202
0.144522
0.142711
0.140747
0.138616
0.136289
0.133744
0.130944
0.127844
0.124407
0.120571
0.116272
0.111444
0.105999
0.0998365
0.092853
0.0849354
0.0759587
0.065798
0.0543371
0.0414693