/*--------------------------------*- C++ -*----------------------------------*\
  =========                 |
  \\      /  F ield         | OpenFOAM: The Open Source CFD Toolbox
   \\    /   O peration     | Website:  https://openfoam.org
    \\  /    A nd           | Version:  6.0
     \\/     M anipulation  |
\*---------------------------------------------------------------------------*/
FoamFile
{
    version     2.0;
    format      ascii;
    class       surfaceScalarField;
    location    "2";
    object      phi;
}
// * * * * * * * * * * * * * * * * * * * * * * * * * * * * * * * * * * * * * //

dimensions      [0 3 -1 0 0 0 0];

internalField   nonuniform List<scalar> 
123526
(
2.78775e-05
2.33204e-05
-2.74966e-05
2.82978e-05
2.52112e-05
2.87527e-05
2.72548e-05
2.92456e-05
2.94635e-05
2.97786e-05
3.18507e-05
3.03562e-05
3.44307e-05
3.09807e-05
3.72189e-05
3.16573e-05
4.0232e-05
3.23896e-05
4.34871e-05
3.31835e-05
4.70048e-05
3.40413e-05
5.08065e-05
3.49704e-05
5.4914e-05
3.59744e-05
5.93515e-05
3.70641e-05
6.41427e-05
3.82447e-05
6.93172e-05
3.95235e-05
7.49087e-05
4.09057e-05
8.09468e-05
4.24088e-05
8.74601e-05
4.4037e-05
9.44938e-05
4.58003e-05
0.000102089
4.77134e-05
0.000110278
4.97908e-05
0.000119112
5.20366e-05
0.000128646
5.44804e-05
0.000138911
5.71244e-05
0.000149984
5.99925e-05
0.000161907
6.31017e-05
0.000174741
6.64684e-05
0.000188555
7.01186e-05
0.000203399
7.40676e-05
0.000219356
7.83442e-05
0.000236472
8.29679e-05
0.000254829
8.79649e-05
0.000274479
9.33617e-05
0.000295487
9.91834e-05
0.000317907
0.000105465
0.000341775
0.000112228
0.000367136
0.000119502
0.000393991
0.000127318
0.000422331
0.000135697
0.000452116
0.000144665
0.000483255
0.000154245
0.000515605
0.000164456
0.000548955
0.000175307
0.000582999
0.000186805
0.000617314
0.000198946
0.000651332
0.000211711
0.000684297
0.000225066
0.000715224
0.000238951
0.000742839
0.000253278
0.00076552
0.000267913
0.000781228
0.000282686
0.000787414
0.000297346
0.000780986
0.00031159
0.000758144
0.000325009
0.000714405
0.000337106
0.000644509
0.000347248
0.000542597
0.000354687
0.00040239
0.000358553
0.000218772
-5.43882e-06
0.000358846
2.78987e-05
2.29314e-05
-2.75217e-05
2.83136e-05
2.4791e-05
2.87625e-05
2.68007e-05
2.92489e-05
2.89727e-05
2.9775e-05
3.13202e-05
3.0345e-05
3.38571e-05
3.09612e-05
3.65987e-05
3.16291e-05
3.95612e-05
3.23519e-05
4.27606e-05
3.31359e-05
4.62184e-05
3.39829e-05
4.9956e-05
3.49006e-05
5.39941e-05
3.5892e-05
5.83565e-05
3.69685e-05
6.30642e-05
3.81344e-05
6.81476e-05
3.93976e-05
7.36436e-05
4.07625e-05
7.95784e-05
4.22469e-05
8.59739e-05
4.38544e-05
9.28828e-05
4.55951e-05
0.000100346
4.74831e-05
0.000108386
4.95328e-05
0.00011706
5.17481e-05
0.000126427
5.41575e-05
0.0001365
5.67636e-05
0.000147375
5.95889e-05
0.000159079
6.26506e-05
0.000171677
6.59634e-05
0.00018524
6.9554e-05
0.000199806
7.34352e-05
0.000215472
7.76371e-05
0.000232267
8.21755e-05
0.000250288
8.70782e-05
0.000269572
9.23695e-05
0.00029019
9.80736e-05
0.000312198
0.000104225
0.000335619
0.000110844
0.000360513
0.00011796
0.000386871
0.000125603
0.000414685
0.000133794
0.000443922
0.00014256
0.000474489
0.000151924
0.000506241
0.000161904
0.000538976
0.000172513
0.000572394
0.000183758
0.000606077
0.000195635
0.000639466
0.000208128
0.00067182
0.000221204
0.00070217
0.000234803
0.000729267
0.000248841
0.000751519
0.000263186
0.000766924
0.000277673
0.000772988
0.00029205
0.000766658
0.000306024
0.000744217
0.000319188
0.000701269
0.000331057
0.000632673
0.000341007
0.000532678
0.000348299
0.000395141
0.000352089
0.000215036
-5.40111e-06
0.000352141
2.75671e-05
2.25494e-05
-2.71977e-05
2.79745e-05
2.43781e-05
2.84157e-05
2.63541e-05
2.8894e-05
2.84899e-05
2.94115e-05
3.07981e-05
2.99725e-05
3.32926e-05
3.05791e-05
3.59881e-05
3.12366e-05
3.89006e-05
3.19483e-05
4.20451e-05
3.272e-05
4.54438e-05
3.3554e-05
4.91182e-05
3.44575e-05
5.30879e-05
3.54338e-05
5.73763e-05
3.64936e-05
6.20019e-05
3.76418e-05
6.69956e-05
3.88855e-05
7.23976e-05
4.02295e-05
7.82307e-05
4.16908e-05
8.45105e-05
4.32734e-05
9.12968e-05
4.49868e-05
9.86313e-05
4.68448e-05
0.000106525
4.88617e-05
0.000115042
5.10411e-05
0.000124245
5.34111e-05
0.000134128
5.5974e-05
0.000144809
5.87518e-05
0.000156299
6.17616e-05
0.000168664
6.50174e-05
0.000181981
6.85454e-05
0.000196275
7.2358e-05
0.000211657
7.64847e-05
0.000228138
8.09408e-05
0.000245828
8.57536e-05
0.000264754
9.09461e-05
0.000284991
9.65429e-05
0.000306594
0.000102577
0.000329578
0.000109069
0.000354015
0.000116047
0.000379888
0.000123541
0.000407187
0.000131572
0.000435887
0.000140167
0.000465891
0.000149348
0.000497057
0.000159133
0.000529189
0.000169536
0.00056199
0.000180562
0.000595049
0.000192211
0.000627817
0.000204465
0.000659565
0.000217292
0.000689342
0.000230633
0.000715921
0.000244407
0.000737742
0.000258483
0.000752837
0.0002727
0.000758762
0.00028681
0.000752526
0.000300525
0.000730491
0.000313446
0.000688327
0.000325097
0.000621009
0.000334865
0.000522892
0.000342026
0.000387965
0.000345766
0.000211273
-5.27077e-06
0.000345602
2.71526e-05
2.21747e-05
-2.67881e-05
2.75531e-05
2.3973e-05
2.79869e-05
2.59159e-05
2.84571e-05
2.80159e-05
2.89658e-05
3.02855e-05
2.95172e-05
3.27381e-05
3.01135e-05
3.53882e-05
3.076e-05
3.82516e-05
3.14599e-05
4.13419e-05
3.2219e-05
4.46825e-05
3.30395e-05
4.82947e-05
3.39285e-05
5.21971e-05
3.4889e-05
5.64127e-05
3.5932e-05
6.09573e-05
3.70616e-05
6.58628e-05
3.82853e-05
7.11724e-05
3.96073e-05
7.69055e-05
4.10449e-05
8.30715e-05
4.26014e-05
8.97371e-05
4.42865e-05
9.69446e-05
4.61137e-05
0.000104694
4.80969e-05
0.000113057
5.02396e-05
0.000122099
5.25694e-05
0.000131796
5.50886e-05
0.000142287
5.78186e-05
0.000153567
6.07761e-05
0.000165703
6.39748e-05
0.00017878
6.74406e-05
0.000192807
7.11853e-05
0.000207909
7.52381e-05
0.000224083
7.96137e-05
0.000241449
8.43384e-05
0.000260024
8.94359e-05
0.000279888
9.49293e-05
0.000301095
0.000100852
0.00032365
0.000107222
0.000347639
0.00011407
0.000373034
0.000121423
0.000399828
0.000129303
0.000428001
0.000137735
0.000457453
0.000146744
0.000488043
0.000156345
0.000519582
0.000166553
0.000551777
0.000177373
0.000584224
0.000188805
0.000616382
0.000200831
0.000647536
0.00021342
0.000676753
0.000226515
0.000702828
0.000240034
0.00072423
0.00025385
0.000739029
0.000267805
0.00074483
0.000281656
0.000738688
0.000295119
0.000717038
0.000307803
0.000675644
0.000319242
0.000609579
0.000328834
0.000513312
0.000335869
0.000380954
0.000339554
0.000207625
-4.90249e-06
0.000339251
2.66953e-05
2.18058e-05
-2.63403e-05
2.7088e-05
2.35739e-05
2.7514e-05
2.54842e-05
2.79757e-05
2.7549e-05
2.84759e-05
2.97805e-05
2.90179e-05
3.2192e-05
2.96046e-05
3.47975e-05
3.02402e-05
3.76125e-05
3.09288e-05
4.06497e-05
3.1675e-05
4.39331e-05
3.24822e-05
4.74841e-05
3.33559e-05
5.13203e-05
3.43008e-05
5.54644e-05
3.53258e-05
5.99296e-05
3.64368e-05
6.47485e-05
3.76395e-05
6.99673e-05
3.89395e-05
7.56023e-05
4.03526e-05
8.16565e-05
4.18828e-05
8.82039e-05
4.35391e-05
9.52868e-05
4.53351e-05
0.000102896
4.7284e-05
0.000111107
4.93896e-05
0.000119991
5.16788e-05
0.000129505
5.41539e-05
0.000139809
5.68359e-05
0.000150883
5.9741e-05
0.000162795
6.2883e-05
0.000175635
6.62869e-05
0.0001894
6.99644e-05
0.000204229
7.39441e-05
0.0002201
7.82404e-05
0.00023715
8.28797e-05
0.000255381
8.7884e-05
0.000274877
9.32772e-05
0.000295695
9.90911e-05
0.00031783
0.000105345
0.00034138
0.000112066
0.000366307
0.000119284
0.000392605
0.000127019
0.00042026
0.000135297
0.000449171
0.00014414
0.000479195
0.000153565
0.000510152
0.000163586
0.000541752
0.00017421
0.000573596
0.000185432
0.000605154
0.000197239
0.000635723
0.000209599
0.000664385
0.000222455
0.00068996
0.000235727
0.000710945
0.000249291
0.000725444
0.000262992
0.000731111
0.00027659
0.00072506
0.000289807
0.000703801
0.00030226
0.000663164
0.000313492
0.000598331
0.000322911
0.000503872
0.000329824
0.000374023
0.00033345
0.000203972
-4.54304e-06
0.000333052
2.62268e-05
2.1444e-05
-2.58753e-05
2.66131e-05
2.31827e-05
2.7032e-05
2.5061e-05
2.74857e-05
2.70913e-05
2.79771e-05
2.92855e-05
2.85092e-05
3.16565e-05
2.90853e-05
3.42182e-05
2.97094e-05
3.69857e-05
3.03856e-05
3.99706e-05
3.11187e-05
4.31979e-05
3.19113e-05
4.66888e-05
3.277e-05
5.04601e-05
3.36978e-05
5.45339e-05
3.47051e-05
5.8921e-05
3.57962e-05
6.36547e-05
3.6978e-05
6.87843e-05
3.82547e-05
7.43227e-05
3.96428e-05
8.02672e-05
4.11457e-05
8.66982e-05
4.27727e-05
9.36586e-05
4.45367e-05
0.000101129
4.6451e-05
0.000109191
4.85191e-05
0.00011792
5.07675e-05
0.000127255
5.31983e-05
0.000137375
5.58323e-05
0.000148247
5.86853e-05
0.00015994
6.17708e-05
0.000172547
6.51133e-05
0.000186055
6.87243e-05
0.000200615
7.2632e-05
0.00021619
7.68505e-05
0.000232928
8.14052e-05
0.000250821
8.6319e-05
0.000269958
9.1614e-05
0.000290395
9.73223e-05
0.000312117
0.000103462
0.000335235
0.000110062
0.000359703
0.000117148
0.000385513
0.000124743
0.00041266
0.000132871
0.000441038
0.000141554
0.000470506
0.00015081
0.00050089
0.00016065
0.000531905
0.000171082
0.000563157
0.000182103
0.000594126
0.000193697
0.000624122
0.000205834
0.000652243
0.000218458
0.000677331
0.00023149
0.000697911
0.000244809
0.000712125
0.000258261
0.000717669
0.000271612
0.00071171
0.000284589
0.000690822
0.000296817
0.000650929
0.000307845
0.000587302
0.000317096
0.000494626
0.000323888
0.000367246
0.000327451
0.000200436
-4.02666e-06
0.000326987
2.57566e-05
2.10883e-05
-2.54131e-05
2.61356e-05
2.27981e-05
2.65467e-05
2.4645e-05
2.69922e-05
2.66414e-05
2.74747e-05
2.87988e-05
2.79975e-05
3.11301e-05
2.85634e-05
3.36489e-05
2.91763e-05
3.63697e-05
2.98404e-05
3.93034e-05
3.056e-05
4.24755e-05
3.13383e-05
4.59074e-05
3.21808e-05
4.96148e-05
3.30921e-05
5.36196e-05
3.40805e-05
5.793e-05
3.5152e-05
6.25801e-05
3.6312e-05
6.76222e-05
3.75659e-05
7.3066e-05
3.89287e-05
7.89026e-05
4.04046e-05
8.52195e-05
4.2002e-05
9.20598e-05
4.37342e-05
9.9394e-05
4.56138e-05
0.00010731
4.76445e-05
0.000115887
4.98522e-05
0.000125046
5.2239e-05
0.000134986
5.48252e-05
0.000145659
5.76264e-05
0.000157136
6.06559e-05
0.000169516
6.39376e-05
0.000182771
6.74831e-05
0.000197067
7.13196e-05
0.000212351
7.54612e-05
0.000228784
7.99336e-05
0.000246346
8.47578e-05
0.000265129
8.9957e-05
0.000285191
9.55618e-05
0.000306508
0.000101591
0.000329202
0.000108071
0.000353218
0.00011503
0.00037855
0.000122488
0.000405198
0.00013047
0.000433052
0.000138997
0.000461975
0.000148087
0.000491797
0.000157752
0.000522237
0.000167998
0.000552908
0.000178822
0.000583298
0.000190209
0.000612728
0.000202129
0.000640316
0.000214526
0.000664922
0.000227324
0.000685101
0.000240403
0.000699027
0.000253612
0.000704443
0.000266722
0.000698573
0.000279464
0.00067806
0.000291471
0.000638898
0.000302301
0.000576457
0.000311386
0.000485521
0.000318059
0.000360555
0.000321558
0.00019691
-3.55275e-06
0.000321046
2.52947e-05
2.07402e-05
-2.49543e-05
2.56675e-05
2.24216e-05
2.60712e-05
2.42378e-05
2.65085e-05
2.6201e-05
2.69819e-05
2.83225e-05
2.74945e-05
3.06148e-05
2.80493e-05
3.30913e-05
2.86505e-05
3.57663e-05
2.93016e-05
3.86496e-05
3.00078e-05
4.17676e-05
3.07712e-05
4.51415e-05
3.15985e-05
4.87863e-05
3.24922e-05
5.27233e-05
3.34628e-05
5.69584e-05
3.4514e-05
6.15263e-05
3.56528e-05
6.64823e-05
3.68831e-05
7.1833e-05
3.82209e-05
7.75638e-05
3.96693e-05
8.37684e-05
4.12372e-05
9.04907e-05
4.29374e-05
9.76913e-05
4.47824e-05
0.000105464
4.67758e-05
0.000113891
4.89429e-05
0.000122877
5.1286e-05
0.000132641
5.38248e-05
0.000143118
5.65748e-05
0.000154384
5.95488e-05
0.000166539
6.27706e-05
0.000179547
6.62512e-05
0.000193584
7.00178e-05
0.000208583
7.40841e-05
0.000224715
7.84746e-05
0.000241951
8.32116e-05
0.000260387
8.83163e-05
0.000280081
9.38197e-05
0.000301
9.97396e-05
0.000323278
0.000106103
0.00034685
0.000112937
0.000371713
0.000120262
0.000397869
0.0001281
0.000425209
0.000136476
0.000453594
0.000145404
0.000482863
0.000154897
0.000512738
0.000164961
0.000542838
0.000175593
0.000572659
0.000186778
0.000601537
0.000198485
0.000628603
0.000210661
0.00065274
0.00022323
0.000672528
0.000236074
0.00068618
0.000249046
0.000691478
0.00026192
0.000685696
0.000274431
0.000665541
0.000286221
0.000627096
0.000296856
0.000565817
0.000305779
0.000476599
0.000312335
0.000354011
0.000315769
0.000193499
-2.95967e-06
0.000315222
2.48363e-05
2.03972e-05
-2.45073e-05
2.52007e-05
2.20508e-05
2.55963e-05
2.38368e-05
2.60248e-05
2.57673e-05
2.64894e-05
2.78535e-05
2.69924e-05
3.01076e-05
2.75376e-05
3.25427e-05
2.81276e-05
3.51728e-05
2.87674e-05
3.80068e-05
2.94602e-05
4.10716e-05
3.02102e-05
4.43887e-05
3.10214e-05
4.79721e-05
3.18995e-05
5.18426e-05
3.28513e-05
5.60039e-05
3.38837e-05
6.04914e-05
3.50009e-05
6.5363e-05
3.62089e-05
7.06225e-05
3.75216e-05
7.62495e-05
3.89435e-05
8.23442e-05
4.04822e-05
8.89506e-05
4.21511e-05
9.60202e-05
4.39619e-05
0.000103652
4.59184e-05
0.000111932
4.80454e-05
0.000120749
5.03452e-05
0.000130339
5.28372e-05
0.000140624
5.55365e-05
0.000151682
5.84559e-05
0.000163618
6.16184e-05
0.000176382
6.50354e-05
0.000190165
6.87328e-05
0.000204883
7.27247e-05
0.000220721
7.70356e-05
0.000237637
8.16861e-05
0.000255732
8.66984e-05
0.000275065
9.21022e-05
0.000295592
9.79152e-05
0.000317462
0.000104164
0.000340598
0.000110875
0.000364998
0.000118069
0.000390672
0.000125768
0.000417507
0.000133994
0.000445365
0.000142764
0.000474091
0.000152089
0.000503411
0.000161974
0.000532949
0.000172418
0.000562212
0.000183404
0.000590546
0.000194903
0.000617098
0.000206863
0.000640771
0.000219207
0.000660173
0.000231822
0.000673549
0.00024456
0.000678725
0.000257203
0.000673031
0.000269489
0.000653238
0.000281067
0.000615497
0.000291511
0.00055536
0.000300275
0.000467818
0.000306714
0.000347556
0.000310084
0.000190105
-2.42381e-06
0.00030951
2.43899e-05
2.00618e-05
-2.4063e-05
2.47485e-05
2.16882e-05
2.51371e-05
2.34446e-05
2.55579e-05
2.5343e-05
2.60137e-05
2.73946e-05
2.6507e-05
2.96112e-05
2.70413e-05
3.20057e-05
2.762e-05
3.45918e-05
2.82471e-05
3.73773e-05
2.8927e-05
4.039e-05
2.96623e-05
4.36514e-05
3.04588e-05
4.71744e-05
3.13196e-05
5.09797e-05
3.22541e-05
5.50685e-05
3.32664e-05
5.94769e-05
3.4363e-05
6.42656e-05
3.55477e-05
6.94354e-05
3.68359e-05
7.49604e-05
3.82307e-05
8.09469e-05
3.97407e-05
8.74396e-05
4.13782e-05
9.43804e-05
4.31551e-05
0.000101873
4.50752e-05
0.00011001
4.71626e-05
0.00011866
4.94198e-05
0.000128079
5.18656e-05
0.000138177
5.45151e-05
0.00014903
5.73805e-05
0.000160751
6.04849e-05
0.000173276
6.38388e-05
0.000186809
6.74686e-05
0.000201252
7.13874e-05
0.0002168
7.56192e-05
0.000233401
8.01855e-05
0.000251163
8.51067e-05
0.00027014
9.04126e-05
0.000290283
9.61207e-05
0.000311751
0.000102257
0.000334458
0.000108848
0.000358404
0.000115913
0.000383604
0.000123475
0.000409942
0.000131555
0.000437281
0.000140169
0.000465473
0.000149328
0.000494247
0.000159039
0.000523233
0.000169297
0.000551948
0.000180089
0.000579747
0.000191384
0.000605796
0.000203132
0.000629018
0.000215255
0.000648045
0.000227645
0.000661156
0.000240155
0.00066622
0.000252571
0.000660611
0.000264636
0.000641164
0.000276006
0.000604115
0.000286263
0.000545097
0.000294871
0.00045921
0.000301195
0.000341241
0.0003045
0.000186822
-1.78886e-06
0.000303907
2.3949e-05
1.97318e-05
-2.36305e-05
2.43005e-05
2.13314e-05
2.46818e-05
2.30587e-05
2.50949e-05
2.49258e-05
2.55423e-05
2.69435e-05
2.6027e-05
2.91233e-05
2.65517e-05
3.14779e-05
2.71199e-05
3.40208e-05
2.77356e-05
3.67587e-05
2.84025e-05
3.97203e-05
2.91241e-05
4.2927e-05
2.9905e-05
4.63909e-05
3.075e-05
5.01322e-05
3.16662e-05
5.41498e-05
3.26599e-05
5.84807e-05
3.37353e-05
6.31882e-05
3.48983e-05
6.82701e-05
3.6162e-05
7.3695e-05
3.75311e-05
7.95757e-05
3.90126e-05
8.59567e-05
4.06197e-05
9.27713e-05
4.23634e-05
0.000100129
4.42477e-05
0.000108123
4.62962e-05
0.00011661
4.85114e-05
0.000125862
5.09117e-05
0.000135775
5.35121e-05
0.000146428
5.63246e-05
0.000157937
5.93716e-05
0.000170227
6.26639e-05
0.000183515
6.62268e-05
0.000197687
7.00737e-05
0.000212951
7.42286e-05
0.000229244
7.87113e-05
0.000246676
8.35432e-05
0.000265304
8.8753e-05
0.00028507
9.43579e-05
0.000306143
0.000100384
0.000328429
0.000106856
0.000351929
0.000113795
0.000376663
0.000121222
0.000402513
0.000129158
0.000429343
0.000137619
0.00045701
0.000146616
0.000485248
0.000156155
0.000513693
0.000166232
0.000541868
0.000176833
0.000569143
0.000187928
0.000594697
0.000199467
0.000617472
0.000211374
0.000636128
0.000223543
0.000648975
0.00023583
0.000653922
0.000248023
0.000648398
0.000259871
0.0006293
0.000271038
0.000592931
0.000281111
0.000535013
0.000289565
0.000450741
0.000295776
0.000335014
0.000299016
0.000183559
-1.21817e-06
0.00029841
2.35207e-05
1.94092e-05
-2.32037e-05
2.38668e-05
2.09826e-05
2.42413e-05
2.26815e-05
2.4647e-05
2.45178e-05
2.50858e-05
2.65021e-05
2.5561e-05
2.86459e-05
2.60751e-05
3.09614e-05
2.66323e-05
3.34618e-05
2.72356e-05
3.61531e-05
2.78902e-05
3.90645e-05
2.85975e-05
4.22174e-05
2.93644e-05
4.56232e-05
3.01926e-05
4.93016e-05
3.10923e-05
5.32493e-05
3.20665e-05
5.7504e-05
3.31222e-05
6.21317e-05
3.42626e-05
6.71272e-05
3.55028e-05
7.24539e-05
3.68458e-05
7.82303e-05
3.82996e-05
8.45018e-05
3.98763e-05
9.11923e-05
4.15874e-05
9.84163e-05
4.34365e-05
0.000106272
4.54468e-05
0.000114598
4.76207e-05
0.000123686
4.99764e-05
0.000133418
5.25286e-05
0.000143874
5.52889e-05
0.000155175
5.82797e-05
0.000167234
6.15111e-05
0.000180282
6.50087e-05
0.000194188
6.8785e-05
0.000209173
7.28635e-05
0.000225163
7.72648e-05
0.000242272
8.20087e-05
0.000260557
8.7124e-05
0.000279952
9.26276e-05
0.000300637
9.85451e-05
0.000322509
0.000104901
0.000345571
0.000111715
0.000369846
0.000119009
0.000395216
0.000126804
0.000421544
0.000135115
0.000448696
0.000143953
0.000476406
0.000153322
0.000504318
0.000163221
0.000531964
0.000173635
0.000558724
0.000184533
0.000583792
0.000195867
0.000606132
0.000207563
0.000624427
0.000219514
0.00063702
0.000231582
0.000641859
0.000243557
0.000636418
0.000255192
0.000617654
0.000266159
0.000581951
0.000276052
0.000525114
0.000284355
0.000442437
0.000290456
0.000328923
0.000293632
0.000180404
-5.60229e-07
0.000293016
2.30962e-05
1.90909e-05
-2.27917e-05
2.34341e-05
2.06384e-05
2.38008e-05
2.23094e-05
2.41982e-05
2.41155e-05
2.46289e-05
2.60671e-05
2.50953e-05
2.81755e-05
2.56008e-05
3.04526e-05
2.61477e-05
3.29115e-05
2.6741e-05
3.5557e-05
2.73831e-05
3.84192e-05
2.80785e-05
4.15196e-05
2.88302e-05
4.48684e-05
2.96444e-05
4.84853e-05
3.05264e-05
5.23646e-05
3.14836e-05
5.65447e-05
3.2519e-05
6.10942e-05
3.36391e-05
6.60052e-05
3.48557e-05
7.12355e-05
3.61742e-05
7.691e-05
3.76006e-05
8.3074e-05
3.91482e-05
8.96429e-05
4.08272e-05
9.67361e-05
4.26418e-05
0.000104456
4.46145e-05
0.000112624
4.6748e-05
0.000121551
4.90599e-05
0.000131104
5.15647e-05
0.000141368
5.42739e-05
0.000152464
5.72092e-05
0.000164297
6.03813e-05
0.000177108
6.38141e-05
0.000190754
6.75211e-05
0.000205464
7.15252e-05
0.000221156
7.58459e-05
0.000237948
8.05036e-05
0.000255897
8.5526e-05
0.000274927
9.093e-05
0.000295231
9.67407e-05
0.000316697
0.000102982
0.000339327
0.000109674
0.000363153
0.000116838
0.000388051
0.000124494
0.000413887
0.000132657
0.000440532
0.000141338
0.000467724
0.000150541
0.000495113
0.000160265
0.000522239
0.000170494
0.000548493
0.000181199
0.000573084
0.000192332
0.000594994
0.00020382
0.000612931
0.000215559
0.00062527
0.00022741
0.000629997
0.000239172
0.00062464
0.000250599
0.000606214
0.00026137
0.000571166
0.000271086
0.000515389
0.000279241
0.00043427
0.000285232
0.000322919
0.000288345
0.000177269
2.7235e-08
0.000287723
2.26853e-05
1.87798e-05
-2.23816e-05
2.30182e-05
2.03022e-05
2.33787e-05
2.19457e-05
2.3769e-05
2.37222e-05
2.41916e-05
2.56417e-05
2.4649e-05
2.77154e-05
2.51442e-05
2.99549e-05
2.56807e-05
3.23729e-05
2.6262e-05
3.49735e-05
2.68923e-05
3.77875e-05
2.75739e-05
4.08362e-05
2.83122e-05
4.41291e-05
2.91101e-05
4.76855e-05
2.99765e-05
5.14976e-05
3.09148e-05
5.56043e-05
3.19313e-05
6.0077e-05
3.30296e-05
6.49048e-05
3.42237e-05
7.00405e-05
3.55169e-05
7.56147e-05
3.69167e-05
8.16731e-05
3.84351e-05
8.81225e-05
4.00827e-05
9.50873e-05
4.18634e-05
0.000102673
4.37993e-05
0.000110687
4.5893e-05
0.000119455
4.81619e-05
0.000128834
5.06202e-05
0.000138908
5.32791e-05
0.000149803
5.61604e-05
0.000161415
5.92736e-05
0.000173994
6.26435e-05
0.000187383
6.62823e-05
0.000201823
7.02129e-05
0.000217223
7.44549e-05
0.000233704
7.90276e-05
0.000251322
8.39589e-05
0.000269994
8.9265e-05
0.000289923
9.49707e-05
0.000310989
0.0001011
0.000333196
0.000107672
0.000356579
0.000114707
0.000381013
0.000122227
0.000406365
0.000130244
0.000432511
0.000138771
0.000459194
0.000147811
0.000486069
0.000157362
0.000512683
0.00016741
0.000538439
0.000177925
0.000562562
0.000188861
0.000584053
0.000200144
0.000601643
0.000211674
0.000613736
0.000223314
0.00061836
0.000234866
0.000613084
0.000246089
0.00059498
0.000256667
0.000560575
0.00026621
0.000505839
0.00027422
0.000426259
0.000280103
0.000317044
0.000283154
0.000174239
6.95725e-07
0.000282529
2.22791e-05
1.84736e-05
-2.19838e-05
2.26053e-05
1.99711e-05
2.2959e-05
2.15877e-05
2.33422e-05
2.33351e-05
2.37572e-05
2.52232e-05
2.42068e-05
2.72628e-05
2.46934e-05
2.94654e-05
2.52203e-05
3.18434e-05
2.57912e-05
3.44e-05
2.64096e-05
3.71665e-05
2.70787e-05
4.01645e-05
2.78025e-05
4.34026e-05
2.8586e-05
4.68996e-05
2.94353e-05
5.06458e-05
3.03567e-05
5.46807e-05
3.13535e-05
5.9078e-05
3.24318e-05
6.38244e-05
3.36033e-05
6.88674e-05
3.48728e-05
7.43434e-05
3.62463e-05
8.02982e-05
3.77365e-05
8.66305e-05
3.93533e-05
9.34693e-05
4.11009e-05
0.000100924
4.30007e-05
0.000108786
4.50555e-05
0.000117399
4.72822e-05
0.000126606
4.96949e-05
0.000136493
5.23046e-05
0.000147192
5.51324e-05
0.000158585
5.81884e-05
0.000170936
6.1496e-05
0.000184074
6.5068e-05
0.00019825
6.89268e-05
0.000213363
7.3091e-05
0.000229537
7.75806e-05
0.00024683
8.24222e-05
0.00026515
8.76321e-05
0.000284711
9.32347e-05
0.000305385
9.92535e-05
0.000327176
0.000105707
0.000350124
0.000112617
0.000374103
0.000120002
0.000398979
0.000127876
0.000424636
0.000136251
0.000450819
0.000145131
0.000477188
0.000154513
0.0005033
0.000164382
0.000528568
0.000174711
0.000552231
0.000185453
0.000573307
0.000196535
0.000590553
0.00020786
0.000602402
0.000219293
0.000606919
0.000230638
0.000601724
0.00024166
0.000583945
0.00025205
0.000550173
0.000261423
0.000496459
0.000269291
0.000418382
0.000275068
0.000311256
0.000278058
0.00017123
1.28956e-06
0.000277432
2.18858e-05
1.81744e-05
-2.15906e-05
2.22073e-05
1.96477e-05
2.25549e-05
2.1238e-05
2.29314e-05
2.29569e-05
2.33384e-05
2.48141e-05
2.37792e-05
2.68202e-05
2.42558e-05
2.89866e-05
2.47726e-05
3.13252e-05
2.53319e-05
3.38385e-05
2.59389e-05
3.65585e-05
2.65947e-05
3.95067e-05
2.73058e-05
4.26909e-05
2.80736e-05
4.61297e-05
2.89079e-05
4.98111e-05
2.9811e-05
5.37753e-05
3.07899e-05
5.80986e-05
3.18472e-05
6.27648e-05
3.29971e-05
6.77167e-05
3.42422e-05
7.3096e-05
3.55902e-05
7.89492e-05
3.70524e-05
8.51664e-05
3.86391e-05
9.18815e-05
4.0354e-05
9.92073e-05
4.22184e-05
0.000106921
4.42351e-05
0.000115381
4.64204e-05
0.000124419
4.87884e-05
0.000134124
5.13497e-05
0.000144629
5.41254e-05
0.000155808
5.71247e-05
0.000167936
6.03716e-05
0.000180826
6.3878e-05
0.000194742
6.76658e-05
0.000209573
7.17542e-05
0.000225446
7.61618e-05
0.00024242
8.09154e-05
0.000260395
8.60308e-05
0.000279594
9.15321e-05
0.000299882
9.74423e-05
0.000321264
0.00010378
0.000343785
0.000110565
0.000367315
0.000117818
0.000391724
0.000125553
0.000416899
0.000133778
0.00044259
0.0001425
0.000468462
0.000151715
0.00049408
0.00016141
0.000518869
0.000171555
0.00054208
0.000182106
0.000562751
0.000192991
0.000579662
0.000204115
0.000591276
0.000215344
0.000595693
0.000226487
0.000590575
0.000237313
0.000573108
0.000247518
0.000539956
0.000256724
0.000487247
0.000264451
0.000410654
0.000270125
0.000305591
0.000273055
0.000168322
1.96161e-06
0.000272429
2.14949e-05
1.7879e-05
-2.12126e-05
2.18084e-05
1.93283e-05
2.21487e-05
2.08927e-05
2.25173e-05
2.25835e-05
2.29171e-05
2.44104e-05
2.33498e-05
2.63838e-05
2.38188e-05
2.85146e-05
2.43261e-05
3.08147e-05
2.48765e-05
3.32856e-05
2.5472e-05
3.59601e-05
2.6117e-05
3.88595e-05
2.68141e-05
4.1991e-05
2.75692e-05
4.53727e-05
2.83871e-05
4.89907e-05
2.92748e-05
5.28858e-05
3.02348e-05
5.71365e-05
3.12735e-05
6.17244e-05
3.24016e-05
6.6587e-05
3.36243e-05
7.18717e-05
3.4947e-05
7.76252e-05
3.63823e-05
8.37296e-05
3.79393e-05
9.03233e-05
3.96224e-05
9.75226e-05
4.14521e-05
0.00010509
4.34312e-05
0.0001134
4.5576e-05
0.000122273
4.79001e-05
0.000131798
5.04141e-05
0.000142114
5.31383e-05
0.000153083
5.60826e-05
0.00016499
5.92694e-05
0.000177638
6.27114e-05
0.000191299
6.64301e-05
0.000205853
7.04436e-05
0.00022143
7.47709e-05
0.000238091
7.94379e-05
0.000255727
8.44605e-05
0.00027457
8.98622e-05
0.00029448
9.56657e-05
0.00031546
0.000101889
0.00033756
0.000108553
0.000360651
0.000115676
0.000384601
0.000123272
0.000409303
0.000131351
0.000434511
0.000139918
0.000459896
0.000148969
0.000485029
0.000158491
0.000509346
0.000168457
0.000532113
0.000178821
0.000552385
0.000189512
0.000568964
0.000200438
0.000580342
0.000211467
0.000584656
0.000222412
0.000579618
0.000233044
0.000562465
0.000243068
0.000529923
0.00025211
0.000478199
0.0002597
0.000403056
0.000265272
0.00030001
0.000268144
0.000165432
2.55238e-06
0.00026752
2.11176e-05
1.75905e-05
-2.08348e-05
2.14268e-05
1.90164e-05
2.17614e-05
2.05554e-05
2.21236e-05
2.22188e-05
2.25158e-05
2.4016e-05
2.29401e-05
2.59571e-05
2.33995e-05
2.8053e-05
2.38972e-05
3.03153e-05
2.44363e-05
3.27446e-05
2.5021e-05
3.53743e-05
2.56531e-05
3.82258e-05
2.6338e-05
4.13055e-05
2.70779e-05
4.46311e-05
2.78814e-05
4.81867e-05
2.87515e-05
5.20138e-05
2.96942e-05
5.61933e-05
3.07126e-05
6.0704e-05
3.18199e-05
6.54788e-05
3.30192e-05
7.06705e-05
3.43174e-05
7.63261e-05
3.57256e-05
8.23196e-05
3.72537e-05
8.87941e-05
3.89054e-05
9.58692e-05
4.07011e-05
0.000103293
4.26436e-05
0.000111456
4.47486e-05
0.000120167
4.70296e-05
0.000129516
4.94971e-05
0.000139645
5.21712e-05
0.000150407
5.50609e-05
0.000162099
5.81894e-05
0.000174508
6.1568e-05
0.000187919
6.52184e-05
0.000202201
6.91587e-05
0.000217489
7.34071e-05
0.000233841
7.79892e-05
0.000251143
8.29206e-05
0.000269638
8.82244e-05
0.000289175
9.39232e-05
0.00030976
0.000100035
0.000331448
0.000106579
0.000354106
0.000113574
0.000377604
0.000121034
0.000401841
0.000128969
0.000426574
0.000137383
0.000451478
0.000146273
0.000476134
0.000155627
0.000499989
0.000165415
0.00052232
0.000175595
0.000542201
0.000186096
0.000558457
0.000196828
0.000569608
0.000207661
0.000573827
0.000218411
0.000568863
0.000228854
0.00055201
0.000238699
0.000520065
0.000247581
0.000469311
0.000255037
0.0003956
0.000260508
0.000294547
0.000263325
0.000162638
3.22428e-06
0.000262703
2.07436e-05
1.73063e-05
-2.04693e-05
2.10465e-05
1.87091e-05
2.13748e-05
2.02232e-05
2.17306e-05
2.18597e-05
2.21157e-05
2.36277e-05
2.2533e-05
2.55373e-05
2.29845e-05
2.7599e-05
2.34734e-05
2.98241e-05
2.4003e-05
3.22126e-05
2.45766e-05
3.47983e-05
2.51973e-05
3.76029e-05
2.58686e-05
4.06316e-05
2.65953e-05
4.39023e-05
2.73829e-05
4.73968e-05
2.82375e-05
5.11573e-05
2.91619e-05
5.52669e-05
3.01621e-05
5.97021e-05
3.12484e-05
6.43909e-05
3.24259e-05
6.94914e-05
3.36998e-05
7.50509e-05
3.50821e-05
8.09357e-05
3.65817e-05
8.72933e-05
3.82028e-05
9.42465e-05
3.99652e-05
0.000101529
4.18716e-05
0.000109548
4.39376e-05
0.0001181
4.61764e-05
0.000127276
4.85984e-05
0.000137222
5.1223e-05
0.000147782
5.40598e-05
0.000159261
5.71303e-05
0.000171437
6.04471e-05
0.000184601
6.40308e-05
0.000198616
6.78989e-05
0.000213619
7.20699e-05
0.000229669
7.65686e-05
0.000246643
8.14104e-05
0.000264795
8.66181e-05
0.000283966
9.22139e-05
0.000304164
9.82151e-05
0.000325446
0.000104641
0.00034768
0.000111511
0.000370734
0.000118838
0.000394515
0.000126631
0.000418781
0.000134895
0.000443215
0.000143627
0.000467403
0.000152814
0.000490802
0.000162429
0.000512704
0.000172428
0.0005322
0.000182743
0.000548137
0.000193284
0.000559061
0.000203923
0.00056318
0.000214482
0.000558293
0.000224739
0.000541743
0.00023441
0.000510387
0.000243135
0.000460583
0.000250458
0.000388271
0.000255832
0.000289165
0.000258594
0.000159861
3.80956e-06
0.000257976
2.03823e-05
1.70288e-05
-2.01073e-05
2.06811e-05
1.84092e-05
2.10038e-05
1.98989e-05
2.13534e-05
2.15089e-05
2.17309e-05
2.32483e-05
2.21401e-05
2.51269e-05
2.25821e-05
2.71549e-05
2.30616e-05
2.93436e-05
2.35802e-05
3.16919e-05
2.41435e-05
3.42345e-05
2.47515e-05
3.69928e-05
2.54112e-05
3.99716e-05
2.61231e-05
4.31881e-05
2.68971e-05
4.66226e-05
2.77346e-05
5.03175e-05
2.86425e-05
5.43584e-05
2.96231e-05
5.87192e-05
3.06897e-05
6.33234e-05
3.18446e-05
6.83343e-05
3.30949e-05
7.37995e-05
3.44513e-05
7.95775e-05
3.59231e-05
8.58203e-05
3.75141e-05
9.26539e-05
3.92438e-05
9.97982e-05
4.11149e-05
0.000107675
4.31427e-05
0.000116071
4.53402e-05
0.000125077
4.77173e-05
0.000134844
5.02937e-05
0.000145204
5.3078e-05
0.000156476
5.60924e-05
0.000168422
5.93482e-05
0.000181344
6.2866e-05
0.000195097
6.66638e-05
0.00020982
7.07586e-05
0.000225573
7.51754e-05
0.000242226
7.99293e-05
0.000260041
8.50426e-05
0.000278852
9.05372e-05
0.000298669
9.64302e-05
0.000319553
0.000102741
0.000341369
0.000109487
0.000363987
0.000116683
0.000387318
0.000124336
0.000411126
0.000132453
0.000435096
0.00014103
0.000458824
0.000150054
0.000481775
0.000159497
0.000503257
0.000169319
0.000522376
0.00017945
0.000538001
0.000189804
0.000548706
0.000200254
0.000552733
0.000210625
0.000547916
0.0002207
0.000531655
0.0002302
0.000500875
0.00023877
0.000452007
0.000245964
0.000381077
0.000251241
0.000283896
0.000253951
0.000157175
4.47889e-06
0.000253337
2.00219e-05
1.67545e-05
-1.97602e-05
2.03128e-05
1.81127e-05
2.06286e-05
1.95783e-05
2.09707e-05
2.11623e-05
2.13417e-05
2.28737e-05
2.17432e-05
2.47218e-05
2.21785e-05
2.67169e-05
2.26491e-05
2.88698e-05
2.31599e-05
3.11789e-05
2.37122e-05
3.36792e-05
2.43107e-05
3.63924e-05
2.49572e-05
3.93222e-05
2.56578e-05
4.24859e-05
2.64163e-05
4.58615e-05
2.724e-05
4.94924e-05
2.81303e-05
5.3466e-05
2.9094e-05
5.77542e-05
3.01403e-05
6.22755e-05
3.12746e-05
6.71987e-05
3.25015e-05
7.25713e-05
3.3833e-05
7.82446e-05