/*--------------------------------*- C++ -*----------------------------------*\
  =========                 |
  \\      /  F ield         | OpenFOAM: The Open Source CFD Toolbox
   \\    /   O peration     | Website:  https://openfoam.org
    \\  /    A nd           | Version:  6.0
     \\/     M anipulation  |
\*---------------------------------------------------------------------------*/
FoamFile
{
    version     2.0;
    format      ascii;
    class       volScalarField;
    location    "15";
    object      p;
}
// * * * * * * * * * * * * * * * * * * * * * * * * * * * * * * * * * * * * * //

dimensions      [0 2 -2 0 0 0 0];

internalField   nonuniform List<scalar> 
62000
(
0.0301728
0.0303869
0.0306022
0.0308168
0.0310361
0.0312556
0.0314823
0.0317115
0.0319504
0.0321935
0.032449
0.0327113
0.0329892
0.0332767
0.033584
0.0339048
0.0342508
0.0346157
0.0350124
0.0354343
0.0358956
0.0363883
0.0369294
0.0375075
0.0381431
0.0388212
0.0395654
0.0403589
0.0412265
0.042153
0.0431664
0.0442585
0.0454407
0.0466868
0.0479754
0.0493134
0.0507175
0.0521914
0.0537278
0.0553064
0.056896
0.0584465
0.0598954
0.0611591
0.0621456
0.0627814
0.0629913
0.0628251
0.0622983
0.0615826
0.0607769
0.0598051
0.0590386
0.0577001
0.0563058
0.0541853
0.0527374
0.0504041
0.0513297
0.0560366
0.0299415
0.030183
0.0304269
0.0306717
0.030923
0.0311754
0.0314357
0.031698
0.03197
0.0322447
0.032531
0.0328221
0.0331274
0.0334397
0.0337699
0.0341108
0.0344742
0.0348534
0.035261
0.0356906
0.0361556
0.0366497
0.037187
0.0377609
0.0383857
0.0390546
0.0397813
0.0405606
0.041404
0.0423106
0.0432936
0.0443612
0.0455159
0.0467321
0.0479933
0.0493081
0.0506958
0.052166
0.0537151
0.0553291
0.0569812
0.0586281
0.0602135
0.06166
0.0628819
0.0638077
0.064365
0.0646053
0.0645425
0.0643613
0.0641587
0.0638597
0.0638657
0.0633068
0.0626969
0.061245
0.0606888
0.0591374
0.0625128
0.0663841
0.0296423
0.0298654
0.0300983
0.030338
0.0305891
0.0308465
0.0311151
0.0313894
0.0316753
0.0319655
0.0322685
0.0325756
0.032898
0.0332254
0.0335721
0.0339265
0.0343053
0.0346968
0.0351186
0.0355599
0.0360378
0.0365428
0.0370912
0.0376747
0.0383084
0.0389855
0.0397187
0.0405051
0.0413528
0.0422652
0.0432509
0.0443232
0.0454797
0.0466999
0.0479641
0.0492839
0.050679
0.0521592
0.0537229
0.0553559
0.0570309
0.0587039
0.0603169
0.0617898
0.0630314
0.0639619
0.0644984
0.0646812
0.0645132
0.0641761
0.0637647
0.0631967
0.0628782
0.0618531
0.0606025
0.0582208
0.0566888
0.0542379
0.0566942
0.0566027
0.0295589
0.0297741
0.0299963
0.0302247
0.030463
0.0307081
0.0309648
0.0312282
0.0315045
0.0317869
0.0320837
0.0323872
0.0327074
0.0330357
0.0333844
0.0337445
0.03413
0.0345314
0.034964
0.0354177
0.0359086
0.0364268
0.0369884
0.0375844
0.0382299
0.0389175
0.03966
0.0404545
0.0413093
0.042228
0.0432186
0.0442945
0.0454557
0.0466764
0.0479459
0.0492732
0.050679
0.0521757
0.0537625
0.0554258
0.0571388
0.0588588
0.0605281
0.0620651
0.0633764
0.064376
0.0649746
0.0652075
0.0650757
0.0647756
0.0644155
0.0639535
0.0638135
0.0630303
0.0619479
0.0595714
0.0578391
0.0551693
0.0567583
0.0557184
0.029806
0.0300177
0.030231
0.0304447
0.0306639
0.0308841
0.0311124
0.0313437
0.0315863
0.0318333
0.0320957
0.0323645
0.0326535
0.0329513
0.0332753
0.0336119
0.033981
0.0343682
0.0347941
0.0352443
0.0357386
0.0362634
0.0368365
0.037446
0.0381075
0.0388114
0.0395701
0.0403796
0.0412478
0.042179
0.0431802
0.0442664
0.0454326
0.046661
0.0479346
0.0492695
0.0506888
0.052207
0.0538247
0.0555291
0.0572953
0.0590827
0.0608352
0.062472
0.0638979
0.0650232
0.065754
0.0661228
0.0661376
0.0660151
0.0659039
0.0658285
0.0662793
0.0663199
0.066203
0.0647776
0.063772
0.0616017
0.0631673
0.0621284
0.0302243
0.0303994
0.0305779
0.0307589
0.0309464
0.0311356
0.0313325
0.0315316
0.0317408
0.0319531
0.0321792
0.0324116
0.0326633
0.0329258
0.0332143
0.0335196
0.033859
0.0342218
0.0346263
0.0350608
0.0355437
0.0360623
0.0366343
0.0372473
0.0379169
0.0386325
0.0394059
0.0402317
0.0411175
0.0420668
0.0430873
0.0441918
0.045379
0.0466214
0.0479116
0.0492635
0.0507048
0.0522518
0.0539052
0.0556523
0.0574692
0.0593165
0.0611377
0.0628493
0.0643504
0.0655401
0.0663112
0.0666811
0.0666513
0.0664521
0.0662622
0.0662018
0.0668587
0.0674205
0.068069
0.0676011
0.0674589
0.0660293
0.0680279
0.0664666
0.0306238
0.0307367
0.0308646
0.0310043
0.0311597
0.0313249
0.0315041
0.0316912
0.0318915
0.0320976
0.032318
0.0325438
0.0327878
0.0330385
0.0333136
0.0336001
0.0339193
0.0342573
0.0346369
0.0350444
0.0355021
0.0359963
0.0365476
0.0371431
0.0377999
0.0385072
0.0392771
0.0401035
0.0409936
0.0419511
0.0429832
0.0441046
0.0453079
0.0465735
0.0478845
0.0492615
0.0507329
0.0523152
0.0540081
0.0557988
0.0576646
0.0595661
0.0614457
0.0632153
0.0647641
0.0659752
0.0667176
0.0669801
0.0667403
0.0662184
0.0656109
0.0651146
0.0654377
0.0659106
0.0667694
0.0668226
0.0673523
0.0667345
0.0694182
0.0676537
0.0307087
0.030764
0.0308431
0.0309436
0.0310696
0.0312164
0.0313875
0.0315767
0.0317881
0.0320132
0.0322584
0.0325141
0.0327891
0.0330726
0.0333771
0.0336915
0.0340318
0.0343866
0.0347747
0.0351847
0.0356371
0.0361204
0.0366554
0.0372313
0.0378667
0.0385521
0.0393014
0.040109
0.0409829
0.0419272
0.042951
0.0440682
0.0452777
0.0465501
0.0478785
0.0492789
0.0507814
0.0524022
0.0541411
0.0559874
0.0579217
0.059908
0.0618894
0.0637757
0.0654479
0.0667721
0.0675899
0.067851
0.067492
0.0667022
0.0656609
0.0646228
0.064382
0.0644515
0.0651247
0.0653604
0.0663322
0.066544
0.0699856
0.0690048
0.0304632
0.0304915
0.0305491
0.0306317
0.030746
0.0308861
0.0310579
0.0312544
0.0314815
0.0317296
0.0320065
0.0322997
0.0326199
0.0329512
0.0333083
0.0336736
0.0340658
0.0344667
0.0348974
0.0353415
0.0358214
0.0363224
0.0368669
0.0374432
0.0380716
0.0387433
0.0394737
0.0402584
0.0411065
0.0420241
0.0430217
0.0441182
0.0453095
0.0465781
0.0479088
0.0493243
0.0508539
0.0525142
0.0543071
0.0562276
0.0582636
0.0603858
0.0625437
0.0646502
0.0665843
0.0682011
0.069319
0.069849
0.06968
0.0689514
0.0678053
0.0665039
0.0658948
0.065617
0.066057
0.0663292
0.0675839
0.068492
0.0725885
0.0729981
0.0299644
0.0299906
0.0300446
0.0301233
0.0302338
0.0303717
0.0305439
0.0307445
0.0309804
0.0312432
0.0315409
0.0318629
0.0322182
0.0325934
0.0329997
0.0334219
0.0338737
0.0343384
0.0348318
0.0353376
0.0358738
0.0364249
0.0370109
0.0376189
0.0382688
0.0389517
0.0396834
0.04046
0.041292
0.0421863
0.043157
0.0442242
0.045394
0.0466431
0.0479694
0.0493924
0.0509444
0.0526445
0.0544997
0.056514
0.0586858
0.060997
0.0634074
0.0658392
0.0681766
0.0702717
0.0719276
0.0730219
0.0733954
0.0731307
0.072307
0.0711662
0.0705476
0.0701911
0.0705121
0.0708039
0.0721621
0.0734982
0.0779425
0.0795787
0.0293609
0.0294036
0.0294719
0.0295623
0.0296819
0.0298268
0.0300039
0.0302089
0.030449
0.0307175
0.0310235
0.0313571
0.0317297
0.0321266
0.0325624
0.0330189
0.0335131
0.0340245
0.034571
0.0351322
0.0357267
0.0363351
0.0369764
0.0376347
0.0383283
0.0390466
0.0398042
0.0405965
0.0414332
0.0423225
0.0432794
0.0443296
0.0454779
0.0467155
0.0480351
0.0494647
0.0510384
0.0527796
0.0547022
0.0568208
0.059146
0.0616722
0.0643721
0.0671815
0.0699956
0.0726721
0.0750087
0.07686
0.0780274
0.0785355
0.0783975
0.0778004
0.0775451
0.0773976
0.0777867
0.0781187
0.0794431
0.080889
0.0853468
0.0875496
0.0287183
0.028783
0.0288692
0.0289745
0.0291056
0.0292595
0.0294433
0.0296529
0.0298962
0.030167
0.0304748
0.0308115
0.0311877
0.0315924
0.0320381
0.0325112
0.0330259
0.0335657
0.0341455
0.0347473
0.0353867
0.0360445
0.0367375
0.0374482
0.0381926
0.0389585
0.0397582
0.0405853
0.0414484
0.0423542
0.0433192
0.0443688
0.0455174
0.0467503
0.0480744
0.0495164
0.051115
0.0528991
0.0548906
0.0571148
0.0595939
0.0623343
0.0653222
0.0685081
0.0718021
0.0750729
0.0781212
0.0807894
0.0828488
0.084275
0.0850109
0.085185
0.0855193
0.0857913
0.0863778
0.0867811
0.0879493
0.089251
0.0934192
0.0954592
0.0280573
0.0281523
0.0282678
0.0283988
0.0285532
0.0287257
0.0289247
0.0291448
0.0293953
0.0296692
0.0299779
0.0303121
0.0306859
0.0310856
0.0315289
0.0319989
0.0325153
0.0330585
0.0336482
0.0342644
0.0349256
0.0356108
0.0363378
0.0370873
0.0378747
0.0386855
0.0395304
0.0404008
0.0413029
0.0422422
0.0432335
0.0443051
0.0454673
0.046718
0.0480581
0.0495225
0.0511521
0.052981
0.0550382
0.0573579
0.0599719
0.0628964
0.066129
0.069635
0.0733401
0.0771284
0.0808109
0.0842279
0.0871343
0.089467
0.0911124
0.0921315
0.0931693
0.093969
0.0948523
0.0953602
0.0963431
0.0973653
0.101093
0.102446
0.0273912
0.027515
0.0276562
0.0278107
0.0279858
0.0281764
0.0283908
0.0286234
0.0288834
0.0291636
0.0294753
0.0298099
0.0301806
0.0305764
0.0310128
0.0314771
0.0319866
0.0325257
0.0331126
0.0337303
0.0343967
0.0350926
0.0358357
0.0366075
0.0374229
0.0382671
0.0391498
0.0400607
0.0410045
0.0419842
0.0430141
0.0441192
0.0453163
0.0465946
0.047966
0.0494627
0.0511291
0.0530034
0.0551202
0.0575202
0.060242
0.0633086
0.0667268
0.0704745
0.0744929
0.0786824
0.0828686
0.0868981
0.0905191
0.0936439
0.0961105
0.0979278
0.0996529
0.101004
0.102219
0.102869
0.103679
0.104407
0.107645
0.108069
0.0267321
0.0268853
0.0270553
0.0272365
0.0274363
0.0276489
0.0278819
0.0281301
0.0284019
0.0286907
0.0290075
0.0293436
0.0297134
0.0301041
0.0305344
0.0309885
0.0314879
0.0320144
0.0325901
0.0331965
0.0338549
0.0345457
0.0352887
0.0360658
0.0368929
0.0377556
0.0386631
0.039605
0.0405843
0.0416033
0.0426735
0.0438213
0.0450564
0.0463772
0.0477872
0.0493236
0.0510308
0.0529492
0.0551167
0.0575774
0.0603737
0.0635322
0.0670662
0.070964
0.0751807
0.0796338
0.0841664
0.0886373
0.0927988
0.0965493
0.0996974
0.102205
0.10456
0.106439
0.108012
0.108855
0.10958
0.110093
0.112913
0.11241
0.0260812
0.0262586
0.0264504
0.0266523
0.0268712
0.0271019
0.0273518
0.0276154
0.027901
0.0282012
0.0285268
0.028869
0.0292412
0.0296323
0.0300584
0.0305071
0.0309972
0.0315139
0.0320771
0.0326713
0.0333168
0.0339964
0.0347303
0.0355019
0.0363281
0.0371957
0.0381149
0.0390753
0.0400802
0.0411305
0.0422378
0.0434241
0.0447042
0.0460655
0.0475196
0.0490985
0.0508469
0.052806
0.0550148
0.0575183
0.06036
0.0635681
0.0671596
0.0711313
0.0754504
0.0800499
0.0847912
0.089549
0.0940855
0.0982958
0.101968
0.105035
0.10792
0.110279
0.112207
0.11329
0.114022
0.114443
0.116945
0.115667
0.0254032
0.0256084
0.0258289
0.0260575
0.0263025
0.0265567
0.0268281
0.0271101
0.0274118
0.0277247
0.0280608
0.0284098
0.0287868
0.0291783
0.0296035
0.0300463
0.0305294
0.0310347
0.0315857
0.032165
0.0327955
0.0334593
0.0341788
0.0349377
0.0357547
0.0366174
0.0375373
0.0385052
0.0395242
0.0405963
0.0417311
0.0429526
0.0442677
0.0456718
0.0471664
0.0487862
0.0505734
0.0525681
0.0548081
0.0573375
0.0601986
0.0634191
0.0670185
0.0709997
0.0753402
0.0799878
0.084822
0.0897355
0.0945052
0.0990301
0.103092
0.106602
0.109936
0.11273
0.115023
0.1164
0.117256
0.117725
0.120054
0.118222
0.0247093
0.0249379
0.0251798
0.0254294
0.0256942
0.0259673
0.0262574
0.0265568
0.026875
0.0272026
0.0275516
0.0279114
0.0282962
0.0286938
0.0291213
0.029565
0.030045
0.0305458
0.0310889
0.0316588
0.0322773
0.0329281
0.0336334
0.0343783
0.0351824
0.0360348
0.0369482
0.0379146
0.0389385
0.0400218
0.0411755
0.0424201
0.0437678
0.045203
0.0467341
0.0483894
0.05021
0.0522337
0.0544965
0.0570398
0.0599036
0.0631145
0.0666926
0.0706462
0.0749612
0.0795981
0.0844533
0.0894373
0.0943439
0.0990801
0.103426
0.107284
0.11099
0.114175
0.116827
0.118538
0.119601
0.120236
0.122504
0.120339
0.0239928
0.0242448
0.0245106
0.0247831
0.0250699
0.025364
0.0256729
0.02599
0.0263237
0.0266657
0.0270271
0.0273974
0.0277916
0.0281954
0.0286283
0.0290733
0.0295537
0.0300508
0.0305888
0.0311501
0.0317587
0.0323972
0.0330894
0.0338203
0.0346106
0.0354503
0.0363531
0.0373125
0.0383338
0.0394204
0.0405828
0.041844
0.0432096
0.0446719
0.0462295
0.0479132
0.0497602
0.0518062
0.054084
0.0566314
0.0594859
0.0626719
0.06621
0.0701124
0.0743724
0.0789617
0.0837922
0.0887919
0.0937718
0.0986494
0.103212
0.107356
0.111391
0.114942
0.117963
0.120045
0.121399
0.122299
0.124621
0.12232
0.0232556
0.0235252
0.0238069
0.0240951
0.0243973
0.0247069
0.0250319
0.0253648
0.0257148
0.0260721
0.0264482
0.0268319
0.0272375
0.0276516
0.0280917
0.0285429
0.0290261
0.0295248
0.0300612
0.0306193
0.0312218
0.0318525
0.0325346
0.0332539
0.0340316
0.0348586
0.0357494
0.0366987
0.037713
0.0387962
0.0399608
0.0412272
0.0426069
0.0440823
0.0456594
0.0473628
0.0492288
0.0512904
0.0535774
0.0561244
0.0589658
0.0621243
0.0656209
0.0694709
0.0736736
0.0782101
0.0830062
0.0880052
0.0930345
0.0980226
0.102763
0.107156
0.111482
0.115377
0.118763
0.121234
0.122917
0.124142
0.126586
0.124295
0.0224615
0.0227527
0.0230575
0.0233675
0.0236917
0.0240213
0.0243652
0.0247154
0.0250812
0.0254528
0.0258422
0.0262374
0.0266541
0.0270767
0.0275253
0.0279816
0.0284695
0.0289694
0.0295062
0.0300616
0.0306602
0.0312845
0.0319588
0.0326687
0.0334356
0.0342511
0.03513
0.0360682
0.0370725
0.0381488
0.0393089
0.0405766
0.0419573
0.0434422
0.0450286
0.0467439
0.0486218
0.0506932
0.0529845
0.0555278
0.0583547
0.0614863
0.064944
0.0687457
0.0728961
0.0773846
0.0821488
0.0871459
0.0922184
0.0973049
0.102212
0.106837
0.111446
0.11568
0.119439
0.122316
0.124368
0.12596
0.128592
0.12642
0.0216225
0.0219308
0.0222513
0.022577
0.0229166
0.0232616
0.0236217
0.0239876
0.0243698
0.0247569
0.0251615
0.025571
0.0260007
0.0264356
0.0268941
0.0273601
0.0278549
0.0283613
0.0289016
0.0294594
0.0300577
0.0306798
0.0313497
0.0320531
0.0328118
0.0336176
0.0344858
0.0354128
0.0364066
0.0374731
0.0386262
0.0398871
0.041268
0.0427508
0.0443409
0.0460609
0.0479443
0.0500204
0.0523134
0.0548532
0.0576699
0.060783
0.0642148
0.0679855
0.0721045
0.0765677
0.0813235
0.0863398
0.0914726
0.0966689
0.101744
0.1066
0.111482
0.116047
0.120174
0.123455
0.125878
0.127849
0.130694
0.128702
0.0207401
0.021066
0.0214051
0.0217487
0.0221058
0.0224677
0.0228432
0.0232243
0.0236201
0.0240207
0.0244381
0.0248597
0.0253016
0.0257471
0.0262168
0.0266911
0.0271946
0.0277063
0.0282517
0.0288116
0.0294112
0.0300321
0.0306994
0.0313982
0.0321506
0.0329486
0.0338076
0.0347245
0.0357073
0.0367636
0.0379062
0.0391601
0.0405315
0.0420116
0.0435981
0.0453172
0.0472013
0.0492785
0.0515708
0.0541075
0.0569173
0.0600194
0.0634364
0.0671913
0.0712969
0.0757559
0.0805246
0.0855816
0.0907929
0.0961134
0.10137
0.106464
0.111628
0.116529
0.121031
0.124719
0.127525
0.129883
0.132975
0.131202
0.0198195
0.0201573
0.0205066
0.020861
0.0212288
0.0216021
0.0219903
0.0223842
0.0227943
0.0232088
0.0236406
0.0240761
0.0245311
0.0249894
0.0254701
0.0259554
0.0264678
0.0269881
0.0275401
0.0281056
0.0287086
0.0293314
0.0299985
0.0306952
0.0314436
0.0322358
0.0330872
0.033995
0.0349679
0.0360132
0.0371456
0.0383875
0.0397515
0.0412208
0.042801
0.0445148
0.0463956
0.0484713
0.0507625
0.0532984
0.0561083
0.0592107
0.0626296
0.06639
0.0705084
0.0749924
0.0798063
0.0849354
0.0902552
0.0957251
0.10118
0.106525
0.111972
0.117208
0.122078
0.12616
0.129333
0.132068
0.13541
0.133865
0.0188315
0.0191855
0.0195532
0.0199244
0.0203096
0.0206986
0.0211015
0.0215089
0.0219313
0.0223574
0.0228002
0.023246
0.0237117
0.0241795
0.0246705
0.0251642
0.0256856
0.0262128
0.0267716
0.0273419
0.027949
0.0285742
0.0292423
0.0299384
0.0306843
0.0314723
0.0323177
0.033218
0.0341814
0.0352167
0.0363375
0.0375692
0.0389193
0.0403794
0.0419491
0.0436547
0.0455298
0.0476024
0.0498916
0.0524283
0.0552427
0.0583533
0.0617852
0.065566
0.069715
0.0742453
0.0791263
0.0843513
0.0898008
0.0954399
0.101112
0.10672
0.112465
0.118044
0.123288
0.127764
0.131307
0.134416
0.138026
0.136715
0.0177819
0.018148
0.0185263
0.0189087
0.019305
0.0197053
0.0201208
0.0205407
0.0209768
0.0214159
0.0218723
0.0223311
0.0228093
0.0232895
0.0237916
0.0242969
0.0248282
0.0253656
0.0259328
0.0265111
0.0271243
0.0277543
0.0284254
0.0291227
0.0298679
0.0306532
0.0314939
0.0323877
0.0333431
0.0343684
0.0354788
0.0366971
0.0380369
0.0394826
0.0410413
0.0427365
0.0446038
0.0466718
0.04896
0.0515007
0.0543265
0.0574548
0.0609149
0.0647331
0.0689362
0.0735362
0.0785146
0.0838617
0.0894707
0.0953018
0.101208
0.107097
0.113144
0.119065
0.124676
0.129532
0.133425
0.136893
0.140768
0.139678
0.016678
0.017057
0.0174495
0.0178455
0.0182553
0.0186687
0.019096
0.0195276
0.0199743
0.0204242
0.0208912
0.0213604
0.0218499
0.0223403
0.0228541
0.0233687
0.0239108
0.0244565
0.0250325
0.0256174
0.026237
0.0268716
0.0275463
0.0282454
0.0289908
0.0297746
0.0306118
0.0315003
0.0324483
0.0334648
0.034564
0.0357715
0.0370961
0.0385304
0.0400754
0.0417595
0.0436179
0.0456809
0.0479678
0.0505148
0.0533545
0.0565069
0.0600018
0.0638687
0.0681371
0.0728231
0.0779133
0.0834012
0.0891851
0.0952244
0.101379
0.107559
0.113924
0.120198
0.126183
0.13142
0.135667
0.139493
0.143644
0.142772
0.0155157
0.0159021
0.0163009
0.0167039
0.0171212
0.0175431
0.0179807
0.0184231
0.0188824
0.0193448
0.0198251
0.0203073
0.0208096
0.0213126
0.0218379
0.0223645
0.0229171
0.0234736
0.024059
0.024653
0.0252803
0.0259214
0.026601
0.0273034
0.0280504
0.0288338
0.0296686
0.0305526
0.0314942
0.0325021
0.0335915
0.0347857
0.0360993
0.0375177
0.0390499
0.0407219
0.0425706
0.0446286
0.046915
0.0494712
0.0523294
0.0555135
0.0590532
0.0629817
0.0673314
0.0721206
0.0773446
0.0829926
0.0889745
0.0952388
0.101658
0.108144
0.114832
0.121459
0.127811
0.133418
0.138003
0.142174
0.146599
0.145924
0.0142799
0.0146789
0.0150928
0.0155097
0.0159418
0.0163768
0.0168267
0.0172804
0.01775
0.0182221
0.0187119
0.0192032
0.0197153
0.0202274
0.0207632
0.0212987
0.0218616
0.0224266
0.0230213
0.0236229
0.0242579
0.0249051
0.0255902
0.0262964
0.0270457
0.0278296
0.0286628
0.0295432
0.0304788
0.0314789
0.0325577
0.0337414
0.0350393
0.0364448
0.0379627
0.0396214
0.0414617
0.0435137
0.0458012
0.0483658
0.0512452
0.0544627
0.0580516
0.0620463
0.0664839
0.0713853
0.0767509
0.082571
0.0887597
0.0952612
0.101953
0.108752
0.115778
0.12277
0.129498
0.13548
0.140411
0.144932
0.149639
0.149159
0.0129699
0.0133775
0.0137991
0.0142246
0.0146657
0.0151104
0.0155718
0.0160369
0.0165196
0.0170043
0.0175074
0.0180116
0.0185362
0.019061
0.0196082
0.0201559
0.0207297
0.0213064
0.0219113
0.0225231
0.0231669
0.0238221
0.0245135
0.0252246
0.0259768
0.0267618
0.027594
0.0284713
0.0294015
0.0303937
0.0314633
0.0326335
0.0339194
0.0353082
0.0368122
0.0384579
0.0402881
0.0423352
0.0446238
0.0471992
0.0501022
0.0533582
0.0570022
0.0610716
0.0656072
0.070632
0.0761544
0.0821593
0.0885719
0.0953222
0.102299
0.109427
0.116796
0.124152
0.131252
0.1376
0.142867
0.147728
0.152716
0.152411
0.0116089
0.0120264
0.0124597
0.0128965
0.0133492
0.0138053
0.014277
0.0147527
0.0152449
0.0157396
0.0162528
0.016767
0.017303
0.0178379
0.0183974
0.018955
0.0195405
0.0201264
0.0207416
0.0213617
0.0220139
0.022676
0.0233737
0.0240895
0.0248449
0.0256314
0.026463
0.0273374
0.0282623
0.0292473
0.0303064
0.0314656
0.0327347
0.0341111
0.0355978
0.0372307
0.0390498
0.0410926
0.0433813
0.0459679
0.0488937
0.0521889
0.0558881
0.0600343
0.0646693
0.0698222
0.0755036
0.081701
0.0883419
0.0953508
0.10262
0.110082
0.117805
0.125536
0.133018
0.139742
0.145355
0.150565
0.155841
0.155713
0.0101989
0.0106207
0.0110572
0.0114984
0.0119563
0.012419
0.0128996
0.0133848
0.013889
0.0143955
0.0149217
0.0154485
0.015997
0.0165446
0.0171154
0.0176852
0.0182815
0.0188788
0.0195043
0.0201346
0.020796
0.0214663
0.022171
0.0228923
0.0236516
0.0244399
0.0252711
0.0261429
0.027063
0.0280404
0.0290901
0.0302352
0.0314933
0.03285
0.0343222
0.0359387
0.0377471
0.0397835
0.0420737
0.0446708
0.0476221
0.0509578
0.0547169
0.0589432
0.0636855
0.0689722
0.0748242
0.0812215
0.0881043
0.0953805
0.102954
0.110763
0.118848
0.126954
0.134815
0.141908
0.147858
0.153411
0.158972
0.159003
0.00872113
0.00915341
0.00960373
0.0100576
0.0105295
0.0110044
0.0114965
0.011992
0.0125055
0.0130207
0.0135555
0.0140905
0.0146483
0.0152042
0.0157853
0.0163636
0.0169703
0.0175764
0.0182117
0.0188504
0.0195206
0.0201984
0.0209101
0.0216368
0.0224
0.0231904
0.0240214
0.0248909
0.025806
0.0267762
0.0278152
0.0289495
0.0301893
0.0315313
0.0329839
0.0345835
0.0363796
0.0384092
0.0406995
0.043306
0.0462811
0.0496561
0.0534734
0.0577795
0.0626281
0.0680502
0.0740727
0.0806744
0.0878024
0.0953549
0.103239
0.111399
0.119854
0.128345
0.136595
0.144068
0.15037
0.156276
0.162128
0.162326
0.00720467
0.00764249
0.00809743
0.00855674
0.00903455
0.00951605
0.0100168
0.0105211
0.0110452
0.0115705
0.0121164
0.0126623
0.0132305
0.0137977
0.0143888
0.0149788
0.0155958
0.0162137
0.0168595
0.0175093
0.0181893
0.0188761
0.0195952
0.0203279
0.0210949
0.0218873
0.0227177
0.0235844
0.0244944
0.0254565
0.0264856
0.0276046
0.0288304
0.0301511
0.0315841
0.033166
0.0349475
0.0369695
0.0392583
0.0418745
0.044873
0.0482887
0.0521656
0.0565547
0.0615134
0.0670762
0.073276
0.0800891
0.087472
0.0953098
0.103517
0.11204
0.120872
0.129748
0.138384
0.146231
0.152877
0.159131
0.165272
0.16562
0.00564984
0.00609364
0.00655623
0.00702299
0.00750828
0.00799739
0.00850439
0.00901577
0.00954599
0.0100789
0.0106326
0.0111873
0.0117663
0.0123436
0.0129476
0.0135484
0.0141787
0.0148071
0.0154649
0.0161242
0.0168139
0.0175084
0.0182343
0.0189718
0.0197418
0.0205351
0.0213641
0.0222271
0.0231306
0.0240841
0.0251004
0.0262062
0.0274113
0.0287134
0.0301245
0.0316868
0.0334528
0.0354649
0.037751
0.0403744
0.0433943
0.0468481
0.0507824
0.0552525
0.0603199
0.0660232
0.0723998
0.0794273
0.0870682
0.0951999
0.103738
0.112627
0.121841
0.131109
0.140143
0.148376
0.155379
0.161991
0.168425
0.168934
0.0040097
0.00445216
0.00491283
0.00538103
0.0058692
0.00636512
0.00688185
0.00740568
0.00795104
0.00850012
0.00907142
0.00964394
0.0102404
0.0108352
0.0114551
0.0120722
0.0127167
0.0133594
0.0140294
0.0147001
0.0153993
0.0161017
0.0168333
0.0175746
0.018346
0.0191387
0.0199645
0.0208221
0.0217177
0.0226601
0.0236638
0.024751
0.0259393
0.027217
0.0286067
0.0301477
0.031896
0.0338962
0.0361778
0.0388074
0.0418481
0.04534
0.0493327
0.053886
0.059065
0.0649131
0.0714719
0.0787203
0.0866271
0.0950621
0.103941
0.113209
0.122811
0.132472
0.1419
0.150512
0.157865
0.164828
0.171554
0.17221
0.00219578
0.00266517
0.0031618
0.00366609
0.00419302
0.00472309
0.00527284
0.00582217
0.00639172
0.00695837
0.00754808
0.00813201
0.00874261
0.00934591
0.00997759
0.0106017
0.011256
0.0119048
0.0125825
0.0132581
0.0139626
0.0146681
0.015402
0.0161437
0.0169138
0.0177031
0.0185234
0.0193731
0.0202583
0.0211881
0.0221753
0.0232457
0.02441
0.0256669
0.0270316
0.0285496
0.0302782
0.0322646
0.0345396
0.0371728
0.0402316
0.0437591
0.0478077
0.052442
0.0577312
0.0637235
0.0704643
0.0779357
0.0861118
0.0948579
0.104087
0.113733
0.123727
0.133788
0.14362
0.152622
0.160338
0.167663
0.174682
0.1755
0.00101303
0.00145449
0.00191111
0.00237462
0.00285871
0.00335257
0.00386963
0.00439504
0.00494474
0.00549932
0.00607866
0.00665911
0.00726539
0.00787016
0.00850134
0.00912963
0.00978612
0.0104399
0.0111207
0.0118
0.0125063
0.0132127
0.0139457
0.0146847
0.01545
0.0162327
0.017044
0.0178828
0.0187549
0.0196688
0.0206387
0.0216864
0.0228303
0.0240599
0.0253999
0.0268931
0.0285997
0.0305702
0.0328368
0.0354722
0.0385483
0.0421111
0.0462165
0.0509336
0.056336
0.0624765
0.0694044
0.077105
0.0855575
0.0946233
0.104211
0.114249
0.124641
0.135101
0.145331
0.154716
0.162785
0.170467
0.177778
0.178746
-0.00078492
-0.000310871
0.000189603
0.000697398
0.0012278
0.00176073
0.00231421
0.00286625
0.00344019
0.00400966
0.00460436
0.00519119
0.00580708
0.00641343
0.00705022
0.00767703
0.00833544
0.00898587
0.00966533
0.0103401
0.0110426
0.0117433
0.01247
0.0132013
0.0139574
0.0147295
0.0155282
0.0163525
0.0172078
0.0181034
0.0190514
0.0200779
0.021194
0.022399
0.0237111
0.0251779
0.0268611
0.0288136
0.0310696
0.0337049
0.0367958
0.0403915
0.0445515
0.0493497
0.0548643
0.0611525
0.068268
0.0761995
0.0849315
0.0943229
0.104276
0.114706
0.125497
0.136363
0.147003
0.15678
0.165216
0.173262
0.180866
0.182
-0.00189181
-0.00144459
-0.000982931
-0.000515573
-2.81103e-05
0.000467876
0.000986769
0.00151249
0.00206247
0.00261546
0.00319366
0.00377095
0.00437509
0.00497553
0.00560356
0.00622626
0.00687812
0.00752472
0.00819829
0.00886778
0.00956316
0.0102558
0.0109727
0.0116928
0.0124358
0.0131933
0.0139755
0.0147816
0.015617
0.0164903
0.0174154
0.0184144
0.0195058
0.0206804
0.0219645
0.0234035
0.0250613
0.026994
0.0292378
0.0318716
0.0349767
0.0386053
0.0428211
0.0477024
0.0533322
0.0597724
0.0670806
0.075249
0.0842669
0.0939912
0.104318
0.11515
0.126347
0.137619
0.14866
0.158821
0.167614
0.17602
0.183914
0.185209
-0.00366042
-0.00317741
-0.00266891
-0.00215436
-0.00161833
-0.00108147
-0.000525171
2.75702e-05
0.000601313
0.00116802
0.00175943
0.00234007
0.00294974
0.00354689
0.00417463
0.00478937
0.00543577
0.00607128
0.00673523
0.0073917
0.00807458
0.0087528
0.00945486
0.0101587
0.0108844
0.011623
0.0123849
0.0131691
0.0139809
0.0148292
0.0157268
0.0166991
0.0177586
0.0189047
0.0201583
0.0215682
0.0231993
0.0251107
0.0273405
0.029971
0.0330881
0.0367479
0.0410178
0.0459811
0.0517255
0.0583178
0.0658194
0.0742264
0.0835325
0.0935941
0.104299
0.115533
0.127138
0.138823
0.150276
0.160831
0.169991
0.178764
0.18695
0.188424
-0.0046053
-0.00414864
-0.00368069
-0.00321183
-0.00272602
-0.00223584
-0.0017253
-0.00121125
-0.000674533
-0.000137467
0.000424224
0.000982772
0.00156839
0.00214816
0.00275593
0.00335612
0.00398571
0.0046078
0.0052564
0.0058986
0.00656551
0.0072272
0.00791112
0.00859565
0.0093003
0.0100166
0.0107544
0.0115131
0.0122978
0.0131173
0.0139857
0.0149251
0.015955
0.0170674
0.0182899
0.0196695
0.0212726
0.0231613
0.0253759
0.0280022
0.0311309
0.0348226
0.0391481
0.0441958
0.0500585
0.0568074
0.0645078
0.0731592
0.0827591
0.0931638
0.104253
0.115899
0.127918
0.140015
0.151872
0.16281
0.172328
0.181466
0.189942
0.191595
-0.00609646
-0.00562774
-0.0051434
-0.00465876
-0.00415742
-0.00365622
-0.0031363
-0.00261837
-0.0020781
-0.00154299
-0.000981281
-0.000429288
0.000153304
0.000723117
0.00132419
0.00191088
0.00252902
0.00313427
0.00376689
0.0043897
0.00503724
0.00567759
0.00633946
0.00700057
0.00768052
0.00837079
0.00908104
0.00981068
0.0105648
0.0113526
0.012187
0.0130941
0.0140875
0.0151671
0.0163562
0.0177042
0.0192783
0.0211434
0.0233416
0.0259624
0.0291016
0.0328239
0.0372042
0.0423357
0.0483165
0.0552225
0.0631227
0.07202
0.0819155
0.0926663
0.104143
0.116198
0.128635
0.141151
0.153425
0.164755
0.174641
0.18415
0.192918
0.194769
-0.00752433
-0.00704748
-0.00655486
-0.0060637
-0.00555501
-0.00504857
-0.0045236
-0.00400354
-0.00346344
-0.00293125
-0.00237688
-0.00183294
-0.00126391
-0.000706643
-0.000123056
0.000448281
0.0010475
0.00163554
0.00224836
0.00285163
0.00347759
0.00409542
0.0047329
0.00536822
0.00602057
0.00668183
0.00736123
0.00805863
0.00877897
0.00953129
0.0103304
0.0111987
0.012157
0.0131992
0.0143538
0.0156688
0.0172126
0.019053
0.0212342
0.0238491
0.0269991
0.0307533
0.0351904
0.0404087
0.0465115
0.0535794
0.0616851
0.0708343
0.0810309
0.0921329
0.104001
0.116477
0.129336
0.14227
0.15495
0.166661
0.176907
0.186786
0.195848
0.1979
-0.00888916
-0.00841264
-0.0079234
-0.00743483
-0.00693296
-0.0064328
-0.00591764
-0.00540644
-0.00487662
-0.00435439
-0.00380907
-0.00327612
-0.00271573
-0.00217091
-0.00159773
-0.00104194
-0.000457387
0.000111168
0.000704345
0.00128449
0.00188658
0.00247823
0.00308836
0.00369462
0.00431644
0.00494558
0.00559133
0.00625339
0.00693676
0.00765108
0.00840998
0.00923994
0.0101567
0.0111612
0.0122789
0.0135595
0.0150721
0.016887
0.0190506
0.021659
0.0248192
0.0286049
0.0330985
0.0384034
0.0446285
0.0518593
0.0601718
0.0695746
0.0800735
0.0915291
0.103792
0.116684
0.129969
0.14333
0.156429
0.168532
0.179147
0.189403
0.19876
0.201033
-0.0101898
-0.00971868
-0.00923614
-0.00875708
-0.00826396
-0.00777441
-0.00726908
-0.00676952
-0.00625229
-0.00574402
-0.00521579
-0.00469946
-0.00416019
-0.00363477
-0.00308527
-0.00255073
-0.00199059
-0.00144468
-0.000876505
-0.000321106
0.000254258
0.000818216
0.00139876
0.00197394
0.00256277
0.00315741
0.00376665
0.00439073
0.00503446
0.00570743
0.00642506
0.00721061
0.00808672
0.00904914
0.0101281
0.0113724
0.0128524
0.0146412
0.0167866
0.0193884
0.0225597
0.0263787
0.0309311
0.036326
0.0426777
0.0500768
0.058602
0.0682648
0.0790718
0.0908859
0.103547
0.116866
0.13058
0.144366
0.157873
0.170357
0.181335
0.191968
0.201625
0.204126
-0.0115327
-0.0110671
-0.0105925
-0.0101214
-0.00964023
-0.00916312
-0.00867358
-0.00818988
-0.00768963
-0.00719856
-0.00668612
-0.00618752
-0.00566306
-0.00515579
-0.00462196
-0.00410761
-0.00356663
-0.00304418
-0.00249976
-0.00197131
-0.00142397
-0.000890206
-0.000341397
0.000200362
0.000753995
0.0013118
0.00188245
0.00246618
0.00306789
0.00369768
0.00436985
0.00511175
0.00594128
0.0068606
0.00789833
0.00910444
0.0105505
0.0123122
0.0144391
0.017034
0.0202164
0.0240686
0.0286799
0.0341651
0.0406445
0.0482129
0.0569531
0.0668774
0.0779939
0.090168
0.10323
0.116971
0.13112
0.145341
0.15927
0.172144
0.183493
0.194511
0.204472
0.207219
-0.0128991
-0.0124411
-0.0119744
-0.0115135
-0.0110412
-0.0105748
-0.0100951
-0.00962351
-0.00913643
-0.00866071
-0.00816683
-0.00768722
-0.00718614
-0.00670132
-0.00619386
-0.00570408
-0.00519046
-0.00469393
-0.00417757
-0.00367704
-0.00315956
-0.00265665
-0.00214074
-0.0016334
-0.00111629
-0.000596637
-6.62632e-05
0.000475573
0.00103364
0.00161778
0.00224425
0.00293697
0.00372055
0.00459306
0.00558704
0.00675273
0.00816297
0.00989638
0.0120039
0.0145923
0.0177867
0.021674
0.0263468
0.0319261
0.0385375
0.0462815
0.0552427
0.065436
0.076868
0.0894078
0.102874
0.117048
0.131634
0.146285
0.160626
0.173881
0.185596
0.197001
0.207272
0.210274
-0.0143346
-0.013885
-0.0134291
-0.012979
-0.0125212
-0.0120695
-0.0116075
-0.0111532
-0.0106843
-0.0102266
-0.00974916
-0.00928777
-0.00880212
-0.008336
-0.00784511
-0.00737625
-0.00688295
-0.00641081
-0.00591952
-0.00544707
-0.00495907
-0.00448776
-0.00400526
-0.00353315
-0.00305325
-0.0025727
-0.00208337
-0.00158461
-0.00107162
-0.000534028
4.31955e-05
0.000687953
0.00142037
0.00224458
0.00319233
0.00431524
0.00568787
0.00739176
0.00947921
0.0120605
0.0152669
0.0191895
0.0239242
0.0295981
0.0363436
0.0442644
0.0534502
0.063914
0.0756637
0.088569
0.10244
0.117045
0.132075
0.147169
0.161934
0.175578
0.187667
0.199466
0.210053
0.213328