/*--------------------------------*- C++ -*----------------------------------*\
  =========                 |
  \\      /  F ield         | OpenFOAM: The Open Source CFD Toolbox
   \\    /   O peration     | Website:  https://openfoam.org
    \\  /    A nd           | Version:  6.0
     \\/     M anipulation  |
\*---------------------------------------------------------------------------*/
FoamFile
{
    version     2.0;
    format      ascii;
    class       surfaceScalarField;
    location    "15";
    object      phi;
}
// * * * * * * * * * * * * * * * * * * * * * * * * * * * * * * * * * * * * * //

dimensions      [0 3 -1 0 0 0 0];

internalField   nonuniform List<scalar> 
123526
(
8.14832e-05
2.26086e-05
-8.10952e-05
8.18922e-05
2.44365e-05
8.23446e-05
2.64112e-05
8.28225e-05
2.85444e-05
8.335e-05
3.08485e-05
8.39089e-05
3.33371e-05
8.45241e-05
3.60247e-05
8.51794e-05
3.89266e-05
8.59008e-05
4.20591e-05
8.66714e-05
4.54416e-05
8.7516e-05
4.90939e-05
8.84195e-05
5.30361e-05
8.94076e-05
5.72906e-05
9.04684e-05
6.18792e-05
9.16286e-05
6.68288e-05
9.28738e-05
7.21701e-05
9.42294e-05
7.79298e-05
9.56923e-05
8.41335e-05
9.72849e-05
9.08218e-05
9.9e-05
9.80303e-05
0.000100866
0.000105788
0.000102884
0.000114139
0.000105069
0.000123131
0.000107438
0.000132789
0.000110002
0.000143178
0.000112774
0.000154332
0.000115777
0.0001663
0.000119019
0.000179134
0.000122528
0.000192875
0.000126314
0.00020758
0.000130404
0.000223284
0.000134813
0.000240037
0.000139567
0.000257869
0.000144686
0.000276814
0.000150191
0.000296889
0.000156106
0.000318094
0.000162453
0.000340422
0.000169254
0.000363827
0.000176531
0.000388239
0.0001843
0.000413547
0.000192578
0.000439585
0.000201376
0.000466124
0.000210698
0.000492852
0.00022054
0.000519358
0.00023089
0.000545101
0.000241719
0.000569387
0.000252983
0.00059133
0.000264618
0.00060981
0.000276531
0.000623429
0.000288598
0.000630452
0.000300655
0.000628762
0.000312484
0.000615811
0.000323805
0.000588575
0.000334272
0.000543545
0.000343446
0.000476852
0.000350774
0.000384393
0.000355842
0.000262915
0.000356234
0.000114596
0.000362276
-9.42762e-05
-0.000390603
0.00039855
8.04368e-05
2.22305e-05
-8.00574e-05
8.08385e-05
2.40283e-05
8.12825e-05
2.59704e-05
8.17523e-05
2.80684e-05
8.22701e-05
3.03345e-05
8.28193e-05
3.27819e-05
8.3423e-05
3.54248e-05
8.40659e-05
3.82782e-05
8.47728e-05
4.13571e-05
8.55275e-05
4.46822e-05
8.63537e-05
4.8273e-05
8.72373e-05
5.21484e-05
8.82033e-05
5.63305e-05
8.92404e-05
6.08385e-05
9.03746e-05
6.57001e-05
9.15926e-05
7.09489e-05
9.29187e-05
7.66083e-05
9.43509e-05
8.26983e-05
9.59103e-05
8.92658e-05
9.75912e-05
9.63468e-05
9.94206e-05
0.000103961
0.0001014
0.000112158
0.000103543
0.000120988
0.000105868
0.000130463
0.000108385
0.000140662
0.000111108
0.000151607
0.000114057
0.000163351
0.000117242
0.000175948
0.000120688
0.000189428
0.000124407
0.00020386
0.000128424
0.000219265
0.000132756
0.000235704
0.000137424
0.000253199
0.000142451
0.000271785
0.000147856
0.000291481
0.000153663
0.000312282
0.000159892
0.000334187
0.000166567
0.000357146
0.000173707
0.000381092
0.000181331
0.000405916
0.000189452
0.000431455
0.000198081
0.000457484
0.000207222
0.000483698
0.000216871
0.000509693
0.000227016
0.000534938
0.000237629
0.000558752
0.000248667
0.000580265
0.000260068
0.000598378
0.000271742
0.000611717
0.000283569
0.00061858
0.000295385
0.000616891
0.000306977
0.000604148
0.000318066
0.000577393
0.000328307
0.000533191
0.000337267
0.000467753
0.000344393
0.000377087
0.000349021
0.000258044
0.000350866
0.000112387
0.000347687
-9.14685e-05
-0.000380081
0.000336888
7.92695e-05
2.1861e-05
-7.88989e-05
7.9662e-05
2.36296e-05
8.00954e-05
2.55401e-05
8.05546e-05
2.76034e-05
8.1061e-05
2.98318e-05
8.15994e-05
3.2238e-05
8.2192e-05
3.48358e-05
8.28249e-05
3.76402e-05
8.35216e-05
4.06652e-05
8.42669e-05
4.39327e-05
8.50833e-05
4.74621e-05
8.5957e-05
5.12714e-05
8.69117e-05
5.5382e-05
8.79365e-05
5.98109e-05
8.90565e-05
6.45863e-05
9.0258e-05
6.97446e-05
9.15655e-05
7.53059e-05
9.29762e-05
8.12848e-05
9.45116e-05
8.77343e-05
9.61653e-05
9.46905e-05
9.79647e-05
0.000102164
9.99105e-05
0.00011021
0.000102018
0.000118882
0.000104303
0.000128176
0.000106777
0.000138189
0.000109453
0.000148931
0.00011235
0.000160453
0.00011548
0.000172817
0.000118865
0.000186042
0.000122519
0.000200206
0.000126464
0.000215319
0.000130718
0.00023145
0.000135302
0.000248614
0.000140238
0.000266849
0.000145543
0.000286174
0.000151242
0.000306579
0.000157355
0.000328069
0.000163904
0.000350592
0.000170908
0.000374082
0.000178384
0.000398434
0.000186346
0.000423486
0.000194805
0.000449019
0.000203763
0.000474734
0.000213218
0.000500232
0.000223156
0.000524994
0.000233552
0.000548351
0.000244364
0.00056945
0.000255531
0.000587209
0.000266966
0.000600283
0.00027855
0.000606999
0.000290122
0.000605325
0.000301471
0.000592804
0.00031232
0.000566538
0.000322329
0.000523174
0.000331075
0.000458998
0.000338027
0.000370131
0.000342584
0.000253492
0.000344098
0.000110902
0.000343268
-9.05834e-05
-0.000382172
0.000345437
7.80543e-05
2.15034e-05
-7.7696e-05
7.84341e-05
2.32438e-05
7.8854e-05
2.51228e-05
7.93002e-05
2.71514e-05
7.97932e-05
2.93418e-05
8.03188e-05
3.17066e-05
8.08985e-05
3.42593e-05
8.15193e-05
3.70141e-05
8.22042e-05
3.99844e-05
8.2939e-05
4.31934e-05
8.37454e-05
4.66604e-05
8.46102e-05
5.04027e-05
8.55563e-05
5.44413e-05
8.65728e-05
5.87908e-05
8.7684e-05
6.34803e-05
8.88762e-05
6.8549e-05
9.01726e-05
7.40138e-05
9.15702e-05
7.98839e-05
9.30896e-05
8.62182e-05
9.47242e-05
9.3053e-05
9.65007e-05
0.00010039
9.84196e-05
0.000108289
0.000100496
0.000116807
0.000102746
0.000125925
0.000105179
0.000135756
0.000107811
0.000146298
0.000110659
0.000157606
0.000113734
0.000169741
0.00011706
0.000182715
0.000120649
0.000196616
0.000124523
0.000211443
0.0001287
0.000227273
0.0001332
0.000244113
0.000138045
0.000262004
0.000143252
0.000280966
0.000148844
0.000300983
0.000154842
0.000322068
0.000161265
0.000344165
0.000168134
0.000367208
0.000175464
0.000391099
0.000183269
0.000415675
0.000191559
0.000440722
0.000200338
0.000465947
0.000209602
0.000490958
0.000219339
0.000515246
0.000229525
0.000538152
0.000240119
0.000558838
0.000251062
0.000576245
0.000262269
0.000589049
0.000273623
0.000595612
0.000284967
0.00059394
0.000296091
0.000581623
0.000306725
0.000555825
0.000316537
0.000513261
0.00032512
0.000450286
0.000331987
0.000363092
0.000336548
0.000248691
0.000338296
0.00010879
0.00033736
-9.0023e-05
-0.000377537
0.000332449
7.67909e-05
2.11575e-05
-7.64447e-05
7.71594e-05
2.28691e-05
7.7569e-05
2.47159e-05
7.80056e-05
2.67091e-05
7.84894e-05
2.88612e-05
7.90059e-05
3.11847e-05
7.95759e-05
3.36925e-05
8.01866e-05
3.63985e-05
8.08608e-05
3.93146e-05
8.15846e-05
4.24654e-05
8.23799e-05
4.58701e-05
8.3234e-05
4.95451e-05
8.41698e-05
5.35112e-05
8.51766e-05
5.77809e-05
8.62785e-05
6.23841e-05
8.74618e-05
6.73626e-05
8.87494e-05
7.27309e-05
9.01377e-05
7.84927e-05
9.16464e-05
8.4713e-05
9.32681e-05
9.14284e-05
9.50287e-05
9.86315e-05
9.69278e-05
0.000106388
9.89802e-05
0.000114756
0.000101201
0.000123703
0.0001036
0.000133358
0.000106191
0.000143706
0.000108993
0.000154804
0.000112017
0.000166716
0.000115286
0.000179447
0.000118811
0.000193091
0.000122615
0.000207638
0.000126715
0.000223173
0.000131133
0.000239695
0.000135887
0.00025725
0.000140996
0.000275855
0.000146482
0.000295494
0.000152365
0.000316182
0.000158665
0.000337861
0.000165401
0.000360469
0.000172588
0.000383908
0.000180239
0.00040802
0.000188365
0.000432593
0.00019697
0.00045734
0.00020605
0.000481876
0.000215595
0.0005057
0.00022558
0.000528167
0.000235966
0.000548454
0.000246698
0.000565519
0.000257689
0.000578065
0.000268827
0.000584486
0.000279956
0.000582825
0.00029087
0.000570723
0.000301306
0.000545397
0.000310939
0.000503636
0.000319375
0.00044186
0.000326156
0.000356326
0.000330666
0.000244213
0.000332231
0.000107294
0.000331646
-8.93418e-05
-0.000373357
0.000327573
7.55694e-05
2.08154e-05
-7.52266e-05
7.5936e-05
2.24968e-05
7.63436e-05
2.43107e-05
7.67788e-05
2.62686e-05
7.72601e-05
2.83829e-05
7.77735e-05
3.0666e-05
7.83384e-05
3.31305e-05
7.89423e-05
3.57897e-05
7.96067e-05
3.86542e-05
8.03185e-05
4.17494e-05
8.10989e-05
4.50942e-05
8.19363e-05
4.87041e-05
8.28532e-05
5.25995e-05
8.38402e-05
5.67906e-05
8.49211e-05
6.13082e-05
8.60838e-05
6.61968e-05
8.73508e-05
7.14681e-05
8.87193e-05
7.7121e-05
9.02087e-05
8.32268e-05
9.18117e-05
8.98225e-05
9.35529e-05
9.68925e-05
9.54312e-05
0.000104507
9.74605e-05
0.000112728
9.96541e-05
0.000121508
0.000102022
0.000130991
0.000104577
0.00014115
0.000107338
0.000152043
0.000110314
0.00016374
0.000113529
0.000176232
0.000116994
0.000189626
0.000120731
0.0002039
0.000124757
0.000219146
0.000129094
0.000235359
0.000133759
0.000252585
0.000138772
0.000270842
0.000144154
0.000290109
0.000149925
0.000310409
0.000156104
0.000331679
0.000162709
0.00035386
0.000169757
0.000376857
0.00017726
0.000400512
0.000185228
0.00042462
0.000193665
0.000448897
0.000202568
0.000472965
0.000211928
0.000496332
0.00022172
0.000518364
0.000231908
0.000538252
0.000242435
0.000554975
0.000253219
0.00056726
0.000264147
0.000573531
0.000275066
0.00057187
0.000285774
0.000559965
0.000296013
0.000535088
0.000305465
0.000494093
0.000313743
0.000433463
0.000320406
0.0003495
0.000324831
0.000239557
0.000326393
0.000105376
0.000325881
-8.91947e-05
-0.000369444
0.000321697
7.45259e-05
2.04684e-05
-7.41785e-05
7.48978e-05
2.21192e-05
7.53098e-05
2.3901e-05
7.57481e-05
2.58249e-05
7.62308e-05
2.79031e-05
7.67438e-05
3.01478e-05
7.73059e-05
3.25713e-05
7.79044e-05
3.51865e-05
7.85597e-05
3.80027e-05
7.92589e-05
4.10461e-05
8.00223e-05
4.43352e-05
8.08385e-05
4.78843e-05
8.17297e-05
5.17133e-05
8.26871e-05
5.58301e-05
8.37344e-05
6.02658e-05
8.48606e-05
6.50675e-05
8.6089e-05
7.02439e-05
8.7418e-05
7.5789e-05
8.88678e-05
8.17802e-05
9.04322e-05
8.82553e-05
9.21358e-05
9.51911e-05
9.39778e-05
0.000102663
9.59714e-05
0.000110736
9.8129e-05
0.000119349
0.00010046
0.000128661
0.000102975
0.000138634
0.000105692
0.000149327
0.000108621
0.00016081
0.000111782
0.00017307
0.000115188
0.00018622
0.000118861
0.000200227
0.000122815
0.000215192
0.000127073
0.000231102
0.000131653
0.000248005
0.000136572
0.000265921
0.000141853
0.000284825
0.000147514
0.000304745
0.000153575
0.000325615
0.000160054
0.000347377
0.000166967
0.000369941
0.000174326
0.00039315
0.000182142
0.000416802
0.000190417
0.000440619
0.000199151
0.00046423
0.000208333
0.000487151
0.00021794
0.000508759
0.000227936
0.000528261
0.000238264
0.000544654
0.000248845
0.00055669
0.000259566
0.000562824
0.000270278
0.000561178
0.000280781
0.000549482
0.000290822
0.000525065
0.000300091
0.000484843
0.000308206
0.000425372
0.00031474
0.000342999
0.000319109
0.000235242
0.000320732
0.000103858
0.00032025
-8.85806e-05
-0.000365372
0.000316311
7.37094e-05
2.01151e-05
-7.33549e-05
7.40869e-05
2.17365e-05
7.45019e-05
2.34883e-05
7.49416e-05
2.53804e-05
7.54229e-05
2.74245e-05
7.59331e-05
2.96327e-05
7.64899e-05
3.20171e-05
7.70816e-05
3.45903e-05
7.77272e-05
3.73607e-05
7.84141e-05
4.03553e-05
7.91613e-05
4.35922e-05
7.99577e-05
4.70846e-05
8.0824e-05
5.08519e-05
8.17518e-05
5.48994e-05
8.27635e-05
5.92588e-05
8.38489e-05
6.39792e-05
8.50307e-05
6.90661e-05
8.63087e-05
7.4508e-05
8.77037e-05
8.03883e-05
8.92115e-05
8.67448e-05
9.08578e-05
9.35469e-05
9.2643e-05
0.000100875
9.45811e-05
0.000108799
9.66845e-05
0.000117244
9.89621e-05
0.000126384
0.000101425
0.000136171
0.000104088
0.000146663
0.000106962
0.000157936
0.000110065
0.000169966
0.000113409
0.000182875
0.000117015
0.00019662
0.000120898
0.000211309
0.000125077
0.000226922
0.000129573
0.000243511
0.000134401
0.000261093
0.000139583
0.000279641
0.000145137
0.000299188
0.000151084
0.000319665
0.000157441
0.000341017
0.000164222
0.000363155
0.000171443
0.000385926
0.000179111
0.000409129
0.000187231
0.000432494
0.000195802
0.000455653
0.000204812
0.000478133
0.000214241
0.000499321
0.000224051
0.000518439
0.000234187
0.000534503
0.00024457
0.000546287
0.00025509
0.000552279
0.000265598
0.000550636
0.0002759
0.000539134
0.000285747
0.000515154
0.000294835
0.00047567
0.000302793
0.0004173
0.000309202
0.000336431
0.000313527
0.000230691
0.000315254
0.00010178
0.000314762
-8.84457e-05
-0.000361757
0.000310882
7.30656e-05
1.97604e-05
-7.2711e-05
7.34416e-05
2.13548e-05
7.38534e-05
2.30786e-05
7.42877e-05
2.49408e-05
7.47623e-05
2.69525e-05
7.52643e-05
2.91257e-05
7.5812e-05
3.14722e-05
7.63934e-05
3.40043e-05
7.70278e-05
3.67299e-05
7.77023e-05
3.96769e-05
7.84353e-05
4.28632e-05
7.92154e-05
4.6301e-05
8.00625e-05
5.00093e-05
8.09676e-05
5.39912e-05
8.19519e-05
5.82789e-05
8.30045e-05
6.29236e-05
8.4147e-05
6.79274e-05
8.53788e-05
7.32733e-05
8.67206e-05
7.90494e-05
8.81693e-05
8.52934e-05
8.97514e-05
9.19668e-05
9.14692e-05
9.91554e-05
9.33382e-05
0.000106931
9.53722e-05
0.000115208
9.75809e-05
0.000124176
9.99757e-05
0.000133775
0.000102572
0.000144067
0.000105379
0.00015513
0.000108414
0.00016693
0.000111688
0.000179601
0.000115222
0.000193086
0.000119028
0.000207503
0.000123128
0.000222823
0.000127537
0.000239101
0.000132273
0.000256356
0.000137358
0.000274554
0.000142807
0.000293735
0.000148642
0.000313827
0.000154879
0.000334777
0.000161534
0.000356498
0.00016862
0.000378838
0.000176146
0.000401602
0.000184116
0.000424523
0.000192529
0.00044724
0.000201374
0.000469289
0.00021063
0.000490069
0.00022026
0.000508814
0.000230211
0.000524561
0.000240402
0.000536108
0.000250726
0.000541972
0.000261037
0.000540347
0.000271143
0.000529053
0.000280802
0.000505521
0.000289716
0.000466785
0.000297524
0.00040953
0.000303814
0.000330192
0.000308092
0.000226491
0.000309923
0.000100092
0.000309397
-8.77472e-05
-0.000357645
0.000305445
7.25026e-05
1.94122e-05
-7.21531e-05
7.28709e-05
2.09816e-05
7.32728e-05
2.2679e-05
7.36966e-05
2.45123e-05
7.41591e-05
2.64927e-05
7.46487e-05
2.86316e-05
7.51828e-05
3.09406e-05
7.57509e-05
3.34321e-05
7.63714e-05
3.61129e-05
7.70324e-05
3.90123e-05
7.77515e-05
4.21482e-05
7.85178e-05
4.55317e-05
7.93501e-05
4.91817e-05
8.02394e-05
5.30993e-05
8.12056e-05
5.73173e-05
8.22372e-05
6.18893e-05
8.33541e-05
6.68144e-05
8.45544e-05
7.20702e-05
8.58572e-05
7.77494e-05
8.7259e-05
8.3889e-05
8.87861e-05
9.04418e-05
9.04416e-05
9.74977e-05
9.22422e-05
0.000105132
9.42034e-05
0.000113246
9.63366e-05
0.000122043
9.86544e-05
0.000131457
0.000101173
0.000141548
0.000103902
0.0001524
0.000106859
0.000163973
0.000110055
0.000176404
0.000113509
0.000189632
0.000117233
0.000203778
0.000121247
0.000218809
0.000125568
0.000234782
0.000130211
0.000251713
0.000135197
0.000269567
0.000140542
0.000288388
0.000146266
0.000308101
0.000152386
0.000328654
0.000158916
0.000349965
0.00016587
0.00037188
0.000173257
0.000394211
0.000181081
0.000416694
0.000189341
0.000438975
0.000198025
0.000460597
0.000207114
0.000480971
0.000216569
0.000499347
0.000226339
0.000514777
0.000236344
0.000526085
0.000246478
0.000531815
0.000256596
0.000530197
0.000266513
0.000519093
0.00027599
0.000495986
0.000284738
0.00045796
0.0002924
0.000401762
0.000298576
0.000323868
0.000302803
0.000222051
0.000304704
9.78581e-05
0.000304135
-8.75145e-05
-0.000353801
0.000300039
7.19387e-05
1.9075e-05
-7.1601e-05
7.22943e-05
2.06209e-05
7.2683e-05
2.22924e-05
7.30932e-05
2.40974e-05
7.35416e-05
2.60468e-05
7.40169e-05
2.81517e-05
7.45364e-05
3.04236e-05
7.50899e-05
3.28744e-05
7.56957e-05
3.55104e-05
7.63423e-05
3.83619e-05
7.70473e-05
4.14468e-05
7.78001e-05
4.47757e-05
7.8619e-05
4.83669e-05
7.94955e-05
5.22198e-05
8.04488e-05
5.63681e-05
8.14672e-05
6.08679e-05
8.25691e-05
6.57159e-05
8.37517e-05
7.08847e-05
8.50319e-05
7.64719e-05
8.64048e-05
8.25134e-05
8.78947e-05
8.89538e-05
8.95043e-05
9.58861e-05
9.125e-05
0.000103387
9.31482e-05
0.000111346
9.52114e-05
0.000119981
9.7454e-05
0.000129213
9.98938e-05
0.000139109
0.000102541
0.000149753
0.000105416
0.000161098
0.000108527
0.000173293
0.000111895
0.000186264
0.000115531
0.000200141
0.000119456
0.000214886
0.000123684
0.000230554
0.000128231
0.000247165
0.000133116
0.00026468
0.000138356
0.000283146
0.000143969
0.000302485
0.000149972
0.000322649
0.000156379
0.000343555
0.000163204
0.000365054
0.000170454
0.000386959
0.000178135
0.000409012
0.000186244
0.000430866
0.000194772
0.000452072
0.000203696
0.000472051
0.00021298
0.000490068
0.000222573
0.000505194
0.000232395
0.000516275
0.000242344
0.000521885
0.000252274
0.000520289
0.000262006
0.00050939
0.000271306
0.000486718
0.000279891
0.000449414
0.000287414
0.000394287
0.000293481
0.000317867
0.000297655
0.000217976
0.000299585
9.61036e-05
0.000298965
-8.66896e-05
-0.000349366
0.000294714
7.13271e-05
1.87512e-05
-7.10013e-05
7.16695e-05
2.02742e-05
7.20442e-05
2.192e-05
7.24408e-05
2.36968e-05
7.2875e-05
2.56152e-05
7.33362e-05
2.76863e-05
7.38411e-05
2.99212e-05
7.43801e-05
3.23315e-05
7.49711e-05
3.49227e-05
7.56035e-05
3.77263e-05
7.62941e-05
4.07601e-05
7.70332e-05
4.40338e-05
7.78388e-05
4.75658e-05
7.87028e-05
5.13534e-05
7.96441e-05
5.54312e-05
8.06516e-05
5.9858e-05
8.1743e-05
6.46283e-05
8.29149e-05
6.97102e-05
8.41829e-05
7.52067e-05
8.55406e-05
8.11534e-05
8.70098e-05
8.74865e-05
8.85916e-05
9.43022e-05
9.03009e-05
0.000101679
9.21532e-05
0.000109493
9.41614e-05
0.000117973
9.63405e-05
0.000127033
9.87094e-05
0.00013674
0.00010128
0.000147182
0.000104073
0.000158305
0.0001071
0.000170266
0.00011038
0.000182983
0.000113927
0.000196595
0.000117759
0.000211054
0.000121893
0.000226422
0.000126341
0.000242717
0.000131124
0.000259895
0.000136257
0.00027801
0.000141759
0.000296981
0.000147646
0.00031676
0.00015393
0.000337267
0.000160626
0.000358355
0.000167742
0.00037984
0.000175281
0.000401469
0.000183242
0.0004229
0.000191614
0.000443693
0.000200376
0.000463281
0.000209492
0.000480941
0.00021891
0.000495763
0.000228552
0.000506615
0.000238317
0.000512099
0.000248063
0.000510513
0.000257614
0.0004998
0.000266741
0.000477537
0.000275167
0.000440916
0.000282554
0.000386801
0.000288517
0.000311762
0.000292635
0.000213651
0.000294554
9.38632e-05
0.000293887
-8.63443e-05
-0.000345213
0.000289493
7.06468e-05
1.84395e-05
-7.03351e-05
7.09762e-05
1.99396e-05
7.13384e-05
2.15596e-05
7.17222e-05
2.33082e-05
7.2144e-05
2.51958e-05
7.25925e-05
2.72332e-05
7.30848e-05
2.94313e-05
7.36108e-05
3.18013e-05
7.41885e-05
3.43481e-05
7.48072e-05
3.71039e-05
7.5484e-05
4.00867e-05
7.62091e-05
4.33053e-05
7.70009e-05
4.67779e-05
7.78513e-05
5.04999e-05
7.87795e-05
5.45067e-05
7.9775e-05
5.88596e-05
8.08554e-05
6.3551e-05
8.20177e-05
6.85451e-05
8.32767e-05
7.39501e-05
8.46255e-05
7.98021e-05
8.60838e-05
8.60299e-05
8.76511e-05
9.2733e-05
8.93399e-05
9.99915e-05
9.11639e-05
0.000107667
9.31346e-05
0.000116003
9.52667e-05
0.000124901
9.75794e-05
0.000134428
0.000100085
0.000144675
0.000102806
0.000155584
0.000105755
0.000167317
0.000108951
0.000179786
0.00011241
0.000193135
0.000116152
0.000207314
0.000120189
0.000222385
0.000124539
0.000238367
0.000129219
0.000255213
0.000134246
0.000272981
0.000139637
0.000291589
0.000145407
0.000310988
0.00015157
0.000331102
0.000158138
0.000351786
0.000165119
0.000372857
0.000172518
0.00039407
0.000180332
0.000415088
0.00018855
0.000435478
0.000197151
0.000454685
0.0002061
0.000471999
0.000215345
0.000486529
0.000224808
0.000497165
0.000234392
0.000502536
0.000243956
0.000500974
0.000253328
0.00049046
0.000262284
0.000468619
0.000270554
0.000432692
0.000277808
0.000379605
0.000283671
0.000305978
0.00028773
0.000209708
0.000289613
9.21848e-05
0.000288901
-8.5396e-05
-0.000340506
0.000284395
6.98992e-05
1.81387e-05
-6.95968e-05
7.02187e-05
1.96158e-05
7.05705e-05
2.12101e-05
7.0944e-05
2.29305e-05
7.13549e-05
2.47874e-05
7.17925e-05
2.67914e-05
7.22732e-05
2.89531e-05
7.27874e-05
3.12834e-05
7.33526e-05
3.37861e-05
7.39586e-05
3.64949e-05
7.46219e-05
3.94272e-05
7.53335e-05
4.25912e-05
7.61111e-05
4.60048e-05
7.69473e-05
4.96614e-05
7.7861e-05
5.35973e-05
7.88424e-05
5.7876e-05
7.99093e-05
6.24877e-05
8.10594e-05
6.73927e-05
8.23075e-05
7.27047e-05
8.36468e-05
7.84605e-05
8.50964e-05
8.45821e-05
8.66544e-05
9.1173e-05
8.83316e-05
9.83155e-05
9.01393e-05
0.000105858
9.20872e-05
0.000114056
9.41882e-05
0.000122799
9.64604e-05
0.000132156
9.89167e-05
0.000142219
0.000101578
0.000152921
0.00010446
0.000164435
0.000107582
0.000176664
0.00011096
0.000189757
0.000114614
0.000203661
0.00011856
0.000218441
0.000122814
0.000234113
0.000127394
0.000250632
0.000132315
0.000268058
0.000137595
0.000286306
0.000143249
0.000305331
0.000149292
0.000325058
0.000155733
0.000345341
0.000162581
0.000366006
0.00016984
0.000386807
0.000177508
0.000407415
0.000185573
0.000427407
0.000194014
0.000446235
0.000202797
0.000463206
0.00021187
0.000477444
0.000221157
0.000487861
0.000230561
0.000493112
0.000239944
0.000491562
0.000249139
0.000481229
0.000257928
0.000459781
0.000266045
0.000424509
0.000273168
0.00037239
0.000278932
0.000300083
0.000282928
0.00020552
0.00028476
9.00518e-05
0.000284007
-8.49413e-05
-0.000336139
0.000279416
6.90913e-05
1.78461e-05
-6.87979e-05
6.94022e-05
1.93e-05
6.97456e-05
2.08687e-05
7.01105e-05
2.25612e-05
7.05125e-05
2.43878e-05
7.0941e-05
2.63587e-05
7.1412e-05
2.84845e-05
7.19159e-05
3.07755e-05
7.24701e-05
3.32349e-05
7.30642e-05
3.58972e-05
7.37149e-05
3.87797e-05
7.4413e-05
4.18899e-05
7.51762e-05
4.52451e-05
7.59976e-05
4.88372e-05
7.68957e-05
5.27027e-05
7.78613e-05
5.69076e-05
7.89122e-05
6.14398e-05
8.0047e-05
6.62553e-05
8.12806e-05
7.14734e-05
8.26072e-05
7.71315e-05
8.40456e-05
8.31454e-05
8.55937e-05
8.9623e-05
8.72612e-05
9.66491e-05
8.90579e-05
0.00010406
9.09913e-05
0.000112123
9.30723e-05
0.000120717
9.53174e-05
0.000129911
9.77378e-05
0.000139798
0.000100355
0.000150304
0.000103182
0.000161608
0.000106241
0.000173604
0.000109548
0.00018645
0.000113124
0.000200087
0.000116985
0.00021458
0.000121147
0.000229951
0.00012563
0.000246148
0.000130449
0.000263238
0.000135622
0.000281132
0.000141163
0.000299788
0.000147086
0.000319133
0.000153402
0.000339024
0.000160118
0.000359289
0.000167239
0.000379687
0.000174762
0.000399895
0.000182675
0.000419497
0.000190958
0.000437958
0.000199575
0.000454596
0.000208477
0.000468554
0.000217589
0.000478764
0.000226815
0.000483908
0.000236019
0.000482382
0.000245041
0.000472243
0.000253663
0.000451201
0.00026163
0.000416595
0.000268625
0.000365461
0.00027429
0.000294507
0.000278221
0.000201721
0.000279997
8.85041e-05
0.000279205
-8.38891e-05
-0.00033127
0.000274553
6.82362e-05
1.75607e-05
-6.79482e-05
6.8541e-05
1.89914e-05
6.88774e-05
2.05348e-05
6.92352e-05
2.21997e-05
6.96292e-05
2.39964e-05
7.00494e-05
2.59349e-05
7.05112e-05
2.80252e-05
7.10056e-05
3.02777e-05
7.15491e-05
3.26946e-05
7.21323e-05
3.53113e-05
7.27708e-05
3.8145e-05
7.34562e-05
4.12023e-05
7.42055e-05
4.45002e-05
7.50121e-05
4.80286e-05
7.58944e-05
5.18248e-05
7.68433e-05
5.59567e-05
7.78767e-05
6.04099e-05
7.89935e-05
6.51363e-05
8.02093e-05
7.02603e-05
8.15188e-05
7.58199e-05
8.29413e-05
8.17246e-05
8.44754e-05
8.80871e-05
8.61304e-05
9.49952e-05
8.79153e-05
0.000102274
8.98363e-05
0.000110203
9.19026e-05
0.000118651
9.41283e-05
0.000127685
9.65232e-05
0.000137403
9.91066e-05
0.000147721
0.000101892
0.000158823
0.000104899
0.000170596
0.000108147
0.000183203
0.000111654
0.00019658
0.000115439
0.000210797
0.000119518
0.000225873
0.00012391
0.000241755
0.000128632
0.000258514
0.0001337
0.000276062
0.000139132
0.000294355
0.000144938
0.000313325
0.000151132
0.000332828
0.000157719
0.000352698
0.000164704
0.000372698
0.000172083
0.000392511
0.000179846
0.000411728
0.000187972
0.000429824
0.000196426
0.000446132
0.000205159
0.00045981
0.000214097
0.00046981
0.000223147
0.00047484
0.000232176
0.000473327
0.000241025
0.000463361
0.000249485
0.000442696
0.000257303
0.000408716
0.000264171
0.000358507
0.000269738
0.000288816
0.000273599
0.000197678
0.000275319
8.6496e-05
0.000274492
-8.3345e-05
-0.000326781
0.000269793
6.73433e-05
1.72803e-05
-6.70625e-05
6.76417e-05
1.8688e-05
6.7972e-05
2.02063e-05
6.8323e-05
2.18442e-05
6.87102e-05
2.36114e-05
6.91229e-05
2.55179e-05
6.95768e-05
2.75735e-05
7.00624e-05
2.97882e-05
7.05966e-05
3.21633e-05
7.11692e-05
3.47352e-05
7.17963e-05
3.75209e-05
7.24692e-05
4.05262e-05
7.32049e-05
4.37679e-05
7.39969e-05
4.72338e-05
7.4863e-05
5.09619e-05
7.5795e-05
5.50221e-05
7.68101e-05
5.93975e-05
7.79079e-05
6.4036e-05
7.91036e-05
6.90667e-05
8.03931e-05
7.45281e-05
8.17959e-05
8.03234e-05
8.33114e-05
8.65699e-05
8.49492e-05
9.33584e-05
8.67185e-05
0.000100504
8.86248e-05
0.000108297
9.06762e-05
0.000116599
9.28851e-05
0.000125477
9.52596e-05
0.000135028
9.7817e-05
0.000145163
0.000100569
0.000156071
0.000103536
0.000167629
0.000106733
0.000180006
0.000110183
0.000193133
0.0001139
0.00020708
0.000117904
0.000221869
0.000122212
0.000237446
0.000126843
0.000253882
0.000131814
0.000271089
0.00013714
0.000289028
0.000142835
0.000307629
0.000148909
0.000326754
0.00015537
0.000346237
0.000162221
0.000365848
0.00016946
0.000385274
0.000177075
0.000404116
0.000185047
0.000421859
0.00019334
0.000437847
0.000201906
0.000451256
0.000210673
0.000461058
0.000219549
0.000465987
0.000228404
0.000464498
0.000237085
0.000454718
0.000245385
0.000434442
0.000253057
0.0004011
0.0002598
0.000351836
0.000265267
0.000283445
0.000269057
0.000194031
0.000270726
8.50755e-05
0.000269864
-8.22046e-05
-0.000321818
0.000265131
6.64242e-05
1.70051e-05
-6.61468e-05
6.67182e-05
1.83901e-05
6.7043e-05
1.98839e-05
6.73883e-05
2.14951e-05
6.77689e-05
2.32335e-05
6.81745e-05
2.51087e-05
6.86203e-05
2.71302e-05
6.90974e-05
2.93078e-05
6.96219e-05
3.1642e-05
7.01845e-05
3.417e-05
7.08003e-05
3.69088e-05
7.14612e-05
3.98632e-05
7.21836e-05
4.30497e-05
7.29612e-05
4.64544e-05
7.38117e-05
5.01156e-05
7.47266e-05
5.41053e-05
7.57233e-05
5.84043e-05
7.68011e-05
6.29562e-05
7.79755e-05
6.78948e-05
7.92428e-05
7.32588e-05
8.06227e-05
7.89453e-05
8.21154e-05
8.50755e-05
8.37313e-05
9.17435e-05
8.54798e-05
9.87543e-05
8.73669e-05
0.000106411
8.93999e-05
0.000114565
9.15905e-05
0.000123287
9.39452e-05
0.000132674
9.64796e-05
0.000142628
9.92039e-05
0.000153346
0.000102136
0.000164696
0.000105292
0.00017685
0.000108691
0.000189734
0.00011235
0.000203423
0.000116287
0.000217933
0.00012052
0.000233211
0.000125067
0.000249334
0.000129946
0.000266209
0.000135173
0.0002838
0.00014076
0.00030204
0.000146719
0.000320792
0.000153058
0.000339895
0.000159779
0.000359123
0.000166881
0.000378169
0.000174351
0.00039664
0.000182171
0.000414033
0.000190306
0.000429703
0.000198709
0.000442843
0.000207308
0.000452445
0.000216014
0.000457264
0.000224699
0.000455787
0.000233214
0.000446174
0.000241356
0.000426259
0.000248885
0.000393518
0.000255504
0.000345139
0.000260873
0.000277963
0.000264591
0.000190145
0.000266211
8.31876e-05
0.000265316
-8.15689e-05
-0.000317249
0.000260556
6.54852e-05
1.67339e-05
-6.52128e-05
6.57743e-05
1.80966e-05
6.60941e-05
1.95662e-05
6.64339e-05
2.11513e-05
6.68083e-05
2.28614e-05
6.72073e-05
2.47058e-05
6.76459e-05
2.6694e-05
6.81149e-05
2.88351e-05
6.86305e-05
3.11292e-05
6.91831e-05
3.36142e-05
6.9788e-05
3.63069e-05
7.04369e-05
3.92114e-05
7.11462e-05
4.23438e-05
7.19095e-05
4.56884e-05
7.27442e-05
4.92841e-05
7.36422e-05
5.32047e-05
7.46204e-05
5.74287e-05
7.56784e-05
6.18958e-05
7.68312e-05
6.67441e-05
7.80756e-05
7.20123e-05
7.94311e-05
7.75913e-05
8.08987e-05
8.36063e-05
8.24891e-05
9.01541e-05
8.42125e-05
9.70298e-05
8.60754e-05
0.000104549
8.80854e-05
0.000112555
9.02536e-05
0.000121119
9.2586e-05
0.000130341
9.50968e-05
0.000140117
9.77945e-05
0.000150648
0.000100696
0.000161794
0.000103815
0.000173732
0.00010717
0.000186381
0.000110777
0.000199816
0.000114654
0.000214057
0.000118819
0.000229046
0.000123289
0.000244862
0.000128083
0.000261414
0.000133215
0.000278666
0.000138701
0.000296554
0.00014455
0.000314942
0.000150771
0.000333675
0.000157367
0.000352529
0.000164335
0.000371204
0.000171665
0.000389315
0.000179336
0.000406367
0.000187317
0.000421732
0.000195559
0.000434614
0.000203994
0.000444026
0.000212534
0.000448748
0.000221053
0.000447295
0.000229406
0.000437861
0.000237394
0.000418319
0.000244782
0.00038619
0.00025128
0.000338719
0.00025655
0.000272796
0.000260196
0.000186652
0.000261773
8.18766e-05
0.000260845
-8.03454e-05
-0.000312228
0.000256067
6.45348e-05
1.64674e-05
-6.42649e-05
6.48198e-05
1.78082e-05
6.51345e-05
1.92542e-05
6.5469e-05
2.08137e-05
6.58372e-05
2.2496e-05
6.62295e-05
2.43103e-05
6.66603e-05
2.62657e-05
6.71212e-05
2.83712e-05
6.76277e-05
3.06259e-05
6.81706e-05
3.30688e-05
6.87648e-05
3.57164e-05
6.94022e-05
3.85721e-05
7.00987e-05
4.16515e-05
7.08483e-05
4.49372e-05
7.16678e-05
4.84687e-05
7.25492e-05
5.23216e-05
7.35093e-05
5.64721e-05
7.45474e-05
6.08559e-05
7.56786e-05
6.56154e-05
7.68995e-05
7.07895e-05
7.82299e-05
7.62626e-05
7.96707e-05
8.21639e-05
8.12334e-05
8.85925e-05
8.29284e-05
9.53338e-05
8.4763e-05
0.000102715
8.67453e-05
0.000110572
8.88865e-05
0.000118978
9.11925e-05
0.000128035
9.36766e-05
0.000137633
9.63463e-05
0.000147979
9.9217e-05
0.000158923
0.000102301
0.000170648
0.000105615
0.000183067
0.000109176
0.000196258
0.000112998
0.000210236
0.0001171
0.000224943
0.000121499
0.000240462
0.000126213
0.000256699
0.000131258
0.00027362
0.000136647
0.000291163
0.000142392
0.000309196
0.0001485
0.000327565
0.000154974
0.000346052
0.000161813
0.000364361
0.000169006
0.000382117
0.000176534
0.000398834
0.000184364
0.000413894
0.000192451
0.000426519
0.000200726
0.000435738
0.000209104
0.000440357
0.00021746
0.000438914
0.000225655
0.00042964
0.000233493
0.000410444
0.000240744
0.00037889
0.000247121
0.000332269
0.000252294
0.000267516
0.000255868
0.000182918
0.000257405
8.00867e-05
0.000256446
-7.96277e-05
-0.000307611
0.000251655
6.35758e-05
1.62045e-05
-6.3312e-05
6.38556e-05
1.75237e-05
6.41652e-05
1.89464e-05
6.44938e-05
2.04808e-05
6.48561e-05
2.21359e-05
6.52417e-05
2.39207e-05
6.56656e-05
2.5844e-05
6.61187e-05
2.79145e-05
6.66167e-05
3.01306e-05
6.71501e-05
3.25321e-05
6.77339e-05
3.51354e-05
6.83599e-05
3.79431e-05
6.90439e-05
4.09706e-05
6.97798e-05
4.41987e-05
7.05843e-05
4.76672e-05
7.14495e-05
5.14538e-05
7.23918e-05
5.55324e-05
7.34107e-05
5.98346e-05
7.45207e-05
6.45074e-05