/*--------------------------------*- C++ -*----------------------------------*\
  =========                 |
  \\      /  F ield         | OpenFOAM: The Open Source CFD Toolbox
   \\    /   O peration     | Website:  https://openfoam.org
    \\  /    A nd           | Version:  6.0
     \\/     M anipulation  |
\*---------------------------------------------------------------------------*/
FoamFile
{
    version     2.0;
    format      ascii;
    class       surfaceScalarField;
    location    "15";
    object      phi;
}
// * * * * * * * * * * * * * * * * * * * * * * * * * * * * * * * * * * * * * //

dimensions      [0 3 -1 0 0 0 0];

internalField   nonuniform List<scalar> 
123526
(
-8.10018e-05
2.26157e-05
8.13907e-05
-8.05911e-05
2.44599e-05
-8.01366e-05
2.64551e-05
-7.96592e-05
2.86137e-05
-7.91293e-05
3.09493e-05
-7.85716e-05
3.34763e-05
-7.79541e-05
3.62107e-05
-7.7301e-05
3.91698e-05
-7.65778e-05
4.23713e-05
-7.581e-05
4.5836e-05
-7.49632e-05
4.95867e-05
-7.40622e-05
5.36466e-05
-7.30708e-05
5.80417e-05
-7.2012e-05
6.27977e-05
-7.08469e-05
6.79462e-05
-6.96036e-05
7.35249e-05
-6.82433e-05
7.95664e-05
-6.6782e-05
8.61026e-05
-6.51822e-05
9.3185e-05
-6.34693e-05
0.000100861
-6.15926e-05
0.000109168
-5.95733e-05
0.000118168
-5.73724e-05
0.000127927
-5.49946e-05
0.000138481
-5.24009e-05
0.000149932
-4.96065e-05
0.000162329
-4.6553e-05
0.000175758
-4.32641e-05
0.00019031
-3.96735e-05
0.000206061
-3.58039e-05
0.000223129
-3.15901e-05
0.000241596
-2.70314e-05
0.000261591
-2.20688e-05
0.000283213
-1.66798e-05
0.000306594
-1.08521e-05
0.000331856
-4.53912e-06
0.000359107
2.29069e-06
0.000388501
9.69039e-06
0.000420137
1.7714e-05
0.000454127
2.64017e-05
0.000490583
3.58082e-05
0.000529565
4.59936e-05
0.000571105
5.70103e-05
0.000615199
6.8909e-05
0.000661762
8.17335e-05
0.000710619
9.55261e-05
0.000761477
0.000110289
0.000813886
0.000126042
0.000867194
0.000142745
0.000920487
0.000160374
0.000972488
0.000178901
0.00102148
0.000198168
0.00106518
0.000218228
0.00110048
0.000238711
0.00112369
0.000259511
0.00112994
0.000279926
0.00111361
0.000299741
0.00106611
0.000317896
0.000978543
0.00033388
0.000829818
0.000597548
0.000331365
-7.97724e-05
2.22379e-05
8.01562e-05
-7.93662e-05
2.40515e-05
-7.89177e-05
2.6014e-05
-7.84463e-05
2.81378e-05
-7.79251e-05
3.04361e-05
-7.73781e-05
3.29232e-05
-7.67742e-05
3.56149e-05
-7.61386e-05
3.85278e-05
-7.54366e-05
4.16786e-05
-7.46948e-05
4.50881e-05
-7.38777e-05
4.87792e-05
-7.30111e-05
5.27742e-05
-7.20575e-05
5.70984e-05
-7.10401e-05
6.17746e-05
-6.99193e-05
6.68352e-05
-6.87223e-05
7.23218e-05
-6.74106e-05
7.82631e-05
-6.59985e-05
8.46838e-05
-6.44505e-05
9.16437e-05
-6.27883e-05
9.91917e-05
-6.09662e-05
0.000107351
-5.89985e-05
0.000116193
-5.68554e-05
0.000125788
-5.45299e-05
0.000136149
-5.19978e-05
0.000147403
-4.92566e-05
0.000159583
-4.62687e-05
0.000172772
-4.30357e-05
0.000187074
-3.95148e-05
0.000202541
-3.57053e-05
0.000219316
-3.15646e-05
0.00023745
-2.70733e-05
0.000257097
-2.21798e-05
0.000278336
-1.68634e-05
0.000301302
-1.11105e-05
0.000326123
-4.87636e-06
0.000352883
1.86919e-06
0.000381761
9.18122e-06
0.000412831
1.71127e-05
0.000446202
2.57034e-05
0.000481998
3.50046e-05
0.00052027
4.50718e-05
0.000561041
5.59515e-05
0.000604319
6.76867e-05
0.00065002
8.03137e-05
0.00069797
9.38677e-05
0.000747883
0.000108349
0.000799319
0.00012378
0.000851633
0.000140132
0.000903916
0.000157396
0.000954899
0.000175557
0.00100288
0.000194459
0.00104559
0.000214163
0.00108004
0.000234282
0.00110263
0.000254701
0.0011086
0.000274698
0.00109244
0.000294042
0.00104572
0.000311764
0.000959499
0.000323487
0.00081693
0.000598534
0.000320795
-7.85904e-05
2.18727e-05
7.89592e-05
-7.81957e-05
2.36543e-05
-7.77576e-05
2.55824e-05
-7.7293e-05
2.76693e-05
-7.67777e-05
2.99282e-05
-7.62327e-05
3.23737e-05
-7.56312e-05
3.50213e-05
-7.49957e-05
3.78876e-05
-7.42949e-05
4.09883e-05
-7.35554e-05
4.43442e-05
-7.27418e-05
4.79786e-05
-7.18843e-05
5.19124e-05
-7.09406e-05
5.61704e-05
-6.99426e-05
6.07721e-05
-6.88415e-05
6.57509e-05
-6.76757e-05
7.1151e-05
-6.63955e-05
7.69982e-05
-6.50259e-05
8.33087e-05
-6.3521e-05
9.01513e-05
-6.19104e-05
9.75752e-05
-6.01412e-05
0.000105592
-5.8232e-05
0.000114278
-5.61491e-05
0.000123712
-5.38867e-05
0.000133882
-5.14207e-05
0.000144944
-4.87461e-05
0.000156907
-4.58287e-05
0.00016986
-4.26652e-05
0.000183912
-3.92188e-05
0.000199096
-3.54822e-05
0.000215579
-3.14191e-05
0.000233382
-2.70036e-05
0.000252683
-2.21901e-05
0.000273537
-1.69535e-05
0.000296092
-1.12834e-05
0.000320473
-5.13456e-06
0.000346744
1.5229e-06
0.00037511
8.7414e-06
0.000405618
1.65718e-05
0.000438378
2.50507e-05
0.000473526
3.42253e-05
0.000511101
4.41467e-05
0.000551123
5.48559e-05
0.000593611
6.63913e-05
0.00063848
7.87859e-05
0.00068556
9.20749e-05
0.000734572
0.000106264
0.000785082
0.000121385
0.000836454
0.000137421
0.000887788
0.000154375
0.000937825
0.000172233
0.000984898
0.000190831
0.00102676
0.000210221
0.00106055
0.000229999
0.00108263
0.000250048
0.00108855
0.000269661
0.00107266
0.00028854
0.001027
0.000305934
0.000942084
0.000318044
0.00080514
0.000599327
0.000317844
-7.73914e-05
2.15247e-05
7.77426e-05
-7.70161e-05
2.32767e-05
-7.66015e-05
2.51718e-05
-7.61591e-05
2.72221e-05
-7.56677e-05
2.9441e-05
-7.51436e-05
3.1843e-05
-7.45616e-05
3.44437e-05
-7.39419e-05
3.72602e-05
-7.32546e-05
4.03071e-05
-7.25245e-05
4.36059e-05
-7.17193e-05
4.71805e-05
-7.08664e-05
5.10511e-05
-6.99292e-05
5.52418e-05
-6.89351e-05
5.97694e-05
-6.78429e-05
6.46677e-05
-6.66853e-05
6.99847e-05
-6.54198e-05
7.57416e-05
-6.40671e-05
8.19476e-05
-6.2586e-05
8.86789e-05
-6.10035e-05
9.59855e-05
-5.92688e-05
0.000103865
-5.73998e-05
0.000112404
-5.53627e-05
0.000121683
-5.31519e-05
0.000131668
-5.07421e-05
0.000142541
-4.81287e-05
0.000154293
-4.52767e-05
0.000167014
-4.21825e-05
0.000180821
-3.88095e-05
0.000195726
-3.51496e-05
0.00021192
-3.1167e-05
0.000229395
-2.6837e-05
0.000248353
-2.211e-05
0.000268829
-1.69677e-05
0.000290974
-1.1394e-05
0.00031492
-5.3464e-06
0.000340707
1.20442e-06
0.000368565
8.30857e-06
0.000398519
1.60133e-05
0.000430679
2.43532e-05
0.000465193
3.33728e-05
0.00050209
4.31208e-05
0.000541385
5.36362e-05
0.000583108
6.49564e-05
0.000627175
7.71157e-05
0.000673416
9.0152e-05
0.000721555
0.000104078
0.000771162
0.000118931
0.000821605
0.000134702
0.000871987
0.000151394
0.000921069
0.000168984
0.000967199
0.000187299
0.00100819
0.000206373
0.00104125
0.000225809
0.00106286
0.000245477
0.0010686
0.000264721
0.00105294
0.000283173
0.00100815
0.000300259
0.000924388
0.00031319
0.000791678
0.000597222
0.000314506
-7.60786e-05
2.11856e-05
7.64188e-05
-7.5719e-05
2.29132e-05
-7.53224e-05
2.47809e-05
-7.49055e-05
2.68003e-05
-7.44417e-05
2.89843e-05
-7.3951e-05
3.1347e-05
-7.34037e-05
3.39041e-05
-7.28214e-05
3.66725e-05
-7.21699e-05
3.96661e-05
-7.14764e-05
4.2907e-05
-7.07028e-05
4.64199e-05
-6.98819e-05
5.02244e-05
-6.8969e-05
5.43448e-05
-6.80009e-05
5.87951e-05
-6.69266e-05
6.36103e-05
-6.57902e-05
6.88416e-05
-6.45399e-05
7.45069e-05
-6.32072e-05
8.06076e-05
-6.17433e-05
8.72281e-05
-6.01837e-05
9.44186e-05
-5.84724e-05
0.000102165
-5.66326e-05
0.000110558
-5.46277e-05
0.000119687
-5.24551e-05
0.000129492
-5.00882e-05
0.000140183
-4.75233e-05
0.000151729
-4.47255e-05
0.000164223
-4.16908e-05
0.00017779
-3.83834e-05
0.000192422
-3.47941e-05
0.000208333
-3.08891e-05
0.000225486
-2.66401e-05
0.000244108
-2.20047e-05
0.000264209
-1.69565e-05
0.000285954
-1.14856e-05
0.000309469
-5.54747e-06
0.000334778
8.86525e-07
0.000362136
7.86396e-06
0.000391546
1.54299e-05
0.000423118
2.36176e-05
0.000457011
3.24705e-05
0.000493244
4.20365e-05
0.000531826
5.23546e-05
0.000572796
6.34632e-05
0.000616072
7.53988e-05
0.000661481
8.82024e-05
0.000708753
0.000101891
0.000757462
0.000116505
0.000806984
0.000132034
0.000856436
0.00014848
0.0009046
0.000165805
0.000949869
0.000183828
0.000990092
0.00020257
0.00102257
0.000221647
0.00104377
0.000240927
0.00104949
0.000259798
0.00103412
0.000277869
0.000990391
0.000294581
0.000907822
0.000307736
0.000778983
0.000594594
0.000311077
-7.48798e-05
2.08387e-05
7.52295e-05
-7.45138e-05
2.25439e-05
-7.41158e-05
2.43873e-05
-7.3701e-05
2.63801e-05
-7.32464e-05
2.85345e-05
-7.27703e-05
3.08639e-05
-7.22445e-05
3.33834e-05
-7.1689e-05
3.61093e-05
-7.10705e-05
3.90545e-05
-7.04127e-05
4.22412e-05
-6.96794e-05
4.56947e-05
-6.88976e-05
4.94341e-05
-6.80269e-05
5.34836e-05
-6.70959e-05
5.78552e-05
-6.60608e-05
6.25849e-05
-6.49565e-05
6.77279e-05
-6.37392e-05
7.32989e-05
-6.24334e-05
7.92924e-05
-6.09969e-05
8.58005e-05
-5.94613e-05
9.28745e-05
-5.77752e-05
0.000100487
-5.59609e-05
0.000108737
-5.39836e-05
0.000117718
-5.18418e-05
0.000127347
-4.95095e-05
0.000137858
-4.69839e-05
0.000149203
-4.42305e-05
0.000161476
-4.12461e-05
0.000174809
-3.79948e-05
0.000189175
-3.44684e-05
0.000204808
-3.06321e-05
0.000221648
-2.64615e-05
0.000239938
-2.19078e-05
0.000259675
-1.69537e-05
0.000281023
-1.15828e-05
0.000304118
-5.75387e-06
0.000328959
5.61649e-07
0.000355825
7.41023e-06
0.000384702
1.48356e-05
0.000415698
2.28705e-05
0.000448983
3.1558e-05
0.000484565
4.0946e-05
0.000522448
5.10743e-05
0.000562683
6.19823e-05
0.000605184
7.37086e-05
0.000649779
8.62959e-05
0.0006962
9.97632e-05
0.000744026
0.000114151
0.000792639
0.000129445
0.000841169
0.000145643
0.000888423
0.000162693
0.000932818
0.000180412
0.000972268
0.000198808
0.00100412
0.000217524
0.00102495
0.000236413
0.00103053
0.000254921
0.0010154
0.000272639
0.000972509
0.000288953
0.00089118
0.000302258
0.000765391
0.000588511
0.00030791
-7.4016e-05
2.04795e-05
7.43765e-05
-7.36362e-05
2.21597e-05
-7.3222e-05
2.39774e-05
-7.27903e-05
2.59435e-05
-7.23204e-05
2.80697e-05
-7.18304e-05
3.03687e-05
-7.12965e-05
3.28549e-05
-7.07367e-05
3.55438e-05
-7.01213e-05
3.84467e-05
-6.94722e-05
4.15858e-05
-6.87536e-05
4.49863e-05
-6.79929e-05
4.86662e-05
-6.71461e-05
5.26498e-05
-6.6245e-05
5.69463e-05
-6.52387e-05
6.1593e-05
-6.41681e-05
6.66488e-05
-6.2981e-05
7.21256e-05
-6.17085e-05
7.8011e-05
-6.03017e-05
8.44056e-05
-5.87972e-05
9.13615e-05
-5.71398e-05
9.88397e-05
-5.53551e-05
0.000106945
-5.34071e-05
0.000115779
-5.12963e-05
0.000125231
-4.89968e-05
0.000135566
-4.65073e-05
0.000146713
-4.3794e-05
0.000158769
-4.08541e-05
0.000171872
-3.76534e-05
0.000185978
-3.41831e-05
0.00020134
-3.04107e-05
0.000217872
-2.63086e-05
0.00023584
-2.1836e-05
0.000255216
-1.69669e-05
0.000276182
-1.16925e-05
0.000298863
-5.96887e-06
0.000323244
2.31527e-07
0.000349629
6.95453e-06
0.000377982
1.42435e-05
0.000408413
2.21311e-05
0.0004411
3.06603e-05
0.000476042
3.98792e-05
0.000513235
4.98276e-05
0.00055274
6.05463e-05
0.00059447
7.20745e-05
0.000638253
8.44555e-05
0.000683823
9.77086e-05
0.000730766
0.000111872
0.000778475
0.000126928
0.0008261
0.000142868
0.000872474
0.000159634
0.000916059
0.000177039
0.000954801
0.000195089
0.000986134
0.000213444
0.00100663
0.000231961
0.0010122
0.000250122
0.000997325
0.000267523
0.000955417
0.000283463
0.000875408
0.000296995
0.000752318
0.000581425
0.000304754
-7.34622e-05
2.01145e-05
7.38313e-05
-7.30708e-05
2.17652e-05
-7.26427e-05
2.35527e-05
-7.21918e-05
2.5488e-05
-7.17013e-05
2.75825e-05
-7.11879e-05
2.98489e-05
-7.06307e-05
3.23009e-05
-7.00477e-05
3.49535e-05
-6.94127e-05
3.78164e-05
-6.87462e-05
4.09113e-05
-6.80175e-05
4.42634e-05
-6.72492e-05
4.78893e-05
-6.64044e-05
5.18125e-05
-6.5507e-05
5.60396e-05
-6.45143e-05
6.06085e-05
-6.34573e-05
6.55819e-05
-6.22918e-05
7.09682e-05
-6.104e-05
7.67491e-05
-5.9659e-05
8.30327e-05
-5.81794e-05
8.98726e-05
-5.65497e-05
9.72179e-05
-5.47929e-05
0.000105181
-5.28743e-05
0.000113868
-5.07943e-05
0.000123147
-4.85277e-05
0.000133307
-4.60737e-05
0.000144259
-4.33991e-05
0.0001561
-4.05022e-05
0.000168978
-3.73489e-05
0.000182828
-3.39318e-05
0.000197924
-3.02178e-05
0.000214155
-2.61838e-05
0.000231806
-2.17823e-05
0.000250835
-1.69973e-05
0.00027142
-1.18133e-05
0.000293698
-6.19024e-06
0.000317629
-1.00311e-07
0.000343542
6.50216e-06
0.000371383
1.36606e-05
0.000401258
2.14076e-05
0.000433358
2.9786e-05
0.00046767
3.88437e-05
0.000504187
4.86209e-05
0.000542977
5.91583e-05
0.000583952
7.04953e-05
0.000626941
8.26746e-05
0.00067168
9.57145e-05
0.000717763
0.00010965
0.000764592
0.000124461
0.000811333
0.000140135
0.000856847
0.000156605
0.000899622
0.000173692
0.000937663
0.000191396
0.00096843
0.000209407
0.00098859
0.000227569
0.000994036
0.00024541
0.000979383
0.000262524
0.000938224
0.000278143
0.00085958
0.000291827
0.000738444
0.000571838
0.000301132
-7.30496e-05
1.97539e-05
7.34103e-05
-7.26622e-05
2.13723e-05
-7.22312e-05
2.31259e-05
-7.17751e-05
2.50262e-05
-7.1272e-05
2.70847e-05
-7.07432e-05
2.93143e-05
-7.0165e-05
3.17285e-05
-6.95596e-05
3.43421e-05
-6.88989e-05
3.71636e-05
-6.82086e-05
4.02145e-05
-6.74548e-05
4.35196e-05
-6.66673e-05
4.70944e-05
-6.58034e-05
5.09613e-05
-6.48958e-05
5.51238e-05
-6.38939e-05
5.96205e-05
-6.28376e-05
6.45166e-05
-6.16741e-05
6.9818e-05
-6.04331e-05
7.54989e-05
-5.90648e-05
8.16758e-05
-5.7604e-05
8.8403e-05
-5.59951e-05
9.56185e-05
-5.42631e-05
0.000103441
-5.23712e-05
0.000111984
-5.03209e-05
0.000121092
-4.80863e-05
0.000131079
-4.56672e-05
0.000141839
-4.30309e-05
0.00015347
-4.01757e-05
0.000166126
-3.70691e-05
0.000179724
-3.37031e-05
0.00019456
-3.0047e-05
0.000210495
-2.60744e-05
0.000227837
-2.17462e-05
0.00024652
-1.7038e-05
0.000266738
-1.19416e-05
0.000288619
-6.41486e-06
0.000312109
-4.30685e-07
0.000337561
6.05637e-06
0.000364898
1.309e-05
0.000394228
2.07026e-05
0.00042575
2.89366e-05
0.000459441
3.78395e-05
0.000495288
4.74512e-05
0.000533369
5.78119e-05
0.000573595
6.89605e-05
0.000615793
8.09379e-05
0.000659705
9.37613e-05
0.000704931
0.000107463
0.000750889
0.000122018
0.000796762
0.000137415
0.000841439
0.000153583
0.000883448
0.00017035
0.000920828
0.000187716
0.000951105
0.000205394
0.000970944
0.000223226
0.00097635
0.000240768
0.000961917
0.000257633
0.000921615
0.000272973
0.000844392
0.000286616
0.000725218
0.000562229
0.000296824
-7.26173e-05
1.94051e-05
7.29697e-05
-7.22393e-05
2.09903e-05
-7.1818e-05
2.27085e-05
-7.13683e-05
2.45711e-05
-7.08697e-05
2.65902e-05
-7.03408e-05
2.87787e-05
-6.97589e-05
3.11506e-05
-6.91449e-05
3.37207e-05
-6.84725e-05
3.64967e-05
-6.77659e-05
3.95001e-05
-6.69956e-05
4.2756e-05
-6.6188e-05
4.62785e-05
-6.53079e-05
5.00894e-05
-6.4382e-05
5.4189e-05
-6.33689e-05
5.8616e-05
-6.23009e-05
6.34389e-05
-6.11341e-05
6.86595e-05
-5.98909e-05
7.42457e-05
-5.8528e-05
8.03209e-05
-5.70751e-05
8.69407e-05
-5.54802e-05
9.40313e-05
-5.37654e-05
0.000101719
-5.18954e-05
0.000110121
-4.98706e-05
0.000119062
-4.76654e-05
0.000128881
-4.52793e-05
0.000139452
-4.26799e-05
0.000150876
-3.98659e-05
0.000163314
-3.68044e-05
0.000176666
-3.3489e-05
0.000191246
-2.98877e-05
0.000206891
-2.59788e-05
0.000223929
-2.17167e-05
0.000242277
-1.70864e-05
0.00026213
-1.20736e-05
0.000283624
-6.63964e-06
0.000306682
-7.57394e-07
0.000331681
5.61846e-06
0.000358524
1.25317e-05
0.000387317
2.00143e-05
0.000418271
2.8108e-05
0.000451353
3.68599e-05
0.000486545
4.63089e-05
0.000523933
5.64946e-05
0.000563428
6.74545e-05
0.000604858
7.92279e-05
0.000647967
9.18302e-05
0.000692367
0.000105291
0.000737482
0.000119584
0.000782516
0.000134697
0.000826383
0.00015056
0.000867632
0.00016701
0.000904352
0.000184047
0.000934088
0.00020141
0.000953591
0.000218932
0.000958853
0.000236199
0.000944602
0.000252838
0.000904937
0.000267937
0.000829147
0.000281355
0.00071166
0.000551447
0.000291925
-7.20932e-05
1.90705e-05
7.24293e-05
-7.17318e-05
2.06237e-05
-7.13265e-05
2.23071e-05
-7.08924e-05
2.41319e-05
-7.04083e-05
2.61105e-05
-6.9891e-05
2.82561e-05
-6.93189e-05
3.05829e-05
-6.87103e-05
3.31063e-05
-6.80405e-05
3.58331e-05
-6.73324e-05
3.87852e-05
-6.65568e-05
4.19884e-05
-6.57421e-05
4.54559e-05
-6.4851e-05
4.92088e-05
-6.39156e-05
5.32447e-05
-6.28903e-05
5.76026e-05
-6.18144e-05
6.23534e-05
-6.0639e-05
6.74958e-05
-5.93933e-05
7.29902e-05
-5.80297e-05
7.89675e-05
-5.65819e-05
8.54835e-05
-5.49955e-05
9.24536e-05
-5.32944e-05
0.00010001
-5.14421e-05
0.000108277
-4.94397e-05
0.000117055
-4.7261e-05
0.000126709
-4.49056e-05
0.000137095
-4.23414e-05
0.000148317
-3.95667e-05
0.000160542
-3.65498e-05
0.000173651
-3.3283e-05
0.000187981
-2.97373e-05
0.000203341
-2.58869e-05
0.000220082
-2.16944e-05
0.000238098
-1.71367e-05
0.000257598
-1.22064e-05
0.00027871
-6.86275e-06
0.000301345
-1.0794e-06
0.0003259
5.1885e-06
0.000352258
1.19845e-05
0.000380523
1.93401e-05
0.000410918
2.72963e-05
0.0004434
3.58991e-05
0.000477945
4.51867e-05
0.000514648
5.51974e-05
0.00055342
6.59672e-05
0.000594087
7.75336e-05
0.000636401
8.99106e-05
0.00067998
0.000103126
0.000724263
0.000117152
0.000768471
0.000131979
0.000811541
0.000147539
0.000852058
0.000163678
0.000888135
0.0001804
0.000917383
0.000197462
0.000936553
0.000214698
0.000941732
0.000231706
0.000927659
0.000248138
0.000888715
0.000263022
0.000814401
0.000276125
0.000698936
0.000541391
0.000286722
-7.14582e-05
1.87497e-05
7.17839e-05
-7.11108e-05
2.02729e-05
-7.07232e-05
2.19229e-05
-7.03072e-05
2.37112e-05
-6.98434e-05
2.56499e-05
-6.93461e-05
2.77525e-05
-6.87936e-05
3.00333e-05
-6.82025e-05
3.2508e-05
-6.75483e-05
3.5183e-05
-6.68517e-05
3.80808e-05
-6.60858e-05
4.12278e-05
-6.52751e-05
4.46367e-05
-6.4388e-05
4.83284e-05
-6.34504e-05
5.2298e-05
-6.24253e-05
5.65849e-05
-6.13448e-05
6.12631e-05
-6.01689e-05
6.63273e-05
-5.89204e-05
7.17316e-05
-5.75589e-05
7.76133e-05
-5.61137e-05
8.40289e-05
-5.45351e-05
9.08822e-05
-5.28446e-05
9.83118e-05
-5.10077e-05
0.000106447
-4.90248e-05
0.000115067
-4.68703e-05
0.000124561
-4.45435e-05
0.000134767
-4.20126e-05
0.000145791
-3.92759e-05
0.000157808
-3.63017e-05
0.00017068
-3.30833e-05
0.000184763
-2.959e-05
0.000199845
-2.58009e-05
0.000216293
-2.1672e-05
0.000233987
-1.71889e-05
0.000253136
-1.23385e-05
0.000273877
-7.08325e-06
0.000296095
-1.3967e-06
0.000320215
4.76539e-06
0.000346096
1.14461e-05
0.000373844
1.86762e-05
0.000403691
2.64959e-05
0.000435585
3.49502e-05
0.000469498
4.40762e-05
0.000505534
5.3911e-05
0.000543603
6.44894e-05
0.000583532
7.58471e-05
0.000625078
8.79972e-05
0.000667866
0.000100965
0.000711348
0.000114726
0.000754759
0.000129271
0.000797057
0.000144534
0.000836846
0.000160376
0.000872283
0.000176796
0.00090099
0.000193577
0.0009198
0.000210541
0.000924805
0.000227307
0.000910873
0.000243538
0.000872462
0.000258234
0.000799593
0.000271017
0.000686037
0.000530747
0.000281481
-7.0729e-05
1.84404e-05
7.10386e-05
-7.03979e-05
1.99355e-05
-7.00256e-05
2.15545e-05
-6.9629e-05
2.33085e-05
-6.91837e-05
2.52094e-05
-6.87078e-05
2.72706e-05
-6.81761e-05
2.95066e-05
-6.76073e-05
3.1933e-05
-6.69735e-05
3.45559e-05
-6.62978e-05
3.73983e-05
-6.55488e-05
4.04873e-05
-6.47553e-05
4.38353e-05
-6.38794e-05
4.74633e-05
-6.29542e-05
5.1364e-05
-6.19351e-05
5.55778e-05
-6.08627e-05
6.01812e-05
-5.96902e-05
6.51661e-05
-5.8448e-05
7.04797e-05
-5.70911e-05
7.62663e-05
-5.56537e-05
8.25823e-05
-5.4084e-05
8.93208e-05
-5.2406e-05
9.6626e-05
-5.05845e-05
0.000104632
-4.86209e-05
0.000113098
-4.64896e-05
0.000122436
-4.41904e-05
0.000132467
-4.16917e-05
0.000143298
-3.89916e-05
0.00015511
-3.60594e-05
0.00016775
-3.28874e-05
0.000181593
-2.94475e-05
0.000196401
-2.57148e-05
0.000212563
-2.16531e-05
0.000229939
-1.72404e-05
0.000248748
-1.24696e-05
0.000269121
-7.30132e-06
0.000290932
-1.70998e-06
0.000314624
4.34786e-06
0.000340039
1.09145e-05
0.000367279
1.80202e-05
0.000396587
2.5704e-05
0.000427904
3.40101e-05
0.000461194
4.29745e-05
0.000496571
5.26331e-05
0.000533945
6.30197e-05
0.000573144
7.41685e-05
0.000613928
8.60921e-05
0.000655933
9.88158e-05
0.000698619
0.000112315
0.000741239
0.000126585
0.000782771
0.000141562
0.000821847
0.000157119
0.000856647
0.000173256
0.00088485
0.000189769
0.000903302
0.00020648
0.000908176
0.000223013
0.000894393
0.000239047
0.000856595
0.000253571
0.000785193
0.00026609
0.000673859
0.000520937
0.000276389
-6.99195e-05
1.81407e-05
7.02232e-05
-6.95982e-05
1.96096e-05
-6.92394e-05
2.11996e-05
-6.88579e-05
2.29213e-05
-6.84312e-05
2.47866e-05
-6.79759e-05
2.68085e-05
-6.7467e-05
2.90014e-05
-6.69224e-05
3.13809e-05
-6.63138e-05
3.39525e-05
-6.56628e-05
3.67395e-05
-6.49393e-05
3.97699e-05
-6.41681e-05
4.30558e-05
-6.33154e-05
4.66182e-05
-6.24082e-05
5.0448e-05
-6.14086e-05
5.45862e-05
-6.035e-05
5.91129e-05
-5.91927e-05
6.40167e-05
-5.79616e-05
6.92388e-05
-5.66176e-05
7.49296e-05
-5.51912e-05
8.11467e-05
-5.36349e-05
8.77715e-05
-5.19711e-05
9.49545e-05
-5.01667e-05
0.000102835
-4.8223e-05
0.000111149
-4.61153e-05
0.000120335
-4.38434e-05
0.000130194
-4.13764e-05
0.000140836
-3.87126e-05
0.000152448
-3.58211e-05
0.000164861
-3.26957e-05
0.000178468
-2.93063e-05
0.000193009
-2.5633e-05
0.000208889
-2.16331e-05
0.000225956
-1.72928e-05
0.000244428
-1.25997e-05
0.000264444
-7.51728e-06
0.000285855
-2.02003e-06
0.000309127
3.93455e-06
0.000334084
1.03879e-05
0.000360826
1.73695e-05
0.000389607
2.49178e-05
0.000420359
3.30758e-05
0.000453042
4.18787e-05
0.000487779
5.13616e-05
0.000524478
6.15573e-05
0.00056297
7.24992e-05
0.000603019
8.41998e-05
0.000644267
9.66842e-05
0.000686186
0.00010993
0.000728041
0.000123935
0.000768828
0.000138641
0.000807195
0.000153929
0.000841358
0.000169798
0.000869011
0.000186059
0.000887077
0.000202528
0.00089175
0.000218837
0.000878082
0.00023467
0.00084075
0.000249037
0.000770738
0.000261361
0.000661433
0.000510619
0.000271513
-6.90546e-05
1.78485e-05
6.93484e-05
-6.87437e-05
1.92927e-05
-6.83957e-05
2.08555e-05
-6.80271e-05
2.25471e-05
-6.76154e-05
2.43791e-05
-6.71766e-05
2.63642e-05
-6.66875e-05
2.85164e-05
-6.61641e-05
3.08514e-05
-6.55796e-05
3.33737e-05
-6.49541e-05
3.61069e-05
-6.42569e-05
3.90798e-05
-6.35133e-05
4.2304e-05
-6.26862e-05
4.58005e-05
-6.1806e-05
4.95585e-05
-6.08293e-05
5.36202e-05
-5.97947e-05
5.80684e-05
-5.86571e-05
6.28895e-05
-5.74467e-05
6.80184e-05
-5.61205e-05
7.36126e-05
-5.47128e-05
7.97297e-05
-5.31744e-05
8.6241e-05
-5.15299e-05
9.33022e-05
-4.97458e-05
0.000101057
-4.78247e-05
0.000109223
-4.57424e-05
0.000118259
-4.34989e-05
0.000127949
-4.10642e-05
0.000138406
-3.84364e-05
0.000149823
-3.55862e-05
0.000162013
-3.2506e-05
0.000175389
-2.91687e-05
0.000189668
-2.55504e-05
0.000205274
-2.1616e-05
0.000222034
-1.73445e-05
0.000240179
-1.27291e-05
0.000259843
-7.73157e-06
0.000280862
-2.32743e-06
0.000303724
3.52485e-06
0.000328232
9.8657e-06
0.000354485
1.67241e-05
0.00038275
2.41376e-05
0.000412947
3.21485e-05
0.000445032
4.07911e-05
0.000479137
5.00999e-05
0.00051517
6.01072e-05
0.00055296
7.08459e-05
0.000592279
8.23285e-05
0.000632774
9.4581e-05
0.000673927
0.000107583
0.000715018
0.000121336
0.000755058
0.000135784
0.000792722
0.000150816
0.000826245
0.000166434
0.000853377
0.000182455
0.000871063
0.000198692
0.000875573
0.00021478
0.000862036
0.000230409
0.000825258
0.000244622
0.00075664
0.000256814
0.000649554
0.000501027
0.000266857
-6.81462e-05
1.75631e-05
6.8437e-05
-6.78412e-05
1.89837e-05
-6.75026e-05
2.05206e-05
-6.71441e-05
2.21836e-05
-6.67456e-05
2.3984e-05
-6.63222e-05
2.59343e-05
-6.58509e-05
2.80481e-05
-6.53476e-05
3.03408e-05
-6.47858e-05
3.28161e-05
-6.41843e-05
3.54977e-05
-6.3514e-05
3.84147e-05
-6.27968e-05
4.15784e-05
-6.19994e-05
4.50099e-05
-6.11462e-05
4.86964e-05
-6.01997e-05
5.26811e-05
-5.91913e-05
5.70504e-05
-5.80821e-05
6.17877e-05
-5.68962e-05
6.68227e-05
-5.55956e-05
7.23191e-05
-5.4211e-05
7.83358e-05
-5.26965e-05
8.47333e-05
-5.10752e-05
9.16732e-05
-4.93157e-05
9.93043e-05
-4.74202e-05
0.000107323
-4.53658e-05
0.00011621
-4.31526e-05
0.000125734
-4.07514e-05
0.000136009
-3.8161e-05
0.000147234
-3.53519e-05
0.000159206
-3.23181e-05
0.000172355
-2.90308e-05
0.000186377
-2.54709e-05
0.000201713
-2.15973e-05
0.000218176
-1.73967e-05
0.000235998
-1.28573e-05
0.000255318
-7.94395e-06
0.000275953
-2.63209e-06
0.000298412
3.11869e-06
0.00032248
9.34789e-06
0.000348256
1.60839e-05
0.000376015
2.33637e-05
0.000405671
3.12288e-05
0.000437173
3.97131e-05
0.000470663
4.88506e-05
0.000506048
5.86733e-05
0.000543158
6.92138e-05
0.000581769
8.04855e-05
0.000621534
9.25148e-05
0.000661946
0.000105285
0.000702294
0.000118797
0.000741606
0.000133001
0.00077857
0.000147794
0.000811457
0.000163171
0.000838033
0.000178962
0.000855314
0.000194973
0.000859608
0.000210845
0.000846172
0.000226262
0.000809832
0.000240323
0.000742503
0.00025242
0.00063736
0.000490915
0.000262372
-6.72114e-05
1.72831e-05
6.74922e-05
-6.69155e-05
1.86809e-05
-6.65838e-05
2.01929e-05
-6.62354e-05
2.18288e-05
-6.5846e-05
2.35994e-05
-6.54347e-05
2.55169e-05
-6.49764e-05
2.75946e-05
-6.44895e-05
2.98476e-05
-6.39456e-05
3.22784e-05
-6.33659e-05
3.4911e-05
-6.27182e-05
3.77747e-05
-6.20282e-05
4.08802e-05
-6.12571e-05
4.42485e-05
-6.04348e-05
4.78649e-05
-5.95167e-05
5.17737e-05
-5.85401e-05
5.60642e-05
-5.74599e-05
6.07177e-05
-5.63051e-05
6.56582e-05
-5.50334e-05
7.10564e-05
-5.36783e-05
7.69716e-05
-5.21923e-05
8.32549e-05
-5.05998e-05
9.00732e-05
-4.88691e-05
9.75802e-05
-4.70034e-05
0.000105452
-4.49801e-05
0.000114192
-4.27998e-05
0.000123553
-4.04345e-05
0.000133648
-3.78825e-05
0.000144684
-3.51162e-05
0.000156441
-3.21285e-05
0.000169369
-2.88935e-05
0.000183138
-2.53885e-05
0.000198211
-2.15796e-05
0.000214379
-1.74469e-05
0.000231887
-1.29837e-05
0.000250869
-8.15373e-06
0.000271127
-2.93325e-06
0.000293191
2.7171e-06
0.000316829
8.83591e-06
0.000342137
1.5451e-05
0.000369401
2.2599e-05
0.000398524
3.03208e-05
0.000429452
3.86497e-05
0.000462334
4.76197e-05
0.000497077
5.72626e-05
0.000533512
6.76111e-05
0.000571419
7.86794e-05
0.000610456
9.04947e-05
0.000650125
0.000103042
0.000689726
0.000116327
0.000728304
0.0001303
0.00076457
0.000144864
0.000796815
0.000160011
0.000822857
0.000175578
0.000839747
0.000191368
0.00084386
0.000207022
0.000830552
0.000222224
0.000794738
0.000236125
0.000728709
0.000248142
0.00062563
0.000481469
0.000258009
-6.62529e-05
1.70085e-05
6.65321e-05
-6.59611e-05
1.83841e-05
-6.56362e-05
1.9872e-05
-6.52948e-05
2.14817e-05
-6.4915e-05
2.32236e-05
-6.45147e-05
2.51097e-05
-6.40692e-05
2.71529e-05
-6.35972e-05
2.9368e-05
-6.30704e-05
3.17566e-05
-6.25097e-05
3.43425e-05
-6.18843e-05
3.71554e-05
-6.12174e-05
4.02051e-05
-6.04739e-05
4.35124e-05
-5.96784e-05
4.70607e-05
-5.8792e-05
5.08951e-05
-5.78453e-05
5.51081e-05
-5.67985e-05
5.96785e-05
-5.56751e-05
6.45253e-05
-5.44369e-05
6.98253e-05
-5.31136e-05
7.56393e-05
-5.16604e-05
8.18083e-05
-5.00999e-05
8.85053e-05
-4.8402e-05
9.58884e-05
-4.65695e-05
0.000103614
-4.45806e-05
0.000112209
-4.24362e-05
0.000121407
-4.01089e-05
0.000131325
-3.75978e-05
0.000142175
-3.48752e-05
0.000153721
-3.19356e-05
0.000166429
-2.87517e-05
0.000179952
-2.53054e-05
0.000194764
-2.15573e-05
0.000210646
-1.74947e-05
0.000227843
-1.31066e-05
0.000246494
-8.35929e-06
0.000266383
-3.22935e-06
0.00028806
2.32161e-06
0.000311277
8.33139e-06
0.000336127
1.48274e-05
0.000362905
2.18457e-05
0.000391508
2.94269e-05
0.000421876
3.76042e-05
0.000454166
4.64111e-05
0.000488284
5.58798e-05
0.000524063
6.6043e-05
0.000561284
7.69158e-05
0.000599613
8.85264e-05
0.000638559
0.000100862
0.000677434
0.00011393
0.000715295
0.000127682
0.000750869
0.000142027
0.000782479
0.000156953
0.000807965
0.000172301
0.000824443
0.000187869
0.000828337
0.000203306
0.000815129
0.000218287
0.000779752
0.000232021
0.00071491
0.00024395
0.000613609
0.000471547
0.000253714
-6.52841e-05
1.67384e-05
6.55563e-05
-6.49988e-05
1.80924e-05
-6.46796e-05
1.95569e-05
-6.43449e-05
2.11411e-05
-6.39724e-05
2.28555e-05
-6.35799e-05
2.47115e-05
-6.31446e-05
2.67219e-05
-6.26837e-05
2.89009e-05
-6.21711e-05
3.12494e-05
-6.16267e-05
3.3791e-05
-6.102e-05
3.65554e-05
-6.03752e-05
3.95519e-05
-5.96548e-05
4.28008e-05
-5.88871e-05
4.62835e-05
-5.80279e-05
5.0046e-05
-5.7113e-05
5.41833e-05
-5.60971e-05
5.86724e-05
-5.50079e-05
6.34264e-05
-5.38032e-05
6.86292e-05
-5.25151e-05
7.43423e-05
-5.10969e-05
8.03975e-05
-4.95722e-05
8.69732e-05
-4.79103e-05
9.42327e-05
-4.61144e-05
0.000101814
-4.41631e-05
0.000110263
-4.20575e-05
0.0001193
-3.97709e-05
0.000129043
-3.73025e-05
0.000139708
-3.4626e-05
0.000151046
-3.1735e-05
0.00016354
-2.86051e-05
0.000176817
-2.52147e-05
0.000191376
-2.15315e-05
0.000206974
-1.75366e-05
0.000223868
-1.3224e-05
0.000242194
-8.55864e-06
0.000261721
-3.51829e-06
0.000283019
1.93463e-06
0.000305823
7.83716e-06
0.000330224
1.42163e-05
0.000356526
2.11079e-05
0.000384617
2.85521e-05
0.000414432
3.65818e-05
0.000446136
4.52308e-05
0.000479635
5.45312e-05
0.000514759
6.45159e-05
0.000551297
7.5201e-05
0.000588917
8.66152e-05
0.000627138
9.87483e-05
0.000665281
0.000111608
0.000702418
0.000125148
0.0007373
0.000139281
0.000768271
0.00015399
0.000793221
0.00016912
0.000809306
0.000184468
0.000813017
0.000199683
0.00079994
0.000214439
0.000765085
0.000227993
0.000701458
0.000239818
0.000602054
0.000462307
0.000249459
-6.43062e-05
1.64733e-05
6.45771e-05
-6.40242e-05
1.7806e-05
-6.37109e-05
1.92475e-05
-6.33819e-05
2.08069e-05
-6.30171e-05
2.24942e-05
-6.26331e-05
2.43209e-05
-6.22075e-05
2.62994e-05
-6.17578e-05
2.84438e-05
-6.12579e-05
3.07537e-05
-6.07276e-05
3.32528e-05
-6.01378e-05
3.5971e-05
-5.9511e-05
3.89166e-05
-5.88129e-05
4.21096e-05
-5.80677e-05
4.55294e-05
-5.72364e-05
4.92222e-05
-5.6349e-05
5.32864e-05
-5.53652e-05
5.7696e-05
-5.43079e-05
6.23595e-05
-5.31384e-05
6.74667e-05
-5.18852e-05
7.30803e-05
-5.0504e-05
7.90228e-05
-4.90164e-05
8.54785e-05
-4.73928e-05
9.26151e-05
-4.56359e-05
0.000100052
-4.37248e-05
0.000108358
-4.16604e-05
0.000117235
-3.94169e-05
0.000126803
-3.69937e-05
0.000137287
-3.43645e-05
0.000148419
-3.15246e-05
0.0001607
-2.84479e-05
0.000173738
-2.51176e-05
0.000188045
-2.1496e-05
0.000203367
-1.75713e-05
0.000219961
-1.33331e-05
0.000237969
-8.74917e-06
0.00025714
-3.7975e-06
0.000278066
1.55867e-06
0.000300465
7.35578e-06
0.000324426
1.36205e-05
0.000350262
2.03883e-05
0.000377852
2.76991e-05
0.000407126
3.55857e-05
0.000438258
4.40818e-05
0.000471152
5.32198e-05
0.000505639
6.30326e-05
0.00054151
7.35371e-05
0.000578441
8.47628e-05
0.000615955
9.6701e-05
0.000653385
0.00010936
0.000689817
0.000122695
0.000724016
0.000136621
0.000754359
0.000151116