/*--------------------------------*- C++ -*----------------------------------*\
  =========                 |
  \\      /  F ield         | OpenFOAM: The Open Source CFD Toolbox
   \\    /   O peration     | Website:  https://openfoam.org
    \\  /    A nd           | Version:  6.0
     \\/     M anipulation  |
\*---------------------------------------------------------------------------*/
FoamFile
{
    version     2.0;
    format      ascii;
    class       volVectorField;
    location    "350";
    object      U;
}
// * * * * * * * * * * * * * * * * * * * * * * * * * * * * * * * * * * * * * //

dimensions      [0 1 -1 0 0 0 0];

internalField   nonuniform List<vector> 
9800
(
(20.4885 4.8959 -1.33793e-15)
(20.5899 4.8186 -8.63144e-16)
(20.6688 4.73135 2.38156e-15)
(20.7354 4.6381 1.01563e-15)
(20.7934 4.54228 -2.93469e-15)
(20.8454 4.44598 1.79045e-15)
(20.8933 4.35033 -7.34606e-16)
(20.9379 4.2559 -7.83004e-16)
(20.9801 4.16287 1.51264e-15)
(21.0202 4.07114 -1.0266e-15)
(21.0592 3.9813 4.87254e-16)
(21.0971 3.89281 6.6787e-17)
(21.134 3.80581 -6.37175e-16)
(21.1698 3.72019 4.50591e-16)
(21.2048 3.63592 -1.71849e-16)
(21.2386 3.55298 -7.25679e-17)
(21.2713 3.4714 -1.23001e-16)
(21.3023 3.39128 2.95302e-16)
(21.3313 3.31289 -5.62833e-16)
(21.3573 3.23674 -1.32852e-16)
(21.3789 3.16394 8.85662e-16)
(21.3943 3.09712 2.60145e-16)
(21.4012 3.04106 -2.03755e-16)
(21.406 2.99244 -1.55609e-16)
(21.4109 2.93626 -1.15906e-15)
(21.4108 2.86735 1.64818e-15)
(21.4063 2.79072 9.862e-17)
(21.3986 2.7095 -2.3325e-15)
(21.3885 2.62516 -1.13703e-16)
(21.3769 2.53843 2.2665e-15)
(21.3642 2.44955 -6.48946e-16)
(21.3511 2.35922 -9.6158e-16)
(21.3374 2.26711 1.02596e-15)
(21.3234 2.17323 8.15275e-16)
(21.3091 2.07759 1.233e-15)
(21.2946 1.98014 -1.64399e-15)
(21.2799 1.8808 2.41971e-16)
(21.265 1.77949 -7.75323e-16)
(21.2499 1.67607 -3.28659e-16)
(21.2346 1.57042 -8.38696e-16)
(21.219 1.46238 1.02888e-15)
(21.203 1.35178 7.7741e-16)
(21.1867 1.23843 7.12409e-16)
(21.1698 1.12213 9.18048e-16)
(21.1524 1.00264 -4.64685e-15)
(21.1344 0.879706 1.25638e-15)
(21.1157 0.753033 3.2595e-15)
(21.0961 0.622315 -1.83374e-15)
(21.0755 0.487182 -1.27614e-15)
(21.0538 0.347249 1.59552e-15)
(21.0308 0.202052 -4.31262e-15)
(21.0064 0.0510937 -2.75985e-16)
(20.9802 -0.106226 3.5489e-15)
(20.9522 -0.27056 -9.77024e-17)
(20.9219 -0.442703 -1.9999e-16)
(20.889 -0.623535 -2.85414e-15)
(20.8529 -0.814126 4.59612e-15)
(20.8131 -1.01571 -2.65613e-15)
(20.7688 -1.22978 -3.40443e-16)
(20.7186 -1.45813 1.85828e-15)
(20.6609 -1.70297 1.55635e-15)
(20.5934 -1.967 -3.05581e-15)
(20.5123 -2.25346 1.52806e-15)
(20.4118 -2.56711 -1.93184e-15)
(20.2828 -2.91391 1.85317e-15)
(20.111 -3.30267 -1.43633e-15)
(19.8716 -3.74615 3.03668e-15)
(19.5288 -4.26518 -3.18532e-15)
(18.9951 -4.90551 2.65272e-15)
(18.2347 -5.69253 -4.35619e-15)
(16.6733 -7.13483 2.19823e-15)
(15.3018 -7.75536 -1.98237e-16)
(13.7619 -8.60236 5.49747e-15)
(12.8672 -8.65378 -8.9286e-15)
(12.4941 -8.22632 1.66348e-15)
(12.2313 -7.9213 7.201e-16)
(11.9559 -7.60482 1.93622e-16)
(11.6911 -7.30335 -1.83471e-15)
(11.4553 -7.02365 -8.26899e-16)
(11.2371 -6.76274 -2.95365e-15)
(11.0258 -6.51251 1.60618e-15)
(10.8228 -6.26939 -1.88182e-15)
(10.6331 -6.03328 3.91583e-15)
(10.4562 -5.80423 -3.18746e-16)
(10.2875 -5.58135 3.53981e-15)
(10.1216 -5.36334 -7.62361e-16)
(9.95494 -5.14899 -2.47864e-15)
(9.78621 -4.93712 -1.76169e-15)
(9.6153 -4.72627 5.27391e-15)
(9.44241 -4.51457 -8.32321e-16)
(9.26731 -4.29965 -2.15682e-15)
(9.08905 -4.07871 1.96589e-15)
(8.90598 -3.8486 -2.37273e-15)
(8.71621 -3.6059 3.24288e-15)
(8.51777 -3.34688 -5.26127e-16)
(8.30909 -3.06748 -5.63385e-16)
(8.08803 -2.7637 -1.49287e-15)
(7.85525 -2.42559 2.24039e-15)
(7.59926 -2.09508 -5.73557e-16)
(7.3595 -1.02831 3.81146e-17)
(17.6156 5.48617 1.194e-15)
(17.6563 5.36499 8.09683e-16)
(17.6917 5.23485 -7.13866e-16)
(17.7268 5.10196 5.08972e-16)
(17.7598 4.96594 -1.47668e-15)
(17.7903 4.82803 7.16571e-16)
(17.8182 4.6889 -1.3507e-16)
(17.8437 4.54919 1.69186e-15)
(17.8668 4.40932 -3.1022e-15)
(17.8875 4.26936 4.46296e-16)
(17.9059 4.12949 2.11987e-16)
(17.9229 3.99009 5.41039e-16)
(17.9382 3.85142 -8.18867e-17)
(17.9518 3.71345 -5.04429e-16)
(17.9635 3.57634 5.25622e-16)
(17.9733 3.44033 2.07848e-17)
(17.9811 3.30578 -2.73205e-16)
(17.9865 3.17325 4.97857e-16)
(17.9893 3.04358 -1.33206e-15)
(17.9891 2.91791 1.50126e-15)
(17.9857 2.79764 -6.00206e-16)
(17.9793 2.68544 -2.31339e-15)
(17.9731 2.58824 9.26877e-17)
(17.9808 2.50385 -2.85743e-16)
(18.0055 2.41202 3.33315e-15)
(18.0351 2.30564 -5.05864e-16)
(18.0644 2.19004 -2.35025e-15)
(18.0923 2.06789 -2.87674e-15)
(18.1185 1.94072 3.58609e-15)
(18.1433 1.80981 5.58676e-16)
(18.1665 1.67585 1.25389e-15)
(18.1883 1.53945 2.39159e-15)
(18.209 1.40105 -2.45933e-15)
(18.2287 1.2609 -2.49373e-16)
(18.2473 1.11911 -2.33927e-15)
(18.2649 0.9757 2.55961e-15)
(18.2816 0.830632 1.10364e-15)
(18.2973 0.683837 -2.42819e-15)
(18.312 0.535189 1.90755e-16)
(18.3259 0.384553 -9.79704e-16)
(18.3388 0.231744 5.24656e-16)
(18.3507 0.076576 -5.72342e-15)
(18.3616 -0.0811822 1.10165e-14)
(18.3715 -0.241763 -6.85689e-15)
(18.3803 -0.405448 -2.10538e-15)
(18.388 -0.572521 2.14252e-15)
(18.3944 -0.743316 -5.2249e-15)
(18.3995 -0.918179 2.88289e-15)
(18.4032 -1.09752 1.34988e-15)
(18.4054 -1.28176 5.75456e-15)
(18.406 -1.47141 -8.51647e-15)
(18.4047 -1.66699 9.0949e-15)
(18.4014 -1.86913 -4.53069e-17)
(18.3958 -2.07852 -6.97305e-16)
(18.3878 -2.29592 -4.4831e-16)
(18.3769 -2.52224 -1.35059e-15)
(18.3628 -2.75847 -4.23717e-15)
(18.3451 -3.00577 2.07001e-15)
(18.323 -3.26543 1.75766e-15)
(18.2958 -3.53899 1.87049e-16)
(18.2627 -3.82811 -2.24074e-15)
(18.2224 -4.13486 -9.92228e-16)
(18.1736 -4.4615 3.55183e-15)
(18.1146 -4.81049 -8.30514e-16)
(18.0434 -5.18428 -4.77052e-15)
(17.9573 -5.58559 5.29971e-15)
(17.8527 -6.01601 -4.36596e-15)
(17.7276 -6.47551 6.93251e-15)
(17.5682 -6.96058 -5.00241e-15)
(17.3862 -7.44689 -6.35118e-17)
(17.0901 -7.93617 6.10113e-15)
(16.7758 -8.11702 -2.6697e-15)
(16.3998 -8.00859 -1.54061e-15)
(15.8908 -7.74228 5.55307e-17)
(15.3572 -7.40043 -6.90021e-16)
(14.876 -7.09767 2.02817e-15)
(14.4595 -6.82706 6.84093e-16)
(14.0779 -6.56957 -1.92902e-15)
(13.7172 -6.32045 3.27912e-15)
(13.3769 -6.08032 -1.38377e-15)
(13.0609 -5.84779 4.98116e-16)
(12.7685 -5.6199 -3.33054e-17)
(12.496 -5.39489 -3.50334e-15)
(12.239 -5.1722 -1.82633e-15)
(11.9933 -4.95144 1.60386e-15)
(11.7562 -4.73172 7.63386e-16)
(11.5261 -4.51177 1.17464e-15)
(11.3025 -4.29 -2.80394e-15)
(11.0859 -4.06466 -4.67267e-16)
(10.8765 -3.8339 1.3839e-16)
(10.6743 -3.59585 -1.64649e-15)
(10.4787 -3.34863 4.69669e-15)
(10.2897 -3.09023 -3.73766e-15)
(10.1075 -2.81848 1.53423e-15)
(9.93301 -2.53085 9.60247e-17)
(9.76804 -2.22449 8.55418e-16)
(9.61473 -1.89613 2.14071e-17)
(9.47846 -1.54164 -1.62919e-15)
(9.35826 -1.15847 1.52192e-16)
(9.29024 -0.728211 1.62488e-16)
(18.8514 5.26849 -2.83178e-15)
(18.8591 5.12555 1.26876e-15)
(18.866 4.99433 -9.38267e-16)
(18.8741 4.87052 9.91382e-17)
(18.882 4.75169 -4.00221e-16)
(18.8891 4.63629 1.86995e-15)
(18.895 4.52308 -1.13172e-15)
(18.8991 4.41127 1.34539e-15)
(18.9012 4.30048 -1.37074e-17)
(18.9014 4.19034 -2.3019e-15)
(18.8996 4.0799 1.84049e-15)
(18.8955 3.9704 -6.32668e-16)
(18.8891 3.86074 6.43375e-17)
(18.8804 3.75101 1.67101e-16)
(18.8694 3.64115 -1.58131e-16)
(18.8561 3.5311 -2.57082e-17)
(18.8408 3.42076 -2.54515e-16)
(18.8236 3.30999 2.49689e-16)
(18.8049 3.19855 7.19033e-16)
(18.7853 3.086 -2.58698e-16)
(18.7659 2.97123 -3.84319e-17)
(18.7489 2.85208 -1.27927e-15)
(18.7398 2.72856 -1.58684e-15)
(18.7524 2.60602 2.56558e-15)
(18.7867 2.48805 -5.27561e-16)
(18.8285 2.37612 2.20245e-15)
(18.8718 2.26888 -2.08344e-15)
(18.9149 2.16369 2.7445e-15)
(18.957 2.05905 -4.48169e-15)
(18.9978 1.95437 1.54387e-15)
(19.0368 1.84942 -6.78592e-16)
(19.0736 1.74326 1.69929e-16)
(19.1084 1.63675 2.10938e-15)
(19.1413 1.52938 6.39879e-16)
(19.1721 1.42102 1.75377e-15)
(19.2009 1.31163 -2.72535e-15)
(19.2275 1.20109 -9.42199e-16)
(19.2521 1.08929 3.43619e-15)
(19.2745 0.976094 -1.71352e-15)
(19.2949 0.861367 2.03799e-15)
(19.3132 0.74495 -1.30753e-15)
(19.3293 0.62668 9.45163e-16)
(19.3433 0.506372 -3.27655e-15)
(19.3551 0.383833 -2.92787e-15)
(19.3645 0.258846 2.90568e-15)
(19.3717 0.131186 1.87467e-15)
(19.3763 0.000601295 3.11439e-15)
(19.3783 -0.133172 -4.03272e-15)
(19.3776 -0.270425 -6.11179e-16)
(19.3739 -0.411476 2.87016e-15)
(19.3669 -0.556659 -8.16852e-16)
(19.3564 -0.70636 3.62506e-15)
(19.342 -0.860962 -7.80045e-16)
(19.3232 -1.02093 -2.51199e-15)
(19.2997 -1.1867 7.9868e-16)
(19.2707 -1.35881 -3.27898e-15)
(19.2354 -1.53774 5.5582e-15)
(19.193 -1.72411 -2.17692e-15)
(19.1423 -1.91842 -2.03571e-15)
(19.0819 -2.12129 1.77983e-15)
(19.01 -2.33315 -2.3509e-16)
(18.9245 -2.55448 -3.60818e-15)
(18.8224 -2.78551 2.78022e-15)
(18.7004 -3.02618 1.8695e-16)
(18.554 -3.27609 1.89283e-15)
(18.3775 -3.53428 -3.04295e-15)
(18.1633 -3.79875 2.56943e-15)
(17.9028 -4.06634 -2.05311e-15)
(17.5836 -4.33176 -2.30214e-15)
(17.1958 -4.58783 4.92735e-15)
(16.724 -4.82013 -4.08425e-15)
(16.1776 -5.01043 4.76389e-15)
(15.6082 -5.14303 2.33997e-15)
(15.0659 -5.22123 -7.2634e-15)
(14.5866 -5.23873 2.93205e-15)
(14.1684 -5.21299 2.06093e-16)
(13.7896 -5.15628 -2.83354e-15)
(13.4366 -5.07483 1.89614e-15)
(13.1099 -4.97337 2.92737e-15)
(12.8143 -4.85691 -1.75807e-15)
(12.5462 -4.72806 -7.80437e-16)
(12.2979 -4.58835 1.36278e-15)
(12.063 -4.43953 1.61847e-15)
(11.838 -4.28354 -7.62906e-15)
(11.622 -4.12193 3.88302e-15)
(11.4144 -3.95538 2.4016e-15)
(11.2156 -3.78399 -2.66004e-15)
(11.0262 -3.60746 -9.93129e-16)
(10.8466 -3.42534 2.46403e-15)
(10.6766 -3.23713 -2.91538e-15)
(10.5158 -3.04236 3.52687e-16)
(10.364 -2.84057 3.14193e-15)
(10.2218 -2.63122 -7.35237e-16)
(10.0901 -2.41366 -4.51807e-16)
(9.97064 -2.18715 -1.32793e-15)
(9.86549 -1.95091 1.50199e-15)
(9.77747 -1.70436 2.30891e-16)
(9.70841 -1.4468 -1.10788e-15)
(9.66722 -1.18017 1.60014e-16)
(9.62868 -0.895394 -5.76813e-17)
(18.591 5.02466 3.63445e-15)
(18.666 4.9159 -2.32466e-15)
(18.7295 4.809 -3.72855e-17)
(18.7848 4.70238 2.94173e-15)
(18.8338 4.59699 -2.82487e-15)
(18.8778 4.49299 -3.56004e-16)
(18.9177 4.39043 4.49606e-16)
(18.9541 4.28927 5.72403e-17)
(18.9873 4.18944 -9.99833e-16)
(19.0181 4.09086 1.40864e-15)
(19.0468 3.99365 -1.14002e-17)
(19.0733 3.89756 -6.93318e-18)
(19.0974 3.80211 -8.54419e-17)
(19.1193 3.70727 1.42343e-16)
(19.139 3.61274 8.57539e-18)
(19.1566 3.51823 3.36437e-17)
(19.1721 3.42335 3.57307e-17)
(19.1856 3.32759 -3.27353e-17)
(19.197 3.23026 3.33014e-16)
(19.2062 3.1306 -1.52336e-16)
(19.2132 3.02767 5.65747e-17)
(19.2186 2.91987 -2.29372e-15)
(19.2246 2.80534 2.3466e-15)
(19.2369 2.68743 4.5648e-16)
(19.255 2.57332 -3.00473e-15)
(19.272 2.46547 1.47409e-15)
(19.2861 2.36181 -1.2084e-15)
(19.2973 2.26054 3.89413e-15)
(19.3057 2.16065 -2.26063e-15)
(19.3117 2.06136 1.02121e-15)
(19.3153 1.96217 -1.94494e-15)
(19.3168 1.86242 -7.80296e-16)
(19.3164 1.76196 1.94763e-15)
(19.3141 1.66032 9.95421e-17)
(19.3099 1.55725 -2.45401e-15)
(19.3038 1.45257 3.00452e-15)
(19.2957 1.34609 -6.07644e-16)
(19.2855 1.23765 -2.40255e-16)
(19.2733 1.12712 -1.19434e-15)
(19.259 1.01436 6.72631e-16)
(19.2424 0.899216 6.8437e-16)
(19.2235 0.781555 8.63647e-16)
(19.2023 0.661225 2.89156e-15)
(19.1785 0.538071 -8.49528e-15)
(19.152 0.411927 1.56801e-15)
(19.1226 0.282618 6.17047e-15)
(19.0902 0.149965 -7.98933e-15)
(19.0545 0.013769 -3.22046e-16)
(19.0151 -0.126164 4.67281e-15)
(18.9719 -0.270061 2.21099e-15)
(18.9243 -0.418123 -5.75917e-15)
(18.8721 -0.570603 3.93829e-16)
(18.8147 -0.727703 5.66888e-15)
(18.7516 -0.889687 -1.35646e-15)
(18.6821 -1.05675 -2.30597e-16)
(18.6055 -1.22913 -2.64874e-15)
(18.521 -1.40697 5.00156e-15)
(18.4278 -1.59046 -4.68271e-15)
(18.3246 -1.77961 3.14846e-15)
(18.2103 -1.97447 -4.39848e-16)
(18.0836 -2.17485 -1.53363e-15)
(17.9432 -2.38042 1.54321e-15)
(17.7875 -2.5905 1.02526e-16)
(17.6151 -2.80431 5.54501e-16)
(17.4241 -3.02055 -5.33735e-15)
(17.2135 -3.2373 2.4045e-15)
(16.9821 -3.45189 -2.03991e-15)
(16.7299 -3.66057 2.96352e-15)
(16.4579 -3.85831 2.08223e-15)
(16.1686 -4.03869 -4.89357e-15)
(15.8668 -4.19263 -3.96496e-16)
(15.5577 -4.31263 2.58661e-15)
(15.2482 -4.39133 1.52977e-15)
(14.9396 -4.4294 2.05258e-15)
(14.6338 -4.42986 -3.60039e-15)
(14.3326 -4.40048 2.56724e-15)
(14.0407 -4.34862 4.03079e-16)
(13.7625 -4.2788 -3.15682e-15)
(13.4994 -4.19396 5.54518e-15)
(13.2501 -4.09687 -7.80055e-16)
(13.0118 -3.98999 -1.8601e-15)
(12.7822 -3.87496 -3.89049e-15)
(12.5601 -3.75283 -3.54658e-17)
(12.346 -3.62431 1.15143e-15)
(12.1407 -3.48994 4.30061e-15)
(11.9458 -3.35009 -5.70006e-15)
(11.7624 -3.20484 7.09002e-15)
(11.5906 -3.05413 -2.86666e-15)
(11.43 -2.8979 2.00865e-15)
(11.2801 -2.73613 -3.05e-15)
(11.1402 -2.5688 -2.66031e-16)
(11.0107 -2.39593 2.64243e-15)
(10.892 -2.2175 -2.51858e-15)
(10.7851 -2.03353 1.81867e-15)
(10.6912 -1.84415 1.0385e-15)
(10.6111 -1.64967 -8.9437e-16)
(10.5465 -1.45067 9.68414e-16)
(10.4968 -1.24799 -1.64864e-17)
(10.4692 -1.04381 -3.67139e-16)
(10.4336 -0.83597 -6.89501e-18)
(17.9548 4.89411 -2.46234e-15)
(18.0152 4.79245 2.933e-15)
(18.0718 4.69006 -5.4328e-16)
(18.1252 4.58795 1.36389e-15)
(18.1753 4.4861 -2.0504e-15)
(18.2223 4.38453 2.63227e-15)
(18.2665 4.28334 -7.10045e-16)
(18.3082 4.1826 5.3008e-16)
(18.3475 4.08223 -3.8215e-16)
(18.3848 3.98228 -1.53001e-15)
(18.4204 3.88366 2.04549e-16)
(18.4545 3.78512 2.77068e-16)
(18.4869 3.68724 1.81657e-16)
(18.5177 3.58984 -4.073e-16)
(18.5467 3.49282 2.39866e-16)
(18.5739 3.3961 -3.61961e-17)
(18.5992 3.2996 1.62201e-16)
(18.6223 3.2032 1.13937e-16)
(18.6425 3.10682 -2.7399e-16)
(18.6595 3.01045 -7.62191e-16)
(18.6727 2.91437 9.32072e-16)
(18.6822 2.81921 9.63035e-16)
(18.6894 2.72522 -2.59028e-15)
(18.6978 2.6319 3.70122e-15)
(18.7076 2.53802 -6.45628e-16)
(18.7155 2.44215 -2.1533e-15)
(18.7202 2.34398 -4.81027e-16)
(18.7212 2.24403 3.3586e-15)
(18.719 2.14275 -4.60101e-15)
(18.7142 2.04029 4.0178e-15)
(18.7072 1.9366 -3.8743e-15)
(18.6985 1.83229 6.10728e-15)
(18.6883 1.72655 -5.09414e-15)
(18.6768 1.61964 1.97954e-15)
(18.6639 1.51148 -1.48899e-15)
(18.6498 1.40197 1.85156e-15)
(18.6344 1.29101 1.6542e-15)
(18.6175 1.17855 -5.33374e-15)
(18.5992 1.0645 2.42653e-15)
(18.5794 0.948792 -1.67715e-15)
(18.5578 0.831358 1.08467e-15)
(18.5345 0.712125 -3.31555e-15)
(18.5093 0.591017 4.96161e-15)
(18.482 0.467959 -3.61467e-15)
(18.4525 0.342881 1.89424e-16)
(18.4205 0.215705 1.1513e-15)
(18.3859 0.086368 4.90884e-15)
(18.3484 -0.0452045 -4.11202e-15)
(18.3078 -0.179062 -7.69487e-16)
(18.2638 -0.315271 3.12982e-15)
(18.2162 -0.453854 -6.74058e-15)
(18.1644 -0.594857 6.92148e-15)
(18.1083 -0.73826 -7.03784e-16)
(18.0474 -0.884068 5.31732e-16)
(17.9813 -1.03219 -7.48902e-16)
(17.9095 -1.18256 -4.46609e-15)
(17.8314 -1.33498 5.00698e-15)
(17.7466 -1.48924 2.69016e-15)
(17.6545 -1.64499 -8.18707e-15)
(17.5545 -1.80182 1.91427e-15)
(17.4458 -1.95914 -4.37635e-15)
(17.328 -2.11623 3.32031e-15)
(17.2004 -2.27208 -1.31095e-15)
(17.0624 -2.42563 2.38483e-15)
(16.9132 -2.57554 -3.72002e-15)
(16.7523 -2.72013 1.479e-15)
(16.579 -2.85748 5.68189e-15)
(16.393 -2.98536 1.62882e-15)
(16.194 -3.10138 -5.13645e-15)
(15.9818 -3.20299 4.33217e-15)
(15.7568 -3.28784 -4.24216e-15)
(15.5199 -3.35425 1.28485e-15)
(15.2726 -3.40168 5.56113e-15)
(15.0181 -3.43065 -4.63832e-15)
(14.7615 -3.44234 -2.9843e-15)
(14.5078 -3.43811 2.32946e-15)
(14.2604 -3.41931 -3.29396e-15)
(14.0206 -3.38722 3.43814e-16)
(13.7882 -3.34314 3.18965e-15)
(13.5626 -3.28835 -2.3251e-16)
(13.344 -3.22396 -1.08431e-15)
(13.1329 -3.15076 1.05521e-15)
(12.9302 -3.06929 -2.49029e-15)
(12.737 -2.97993 1.46432e-15)
(12.5542 -2.88309 -3.8949e-15)
(12.3821 -2.77923 3.54869e-15)
(12.2206 -2.6689 -1.55458e-15)
(12.0693 -2.55265 1.50895e-15)
(11.9275 -2.43096 -1.33373e-15)
(11.7949 -2.30427 -1.92016e-15)
(11.6716 -2.17294 9.11802e-16)
(11.5579 -2.03729 2.33668e-15)
(11.4545 -1.89765 -4.68952e-16)
(11.3617 -1.7544 -2.08019e-16)
(11.2802 -1.60802 -9.56486e-16)
(11.21 -1.45913 3.76495e-16)
(11.1517 -1.30849 1.64919e-15)
(11.1042 -1.15691 -1.15002e-15)
(11.0738 -1.00598 2.17618e-16)
(11.0301 -0.855002 -1.70767e-17)
(17.666 4.7618 -5.04036e-15)
(17.7113 4.66436 4.00501e-15)
(17.7535 4.56686 -4.00028e-15)
(17.7934 4.4699 3.47214e-15)
(17.8309 4.37325 -1.40524e-15)
(17.8661 4.27689 1.5104e-15)
(17.899 4.18075 -6.02339e-16)
(17.9298 4.08478 5.6275e-16)
(17.9585 3.98878 -2.11064e-15)
(17.9852 3.89272 5.11512e-16)
(18.0098 3.7973 4.49845e-16)
(18.0326 3.70159 -1.51888e-16)
(18.0535 3.60601 -8.13892e-17)
(18.0724 3.51035 -2.74834e-17)
(18.0893 3.41464 3.68962e-16)
(18.104 3.3189 -1.4518e-16)
(18.1166 3.22319 -2.98703e-16)
(18.1267 3.12756 4.97901e-16)
(18.1342 3.03213 -5.15156e-16)
(18.1389 2.93704 7.32069e-16)
(18.1412 2.84256 -2.11523e-16)
(18.1421 2.74935 -3.33849e-15)
(18.1441 2.65832 4.06497e-15)
(18.1507 2.56916 2.26455e-16)
(18.1626 2.47958 -3.38209e-15)
(18.1763 2.38794 2.52171e-15)
(18.1893 2.29424 -1.70428e-15)
(18.2002 2.19883 3.84582e-15)
(18.2086 2.10192 -2.97736e-15)
(18.2146 2.0037 7.00624e-16)
(18.2183 1.90415 -2.58039e-15)
(18.2202 1.80408 1.71488e-19)
(18.2202 1.70281 -1.09308e-15)
(18.2183 1.60069 3.67128e-15)
(18.2145 1.49777 1.99602e-15)
(18.209 1.39398 -2.01939e-15)
(18.2017 1.28932 -5.9819e-17)
(18.1924 1.18377 -8.27406e-16)
(18.1812 1.07729 -1.20026e-15)
(18.1679 0.969852 3.63537e-15)
(18.1524 0.861411 -2.22348e-15)
(18.1346 0.751928 6.27692e-15)
(18.1143 0.641362 -1.21578e-14)
(18.0915 0.529675 -3.41435e-16)
(18.0659 0.416833 7.78627e-15)
(18.0374 0.302803 2.80833e-15)
(18.0058 0.187566 -1.15855e-15)
(17.9709 0.0710996 -3.35771e-15)
(17.9324 -0.046588 -2.43626e-15)
(17.8901 -0.165502 4.42347e-15)
(17.8438 -0.2856 -2.70892e-15)
(17.7932 -0.406857 -2.80828e-15)
(17.7379 -0.529184 7.85609e-15)
(17.6776 -0.65251 7.77908e-16)
(17.6121 -0.776681 -3.56247e-15)
(17.5408 -0.90156 -1.07648e-15)
(17.4635 -1.0269 4.08606e-15)
(17.3797 -1.15248 -5.36927e-15)
(17.289 -1.27792 -1.36782e-15)
(17.191 -1.40288 9.03599e-16)
(17.0852 -1.52685 2.36352e-15)
(16.9712 -1.64927 -1.31242e-15)
(16.8487 -1.76948 7.49941e-16)
(16.7173 -1.88674 -8.49762e-16)
(16.5767 -2.00029 3.28495e-15)
(16.4265 -2.10918 -3.41891e-15)
(16.2669 -2.21244 3.74239e-15)
(16.0979 -2.30897 -3.91292e-15)
(15.9201 -2.39768 1.92204e-15)
(15.7342 -2.47741 2.66356e-15)
(15.5418 -2.54713 4.03313e-17)
(15.3445 -2.60584 -2.96426e-15)
(15.1444 -2.65276 7.35084e-16)
(14.9437 -2.6873 1.75666e-15)
(14.7441 -2.70927 -5.21104e-15)
(14.5465 -2.71881 5.99987e-15)
(14.3515 -2.71645 -4.02955e-15)
(14.1594 -2.7029 -1.7977e-15)
(13.9707 -2.67895 7.64718e-15)
(13.7862 -2.64531 -2.19489e-15)
(13.6068 -2.60265 2.50993e-15)
(13.4335 -2.55153 -7.36886e-15)
(13.2671 -2.4925 2.88131e-15)
(13.1079 -2.42608 3.47707e-15)
(12.9563 -2.35281 -1.98754e-15)
(12.8121 -2.27327 9.69453e-16)
(12.6752 -2.18807 -7.42776e-16)
(12.5456 -2.09775 -1.7794e-15)
(12.4233 -2.0028 1.39434e-15)
(12.3088 -1.90367 -3.13563e-15)
(12.2023 -1.80071 3.2352e-15)
(12.1042 -1.69432 9.96907e-16)
(12.0148 -1.5849 -2.90492e-15)
(11.9343 -1.47293 7.47986e-16)
(11.8628 -1.35892 -2.36498e-16)
(11.8003 -1.24343 3.65122e-16)
(11.7475 -1.12709 -1.30289e-15)
(11.7029 -1.01044 3.49235e-16)
(11.6727 -0.894534 5.41865e-16)
(11.6287 -0.779594 1.10968e-16)
(17.3821 4.56837 -4.31477e-16)
(17.4328 4.48419 4.99084e-15)
(17.4795 4.39939 -2.81665e-15)
(17.5227 4.31426 1.10002e-15)
(17.5626 4.2288 -2.0422e-15)
(17.5995 4.14305 2.69972e-15)
(17.6336 4.05704 1.05496e-16)
(17.6648 3.97078 -1.96327e-15)
(17.6933 3.88413 1.77747e-15)
(17.7192 3.79711 -1.29732e-15)
(17.7426 3.71043 -9.39525e-16)
(17.7637 3.62334 8.04803e-16)
(17.7823 3.53602 -1.71661e-18)
(17.7984 3.44829 -3.69003e-16)
(17.8121 3.36012 5.64725e-16)
(17.8233 3.27148 -3.4988e-17)
(17.832 3.1823 -2.57775e-16)
(17.838 3.09253 4.76492e-16)
(17.8416 3.00213 -8.86046e-16)
(17.8429 2.91109 1.11125e-15)
(17.8426 2.81941 4.16303e-16)
(17.842 2.72725 -4.23654e-16)
(17.8435 2.63503 2.14418e-15)
(17.8498 2.54332 -3.62197e-15)
(17.8611 2.45209 5.3555e-16)
(17.8747 2.36111 2.69302e-15)
(17.888 2.27019 -5.33549e-16)
(17.8997 2.17911 1.89304e-15)
(17.9092 2.08768 -6.555e-15)
(17.916 1.9958 4.49305e-15)
(17.9204 1.90331 -2.4502e-17)
(17.9224 1.81071 4.67251e-16)
(17.922 1.71739 -2.48638e-15)
(17.9192 1.6235 -1.9775e-15)
(17.9139 1.52904 2.73784e-15)
(17.9063 1.43393 -1.89995e-18)
(17.8963 1.33814 -1.8447e-15)
(17.8838 1.24164 2.31175e-15)
(17.8689 1.14442 -3.35803e-16)
(17.8515 1.04645 1.54136e-15)
(17.8314 0.947701 -2.63534e-15)
(17.8087 0.84816 1.89554e-15)
(17.7831 0.747818 -5.00187e-15)
(17.7547 0.646664 2.43175e-15)
(17.7232 0.544702 6.2509e-16)
(17.6886 0.441938 2.38883e-16)
(17.6508 0.338397 -5.11895e-15)
(17.6095 0.234098 4.57049e-15)
(17.5647 0.129096 4.39719e-15)
(17.5162 0.0234311 -1.34838e-16)
(17.4637 -0.0828018 -5.50999e-15)
(17.4072 -0.189535 3.38022e-15)
(17.3464 -0.29663 -2.57778e-15)
(17.2812 -0.403976 2.46991e-16)
(17.2114 -0.511378 -1.38578e-15)
(17.1367 -0.618671 3.72931e-16)
(17.0569 -0.725596 8.03086e-15)
(16.972 -0.831905 -9.19996e-15)
(16.8816 -0.937265 4.95386e-15)
(16.7857 -1.04134 -5.46006e-15)
(16.6842 -1.14369 7.73156e-16)
(16.5769 -1.24387 2.13922e-15)
(16.4639 -1.34132 3.90627e-15)
(16.3453 -1.43551 -2.22826e-15)
(16.221 -1.52591 -5.52067e-15)
(16.0911 -1.61183 3.88284e-15)
(15.956 -1.69264 1.64058e-15)
(15.8159 -1.76761 4.15239e-15)
(15.6714 -1.8361 4.42716e-16)
(15.5231 -1.8974 -8.48021e-15)
(15.3714 -1.95098 2.6894e-15)
(15.2172 -1.9963 2.56556e-15)
(15.061 -2.03307 4.27293e-15)
(14.9033 -2.06108 -9.04291e-16)
(14.7449 -2.08039 -6.10076e-15)
(14.5864 -2.09113 1.0601e-15)
(14.4284 -2.09357 2.45744e-15)
(14.2719 -2.08802 -2.93965e-15)
(14.1177 -2.0748 3.01356e-15)
(13.9667 -2.05426 -2.69984e-15)
(13.8195 -2.02676 -1.67487e-16)
(13.6767 -1.99267 1.57609e-15)
(13.5385 -1.95241 -7.45191e-16)
(13.4051 -1.90637 -2.35294e-15)
(13.2767 -1.855 8.9508e-16)
(13.1533 -1.79872 -4.05292e-15)
(13.0353 -1.73793 7.30432e-15)
(12.923 -1.67303 -5.01988e-15)
(12.8166 -1.60436 2.44532e-15)
(12.7166 -1.5323 -2.78289e-16)
(12.623 -1.45721 -6.28484e-16)
(12.536 -1.37949 -1.79706e-15)
(12.4557 -1.29956 5.55756e-16)
(12.3822 -1.21787 4.14969e-16)
(12.3154 -1.13488 1.1795e-16)
(12.2555 -1.05102 -1.41509e-16)
(12.2031 -0.966753 -9.96825e-16)
(12.1568 -0.882443 1.94413e-15)
(12.1221 -0.798786 -1.11656e-16)
(12.0735 -0.716982 4.02435e-17)
(17.0599 4.3665 3.52047e-15)
(17.1085 4.29258 -3.68357e-15)
(17.1541 4.21761 9.47769e-16)
(17.1971 4.14215 3.10818e-15)
(17.2374 4.06614 -4.23438e-15)
(17.275 3.98962 8.41683e-16)
(17.3101 3.91261 6.03334e-16)
(17.3426 3.83509 -2.47494e-15)
(17.3725 3.75691 1.77913e-15)
(17.3998 3.67813 -4.30778e-16)
(17.4247 3.59967 5.89046e-16)
(17.4475 3.52056 7.24572e-18)
(17.4679 3.44108 -4.09464e-16)
(17.4859 3.36106 -9.83385e-17)
(17.5015 3.28046 7.84998e-16)
(17.5146 3.19923 -1.59555e-16)
(17.5251 3.11731 -2.9718e-16)
(17.5331 3.03465 4.57478e-16)
(17.5387 2.95122 7.73467e-16)
(17.5421 2.86705 -1.87443e-15)
(17.5439 2.7822 6.2276e-16)
(17.5452 2.6968 -2.43658e-15)
(17.5474 2.61099 3.61242e-15)
(17.5523 2.52514 1.37942e-15)
(17.56 2.43958 -2.73499e-15)
(17.5687 2.3543 1.15931e-15)
(17.5768 2.26908 -2.26761e-15)
(17.5831 2.18373 4.7291e-15)
(17.5872 2.09814 -3.71286e-15)
(17.5887 2.01226 2.39522e-15)
(17.5877 1.92591 -2.53417e-15)
(17.5844 1.83967 -2.11217e-16)
(17.5787 1.75282 -7.3824e-16)
(17.5707 1.66556 3.10232e-15)
(17.5602 1.57789 -1.76318e-15)
(17.5475 1.48974 -2.28873e-15)
(17.5324 1.40109 5.7136e-15)
(17.5151 1.31194 -3.9724e-15)
(17.4955 1.2223 2.59443e-16)
(17.4735 1.13215 -1.19583e-15)
(17.4492 1.04153 -7.45248e-16)
(17.4224 0.95043 -2.03065e-17)
(17.3931 0.858887 4.65756e-15)
(17.3613 0.766918 -9.02562e-15)
(17.3268 0.674577 1.84882e-15)
(17.2895 0.581893 7.30948e-15)
(17.2495 0.488938 -7.96843e-15)
(17.2065 0.395759 6.79808e-15)
(17.1605 0.302455 -1.04454e-15)
(17.1114 0.209096 2.13833e-15)
(17.0591 0.115805 -4.11829e-15)
(17.0035 0.0226782 -2.61039e-15)
(16.9445 -0.0701245 6.30796e-15)
(16.882 -0.162472 -1.79613e-15)
(16.8158 -0.254173 -5.78323e-15)
(16.7459 -0.345052 2.04358e-15)
(16.6722 -0.434881 7.74583e-15)
(16.5946 -0.523431 -5.48414e-15)
(16.5131 -0.610425 3.1072e-15)
(16.4275 -0.695592 -1.54409e-15)
(16.3379 -0.778622 6.74037e-16)
(16.2444 -0.859166 -6.08499e-15)
(16.1469 -0.93685 9.12148e-17)
(16.0457 -1.01134 3.50454e-15)
(15.9406 -1.08232 -4.651e-15)
(15.8317 -1.1494 -1.12419e-15)
(15.7193 -1.21223 8.62872e-15)
(15.6035 -1.27044 -2.93594e-15)
(15.4846 -1.32372 -4.02545e-15)
(15.3629 -1.37173 4.90573e-15)
(15.2388 -1.41425 -2.11269e-15)
(15.1126 -1.45104 9.13974e-16)
(14.9849 -1.48198 1.57451e-17)
(14.8561 -1.50695 2.48336e-15)
(14.7269 -1.52594 -5.38658e-15)
(14.5978 -1.53892 4.91645e-15)
(14.4694 -1.54597 -3.77051e-15)
(14.3424 -1.54716 1.22486e-15)
(14.2173 -1.54264 -4.30797e-16)
(14.0944 -1.53257 1.01834e-15)
(13.9741 -1.51717 7.56359e-16)
(13.8566 -1.49669 5.63278e-16)
(13.7422 -1.47141 -2.23029e-15)
(13.6311 -1.44159 -1.79765e-15)
(13.5236 -1.40752 2.91252e-15)
(13.4199 -1.36949 -2.538e-15)
(13.3205 -1.32777 4.87633e-15)
(13.2255 -1.28263 -3.70998e-15)
(13.1351 -1.23438 2.15784e-15)
(13.0495 -1.18331 -2.5599e-15)
(12.9687 -1.12974 1.31401e-15)
(12.8929 -1.07401 5.91518e-16)
(12.8222 -1.01641 -1.62385e-15)
(12.7566 -0.957285 2.28645e-15)
(12.6965 -0.896925 -1.15953e-15)
(12.6418 -0.835638 1.83997e-15)
(12.593 -0.773737 -2.48023e-16)
(12.5489 -0.711533 -4.46018e-16)
(12.5141 -0.649489 -1.29949e-16)
(12.465 -0.589013 -2.26348e-16)
(16.7735 4.15954 -3.68469e-15)
(16.8159 4.09623 5.71532e-15)
(16.8557 4.03134 -2.01664e-15)
(16.8933 3.96555 8.04629e-16)
(16.9287 3.89884 -2.79146e-15)
(16.9618 3.83125 -1.39613e-16)
(16.9927 3.76285 2.32822e-15)
(17.0212 3.69364 -9.33796e-16)
(17.0474 3.62346 1.41308e-15)
(17.0712 3.55238 -1.68651e-15)
(17.0929 3.48151 1.3152e-16)
(17.1127 3.40973 -9.20907e-17)
(17.1304 3.33743 1.30259e-16)
(17.1458 3.26443 -3.61258e-16)
(17.1589 3.19074 2.93674e-16)
(17.1697 3.11637 -9.73183e-18)
(17.1782 3.04131 1.93026e-16)
(17.1844 2.96559 8.38231e-17)
(17.1884 2.88927 -1.07758e-16)
(17.1905 2.81243 -4.09533e-17)
(17.1913 2.73524 4.07523e-16)
(17.1917 2.65788 2.40529e-16)
(17.1926 2.58051 -7.59835e-16)
(17.1954 2.50323 -2.61196e-15)
(17.2003 2.42601 2.32903e-15)
(17.2059 2.3486 -5.94788e-16)
(17.211 2.27082 -2.16375e-16)
(17.2148 2.19263 4.08095e-15)
(17.2167 2.11401 -6.07561e-15)
(17.2163 2.03497 4.47792e-15)
(17.2137 1.9554 -3.10559e-15)
(17.2089 1.87604 -1.81756e-15)
(17.2021 1.79608 2.12548e-16)
(17.193 1.71583 3.63665e-15)
(17.1817 1.63534 -1.83444e-15)
(17.1682 1.55458 3.0923e-15)
(17.1525 1.47356 -3.95101e-15)
(17.1347 1.3923 9.74505e-16)
(17.1148 1.31085 9.92048e-17)
(17.0926 1.22921 3.2251e-15)
(17.0683 1.14743 -4.91694e-15)
(17.0418 1.06554 -4.52831e-15)
(17.013 0.983581 5.62146e-15)
(16.9818 0.901581 -5.12089e-15)
(16.9483 0.819613 2.63297e-15)
(16.9123 0.737713 4.76095e-16)
(16.8738 0.65596 5.33926e-15)
(16.8328 0.574403 -7.81499e-15)
(16.7891 0.493144 6.52856e-15)
(16.7427 0.412251 9.93458e-16)
(16.6936 0.331836 -3.61211e-15)
(16.6417 0.251985 6.55214e-16)
(16.5869 0.172834 -2.64418e-15)
(16.5292 0.0944954 7.12893e-15)
(16.4685 0.0171199 -2.65815e-15)
(16.4048 -0.0591582 -4.67629e-15)
(16.3381 -0.134165 8.81916e-15)
(16.2683 -0.207737 -7.36133e-15)
(16.1955 -0.279682 3.71497e-15)
(16.1196 -0.349812 -3.83534e-15)
(16.0407 -0.41792 -4.58102e-15)
(15.9589 -0.483769 1.12991e-14)
(15.8743 -0.547123 -1.08778e-14)
(15.7871 -0.60777 7.65999e-15)
(15.6971 -0.665555 -7.57167e-15)
(15.6046 -0.720232 1.70862e-15)
(15.5096 -0.771609 6.0877e-15)
(15.4125 -0.819467 2.19189e-15)
(15.3133 -0.863639 -8.81269e-15)
(15.2124 -0.903925 8.9902e-15)
(15.1101 -0.940198 -1.25532e-15)
(15.0066 -0.972303 -3.31377e-15)
(14.9024 -1.00017 6.5508e-15)
(14.7977 -1.02369 -6.99496e-15)
(14.693 -1.04286 -7.53148e-16)
(14.5884 -1.05766 2.52983e-15)
(14.4845 -1.06812 2.42209e-16)
(14.3814 -1.07431 -3.14332e-15)
(14.2794 -1.07632 5.47939e-15)
(14.1788 -1.07426 -3.40503e-15)
(14.0798 -1.06829 -3.44727e-16)
(13.9827 -1.05856 -2.95886e-15)
(13.8878 -1.04525 2.53298e-15)
(13.7953 -1.02852 -3.39673e-15)
(13.7054 -1.00858 5.16736e-15)
(13.6184 -0.985603 8.90442e-17)
(13.5345 -0.959808 2.52257e-15)
(13.4537 -0.931407 -6.91622e-15)
(13.3763 -0.900629 3.26448e-15)
(13.3024 -0.867705 -2.07584e-15)
(13.232 -0.832869 6.47618e-16)
(13.1654 -0.796355 1.07732e-15)
(13.1027 -0.758393 4.60345e-16)
(13.0441 -0.719215 -6.29475e-16)
(12.9896 -0.67906 6.78414e-16)
(12.9393 -0.638176 6.59503e-16)
(12.8934 -0.596826 -1.26332e-15)
(12.8509 -0.555264 1.9643e-16)
(12.8159 -0.513771 -3.31088e-16)
(12.7665 -0.473808 -6.60714e-17)
(16.4988 3.9667 -4.59922e-15)
(16.5362 3.91206 -1.45451e-15)
(16.5714 3.85583 4.34358e-15)
(16.6045 3.79866 -2.51964e-15)
(16.6355 3.7405 -4.92489e-16)
(16.6643 3.68136 -9.33994e-16)
(16.6909 3.62129 5.67609e-16)
(16.7153 3.56028 3.45788e-15)
(16.7373 3.49816 -1.82404e-15)
(16.757 3.43499 1.45181e-15)
(16.7747 3.37198 -1.31216e-15)
(16.7905 3.30795 -1.05037e-16)
(16.8042 3.24326 -1.1163e-16)
(16.8158 3.17776 -1.36516e-16)
(16.8251 3.11146 -4.86167e-16)
(16.8323 3.04438 3.46818e-16)
(16.8373 2.97654 6.76729e-17)
(16.8403 2.90799 -1.01868e-16)
(16.8415 2.8388 1.6007e-15)
(16.8412 2.76905 -2.75001e-15)
(16.84 2.69889 1.94682e-15)
(16.8386 2.62845 -8.06677e-16)
(16.8379 2.55789 4.05533e-15)
(16.8388 2.48736 -1.9708e-15)
(16.8416 2.4169 8.16201e-16)
(16.8452 2.34636 -2.04878e-15)
(16.8487 2.27564 1.85964e-15)
(16.8512 2.20469 -4.00769e-15)
(16.8522 2.13349 4.96019e-15)
(16.8513 2.06201 -4.30893e-15)
(16.8484 1.99015 -1.593e-16)
(16.8436 1.91869 -3.56857e-15)
(16.8369 1.84675 2.9019e-15)
(16.828 1.77468 -1.054e-15)
(16.8169 1.70255 4.42102e-15)
(16.8037 1.63029 1.27213e-15)
(16.7884 1.55796 -2.98217e-15)
(16.7709 1.48558 -1.43312e-15)
(16.7514 1.4132 9.26914e-16)
(16.7298 1.34083 -1.01073e-16)
(16.7061 1.26853 -2.33258e-15)
(16.6803 1.19631 2.58943e-15)
(16.6524 1.12425 -7.57066e-15)
(16.6223 1.05235 2.90809e-15)
(16.5901 0.9807 -8.77646e-16)
(16.5556 0.909326 5.93706e-15)
(16.519 0.838302 -6.43088e-15)
(16.4801 0.767674 4.5094e-15)
(16.4389 0.697529 2.10994e-15)