/*--------------------------------*- C++ -*----------------------------------*\
  =========                 |
  \\      /  F ield         | OpenFOAM: The Open Source CFD Toolbox
   \\    /   O peration     | Website:  https://openfoam.org
    \\  /    A nd           | Version:  6.0
     \\/     M anipulation  |
\*---------------------------------------------------------------------------*/
FoamFile
{
    version     2.0;
    format      ascii;
    class       volScalarField;
    location    "2.1";
    object      p;
}
// * * * * * * * * * * * * * * * * * * * * * * * * * * * * * * * * * * * * * //

dimensions      [0 2 -2 0 0 0 0];

internalField   nonuniform List<scalar> 
13500
(
0.098395
0.098421
0.097951
0.09746
0.096627
0.096034
0.095467
0.09594
0.097363
0.10157
0.12298
0.1665
0.098396
0.098421
0.097951
0.09746
0.096627
0.096034
0.095467
0.09594
0.097359
0.10163
0.1223
0.16144
0.098396
0.098422
0.097952
0.09746
0.096627
0.096034
0.095465
0.095939
0.097349
0.10168
0.12142
0.15695
0.098397
0.098423
0.097953
0.097461
0.096628
0.096033
0.095463
0.095936
0.097334
0.1017
0.12044
0.15346
0.098398
0.098424
0.097954
0.097462
0.096628
0.096033
0.09546
0.095931
0.097314
0.10171
0.1194
0.15052
0.0984
0.098426
0.097955
0.097463
0.096628
0.096032
0.095456
0.095926
0.097289
0.1017
0.11832
0.1479
0.098402
0.098428
0.097957
0.097464
0.096628
0.096031
0.095452
0.095919
0.097258
0.10169
0.11724
0.14552
0.098404
0.09843
0.097959
0.097466
0.096629
0.09603
0.095447
0.095911
0.097223
0.10166
0.11616
0.14335
0.098406
0.098433
0.097961
0.097468
0.096629
0.096028
0.095442
0.095901
0.097183
0.10161
0.11511
0.14134
0.098409
0.098435
0.097964
0.09747
0.09663
0.096027
0.095436
0.095891
0.097138
0.10156
0.11409
0.13947
0.098413
0.098439
0.097967
0.097472
0.096631
0.096025
0.09543
0.095878
0.097088
0.10149
0.11311
0.13771
0.098417
0.098442
0.09797
0.097474
0.096631
0.096023
0.095423
0.095865
0.097033
0.1014
0.11216
0.13605
0.098421
0.098446
0.097973
0.097476
0.096632
0.096021
0.095415
0.09585
0.096973
0.10131
0.11126
0.13448
0.098425
0.098451
0.097977
0.097479
0.096633
0.096018
0.095407
0.095834
0.096907
0.10121
0.1104
0.13298
0.09843
0.098455
0.097981
0.097482
0.096634
0.096016
0.095398
0.095816
0.096836
0.1011
0.10957
0.13156
0.098435
0.09846
0.097986
0.097485
0.096635
0.096013
0.095388
0.095797
0.09676
0.10099
0.10879
0.1302
0.098441
0.098466
0.097991
0.097488
0.096636
0.09601
0.095378
0.095777
0.096679
0.10087
0.10803
0.1289
0.098447
0.098472
0.097996
0.097492
0.096638
0.096007
0.095368
0.095755
0.096593
0.10075
0.1073
0.12764
0.098454
0.098478
0.098001
0.097496
0.096639
0.096003
0.095356
0.095731
0.096503
0.10063
0.1066
0.12644
0.098461
0.098484
0.098007
0.0975
0.09664
0.095999
0.095345
0.095706
0.096407
0.1005
0.10592
0.12527
0.098468
0.098491
0.098013
0.097504
0.096642
0.095996
0.095332
0.09568
0.096308
0.10038
0.10527
0.12415
0.098476
0.098499
0.09802
0.097508
0.096644
0.095991
0.09532
0.095652
0.096204
0.10025
0.10463
0.12306
0.098484
0.098506
0.098027
0.097513
0.096645
0.095987
0.095306
0.095622
0.096096
0.10013
0.104
0.122
0.098493
0.098514
0.098034
0.097518
0.096647
0.095983
0.095292
0.095591
0.095986
0.1
0.10339
0.12097
0.098502
0.098523
0.098041
0.097523
0.096649
0.095978
0.095278
0.095559
0.095871
0.09988
0.10279
0.11997
0.098511
0.098532
0.098049
0.097529
0.096651
0.095973
0.095263
0.095525
0.095754
0.099758
0.10219
0.11899
0.098521
0.098541
0.098057
0.097534
0.096653
0.095968
0.095248
0.095489
0.095635
0.099638
0.10161
0.11804
0.098532
0.098551
0.098066
0.09754
0.096655
0.095962
0.095231
0.095453
0.095513
0.099519
0.10104
0.11711
0.098543
0.098561
0.098075
0.097547
0.096658
0.095957
0.095215
0.095414
0.09539
0.099401
0.10047
0.1162
0.098554
0.098572
0.098084
0.097553
0.09666
0.095951
0.095198
0.095375
0.095264
0.099284
0.099907
0.11531
0.098566
0.098583
0.098094
0.09756
0.096663
0.095945
0.09518
0.095334
0.095138
0.099167
0.099352
0.11444
0.098578
0.098594
0.098104
0.097567
0.096666
0.095939
0.095162
0.095292
0.09501
0.099051
0.098803
0.11359
0.098591
0.098606
0.098115
0.097574
0.096668
0.095932
0.095143
0.095249
0.094881
0.098934
0.09826
0.11276
0.098604
0.098618
0.098126
0.097582
0.096671
0.095926
0.095124
0.095205
0.094751
0.098817
0.097724
0.11194
0.098618
0.098631
0.098137
0.097589
0.096675
0.095919
0.095104
0.09516
0.094621
0.0987
0.097193
0.11114
0.098632
0.098644
0.098149
0.097597
0.096678
0.095912
0.095084
0.095113
0.09449
0.098581
0.096668
0.11035
0.098646
0.098658
0.098161
0.097606
0.096681
0.095905
0.095063
0.095067
0.094358
0.098462
0.09615
0.10958
0.098661
0.098672
0.098173
0.097615
0.096685
0.095898
0.095042
0.095019
0.094226
0.098341
0.095637
0.10883
0.098677
0.098687
0.098186
0.097623
0.096688
0.09589
0.09502
0.094971
0.094094
0.098219
0.095132
0.10808
0.098693
0.098702
0.098199
0.097633
0.096692
0.095883
0.094997
0.094922
0.093961
0.098095
0.094632
0.10736
0.09871
0.098717
0.098213
0.097642
0.096696
0.095875
0.094974
0.094873
0.093828
0.097969
0.09414
0.10664
0.098727
0.098733
0.098227
0.097652
0.0967
0.095867
0.094951
0.094823
0.093695
0.097841
0.093655
0.10594
0.098745
0.09875
0.098242
0.097663
0.096704
0.09586
0.094927
0.094773
0.093561
0.097712
0.093176
0.10525
0.098763
0.098767
0.098257
0.097673
0.096709
0.095852
0.094902
0.094722
0.093427
0.09758
0.092704
0.10458
0.098782
0.098785
0.098272
0.097684
0.096713
0.095843
0.094877
0.094672
0.093293
0.097447
0.09224
0.10392
0.098801
0.098803
0.098288
0.097695
0.096718
0.095835
0.094851
0.094621
0.093158
0.097311
0.091783
0.10327
0.098821
0.098821
0.098305
0.097707
0.096723
0.095827
0.094825
0.094569
0.093023
0.097173
0.091333
0.10263
0.098841
0.09884
0.098321
0.097719
0.096728
0.095819
0.094798
0.094518
0.092887
0.097033
0.09089
0.102
0.098862
0.09886
0.098339
0.097731
0.096733
0.09581
0.094771
0.094467
0.09275
0.096891
0.090454
0.10138
0.098883
0.09888
0.098356
0.097743
0.096739
0.095802
0.094743
0.094415
0.092613
0.096747
0.090026
0.10078
0.098905
0.098901
0.098374
0.097756
0.096744
0.095794
0.094714
0.094364
0.092476
0.096601
0.089605
0.10018
0.098928
0.098922
0.098393
0.09777
0.09675
0.095785
0.094685
0.094312
0.092338
0.096453
0.089191
0.099595
0.098951
0.098943
0.098412
0.097783
0.096756
0.095777
0.094656
0.094261
0.0922
0.096303
0.088784
0.099019
0.098974
0.098966
0.098432
0.097798
0.096762
0.095768
0.094626
0.094209
0.09206
0.09615
0.088384
0.098453
0.098999
0.098989
0.098452
0.097812
0.096768
0.09576
0.094595
0.094158
0.091921
0.095996
0.087991
0.097896
0.099024
0.099012
0.098472
0.097827
0.096775
0.095751
0.094564
0.094106
0.091781
0.095841
0.087604
0.097348
0.099049
0.099036
0.098494
0.097842
0.096782
0.095743
0.094532
0.094054
0.09164
0.095683
0.087225
0.096809
0.099075
0.099061
0.098515
0.097858
0.096788
0.095734
0.0945
0.094003
0.091499
0.095524
0.086852
0.096278
0.099102
0.099086
0.098537
0.097874
0.096795
0.095726
0.094468
0.093951
0.091357
0.095363
0.086486
0.095756
0.099129
0.099112
0.09856
0.09789
0.096803
0.095718
0.094434
0.093899
0.091215
0.0952
0.086127
0.095242
0.099157
0.099138
0.098583
0.097907
0.09681
0.09571
0.094401
0.093847
0.091072
0.095036
0.085773
0.094735
0.099185
0.099165
0.098606
0.097924
0.096818
0.095701
0.094367
0.093796
0.090929
0.09487
0.085426
0.094237
0.099215
0.099192
0.098631
0.097942
0.096826
0.095693
0.094332
0.093744
0.090786
0.094703
0.085085
0.093745
0.099244
0.09922
0.098655
0.09796
0.096834
0.095686
0.094297
0.093692
0.090642
0.094534
0.084751
0.093261
0.099275
0.099249
0.098681
0.097979
0.096842
0.095678
0.094262
0.09364
0.090498
0.094365
0.084422
0.092784
0.099306
0.099279
0.098706
0.097998
0.096851
0.09567
0.094226
0.093588
0.090354
0.094193
0.084099
0.092314
0.099338
0.099309
0.098733
0.098018
0.09686
0.095662
0.094189
0.093536
0.09021
0.094021
0.083781
0.091851
0.09937
0.099339
0.09876
0.098037
0.096869
0.095655
0.094152
0.093484
0.090065
0.093848
0.083469
0.091394
0.099403
0.099371
0.098787
0.098058
0.096878
0.095648
0.094115
0.093432
0.089921
0.093673
0.083163
0.090944
0.099437
0.099403
0.098815
0.098079
0.096888
0.09564
0.094078
0.09338
0.089776
0.093497
0.082862
0.0905
0.099471
0.099436
0.098844
0.0981
0.096898
0.095633
0.09404
0.093327
0.089632
0.093321
0.082566
0.090061
0.099506
0.099469
0.098873
0.098122
0.096908
0.095627
0.094001
0.093275
0.089487
0.093143
0.082275
0.089629
0.099542
0.099503
0.098903
0.098145
0.096919
0.09562
0.093962
0.093222
0.089343
0.092964
0.081989
0.089202
0.099579
0.099538
0.098933
0.098167
0.096929
0.095613
0.093923
0.09317
0.089198
0.092785
0.081708
0.088782
0.099616
0.099573
0.098964
0.098191
0.09694
0.095607
0.093884
0.093117
0.089054
0.092604
0.081432
0.088366
0.099654
0.099609
0.098996
0.098215
0.096952
0.095601
0.093844
0.093064
0.08891
0.092423
0.081161
0.087956
0.099693
0.099646
0.099028
0.098239
0.096963
0.095595
0.093804
0.093011
0.088766
0.092241
0.080894
0.087551
0.099732
0.099684
0.099061
0.098264
0.096975
0.09559
0.093764
0.092958
0.088623
0.092059
0.080631
0.087151
0.099772
0.099722
0.099095
0.09829
0.096988
0.095584
0.093723
0.092904
0.088479
0.091875
0.080373
0.086757
0.099813
0.099761
0.099129
0.098316
0.097
0.095579
0.093682
0.092851
0.088337
0.091691
0.080119
0.086367
0.099855
0.099801
0.099164
0.098342
0.097013
0.095574
0.093641
0.092797
0.088194
0.091506
0.07987
0.085982
0.099898
0.099842
0.0992
0.09837
0.097027
0.095569
0.093599
0.092744
0.088052
0.091321
0.079624
0.085601
0.099941
0.099883
0.099236
0.098397
0.09704
0.095565
0.093557
0.09269
0.087911
0.091135
0.079382
0.085225
0.099985
0.099926
0.099273
0.098426
0.097054
0.095561
0.093515
0.092636
0.08777
0.090949
0.079144
0.084853
0.10003
0.099969
0.099311
0.098455
0.097069
0.095557
0.093473
0.092582
0.087629
0.090762
0.07891
0.084486
0.10008
0.10001
0.099349
0.098484
0.097084
0.095554
0.093431
0.092527
0.087489
0.090575
0.078679
0.084123
0.10012
0.10006
0.099388
0.098514
0.097099
0.09555
0.093388
0.092473
0.087349
0.090387
0.078452
0.083763
0.10017
0.1001
0.099428
0.098545
0.097114
0.095548
0.093345
0.092418
0.08721
0.090199
0.078228
0.083408
0.10022
0.10015
0.099469
0.098576
0.097131
0.095545
0.093302
0.092363
0.087072
0.09001
0.078008
0.083057
0.10027
0.1002
0.099511
0.098609
0.097147
0.095543
0.093259
0.092308
0.086934
0.089821
0.077791
0.082709
0.10032
0.10024
0.099553
0.098641
0.097164
0.095541
0.093216
0.092252
0.086797
0.089632
0.077577
0.082366
0.10037
0.10029
0.099596
0.098675
0.097181
0.09554
0.093173
0.092197
0.086661
0.089442
0.077366
0.082025
0.10042
0.10034
0.09964
0.098709
0.097199
0.095539
0.093129
0.092141
0.086525
0.089252
0.077158
0.081689
0.10047
0.10039
0.099685
0.098743
0.097217
0.095538
0.093086
0.092085
0.08639
0.089061
0.076953
0.081355
0.10053
0.10045
0.099731
0.098779
0.097236
0.095538
0.093042
0.092029
0.086256
0.088871
0.076751
0.081025
0.10058
0.1005
0.099777
0.098815
0.097255
0.095539
0.092998
0.091972
0.086123
0.08868
0.076551
0.080698
0.10064
0.10055
0.099825
0.098852
0.097275
0.095539
0.092955
0.091916
0.08599
0.088489
0.076354
0.080374
0.10069
0.10061
0.099873
0.09889
0.097295
0.095541
0.092911
0.091859
0.085858
0.088298
0.07616
0.080053
0.10075
0.10066
0.099922
0.098928
0.097316
0.095542
0.092867
0.091801
0.085727
0.088106
0.075968
0.079735
0.10081
0.10072
0.099973
0.098967
0.097337
0.095545
0.092824
0.091744
0.085596
0.087914
0.075778
0.07942
0.10087
0.10078
0.10002
0.099008
0.097359
0.095548
0.09278
0.091686
0.085466
0.087723
0.075591
0.079108
0.10093
0.10084
0.10008
0.099049
0.097382
0.095551
0.092737
0.091628
0.085338
0.08753
0.075406
0.078798
0.101
0.1009
0.10013
0.09909
0.097405
0.095555
0.092693
0.09157
0.085209
0.087338
0.075223
0.078491
0.10106
0.10096
0.10018
0.099133
0.097428
0.095559
0.09265
0.091512
0.085082
0.087146
0.075042
0.078186
0.10112
0.10102
0.10024
0.099177
0.097453
0.095565
0.092607
0.091453
0.084956
0.086953
0.074862
0.077884
0.10119
0.10108
0.1003
0.099221
0.097478
0.09557
0.092564
0.091394
0.08483
0.086761
0.074685
0.077584
0.10126
0.10115
0.10035
0.099267
0.097503
0.095577
0.092521
0.091335
0.084705
0.086568
0.07451
0.077286
0.10132
0.10121
0.10041
0.099313
0.09753
0.095584
0.092478
0.091275
0.084581
0.086375
0.074336
0.07699
0.10139
0.10128
0.10047
0.099361
0.097557
0.095592
0.092436
0.091215
0.084458
0.086182
0.074164
0.076696
0.10146
0.10135
0.10053
0.09941
0.097584
0.0956
0.092394
0.091155
0.084335
0.085989
0.073993
0.076404
0.10154
0.10142
0.1006
0.09946
0.097613
0.095609
0.092352
0.091095
0.084214
0.085796
0.073824
0.076114
0.10161
0.10149
0.10066
0.09951
0.097642
0.095619
0.092311
0.091035
0.084093
0.085603
0.073656
0.075826
0.10168
0.10156
0.10073
0.099563
0.097672
0.09563
0.09227
0.090974
0.083973
0.085409
0.073489
0.075539
0.10176
0.10164
0.10079
0.099616
0.097703
0.095641
0.09223
0.090913
0.083854
0.085216
0.073324
0.075254
0.10184
0.10171
0.10086
0.09967
0.097735
0.095653
0.092189
0.090852
0.083735
0.085022
0.07316
0.074971
0.10192
0.10179
0.10093
0.099726
0.097768
0.095667
0.09215
0.09079
0.083618
0.084828
0.072997
0.074689
0.102
0.10187
0.101
0.099783
0.097802
0.095681
0.092111
0.090729
0.083501
0.084635
0.072835
0.074408
0.10208
0.10195
0.10107
0.099842
0.097836
0.095696
0.092072
0.090667
0.083385
0.084441
0.072674
0.074129
0.10217
0.10203
0.10115
0.099902
0.097872
0.095711
0.092034
0.090605
0.08327
0.084247
0.072513
0.07385
0.10225
0.10212
0.10122
0.099964
0.097909
0.095728
0.091997
0.090543
0.083156
0.084053
0.072354
0.073573
0.10234
0.1022
0.1013
0.10003
0.097947
0.095746
0.09196
0.09048
0.083043
0.083859
0.072195
0.073296
0.10243
0.10229
0.10138
0.10009
0.097986
0.095765
0.091924
0.090418
0.08293
0.083664
0.072037
0.073021
0.10252
0.10238
0.10146
0.10016
0.098027
0.095785
0.091889
0.090355
0.082818
0.08347
0.071879
0.072746
0.10262
0.10247
0.10154
0.10023
0.098068
0.095806
0.091855
0.090292
0.082707
0.083275
0.071722
0.072472
0.10271
0.10256
0.10163
0.1003
0.098111
0.095829
0.091821
0.09023
0.082597
0.083081
0.071565
0.072198
0.10281
0.10266
0.10171
0.10037
0.098156
0.095852
0.091788
0.090167
0.082487
0.082886
0.071408
0.071925
0.10291
0.10276
0.1018
0.10044
0.098202
0.095877
0.091757
0.090104
0.082379
0.082691
0.071252
0.071653
0.10301
0.10286
0.10189
0.10052
0.098249
0.095903
0.091726
0.090041
0.082271
0.082496
0.071096
0.07138
0.10312
0.10296
0.10199
0.10059
0.098298
0.095931
0.091696
0.089978
0.082164
0.082301
0.07094
0.071108
0.10322
0.10307
0.10208
0.10067
0.098349
0.09596
0.091668
0.089915
0.082058
0.082106
0.070784
0.070836
0.10333
0.10317
0.10218
0.10076
0.098402
0.09599
0.091641
0.089853
0.081952
0.08191
0.070628
0.070564
0.10345
0.10328
0.10228
0.10084
0.098456
0.096022
0.091615
0.08979
0.081848
0.081715
0.070472
0.070292
0.10356
0.1034
0.10238
0.10093
0.098513
0.096056
0.09159
0.089728
0.081744
0.081519
0.070315
0.07002
0.10368
0.10351
0.10249
0.10102
0.098571
0.096091
0.091566
0.089665
0.081641
0.081323
0.070159
0.069747
0.1038
0.10363
0.1026
0.10111
0.098632
0.096128
0.091545
0.089603
0.081539
0.081127
0.070001
0.069474
0.10392
0.10375
0.10271
0.10121
0.098695
0.096167
0.091524
0.089542
0.081438
0.080931
0.069844
0.069201
0.10405
0.10388
0.10282
0.1013
0.09876
0.096208
0.091505
0.089481
0.081338
0.080734
0.069686
0.068927
0.10418
0.10401
0.10294
0.1014
0.098827
0.096251
0.091488
0.08942
0.081238
0.080538
0.069527
0.068652
0.10431
0.10414
0.10306
0.10151
0.098898
0.096296
0.091473
0.089359
0.081139
0.080341
0.069368
0.068376
0.10445
0.10427
0.10318
0.10162
0.09897
0.096343
0.09146
0.089299
0.081042
0.080144
0.069208
0.0681
0.10459
0.10441
0.10331
0.10173
0.099046
0.096393
0.091448
0.08924
0.080945
0.079946
0.069048
0.067822
0.10473
0.10455
0.10344
0.10184
0.099125
0.096445
0.091439
0.089181
0.080849
0.079749
0.068886
0.067543
0.10488
0.1047
0.10358
0.10196
0.099207
0.096499
0.091432
0.089123
0.080754
0.079551
0.068723
0.067263
0.10503
0.10485
0.10372
0.10208
0.099292
0.096556
0.091427
0.089066
0.08066
0.079353
0.068559
0.066982
0.10519
0.10501
0.10386
0.10221
0.09938
0.096616
0.091425
0.08901
0.080567
0.079155
0.068395
0.066699
0.10535
0.10517
0.10401
0.10234
0.099472
0.096679
0.091425
0.088955
0.080475
0.078956
0.068229
0.066414
0.10551
0.10533
0.10416
0.10247
0.099568
0.096745
0.091427
0.0889
0.080384
0.078757
0.068061
0.066128
0.10568
0.1055
0.10432
0.10261
0.099667
0.096814
0.091433
0.088847
0.080294
0.078558
0.067893
0.065839
0.10586
0.10567
0.10448
0.10275
0.099771
0.096886
0.091441
0.088795
0.080205
0.078359
0.067722
0.065549
0.10604
0.10585
0.10464
0.1029
0.099879
0.096962
0.091453
0.088745
0.080117
0.07816
0.067551
0.065256
0.10622
0.10604
0.10481
0.10305
0.099991
0.097042
0.091467
0.088695
0.080031
0.07796
0.067377
0.064961
0.10641
0.10623
0.10499
0.10321
0.10011
0.097125
0.091485
0.088647
0.079945
0.07776
0.067202
0.064664
0.10661
0.10642
0.10517
0.10338
0.10023
0.097212
0.091506
0.088601
0.079861
0.077559
0.067025
0.064364
0.10681
0.10663
0.10536
0.10355
0.10036
0.097303
0.091531
0.088557
0.079778
0.077358
0.066846
0.064061
0.10702
0.10683
0.10556
0.10372
0.10049
0.097399
0.09156
0.088514
0.079696
0.077157
0.066666
0.063755
0.10723
0.10705
0.10576
0.1039
0.10063
0.097499
0.091592
0.088473
0.079616
0.076956
0.066483
0.063446
0.10745
0.10727
0.10597
0.10409
0.10077
0.097604
0.091629
0.088435
0.079537
0.076754
0.066298
0.063134
0.10768
0.1075
0.10618
0.10429
0.10092
0.097714
0.09167
0.088398
0.079459
0.076552
0.06611
0.062819
0.10792
0.10774
0.1064
0.10449
0.10107
0.097828
0.091715
0.088364
0.079382
0.07635
0.06592
0.0625
0.10816
0.10798
0.10663
0.1047
0.10124
0.097948
0.091765
0.088332
0.079308
0.076147
0.065728
0.062177
0.10841
0.10823
0.10687
0.10491
0.10141
0.098074
0.091819
0.088303
0.079234
0.075943
0.065532
0.06185
0.10867
0.10849
0.10712
0.10514
0.10158
0.098205
0.091879
0.088276
0.079162
0.07574
0.065334
0.061519
0.10893
0.10876
0.10737
0.10537
0.10176
0.098342
0.091943
0.088252
0.079092
0.075535
0.065133
0.061183
0.10921
0.10903
0.10763
0.10561
0.10195
0.098486
0.092013
0.088231
0.079023
0.07533
0.064929
0.060843
0.10949
0.10932
0.1079
0.10586
0.10215
0.098635
0.092089
0.088213
0.078955
0.075125
0.064722
0.060498
0.10978
0.10961
0.10818
0.10612
0.10236
0.098792
0.09217
0.088197
0.07889
0.074919
0.064511
0.060148
0.11008
0.10992
0.10847
0.10638
0.10257
0.098955
0.092257
0.088186
0.078826
0.074712
0.064297
0.059793
0.11039
0.11023
0.10877
0.10666
0.1028
0.099125
0.092349
0.088177
0.078763
0.074504
0.064079
0.059432
0.11071
0.11056
0.10908
0.10695
0.10303
0.099302
0.092449
0.088172
0.078702
0.074295
0.063857
0.059065
0.11104
0.11089
0.1094
0.10724
0.10327
0.099487
0.092554
0.08817
0.078642
0.074086
0.063631
0.058692
0.11138
0.11124
0.10973
0.10755
0.10352
0.09968
0.092666
0.088172
0.078584
0.073875
0.0634
0.058312
0.11173
0.1116
0.11007
0.10787
0.10378
0.099881
0.092785
0.088178
0.078528
0.073663
0.063165
0.057926
0.11209
0.11196
0.11042
0.1082
0.10406
0.10009
0.092911
0.088187
0.078473
0.07345
0.062925
0.057533
0.11247
0.11234
0.11079
0.10854
0.10434
0.10031
0.093043
0.088201
0.078419
0.073235
0.062679
0.057132
0.11285
0.11274
0.11116
0.10889
0.10463
0.10053
0.093183
0.088218
0.078367
0.073018
0.062429
0.056723
0.11325
0.11314
0.11155
0.10925
0.10494
0.10077
0.093331
0.088239
0.078316
0.0728
0.062172
0.056306
0.11366
0.11356
0.11196
0.10963
0.10525
0.10101
0.093486
0.088264
0.078266
0.072579
0.06191
0.055881
0.11408
0.11399
0.11237
0.11002
0.10558
0.10127
0.093648
0.088292
0.078216
0.072356
0.061641
0.055446
0.11452
0.11444
0.1128
0.11042
0.10592
0.10153
0.093818
0.088325
0.078168
0.072131
0.061365
0.055002
0.11496
0.1149
0.11325
0.11084
0.10627
0.10181
0.093997
0.088362
0.07812
0.071902
0.061082
0.054547
0.11543
0.11537
0.11371
0.11127
0.10664
0.10209
0.094183
0.088403
0.078073
0.071671
0.060791
0.054082
0.1159
0.11586
0.11418
0.11171
0.10702
0.10238
0.094377
0.088447
0.078026
0.071435
0.060492
0.053606
0.1164
0.11636
0.11467
0.11217
0.10741
0.10269
0.09458
0.088495
0.077979
0.071196
0.060184
0.053118
0.1169
0.11688
0.11518
0.11265
0.10782
0.103
0.094791
0.088547
0.077932
0.070953
0.059867
0.052618
0.11743
0.11742
0.1157
0.11314
0.10824
0.10333
0.09501
0.088603
0.077884
0.070704
0.059541
0.052105
0.11796
0.11797
0.11624
0.11364
0.10868
0.10367
0.095238
0.088662
0.077835
0.070451
0.059204
0.051578
0.11852
0.11854
0.1168
0.11417
0.10913
0.10402
0.095475
0.088724
0.077785
0.070191
0.058856
0.051037
0.11909
0.11913
0.11738
0.11471
0.1096
0.10438
0.09572
0.08879
0.077733
0.069926
0.058496
0.05048
0.11968
0.11974
0.11797
0.11527
0.11008
0.10475
0.095974
0.088859
0.07768
0.069653
0.058124
0.049908
0.12029
0.12037
0.11859
0.11585
0.11058
0.10514
0.096237
0.08893
0.077624
0.069373
0.057738
0.049319
0.12092
0.12101
0.11922
0.11644
0.1111
0.10554
0.096509
0.089005
0.077565
0.069085
0.057339
0.048712
0.12157
0.12168
0.11988
0.11706
0.11164
0.10595
0.09679
0.089081
0.077503
0.068788
0.056924
0.048086
0.12224
0.12238
0.12056
0.1177
0.1122
0.10638
0.097081
0.089161
0.077437
0.068481
0.056494
0.047441
0.12293
0.12309
0.12127
0.11836
0.11278
0.10682
0.097381
0.089242
0.077366
0.068165
0.056048
0.046775
0.12365
0.12383
0.122
0.11905
0.11338
0.10728
0.097691
0.089326
0.077291
0.067837
0.055583
0.046087
0.12439
0.12459
0.12276
0.11976
0.114
0.10775
0.098011
0.089411
0.077211
0.067497
0.0551
0.045376
0.12515
0.12539
0.12354
0.1205
0.11465
0.10824
0.098341
0.089499
0.077125
0.067145
0.054598
0.044642
0.12595
0.12621
0.12436
0.12126
0.11532
0.10875
0.098683
0.089588
0.077032
0.066779
0.054074
0.043882
0.12677
0.12706
0.12521
0.12206
0.11601
0.10928
0.099035
0.089678
0.076932
0.066399
0.053528
0.043095
0.12762
0.12795
0.12609
0.12288
0.11674
0.10982
0.099399
0.08977
0.076825
0.066003
0.052959
0.04228
0.12851
0.12887
0.12701
0.12374
0.11749
0.11039
0.099775
0.089863
0.076709
0.065591
0.052366
0.041436
0.12944
0.12982
0.12796
0.12464
0.11828
0.11098
0.10016
0.089957
0.076585
0.065161
0.051746
0.04056
0.1304
0.13082
0.12896
0.12557
0.1191
0.11159
0.10057
0.090053
0.07645
0.064713
0.0511
0.039652
0.1314
0.13187
0.13001
0.12655
0.11995
0.11223
0.10098
0.09015
0.076306
0.064244
0.050424
0.038709
0.13245
0.13296
0.1311
0.12758
0.12085
0.1129
0.10141
0.090247
0.076149
0.063754
0.049717
0.03773
0.13354
0.1341
0.13225
0.12865
0.12178
0.11359
0.10186
0.090345
0.07598
0.063241
0.048978
0.036712
0.13468
0.13529
0.13345
0.12977
0.12277
0.11432
0.10232
0.090443
0.075798
0.062704
0.048205
0.035654
0.13588
0.13654
0.13471
0.13095
0.1238
0.11508
0.1028
0.090542
0.0756
0.06214
0.047394
0.034553
0.13714
0.13786
0.13604
0.1322
0.12488
0.11587
0.1033
0.090639
0.075385
0.061547
0.046545
0.033406
0.13845
0.13924
0.13743
0.13351
0.12601
0.1167
0.10381
0.090734
0.075152
0.060922
0.045653
0.032211
0.13984
0.1407
0.13891
0.13488
0.1272
0.11757
0.10434
0.090826
0.074896
0.060263
0.044716
0.030965
0.14129
0.14223
0.14046
0.13634
0.12846
0.11848
0.10489
0.090913
0.074617
0.059566
0.04373
0.029665
0.14281
0.14385
0.1421
0.13787
0.12978
0.11944
0.10545
0.090993
0.074309
0.058827
0.042691
0.028306
0.14442
0.14555
0.14383
0.1395
0.13117
0.12044
0.10604
0.091063
0.073969
0.058041
0.041594
0.026885
0.14611
0.14735
0.14565
0.14121
0.13263
0.12148
0.10663
0.09112
0.073592
0.057203
0.040434
0.025397
0.14788
0.14924
0.14758
0.14302
0.13417
0.12257
0.10724
0.091158
0.073172
0.056306
0.039204
0.023836
0.14975
0.15124
0.14962
0.14493
0.13578
0.12371
0.10785
0.091173
0.072701
0.055343
0.037898
0.022197
0.1517
0.15335
0.15178
0.14695
0.13748
0.12489
0.10847
0.091158
0.072172
0.054305
0.036507
0.020472
0.15376
0.15558
0.15406
0.14908
0.13925
0.12611
0.10908
0.091105
0.071575
0.053183
0.035022
0.018653
0.15592
0.15793
0.15647
0.15133
0.14112
0.12738
0.10969
0.091005
0.070901
0.051968
0.033434
0.016733
0.15819
0.16041
0.15902
0.15371
0.14307
0.12868
0.11029
0.090849
0.070137
0.050646
0.031732
0.014701
0.16056
0.16303
0.16171
0.15621
0.14511
0.13001
0.11085
0.090623
0.069271
0.049207
0.029904
0.012546
0.16305
0.16579
0.16456
0.15886
0.14723
0.13137
0.11139
0.090315
0.068287
0.047635
0.027938
0.010258
0.16567
0.16871
0.16758
0.16165
0.14945
0.13276
0.11187
0.089907
0.067169
0.045916
0.025819
0.0078248
0.16841
0.17179
0.17078
0.1646
0.15176
0.13415
0.11229
0.089381
0.065899
0.044033
0.023534
0.0052334
0.17128
0.17506
0.17419
0.16772
0.15416
0.13554
0.11262
0.088717
0.064457
0.041969
0.021067
0.002471
0.1743
0.17853
0.17782
0.17102
0.15666
0.13691
0.11285
0.087887
0.062817
0.039704
0.018402
-0.00047544
0.17748
0.18223
0.18169
0.17451
0.15924
0.13825
0.11294
0.086861
0.060953
0.037213
0.01552
-0.0036191
0.18083
0.18617
0.18584
0.17821
0.1619
0.13954
0.11286
0.085602
0.05883
0.034472
0.012403
-0.0069735
0.18437
0.19039
0.19031
0.18214
0.16464
0.14072
0.11257
0.084063
0.056409
0.031447
0.0090266
-0.010553
0.18809
0.19493
0.19511
0.18631
0.16743
0.14178
0.11202
0.08219
0.053641
0.028101
0.0053637
-0.014373
0.19202
0.1998
0.2003
0.19072
0.17024
0.14263
0.11112
0.079914
0.050468
0.024388
0.0013826
-0.01845
0.19616
0.20506
0.20591
0.19538
0.17303
0.14322
0.10979
0.077154
0.046822
0.020256
-0.0029536
-0.022804
0.2005
0.21073
0.21195
0.20025
0.17572
0.14343
0.10793
0.073814
0.042626
0.015646
-0.0076859
-0.027455
0.20502
0.21683
0.21845
0.2053
0.1782
0.14313
0.10541
0.069784
0.037795
0.010495
-0.012856
-0.032423
0.20969
0.22337
0.22537
0.21044
0.18032
0.14215
0.10207
0.064945
0.03224
0.0047424
-0.018502
-0.037724
0.21444
0.23034
0.23267
0.21551
0.18187
0.14028
0.097737
0.059167
0.02588
-0.0016596
-0.024647
-0.04336
0.2192
0.23768
0.2402
0.22027
0.18256
0.13725
0.092208
0.052325
0.018645
-0.0087397
-0.031292
-0.049312
0.22388
0.24529
0.24773
0.22438
0.18201
0.13275
0.085271
0.044297
0.010487
-0.016495
-0.038402
-0.055532
0.22839
0.25294
0.25482
0.22726
0.17971
0.12642
0.076707
0.034988
0.001394
-0.024883
-0.045904
-0.061934
0.23263
0.26025
0.26072
0.2281
0.17499
0.11781
0.066315
0.024344
-0.0086001
-0.033818
-0.05368
-0.068398
0.2366
0.2665
0.26418
0.22563
0.16698
0.1065
0.053945
0.012381
-0.019399
-0.04317
-0.061582
-0.074781
0.24037
0.27054
0.2632
0.21808
0.15457
0.092022
0.039548
-0.00077075
-0.03082
-0.052754
-0.069437
-0.080935
0.24423
0.27047
0.2548
0.20299
0.13647
0.073986
0.023214
-0.014846
-0.04258
-0.062335
-0.077059
-0.086728
0.24878
0.26372
0.23496
0.17731
0.11122
0.052069
0.0051561
-0.029472
-0.054321
-0.071642
-0.084269
-0.092065
0.25491
0.24743
0.19944
0.13794
0.077477
0.026032
-0.014388
-0.044279
-0.065698
-0.080421
-0.09092
-0.096896
0.26304
0.21832
0.14522
0.083085
0.034481
-0.0042506
-0.035288
-0.059064
-0.076513
-0.088536
-0.096955
-0.10125
0.27351
0.17025
0.068507
0.011606
-0.018415
-0.039354
-0.057985
-0.074147
-0.087013
-0.096198
-0.10259
-0.1054
0.29665
0.10478
-0.030011
-0.07477
-0.080709
-0.080132
-0.083796
-0.090824
-0.098341
-0.10438
-0.10866
-0.11009
0.3442
0.040017
-0.13351
-0.16308
-0.14391
-0.12225
-0.1111
-0.10879
-0.11069
-0.11338
-0.11548
-0.11552
0.10369
0.064454
0.054403
0.048419
0.044282
0.041134
0.038586
0.03627
0.034278
0.032008
0.030334
0.027043
0.12317
0.07985
0.067358
0.059394
0.053953
0.04987
0.046605
0.043668
0.04118
0.038342
0.036341
0.032425
0.11039
0.074599
0.06329
0.055449
0.050079
0.046072
0.042898
0.040059
0.037699
0.034981
0.033175
0.029365
0.10529
0.074214
0.063227
0.055292
0.049786
0.045666
0.042413
0.039509
0.037125
0.034356
0.032584
0.028608
0.10464
0.076368
0.065218
0.057064
0.051313
0.046985
0.043567
0.040515
0.038027
0.035125
0.033298
0.029097
0.10399
0.078172
0.066946
0.058653
0.052703
0.048195
0.04463
0.041445
0.03886
0.035841
0.033955
0.029586
0.10287
0.079444
0.068287
0.059939
0.053839
0.049183
0.045493
0.042195
0.039527
0.036415
0.034475
0.029998
0.10169
0.08049
0.069492
0.061138
0.054922
0.050134
0.046328
0.042927
0.04018
0.036992
0.034999
0.030468
0.10059
0.081397
0.070627
0.062311
0.056008
0.051102
0.047188
0.04369
0.040868
0.037617
0.035574
0.031041
0.099535
0.082155
0.071677
0.063444
0.057087
0.052082
0.048069
0.044483
0.04159
0.038292
0.036203
0.031721
0.098518
0.082763
0.07263
0.064522
0.058148
0.053066
0.048967
0.045303
0.042345
0.039017
0.03689
0.032509
0.097532
0.083234
0.073484
0.065536
0.059179
0.054045
0.049877
0.046149
0.043134
0.039791
0.037635
0.033401
0.09658
0.083584
0.074238
0.06648
0.060173
0.055013
0.050792
0.047014
0.043953
0.040613
0.038436
0.034386
0.095662
0.083828
0.074895
0.067349
0.061121
0.055959
0.051705
0.047893
0.044797
0.041473
0.039286
0.035452
0.094779
0.08398
0.07546
0.068142
0.062016
0.056875
0.052605
0.048775
0.045655
0.042364
0.040174
0.036578
0.093933
0.084055
0.075939
0.068857
0.062852
0.057753
0.053486
0.049653
0.046521
0.043275
0.041088
0.037744
0.093123
0.084066
0.07634
0.069497
0.063628
0.058589
0.05434
0.050519
0.047384
0.044195
0.042017
0.03893
0.092349
0.084022
0.076668
0.070066
0.064343
0.059378
0.055161
0.051364
0.048237
0.045114
0.042949
0.040114
0.09161
0.083935
0.076933
0.070569
0.064997
0.060118
0.055944
0.052184
0.049072
0.046021
0.043872
0.04128
0.090906
0.083811
0.077142
0.071009
0.065593
0.060808
0.056688
0.052974
0.049884
0.04691
0.044777
0.042412
0.090234
0.083658
0.0773
0.071392
0.066133
0.06145
0.05739
0.05373
0.050668
0.047772
0.045656
0.043498
0.089594
0.083482
0.077415
0.071724
0.066621
0.062044
0.05805
0.054449
0.051419
0.048603
0.046503
0.044529
0.088983
0.083288
0.077492
0.072009
0.06706
0.062591
0.058668
0.055131
0.052137
0.049398
0.047314
0.045499
0.088399
0.083079
0.077536
0.072252
0.067454
0.063095
0.059245
0.055775
0.052818
0.050155
0.048085
0.046404
0.08784
0.082858
0.077551
0.072457
0.067805
0.063557
0.059783
0.056382
0.053464
0.050872
0.048816
0.047243
0.087306
0.082628
0.077541
0.072628
0.068119
0.063979
0.060282
0.05695
0.054073
0.051547
0.049505
0.048017
0.086794
0.082392
0.07751
0.072768
0.068396
0.064365
0.060744
0.057482
0.054647
0.052182
0.050152
0.048728
0.086302
0.082151
0.07746
0.072881
0.068642
0.064716
0.061172
0.057979
0.055185
0.052777
0.050759
0.049379
0.085829
0.081907
0.077394
0.072969
0.068857
0.065035
0.061567
0.058442
0.055689
0.053332
0.051325
0.049973
0.085375
0.08166
0.077314
0.073035
0.069046
0.065324
0.061931
0.058872
0.056161
0.05385
0.051854
0.050516
0.084936
0.081412
0.077222
0.073082
0.06921
0.065585
0.062266
0.059271
0.056601
0.054331
0.052346
0.05101
0.084513
0.081164
0.07712
0.073111
0.069351
0.065821
0.062573
0.059641
0.057011
0.054778
0.052804
0.051461
0.084105
0.080915
0.077009
0.073124
0.069472