/*--------------------------------*- C++ -*----------------------------------*\
  =========                 |
  \\      /  F ield         | OpenFOAM: The Open Source CFD Toolbox
   \\    /   O peration     | Website:  https://openfoam.org
    \\  /    A nd           | Version:  6.0
     \\/     M anipulation  |
\*---------------------------------------------------------------------------*/
FoamFile
{
    version     2.0;
    format      ascii;
    class       volScalarField;
    location    "0.32";
    object      p;
}
// * * * * * * * * * * * * * * * * * * * * * * * * * * * * * * * * * * * * * //

dimensions      [0 2 -2 0 0 0 0];

internalField   nonuniform List<scalar> 
13500
(
0.1069
0.10689
0.10615
0.10606
0.10423
0.10526
0.10185
0.1065
0.10148
0.11459
0.12012
0.18563
0.1069
0.10689
0.10615
0.10606
0.10423
0.10526
0.10184
0.1065
0.10147
0.11463
0.11953
0.18027
0.1069
0.10689
0.10615
0.10607
0.10422
0.10527
0.10183
0.10652
0.10144
0.11467
0.11875
0.17563
0.1069
0.1069
0.10615
0.10607
0.10422
0.10527
0.10182
0.10653
0.10141
0.11469
0.11791
0.17213
0.1069
0.1069
0.10615
0.10607
0.10422
0.10528
0.10181
0.10654
0.10137
0.1147
0.11706
0.16927
0.1069
0.1069
0.10615
0.10608
0.10421
0.10529
0.10179
0.10655
0.10133
0.1147
0.11621
0.16677
0.10691
0.1069
0.10615
0.10608
0.10421
0.10529
0.10178
0.10655
0.10129
0.11468
0.11539
0.16453
0.10691
0.10691
0.10615
0.10608
0.1042
0.1053
0.10177
0.10656
0.10125
0.11466
0.11459
0.16251
0.10691
0.10691
0.10615
0.10609
0.1042
0.1053
0.10175
0.10656
0.1012
0.11463
0.11383
0.16065
0.10691
0.10691
0.10615
0.10609
0.1042
0.10531
0.10174
0.10656
0.10115
0.11459
0.11309
0.15892
0.10692
0.10692
0.10616
0.1061
0.10419
0.10531
0.10172
0.10656
0.1011
0.11454
0.11237
0.15728
0.10692
0.10692
0.10616
0.1061
0.10419
0.10531
0.10171
0.10656
0.10104
0.11448
0.11168
0.15573
0.10692
0.10692
0.10616
0.1061
0.10419
0.10532
0.10169
0.10655
0.10098
0.11442
0.11101
0.15425
0.10693
0.10693
0.10616
0.10611
0.10419
0.10532
0.10167
0.10655
0.10092
0.11435
0.11035
0.15282
0.10693
0.10693
0.10617
0.10611
0.10418
0.10532
0.10166
0.10654
0.10086
0.11427
0.10971
0.15143
0.10694
0.10694
0.10617
0.10612
0.10418
0.10533
0.10164
0.10653
0.10079
0.11418
0.10908
0.15009
0.10694
0.10694
0.10617
0.10612
0.10418
0.10533
0.10163
0.10652
0.10072
0.11409
0.10846
0.14878
0.10695
0.10695
0.10618
0.10613
0.10418
0.10533
0.10161
0.1065
0.10065
0.114
0.10786
0.14751
0.10696
0.10696
0.10618
0.10613
0.10417
0.10533
0.10159
0.10649
0.10058
0.11389
0.10727
0.14626
0.10696
0.10696
0.10618
0.10614
0.10417
0.10533
0.10157
0.10647
0.10051
0.11378
0.10669
0.14503
0.10697
0.10697
0.10619
0.10614
0.10417
0.10533
0.10156
0.10645
0.10043
0.11367
0.10612
0.14383
0.10698
0.10698
0.10619
0.10615
0.10417
0.10533
0.10154
0.10643
0.10035
0.11354
0.10556
0.14265
0.10698
0.10698
0.1062
0.10615
0.10417
0.10533
0.10152
0.10641
0.10028
0.11342
0.10502
0.14149
0.10699
0.10699
0.10621
0.10616
0.10417
0.10533
0.1015
0.10638
0.1002
0.11328
0.10448
0.14034
0.107
0.107
0.10621
0.10617
0.10416
0.10533
0.10148
0.10636
0.10011
0.11314
0.10396
0.13922
0.10701
0.10701
0.10622
0.10617
0.10416
0.10533
0.10146
0.10633
0.10003
0.113
0.10345
0.13811
0.10702
0.10702
0.10622
0.10618
0.10416
0.10532
0.10144
0.1063
0.099946
0.11285
0.10295
0.13701
0.10703
0.10703
0.10623
0.10619
0.10416
0.10532
0.10142
0.10627
0.09986
0.1127
0.10246
0.13593
0.10704
0.10704
0.10624
0.10619
0.10416
0.10532
0.1014
0.10624
0.099773
0.11254
0.10198
0.13486
0.10705
0.10705
0.10625
0.1062
0.10416
0.10532
0.10138
0.1062
0.099685
0.11238
0.10151
0.13381
0.10706
0.10706
0.10626
0.10621
0.10416
0.10531
0.10136
0.10616
0.099596
0.11221
0.10105
0.13277
0.10707
0.10707
0.10626
0.10621
0.10416
0.10531
0.10134
0.10613
0.099506
0.11204
0.1006
0.13174
0.10708
0.10708
0.10627
0.10622
0.10416
0.1053
0.10132
0.10609
0.099415
0.11186
0.10016
0.13073
0.1071
0.10709
0.10628
0.10623
0.10416
0.1053
0.1013
0.10604
0.099324
0.11168
0.099728
0.12973
0.10711
0.10711
0.10629
0.10624
0.10416
0.10529
0.10128
0.106
0.099231
0.11149
0.099308
0.12873
0.10712
0.10712
0.1063
0.10625
0.10416
0.10529
0.10126
0.10595
0.099138
0.11131
0.098897
0.12776
0.10714
0.10713
0.10631
0.10625
0.10416
0.10528
0.10123
0.10591
0.099044
0.11111
0.098495
0.12679
0.10715
0.10715
0.10633
0.10626
0.10417
0.10528
0.10121
0.10586
0.09895
0.11092
0.098102
0.12583
0.10716
0.10716
0.10634
0.10627
0.10417
0.10527
0.10119
0.10581
0.098855
0.11072
0.097718
0.12489
0.10718
0.10718
0.10635
0.10628
0.10417
0.10526
0.10117
0.10576
0.09876
0.11051
0.097343
0.12396
0.1072
0.10719
0.10636
0.10629
0.10417
0.10525
0.10115
0.1057
0.098664
0.11031
0.096976
0.12304
0.10721
0.10721
0.10637
0.1063
0.10417
0.10525
0.10112
0.10565
0.098568
0.1101
0.096617
0.12213
0.10723
0.10722
0.10639
0.10631
0.10418
0.10524
0.1011
0.10559
0.098471
0.10989
0.096266
0.12123
0.10725
0.10724
0.1064
0.10632
0.10418
0.10523
0.10108
0.10554
0.098374
0.10967
0.095923
0.12035
0.10726
0.10726
0.10642
0.10633
0.10418
0.10522
0.10106
0.10548
0.098277
0.10945
0.095588
0.11947
0.10728
0.10727
0.10643
0.10634
0.10419
0.10521
0.10103
0.10542
0.09818
0.10923
0.09526
0.11861
0.1073
0.10729
0.10645
0.10635
0.10419
0.1052
0.10101
0.10535
0.098082
0.10901
0.09494
0.11776
0.10732
0.10731
0.10646
0.10636
0.10419
0.10519
0.10099
0.10529
0.097984
0.10878
0.094626
0.11692
0.10734
0.10733
0.10648
0.10637
0.1042
0.10518
0.10096
0.10522
0.097887
0.10855
0.09432
0.11609
0.10736
0.10735
0.10649
0.10638
0.1042
0.10517
0.10094
0.10516
0.097789
0.10832
0.09402
0.11527
0.10738
0.10737
0.10651
0.10639
0.10421
0.10516
0.10092
0.10509
0.097691
0.10809
0.093727
0.11446
0.1074
0.10739
0.10653
0.10641
0.10421
0.10515
0.10089
0.10502
0.097593
0.10785
0.09344
0.11367
0.10743
0.10741
0.10655
0.10642
0.10422
0.10514
0.10087
0.10495
0.097495
0.10761
0.093159
0.11288
0.10745
0.10743
0.10657
0.10643
0.10422
0.10512
0.10085
0.10488
0.097397
0.10737
0.092884
0.11211
0.10747
0.10745
0.10659
0.10644
0.10423
0.10511
0.10082
0.1048
0.0973
0.10713
0.092615
0.11135
0.1075
0.10747
0.1066
0.10646
0.10424
0.1051
0.1008
0.10473
0.097202
0.10689
0.092352
0.11059
0.10752
0.1075
0.10663
0.10647
0.10424
0.10509
0.10078
0.10465
0.097104
0.10665
0.092095
0.10985
0.10755
0.10752
0.10665
0.10648
0.10425
0.10507
0.10075
0.10457
0.097007
0.1064
0.091842
0.10912
0.10757
0.10755
0.10667
0.1065
0.10426
0.10506
0.10073
0.1045
0.09691
0.10615
0.091595
0.1084
0.1076
0.10757
0.10669
0.10651
0.10426
0.10505
0.10071
0.10442
0.096813
0.1059
0.091353
0.10769
0.10763
0.1076
0.10671
0.10653
0.10427
0.10503
0.10068
0.10434
0.096716
0.10565
0.091116
0.107
0.10765
0.10762
0.10674
0.10654
0.10428
0.10502
0.10066
0.10425
0.09662
0.1054
0.090884
0.10631
0.10768
0.10765
0.10676
0.10656
0.10429
0.10501
0.10064
0.10417
0.096524
0.10515
0.090656
0.10563
0.10771
0.10768
0.10678
0.10657
0.1043
0.10499
0.10062
0.10409
0.096428
0.1049
0.090433
0.10496
0.10774
0.1077
0.10681
0.10659
0.10431
0.10498
0.10059
0.104
0.096332
0.10464
0.090214
0.1043
0.10777
0.10773
0.10683
0.1066
0.10432
0.10496
0.10057
0.10391
0.096237
0.10439
0.089999
0.10366
0.1078
0.10776
0.10686
0.10662
0.10433
0.10495
0.10055
0.10383
0.096142
0.10413
0.089788
0.10302
0.10784
0.10779
0.10689
0.10664
0.10434
0.10493
0.10052
0.10374
0.096047
0.10388
0.089581
0.10239
0.10787
0.10782
0.10692
0.10666
0.10435
0.10492
0.1005
0.10365
0.095953
0.10362
0.089378
0.10177
0.1079
0.10785
0.10694
0.10667
0.10436
0.1049
0.10048
0.10356
0.095858
0.10336
0.089178
0.10117
0.10794
0.10789
0.10697
0.10669
0.10437
0.10488
0.10046
0.10347
0.095765
0.1031
0.088982
0.10057
0.10797
0.10792
0.107
0.10671
0.10439
0.10487
0.10043
0.10338
0.095672
0.10285
0.08879
0.099976
0.10801
0.10795
0.10703
0.10673
0.1044
0.10485
0.10041
0.10328
0.095579
0.10259
0.0886
0.099396
0.10804
0.10799
0.10706
0.10675
0.10441
0.10484
0.10039
0.10319
0.095486
0.10233
0.088414
0.098825
0.10808
0.10802
0.10709
0.10677
0.10443
0.10482
0.10037
0.1031
0.095394
0.10207
0.088231
0.098262
0.10812
0.10806
0.10713
0.10679
0.10444
0.1048
0.10035
0.103
0.095302
0.10181
0.088051
0.097709
0.10816
0.10809
0.10716
0.10681
0.10446
0.10479
0.10032
0.10291
0.095211
0.10155
0.087873
0.097164
0.1082
0.10813
0.10719
0.10684
0.10447
0.10477
0.1003
0.10281
0.09512
0.10129
0.087698
0.096628
0.10824
0.10817
0.10723
0.10686
0.10449
0.10475
0.10028
0.10271
0.095029
0.10103
0.087526
0.0961
0.10828
0.10821
0.10726
0.10688
0.10451
0.10474
0.10026
0.10262
0.094939
0.10078
0.087356
0.095581
0.10832
0.10825
0.1073
0.1069
0.10452
0.10472
0.10024
0.10252
0.094849
0.10052
0.087189
0.09507
0.10836
0.10829
0.10734
0.10693
0.10454
0.10471
0.10022
0.10242
0.09476
0.10026
0.087023
0.094567
0.10841
0.10833
0.10738
0.10695
0.10456
0.10469
0.1002
0.10232
0.094671
0.1
0.08686
0.094072
0.10845
0.10837
0.10741
0.10698
0.10458
0.10467
0.10018
0.10222
0.094583
0.099743
0.086699
0.093584
0.1085
0.10841
0.10745
0.107
0.1046
0.10466
0.10016
0.10212
0.094494
0.099486
0.08654
0.093105
0.10855
0.10846
0.10749
0.10703
0.10462
0.10464
0.10014
0.10202
0.094407
0.09923
0.086383
0.092633
0.10859
0.1085
0.10754
0.10706
0.10464
0.10463
0.10012
0.10192
0.094319
0.098974
0.086228
0.092168
0.10864
0.10855
0.10758
0.10708
0.10466
0.10461
0.1001
0.10181
0.094232
0.098718
0.086074
0.09171
0.10869
0.10859
0.10762
0.10711
0.10468
0.10459
0.10008
0.10171
0.094146
0.098463
0.085922
0.09126
0.10874
0.10864
0.10767
0.10714
0.1047
0.10458
0.10006
0.10161
0.09406
0.098209
0.085772
0.090817
0.10879
0.10869
0.10771
0.10717
0.10473
0.10456
0.10005
0.10151
0.093974
0.097955
0.085623
0.09038
0.10885
0.10874
0.10776
0.1072
0.10475
0.10455
0.10003
0.1014
0.093888
0.097702
0.085475
0.08995
0.1089
0.10879
0.1078
0.10723
0.10477
0.10453
0.10001
0.1013
0.093803
0.09745
0.085328
0.089527
0.10896
0.10884
0.10785
0.10727
0.1048
0.10452
0.099993
0.1012
0.093719
0.097199
0.085183
0.08911
0.10901
0.10889
0.1079
0.1073
0.10482
0.1045
0.099976
0.1011
0.093634
0.096948
0.085039
0.0887
0.10907
0.10895
0.10795
0.10733
0.10485
0.10449
0.09996
0.10099
0.09355
0.096699
0.084896
0.088295
0.10913
0.109
0.108
0.10737
0.10488
0.10448
0.099943
0.10089
0.093467
0.09645
0.084754
0.087897
0.10919
0.10906
0.10805
0.1074
0.10491
0.10446
0.099927
0.10078
0.093383
0.096202
0.084613
0.087505
0.10925
0.10912
0.10811
0.10744
0.10494
0.10445
0.099912
0.10068
0.0933
0.095956
0.084472
0.087118
0.10931
0.10918
0.10816
0.10748
0.10497
0.10444
0.099897
0.10058
0.093218
0.09571
0.084333
0.086737
0.10937
0.10923
0.10822
0.10751
0.105
0.10442
0.099882
0.10047
0.093135
0.095465
0.084194
0.086361
0.10944
0.1093
0.10827
0.10755
0.10503
0.10441
0.099867
0.10037
0.093053
0.095221
0.084055
0.085991
0.1095
0.10936
0.10833
0.10759
0.10506
0.1044
0.099853
0.10026
0.092971
0.094978
0.083918
0.085625
0.10957
0.10942
0.10839
0.10763
0.10509
0.10439
0.09984
0.10016
0.09289
0.094737
0.08378
0.085265
0.10964
0.10949
0.10845
0.10768
0.10513
0.10438
0.099827
0.10006
0.092809
0.094496
0.083643
0.08491
0.10971
0.10955
0.10851
0.10772
0.10516
0.10437
0.099814
0.099954
0.092727
0.094257
0.083507
0.08456
0.10978
0.10962
0.10858
0.10776
0.1052
0.10436
0.099802
0.099851
0.092647
0.094018
0.08337
0.084214
0.10985
0.10969
0.10864
0.10781
0.10523
0.10435
0.09979
0.099748
0.092566
0.093781
0.083234
0.083873
0.10993
0.10976
0.10871
0.10786
0.10527
0.10434
0.099779
0.099645
0.092486
0.093545
0.083099
0.083536
0.11
0.10983
0.10877
0.1079
0.10531
0.10434
0.099768
0.099543
0.092406
0.09331
0.082963
0.083203
0.11008
0.1099
0.10884
0.10795
0.10535
0.10433
0.099757
0.099441
0.092326
0.093077
0.082827
0.082874
0.11016
0.10998
0.10891
0.108
0.10539
0.10432
0.099747
0.099339
0.092246
0.092844
0.082691
0.08255
0.11024
0.11005
0.10898
0.10805
0.10544
0.10432
0.099738
0.099238
0.092166
0.092613
0.082555
0.082229
0.11032
0.11013
0.10906
0.10811
0.10548
0.10431
0.099729
0.099137
0.092087
0.092383
0.082419
0.081912
0.1104
0.11021
0.10913
0.10816
0.10552
0.10431
0.099721
0.099036
0.092008
0.092154
0.082283
0.081599
0.11049
0.11029
0.10921
0.10822
0.10557
0.10431
0.099714
0.098936
0.091929
0.091926
0.082147
0.081289
0.11058
0.11038
0.10929
0.10827
0.10562
0.10431
0.099707
0.098836
0.09185
0.091699
0.08201
0.080982
0.11067
0.11046
0.10937
0.10833
0.10566
0.1043
0.0997
0.098737
0.091771
0.091474
0.081873
0.080678
0.11076
0.11055
0.10945
0.10839
0.10571
0.1043
0.099695
0.098639
0.091692
0.09125
0.081736
0.080378
0.11085
0.11064
0.10953
0.10846
0.10577
0.10431
0.09969
0.098541
0.091613
0.091027
0.081598
0.08008
0.11094
0.11073
0.10962
0.10852
0.10582
0.10431
0.099685
0.098444
0.091535
0.090805
0.081459
0.079785
0.11104
0.11082
0.1097
0.10858
0.10587
0.10431
0.099682
0.098347
0.091456
0.090584
0.08132
0.079493
0.11114
0.11092
0.10979
0.10865
0.10593
0.10432
0.099679
0.098251
0.091378
0.090365
0.08118
0.079203
0.11124
0.11101
0.10989
0.10872
0.10598
0.10432
0.099677
0.098156
0.0913
0.090147
0.08104
0.078916
0.11135
0.11111
0.10998
0.10879
0.10604
0.10433
0.099676
0.098062
0.091221
0.08993
0.080899
0.078631
0.11145
0.11122
0.11007
0.10886
0.1061
0.10434
0.099675
0.097968
0.091143
0.089714
0.080757
0.078348
0.11156
0.11132
0.11017
0.10894
0.10617
0.10435
0.099676
0.097876
0.091065
0.089499
0.080614
0.078067
0.11167
0.11143
0.11027
0.10902
0.10623
0.10436
0.099677
0.097784
0.090987
0.089285
0.080471
0.077788
0.11178
0.11153
0.11038
0.1091
0.10629
0.10437
0.099679
0.097693
0.090909
0.089072
0.080326
0.07751
0.1119
0.11165
0.11048
0.10918
0.10636
0.10439
0.099683
0.097603
0.090831
0.088861
0.08018
0.077234
0.11202
0.11176
0.11059
0.10926
0.10643
0.1044
0.099687
0.097514
0.090753
0.088651
0.080034
0.07696
0.11214
0.11188
0.1107
0.10935
0.1065
0.10442
0.099692
0.097426
0.090675
0.088441
0.079886
0.076687
0.11226
0.112
0.11081
0.10944
0.10658
0.10444
0.099698
0.097339
0.090597
0.088233
0.079737
0.076415
0.11239
0.11212
0.11093
0.10953
0.10665
0.10446
0.099706
0.097253
0.090519
0.088026
0.079587
0.076144
0.11252
0.11225
0.11105
0.10962
0.10673
0.10448
0.099715
0.097168
0.090441
0.087819
0.079435
0.075874
0.11265
0.11238
0.11117
0.10972
0.10681
0.10451
0.099725
0.097085
0.090363
0.087614
0.079283
0.075605
0.11279
0.11251
0.11129
0.10982
0.10689
0.10454
0.099736
0.097003
0.090285
0.08741
0.079128
0.075336
0.11293
0.11264
0.11142
0.10992
0.10698
0.10457
0.099749
0.096922
0.090207
0.087206
0.078973
0.075068
0.11307
0.11278
0.11155
0.11002
0.10707
0.1046
0.099763
0.096842
0.090129
0.087004
0.078816
0.074801
0.11321
0.11292
0.11169
0.11013
0.10716
0.10463
0.099778
0.096764
0.090051
0.086802
0.078657
0.074533
0.11336
0.11307
0.11182
0.11025
0.10725
0.10467
0.099795
0.096687
0.089974
0.086602
0.078497
0.074266
0.11352
0.11322
0.11197
0.11036
0.10735
0.10471
0.099814
0.096612
0.089896
0.086402
0.078335
0.073998
0.11368
0.11338
0.11211
0.11048
0.10745
0.10475
0.099834
0.096538
0.089818
0.086203
0.078171
0.073731
0.11384
0.11353
0.11226
0.1106
0.10755
0.10479
0.099856
0.096466
0.089741
0.086004
0.078006
0.073463
0.114
0.1137
0.11241
0.11073
0.10766
0.10484
0.09988
0.096396
0.089663
0.085807
0.077838
0.073194
0.11417
0.11386
0.11257
0.11086
0.10777
0.10489
0.099906
0.096327
0.089586
0.08561
0.077669
0.072925
0.11435
0.11404
0.11273
0.111
0.10788
0.10494
0.099934
0.09626
0.089508
0.085414
0.077498
0.072655
0.11453
0.11421
0.1129
0.11114
0.108
0.105
0.099963
0.096195
0.089431
0.085219
0.077325
0.072384
0.11471
0.11439
0.11307
0.11128
0.10812
0.10506
0.099996
0.096132
0.089354
0.085024
0.077149
0.072112
0.1149
0.11458
0.11325
0.11143
0.10824
0.10513
0.10003
0.096071
0.089277
0.08483
0.076972
0.071839
0.11509
0.11477
0.11343
0.11158
0.10837
0.10519
0.10007
0.096012
0.0892
0.084636
0.076792
0.071564
0.11529
0.11497
0.11362
0.11174
0.1085
0.10526
0.10011
0.095955
0.089124
0.084443
0.07661
0.071288
0.1155
0.11517
0.11381
0.11191
0.10864
0.10534
0.10015
0.0959
0.089048
0.08425
0.076426
0.07101
0.11571
0.11538
0.11401
0.11207
0.10878
0.10542
0.10019
0.095847
0.088972
0.084058
0.076239
0.07073
0.11593
0.11559
0.11421
0.11225
0.10893
0.1055
0.10024
0.095797
0.088896
0.083867
0.07605
0.070448
0.11615
0.11582
0.11442
0.11243
0.10908
0.10559
0.10029
0.09575
0.08882
0.083675
0.075858
0.070164
0.11638
0.11604
0.11464
0.11262
0.10924
0.10568
0.10034
0.095705
0.088745
0.083485
0.075663
0.069877
0.11662
0.11628
0.11486
0.11281
0.1094
0.10578
0.1004
0.095662
0.08867
0.083294
0.075466
0.069588
0.11686
0.11652
0.1151
0.11301
0.10957
0.10588
0.10046
0.095622
0.088596
0.083104
0.075265
0.069296
0.11711
0.11677
0.11533
0.11322
0.10975
0.10599
0.10053
0.095586
0.088522
0.082913
0.075062
0.069001
0.11737
0.11703
0.11558
0.11343
0.10993
0.1061
0.10059
0.095552
0.088448
0.082723
0.074856
0.068703
0.11764
0.11729
0.11583
0.11365
0.11012
0.10622
0.10066
0.095521
0.088375
0.082534
0.074647
0.068402
0.11791
0.11757
0.11609
0.11388
0.11031
0.10635
0.10074
0.095493
0.088303
0.082344
0.074434
0.068097
0.11819
0.11785
0.11636
0.11412
0.11051
0.10648
0.10082
0.095468
0.088231
0.082154
0.074218
0.067788
0.11848
0.11814
0.11664
0.11437
0.11072
0.10662
0.1009
0.095447
0.088159
0.081964
0.073999
0.067475
0.11878
0.11844
0.11693
0.11462
0.11094
0.10676
0.10099
0.095429
0.088088
0.081774
0.073776
0.067158
0.11909
0.11875
0.11722
0.11488
0.11116
0.10691
0.10109
0.095415
0.088018
0.081584
0.073549
0.066836
0.11941
0.11907
0.11753
0.11515
0.11139
0.10707
0.10118
0.095404
0.087948
0.081393
0.073318
0.06651
0.11974
0.1194
0.11784
0.11544
0.11163
0.10723
0.10129
0.095397
0.08788
0.081202
0.073084
0.066178
0.12008
0.11974
0.11817
0.11573
0.11188
0.10741
0.1014
0.095394
0.087811
0.081011
0.072845
0.065842
0.12043
0.12009
0.11851
0.11603
0.11214
0.10759
0.10151
0.095395
0.087744
0.080818
0.072602
0.0655
0.12079
0.12045
0.11886
0.11635
0.11241
0.10778
0.10163
0.0954
0.087677
0.080626
0.072354
0.065152
0.12116
0.12082
0.11922
0.11667
0.11269
0.10797
0.10176
0.095409
0.08761
0.080432
0.072102
0.064798
0.12155
0.12121
0.11959
0.11701
0.11298
0.10818
0.10189
0.095422
0.087545
0.080237
0.071845
0.064437
0.12194
0.12161
0.11997
0.11735
0.11328
0.10839
0.10203
0.095439
0.08748
0.080042
0.071582
0.06407
0.12235
0.12202
0.12037
0.11772
0.11359
0.10862
0.10217
0.095461
0.087415
0.079845
0.071315
0.063696
0.12278
0.12245
0.12078
0.11809
0.11391
0.10885
0.10232
0.095488
0.087351
0.079646
0.071041
0.063314
0.12321
0.12289
0.12121
0.11848
0.11424
0.1091
0.10248
0.095518
0.087288
0.079446
0.070762
0.062924
0.12366
0.12335
0.12165
0.11888
0.11459
0.10935
0.10265
0.095554
0.087225
0.079244
0.070476
0.062526
0.12413
0.12382
0.1221
0.11929
0.11495
0.10962
0.10282
0.095594
0.087163
0.07904
0.070185
0.06212
0.12461
0.1243
0.12258
0.11973
0.11532
0.1099
0.103
0.095639
0.087101
0.078833
0.069886
0.061704
0.12511
0.12481
0.12306
0.12017
0.11571
0.11018
0.10319
0.095688
0.087038
0.078624
0.06958
0.061278
0.12562
0.12533
0.12357
0.12063
0.11611
0.11048
0.10339
0.095742
0.086976
0.078411
0.069266
0.060843
0.12615
0.12587
0.12409
0.12111
0.11652
0.1108
0.10359
0.095801
0.086914
0.078196
0.068944
0.060396
0.1267
0.12642
0.12463
0.12161
0.11695
0.11112
0.1038
0.095865
0.086851
0.077976
0.068614
0.059938
0.12726
0.127
0.12519
0.12213
0.1174
0.11146
0.10402
0.095933
0.086788
0.077753
0.068275
0.059469
0.12785
0.12759
0.12577
0.12266
0.11786
0.11181
0.10426
0.096007
0.086724
0.077525
0.067926
0.058987
0.12845
0.12821
0.12637
0.12321
0.11834
0.11218
0.10449
0.096084
0.086659
0.077292
0.067568
0.058491
0.12908
0.12885
0.12699
0.12379
0.11884
0.11256
0.10474
0.096166
0.086593
0.077054
0.067198
0.057982
0.12973
0.12951
0.12763
0.12438
0.11935
0.11295
0.105
0.096253
0.086524
0.076809
0.066817
0.057458
0.1304
0.13019
0.1283
0.125
0.11989
0.11336
0.10527
0.096344
0.086454
0.076558
0.066424
0.056918
0.13109
0.1309
0.12899
0.12564
0.12044
0.11378
0.10555
0.096439
0.086382
0.076299
0.066018
0.056362
0.13181
0.13163
0.1297
0.1263
0.12101
0.11423
0.10583
0.096538
0.086306
0.076032
0.065599
0.055789
0.13255
0.13239
0.13045
0.12699
0.12161
0.11468
0.10613
0.096641
0.086227
0.075757
0.065164
0.055197
0.13332
0.13318
0.13122
0.12771
0.12223
0.11516
0.10644
0.096748
0.086145
0.075472
0.064715
0.054586
0.13412
0.13399
0.13202
0.12845
0.12287
0.11565
0.10676
0.096859
0.086058
0.075177
0.064248
0.053955
0.13494
0.13484
0.13285
0.12922
0.12354
0.11617
0.10709
0.096972
0.085966
0.07487
0.063764
0.053302
0.1358
0.13572
0.13371
0.13002
0.12424
0.1167
0.10743
0.097089
0.085868
0.074551
0.063261
0.052625
0.13669
0.13663
0.13461
0.13086
0.12496
0.11725
0.10778
0.097209
0.085764
0.074218
0.062739
0.051925
0.13762
0.13759
0.13554
0.13173
0.12571
0.11782
0.10815
0.097331
0.085652
0.073871
0.062194
0.051198
0.13858
0.13857
0.13651
0.13263
0.12649
0.11842
0.10853
0.097455
0.085533
0.073508
0.061627
0.050444
0.13958
0.13961
0.13752
0.13358
0.1273
0.11904
0.10892
0.097581
0.085405
0.073128
0.061036
0.049661
0.14062
0.14068
0.13858
0.13456
0.12815
0.11969
0.10932
0.097708
0.085266
0.07273
0.060418
0.048848
0.14171
0.1418
0.13968
0.13559
0.12903
0.12036
0.10973
0.097837
0.085117
0.072311
0.059773
0.048001
0.14284
0.14297
0.14084
0.13666
0.12995
0.12106
0.11016
0.097965
0.084956
0.07187
0.059097
0.047119
0.14402
0.14419
0.14204
0.13779
0.13091
0.12178
0.11061
0.098094
0.084781
0.071406
0.05839
0.0462
0.14526
0.14547
0.1433
0.13896
0.13192
0.12254
0.11106
0.098222
0.08459
0.070916
0.057649
0.045242
0.14656
0.14682
0.14463
0.1402
0.13297
0.12333
0.11154
0.098347
0.084383
0.070397
0.056871
0.044241
0.14791
0.14822
0.14602
0.14149
0.13408
0.12415
0.11202
0.09847
0.084157
0.069848
0.056053
0.043195
0.14933
0.1497
0.14748
0.14285
0.13523
0.12501
0.11253
0.098589
0.08391
0.069266
0.055193
0.042101
0.15082
0.15125
0.14902
0.14428
0.13644
0.12591
0.11304
0.098702
0.083638
0.068647
0.054286
0.040955
0.15239
0.15289
0.15064
0.14579
0.13771
0.12684
0.11357
0.098807
0.08334
0.067987
0.05333
0.039754
0.15404
0.15461
0.15234
0.14737
0.13905
0.12782
0.11412
0.098901
0.083011
0.067282
0.052319
0.038493
0.15578
0.15642
0.15414
0.14904
0.14045
0.12883
0.11468
0.098982
0.082647
0.066528
0.05125
0.037169
0.15761
0.15834
0.15605
0.15081
0.14193
0.12989
0.11525
0.099046
0.082242
0.065718
0.050115
0.035775
0.15953
0.16036
0.15806
0.15267
0.14348
0.131
0.11583
0.099089
0.081792
0.064847
0.04891
0.034307
0.16157
0.1625
0.16019
0.15464
0.14511
0.13215
0.11641
0.099104
0.081289
0.063906
0.047626
0.032758
0.16371
0.16476
0.16245
0.15672
0.14682
0.13334
0.117
0.099086
0.080725
0.062888
0.046256
0.03112
0.16598
0.16716
0.16484
0.15892
0.14862
0.13457
0.11759
0.099026
0.08009
0.061783
0.044791
0.029386
0.16838
0.1697
0.16737
0.16125
0.15051
0.13585
0.11816
0.098915
0.079374
0.060579
0.04322
0.027548
0.17091
0.1724
0.17007
0.16371
0.1525
0.13716
0.11872
0.098742
0.078565
0.059264
0.041532
0.025593
0.1736
0.17525
0.17293
0.16632
0.15458
0.13851
0.11925
0.098493
0.077647
0.057824
0.039714
0.023512
0.17644
0.17829
0.17597
0.16908
0.15675
0.13988
0.11975
0.098154
0.076604
0.056242
0.037751
0.021292
0.17945
0.18152
0.17921
0.172
0.15903
0.14128
0.12019
0.097705
0.075417
0.054502
0.035627
0.018918
0.18264
0.18496
0.18266
0.17509
0.16141
0.14268
0.12056
0.097126
0.074066
0.052582
0.033325
0.016376
0.18603
0.18862
0.18634
0.17837
0.16388
0.14408
0.12084
0.096392
0.072524
0.050461
0.030825
0.013648
0.18963
0.19254
0.19027
0.18184
0.16644
0.14546
0.121
0.095473
0.070764
0.048114
0.028106
0.010717
0.19347
0.19673
0.19447
0.18552
0.1691
0.1468
0.121
0.094333
0.068753
0.045512
0.025145
0.0075636
0.19756
0.20122
0.19899
0.18942
0.17183
0.14806
0.12082
0.092932
0.066454
0.042624
0.021915
0.0041669
0.20194
0.20606
0.20384
0.19355
0.17462
0.14921
0.12039
0.091218
0.06382
0.039413
0.018389
0.00050539
0.20663
0.21129
0.20906
0.19792
0.17744
0.15019
0.11966
0.089131
0.0608
0.035837
0.014534
-0.0034446
0.21167
0.21695
0.21469
0.20253
0.18027
0.15095
0.11856
0.086598
0.057331
0.031847
0.010314
-0.0077087
0.2171
0.2231
0.22078
0.20739
0.18304
0.15139
0.11697
0.083529
0.053339
0.027384
0.0056849
-0.012315
0.22295
0.2298
0.22736
0.21246
0.18566
0.1514
0.11479
0.079818
0.048736
0.022383
0.00059912
-0.017295
0.22927
0.23711
0.23445
0.2177
0.18803
0.15083
0.11186
0.075339
0.043424
0.016768
-0.0049981
-0.022681
0.23611
0.24511
0.24207
0.22302
0.18998
0.14949
0.10802
0.069945
0.037288
0.010457
-0.011166
-0.02851
0.2435
0.25384
0.25019
0.22827
0.19128
0.14712
0.10303
0.063472
0.03021
0.0033634
-0.017963
-0.034814
0.25152
0.26336
0.25872
0.2332
0.19159
0.14343
0.096658
0.05574
0.022067
-0.0045907
-0.025439
-0.041613
0.26023
0.27367
0.26748
0.23744
0.19049
0.13802
0.088616
0.046563
0.012749
-0.013465
-0.033622
-0.048908
0.26975
0.28474
0.27608
0.24041
0.1874
0.13045
0.078604
0.035773
0.0021768
-0.023281
-0.0425
-0.056659
0.28022
0.29638
0.2839
0.24126
0.18155
0.12018
0.066333
0.023244
-0.0096696
-0.033997
-0.051998
-0.064767
0.29192
0.30818
0.28983
0.23876
0.17201
0.10667
0.051579
0.0089469
-0.022712
-0.045481
-0.061955
-0.073062
0.30522
0.31933
0.29213
0.2312
0.15766
0.089453
0.034274
-0.0069797
-0.036727
-0.057479
-0.072109
-0.08129
0.32064
0.32834
0.28819
0.21639
0.13735
0.068231
0.014608
-0.024159
-0.051299
-0.069597
-0.082095
-0.089133
0.33879
0.33282
0.27445
0.19178
0.11009
0.043063
-0.0068895
-0.041949
-0.065821
-0.081317
-0.091474
-0.096245
0.36011
0.32967
0.24708
0.15513
0.075412
0.014471
-0.029381
-0.059511
-0.079572
-0.092068
-0.099802
-0.10232
0.38379
0.31464
0.20325
0.10579
0.033925
-0.016548
-0.051901
-0.076036
-0.091911
-0.10138
-0.10676
-0.1072
0.40819
0.28007
0.13962
0.044325
-0.013212
-0.049226
-0.074022
-0.091285
-0.10271
-0.10922
-0.11238
-0.11108
0.44142
0.22401
0.05424
-0.028494
-0.065471
-0.08412
-0.09683
-0.10642
-0.11305
-0.11652
-0.1175
-0.11475
0.4955
0.16344
-0.040469
-0.10521
-0.11866
-0.11951
-0.12016
-0.12199
-0.12368
-0.12401
-0.1228
-0.11876
0.10699
0.071497
0.0662
0.065581
0.066095
0.066395
0.066008
0.064857
0.063184
0.060993
0.058688
0.05567
0.12538
0.085961
0.078718
0.077015
0.077221
0.077524
0.077179
0.075987
0.07419
0.071751
0.069172
0.066091
0.11076
0.078107
0.071195
0.068938
0.068807
0.069041
0.068828
0.067899
0.066441
0.064375
0.062186
0.0595
0.10455
0.076418
0.069426
0.066798
0.066422
0.066567
0.066381
0.065544
0.06422
0.062292
0.060255
0.057675
0.10336
0.078105
0.070757
0.067767
0.067118
0.067108
0.066857
0.066002
0.064694
0.062781
0.060774
0.058206
0.10246
0.079817
0.072211
0.068861
0.067883
0.067651
0.067277
0.066365
0.065046
0.063134
0.061146
0.058579
0.1013
0.081241
0.073531
0.069841
0.0685
0.067994
0.067455
0.066457
0.06511
0.063192
0.061222
0.058656
0.10023
0.082604
0.074905
0.070913
0.069203
0.06839
0.067653
0.066541
0.065145
0.063208
0.061247
0.058677
0.09933
0.08391
0.076312
0.07207
0.070008
0.068881
0.067925
0.06668
0.065218
0.06325
0.061287
0.058704
0.098548
0.085084
0.077664
0.073232
0.070855
0.069423
0.068244
0.066855
0.065316
0.063307
0.061335
0.058736
0.097835
0.086091
0.078904
0.074343
0.071698
0.069983
0.068588
0.067053
0.065431
0.063377
0.061389
0.058771
0.09717
0.086924
0.080009
0.075373
0.072508
0.070542
0.068944
0.067269
0.065561
0.063459
0.061453
0.058816
0.096546
0.087597
0.080971
0.076308
0.073269
0.071086
0.069305
0.067496
0.065705
0.063553
0.061527
0.058874
0.095957
0.088126
0.081796
0.077141
0.073972
0.071605
0.069661
0.06773
0.065859
0.063659
0.061612
0.058945
0.095403
0.08853
0.082493
0.077877
0.074613
0.072095
0.070008
0.067966
0.066021
0.063776
0.061707
0.059029
0.094882
0.088829
0.083077
0.078519
0.075192
0.07255
0.070341
0.068201
0.066187
0.0639
0.061811
0.059125
0.094393
0.089042
0.083561
0.079077
0.075711
0.072972
0.070659
0.068433
0.066356
0.064031
0.061923
0.059233
0.093935
0.089184
0.083959
0.079559
0.076175
0.073359
0.07096
0.068658
0.066526
0.064168
0.062041
0.059352
0.093509
0.089269
0.084283
0.079974
0.076587
0.073714
0.071243
0.068877
0.066696
0.064308
0.062165
0.059479
0.093111
0.089307
0.084543
0.080328
0.076952
0.074037
0.071508
0.069088
0.066863
0.06445
0.062293
0.059613
0.092741
0.089309
0.08475
0.08063
0.077274
0.074331
0.071755
0.069291
0.067028
0.064594
0.062424
0.059753
0.092396
0.089282
0.08491
0.080885
0.077557
0.074597
0.071985
0.069484
0.067189
0.064738
0.062557
0.059898
0.092076
0.089231
0.085032
0.0811
0.077805
0.074837
0.072198
0.069667
0.067346
0.064882
0.062692
0.060046
0.091777
0.089161
0.085121
0.081279
0.078021
0.075053
0.072394
0.069841
0.067499
0.065025
0.062828
0.060198
0.091497
0.089077
0.085181
0.081427
0.078208
0.075247
0.072575
0.070006
0.067646
0.065166
0.062963
0.06035
0.091236
0.088981
0.085216
0.081546
0.07837
0.075419
0.072741
0.070161
0.067787
0.065304
0.063098
0.060504
0.090991
0.088876
0.085231
0.081642
0.078508
0.075573
0.072893
0.070306
0.067923
0.06544
0.063232
0.060658
0.09076
0.088763
0.085228
0.081716
0.078625
0.075709
0.073032
0.070443
0.068053
0.065573
0.063364
0.060811
0.090542
0.088645
0.08521
0.08177
0.078723
0.075829
0.073158
0.07057
0.068177
0.065702
0.063494
0.060962
0.090335
0.088522
0.085179
0.081808
0.078804
0.075934
0.073272
0.070688
0.068295
0.065827
0.063622
0.061112
0.090137
0.088395
0.085137
0.081832
0.078869
0.076025
0.073374
0.070798
0.068407
0.065948
0.063746
0.06126
0.089949
0.088266
0.085084
0.081842
0.078921
0.076103
0.073466
0.0709
0.068513
0.066064
0.063868
0.061404
0.089768
0.088134
0.085024
0.08184
0.07896
0.076169
0.073549
0.070994
0.068612
0.066176
0.063985
0.061546
0.089594
0.088001
0.084955
0.081828
0.078987
0.076224
0.073621
0.07108
0.068706
0.066284
0.064099
0.061684
0.089425
0.087865
0.084881
0.081807
0.079004
0.07627
0.073685
0.071159
0.068794
0.066386
0.064209
0.061818
0.08926
0.087729
0.0848
0.081777
0.079011
0.076306
0.07374
0.07123
0.068876
0.066484
0.064315
0.061949
0.0891
0.087591
0.084715
0.08174
0.07901
0.076333
0.073787
0.071295
0.068952
0.066576
0.064416
0.062075
0.088943
0.087452
0.084624
0.081696
0.079
0.076351
0.073826
0.071353
0.069022
0.066664
0.064513
0.062196
0.088788
0.087312
0.08453
0.081645
0.078983
0.076363
0.073859
0.071404
0.069086
0.066746
0.064606
0.062314
0.088635
0.08717
0.084431
0.081588
0.078959
0.076367
0.073884
0.071449
0.069145
0.066824
0.064694
0.062426
0.088483
0.087028
0.084329
0.081526
0.078929
0.076364
0.073903
0.071488
0.069199
0.066896
0.064777
0.062534
0.088333
0.086884
0.084223
0.081459
0.078892
0.076355
0.073916
0.071521
0.069247
0.066964
0.064856
0.062637
0.088182
0.086739
0.084114
0.081387
0.07885
0.07634
0.073923
0.071549
0.069291
0.067027
0.06493