/*--------------------------------*- C++ -*----------------------------------*\
  =========                 |
  \\      /  F ield         | OpenFOAM: The Open Source CFD Toolbox
   \\    /   O peration     | Website:  https://openfoam.org
    \\  /    A nd           | Version:  6.0
     \\/     M anipulation  |
\*---------------------------------------------------------------------------*/
FoamFile
{
    version     2.0;
    format      ascii;
    class       surfaceScalarField;
    location    "8";
    object      phi;
}
// * * * * * * * * * * * * * * * * * * * * * * * * * * * * * * * * * * * * * //

dimensions      [0 3 -1 0 0 0 0];

internalField   nonuniform List<scalar> 
123526
(
8.18363e-05
2.26146e-05
-8.14788e-05
8.22382e-05
2.44428e-05
8.2672e-05
2.64167e-05
8.31441e-05
2.85492e-05
8.36549e-05
3.0853e-05
8.4209e-05
3.33415e-05
8.48095e-05
3.60287e-05
8.5461e-05
3.89303e-05
8.61684e-05
4.20623e-05
8.69363e-05
4.54443e-05
8.77676e-05
4.9096e-05
8.86694e-05
5.30377e-05
8.96445e-05
5.72916e-05
9.07042e-05
6.18796e-05
9.18521e-05
6.68286e-05
9.30967e-05
7.21694e-05
9.44414e-05
7.79285e-05
9.5904e-05
8.41317e-05
9.74876e-05
9.08194e-05
9.92025e-05
9.80275e-05
0.000101062
0.000105785
0.000103079
0.000114136
0.000105258
0.000123127
0.000107625
0.000132786
0.000110184
0.000143175
0.000112954
0.00015433
0.00011595
0.000166299
0.000119189
0.000179137
0.00012269
0.000192882
0.000126469
0.000207592
0.000130548
0.000223303
0.000134947
0.000240066
0.000139684
0.00025791
0.000144782
0.000276869
0.000150262
0.000296961
0.000156153
0.000318186
0.000162473
0.000340535
0.000169245
0.000363961
0.000176494
0.000388391
0.000184237
0.00041371
0.000192492
0.000439746
0.000201273
0.000466264
0.000210588
0.000492945
0.000220433
0.00051937
0.000230798
0.000544996
0.000241653
0.00056913
0.000252953
0.0005909
0.000264632
0.000609213
0.000276588
0.000622714
0.000288698
0.000629729
0.000300785
0.000628219
0.000312637
0.000615696
0.00032396
0.000589222
0.000334416
0.000545258
0.000343568
0.000479859
0.000350888
0.000388869
0.000355996
0.000268806
0.000355549
0.000122331
0.000361827
-8.25061e-05
-0.000406222
0.00039909
8.02202e-05
2.22423e-05
-7.98663e-05
8.06208e-05
2.40367e-05
8.10558e-05
2.59738e-05
8.1532e-05
2.80674e-05
8.20484e-05
3.03301e-05
8.26098e-05
3.27748e-05
8.32181e-05
3.54152e-05
8.3878e-05
3.8266e-05
8.45937e-05
4.13424e-05
8.537e-05
4.46649e-05
8.62093e-05
4.8253e-05
8.71189e-05
5.2126e-05
8.8101e-05
5.63058e-05
8.9167e-05
6.08119e-05
9.03196e-05
6.56721e-05
9.15669e-05
7.09199e-05
9.29121e-05
7.65788e-05
9.4372e-05
8.26691e-05
9.59494e-05
8.92373e-05
9.76538e-05
9.63197e-05
9.9498e-05
0.000103936
0.000101495
0.000112135
0.000103648
0.000120968
0.000105984
0.000130446
0.000108504
0.00014065
0.00011123
0.0001516
0.000114176
0.000163349
0.000117356
0.000175952
0.000120793
0.00018944
0.0001245
0.000203881
0.000128503
0.000219297
0.000132816
0.000235749
0.000137461
0.000253258
0.00014246
0.000271861
0.000147836
0.000291576
0.000153616
0.000312397
0.000159821
0.000334322
0.000166475
0.000357299
0.0001736
0.000381259
0.000181215
0.000406088
0.000189337
0.000431618
0.000197978
0.000457617
0.000207144
0.000483774
0.00021683
0.000509679
0.000227024
0.000534798
0.000237694
0.000558456
0.000248793
0.000579796
0.000260254
0.000597747
0.000271976
0.000610982
0.00028384
0.000617858
0.000295669
0.00061637
0.000307258
0.00060408
0.00031831
0.000578089
0.000328499
0.000534948
0.000337388
0.000470781
0.000344466
0.000381535
0.00034902
0.000263868
0.000350674
0.000120091
0.000345686
-7.82689e-05
-0.000392455
0.000331393
7.907e-05
2.18626e-05
-7.87085e-05
7.94748e-05
2.36264e-05
7.99101e-05
2.55308e-05
8.03828e-05
2.75892e-05
8.0892e-05
2.98144e-05
8.14431e-05
3.22187e-05
8.20375e-05
3.48154e-05
8.26805e-05
3.76188e-05
8.33758e-05
4.06426e-05
8.41286e-05
4.39085e-05
8.49416e-05
4.74358e-05
8.58223e-05
5.12424e-05
8.67738e-05
5.535e-05
8.78072e-05
5.97758e-05
8.89263e-05
6.45483e-05
9.01393e-05
6.9704e-05
9.14498e-05
7.52633e-05
9.28745e-05
8.1241e-05
9.44163e-05
8.76903e-05
9.60848e-05
9.46474e-05
9.78922e-05
0.000102123
9.98511e-05
0.000110172
0.000101966
0.000118848
0.00010426
0.000128148
0.000106737
0.000138167
0.000109417
0.000148916
0.000112314
0.000160446
0.000115441
0.000172819
0.000118822
0.000186054
0.00012247
0.000200229
0.000126408
0.000215354
0.000130652
0.000231499
0.000135225
0.000248678
0.000140146
0.000266929
0.000145439
0.000286271
0.00015113
0.000306694
0.000157241
0.0003282
0.000163793
0.000350736
0.00017081
0.000374232
0.000178308
0.000398581
0.000186302
0.000423616
0.000194805
0.000449109
0.000203817
0.000474757
0.000213335
0.000500158
0.000223343
0.00052479
0.000233808
0.000547991
0.000244683
0.000568921
0.000255902
0.000586532
0.000267365
0.000599519
0.000278955
0.000606271
0.000290501
0.000604818
0.000301803
0.000592767
0.000312568
0.000567273
0.000322479
0.000524973
0.000331106
0.000462059
0.000337973
0.000374568
0.000342325
0.000259381
0.000343374
0.000118907
0.000342673
-7.76618e-05
-0.000391626
0.000341859
7.87492e-05
2.1481e-05
-7.83824e-05
7.91536e-05
2.32181e-05
7.95843e-05
2.50933e-05
8.00491e-05
2.71201e-05
8.05469e-05
2.93109e-05
8.10832e-05
3.16782e-05
8.16589e-05
3.42348e-05
8.22794e-05
3.69947e-05
8.29476e-05
3.99705e-05
8.3669e-05
4.31847e-05
8.44451e-05
4.66563e-05
8.5284e-05
5.0402e-05
8.61878e-05
5.44429e-05
8.71689e-05
5.87935e-05
8.82305e-05
6.34831e-05
8.9382e-05
6.85507e-05
9.06274e-05
7.40138e-05
9.1984e-05
7.98817e-05
9.34558e-05
8.62139e-05
9.50529e-05
9.30468e-05
9.67882e-05
0.000100383
9.86747e-05
0.000108282
0.000100717
0.000116801
0.000102939
0.000125921
0.000105344
0.000135756
0.000107952
0.000146303
0.000110776
0.000157617
0.000113831
0.000169759
0.000117137
0.000182742
0.000120709
0.000196652
0.000124569
0.000211488
0.000128734
0.000227329
0.000133222
0.00024418
0.000138057
0.000262085
0.000143258
0.000281058
0.000148853
0.000301087
0.00015486
0.000322181
0.000161302
0.000344281
0.0001682
0.000367322
0.000175569
0.000391199
0.000183423
0.000415747
0.000191772
0.000440745
0.000200618
0.000465896
0.000209953
0.000490806
0.00021976
0.000514964
0.000230009
0.000537721
0.00024065
0.000558255
0.00025162
0.000575536
0.000262821
0.000588284
0.000274139
0.000594916
0.000285408
0.000593498
0.000296435
0.000581675
0.000306932
0.000556653
0.000316596
0.000515135
0.000325012
0.000453397
0.000331739
0.000367517
0.000336116
0.000254539
0.000337425
0.000116903
0.000336568
-7.765e-05
-0.000389797
0.000334162
7.85787e-05
2.11101e-05
-7.82264e-05
7.89692e-05
2.28214e-05
7.93869e-05
2.46678e-05
7.98381e-05
2.66629e-05
8.03233e-05
2.88193e-05
8.08467e-05
3.11494e-05
8.14104e-05
3.36659e-05
8.20179e-05
3.63826e-05
8.2673e-05
3.93111e-05
8.33788e-05
4.24751e-05
8.41379e-05
4.58931e-05
8.49558e-05
4.95809e-05
8.58357e-05
5.35589e-05
8.67871e-05
5.7839e-05
8.78147e-05
6.2451e-05
8.89259e-05
6.74364e-05
9.01257e-05
7.28093e-05
9.14305e-05
7.85735e-05
9.28452e-05
8.47944e-05
9.43798e-05
9.15085e-05
9.60481e-05
9.87094e-05
9.78634e-05
0.000106463
9.98314e-05
0.000114828
0.000101976
0.000123772
0.000104302
0.000133425
0.000106828
0.000143772
0.000109569
0.00015487
0.000112539
0.000166784
0.000115759
0.000179516
0.000119242
0.000193163
0.000123011
0.000207714
0.000127081
0.000223253
0.000131475
0.000239781
0.000136208
0.000257339
0.000141305
0.000275949
0.00014679
0.00029559
0.000152681
0.000316278
0.000158999
0.000337951
0.000165764
0.000360546
0.000172991
0.000383962
0.000180692
0.000408036
0.000188876
0.000432553
0.000197543
0.000457222
0.000206687
0.000481657
0.000216288
0.000505358
0.000226317
0.00052769
0.000236726
0.000547845
0.000247451
0.000564812
0.000258398
0.000577335
0.000269458
0.00058386
0.000280467
0.000582485
0.000291239
0.000570899
0.000301495
0.000546361
0.00031094
0.000505644
0.000319177
0.00044509
0.000325786
0.000360845
0.000330157
0.000250086
0.000331653
0.000115361
0.000331117
-7.71079e-05
-0.000387119
0.000328526
7.81908e-05
2.07567e-05
-7.78509e-05
7.85665e-05
2.24416e-05
7.89698e-05
2.42584e-05
7.94071e-05
2.62212e-05
7.9879e-05
2.83424e-05
8.03899e-05
3.06343e-05
8.0942e-05
3.31095e-05
8.15397e-05
3.57817e-05
8.2186e-05
3.86614e-05
8.2885e-05
4.1774e-05
8.36378e-05
4.51376e-05
8.44503e-05
4.87673e-05
8.53239e-05
5.26828e-05
8.62684e-05
5.68938e-05
8.72862e-05
6.14305e-05
8.83845e-05
6.63368e-05
8.9567e-05
7.16235e-05
9.08493e-05
7.7289e-05
9.22357e-05
8.3404e-05
9.37358e-05
9.00053e-05
9.53633e-05
9.70775e-05
9.71312e-05
0.000104691
9.90458e-05
0.000112908
0.000101131
0.000121683
0.000103392
0.000131159
0.000105848
0.000141312
0.000108514
0.000152198
0.000111405
0.000163887
0.000114542
0.000176373
0.000117938
0.000189762
0.000121616
0.00020403
0.000125592
0.000219272
0.000129883
0.000235479
0.000134513
0.000252701
0.0001395
0.000270951
0.000144869
0.00029021
0.000150636
0.000310499
0.000156824
0.000331752
0.000163449
0.000353909
0.000170526
0.000376872
0.000178068
0.00040048
0.000186081
0.000424524
0.000194566
0.00044872
0.000203515
0.000472689
0.00021291
0.000495942
0.000222721
0.000517854
0.000232902
0.000537635
0.00024339
0.000554292
0.000254095
0.00056659
0.00026491
0.000573003
0.000275674
0.00057166
0.000286211
0.000560292
0.000296244
0.000536201
0.000305489
0.000496222
0.000313563
0.000436771
0.000320051
0.000354032
0.000324379
0.0002453
0.000326047
0.000113006
0.000325633
-7.75095e-05
-0.000384643
0.000322598
7.75447e-05
2.04157e-05
-7.72188e-05
7.79078e-05
2.20734e-05
7.82995e-05
2.38603e-05
7.87254e-05
2.57904e-05
7.91862e-05
2.78762e-05
7.96864e-05
3.01296e-05
8.02286e-05
3.25631e-05
8.08165e-05
3.51898e-05
8.14545e-05
3.80199e-05
8.21455e-05
4.10795e-05
8.28924e-05
4.43872e-05
8.36996e-05
4.79569e-05
8.45702e-05
5.18085e-05
8.55118e-05
5.59493e-05
8.65279e-05
6.04103e-05
8.76239e-05
6.52378e-05
8.88035e-05
7.04397e-05
9.00803e-05
7.60089e-05
9.14584e-05
8.20218e-05
9.29457e-05
8.85146e-05
9.45553e-05
9.54635e-05
9.62993e-05
0.000102944
9.81836e-05
0.000111019
0.000100232
0.000119631
0.000102448
0.000128938
0.000104853
0.000138902
0.000107462
0.000149584
0.000110289
0.000161056
0.000113355
0.000173302
0.000116674
0.000186437
0.00012027
0.00020043
0.000124155
0.00021538
0.000128354
0.000231276
0.000132881
0.000248162
0.00013776
0.000266062
0.000143013
0.000284946
0.000148658
0.000304843
0.000154714
0.000325686
0.000161198
0.000347414
0.000168125
0.000369935
0.000175506
0.00039309
0.000183348
0.000416675
0.000191651
0.000440412
0.000200407
0.000463929
0.000209598
0.000486748
0.000219196
0.000508256
0.000229156
0.000527677
0.000239417
0.000544037
0.00024989
0.000556122
0.000260471
0.000562432
0.000271005
0.000561132
0.00028132
0.000549991
0.000291145
0.000526362
0.000300203
0.000487146
0.000308121
0.000428821
0.000314492
0.000347643
0.000318774
0.000241002
0.000320565
0.000111267
0.000320181
-7.7006e-05
-0.00038104
0.000316739
7.67089e-05
2.00843e-05
-7.63872e-05
7.70647e-05
2.17149e-05
7.74484e-05
2.34721e-05
7.78656e-05
2.537e-05
7.83171e-05
2.74209e-05
7.88072e-05
2.96363e-05
7.93386e-05
3.20283e-05
7.99158e-05
3.461e-05
8.05427e-05
3.73903e-05
8.12238e-05
4.03969e-05
8.1961e-05
4.3648e-05
8.27603e-05
4.71571e-05
8.36235e-05
5.09435e-05
8.45598e-05
5.50128e-05
8.55714e-05
5.93966e-05
8.66643e-05
6.41441e-05
8.78411e-05
6.92602e-05
8.91152e-05
7.47329e-05
9.04897e-05
8.06439e-05
9.19718e-05
8.70296e-05
9.35736e-05
9.38579e-05
9.53059e-05
0.000101208
9.71742e-05
0.000109147
9.92003e-05
0.000117601
0.000101389
0.000126744
0.00010376
0.000136528
0.000106327
0.000147012
0.000109105
0.000158273
0.000112115
0.000170287
0.00011537
0.000183177
0.000118894
0.000196902
0.000122702
0.000211568
0.000126812
0.000227156
0.000131247
0.000243721
0.000136023
0.000261275
0.000141166
0.000279794
0.000146692
0.000299308
0.00015262
0.000319748
0.000158967
0.000341057
0.000165747
0.000363144
0.000172971
0.000385854
0.000180645
0.000408987
0.000188769
0.000432271
0.000197337
0.000455343
0.000206331
0.000477732
0.000215722
0.000498839
0.000225468
0.000517901
0.00023551
0.000533962
0.000245761
0.000545829
0.000256121
0.000552028
0.000266436
0.000550756
0.00027654
0.000539817
0.00028617
0.000516613
0.000295051
0.000478095
0.000302821
0.000420815
0.00030908
0.000341071
0.000313322
0.00023632
0.00031518
0.00010875
0.000314769
-7.73655e-05
-0.000377773
0.000310975
7.57415e-05
1.97575e-05
-7.54304e-05
7.60895e-05
2.13609e-05
7.64663e-05
2.30889e-05
7.68755e-05
2.49552e-05
7.73194e-05
2.69717e-05
7.78009e-05
2.91498e-05
7.8324e-05
3.15012e-05
7.8891e-05
3.40385e-05
7.95082e-05
3.67699e-05
8.01774e-05
3.97239e-05
8.09035e-05
4.29188e-05
8.16902e-05
4.6367e-05
8.25425e-05
5.0088e-05
8.3467e-05
5.40852e-05
8.4469e-05
5.83912e-05
8.55524e-05
6.30576e-05
8.67218e-05
6.80871e-05
8.7989e-05
7.34627e-05
8.93575e-05
7.92717e-05
9.08334e-05
8.55506e-05
9.24284e-05
9.22592e-05
9.41521e-05
9.94811e-05
9.60093e-05
0.000107286
9.80206e-05
0.000115587
0.00010019
0.00012457
0.000102536
0.000134178
0.000105073
0.000144472
0.000107813
0.000155528
0.000110778
0.000167317
0.000113981
0.00017997
0.000117445
0.000193434
0.000121183
0.000207824
0.000125219
0.000223117
0.000129566
0.000239363
0.00013425
0.000256583
0.00013929
0.000274744
0.000144704
0.000293884
0.00015051
0.000313932
0.000156726
0.000334832
0.000163364
0.000356497
0.000170436
0.000378775
0.000177948
0.000401469
0.0001859
0.000424315
0.000194286
0.000446955
0.000203089
0.000468929
0.000212283
0.000489648
0.000221824
0.000508365
0.000231657
0.000524139
0.000241696
0.000535799
0.000251843
0.000541899
0.00026195
0.000540664
0.000271854
0.000529941
0.000281297
0.000507181
0.00029001
0.000469391
0.00029764
0.000413191
0.000303795
0.000334943
0.000307995
0.000232174
0.000309878
0.000107019
0.000309413
-7.66701e-05
-0.000373459
0.000305334
7.46967e-05
1.94368e-05
-7.43857e-05
7.50406e-05
2.10137e-05
7.5412e-05
2.27132e-05
7.58148e-05
2.45486e-05
7.62514e-05
2.65316e-05
7.67243e-05
2.86733e-05
7.72375e-05
3.0985e-05
7.77942e-05
3.3479e-05
7.83996e-05
3.61625e-05
7.90569e-05
3.9065e-05
7.97697e-05
4.22047e-05
8.05432e-05
4.55932e-05
8.13807e-05
4.92494e-05
8.2291e-05
5.31748e-05
8.32779e-05
5.7403e-05
8.43469e-05
6.1988e-05
8.55021e-05
6.693e-05
8.67556e-05
7.22074e-05
8.81113e-05
7.79134e-05
8.95748e-05
8.40845e-05
9.11578e-05
9.06729e-05
9.2869e-05
9.77666e-05
9.47132e-05
0.000105438
9.67094e-05
0.000113587
9.88616e-05
0.000122414
0.000101186
0.00013185
0.000103697
0.000141957
0.000106406
0.000152815
0.000109333
0.000164386
0.000112491
0.000176807
0.000115903
0.000190019
0.000119582
0.000204142
0.000123547
0.000219144
0.00012782
0.000235084
0.000132417
0.000251977
0.000137362
0.000269791
0.000142672
0.000288567
0.000148364
0.000308232
0.000154455
0.000328732
0.000160959
0.000349984
0.000167886
0.000371836
0.000175243
0.000394099
0.000183031
0.000416512
0.000191243
0.000438725
0.000199865
0.000460287
0.000208868
0.00048062
0.000218214
0.00049899
0.000227847
0.000514474
0.000237684
0.000525921
0.000247629
0.000531909
0.000257537
0.000530696
0.000267251
0.000520164
0.000276516
0.000497807
0.000285067
0.000460685
0.000292564
0.00040548
0.000298619
0.0003286
0.000302772
0.000227618
0.000304653
0.000104534
0.000304123
-7.68402e-05
-0.000369633
0.000299815
7.35992e-05
1.912e-05
-7.32946e-05
7.39372e-05
2.06709e-05
7.43029e-05
2.23424e-05
7.46994e-05
2.41476e-05
7.51291e-05
2.60979e-05
7.55945e-05
2.82039e-05
7.60996e-05
3.04767e-05
7.66466e-05
3.29283e-05
7.72416e-05
3.55649e-05
7.78864e-05
3.84169e-05
7.8586e-05
4.15024e-05
7.9344e-05
4.48321e-05
8.01661e-05
4.84245e-05
8.10588e-05
5.22792e-05
8.20283e-05
5.64304e-05
8.30787e-05
6.09346e-05
8.42159e-05
6.57896e-05
8.54509e-05
7.09694e-05
8.67886e-05
7.65724e-05
8.82344e-05
8.26357e-05
8.98e-05
8.9104e-05
9.14937e-05
9.60698e-05
9.33201e-05
0.000103608
9.52975e-05
0.000111606
9.74295e-05
0.000120279
9.97313e-05
0.000129545
0.000102216
0.000139468
0.000104895
0.000150132
0.000107788
0.000161489
0.000110905
0.000173686
0.00011427
0.000186651
0.000117893
0.000200513
0.000121799
0.000215236
0.000126
0.000230874
0.000130519
0.000247451
0.000135376
0.000264927
0.000140587
0.000283348
0.000146172
0.000302639
0.000152146
0.000322751
0.000158523
0.0003436
0.000165314
0.00036504
0.000172524
0.000386885
0.000180155
0.000408878
0.000188202
0.000430678
0.00019665
0.000451841
0.000205473
0.000471801
0.000214633
0.000489838
0.000224075
0.000505045
0.000233719
0.000516291
0.000243471
0.00052218
0.000253189
0.000521
0.000262721
0.000510675
0.000271815
0.000488742
0.000280213
0.000452319
0.00028758
0.000398149
0.000293539
0.000322706
0.000297641
0.000223622
0.000299504
0.000102904
0.000298907
-7.59268e-05
-0.000364854
0.000294421
7.24751e-05
1.88095e-05
-7.21706e-05
7.28087e-05
2.0335e-05
7.31689e-05
2.19793e-05
7.35588e-05
2.3755e-05
7.3981e-05
2.56731e-05
7.44378e-05
2.77443e-05
7.49331e-05
2.99791e-05
7.54699e-05
3.23893e-05
7.60532e-05
3.49799e-05
7.66862e-05
3.77828e-05
7.73723e-05
4.08154e-05
7.81166e-05
4.40877e-05
7.89226e-05
4.76177e-05
7.97989e-05
5.14031e-05
8.07498e-05
5.54785e-05
8.17808e-05
5.99031e-05
8.2897e-05
6.46719e-05
8.41103e-05
6.97545e-05
8.54255e-05
7.52549e-05
8.68484e-05
8.12104e-05
8.8391e-05
8.75586e-05
9.00614e-05
9.43964e-05
9.18645e-05
0.000101802
9.38179e-05
0.00010965
9.59252e-05
0.000118168
9.82006e-05
0.000127266
0.000100657
0.000137009
0.000103305
0.000147481
0.000106162
0.000158628
0.00010924
0.000170604
0.000112558
0.000183329
0.000116132
0.000196937
0.000119977
0.000211384
0.000124114
0.000226733
0.000128558
0.000242999
0.000133333
0.000260145
0.000138453
0.000278221
0.000143937
0.000297148
0.000149801
0.000316879
0.000156058
0.000337335
0.000162719
0.000358369
0.00016979
0.000379802
0.000177273
0.000401381
0.000185163
0.000422771
0.000193445
0.000443538
0.000202097
0.000463126
0.000211078
0.000480828
0.000220339
0.000495753
0.000229799
0.00050679
0.000239367
0.000512569
0.000248903
0.000511406
0.000258259
0.00050126
0.00026719
0.000479712
0.000275439
0.000443925
0.000282682
0.000390706
0.000288546
0.000316571
0.000292594
0.000219197
0.000294428
0.000100502
0.000293768
-7.59161e-05
-0.000360676
0.000289142
7.133e-05
1.85023e-05
-7.10366e-05
7.1656e-05
2.00029e-05
7.20096e-05
2.16203e-05
7.23919e-05
2.33669e-05
7.28072e-05
2.52535e-05
7.32558e-05
2.72904e-05
7.37437e-05
2.94881e-05
7.42709e-05
3.18576e-05
7.4845e-05
3.44033e-05
7.54659e-05
3.71579e-05
7.61403e-05
4.01388e-05
7.68696e-05
4.33548e-05
7.76612e-05
4.68238e-05
7.85196e-05
5.05414e-05
7.94528e-05
5.45428e-05
8.04633e-05
5.88894e-05
8.15587e-05
6.35739e-05
8.2749e-05
6.85612e-05
8.40405e-05
7.39606e-05
8.54383e-05
7.98097e-05
8.6955e-05
8.60391e-05
8.85985e-05
9.275e-05
9.0374e-05
0.000100023
9.2299e-05
0.000107722
9.43769e-05
0.000116087
9.66218e-05
0.000125018
9.90457e-05
0.000134581
0.000101659
0.000144864
0.000104479
0.000155805
0.000107515
0.000167564
0.000110789
0.000180053
0.00011431
0.000193411
0.000118101
0.000207592
0.000122173
0.000222654
0.000126547
0.000238619
0.000131243
0.000255443
0.000136277
0.000273181
0.000141665
0.000291753
0.000147424
0.000311114
0.000153567
0.000331187
0.000160105
0.000351828
0.000167044
0.00037286
0.000174386
0.000394038
0.000182126
0.000415032
0.000190252
0.000435417
0.000198739
0.000454646
0.000207552
0.000472026
0.000216638
0.000486682
0.000225922
0.000497525
0.000235314
0.000503206
0.000244675
0.000502074
0.000253864
0.000492124
0.000262636
0.000470984
0.000270743
0.00043587
0.000277863
0.000383645
0.000283635
0.000310895
0.000287625
0.00021536
0.000289428
9.90012e-05
0.00028871
-7.48059e-05
-0.000355607
0.000283979
7.01826e-05
1.82016e-05
-6.98892e-05
7.05041e-05
1.96779e-05
7.08522e-05
2.1269e-05
7.12281e-05
2.29872e-05
7.16361e-05
2.48431e-05
7.20764e-05
2.68464e-05
7.25548e-05
2.90076e-05
7.30721e-05
3.13373e-05
7.36351e-05
3.38392e-05
7.42448e-05
3.65466e-05
7.49062e-05
3.9477e-05
7.56225e-05
4.26381e-05
7.63987e-05
4.60476e-05
7.72413e-05
4.96989e-05
7.8156e-05
5.36279e-05
7.91469e-05
5.78981e-05
8.02203e-05
6.24995e-05
8.1387e-05
6.7393e-05
8.2653e-05
7.26928e-05
8.40236e-05
7.84367e-05
8.55118e-05
8.45485e-05
8.71254e-05
9.11337e-05
8.88702e-05
9.82759e-05
9.07629e-05
0.000105826
9.28077e-05
0.000114039
9.5018e-05
0.000122805
9.7406e-05
0.000132191
9.99811e-05
0.000142286
0.00010276
0.000153023
0.000105754
0.000164568
0.00010898
0.000176824
0.000112451
0.000189938
0.000116182
0.000203854
0.000120194
0.00021864
0.000124499
0.000234308
0.000129119
0.000250818
0.000134069
0.000268226
0.000139366
0.000286451
0.000145025
0.000305449
0.00015106
0.000325145
0.00015748
0.000345398
0.000164293
0.000366036
0.0001715
0.000386818
0.000179098
0.000407418
0.000187074
0.000427422
0.000195405
0.000446292
0.000204055
0.000463349
0.000212975
0.000477732
0.00022209
0.000488371
0.000231312
0.000493942
0.000240506
0.000492825
0.000249532
0.000483047
0.000258152
0.000462274
0.00026612
0.000427772
0.000273122
0.000376461
0.000278801
0.00030497
0.000282732
0.000211086
0.000284501
9.67128e-05
0.000283731
-7.46242e-05
-0.000351204
0.000278919
6.90326e-05
1.79051e-05
-6.87464e-05
6.9348e-05
1.93575e-05
6.96902e-05
2.09228e-05
7.00596e-05
2.26131e-05
7.04608e-05
2.44386e-05
7.08939e-05
2.64091e-05
7.13646e-05
2.85345e-05
7.18729e-05
3.08252e-05
7.24263e-05
3.3284e-05
7.30244e-05
3.59451e-05
7.36737e-05
3.88257e-05
7.43756e-05
4.1933e-05
7.51373e-05
4.52841e-05
7.59626e-05
4.88704e-05
7.68597e-05
5.27286e-05
7.78307e-05
5.69241e-05
7.88832e-05
6.14447e-05
8.00267e-05
6.62466e-05
8.12681e-05
7.14491e-05
8.26118e-05
7.70901e-05
8.40714e-05
8.30865e-05
8.56544e-05
8.9548e-05
8.73668e-05
9.65609e-05
8.92254e-05
0.000103965
9.12345e-05
0.000112027
9.34075e-05
0.000120629
9.57563e-05
0.000129839
9.82905e-05
0.000139749
0.000101026
0.000150284
0.000103974
0.000161618
0.000107151
0.000173645
0.000110567
0.000186517
0.000114244
0.000200177
0.000118192
0.000214686
0.000122429
0.000230066
0.000126975
0.000246267
0.000131844
0.000263352
0.000137052
0.000281237
0.000142614
0.000299881
0.000148544
0.000319212
0.000154851
0.000339088
0.000161543
0.000359343
0.000168622
0.00037974
0.000176083
0.00039996
0.000183915
0.000419596
0.000192096
0.000438121
0.00020059
0.000454867
0.00020935
0.000468991
0.000218303
0.000479441
0.000227362
0.000484917
0.000236394
0.000483828
0.000245263
0.000474239
0.000253736
0.000453859
0.000261568
0.000420004
0.000268455
0.000369655
0.000274043
0.000299502
0.000277914
0.000207405
0.00027965
9.53335e-05
0.000278835
-7.33583e-05
-0.000345959
0.000273966
6.7892e-05
1.76152e-05
-6.76058e-05
6.8203e-05
1.90444e-05
6.85396e-05
2.05845e-05
6.89026e-05
2.22474e-05
6.92965e-05
2.40433e-05
6.97212e-05
2.59816e-05
7.01825e-05
2.80719e-05
7.06811e-05
3.03244e-05
7.12235e-05
3.27409e-05
7.18108e-05
3.53567e-05
7.24478e-05
3.81889e-05
7.31373e-05
4.12435e-05
7.38843e-05
4.45375e-05
7.46948e-05
4.80603e-05
7.55746e-05
5.1849e-05
7.65271e-05
5.59714e-05
7.75587e-05
6.04125e-05
7.86795e-05
6.51244e-05
7.98959e-05
7.02313e-05
8.12126e-05
7.57711e-05
8.26431e-05
8.1654e-05
8.41947e-05
8.79937e-05
8.5874e-05
9.48793e-05
8.76973e-05
0.000102139
8.96692e-05
0.000110053
9.1803e-05
0.000118493
9.41107e-05
0.000127529
9.66015e-05
0.000137256
9.92919e-05
0.000147591
0.000102191
0.000158716
0.000105316
0.000170517
0.00010868
0.000183153
0.000112296
0.000196556
0.000116182
0.000210798
0.000120351
0.000225893
0.000124823
0.000241791
0.000129612
0.000258559
0.000134733
0.000276112
0.000140202
0.000294407
0.00014603
0.000313377
0.000152229
0.000332882
0.000158804
0.000352758
0.000165758
0.000372774
0.000173088
0.000392616
0.000180781
0.000411885
0.000188817
0.000430064
0.000197161
0.000446497
0.000205768
0.000460356
0.000214564
0.000470608
0.000223464
0.000475978
0.00023234
0.000474901
0.000241058
0.000465474
0.000249387
0.000445448
0.000257087
0.00041218
0.000263861
0.00036271
0.000269359
0.000293771
0.00027317
0.000203269
0.000274871
9.31415e-05
0.000274019
-7.30564e-05
-0.000341426
0.00026911
6.67556e-05
1.73287e-05
-6.64807e-05
6.70589e-05
1.87348e-05
6.7389e-05
2.025e-05
6.77446e-05
2.1886e-05
6.81318e-05
2.36528e-05
6.85489e-05
2.55594e-05
6.90033e-05
2.76153e-05
6.94929e-05
2.98302e-05
7.00271e-05
3.22053e-05
7.06032e-05
3.47767e-05
7.12295e-05
3.75611e-05
7.19054e-05
4.05641e-05
7.26395e-05
4.38021e-05
7.34339e-05
4.72627e-05
7.42977e-05
5.09836e-05
7.52315e-05
5.50346e-05
7.6244e-05
5.93984e-05
7.73429e-05
6.40226e-05
7.85361e-05
6.90363e-05
7.98271e-05
7.44774e-05
8.12297e-05
8.02494e-05
8.27508e-05
8.647e-05
8.43973e-05
9.32307e-05
8.61852e-05
0.000100349
8.81196e-05
0.000108116
9.02133e-05
0.000116397
9.24786e-05
0.000125261
9.49248e-05
0.000134807
9.75679e-05
0.000144945
0.000100417
0.000155865
0.00010349
0.000167442
0.000106796
0.000179844
0.000110355
0.000192998
0.000114176
0.000206972
0.000118277
0.000221788
0.000122675
0.000237389
0.000127385
0.000253846
0.00013242
0.000271072
0.000137797
0.000289027
0.000143526
0.000307645
0.000149619
0.000326788
0.000156081
0.000346296
0.000162915
0.000365942
0.000170117
0.000385419
0.000177676
0.000404333
0.000185573
0.000422179
0.000193772
0.000438313
0.000202229
0.000451921
0.000210873
0.000461991
0.000219621
0.000467268
0.000228344
0.000466218
0.000236914
0.000456973
0.000245103
0.000437326
0.000252676
0.000404684
0.000259339
0.000356143
0.000264748
0.000288502
0.000268499
0.000199739
0.00027017
9.18741e-05
0.000269286
-7.16743e-05
-0.000336087
0.000264356
6.56356e-05
1.70487e-05
-6.53603e-05
6.59348e-05
1.84324e-05
6.62596e-05
1.99233e-05
6.66091e-05
2.1533e-05
6.69894e-05
2.32712e-05
6.73985e-05
2.51468e-05
6.78438e-05
2.71689e-05
6.83243e-05
2.93471e-05
6.88478e-05
3.16816e-05
6.94137e-05
3.42095e-05
7.00281e-05
3.69474e-05
7.06923e-05
3.98999e-05
7.14123e-05
4.30831e-05
7.21927e-05
4.64828e-05
7.30399e-05
5.01372e-05
7.39563e-05
5.41181e-05
7.49489e-05
5.84058e-05
7.60264e-05
6.29438e-05
7.71959e-05
6.78658e-05
7.84612e-05
7.321e-05
7.98359e-05
7.88731e-05
8.13267e-05
8.49766e-05
8.29408e-05
9.16147e-05
8.46935e-05
9.85934e-05
8.65903e-05
0.000106218
8.86439e-05
0.000114341
9.08666e-05
0.000123036
9.32674e-05
0.000132404
9.58625e-05
0.000142348
9.86608e-05
0.000153065
0.00010168
0.000164422
0.00010493
0.000176593
0.000108426
0.000189498
0.000112184
0.000203214
0.000116216
0.000217753
0.000120541
0.000233061
0.000125172
0.000249213
0.000130123
0.000266117
0.000135409
0.000283737
0.000141041
0.000302007
0.00014703
0.000320793
0.000153382
0.000339936
0.000160098
0.000359215
0.000167177
0.000378327
0.000174606
0.000396887
0.000182367
0.000414399
0.000190425
0.000430231
0.000198738
0.000443583
0.000207234
0.000453461
0.000215833
0.000458635
0.000224408
0.000457595
0.000232834
0.000448507
0.000240887
0.0004292
0.000248334
0.000397125
0.000254887
0.000349433
0.000260209
0.000282967
0.0002639
0.000195752
0.00026554
8.9783e-05
0.000264632
-7.12634e-05
-0.000331488
0.000259696
6.45263e-05
1.67727e-05
-6.42582e-05
6.48195e-05
1.81343e-05
6.51387e-05
1.96013e-05
6.54821e-05
2.11851e-05
6.58561e-05
2.28952e-05
6.62584e-05
2.47404e-05
6.66966e-05
2.67294e-05
6.71686e-05
2.88714e-05
6.76833e-05
3.11661e-05
6.82384e-05
3.36511e-05
6.88417e-05
3.63431e-05
6.94925e-05
3.92459e-05
7.01994e-05
4.23752e-05
7.0964e-05
4.57152e-05
7.17956e-05
4.93044e-05
7.2694e-05
5.32167e-05
7.36681e-05
5.74302e-05
7.4725e-05
6.18842e-05
7.58724e-05
6.67169e-05
7.71134e-05
7.19664e-05
7.84616e-05
7.75232e-05
7.99234e-05
8.35123e-05
8.1506e-05
9.00304e-05
8.32245e-05
9.68726e-05
8.50844e-05
0.000104356
8.70983e-05
0.000112325
8.92785e-05
0.000120854
9.16341e-05
0.000130047
9.41808e-05
0.000139799
9.69281e-05
0.000150316
9.98926e-05
0.000161456
0.000103084
0.000173398
0.000106521
0.000186062
0.000110213
0.000199518
0.000114177
0.000213787
0.000118428
0.000228807
0.00012298
0.000244657
0.000127847
0.000261246
0.000133044
0.000278538
0.000138581
0.000296469
0.000144468
0.000314905
0.000150711
0.000333694
0.000157314
0.000352617
0.000164271
0.000371376
0.000171574
0.000389595
0.000179202
0.000406786
0.000187123
0.000422328
0.000195295
0.000435438
0.000203647
0.000445139
0.000212101
0.000450223
0.000220532
0.000449209
0.000228817
0.000440297
0.000236736
0.000421355
0.00024406
0.000389887
0.000250507
0.000343095
0.000255742
0.000277889
0.000259374
0.000192365
0.000260989
8.86128e-05
0.000260058
-6.97912e-05
-0.000326118
0.00025513
6.34365e-05
1.65032e-05
-6.3168e-05
6.37256e-05
1.78432e-05
6.40395e-05
1.92869e-05
6.43768e-05
2.08453e-05
6.47438e-05
2.2528e-05
6.51382e-05
2.43433e-05
6.55673e-05
2.62998e-05
6.60302e-05
2.84065e-05
6.65346e-05
3.0662e-05
6.70797e-05
3.31052e-05
6.76715e-05
3.57523e-05
6.83112e-05
3.86064e-05
6.90045e-05
4.1683e-05
6.97558e-05
4.49644e-05
7.05716e-05
4.84897e-05
7.14536e-05
5.23346e-05
7.2409e-05
5.6475e-05
7.34457e-05
6.08462e-05
7.45709e-05
6.5591e-05
7.57877e-05
7.07476e-05
7.71097e-05
7.61998e-05
7.85429e-05
8.20767e-05
8.00947e-05
8.8477e-05
8.17796e-05
9.51853e-05
8.36034e-05
0.00010253
8.55783e-05
0.000110348
8.77166e-05
0.000118714
9.00272e-05
0.000127734
9.25261e-05
0.000137299
9.52221e-05
0.000147618
9.81322e-05
0.000158545
0.000101268
0.000170263
0.000104641
0.000182685
0.000108269
0.00019589
0.000112164
0.00020989
0.000116342
0.000224627
0.000120815
0.000240181
0.0001256
0.00025646
0.000130708
0.000273427
0.000136151
0.000291022
0.000141938
0.000309113
0.000148075
0.00032755
0.000154565
0.000346118
0.000161404
0.000364526
0.000168583
0.000382403
0.000176082
0.000399271
0.000183869
0.000414521
0.000191903
0.000427383
0.000200115
0.000436899
0.000208427
0.000441882
0.000216715
0.000440878
0.000224863
0.000432115
0.000232651
0.0004135
0.000239855
0.000382577
0.000246196
0.000336604
0.000251347
0.000272536
0.000254919
0.000188511
0.000256507
8.65973e-05
0.000255561
-6.93032e-05
-0.00032151
0.000250649
6.23576e-05
1.62366e-05
-6.21006e-05
6.26392e-05
1.75553e-05
6.29469e-05
1.89759e-05
6.32771e-05
2.05094e-05
6.36377e-05
2.2165e-05
6.4025e-05
2.39509e-05
6.44478e-05
2.58756e-05
6.49023e-05
2.79474e-05
6.5399e-05
3.01646e-05
6.59337e-05
3.25666e-05
6.65157e-05
3.51696e-05
6.71427e-05
3.79759e-05
6.78245e-05
4.10008e-05
6.8561e-05
4.42247e-05
6.93625e-05
4.76874e-05
7.02276e-05
5.14665e-05
7.1166e-05
5.55356e-05
7.21833e-05
5.98262e-05
7.32879e-05
6.44852e-05
7.44818e-05
6.95511e-05
7.5779e-05