/*--------------------------------*- C++ -*----------------------------------*\
  =========                 |
  \\      /  F ield         | OpenFOAM: The Open Source CFD Toolbox
   \\    /   O peration     | Website:  https://openfoam.org
    \\  /    A nd           | Version:  6.0
     \\/     M anipulation  |
\*---------------------------------------------------------------------------*/
FoamFile
{
    version     2.0;
    format      ascii;
    class       volVectorField;
    location    "0.77";
    object      U;
}
// * * * * * * * * * * * * * * * * * * * * * * * * * * * * * * * * * * * * * //

dimensions      [0 1 -1 0 0 0 0];

internalField   nonuniform List<vector> 
13500
(
(1 2.2983e-06 -4.3828e-18)
(1 -4.7675e-06 2.9699e-18)
(1 -4.6345e-06 -1.2729e-17)
(1 -1.0253e-05 -8.8592e-18)
(1 -6.798e-06 1.6571e-17)
(1 -7.9999e-06 3.1167e-17)
(1 2.0689e-06 2.6499e-17)
(0.99998 1.395e-05 -4.3331e-18)
(0.99991 4.2908e-05 1.5705e-17)
(0.99974 9.4787e-05 3.4358e-18)
(0.99647 0.00060557 2.8844e-17)
(1.0181 0.010909 8.1464e-18)
(1 7.0561e-06 2.7153e-18)
(1 -1.416e-05 -9.0195e-18)
(1 -1.2923e-05 6.0787e-18)
(1 -3.0558e-05 -3.4966e-19)
(1 -1.8056e-05 -4.4193e-19)
(1 -2.4649e-05 -3.7476e-17)
(0.99999 1.0634e-05 -4.5768e-17)
(0.99994 3.9255e-05 -2.4794e-17)
(0.99972 0.00013856 -1.5674e-17)
(0.99952 0.0002629 -1.6984e-18)
(0.98901 0.0016559 -1.3659e-17)
(1.0501 0.030847 -4.9324e-18)
(1 1.1861e-05 -3.5071e-18)
(1 -2.3784e-05 1.792e-17)
(1 -2.1064e-05 3.1617e-18)
(1 -5.1624e-05 1.0215e-17)
(1 -2.8699e-05 -3.821e-18)
(1 -4.2878e-05 3.002e-17)
(0.99998 2.1032e-05 -6.4413e-18)
(0.99992 6.1826e-05 5.632e-18)
(0.99953 0.00024148 -1.9014e-17)
(0.9996 0.00045908 2.5804e-17)
(0.98149 0.0022806 -7.1444e-18)
(1.0757 0.045537 1.7369e-18)
(1 1.6699e-05 9.1683e-18)
(1 -3.3647e-05 -1.7374e-17)
(1 -2.9248e-05 -1.4988e-17)
(1 -7.3341e-05 -7.1681e-19)
(1 -3.923e-05 5.8982e-18)
(1.0001 -6.2231e-05 -8.3279e-19)
(0.99998 3.2258e-05 6.3473e-17)
(0.9999 8.2176e-05 1.0148e-17)
(0.99933 0.00034889 2.2484e-17)
(0.99994 0.00068871 -9.3472e-18)
(0.9743 0.0025059 3.48e-17)
(1.0938 0.056279 -7.9055e-18)
(1 2.1581e-05 -6.4421e-18)
(1 -4.3645e-05 1.5016e-17)
(1 -3.7405e-05 1.2758e-17)
(1 -9.5375e-05 1.3074e-17)
(1 -4.9622e-05 2.8919e-18)
(1.0001 -8.2252e-05 2.2067e-17)
(0.99997 4.4162e-05 -2.8344e-17)
(0.99989 0.00010038 2.0614e-18)
(0.99911 0.00045857 -1.3786e-17)
(1.0005 0.00095237 -2.2304e-18)
(0.96778 0.0023899 -9.0184e-18)
(1.1043 0.064227 2.19e-18)
(1 2.6502e-05 6.5194e-18)
(1 -5.3773e-05 -6.2249e-18)
(1 -4.5539e-05 3.8961e-18)
(1.0001 -0.00011774 -2.5899e-17)
(1 -5.9869e-05 -8.4877e-20)
(1.0001 -0.00010302 -4.3684e-17)
(0.99997 5.681e-05 1.0873e-18)
(0.99989 0.00011606 -1.6546e-17)
(0.99887 0.00056898 5.2496e-18)
(1.0012 0.0012525 -2.2468e-17)
(0.9622 0.0019907 -2.1737e-17)
(1.1084 0.070004 2.1207e-18)
(0.99999 3.1458e-05 -1.0792e-18)
(1 -6.4036e-05 -7.445e-18)
(1 -5.365e-05 -3.1666e-18)
(1.0001 -0.00014046 1.9548e-17)
(1.0001 -6.9939e-05 -2.6785e-17)
(1.0001 -0.00012466 1.6715e-17)
(0.99997 7.0338e-05 1.8956e-17)
(0.9999 0.00012888 5.8213e-18)
(0.99862 0.00067875 1.1735e-17)
(1.002 0.0015901 1.2095e-17)
(0.95774 0.0013657 9.3728e-18)
(1.107 0.074044 3.4123e-18)
(0.99999 3.6442e-05 -2.2274e-18)
(1 -7.4436e-05 -1.4646e-18)
(1 -6.1742e-05 -2.7277e-17)
(1.0001 -0.00016358 -9.3346e-18)
(1.0001 -7.982e-05 7.4972e-18)
(1.0001 -0.00014726 2.7395e-17)
(0.99996 8.4817e-05 1.2064e-17)
(0.99992 0.00013855 5.1973e-18)
(0.99834 0.00078645 -7.6709e-18)
(1.0029 0.0019631 1.6942e-17)
(0.95446 0.00057288 7.578e-18)
(1.1015 0.07671 -1.0861e-17)
(0.99999 4.1448e-05 -6.9146e-18)
(1 -8.4972e-05 6.2966e-18)
(1 -6.9824e-05 4.5863e-17)
(1.0001 -0.00018709 -1.1197e-17)
(1.0001 -8.9518e-05 2.8073e-17)
(1.0001 -0.0001709 -5.4086e-17)
(0.99995 0.00010028 -4.019e-17)
(0.99996 0.00014481 1.0099e-17)
(0.99805 0.00089064 -5.7616e-18)
(1.0038 0.0023673 -9.3438e-18)
(0.95235 -0.00033139 -1.3992e-17)
(1.0929 0.078304 1.4217e-17)
(0.99999 4.647e-05 4.5555e-18)
(1 -9.5644e-05 2.3701e-18)
(1 -7.7908e-05 -3.8848e-17)
(1.0001 -0.00021103 1.5935e-17)
(1.0001 -9.9041e-05 -1.2242e-17)
(1.0002 -0.00019566 2.3068e-17)
(0.99995 0.00011672 1.4282e-17)
(1 0.00014739 2.5534e-18)
(0.99774 0.00098996 5.435e-19)
(1.0047 0.0027964 1.4814e-18)
(0.95135 -0.0012944 4.4587e-18)
(1.0825 0.079071 -7.4016e-19)
(0.99999 5.15e-05 -2.5011e-18)
(1 -0.00010645 -7.773e-18)
(1 -8.6006e-05 9.5228e-18)
(1.0001 -0.0002354 -2.8117e-18)
(1.0001 -0.0001084 1.8895e-18)
(1.0002 -0.00022163 -2.5282e-17)
(0.99994 0.00013413 -3.2892e-17)
(1.0001 0.00014607 -3.2427e-17)
(0.99743 0.0010831 1.6105e-17)
(1.0056 0.0032435 1.9249e-18)
(0.95132 -0.0022692 -1.1308e-17)
(1.0711 0.079203 -6.1361e-18)
(0.99998 5.653e-05 3.4522e-18)
(1 -0.00011739 2.936e-18)
(1 -9.413e-05 4.5893e-18)
(1.0001 -0.00026023 -2.2409e-18)
(1.0001 -0.00011761 -5.6643e-18)
(1.0002 -0.00024889 9.5621e-18)
(0.99993 0.00015244 1.904e-17)
(1.0002 0.00014063 2.0033e-17)
(0.99711 0.0011688 1.0349e-17)
(1.0064 0.0037011 -2.4294e-17)
(0.9521 -0.0032161 1.1614e-19)
(1.0594 0.078857 -7.117e-18)
(0.99998 6.1551e-05 -3.4516e-18)
(1 -0.00012846 5.7737e-18)
(1 -0.0001023 8.3201e-18)
(1.0001 -0.00028552 5.8509e-18)
(1.0001 -0.00012669 -5.2532e-18)
(1.0003 -0.00027756 4.7009e-18)
(0.99992 0.00017152 4.3417e-18)
(1.0003 0.00013089 -1.7889e-18)
(0.99679 0.0012459 -1.6726e-17)
(1.0071 0.0041619 2.2532e-17)
(0.95354 -0.0041032 1.0348e-19)
(1.0482 0.078152 1.5174e-18)
(0.99998 6.6556e-05 5.2487e-18)
(1 -0.00013966 -4.5069e-18)
(1 -0.00011052 7.2818e-19)
(1.0001 -0.00031129 -4.8811e-18)
(1.0001 -0.00013568 1.193e-17)
(1.0003 -0.00030771 5.736e-18)
(0.99991 0.00019118 1.7468e-17)
(1.0004 0.00011674 -6.6446e-18)
(0.99648 0.0013134 -2.0465e-19)
(1.0077 0.0046189 5.5386e-18)
(0.95546 -0.004907 1.7197e-17)
(1.0377 0.077184 9.6743e-19)
(0.99997 7.1534e-05 1.2658e-18)
(1 -0.000151 1.0002e-17)
(1 -0.00011883 1.3912e-17)
(1.0001 -0.00033757 -4.8668e-18)
(1.0001 -0.00014463 8.638e-18)
(1.0003 -0.00033947 -2.6777e-18)
(0.99989 0.00021114 -3.0593e-17)
(1.0005 9.8112e-05 2.1032e-17)
(0.99619 0.0013701 -1.8868e-17)
(1.0082 0.0050662 -3.1939e-17)
(0.9577 -0.0056116 -3.7716e-18)
(1.0283 0.076027 8.9744e-19)
(0.99997 7.6475e-05 -3.2295e-18)
(1 -0.00016246 -1.0637e-17)
(1 -0.00012724 -3.3392e-17)
(1.0002 -0.00036437 8.1992e-18)
(1.0001 -0.00015359 -1.3109e-17)
(1.0004 -0.00037292 8.5859e-18)
(0.99988 0.00023105 -2.8619e-18)
(1.0006 7.4988e-05 -1.2661e-17)
(0.9959 0.0014153 4.1406e-18)
(1.0086 0.0054985 1.9075e-17)
(0.96013 -0.0062086 -7.9268e-18)
(1.02 0.074735 1.2555e-17)
(0.99997 8.1369e-05 3.3978e-19)
(1 -0.00017404 7.9558e-18)
(1 -0.00013578 2.3053e-17)
(1.0002 -0.0003917 -1.8467e-18)
(1.0001 -0.00016264 -1.3022e-17)
(1.0004 -0.00040818 -1.6e-17)
(0.99986 0.00025044 1.0934e-17)
(1.0008 4.7437e-05 7.2615e-18)
(0.99564 0.0014482 2.3949e-17)
(1.009 0.005912 -2.6725e-18)
(0.96262 -0.0066956 1.972e-18)
(1.0131 0.073353 -5.0077e-18)
(0.99996 8.6206e-05 -1.9064e-18)
(1 -0.00018576 -9.6399e-18)
(1 -0.00014448 -1.0402e-17)
(1.0002 -0.00041961 6.171e-18)
(1.0001 -0.00017188 -7.3128e-18)
(1.0004 -0.00044535 -1.2834e-17)
(0.99984 0.00026875 1.0628e-17)
(1.001 1.5597e-05 -4.9262e-18)
(0.99541 0.0014683 -2.9645e-17)
(1.0093 0.0063038 -1.4983e-17)
(0.9651 -0.0070753 8.559e-18)
(1.0074 0.071913 -5.4426e-18)
(0.99996 9.0973e-05 -2.7297e-18)
(0.99999 -0.0001976 -3.6434e-18)
(1 -0.00015338 -7.7093e-19)
(1.0002 -0.0004481 -2.7023e-17)
(1.0001 -0.00018145 6.1366e-18)
(1.0005 -0.00048456 5.5884e-18)
(0.99982 0.00028536 -2.0196e-17)
(1.0011 -2.0315e-05 -1.682e-17)
(0.9952 0.0014752 4.333e-18)
(1.0096 0.0066721 -1.1314e-18)
(0.96749 -0.0073541 -9.8814e-18)
(1.0029 0.07044 1.0287e-18)
(0.99995 9.566e-05 3.5506e-18)
(0.99999 -0.00020958 1.6702e-17)
(1 -0.00016251 1.9849e-17)
(1.0002 -0.00047721 2.5447e-18)
(1.0001 -0.0001915 1.6962e-17)
(1.0005 -0.00052593 9.7937e-18)
(0.9998 0.00029955 2.9154e-18)
(1.0013 -5.9999e-05 1.8409e-17)
(0.99502 0.0014688 2.1549e-17)
(1.0098 0.007016 1.7896e-17)
(0.96976 -0.0075414 7.3791e-18)
(0.99934 0.068953 1.2232e-18)
(0.99995 0.00010025 -1.6923e-18)
(0.99999 -0.00022169 -4.0075e-18)
(1 -0.00017194 -2.1147e-17)
(1.0002 -0.00050699 -2.4097e-18)
(1.0001 -0.00020221 -1.2855e-17)
(1.0006 -0.00056958 -5.2992e-18)
(0.99978 0.00031056 -1.8703e-18)
(1.0015 -0.00010308 -1.6647e-17)
(0.99488 0.0014493 -2.0613e-17)
(1.0099 0.0073356 9.1768e-18)
(0.97187 -0.0076477 5.0798e-19)
(0.99672 0.067464 7.0336e-19)
(0.99994 0.00010474 4.4857e-18)
(0.99999 -0.00023395 -5.2356e-18)
(1 -0.00018171 -1.9833e-17)
(1.0002 -0.00053748 4.581e-17)
(1.0002 -0.0002138 1.8647e-17)
(1.0006 -0.00061566 -1.2967e-17)
(0.99977 0.0003176 2.515e-17)
(1.0017 -0.00014909 2.2499e-17)
(0.99476 0.001417 3.3453e-17)
(1.0101 0.0076315 -3.3642e-17)
(0.97381 -0.0076844 -1.3554e-17)
(0.99486 0.065984 1.8635e-19)
(0.99994 0.00010911 -3.2834e-18)
(0.99998 -0.00024636 -1.0506e-18)
(1 -0.00019189 3.386e-17)
(1.0002 -0.00056874 -3.4629e-17)
(1.0002 -0.00022653 -1.7952e-18)
(1.0007 -0.00066431 4.2964e-17)
(0.99975 0.00031989 7.7934e-18)
(1.002 -0.0001975 -3.4751e-18)
(0.99468 0.0013727 -2.075e-17)
(1.0102 0.0079048 3.9651e-17)
(0.97558 -0.007663 -5.7438e-18)
(0.99363 0.06452 -2.9513e-19)
(0.99993 0.00011334 -1.6738e-18)
(0.99998 -0.00025894 -2.0935e-18)
(1 -0.00020255 1.7627e-18)
(1.0002 -0.00060084 3.6026e-17)
(1.0002 -0.00024067 -1.012e-17)
(1.0007 -0.00071565 -3.1756e-17)
(0.99974 0.00031669 -1.9871e-17)
(1.0022 -0.00024773 -3.742e-18)
(0.99463 0.0013173 6.5637e-18)
(1.0103 0.008157 -3.3457e-17)
(0.97719 -0.0075941 9.6197e-18)
(0.99288 0.063077 3.2054e-18)
(0.99992 0.00011742 2.766e-18)
(0.99998 -0.00027171 1.4571e-17)
(1 -0.00021378 -1.3003e-17)
(1.0003 -0.00063387 -3.7723e-18)
(1.0002 -0.00025654 -1.942e-17)
(1.0008 -0.00076984 3.4549e-17)
(0.99973 0.00030734 -1.7443e-17)
(1.0024 -0.00029911 1.5515e-17)
(0.9946 0.0012518 -2.023e-18)
(1.0104 0.0083897 3.1371e-17)
(0.97866 -0.0074876 -9.3887e-18)
(0.99252 0.061659 -5.3493e-18)
(0.99992 0.00012133 -5.3049e-19)
(0.99997 -0.00028469 -8.38e-18)
(1 -0.00022569 -1.8207e-17)
(1.0003 -0.00066794 -1.0336e-17)
(1.0002 -0.00027448 1.8837e-17)
(1.0008 -0.00082698 -4.4056e-17)
(0.99973 0.0002913 -2.6909e-18)
(1.0026 -0.00035095 -2.0962e-17)
(0.9946 0.0011776 3.2701e-18)
(1.0104 0.0086045 -9.0487e-18)
(0.97999 -0.0073522 9.994e-18)
(0.99245 0.060268 2.271e-18)
(0.99991 0.00012506 2.7789e-18)
(0.99997 -0.00029793 -8.9762e-18)
(1 -0.00023837 -1.7982e-18)
(1.0003 -0.00070316 2.5116e-18)
(1.0002 -0.00029483 5.9616e-18)
(1.0009 -0.00088717 1.273e-17)
(0.99973 0.00026816 4.4125e-17)
(1.0028 -0.00040254 2.5052e-18)
(0.99463 0.0010958 5.3311e-18)
(1.0105 0.0088033 9.975e-18)
(0.98122 -0.0071955 -8.5489e-18)
(0.99259 0.058906 1.7474e-18)
(0.9999 0.00012858 -1.5935e-18)
(0.99997 -0.00031146 8.968e-18)
(1 -0.00025195 2.5879e-17)
(1.0003 -0.00073966 -2.5306e-17)
(1.0002 -0.00031794 -9.2729e-18)
(1.001 -0.00095048 -2.2402e-18)
(0.99974 0.00023768 -1.4544e-17)
(1.0031 -0.00045316 1.9437e-18)
(0.99467 0.001008 -9.2349e-18)
(1.0105 0.0089875 -3.6659e-18)
(0.98234 -0.0070235 -2.4282e-19)
(0.99287 0.057573 -2.1342e-18)
(0.99989 0.00013187 -1.7126e-18)
(0.99996 -0.00032533 5.3678e-18)
(1 -0.00026657 -6.2608e-19)
(1.0003 -0.00077759 8.3911e-18)
(1.0002 -0.00034415 -1.7109e-17)
(1.0011 -0.0010169 2.5346e-17)
(0.99975 0.00019983 7.2537e-18)
(1.0033 -0.0005021 -1.8543e-17)
(0.99474 0.00091551 -1.1848e-17)
(1.0106 0.0091584 -1.4515e-17)
(0.98339 -0.0068415 1.3541e-18)
(0.99326 0.056269 -3.9173e-18)
(0.99989 0.00013491 5.9513e-19)
(0.99996 -0.00033959 -1.2819e-17)
(1 -0.00028236 1.6024e-17)
(1.0003 -0.00081711 2.3208e-17)
(1.0002 -0.00037379 3.3533e-17)
(1.0011 -0.0010864 -1.8614e-17)
(0.99977 0.00015473 -1.8035e-17)
(1.0035 -0.00054867 3.7626e-18)
(0.99482 0.00081964 1.1102e-17)
(1.0106 0.0093174 1.1361e-17)
(0.98436 -0.0066535 6.3096e-18)
(0.9937 0.054995 3.8937e-18)
(0.99988 0.00013768 1.1405e-18)
(0.99995 -0.00035432 1.0194e-17)
(1 -0.00029947 -3.6815e-17)
(1.0003 -0.00085836 -3.3629e-18)
(1.0002 -0.00040712 -2.7855e-17)
(1.0012 -0.0011589 -1.1725e-17)
(0.9998 0.00010272 2.546e-20)
(1.0037 -0.00059227 -4.305e-18)
(0.99491 0.00072162 -2.1887e-17)
(1.0106 0.0094655 -1.8139e-17)
(0.98528 -0.0064626 -8.6216e-18)
(0.99419 0.053749 -1.9225e-18)
(0.99987 0.00014014 -7.3921e-19)
(0.99995 -0.00036957 -6.6293e-18)
(1 -0.00031805 2.8965e-17)
(1.0004 -0.00090149 -3.2086e-17)
(1.0002 -0.00044439 -2.0942e-18)
(1.0013 -0.0012342 2.4969e-17)
(0.99983 4.4297e-05 7.2162e-19)
(1.0039 -0.00063232 4.1046e-18)
(0.99501 0.00062255 1.9159e-17)
(1.0107 0.0096034 2.3577e-17)
(0.98615 -0.0062712 4.9314e-18)
(0.99468 0.052532 -1.0757e-18)
(0.99986 0.00014228 -1.9243e-18)
(0.99994 -0.00038543 -2.4447e-18)
(1 -0.00033825 -1.2841e-17)
(1.0004 -0.00094665 1.5984e-17)
(1.0002 -0.00048576 3.0612e-17)
(1.0014 -0.001312 -1.1035e-17)
(0.99986 -1.9886e-05 2.2459e-17)
(1.0041 -0.00066837 3.0768e-18)
(0.99512 0.00052336 -2.1726e-18)
(1.0107 0.0097319 1.0663e-17)
(0.98698 -0.0060811 -5.5156e-18)
(0.99519 0.051343 -7.5157e-19)
(0.99985 0.00014405 4.8126e-19)
(0.99993 -0.00040197 -6.465e-18)
(0.99999 -0.00036021 4.8064e-18)
(1.0004 -0.00099395 -1.629e-17)
(1.0003 -0.00053129 -3.2377e-17)
(1.0014 -0.0013919 6.9543e-18)
(0.9999 -8.9055e-05 -3.24e-17)
(1.0042 -0.00070005 -7.0362e-18)
(0.99524 0.00042486 7.0451e-18)
(1.0107 0.0098515 -3.347e-17)
(0.98778 -0.0058935 3.7743e-18)
(0.99568 0.05018 2.1145e-18)
(0.99984 0.00014544 8.451e-19)
(0.99993 -0.00041928 1.7516e-17)
(0.99999 -0.00038405 8.0475e-18)
(1.0004 -0.0010435 6.6357e-18)
(1.0003 -0.000581 2.5889e-17)
(1.0015 -0.0014737 2.0734e-18)
(0.99994 -0.00016235 2.2372e-17)
(1.0044 -0.00072708 5.0461e-18)
(0.99536 0.00032764 -2.1422e-17)
(1.0107 0.0099626 1.1522e-17)
(0.98855 -0.0057093 2.5531e-18)
(0.99616 0.049045 2.196e-18)
(0.99983 0.00014642 -2.9508e-18)
(0.99992 -0.00043742 -5.7655e-18)
(0.99999 -0.00040988 -7.0707e-18)
(1.0004 -0.0010953 1.0897e-17)
(1.0003 -0.00063478 1.2506e-17)
(1.0016 -0.0015567 -4.1291e-18)
(0.99998 -0.00023886 -1.8792e-17)
(1.0046 -0.00074931 2.2979e-17)
(0.99548 0.00023218 3.9629e-18)
(1.0108 0.010065 -3.4798e-18)
(0.98929 -0.005529 1.0571e-17)
(0.99663 0.047934 -1.5277e-18)
(0.99982 0.00014696 6.0632e-18)
(0.99991 -0.00045646 6.9043e-18)
(0.99998 -0.00043779 -7.5158e-18)
(1.0004 -0.0011493 -6.788e-18)
(1.0003 -0.00069243 -1.7946e-17)
(1.0017 -0.0016406 -7.0921e-18)
(1 -0.00031766 9.2651e-18)
(1.0047 -0.00076669 -3.686e-17)
(0.99561 0.00013879 9.7122e-18)
(1.0108 0.01016 -4.1124e-18)
(0.99001 -0.0053531 -1.1197e-17)
(0.99709 0.046849 4.4417e-18)
(0.9998 0.00014703 -2.676e-18)
(0.99991 -0.00047647 -1.2131e-17)
(0.99998 -0.00046782 -7.2838e-18)
(1.0005 -0.0012056 -1.2881e-17)
(1.0003 -0.00075366 -5.4792e-18)
(1.0018 -0.0017246 2.0852e-17)
(1.0001 -0.00039786 -9.1013e-18)
(1.0049 -0.00077927 4.1006e-17)
(0.99574 4.7668e-05 9.162e-18)
(1.0108 0.010247 1.2479e-17)
(0.99071 -0.0051817 4.721e-18)
(0.99753 0.045788 -7.2071e-18)
(0.99979 0.00014662 -1.4193e-18)
(0.9999 -0.00049748 9.0212e-18)
(0.99998 -0.00049999 1.4431e-17)
(1.0005 -0.001264 3.4729e-17)
(1.0004 -0.00081811 7.2627e-18)
(1.0019 -0.0018082 -1.4303e-17)
(1.0001 -0.0004786 4.3921e-18)
(1.005 -0.00078719 -4.4118e-17)
(0.99587 -4.1113e-05 -1.1117e-17)
(1.0108 0.010327 -6.9378e-18)
(0.9914 -0.0050149 4.636e-18)
(0.99795 0.044751 7.2535e-18)
(0.99978 0.00014572 1.0862e-18)
(0.99989 -0.00051953 2.1355e-18)
(0.99997 -0.00053426 -1.4172e-17)
(1.0005 -0.0013244 -5.785e-18)
(1.0004 -0.00088532 9.2209e-18)
(1.0019 -0.0018909 1.7119e-17)
(1.0002 -0.00055912 1.5272e-17)
(1.0052 -0.00079068 4.3659e-18)
(0.996 -0.00012756 1.2439e-17)
(1.0108 0.010399 -3.2135e-18)
(0.99206 -0.0048527 -8.2763e-18)
(0.99835 0.043736 -1.8696e-18)
(0.99977 0.00014431 -4.4491e-20)
(0.99988 -0.00054263 2.4337e-18)
(0.99997 -0.00057057 3.1673e-18)
(1.0005 -0.0013865 -7.5098e-18)
(1.0004 -0.00095479 8.5466e-20)
(1.002 -0.001972 -1.5522e-17)
(1.0002 -0.00063876 -1.033e-17)
(1.0053 -0.00079005 3.231e-17)
(0.99613 -0.00021174 -1.8803e-17)
(1.0108 0.010463 1.2479e-17)
(0.99271 -0.004695 4.373e-18)
(0.99875 0.042744 -5.2917e-18)
(0.99975 0.0001424 -3.3642e-18)
(0.99987 -0.00056674 -1.1414e-17)
(0.99996 -0.00060881 8.0858e-18)
(1.0005 -0.00145 -2.0509e-17)
(1.0004 -0.001026 -2.3318e-17)
(1.0021 -0.0020511 -2.1443e-17)
(1.0003 -0.00071695 -2.1053e-17)
(1.0054 -0.00078564 -3.3086e-18)
(0.99626 -0.0002938 1.6434e-17)
(1.0108 0.01052 -1.0703e-17)
(0.99335 -0.0045418 4.3593e-19)
(0.99912 0.041774 4.9871e-18)
(0.99974 0.00013999 6.4931e-18)
(0.99986 -0.00059185 1.1928e-17)
(0.99996 -0.0006488 -1.304e-17)
(1.0006 -0.0015147 1.6838e-17)
(1.0004 -0.0010983 -2.7337e-18)
(1.0022 -0.0021276 1.4055e-17)
(1.0003 -0.00079327 2.5305e-17)
(1.0055 -0.00077786 -2.5066e-17)
(0.99639 -0.00037388 -8.3351e-18)
(1.0108 0.010569 1.13e-17)
(0.99397 -0.0043929 3.7855e-18)
(0.99949 0.040825 -2.3607e-18)
(0.99972 0.0001371 -4.8721e-18)
(0.99985 -0.00061789 -3.5254e-18)
(0.99995 -0.00069036 -2.7261e-18)
(1.0006 -0.0015802 1.9266e-17)
(1.0005 -0.0011712 -5.8528e-18)
(1.0022 -0.0022013 -1.7807e-19)
(1.0003 -0.00086741 -4.9517e-18)
(1.0056 -0.00076713 2.0078e-17)
(0.99653 -0.00045217 -7.9167e-18)
(1.0108 0.010612 -7.7589e-18)
(0.99457 -0.0042484 -1.1192e-17)
(0.99985 0.039896 2.747e-18)
(0.99971 0.00013374 3.3117e-18)
(0.99984 -0.00064477 -4.4699e-18)
(0.99995 -0.00073326 6.2416e-18)
(1.0006 -0.0016461 -2.9232e-17)
(1.0005 -0.001244 3.9655e-17)
(1.0023 -0.0022717 5.8229e-18)
(1.0004 -0.00093916 1.9536e-17)
(1.0057 -0.00075388 -1.2425e-17)
(0.99666 -0.00052886 1.0252e-19)
(1.0108 0.010647 5.7681e-18)
(0.99517 -0.004108 -2.1828e-18)
(1.0002 0.038988 -1.0334e-18)
(0.99969 0.00012994 -9.4739e-19)
(0.99983 -0.00067238 8.7365e-19)
(0.99994 -0.00077724 1.5206e-17)
(1.0006 -0.0017121 7.9692e-18)
(1.0005 -0.0013164 -1.9824e-17)
(1.0024 -0.0023386 -1.1405e-17)
(1.0004 -0.0010084 3.4109e-18)
(1.0058 -0.00073856 -6.0409e-18)
(0.9968 -0.00060414 1.3246e-17)
(1.0108 0.010675 -3.787e-18)
(0.99574 -0.0039717 1.0488e-17)
(1.0005 0.0381 -3.7766e-18)
(0.99967 0.00012575 -1.6489e-18)
(0.99982 -0.0007006 -8.4218e-18)
(0.99994 -0.00082201 -4.5215e-18)
(1.0006 -0.0017777 3.2e-17)
(1.0005 -0.0013877 -1.766e-17)
(1.0024 -0.0024019 -9.6598e-19)
(1.0005 -0.0010752 -5.1012e-17)
(1.0059 -0.0007216 5.9376e-18)
(0.99693 -0.00067818 -2.4777e-17)
(1.0108 0.010696 -8.1747e-18)
(0.99631 -0.0038393 -1.0498e-17)
(1.0009 0.03723 2.2429e-18)
(0.99965 0.00012121 -7.1181e-19)
(0.99981 -0.00072929 5.2177e-18)
(0.99993 -0.00086728 -1.8665e-18)
(1.0006 -0.0018426 -1.8633e-17)
(1.0005 -0.0014576 2.5379e-17)
(1.0025 -0.0024615 -2.3746e-18)
(1.0005 -0.0011396 2.7021e-17)
(1.006 -0.00070341 -3.6505e-18)
(0.99707 -0.00075116 1.2028e-17)
(1.0108 0.01071 1.0223e-17)
(0.99686 -0.0037108 8.6614e-18)
(1.0012 0.03638 -5.4317e-19)
(0.99963 0.00011635 4.0351e-18)
(0.99979 -0.0007583 -3.1216e-18)
(0.99992 -0.00091277 -6.5286e-18)
(1.0007 -0.0019064 2.0335e-17)
(1.0006 -0.0015258 1.8625e-18)
(1.0025 -0.0025174 2.9441e-17)
(1.0005 -0.0012018 4.6611e-18)
(1.006 -0.00068439 1.744e-17)
(0.99721 -0.00082323 4.5125e-18)
(1.0108 0.010717 -3.3077e-18)
(0.9974 -0.0035861 1.1287e-18)
(1.0015 0.035548 4.9151e-19)
(0.99961 0.00011124 1.1504e-18)
(0.99978 -0.00078747 1.2764e-18)
(0.99991 -0.00095817 -5.9197e-18)
(1.0007 -0.0019689 -4.0496e-17)
(1.0006 -0.0015918 5.6395e-18)
(1.0026 -0.0025697 2.553e-18)
(1.0005 -0.0012619 -2.0211e-17)
(1.0061 -0.00066491 2.4536e-19)
(0.99734 -0.00089453 1.3302e-17)
(1.0108 0.010718 -2.1259e-18)
(0.99792 -0.0034652 -5.4955e-18)
(1.0018 0.034734 2.8999e-18)
(0.99959 0.00010593 -4.9267e-18)
(0.99976 -0.00081664 5.4096e-18)
(0.9999 -0.0010032 9.7622e-19)
(1.0007 -0.0020297 2.2487e-17)
(1.0006 -0.0016556 -2.5726e-17)
(1.0026 -0.0026185 -1.1278e-17)
(1.0006 -0.0013201 2.0671e-17)
(1.0062 -0.00064531 -1.1813e-17)
(0.99749 -0.00096518 -2.1032e-17)
(1.0108 0.010712 -1.0502e-17)
(0.99844 -0.0033478 7.0022e-18)
(1.0021 0.033938 9.6827e-19)
(0.99957 0.00010047 -5.2126e-19)
(0.99975 -0.00084566 -5.4434e-18)
(0.99989 -0.0010477 1.0393e-17)
(1.0007 -0.0020886 9.9698e-18)
(1.0006 -0.001717 3.1774e-17)
(1.0027 -0.0026641 4.3321e-18)
(1.0006 -0.0013768 1.836e-17)
(1.0062 -0.00062589 2.9948e-17)
(0.99763 -0.0010353 -9.3124e-19)
(1.0108 0.0107 1.8473e-17)
(0.99894 -0.0032341 -7.4003e-19)
(1.0024 0.033159 -2.8228e-18)
(0.99955 9.4917e-05 5.0526e-18)
(0.99973 -0.00087437 -7.9247e-18)
(0.99988 -0.0010913 -1.5774e-17)
(1.0007 -0.0021455 -2.6503e-18)
(1.0006 -0.0017759 -3.4485e-17)
(1.0027 -0.0027066 -1.2891e-17)
(1.0006 -0.0014322 -6.3732e-18)
(1.0063 -0.00060692 2.235e-19)
(0.99777 -0.001105 2.7376e-17)
(1.0108 0.010682 4.2549e-18)
(0.99943 -0.0031238 -9.6244e-18)
(1.0027 0.032396 1.6945e-18)
(0.99952 8.9325e-05 -5.6644e-18)
(0.99971 -0.00090264 9.8996e-18)
(0.99987 -0.0011338 8.257e-18)
(1.0007 -0.0022002 -5.2807e-18)
(1.0006 -0.0018324 2.7732e-17)
(1.0028 -0.0027464 1.5422e-17)
(1.0006 -0.0014865 -5.038e-18)
(1.0064 -0.00058865 -3.0179e-17)
(0.99791 -0.0011743 -9.2985e-19)
(1.0108 0.010657 -1.2162e-17)
(0.9999 -0.003017 1.1398e-17)
(1.0029 0.03165 -2.2189e-18)
(0.9995 8.3744e-05 3.4036e-18)
(0.9997 -0.00093035 -1.8942e-18)
(0.99985 -0.0011752 1.0932e-17)
(1.0007 -0.0022526 -2.2215e-17)
(1.0006 -0.0018864 9.0544e-18)
(1.0028 -0.0027837 -5.5401e-18)
(1.0007 -0.00154 -1.0855e-17)
(1.0064 -0.0005713 -2.4221e-18)
(0.99806 -0.0012432 -3.3046e-17)
(1.0108 0.010627 8.022e-18)
(1.0004 -0.0029136 -1.0446e-17)
(1.0032 0.03092 7.4084e-19)
(0.99947 7.8217e-05 2.6907e-19)
(0.99968 -0.0009574 -5.9587e-18)
(0.99984 -0.0012152 6.2076e-18)
(1.0007 -0.0023028 2.9238e-17)
(1.0006 -0.0019383 -2.1566e-17)
(1.0028 -0.0028188 1.7821e-17)
(1.0007 -0.001593 -6.2763e-18)
(1.0065 -0.00055505 5.6095e-18)
(0.99821 -0.001312 3.9264e-17)
(1.0108 0.010591 -1.4891e-17)
(1.0008 -0.0028135 1.5976e-17)
(1.0035 0.030206 2.096e-18)
(0.99945 7.2785e-05 4.8293e-19)
(0.99965 -0.00098369 -1.233e-18)
(0.99982 -0.0012539 -8.9311e-18)
(1.0007 -0.0023507 -4.4019e-18)
(1.0006 -0.0019879 1.8795e-17)
(1.0029 -0.0028521 1.4136e-19)
(1.0007 -0.0016456 -1.2337e-17)
(1.0066 -0.00054006 -1.339e-17)
(0.99835 -0.0013806 -1.6437e-17)
(1.0108 0.01055 -1.4047e-18)
(1.0013 -0.0027168 2.9343e-18)
(1.0038 0.029507 2.2042e-19)
(0.99942 6.7482e-05 -7.7721e-19)
(0.99963 -0.0010092 1.4675e-17)
(0.9998 -0.0012911 -5.9565e-18)
(1.0007 -0.0023965 -2.4873e-17)
(1.0006 -0.0020357 8.6638e-18)
(1.0029 -0.0028837 -4.5403e-17)
(1.0007 -0.0016982 6.1539e-18)
(1.0066 -0.00052649 8.4318e-18)
(0.9985 -0.001449 7.6349e-19)
(1.0108 0.010502 1.5121e-17)
(1.0017 -0.0026233 -9.705e-19)
(1.004 0.028824 -5.8583e-18)
(0.99939 6.2335e-05 -2.052e-19)
(0.99961 -0.0010338 -2.8806e-19)
(0.99978 -0.0013269 8.0182e-18)
(1.0007 -0.0024402 1.5356e-17)
(1.0006 -0.0020817 -3.4426e-17)
(1.0029 -0.0029141 1.9615e-18)
(1.0007 -0.0017508 1.1023e-17)
(1.0067 -0.00051444 1.3204e-17)
(0.99865 -0.0015173 -1.0399e-17)
(1.0108 0.01045 -1.472e-17)
(1.0021 -0.0025331 -1.5876e-17)
(1.0043 0.028154 6.1878e-18)
(0.99937 5.7366e-05 -1.3425e-18)
(0.99959 -0.0010576 4.1001e-19)
(0.99976 -0.0013612 -3.8661e-18)
(1.0007 -0.0024819 -1.0252e-17)
(1.0006 -0.0021262 1.9083e-17)
(1.0029 -0.0029435 2.4369e-17)
(1.0008 -0.0018036 3.2148e-18)
(1.0067 -0.00050403 6.69e-18)
(0.9988 -0.0015855 1.6586e-17)
(1.0108 0.010392 2.4778e-18)
(1.0025 -0.002446 1.1748e-17)
(1.0045 0.0275 -3.7559e-18)
(0.99934 5.2589e-05 2.471e-18)
(0.99956 -0.0010804 7.5595e-19)
(0.99974 -0.0013941 -5.5246e-18)
(1.0007 -0.0025219 1.5145e-18)
(1.0006 -0.0021695 -1.0346e-17)
(1.003 -0.002972 -5.8455e-18)
(1.0008 -0.0018568 -1.1881e-18)
(1.0068 -0.00049535 -3.0208e-17)
(0.99895 -0.0016537 3.257e-18)
(1.0108 0.010329 -5.0214e-18)
(1.0029 -0.0023621 -4.7776e-18)
(1.0048 0.026859 -4.5281e-18)
(0.99931 4.8014e-05 -5.0427e-18)
(0.99954 -0.0011024 9.8757e-19)
(0.99972 -0.0014257 2.9303e-18)
(1.0007 -0.0025602 -1.903e-17)
(1.0006 -0.0022116 -1.1794e-17)
(1.003 -0.0030001 -2.7136e-17)
(1.0008 -0.0019105 5.7343e-18)
(1.0069 -0.00048847 1.2335e-17)
(0.99911 -0.0017219 -3.4925e-17)
(1.0108 0.010262 2.3156e-17)
(1.0033 -0.0022813 -5.1738e-18)
(1.005 0.026232 2.92e-18)
(0.99928 4.3643e-05 4.6288e-18)
(0.99951 -0.0011236 2.2102e-18)
(0.99969 -0.0014561 1.127e-18)
(1.0007 -0.0025971 6.0362e-18)
(1.0006 -0.002253 -2.6044e-18)
(1.003 -0.0030278 5.2595e-17)
(1.0008 -0.0019648 2.0588e-17)
(1.0069 -0.00048345 -1.9181e-17)
(0.99926 -0.00179 3.3615e-17)
(1.0108 0.010189 -8.6393e-18)
(1.0037 -0.0022037 -3.4169e-18)
(1.0053 0.025618 -1.4568e-18)
(0.99924 3.9474e-05 1.1353e-18)
(0.99949 -0.001144 -1.3996e-17)
(0.99967 -0.0014853 2.2552e-18)
(1.0007 -0.0026328 2.7103e-17)
(1.0006 -0.0022936 2.0159e-17)
(1.003 -0.0030553 -8.5007e-19)
(1.0008 -0.0020199 -2.8523e-17)
(1.007 -0.00048037 5.8102e-18)
(0.99942 -0.0018582 -7.5818e-18)
(1.0109 0.010112 -1.1955e-17)
(1.0041 -0.002129 8.6897e-18)
(1.0055 0.025018 1.3581e-18)
(0.99921 3.5502e-05 -4.4904e-18)
(0.99946 -0.0011636 -4.6656e-18)
(0.99964 -0.0015136 -1.2216e-17)
(1.0007 -0.0026673 -2.273e-17)
(1.0005 -0.0023339 -2.0284e-17)
(1.0031 -0.0030829 -2.39e-17)
(1.0009 -0.0020757 5.2673e-18)
(1.007 -0.00047926 4.5147e-17)
(0.99957 -0.0019264 3.3053e-18)
(1.0109 0.01003 -1.0434e-18)
(1.0045 -0.0020575 -3.0699e-18)
(1.0058 0.02443 -3.6497e-18)
(0.99918 3.1715e-05 3.332e-18)
(0.99943 -0.0011825 4.3344e-18)
(0.99962 -0.001541 1.8825e-17)
(1.0007 -0.002701 1.5742e-17)
(1.0005 -0.0023739 1.9734e-17)
(1.0031 -0.0031106 -8.8849e-19)
(1.0009 -0.0021324 -2.9348e-17)
(1.0071 -0.00048018 -2.4401e-17)
(0.99973 -0.0019947 8.2047e-18)
(1.0109 0.0099436 4.1381e-18)
(1.0048 -0.001989 6.9297e-18)
(1.006 0.023855 2.8209e-18)
(0.99914 2.8102e-05 -2.3531e-18)
(0.9994 -0.0012008 6.799e-18)
(0.99959 -0.0015676 -1.2455e-17)
(1.0007 -0.0027339 2.278e-18)
(1.0005 -0.0024138 9.1744e-18)
(1.0031 -0.0031386 -2.3361e-18)
(1.0009 -0.00219 6.5889e-18)
(1.0071 -0.00048316 6.7746e-18)
(0.99988 -0.0020631 2.7023e-18)
(1.0109 0.009853 1.0228e-17)
(1.0052 -0.0019234 -8.3362e-18)
(1.0062 0.023292 5.6977e-19)
(0.99911 2.4645e-05 3.5525e-18)
(0.99937 -0.0012186 4.2135e-19)
(0.99956 -0.0015936 -5.8297e-18)
(1.0006 -0.0027663 9.0661e-19)
(1.0005 -0.0024538 -1.5079e-18)
(1.0031 -0.003167 -2.3077e-17)
(1.0009 -0.0022485 1.8398e-17)
(1.0072 -0.00048823 2.404e-17)
(1 -0.0021316 -1.3445e-17)
(1.0109 0.0097582 -1.4231e-17)
(1.0055 -0.0018609 -2.4409e-18)
(1.0065 0.022741 4.8513e-18)
(0.99908 2.1329e-05 -2.5807e-18)
(0.99934 -0.0012359 -3.2451e-19)
(0.99953 -0.001619 7.2484e-18)
(1.0006 -0.0027983 -1.7418e-17)
(1.0005 -0.002494 -1.3628e-17)
(1.0032 -0.0031959 2.9135e-17)
(1.001 -0.002308 -2.8137e-18)
(1.0072 -0.00049544 -2.5455e-17)
(1.0002 -0.0022002 3.4266e-18)
(1.0109 0.0096594 1.3398e-17)
(1.0058 -0.0018013 8.2716e-18)
(1.0067 0.022202 -1.7493e-18)
(0.99904 1.8135e-05 2.5642e-19)
(0.99931 -0.0012528 2.3767e-18)
(0.9995 -0.0016441 3.9604e-18)
(1.0006 -0.00283 9.0041e-18)
(1.0005 -0.0025345 2.6711e-17)
(1.0032 -0.0032255 6.7923e-18)
(1.001 -0.0023685 -2.4501e-17)
(1.0073 -0.00050481 2.3842e-18)
(1.0004 -0.002269 8.8283e-18)
(1.0109 0.0095566 -1.207e-17)
(1.0062 -0.0017447 -5.5961e-18)
(1.0069 0.021674 -2.0233e-18)
(0.999 1.5044e-05 7.2804e-19)
(0.99928 -0.0012693 -4.1352e-19)
(0.99947 -0.0016689 -1.0449e-17)
(1.0006 -0.0028615 -1.9364e-19)
(1.0005 -0.0025754 -5.281e-17)
(1.0032 -0.0032557 8.3739e-18)
(1.001 -0.0024301 2.4068e-17)
(1.0073 -0.00051637 -6.8516e-18)
(1.0005 -0.002338 -9.2436e-18)
(1.0109 0.0094499 2.0043e-17)
(1.0065 -0.001691 6.7023e-18)
(1.0071 0.021158 5.2441e-18)
(0.99897 1.2038e-05 7.8202e-19)
(0.99924 -0.0012856 -8.579e-19)
(0.99944 -0.0016935 1.8897e-17)
(1.0006 -0.002893 4.1525e-18)
(1.0005 -0.0026168 4.6797e-17)
(1.0032 -0.0032866 -2.9514e-17)
(1.001 -0.0024928 -8.0602e-18)
(1.0073 -0.00053014 6.4469e-18)
(1.0007 -0.0024071 3.1868e-18)
(1.011 0.0093394 -1.1277e-17)
(1.0068 -0.0016402 -1.0829e-18)
(1.0074 0.020652 -3.8669e-18)
(0.99893 9.0977e-06 -3.0563e-18)
(0.99921 -0.0013017 1.4402e-18)
(0.99941 -0.001718 -1.1107e-17)
(1.0006 -0.0029246 5.4598e-18)
(1.0004 -0.0026588 -1.7781e-17)
(1.0032 -0.0033183 4.0025e-18)
(1.0011 -0.0025565 3.2273e-17)
(1.0074 -0.00054615 -2.4127e-17)
(1.0008 -0.0024765 -1.1712e-17)
(1.011 0.0092254 -1.1155e-17)
(1.0071 -0.0015922 -5.335e-18)
(1.0076 0.020157 -1.0615e-18)
(0.99889 6.206e-06 3.8068e-18)
(0.99918 -0.0013176 -3.4205e-18)
(0.99938 -0.0017426 -1.0778e-17)
(1.0006 -0.0029564 -8.7065e-18)
(1.0004 -0.0027015 -2.907e-17)
(1.0032 -0.0033509 -1.8562e-17)
(1.0011 -0.0026214 -1.9789e-17)
(1.0074 -0.00056442 2.2432e-17)
(1.001 -0.0025462 1.1357e-17)
(1.011 0.0091077 1.6892e-17)
(1.0074 -0.0015472 -2.0921e-18)
(1.0078 0.019672 5.124e-18)
(0.99885 3.3461e-06 -6.1182e-18)
(0.99914 -0.0013334 5.5418e-18)
(0.99934 -0.0017672 2.6389e-17)
(1.0005 -0.0029884 -2.0536e-18)
(1.0004 -0.002745 3.2162e-17)
(1.0033 -0.0033843 1.4007e-18)
(1.0011 -0.0026874 -1.8954e-17)
(1.0075 -0.00058498 8.7763e-18)
(1.0012 -0.0026161 -4.0956e-18)
(1.011 0.0089866 -3.5372e-18)
(1.0077 -0.001505 6.7855e-18)
(1.008 0.019197 -3.465e-18)
(0.99881 5.0204e-07 5.0136e-18)
(0.9991 -0.0013492 -7.5313e-18)
(0.99931 -0.001792 -3.0767e-17)
(1.0005 -0.0030207 1.3433e-17)
(1.0004 -0.0027892 -2.2913e-17)
(1.0033 -0.0034187 2.5658e-17)
(1.0011 -0.0027545 6.1777e-18)
(1.0075 -0.00060784 -8.356e-18)
(1.0013 -0.0026863 -1.9661e-18)
(1.011 0.0088622 -8.8577e-18)
(1.008 -0.0014657 -1.1071e-17)
(1.0082 0.018732 4.7886e-18)
(0.99877 -2.3406e-06 -3.6928e-18)
(0.99907 -0.001365 2.5043e-18)
(0.99928 -0.001817 1.8694e-17)
(1.0005 -0.0030534 -1.7707e-17)
(1.0004 -0.0028342 3.6866e-17)
(1.0033 -0.003454 -1.9913e-17)
(1.0012 -0.0028228 3.6014e-18)
(1.0076 -0.00063303 -1.3202e-17)
(1.0015 -0.0027569 6.4206e-18)
(1.0111 0.0087345 -1.2389e-18)
(1.0082 -0.0014292 4.7374e-18)
(1.0084 0.018277 -2.1299e-18)
(0.99873 -5.1953e-06 4.529e-18)
(0.99903 -0.0013808 1.9495e-18)
(0.99924 -0.0018422 -1.2463e-17)
(1.0005 -0.0030865 -3.5971e-19)
(1.0004 -0.0028801 -1.6282e-18)
(1.0033 -0.0034904 4.8164e-18)
(1.0012 -0.0028922 3.4203e-17)
(1.0076 -0.00066057 9.03e-18)
(1.0016 -0.0028278 -1.9033e-17)
(1.0111 0.0086036 -6.423e-18)
(1.0085 -0.0013956 -4.4661e-18)
(1.0086 0.017831 2.2366e-18)
(0.99869 -8.0743e-06 -5.191e-18)
(0.99899 -0.0013967 -7.2241e-18)
(0.99921 -0.0018678 5.2286e-18)