/*--------------------------------*- C++ -*----------------------------------*\
  =========                 |
  \\      /  F ield         | OpenFOAM: The Open Source CFD Toolbox
   \\    /   O peration     | Website:  https://openfoam.org
    \\  /    A nd           | Version:  6.0
     \\/     M anipulation  |
\*---------------------------------------------------------------------------*/
FoamFile
{
    version     2.0;
    format      ascii;
    class       volVectorField;
    location    "1.2";
    object      U;
}
// * * * * * * * * * * * * * * * * * * * * * * * * * * * * * * * * * * * * * //

dimensions      [0 1 -1 0 0 0 0];

internalField   nonuniform List<vector> 
13500
(
(1 1.8092e-06 -4.3503e-18)
(1 -3.8439e-06 2.9452e-18)
(1 -5.5426e-06 -1.2651e-17)
(1 -9.0771e-06 -8.7728e-18)
(1 -8.3345e-06 1.6494e-17)
(1 -6.2515e-06 3.0783e-17)
(1 4.7065e-08 2.6442e-17)
(0.99997 1.6744e-05 -4.2654e-18)
(0.99991 4.3072e-05 1.5731e-17)
(0.99977 8.4877e-05 3.3781e-18)
(0.99597 0.00070346 2.912e-17)
(1.0191 0.010842 8.0264e-18)
(1 5.6395e-06 2.6952e-18)
(1 -1.1291e-05 -8.9445e-18)
(1 -1.5589e-05 6.0412e-18)
(1 -2.6388e-05 -3.4607e-19)
(1 -2.3071e-05 -4.3987e-19)
(1 -1.7682e-05 -3.7014e-17)
(1 2.9556e-06 -4.567e-17)
(0.99993 5.1241e-05 -2.4405e-17)
(0.99972 0.00013658 -1.57e-17)
(0.99967 0.00022834 -1.6702e-18)
(0.98716 0.0019908 -1.379e-17)
(1.0535 0.030644 -4.8599e-18)
(1 9.5282e-06 -3.481e-18)
(1 -1.8917e-05 1.7771e-17)
(1 -2.5583e-05 3.1422e-18)
(1 -4.4152e-05 1.0115e-17)
(1 -3.7642e-05 -3.8035e-18)
(1 -2.9773e-05 2.965e-17)
(1 6.4062e-06 -6.4287e-18)
(0.99988 8.5319e-05 5.5438e-18)
(0.99953 0.00023533 -1.9047e-17)
(0.99995 0.00040154 2.5375e-17)
(0.97795 0.0028786 -7.2112e-18)
(1.0819 0.045197 1.7099e-18)
(1 1.3458e-05 9.1002e-18)
(1 -2.6754e-05 -1.7229e-17)
(1 -3.5689e-05 -1.4895e-17)
(1 -6.2397e-05 -7.0972e-19)
(1 -5.235e-05 5.8714e-18)
(1 -4.2468e-05 -8.2289e-19)
(1 9.9564e-06 6.3341e-17)
(0.99985 0.00011874 9.9879e-18)
(0.99931 0.00033743 2.2522e-17)
(1.0006 0.00061113 -9.1916e-18)
(0.96873 0.0033878 3.5119e-17)
(1.103 0.055786 -7.7829e-18)
(1 1.7455e-05 -6.3943e-18)
(1 -3.4702e-05 1.4891e-17)
(1 -4.5764e-05 1.268e-17)
(1 -8.0812e-05 1.2946e-17)
(1 -6.7018e-05 2.8789e-18)
(1 -5.5386e-05 2.1792e-17)
(1 1.3695e-05 -2.8285e-17)
(0.99982 0.00015151 2.0285e-18)
(0.99907 0.00044077 -1.381e-17)
(1.0015 0.0008605 -2.1932e-18)
(0.95991 0.0035663 -9.106e-18)
(1.1169 0.063552 2.1563e-18)
(1 2.152e-05 6.471e-18)
(1 -4.2761e-05 -6.173e-18)
(1 -5.5808e-05 3.8723e-18)
(1 -9.9399e-05 -2.5644e-17)
(1.0001 -8.1647e-05 -8.4366e-20)
(1.0001 -6.8561e-05 -4.3142e-17)
(1 1.7623e-05 1.0853e-18)
(0.99981 0.00018351 -1.6284e-17)
(0.9988 0.00054334 5.2587e-18)
(1.0027 0.0011567 -2.2096e-17)
(0.95182 0.0034569 -2.1931e-17)
(1.1241 0.069108 2.0876e-18)
(0.99999 2.5654e-05 -1.0712e-18)
(1 -5.0938e-05 -7.383e-18)
(1 -6.5818e-05 -3.1471e-18)
(1.0001 -0.00011818 1.9356e-17)
(1.0001 -9.6221e-05 -2.6664e-17)
(1.0001 -8.2038e-05 1.6507e-17)
(1 2.1782e-05 1.8918e-17)
(0.9998 0.00021475 5.7291e-18)
(0.99849 0.0006432 1.1757e-17)
(1.004 0.0015057 1.1895e-17)
(0.94473 0.0031 9.4503e-18)
(1.1258 0.072883 3.3573e-18)
(0.99999 2.9858e-05 -2.2109e-18)
(1 -5.9237e-05 -1.4524e-18)
(1 -7.5792e-05 -2.711e-17)
(1.0001 -0.00013717 -9.2428e-18)
(1.0001 -0.00011074 7.4633e-18)
(1.0001 -9.5854e-05 2.7052e-17)
(1 2.6197e-05 1.2041e-17)
(0.9998 0.00024525 5.1144e-18)
(0.99816 0.00073847 -7.6849e-18)
(1.0055 0.0019106 1.6661e-17)
(0.93883 0.0025363 7.6337e-18)
(1.1229 0.075241 -1.0684e-17)
(0.99999 3.4132e-05 -6.8633e-18)
(1 -6.7662e-05 6.2441e-18)
(1 -8.5732e-05 4.5583e-17)
(1.0001 -0.00015639 -1.1086e-17)
(1.0001 -0.00012519 2.7948e-17)
(1.0001 -0.00011004 -5.341e-17)
(1 3.0877e-05 -4.0112e-17)
(0.99982 0.00027503 9.9377e-18)
(0.99779 0.00082731 -5.7723e-18)
(1.0071 0.0023716 -9.1892e-18)
(0.93422 0.0018068 -1.4103e-17)
(1.1165 0.076486 1.3984e-17)
(0.99999 3.8478e-05 4.5217e-18)
(1 -7.6216e-05 2.3503e-18)
(1 -9.564e-05 -3.8611e-17)
(1.0001 -0.00017583 1.5778e-17)
(1.0001 -0.0001396 -1.2187e-17)
(1.0001 -0.00012462 2.2779e-17)
(1 3.5833e-05 1.4255e-17)
(0.99984 0.00030414 2.512e-18)
(0.99739 0.00090808 5.4458e-19)
(1.0087 0.0028864 1.4561e-18)
(0.93095 0.00095136 4.4879e-18)
(1.1076 0.076871 -7.2947e-19)
(0.99999 4.2895e-05 -2.4826e-18)
(1 -8.4902e-05 -7.7081e-18)
(1 -0.00010552 9.4647e-18)
(1.0001 -0.00019551 -2.7839e-18)
(1.0001 -0.00015394 1.8812e-18)
(1.0001 -0.00013964 -2.4965e-17)
(1 4.1078e-05 -3.2831e-17)
(0.99988 0.00033263 -3.1907e-17)
(0.99696 0.00097931 1.6135e-17)
(1.0102 0.003451 1.8916e-18)
(0.92897 8.4466e-06 -1.1383e-17)
(1.0969 0.076599 -6.0327e-18)
(0.99998 4.7384e-05 3.4266e-18)
(1 -9.3724e-05 2.9115e-18)
(1 -0.00011536 4.5613e-18)
(1.0001 -0.00021545 -2.2186e-18)
(1.0001 -0.00016822 -5.6392e-18)
(1.0002 -0.00015513 9.4422e-18)
(1 4.6627e-05 1.9005e-17)
(0.99993 0.00036058 1.9711e-17)
(0.99652 0.0010398 1.0369e-17)
(1.0117 0.0040596 -2.3883e-17)
(0.92823 -0.0009861 1.194e-19)
(1.0851 0.075836 -6.9922e-18)
(0.99998 5.1945e-05 -3.426e-18)
(1 -0.00010268 5.7254e-18)
(1 -0.00012518 8.2697e-18)
(1.0001 -0.00023564 5.7931e-18)
(1.0001 -0.00018244 -5.2302e-18)
(1.0002 -0.00017113 4.6418e-18)
(1.0001 5.2498e-05 4.3337e-18)
(0.99999 0.00038804 -1.7602e-18)
(0.99606 0.0010887 -1.6758e-17)
(1.013 0.0047055 2.2149e-17)
(0.9286 -0.0019994 1.0645e-19)
(1.073 0.074717 1.4933e-18)
(0.99998 5.6579e-05 5.2099e-18)
(1 -0.00011179 -4.4692e-18)
(1 -0.00013497 7.2385e-19)
(1.0001 -0.00025612 -4.8327e-18)
(1.0001 -0.00019659 1.1878e-17)
(1.0002 -0.00018768 5.6636e-18)
(1.0001 5.8707e-05 1.7437e-17)
(1.0001 0.00041505 -6.5369e-18)
(0.99559 0.0011253 -2.0481e-19)
(1.0142 0.0053809 5.4417e-18)
(0.92995 -0.0030022 1.7279e-17)
(1.061 0.073348 9.523e-19)
(0.99997 6.1286e-05 1.2565e-18)
(1 -0.00012104 9.9188e-18)
(1 -0.00014473 1.3828e-17)
(1.0001 -0.00027688 -4.8184e-18)
(1.0002 -0.00021068 8.6007e-18)
(1.0002 -0.00020483 -2.6439e-18)
(1.0001 6.5276e-05 -3.054e-17)
(1.0002 0.00044166 2.0691e-17)
(0.99511 0.0011493 -1.8903e-17)
(1.0153 0.0060776 -3.1384e-17)
(0.93212 -0.0039693 -3.7934e-18)
(1.0494 0.071814 8.8298e-19)
(0.99997 6.6066e-05 -3.2056e-18)
(1 -0.00013043 -1.0549e-17)
(1 -0.00015447 -3.319e-17)
(1.0001 -0.00029794 8.1179e-18)
(1.0002 -0.0002247 -1.3052e-17)
(1.0002 -0.00022262 8.477e-18)
(1.0001 7.2227e-05 -2.8575e-18)
(1.0003 0.00046788 -1.2455e-17)
(0.99465 0.0011606 4.1488e-18)
(1.0161 0.0067874 1.8742e-17)
(0.93495 -0.0048796 -7.9602e-18)
(1.0385 0.070181 1.2316e-17)
(0.99997 7.0918e-05 3.3728e-19)
(0.99999 -0.00013998 7.8893e-18)
(1 -0.00016418 2.2914e-17)
(1.0001 -0.00031931 -1.8283e-18)
(1.0002 -0.00023865 -1.2966e-17)
(1.0002 -0.00024111 -1.5797e-17)
(1.0001 7.9583e-05 1.0915e-17)
(1.0004 0.00049369 7.1429e-18)
(0.99419 0.0011595 2.3994e-17)
(1.0168 0.0075019 -2.625e-18)
(0.93828 -0.0057165 1.9779e-18)
(1.0286 0.0685 -4.9132e-18)
(0.99996 7.5842e-05 -1.8923e-18)
(0.99999 -0.00014969 -9.5593e-18)
(1 -0.00017387 -1.0339e-17)
(1.0001 -0.00034101 6.1096e-18)
(1.0002 -0.00025252 -7.2818e-18)
(1.0003 -0.00026033 -1.2671e-17)
(1.0001 8.7369e-05 1.0611e-17)
(1.0005 0.00051907 -4.8459e-18)
(0.99375 0.0011464 -2.9699e-17)
(1.0173 0.0082132 -1.4714e-17)
(0.94197 -0.0064676 8.5829e-18)
(1.0197 0.066808 -5.3353e-18)
(0.99996 8.0837e-05 -2.7096e-18)
(0.99999 -0.00015955 -3.6129e-18)
(1 -0.00018354 -7.6626e-19)
(1.0001 -0.00036305 -2.6754e-17)
(1.0002 -0.0002663 6.1101e-18)
(1.0003 -0.00028036 5.5176e-18)
(1.0001 9.561e-05 -2.0163e-17)
(1.0007 0.00054397 -1.6544e-17)
(0.99332 0.0011218 4.3415e-18)
(1.0176 0.0089137 -1.1085e-18)
(0.94586 -0.0071246 -9.9111e-18)
(1.0119 0.065134 1.0087e-18)
(0.99995 8.5904e-05 3.5244e-18)
(0.99999 -0.00016958 1.6563e-17)
(1 -0.00019319 1.973e-17)
(1.0002 -0.00038544 2.5196e-18)
(1.0002 -0.00028 1.689e-17)
(1.0003 -0.00030124 9.669e-18)
(1.0001 0.00010433 2.9103e-18)
(1.0008 0.00056831 1.8107e-17)
(0.99292 0.0010865 2.1587e-17)
(1.0178 0.0095966 1.7573e-17)
(0.94985 -0.007683 7.3958e-18)
(1.0052 0.063495 1.1984e-18)
(0.99995 9.1041e-05 -1.6798e-18)
(0.99998 -0.00017977 -3.974e-18)
(1 -0.00020283 -2.102e-17)
(1.0002 -0.0004082 -2.3855e-18)
(1.0002 -0.00029361 -1.2801e-17)
(1.0003 -0.00032303 -5.2314e-18)
(1.0001 0.00011354 -1.8677e-18)
(1.001 0.00059198 -1.6373e-17)
(0.99255 0.0010414 -2.0647e-17)
(1.0178 0.010256 9.0092e-18)
(0.95384 -0.0081415 5.0684e-19)
(0.99962 0.061906 6.8863e-19)
(0.99994 9.6247e-05 4.4526e-18)
(0.99998 -0.00019013 -5.1919e-18)
(1 -0.00021245 -1.9714e-17)
(1.0002 -0.00043135 4.5353e-17)
(1.0002 -0.00030711 1.8568e-17)
(1.0004 -0.0003458 -1.2801e-17)
(1 0.00012326 2.5111e-17)
(1.0012 0.0006149 2.2127e-17)
(0.99221 0.0009874 3.3509e-17)
(1.0177 0.010886 -3.3024e-17)
(0.95773 -0.0085016 -1.3582e-17)
(0.995 0.060374 1.8213e-19)
(0.99994 0.00010152 -3.2592e-18)
(0.99998 -0.00020066 -1.0418e-18)
(1 -0.00022206 3.3657e-17)
(1.0002 -0.0004549 -3.4284e-17)
(1.0002 -0.00032052 -1.7876e-18)
(1.0004 -0.00036961 4.2414e-17)
(1 0.00013348 7.7817e-18)
(1.0013 0.00063693 -3.4179e-18)
(0.99191 0.00092539 -2.0784e-17)
(1.0176 0.011483 3.892e-17)
(0.96147 -0.0087674 -5.7525e-18)
(0.99129 0.058902 -2.8882e-19)
(0.99993 0.00010686 -1.6614e-18)
(0.99997 -0.00021136 -2.0759e-18)
(1 -0.00023166 1.7523e-18)
(1.0002 -0.00047886 3.5667e-17)
(1.0002 -0.00033381 -1.0077e-17)
(1.0004 -0.00039453 -3.135e-17)
(1 0.00014419 -1.9841e-17)
(1.0015 0.00065795 -3.6803e-18)
(0.99163 0.00085628 6.5741e-18)
(1.0173 0.012043 -3.2838e-17)
(0.965 -0.0089444 9.6357e-18)
(0.98841 0.057492 3.135e-18)
(0.99992 0.00011226 2.7456e-18)
(0.99997 -0.00022224 1.4449e-17)
(1 -0.00024126 -1.2926e-17)
(1.0002 -0.00050326 -3.7346e-18)
(1.0003 -0.00034699 -1.9339e-17)
(1.0005 -0.0004206 3.4106e-17)
(1 0.00015535 -1.7417e-17)
(1.0017 0.00067785 1.5256e-17)
(0.99139 0.00078087 -2.026e-18)
(1.017 0.012564 3.0789e-17)
(0.9683 -0.00904 -9.4016e-18)
(0.98626 0.056142 -5.2317e-18)
(0.99992 0.00011773 -5.2659e-19)
(0.99996 -0.00023329 -8.3099e-18)
(1 -0.00025086 -1.8098e-17)
(1.0002 -0.00052811 -1.0233e-17)
(1.0003 -0.00036005 1.8758e-17)
(1.0005 -0.00044791 -4.3491e-17)
(0.99998 0.00016691 -2.6873e-18)
(1.0019 0.00069651 -2.0612e-17)
(0.99119 0.00069991 3.2751e-18)
(1.0166 0.013043 -8.8808e-18)
(0.97135 -0.0090619 1.0007e-17)
(0.98473 0.054849 2.2205e-18)
(0.99991 0.00012326 2.7585e-18)
(0.99996 -0.00024453 -8.9012e-18)
(1 -0.00026047 -1.7877e-18)
(1.0002 -0.00055342 2.4864e-18)
(1.0003 -0.00037299 5.9368e-18)
(1.0005 -0.0004765 1.2567e-17)
(0.99995 0.00017877 4.4061e-17)
(1.0022 0.00071384 2.4633e-18)
(0.99102 0.00061404 5.3386e-18)
(1.0162 0.013481 9.7896e-18)
(0.97413 -0.0090188 -8.5584e-18)
(0.98373 0.05361 1.7076e-18)
(0.9999 0.00012884 -1.5818e-18)
(0.99995 -0.00025596 8.893e-18)
(1 -0.00027008 2.5725e-17)
(1.0002 -0.00057922 -2.5052e-17)
(1.0003 -0.00038581 -9.2345e-18)
(1.0006 -0.00050644 -2.2112e-18)
(0.99992 0.00019081 -1.4523e-17)
(1.0024 0.00072973 1.9111e-18)
(0.99088 0.0005238 -9.2479e-18)
(1.0158 0.013876 -3.5977e-18)
(0.97667 -0.0089192 -2.4208e-19)
(0.98318 0.052422 -2.086e-18)
(0.9999 0.00013447 -1.7e-18)
(0.99995 -0.00026756 5.3229e-18)
(1 -0.00027971 -6.223e-19)
(1.0002 -0.00060552 8.3072e-18)
(1.0003 -0.00039851 -1.7038e-17)
(1.0006 -0.00053777 2.5019e-17)
(0.99989 0.00020286 7.2436e-18)
(1.0026 0.00074412 -1.8231e-17)
(0.99077 0.00042964 -1.1864e-17)
(1.0154 0.014231 -1.4245e-17)
(0.97895 -0.0087716 1.3563e-18)
(0.98298 0.05128 -3.8272e-18)
(0.99989 0.00014016 5.9076e-19)
(0.99994 -0.00027936 -1.2712e-17)
(1 -0.00028935 1.5929e-17)
(1.0002 -0.00063233 2.2976e-17)
(1.0003 -0.0004111 3.3396e-17)
(1.0007 -0.00057054 -1.8374e-17)
(0.99986 0.00021473 -1.801e-17)
(1.0028 0.00075696 3.6996e-18)
(0.9907 0.0003319 1.1117e-17)
(1.0151 0.014545 1.1151e-17)
(0.98101 -0.0085841 6.3148e-18)
(0.98307 0.050181 3.804e-18)
(0.99988 0.00014589 1.1321e-18)
(0.99994 -0.00029134 1.0109e-17)
(1 -0.00029903 -3.6597e-17)
(1.0002 -0.00065968 -3.3292e-18)
(1.0003 -0.0004236 -2.7741e-17)
(1.0007 -0.0006048 -1.1574e-17)
(0.99982 0.00022617 2.5346e-20)
(1.0031 0.0007682 -4.2321e-18)
(0.99066 0.00023086 -2.1914e-17)
(1.0147 0.01482 -1.7803e-17)
(0.98285 -0.0083643 -8.6259e-18)
(0.98337 0.049121 -1.8774e-18)
(0.99987 0.00015167 -7.3379e-19)
(0.99993 -0.00030352 -6.574e-18)
(1 -0.00030874 2.8794e-17)
(1.0002 -0.00068759 -3.1765e-17)
(1.0003 -0.00043602 -2.086e-18)
(1.0008 -0.00064057 2.4647e-17)
(0.99978 0.00023688 7.2059e-19)
(1.0033 0.00077784 4.0356e-18)
(0.99064 0.00012674 1.9183e-17)
(1.0143 0.015059 2.3142e-17)
(0.9845 -0.0081192 4.9345e-18)
(0.98385 0.048096 -1.0503e-18)
(0.99986 0.00015748 -1.9102e-18)
(0.99993 -0.00031588 -2.4243e-18)
(1 -0.0003185 -1.2765e-17)
(1.0003 -0.00071607 1.5824e-17)
(1.0003 -0.00044839 3.0487e-17)
(1.0008 -0.00067788 -1.0893e-17)
(0.99974 0.00024653 2.2429e-17)
(1.0035 0.00078586 3.0249e-18)
(0.99066 1.9717e-05 -2.1748e-18)
(1.014 0.015263 1.0468e-17)
(0.98598 -0.0078547 -5.5162e-18)
(0.98445 0.047103 -7.3353e-19)
(0.99985 0.00016332 4.7774e-19)
(0.99992 -0.00032844 -6.4111e-18)
(1 -0.00032831 4.7782e-18)
(1.0003 -0.00074513 -1.6127e-17)
(1.0003 -0.00046074 -3.2246e-17)
(1.0009 -0.00071676 6.8643e-18)
(0.99969 0.00025475 -3.2357e-17)
(1.0038 0.00079228 -6.9165e-18)
(0.9907 -9.0041e-05 7.0532e-18)
(1.0138 0.015436 -3.2857e-17)
(0.98731 -0.0075766 3.7759e-18)
(0.98514 0.046139 2.0646e-18)
(0.99984 0.00016919 8.3892e-19)
(0.99991 -0.0003412 1.737e-17)
(1 -0.0003382 8.0003e-18)
(1.0003 -0.0007748 6.5693e-18)
(1.0003 -0.00047312 2.5785e-17)
(1.0009 -0.0007572 2.0466e-18)
(0.99965 0.0002611 2.2343e-17)
(1.004 0.00079714 4.9607e-18)
(0.99076 -0.00020236 -2.1444e-17)
(1.0135 0.01558 1.1312e-17)
(0.98851 -0.0072892 2.5538e-18)
(0.98589 0.045203 2.1438e-18)
(0.99983 0.00017508 -2.9292e-18)
(0.99991 -0.00035415 -5.7174e-18)
(0.99999 -0.00034817 -7.0292e-18)
(1.0003 -0.00080509 1.0788e-17)
(1.0003 -0.00048558 1.2456e-17)
(1.001 -0.00079923 -4.0758e-18)
(0.9996 0.00026516 -1.8768e-17)
(1.0043 0.00080046 2.2588e-17)
(0.99085 -0.00031707 3.9681e-18)
(1.0133 0.015697 -3.4167e-18)
(0.98961 -0.0069967 1.0569e-17)
(0.98667 0.044291 -1.4913e-18)
(0.99982 0.00018099 6.0189e-18)
(0.9999 -0.00036729 6.8468e-18)
(0.99999 -0.00035824 -7.4717e-18)
(1.0003 -0.00083603 -6.7201e-18)
(1.0003 -0.00049819 -1.7874e-17)
(1.001 -0.00084283 -7.0002e-18)
(0.99956 0.00026644 9.2531e-18)
(1.0045 0.00080229 -3.6231e-17)
(0.99096 -0.00043393 9.7222e-18)
(1.0131 0.015789 -4.0385e-18)
(0.9906 -0.0067023 -1.1193e-17)
(0.98747 0.043402 4.3355e-18)
(0.99981 0.0001869 -2.6564e-18)
(0.99989 -0.00038063 -1.203e-17)
(0.99998 -0.00036842 -7.2411e-18)
(1.0003 -0.00086761 -1.2752e-17)
(1.0003 -0.00051104 -5.4571e-18)
(1.0011 -0.000888 2.0582e-17)
(0.99951 0.00026446 -9.0896e-18)
(1.0047 0.00080271 4.0306e-17)
(0.99109 -0.0005527 9.1708e-18)
(1.0129 0.015861 1.2255e-17)
(0.99152 -0.0064086 4.7186e-18)
(0.98826 0.042535 -7.0346e-18)
(0.9998 0.00019281 -1.409e-18)
(0.99988 -0.00039417 8.9461e-18)
(0.99997 -0.00037875 1.4347e-17)
(1.0003 -0.00089987 3.4382e-17)
(1.0003 -0.00052422 7.2336e-18)
(1.0012 -0.00093475 -1.4118e-17)
(0.99947 0.00025874 4.3864e-18)
(1.0049 0.00080177 -4.3364e-17)
(0.99123 -0.00067307 -1.1126e-17)
(1.0128 0.015913 -6.8136e-18)
(0.99237 -0.0061178 4.6316e-18)
(0.98906 0.041688 7.0795e-18)
(0.99979 0.00019871 1.0783e-18)
(0.99988 -0.00040791 2.1177e-18)
(0.99997 -0.00038924 -1.4089e-17)
(1.0003 -0.00093283 -5.727e-18)
(1.0003 -0.00053784 9.1842e-18)
(1.0012 -0.00098304 1.6898e-17)
(0.99943 0.0002488 1.5253e-17)
(1.0052 0.00079957 4.2916e-18)
(0.99139 -0.00079472 1.2449e-17)
(1.0126 0.015947 -3.1567e-18)
(0.99317 -0.0058314 -8.2682e-18)
(0.98984 0.04086 -1.8249e-18)
(0.99978 0.00020459 -4.4163e-20)
(0.99987 -0.00042185 2.4135e-18)
(0.99996 -0.00039992 3.1489e-18)
(1.0003 -0.00096649 -7.4346e-18)
(1.0003 -0.00055204 8.5238e-20)
(1.0013 -0.0010329 -1.5321e-17)
(0.99939 0.00023418 -1.0317e-17)
(1.0054 0.00079619 3.1757e-17)
(0.99157 -0.00091728 -1.8816e-17)
(1.0125 0.015966 1.2258e-17)
(0.99392 -0.0055508 4.3679e-18)
(0.9906 0.04005 -5.165e-18)
(0.99977 0.00021045 -3.3397e-18)
(0.99986 -0.000436 -1.1319e-17)
(0.99995 -0.00041083 8.0388e-18)
(1.0003 -0.0010009 -2.0304e-17)
(1.0003 -0.00056694 -2.3225e-17)
(1.0014 -0.0010843 -2.1165e-17)
(0.99935 0.00021447 -2.1026e-17)
(1.0056 0.00079172 -3.252e-18)
(0.99175 -0.0010403 1.6445e-17)
(1.0124 0.015972 -1.0514e-17)
(0.99463 -0.0052768 4.3485e-19)
(0.99134 0.039257 4.8676e-18)
(0.99975 0.00021627 6.446e-18)
(0.99985 -0.00045035 1.1829e-17)
(0.99994 -0.00042199 -1.2964e-17)
(1.0004 -0.001036 1.667e-17)
(1.0003 -0.00058273 -2.7231e-18)
(1.0015 -0.0011372 1.3873e-17)
(0.99932 0.00018929 2.5273e-17)
(1.0058 0.00078629 -2.4637e-17)
(0.99195 -0.0011635 -8.3399e-18)
(1.0124 0.015966 1.1102e-17)
(0.99531 -0.0050101 3.7784e-18)
(0.99205 0.038481 -2.3044e-18)
(0.99974 0.00022205 -4.8367e-18)
(0.99984 -0.00046491 -3.4961e-18)
(0.99993 -0.00043345 -2.7104e-18)
(1.0004 -0.001072 1.9073e-17)
(1.0003 -0.00059956 -5.8298e-18)
(1.0015 -0.0011916 -1.7579e-19)
(0.99929 0.00015832 -4.9454e-18)
(1.006 0.00078 1.9735e-17)
(0.99216 -0.0012863 -7.9199e-18)
(1.0123 0.015949 -7.6234e-18)
(0.99597 -0.004751 -1.117e-17)
(0.99275 0.03772 2.6815e-18)
(0.99973 0.00022777 3.2877e-18)
(0.99983 -0.00047969 -4.4328e-18)
(0.99993 -0.00044525 6.2053e-18)
(1.0004 -0.0011087 -2.894e-17)
(1.0003 -0.00061762 3.9498e-17)
(1.0016 -0.0012476 5.7475e-18)
(0.99927 0.00012132 1.9512e-17)
(1.0062 0.00077299 -1.2212e-17)
(0.99238 -0.0014083 1.0375e-19)
(1.0122 0.015922 5.6685e-18)
(0.9966 -0.0044999 -2.1763e-18)
(0.99342 0.036975 -1.0086e-18)
(0.99971 0.00023342 -9.4052e-19)
(0.99982 -0.00049469 8.6643e-19)
(0.99992 -0.00045744 1.5118e-17)
(1.0004 -0.0011463 7.8896e-18)
(1.0003 -0.00063711 -1.9746e-17)
(1.0017 -0.0013051 -1.1258e-17)
(0.99925 7.8131e-05 3.4065e-18)
(1.0064 0.00076539 -5.9375e-18)
(0.9926 -0.0015292 1.3251e-17)
(1.0122 0.015887 -3.7212e-18)
(0.99721 -0.0042568 1.0464e-17)
(0.99407 0.036245 -3.6875e-18)
(0.9997 0.00023899 -1.637e-18)
(0.99981 -0.00050992 -8.3521e-18)
(0.99991 -0.00047007 -4.4953e-18)
(1.0004 -0.0011847 3.1681e-17)
(1.0003 -0.00065823 -1.7591e-17)
(1.0018 -0.001364 -9.5352e-19)
(0.99923 2.8659e-05 -5.0948e-17)
(1.0066 0.00075735 5.8358e-18)
(0.99283 -0.0016485 -2.4783e-17)
(1.0121 0.015845 -8.0353e-18)
(0.9978 -0.0040218 -1.047e-17)
(0.9947 0.035529 2.1898e-18)
(0.99968 0.00024447 -7.0667e-19)
(0.9998 -0.00052539 5.1745e-18)
(0.9999 -0.0004832 -1.8557e-18)
(1.0004 -0.0012241 -1.8447e-17)
(1.0003 -0.00068119 2.528e-17)
(1.0019 -0.0014245 -2.3439e-18)
(0.99923 -2.7095e-05 2.6987e-17)
(1.0068 0.00074901 -3.588e-18)
(0.99306 -0.001766 1.2032e-17)
(1.0121 0.015795 1.0049e-17)
(0.99837 -0.0037948 8.6373e-18)
(0.9953 0.034827 -5.3064e-19)
(0.99967 0.00024985 4.0059e-18)
(0.99979 -0.00054111 -3.0959e-18)
(0.99988 -0.00049691 -6.491e-18)
(1.0004 -0.0012644 2.0132e-17)
(1.0003 -0.0007062 1.855e-18)
(1.002 -0.0014865 2.906e-17)
(0.99922 -8.9043e-05 4.6552e-18)
(1.007 0.0007405 1.7142e-17)
(0.9933 -0.0018813 4.5141e-18)
(1.0121 0.015739 -3.2515e-18)
(0.99893 -0.0035757 1.1248e-18)
(0.99589 0.034139 4.798e-19)
(0.99965 0.0002551 1.1421e-18)
(0.99978 -0.0005571 1.2659e-18)
(0.99987 -0.00051124 -5.8856e-18)
(1.0004 -0.0013057 -4.0093e-17)
(1.0003 -0.00073347 5.6175e-18)
(1.002 -0.0015499 2.5202e-18)
(0.99923 -0.00015701 -2.0185e-17)
(1.0071 0.00073199 2.4123e-19)
(0.99353 -0.0019941 1.3303e-17)
(1.012 0.015677 -2.0903e-18)
(0.99948 -0.0033644 -5.4764e-18)
(0.99646 0.033464 2.8328e-18)
(0.99964 0.00026022 -4.8911e-18)
(0.99977 -0.00057337 5.3649e-18)
(0.99986 -0.00052628 9.7049e-19)
(1.0004 -0.001348 2.2263e-17)
(1.0003 -0.00076319 -2.5626e-17)
(1.0021 -0.0016148 -1.1132e-17)
(0.99923 -0.00023075 2.0645e-17)
(1.0073 0.0007236 -1.1611e-17)
(0.99377 -0.0021043 -2.103e-17)
(1.012 0.015609 -1.0329e-17)
(1 -0.0031607 6.9766e-18)
(0.99701 0.032803 9.4634e-19)
(0.99962 0.00026518 -5.1752e-19)
(0.99975 -0.00058994 -5.3986e-18)
(0.99985 -0.0005421 1.0333e-17)
(1.0005 -0.0013915 9.871e-18)
(1.0003 -0.00079554 3.165e-17)
(1.0022 -0.0016811 4.2763e-18)
(0.99925 -0.00030994 1.8337e-17)
(1.0075 0.00071546 2.9438e-17)
(0.99401 -0.0022116 -9.2937e-19)
(1.012 0.015536 1.8168e-17)
(1.0005 -0.0029645 -7.3771e-19)
(0.99755 0.032154 -2.7581e-18)
(0.9996 0.00026999 5.0163e-18)
(0.99974 -0.00060684 -7.8596e-18)
(0.99984 -0.00055879 -1.5683e-17)
(1.0005 -0.0014361 -2.6238e-18)
(1.0003 -0.00083069 -3.4351e-17)
(1.0023 -0.0017487 -1.2724e-17)
(0.99926 -0.00039419 -6.3651e-18)
(1.0076 0.00070769 2.2025e-19)
(0.99425 -0.0023161 2.7369e-17)
(1.0119 0.015458 4.1864e-18)
(1.001 -0.0027756 -9.5831e-18)
(0.99807 0.031518 1.6563e-18)
(0.99958 0.00027461 -5.6237e-18)
(0.99973 -0.00062409 9.8181e-18)
(0.99982 -0.00057641 8.2097e-18)
(1.0005 -0.0014818 -5.2282e-18)
(1.0003 -0.00086879 2.7624e-17)
(1.0024 -0.0018176 1.5222e-17)
(0.99929 -0.00048306 -5.0315e-18)
(1.0077 0.00070038 -2.9666e-17)
(0.9945 -0.0024175 -9.3035e-19)
(1.0119 0.015375 -1.1963e-17)
(1.0015 -0.0025938 1.1347e-17)
(0.99858 0.030893 -2.169e-18)
(0.99957 0.00027903 3.3792e-18)
(0.99972 -0.00064171 -1.8786e-18)
(0.99981 -0.00059507 1.087e-17)
(1.0005 -0.0015289 -2.1995e-17)
(1.0003 -0.00090996 9.0192e-18)
(1.0025 -0.0018876 -5.4684e-18)
(0.99931 -0.00057606 -1.0841e-17)
(1.0079 0.0006936 -2.3812e-18)
(0.99474 -0.002516 -3.3029e-17)
(1.0119 0.015288 7.8927e-18)
(1.002 -0.0024191 -1.0395e-17)
(0.99907 0.030281 7.243e-19)
(0.99955 0.00028324 2.6715e-19)
(0.9997 -0.00065974 -5.9098e-18)
(0.9998 -0.00061483 6.1722e-18)
(1.0005 -0.0015772 2.8949e-17)
(1.0003 -0.00095427 -2.1483e-17)
(1.0026 -0.0019586 1.7591e-17)
(0.99934 -0.00067269 -6.2681e-18)
(1.008 0.00068742 5.5144e-18)
(0.99498 -0.0026115 3.9241e-17)
(1.0119 0.015196 -1.4652e-17)
(1.0025 -0.0022511 1.5895e-17)
(0.99955 0.029681 2.0501e-18)
(0.99953 0.00028721 4.7948e-19)
(0.99969 -0.0006782 -1.2229e-18)
(0.99978 -0.00063577 -8.88e-18)
(1.0005 -0.0016269 -4.3582e-18)
(1.0003 -0.0010018 1.8722e-17)
(1.0026 -0.0020305 1.3976e-19)
(0.99938 -0.00077243 -1.232e-17)
(1.0081 0.00068185 -1.3164e-17)
(0.99521 -0.002704 -1.6426e-17)
(1.0118 0.015099 -1.3835e-18)
(1.003 -0.0020898 2.9156e-18)
(1 0.029092 2.1606e-19)
(0.99951 0.00029093 -7.7164e-19)
(0.99967 -0.00069713 1.4555e-17)
(0.99977 -0.00065798 -5.9225e-18)
(1.0005 -0.0016779 -2.4628e-17)
(1.0003 -0.0010525 8.6304e-18)
(1.0027 -0.0021031 -4.4817e-17)
(0.99941 -0.00087474 6.1459e-18)
(1.0083 0.00067692 8.2891e-18)
(0.99545 -0.0027937 7.6303e-19)
(1.0118 0.014998 1.4882e-17)
(1.0034 -0.0019351 -9.6842e-19)
(1.0005 0.028514 -5.7313e-18)
(0.99949 0.00029439 -2.0373e-19)
(0.99966 -0.00071655 -2.8567e-19)
(0.99975 -0.00068152 7.9725e-18)
(1.0006 -0.0017303 1.5204e-17)
(1.0003 -0.0011064 -3.4293e-17)
(1.0028 -0.0021763 1.9361e-18)
(0.99945 -0.00097911 1.1008e-17)
(1.0084 0.00067258 1.2982e-17)
(0.99569 -0.0028808 -1.0388e-17)
(1.0118 0.014893 -1.449e-17)
(1.0039 -0.0017868 -1.5783e-17)
(1.0009 0.027947 6.0549e-18)
(0.99947 0.00029756 -1.333e-18)
(0.99964 -0.0007365 4.0669e-19)
(0.99974 -0.00070646 -3.844e-18)
(1.0006 -0.0017841 -1.0151e-17)
(1.0003 -0.0011635 1.9009e-17)
(1.0029 -0.0022498 2.4056e-17)
(0.99949 -0.001085 3.2103e-18)
(1.0085 0.00066881 6.578e-18)
(0.99592 -0.0029652 1.6569e-17)
(1.0118 0.014783 2.4385e-18)
(1.0043 -0.0016447 1.1675e-17)
(1.0014 0.02739 -3.6758e-18)
(0.99944 0.00030043 2.4534e-18)
(0.99963 -0.00075701 7.4982e-19)
(0.99972 -0.00073285 -5.4933e-18)
(1.0006 -0.0018393 1.4997e-18)
(1.0003 -0.0012235 -1.0306e-17)
(1.003 -0.0023235 -5.7702e-18)
(0.99953 -0.001192 -1.1866e-18)
(1.0086 0.00066551 -2.9703e-17)
(0.99616 -0.0030472 3.2523e-18)
(1.0118 0.014669 -4.9452e-18)
(1.0047 -0.0015088 -4.7481e-18)
(1.0018 0.026845 -4.4335e-18)
(0.99942 0.00030298 -5.0068e-18)
(0.99961 -0.00077811 9.796e-19)
(0.9997 -0.00076073 2.9137e-18)
(1.0006 -0.0018959 -1.8843e-17)
(1.0003 -0.0012865 -1.1749e-17)
(1.0031 -0.0023971 -2.6787e-17)
(0.99958 -0.0012997 5.7261e-18)
(1.0087 0.00066261 1.2129e-17)
(0.99639 -0.0031269 -3.4878e-17)
(1.0117 0.014551 2.2802e-17)
(1.0051 -0.001379 -5.1387e-18)
(1.0022 0.026309 2.8585e-18)
(0.9994 0.0003052 4.5959e-18)
(0.99959 -0.00079981 2.1923e-18)
(0.99969 -0.00079013 1.1205e-18)
(1.0006 -0.0019538 5.9767e-18)
(1.0003 -0.0013522 -2.5946e-18)
(1.0031 -0.0024704 5.1919e-17)
(0.99962 -0.0014076 2.0558e-17)
(1.0088 0.00065997 -1.8863e-17)
(0.99663 -0.0032045 3.3569e-17)
(1.0117 0.014429 -8.5075e-18)
(1.0055 -0.001255 -3.3916e-18)
(1.0026 0.025783 -1.4276e-18)
(0.99937 0.00030708 1.1272e-18)
(0.99957 -0.00082215 -1.3883e-17)
(0.99967 -0.00082106 2.2425e-18)
(1.0006 -0.002013 2.6838e-17)
(1.0003 -0.0014204 2.0082e-17)
(1.0032 -0.0025432 -8.3857e-19)
(0.99966 -0.0015155 -2.8481e-17)
(1.0089 0.00065748 5.7126e-18)
(0.99686 -0.0032802 -7.5704e-18)
(1.0117 0.014302 -1.1776e-17)
(1.0059 -0.0011369 8.6267e-18)
(1.003 0.025268 1.3298e-18)
(0.99935 0.00030861 -4.4586e-18)
(0.99956 -0.00084513 -4.6279e-18)
(0.99965 -0.00085354 -1.2147e-17)
(1.0006 -0.0020734 -2.2508e-17)
(1.0003 -0.0014909 -2.0206e-17)
(1.0033 -0.0026153 -2.3594e-17)
(0.99971 -0.001623 5.2593e-18)
(1.0089 0.00065496 4.4401e-17)
(0.99709 -0.0033541 3.2995e-18)
(1.0117 0.014172 -1.0292e-18)
(1.0063 -0.0010244 -3.0468e-18)
(1.0034 0.024761 -3.5773e-18)
(0.99932 0.00030977 3.3084e-18)
(0.99954 -0.00086877 4.2993e-18)
(0.99963 -0.00088754 1.8719e-17)
(1.0006 -0.0021349 1.5588e-17)
(1.0003 -0.0015634 1.9658e-17)
(1.0034 -0.0026866 -8.77e-19)
(0.99975 -0.0017299 -2.9304e-17)
(1.009 0.00065227 -2.3999e-17)
(0.99732 -0.0034264 8.1886e-18)
(1.0117 0.014038 4.076e-18)
(1.0067 -0.00091761 6.8742e-18)
(1.0038 0.024264 2.7637e-18)
(0.9993 0.00031057 -2.3364e-18)
(0.99952 -0.00089307 6.744e-18)
(0.99961 -0.00092303 -1.2385e-17)
(1.0007 -0.0021974 2.2559e-18)
(1.0003 -0.0016377 9.1392e-18)
(1.0034 -0.0027567 -2.3063e-18)
(0.99979 -0.001836 6.5794e-18)
(1.0091 0.00064922 6.6637e-18)
(0.99755 -0.0034973 2.6954e-18)
(1.0117 0.013899 1.0078e-17)
(1.0071 -0.0008163 -8.2685e-18)
(1.0042 0.023777 5.5794e-19)
(0.99927 0.00031099 3.5274e-18)
(0.9995 -0.00091802 4.1795e-19)
(0.99959 -0.00095996 -5.7969e-18)
(1.0007 -0.0022608 8.9783e-19)
(1.0003 -0.0017136 -1.5021e-18)
(1.0035 -0.0028257 -2.2783e-17)
(0.99984 -0.0019412 1.837e-17)
(1.0092 0.00064563 2.3649e-17)
(0.99778 -0.003567 -1.3418e-17)
(1.0117 0.013757 -1.4025e-17)
(1.0074 -0.0007204 -2.4193e-18)
(1.0045 0.023298 4.7571e-18)
(0.99924 0.00031104 -2.5624e-18)
(0.99947 -0.00094362 -3.219e-19)
(0.99957 -0.00099828 7.2076e-18)
(1.0007 -0.0023249 -1.7248e-17)
(1.0003 -0.0017906 -1.3576e-17)
(1.0036 -0.0028933 2.8763e-17)
(0.99988 -0.0020453 -2.8092e-18)
(1.0092 0.00064132 -2.504e-17)
(0.998 -0.0036355 3.4184e-18)
(1.0117 0.013611 1.3205e-17)
(1.0078 -0.00062982 8.1994e-18)
(1.0049 0.022828 -1.7155e-18)
(0.99921 0.00031072 2.5461e-19)
(0.99945 -0.00096984 2.3576e-18)
(0.99955 -0.0010379 3.9381e-18)
(1.0007 -0.0023896 8.9166e-18)
(1.0003 -0.0018686 2.6609e-17)
(1.0036 -0.0029594 6.7059e-18)
(0.99992 -0.0021484 -2.4461e-17)
(1.0093 0.00063609 2.346e-18)
(0.99823 -0.0037031 8.8061e-18)
(1.0117 0.013461 -1.1899e-17)
(1.0081 -0.00054449 -5.5457e-18)
(1.0053 0.022366 -1.9852e-18)
(0.99918 0.00031003 7.2292e-19)
(0.99943 -0.00099665 -4.1016e-19)
(0.99953 -0.0010787 -1.0391e-17)
(1.0007 -0.0024548 -1.9174e-19)
(1.0003 -0.0019474 -5.2608e-17)
(1.0037 -0.003024 8.2679e-18)
(0.99996 -0.0022504 2.4028e-17)
(1.0094 0.00062977 -6.7409e-18)
(0.99846 -0.0037698 -9.2214e-18)
(1.0117 0.013308 1.9761e-17)
(1.0085 -0.00046431 6.6394e-18)
(1.0056 0.021913 5.1464e-18)
(0.99915 0.00030899 7.7653e-19)
(0.9994 -0.001024 -8.5101e-19)
(0.9995 -0.0011207 1.8791e-17)
(1.0007 -0.0025203 4.1123e-18)
(1.0003 -0.0020265 4.6618e-17)
(1.0038 -0.003087 -2.914e-17)
(1 -0.0023514 -8.0464e-18)
(1.0094 0.00062217 6.3438e-18)
(0.99869 -0.0038359 3.1778e-18)
(1.0117 0.013151 -1.1119e-17)
(1.0088 -0.0003892 -1.0736e-18)
(1.006 0.021467 -3.7951e-18)
(0.99912 0.00030759 -3.0348e-18)
(0.99938 -0.0010519 1.4287e-18)
(0.99948 -0.0011636 -1.1045e-17)
(1.0007 -0.002586 5.4071e-18)
(1.0003 -0.0021059 -1.7713e-17)
(1.0038 -0.0031484 3.9517e-18)
(1 -0.0024513 3.2217e-17)
(1.0095 0.00061312 -2.3742e-17)
(0.99891 -0.0039014 -1.168e-17)
(1.0117 0.012991 -1.1001e-17)
(1.0091 -0.0003191 -5.2825e-18)
(1.0063 0.02103 -1.0423e-18)
(0.99909 0.00030587 3.7801e-18)
(0.99935 -0.0010803 -3.3931e-18)
(0.99946 -0.0012074 -1.0717e-17)
(1.0007 -0.0026516 -8.6224e-18)
(1.0003 -0.0021853 -2.8959e-17)
(1.0039 -0.0032083 -1.8328e-17)
(1.0001 -0.0025504 -1.9754e-17)
(1.0095 0.00060243 2.2075e-17)
(0.99914 -0.0039664 1.1323e-17)
(1.0117 0.012827 1.6661e-17)
(1.0095 -0.00025391 -2.07e-18)
(1.0066 0.0206 5.0323e-18)
(0.99905 0.00030382 -6.0753e-18)
(0.99933 -0.0011091 5.4976e-18)
(0.99943 -0.0012519 2.6242e-17)
(1.0007 -0.002717 -2.0337e-18)
(1.0003 -0.0022645 3.2039e-17)
(1.0039 -0.0032666 1.3823e-18)
(1.0001 -0.0026487 -1.892e-17)
(1.0096 0.00058995 8.6383e-18)
(0.99936 -0.0040312 -4.0835e-18)
(1.0117 0.012659 -3.4886e-18)
(1.0098 -0.00019357 6.7147e-18)
(1.007 0.020178 -3.4031e-18)
(0.99902 0.00030148 4.9785e-18)
(0.9993 -0.0011382 -7.4713e-18)
(0.9994 -0.0012971 -3.0595e-17)
(1.0007 -0.0027821 1.3303e-17)
(1.0003 -0.0023433 -2.2825e-17)
(1.004 -0.0033234 2.5335e-17)
(1.0002 -0.0027463 6.1669e-18)
(1.0096 0.00057552 -8.2239e-18)
(0.99959 -0.0040956 -1.96e-18)
(1.0117 0.012489 -8.7391e-18)
(1.0101 -0.000138 -1.0952e-17)
(1.0073 0.019763 4.7055e-18)
(0.99898 0.00029886 -3.667e-18)
(0.99927 -0.0011677 2.4843e-18)
(0.99938 -0.0013427 1.859e-17)
(1.0007 -0.0028468 -1.7537e-17)
(1.0002 -0.0024217 3.6725e-17)
(1.004 -0.0033788 -1.9663e-17)
(1.0002 -0.0028433 3.595e-18)
(1.0097 0.00055899 -1.2996e-17)
(0.99981 -0.00416 6.3983e-18)
(1.0117 0.012315 -1.2234e-18)
(1.0104 -8.7144e-05 4.6869e-18)
(1.0076 0.019355 -2.0921e-18)
(0.99895 0.00029598 4.4974e-18)
(0.99924 -0.0011973 1.934e-18)
(0.99935 -0.0013887 -1.2393e-17)
(1.0007 -0.002911 -3.5639e-19)
(1.0002 -0.0024996 -1.622e-18)
(1.0041 -0.0034329 4.7556e-18)
(1.0002 -0.0029399 3.4137e-17)
(1.0097 0.00054024 8.8893e-18)
(1 -0.0042243 -1.8965e-17)
(1.0117 0.012138 -6.34e-18)
(1.0107 -4.093e-05 -4.4143e-18)
(1.0079 0.018955 2.1994e-18)
(0.99891 0.00029287 -5.1548e-18)
(0.99921 -0.0012272 -7.1669e-18)
(0.99932 -0.0014349 5.1995e-18)
(1.0007 -0.0029744 1.5172e-17)
(1.0002 -0.0025768 -3.3312e-17)