/*--------------------------------*- C++ -*----------------------------------*\
  =========                 |
  \\      /  F ield         | OpenFOAM: The Open Source CFD Toolbox
   \\    /   O peration     | Website:  https://openfoam.org
    \\  /    A nd           | Version:  6.0
     \\/     M anipulation  |
\*---------------------------------------------------------------------------*/
FoamFile
{
    version     2.0;
    format      ascii;
    class       surfaceScalarField;
    location    "13";
    object      phi;
}
// * * * * * * * * * * * * * * * * * * * * * * * * * * * * * * * * * * * * * //

dimensions      [0 3 -1 0 0 0 0];

internalField   nonuniform List<scalar> 
93586
(
2.34605e-05
0.00154658
2.89952e-08
4.7254e-05
0.00154192
7.11628e-05
0.00153312
9.50064e-05
0.00152025
0.000118643
0.00150332
0.00014199
0.00148236
0.000164979
0.00145737
0.000187561
0.0014284
0.000209679
0.00139546
0.000231272
0.00135865
0.000252268
0.00131807
0.000272594
0.00127387
0.000292182
0.00122618
0.000310965
0.00117515
0.00032889
0.00112092
0.000345903
0.00106361
0.000361961
0.00100335
0.000377018
0.000940297
0.000391036
0.0008746
0.000403976
0.000806439
0.000415801
0.000736003
0.000426477
0.000663494
0.000435975
0.000589118
0.000444265
0.000513084
0.000451324
0.000435589
0.000457134
0.000356833
0.000461651
0.000276983
0.000465133
0.000195956
0.000466829
0.000114155
3.29972e-05
0.000461156
2.31235e-05
0.00152349
-2.16412e-08
4.65145e-05
0.00151854
7.001e-05
0.00150964
9.34392e-05
0.00149684
0.000116673
0.0014801
0.00013964
0.00145942
0.000162275
0.00143476
0.000184528
0.00140617
0.000206335
0.00137368
0.000227625
0.00133739
0.00024832
0.0012974
0.000268347
0.00125387
0.000287637
0.00120691
0.000306129
0.00115668
0.000323771
0.0011033
0.000340516
0.00104688
0.000356323
0.00098757
0.00037115
0.000925496
0.000384958
0.00086082
0.000397708
0.000793718
0.000409364
0.000724378
0.000419892
0.000652999
0.00042926
0.000579784
0.00043744
0.00050494
0.000444408
0.000428662
0.000450147
0.000351136
0.000454609
0.000272569
0.000457817
0.000192799
0.000459478
0.000112554
3.36143e-05
0.000458938
2.27404e-05
0.00150081
-5.15743e-08
4.57136e-05
0.00149557
6.87981e-05
0.00148656
9.18346e-05
0.00147381
0.000114702
0.00145724
0.00013733
0.0014368
0.000159648
0.00141245
0.000181596
0.00138423
0.000203102
0.00135218
0.000224089
0.00131641
0.000244478
0.00127702
0.000264198
0.00123415
0.000283186
0.00118793
0.000301385
0.00113849
0.000318749
0.00108594
0.000335234
0.0010304
0.0003508
0.000972005
0.000365405
0.000910891
0.000379011
0.000847214
0.000391577
0.000781151
0.000403068
0.000712886
0.000413447
0.000642617
0.000422685
0.000570544
0.00043075
0.00049687
0.000437619
0.000421787
0.00044327
0.000345477
0.000447669
0.00026816
0.000450738
0.000189717
0.000452494
0.000110784
3.3757e-05
0.000452317
2.23474e-05
0.00147853
-6.10721e-08
4.49223e-05
0.00147301
6.76216e-05
0.00146387
9.02936e-05
0.00145116
0.00011282
0.00143473
0.000135125
0.00141452
0.000157133
0.00139047
0.000178773
0.00136262
0.000199969
0.00133101
0.000220641
0.00129576
0.000240714
0.00125697
0.000260122
0.00121477
0.000278805
0.00116927
0.000296714
0.0011206
0.000313805
0.00106887
0.000330036
0.00101419
0.000345366
0.000956701
0.000359755
0.000896528
0.000373162
0.000833835
0.000385546
0.000768794
0.000396871
0.00070159
0.000407101
0.000632417
0.000416205
0.000561474
0.000424151
0.000488956
0.000430916
0.00041506
0.00043647
0.000339962
0.000440788
0.000263886
0.000443792
0.00018676
0.000445512
0.000109118
3.3809e-05
0.000445532
2.19667e-05
0.00145662
-5.5773e-08
4.41701e-05
0.00145081
6.65089e-05
0.00144153
8.88354e-05
0.00142884
0.000111032
0.00141254
0.000133016
0.00139254
0.000154708
0.00136878
0.00017603
0.0013413
0.000196904
0.00131014
0.000217253
0.00127541
0.000237006
0.00123722
0.0002561
0.00119567
0.000274482
0.00115089
0.000292107
0.00110298
0.000308931
0.00105204
0.000324913
0.000998209
0.000340014
0.000941597
0.00035419
0.000882348
0.000367402
0.000820619
0.000379607
0.000756583
0.000390769
0.000690422
0.00040085
0.000622327
0.000409821
0.000552495
0.000417649
0.000481117
0.000424311
0.000408387
0.000429775
0.000334483
0.000434017
0.000259628
0.000436963
0.000183794
0.000438689
0.000107369
3.33452e-05
0.000439111
2.16023e-05
0.00143507
-4.22157e-08
4.34555e-05
0.00142897
6.5451e-05
0.00141955
8.7443e-05
0.00140686
0.000109313
0.00139069
0.000130974
0.0013709
0.000152343
0.00134743
0.000173339
0.00132033
0.000193887
0.00128962
0.000213911
0.00125542
0.000233344
0.00121781
0.00025213
0.00117691
0.00027022
0.00113282
0.000287568
0.00108565
0.000304134
0.0010355
0.000319875
0.000982491
0.000334753
0.000926744
0.000348722
0.000868402
0.000361742
0.000807624
0.000373771
0.000744579
0.000384772
0.000679449
0.000394708
0.000612419
0.000403548
0.000543685
0.000411261
0.000473435
0.000417823
0.000401859
0.000423203
0.000329139
0.000427378
0.000255493
0.000430278
0.000180939
0.000431985
0.000105712
3.27652e-05
0.000432635
2.1253e-05
0.00141385
-2.69854e-08
4.27707e-05
0.00140745
6.44337e-05
0.00139788
8.6097e-05
0.0013852
0.000107641
0.00136914
0.000128977
0.00134957
0.000150019
0.00132639
0.000170688
0.00129966
0.000190909
0.00126939
0.00021061
0.00123571
0.000229731
0.00119869
0.000248218
0.00115842
0.000266023
0.00111501
0.000283104
0.00106856
0.000299421
0.00101918
0.00031493
0.000966975
0.00032959
0.000912077
0.000343357
0.000854628
0.00035619
0.000794784
0.000368045
0.000732714
0.000378888
0.000668597
0.00038868
0.000602615
0.00039739
0.000534962
0.000404989
0.000465821
0.000411451
0.000395382
0.000416748
0.000323823
0.000420859
0.000251362
0.00042372
0.000178053
0.000425385
0.00010402
3.20432e-05
0.00042606
2.09161e-05
0.00139295
-8.02264e-09
4.21083e-05
0.00138627
6.34457e-05
0.00137656
8.47836e-05
0.00136388
0.000106003
0.00134794
0.000127012
0.00132858
0.000147726
0.00130569
0.000168068
0.00127934
0.000187966
0.00124952
0.000207352
0.00121635
0.000226168
0.00117989
0.000244365
0.00114025
0.000261897
0.0010975
0.000278721
0.00105176
0.000294796
0.00100313
0.000310078
0.000951715
0.000324526
0.000897652
0.000338094
0.000841082
0.000350743
0.000782159
0.000362427
0.000721053
0.000373112
0.000657938
0.00038276
0.000592993
0.000391341
0.000526409
0.000398825
0.000458367
0.000405187
0.000389052
0.0004104
0.000318645
0.000414444
0.000247357
0.000417268
0.000175271
0.000418889
0.000102447
3.15011e-05
0.000419498
2.059e-05
0.00137235
8.84052e-09
4.14631e-05
0.0013654
6.2479e-05
0.00135554
8.34936e-05
0.00134287
0.000104388
0.00132704
0.000125071
0.0013079
0.00014546
0.0012853
0.000165478
0.00125932
0.000185058
0.00122993
0.000204136
0.00119727
0.000222658
0.00116137
0.000240575
0.00112233
0.000257842
0.00108023
0.000274416
0.00103518
0.000290257
0.00098728
0.000305318
0.000936645
0.000319558
0.000883403
0.00033293
0.000827698
0.000345396
0.000769685
0.000356909
0.000709527
0.000367437
0.000647398
0.000376941
0.000583475
0.000385393
0.000517943
0.000392761
0.000450981
0.000399023
0.000382772
0.000404151
0.000313495
0.000408127
0.000243357
0.000410912
0.000172459
0.000412495
0.000100834
3.09227e-05
0.000413021
2.02723e-05
0.00135207
2.16579e-08
4.08306e-05
0.00134485
6.15279e-05
0.00133486
8.2221e-05
0.00132219
0.000102792
0.00130648
0.000123151
0.00128756
0.000143218
0.00126525
0.000162918
0.00123964
0.000182188
0.00121068
0.000200967
0.00117851
0.000219204
0.00114315
0.000236849
0.0011047
0.00025386
0.00106324
0.000270192
0.00101887
0.000285803
0.00097169
0.000300647
0.000921821
0.000314681
0.000869391
0.00032786
0.000814541
0.000340143
0.000757425
0.000351487
0.000698205
0.000361857
0.000637053
0.000371217
0.000574139
0.000379539
0.000509649
0.000386791
0.000443756
0.000392952
0.000376642
0.000397995
0.000308485
0.000401903
0.000239487
0.000404644
0.000169757
0.000406196
9.93289e-05
3.05271e-05
0.000406657
1.99616e-05
0.00133208
2.70401e-08
4.02079e-05
0.0013246
6.05891e-05
0.00131447
8.09629e-05
0.00130181
0.000101214
0.00128623
0.000121253
0.00126751
0.000141002
0.0012455
0.000160391
0.00122025
0.000179359
0.00119171
0.000197849
0.00116001
0.000215808
0.00112519
0.00023319
0.00108731
0.000249951
0.00104647
0.000266046
0.00100276
0.000281431
0.000956296
0.000296061
0.000907181
0.000309892
0.000855549
0.000322878
0.000801542
0.00033498
0.000745311
0.000346154
0.000687017
0.000356367
0.000626826
0.000365583
0.000564907
0.000373774
0.000501441
0.000380911
0.0004366
0.000386971
0.000370562
0.000391929
0.000303504
0.000395769
0.000235622
0.000398464
0.000167032
0.000399988
9.77715e-05
3.00586e-05
0.000400402
1.96566e-05
0.00131241
2.60838e-08
3.95934e-05
0.00130468
5.9661e-05
0.00129441
7.97186e-05
0.00128177
9.96529e-05
0.00126631
0.000119377
0.00124781
0.000138816
0.00122608
0.000157901
0.00120118
0.000176576
0.00117305
0.000194783
0.00114182
0.000212474
0.00110751
0.000229599
0.0010702
0.000246116
0.00102997
0.000261977
0.000986922
0.00027714
0.000941153
0.000291558
0.000892783
0.000305187
0.000841941
0.000317981
0.000788768
0.000329901
0.000733413
0.000340906
0.000676034
0.000350962
0.000616793
0.000360034
0.000555858
0.000368096
0.000493406
0.000375117
0.000429606
0.000381077
0.000364632
0.00038595
0.000298662
0.000389722
0.000231886
0.000392369
0.000164423
0.000393867
9.63181e-05
2.97377e-05
0.000394252
1.93566e-05
0.00129303
2.05829e-08
3.89864e-05
0.00128504
5.87436e-05
0.00127465
7.8489e-05
0.00126202
9.81119e-05
0.00124668
0.000117527
0.00122839
0.000136662
0.00120694
0.000155452
0.00118239
0.000173842
0.00115466
0.000191774
0.00112388
0.000209202
0.00109008
0.000226076
0.00105332
0.000242353
0.00101369
0.000257984
0.00097128
0.000272927
0.0009262
0.000287134
0.000878564
0.000300562
0.000828502
0.000313164
0.000776151
0.000324905
0.00072166
0.00033574
0.000665182
0.00034564
0.000606879
0.000354568
0.000546912
0.0003625
0.000485457
0.000369406
0.000422679
0.000375265
0.000358751
0.000380055
0.000293847
0.000383759
0.000228155
0.000386358
0.000161792
0.000387832
9.48094e-05
2.93155e-05
0.000388197
1.90607e-05
0.00127396
1.20253e-08
3.8387e-05
0.00126573
5.78379e-05
0.00125521
7.72759e-05
0.00124259
9.65931e-05
0.00122738
0.000115706
0.00120929
0.000134545
0.00118811
0.000153047
0.0011639
0.000171158
0.00113656
0.000188823
0.00110624
0.000205994
0.00107293
0.000222621
0.00103671
0.000238661
0.000997668
0.000254065
0.000955894
0.000268789
0.000911495
0.000282786
0.000864586
0.000296013
0.000815295
0.000308425
0.000763758
0.000319985
0.000710121
0.000330652
0.000654536
0.000340395
0.000597159
0.000349181
0.000538149
0.000356983
0.00047768
0.000363775
0.000415914
0.000369535
0.00035302
0.000374241
0.000289172
0.00037788
0.000224552
0.000380431
0.000159279
0.000381879
9.34048e-05
2.90249e-05
0.000382232
1.8769e-05
0.00125519
2.82861e-09
3.77957e-05
0.0012467
5.69449e-05
0.00123606
7.6081e-05
0.00122345
9.50987e-05
0.00120836
0.000113916
0.00119047
0.000132467
0.00116956
0.000150688
0.00114567
0.000168527
0.00111872
0.00018593
0.00108882
0.000202848
0.001056
0.000219232
0.00102032
0.000235038
0.000981853
0.000250216
0.000940705
0.000264722
0.000896977
0.00027851
0.000850786
0.000291537
0.000802256
0.000303759
0.000751522
0.000315139
0.000698727
0.000325639
0.00064402
0.000335226
0.000587555
0.000343869
0.000529487
0.000351544
0.000469987
0.000358222
0.000409214
0.000363884
0.000347335
0.000368509
0.00028452
0.000372082
0.000220951
0.000374585
0.000156742
0.000376009
9.19443e-05
2.8623e-05
0.000376352
1.84811e-05
0.00123672
-5.2956e-09
3.72129e-05
0.00122798
5.60659e-05
0.00121722
7.49059e-05
0.00120463
9.36306e-05
0.00118964
0.000112159
0.00117195
0.000130428
0.0011513
0.000148374
0.00112774
0.000165948
0.00110116
0.000183093
0.0010717
0.000199763
0.00103935
0.000215906
0.00100419
0.00023148
0.000966298
0.000246433
0.000925769
0.000260723
0.000882706
0.000274302
0.000837224
0.00028713
0.000789447
0.000299162
0.000739508
0.000310364
0.000687546
0.000320696
0.000633708
0.00033013
0.000578144
0.000338632
0.000521007
0.000346179
0.000462465
0.000352745
0.000402673
0.000358311
0.000341798
0.000362855
0.000280006
0.000366364
0.000217476
0.000368822
0.00015432
0.000370221
9.05885e-05
2.83483e-05
0.000370556
1.81973e-05
0.00121853
-1.04841e-08
3.66394e-05
0.00120953
5.52017e-05
0.00119865
7.37518e-05
0.00118607
9.21898e-05
0.0011712
0.000110436
0.0011537
0.000128429
0.0011333
0.000146107
0.00111006
0.000163419
0.00108384
0.000180311
0.00105479
0.000196735
0.00102292
0.00021264
0.000988274
0.000227982
0.000950946
0.000242712
0.000911027
0.000256787
0.00086862
0.000270158
0.000823839
0.000282788
0.000776804
0.000294632
0.000727648
0.000305656
0.000676507
0.000315823
0.000623523
0.000325103
0.000568846
0.000333466
0.000512624
0.000340888
0.000455023
0.000347343
0.000396195
0.000352814
0.000336303
0.000357279
0.000275513
0.000360726
0.000214
0.00036314
0.000151872
0.000364514
8.91762e-05
2.79597e-05
0.000364842
1.79174e-05
0.00120063
-1.22104e-08
3.60755e-05
0.00119138
5.43528e-05
0.00118038
7.2619e-05
0.00116781
9.07764e-05
0.00115305
0.000108747
0.00113574
0.000126469
0.00111559
0.000143883
0.00109266
0.000160938
0.0010668
0.00017758
0.00103817
0.000193761
0.00100675
0.00020943
0.00097262
0.000224543
0.00093585
0.00023905
0.000896535
0.00025291
0.000854778
0.000266076
0.00081069
0.000278508
0.000764391
0.000290165
0.000716009
0.000301013
0.000665678
0.000311016
0.00061354
0.000320145
0.000559739
0.00032837
0.000504421
0.000335669
0.000447749
0.000342015
0.000389873
0.000347393
0.000330953
0.000351781
0.000271154
0.000355168
0.000210646
0.000357538
0.000149537
0.000358888
8.78683e-05
2.76971e-05
0.00035921
1.76418e-05
0.001183
-1.04788e-08
3.55213e-05
0.00117349
5.35196e-05
0.00116238
7.15077e-05
0.00114982
8.93902e-05
0.00113516
0.00010709
0.00111804
0.000124547
0.00109813
0.000141701
0.0010755
0.000158503
0.00104999
0.000174897
0.00102176
0.000190837
0.000990803
0.000206272
0.000957174
0.000221157
0.000920954
0.000235444
0.000882236
0.00024909
0.00084112
0.000262051
0.000797715
0.000274288
0.00075214
0.000285759
0.000704521
0.000296433
0.000654989
0.000306274
0.000603681
0.000315254
0.000550741
0.000323343
0.000496311
0.00033052
0.000440551
0.00033676
0.000383609
0.000342047
0.000325642
0.00034636
0.000266813
0.000349688
0.000207288
0.000352017
0.000147172
0.000353343
8.65025e-05
2.73197e-05
0.000353658
1.73702e-05
0.00116564
-5.89264e-09
3.4977e-05
0.00115589
5.27018e-05
0.00114466
7.04173e-05
0.00113211
8.80302e-05
0.00111756
0.000105464
0.00110061
0.00012266
0.00108095
0.000139558
0.00105861
0.00015611
0.00103345
0.000172259
0.00100563
0.000187961
0.000975118
0.000203163
0.000941986
0.000217822
0.000906312
0.000231889
0.000868184
0.000245324
0.000827702
0.000258081
0.000784974
0.000270124
0.000740115
0.000281412
0.00069325
0.000291915
0.000644506
0.000301595
0.00059402
0.000310428
0.000541929
0.000318384
0.000488376
0.000325442
0.000433517
0.000331578
0.000377497
0.000336775
0.000320472
0.000341015
0.000262601
0.000344286
0.000204049
0.000346575
0.000144918
0.000347878
8.52398e-05
2.7067e-05
0.000348189
1.71031e-05
0.00114853
8.25008e-10
3.44424e-05
0.00113855
5.1899e-05
0.0011272
6.93472e-05
0.00111466
8.66953e-05
0.00110021
0.000103868
0.00108343
0.000120807
0.001064
0.000137452
0.00104196
0.000153756
0.00101714
0.000169664
0.000989709
0.000185128
0.000959644
0.000200099
0.000927004
0.000214534
0.000891867
0.000228383
0.000854321
0.000241608
0.000814464
0.000254165
0.000772403
0.000266016
0.00072825
0.000277123
0.000682126
0.000287456
0.000634158
0.000296979
0.000584478
0.000305668
0.000533222
0.000313492
0.000480529
0.000320434
0.000426554
0.000326467
0.000371439
0.000331578
0.000315337
0.000335746
0.000258403
0.000338962
0.000200802
0.000341212
0.000142631
0.000342494
8.39175e-05
2.66985e-05
0.000342799
1.68402e-05
0.00113169
8.67742e-09
3.39173e-05
0.00112148
5.11106e-05
0.00111001
6.82961e-05
0.00109748
8.53839e-05
0.00108313
0.000102299
0.00106653
0.000118985
0.00104733
0.00013538
0.00102557
0.00015144
0.00100109
0.000167107
0.000974055
0.000182337
0.000944429
0.000197079
0.000912275
0.000211291
0.000877671
0.000224925
0.000840701
0.000237942
0.000801463
0.0002503
0.000760061
0.000261962
0.000716605
0.000272891
0.000671213
0.000283056
0.000624011
0.000292425
0.000575128
0.000300971
0.000524696
0.000308668
0.000472853
0.000315495
0.00041975
0.000321428
0.000365529
0.000326454
0.000310338
0.000330553
0.000254332
0.000333715
0.000197671
0.000335928
0.000140452
0.000337189
8.26966e-05
2.64532e-05
0.000337491
1.65817e-05
0.00111509
1.68379e-08
3.34013e-05
0.00110465
5.0336e-05
0.00109307
6.72632e-05
0.00108055
8.40947e-05
0.00106629
0.000100756
0.00104986
0.000117191
0.00103088
0.00013334
0.00100941
0.000149157
0.000985267
0.000164587
0.000958614
0.000179585
0.000929421
0.0001941
0.000897748
0.000208091
0.000863668
0.000221512
0.000827267
0.000234324
0.000788638
0.000246485
0.000747884
0.000257961
0.000705114
0.000268714
0.000660443
0.000278715
0.000613994
0.000287931
0.000565892
0.000296339
0.00051627
0.00030391
0.00046526
0.000310625
0.000413014
0.000316461
0.000359668
0.000321404
0.000305369
0.000325435
0.000250271
0.000328546
0.000194529
0.000330723
0.000138237
0.000331964
8.14142e-05
2.60909e-05
0.000332262
1.63274e-05
0.00109875
2.44697e-08
3.28939e-05
0.00108809
4.95742e-05
0.0010764
6.62472e-05
0.00106388
8.2826e-05
0.00104972
9.92367e-05
0.00103346
0.000115425
0.00101471
0.00013133
0.000993519
0.000146907
0.000969703
0.000162102
0.000943432
0.000176869
0.000914669
0.00019116
0.00088347
0.000204933
0.00084991
0.000218143
0.000814071
0.000230753
0.000776045
0.00024272
0.000735932
0.000254013
0.000693839
0.000264593
0.000649879
0.000274433
0.000604172
0.000283499
0.000556843
0.00029177
0.00050802
0.000299218
0.000457832
0.000305824
0.000406431
0.000311564
0.00035395
0.000316426
0.000300533
0.000320392
0.000246332
0.000323453
0.0001915
0.000325595
0.000136128
0.000326817
8.02311e-05
2.58501e-05
0.000327113
1.60774e-05
0.00108263
3.12528e-08
3.23949e-05
0.00107177
4.88247e-05
0.00105996
6.5247e-05
0.00104745
8.15766e-05
0.00103338
9.77401e-05
0.00101728
0.000113684
0.000998753
0.000129348
0.000977844
0.000144688
0.000954353
0.000159649
0.000928459
0.000174189
0.000900119
0.000188258
0.000869389
0.000201816
0.000836341
0.000214817
0.000801055
0.000227228
0.000763622
0.000239004
0.000724139
0.000250116
0.000682712
0.000260526
0.000639451
0.000270208
0.000594474
0.000279128
0.000547903
0.000287266
0.000499863
0.000294592
0.000450483
0.000301091
0.00039991
0.000306739
0.000348276
0.000311522
0.000295724
0.000315424
0.000242399
0.000318436
0.000188456
0.000320544
0.000133981
0.000321748
7.89851e-05
2.54916e-05
0.000322042
1.58313e-05
0.00106677
3.6838e-08
3.19036e-05
0.0010557
4.80865e-05
0.00104379
6.42617e-05
0.00103128
8.03453e-05
0.00101731
9.62646e-05
0.00100137
0.000111967
0.000983062
0.000127392
0.000962428
0.000142498
0.00093926
0.000157229
0.000913739
0.000171543
0.000885819
0.000185393
0.000855552
0.000198738
0.00082301
0.000211535
0.000788271
0.000223748
0.000751424
0.000235338
0.000712564
0.000246272
0.000671794
0.000256515
0.000629224
0.000266041
0.000584966
0.000274818
0.000539143
0.000282824
0.000491877
0.000290033
0.000443294
0.000296427
0.000393539
0.000301984
0.000342742
0.00030669
0.000291043
0.00031053
0.000238587
0.000313494
0.000185523
0.00031557
0.000131937
0.000316757
7.78367e-05
2.52531e-05
0.00031705
1.55891e-05
0.00105114
4.13238e-08
3.14197e-05
0.00103986
4.73591e-05
0.00102784
6.32905e-05
0.00101534
7.91312e-05
0.00100146
9.48092e-05
0.000985685
0.000110273
0.00096759
0.000125462
0.000947227
0.000140336
0.000924377
0.000154839
0.000899224
0.000168931
0.000871716
0.000182564
0.000841907
0.0001957
0.000809862
0.000208295
0.000775662
0.000220315
0.000739391
0.000231719
0.000701144
0.000242479
0.00066102
0.000252559
0.000619127
0.000261932
0.000575576
0.000270568
0.000530487
0.000278446
0.00048398
0.000285539
0.000436178
0.000291831
0.000387225
0.000297299
0.000337248
0.000301931
0.000286384
0.000305709
0.000234777
0.000308627
0.000182572
0.000310672
0.000129853
0.000311842
7.6624e-05
2.48966e-05
0.000312133
1.53506e-05
0.00103575
4.46301e-08
3.09428e-05
0.00102428
4.66419e-05
0.00101215
6.23325e-05
0.00099966
7.79333e-05
0.00098587
9.33728e-05
0.000970253
0.0001086
0.000952373
0.000123557
0.000932279
0.000138201
0.000909745
0.00015248
0.000884956
0.000166353
0.000857857
0.000179772
0.000828499
0.000192702
0.000796947
0.000205097
0.000763279
0.000216927
0.000727577
0.00022815
0.000689934
0.000238739
0.000650448
0.000248657
0.000609223
0.000257881
0.00056637
0.000266379
0.000522005
0.000274132
0.000476247
0.000281111
0.000429217
0.000287303
0.000381056
0.000292684
0.000331889
0.000297243
0.000281851
0.000300962
0.000231083
0.000303835
0.00017973
0.000305849
0.000127871
0.000307003
7.55075e-05
2.46588e-05
0.000307295
1.51156e-05
0.00102058
4.71106e-08
3.04727e-05
0.00100891
4.59345e-05
0.000996683
6.13873e-05
0.000984198
7.67511e-05
0.000970498
9.19551e-05
0.000955039
0.000106949
0.00093737
0.000121676
0.000917541
0.000136094
0.000895317
0.000150151
0.000870887
0.000163807
0.000844191
0.000177016
0.000815277
0.000189742
0.00078421
0.000201942
0.000751064
0.000213584
0.000715922
0.00022463
0.000678872
0.00023505
0.000640012
0.000244811
0.000599444
0.000253888
0.000557276
0.000262251
0.000513622
0.00026988
0.000468599
0.000276749
0.000422325
0.000282843
0.000374939
0.000288139
0.000326566
0.000292626
0.000277337
0.000296287
0.00022739
0.000299116
0.000176867
0.000301101
0.000125847
0.000302239
7.43257e-05
2.43031e-05
0.000302529
1.4884e-05
0.00100565
4.88163e-08
3.0009e-05
0.000993792
4.52365e-05
0.000981463
6.04545e-05
0.000968986
7.55842e-05
0.000955377
9.05555e-05
0.000940074
0.00010532
0.000922616
0.000119819
0.00090305
0.000134014
0.000881134
0.000147852
0.000857059
0.000161295
0.000830761
0.000174296
0.000802287
0.000186822
0.000771698
0.000198829
0.000739069
0.000210288
0.000704479
0.000221158
0.000668015
0.000231413
0.000629773
0.000241019
0.000589853
0.000249952
0.00054836
0.000258183
0.000505408
0.000265691
0.00046111
0.000272452
0.000415582
0.000278449
0.000368964
0.000283662
0.000321375
0.000288079
0.000272945
0.000291684
0.000223811
0.000294471
0.000174111
0.000296426
0.000123923
0.000297549
7.3239e-05
2.40653e-05
0.00029784
1.46557e-05
0.000990942
5.01159e-08
2.95515e-05
0.000978888
4.45477e-05
0.000966459
5.95337e-05
0.00095399
7.44321e-05
0.000940471
8.91737e-05
0.000925322
0.00010371
0.00090807
0.000117985
0.000888763
0.00013196
0.00086715
0.000145582
0.000843424
0.000158815
0.000817518
0.000171613
0.000789476
0.000183941
0.000759358
0.000195759
0.000727236
0.000207037
0.000693188
0.000217735
0.000657301
0.000227828
0.000619665
0.000237282
0.000580381
0.000246074
0.000539551
0.000254175
0.000497287
0.000261565
0.0004537
0.000268219
0.000408905
0.000274123
0.000363038
0.000279254
0.000316216
0.000283603
0.000268569
0.000287152
0.000220229
0.000289897
0.000171333
0.000291824
0.000121956
0.000292933
7.20863e-05
2.37101e-05
0.000293222
1.44304e-05
0.000976466
5.09966e-08
2.91e-05
0.000964224
4.38678e-05
0.000951698
5.86247e-05
0.000939239
7.32948e-05
0.000925809
8.78095e-05
0.000910814
0.000102122
0.000893767
0.000116176
0.000874717
0.000129933
0.000853404
0.000143343
0.000830024
0.000156368
0.000804505
0.000168965
0.000776889
0.0001811
0.000747237
0.000192732
0.000715616
0.000203832
0.000682103
0.000214361
0.000646784
0.000224295
0.000609747
0.0002336
0.00057109
0.000242254
0.000530915
0.000250227
0.00048933
0.000257501
0.000446445
0.000264051
0.000402373
0.000269862
0.000357248
0.000274914
0.000311186
0.000279195
0.000264312
0.000282691
0.000216759
0.000285394
0.00016866
0.000287293
0.000120088
0.000288388
7.10278e-05
2.34718e-05
0.000288678
1.42083e-05
0.000962201
5.17705e-08
2.86545e-05
0.000949769
4.31967e-05
0.000937149
5.77274e-05
0.000924699
7.21721e-05
0.000911356
8.64629e-05
0.000896512
0.000100554
0.000879667
0.00011439
0.00086087
0.000127933
0.000839852
0.000141133
0.000816811
0.000153955
0.000791673
0.000166354
0.000764477
0.000178299
0.000735281
0.000189748
0.000704152
0.000200673
0.000671166
0.000211036
0.000636403
0.000220814
0.000599954
0.000229973
0.000561913
0.00023849
0.00052238
0.000246338
0.000481461
0.000253498
0.000439265
0.000259946
0.000395902
0.000265667
0.000351504
0.00027064
0.000306185
0.000274856
0.000260069
0.000278298
0.000213284
0.000280962
0.000165963
0.000282834
0.000118175
0.000283915
6.99029e-05
2.31171e-05
0.000284203
1.39892e-05
0.000948165
5.23546e-08
2.82148e-05
0.000935548
4.25343e-05
0.000922836
5.68417e-05
0.000910396
7.1064e-05
0.000897142
8.51339e-05
0.000882448
9.90066e-05
0.000865804
0.000112627
0.000847256
0.000125959
0.00082653
0.000138953
0.000803826
0.000151575
0.000779064
0.00016378
0.000752282
0.000175537
0.000723537
0.000186806
0.000692894
0.000197559
0.000660426
0.00020776
0.000626215
0.000217385
0.000590345
0.000226399
0.000552912
0.000234784
0.000514013
0.000242509
0.000473752
0.000249557
0.000432236
0.000255904
0.000389573
0.000261537
0.000345893
0.000266433
0.000301309
0.000270585
0.000255942
0.000273975
0.000209919
0.000276599
0.000163369
0.000278444
0.00011636
0.000279511
6.88715e-05
2.28787e-05
0.0002798
1.37731e-05
0.000934334
5.29796e-08
2.77809e-05
0.000921532
4.18806e-05
0.000908729
5.59676e-05
0.000896299
6.99704e-05
0.000883131
8.38224e-05
0.000868585
9.748e-05
0.000852138
0.000110889
0.000833836
0.000124013
0.000813397
0.000136804
0.000791022
0.000149228
0.00076663
0.000161242
0.000740255
0.000172815
0.000711953
0.000183907
0.000681787
0.000194492
0.000649829
0.000204533
0.000616157
0.000214007
0.000580857
0.00022288
0.00054402
0.000231133
0.000505742
0.000238738
0.000466126
0.000245677
0.000425277
0.000251925
0.0003833
0.000257471
0.000340325
0.000262292
0.000296461
0.00026638
0.000251826
0.000269719
0.000206547
0.000272304
0.00016075
0.000274123
0.0001145
0.000275177
6.77736e-05
2.25247e-05
0.000275465
1.35598e-05
0.000920726
5.34895e-08
2.73528e-05
0.000907743
4.12356e-05
0.000894853
5.51051e-05
0.000882434
6.88915e-05
0.000869352
8.25287e-05
0.000854953
9.59741e-05
0.000838701
0.000109174
0.000820643
0.000122094
0.000800487
0.000134685
0.000778439
0.000146915
0.000754412
0.000158741
0.000728439
0.000170132
0.000700574
0.000181051
0.000670879
0.00019147
0.000639424
0.000201354
0.000606285
0.000210679
0.000571547
0.000219414
0.000535298
0.000227539
0.000497634
0.000235025
0.000458655
0.000241856
0.000418465
0.000248008
0.000377166
0.000253468
0.000334887
0.000258215
0.000291734
0.000262241
0.000247825
0.00026553
0.000203283
0.000268077
0.000158232
0.00026987
0.000112736
0.000270911
6.67684e-05
2.22864e-05
0.000271199
1.33496e-05
0.000907317
5.40731e-08
2.69305e-05
0.000894154
4.05993e-05
0.000881177
5.42543e-05
0.000868769
6.78272e-05
0.000855771
8.12526e-05
0.000841516
9.44891e-05
0.000825456
0.000107483
0.000807636
0.000120202
0.00078776
0.000132596
0.000766033
0.000144635
0.000742363
0.000156276
0.000716785
0.000167489
0.00068935
0.000178237
0.000660117
0.000188493
0.000629154
0.000198223
0.000596539
0.000207403
0.000562352
0.000216001
0.000526681
0.000224
0.000489619
0.00023137
0.000451265
0.000238095
0.00041172
0.000244152
0.000371085
0.000249528
0.000329488
0.000254202
0.000287032
0.000258167
0.000243832
0.000261406
0.00020001
0.000263916
0.000155688
0.000265684
0.000110927
0.000266712
6.56967e-05
2.19338e-05
0.000266998
1.31423e-05
0.000894126
5.45459e-08
2.6514e-05
0.000880786
3.99716e-05
0.000867726
5.34151e-05
0.000855329
6.67775e-05
0.000842416
7.99943e-05
0.000828304
9.30249e-05
0.000812434
0.000105816
0.000794851
0.000118337
0.00077525
0.000130538
0.000753839
0.000142389
0.000730524
0.000153847
0.000705336
0.000164886
0.000678324
0.000175465
0.000649547
0.000185562
0.000619072
0.00019514
0.000586973
0.000204177
0.00055333
0.000212641
0.000518229
0.000220516
0.000481761
0.000227771
0.000444024
0.000234393
0.000405117
0.000240356
0.000365139
0.000245649
0.000324215
0.000250253
0.000282449
0.000254157
0.000239952
0.000257348
0.000196844
0.000259821
0.000153244
0.000261564
0.000109213
0.000262578
6.47172e-05
2.16962e-05
0.000262865
1.2938e-05
0.000881128
5.50744e-08
2.61032e-05
0.000867612
3.93527e-05
0.00085447
5.25877e-05
0.000842084
6.57427e-05
0.000829254
7.87538e-05
0.000815282
9.15816e-05
0.000799598
0.000104174
0.000782247
0.000116499
0.000762916
0.000128509
0.000741816
0.000140175
0.000718849
0.000151455
0.000694043
0.000162322
0.000667446
0.000172736
0.000639117
0.000182675
0.00060912
0.000192104
0.000577528
0.000201
0.000544418
0.000209333
0.000509877
0.000217086
0.000473992
0.000224229
0.00043686
0.000230748
0.000398578
0.00023662
0.000359243
0.000241832
0.00031898
0.000246365
0.000277888
0.000250211
0.000236078
0.000253354
0.000193667
0.000255791
0.000150773
0.000257509
0.000107453
0.000258511
6.36712e-05
2.13456e-05
0.000258795
1.27366e-05
0.00086834
5.54636e-08
2.56983e-05
0.000854654
3.87424e-05
0.000841431
5.17719e-05
0.000829058
6.47225e-05
0.00081631
7.75311e-05
0.000802477
9.01592e-05
0.000786978
0.000102555
0.000769856
0.000114688
0.000750793
0.000126511
0.00073
0.000137995
0.000707376
0.000149099
0.000682948
0.000159796
0.000656762
0.000170048
0.000628875
0.000179833
0.000599349
0.000189115
0.000568257
0.000197873
0.000535675
0.000206077
0.000501685
0.000213709
0.000466376
0.000220742
0.000429842
0.000227161
0.000392177
0.000232942
0.000353479
0.000238075
0.000313868
0.000242539
0.000273444
0.000246327
0.000232315
0.000249423
0.000190595
0.000251824
0.000148401
0.000253518
0.000105788
0.000254506
6.27169e-05
2.11093e-05
0.000254791
1.25382e-05
0.000855742
5.58785e-08
2.52991e-05
0.000841885
3.81409e-05
0.000828583
5.09679e-05
0.000816221
6.37171e-05
0.000803553
7.63263e-05
0.000789857
8.87578e-05
0.000774538
0.00010096
0.000757642
0.000112904
0.000738841
0.000124543
0.000718349
0.000135848
0.000696061
0.000146779
0.000672004
0.00015731
0.00064622
0.000167402
0.000618767
0.000177035
0.000589704
0.000186172
0.000559103
0.000194795
0.000527037
0.000202871
0.000493589
0.000210386
0.000458845
0.00021731
0.000422896
0.00022363
0.000385837
0.000229322
0.000347762
0.000234377
0.000308791
0.000238773
0.00026902
0.000242504
0.000228556
0.000245553
0.000187511