/*--------------------------------*- C++ -*----------------------------------*\
  =========                 |
  \\      /  F ield         | OpenFOAM: The Open Source CFD Toolbox
   \\    /   O peration     | Website:  https://openfoam.org
    \\  /    A nd           | Version:  6.0
     \\/     M anipulation  |
\*---------------------------------------------------------------------------*/
FoamFile
{
    version     2.0;
    format      ascii;
    class       volScalarField;
    location    "1.72";
    object      p;
}
// * * * * * * * * * * * * * * * * * * * * * * * * * * * * * * * * * * * * * //

dimensions      [0 2 -2 0 0 0 0];

internalField   nonuniform List<scalar> 
13500
(
0.099396
0.099418
0.098934
0.098478
0.097651
0.097084
0.096628
0.096952
0.098744
0.10274
0.12416
0.16841
0.099396
0.099418
0.098934
0.098479
0.097651
0.097084
0.096628
0.096951
0.09874
0.10281
0.12348
0.16335
0.099396
0.099419
0.098935
0.098479
0.097651
0.097084
0.096626
0.096949
0.098732
0.10285
0.12259
0.15888
0.099397
0.09942
0.098935
0.09848
0.097651
0.097084
0.096624
0.096945
0.098718
0.10287
0.12161
0.15539
0.099398
0.099421
0.098936
0.098481
0.097651
0.097083
0.096622
0.09694
0.098698
0.10288
0.12057
0.15246
0.0994
0.099423
0.098937
0.098483
0.097651
0.097083
0.096618
0.096934
0.098674
0.10287
0.11949
0.14986
0.099401
0.099425
0.098939
0.098484
0.097651
0.097082
0.096614
0.096926
0.098645
0.10286
0.1184
0.14749
0.099404
0.099427
0.098941
0.098486
0.097651
0.09708
0.09661
0.096917
0.098612
0.10282
0.11732
0.14533
0.099406
0.09943
0.098942
0.098487
0.097651
0.097079
0.096604
0.096906
0.098573
0.10278
0.11626
0.14333
0.099409
0.099433
0.098945
0.098489
0.097652
0.097078
0.096599
0.096894
0.09853
0.10272
0.11524
0.14146
0.099412
0.099436
0.098947
0.098492
0.097652
0.097076
0.096592
0.096881
0.098482
0.10265
0.11424
0.13971
0.099416
0.099439
0.09895
0.098494
0.097652
0.097074
0.096585
0.096866
0.098429
0.10257
0.11329
0.13806
0.099419
0.099443
0.098953
0.098497
0.097652
0.097072
0.096577
0.09685
0.098371
0.10247
0.11238
0.13649
0.099424
0.099448
0.098956
0.098499
0.097653
0.097069
0.096569
0.096833
0.098308
0.10237
0.1115
0.135
0.099428
0.099452
0.09896
0.098502
0.097653
0.097067
0.09656
0.096814
0.098241
0.10227
0.11067
0.13358
0.099433
0.099457
0.098964
0.098505
0.097653
0.097064
0.096551
0.096794
0.098169
0.10215
0.10987
0.13222
0.099439
0.099463
0.098968
0.098509
0.097654
0.097061
0.09654
0.096772
0.098092
0.10204
0.1091
0.13092
0.099444
0.099468
0.098973
0.098512
0.097654
0.097058
0.09653
0.096748
0.098011
0.10192
0.10836
0.12967
0.099451
0.099474
0.098977
0.098516
0.097655
0.097054
0.096518
0.096724
0.097926
0.10179
0.10764
0.12847
0.099457
0.099481
0.098983
0.09852
0.097655
0.097051
0.096506
0.096698
0.097836
0.10167
0.10695
0.12731
0.099464
0.099487
0.098988
0.098524
0.097656
0.097047
0.096494
0.09667
0.097743
0.10155
0.10628
0.12619
0.099471
0.099494
0.098994
0.098529
0.097657
0.097043
0.09648
0.096641
0.097647
0.10142
0.10563
0.1251
0.099479
0.099502
0.099
0.098534
0.097657
0.097039
0.096467
0.096611
0.097547
0.1013
0.10499
0.12405
0.099487
0.09951
0.099006
0.098538
0.097658
0.097034
0.096452
0.096579
0.097444
0.10117
0.10436
0.12303
0.099496
0.099518
0.099013
0.098544
0.097659
0.09703
0.096437
0.096546
0.097338
0.10105
0.10375
0.12204
0.099505
0.099527
0.09902
0.098549
0.09766
0.097025
0.096422
0.096512
0.09723
0.10093
0.10315
0.12107
0.099514
0.099536
0.099027
0.098555
0.097661
0.09702
0.096406
0.096477
0.09712
0.10081
0.10256
0.12013
0.099524
0.099545
0.099035
0.09856
0.097662
0.097015
0.096389
0.09644
0.097008
0.10069
0.10197
0.11921
0.099534
0.099555
0.099043
0.098567
0.097663
0.09701
0.096372
0.096403
0.096894
0.10057
0.1014
0.11831
0.099545
0.099565
0.099051
0.098573
0.097664
0.097004
0.096354
0.096364
0.096778
0.10045
0.10083
0.11743
0.099556
0.099576
0.09906
0.09858
0.097666
0.096998
0.096335
0.096324
0.096661
0.10033
0.10028
0.11658
0.099567
0.099587
0.099069
0.098586
0.097667
0.096993
0.096316
0.096283
0.096542
0.10021
0.099724
0.11574
0.099579
0.099598
0.099078
0.098594
0.097668
0.096987
0.096296
0.096242
0.096422
0.10009
0.09918
0.11492
0.099592
0.09961
0.099088
0.098601
0.09767
0.09698
0.096276
0.096199
0.096301
0.099971
0.098643
0.11411
0.099604
0.099623
0.099098
0.098609
0.097671
0.096974
0.096255
0.096156
0.096179
0.099849
0.098113
0.11333
0.099618
0.099635
0.099109
0.098617
0.097673
0.096968
0.096234
0.096112
0.096055
0.099725
0.09759
0.11255
0.099632
0.099648
0.099119
0.098625
0.097675
0.096961
0.096212
0.096067
0.095931
0.099601
0.097074
0.1118
0.099646
0.099662
0.099131
0.098633
0.097677
0.096954
0.096189
0.096022
0.095805
0.099475
0.096566
0.11106
0.099661
0.099676
0.099142
0.098642
0.097679
0.096947
0.096166
0.095976
0.095678
0.099348
0.096065
0.11033
0.099676
0.099691
0.099154
0.098651
0.097681
0.09694
0.096142
0.09593
0.095551
0.099219
0.095571
0.10961
0.099691
0.099706
0.099167
0.09866
0.097683
0.096933
0.096117
0.095883
0.095422
0.099089
0.095084
0.10891
0.099708
0.099721
0.099179
0.09867
0.097685
0.096926
0.096092
0.095835
0.095292
0.098956
0.094605
0.10822
0.099724
0.099737
0.099193
0.09868
0.097687
0.096918
0.096067
0.095787
0.095162
0.098822
0.094133
0.10755
0.099741
0.099754
0.099206
0.09869
0.09769
0.096911
0.09604
0.095739
0.09503
0.098686
0.093669
0.10689
0.099759
0.099771
0.09922
0.098701
0.097692
0.096903
0.096014
0.09569
0.094897
0.098549
0.093212
0.10623
0.099777
0.099788
0.099234
0.098712
0.097695
0.096896
0.095986
0.09564
0.094763
0.098409
0.092763
0.10559
0.099796
0.099806
0.099249
0.098723
0.097698
0.096888
0.095958
0.095591
0.094629
0.098268
0.092321
0.10496
0.099815
0.099824
0.099264
0.098734
0.097701
0.09688
0.09593
0.095541
0.094493
0.098125
0.091887
0.10435
0.099835
0.099843
0.09928
0.098746
0.097704
0.096872
0.095901
0.095491
0.094356
0.09798
0.091459
0.10374
0.099855
0.099862
0.099296
0.098758
0.097707
0.096864
0.095871
0.09544
0.094219
0.097834
0.091039
0.10314
0.099876
0.099882
0.099313
0.098771
0.097711
0.096856
0.095841
0.095389
0.094081
0.097685
0.090627
0.10255
0.099897
0.099903
0.09933
0.098784
0.097714
0.096848
0.09581
0.095338
0.093941
0.097536
0.090221
0.10197
0.099919
0.099924
0.099347
0.098797
0.097718
0.09684
0.095779
0.095287
0.093801
0.097384
0.089823
0.1014
0.099942
0.099945
0.099365
0.098811
0.097722
0.096831
0.095747
0.095235
0.093661
0.097231
0.089431
0.10084
0.099965
0.099967
0.099383
0.098825
0.097726
0.096823
0.095714
0.095183
0.093519
0.097077
0.089046
0.10029
0.099988
0.09999
0.099402
0.098839
0.09773
0.096815
0.095682
0.095131
0.093377
0.096921
0.088668
0.099743
0.10001
0.10001
0.099421
0.098853
0.097734
0.096806
0.095648
0.095078
0.093234
0.096763
0.088297
0.099207
0.10004
0.10004
0.099441
0.098868
0.097739
0.096798
0.095614
0.095026
0.09309
0.096604
0.087932
0.098679
0.10006
0.10006
0.099461
0.098884
0.097744
0.096789
0.09558
0.094973
0.092946
0.096444
0.087574
0.098158
0.10009
0.10009
0.099482
0.0989
0.097749
0.096781
0.095545
0.09492
0.092802
0.096282
0.087222
0.097645
0.10011
0.10011
0.099503
0.098916
0.097754
0.096773
0.095509
0.094867
0.092657
0.096119
0.086877
0.097139
0.10014
0.10014
0.099525
0.098932
0.097759
0.096764
0.095474
0.094813
0.092511
0.095955
0.086537
0.09664
0.10017
0.10016
0.099548
0.098949
0.097765
0.096756
0.095437
0.094759
0.092365
0.09579
0.086203
0.096147
0.1002
0.10019
0.09957
0.098966
0.097771
0.096747
0.0954
0.094705
0.092219
0.095623
0.085876
0.095662
0.10023
0.10022
0.099594
0.098984
0.097777
0.096739
0.095363
0.094651
0.092073
0.095455
0.085554
0.095183
0.10026
0.10025
0.099618
0.099002
0.097783
0.09673
0.095326
0.094597
0.091926
0.095287
0.085237
0.094711
0.10029
0.10028
0.099642
0.099021
0.097789
0.096722
0.095287
0.094543
0.091779
0.095117
0.084927
0.094244
0.10032
0.10031
0.099667
0.09904
0.097796
0.096714
0.095249
0.094488
0.091632
0.094946
0.084621
0.093784
0.10035
0.10034
0.099692
0.099059
0.097803
0.096706
0.09521
0.094433
0.091485
0.094774
0.084321
0.093329
0.10038
0.10037
0.099719
0.099079
0.097811
0.096697
0.095171
0.094378
0.091338
0.094601
0.084027
0.092881
0.10041
0.1004
0.099745
0.099099
0.097818
0.096689
0.095131
0.094323
0.091191
0.094427
0.083737
0.092438
0.10045
0.10043
0.099773
0.09912
0.097826
0.096681
0.095091
0.094268
0.091043
0.094252
0.083452
0.092
0.10048
0.10046
0.0998
0.099141
0.097835
0.096673
0.09505
0.094213
0.090896
0.094076
0.083172
0.091568
0.10052
0.1005
0.099829
0.099162
0.097843
0.096666
0.09501
0.094157
0.090749
0.093899
0.082897
0.091141
0.10055
0.10053
0.099858
0.099184
0.097852
0.096658
0.094969
0.094101
0.090602
0.093722
0.082627
0.090719
0.10059
0.10057
0.099888
0.099207
0.097861
0.09665
0.094927
0.094045
0.090456
0.093544
0.082361
0.090302
0.10063
0.1006
0.099918
0.09923
0.09787
0.096643
0.094885
0.093989
0.090309
0.093365
0.0821
0.08989
0.10066
0.10064
0.099949
0.099253
0.09788
0.096636
0.094843
0.093933
0.090163
0.093185
0.081842
0.089483
0.1007
0.10067
0.099981
0.099277
0.09789
0.096629
0.094801
0.093876
0.090017
0.093005
0.08159
0.08908
0.10074
0.10071
0.10001
0.099301
0.097901
0.096622
0.094758
0.093819
0.089871
0.092824
0.081341
0.088682
0.10078
0.10075
0.10005
0.099326
0.097911
0.096615
0.094715
0.093762
0.089726
0.092642
0.081096
0.088289
0.10082
0.10079
0.10008
0.099352
0.097923
0.096609
0.094672
0.093705
0.089581
0.092459
0.080855
0.0879
0.10087
0.10083
0.10011
0.099378
0.097934
0.096603
0.094629
0.093648
0.089436
0.092276
0.080618
0.087515
0.10091
0.10087
0.10015
0.099404
0.097946
0.096597
0.094585
0.09359
0.089292
0.092093
0.080385
0.087134
0.10095
0.10091
0.10019
0.099431
0.097958
0.096591
0.094541
0.093532
0.089148
0.091909
0.080155
0.086757
0.101
0.10095
0.10022
0.099459
0.097971
0.096585
0.094497
0.093474
0.089005
0.091724
0.079929
0.086384
0.10104
0.101
0.10026
0.099487
0.097984
0.09658
0.094453
0.093416
0.088862
0.091539
0.079707
0.086015
0.10109
0.10104
0.1003
0.099516
0.097997
0.096575
0.094408
0.093358
0.08872
0.091353
0.079487
0.08565
0.10113
0.10109
0.10034
0.099545
0.098011
0.09657
0.094364
0.093299
0.088578
0.091167
0.079271
0.085288
0.10118
0.10113
0.10038
0.099575
0.098025
0.096566
0.094319
0.09324
0.088436
0.09098
0.079058
0.08493
0.10123
0.10118
0.10042
0.099606
0.09804
0.096562
0.094274
0.093181
0.088296
0.090793
0.078848
0.084575
0.10128
0.10123
0.10046
0.099637
0.098055
0.096558
0.09423
0.093122
0.088155
0.090605
0.078641
0.084224
0.10133
0.10127
0.1005
0.099669
0.09807
0.096555
0.094185
0.093062
0.088016
0.090417
0.078437
0.083876
0.10138
0.10132
0.10054
0.099702
0.098086
0.096552
0.09414
0.093003
0.087877
0.090229
0.078236
0.083532
0.10143
0.10137
0.10059
0.099735
0.098103
0.09655
0.094095
0.092943
0.087738
0.09004
0.078037
0.08319
0.10149
0.10142
0.10063
0.099769
0.09812
0.096548
0.09405
0.092882
0.087601
0.089851
0.077841
0.082852
0.10154
0.10148
0.10068
0.099804
0.098137
0.096546
0.094005
0.092822
0.087464
0.089662
0.077647
0.082516
0.1016
0.10153
0.10073
0.09984
0.098155
0.096545
0.09396
0.092761
0.087327
0.089472
0.077456
0.082184
0.10165
0.10158
0.10077
0.099876
0.098174
0.096544
0.093915
0.0927
0.087191
0.089282
0.077267
0.081854
0.10171
0.10164
0.10082
0.099913
0.098193
0.096543
0.09387
0.092639
0.087056
0.089091
0.077081
0.081527
0.10177
0.10169
0.10087
0.099951
0.098212
0.096543
0.093825
0.092577
0.086922
0.0889
0.076896
0.081202
0.10183
0.10175
0.10092
0.09999
0.098232
0.096544
0.09378
0.092516
0.086788
0.088709
0.076714
0.08088
0.10189
0.10181
0.10097
0.10003
0.098253
0.096545
0.093736
0.092454
0.086655
0.088518
0.076534
0.080561
0.10195
0.10187
0.10103
0.10007
0.098275
0.096547
0.093691
0.092392
0.086522
0.088326
0.076355
0.080244
0.10201
0.10193
0.10108
0.10011
0.098297
0.096549
0.093647
0.092329
0.086391
0.088134
0.076179
0.079929
0.10208
0.10199
0.10113
0.10015
0.09832
0.096551
0.093603
0.092267
0.08626
0.087942
0.076004
0.079616
0.10214
0.10206
0.10119
0.1002
0.098343
0.096555
0.093559
0.092204
0.08613
0.087749
0.07583
0.079306
0.10221
0.10212
0.10125
0.10024
0.098367
0.096558
0.093515
0.092141
0.086
0.087556
0.075659
0.078998
0.10228
0.10219
0.10131
0.10029
0.098392
0.096563
0.093472
0.092077
0.085871
0.087363
0.075489
0.078691
0.10235
0.10225
0.10137
0.10033
0.098418
0.096568
0.093429
0.092014
0.085743
0.08717
0.07532
0.078387
0.10242
0.10232
0.10143
0.10038
0.098444
0.096574
0.093386
0.09195
0.085616
0.086976
0.075152
0.078084
0.10249
0.10239
0.10149
0.10043
0.098471
0.09658
0.093343
0.091886
0.08549
0.086782
0.074986
0.077783
0.10256
0.10246
0.10155
0.10048
0.0985
0.096587
0.093301
0.091822
0.085364
0.086588
0.074821
0.077483
0.10264
0.10253
0.10162
0.10053
0.098529
0.096595
0.09326
0.091757
0.085239
0.086394
0.074657
0.077186
0.10272
0.10261
0.10168
0.10058
0.098558
0.096603
0.093218
0.091693
0.085114
0.086199
0.074494
0.076889
0.10279
0.10268
0.10175
0.10064
0.098589
0.096613
0.093178
0.091628
0.084991
0.086004
0.074332
0.076594
0.10287
0.10276
0.10182
0.10069
0.098621
0.096623
0.093137
0.091563
0.084868
0.085809
0.074171
0.0763
0.10295
0.10284
0.10189
0.10075
0.098654
0.096634
0.093098
0.091498
0.084746
0.085614
0.07401
0.076008
0.10304
0.10292
0.10196
0.10081
0.098688
0.096646
0.093058
0.091433
0.084625
0.085418
0.07385
0.075716
0.10312
0.103
0.10204
0.10087
0.098724
0.096659
0.09302
0.091368
0.084504
0.085222
0.073691
0.075426
0.10321
0.10309
0.10211
0.10093
0.09876
0.096672
0.092982
0.091302
0.084384
0.085026
0.073532
0.075136
0.1033
0.10317
0.10219
0.10099
0.098798
0.096687
0.092945
0.091237
0.084265
0.084829
0.073374
0.074848
0.10339
0.10326
0.10227
0.10105
0.098836
0.096703
0.092908
0.091171
0.084147
0.084632
0.073216
0.07456
0.10348
0.10335
0.10235
0.10112
0.098877
0.096719
0.092872
0.091105
0.084029
0.084435
0.073059
0.074273
0.10358
0.10344
0.10244
0.10119
0.098918
0.096737
0.092837
0.091039
0.083912
0.084238
0.072901
0.073986
0.10367
0.10354
0.10252
0.10126
0.098961
0.096756
0.092803
0.090974
0.083796
0.08404
0.072744
0.0737
0.10377
0.10363
0.10261
0.10133
0.099006
0.096777
0.09277
0.090908
0.083681
0.083842
0.072587
0.073414
0.10387
0.10373
0.1027
0.1014
0.099052
0.096798
0.092738
0.090842
0.083566
0.083644
0.07243
0.073129
0.10398
0.10383
0.10279
0.10148
0.0991
0.096821
0.092706
0.090776
0.083452
0.083445
0.072272
0.072843
0.10408
0.10393
0.10288
0.10156
0.099149
0.096845
0.092676
0.090711
0.083339
0.083246
0.072115
0.072558
0.10419
0.10404
0.10298
0.10164
0.099201
0.096871
0.092647
0.090645
0.083227
0.083046
0.071957
0.072273
0.1043
0.10415
0.10308
0.10172
0.099254
0.096898
0.092619
0.090579
0.083115
0.082847
0.071799
0.071987
0.10442
0.10426
0.10318
0.1018
0.099309
0.096927
0.092592
0.090514
0.083004
0.082647
0.07164
0.071702
0.10453
0.10437
0.10328
0.10189
0.099366
0.096957
0.092567
0.090449
0.082894
0.082446
0.071481
0.071416
0.10465
0.10449
0.10339
0.10198
0.099426
0.096989
0.092543
0.090384
0.082784
0.082245
0.071321
0.071129
0.10477
0.10461
0.1035
0.10207
0.099488
0.097023
0.092521
0.09032
0.082676
0.082044
0.071161
0.070843
0.1049
0.10473
0.10361
0.10217
0.099552
0.097058
0.0925
0.090256
0.082568
0.081843
0.071
0.070555
0.10503
0.10486
0.10373
0.10227
0.099618
0.097096
0.09248
0.090192
0.082461
0.081641
0.070838
0.070267
0.10516
0.10499
0.10385
0.10237
0.099687
0.097136
0.092463
0.090128
0.082355
0.081438
0.070675
0.069978
0.1053
0.10512
0.10397
0.10247
0.099759
0.097178
0.092447
0.090065
0.082249
0.081235
0.070512
0.069687
0.10544
0.10526
0.1041
0.10258
0.099834
0.097222
0.092433
0.090003
0.082145
0.081032
0.070347
0.069396
0.10558
0.1054
0.10423
0.10269
0.099911
0.097268
0.092421
0.089941
0.082041
0.080829
0.070181
0.069104
0.10573
0.10555
0.10436
0.10281
0.099992
0.097317
0.092411
0.08988
0.081938
0.080624
0.070013
0.06881
0.10588
0.1057
0.1045
0.10292
0.10008
0.097368
0.092403
0.089819
0.081836
0.08042
0.069845
0.068514
0.10603
0.10585
0.10464
0.10305
0.10016
0.097422
0.092397
0.08976
0.081734
0.080215
0.069675
0.068217
0.10619
0.10601
0.10479
0.10317
0.10025
0.097479
0.092394
0.089701
0.081634
0.080009
0.069503
0.067919
0.10635
0.10617
0.10494
0.1033
0.10035
0.097539
0.092393
0.089643
0.081535
0.079803
0.06933
0.067618
0.10652
0.10634
0.10509
0.10344
0.10045
0.097602
0.092395
0.089586
0.081436
0.079597
0.069155
0.067315
0.1067
0.10651
0.10525
0.10358
0.10055
0.097668
0.092399
0.08953
0.081338
0.07939
0.068978
0.06701
0.10687
0.10669
0.10542
0.10372
0.10065
0.097738
0.092406
0.089476
0.081242
0.079182
0.0688
0.066703
0.10706
0.10687
0.10559
0.10387
0.10076
0.097811
0.092417
0.089422
0.081146
0.078974
0.068619
0.066394
0.10725
0.10706
0.10576
0.10403
0.10088
0.097888
0.09243
0.08937
0.081051
0.078766
0.068437
0.066082
0.10744
0.10725
0.10594
0.10419
0.101
0.097968
0.092446
0.08932
0.080958
0.078557
0.068252
0.065767
0.10764
0.10745
0.10613
0.10435
0.10112
0.098053
0.092466
0.08927
0.080865
0.078347
0.068065
0.065449
0.10785
0.10765
0.10632
0.10452
0.10125
0.098141
0.09249
0.089223
0.080774
0.078137
0.067876
0.065128
0.10806
0.10787
0.10652
0.1047
0.10139
0.098234
0.092517
0.089177
0.080683
0.077926
0.067684
0.064803
0.10828
0.10809
0.10673
0.10488
0.10153
0.098332
0.092548
0.089133
0.080594
0.077714
0.067489
0.064476
0.10851
0.10831
0.10694
0.10507
0.10168
0.098434
0.092583
0.089091
0.080506
0.077502
0.067292
0.064144
0.10874
0.10854
0.10716
0.10527
0.10183
0.098541
0.092622
0.089051
0.080419
0.077289
0.067092
0.063809
0.10898
0.10879
0.10739
0.10547
0.10199
0.098654
0.092665
0.089013
0.080333
0.077075
0.066889
0.06347
0.10923
0.10903
0.10762
0.10568
0.10215
0.098771
0.092713
0.088978
0.080248
0.076861
0.066683
0.063127
0.10948
0.10929
0.10786
0.1059
0.10233
0.098894
0.092765
0.088944
0.080165
0.076646
0.066473
0.062779
0.10974
0.10955
0.10811
0.10613
0.10251
0.099023
0.092822
0.088913
0.080083
0.07643
0.06626
0.062426
0.11002
0.10983
0.10837
0.10636
0.10269
0.099158
0.092884
0.088885
0.080002
0.076213
0.066044
0.062069
0.1103
0.11011
0.10864
0.1066
0.10289
0.099299
0.092951
0.088859
0.079922
0.075995
0.065824
0.061706
0.11058
0.1104
0.10892
0.10686
0.10309
0.099446
0.093024
0.088837
0.079844
0.075776
0.0656
0.061338
0.11088
0.1107
0.1092
0.10712
0.1033
0.0996
0.093102
0.088817
0.079766
0.075556
0.065372
0.060965
0.11119
0.11101
0.1095
0.10738
0.10352
0.099761
0.093185
0.0888
0.079691
0.075335
0.065139
0.060585
0.11151
0.11133
0.1098
0.10766
0.10375
0.099929
0.093275
0.088786
0.079616
0.075112
0.064902
0.060199
0.11183
0.11166
0.11012
0.10795
0.10398
0.1001
0.09337
0.088775
0.079542
0.074888
0.064661
0.059807
0.11217
0.112
0.11044
0.10825
0.10423
0.10029
0.093472
0.088767
0.07947
0.074663
0.064415
0.059408
0.11252
0.11235
0.11078
0.10856
0.10448
0.10048
0.09358
0.088763
0.079398
0.074436
0.064163
0.059002
0.11288
0.11272
0.11113
0.10888
0.10475
0.10068
0.093694
0.088762
0.079328
0.074207
0.063906
0.058588
0.11325
0.11309
0.11149
0.10921
0.10503
0.10088
0.093815
0.088764
0.079259
0.073977
0.063643
0.058166
0.11363
0.11348
0.11186
0.10956
0.10531
0.1011
0.093943
0.08877
0.07919
0.073744
0.063374
0.057736
0.11402
0.11388
0.11225
0.10991
0.10561
0.10132
0.094078
0.08878
0.079123
0.073509
0.063099
0.057298
0.11443
0.11429
0.11265
0.11028
0.10592
0.10156
0.09422
0.088793
0.079055
0.073271
0.062818
0.05685
0.11485
0.11472
0.11306
0.11066
0.10624
0.1018
0.094369
0.088809
0.078989
0.07303
0.062529
0.056393
0.11528
0.11516
0.11348
0.11105
0.10657
0.10205
0.094526
0.088829
0.078923
0.072787
0.062233
0.055925
0.11572
0.11561
0.11392
0.11146
0.10692
0.10231
0.09469
0.088853
0.078857
0.07254
0.061928
0.055447
0.11618
0.11608
0.11438
0.11188
0.10727
0.10258
0.094861
0.08888
0.078791
0.072289
0.061616
0.054958
0.11666
0.11656
0.11484
0.11232
0.10764
0.10287
0.095041
0.088911
0.078725
0.072035
0.061295
0.054457
0.11715
0.11706
0.11533
0.11277
0.10803
0.10316
0.095228
0.088945
0.078658
0.071776
0.060965
0.053944
0.11765
0.11758
0.11583
0.11323
0.10843
0.10346
0.095424
0.088982
0.078591
0.071512
0.060624
0.053418
0.11817
0.11811
0.11635
0.11371
0.10884
0.10378
0.095627
0.089023
0.078522
0.071243
0.060274
0.052879
0.11871
0.11866
0.11688
0.11421
0.10927
0.1041
0.095839
0.089066
0.078453
0.070968
0.059912
0.052325
0.11926
0.11922
0.11744
0.11473
0.10971
0.10444
0.096059
0.089113
0.078381
0.070688
0.059539
0.051756
0.11983
0.11981
0.11801
0.11526
0.11017
0.10479
0.096287
0.089163
0.078308
0.0704
0.059153
0.051172
0.12042
0.12041
0.1186
0.11581
0.11065
0.10515
0.096524
0.089216
0.078232
0.070105
0.058755
0.050571
0.12103
0.12104
0.11921
0.11638
0.11114
0.10553
0.09677
0.089271
0.078154
0.069803
0.058342
0.049952
0.12166
0.12168
0.11984
0.11697
0.11165
0.10591
0.097025
0.089329
0.078072
0.069491
0.057915
0.049315
0.12231
0.12235
0.1205
0.11758
0.11218
0.10631
0.097288
0.089389
0.077987
0.069171
0.057473
0.048659
0.12298
0.12304
0.12118
0.11821
0.11273
0.10673
0.097561
0.089451
0.077897
0.068841
0.057014
0.047983
0.12367
0.12375
0.12188
0.11887
0.11329
0.10716
0.097843
0.089515
0.077803
0.0685
0.056538
0.047285
0.12439
0.12449
0.12261
0.11955
0.11388
0.1076
0.098135
0.089581
0.077703
0.068147
0.056044
0.046565
0.12513
0.12526
0.12336
0.12025
0.1145
0.10807
0.098436
0.089649
0.077598
0.067783
0.05553
0.045821
0.1259
0.12605
0.12415
0.12098
0.11513
0.10854
0.098748
0.089718
0.077487
0.067405
0.054996
0.045052
0.1267
0.12687
0.12496
0.12174
0.11579
0.10904
0.099071
0.089789
0.077369
0.067013
0.05444
0.044257
0.12752
0.12773
0.12581
0.12253
0.11648
0.10955
0.099404
0.089861
0.077243
0.066606
0.053862
0.043435
0.12838
0.12861
0.12669
0.12335
0.11719
0.11009
0.099748
0.089934
0.077109
0.066183
0.053259
0.042583
0.12928
0.12954
0.12761
0.1242
0.11794
0.11064
0.10011
0.090008
0.076966
0.065744
0.052631
0.041702
0.13021
0.1305
0.12856
0.1251
0.11872
0.11122
0.10047
0.090083
0.076814
0.065285
0.051977
0.040788
0.13117
0.1315
0.12956
0.12603
0.11953
0.11182
0.10086
0.090158
0.076651
0.064808
0.051294
0.03984
0.13218
0.13255
0.13061
0.127
0.12037
0.11245
0.10125
0.090234
0.076477
0.06431
0.050581
0.038857
0.13324
0.13365
0.1317
0.12802
0.12126
0.1131
0.10166
0.090311
0.076291
0.063789
0.049836
0.037836
0.13434
0.13479
0.13285
0.12909
0.12218
0.11378
0.10209
0.090387
0.076092
0.063245
0.049058
0.036776
0.1355
0.13599
0.13405
0.13021
0.12315
0.11449
0.10253
0.090463
0.075878
0.062674
0.048244
0.035674
0.1367
0.13725
0.13531
0.13138
0.12417
0.11524
0.10298
0.090537
0.075647
0.062077
0.047392
0.034528
0.13797
0.13858
0.13664
0.13262
0.12524
0.11602
0.10345
0.09061
0.075399
0.061449
0.0465
0.033334
0.1393
0.13997
0.13804
0.13392
0.12636
0.11683
0.10394
0.090679
0.07513
0.060788
0.045563
0.032092
0.1407
0.14143
0.13951
0.13529
0.12754
0.11769
0.10445
0.090745
0.074838
0.060091
0.04458
0.030796
0.14216
0.14297
0.14106
0.13674
0.12878
0.11858
0.10497
0.090803
0.074521
0.059355
0.043547
0.029444
0.1437
0.14459
0.1427
0.13827
0.13008
0.11952
0.1055
0.090854
0.074174
0.058575
0.042458
0.028032
0.14533
0.14631
0.14443
0.13988
0.13146
0.12049
0.10605
0.090892
0.073793
0.057747
0.04131
0.026556
0.14703
0.14811
0.14626
0.14158
0.1329
0.12152
0.10662
0.090916
0.073373
0.056864
0.040097
0.02501
0.14882
0.15002
0.14819
0.14338
0.13441
0.12258
0.10719
0.090919
0.072909
0.055921
0.038812
0.02339
0.15071
0.15203
0.15023
0.14528
0.13601
0.12369
0.10777
0.090898
0.072392
0.05491
0.037449
0.021689
0.1527
0.15416
0.15238
0.14729
0.13768
0.12484
0.10835
0.090844
0.071816
0.053823
0.036
0.0199
0.15478
0.1564
0.15467
0.14941
0.13943
0.12604
0.10893
0.090751
0.07117
0.05265
0.034455
0.018016
0.15698
0.15877
0.15708
0.15165
0.14127
0.12727
0.1095
0.09061
0.070445
0.051381
0.032805
0.016028
0.15928
0.16127
0.15963
0.15401
0.1432
0.12854
0.11005
0.09041
0.069629
0.050005
0.031039
0.013926
0.16171
0.16392
0.16233
0.15651
0.14521
0.12985
0.11057
0.090138
0.068708
0.048508
0.029145
0.011699
0.16425
0.16671
0.16519
0.15915
0.14731
0.13117
0.11106
0.089782
0.067667
0.046877
0.027111
0.0093372
0.16693
0.16967
0.16822
0.16193
0.1495
0.13252
0.1115
0.089323
0.066491
0.045097
0.024922
0.0068275
0.16975
0.17281
0.17144
0.16487
0.15179
0.13387
0.11186
0.088744
0.065159
0.04315
0.022564
0.0041574
0.17271
0.17613
0.17487
0.16798
0.15416
0.13522
0.11215
0.088023
0.063651
0.041018
0.020022
0.0013138
0.17584
0.17967
0.17852
0.17128
0.15662
0.13656
0.11232
0.087132
0.061943
0.038681
0.017278
-0.0017166
0.17914
0.18344
0.18243
0.17476
0.15917
0.13785
0.11235
0.08604
0.060004
0.036114
0.014314
-0.0049479
0.18263
0.18748
0.18661
0.17846
0.1618
0.13908
0.11221
0.08471
0.057802
0.03329
0.011109
-0.0083942
0.18633
0.1918
0.19111
0.18238
0.16449
0.14021
0.11185
0.083094
0.055294
0.030176
0.0076382
-0.01207
0.19025
0.19645
0.19596
0.18654
0.16723
0.1412
0.11121
0.081136
0.052433
0.026734
0.0038752
-0.015993
0.19441
0.20147
0.2012
0.19093
0.16999
0.14199
0.11022
0.078768
0.04916
0.022919
-0.00021289
-0.02018
0.19882
0.20689
0.20685
0.19557
0.17271
0.14249
0.1088
0.075907
0.045407
0.018677
-0.0046629
-0.02465
0.20347
0.21274
0.21295
0.20041
0.17532
0.14261
0.10684
0.072458
0.041096
0.01395
-0.0095155
-0.029424
0.20838
0.21907
0.2195
0.20542
0.17771
0.1422
0.10419
0.068309
0.036141
0.0086759
-0.014812
-0.034521
0.21351
0.22588
0.22649
0.21051
0.17972
0.14109
0.10072
0.063339
0.030456
0.0027945
-0.020589
-0.039956
0.21883
0.23317
0.23387
0.21551
0.18114
0.13907
0.096231
0.057417
0.023955
-0.0037437
-0.02687
-0.045729
0.22431
0.24093
0.24151
0.22021
0.18167
0.13587
0.090527
0.050413
0.016565
-0.010968
-0.033655
-0.051822
0.22988
0.24906
0.24919
0.22423
0.18094
0.13116
0.083387
0.042202
0.0082381
-0.018878
-0.040911
-0.058183
0.2355
0.25739
0.25649
0.22702
0.17841
0.12457
0.074587
0.032684
-0.001042
-0.027433
-0.048566
-0.064727
0.24115
0.26558
0.26269
0.22777
0.17343
0.11567
0.06392
0.021803
-0.011242
-0.036547
-0.056501
-0.071333
0.24685
0.273
0.26661
0.22525
0.16513
0.10402
0.051237
0.0095784
-0.02226
-0.046085
-0.064566
-0.077855
0.25277
0.27856
0.26632
0.21774
0.15244
0.089172
0.0365
-0.0038516
-0.033905
-0.055855
-0.072579
-0.08414
0.25921
0.2805
0.25898
0.2029
0.13413
0.070782
0.019823
-0.018205
-0.045881
-0.06561
-0.080346
-0.090052
0.26676
0.27632
0.24076
0.17785
0.1089
0.048614
0.0014697
-0.03308
-0.057815
-0.075067
-0.087678
-0.095485
0.27619
0.26315
0.20759
0.13976
0.075592
0.022574
-0.018241
-0.04807
-0.069343
-0.083965
-0.094424
-0.10039
0.28764
0.23761
0.15655
0.0871
0.033744
-0.0072685
-0.039061
-0.062912
-0.080245
-0.092158
-0.10052
-0.10479
0.30108
0.19331
0.083995
0.019058
-0.016956
-0.041244
-0.061292
-0.077857
-0.090738
-0.099852
-0.10619
-0.10896
0.32629
0.13099
-0.010097
-0.062995
-0.076099
-0.080184
-0.086213
-0.094175
-0.10195
-0.10801
-0.11226
-0.11365
0.37493
0.068201
-0.1102
-0.14753
-0.13628
-0.12037
-0.1125
-0.11167
-0.11412
-0.11695
-0.11906
-0.11906
0.10426
0.065045
0.054928
0.048828
0.044522
0.041165
0.038368
0.035798
0.033552
0.031068
0.029282
0.025895
0.12386
0.080577
0.068008
0.059913
0.054277
0.049951
0.046395
0.043154
0.040361
0.037253
0.035105
0.031003
0.11105
0.07529
0.063912
0.055955
0.050412
0.046189
0.042751
0.039635
0.036992
0.034009
0.032059
0.028009
0.10596
0.074914
0.06386
0.055813
0.050139
0.04581
0.042298
0.039119
0.036452
0.033408
0.031484
0.027224
0.10534
0.077098
0.065879
0.057611
0.05169
0.04715
0.043467
0.040132
0.03735
0.034156
0.032164
0.027641
0.10472
0.078926
0.067629
0.059222
0.053101
0.048377
0.044543
0.041068
0.03818
0.034853
0.032792
0.028069
0.10362
0.080214
0.068987
0.060524
0.054254
0.049381
0.045419
0.041827
0.03885
0.035419
0.033296
0.028439
0.10246
0.081272
0.070204
0.061736
0.055351
0.050347
0.046269
0.042571
0.039512
0.035996
0.033815
0.028883
0.10136
0.082188
0.071347
0.06292
0.05645
0.051331
0.047147
0.043352
0.040217
0.036632
0.034398
0.029448
0.10032
0.082953
0.072404
0.064061
0.057541
0.052328
0.04805
0.04417
0.040966
0.037333
0.035052
0.030142
0.099316
0.083566
0.073363
0.065147
0.058614
0.053331
0.048974
0.045023
0.04176
0.038097
0.035782
0.030965
0.098339
0.084042
0.074221
0.066169
0.05966
0.054332
0.049915
0.045908
0.042599
0.038927
0.036589
0.031915
0.097395
0.084397
0.074981
0.067122
0.06067
0.055325
0.050867
0.046822
0.043479
0.039817
0.037469
0.03298
0.096486
0.084646
0.075645
0.068002
0.061636
0.0563
0.051821
0.047756
0.044393
0.040761
0.038413
0.034147
0.095612
0.084806
0.076218
0.068807
0.062552
0.057248
0.052769
0.048701
0.045332
0.041747
0.03941
0.035393
0.094775
0.08489
0.076708
0.069537
0.063412
0.058162
0.053701
0.049647
0.046285
0.042763
0.040446
0.036698
0.093976
0.084911
0.077121
0.070195
0.064214
0.059036
0.054609
0.050585
0.047242
0.043796
0.041506
0.038037
0.093213
0.08488
0.077465
0.070785
0.064959
0.059867
0.055488
0.051507
0.048193
0.044835
0.042575
0.039388
0.092488
0.084807
0.077749
0.071311
0.065646
0.060652
0.056333
0.052407
0.04913
0.045868
0.043642
0.040731
0.091798
0.084701
0.077978
0.071778
0.066277
0.06139
0.05714
0.053279
0.050046
0.046885
0.044694
0.042048
0.091142
0.084567
0.07816
0.072191
0.066855
0.062081
0.057908
0.054119
0.050934
0.047878
0.045722
0.043324
0.090519
0.084413
0.0783
0.072554
0.067383
0.062727
0.058635
0.054924
0.051791
0.048841
0.046718
0.044549
0.089926
0.084241
0.078405
0.072873
0.067865
0.063328
0.059321
0.055692
0.052614
0.049768
0.047676
0.045715
0.089362
0.084056
0.078478
0.073151
0.068302
0.063886
0.059966
0.056422
0.0534
0.050655
0.048594
0.046815
0.088824
0.083862
0.078525
0.073393
0.068699
0.064403
0.060572
0.057114
0.054148
0.051501
0.049467
0.047847
0.088311
0.08366
0.078547
0.073602
0.069058
0.064882
0.06114
0.057768
0.054858
0.052304
0.050295
0.048811
0.087822
0.083452
0.07855
0.073782
0.069383
0.065325
0.061671
0.058384
0.05553
0.053063
0.051077
0.049707
0.087353
0.08324
0.078534
0.073935
0.069676
0.065733
0.062167
0.058964
0.056165
0.053779
0.051814
0.050537
0.086905
0.083025
0.078503
0.074064
0.06994
0.066109
0.062629
0.059508
0.056763
0.054452
0.052507
0.051304
0.086474
0.082809
0.078458
0.074172
0.070177
0.066455
0.063059
0.060018
0.057326
0.055084
0.053156
0.052012
0.086061
0.082591
0.078402
0.074259
0.070388
0.066773
0.063459
0.060496
0.057854
0.055675
0.053764
0.052663
0.085663
0.082374
0.078335
0.074329
0.070577
0.067063
0.06383
0.060941
0.058349
0.056228
0.054333
0.053262
0.08528
0.082156
0.078259
0.074383
0.070744
0.067329
0.064174
0.061356
0.058812
0.056743
0.054863
0.053813
0.084911
0.081939
0.078175
0.074422
0.070891
0.067571
0.064491