/*--------------------------------*- C++ -*----------------------------------*\
  =========                 |
  \\      /  F ield         | OpenFOAM: The Open Source CFD Toolbox
   \\    /   O peration     | Website:  https://openfoam.org
    \\  /    A nd           | Version:  6.0
     \\/     M anipulation  |
\*---------------------------------------------------------------------------*/
FoamFile
{
    version     2.0;
    format      ascii;
    class       volVectorField;
    location    "1";
    object      U;
}
// * * * * * * * * * * * * * * * * * * * * * * * * * * * * * * * * * * * * * //

dimensions      [0 1 -1 0 0 0 0];

internalField   nonuniform List<vector> 
62000
(
(0.996056 0.0883436 -2.4322e-20)
(0.996049 0.0883514 2.02546e-20)
(0.996043 0.0883447 2.0949e-20)
(0.996038 0.088337 -9.22334e-20)
(0.996032 0.0883284 -1.06149e-19)
(0.996027 0.0883187 3.67021e-19)
(0.996023 0.0883079 -4.05246e-19)
(0.996019 0.0882957 2.36123e-19)
(0.996015 0.088282 -1.11318e-19)
(0.996013 0.0882666 -5.71492e-19)
(0.996011 0.0882491 -7.5293e-20)
(0.996009 0.0882293 8.02316e-19)
(0.996009 0.0882069 1.64823e-19)
(0.996009 0.0881815 -5.77481e-19)
(0.996011 0.0881528 9.04136e-19)
(0.996013 0.0881203 -4.79639e-19)
(0.996016 0.0880835 4.99585e-19)
(0.99602 0.088042 -5.8697e-19)
(0.996024 0.0879951 2.90764e-19)
(0.99603 0.0879423 -8.97054e-19)
(0.996035 0.0878829 1.17237e-18)
(0.996041 0.0878162 3.46507e-19)
(0.996047 0.0877414 5.00388e-19)
(0.996052 0.0876596 -2.27245e-18)
(0.996059 0.0875664 8.21272e-19)
(0.996065 0.0874643 -4.86273e-19)
(0.996068 0.0873566 -2.25568e-21)
(0.996069 0.087241 -3.63837e-19)
(0.996066 0.0871171 1.11819e-18)
(0.996059 0.0869845 -5.98539e-19)
(0.996047 0.0868433 1.40184e-18)
(0.996028 0.0866932 -2.82243e-18)
(0.996002 0.0865344 2.774e-19)
(0.995968 0.0863673 -8.69649e-19)
(0.995923 0.0861931 -2.65884e-19)
(0.995868 0.0860133 -8.40966e-19)
(0.995799 0.0858298 -2.00549e-19)
(0.995717 0.085645 -1.88478e-19)
(0.995621 0.0854619 7.55892e-19)
(0.995509 0.0852838 3.20525e-18)
(0.995384 0.0851145 -7.26381e-19)
(0.995246 0.0849575 -3.90145e-18)
(0.995099 0.0848161 -5.6621e-18)
(0.994946 0.0846926 2.79849e-18)
(0.994792 0.0845879 8.16903e-19)
(0.994643 0.0845008 -3.21112e-18)
(0.994507 0.084428 4.70887e-19)
(0.994388 0.084364 -1.08688e-18)
(0.994292 0.0843008 -4.29554e-18)
(0.994223 0.084229 -9.05524e-19)
(0.994183 0.0841378 -4.0278e-19)
(0.994173 0.0840156 -4.4622e-18)
(0.994191 0.0838485 8.08342e-19)
(0.994239 0.0836211 3.83939e-18)
(0.994316 0.0833104 8.35732e-19)
(0.994426 0.082881 2.76444e-18)
(0.994579 0.0822659 -2.05753e-19)
(0.994797 0.0813322 -2.149e-19)
(0.995136 0.0797608 7.69804e-19)
(0.9957 0.0765757 6.45798e-20)
(0.99599 0.0883034 -6.58261e-21)
(0.99598 0.088311 6.32466e-20)
(0.995971 0.0883044 2.65401e-20)
(0.995961 0.0882967 -1.13295e-19)
(0.995952 0.0882881 4.72579e-20)
(0.995942 0.0882784 -3.28335e-19)
(0.995933 0.0882674 3.00908e-19)
(0.995925 0.0882551 1.75473e-19)
(0.995917 0.0882413 -3.28674e-19)
(0.995909 0.0882257 1.37972e-20)
(0.995902 0.0882081 3.20911e-19)
(0.995896 0.0881883 1.4208e-21)
(0.99589 0.088166 9.37533e-20)
(0.995884 0.0881409 -7.98758e-19)
(0.99588 0.0881126 1.60895e-18)
(0.995876 0.0880807 -1.42313e-18)
(0.995873 0.0880448 6.69768e-19)
(0.995871 0.0880045 -1.40993e-19)
(0.995869 0.0879592 -3.85875e-19)
(0.995868 0.0879084 1.07136e-18)
(0.995867 0.0878515 -1.69165e-18)
(0.995867 0.0877878 9.84029e-19)
(0.995866 0.0877167 -1.25472e-18)
(0.995865 0.0876391 7.48295e-19)
(0.995868 0.087551 6.80571e-19)
(0.995875 0.087455 -4.36689e-19)
(0.995879 0.0873537 1.61975e-21)
(0.995881 0.087245 4.61663e-19)
(0.995879 0.0871285 3.7546e-19)
(0.995873 0.0870038 -7.3691e-19)
(0.995862 0.0868707 1.47066e-18)
(0.995846 0.0867291 2.81531e-19)
(0.995823 0.0865791 8.75746e-19)
(0.995793 0.086421 4.25335e-20)
(0.995754 0.0862556 2.20243e-19)
(0.995704 0.0860844 -2.79971e-19)
(0.995644 0.0859088 -7.67934e-19)
(0.995571 0.085731 -4.11299e-19)
(0.995485 0.0855535 -1.99603e-18)
(0.995386 0.0853793 -2.09798e-18)
(0.995275 0.0852116 1.62243e-18)
(0.995152 0.0850539 8.38022e-19)
(0.995019 0.0849088 6.14296e-18)
(0.994881 0.0847788 3.66868e-19)
(0.994742 0.0846646 -8.02146e-18)
(0.994606 0.0845657 2.8198e-18)
(0.994481 0.0844793 1.89185e-18)
(0.994371 0.0844004 2.23806e-18)
(0.994281 0.0843222 5.61144e-20)
(0.994217 0.0842358 -4.01579e-20)
(0.994179 0.0841313 2.54741e-18)
(0.994169 0.0839971 5.88949e-18)
(0.994188 0.0838199 -3.41535e-18)
(0.994236 0.0835835 -8.1709e-18)
(0.994313 0.083265 -1.88827e-18)
(0.994423 0.0828276 -5.15153e-19)
(0.994576 0.0822039 -2.84391e-18)
(0.994792 0.0812582 -1.07727e-18)
(0.995124 0.0796694 2.18757e-18)
(0.995627 0.0764746 7.33963e-19)
(0.995926 0.0882666 -3.24553e-20)
(0.995912 0.088274 -4.70261e-21)
(0.995898 0.0882676 4.97042e-21)
(0.995885 0.0882601 2.31364e-20)
(0.995871 0.0882516 6.59256e-20)
(0.995858 0.0882421 -6.25491e-20)
(0.995844 0.0882314 3.3583e-19)
(0.995831 0.0882193 -1.59652e-19)
(0.995819 0.0882056 -8.59319e-20)
(0.995806 0.0881903 -5.32812e-19)
(0.995795 0.088173 4.49242e-19)
(0.995783 0.0881536 3.32523e-20)
(0.995772 0.0881316 -1.03364e-19)
(0.995762 0.088107 2.75201e-19)
(0.995752 0.0880793 -4.71998e-19)
(0.995743 0.0880482 2.57891e-21)
(0.995735 0.0880132 -2.17992e-19)
(0.995727 0.0879741 3.27218e-21)
(0.99572 0.0879303 5.06612e-19)
(0.995713 0.0878813 -7.7368e-19)
(0.995707 0.0878265 4.83458e-19)
(0.9957 0.0877654 1.88324e-18)
(0.995694 0.0876973 -2.50753e-19)
(0.995688 0.0876233 -2.62801e-18)
(0.995689 0.0875396 1.3338e-18)
(0.995695 0.0874486 -6.99898e-19)
(0.9957 0.0873529 1.11108e-18)
(0.995703 0.0872502 -6.61914e-19)
(0.995702 0.0871401 -1.26511e-18)
(0.995697 0.0870221 1.31512e-18)
(0.995688 0.0868963 -9.04703e-19)
(0.995673 0.0867622 1.17633e-18)
(0.995653 0.0866198 -3.17897e-18)
(0.995626 0.0864695 2.75133e-18)
(0.995591 0.0863118 -1.43203e-18)
(0.995546 0.086148 5.86162e-19)
(0.995492 0.0859793 4.4884e-19)
(0.995427 0.0858075 1.58586e-20)
(0.99535 0.0856349 -5.89046e-20)
(0.995261 0.0854639 2.34186e-18)
(0.995161 0.0852975 -8.10948e-19)
(0.99505 0.0851387 1.18341e-18)
(0.994931 0.08499 -4.05543e-18)
(0.994806 0.0848535 -1.84268e-18)
(0.994679 0.0847303 1.53972e-18)
(0.994555 0.08462 -6.02826e-18)
(0.99444 0.0845204 6.08855e-19)
(0.994338 0.0844271 -4.10862e-18)
(0.994255 0.084334 5.173e-18)
(0.994195 0.084233 1.12654e-18)
(0.994161 0.0841147 8.25772e-19)
(0.994153 0.083968 1.5724e-19)
(0.994173 0.0837796 2.03863e-18)
(0.994222 0.0835331 -1.09234e-18)
(0.9943 0.0832052 -4.29371e-18)
(0.994412 0.0827579 -1.50655e-18)
(0.994565 0.082123 -2.47885e-18)
(0.994781 0.0811625 -4.898e-18)
(0.995108 0.079552 5.82632e-19)
(0.995581 0.0763359 7.51507e-19)
(0.995863 0.0882347 -3.28908e-20)
(0.995846 0.088242 1.00674e-19)
(0.995828 0.0882359 -1.52503e-20)
(0.99581 0.0882286 -1.03786e-19)
(0.995793 0.0882204 1.5651e-19)
(0.995775 0.0882111 2.70345e-19)
(0.995757 0.0882006 -3.51343e-19)
(0.99574 0.0881887 3.81849e-20)
(0.995723 0.0881753 1.21915e-19)
(0.995706 0.0881603 2.53669e-19)
(0.99569 0.0881434 -4.67097e-19)
(0.995674 0.0881243 -1.44062e-19)
(0.995658 0.0881029 -1.60833e-19)
(0.995643 0.0880789 7.31357e-19)
(0.995629 0.0880519 -4.87e-19)
(0.995615 0.0880216 1.13548e-18)
(0.995601 0.0879876 -1.37471e-18)
(0.995589 0.0879496 -2.00988e-19)
(0.995576 0.0879072 1.44402e-18)
(0.995564 0.0878597 -5.03248e-19)
(0.995553 0.0878068 -1.85043e-19)
(0.995542 0.087748 -1.96336e-19)
(0.995531 0.0876824 -1.77701e-18)
(0.995519 0.0876116 1.02798e-18)
(0.995518 0.0875316 -4.51126e-19)
(0.995525 0.087445 7.12163e-19)
(0.995531 0.087354 3.22789e-19)
(0.995534 0.0872564 1.53237e-18)
(0.995534 0.0871519 -9.435e-19)
(0.99553 0.0870398 -1.18699e-18)
(0.995522 0.0869202 1.81935e-18)
(0.995509 0.0867926 -1.46283e-18)
(0.995491 0.086657 2.62095e-18)
(0.995467 0.0865134 -1.53322e-18)
(0.995435 0.0863625 6.67248e-19)
(0.995395 0.0862053 1.08225e-18)
(0.995346 0.0860426 -4.38592e-19)
(0.995288 0.0858762 4.73358e-19)
(0.995219 0.0857079 -2.96757e-19)
(0.995139 0.0855398 7.21634e-19)
(0.995049 0.0853745 -1.9701e-18)
(0.994949 0.0852148 4.96758e-19)
(0.994841 0.0850628 9.96234e-19)
(0.994728 0.0849207 2.40199e-18)
(0.994613 0.0847894 2.64454e-18)
(0.9945 0.0846688 2.48623e-19)
(0.994395 0.0845571 3.77907e-18)
(0.994301 0.0844504 3.69648e-18)
(0.994225 0.0843434 4.2386e-18)
(0.99417 0.0842287 -2.77682e-18)
(0.994139 0.0840972 -2.99382e-18)
(0.994134 0.0839383 2.19525e-18)
(0.994156 0.0837389 2.87335e-18)
(0.994206 0.0834822 4.59479e-18)
(0.994286 0.0831447 2.4463e-18)
(0.994399 0.0826875 5.60678e-18)
(0.994554 0.0820413 8.7443e-18)
(0.99477 0.0810658 -1.87153e-18)
(0.995094 0.0794341 -4.60514e-18)
(0.995554 0.0761938 -3.64324e-18)
(0.995803 0.0882079 6.46044e-20)
(0.995782 0.0882148 -2.14347e-20)
(0.995761 0.0882088 3.62324e-20)
(0.995739 0.0882017 -5.08061e-20)
(0.995717 0.0881936 1.14299e-19)
(0.995695 0.0881846 -5.61175e-20)
(0.995674 0.0881744 3.04912e-20)
(0.995652 0.0881628 -4.49416e-19)
(0.995631 0.0881497 3.74856e-19)
(0.995609 0.088135 -7.4779e-19)
(0.995589 0.0881185 8.19338e-19)
(0.995568 0.0881 -9.88097e-20)
(0.995548 0.088079 -2.17269e-19)
(0.995528 0.0880556 -9.87986e-20)
(0.995509 0.0880293 -2.14504e-20)
(0.995491 0.0879998 -9.95244e-19)
(0.995473 0.0879667 4.47782e-20)
(0.995455 0.0879298 1.07474e-18)
(0.995438 0.0878886 -3.47558e-19)
(0.995422 0.0878426 -3.64132e-19)
(0.995406 0.0877914 6.12259e-19)
(0.99539 0.0877346 -3.02139e-19)
(0.995374 0.0876712 1.26869e-18)
(0.995358 0.0876031 6.90533e-19)
(0.995355 0.0875263 5.13101e-19)
(0.995363 0.0874435 -1.56686e-18)
(0.995369 0.0873567 -2.13876e-19)
(0.995373 0.0872635 -1.14821e-18)
(0.995373 0.0871639 2.11804e-19)
(0.995371 0.0870568 -3.56047e-19)
(0.995364 0.0869427 -1.3928e-19)
(0.995353 0.0868207 1.07279e-18)
(0.995336 0.086691 -2.66282e-18)
(0.995314 0.0865534 -1.29204e-19)
(0.995286 0.0864083 -1.28056e-18)
(0.99525 0.0862569 -6.09443e-19)
(0.995206 0.0860996 1.06546e-19)
(0.995153 0.0859378 -1.84076e-18)
(0.995091 0.0857734 2.69612e-18)
(0.995019 0.0856078 5.02628e-19)
(0.994938 0.0854434 2.75133e-18)
(0.994848 0.0852829 -1.90092e-18)
(0.994751 0.0851281 -1.26003e-18)
(0.994648 0.0849809 -3.22561e-19)
(0.994544 0.0848423 2.10565e-18)
(0.994442 0.0847123 2.75324e-18)
(0.994345 0.0845894 8.70726e-19)
(0.99426 0.0844705 1.23719e-18)
(0.994191 0.0843504 -1.00256e-18)
(0.994141 0.0842226 7.32945e-18)
(0.994114 0.0840784 1.74911e-18)
(0.994112 0.0839078 -1.3083e-18)
(0.994137 0.0836974 1.24173e-18)
(0.994189 0.0834305 4.82405e-18)
(0.994271 0.0830835 -7.13715e-19)
(0.994386 0.0826163 -4.16705e-18)
(0.994542 0.0819587 -1.09975e-17)
(0.994759 0.0809686 9.6428e-18)
(0.995082 0.0793163 -6.55649e-18)
(0.995543 0.0760498 5.05382e-18)
(0.995745 0.088186 -2.49233e-20)
(0.99572 0.088193 1.00502e-19)
(0.995695 0.0881872 -1.65399e-19)
(0.99567 0.0881803 1.23341e-19)
(0.995644 0.0881725 8.02302e-20)
(0.995618 0.0881636 -8.45641e-20)
(0.995592 0.0881536 7.11499e-21)
(0.995567 0.0881422 -6.34369e-20)
(0.995541 0.0881293 -2.13203e-19)
(0.995516 0.0881149 4.07514e-19)
(0.99549 0.0880987 -6.30513e-19)
(0.995466 0.0880805 5.49634e-19)
(0.995441 0.08806 4.83569e-19)
(0.995417 0.0880371 -7.4519e-19)
(0.995394 0.0880114 -2.42648e-19)
(0.995371 0.0879826 9.06464e-19)
(0.995349 0.0879502 -1.0933e-18)
(0.995327 0.0879143 1.50503e-18)
(0.995305 0.0878742 -2.85887e-19)
(0.995284 0.0878294 1.60601e-19)
(0.995264 0.0877797 -2.613e-19)
(0.995244 0.0877245 -3.2611e-19)
(0.995224 0.0876631 -5.98676e-19)
(0.995203 0.0875973 1.03371e-18)
(0.995198 0.0875233 -6.98335e-19)
(0.995207 0.0874438 -6.56019e-19)
(0.995214 0.0873606 1.3079e-18)
(0.995219 0.0872713 -1.21449e-18)
(0.99522 0.0871759 1.86653e-18)
(0.995218 0.0870733 -9.78047e-19)
(0.995213 0.0869639 7.09896e-19)
(0.995203 0.0868468 -1.18758e-18)
(0.995188 0.0867221 1.22427e-18)
(0.995168 0.0865897 -1.26441e-19)
(0.995142 0.0864498 -6.68976e-20)
(0.99511 0.0863035 -4.18393e-20)
(0.99507 0.0861507 -6.359e-19)
(0.995022 0.0859931 1.63163e-18)
(0.994966 0.085832 -1.20982e-18)
(0.994902 0.0856686 -6.73536e-18)
(0.994828 0.0855051 -2.71263e-18)
(0.994747 0.0853439 1.77388e-18)
(0.994659 0.0851864 -2.03283e-18)
(0.994567 0.0850345 -1.91527e-18)
(0.994473 0.0848892 -1.50451e-19)
(0.99438 0.0847507 4.47458e-18)
(0.994293 0.0846175 -6.02239e-18)
(0.994216 0.0844871 -5.5843e-18)
(0.994153 0.0843549 -3.13922e-18)
(0.994109 0.0842146 -5.22117e-18)
(0.994087 0.0840583 3.58641e-18)
(0.994088 0.0838761 -1.06366e-18)
(0.994116 0.0836551 -9.03996e-18)
(0.994171 0.0833781 2.19313e-18)
(0.994255 0.0830214 2.17778e-18)
(0.994372 0.0825442 -4.85467e-18)
(0.99453 0.0818754 2.5129e-18)
(0.994748 0.0808708 3.73501e-18)
(0.995071 0.0791982 1.04416e-17)
(0.995543 0.0759038 3.2008e-19)
(0.995688 0.0881687 2.98681e-20)
(0.99566 0.0881756 -1.34469e-19)
(0.995632 0.0881699 6.52746e-20)
(0.995602 0.0881632 1.22109e-19)
(0.995573 0.0881555 -2.61627e-19)
(0.995543 0.0881469 2.18742e-19)
(0.995513 0.0881371 -1.45749e-19)
(0.995484 0.0881259 1.2316e-19)
(0.995454 0.0881132 1.96511e-19)
(0.995425 0.0880991 -4.70423e-19)
(0.995395 0.0880832 6.77293e-19)
(0.995366 0.0880653 2.86791e-19)
(0.995338 0.0880452 -1.13666e-18)
(0.99531 0.0880226 -2.13053e-19)
(0.995282 0.0879974 5.99159e-19)
(0.995255 0.0879692 3.84591e-19)
(0.995228 0.0879375 -4.648e-19)
(0.995202 0.0879024 4.05432e-19)
(0.995177 0.0878632 6.26081e-19)
(0.995152 0.0878195 -3.02954e-19)
(0.995127 0.0877711 -1.72848e-19)
(0.995103 0.0877174 6.14669e-19)
(0.995079 0.0876576 1.25682e-18)
(0.995055 0.0875939 -9.09951e-19)
(0.995048 0.0875223 -9.84292e-19)
(0.995057 0.0874456 1.0509e-18)
(0.995066 0.0873656 -7.86081e-19)
(0.995071 0.0872796 -3.05585e-19)
(0.995073 0.0871879 2.48107e-18)
(0.995072 0.0870891 -1.06292e-18)
(0.995067 0.0869839 -7.79095e-19)
(0.995058 0.086871 1.01308e-18)
(0.995045 0.0867508 6.81211e-19)
(0.995027 0.0866229 -6.0827e-19)
(0.995004 0.0864874 -3.98791e-19)
(0.994975 0.0863455 1.22993e-18)
(0.994939 0.0861968 2.31038e-19)
(0.994895 0.0860427 4.08753e-19)
(0.994845 0.0858845 -2.05113e-18)
(0.994786 0.0857229 -1.98785e-18)
(0.99472 0.0855601 3.61034e-18)
(0.994647 0.0853981 2.73137e-18)
(0.994568 0.0852382 4.27934e-18)
(0.994484 0.085082 -3.95835e-18)
(0.994399 0.0849306 -4.18579e-18)
(0.994316 0.0847841 -2.42304e-18)
(0.994237 0.0846415 5.67143e-18)
(0.994168 0.0845003 5.32236e-18)
(0.994112 0.0843566 -5.43189e-18)
(0.994074 0.0842045 -7.88484e-18)
(0.994056 0.0840365 -8.63075e-19)
(0.994061 0.0838431 1.51943e-18)
(0.994092 0.0836115 -6.29766e-20)
(0.99415 0.0833246 -3.27174e-18)
(0.994238 0.0829582 3.10642e-18)
(0.994357 0.0824711 1.53009e-18)
(0.994518 0.081791 2.20426e-18)
(0.994737 0.0807721 -1.1178e-17)
(0.995062 0.0790795 -5.131e-19)
(0.995551 0.0757555 6.65223e-19)
(0.995633 0.0881558 -5.11991e-20)
(0.995602 0.0881629 -4.09784e-20)
(0.995569 0.0881575 5.51987e-20)
(0.995537 0.0881509 1.95903e-19)
(0.995503 0.0881434 -4.21167e-19)
(0.99547 0.0881349 4.80798e-19)
(0.995437 0.0881252 -2.11044e-20)
(0.995403 0.0881141 -2.94623e-20)
(0.99537 0.0881014 -1.70116e-19)
(0.995336 0.0880875 4.12406e-19)
(0.995303 0.0880718 -6.32566e-19)
(0.99527 0.0880541 2.37255e-19)
(0.995237 0.0880343 -7.96288e-21)
(0.995205 0.0880121 3.68706e-19)
(0.995174 0.0879874 1.74877e-19)
(0.995143 0.0879596 -9.26312e-19)
(0.995112 0.0879284 8.00496e-19)
(0.995082 0.087894 3.13285e-19)
(0.995052 0.0878556 -8.95792e-19)
(0.995023 0.0878127 4.3828e-19)
(0.994995 0.0877654 2.01794e-19)
(0.994966 0.0877129 -1.32781e-19)
(0.994939 0.0876544 1.66333e-19)
(0.994911 0.0875925 -9.51709e-20)
(0.994902 0.0875229 -1.08986e-18)
(0.994913 0.0874487 6.88999e-19)
(0.994922 0.0873715 -1.01312e-18)
(0.994928 0.0872884 1.81708e-18)
(0.994931 0.0871999 -3.3199e-19)
(0.994931 0.0871044 -1.95165e-19)
(0.994927 0.0870027 -5.33004e-20)
(0.994919 0.0868935 1.6812e-18)
(0.994908 0.0867772 -6.83227e-19)
(0.994891 0.0866532 -4.19808e-19)
(0.99487 0.0865216 1.00094e-18)
(0.994843 0.0863835 8.34617e-19)
(0.994811 0.0862382 -1.37953e-18)
(0.994771 0.0860871 2.49587e-19)
(0.994725 0.0859314 2.49141e-18)
(0.994672 0.0857714 -2.92724e-19)
(0.994613 0.085609 1.55019e-18)
(0.994547 0.0854462 -2.09469e-18)
(0.994475 0.085284 3.1505e-18)
(0.9944 0.0851238 6.3318e-18)
(0.994324 0.0849667 1.60432e-18)
(0.994249 0.0848128 -2.33339e-18)
(0.994178 0.0846613 -6.67567e-18)
(0.994117 0.0845101 1.43751e-18)
(0.994068 0.0843554 1.66576e-18)
(0.994035 0.0841921 2.99205e-18)
(0.994023 0.0840129 -2.6746e-20)
(0.994033 0.0838086 -6.16099e-18)
(0.994067 0.0835666 5.17466e-18)
(0.994129 0.0832699 -3.42658e-18)
(0.994219 0.0828939 7.13689e-18)
(0.994342 0.0823969 1.55565e-18)
(0.994505 0.0817056 7.48295e-18)
(0.994727 0.0806725 1.0036e-17)
(0.995053 0.0789599 1.98015e-18)
(0.995566 0.0756047 3.15814e-18)
(0.995579 0.088147 -2.53129e-20)
(0.995545 0.0881537 2.1668e-20)
(0.995509 0.0881483 1.0887e-19)
(0.995473 0.0881418 1.72168e-19)
(0.995436 0.0881344 -5.06539e-19)
(0.995399 0.088126 2.90414e-19)
(0.995362 0.0881164 -5.18465e-19)
(0.995324 0.0881055 8.07546e-19)
(0.995287 0.088093 -3.76526e-19)
(0.99525 0.0880792 6.62274e-20)
(0.995213 0.0880637 7.21264e-19)
(0.995176 0.0880463 -1.63229e-18)
(0.99514 0.0880267 1.10595e-18)
(0.995104 0.0880048 1.54706e-19)
(0.995068 0.0879804 2.49463e-19)
(0.995033 0.087953 -1.03619e-18)
(0.994999 0.0879223 5.05911e-19)
(0.994965 0.0878885 -6.22836e-19)
(0.994931 0.0878507 1.22283e-18)
(0.994899 0.0878085 -1.63909e-19)
(0.994866 0.0877621 -1.53035e-18)
(0.994834 0.0877107 6.00519e-19)
(0.994803 0.0876533 -3.52785e-20)
(0.994771 0.0875929 -2.18208e-18)
(0.994762 0.087525 1.59908e-18)
(0.994773 0.0874529 1.15543e-18)
(0.994783 0.0873781 7.56694e-19)
(0.99479 0.0872976 -9.40375e-19)
(0.994794 0.0872118 -9.94203e-19)
(0.994794 0.0871191 4.48867e-19)
(0.994791 0.0870206 6.54505e-19)
(0.994785 0.0869145 -7.69333e-19)
(0.994774 0.0868015 -1.11611e-18)
(0.994759 0.0866809 2.27427e-18)
(0.99474 0.0865525 2.25179e-19)
(0.994716 0.0864178 -3.24871e-18)
(0.994686 0.0862754 2.67987e-19)
(0.99465 0.0861269 2.08637e-18)
(0.994608 0.0859732 2.06389e-19)
(0.99456 0.0858144 2.60743e-18)
(0.994506 0.0856523 -3.43276e-18)
(0.994447 0.0854886 -2.05499e-19)
(0.994383 0.0853241 -2.07324e-18)
(0.994315 0.0851602 8.37223e-19)
(0.994247 0.0849977 3.14154e-18)
(0.994179 0.0848369 9.40104e-18)
(0.994117 0.0846771 1.11885e-18)
(0.994063 0.0845164 -5.38535e-18)
(0.994021 0.0843515 4.02016e-18)
(0.993994 0.0841773 1.33466e-17)
(0.993987 0.0839873 -1.03333e-17)
(0.994001 0.0837724 1.19064e-17)
(0.99404 0.0835203 -6.99061e-18)
(0.994106 0.0832137 -4.02381e-18)
(0.9942 0.0828283 -1.4741e-17)
(0.994326 0.0823213 -8.2148e-19)
(0.994492 0.0816189 -4.64278e-18)
(0.994717 0.0805718 -5.34693e-18)
(0.995046 0.0788392 4.53808e-18)
(0.995587 0.0754512 1.16254e-18)
(0.995527 0.0881419 3.58721e-20)
(0.995489 0.088149 1.25974e-20)
(0.99545 0.0881437 -1.29321e-19)
(0.99541 0.0881374 1.2285e-19)
(0.99537 0.0881301 -5.42627e-20)
(0.99533 0.0881218 9.67926e-20)
(0.995289 0.0881122 3.32345e-20)
(0.995248 0.0881013 -4.79608e-19)
(0.995207 0.0880887 2.06914e-19)
(0.995166 0.088075 -1.40616e-19)
(0.995125 0.0880596 8.45425e-20)
(0.995085 0.0880423 3.26842e-19)
(0.995044 0.0880228 -6.14236e-20)
(0.995005 0.0880011 1.97229e-19)
(0.994965 0.087977 -8.28642e-19)
(0.994927 0.0879498 3.17095e-19)
(0.994888 0.0879193 1.36938e-19)
(0.994851 0.0878859 -3.75444e-19)
(0.994814 0.0878486 7.37282e-19)
(0.994777 0.0878068 2.39181e-19)
(0.994741 0.0877611 -2.80348e-20)
(0.994706 0.0877106 -2.61477e-19)
(0.994671 0.0876539 1.02328e-18)
(0.994636 0.0875948 -2.79168e-18)
(0.994625 0.0875284 1.42576e-18)
(0.994637 0.0874581 5.81396e-19)
(0.994648 0.0873854 -9.26934e-19)
(0.994656 0.087307 1.5862e-18)
(0.99466 0.0872237 -7.48245e-19)
(0.994661 0.0871334 -3.75129e-19)
(0.994659 0.0870376 -6.97505e-19)
(0.994654 0.0869341 -2.77681e-19)
(0.994644 0.086824 7.54138e-19)
(0.994631 0.0867062 -2.20942e-18)
(0.994613 0.0865806 4.09864e-18)
(0.994591 0.0864487 -2.89176e-19)
(0.994563 0.0863087 1.99295e-18)
(0.994531 0.0861624 -5.01436e-18)
(0.994493 0.0860104 -1.50686e-18)
(0.99445 0.0858525 6.18498e-20)
(0.994401 0.0856904 -1.09708e-18)
(0.994347 0.0855258 -1.42824e-19)
(0.994289 0.0853591 -3.72301e-18)
(0.994229 0.0851915 1.30027e-18)
(0.994168 0.085024 1.69351e-18)
(0.994108 0.0848567 -8.79583e-18)
(0.994053 0.084689 1.09638e-17)
(0.994006 0.0845194 1.53467e-18)
(0.993971 0.0843446 5.77834e-19)
(0.99395 0.0841602 -9.41305e-18)
(0.993949 0.0839596 3.07071e-18)
(0.993968 0.0837344 -6.35968e-18)
(0.994012 0.0834723 1.24885e-17)
(0.994081 0.0831562 2.36556e-18)
(0.994179 0.0827613 -1.0644e-17)
(0.994309 0.0822445 3.91801e-18)
(0.994479 0.081531 -1.12707e-17)
(0.994707 0.0804699 -2.57825e-18)
(0.99504 0.0787172 -1.65728e-17)
(0.995613 0.0752951 -3.82119e-18)
(0.995475 0.0881402 -8.10328e-21)
(0.995434 0.0881473 -3.17222e-20)
(0.995392 0.0881421 -2.76092e-20)
(0.995349 0.0881358 2.64613e-19)
(0.995305 0.0881287 -1.46003e-19)
(0.995261 0.0881205 -1.75038e-19)
(0.995217 0.088111 -6.56029e-20)
(0.995172 0.0881001 -2.67713e-19)
(0.995128 0.0880876 1.65691e-19)
(0.995083 0.0880739 2.34482e-20)
(0.995039 0.0880586 8.26266e-21)
(0.994995 0.0880413 6.97696e-19)
(0.994951 0.0880218 -4.91226e-19)
(0.994908 0.0880002 -6.00587e-20)
(0.994865 0.0879761 5.55265e-19)
(0.994822 0.0879491 -3.04111e-19)
(0.99478 0.0879188 -1.16694e-19)
(0.994739 0.0878857 1.85227e-19)
(0.994699 0.0878487 5.93635e-19)
(0.994659 0.0878073 3.22468e-19)
(0.994619 0.0877622 1.1546e-19)
(0.99458 0.0877123 -8.03587e-19)
(0.994542 0.0876563 4.03467e-19)
(0.994504 0.0875982 7.61602e-19)
(0.994492 0.0875329 -1.55862e-18)
(0.994505 0.0874642 4.79136e-19)
(0.994516 0.0873933 -1.83507e-18)
(0.994525 0.0873166 1.44348e-18)
(0.99453 0.0872354 1.21565e-18)
(0.994532 0.0871471 -1.82035e-18)
(0.994531 0.0870536 -8.53114e-19)
(0.994526 0.0869524 1.08888e-18)
(0.994517 0.0868447 3.58874e-19)
(0.994505 0.0867294 -9.38023e-19)
(0.994489 0.0866061 -1.17998e-18)
(0.994469 0.0864765 -1.3729e-18)
(0.994444 0.0863385 8.48223e-19)
(0.994414 0.086194 1.9703e-18)
(0.994379 0.0860433 6.98208e-19)
(0.99434 0.085886 -5.64578e-19)
(0.994296 0.0857238 6.30758e-18)
(0.994248 0.0855581 -7.13866e-19)
(0.994196 0.0853892 6.2058e-18)
(0.994142 0.0852181 -1.08425e-17)
(0.994088 0.0850457 1.77997e-18)
(0.994035 0.0848722 2.80985e-19)
(0.993987 0.0846971 -3.80825e-19)
(0.993947 0.0845189 -7.50304e-18)
(0.993918 0.0843348 -1.15514e-17)
(0.993904 0.0841405 1.00581e-17)
(0.993908 0.0839298 1.28294e-17)
(0.993933 0.0836946 6.64681e-18)
(0.993981 0.0834227 -1.23055e-17)
(0.994055 0.083097 6.48874e-18)
(0.994158 0.0826928 1.55152e-17)
(0.994292 0.0821662 6.68444e-18)
(0.994466 0.0814417 1.09895e-17)
(0.994697 0.0803666 5.5726e-18)
(0.995035 0.0785937 1.63005e-17)
(0.995642 0.0751362 -1.22951e-17)
(0.995424 0.0881419 1.0648e-20)
(0.99538 0.0881494 -3.17916e-20)
(0.995335 0.0881444 1.13294e-19)
(0.995288 0.0881383 2.9677e-20)
(0.995241 0.0881312 -1.54335e-19)
(0.995194 0.088123 -1.77299e-19)
(0.995146 0.0881134 4.17028e-19)
(0.995098 0.0881024 -4.5273e-19)
(0.99505 0.0880897 -1.10838e-19)
(0.995002 0.088076 2.75765e-19)
(0.994954 0.0880605 2.53841e-19)
(0.994906 0.0880432 7.66525e-19)
(0.994859 0.0880238 -4.27582e-19)
(0.994812 0.0880022 -7.28838e-19)
(0.994766 0.0879782 1.59352e-19)
(0.99472 0.0879511 -5.84286e-19)
(0.994675 0.0879209 4.36611e-19)
(0.99463 0.087888 -7.25909e-19)
(0.994586 0.0878512 1.18689e-19)
(0.994543 0.08781 -2.31952e-19)
(0.9945 0.0877652 -1.43448e-19)
(0.994458 0.0877157 -6.2418e-19)
(0.994416 0.0876601 6.20786e-20)
(0.994375 0.0876029 1.33728e-18)
(0.994361 0.0875385 -4.47467e-19)
(0.994375 0.0874711 1.35715e-19)
(0.994388 0.0874016 3.78386e-19)
(0.994397 0.0873264 -4.74251e-19)
(0.994403 0.087247 -9.81578e-20)
(0.994405 0.0871604 6.27367e-19)
(0.994405 0.0870689 6.70941e-19)
(0.994401 0.0869696 -4.82011e-19)
(0.994393 0.0868638 -1.51442e-18)
(0.994382 0.0867505 -2.11354e-18)
(0.994367 0.0866291 3.15385e-18)
(0.994349 0.0865016 8.56331e-19)
(0.994326 0.0863651 5.47648e-19)
(0.994298 0.0862219 2.60855e-18)
(0.994267 0.0860723 -2.29676e-18)
(0.994231 0.0859153 1.41992e-18)
(0.994191 0.0857527 7.16385e-20)
(0.994148 0.0855859 4.99569e-20)
(0.994102 0.0854147 -2.27774e-18)
(0.994054 0.0852401 5.13737e-18)
(0.994006 0.0850631 -6.62582e-18)
(0.99396 0.0848837 3.84197e-18)
(0.993919 0.0847015 -1.04862e-17)
(0.993886 0.0845152 2.62545e-18)
(0.993863 0.0843221 6.14337e-18)
(0.993856 0.0841182 -1.02856e-17)
(0.993865 0.0838978 -2.17227e-18)
(0.993896 0.0836527 -2.96875e-19)
(0.993949 0.0833712 -2.48209e-18)
(0.994028 0.0830362 -7.12591e-18)
(0.994136 0.0826227 4.27361e-19)
(0.994274 0.0820864 6.89568e-18)
(0.994452 0.0813509 -6.90833e-18)
(0.994688 0.0802619 -1.86199e-18)
(0.995031 0.0784686 -2.0454e-18)
(0.995674 0.0749746 9.40699e-18)
(0.995374 0.0881466 2.01705e-20)
(0.995327 0.0881537 -1.69357e-20)
(0.995278 0.0881486 1.55295e-20)
(0.995229 0.0881424 9.90886e-20)
(0.995179 0.0881353 1.43636e-19)
(0.995128 0.0881272 -5.56371e-19)
(0.995077 0.0881177 4.00282e-19)
(0.995025 0.0881066 8.32206e-20)
(0.994974 0.0880939 -2.46667e-20)
(0.994922 0.0880802 -1.77443e-19)
(0.994871 0.0880648 5.40563e-19)
(0.99482 0.0880474 -1.74077e-19)
(0.994769 0.0880279 -2.39508e-19)
(0.994719 0.0880063 -7.10255e-19)
(0.994669 0.0879823 1.4086e-18)
(0.994619 0.0879553 -2.89863e-19)
(0.994571 0.087925 -2.40087e-19)
(0.994523 0.0878922 -7.06331e-19)
(0.994475 0.0878556 7.73124e-19)
(0.994429 0.0878144 4.23286e-19)
(0.994383 0.0877698 -1.95121e-19)
(0.994337 0.0877206 3.25264e-19)
(0.994292 0.0876652 -1.3805e-18)
(0.994248 0.0876088 9.74393e-20)
(0.994233 0.087545 7.37826e-19)
(0.994248 0.0874786 -1.33212e-19)
(0.994261 0.0874104 -2.09264e-18)
(0.994271 0.0873364 1.88108e-19)
(0.994278 0.0872585 1.73614e-18)
(0.994281 0.0871732 -4.52135e-19)
(0.994281 0.0870833 -8.40139e-19)
(0.994278 0.0869855 4.83273e-19)
(0.994271 0.0868815 1.36236e-18)
(0.994261 0.0867698 3.12684e-18)
(0.994248 0.0866499 -4.70518e-19)
(0.99423 0.086524 6.30161e-19)
(0.994209 0.0863888 -4.5921e-18)
(0.994184 0.0862465 -1.26118e-18)
(0.994156 0.0860976 7.95231e-19)
(0.994123 0.0859407 -3.26637e-18)
(0.994087 0.0857775 -6.56445e-19)
(0.994048 0.0856093 1.46067e-18)
(0.994007 0.0854359 1.24533e-18)
(0.993965 0.0852579 3.19886e-18)
(0.993923 0.0850763 1.00601e-17)
(0.993883 0.0848913 -7.72059e-18)
(0.993849 0.0847023 1.20183e-17)
(0.993822 0.0845081 8.71582e-18)
(0.993806 0.0843064 -5.58416e-20)
(0.993805 0.0840933 1.06602e-17)
(0.993821 0.0838633 -1.3803e-17)
(0.993857 0.0836087 -1.60249e-17)
(0.993916 0.0833178 1.21127e-17)
(0.994 0.0829735 1.01718e-17)
(0.994113 0.0825509 -4.30629e-18)
(0.994256 0.082005 -2.31171e-17)
(0.994439 0.0812586 5.29453e-18)
(0.994679 0.0801557 -5.77101e-18)
(0.995027 0.0783418 -8.46213e-18)
(0.995709 0.0748102 8.18465e-18)
(0.995325 0.088154 -2.20916e-20)
(0.995275 0.0881617 2.4064e-20)
(0.995223 0.0881568 1.63701e-19)
(0.99517 0.0881507 -2.12628e-19)
(0.995117 0.0881437 3.85262e-19)
(0.995063 0.0881354 -5.62833e-19)
(0.995008 0.0881258 1.58175e-19)
(0.994953 0.0881146 -7.70712e-21)
(0.994899 0.0881016 3.47432e-19)
(0.994844 0.0880877 -1.81796e-19)
(0.994789 0.0880721 5.3558e-20)
(0.994734 0.0880546 5.43085e-20)
(0.99468 0.088035 -8.41785e-19)
(0.994626 0.0880133 2.49916e-19)
(0.994573 0.0879892 5.72565e-19)
(0.99452 0.087962 1.70532e-20)
(0.994468 0.0879315 -9.36849e-19)
(0.994417 0.0878986 3.79965e-19)
(0.994366 0.0878619 1.74506e-18)
(0.994316 0.0878206 -1.13052e-18)
(0.994267 0.0877761 -8.46919e-19)
(0.994218 0.087727 7.09036e-19)
(0.994171 0.0876716 4.50007e-19)
(0.994123 0.0876156 4.91455e-19)
(0.994107 0.0875523 -9.32088e-19)
(0.994123 0.0874867 -1.92212e-18)
(0.994137 0.0874195 1.40119e-18)
(0.994148 0.0873465 1.9088e-18)
(0.994155 0.0872698 5.05886e-19)
(0.994159 0.0871856 -9.8014e-19)
(0.99416 0.087097 4.31522e-19)
(0.994157 0.0870004 7.07231e-19)
(0.994151 0.0868977 -1.18149e-18)
(0.994142 0.0867873 -1.82176e-19)
(0.99413 0.0866686 -2.00266e-18)
(0.994114 0.0865439 -5.12255e-19)
(0.994094 0.0864096 -4.94991e-19)
(0.994072 0.0862681 1.2939e-18)
(0.994045 0.0861195 -1.80012e-18)
(0.994016 0.0859624 4.91174e-19)
(0.993983 0.0857984 8.36709e-19)
(0.993949 0.0856288 2.16546e-19)
(0.993912 0.085453 -4.84968e-18)
(0.993875 0.0852716 -6.61215e-18)
(0.993838 0.0850856 -5.57666e-18)
(0.993805 0.084895 1.09656e-17)
(0.993777 0.0846995 4.50605e-19)
(0.993757 0.0844977 -4.14346e-18)
(0.993747 0.0842877 2.15155e-18)
(0.993752 0.0840656 -1.28553e-17)
(0.993774 0.0838265 5.99513e-18)
(0.993816 0.0835625 1.61875e-17)
(0.993881 0.0832624 -7.90859e-19)
(0.993971 0.082909 -1.35352e-17)
(0.994089 0.0824773 6.21534e-18)
(0.994238 0.0819218 5.74666e-18)
(0.994426 0.0811646 7.24595e-18)
(0.994671 0.0800478 1.63951e-17)
(0.995025 0.0782132 1.58447e-17)
(0.995746 0.074643 -1.88146e-17)
(0.995275 0.0881641 -1.90276e-20)
(0.995223 0.0881718 2.73382e-20)
(0.995168 0.0881669 5.71995e-21)
(0.995112 0.0881608 1.03332e-19)
(0.995055 0.0881538 -1.55698e-19)
(0.994998 0.0881456 -3.17929e-19)
(0.99494 0.088136 1.12456e-19)
(0.994882 0.0881247 -1.49636e-19)
(0.994824 0.0881115 3.22131e-19)
(0.994766 0.0880975 -6.444e-20)
(0.994707 0.0880818 -2.10209e-19)
(0.994649 0.088064 1.72365e-19)
(0.994592 0.0880442 2.77057e-19)
(0.994535 0.0880222 7.56922e-19)
(0.994478 0.0879979 -1.36154e-18)
(0.994422 0.0879704 6.87359e-19)
(0.994367 0.0879397 1.01725e-19)
(0.994312 0.0879067 -6.61909e-19)
(0.994258 0.0878698 -4.06416e-19)
(0.994205 0.0878283 1.32065e-18)
(0.994153 0.0877838 -1.36555e-18)
(0.994101 0.0877347 4.06864e-19)
(0.99405 0.0876791 -1.0653e-18)
(0.994 0.0876234 1.77073e-18)
(0.993983 0.0875604 -3.50408e-19)
(0.994 0.0874953 -9.30386e-19)
(0.994015 0.0874289 7.26528e-19)
(0.994026 0.0873566 1.29493e-18)
(0.994034 0.087281 -1.16905e-18)
(0.994039 0.0871975 6.88324e-19)
(0.99404 0.08711 -2.25275e-18)
(0.994038 0.0870143 -2.29222e-19)
(0.994033 0.0869127 9.0791e-19)
(0.994024 0.0868033 -5.28211e-19)
(0.994013 0.0866854 -1.05726e-18)
(0.993998 0.0865616 -2.42416e-18)
(0.99398 0.0864278 3.0313e-18)
(0.993959 0.0862867 -1.21129e-18)
(0.993936 0.0861382 8.89224e-19)
(0.993909 0.0859807 1.82496e-18)
(0.99388 0.0858157 1.45623e-18)
(0.993849 0.0856445 -8.2865e-19)
(0.993816 0.0854662 2.86307e-18)
(0.993784 0.0852815 5.26641e-18)