/*--------------------------------*- C++ -*----------------------------------*\
  =========                 |
  \\      /  F ield         | OpenFOAM: The Open Source CFD Toolbox
   \\    /   O peration     | Website:  https://openfoam.org
    \\  /    A nd           | Version:  6.0
     \\/     M anipulation  |
\*---------------------------------------------------------------------------*/
FoamFile
{
    version     2.0;
    format      ascii;
    class       volScalarField;
    location    "11";
    object      p;
}
// * * * * * * * * * * * * * * * * * * * * * * * * * * * * * * * * * * * * * //

dimensions      [0 2 -2 0 0 0 0];

internalField   nonuniform List<scalar> 
34500
(
1.0067
1.00815
1.00927
1.00883
1.00742
1.00643
1.00637
1.00649
1.00637
1.00574
1.00485
1.00386
1.00281
1.00216
1.0018
1.00668
1.00817
1.00941
1.00909
1.00768
1.00665
1.00664
1.00695
1.00711
1.00669
1.0059
1.0049
1.00369
1.003
1.00242
1.00665
1.00812
1.00936
1.00905
1.00749
1.00613
1.00576
1.00588
1.00601
1.00573
1.00511
1.00429
1.00324
1.00273
1.00224
1.0066
1.00808
1.00943
1.00928
1.00776
1.0062
1.00548
1.00531
1.0053
1.00504
1.00452
1.00384
1.00295
1.00258
1.00229
1.00655
1.00806
1.00959
1.00979
1.00856
1.00706
1.00617
1.00576
1.00557
1.00521
1.00465
1.00396
1.00308
1.00268
1.0024
1.00648
1.008
1.00969
1.01025
1.00942
1.00816
1.00725
1.00668
1.0063
1.00577
1.00508
1.00428
1.00328
1.00275
1.00237
1.0064
1.00785
1.00958
1.01039
1.00994
1.00894
1.0081
1.00745
1.00691
1.00622
1.00537
1.00443
1.0033
1.00262
1.00215
1.00629
1.0076
1.00924
1.01015
1.00995
1.0092
1.00846
1.00778
1.00714
1.00632
1.00535
1.00429
1.00307
1.0023
1.00182
1.00618
1.00728
1.00873
1.00959
1.00953
1.00895
1.00832
1.00765
1.00696
1.00606
1.00502
1.00391
1.00266
1.00186
1.00142
1.00605
1.00694
1.00813
1.00883
1.0088
1.00834
1.00779
1.00716
1.00645
1.00554
1.00448
1.00337
1.00214
1.00135
1.00099
1.00593
1.00659
1.0075
1.00801
1.00794
1.00752
1.00704
1.00645
1.00576
1.00486
1.00382
1.00275
1.00159
1.00083
1.00054
1.0058
1.00627
1.00692
1.00721
1.00705
1.00664
1.0062
1.00565
1.005
1.00413
1.00313
1.00212
1.00104
1.00031
1.0001
1.00568
1.00598
1.00639
1.00648
1.00622
1.00579
1.00537
1.00485
1.00423
1.00341
1.00246
1.00151
1.00051
0.999821
0.999667
1.00557
1.00572
1.00595
1.00585
1.00549
1.00502
1.00461
1.0041
1.00352
1.00273
1.00183
1.00095
1.00001
0.999347
0.999237
1.00547
1.00551
1.00558
1.00533
1.00487
1.00436
1.00393
1.00343
1.00286
1.00212
1.00126
1.00043
0.999539
0.99889
0.998805
1.00537
1.00532
1.00527
1.0049
1.00436
1.0038
1.00335
1.00284
1.00228
1.00156
1.00073
0.999939
0.999091
0.998443
0.998373
1.00527
1.00516
1.00502
1.00455
1.00394
1.00333
1.00285
1.00233
1.00176
1.00105
1.00024
0.999479
0.998659
0.998002
0.997934
1.00518
1.00502
1.0048
1.00426
1.00359
1.00293
1.00241
1.00187
1.00129
1.00058
0.999783
0.999037
0.998233
0.997562
0.99749
1.00509
1.00489
1.00461
1.00401
1.00329
1.00259
1.00203
1.00145
1.00086
1.00014
0.999343
0.998606
0.997809
0.997118
0.997036
1.005
1.00477
1.00444
1.00379
1.00303
1.00228
1.00168
1.00107
1.00045
0.99971
0.998912
0.998177
0.997381
0.996669
0.996574
1.00492
1.00466
1.00428
1.00359
1.00279
1.002
1.00135
1.0007
1.00005
0.999292
0.998485
0.997746
0.996947
0.996212
0.996099
1.00483
1.00454
1.00412
1.00339
1.00255
1.00172
1.00103
1.00034
0.999651
0.998875
0.998055
0.99731
0.996504
0.995745
0.995616
1.00475
1.00442
1.00396
1.00319
1.00232
1.00145
1.00071
0.999974
0.999255
0.998455
0.997619
0.996866
0.996052
0.995269
0.99512
1.00465
1.0043
1.00379
1.00298
1.00207
1.00117
1.00038
0.999608
0.998852
0.998028
0.997175
0.996412
0.995587
0.994781
0.994615
1.00456
1.00418
1.00362
1.00276
1.00183
1.00088
1.00005
0.999234
0.998443
0.997592
0.996722
0.995947
0.995113
0.994284
0.994099
1.00447
1.00404
1.00344
1.00254
1.00157
1.00058
0.999708
0.998849
0.998022
0.997146
0.996258
0.995472
0.994625
0.993776
0.993572
1.00437
1.00391
1.00325
1.00231
1.0013
1.00027
0.999354
0.998455
0.997593
0.99669
0.995784
0.994985
0.994128
0.993258
0.993035
1.00426
1.00377
1.00305
1.00206
1.00101
0.999944
0.998987
0.998047
0.99715
0.996222
0.995298
0.994487
0.993618
0.992728
0.992488
1.00416
1.00363
1.00285
1.00181
1.00072
0.99961
0.998609
0.99763
0.996699
0.995744
0.994803
0.993979
0.993099
0.992189
0.99193
1.00405
1.00348
1.00264
1.00155
1.00041
0.999261
0.998218
0.9972
0.996234
0.995255
0.994296
0.993459
0.992566
0.991638
0.991362
1.00394
1.00333
1.00243
1.00128
1.0001
0.998904
0.997817
0.99676
0.995761
0.994756
0.993779
0.99293
0.992025
0.991077
0.990783
1.00382
1.00317
1.00221
1.001
0.999769
0.998533
0.997403
0.996307
0.995275
0.994246
0.993251
0.992389
0.99147
0.990505
0.990194
1.0037
1.00301
1.00198
1.00072
0.999435
0.998155
0.996981
0.995846
0.994781
0.993727
0.992714
0.991838
0.990907
0.989923
0.989591
1.00358
1.00284
1.00175
1.00042
0.99909
0.997764
0.996546
0.995373
0.994276
0.993197
0.992166
0.991276
0.990331
0.989328
0.988978
1.00345
1.00268
1.00152
1.00012
0.998739
0.997366
0.996103
0.994892
0.993762
0.992658
0.991609
0.990705
0.989746
0.988724
0.988351
1.00332
1.0025
1.00128
0.999817
0.998377
0.996956
0.995649
0.994399
0.993236
0.992108
0.99104
0.990122
0.989148
0.988106
0.987712
1.00319
1.00233
1.00103
0.999506
0.99801
0.99654
0.995187
0.993899
0.992703
0.99155
0.990463
0.98953
0.988541
0.987479
0.987057
1.00305
1.00215
1.00079
0.999187
0.997633
0.996112
0.994713
0.993387
0.992158
0.99098
0.989875
0.988926
0.987921
0.986838
0.986392
1.00291
1.00197
1.00053
0.998865
0.997251
0.995679
0.994233
0.992867
0.991606
0.990402
0.989278
0.988313
0.987293
0.986187
0.985711
1.00276
1.00179
1.00028
0.998535
0.996859
0.995234
0.993741
0.992335
0.991041
0.989813
0.988669
0.987687
0.98665
0.985523
0.98502
1.00262
1.0016
1.00002
0.998201
0.996462
0.994784
0.993242
0.991796
0.990469
0.989215
0.988051
0.987053
0.985999
0.984849
0.984315
1.00247
1.00141
0.999753
0.99786
0.996055
0.994322
0.992731
0.991245
0.989885
0.988605
0.987422
0.986406
0.985335
0.984161
0.9836
1.00233
1.00122
0.999486
0.997516
0.995645
0.993854
0.992214
0.990687
0.989293
0.987987
0.986783
0.98575
0.984661
0.983463
0.98287
1.00217
1.00102
0.999214
0.997163
0.995223
0.993375
0.991684
0.990116
0.988688
0.987357
0.986132
0.985082
0.983974
0.982751
0.982131
1.00202
1.00083
0.99894
0.996808
0.994798
0.99289
0.991148
0.989538
0.988076
0.986718
0.985472
0.984404
0.983278
0.98203
0.981378
1.00186
1.00063
0.99866
0.996445
0.994363
0.992394
0.990599
0.988947
0.98745
0.986066
0.9848
0.983713
0.982567
0.981294
0.980615
1.00171
1.00043
0.998379
0.996079
0.993923
0.991892
0.990044
0.988348
0.986817
0.985406
0.984118
0.983012
0.981848
0.98055
0.97984
1.00155
1.00022
0.998092
0.995704
0.993473
0.991378
0.989475
0.987737
0.98617
0.984733
0.983423
0.982299
0.981114
0.979791
0.979054
1.00139
1.00002
0.997804
0.995327
0.993018
0.990859
0.9889
0.987117
0.985515
0.984051
0.982719
0.981576
0.980372
0.979023
0.978255
1.00123
0.999813
0.997511
0.994942
0.992553
0.990327
0.988312
0.986484
0.984846
0.983355
0.982002
0.980839
0.979614
0.97824
0.977447
1.00107
0.999607
0.997216
0.994554
0.992084
0.989789
0.987717
0.985843
0.984169
0.98265
0.981275
0.980092
0.978848
0.977448
0.976625
1.00091
0.999396
0.996916
0.994158
0.991604
0.989239
0.987108
0.985188
0.983478
0.981931
0.980534
0.979331
0.978067
0.976642
0.975793
1.00075
0.999187
0.996615
0.99376
0.99112
0.988683
0.986492
0.984525
0.982778
0.981204
0.979783
0.978561
0.977276
0.975826
0.974948
1.00059
0.998973
0.996308
0.993352
0.990624
0.988114
0.985863
0.983848
0.982064
0.980461
0.979019
0.977776
0.97647
0.974995
0.974091
1.00043
0.998763
0.996
0.992943
0.990125
0.98754
0.985226
0.983162
0.981341
0.97971
0.978244
0.976982
0.975656
0.974155
0.973222
1.00027
0.998547
0.995687
0.992525
0.989614
0.986952
0.984574
0.982462
0.980602
0.978943
0.977455
0.976173
0.974825
0.973299
0.97234
1.00011
0.998335
0.995374
0.992104
0.989099
0.986358
0.983916
0.981753
0.979855
0.978168
0.976656
0.975353
0.973985
0.972434
0.971446
0.99995
0.998118
0.995054
0.991675
0.988573
0.985751
0.983242
0.981029
0.979093
0.977376
0.975842
0.974519
0.973129
0.971553
0.970538
0.999795
0.997906
0.994735
0.991243
0.988042
0.985137
0.982561
0.980296
0.978321
0.976576
0.975018
0.973675
0.972264
0.970663
0.969618
0.999636
0.997689
0.99441
0.990803
0.9875
0.98451
0.981866
0.979548
0.977533
0.975759
0.974178
0.972814
0.971381
0.969755
0.968684
0.999483
0.997476
0.994086
0.99036
0.986953
0.983877
0.981162
0.978791
0.976736
0.974933
0.973328
0.971944
0.97049
0.968838
0.967738
0.999328
0.997259
0.993756
0.989909
0.986395
0.983229
0.980443
0.978017
0.975923
0.97409
0.972463
0.971058
0.969581
0.967904
0.966776
0.99918
0.997047
0.993426
0.989456
0.985832
0.982576
0.979717
0.977235
0.9751
0.973238
0.971587
0.970161
0.968663
0.96696
0.965803
0.999029
0.996832
0.993091
0.988994
0.985257
0.981908
0.978974
0.976437
0.97426
0.972369
0.970694
0.969248
0.967727
0.965999
0.964812
0.998885
0.996621
0.992757
0.98853
0.984678
0.981234
0.978224
0.975629
0.973411
0.97149
0.969792
0.968324
0.966782
0.965027
0.963811
0.99874
0.996408
0.992417
0.988057
0.984087
0.980545
0.977457
0.974805
0.972545
0.970594
0.968872
0.967384
0.965818
0.964037
0.962791
0.998602
0.9962
0.992079
0.987582
0.983492
0.97985
0.976683
0.973971
0.971669
0.969688
0.967942
0.966433
0.964845
0.963037
0.96176
0.998463
0.995989
0.991735
0.987099
0.982884
0.97914
0.975892
0.97312
0.970775
0.968764
0.966994
0.965464
0.963852
0.962018
0.960711
0.998332
0.995784
0.991393
0.986614
0.982272
0.978424
0.975093
0.97226
0.969871
0.96783
0.966036
0.964485
0.96285
0.960989
0.95965
0.9982
0.995577
0.991047
0.98612
0.981648
0.977692
0.974277
0.971382
0.968949
0.966878
0.96506
0.963487
0.961829
0.95994
0.95857
0.998077
0.995376
0.990701
0.985624
0.981019
0.976954
0.973453
0.970495
0.968018
0.965915
0.964074
0.962479
0.960798
0.958881
0.957478
0.997955
0.995173
0.990352
0.98512
0.980379
0.976201
0.972612
0.969589
0.967067
0.964934
0.963069
0.961453
0.959746
0.957802
0.956366
0.997841
0.994977
0.990004
0.984614
0.979733
0.975441
0.971763
0.968674
0.966107
0.963943
0.962053
0.960415
0.958685
0.956712
0.955243
0.997728
0.99478
0.989652
0.9841
0.979076
0.974666
0.970896
0.967741
0.965128
0.962932
0.961019
0.959359
0.957604
0.955601
0.954098
0.997625
0.99459
0.989302
0.983585
0.978414
0.973885
0.970021
0.966798
0.964138
0.961911
0.959973
0.958291
0.956512
0.95448
0.952943
0.997523
0.9944
0.988949
0.983061
0.97774
0.973088
0.969129
0.965837
0.96313
0.960871
0.958909
0.957204
0.955399
0.953337
0.951765
0.997432
0.994217
0.988598
0.982537
0.977062
0.972284
0.968227
0.964865
0.96211
0.95982
0.957833
0.956106
0.954276
0.952184
0.950576
0.997343
0.994034
0.988243
0.982003
0.976371
0.971464
0.967309
0.963875
0.961072
0.958749
0.956737
0.954988
0.953131
0.951008
0.949364
0.997264
0.993858
0.987892
0.98147
0.975676
0.970638
0.966381
0.962874
0.960022
0.957667
0.955631
0.953858
0.951976
0.949822
0.948141
0.997188
0.993684
0.987537
0.980928
0.974969
0.969796
0.965436
0.961855
0.958953
0.956565
0.954504
0.952708
0.950799
0.948613
0.946895
0.997124
0.993518
0.987186
0.980385
0.974258
0.968947
0.964482
0.960825
0.957873
0.955452
0.953365
0.951547
0.949612
0.947393
0.945637
0.997063
0.993353
0.986832
0.979835
0.973534
0.968083
0.96351
0.959777
0.956773
0.954319
0.952206
0.950364
0.948402
0.94615
0.944355
0.997014
0.993197
0.986481
0.979284
0.972807
0.967212
0.962529
0.958717
0.955661
0.953174
0.951036
0.94917
0.947181
0.944896
0.943062
0.99697
0.993043
0.986128
0.978725
0.972067
0.966326
0.96153
0.957639
0.95453
0.952008
0.949844
0.947955
0.945937
0.943618
0.941744
0.996938
0.992898
0.98578
0.978167
0.971324
0.965432
0.960522
0.95655
0.953387
0.950831
0.948641
0.946728
0.944683
0.942329
0.940415
0.996911
0.992756
0.985429
0.977601
0.970568
0.964523
0.959496
0.955441
0.952223
0.949632
0.947416
0.945479
0.943405
0.941016
0.93906
0.996897
0.992623
0.985083
0.977035
0.969809
0.963608
0.958461
0.954322
0.951049
0.948423
0.94618
0.944218
0.942116
0.939692
0.937694
0.99689
0.992494
0.984735
0.976462
0.969039
0.962676
0.957408
0.953182
0.949853
0.947191
0.944921
0.942935
0.940804
0.938343
0.936302
0.996895
0.992375
0.984393
0.97589
0.968264
0.961738
0.956346
0.952033
0.948646
0.945948
0.943651
0.94164
0.93948
0.936982
0.934899
0.996908
0.99226
0.984049
0.975311
0.967478
0.960785
0.955266
0.950863
0.947417
0.944682
0.942358
0.940322
0.938132
0.935597
0.93347
0.996935
0.992155
0.983711
0.974733
0.966689
0.959825
0.954177
0.949683
0.946177
0.943406
0.941054
0.938993
0.936774
0.934201
0.932029
0.996969
0.992056
0.983372
0.974148
0.965888
0.958851
0.953069
0.948483
0.944916
0.942106
0.939727
0.93764
0.93539
0.932779
0.930561
0.997018
0.991967
0.983039
0.973564
0.965084
0.957869
0.951953
0.947272
0.943643
0.940795
0.938388
0.936276
0.933996
0.931346
0.929082
0.997075
0.991885
0.982706
0.972975
0.96427
0.956873
0.950819
0.946041
0.942349
0.939462
0.937025
0.934888
0.932577
0.929887
0.927576
0.997147
0.991813
0.98238
0.972387
0.963452
0.95587
0.949676
0.944799
0.941043
0.938116
0.935651
0.933488
0.931147
0.928417
0.926059
0.997229
0.991748
0.982053
0.971793
0.962624
0.954852
0.948515
0.943537
0.939715
0.936748
0.934254
0.932065
0.929692
0.926921
0.924513
0.997326
0.991694
0.981734
0.971201
0.961793
0.953828
0.947345
0.942265
0.938375
0.935368
0.932844
0.930629
0.928226
0.925414
0.922958
0.997433
0.991648
0.981415
0.970604
0.960952
0.952791
0.946158
0.940972
0.937014
0.933964
0.931411
0.92917
0.926735
0.92388
0.921373
0.997556
0.991614
0.981104
0.97001
0.960109
0.951747
0.944962
0.939669
0.935641
0.932549
0.929967
0.927699
0.925233
0.922336
0.919779
0.99769
0.991588
0.980794
0.96941
0.959256
0.950689
0.943748
0.938346
0.934246
0.931111
0.928498
0.926204
0.923706
0.920765
0.918155
0.99784
0.991574
0.980493
0.968814
0.958401
0.949625
0.942526
0.937012
0.932839
0.92966
0.927017
0.924698
0.922168
0.919183
0.916522
0.998002
0.991569
0.980193
0.968213
0.957537
0.948549
0.941287
0.935659
0.931411
0.928187
0.925513
0.923166
0.920605
0.917575
0.914859
0.998181
0.991577
0.979901
0.967616
0.956671
0.947466
0.94004
0.934295
0.929971
0.926701
0.923997
0.921624
0.919031
0.915956
0.913187
0.998372
0.991594
0.979612
0.967015
0.955797
0.946372
0.938776
0.932912
0.928509
0.925193
0.922456
0.920058
0.917432
0.914311
0.911485
0.998579
0.991624
0.979332
0.966418
0.954922
0.945271
0.937504
0.931518
0.927035
0.923672
0.920905
0.91848
0.915823
0.912655
0.909774
0.9988
0.991664
0.979054
0.965818
0.954039
0.944159
0.936217
0.930105
0.92554
0.922128
0.919329
0.916878
0.914188
0.910973
0.908033
0.999038
0.991717
0.978786
0.965222
0.953156
0.943043
0.934921
0.928682
0.924034
0.920573
0.917743
0.915266
0.912544
0.90928
0.906283
0.999289
0.991782
0.978522
0.964624
0.952266
0.941915
0.93361
0.92724
0.922506
0.918994
0.916132
0.913629
0.910874
0.907562
0.904504
0.999557
0.991859
0.978267
0.964031
0.951375
0.940783
0.932292
0.925788
0.920967
0.917404
0.91451
0.911982
0.909195
0.905833
0.902716
0.99984
0.991948
0.978016
0.963436
0.950479
0.939641
0.930959
0.924319
0.919407
0.915791
0.912865
0.91031
0.907491
0.904078
0.900898
1.00014
0.992049
0.977775
0.962847
0.949582
0.938494
0.92962
0.922839
0.917836
0.914166
0.911209
0.908629
0.905778
0.902314
0.899073
1.00045
0.992163
0.977539
0.962257
0.948681
0.937339
0.928266
0.921342
0.916244
0.912519
0.909529
0.906924
0.90404
0.900524
0.897217
1.00078
0.99229
0.977313
0.961672
0.947781
0.936181
0.926907
0.919836
0.914642
0.910861
0.907839
0.905209
0.902294
0.898725
0.895354
1.00113
0.99243
0.977092
0.961088
0.946877
0.935015
0.925534
0.918312
0.91302
0.909181
0.906126
0.903471
0.900524
0.8969
0.893462
1.00149
0.992582
0.976882
0.96051
0.945975
0.933846
0.924156
0.91678
0.911387
0.90749
0.904404
0.901725
0.898745
0.895067
0.891562
1.00187
0.992747
0.976677
0.959933
0.94507
0.93267
0.922766
0.915232
0.909735
0.905778
0.902658
0.899955
0.896943
0.893209
0.889633
1.00226
0.992925
0.976483
0.959362
0.944167
0.931492
0.921371
0.913676
0.908072
0.904055
0.900904
0.898177
0.895133
0.891343
0.887699
1.00267
0.993116
0.976295
0.958793
0.943263
0.930309
0.919965
0.912105
0.906392
0.902311
0.899127
0.896376
0.893301
0.889452
0.885734
1.0031
0.993318
0.976118
0.958232
0.942361
0.929125
0.918555
0.910525
0.904701
0.900557
0.897341
0.894568
0.891461
0.887554
0.883764
1.00354
0.993534
0.975947
0.957673
0.941459
0.927937
0.917136
0.908932
0.902993
0.898784
0.895534
0.892738
0.889599
0.885632
0.881765
1.00399
0.993762
0.975787
0.957121
0.940561
0.926748
0.915712
0.907331
0.901276
0.897
0.893719
0.890902
0.887732
0.883704
0.879762
1.00446
0.994003
0.975633
0.956573
0.939664
0.925557
0.914281
0.905718
0.899542
0.895197
0.891883
0.889044
0.885843
0.881752
0.877729
1.00494
0.994254
0.97549
0.956033
0.938771
0.924366
0.912847
0.904097
0.897799
0.893385
0.89004
0.887181
0.883949
0.879795
0.875693
1.00544
0.994518
0.975353
0.955497
0.93788
0.923175
0.911407
0.902465
0.896041
0.891555
0.888177
0.885297
0.882034
0.877814
0.873628
1.00595
0.994792
0.975227
0.95497
0.936994
0.921984
0.909964
0.900827
0.894274
0.889716
0.886307
0.883409
0.880115
0.87583
0.871561
1.00647
0.995078
0.975107
0.954447
0.936113
0.920794
0.908517
0.899179
0.892493
0.887861
0.884419
0.8815
0.878176
0.873823
0.869464
1.00701
0.995372
0.974997
0.953933
0.935236
0.919606
0.907068
0.897526
0.890704
0.885997
0.882524
0.879589
0.876235
0.871814
0.867367
1.00755
0.995679
0.974894
0.953424
0.934365
0.91842
0.905616
0.895864
0.888902
0.884118
0.880612
0.877659
0.874275
0.869782
0.86524
1.00811
0.995992
0.9748
0.952924
0.933501
0.917238
0.904164
0.894197
0.887093
0.882231
0.878695
0.875728
0.872314
0.867749
0.863114
1.00867
0.996317
0.974712
0.95243
0.932642
0.916059
0.90271
0.892523
0.885272
0.88033
0.876762
0.873778
0.870335
0.865695
0.860958
1.00925
0.996647
0.974632
0.951945
0.931791
0.914885
0.901257
0.890845
0.883444
0.878422
0.874825
0.871828
0.868357
0.863641
0.858803
1.00983
0.996986
0.974559
0.951467
0.930948
0.913716
0.899804
0.889161
0.881607
0.876501
0.872873
0.869862
0.866361
0.861567
0.856619
1.01042
0.99733
0.974493
0.950998
0.930112
0.912552
0.898352
0.887475
0.879763
0.874575
0.870919
0.867897
0.864369
0.859494
0.854437
1.01102
0.997681
0.974432
0.950536
0.929286
0.911395
0.896902
0.885784
0.877911
0.872637
0.868951
0.865918
0.862361
0.857403
0.852226
1.01162
0.998035
0.974378
0.950083
0.928469
0.910245
0.895455
0.884092
0.876054
0.870694
0.866982
0.863941
0.860357
0.855314
0.850018
1.01222
0.998395
0.974329
0.949637
0.927662
0.909104
0.894011
0.882397
0.87419
0.868742
0.865001
0.861951
0.85834
0.853207
0.847782
1.01283
0.998755
0.974284
0.949201
0.926864
0.90797
0.892571
0.8807
0.872321
0.866786
0.863021
0.859966
0.856328
0.851105
0.845549
1.01344
0.999119
0.974244
0.948773
0.926078
0.906847
0.891137
0.879004
0.870448
0.864823
0.861031
0.85797
0.854306
0.848985
0.843288
1.01404
0.999481
0.974208
0.948353
0.925303
0.905733
0.889706
0.877307
0.86857
0.862856
0.859043
0.855981
0.852291
0.846871
0.841029
1.01465
0.999844
0.974175
0.947942
0.924541
0.904631
0.888284
0.875611
0.866689
0.860884
0.857048
0.853984
0.850267
0.84474
0.838738
1.01525
1.0002
0.974144
0.94754
0.923789
0.903539
0.886866
0.873915
0.864806
0.858911
0.855056
0.851996
0.848254
0.842616
0.836448
1.01585
1.00056
0.974116
0.947147
0.923053
0.902461
0.885458
0.872223
0.862921
0.856934
0.85306
0.850002
0.846233
0.840475
0.834124
1.01644
1.00091
0.974089
0.946762
0.922328
0.901394
0.884056
0.870531
0.861034
0.854957
0.85107
0.848021
0.844224
0.838343
0.831802
1.01702
1.00126
0.974063
0.946387
0.92162
0.900344
0.882666
0.868845
0.859148
0.85298
0.849079
0.846038
0.84221
0.836194
0.829447
1.01759
1.0016
0.974036
0.94602
0.920924
0.899305
0.881282
0.86716
0.857261
0.851005
0.847096
0.844069
0.840211
0.834054
0.827096
1.01814
1.00193
0.97401
0.945665
0.920247
0.898285
0.879912
0.865484
0.855378
0.849032
0.845117
0.842103
0.838208
0.8319
0.824713
1.01869
1.00225
0.973982
0.945317
0.919582
0.897277
0.87855
0.863808
0.853495
0.847062
0.843149
0.840154
0.836223
0.829756
0.822337
1.01921
1.00256
0.973953
0.94498
0.918938
0.896291
0.877203
0.862143
0.851618
0.845099
0.84119
0.838211
0.834236
0.827598
0.819931
1.01972
1.00285
0.973921
0.944652
0.918307
0.895317
0.875864
0.86048
0.849742
0.843142
0.839246
0.83629
0.832268
0.825452
0.817536
1.0202
1.00313
0.973887
0.944336
0.917698
0.894367
0.874543
0.85883
0.847875
0.841197
0.837314
0.834378
0.830301
0.823292
0.815112
1.02066
1.00339
0.973849
0.944028
0.917104
0.89343
0.87323
0.857183
0.846011
0.839261
0.835403
0.832492
0.828355
0.821146
0.812698
1.0211
1.00364
0.973808
0.943734
0.916534
0.892519
0.871938
0.85555
0.84416
0.837342
0.83351
0.830619
0.826411
0.818985
0.810254
1.0215
1.00386
0.973762
0.943448
0.91598
0.891623
0.870654
0.853921
0.842315
0.835437
0.831643
0.828776
0.824491
0.816839
0.80782
1.02188
1.00407
0.973713
0.943178
0.915451
0.890754
0.869392
0.85231
0.840486
0.833554
0.829798
0.82695
0.822574
0.814678
0.805354
1.02222
1.00424
0.973658
0.942916
0.914939
0.8899
0.86814
0.850703
0.838667
0.831691
0.827986
0.825158
0.820682
0.812532
0.802895
1.02253
1.0044
0.9736
0.942671
0.914456
0.889075
0.866912
0.849117
0.83687
0.829857
0.826203
0.823387
0.818795
0.810371
0.800404
1.02279
1.00453
0.973535
0.942436
0.91399
0.888266
0.865693
0.847537
0.835087
0.828048
0.824458
0.821654
0.816936
0.808225
0.79792
1.02302
1.00464
0.973468
0.94222
0.913554
0.887489
0.8645
0.84598
0.833331
0.826275
0.822749
0.819946
0.815082
0.806064
0.7954
1.0232
1.00472
0.973393
0.942015
0.913136
0.886727
0.863317
0.844433
0.831594
0.824536
0.821084
0.818281
0.813258
0.803919
0.792882
1.02334
1.00477
0.973317
0.94183
0.912751
0.885999
0.862162
0.842913
0.829891
0.82284
0.819461
0.816645
0.811442
0.801758
0.790327
1.02342
1.00479
0.973235
0.941658
0.912385
0.885286
0.861017
0.841406
0.828213
0.821185
0.81789
0.815055
0.809656
0.799612
0.787772
1.02346
1.00478
0.973152
0.941509
0.912054
0.884607
0.859902
0.839931
0.826576
0.819581
0.816367
0.813498
0.807879
0.79745
0.785178
1.02344
1.00473
0.973063
0.941373
0.911742
0.883945
0.858798
0.838471
0.824972
0.818027
0.814902
0.811991
0.806135
0.795303
0.782583
1.02337
1.00466
0.972976
0.941264
0.911467
0.883317
0.857726
0.837048
0.823417
0.816532
0.813492
0.810521
0.8044
0.793139
0.779949
1.02323
1.00455
0.972885
0.941169
0.911212
0.882705
0.856667
0.835646
0.821902
0.815096
0.812147
0.809105
0.8027
0.790989
0.777312
1.02304
1.00441
0.972798
0.941104
0.910995
0.882128
0.855642
0.834286
0.820444
0.813727
0.810863
0.807729
0.80101
0.788821
0.774633
1.02278
1.00424
0.972708
0.941056
0.910799
0.881567
0.85463
0.832953
0.819035
0.812425
0.809649
0.806411
0.799355
0.786665
0.77195
1.02245
1.00403
0.972627
0.941039
0.910641
0.881041
0.853655
0.831667
0.817692
0.811199
0.808504
0.805136
0.797709
0.784488
0.769221
1.02205
1.0038
0.972546
0.941042
0.910503
0.880529
0.852696
0.830414
0.816406
0.810049
0.807435
0.803922
0.796099
0.782322
0.766483
1.02159
1.00353
0.972476
0.941079
0.910405
0.880053
0.851775
0.829215
0.815194
0.808982
0.806439
0.802752
0.794499
0.780133
0.763698
1.02105
1.00323
0.972411
0.941137
0.910326
0.879589
0.850871
0.828054
0.814048
0.807998
0.805526
0.801646
0.792932
0.77795
0.760898
1.02044
1.0029
0.972361
0.941233
0.910285
0.87916
0.850008
0.826952
0.812983
0.807106
0.804691
0.800587
0.791373
0.775741
0.758046
1.01974
1.00254
0.97232
0.941351
0.910262
0.878743
0.849165
0.825896
0.811993
0.806305
0.803944
0.799592
0.789846
0.773535
0.755174
1.01897
1.00216
0.9723
0.941509
0.910276
0.878358
0.848363
0.824903
0.81109
0.805601
0.803279
0.798645
0.788324
0.771297
0.752245
1.01812
1.00175
0.972293
0.94169
0.910306
0.877984
0.847583
0.823961
0.810269
0.804997
0.802706
0.797764
0.786832
0.769057
0.74929
1.01719
1.00132
0.972313
0.941913
0.910371
0.87764
0.846845
0.823087
0.809543
0.804496
0.802219
0.796929
0.785341
0.76678
0.746272
1.01617
1.00087
0.972351
0.942159
0.910449
0.877303
0.846129
0.822268
0.808905
0.804101
0.801829
0.796159
0.783875
0.764494
0.74322
1.01507
1.0004
0.972422
0.942447
0.910558
0.876993
0.845455
0.821519
0.808368
0.803815
0.801527
0.795435
0.782405
0.762165
0.740099
1.01388
0.999921
0.972516
0.942759
0.910676
0.876687
0.844802
0.820829
0.807925
0.80364
0.801324
0.794775
0.780956
0.75982
0.736935
1.01262
0.999432
0.972649
0.943113
0.910821
0.876403
0.844189
0.820212
0.807587
0.80358
0.80121
0.794157
0.779497
0.757424
0.733695
1.01126
0.998933
0.97281
0.943491
0.910971
0.876118
0.843596
0.819655
0.807349
0.803637
0.801198
0.7936
0.778052
0.755003
0.730401
1.00982
0.998435
0.973015
0.943908
0.91114
0.875847
0.843037
0.819172
0.80722
0.803811
0.801276
0.793083
0.776592
0.752526
0.727025
1.00829
0.997934
0.973255
0.944349
0.911308
0.87557
0.842495
0.81875
0.807196
0.804108
0.801456
0.792622
0.775136
0.750015
0.723589
1.00669
0.997444
0.973544
0.944826
0.911487
0.875297
0.84198
0.8184
0.807283
0.804526
0.801725
0.792194
0.773658
0.74744
0.720067
1.00499
0.996959
0.973873
0.945322
0.911656
0.875008
0.841476
0.818112
0.807479
0.805071
0.802096
0.791819
0.772176
0.744823
0.716477
1.00322
0.996493
0.974257
0.945851
0.911826
0.874712
0.84099
0.817895
0.807788
0.80574
0.802555
0.791471
0.770661
0.742134
0.712794
1.00136
0.996043
0.974686
0.946395
0.911975
0.874388
0.840506
0.817739
0.80821
0.806542
0.803114
0.791167
0.769132
0.73939
0.709034
0.999435
0.995622
0.975175
0.946963
0.912111
0.874041
0.84003
0.817651
0.808747
0.807471
0.803757
0.790884
0.76756
0.736565
0.705174
0.997423
0.995229
0.975713
0.947539
0.912211
0.873651
0.839545
0.817624
0.809401
0.808536
0.804498
0.790637
0.76596
0.733672
0.701227
0.995343
0.994878
0.976312
0.94813
0.912281
0.87322
0.839054
0.81766
0.810174
0.809729
0.805319
0.7904
0.764308
0.730688
0.697175
0.993187
0.994567
0.976963
0.948719
0.912296
0.872726
0.838543
0.817756
0.811069
0.811063
0.806235
0.79019
0.762614
0.727624
0.693028
0.99097
0.99431
0.977676
0.949308
0.912259
0.87217
0.838012
0.817911
0.812085
0.812527
0.807226
0.789979
0.760855
0.72446
0.688769
0.988686
0.994107
0.978439
0.949881
0.912146
0.871528
0.837446
0.818125
0.81323
0.814136
0.808307
0.789782
0.75904
0.721202
0.684406
0.986349
0.993971
0.979259
0.950435
0.911952
0.870797
0.836845
0.818397
0.814501
0.815876
0.809456
0.789571
0.757146
0.717834
0.679925
0.983956
0.993902
0.980126
0.950952
0.911653
0.869956
0.836195
0.818728
0.815907
0.817763
0.810688
0.789361
0.75518
0.714359
0.675331
0.981521
0.993912
0.981042
0.951426
0.911242
0.868997
0.835494
0.819117
0.817445
0.819783
0.811979
0.789123
0.75312
0.710762
0.670615
0.979044
0.994001
0.981995
0.951836
0.910693
0.867899
0.834731
0.819568
0.819128
0.821953
0.813345
0.788869
0.750971
0.707045
0.665776
0.976538
0.99418
0.982982
0.952172
0.909994
0.866652
0.833901
0.820077
0.820951
0.824255
0.814758
0.78857
0.748711
0.703194
0.66081
0.974005
0.99445
0.983989
0.95241
0.909119
0.865235
0.832998
0.820654
0.822929
0.826708
0.816235
0.788235
0.746344
0.699208
0.655714
0.971461
0.994817
0.985007
0.952534
0.908051
0.863636
0.832016
0.821296
0.825058
0.829291
0.817746
0.787835
0.743847
0.695077
0.650485
0.968909
0.995282
0.986019
0.95252
0.906762
0.861835
0.830951
0.822015
0.827356
0.832025
0.819304
0.787376
0.741223
0.690795
0.645118
0.966364
0.995848
0.987012
0.952346
0.905234
0.859819
0.829799
0.822809
0.829816
0.834885
0.82088
0.786828
0.73845
0.686355
0.639614
0.963834
0.996513
0.987963
0.951983
0.903437
0.85757
0.828559
0.823695
0.83246
0.837891
0.822483
0.786196
0.735526
0.681749
0.633964
0.961334
0.997277
0.988853
0.951408
0.901349
0.855072
0.827229
0.824672
0.83528
0.841016
0.824081
0.785447
0.732431
0.67697
0.628172
0.958874
0.998135
0.989656
0.950589
0.89894
0.852311
0.825813
0.825764
0.8383
0.844281
0.825682
0.784583
0.729161
0.672008
0.622229
0.956471
0.999083
0.990346
0.949495
0.896185
0.849271
0.82431
0.826969
0.841512
0.847654
0.827249
0.783571
0.725694
0.666859
0.616138
0.954137
1.00011
0.990893
0.948094
0.893054
0.845939
0.822732
0.828317
0.84494
0.851154
0.828789
0.782409
0.722026
0.661509
0.60989
0.951891
1.00121
0.991265
0.946352
0.889518
0.842301
0.821079
0.829811
0.848575
0.854746
0.83026
0.781063
0.718134
0.655956
0.603491
0.949747
1.00236
0.991428
0.944233
0.885548
0.838347
0.819368
0.831484
0.852443
0.858446
0.831665
0.779527
0.71401
0.650184
0.596929
0.947725
1.00356
0.991344
0.941702
0.881111
0.834064
0.817606
0.833341
0.856532
0.862216
0.83296
0.777767
0.709635
0.644192
0.590211
0.945845
1.00477
0.990977
0.938719
0.876178
0.829444
0.815816
0.835421
0.860868
0.866067
0.834143
0.775773
0.704996
0.637963
0.583325
0.944128
1.006
0.990285
0.935247
0.870714
0.824476
0.814008
0.837732
0.865434
0.869956
0.835166
0.77351
0.700075
0.631497
0.576283
0.942597
1.0072
0.989228
0.931245
0.864686
0.819154
0.812213
0.840315
0.870256
0.873889
0.836022
0.770965
0.694856
0.62478
0.569076
0.941278
1.00836
0.987763
0.926676
0.85806
0.813471
0.810444
0.84318
0.875312
0.877818
0.836661
0.768101
0.689322
0.617814
0.561719
0.940197
1.00945
0.985848
0.921498
0.8508
0.807422
0.808738
0.846371
0.880623
0.88174
0.837069
0.764903
0.683458
0.610584
0.554199
0.939386
1.01044
0.983441
0.915674
0.842868
0.801002
0.807114
0.849895
0.886161
0.885603
0.837193
0.761333
0.677245
0.603093
0.54653
0.938875
1.0113
0.980504
0.909161
0.834225
0.794209
0.805612
0.853795
0.891936
0.889394
0.837014
0.757373
0.670669
0.595323
0.538703
0.938702
1.01201
0.976997
0.901926
0.824833
0.787039
0.804254
0.858074
0.897914
0.893053
0.836475
0.752986
0.663712
0.587281
0.530733
0.938902
1.01252
0.972887
0.893931
0.814651
0.779496
0.80308
0.862768
0.904088
0.896555
0.83555
0.74815
0.65636
0.578952
0.522614
0.939519
1.01283
0.968143
0.885148
0.803642
0.771579
0.802113
0.867869
0.91041
0.899831
0.834179
0.742828
0.648597
0.570345
0.514365
0.940593
1.01288
0.962742
0.875546
0.791766
0.763296
0.80139
0.873396
0.916855
0.902841
0.832329
0.736998
0.640408
0.56145
0.505982
0.942175
1.01266
0.956667
0.86511
0.778996
0.754659
0.800927
0.879324
0.923352
0.905504
0.829937
0.730623
0.631782
0.552276
0.497488
0.944312
1.01214
0.949911
0.853826
0.765309
0.745689
0.80075
0.88564
0.929845
0.907762
0.826961
0.723678
0.622705
0.542815
0.488885
0.947056
1.0113
0.942472
0.8417
0.750708
0.736423
0.800861
0.892284
0.936234
0.909518
0.823334
0.716128