/*--------------------------------*- C++ -*----------------------------------*\
  =========                 |
  \\      /  F ield         | OpenFOAM: The Open Source CFD Toolbox
   \\    /   O peration     | Website:  https://openfoam.org
    \\  /    A nd           | Version:  6.0
     \\/     M anipulation  |
\*---------------------------------------------------------------------------*/
FoamFile
{
    version     2.0;
    format      ascii;
    class       volVectorField;
    location    "11";
    object      U;
}
// * * * * * * * * * * * * * * * * * * * * * * * * * * * * * * * * * * * * * //

dimensions      [0 1 -1 0 0 0 0];

internalField   nonuniform List<vector> 
34500
(
(0.999996 4.71168e-05 -9.42021e-18)
(0.999955 0.000113619 9.04937e-17)
(0.999864 4.73293e-05 2.29521e-17)
(0.999761 -0.000119944 -1.35043e-17)
(0.999699 -0.000254087 1.32268e-16)
(0.999637 -0.000311736 3.05457e-16)
(0.999508 -0.000415173 1.52952e-17)
(0.999322 -0.000670055 -2.40704e-16)
(0.999134 -0.00109024 3.71667e-16)
(0.999025 -0.00159378 -2.16943e-17)
(0.99901 -0.00212581 -2.8262e-16)
(0.999091 -0.00269112 -4.65469e-16)
(0.999232 -0.00323067 2.1712e-16)
(1.00028 -0.00413916 4.47266e-16)
(0.986886 -0.010678 -4.0961e-16)
(1.00001 0.000194578 -2.98269e-17)
(0.999905 0.000222574 -8.0512e-17)
(0.999737 -6.90238e-05 1.89907e-16)
(0.999623 -0.000401264 -1.05037e-16)
(0.999604 -0.000474531 -6.86852e-17)
(0.999513 -0.000392281 -5.99425e-16)
(0.999243 -0.00051873 9.88131e-17)
(0.998844 -0.00105433 1.59998e-16)
(0.998472 -0.00193424 -2.77642e-16)
(0.998268 -0.00296144 -4.56005e-16)
(0.998254 -0.00398832 -1.93612e-16)
(0.998431 -0.00505149 -3.98321e-16)
(0.998624 -0.0060263 -3.09019e-16)
(1.00046 -0.00734885 -5.91917e-16)
(0.988398 -0.0143102 7.30354e-16)
(1.00003 0.000252158 -2.22206e-17)
(0.999901 0.000139161 9.86221e-17)
(0.999737 -0.000313703 3.53329e-17)
(0.999693 -0.000636434 -4.57638e-17)
(0.999802 -0.000491057 -1.09544e-16)
(0.999838 -0.000129936 6.47977e-17)
(0.999667 -5.32977e-05 -5.76552e-17)
(0.999316 -0.000513686 -8.92789e-17)
(0.998956 -0.00139737 4.65309e-16)
(0.998732 -0.00247436 -2.57845e-16)
(0.998679 -0.00353855 3.5791e-16)
(0.998831 -0.00463413 5.21159e-16)
(0.998856 -0.00562063 -3.48243e-16)
(1.00049 -0.00666153 3.17974e-16)
(0.993005 -0.0112369 -5.35961e-17)
(1.00003 0.000236032 4.00697e-18)
(0.999878 -3.58257e-05 -1.63605e-16)
(0.99968 -0.000588737 -1.64428e-16)
(0.999621 -0.000867536 7.42889e-17)
(0.999774 -0.000562127 -2.74494e-16)
(0.999915 -2.11945e-05 1.37979e-16)
(0.999891 0.000206708 3.36437e-16)
(0.999671 -0.000154008 -2.47822e-16)
(0.999396 -0.000971219 -9.75629e-16)
(0.999196 -0.00202192 3.17298e-16)
(0.999114 -0.00307894 -4.9201e-17)
(0.999232 -0.00419395 2.70539e-16)
(0.999095 -0.00526154 4.36418e-16)
(1.0003 -0.00620157 -2.61861e-16)
(0.994767 -0.0104468 -2.04249e-16)
(1.00002 0.000193082 4.86403e-17)
(0.999818 -0.000202763 9.33655e-17)
(0.99952 -0.000811893 -1.20037e-16)
(0.999335 -0.00107627 5.05017e-17)
(0.999399 -0.000744353 3.37381e-16)
(0.999539 -0.000208465 4.3251e-16)
(0.999602 -1.53234e-06 -8.71787e-16)
(0.999505 -0.000384206 3.37431e-16)
(0.999343 -0.00121636 9.30509e-16)
(0.999219 -0.00229088 -3.89099e-16)
(0.999168 -0.00338862 -1.14008e-16)
(0.999314 -0.00456596 -3.0195e-17)
(0.999143 -0.00575333 -2.70435e-16)
(1.00001 -0.00669529 5.99349e-16)
(0.995579 -0.0107528 -4.00717e-16)
(1 0.00015026 2.82368e-17)
(0.99975 -0.000314538 3.49266e-17)
(0.999342 -0.000934865 1.26528e-16)
(0.99899 -0.00120166 -1.45709e-16)
(0.998898 -0.000934654 -6.51935e-17)
(0.998962 -0.000532236 -4.0729e-16)
(0.999051 -0.000469937 3.22599e-16)
(0.999055 -0.000963551 -8.18583e-17)
(0.999013 -0.00186441 -3.7283e-16)
(0.999 -0.00298076 7.49236e-16)
(0.99903 -0.0041134 1.43259e-16)
(0.999255 -0.00531572 4.01781e-17)
(0.999151 -0.00653199 4.24655e-16)
(0.9998 -0.0073748 -1.21751e-15)
(0.996504 -0.0107821 4.66741e-16)
(0.99998 0.000117285 -4.91414e-17)
(0.999707 -0.000363365 5.54731e-17)
(0.999225 -0.000949975 9.7629e-17)
(0.998738 -0.0012103 2.74734e-16)
(0.998496 -0.00103909 7.62805e-17)
(0.998466 -0.000818629 3.4591e-16)
(0.998554 -0.000945274 -1.48794e-16)
(0.998633 -0.0015754 -6.38934e-16)
(0.998702 -0.00254838 -5.78854e-16)
(0.998804 -0.00368679 -7.95516e-16)
(0.998929 -0.00481269 -3.38345e-16)
(0.999242 -0.00597294 1.29937e-17)
(0.99924 -0.00711371 -3.13077e-16)
(0.999747 -0.00775598 1.03733e-15)
(0.997543 -0.010415 -1.37367e-16)
(0.99996 9.64004e-05 -3.20132e-17)
(0.999698 -0.000358156 -2.25388e-17)
(0.999197 -0.000876083 -4.5343e-17)
(0.998637 -0.00111266 -1.47437e-16)
(0.998291 -0.0010334 1.08853e-16)
(0.998186 -0.000993162 4.12953e-18)
(0.998264 -0.00130293 1.05539e-16)
(0.998399 -0.00205709 6.87856e-16)
(0.998556 -0.00308178 5.59684e-17)
(0.998754 -0.00421312 -3.12146e-16)
(0.998961 -0.00529409 4.32907e-16)
(0.999345 -0.0063667 -3.96364e-17)
(0.999433 -0.00738171 -7.6743e-18)
(0.999817 -0.00780758 1.8604e-16)
(0.998504 -0.00986945 -3.96712e-16)
(0.999947 8.71946e-05 -2.76689e-18)
(0.999719 -0.000314194 -1.19019e-16)
(0.999247 -0.000744913 -2.72187e-17)
(0.998675 -0.000945916 1.90042e-16)
(0.998281 -0.000944121 -1.44724e-16)
(0.99813 -0.0010614 2.30536e-16)
(0.998201 -0.00152677 1.51294e-16)
(0.998375 -0.00237808 1.02577e-17)
(0.998597 -0.00342972 1.39174e-16)
(0.998865 -0.00453163 3.52461e-17)
(0.999129 -0.0055473 -4.09791e-16)
(0.999553 -0.00651783 2.54301e-16)
(0.999698 -0.00740531 -1.60418e-16)
(0.999962 -0.0076553 -8.22776e-16)
(0.999294 -0.00929206 4.9806e-16)
(0.999941 8.74635e-05 9.10273e-17)
(0.99976 -0.000248452 7.28169e-17)
(0.999345 -0.000589781 -3.24379e-17)
(0.998808 -0.000754493 -1.63721e-16)
(0.998412 -0.000817264 -1.65543e-16)
(0.998247 -0.00106507 -6.31781e-16)
(0.998319 -0.00165371 4.46409e-16)
(0.99852 -0.00257398 9.43876e-18)
(0.998784 -0.0036321 7.71017e-16)
(0.999095 -0.0046923 7.80514e-16)
(0.99939 -0.00563836 -2.24916e-16)
(0.999827 -0.006514 -6.70019e-17)
(0.999998 -0.00729663 3.90314e-16)
(1.00014 -0.00742661 6.85673e-16)
(0.999896 -0.00878064 -5.33527e-16)
(0.999943 9.45273e-05 -2.65327e-17)
(0.999807 -0.000176425 4.96406e-17)
(0.999464 -0.000439256 2.1374e-17)
(0.998988 -0.000576372 -4.12158e-17)
(0.998624 -0.000696171 -1.40513e-16)
(0.998469 -0.00105038 -2.01161e-17)
(0.998551 -0.00173239 -4.7283e-16)
(0.998771 -0.00269698 -6.6342e-16)
(0.99906 -0.00374666 -8.30616e-16)
(0.999393 -0.00476052 -4.91318e-16)
(0.999699 -0.00564168 2.8081e-16)
(1.00013 -0.00643824 -3.29987e-16)
(1.0003 -0.00714257 -2.3991e-16)
(1.00033 -0.00719804 -8.9615e-16)
(1.00034 -0.00836116 3.01689e-16)
(0.999951 0.000105375 -7.43648e-17)
(0.999853 -0.000110146 -1.11027e-16)
(0.999581 -0.000313598 -5.384e-18)
(0.999178 -0.000438402 9.59894e-17)
(0.998865 -0.000612563 1.24252e-16)
(0.998738 -0.00105387 -1.61209e-16)
(0.998836 -0.00180444 -1.72847e-16)
(0.999072 -0.00279377 2.1554e-16)
(0.999374 -0.00382504 1.04797e-15)
(0.999715 -0.00479238 -9.84083e-17)
(1.00002 -0.00561675 -1.56592e-16)
(1.00042 -0.00635097 2.76579e-16)
(1.00059 -0.00699909 4.34009e-18)
(1.00051 -0.00701077 2.30218e-16)
(1.00067 -0.00804746 4.94223e-17)
(0.999963 0.00011746 1.07153e-16)
(0.999892 -5.78766e-05 7.04909e-17)
(0.999683 -0.000225137 -1.83179e-16)
(0.999353 -0.000355123 -7.42725e-17)
(0.999101 -0.000584093 5.42913e-18)
(0.999012 -0.00109761 3.05088e-16)
(0.999132 -0.00189693 4.15614e-16)
(0.99938 -0.00289579 3.07289e-16)
(0.999689 -0.00390193 -4.92943e-16)
(1.00003 -0.00482429 6.67141e-16)
(1.00032 -0.0055997 -2.12322e-16)
(1.0007 -0.00628477 1.67657e-16)
(1.00085 -0.00689077 7.83464e-16)
(1.00069 -0.00687459 -2.46216e-17)
(1.00091 -0.00781756 1.71208e-18)
(0.999976 0.000128535 -6.25287e-18)
(0.999921 -2.43464e-05 -6.09418e-17)
(0.999764 -0.000178928 2.50867e-16)
(0.999501 -0.00033143 1.07126e-16)
(0.999312 -0.00061665 -4.06204e-17)
(0.999265 -0.00119073 3.45734e-16)
(0.99941 -0.00202338 -7.11237e-16)
(0.99967 -0.00302032 -4.50089e-16)
(0.999982 -0.00399688 -3.84997e-16)
(1.00032 -0.00487622 -5.60993e-16)
(1.00059 -0.00560887 3.33024e-16)
(1.00094 -0.00625403 -1.43073e-16)
(1.00107 -0.00682594 -1.04865e-15)
(1.00084 -0.00678903 4.71338e-16)
(1.0011 -0.00766203 1.03478e-16)
(0.999986 0.000137165 -3.52789e-17)
(0.999938 -1.14637e-05 2.33373e-17)
(0.999821 -0.000175041 -3.05646e-17)
(0.999617 -0.000364625 -1.86504e-16)
(0.999487 -0.000707227 1.41848e-17)
(0.999484 -0.00133241 1.81642e-16)
(0.999655 -0.00218622 3.20637e-16)
(0.999927 -0.0031725 4.69916e-16)
(1.00024 -0.0041164 2.2083e-16)
(1.00057 -0.00495436 -2.01033e-16)
(1.00083 -0.00564843 3.13895e-17)
(1.00115 -0.00625908 2.22788e-16)
(1.00127 -0.0068 -1.2456e-16)
(1.00098 -0.00674306 -5.54319e-16)
(1.00126 -0.00755403 1.82406e-17)
(0.999991 0.000142232 -2.60778e-17)
(0.999945 -1.88316e-05 1.11592e-17)
(0.999857 -0.000209666 6.10215e-17)
(0.999703 -0.000447749 7.46662e-17)
(0.999626 -0.00084756 -1.06035e-16)
(0.999664 -0.00151569 -6.96091e-16)
(0.999861 -0.00238109 -2.0561e-16)
(1.00014 -0.00335029 -3.44929e-16)
(1.00046 -0.00425951 -5.9885e-16)
(1.00078 -0.00505747 6.54028e-16)
(1.00103 -0.00571566 3.78114e-16)
(1.00133 -0.00629491 -4.09802e-16)
(1.00143 -0.00680581 1.05148e-15)
(1.00111 -0.00672758 2.10894e-16)
(1.00139 -0.00748577 7.00916e-17)
(0.99999 0.000143308 1.62773e-17)
(0.999941 -4.46349e-05 -8.05471e-17)
(0.999875 -0.000277158 -3.36341e-16)
(0.99976 -0.000571109 7.89467e-17)
(0.999731 -0.00102655 3.33585e-16)
(0.999807 -0.00173032 2.98139e-17)
(1.00003 -0.00259971 6.39024e-17)
(1.00032 -0.00354702 -1.2656e-17)
(1.00064 -0.00442035 7.30883e-16)
(1.00096 -0.0051794 -1.90407e-16)
(1.00119 -0.00580342 -5.13729e-16)
(1.00148 -0.00635264 -1.09149e-16)
(1.00157 -0.00683296 -4.59999e-17)
(1.00122 -0.00673059 2.27495e-16)
(1.00151 -0.00743607 -3.7718e-16)
(0.999981 0.000140185 2.16156e-17)
(0.999928 -8.60374e-05 5.88801e-17)
(0.999876 -0.000370579 2.208e-16)
(0.999795 -0.000724587 -1.97311e-16)
(0.999807 -0.00123258 -2.04477e-16)
(0.999917 -0.00196529 1.10042e-16)
(1.00016 -0.00283272 2.11482e-16)
(1.00047 -0.00375489 4.1825e-16)
(1.00079 -0.00459191 -5.57744e-16)
(1.0011 -0.00531324 1.20103e-17)
(1.00133 -0.00590436 -1.65374e-16)
(1.0016 -0.00642454 1.6304e-17)
(1.00169 -0.00687396 -2.12238e-16)
(1.00131 -0.00674549 6.49303e-17)
(1.00162 -0.00740401 6.24975e-16)
(0.999962 0.000133205 -2.78455e-18)
(0.999906 -0.000139888 1.01218e-16)
(0.999865 -0.000483148 -1.00227e-16)
(0.999812 -0.000898121 2.77554e-16)
(0.999858 -0.00145458 9.75955e-17)
(0.999999 -0.00221016 1.5657e-16)
(1.00026 -0.00307101 2.95031e-16)
(1.00058 -0.00396594 -6.58841e-16)
(1.00091 -0.00476694 1.51084e-16)
(1.00122 -0.00545189 -4.32964e-17)
(1.00144 -0.00601129 4.66247e-16)
(1.0017 -0.00650305 -2.79648e-16)
(1.00179 -0.0069212 -1.3534e-16)
(1.0014 -0.00676466 -4.66756e-17)
(1.00172 -0.00737527 -1.36951e-16)
(0.999935 0.000122751 -3.16648e-17)
(0.999877 -0.000202794 -2.41476e-17)
(0.999843 -0.000608178 3.1888e-16)
(0.999813 -0.00108301 -2.11275e-16)
(0.99989 -0.00168304 1.49502e-16)
(1.00006 -0.00245602 -2.77336e-16)
(1.00034 -0.00330688 -5.95245e-17)
(1.00067 -0.00417365 4.81747e-16)
(1.001 -0.00493959 2.31269e-16)
(1.00131 -0.00558986 3.41523e-16)
(1.00153 -0.00611891 -5.83207e-16)
(1.00178 -0.00658333 6.49829e-16)
(1.00187 -0.00697078 -1.70875e-16)
(1.00147 -0.00678562 -1.60378e-16)
(1.00182 -0.00735404 -1.11751e-16)
(0.999899 0.000109551 4.0912e-17)
(0.99984 -0.000271655 1.22567e-17)
(0.999813 -0.000740008 -3.78421e-16)
(0.999803 -0.00127158 -1.5629e-17)
(0.999906 -0.00191004 -1.21282e-16)
(1.0001 -0.00269569 2.25921e-16)
(1.00039 -0.00353417 -9.76943e-17)
(1.00073 -0.00437266 -1.98467e-16)
(1.00107 -0.00510506 3.11959e-16)
(1.00138 -0.00572263 -7.10289e-17)
(1.0016 -0.00622289 7.41642e-16)
(1.00185 -0.00666108 -7.59174e-16)
(1.00194 -0.00701845 2.31711e-16)
(1.00154 -0.00680409 -7.69497e-17)
(1.00192 -0.00732928 -1.60311e-16)
(0.999854 9.42326e-05 -5.50379e-18)
(0.999798 -0.000343527 -1.72244e-16)
(0.999776 -0.000873565 1.46643e-16)
(0.999784 -0.00145797 5.5332e-17)
(0.999908 -0.00212963 -7.45225e-17)
(1.00012 -0.00292388 -7.48826e-17)
(1.00043 -0.00374853 1.67862e-16)
(1.00077 -0.00455944 3.43728e-16)
(1.00112 -0.00526032 -3.73284e-16)
(1.00143 -0.00584749 -7.81728e-17)
(1.00165 -0.00632083 -4.10032e-16)
(1.0019 -0.00673439 7.59676e-16)
(1.002 -0.00706316 -8.35882e-17)
(1.00159 -0.0068202 -4.26933e-17)
(1.00201 -0.00730816 1.51419e-16)
(0.999802 7.76228e-05 5.96556e-18)
(0.999749 -0.000416038 1.10027e-16)
(0.999732 -0.00100504 -5.28494e-18)
(0.999756 -0.00163744 1.23748e-16)
(0.999899 -0.0023374 -1.57496e-16)
(1.00012 -0.00313698 5.53347e-17)
(1.00045 -0.0039471 -5.48021e-17)
(1.0008 -0.00473168 -2.86611e-16)
(1.00115 -0.0054034 7.79333e-17)
(1.00146 -0.00596266 -3.023e-16)
(1.00169 -0.00641112 9.2825e-17)
(1.00194 -0.00680163 -4.1928e-16)
(1.00204 -0.00710315 -5.34086e-17)
(1.00164 -0.00683186 8.42278e-17)
(1.00209 -0.00728148 -1.40886e-16)
(0.999743 6.03297e-05 -2.9783e-17)
(0.999694 -0.000487082 -2.79223e-17)
(0.999682 -0.00113123 -8.38207e-18)
(0.999721 -0.00180687 -1.75968e-16)
(0.99988 -0.00253057 -7.39418e-18)
(1.00012 -0.00333286 1.19872e-16)
(1.00045 -0.00412844 2.16695e-17)
(1.00081 -0.00488848 2.93264e-16)
(1.00117 -0.00553368 -1.15493e-16)
(1.00149 -0.0060677 4.23857e-16)
(1.00172 -0.00649348 -5.35898e-17)
(1.00197 -0.00686292 -2.91576e-18)
(1.00208 -0.00713915 -1.5341e-16)
(1.00169 -0.0068407 -3.58889e-16)
(1.00217 -0.00725793 1.65056e-16)
(0.999678 4.30555e-05 2.50858e-17)
(0.999633 -0.000555167 8.65596e-17)
(0.999626 -0.0012501 3.17811e-17)
(0.999679 -0.00196394 -3.3044e-17)
(0.999853 -0.00270742 3.3568e-16)
(1.00011 -0.00351054 -7.22086e-17)
(1.00045 -0.00429207 -3.0987e-16)
(1.00081 -0.00502957 -1.64097e-16)
(1.00117 -0.00565101 1.7864e-16)
(1.0015 -0.00616248 -4.59576e-16)
(1.00173 -0.00656779 -2.32132e-16)
(1.00199 -0.0069179 -7.26889e-17)
(1.00211 -0.00717041 2.93032e-16)
(1.00172 -0.0068453 -1.52726e-16)
(1.00225 -0.00722881 -1.30438e-16)
(0.999607 2.62419e-05 -5.22883e-17)
(0.999568 -0.000619019 -5.41565e-17)
(0.999566 -0.00136 -1.03517e-16)
(0.999631 -0.00210758 2.39441e-17)
(0.999817 -0.00286735 5.26477e-17)
(1.00008 -0.00366994 -8.94943e-17)
(1.00043 -0.00443834 -3.24216e-17)
(1.0008 -0.00515559 -3.20363e-17)
(1.00117 -0.0057561 3.44734e-17)
(1.0015 -0.00624769 1.08639e-16)
(1.00174 -0.00663479 5.00058e-16)
(1.002 -0.00696752 1.9027e-16)
(1.00214 -0.00719826 -1.72095e-16)
(1.00176 -0.00684763 3.22094e-16)
(1.00232 -0.00720303 5.92188e-17)
(0.999532 1.0377e-05 3.58792e-17)
(0.999497 -0.000677946 -1.17334e-16)
(0.9995 -0.00146024 1.28896e-16)
(0.999577 -0.00223715 -1.39662e-16)
(0.999775 -0.00301039 -1.07213e-16)
(1.00005 -0.00381166 -9.95346e-17)
(1.0004 -0.00456813 -4.10617e-17)
(1.00078 -0.00526744 -1.17602e-16)
(1.00115 -0.0058498 -2.14105e-16)
(1.00149 -0.00632407 2.25076e-16)
(1.00174 -0.00669506 -2.88138e-16)
(1.00201 -0.00701204 -2.50696e-16)
(1.00215 -0.00722245 1.74424e-16)
(1.00179 -0.00684669 -1.79678e-16)
(1.0024 -0.00717128 -8.48657e-17)
(0.999452 -4.3089e-06 1.09496e-17)
(0.999422 -0.000731367 -1.66758e-17)
(0.999429 -0.00155032 -4.03478e-17)
(0.999518 -0.00235292 3.73117e-17)
(0.999725 -0.00313725 -1.21429e-16)
(1.00001 -0.00393677 9.30983e-17)
(1.00037 -0.00468271 3.16022e-16)
(1.00075 -0.00536653 4.42769e-16)
(1.00113 -0.00593341 -1.15802e-16)
(1.00147 -0.00639286 -2.50991e-16)
(1.00173 -0.00674979 -1.28938e-16)
(1.00201 -0.0070528 1.99965e-16)
(1.00217 -0.00724463 -2.45193e-16)
(1.00181 -0.00684468 7.98813e-16)
(1.00246 -0.00714232 3.60806e-16)
(0.999369 -1.75506e-05 -4.42146e-17)
(0.999342 -0.000779181 7.18044e-17)
(0.999354 -0.00163045 1.07046e-16)
(0.999453 -0.00245524 1.14697e-16)
(0.999669 -0.00324884 -1.41853e-16)
(0.999957 -0.0040466 -2.7958e-17)
(1.00033 -0.00478353 7.23644e-17)
(1.00071 -0.00545415 1.85593e-17)
(1.0011 -0.00600808 3.49542e-16)
(1.00145 -0.00645498 2.21012e-16)
(1.00172 -0.00679967 3.93505e-16)
(1.00201 -0.00709007 5.27498e-17)
(1.00218 -0.00726448 8.9144e-17)
(1.00184 -0.00684029 -3.61659e-16)
(1.00253 -0.00710849 -3.45069e-16)
(0.999283 -2.9302e-05 1.88385e-17)
(0.999259 -0.000821275 4.8652e-17)
(0.999275 -0.0017008 -2.07243e-16)
(0.999384 -0.00254507 1.90938e-16)
(0.999606 -0.00334648 1.54773e-16)
(0.999901 -0.00414264 2.98015e-16)
(1.00028 -0.00487214 -5.77472e-17)
(1.00067 -0.00553183 -3.25281e-17)
(1.00106 -0.00607518 -1.12576e-16)
(1.00142 -0.00651164 6.56868e-17)
(1.0017 -0.00684581 -6.90824e-16)
(1.00201 -0.00712506 5.39478e-16)
(1.00219 -0.00728346 -5.08634e-17)
(1.00186 -0.00683575 -5.13228e-16)
(1.00259 -0.00707609 2.64967e-16)
(0.999193 -3.94751e-05 3.34888e-17)
(0.999172 -0.00085794 7.08673e-17)
(0.999192 -0.00176208 2.26148e-16)
(0.999309 -0.00262324 -3.21029e-16)
(0.999539 -0.00343144 2.55294e-17)
(0.99984 -0.00422645 -2.29336e-16)
(1.00022 -0.00495007 2.24198e-17)
(1.00062 -0.00560092 -4.41802e-16)
(1.00102 -0.00613584 2.9854e-16)
(1.00139 -0.00656376 -3.60816e-16)
(1.00168 -0.00688889 5.22102e-16)
(1.002 -0.00715803 -5.99745e-16)
(1.0022 -0.00730131 -2.97311e-16)
(1.00189 -0.00682987 2.10715e-16)
(1.00265 -0.0070361 -2.11905e-16)
(0.999101 -4.81541e-05 -3.96069e-17)
(0.999081 -0.000889354 -3.37375e-17)
(0.999105 -0.00181485 -3.97851e-17)
(0.99923 -0.00269104 1.25183e-17)
(0.999466 -0.00350522 -1.8824e-17)
(0.999772 -0.0042996 -2.74298e-16)
(1.00016 -0.00501888 -2.56278e-16)
(1.00056 -0.00566289 1.74489e-16)
(1.00097 -0.00619138 8.33578e-17)
(1.00135 -0.00661249 5.47247e-16)
(1.00166 -0.00692997 -4.09228e-16)
(1.00199 -0.00719015 1.06069e-16)
(1.0022 -0.00731956 3.93984e-17)
(1.00191 -0.0068247 -8.42062e-17)
(1.00271 -0.00699568 3.19246e-16)
(0.999007 -5.53703e-05 2.33019e-17)
(0.998987 -0.000916017 -3.98463e-17)
(0.999014 -0.00186001 1.63969e-17)
(0.999148 -0.00274944 1.64277e-16)
(0.999388 -0.00356916 8.03104e-17)
(0.9997 -0.00436356 4.17043e-16)
(1.00009 -0.00507994 8.37812e-17)
(1.0005 -0.0057189 -7.3791e-17)
(1.00092 -0.00624272 -2.58397e-16)
(1.00131 -0.00665851 -3.54757e-16)
(1.00163 -0.00696951 3.10872e-16)
(1.00197 -0.00722146 2.50481e-17)
(1.0022 -0.00733768 1.54826e-16)
(1.00193 -0.00681876 1.77122e-16)
(1.00277 -0.00694837 -7.37427e-17)
(0.99891 -6.12783e-05 -2.91161e-17)
(0.998891 -0.000938225 -1.04305e-16)
(0.998921 -0.00189824 -6.58334e-17)
(0.999061 -0.00279972 1.162e-16)
(0.999307 -0.00362463 7.52033e-17)
(0.999624 -0.0044197 4.90477e-17)
(1.00002 -0.00513458 1.946e-17)
(1.00044 -0.00577015 3.34304e-16)
(1.00087 -0.0062909 1.12067e-16)
(1.00127 -0.00670273 -2.36681e-16)
(1.0016 -0.00700833 -4.76761e-17)
(1.00196 -0.0072529 -2.46663e-16)
(1.00221 -0.00735687 -2.27789e-16)
(1.00196 -0.00681415 5.66879e-17)
(1.00283 -0.00690077 -1.17176e-16)
(0.998812 -6.59759e-05 2.3586e-17)
(0.998792 -0.000956559 1.27e-16)
(0.998825 -0.00193048 -7.50336e-17)
(0.998971 -0.00284282 -5.36902e-17)
(0.999221 -0.00367283 7.5526e-17)
(0.999544 -0.00446931 -4.87601e-17)
(0.999943 -0.00518394 -7.89213e-17)
(1.00037 -0.00581758 -2.06421e-16)
(1.00081 -0.00633667 4.48654e-17)
(1.00122 -0.00674569 5.17253e-16)
(1.00157 -0.00704675 1.74061e-16)
(1.00194 -0.00728445 4.63826e-16)
(1.00221 -0.00737662 1.96821e-16)
(1.00199 -0.00680931 2.73852e-16)
(1.00289 -0.00684728 2.48385e-17)
(0.998713 -6.96438e-05 2.83597e-17)
(0.998692 -0.000971355 3.52828e-17)
(0.998727 -0.0019574 9.17094e-17)
(0.998879 -0.00287993 -1.63315e-16)
(0.999133 -0.003715 -4.18054e-16)
(0.99946 -0.00451355 -7.10086e-17)
(0.999865 -0.00522912 -3.41431e-18)
(1.0003 -0.00586223 4.51019e-17)
(1.00075 -0.00638091 2.35267e-17)
(1.00118 -0.00678819 -3.24501e-16)
(1.00154 -0.00708553 1.93849e-16)
(1.00193 -0.00731704 -3.14347e-16)
(1.00222 -0.00739822 -1.02297e-16)
(1.00201 -0.00680656 -3.37931e-16)
(1.00295 -0.00679496 -1.91813e-17)
(0.998612 -7.24069e-05 -3.95202e-17)
(0.998589 -0.00098319 -6.7617e-17)
(0.998626 -0.00197987 -6.00713e-17)
(0.998783 -0.00291185 -3.08404e-17)
(0.999041 -0.0037521 6.23102e-17)
(0.999373 -0.00455346 -1.64826e-16)
(0.999784 -0.00527103 7.00031e-17)
(1.00023 -0.00590477 1.84065e-16)
(1.00069 -0.00642413 -2.44763e-16)
(1.00113 -0.00683056 1.06564e-16)
(1.0015 -0.00712479 1.17989e-16)
(1.00191 -0.00735045 9.09813e-17)
(1.00222 -0.00742086 6.42975e-16)
(1.00204 -0.00680427 3.36547e-17)
(1.003 -0.00674047 -1.57743e-16)
(0.998509 -7.44353e-05 9.5426e-18)
(0.998485 -0.000992351 -3.82465e-18)
(0.998524 -0.00199845 -6.64206e-17)
(0.998686 -0.00293957 2.63128e-16)
(0.998947 -0.00378512 7.98149e-18)
(0.999284 -0.00458992 1.73148e-16)
(0.9997 -0.00531048 -9.61326e-17)
(1.00015 -0.00594596 -4.93799e-16)
(1.00062 -0.00646697 2.28043e-16)
(1.00108 -0.00687335 1.47457e-17)
(1.00147 -0.00716509 -5.52359e-16)
(1.0019 -0.00738543 3.62621e-18)
(1.00223 -0.00744567 -4.12278e-16)
(1.00207 -0.00680419 2.22756e-16)
(1.00307 -0.00669409 5.57856e-17)
(0.998406 -7.58567e-05 1.33657e-17)
(0.998379 -0.000999369 -9.75287e-18)
(0.99842 -0.00201389 1.58854e-16)
(0.998586 -0.00296372 -1.04252e-16)
(0.998851 -0.00381481 -1.6125e-16)
(0.999193 -0.00462372 -3.92859e-16)
(0.999615 -0.00534816 -1.89835e-16)
(1.00008 -0.0059863 2.09015e-16)
(1.00056 -0.0065098 5.05109e-17)
(1.00103 -0.00691681 -2.74475e-16)
(1.00144 -0.0072065 1.7807e-16)
(1.00188 -0.00742171 -4.80734e-17)
(1.00224 -0.00747179 1.5244e-16)
(1.0021 -0.00680535 -4.02438e-17)
(1.00313 -0.00664577 -1.0582e-16)
(0.998302 -7.68155e-05 -3.29924e-17)
(0.998272 -0.00100448 2.81035e-17)
(0.998314 -0.00202664 -9.24711e-17)
(0.998485 -0.00298514 -5.62266e-17)
(0.998753 -0.00384199 2.5094e-16)
(0.999099 -0.0046556 6.07187e-16)
(0.999527 -0.00538472 3.99092e-16)
(0.999998 -0.00602643 1.58233e-16)
(1.00049 -0.0065532 2.87324e-17)
(1.00098 -0.00696146 3.38987e-17)
(1.0014 -0.00724956 1.21042e-16)
(1.00187 -0.00746013 -1.81564e-16)
(1.00224 -0.0075005 -2.49795e-17)
(1.00213 -0.00680948 1.33393e-16)
(1.00319 -0.00661025 2.76941e-16)
(0.998197 -7.74279e-05 1.00085e-17)
(0.998163 -0.00100814 -3.537e-17)
(0.998208 -0.00203734 8.36324e-19)
(0.998382 -0.00300427 8.14985e-17)
(0.998653 -0.0038672 5.45941e-17)
(0.999004 -0.00468612 -3.51502e-16)
(0.999439 -0.00542065 -1.7261e-16)
(0.999919 -0.00606667 -3.03991e-16)
(1.00043 -0.00659737 -6.64235e-17)
(1.00093 -0.00700738 7.14669e-16)
(1.00137 -0.00729421 8.46278e-18)
(1.00185 -0.00750024 -1.32578e-16)
(1.00225 -0.00753079 -4.10756e-16)
(1.00217 -0.00681501 -1.94186e-17)
(1.00325 -0.00657317 -7.24583e-17)
(0.998092 -7.78009e-05 2.25062e-17)
(0.998054 -0.0010105 -2.96156e-18)
(0.9981 -0.00204629 2.88694e-17)
(0.998278 -0.00302177 -7.3204e-17)
(0.998551 -0.00389104 -2.14642e-17)
(0.998908 -0.00471577 1.43533e-16)
(0.999349 -0.0054564 -2.02682e-16)
(0.999839 -0.00610746 2.5479e-16)
(1.00036 -0.00664269 4.24955e-18)
(1.00087 -0.00705494 -3.81435e-16)
(1.00134 -0.00734085 -8.21357e-17)
(1.00184 -0.00754272 5.09855e-16)
(1.00227 -0.00756378 1.79973e-16)
(1.0022 -0.00682399 -4.76262e-16)
(1.00332 -0.0065476 -3.65314e-17)
(0.997985 -7.8036e-05 -1.63911e-17)
(0.997944 -0.00101195 5.20107e-17)
(0.997991 -0.00205401 9.54787e-18)
(0.998172 -0.00303795 -1.56316e-16)
(0.998449 -0.0039139 1.80398e-17)
(0.99881 -0.00474499 -6.10862e-18)
(0.999258 -0.00549232 4.70764e-16)
(0.999758 -0.00614902 2.59897e-16)
(1.00029 -0.0066893 -6.47087e-16)
(1.00082 -0.00710418 -2.85933e-16)
(1.00131 -0.00738939 1.70618e-16)
(1.00183 -0.00758715 2.16969e-18)
(1.00228 -0.00759851 4.30185e-16)
(1.00224 -0.00683477 4.37418e-16)
(1.00339 -0.00652102 1.21878e-16)
(0.997879 -7.8206e-05 -7.4032e-18)
(0.997833 -0.00101259 6.64657e-18)
(0.997881 -0.00206072 1.0442e-16)
(0.998066 -0.00305333 2.69091e-16)
(0.998345 -0.00393626 -3.21295e-17)
(0.998711 -0.00477418 -3.05502e-16)
(0.999166 -0.00552878 -3.5218e-16)
(0.999677 -0.00619175 -6.63973e-16)
(1.00023 -0.00673758 4.25282e-16)
(1.00077 -0.00715548 3.39519e-16)
(1.00128 -0.00744029 -1.53855e-16)
(1.00182 -0.00763429 -2.66022e-16)
(1.0023 -0.00763629 -4.22291e-16)
(1.00228 -0.00684956 -3.49625e-17)
(1.00346 -0.00650688 -3.64411e-16)
(0.997771 -7.83981e-05 1.10312e-17)
(0.997721 -0.00101274 -3.27236e-17)
(0.997771 -0.00206682 -1.22909e-16)
(0.997958 -0.0030681 -2.12684e-16)
(0.99824 -0.00395837 -4.46377e-17)
(0.998611 -0.00480362 2.90751e-16)
(0.999074 -0.00556602 2.17901e-16)
(0.999595 -0.00623575 6.72945e-16)
(1.00016 -0.00678756 6.91267e-18)
(1.00072 -0.00720881 -1.44854e-16)
(1.00125 -0.00749334 1.15457e-17)
(1.00181 -0.00768359 -2.64704e-16)
(1.00231 -0.00767597 -3.59439e-16)
(1.00232 -0.00686618 -3.23376e-16)
(1.00354 -0.00649092 3.8053e-16)
(0.997663 -7.8648e-05 -3.75857e-17)
(0.997608 -0.00101242 8.30057e-17)
(0.99766 -0.00207243 -9.56162e-18)
(0.99785 -0.00308267 2.56007e-16)
(0.998134 -0.00398057 -9.98154e-17)
(0.998511 -0.00483357 -7.04883e-17)
(0.998981 -0.00560427 7.31877e-17)
(0.999513 -0.0062813 -4.24286e-16)
(1.00009 -0.0068395 -3.03995e-16)
(1.00067 -0.00726443 -1.07188e-17)
(1.00122 -0.00754891 9.37149e-17)
(1.0018 -0.00773568 1.46331e-16)
(1.00233 -0.00771872 3.76181e-16)
(1.00236 -0.00688683 3.82538e-16)
(1.00361 -0.00648691 -5.36394e-17)
(0.997555 -7.9032e-05 3.15954e-18)
(0.997495 -0.0010119 -2.75101e-17)
(0.997548 -0.00207787 -1.68432e-16)
(0.99774 -0.00309712 -2.63553e-16)
(0.998028 -0.00400302 9.50254e-17)
(0.99841 -0.00486423 1.34242e-16)
(0.998887 -0.00564369 -3.31522e-16)
(0.999431 -0.00632844 -8.13384e-17)
(1.00002 -0.00689339 2.92393e-16)
(1.00063 -0.00732227 -1.16534e-16)
(1.00119 -0.00760679 1.26166e-16)
(1.00179 -0.00779003 1.30834e-16)
(1.00235 -0.00776347 5.79804e-17)
(1.00241 -0.00690939 -4.73282e-16)
(1.00369 -0.00647987 -1.07849e-16)
(0.997446 -7.95583e-05 2.61371e-17)
(0.997381 -0.00101118 -4.51217e-17)
(0.997435 -0.0020832 1.24424e-16)
(0.99763 -0.0031118 2.22785e-16)
(0.99792 -0.004026 7.14233e-17)
(0.998307 -0.00489581 -2.5943e-16)
(0.998793 -0.00568449 1.66656e-16)
(0.999349 -0.00637747 1.34863e-16)
(0.999957 -0.00694954 2.54595e-16)
(1.00058 -0.00738266 1.65812e-16)
(1.00116 -0.00766746 -3.08024e-16)
(1.00179 -0.00784742 3.48905e-17)
(1.00237 -0.0078116 -5.03718e-17)
(1.00246 -0.00693628 -1.30724e-17)
(1.00376 -0.00648458 4.20331e-17)
(0.997337 -8.02958e-05 3.17608e-17)
(0.997267 -0.00101049 5.03273e-18)
(0.997322 -0.0020887 1.74196e-16)
(0.997519 -0.00312673 -6.48236e-17)
(0.997812 -0.0040496 1.48514e-16)
(0.998205 -0.00492847 1.28825e-16)
(0.998699 -0.00572678 4.79958e-17)
(0.999266 -0.00642837 9.41246e-17)
(0.99989 -0.0070079 -1.18698e-16)
(1.00053 -0.00744547 -1.14047e-17)
(1.00114 -0.00773062 -8.83019e-17)
(1.00179 -0.00790719 -3.42374e-17)
(1.0024 -0.00786186 1.21933e-16)
(1.00251 -0.00696488 -9.85285e-19)
(1.00384 -0.00648514 -1.23722e-16)
(0.997227 -8.1225e-05 5.06313e-18)
(0.997151 -0.00100976 -8.8027e-17)
(0.997208 -0.00209435 -1.90077e-16)
(0.997407 -0.00314216 -1.19412e-16)
(0.997703 -0.00407402 -9.68171e-17)
(0.998102 -0.0049623 3.13277e-18)
(0.998604 -0.00577069 -5.22612e-17)
(0.999184 -0.00648132 -1.09047e-16)
(0.999824 -0.00706864 -5.41912e-17)
(1.00048 -0.00751093 -1.61741e-16)
(1.00111 -0.00779662 2.72554e-16)
(1.00179 -0.00797001 4.27243e-17)
(1.00243 -0.00791546 -2.60146e-16)
(1.00256 -0.00699757 2.49637e-16)
(1.00391 -0.00649675 4.29539e-17)
(0.997116 -8.24131e-05 -4.99268e-17)
(0.997036 -0.0010092 6.84811e-17)
(0.997093 -0.00210036 -7.06438e-18)
(0.997295 -0.00315808 -1.93429e-17)
(0.997594 -0.00409928 -1.41142e-16)
(0.997998 -0.00499741 1.80673e-16)
(0.998509 -0.00581626 -5.19875e-18)
(0.999101 -0.00653631 1.7424e-16)
(0.999758 -0.00713173 1.40103e-17)
(1.00044 -0.00757892 -4.19133e-18)
(1.00109 -0.0078652 -4.07443e-16)
(1.00179 -0.00803525 -9.99565e-17)
(1.00245 -0.00797119 2.95359e-16)
(1.00261 -0.00703192 -1.87559e-16)
(1.00399 -0.00650316 1.04087e-16)
(0.997005 -8.38224e-05 1.64822e-17)
(0.996919 -0.00100873 5.48668e-17)
(0.996978 -0.00210673 -5.67895e-17)
(0.997182 -0.00317471 -5.63292e-17)
(0.997483 -0.00412558 9.69353e-17)
(0.997893 -0.00503392 -1.63165e-16)
(0.998413 -0.00586366 -1.86157e-16)
(0.999019 -0.00659356 -9.04573e-18)
(0.999693 -0.0071974 -3.72267e-17)
(1.00039 -0.00764977 2.60477e-16)
(1.00107 -0.00793683 2.4084e-16)
(1.00179 -0.00810378 1.1835e-16)
(1.00248 -0.00803052 7.04992e-17)
(1.00267 -0.00707056 4.1985e-16)
(1.00407 -0.00652055 -2.04597e-16)
(0.996894 -8.55213e-05 -2.87762e-17)
(0.996802 -0.00100852 -7.3015e-17)
(0.996862 -0.00211362 2.775e-16)
(0.997068 -0.00319201 2.27557e-16)
(0.997372 -0.00415293 -5.56106e-17)
(0.997788 -0.0050719 -8.46969e-17)
(0.998317 -0.00591291 8.75986e-18)
(0.998936 -0.00665301 -2.36437e-16)
(0.999628 -0.00726557 -2.81673e-16)
(1.00035 -0.00772331 8.19807e-17)
(1.00104 -0.00801116 2.15595e-16)
(1.00179 -0.00817483 -1.33196e-16)
(1.00252 -0.00809203 -1.77431e-16)
(1.00273 -0.0071106 -4.1132e-16)
(1.00416 -0.00653192 2.33624e-17)
(0.996782 -8.74513e-05 6.0051e-17)
(0.996685 -0.00100848 8.56239e-17)
(0.996745 -0.00212097 -2.54789e-16)
(0.996953 -0.00321014 -1.08026e-16)
(0.997261 -0.00418143 1.77795e-16)
(0.997682 -0.00511139 2.5316e-16)
(0.99822 -0.00596409 9.37276e-17)
(0.998853 -0.00671482 1.44392e-16)
(0.999563 -0.0073364 1.93951e-17)
(1.0003 -0.00779975 -3.01148e-16)
(1.00102 -0.00808857 -2.10305e-16)
(1.0018 -0.00824915 8.16214e-17)
(1.00255 -0.00815704 -2.8869e-16)
(1.00279 -0.00715465 4.94467e-16)
(1.00424 -0.0065538 1.34856e-16)
(0.996669 -8.96846e-05 -5.23916e-17)
(0.996566 -0.00100876 -6.65703e-17)
(0.996627 -0.00212893 3.33772e-17)
(0.996838 -0.00322905 -8.12432e-17)
(0.997148 -0.00421107 -1.94721e-16)
(0.997576 -0.00515245 -1.18115e-16)
(0.998124 -0.00601722 8.41504e-17)
(0.99877 -0.00677892 9.88866e-18)
(0.999498 -0.0074098 3.04382e-16)
(1.00026 -0.00787895 3.18246e-16)
(1.00101 -0.00816873 1.51511e-17)
(1.0018 -0.00832602 1.96771e-17)
(1.00259 -0.00822421 6.26707e-16)
(1.00285 -0.0072 3.27746e-17)
(1.00433 -0.00656893 4.21767e-17)
(0.996556 -9.21509e-05 1.16064e-17)
(0.996447 -0.00100926 2.3059e-17)
(0.996509 -0.00213744 1.78298e-17)
(0.996722 -0.00324889 1.07764e-16)
(0.997035 -0.00424198 -8.76859e-17)
(0.997469 -0.00519516 -2.25538e-16)
(0.998027 -0.00607241 -1.22527e-16)
(0.998687 -0.00684553 -2.14122e-17)
(0.999434 -0.00748603 -2.14444e-16)
(1.00022 -0.00796124 -2.47778e-16)
(1.00099 -0.00825218 -2.97639e-17)
(1.00181 -0.00840635 -5.68783e-17)
(1.00263 -0.00829513 5.46675e-18)
(1.00292 -0.00724959 -3.99307e-16)
(1.00441 -0.00659479 -4.70156e-17)