/*--------------------------------*- C++ -*----------------------------------*\
  =========                 |
  \\      /  F ield         | OpenFOAM: The Open Source CFD Toolbox
   \\    /   O peration     | Website:  https://openfoam.org
    \\  /    A nd           | Version:  6.0
     \\/     M anipulation  |
\*---------------------------------------------------------------------------*/
FoamFile
{
    version     2.0;
    format      ascii;
    class       volScalarField;
    location    "14";
    object      p;
}
// * * * * * * * * * * * * * * * * * * * * * * * * * * * * * * * * * * * * * //

dimensions      [0 2 -2 0 0 0 0];

internalField   nonuniform List<scalar> 
62000
(
0.0174147
0.0174093
0.017399
0.0173901
0.0173757
0.0173621
0.0173421
0.0173225
0.0172953
0.0172692
0.0172339
0.0172005
0.0171558
0.0171141
0.0170592
0.017008
0.0169417
0.0168788
0.0167992
0.0167219
0.0166262
0.0165312
0.0164162
0.0162999
0.0161619
0.0160201
0.0158548
0.0156817
0.0154821
0.0152677
0.0150179
0.0147387
0.0144187
0.014076
0.0137243
0.0133534
0.0129429
0.0124778
0.011949
0.0113514
0.0106807
0.00993449
0.00911195
0.00821374
0.00724781
0.00622043
0.00515018
0.00406118
0.00296826
0.00193389
0.000932932
5.99135e-05
-0.00081739
-0.00151163
-0.00208185
-0.00241235
-0.00261199
-0.00250396
-0.00227734
-0.00280795
0.0174021
0.0173985
0.0173915
0.0173869
0.0173774
0.0173689
0.0173541
0.0173396
0.0173175
0.017296
0.0172654
0.017236
0.0171956
0.0171574
0.0171066
0.0170585
0.0169964
0.0169366
0.016862
0.0167885
0.0166994
0.0166096
0.0165035
0.0163942
0.0162676
0.0161348
0.0159841
0.0158223
0.015641
0.0154408
0.0152125
0.0149491
0.0146477
0.0143282
0.0140014
0.01366
0.0132812
0.0128486
0.0123529
0.0117882
0.0111492
0.0104323
0.0096342
0.00875329
0.00779427
0.00675929
0.00566412
0.00452869
0.00336647
0.00224389
0.00113148
0.000145397
-0.00089568
-0.00173886
-0.00243749
-0.00282388
-0.00304083
-0.00288023
-0.00275975
-0.00266649
0.0173701
0.0173636
0.0173546
0.0173487
0.0173393
0.0173314
0.0173184
0.0173061
0.017287
0.0172683
0.0172408
0.0172141
0.0171764
0.0171407
0.0170924
0.0170466
0.0169868
0.0169293
0.0168567
0.0167853
0.0166981
0.0166102
0.0165061
0.0163987
0.0162747
0.0161443
0.0159973
0.0158387
0.0156626
0.0154669
0.0152447
0.0149849
0.0146894
0.0143733
0.0140562
0.0137265
0.0133619
0.0129458
0.0124689
0.0119255
0.0113104
0.0106198
0.00985025
0.00899924
0.00807011
0.00706298
0.00599132
0.00487256
0.0037182
0.00259824
0.0014821
0.000502752
-0.000549269
-0.00137076
-0.00201938
-0.00231069
-0.00244631
-0.00233061
-0.00245959
-0.00269115
0.0173509
0.0173395
0.0173265
0.017318
0.0173074
0.0172994
0.0172877
0.0172779
0.0172628
0.0172487
0.0172264
0.0172045
0.0171719
0.0171405
0.0170968
0.0170548
0.0169992
0.016945
0.0168763
0.0168082
0.016725
0.016641
0.0165414
0.0164389
0.0163204
0.016196
0.0160559
0.0159051
0.0157378
0.0155518
0.0153404
0.0150923
0.0148063
0.014507
0.0142053
0.0138955
0.0135541
0.0131644
0.0127176
0.0122082
0.0116318
0.0109849
0.0102642
0.00946727
0.00859588
0.00764754
0.00663218
0.00556
0.00443805
0.00332868
0.00219819
0.00118268
4.5445e-05
-0.000873259
-0.00160441
-0.00195905
-0.00216341
-0.00220145
-0.00254452
-0.00291544
0.0173086
0.017292
0.0172754
0.0172641
0.0172521
0.0172437
0.0172327
0.0172246
0.0172128
0.0172031
0.0171862
0.0171701
0.0171435
0.0171181
0.0170805
0.0170449
0.0169956
0.0169479
0.0168857
0.0168242
0.0167475
0.0166699
0.0165767
0.0164807
0.0163689
0.0162516
0.0161191
0.0159766
0.0158187
0.0156427
0.0154427
0.0152058
0.0149358
0.0146482
0.0143648
0.0140744
0.0137554
0.0133918
0.0129749
0.0124998
0.0119629
0.0113614
0.0106929
0.00995529
0.00914977
0.00827204
0.00732787
0.00632086
0.0052495
0.00416588
0.0030272
0.00196283
0.000721206
-0.000335526
-0.00121195
-0.00170156
-0.00202664
-0.0021933
-0.002624
-0.00289987
0.0172532
0.0172348
0.0172172
0.017206
0.0171951
0.0171881
0.0171789
0.0171729
0.0171642
0.0171586
0.0171467
0.0171353
0.0171137
0.0170924
0.0170592
0.0170268
0.0169814
0.0169367
0.0168779
0.0168191
0.0167456
0.0166707
0.0165806
0.0164872
0.0163784
0.0162638
0.0161341
0.0159944
0.0158392
0.0156665
0.0154697
0.0152372
0.0149679
0.0146876
0.0144075
0.0141225
0.0138099
0.0134539
0.0130463
0.012583
0.0120613
0.0114805
0.01084
0.0101403
0.0093846
0.00856985
0.00770172
0.00677924
0.00579702
0.00479376
0.00372
0.00268822
0.00142532
0.000300477
-0.000652095
-0.0012263
-0.00163471
-0.00191455
-0.00243453
-0.00275786
0.0171989
0.017181
0.0171644
0.0171547
0.0171464
0.017142
0.0171355
0.017132
0.0171266
0.0171248
0.0171178
0.0171111
0.0170941
0.0170767
0.017047
0.0170176
0.0169751
0.016933
0.0168768
0.0168203
0.0167489
0.0166757
0.016587
0.0164946
0.0163865
0.016272
0.0161422
0.0160019
0.0158459
0.0156719
0.0154736
0.015238
0.0149692
0.0146824
0.0143992
0.0141087
0.0137899
0.013427
0.0130123
0.0125419
0.0120141
0.0114298
0.0107911
0.0101015
0.0093679
0.00859129
0.00778014
0.00693462
0.00604794
0.00515211
0.00419043
0.00325877
0.00206358
0.000969195
2.35929e-05
-0.000575807
-0.00104948
-0.0014768
-0.00216367
-0.00266962
0.0171689
0.017153
0.0171386
0.0171315
0.0171268
0.0171264
0.0171241
0.0171246
0.0171238
0.0171273
0.0171268
0.0171267
0.0171164
0.0171044
0.0170798
0.0170542
0.0170154
0.0169761
0.0169231
0.0168691
0.0168008
0.0167302
0.0166448
0.0165553
0.0164505
0.0163391
0.0162125
0.0160753
0.0159224
0.0157516
0.0155561
0.0153246
0.0150554
0.0147736
0.0144898
0.0141985
0.0138771
0.0135095
0.0130875
0.012607
0.0120665
0.0114679
0.0108152
0.0101151
0.00937834
0.00861087
0.00782648
0.0070283
0.00621389
0.00540939
0.0045578
0.00373503
0.00262553
0.0015761
0.000654746
3.10014e-05
-0.000523518
-0.00113395
-0.0020189
-0.00270009
0.0171543
0.0171402
0.0171271
0.0171214
0.0171189
0.0171215
0.0171226
0.0171265
0.0171298
0.0171387
0.017145
0.017153
0.0171512
0.0171477
0.0171312
0.0171134
0.0170823
0.0170505
0.0170052
0.0169588
0.0168984
0.016836
0.016759
0.0166783
0.0165828
0.0164812
0.0163652
0.0162393
0.0160985
0.0159407
0.0157595
0.015542
0.0152915
0.0150227
0.0147557
0.0144788
0.0141707
0.0138147
0.0134014
0.0129259
0.0123857
0.0117822
0.0111196
0.0104059
0.00965399
0.00887353
0.00808265
0.00728927
0.00649522
0.005727
0.0049279
0.00416099
0.003094
0.00205755
0.00112564
0.000447079
-0.000213349
-0.00100503
-0.00204818
-0.00282923
0.0171503
0.0171384
0.0171267
0.0171219
0.0171211
0.0171261
0.0171298
0.0171365
0.0171432
0.0171564
0.017169
0.0171843
0.0171913
0.0171965
0.0171892
0.0171799
0.0171578
0.0171347
0.017099
0.0170622
0.0170125
0.0169611
0.0168965
0.016829
0.0167481
0.0166624
0.0165637
0.0164566
0.0163364
0.0162013
0.0160446
0.0158552
0.0156312
0.0153959
0.0151593
0.0149145
0.0146382
0.0143128
0.0139278
0.0134765
0.0129545
0.0123615
0.0117008
0.0109795
0.010211
0.00940679
0.00858812
0.00776596
0.00694845
0.00616131
0.00535447
0.00457864
0.0034898
0.00240208
0.00140948
0.000640137
-0.000134145
-0.00107725
-0.00221231
-0.00301048
0.0171384
0.0171286
0.0171179
0.0171129
0.017112
0.0171171
0.0171214
0.0171284
0.0171359
0.0171507
0.0171665
0.0171867
0.0172001
0.0172126
0.0172134
0.0172127
0.0171997
0.0171863
0.0171609
0.0171352
0.0170976
0.0170592
0.0170088
0.0169566
0.0168926
0.0168252
0.016747
0.0166622
0.0165669
0.0164591
0.0163329
0.0161761
0.0159915
0.0157929
0.0155988
0.0153968
0.0151648
0.0148844
0.0145436
0.0141339
0.0136487
0.0130851
0.0124437
0.0117293
0.0109536
0.0101275
0.00927285
0.0084029
0.00752944
0.00668096
0.00581282
0.00497112
0.00380612
0.00262425
0.00153369
0.000655636
-0.000227251
-0.0012809
-0.00244888
-0.00321074
0.0171185
0.0171113
0.0171017
0.0170963
0.0170945
0.0170985
0.0171018
0.0171073
0.0171132
0.0171266
0.0171423
0.0171636
0.0171797
0.0171957
0.017201
0.017205
0.0171977
0.0171902
0.0171721
0.0171543
0.0171261
0.0170981
0.0170598
0.017021
0.0169723
0.0169218
0.0168625
0.016799
0.0167272
0.016646
0.0165493
0.0164267
0.0162766
0.0161208
0.0159688
0.0158125
0.0156286
0.0153981
0.0151077
0.0147471
0.0143076
0.0137836
0.0131726
0.0124765
0.0117041
0.0108643
0.00997828
0.00905902
0.00812227
0.00719639
0.00624608
0.00531164
0.00404357
0.00273991
0.00153579
0.000546751
-0.000426253
-0.00155498
-0.00271757
-0.00341077
0.0170793
0.0170742
0.017065
0.0170584
0.0170542
0.0170556
0.0170557
0.0170577
0.0170595
0.0170688
0.0170808
0.0170996
0.0171145
0.0171304
0.0171364
0.017142
0.0171369
0.0171326
0.0171184
0.0171056
0.0170834
0.0170624
0.0170324
0.017003
0.0169651
0.016927
0.0168819
0.0168345
0.0167812
0.0167208
0.0166483
0.0165524
0.0164357
0.016312
0.0161984
0.0160824
0.0159419
0.015758
0.0155165
0.0152058
0.0148153
0.014337
0.0137651
0.0130983
0.0123415
0.011501
0.0105951
0.00963595
0.00864035
0.00763835
0.00660067
0.00556723
0.00419057
0.00276725
0.00145274
0.000365027
-0.000679276
-0.00185562
-0.00299157
-0.00360512
0.0170258
0.0170227
0.0170143
0.0170069
0.0170009
0.0169996
0.0169967
0.0169947
0.0169919
0.0169958
0.0170025
0.017016
0.0170263
0.0170379
0.0170405
0.0170425
0.0170348
0.0170278
0.0170122
0.0169984
0.0169765
0.0169566
0.0169291
0.0169032
0.0168703
0.0168383
0.0168009
0.0167627
0.0167204
0.0166732
0.0166162
0.0165396
0.0164426
0.016346
0.0162591
0.0161738
0.0160672
0.0159206
0.0157194
0.0154511
0.0151039
0.0146678
0.0141348
0.0135003
0.0127662
0.0119352
0.0110232
0.0100397
0.00900264
0.00794062
0.00683234
0.00571417
0.00424367
0.00271306
0.00130404
0.00013543
-0.000959125
-0.00216506
-0.00326478
-0.00379418
0.0169503
0.0169482
0.01694
0.0169313
0.0169228
0.0169183
0.0169118
0.0169054
0.0168975
0.0168955
0.0168958
0.0169028
0.0169068
0.0169123
0.016909
0.0169053
0.0168919
0.0168797
0.0168591
0.0168408
0.016815
0.0167919
0.0167619
0.0167341
0.0167003
0.0166682
0.0166318
0.0165956
0.0165567
0.0165143
0.0164641
0.0163959
0.0163127
0.0162279
0.0161581
0.0160915
0.0160068
0.0158859
0.0157142
0.015479
0.015168
0.0147695
0.0142738
0.0136738
0.0129681
0.0121564
0.011251
0.0102593
0.00919797
0.0080954
0.00693433
0.00575087
0.00420603
0.00259191
0.0011085
-0.000120973
-0.00125056
-0.00247369
-0.00353338
-0.0039819
0.0168612
0.0168593
0.0168508
0.0168406
0.0168297
0.0168216
0.0168113
0.0168006
0.0167877
0.0167797
0.0167736
0.0167735
0.0167703
0.0167682
0.0167573
0.0167454
0.016724
0.0167032
0.0166743
0.0166477
0.0166142
0.0165835
0.0165467
0.0165125
0.0164729
0.0164355
0.0163944
0.0163542
0.016312
0.0162674
0.0162161
0.0161493
0.0160665
0.015988
0.0159232
0.0158645
0.0157903
0.0156832
0.015529
0.0153152
0.015029
0.0146586
0.0141929
0.0136231
0.0129455
0.0121572
0.0112677
0.0102812
0.00921404
0.00809158
0.00690194
0.00567697
0.00408347
0.002408
0.000871398
-0.000401213
-0.00155134
-0.00278409
-0.00380276
-0.00417264
0.0167511
0.016748
0.0167378
0.0167251
0.0167106
0.0166984
0.0166834
0.0166677
0.0166492
0.0166352
0.0166226
0.0166156
0.0166053
0.0165958
0.0165773
0.0165576
0.016528
0.0164987
0.0164611
0.0164254
0.0163828
0.0163429
0.016297
0.0162536
0.0162051
0.0161588
0.0161091
0.0160605
0.0160103
0.015958
0.0158999
0.0158266
0.0157412
0.0156571
0.0155904
0.0155302
0.0154569
0.0153537
0.0152073
0.0150055
0.014736
0.0143867
0.0139458
0.0134034
0.012754
0.0119923
0.0111251
0.010154
0.00909352
0.00796725
0.00676498
0.00551727
0.00389342
0.0021777
0.000604744
-0.000696645
-0.00185906
-0.00309614
-0.00407373
-0.00437021
0.0166254
0.01662
0.0166078
0.0165928
0.0165752
0.0165591
0.01654
0.0165196
0.0164962
0.0164766
0.0164579
0.0164442
0.0164269
0.0164098
0.0163833
0.0163549
0.0163163
0.0162773
0.0162298
0.0161837
0.0161308
0.0160802
0.0160237
0.0159696
0.0159104
0.0158533
0.0157927
0.0157331
0.0156719
0.0156088
0.01554
0.0154574
0.0153609
0.0152699
0.015194
0.0151262
0.0150468
0.01494
0.014793
0.0145945
0.0143325
0.0139954
0.0135713
0.0130498
0.0124242
0.0116876
0.0108448
0.00989478
0.0088508
0.00773288
0.00653409
0.00527984
0.00364423
0.00190446
0.000309381
-0.00101007
-0.00217703
-0.00341528
-0.00435192
-0.00457817
0.0164757
0.016467
0.016452
0.0164338
0.0164124
0.0163919
0.0163681
0.0163428
0.0163145
0.0162896
0.0162653
0.0162457
0.0162221
0.0161984
0.0161649
0.016129
0.0160825
0.0160351
0.0159787
0.0159232
0.0158606
0.0157997
0.0157328
0.0156678
0.0155975
0.0155289
0.0154567
0.0153851
0.0153118
0.0152364
0.0151553
0.0150601
0.0149536
0.0148491
0.0147621
0.0146826
0.0145927
0.0144775
0.0143251
0.0141249
0.0138657
0.0135363
0.0131252
0.0126214
0.0120175
0.0113056
0.0104881
0.00956232
0.00853922
0.00743677
0.00624804
0.00499644
0.00335744
0.00160434
-4.72488e-06
-0.00133558
-0.00250429
-0.00374156
-0.00463775
-0.00479871
0.0163101
0.0162974
0.0162789
0.0162573
0.0162319
0.0162067
0.0161781
0.0161478
0.0161144
0.0160843
0.0160547
0.0160293
0.0159999
0.0159697
0.0159295
0.0158863
0.0158321
0.0157762
0.0157112
0.0156465
0.0155745
0.0155038
0.0154269
0.0153516
0.0152707
0.0151912
0.0151077
0.0150245
0.0149391
0.0148514
0.0147578
0.0146507
0.0145302
0.0144149
0.0143142
0.0142216
0.0141193
0.013993
0.0138318
0.0136257
0.0133644
0.0130373
0.0126333
0.0121417
0.0115546
0.0108633
0.0100691
0.00916707
0.00816716
0.0070836
0.00591176
0.00466919
0.00303628
0.00127769
-0.000338826
-0.00167669
-0.00284394
-0.00407916
-0.0049353
-0.00503446
0.0161176
0.0161001
0.0160771
0.016051
0.0160206
0.0159901
0.0159557
0.0159198
0.0158809
0.0158453
0.0158104
0.0157798
0.015745
0.0157095
0.0156639
0.015615
0.0155549
0.0154928
0.015421
0.0153492
0.0152695
0.0151907
0.0151053
0.0150211
0.0149309
0.0148416
0.0147481
0.0146542
0.0145579
0.0144589
0.0143538
0.0142346
0.0141042
0.0139751
0.0138623
0.0137565
0.0136413
0.0135035
0.0133327
0.0131199
0.0128556
0.0125297
0.0121316
0.0116507
0.0110789
0.010407
0.00963462
0.00875574
0.0077782
0.00671429
0.00555848
0.00432654
0.00269993
0.000938165
-0.000684514
-0.00202813
-0.00319433
-0.00442704
-0.00524425
-0.00528625
0.0159039
0.0158812
0.0158538
0.0158235
0.0157887
0.0157533
0.0157138
0.0156726
0.0156284
0.0155876
0.0155476
0.0155116
0.0154715
0.0154304
0.0153791
0.0153242
0.015258
0.0151893
0.015111
0.0150323
0.0149457
0.0148596
0.0147669
0.014675
0.014577
0.0144794
0.0143774
0.0142746
0.014169
0.0140603
0.0139453
0.0138167
0.0136746
0.0135366
0.0134119
0.0132942
0.0131672
0.0130184
0.0128379
0.0126176
0.0123485
0.0120212
0.0116257
0.0111518
0.0105913
0.00993477
0.00918081
0.00832204
0.00736524
0.00631943
0.0051812
0.00396037
0.00234356
0.000581625
-0.00104517
-0.00239363
-0.00355809
-0.00478826
-0.00556722
-0.00555611
0.0156578
0.0156298
0.0155975
0.0155625
0.0155229
0.0154822
0.0154374
0.0153908
0.0153415
0.0152956
0.0152507
0.0152099
0.0151652
0.0151193
0.0150633
0.0150037
0.0149326
0.014859
0.0147756
0.0146915
0.0145994
0.0145077
0.0144091
0.014311
0.0142068
0.0141026
0.0139937
0.0138837
0.0137707
0.0136543
0.0135313
0.0133943
0.0132458
0.0130976
0.0129641
0.0128363
0.0126991
0.0125407
0.0123522
0.0121258
0.0118534
0.0115261
0.0111341
0.0106675
0.0101182
0.00947622
0.00873933
0.00789905
0.00696037
0.00593087
0.00480567
0.003594
0.00198311
0.000218683
-0.00141436
-0.00276893
-0.00393347
-0.00516156
-0.00590414
-0.00584438
0.0153879
0.0153543
0.0153172
0.0152775
0.015233
0.015187
0.0151369
0.0150848
0.0150303
0.0149793
0.0149296
0.0148841
0.0148347
0.0147841
0.0147233
0.0146587
0.0145827
0.0145041
0.0144158
0.0143266
0.0142297
0.014133
0.0140296
0.0139267
0.0138175
0.0137083
0.0135943
0.013479
0.0133604
0.0132383
0.0131095
0.0129671
0.0128113
0.0126584
0.0125171
0.0123816
0.0122362
0.0120702
0.0118748
0.011643
0.0113671
0.0110388
0.0106487
0.0101872
0.00964623
0.00901576
0.00829254
0.00746734
0.00654404
0.00552761
0.00441535
0.00321096
0.00160748
-0.000158196
-0.00179708
-0.00315814
-0.00432308
-0.00554958
-0.00625682
-0.00615289
0.0150819
0.0150427
0.0150001
0.0149551
0.014905
0.0148533
0.0147973
0.0147395
0.0146795
0.0146235
0.014569
0.0145192
0.0144657
0.0144112
0.0143467
0.0142785
0.0141991
0.0141171
0.0140253
0.0139328
0.0138325
0.0137323
0.0136255
0.0135191
0.0134065
0.0132938
0.0131763
0.0130574
0.0129351
0.0128091
0.0126765
0.01253
0.012372
0.0122135
0.0120678
0.0119264
0.011775
0.0116034
0.0114035
0.0111686
0.0108918
0.0105649
0.0101787
0.00972387
0.00919227
0.00857344
0.00786348
0.00705215
0.00614177
0.00513631
0.00403117
0.00283222
0.00123103
-0.00053989
-0.00218798
-0.00355768
-0.00472519
-0.00595118
-0.00662555
-0.00648163
0.014746
0.0147011
0.0146536
0.0146039
0.014549
0.0144923
0.0144312
0.0143682
0.0143031
0.0142423
0.0141833
0.0141289
0.0140711
0.0140122
0.0139436
0.0138712
0.0137878
0.0137019
0.0136067
0.0135107
0.0134074
0.0133043
0.013195
0.0130862
0.0129715
0.0128567
0.0127372
0.0126162
0.0124919
0.0123639
0.0122294
0.0120816
0.0119206
0.0117615
0.0116124
0.0114674
0.0113121
0.0111368
0.0109337
0.0106968
0.0104191
0.0100935
0.00971013
0.00926081
0.00873635
0.00812717
0.00742752
0.00662733
0.00572737
0.00472951
0.00363288
0.00243496
0.000838205
-0.0009361
-0.00259286
-0.00397167
-0.00514238
-0.00636843
-0.00701106
-0.00683193
0.0143682
0.0143179
0.0142653
0.0142107
0.0141509
0.0140891
0.0140229
0.0139549
0.0138852
0.01382
0.013757
0.0136989
0.0136375
0.0135753
0.0135034
0.013428
0.0133418
0.0132532
0.0131555
0.0130574
0.0129521
0.0128473
0.0127365
0.0126264
0.0125107
0.012395
0.0122748
0.0121533
0.0120285
0.0119001
0.0117653
0.0116171
0.0114576
0.0112968
0.0111471
0.0110002
0.0108427
0.0106656
0.0104617
0.010225
0.00994941
0.00962739
0.00924965
0.00880768
0.00829237
0.00769357
0.00700494
0.0062153
0.00532426
0.00433243
0.00323867
0.00204103
0.000443696
-0.00133833
-0.00300707
-0.00439716
-0.00557313
-0.00680076
-0.00741454
-0.00720402
0.0139582
0.0139024
0.013845
0.0137856
0.0137211
0.0136544
0.0135833
0.0135106
0.0134366
0.0133672
0.0133005
0.0132388
0.0131741
0.0131085
0.0130334
0.0129548
0.0128656
0.0127742
0.0126741
0.0125738
0.0124669
0.0123608
0.0122493
0.0121387
0.0120229
0.0119075
0.0117878
0.011667
0.0115431
0.0114157
0.0112821
0.0111358
0.0109765
0.0108184
0.0106688
0.0105216
0.0103638
0.0101862
0.00998276
0.00974686
0.00947369
0.00915508
0.00878233
0.00834676
0.007839
0.00724915
0.00656919
0.00578831
0.00490416
0.00391658
0.00282782
0.00162611
2.99329e-05
-0.00175708
-0.0034366
-0.00483816
-0.00601999
-0.00724981
-0.00783595
-0.00759892
0.0135032
0.0134421
0.0133792
0.0133147
0.0132449
0.0131732
0.0130971
0.0130197
0.0129413
0.0128683
0.0127984
0.012734
0.0126669
0.0125992
0.0125223
0.012442
0.0123514
0.0122589
0.0121579
0.0120569
0.0119496
0.0118434
0.0117322
0.0116222
0.0115074
0.0113932
0.0112752
0.0111562
0.0110344
0.0109092
0.010778
0.010634
0.0104789
0.0103221
0.0101746
0.0100288
0.00987137
0.00969542
0.00949375
0.00926132
0.00899261
0.00868025
0.00831488
0.00788808
0.00739001
0.00681044
0.00614051
0.00536844
0.00449076
0.00350645
0.00241799
0.00121352
-0.000386451
-0.00218309
-0.00387666
-0.00529179
-0.00648157
-0.00771549
-0.00827728
-0.00801702
0.0130124
0.0129457
0.012878
0.0128089
0.012735
0.0126589
0.0125786
0.0124972
0.0124152
0.0123389
0.0122662
0.0121991
0.0121295
0.0120595
0.0119804
0.0118981
0.0118059
0.011712
0.01161
0.0115084
0.0114012
0.0112954
0.0111852
0.0110767
0.0109639
0.010852
0.0107366
0.0106205
0.0105018
0.0103798
0.0102521
0.010112
0.0099597
0.0098078
0.00966268
0.00951926
0.00936406
0.00919043
0.00899163
0.0087628
0.00849886
0.00819234
0.00783388
0.00741503
0.00692542
0.00635507
0.00569342
0.00492914
0.00405672
0.00307553
0.00199047
0.000777034
-0.000824295
-0.00262712
-0.00433302
-0.00576165
-0.00695994
-0.00819855
-0.00873708
-0.00845839
0.0124742
0.0124023
0.0123297
0.012256
0.0121777
0.0120975
0.0120134
0.0119286
0.0118436
0.0117649
0.0116902
0.0116216
0.0115507
0.0114796
0.0113997
0.0113167
0.0112241
0.0111301
0.0110284
0.0109275
0.0108213
0.010717
0.0106087
0.0105026
0.0103926
0.0102838
0.010172
0.0100597
0.00994497
0.00982702
0.00970335
0.00956746
0.00942113
0.00927169
0.00913155
0.00899104
0.00883944
0.00866914
0.00847503
0.00825152
0.00799473
0.00769629
0.00734735
0.00693858
0.00645984
0.00590023
0.00524869
0.00449275
0.00362603
0.00264758
0.00156196
0.000342184
-0.00126537
-0.00307926
-0.00480083
-0.00624514
-0.00745415
-0.00869975
-0.00921863
-0.00892423
0.0118998
0.0118224
0.011745
0.0116669
0.0115845
0.0115003
0.0114127
0.0113247
0.0112373
0.0111567
0.0110807
0.011011
0.0109394
0.0108677
0.0107872
0.0107039
0.0106111
0.0105173
0.0104161
0.0103162
0.0102116
0.0101093
0.0100037
0.00990068
0.00979423
0.00968943
0.00958193
0.00947412
0.00936392
0.00925057
0.00913163
0.0090011
0.00885815
0.0087158
0.00857942
0.00844401
0.0082965
0.00813091
0.00794157
0.00772401
0.00747396
0.00718364
0.00684338
0.0064443
0.00597521
0.00542578
0.00478296
0.00403504
0.00317352
0.00219891
0.00111577
-0.000116694
-0.00172882
-0.00355017
-0.00528558
-0.0067455
-0.0079659
-0.00921919
-0.00971937
-0.0094139
0.0112788
0.0111962
0.0111137
0.0110309
0.0109439
0.0108559
0.0107648
0.0106741
0.0105846
0.0105027
0.0104261
0.0103565
0.0102854
0.0102144
0.0101352
0.0100531
0.00996201
0.00987002
0.0097711
0.00967359
0.00957189
0.00947278
0.00937082
0.00927181
0.00916979
0.00906966
0.00896711
0.00886426
0.00875908
0.00865073
0.00853686
0.00841111
0.00827526
0.00813706
0.00800717
0.00787722
0.00773468
0.00757466
0.00739153
0.00718156
0.00694033
0.00666025
0.00633104
0.0059438
0.00548669
0.00494913
0.00431709
0.00357806
0.00272293
0.00175166
0.000668736
-0.000573088
-0.00219458
-0.00402894
-0.00578207
-0.00726028
-0.00849467
-0.00975847
-0.0102437
-0.00992934
0.0106216
0.0105334
0.010446
0.010359
0.0102685
0.0101772
0.0100836
0.00999078
0.00990001
0.00981746
0.00974086
0.0096716
0.00960127
0.00953127
0.00945322
0.00937256
0.00928329
0.00919342
0.00909711
0.00900259
0.00890447
0.00880927
0.0087118
0.00861755
0.00852069
0.00842587
0.00832877
0.00823135
0.00813149
0.00802854
0.00792008
0.00780042
0.00766955
0.00753924
0.00741537
0.00729116
0.00715445
0.00700022
0.0068239
0.00662139
0.00638906
0.00611871
0.00580019
0.0054241
0.00497831
0.00445201
0.00382993
0.00309981
0.00225091
0.00128508
0.000204071
-0.00105245
-0.00268215
-0.00452628
-0.00629552
-0.00779208
-0.00904133
-0.0103164
-0.0107875
-0.0104685
0.00991864
0.00982553
0.00973381
0.00964285
0.00954891
0.00945476
0.00935889
0.00926462
0.00917332
0.00909109
0.00901563
0.00894809
0.00888
0.00881252
0.00873734
0.00865976
0.00857393
0.00848775
0.00839546
0.00830522
0.00821176
0.00812146
0.00802927
0.00794046
0.00784932
0.0077602
0.00766893
0.00757723
0.00748314
0.00738582
0.00728321
0.00716933
0.00704632
0.00692117
0.00680429
0.00668599
0.00655525
0.00640784
0.00623937
0.006046
0.00582421
0.00556566
0.00525986
0.00489707
0.00446476
0.00395163
0.00334154
0.00262157
0.00178027
0.000819537
-0.000261114
-0.00152872
-0.00317115
-0.00503105
-0.00682085
-0.00833906
-0.00960621
-0.0108958
-0.0113565
-0.0110345
0.00916745
0.00906873
0.0089728
0.00887859
0.00878255
0.00868707
0.00859123
0.00849788
0.0084088
0.00832955
0.0082579
0.0081945
0.00813074
0.00806764
0.00799677
0.00792346
0.00784191
0.00776013
0.00767242
0.00758695
0.00749858
0.00741352
0.00732694
0.00724382
0.0071586
0.00707537
0.00699006
0.00690429
0.00681601
0.00672457
0.00662781
0.0065205
0.00640255
0.00628562
0.00617429
0.00606226
0.00593793
0.00579772
0.00563732
0.00545303
0.00524157
0.0049944
0.00470087
0.00435083
0.00393146
0.00343103
0.00283243
0.00212271
0.00128903
0.000335224
-0.000744597
-0.00202754
-0.00368154
-0.00555425
-0.00736324
-0.00890344
-0.0101896
-0.0114945
-0.0119454
-0.0116242
0.00835515
0.0082498
0.00815076
0.00805659
0.00796353
0.00787276
0.00778246
0.00769515
0.007612
0.00753891
0.0074731
0.00741567
0.00735768
0.00730017
0.00723487
0.00716689
0.00709086
0.00701436
0.00693211
0.00685197
0.00676912
0.00668951
0.00660859
0.00653107
0.00645161
0.00637406
0.00629449
0.00621435
0.00613167
0.00604578
0.00595468
0.00585286
0.00574258
0.0056303
0.00552585
0.00542002
0.00530249
0.00517018
0.00501886
0.00484496
0.00464534
0.00441131
0.00413192
0.00379667
0.00339231
0.00290654
0.00232144
0.00162334
0.00079869
-0.000148715
-0.00122826
-0.00252331
-0.00419273
-0.00608447
-0.00791782
-0.009484
-0.0107928
-0.0121166
-0.0125612
-0.0122415
0.00767209
0.0075574
0.00744687
0.00734084
0.00723574
0.0071347
0.00703587
0.00694249
0.00685504
0.00677957
0.00671249
0.00665499
0.00659736
0.00654094
0.00647698
0.00641097
0.00633728
0.00626372
0.00618485
0.0061085
0.00602991
0.00595471
0.00587858
0.00580587
0.00573141
0.00565883
0.00558429
0.00550915
0.0054314
0.00535056
0.00526461
0.0051687
0.00506308
0.00495848
0.00485956
0.00476019
0.00464965
0.00452537
0.00438311
0.00421938
0.00403123
0.0038099
0.00354418
0.00322324
0.00283348
0.002362
0.00179007
0.00110359
0.000287893
-0.000652088
-0.00173162
-0.00304192
-0.00472534
-0.00663328
-0.00848962
-0.0100822
-0.0114149
-0.0127584
-0.0131969
-0.012882
0.0068767
0.00676024
0.00665015
0.00654524
0.00644277
0.00634468
0.00624953
0.00615998
0.00607658
0.00600515
0.00594185
0.00588779
0.00583319
0.00577951
0.00571804
0.0056544
0.00558309
0.00551199
0.0054357
0.00536208
0.00528645
0.00521434
0.00514156
0.00507228
0.00500146
0.00493255
0.00486188
0.00479063
0.00471699
0.00464035
0.00455893
0.00446768
0.00436886
0.00426832
0.00417584
0.00408254
0.00397913
0.00386334
0.00373091
0.00357838
0.00340302
0.00319595
0.00294565
0.00264096
0.0022678
0.00181261
0.00125581
0.000582414
-0.000223054
-0.00115602
-0.00223578
-0.00355857
-0.0052595
-0.00718974
-0.00907459
-0.010698
-0.0120586
-0.0134254
-0.0138609
-0.0135508
0.00625333
0.00613127
0.00601218
0.00589651
0.00578147
0.00567114
0.0055644
0.00546506
0.00537344
0.00529552
0.00522673
0.00516818
0.00510928
0.00505184
0.00498667
0.00491997
0.00484594
0.00477292
0.00469527
0.00462101
0.00454537
0.0044737
0.00440195
0.004334
0.00426493
0.00419801
0.00412964
0.00406099
0.00399017
0.0039167
0.00383883
0.003752
0.00365651
0.0035625
0.00347474
0.0033875
0.00329111
0.00318367
0.00306081
0.00291913
0.00275611
0.00256285
0.00232755
0.00203873
0.00168188
0.00124269
0.000700772
4.02996e-05
-0.000755248
-0.00168105
-0.00276189
-0.00409945
-0.00581634
-0.00776597
-0.00967776
-0.0113324
-0.012722
-0.0141127
-0.0145453
-0.0142426
0.00550127
0.0053811
0.0052669
0.00515698
0.00504868
0.00494419
0.00484266
0.00474721
0.00465864
0.00458268
0.00451492
0.00445613
0.00439607
0.0043364
0.00426844
0.00419835
0.00412093
0.00404448
0.00396375
0.00388669
0.00380881
0.0037353
0.00366228
0.00359348
0.00352406
0.00345716
0.0033893
0.00332152
0.003252
0.00318023
0.00310458
0.00302034
0.00292976
0.00283851
0.00275604
0.00267431
0.00258476
0.00248585
0.00237309
0.00224313
0.00209366
0.00191568
0.0016971
0.00142607
0.00108754
0.000666396
0.000141301
-0.000504724
-0.00128915
-0.00220808
-0.00328968
-0.00464016
-0.00637623
-0.00835134
-0.0102958
-0.0119863
-0.0134091
-0.0148273
-0.0152595
-0.0149637
0.00495712
0.00483361
0.00471187
0.00459205
0.00447106
0.00435326
0.00423767
0.00412897
0.00402765
0.00394023
0.00386156
0.0037929
0.00372303
0.00365427
0.00357724
0.00349888
0.00341355
0.0033301
0.00324299
0.00316035
0.00307763
0.00299988
0.00292334
0.00285151
0.00277964
0.00271078
0.00264146
0.00257273
0.00250272
0.00243107
0.00235622
0.00227391
0.00218487
0.0020983
0.00201938
0.00194274
0.00185958
0.00176878
0.00166572
0.00154706
0.00141074
0.0012477
0.00104556
0.000792085
0.000471715
6.84449e-05
-0.000440021
-0.00107189
-0.00184574
-0.0027584
-0.00384203
-0.00520704
-0.00696063
-0.0089581
-0.0109334
-0.0126597
-0.0141165
-0.0155626
-0.0159943
-0.0157072
0.00429302
0.00417535
0.00405887
0.00394228
0.00382263
0.00370408
0.00358612
0.00347393
0.00336849
0.00327664
0.00319342
0.0031197
0.00304464
0.00296998
0.00288701
0.00280206
0.00271032
0.00262017
0.00252669
0.00243772
0.00234914
0.00226572
0.00218407
0.00210745
0.00203131
0.00195857
0.00188595
0.0018144
0.00174222
0.00166906
0.00159347
0.00151129
0.00142475
0.00133905
0.00126374
0.00119124
0.00111406
0.00103138
0.000938476
0.000831955
0.000710003
0.000563429
0.000379493
0.000145576
-0.000154545
-0.000537828
-0.0010277
-0.0016438
-0.00240592
-0.00331221
-0.0043976
-0.00577605
-0.00755054
-0.00957636
-0.0115881
-0.0133549
-0.0148499
-0.016327
-0.0167604
-0.0164809
0.00363459
0.00351943
0.00340612
0.00329253
0.00317531
0.0030575
0.00293886
0.00282435
0.00271576
0.00262
0.0025323
0.00245363
0.00237279
0.00229193
0.00220196
0.00210987
0.0020106
0.00191306
0.00181218
0.00171599
0.00162046
0.00153026
0.00144221
0.00135942
0.00127749
0.00119931
0.00112171
0.00104574
0.000969714
0.000893431
0.000815646
0.000732506
0.000644929
0.000561499
0.000487736
0.000418841
0.000347099
0.000272094
0.000188935
9.42289e-05
-1.36103e-05
-0.000143873
-0.000309673
-0.000524067
-0.000803916
-0.00116727
-0.00163866
-0.0022394
-0.00299048
-0.00389168
-0.00498049
-0.00637365
-0.00816739
-0.0102183
-0.0122643
-0.014071
-0.0156046
-0.0171129
-0.0175477
-0.0172772
0.00294399
0.00282975
0.00271871
0.00260859
0.00249485
0.0023801
0.00226313
0.00214918
0.00203994
0.0019428
0.00185311
0.00177165
0.0016876
0.00160252
0.00150794
0.00141023
0.00130509
0.00120096
0.00109331
0.000989941
0.000887238
0.000789668
0.000694394
0.000604414
0.000515497
0.000430542
0.000346568
0.00026464
0.000183237
0.000102286
2.06436e-05
-6.53179e-05
-0.000153265
-0.000238079
-0.000310249
-0.00037637
-0.000443093
-0.000510404
-0.00058334
-0.000665315
-0.000757714
-0.000870026
-0.00101578
-0.00120854
-0.00146592
-0.00180714
-0.00225803
-0.00284171
-0.00358055
-0.00447626
-0.00556792
-0.00697564
-0.00879222
-0.0108744
-0.0129603
-0.0148116
-0.0163874
-0.0179297
-0.0183675
-0.0181048
0.00225297
0.00213755
0.00202592
0.00191573
0.00180266
0.00168874
0.00157274
0.00145924
0.00135011
0.0012525
0.0011617
0.00107855
0.000991715
0.000903192
0.000803989
0.000701121
0.000589958
0.000479473
0.000364927
0.000254363
0.000144235
3.89613e-05
-6.40564e-05
-0.000161915
-0.000258677
-0.000351384
-0.000442887
-0.000531981
-0.000620087
-0.000707045
-0.000793697
-0.000883393
-0.0009746
-0.00105941
-0.00113166
-0.00119553
-0.00125775
-0.00131781
-0.00138083
-0.00145026
-0.00152727
-0.00162157
-0.00174713
-0.00191811
-0.00215279
-0.00247186
-0.00290224
-0.00346942
-0.00419671
-0.00508882
-0.0061852
-0.00760841
-0.0094461
-0.0115561
-0.0136794
-0.0155741
-0.0171923
-0.0187685
-0.019209
-0.0189548
0.00155681
0.00143891
0.00132442
0.0012116
0.00109584
0.000979756
0.00086149
0.000746113
0.000635085
0.000535851
0.000443544
0.000358628
0.000270067