/*--------------------------------*- C++ -*----------------------------------*\
  =========                 |
  \\      /  F ield         | OpenFOAM: The Open Source CFD Toolbox
   \\    /   O peration     | Website:  https://openfoam.org
    \\  /    A nd           | Version:  6.0
     \\/     M anipulation  |
\*---------------------------------------------------------------------------*/
FoamFile
{
    version     2.0;
    format      ascii;
    class       volVectorField;
    location    "1.27";
    object      U;
}
// * * * * * * * * * * * * * * * * * * * * * * * * * * * * * * * * * * * * * //

dimensions      [0 1 -1 0 0 0 0];

internalField   nonuniform List<vector> 
13500
(
(1 1.7346e-06 -4.3499e-18)
(1 -3.7244e-06 2.9445e-18)
(1 -5.6815e-06 -1.2652e-17)
(1 -8.9868e-06 -8.7688e-18)
(1 -8.5297e-06 1.6498e-17)
(1 -6.1867e-06 3.0758e-17)
(1 -9.9039e-08 2.645e-17)
(0.99997 1.6769e-05 -4.2608e-18)
(0.99991 4.3483e-05 1.5735e-17)
(0.99978 8.2861e-05 3.3751e-18)
(0.99592 0.0007136 2.9136e-17)
(1.0191 0.010837 8.0143e-18)
(1 5.4025e-06 2.6949e-18)
(1 -1.0903e-05 -8.9423e-18)
(1 -1.5997e-05 6.0416e-18)
(1 -2.6033e-05 -3.4589e-19)
(1 -2.3682e-05 -4.3995e-19)
(1 -1.7287e-05 -3.6985e-17)
(1 2.3852e-06 -4.5683e-17)
(0.99993 5.1643e-05 -2.4379e-17)
(0.99972 0.00013787 -1.5705e-17)
(0.9997 0.00022086 -1.6688e-18)
(0.98697 0.0020271 -1.3798e-17)
(1.0537 0.030624 -4.8525e-18)
(1 9.1246e-06 -3.4807e-18)
(1 -1.8251e-05 1.7767e-17)
(1 -2.628e-05 3.1425e-18)
(1 -4.3496e-05 1.011e-17)
(1 -3.8727e-05 -3.8043e-18)
(1 -2.8954e-05 2.9626e-17)
(1 5.2804e-06 -6.4307e-18)
(0.99988 8.6273e-05 5.5379e-18)
(0.99952 0.00023752 -1.9052e-17)
(1 0.00038774 2.5353e-17)
(0.97758 0.0029465 -7.2152e-18)
(1.0823 0.045155 1.7071e-18)
(1 1.2884e-05 9.0994e-18)
(1 -2.5804e-05 -1.7225e-17)
(1 -3.6691e-05 -1.4896e-17)
(1 -6.1423e-05 -7.0939e-19)
(1 -5.3946e-05 5.8726e-18)
(1 -4.1179e-05 -8.2228e-19)
(1 8.1995e-06 6.3359e-17)
(0.99985 0.00012035 9.9771e-18)
(0.9993 0.00034062 2.2529e-17)
(1.0007 0.00059017 -9.1836e-18)
(0.96814 0.0034926 3.5139e-17)
(1.1036 0.055717 -7.7703e-18)
(1 1.6707e-05 -6.3937e-18)
(1 -3.3461e-05 1.4887e-17)
(1 -4.7077e-05 1.268e-17)
(1 -7.9504e-05 1.294e-17)
(1 -6.9139e-05 2.8795e-18)
(1 -5.3589e-05 2.1775e-17)
(1 1.1262e-05 -2.8294e-17)
(0.99982 0.00015385 2.0263e-18)
(0.99905 0.00044509 -1.3814e-17)
(1.0017 0.00083171 -2.1913e-18)
(0.95906 0.0037133 -9.1112e-18)
(1.1176 0.063448 2.1528e-18)
(1 2.0594e-05 6.4704e-18)
(1 -4.1223e-05 -6.1715e-18)
(1 -5.7438e-05 3.8726e-18)
(1 -9.7742e-05 -2.5633e-17)
(1.0001 -8.4308e-05 -8.4367e-20)
(1.0001 -6.6215e-05 -4.3107e-17)
(1 1.4463e-05 1.0857e-18)
(0.99981 0.0001867 -1.6266e-17)
(0.99877 0.00054886 5.2602e-18)
(1.0029 0.0011197 -2.2077e-17)
(0.95068 0.0036503 -2.1943e-17)
(1.1251 0.068962 2.0842e-18)
(0.99999 2.4545e-05 -1.0711e-18)
(1 -4.9095e-05 -7.3812e-18)
(1 -6.777e-05 -3.1474e-18)
(1.0001 -0.00011616 1.9347e-17)
(1.0001 -9.944e-05 -2.667e-17)
(1.0001 -7.9096e-05 1.6494e-17)
(1 1.7835e-05 1.8924e-17)
(0.9998 0.0002189 5.7229e-18)
(0.99845 0.00064994 1.176e-17)
(1.0044 0.0014608 1.1885e-17)
(0.94328 0.0033428 9.4553e-18)
(1.1269 0.072689 3.3518e-18)
(0.99999 2.8563e-05 -2.2107e-18)
(1 -5.7082e-05 -1.452e-18)
(1 -7.8074e-05 -2.7112e-17)
(1.0001 -0.00013476 -9.2385e-18)
(1.0001 -0.00011453 7.4649e-18)
(1.0001 -9.2265e-05 2.703e-17)
(1 2.1395e-05 1.2045e-17)
(0.9998 0.0002505 5.1087e-18)
(0.9981 0.00074634 -7.6872e-18)
(1.0059 0.0018584 1.6647e-17)
(0.93705 0.0028299 7.6375e-18)
(1.1242 0.074991 -1.0667e-17)
(0.99999 3.2647e-05 -6.8627e-18)
(1 -6.5188e-05 6.2426e-18)
(1 -8.8351e-05 4.5586e-17)
(1.0001 -0.00015357 -1.1081e-17)
(1.0001 -0.00012959 2.7954e-17)
(1.0001 -0.00010575 -5.3367e-17)
(1 2.5148e-05 -4.0125e-17)
(0.99981 0.00028156 9.9267e-18)
(0.99771 0.00083613 -5.774e-18)
(1.0076 0.0023134 -9.1815e-18)
(0.93211 0.0021508 -1.411e-17)
(1.118 0.076173 1.3961e-17)
(0.99999 3.6799e-05 4.5213e-18)
(1 -7.3416e-05 2.3497e-18)
(1 -9.8601e-05 -3.8614e-17)
(1.0001 -0.00017259 1.5771e-17)
(1.0001 -0.0001446 -1.219e-17)
(1.0001 -0.00011957 2.2761e-17)
(1 2.9096e-05 1.4259e-17)
(0.99984 0.00031214 2.5092e-18)
(0.99729 0.00091753 5.4476e-19)
(1.0093 0.002824 1.4549e-18)
(0.9285 0.0013439 4.4899e-18)
(1.1092 0.076489 -7.2828e-19)
(0.99999 4.1019e-05 -2.4824e-18)
(1 -8.1768e-05 -7.7063e-18)
(1 -0.00010883 9.4655e-18)
(1.0001 -0.00019182 -2.7826e-18)
(1.0001 -0.00015958 1.8817e-18)
(1.0001 -0.00013377 -2.4944e-17)
(1 3.3244e-05 -3.2842e-17)
(0.99988 0.00034235 -3.1871e-17)
(0.99684 0.00098893 1.614e-17)
(1.011 0.003387 1.89e-18)
(0.92622 0.00044555 -1.1388e-17)
(1.0985 0.076143 -6.0229e-18)
(0.99998 4.5309e-05 3.4263e-18)
(1 -9.0249e-05 2.9108e-18)
(1 -0.00011903 4.5617e-18)
(1.0001 -0.00021129 -2.2176e-18)
(1.0001 -0.00017452 -5.6405e-18)
(1.0001 -0.00014838 9.4345e-18)
(1.0001 3.7596e-05 1.9011e-17)
(0.99993 0.00037228 1.9689e-17)
(0.99637 0.001049 1.0372e-17)
(1.0126 0.003997 -2.3862e-17)
(0.9252 -0.00050978 1.1955e-19)
(1.0869 0.075302 -6.9809e-18)
(0.99998 4.9668e-05 -3.4257e-18)
(1 -9.8862e-05 5.7241e-18)
(1 -0.00012921 8.2704e-18)
(1.0001 -0.000231 5.7904e-18)
(1.0001 -0.00018943 -5.2314e-18)
(1.0002 -0.00016343 4.6381e-18)
(1.0001 4.2159e-05 4.3351e-18)
(1 0.00040204 -1.7582e-18)
(0.99587 0.0010966 -1.6763e-17)
(1.0141 0.004648 2.213e-17)
(0.92534 -0.0014906 1.0659e-19)
(1.0748 0.074101 1.4909e-18)
(0.99998 5.4098e-05 5.2094e-18)
(1 -0.00010761 -4.4681e-18)
(1 -0.00013936 7.2393e-19)
(1.0001 -0.00025095 -4.8304e-18)
(1.0001 -0.00020429 1.1881e-17)
(1.0002 -0.00017895 5.6589e-18)
(1.0001 4.6938e-05 1.7443e-17)
(1.0001 0.00043174 -6.5295e-18)
(0.99537 0.0011309 -2.0485e-19)
(1.0154 0.0053325 5.4366e-18)
(0.9265 -0.0024685 1.7286e-17)
(1.0627 0.072649 9.5081e-19)
(0.99997 5.8599e-05 1.2564e-18)
(1 -0.0001165 9.9164e-18)
(1 -0.00014949 1.3829e-17)
(1.0001 -0.00027117 -4.8161e-18)
(1.0002 -0.00021911 8.6027e-18)
(1.0002 -0.000195 -2.6418e-18)
(1.0001 5.1942e-05 -3.055e-17)
(1.0002 0.00046144 2.0667e-17)
(0.99486 0.0011516 -1.8908e-17)
(1.0166 0.0060429 -3.1356e-17)
(0.92854 -0.0034188 -3.7951e-18)
(1.051 0.071033 8.8162e-19)
(0.99997 6.3172e-05 -3.2054e-18)
(0.99999 -0.00012553 -1.0546e-17)
(1 -0.00015961 -3.3193e-17)
(1.0001 -0.00029167 8.114e-18)
(1.0002 -0.00023389 -1.3055e-17)
(1.0002 -0.00021159 8.47e-18)
(1.0001 5.7181e-05 -2.8585e-18)
(1.0003 0.00049123 -1.2441e-17)
(0.99436 0.0011583 4.1501e-18)
(1.0175 0.006771 1.8725e-17)
(0.9313 -0.0043207 -7.9632e-18)
(1.04 0.069319 1.2296e-17)
(0.99997 6.7816e-05 3.3725e-19)
(0.99999 -0.0001347 7.8874e-18)
(1 -0.00016971 2.2916e-17)
(1.0001 -0.00031245 -1.8274e-18)
(1.0002 -0.00024863 -1.2969e-17)
(1.0002 -0.00022879 -1.5784e-17)
(1.0001 6.2665e-05 1.0919e-17)
(1.0004 0.00052114 7.1347e-18)
(0.99386 0.0011511 2.4e-17)
(1.0183 0.0075087 -2.6224e-18)
(0.93463 -0.0051573 1.9785e-18)
(1.0299 0.067561 -4.9051e-18)
(0.99996 7.2533e-05 -1.8922e-18)
(0.99999 -0.00014403 -9.557e-18)
(1 -0.00017978 -1.034e-17)
(1.0001 -0.00033354 6.1067e-18)
(1.0002 -0.00026331 -7.2836e-18)
(1.0003 -0.00024663 -1.266e-17)
(1.0001 6.8412e-05 1.0614e-17)
(1.0005 0.00055119 -4.8404e-18)
(0.99338 0.0011305 -2.9706e-17)
(1.0189 0.0082481 -1.4699e-17)
(0.93836 -0.0059155 8.5854e-18)
(1.0208 0.065797 -5.3263e-18)
(0.99996 7.7321e-05 -2.7093e-18)
(0.99999 -0.00015351 -3.6121e-18)
(1 -0.00018985 -7.6633e-19)
(1.0001 -0.00035493 -2.6741e-17)
(1.0002 -0.00027795 6.1116e-18)
(1.0003 -0.00026516 5.5131e-18)
(1.0001 7.4436e-05 -2.017e-17)
(1.0007 0.00058135 -1.6525e-17)
(0.99292 0.0010971 4.3428e-18)
(1.0193 0.0089814 -1.107e-18)
(0.94237 -0.0065863 -9.9142e-18)
(1.0128 0.064056 1.007e-18)
(0.99995 8.2182e-05 3.5241e-18)
(0.99998 -0.00016314 1.6559e-17)
(1 -0.00019989 1.9732e-17)
(1.0001 -0.00037666 2.5184e-18)
(1.0002 -0.00029252 1.6894e-17)
(1.0003 -0.00028444 9.661e-18)
(1.0001 8.0756e-05 2.9113e-18)
(1.0008 0.00061159 1.8086e-17)
(0.99248 0.0010515 2.1593e-17)
(1.0195 0.0097015 1.7555e-17)
(0.94652 -0.007164 7.3977e-18)
(1.0059 0.062359 1.1963e-18)
(0.99995 8.7115e-05 -1.6797e-18)
(0.99998 -0.00017294 -3.973e-18)
(1 -0.00020993 -2.1022e-17)
(1.0002 -0.00039872 -2.3843e-18)
(1.0002 -0.00030704 -1.2804e-17)
(1.0003 -0.0003045 -5.227e-18)
(1.0001 8.7392e-05 -1.8684e-18)
(1.001 0.00064183 -1.6353e-17)
(0.99207 0.00099487 -2.0652e-17)
(1.0196 0.010402 8.9998e-18)
(0.9507 -0.007646 5.0683e-19)
(1 0.060719 6.8739e-19)
(0.99994 9.212e-05 4.4522e-18)
(0.99998 -0.0001829 -5.1906e-18)
(1 -0.00021995 -1.9716e-17)
(1.0002 -0.00042113 4.5331e-17)
(1.0002 -0.0003215 1.8573e-17)
(1.0004 -0.00032542 -1.279e-17)
(1.0001 9.4362e-05 2.512e-17)
(1.0012 0.00067197 2.2101e-17)
(0.9917 0.00092817 3.3516e-17)
(1.0195 0.011077 -3.2989e-17)
(0.95483 -0.0080326 -1.3585e-17)
(0.99514 0.059144 1.8177e-19)
(0.99994 9.7196e-05 -3.2589e-18)
(0.99997 -0.00019302 -1.0416e-18)
(1 -0.00022997 3.366e-17)
(1.0002 -0.00044392 -3.4267e-17)
(1.0002 -0.00033588 -1.788e-18)
(1.0004 -0.00034724 4.2379e-17)
(1.0001 0.00010168 7.7847e-18)
(1.0014 0.00070188 -3.414e-18)
(0.99136 0.00085255 -2.0788e-17)
(1.0193 0.011721 3.8879e-17)
(0.95883 -0.0083265 -5.7538e-18)
(0.99121 0.057639 -2.8829e-19)
(0.99993 0.00010234 -1.6613e-18)
(0.99997 -0.00020332 -2.0754e-18)
(1 -0.00023998 1.7526e-18)
(1.0002 -0.00046709 3.5649e-17)
(1.0003 -0.00035018 -1.008e-17)
(1.0004 -0.00037003 -3.1323e-17)
(1 0.00010936 -1.9848e-17)
(1.0016 0.00073143 -3.676e-18)
(0.99105 0.00076915 6.5754e-18)
(1.019 0.012331 -3.2802e-17)
(0.96265 -0.0085323 9.6379e-18)
(0.98813 0.056204 3.129e-18)
(0.99992 0.00010756 2.7454e-18)
(0.99997 -0.00021379 1.4445e-17)
(1 -0.00024998 -1.2927e-17)
(1.0002 -0.00049066 -3.7328e-18)
(1.0003 -0.0003644 -1.9345e-17)
(1.0004 -0.00039385 3.4077e-17)
(1 0.0001174 -1.7424e-17)
(1.0018 0.00076046 1.5238e-17)
(0.99079 0.00067909 -2.0264e-18)
(1.0186 0.012903 3.0755e-17)
(0.96624 -0.0086558 -9.4035e-18)
(0.98578 0.054837 -5.2216e-18)
(0.99992 0.00011284 -5.2655e-19)
(0.99996 -0.00022443 -8.3079e-18)
(1 -0.00025999 -1.81e-17)
(1.0002 -0.00051464 -1.0228e-17)
(1.0003 -0.00037854 1.8763e-17)
(1.0005 -0.00041875 -4.3454e-17)
(1 0.00012579 -2.6884e-18)
(1.002 0.00078883 -2.0587e-17)
(0.99056 0.00058341 3.2756e-18)
(1.0182 0.013434 -8.871e-18)
(0.96957 -0.0087041 1.0009e-17)
(0.98409 0.053537 2.2161e-18)
(0.99991 0.0001182 2.7583e-18)
(0.99996 -0.00023525 -8.899e-18)
(1 -0.00026999 -1.7879e-18)
(1.0002 -0.00053906 2.4852e-18)
(1.0003 -0.00039258 5.9384e-18)
(1.0005 -0.0004448 1.2556e-17)
(0.99999 0.0001345 4.4078e-17)
(1.0022 0.00081637 2.4603e-18)
(0.99036 0.00048306 5.3395e-18)
(1.0177 0.013923 9.7787e-18)
(0.97265 -0.008685 -8.5599e-18)
(0.98295 0.052298 1.7041e-18)
(0.9999 0.00012362 -1.5817e-18)
(0.99995 -0.00024626 8.8908e-18)
(1 -0.00028 2.5728e-17)
(1.0002 -0.00056392 -2.504e-17)
(1.0003 -0.00040652 -9.237e-18)
(1.0005 -0.00047205 -2.2093e-18)
(0.99996 0.00014349 -1.4529e-17)
(1.0024 0.00084294 1.9088e-18)
(0.99021 0.00037889 -9.2495e-18)
(1.0172 0.014368 -3.5937e-18)
(0.97546 -0.0086066 -2.4201e-19)
(0.98228 0.051117 -2.0817e-18)
(0.9999 0.0001291 -1.6999e-18)
(0.99995 -0.00025745 5.3216e-18)
(1 -0.00029001 -6.2236e-19)
(1.0002 -0.00058925 8.3032e-18)
(1.0003 -0.00042035 -1.7043e-17)
(1.0006 -0.00050057 2.4998e-17)
(0.99994 0.00015267 7.2465e-18)
(1.0027 0.0008684 -1.8209e-17)
(0.99008 0.0002716 -1.1866e-17)
(1.0167 0.014771 -1.4229e-17)
(0.978 -0.0084768 1.3566e-18)
(0.98199 0.049988 -3.8192e-18)
(0.99989 0.00013464 5.9072e-19)
(0.99994 -0.00026884 -1.2709e-17)
(1 -0.00030004 1.5931e-17)
(1.0002 -0.00061506 2.2965e-17)
(1.0003 -0.00043408 3.3405e-17)
(1.0006 -0.0005304 -1.8359e-17)
(0.9999 0.00016195 -1.8017e-17)
(1.0029 0.00089263 3.6952e-18)
(0.99 0.0001618 1.1118e-17)
(1.0162 0.01513 1.1139e-17)
(0.98029 -0.0083036 6.3157e-18)
(0.98201 0.048908 3.796e-18)
(0.99988 0.00014025 1.132e-18)
(0.99994 -0.00028041 1.0106e-17)
(1 -0.00031008 -3.6601e-17)
(1.0002 -0.00064137 -3.3276e-18)
(1.0003 -0.00044771 -2.7749e-17)
(1.0007 -0.0005616 -1.1564e-17)
(0.99987 0.00017119 2.5345e-20)
(1.0031 0.00091552 -4.2269e-18)
(0.98994 4.9921e-05 -2.1917e-17)
(1.0158 0.015448 -1.7784e-17)
(0.98235 -0.0080946 -8.6268e-18)
(0.98227 0.047871 -1.8733e-18)
(0.99987 0.00014591 -7.3373e-19)
(0.99993 -0.00029217 -6.5724e-18)
(1 -0.00032015 2.8798e-17)
(1.0002 -0.00066821 -3.1749e-17)
(1.0003 -0.00046123 -2.0866e-18)
(1.0007 -0.00059421 2.4625e-17)
(0.99983 0.00018022 7.2087e-19)
(1.0034 0.00093698 4.0307e-18)
(0.98991 -6.3673e-05 1.9186e-17)
(1.0153 0.015725 2.3117e-17)
(0.9842 -0.0078568 4.9352e-18)
(0.98272 0.046873 -1.0479e-18)
(0.99986 0.00015163 -1.91e-18)
(0.99992 -0.00030413 -2.4237e-18)
(1 -0.00033024 -1.2766e-17)
(1.0002 -0.00069557 1.5816e-17)
(1.0003 -0.00047466 3.0496e-17)
(1.0008 -0.00062826 -1.0883e-17)
(0.99979 0.00018883 2.2438e-17)
(1.0036 0.00095694 3.0212e-18)
(0.98992 -0.00017874 -2.175e-18)
(1.0149 0.015964 1.0456e-17)
(0.98585 -0.0075966 -5.5165e-18)
(0.98331 0.045911 -7.3177e-19)
(0.99985 0.00015739 4.777e-19)
(0.99992 -0.00031629 -6.4095e-18)
(1 -0.00034037 4.7788e-18)
(1.0003 -0.00072349 -1.6119e-17)
(1.0003 -0.000488 -3.2256e-17)
(1.0008 -0.0006638 6.8583e-18)
(0.99974 0.00019676 -3.237e-17)
(1.0038 0.00097535 -6.9078e-18)
(0.98995 -0.00029509 7.054e-18)
(1.0145 0.016167 -3.2821e-17)
(0.98732 -0.0073196 3.7763e-18)
(0.984 0.044981 2.06e-18)
(0.99984 0.0001632 8.3886e-19)
(0.99991 -0.00032865 1.7365e-17)
(1 -0.00035054 8.0013e-18)
(1.0003 -0.00075198 6.5661e-18)
(1.0003 -0.00050128 2.5792e-17)
(1.0009 -0.00070082 2.0448e-18)
(0.9997 0.00020372 2.2352e-17)
(1.0041 0.00099217 4.9546e-18)
(0.99001 -0.00041263 -2.1447e-17)
(1.0141 0.016336 1.1299e-17)
(0.98865 -0.0070309 2.554e-18)
(0.98476 0.04408 2.1388e-18)
(0.99983 0.00016906 -2.929e-18)
(0.9999 -0.00034121 -5.716e-18)
(1 -0.00036075 -7.0301e-18)
(1.0003 -0.00078106 1.0783e-17)
(1.0003 -0.00051452 1.246e-17)
(1.0009 -0.00073937 -4.0722e-18)
(0.99965 0.00020938 -1.8775e-17)
(1.0043 0.0010074 2.256e-17)
(0.99009 -0.00053126 3.9686e-18)
(1.0138 0.016475 -3.4131e-18)
(0.98984 -0.0067348 1.0569e-17)
(0.98557 0.043205 -1.4878e-18)
(0.99982 0.00017495 6.0185e-18)
(0.9999 -0.00035397 6.8452e-18)
(0.99999 -0.00037103 -7.4727e-18)
(1.0003 -0.00081074 -6.7168e-18)
(1.0003 -0.00052775 -1.7879e-17)
(1.001 -0.00077943 -6.9942e-18)
(0.9996 0.00021338 9.2569e-18)
(1.0046 0.0010209 -3.6186e-17)
(0.99019 -0.0006509 9.7231e-18)
(1.0135 0.016584 -4.0342e-18)
(0.99093 -0.0064351 -1.1193e-17)
(0.98639 0.042355 4.3251e-18)
(0.99981 0.00018088 -2.6563e-18)
(0.99989 -0.00036693 -1.2027e-17)
(0.99998 -0.00038138 -7.2421e-18)
(1.0003 -0.00084105 -1.2746e-17)
(1.0003 -0.00054101 -5.4588e-18)
(1.001 -0.000821 2.0565e-17)
(0.99955 0.0002153 -9.0934e-18)
(1.0048 0.0010329 4.0255e-17)
(0.99031 -0.0007715 9.1716e-18)
(1.0133 0.016668 1.2242e-17)
(0.99191 -0.0061346 4.7185e-18)
(0.98723 0.041526 -7.0176e-18)
(0.9998 0.00018684 -1.4089e-18)
(0.99988 -0.00038011 8.944e-18)
(0.99998 -0.00039181 1.4349e-17)
(1.0003 -0.000872 3.4365e-17)
(1.0003 -0.00055437 7.2358e-18)
(1.0011 -0.00086409 -1.4106e-17)
(0.9995 0.00021474 4.3883e-18)
(1.005 0.0010432 -4.3309e-17)
(0.99045 -0.00089294 -1.1127e-17)
(1.0131 0.016729 -6.8064e-18)
(0.99282 -0.005836 4.6313e-18)
(0.98806 0.040717 7.0621e-18)
(0.99979 0.00019281 1.0782e-18)
(0.99987 -0.00039349 2.1172e-18)
(0.99997 -0.00040234 -1.4091e-17)
(1.0003 -0.0009036 -5.7243e-18)
(1.0003 -0.00056787 9.187e-18)
(1.0012 -0.00090867 1.6883e-17)
(0.99945 0.00021123 1.5259e-17)
(1.0052 0.0010519 4.2863e-18)
(0.99061 -0.0010151 1.2449e-17)
(1.0129 0.016768 -3.1535e-18)
(0.99365 -0.0055411 -8.2677e-18)
(0.98888 0.039928 -1.8204e-18)
(0.99978 0.0001988 -4.416e-20)
(0.99986 -0.00040708 2.4129e-18)
(0.99996 -0.00041299 3.1493e-18)
(1.0003 -0.00093587 -7.431e-18)
(1.0003 -0.00058161 8.5288e-20)
(1.0012 -0.00095472 -1.5308e-17)
(0.9994 0.00020434 -1.0321e-17)
(1.0055 0.0010591 3.1717e-17)
(0.99079 -0.0011378 -1.8817e-17)
(1.0127 0.016789 1.2245e-17)
(0.99443 -0.0052515 4.3675e-18)
(0.98969 0.039156 -5.152e-18)
(0.99977 0.00020481 -3.3395e-18)
(0.99986 -0.00042087 -1.1317e-17)
(0.99996 -0.00042377 8.0399e-18)
(1.0003 -0.00096883 -2.0294e-17)
(1.0003 -0.00059567 -2.3232e-17)
(1.0013 -0.0010022 -2.1146e-17)
(0.99935 0.00019361 -2.1035e-17)
(1.0057 0.0010646 -3.2479e-18)
(0.99097 -0.0012609 1.6446e-17)
(1.0126 0.016793 -1.0504e-17)
(0.99517 -0.0049683 4.3475e-19)
(0.99047 0.038401 4.8552e-18)
(0.99975 0.00021081 6.4456e-18)
(0.99985 -0.00043488 1.1827e-17)
(0.99995 -0.0004347 -1.2966e-17)
(1.0003 -0.0010025 1.6662e-17)
(1.0003 -0.00061015 -2.724e-18)
(1.0014 -0.0010512 1.3861e-17)
(0.99931 0.0001786 2.5284e-17)
(1.0059 0.0010687 -2.4605e-17)
(0.99118 -0.0013842 -8.3403e-18)
(1.0124 0.016782 1.1091e-17)
(0.99586 -0.0046924 3.7778e-18)
(0.99123 0.037662 -2.2985e-18)
(0.99974 0.0002168 -4.8364e-18)
(0.99984 -0.00044911 -3.4953e-18)
(0.99994 -0.00044582 -2.7108e-18)
(1.0003 -0.0010369 1.9064e-17)
(1.0003 -0.00062518 -5.8317e-18)
(1.0015 -0.0011015 -1.7564e-19)
(0.99927 0.0001589 -4.9476e-18)
(1.0061 0.0010713 1.9709e-17)
(0.99139 -0.0015072 -7.9202e-18)
(1.0123 0.016758 -7.6157e-18)
(0.99652 -0.0044243 -1.1168e-17)
(0.99197 0.036939 2.6745e-18)
(0.99973 0.00022278 3.2875e-18)
(0.99983 -0.00046354 -4.4318e-18)
(0.99993 -0.00045714 6.2062e-18)
(1.0004 -0.001072 -2.8926e-17)
(1.0003 -0.00064088 3.9511e-17)
(1.0015 -0.0011533 5.7425e-18)
(0.99923 0.00013411 1.952e-17)
(1.0063 0.0010725 -1.2196e-17)
(0.99161 -0.0016299 1.0385e-19)
(1.0123 0.016722 5.6629e-18)
(0.99715 -0.0041643 -2.1757e-18)
(0.99268 0.036229 -1.006e-18)
(0.99971 0.00022874 -9.4047e-19)
(0.99982 -0.0004782 8.6623e-19)
(0.99992 -0.00046871 1.5121e-17)
(1.0004 -0.0011079 7.8858e-18)
(1.0003 -0.00065741 -1.9752e-17)
(1.0016 -0.0012064 -1.1248e-17)
(0.99919 0.00010391 3.408e-18)
(1.0065 0.0010723 -5.9298e-18)
(0.99184 -0.0017518 1.3252e-17)
(1.0122 0.016676 -3.7175e-18)
(0.99776 -0.0039128 1.0462e-17)
(0.99337 0.035534 -3.6776e-18)
(0.9997 0.00023467 -1.6369e-18)
(0.99981 -0.00049307 -8.3502e-18)
(0.99991 -0.00048054 -4.4959e-18)
(1.0004 -0.0011445 3.1666e-17)
(1.0003 -0.00067492 -1.7597e-17)
(1.0017 -0.0012608 -9.527e-19)
(0.99916 6.8014e-05 -5.097e-17)
(1.0067 0.0010709 5.8283e-18)
(0.99208 -0.0018727 -2.4783e-17)
(1.0121 0.016621 -8.0275e-18)
(0.99835 -0.0036698 -1.0467e-17)
(0.99404 0.034852 2.1839e-18)
(0.99968 0.00024055 -7.0664e-19)
(0.9998 -0.00050817 5.1733e-18)
(0.9999 -0.00049269 -1.8559e-18)
(1.0004 -0.001182 -1.8438e-17)
(1.0003 -0.00069359 2.5288e-17)
(1.0018 -0.0013166 -2.3419e-18)
(0.99913 2.6192e-05 2.6999e-17)
(1.0069 0.0010683 -3.5833e-18)
(0.99233 -0.0019922 1.2032e-17)
(1.0121 0.016558 1.004e-17)
(0.99892 -0.0034353 8.6349e-18)
(0.99468 0.034184 -5.2919e-19)
(0.99967 0.00024638 4.0057e-18)
(0.99978 -0.0005235 -3.0952e-18)
(0.99989 -0.0005052 -6.492e-18)
(1.0004 -0.0012202 2.0123e-17)
(1.0003 -0.0007136 1.8556e-18)
(1.0019 -0.0013737 2.9034e-17)
(0.99911 -2.1703e-05 4.6572e-18)
(1.0071 0.0010646 1.712e-17)
(0.99257 -0.0021101 4.5142e-18)
(1.012 0.016488 -3.2484e-18)
(0.99948 -0.0032092 1.1245e-18)
(0.99531 0.033528 4.785e-19)
(0.99965 0.00025214 1.1421e-18)
(0.99977 -0.00053906 1.2656e-18)
(0.99988 -0.00051811 -5.8866e-18)
(1.0004 -0.0012593 -4.0074e-17)
(1.0003 -0.00073514 5.6194e-18)
(1.0019 -0.0014322 2.5181e-18)
(0.9991 -7.5749e-05 -2.0194e-17)
(1.0073 0.00106 2.4092e-19)
(0.99283 -0.002226 1.3303e-17)
(1.012 0.016411 -2.0883e-18)
(1 -0.0029913 -5.4744e-18)
(0.99591 0.032885 2.825e-18)
(0.99964 0.00025783 -4.8909e-18)
(0.99976 -0.00055487 5.3638e-18)
(0.99987 -0.00053147 9.7061e-19)
(1.0004 -0.0012993 2.2253e-17)
(1.0003 -0.0007584 -2.5634e-17)
(1.002 -0.0014919 -1.1122e-17)
(0.99909 -0.00013595 2.0654e-17)
(1.0074 0.0010545 -1.1596e-17)
(0.99308 -0.0023397 -2.103e-17)
(1.0119 0.016328 -1.0319e-17)
(1.0005 -0.0027815 6.9739e-18)
(0.9965 0.032253 9.4367e-19)
(0.99962 0.00026343 -5.175e-19)
(0.99975 -0.00057093 -5.3974e-18)
(0.99986 -0.00054535 1.0335e-17)
(1.0004 -0.0013403 9.8664e-18)
(1.0003 -0.00078358 3.166e-17)
(1.0021 -0.001553 4.2726e-18)
(0.99908 -0.00020222 1.8345e-17)
(1.0076 0.0010482 2.94e-17)
(0.99334 -0.002451 -9.2922e-19)
(1.0119 0.01624 1.8151e-17)
(1.0011 -0.0025797 -7.3747e-19)
(0.99707 0.031634 -2.7504e-18)
(0.9996 0.00026893 5.0161e-18)
(0.99974 -0.00058725 -7.8579e-18)
(0.99984 -0.0005598 -1.5686e-17)
(1.0004 -0.0013821 -2.6226e-18)
(1.0003 -0.00081088 -3.4362e-17)
(1.0022 -0.0016154 -1.2713e-17)
(0.99908 -0.00027441 -6.3678e-18)
(1.0078 0.0010413 2.1998e-19)
(0.9936 -0.0025596 2.7368e-17)
(1.0119 0.016146 4.1826e-18)
(1.0016 -0.0023857 -9.5788e-18)
(0.99762 0.031026 1.6516e-18)
(0.99958 0.00027431 -5.6235e-18)
(0.99972 -0.00060385 9.816e-18)
(0.99983 -0.00057489 8.211e-18)
(1.0005 -0.0014249 -5.2258e-18)
(1.0003 -0.00084049 2.7633e-17)
(1.0023 -0.001679 1.5209e-17)
(0.99909 -0.0003523 -5.0337e-18)
(1.0079 0.0010339 -2.9627e-17)
(0.99386 -0.0026655 -9.304e-19)
(1.0118 0.016048 -1.1952e-17)
(1.0021 -0.0021993 1.1342e-17)
(0.99816 0.03043 -2.1629e-18)
(0.99957 0.00027957 3.379e-18)
(0.99971 -0.00062074 -1.8782e-18)
(0.99982 -0.00059069 1.0872e-17)
(1.0005 -0.0014688 -2.1985e-17)
(1.0003 -0.00087259 9.0223e-18)
(1.0024 -0.0017439 -5.4637e-18)
(0.9991 -0.0004356 -1.0845e-17)
(1.0081 0.0010261 -2.3782e-18)
(0.99412 -0.0027686 -3.3028e-17)
(1.0118 0.015945 7.8856e-18)
(1.0025 -0.0020203 -1.039e-17)
(0.99868 0.029845 7.2225e-19)
(0.99955 0.00028468 2.6714e-19)
(0.9997 -0.00063794 -5.9086e-18)
(0.9998 -0.00060726 6.1733e-18)
(1.0005 -0.0015137 2.8935e-17)
(1.0003 -0.00090735 -2.149e-17)
(1.0025 -0.0018101 1.7575e-17)
(0.99912 -0.00052395 -6.2709e-18)
(1.0082 0.001018 5.5073e-18)
(0.99438 -0.0028687 3.9239e-17)
(1.0118 0.015838 -1.4639e-17)
(1.003 -0.0018485 1.5886e-17)
(0.99918 0.029271 2.0442e-18)
(0.99953 0.00028963 4.7947e-19)
(0.99968 -0.00065547 -1.2227e-18)
(0.99979 -0.0006247 -8.8815e-18)
(1.0005 -0.0015598 -4.3562e-18)
(1.0003 -0.00094492 1.8728e-17)
(1.0026 -0.0018774 1.3969e-19)
(0.99914 -0.00061696 -1.2326e-17)
(1.0084 0.0010098 -1.3147e-17)
(0.99464 -0.0029658 -1.6425e-17)
(1.0118 0.015726 -1.3823e-18)
(1.0035 -0.0016838 2.9136e-18)
(0.99968 0.028707 2.1541e-19)
(0.99951 0.00029441 -7.7161e-19)
(0.99967 -0.00067335 1.4552e-17)
(0.99977 -0.00064306 -5.9235e-18)
(1.0005 -0.001607 -2.4616e-17)
(1.0002 -0.00098542 8.6333e-18)
(1.0026 -0.0019458 -4.4779e-17)
(0.99916 -0.00071418 6.1487e-18)
(1.0085 0.0010014 8.2783e-18)
(0.9949 -0.00306 7.63e-19)
(1.0117 0.015611 1.4869e-17)
(1.0039 -0.0015261 -9.6821e-19)
(1.0002 0.028153 -5.715e-18)
(0.99949 0.000299 -2.0372e-19)
(0.99965 -0.0006916 -2.8561e-19)
(0.99976 -0.00066243 7.9739e-18)
(1.0005 -0.0016554 1.5197e-17)
(1.0002 -0.001029 -3.4305e-17)
(1.0027 -0.0020152 1.9344e-18)
(0.99919 -0.00081516 1.1013e-17)
(1.0086 0.000993 1.2965e-17)
(0.99515 -0.0031512 -1.0388e-17)
(1.0117 0.015491 -1.4477e-17)
(1.0043 -0.0013751 -1.5773e-17)
(1.0006 0.02761 6.0376e-18)
(0.99947 0.00030338 -1.3329e-18)
(0.99964 -0.00071025 4.0661e-19)
(0.99974 -0.00068288 -3.8447e-18)
(1.0005 -0.001705 -1.0147e-17)
(1.0002 -0.0010756 1.9016e-17)
(1.0028 -0.0020856 2.4035e-17)
(0.99923 -0.0009194 3.2117e-18)
(1.0087 0.00098461 6.5696e-18)
(0.99541 -0.0032396 1.6567e-17)
(1.0117 0.015368 2.4364e-18)
(1.0048 -0.0012307 1.1667e-17)
(1.0011 0.027077 -3.6653e-18)
(0.99945 0.00030753 2.4533e-18)
(0.99962 -0.00072932 7.4968e-19)
(0.99972 -0.00070449 -5.4942e-18)
(1.0005 -0.0017559 1.499e-18)
(1.0002 -0.0011254 -1.031e-17)
(1.0029 -0.0021567 -5.7653e-18)
(0.99926 -0.0010264 -1.1871e-18)
(1.0088 0.00097626 -2.9665e-17)
(0.99566 -0.0033253 3.252e-18)
(1.0117 0.015241 -4.941e-18)
(1.0052 -0.0010929 -4.745e-18)
(1.0015 0.026553 -4.4207e-18)
(0.99942 0.00031145 -5.0066e-18)
(0.9996 -0.00074885 9.7942e-19)
(0.99971 -0.00072733 2.9143e-18)
(1.0006 -0.0018081 -1.8835e-17)
(1.0002 -0.0011784 -1.1753e-17)
(1.003 -0.0022286 -2.6765e-17)
(0.9993 -0.0011357 5.7286e-18)
(1.0089 0.00096796 1.2114e-17)
(0.99592 -0.0034083 -3.4874e-17)
(1.0117 0.01511 2.2783e-17)
(1.0056 -0.00096137 -5.135e-18)
(1.002 0.026039 2.8503e-18)
(0.9994 0.00031511 4.5958e-18)
(0.99959 -0.00076886 2.1918e-18)
(0.99969 -0.00075147 1.1207e-18)
(1.0006 -0.0018617 5.974e-18)
(1.0002 -0.0012345 -2.5955e-18)
(1.0031 -0.0023009 5.1875e-17)
(0.99934 -0.0012468 2.0568e-17)
(1.009 0.00095968 -1.8839e-17)
(0.99617 -0.0034889 3.3565e-17)
(1.0116 0.014975 -8.5002e-18)
(1.006 -0.00083613 -3.3889e-18)
(1.0024 0.025535 -1.4235e-18)
(0.99938 0.0003185 1.1272e-18)
(0.99957 -0.00078937 -1.388e-17)
(0.99967 -0.00077696 2.2429e-18)
(1.0006 -0.0019165 2.6826e-17)
(1.0002 -0.0012937 2.0089e-17)
(1.0032 -0.0023736 -8.3779e-19)
(0.99938 -0.0013593 -2.8494e-17)
(1.0091 0.00095139 5.7052e-18)
(0.99642 -0.003567 -7.5695e-18)
(1.0116 0.014837 -1.1766e-17)
(1.0064 -0.00071701 8.62e-18)
(1.0028 0.025039 1.326e-18)
(0.99935 0.0003216 -4.4585e-18)
(0.99955 -0.00081043 -4.627e-18)
(0.99965 -0.00080386 -1.215e-17)
(1.0006 -0.0019726 -2.2498e-17)
(1.0002 -0.0013559 -2.0213e-17)
(1.0032 -0.0024465 -2.3574e-17)
(0.99943 -0.0014727 5.2617e-18)
(1.0092 0.00094302 4.4346e-17)
(0.99667 -0.003643 3.299e-18)
(1.0116 0.014695 -1.0284e-18)
(1.0068 -0.00060391 -3.0443e-18)
(1.0032 0.024552 -3.567e-18)
(0.99933 0.0003244 3.3083e-18)
(0.99953 -0.00083204 4.2984e-18)
(0.99963 -0.0008322 1.8722e-17)
(1.0006 -0.0020301 1.5581e-17)
(1.0002 -0.001421 1.9665e-17)
(1.0033 -0.0025194 -8.7625e-19)
(0.99947 -0.0015867 -2.9317e-17)
(1.0093 0.0009345 -2.3969e-17)
(0.99692 -0.003717 8.1873e-18)
(1.0116 0.014549 4.0726e-18)
(1.0072 -0.00049672 6.8683e-18)
(1.0036 0.024074 2.7557e-18)
(0.9993 0.00032688 -2.3364e-18)
(0.99951 -0.00085423 6.7428e-18)
(0.99961 -0.00086203 -1.2387e-17)
(1.0006 -0.0020888 2.255e-18)
(1.0002 -0.0014888 9.1425e-18)
(1.0034 -0.0025922 -2.3044e-18)
(0.99952 -0.0017009 6.5823e-18)
(1.0094 0.00092573 6.6554e-18)
(0.99716 -0.003789 2.6948e-18)
(1.0116 0.0144 1.007e-17)
(1.0075 -0.00039534 -8.2613e-18)
(1.004 0.023605 5.5634e-19)
(0.99928 0.00032903 3.5274e-18)
(0.99949 -0.00087702 4.1787e-19)
(0.99959 -0.00089335 -5.7981e-18)
(1.0006 -0.0021488 8.9746e-19)
(1.0002 -0.0015591 -1.5027e-18)
(1.0035 -0.0026645 -2.2764e-17)
(0.99956 -0.001815 1.8378e-17)
(1.0095 0.00091658 2.362e-17)
(0.99741 -0.0038594 -1.3415e-17)
(1.0116 0.014247 -1.4013e-17)
(1.0079 -0.00029966 -2.417e-18)
(1.0044 0.023143 4.7434e-18)
(0.99925 0.00033084 -2.5624e-18)
(0.99947 -0.00090043 -3.2184e-19)
(0.99957 -0.00092618 7.209e-18)
(1.0006 -0.0022099 -1.7241e-17)
(1.0002 -0.0016317 -1.3581e-17)
(1.0036 -0.0027364 2.8739e-17)
(0.99961 -0.0019288 -2.8105e-18)
(1.0096 0.00090693 -2.5009e-17)
(0.99765 -0.0039283 3.4178e-18)
(1.0116 0.014091 1.3194e-17)
(1.0082 -0.00020959 8.1917e-18)
(1.0048 0.02269 -1.7105e-18)
(0.99922 0.0003323 2.5461e-19)
(0.99945 -0.00092447 2.3572e-18)
(0.99955 -0.0009605 3.9388e-18)
(1.0006 -0.002272 8.9128e-18)
(1.0002 -0.0017064 2.6618e-17)
(1.0036 -0.0028076 6.7004e-18)
(0.99966 -0.002042 -2.4472e-17)
(1.0096 0.00089664 2.3432e-18)
(0.99789 -0.0039958 8.8043e-18)
(1.0116 0.013931 -1.1889e-17)
(1.0086 -0.00012504 -5.5404e-18)
(1.0052 0.022245 -1.9795e-18)
(0.99919 0.00033341 7.2292e-19)
(0.99943 -0.00094913 -4.1008e-19)
(0.99953 -0.00099629 -1.0393e-17)
(1.0007 -0.0023352 -1.9166e-19)
(1.0002 -0.001783 -5.2627e-17)
(1.0037 -0.0028779 8.2612e-18)
(0.9997 -0.0021546 2.4039e-17)
(1.0097 0.00088555 -6.7327e-18)
(0.99814 -0.0040621 -9.2196e-18)
(1.0116 0.013768 1.9745e-17)
(1.0089 -4.5909e-05 6.6327e-18)
(1.0056 0.021807 5.1317e-18)
(0.99916 0.00033416 7.7653e-19)
(0.9994 -0.00097443 -8.5086e-19)
(0.9995 -0.0010335 1.8795e-17)
(1.0007 -0.0023993 4.1106e-18)
(1.0002 -0.0018612 4.6635e-17)
(1.0038 -0.0029473 -2.9116e-17)
(0.99975 -0.0022662 -8.0499e-18)
(1.0098 0.00087351 6.3363e-18)
(0.99838 -0.0041273 3.177e-18)
(1.0116 0.013602 -1.111e-17)
(1.0092 2.7881e-05 -1.0727e-18)
(1.0059 0.021377 -3.7842e-18)
(0.99913 0.00033454 -3.0348e-18)
(0.99938 -0.0010003 1.4284e-18)
(0.99948 -0.0010721 -1.1047e-17)
(1.0007 -0.0024642 5.4049e-18)
(1.0002 -0.0019408 -1.772e-17)
(1.0038 -0.0030155 3.9484e-18)
(0.99979 -0.002377 3.2231e-17)
(1.0098 0.00086035 -2.3714e-17)
(0.99862 -0.0041917 -1.1677e-17)
(1.0116 0.013432 -1.0992e-17)
(1.0096 9.6417e-05 -5.277e-18)
(1.0063 0.020954 -1.0394e-18)
(0.9991 0.00033456 3.7801e-18)
(0.99936 -0.0010269 -3.3926e-18)
(0.99946 -0.0011121 -1.072e-17)
(1.0007 -0.0025297 -8.6188e-18)
(1.0002 -0.0020215 -2.8969e-17)
(1.0039 -0.0030827 -1.8313e-17)
(0.99984 -0.0024869 -1.9763e-17)
(1.0099 0.00084592 2.2049e-17)
(0.99886 -0.0042553 1.1321e-17)
(1.0116 0.013259 1.6648e-17)
(1.0099 0.00015978 -2.0677e-18)
(1.0066 0.020538 5.018e-18)
(0.99907 0.00033423 -6.0753e-18)
(0.99933 -0.001054 5.4967e-18)
(0.99943 -0.0011532 2.6247e-17)
(1.0007 -0.0025957 -2.0329e-18)
(1.0002 -0.0021031 3.2051e-17)
(1.004 -0.0031485 1.3811e-18)
(0.99988 -0.0025958 -1.8928e-17)
(1.0099 0.00083003 8.6283e-18)
(0.99909 -0.0043182 -4.0825e-18)
(1.0116 0.013083 -3.4858e-18)
(1.0102 0.00021806 6.7072e-18)
(1.007 0.020129 -3.3934e-18)
(0.99903 0.00033354 4.9785e-18)
(0.9993 -0.0010817 -7.4701e-18)
(0.9994 -0.0011956 -3.0601e-17)
(1.0007 -0.0026621 1.3298e-17)
(1.0002 -0.0021853 -2.2834e-17)
(1.004 -0.0032131 2.5314e-17)
(0.99993 -0.0027037 6.1696e-18)
(1.01 0.00081254 -8.2143e-18)
(0.99933 -0.0043807 -1.9595e-18)
(1.0116 0.012904 -8.7323e-18)
(1.0105 0.00027132 -1.0939e-17)
(1.0073 0.019727 4.6921e-18)
(0.999 0.0003325 -3.667e-18)
(0.99928 -0.0011099 2.4839e-18)
(0.99938 -0.001239 1.8594e-17)
(1.0007 -0.0027288 -1.753e-17)
(1.0002 -0.002268 3.6738e-17)
(1.0041 -0.0032764 -1.9647e-17)
(0.99997 -0.0028109 3.5965e-18)
(1.01 0.00079328 -1.2981e-17)
(0.99957 -0.0044429 6.3964e-18)
(1.0116 0.012722 -1.2225e-18)
(1.0108 0.00031964 4.6816e-18)
(1.0076 0.019332 -2.0862e-18)
(0.99896 0.00033112 4.4974e-18)
(0.99925 -0.0011385 1.9337e-18)
(0.99935 -0.0012833 -1.2396e-17)
(1.0007 -0.0027956 -3.5627e-19)
(1.0002 -0.0023508 -1.6226e-18)
(1.0041 -0.0033384 4.7517e-18)
(1 -0.0029172 3.4151e-17)
(1.0101 0.0007721 8.8791e-18)
(0.99981 -0.0045047 -1.8959e-17)
(1.0117 0.012537 -6.3352e-18)
(1.0111 0.0003631 -4.4087e-18)
(1.008 0.018943 2.1933e-18)
(0.99893 0.00032943 -5.1548e-18)
(0.99922 -0.0011677 -7.1658e-18)
(0.99932 -0.0013285 5.2006e-18)
(1.0007 -0.0028623 1.5167e-17)
(1.0002 -0.0024338 -3.3324e-17)
(1.0042 -0.0033992 1.5964e-17)