/*--------------------------------*- C++ -*----------------------------------*\
  =========                 |
  \\      /  F ield         | OpenFOAM: The Open Source CFD Toolbox
   \\    /   O peration     | Website:  https://openfoam.org
    \\  /    A nd           | Version:  6.0
     \\/     M anipulation  |
\*---------------------------------------------------------------------------*/
FoamFile
{
    version     2.0;
    format      ascii;
    class       volScalarField;
    location    "3.05";
    object      p;
}
// * * * * * * * * * * * * * * * * * * * * * * * * * * * * * * * * * * * * * //

dimensions      [0 2 -2 0 0 0 0];

internalField   nonuniform List<scalar> 
13500
(
0.097516
0.097548
0.097063
0.096647
0.095553
0.095261
0.094066
0.09506
0.095798
0.099602
0.12208
0.16405
0.097516
0.097548
0.097063
0.096647
0.095553
0.095262
0.094065
0.09506
0.095794
0.099663
0.1214
0.15899
0.097517
0.097549
0.097063
0.096648
0.095552
0.095263
0.094062
0.09506
0.095785
0.099707
0.12052
0.1545
0.097517
0.097551
0.097063
0.09665
0.095551
0.095264
0.094058
0.095059
0.09577
0.099727
0.11955
0.15099
0.097519
0.097553
0.097064
0.096652
0.095551
0.095265
0.094053
0.095056
0.095749
0.099733
0.11851
0.14802
0.09752
0.097555
0.097065
0.096654
0.09555
0.095266
0.094048
0.095053
0.095724
0.099726
0.11744
0.14538
0.097522
0.097557
0.097066
0.096656
0.09555
0.095267
0.094043
0.095048
0.095693
0.099707
0.11636
0.14298
0.097525
0.09756
0.097068
0.096659
0.09555
0.095268
0.094036
0.095043
0.095657
0.099673
0.11528
0.14077
0.097528
0.097564
0.09707
0.096662
0.095549
0.095268
0.094029
0.095037
0.095616
0.099626
0.11423
0.13873
0.097531
0.097568
0.097073
0.096665
0.095549
0.095268
0.094022
0.095029
0.09557
0.099566
0.11322
0.13683
0.097535
0.097572
0.097076
0.096668
0.09555
0.095269
0.094014
0.095021
0.095519
0.099493
0.11224
0.13504
0.097539
0.097576
0.097079
0.096672
0.09555
0.095269
0.094005
0.095011
0.095462
0.099408
0.1113
0.13336
0.097544
0.097581
0.097082
0.096675
0.09555
0.095269
0.093996
0.095001
0.0954
0.099313
0.11041
0.13176
0.097549
0.097586
0.097086
0.096679
0.095551
0.095269
0.093986
0.094989
0.095332
0.09921
0.10955
0.13024
0.097554
0.097592
0.097091
0.096684
0.095552
0.095268
0.093976
0.094976
0.095259
0.099098
0.10874
0.1288
0.09756
0.097598
0.097096
0.096688
0.095553
0.095268
0.093964
0.094962
0.095181
0.098981
0.10796
0.12742
0.097567
0.097605
0.097101
0.096693
0.095554
0.095268
0.093953
0.094947
0.095096
0.098859
0.10722
0.1261
0.097573
0.097612
0.097107
0.096698
0.095555
0.095267
0.093941
0.094931
0.095007
0.098733
0.10651
0.12483
0.097581
0.097619
0.097113
0.096704
0.095557
0.095266
0.093928
0.094913
0.094912
0.098606
0.10582
0.12361
0.097589
0.097627
0.097119
0.096709
0.095558
0.095265
0.093914
0.094894
0.094812
0.098477
0.10516
0.12243
0.097597
0.097635
0.097126
0.096715
0.09556
0.095264
0.0939
0.094874
0.094708
0.098348
0.10452
0.1213
0.097606
0.097644
0.097133
0.096721
0.095562
0.095263
0.093886
0.094853
0.094598
0.098219
0.1039
0.1202
0.097615
0.097653
0.097141
0.096728
0.095564
0.095262
0.093871
0.09483
0.094485
0.098091
0.10329
0.11913
0.097625
0.097663
0.097149
0.096735
0.095566
0.09526
0.093855
0.094805
0.094367
0.097965
0.1027
0.11809
0.097635
0.097673
0.097157
0.096742
0.095569
0.095259
0.093839
0.09478
0.094245
0.09784
0.10212
0.11708
0.097646
0.097683
0.097166
0.096749
0.095571
0.095257
0.093823
0.094752
0.09412
0.097717
0.10154
0.1161
0.097657
0.097694
0.097176
0.096757
0.095574
0.095255
0.093805
0.094724
0.093992
0.097595
0.10098
0.11514
0.097669
0.097705
0.097186
0.096765
0.095577
0.095253
0.093788
0.094693
0.093862
0.097475
0.10042
0.1142
0.097681
0.097717
0.097196
0.096773
0.095581
0.095251
0.093769
0.094662
0.093729
0.097357
0.09987
0.11329
0.097694
0.09773
0.097207
0.096781
0.095584
0.095249
0.093751
0.094628
0.093594
0.09724
0.099324
0.11239
0.097707
0.097743
0.097218
0.09679
0.095588
0.095246
0.093731
0.094593
0.093457
0.097124
0.098783
0.11151
0.097721
0.097756
0.09723
0.0968
0.095592
0.095243
0.093711
0.094557
0.093319
0.097009
0.098247
0.11065
0.097735
0.09777
0.097242
0.096809
0.095596
0.095241
0.093691
0.094519
0.09318
0.096894
0.097715
0.1098
0.09775
0.097784
0.097255
0.096819
0.0956
0.095238
0.09367
0.09448
0.093041
0.096779
0.097188
0.10897
0.097766
0.097799
0.097268
0.096829
0.095605
0.095235
0.093648
0.094439
0.092901
0.096664
0.096665
0.10816
0.097782
0.097814
0.097281
0.096839
0.09561
0.095232
0.093626
0.094397
0.09276
0.096549
0.096147
0.10736
0.097798
0.09783
0.097295
0.09685
0.095615
0.095228
0.093604
0.094353
0.09262
0.096433
0.095634
0.10658
0.097815
0.097846
0.09731
0.096861
0.09562
0.095225
0.093581
0.094309
0.09248
0.096315
0.095126
0.10581
0.097833
0.097863
0.097325
0.096873
0.095626
0.095221
0.093557
0.094263
0.09234
0.096197
0.094622
0.10505
0.097851
0.09788
0.097341
0.096884
0.095631
0.095218
0.093533
0.094216
0.0922
0.096077
0.094124
0.10431
0.09787
0.097898
0.097357
0.096896
0.095637
0.095214
0.093508
0.094169
0.092061
0.095956
0.093632
0.10358
0.097889
0.097916
0.097373
0.096909
0.095644
0.09521
0.093482
0.09412
0.091923
0.095832
0.093145
0.10287
0.097909
0.097935
0.09739
0.096922
0.09565
0.095205
0.093456
0.094071
0.091785
0.095707
0.092665
0.10217
0.09793
0.097955
0.097408
0.096935
0.095657
0.095201
0.09343
0.094022
0.091648
0.09558
0.09219
0.10148
0.097951
0.097975
0.097426
0.096948
0.095664
0.095197
0.093403
0.093972
0.091511
0.09545
0.091722
0.1008
0.097972
0.097995
0.097445
0.096962
0.095672
0.095192
0.093375
0.093921
0.091375
0.095318
0.091261
0.10014
0.097995
0.098016
0.097464
0.096976
0.09568
0.095187
0.093347
0.093871
0.091239
0.095184
0.090806
0.099489
0.098018
0.098038
0.097484
0.096991
0.095688
0.095183
0.093318
0.09382
0.091104
0.095048
0.090358
0.09885
0.098041
0.09806
0.097504
0.097006
0.095696
0.095178
0.093288
0.093769
0.09097
0.094909
0.089917
0.098223
0.098065
0.098083
0.097525
0.097021
0.095705
0.095173
0.093258
0.093719
0.090835
0.094768
0.089483
0.097607
0.09809
0.098107
0.097546
0.097037
0.095714
0.095167
0.093228
0.093668
0.090701
0.094625
0.089055
0.097003
0.098115
0.09813
0.097568
0.097053
0.095723
0.095162
0.093197
0.093618
0.090567
0.09448
0.088635
0.09641
0.098141
0.098155
0.097591
0.097069
0.095732
0.095157
0.093166
0.093569
0.090433
0.094332
0.088222
0.095827
0.098168
0.09818
0.097614
0.097086
0.095742
0.095151
0.093134
0.09352
0.0903
0.094182
0.087815
0.095256
0.098195
0.098206
0.097637
0.097103
0.095753
0.095146
0.093101
0.093471
0.090166
0.094031
0.087416
0.094694
0.098223
0.098232
0.097661
0.097121
0.095763
0.09514
0.093068
0.093423
0.090032
0.093877
0.087023
0.094143
0.098252
0.098259
0.097686
0.097139
0.095774
0.095134
0.093035
0.093375
0.089897
0.093721
0.086637
0.093602
0.098281
0.098287
0.097712
0.097158
0.095785
0.095129
0.093002
0.093328
0.089763
0.093563
0.086257
0.09307
0.098311
0.098315
0.097737
0.097176
0.095797
0.095123
0.092968
0.093282
0.089628
0.093404
0.085885
0.092547
0.098341
0.098344
0.097764
0.097196
0.095809
0.095117
0.092933
0.093236
0.089493
0.093243
0.085518
0.092034
0.098372
0.098373
0.097791
0.097215
0.095821
0.095111
0.092899
0.093191
0.089358
0.09308
0.085158
0.091529
0.098404
0.098403
0.097819
0.097236
0.095834
0.095105
0.092864
0.093146
0.089222
0.092915
0.084804
0.091033
0.098436
0.098434
0.097847
0.097256
0.095847
0.0951
0.092828
0.093102
0.089086
0.092749
0.084457
0.090545
0.09847
0.098465
0.097876
0.097277
0.09586
0.095094
0.092793
0.093059
0.08895
0.092582
0.084115
0.090066
0.098503
0.098497
0.097906
0.097298
0.095874
0.095088
0.092757
0.093016
0.088813
0.092413
0.083779
0.089594
0.098538
0.09853
0.097936
0.09732
0.095888
0.095083
0.092721
0.092973
0.088676
0.092243
0.083448
0.089129
0.098573
0.098563
0.097966
0.097343
0.095903
0.095077
0.092685
0.092931
0.088538
0.092072
0.083123
0.088672
0.098609
0.098597
0.097998
0.097365
0.095917
0.095072
0.092649
0.09289
0.0884
0.0919
0.082804
0.088223
0.098646
0.098631
0.09803
0.097389
0.095933
0.095067
0.092612
0.092848
0.088262
0.091726
0.08249
0.08778
0.098683
0.098667
0.098062
0.097412
0.095948
0.095062
0.092576
0.092807
0.088124
0.091551
0.082181
0.087344
0.098721
0.098703
0.098096
0.097437
0.095964
0.095057
0.092539
0.092767
0.087986
0.091376
0.081877
0.086915
0.09876
0.098739
0.09813
0.097461
0.09598
0.095052
0.092502
0.092726
0.087848
0.0912
0.081577
0.086492
0.098799
0.098777
0.098164
0.097487
0.095997
0.095048
0.092465
0.092685
0.087709
0.091022
0.081283
0.086075
0.098839
0.098815
0.098199
0.097512
0.096014
0.095044
0.092428
0.092645
0.087571
0.090844
0.080993
0.085664
0.09888
0.098854
0.098235
0.097539
0.096031
0.09504
0.092391
0.092605
0.087433
0.090666
0.080708
0.085259
0.098922
0.098893
0.098272
0.097565
0.096049
0.095036
0.092353
0.092564
0.087295
0.090486
0.080427
0.08486
0.098964
0.098933
0.098309
0.097593
0.096067
0.095033
0.092316
0.092523
0.087157
0.090306
0.080151
0.084466
0.099008
0.098974
0.098347
0.097621
0.096085
0.09503
0.092278
0.092483
0.087019
0.090126
0.079878
0.084078
0.099052
0.099016
0.098385
0.097649
0.096104
0.095028
0.092241
0.092442
0.086882
0.089945
0.07961
0.083695
0.099096
0.099058
0.098425
0.097678
0.096123
0.095026
0.092203
0.0924
0.086745
0.089763
0.079346
0.083317
0.099142
0.099102
0.098465
0.097707
0.096143
0.095024
0.092165
0.092359
0.086608
0.089581
0.079086
0.082944
0.099188
0.099146
0.098505
0.097738
0.096163
0.095023
0.092127
0.092317
0.086472
0.089399
0.078829
0.082575
0.099235
0.09919
0.098547
0.097768
0.096183
0.095022
0.092089
0.092275
0.086337
0.089216
0.078577
0.082212
0.099283
0.099236
0.098589
0.0978
0.096203
0.095021
0.092051
0.092232
0.086202
0.089033
0.078328
0.081853
0.099331
0.099282
0.098631
0.097832
0.096224
0.095021
0.092013
0.092189
0.086068
0.08885
0.078082
0.081499
0.099381
0.099329
0.098675
0.097864
0.096245
0.095022
0.091975
0.092146
0.085934
0.088667
0.07784
0.081149
0.099431
0.099377
0.098719
0.097897
0.096267
0.095023
0.091937
0.092102
0.085801
0.088483
0.077602
0.080803
0.099482
0.099426
0.098764
0.097931
0.096289
0.095024
0.091899
0.092057
0.085669
0.0883
0.077367
0.080461
0.099534
0.099476
0.098809
0.097966
0.096311
0.095027
0.091861
0.092012
0.085538
0.088116
0.077135
0.080123
0.099587
0.099526
0.098856
0.098001
0.096334
0.095029
0.091823
0.091967
0.085408
0.087932
0.076906
0.079789
0.09964
0.099578
0.098903
0.098037
0.096357
0.095032
0.091784
0.091921
0.085278
0.087748
0.07668
0.079459
0.099695
0.09963
0.098951
0.098074
0.096381
0.095036
0.091746
0.091874
0.085149
0.087564
0.076457
0.079133
0.09975
0.099683
0.099
0.098111
0.096404
0.095041
0.091708
0.091827
0.085022
0.08738
0.076238
0.07881
0.099807
0.099737
0.099049
0.098149
0.096428
0.095045
0.09167
0.091779
0.084895
0.087196
0.076021
0.078491
0.099864
0.099792
0.099099
0.098188
0.096453
0.095051
0.091632
0.09173
0.084769
0.087013
0.075807
0.078175
0.099922
0.099848
0.099151
0.098228
0.096478
0.095057
0.091594
0.091681
0.084643
0.086829
0.075595
0.077863
0.099981
0.099905
0.099202
0.098268
0.096503
0.095064
0.091556
0.091631
0.084519
0.086645
0.075387
0.077553
0.10004
0.099963
0.099255
0.098309
0.096529
0.095071
0.091518
0.091581
0.084396
0.086462
0.075181
0.077247
0.1001
0.10002
0.099309
0.098351
0.096555
0.095079
0.091481
0.09153
0.084274
0.086278
0.074977
0.076944
0.10016
0.10008
0.099363
0.098394
0.096582
0.095088
0.091443
0.091478
0.084153
0.086095
0.074776
0.076644
0.10023
0.10014
0.099419
0.098438
0.096609
0.095097
0.091406
0.091426
0.084032
0.085912
0.074578
0.076346
0.10029
0.1002
0.099475
0.098483
0.096636
0.095107
0.091369
0.091373
0.083913
0.085729
0.074381
0.076052
0.10036
0.10027
0.099532
0.098528
0.096664
0.095117
0.091332
0.091319
0.083795
0.085546
0.074187
0.07576
0.10042
0.10033
0.09959
0.098575
0.096693
0.095128
0.091295
0.091265
0.083677
0.085364
0.073995
0.07547
0.10049
0.1004
0.099649
0.098622
0.096722
0.09514
0.091259
0.09121
0.083561
0.085181
0.073806
0.075183
0.10056
0.10046
0.099709
0.098671
0.096751
0.095153
0.091223
0.091154
0.083445
0.084999
0.073618
0.074899
0.10063
0.10053
0.099771
0.09872
0.096781
0.095166
0.091187
0.091098
0.083331
0.084817
0.073432
0.074616
0.1007
0.1006
0.099833
0.098771
0.096812
0.09518
0.091151
0.091041
0.083217
0.084635
0.073249
0.074336
0.10077
0.10067
0.099896
0.098822
0.096843
0.095195
0.091116
0.090984
0.083105
0.084453
0.073067
0.074058
0.10084
0.10074
0.09996
0.098875
0.096874
0.09521
0.091082
0.090926
0.082993
0.084272
0.072887
0.073782
0.10092
0.10081
0.10003
0.098928
0.096907
0.095226
0.091047
0.090867
0.082882
0.084091
0.072708
0.073508
0.10099
0.10089
0.10009
0.098983
0.09694
0.095243
0.091013
0.090808
0.082772
0.083909
0.072532
0.073236
0.10107
0.10096
0.10016
0.099039
0.096974
0.095261
0.09098
0.090748
0.082663
0.083729
0.072356
0.072966
0.10115
0.10104
0.10023
0.099096
0.097008
0.095279
0.090947
0.090688
0.082555
0.083548
0.072183
0.072697
0.10123
0.10112
0.1003
0.099155
0.097043
0.095299
0.090915
0.090627
0.082448
0.083367
0.072011
0.07243
0.10131
0.1012
0.10037
0.099215
0.097079
0.095319
0.090883
0.090566
0.082341
0.083187
0.07184
0.072165
0.10139
0.10128
0.10044
0.099276
0.097116
0.09534
0.090851
0.090504
0.082236
0.083007
0.071671
0.071901
0.10147
0.10136
0.10052
0.099338
0.097154
0.095362
0.090821
0.090442
0.082131
0.082827
0.071503
0.071638
0.10156
0.10144
0.10059
0.099402
0.097193
0.095385
0.090791
0.09038
0.082027
0.082647
0.071336
0.071377
0.10165
0.10153
0.10067
0.099467
0.097232
0.095409
0.090762
0.090317
0.081924
0.082467
0.07117
0.071116
0.10173
0.10162
0.10075
0.099534
0.097273
0.095433
0.090733
0.090253
0.081822
0.082287
0.071006
0.070857
0.10182
0.10171
0.10083
0.099603
0.097315
0.095459
0.090706
0.090189
0.08172
0.082108
0.070842
0.070599
0.10192
0.1018
0.10091
0.099673
0.097358
0.095486
0.090679
0.090125
0.08162
0.081928
0.070679
0.070342
0.10201
0.10189
0.101
0.099745
0.097402
0.095514
0.090653
0.090061
0.08152
0.081749
0.070517
0.070086
0.10211
0.10199
0.10108
0.099818
0.097447
0.095543
0.090628
0.089997
0.081421
0.08157
0.070356
0.06983
0.10221
0.10208
0.10117
0.099893
0.097494
0.095573
0.090604
0.089932
0.081323
0.08139
0.070196
0.069576
0.10231
0.10218
0.10126
0.099971
0.097542
0.095605
0.090581
0.089867
0.081225
0.081211
0.070037
0.069321
0.10241
0.10229
0.10135
0.10005
0.097592
0.095638
0.090559
0.089802
0.081129
0.081032
0.069878
0.069068
0.10251
0.10239
0.10144
0.10013
0.097643
0.095672
0.090538
0.089737
0.081033
0.080853
0.069719
0.068814
0.10262
0.1025
0.10154
0.10021
0.097696
0.095707
0.090519
0.089672
0.080938
0.080674
0.069561
0.068562
0.10273
0.10261
0.10164
0.1003
0.09775
0.095744
0.090501
0.089607
0.080844
0.080495
0.069404
0.068309
0.10284
0.10272
0.10174
0.10039
0.097807
0.095783
0.090484
0.089542
0.080751
0.080317
0.069247
0.068056
0.10295
0.10283
0.10184
0.10048
0.097865
0.095823
0.090469
0.089478
0.080658
0.080138
0.06909
0.067804
0.10307
0.10295
0.10195
0.10057
0.097925
0.095865
0.090455
0.089413
0.080566
0.079959
0.068934
0.067551
0.10319
0.10307
0.10205
0.10067
0.097988
0.095908
0.090442
0.089349
0.080476
0.07978
0.068777
0.067299
0.10331
0.10319
0.10217
0.10077
0.098053
0.095953
0.090432
0.089285
0.080386
0.079601
0.068621
0.067046
0.10344
0.10332
0.10228
0.10087
0.09812
0.096001
0.090423
0.089222
0.080296
0.079422
0.068465
0.066793
0.10357
0.10345
0.1024
0.10097
0.098189
0.09605
0.090416
0.089159
0.080208
0.079243
0.068308
0.066539
0.1037
0.10358
0.10252
0.10108
0.098261
0.096101
0.090411
0.089097
0.080121
0.079064
0.068152
0.066285
0.10384
0.10372
0.10264
0.10119
0.098336
0.096155
0.090408
0.089035
0.080035
0.078886
0.067996
0.06603
0.10398
0.10386
0.10277
0.1013
0.098414
0.09621
0.090407
0.088975
0.079949
0.078707
0.067839
0.065775
0.10412
0.104
0.1029
0.10142
0.098495
0.096269
0.090409
0.088915
0.079865
0.078528
0.067682
0.065519
0.10427
0.10415
0.10304
0.10154
0.098579
0.096329
0.090413
0.088856
0.079782
0.078349
0.067524
0.065262
0.10442
0.1043
0.10317
0.10167
0.098666
0.096393
0.09042
0.088798
0.0797
0.07817
0.067367
0.065004
0.10457
0.10446
0.10332
0.1018
0.098757
0.096459
0.090429
0.088741
0.079619
0.077991
0.067208
0.064745
0.10473
0.10462
0.10347
0.10193
0.098852
0.096529
0.090441
0.088686
0.079539
0.077812
0.06705
0.064484
0.1049
0.10478
0.10362
0.10207
0.09895
0.096601
0.090456
0.088632
0.079461
0.077633
0.06689
0.064223
0.10507
0.10496
0.10378
0.10221
0.099053
0.096677
0.090474
0.08858
0.079383
0.077454
0.06673
0.06396
0.10524
0.10513
0.10394
0.10236
0.099159
0.096756
0.090495
0.088529
0.079307
0.077275
0.066569
0.063695
0.10542
0.10531
0.10411
0.10251
0.099271
0.096838
0.09052
0.08848
0.079233
0.077097
0.066408
0.063429
0.10561
0.1055
0.10428
0.10267
0.099387
0.096925
0.090548
0.088433
0.07916
0.076918
0.066245
0.063161
0.1058
0.10569
0.10446
0.10283
0.099508
0.097015
0.09058
0.088388
0.079088
0.076739
0.066082
0.062891
0.10599
0.10589
0.10464
0.103
0.099634
0.097109
0.090616
0.088345
0.079018
0.076561
0.065918
0.062619
0.10619
0.1061
0.10483
0.10318
0.099765
0.097208
0.090656
0.088304
0.07895
0.076382
0.065752
0.062345
0.1064
0.10631
0.10503
0.10336
0.099902
0.097312
0.0907
0.088266
0.078883
0.076204
0.065585
0.062068
0.10662
0.10653
0.10523
0.10355
0.10005
0.09742
0.090748
0.08823
0.078818
0.076026
0.065417
0.061789
0.10684
0.10675
0.10544
0.10374
0.10019
0.097533
0.090802
0.088198
0.078755
0.075848
0.065248
0.061508
0.10707
0.10698
0.10566
0.10394
0.10035
0.097651
0.09086
0.088168
0.078694
0.07567
0.065077
0.061224
0.1073
0.10722
0.10589
0.10415
0.10051
0.097775
0.090923
0.088141
0.078635
0.075492
0.064905
0.060937
0.10755
0.10747
0.10612
0.10437
0.10068
0.097904
0.090991
0.088117
0.078578
0.075314
0.064732
0.060647
0.1078
0.10773
0.10636
0.10459
0.10086
0.098039
0.091065
0.088097
0.078523
0.075137
0.064556
0.060353
0.10806
0.10799
0.10661
0.10482
0.10104
0.09818
0.091144
0.08808
0.078471
0.074959
0.064379
0.060057
0.10833
0.10827
0.10687
0.10507
0.10123
0.098328
0.091229
0.088067
0.07842
0.074782
0.0642
0.059757
0.1086
0.10855
0.10714
0.10532
0.10143
0.098482
0.09132
0.088058
0.078372
0.074605
0.064019
0.059453
0.10889
0.10884
0.10741
0.10557
0.10164
0.098643
0.091418
0.088053
0.078327
0.074428
0.063835
0.059145
0.10918
0.10914
0.1077
0.10584
0.10186
0.098811
0.091522
0.088052
0.078284
0.074251
0.06365
0.058833
0.10948
0.10945
0.10799
0.10612
0.10208
0.098987
0.091632
0.088055
0.078243
0.074075
0.063462
0.058517
0.1098
0.10977
0.1083
0.10641
0.10232
0.09917
0.091749
0.088062
0.078205
0.073898
0.063271
0.058196
0.11012
0.1101
0.10862
0.10671
0.10256
0.099361
0.091874
0.088074
0.078169
0.073721
0.063078
0.05787
0.11046
0.11044
0.10894
0.10702
0.10282
0.09956
0.092005
0.088091
0.078136
0.073544
0.062881
0.057539
0.1108
0.1108
0.10928
0.10734
0.10309
0.099767
0.092144
0.088112
0.078105
0.073367
0.062682
0.057203
0.11115
0.11116
0.10963
0.10767
0.10336
0.099983
0.09229
0.088138
0.078077
0.07319
0.062479
0.056861
0.11152
0.11154
0.10999
0.10801
0.10365
0.10021
0.092445
0.088169
0.078052
0.073012
0.062273
0.056513
0.1119
0.11193
0.11037
0.10836
0.10395
0.10044
0.092607
0.088205
0.078029
0.072834
0.062062
0.056158
0.11229
0.11233
0.11076
0.10873
0.10426
0.10068
0.092777
0.088246
0.078008
0.072655
0.061848
0.055798
0.11269
0.11274
0.11116
0.10911
0.10458
0.10094
0.092955
0.088292
0.07799
0.072475
0.061629
0.05543
0.1131
0.11317
0.11157
0.1095
0.10491
0.1012
0.093142
0.088343
0.077973
0.072293
0.061406
0.055054
0.11353
0.1136
0.112
0.10991
0.10526
0.10147
0.093337
0.088399
0.077959
0.072111
0.061177
0.054671
0.11397
0.11406
0.11244
0.11032
0.10562
0.10175
0.093541
0.088459
0.077947
0.071927
0.060943
0.054279
0.11442
0.11452
0.11289
0.11076
0.10599
0.10205
0.093753
0.088525
0.077937
0.071741
0.060703
0.053878
0.11489
0.115
0.11336
0.1112
0.10638
0.10235
0.093974
0.088596
0.077928
0.071553
0.060457
0.053469
0.11537
0.1155
0.11384
0.11166
0.10678
0.10267
0.094204
0.088672
0.077921
0.071363
0.060204
0.053049
0.11586
0.11601
0.11434
0.11214
0.10719
0.10299
0.094442
0.088752
0.077914
0.071169
0.059943
0.052619
0.11637
0.11654
0.11486
0.11263
0.10762
0.10333
0.09469
0.088837
0.077908
0.070972
0.059675
0.052178
0.11689
0.11708
0.11539
0.11314
0.10806
0.10367
0.094946
0.088926
0.077903
0.070771
0.059398
0.051725
0.11743
0.11763
0.11594
0.11366
0.10852
0.10403
0.095211
0.08902
0.077898
0.070566
0.059112
0.051259
0.11798
0.11821
0.11651
0.1142
0.10899
0.1044
0.095486
0.089117
0.077892
0.070356
0.058817
0.050781
0.11855
0.1188
0.11709
0.11475
0.10948
0.10479
0.095769
0.089219
0.077886
0.070141
0.058511
0.050289
0.11914
0.11941
0.11769
0.11532
0.10999
0.10518
0.096061
0.089324
0.077878
0.06992
0.058194
0.049782
0.11974
0.12003
0.11831
0.11592
0.11051
0.10559
0.096363
0.089432
0.077869
0.069692
0.057865
0.04926
0.12037
0.12068
0.11895
0.11652
0.11105
0.10601
0.096673
0.089543
0.077858
0.069456
0.057524
0.048721
0.12101
0.12134
0.11961
0.11715
0.11161
0.10644
0.096993
0.089658
0.077845
0.069213
0.057168
0.048165
0.12166
0.12203
0.1203
0.1178
0.11219
0.10689
0.097322
0.089775
0.077828
0.068961
0.056799
0.047591
0.12234
0.12274
0.121
0.11847
0.11279
0.10735
0.097661
0.089894
0.077807
0.0687
0.056414
0.046997
0.12304
0.12347
0.12173
0.11916
0.11341
0.10783
0.09801
0.090016
0.077783
0.068428
0.056012
0.046383
0.12377
0.12422
0.12249
0.11988
0.11405
0.10832
0.098368
0.09014
0.077754
0.068145
0.055593
0.045748
0.12451
0.125
0.12327
0.12062
0.11471
0.10883
0.098737
0.090266
0.077719
0.06785
0.055156
0.04509
0.12529
0.1258
0.12408
0.12139
0.1154
0.10935
0.099116
0.090394
0.077679
0.067543
0.054699
0.044408
0.12609
0.12664
0.12492
0.12219
0.11611
0.1099
0.099507
0.090523
0.077633
0.067222
0.054221
0.043701
0.12691
0.1275
0.12579
0.12301
0.11685
0.11046
0.099909
0.090655
0.077579
0.066886
0.053722
0.042968
0.12777
0.1284
0.1267
0.12387
0.11762
0.11105
0.10032
0.090788
0.077519
0.066535
0.0532
0.042207
0.12866
0.12933
0.12765
0.12477
0.11843
0.11165
0.10075
0.090923
0.07745
0.066168
0.052653
0.041416
0.12959
0.13031
0.12863
0.1257
0.11926
0.11228
0.10119
0.09106
0.077374
0.065783
0.052081
0.040594
0.13056
0.13132
0.12966
0.12667
0.12014
0.11294
0.10165
0.091199
0.077288
0.06538
0.051482
0.03974
0.13157
0.13238
0.13074
0.12769
0.12105
0.11363
0.10212
0.09134
0.077192
0.064958
0.050854
0.038852
0.13262
0.13349
0.13187
0.12876
0.122
0.11434
0.10261
0.091484
0.077086
0.064514
0.050197
0.037927
0.13372
0.13465
0.13306
0.12989
0.123
0.11509
0.10312
0.09163
0.076968
0.064048
0.049507
0.036964
0.13487
0.13586
0.13431
0.13106
0.12405
0.11587
0.10365
0.091777
0.076838
0.063558
0.048784
0.035961
0.13608
0.13714
0.13562
0.13231
0.12516
0.11669
0.10419
0.091926
0.076693
0.063042
0.048024
0.034916
0.13735
0.13849
0.137
0.13362
0.12632
0.11756
0.10476
0.092076
0.076532
0.062498
0.047225
0.033825
0.13868
0.13991
0.13846
0.135
0.12754
0.11846
0.10534
0.092227
0.076354
0.061922
0.046385
0.032687
0.14007
0.1414
0.14
0.13646
0.12883
0.11941
0.10595
0.092375
0.076154
0.061312
0.045499
0.031497
0.14154
0.14297
0.14162
0.138
0.13018
0.1204
0.10658
0.092521
0.07593
0.060663
0.044564
0.030253
0.14308
0.14463
0.14334
0.13963
0.13161
0.12145
0.10723
0.09266
0.075678
0.059971
0.043576
0.02895
0.1447
0.14638
0.14515
0.14135
0.13311
0.12254
0.10789
0.09279
0.075392
0.05923
0.042527
0.027585
0.1464
0.14823
0.14707
0.14318
0.13469
0.12368
0.10857
0.092906
0.075066
0.058435
0.041413
0.02615
0.14818
0.15018
0.1491
0.1451
0.13635
0.12488
0.10926
0.093003
0.074695
0.057576
0.040227
0.024641
0.15004
0.15223
0.15124
0.14714
0.1381
0.12612
0.10996
0.093075
0.074269
0.056647
0.038959
0.023051
0.15199
0.15439
0.1535
0.14929
0.13993
0.12741
0.11067
0.093113
0.073779
0.055638
0.037601
0.021371
0.15403
0.15666
0.15589
0.15156
0.14185
0.12875
0.11137
0.093109
0.073215
0.054538
0.036143
0.019592
0.15616
0.15905
0.1584
0.15395
0.14385
0.13012
0.11205
0.093053
0.072565
0.053336
0.034574
0.017706
0.15837
0.16156
0.16106
0.15648
0.14595
0.13154
0.11272
0.092933
0.071817
0.052018
0.032882
0.0157
0.16067
0.16421
0.16386
0.15914
0.14814
0.13298
0.11336
0.092734
0.070956
0.050573
0.031054
0.013563
0.16306
0.16698
0.16682
0.16194
0.15041
0.13445
0.11395
0.092443
0.069966
0.048984
0.029078
0.011284
0.16555
0.1699
0.16996
0.16489
0.15279
0.13593
0.11448
0.092042
0.068831
0.047239
0.026939
0.0088493
0.16812
0.17297
0.17328
0.16801
0.15525
0.13742
0.11494
0.091509
0.06753
0.045318
0.024624
0.0062473
0.1708
0.17622
0.17681
0.17131
0.15781
0.13889
0.1153
0.090821
0.066043
0.043205
0.022118
0.0034657
0.17358
0.17965
0.18057
0.1748
0.16047
0.14035
0.11553
0.08995
0.064342
0.040879
0.019405
0.00049286
0.17646
0.18329
0.1846
0.1785
0.16321
0.14175
0.11561
0.088859
0.062396
0.038315
0.016466
-0.0026829
0.17945
0.18717
0.18892
0.18243
0.16605
0.14308
0.11549
0.087505
0.060168
0.035482
0.013282
-0.0060735
0.18255
0.19131
0.19358
0.18662
0.16896
0.1443
0.11513
0.085834
0.05761
0.032344
0.0098248
-0.0096922
0.18575
0.19573
0.19862
0.19106
0.17192
0.14534
0.11444
0.083779
0.054663
0.028856
0.006065
-0.013554
0.18903
0.20048
0.20406
0.19577
0.17488
0.14615
0.11336
0.081259
0.051261
0.024964
0.0019645
-0.017679
0.19234
0.20554
0.20992
0.20072
0.17779
0.14661
0.11177
0.07818
0.047324
0.020607
-0.0025197
-0.022087
0.19563
0.21093
0.21622
0.20589
0.18053
0.1466
0.10955
0.074434
0.042767
0.015719
-0.0074327
-0.026802
0.1988
0.21662
0.22292
0.21116
0.18296
0.14596
0.10655
0.069904
0.037504
0.01024
-0.012815
-0.031842
0.20172
0.22253
0.22994
0.21641
0.18488
0.14449
0.1026
0.064467
0.031454
0.0041206
-0.018693
-0.037215
0.2042
0.22856
0.23712
0.22139
0.18602
0.14194
0.097508
0.058006
0.024554
-0.0026635
-0.025067
-0.042906
0.20604
0.2345
0.24417
0.22573
0.186
0.13801
0.091086
0.050412
0.016766
-0.010103
-0.031898
-0.048867
0.20698
0.24
0.25059
0.22886
0.18433
0.13235
0.083125
0.041601
0.0080857
-0.018148
-0.039108
-0.055011
0.20677
0.2445
0.25552
0.22991
0.18032
0.12455
0.073434
0.031521
-0.0014532
-0.026714
-0.046578
-0.061217
0.20519
0.24707
0.25752
0.22753
0.17309
0.11414
0.061859
0.020183
-0.011766
-0.035677
-0.054164
-0.067343
0.20216
0.24623
0.25431
0.21973
0.16141
0.10063
0.048319
0.0076885
-0.022694
-0.044878
-0.061708
-0.073249
0.19784
0.23978
0.24242
0.20368
0.14374
0.08347
0.032827
-0.0057405
-0.033988
-0.054109
-0.069047
-0.078818
0.19291
0.22483
0.21724
0.1757
0.11817
0.06207
0.015449
-0.019802
-0.045324
-0.063119
-0.076021
-0.083967
0.18864
0.19845
0.17394
0.13188
0.082664
0.035741
-0.0038264
-0.034243
-0.056399
-0.071671
-0.082491
-0.088657
0.18628
0.15775
0.1091
0.069564
0.035605
0.0037419
-0.025224
-0.049034
-0.067084
-0.079646
-0.088406
-0.09292
0.18735
0.097248
0.018554
-0.01341
-0.024712
-0.035261
-0.04962
-0.06471
-0.077715
-0.087284
-0.093985
-0.097019
0.20388
0.021115
-0.094794
-0.11413
-0.097467
-0.082183
-0.078457
-0.082656
-0.089485
-0.095583
-0.10007
-0.10171
0.24799
-0.050631
-0.20991
-0.21504
-0.17071
-0.13071
-0.1092
-0.1022
-0.10247
-0.10481
-0.10697
-0.10717
0.1027
0.063301
0.053178
0.047142
0.042981
0.039872
0.037396
0.035273
0.033468
0.031633
0.030193
0.027769
0.12202
0.078521
0.065944
0.057916
0.052441
0.0484
0.045213
0.042499
0.040217
0.0379
0.036138
0.033304
0.10936
0.073419
0.062038
0.054139
0.048735
0.044765
0.041651
0.039015
0.036824
0.034591
0.032957
0.030205
0.10428
0.07307
0.06202
0.05403
0.048489
0.044405
0.041206
0.038501
0.036269
0.033988
0.032355
0.029477
0.10361
0.075205
0.063996
0.05579
0.050004
0.045714
0.042347
0.039501
0.037158
0.034764
0.033063
0.030026
0.10293
0.076986
0.065706
0.057366
0.051382
0.046914
0.043398
0.040425
0.037982
0.035489
0.033721
0.030568
0.10179
0.078237
0.067032
0.058642
0.05251
0.047897
0.044254
0.041173
0.038642
0.036071
0.034242
0.03102
0.10057
0.079259
0.068219
0.05983
0.053584
0.048841
0.045083
0.041901
0.039288
0.03665
0.034765
0.031512
0.099432
0.080138
0.069332
0.060989
0.054659
0.049802
0.045934
0.042658
0.039966
0.037272
0.035332
0.032087
0.098345
0.080868
0.07036
0.062106
0.055726
0.050772
0.046805
0.043442
0.040674
0.037934
0.035946
0.032747
0.097293
0.081447
0.071289
0.063166
0.056773
0.051745
0.047691
0.044249
0.041413
0.038637
0.036607
0.033489
0.096271
0.081888
0.072118
0.064162
0.05779
0.052712
0.048587
0.045078
0.042179
0.03938
0.037315
0.034308
0.095283
0.082207
0.072846
0.065087
0.058768
0.053665
0.049487
0.045923
0.042971
0.040158
0.038066
0.035196
0.09433
0.082421
0.073477
0.065935
0.059699
0.054595
0.050381
0.046776
0.043781
0.040965
0.038853
0.03614
0.093414
0.082543
0.074016
0.066705
0.060574
0.055491
0.051261
0.047629
0.044602
0.041793
0.039668
0.037122
0.092535
0.082588
0.074467
0.067396
0.061389
0.056348
0.052117
0.048472
0.045423
0.04263
0.040498
0.038124
0.091693
0.082569
0.074839
0.068011
0.062141
0.057158
0.052942
0.049298
0.046237
0.043467
0.041333
0.039129
0.090889
0.082496
0.07514
0.068554
0.06283
0.057919
0.053732
0.050099
0.047036
0.044295
0.042163
0.04012
0.090122
0.082379
0.075376
0.069028
0.063456
0.058628
0.054481
0.05087
0.047812
0.045106
0.042977
0.041081
0.089389
0.082227
0.075555
0.069438
0.064023
0.059285
0.055186
0.051607
0.048561
0.045891
0.043767
0.042001
0.088691
0.082046
0.075683
0.069791
0.064531
0.05989
0.055847
0.052305
0.049278
0.046645
0.044528
0.04287
0.088024
0.081841
0.075768
0.07009
0.064985
0.060444
0.056463
0.052964
0.049959
0.047364
0.045254
0.043682
0.087387
0.081618
0.075814
0.070342
0.065388
0.06095
0.057035
0.053582
0.050604
0.048045
0.045941
0.044433
0.086779
0.081381
0.075827
0.07055
0.065745
0.061409
0.057563
0.05416
0.051211
0.048685
0.046589
0.045122
0.086196
0.081132
0.075811
0.07072
0.066058
0.061825
0.058049
0.054698
0.05178
0.049285
0.047195
0.045749
0.085638
0.080874
0.07577
0.070854
0.066332
0.0622
0.058496
0.055196
0.052311
0.049844
0.047761
0.046316
0.085102
0.08061
0.075707
0.070958
0.066569
0.062537
0.058905
0.055657
0.052806
0.050362
0.048287
0.046827
0.084586
0.080341
0.075625
0.071034
0.066774
0.062839
0.059278
0.056082
0.053265
0.050842
0.048774
0.047286
0.08409
0.080068
0.075527
0.071085
0.066948
0.063108
0.059617
0.056473
0.053691
0.051285
0.049224
0.047697
0.083612
0.079793
0.075415
0.071114
0.067095
0.063347
0.059926
0.056831
0.054085
0.051693
0.04964
0.048065
0.08315
0.079517
0.075291
0.071123
0.067217
0.063558
0.060205
0.057159
0.054448
0.052068
0.050023
0.048394
0.082704
0.079241
0.075157
0.071114
0.067317
0.063743
0.060458
0.057459
0.054782
0.052412