/*--------------------------------*- C++ -*----------------------------------*\
  =========                 |
  \\      /  F ield         | OpenFOAM: The Open Source CFD Toolbox
   \\    /   O peration     | Website:  https://openfoam.org
    \\  /    A nd           | Version:  6.0
     \\/     M anipulation  |
\*---------------------------------------------------------------------------*/
FoamFile
{
    version     2.0;
    format      ascii;
    class       surfaceScalarField;
    location    "3.05";
    object      phi;
}
// * * * * * * * * * * * * * * * * * * * * * * * * * * * * * * * * * * * * * //

dimensions      [0 3 -1 0 0 0 0];

internalField   nonuniform List<scalar> 
26699
(
2.0051e-05
0.005201
5.6383e-10
4.0126e-05
0.0051116
5.9639e-05
0.0049351
7.8186e-05
0.0046741
9.5416e-05
0.0043332
0.00011102
0.0039182
0.00012471
0.0034362
0.00013626
0.0028953
0.00014546
0.002305
0.00015181
0.0016755
0.00015717
0.0010154
0.00046501
3.4364e-05
2.0051e-05
0.0051809
1.6898e-09
4.0127e-05
0.0050916
5.9641e-05
0.0049155
7.819e-05
0.0046556
9.5418e-05
0.004316
0.00011102
0.0039026
0.00012471
0.0034225
0.00013625
0.0028838
0.00014545
0.0022958
0.00015106
0.0016699
0.0001589
0.0010076
0.00055899
6.4917e-05
2.0051e-05
0.0051609
2.8844e-09
4.0128e-05
0.0050715
5.9643e-05
0.004896
7.8193e-05
0.004637
9.5421e-05
0.0042988
0.00011102
0.003887
0.00012471
0.0034088
0.00013622
0.0028723
0.00014546
0.0022865
0.0001503
0.0016651
0.00016016
0.0009977
0.00062911
9.0045e-05
2.0051e-05
0.0051408
4.0944e-09
4.013e-05
0.0050514
5.9646e-05
0.0048765
7.8196e-05
0.0046185
9.5424e-05
0.0042815
0.00011103
0.0038714
0.0001247
0.0033951
0.0001362
0.0028608
0.0001455
0.0022772
0.00014956
0.001661
0.00016088
0.00098637
0.00067975
0.00011024
2.0051e-05
0.0051208
5.3062e-09
4.0131e-05
0.0050313
5.9648e-05
0.004857
7.8199e-05
0.0045999
9.5427e-05
0.0042643
0.00011103
0.0038558
0.0001247
0.0033815
0.00013618
0.0028493
0.00014557
0.0022678
0.00014886
0.0016577
0.00016109
0.00097415
0.00071456
0.00012628
2.0051e-05
0.0051007
6.52e-09
4.0132e-05
0.0050112
5.965e-05
0.0048375
7.8202e-05
0.0045814
9.5431e-05
0.0042471
0.00011103
0.0038402
0.0001247
0.0033678
0.00013615
0.0028379
0.00014567
0.0022583
0.00014824
0.0016551
0.00016084
0.00096154
0.00073656
0.00013884
2.0051e-05
0.0050807
7.7359e-09
4.0133e-05
0.0049912
5.9653e-05
0.004818
7.8205e-05
0.0045628
9.5434e-05
0.0042299
0.00011103
0.0038246
0.0001247
0.0033541
0.00013611
0.0028264
0.00014577
0.0022486
0.0001477
0.0016532
0.00016023
0.00094901
0.00074832
0.00014847
2.0051e-05
0.0050606
8.9539e-09
4.0135e-05
0.0049711
5.9655e-05
0.0047984
7.8208e-05
0.0045443
9.5437e-05
0.0042126
0.00011103
0.003809
0.0001247
0.0033405
0.00013608
0.0028151
0.0001459
0.0022388
0.00014726
0.0016519
0.00015935
0.00093692
0.000752
0.00015567
2.0051e-05
0.0050405
1.0174e-08
4.0136e-05
0.004951
5.9658e-05
0.0047789
7.8211e-05
0.0045257
9.5441e-05
0.0041954
0.00011104
0.0037934
0.0001247
0.0033268
0.00013603
0.0028037
0.00014603
0.0022288
0.00014693
0.001651
0.00015829
0.00092556
0.00074941
0.00016087
2.0052e-05
0.0050205
1.1396e-08
4.0137e-05
0.0049309
5.966e-05
0.0047594
7.8214e-05
0.0045072
9.5444e-05
0.0041782
0.00011104
0.0037778
0.0001247
0.0033131
0.00013599
0.0027924
0.00014617
0.0022186
0.00014671
0.0016504
0.00015712
0.00091515
0.00074207
0.00016446
2.0052e-05
0.0050004
1.2621e-08
4.0138e-05
0.0049108
5.9662e-05
0.0047399
7.8217e-05
0.0044886
9.5448e-05
0.0041609
0.00011104
0.0037622
0.00012471
0.0032995
0.00013594
0.0027812
0.00014631
0.0022083
0.00014659
0.0016501
0.00015591
0.00090584
0.00073124
0.00016674
2.0052e-05
0.0049803
1.3848e-08
4.014e-05
0.0048907
5.9665e-05
0.0047203
7.822e-05
0.00447
9.5451e-05
0.0041437
0.00011104
0.0037466
0.00012471
0.0032858
0.00013588
0.00277
0.00014645
0.0021977
0.00014658
0.00165
0.00015471
0.00089771
0.00071793
0.00016802
2.0052e-05
0.0049603
1.5077e-08
4.0141e-05
0.0048706
5.9667e-05
0.0047008
7.8223e-05
0.0044515
9.5455e-05
0.0041265
0.00011104
0.003731
0.00012472
0.0032721
0.00013583
0.0027589
0.00014658
0.002187
0.00014667
0.0016499
0.00015357
0.0008908
0.00070299
0.00016851
2.0052e-05
0.0049402
1.6309e-08
4.0142e-05
0.0048506
5.967e-05
0.0046813
7.8227e-05
0.0044329
9.5458e-05
0.0041092
0.00011105
0.0037155
0.00012473
0.0032584
0.00013577
0.0027479
0.0001467
0.002176
0.00014684
0.0016498
0.00015252
0.00088512
0.00068709
0.00016842
2.0052e-05
0.0049201
1.7543e-08
4.0143e-05
0.0048305
5.9672e-05
0.0046618
7.823e-05
0.0044144
9.5462e-05
0.004092
0.00011105
0.0036999
0.00012474
0.0032447
0.0001357
0.0027369
0.0001468
0.0021649
0.00014709
0.0016495
0.00015158
0.00088063
0.00067076
0.00016791
2.0052e-05
0.0049001
1.878e-08
4.0145e-05
0.0048104
5.9674e-05
0.0046422
7.8233e-05
0.0043958
9.5466e-05
0.0040748
0.00011105
0.0036843
0.00012475
0.003231
0.00013564
0.002726
0.0001469
0.0021537
0.0001474
0.001649
0.00015077
0.00087726
0.00065443
0.0001671
2.0052e-05
0.00488
2.0019e-08
4.0146e-05
0.0047903
5.9677e-05
0.0046227
7.8236e-05
0.0043773
9.547e-05
0.0040575
0.00011105
0.0036687
0.00012476
0.0032173
0.00013557
0.0027152
0.00014697
0.0021423
0.00014777
0.0016482
0.00015009
0.00087495
0.0006384
0.00016612
2.0052e-05
0.0048599
2.1261e-08
4.0147e-05
0.0047702
5.9679e-05
0.0046032
7.8239e-05
0.0043587
9.5474e-05
0.0040403
0.00011105
0.0036531
0.00012478
0.0032036
0.0001355
0.0027045
0.00014703
0.0021307
0.00014818
0.001647
0.00014955
0.00087358
0.00062292
0.00016503
2.0052e-05
0.0048399
2.2506e-08
4.0148e-05
0.0047501
5.9682e-05
0.0045836
7.8242e-05
0.0043401
9.5478e-05
0.0040231
0.00011105
0.0036376
0.0001248
0.0031899
0.00013543
0.0026939
0.00014707
0.0021191
0.00014863
0.0016455
0.00014915
0.00087306
0.00060815
0.00016391
2.0052e-05
0.0048198
2.3754e-08
4.015e-05
0.00473
5.9684e-05
0.0045641
7.8246e-05
0.0043216
9.5482e-05
0.0040058
0.00011105
0.003622
0.00012482
0.0031761
0.00013536
0.0026833
0.0001471
0.0021074
0.00014909
0.0016435
0.00014888
0.00087327
0.00059421
0.00016282
2.0052e-05
0.0047997
2.5004e-08
4.0151e-05
0.0047099
5.9687e-05
0.0045446
7.8249e-05
0.004303
9.5486e-05
0.0039886
0.00011105
0.0036064
0.00012484
0.0031623
0.00013529
0.0026729
0.0001471
0.0020956
0.00014957
0.001641
0.00014873
0.00087411
0.00058117
0.00016178
2.0052e-05
0.0047796
2.6257e-08
4.0152e-05
0.0046898
5.9689e-05
0.004525
7.8252e-05
0.0042844
9.549e-05
0.0039714
0.00011106
0.0035908
0.00012486
0.0031485
0.00013523
0.0026625
0.00014708
0.0020837
0.00015005
0.001638
0.0001487
0.00087545
0.00056905
0.00016082
2.0052e-05
0.0047595
2.7513e-08
4.0153e-05
0.0046697
5.9691e-05
0.0045055
7.8255e-05
0.0042659
9.5494e-05
0.0039541
0.00011106
0.0035753
0.00012489
0.0031347
0.00013516
0.0026522
0.00014704
0.0020718
0.00015052
0.0016346
0.00014877
0.0008772
0.00055786
0.00015996
2.0052e-05
0.0047395
2.8772e-08
4.0155e-05
0.0046496
5.9694e-05
0.004486
7.8259e-05
0.0042473
9.5499e-05
0.0039369
0.00011106
0.0035597
0.00012491
0.0031208
0.0001351
0.002642
0.00014699
0.00206
0.00015099
0.0016306
0.00014894
0.00087926
0.00054757
0.00015922
2.0052e-05
0.0047194
3.0034e-08
4.0156e-05
0.0046295
5.9696e-05
0.0044664
7.8262e-05
0.0042288
9.5504e-05
0.0039196
0.00011106
0.0035442
0.00012494
0.0031069
0.00013505
0.0026319
0.00014691
0.0020481
0.00015144
0.001626
0.00014918
0.00088151
0.00053816
0.00015859
2.0052e-05
0.0046993
3.13e-08
4.0157e-05
0.0046094
5.9699e-05
0.0044469
7.8265e-05
0.0042102
9.5508e-05
0.0039024
0.00011105
0.0035286
0.00012497
0.003093
0.000135
0.0026219
0.00014682
0.0020363
0.00015186
0.001621
0.00014949
0.00088389
0.00052956
0.00015808
2.0052e-05
0.0046792
3.2568e-08
4.0158e-05
0.0045893
5.9701e-05
0.0044273
7.8269e-05
0.0041916
9.5513e-05
0.0038852
0.00011105
0.0035131
0.000125
0.0030791
0.00013495
0.0026119
0.00014672
0.0020245
0.00015226
0.0016155
0.00014985
0.0008863
0.00052172
0.00015768
2.0052e-05
0.0046591
3.384e-08
4.016e-05
0.0045692
5.9704e-05
0.0044078
7.8272e-05
0.004173
9.5518e-05
0.0038679
0.00011105
0.0034976
0.00012503
0.0030651
0.00013491
0.0026021
0.0001466
0.0020128
0.00015262
0.0016094
0.00015025
0.00088867
0.00051459
0.00015739
2.0052e-05
0.004639
3.5115e-08
4.0161e-05
0.0045491
5.9706e-05
0.0043882
7.8275e-05
0.0041545
9.5523e-05
0.0038507
0.00011105
0.003482
0.00012507
0.0030511
0.00013487
0.0025923
0.00014647
0.0020012
0.00015296
0.0016029
0.00015069
0.00089094
0.00050808
0.00015719
2.0052e-05
0.0046189
3.6394e-08
4.0162e-05
0.0045289
5.9709e-05
0.0043687
7.8279e-05
0.0041359
9.5528e-05
0.0038334
0.00011105
0.0034665
0.0001251
0.003037
0.00013484
0.0025825
0.00014633
0.0019897
0.00015326
0.001596
0.00015114
0.00089306
0.00050214
0.00015708
2.0052e-05
0.0045989
3.7676e-08
4.0163e-05
0.0045088
5.9712e-05
0.0043491
7.8282e-05
0.0041173
9.5534e-05
0.0038162
0.00011104
0.003451
0.00012514
0.0030229
0.00013482
0.0025728
0.00014617
0.0019784
0.00015352
0.0015887
0.00015161
0.00089497
0.00049671
0.00015705
2.0052e-05
0.0045788
3.8961e-08
4.0165e-05
0.0044887
5.9714e-05
0.0043296
7.8285e-05
0.0040988
9.5539e-05
0.0037989
0.00011104
0.0034355
0.00012517
0.0030088
0.00013481
0.0025632
0.00014602
0.0019672
0.00015375
0.0015809
0.00015208
0.00089664
0.00049171
0.00015708
2.0052e-05
0.0045587
4.025e-08
4.0166e-05
0.0044686
5.9717e-05
0.00431
7.8289e-05
0.0040802
9.5545e-05
0.0037816
0.00011104
0.00342
0.00012521
0.0029946
0.0001348
0.0025536
0.00014585
0.0019561
0.00015394
0.0015728
0.00015255
0.00089803
0.00048709
0.00015717
2.0052e-05
0.0045386
4.1543e-08
4.0167e-05
0.0044485
5.9719e-05
0.0042905
7.8292e-05
0.0040616
9.5551e-05
0.0037644
0.00011103
0.0034045
0.00012524
0.0029804
0.00013481
0.002544
0.00014568
0.0019452
0.0001541
0.0015644
0.00015301
0.00089911
0.0004828
0.0001573
2.0052e-05
0.0045185
4.284e-08
4.0169e-05
0.0044284
5.9722e-05
0.0042709
7.8296e-05
0.004043
9.5557e-05
0.0037471
0.00011103
0.0033891
0.00012528
0.0029662
0.00013482
0.0025345
0.00014552
0.0019345
0.00015422
0.0015557
0.00015345
0.00089988
0.00047879
0.00015747
2.0052e-05
0.0044984
4.414e-08
4.017e-05
0.0044083
5.9724e-05
0.0042514
7.8299e-05
0.0040245
9.5564e-05
0.0037299
0.00011103
0.0033736
0.00012531
0.0029519
0.00013484
0.002525
0.00014535
0.001924
0.00015431
0.0015468
0.00015388
0.0009003
0.000475
0.00015767
2.0052e-05
0.0044783
4.5445e-08
4.0171e-05
0.0043881
5.9727e-05
0.0042318
7.8303e-05
0.0040059
9.557e-05
0.0037126
0.00011102
0.0033581
0.00012534
0.0029376
0.00013487
0.0025154
0.00014518
0.0019137
0.00015436
0.0015376
0.00015428
0.00090039
0.00047139
0.00015789
2.0052e-05
0.0044582
4.6753e-08
4.0173e-05
0.004368
5.973e-05
0.0042123
7.8306e-05
0.0039873
9.5577e-05
0.0036953
0.00011102
0.0033427
0.00012538
0.0029232
0.0001349
0.0025059
0.00014501
0.0019036
0.00015439
0.0015282
0.00015465
0.00090012
0.00046793
0.00015811
2.0052e-05
0.0044381
4.8066e-08
4.0174e-05
0.0043479
5.9732e-05
0.0041927
7.831e-05
0.0039687
9.5584e-05
0.0036781
0.00011101
0.0033273
0.00012541
0.0029088
0.00013495
0.0024964
0.00014486
0.0018937
0.00015439
0.0015187
0.000155
0.00089951
0.00046458
0.00015835
2.0052e-05
0.004418
4.9383e-08
4.0175e-05
0.0043278
5.9735e-05
0.0041732
7.8313e-05
0.0039502
9.5591e-05
0.0036608
0.000111
0.0033119
0.00012544
0.0028944
0.000135
0.0024868
0.0001447
0.001884
0.00015436
0.001509
0.00015532
0.00089855
0.00046132
0.00015858
2.0052e-05
0.0043979
5.0704e-08
4.0177e-05
0.0043077
5.9738e-05
0.0041536
7.8317e-05
0.0039316
9.5598e-05
0.0036435
0.000111
0.0032965
0.00012547
0.0028799
0.00013506
0.0024772
0.00014456
0.0018745
0.00015431
0.0014993
0.00015561
0.00089726
0.00045811
0.00015881
2.0052e-05
0.0043778
5.2029e-08
4.0178e-05
0.0042875
5.974e-05
0.004134
7.8321e-05
0.003913
9.5606e-05
0.0036262
0.00011099
0.0032811
0.00012549
0.0028654
0.00013512
0.0024676
0.00014442
0.0018652
0.00015424
0.0014894
0.00015586
0.00089564
0.00045494
0.00015904
2.0052e-05
0.0043577
5.3359e-08
4.0179e-05
0.0042674
5.9743e-05
0.0041145
7.8324e-05
0.0038944
9.5614e-05
0.0036089
0.00011099
0.0032657
0.00012552
0.0028509
0.0001352
0.0024579
0.0001443
0.0018561
0.00015416
0.0014796
0.00015609
0.00089371
0.00045178
0.00015925
2.0052e-05
0.0043376
5.4693e-08
4.0181e-05
0.0042473
5.9746e-05
0.0040949
7.8328e-05
0.0038758
9.5622e-05
0.0035916
0.00011098
0.0032503
0.00012554
0.0028363
0.00013528
0.0024482
0.00014418
0.0018472
0.00015406
0.0014697
0.00015629
0.00089147
0.00044862
0.00015945
2.0052e-05
0.0043175
5.6032e-08
4.0182e-05
0.0042271
5.9749e-05
0.0040753
7.8331e-05
0.0038573
9.563e-05
0.0035743
0.00011098
0.003235
0.00012556
0.0028217
0.00013536
0.0024384
0.00014408
0.0018385
0.00015395
0.0014598
0.00015647
0.00088895
0.00044545
0.00015964
2.0052e-05
0.0042974
5.7376e-08
4.0183e-05
0.004207
5.9751e-05
0.0040558
7.8335e-05
0.0038387
9.5639e-05
0.003557
0.00011097
0.0032197
0.00012558
0.0028071
0.00013545
0.0024285
0.00014399
0.0018299
0.00015383
0.00145
0.00015661
0.00088616
0.00044226
0.00015981
2.0052e-05
0.0042772
5.8724e-08
4.0185e-05
0.0041869
5.9754e-05
0.0040362
7.8339e-05
0.0038201
9.5647e-05
0.0035397
0.00011097
0.0032043
0.0001256
0.0027925
0.00013555
0.0024186
0.00014391
0.0018216
0.0001537
0.0014402
0.00015674
0.00088312
0.00043903
0.00015996
2.0052e-05
0.0042571
6.0078e-08
4.0186e-05
0.0041667
5.9757e-05
0.0040166
7.8342e-05
0.0038015
9.5656e-05
0.0035224
0.00011096
0.003189
0.00012561
0.0027778
0.00013564
0.0024085
0.00014384
0.0018134
0.00015357
0.0014305
0.00015684
0.00087985
0.00043577
0.0001601
2.0052e-05
0.004237
6.1436e-08
4.0188e-05
0.0041466
5.976e-05
0.0039971
7.8346e-05
0.0037829
9.5665e-05
0.0035051
0.00011096
0.0031738
0.00012562
0.0027632
0.00013575
0.0023984
0.00014379
0.0018053
0.00015343
0.0014208
0.00015692
0.00087636
0.00043246
0.00016023
2.0052e-05
0.0042169
6.28e-08
4.0189e-05
0.0041265
5.9763e-05
0.0039775
7.8349e-05
0.0037643
9.5675e-05
0.0034878
0.00011095
0.0031585
0.00012563
0.0027485
0.00013585
0.0023882
0.00014375
0.0017974
0.0001533
0.0014113
0.00015698
0.00087267
0.00042911
0.00016033
2.0053e-05
0.0041968
6.4169e-08
4.019e-05
0.0041063
5.9766e-05
0.0039579
7.8353e-05
0.0037457
9.5684e-05
0.0034704
0.00011095
0.0031432
0.00012563
0.0027338
0.00013596
0.0023779
0.00014373
0.0017897
0.00015316
0.0014018
0.00015703
0.00086881
0.00042572
0.00016043
2.0053e-05
0.0041767
6.5543e-08
4.0192e-05
0.0040862
5.9768e-05
0.0039383
7.8357e-05
0.0037272
9.5694e-05
0.0034531
0.00011095
0.003128
0.00012563
0.0027191
0.00013606
0.0023674
0.00014372
0.001782
0.00015304
0.0013925
0.00015707
0.00086478
0.00042227
0.00016051
2.0053e-05
0.0041565
6.6923e-08
4.0193e-05
0.0040661
5.9771e-05
0.0039188
7.8361e-05
0.0037086
9.5704e-05
0.0034357
0.00011094
0.0031127
0.00012563
0.0027045
0.00013617
0.0023569
0.00014372
0.0017745
0.00015291
0.0013833
0.00015709
0.0008606
0.00041879
0.00016058
2.0053e-05
0.0041364
6.8309e-08
4.0195e-05
0.0040459
5.9774e-05
0.0038992
7.8364e-05
0.00369
9.5714e-05
0.0034184
0.00011094
0.0030975
0.00012563
0.0026898
0.00013628
0.0023462
0.00014373
0.001767
0.00015279
0.0013743
0.0001571
0.0008563
0.00041525
0.00016063
2.0053e-05
0.0041163
6.97e-08
4.0196e-05
0.0040258
5.9777e-05
0.0038796
7.8368e-05
0.0036714
9.5724e-05
0.003401
0.00011094
0.0030823
0.00012562
0.0026751
0.00013638
0.0023355
0.00014375
0.0017596
0.00015268
0.0013653
0.0001571
0.00085187
0.00041168
0.00016068
2.0053e-05
0.0040962
7.1097e-08
4.0198e-05
0.0040056
5.978e-05
0.00386
7.8372e-05
0.0036528
9.5734e-05
0.0033837
0.00011094
0.0030671
0.00012561
0.0026604
0.00013649
0.0023246
0.00014379
0.0017523
0.00015258
0.0013565
0.0001571
0.00084735
0.00040807
0.00016072
2.0053e-05
0.0040761
7.25e-08
4.0199e-05
0.0039855
5.9783e-05
0.0038404
7.8376e-05
0.0036342
9.5744e-05
0.0033663
0.00011094
0.0030519
0.0001256
0.0026458
0.00013659
0.0023136
0.00014384
0.0017451
0.00015249
0.0013479
0.0001571
0.00084275
0.00040442
0.00016075
2.0053e-05
0.0040559
7.3909e-08
4.0201e-05
0.0039653
5.9786e-05
0.0038208
7.8379e-05
0.0036156
9.5755e-05
0.0033489
0.00011095
0.0030367
0.00012559
0.0026311
0.00013669
0.0023025
0.00014389
0.0017379
0.00015241
0.0013394
0.00015709
0.00083807
0.00040074
0.00016077
2.0053e-05
0.0040358
7.5324e-08
4.0202e-05
0.0039452
5.979e-05
0.0038012
7.8383e-05
0.003597
9.5765e-05
0.0033315
0.00011095
0.0030215
0.00012557
0.0026165
0.00013678
0.0022913
0.00014396
0.0017307
0.00015234
0.001331
0.00015708
0.00083333
0.00039703
0.00016079
2.0053e-05
0.0040157
7.6746e-08
4.0204e-05
0.003925
5.9793e-05
0.0037817
7.8387e-05
0.0035784
9.5776e-05
0.0033142
0.00011095
0.0030063
0.00012555
0.0026019
0.00013688
0.00228
0.00014403
0.0017236
0.00015228
0.0013227
0.00015707
0.00082853
0.0003933
0.0001608
2.0053e-05
0.0039955
7.8174e-08
4.0205e-05
0.0039049
5.9796e-05
0.0037621
7.8391e-05
0.0035598
9.5786e-05
0.0032968
0.00011096
0.0029911
0.00012554
0.0025873
0.00013697
0.0022685
0.00014411
0.0017164
0.00015223
0.0013146
0.00015706
0.0008237
0.00038954
0.00016081
2.0053e-05
0.0039754
7.9609e-08
4.0207e-05
0.0038847
5.9799e-05
0.0037425
7.8395e-05
0.0035412
9.5797e-05
0.0032794
0.00011096
0.002976
0.00012552
0.0025728
0.00013705
0.002257
0.00014419
0.0017093
0.00015218
0.0013066
0.00015705
0.00081883
0.00038578
0.00016082
2.0053e-05
0.0039553
8.105e-08
4.0208e-05
0.0038646
5.9802e-05
0.0037229
7.8399e-05
0.0035226
9.5808e-05
0.003262
0.00011097
0.0029608
0.00012549
0.0025583
0.00013713
0.0022454
0.00014428
0.0017021
0.00015215
0.0012987
0.00015705
0.00081394
0.000382
0.00016083
2.0053e-05
0.0039351
8.2499e-08
4.021e-05
0.0038444
5.9806e-05
0.0037033
7.8403e-05
0.003504
9.5818e-05
0.0032445
0.00011098
0.0029457
0.00012547
0.0025438
0.00013721
0.0022336
0.00014438
0.001695
0.00015213
0.001291
0.00015704
0.00080903
0.00037821
0.00016083
2.0053e-05
0.003915
8.3955e-08
4.0212e-05
0.0038243
5.9809e-05
0.0036837
7.8407e-05
0.0034854
9.5829e-05
0.0032271
0.00011099
0.0029305
0.00012545
0.0025293
0.00013728
0.0022218
0.00014447
0.0016878
0.00015212
0.0012833
0.00015705
0.0008041
0.00037442
0.00016084
2.0053e-05
0.0038949
8.5417e-08
4.0213e-05
0.0038041
5.9812e-05
0.0036641
7.8411e-05
0.0034668
9.5839e-05
0.0032097
0.000111
0.0029153
0.00012542
0.0025149
0.00013734
0.0022099
0.00014457
0.0016805
0.00015212
0.0012758
0.00015705
0.00079917
0.00037063
0.00016084
2.0053e-05
0.0038747
8.6888e-08
4.0215e-05
0.0037839
5.9815e-05
0.0036445
7.8415e-05
0.0034482
9.585e-05
0.0031922
0.00011101
0.0029002
0.0001254
0.0025005
0.0001374
0.0021979
0.00014468
0.0016733
0.00015213
0.0012683
0.00015706
0.00079424
0.00036684
0.00016085
2.0053e-05
0.0038546
8.8366e-08
4.0216e-05
0.0037638
5.9819e-05
0.0036249
7.8419e-05
0.0034296
9.586e-05
0.0031748
0.00011103
0.002885
0.00012537
0.0024862
0.00013746
0.0021858
0.00014478
0.0016659
0.00015214
0.001261
0.00015707
0.00078932
0.00036307
0.00016085
2.0053e-05
0.0038344
8.9851e-08
4.0218e-05
0.0037436
5.9822e-05
0.0036053
7.8423e-05
0.003411
9.5871e-05
0.0031574
0.00011104
0.0028698
0.00012535
0.0024718
0.00013751
0.0021736
0.00014488
0.0016586
0.00015217
0.0012537
0.00015709
0.00078439
0.0003593
0.00016086
2.0053e-05
0.0038143
9.1345e-08
4.022e-05
0.0037234
5.9826e-05
0.0035857
7.8427e-05
0.0033924
9.5881e-05
0.0031399
0.00011106
0.0028546
0.00012533
0.0024576
0.00013756
0.0021614
0.00014499
0.0016511
0.0001522
0.0012465
0.00015711
0.00077948
0.00035555
0.00016087
2.0053e-05
0.0037941
9.2846e-08
4.0222e-05
0.0037033
5.9829e-05
0.0035661
7.8431e-05
0.0033738
9.5891e-05
0.0031224
0.00011107
0.0028395
0.0001253
0.0024433
0.0001376
0.0021491
0.00014509
0.0016436
0.00015223
0.0012393
0.00015714
0.00077457
0.00035181
0.00016088
2.0053e-05
0.003774
9.4356e-08
4.0223e-05
0.0036831
5.9833e-05
0.0035465
7.8436e-05
0.0033552
9.5901e-05
0.003105
0.00011109
0.0028243
0.00012528
0.0024292
0.00013764
0.0021368
0.00014519
0.0016361
0.00015227
0.0012322
0.00015717
0.00076968
0.00034809
0.00016089
2.0053e-05
0.0037538
9.5874e-08
4.0225e-05
0.0036629
5.9836e-05
0.0035269
7.844e-05
0.0033366
9.5911e-05
0.0030875
0.00011111
0.0028091
0.00012526
0.002415
0.00013767
0.0021243
0.00014529
0.0016285
0.00015232
0.0012252
0.0001572
0.0007648
0.00034439
0.0001609
2.0053e-05
0.0037337
9.74e-08
4.0227e-05
0.0036428
5.984e-05
0.0035072
7.8445e-05
0.003318
9.5921e-05
0.00307
0.00011113
0.0027939
0.00012523
0.0024009
0.0001377
0.0021119
0.00014539
0.0016208
0.00015237
0.0012182
0.00015724
0.00075994
0.00034071
0.00016091
2.0054e-05
0.0037135
9.8936e-08
4.0228e-05
0.0036226
5.9843e-05
0.0034876
7.8449e-05
0.0032994
9.5931e-05
0.0030526
0.00011115
0.0027787
0.00012521
0.0023868
0.00013772
0.0020994
0.00014548
0.001613
0.00015242
0.0012113
0.00015728
0.00075508
0.00033706
0.00016093
2.0054e-05
0.0036934
1.0048e-07
4.023e-05
0.0036024
5.9847e-05
0.003468
7.8454e-05
0.0032808
9.5941e-05
0.0030351
0.00011117
0.0027634
0.00012519
0.0023728
0.00013774
0.0020868
0.00014557
0.0016052
0.00015248
0.0012044
0.00015732
0.00075025
0.00033344
0.00016094
2.0054e-05
0.0036732
1.0203e-07
4.0232e-05
0.0035822
5.9851e-05
0.0034484
7.8458e-05
0.0032622
9.595e-05
0.0030176
0.00011119
0.0027482
0.00012517
0.0023588
0.00013776
0.0020742
0.00014566
0.0015973
0.00015254
0.0011975
0.00015736
0.00074542
0.00032984
0.00016096
2.0054e-05
0.0036531
1.036e-07
4.0234e-05
0.003562
5.9855e-05
0.0034288
7.8463e-05
0.0032436
9.596e-05
0.0030001
0.00011121
0.0027329
0.00012516
0.0023449
0.00013778
0.0020616
0.00014575
0.0015893
0.0001526
0.0011906
0.00015741
0.00074062
0.00032627
0.00016098
2.0054e-05
0.0036329
1.0517e-07
4.0236e-05
0.0035419
5.9858e-05
0.0034091
7.8468e-05
0.003225
9.5969e-05
0.0029826
0.00011124
0.0027177
0.00012514
0.002331
0.00013779
0.002049
0.00014583
0.0015813
0.00015267
0.0011838
0.00015746
0.00073582
0.00032273
0.000161
2.0054e-05
0.0036128
1.0675e-07
4.0238e-05
0.0035217
5.9862e-05
0.0033895
7.8473e-05
0.0032064
9.5979e-05
0.0029651
0.00011126
0.0027024
0.00012513
0.0023171
0.0001378
0.0020363
0.00014591
0.0015732
0.00015273
0.001177
0.00015751
0.00073104
0.00031922
0.00016102
2.0054e-05
0.0035926
1.0834e-07
4.024e-05
0.0035015
5.9866e-05
0.0033699
7.8478e-05
0.0031878
9.5988e-05
0.0029476
0.00011128
0.0026871
0.00012512
0.0023033
0.00013781
0.0020236
0.00014599
0.001565
0.0001528
0.0011702
0.00015757
0.00072627
0.00031574
0.00016105
2.0054e-05
0.0035724
1.0994e-07
4.0241e-05
0.0034813
5.987e-05
0.0033503
7.8483e-05
0.0031692
9.5997e-05
0.00293
0.00011131
0.0026718
0.00012511
0.0022895
0.00013782
0.0020109
0.00014606
0.0015567
0.00015287
0.0011634
0.00015762
0.00072152
0.0003123
0.00016107
2.0054e-05
0.0035523
1.1155e-07
4.0243e-05
0.0034611
5.9874e-05
0.0033306
7.8488e-05
0.0031505
9.6006e-05
0.0029125
0.00011133
0.0026564
0.0001251
0.0022757
0.00013782
0.0019982
0.00014614
0.0015484
0.00015293
0.0011566
0.00015768
0.00071677
0.00030888
0.00016109
2.0054e-05
0.0035321
1.1318e-07
4.0245e-05
0.0034409
5.9878e-05
0.003311
7.8493e-05
0.0031319
9.6015e-05
0.002895
0.00011136
0.0026411
0.00012509
0.002262
0.00013782
0.0019854
0.0001462
0.00154
0.000153
0.0011498
0.00015773
0.00071204
0.00030549
0.00016112
2.0054e-05
0.0035119
1.1481e-07
4.0247e-05
0.0034207
5.9882e-05
0.0032914
7.8498e-05
0.0031133
9.6024e-05
0.0028775
0.00011138
0.0026257
0.00012508
0.0022483
0.00013783
0.0019727
0.00014627
0.0015316
0.00015307
0.001143
0.00015779
0.00070731
0.00030214
0.00016114
2.0055e-05
0.0034918
1.1645e-07
4.0249e-05
0.0034005
5.9886e-05
0.0032717
7.8504e-05
0.0030947
9.6032e-05
0.00286
0.00011141
0.0026104
0.00012508
0.0022346
0.00013783
0.0019599
0.00014633
0.0015231
0.00015313
0.0011362
0.00015785
0.0007026
0.00029882
0.00016117
2.0055e-05
0.0034716
1.1811e-07
4.0251e-05
0.0033803
5.989e-05
0.0032521
7.8509e-05
0.0030761
9.6041e-05
0.0028424
0.00011143
0.002595
0.00012508
0.002221
0.00013783
0.0019472
0.00014639
0.0015145
0.0001532
0.0011294
0.00015791
0.00069789
0.00029553
0.0001612
2.0055e-05
0.0034514
1.1978e-07
4.0253e-05
0.0033601
5.9895e-05
0.0032324
7.8514e-05
0.0030575
9.605e-05
0.0028249
0.00011146
0.0025796
0.00012507
0.0022074
0.00013783
0.0019344
0.00014645
0.0015059
0.00015327
0.0011226
0.00015797
0.00069319
0.00029227
0.00016123
2.0055e-05
0.0034312
1.2145e-07
4.0256e-05
0.0033399
5.9899e-05
0.0032128
7.852e-05
0.0030388
9.6058e-05
0.0028073
0.00011149
0.0025641
0.00012507
0.0021938
0.00013783
0.0019217
0.0001465
0.0014972
0.00015333
0.0011157
0.00015802
0.0006885
0.00028904
0.00016125
2.0055e-05
0.0034111
1.2314e-07
4.0258e-05
0.0033197
5.9903e-05
0.0031932
7.8526e-05
0.0030202
9.6067e-05
0.0027898
0.00011151
0.0025487
0.00012508
0.0021802
0.00013783
0.0019089
0.00014656
0.0014885
0.0001534
0.0011089
0.00015808
0.00068381
0.00028584
0.00016128
2.0055e-05
0.0033909
1.2484e-07
4.026e-05
0.0032995
5.9908e-05
0.0031735
7.8531e-05
0.0030016
9.6076e-05
0.0027723
0.00011154
0.0025332
0.00012508
0.0021667
0.00013783
0.0018962
0.00014661
0.0014797
0.00015346
0.001102
0.00015814
0.00067913
0.00028267
0.00016131
2.0055e-05
0.0033707
1.2656e-07
4.0262e-05
0.0032793
5.9912e-05
0.0031539
7.8537e-05
0.002983
9.6084e-05
0.0027547
0.00011157
0.0025177
0.00012508
0.0021532
0.00013783
0.0018834
0.00014666
0.0014709
0.00015352
0.0010952
0.0001582
0.00067445
0.00027954
0.00016134
2.0056e-05
0.0033505
1.2829e-07
4.0264e-05
0.0032591
5.9917e-05
0.0031342
7.8543e-05
0.0029643
9.6093e-05
0.0027372
0.00011159
0.0025022
0.00012509
0.0021397
0.00013782
0.0018707
0.0001467
0.001462
0.00015359
0.0010883
0.00015826
0.00066977
0.00027643
0.00016137
2.0056e-05
0.0033303
1.3003e-07
4.0266e-05
0.0032389
5.9921e-05
0.0031146
7.8549e-05
0.0029457
9.6101e-05
0.0027196
0.00011162
0.0024867
0.0001251
0.0021262
0.00013782
0.001858
0.00014675
0.0014531
0.00015365
0.0010814
0.00015832
0.0006651
0.00027335
0.0001614
2.0056e-05
0.0033101
1.3178e-07
4.0268e-05
0.0032187
5.9926e-05
0.0030949
7.8555e-05
0.0029271
9.611e-05
0.0027021
0.00011165
0.0024712
0.00012511
0.0021127
0.00013782
0.0018453
0.00014679
0.0014441
0.00015371
0.0010745
0.00015837
0.00066044
0.0002703
0.00016143
2.0056e-05
0.0032899
1.3355e-07
4.0271e-05
0.0031985
5.9931e-05
0.0030752
7.8561e-05
0.0029085
9.6118e-05
0.0026845
0.00011167
0.0024556
0.00012512
0.0020993
0.00013782
0.0018325
0.00014683
0.0014351
0.00015377
0.0010675
0.00015843
0.00065577
0.00026727
0.00016146
2.0056e-05
0.0032698
1.3533e-07
4.0273e-05
0.0031783
5.9935e-05
0.0030556
7.8567e-05
0.0028898
9.6127e-05
0.0026669
0.0001117
0.0024401
0.00012513
0.0020859
0.00013783
0.0018199
0.00014688
0.0014261
0.00015383
0.0010606
0.00015849
0.00065111
0.00026428
0.00016149
2.0056e-05
0.0032496
1.3712e-07
4.0275e-05
0.003158
5.994e-05
0.0030359
7.8573e-05
0.0028712
9.6135e-05
0.0026494
0.00011173
0.0024245
0.00012514
0.0020724
0.00013783
0.0018072
0.00014692
0.001417
0.00015388
0.0010536
0.00015855
0.00064644
0.00026131
0.00016152
2.0057e-05
0.0032294
1.3893e-07
4.0278e-05
0.0031378
5.9945e-05
0.0030162
7.8579e-05
0.0028526
9.6144e-05
0.0026318
0.00011176
0.0024088
0.00012516
0.002059
0.00013783
0.0017945
0.00014696
0.0014078
0.00015394
0.0010466
0.0001586
0.00064178
0.00025836
0.00016155
2.0057e-05
0.0032092
1.4075e-07
4.028e-05
0.0031176
5.995e-05
0.0029966
7.8586e-05
0.0028339
9.6152e-05
0.0026142
0.00011178
0.0023932
0.00012517
0.0020457
0.00013783
0.0017818
0.00014699
0.0013987
0.000154
0.0010396
0.00015866
0.00063712
0.00025545
0.00016158
2.0057e-05
0.003189
1.4259e-07
4.0282e-05
0.0030974
5.9955e-05
0.0029769
7.8592e-05
0.0028153
9.616e-05
0.0025967
0.00011181
0.0023776
0.00012519
0.0020323
0.00013783
0.0017692
0.00014703
0.0013895
0.00015405
0.0010326
0.00015871
0.00063246
0.00025255
0.00016161
2.0057e-05
0.0031688
1.4444e-07
4.0285e-05
0.0030771
5.9961e-05
0.0029572
7.8599e-05
0.0027966
9.6169e-05
0.0025791
0.00011184
0.0023619
0.0001252
0.0020189
0.00013784
0.0017566
0.00014707
0.0013803
0.00015411
0.0010256
0.00015877
0.0006278
0.00024969
0.00016164
2.0057e-05
0.0031486
1.4631e-07
4.0287e-05
0.0030569
5.9966e-05
0.0029375
7.8605e-05
0.002778
9.6177e-05
0.0025615
0.00011187
0.0023462
0.00012522
0.0020056
0.00013784
0.0017439
0.0001471
0.001371
0.00015416
0.0010185
0.00015882
0.00062314
0.00024684
0.00016167
2.0058e-05
0.0031284
1.482e-07
4.0289e-05
0.0030367
5.9971e-05
0.0029179
7.8612e-05
0.0027594
9.6185e-05
0.002544
0.00011189
0.0023305
0.00012524
0.0019922
0.00013785
0.0017313
0.00014714
0.0013617
0.00015422
0.0010114
0.00015888
0.00061847
0.00024402
0.0001617
2.0058e-05
0.0031082
1.501e-07
4.0292e-05
0.0030165
5.9977e-05
0.0028982
7.8619e-05
0.0027407
9.6194e-05
0.0025264
0.00011192
0.0023148
0.00012526
0.0019789
0.00013785
0.0017187
0.00014717
0.0013524
0.00015427
0.0010043
0.00015893
0.00061381
0.00024123
0.00016173
2.0058e-05
0.0030879
1.5202e-07
4.0294e-05
0.0029962
5.9982e-05
0.0028785
7.8626e-05
0.0027221
9.6202e-05
0.0025088
0.00011195
0.002299
0.00012528
0.0019655
0.00013786
0.0017062
0.00014721
0.001343
0.00015432
0.00099724
0.00015899
0.00060915
0.00023845
0.00016176
2.0058e-05
0.0030677
1.5395e-07
4.0297e-05
0.002976
5.9988e-05
0.0028588
7.8633e-05
0.0027034
9.621e-05
0.0024912
0.00011198
0.0022833
0.0001253
0.0019522
0.00013787
0.0016936
0.00014724
0.0013337
0.00015437
0.00099011
0.00015904
0.00060448
0.0002357
0.00016179
2.0059e-05
0.0030475
1.559e-07
4.0299e-05
0.0029557
5.9994e-05
0.0028391
7.864e-05
0.0026848
9.6218e-05
0.0024737
0.000112
0.0022675
0.00012533
0.0019389
0.00013788
0.001681
0.00014728
0.0013243
0.00015442
0.00098296
0.00015909
0.00059981
0.00023297
0.00016182
2.0059e-05
0.0030273
1.5787e-07
4.0302e-05
0.0029355
6e-05
0.0028194
7.8647e-05
0.0026661
9.6227e-05
0.0024561
0.00011203
0.0022517
0.00012535
0.0019256
0.00013789
0.0016685
0.00014731
0.0013148
0.00015447
0.00097579
0.00015914
0.00059514
0.00023026
0.00016185
2.0059e-05
0.0030071
1.5986e-07
4.0305e-05
0.0029152
6.0006e-05
0.0027997
7.8654e-05
0.0026475
9.6235e-05
0.0024385
0.00011206
0.0022358
0.00012538
0.0019123
0.0001379
0.001656
0.00014734
0.0013054
0.00015453
0.00096861
0.0001592
0.00059047
0.00022757
0.00016189
2.006e-05
0.0029869
1.6187e-07
4.0307e-05
0.002895
6.0012e-05
0.00278
7.8662e-05
0.0026288
9.6243e-05
0.0024209
0.00011209
0.00222
0.0001254
0.0018989
0.00013791
0.0016435
0.00014738
0.0012959
0.00015457
0.00096142
0.00015925
0.0005858
0.0002249
0.00016192
2.006e-05
0.0029666
1.639e-07
4.031e-05
0.0028748
6.0018e-05
0.0027603
7.8669e-05
0.0026102
9.6251e-05
0.0024033
0.00011211
0.0022041
0.00012543
0.0018856
0.00013792
0.001631
0.00014741
0.0012864
0.00015462
0.0009542