/*--------------------------------*- C++ -*----------------------------------*\
  =========                 |
  \\      /  F ield         | OpenFOAM: The Open Source CFD Toolbox
   \\    /   O peration     | Website:  https://openfoam.org
    \\  /    A nd           | Version:  6.0
     \\/     M anipulation  |
\*---------------------------------------------------------------------------*/
FoamFile
{
    version     2.0;
    format      ascii;
    class       surfaceScalarField;
    location    "3.86";
    object      phi;
}
// * * * * * * * * * * * * * * * * * * * * * * * * * * * * * * * * * * * * * //

dimensions      [0 3 -1 0 0 0 0];

internalField   nonuniform List<scalar> 
26699
(
2.0051e-05
0.005201
5.8551e-10
4.0126e-05
0.0051116
5.9639e-05
0.0049351
7.8187e-05
0.0046741
9.5415e-05
0.0043332
0.00011102
0.0039182
0.00012472
0.0034362
0.00013626
0.0028953
0.00014546
0.002305
0.00015181
0.0016755
0.00015717
0.0010154
0.00046503
3.4351e-05
2.0051e-05
0.0051809
1.8116e-09
4.0127e-05
0.0050916
5.964e-05
0.0049155
7.8191e-05
0.0046556
9.5417e-05
0.004316
0.00011102
0.0039026
0.00012471
0.0034225
0.00013625
0.0028838
0.00014545
0.0022958
0.00015105
0.0016699
0.0001589
0.0010076
0.00055905
6.4882e-05
2.0051e-05
0.0051609
3.1402e-09
4.0128e-05
0.0050715
5.9642e-05
0.004896
7.8194e-05
0.004637
9.542e-05
0.0042988
0.00011103
0.003887
0.00012471
0.0034088
0.00013623
0.0028723
0.00014547
0.0022865
0.00015029
0.0016651
0.00016016
0.00099768
0.00062922
8.9993e-05
2.0051e-05
0.0051408
4.4881e-09
4.013e-05
0.0050514
5.9645e-05
0.0048765
7.8197e-05
0.0046185
9.5423e-05
0.0042815
0.00011103
0.0038714
0.0001247
0.0033951
0.0001362
0.0028608
0.00014551
0.0022772
0.00014955
0.001661
0.00016089
0.00098633
0.00067993
0.00011018
2.0051e-05
0.0051208
5.8395e-09
4.0131e-05
0.0050313
5.9647e-05
0.004857
7.82e-05
0.0045999
9.5426e-05
0.0042643
0.00011103
0.0038558
0.0001247
0.0033815
0.00013618
0.0028493
0.00014558
0.0022678
0.00014885
0.0016578
0.0001611
0.00097408
0.00071482
0.00012621
2.005e-05
0.0051007
7.1942e-09
4.0132e-05
0.0050112
5.9649e-05
0.0048375
7.8203e-05
0.0045814
9.543e-05
0.0042471
0.00011103
0.0038402
0.0001247
0.0033678
0.00013615
0.0028378
0.00014567
0.0022583
0.00014822
0.0016552
0.00016086
0.00096144
0.0007369
0.00013877
2.005e-05
0.0050807
8.5521e-09
4.0133e-05
0.0049912
5.9652e-05
0.004818
7.8206e-05
0.0045628
9.5433e-05
0.0042299
0.00011103
0.0038246
0.0001247
0.0033541
0.00013612
0.0028264
0.00014578
0.0022486
0.00014768
0.0016533
0.00016025
0.00094887
0.00074874
0.00014841
2.005e-05
0.0050606
9.9133e-09
4.0134e-05
0.0049711
5.9654e-05
0.0047984
7.8209e-05
0.0045442
9.5436e-05
0.0042126
0.00011104
0.003809
0.0001247
0.0033405
0.00013608
0.002815
0.00014591
0.0022388
0.00014724
0.001652
0.00015938
0.00093674
0.0007525
0.00015562
2.005e-05
0.0050405
1.1278e-08
4.0135e-05
0.004951
5.9656e-05
0.0047789
7.8212e-05
0.0045257
9.5439e-05
0.0041954
0.00011104
0.0037934
0.0001247
0.0033268
0.00013604
0.0028037
0.00014604
0.0022288
0.00014691
0.0016511
0.00015832
0.00092532
0.00074999
0.00016083
2.005e-05
0.0050205
1.2646e-08
4.0137e-05
0.0049309
5.9659e-05
0.0047594
7.8215e-05
0.0045071
9.5443e-05
0.0041782
0.00011104
0.0037778
0.0001247
0.0033132
0.00013599
0.0027924
0.00014618
0.0022186
0.00014668
0.0016506
0.00015716
0.00091485
0.00074271
0.00016443
2.005e-05
0.0050004
1.4017e-08
4.0138e-05
0.0049108
5.9661e-05
0.0047399
7.8218e-05
0.0044886
9.5446e-05
0.004161
0.00011104
0.0037622
0.0001247
0.0032995
0.00013595
0.0027812
0.00014632
0.0022082
0.00014657
0.0016504
0.00015595
0.00090547
0.00073193
0.00016673
2.005e-05
0.0049803
1.5392e-08
4.0139e-05
0.0048907
5.9663e-05
0.0047204
7.8221e-05
0.00447
9.5449e-05
0.0041437
0.00011105
0.0037466
0.00012471
0.0032858
0.00013589
0.00277
0.00014646
0.0021976
0.00014656
0.0016503
0.00015476
0.00089726
0.00071867
0.00016802
2.005e-05
0.0049603
1.677e-08
4.014e-05
0.0048706
5.9666e-05
0.0047008
7.8224e-05
0.0044515
9.5453e-05
0.0041265
0.00011105
0.003731
0.00012472
0.0032722
0.00013584
0.0027589
0.00014659
0.0021869
0.00014664
0.0016503
0.00015362
0.00089028
0.00070377
0.00016853
2.005e-05
0.0049402
1.8152e-08
4.0141e-05
0.0048505
5.9668e-05
0.0046813
7.8227e-05
0.0044329
9.5456e-05
0.0041093
0.00011105
0.0037154
0.00012472
0.0032585
0.00013578
0.0027478
0.00014672
0.0021759
0.00014681
0.0016502
0.00015258
0.00088452
0.0006879
0.00016845
2.005e-05
0.0049201
1.9538e-08
4.0142e-05
0.0048305
5.967e-05
0.0046618
7.823e-05
0.0044143
9.546e-05
0.004092
0.00011105
0.0036998
0.00012473
0.0032448
0.00013571
0.0027368
0.00014683
0.0021648
0.00014706
0.0016499
0.00015164
0.00087994
0.0006716
0.00016794
2.005e-05
0.0049001
2.0927e-08
4.0143e-05
0.0048104
5.9673e-05
0.0046422
7.8234e-05
0.0043958
9.5464e-05
0.0040748
0.00011106
0.0036842
0.00012474
0.0032311
0.00013565
0.0027259
0.00014692
0.0021536
0.00014738
0.0016495
0.00015083
0.00087649
0.00065529
0.00016715
2.005e-05
0.00488
2.2319e-08
4.0145e-05
0.0047903
5.9675e-05
0.0046227
7.8237e-05
0.0043772
9.5467e-05
0.0040576
0.00011106
0.0036686
0.00012476
0.0032174
0.00013558
0.0027151
0.000147
0.0021421
0.00014775
0.0016487
0.00015016
0.00087408
0.00063928
0.00016617
2.005e-05
0.0048599
2.3716e-08
4.0146e-05
0.0047702
5.9677e-05
0.0046032
7.824e-05
0.0043587
9.5471e-05
0.0040404
0.00011106
0.003653
0.00012477
0.0032037
0.00013551
0.0027044
0.00014706
0.0021306
0.00014817
0.0016476
0.00014963
0.00087262
0.00062383
0.00016508
2.0049e-05
0.0048399
2.5117e-08
4.0147e-05
0.0047501
5.968e-05
0.0045837
7.8243e-05
0.0043401
9.5475e-05
0.0040231
0.00011106
0.0036375
0.00012479
0.00319
0.00013544
0.0026937
0.0001471
0.0021189
0.00014862
0.0016461
0.00014923
0.000872
0.00060909
0.00016397
2.0049e-05
0.0048198
2.6521e-08
4.0148e-05
0.00473
5.9682e-05
0.0045641
7.8246e-05
0.0043215
9.5479e-05
0.0040059
0.00011106
0.0036219
0.00012481
0.0031762
0.00013538
0.0026831
0.00014713
0.0021072
0.00014909
0.0016441
0.00014897
0.00087212
0.00059519
0.00016288
2.0049e-05
0.0047997
2.7929e-08
4.0149e-05
0.0047099
5.9684e-05
0.0045446
7.825e-05
0.004303
9.5483e-05
0.0039887
0.00011106
0.0036063
0.00012483
0.0031625
0.00013531
0.0026727
0.00014713
0.0020954
0.00014957
0.0016417
0.00014884
0.00087286
0.00058218
0.00016184
2.0049e-05
0.0047796
2.9342e-08
4.015e-05
0.0046898
5.9687e-05
0.004525
7.8253e-05
0.0042844
9.5487e-05
0.0039714
0.00011106
0.0035907
0.00012485
0.0031487
0.00013524
0.0026623
0.00014711
0.0020835
0.00015006
0.0016387
0.00014881
0.00087411
0.00057011
0.00016089
2.0049e-05
0.0047595
3.0758e-08
4.0151e-05
0.0046697
5.9689e-05
0.0045055
7.8256e-05
0.0042658
9.5491e-05
0.0039542
0.00011107
0.0035751
0.00012488
0.0031349
0.00013518
0.002652
0.00014707
0.0020716
0.00015055
0.0016352
0.0001489
0.00087576
0.00055897
0.00016003
2.0049e-05
0.0047395
3.2179e-08
4.0153e-05
0.0046496
5.9692e-05
0.004486
7.8259e-05
0.0042473
9.5495e-05
0.0039369
0.00011107
0.0035596
0.00012491
0.003121
0.00013511
0.0026418
0.00014702
0.0020597
0.00015102
0.0016312
0.00014907
0.0008777
0.00054875
0.0001593
2.0049e-05
0.0047194
3.3603e-08
4.0154e-05
0.0046295
5.9694e-05
0.0044664
7.8263e-05
0.0042287
9.55e-05
0.0039197
0.00011107
0.003544
0.00012493
0.0031071
0.00013506
0.0026317
0.00014694
0.0020478
0.00015148
0.0016267
0.00014933
0.00087985
0.00053941
0.00015868
2.0049e-05
0.0046993
3.5033e-08
4.0155e-05
0.0046094
5.9696e-05
0.0044469
7.8266e-05
0.0042101
9.5504e-05
0.0039025
0.00011106
0.0035284
0.00012496
0.0030932
0.000135
0.0026216
0.00014685
0.002036
0.00015191
0.0016217
0.00014965
0.00088212
0.00053089
0.00015817
2.0049e-05
0.0046792
3.6466e-08
4.0156e-05
0.0045892
5.9699e-05
0.0044273
7.8269e-05
0.0041916
9.5509e-05
0.0038852
0.00011106
0.0035129
0.000125
0.0030793
0.00013495
0.0026117
0.00014675
0.0020242
0.00015232
0.0016161
0.00015003
0.00088441
0.00052314
0.00015778
2.0049e-05
0.0046591
3.7904e-08
4.0157e-05
0.0045691
5.9701e-05
0.0044078
7.8273e-05
0.004173
9.5514e-05
0.003868
0.00011106
0.0034973
0.00012503
0.0030654
0.00013491
0.0026018
0.00014662
0.0020124
0.0001527
0.00161
0.00015045
0.00088666
0.00051609
0.0001575
2.0048e-05
0.004639
3.9346e-08
4.0158e-05
0.004549
5.9704e-05
0.0043883
7.8276e-05
0.0041544
9.5519e-05
0.0038507
0.00011106
0.0034818
0.00012506
0.0030514
0.00013487
0.002592
0.00014649
0.0020008
0.00015305
0.0016034
0.00015091
0.0008888
0.00050967
0.00015732
2.0048e-05
0.0046189
4.0793e-08
4.0159e-05
0.0045289
5.9706e-05
0.0043687
7.8279e-05
0.0041358
9.5524e-05
0.0038335
0.00011106
0.0034663
0.0001251
0.0030373
0.00013484
0.0025822
0.00014634
0.0019893
0.00015336
0.0015964
0.00015138
0.00089077
0.00050383
0.00015723
2.0048e-05
0.0045989
4.2245e-08
4.0161e-05
0.0045088
5.9709e-05
0.0043492
7.8283e-05
0.0041173
9.5529e-05
0.0038163
0.00011106
0.0034507
0.00012513
0.0030232
0.00013481
0.0025726
0.00014618
0.001978
0.00015363
0.001589
0.00015187
0.00089253
0.00049849
0.00015722
2.0048e-05
0.0045788
4.3702e-08
4.0162e-05
0.0044887
5.9711e-05
0.0043296
7.8286e-05
0.0040987
9.5535e-05
0.003799
0.00011105
0.0034352
0.00012517
0.0030091
0.0001348
0.0025629
0.00014602
0.0019667
0.00015387
0.0015811
0.00015237
0.00089404
0.00049359
0.00015727
2.0048e-05
0.0045587
4.5163e-08
4.0163e-05
0.0044686
5.9714e-05
0.0043101
7.8289e-05
0.0040801
9.5541e-05
0.0037818
0.00011105
0.0034197
0.00012521
0.002995
0.00013479
0.0025533
0.00014585
0.0019557
0.00015407
0.0015729
0.00015286
0.00089525
0.00048906
0.00015739
2.0048e-05
0.0045386
4.6629e-08
4.0164e-05
0.0044485
5.9716e-05
0.0042905
7.8293e-05
0.0040615
9.5547e-05
0.0037645
0.00011105
0.0034042
0.00012525
0.0029808
0.00013478
0.0025438
0.00014567
0.0019448
0.00015424
0.0015643
0.00015334
0.00089615
0.00048485
0.00015755
2.0048e-05
0.0045185
4.81e-08
4.0165e-05
0.0044283
5.9719e-05
0.004271
7.8296e-05
0.004043
9.5553e-05
0.0037472
0.00011104
0.0033887
0.00012529
0.0029665
0.00013479
0.0025343
0.00014549
0.0019341
0.00015437
0.0015554
0.0001538
0.00089671
0.0004809
0.00015775
2.0048e-05
0.0044984
4.9576e-08
4.0166e-05
0.0044082
5.9721e-05
0.0042514
7.83e-05
0.0040244
9.5559e-05
0.00373
0.00011104
0.0033732
0.00012532
0.0029522
0.0001348
0.0025248
0.00014531
0.0019236
0.00015446
0.0015463
0.00015425
0.00089692
0.00047717
0.00015798
2.0048e-05
0.0044783
5.1058e-08
4.0168e-05
0.0043881
5.9724e-05
0.0042318
7.8303e-05
0.0040058
9.5566e-05
0.0037127
0.00011103
0.0033578
0.00012536
0.0029379
0.00013483
0.0025154
0.00014512
0.0019133
0.00015452
0.0015369
0.00015467
0.00089677
0.00047361
0.00015823
2.0047e-05
0.0044582
5.2545e-08
4.0169e-05
0.004368
5.9727e-05
0.0042123
7.8307e-05
0.0039872
9.5573e-05
0.0036955
0.00011102
0.0033423
0.0001254
0.0029235
0.00013486
0.0025059
0.00014494
0.0019032
0.00015455
0.0015273
0.00015506
0.00089626
0.00047019
0.00015849
2.0047e-05
0.0044381
5.4037e-08
4.017e-05
0.0043479
5.9729e-05
0.0041927
7.831e-05
0.0039686
9.558e-05
0.0036782
0.00011102
0.0033269
0.00012544
0.0029091
0.0001349
0.0024964
0.00014477
0.0018933
0.00015454
0.0015175
0.00015542
0.00089538
0.00046686
0.00015875
2.0047e-05
0.004418
5.5534e-08
4.0171e-05
0.0043277
5.9732e-05
0.0041732
7.8313e-05
0.0039501
9.5587e-05
0.0036609
0.00011101
0.0033115
0.00012547
0.0028946
0.00013494
0.002487
0.00014459
0.0018837
0.00015451
0.0015076
0.00015575
0.00089414
0.00046359
0.00015902
2.0047e-05
0.0043979
5.7037e-08
4.0172e-05
0.0043076
5.9735e-05
0.0041536
7.8317e-05
0.0039315
9.5595e-05
0.0036436
0.000111
0.0032961
0.00012551
0.0028801
0.000135
0.0024775
0.00014443
0.0018742
0.00015446
0.0014976
0.00015605
0.00089255
0.00046036
0.00015928
2.0047e-05
0.0043778
5.8546e-08
4.0173e-05
0.0042875
5.9737e-05
0.004134
7.832e-05
0.0039129
9.5603e-05
0.0036264
0.00011099
0.0032807
0.00012554
0.0028656
0.00013506
0.002468
0.00014427
0.001865
0.00015438
0.0014875
0.00015632
0.00089061
0.00045715
0.00015953
2.0047e-05
0.0043577
6.006e-08
4.0175e-05
0.0042674
5.974e-05
0.0041145
7.8324e-05
0.0038943
9.5611e-05
0.0036091
0.00011099
0.0032653
0.00012557
0.002851
0.00013513
0.0024584
0.00014412
0.001856
0.00015428
0.0014773
0.00015655
0.00088834
0.00045393
0.00015977
2.0047e-05
0.0043376
6.1581e-08
4.0176e-05
0.0042472
5.9743e-05
0.0040949
7.8327e-05
0.0038757
9.5619e-05
0.0035918
0.00011098
0.0032499
0.00012561
0.0028364
0.00013521
0.0024488
0.00014398
0.0018473
0.00015417
0.0014671
0.00015675
0.00088576
0.00045069
0.00015999
2.0047e-05
0.0043174
6.3107e-08
4.0177e-05
0.0042271
5.9745e-05
0.0040753
7.8331e-05
0.0038571
9.5628e-05
0.0035745
0.00011097
0.0032346
0.00012563
0.0028217
0.00013529
0.0024392
0.00014385
0.0018387
0.00015404
0.0014569
0.00015692
0.00088288
0.00044741
0.00016019
2.0046e-05
0.0042973
6.4639e-08
4.0178e-05
0.004207
5.9748e-05
0.0040558
7.8334e-05
0.0038386
9.5637e-05
0.0035572
0.00011096
0.0032193
0.00012566
0.002807
0.00013538
0.0024294
0.00014374
0.0018303
0.0001539
0.0014468
0.00015706
0.00087972
0.00044409
0.00016038
2.0046e-05
0.0042772
6.6178e-08
4.018e-05
0.0041868
5.9751e-05
0.0040362
7.8338e-05
0.00382
9.5647e-05
0.0035399
0.00011095
0.003204
0.00012568
0.0027923
0.00013548
0.0024196
0.00014364
0.0018222
0.00015374
0.0014367
0.00015717
0.00087629
0.00044072
0.00016054
2.0046e-05
0.0042571
6.7723e-08
4.0181e-05
0.0041667
5.9754e-05
0.0040166
7.8341e-05
0.0038014
9.5657e-05
0.0035226
0.00011094
0.0031887
0.00012571
0.0027775
0.00013558
0.0024098
0.00014355
0.0018142
0.00015358
0.0014266
0.00015725
0.00087262
0.0004373
0.00016068
2.0046e-05
0.004237
6.9274e-08
4.0182e-05
0.0041466
5.9757e-05
0.0039971
7.8344e-05
0.0037828
9.5667e-05
0.0035052
0.00011093
0.0031734
0.00012573
0.0027627
0.00013569
0.0023998
0.00014347
0.0018064
0.00015342
0.0014167
0.00015731
0.00086873
0.00043381
0.0001608
2.0046e-05
0.0042169
7.0832e-08
4.0183e-05
0.0041264
5.976e-05
0.0039775
7.8348e-05
0.0037642
9.5677e-05
0.0034879
0.00011092
0.0031582
0.00012574
0.0027479
0.0001358
0.0023898
0.00014341
0.0017988
0.00015325
0.0014068
0.00015735
0.00086464
0.00043026
0.0001609
2.0046e-05
0.0041968
7.2396e-08
4.0185e-05
0.0041063
5.9762e-05
0.0039579
7.8351e-05
0.0037456
9.5688e-05
0.0034706
0.00011091
0.0031429
0.00012576
0.002733
0.00013591
0.0023796
0.00014336
0.0017914
0.00015309
0.0013971
0.00015736
0.00086036
0.00042664
0.00016098
2.0046e-05
0.0041766
7.3968e-08
4.0186e-05
0.0040861
5.9765e-05
0.0039383
7.8354e-05
0.003727
9.5699e-05
0.0034532
0.00011091
0.0031277
0.00012577
0.0027182
0.00013603
0.0023693
0.00014333
0.0017841
0.00015292
0.0013875
0.00015736
0.00085592
0.00042296
0.00016104
2.0046e-05
0.0041565
7.5546e-08
4.0187e-05
0.004066
5.9768e-05
0.0039187
7.8358e-05
0.0037084
9.5711e-05
0.0034359
0.0001109
0.0031125
0.00012578
0.0027033
0.00013615
0.002359
0.00014331
0.0017769
0.00015276
0.0013781
0.00015734
0.00085134
0.00041923
0.00016108
2.0046e-05
0.0041364
7.7131e-08
4.0188e-05
0.0040459
5.9771e-05
0.0038992
7.8361e-05
0.0036898
9.5723e-05
0.0034185
0.00011089
0.0030974
0.00012578
0.0026884
0.00013627
0.0023485
0.00014331
0.0017699
0.00015261
0.0013688
0.00015731
0.00084664
0.00041543
0.0001611
2.0045e-05
0.0041163
7.8723e-08
4.019e-05
0.0040257
5.9774e-05
0.0038796
7.8364e-05
0.0036713
9.5735e-05
0.0034011
0.00011088
0.0030822
0.00012578
0.0026735
0.0001364
0.0023379
0.00014332
0.001763
0.00015246
0.0013596
0.00015727
0.00084183
0.00041159
0.00016112
2.0045e-05
0.0040961
8.0323e-08
4.0191e-05
0.0040056
5.9777e-05
0.00386
7.8368e-05
0.0036527
9.5747e-05
0.0033838
0.00011087
0.0030671
0.00012578
0.0026586
0.00013652
0.0023271
0.00014334
0.0017561
0.00015232
0.0013506
0.00015722
0.00083693
0.0004077
0.00016111
2.0045e-05
0.004076
8.193e-08
4.0192e-05
0.0039854
5.978e-05
0.0038404
7.8371e-05
0.0036341
9.576e-05
0.0033664
0.00011087
0.003052
0.00012578
0.0026437
0.00013664
0.0023162
0.00014338
0.0017494
0.00015219
0.0013418
0.00015716
0.00083196
0.00040376
0.0001611
2.0045e-05
0.0040559
8.3544e-08
4.0194e-05
0.0039653
5.9784e-05
0.0038208
7.8374e-05
0.0036155
9.5773e-05
0.003349
0.00011086
0.0030369
0.00012577
0.0026288
0.00013677
0.0023053
0.00014344
0.0017427
0.00015207
0.0013332
0.0001571
0.00082693
0.00039979
0.00016107
2.0045e-05
0.0040358
8.5167e-08
4.0195e-05
0.0039451
5.9787e-05
0.0038012
7.8377e-05
0.0035969
9.5787e-05
0.0033316
0.00011086
0.0030218
0.00012576
0.0026139
0.00013689
0.0022941
0.0001435
0.0017361
0.00015197
0.0013247
0.00015704
0.00082186
0.00039578
0.00016104
2.0045e-05
0.0040156
8.6797e-08
4.0196e-05
0.003925
5.979e-05
0.0037816
7.838e-05
0.0035783
9.58e-05
0.0033141
0.00011085
0.0030068
0.00012574
0.002599
0.00013701
0.0022829
0.00014358
0.0017295
0.00015187
0.0013164
0.00015697
0.00081676
0.00039175
0.000161
2.0045e-05
0.0039955
8.8435e-08
4.0198e-05
0.0039048
5.9793e-05
0.003762
7.8383e-05
0.0035597
9.5814e-05
0.0032967
0.00011085
0.0029918
0.00012572
0.0025841
0.00013712
0.0022715
0.00014367
0.001723
0.0001518
0.0013083
0.00015691
0.00081165
0.00038771
0.00016096
2.0045e-05
0.0039754
9.0081e-08
4.0199e-05
0.0038847
5.9797e-05
0.0037424
7.8386e-05
0.0035411
9.5828e-05
0.0032793
0.00011085
0.0029767
0.0001257
0.0025693
0.00013724
0.0022599
0.00014376
0.0017165
0.00015173
0.0013003
0.00015685
0.00080653
0.00038364
0.00016091
2.0045e-05
0.0039552
9.1736e-08
4.02e-05
0.0038645
5.98e-05
0.0037228
7.8389e-05
0.0035225
9.5843e-05
0.0032618
0.00011084
0.0029617
0.00012568
0.0025544
0.00013734
0.0022483
0.00014387
0.0017099
0.00015168
0.0012925
0.00015679
0.00080142
0.00037957
0.00016086
2.0044e-05
0.0039351
9.3399e-08
4.0202e-05
0.0038444
5.9803e-05
0.0037032
7.8392e-05
0.0035039
9.5857e-05
0.0032443
0.00011084
0.0029468
0.00012566
0.0025396
0.00013745
0.0022365
0.00014399
0.0017034
0.00015164
0.0012849
0.00015674
0.00079632
0.0003755
0.00016081
2.0044e-05
0.0039149
9.507e-08
4.0203e-05
0.0038242
5.9807e-05
0.0036836
7.8395e-05
0.0034854
9.5872e-05
0.0032269
0.00011085
0.0029318
0.00012563
0.0025248
0.00013755
0.0022245
0.00014411
0.0016968
0.00015162
0.0012774
0.00015669
0.00079124
0.00037144
0.00016076
2.0044e-05
0.0038948
9.6751e-08
4.0205e-05
0.003804
5.981e-05
0.003664
7.8398e-05
0.0034668
9.5887e-05
0.0032094
0.00011085
0.0029168
0.0001256
0.0025101
0.00013765
0.0022125
0.00014424
0.0016903
0.00015161
0.00127
0.00015665
0.00078619
0.00036738
0.00016071
2.0044e-05
0.0038747
9.844e-08
4.0206e-05
0.0037839
5.9814e-05
0.0036444
7.8401e-05
0.0034482
9.5902e-05
0.0031919
0.00011085
0.0029019
0.00012556
0.0024954
0.00013774
0.0022003
0.00014438
0.0016836
0.00015161
0.0012628
0.00015662
0.00078118
0.00036334
0.00016066
2.0044e-05
0.0038545
1.0014e-07
4.0207e-05
0.0037637
5.9817e-05
0.0036248
7.8404e-05
0.0034296
9.5917e-05
0.0031744
0.00011086
0.0028869
0.00012553
0.0024807
0.00013782
0.002188
0.00014452
0.0016769
0.00015163
0.0012557
0.0001566
0.0007762
0.00035932
0.00016062
2.0044e-05
0.0038344
1.0185e-07
4.0209e-05
0.0037435
5.9821e-05
0.0036052
7.8407e-05
0.003411
9.5932e-05
0.0031568
0.00011087
0.002872
0.00012549
0.0024661
0.0001379
0.0021756
0.00014466
0.0016701
0.00015165
0.0012487
0.00015659
0.00077127
0.00035532
0.00016058
2.0044e-05
0.0038142
1.0356e-07
4.021e-05
0.0037234
5.9824e-05
0.0035856
7.841e-05
0.0033924
9.5947e-05
0.0031393
0.00011088
0.0028571
0.00012545
0.0024515
0.00013797
0.0021631
0.00014481
0.0016633
0.00015169
0.0012418
0.00015658
0.00076639
0.00035136
0.00016055
2.0044e-05
0.0037941
1.0529e-07
4.0212e-05
0.0037032
5.9828e-05
0.003566
7.8413e-05
0.0033738
9.5963e-05
0.0031218
0.00011089
0.0028421
0.00012541
0.002437
0.00013804
0.0021505
0.00014496
0.0016564
0.00015175
0.001235
0.00015658
0.00076155
0.00034742
0.00016052
2.0044e-05
0.0037739
1.0703e-07
4.0213e-05
0.003683
5.9832e-05
0.0035463
7.8416e-05
0.0033553
9.5978e-05
0.0031042
0.0001109
0.0028272
0.00012537
0.0024225
0.00013809
0.0021378
0.00014511
0.0016494
0.00015181
0.0012283
0.00015659
0.00075676
0.00034352
0.00016049
2.0044e-05
0.0037538
1.0877e-07
4.0215e-05
0.0036629
5.9836e-05
0.0035267
7.8418e-05
0.0033367
9.5993e-05
0.0030866
0.00011091
0.0028123
0.00012533
0.0024081
0.00013815
0.002125
0.00014526
0.0016423
0.00015188
0.0012217
0.00015661
0.00075203
0.00033967
0.00016047
2.0044e-05
0.0037336
1.1053e-07
4.0216e-05
0.0036427
5.9839e-05
0.0035071
7.8421e-05
0.0033181
9.6008e-05
0.003069
0.00011093
0.0027974
0.00012529
0.0023937
0.00013819
0.0021121
0.00014541
0.001635
0.00015196
0.0012151
0.00015664
0.00074735
0.00033585
0.00016046
2.0043e-05
0.0037135
1.123e-07
4.0218e-05
0.0036225
5.9843e-05
0.0034875
7.8424e-05
0.0032995
9.6023e-05
0.0030514
0.00011095
0.0027824
0.00012525
0.0023794
0.00013823
0.0020991
0.00014555
0.0016277
0.00015204
0.0012086
0.00015668
0.00074271
0.00033208
0.00016045
2.0043e-05
0.0036933
1.1408e-07
4.0219e-05
0.0036023
5.9847e-05
0.0034678
7.8427e-05
0.0032809
9.6037e-05
0.0030338
0.00011097
0.0027675
0.00012521
0.0023652
0.00013826
0.002086
0.0001457
0.0016203
0.00015214
0.0012022
0.00015672
0.00073813
0.00032835
0.00016045
2.0043e-05
0.0036731
1.1586e-07
4.0221e-05
0.0035822
5.9851e-05
0.0034482
7.843e-05
0.0032624
9.6052e-05
0.0030162
0.00011099
0.0027526
0.00012517
0.002351
0.00013829
0.0020729
0.00014584
0.0016127
0.00015224
0.0011958
0.00015677
0.00073359
0.00032468
0.00016045
2.0043e-05
0.003653
1.1766e-07
4.0223e-05
0.003562
5.9855e-05
0.0034286
7.8432e-05
0.0032438
9.6066e-05
0.0029986
0.00011101
0.0027376
0.00012513
0.0023369
0.00013831
0.0020597
0.00014598
0.0016051
0.00015234
0.0011894
0.00015683
0.0007291
0.00032105
0.00016046
2.0043e-05
0.0036328
1.1948e-07
4.0224e-05
0.0035418
5.986e-05
0.0034089
7.8435e-05
0.0032252
9.608e-05
0.0029809
0.00011104
0.0027227
0.00012509
0.0023228
0.00013832
0.0020465
0.00014611
0.0015973
0.00015245
0.0011831
0.0001569
0.00072465
0.00031747
0.00016047
2.0043e-05
0.0036127
1.213e-07
4.0226e-05
0.0035216
5.9864e-05
0.0033893
7.8438e-05
0.0032066
9.6094e-05
0.0029633
0.00011107
0.0027077
0.00012505
0.0023089
0.00013832
0.0020332
0.00014624
0.0015893
0.00015256
0.0011768
0.00015697
0.00072024
0.00031395
0.00016049
2.0043e-05
0.0035925
1.2313e-07
4.0227e-05
0.0035014
5.9868e-05
0.0033697
7.8441e-05
0.0031881
9.6107e-05
0.0029456
0.0001111
0.0026927
0.00012501
0.0022949
0.00013833
0.0020199
0.00014636
0.0015813
0.00015267
0.0011705
0.00015704
0.00071587
0.00031048
0.00016052
2.0043e-05
0.0035723
1.2498e-07
4.0229e-05
0.0034813
5.9872e-05
0.00335
7.8444e-05
0.0031695
9.612e-05
0.0029279
0.00011113
0.0026777
0.00012498
0.0022811
0.00013832
0.0020066
0.00014648
0.0015732
0.00015279
0.0011642
0.00015712
0.00071154
0.00030706
0.00016054
2.0043e-05
0.0035522
1.2684e-07
4.0231e-05
0.0034611
5.9877e-05
0.0033304
7.8447e-05
0.0031509
9.6132e-05
0.0029102
0.00011116
0.0026627
0.00012494
0.0022673
0.00013831
0.0019932
0.00014659
0.0015649
0.0001529
0.0011578
0.0001572
0.00070724
0.00030369
0.00016057
2.0043e-05
0.003532
1.2871e-07
4.0233e-05
0.0034409
5.9881e-05
0.0033107
7.8451e-05
0.0031323
9.6144e-05
0.0028925
0.00011119
0.0026476
0.00012491
0.0022536
0.0001383
0.0019798
0.00014669
0.0015565
0.00015302
0.0011515
0.00015729
0.00070297
0.00030037
0.00016061
2.0043e-05
0.0035118
1.3059e-07
4.0234e-05
0.0034207
5.9885e-05
0.0032911
7.8454e-05
0.0031138
9.6156e-05
0.0028748
0.00011123
0.0026326
0.00012488
0.0022399
0.00013828
0.0019664
0.00014679
0.001548
0.00015313
0.0011452
0.00015738
0.00069872
0.0002971
0.00016065
2.0043e-05
0.0034916
1.3249e-07
4.0236e-05
0.0034005
5.989e-05
0.0032714
7.8457e-05
0.0030952
9.6167e-05
0.0028571
0.00011126
0.0026175
0.00012486
0.0022263
0.00013826
0.001953
0.00014688
0.0015394
0.00015325
0.0011388
0.00015747
0.00069449
0.00029389
0.00016069
2.0043e-05
0.0034715
1.344e-07
4.0238e-05
0.0033803
5.9895e-05
0.0032518
7.8461e-05
0.0030766
9.6178e-05
0.0028394
0.0001113
0.0026023
0.00012483
0.0022128
0.00013823
0.0019396
0.00014697
0.0015306
0.00015336
0.0011324
0.00015756
0.00069029
0.00029072
0.00016073
2.0043e-05
0.0034513
1.3632e-07
4.024e-05
0.0033601
5.9899e-05
0.0032321
7.8464e-05
0.0030581
9.6188e-05
0.0028217
0.00011134
0.0025872
0.00012481
0.0021993
0.0001382
0.0019262
0.00014704
0.0015218
0.00015346
0.001126
0.00015766
0.00068609
0.00028759
0.00016078
2.0042e-05
0.0034311
1.3826e-07
4.0241e-05
0.0033399
5.9904e-05
0.0032124
7.8468e-05
0.0030395
9.6197e-05
0.002804
0.00011138
0.002572
0.00012479
0.0021859
0.00013817
0.0019128
0.00014712
0.0015129
0.00015357
0.0011195
0.00015775
0.00068191
0.00028452
0.00016083
2.0042e-05
0.0034109
1.4021e-07
4.0243e-05
0.0033197
5.9909e-05
0.0031928
7.8472e-05
0.0030209
9.6206e-05
0.0027862
0.00011142
0.0025568
0.00012478
0.0021726
0.00013814
0.0018995
0.00014718
0.0015038
0.00015367
0.001113
0.00015784
0.00067774
0.00028149
0.00016088
2.0042e-05
0.0033907
1.4217e-07
4.0245e-05
0.0032995
5.9913e-05
0.0031731
7.8476e-05
0.0030024
9.6215e-05
0.0027685
0.00011146
0.0025415
0.00012477
0.0021593
0.00013811
0.0018861
0.00014724
0.0014947
0.00015377
0.0011065
0.00015794
0.00067358
0.0002785
0.00016093
2.0042e-05
0.0033705
1.4415e-07
4.0247e-05
0.0032793
5.9918e-05
0.0031534
7.848e-05
0.0029838
9.6223e-05
0.0027507
0.0001115
0.0025263
0.00012476
0.002146
0.00013807
0.0018728
0.0001473
0.0014855
0.00015387
0.0010999
0.00015803
0.00066942
0.00027555
0.00016098
2.0042e-05
0.0033504
1.4615e-07
4.0249e-05
0.0032591
5.9923e-05
0.0031338
7.8485e-05
0.0029653
9.623e-05
0.002733
0.00011155
0.0025109
0.00012475
0.0021328
0.00013803
0.0018595
0.00014734
0.0014761
0.00015396
0.0010933
0.00015812
0.00066525
0.00027264
0.00016103
2.0042e-05
0.0033302
1.4815e-07
4.0251e-05
0.0032389
5.9928e-05
0.0031141
7.8489e-05
0.0029467
9.6237e-05
0.0027153
0.00011159
0.0024956
0.00012475
0.0021196
0.000138
0.0018463
0.00014739
0.0014668
0.00015405
0.0010867
0.00015821
0.00066109
0.00026977
0.00016108
2.0042e-05
0.00331
1.5018e-07
4.0253e-05
0.0032187
5.9933e-05
0.0030944
7.8494e-05
0.0029281
9.6244e-05
0.0026975
0.00011163
0.0024802
0.00012475
0.0021065
0.00013796
0.0018331
0.00014742
0.0014573
0.00015413
0.0010799
0.0001583
0.00065692
0.00026694
0.00016114
2.0042e-05
0.0032898
1.5222e-07
4.0255e-05
0.0031985
5.9938e-05
0.0030747
7.8499e-05
0.0029096
9.625e-05
0.0026798
0.00011168
0.0024648
0.00012476
0.0020934
0.00013792
0.0018199
0.00014746
0.0014478
0.00015421
0.0010732
0.00015839
0.00065274
0.00026414
0.00016119
2.0042e-05
0.0032696
1.5428e-07
4.0257e-05
0.0031782
5.9943e-05
0.003055
7.8505e-05
0.002891
9.6255e-05
0.002662
0.00011172
0.0024493
0.00012477
0.0020804
0.00013789
0.0018068
0.00014749
0.0014382
0.00015429
0.0010664
0.00015848
0.00064855
0.00026137
0.00016125
2.0042e-05
0.0032494
1.5635e-07
4.0259e-05
0.003158
5.9948e-05
0.0030353
7.851e-05
0.0028724
9.626e-05
0.0026443
0.00011177
0.0024338
0.00012478
0.0020674
0.00013785
0.0017937
0.00014751
0.0014285
0.00015436
0.0010595
0.00015856
0.00064435
0.00025863
0.0001613
2.0042e-05
0.0032292
1.5844e-07
4.0261e-05
0.0031378
5.9953e-05
0.0030157
7.8516e-05
0.0028539
9.6264e-05
0.0026265
0.00011181
0.0024183
0.00012479
0.0020544
0.00013782
0.0017807
0.00014753
0.0014188
0.00015443
0.0010526
0.00015864
0.00064013
0.00025592
0.00016135
2.0042e-05
0.003209
1.6055e-07
4.0263e-05
0.0031176
5.9959e-05
0.002996
7.8522e-05
0.0028353
9.6268e-05
0.0026088
0.00011185
0.0024027
0.00012481
0.0020414
0.00013778
0.0017677
0.00014755
0.001409
0.00015449
0.0010457
0.00015872
0.00063591
0.00025324
0.00016141
2.0042e-05
0.0031888
1.6267e-07
4.0265e-05
0.0030974
5.9964e-05
0.0029763
7.8528e-05
0.0028168
9.6271e-05
0.002591
0.0001119
0.002387
0.00012483
0.0020285
0.00013775
0.0017548
0.00014756
0.0013992
0.00015455
0.0010387
0.0001588
0.00063166
0.00025058
0.00016146
2.0042e-05
0.0031686
1.6481e-07
4.0267e-05
0.0030771
5.9969e-05
0.0029566
7.8534e-05
0.0027982
9.6274e-05
0.0025733
0.00011194
0.0023714
0.00012485
0.0020156
0.00013772
0.0017419
0.00014757
0.0013894
0.00015461
0.0010317
0.00015887
0.00062739
0.00024794
0.00016151
2.0042e-05
0.0031484
1.6697e-07
4.027e-05
0.0030569
5.9975e-05
0.0029369
7.8541e-05
0.0027796
9.6277e-05
0.0025555
0.00011198
0.0023557
0.00012488
0.0020027
0.0001377
0.0017291
0.00014758
0.0013795
0.00015466
0.0010246
0.00015895
0.00062311
0.00024533
0.00016156
2.0042e-05
0.0031281
1.6915e-07
4.0272e-05
0.0030367
5.998e-05
0.0029171
7.8548e-05
0.0027611
9.6279e-05
0.0025378
0.00011202
0.0023399
0.00012491
0.0019898
0.00013767
0.0017163
0.00014759
0.0013696
0.00015471
0.0010175
0.00015902
0.0006188
0.00024273
0.00016161
2.0042e-05
0.0031079
1.7135e-07
4.0274e-05
0.0030164
5.9986e-05
0.0028974
7.8555e-05
0.0027425
9.6281e-05
0.0025201
0.00011206
0.0023242
0.00012494
0.0019769
0.00013765
0.0017036
0.0001476
0.0013596
0.00015476
0.0010103
0.00015909
0.00061448
0.00024015
0.00016166
2.0042e-05
0.0030877
1.7357e-07
4.0276e-05
0.0029962
5.9991e-05
0.0028777
7.8562e-05
0.0027239
9.6283e-05
0.0025024
0.0001121
0.0023083
0.00012497
0.0019641
0.00013763
0.001691
0.0001476
0.0013496
0.0001548
0.0010031
0.00015915
0.00061013
0.00023759
0.00016171
2.0042e-05
0.0030675
1.7581e-07
4.0279e-05
0.002976
5.9997e-05
0.002858
7.857e-05
0.0027053
9.6284e-05
0.0024846
0.00011214
0.0022925
0.00012501
0.0019512
0.00013762
0.0016784
0.0001476
0.0013397
0.00015485
0.00099587
0.00015922
0.00060576
0.00023505
0.00016176
2.0042e-05
0.0030473
1.7807e-07
4.0281e-05
0.0029557
6.0002e-05
0.0028383
7.8578e-05
0.0026868
9.6286e-05
0.0024669
0.00011218
0.0022766
0.00012505
0.0019383
0.00013761
0.0016658
0.00014761
0.0013297
0.00015488
0.00098859
0.00015928
0.00060137
0.00023252
0.00016181
2.0042e-05
0.0030271
1.8035e-07
4.0283e-05
0.0029355
6.0008e-05
0.0028186
7.8586e-05
0.0026682
9.6287e-05
0.0024492
0.00011222
0.0022606
0.00012509
0.0019255
0.0001376
0.0016533
0.00014761
0.0013196
0.00015492
0.00098128
0.00015934
0.00059695
0.00023
0.00016186
2.0042e-05
0.0030068
1.8265e-07
4.0286e-05
0.0029153
6.0014e-05
0.0027988
7.8595e-05
0.0026496
9.6288e-05
0.0024315
0.00011226
0.0022447
0.00012513
0.0019126
0.00013759
0.0016408
0.00014761
0.0013096
0.00015496
0.00097394
0.0001594
0.00059251
0.0002275
0.0001619
2.0042e-05
0.0029866
1.8497e-07
4.0288e-05
0.002895
6.0019e-05
0.0027791
7.8604e-05
0.002631
9.6288e-05
0.0024139
0.00011229
0.0022287
0.00012517
0.0018997
0.00013758
0.0016284
0.00014761
0.0012996
0.00015499
0.00096656
0.00015945
0.00058805
0.000225
0.00016195
2.0042e-05
0.0029664
1.8731e-07
4.0291e-05
0.0028748
6.0025e-05
0.0027594
7.8613e-05
0.0026124
9.6289e-05
0.0023962
0.00011233
0.0022126
0.00012522
0.0018868
0.00013758
0.0016161