/*--------------------------------*- C++ -*----------------------------------*\
  =========                 |
  \\      /  F ield         | OpenFOAM: The Open Source CFD Toolbox
   \\    /   O peration     | Website:  https://openfoam.org
    \\  /    A nd           | Version:  6.0
     \\/     M anipulation  |
\*---------------------------------------------------------------------------*/
FoamFile
{
    version     2.0;
    format      ascii;
    class       volScalarField;
    location    "5";
    object      p;
}
// * * * * * * * * * * * * * * * * * * * * * * * * * * * * * * * * * * * * * //

dimensions      [0 2 -2 0 0 0 0];

internalField   nonuniform List<scalar> 
15500
(
0.0279087
0.0278553
0.0278184
0.0277837
0.0277689
0.0277599
0.027776
0.0278029
0.0278623
0.0279413
0.0280636
0.0282178
0.028427
0.0286804
0.0289993
0.0293898
0.0298788
0.0304827
0.031229
0.0321878
0.0334222
0.0349477
0.0366211
0.0380863
0.0386084
0.0372445
0.033299
0.0266943
0.0188195
0.0140036
0.0279265
0.0278497
0.0277926
0.0277419
0.0277139
0.0276954
0.0277045
0.0277277
0.0277847
0.0278643
0.0279864
0.028146
0.0283574
0.028615
0.028928
0.0293152
0.0298059
0.0304238
0.0312199
0.0322714
0.0336722
0.0354797
0.0376302
0.0398472
0.0414495
0.0414065
0.0387135
0.0327472
0.0246095
0.0178588
0.0278183
0.0277376
0.0276766
0.0276241
0.0275947
0.0275755
0.0275848
0.0276086
0.0276666
0.0277472
0.02787
0.028029
0.0282355
0.02848
0.0287635
0.0291017
0.0295147
0.0300292
0.030685
0.0315472
0.0326985
0.0341954
0.0360086
0.0379224
0.0393561
0.0393445
0.0368714
0.0311711
0.0231703
0.0150972
0.0276591
0.0275902
0.0275398
0.0274964
0.027474
0.0274606
0.0274728
0.0274983
0.0275549
0.027632
0.0277474
0.0278948
0.0280822
0.0282978
0.0285362
0.0288045
0.0291149
0.0294811
0.0299321
0.0305105
0.0312773
0.0322735
0.0334865
0.0347502
0.0355942
0.0351793
0.0325744
0.0270397
0.0192861
0.0109947
0.0274849
0.0274318
0.0273947
0.0273641
0.0273528
0.027348
0.0273662
0.0273935
0.0274477
0.0275174
0.0276197
0.0277469
0.0279059
0.0280828
0.0282686
0.0284624
0.0286668
0.0288896
0.0291381
0.0294409
0.0298299
0.0303338
0.0309374
0.0315156
0.0316837
0.0307329
0.027855
0.0224067
0.01488
0.00687852
0.027301
0.0272662
0.0272454
0.0272279
0.0272265
0.0272291
0.027251
0.0272791
0.0273295
0.0273909
0.0274782
0.0275831
0.0277098
0.0278446
0.0279753
0.0280959
0.0282039
0.0282914
0.0283615
0.0284203
0.0284809
0.0285538
0.0286189
0.0285759
0.0281089
0.0266259
0.0234288
0.0179907
0.0105562
0.00295706
0.0271405
0.0271142
0.0271004
0.0270899
0.027095
0.0271026
0.0271277
0.0271558
0.0272021
0.027254
0.0273255
0.0274067
0.0275009
0.0275929
0.0276699
0.0277217
0.0277376
0.0277079
0.0276194
0.0274653
0.0272437
0.026944
0.0265418
0.0259447
0.0248925
0.0228814
0.0193279
0.0138127
0.00636467
-0.000910499
0.0269933
0.0269796
0.0269763
0.0269729
0.0269817
0.0269904
0.0270132
0.0270367
0.0270748
0.0271149
0.0271691
0.0272267
0.0272883
0.0273389
0.0273642
0.0273503
0.0272831
0.0271424
0.0269131
0.0265734
0.0261079
0.0254889
0.0246838
0.0236034
0.0220286
0.0195297
0.0156086
0.00994912
0.00235533
-0.00470789
0.0269174
0.0269002
0.0268923
0.0268849
0.0268899
0.0268943
0.0269123
0.026929
0.0269576
0.0269846
0.0270207
0.0270538
0.0270837
0.0270938
0.027069
0.026992
0.0268429
0.0266042
0.026242
0.0257342
0.0250463
0.0241421
0.022973
0.0214543
0.0193892
0.0164111
0.0120958
0.00622158
-0.00159447
-0.008581
0.0268245
0.0268167
0.0268167
0.0268138
0.0268195
0.0268218
0.026834
0.0268425
0.0268597
0.0268723
0.0268895
0.0268988
0.0268969
0.0268676
0.0267934
0.0266541
0.0264303
0.0260891
0.0256043
0.0249371
0.0240446
0.0228786
0.0213776
0.0194574
0.0169378
0.0135041
0.00878602
0.00264659
-0.00548154
-0.0124927
0.0268148
0.0267974
0.026788
0.0267773
0.0267769
0.0267731
0.0267794
0.0267804
0.0267877
0.0267867
0.0267857
0.0267709
0.0267384
0.0266699
0.0265469
0.0263471
0.0260435
0.0256081
0.0249988
0.0241726
0.0230808
0.0216585
0.0198388
0.0175279
0.014563
0.0106643
0.00551901
-0.000940933
-0.00942168
-0.016561
0.0267929
0.0267857
0.0267853
0.0267797
0.02678
0.0267734
0.0267728
0.026764
0.0267583
0.0267414
0.0267207
0.0266818
0.0266181
0.0265108
0.0263389
0.0260766
0.0256961
0.0251573
0.0244236
0.0234395
0.0221494
0.0204766
0.018346
0.0156565
0.0122589
0.00790307
0.00231861
-0.00449776
-0.0133913
-0.0207255
0.0269055
0.0268826
0.0268662
0.0268472
0.0268363
0.0268198
0.0268102
0.0267918
0.0267747
0.0267433
0.026704
0.0266408
0.0265467
0.0264002
0.0261784
0.025852
0.0253868
0.0247502
0.0238824
0.0227351
0.0212367
0.0193075
0.0168574
0.0137846
0.0099421
0.00511152
-0.000940629
-0.00815477
-0.0174842
-0.025086
0.0269822
0.0269706
0.0269647
0.0269524
0.0269438
0.0269256
0.02691
0.0268823
0.0268527
0.0268059
0.0267471
0.0266599
0.0265341
0.0263477
0.0260739
0.0256798
0.0251332
0.0243819
0.0233804
0.0220615
0.0203498
0.0181577
0.015384
0.0119248
0.00763638
0.00232756
-0.00420638
-0.011847
-0.0216568
-0.0295709
0.0272173
0.0271874
0.0271646
0.0271386
0.0271197
0.0270933
0.027071
0.027036
0.0269971
0.0269371
0.0268602
0.0267484
0.0265913
0.0263633
0.0260356
0.0255725
0.0249325
0.0240714
0.0229225
0.0214187
0.0194812
0.0170083
0.0138963
0.0100308
0.00527726
-0.000537296
-0.00758062
-0.015685
-0.0259887
-0.0342708
0.027441
0.0274261
0.0274172
0.0274005
0.0273858
0.0273585
0.0273304
0.0272856
0.0272333
0.0271564
0.0270586
0.0269211
0.0267301
0.026459
0.0260747
0.0255371
0.024804
0.0238151
0.0225136
0.0208167
0.0186417
0.0158772
0.0124145
0.00813169
0.00290313
-0.00342763
-0.0109978
-0.019591
-0.0304264
-0.03911
0.0278923
0.027854
0.0278223
0.0277866
0.0277569
0.0277176
0.0276799
0.0276255
0.027562
0.0274704
0.0273529
0.0271887
0.0269635
0.0266469
0.0262025
0.0255859
0.0247467
0.0236344
0.0221622
0.0202591
0.0178255
0.0147503
0.0109117
0.00618872
0.000455449
-0.00642065
-0.0145499
-0.0236645
-0.0350451
-0.0441746
0.0283137
0.0282923
0.0282769
0.0282531
0.0282295
0.0281909
0.0281484
0.0280847
0.028008
0.0278991
0.0277595
0.0275673
0.0273044
0.0269392
0.02643
0.0257278
0.0247843
0.023524
0.0218792
0.0197554
0.0170508
0.0136486
0.00941745
0.00423699
-0.00201688
-0.00945489
-0.0181634
-0.0278244
-0.0397855
-0.0493882
0.0290008
0.028955
0.0289167
0.0288742
0.0288368
0.0287877
0.0287371
0.0286651
0.0285775
0.028453
0.0282913
0.0280689
0.0277669
0.0273491
0.0267707
0.025979
0.0249142
0.0235108
0.0216729
0.0193085
0.0163132
0.0125564
0.00790734
0.00223701
-0.00456876
-0.0126048
-0.0219247
-0.0321668
-0.0447203
-0.0548342
0.0296995
0.029675
0.0296567
0.0296282
0.0295977
0.0295486
0.0294913
0.029407
0.0293025
0.0291563
0.0289676
0.0287116
0.0283656
0.0278913
0.0272384
0.0263489
0.0251616
0.0235898
0.0215518
0.0189346
0.0156311
0.0115016
0.00641296
0.000230755
-0.00714804
-0.0158041
-0.0257596
-0.0366081
-0.0497876
-0.0604346
0.030746
0.0306912
0.0306424
0.0305883
0.0305369
0.0304712
0.0304
0.0303023
0.030182
0.0300153
0.0297996
0.0295074
0.0291152
0.0285799
0.0278468
0.0268524
0.0255249
0.0237903
0.021527
0.0186385
0.0149986
0.0104697
0.00490694
-0.00182003
-0.00981188
-0.0191246
-0.0297535
-0.0412422
-0.0550619
-0.0662751
0.0317736
0.0317422
0.0317159
0.0316778
0.0316349
0.0315696
0.0314917
0.0313807
0.0312418
0.031051
0.0308045
0.0304736
0.03003
0.0294288
0.0286088
0.0275004
0.0260343
0.0241041
0.0216132
0.0184347
0.0144408
0.00948912
0.0034267
-0.00387199
-0.0125033
-0.0224999
-0.0338306
-0.0459861
-0.0604787
-0.0722774
0.033181
0.0331185
0.0330618
0.0329985
0.032936
0.0328555
0.0327649
0.0326412
0.0324859
0.0322723
0.0319948
0.0316219
0.0311248
0.0304525
0.0295395
0.0283119
0.0266856
0.0245665
0.0218204
0.0183259
0.0139517
0.00854154
0.0019455
-0.00596739
-0.0152792
-0.0260036
-0.0380742
-0.0509349
-0.0661146
-0.0785307
0.0346015
0.0345683
0.0345391
0.0344952
0.0344425
0.0343622
0.0342631
0.034123
0.0339452
0.0337026
0.0333889
0.0329709
0.0324146
0.0316667
0.0306548
0.029298
0.02751
0.0251695
0.0221606
0.0183336
0.0135562
0.00766179
0.000501319
-0.00805802
-0.0180818
-0.0295668
-0.0424107
-0.0560048
-0.071903
-0.0849539
0.0364743
0.0364038
0.0363369
0.0362613
0.036183
0.0360829
0.0359672
0.0358111
0.0356138
0.0353454
0.034997
0.0345318
0.0339151
0.0330872
0.0319701
0.0304762
0.0285055
0.0259513
0.0226465
0.018463
0.0132458
0.00683219
-0.000937226
-0.0101861
-0.0209721
-0.0332628
-0.0469242
-0.0612907
-0.0779251
-0.0916377
0.0383104
0.0382736
0.0382394
0.0381883
0.0381247
0.0380285
0.0379076
0.0377373
0.0375193
0.0372225
0.0368369
0.0363236
0.0356419
0.0347297
0.0335008
0.03186
0.0297087
0.0269004
0.0232972
0.0187336
0.0130526
0.00608774
-0.0023265
-0.0123027
-0.0238887
-0.0370237
-0.0515407
-0.0667097
-0.0841112
-0.0984989
0.0406276
0.0405543
0.0404849
0.0404058
0.0403218
0.0402113
0.0400796
0.0398985
0.0396648
0.0393437
0.0389228
0.0383595
0.037612
0.0366109
0.0352646
0.0334708
0.031115
0.0280609
0.0241254
0.019148
0.0129685
0.00540593
-0.0036978
-0.0144555
-0.0268934
-0.0409258
-0.0563437
-0.0723591
-0.0905452
-0.105631
0.0429473
0.0429169
0.0428889
0.0428409
0.0427765
0.0426729
0.0425377
0.0423427
0.0420878
0.0417367
0.0412762
0.0406609
0.0398425
0.0387486
0.0372787
0.0353245
0.0327627
0.0294271
0.025149
0.0197353
0.0130254
0.00482872
-0.00500698
-0.0165908
-0.0299238
-0.0448994
-0.0612617
-0.0781555
-0.0971547
-0.112949
0.0458436
0.0457695
0.0456987
0.0456165
0.0455269
0.0454064
0.0452588
0.0450524
0.0447814
0.0444056
0.0439087
0.0432404
0.0423505
0.0411616
0.0395661
0.0374445
0.0346649
0.0310534
0.0263863
0.0205005
0.0132109
0.0043337
-0.00629116
-0.0187565
-0.0330474
-0.0490207
-0.0663793
-0.0841967
-0.104029
-0.120549
0.0486829
0.0486591
0.0486378
0.048595
0.048533
0.048426
0.0482813
0.0480663
0.0477787
0.0473761
0.0468409
0.0461194
0.0451582
0.0438735
0.0421503
0.0398719
0.0368605
0.0329185
0.0278593
0.0214679
0.0135643
0.00396282
-0.0075
-0.0208977
-0.0361972
-0.0532204
-0.0716253
-0.0903998
-0.111093
-0.128342
0.0521342
0.0520679
0.052008
0.0519364
0.0518568
0.0517412
0.0515928
0.0513747
0.0510783
0.0506559
0.0500888
0.0493186
0.0482887
0.0469103
0.0450719
0.0425973
0.039336
0.0350751
0.0295658
0.0226308
0.0140711
0.00368743
-0.00867062
-0.023069
-0.0394424
-0.0575788
-0.0770835
-0.0968658
-0.118439
-0.136428
0.055527
0.0555251
0.0555286
0.0555089
0.0554679
0.0553756
0.0552394
0.0550206
0.0547164
0.0542757
0.0536792
0.0528637
0.0517659
0.0502966
0.0483045
0.0456561
0.0421226
0.0374742
0.0315293
0.0240254
0.0147708
0.00355766
-0.00975151
-0.0252095
-0.0427137
-0.0620242
-0.0826849
-0.103511
-0.125986
-0.144714
0.0595408
0.059497
0.0594681
0.0594304
0.0593878
0.0593061
0.0591877
0.0589874
0.0586942
0.0582518
0.0576359
0.0567792
0.0556141
0.0540376
0.0519188
0.0490382
0.0452074
0.0402153
0.0337608
0.025651
0.0156455
0.00354566
-0.0107865
-0.0273748
-0.0460878
-0.0666379
-0.0885153
-0.110437
-0.133835
-0.153305
0.0635063
0.0635426
0.0636035
0.0636481
0.0636765
0.0636456
0.0635645
0.0633834
0.0630991
0.0626508
0.0620139
0.0611151
0.0598781
0.0581984
0.0558989
0.0528103
0.0486825
0.0432484
0.0363052
0.027548
0.0167469
0.0037031
-0.0117164
-0.0295018
-0.0494893
-0.071348
-0.0945058
-0.117561
-0.1419
-0.162102
0.0686947
0.0686764
0.0686722
0.0686567
0.0686353
0.0685722
0.0684714
0.0682814
0.0679886
0.0675258
0.0668606
0.0659125
0.0645975
0.0627936
0.0603415
0.0569922
0.0525247
0.0466958
0.0391737
0.0297139
0.018059
0.00399624
-0.0125852
-0.031654
-0.0529984
-0.0762414
-0.100742
-0.124988
-0.150286
-0.171212
0.0735761
0.0736385
0.073729
0.0738048
0.0738665
0.0738671
0.0738161
0.0736554
0.0733781
0.0729114
0.0722222
0.0712233
0.0698221
0.0678939
0.0652348
0.0616463
0.0568325
0.0505007
0.0424092
0.0322021
0.0196347
0.00448633
-0.0133317
-0.0337609
-0.0565351
-0.0812423
-0.107157
-0.132633
-0.158903
-0.180534
0.0796962
0.07973
0.0797953
0.0798519
0.0799026
0.0799005
0.0798487
0.0796863
0.0793975
0.0789054
0.0781714
0.0771027
0.0755995
0.0735196
0.0706791
0.0667857
0.0615816
0.0547922
0.0460246
0.0350112
0.0214525
0.00514014
-0.0140076
-0.0358879
-0.0601893
-0.0864398
-0.113839
-0.140604
-0.167862
-0.190176
0.0864823
0.0865505
0.0866305
0.0866893
0.0867252
0.0866967
0.0866116
0.0864097
0.0860792
0.0855375
0.0847419
0.0835903
0.0819709
0.0797363
0.0766518
0.0724762
0.0668738
0.0594997
0.0500723
0.0381918
0.0235752
0.00601948
-0.0145438
-0.0379611
-0.0638731
-0.0917564
-0.120721
-0.148817
-0.177067
-0.200034
0.0937829
0.0938348
0.0939082
0.0939667
0.0940104
0.0939926
0.0939157
0.0937147
0.0933704
0.0927954
0.0919431
0.0907053
0.0889627
0.0865504
0.083249
0.0787245
0.0726718
0.0647606
0.0545564
0.0417336
0.0259799
0.00708272
-0.0149926
-0.0400551
-0.0676808
-0.0972875
-0.127892
-0.15738
-0.186634
-0.210218
0.101674
0.101777
0.101891
0.10198
0.102039
0.102022
0.101938
0.101718
0.101346
0.100729
0.0998151
0.0984862
0.0966123
0.0940206
0.0904418
0.0855929
0.0790727
0.0704947
0.0595222
0.0456968
0.0287276
0.00840024
-0.0152829
-0.042088
-0.0715186
-0.102952
-0.135284
-0.16621
-0.196464
-0.220622
0.110187
0.110287
0.110412
0.110519
0.110608
0.110623
0.110567
0.110365
0.109991
0.109348
0.108377
0.106956
0.104945
0.102153
0.0983268
0.0930755
0.0860417
0.0768449
0.0649724
0.0500693
0.0317857
0.00992934
-0.0154772
-0.0441367
-0.0754917
-0.108846
-0.142991
-0.175417
-0.206675
-0.231356
0.119471
0.11963
0.119801
0.119942
0.120048
0.120066
0.120004
0.119785
0.119386
0.118702
0.117667
0.116149
0.113994
0.111003
0.106866
0.101243
0.0936784
0.0837164
0.0709626
0.0549073
0.0352248
0.0117398
-0.0154962
-0.0461155
-0.0794978
-0.114889
-0.150945
-0.184916
-0.217165
-0.242311
0.129406
0.129568
0.129754
0.12992
0.130061
0.130117
0.130089
0.129893
0.129498
0.128791
0.127701
0.126086
0.123783
0.120573
0.116157
0.110085
0.101939
0.0912626
0.0774863
0.0601873
0.0390096
0.0137779
-0.0154042
-0.0481126
-0.0836476
-0.121184
-0.15924
-0.19482
-0.228055
-0.253596
0.14009
0.140322
0.140568
0.140782
0.140956
0.141032
0.141015
0.140818
0.140411
0.139672
0.138522
0.136808
0.134351
0.130922
0.126162
0.119674
0.110918
0.0993797
0.0845926
0.0659766
0.0432083
0.0161221
-0.0151206
-0.0500343
-0.0878328
-0.127644
-0.167808
-0.205044
-0.239237
-0.265099
0.151539
0.151783
0.152057
0.152308
0.152529
0.152655
0.152682
0.152516
0.152119
0.151361
0.150156
0.148341
0.145724
0.142055
0.136984
0.129988
0.120579
0.108229
0.0922727
0.0722493
0.0477736
0.0187161
-0.014722
-0.0519724
-0.092177
-0.134378
-0.176748
-0.215701
-0.250836
-0.276927
0.16387
0.164193
0.16453
0.164831
0.165087
0.165231
0.16527
0.165102
0.164694
0.163904
0.162639
0.160719
0.157937
0.154027
0.148577
0.141112
0.131018
0.117691
0.100588
0.0790688
0.0527838
0.0216374
-0.0141197
-0.0538304
-0.0965638
-0.141297
-0.185991
-0.226704
-0.26274
-0.288969
0.176948
0.177292
0.177666
0.178015
0.178327
0.178531
0.178623
0.178496
0.178106
0.177303
0.175985
0.173963
0.171011
0.166842
0.161043
0.153016
0.14219
0.127938
0.109519
0.0863949
0.0581875
0.0248161
-0.0133942
-0.0557131
-0.101124
-0.148517
-0.195638
-0.23817
-0.275074
-0.301328
0.190887
0.191322
0.191775
0.19219
0.192555
0.192798
0.192921
0.192812
0.192427
0.191605
0.190233
0.188106
0.184981
0.180549
0.174336
0.165787
0.154185
0.13884
0.119119
0.094303
0.0640606
0.0283385
-0.0124551
-0.0575168
-0.105736
-0.155948
-0.205619
-0.25001
-0.287722
-0.313893
0.205698
0.206163
0.206664
0.207139
0.207573
0.207888
0.208075
0.208016
0.207656
0.206827
0.205405
0.203173
0.199869
0.195156
0.188559
0.179384
0.166963
0.150576
0.129365
0.102749
0.0703362
0.0321302
-0.0113986
-0.0593514
-0.110544
-0.163709
-0.21604
-0.262338
-0.300807
-0.326759
0.221484
0.222047
0.222631
0.223175
0.223664
0.224019
0.224239
0.224202
0.223851
0.223006
0.221532
0.219192
0.215705
0.210709
0.203658
0.1939
0.180614
0.162999
0.140323
0.111804
0.0771012
0.0362775
-0.010125
-0.0611107
-0.115422
-0.171711
-0.22683
-0.275066
-0.314209
-0.339818
0.238114
0.238718
0.239361
0.239976
0.240544
0.240981
0.241278
0.241301
0.240986
0.240143
0.238625
0.236181
0.232506
0.227211
0.219735
0.209288
0.195091
0.176296
0.151955
0.121405
0.0842825
0.0406885
-0.00873724
-0.0629204
-0.120522
-0.180079
-0.238096
-0.288306
-0.328049
-0.353159
0.255678
0.256393
0.257136
0.257839
0.258483
0.258983
0.259336
0.259403
0.259117
0.258275
0.256714
0.254166
0.250303
0.244702
0.236735
0.225642
0.210471
0.190311
0.164321
0.131636
0.0919651
0.0454595
-0.00713329
-0.0646673
-0.125714
-0.188726
-0.249766
-0.301968
-0.342206
-0.366672
0.274164
0.274938
0.275758
0.276551
0.277293
0.277893
0.278338
0.278481
0.278245
0.277415
0.275819
0.273168
0.269108
0.263186
0.254754
0.2429
0.226716
0.205236
0.177376
0.142429
0.100056
0.0504917
-0.00543528
-0.0664856
-0.131166
-0.197779
-0.261951
-0.31616
-0.356791
-0.380441
0.29369
0.294585
0.295514
0.296403
0.297231
0.297902
0.298414
0.298611
0.298413
0.297593
0.295959
0.293203
0.288947
0.282699
0.273736
0.261166
0.2439
0.220895
0.191189
0.153864
0.108654
0.0558815
-0.00353184
-0.0682613
-0.136744
-0.207153
-0.274577
-0.330793
-0.371684
-0.394358
0.314141
0.31511
0.316131
0.317125
0.318064
0.31885
0.319466
0.31975
0.319612
0.318811
0.317143
0.314288
0.309832
0.303251
0.293796
0.280381
0.261982
0.237486
0.205702
0.165849
0.117655
0.0615091
-0.00155566
-0.0701467
-0.142626
-0.216982
-0.287755
-0.345968
-0.386985
-0.408497
0.33565
0.336754
0.337901
0.339009
0.340051
0.340927
0.341624
0.341976
0.341884
0.341098
0.339402
0.336448
0.331804
0.324919
0.314858
0.300629
0.281004
0.254814
0.220974
0.178477
0.127157
0.0674814
0.000607066
-0.0720227
-0.148677
-0.227181
-0.301408
-0.361594
-0.402576
-0.42275
0.35828
0.359476
0.360723
0.361941
0.363087
0.364066
0.364851
0.365274
0.365234
0.364469
0.362748
0.35971
0.354907
0.347619
0.336999
0.321819
0.300914
0.27308
0.236931
0.191648
0.137034
0.0736683
0.00280037
-0.0740532
-0.155091
-0.237888
-0.315648
-0.377763
-0.418545
-0.437183
0.382247
0.383555
0.384874
0.386145
0.38733
0.388342
0.389169
0.389637
0.38964
0.388902
0.387171
0.384065
0.379033
0.371417
0.360121
0.343994
0.321769
0.292073
0.253651
0.205452
0.147395
0.0801762
0.0051464
-0.0761204
-0.161732
-0.249017
-0.330395
-0.394386
-0.434773
-0.451693
0.406772
0.408124
0.409511
0.410884
0.412189
0.413341
0.414305
0.414903
0.415012
0.414346
0.412631
0.409452
0.404269
0.396218
0.38428
0.367156
0.343533
0.31201
0.271045
0.219765
0.158103
0.0868515
0.00747437
-0.0784081
-0.168802
-0.260713
-0.345756
-0.411543
-0.451335
-0.466333
0.431383
0.432997
0.434656
0.436281
0.437825
0.439188
0.44035
0.441124
0.441382
0.440824
0.439154
0.435936
0.430528
0.422126
0.409491
0.39134
0.366253
0.332673
0.28919
0.234694
0.16927
0.093809
0.00990677
-0.0807964
-0.176168
-0.272887
-0.361649
-0.429143
-0.468119
-0.481002
0.457626
0.45931
0.461069
0.46283
0.464539
0.466087
0.46744
0.468396
0.468813
0.468374
0.466759
0.463493
0.457942
0.449097
0.435782
0.416547
0.38991
0.354296
0.307987
0.250107
0.18073
0.100883
0.0122464
-0.0834825
-0.184044
-0.285686
-0.378177
-0.447254
-0.485181
-0.495743
0.484348
0.48631
0.488344
0.490353
0.492294
0.494053
0.495611
0.496757
0.497343
0.497035
0.495487
0.492197
0.48643
0.477228
0.463172
0.442806
0.414542
0.376637
0.327528
0.26611
0.192608
0.108183
0.0146203
-0.0863512
-0.192297
-0.299019
-0.395249
-0.465786
-0.502413
-0.510464
0.512836
0.51487
0.516995
0.519131
0.521224
0.523162
0.52491
0.526244
0.527004
0.526833
0.525356
0.522034
0.516126
0.506463
0.491676
0.47012
0.440131
0.399937
0.347701
0.282543
0.204727
0.115519
0.0168132
-0.0896191
-0.201146
-0.313032
-0.412961
-0.484791
-0.519853
-0.525191
0.541619
0.543954
0.546378
0.548789
0.551144
0.553321
0.555303
0.556857
0.557812
0.557796
0.556406
0.55307
0.546946
0.536906
0.521313
0.498503
0.466688
0.423944
0.368592
0.299529
0.217207
0.123004
0.0189483
-0.0931718
-0.210463
-0.327632
-0.431219
-0.50418
-0.537406
-0.539839
0.57207
0.57453
0.577104
0.579696
0.582254
0.584655
0.586866
0.588643
0.589803
0.589951
0.588653
0.585296
0.579024
0.568491
0.552096
0.52796
0.494212
0.448905
0.390072
0.316896
0.229841
0.13043
0.0207823
-0.0972375
-0.220471
-0.342959
-0.450108
-0.523986
-0.555089
-0.554424
0.603045
0.605834
0.60873
0.611617
0.614458
0.617122
0.61959
0.621611
0.622994
0.623321
0.622131
0.618767
0.612275
0.601327
0.584039
0.558497
0.522702
0.474547
0.412243
0.334762
0.242758
0.1379
0.0224379
-0.101708
-0.231042
-0.358914
-0.469524
-0.544126
-0.572814
-0.56887
0.6358
0.638724
0.641775
0.64485
0.647903
0.650804
0.653523
0.655792
0.657409
0.657929
0.656851
0.653478
0.646825
0.635342
0.617158
0.59013
0.552165
0.501123
0.434958
0.352924
0.255733
0.145178
0.0236523
-0.106827
-0.242395
-0.375631
-0.489539
-0.564612
-0.590581
-0.583178
0.668972
0.672243
0.675641
0.679041
0.682412
0.685614
0.68863
0.691185
0.69306
0.693791
0.692848
0.689479
0.682599
0.670656
0.651467
0.622852
0.582573
0.528349
0.458314
0.371513
0.268883
0.152363
0.0245412
-0.112486
-0.254406
-0.393004
-0.510047
-0.585362
-0.608319
-0.597283
0.70383
0.707294
0.710906
0.714552
0.718189
0.721677
0.724989
0.727833
0.729979
0.730943
0.730144
0.72679
0.719758
0.7072
0.686987
0.656684
0.613954
0.556487
0.482146
0.390308
0.281953
0.159201
0.024817
-0.118933
-0.267287
-0.411154
-0.531103
-0.606371
-0.626007
-0.611178
0.739356
0.743191
0.747172
0.751166
0.755142
0.758959
0.762595
0.765756
0.768205
0.769425
0.768809
0.765532
0.758203
0.745086
0.723714
0.691603
0.646265
0.585234
0.506564
0.409431
0.295059
0.165773
0.0245939
-0.126064
-0.280909
-0.429967
-0.552592
-0.627561
-0.643586
-0.624814
0.776639
0.780687
0.784898
0.789156
0.793418
0.797545
0.801513
0.805012
0.807789
0.809302
0.808929
0.805596
0.798053
0.784214
0.761645
0.727639
0.679543
0.614854
0.531381
0.428631
0.307923
0.171802
0.0235709
-0.134129
-0.29547
-0.449552
-0.574552
-0.648907
-0.661021
-0.638175
0.814571
0.81901
0.823614
0.82825
0.83289
0.837395
0.841745
0.845624
0.848764
0.850604
0.850372
0.847101
0.839193
0.824646
0.800804
0.764764
0.713722
0.645037
0.556704
0.448029
0.320643
0.177357
0.0218595
-0.143019
-0.310842
-0.469781
-0.596868
-0.670336
-0.67827
-0.651221
0.854176
0.858885
0.863783
0.868748
0.873741
0.878624
0.883364
0.887637
0.891147
0.893288
0.893301
0.889941
0.881722
0.866416
0.841229
0.803036
0.74887
0.676056
0.582321
0.467355
0.332915
0.182152
0.0191456
-0.152977
-0.327203
-0.490747
-0.619556
-0.691803
-0.695283
-0.663931
0.894611
0.899752
0.905097
0.910497
0.915928
0.921246
0.926418
0.93111
0.935011
0.937479
0.937626
0.934289
0.925691
0.909581
0.882937
0.842415
0.784905
0.70758
0.608351
0.486712
0.344822
0.186239
0.0155464
-0.163886
-0.344416
-0.512315
-0.642499
-0.713242
-0.71203
-0.676281
0.936936
0.942415
0.948115
0.953894
0.959713
0.965435
0.971021
0.976122
0.980402
0.983173
0.983548
0.980107
0.971147
0.954172
0.925978
0.882982
0.82191
0.739886
0.634548
0.505796
0.356045
0.189319
0.0107497
-0.17598
-0.362638
-0.534557
-0.665696
-0.734591
-0.728452
-0.688242
0.98074
0.986621
0.992709
0.998869
1.00508
1.0112
1.0172
1.02272
1.02739
1.03048
1.03098
1.02754
1.01813
1.00022
0.970353
0.924675
0.859774
0.772624
0.661024
0.524698
0.366641
0.191441
0.00488195
-0.189127
-0.381725
-0.557327
-0.689031
-0.755788
-0.744534
-0.699808
1.02608
1.03234
1.03882
1.04538
1.052
1.05855
1.06499
1.07093
1.076
1.0794
1.08012
1.07654
1.06669
1.04778
1.01612
0.967588
0.898601
0.806074
0.687499
0.543093
0.376277
0.19231
-0.00236262
-0.20354
-0.401808
-0.580678
-0.712485
-0.776757
-0.760206
-0.710949
1.07283
1.07953
1.08644
1.09344
1.1005
1.1075
1.1144
1.1208
1.12629
1.13003
1.13088
1.12726
1.11688
1.09688
1.06327
1.01163
0.938246
0.839851
0.714078
0.561042
0.384996
0.191975
-0.0108383
-0.219073
-0.422736
-0.604457
-0.735945
-0.797443
-0.775465
-0.72167
1.12113
1.12826
1.13562
1.14308
1.15061
1.1581
1.16549
1.17238
1.17831
1.18239
1.18346
1.17967
1.16875
1.14758
1.11187
1.05692
0.978824
0.874226
0.740441
0.578189
0.392465
0.190151
-0.0208291
-0.235915
-0.444611
-0.628696
-0.759378
-0.817757
-0.790233
-0.731945
1.17092
1.17855
1.1864
1.19436
1.2024
1.21041
1.21832
1.22572
1.23213
1.23658
1.23778
1.23391
1.22236
1.19989
1.16187
1.10332
1.02014
0.908778
0.766671
0.594575
0.398712
0.186901
-0.0321671
-0.253902
-0.467276
-0.653236
-0.78268
-0.837654
-0.804516
-0.741792
1.22237
1.2305
1.23887
1.24736
1.25594
1.26449
1.27296
1.2809
1.28781
1.29264
1.29407
1.28996
1.27774
1.25385
1.21336
1.15096
1.06233
0.943763
0.792406
0.609832
0.403414
0.181968
-0.0451092
-0.273195
-0.490808
-0.678089
-0.805802
-0.857038
-0.818228
-0.751189
1.27549
1.28419
1.29311
1.30216
1.31131
1.32044
1.3295
1.33801
1.34546
1.35073
1.35224
1.34794
1.33491
1.30947
1.26626
1.19967
1.10513
0.978722
0.817708
0.623974
0.406607
0.175445
-0.0594596
-0.293615
-0.515043
-0.703093
-0.828648
-0.875872
-0.831381
-0.760162
1.33046
1.33973
1.34924
1.35888
1.36862
1.37836
1.38803
1.39716
1.4052
1.4108
1.41246
1.40779
1.3939
1.36678
1.32065
1.24957
1.14868
1.01387
0.84218
0.636626
0.408003
0.167106
-0.0754383
-0.315299
-0.540036
-0.728242
-0.851162
-0.894061
-0.843883
-0.768697
1.38732
1.39721
1.40733
1.41759
1.42796
1.43833
1.44866
1.45842
1.46695
1.47296
1.47463
1.4696
1.45473
1.42573
1.37642
1.30044
1.19269
1.04872
0.865853
0.647797
0.40766
0.157088
-0.0928232
-0.338053
-0.565615
-0.753372
-0.873259
-0.911579
-0.855747
-0.776827
1.44622
1.45675
1.4675
1.4784
1.48939
1.50042
1.51138
1.52175
1.53087
1.53716
1.53888
1.53341
1.51745
1.4864
1.43365
1.3524
1.23724
1.08343
0.888298
0.657132
0.405341
0.145211
-0.1118
-0.36199
-0.591813
-0.77846
-0.894869
-0.928337
-0.866875
-0.784544
1.50709
1.51829
1.52971
1.54128
1.55296
1.56466
1.5763
1.5873
1.5969
1.60356
1.60526
1.59928
1.58209
1.54875
1.49219
1.40521
1.282
1.11749
0.909525
0.664653
0.401155
0.131663
-0.132123
-0.386915
-0.618452
-0.803343
-0.915917
-0.944321
-0.877279
-0.791883
1.5699
1.58184
1.59401
1.60632
1.61872
1.63114
1.64346
1.65509
1.66524
1.67214
1.67381
1.66723
1.6487
1.61287
1.55215
1.45894
1.32703
1.15096
0.92909
0.670037
0.394945
0.116316
-0.153943
-0.412919
-0.645541
-0.827983
-0.93632
-0.959459
-0.886853
-0.798845
1.63486
1.64757
1.66052
1.67361
1.68676
1.69992
1.71296
1.72522
1.73585
1.74305
1.74458
1.73727
1.71724
1.67862
1.61327
1.51327
1.3719
1.1833
0.94698
0.673355
0.38689
0.0994132
-0.177001
-0.439812
-0.672891
-0.852221
-0.95601
-0.973753
-0.895609
-0.805465
1.70211
1.71564
1.7294
1.74328
1.75721
1.77112
1.78486
1.79774
1.80888
1.81626
1.81759
1.80946
1.78776
1.74602
1.6756
1.56823
1.4166
1.21452
0.962761
0.674353
0.376932
0.0808845
-0.201421
-0.467671
-0.700479
-0.876009
-0.974885
-0.987152
-0.903435
-0.811747
1.77172
1.78609
1.80069
1.8154
1.83012
1.84479
1.85925
1.87274
1.88431
1.89188
1.89289
1.88378
1.86013
1.81484
1.7388
1.62341
1.46065
1.24405
0.976438
0.673188
0.365344
0.0610345
-0.226939
-0.496322
-0.728092
-0.899193
-0.992871
-0.999674
-0.91034
-0.817722
1.84379
1.85904
1.8745
1.89006
1.90559
1.92102
1.93617
1.95026
1.96228
1.96986
1.97045
1.96016
1.9343
1.885
1.80282
1.6787
1.50395
1.27182
0.987613
0.669702
0.352194
0.039848
-0.253662
-0.525831
-0.755657
-0.921713
-1.00984
-1.01129
-0.916215
-0.823397
1.91838
1.93454
1.9509
1.96733
1.98367
1.99986
2.0157
2.03038
2.04269
2.05027
2.05021
2.03853
2.01003
1.95616
1.8672
1.73364
1.54593
1.29725
0.996333
0.664184
0.337855
0.0176808
-0.281367
-0.556052
-0.782916
-0.94342
-1.02571
-1.02206
-0.921082
-0.828759
1.9956
2.01269
2.02997
2.04727
2.06443
2.08137
2.09789
2.113
2.12559
2.13296
2.13208
2.11868
2.08706
2.02809
1.93176
1.788
1.58646
1.3203
1.0023
0.656621
0.322491
-0.00540969
-0.3101
-0.586959
-0.809712
-0.964244
-1.04031
-1.03199
-0.92496
-0.833674
2.07544
2.09349
2.11171
2.12991
2.14787
2.16552
2.18259
2.19814
2.21083
2.21791
2.21594
2.20027
2.1649
2.10036
1.99598
1.84125
1.62489
1.34038
1.00566
0.64748
0.306505
-0.0291803
-0.339685
-0.617975
-0.835563
-0.983993
-1.05351
-1.04114
-0.928
-0.837952
2.15795
2.17698
2.19614
2.21522
2.23395
2.25224
2.26984
2.28565
2.29838
2.305
2.30167
2.28312
2.24335
2.17271
2.05955
1.89307
1.66109
1.35749
1.00628
0.636924
0.29002
-0.0539848
-0.370399
-0.648448
-0.86005
-1.0025
-1.0651
-1.04951
-0.930119
-0.841441
2.2431
2.26312
2.28322
2.30318
2.32266
2.34155
2.35956
2.37559
2.38818
2.3941
2.38899
2.367
2.32221
2.24464
2.12194
1.94284
1.69436
1.37111
1.00448
0.625545
0.272642
-0.0799928
-0.401775
-0.677796
-0.883009
-1.01957
-1.07497
-1.05711
-0.931307
-0.844058
2.33094
2.35195
2.37299
2.39381
2.41398
2.4334
2.45176
2.46785
2.48015
2.48502
2.4775
2.45154
2.40118
2.31578
2.18267
1.99017
1.72455
1.38131
1.00039
0.613894
0.253158
-0.107234
-0.43296
-0.705678
-0.904746
-1.03504
-1.08296
-1.06383
-0.931519
-0.845772
2.42142
2.44342
2.46538
2.48704
2.50788
2.52774
2.54631
2.56237
2.57417
2.57749
2.56666
2.53609
2.47951
2.38543
2.24106
2.03435
1.75097
1.38763
0.994721
0.602153
0.2315
-0.134756
-0.462656
-0.731656
-0.92548
-1.04886
-1.0893
-1.06941
-0.930787
-0.84653
2.51451
2.53748
2.56035
2.58281
2.60423
2.62444
2.64314
2.65896
2.67
2.67116
2.65616
2.62015
2.55656
2.45292
2.29649
2.07492
1.77345
1.39024
0.988171
0.588205
0.207464
-0.16306
-0.491133
-0.755804
-0.945488
-1.06129
-1.0942
-1.07367
-0.929108
-0.846297
2.61012
2.63404
2.65779
2.681
2.70292
2.72335
2.74198
2.75742
2.76718
2.7653
2.74543
2.70317
2.63153
2.51745
2.34815
2.1111
1.79127
1.38892
0.981927
0.570618
0.180887
-0.193029
-0.518997
-0.778355
-0.964725
-1.07251
-1.09769
-1.07646
-0.926613
-0.845029
2.70816
2.73298
2.75756
2.78144
2.80374
2.82425
2.84267
2.85732
2.86507
2.85903
2.83367
2.7845
2.70374
2.57824
2.39532
2.14242
1.80425
1.3843
0.975639
0.549244
0.152227
-0.224505
-0.546314
-0.799245
-0.983077
-1.08252
-1.09959
-1.07767
-0.923426
-0.842871
2.80845
2.83413
2.85946
2.88391
2.90648
2.92689
2.94479
2.95805
2.96304
2.95216
2.92067
2.86346
2.77229
2.63435
2.43711
2.16809
1.81173
1.37683
0.966793
0.523896
0.122311
-0.256448
-0.572466
-0.81822
-1.00025
-1.09116
-1.09993
-1.0773
-0.919804
-0.840149
2.91079
2.93724
2.96324
2.98816
3.01083
3.03096
3.04783
3.05888
3.06019
3.0442
3.0062
2.93943
2.83629
2.68488
2.47277
2.18765
1.81369
1.36741
0.952802
0.495543
0.0908008
-0.288602
-0.597351
-0.83519
-1.01606
-1.09831
-1.09882
-1.07576
-0.916006
-0.837216
3.01497
3.0421
3.06864
3.09391
3.11656
3.13595
3.1511
3.15946
3.15646
3.13487
3.08918
3.01126
2.89449
2.72871
2.50135
2.20032
1.8101
1.3567
0.932958
0.466962
0.056976
-0.320998
-0.620903
-0.850156
-1.03024
-1.10378
-1.09658
-1.07342
-0.912273
-0.834161
3.12071