/*--------------------------------*- C++ -*----------------------------------*\
  =========                 |
  \\      /  F ield         | OpenFOAM: The Open Source CFD Toolbox
   \\    /   O peration     | Website:  https://openfoam.org
    \\  /    A nd           | Version:  6.0
     \\/     M anipulation  |
\*---------------------------------------------------------------------------*/
FoamFile
{
    version     2.0;
    format      ascii;
    class       volVectorField;
    location    "5";
    object      U;
}
// * * * * * * * * * * * * * * * * * * * * * * * * * * * * * * * * * * * * * //

dimensions      [0 1 -1 0 0 0 0];

internalField   nonuniform List<vector> 
15500
(
(0.9962 0.0866419 -2.35988e-20)
(0.996206 0.0866914 2.82257e-21)
(0.996209 0.0867628 5.54368e-20)
(0.99621 0.0868201 1.43266e-19)
(0.99621 0.0868751 -2.68531e-19)
(0.996208 0.0869221 -4.96445e-20)
(0.996206 0.0869676 3.7636e-19)
(0.996203 0.0870063 2.70319e-20)
(0.996199 0.087045 1.08239e-20)
(0.996195 0.0870781 -2.93249e-19)
(0.996192 0.0871095 7.81696e-19)
(0.996186 0.0871328 -5.7449e-19)
(0.996182 0.0871565 -4.3574e-20)
(0.996178 0.0871807 -5.41626e-19)
(0.996174 0.0872111 3.38253e-19)
(0.996164 0.0872452 -5.21743e-19)
(0.996143 0.0872871 1.24203e-18)
(0.996108 0.0873339 -1.64811e-18)
(0.996042 0.0873926 6.92872e-19)
(0.995933 0.0874604 -2.36894e-18)
(0.995761 0.0875098 2.82235e-18)
(0.995505 0.0874855 7.72449e-19)
(0.995135 0.087297 -5.15718e-19)
(0.994637 0.086808 -7.05971e-18)
(0.994029 0.0858494 1.32361e-17)
(0.993397 0.084287 6.47423e-18)
(0.992945 0.0820738 -5.67686e-18)
(0.992976 0.0793137 -6.3396e-18)
(0.994042 0.0763074 -8.26614e-18)
(0.983018 0.067317 8.64883e-18)
(0.996249 0.0876252 -2.76743e-20)
(0.996284 0.0876262 9.11659e-20)
(0.996313 0.0876896 -2.70058e-20)
(0.996336 0.0877433 9.58605e-20)
(0.996354 0.087798 -3.18338e-19)
(0.996365 0.0878478 -2.3902e-19)
(0.99637 0.0879013 6.74253e-20)
(0.996369 0.0879517 -3.41037e-19)
(0.996363 0.088011 6.2101e-19)
(0.99635 0.0880692 -2.1296e-19)
(0.996333 0.0881393 1.92973e-19)
(0.996307 0.0882088 3.67797e-19)
(0.99628 0.0883074 -1.67312e-19)
(0.996249 0.0884308 9.44171e-20)
(0.996215 0.0885805 -1.23774e-19)
(0.996163 0.0887472 -3.64779e-19)
(0.996085 0.0889234 8.98341e-19)
(0.995961 0.0890958 -1.20435e-19)
(0.995759 0.0892532 1.68762e-18)
(0.995454 0.0893544 3.23338e-18)
(0.995011 0.0893044 -2.67044e-18)
(0.994402 0.0889481 1.57295e-18)
(0.993589 0.0880756 -2.72408e-18)
(0.992578 0.0864389 -8.32023e-19)
(0.991444 0.0838057 -9.26463e-18)
(0.990393 0.0800854 -4.60393e-19)
(0.989826 0.0753572 6.65236e-19)
(0.990236 0.0699078 2.25822e-18)
(0.992629 0.0648729 2.00403e-17)
(0.978651 0.051439 3.39266e-19)
(0.996154 0.0897728 7.39938e-20)
(0.996206 0.0896762 -7.10374e-20)
(0.996257 0.0896537 -4.30922e-20)
(0.996303 0.0896389 -1.30818e-19)
(0.996345 0.089628 2.61131e-19)
(0.99638 0.0896197 -3.69868e-19)
(0.996408 0.0896202 2.28202e-19)
(0.996427 0.0896206 1.72577e-19)
(0.996438 0.0896351 -1.00192e-19)
(0.99644 0.0896495 -3.30353e-19)
(0.996433 0.0896829 1.26114e-19)
(0.996415 0.0897165 4.58955e-19)
(0.996387 0.089797 -2.31651e-19)
(0.996344 0.0899094 2.49278e-19)
(0.996295 0.0900475 -5.39364e-19)
(0.996226 0.0901934 7.90866e-19)
(0.996131 0.0903314 -1.30449e-18)
(0.995986 0.0904385 1.0436e-18)
(0.995762 0.0904938 -2.02017e-18)
(0.995432 0.0904445 1.43997e-18)
(0.994972 0.0901753 1.50336e-18)
(0.994366 0.0895063 -1.95245e-18)
(0.993594 0.0882129 4.57728e-18)
(0.992677 0.0860568 -3.77438e-19)
(0.991701 0.0828499 -5.74609e-18)
(0.990868 0.0785858 -8.47605e-18)
(0.990573 0.0734311 -1.31915e-17)
(0.991254 0.067741 4.70577e-18)
(0.993951 0.0634046 -1.33171e-17)
(0.984717 0.0547406 -1.07931e-17)
(0.995859 0.0918207 -2.61683e-20)
(0.99592 0.0916648 1.1146e-19)
(0.995986 0.0915701 -5.01568e-20)
(0.996051 0.0914923 -3.84473e-20)
(0.996117 0.0914201 -9.39331e-20)
(0.996179 0.0913542 -3.04921e-19)
(0.996236 0.0912999 2.3343e-19)
(0.996286 0.0912478 2.03906e-19)
(0.996329 0.0912106 -1.02178e-19)
(0.996362 0.0911717 1.54574e-19)
(0.996386 0.0911511 -7.43962e-20)
(0.996399 0.0911253 5.23682e-20)
(0.996393 0.0911477 -5.04657e-20)
(0.996356 0.0911952 1.13188e-21)
(0.996305 0.0912543 -7.02395e-19)
(0.996238 0.0913057 1.45928e-18)
(0.996151 0.091327 -1.31234e-18)
(0.996025 0.0912925 4.51715e-19)
(0.995837 0.0911797 2.00246e-18)
(0.995567 0.090936 -1.94816e-18)
(0.995205 0.0904508 -8.0628e-19)
(0.994744 0.0895544 2.32103e-18)
(0.994178 0.0880439 -1.88831e-18)
(0.99353 0.0857147 -1.17833e-18)
(0.992871 0.0824274 1.64381e-17)
(0.99236 0.0782206 6.29467e-18)
(0.992341 0.0732999 7.60331e-18)
(0.993175 0.0680152 -3.80734e-18)
(0.995696 0.0648102 4.62752e-18)
(0.990992 0.0601291 4.09121e-18)
(0.995433 0.0934436 -1.83656e-20)
(0.995497 0.0932648 -6.98081e-20)
(0.995573 0.0931264 6.44804e-20)
(0.995655 0.0930101 2.9808e-19)
(0.995741 0.092895 -3.23483e-19)
(0.995829 0.0927872 -4.00744e-20)
(0.995916 0.0926914 1.8736e-19)
(0.995998 0.0925987 -4.51532e-19)
(0.996076 0.0925213 -3.28203e-19)
(0.996146 0.0924405 9.28798e-19)
(0.996208 0.0923756 -5.2031e-19)
(0.996259 0.0922992 6.81465e-19)
(0.996282 0.0922657 -3.86557e-19)
(0.996257 0.0922438 4.58711e-19)
(0.996208 0.0922148 -8.96165e-20)
(0.996145 0.0921602 -8.85872e-20)
(0.996066 0.0920552 2.73905e-19)
(0.995961 0.0918718 -6.7311e-19)
(0.995811 0.0915875 -1.84972e-18)
(0.995605 0.0911554 6.89671e-19)
(0.995341 0.0904743 -1.14415e-18)
(0.995019 0.0893928 -1.17879e-18)
(0.994646 0.0877342 -2.76274e-19)
(0.994243 0.0853282 1.13597e-17)
(0.993868 0.0820726 -5.22938e-18)
(0.993639 0.0780312 -1.15979e-17)
(0.993848 0.0734235 -5.92388e-18)
(0.994809 0.068561 2.84169e-18)
(0.997016 0.0662138 -1.3903e-17)
(0.995251 0.0637242 -7.75217e-19)
(0.994994 0.0946137 3.75712e-20)
(0.99505 0.0944415 4.39793e-21)
(0.995126 0.0942947 -9.73568e-20)
(0.995213 0.0941637 -3.58901e-20)
(0.995312 0.0940304 -1.14135e-20)
(0.995417 0.0939013 6.04577e-19)
(0.995526 0.0937822 -3.08767e-19)
(0.995635 0.0936659 -1.78788e-20)
(0.995742 0.093563 -1.23415e-20)
(0.995843 0.0934548 -5.22355e-20)
(0.995938 0.0933582 -2.82954e-19)
(0.996023 0.0932436 2.26684e-19)
(0.996074 0.0931627 1.05625e-18)
(0.996058 0.0930778 8.16727e-20)
(0.996005 0.0929659 -2.00907e-19)
(0.995941 0.0928117 -7.23773e-19)
(0.995865 0.0925853 8.22061e-19)
(0.995772 0.0922608 -4.43e-19)
(0.995648 0.0918175 1.00173e-18)
(0.995489 0.0912118 -1.52358e-19)
(0.995295 0.0903544 1.94723e-18)
(0.99508 0.0891129 -5.31773e-19)
(0.994853 0.0873354 -2.04532e-18)
(0.99464 0.0848835 -1.06502e-17)
(0.994488 0.0816817 -4.63551e-18)
(0.994487 0.0778085 9.03234e-18)
(0.994884 0.073481 1.86053e-18)
(0.995978 0.0689667 7.0658e-18)
(0.997878 0.0672096 1.58291e-17)
(0.997874 0.0660909 1.80602e-18)
(0.994599 0.0954798 -2.65316e-21)
(0.994638 0.0953138 -5.56537e-20)
(0.994704 0.0951663 -1.83819e-20)
(0.994786 0.0950346 5.17882e-20)
(0.994885 0.0948954 -1.00647e-19)
(0.994997 0.0947571 -9.84271e-20)
(0.995117 0.0946258 1.75366e-19)
(0.995241 0.0944946 3.72468e-19)
(0.995367 0.0943747 -3.52071e-19)
(0.99549 0.0942468 4.20146e-19)
(0.995608 0.0941267 -8.48852e-19)
(0.995718 0.0939833 2.2015e-19)
(0.995787 0.0938638 -3.88378e-19)
(0.995772 0.0937238 6.97429e-19)
(0.995709 0.0935392 -2.10227e-19)
(0.995636 0.0932948 -1.26222e-19)
(0.995557 0.0929617 4.49024e-19)
(0.995465 0.0925131 -8.92519e-19)
(0.995355 0.0919282 7.62082e-19)
(0.995223 0.0911709 2.0796e-19)
(0.995077 0.090161 -1.66581e-18)
(0.994934 0.0887837 -7.99742e-19)
(0.99481 0.0869098 1.70656e-18)
(0.994734 0.0844261 3.05697e-18)
(0.994748 0.0812775 2.63071e-18)
(0.994924 0.0775488 -1.57786e-18)
(0.995476 0.0734491 4.38314e-18)
(0.996707 0.0692025 -4.82176e-18)
(0.998362 0.067849 -5.12641e-18)
(0.999393 0.0677323 -6.44506e-19)
(0.994241 0.0961011 -1.36574e-20)
(0.99426 0.0959565 4.83913e-20)
(0.994311 0.0958193 6.11114e-20)
(0.994382 0.0956906 -5.779e-20)
(0.994474 0.0955516 -1.53246e-19)
(0.994584 0.0954094 8.4653e-22)
(0.994706 0.0952711 4.24853e-19)
(0.994836 0.0951312 -6.13898e-19)
(0.994971 0.0950001 3.80495e-19)
(0.995105 0.0948588 5.63005e-19)
(0.995236 0.0947211 -8.35377e-19)
(0.995358 0.0945549 -1.26772e-19)
(0.995437 0.0944032 -1.32439e-19)
(0.995414 0.0942163 1.73629e-19)
(0.995334 0.0939691 -7.53168e-19)
(0.995246 0.0936493 7.83472e-19)
(0.995154 0.0932253 1.79934e-19)
(0.995055 0.0926717 -6.39264e-19)
(0.994946 0.0919704 1.11451e-19)
(0.994825 0.0910867 2.0564e-19)
(0.994706 0.0899511 1.121e-18)
(0.994605 0.0884623 -1.23537e-18)
(0.994546 0.0865112 1.39743e-18)
(0.994559 0.0840024 4.21609e-18)
(0.994689 0.0808973 -1.19995e-18)
(0.994997 0.0772775 -7.53422e-18)
(0.995676 0.0733465 -3.09102e-18)
(0.997052 0.069289 1.56199e-18)
(0.998541 0.0682072 2.77718e-18)
(1.00023 0.0688983 -2.79903e-18)
(0.99391 0.0965695 2.65642e-20)
(0.993907 0.0964274 -1.65225e-20)
(0.993939 0.0962971 7.09017e-20)
(0.993994 0.096179 1.18881e-20)
(0.994074 0.0960471 1.30301e-19)
(0.994174 0.0959089 -3.37598e-19)
(0.994292 0.0957708 2.61062e-19)
(0.99442 0.0956269 8.44904e-20)
(0.994556 0.095488 -3.39099e-19)
(0.994692 0.0953354 4.03938e-20)
(0.994827 0.0951822 6.92204e-19)
(0.994953 0.0949967 -6.25899e-19)
(0.995033 0.0948178 4.50116e-19)
(0.994997 0.0945907 -2.61969e-19)
(0.994894 0.0942913 -7.32113e-20)
(0.994785 0.0939085 4.14604e-19)
(0.994674 0.0934122 6.73319e-19)
(0.99456 0.0927744 7.8214e-19)
(0.994441 0.0919775 -5.01169e-19)
(0.994319 0.090993 -1.1497e-18)
(0.994206 0.0897563 -1.35107e-18)
(0.994123 0.0881792 -1.14767e-18)
(0.994098 0.0861661 -8.45627e-19)
(0.994164 0.0836359 1.68674e-18)
(0.994369 0.0805598 8.30856e-19)
(0.994774 0.0770151 1.43396e-18)
(0.995559 0.0731988 1.63462e-18)
(0.997083 0.0692671 -1.20745e-18)
(0.998484 0.068367 1.42491e-18)
(1.00062 0.0697574 -3.5762e-19)
(0.993588 0.0969337 -4.62751e-20)
(0.993562 0.0968107 9.78911e-20)
(0.993575 0.0966898 -3.64976e-20)
(0.993611 0.0965752 -1.26056e-20)
(0.993675 0.0964452 9.72478e-20)
(0.993763 0.0963059 -2.52759e-19)
(0.993871 0.0961648 2.64131e-19)
(0.993992 0.0960165 2.22037e-19)
(0.994122 0.0958711 -3.26959e-19)
(0.994254 0.0957097 1.31169e-19)
(0.994385 0.0955441 4.59814e-19)
(0.994508 0.0953424 -7.88753e-19)
(0.994583 0.0951398 -1.69025e-19)
(0.994529 0.094879 1.79661e-19)
(0.994399 0.0945368 9.95832e-20)
(0.994265 0.0941051 6.26929e-20)
(0.994131 0.0935491 -4.2749e-19)
(0.993996 0.0928446 -8.11519e-19)
(0.993859 0.0919757 6.84192e-19)
(0.993725 0.0909126 1.19289e-19)
(0.993603 0.0895979 2.53915e-18)
(0.99352 0.0879525 -4.23767e-19)
(0.993504 0.0858904 -6.81404e-19)
(0.993594 0.0833416 -4.35661e-18)
(0.993843 0.0802808 -5.22466e-19)
(0.994317 0.0767813 4.39185e-19)
(0.995191 0.0730319 -8.46518e-19)
(0.996872 0.0691738 1.02061e-18)
(0.99825 0.0683932 -2.90498e-18)
(1.00077 0.0704138 4.52147e-18)
(0.993275 0.0972237 -3.15009e-20)
(0.993226 0.0970927 2.09275e-20)
(0.993216 0.0969765 1.44581e-19)
(0.993231 0.0968721 -1.96177e-19)
(0.993276 0.0967512 2.51362e-19)
(0.993346 0.0966189 -4.8331e-20)
(0.993439 0.0964816 -1.20793e-19)
(0.993548 0.0963328 -3.72677e-19)
(0.993667 0.0961829 2.05277e-19)
(0.99379 0.0960135 1.61685e-19)
(0.993913 0.0958363 -3.40675e-21)
(0.994026 0.0956206 1.04662e-19)
(0.994091 0.095398 -6.58664e-19)
(0.994017 0.0951086 3.51861e-19)
(0.99386 0.0947325 1.61104e-19)
(0.993699 0.0942597 -3.76252e-20)
(0.993539 0.0936592 7.05334e-19)
(0.993379 0.0929044 -4.68359e-20)
(0.993219 0.0919782 -7.83457e-19)
(0.993062 0.0908562 -4.971e-19)
(0.992922 0.0894826 -4.05622e-19)
(0.992824 0.087785 5.01031e-19)
(0.992798 0.0856845 -7.91222e-20)
(0.992891 0.0831174 -7.78546e-19)
(0.99316 0.0800595 -2.94565e-18)
(0.993683 0.0765793 -4.45442e-19)
(0.994637 0.0728596 2.58108e-18)
(0.996474 0.0690346 3.02893e-19)
(0.997886 0.068334 -4.77733e-18)
(1.00075 0.0709389 9.30599e-18)
(0.992962 0.0974856 1.91424e-20)
(0.992888 0.0973701 -4.87489e-20)
(0.992857 0.0972578 -2.41287e-20)
(0.992849 0.097151 2.14625e-19)
(0.992872 0.0970272 -7.45325e-20)
(0.992923 0.0968909 -3.0973e-19)
(0.992997 0.0967493 2.18392e-19)
(0.993089 0.0965968 -4.65224e-19)
(0.993194 0.0964424 1.00675e-19)
(0.993302 0.0962672 1.14763e-19)
(0.99341 0.0960814 1.52252e-19)
(0.99351 0.0958539 -5.55826e-19)
(0.993563 0.095614 1.0925e-18)
(0.993468 0.0953015 -3.0284e-19)
(0.993282 0.0948973 -1.20692e-18)
(0.993095 0.0943937 8.19042e-19)
(0.992907 0.0937571 -1.82769e-19)
(0.992719 0.0929636 -6.05166e-19)
(0.992532 0.0919976 -4.24382e-19)
(0.992347 0.0908315 2.53753e-19)
(0.992181 0.0894147 -1.7725e-19)
(0.992056 0.0876775 -6.31743e-20)
(0.992009 0.0855472 2.40172e-18)
(0.992087 0.0829608 2.04012e-18)
(0.992359 0.079896 2.90835e-19)
(0.992916 0.0764118 -6.48977e-19)
(0.993943 0.0726916 -6.69308e-19)
(0.995941 0.0688648 -1.27137e-19)
(0.997432 0.068218 5.60337e-19)
(1.00065 0.0713701 -5.86482e-18)
(0.992642 0.0977058 -1.71766e-20)
(0.992545 0.0975729 -1.14571e-20)
(0.99249 0.0974624 2.71679e-20)
(0.992458 0.0973656 -6.58017e-20)
(0.992458 0.0972513 3.43361e-20)
(0.992487 0.0971231 1.23668e-19)
(0.99254 0.0969867 8.90072e-20)
(0.992611 0.0968352 -1.47892e-19)
(0.992697 0.0966779 3.242e-19)
(0.992787 0.0964963 -4.48906e-19)
(0.992878 0.0963007 4.01315e-19)
(0.992961 0.0960617 -5.91069e-19)
(0.993001 0.0958065 4.30515e-19)
(0.992885 0.0954738 -6.56984e-19)
(0.992674 0.0950471 8.41068e-19)
(0.99246 0.0945178 3.00709e-19)
(0.992244 0.0938562 -1.29989e-18)
(0.992028 0.0930343 1.26759e-18)
(0.99181 0.0920363 -3.64121e-19)
(0.991594 0.090839 -1.16571e-18)
(0.991395 0.0893897 1.49378e-19)
(0.991236 0.087623 5.21391e-19)
(0.991156 0.0854675 -9.52162e-19)
(0.991208 0.0828606 -1.31986e-18)
(0.991472 0.079778 1.96998e-18)
(0.992052 0.0762714 1.10288e-18)
(0.993148 0.0725255 1.50548e-19)
(0.995308 0.0686725 -2.09148e-18)
(0.996917 0.0680622 3.95502e-19)
(1.00049 0.0717408 -7.09817e-18)
(0.992307 0.097943 -1.12564e-20)
(0.992185 0.0978257 1.12578e-20)
(0.992106 0.0977155 -3.14791e-21)
(0.992051 0.0976124 1.79676e-20)
(0.992026 0.0974907 -1.17975e-19)
(0.992031 0.0973547 7.66932e-20)
(0.992061 0.0972114 -1.9963e-19)
(0.99211 0.0970547 3.72211e-19)
(0.992175 0.0968927 -3.11034e-19)
(0.992245 0.0967057 8.16636e-20)
(0.992317 0.0965029 4.03904e-19)
(0.992382 0.0962544 3.59669e-20)
(0.992407 0.0959856 -4.54431e-20)
(0.992273 0.0956369 -4.50971e-19)
(0.992037 0.0951921 1.61747e-19)
(0.991798 0.0946455 -4.70863e-19)
(0.991556 0.0939619 9.48551e-19)
(0.991311 0.0931183 4.02588e-19)
(0.991061 0.0921004 -2.10261e-19)
(0.990812 0.0908797 8.79626e-19)
(0.990574 0.0894067 1.23835e-18)
(0.990377 0.0876175 -1.31003e-18)
(0.990256 0.0854393 -2.398e-18)
(0.990274 0.0828099 3.67248e-19)
(0.990519 0.0796992 -4.95756e-19)
(0.991116 0.0761543 -2.83626e-19)
(0.992277 0.07236 -9.98873e-19)
(0.994607 0.06846 1.11063e-18)
(0.996365 0.0678738 -8.8477e-19)
(1.00031 0.0720595 -8.20937e-18)
(0.991966 0.0981449 1.31842e-20)
(0.991817 0.098004 2.77111e-20)
(0.991712 0.0978941 -1.33604e-21)
(0.99163 0.0977998 2.68323e-20)
(0.991579 0.0976875 -1.86095e-19)
(0.991558 0.0975592 1.45138e-19)
(0.991563 0.0974211 2.48494e-19)
(0.991588 0.0972655 -2.8776e-19)
(0.99163 0.0971008 -4.44382e-20)
(0.991678 0.0969084 -1.40976e-19)
(0.991728 0.0966979 5.49347e-19)
(0.991774 0.0964412 -1.96287e-19)
(0.991784 0.0961613 -2.33121e-19)
(0.991634 0.0957991 -8.60599e-20)
(0.991377 0.0953414 3.86231e-19)
(0.991115 0.0947785 1.34301e-19)
(0.990848 0.0940809 -2.62772e-19)
(0.990574 0.0932226 -2.39018e-20)
(0.990293 0.0921866 -3.15722e-19)
(0.990007 0.0909498 -5.19845e-19)
(0.989729 0.089459 -9.82107e-19)
(0.989488 0.0876507 1.41366e-18)
(0.989322 0.0854513 1.08419e-18)
(0.989299 0.0827951 8.19981e-20)
(0.989519 0.0796467 4.46479e-19)
(0.990129 0.0760486 5.81212e-20)
(0.991356 0.0721884 6.35405e-19)
(0.993858 0.0682249 1.91507e-18)
(0.995794 0.0676566 1.86604e-17)
(1.00011 0.072345 1.367e-17)
(0.991617 0.0983882 -4.76422e-21)
(0.991441 0.0982622 1.41183e-20)
(0.991309 0.0981484 2.19416e-22)
(0.9912 0.0980423 -1.45497e-19)
(0.991122 0.0979175 -3.76184e-22)
(0.991073 0.0977775 1.58168e-19)
(0.991051 0.0976297 -1.95882e-19)
(0.991049 0.0974681 2.94038e-19)
(0.991065 0.0972997 1.2027e-19)
(0.991088 0.097104 3.63397e-21)
(0.991115 0.0968896 -4.57428e-19)
(0.991141 0.0966269 2.33855e-19)
(0.991136 0.096338 6.03733e-19)
(0.990971 0.0959663 -4.70804e-19)
(0.990695 0.0954977 3.17788e-19)
(0.990413 0.0949245 -3.18634e-19)
(0.990123 0.094214 2.1649e-19)
(0.98982 0.0933436 -1.93139e-19)
(0.989507 0.0922986 7.65635e-19)
(0.989183 0.0910489 2.86384e-19)
(0.988864 0.0895444 1.02905e-18)
(0.988575 0.0877189 -6.83083e-19)
(0.98836 0.0854982 -1.27122e-18)
(0.988292 0.0828099 3.614e-19)
(0.988483 0.0796153 -5.5429e-19)
(0.989101 0.0759489 -9.52869e-19)
(0.990397 0.0720071 1.89561e-18)
(0.993078 0.0679641 -9.1751e-18)
(0.995218 0.0674109 -3.906e-18)
(0.999915 0.0725898 5.9995e-18)
(0.99126 0.09859 9.67117e-21)
(0.991056 0.0984335 5.68772e-21)
(0.990898 0.0983195 -7.1947e-20)
(0.99076 0.0982242 1.95056e-20)
(0.990652 0.0981103 1.51429e-20)
(0.990575 0.0979797 6.73852e-21)
(0.990523 0.0978382 -3.50801e-20)
(0.990493 0.0976787 3.17146e-19)
(0.990481 0.0975088 -4.68568e-19)
(0.990478 0.0973089 3.86772e-19)
(0.99048 0.0970879 -3.72078e-20)
(0.990483 0.0968188 -2.3876e-19)
(0.990464 0.096522 2.80828e-19)
(0.990287 0.0961417 -4.47106e-19)
(0.989995 0.0956649 1.4261e-19)
(0.989695 0.0950819 -2.87698e-19)
(0.989381 0.0943651 6.41637e-19)
(0.989053 0.0934866 5.31832e-19)
(0.988707 0.0924306 6.957e-19)
(0.988346 0.0911722 -3.26073e-19)
(0.987984 0.0896552 -1.03259e-18)
(0.987645 0.0878138 -2.15224e-19)
(0.987378 0.0855693 5.3995e-19)
(0.987259 0.0828438 5.61045e-19)
(0.98742 0.0795927 9.30697e-22)
(0.988046 0.075845 2.69614e-18)
(0.989413 0.0718072 -1.16477e-18)
(0.99228 0.0676736 1.12244e-17)
(0.994646 0.0671341 -1.54449e-17)
(0.999731 0.0728145 -8.04242e-18)
(0.990887 0.0988558 3.70461e-21)
(0.990654 0.0987175 -3.98496e-20)
(0.990468 0.0985981 -2.53446e-20)
(0.990301 0.0984888 7.03279e-20)
(0.990164 0.0983593 -1.28269e-19)
(0.990057 0.0982138 8.34244e-20)
(0.989976 0.0980604 -1.59828e-19)
(0.989917 0.0978931 -7.00981e-20)
(0.989876 0.0977183 3.91134e-20)
(0.989845 0.0975147 1.38151e-19)
(0.989822 0.0972903 -3.05998e-21)
(0.989804 0.0970165 1.44817e-19)
(0.989771 0.0967129 1.04405e-19)
(0.989584 0.096327 5.04109e-19)
(0.989278 0.095844 -9.99795e-20)
(0.988961 0.0952569 1.74539e-19)
(0.988626 0.0945313 -9.40891e-19)
(0.988272 0.0936457 -3.13969e-19)
(0.987894 0.092586 -8.66589e-19)
(0.987497 0.091319 3.36354e-19)
(0.987088 0.0897906 7.86847e-19)
(0.986699 0.0879331 8.84554e-20)
(0.986376 0.0856613 1.96373e-19)
(0.986206 0.0828933 -5.37152e-20)
(0.986332 0.0795749 -3.46753e-19)
(0.986967 0.0757338 -1.74564e-18)
(0.98841 0.0715845 3.71492e-18)
(0.991474 0.0673501 2.20559e-18)
(0.994088 0.0668238 -4.08854e-18)
(0.999566 0.0730058 -1.94877e-18)
(0.990507 0.099072 3.73699e-21)
(0.990244 0.0988985 -4.73692e-20)
(0.990028 0.0987787 8.32123e-20)
(0.98983 0.0986802 -1.22428e-19)
(0.989662 0.098562 1.60305e-19)
(0.989524 0.0984258 1.37666e-19)
(0.989412 0.0982785 -1.58036e-19)
(0.989323 0.0981131 7.72985e-20)
(0.989253 0.0979364 -3.19866e-19)
(0.989193 0.0977289 8.94781e-20)
(0.989144 0.0974997 -6.52107e-20)
(0.989104 0.0972222 -4.67781e-19)
(0.989058 0.0969134 1.06812e-19)
(0.988863 0.096523 5.70122e-19)
(0.988543 0.0960371 -1.48763e-19)
(0.988212 0.0954437 9.15188e-20)
(0.987859 0.0947151 -3.36971e-19)
(0.987479 0.0938252 5.72082e-19)
(0.987072 0.0927573 -2.24863e-19)
(0.986635 0.0914841 -1.08377e-18)
(0.98618 0.0899447 -9.72066e-20)
(0.985738 0.088069 1.13868e-19)
(0.985357 0.0857668 -9.29492e-20)
(0.985135 0.082949 -2.15129e-19)
(0.985225 0.0795533 6.60498e-19)
(0.985871 0.0756057 9.56974e-19)
(0.987395 0.0713324 -2.47108e-18)
(0.990665 0.066988 -7.78667e-18)
(0.993549 0.0664768 2.21046e-17)
(0.999429 0.0731766 2.63062e-18)
(0.990121 0.0993647 1.85443e-20)
(0.989827 0.0992093 -4.91238e-21)
(0.989581 0.09908 7.19744e-20)
(0.989351 0.0989622 -1.83809e-20)
(0.989152 0.0988239 -9.76062e-20)
(0.988983 0.0986693 7.80955e-20)
(0.988839 0.0985075 1.02596e-19)
(0.988717 0.0983339 -1.93498e-19)
(0.988616 0.0981532 3.95209e-19)
(0.988526 0.097944 1.54812e-19)
(0.988449 0.0977141 -2.65886e-19)
(0.988386 0.0974348 -4.08089e-20)
(0.988327 0.0971225 -5.69086e-20)
(0.988124 0.0967306 -1.15539e-19)
(0.987794 0.096242 4.57547e-19)
(0.98745 0.0956468 -7.55154e-20)
(0.987079 0.0949125 1.40221e-19)
(0.986675 0.0940181 -6.51572e-19)
(0.986237 0.0929488 9.82415e-19)
(0.985759 0.0916679 1.78607e-19)
(0.98526 0.0901172 -5.82861e-19)
(0.984762 0.0882208 -6.2582e-19)
(0.984323 0.0858849 3.25642e-19)
(0.984044 0.0830093 2.03224e-19)
(0.9841 0.0795268 -1.43743e-18)
(0.984757 0.075458 -1.69611e-18)
(0.986371 0.0710484 -3.89462e-18)
(0.98986 0.066584 2.16478e-18)
(0.993036 0.0660909 -2.5266e-17)
(0.999331 0.0733201 8.44226e-18)
(0.989729 0.0995925 -5.06275e-21)
(0.989405 0.0993942 -5.8663e-20)
(0.989128 0.0992644 2.45552e-20)
(0.988867 0.0991605 1.49901e-19)
(0.988635 0.0990361 -1.92098e-19)
(0.988432 0.0988934 9.04507e-21)
(0.988255 0.0987396 -3.37858e-22)
(0.9881 0.098569 4.00507e-20)
(0.987965 0.0983874 -3.46275e-20)
(0.987844 0.0981753 -4.61309e-20)
(0.987737 0.0979412 1.24761e-19)
(0.987651 0.097659 3.49865e-19)
(0.987579 0.0973433 -3.17407e-19)
(0.98737 0.0969495 3.8897e-20)
(0.987031 0.0964595 -2.58869e-19)
(0.986675 0.0958605 -1.0004e-19)
(0.986284 0.0951265 -1.04058e-20)
(0.985858 0.0942288 6.32809e-19)
(0.985388 0.0931521 -6.40987e-19)
(0.984873 0.0918654 1.46803e-18)
(0.984325 0.0903016 8.12798e-19)
(0.983772 0.0883831 -2.23164e-19)
(0.983272 0.0860084 -7.02839e-20)
(0.982935 0.0830679 -2.95252e-19)
(0.982955 0.0794871 1.51033e-18)
(0.983628 0.0752843 1.55732e-18)
(0.98534 0.0707253 2.10663e-18)
(0.989061 0.0661336 -2.12602e-18)
(0.992554 0.0656626 2.1177e-17)
(0.999244 0.0734421 -1.79299e-17)
(0.989319 0.0999144 -6.49215e-21)
(0.988963 0.09974 -5.35313e-20)
(0.988656 0.0996003 -7.58226e-22)
(0.988363 0.0994759 8.37085e-20)
(0.988099 0.0993289 -4.84619e-20)
(0.987864 0.099165 1.80322e-19)
(0.987653 0.0989946 -2.7512e-19)
(0.987464 0.0988137 9.0299e-20)
(0.987297 0.0986268 2.32981e-19)
(0.987144 0.0984115 -4.99028e-19)
(0.987009 0.098176 2.40581e-20)
(0.986899 0.0978918 -9.34112e-20)
(0.986814 0.0975729 1.77119e-19)
(0.9866 0.097179 -1.43189e-20)
(0.986252 0.096688 2.24231e-19)
(0.985883 0.0960905 -6.67956e-19)
(0.985477 0.0953511 1.01239e-19)
(0.985028 0.0944498 -3.50714e-19)
(0.984526 0.0933725 1.72459e-19)
(0.983974 0.0920777 -7.75598e-22)
(0.983376 0.0904996 -6.37345e-19)
(0.982766 0.0885568 -3.76699e-19)
(0.982202 0.0861375 1.98349e-19)
(0.981806 0.0831252 4.94527e-19)
(0.981791 0.0794338 -2.14778e-19)
(0.982483 0.0750838 -1.27008e-18)
(0.984302 0.0703608 -1.55142e-18)
(0.988272 0.065635 1.14062e-17)
(0.992108 0.065191 1.13732e-17)
(0.999193 0.0735335 1.29837e-17)
(0.9889 0.100163 1.09482e-20)
(0.988512 0.0999417 -7.17781e-21)
(0.988173 0.099802 -5.04584e-20)
(0.987846 0.0996924 6.50162e-20)
(0.987548 0.0995602 -1.12834e-19)
(0.987279 0.0994083 1.94246e-19)
(0.987034 0.0992455 -2.18328e-19)
(0.986812 0.099067 1.28825e-19)
(0.986612 0.0988778 -2.48489e-19)
(0.986427 0.0986589 5.11298e-19)
(0.986262 0.0984195 -2.44269e-19)
(0.986129 0.0981337 2.3351e-19)
(0.986031 0.0978125 -9.24689e-19)
(0.985813 0.0974184 4.99542e-19)
(0.985457 0.0969288 -7.10674e-21)
(0.985077 0.0963283 2.36468e-19)
(0.984655 0.0955895 -2.72773e-19)
(0.984182 0.0946858 2.84098e-19)
(0.983652 0.0936006 4.90461e-20)
(0.983059 0.0922994 -6.63448e-19)
(0.982411 0.0907063 7.91172e-19)
(0.981742 0.0887358 2.04215e-19)
(0.981112 0.0862677 -2.41219e-19)
(0.980657 0.0831748 -1.73783e-19)
(0.980605 0.0793611 -3.20157e-19)
(0.981322 0.0748497 3.29165e-18)
(0.983259 0.0699497 2.0226e-18)
(0.987496 0.0650829 -3.98247e-17)
(0.991701 0.0646726 3.01467e-18)
(0.999166 0.073611 -3.50347e-19)
(0.988472 0.100515 -5.4908e-21)
(0.988051 0.100319 1.68839e-20)
(0.98768 0.100165 -2.23469e-20)
(0.98732 0.100029 -2.18393e-21)
(0.986989 0.09987 2.46346e-20)
(0.986685 0.0996935 8.22569e-21)
(0.986406 0.0995117 2.701e-20)
(0.986149 0.0993224 -1.98221e-19)
(0.985915 0.0991286 4.14686e-19)
(0.985696 0.0989079 -1.30586e-19)
(0.985501 0.0986689 3.85121e-20)
(0.985343 0.0983827 -3.23906e-22)
(0.985232 0.0980595 -1.68412e-19)
(0.985009 0.0976673 -2.34038e-20)
(0.984645 0.0971781 7.78662e-19)
(0.984256 0.0965788 8.40628e-20)
(0.983818 0.0958356 4.63774e-19)
(0.983322 0.0949285 1.91534e-19)
(0.982761 0.0938432 -7.93569e-19)
(0.982125 0.0925324 4.36011e-19)
(0.981429 0.0909235 -3.20046e-19)
(0.980698 0.0889217 5.30331e-19)
(0.980001 0.0864004 7.7164e-21)
(0.979482 0.0832174 -7.12306e-19)
(0.979397 0.0792701 -2.34745e-18)
(0.980143 0.0745807 -2.44063e-18)
(0.982211 0.0694908 2.62955e-18)
(0.986735 0.0644752 2.42519e-18)
(0.991335 0.0641082 1.13086e-18)
(0.999187 0.073662 -1.60135e-17)
(0.988037 0.100774 -1.35938e-21)
(0.987583 0.100524 3.36218e-20)
(0.98718 0.100371 -1.16273e-19)
(0.986786 0.100255 2.53888e-20)
(0.98642 0.100114 -8.6218e-20)
(0.986082 0.0999527 1.68206e-19)
(0.985766 0.0997805 -4.63727e-20)
(0.985473 0.0995947 8.75668e-20)
(0.985203 0.0993991 -7.15736e-20)
(0.984949 0.0991749 -2.32356e-19)
(0.984722 0.0989313 3.61617e-19)
(0.984538 0.0986426 -3.63808e-19)
(0.984414 0.0983167 6.34336e-19)
(0.984188 0.0979248 -2.99036e-19)
(0.983817 0.0974362 -2.46434e-19)
(0.983418 0.0968346 -8.13726e-19)
(0.982962 0.0960935 -5.60938e-19)
(0.982445 0.0951835 3.55103e-19)
(0.981853 0.0940897 2.26486e-19)
(0.981176 0.0927721 -3.66929e-19)
(0.980427 0.0911451 -2.1895e-19)
(0.979632 0.0891104 -7.03183e-20)
(0.978866 0.0865302 4.19269e-20)
(0.978282 0.0832486 4.07039e-19)
(0.978163 0.0791543 3.49869e-18)
(0.978944 0.0742718 -6.39762e-19)
(0.981159 0.0689778 1.0727e-18)
(0.985991 0.0638077 5.22237e-17)
(0.991015 0.0634934 -3.12197e-17)
(0.999237 0.0737031 -2.59403e-17)
(0.987581 0.101156 1.0945e-20)
(0.987095 0.100939 1.20957e-20)
(0.986659 0.100773 -3.19745e-20)
(0.986232 0.10063 2.01396e-19)
(0.985831 0.100459 -3.08637e-19)
(0.985457 0.10027 1.89074e-19)
(0.985106 0.100077 1.07281e-19)
(0.984777 0.0998774 -3.12958e-19)
(0.98447 0.0996748 3.03959e-19)
(0.984183 0.0994462 -5.14314e-19)
(0.983924 0.0992007 6.31253e-19)
(0.983715 0.0989096 2.4165e-20)
(0.983578 0.0985802 -5.34136e-19)
(0.983348 0.0981892 1.21164e-19)
(0.98297 0.0977008 6.10662e-20)
(0.98256 0.0971023 1.12347e-19)
(0.982089 0.0963555 4.63734e-19)
(0.981549 0.0954421 -6.3471e-19)
(0.980923 0.0943481 8.06676e-19)
(0.980207 0.0930205 -2.79811e-20)
(0.979401 0.091374 3.86209e-19)
(0.978542 0.0893043 -5.20407e-19)
(0.977702 0.0866586 -1.46938e-21)
(0.977053 0.0832702 7.64058e-20)
(0.976901 0.0790141 -5.01154e-19)
(0.977725 0.0739228 -4.24298e-18)
(0.9801 0.0684087 1.48722e-18)
(0.985265 0.0630792 -2.68859e-17)
(0.990744 0.0628287 2.66855e-17)
(0.999343 0.0737225 1.67016e-17)
(0.987113 0.101433 3.79618e-21)
(0.986591 0.101162 -1.10675e-20)
(0.986122 0.100999 -1.05188e-19)
(0.985659 0.100877 1.42808e-19)
(0.985222 0.100726 -3.51675e-20)
(0.984812 0.100553 -1.04723e-20)
(0.984424 0.100368 -7.15034e-20)
(0.984059 0.10017 1.10633e-19)
(0.983717 0.0999634 -2.13435e-19)
(0.983395 0.0997289 -8.25885e-20)
(0.983104 0.0994777 1.70742e-19)
(0.98287 0.0991837 -3.12672e-19)
(0.98272 0.0988505 -1.7109e-19)
(0.982488 0.0984594 1.67426e-19)
(0.982102 0.0979726 -2.23846e-19)
(0.981681 0.0973715 -1.65291e-19)
(0.981196 0.0966261 8.08001e-19)
(0.980631 0.0957097 -2.59248e-19)
(0.979975 0.0946071 7.43937e-20)
(0.979214 0.0932718 -2.41151e-19)
(0.978353 0.0916059 -2.58372e-20)
(0.977426 0.0894977 3.86534e-19)
(0.976509 0.0867819 -1.95738e-20)
(0.975791 0.0832765 1.87885e-19)
(0.975608 0.0788445 -1.29914e-18)
(0.976484 0.0735273 3.3346e-18)
(0.979037 0.0677784 -5.46105e-18)
(0.984561 0.0622845 4.90487e-17)
(0.990525 0.0621095 -2.05286e-17)
(0.999491 0.0737358 4.87355e-17)
(0.986634 0.101844 5.84314e-21)
(0.986076 0.101609 -1.87973e-20)
(0.985572 0.101429 8.00168e-20)
(0.985073 0.101274 1.09398e-20)
(0.9846 0.101088 -1.7057e-19)
(0.984154 0.100883 4.12356e-20)
(0.98373 0.100674 3.73211e-20)
(0.983327 0.100462 5.19403e-20)
(0.982948 0.100248 2.65598e-20)
(0.98259 0.10001 -2.95682e-20)
(0.982266 0.0997574 -2.7921e-19)
(0.982004 0.0994613 9.64332e-21)
(0.981841 0.099124 3.96537e-19)
(0.981605 0.0987342 5.68987e-20)
(0.981211 0.0982485 3.37307e-19)
(0.98078 0.0976487 2.24528e-19)
(0.980275 0.0968972 -3.54817e-19)
(0.979687 0.0959769 5.84475e-20)
(0.979002 0.0948742 -8.36989e-19)
(0.978195 0.0935287 -5.00975e-19)
(0.977278 0.0918433 -4.1455e-19)
(0.976278 0.0896932 -4.34157e-19)
(0.975283 0.0869025 8.03355e-20)
(0.974493 0.0832687 -1.20749e-18)
(0.974281 0.0786466 3.82411e-18)
(0.975217 0.0730835 2.91609e-19)
(0.977969 0.0670855 6.21813e-19)
(0.983881 0.0614217 -3.37889e-17)
(0.990363 0.0613381 1.35502e-17)
(0.99971 0.0737272 -8.83659e-18)
(0.986149 0.102125 -1.28649e-20)
(0.985556 0.101824 -5.99796e-21)
(0.985017 0.101651 7.80613e-20)
(0.984481 0.101523 -2.86409e-20)
(0.98397 0.101363 -2.33929e-20)
(0.983485 0.101177 6.2322e-20)
(0.983021 0.100979 -3.93991e-20)
(0.982579 0.100771 1.3965e-19)
(0.982161 0.100552 -1.86976e-19)
(0.981765 0.100307 -1.82261e-19)
(0.981406 0.100047 -2.12933e-20)
(0.981117 0.0997461 2.48142e-19)
(0.980938 0.0994042 -1.52277e-19)
(0.980696 0.099015 3.98068e-19)
(0.980293 0.0985291 -5.21754e-19)
(0.979846 0.0979272 -2.4926e-19)
(0.979326 0.0971758 5.55812e-19)
(0.978723 0.0962478 -1.27747e-19)
(0.978004 0.0951368 2.8254e-19)
(0.977153 0.093786 3.04222e-19)
(0.976175 0.09208 1.76691e-19)
(0.975098 0.0898871 3.73229e-19)
(0.97402 0.087015 -1.12442e-19)
(0.973156 0.0832423 2.06176e-19)
(0.972917 0.0784138 -1.76894e-18)
(0.973923 0.0725863 9.07888e-19)
(0.976895 0.0663234 -1.08905e-17)
(0.983227 0.0604861 -2.54757e-17)
(0.990261 0.0605093 -2.22698e-17)
(0.999983 0.073713 -2.97836e-17)
(0.985642 0.102565 -4.38075e-20)
(0.985013 0.102311 4.56241e-20)
(0.984438 0.10212 -5.82075e-20)
(0.983865 0.101959 2.05299e-20)
(0.983316 0.10176 -1.12236e-20)
(0.982793 0.10154 -1.5519e-19)
(0.982289 0.101315 2.4954e-21)
(0.981808 0.101088 5.15941e-19)
(0.98135 0.100859 -1.60013e-19)
(0.980916 0.100607 1.78674e-19)
(0.980521 0.100342 -3.79506e-19)
(0.980202 0.100037 6.57162e-19)
(0.980006 0.0996897 1.94657e-19)
(0.979759 0.0993002 1.99067e-19)