/*--------------------------------*- C++ -*----------------------------------*\
  =========                 |
  \\      /  F ield         | OpenFOAM: The Open Source CFD Toolbox
   \\    /   O peration     | Website:  https://openfoam.org
    \\  /    A nd           | Version:  6.0
     \\/     M anipulation  |
\*---------------------------------------------------------------------------*/
FoamFile
{
    version     2.0;
    format      ascii;
    class       volScalarField;
    location    "250";
    object      nut;
}
// * * * * * * * * * * * * * * * * * * * * * * * * * * * * * * * * * * * * * //

dimensions      [0 2 -1 0 0 0 0];

internalField   nonuniform List<scalar> 
9800
(
0.14002
0.140006
0.140007
0.140007
0.140007
0.140007
0.140008
0.140008
0.140009
0.14001
0.140011
0.140011
0.140012
0.140013
0.140015
0.140017
0.140019
0.14002
0.14002
0.140018
0.140015
0.140012
0.140004
0.140005
0.140013
0.140016
0.140019
0.140021
0.140021
0.140021
0.140019
0.140017
0.140015
0.140014
0.140013
0.140012
0.140011
0.140011
0.14001
0.140009
0.140008
0.140007
0.140006
0.140005
0.140003
0.140002
0.14
0.139997
0.139994
0.139985
0.139975
0.139968
0.139971
0.139979
0.139987
0.139994
0.14
0.140005
0.14001
0.140016
0.140023
0.140031
0.140041
0.140053
0.140067
0.140085
0.140108
0.140136
0.140171
0.140218
0.140279
0.140361
0.140474
0.140648
0.140873
0.141406
0.141951
0.142888
0.143786
0.144122
0.144155
0.14415
0.144094
0.144024
0.143954
0.143894
0.143848
0.143819
0.143808
0.143814
0.143836
0.143868
0.143902
0.143932
0.143949
0.14395
0.143906
0.143867
0.144016
0.146115
0.140063
0.140053
0.140046
0.140043
0.140041
0.14004
0.140039
0.140037
0.140035
0.140034
0.140033
0.140032
0.14003
0.140028
0.140023
0.140013
0.139998
0.139994
0.139993
0.140002
0.140017
0.140016
0.139998
0.139999
0.140018
0.140021
0.140011
0.139999
0.139997
0.14
0.140014
0.140025
0.14003
0.140032
0.140033
0.140035
0.140036
0.140037
0.140038
0.140038
0.140038
0.140039
0.140039
0.14004
0.140041
0.140042
0.140043
0.140043
0.140044
0.140042
0.140038
0.140033
0.140032
0.140036
0.140045
0.140058
0.140074
0.14009
0.140108
0.140127
0.140147
0.14017
0.140195
0.140223
0.140256
0.140293
0.140336
0.140386
0.140443
0.140509
0.140588
0.140681
0.140792
0.14093
0.141088
0.141312
0.141538
0.141679
0.141756
0.141805
0.141838
0.141861
0.141876
0.141887
0.141898
0.141913
0.141929
0.141947
0.141967
0.141989
0.142014
0.142046
0.142085
0.142133
0.142191
0.142256
0.142326
0.142395
0.142463
0.142535
0.140079
0.14007
0.14006
0.140051
0.140041
0.140028
0.140015
0.140004
0.140001
0.139998
0.139996
0.139992
0.139988
0.139981
0.139972
0.13996
0.13995
0.139955
0.139979
0.14
0.140018
0.140016
0.139991
0.139978
0.140015
0.14002
0.140004
0.139971
0.139954
0.139952
0.139964
0.13998
0.139991
0.139997
0.14
0.140002
0.140005
0.140012
0.140019
0.140026
0.140032
0.140037
0.140041
0.140045
0.140048
0.140051
0.140054
0.140057
0.140059
0.140061
0.140062
0.140061
0.140059
0.140057
0.140058
0.140062
0.14007
0.14008
0.140093
0.140107
0.140122
0.140139
0.140156
0.140173
0.140182
0.140193
0.140208
0.140239
0.14028
0.140327
0.140379
0.140438
0.140503
0.140577
0.140658
0.140748
0.140848
0.140955
0.141067
0.141185
0.141309
0.141434
0.141561
0.141689
0.14182
0.141951
0.142081
0.142209
0.142334
0.142456
0.142573
0.142685
0.142791
0.142893
0.142989
0.14308
0.143167
0.143247
0.143327
0.143425
0.140049
0.140028
0.14
0.13999
0.139977
0.139966
0.139957
0.139951
0.139949
0.139948
0.139948
0.13995
0.139953
0.139952
0.139947
0.13994
0.139941
0.139956
0.139984
0.140008
0.140022
0.140015
0.139981
0.139949
0.140004
0.140018
0.140005
0.139973
0.139945
0.139926
0.139916
0.139922
0.139932
0.13994
0.139946
0.139949
0.139951
0.139954
0.139959
0.139965
0.139972
0.139978
0.139984
0.139988
0.139992
0.139994
0.139996
0.139998
0.140001
0.140006
0.140014
0.140023
0.140031
0.140037
0.140042
0.140047
0.140052
0.140058
0.140066
0.140076
0.140087
0.140099
0.140113
0.140126
0.140139
0.14015
0.140161
0.140173
0.14019
0.14021
0.140235
0.140262
0.140292
0.140323
0.140356
0.140389
0.140423
0.140459
0.140499
0.140543
0.14059
0.140638
0.140685
0.140731
0.140775
0.140815
0.140852
0.140884
0.140912
0.140935
0.140955
0.140975
0.140992
0.141009
0.141025
0.141041
0.141059
0.141078
0.141093
0.141094
0.140002
0.139972
0.139937
0.139913
0.1399
0.139892
0.139888
0.139886
0.139887
0.139889
0.139893
0.139897
0.1399
0.139899
0.139901
0.139911
0.139933
0.13996
0.13999
0.140013
0.140023
0.140008
0.13996
0.139918
0.139983
0.140008
0.14
0.139967
0.13992
0.139887
0.139867
0.13986
0.139863
0.13987
0.139877
0.139881
0.139885
0.139888
0.139891
0.139895
0.139899
0.139907
0.139919
0.139932
0.139946
0.139957
0.139967
0.139975
0.139981
0.139987
0.139994
0.140002
0.140011
0.14002
0.140028
0.140036
0.140043
0.140049
0.140056
0.140064
0.140072
0.140082
0.140092
0.140103
0.140114
0.140126
0.140137
0.140148
0.140159
0.14017
0.140182
0.140194
0.140207
0.14022
0.140234
0.140247
0.14026
0.140273
0.140286
0.1403
0.140315
0.140333
0.140352
0.140372
0.140393
0.140413
0.140434
0.140453
0.140472
0.14049
0.140508
0.140526
0.140543
0.140561
0.140579
0.140597
0.140614
0.140633
0.140648
0.140653
0.139881
0.139857
0.139834
0.13982
0.139814
0.139812
0.139812
0.139814
0.139816
0.139819
0.139823
0.139825
0.139828
0.139833
0.139849
0.13988
0.139922
0.13996
0.139991
0.140012
0.140016
0.139989
0.139916
0.139882
0.139952
0.139989
0.139986
0.139952
0.139891
0.139841
0.13981
0.139794
0.139789
0.139791
0.139796
0.1398
0.139805
0.139808
0.139811
0.139813
0.139816
0.13982
0.139827
0.139836
0.139847
0.139859
0.139871
0.139884
0.139897
0.139911
0.139925
0.139938
0.139952
0.139966
0.139979
0.139992
0.140003
0.140014
0.140024
0.140034
0.140043
0.140052
0.14006
0.140069
0.140077
0.140086
0.140095
0.140105
0.140114
0.140122
0.140131
0.14014
0.140148
0.140157
0.140166
0.140175
0.140184
0.140193
0.140203
0.140212
0.140222
0.140233
0.140245
0.140258
0.140272
0.140286
0.140302
0.140317
0.140333
0.140349
0.140366
0.140382
0.140399
0.140416
0.140433
0.14045
0.140467
0.140485
0.140502
0.140505
0.139751
0.139737
0.139729
0.139726
0.139725
0.139726
0.139728
0.139731
0.139736
0.139742
0.139752
0.139765
0.139783
0.139808
0.139842
0.139885
0.139928
0.139966
0.139995
0.14001
0.140001
0.139956
0.139863
0.139838
0.139913
0.139962
0.139971
0.139944
0.13989
0.139826
0.13977
0.139732
0.139713
0.139706
0.139706
0.139709
0.139712
0.139715
0.139717
0.139719
0.13972
0.139722
0.139724
0.139727
0.139732
0.139739
0.139747
0.139757
0.139767
0.139779
0.139791
0.139803
0.139815
0.139828
0.13984
0.139853
0.139865
0.139877
0.13989
0.139905
0.139923
0.139942
0.139961
0.139979
0.139996
0.140011
0.140025
0.140038
0.14005
0.140061
0.140072
0.140081
0.140091
0.1401
0.14011
0.140119
0.140128
0.140137
0.140146
0.140155
0.140164
0.140173
0.140183
0.140193
0.140203
0.140213
0.140224
0.140235
0.140247
0.140258
0.14027
0.140283
0.140295
0.140307
0.14032
0.140333
0.140346
0.140359
0.140372
0.140369
0.139646
0.139623
0.139624
0.139626
0.139631
0.139637
0.139647
0.139661
0.139679
0.1397
0.139728
0.139753
0.139782
0.139818
0.139859
0.139902
0.139942
0.139975
0.139996
0.14
0.139976
0.139911
0.139804
0.139785
0.13986
0.139926
0.139949
0.139936
0.139894
0.139835
0.139772
0.139709
0.13966
0.13963
0.139615
0.139609
0.139609
0.13961
0.139612
0.139613
0.139614
0.139614
0.139613
0.139613
0.139613
0.139614
0.139616
0.139619
0.139624
0.13963
0.139638
0.139646
0.139654
0.139663
0.139673
0.139682
0.139692
0.139701
0.139711
0.139721
0.139733
0.139745
0.139759
0.139774
0.139789
0.139808
0.139831
0.139855
0.139879
0.139901
0.139923
0.139942
0.13996
0.139976
0.139991
0.140004
0.140017
0.140028
0.140039
0.14005
0.14006
0.140069
0.140078
0.140088
0.140096
0.140105
0.140114
0.140123
0.140132
0.14014
0.140149
0.140158
0.140166
0.140175
0.140183
0.140192
0.1402
0.140209
0.140218
0.140209
0.139532
0.139506
0.139517
0.139531
0.13955
0.139572
0.139598
0.139627
0.139658
0.139691
0.139729
0.139761
0.139798
0.139839
0.13988
0.139919
0.139953
0.139978
0.139989
0.139978
0.139935
0.13985
0.139737
0.139717
0.139784
0.139872
0.139915
0.139918
0.139892
0.139845
0.139786
0.139718
0.139652
0.139594
0.139548
0.139519
0.139502
0.139495
0.139492
0.139492
0.139491
0.139491
0.13949
0.139488
0.139486
0.139483
0.139481
0.139479
0.139478
0.139478
0.139479
0.139481
0.139484
0.139487
0.139491
0.139495
0.139499
0.139504
0.13951
0.139515
0.13952
0.139526
0.139532
0.139539
0.139546
0.139554
0.139564
0.139576
0.139588
0.139602
0.139614
0.139628
0.139646
0.139668
0.139692
0.139716
0.139739
0.139761
0.139781
0.139798
0.139814
0.139829
0.139842
0.139854
0.139865
0.139875
0.139884
0.139893
0.139902
0.13991
0.139918
0.139926
0.139933
0.13994
0.139947
0.139953
0.139959
0.139965
0.139971
0.139957
0.139464
0.139454
0.139478
0.139505
0.139534
0.139567
0.139601
0.139636
0.139672
0.139709
0.139749
0.139786
0.139825
0.139865
0.139902
0.139935
0.13996
0.139974
0.139969
0.139939
0.139876
0.139772
0.139656
0.13963
0.139684
0.139792
0.139859
0.139884
0.139876
0.139845
0.139797
0.139736
0.13967
0.139602
0.139537
0.139479
0.139432
0.139398
0.139375
0.139361
0.139352
0.139348
0.139344
0.139342
0.139339
0.139335
0.139331
0.139326
0.139322
0.139317
0.139313
0.139309
0.139306
0.139304
0.139301
0.139299
0.139297
0.139296
0.139295
0.139293
0.139292
0.139291
0.139289
0.139288
0.139288
0.139287
0.139287
0.139287
0.139287
0.139288
0.139289
0.13929
0.139292
0.139295
0.139298
0.139303
0.139311
0.139325
0.139343
0.139363
0.139384
0.139404
0.139422
0.139439
0.139454
0.139467
0.13948
0.139491
0.139501
0.13951
0.139518
0.139525
0.139532
0.139538
0.139543
0.139548
0.139552
0.139555
0.139558
0.139531
0.139399
0.139399
0.139437
0.139478
0.139519
0.13956
0.139601
0.139642
0.139683
0.139724
0.139767
0.139806
0.139844
0.13988
0.139911
0.139935
0.139948
0.139946
0.139922
0.139869
0.139779
0.139652
0.139545
0.139518
0.139569
0.139689
0.139782
0.139831
0.139845
0.139832
0.1398
0.139751
0.139693
0.139629
0.139562
0.139495
0.139431
0.139373
0.139321
0.139279
0.139244
0.139218
0.139198
0.139184
0.139174
0.139166
0.139158
0.139151
0.139144
0.139137
0.139129
0.139121
0.139114
0.139106
0.139099
0.139091
0.139084
0.139077
0.13907
0.139062
0.139055
0.139047
0.139039
0.139031
0.139022
0.139013
0.139005
0.138996
0.138987
0.138979
0.13897
0.138962
0.138953
0.138944
0.138935
0.138926
0.138917
0.138909
0.138902
0.138896
0.138893
0.138896
0.138905
0.138918
0.138932
0.138946
0.13896
0.138972
0.138984
0.138995
0.139004
0.139013
0.13902
0.139027
0.139033
0.139038
0.139043
0.139047
0.13905
0.139022
0.139434
0.139451
0.139487
0.139527
0.139566
0.139606
0.139646
0.139686
0.139726
0.139766
0.139806
0.139841
0.139874
0.139901
0.139921
0.139932
0.139929
0.139907
0.139861
0.139783
0.139668
0.139521
0.139409
0.139374
0.139415
0.139517
0.139638
0.139719
0.13976
0.13977
0.139758
0.139726
0.139679
0.139623
0.139559
0.139489
0.139417
0.139343
0.13927
0.139201
0.139137
0.139081
0.139034
0.138997
0.138971
0.138951
0.138936
0.138925
0.138914
0.138905
0.138895
0.138886
0.138876
0.138866
0.138856
0.138846
0.138836
0.138825
0.138814
0.138803
0.13879
0.138778
0.138765
0.138752
0.138738
0.138724
0.138709
0.138694
0.138679
0.138663
0.138648
0.138632
0.138617
0.138602
0.138586
0.13857
0.138553
0.138536
0.138519
0.138501
0.138483
0.138466
0.138449
0.138433
0.138418
0.138409
0.138404
0.138405
0.138408
0.138413
0.138418
0.138423
0.138428
0.138431
0.138434
0.138436
0.138438
0.138438
0.138439
0.138403
0.139313
0.139306
0.139351
0.139406
0.139463
0.139519
0.139572
0.139622
0.139668
0.139713
0.13976
0.139795
0.139821
0.139839
0.139846
0.139838
0.139811
0.139759
0.139676
0.139557
0.13941
0.139283
0.139202
0.139182
0.139231
0.139345
0.139489
0.139601
0.139672
0.139709
0.139719
0.139706
0.139675
0.139632
0.139578
0.139516
0.139448
0.139374
0.139296
0.139216
0.139136
0.139057
0.138982
0.138914
0.138854
0.138801
0.138756
0.13872
0.13869
0.138665
0.138644
0.138625
0.138609
0.138594
0.138579
0.138565
0.138551
0.138537
0.138523
0.138508
0.138493
0.138477
0.138461
0.138444
0.138427
0.138409
0.138391
0.138372
0.138352
0.138331
0.13831
0.138288
0.138267
0.138244
0.138222
0.138199
0.138177
0.138154
0.13813
0.138107
0.138083
0.138059
0.138034
0.138008
0.137982
0.137956
0.13793
0.137906
0.137888
0.137877
0.137873
0.137871
0.137872
0.137874
0.137876
0.137878
0.137881
0.137883
0.137885
0.137849
0.139439
0.139462
0.139505
0.139553
0.139602
0.13965
0.139695
0.139737
0.139776
0.139811
0.139841
0.13986
0.139868
0.139865
0.139847
0.139811
0.139754
0.139672
0.139561
0.139422
0.139262
0.139101
0.138972
0.13892
0.13893
0.138993
0.139082
0.139172
0.139256
0.13933
0.139387
0.139407
0.1394
0.139368
0.139318
0.139255
0.139183
0.139106
0.139028
0.13895
0.138871
0.138793
0.138718
0.138645
0.138577
0.138515
0.138458
0.138407
0.138363
0.138324
0.138291
0.138261
0.138235
0.138212
0.13819
0.138169
0.13815
0.138132
0.138114
0.138095
0.138076
0.138056
0.138037
0.138018
0.137997
0.137977
0.137956
0.137934
0.137912
0.137888
0.137864
0.137839
0.137814
0.137789
0.137763
0.137738
0.137711
0.137685
0.137658
0.13763
0.137602
0.137574
0.137544
0.137514
0.137483
0.137452
0.137419
0.137386
0.137352
0.137318
0.137284
0.13725
0.137215
0.137181
0.137146
0.137113
0.137082
0.137052
0.137029
0.136986
0.139063
0.139075
0.139108
0.139146
0.139182
0.139216
0.139245
0.13927
0.13929
0.139303
0.139309
0.139305
0.139291
0.139263
0.139222
0.139166
0.139093
0.139004
0.1389
0.138787
0.138672
0.138572
0.138508
0.1385
0.138553
0.138674
0.13882
0.13895
0.139061
0.139154
0.139228
0.139275
0.139298
0.139298
0.139278
0.139243
0.139196
0.13914
0.139079
0.139014
0.138947
0.138878
0.138807
0.138736
0.138665
0.138595
0.138526
0.138458
0.138391
0.138326
0.138262
0.1382
0.138138
0.138076
0.138016
0.137959
0.137905
0.137854
0.137807
0.137763
0.137721
0.137682
0.137644
0.137608
0.137573
0.137538
0.137504
0.137471
0.137437
0.137404
0.13737
0.137337
0.137302
0.137268
0.137233
0.137198
0.137162
0.137126
0.137089
0.137051
0.137013
0.136975
0.136936
0.136897
0.136858
0.136818
0.136778
0.136737
0.136696
0.136654
0.136611
0.136567
0.136522
0.136477
0.136434
0.1364
0.136374
0.136355
0.136342
0.136296
0.139185
0.139184
0.139194
0.139208
0.13922
0.139228
0.139233
0.139232
0.139226
0.139212
0.13919
0.139158
0.139115
0.139061
0.138996
0.13892
0.138835
0.138741
0.138641
0.138537
0.138433
0.138333
0.138237
0.138144
0.138057
0.13802
0.138041
0.138089
0.138147
0.138206
0.13826
0.138307
0.13834
0.13836
0.138368
0.138363
0.138348
0.138323
0.13829
0.138251
0.138206
0.138157
0.138104
0.138049
0.137991
0.137931
0.13787
0.137808
0.137746
0.137682
0.137618
0.137554
0.137489
0.137424
0.137359
0.137295
0.137231
0.137169
0.137109
0.13705
0.136993
0.136937
0.136884
0.136832
0.136781
0.136732
0.136684
0.136637
0.136592
0.136547
0.136503
0.136461
0.136419
0.136378
0.136336
0.136295
0.136255
0.136214
0.136172
0.136131
0.136089
0.136047
0.136004
0.13596
0.135915
0.135869
0.135823
0.135775
0.135727
0.135677
0.135626
0.135574
0.13552
0.135464
0.135406
0.135346
0.135284
0.135221
0.135156
0.135094
0.138664
0.138776
0.13881
0.138807
0.138787
0.138763
0.138736
0.138706
0.13867
0.138623
0.138563
0.138504
0.138442
0.138375
0.138307
0.138238
0.138172
0.13811
0.138054
0.138004
0.13796
0.137923
0.137893
0.13787
0.137856
0.137858
0.137879
0.137913
0.137956
0.138002
0.138048
0.13809
0.138128
0.13816
0.138185
0.138202
0.138211
0.138213
0.138207
0.138194
0.138175
0.13815
0.13812
0.138086
0.138047
0.138005
0.13796
0.137913
0.137864
0.137812
0.137757
0.137701
0.137644
0.137584
0.137523
0.137461
0.137397
0.137331
0.137265
0.137197
0.13713
0.137063
0.136996
0.136926
0.136854
0.136777
0.136695
0.136608
0.136514
0.136412
0.136304
0.136192
0.136079
0.13597
0.135865
0.135763
0.135666
0.135572
0.13548
0.135391
0.135303
0.135218
0.135133
0.135049
0.134965
0.134881
0.134798
0.134714
0.13463
0.134545
0.134461
0.134377
0.134294
0.13421
0.134125
0.134039
0.133951
0.133862
0.133772
0.133687
0.138818
0.138805
0.138776
0.138736
0.138694
0.13865
0.138606
0.138561
0.138516
0.138469
0.138422
0.138376
0.138328
0.138278
0.138228
0.138179
0.138131
0.138085
0.138042
0.138001
0.137962
0.137926
0.137891
0.137858
0.137826
0.137795
0.137764
0.137734
0.137703
0.13767
0.137638
0.13761
0.13759
0.137573
0.137559
0.137544
0.137527
0.137507
0.137483
0.137458
0.13743
0.137398
0.137362
0.137322
0.137278
0.137231
0.137182
0.137131
0.137077
0.137019
0.136959
0.136896
0.13683
0.136762
0.136691
0.136619
0.136544
0.136468
0.136389
0.136308
0.136224
0.136137
0.136051
0.135967
0.135884
0.135797
0.13571
0.135621
0.135532
0.135444
0.135352
0.135259
0.135168
0.135075
0.13498
0.134884
0.134789
0.134695
0.1346
0.134505
0.13441
0.134313
0.134213
0.134111
0.134005
0.133896
0.133784
0.133669
0.13355
0.133428
0.133303
0.133175
0.133044
0.13291
0.132774
0.132634
0.132487
0.132337
0.132184
0.132036
0.139752
0.139977
0.14012
0.1402
0.140237
0.140246
0.140235
0.140209
0.140168
0.140111
0.140054
0.140001
0.139949
0.139899
0.139852
0.139807
0.139765
0.139726
0.13969
0.139657
0.139626
0.139598
0.139573
0.13955
0.139529
0.139508
0.139488
0.139467
0.139442
0.139411
0.139374
0.139347
0.139316
0.139287
0.139259
0.139232
0.139206
0.13918
0.139153
0.139125
0.139096
0.139066
0.139035
0.139003
0.13897
0.138934
0.138896
0.138856
0.138813
0.138768
0.138718
0.138665
0.138607
0.138546
0.13848
0.13841
0.138337
0.138259
0.138179
0.138097
0.138007
0.137915
0.137829
0.13773
0.137625
0.137514
0.137396
0.137273
0.137142
0.137002
0.136853
0.136692
0.136517
0.136327
0.136121
0.135894
0.13565
0.135381
0.13509
0.134784
0.134469
0.134155
0.133841
0.133531
0.133223
0.132917
0.132614
0.132312
0.132011
0.13171
0.131408
0.131106
0.130801
0.130493
0.130183
0.129869
0.129553
0.129238
0.128935
0.128672
0.135022
0.133944
0.133629
0.133652
0.133737
0.133739
0.133637
0.133435
0.133146
0.132819
0.132873
0.132223
0.131641
0.131179
0.130789
0.130439
0.130111
0.129792
0.129473
0.129151
0.128822
0.128484
0.128138
0.127783
0.127421
0.127052
0.126681
0.12631
0.125944
0.125599
0.125425
0.125876
0.125709
0.125475
0.125185
0.124848
0.124471
0.12406
0.12362
0.123153
0.122664
0.122155
0.121628
0.121086
0.12053
0.119964
0.11939
0.118809
0.118225
0.11764
0.117057
0.116478
0.115905
0.11534
0.114788
0.114252
0.113733
0.113227
0.112732
0.112243
0.111754
0.111455
0.11154
0.111214
0.110873
0.110526
0.110173
0.109816
0.109453
0.109085
0.108712
0.108334
0.107951
0.107562
0.107168
0.10677
0.106366
0.105958
0.105546
0.105131
0.104713
0.104294
0.103873
0.103451
0.103028
0.102605
0.102181
0.101757
0.101333
0.10091
0.10049
0.100075
0.0996691
0.0992793
0.0989177
0.0986053
0.098379
0.098303
0.098489
0.0991355
0.228115
0.245692
0.262571
0.278429
0.293382
0.307542
0.320999
0.333828
0.346091
0.35784
0.369118
0.379962
0.390403
0.400469
0.410185
0.419574
0.428674
0.437457
0.445961
0.45421
0.462216
0.469989
0.477541
0.484879
0.492011
0.498946
0.50569
0.512249
0.518628
0.524833
0.530868
0.536739
0.542366
0.547733
0.553129
0.558385
0.5635
0.568478
0.573324
0.578041
0.582637
0.587115
0.591482
0.595746
0.599913
0.603991
0.607991
0.611695
0.615237
0.619087
0.622914
0.626722
0.630529
0.634351
0.638207
0.642117
0.646103
0.650188
0.654396
0.658257
0.662329
0.667198
0.672301
0.677651
0.683274
0.689192
0.695432
0.700638
0.708434
0.715683
0.142829
0.142949
0.143097
0.143272
0.143474
0.143707
0.143969
0.144261
0.144578
0.144917
0.145278
0.145664
0.146076
0.146515
0.14698
0.147474
0.147999
0.148548
0.149125
0.149732
0.150369
0.151037
0.151736
0.152465
0.153226
0.154016
0.154837
0.155687
0.156567
0.157475
0.158413
0.159379
0.160346
0.161305
0.162348
0.163422
0.164523
0.165649
0.1668
0.167974
0.169172
0.170392
0.171634
0.172898
0.174183
0.17549
0.17682
0.178084
0.179328
0.18074
0.182184
0.183649
0.185135
0.186641
0.18817
0.189723
0.191303
0.192915
0.194563
0.196029
0.197567
0.199449
0.201416
0.203468
0.205631
0.207945
0.210461
0.212551
0.216191
0.219847
0.143346
0.143313
0.14328
0.14325
0.143224
0.143198
0.143173
0.143146
0.143117
0.143085
0.14305
0.14301
0.142967
0.142921
0.142872
0.14282
0.142766
0.142709
0.14265
0.142588
0.142524
0.142456
0.142386
0.142313
0.142238
0.14216
0.142079
0.141997
0.141912
0.141824
0.141735
0.141644
0.141548
0.141447
0.141347
0.141245
0.141142
0.141037
0.140932
0.140825
0.140717
0.140607
0.140497
0.140386
0.140273
0.14016
0.140044
0.139918
0.139783
0.139657
0.139532
0.139407
0.139282
0.139157
0.139033
0.138908
0.138784
0.138659
0.138534
0.138381
0.138222
0.138095
0.137974
0.13786
0.137753
0.137657
0.137577
0.137417
0.13745
0.137502
0.141099
0.1411
0.141097
0.141091
0.141082
0.141072
0.141062
0.141052
0.141043
0.141033
0.141022
0.141011
0.140999
0.140986
0.140974
0.140961
0.140949
0.140937
0.140925
0.140914
0.140903
0.140892
0.140881
0.14087
0.140858
0.140847
0.140836
0.140824
0.140812
0.1408
0.140788
0.140776
0.140764
0.140752
0.14074
0.140728
0.140716
0.140704
0.140692
0.140681
0.140669
0.140657
0.140646
0.140634
0.140622
0.14061
0.140597
0.140583
0.140568
0.140552
0.140536
0.140519
0.140501
0.140482
0.140463
0.140443
0.140421
0.140399
0.140375
0.140349
0.14032
0.140288
0.140256
0.140224
0.14019
0.140156
0.140119
0.140082
0.14004
0.140002
0.140645
0.14064
0.140633
0.140625
0.140615
0.140604
0.140592
0.14058
0.140569
0.140558
0.140547
0.140536
0.140524
0.140512
0.140499
0.140486
0.140473
0.14046
0.140447
0.140435
0.140424
0.140412
0.140401
0.140389
0.140378
0.140366
0.140355
0.140344
0.140333
0.140323
0.140314
0.140305
0.140297
0.140289
0.140282
0.140275
0.140269
0.140264
0.14026
0.140257
0.140254
0.140253
0.140254
0.140255
0.140257
0.14026
0.140263
0.140267
0.140271
0.140276
0.140282
0.140288
0.140294
0.140301
0.140309
0.140317
0.140326
0.140335
0.140344
0.140354
0.140365
0.140377
0.140389
0.140401
0.140414
0.140426
0.140437
0.140447
0.140454
0.140457
0.140496
0.14049
0.140483
0.140475
0.140466
0.140456
0.140444
0.140432
0.140419
0.140407
0.140395
0.140383
0.140371
0.140358
0.140345
0.140331
0.140318
0.140305
0.140292
0.140281
0.140269
0.140258
0.140246
0.140234
0.140223
0.140211
0.140199
0.140188
0.140177
0.140166
0.140156
0.140145
0.140135
0.140125
0.140115
0.140106
0.140096
0.140087
0.140078
0.14007
0.140062
0.140054
0.140047
0.140041
0.140036
0.140033
0.140031
0.14003
0.140031
0.140034
0.140037
0.140041
0.140046
0.140051
0.140057
0.140064
0.140071
0.140079
0.140087
0.140095
0.140105
0.140116
0.140128
0.14014
0.140153
0.140165
0.140177
0.140187
0.140196
0.140201
0.140356
0.14035
0.140341
0.140332
0.140321
0.14031
0.140297
0.140284
0.14027
0.140256
0.140242
0.140229
0.140215
0.1402
0.140185
0.140169
0.140153
0.140137
0.140121
0.140106
0.140092
0.140077
0.140062
0.140048
0.140032
0.140017
0.140002
0.139987
0.139973
0.139959
0.139945
0.139932
0.13992
0.139909
0.139899
0.139889
0.139881
0.139874
0.139867
0.139862
0.139858
0.139856
0.139854
0.139854
0.139856
0.139858
0.139861
0.139864
0.139868
0.139873
0.139878
0.139884
0.13989
0.139898
0.139905
0.139914
0.139923
0.139933
0.139943
0.139953
0.139965
0.139978
0.139992
0.140006
0.140021
0.140035
0.140049
0.140061
0.140072
0.140078
0.14019
0.140181
0.14017
0.140157
0.140144
0.14013
0.140115
0.140098
0.140081
0.140064
0.140047
0.140031
0.140014
0.139997
0.139978
0.139959
0.13994
0.139921
0.139902
0.139884
0.139866
0.139849
0.139831
0.139814
0.139797
0.13978
0.139764
0.139748
0.139732
0.139718
0.139704
0.139691
0.139679
0.139668
0.139658
0.139649
0.139641
0.139634
0.139629
0.139625
0.139622
0.13962
0.13962
0.139622
0.139625
0.139629
0.139634
0.139639
0.139645
0.139652
0.139659
0.139667
0.139675
0.139684
0.139694
0.139704
0.139715
0.139726
0.139738
0.13975
0.139763
0.139778
0.139793
0.139809
0.139826
0.139842
0.139857
0.13987
0.139883
0.139889
0.139932
0.139922
0.139908
0.139893
0.139877
0.139861
0.139843
0.139824
0.139804
0.139785
0.139766
0.139747
0.139729
0.13971
0.13969
0.139669
0.139648
0.139627
0.139607
0.139588
0.13957
0.139552
0.139534
0.139518
0.139501
0.139486
0.139471
0.139457
0.139444
0.139432
0.13942
0.139409
0.1394
0.139391
0.139384
0.139378
0.139373
0.139369
0.139367
0.139366
0.139367
0.139369
0.139373
0.139378
0.139385
0.139392
0.1394
0.139407
0.139415
0.139424
0.139433
0.139443
0.139454
0.139465
0.139476
0.139488
0.139501
0.139514
0.139527
0.13954
0.139554
0.13957
0.139587
0.139604
0.139622
0.139639
0.139655
0.139669
0.139682
0.139689
0.139509
0.139501
0.13949
0.139476
0.139461
0.139446
0.139429
0.139411
0.139392
0.139374
0.139356
0.13934
0.139323
0.139306
0.139288
0.139269
0.139251
0.139233
0.139216
0.1392
0.139185
0.13917
0.139156
0.139143
0.13913
0.139118
0.139107
0.139097
0.139087
0.139078
0.13907
0.139063
0.139056
0.139051
0.139047
0.139044
0.139042
0.139041
0.139042
0.139044
0.139048
0.139053
0.139059
0.139067
0.139076
0.139087
0.139098
0.13911
0.139121
0.139134
0.139146
0.139159
0.139172
0.139186
0.139199
0.139214
0.139228
0.139243
0.139257
0.139271
0.139286
0.139303
0.139321
0.139339
0.139358
0.139376
0.139392
0.139406
0.13942
0.139428
0.139008
0.139005
0.138999
0.13899
0.13898
0.138969
0.138957
0.138944
0.138931
0.138918
0.138906
0.138893
0.138881
0.138868
0.138855
0.138843
0.13883
0.138819
0.138807
0.138797
0.138787
0.138777
0.138768
0.13876
0.138752
0.138745
0.138738
0.138731
0.138725
0.13872
0.138715
0.138711
0.138708
0.138705
0.138703
0.138701
0.138701
0.138702
0.138704
0.138706
0.138711
0.138716
0.138723
0.138732
0.138741
0.138752
0.138764
0.138776
0.13879
0.138806
0.138823
0.138841
0.138859
0.138877
0.138895
0.138912
0.13893
0.138947
0.138963
0.138979
0.138995
0.139014
0.139033
0.139052
0.139071
0.139089
0.139106
0.13912
0.139135
0.139142
0.138393
0.138395
0.138394
0.138391
0.138386
0.13838
0.138374
0.138367
0.13836
0.138353
0.138346
0.138339
0.138332
0.138325
0.138317
0.13831
0.138303
0.138296
0.13829
0.138283
0.138278
0.138272
0.138268
0.138263
0.138259
0.138255
0.138251
0.138248
0.138245
0.138242
0.13824
0.138238
0.138237
0.138236
0.138235
0.138235
0.138236
0.138237
0.13824
0.138243
0.138247
0.138253
0.13826
0.138268
0.138278
0.138288
0.138299
0.138311
0.138324
0.138339
0.138356
0.138374
0.138394
0.138416
0.138439
0.138463
0.138487
0.13851
0.138531
0.138551
0.138571
0.138593
0.138615
0.138638
0.13866
0.13868
0.138698
0.138714
0.13873
0.138738
0.137845
0.13785
0.137853
0.137853
0.137852
0.13785
0.137848
0.137846
0.137843
0.13784
0.137838
0.137836
0.137834
0.137832
0.13783
0.137829
0.137828
0.137827
0.137826
0.137825
0.137825
0.137825
0.137824
0.137824
0.137825
0.137825
0.137825
0.137825
0.137825
0.137826
0.137826
0.137826
0.137825
0.137825
0.137824
0.137823
0.137823
0.137823
0.137822
0.137822
0.137823
0.137823
0.137825
0.137826
0.137829
0.137832
0.137835
0.137839
0.137842
0.137848
0.137855
0.137863
0.137873
0.137885
0.137898
0.137913
0.13793
0.137948
0.137965
0.137982
0.138002
0.138025
0.138052
0.138081
0.138111
0.13814
0.138167
0.138191
0.138214
0.138224
0.136968
0.13697
0.13697
0.13697
0.136971
0.136973
0.136974
0.136976
0.136978
0.13698
0.136981
0.136982
0.136984
0.136985
0.136985
0.136986
0.136987
0.136988
0.136989
0.13699
0.136992
0.136993
0.136995
0.136997
0.136999
0.137001
0.137004
0.137006
0.137009
0.137011
0.137014
0.137016
0.137018
0.13702
0.137022
0.137024
0.137026
0.137028
0.13703
0.137032
0.137035
0.137038
0.13704
0.137044
0.137047
0.137051
0.137054
0.137057
0.13706
0.137064
0.137068
0.137074
0.13708
0.137088
0.137096
0.137106
0.137116
0.137127
0.137138
0.137148
0.137159
0.137174
0.137192
0.137212
0.137234
0.137255
0.137275
0.137292
0.137312
0.137323
0.136267
0.136267
0.136269
0.13627
0.136272
0.136273
0.136275
0.136277
0.136279
0.136282
0.136285
0.136288
0.136292
0.136296
0.136301
0.136306
0.136311
0.136317
0.136323
0.13633
0.136338
0.136345
0.136354
0.136363
0.136373
0.136384
0.136396
0.136408
0.136421
0.136435
0.13645
0.136464
0.136478
0.136492
0.136507
0.136522
0.136537
0.136552
0.136568
0.136584
0.1366
0.136616
0.136633
0.136649
0.136665
0.136679
0.13669
0.136699
0.136706
0.136712
0.136718
0.136724
0.136729
0.136735
0.136741
0.136747
0.136751
0.136753
0.136751
0.136746
0.13674
0.136735
0.136732
0.13673
0.136729
0.136726
0.136721
0.136711
0.136705
0.136697
0.135046
0.135044
0.135043
0.135043
0.135042
0.135042
0.135041
0.135041
0.135041
0.135041
0.135041
0.135042
0.135043
0.135044
0.135045
0.135047
0.135049
0.135051
0.135054
0.135057
0.13506
0.135063
0.135068
0.135072
0.135077
0.135083
0.135089
0.135096
0.135103
0.135111
0.135119
0.135127
0.135135
0.135143
0.135151
0.13516
0.13517
0.13518
0.135191
0.135203
0.135215
0.135227
0.13524
0.135254
0.135268
0.135282
0.135295
0.135306
0.135317
0.135329
0.135342
0.135355
0.135369
0.135384
0.135399
0.135414
0.135429
0.135443
0.135455
0.135464
0.135472
0.135482
0.135494
0.135506
0.135518
0.135529
0.135536
0.135536
0.135538
0.135532
0.133606
0.133591
0.133579
0.133568
0.133557
0.133546
0.133536
0.133526
0.133516
0.133507
0.133498
0.13349
0.133483
0.133476
0.133469
0.133464
0.133459
0.133454
0.13345
0.133447
0.133444
0.133441
0.13344
0.133439
0.13344
0.133442
0.133445
0.133449
0.133455
0.133462
0.133471
0.13348
0.133489
0.133499
0.13351
0.133523
0.133538
0.133555
0.133575
0.133596
0.13362
0.133647
0.133675
0.133706
0.133739
0.133772
0.133804
0.133833
0.133862
0.133896
0.133932
0.133971
0.134013
0.134059
0.134107
0.134157
0.134209
0.134259
0.134304
0.13434
0.134378
0.134426
0.134479
0.134539
0.1346
0.134655
0.134693
0.134714
0.134741
0.134741
0.131828
0.131755
0.131688
0.131623
0.13156
0.131497
0.131436
0.131377
0.131318
0.131262
0.131206
0.131153
0.131101
0.13105
0.131001
0.130953
0.130907
0.130861
0.130818
0.130775
0.130734
0.130694
0.130655
0.130618
0.130582
0.130548
0.130516
0.130485
0.130455
0.130427
0.1304
0.130375
0.130349
0.130321
0.130296
0.130272
0.13025
0.130229
0.130211
0.130194
0.130179
0.130166
0.130155
0.130146
0.130139
0.130133
0.130128
0.130118
0.130106
0.130099
0.130095
0.130094
0.130096
0.130102
0.130111
0.130123
0.130138
0.130153
0.130167
0.130169
0.130173
0.130187
0.130209
0.130237
0.130268
0.1303
0.130325
0.130322
0.130344
0.130343
0.127597
0.127326
0.127114
0.12691
0.126707
0.126506
0.126308
0.126112
0.125919
0.125729
0.125542
0.125359
0.125178
0.125002
0.124828
0.124659
0.124493
0.124332
0.124173
0.124017
0.123865
0.123717
0.123572
0.123432
0.123294
0.123159
0.123028
0.122901
0.122777
0.122658
0.122544
0.122434
0.122324
0.122208
0.1221
0.121997
0.121897
0.121802
0.121712