/*--------------------------------*- C++ -*----------------------------------*\
  =========                 |
  \\      /  F ield         | OpenFOAM: The Open Source CFD Toolbox
   \\    /   O peration     | Website:  https://openfoam.org
    \\  /    A nd           | Version:  6.0
     \\/     M anipulation  |
\*---------------------------------------------------------------------------*/
FoamFile
{
    version     2.0;
    format      ascii;
    class       volScalarField;
    location    "250";
    object      p;
}
// * * * * * * * * * * * * * * * * * * * * * * * * * * * * * * * * * * * * * //

dimensions      [0 2 -2 0 0 0 0];

internalField   nonuniform List<scalar> 
9800
(
99.427
97.9781
96.9401
96.1486
95.4996
94.9316
94.4082
93.9073
93.4177
92.9329
92.4341
91.9224
91.3995
90.8643
90.3165
89.757
89.1881
88.6142
88.0431
87.4886
86.9734
86.5355
86.2542
86.2991
86.6732
87.2078
87.8222
88.4768
89.1486
89.8236
90.4934
91.1478
91.7885
92.4134
93.021
93.6105
94.1812
94.733
95.2657
95.7792
96.2736
96.7487
97.2046
97.641
98.0579
98.455
98.8319
99.1884
99.5237
99.8374
100.129
100.397
100.641
100.859
101.051
101.214
101.347
101.447
101.514
101.544
101.535
101.484
101.389
101.251
101.07
100.849
100.602
100.351
100.138
100.034
100.162
100.72
102.027
104.604
109.163
117.046
128.829
147.204
164.823
180.239
187.764
193.826
200.804
207.573
213.49
218.924
224.3
229.643
234.804
239.701
244.381
248.928
253.424
257.924
262.458
267.028
271.625
276.224
280.799
285.358
158.253
158.493
158.578
158.616
158.645
158.682
158.73
158.786
158.846
158.91
158.974
159.029
159.077
159.116
159.146
159.171
159.192
159.214
159.245
159.29
159.36
159.449
159.529
159.61
159.697
159.781
159.886
160.013
160.155
160.301
160.447
160.585
160.708
160.815
160.903
160.971
161.017
161.041
161.042
161.02
160.974
160.904
160.81
160.691
160.546
160.376
160.18
159.957
159.706
159.427
159.119
158.782
158.413
158.013
157.58
157.113
156.611
156.073
155.498
154.886
154.235
153.547
152.82
152.053
151.247
150.407
149.534
148.633
147.704
146.751
145.768
144.754
143.69
142.588
141.446
140.529
140.081
142.673
149.77
159.964
171.625
181.337
189.176
196.226
202.939
209.249
215.059
220.378
225.277
229.815
234.054
238.051
241.858
245.49
248.94
252.165
255.109
257.703
259.828
261.443
101.678
103.232
104.528
105.636
106.617
107.517
108.37
109.198
110.014
110.828
111.662
112.522
113.403
114.303
115.224
116.16
117.107
118.056
118.99
119.885
120.707
121.403
121.872
121.963
121.669
121.133
120.461
119.709
118.911
118.093
117.269
116.455
115.658
114.876
114.11
113.363
112.635
111.927
111.237
110.567
109.915
109.282
108.668
108.072
107.495
106.938
106.4
105.882
105.386
104.912
104.462
104.039
103.643
103.278
102.947
102.656
102.406
102.208
102.064
101.985
101.981
102.065
102.25
102.56
103.013
103.64
104.47
105.552
106.934
108.69
110.898
113.676
117.149
121.493
126.881
133.533
141.527
150.96
160.873
170.243
178.499
185.617
192.065
198.17
203.898
209.108
213.805
218.103
222.115
225.898
229.492
232.923
236.196
239.281
242.143
244.733
247.015
248.935
250.477
251.458
105.698
104.884
104.308
103.885
103.564
103.312
103.109
102.944
102.81
102.702
102.616
102.552
102.511
102.491
102.492
102.51
102.541
102.582
102.626
102.669
102.705
102.743
102.802
102.883
102.981
103.098
103.216
103.327
103.436
103.548
103.668
103.801
103.952
104.123
104.316
104.532
104.773
105.04
105.332
105.651
105.997
106.37
106.771
107.2
107.659
108.149
108.67
109.225
109.815
110.443
111.109
111.82
112.576
113.383
114.243
115.164
116.149
117.206
118.342
119.567
120.887
122.317
123.864
125.544
127.37
129.364
131.537
133.912
136.503
139.333
142.409
145.748
149.339
153.18
157.23
161.447
165.757
170.1
174.444
178.837
183.338
187.935
192.516
196.952
201.162
205.126
208.871
212.433
215.85
219.138
222.296
225.294
228.096
230.664
232.968
234.983
236.697
238.089
239.185
239.84
123.256
122.79
122.317
121.859
121.424
121.014
120.628
120.262
119.917
119.589
119.262
118.934
118.609
118.286
117.964
117.644
117.329
117.022
116.73
116.464
116.239
116.077
116.015
116.101
116.34
116.687
117.102
117.561
118.047
118.55
119.062
119.573
120.079
120.585
121.089
121.591
122.092
122.592
123.091
123.592
124.095
124.601
125.111
125.628
126.151
126.685
127.228
127.785
128.355
128.944
129.551
130.182
130.837
131.522
132.238
132.991
133.783
134.622
135.51
136.455
137.46
138.537
139.684
140.916
142.236
143.659
145.189
146.842
148.621
150.544
152.616
154.855
157.269
159.88
162.697
165.746
169.036
172.581
176.363
180.329
184.375
188.389
192.284
196.026
199.616
203.062
206.376
209.561
212.62
215.543
218.313
220.903
223.294
225.471
227.432
229.175
230.709
232.026
233.171
234.009
127.77
127.735
127.689
127.638
127.585
127.534
127.489
127.453
127.43
127.421
127.417
127.419
127.432
127.455
127.487
127.528
127.579
127.641
127.714
127.8
127.899
128.006
128.117
128.231
128.351
128.474
128.605
128.748
128.901
129.066
129.238
129.415
129.595
129.782
129.975
130.176
130.385
130.603
130.831
131.071
131.324
131.592
131.876
132.18
132.503
132.85
133.22
133.619
134.046
134.508
135.003
135.539
136.115
136.739
137.41
138.138
138.92
139.768
140.681
141.67
142.735
143.888
145.127
146.466
147.906
149.462
151.134
152.935
154.865
156.936
159.146
161.506
164.008
166.656
169.436
172.34
175.34
178.412
181.514
184.611
187.67
190.674
193.615
196.494
199.311
202.059
204.731
207.312
209.787
212.14
214.355
216.422
218.338
220.1
221.711
223.17
224.479
225.624
226.636
227.392
132.365
132.015
131.717
131.467
131.26
131.092
130.959
130.861
130.796
130.764
130.754
130.769
130.81
130.876
130.965
131.077
131.208
131.357
131.519
131.69
131.865
132.038
132.197
132.332
132.442
132.536
132.623
132.713
132.809
132.917
133.039
133.177
133.33
133.506
133.703
133.924
134.17
134.441
134.737
135.062
135.414
135.795
136.206
136.65
137.124
137.634
138.178
138.76
139.378
140.039
140.739
141.486
142.276
143.116
144.005
144.948
145.944
147
148.113
149.291
150.531
151.841
153.216
154.664
156.182
157.779
159.451
161.203
163.028
164.934
166.911
168.964
171.08
173.262
175.496
177.781
180.102
182.456
184.831
187.224
189.623
192.026
194.419
196.793
199.134
201.428
203.659
205.814
207.882
209.854
211.727
213.499
215.169
216.738
218.202
219.556
220.799
221.914
222.935
223.754
138.73
138.32
137.941
137.594
137.279
136.998
136.749
136.533
136.35
136.2
136.071
135.964
135.883
135.826
135.792
135.781
135.791
135.823
135.873
135.943
136.032
136.14
136.269
136.419
136.588
136.778
136.987
137.213
137.457
137.719
138
138.296
138.607
138.939
139.291
139.665
140.061
140.479
140.919
141.383
141.871
142.384
142.921
143.486
144.076
144.696
145.343
146.021
146.729
147.47
148.242
149.051
149.893
150.774
151.692
152.651
153.649
154.691
155.775
156.907
158.083
159.309
160.58
161.903
163.274
164.701
166.179
167.713
169.297
170.936
172.624
174.364
176.148
177.979
179.848
181.756
183.693
185.657
187.639
189.635
191.632
193.624
195.599
197.549
199.461
201.33
203.147
204.906
206.603
208.236
209.803
211.302
212.728
214.079
215.349
216.535
217.635
218.641
219.588
220.377
144.577
144.201
143.854
143.537
143.249
142.991
142.761
142.56
142.39
142.25
142.127
142.024
141.943
141.886
141.85
141.836
141.843
141.871
141.921
141.992
142.086
142.203
142.344
142.513
142.709
142.93
143.173
143.438
143.722
144.026
144.348
144.685
145.033
145.4
145.786
146.191
146.614
147.057
147.52
148.004
148.509
149.037
149.586
150.161
150.758
151.382
152.031
152.709
153.412
154.147
154.909
155.704
156.528
157.387
158.277
159.204
160.164
161.162
162.194
163.267
164.375
165.524
166.707
167.929
169.189
170.49
171.828
173.208
174.621
176.073
177.556
179.074
180.619
182.192
183.787
185.403
187.033
188.677
190.324
191.976
193.621
195.258
196.879
198.482
200.058
201.607
203.122
204.603
206.044
207.444
208.798
210.102
211.352
212.546
213.681
214.755
215.771
216.722
217.64
218.432
149.499
149.172
148.871
148.6
148.357
148.143
147.958
147.802
147.678
147.585
147.51
147.455
147.425
147.418
147.435
147.474
147.536
147.619
147.722
147.846
147.989
148.15
148.329
148.524
148.736
148.964
149.209
149.472
149.752
150.052
150.37
150.703
151.049
151.417
151.804
152.214
152.643
153.095
153.568
154.065
154.582
155.125
155.689
156.278
156.891
157.529
158.191
158.88
159.593
160.334
161.1
161.894
162.713
163.562
164.437
165.341
166.272
167.232
168.219
169.237
170.28
171.354
172.45
173.573
174.721
175.899
177.101
178.33
179.58
180.856
182.151
183.468
184.8
186.151
187.512
188.887
190.268
191.656
193.045
194.434
195.816
197.193
198.557
199.908
201.241
202.556
203.846
205.11
206.345
207.549
208.717
209.849
210.942
211.997
213.012
213.989
214.93
215.827
216.709
217.488
155.156
154.788
154.452
154.151
153.882
153.647
153.444
153.274
153.138
153.037
152.957
152.899
152.867
152.862
152.883
152.928
152.997
153.09
153.205
153.343
153.502
153.681
153.879
154.097
154.333
154.588
154.861
155.153
155.463
155.794
156.144
156.508
156.886
157.284
157.702
158.142
158.601
159.081
159.58
160.102
160.642
161.204
161.785
162.388
163.01
163.655
164.318
165.003
165.708
166.435
167.181
167.95
168.737
169.548
170.377
171.23
172.101
172.995
173.908
174.844
175.798
176.773
177.764
178.773
179.799
180.846
181.909
182.992
184.088
185.201
186.326
187.466
188.614
189.773
190.938
192.111
193.285
194.462
195.637
196.811
197.979
199.142
200.294
201.437
202.565
203.679
204.775
205.853
206.909
207.943
208.953
209.94
210.902
211.838
212.749
213.634
214.492
215.319
216.135
216.864
158.312
158.156
158.012
157.885
157.776
157.686
157.617
157.57
157.549
157.554
157.568
157.597
157.645
157.714
157.802
157.911
158.039
158.187
158.354
158.541
158.746
158.971
159.214
159.475
159.754
160.051
160.366
160.699
161.05
161.42
161.807
162.207
162.617
163.046
163.492
163.957
164.439
164.939
165.455
165.99
166.541
167.11
167.696
168.299
168.919
169.556
170.21
170.882
171.569
172.275
172.996
173.736
174.491
175.264
176.053
176.86
177.682
178.522
179.376
180.249
181.135
182.037
182.949
183.875
184.812
185.764
186.727
187.704
188.69
189.687
190.691
191.704
192.722
193.747
194.774
195.806
196.837
197.869
198.898
199.926
200.948
201.965
202.974
203.975
204.965
205.945
206.911
207.865
208.803
209.726
210.633
211.523
212.395
213.249
214.084
214.899
215.694
216.465
217.231
217.923
165.615
165.267
164.957
164.684
164.447
164.245
164.076
163.941
163.841
163.776
163.735
163.717
163.724
163.759
163.818
163.903
164.012
164.145
164.301
164.481
164.683
164.908
165.154
165.424
165.715
166.027
166.359
166.71
167.078
167.466
167.869
168.284
168.706
169.145
169.599
170.069
170.554
171.054
171.568
172.097
172.639
173.196
173.767
174.352
174.95
175.563
176.188
176.828
177.48
178.146
178.825
179.518
180.223
180.942
181.673
182.417
183.172
183.94
184.718
185.509
186.309
187.12
187.936
188.759
189.59
190.43
191.277
192.132
192.992
193.859
194.729
195.605
196.482
197.362
198.242
199.124
200.004
200.884
201.759
202.633
203.5
204.364
205.22
206.07
206.912
207.746
208.57
209.384
210.188
210.981
211.762
212.531
213.287
214.03
214.759
215.475
216.177
216.861
217.543
218.164
163.054
163.27
163.481
163.693
163.909
164.133
164.364
164.608
164.869
165.145
165.414
165.682
165.96
166.249
166.549
166.861
167.183
167.517
167.861
168.217
168.583
168.96
169.346
169.743
170.147
170.56
170.983
171.417
171.862
172.32
172.79
173.264
173.741
174.231
174.734
175.251
175.778
176.319
176.872
177.437
178.014
178.604
179.206
179.82
180.445
181.083
181.732
182.394
183.066
183.75
184.445
185.151
185.867
186.594
187.33
188.076
188.831
189.596
190.367
191.148
191.935
192.729
193.524
194.322
195.125
195.934
196.746
197.563
198.381
199.204
200.027
200.852
201.677
202.502
203.325
204.148
204.967
205.785
206.597
207.406
208.21
209.009
209.8
210.586
211.364
212.134
212.895
213.648
214.391
215.124
215.845
216.556
217.255
217.943
218.618
219.28
219.93
220.564
221.195
221.773
179.256
178.78
178.353
177.973
177.635
177.339
177.08
176.859
176.673
176.526
176.423
176.352
176.313
176.304
176.326
176.377
176.456
176.564
176.7
176.864
177.054
177.271
177.515
177.785
178.082
178.405
178.753
179.122
179.51
179.916
180.337
180.767
181.201
181.647
182.106
182.578
183.06
183.554
184.058
184.573
185.097
185.633
186.178
186.733
187.297
187.871
188.454
189.046
189.646
190.255
190.87
191.495
192.126
192.765
193.409
194.06
194.716
195.378
196.044
196.716
197.39
198.068
198.744
199.42
200.097
200.777
201.459
202.143
202.827
203.513
204.199
204.886
205.571
206.256
206.939
207.621
208.301
208.979
209.653
210.324
210.992
211.656
212.315
212.969
213.618
214.262
214.9
215.532
216.157
216.775
217.386
217.989
218.584
219.17
219.749
220.318
220.878
221.426
221.97
222.476
156.961
157.906
158.821
159.721
160.611
161.497
162.381
163.27
164.173
165.082
165.94
166.762
167.58
168.396
169.209
170.021
170.829
171.634
172.435
173.233
174.025
174.813
175.595
176.372
177.141
177.903
178.656
179.403
180.147
180.89
181.631
182.357
183.072
183.789
184.512
185.239
185.97
186.707
187.448
188.196
188.948
189.707
190.47
191.239
192.012
192.791
193.573
194.36
195.151
195.945
196.742
197.543
198.344
199.149
199.954
200.76
201.567
202.374
203.18
203.986
204.79
205.591
206.384
207.173
207.957
208.739
209.518
210.294
211.066
211.835
212.598
213.357
214.11
214.858
215.6
216.335
217.062
217.783
218.495
219.199
219.894
220.58
221.257
221.924
222.58
223.225
223.86
224.483
225.094
225.694
226.28
226.855
227.416
227.965
228.5
229.022
229.531
230.026
230.508
230.964
207.415
206.481
205.608
204.791
204.019
203.285
202.583
201.907
201.24
200.6
200.08
199.615
199.19
198.803
198.453
198.141
197.867
197.632
197.436
197.279
197.161
197.082
197.041
197.04
197.078
197.155
197.271
197.424
197.609
197.824
198.067
198.336
198.611
198.904
199.217
199.547
199.894
200.256
200.633
201.024
201.428
201.846
202.275
202.716
203.167
203.629
204.1
204.581
205.07
205.567
206.071
206.583
207.1
207.624
208.153
208.688
209.226
209.769
210.315
210.865
211.417
211.969
212.517
213.062
213.606
214.152
214.7
215.25
215.801
216.353
216.906
217.459
218.011
218.563
219.113
219.662
220.21
220.755
221.298
221.838
222.375
222.908
223.438
223.963
224.484
225
225.511
226.017
226.517
227.01
227.498
227.979
228.452
228.919
229.377
229.828
230.27
230.702
231.122
231.545
117.762
120.333
122.851
125.334
127.804
130.274
132.758
135.276
137.863
140.467
142.842
145.101
147.334
149.554
151.762
153.953
156.127
158.281
160.415
162.525
164.612
166.673
168.707
170.713
172.691
174.637
176.553
178.436
180.291
182.117
183.902
185.593
187.241
188.862
190.461
192.041
193.601
195.142
196.663
198.166
199.651
201.117
202.565
203.995
205.406
206.8
208.176
209.533
210.873
212.194
213.497
214.783
216.049
217.298
218.528
219.739
220.932
222.106
223.261
224.398
225.514
226.607
227.67
228.717
229.74
230.743
231.729
232.697
233.647
234.579
235.491
236.386
237.261
238.117
238.953
239.77
240.567
241.345
242.102
242.84
243.557
244.254
244.93
245.586
246.222
246.836
247.43
248.004
248.556
249.088
249.599
250.09
250.559
251.009
251.438
251.847
252.235
252.602
252.94
253.323
286.123
283.923
281.498
279.136
276.838
274.562
272.287
269.988
267.572
265.012
263.079
261.209
259.341
257.532
255.786
254.102
252.482
250.931
249.45
248.041
246.707
245.448
244.266
243.162
242.135
241.184
240.307
239.504
238.776
238.11
237.478
236.984
236.501
236.02
235.587
235.206
234.873
234.585
234.341
234.14
233.981
233.862
233.783
233.74
233.734
233.762
233.823
233.916
234.038
234.188
234.365
234.567
234.793
235.041
235.309
235.596
235.902
236.224
236.561
236.912
237.27
237.617
237.984
238.387
238.752
239.118
239.504
239.904
240.315
240.736
241.166
241.605
242.05
242.503
242.96
243.423
243.889
244.359
244.831
245.304
245.779
246.253
246.727
247.2
247.671
248.14
248.606
249.068
249.526
249.98
250.428
250.87
251.306
251.735
252.157
252.571
252.976
253.365
253.722
254.44
-34.5908
-23.9541
-15.3941
-5.73661
4.56188
15.1613
26.1714
38.1132
49.2099
53.4758
57.2011
64.4992
72.3432
79.9042
87.361
94.7401
102.036
109.228
116.314
123.28
130.125
136.836
143.416
149.856
156.158
162.304
168.292
174.183
180.075
185.498
189.297
192.987
197.797
202.331
206.702
210.974
215.157
219.241
223.229
227.118
230.913
234.609
238.21
241.714
245.124
248.438
251.659
254.785
257.819
260.761
263.612
266.371
269.042
271.628
274.135
276.56
278.903
281.163
283.351
285.471
287.473
289.194
290.857
292.927
294.716
296.374
297.991
299.559
301.073
302.531
303.935
305.286
306.586
307.833
309.032
310.181
311.283
312.338
313.348
314.313
315.235
316.116
316.956
317.757
318.52
319.246
319.938
320.595
321.22
321.813
322.377
322.911
323.419
323.9
324.357
324.793
325.202
325.523
325.748
327.384
287.399
286.815
286.272
285.944
285.707
285.508
285.366
285.28
285.257
285.285
285.362
285.481
285.644
285.843
286.083
286.364
286.67
286.998
287.372
287.782
288.221
288.687
289.18
289.698
290.242
290.81
291.402
292.016
292.653
293.316
293.998
294.644
295.262
296.054
296.93
297.71
298.488
299.29
300.11
300.945
301.794
302.657
303.533
304.425
305.341
306.256
307.016
307.749
308.896
310.128
311.095
312.035
313.002
313.985
314.976
315.984
317.023
318.034
318.667
319.398
320.979
322.551
323.605
324.642
325.774
326.751
326.825
328.802
331.209
330.823
261.476
261.795
262.616
263.444
264.202
264.935
265.666
266.39
267.112
267.831
268.554
269.275
269.997
270.717
271.436
272.154
272.871
273.586
274.303
275.019
275.737
276.454
277.174
277.893
278.616
279.339
280.064
280.792
281.522
282.254
282.99
283.727
284.465
285.21
285.962
286.709
287.458
288.211
288.968
289.728
290.492
291.26
292.033
292.809
293.591
294.377
295.161
295.944
296.747
297.558
298.352
299.147
299.948
300.755
301.567
302.383
303.206
304.034
304.849
305.664
306.529
307.394
308.221
309.053
309.904
310.766
311.579
312.504
313.559
314.144
252.065
252.475
253.313
254.15
254.926
255.686
256.452
257.219
257.989
258.759
259.531
260.302
261.072
261.84
262.606
263.371
264.134
264.895
265.654
266.412
267.169
267.925
268.68
269.433
270.187
270.939
271.692
272.443
273.194
273.945
274.695
275.445
276.193
276.938
277.684
278.425
279.165
279.905
280.645
281.383
282.122
282.859
283.597
284.333
285.07
285.806
286.541
287.27
287.995
288.719
289.436
290.151
290.867
291.582
292.296
293.009
293.723
294.436
295.148
295.846
296.54
297.23
297.913
298.596
299.284
299.977
300.663
301.333
302.066
302.603
240.4
240.897
241.8
242.681
243.502
244.315
245.138
245.964
246.793
247.621
248.45
249.277
250.104
250.927
251.749
252.568
253.386
254.2
255.014
255.824
256.634
257.442
258.249
259.053
259.858
260.661
261.464
262.266
263.067
263.867
264.669
265.468
266.266
267.06
267.853
268.641
269.428
270.215
271.002
271.787
272.574
273.359
274.146
274.932
275.72
276.507
277.295
278.076
278.854
279.627
280.393
281.159
281.929
282.698
283.47
284.242
285.018
285.796
286.573
287.338
288.098
288.849
289.591
290.339
291.097
291.863
292.622
293.373
294.173
294.771
234.744
235.223
236.079
236.923
237.718
238.51
239.311
240.116
240.922
241.727
242.532
243.336
244.139
244.941
245.742
246.54
247.338
248.134
248.929
249.722
250.514
251.304
252.095
252.884
253.673
254.461
255.25
256.037
256.825
257.612
258.401
259.188
259.974
260.756
261.536
262.311
263.086
263.861
264.638
265.413
266.19
266.966
267.743
268.521
269.301
270.081
270.864
271.638
272.408
273.171
273.929
274.688
275.452
276.216
276.985
277.754
278.529
279.306
280.086
280.851
281.608
282.354
283.095
283.845
284.609
285.383
286.152
286.91
287.714
288.324
228.104
228.61
229.48
230.337
231.147
231.956
232.772
233.588
234.401
235.212
236.022
236.831
237.638
238.445
239.25
240.054
240.856
241.657
242.457
243.254
244.051
244.846
245.641
246.435
247.229
248.021
248.814
249.606
250.399
251.191
251.985
252.777
253.569
254.355
255.138
255.916
256.695
257.474
258.254
259.032
259.813
260.592
261.374
262.155
262.939
263.724
264.51
265.289
266.06
266.822
267.579
268.338
269.101
269.865
270.633
271.401
272.175
272.951
273.731
274.496
275.249
275.986
276.722
277.469
278.23
279.004
279.776
280.536
281.332
281.954
224.519
225.014
225.854
226.685
227.473
228.257
229.047
229.835
230.621
231.405
232.189
232.971
233.753
234.535
235.315
236.095
236.874
237.651
238.428
239.203
239.978
240.75
241.524
242.296
243.068
243.839
244.612
245.383
246.156
246.928
247.702
248.476
249.249
250.015
250.778
251.537
252.297
253.057
253.818
254.579
255.342
256.104
256.869
257.633
258.401
259.17
259.941
260.705
261.459
262.202
262.941
263.684
264.431
265.179
265.931
266.684
267.444
268.207
268.974
269.725
270.461
271.178
271.897
272.629
273.377
274.14
274.902
275.649
276.425
277.04
221.164
221.676
222.506
223.321
224.091
224.856
225.625
226.391
227.155
227.918
228.679
229.44
230.201
230.961
231.721
232.479
233.237
233.993
234.75
235.503
236.257
237.009
237.761
238.512
239.263
240.014
240.765
241.516
242.269
243.02
243.774
244.528
245.281
246.028
246.77
247.508
248.248
248.988
249.73
250.471
251.215
251.958
252.705
253.451
254.202
254.954
255.709
256.457
257.195
257.92
258.643
259.37
260.103
260.837
261.577
262.319
263.068
263.821
264.58
265.324
266.048
266.752
267.46
268.183
268.923
269.678
270.434
271.175
271.933
272.545
219.214
219.713
220.509
221.287
222.023
222.755
223.492
224.227
224.961
225.693
226.425
227.156
227.888
228.619
229.351
230.081
230.812
231.541
232.27
232.997
233.725
234.45
235.176
235.901
236.628
237.353
238.08
238.806
239.535
240.263
240.994
241.724
242.455
243.178
243.897
244.611
245.329
246.046
246.766
247.485
248.207
248.929
249.655
250.381
251.111
251.843
252.579
253.307
254.024
254.726
255.428
256.134
256.847
257.561
258.281
259.005
259.735
260.472
261.214
261.941
262.645
263.328
264.016
264.722
265.445
266.187
266.929
267.656
268.393
268.993
218.263
218.758
219.527
220.281
220.996
221.708
222.424
223.138
223.85
224.56
225.269
225.978
226.688
227.396
228.105
228.813
229.521
230.228
230.934
231.638
232.342
233.044
233.747
234.448
235.151
235.852
236.555
237.257
237.961
238.665
239.371
240.078
240.783
241.482
242.174
242.862
243.554
244.246
244.939
245.632
246.328
247.024
247.723
248.422
249.125
249.831
250.54
251.242
251.931
252.602
253.274
253.951
254.634
255.318
256.008
256.7
257.4
258.106
258.818
259.514
260.185
260.831
261.485
262.158
262.85
263.56
264.273
264.971
265.671
266.248
217.581
218.055
218.786
219.502
220.183
220.862
221.546
222.228
222.909
223.588
224.268
224.946
225.627
226.306
226.986
227.665
228.345
229.024
229.703
230.38
231.057
231.733
232.409
233.085
233.761
234.438
235.115
235.793
236.473
237.153
237.836
238.519
239.202
239.878
240.547
241.212
241.882
242.551
243.223
243.895
244.569
245.244
245.922
246.602
247.285
247.971
248.661
249.344
250.013
250.664
251.315
251.973
252.636
253.301
253.972
254.647
255.328
256.017
256.712
257.392
258.043
258.669
259.305
259.96
260.634
261.329
262.026
262.71
263.389
263.954
218.615
219.076
219.772
220.455
221.106
221.754
222.406
223.056
223.705
224.353
225
225.647
226.295
226.942
227.59
228.236
228.883
229.529
230.175
230.818
231.461
232.103
232.745
233.386
234.029
234.67
235.314
235.957
236.602
237.247
237.895
238.544
239.193
239.833
240.466
241.096
241.73
242.364
243
243.637
244.276
244.916
245.56
246.205
246.854
247.506
248.163
248.813
249.448
250.063
250.68
251.304
251.935
252.568
253.208
253.852
254.504
255.165
255.832
256.485
257.106
257.699
258.304
258.93
259.577
260.246
260.919
261.577
262.22
262.759
218.792
219.234
219.899
220.552
221.175
221.797
222.423
223.049
223.673
224.296
224.92
225.543
226.167
226.79
227.414
228.038
228.662
229.285
229.908
230.53
231.151
231.771
232.391
233.011
233.632
234.253
234.875
235.497
236.122
236.747
237.374
238.004
238.632
239.253
239.865
240.475
241.088
241.703
242.319
242.935
243.555
244.175
244.799
245.425
246.054
246.688
247.326
247.957
248.571
249.167
249.763
250.368
250.979
251.593
252.213
252.838
253.472
254.114
254.764
255.4
256.001
256.576
257.162
257.772
258.402
259.056
259.713
260.36
260.984
261.514
222.381
222.806
223.436
224.059
224.653
225.245
225.84
226.433
227.025
227.615
228.205
228.795
229.384
229.973
230.561
231.148
231.735
232.322
232.907
233.491
234.073
234.653
235.234
235.814
236.394
236.974
237.555
238.136
238.718
239.301
239.887
240.474
241.06
241.636
242.203
242.767
243.335
243.904
244.474
245.045
245.618
246.192
246.769
247.349
247.932
248.519
249.111
249.695
250.259
250.802
251.346
251.899
252.458
253.021
253.589
254.163
254.745
255.337
255.937
256.521
257.065
257.578
258.106
258.659
259.235
259.838
260.446
261.039
261.601
262.08
223.006
223.392
223.984
224.577
225.143
225.706
226.274
226.841
227.406
227.971
228.535
229.099
229.663
230.227
230.79
231.353
231.917
232.48
233.042
233.603
234.162
234.721
235.28
235.838
236.397
236.957
237.517
238.078
238.641
239.204
239.771
240.34
240.907
241.466
242.014
242.561
243.112
243.664
244.217
244.772
245.329
245.888
246.45
247.015
247.584
248.158
248.736
249.307
249.859
250.389
250.921
251.462
252.01
252.561
253.118
253.681
254.253
254.834
255.423
255.998
256.534
257.04
257.56
258.106
258.674
259.269
259.867
260.457
261.012
261.494
231.474
231.816
232.355
232.905
233.427
233.944
234.461
234.978
235.491
236.003
236.513
237.023
237.53
238.036
238.541
239.044
239.546
240.047
240.546
241.041
241.535
242.026
242.516
243.005
243.494
243.982
244.47
244.958
245.447
245.937
246.428
246.922
247.413
247.893
248.359
248.823
249.291
249.759
250.229
250.699
251.172
251.646
252.124
252.604
253.089
253.578
254.073
254.56
255.019
255.451
255.887
256.333
256.786
257.244
257.709
258.182
258.664
259.159
259.664
260.15
260.581
260.976
261.392
261.839
262.313
262.82
263.34
263.835
264.278
264.667
231.987
232.159
232.616
233.125
233.601
234.065
234.533
235
235.467
235.932
236.396
236.86
237.323
237.785
238.246
238.706
239.167
239.627
240.086
240.543
240.998
241.453
241.907
242.361
242.815
243.27
243.726
244.183
244.641
245.102
245.566
246.033
246.499
246.954
247.395
247.836
248.282
248.731
249.181
249.634
250.09
250.55
251.014
251.482
251.955
252.436
252.922
253.402
253.856
254.285
254.72
255.168
255.623
256.084
256.553
257.031
257.519
258.021
258.532
259.028
259.475
259.89
260.326
260.792
261.284
261.807
262.336
262.858
263.328
263.751
253.78
253.757
254.09
254.52
254.906
255.265
255.621
255.973
256.319
256.658
256.992
257.319
257.641
257.957
258.268
258.572
258.873
259.17
259.461
259.745
260.023
260.296
260.565
260.829
261.091
261.35
261.608
261.864
262.12
262.377
262.635
262.895
263.151
263.385
263.597
263.807
264.02
264.234
264.449
264.666
264.886
265.11
265.339
265.573
265.814
266.064
266.324
266.57
266.765
266.92
267.085
267.267
267.459
267.662
267.878
268.109
268.358
268.628
268.917
269.175
269.332
269.443
269.595
269.797
270.043
270.345
270.682
270.953
271.141
271.336
255.081
253.508
253.445
253.93
254.263
254.495
254.728
254.97
255.206
255.434
255.656
255.872
256.083
256.289
256.489
256.684
256.875
257.065
257.248
257.426
257.599
257.768
257.934
258.097
258.258
258.418
258.577
258.735
258.895
259.056
259.219
259.385
259.549
259.693
259.815
259.94
260.071
260.203
260.338
260.477
260.62
260.769
260.924
261.085
261.255
261.433
261.622
261.803
261.942
262.05
262.171
262.31
262.462
262.625
262.803
262.995
263.205
263.435
263.682
263.909
264.067
264.195
264.358
264.565
264.81
265.101
265.408
265.685
265.924
266.13
329.915
324.632
322.798
322.637
322.196
321.48
320.765
320.087
319.407
318.718
318.024
317.327
316.627
315.923
315.216
314.504
313.792
313.081
312.363
311.64
310.911
310.18
309.447
308.713
307.98
307.249
306.521
305.797
305.078
304.366
303.661
302.966
302.262
301.498
300.678
299.861
299.05
298.241
297.434
296.633
295.838
295.054
294.279
293.518
292.771
292.042
291.333
290.589
289.699
288.708
287.732
286.781
285.846
284.931
284.041
283.182
282.357
281.574
280.836
280.006
278.886
277.636
276.473
275.417
274.466
273.638
272.941
271.945
270.761
269.848
321.931
307.264
296.345
288.525
282.66
278.142
274.655
271.955
269.835
268.139
266.751
265.59
264.596
263.731
262.967
262.286
261.675
261.127
260.632
260.185
259.782
259.417
259.087
258.788
258.517
258.272
258.049
257.847
257.663
257.496
257.343
257.204
257.076
256.96
256.853
256.754
256.664
256.581
256.504
256.433
256.368
256.308
256.252
256.201
256.153
256.108
256.067
256.027
255.99
255.955
255.921
255.889
255.858
255.827
255.797
255.768
255.738
255.709
255.68
255.65
255.621
255.59
255.559
255.528
255.495
255.462
255.428
255.394
255.358
255.323
255.289
255.257
255.227
255.199
255.169
313.168
305.147
297.654
291.974
287.097
282.69
278.884
275.699
273.041
270.82
268.97
267.429
266.138
265.049
264.118
263.314
262.614
261.997
261.451
260.964
260.527
260.131
259.772
259.445
259.145
258.871
258.619
258.388
258.176
257.983
257.806
257.644
257.497
257.362
257.239
257.126
257.022
256.926
256.838
256.756
256.68
256.609
256.543
256.482
256.424
256.371
256.32
256.273
256.228
256.185
256.144
256.105
256.068
256.031
255.995
255.96
255.925
255.89
255.856
255.822
255.787
255.752
255.716
255.68
255.643
255.605
255.566
255.526
255.485
255.442
255.398
255.353
255.308
255.259
255.19
303.13
298.027
292.666
288.856
285.688
282.62
279.766
277.239
274.995
272.98
271.173
269.566
268.139
266.871
265.744
264.743
263.858
263.078
262.396
261.801
261.282
260.83
260.431
260.076
259.756
259.465
259.197
258.949
258.72
258.507
258.31
258.128
257.96
257.806
257.665
257.536
257.417
257.308
257.207
257.113
257.025
256.944
256.867
256.796
256.728
256.665
256.605
256.549
256.496
256.446
256.398
256.352
256.308
256.265
256.223
256.182
256.142
256.102
256.062
256.022
255.982
255.942
255.901
255.859
255.817
255.773
255.728
255.68
255.63
255.578
255.522
255.461
255.397
255.323
255.206
296.099
292.838
289.021
286.27
283.843
281.322
278.896
276.74
274.842
273.145
271.625
270.27
269.057
267.962
266.962
266.04
265.187
264.4
263.677
263.02
262.427
261.896
261.422
260.996
260.613
260.265
259.946
259.654
259.383
259.133
258.903
258.691
258.497
258.32
258.16
258.014
257.881
257.761
257.65
257.548
257.453
257.363
257.278
257.197
257.12
257.046
256.975
256.908
256.844
256.782
256.724
256.669
256.616
256.565
256.516
256.469
256.423
256.377
256.332
256.287
256.242
256.196
256.15
256.103
256.055
256.005
255.952
255.897
255.838
255.774
255.703
255.626
255.539
255.44
255.267
289.938
287.422
284.496
282.649
281.076
279.319
277.527
275.865
274.332
272.894
271.551
270.317
269.194
268.174
267.244
266.392
265.609