/*--------------------------------*- C++ -*----------------------------------*\
  =========                 |
  \\      /  F ield         | OpenFOAM: The Open Source CFD Toolbox
   \\    /   O peration     | Website:  https://openfoam.org
    \\  /    A nd           | Version:  6.0
     \\/     M anipulation  |
\*---------------------------------------------------------------------------*/
FoamFile
{
    version     2.0;
    format      ascii;
    class       volVectorField;
    location    "250";
    object      U;
}
// * * * * * * * * * * * * * * * * * * * * * * * * * * * * * * * * * * * * * //

dimensions      [0 1 -1 0 0 0 0];

internalField   nonuniform List<vector> 
9800
(
(21.8866 4.56227 -1.03404e-15)
(21.9506 4.50677 -6.6711e-16)
(22.0005 4.44388 1.84062e-15)
(22.0426 4.37616 7.84906e-16)
(22.0793 4.30627 -2.26984e-15)
(22.1124 4.23577 1.38472e-15)
(22.1429 4.1655 -5.6821e-16)
(22.1715 4.09593 -6.05234e-16)
(22.1988 4.0272 1.16932e-15)
(22.2249 3.95926 -7.92052e-16)
(22.2504 3.89258 3.76e-16)
(22.2754 3.82676 5.1279e-17)
(22.3 3.76193 -4.91207e-16)
(22.3241 3.69803 3.47304e-16)
(22.3478 3.63503 -1.32463e-16)
(22.371 3.57295 -5.5818e-17)
(22.3936 3.51181 -9.45645e-17)
(22.4154 3.45172 2.26783e-16)
(22.4359 3.39287 -4.3173e-16)
(22.4547 3.33563 -1.02148e-16)
(22.4709 3.28082 6.77422e-16)
(22.4831 3.23035 1.99148e-16)
(22.4896 3.18756 -1.55303e-16)
(22.4926 3.14978 -1.18543e-16)
(22.4938 3.10629 -8.84888e-16)
(22.4916 3.0537 1.26138e-15)
(22.4868 2.99566 7.48036e-17)
(22.48 2.93437 -1.79333e-15)
(22.472 2.87088 -8.74402e-17)
(22.4632 2.80569 1.74772e-15)
(22.454 2.73898 -5.01155e-16)
(22.4447 2.67128 -7.41932e-16)
(22.4352 2.60235 7.93787e-16)
(22.4258 2.53219 6.32425e-16)
(22.4164 2.46084 9.56236e-16)
(22.4071 2.38827 -1.27706e-15)
(22.3979 2.31445 1.87917e-16)
(22.3888 2.23931 -6.04137e-16)
(22.3798 2.1628 -2.55959e-16)
(22.371 2.08485 -6.53944e-16)
(22.3622 2.00536 8.01678e-16)
(22.3535 1.92424 6.0651e-16)
(22.3448 1.84139 5.57439e-16)
(22.3361 1.7567 7.16457e-16)
(22.3273 1.67003 -3.63457e-15)
(22.3185 1.58126 9.8393e-16)
(22.3096 1.49023 2.55563e-15)
(22.3006 1.39679 -1.43595e-15)
(22.2914 1.30074 -1.00303e-15)
(22.2819 1.2019 1.25113e-15)
(22.2721 1.10004 -3.39309e-15)
(22.262 0.994917 -2.22754e-16)
(22.2514 0.88627 2.79347e-15)
(22.2404 0.773791 -7.85234e-17)
(22.2288 0.657146 -1.55094e-16)
(22.2164 0.535953 -2.2561e-15)
(22.2033 0.409787 3.63825e-15)
(22.1892 0.278159 -2.10087e-15)
(22.174 0.140511 -2.70109e-16)
(22.1576 -0.00379618 1.47688e-15)
(22.1395 -0.155522 1.24102e-15)
(22.1197 -0.315524 -2.43485e-15)
(22.0976 -0.484698 1.22131e-15)
(22.0727 -0.664399 -1.53926e-15)
(22.0444 -0.856095 1.46979e-15)
(22.0115 -1.06153 -1.12741e-15)
(21.9726 -1.28287 2.34017e-15)
(21.9254 -1.52284 -2.40985e-15)
(21.8667 -1.7849 1.82693e-15)
(21.7913 -2.07364 -2.8067e-15)
(21.691 -2.39523 1.27467e-15)
(21.5533 -2.75853 5.47573e-17)
(21.3571 -3.17657 2.45715e-15)
(21.0719 -3.66974 -3.16605e-15)
(20.6296 -4.28034 6.8201e-16)
(19.9951 -5.03346 3.06644e-16)
(18.788 -6.32868 2.97288e-16)
(17.6447 -6.95493 -6.69512e-16)
(16.4085 -7.73169 -4.1107e-16)
(15.6137 -7.81646 -1.87451e-15)
(15.2014 -7.44357 9.7865e-16)
(14.8867 -7.15086 -1.24781e-15)
(14.5608 -6.83919 2.53813e-15)
(14.2497 -6.53166 -2.27601e-16)
(13.9721 -6.23648 2.40354e-15)
(13.7155 -5.95506 -5.19942e-16)
(13.4641 -5.68216 -1.73304e-15)
(13.2147 -5.41401 -1.26268e-15)
(12.971 -5.14938 3.74319e-15)
(12.7352 -4.88751 -5.91365e-16)
(12.5052 -4.62685 -1.5533e-15)
(12.2769 -4.36495 1.42581e-15)
(12.0462 -4.09878 -1.7315e-15)
(11.8095 -3.82469 2.36975e-15)
(11.5635 -3.53836 -3.78648e-16)
(11.3059 -3.23447 -4.12559e-16)
(11.0348 -2.90807 -1.10521e-15)
(10.7486 -2.54284 1.65553e-15)
(10.4438 -2.19988 -4.32258e-16)
(10.1239 -1.3056 3.16254e-17)
(19.7088 5.01121 9.28967e-16)
(19.7287 4.92379 6.29713e-16)
(19.7464 4.8291 -5.5687e-16)
(19.7648 4.7318 3.95177e-16)
(19.7824 4.6318 -1.14762e-15)
(19.7987 4.53002 5.56842e-16)
(19.8138 4.42704 -1.0532e-16)
(19.8275 4.32335 1.31303e-15)
(19.8399 4.2193 -2.40603e-15)
(19.8509 4.11495 3.46219e-16)
(19.8606 4.01047 1.64062e-16)
(19.8696 3.90615 4.18366e-16)
(19.8778 3.8022 -6.32325e-17)
(19.885 3.69862 -3.89502e-16)
(19.8913 3.59555 4.05273e-16)
(19.8966 3.49317 1.60155e-17)
(19.9007 3.39177 -2.1021e-16)
(19.9037 3.29178 3.82688e-16)
(19.9053 3.19383 -1.02254e-15)
(19.9053 3.09881 1.15037e-15)
(19.9035 3.00781 -4.5917e-16)
(19.9003 2.92287 -1.76768e-15)
(19.8972 2.8491 7.01565e-17)
(19.9018 2.78447 -2.1893e-16)
(19.9163 2.71386 2.54918e-15)
(19.9344 2.6323 -3.87281e-16)
(19.953 2.54393 -1.8048e-15)
(19.9712 2.45076 -2.21391e-15)
(19.9888 2.35398 2.76228e-15)
(20.0059 2.25456 4.30913e-16)
(20.0223 2.15299 9.69807e-16)
(20.0381 2.04974 1.85417e-15)
(20.0536 1.94514 -1.90873e-15)
(20.0687 1.83939 -1.92584e-16)
(20.0833 1.73257 -1.82085e-15)
(20.0976 1.62472 1.99309e-15)
(20.1115 1.51582 8.61737e-16)
(20.1251 1.40585 -1.89778e-15)
(20.1384 1.29474 1.49058e-16)
(20.1513 1.18242 -7.6746e-16)
(20.1639 1.06878 4.10577e-16)
(20.1761 0.953712 -4.49291e-15)
(20.188 0.837104 8.65468e-15)
(20.1995 0.718814 -5.39227e-15)
(20.2106 0.598701 -1.6618e-15)
(20.2213 0.476602 1.68641e-15)
(20.2316 0.352349 -4.12313e-15)
(20.2414 0.225752 2.27311e-15)
(20.2508 0.096615 1.06365e-15)
(20.2595 -0.0352873 4.55518e-15)
(20.2677 -0.170188 -6.75259e-15)
(20.2752 -0.308353 7.21394e-15)
(20.282 -0.450062 -3.18643e-17)
(20.288 -0.595634 -5.5317e-16)
(20.2932 -0.745411 -3.54426e-16)
(20.2973 -0.899783 -1.07437e-15)
(20.3004 -1.05918 -3.38873e-15)
(20.3022 -1.22407 1.65251e-15)
(20.3026 -1.39499 1.41316e-15)
(20.3013 -1.57254 1.51817e-16)
(20.2982 -1.75738 -1.79965e-15)
(20.2928 -1.95031 -8.05641e-16)
(20.2849 -2.1523 2.86719e-15)
(20.274 -2.36424 -6.63819e-16)
(20.2596 -2.58723 -3.88143e-15)
(20.2407 -2.82256 4.31333e-15)
(20.2167 -3.07164 -3.5756e-15)
(20.1862 -3.33613 5.63747e-15)
(20.1481 -3.61773 -4.14066e-15)
(20.1005 -3.91837 -5.53038e-17)
(20.0415 -4.23978 4.94961e-15)
(19.9687 -4.58355 -2.09393e-15)
(19.8787 -4.95008 -1.09363e-15)
(19.7693 -5.3376 1.7398e-17)
(19.6296 -5.74131 -4.69927e-16)
(19.4652 -6.13774 1.1398e-15)
(19.2102 -6.52652 3.49045e-16)
(18.9079 -6.66933 -1.01863e-15)
(18.5257 -6.58141 1.79014e-15)
(18.018 -6.36852 -7.12167e-16)
(17.4827 -6.09036 3.56171e-16)
(16.9979 -5.83412 2.94788e-17)
(16.5776 -5.5928 -2.24432e-15)
(16.196 -5.35333 -1.22512e-15)
(15.8372 -5.11404 1.05764e-15)
(15.4988 -4.87725 5.24932e-16)
(15.1827 -4.64209 8.27485e-16)
(14.8886 -4.40552 -1.96249e-15)
(14.6146 -4.16512 -3.34283e-16)
(14.3583 -3.91946 9.53618e-17)
(14.1173 -3.6673 -1.18174e-15)
(13.8892 -3.40698 3.36957e-15)
(13.672 -3.13636 -2.68667e-15)
(13.4648 -2.85275 1.10441e-15)
(13.268 -2.55285 7.45923e-17)
(13.0838 -2.23274 6.21729e-16)
(12.915 -1.88793 1.85514e-17)
(12.7676 -1.51305 -1.17976e-15)
(12.6457 -1.10505 1.06728e-16)
(12.5617 -0.642523 1.19274e-16)
(20.6116 4.85695 -2.21842e-15)
(20.608 4.75213 9.9433e-16)
(20.6049 4.65578 -7.3642e-16)
(20.6037 4.56468 7.80232e-17)
(20.603 4.47699 -3.11811e-16)
(20.6024 4.39156 1.46342e-15)
(20.6013 4.30748 -8.86336e-16)
(20.5994 4.2242 1.05216e-15)
(20.5965 4.14143 -1.14259e-17)
(20.5924 4.05893 -1.79768e-15)
(20.5871 3.97597 1.43651e-15)
(20.5806 3.89354 -4.9327e-16)
(20.5727 3.81084 5.01264e-17)
(20.5634 3.72795 1.30183e-16)
(20.5528 3.64484 -1.23148e-16)
(20.5409 3.56151 -1.99697e-17)
(20.5278 3.47789 -1.97359e-16)
(20.5139 3.39394 1.93436e-16)
(20.4993 3.30952 5.56233e-16)
(20.4847 3.22437 -1.99871e-16)
(20.4709 3.13773 -2.95692e-17)
(20.4594 3.04807 -9.84123e-16)
(20.4537 2.95533 -1.21906e-15)
(20.4618 2.86312 1.96983e-15)
(20.484 2.7738 -4.06755e-16)
(20.5114 2.68863 1.70121e-15)
(20.5406 2.60679 -1.61243e-15)
(20.5704 2.52637 2.12955e-15)
(20.6002 2.44634 -3.48328e-15)
(20.6295 2.3663 1.20068e-15)
(20.6579 2.28612 -5.30006e-16)
(20.6852 2.20509 1.31858e-16)
(20.7114 2.12392 1.64787e-15)
(20.7366 2.04223 5.0156e-16)
(20.7606 1.95996 1.37612e-15)
(20.7834 1.87707 -2.14106e-15)
(20.805 1.79351 -7.4156e-16)
(20.8253 1.7092 2.7035e-15)
(20.8445 1.62406 -1.3496e-15)
(20.8624 1.53802 1.60851e-15)
(20.8792 1.45097 -1.0334e-15)
(20.8947 1.36283 7.46304e-16)
(20.9091 1.27348 -2.58808e-15)
(20.9222 1.18282 -2.31655e-15)
(20.9341 1.09071 2.29756e-15)
(20.9447 0.99704 1.48006e-15)
(20.954 0.901659 2.46493e-15)
(20.962 0.804417 -3.19442e-15)
(20.9686 0.705161 -4.84158e-16)
(20.9736 0.60371 2.27233e-15)
(20.9772 0.499888 -6.47814e-16)
(20.9791 0.393486 2.8678e-15)
(20.9791 0.284296 -6.18158e-16)
(20.9773 0.172077 -1.98368e-15)
(20.9734 0.0565835 6.27772e-16)
(20.9671 -0.0624677 -2.57905e-15)
(20.9583 -0.185362 4.36525e-15)
(20.9467 -0.31244 -1.70912e-15)
(20.932 -0.444034 -1.57683e-15)
(20.9136 -0.580537 1.37858e-15)
(20.8912 -0.722329 -1.73011e-16)
(20.8641 -0.869853 -2.74437e-15)
(20.8316 -1.02358 2.10215e-15)
(20.7928 -1.18389 1.48299e-16)
(20.7467 -1.3513 1.38696e-15)
(20.6921 -1.5263 -2.18401e-15)
(20.6272 -1.70929 1.80745e-15)
(20.5501 -1.90065 -1.43657e-15)
(20.4583 -2.10058 -1.51125e-15)
(20.3488 -2.3091 3.12632e-15)
(20.2174 -2.52587 -2.41671e-15)
(20.0593 -2.75012 2.70856e-15)
(19.8681 -2.98033 1.2363e-15)
(19.6361 -3.21401 -3.82077e-15)
(19.3534 -3.44726 1.50965e-15)
(19.0114 -3.67436 1.07327e-16)
(18.5983 -3.88525 -1.50704e-15)
(18.1212 -4.06514 1.02024e-15)
(17.6204 -4.1969 1.69182e-15)
(17.1384 -4.27794 -9.94709e-16)
(16.7064 -4.30029 -4.53998e-16)
(16.3254 -4.27794 8.88861e-16)
(15.9767 -4.22253 1.08368e-15)
(15.6471 -4.14038 -5.02496e-15)
(15.3367 -4.03571 2.59938e-15)
(15.0509 -3.91235 1.65232e-15)
(14.7902 -3.77287 -1.83138e-15)
(14.5507 -3.61889 -6.95889e-16)
(14.3282 -3.45182 1.73347e-15)
(14.12 -3.2731 -2.06788e-15)
(13.9248 -3.08377 2.41254e-16)
(13.7412 -2.8845 2.23804e-15)
(13.5689 -2.67549 -5.22169e-16)
(13.4088 -2.45648 -3.21736e-16)
(13.2629 -2.22691 -9.56529e-16)
(13.1335 -1.98608 1.07982e-15)
(13.0238 -1.73351 1.67135e-16)
(12.9352 -1.46856 -7.97433e-16)
(12.8806 -1.19429 1.1523e-16)
(12.8231 -0.901006 -4.21809e-17)
(20.4601 4.69383 2.76918e-15)
(20.5052 4.61201 -1.77204e-15)
(20.5426 4.53209 -2.97297e-17)
(20.5749 4.45241 2.2507e-15)
(20.6031 4.37369 -2.1618e-15)
(20.6284 4.29596 -2.72996e-16)
(20.6511 4.21926 3.43877e-16)
(20.6717 4.1435 4.43053e-17)
(20.6905 4.06861 -7.68923e-16)
(20.7077 3.99452 1.08225e-15)
(20.7239 3.92129 -8.39315e-18)
(20.7388 3.84879 -4.98818e-18)
(20.7523 3.77662 -6.59184e-17)
(20.7645 3.70478 1.09548e-16)
(20.7755 3.63305 6.59644e-18)
(20.7853 3.56122 2.58824e-17)
(20.794 3.48904 2.7572e-17)
(20.8016 3.41613 -2.51517e-17)
(20.8083 3.34203 2.55816e-16)
(20.8141 3.26619 -1.1677e-16)
(20.819 3.18793 4.35096e-17)
(20.8231 3.10602 -1.75423e-15)
(20.8277 3.01899 1.79035e-15)
(20.8358 2.92919 3.48347e-16)
(20.8469 2.84196 -2.30005e-15)
(20.8571 2.75935 1.13109e-15)
(20.8656 2.67994 -9.29263e-16)
(20.8727 2.60237 2.99906e-15)
(20.8785 2.52593 -1.74358e-15)
(20.883 2.45003 7.88141e-16)
(20.8863 2.3743 -1.50315e-15)
(20.8884 2.29824 -6.03927e-16)
(20.8895 2.22179 1.50618e-15)
(20.8896 2.14459 7.67333e-17)
(20.8887 2.06646 -1.89975e-15)
(20.8867 1.98726 2.32783e-15)
(20.8836 1.90689 -4.70963e-16)
(20.8794 1.82523 -1.86961e-16)
(20.874 1.74219 -9.24228e-16)
(20.8674 1.65768 5.22148e-16)
(20.8596 1.5716 5.28564e-16)
(20.8507 1.48387 6.67019e-16)
(20.8404 1.39439 2.23638e-15)
(20.8288 1.30307 -6.56631e-15)
(20.8158 1.20979 1.21365e-15)
(20.8013 1.11446 4.7597e-15)
(20.7853 1.01696 -6.15973e-15)
(20.7677 0.917166 -2.47087e-16)
(20.7483 0.814948 3.59442e-15)
(20.727 0.710163 1.69556e-15)
(20.7037 0.602675 -4.41061e-15)
(20.6782 0.492319 3.0608e-16)
(20.6503 0.37894 4.31922e-15)
(20.6198 0.262356 -1.03438e-15)
(20.5864 0.142395 -1.75985e-16)
(20.5499 0.0188567 -2.00226e-15)
(20.5099 -0.108446 3.76326e-15)
(20.4661 -0.239719 -3.50794e-15)
(20.418 -0.375154 2.34721e-15)
(20.3652 -0.514961 -3.28222e-16)
(20.307 -0.659324 -1.12302e-15)
(20.2429 -0.808399 1.12757e-15)
(20.1723 -0.962231 7.00303e-17)
(20.0942 -1.12101 3.9332e-16)
(20.0076 -1.28481 -3.779e-15)
(19.9117 -1.4536 1.69059e-15)
(19.8051 -1.62719 -1.40432e-15)
(19.6868 -1.80529 2.03352e-15)
(19.5552 -1.98733 1.40745e-15)
(19.4091 -2.17249 -3.26277e-15)
(19.2471 -2.35951 -2.54949e-16)
(19.0679 -2.54662 1.68476e-15)
(18.8708 -2.73138 9.80586e-16)
(18.6554 -2.91042 1.3153e-15)
(18.4223 -3.07923 -2.30195e-15)
(18.1735 -3.23215 1.63022e-15)
(17.9125 -3.36151 2.59901e-16)
(17.6437 -3.46042 -2.01121e-15)
(17.3725 -3.5223 3.53328e-15)
(17.1003 -3.54736 -4.84739e-16)
(16.828 -3.53841 -1.18877e-15)
(16.557 -3.50212 -2.53544e-15)
(16.2908 -3.44427 -4.54393e-17)
(16.034 -3.36791 7.43327e-16)
(15.79 -3.27486 2.86171e-15)
(15.56 -3.1672 -3.83891e-15)
(15.3434 -3.04711 4.79823e-15)
(15.1392 -2.91631 -1.95456e-15)
(14.9464 -2.77596 1.38263e-15)
(14.7644 -2.62693 -2.12425e-15)
(14.5927 -2.47003 -1.96156e-16)
(14.4322 -2.30573 1.85518e-15)
(14.2845 -2.13425 -1.78407e-15)
(14.1511 -1.95562 1.28928e-15)
(14.0337 -1.77001 7.38981e-16)
(13.9337 -1.57777 -6.38081e-16)
(13.8527 -1.37958 6.918e-16)
(13.7897 -1.17631 -1.05196e-17)
(13.7552 -0.970688 -2.62327e-16)
(13.7102 -0.761724 -4.88533e-18)
(19.9738 4.61175 -1.87721e-15)
(20.0114 4.53537 2.23564e-15)
(20.0463 4.45857 -4.13968e-16)
(20.0791 4.38188 1.04124e-15)
(20.1099 4.3053 -1.5658e-15)
(20.1387 4.22886 2.01061e-15)
(20.1657 4.15264 -5.42436e-16)
(20.1911 4.07666 4.05299e-16)
(20.215 4.00088 -2.91983e-16)
(20.2378 3.92532 -1.16978e-15)
(20.2597 3.85069 1.56462e-16)
(20.2808 3.77602 2.11837e-16)
(20.301 3.70174 1.38849e-16)
(20.3202 3.62773 -3.11366e-16)
(20.3386 3.55391 1.83311e-16)
(20.356 3.48022 -2.76426e-17)
(20.3724 3.40659 1.23943e-16)
(20.3876 3.33296 8.70433e-17)
(20.4013 3.25924 -2.08938e-16)
(20.4131 3.18543 -5.808e-16)
(20.4228 3.1117 7.09317e-16)
(20.43 3.03842 7.31947e-16)
(20.4353 2.96561 -1.96496e-15)
(20.4404 2.89288 2.80925e-15)
(20.4454 2.81964 -4.90636e-16)
(20.4487 2.74511 -1.6417e-15)
(20.4497 2.66906 -3.67775e-16)
(20.4487 2.59186 2.5693e-15)
(20.4458 2.51383 -3.52499e-15)
(20.4415 2.43503 3.0818e-15)
(20.4361 2.35542 -2.97526e-15)
(20.4298 2.27545 4.69522e-15)
(20.4229 2.19449 -3.91895e-15)
(20.4153 2.11273 1.52387e-15)
(20.4071 2.03012 -1.14693e-15)
(20.3983 1.94656 1.42791e-15)
(20.3889 1.86199 1.2764e-15)
(20.3788 1.77636 -4.11686e-15)
(20.368 1.68961 1.87236e-15)
(20.3565 1.60169 -1.29542e-15)
(20.3441 1.51256 8.38013e-16)
(20.3309 1.42214 -2.5599e-15)
(20.3167 1.33039 3.83032e-15)
(20.3014 1.23724 -2.78993e-15)
(20.2851 1.14265 1.46531e-16)
(20.2676 1.04655 8.87498e-16)
(20.2487 0.948873 3.78513e-15)
(20.2284 0.849558 -3.16792e-15)
(20.2066 0.748545 -5.91283e-16)
(20.183 0.645763 2.40662e-15)
(20.1576 0.541155 -5.17635e-15)
(20.1302 0.434648 5.31042e-15)
(20.1006 0.326189 -5.40848e-16)
(20.0685 0.215712 4.05472e-16)
(20.0339 0.103174 -5.71482e-16)
(19.9963 -0.011479 -3.39845e-15)
(19.9556 -0.128267 3.80064e-15)
(19.9115 -0.24722 2.03268e-15)
(19.8635 -0.368321 -6.17208e-15)
(19.8115 -0.49155 1.43901e-15)
(19.7548 -0.616836 -3.26976e-15)
(19.6933 -0.744058 2.47318e-15)
(19.6264 -0.872979 -9.67479e-16)
(19.5537 -1.00344 1.76042e-15)
(19.4746 -1.13517 -2.71911e-15)
(19.3884 -1.26776 1.07736e-15)
(19.2946 -1.40069 4.10231e-15)
(19.1925 -1.53332 1.16232e-15)
(19.0815 -1.66481 -3.64311e-15)
(18.9611 -1.79415 3.04281e-15)
(18.8306 -1.92013 -2.9462e-15)
(18.6894 -2.04131 8.79785e-16)
(18.5371 -2.15602 3.77517e-15)
(18.3733 -2.26237 -3.12151e-15)
(18.1977 -2.35836 -1.99123e-15)
(18.0103 -2.44188 1.54265e-15)
(17.8114 -2.51102 -2.17274e-15)
(17.6016 -2.56432 2.20211e-16)
(17.3824 -2.60113 2.10142e-15)
(17.1565 -2.62157 -1.47342e-16)
(16.9281 -2.6262 -7.12991e-16)
(16.7016 -2.61569 7.11183e-16)
(16.4808 -2.59077 -1.66272e-15)
(16.2676 -2.55222 9.84856e-16)
(16.0627 -2.50098 -2.63492e-15)
(15.8664 -2.43816 2.4033e-15)
(15.6789 -2.36488 -1.06015e-15)
(15.5002 -2.28214 1.0337e-15)
(15.3305 -2.1907 -9.18523e-16)
(15.1702 -2.09119 -1.33827e-15)
(15.0202 -1.98413 6.29563e-16)
(14.8814 -1.87003 1.64134e-15)
(14.7548 -1.74947 -3.30139e-16)
(14.6409 -1.62312 -1.47808e-16)
(14.5403 -1.49171 -6.85763e-16)
(14.4532 -1.35619 2.6905e-16)
(14.3802 -1.21772 1.18822e-15)
(14.3191 -1.07738 -8.28796e-16)
(14.279 -0.937346 1.56999e-16)
(14.2224 -0.797848 -1.25074e-17)
(19.7392 4.53172 -3.84599e-15)
(19.7654 4.45718 3.05663e-15)
(19.7898 4.38279 -3.05591e-15)
(19.8128 4.30886 2.65467e-15)
(19.8345 4.23519 -1.07505e-15)
(19.8548 4.16173 1.15594e-15)
(19.8737 4.08844 -4.61136e-16)
(19.8914 4.01523 4.31007e-16)
(19.9078 3.94196 -1.61709e-15)
(19.923 3.86861 3.91873e-16)
(19.937 3.79571 3.44798e-16)
(19.9501 3.72248 -1.16405e-16)
(19.962 3.6493 -6.25041e-17)
(19.9728 3.57601 -2.10393e-17)
(19.9825 3.50261 2.8255e-16)
(19.991 3.42913 -1.11126e-16)
(19.9983 3.35561 -2.28535e-16)
(20.0043 3.2821 3.80648e-16)
(20.0088 3.20868 -3.93672e-16)
(20.0117 3.13543 5.58712e-16)
(20.0132 3.06253 -1.61148e-16)
(20.0137 2.99041 -2.54302e-15)
(20.0147 2.91965 3.09204e-15)
(20.0183 2.84998 1.72561e-16)
(20.0247 2.77985 -2.58129e-15)
(20.0321 2.70819 1.92787e-15)
(20.0389 2.63504 -1.30536e-15)
(20.0446 2.56066 2.95059e-15)
(20.0488 2.48524 -2.28633e-15)
(20.0518 2.40888 5.38511e-16)
(20.0536 2.33157 -1.9872e-15)
(20.0545 2.25392 -3.96903e-19)
(20.0544 2.17538 -8.4368e-16)
(20.0533 2.09621 2.83447e-15)
(20.0513 2.01647 1.54365e-15)
(20.0483 1.93608 -1.56073e-15)
(20.0443 1.85504 -4.58226e-17)
(20.0393 1.77332 -6.41075e-16)
(20.0333 1.6909 -9.30628e-16)
(20.0261 1.60774 2.81576e-15)
(20.0177 1.52381 -1.72231e-15)
(20.0081 1.43906 4.86452e-15)
(19.9971 1.35346 -9.41823e-15)
(19.9847 1.26696 -2.64635e-16)
(19.9707 1.17953 6.02803e-15)
(19.9552 1.09111 2.17222e-15)
(19.9379 1.00167 -8.94933e-16)
(19.9188 0.91117 -2.59344e-15)
(19.8977 0.819575 -1.87924e-15)
(19.8746 0.726845 3.40849e-15)
(19.8492 0.632959 -2.08386e-15)
(19.8214 0.537885 -2.15656e-15)
(19.791 0.441613 6.02208e-15)
(19.7579 0.344126 5.93053e-16)
(19.7218 0.245431 -2.72007e-15)
(19.6826 0.145532 -8.19375e-16)
(19.6399 0.0444645 3.09916e-15)
(19.5936 -0.0577319 -4.06153e-15)
(19.5434 -0.160984 -1.02964e-15)
(19.4889 -0.265207 6.79449e-16)
(19.4299 -0.370273 1.76656e-15)
(19.3661 -0.476006 -9.74291e-16)
(19.2972 -0.58216 5.56718e-16)
(19.2228 -0.688515 -6.24369e-16)
(19.1426 -0.794826 2.40032e-15)
(19.056 -0.900735 -2.4821e-15)
(18.9628 -1.00582 2.69993e-15)
(18.8625 -1.1096 -2.8039e-15)
(18.7549 -1.2115 1.36792e-15)
(18.6397 -1.31087 1.88147e-15)
(18.5166 -1.40696 2.89732e-17)
(18.3854 -1.49895 -2.06397e-15)
(18.2463 -1.58594 5.11018e-16)
(18.0993 -1.66695 1.21144e-15)
(17.9449 -1.74098 -3.58986e-15)
(17.7839 -1.80695 4.11704e-15)
(17.6172 -1.86386 -2.76086e-15)
(17.4464 -1.91072 -1.23934e-15)
(17.2732 -1.94667 5.24474e-15)
(17.0995 -1.97104 -1.49898e-15)
(16.927 -1.98348 1.73112e-15)
(16.757 -1.98402 -5.06876e-15)
(16.5902 -1.97308 1.9786e-15)
(16.4271 -1.9513 2.40569e-15)
(16.2682 -1.91941 -1.36977e-15)
(16.1141 -1.87813 6.78625e-16)
(15.9653 -1.82815 -5.10485e-16)
(15.8226 -1.77011 -1.24045e-15)
(15.6867 -1.70459 9.78713e-16)
(15.5584 -1.63214 -2.20275e-15)
(15.4385 -1.5533 2.27812e-15)
(15.3275 -1.46864 7.0863e-16)
(15.2259 -1.37883 -2.05641e-15)
(15.134 -1.28459 5.31705e-16)
(15.0519 -1.18672 -1.68943e-16)
(14.9796 -1.08603 2.62637e-16)
(14.918 -0.983349 -9.41708e-16)
(14.865 -0.879406 2.5223e-16)
(14.8286 -0.775517 3.92387e-16)
(14.7762 -0.67282 8.13792e-17)
(19.5203 4.4082 -3.28677e-16)
(19.5507 4.34242 3.79024e-15)
(19.5782 4.27647 -2.14137e-15)
(19.6035 4.21039 8.37648e-16)
(19.6267 4.14411 -1.5566e-15)
(19.6479 4.07767 2.05955e-15)
(19.6672 4.01109 8.11778e-17)
(19.6848 3.94433 -1.49989e-15)
(19.7007 3.87729 1.35927e-15)
(19.7149 3.80996 -9.92272e-16)
(19.7275 3.74288 -7.19263e-16)
(19.7388 3.67541 6.16142e-16)
(19.7485 3.60776 -1.37611e-18)
(19.7568 3.53975 -2.82801e-16)
(19.7636 3.47137 4.32665e-16)
(19.7689 3.40258 -2.68071e-17)
(19.7728 3.33335 -1.97556e-16)
(19.7752 3.26364 3.64967e-16)
(19.7762 3.19341 -6.78566e-16)
(19.7759 3.12263 8.50301e-16)
(19.7746 3.05129 3.18422e-16)
(19.7733 2.97942 -3.2387e-16)
(19.7732 2.90734 1.63725e-15)
(19.7761 2.83544 -2.76863e-15)
(19.7822 2.76377 4.09776e-16)
(19.7898 2.69221 2.06662e-15)
(19.7972 2.62068 -4.09932e-16)
(19.8037 2.54904 1.45779e-15)
(19.8088 2.47714 -5.0486e-15)
(19.8126 2.40491 3.46376e-15)
(19.8149 2.33219 -1.87534e-17)
(19.816 2.25942 3.60968e-16)
(19.8157 2.18607 -1.92108e-15)
(19.814 2.11227 -1.52975e-15)
(19.8109 2.03802 2.11701e-15)
(19.8065 1.96325 -1.81992e-18)
(19.8006 1.88792 -1.42767e-15)
(19.7933 1.81202 1.78894e-15)
(19.7845 1.73551 -2.60379e-16)
(19.7742 1.65836 1.19284e-15)
(19.7624 1.58055 -2.03929e-15)
(19.7489 1.50205 1.46629e-15)
(19.7338 1.42283 -3.86659e-15)
(19.717 1.34286 1.87935e-15)
(19.6983 1.26213 4.8263e-16)
(19.6778 1.18061 1.84287e-16)
(19.6554 1.09829 -3.94518e-15)
(19.6309 1.01516 3.5182e-15)
(19.6043 0.931212 3.38143e-15)
(19.5754 0.84644 -1.03493e-16)
(19.5442 0.760855 -4.22293e-15)
(19.5105 0.674464 2.58706e-15)
(19.4743 0.587294 -1.96835e-15)
(19.4353 0.499369 1.88654e-16)
(19.3935 0.410738 -1.05195e-15)
(19.3487 0.321451 2.84502e-16)
(19.3007 0.231582 6.07435e-15)
(19.2494 0.141216 -6.93981e-15)
(19.1947 0.0504666 3.72541e-15)
(19.1363 -0.0405395 -4.09307e-15)
(19.0741 -0.131642 5.80223e-16)
(19.0079 -0.22263 1.59396e-15)
(18.9377 -0.313232 2.89739e-15)
(18.8632 -0.403236 -1.64656e-15)
(18.7843 -0.492408 -4.06186e-15)
(18.7008 -0.580409 2.84718e-15)
(18.6126 -0.666877 1.19826e-15)
(18.5196 -0.7514 3.01582e-15)
(18.4217 -0.833526 3.24193e-16)
(18.3191 -0.912747 -6.11171e-15)
(18.2116 -0.988529 1.93351e-15)
(18.0995 -1.06028 1.83821e-15)
(17.983 -1.12742 3.05339e-15)
(17.8624 -1.18929 -6.37504e-16)
(17.738 -1.24531 -4.32938e-15)
(17.6104 -1.29487 7.4949e-16)
(17.4801 -1.33744 1.73978e-15)
(17.3477 -1.37259 -2.06985e-15)
(17.2139 -1.4 2.12928e-15)
(17.0793 -1.41951 -1.89779e-15)
(16.9445 -1.43113 -1.1608e-16)
(16.8101 -1.43499 1.11418e-15)
(16.6769 -1.43133 -5.22231e-16)
(16.5454 -1.42045 -1.66211e-15)
(16.4164 -1.40268 6.31696e-16)
(16.2906 -1.37834 -2.87851e-15)
(16.1687 -1.3478 5.18471e-15)
(16.0515 -1.31143 -3.56908e-15)
(15.9395 -1.26961 1.74111e-15)
(15.8332 -1.22278 -1.97213e-16)
(15.7329 -1.17142 -4.49134e-16)
(15.639 -1.11605 -1.28976e-15)
(15.5516 -1.05724 3.96437e-16)
(15.4709 -0.995594 2.96942e-16)
(15.3971 -0.931702 8.38666e-17)
(15.3303 -0.86617 -1.03499e-16)
(15.2712 -0.799615 -7.2554e-16)
(15.2181 -0.732583 1.41879e-15)
(15.178 -0.665878 -8.17378e-17)
(15.1213 -0.601315 2.98234e-17)
(19.2658 4.27574 2.66608e-15)
(19.2959 4.21726 -2.78902e-15)
(19.3237 4.15826 7.18584e-16)
(19.3496 4.09899 2.3602e-15)
(19.3737 4.03937 -3.21717e-15)
(19.396 3.97941 6.40131e-16)
(19.4166 3.91912 4.59415e-16)
(19.4353 3.85846 -1.88615e-15)
(19.4524 3.79732 1.35644e-15)
(19.4677 3.73569 -3.28889e-16)
(19.4814 3.67433 4.49925e-16)
(19.4938 3.61239 5.59139e-18)
(19.5048 3.55015 -3.1321e-16)
(19.5142 3.48745 -7.54347e-17)
(19.5221 3.42427 6.00867e-16)
(19.5285 3.36055 -1.2214e-16)
(19.5334 3.29625 -2.27674e-16)
(19.5368 3.23133 3.5043e-16)
(19.5387 3.16575 5.92689e-16)
(19.5393 3.0995 -1.43562e-15)
(19.5389 3.0326 4.76808e-16)
(19.5381 2.96508 -1.86565e-15)
(19.5379 2.89707 2.76394e-15)
(19.5395 2.82884 1.05764e-15)
(19.5429 2.76074 -2.10118e-15)
(19.547 2.69281 8.91219e-16)
(19.5507 2.62494 -1.74601e-15)
(19.5533 2.55697 3.64433e-15)
(19.5544 2.48883 -2.86254e-15)
(19.554 2.42045 1.84898e-15)
(19.5522 2.35168 -1.95609e-15)
(19.549 2.28302 -1.63659e-16)
(19.5445 2.21383 -5.70614e-16)
(19.5385 2.14428 2.39787e-15)
(19.5312 2.07438 -1.36294e-15)
(19.5224 2.00403 -1.77073e-15)
(19.5122 1.93323 4.41805e-15)
(19.5007 1.86195 -3.07139e-15)
(19.4877 1.79019 2.00015e-16)
(19.4733 1.71792 -9.2492e-16)
(19.4574 1.64515 -5.76323e-16)
(19.44 1.57185 -1.60206e-17)
(19.421 1.49804 3.5969e-15)
(19.4004 1.42371 -6.96588e-15)
(19.3782 1.34885 1.42507e-15)
(19.3542 1.27349 5.63366e-15)
(19.3285 1.19763 -6.13773e-15)
(19.3009 1.12129 5.22974e-15)
(19.2714 1.04449 -8.01937e-16)
(19.2399 0.96726 1.64233e-15)
(19.2064 0.889636 -3.1578e-15)
(19.1707 0.811657 -1.99966e-15)
(19.1328 0.733378 4.82329e-15)
(19.0925 0.654855 -1.37061e-15)
(19.0498 0.576161 -4.40612e-15)
(19.0047 0.497374 1.55404e-15)
(18.9569 0.418588 5.87884e-15)
(18.9065 0.33991 -4.15421e-15)
(18.8533 0.261467 2.3476e-15)
(18.7971 0.183393 -1.16606e-15)
(18.738 0.105843 5.08483e-16)
(18.6759 0.0290178 -4.5633e-15)
(18.6108 -0.0468338 6.88726e-17)
(18.5426 -0.12154 2.61358e-15)
(18.4712 -0.194925 -3.46078e-15)
(18.3964 -0.266726 -8.3378e-16)
(18.3182 -0.336683 6.38106e-15)
(18.2368 -0.404506 -2.16468e-15)
(18.152 -0.469898 -2.95833e-15)
(18.0639 -0.532538 3.59523e-15)
(17.9727 -0.592108 -1.5431e-15)
(17.8784 -0.648273 6.65518e-16)
(17.7813 -0.700717 1.0294e-17)
(17.6815 -0.749116 1.80307e-15)
(17.5793 -0.793182 -3.90097e-15)
(17.475 -0.832637 3.55213e-15)
(17.3689 -0.867256 -2.72186e-15)
(17.2615 -0.896842 8.82275e-16)
(17.1531 -0.921261 -3.10972e-16)
(17.0443 -0.940421 7.32225e-16)
(16.9354 -0.954285 5.46589e-16)
(16.8272 -0.96285 4.07935e-16)
(16.72 -0.966171 -1.60564e-15)
(16.6144 -0.964331 -1.29964e-15)
(16.511 -0.957465 2.09863e-15)
(16.4102 -0.945743 -1.8347e-15)
(16.3124 -0.92938 3.52378e-15)
(16.2181 -0.908627 -2.68337e-15)
(16.1276 -0.88378 1.56134e-15)
(16.0411 -0.85516 -1.85714e-15)
(15.9588 -0.823122 9.51095e-16)
(15.8809 -0.788029 4.28751e-16)
(15.8076 -0.750252 -1.18322e-15)
(15.7393 -0.710161 1.66425e-15)
(15.6761 -0.668125 -8.46195e-16)
(15.6181 -0.624514 1.34393e-15)
(15.5659 -0.579721 -1.80412e-16)
(15.518 -0.534091 -3.26757e-16)
(15.4802 -0.488182 -9.5578e-17)
(15.4246 -0.443804 -1.6924e-16)
(19.035 4.13723 -2.78783e-15)
(19.061 4.08662 4.32405e-15)
(19.085 4.03499 -1.52709e-15)
(19.1075 3.98278 6.10796e-16)
(19.1284 3.92991 -2.11916e-15)
(19.1477 3.87642 -1.06515e-16)
(19.1654 3.82234 1.77129e-15)
(19.1815 3.76766 -7.10907e-16)
(19.1959 3.71224 1.07732e-15)
(19.2088 3.65611 -1.28634e-15)
(19.2202 3.60015 1.00463e-16)
(19.2305 3.54339 -7.03248e-17)
(19.2393 3.48621 9.97043e-17)
(19.2467 3.42844 -2.76538e-16)
(19.2526 3.37009 2.24892e-16)
(19.2571 3.31114 -7.43486e-18)
(19.2602 3.25159 1.48035e-16)
(19.2618 3.19145 6.43573e-17)
(19.262 3.13074 -8.26065e-17)
(19.2611 3.06951 -3.14318e-17)
(19.2592 3.00785 3.1319e-16)
(19.257 2.94589 1.85153e-16)
(19.2552 2.88374 -5.83306e-16)
(19.2547 2.82151 -2.01047e-15)
(19.2558 2.75923 1.79653e-15)
(19.2575 2.69675 -4.59209e-16)
(19.2588 2.63396 -1.66886e-16)
(19.2593 2.57082 3.15495e-15)
(19.2585 2.50732 -4.69757e-15)
(19.2562 2.44345 3.46392e-15)
(19.2526 2.37913 -2.4029e-15)
(19.2478 2.31496 -1.40804e-15)
(19.2417 2.25023 1.63714e-16)
(19.2343 2.18521 2.81648e-15)
(19.2255 2.11994 -1.42022e-15)
(19.2153 2.05434 2.39518e-15)
(19.2037 1.98843 -3.05959e-15)
(19.1908 1.92221 7.54555e-16)
(19.1766 1.85568 7.71004e-17)
(19.1609 1.78886 2.49673e-15)
(19.1439 1.72174 -3.80486e-15)
(19.1254 1.65434 -3.50436e-15)
(19.1055 1.58666 4.34583e-15)
(19.084 1.51872 -3.95865e-15)
(19.061 1.45053 2.03327e-15)
(19.0363 1.38211 3.66749e-16)
(19.01 1.31349 4.11898e-15)
(18.982 1.24468 -6.02549e-15)
(18.9523 1.17574 5.02808e-15)
(18.9207 1.10668 7.65314e-16)
(18.8873 1.03756 -2.77718e-15)
(18.852 0.968415 5.02376e-16)
(18.8147 0.899311 -2.02747e-15)
(18.7754 0.830305 5.46015e-15)
(18.7339 0.761467 -2.03189e-15)
(18.6904 0.692873 -3.57103e-15)
(18.6447 0.624608 6.72285e-15)
(18.5967 0.556766 -5.60233e-15)
(18.5464 0.489452 2.82193e-15)
(18.4939 0.422781 -2.90949e-15)
(18.4389 0.356874 -3.46826e-15)
(18.3816 0.291897 8.5358e-15)
(18.322 0.228043 -8.20029e-15)
(18.2601 0.165436 5.76178e-15)
(18.1958 0.104175 -5.68549e-15)
(18.1291 0.0444482 1.27783e-15)
(18.0599 -0.0135757 4.5512e-15)
(17.9884 -0.0697092 1.637e-15)
(17.9146 -0.123769 -6.5607e-15)
(17.8386 -0.175555 6.67965e-15)
(17.7606 -0.224881 -9.28745e-16)
(17.6805 -0.271548 -2.45113e-15)
(17.5987 -0.315375 4.84248e-15)
(17.5153 -0.356178 -5.1579e-15)
(17.4304 -0.393794 -5.57074e-16)
(17.3444 -0.428067 1.86093e-15)
(17.2574 -0.45887 1.78571e-16)
(17.1698 -0.486088 -2.30925e-15)
(17.0818 -0.509644 4.02357e-15)
(16.9937 -0.52948 -2.49742e-15)
(16.9059 -0.545579 -2.51614e-16)
(16.8187 -0.557946 -2.17356e-15)
(16.7323 -0.566628 1.85576e-15)
(16.6472 -0.571695 -2.49519e-15)
(16.5636 -0.573258 3.78982e-15)
(16.4818 -0.571451 6.70094e-17)
(16.402 -0.566441 1.85671e-15)
(16.3244 -0.558415 -5.08107e-15)
(16.2494 -0.547586 2.39868e-15)
(16.1771 -0.534173 -1.52799e-15)
(16.1077 -0.518414 4.75254e-16)
(16.0415 -0.500546 7.93311e-16)
(15.9786 -0.480823 3.40214e-16)
(15.9193 -0.4595 -4.6436e-16)
(15.8637 -0.436852 5.01946e-16)
(15.8119 -0.413163 4.89393e-16)
(15.7642 -0.388744 -9.34941e-16)
(15.7192 -0.363876 1.45997e-16)
(15.6822 -0.338938 -2.4606e-16)
(15.6278 -0.315606 -4.99125e-17)
(18.8097 4.01226 -3.47523e-15)
(18.8325 3.96798 -1.09975e-15)
(18.8536 3.9226 3.28609e-15)
(18.8732 3.8766 -1.90888e-15)
(18.8911 3.82987 -3.73984e-16)
(18.9075 3.78243 -7.10117e-16)
(18.9223 3.73431 4.31135e-16)
(18.9355 3.68548 2.63284e-15)
(18.9469 3.63579 -1.38997e-15)
(18.9568 3.58528 1.10834e-15)
(18.9652 3.53491 -1.00222e-15)
(18.9723 3.48364 -8.01892e-17)
(18.978 3.43183 -8.5346e-17)
(18.9823 3.37935 -1.04526e-16)
(18.9851 3.32617 -3.73036e-16)
(18.9865 3.27231 2.66281e-16)
(18.9865 3.21778 5.2067e-17)
(18.9851 3.16259 -7.83633e-17)
(18.9825 3.10679 1.23255e-15)
(18.9789 3.05041 -2.11892e-15)
(18.9746 2.99355 1.50111e-15)
(18.9703 2.93633 -6.2228e-16)
(18.9665 2.87888 3.13259e-15)
(18.964 2.82133 -1.52561e-15)
(18.9632 2.76373 6.34577e-16)
(18.9633 2.70601 -1.59069e-15)
(18.9633 2.64808 1.4456e-15)
(18.9626 2.58991 -3.11298e-15)
(18.9608 2.53148 3.85424e-15)
(18.9578 2.47276 -3.34723e-15)
(18.9535 2.41367 -1.24479e-16)
(18.9481 2.35487 -2.77448e-15)
(18.9415 2.29556 2.2533e-15)
(18.9335 2.23606 -8.19931e-16)
(18.924 2.17642 3.43429e-15)
(18.9132 2.11655 9.88866e-16)
(18.901 2.05648 -2.31526e-15)
(18.8874 1.99622 -1.11251e-15)
(18.8724 1.93579 7.19646e-16)
(18.8561 1.87519 -7.83864e-17)
(18.8383 1.81443 -1.81012e-15)
(18.8192 1.75354 2.00667e-15)
(18.7986 1.69252 -5.86929e-15)
(18.7765 1.63139 2.25018e-15)
(18.753 1.57018 -6.81416e-16)
(18.728 1.50891 4.59415e-15)
(18.7014 1.4476 -4.97504e-15)
(18.6733 1.38628 3.48292e-15)
(18.6436 1.32499 1.62907e-15)