/*--------------------------------*- C++ -*----------------------------------*\
  =========                 |
  \\      /  F ield         | OpenFOAM: The Open Source CFD Toolbox
   \\    /   O peration     | Website:  https://openfoam.org
    \\  /    A nd           | Version:  6.0
     \\/     M anipulation  |
\*---------------------------------------------------------------------------*/
FoamFile
{
    version     2.0;
    format      ascii;
    class       volScalarField;
    location    "3";
    object      p;
}
// * * * * * * * * * * * * * * * * * * * * * * * * * * * * * * * * * * * * * //

dimensions      [0 2 -2 0 0 0 0];

internalField   nonuniform List<scalar> 
62000
(
0.0412511
0.0414163
0.0415733
0.0417166
0.0418377
0.0419346
0.0420044
0.042048
0.0420634
0.042052
0.0420117
0.0419434
0.0418455
0.0417182
0.0415599
0.0413702
0.0411474
0.0408902
0.0405968
0.0402648
0.0398921
0.0394753
0.0390115
0.0384957
0.0379241
0.0372892
0.0365855
0.0358032
0.0349332
0.0339637
0.0328816
0.0316749
0.0303249
0.0288186
0.0271375
0.0252678
0.0231977
0.0209191
0.0184303
0.015739
0.0128652
0.00984177
0.00671709
0.0035531
0.00042425
-0.00258729
-0.00539845
-0.00792903
-0.0101151
-0.0119029
-0.0132696
-0.0141972
-0.014708
-0.0148056
-0.0145192
-0.0138485
-0.0128005
-0.0113063
-0.00999935
-0.0111936
0.0405548
0.0406736
0.0408015
0.0409385
0.0410675
0.0411803
0.0412706
0.041338
0.0413795
0.0413961
0.0413854
0.0413484
0.0412829
0.0411897
0.0410665
0.0409137
0.0407288
0.0405117
0.0402595
0.0399715
0.0396441
0.0392755
0.0388616
0.0383985
0.0378813
0.0373037
0.036659
0.0359382
0.0351316
0.0342269
0.0332112
0.0320695
0.0307853
0.02934
0.0277146
0.0258918
0.0238548
0.0215896
0.0190876
0.0163485
0.0133829
0.0102142
0.0068806
0.00343522
-5.45322e-05
-0.00351043
-0.006849
-0.00998469
-0.0128426
-0.015352
-0.0174686
-0.0191444
-0.0203745
-0.0211154
-0.0213455
-0.0209894
-0.0199595
-0.0180632
-0.0158606
-0.0147887
0.039115
0.0391192
0.0391515
0.0392193
0.039299
0.0393774
0.0394447
0.0394982
0.0395336
0.0395508
0.0395468
0.0395218
0.0394728
0.0393999
0.0393003
0.0391735
0.0390165
0.0388289
0.038607
0.03835
0.0380539
0.0377172
0.0373352
0.0369048
0.0364204
0.0358767
0.0352666
0.0345817
0.0338123
0.0329468
0.0319723
0.0308742
0.0296358
0.0282378
0.0266622
0.0248892
0.0229002
0.0206786
0.0182123
0.0154959
0.0125341
0.00934354
0.00595486
0.00241374
-0.00121905
-0.00487013
-0.00845809
-0.0118959
-0.0151023
-0.0179965
-0.0205182
-0.0226008
-0.0242143
-0.025286
-0.0257637
-0.0255299
-0.0244542
-0.0223271
-0.0196908
-0.0180249
0.0374331
0.0373308
0.0372709
0.0372629
0.0372802
0.0373067
0.037331
0.0373492
0.0373562
0.0373514
0.0373312
0.0372953
0.0372405
0.0371664
0.0370696
0.0369492
0.0368017
0.0366262
0.0364185
0.0361776
0.035899
0.0355807
0.0352178
0.0348071
0.0343428
0.0338198
0.0332308
0.032568
0.031822
0.0309815
0.0300344
0.0289666
0.0277616
0.0264021
0.0248677
0.0231402
0.0211996
0.0190282
0.0166118
0.0139422
0.0110199
0.00785644
0.00447649
0.000919345
-0.00276044
-0.00649485
-0.0102056
-0.0138067
-0.0172137
-0.0203399
-0.023114
-0.0254562
-0.0273215
-0.0286159
-0.0292659
-0.0291345
-0.0280776
-0.0259058
-0.0231502
-0.021097
0.0355871
0.0354085
0.0352793
0.0352095
0.0351717
0.035149
0.0351292
0.0351078
0.0350795
0.0350434
0.034996
0.034937
0.0348633
0.0347741
0.0346663
0.0345385
0.0343871
0.0342107
0.0340048
0.0337678
0.033495
0.033184
0.0328296
0.0324284
0.0319745
0.0314626
0.0308855
0.0302358
0.0295041
0.0286797
0.0277511
0.0267047
0.0255257
0.0241949
0.0226957
0.0210078
0.0191118
0.0169897
0.0146262
0.0120109
0.00914154
0.0060256
0.00268272
-0.000853374
-0.00453392
-0.00829619
-0.0120659
-0.0157593
-0.0192906
-0.0225705
-0.025519
-0.0280492
-0.0301008
-0.031567
-0.0323635
-0.032344
-0.0313628
-0.02925
-0.0264916
-0.0241386
0.0337212
0.0334882
0.0333064
0.0331859
0.0330999
0.0330313
0.0329681
0.0329057
0.0328388
0.0327664
0.0326852
0.0325948
0.0324922
0.032377
0.0322457
0.0320973
0.0319282
0.031737
0.0315192
0.0312731
0.0309937
0.0306786
0.0303221
0.0299207
0.0294681
0.0289591
0.0283864
0.0277424
0.0270181
0.0262031
0.0252865
0.0242553
0.0230942
0.021788
0.0203169
0.0186631
0.016807
0.0147306
0.0124178
0.00985734
0.00704465
0.00398407
0.000691133
-0.00280527
-0.00646166
-0.0102206
-0.014012
-0.0177554
-0.0213651
-0.0247513
-0.0278279
-0.0305034
-0.0327085
-0.0343261
-0.0352619
-0.0353666
-0.0344952
-0.0324882
-0.0297685
-0.027173
0.0317946
0.0315225
0.0313019
0.0311431
0.0310193
0.0309134
0.0308137
0.0307152
0.0306131
0.0305064
0.030392
0.0302697
0.0301369
0.029993
0.0298351
0.0296622
0.0294708
0.0292595
0.0290237
0.0287618
0.0284687
0.0281419
0.0277758
0.0273668
0.0269084
0.0263955
0.0258207
0.0251766
0.0244541
0.0236434
0.0227335
0.0217121
0.0205658
0.0192768
0.0178296
0.0162049
0.0143839
0.0123488
0.0100835
0.00757548
0.00481863
0.00181465
-0.00142452
-0.00487431
-0.00849616
-0.0122376
-0.016033
-0.0198057
-0.0234708
-0.0269394
-0.0301209
-0.0329218
-0.0352625
-0.037019
-0.0380927
-0.0383323
-0.0375928
-0.0357142
-0.0330494
-0.0302496
0.0298606
0.0295575
0.0293055
0.029115
0.0289592
0.0288213
0.0286894
0.0285592
0.0284255
0.0282875
0.0281421
0.0279892
0.027826
0.0276527
0.0274659
0.0272653
0.0270471
0.0268107
0.0265515
0.026268
0.0259554
0.0256111
0.0252296
0.0248074
0.0243378
0.0238158
0.023234
0.0225851
0.0218602
0.0210495
0.0201425
0.0191274
0.01799
0.0167165
0.0152881
0.0136882
0.0118978
0.00989959
0.0076771
0.00521727
0.00251275
-0.000436916
-0.00362286
-0.00702429
-0.0106071
-0.0143237
-0.0181128
-0.0219019
-0.0256076
-0.029143
-0.032414
-0.0353268
-0.0377948
-0.0396886
-0.0409021
-0.041284
-0.0406863
-0.0389408
-0.0363324
-0.0333577
0.0278426
0.0275166
0.0272419
0.0270286
0.0268498
0.0266885
0.026533
0.0263784
0.02622
0.0260568
0.025886
0.0257074
0.0255188
0.0253198
0.0251081
0.0248826
0.0246404
0.0243804
0.0240985
0.0237932
0.0234599
0.0230963
0.0226968
0.0222583
0.0217742
0.0212397
0.0206475
0.0199905
0.0192598
0.018446
0.0175387
0.0165265
0.0153969
0.0141332
0.0127211
0.0111423
0.00937866
0.00741322
0.00522951
0.00281382
0.000157693
-0.00274125
-0.00587688
-0.00923191
-0.0127764
-0.0164673
-0.0202476
-0.0240489
-0.0277901
-0.0313866
-0.0347416
-0.0377623
-0.0403533
-0.0423814
-0.043737
-0.0442671
-0.0438185
-0.0422086
-0.0396576
-0.036531
0.0258301
0.025484
0.0251887
0.0249544
0.0247541
0.0245707
0.0243926
0.0242151
0.0240334
0.0238466
0.0236518
0.0234488
0.0232353
0.0230115
0.0227744
0.0225237
0.0222563
0.0219717
0.0216658
0.0213374
0.0209821
0.0205976
0.0201787
0.0197222
0.0192219
0.018673
0.0180683
0.017401
0.0166624
0.0158432
0.0149336
0.0139223
0.0127962
0.0115422
0.0101428
0.00858207
0.00684191
0.00490545
0.00275625
0.000380183
-0.00223213
-0.00508467
-0.00817373
-0.0114851
-0.0149927
-0.0186578
-0.0224276
-0.026238
-0.03001
-0.0336623
-0.037096
-0.0402199
-0.0429327
-0.0450975
-0.0465976
-0.0472791
-0.0469809
-0.0455025
-0.0430056
-0.0397468
0.0237323
0.0233708
0.0230603
0.0228107
0.0225947
0.0223952
0.0222003
0.0220052
0.0218052
0.0215994
0.0213851
0.0211622
0.0209287
0.0206842
0.0204266
0.0201552
0.0198672
0.0195618
0.0192353
0.0188864
0.018511
0.0181069
0.0176692
0.0171949
0.016678
0.0161139
0.0154959
0.0148172
0.0140694
0.0132437
0.0123301
0.0113178
0.0101954
0.00894686
0.00755888
0.00601376
0.00429424
0.00238378
0.000265842
-0.00207417
-0.00464651
-0.00745668
-0.0105032
-0.0137749
-0.0172491
-0.0208912
-0.0246524
-0.0284732
-0.0322767
-0.035985
-0.0394974
-0.0427254
-0.0455593
-0.04786
-0.0495072
-0.0503438
-0.0501994
-0.048852
-0.04641
-0.0430366
0.0216098
0.0212338
0.0209085
0.0206441
0.020413
0.0201981
0.0199874
0.0197764
0.0195601
0.0193378
0.0191063
0.0188659
0.0186139
0.0183509
0.0180739
0.0177828
0.0174747
0.0171493
0.0168027
0.016434
0.0160392
0.0156163
0.0151606
0.0146691
0.0141361
0.0135572
0.0129258
0.0122355
0.0114783
0.0106452
0.00972708
0.00871327
0.00759154
0.0063495
0.0049704
0.00343914
0.00173806
-0.000149171
-0.00223914
-0.00454679
-0.00708311
-0.00985494
-0.0128628
-0.0160981
-0.0195416
-0.0231626
-0.0269161
-0.0307469
-0.0345805
-0.0383429
-0.041932
-0.0452619
-0.0482177
-0.0506573
-0.0524537
-0.053447
-0.0534554
-0.0522347
-0.0498461
-0.0463733
0.0193725
0.0189862
0.0186514
0.018378
0.0181381
0.0179141
0.0176941
0.0174729
0.017246
0.0170121
0.0167687
0.0165155
0.0162507
0.0159737
0.0156828
0.015377
0.0150541
0.0147131
0.0143507
0.0139658
0.0135547
0.0131154
0.0126436
0.0121365
0.0115885
0.0109957
0.0103517
0.00965033
0.00888376
0.00804355
0.00712055
0.00610462
0.00498487
0.00374612
0.00237584
0.000856926
-0.000827443
-0.00269337
-0.00475758
-0.00703545
-0.0095387
-0.0122755
-0.0152483
-0.0184509
-0.0218674
-0.0254706
-0.0292195
-0.033063
-0.0369293
-0.0407479
-0.0444154
-0.0478498
-0.0509279
-0.0535063
-0.0554545
-0.0566077
-0.0567719
-0.0556787
-0.0533467
-0.0497892
0.0171319
0.0167347
0.0163889
0.0161046
0.0158536
0.0156182
0.0153864
0.0151535
0.0149143
0.0146682
0.014412
0.0141457
0.013867
0.0135761
0.0132704
0.0129497
0.0126113
0.0122549
0.011877
0.0114767
0.0110503
0.0105961
0.0101097
0.00958863
0.00902736
0.00842205
0.00776665
0.00705515
0.00628016
0.00543327
0.00450604
0.00348827
0.00236862
0.00113524
-0.000227802
-0.00173511
-0.00340399
-0.00525037
-0.00729108
-0.00954185
-0.012015
-0.0147199
-0.0176607
-0.0208337
-0.0242257
-0.0278131
-0.0315586
-0.0354154
-0.0393138
-0.0431877
-0.0469326
-0.0504702
-0.0536718
-0.0563921
-0.0584939
-0.0598081
-0.0601272
-0.059159
-0.0568839
-0.0532547
0.0147837
0.0143785
0.0140255
0.0137345
0.0134769
0.0132348
0.0129957
0.0127549
0.0125073
0.0122521
0.0119865
0.0117103
0.0114217
0.0111204
0.0108044
0.0104728
0.0101236
0.00975587
0.00936639
0.00895412
0.0085157
0.00804927
0.0075507
0.0070177
0.00644496
0.00582888
0.00516362
0.00444343
0.00366111
0.00280873
0.00187772
0.000858619
-0.000258828
-0.0014891
-0.00284409
-0.00434041
-0.00599458
-0.00782239
-0.00984083
-0.0120661
-0.0145111
-0.0171864
-0.020098
-0.0232442
-0.0266148
-0.0301895
-0.0339347
-0.0378076
-0.0417413
-0.0456732
-0.0494977
-0.0531413
-0.0564673
-0.0593296
-0.0615877
-0.0630664
-0.063544
-0.0627035
-0.0604909
-0.0568033
0.0124013
0.011987
0.0116251
0.0113259
0.0110601
0.0108099
0.0105626
0.0103136
0.0100577
0.00979432
0.0095199
0.00923503
0.00893674
0.00862594
0.0082994
0.0079575
0.00759715
0.00721864
0.00681799
0.00639483
0.00594554
0.0054685
0.00495956
0.00441658
0.0038343
0.00320932
0.00253599
0.00180874
0.0010207
0.000163964
-0.000769293
-0.00178876
-0.00290497
-0.00412932
-0.005477
-0.00696223
-0.00860205
-0.0104122
-0.0124097
-0.0146111
-0.01703
-0.019678
-0.0225626
-0.0256843
-0.0290354
-0.0325991
-0.0363449
-0.0402345
-0.0442032
-0.0481926
-0.0520958
-0.0558443
-0.0592962
-0.0623033
-0.0647194
-0.0663637
-0.0669998
-0.0662862
-0.0641382
-0.0604038
0.00988201
0.00946237
0.0090965
0.00879438
0.00852641
0.00827397
0.00802444
0.00777259
0.00751355
0.00724618
0.00696779
0.00667801
0.00637512
0.00605864
0.0057268
0.00537862
0.0050122
0.00462675
0.0042191
0.00378829
0.00333127
0.00284623
0.00232935
0.0017786
0.00118888
0.000557013
-0.000122484
-0.000854928
-0.00164709
-0.00250638
-0.00344088
-0.00445943
-0.00557173
-0.00679162
-0.00813046
-0.00960444
-0.0112299
-0.0130224
-0.0149994
-0.0171776
-0.0195714
-0.0221934
-0.0250528
-0.0281521
-0.0314862
-0.0350413
-0.0387905
-0.0426996
-0.0467063
-0.0507559
-0.0547403
-0.0585968
-0.0621752
-0.0653279
-0.067905
-0.069719
-0.070518
-0.0699361
-0.06786
-0.0640914
0.00735326
0.00692619
0.00655318
0.00624465
0.00597038
0.00571174
0.00545591
0.00519802
0.00493271
0.00465943
0.00437461
0.00407866
0.00376879
0.00344579
0.00310659
0.00275141
0.00237744
0.00198492
0.00157
0.00113235
0.000668609
0.000177169
-0.000345826
-0.000902332
-0.00149738
-0.00213404
-0.00281761
-0.00355329
-0.00434754
-0.00520784
-0.00614147
-0.00715769
-0.00826633
-0.0094784
-0.0108084
-0.0122704
-0.0138811
-0.0156562
-0.0176131
-0.0197691
-0.022139
-0.0247364
-0.0275721
-0.0306504
-0.0339687
-0.0375163
-0.0412694
-0.0451984
-0.0492428
-0.053352
-0.0574167
-0.0613801
-0.0650869
-0.0683878
-0.0711277
-0.0731127
-0.0740753
-0.0736258
-0.0716251
-0.0678327
0.00469867
0.00426681
0.00389028
0.00357942
0.0033033
0.00304295
0.00278509
0.00252473
0.00225662
0.00198006
0.00169196
0.00139239
0.00107928
0.000752562
0.000410181
5.14234e-05
-0.000325748
-0.000721883
-0.00114032
-0.00158184
-0.00204939
-0.00254474
-0.0030715
-0.00363153
-0.00422977
-0.00486909
-0.00555468
-0.00629149
-0.00708596
-0.00794507
-0.0088765
-0.00988857
-0.0109905
-0.0121956
-0.0135147
-0.0149638
-0.0165592
-0.0183162
-0.0202526
-0.0223862
-0.0247324
-0.0273058
-0.0301187
-0.0331774
-0.0364816
-0.0400235
-0.0437828
-0.047734
-0.051819
-0.0559904
-0.060138
-0.0642114
-0.0680472
-0.0714972
-0.074403
-0.0765638
-0.0776955
-0.0773847
-0.075468
-0.0716646
0.00200154
0.0015629
0.00118023
0.000864412
0.00058376
0.000319287
5.73939e-05
-0.000206465
-0.000478192
-0.000757789
-0.00104941
-0.00135205
-0.00166904
-0.00199897
-0.00234546
-0.00270773
-0.00308902
-0.00348856
-0.00391063
-0.00435515
-0.00482556
-0.0053233
-0.00585213
-0.00641376
-0.00701317
-0.00765306
-0.00833852
-0.0090744
-0.00986686
-0.010723
-0.0116498
-0.012656
-0.0137509
-0.0149453
-0.016253
-0.017688
-0.0192669
-0.0210053
-0.0229212
-0.0250326
-0.0273555
-0.0299055
-0.0326964
-0.0357362
-0.0390269
-0.0425637
-0.0463294
-0.0503028
-0.0544278
-0.0586608
-0.0628902
-0.0670724
-0.0710393
-0.0746408
-0.0777146
-0.0800526
-0.0813549
-0.0811848
-0.0793566
-0.0755521
-0.000850808
-0.00129235
-0.00167594
-0.00199103
-0.00226978
-0.00253208
-0.00279157
-0.00305366
-0.00332348
-0.00360208
-0.00389231
-0.00419447
-0.00451026
-0.00484009
-0.00518564
-0.00554796
-0.00592863
-0.00632837
-0.00675028
-0.00719519
-0.00766569
-0.00816365
-0.00869236
-0.00925356
-0.00985207
-0.0104905
-0.0111737
-0.0119065
-0.0126949
-0.0135457
-0.0144663
-0.0154644
-0.016549
-0.017733
-0.0190269
-0.0204464
-0.0220078
-0.0237264
-0.0256206
-0.027709
-0.0300081
-0.0325346
-0.0353036
-0.038325
-0.0416032
-0.045136
-0.0489097
-0.0529074
-0.0570747
-0.0613719
-0.0656859
-0.0699802
-0.0740783
-0.0778326
-0.0810781
-0.0835988
-0.0850782
-0.0850563
-0.0833265
-0.079534
-0.00371666
-0.00416396
-0.00455266
-0.00487161
-0.00515378
-0.0054191
-0.00568151
-0.00594594
-0.00621817
-0.00649846
-0.00679076
-0.00709435
-0.00741222
-0.00774323
-0.00809067
-0.00845403
-0.00883612
-0.00923633
-0.00965872
-0.0101033
-0.0105731
-0.0110697
-0.0115966
-0.0121554
-0.0127509
-0.0133857
-0.0140645
-0.0147919
-0.015574
-0.0164176
-0.0173292
-0.0183175
-0.0193911
-0.0205607
-0.0218398
-0.0232421
-0.0247844
-0.0264823
-0.0283541
-0.0304191
-0.0326942
-0.0351971
-0.0379442
-0.0409474
-0.0442129
-0.0477419
-0.0515233
-0.0555449
-0.0597535
-0.0641143
-0.0685115
-0.0729167
-0.0771485
-0.081058
-0.0844772
-0.0871823
-0.0888409
-0.0889702
-0.0873442
-0.083573
-0.00672312
-0.00717344
-0.00756335
-0.00788182
-0.00816266
-0.00842627
-0.0086871
-0.00895027
-0.00922136
-0.00950086
-0.00979211
-0.0100949
-0.0104112
-0.0107409
-0.0110862
-0.0114477
-0.0118271
-0.0122249
-0.0126443
-0.013086
-0.0135525
-0.0140457
-0.0145686
-0.015123
-0.0157135
-0.0163425
-0.0170147
-0.0177347
-0.0185083
-0.0193421
-0.0202432
-0.021219
-0.0222782
-0.0234335
-0.024695
-0.0260784
-0.0276002
-0.0292755
-0.0311236
-0.0331637
-0.0354136
-0.037892
-0.0406169
-0.0436015
-0.0468547
-0.05038
-0.0541705
-0.058217
-0.0624694
-0.0668952
-0.0713798
-0.0758984
-0.0802638
-0.0843301
-0.0879271
-0.0908228
-0.092668
-0.0929571
-0.0914454
-0.0877098
-0.0097796
-0.0102355
-0.01063
-0.0109514
-0.0112343
-0.0114994
-0.0117613
-0.0120248
-0.0122961
-0.0125749
-0.0128659
-0.0131674
-0.0134833
-0.0138115
-0.014156
-0.0145157
-0.0148936
-0.0152888
-0.0157056
-0.0161437
-0.0166061
-0.0170944
-0.0176118
-0.0181598
-0.0187433
-0.0193645
-0.020028
-0.0207383
-0.0215012
-0.0223233
-0.0232109
-0.0241725
-0.0252164
-0.0263531
-0.0275959
-0.0289584
-0.0304577
-0.0321092
-0.0339321
-0.0359464
-0.0381704
-0.0406236
-0.0433255
-0.046291
-0.049531
-0.0530526
-0.0568509
-0.060922
-0.0652162
-0.0697073
-0.0742769
-0.0789083
-0.0834094
-0.087635
-0.0914119
-0.0945002
-0.0965346
-0.0969875
-0.0955961
-0.0919053
-0.013008
-0.0134652
-0.0138585
-0.0141765
-0.0144545
-0.0147141
-0.0149701
-0.0152283
-0.0154939
-0.015768
-0.0160534
-0.0163504
-0.0166606
-0.0169842
-0.0173228
-0.0176776
-0.0180495
-0.0184393
-0.0188499
-0.0192822
-0.019738
-0.0202195
-0.0207294
-0.0212693
-0.0218438
-0.0224551
-0.0231079
-0.0238063
-0.0245563
-0.0253641
-0.0262367
-0.0271814
-0.0282065
-0.0293246
-0.0305456
-0.0318853
-0.0333602
-0.0349857
-0.0367815
-0.0387682
-0.0409644
-0.0433909
-0.0460686
-0.049014
-0.0522406
-0.0557578
-0.0595651
-0.0636606
-0.0679991
-0.0725559
-0.0772164
-0.0819616
-0.0865983
-0.0909852
-0.0949468
-0.0982344
-0.100466
-0.101092
-0.0998327
-0.0962022
-0.0162555
-0.0167175
-0.0171147
-0.0174348
-0.0177142
-0.0179745
-0.018231
-0.0184887
-0.0187538
-0.0190262
-0.0193103
-0.0196049
-0.0199131
-0.0202335
-0.0205694
-0.0209201
-0.0212881
-0.0216726
-0.0220777
-0.0225031
-0.0229514
-0.0234245
-0.0239252
-0.024455
-0.0250185
-0.0256179
-0.0262576
-0.026942
-0.0276768
-0.0284684
-0.029323
-0.030249
-0.0312542
-0.0323494
-0.0335473
-0.0348618
-0.0363103
-0.037908
-0.0396751
-0.0416324
-0.0437996
-0.0461981
-0.0488505
-0.0517744
-0.0549866
-0.0584979
-0.0623133
-0.0664313
-0.0708134
-0.0754342
-0.0801843
-0.0850424
-0.0898171
-0.0943678
-0.0985161
-0.102005
-0.104438
-0.105242
-0.10412
-0.100559
-0.0196585
-0.0201224
-0.020519
-0.0208365
-0.021112
-0.0213679
-0.0216199
-0.0218733
-0.0221339
-0.0224022
-0.0226815
-0.0229714
-0.0232739
-0.0235887
-0.0239177
-0.0242617
-0.0246217
-0.0249983
-0.0253945
-0.025811
-0.0262495
-0.0267123
-0.0272017
-0.0277195
-0.0282701
-0.0288556
-0.0294803
-0.0301485
-0.030866
-0.0316389
-0.032474
-0.0333785
-0.0343604
-0.0354325
-0.0366042
-0.0378914
-0.039311
-0.0408785
-0.0426143
-0.0445402
-0.0466759
-0.0490445
-0.0516694
-0.0545706
-0.0577669
-0.061272
-0.065095
-0.0692356
-0.0736625
-0.0783482
-0.0831939
-0.0881644
-0.093077
-0.0977942
-0.102135
-0.105833
-0.108475
-0.109467
-0.108496
-0.10502
-0.0231202
-0.0235888
-0.023989
-0.0243076
-0.0245834
-0.0248383
-0.0250889
-0.0253398
-0.0255977
-0.0258619
-0.0261373
-0.0264222
-0.0267203
-0.0270291
-0.0273527
-0.0276898
-0.0280431
-0.0284115
-0.0287992
-0.0292058
-0.0296337
-0.0300847
-0.0305615
-0.0310656
-0.0316015
-0.0321711
-0.0327788
-0.0334289
-0.0341268
-0.0348791
-0.0356917
-0.0365731
-0.0375306
-0.0385751
-0.0397191
-0.0409764
-0.0423649
-0.0438999
-0.0456025
-0.0474949
-0.0495974
-0.0519342
-0.0545299
-0.0574068
-0.0605853
-0.0640828
-0.0679113
-0.0720729
-0.0765427
-0.0812919
-0.0862307
-0.091314
-0.0963664
-0.101252
-0.105787
-0.109697
-0.112551
-0.113736
-0.112923
-0.109542
-0.0267693
-0.0272378
-0.0276347
-0.0279475
-0.0282152
-0.0284617
-0.0287029
-0.028945
-0.0291934
-0.0294492
-0.0297151
-0.0299915
-0.0302794
-0.0305795
-0.0308925
-0.0312201
-0.0315623
-0.0319204
-0.0322963
-0.0326915
-0.0331066
-0.0335446
-0.034007
-0.0344959
-0.0350153
-0.0355673
-0.0361561
-0.0367859
-0.0374624
-0.0381916
-0.0389804
-0.0398356
-0.0407654
-0.041782
-0.042895
-0.0441201
-0.0454748
-0.0469746
-0.0486412
-0.0504973
-0.0525641
-0.0548664
-0.0574309
-0.0602809
-0.0634404
-0.0669283
-0.070762
-0.0749435
-0.0794576
-0.0842703
-0.0893084
-0.0945021
-0.0996947
-0.104753
-0.109488
-0.113617
-0.116693
-0.118083
-0.11744
-0.114172
-0.0304367
-0.0309092
-0.0313087
-0.031622
-0.0318893
-0.0321344
-0.0323738
-0.0326129
-0.0328581
-0.0331093
-0.0333706
-0.0336411
-0.0339235
-0.0342163
-0.0345225
-0.0348416
-0.0351752
-0.0355227
-0.0358878
-0.0362704
-0.0366721
-0.0370953
-0.0375419
-0.0380136
-0.0385147
-0.0390471
-0.0396149
-0.0402225
-0.0408752
-0.0415797
-0.0423416
-0.0431694
-0.0440699
-0.0450544
-0.0461346
-0.0473248
-0.0486431
-0.0501053
-0.0517335
-0.0535512
-0.0555799
-0.0578458
-0.0603765
-0.0631979
-0.0663359
-0.0698125
-0.0736487
-0.0778483
-0.082404
-0.0872784
-0.0924123
-0.0977183
-0.103053
-0.108285
-0.113222
-0.117573
-0.120876
-0.122475
-0.12201
-0.118864
-0.0342699
-0.034743
-0.0351404
-0.0354489
-0.03571
-0.0359481
-0.0361803
-0.0364124
-0.0366502
-0.0368943
-0.0371477
-0.0374103
-0.0376833
-0.0379669
-0.0382621
-0.0385704
-0.0388914
-0.0392264
-0.0395776
-0.039946
-0.0403321
-0.040739
-0.041168
-0.0416209
-0.0421019
-0.0426129
-0.043158
-0.0437412
-0.0443685
-0.0450456
-0.0457794
-0.0465765
-0.0474448
-0.0483964
-0.0494405
-0.0505932
-0.0518724
-0.0532941
-0.054881
-0.0566573
-0.058645
-0.0608715
-0.0633658
-0.066156
-0.06927
-0.0727335
-0.0765707
-0.0807875
-0.0853848
-0.0903212
-0.0955554
-0.10097
-0.106448
-0.111859
-0.117004
-0.121585
-0.125124
-0.126944
-0.126671
-0.123667
-0.0381649
-0.038642
-0.0390418
-0.0393501
-0.0396097
-0.0398449
-0.0400736
-0.0403008
-0.0405334
-0.0407706
-0.0410173
-0.0412717
-0.0415371
-0.0418112
-0.0420974
-0.0423948
-0.0427051
-0.0430273
-0.0433651
-0.0437184
-0.0440883
-0.0444776
-0.0448876
-0.0453201
-0.0457794
-0.0462671
-0.0467875
-0.0473447
-0.0479442
-0.0485925
-0.049295
-0.0500601
-0.0508942
-0.0518086
-0.0528148
-0.0539273
-0.0551649
-0.0565437
-0.058087
-0.0598194
-0.0617637
-0.063948
-0.0664036
-0.0691598
-0.0722478
-0.075695
-0.0795311
-0.0837616
-0.0883987
-0.0933932
-0.0987244
-0.104251
-0.109874
-0.115464
-0.120819
-0.125632
-0.129411
-0.131459
-0.131385
-0.128534
-0.0422641
-0.0427398
-0.0431344
-0.0434346
-0.0436836
-0.0439076
-0.044124
-0.0443397
-0.0445597
-0.0447856
-0.0450195
-0.0452623
-0.045514
-0.0457759
-0.0460476
-0.0463316
-0.0466264
-0.0469337
-0.047255
-0.0475916
-0.0479432
-0.0483135
-0.0487028
-0.0491133
-0.0495492
-0.0500119
-0.0505059
-0.051035
-0.0516051
-0.0522219
-0.052892
-0.0536217
-0.0544186
-0.0552951
-0.0562601
-0.05733
-0.0585233
-0.0598563
-0.0613529
-0.0630382
-0.0649357
-0.0670748
-0.0694882
-0.0722074
-0.0752663
-0.0786949
-0.0825277
-0.0867708
-0.0914467
-0.0964999
-0.10193
-0.107566
-0.113335
-0.119109
-0.124681
-0.129735
-0.133765
-0.136052
-0.136192
-0.133515
-0.046381
-0.04686
-0.0472565
-0.0475561
-0.0478033
-0.0480245
-0.0482374
-0.0484481
-0.0486629
-0.0488818
-0.0491087
-0.0493428
-0.049586
-0.0498372
-0.0500985
-0.05037
-0.0506519
-0.0509441
-0.0512494
-0.0515681
-0.0519004
-0.0522498
-0.0526167
-0.0530034
-0.053414
-0.0538499
-0.0543155
-0.0548148
-0.0553532
-0.0559369
-0.0565712
-0.0572643
-0.0580223
-0.0588567
-0.059779
-0.0608037
-0.0619502
-0.0632349
-0.064682
-0.0663176
-0.0681655
-0.0702564
-0.0726246
-0.0753042
-0.0783308
-0.0817383
-0.0855641
-0.0898173
-0.094528
-0.0996371
-0.105162
-0.110911
-0.116827
-0.122786
-0.128577
-0.133874
-0.138159
-0.14069
-0.141054
-0.138561
-0.0506837
-0.0511627
-0.0515558
-0.0518493
-0.0520885
-0.0523007
-0.0525044
-0.0527058
-0.0529108
-0.0531199
-0.0533358
-0.0535586
-0.0537886
-0.0540265
-0.0542722
-0.054528
-0.054792
-0.0550661
-0.0553516
-0.0556501
-0.0559606
-0.0562874
-0.0566302
-0.0569914
-0.0573752
-0.0577827
-0.0582184
-0.0586859
-0.0591911
-0.0597393
-0.0603369
-0.0609902
-0.0617065
-0.0624986
-0.0633746
-0.0643517
-0.0654486
-0.0666817
-0.068076
-0.0696581
-0.0714526
-0.0734916
-0.075811
-0.0784471
-0.0814381
-0.0848212
-0.0886376
-0.0928992
-0.0976434
-0.102808
-0.108429
-0.114288
-0.120354
-0.126503
-0.132518
-0.138068
-0.142618
-0.145407
-0.146009
-0.143725
-0.0550707
-0.0555532
-0.0559479
-0.0562393
-0.0564749
-0.0566815
-0.0568788
-0.0570717
-0.0572677
-0.0574656
-0.0576702
-0.0578796
-0.0580966
-0.0583192
-0.0585501
-0.058789
-0.0590362
-0.0592915
-0.0595577
-0.0598351
-0.0601234
-0.0604264
-0.0607441
-0.0610787
-0.0614345
-0.0618123
-0.0622168
-0.0626512
-0.0631212
-0.0636328
-0.0641908
-0.0648035
-0.0654768
-0.066222
-0.0670504
-0.0679767
-0.0690211
-0.0701996
-0.0715381
-0.0730637
-0.0748016
-0.0767853
-0.0790526
-0.081642
-0.084594
-0.0879496
-0.091753
-0.0960197
-0.100793
-0.106011
-0.111723
-0.117697
-0.123913
-0.130251
-0.136493
-0.142298
-0.147117
-0.150171
-0.151021
-0.148957
-0.0597458
-0.0602195
-0.0605995
-0.060872
-0.0610852
-0.0612696
-0.061443
-0.0616139
-0.0617866
-0.0619637
-0.0621457
-0.0623354
-0.0625303
-0.0627335
-0.0629427
-0.0631622
-0.0633879
-0.0636231
-0.0638674
-0.0641233
-0.0643882
-0.0646674
-0.0649594
-0.0652669
-0.0655941
-0.0659414
-0.0663136
-0.0667137
-0.0671475
-0.0676203
-0.0681382
-0.0687072
-0.0693343
-0.0700325
-0.0708092
-0.071682
-0.0726705
-0.073791
-0.0750697
-0.0765347
-0.0782118
-0.0801358
-0.0823467
-0.0848852
-0.0877943
-0.0911186
-0.0949061
-0.0991755
-0.103977
-0.109248
-0.115051
-0.121137
-0.127505
-0.134038
-0.140513
-0.146583
-0.151682
-0.155012
-0.156127
-0.154311
-0.0641253
-0.0646109
-0.0650054
-0.0652922
-0.0655205
-0.065718
-0.0659044
-0.0660847
-0.0662657
-0.0664469
-0.0666322
-0.0668203
-0.067013
-0.0672097
-0.0674117
-0.06762
-0.0678333
-0.0680525
-0.0682794
-0.0685151
-0.0687582
-0.0690134
-0.0692797
-0.0695597
-0.0698575
-0.0701736
-0.0705125
-0.0708773
-0.0712733
-0.0717064
-0.072181
-0.0727054
-0.0732848
-0.0739307
-0.0746542
-0.0754702
-0.0763998
-0.0774588
-0.0786743
-0.0800751
-0.0816878
-0.0835486
-0.0856994
-0.0881833
-0.0910459
-0.0943353
-0.0981029
-0.102372
-0.107197
-0.112517
-0.118407
-0.124609
-0.131131
-0.137858
-0.144567
-0.150903
-0.156287
-0.1599
-0.161289
-0.159737
-0.0691076
-0.0695809
-0.0699543
-0.0702138
-0.0704101
-0.0705754
-0.0707284
-0.0708781
-0.0710282
-0.0711821
-0.0713394
-0.0715035
-0.0716711
-0.0718457
-0.0720242
-0.0722116
-0.0724025
-0.0726006
-0.0728052
-0.0730188
-0.0732381
-0.0734687
-0.0737088
-0.0739607
-0.0742287
-0.0745128
-0.0748175
-0.0751456
-0.0755025
-0.0758934
-0.0763241
-0.0768004
-0.0773288
-0.0779229
-0.0785886
-0.0793448
-0.0802116
-0.0812052
-0.0823532
-0.0836852
-0.0852287
-0.0870214
-0.0891073
-0.0915317
-0.0943433
-0.0975936
-0.101338
-0.105603
-0.11045
-0.115819
-0.121796
-0.128113
-0.134789
-0.141716
-0.148667
-0.155278
-0.160957
-0.164867
-0.166548
-0.165291
-0.0737146
-0.0741998
-0.0745879
-0.0748623
-0.0750742
-0.0752531
-0.0754193
-0.0755783
-0.0757366
-0.0758941
-0.0760541
-0.0762161
-0.0763809
-0.0765485
-0.0767194
-0.0768953
-0.0770734
-0.0772554
-0.0774422
-0.0776354
-0.0778323
-0.0780384
-0.0782519
-0.0784751
-0.0787123
-0.0789634
-0.0792326
-0.0795226
-0.0798385
-0.0801862
-0.0805695
-0.0809968
-0.081473
-0.0820091
-0.0826158
-0.0833084
-0.0841089
-0.0850333
-0.08611
-0.0873694
-0.0888397
-0.0905603
-0.0925773
-0.0949383
-0.0976949
-0.100902
-0.104619
-0.108876
-0.113742
-0.119155
-0.125217
-0.13165
-0.138481
-0.145606
-0.152799
-0.159689
-0.165667
-0.169879
-0.171864
-0.170922
-0.0789621
-0.0794329
-0.0797972
-0.0800418
-0.080219
-0.0803637
-0.0804944
-0.0806213
-0.0807473
-0.0808764
-0.0810075
-0.0811445
-0.0812833
-0.0814278
-0.0815743
-0.0817279
-0.0818826
-0.0820422
-0.0822059
-0.0823756
-0.0825478
-0.082728
-0.0829139
-0.0831074
-0.0833129
-0.0835296
-0.083762
-0.0840123
-0.084286
-0.0845878
-0.0849231
-0.0852978
-0.0857177
-0.0861961
-0.0867385
-0.0873641
-0.0880943
-0.0889452
-0.0899458
-0.0911277
-0.0925196
-0.0941626
-0.0961053
-0.0983976
-0.101094
-0.104253
-0.107939
-0.112186
-0.117067
-0.122524
-0.12867
-0.135217
-0.142204
-0.149534
-0.156978
-0.164155
-0.170443
-0.17497
-0.177278
-0.176686
-0.0837958
-0.0842792
-0.0846597
-0.0849212
-0.0851163
-0.085277
-0.0854233
-0.0855615
-0.0856976
-0.0858319
-0.0859671
-0.086103
-0.0862398
-0.0863778
-0.0865171
-0.0866594
-0.0868015
-0.0869446
-0.0870901
-0.0872386
-0.0873876
-0.0875419
-0.0876997
-0.0878626
-0.0880353
-0.0882164
-0.0884105
-0.0886196
-0.0888488
-0.0891033
-0.0893868
-0.0897076
-0.0900696
-0.0904838
-0.0909602
-0.0915149
-0.092171
-0.0929443
-0.0938649
-0.0949649
-0.0962742
-0.0978354
-0.0996995
-0.101919
-0.104551
-0.107658
-0.111308
-0.115539
-0.120432
-0.125929
-0.132155
-0.13882
-0.145963
-0.153496
-0.16119
-0.168657
-0.175259
-0.180106
-0.182748
-0.182522
-0.0892645
-0.0897393
-0.0901025
-0.090341
-0.090508
-0.0906403
-0.0907559
-0.0908661
-0.0909727
-0.0910805
-0.0911877
-0.091299
-0.0914094
-0.0915235
-0.0916373
-0.0917561
-0.0918734
-0.0919927
-0.0921135
-0.0922371
-0.0923597
-0.0924864
-0.0926147
-0.0927457
-0.0928843
-0.0930284
-0.0931826
-0.0933486
-0.0935315
-0.0937358
-0.0939665
-0.0942291
-0.094529
-0.0948794
-0.0952843
-0.0957644
-0.0963419
-0.0970329
-0.0978681
-0.0988809
-0.100102
-0.101575
-0.103355
-0.105495
-0.108057
-0.111107
-0.114717
-0.11893
-0.123832
-0.129367
-0.135674
-0.142452
-0.149753
-0.157495
-0.165448
-0.173214
-0.180141
-0.185321
-0.188315
-0.188469
-0.0946073
-0.095083
-0.095445
-0.0956798
-0.0958411
-0.0959659
-0.0960732
-0.0961735
-0.0962701
-0.0963664
-0.0964629
-0.0965616
-0.0966606
-0.0967615
-0.0968626
-0.0969663
-0.0970679
-0.0971686
-0.0972693
-0.0973699
-0.0974673
-0.0975662
-0.0976642
-0.0977621
-0.0978652
-0.0979707
-0.0980833
-0.0982043
-0.0983384
-0.0984909
-0.0986645
-0.0988677
-0.0991037
-0.0993829
-0.0997146
-0.100116
-0.10061
-0.101215
-0.10196
-0.102881
-0.104009
-0.10539
-0.107081
-0.109138
-0.111625
-0.114613
-0.118178
-0.122367
-0.127274
-0.132844
-0.139228
-0.146121
-0.153579
-0.161528
-0.16974
-0.177808
-0.185062
-0.190581
-0.193936
-0.194448
-0.100126
-0.100603
-0.100964
-0.101194
-0.10135
-0.101468
-0.101569
-0.101662
-0.101751
-0.101838
-0.101923
-0.102009
-0.102092
-0.102176
-0.102257
-0.10234
-0.10242
-0.102497
-0.102573
-0.102648
-0.102718
-0.102787
-0.102854
-0.102917
-0.102983
-0.103049
-0.103118
-0.103192
-0.103275
-0.103373
-0.103488
-0.103627
-0.103794
-0.104002
-0.104254
-0.104572
-0.104979
-0.105492
-0.106142
-0.106965
-0.107994
-0.109277
-0.110871
-0.112838
-0.115245
-0.118165
-0.121681
-0.125842
-0.130751
-0.136354
-0.142815
-0.149819
-0.157436
-0.165599
-0.174079
-0.182458
-0.19005
-0.195919
-0.199648
-0.200511
-0.105727
-0.106206
-0.106566
-0.106793
-0.106942
-0.107054
-0.107147
-0.107231
-0.107311
-0.10739
-0.107467
-0.107543
-0.107619
-0.107693
-0.107764
-0.107835
-0.107901
-0.107961
-0.108018
-0.10807
-0.108114
-0.108154
-0.108189
-0.108217
-0.108245
-0.108268
-0.108292
-0.108317
-0.108347
-0.108387
-0.108439
-0.108512
-0.108608
-0.108737
-0.108908
-0.109137
-0.109452
-0.109868
-0.110418
-0.111139
-0.112064
-0.113243
-0.114737
-0.116609
-0.11893
-0.121777
-0.125238
-0.129367
-0.134274
-0.139906
-0.146439