/*--------------------------------*- C++ -*----------------------------------*\
  =========                 |
  \\      /  F ield         | OpenFOAM: The Open Source CFD Toolbox
   \\    /   O peration     | Website:  https://openfoam.org
    \\  /    A nd           | Version:  6.0
     \\/     M anipulation  |
\*---------------------------------------------------------------------------*/
FoamFile
{
    version     2.0;
    format      ascii;
    class       surfaceScalarField;
    location    "3";
    object      phi;
}
// * * * * * * * * * * * * * * * * * * * * * * * * * * * * * * * * * * * * * //

dimensions      [0 3 -1 0 0 0 0];

internalField   nonuniform List<scalar> 
123526
(
5.41425e-05
2.30549e-05
-5.37562e-05
5.45657e-05
2.49234e-05
5.50206e-05
2.69421e-05
5.55138e-05
2.9123e-05
5.60448e-05
3.14793e-05
5.66207e-05
3.40252e-05
5.72416e-05
3.67756e-05
5.79146e-05
3.97467e-05
5.8642e-05
4.29554e-05
5.94302e-05
4.64218e-05
6.02815e-05
5.01665e-05
6.12025e-05
5.42106e-05
6.21982e-05
5.85775e-05
6.32774e-05
6.32902e-05
6.44478e-05
6.8377e-05
6.57136e-05
7.38703e-05
6.70834e-05
7.97983e-05
6.85708e-05
8.61885e-05
7.0184e-05
9.30837e-05
7.1929e-05
0.000100523
7.3824e-05
0.000108536
7.58797e-05
0.000117172
7.81045e-05
0.000126481
8.05227e-05
0.000136493
8.31415e-05
0.000147279
8.59799e-05
0.000158875
8.90581e-05
0.000171339
9.23895e-05
0.000184731
9.60009e-05
0.000199097
9.99055e-05
0.000214506
0.000104132
0.000231
0.000108698
0.000248646
0.000113629
0.000267484
0.00011895
0.000287565
0.000124683
0.000308926
0.000130856
0.000331585
0.000137489
0.000355563
0.000144609
0.000380842
0.000152238
0.000407384
0.000160395
0.000435118
0.000169099
0.000463925
0.000178365
0.000493624
0.000188202
0.000523968
0.000198615
0.000554608
0.000209599
0.00058508
0.000221139
0.000614769
0.000233204
0.000642875
0.000245745
0.000668367
0.000258688
0.000689934
0.000271926
0.000705929
0.000285311
0.000714302
0.000298647
0.000712542
0.000311674
0.00069762
0.000324057
0.000665934
0.000335372
0.000613304
0.000345095
0.000534988
0.00035258
0.000425847
0.000357241
0.000279796
0.000360128
9.707e-05
-0.00011163
0.000362151
5.4903e-05
2.26702e-05
-5.45257e-05
5.53148e-05
2.45096e-05
5.57572e-05
2.64962e-05
5.62363e-05
2.86422e-05
5.67516e-05
3.09608e-05
5.73098e-05
3.34656e-05
5.7911e-05
3.61714e-05
5.85624e-05
3.9094e-05
5.92659e-05
4.2249e-05
6.00286e-05
4.56576e-05
6.0852e-05
4.93404e-05
6.17436e-05
5.33173e-05
6.27074e-05
5.76112e-05
6.37532e-05
6.22426e-05
6.48875e-05
6.72404e-05
6.61159e-05
7.26401e-05
6.74456e-05
7.84667e-05
6.88913e-05
8.47412e-05
7.04597e-05
9.15135e-05
7.21583e-05
9.88226e-05
7.40035e-05
0.000106689
7.60069e-05
0.000115167
7.81756e-05
0.000124311
8.05342e-05
0.000134133
8.30886e-05
0.000144723
8.58583e-05
0.000156105
8.88617e-05
0.000168335
9.21124e-05
0.00018148
9.56361e-05
0.000195573
9.94453e-05
0.000210697
0.000103568
0.000226877
0.00010802
0.000244193
0.000112828
0.000262676
0.000118015
0.000282379
0.000123602
0.00030334
0.000129617
0.000325571
0.000136079
0.000349102
0.000143014
0.000373908
0.000150446
0.000399954
0.000158393
0.000427175
0.000166874
0.000455448
0.000175905
0.000484598
0.000185496
0.000514382
0.000195653
0.000544458
0.000206372
0.000574369
0.000217639
0.000603511
0.000229428
0.000631099
0.000241689
0.000656121
0.000254352
0.00067729
0.000267312
0.000692993
0.000280425
0.00070122
0.000293497
0.000699512
0.000306273
0.000684894
0.000318424
0.00065384
0.00032953
0.000602263
0.000339078
0.000525528
0.00034645
0.000418613
0.000351102
0.000275358
0.000353334
9.52185e-05
-0.000110359
0.000352479
5.46819e-05
2.22954e-05
-5.43148e-05
5.50845e-05
2.41049e-05
5.55184e-05
2.60587e-05
5.59897e-05
2.81693e-05
5.64976e-05
3.04496e-05
5.70488e-05
3.2913e-05
5.76434e-05
3.55739e-05
5.8288e-05
3.84478e-05
5.89848e-05
4.15493e-05
5.974e-05
4.49005e-05
6.05556e-05
4.85218e-05
6.14384e-05
5.24322e-05
6.23924e-05
5.66543e-05
6.34269e-05
6.12057e-05
6.45482e-05
6.61162e-05
6.57617e-05
7.14244e-05
6.70743e-05
7.71517e-05
6.85004e-05
8.33133e-05
7.00462e-05
8.99658e-05
7.17191e-05
9.71483e-05
7.3535e-05
0.000104872
7.55053e-05
0.000113196
7.76366e-05
0.000122179
7.99534e-05
0.000131816
8.24607e-05
0.000142215
8.5178e-05
0.000153386
8.8123e-05
0.000165389
9.13089e-05
0.000178293
9.47606e-05
0.000192121
9.84903e-05
0.000206966
0.000102525
0.000222842
0.00010688
0.000239837
0.000111583
0.000257974
0.000116653
0.000277308
0.000122113
0.00029788
0.00012799
0.000319694
0.000134304
0.000342789
0.000141079
0.000367134
0.000148339
0.000392696
0.000156102
0.000419413
0.000164388
0.000447165
0.000173214
0.000475776
0.00018259
0.00050501
0.000192521
0.000534531
0.000203007
0.000563888
0.000214033
0.00059249
0.000225574
0.000619563
0.000237583
0.000644116
0.000249989
0.000664887
0.000262691
0.000680293
0.000275548
0.000688365
0.000288369
0.000686693
0.000300903
0.000672369
0.000312829
0.000641937
0.000323735
0.00059139
0.000333117
0.000516188
0.00034038
0.000411409
0.000344997
0.000270797
0.000347015
9.32673e-05
-0.000108391
0.000345102
5.40556e-05
2.19278e-05
-5.36939e-05
5.44518e-05
2.37073e-05
5.48792e-05
2.56285e-05
5.53435e-05
2.77039e-05
5.58444e-05
2.99461e-05
5.63882e-05
3.23683e-05
5.6975e-05
3.49846e-05
5.76118e-05
3.78101e-05
5.83002e-05
4.08584e-05
5.90471e-05
4.41525e-05
5.98538e-05
4.77129e-05
6.07272e-05
5.15575e-05
6.1671e-05
5.57083e-05
6.26947e-05
6.01807e-05
6.38039e-05
6.50051e-05
6.5004e-05
7.0223e-05
6.63014e-05
7.58526e-05
6.77104e-05
8.19032e-05
6.92367e-05
8.84379e-05
7.08877e-05
9.54963e-05
7.26786e-05
0.000103079
7.46207e-05
0.000111253
7.672e-05
0.000120078
7.90007e-05
0.000129534
8.14675e-05
0.000139747
8.41394e-05
0.000150713
8.70336e-05
0.000162494
9.01629e-05
0.000175163
9.35516e-05
0.000188731
9.72116e-05
0.000203305
0.000101169
0.000218883
0.00010544
0.000235565
0.000110049
0.000253364
0.000115018
0.00027234
0.000120367
0.000292531
0.000126124
0.000313937
0.000132307
0.000336606
0.000138941
0.0003605
0.00014605
0.000385588
0.000153652
0.000411813
0.000161766
0.000439052
0.000170409
0.000467135
0.000179593
0.00049583
0.000189322
0.000524805
0.000199596
0.00055362
0.000210402
0.00058169
0.000221715
0.000608259
0.000233488
0.000632353
0.000245654
0.000652735
0.000258112
0.000667854
0.000270725
0.000675778
0.000283305
0.000674152
0.000295607
0.000660118
0.000307315
0.000630292
0.000318026
0.00058076
0.000327248
0.000507077
0.000334408
0.000404416
0.000338976
0.000266478
0.000340772
9.19005e-05
-0.000105439
0.000338306
5.32725e-05
2.15653e-05
-5.29176e-05
5.36622e-05
2.33152e-05
5.40829e-05
2.52044e-05
5.45399e-05
2.7245e-05
5.50332e-05
2.94497e-05
5.55689e-05
3.18312e-05
5.61474e-05
3.44033e-05
5.67751e-05
3.7181e-05
5.74541e-05
4.01765e-05
5.81906e-05
4.34142e-05
5.89864e-05
4.69142e-05
5.98481e-05
5.06936e-05
6.07796e-05
5.4774e-05
6.17897e-05
5.91683e-05
6.28846e-05
6.39077e-05
6.40691e-05
6.90365e-05
6.53497e-05
7.45698e-05
6.67402e-05
8.05111e-05
6.82462e-05
8.69302e-05
6.98749e-05
9.38666e-05
7.16408e-05
0.000101312
7.3555e-05
0.000109338
7.56235e-05
0.000118009
7.78695e-05
0.000127287
8.02978e-05
0.000137318
8.29267e-05
0.000148083
8.57731e-05
0.000159647
8.88495e-05
0.000172086
9.21794e-05
0.000185401
9.57746e-05
0.000199709
9.96607e-05
0.000214996
0.000103853
0.000231372
0.000108376
0.00024884
0.000113251
0.000267464
0.000118498
0.000287284
0.000124143
0.000308291
0.000130206
0.000330543
0.000136711
0.000353996
0.000143681
0.00037862
0.000151134
0.000404362
0.000159089
0.0004311
0.000167563
0.000458663
0.000176568
0.000486828
0.000186109
0.000515268
0.000196186
0.000543547
0.000206785
0.000571094
0.000217882
0.000597164
0.000229432
0.000620804
0.000241369
0.000640798
0.000253593
0.000655627
0.000265971
0.000663397
0.000278318
0.000661802
0.000290394
0.000648044
0.00030189
0.00061881
0.000312411
0.000570261
0.000321478
0.000498039
0.000328532
0.000397402
0.000333033
0.000262003
0.000334632
9.03203e-05
-0.000102689
0.000331878
5.24232e-05
2.12089e-05
-5.20724e-05
5.2807e-05
2.29299e-05
5.32211e-05
2.47878e-05
5.36706e-05
2.67944e-05
5.41557e-05
2.89622e-05
5.46823e-05
3.13037e-05
5.52509e-05
3.38325e-05
5.58681e-05
3.6563e-05
5.65357e-05
3.95067e-05
5.72602e-05
4.26887e-05
5.80431e-05
4.61293e-05
5.88912e-05
4.98444e-05
5.98079e-05
5.38554e-05
6.08025e-05
5.81726e-05
6.18804e-05
6.28281e-05
6.30469e-05
6.78689e-05
6.43079e-05
7.33072e-05
6.56774e-05
7.91408e-05
6.71605e-05
8.54457e-05
6.87643e-05
9.22619e-05
7.05033e-05
9.95719e-05
7.23881e-05
0.000107452
7.44244e-05
0.000115971
7.66351e-05
0.000125076
7.90246e-05
0.000134927
8.16109e-05
0.000145496
8.44103e-05
0.000156847
8.74351e-05
0.00016906
9.07083e-05
0.000182127
9.42412e-05
0.000196175
9.8059e-05
0.000211177
0.000102177
0.000227253
0.000106618
0.000244397
0.000111404
0.000262678
0.000116554
0.000282134
0.000122096
0.00030275
0.000128046
0.000324594
0.000134429
0.000347614
0.000141268
0.000371782
0.000148581
0.000397051
0.000156387
0.000423295
0.000164703
0.00045035
0.000173539
0.000477994
0.000182903
0.000505908
0.000192791
0.000533663
0.000203194
0.000560697
0.000214085
0.00058628
0.000225422
0.000609476
0.000237139
0.000629094
0.000249138
0.000643644
0.000261289
0.000651271
0.000273409
0.000649715
0.000285266
0.000636233
0.000296555
0.00060758
0.00030689
0.000560003
0.000315804
0.000489235
0.00032275
0.000390618
0.000327172
0.000257824
0.000328605
8.93036e-05
-9.92982e-05
0.000325703
5.15479e-05
2.08584e-05
-5.12038e-05
5.19249e-05
2.25511e-05
5.23316e-05
2.43783e-05
5.27732e-05
2.63515e-05
5.32496e-05
2.84831e-05
5.37669e-05
3.07853e-05
5.43255e-05
3.32715e-05
5.49316e-05
3.59558e-05
5.55875e-05
3.88485e-05
5.62989e-05
4.19758e-05
5.70679e-05
4.53579e-05
5.79007e-05
4.90097e-05
5.88014e-05
5.29523e-05
5.97784e-05
5.71936e-05
6.08377e-05
6.17665e-05
6.19842e-05
6.67208e-05
6.32239e-05
7.20655e-05
6.45705e-05
7.7793e-05
6.60289e-05
8.39857e-05
6.76064e-05
9.06837e-05
6.93167e-05
9.78604e-05
7.11705e-05
0.000105598
7.31733e-05
0.000113968
7.53475e-05
0.000122901
7.76974e-05
0.000132577
8.02405e-05
0.000142952
8.29929e-05
0.000154094
8.59664e-05
0.000166086
8.91836e-05
0.000178909
9.26555e-05
0.000192703
9.64068e-05
0.000207425
0.000100452
0.000223207
0.000104815
0.000240034
0.000109515
0.000257977
0.000114573
0.000277076
0.000120014
0.000297309
0.000125857
0.000318752
0.000132124
0.000341348
0.000138839
0.000365069
0.000146018
0.000389873
0.000153682
0.000415634
0.000161847
0.000442188
0.000170523
0.000469322
0.000179716
0.000496718
0.000189425
0.000523957
0.000199639
0.000550486
0.000210334
0.000575588
0.000221465
0.000598345
0.000232969
0.000617588
0.00024475
0.000631858
0.000256681
0.000639335
0.000268581
0.000637806
0.000280223
0.000624586
0.00029131
0.000596497
0.000301464
0.000549859
0.000310226
0.000480486
0.000317062
0.000383797
0.000321399
0.000253479
0.000322693
8.79742e-05
-9.63913e-05
0.000319721
5.06674e-05
2.05146e-05
-5.03279e-05
5.1038e-05
2.21797e-05
5.14375e-05
2.39767e-05
5.18712e-05
2.59173e-05
5.23389e-05
2.80134e-05
5.28465e-05
3.02773e-05
5.33945e-05
3.27217e-05
5.39892e-05
3.53606e-05
5.46324e-05
3.82033e-05
5.53306e-05
4.1277e-05
5.60851e-05
4.46017e-05
5.69026e-05
4.81914e-05
5.77864e-05
5.20668e-05
5.87456e-05
5.62335e-05
5.97854e-05
6.07252e-05
6.09111e-05
6.55943e-05
6.21284e-05
7.08469e-05
6.34507e-05
7.647e-05
6.48832e-05
8.25521e-05
6.64327e-05
8.91336e-05
6.81129e-05
9.61791e-05
6.99344e-05
0.000103776
7.19024e-05
0.000111999
7.40391e-05
0.000120763
7.63484e-05
0.000130267
7.88477e-05
0.000140452
8.15526e-05
0.000151388
8.44747e-05
0.000163163
8.76362e-05
0.000175747
9.10477e-05
0.00018929
9.47335e-05
0.000203738
9.87079e-05
0.000219232
0.000102994
0.000235747
0.000107611
0.00025336
0.000112579
0.000272109
0.000117924
0.000291965
0.000123662
0.000313014
0.000129817
0.000335193
0.000136412
0.000358475
0.000143464
0.000382823
0.000150991
0.000408109
0.00015901
0.000434172
0.000167531
0.000460803
0.00017656
0.000487692
0.000186097
0.000514425
0.000196128
0.000540459
0.000206632
0.000565091
0.000217563
0.000587421
0.000228862
0.000606302
0.000240431
0.000620302
0.000252148
0.00062764
0.000263834
0.000626149
0.000275267
0.000613193
0.000286156
0.000585661
0.000296132
0.000539956
0.000304744
0.000471976
0.000311468
0.000377227
0.000315718
0.00024946
0.000316896
8.71911e-05
-9.29218e-05
0.000313901
4.97885e-05
2.01766e-05
-4.94573e-05
5.01517e-05
2.18145e-05
5.05435e-05
2.3582e-05
5.09689e-05
2.54905e-05
5.14278e-05
2.75519e-05
5.1926e-05
2.9778e-05
5.24639e-05
3.21815e-05
5.30475e-05
3.47758e-05
5.3679e-05
3.75696e-05
5.43639e-05
4.05906e-05
5.51043e-05
4.3859e-05
5.59062e-05
4.73877e-05
5.67735e-05
5.11972e-05
5.77145e-05
5.52907e-05
5.87349e-05
5.97027e-05
5.98395e-05
6.44881e-05
6.10342e-05
6.96504e-05
6.23322e-05
7.5171e-05
6.37384e-05
8.11445e-05
6.52597e-05
8.76117e-05
6.69095e-05
9.45283e-05
6.86982e-05
0.000101986
7.06309e-05
0.000110065
7.27295e-05
0.000118664
7.49978e-05
0.000127998
7.74529e-05
0.000137997
8.011e-05
0.000148731
8.29807e-05
0.000160292
8.60865e-05
0.000172641
8.94381e-05
0.000185938
9.3059e-05
0.000200117
9.69632e-05
0.000215327
0.000101174
0.000231537
0.00010571
0.000248824
0.00011059
0.000267228
0.00011584
0.000286715
0.000121477
0.000307378
0.000127524
0.000329148
0.000134002
0.000351999
0.000140929
0.000375898
0.000148324
0.000400717
0.000156201
0.000426297
0.000164573
0.000452436
0.000173443
0.000478825
0.000182811
0.00050506
0.000192666
0.000530606
0.000202984
0.000554775
0.000213722
0.000576682
0.00022482
0.000595202
0.000236183
0.000608932
0.00024769
0.000616126
0.000259168
0.000614659
0.000270396
0.000601952
0.000281092
0.00057496
0.000290893
0.000530153
0.000299357
0.000463508
0.000305969
0.000370607
0.000310132
0.000245256
0.000311212
8.60224e-05
-9.0063e-05
0.000308221
4.89193e-05
1.98454e-05
-4.85924e-05
4.92764e-05
2.14566e-05
4.96612e-05
2.31951e-05
5.00789e-05
2.50722e-05
5.05292e-05
2.70996e-05
5.10181e-05
2.92887e-05
5.15456e-05
3.16521e-05
5.21181e-05
3.42029e-05
5.27373e-05
3.69486e-05
5.34093e-05
3.99181e-05
5.41354e-05
4.31312e-05
5.49223e-05
4.66002e-05
5.57728e-05
5.0345e-05
5.66961e-05
5.43667e-05
5.7697e-05
5.87004e-05
5.87807e-05
6.34038e-05
5.99526e-05
6.84772e-05
6.12261e-05
7.38971e-05
6.26057e-05
7.97638e-05
6.40985e-05
8.61184e-05
6.57176e-05
9.29083e-05
6.74732e-05
0.00010023
6.93704e-05
0.000108167
7.14306e-05
0.000116604
7.36578e-05
0.00012577
7.60686e-05
0.000135585
7.86779e-05
0.000146121
8.14972e-05
0.000157472
8.45477e-05
0.00016959
8.78396e-05
0.000182646
9.13963e-05
0.000196559
9.52316e-05
0.000211491
9.93674e-05
0.0002274
0.000103823
0.000244368
0.000108617
0.000262435
0.000113775
0.000281558
0.000119313
0.000301841
0.000125253
0.000323209
0.000131618
0.000345636
0.000138424
0.000369094
0.000145689
0.000393455
0.000153428
0.00041856
0.000161653
0.000444214
0.000170369
0.000470114
0.000179573
0.000495859
0.000189255
0.000520929
0.000199392
0.000544645
0.000209941
0.00056614
0.000220843
0.000584311
0.000232005
0.000597782
0.000243308
0.000604843
0.000254581
0.000603411
0.000265611
0.000590958
0.000276117
0.000564499
0.000285745
0.000520588
0.000294065
0.000455282
0.000300563
0.000364247
0.00030464
0.000241389
0.000305638
8.53858e-05
-8.66429e-05
0.00030267
4.80601e-05
1.95199e-05
-4.77402e-05
4.84104e-05
2.1105e-05
4.87881e-05
2.2815e-05
4.91981e-05
2.46613e-05
4.96402e-05
2.66553e-05
5.01201e-05
2.88082e-05
5.06381e-05
3.11323e-05
5.12e-05
3.36402e-05
5.18077e-05
3.63388e-05
5.2467e-05
3.92577e-05
5.31794e-05
4.24166e-05
5.39511e-05
4.5827e-05
5.47856e-05
4.95084e-05
5.56911e-05
5.34597e-05
5.66728e-05
5.77166e-05
5.77358e-05
6.23394e-05
5.88856e-05
6.73258e-05
6.01349e-05
7.26468e-05
6.14886e-05
7.84088e-05
6.29534e-05
8.46532e-05
6.45422e-05
9.13186e-05
6.62651e-05
9.85071e-05
6.8127e-05
0.000106305
7.01492e-05
0.000114581
7.23354e-05
0.000123583
7.47021e-05
0.000133218
7.72639e-05
0.000143558
8.00322e-05
0.000154704
8.30276e-05
0.000166594
8.62605e-05
0.000179413
8.97536e-05
0.000193066
9.35203e-05
0.000207724
9.7583e-05
0.000223338
0.00010196
0.000239992
0.000106669
0.000257725
0.000111736
0.000276492
0.000117176
0.000296402
0.000123012
0.000317374
0.000129266
0.000339385
0.000135952
0.00036241
0.000143091
0.000386319
0.000150696
0.000410958
0.000158777
0.000436135
0.000167341
0.000461553
0.000176385
0.000486818
0.000185898
0.000511418
0.000195858
0.000534687
0.000206222
0.000555774
0.000216933
0.000573598
0.000227897
0.000586809
0.000239002
0.000593731
0.000250075
0.000592322
0.000260909
0.000580108
0.000271229
0.000554165
0.00028069
0.000511115
0.000288866
0.00044709
0.000295252
0.000357833
0.000299245
0.00023733
0.000300172
8.43285e-05
-8.38888e-05
0.000297235
4.72156e-05
1.92009e-05
-4.68996e-05
4.75601e-05
2.07604e-05
4.79311e-05
2.24426e-05
4.83337e-05
2.42587e-05
4.87676e-05
2.62198e-05
4.92386e-05
2.83373e-05
4.97465e-05
3.06227e-05
5.02979e-05
3.30888e-05
5.08939e-05
3.57412e-05
5.15409e-05
3.86104e-05
5.22396e-05
4.17163e-05
5.2997e-05
4.50693e-05
5.38153e-05
4.86884e-05
5.47039e-05
5.25706e-05
5.56668e-05
5.67523e-05
5.67098e-05
6.1296e-05
5.78375e-05
6.61969e-05
5.90631e-05
7.14208e-05
6.0391e-05
7.708e-05
6.1828e-05
8.32158e-05
6.33868e-05
8.97591e-05
6.50773e-05
9.68163e-05
6.69044e-05
0.000104477
6.88889e-05
0.000112596
7.10345e-05
0.000121437
7.33576e-05
0.000130895
7.58724e-05
0.000141043
7.85901e-05
0.000151986
8.15312e-05
0.000163653
8.47056e-05
0.000176238
8.81358e-05
0.000189635
9.18352e-05
0.000204024
9.58249e-05
0.000219347
0.000100124
0.000235693
0.00010475
0.0002531
0.000109727
0.000271515
0.000115072
0.000291059
0.000120805
0.000311642
0.000126949
0.000333243
0.000133519
0.000355842
0.000140533
0.000379308
0.000148005
0.000403488
0.000155947
0.000428197
0.000164361
0.000453142
0.000173249
0.000477935
0.000182596
0.000502074
0.000192382
0.000524906
0.000202565
0.000545597
0.000213089
0.000563085
0.000223861
0.000576048
0.00023477
0.000582841
0.000245647
0.000581467
0.000256289
0.000569495
0.000266428
0.000544067
0.000275723
0.000501878
0.000283758
0.000439141
0.000290034
0.000351686
0.000293944
0.000233616
0.000294811
8.37991e-05
-8.0556e-05
0.000291913
4.63836e-05
1.88872e-05
-4.6076e-05
4.67211e-05
2.04215e-05
4.70848e-05
2.20763e-05
4.74797e-05
2.38627e-05
4.79055e-05
2.57917e-05
4.83678e-05
2.78742e-05
4.88667e-05
3.01219e-05
4.94079e-05
3.25468e-05
4.99932e-05
3.51538e-05
5.0628e-05
3.79744e-05
5.1314e-05
4.10282e-05
5.2057e-05
4.43248e-05
5.28603e-05
4.7883e-05
5.3732e-05
5.16975e-05
5.4677e-05
5.58053e-05
5.57002e-05
6.02716e-05
5.68069e-05
6.50887e-05
5.80095e-05
7.02175e-05
5.93125e-05
7.57758e-05
6.07226e-05
8.18054e-05
6.22521e-05
8.82288e-05
6.39109e-05
9.51572e-05
6.57039e-05
0.000102683
6.76514e-05
0.000110649
6.97571e-05
0.000119331
7.20372e-05
0.000128614
7.45057e-05
0.000138574
7.71735e-05
0.000149318
8.00608e-05
0.000160766
8.31776e-05
0.000173121
8.65458e-05
0.000186267
9.01783e-05
0.000200391
9.40969e-05
0.000215429
9.83188e-05
0.000231471
0.000102863
0.000248557
0.000107752
0.000266627
0.000113002
0.00028581
0.000118635
0.00030601
0.000124671
0.00032721
0.000131126
0.000349389
0.000138017
0.000372419
0.00014536
0.000396149
0.000153163
0.000420397
0.000161432
0.000444876
0.000170165
0.000469205
0.00017935
0.00049289
0.000188966
0.000515291
0.000198972
0.000535589
0.000209311
0.000552743
0.000219894
0.000565455
0.000230612
0.000572114
0.000241297
0.000570762
0.000251752
0.00055902
0.000261713
0.000534087
0.000270846
0.000492726
0.000278742
0.000431219
0.000284908
0.000345476
0.000288738
0.000229696
0.000289552
8.28201e-05
-7.79308e-05
0.000286696
4.55682e-05
1.85798e-05
-4.52641e-05
4.59001e-05
2.00894e-05
4.62573e-05
2.17173e-05
4.66452e-05
2.34747e-05
4.70631e-05
2.53722e-05
4.75168e-05
2.74205e-05
4.80061e-05
2.9631e-05
4.85372e-05
3.20156e-05
4.91111e-05
3.45782e-05
4.97343e-05
3.73511e-05
5.04072e-05
4.03539e-05
5.11365e-05
4.35952e-05
5.19245e-05
4.70935e-05
5.27801e-05
5.08416e-05
5.37072e-05
5.48769e-05
5.47113e-05
5.92672e-05
5.57969e-05
6.40019e-05
5.69768e-05
6.90373e-05
5.82552e-05
7.44966e-05
5.96386e-05
8.04217e-05
6.11393e-05
8.67274e-05
6.2767e-05
9.35293e-05
6.45264e-05
0.000100923
6.64375e-05
0.000108737
6.85041e-05
0.000117264
7.07418e-05
0.000126376
7.31647e-05
0.000136151
7.57835e-05
0.000146699
7.86179e-05
0.000157931
8.16778e-05
0.000170061
8.49848e-05
0.000182959
8.85519e-05
0.000196824
9.23995e-05
0.000211581
9.65462e-05
0.000227325
0.000101009
0.000244095
0.000105811
0.000261826
0.000110968
0.000280654
0.000116502
0.000300479
0.000122432
0.000321282
0.000128774
0.000343049
0.000135545
0.000365651
0.00014276
0.000388937
0.000150427
0.000412733
0.000158553
0.000436754
0.000167134
0.000460627
0.00017616
0.000483868
0.000185609
0.000505848
0.00019544
0.000525763
0.000205599
0.000542593
0.000215996
0.000555066
0.000226527
0.000561602
0.000237024
0.000560282
0.000247295
0.000548774
0.000257081
0.000524336
0.000266055
0.000483803
0.000273814
0.000423537
0.000279872
0.000339535
0.000283625
0.000226123
0.000284393
8.23595e-05
-7.47059e-05
0.000281584
4.47662e-05
1.82777e-05
-4.44689e-05
4.50918e-05
1.9763e-05
4.54424e-05
2.13646e-05
4.58233e-05
2.30934e-05
4.62335e-05
2.49599e-05
4.66792e-05
2.69747e-05
4.71597e-05
2.91488e-05
4.76812e-05
3.14937e-05
4.82447e-05
3.40127e-05
4.88563e-05
3.67388e-05
4.95167e-05
3.96914e-05
5.02322e-05
4.28785e-05
5.10056e-05
4.63181e-05
5.18449e-05
5.00009e-05
5.27546e-05
5.39652e-05
5.37398e-05
5.82809e-05
5.48052e-05
6.2935e-05
5.59631e-05
6.78788e-05
5.72176e-05
7.3241e-05
5.85752e-05
7.90638e-05
6.00479e-05
8.5254e-05
6.16452e-05
9.19319e-05
6.33718e-05
9.91963e-05
6.52473e-05
0.000106861
6.72755e-05
0.000115235
6.94718e-05
0.00012418
7.18498e-05
0.000133773
7.44204e-05
0.000144128
7.72028e-05
0.000155149
8.02068e-05
0.000167057
8.34536e-05
0.000179712
8.69559e-05
0.000193321
9.07345e-05
0.000207803
9.48063e-05
0.000223253
9.91892e-05
0.000239713
0.000103906
0.000257111
0.000108972
0.00027559
0.000114408
0.000295045
0.000120233
0.000315459
0.000126464
0.000336821
0.000133117
0.000359001
0.000140206
0.000381851
0.00014774
0.000405202
0.000155724
0.000428773
0.000164156
0.000452198
0.000173025
0.000475
0.00018231
0.000496564
0.00019197
0.0005161
0.000201952
0.000532608
0.000212167
0.00054484
0.000222514
0.000551246
0.000232827
0.000549948
0.000242917
0.000538661
0.000252532
0.000514698
0.00026135
0.00047496
0.000268975
0.000415878
0.000274927
0.000333527
0.000278605
0.000222339
0.000279333
8.14382e-05
-7.22111e-05
0.00027657
4.39812e-05
1.79816e-05
-4.36871e-05
4.43015e-05
1.94432e-05
4.46459e-05
2.1019e-05
4.50201e-05
2.27198e-05
4.54227e-05
2.4556e-05
4.58602e-05
2.65378e-05
4.63314e-05
2.86762e-05
4.68432e-05
3.09823e-05
4.73959e-05
3.34585e-05
4.79962e-05
3.61386e-05
4.8644e-05
3.9042e-05
4.93465e-05
4.21759e-05
5.01051e-05
4.55579e-05
5.09291e-05
4.91768e-05
5.18216e-05
5.30713e-05
5.27886e-05
5.73138e-05
5.38338e-05
6.18886e-05
5.49701e-05
6.67425e-05
5.62009e-05
7.20093e-05
5.75331e-05
7.77315e-05
5.89782e-05
8.38082e-05
6.05457e-05
9.03643e-05
6.224e-05
9.75015e-05
6.40806e-05
0.000105021
6.60711e-05
0.000113244
6.82267e-05
0.000122024
7.05609e-05
0.000131438
7.30841e-05
0.000141605
7.58154e-05
0.000152417
7.87644e-05
0.000164108
8.19521e-05
0.000176524
8.5391e-05
0.000189883
8.91008e-05
0.000204092
9.30996e-05
0.000219255
9.74039e-05
0.000235409
0.000102036
0.000252479
0.000107012
0.000270615
0.000112352
0.000289707
0.000118075
0.000309738
0.000124196
0.000330702
0.000130732
0.000352467
0.000137697
0.000374889
0.0001451
0.000397802
0.000152945
0.000420931
0.00016123
0.000443915
0.000169945
0.000466289
0.000179069
0.000487445
0.00018856
0.000506612
0.000198369
0.000522808
0.000208406
0.00053481
0.000218572
0.000541097
0.000228704
0.00053983
0.000238618
0.000528768
0.000248065
0.000505281
0.000256729
0.000466342
0.000264222
0.000408457
0.00027007
0.00032779
0.000273675
0.000218902
0.000274367
8.10346e-05
-6.90978e-05
0.000271654
4.32092e-05
1.76904e-05
-4.29232e-05
4.35228e-05
1.91286e-05
4.38605e-05
2.0679e-05
4.42275e-05
2.23522e-05
4.46227e-05
2.41586e-05
4.50521e-05
2.61081e-05
4.55151e-05
2.82114e-05
4.60176e-05
3.04794e-05
4.65606e-05
3.29136e-05
4.71498e-05
3.55486e-05
4.7786e-05
3.84038e-05
4.84753e-05
4.14854e-05
4.92203e-05
4.4811e-05
5.00287e-05
4.83671e-05
5.0905e-05
5.21932e-05
5.18539e-05
5.63639e-05
5.288e-05
6.08611e-05
5.39952e-05
6.56268e-05
5.52033e-05
7.08001e-05
5.65109e-05
7.64237e-05
5.79292e-05
8.23893e-05
5.94676e-05
8.88258e-05
6.11305e-05
9.58381e-05
6.2937e-05
0.000103214
6.48906e-05
0.000111291
6.70063e-05
0.000119908
6.92974e-05
0.000129147
7.17742e-05
0.000139128
7.44553e-05
0.000149736
7.73504e-05
0.000161212
8.048e-05
0.000173395
8.38562e-05
0.000186506
8.74993e-05
0.00020045
9.14256e-05
0.000215329
9.56527e-05
0.000231183
0.000100202
0.000247931
0.00010509
0.00026573
0.000110335
0.000284464
0.000115956
0.000304119
0.00012197
0.000324692
0.000128391
0.000346049
0.000135234
0.00036805
0.000142507
0.000390532
0.000150216
0.000413226
0.000158357
0.000435777
0.00016692
0.000457727
0.000175885
0.000478481
0.000185212
0.000497283
0.000194849
0.000513168
0.000204711
0.000524937
0.0002147
0.000531099
0.000224654
0.000529852
0.000234395
0.000519002
0.000243677
0.000495973
0.000252191
0.000457798
0.000259555
0.000401053
0.000265301
0.000321979
0.000268835
0.000215248
0.000269496
8.01588e-05
-6.67432e-05
0.00026683
4.24541e-05
1.74051e-05
-4.21712e-05
4.27627e-05
1.88204e-05
4.30944e-05
2.03459e-05
4.3455e-05
2.19921e-05
4.38428e-05
2.37693e-05
4.42643e-05
2.56871e-05
4.47183e-05
2.7756e-05
4.52115e-05
2.99865e-05
4.5744e-05
3.23795e-05
4.63224e-05
3.49703e-05
4.69465e-05
3.77782e-05
4.76234e-05
4.08086e-05
4.83542e-05
4.40787e-05
4.9148e-05
4.75732e-05
5.00077e-05
5.13321e-05
5.09392e-05
5.54323e-05
5.1946e-05
5.98532e-05
5.30404e-05
6.45323e-05
5.42259e-05
6.96138e-05
5.55092e-05
7.51405e-05
5.6901e-05
8.09968e-05
5.84109e-05
8.7316e-05
6.00429e-05
9.42057e-05
6.1816e-05
0.000101441
6.37334e-05
0.000109373
6.58101e-05
0.000117831
6.80589e-05
0.000126898
7.04901e-05
0.000136697
7.31221e-05
0.000147104
7.59642e-05
0.00015837
7.90367e-05
0.000170322
8.23517e-05
0.000183191
8.59284e-05
0.000196873
8.97842e-05
0.000211474
9.39351e-05
0.000227033
9.84033e-05
0.000243464
0.000103203
0.000260931
0.000108355
0.000279314
0.000113877
0.0002986
0.000119785
0.000318787
0.000126093
0.000339743
0.000132816
0.000361329
0.000139962
0.000383388
0.000147536
0.000405655
0.000155535
0.00042778
0.000163949
0.000449315
0.000172758
0.000469677
0.000181922
0.000488122
0.000191392
0.000503705
0.000201081
0.000515252
0.000210896
0.000521299
0.000220677
0.000520082
0.000230247
0.000509449
0.000239368
0.000486878
0.000247735
0.000449473
0.000254972
0.000393882
0.000260617
0.000316434
0.000264083
0.000211935
0.000264715
7.9789e-05
-6.37505e-05
0.000262101
4.17119e-05
1.71246e-05
-4.14355e-05
4.20147e-05
1.85174e-05
4.23402e-05
2.00185e-05
4.26942e-05
2.16382e-05
4.30751e-05
2.33867e-05
4.34891e-05
2.52734e-05
4.39351e-05
2.73084e-05
4.44194e-05
2.95023e-05
4.49423e-05
3.18548e-05
4.55101e-05
3.44021e-05
4.61227e-05
3.71635e-05
4.67868e-05
4.01436e-05
4.75042e-05
4.33592e-05
4.8283e-05
4.67933e-05
4.91269e-05
5.04864e-05
5.00409e-05
5.45174e-05
5.10292e-05
5.88635e-05
5.21034e-05
6.34577e-05
5.32671e-05
6.84491e-05
5.45266e-05
7.38808e-05
5.58928e-05
7.963e-05
5.73748e-05
8.5834e-05
5.89766e-05
9.26034e-05
6.07169e-05
9.97005e-05
6.2599e-05
0.00010749
6.46374e-05
0.000115793
6.68448e-05
0.00012469
6.92314e-05
0.00013431
7.18151e-05
0.00014452
7.46053e-05
0.00015558
7.76217e-05
0.000167306
8.08762e-05
0.000179936
8.43885e-05
0.000193361
8.81743e-05
0.000207688
9.22506e-05
0.000222957
9.66386e-05
0.000239077
0.000101353
0.000256219
0.000106413
0.000274257
0.000111837
0.000293178
0.00011764
0.000312987
0.000123837
0.000333549
0.000130442
0.000354728
0.000137463
0.000376371
0.000144904
0.000398217
0.000152764
0.000419923
0.000161032
0.000441049
0.000169687
0.000461022
0.000178692
0.000479114
0.000187996
0.000494397
0.000197517
0.000505719
0.000207161
0.000511646
0.00021677
0.000510448
0.000226174
0.000500018
0.000235136
0.000477888
0.000243358
0.000441218
0.000250471
0.000386725
0.000256018
0.000310814
0.000259418
0.000208403
0.000260025
7.89468e-05
-6.15342e-05
0.000257459
4.09862e-05
1.68498e-05
-4.07125e-05
4.12842e-05
1.82206e-05
4.1604e-05
1.96977e-05
4.19518e-05
2.12915e-05
4.23255e-05
2.30118e-05
4.2732e-05
2.48679e-05
4.31692e-05
2.68698e-05
4.36446e-05
2.90276e-05
4.41573e-05
3.13404e-05
4.47148e-05
3.38452e-05
4.53157e-05
3.65609e-05
4.59678e-05
3.94917e-05
4.66715e-05
4.26539e-05
4.74362e-05
4.60286e-05
4.82642e-05
4.96569e-05
4.91615e-05
5.36201e-05
5.01312e-05
5.78926e-05
5.11855e-05
6.24033e-05
5.23274e-05
6.73062e-05
5.35637e-05
7.26447e-05
5.49044e-05
7.82886e-05
5.6359e-05
8.43795e-05
5.79313e-05
9.10307e-05
5.96395e-05
9.79922e-05
6.14868e-05
0.000105643
6.34877e-05
0.000113792
6.56545e-05
0.000122523
6.79973e-05
0.000131967
7.05337e-05
0.000141984
7.32729e-05
0.000152841
7.62343e-05
0.000164344
7.94298e-05
0.000176741
8.2878e-05
0.000189913
8.65957e-05
0.000203971
9.05984e-05
0.000218956
9.49077e-05
0.00023477
9.95377e-05
0.000251591
0.000104507
0.000269289
0.000109835
0.000287853
0.000115535
0.000307289
0.000121623
0.000327464
0.000128112
0.000348242
0.00013501
0.000369476
0.000142321
0.000390909
0.000150043
0.000412203
0.000158166
0.000432928
0.000166671
0.000452521
0.000175519
0.000470268
0.000184661
0.000485261
0.000194015
0.000496367
0.000203492
0.000502184
0.000212933
0.000501014
0.000222173
0.000490792
0.00023098
0.000469103
0.00023906
0.000433176
0.00024605
0.000379797
0.000251501
0.000305458
0.000254838
0.000205211
0.000255421
7.86059e-05
-5.86609e-05
0.000252908
4.02723e-05
1.65794e-05
-4.00067e-05
4.0564e-05
1.79284e-05
4.08775e-05
1.9382e-05
4.12186e-05
2.09503e-05
4.15854e-05
2.26429e-05
4.19844e-05
2.44691e-05
4.24141e-05
2.64384e-05
4.28808e-05
2.85609e-05
4.33847e-05
3.08347e-05
4.39318e-05
3.32976e-05
4.45222e-05
3.59686e-05
4.5162e-05
3.88509e-05
4.58532e-05
4.19607e-05
4.66036e-05
4.52772e-05
4.74166e-05
4.88421e-05
4.82973e-05
5.27386e-05
4.92494e-05
5.69392e-05
5.02843e-05
6.1368e-05
5.14054e-05
6.61842e-05