/*--------------------------------*- C++ -*----------------------------------*\
  =========                 |
  \\      /  F ield         | OpenFOAM: The Open Source CFD Toolbox
   \\    /   O peration     | Website:  https://openfoam.org
    \\  /    A nd           | Version:  6.0
     \\/     M anipulation  |
\*---------------------------------------------------------------------------*/
FoamFile
{
    version     2.0;
    format      ascii;
    class       volVectorField;
    location    "3";
    object      U;
}
// * * * * * * * * * * * * * * * * * * * * * * * * * * * * * * * * * * * * * //

dimensions      [0 1 -1 0 0 0 0];

internalField   nonuniform List<vector> 
62000
(
(0.984347 -0.176174 -7.32119e-21)
(0.984372 -0.17611 6.09094e-21)
(0.98439 -0.176035 6.29693e-21)
(0.984402 -0.175946 -2.7722e-20)
(0.984411 -0.175851 -3.18432e-20)
(0.98442 -0.175761 1.10002e-19)
(0.984427 -0.175677 -1.2118e-19)
(0.984432 -0.175599 7.05083e-20)
(0.984438 -0.175524 -3.304e-20)
(0.984442 -0.175452 -1.68704e-19)
(0.984445 -0.175382 -2.11815e-20)
(0.984448 -0.175315 2.35746e-19)
(0.984449 -0.175251 4.77022e-20)
(0.98445 -0.175189 -1.6707e-19)
(0.984449 -0.17513 2.59327e-19)
(0.984448 -0.175073 -1.37571e-19)
(0.984445 -0.175021 1.404e-19)
(0.98444 -0.174971 -1.64834e-19)
(0.984434 -0.174926 7.98564e-20)
(0.984427 -0.174884 -2.44388e-19)
(0.984418 -0.174846 3.17228e-19)
(0.984407 -0.174812 9.01897e-20)
(0.984394 -0.174783 1.26785e-19)
(0.984379 -0.174759 -5.87599e-19)
(0.984363 -0.17474 2.12948e-19)
(0.984345 -0.174726 -1.26219e-19)
(0.984326 -0.174718 2.02693e-21)
(0.984305 -0.174717 -9.37521e-20)
(0.984284 -0.174722 3.01713e-19)
(0.984262 -0.174734 -1.57036e-19)
(0.98424 -0.174753 3.69077e-19)
(0.98422 -0.174778 -7.37207e-19)
(0.984203 -0.17481 7.39128e-20)
(0.984189 -0.174847 -2.11935e-19)
(0.984182 -0.174887 -5.34522e-20)
(0.984184 -0.174928 -2.01393e-19)
(0.984197 -0.174968 -2.0779e-20)
(0.984226 -0.175001 -2.17971e-20)
(0.984275 -0.175024 1.61376e-19)
(0.98435 -0.17503 5.80721e-19)
(0.984455 -0.175011 -1.15982e-19)
(0.984598 -0.174958 -5.09297e-19)
(0.984782 -0.174863 -5.49783e-19)
(0.985015 -0.174714 1.57819e-19)
(0.9853 -0.1745 -4.57974e-21)
(0.985641 -0.174209 1.82284e-19)
(0.986039 -0.173828 -1.22289e-20)
(0.986495 -0.173342 2.32313e-19)
(0.987003 -0.172732 1.43845e-18)
(0.98756 -0.171975 5.0732e-19)
(0.988156 -0.171038 3.43891e-19)
(0.988781 -0.169879 3.82562e-18)
(0.989426 -0.168426 -1.24286e-18)
(0.990073 -0.166576 -5.17158e-18)
(0.990705 -0.164157 -1.23403e-18)
(0.991296 -0.16087 -5.35037e-18)
(0.991822 -0.156092 3.13926e-19)
(0.992383 -0.148736 1.59498e-19)
(0.993936 -0.132164 -1.98765e-18)
(1.01303 -0.0735204 -1.36449e-19)
(0.983863 -0.181732 -1.91401e-21)
(0.983939 -0.181673 1.83782e-20)
(0.983974 -0.18166 7.70342e-21)
(0.983987 -0.181589 -3.28961e-20)
(0.983992 -0.18148 1.37239e-20)
(0.983991 -0.181365 -9.51642e-20)
(0.983986 -0.181249 8.72212e-20)
(0.983977 -0.181135 5.06924e-20)
(0.983965 -0.181022 -9.48762e-20)
(0.983951 -0.180911 4.07777e-21)
(0.983934 -0.180802 9.19207e-20)
(0.983915 -0.180693 1.70083e-22)
(0.983893 -0.180587 2.61711e-20)
(0.983869 -0.180481 -2.25407e-19)
(0.983842 -0.180379 4.50947e-19)
(0.983813 -0.180279 -3.97939e-19)
(0.983782 -0.180183 1.85557e-19)
(0.983748 -0.180091 -3.89473e-20)
(0.983712 -0.180004 -1.0532e-19)
(0.983673 -0.179922 2.87103e-19)
(0.983632 -0.179845 -4.50979e-19)
(0.983588 -0.179774 2.60282e-19)
(0.983543 -0.179708 -3.24542e-19)
(0.983496 -0.179647 1.93768e-19)
(0.983447 -0.179591 1.74974e-19)
(0.983397 -0.179541 -1.14042e-19)
(0.983346 -0.179495 9.81861e-22)
(0.983296 -0.179454 1.24893e-19)
(0.983248 -0.179416 1.01591e-19)
(0.983203 -0.179382 -1.96525e-19)
(0.983162 -0.179348 3.92934e-19)
(0.983128 -0.179314 7.22352e-20)
(0.983104 -0.179277 2.15318e-19)
(0.983094 -0.179235 9.95929e-21)
(0.983101 -0.179183 4.74925e-20)
(0.983129 -0.179117 -7.01544e-20)
(0.983186 -0.179033 -1.8157e-19)
(0.983279 -0.178923 -1.0044e-19)
(0.983414 -0.17878 -4.0485e-19)
(0.983601 -0.178595 -3.80391e-19)
(0.983848 -0.178357 2.63258e-19)
(0.984165 -0.178054 1.48962e-19)
(0.98456 -0.177674 5.60678e-19)
(0.985042 -0.177202 -1.1907e-20)
(0.985616 -0.176622 4.95458e-20)
(0.986286 -0.175917 -1.8202e-19)
(0.987055 -0.175068 -2.6081e-19)
(0.98792 -0.174049 -5.87515e-19)
(0.988875 -0.172828 6.86958e-20)
(0.989911 -0.171366 8.29824e-20)
(0.991016 -0.169603 -1.73425e-18)
(0.99217 -0.167463 -5.19421e-18)
(0.993357 -0.164824 3.79037e-18)
(0.99454 -0.161517 1.12305e-17)
(0.995681 -0.157273 3.1088e-18)
(0.996719 -0.151663 1.16461e-18)
(0.997569 -0.143911 6.25803e-18)
(0.998254 -0.133119 2.79501e-18)
(0.999265 -0.113781 -5.88969e-18)
(1.00329 -0.086979 -1.57524e-18)
(0.983823 -0.183884 -8.98734e-21)
(0.983926 -0.183845 -1.2771e-21)
(0.983966 -0.18394 1.39227e-21)
(0.983981 -0.183944 6.3634e-21)
(0.983987 -0.183889 1.81524e-20)
(0.983988 -0.183817 -1.71918e-20)
(0.983983 -0.18374 9.19349e-20)
(0.983975 -0.183663 -4.37339e-20)
(0.983962 -0.183587 -2.36911e-20)
(0.983945 -0.183511 -1.44896e-19)
(0.983925 -0.183436 1.22219e-19)
(0.983902 -0.183361 8.83235e-21)
(0.983875 -0.183286 -2.80371e-20)
(0.983845 -0.183211 7.39654e-20)
(0.983812 -0.183137 -1.25747e-19)
(0.983776 -0.183065 1.14867e-21)
(0.983737 -0.182994 -5.69681e-20)
(0.983695 -0.182925 1.65585e-21)
(0.983651 -0.18286 1.32165e-19)
(0.983605 -0.182797 -1.98329e-19)
(0.983556 -0.182737 1.23119e-19)
(0.983506 -0.18268 4.70176e-19)
(0.983455 -0.182625 -6.8412e-20)
(0.983402 -0.182573 -6.42734e-19)
(0.983349 -0.182522 3.28503e-19)
(0.983297 -0.182473 -1.69456e-19)
(0.983246 -0.182425 2.76174e-19)
(0.983197 -0.182376 -1.68371e-19)
(0.983151 -0.182327 -3.23488e-19)
(0.983111 -0.182274 3.23212e-19)
(0.983079 -0.182215 -2.27996e-19)
(0.983056 -0.182148 3.00645e-19)
(0.983046 -0.182071 -7.81944e-19)
(0.983054 -0.181978 6.7428e-19)
(0.983083 -0.181865 -3.43928e-19)
(0.983138 -0.181727 1.47354e-19)
(0.983226 -0.181559 9.93391e-20)
(0.983356 -0.181353 2.54237e-20)
(0.983534 -0.181102 4.25777e-20)
(0.983771 -0.180796 3.95939e-19)
(0.984076 -0.180424 -1.25415e-19)
(0.984457 -0.179974 1.6991e-19)
(0.984926 -0.179433 -3.30087e-19)
(0.98549 -0.178787 -6.38191e-20)
(0.986157 -0.17802 5.94361e-20)
(0.986931 -0.177116 5.58754e-19)
(0.987814 -0.176052 -6.82121e-20)
(0.988805 -0.174802 1.11759e-18)
(0.989897 -0.17333 -1.94062e-18)
(0.991081 -0.171593 -5.80595e-19)
(0.992342 -0.169526 -5.46057e-19)
(0.993661 -0.167044 -1.15589e-19)
(0.995012 -0.164019 -2.2453e-18)
(0.996353 -0.160271 1.00476e-18)
(0.997632 -0.155534 6.39426e-18)
(0.998771 -0.149397 2.9414e-18)
(0.999658 -0.141184 4.33589e-18)
(1.00025 -0.130403 1.05493e-17)
(1.001 -0.112845 -7.43666e-19)
(1.00041 -0.0853891 -1.15079e-18)
(0.983831 -0.184687 -8.60646e-21)
(0.983929 -0.1847 2.62462e-20)
(0.983958 -0.184881 -4.01588e-21)
(0.983961 -0.184946 -2.68641e-20)
(0.98396 -0.184938 4.03566e-20)
(0.983956 -0.184906 6.94044e-20)
(0.983949 -0.184864 -9.03519e-20)
(0.983939 -0.18482 9.77296e-21)
(0.983927 -0.184777 3.10841e-20)
(0.983912 -0.184735 6.42881e-20)
(0.983894 -0.184695 -1.18794e-19)
(0.983873 -0.184655 -3.62218e-20)
(0.98385 -0.184616 -4.01704e-20)
(0.983823 -0.184577 1.82954e-19)
(0.983794 -0.184539 -1.21613e-19)
(0.983762 -0.184501 2.8153e-19)
(0.983727 -0.184465 -3.3896e-19)
(0.98369 -0.18443 -4.80974e-20)
(0.98365 -0.184396 3.49656e-19)
(0.983609 -0.184364 -1.21797e-19)
(0.983565 -0.184334 -4.31495e-20)
(0.983521 -0.184304 -4.59994e-20)
(0.983476 -0.184275 -4.09861e-19)
(0.983431 -0.184246 2.39037e-19)
(0.983386 -0.184217 -1.00935e-19)
(0.983343 -0.184186 1.6937e-19)
(0.983303 -0.184152 7.37225e-20)
(0.983266 -0.184115 3.64823e-19)
(0.983234 -0.184073 -2.27542e-19)
(0.98321 -0.184024 -2.86432e-19)
(0.983194 -0.183964 4.2045e-19)
(0.983191 -0.183891 -3.39539e-19)
(0.983202 -0.183802 5.9664e-19)
(0.983232 -0.183691 -3.32523e-19)
(0.983286 -0.183554 1.458e-19)
(0.983368 -0.183384 2.26987e-19)
(0.983487 -0.183177 -7.42446e-20)
(0.983648 -0.182925 6.42383e-20)
(0.983861 -0.18262 -4.11396e-20)
(0.984134 -0.182251 6.11334e-20)
(0.984477 -0.181809 -2.52499e-19)
(0.984901 -0.18128 6.05506e-20)
(0.985414 -0.180651 7.71034e-20)
(0.986026 -0.17991 1.15862e-20)
(0.986745 -0.17904 -1.85913e-20)
(0.987576 -0.178023 5.96653e-20)
(0.988521 -0.176836 -7.27514e-19)
(0.98958 -0.175453 -1.03175e-18)
(0.990747 -0.173838 -1.72039e-18)
(0.992012 -0.171941 1.40719e-18)
(0.99336 -0.169698 2.05821e-18)
(0.994772 -0.16702 -1.79441e-18)
(0.996218 -0.163777 -2.81727e-18)
(0.99765 -0.159787 -6.09299e-18)
(0.999009 -0.154787 -4.07812e-18)
(1.00021 -0.148383 -9.03778e-18)
(1.00113 -0.139953 -1.66732e-17)
(1.00169 -0.12917 2.66616e-18)
(1.00234 -0.111912 1.04943e-17)
(0.998928 -0.0843063 5.97172e-18)
(0.983788 -0.185049 1.58538e-20)
(0.983877 -0.185103 -5.33494e-21)
(0.983893 -0.185329 8.71979e-21)
(0.983883 -0.18543 -1.23486e-20)
(0.983871 -0.185453 2.73606e-20)
(0.983858 -0.185447 -1.3512e-20)
(0.983844 -0.18543 7.17503e-21)
(0.98383 -0.185411 -1.06806e-19)
(0.983815 -0.185392 8.90268e-20)
(0.9838 -0.185375 -1.76196e-19)
(0.983783 -0.18536 1.92758e-19)
(0.983765 -0.185346 -2.29211e-20)
(0.983745 -0.185334 -5.02819e-20)
(0.983724 -0.185323 -2.31202e-20)
(0.9837 -0.185314 -4.72596e-21)
(0.983675 -0.185305 -2.25739e-19)
(0.983649 -0.185299 1.17802e-20)
(0.98362 -0.185295 2.43789e-19)
(0.98359 -0.185291 -7.75508e-20)
(0.983558 -0.18529 -8.00981e-20)
(0.983526 -0.185289 1.36892e-19)
(0.983493 -0.185288 -6.51784e-20)
(0.983461 -0.185287 2.70407e-19)
(0.983428 -0.185285 1.40713e-19)
(0.983398 -0.18528 1.02599e-19)
(0.98337 -0.185272 -3.35722e-19)
(0.983345 -0.185259 -4.58674e-20)
(0.983326 -0.185241 -2.42441e-19)
(0.983313 -0.185215 4.94008e-20)
(0.983309 -0.185179 -7.36784e-20)
(0.983315 -0.185129 -2.42137e-20)
(0.983334 -0.185062 2.25177e-19)
(0.98337 -0.184976 -5.7111e-19)
(0.983427 -0.184864 -1.43096e-20)
(0.983508 -0.18472 -2.59551e-19)
(0.98362 -0.184541 -1.26026e-19)
(0.983769 -0.184318 4.64218e-20)
(0.983963 -0.184046 -2.90118e-19)
(0.984209 -0.183714 3.70868e-19)
(0.984517 -0.183314 1.35126e-20)
(0.984896 -0.182834 2.85991e-19)
(0.985357 -0.182262 -9.46777e-20)
(0.985908 -0.181585 -2.22835e-20)
(0.986559 -0.180789 -7.38356e-20)
(0.987319 -0.179857 -1.22231e-19)
(0.988192 -0.178772 -2.94648e-19)
(0.989183 -0.177509 -2.58688e-19)
(0.990292 -0.176041 -4.37186e-19)
(0.991512 -0.17433 3.63335e-19)
(0.992836 -0.172327 -3.84904e-18)
(0.994247 -0.169965 -1.175e-18)
(0.995726 -0.167151 1.10672e-18)
(0.997242 -0.163756 -9.43956e-19)
(0.998743 -0.159593 -5.68315e-18)
(1.00017 -0.154405 6.47699e-19)
(1.00142 -0.147801 6.92713e-18)
(1.00239 -0.139186 1.88591e-17)
(1.00295 -0.128297 -1.87004e-17)
(1.00349 -0.111005 1.29036e-17)
(0.998228 -0.0831283 -7.69966e-18)
(0.983693 -0.185246 -5.712e-21)
(0.983778 -0.185325 2.28524e-20)
(0.983785 -0.185575 -3.73613e-20)
(0.983763 -0.185695 2.77115e-20)
(0.98374 -0.185735 1.77603e-20)
(0.983717 -0.185745 -1.88222e-20)
(0.983696 -0.185742 1.56339e-21)
(0.983676 -0.185736 -1.39153e-20)
(0.983656 -0.18573 -4.65914e-20)
(0.983638 -0.185727 8.87942e-20)
(0.98362 -0.185726 -1.36512e-19)
(0.983603 -0.185729 1.18915e-19)
(0.983586 -0.185734 1.034e-19)
(0.983568 -0.185741 -1.58815e-19)
(0.983551 -0.18575 -5.08489e-20)
(0.983533 -0.185762 1.90736e-19)
(0.983515 -0.185776 -2.27988e-19)
(0.983496 -0.185793 3.10581e-19)
(0.983477 -0.185812 -5.97553e-20)
(0.983458 -0.185832 3.05073e-20)
(0.98344 -0.185854 -5.34953e-20)
(0.983421 -0.185876 -6.50757e-20)
(0.983404 -0.185898 -1.19085e-19)
(0.983389 -0.185918 1.97783e-19)
(0.983376 -0.185936 -1.35517e-19)
(0.983366 -0.18595 -1.25745e-19)
(0.983362 -0.185958 2.57601e-19)
(0.983363 -0.185959 -2.27401e-19)
(0.983373 -0.185951 3.70692e-19)
(0.983392 -0.185931 -1.93299e-19)
(0.983423 -0.185896 1.42974e-19)
(0.983468 -0.185842 -2.15054e-19)
(0.983532 -0.185765 2.30619e-19)
(0.983617 -0.18566 -1.99257e-20)
(0.983728 -0.185523 -1.37409e-20)
(0.983871 -0.185345 -3.87853e-21)
(0.984052 -0.185122 -5.6977e-20)
(0.984278 -0.184845 2.32085e-19)
(0.984558 -0.184507 -1.84432e-19)
(0.9849 -0.184096 -6.58625e-19)
(0.985313 -0.183601 -1.83136e-19)
(0.985807 -0.183011 1.17088e-19)
(0.986392 -0.182311 5.8544e-20)
(0.987077 -0.181487 4.81901e-20)
(0.987871 -0.180523 3.69521e-20)
(0.98878 -0.179399 -6.54093e-19)
(0.989807 -0.178092 1.31605e-18)
(0.990954 -0.176572 1.66122e-18)
(0.992216 -0.1748 1.25487e-18)
(0.993586 -0.172727 2.75421e-18)
(0.995046 -0.170281 -2.30062e-18)
(0.996579 -0.167372 8.60365e-19)
(0.99815 -0.163864 8.72009e-18)
(0.999709 -0.159573 -2.25023e-18)
(1.00119 -0.154239 -3.00973e-18)
(1.0025 -0.147472 7.00328e-18)
(1.00351 -0.138689 -4.71346e-18)
(1.00407 -0.12766 -6.19681e-18)
(1.00452 -0.110233 -2.06909e-17)
(0.99798 -0.0819363 -2.27665e-19)
(0.983574 -0.185381 6.34465e-21)
(0.983659 -0.185469 -2.83294e-20)
(0.983658 -0.18573 1.37742e-20)
(0.983627 -0.18586 2.52857e-20)
(0.983594 -0.185909 -5.38461e-20)
(0.983561 -0.185927 4.48453e-20)
(0.983531 -0.185932 -2.95844e-20)
(0.983503 -0.185933 2.49878e-20)
(0.983478 -0.185935 3.92439e-20)
(0.983454 -0.185938 -9.40866e-20)
(0.983433 -0.185945 1.34414e-19)
(0.983414 -0.185956 5.58844e-20)
(0.983397 -0.185969 -2.22754e-19)
(0.983381 -0.185986 -3.99425e-20)
(0.983367 -0.186005 1.1631e-19)
(0.983354 -0.186028 7.32469e-20)
(0.983343 -0.186054 -8.81042e-20)
(0.983332 -0.186084 7.6607e-20)
(0.983324 -0.186117 1.14244e-19)
(0.983317 -0.186153 -5.77083e-20)
(0.983311 -0.186191 -3.26039e-20)
(0.983307 -0.186229 1.08288e-19)
(0.983306 -0.186268 2.1671e-19)
(0.983308 -0.186306 -1.62849e-19)
(0.983314 -0.186341 -1.7098e-19)
(0.983325 -0.186372 1.82166e-19)
(0.983342 -0.186398 -1.40581e-19)
(0.983366 -0.186417 -5.39293e-20)
(0.983399 -0.186426 4.35988e-19)
(0.983443 -0.186422 -1.81373e-19)
(0.9835 -0.186402 -1.3128e-19)
(0.983573 -0.186362 1.89484e-19)
(0.983665 -0.186299 1.2053e-19)
(0.98378 -0.186207 -8.31122e-20)
(0.983922 -0.18608 -5.75708e-20)
(0.984096 -0.185912 1.67819e-19)
(0.98431 -0.185696 5.58084e-20)
(0.98457 -0.185427 4.35046e-20)
(0.984884 -0.185092 -1.80676e-19)
(0.985259 -0.184684 -6.50835e-20)
(0.985706 -0.184189 2.21944e-19)
(0.986234 -0.183596 4.88379e-20)
(0.986852 -0.182891 -6.70598e-20)
(0.98757 -0.182059 2.30081e-19)
(0.988396 -0.181081 4.64643e-19)
(0.989338 -0.17994 3.61887e-19)
(0.990399 -0.178608 -1.33707e-18)
(0.991581 -0.177057 -1.7079e-18)
(0.992879 -0.175246 2.26192e-18)
(0.994289 -0.173123 4.10383e-18)
(0.995793 -0.170617 6.20685e-19)
(0.997374 -0.167633 -1.1281e-18)
(0.998996 -0.164037 -2.02854e-21)
(1.00061 -0.159638 3.61403e-18)
(1.00214 -0.154177 -3.81219e-18)
(1.0035 -0.147263 -2.2776e-18)
(1.00456 -0.138315 -3.6766e-18)
(1.00514 -0.127119 1.8782e-17)
(1.00549 -0.109501 1.10074e-18)
(0.998011 -0.0807145 -7.0575e-19)
(0.983452 -0.185488 -1.00329e-20)
(0.983538 -0.185586 -7.82013e-21)
(0.983531 -0.185855 1.07497e-20)
(0.983491 -0.185991 3.72187e-20)
(0.983449 -0.186045 -7.95085e-20)
(0.983407 -0.186067 9.02057e-20)
(0.983367 -0.186075 -4.22383e-21)
(0.983331 -0.186078 -5.65943e-21)
(0.983298 -0.186082 -3.13716e-20)
(0.983268 -0.186089 7.46888e-20)
(0.983241 -0.186099 -1.14538e-19)
(0.983218 -0.186112 4.30112e-20)
(0.983198 -0.186129 -1.24552e-21)
(0.983181 -0.18615 6.53368e-20)
(0.983167 -0.186175 3.01245e-20)
(0.983157 -0.186203 -1.60256e-19)
(0.983149 -0.186236 1.37295e-19)
(0.983145 -0.186273 5.23878e-20)
(0.983144 -0.186313 -1.51125e-19)
(0.983147 -0.186356 7.26913e-20)
(0.983152 -0.186403 3.25963e-20)
(0.983162 -0.186451 -2.39409e-20)
(0.983176 -0.186501 2.43897e-20)
(0.983195 -0.186551 -1.77378e-20)
(0.983219 -0.186598 -1.65552e-19)
(0.983249 -0.186643 1.05843e-19)
(0.983287 -0.186682 -1.56153e-19)
(0.983333 -0.186715 2.70939e-19)
(0.98339 -0.186738 -6.24415e-20)
(0.983459 -0.186749 -2.95794e-20)
(0.983543 -0.186743 -1.08455e-20)
(0.983644 -0.186718 2.38195e-19)
(0.983765 -0.186668 -9.71112e-20)
(0.98391 -0.18659 -3.37802e-20)
(0.984083 -0.186476 1.15532e-19)
(0.98429 -0.186322 7.90245e-20)
(0.984537 -0.18612 -1.18547e-19)
(0.98483 -0.185862 2.05997e-20)
(0.985178 -0.18554 1.7803e-19)
(0.985588 -0.185142 5.71003e-20)
(0.986069 -0.184657 3.12546e-21)
(0.98663 -0.184072 2.37729e-20)
(0.987282 -0.183372 -1.51372e-19)
(0.988033 -0.182542 -4.70259e-19)
(0.988892 -0.181565 -1.22377e-19)
(0.989867 -0.180418 4.22913e-19)
(0.990961 -0.179076 1.67749e-18)
(0.992177 -0.177507 -5.35392e-19)
(0.993513 -0.17567 -7.1146e-19)
(0.994962 -0.173511 -1.55338e-18)
(0.996508 -0.170957 7.42432e-20)
(0.998135 -0.167912 4.59093e-18)
(0.999808 -0.164239 -4.54162e-18)
(1.00147 -0.159744 3.48833e-18)
(1.00306 -0.154165 -8.04429e-18)
(1.00447 -0.147109 -2.07616e-18)
(1.00558 -0.137993 -1.08062e-17)
(1.00617 -0.126612 -1.6131e-17)
(1.00644 -0.108769 -3.34649e-18)
(0.998242 -0.0794527 -3.95136e-18)
(0.983324 -0.185591 -4.53685e-21)
(0.983412 -0.185689 3.87647e-21)
(0.983399 -0.18596 1.90076e-20)
(0.983351 -0.186097 2.95528e-20)
(0.983301 -0.186152 -8.71385e-20)
(0.98325 -0.186176 4.9624e-20)
(0.983203 -0.186186 -8.73971e-20)
(0.983158 -0.186191 1.35518e-19)
(0.983117 -0.186197 -6.29727e-20)
(0.983081 -0.186205 1.09023e-20)
(0.983048 -0.186217 1.17204e-19)
(0.98302 -0.186232 -2.64042e-19)
(0.982996 -0.18625 1.78011e-19)
(0.982976 -0.186273 2.43276e-20)
(0.982961 -0.1863 3.77977e-20)
(0.982952 -0.186331 -1.61023e-19)
(0.982946 -0.186366 7.80193e-20)
(0.982946 -0.186407 -9.45624e-20)
(0.982951 -0.186451 1.81214e-19)
(0.982961 -0.186499 -2.46779e-20)
(0.982976 -0.186552 -2.20391e-19)
(0.982997 -0.186606 8.91302e-20)
(0.983024 -0.186662 -4.87051e-21)
(0.983057 -0.186719 -2.97467e-19)
(0.983098 -0.186775 2.22169e-19)
(0.983146 -0.186829 1.57616e-19)
(0.983204 -0.186878 9.60639e-20)
(0.983272 -0.186921 -1.33751e-19)
(0.983351 -0.186955 -1.38819e-19)
(0.983445 -0.186978 6.51554e-20)
(0.983555 -0.186985 7.48982e-20)
(0.983683 -0.186972 -9.55155e-20)
(0.983832 -0.186936 -1.17123e-19)
(0.984007 -0.186872 2.64603e-19)
(0.984212 -0.186773 2.89383e-20)
(0.984451 -0.186633 -3.01905e-19)
(0.98473 -0.186447 5.11752e-20)
(0.985058 -0.186205 1.22352e-19)
(0.985439 -0.185898 -1.51891e-20)
(0.985884 -0.185515 1.05209e-19)
(0.9864 -0.185045 3.2069e-20)
(0.986996 -0.184473 6.25549e-20)
(0.987682 -0.183786 7.47685e-20)
(0.988467 -0.182967 -1.86331e-19)
(0.989361 -0.181997 -4.29248e-19)
(0.990369 -0.180853 -1.91258e-18)
(0.991498 -0.179509 -2.55431e-19)
(0.992751 -0.177931 1.75733e-18)
(0.994124 -0.176077 -1.73815e-18)
(0.995614 -0.17389 -6.89571e-18)
(0.997203 -0.171297 6.35843e-18)
(0.998878 -0.168199 -8.67357e-18)
(1.0006 -0.164455 5.98668e-18)
(1.00232 -0.15987 3.798e-18)
(1.00396 -0.154178 1.6544e-17)
(1.00543 -0.14698 1.03053e-18)
(1.00659 -0.137694 6.62144e-18)
(1.0072 -0.126117 8.32805e-18)
(1.00737 -0.108024 -7.46076e-18)
(0.998604 -0.0781589 -1.22054e-18)
(0.983191 -0.185692 5.84646e-21)
(0.983282 -0.185797 1.92733e-21)
(0.983263 -0.186072 -2.05447e-20)
(0.983208 -0.186212 1.93432e-20)
(0.98315 -0.186269 -8.45475e-21)
(0.983092 -0.186293 1.48472e-20)
(0.983037 -0.186303 4.89621e-21)
(0.982986 -0.186309 -7.21714e-20)
(0.982938 -0.186314 3.13083e-20)
(0.982895 -0.186322 -2.03669e-20)
(0.982857 -0.186333 1.27633e-20)
(0.982824 -0.186348 4.74051e-20)
(0.982795 -0.186367 -8.57829e-21)
(0.982773 -0.18639 2.76928e-20)
(0.982756 -0.186417 -1.15389e-19)
(0.982746 -0.186449 4.47422e-20)
(0.982741 -0.186485 2.00594e-20)
(0.982743 -0.186526 -4.9053e-20)
(0.982752 -0.186571 9.69596e-20)
(0.982767 -0.186621 3.03725e-20)
(0.98279 -0.186675 -3.72278e-21)
(0.98282 -0.186732 -2.91231e-20)
(0.982858 -0.186791 1.23273e-19)
(0.982904 -0.186852 -3.28564e-19)
(0.982959 -0.186913 1.64599e-19)
(0.983024 -0.186972 6.37084e-20)
(0.9831 -0.187028 -1.10692e-19)
(0.983188 -0.187078 1.82504e-19)
(0.983289 -0.187121 -9.32026e-20)
(0.983406 -0.187153 -4.11351e-20)
(0.98354 -0.187171 -8.01209e-20)
(0.983695 -0.187169 -1.70144e-20)
(0.983872 -0.187146 7.82921e-20)
(0.984076 -0.187094 -1.97695e-19)
(0.984311 -0.18701 3.36005e-19)
(0.984581 -0.186885 -2.21906e-20)
(0.984894 -0.186715 1.09159e-19)
(0.985254 -0.18649 -2.07742e-19)
(0.98567 -0.1862 -2.73017e-20)
(0.986149 -0.185835 -1.72495e-20)
(0.9867 -0.185383 8.34621e-20)
(0.987332 -0.184829 7.49167e-20)
(0.988053 -0.184158 3.84339e-19)
(0.988874 -0.183354 -2.51376e-19)
(0.989803 -0.182395 -3.08897e-19)
(0.990848 -0.18126 1.88966e-18)
(0.992014 -0.179919 -3.02912e-18)
(0.993305 -0.178337 -5.52907e-19)
(0.994718 -0.176471 -2.80458e-19)
(0.99625 -0.174262 4.80534e-18)
(0.997885 -0.171635 -1.93324e-18)
(0.99961 -0.168488 4.61048e-18)
(1.00139 -0.164678 -1.03086e-17)
(1.00316 -0.160005 -2.38309e-18)
(1.00486 -0.154202 1.11266e-17)
(1.00639 -0.146863 -4.70843e-18)
(1.00759 -0.137403 1.49611e-17)
(1.00822 -0.125619 3.74257e-18)
(1.00831 -0.10726 2.75803e-17)
(0.999076 -0.0768295 5.03549e-18)
(0.983062 -0.185802 -1.18307e-21)
(0.983156 -0.185908 -4.5498e-21)
(0.983132 -0.186186 -3.82322e-21)
(0.98307 -0.186327 3.7126e-20)
(0.983005 -0.186386 -2.04928e-20)
(0.98294 -0.186411 -2.39155e-20)
(0.982878 -0.186422 -8.68261e-21)
(0.982819 -0.186429 -3.54735e-20)
(0.982765 -0.186434 2.26322e-20)
(0.982716 -0.186442 3.60423e-21)
(0.982672 -0.186454 1.43721e-21)
(0.982633 -0.186468 8.89282e-20)
(0.982601 -0.186486 -6.23991e-20)
(0.982575 -0.186508 -7.45615e-21)
(0.982555 -0.186534 6.81062e-20)
(0.982543 -0.186565 -3.70477e-20)
(0.982538 -0.186601 -1.3045e-20)
(0.982541 -0.186642 2.26042e-20)
(0.982552 -0.186687 6.74318e-20)
(0.982572 -0.186737 3.41848e-20)
(0.9826 -0.186792 9.82562e-21)
(0.982637 -0.186849 -8.78724e-20)
(0.982685 -0.186911 4.00009e-20)
(0.982742 -0.186974 7.77928e-20)
(0.98281 -0.187037 -1.58357e-19)
(0.98289 -0.1871 4.56647e-20)
(0.982982 -0.187159 -1.81562e-19)
(0.983088 -0.187215 1.39753e-19)
(0.983209 -0.187265 1.07844e-19)
(0.983348 -0.187304 -1.73735e-19)
(0.983505 -0.18733 -6.34161e-20)
(0.983685 -0.187338 8.25624e-20)
(0.983888 -0.187325 2.53581e-20)
(0.98412 -0.187286 -5.89209e-20)
(0.984384 -0.187214 -4.8213e-20)
(0.984685 -0.187105 -4.53057e-20)
(0.98503 -0.18695 3.48283e-20)
(0.985424 -0.186742 4.835e-20)
(0.985873 -0.18647 2.24521e-20)
(0.986387 -0.186124 7.37238e-21)
(0.986974 -0.185691 -2.78527e-19)
(0.987641 -0.185156 3.58416e-20)
(0.988399 -0.184504 -6.0866e-19)
(0.989257 -0.183717 1.52097e-18)
(0.990223 -0.182773 -3.34689e-19)
(0.991306 -0.181649 -2.60463e-20)
(0.992511 -0.180314 7.39675e-20)
(0.993842 -0.178733 2.70272e-18)
(0.995298 -0.176858 4.92891e-18)
(0.996875 -0.17463 -5.134e-18)
(0.998558 -0.171972 -7.6817e-18)
(1.00033 -0.168778 -4.62618e-18)
(1.00216 -0.164904 1.00249e-17)
(1.004 -0.160146 -6.06107e-18)
(1.00575 -0.154231 -1.65525e-17)
(1.00734 -0.146751 -7.62942e-18)
(1.0086 -0.137115 -1.45785e-17)
(1.00924 -0.125117 -8.13998e-18)
(1.00926 -0.106478 -2.64017e-17)
(0.999623 -0.0754718 1.53162e-17)
(0.982942 -0.185922 1.38538e-21)
(0.983038 -0.186035 -4.10157e-21)
(0.98301 -0.186318 1.42513e-20)
(0.982941 -0.186462 3.49555e-21)
(0.982869 -0.186522 -1.90297e-20)
(0.982797 -0.186548 -2.12626e-20)
(0.982727 -0.186559 4.99106e-20)
(0.982662 -0.186564 -5.34645e-20)
(0.982601 -0.186569 -1.24946e-20)
(0.982545 -0.186576 3.20508e-20)
(0.982495 -0.186586 2.8646e-20)
(0.982451 -0.1866 8.43613e-20)
(0.982414 -0.186617 -4.85518e-20)
(0.982383 -0.186639 -7.89498e-20)
(0.98236 -0.186664 1.70253e-20)
(0.982346 -0.186693 -6.03506e-20)
(0.98234 -0.186728 4.5138e-20)
(0.982342 -0.186768 -7.06379e-20)
(0.982355 -0.186812 1.33278e-20)
(0.982378 -0.186861 -1.88413e-20)
(0.98241 -0.186916 -9.92289e-21)
(0.982453 -0.186973 -5.40949e-20)
(0.982508 -0.187034 8.82644e-21)
(0.982575 -0.187098 1.14938e-19)
(0.982654 -0.187162 -3.376e-20)
(0.982747 -0.187227 1.32616e-20)
(0.982854 -0.18729 3.04099e-20)
(0.982976 -0.187349 -3.69419e-20)
(0.983116 -0.187403 -4.0229e-21)
(0.983275 -0.187448 4.12922e-20)
(0.983454 -0.187481 4.75936e-20)
(0.983657 -0.187498 -3.67735e-20)
(0.983885 -0.187494 -8.02521e-20)
(0.984144 -0.187465 -7.5067e-20)
(0.984437 -0.187406 1.27312e-19)
(0.984768 -0.18731 2.06847e-20)
(0.985143 -0.187171 1.20199e-20)
(0.985569 -0.186979 -4.19897e-20)
(0.986053 -0.186725 4.58035e-20)
(0.986601 -0.186398 -5.56938e-20)
(0.987223 -0.185984 -4.42414e-20)
(0.987927 -0.185469 1.92122e-20)
(0.988722 -0.184837 2.35347e-19)
(0.989617 -0.184067 -7.31004e-19)
(0.990623 -0.18314 1.2802e-18)
(0.991745 -0.182028 -9.81526e-19)
(0.992991 -0.180702 3.10425e-18)
(0.994365 -0.179121 -8.73845e-19)
(0.995866 -0.17724 -2.61222e-18)
(0.99749 -0.174995 5.25063e-18)
(0.999224 -0.172307 1.33967e-18)
(1.00106 -0.169069 2.83125e-19)
(1.00294 -0.165133 1.93646e-18)
(1.00483 -0.16029 6.46122e-18)
(1.00665 -0.154264 -4.38862e-19)
(1.0083 -0.146641 -7.51667e-18)
(1.0096 -0.136826 8.69014e-18)
(1.01026 -0.124606 2.65408e-18)
(1.01021 -0.105676 3.44663e-18)
(1.00024 -0.0740824 -1.16577e-17)
(0.982817 -0.186062 2.29671e-21)
(0.982918 -0.186171 -1.94057e-21)
(0.982885 -0.186454 1.66976e-21)
(0.98281 -0.186597 1.05851e-20)
(0.982731 -0.186657 1.49886e-20)
(0.982652 -0.186683 -5.8425e-20)
(0.982576 -0.186694 4.15717e-20)
(0.982505 -0.1867 8.21106e-21)
(0.982437 -0.186706 -2.75783e-21)
(0.982376 -0.186713 -1.75806e-20)
(0.98232 -0.186723 5.19649e-20)
(0.982271 -0.186737 -1.76567e-20)
(0.982229 -0.186754 -2.30955e-20)
(0.982195 -0.186775 -6.45019e-20)
(0.982169 -0.1868 1.27075e-19)
(0.982152 -0.186829 -2.73664e-20)
(0.982145 -0.186864 -2.23465e-20)
(0.982147 -0.186903 -5.8599e-20)
(0.982161 -0.186947 6.37098e-20)
(0.982185 -0.186996 3.27627e-20)
(0.982221 -0.18705 -1.41078e-20)
(0.98227 -0.187107 2.41738e-20)
(0.982331 -0.187169 -9.93175e-20)
(0.982405 -0.187233 8.4463e-21)
(0.982495 -0.187298 5.26851e-20)
(0.982599 -0.187364 -1.0384e-20)
(0.982719 -0.187428 -1.26913e-19)
(0.982857 -0.187491 1.9286e-20)
(0.983013 -0.187548 1.02254e-19)
(0.98319 -0.187598 -1.85864e-20)
(0.98339 -0.187636 -4.33653e-20)
(0.983615 -0.187659 9.34332e-21)
(0.983867 -0.187664 4.76717e-20)
(0.984151 -0.187644 8.78718e-20)
(0.984471 -0.187597 -1.78853e-20)
(0.984831 -0.187514 -2.9295e-20)
(0.985237 -0.187388 3.11808e-20)
(0.985695 -0.187213 8.07864e-21)
(0.986211 -0.186976 -2.83105e-20)
(0.986794 -0.186666 1.91921e-19)
(0.987451 -0.186272 3.57072e-20)
(0.988192 -0.185777 -1.28029e-19)
(0.989024 -0.185163 -1.77443e-19)
(0.989959 -0.184413 -5.40557e-19)
(0.991004 -0.183502 -2.09384e-18)
(0.992168 -0.182404 1.9896e-18)
(0.993457 -0.181086 -3.70696e-18)
(0.994875 -0.179508 -3.19166e-18)
(0.996424 -0.177621 5.00468e-20)
(0.998098 -0.17536 -5.42624e-18)
(0.999886 -0.172644 8.17341e-18)
(1.00177 -0.169362 1.09766e-17)
(1.00372 -0.165364 -9.46962e-18)
(1.00567 -0.160437 -9.02548e-18)
(1.00755 -0.1543 4.22479e-18)
(1.00926 -0.146533 2.59941e-17)
(1.01062 -0.136536 -6.72104e-18)
(1.0113 -0.124088 7.93846e-18)
(1.01118 -0.104857 1.32033e-17)
(1.00091 -0.0726684 -9.91209e-18)
(0.982688 -0.186212 -2.16721e-21)
(0.982792 -0.186327 2.36253e-21)
(0.982755 -0.186615 1.53089e-20)
(0.982674 -0.18676 -1.9802e-20)
(0.982588 -0.186821 3.48156e-20)
(0.982504 -0.186846 -5.04096e-20)
(0.982422 -0.186857 1.41437e-20)
(0.982344 -0.186861 -5.62479e-22)
(0.982272 -0.186866 2.93385e-20)
(0.982205 -0.186872 -1.52545e-20)
(0.982145 -0.186882 4.02191e-21)
(0.982092 -0.186895 4.19258e-21)
(0.982046 -0.186912 -6.55101e-20)
(0.982009 -0.186933 2.03851e-20)
(0.98198 -0.186957 4.32852e-20)
(0.981962 -0.186986 6.53642e-22)
(0.981953 -0.187019 -6.625e-20)
(0.981955 -0.187058 2.60288e-20)
(0.981969 -0.1871 1.1467e-19)
(0.981996 -0.187148 -7.44657e-20)
(0.982034 -0.187202 -5.03286e-20)
(0.982087 -0.187258 4.32059e-20)
(0.982154 -0.187319 2.16522e-20)
(0.982235 -0.187383 2.37567e-20)
(0.982334 -0.187448 -4.72856e-20)
(0.982448 -0.187515 -8.70207e-20)
(0.98258 -0.18758 7.17089e-20)
(0.982731 -0.187645 8.40209e-20)
(0.982903 -0.187705 3.58181e-21)
(0.983098 -0.187758 -2.69948e-20)
(0.983316 -0.187801 1.09909e-20)
(0.983562 -0.187831 -4.2718e-21)
(0.983837 -0.187842 -2.41965e-20)
(0.984145 -0.187831 -2.82691e-20)
(0.984491 -0.187794 9.59651e-22)
(0.984878 -0.187723 -1.59349e-21)
(0.985314 -0.18761 4.60753e-20)
(0.985802 -0.18745 -4.46376e-20)
(0.986351 -0.187229 1.01209e-19)
(0.986968 -0.186937 -2.96828e-20)
(0.987661 -0.186561 -9.00295e-20)
(0.988438 -0.186085 -3.76315e-20)
(0.989309 -0.185491 7.21543e-19)
(0.990283 -0.184758 1.2279e-18)
(0.991369 -0.183863 1.2197e-18)
(0.992575 -0.182779 -2.90358e-18)
(0.993909 -0.18147 -2.43481e-19)
(0.995375 -0.179895 1.50462e-18)
(0.996972 -0.178003 -9.36888e-19)
(0.998699 -0.175727 6.54105e-18)
(1.00054 -0.172983 -3.53811e-18)
(1.00249 -0.169658 -1.09344e-17)
(1.0045 -0.165598 7.02862e-19)
(1.00651 -0.160587 1.18165e-17)
(1.00846 -0.154338 -6.12649e-18)
(1.01023 -0.146425 -6.37176e-18)
(1.01164 -0.136245 -8.82022e-18)
(1.01234 -0.123562 -2.23103e-17)
(1.01215 -0.104021 -2.40804e-17)
(1.00164 -0.0712259 2.28852e-17)
(0.982562 -0.186378 -1.56712e-21)
(0.98267 -0.186493 2.23611e-21)
(0.982629 -0.186784 4.10004e-22)
(0.982541 -0.186931 7.82754e-21)
(0.98245 -0.186992 -1.18063e-20)
(0.982359 -0.187019 -2.32236e-20)
(0.982271 -0.18703 8.55652e-21)
(0.982188 -0.187036 -1.017e-20)
(0.98211 -0.187041 2.26373e-20)
(0.982039 -0.187047 -4.36539e-21)
(0.981974 -0.187056 -1.3611e-20)
(0.981917 -0.187069 1.16387e-20)
(0.981867 -0.187085 1.74713e-20)
(0.981826 -0.187105 4.49276e-20)
(0.981795 -0.187128 -8.05209e-20)
(0.981774 -0.187155 3.96277e-20)
(0.981764 -0.187189 5.62694e-21)
(0.981766 -0.187227 -3.56672e-20)
(0.98178 -0.187269 -1.98133e-20)
(0.981808 -0.187316 6.41676e-20)
(0.981849 -0.187369 -6.2473e-20)
(0.981906 -0.187425 1.95157e-20)
(0.981978 -0.187486 -4.29366e-20)
(0.982066 -0.18755 6.54256e-20)
(0.982172 -0.187615 -1.18543e-20)
(0.982295 -0.187682 -2.65449e-20)
(0.982438 -0.187749 2.3132e-20)
(0.982602 -0.187815 3.42294e-20)
(0.982788 -0.187877 -3.14753e-20)
(0.982999 -0.187934 1.83763e-20)
(0.983235 -0.187981 -2.34731e-20)
(0.9835 -0.188015 2.6457e-21)
(0.983796 -0.188034 6.32365e-21)
(0.984128 -0.188031 2.30321e-21)
(0.984498 -0.188002 2.79763e-20)
(0.984912 -0.187942 8.29354e-20)
(0.985376 -0.187842 -1.15871e-19)
(0.985895 -0.187695 8.26682e-20)
(0.986476 -0.18749 -4.77722e-20)
(0.987126 -0.187215 -1.65887e-19)
(0.987854 -0.186856 -1.79402e-19)
(0.988668 -0.186398 1.34074e-19)
(0.989577 -0.185822 -4.83209e-19)
(0.990591 -0.185107 -1.0417e-18)
(0.991719 -0.184229 1.10534e-19)
(0.99297 -0.183157 1.80727e-18)