/*--------------------------------*- C++ -*----------------------------------*\
  =========                 |
  \\      /  F ield         | OpenFOAM: The Open Source CFD Toolbox
   \\    /   O peration     | Website:  https://openfoam.org
    \\  /    A nd           | Version:  6.0
     \\/     M anipulation  |
\*---------------------------------------------------------------------------*/
FoamFile
{
    version     2.0;
    format      ascii;
    class       surfaceScalarField;
    location    "9";
    object      phi;
}
// * * * * * * * * * * * * * * * * * * * * * * * * * * * * * * * * * * * * * //

dimensions      [0 3 -1 0 0 0 0];

internalField   nonuniform List<scalar> 
68636
(
3.70916e-05
0.00309869
6.14396e-08
7.48784e-05
0.00306338
0.000112266
0.00299468
0.000148482
0.00289376
0.000183056
0.00276183
0.000215653
0.00259946
0.000245966
0.00240748
0.000273619
0.00218806
0.000298282
0.00194408
0.000319641
0.00167887
0.000337457
0.00139539
0.000351535
0.00109646
0.000361755
0.0007853
0.000367884
0.000462845
0.000117696
0.000364684
3.67363e-05
0.00306188
6.96502e-08
7.4109e-05
0.003026
0.000111008
0.00295779
0.000146716
0.00285807
0.000180826
0.00272777
0.000213032
0.0025673
0.000243014
0.00237757
0.000270375
0.00216075
0.000294774
0.00191976
0.000315896
0.0016578
0.000333509
0.00137783
0.000347403
0.00108262
0.000357562
0.000775203
0.000363368
0.000457117
0.000119761
0.000361479
3.63753e-05
0.00302543
5.79423e-08
7.32968e-05
0.00298908
0.000109692
0.00292138
0.000144916
0.00282284
0.00017861
0.00269409
0.000210465
0.00253543
0.000240136
0.0023479
0.000267212
0.00213366
0.000291344
0.00189562
0.000312225
0.00163689
0.000329634
0.00136041
0.000343337
0.00106888
0.000353353
0.000765149
0.000359317
0.000451091
0.000119903
0.000358988
3.59763e-05
0.0029894
4.36774e-08
7.24272e-05
0.00295262
0.000108334
0.00288546
0.000143115
0.00278805
0.000176428
0.00266078
0.000207953
0.00250391
0.000237319
0.00231856
0.000264107
0.00210689
0.00028797
0.00187178
0.000308608
0.00161627
0.000325811
0.00134322
0.000339334
0.00105537
0.000349164
0.000755335
0.000355073
0.000445201
0.000119642
0.000355395
3.55515e-05
0.00295382
2.42369e-08
7.15297e-05
0.00291663
0.000106971
0.00285001
0.000141336
0.00275368
0.00017429
0.00262782
0.000205491
0.00247268
0.00023455
0.00228949
0.000261047
0.00208036
0.000284639
0.00184817
0.000305034
0.00159584
0.000322029
0.0013262
0.000335385
0.00104197
0.000345034
0.000745645
0.000350766
0.000439406
0.000118956
0.000351263
3.51162e-05
0.00291869
7.35061e-09
7.06296e-05
0.00288111
0.000105626
0.002815
0.000139596
0.00271969
0.0001722
0.00259521
0.000203077
0.0024418
0.000231825
0.00226074
0.000258027
0.00205416
0.000281346
0.00182486
0.000301498
0.00157568
0.000318285
0.00130942
0.000331479
0.00102877
0.000340972
0.00073615
0.000346535
0.000433836
0.000118403
0.000347103
3.46792e-05
0.00288401
-7.80295e-09
6.97399e-05
0.00284604
0.00010431
0.00278042
0.000137899
0.00268609
0.000170158
0.00256295
0.000200709
0.00241122
0.000229142
0.0022323
0.000255045
0.00202823
0.00027809
0.0018018
0.000297998
0.00155574
0.000314578
0.00129281
0.000327612
0.00101571
0.000336966
0.000726761
0.000342407
0.000428336
0.000117589
0.000343046
3.42459e-05
0.00284977
-2.22264e-08
6.88682e-05
0.0028114
0.000103028
0.00274625
0.000136246
0.00265286
0.000168163
0.00253102
0.000198384
0.00238099
0.000226499
0.00220417
0.0002521
0.00200262
0.000274869
0.00177903
0.000294535
0.00153607
0.000310907
0.00127643
0.000323781
0.00100282
0.000333006
0.000717526
0.000338357
0.000422968
0.000116851
0.000339089
3.382e-05
0.00281598
-3.05422e-08
6.80183e-05
0.0027772
0.000101783
0.00271248
0.000134636
0.00262
0.000166211
0.00249944
0.000196099
0.00235108
0.000223891
0.00217637
0.000249189
0.0019773
0.000271683
0.00175652
0.000291106
0.00151662
0.000307273
0.00126025
0.000319986
0.000990082
0.000329087
0.000708398
0.000334366
0.00041764
0.000115873
0.000335191
3.34037e-05
0.0027826
-3.27943e-08
6.71921e-05
0.0027434
0.000100572
0.00267908
0.000133065
0.00258749
0.000164296
0.0024682
0.000193848
0.00232151
0.000221316
0.0021489
0.00024631
0.00195229
0.000268529
0.0017343
0.000287712
0.00149743
0.000303674
0.00124428
0.000316228
0.000977517
0.000325207
0.000699404
0.000330421
0.000412402
0.000114937
0.00033134
3.29977e-05
0.00274962
-2.68819e-08
6.63889e-05
0.00271
9.93924e-05
0.00264608
0.000131529
0.00255534
0.000162415
0.00243731
0.000191629
0.00229228
0.000218771
0.00212175
0.000243461
0.00192758
0.000265406
0.00171234
0.000284352
0.00147846
0.000300112
0.0012285
0.000312506
0.000965102
0.000321367
0.000690521
0.00032652
0.000407206
0.000113805
0.000327516
3.2602e-05
0.00271702
-1.58987e-08
6.5607e-05
0.00267699
9.82413e-05
0.00261343
0.000130023
0.00252355
0.000160562
0.00240676
0.000189436
0.00226339
0.000216252
0.00209492
0.00024064
0.00190318
0.000262314
0.00169066
0.000281024
0.00145974
0.000296585
0.00121293
0.000308822
0.000952851
0.000317566
0.000681761
0.00032266
0.000402085
0.000112719
0.000323723
3.2216e-05
0.0026848
-1.54552e-09
6.48438e-05
0.00264436
9.71141e-05
0.00258116
0.000128541
0.00249211
0.000158733
0.00237657
0.000187266
0.00223485
0.000213757
0.00206843
0.000237845
0.00187908
0.000259251
0.00166925
0.000277728
0.00144124
0.000293094
0.00119755
0.000305176
0.000940754
0.000313806
0.000673114
0.000318841
0.000397014
0.000111488
0.000319954
3.18388e-05
0.00265294
1.43876e-08
6.40968e-05
0.00261208
9.60067e-05
0.00254923
0.000127081
0.00246103
0.000156924
0.00234671
0.000185117
0.00220664
0.000211285
0.00204224
0.000235076
0.00185528
0.000256216
0.0016481
0.000274464
0.00142298
0.000289638
0.00118237
0.000301567
0.00092881
0.000310086
0.000664577
0.000315062
0.00039201
0.000110305
0.000316217
3.14692e-05
0.00262144
2.97594e-08
6.33633e-05
0.00258019
9.49159e-05
0.00251768
0.000125637
0.0024303
0.000155133
0.00231722
0.000182987
0.00217877
0.000208834
0.0020164
0.000232331
0.00183177
0.00025321
0.00162722
0.000271232
0.00140495
0.000286216
0.00116737
0.000297996
0.000917019
0.000306407
0.000656153
0.000311324
0.000387062
0.000109018
0.000312508
3.11061e-05
0.00259027
4.32354e-08
6.2641e-05
0.00254864
9.38384e-05
0.00248647
0.000124208
0.00239992
0.000153357
0.00228806
0.000180875
0.00215124
0.000206404
0.00199085
0.000229611
0.00180855
0.000250231
0.00160658
0.000268032
0.00138713
0.00028283
0.00115256
0.000294463
0.000905371
0.000302769
0.000647829
0.000307628
0.000382172
0.000107781
0.000308835
3.07485e-05
0.00255947
5.36739e-08
6.19279e-05
0.00251746
9.27722e-05
0.00245562
0.000122792
0.00236989
0.000151595
0.00225926
0.000178779
0.00212405
0.000203994
0.00196564
0.000226915
0.00178562
0.000247281
0.00158621
0.000264863
0.00136954
0.000279479
0.00113794
0.000290968
0.000893875
0.000299171
0.000639617
0.000303973
0.000377343
0.000106473
0.000305194
3.03957e-05
0.002529
6.09833e-08
6.12225e-05
0.00248662
9.17154e-05
0.00242512
0.000121386
0.00234021
0.000149846
0.00223078
0.0001767
0.00209718
0.000201605
0.00194072
0.000224243
0.00176297
0.00024436
0.00156608
0.000261727
0.00135216
0.000276164
0.00112349
0.000287511
0.000882511
0.000295613
0.000631496
0.00030036
0.000372565
0.000105208
0.000301592
3.00467e-05
0.00249889
6.54308e-08
6.05235e-05
0.00245614
9.06669e-05
0.00239498
0.000119991
0.00231088
0.00014811
0.00220267
0.000174636
0.00207065
0.000199236
0.00191612
0.000221596
0.0017406
0.000241467
0.00154621
0.000258622
0.001335
0.000272883
0.00110922
0.000284092
0.000871298
0.000292096
0.000623487
0.000296787
0.000367851
0.000103893
0.000298026
2.97013e-05
0.00246911
6.74587e-08
5.98303e-05
0.002426
8.96259e-05
0.00236516
0.000118605
0.00228189
0.000146387
0.00217487
0.00017259
0.00204443
0.000196888
0.00189181
0.000218974
0.0017185
0.000238603
0.00152657
0.00025555
0.00131803
0.000269638
0.00109512
0.000280711
0.000860208
0.000288618
0.000615559
0.000293256
0.000363181
0.000102616
0.0002945
2.93589e-05
0.00243968
6.7657e-08
5.91422e-05
0.00239622
8.8592e-05
0.00233572
0.000117229
0.00225325
0.000144677
0.00214743
0.000170561
0.00201854
0.000194561
0.00186781
0.000216378
0.00169668
0.000235768
0.00150718
0.000252511
0.00130129
0.000266429
0.0010812
0.000277368
0.000849267
0.000285181
0.000607744
0.000289765
0.000358578
0.000101309
0.00029101
2.90192e-05
0.00241058
6.65468e-08
5.84591e-05
0.00236676
8.75653e-05
0.0023066
0.000115863
0.00222494
0.00014298
0.0021203
0.000168549
0.00199296
0.000192256
0.00184408
0.000213808
0.00167512
0.000232963
0.00148801
0.000249505
0.00128473
0.000263255
0.00106744
0.000274063
0.000838443
0.000281783
0.000600003
0.000286315
0.000354012
0.000100027
0.000287562
2.86822e-05
0.00238183
6.48037e-08
5.77807e-05
0.00233766
8.65457e-05
0.00227784
0.000114507
0.00219698
0.000141297
0.00209351
0.000166555
0.0019677
0.000189974
0.00182067
0.000211264
0.00165383
0.000230188
0.00146909
0.000246531
0.00126839
0.000260117
0.00105385
0.000270796
0.000827764
0.000278424
0.000592373
0.000282905
0.000349516
9.87329e-05
0.000284151
2.83478e-05
0.00235341
6.27058e-08
5.71072e-05
0.00230889
8.55336e-05
0.0022494
0.000113162
0.00216934
0.000139629
0.00206703
0.00016458
0.00194273
0.000187714
0.00179752
0.000208747
0.00163278
0.000227443
0.00145038
0.000243591
0.00125222
0.000257014
0.00104041
0.000267566
0.000817195
0.000275105
0.000584812
0.000279535
0.00034505
9.74531e-05
0.000280781
2.8016e-05
0.00232533
6.05965e-08
5.64388e-05
0.00228047
8.45292e-05
0.00222131
0.000111827
0.00214204
0.000137975
0.00204089
0.000162624
0.00191809
0.000185478
0.00177467
0.000206257
0.001612
0.000224729
0.00143191
0.000240683
0.00123627
0.000253947
0.00102715
0.000264374
0.000806772
0.000271824
0.000577363
0.000276205
0.000340658
9.6175e-05
0.000277447
2.76868e-05
0.00229758
5.8546e-08
5.57755e-05
0.00225237
8.3533e-05
0.00219354
0.000110505
0.00211506
0.000136337
0.00201504
0.000160688
0.00189372
0.000183265
0.00175208
0.000203794
0.00159145
0.000222045
0.00141364
0.000237809
0.00122049
0.000250915
0.00101402
0.000261219
0.00079645
0.000268583
0.000569975
0.000272915
0.000336291
9.49014e-05
0.000274155
2.73603e-05
0.00227016
5.67572e-08
5.51177e-05
0.00222461
8.25454e-05
0.00216611
0.000109194
0.00208841
0.000134715
0.00198953
0.000158771
0.00186966
0.000181076
0.00172978
0.000201358
0.00157117
0.000219391
0.00139562
0.000234968
0.00120491
0.000247919
0.00100107
0.000258101
0.000786273
0.000265379
0.0005627
0.000269663
0.000331998
9.36443e-05
0.000270899
2.70366e-05
0.00224306
5.51677e-08
5.44656e-05
0.00219717
8.15666e-05
0.002139
0.000107896
0.00206207
0.00013311
0.0019643
0.000156875
0.00184588
0.000178911
0.00170772
0.00019895
0.00155112
0.000216768
0.00137778
0.00023216
0.0011895
0.000244958
0.000988259
0.00025502
0.000776192
0.000262214
0.000555481
0.00026645
0.000327727
9.23854e-05
0.000267683
2.67157e-05
0.00221629
5.38484e-08
5.38194e-05
0.00217007
8.0597e-05
0.00211223
0.000106611
0.00203606
0.000131521
0.0019394
0.000155
0.00182241
0.00017677
0.00168596
0.000196569
0.00153132
0.000214175
0.00136018
0.000229385
0.00117429
0.000242032
0.000975616
0.000251975
0.000766255
0.000259087
0.000548375
0.000263275
0.000323534
9.11477e-05
0.000264503
2.6398e-05
0.00218982
5.27005e-08
5.31793e-05
0.00214327
7.96369e-05
0.00208576
0.000105339
0.00201034
0.000129949
0.00191478
0.000153145
0.00179919
0.000174654
0.00166443
0.000194216
0.00151174
0.000211613
0.00134277
0.000226642
0.00115925
0.00023914
0.000963099
0.000248967
0.000756409
0.000255997
0.00054132
0.000260137
0.000319358
8.99142e-05
0.000261363
2.60833e-05
0.00216369
5.17811e-08
5.25455e-05
0.00211682
7.86866e-05
0.00205962
0.00010408
0.00198495
0.000128394
0.00189047
0.000151311
0.00177628
0.000172562
0.00164319
0.000191891
0.00149242
0.00020908
0.00132559
0.000223932
0.0011444
0.000236283
0.000950753
0.000245995
0.000746704
0.000252944
0.000534378
0.000257038
0.000315261
8.87041e-05
0.000258257
2.57718e-05
0.00213786
5.0978e-08
5.19181e-05
0.00209066
7.77463e-05
0.00203378
0.000102835
0.00195985
0.000126856
0.00186643
0.000149499
0.00175362
0.000170494
0.00162218
0.000189593
0.0014733
0.000206578
0.00130858
0.000221255
0.0011297
0.00023346
0.000938528
0.000243059
0.000737085
0.000249927
0.000527482
0.000253975
0.000311178
8.75035e-05
0.000255191
2.54635e-05
0.00211235
5.03373e-08
5.12974e-05
0.00206483
7.68161e-05
0.00200827
0.000101604
0.00193507
0.000125336
0.00184271
0.000147707
0.00173125
0.000168451
0.00160144
0.000187322
0.00145444
0.000204106
0.00129181
0.000218609
0.0011152
0.000230671
0.000926472
0.000240158
0.000727608
0.000246947
0.000520701
0.00025095
0.000307176
8.63186e-05
0.000252159
2.51586e-05
0.00208713
4.97549e-08
5.06834e-05
0.00203929
7.58961e-05
0.00198304
0.000100387
0.00191056
0.000123834
0.00181925
0.000145936
0.00170914
0.000166432
0.00158093
0.000185078
0.00143578
0.000201663
0.00127521
0.000215995
0.00110085
0.000227915
0.000914532
0.000237291
0.000718211
0.000244003
0.000513961
0.000247961
0.000303184
8.51526e-05
0.000249166
2.4857e-05
0.00206222
4.92855e-08
5.00761e-05
0.00201407
7.49865e-05
0.00195813
9.91833e-05
0.00188637
0.000122349
0.00179609
0.000144186
0.0016873
0.000164437
0.00156068
0.000182861
0.00141736
0.000199249
0.00125883
0.000213412
0.00108669
0.000225193
0.000902758
0.00023446
0.000708954
0.000241095
0.000507335
0.000245008
0.000299273
8.39915e-05
0.000246207
2.45588e-05
0.0020376
4.88324e-08
4.94757e-05
0.00198914
7.40873e-05
0.00193351
9.79938e-05
0.00186245
0.000120881
0.00177319
0.000142457
0.00166571
0.000162466
0.00154066
0.000180671
0.00139914
0.000196865
0.00124261
0.000210861
0.00107268
0.000222503
0.000891095
0.000231662
0.000699773
0.000238221
0.000500747
0.000242091
0.000295368
8.28542e-05
0.000243288
2.4264e-05
0.0020133
4.84525e-08
4.88821e-05
0.00196453
7.31984e-05
0.0019092
9.68181e-05
0.00183884
0.000119431
0.00175058
0.000140748
0.0016444
0.000160518
0.00152089
0.000178507
0.00138115
0.000194509
0.00122662
0.00020834
0.00105885
0.000219846
0.000879597
0.000228898
0.000690733
0.000235382
0.000494274
0.00023921
0.000291545
8.17047e-05
0.000240401
2.39726e-05
0.00198926
4.80582e-08
4.82955e-05
0.00194019
7.232e-05
0.00188516
9.56564e-05
0.00181548
0.000117998
0.00172823
0.00013906
0.00162332
0.000158594
0.00150134
0.000176369
0.00136336
0.000192182
0.00121079
0.00020585
0.00104517
0.000217221
0.000868205
0.000226168
0.000681763
0.000232577
0.000487834
0.000236364
0.000287722
8.05786e-05
0.000237555
2.36847e-05
0.00196553
4.77122e-08
4.77157e-05
0.00191617
7.14519e-05
0.00186143
9.45085e-05
0.00179244
0.000116582
0.00170616
0.000137392
0.00160252
0.000156694
0.00148205
0.000174257
0.00134581
0.000189883
0.00119517
0.00020339
0.00103167
0.000214627
0.000856976
0.000223471
0.000672933
0.000229806
0.000481511
0.000233552
0.000283983
7.94352e-05
0.000234737
2.34002e-05
0.00194207
4.73339e-08
4.71427e-05
0.00189241
7.05942e-05
0.00183797
9.33743e-05
0.00176964
0.000115183
0.00168434
0.000135745
0.00158194
0.000154816
0.00146296
0.000172171
0.00132843
0.000187612
0.00117971
0.00020096
0.0010183
0.000212065
0.000845848
0.000220806
0.000664169
0.000227069
0.000475215
0.000230774
0.000280238
7.83138e-05
0.000231954
2.31191e-05
0.00191891
4.69867e-08
4.65766e-05
0.00186896
6.97467e-05
0.0018148
9.22537e-05
0.00174714
0.000113802
0.0016628
0.000134117
0.00156163
0.000152961
0.00144412
0.00017011
0.00131129
0.000185368
0.00116446
0.000198559
0.00100512
0.000209535
0.000834882
0.000218174
0.000655545
0.000224364
0.000469038
0.00022803
0.00027658
7.71839e-05
0.000229202
2.28414e-05
0.00189601
4.65955e-08
4.60172e-05
0.00184577
6.89094e-05
0.0017919
9.11467e-05
0.00172489
0.000112437
0.00164149
0.000132509
0.00154154
0.000151129
0.00142549
0.000168074
0.00129433
0.000183152
0.00114937
0.000196188
0.000992059
0.000207034
0.000824012
0.000215573
0.000646982
0.000221693
0.000462884
0.000225319
0.000272912
7.6068e-05
0.000226484
2.2567e-05
0.00187341
4.62269e-08
4.54646e-05
0.00182288
6.80821e-05
0.00176929
9.0053e-05
0.00170293
0.000111088
0.00162047
0.000130921
0.00152172
0.000149319
0.0014071
0.000166063
0.00127759
0.000180963
0.00113448
0.000193845
0.000979186
0.000204565
0.000813302
0.000213004
0.000638558
0.000219054
0.000456848
0.000222641
0.000269333
7.49553e-05
0.000223797
2.2296e-05
0.00185105
4.58095e-08
4.49187e-05
0.00180024
6.7265e-05
0.00174693
8.89726e-05
0.0016812
0.000109756
0.00159967
0.000129352
0.0015021
0.000147531
0.0013889
0.000164076
0.00126103
0.0001788
0.00111974
0.000191531
0.000966434
0.000202125
0.000802685
0.000210466
0.000630191
0.000216447
0.000450832
0.000219995
0.000265739
7.38439e-05
0.000221144
2.20282e-05
0.00182898
4.5409e-08
4.43793e-05
0.0017779
6.64577e-05
0.00172486
8.79053e-05
0.00165977
0.00010844
0.00157914
0.000127803
0.00148275
0.000145765
0.00137095
0.000162114
0.00124469
0.000176664
0.0011052
0.000189245
0.000953863
0.000199715
0.000792225
0.000207959
0.000621963
0.000213871
0.000444935
0.000217382
0.000262237
7.27518e-05
0.00021852
2.17638e-05
0.00180716
4.49562e-08
4.38466e-05
0.0017558
6.56602e-05
0.00170303
8.6851e-05
0.00163856
0.00010714
0.00155884
0.000126272
0.0014636
0.00014402
0.00135318
0.000160176
0.00122852
0.000174553
0.0010908
0.000186986
0.000941409
0.000197334
0.000781854
0.000205482
0.000613789
0.000211327
0.000439054
0.000214799
0.000258716
7.16463e-05
0.00021593
2.15025e-05
0.00178562
4.45189e-08
4.33203e-05
0.00173399
6.48724e-05
0.00168149
8.58095e-05
0.00161763
0.000105856
0.0015388
0.00012476
0.00144471
0.000142297
0.00133566
0.000158261
0.00121256
0.000172469
0.0010766
0.000184755
0.000929133
0.000194982
0.000771639
0.000203035
0.000605753
0.000208813
0.000433292
0.000212248
0.000255292
7.05776e-05
0.000213368
2.12445e-05
0.00176432
4.40297e-08
4.28004e-05
0.00171242
6.40943e-05
0.00166018
8.47808e-05
0.00159693
0.000104588
0.00151898
0.000123266
0.00142601
0.000140594
0.00131831
0.000156369
0.00119677
0.000170409
0.00106254
0.000182551
0.000916968
0.000192658
0.000761508
0.000200618
0.000597766
0.00020633
0.000427542
0.000209727
0.000251843
6.94791e-05
0.000210839
2.09897e-05
0.00174329
4.35555e-08
4.22869e-05
0.00169113
6.33256e-05
0.00163915
8.37646e-05
0.0015765
0.000103335
0.00149942
0.00012179
0.00140756
0.000138913
0.0013012
0.000154501
0.00118119
0.000168375
0.00104868
0.000180375
0.000904981
0.000190363
0.000751532
0.000198231
0.000589916
0.000203877
0.000421914
0.000207236
0.000248495
6.84357e-05
0.000208338
2.07379e-05
0.0017225
4.30298e-08
4.17797e-05
0.00167007
6.25663e-05
0.00161835
8.27608e-05
0.00155629
0.000102097
0.00148006
0.000120333
0.00138931
0.000137252
0.00128426
0.000152655
0.00116577
0.000166366
0.00103495
0.000178224
0.0008931
0.000188095
0.000741635
0.000195872
0.000582113
0.000201453
0.000416292
0.000204776
0.000245118
6.73465e-05
0.000205869
2.04893e-05
0.00170198
4.25207e-08
4.12786e-05
0.00164929
6.18163e-05
0.00159782
8.17692e-05
0.00153635
0.000100875
0.00146097
0.000118893
0.0013713
0.000135611
0.00126755
0.000150832
0.00115056
0.000164381
0.00102142
0.0001761
0.000881394
0.000185856
0.000731892
0.000193542
0.000574446
0.000199059
0.000410793
0.000202345
0.000241845
6.63296e-05
0.000203428
2.02437e-05
0.00168168
4.19627e-08
4.07837e-05
0.00162874
6.10754e-05
0.00157751
8.07898e-05
0.00151662
9.96673e-05
0.00144208
0.000117471
0.00135348
0.000133991
0.00125101
0.000149031
0.0011355
0.00016242
0.00100801
0.000174001
0.00086979
0.000183643
0.000722224
0.00019124
0.000566821
0.000196694
0.000405297
0.000199943
0.000238538
6.52504e-05
0.000201017
2.00011e-05
0.00166164
4.14221e-08
4.02948e-05
0.00160845
6.03436e-05
0.00155747
7.98223e-05
0.00149715
9.84745e-05
0.00142343
0.000116066
0.0013359
0.00013239
0.0012347
0.000147253
0.00112065
0.000160484
0.000994789
0.000171929
0.000858358
0.000181457
0.00071271
0.000188966
0.000559333
0.000194358
0.000399925
0.000197571
0.00023534
6.42609e-05
0.000198634
1.97616e-05
0.00164183
4.08335e-08
3.9812e-05
0.00158839
5.96207e-05
0.00153765
7.88666e-05
0.00147789
9.72963e-05
0.00140499
0.000114679
0.0013185
0.000130808
0.00121855
0.000145495
0.00110594
0.00015857
0.000981693
0.000169881
0.000847024
0.000179298
0.000703266
0.00018672
0.000551883
0.00019205
0.000394553
0.000195227
0.000232104
6.31934e-05
0.000196281
1.95249e-05
0.00162227
4.02642e-08
3.9335e-05
0.00156859
5.89067e-05
0.00151809
7.79226e-05
0.00145888
9.61325e-05
0.00138679
0.000113308
0.00130134
0.000129246
0.00120263
0.00014376
0.00109144
0.000156681
0.000968787
0.000167858
0.00083586
0.000177165
0.000693973
0.000184501
0.000544568
0.000189769
0.000389304
0.000192911
0.000228979
6.22312e-05
0.000193955
1.92912e-05
0.00160293
3.96494e-08
3.88639e-05
0.001549
5.82014e-05
0.00149874
7.69901e-05
0.00144008
9.49829e-05
0.00136878
0.000111954
0.00128435
0.000127704
0.00118686
0.000142045
0.00107708
0.000154814
0.000955997
0.00016586
0.00082479
0.000175059
0.000684747
0.000182309
0.000537289
0.000187517
0.000384052
0.000190623
0.000225811
6.11759e-05
0.000191658
1.90603e-05
0.00158384
3.90551e-08
3.83985e-05
0.00152967
5.75047e-05
0.00147964
7.6069e-05
0.00142152
9.38473e-05
0.00135101
0.000110617
0.00126759
0.00012618
0.00117131
0.000140352
0.00106292
0.00015297
0.000943394
0.000163886
0.000813888
0.000172977
0.000675672
0.000180143
0.000530145
0.000185292
0.000378925
0.000188363
0.000222759
6.02409e-05
0.000189387
1.88323e-05
0.00156495
3.84168e-08
3.79388e-05
0.00151055
5.68165e-05
0.00146075
7.51592e-05
0.00140316
9.27257e-05
0.00133343
0.000109296
0.001251
0.000124674
0.00115591
0.000138679
0.00104889
0.000151148
0.000930903
0.000161937
0.000803075
0.000170921
0.000666659
0.000178004
0.000523032
0.000183093
0.000373791
0.00018613
0.000219659
5.91991e-05
0.000187145
1.8607e-05
0.00154632
3.7801e-08
3.74848e-05
0.00149168
5.61367e-05
0.00144211
7.42605e-05
0.00138505
9.16177e-05
0.00131609
0.000107991
0.00123464
0.000123187
0.00114073
0.000137026
0.00103507
0.000149349
0.000918596
0.000160011
0.000792429
0.00016889
0.000657796
0.000175891
0.000516055
0.000180922
0.000368782
0.000183925
0.000216678
5.82911e-05
0.000184929
1.83845e-05
0.00152788
3.71436e-08
3.70363e-05
0.00147302
5.54652e-05
0.00142366
7.33728e-05
0.00136713
9.05232e-05
0.00129892
0.000106702
0.00121844
0.000121718
0.00112569
0.000135394
0.00102137
0.000147571
0.000906397
0.000158108
0.000781867
0.000166884
0.000648992
0.000173803
0.000509105
0.000178777
0.000363763
0.000181745
0.000213643
5.72628e-05
0.00018274
1.81648e-05
0.00150969
3.65096e-08
3.65933e-05
0.0014546
5.4802e-05
0.00140547
7.24958e-05
0.00134945
8.94421e-05
0.00128198
0.000105429
0.00120247
0.000120267
0.00111087
0.000133781
0.00100787
0.000145816
0.00089438
0.000156229
0.00077147
0.000164902
0.000640335
0.000171741
0.00050229
0.000176657
0.000358871
0.000179593
0.000210733
5.63815e-05
0.000180577
1.79477e-05
0.00149169
3.58349e-08
3.61557e-05
0.00143638
5.41468e-05
0.00138746
7.16297e-05
0.00133195
8.83743e-05
0.00126522
0.000104171
0.00118665
0.000118834
0.00109619
0.000132189
0.000994497
0.000144081
0.000882465
0.000154372
0.000761154
0.000162945
0.000631735
0.000169704
0.000495499
0.000174564
0.000353965
0.000177466
0.000207764
5.53677e-05
0.000178441
1.77333e-05
0.00147394
3.51848e-08
3.57235e-05
0.0014184
5.34996e-05
0.0013697
7.0774e-05
0.00131468
8.73194e-05
0.00124869
0.000102929
0.00117105
0.000117418
0.00108171
0.000130615
0.000981315
0.000142368
0.000870729
0.000152539
0.000751001
0.000161011
0.00062328
0.000167692
0.000488842
0.000172496
0.000349185
0.000175365
0.000204921
5.45126e-05
0.000176329
1.75216e-05
0.00145637
3.44958e-08
3.52965e-05
0.00140061
5.28604e-05
0.00135212
6.99289e-05
0.0012976
8.62775e-05
0.00123232
0.000101702
0.00115561
0.00011602
0.00106738
0.000129061
0.000968252
0.000140676
0.000859092
0.000150727
0.000740924
0.0001591
0.000614878
0.000165704
0.000482207
0.000170453
0.000344389
0.000173289
0.000202016
5.35131e-05
0.000174244
1.73124e-05
0.00143903
3.3832e-08
3.48748e-05
0.00138306
5.22289e-05
0.00133477
6.9094e-05
0.00128075
8.52483e-05
0.00121618
0.00010049
0.00114038
0.000114638
0.00105324
0.000127526
0.000955381
0.000139004
0.000847632
0.000148938
0.000731008
0.000157213
0.000606621
0.00016374
0.000475705
0.000168435
0.000339721
0.000171239
0.000199241
5.26837e-05
0.000172183
1.71058e-05
0.00142188
3.31304e-08
3.44583e-05
0.00136569
5.16052e-05
0.00131761
6.82693e-05
0.00126407
8.42316e-05
0.0012002
9.92927e-05
0.0011253
0.000113274
0.00103924
0.00012601
0.000942623
0.000137353
0.000836266
0.000147171
0.000721165
0.000155349
0.000598412
0.0001618
0.000469221
0.000166441
0.000335032
0.000169214
0.000196399
5.16996e-05
0.000170148
1.69017e-05
0.00140496
3.24552e-08
3.40468e-05
0.00134855
5.09891e-05
0.00130068
6.74548e-05
0.00124761
8.32274e-05
0.00118444
9.811e-05
0.00111043
0.000111926
0.00102544
0.000124512
0.000930054
0.000135722
0.000825075
0.000145425
0.000711481
0.000153508
0.000590348
0.000159884
0.000462871
0.000164471
0.000330473
0.000167213
0.000193689
5.08953e-05
0.000168137
1.67002e-05
0.00138821
3.17441e-08
3.36404e-05
0.0013316
5.03805e-05
0.00128393
6.66501e-05
0.00123133
8.22354e-05
0.00116884
9.69418e-05
0.00109571
0.000110595
0.00101177
0.000123033
0.000917594
0.000134111
0.000813973
0.0001437
0.000701866
0.000151689
0.000582329
0.000157991
0.000456535
0.000162526
0.000325889
0.000165236
0.000190909
4.99262e-05
0.000166151
1.65011e-05
0.00137169
3.10592e-08
3.32389e-05
0.00131487
4.97793e-05
0.0012674
6.58553e-05
0.00121527
8.12556e-05
0.00115346
9.57879e-05
0.00108119
0.00010928
0.000998294
0.000121571
0.00090532
0.00013252
0.000803044
0.000141996
0.000692408
0.000149892
0.000574453
0.000156122
0.000450333
0.000160604
0.000321436
0.000163283
0.000188264
4.91467e-05
0.000164188
1.63044e-05
0.00135534
3.0339e-08
3.28423e-05
0.00129832
4.91855e-05
0.00125104
6.50702e-05
0.00119936
8.02877e-05
0.00113822
9.4648e-05
0.00106681
0.000107981
0.000984941
0.000120127
0.000893151
0.000130948
0.000792201
0.000140314
0.000683016
0.000148117
0.000566618
0.000154275
0.000444142
0.000158705
0.000316956
0.000161354
0.000185543
4.81934e-05
0.000162249
1.61102e-05
0.00133922
2.96458e-08
3.24506e-05
0.00128199
4.85989e-05
0.00123491
6.42947e-05
0.00118368
7.93316e-05
0.0011232
9.35221e-05
0.00105264
0.000106697
0.000971782
0.000118702
0.000881165
0.000129395
0.000781528
0.000138651
0.000673779
0.000146364
0.000558926
0.00015245
0.000438085
0.00015683
0.000312606
0.000159449
0.000182961
4.74381e-05
0.000160333
1.59183e-05
0.00132325
2.89186e-08
3.20637e-05
0.00126583
4.80195e-05
0.00121893
6.35286e-05
0.00116816
7.83873e-05
0.00110832
9.241e-05
0.00103859
0.00010543
0.000958742
0.000117293
0.00086928
0.000127861
0.000770936
0.000137009
0.000664604
0.000144632
0.000551271
0.000150648
0.000432035
0.000154977
0.000308226
0.000157566
0.000180299
4.65001e-05
0.000158441
1.57288e-05
0.00130751
2.82182e-08
3.16815e-05
0.00124989
4.74472e-05
0.00120318
6.27719e-05
0.00115285
7.74544e-05
0.00109365
9.13114e-05
0.00102475
0.000104178
0.000945893
0.000115902
0.000857575
0.000126346
0.000760513
0.000135387
0.000655584
0.000142922
0.000543758
0.000148867
0.000426118
0.000153147
0.000303977
0.000155707
0.000177779
4.57686e-05
0.000156572
1.55416e-05
0.00129193
2.74849e-08
3.1304e-05
0.00123411
4.68819e-05
0.00118759
6.20245e-05
0.00113769
7.6533e-05
0.00107913
9.02263e-05
0.00101104
0.000102941
0.000933157
0.000114528
0.000845967
0.00012485
0.000750168
0.000133785
0.000646621
0.000141232
0.00053628
0.000147109
0.000420207
0.000151339
0.000299696
0.00015387
0.000175175
4.48467e-05
0.000154725
1.53567e-05
0.00127656
2.67792e-08
3.09311e-05
0.00121855
4.63234e-05
0.00117221
6.12862e-05
0.00112274
7.56228e-05
0.00106481
8.91545e-05
0.000997525
0.00010172
0.000920609
0.00011317
0.000834536
0.000123372
0.000739987
0.000132203
0.00063781
0.000139563
0.000528942
0.000145371
0.000414428
0.000149553
0.000295546
0.000152055
0.000172715
4.41386e-05
0.000152901
1.51741e-05
0.00126134
2.60421e-08
3.05628e-05
0.00120315
4.57718e-05
0.00115699
6.05569e-05
0.00110794
7.47238e-05
0.00105062
8.80958e-05
0.000984133
0.000100513
0.000908171
0.000111829
0.000823198
0.000121911
0.000729882
0.00013064
0.000629055
0.000137914
0.000521635
0.000143655
0.000408651
0.000147789
0.000291361
0.000150263
0.000170167
4.32322e-05
0.000151098
1.49937e-05
0.00124634
2.53317e-08
3.01989e-05
0.00118796
4.5227e-05
0.00114197
5.98365e-05
0.00109334
7.38358e-05
0.00103664
8.705e-05
0.000970936
9.93217e-05
0.000895918
0.000110505
0.000812034
0.000120469
0.00071994
0.000129096
0.00062045
0.000136286
0.000514469
0.00014196
0.000403007
0.000146046
0.000287309
0.000148492
0.000167766
4.25471e-05
0.000149318
1.48155e-05
0.00123148
2.4591e-08
2.98395e-05
0.00117292
4.46888e-05
0.00112711
5.91249e-05
0.00107889
7.29586e-05
0.00102279
8.60171e-05
0.000957858
9.81446e-05
0.00088377
0.000109197
0.00080096
0.000119045
0.000710069
0.000127571
0.000611896
0.000134677
0.00050733
0.000140286
0.000397362
0.000144325
0.000283218
0.000146743
0.000165275
4.16571e-05
0.000147559
1.46396e-05
0.00121683
2.38774e-08
2.94846e-05
0.00115809
4.41571e-05
0.00111245
5.8422e-05
0.00106464
7.20922e-05
0.00100913
8.49968e-05
0.00094497
9.69819e-05
0.000871804
0.000107905
0.000790058
0.000117637
0.000700358
0.000126064
0.000603492
0.000133088
0.00050033
0.000138632
0.000391849
0.000142624
0.00027926
0.000145015
0.000162931
4.09945e-05
0.000145821
1.44657e-05
0.00120233
2.31346e-08
2.91339e-05
0.0011434
4.3632e-05
0.00109794
5.77278e-05
0.00105053
7.12364e-05
0.000995606
8.3989e-05
0.000932198
9.58334e-05
0.000859939
0.000106628
0.00077924
0.000116248
0.000690716
0.000124576
0.000595135
0.000131518
0.000493355
0.000136998
0.000386332
0.000140945
0.00027526
0.000143308
0.000160493
4.012e-05
0.000144105
1.42941e-05
0.00118803
2.24183e-08
2.87876e-05
0.00112892
4.31133e-05
0.00108363
5.7042e-05
0.00103661
7.0391e-05
0.000982274
8.29935e-05
0.000919613
9.4699e-05
0.000848253
0.000105368
0.000768593
0.000114875
0.000681232
0.000123106
0.000586927
0.000129968
0.000486518
0.000135384
0.000380948
0.000139285
0.000271395
0.000141622
0.000158207
3.94797e-05
0.000142409
1.41245e-05
0.00117387
2.16743e-08
2.84455e-05
0.00111459
4.2601e-05
0.00106945
5.63646e-05
0.00102283
6.9556e-05
0.000969065
8.20103e-05
0.000907139
9.35785e-05
0.000836665
0.000104123