/*--------------------------------*- C++ -*----------------------------------*\
  =========                 |
  \\      /  F ield         | OpenFOAM: The Open Source CFD Toolbox
   \\    /   O peration     | Website:  https://openfoam.org
    \\  /    A nd           | Version:  6.0
     \\/     M anipulation  |
\*---------------------------------------------------------------------------*/
FoamFile
{
    version     2.0;
    format      ascii;
    class       volVectorField;
    location    "9";
    object      U;
}
// * * * * * * * * * * * * * * * * * * * * * * * * * * * * * * * * * * * * * //

dimensions      [0 1 -1 0 0 0 0];

internalField   nonuniform List<vector> 
34500
(
(0.999995 6.57047e-05 -9.47943e-18)
(0.999933 -2.54529e-05 9.09143e-17)
(0.999857 -0.00018137 2.29817e-17)
(0.999809 -0.000245499 -1.35035e-17)
(0.999738 -0.00021238 1.3219e-16)
(0.999568 -0.000250817 3.05816e-16)
(0.999296 -0.00051024 1.53604e-17)
(0.999041 -0.000956179 -2.4131e-16)
(0.998866 -0.00149292 3.72655e-16)
(0.998827 -0.00200129 -2.15351e-17)
(0.998882 -0.00247915 -2.82878e-16)
(0.999013 -0.0029735 -4.65747e-16)
(0.999184 -0.00349932 2.17269e-16)
(0.999727 -0.00472806 4.48684e-16)
(0.990779 -0.0112825 -4.09039e-16)
(0.99998 -7.79565e-05 -3.00181e-17)
(0.999904 -0.000428177 -8.08869e-17)
(0.999866 -0.000579438 1.90203e-16)
(0.999878 -0.000360803 -1.04932e-16)
(0.999758 -5.61821e-05 -6.87137e-17)
(0.999385 -0.000120303 -6e-16)
(0.998833 -0.000733612 9.90584e-17)
(0.99836 -0.00169843 1.60519e-16)
(0.998077 -0.00275003 -2.78409e-16)
(0.99806 -0.00366715 -4.56861e-16)
(0.998207 -0.00444546 -1.93859e-16)
(0.998497 -0.00519886 -3.98722e-16)
(0.9987 -0.00589312 -3.092e-16)
(0.999917 -0.00763333 -5.93903e-16)
(0.992977 -0.013958 7.31613e-16)
(0.999937 -0.000258977 -2.23677e-17)
(0.999913 -0.000745337 9.91014e-17)
(1 -0.000744579 3.53982e-17)
(1.00019 -0.000182509 -4.56966e-17)
(1.00023 0.000425145 -1.09482e-16)
(0.999964 0.000485811 6.50321e-17)
(0.999476 -0.000139731 -5.7874e-17)
(0.999022 -0.00118066 -8.96008e-17)
(0.998736 -0.00228459 4.66564e-16)
(0.998692 -0.00322085 -2.58366e-16)
(0.9988 -0.00395619 3.58375e-16)
(0.999066 -0.00463848 5.21346e-16)
(0.999049 -0.00522152 -3.48481e-16)
(1.00026 -0.00675365 3.19165e-16)
(0.996333 -0.0112528 -5.35317e-17)
(0.999871 -0.000378137 4.03016e-18)
(0.999869 -0.000882404 -1.64431e-16)
(1.00003 -0.000735223 -1.6468e-16)
(1.00034 4.16449e-05 7.41904e-17)
(1.00058 0.000821217 -2.74011e-16)
(1.00052 0.000975905 1.38089e-16)
(1.00021 0.000411467 3.36753e-16)
(0.999846 -0.000587598 -2.48438e-16)
(0.999586 -0.00163823 -9.78038e-16)
(0.999499 -0.00253172 3.17916e-16)
(0.999524 -0.00321834 -4.92521e-17)
(0.999705 -0.00386935 2.70728e-16)
(0.999463 -0.00449736 4.36744e-16)
(1.00027 -0.00603206 -2.62938e-16)
(0.997298 -0.0106312 -2.05059e-16)
(0.999794 -0.000434447 4.89686e-17)
(0.999755 -0.000895654 9.38405e-17)
(0.999879 -0.000661597 -1.20301e-16)
(1.00021 0.000169649 5.04507e-17)
(1.00056 0.000946489 3.36743e-16)
(1.00066 0.00107252 4.3216e-16)
(1.00051 0.000503083 -8.72606e-16)
(1.00026 -0.000484898 3.38038e-16)
(1.00005 -0.00150998 9.32457e-16)
(0.999957 -0.00239655 -3.89759e-16)
(0.999931 -0.0030966 -1.14119e-16)
(1.00005 -0.00379539 -3.02102e-17)
(0.999695 -0.00457765 -2.70726e-16)
(1.00011 -0.00626069 6.02518e-16)
(0.997269 -0.0112354 -4.02863e-16)
(0.999716 -0.000447227 2.84345e-17)
(0.999605 -0.000841788 3.51244e-17)
(0.99963 -0.000576688 1.26809e-16)
(0.999888 0.000190081 -1.4564e-16)
(1.00026 0.000834575 -6.50222e-17)
(1.00044 0.000831797 -4.06963e-16)
(1.00043 0.000191413 3.22824e-16)
(1.0003 -0.000823725 -8.19848e-17)
(1.00017 -0.00185144 -3.73547e-16)
(1.0001 -0.00275156 7.50633e-16)
(1.00007 -0.00348714 1.43566e-16)
(1.00017 -0.00424438 4.0249e-17)
(0.999797 -0.00515687 4.25338e-16)
(0.999975 -0.00693618 -1.22498e-15)
(0.997299 -0.0119056 4.70734e-16)
(0.999646 -0.000430476 -4.94822e-17)
(0.999457 -0.000752309 5.58297e-17)
(0.999365 -0.000495873 9.79984e-17)
(0.999512 0.000137757 2.74858e-16)
(0.999848 0.000581226 7.63552e-17)
(1.00009 0.000400468 3.45879e-16)
(1.00018 -0.000340483 -1.49042e-16)
(1.00015 -0.00139582 -6.40263e-16)
(1.00011 -0.00243014 -5.80338e-16)
(1.00009 -0.00333795 -7.97203e-16)
(1.00009 -0.00409432 -3.38946e-16)
(1.0002 -0.00487699 1.30718e-17)
(0.99986 -0.00584258 -3.13691e-16)
(0.999935 -0.00761408 1.04442e-15)
(0.997589 -0.012338 -1.38736e-16)
(0.999588 -0.000394921 -3.22424e-17)
(0.999334 -0.000649438 -2.26469e-17)
(0.999138 -0.000428264 -4.54511e-17)
(0.999179 4.07198e-05 -1.47538e-16)
(0.999468 0.000260965 1.0921e-16)
(0.999728 -0.000106702 4.40716e-18)
(0.999902 -0.000948938 1.05551e-16)
(0.99997 -0.00203848 6.89564e-16)
(1.00001 -0.0030691 5.56116e-17)
(1.00005 -0.00396692 -3.13599e-16)
(1.00008 -0.00471794 4.34318e-16)
(1.00023 -0.00548722 -3.97012e-17)
(0.999931 -0.00643966 -7.80741e-18)
(0.999966 -0.00813283 1.88237e-16)
(0.998047 -0.0125663 -4.0238e-16)
(0.999544 -0.000350071 -2.792e-18)
(0.999242 -0.00055182 -1.19819e-16)
(0.998974 -0.000384172 -2.73116e-17)
(0.998931 -8.71839e-05 1.90737e-16)
(0.999176 -8.31451e-05 -1.44695e-16)
(0.999447 -0.000621832 2.31554e-16)
(0.999682 -0.00154923 1.517e-16)
(0.999826 -0.00265739 1.05364e-17)
(0.999935 -0.00366921 1.39207e-16)
(1.00004 -0.00453863 3.46118e-17)
(1.00011 -0.00526123 -4.11202e-16)
(1.00028 -0.00598897 2.55421e-16)
(1.00003 -0.00688896 -1.61273e-16)
(1.00004 -0.00847588 -8.29839e-16)
(0.998547 -0.0126344 5.04902e-16)
(0.999511 -0.000303514 9.16851e-17)
(0.999182 -0.000472727 7.33276e-17)
(0.998873 -0.000371411 -3.26078e-17)
(0.998777 -0.000240116 -1.64226e-16)
(0.998991 -0.000429501 -1.66039e-16)
(0.999268 -0.00111126 -6.33953e-16)
(0.999547 -0.00210066 4.48796e-16)
(0.999752 -0.00320959 9.76395e-18)
(0.999921 -0.00418873 7.75146e-16)
(1.00007 -0.00501583 7.8433e-16)
(1.00018 -0.00569505 -2.26275e-16)
(1.00036 -0.00636691 -6.70436e-17)
(1.00014 -0.00719863 3.92271e-16)
(1.00015 -0.00867905 6.93029e-16)
(0.999032 -0.0126097 -5.429e-16)
(0.999485 -0.000260876 -2.67231e-17)
(0.999148 -0.000419617 5.00225e-17)
(0.998826 -0.000393926 2.15244e-17)
(0.998705 -0.000414988 -4.13991e-17)
(0.998902 -0.000768648 -1.41333e-16)
(0.999184 -0.00156176 -2.04869e-17)
(0.999497 -0.002589 -4.75284e-16)
(0.999748 -0.00368227 -6.67804e-16)
(0.999962 -0.00461822 -8.36044e-16)
(1.00015 -0.0053946 -4.94588e-16)
(1.00028 -0.00602321 2.82382e-16)
(1.00047 -0.00663525 -3.31879e-16)
(1.00027 -0.00739706 -2.41367e-16)
(1.00026 -0.00878355 -9.05817e-16)
(0.999458 -0.0125275 3.0653e-16)
(0.999462 -0.000225669 -7.49144e-17)
(0.999132 -0.000395194 -1.11879e-16)
(0.998817 -0.000451411 -5.4103e-18)
(0.998695 -0.000608961 9.66549e-17)
(0.998888 -0.00109689 1.24906e-16)
(0.999177 -0.00197107 -1.6263e-16)
(0.999515 -0.00301454 -1.74199e-16)
(0.999799 -0.00407926 2.16764e-16)
(1.00005 -0.00496557 1.05621e-15)
(1.00026 -0.00568784 -9.9615e-17)
(1.00041 -0.00626451 -1.57827e-16)
(1.0006 -0.00681953 2.78545e-16)
(1.00041 -0.0075172 4.2433e-18)
(1.00037 -0.00882568 2.32835e-16)
(0.999829 -0.0124278 5.02205e-17)
(0.999438 -0.000199706 1.07949e-16)
(0.999125 -0.000398681 7.1047e-17)
(0.998834 -0.000540571 -1.84616e-16)
(0.998726 -0.000818329 -7.4754e-17)
(0.998925 -0.00141299 5.43143e-18)
(0.999224 -0.00234174 3.07239e-16)
(0.99958 -0.00338388 4.1916e-16)
(0.999888 -0.00441083 3.09883e-16)
(1.00016 -0.00524466 -4.9688e-16)
(1.00039 -0.005913 6.72765e-16)
(1.00055 -0.00644017 -2.14348e-16)
(1.00074 -0.00694405 1.69219e-16)
(1.00054 -0.00758577 7.89886e-16)
(1.00049 -0.00883171 -2.50292e-17)
(1.00014 -0.0123218 1.59842e-18)
(0.999409 -0.000183303 -6.29754e-18)
(0.999122 -0.000426855 -6.14352e-17)
(0.998862 -0.000655786 2.52885e-16)
(0.99878 -0.00103853 1.08026e-16)
(0.998992 -0.00171604 -4.10007e-17)
(0.999301 -0.00267785 3.48885e-16)
(0.999672 -0.00370556 -7.18045e-16)
(0.999997 -0.00468927 -4.54642e-16)
(1.00028 -0.00547063 -3.88838e-16)
(1.00052 -0.00608776 -5.66435e-16)
(1.00069 -0.00656991 3.35923e-16)
(1.00087 -0.00702987 -1.44104e-16)
(1.00067 -0.00762412 -1.05791e-15)
(1.00059 -0.00882039 4.77999e-16)
(1.00039 -0.0122289 1.05629e-16)
(0.999373 -0.00017602 -3.55434e-17)
(0.999116 -0.000475147 2.35268e-17)
(0.998892 -0.000790536 -3.08026e-17)
(0.998842 -0.00126441 -1.88058e-16)
(0.999071 -0.00200516 1.42631e-17)
(0.999391 -0.00298336 1.83678e-16)
(0.999774 -0.00398765 3.23687e-16)
(1.00011 -0.00492559 4.74772e-16)
(1.00041 -0.00565653 2.23048e-16)
(1.00065 -0.00622654 -2.03503e-16)
(1.00082 -0.00666893 3.16835e-17)
(1.001 -0.00709194 2.25191e-16)
(1.00079 -0.00764606 -1.26139e-16)
(1.00069 -0.00880313 -5.62204e-16)
(1.00061 -0.0121475 1.85887e-17)
(0.999329 -0.000176672 -2.62754e-17)
(0.999105 -0.000538527 1.12518e-17)
(0.998916 -0.000937899 6.15668e-17)
(0.9989 -0.00149078 7.53306e-17)
(0.999149 -0.00227896 -1.07112e-16)
(0.999481 -0.00326142 -7.03197e-16)
(0.999873 -0.00423678 -2.08048e-16)
(1.00022 -0.00512893 -3.48925e-16)
(1.00053 -0.00581279 -6.05962e-16)
(1.00078 -0.00634051 6.61214e-16)
(1.00095 -0.00674845 3.82392e-16)
(1.00111 -0.00714084 -4.13926e-16)
(1.00089 -0.00766095 1.0626e-15)
(1.00078 -0.00878631 2.14094e-16)
(1.00079 -0.0120861 7.17461e-17)
(0.999275 -0.000183862 1.64011e-17)
(0.999085 -0.000612098 -8.12266e-17)
(0.998931 -0.00109156 -3.39326e-16)
(0.998949 -0.00171277 7.96992e-17)
(0.999217 -0.00253622 3.36926e-16)
(0.999561 -0.00351447 3.00377e-17)
(0.999961 -0.00445823 6.44522e-17)
(1.00032 -0.00530612 -1.29902e-17)
(1.00063 -0.00594704 7.39525e-16)
(1.00088 -0.00643735 -1.92668e-16)
(1.00105 -0.00681585 -5.19605e-16)
(1.00121 -0.00718282 -1.10388e-16)
(1.00099 -0.00767362 -4.60972e-17)
(1.00086 -0.00877318 2.31244e-16)
(1.00094 -0.012037 -3.86123e-16)
(0.999211 -0.000195917 2.17811e-17)
(0.999055 -0.000691421 5.93779e-17)
(0.998933 -0.00124589 2.2278e-16)
(0.998984 -0.00192629 -1.99196e-16)
(0.99927 -0.00277568 -2.06597e-16)
(0.999625 -0.00374431 1.1124e-16)
(1.00003 -0.00465596 2.13964e-16)
(1.0004 -0.00546241 4.23499e-16)
(1.00072 -0.00606491 -5.65008e-16)
(1.00097 -0.00652264 1.21081e-17)
(1.00115 -0.00687619 -1.67604e-16)
(1.00129 -0.00722218 1.64468e-17)
(1.00107 -0.0076875 -2.14507e-16)
(1.00093 -0.00876553 6.62858e-17)
(1.00107 -0.0120065 6.40961e-16)
(0.999139 -0.000211403 -2.80573e-18)
(0.999014 -0.000772729 1.02085e-16)
(0.998922 -0.00139644 -1.01153e-16)
(0.999002 -0.00212813 2.80292e-16)
(0.999305 -0.00299666 9.86492e-17)
(0.999672 -0.0039526 1.58426e-16)
(1.00009 -0.00483313 2.98809e-16)
(1.00046 -0.00560163 -6.67652e-16)
(1.00078 -0.00617031 1.52841e-16)
(1.00104 -0.00659995 -4.39352e-17)
(1.00122 -0.00693251 4.7227e-16)
(1.00137 -0.00726103 -2.8336e-16)
(1.00114 -0.00770382 -1.3689e-16)
(1.001 -0.0087639 -4.72585e-17)
(1.00118 -0.0119864 -1.40236e-16)
(0.999058 -0.000228869 -3.19085e-17)
(0.998963 -0.000853021 -2.43522e-17)
(0.998897 -0.00153973 3.21865e-16)
(0.999003 -0.00231601 -2.13387e-16)
(0.999322 -0.00319868 1.51206e-16)
(0.999699 -0.00414063 -2.80757e-16)
(1.00012 -0.00499211 -6.02188e-17)
(1.0005 -0.0057266 4.88215e-16)
(1.00083 -0.00626593 2.34371e-16)
(1.0011 -0.00667162 3.46355e-16)
(1.00129 -0.00698658 -5.91396e-16)
(1.00143 -0.00730056 6.58635e-16)
(1.0012 -0.00772329 -1.73172e-16)
(1.00105 -0.00876773 -1.63275e-16)
(1.00128 -0.0119816 -1.14776e-16)
(0.99897 -0.000247255 4.12282e-17)
(0.998901 -0.000930049 1.23673e-17)
(0.998858 -0.00167342 -3.82003e-16)
(0.998988 -0.00248853 -1.57935e-17)
(0.999321 -0.00338194 -1.22633e-16)
(0.999707 -0.00430982 2.28751e-16)
(1.00014 -0.00513496 -9.89741e-17)
(1.00052 -0.00583944 -2.0139e-16)
(1.00087 -0.00635364 3.16546e-16)
(1.00114 -0.00673904 -7.19321e-17)
(1.00133 -0.0070393 7.52362e-16)
(1.00148 -0.00734099 -7.70062e-16)
(1.00125 -0.00774551 2.3514e-16)
(1.00111 -0.00877664 -7.84056e-17)
(1.00136 -0.0119831 -1.64776e-16)
(0.998876 -0.000265531 -5.54627e-18)
(0.99883 -0.00100224 -1.73756e-16)
(0.998806 -0.00179601 1.48045e-16)
(0.998958 -0.00264512 5.59166e-17)
(0.999302 -0.00354692 -7.53962e-17)
(0.999698 -0.00446155 -7.58625e-17)
(1.00014 -0.00526344 1.70311e-16)
(1.00053 -0.00594193 3.4879e-16)
(1.00089 -0.00643494 -3.78963e-16)
(1.00117 -0.00680335 -7.92898e-17)
(1.00137 -0.00709142 -4.16224e-16)
(1.00152 -0.00738275 7.71116e-16)
(1.0013 -0.00777081 -8.4722e-17)
(1.00116 -0.00879031 -4.35936e-17)
(1.00144 -0.0119973 1.55904e-16)
(0.998776 -0.000283114 6.01162e-18)
(0.998751 -0.00106863 1.10996e-16)
(0.998743 -0.00190686 -5.33872e-18)
(0.998913 -0.00278589 1.25109e-16)
(0.999268 -0.0036947 -1.59435e-16)
(0.999674 -0.00459744 5.60784e-17)
(1.00012 -0.00537932 -5.54941e-17)
(1.00053 -0.00603562 -2.91053e-16)
(1.00089 -0.00651102 7.90823e-17)
(1.00119 -0.00686532 -3.07197e-16)
(1.0014 -0.00714333 9.42832e-17)
(1.00155 -0.00742584 -4.25869e-16)
(1.00134 -0.00779884 -5.41666e-17)
(1.00121 -0.00880859 8.60405e-17)
(1.00151 -0.0120164 -1.45135e-16)
(0.998671 -0.000299413 -3.00147e-17)
(0.998663 -0.0011287 -2.81729e-17)
(0.99867 -0.00200584 -8.46994e-18)
(0.998856 -0.00291142 -1.77903e-16)
(0.99922 -0.00382638 -7.54554e-18)
(0.999635 -0.00471899 1.21573e-16)
(1.00009 -0.00548405 2.20973e-17)
(1.00051 -0.00612181 2.97927e-16)
(1.00088 -0.00658278 -1.17504e-16)
(1.00119 -0.00692553 4.30972e-16)
(1.00142 -0.00719526 -5.45036e-17)
(1.00158 -0.00747032 -3.08579e-18)
(1.00138 -0.00782959 -1.56035e-16)
(1.00125 -0.00883067 -3.67223e-16)
(1.00159 -0.0120465 1.70362e-16)
(0.998562 -0.000314256 2.52812e-17)
(0.998568 -0.00118235 8.73397e-17)
(0.998588 -0.00209337 3.2099e-17)
(0.998788 -0.00302268 -3.3431e-17)
(0.99916 -0.00394351 3.39994e-16)
(0.999584 -0.00482787 -7.31968e-17)
(1.00005 -0.00557919 -3.14685e-16)
(1.00048 -0.00620166 -1.66808e-16)
(1.00087 -0.00665105 1.81625e-16)
(1.00119 -0.00698442 -4.67639e-16)
(1.00143 -0.00724736 -2.36351e-16)
(1.0016 -0.00751597 -7.41212e-17)
(1.00141 -0.00786253 2.98362e-16)
(1.00129 -0.00885639 -1.56694e-16)
(1.00165 -0.0120791 -1.34661e-16)
(0.998449 -0.000327371 -5.26961e-17)
(0.998467 -0.00122974 -5.46452e-17)
(0.998498 -0.00217011 -1.04598e-16)
(0.99871 -0.00312089 2.42083e-17)
(0.99909 -0.00404753 5.34114e-17)
(0.999522 -0.0049256 -9.08149e-17)
(0.999996 -0.0056661 -3.3018e-17)
(1.00044 -0.00627631 -3.26434e-17)
(1.00084 -0.00671663 3.50825e-17)
(1.00118 -0.00704251 1.10463e-16)
(1.00143 -0.00729997 5.0929e-16)
(1.00162 -0.00756308 1.93694e-16)
(1.00144 -0.00789805 -1.75233e-16)
(1.00133 -0.00888565 3.29812e-16)
(1.00171 -0.0121218 6.12255e-17)
(0.998333 -0.000338857 3.61596e-17)
(0.998361 -0.00127124 -1.18415e-16)
(0.998402 -0.00223705 1.30248e-16)
(0.998624 -0.00320742 -1.41362e-16)
(0.99901 -0.00414016 -1.08607e-16)
(0.999452 -0.00501389 -1.01089e-16)
(0.999936 -0.00574625 -4.18434e-17)
(1.00039 -0.00634686 -1.19809e-16)
(1.00081 -0.00678032 -2.18162e-16)
(1.00116 -0.00710033 2.29322e-16)
(1.00143 -0.00735338 -2.93616e-16)
(1.00163 -0.00761171 -2.55671e-16)
(1.00147 -0.00793601 1.78025e-16)
(1.00137 -0.00891858 -1.8452e-16)
(1.00177 -0.0121671 -8.78839e-17)
(0.998214 -0.000348635 1.10357e-17)
(0.99825 -0.00130734 -1.68409e-17)
(0.998299 -0.00229515 -4.07828e-17)
(0.998531 -0.00328367 3.77204e-17)
(0.998923 -0.00422286 -1.23118e-16)
(0.999374 -0.00509411 9.45306e-17)
(0.999869 -0.00582078 3.21486e-16)
(1.00034 -0.00641423 4.50972e-16)
(1.00078 -0.00684273 -1.18251e-16)
(1.00114 -0.00715826 -2.56033e-16)
(1.00143 -0.00740781 -1.31657e-16)
(1.00164 -0.00766202 2.03873e-16)
(1.00149 -0.00797659 -2.50213e-16)
(1.00141 -0.00895462 8.20507e-16)
(1.00182 -0.012222 3.74389e-16)
(0.998093 -0.000356966 -4.45609e-17)
(0.998135 -0.00133862 7.24693e-17)
(0.998192 -0.00234554 1.08226e-16)
(0.998432 -0.00335103 1.16115e-16)
(0.99883 -0.00429722 -1.43945e-16)
(0.99929 -0.00516775 -2.8437e-17)
(0.999796 -0.00589092 7.37694e-17)
(1.00028 -0.00647928 1.90764e-17)
(1.00074 -0.00690446 3.56436e-16)
(1.00112 -0.00721664 2.25507e-16)
(1.00143 -0.00746342 4.01762e-16)
(1.00165 -0.00771393 5.38269e-17)
(1.00152 -0.00801944 9.11218e-17)
(1.00145 -0.00899391 -3.71411e-16)
(1.00188 -0.0122781 -3.57918e-16)
(0.99797 -0.000363858 1.89864e-17)
(0.998016 -0.00136565 4.9112e-17)
(0.998079 -0.00238925 -2.09564e-16)
(0.998328 -0.00341084 1.93436e-16)
(0.998731 -0.00436457 1.5705e-16)
(0.9992 -0.00523599 3.03082e-16)
(0.999718 -0.00595766 -5.86991e-17)
(1.00022 -0.00654281 -3.30159e-17)
(1.00069 -0.00696608 -1.14951e-16)
(1.00109 -0.0072759 6.71617e-17)
(1.00142 -0.00752055 -7.06151e-16)
(1.00166 -0.00776783 5.51709e-16)
(1.00154 -0.00806507 -5.19684e-17)
(1.00149 -0.0090367 -5.28437e-16)
(1.00193 -0.0123425 2.75654e-16)
(0.997845 -0.000369638 3.37524e-17)
(0.997894 -0.00138905 7.15507e-17)
(0.997964 -0.00242735 2.28728e-16)
(0.998219 -0.00346438 -3.25295e-16)
(0.998628 -0.00442629 2.59291e-17)
(0.999106 -0.00530013 -2.33252e-16)
(0.999636 -0.00602206 2.29634e-17)
(1.00015 -0.00660563 -4.50908e-16)
(1.00064 -0.00702822 3.0505e-16)
(1.00107 -0.00733649 -3.68947e-16)
(1.00141 -0.0075795 5.33774e-16)
(1.00167 -0.00782386 -6.13338e-16)
(1.00157 -0.00811347 -3.04482e-16)
(1.00153 -0.00908252 2.1673e-16)
(1.00198 -0.0124144 -2.20379e-16)
(0.997718 -0.000374326 -3.99187e-17)
(0.997769 -0.00140937 -3.40589e-17)
(0.997844 -0.00246074 -4.0227e-17)
(0.998106 -0.00351277 1.26358e-17)
(0.998521 -0.00448345 -1.9116e-17)
(0.999009 -0.00536111 -2.79301e-16)
(0.999551 -0.00608488 -2.61318e-16)
(1.00009 -0.00666832 1.78089e-16)
(1.00059 -0.00709125 8.54463e-17)
(1.00103 -0.00739868 5.60006e-16)
(1.0014 -0.00764044 -4.19155e-16)
(1.00167 -0.00788222 1.08613e-16)
(1.00159 -0.00816487 4.01258e-17)
(1.00157 -0.0091312 -8.71243e-17)
(1.00203 -0.0124961 3.33213e-16)
(0.99759 -0.000378268 2.34847e-17)
(0.997642 -0.00142716 -4.02341e-17)
(0.997722 -0.00249032 1.66114e-17)
(0.99799 -0.00355703 1.66557e-16)
(0.998411 -0.00453716 8.16438e-17)
(0.998908 -0.0054199 4.2472e-16)
(0.999463 -0.0061469 8.54814e-17)
(1.00002 -0.00673144 -7.55135e-17)
(1.00054 -0.00715558 -2.64266e-16)
(1.001 -0.0074627 -3.63207e-16)
(1.00139 -0.00770348 3.18312e-16)
(1.00168 -0.00794281 2.57215e-17)
(1.00162 -0.00821891 1.58659e-16)
(1.00161 -0.00918312 1.82665e-16)
(1.00208 -0.0125815 -7.6682e-17)
(0.99746 -0.000381463 -2.93454e-17)
(0.997512 -0.00144287 -1.05341e-16)
(0.997597 -0.00251684 -6.66167e-17)
(0.997871 -0.00359807 1.17901e-16)
(0.998297 -0.00458825 7.65353e-17)
(0.998805 -0.00547723 5.00858e-17)
(0.999374 -0.00620871 1.98939e-17)
(0.999943 -0.00679548 3.41964e-16)
(1.00049 -0.00722157 1.14856e-16)
(1.00097 -0.00752886 -2.42788e-16)
(1.00138 -0.00776892 -4.90112e-17)
(1.00169 -0.00800604 -2.53186e-16)
(1.00165 -0.00827607 -2.34173e-16)
(1.00165 -0.00923871 5.85394e-17)
(1.00214 -0.0126737 -1.22486e-16)
(0.997329 -0.000384241 2.37715e-17)
(0.997381 -0.00145696 1.28263e-16)
(0.99747 -0.00254101 -7.59613e-17)
(0.99775 -0.0036367 -5.44406e-17)
(0.998182 -0.00463762 7.69338e-17)
(0.9987 -0.00553392 -4.96156e-17)
(0.999282 -0.006271 -8.06444e-17)
(0.999869 -0.00686095 -2.11231e-16)
(1.00044 -0.00728965 4.61321e-17)
(1.00094 -0.00759749 5.30644e-16)
(1.00137 -0.007837 1.78655e-16)
(1.0017 -0.00807197 4.76413e-16)
(1.00167 -0.00833635 2.02092e-16)
(1.0017 -0.00929737 2.83526e-16)
(1.00219 -0.0127748 2.61396e-17)
(0.997197 -0.000386555 2.85843e-17)
(0.997247 -0.00146978 3.56434e-17)
(0.997341 -0.00256341 9.28637e-17)
(0.997626 -0.0036736 -1.6579e-16)
(0.998064 -0.00468584 -4.25469e-16)
(0.998592 -0.00559046 -7.23766e-17)
(0.999189 -0.00633415 -3.51268e-18)
(0.999795 -0.00692816 4.62098e-17)
(1.00038 -0.00736001 2.43198e-17)
(1.00091 -0.00766872 -3.33191e-16)
(1.00136 -0.00790781 1.99373e-16)
(1.00171 -0.00814077 -3.23102e-16)
(1.0017 -0.00839986 -1.05484e-16)
(1.00174 -0.00935936 -3.5025e-16)
(1.00226 -0.0128817 -2.00213e-17)
(0.997064 -0.000388719 -3.98318e-17)
(0.997113 -0.00148168 -6.8303e-17)
(0.99721 -0.00258454 -6.08404e-17)
(0.9975 -0.00370935 -3.13589e-17)
(0.997944 -0.00473356 6.33761e-17)
(0.998484 -0.00564742 -1.68283e-16)
(0.999095 -0.00639861 7.16279e-17)
(0.999719 -0.00699742 1.88811e-16)
(1.00033 -0.00743288 -2.51227e-16)
(1.00087 -0.00774268 1.09474e-16)
(1.00134 -0.0079814 1.21687e-16)
(1.00172 -0.00821229 9.36357e-17)
(1.00173 -0.00846618 6.6249e-16)
(1.00178 -0.0094247 3.48178e-17)
(1.00232 -0.0129947 -1.65793e-16)
(0.99693 -0.000390644 9.6183e-18)
(0.996976 -0.0014929 -3.86556e-18)
(0.997077 -0.00260484 -6.73038e-17)
(0.997372 -0.00374444 2.6732e-16)
(0.997822 -0.00478122 8.07981e-18)
(0.998373 -0.00570515 1.76886e-16)
(0.998999 -0.00646469 -9.84612e-17)
(0.999643 -0.007069 -5.06723e-16)
(1.00027 -0.00750849 2.34439e-16)
(1.00084 -0.00781957 1.51823e-17)
(1.00133 -0.00805799 -5.68707e-16)
(1.00173 -0.00828689 3.7893e-18)
(1.00176 -0.00853578 -4.25047e-16)
(1.00182 -0.00949338 2.31566e-16)
(1.00239 -0.0131163 5.88153e-17)
(0.996795 -0.000392619 1.34714e-17)
(0.996839 -0.00150372 -9.857e-18)
(0.996943 -0.0026247 1.60967e-16)
(0.997242 -0.00377931 -1.05915e-16)
(0.997699 -0.00482932 -1.64459e-16)
(0.998262 -0.00576415 -4.01646e-16)
(0.998903 -0.00653279 -1.94653e-16)
(0.999566 -0.00714321 2.14495e-16)
(1.00022 -0.0075871 5.2163e-17)
(1.00081 -0.00789964 -2.82787e-16)
(1.00133 -0.00813774 1.83438e-16)
(1.00174 -0.00836462 -4.95485e-17)
(1.0018 -0.00860842 1.57483e-16)
(1.00187 -0.00956648 -4.17032e-17)
(1.00246 -0.0132362 -1.11744e-16)
(0.996659 -0.000394508 -3.32542e-17)
(0.9967 -0.0015143 2.83965e-17)
(0.996807 -0.00264439 -9.37226e-17)
(0.997111 -0.00381432 -5.7162e-17)
(0.997575 -0.00487813 2.55851e-16)
(0.998149 -0.00582461 6.21075e-16)
(0.998806 -0.00660309 4.0924e-16)
(0.999489 -0.0072202 1.62646e-16)
(1.00016 -0.00766879 2.98286e-17)
(1.00078 -0.00798292 3.4696e-17)
(1.00132 -0.0082207 1.24962e-16)
(1.00175 -0.0084456 -1.87578e-16)
(1.00183 -0.00868424 -2.56512e-17)
(1.00191 -0.00964299 1.39219e-16)
(1.00253 -0.0133666 2.93362e-16)
(0.996522 -0.000396584 1.00875e-17)
(0.996559 -0.00152481 -3.57454e-17)
(0.996669 -0.00266418 8.45413e-19)
(0.996978 -0.00384975 8.29006e-17)
(0.997449 -0.004928 5.5708e-17)
(0.998036 -0.00588687 -3.59686e-16)
(0.998709 -0.00667582 -1.77112e-16)
(0.999412 -0.00730013 -3.12743e-16)
(1.00011 -0.0077537 -6.8209e-17)
(1.00075 -0.0080695 7.37593e-16)
(1.00131 -0.00830684 8.86759e-18)
(1.00177 -0.00852966 -1.37314e-16)
(1.00187 -0.00876285 -4.25134e-16)
(1.00195 -0.00972322 -1.99554e-17)
(1.0026 -0.0134927 -7.65997e-17)
(0.996384 -0.000398677 2.26839e-17)
(0.996417 -0.00153538 -2.99575e-18)
(0.99653 -0.00268427 2.92736e-17)
(0.996843 -0.00388584 -7.44763e-17)
(0.997321 -0.00497911 -2.18948e-17)
(0.997921 -0.00595107 1.47033e-16)
(0.998611 -0.00675113 -2.08292e-16)
(0.999335 -0.00738315 2.62256e-16)
(1.00005 -0.00784193 4.59638e-18)
(1.00071 -0.0081595 -3.93695e-16)
(1.0013 -0.00839636 -8.4847e-17)
(1.00179 -0.0086171 5.27555e-16)
(1.00191 -0.00884479 1.86283e-16)
(1.002 -0.00980678 -4.97613e-16)
(1.00268 -0.013626 -3.87331e-17)
(0.996245 -0.000401047 -1.65199e-17)
(0.996274 -0.00154613 5.25696e-17)
(0.996389 -0.00270485 9.68543e-18)
(0.996707 -0.00392281 -1.59158e-16)
(0.997193 -0.00503176 1.84368e-17)
(0.997805 -0.00601752 -6.1968e-18)
(0.998512 -0.00682929 4.83892e-16)
(0.999257 -0.00746948 2.67981e-16)
(0.999999 -0.00793372 -6.68215e-16)
(1.00069 -0.00825311 -2.95685e-16)
(1.0013 -0.00848938 1.76748e-16)
(1.0018 -0.00870791 2.46923e-18)
(1.00194 -0.00892996 4.46357e-16)
(1.00205 -0.00989433 4.57414e-16)
(1.00275 -0.0137552 1.29796e-16)
(0.996105 -0.00040349 -7.46118e-18)
(0.99613 -0.00155713 6.72348e-18)
(0.996247 -0.00272605 1.05966e-16)
(0.996569 -0.00396084 2.74012e-16)
(0.997063 -0.00508606 -3.28277e-17)
(0.997688 -0.00608628 -3.1336e-16)
(0.998413 -0.00691034 -3.62263e-16)
(0.99918 -0.00755915 -6.84848e-16)
(0.999945 -0.00802905 4.39315e-16)
(1.00066 -0.00835033 3.51447e-16)
(1.0013 -0.00858594 -1.59289e-16)
(1.00182 -0.0088022 -2.75849e-16)
(1.00199 -0.00901854 -4.38485e-16)
(1.0021 -0.00998511 -3.6402e-17)
(1.00283 -0.0138926 -3.88916e-16)
(0.995963 -0.000406259 1.11183e-17)
(0.995984 -0.00156846 -3.30795e-17)
(0.996103 -0.00274797 -1.24707e-16)
(0.99643 -0.00400004 -2.16664e-16)
(0.996931 -0.00514219 -4.56637e-17)
(0.997571 -0.00615754 2.98342e-16)
(0.998313 -0.00699444 2.24325e-16)
(0.999102 -0.00765228 6.9468e-16)
(0.999892 -0.00812803 7.13752e-18)
(1.00063 -0.00845119 -1.49989e-16)
(1.00129 -0.00868598 1.20524e-17)
(1.00184 -0.00889973 -2.75083e-16)
(1.00203 -0.00911011 -3.74062e-16)
(1.00215 -0.0100794 -3.39112e-16)
(1.00291 -0.0140259 4.06272e-16)
(0.995821 -0.000409132 -3.788e-17)
(0.995837 -0.00158014 8.39254e-17)
(0.995957 -0.00277071 -9.7065e-18)
(0.996289 -0.00404054 2.60913e-16)
(0.996799 -0.00520022 -1.02194e-16)
(0.997452 -0.00623133 -7.23652e-17)
(0.998213 -0.00708166 7.55316e-17)
(0.999024 -0.00774893 -4.38315e-16)
(0.99984 -0.00823074 -3.14993e-16)
(1.0006 -0.00855579 -1.11008e-17)
(1.00129 -0.00878968 9.74821e-17)
(1.00187 -0.00900082 1.51801e-16)
(1.00207 -0.00920523 3.91354e-16)
(1.0022 -0.0101768 4.01922e-16)
(1.00299 -0.0141684 -5.72126e-17)
(0.995677 -0.000412359 3.18532e-18)
(0.995689 -0.00159225 -2.78125e-17)
(0.99581 -0.00279435 -1.71034e-16)
(0.996146 -0.00408244 -2.68707e-16)
(0.996665 -0.00526035 9.72264e-17)
(0.997332 -0.0063079 1.38016e-16)
(0.998112 -0.00717218 -3.41885e-16)
(0.998947 -0.00784929 -8.42655e-17)
(0.999787 -0.00833734 3.0292e-16)
(1.00058 -0.00866432 -1.21073e-16)
(1.00129 -0.00889715 1.31468e-16)
(1.00189 -0.00910547 1.36007e-16)
(1.00212 -0.00930374 6.0364e-17)
(1.00226 -0.010278 -4.9772e-16)
(1.00306 -0.0143076 -1.15421e-16)
(0.995532 -0.000415695 2.63424e-17)
(0.995539 -0.0016048 -4.56223e-17)
(0.995662 -0.00281895 1.26338e-16)
(0.996002 -0.00412584 2.27241e-16)
(0.996529 -0.0053226 7.31563e-17)
(0.997211 -0.00638724 -2.66816e-16)
(0.998011 -0.00726603 1.71954e-16)
(0.998869 -0.00795338 1.39509e-16)
(0.999736 -0.00844784 2.64332e-16)
(1.00055 -0.00877676 1.72351e-16)
(1.00129 -0.00900841 -3.2049e-16)
(1.00192 -0.00921379 3.63144e-17)
(1.00217 -0.00940584 -5.26419e-17)
(1.00232 -0.0103825 -1.41226e-17)
(1.00315 -0.0144567 4.52903e-17)
(0.995386 -0.000419392 3.2006e-17)
(0.995388 -0.00161782 5.09021e-18)
(0.995511 -0.00284454 1.76958e-16)
(0.995856 -0.00417077 -6.61197e-17)
(0.996392 -0.00538709 1.52278e-16)
(0.99709 -0.00646947 1.32546e-16)
(0.997909 -0.0073633 4.96075e-17)
(0.998791 -0.00806126 9.75348e-17)
(0.999685 -0.00856228 -1.23097e-16)
(1.00053 -0.00889311 -1.1812e-17)
(1.0013 -0.00912338 -9.20928e-17)
(1.00195 -0.00932554 -3.57741e-17)
(1.00222 -0.00951108 1.27398e-16)
(1.00238 -0.0104903 -1.41423e-18)
(1.00323 -0.0146024 -1.33012e-16)
(0.995239 -0.000423194 5.10036e-18)
(0.995235 -0.00163132 -8.90291e-17)
(0.995359 -0.00287115 -1.93123e-16)
(0.995708 -0.0042173 -1.21909e-16)
(0.996254 -0.00545383 -9.92199e-17)
(0.996967 -0.00655462 3.23089e-18)
(0.997806 -0.00746402 -5.40107e-17)
(0.998714 -0.008173 -1.13128e-16)
(0.999634 -0.00868074 -5.6247e-17)
(1.0005 -0.00901349 -1.68586e-16)
(1.0013 -0.00924225 2.84465e-16)
(1.00198 -0.00944106 4.45762e-17)
(1.00227 -0.00962004 -2.7235e-16)
(1.00244 -0.0106014 2.63553e-16)
(1.00331 -0.0147587 4.63409e-17)
(0.99509 -0.000427357 -5.03093e-17)
(0.995081 -0.00164531 6.92571e-17)
(0.995205 -0.00289883 -7.19454e-18)
(0.995559 -0.00426551 -1.97907e-17)
(0.996114 -0.00552297 -1.4483e-16)
(0.996843 -0.00664286 1.8632e-16)
(0.997703 -0.00756838 -5.37406e-18)
(0.998636 -0.00828876 1.80939e-16)
(0.999584 -0.0088034 1.46752e-17)
(1.00048 -0.00913806 -4.52486e-18)
(1.00131 -0.00936512 -4.25696e-16)
(1.00201 -0.00956033 -1.04629e-16)
(1.00232 -0.00973257 3.09346e-16)
(1.0025 -0.0107164 -1.98548e-16)
(1.00339 -0.0149124 1.12458e-16)
(0.994939 -0.000431608 1.66088e-17)
(0.994925 -0.00165981 5.54943e-17)
(0.99505 -0.00292761 -5.77528e-17)
(0.995407 -0.00431543 -5.76028e-17)
(0.995972 -0.00559452 9.95235e-17)
(0.996717 -0.00673418 -1.68232e-16)
(0.9976 -0.00767637 -1.92915e-16)
(0.998558 -0.00840855 -9.29293e-18)
(0.999534 -0.00893024 -3.87202e-17)
(1.00046 -0.00926679 2.7207e-16)
(1.00132 -0.00949203 2.51774e-16)
(1.00204 -0.00968346 1.23871e-16)
(1.00238 -0.00984888 7.41421e-17)
(1.00257 -0.0108347 4.44905e-16)
(1.00348 -0.0150768 -2.21579e-16)
(0.994788 -0.000436206 -2.89901e-17)
(0.994768 -0.00167481 -7.38531e-17)
(0.994892 -0.00295747 2.82159e-16)
(0.995254 -0.00436708 2.32578e-16)
(0.995829 -0.00566856 -5.71423e-17)
(0.996591 -0.00682868 -8.74513e-17)
(0.997495 -0.00778808 8.90405e-18)
(0.99848 -0.00853241 -2.46019e-16)
(0.999486 -0.0090613 -2.9401e-16)
(1.00044 -0.0093997 8.5959e-17)
(1.00133 -0.00962288 2.25921e-16)
(1.00208 -0.0098102 -1.39746e-16)
(1.00244 -0.00996849 -1.86278e-16)
(1.00264 -0.0109565 -4.36337e-16)
(1.00357 -0.0152384 2.52114e-17)
(0.994634 -0.000440876 6.04973e-17)
(0.994609 -0.00169031 8.66082e-17)
(0.994733 -0.00298845 -2.59124e-16)
(0.995099 -0.00442051 -1.10455e-16)
(0.995685 -0.00574508 1.82829e-16)
(0.996463 -0.00692635 2.61616e-16)
(0.99739 -0.00790353 9.71422e-17)
(0.998402 -0.00866041 1.50336e-16)
(0.999437 -0.00919668 1.9988e-17)
(1.00042 -0.00953688 -3.15195e-16)
(1.00134 -0.00975788 -2.2041e-16)
(1.00212 -0.00994092 8.55784e-17)
(1.0025 -0.010092 -3.03957e-16)
(1.00271 -0.0110817 5.25622e-16)
(1.00366 -0.0154112 1.4664e-16)
(0.99448 -0.000445883 -5.27779e-17)
(0.994448 -0.00170632 -6.73426e-17)
(0.994571 -0.00302056 3.39276e-17)
(0.994942 -0.00447575 -8.31483e-17)
(0.995538 -0.00582423 -2.0026e-16)
(0.996334 -0.00702738 -1.22006e-16)
(0.997285 -0.00802291 8.73579e-17)
(0.998325 -0.00879272 1.03205e-17)
(0.99939 -0.00933653 3.1824e-16)
(1.00041 -0.00967852 3.33692e-16)
(1.00135 -0.00989711 1.59178e-17)
(1.00216 -0.0100756 2.06253e-17)
(1.00256 -0.0102193 6.60094e-16)
(1.00279 -0.0112108 3.53244e-17)
(1.00375 -0.0155817 4.60343e-17)
(0.994323 -0.000450939 1.16919e-17)
(0.994285 -0.00172284 2.33241e-17)
(0.994408 -0.00305382 1.81229e-17)
(0.994783 -0.00453286 1.1026e-16)
(0.99539 -0.00590599 -9.03162e-17)
(0.996204 -0.00713174 -2.33417e-16)
(0.997178 -0.0081462 -1.27443e-16)
(0.998246 -0.00892935 -2.23342e-17)
(0.999343 -0.00948085 -2.24569e-16)
(1.00039 -0.0098246 -2.59893e-16)
(1.00136 -0.0100406 -3.12867e-17)
(1.0022 -0.0102144 -5.99659e-17)
(1.00263 -0.0103505 6.23952e-18)
(1.00287 -0.0113435 -4.25555e-16)
(1.00384 -0.0157634 -5.1171e-17)
(0.994165 -0.000456312 1.18976e-17)
(0.99412 -0.00173986 -3.21606e-17)