/*--------------------------------*- C++ -*----------------------------------*\
  =========                 |
  \\      /  F ield         | OpenFOAM: The Open Source CFD Toolbox
   \\    /   O peration     | Website:  https://openfoam.org
    \\  /    A nd           | Version:  6.0
     \\/     M anipulation  |
\*---------------------------------------------------------------------------*/
FoamFile
{
    version     2.0;
    format      ascii;
    class       volVectorField;
    location    "2.04";
    object      U;
}
// * * * * * * * * * * * * * * * * * * * * * * * * * * * * * * * * * * * * * //

dimensions      [0 1 -1 0 0 0 0];

internalField   nonuniform List<vector> 
13500
(
(1 1.4726e-06 -4.2877e-18)
(1 -2.9827e-06 2.9014e-18)
(1 -6.5438e-06 -1.2482e-17)
(1 -8.9276e-06 -8.6272e-18)
(1 -9.5728e-06 1.6274e-17)
(1 -7.2945e-06 3.0195e-17)
(1 1.4615e-07 2.604e-17)
(0.99998 1.4369e-05 -4.1813e-18)
(0.99991 4.572e-05 1.5434e-17)
(0.99981 7.0837e-05 3.3141e-18)
(0.99571 0.00075649 2.8739e-17)
(1.0191 0.010831 7.8428e-18)
(1 4.3643e-06 2.6564e-18)
(1 -8.3343e-06 -8.8113e-18)
(1 -1.8301e-05 5.9607e-18)
(1 -2.5293e-05 -3.4018e-19)
(1 -2.6398e-05 -4.3398e-19)
(1 -1.9465e-05 -3.6308e-17)
(1 3.4046e-06 -4.4976e-17)
(0.99994 4.5474e-05 -2.3924e-17)
(0.9997 0.00014786 -1.5404e-17)
(0.99987 0.00017271 -1.639e-18)
(0.98615 0.0021904 -1.361e-17)
(1.0538 0.030594 -4.7486e-18)
(1 7.2631e-06 -3.431e-18)
(1 -1.377e-05 1.7506e-17)
(1 -3.022e-05 3.1004e-18)
(1 -4.185e-05 9.947e-18)
(1 -4.353e-05 -3.7528e-18)
(1 -3.1828e-05 2.9083e-17)
(1 6.5651e-06 -6.3315e-18)
(0.9999 7.6422e-05 5.4346e-18)
(0.99947 0.00025764 -1.8687e-17)
(1.0004 0.0002924 2.4898e-17)
(0.97595 0.0032698 -7.1158e-18)
(1.0825 0.045071 1.6673e-18)
(1 1.0186e-05 8.9694e-18)
(1 -1.9397e-05 -1.6972e-17)
(1 -4.2443e-05 -1.4697e-17)
(1 -5.8798e-05 -6.9786e-19)
(1 -6.1173e-05 5.7933e-18)
(1 -4.4597e-05 -8.0737e-19)
(1 9.344e-06 6.238e-17)
(0.99987 0.00010677 9.791e-18)
(0.99921 0.0003736 2.2097e-17)
(1.0013 0.00043567 -9.0185e-18)
(0.9655 0.004019 3.4651e-17)
(1.1039 0.055547 -7.5893e-18)
(1 1.3117e-05 -6.3024e-18)
(1 -2.5073e-05 1.4669e-17)
(1 -5.4707e-05 1.2511e-17)
(1 -7.5822e-05 1.273e-17)
(1.0001 -7.8906e-05 2.8407e-18)
(1.0001 -5.7378e-05 2.1375e-17)
(1 1.2049e-05 -2.7857e-17)
(0.99986 0.00013655 1.9885e-18)
(0.9989 0.00049411 -1.3549e-17)
(1.0027 0.00060559 -2.1517e-18)
(0.9552 0.0044875 -8.9866e-18)
(1.118 0.063158 2.1035e-18)
(1 1.6057e-05 6.378e-18)
(1 -3.0794e-05 -6.081e-18)
(1 -6.7016e-05 3.8209e-18)
(1 -9.2916e-05 -2.5218e-17)
(1.0001 -9.674e-05 -8.314e-20)
(1.0001 -7.0181e-05 -4.2316e-17)
(1 1.4653e-05 1.069e-18)
(0.99985 0.00016567 -1.5963e-17)
(0.99854 0.00061737 5.1593e-18)
(1.0044 0.0008097 -2.1684e-17)
(0.9454 0.0047167 -2.1636e-17)
(1.1255 0.068519 2.0347e-18)
(0.99999 1.9006e-05 -1.0558e-18)
(1 -3.6563e-05 -7.2729e-18)
(1 -7.9374e-05 -3.1053e-18)
(1.0001 -0.00011009 1.9034e-17)
(1.0001 -0.00011468 -2.6311e-17)
(1.0001 -8.3016e-05 1.6191e-17)
(1 1.716e-05 1.8633e-17)
(0.99986 0.00019413 5.616e-18)
(0.99812 0.00074161 1.1534e-17)
(1.0064 0.0010553 1.1674e-17)
(0.93639 0.0047439 9.3213e-18)
(1.1275 0.072061 3.2693e-18)
(0.99999 2.1964e-05 -2.1791e-18)
(1 -4.2381e-05 -1.4307e-18)
(1 -9.1783e-05 -2.6751e-17)
(1.0001 -0.00012734 -9.0888e-18)
(1.0001 -0.00013274 7.3642e-18)
(1.0001 -9.5895e-05 2.6533e-17)
(1 1.9563e-05 1.186e-17)
(0.99988 0.00022198 5.0134e-18)
(0.99763 0.00086496 -7.5389e-18)
(1.0086 0.0013472 1.6353e-17)
(0.9284 0.0046047 7.5281e-18)
(1.1247 0.074144 -1.04e-17)
(0.99999 2.4931e-05 -6.7648e-18)
(1 -4.8252e-05 6.151e-18)
(1 -0.00010425 4.4979e-17)
(1.0001 -0.00014468 -1.0901e-17)
(1.0001 -0.00015091 2.7578e-17)
(1.0001 -0.00010883 -5.2386e-17)
(1 2.1843e-05 -3.9507e-17)
(0.99991 0.00024929 9.7415e-18)
(0.99707 0.00098547 -5.6622e-18)
(1.0111 0.0016878 -9.0188e-18)
(0.9216 0.004333 -1.3909e-17)
(1.1184 0.075074 1.361e-17)
(0.99999 2.791e-05 4.4568e-18)
(1 -5.4178e-05 2.3152e-18)
(1 -0.00011676 -3.81e-17)
(1.0001 -0.00016212 1.5515e-17)
(1.0001 -0.00016922 -1.2026e-17)
(1.0001 -0.00012183 2.2342e-17)
(1 2.3978e-05 1.404e-17)
(0.99996 0.00027617 2.4623e-18)
(0.99645 0.0011012 5.3466e-19)
(1.0137 0.0020777 1.4291e-18)
(0.91607 0.0039603 4.4254e-18)
(1.1094 0.075106 -7.1119e-19)
(0.99999 3.0901e-05 -2.447e-18)
(1 -6.0163e-05 -7.5931e-18)
(1 -0.00012934 9.3394e-18)
(1.0001 -0.00017966 -2.7374e-18)
(1.0001 -0.00018765 1.8565e-18)
(1.0001 -0.00013491 -2.4485e-17)
(1 2.5943e-05 -3.2337e-17)
(1 0.0003028 -3.1277e-17)
(0.99576 0.0012102 1.5827e-17)
(1.0164 0.0025159 1.8563e-18)
(0.91187 0.0035155 -1.1225e-17)
(1.0985 0.074446 -5.8689e-18)
(0.99998 3.3906e-05 3.3775e-18)
(1 -6.6209e-05 2.8681e-18)
(1 -0.00014196 4.501e-18)
(1.0001 -0.00019731 -2.1815e-18)
(1.0001 -0.00020622 -5.5649e-18)
(1.0002 -0.00014808 9.2608e-18)
(1 2.7705e-05 1.8718e-17)
(1.0001 0.00032938 1.9322e-17)
(0.995 0.0013107 1.0169e-17)
(1.019 0.0030001 -2.3439e-17)
(0.90898 0.0030246 1.1781e-19)
(1.0864 0.073263 -6.7991e-18)
(0.99998 3.6928e-05 -3.3769e-18)
(0.99999 -7.2321e-05 5.64e-18)
(1 -0.00015465 8.1606e-18)
(1.0001 -0.00021507 5.6964e-18)
(1.0002 -0.00022493 -5.1615e-18)
(1.0002 -0.00016136 4.5526e-18)
(1 2.9228e-05 4.2684e-18)
(1.0002 0.00035616 -1.7254e-18)
(0.99418 0.0014007 -1.6436e-17)
(1.0217 0.0035271 2.1736e-17)
(0.90736 0.0025106 1.0497e-19)
(1.0737 0.071697 1.4536e-18)
(0.99998 3.9968e-05 5.1352e-18)
(0.99999 -7.8503e-05 -4.4025e-18)
(1 -0.00016739 7.1444e-19)
(1.0001 -0.00023295 -4.7519e-18)
(1.0002 -0.00024378 1.1722e-17)
(1.0002 -0.00017475 5.5546e-18)
(1.0001 3.0468e-05 1.7175e-17)
(1.0004 0.00038345 -6.4077e-18)
(0.99331 0.0014785 -2.008e-19)
(1.0242 0.0040929 5.339e-18)
(0.90694 0.0019935 1.7037e-17)
(1.061 0.06986 9.2711e-19)
(0.99997 4.3028e-05 1.2385e-18)
(0.99999 -8.4759e-05 9.7707e-18)
(1 -0.00018019 1.3646e-17)
(1.0001 -0.00025096 -4.7377e-18)
(1.0002 -0.0002628 8.4882e-18)
(1.0002 -0.00018827 -2.593e-18)
(1.0001 3.1373e-05 -3.0082e-17)
(1.0005 0.00041157 2.0282e-17)
(0.99239 0.0015426 -1.8535e-17)
(1.0266 0.004693 -3.0794e-17)
(0.90762 0.0014905 -3.7402e-18)
(1.0486 0.067844 8.5941e-19)
(0.99997 4.611e-05 -3.1597e-18)
(0.99999 -9.1094e-05 -1.0391e-17)
(1 -0.00019304 -3.2754e-17)
(1.0001 -0.0002691 7.9821e-18)
(1.0002 -0.00028196 -1.2881e-17)
(1.0002 -0.00020194 8.3135e-18)
(1.0001 3.1883e-05 -2.8149e-18)
(1.0007 0.0004409 -1.2209e-17)
(0.99143 0.0015912 4.0698e-18)
(1.0289 0.0053226 1.8389e-17)
(0.90929 0.0010156 -7.849e-18)
(1.0368 0.065723 1.1965e-17)
(0.99996 4.9218e-05 3.3246e-19)
(0.99998 -9.751e-05 7.7716e-18)
(1 -0.00020596 2.2613e-17)
(1.0001 -0.00028739 -1.7976e-18)
(1.0002 -0.0003013 -1.2797e-17)
(1.0002 -0.00021575 -1.5492e-17)
(1.0001 3.1932e-05 1.0751e-17)
(1.0009 0.00047183 7.0014e-18)
(0.99045 0.001623 2.3523e-17)
(1.0309 0.0059768 -2.5749e-18)
(0.91183 0.00058015 1.9503e-18)
(1.0259 0.063556 -4.7734e-18)
(0.99996 5.2352e-05 -1.8653e-18)
(0.99998 -0.00010401 -9.4166e-18)
(1 -0.00021893 -1.0204e-17)
(1.0001 -0.00030583 6.0073e-18)
(1.0002 -0.0003208 -7.1872e-18)
(1.0003 -0.00022973 -1.2426e-17)
(1.0001 3.1441e-05 1.0452e-17)
(1.0011 0.00050479 -4.75e-18)
(0.98944 0.0016366 -2.9111e-17)
(1.0327 0.0066508 -1.443e-17)
(0.9151 0.00019287 8.4639e-18)
(1.016 0.061386 -5.1802e-18)
(0.99996 5.5515e-05 -2.6709e-18)
(0.99998 -0.0001106 -3.559e-18)
(1 -0.00023197 -7.5619e-19)
(1.0001 -0.00032442 -2.6306e-17)
(1.0002 -0.00034048 6.0302e-18)
(1.0003 -0.00024389 5.4112e-18)
(1 3.0325e-05 -1.9862e-17)
(1.0014 0.00054021 -1.6216e-17)
(0.98843 0.001631 4.258e-18)
(1.0343 0.0073398 -1.0846e-18)
(0.91898 -0.00013992 -9.7738e-18)
(1.0072 0.059252 9.796e-19)
(0.99995 5.8707e-05 3.474e-18)
(0.99997 -0.00011729 1.6316e-17)
(1 -0.00024506 1.9472e-17)
(1.0001 -0.00034317 2.4775e-18)
(1.0002 -0.00036035 1.667e-17)
(1.0003 -0.00025824 9.4821e-18)
(1 2.8491e-05 2.8667e-18)
(1.0017 0.00057856 1.7748e-17)
(0.98742 0.001605 2.1155e-17)
(1.0356 0.008039 1.7232e-17)
(0.92334 -0.00041405 7.2939e-18)
(0.99943 0.057178 1.163e-18)
(0.99995 6.1931e-05 -1.6559e-18)
(0.99997 -0.00012407 -3.9147e-18)
(1 -0.00025823 -2.0746e-17)
(1.0001 -0.0003621 -2.3454e-18)
(1.0003 -0.0003804 -1.2635e-17)
(1.0003 -0.00027279 -5.13e-18)
(1 2.5835e-05 -1.8401e-18)
(1.002 0.00062027 -1.6047e-17)
(0.98642 0.001558 -2.0229e-17)
(1.0366 0.0087442 8.8322e-18)
(0.92807 -0.00062725 5.0024e-19)
(0.99284 0.055186 6.6781e-19)
(0.99994 6.5186e-05 4.3892e-18)
(0.99997 -0.00013095 -5.1144e-18)
(1 -0.00027146 -1.9458e-17)
(1.0001 -0.0003812 4.4593e-17)
(1.0003 -0.00040065 1.8328e-17)
(1.0004 -0.00028754 -1.2553e-17)
(1 2.2246e-05 2.4737e-17)
(1.0023 0.00066582 2.1687e-17)
(0.98545 0.0014893 3.2824e-17)
(1.0374 0.0094511 -3.2372e-17)
(0.93305 -0.00077889 -1.3395e-17)
(0.98734 0.053287 1.7628e-19)
(0.99993 6.8474e-05 -3.2127e-18)
(0.99996 -0.00013793 -1.0263e-18)
(1 -0.00028477 3.3219e-17)
(1.0002 -0.00040048 -3.3709e-17)
(1.0003 -0.0004211 -1.7643e-18)
(1.0004 -0.00030251 4.1592e-17)
(0.99998 1.7609e-05 7.6664e-18)
(1.0026 0.00071562 -3.3502e-18)
(0.98452 0.0013986 -2.0357e-17)
(1.0379 0.010156 3.8149e-17)
(0.93819 -0.00086969 -5.674e-18)
(0.98288 0.051491 -2.7999e-19)
(0.99993 7.1794e-05 -1.6378e-18)
(0.99996 -0.00014501 -2.045e-18)
(1 -0.00029815 1.7299e-18)
(1.0002 -0.00041995 3.5069e-17)
(1.0003 -0.00044176 -9.9474e-18)
(1.0004 -0.0003177 -3.0742e-17)
(0.99996 1.18e-05 -1.9546e-17)
(1.003 0.00077008 -3.6071e-18)
(0.98363 0.0012857 6.4373e-18)
(1.0381 0.010854 -3.2183e-17)
(0.94338 -0.00090154 9.504e-18)
(0.97938 0.049803 3.0357e-18)
(0.99992 7.5146e-05 2.7066e-18)
(0.99995 -0.0001522 1.4233e-17)
(1 -0.0003116 -1.2758e-17)
(1.0002 -0.00043962 -3.672e-18)
(1.0003 -0.00046264 -1.9091e-17)
(1.0004 -0.00033313 3.3444e-17)
(0.99993 4.6925e-06 -1.7159e-17)
(1.0033 0.00082957 1.4951e-17)
(0.9828 0.0011509 -1.9839e-18)
(1.038 0.011543 3.0173e-17)
(0.94856 -0.00087725 -9.2735e-18)
(0.97675 0.048225 -5.0655e-18)
(0.99991 7.8529e-05 -5.191e-19)
(0.99995 -0.00015949 -8.186e-18)
(1 -0.00032514 -1.7864e-17)
(1.0002 -0.00045949 -1.0061e-17)
(1.0003 -0.00048374 1.8517e-17)
(1.0005 -0.00034879 -4.2646e-17)
(0.99989 -3.8424e-06 -2.648e-18)
(1.0037 0.00089444 -2.0199e-17)
(0.98203 0.00099443 3.2049e-18)
(1.0378 0.012218 -8.7028e-18)
(0.95365 -0.00080033 9.8709e-18)
(0.97491 0.046754 2.149e-18)
(0.99991 8.1944e-05 2.7194e-18)
(0.99994 -0.00016689 -8.7686e-18)
(1 -0.00033877 -1.7649e-18)
(1.0002 -0.00047957 2.4447e-18)
(1.0003 -0.00050507 5.8607e-18)
(1.0005 -0.0003647 1.2322e-17)
(0.99986 -1.3934e-05 4.3411e-17)
(1.0041 0.00096494 2.4137e-18)
(0.98134 0.00081709 5.2226e-18)
(1.0372 0.012878 9.5922e-18)
(0.95859 -0.00067484 -8.4414e-18)
(0.97376 0.04539 1.6509e-18)
(0.9999 8.5389e-05 -1.5593e-18)
(0.99994 -0.00017441 8.7605e-18)
(1 -0.00035248 2.5393e-17)
(1.0002 -0.00049987 -2.4632e-17)
(1.0003 -0.00052664 -9.1165e-18)
(1.0005 -0.00038085 -2.168e-18)
(0.99981 -2.5712e-05 -1.4309e-17)
(1.0045 0.0010413 1.8724e-18)
(0.98072 0.00061978 -9.0488e-18)
(1.0365 0.013518 -3.5254e-18)
(0.96334 -0.00050523 -2.3838e-19)
(0.9732 0.044127 -2.0172e-18)
(0.99989 8.8865e-05 -1.676e-18)
(0.99993 -0.00018204 5.2436e-18)
(1 -0.00036628 -6.1411e-19)
(1.0002 -0.00052041 8.1679e-18)
(1.0004 -0.00054844 -1.6822e-17)
(1.0005 -0.00039726 2.4532e-17)
(0.99977 -3.93e-05 7.1374e-18)
(1.0049 0.0011236 -1.7863e-17)
(0.98018 0.00040372 -1.1604e-17)
(1.0356 0.014136 -1.3958e-17)
(0.96785 -0.00029623 1.3382e-18)
(0.97314 0.04296 -3.697e-18)
(0.99988 9.237e-05 5.8241e-19)
(0.99992 -0.00018978 -1.2523e-17)
(1 -0.00038018 1.5724e-17)
(1.0002 -0.00054117 2.2591e-17)
(1.0004 -0.0005705 3.2971e-17)
(1.0006 -0.00041392 -1.8016e-17)
(0.99971 -5.4818e-05 -1.7745e-17)
(1.0053 0.0012121 3.6255e-18)
(0.97973 0.00017037 1.0872e-17)
(1.0346 0.014729 1.0926e-17)
(0.9721 -5.2673e-05 6.2277e-18)
(0.97349 0.041884 3.6746e-18)
(0.99988 9.5905e-05 1.1161e-18)
(0.99992 -0.00019764 9.9581e-18)
(1 -0.00039418 -3.6127e-17)
(1.0002 -0.00056219 -3.2732e-18)
(1.0004 -0.00059282 -2.7389e-17)
(1.0006 -0.00043085 -1.1348e-17)
(0.99966 -7.2377e-05 2.4911e-20)
(1.0057 0.0013066 -4.1455e-18)
(0.97936 -7.8604e-05 -2.1424e-17)
(1.0333 0.015295 -1.7445e-17)
(0.97607 0.00022053 -8.5045e-18)
(0.97419 0.040891 -1.8114e-18)
(0.99987 9.947e-05 -7.2341e-19)
(0.99991 -0.00020562 -6.4762e-18)
(1 -0.00040828 2.8425e-17)
(1.0002 -0.00058346 -3.1232e-17)
(1.0004 -0.00061539 -2.0602e-18)
(1.0006 -0.00044806 2.4166e-17)
(0.9996 -9.2078e-05 7.1e-19)
(1.0062 0.001407 3.9542e-18)
(0.97909 -0.00034132 1.8754e-17)
(1.032 0.015832 2.2677e-17)
(0.97974 0.00051851 4.8658e-18)
(0.97514 0.039975 -1.012e-18)
(0.99986 0.00010306 -1.8833e-18)
(0.9999 -0.00021373 -2.3883e-18)
(1 -0.00042248 -1.2601e-17)
(1.0002 -0.00060499 1.5559e-17)
(1.0004 -0.00063824 3.0102e-17)
(1.0007 -0.00046554 -1.068e-17)
(0.99953 -0.00011401 2.2102e-17)
(1.0066 0.0015133 2.9637e-18)
(0.9789 -0.00061572 -2.1248e-18)
(1.0306 0.016338 1.0259e-17)
(0.98312 0.00083651 -5.4363e-18)
(0.97629 0.03913 -7.0548e-19)
(0.99985 0.00010669 4.7099e-19)
(0.99989 -0.00022196 -6.3159e-18)
(1 -0.00043679 4.7173e-18)
(1.0002 -0.0006268 -1.5856e-17)
(1.0004 -0.00066136 -3.184e-17)
(1.0007 -0.00048331 6.73e-18)
(0.99947 -0.00013825 -3.1885e-17)
(1.007 0.0016251 -6.7743e-18)
(0.97879 -0.00089964 6.8922e-18)
(1.0291 0.01681 -3.22e-17)
(0.98619 0.0011699 3.7228e-18)
(0.97759 0.038348 1.9906e-18)
(0.99984 0.00011035 8.2712e-19)
(0.99988 -0.00023033 1.7112e-17)
(1 -0.0004512 7.8986e-18)
(1.0002 -0.0006489 6.4591e-18)
(1.0004 -0.00068476 2.546e-17)
(1.0008 -0.00050139 2.0065e-18)
(0.99939 -0.00016486 2.2018e-17)
(1.0073 0.0017422 4.8596e-18)
(0.97877 -0.0011908 -2.0949e-17)
(1.0276 0.017248 1.1086e-17)
(0.98897 0.0015143 2.5174e-18)
(0.97898 0.037623 2.0647e-18)
(0.99983 0.00011403 -2.8881e-18)
(0.99988 -0.00023883 -5.6325e-18)
(1 -0.00046573 -6.9395e-18)
(1.0002 -0.00067129 1.0607e-17)
(1.0004 -0.00070845 1.23e-17)
(1.0008 -0.00051977 -3.9961e-18)
(0.99932 -0.00019387 -1.8495e-17)
(1.0077 0.001864 2.2123e-17)
(0.97883 -0.0014869 3.8788e-18)
(1.026 0.017651 -3.3491e-18)
(0.99147 0.0018656 1.0411e-17)
(0.98043 0.036949 -1.4353e-18)
(0.99982 0.00011775 5.9345e-18)
(0.99987 -0.00024747 6.7453e-18)
(1 -0.00048036 -7.3767e-18)
(1.0002 -0.000694 -6.6074e-18)
(1.0005 -0.00073242 -1.765e-17)
(1.0009 -0.00053849 -6.8631e-18)
(0.99924 -0.00022532 9.119e-18)
(1.0081 0.0019902 -3.5482e-17)
(0.97897 -0.0017856 9.4967e-18)
(1.0245 0.018018 -3.9591e-18)
(0.9937 0.0022199 -1.1024e-17)
(0.9819 0.03632 4.1697e-18)
(0.99981 0.00012151 -2.6192e-18)
(0.99986 -0.00025626 -1.1851e-17)
(1 -0.00049512 -7.1494e-18)
(1.0002 -0.00071702 -1.2538e-17)
(1.0005 -0.00075669 -5.3892e-18)
(1.0009 -0.00055755 2.0179e-17)
(0.99917 -0.00025921 -8.9583e-18)
(1.0084 0.0021202 3.9471e-17)
(0.97918 -0.0020846 8.9555e-18)
(1.0229 0.018347 1.2014e-17)
(0.99568 0.0025736 4.6466e-18)
(0.98337 0.03573 -6.7629e-18)
(0.99979 0.0001253 -1.3893e-18)
(0.99985 -0.0002652 8.8136e-18)
(1 -0.00050998 1.4166e-17)
(1.0002 -0.00074038 3.3806e-17)
(1.0005 -0.00078126 7.1436e-18)
(1.001 -0.00057699 -1.3841e-17)
(0.99908 -0.00029552 4.323e-18)
(1.0088 0.0022534 -4.2462e-17)
(0.97945 -0.0023816 -1.0863e-17)
(1.0214 0.018639 -6.68e-18)
(0.99742 0.0029234 4.5584e-18)
(0.9848 0.035175 6.8021e-18)
(0.99978 0.00012913 1.0632e-18)
(0.99984 -0.00027429 2.0864e-18)
(1 -0.00052497 -1.3912e-17)
(1.0002 -0.00076408 -5.631e-18)
(1.0005 -0.00080613 9.0705e-18)
(1.001 -0.00059682 1.6566e-17)
(0.999 -0.00033423 1.5033e-17)
(1.0091 0.0023892 4.2036e-18)
(0.97978 -0.0026746 1.2153e-17)
(1.0199 0.018895 -3.0954e-18)
(0.99895 0.0032665 -8.1369e-18)
(0.9862 0.03465 -1.7539e-18)
(0.99977 0.00013299 -4.3542e-20)
(0.99983 -0.00028354 2.3778e-18)
(0.99999 -0.00054008 3.1091e-18)
(1.0002 -0.00078814 -7.3101e-18)
(1.0005 -0.0008313 8.452e-20)
(1.0011 -0.00061707 -1.5021e-17)
(0.99892 -0.00037527 -1.0169e-17)
(1.0094 0.0025269 3.1093e-17)
(0.98016 -0.0029616 -1.8367e-17)
(1.0185 0.019113 1.202e-17)
(1.0003 0.0036004 4.2974e-18)
(0.98755 0.03415 -4.9568e-18)
(0.99976 0.0001369 -3.2933e-18)
(0.99982 -0.00029296 -1.1152e-17)
(0.99999 -0.0005553 7.9379e-18)
(1.0002 -0.00081257 -1.9964e-17)
(1.0005 -0.00085678 -2.2939e-17)
(1.0011 -0.00063779 -2.0749e-17)
(0.99883 -0.00041859 -2.0725e-17)
(1.0097 0.0026658 -3.1843e-18)
(0.98059 -0.0032407 1.6052e-17)
(1.0172 0.019295 -1.0311e-17)
(1.0014 0.0039227 4.2722e-19)
(0.98883 0.033672 4.6696e-18)
(0.99975 0.00014084 6.3564e-18)
(0.99981 -0.00030254 1.1655e-17)
(0.99998 -0.00057066 -1.2802e-17)
(1.0002 -0.00083739 1.6391e-17)
(1.0005 -0.00088257 -2.6902e-18)
(1.0012 -0.000659 1.36e-17)
(0.99874 -0.00046409 2.4911e-17)
(1.01 0.0028051 -2.4118e-17)
(0.98106 -0.0035104 -8.1393e-18)
(1.0159 0.019442 1.0889e-17)
(1.0024 0.0042315 3.7138e-18)
(0.99005 0.033212 -2.2095e-18)
(0.99973 0.00014483 -4.7695e-18)
(0.99979 -0.0003123 -3.4445e-18)
(0.99998 -0.00058614 -2.6767e-18)
(1.0002 -0.00086261 1.8755e-17)
(1.0005 -0.00090866 -5.759e-18)
(1.0012 -0.00068075 -1.7233e-19)
(0.99866 -0.00051168 -4.8747e-18)
(1.0103 0.0029443 1.9319e-17)
(0.98156 -0.0037692 -7.7282e-18)
(1.0147 0.019555 -7.4769e-18)
(1.0033 0.0045255 -1.0979e-17)
(0.99121 0.032768 2.5692e-18)
(0.99972 0.00014886 3.2421e-18)
(0.99978 -0.00032224 -4.3674e-18)
(0.99997 -0.00060175 6.1276e-18)
(1.0002 -0.00088825 -2.8456e-17)
(1.0005 -0.00093506 3.9015e-17)
(1.0013 -0.00070308 5.6345e-18)
(0.99857 -0.00056125 1.9234e-17)
(1.0105 0.0030826 -1.1954e-17)
(0.98209 -0.004016 1.0223e-19)
(1.0136 0.019634 5.5605e-18)
(1.0041 0.0048032 -2.1357e-18)
(0.9923 0.032336 -9.6656e-19)
(0.9997 0.00015294 -9.2748e-19)
(0.99977 -0.00033237 8.5371e-19)
(0.99996 -0.00061749 1.493e-17)
(1.0002 -0.00091431 7.7577e-18)
(1.0005 -0.00096176 -1.9505e-17)
(1.0013 -0.00072604 -1.1036e-17)
(0.99848 -0.00061267 3.3586e-18)
(1.0108 0.0032193 -5.8112e-18)
(0.98264 -0.0042498 1.293e-17)
(1.0126 0.019682 -3.6501e-18)
(1.0047 0.0050638 1.0279e-17)
(0.99333 0.031915 -3.5296e-18)
(0.99969 0.00015706 -1.6144e-18)
(0.99976 -0.00034268 -8.2294e-18)
(0.99995 -0.00063336 -4.4392e-18)
(1.0002 -0.00094082 3.1152e-17)
(1.0006 -0.00098877 -1.7378e-17)
(1.0014 -0.00074969 -9.3476e-19)
(0.99839 -0.00066582 -5.0224e-17)
(1.011 0.0033538 5.7125e-18)
(0.98321 -0.00447 -2.4179e-17)
(1.0116 0.0197 -7.8828e-18)
(1.0053 0.0053066 -1.0278e-17)
(0.9943 0.031503 2.0959e-18)
(0.99967 0.00016123 -6.9696e-19)
(0.99975 -0.0003532 5.0985e-18)
(0.99995 -0.00064937 -1.8325e-18)
(1.0002 -0.00096779 -1.8139e-17)
(1.0006 -0.0010161 2.4973e-17)
(1.0015 -0.00077407 -2.2978e-18)
(0.9983 -0.00072056 2.6604e-17)
(1.0112 0.0034854 -3.5114e-18)
(0.98379 -0.004676 1.174e-17)
(1.0108 0.019689 9.8592e-18)
(1.0058 0.0055313 8.4788e-18)
(0.99521 0.031098 -5.0716e-19)
(0.99966 0.00016545 3.9508e-18)
(0.99973 -0.00036391 -3.0505e-18)
(0.99994 -0.00066552 -6.4108e-18)
(1.0002 -0.00099525 1.9797e-17)
(1.0006 -0.0010437 1.8327e-18)
(1.0015 -0.00079926 2.8488e-17)
(0.99822 -0.00077677 4.5894e-18)
(1.0114 0.0036137 1.6777e-17)
(0.98438 -0.0048676 4.4044e-18)
(1.01 0.019652 -3.19e-18)
(1.0062 0.0057376 1.1033e-18)
(0.99607 0.030698 4.5894e-19)
(0.99964 0.00016972 1.1265e-18)
(0.99972 -0.00037483 1.2472e-18)
(0.99993 -0.00068181 -5.8133e-18)
(1.0002 -0.0010232 -3.9425e-17)
(1.0006 -0.0010716 5.5502e-18)
(1.0016 -0.0008253 2.4707e-18)
(0.99813 -0.00083432 -1.99e-17)
(1.0116 0.0037382 2.3599e-19)
(0.98497 -0.0050447 1.2977e-17)
(1.0093 0.01959 -2.0509e-18)
(1.0066 0.0059257 -5.3707e-18)
(0.99688 0.030303 2.7066e-18)
(0.99963 0.00017404 -4.824e-18)
(0.9997 -0.00038596 5.2864e-18)
(0.99992 -0.00069824 9.5825e-19)
(1.0002 -0.0010517 2.1893e-17)
(1.0006 -0.0010997 -2.5318e-17)
(1.0017 -0.00085226 -1.0913e-17)
(0.99804 -0.00089308 2.0354e-17)
(1.0117 0.0038582 -1.1363e-17)
(0.98556 -0.0052074 -2.0514e-17)
(1.0087 0.019505 -1.0134e-17)
(1.0069 0.0060957 6.8404e-18)
(0.99764 0.029912 9.0281e-19)
(0.99961 0.00017841 -5.1048e-19)
(0.99969 -0.00039731 -5.3197e-18)
(0.99991 -0.00071482 1.0206e-17)
(1.0002 -0.0010806 9.7072e-18)
(1.0006 -0.0011282 3.1271e-17)
(1.0018 -0.0008802 4.1923e-18)
(0.99796 -0.00095295 1.8079e-17)
(1.0119 0.0039736 2.8809e-17)
(0.98615 -0.005356 -9.0572e-19)
(1.0082 0.019398 1.7826e-17)
(1.0073 0.006248 -7.2376e-19)
(0.99837 0.029525 -2.6339e-18)
(0.99959 0.00018283 4.9478e-18)
(0.99967 -0.00040888 -7.745e-18)
(0.9999 -0.00073154 -1.5492e-17)
(1.0002 -0.0011102 -2.58e-18)
(1.0006 -0.0011569 -3.394e-17)
(1.0019 -0.00090918 -1.2474e-17)
(0.99787 -0.0010138 -6.2751e-18)
(1.012 0.0040838 2.1529e-19)
(0.98674 -0.0054911 2.6695e-17)
(1.0077 0.019272 4.1079e-18)
(1.0076 0.0063832 -9.3882e-18)
(0.99906 0.02914 1.5802e-18)
(0.99957 0.00018731 -5.547e-18)
(0.99966 -0.00042068 9.6748e-18)
(0.99989 -0.00074842 8.1092e-18)
(1.0002 -0.0011403 -5.1412e-18)
(1.0006 -0.0011859 2.7294e-17)
(1.0019 -0.00093926 1.4923e-17)
(0.99778 -0.0010756 -4.9605e-18)
(1.0122 0.0041887 -2.9032e-17)
(0.98732 -0.0056131 -9.0782e-19)
(1.0073 0.019129 -1.1739e-17)
(1.0078 0.0065019 1.1114e-17)
(0.99972 0.028757 -2.0698e-18)
(0.99956 0.00019183 3.3331e-18)
(0.99964 -0.00043272 -1.8513e-18)
(0.99988 -0.00076545 1.0738e-17)
(1.0002 -0.001171 -2.1631e-17)
(1.0006 -0.0012152 8.9126e-18)
(1.002 -0.0009705 -5.3609e-18)
(0.9977 -0.0011383 -1.0689e-17)
(1.0123 0.004288 -2.3304e-18)
(0.98789 -0.0057227 -3.2213e-17)
(1.007 0.018969 7.7447e-18)
(1.0081 0.0066047 -1.0177e-17)
(1.0004 0.028376 6.9064e-19)
(0.99954 0.00019642 2.6355e-19)
(0.99963 -0.00044499 -5.824e-18)
(0.99987 -0.00078264 6.0977e-18)
(1.0002 -0.0012023 2.847e-17)
(1.0006 -0.0012447 -2.1228e-17)
(1.0021 -0.0010029 1.7245e-17)
(0.99762 -0.0012017 -6.1805e-18)
(1.0124 0.0043814 5.3965e-18)
(0.98846 -0.0058208 3.827e-17)
(1.0067 0.018795 -1.4377e-17)
(1.0084 0.0066924 1.5556e-17)
(1.001 0.027997 1.9542e-18)
(0.99952 0.00020106 4.7303e-19)
(0.99961 -0.00045752 -1.2054e-18)
(0.99986 -0.00079999 -8.7723e-18)
(1.0002 -0.0012343 -4.2859e-18)
(1.0006 -0.0012745 1.8501e-17)
(1.0022 -0.0010366 1.3728e-19)
(0.99753 -0.0012659 -1.2148e-17)
(1.0125 0.004469 -1.2883e-17)
(0.98901 -0.0059081 -1.6019e-17)
(1.0065 0.018608 -1.3574e-18)
(1.0086 0.0067658 2.8489e-18)
(1.0015 0.02762 2.0497e-19)
(0.9995 0.00020576 -7.6117e-19)
(0.99959 -0.00047029 1.4344e-17)
(0.99984 -0.0008175 -5.851e-18)
(1.0002 -0.0012669 -2.4221e-17)
(1.0006 -0.0013045 8.5294e-18)
(1.0023 -0.0010716 -4.3937e-17)
(0.99745 -0.0013309 6.06e-18)
(1.0126 0.0045505 8.1118e-18)
(0.98956 -0.0059855 7.4414e-19)
(1.0063 0.01841 1.4602e-17)
(1.0089 0.0068256 -9.5111e-19)
(1.0021 0.027244 -5.461e-18)
(0.99948 0.00021051 -2.0095e-19)
(0.99957 -0.00048332 -2.8147e-19)
(0.99983 -0.00083518 7.8766e-18)
(1.0002 -0.0013001 1.4954e-17)
(1.0006 -0.0013347 -3.389e-17)
(1.0024 -0.0011079 1.8979e-18)
(0.99737 -0.0013966 1.0854e-17)
(1.0127 0.0046259 1.2704e-17)
(0.99009 -0.0060538 -1.013e-17)
(1.0062 0.018201 -1.4217e-17)
(1.0092 0.0068728 -1.5433e-17)
(1.0026 0.02687 5.7674e-18)
(0.99946 0.00021532 -1.315e-18)
(0.99955 -0.00049662 4.0089e-19)
(0.99982 -0.00085303 -3.7978e-18)
(1.0002 -0.0013341 -9.9844e-18)
(1.0006 -0.0013652 1.8787e-17)
(1.0025 -0.0011456 2.3584e-17)
(0.9973 -0.0014632 3.1657e-18)
(1.0128 0.0046951 6.4378e-18)
(0.99061 -0.006114 1.6156e-17)
(1.0061 0.017983 2.3928e-18)
(1.0094 0.006908 1.141e-17)
(1.0032 0.026498 -3.5009e-18)
(0.99943 0.00022018 2.4204e-18)
(0.99954 -0.00051018 7.3909e-19)
(0.9998 -0.00087105 -5.4275e-18)
(1.0002 -0.0013688 1.475e-18)
(1.0006 -0.001396 -1.0186e-17)
(1.0026 -0.0011847 -5.657e-18)
(0.99722 -0.0015306 -1.1701e-18)
(1.0129 0.0047582 -2.907e-17)
(0.99113 -0.0061669 3.1708e-18)
(1.006 0.017757 -4.8517e-18)
(1.0097 0.006932 -4.6408e-18)
(1.0037 0.026128 -4.2203e-18)
(0.99941 0.00022511 -4.9396e-18)
(0.99952 -0.00052402 9.6562e-19)
(0.99979 -0.00088925 2.8789e-18)
(1.0002 -0.0014042 -1.8534e-17)
(1.0005 -0.001427 -1.1612e-17)
(1.0027 -0.0012251 -2.6263e-17)
(0.99715 -0.001599 5.6466e-18)
(1.0129 0.0048151 1.1871e-17)
(0.99163 -0.0062134 -3.4005e-17)
(1.006 0.017525 2.2371e-17)
(1.0099 0.0069456 -5.019e-18)
(1.0042 0.025759 2.7216e-18)
(0.99939 0.00023009 4.5343e-18)
(0.9995 -0.00053814 2.1609e-18)
(0.99977 -0.00090762 1.1071e-18)
(1.0002 -0.0014404 5.8782e-18)
(1.0005 -0.0014582 -2.565e-18)
(1.0028 -0.0012669 5.0903e-17)
(0.99708 -0.0016684 2.0274e-17)
(1.013 0.0048659 -1.8463e-17)
(0.99213 -0.0062543 3.2728e-17)
(1.006 0.017287 -8.3468e-18)
(1.0102 0.0069495 -3.3103e-18)
(1.0047 0.025393 -1.358e-18)
(0.99937 0.00023513 1.1122e-18)
(0.99948 -0.00055256 -1.3683e-17)
(0.99976 -0.00092618 2.2159e-18)
(1.0002 -0.0014773 2.6399e-17)
(1.0005 -0.0014897 1.985e-17)
(1.0029 -0.0013101 -8.2156e-19)
(0.99701 -0.0017389 -2.8087e-17)
(1.0131 0.0049105 5.5905e-18)
(0.99261 -0.0062904 -7.3805e-18)
(1.006 0.017043 -1.1552e-17)
(1.0105 0.0069443 8.4213e-18)
(1.0051 0.025028 1.2658e-18)
(0.99934 0.00024022 -4.3991e-18)
(0.99945 -0.00056726 -4.5618e-18)
(0.99974 -0.00094493 -1.2004e-17)
(1.0002 -0.0015151 -2.214e-17)
(1.0005 -0.0015215 -1.9973e-17)
(1.003 -0.0013546 -2.3133e-17)
(0.99695 -0.0018108 5.1865e-18)
(1.0131 0.0049491 4.3462e-17)
(0.99309 -0.0063224 3.2164e-18)
(1.006 0.016795 -1.0091e-18)
(1.0107 0.0069306 -2.9733e-18)
(1.0056 0.024666 -3.4021e-18)
(0.99932 0.00024538 3.2644e-18)
(0.99943 -0.00058227 4.2375e-18)
(0.99972 -0.00096387 1.8498e-17)
(1.0002 -0.0015537 1.5334e-17)
(1.0005 -0.0015535 1.9432e-17)
(1.0031 -0.0014004 -8.5978e-19)
(0.99688 -0.0018841 -2.8898e-17)
(1.0132 0.0049815 -2.3492e-17)
(0.99356 -0.006351 7.9818e-18)
(1.006 0.016544 3.9988e-18)
(1.011 0.0069091 6.7047e-18)
(1.0061 0.024306 2.629e-18)
(0.99929 0.00025059 -2.3054e-18)
(0.99941 -0.00059758 6.6477e-18)
(0.99971 -0.00098301 -1.2239e-17)
(1.0003 -0.0015932 2.2195e-18)
(1.0005 -0.0015859 9.0347e-18)
(1.0032 -0.0014475 -2.2614e-18)
(0.99683 -0.001959 6.4882e-18)
(1.0132 0.0050078 6.5233e-18)
(0.99402 -0.0063768 2.6266e-18)
(1.0061 0.016289 9.8854e-18)
(1.0113 0.0068803 -8.0637e-18)
(1.0065 0.023948 5.3103e-19)
(0.99927 0.00025585 3.4808e-18)
(0.99939 -0.0006132 4.12e-19)
(0.99969 -0.0010024 -5.729e-18)
(1.0003 -0.0016335 8.8345e-19)
(1.0005 -0.0016187 -1.4845e-18)
(1.0033 -0.0014958 -2.234e-17)
(0.99677 -0.0020356 1.8116e-17)
(1.0132 0.005028 2.3152e-17)
(0.99447 -0.0064003 -1.3078e-17)
(1.0062 0.016032 -1.3756e-17)
(1.0115 0.0068446 -2.3575e-18)
(1.0069 0.023592 4.5227e-18)
(0.99924 0.00026117 -2.5286e-18)
(0.99936 -0.00062915 -3.1731e-19)
(0.99967 -0.0010219 7.123e-18)
(1.0003 -0.0016747 -1.6969e-17)
(1.0004 -0.0016518 -1.3421e-17)
(1.0034 -0.0015453 2.8204e-17)
(0.99672 -0.0021142 -2.7705e-18)
(1.0133 0.0050421 -2.4514e-17)
(0.99492 -0.0064221 3.3317e-18)
(1.0063 0.015773 1.2951e-17)
(1.0118 0.0068024 7.991e-18)
(1.0074 0.023239 -1.6308e-18)
(0.99921 0.00026655 2.5127e-19)
(0.99934 -0.00064541 2.3242e-18)
(0.99965 -0.0010417 3.892e-18)
(1.0003 -0.0017168 8.7723e-18)
(1.0004 -0.0016853 2.6306e-17)
(1.0036 -0.0015959 6.5759e-18)
(0.99668 -0.0021949 -2.4124e-17)
(1.0133 0.0050501 2.2972e-18)
(0.99536 -0.0064426 8.5818e-18)
(1.0064 0.015512 -1.1669e-17)
(1.012 0.0067543 -5.4033e-18)
(1.0078 0.022888 -1.8869e-18)
(0.99918 0.00027198 7.1345e-19)
(0.99932 -0.00066201 -4.0426e-19)
(0.99963 -0.0010617 -1.027e-17)
(1.0003 -0.0017599 -1.8865e-19)
(1.0004 -0.0017194 -5.2011e-17)
(1.0037 -0.0016474 8.1082e-18)
(0.99664 -0.0022778 2.3697e-17)
(1.0133 0.005052 -6.6001e-18)
(0.9958 -0.0064622 -8.987e-18)
(1.0065 0.01525 1.9378e-17)
(1.0123 0.0067004 6.4661e-18)
(1.0082 0.022539 4.8907e-18)
(0.99916 0.00027746 7.664e-19)
(0.99929 -0.00067895 -8.3894e-19)
(0.99961 -0.0010819 1.8573e-17)
(1.0003 -0.0018038 4.0462e-18)
(1.0004 -0.0017539 4.6091e-17)
(1.0038 -0.0017 -2.8576e-17)
(0.9966 -0.0023632 -7.9355e-18)
(1.0133 0.0050477 6.2121e-18)
(0.99622 -0.0064813 3.0963e-18)
(1.0066 0.014987 -1.0903e-17)
(1.0126 0.0066413 -1.0465e-18)
(1.0086 0.022193 -3.6064e-18)
(0.99913 0.000283 -2.9951e-18)
(0.99927 -0.00069623 1.4086e-18)
(0.99958 -0.0011023 -1.0916e-17)
(1.0003 -0.0018488 5.3206e-18)
(1.0003 -0.0017891 -1.7513e-17)
(1.0039 -0.0017534 3.8752e-18)
(0.99657 -0.0024512 3.1773e-17)
(1.0133 0.0050373 -2.3251e-17)
(0.99665 -0.0065002 -1.1381e-17)
(1.0067 0.014722 -1.0786e-17)
(1.0128 0.006577 -5.1424e-18)
(1.009 0.021849 -9.9042e-19)
(0.9991 0.00028858 3.7308e-18)
(0.99924 -0.00071386 -3.3454e-18)
(0.99956 -0.001123 -1.0594e-17)
(1.0003 -0.0018947 -8.4842e-18)
(1.0003 -0.0018249 -2.8633e-17)
(1.004 -0.0018076 -1.7974e-17)
(0.99655 -0.002542 -1.9482e-17)
(1.0133 0.0050206 2.1619e-17)
(0.99706 -0.0065192 1.1033e-17)
(1.0068 0.014458 1.6335e-17)
(1.0131 0.0065079 -2.0135e-18)
(1.0094 0.021507 4.7811e-18)
(0.99907 0.00029421 -5.9962e-18)
(0.99921 -0.00073184 5.4204e-18)
(0.99954 -0.001144 2.5939e-17)
(1.0003 -0.0019416 -2.0012e-18)
(1.0003 -0.0018615 3.168e-17)
(1.0042 -0.0018624 1.355e-18)
(0.99653 -0.0026357 -1.8659e-17)
(1.0134 0.0049977 8.4612e-18)
(0.99748 -0.0065384 -3.9789e-18)
(1.0069 0.014193 -3.4204e-18)
(1.0133 0.0064343 6.5323e-18)
(1.0097 0.021168 -3.2332e-18)
(0.99903 0.00029989 4.9139e-18)
(0.99918 -0.00075018 -7.3666e-18)
(0.99951 -0.0011652 -3.0243e-17)
(1.0003 -0.0019895 1.3092e-17)
(1.0002 -0.0018989 -2.257e-17)
(1.0043 -0.001918 2.4847e-17)
(0.99652 -0.0027324 6.082e-18)
(1.0134 0.0049685 -8.0546e-18)
(0.99788 -0.006558 -1.9096e-18)
(1.0071 0.013928 -8.5666e-18)
(1.0136 0.0063562 -1.0651e-17)
(1.0101 0.02083 4.4697e-18)
(0.999 0.00030561 -3.6195e-18)
(0.99916 -0.00076889 2.4496e-18)
(0.99949 -0.0011867 1.8377e-17)
(1.0003 -0.0020383 -1.7258e-17)
(1.0002 -0.0019372 3.6316e-17)
(1.0044 -0.001974 -1.9286e-17)
(0.99651 -0.0028323 3.5455e-18)
(1.0134 0.0049331 -1.273e-17)
(0.99828 -0.0065783 6.233e-18)
(1.0072 0.013662 -1.1987e-18)
(1.0138 0.0062739 4.5587e-18)
(1.0105 0.020495 -1.9874e-18)
(0.99897 0.00031137 4.4393e-18)
(0.99913 -0.00078797 1.9071e-18)
(0.99946 -0.0012085 -1.2252e-17)
(1.0003 -0.0020882 -3.5102e-19)
(1.0002 -0.0019765 -1.6033e-18)
(1.0045 -0.0020306 4.664e-18)
(0.99651 -0.0029355 3.3666e-17)
(1.0134 0.0048913 8.7081e-18)
(0.99868 -0.0065993 -1.8474e-17)
(1.0073 0.013397 -6.2132e-18)
(1.014 0.0061876 -4.2892e-18)
(1.0108 0.020162 2.0889e-18)
(0.99893 0.00031716 -5.0884e-18)
(0.9991 -0.00080743 -7.0673e-18)
(0.99943 -0.0012306 5.1401e-18)
(1.0003 -0.0021391 1.4933e-17)
(1.0001 -0.0020169 -3.2943e-17)
(1.0046 -0.0020876 1.5671e-17)
(0.99652 -0.0030421 -3.2415e-17)
(1.0133 0.0048433 1.0446e-17)