/*--------------------------------*- C++ -*----------------------------------*\
  =========                 |
  \\      /  F ield         | OpenFOAM: The Open Source CFD Toolbox
   \\    /   O peration     | Website:  https://openfoam.org
    \\  /    A nd           | Version:  6.0
     \\/     M anipulation  |
\*---------------------------------------------------------------------------*/
FoamFile
{
    version     2.0;
    format      ascii;
    class       volScalarField;
    location    "8";
    object      p;
}
// * * * * * * * * * * * * * * * * * * * * * * * * * * * * * * * * * * * * * //

dimensions      [0 2 -2 0 0 0 0];

internalField   nonuniform List<scalar> 
62000
(
0.0209157
0.0210123
0.0211146
0.0212214
0.0213343
0.0214521
0.0215767
0.0217069
0.0218447
0.0219886
0.0221412
0.0223005
0.0224699
0.0226466
0.0228346
0.023031
0.0232401
0.0234587
0.0236914
0.0239349
0.0241936
0.0244642
0.0247509
0.02505
0.0253663
0.0256987
0.0260521
0.0264221
0.0268097
0.0272086
0.0276168
0.0280259
0.0284286
0.0288116
0.0291613
0.0294644
0.0297036
0.029856
0.0298966
0.0298033
0.029563
0.0291777
0.0286722
0.0281016
0.027553
0.0271416
0.0269895
0.0271926
0.0277811
0.028663
0.0296428
0.0303916
0.0306037
0.0299919
0.0284645
0.0260566
0.0230348
0.019537
0.016733
0.0147729
0.0208356
0.0209562
0.0210799
0.0212055
0.0213349
0.0214668
0.0216031
0.0217427
0.0218879
0.0220371
0.0221932
0.0223545
0.0225243
0.0227004
0.0228868
0.0230811
0.0232874
0.0235032
0.0237327
0.0239734
0.0242291
0.0244971
0.024781
0.0250781
0.0253928
0.0257262
0.0260819
0.0264573
0.0268515
0.0272602
0.0276786
0.0280999
0.0285158
0.0289157
0.029289
0.0296227
0.0298981
0.0300904
0.0301736
0.0301243
0.0299273
0.0295817
0.0291097
0.0285645
0.0280349
0.027644
0.0275313
0.0278205
0.0285783
0.0297503
0.0311673
0.0324964
0.0333951
0.0334932
0.0325985
0.0306385
0.0278241
0.0241957
0.0216999
0.0185629
0.02074
0.0208704
0.0210046
0.0211411
0.0212814
0.0214242
0.0215711
0.0217209
0.0218756
0.0220337
0.0221979
0.0223665
0.0225428
0.0227248
0.0229166
0.0231158
0.0233268
0.023547
0.0237809
0.0240258
0.0242856
0.0245577
0.0248451
0.0251455
0.0254635
0.025801
0.0261612
0.0265421
0.026942
0.0273559
0.0277775
0.0281988
0.0286108
0.0290049
0.0293725
0.0296999
0.0299645
0.0301366
0.0301854
0.030082
0.0298036
0.0293394
0.0286994
0.0279234
0.0270879
0.026308
0.0257246
0.025477
0.025666
0.0262882
0.0272347
0.0282307
0.0289753
0.0291144
0.0284429
0.0268632
0.0245811
0.021629
0.0203211
0.0175034
0.0207509
0.0208697
0.0209955
0.0211257
0.0212623
0.0214037
0.0215513
0.0217035
0.0218623
0.0220257
0.0221962
0.0223719
0.0225559
0.022746
0.0229461
0.0231538
0.0233734
0.0236026
0.0238454
0.0240994
0.0243684
0.0246495
0.0249458
0.0252551
0.0255823
0.0259292
0.0262998
0.0266927
0.0271061
0.0275348
0.0279715
0.0284073
0.0288337
0.0292449
0.029635
0.0299906
0.0302863
0.030489
0.0305635
0.030476
0.0301964
0.0297035
0.0289932
0.0280884
0.0270471
0.0259678
0.0249818
0.0242316
0.0238402
0.0238479
0.0242076
0.0247157
0.0251388
0.0251761
0.0246486
0.0234766
0.021874
0.0199028
0.0198942
0.0185771
0.0208346
0.0209349
0.021045
0.0211623
0.0212887
0.0214224
0.021565
0.0217148
0.0218734
0.0220388
0.0222132
0.0223945
0.0225856
0.0227841
0.0229935
0.0232113
0.0234418
0.0236823
0.0239369
0.0242032
0.0244847
0.0247787
0.0250883
0.0254116
0.0257536
0.0261164
0.0265046
0.0269181
0.0273558
0.0278129
0.0282825
0.0287559
0.0292262
0.0296911
0.0301487
0.0305876
0.0309824
0.0312986
0.0314998
0.0315502
0.0314151
0.0310656
0.0304859
0.0296827
0.0286945
0.0275988
0.0265089
0.0255573
0.0248725
0.0245188
0.0244939
0.0246517
0.0248235
0.0247658
0.0243378
0.0234853
0.0224216
0.021225
0.0221128
0.0220989
0.0209734
0.0210581
0.0211542
0.0212591
0.0213749
0.0215
0.0216359
0.0217811
0.0219371
0.022102
0.0222778
0.0224625
0.0226586
0.0228637
0.0230812
0.0233086
0.0235497
0.0238019
0.0240693
0.0243492
0.0246453
0.024955
0.0252812
0.0256225
0.0259842
0.0263682
0.0267801
0.0272211
0.0276911
0.0281865
0.0287015
0.0292287
0.0297633
0.0303068
0.0308615
0.0314192
0.0319563
0.0324393
0.032833
0.0331017
0.0332095
0.0331226
0.0328166
0.0322845
0.0315466
0.0306584
0.0297107
0.0288176
0.0280991
0.027627
0.0274248
0.0273868
0.027396
0.0272573
0.0268657
0.0261925
0.0254314
0.0246645
0.0259946
0.0266127
0.0211463
0.0212227
0.0213109
0.0214088
0.0215184
0.0216382
0.0217698
0.0219117
0.0220656
0.0222297
0.0224062
0.022593
0.0227928
0.0230031
0.0232275
0.0234631
0.0237141
0.0239775
0.0242574
0.0245512
0.0248627
0.0251891
0.0255337
0.0258953
0.0262794
0.026688
0.0271271
0.0275991
0.0281053
0.0286434
0.0292091
0.0297965
0.030403
0.0310336
0.0316946
0.0323811
0.0330722
0.033737
0.0343424
0.0348548
0.0352387
0.0354584
0.0354834
0.0352964
0.0349023
0.0343362
0.033666
0.0329836
0.0323937
0.031963
0.0317275
0.0316059
0.03152
0.0313116
0.0309057
0.0302912
0.0296365
0.0290222
0.0304835
0.0312436
0.0213713
0.0214457
0.0215316
0.0216274
0.0217348
0.0218526
0.0219824
0.0221231
0.0222763
0.0224404
0.0226176
0.022806
0.0230084
0.0232226
0.0234518
0.0236937
0.0239522
0.0242249
0.0245154
0.0248217
0.0251473
0.0254897
0.0258525
0.0262346
0.0266415
0.0270753
0.0275425
0.0280464
0.0285892
0.0291701
0.029786
0.0304328
0.0311099
0.031825
0.0325874
0.0333957
0.0342316
0.0350672
0.0358724
0.0366165
0.0372658
0.037784
0.0381374
0.0383015
0.0382686
0.0380569
0.0377133
0.0373076
0.0369258
0.0366241
0.0364413
0.0363099
0.0361788
0.0359162
0.0354696
0.0348445
0.0341799
0.0335663
0.0350054
0.0356765
0.0216287
0.0217072
0.0217972
0.0218966
0.0220074
0.0221283
0.022261
0.0224042
0.0225599
0.0227264
0.0229063
0.0230975
0.0233033
0.0235213
0.0237553
0.0240028
0.024268
0.0245485
0.0248483
0.0251653
0.0255034
0.0258603
0.0262396
0.0266407
0.0270691
0.027527
0.0280211
0.0285555
0.029133
0.029754
0.0304167
0.0311183
0.0318599
0.0326508
0.0335035
0.0344184
0.0353802
0.036364
0.0373427
0.0382887
0.0391708
0.0399536
0.0406018
0.0410863
0.0413902
0.0415182
0.0414992
0.041383
0.0412372
0.0411044
0.0410214
0.0409263
0.0407879
0.040492
0.0400039
0.0393418
0.0386206
0.0379501
0.0393194
0.0398369
0.0219592
0.0220446
0.0221407
0.0222457
0.0223616
0.022487
0.0226238
0.0227708
0.0229298
0.0230995
0.0232821
0.0234761
0.0236846
0.0239056
0.0241427
0.0243941
0.0246639
0.02495
0.0252566
0.025582
0.0259301
0.026299
0.0266925
0.0271102
0.0275577
0.0280373
0.0285559
0.0291181
0.0297272
0.0303845
0.0310893
0.0318397
0.0326378
0.033495
0.0344244
0.0354291
0.0364959
0.0376025
0.038725
0.0398387
0.0409151
0.0419205
0.0428194
0.04358
0.0441793
0.0446111
0.0448901
0.0450488
0.0451379
0.0451864
0.0452263
0.0451975
0.0450817
0.0447774
0.0442627
0.0435696
0.0427917
0.042069
0.043379
0.0437537
0.0223365
0.0224307
0.022535
0.0226479
0.0227709
0.022903
0.0230458
0.0231982
0.023362
0.023536
0.0237226
0.0239203
0.0241323
0.0243568
0.0245976
0.0248529
0.0251271
0.0254183
0.0257309
0.0260635
0.0264201
0.0267991
0.0272045
0.0276365
0.0281003
0.0285988
0.0291391
0.029726
0.0303634
0.031053
0.0317949
0.0325881
0.0334357
0.0343491
0.0353437
0.0364229
0.0375758
0.0387826
0.0400218
0.0412718
0.0425068
0.0436948
0.0448015
0.0457935
0.0466437
0.0473383
0.0478806
0.0482888
0.0485988
0.0488269
0.0489996
0.0490557
0.0489868
0.0486994
0.0481819
0.0474784
0.0466665
0.0459204
0.0472025
0.0474734
0.0227818
0.0228838
0.0229952
0.0231146
0.0232436
0.0233813
0.0235293
0.0236866
0.0238551
0.0240336
0.0242242
0.0244258
0.0246412
0.0248691
0.0251132
0.0253719
0.0256496
0.025945
0.0262623
0.0266005
0.0269641
0.0273514
0.0277669
0.0282108
0.0286886
0.0292033
0.0297624
0.0303713
0.0310337
0.0317521
0.032527
0.0333579
0.0342485
0.0352111
0.0362607
0.0374024
0.0386265
0.0399153
0.0412496
0.0426105
0.0439746
0.0453123
0.0465903
0.0477753
0.0488375
0.0497575
0.0505297
0.0511607
0.0516741
0.052075
0.0523841
0.0525384
0.0525358
0.0522893
0.0517944
0.0511082
0.050294
0.0495633
0.0508527
0.0510595
0.0232365
0.0233476
0.0234679
0.0235959
0.0237334
0.0238791
0.0240348
0.0241994
0.0243747
0.0245595
0.0247562
0.0249633
0.0251842
0.0254172
0.0256662
0.0259298
0.0262126
0.026513
0.0268357
0.0271798
0.02755
0.0279449
0.0283693
0.0288236
0.0293135
0.0298423
0.0304181
0.0310465
0.0317314
0.0324757
0.0332803
0.0341452
0.0350745
0.03608
0.037178
0.0383734
0.039658
0.0410158
0.0424296
0.0438827
0.0453542
0.0468165
0.048238
0.0495857
0.0508285
0.0519429
0.0529166
0.0537469
0.054447
0.055012
0.0554582
0.0557189
0.0557984
0.0556134
0.0551649
0.054521
0.0537343
0.0530513
0.0543755
0.0545519
0.0237424
0.0238613
0.0239891
0.0241242
0.0242684
0.0244207
0.0245827
0.0247534
0.0249346
0.025125
0.025327
0.0255392
0.0257648
0.0260023
0.0262556
0.0265233
0.0268102
0.0271149
0.0274422
0.0277916
0.0281677
0.0285695
0.0290019
0.0294656
0.0299663
0.0305077
0.0310985
0.0317448
0.0324505
0.0332187
0.0340508
0.034947
0.0359115
0.0369571
0.0380986
0.0393421
0.0406802
0.0420984
0.0435812
0.0451138
0.0466777
0.0482473
0.0497924
0.0512811
0.0526814
0.0539673
0.0551209
0.056132
0.0570054
0.0577277
0.058311
0.0586854
0.0588591
0.0587524
0.0583702
0.0577915
0.0570578
0.0564492
0.057828
0.0579971
0.0242537
0.0243806
0.0245162
0.024659
0.0248107
0.0249702
0.0251392
0.0253165
0.025504
0.0257006
0.0259084
0.0261263
0.0263575
0.0266005
0.0268592
0.0271324
0.0274247
0.0277351
0.0280681
0.0284235
0.0288061
0.0292149
0.0296553
0.030128
0.0306388
0.031192
0.031797
0.0324601
0.0331855
0.0339765
0.0348348
0.035761
0.0367596
0.0378422
0.0390251
0.0403136
0.0417014
0.0431752
0.044721
0.0463258
0.0479729
0.0496386
0.0512944
0.0529093
0.0544512
0.0558919
0.0572096
0.0583876
0.0594238
0.0602974
0.0610174
0.0615097
0.0617874
0.0617724
0.0614722
0.0609744
0.0603116
0.0597929
0.0612365
0.0614129
0.0248036
0.024936
0.0250766
0.0252241
0.0253803
0.0255444
0.0257179
0.0259001
0.0260925
0.0262941
0.0265069
0.02673
0.0269661
0.0272141
0.0274776
0.0277557
0.028053
0.0283684
0.0287068
0.0290681
0.029457
0.0298729
0.0303212
0.0308029
0.0313237
0.0318885
0.0325073
0.033187
0.0339317
0.0347452
0.0356293
0.0365849
0.0376164
0.0387364
0.0399593
0.0412918
0.0427276
0.044255
0.0458608
0.047534
0.0492594
0.0510149
0.0527737
0.0545058
0.0561793
0.0577643
0.0592358
0.0605716
0.0617639
0.0627856
0.0636426
0.0642575
0.0646463
0.064733
0.0645264
0.0641222
0.0635432
0.0631246
0.0646376
0.064829
0.0253227
0.0254618
0.0256091
0.0257636
0.0259268
0.0260978
0.0262782
0.026467
0.0266661
0.0268742
0.0270936
0.0273231
0.0275659
0.0278204
0.0280905
0.0283753
0.0286793
0.0290016
0.0293469
0.0297153
0.0301118
0.0305356
0.0309924
0.0314836
0.0320147
0.0325913
0.0332241
0.0339207
0.0346849
0.0355211
0.0364312
0.0374164
0.0384818
0.0396383
0.0409022
0.0422788
0.0437629
0.0453438
0.0470095
0.0487501
0.0505522
0.0523951
0.0542532
0.0560978
0.0578969
0.0596196
0.0612383
0.0627257
0.0640692
0.0652361
0.0662306
0.0669705
0.0674762
0.067672
0.0675673
0.0672633
0.0667745
0.0664579
0.0680388
0.0682481
0.0258723
0.0260164
0.0261686
0.0263278
0.0264954
0.0266709
0.0268558
0.0270493
0.0272531
0.027466
0.0276903
0.0279248
0.0281724
0.028432
0.0287071
0.0289971
0.0293066
0.0296347
0.0299862
0.0303614
0.0307653
0.0311972
0.0316631
0.0321642
0.0327063
0.0332953
0.0339428
0.0346567
0.0354413
0.0363008
0.0372378
0.0382536
0.039353
0.0405483
0.0418537
0.0432757
0.0448094
0.046445
0.0481716
0.0499806
0.0518598
0.0537898
0.0557464
0.0577017
0.0596241
0.0614817
0.0632443
0.0648804
0.0663728
0.0676845
0.0688177
0.0696862
0.0703129
0.0706232
0.0706261
0.0704275
0.0700327
0.0698181
0.0714633
0.0716904
0.0263968
0.0265465
0.0267042
0.0268689
0.0270421
0.027223
0.0274132
0.0276119
0.0278208
0.0280388
0.0282682
0.028508
0.0287612
0.0290265
0.0293079
0.0296044
0.0299208
0.0302561
0.0306152
0.0309984
0.0314108
0.0318519
0.0323277
0.0328397
0.0333936
0.033996
0.0346592
0.0353915
0.0361974
0.0370814
0.0380463
0.0390939
0.0402296
0.041464
0.0428133
0.0442826
0.045868
0.0475607
0.0493507
0.0512303
0.0531888
0.0552077
0.0572639
0.0593303
0.0613756
0.063367
0.065272
0.067055
0.068695
0.0701507
0.0714236
0.0724222
0.0731737
0.0736027
0.0737167
0.0736245
0.0733233
0.0732054
0.0749082
0.0751509
0.0269412
0.0270938
0.027254
0.0274209
0.0275962
0.0277795
0.0279722
0.0281739
0.0283861
0.028608
0.0288415
0.0290858
0.0293435
0.029614
0.0299004
0.0302025
0.0305249
0.0308667
0.0312329
0.031624
0.0320451
0.0324959
0.0329823
0.033506
0.0340728
0.0346897
0.0353697
0.0361216
0.0369501
0.03786
0.0388545
0.0399355
0.0411083
0.0423852
0.0437798
0.0452988
0.0469386
0.0486911
0.0505472
0.0525003
0.0545408
0.0566512
0.0588092
0.0609886
0.0631582
0.0652843
0.0673323
0.0692626
0.0710506
0.0726516
0.0740659
0.075198
0.076077
0.0766276
0.0768552
0.0768705
0.076662
0.0766362
0.0783898
0.0786453
0.0274235
0.0275808
0.027746
0.0279182
0.028099
0.0282879
0.0284864
0.0286938
0.0289118
0.0291395
0.0293791
0.0296295
0.029894
0.0301712
0.0304651
0.0307748
0.0311054
0.0314558
0.031831
0.0322316
0.0326629
0.0331245
0.0336228
0.0341594
0.0347404
0.035373
0.0360711
0.0368441
0.0376967
0.038634
0.0396597
0.0407759
0.0419889
0.0433088
0.0447519
0.0463232
0.0480202
0.0498359
0.0517617
0.053792
0.0559181
0.0581235
0.0603866
0.0626818
0.0649779
0.0672404
0.0694324
0.0715104
0.073447
0.0751936
0.0767508
0.0780176
0.0790273
0.0797023
0.0800446
0.0801657
0.0800461
0.0801041
0.0819002
0.0821645
0.0279221
0.0280826
0.0282508
0.0284258
0.0286095
0.0288013
0.0290029
0.0292137
0.0294354
0.0296671
0.0299109
0.030166
0.0304352
0.0307177
0.031017
0.0313328
0.0316699
0.0320277
0.032411
0.0328208
0.0332624
0.0337354
0.0342463
0.0347969
0.0353931
0.036043
0.0367607
0.0375563
0.0384346
0.0394012
0.0404599
0.0416135
0.0428676
0.0442346
0.045728
0.0473545
0.0491118
0.0509937
0.0529925
0.0551034
0.0573188
0.0596228
0.0619945
0.0644087
0.0668345
0.069236
0.0715745
0.0738024
0.0758896
0.0777836
0.0794861
0.0808909
0.0820336
0.0828351
0.0832934
0.0835197
0.0834862
0.0836216
0.0854528
0.0857226
0.0283715
0.0285362
0.0287087
0.0288882
0.0290764
0.0292728
0.0294789
0.0296942
0.0299205
0.0301569
0.0304057
0.0306661
0.0309412
0.0312299
0.0315363
0.0318597
0.0322053
0.0325722
0.0329654
0.0333859
0.0338391
0.0343249
0.0348496
0.0354155
0.0360285
0.036697
0.0374359
0.0382558
0.0391616
0.0401593
0.041253
0.0424458
0.0437446
0.0451593
0.0467063
0.0483908
0.0502115
0.0521632
0.0542387
0.0564343
0.0587431
0.0611498
0.063634
0.0661712
0.0687299
0.0712736
0.0737608
0.0761406
0.0783797
0.0804227
0.0822716
0.0838163
0.0850952
0.0860255
0.0866002
0.0869287
0.0869761
0.0871801
0.0890377
0.0893088
0.0288289
0.028995
0.0291685
0.0293489
0.029538
0.0297356
0.0299434
0.030161
0.0303902
0.0306302
0.0308829
0.0311479
0.0314279
0.0317223
0.0320346
0.0323648
0.0327178
0.0330931
0.0334957
0.0339269
0.034392
0.0348911
0.0354308
0.0360131
0.0366443
0.037333
0.0380947
0.0389406
0.0398758
0.0409064
0.0420372
0.0432716
0.0446159
0.0460827
0.0476852
0.0494305
0.0513175
0.0533421
0.0554977
0.0577814
0.0601873
0.0627005
0.0653012
0.0679652
0.0706608
0.07335
0.0759895
0.0785242
0.0809184
0.0831126
0.0851107
0.0867985
0.0882168
0.0892783
0.0899704
0.0903999
0.0905246
0.0907903
0.0926671
0.0929362
0.0291999
0.0293699
0.0295479
0.0297332
0.0299277
0.0301308
0.0303443
0.0305677
0.030803
0.0310491
0.0313085
0.0315803
0.0318679
0.0321702
0.0324913
0.0328308
0.033194
0.0335802
0.0339945
0.0344383
0.0349172
0.0354312
0.0359873
0.0365876
0.0372384
0.0379489
0.0387351
0.0396088
0.0405752
0.0416408
0.0428106
0.0440885
0.0454821
0.0470011
0.0486625
0.0504713
0.0524277
0.0545285
0.0567678
0.0591435
0.0616506
0.0642746
0.0669962
0.0697912
0.0726277
0.0754663
0.078261
0.0809538
0.0835052
0.085853
0.0880007
0.0898347
0.0913962
0.0925914
0.0934009
0.0939281
0.0941244
0.0944427
0.0963302
0.0965931
0.0295791
0.0297515
0.0299317
0.0301193
0.030316
0.0305216
0.0307379
0.0309647
0.0312036
0.0314541
0.0317182
0.0319953
0.0322884
0.0325971
0.032925
0.0332722
0.033644
0.03404
0.0344652
0.0349215
0.0354145
0.0359442
0.0365176
0.0371372
0.0378092
0.0385432
0.0393557
0.040259
0.0412584
0.0423609
0.0435719
0.0448954
0.0463388
0.0479148
0.0496363
0.0515113
0.0535396
0.0557195
0.0580455
0.0605166
0.0631284
0.0658671
0.0687134
0.0716439
0.0746252
0.0776177
0.0805714
0.083427
0.0861385
0.088644
0.0909431
0.0929278
0.0946361
0.095968
0.096896
0.0975195
0.0977835
0.0981474
0.100038
0.100292
0.0298885
0.0300647
0.0302491
0.0304411
0.0306424
0.0308529
0.0310742
0.031306
0.0315502
0.0318062
0.0320763
0.0323598
0.0326604
0.0329771
0.0333141
0.0336713
0.0340542
0.0344624
0.034901
0.0353718
0.0358808
0.0364278
0.0370203
0.0376608
0.0383556
0.0391148
0.0399554
0.0408899
0.0419243
0.0430655
0.0443193
0.0456903
0.0471872
0.0488194
0.0506045
0.0525478
0.0546508
0.0569128
0.059329
0.0618991
0.0646199
0.0674775
0.0704532
0.0735235
0.0766545
0.0798049
0.0829218
0.0859438
0.0888188
0.0914847
0.0939359
0.0960752
0.0979349
0.0994063
0.100453
0.101169
0.101494
0.101895
0.103781
0.104021
0.0301944
0.0303715
0.0305564
0.0307491
0.0309512
0.0311631
0.0313865
0.0316214
0.0318694
0.0321303
0.0324059
0.0326959
0.0330033
0.033328
0.0336734
0.0340402
0.0344337
0.0348537
0.0353055
0.0357913
0.0363168
0.0368822
0.037495
0.0381578
0.038877
0.0396631
0.0405333
0.041501
0.042572
0.0437535
0.0450521
0.0464724
0.0480225
0.0497155
0.0515648
0.0535787
0.0557588
0.0581054
0.0606146
0.0632869
0.0661201
0.0691004
0.0722097
0.0754241
0.0787095
0.0820224
0.0853076
0.0885009
0.091544
0.0943747
0.0969807
0.0992794
0.101295
0.102909
0.104075
0.104882
0.105265
0.105695
0.107569
0.107793
0.0303896
0.0305707
0.0307607
0.0309591
0.0311679
0.0313868
0.0316177
0.0318604
0.0321168
0.0323862
0.0326711
0.0329707
0.0332889
0.0336247
0.0339826
0.0343623
0.0347701
0.0352052
0.0356733
0.0361765
0.0367209
0.0373065
0.0379414
0.0386281
0.0393732
0.0401878
0.0410893
0.0420916
0.0432008
0.0444244
0.0457689
0.0472397
0.0488465
0.0505988
0.0525153
0.0546015
0.056861
0.0592952
0.0619007
0.064679
0.0676286
0.0707362
0.0739836
0.0773473
0.0807918
0.0842725
0.0877305
0.0911003
0.0943154
0.097315
0.100077
0.10254
0.104716
0.106476
0.10776
0.108654
0.109088
0.109538
0.111392
0.111594
0.0305914
0.0307751
0.0309676
0.031169
0.0313809
0.0316037
0.0318389
0.0320868
0.0323492
0.0326255
0.0329177
0.0332256
0.0335526
0.0338982
0.0342664
0.0346579
0.0350783
0.0355276
0.0360112
0.0365318
0.0370954
0.0377022
0.0383603
0.0390722
0.0398447
0.0406892
0.0416235
0.042662
0.0438108
0.0450776
0.0464696
0.0479922
0.0496546
0.0514706
0.0534542
0.0556147
0.0579557
0.0604798
0.0631843
0.0660716
0.069141
0.0723796
0.0757696
0.079287
0.0828958
0.0865494
0.0901861
0.093738
0.0971311
0.100305
0.103228
0.105861
0.108201
0.110108
0.111512
0.112491
0.112971
0.113434
0.115259
0.115437
0.0307164
0.0309043
0.031102
0.0313091
0.0315273
0.0317568
0.0319993
0.0322546
0.0325249
0.0328095
0.0331109
0.0334286
0.0337666
0.0341239
0.0345054
0.034911
0.0353472
0.0358133
0.0363152
0.0368554
0.0374402
0.0380698
0.0387526
0.0394912
0.0402925
0.0411683
0.0421368
0.0432127
0.0444022
0.0457135
0.0471536
0.0487286
0.0504498
0.052327
0.0543805
0.0566168
0.0590414
0.0616583
0.0644649
0.0674648
0.0706582
0.0740325
0.0775699
0.0812462
0.0850248
0.0888569
0.0926781
0.0964178
0.0999946
0.103349
0.106436
0.109243
0.111751
0.113807
0.115329
0.116388
0.116907
0.117372
0.119161
0.11931
0.0308495
0.0310386
0.0312373
0.0314457
0.0316658
0.031898
0.0321442
0.0324047
0.0326811
0.0329733
0.0332831
0.0336104
0.0339586
0.0343276
0.0347212
0.0351404
0.0355912
0.0360735
0.036593
0.0371528
0.0377592
0.0384123
0.0391207
0.0398872
0.0407185
0.0416268
0.0426305
0.0437449
0.0449762
0.0463325
0.0478218
0.0494501
0.0512284
0.053171
0.055294
0.0576077
0.0601179
0.0628294
0.0657407
0.0688561
0.0721767
0.0756905
0.0793795
0.0832198
0.0871734
0.0911901
0.0952017
0.0991367
0.102903
0.106446
0.109703
0.11269
0.11537
0.117576
0.119214
0.12035
0.120902
0.121362
0.123106
0.123223
0.0308731
0.031067
0.0312721
0.0314878
0.0317164
0.0319577
0.0322139
0.0324846
0.0327722
0.0330757
0.033398
0.0337382
0.0341007
0.0344844
0.0348943
0.0353304
0.0357997
0.0363014
0.0368417
0.0374235
0.0380535
0.0387317
0.0394672
0.0402626
0.0411251
0.042067
0.0431069
0.0442607
0.0455344
0.0469365
0.0484751
0.0501571
0.0519953
0.0540008
0.0561956
0.058588
0.0611853
0.0639941
0.0670129
0.0702472
0.0736992
0.0773569
0.0812028
0.0852126
0.0893471
0.0935546
0.0977633
0.1019
0.105864
0.1096
0.113034
0.116206
0.119059
0.121415
0.123166
0.124373
0.12495
0.125395
0.127086
0.127165
0.0309301
0.0311271
0.0313354
0.0315548
0.0317876
0.0320338
0.0322956
0.0325731
0.0328684
0.0331807
0.0335124
0.0338633
0.034237
0.0346333
0.0350565
0.0355074
0.0359928
0.0365123
0.037072
0.0376753
0.0383288
0.0390326
0.0397959
0.0406212
0.0415157
0.0424921
0.043569
0.0447626
0.0460793
0.0475275
0.0491162
0.0508524
0.0527487
0.054821
0.0570869
0.0595591
0.062245
0.0651525
0.0682808
0.0716365
0.0752229
0.0790284
0.0830355
0.0872197
0.091541
0.0959454
0.100358
0.104704
0.108874
0.112813
0.116432
0.119794
0.122821
0.125326
0.127189
0.128462
0.129058
0.129478
0.131108
0.131145
0.0309224
0.0311239
0.0313376
0.0315633
0.0318028
0.0320566
0.0323265
0.0326127
0.0329174
0.0332399
0.0335829
0.0339461
0.0343338
0.0347451
0.0351851
0.0356541
0.0361592
0.0366998
0.0372821
0.0379093
0.0385884
0.0393193
0.0401115
0.0409675
0.0418947
0.0429062
0.0440205
0.0452542
0.0466139
0.0481085
0.0497471
0.0515375
0.0534946
0.0556303
0.0579697
0.0605224
0.0632983
0.0663064
0.0695468
0.073027
0.0767518
0.0807098
0.0848834
0.089248
0.0937624
0.0983705
0.102995
0.107556
0.11194
0.11609
0.119902
0.123458
0.126661
0.129311
0.13128
0.132612
0.133218
0.133604
0.135164
0.135153
0.0309172
0.0311195
0.0313345
0.0315625
0.0318057
0.0320649
0.0323418
0.032637
0.0329522
0.033287
0.0336432
0.0340211
0.034424
0.0348519
0.0353089
0.0357962
0.0363207
0.036882
0.0374862
0.0381371
0.0388417
0.0395996
0.0404208
0.0413077
0.0422676
0.0433141
0.0444655
0.0457391
0.0471417
0.0486823
0.0503708
0.0522155
0.0542306
0.0564339
0.0588455
0.0614797
0.0643464
0.0674564
0.0708104
0.0744175
0.0782837
0.0823978
0.0867426
0.0912927
0.0960063
0.100825
0.105668
0.110453
0.115059
0.119429
0.123444
0.127198
0.130577
0.133371
0.135443
0.136829
0.137437
0.137778
0.139259
0.139197
0.0307566
0.0309714
0.0312033
0.0314508
0.0317149
0.0319951
0.0322933
0.0326089
0.0329446
0.0332988
0.0336753
0.0340725
0.0344959
0.0349439
0.0354224
0.0359311
0.0364782
0.0370624
0.0376906
0.0383662
0.0390967
0.0398817
0.0407314
0.0416484
0.0426402
0.0437207
0.0449083
0.0462208
0.0476652
0.049251
0.0509884
0.0528866
0.0549623
0.0572293
0.0597153
0.0624317
0.0653904
0.0686039
0.072074
0.0758112
0.0798229
0.0840982
0.0886197
0.0933618
0.0982813
0.103317
0.108387
0.113403
0.11824
0.122838
0.127063
0.13102
0.134574
0.137509
0.139676
0.141108
0.141708
0.141993
0.143388
0.143267
0.0309482
0.0311572
0.0313803
0.0316178
0.031872
0.0321439
0.0324352
0.0327466
0.0330798
0.0334344
0.0338127
0.0342146
0.0346439
0.0351004
0.0355886
0.0361096
0.0366707
0.0372713
0.0379176
0.0386136
0.0393664
0.0401755
0.0410512
0.0419961
0.0430177
0.0441303
0.0453522
0.0467018
0.0481863
0.0498157
0.0516014
0.0535525
0.0556858
0.0580206
0.0605795
0.0633786
0.0664302
0.0697485
0.0733365
0.0772061
0.0813665
0.085807
0.0905102
0.0954499
0.100582
0.105842
0.111145
0.116401
0.121478
0.126312
0.130756
0.13492
0.13865
0.141722
0.143981
0.145451
0.146036
0.146255
0.147553
0.14737
0.0309046
0.0311241
0.0313616
0.0316158
0.0318883
0.0321784
0.0324882
0.0328168
0.0331673
0.0335378
0.0339323
0.0343491
0.0347942
0.0352659
0.0357704
0.0363076
0.036886
0.037504
0.0381686
0.0388837
0.0396568
0.0404874
0.0413861
0.0423558
0.0434042
0.0445461
0.0457995
0.0471837
0.0487061
0.0503775
0.0522094
0.0542122
0.0564051
0.0588028
0.0614368
0.0643192
0.067465
0.0708903
0.0745989
0.0786049
0.0829187
0.08753
0.092421
0.0975654
0.102917
0.108409
0.113954
0.119457
0.124781
0.129859
0.134529
0.138902
0.142808
0.146014
0.148358
0.149857
0.150415
0.150558
0.15175
0.151498
0.0312902
0.0315021
0.0317275
0.0319672
0.0322241
0.0324995
0.0327954
0.0331126
0.0334531
0.0338164
0.0342048
0.0346183
0.0350612
0.035533
0.0360389
0.0365798
0.0371636
0.0377893
0.0384635
0.0391904
0.0399774
0.0408239
0.0417408
0.0427308
0.043802
0.0449694
0.0462511
0.0476667
0.0492244
0.0509351
0.0528117
0.0548647
0.0571128
0.0595779
0.0622848
0.0652517
0.068493
0.072027
0.0758587
0.080004
0.0844751
0.0892619
0.0943463
0.0997014
0.105279
0.111012
0.116805
0.122563
0.128143
0.133472
0.138376
0.142962
0.147043
0.150381
0.152805
0.154327
0.154849
0.154904
0.155983
0.155658
0.0314265
0.0316525
0.0318951
0.0321533
0.0324289
0.0327214
0.0330332
0.0333636
0.0337159
0.0340885
0.0344854
0.0349055
0.0353549
0.0358323
0.0363441
0.0368908
0.037481
0.0381135
0.0387953
0.0395308
0.0403277
0.0411856
0.0421158
0.0431214
0.0442108
0.0453997
0.0467056
0.0481491
0.0497387
0.0514861
0.0534045
0.0555057
0.0578114
0.0603383
0.0631209
0.066173
0.0695116
0.0731572
0.0771159
0.0814053
0.0860393
0.091008
0.0962929
0.101866
0.107679
0.113659
0.11971
0.12573
0.131572
0.13716
0.142301
0.147103
0.151361
0.154827
0.157323
0.158857
0.159332
0.15929
0.160244
0.159841
0.0320231
0.0322442
0.0324762
0.0327194
0.0329774
0.0332516
0.0335446
0.0338573
0.0341923
0.0345492
0.034931
0.0353378
0.0357746
0.0362412
0.0367431
0.0372819
0.0378657
0.0384941
0.0391736
0.0399093
0.0407087
0.0415715
0.0425092
0.043525
0.0446277
0.0458337
0.0471598
0.0486274
0.0502454
0.0520264
0.0539848
0.0561326
0.0584914
0.0610849
0.0639411
0.0670797
0.0705176
0.0742773
0.0783662
0.0828037
0.0876054
0.0927615
0.0982531
0.104052
0.110106
0.116341
0.122657
0.128948
0.13506
0.140912
0.146298
0.151319
0.155754
0.159345
0.16191
0.163449
0.163867
0.163717
0.164539
0.164055
0.0324016
0.0326293
0.0328675
0.0331166
0.0333805
0.0336591
0.0339561
0.0342711
0.0346082
0.0349656
0.0353479
0.0357536
0.0361895
0.0366542
0.0371544
0.0376909
0.0382726
0.0388986
0.0395761
0.0403104
0.0411095
0.0419735
0.0429143
0.0439359
0.0450476
0.0462663
0.0476087
0.0490966
0.0507398
0.0525517
0.0545473
0.0567398
0.059154
0.0618082
0.0647411
0.0679674
0.0715072
0.0753849
0.0796088
0.0842002
0.0891764
0.0945274
0.100234
0.106266
0.112571
0.11907
0.125659
0.132228
0.138616
0.144738
0.150373
0.155615
0.160227
0.163941
0.166566
0.1681
0.168451
0.168181
0.168864
0.168293
0.0329086
0.0331429
0.0333861
0.0336384
0.0339037
0.0341826
0.0344785
0.0347915
0.035125
0.0354779
0.0358537
0.0362522
0.0366791
0.037134
0.0376234
0.0381488
0.0387196
0.0393354
0.0400036
0.0407302
0.0415233
0.0423834
0.0433229
0.0443461
0.0454626
0.0466904
0.0480454
0.0495503
0.0512158
0.0530558
0.055087
0.0573227
0.0597876
0.0625082
0.0655156
0.0688318
0.0724762
0.0764753
0.0808384
0.0855887
0.090745
0.0962973
0.102225
0.108499
0.115062
0.121834
0.128704
0.135558
0.142229
0.148628
0.154516
0.159981
0.164771
0.168607
0.171289
0.172809
0.173082
0.172685
0.17322
0.172562
0.0333914
0.0336318
0.0338805
0.0341374
0.0344056
0.0346855
0.0349807
0.0352912
0.0356212
0.0359692
0.0363397
0.0367318
0.0371523
0.0376002
0.0380823
0.0386
0.0391627
0.0397702
0.0404298
0.0411482
0.0419339
0.0427878
0.0437231
0.0447447
0.045863
0.0470965
0.048461
0.0499801
0.0516651
0.0535312
0.0555956
0.0578732
0.0603922
0.0631736
0.0662599
0.069668
0.0734204
0.0775456
0.0820539
0.0869699
0.0923142
0.0980762
0.104235
0.110759
0.11759
0.124643
0.131803
0.138951
0.14591
0.152589
0.158733
0.164426
0.169394
0.173348
0.176079
0.177575
0.17776
0.177225
0.177605
0.176857
0.0339664
0.0342075
0.0344558
0.034711
0.0349769
0.0352539
0.0355452
0.0358511
0.036175
0.0365157
0.0368766
0.0372581
0.0376656
0.0380995
0.0385661
0.039068
0.0396146
0.0402065
0.0408512
0.0415561
0.04233
0.0431741
0.044102
0.0451192
0.0462365
0.0474733
0.0488448
0.0503759
0.0520787
0.0539691
0.0560663
0.0583856
0.0609552
0.0638045
0.0669685
0.0704715
0.0743353
0.078591
0.0832493
0.0883369
0.0938756
0.0998546
0.106252
0.113035
0.120142
0.127485
0.134943
0.142392
0.149646
0.156612
0.163016
0.168937
0.174086
0.178157
0.180931
0.182395
0.182483
0.181801
0.182022
0.181183
0.0345106
0.0347487
0.0349927
0.0352427
0.0355022
0.0357717
0.0360547
0.0363515
0.036666
0.0369969
0.0373485
0.0377198
0.0381175
0.0385412
0.0389975
0.0394885
0.0400237
0.0406037
0.0412359
0.0419287
0.0426908
0.0435244
0.0444437
0.0454549
0.0465695
0.0478079
0.0491851
0.050727
0.0524465
0.054361
0.0564903
0.0588515
0.0614767
0.0643889
0.0676362
0.0712369
0.0752166
0.0796084
0.0844237
0.0896906
0.0954324
0.101638
0.108283
0.115335
0.122728
0.130371
0.138137
0.145893
0.153449
0.160703
0.167372
0.173525
0.178854
0.183038
0.185848
0.18727
0.18725
0.186412
0.186468
0.185536
0.035122
0.0353539
0.0355898
0.0358298
0.0360784
0.0363361
0.0366065
0.0368902
0.0371906
0.0375067
0.0378417
0.0381961
0.0385754
0.0389801
0.0394165
0.0398877
0.0404032
0.0409644
0.0415786
0.042255
0.0430024
0.0438234
0.0447325
0.0457366
0.0468477
0.048087
0.0494695
0.0510221
0.0527586
0.0546972
0.05686
0.0592644
0.0619423
0.0649267
0.0682569
0.0719595
0.0760597
0.0805927
0.0855707
0.0910233
0.0969754
0.103415
0.110317
0.117647
0.125335
0.133288
0.141369
0.149442
0.157304
0.164852
0.171788
0.178177
0.183686
0.187983
0.190824
0.192195
0.192058
0.191057
0.190945
0.18992
0.035639
0.0358644
0.0360918
0.0363219
0.0365588
0.0368031
0.037059
0.037327
0.0376116
0.0379114
0.0382307
0.038569
0.038933
0.0393225
0.0397441
0.0402005
0.0407014
0.0412478
0.0418472
0.0425093
0.0432434
0.0440525
0.0449518
0.045949
0.0470568
0.0482974
0.0496856
0.0512496
0.0530038
0.054968
0.0571652
0.0596146
0.0623525
0.0654052
0.0688256
0.0726346
0.0768605
0.0815413
0.0866896
0.0923365
0.0985083
0.105192
0.112361
0.119979
0.127975
0.136246
0.144654
0.15305
0.161224
0.169067
0.176275
0.182902
0.188594
0.192998
0.195862
0.197172
0.196908
0.195737
0.195452
0.194332
0.0361399
0.0363572
0.0365744
0.0367923
0.0370157
0.0372457
0.0374861
0.0377383
0.0380057
0.0382877
0.0385874
0.0389059
0.0392485
0.0396164
0.0400156
0.0404502
0.0409296
0.0414558
0.0420362
0.0426813
0.0434005
0.0441971
0.0450868
0.0460777
0.0471831
0.0484261
0.0498213
0.0513982
0.0531721
0.0551639
0.0573987
0.0598964
0.0626934
0.0658257
0.0693373
0.0732576
0.0776146
0.0824488
0.0877737
0.0936218
0.100021
0.106957
0.114403
0.122319
0.130632
0.139232
0.147975
0.156701
0.165195
0.173335
0.18082
0.187688
0.193563
0.198073
0.200955
0.202195
0.201796
0.200449