/*--------------------------------*- C++ -*----------------------------------*\
  =========                 |
  \\      /  F ield         | OpenFOAM: The Open Source CFD Toolbox
   \\    /   O peration     | Website:  https://openfoam.org
    \\  /    A nd           | Version:  6.0
     \\/     M anipulation  |
\*---------------------------------------------------------------------------*/
FoamFile
{
    version     2.0;
    format      ascii;
    class       surfaceScalarField;
    location    "2";
    object      phi;
}
// * * * * * * * * * * * * * * * * * * * * * * * * * * * * * * * * * * * * * //

dimensions      [0 3 -1 0 0 0 0];

internalField   nonuniform List<scalar> 
123526
(
-0.000110025
2.19736e-05
0.000110387
-0.000109581
2.37629e-05
-0.00010917
2.56988e-05
-0.000108661
2.77933e-05
-0.000108175
3.00595e-05
-0.000107583
3.25119e-05
-0.000107007
3.51659e-05
-0.000106315
3.80386e-05
-0.000105638
4.11475e-05
-0.000104826
4.45128e-05
-0.000104026
4.81568e-05
-0.000103074
5.21027e-05
-0.000102137
5.63756e-05
-0.000101023
6.10011e-05
-9.99123e-05
6.60103e-05
-9.86147e-05
7.14408e-05
-9.73057e-05
7.73248e-05
-9.57936e-05
8.36947e-05
-9.42413e-05
9.06016e-05
-9.24809e-05
9.80949e-05
-9.06507e-05
0.000106211
-8.85848e-05
0.000115015
-8.64333e-05
0.000124574
-8.40087e-05
0.000134929
-8.1469e-05
0.00014618
-7.86302e-05
0.000158389
-7.56276e-05
0.000171636
-7.22981e-05
0.000186034
-6.87449e-05
0.000201647
-6.48195e-05
0.000218627
-6.06e-05
0.000237037
-5.59916e-05
0.000257056
-5.1078e-05
0.000278766
-4.57706e-05
0.000302331
-3.9998e-05
0.000327886
-3.36883e-05
0.000355561
-2.68496e-05
0.00038553
-1.94468e-05
0.000417916
-1.14363e-05
0.000452847
-2.77445e-06
0.000490459
6.5973e-06
0.000530815
1.67682e-05
0.000573941
2.78063e-05
0.000619831
3.97922e-05
0.000668386
5.28178e-05
0.000719386
6.69378e-05
0.000772457
8.22619e-05
0.000827043
9.87234e-05
0.000882347
0.00011644
0.000937313
0.000135134
0.000990601
0.000154959
0.00104045
0.000175634
0.00108486
0.000196877
0.00112118
0.000218856
0.001146
0.000240624
0.00115505
0.000262918
0.00114158
0.00028406
0.00109879
0.000304791
0.00101222
0.000322873
0.000868569
0.000620967
0.000333849
-0.000109208
2.16113e-05
0.00010952
-0.000108789
2.33716e-05
-0.000108406
2.5276e-05
-0.000107922
2.73365e-05
-0.000107466
2.9566e-05
-0.000106904
3.19785e-05
-0.00010636
3.45895e-05
-0.000105705
3.74157e-05
-0.000105066
4.04733e-05
-0.000104302
4.37826e-05
-0.00010355
4.73667e-05
-0.000102658
5.12472e-05
-0.000101773
5.54497e-05
-0.000100728
5.99961e-05
-9.96765e-05
6.49194e-05
-9.84529e-05
7.02599e-05
-9.72063e-05
7.60475e-05
-9.57708e-05
8.23052e-05
-9.42826e-05
8.90947e-05
-9.26026e-05
9.64639e-05
-9.0837e-05
0.000104438
-8.88582e-05
0.000113088
-8.67703e-05
0.000122488
-8.44414e-05
0.000132652
-8.19632e-05
0.000143711
-7.92284e-05
0.000155701
-7.62851e-05
0.00016871
-7.30632e-05
0.000182851
-6.95662e-05
0.000198177
-6.57453e-05
0.000214851
-6.15733e-05
0.000232922
-5.70493e-05
0.000252572
-5.21838e-05
0.000273883
-4.69214e-05
0.00029701
-4.11701e-05
0.000322099
-3.48622e-05
0.000349249
-2.79932e-05
0.000378669
-2.05285e-05
0.000410449
-1.24163e-05
0.000444723
-3.61454e-06
0.000481631
5.93432e-06
0.000521229
1.63037e-05
0.000563527
2.75483e-05
0.000608535
3.97291e-05
0.000656154
5.29102e-05
0.000706168
6.71168e-05
0.000758225
8.24246e-05
0.000811793
9.87443e-05
0.000866125
0.000116179
0.000920216
0.000134453
0.000972787
0.000153753
0.00102219
0.000173824
0.00106641
0.000194429
0.0011029
0.000215776
0.00112811
0.000236913
0.00113772
0.000258665
0.00112509
0.000279212
0.00108294
0.000299505
0.000998226
0.000316905
0.000856565
0.000619015
0.000327367
-0.000107441
2.12561e-05
0.000107746
-0.00010703
2.2988e-05
-0.000106654
2.48617e-05
-0.000106182
2.68891e-05
-0.000105736
2.90829e-05
-0.000105189
3.1457e-05
-0.00010466
3.40266e-05
-0.000104023
3.68082e-05
-0.000103404
3.9817e-05
-0.000102659
4.30732e-05
-0.000101934
4.66001e-05
-0.000101064
5.04188e-05
-0.000100217
5.45537e-05
-9.9201e-05
5.90246e-05
-9.8198e-05
6.38642e-05
-9.7012e-05
6.91179e-05
-9.58232e-05
7.48102e-05
-9.44354e-05
8.09586e-05
-9.30115e-05
8.76311e-05
-9.13886e-05
9.48787e-05
-8.96909e-05
0.000102712
-8.77777e-05
0.000111209
-8.57601e-05
0.000120452
-8.35046e-05
0.000130426
-8.10986e-05
0.000141295
-7.84441e-05
0.000153069
-7.55749e-05
0.000165841
-7.24393e-05
0.00017973
-6.90186e-05
0.00019477
-6.52863e-05
0.000211143
-6.11931e-05
0.000228873
-5.67557e-05
0.000248161
-5.19766e-05
0.000269069
-4.67984e-05
0.000291759
-4.11314e-05
0.00031638
-3.49038e-05
0.000343005
-2.81123e-05
0.000371871
-2.07183e-05
0.000403045
-1.26712e-05
0.000436655
-3.92717e-06
0.000472858
5.56793e-06
0.000511695
1.58811e-05
0.000553174
2.70607e-05
0.000597312
3.91592e-05
0.000644014
5.22306e-05
0.000693068
6.62888e-05
0.000744135
8.1398e-05
0.000796709
9.74625e-05
0.000850059
0.000114582
0.000903226
0.000132486
0.000954953
0.000151373
0.00100359
0.000171005
0.00104722
0.000191148
0.00108306
0.000212036
0.00110793
0.000232698
0.00111692
0.000254011
0.00110451
0.000274075
0.00106198
0.000293952
0.000978484
0.000310863
0.000838244
0.000604911
0.000321635
-0.000105585
2.09069e-05
0.000105878
-0.000105184
2.26104e-05
-0.000104816
2.44537e-05
-0.000104353
2.64484e-05
-0.000103915
2.86069e-05
-0.000103378
3.09432e-05
-0.000102856
3.34722e-05
-0.000102232
3.62102e-05
-0.00010162
3.91714e-05
-0.000100893
4.23759e-05
-0.000100177
4.58478e-05
-9.93296e-05
4.96066e-05
-9.84929e-05
5.36772e-05
-9.75059e-05
5.80753e-05
-9.65176e-05
6.28357e-05
-9.53665e-05
6.80056e-05
-9.4201e-05
7.36077e-05
-9.28545e-05
7.96496e-05
-9.1466e-05
8.62099e-05
-8.98914e-05
9.33382e-05
-8.82421e-05
0.000101034
-8.63852e-05
0.000109381
-8.44271e-05
0.000118469
-8.22361e-05
0.000128257
-7.98985e-05
0.000138937
-7.73168e-05
0.000150499
-7.45235e-05
0.000163037
-7.14687e-05
0.000176678
-6.81303e-05
0.000191434
-6.44863e-05
0.00020751
-6.04809e-05
0.000224903
-5.61361e-05
0.000243833
-5.1453e-05
0.00026434
-4.63705e-05
0.0002866
-4.08038e-05
0.000310752
-3.46788e-05
0.000336855
-2.79902e-05
0.000365171
-2.07003e-05
0.000395739
-1.2757e-05
0.000428688
-4.11741e-06
0.000464186
5.27133e-06
0.000502265
1.54696e-05
0.000542926
2.65216e-05
0.000586198
3.84743e-05
0.000631983
5.13745e-05
0.000680077
6.52317e-05
0.000730154
8.01008e-05
0.000781722
9.58871e-05
0.000834087
0.000112687
0.000886314
0.000130233
0.000937186
0.000148741
0.000985129
0.000167962
0.00102818
0.000187701
0.00106375
0.000208155
0.00108845
0.000228416
0.00109765
0.000249291
0.00108551
0.000268945
0.00104382
0.000288408
0.000961664
0.000304894
0.00082385
0.000597368
0.00031607
-0.000103716
2.05656e-05
0.000104013
-0.00010332
2.22414e-05
-0.000102956
2.40547e-05
-0.0001025
2.6017e-05
-0.000102068
2.81406e-05
-0.000101538
3.04393e-05
-0.000101027
3.29279e-05
-0.000100409
3.56225e-05
-9.98129e-05
3.85361e-05
-9.90921e-05
4.16893e-05
-9.83947e-05
4.5106e-05
-9.75544e-05
4.88055e-05
-9.67417e-05
5.28116e-05
-9.5763e-05
5.71382e-05
-9.4803e-05
6.18196e-05
-9.36643e-05
6.6908e-05
-9.25301e-05
7.2421e-05
-9.12028e-05
7.83605e-05
-8.98486e-05
8.48113e-05
-8.83022e-05
9.18255e-05
-8.66922e-05
9.93875e-05
-8.48742e-05
0.000107591
-8.29631e-05
0.000116529
-8.08226e-05
0.000126136
-7.8542e-05
0.000136633
-7.60224e-05
0.000147987
-7.32967e-05
0.000160296
-7.03152e-05
0.000173692
-6.7055e-05
0.000188169
-6.3494e-05
0.000203955
-5.9577e-05
0.000221014
-5.53268e-05
0.000239592
-5.07381e-05
0.000259707
-4.57602e-05
0.000281536
-4.02999e-05
0.00030523
-3.42873e-05
0.000330815
-2.77168e-05
0.000358585
-2.05495e-05
0.000388554
-1.27342e-05
0.000420847
-4.22793e-06
0.000455647
5.02014e-06
0.000492978
1.50662e-05
0.000532839
2.5951e-05
0.000575268
3.77178e-05
0.000620167
5.041e-05
0.000667339
6.40336e-05
0.000716466
7.86403e-05
0.000767079
9.41362e-05
0.000818495
0.000110617
0.000869813
0.000127822
0.000919824
0.000145971
0.000966956
0.000164821
0.0010093
0.000184182
0.0010441
0.000204241
0.00106826
0.000224117
0.00107681
0.000244586
0.00106474
0.000263847
0.00102283
0.000282916
0.000941807
0.000299055
0.00080547
0.000581796
0.000310481
-0.000101874
2.023e-05
0.000102166
-0.000101485
2.18785e-05
-0.000101127
2.36623e-05
-0.000100678
2.55928e-05
-0.000100253
2.76822e-05
-9.97319e-05
2.9944e-05
-9.92272e-05
3.23929e-05
-9.86206e-05
3.50449e-05
-9.80306e-05
3.79121e-05
-9.73232e-05
4.10148e-05
-9.66323e-05
4.43778e-05
-9.58083e-05
4.80192e-05
-9.5002e-05
5.19626e-05
-9.40423e-05
5.62189e-05
-9.30905e-05
6.08237e-05
-9.19733e-05
6.58318e-05
-9.08515e-05
7.12583e-05
-8.95488e-05
7.70967e-05
-8.82143e-05
8.34407e-05
-8.66966e-05
9.03424e-05
-8.51148e-05
9.77743e-05
-8.33317e-05
0.000105836
-8.14581e-05
0.000114628
-7.93607e-05
0.000124058
-7.71278e-05
0.000134376
-7.46613e-05
0.000145527
-7.19947e-05
0.000157612
-6.90778e-05
0.00017077
-6.58889e-05
0.000184974
-6.24057e-05
0.000200474
-5.85729e-05
0.000217206
-5.44107e-05
0.000235439
-4.99218e-05
0.000255165
-4.5043e-05
0.000276577
-3.96927e-05
0.000299815
-3.37973e-05
0.000324892
-2.73516e-05
0.000352123
-2.03171e-05
0.0003815
-1.2643e-05
0.000413148
-4.28698e-06
0.000447257
4.8006e-06
0.000483848
1.46722e-05
0.000522917
2.53665e-05
0.000564508
3.69244e-05
0.000608525
4.93865e-05
0.00065477
6.27589e-05
0.000702941
7.70894e-05
0.000752579
9.22894e-05
0.00080303
0.000108451
0.000853404
0.000125322
0.000902532
0.000143129
0.000948889
0.000161616
0.000990545
0.000180629
0.00102493
0.000200303
0.00104875
0.00021984
0.00105738
0.0002399
0.00104534
0.000258817
0.00100433
0.000277495
0.000924384
0.000293316
0.000790493
0.000571931
0.000304941
-0.000100056
1.99004e-05
0.000100342
-9.96734e-05
2.15219e-05
-9.93207e-05
2.32766e-05
-9.88798e-05
2.51757e-05
-9.84614e-05
2.72312e-05
-9.7949e-05
2.94566e-05
-9.74521e-05
3.18662e-05
-9.68556e-05
3.44761e-05
-9.62748e-05
3.72972e-05
-9.55785e-05
4.03499e-05
-9.48988e-05
4.36594e-05
-9.40868e-05
4.72432e-05
-9.32942e-05
5.11242e-05
-9.23475e-05
5.53111e-05
-9.14122e-05
5.98397e-05
-9.03097e-05
6.4769e-05
-8.92071e-05
7.01098e-05
-8.79217e-05
7.58495e-05
-8.66093e-05
8.20886e-05
-8.51134e-05
8.88809e-05
-8.35576e-05
9.61855e-05
-8.18027e-05
0.00010411
-7.99613e-05
0.000112758
-7.79004e-05
0.000122017
-7.57085e-05
0.00013216
-7.32884e-05
0.000143114
-7.06735e-05
0.00015498
-6.78149e-05
0.000167905
-6.46904e-05
0.000181842
-6.12781e-05
0.000197063
-5.75239e-05
0.000213475
-5.34497e-05
0.000231368
-4.90493e-05
0.000250719
-4.42738e-05
0.000271715
-3.90308e-05
0.00029451
-3.3253e-05
0.000319087
-2.69346e-05
0.000345789
-2.00375e-05
0.000374585
-1.25116e-05
0.000405597
-4.31513e-06
0.00043903
4.60004e-06
0.000474897
1.42842e-05
0.000513194
2.47744e-05
0.000553976
3.611e-05
0.000597143
4.83306e-05
0.000642506
6.1442e-05
0.00068977
7.54917e-05
0.000738494
9.03942e-05
0.000788033
0.000106242
0.000837533
0.00012279
0.000885821
0.000140266
0.000931384
0.000158414
0.000972335
0.000177087
0.00100592
0.000196404
0.00102917
0.0002156
0.00103719
0.000235282
0.00102519
0.000253854
0.000984034
0.000272167
0.000905157
0.000287709
0.00077265
0.000556212
0.000299403
-9.82698e-05
1.95766e-05
9.85515e-05
-9.78931e-05
2.11717e-05
-9.75469e-05
2.28979e-05
-9.71134e-05
2.47661e-05
-9.67022e-05
2.67884e-05
-9.6199e-05
2.89779e-05
-9.57101e-05
3.1349e-05
-9.51247e-05
3.39174e-05
-9.4552e-05
3.66933e-05
-9.3869e-05
3.9697e-05
-9.31975e-05
4.29541e-05
-9.2401e-05
4.64813e-05
-9.16169e-05
5.03013e-05
-9.0688e-05
5.44198e-05
-8.97623e-05
5.88739e-05
-8.86798e-05
6.37252e-05
-8.75897e-05
6.89821e-05
-8.63267e-05
7.46239e-05
-8.50314e-05
8.07599e-05
-8.35605e-05
8.74437e-05
-8.20276e-05
9.46232e-05
-8.03015e-05
0.000102412
-7.84896e-05
0.00011092
-7.64631e-05
0.00012001
-7.43086e-05
0.000129982
-7.19308e-05
0.000140743
-6.93632e-05
0.000152395
-6.65573e-05
0.000165094
-6.34922e-05
0.000178769
-6.01465e-05
0.000193717
-5.6466e-05
0.000209817
-5.24707e-05
0.00022738
-4.81631e-05
0.000246357
-4.34811e-05
0.000266953
-3.83449e-05
0.000289311
-3.26835e-05
0.000313398
-2.6492e-05
0.000339583
-1.97331e-05
0.000367808
-1.23576e-05
0.000398197
-4.32459e-06
0.000430965
4.41322e-06
0.000466118
1.39042e-05
0.000503653
2.41844e-05
0.000543631
3.52923e-05
0.00058595
4.72664e-05
0.000630423
6.01141e-05
0.000676766
7.38812e-05
0.000724548
8.84887e-05
0.000773147
0.000104026
0.000821716
0.000120256
0.000869123
0.000137409
0.000913888
0.000155217
0.000954107
0.00017357
0.000987233
0.000192532
0.00101008
0.000211417
0.00101812
0.000230715
0.00100609
0.000248979
0.000965804
0.000266927
0.000887883
0.0002822
0.000757717
0.000545424
0.000293944
-9.65155e-05
1.92581e-05
9.679e-05
-9.6146e-05
2.08271e-05
-9.58057e-05
2.2525e-05
-9.53799e-05
2.43628e-05
-9.49757e-05
2.63523e-05
-9.44803e-05
2.85064e-05
-9.39999e-05
3.08394e-05
-9.3423e-05
3.33669e-05
-9.2861e-05
3.6098e-05
-9.21877e-05
3.90531e-05
-9.15293e-05
4.22583e-05
-9.0744e-05
4.57294e-05
-8.99754e-05
4.94888e-05
-8.90594e-05
5.35397e-05
-8.81516e-05
5.79198e-05
-8.70841e-05
6.26944e-05
-8.60136e-05
6.78681e-05
-8.47683e-05
7.34141e-05
-8.34945e-05
7.94484e-05
-8.20447e-05
8.60263e-05
-8.05361e-05
9.30829e-05
-7.88359e-05
0.000100739
-7.70527e-05
0.00010911
-7.50583e-05
0.000118035
-7.2939e-05
0.00012784
-7.06012e-05
0.000138412
-6.80776e-05
0.000149855
-6.53216e-05
0.000162331
-6.23122e-05
0.000175752
-5.9028e-05
0.000190434
-5.54174e-05
0.000206228
-5.15013e-05
0.000223467
-4.72745e-05
0.000242084
-4.26888e-05
0.000262283
-3.76545e-05
0.000284217
-3.21069e-05
0.000307825
-2.60406e-05
0.000333502
-1.9419e-05
0.00036117
-1.2194e-05
0.000390949
-4.3254e-06
0.000423067
4.23304e-06
0.000457526
1.35286e-05
0.000494322
2.35967e-05
0.000533525
3.44749e-05
0.000575033
4.62021e-05
0.000618661
5.87859e-05
0.000664135
7.22732e-05
0.000711038
8.65886e-05
0.00075876
0.000101822
0.000806484
0.000117742
0.000853075
0.00013458
0.000897073
0.000152066
0.000936599
0.000170101
0.000968959
0.000188726
0.000991236
0.000207293
0.00099874
0.000226234
0.000986717
0.000244181
0.000946385
0.00026179
0.000869452
0.000276814
0.000740568
0.00053012
0.000288519
-9.47931e-05
1.89458e-05
9.50657e-05
-9.44292e-05
2.04892e-05
-9.40947e-05
2.21595e-05
-9.36759e-05
2.39675e-05
-9.32789e-05
2.59248e-05
-9.27924e-05
2.80442e-05
-9.23204e-05
3.03399e-05
-9.17543e-05
3.28272e-05
-9.12014e-05
3.55144e-05
-9.05405e-05
3.84219e-05
-8.9892e-05
4.15762e-05
-8.9121e-05
4.49922e-05
-8.83633e-05
4.86922e-05
-8.74639e-05
5.26767e-05
-8.65687e-05
5.69842e-05
-8.55203e-05
6.1683e-05
-8.44651e-05
6.67749e-05
-8.32416e-05
7.22259e-05
-8.19869e-05
7.81601e-05
-8.05616e-05
8.46329e-05
-7.90764e-05
9.15683e-05
-7.74041e-05
9.90932e-05
-7.56493e-05
0.000107329
-7.36874e-05
0.000116092
-7.16028e-05
0.000125732
-6.93037e-05
0.000136119
-6.68229e-05
0.000147358
-6.41145e-05
0.000159617
-6.11582e-05
0.000172789
-5.79341e-05
0.00018721
-5.43899e-05
0.000202706
-5.05458e-05
0.000219629
-4.64041e-05
0.00023789
-4.19053e-05
0.000257708
-3.69716e-05
0.000279224
-3.15349e-05
0.000302364
-2.5591e-05
0.000327546
-1.91044e-05
0.000354668
-1.20277e-05
0.00038385
-4.32195e-06
0.000415331
4.05853e-06
0.000449106
1.31601e-05
0.000485172
2.30175e-05
0.000523605
3.36682e-05
0.000564298
4.51505e-05
0.000607071
5.7474e-05
0.000651658
7.06847e-05
0.00069765
8.47136e-05
0.000744459
9.96463e-05
0.00079127
0.000115262
0.000836989
0.00013179
0.000880179
0.000148949
0.000918966
0.000166678
0.000950848
0.000184969
0.000972723
0.000203239
0.000980193
0.000221817
0.000968117
0.000239474
0.000928606
0.000256742
0.000852566
0.000271522
0.000725891
0.00051902
0.000283187
-9.3105e-05
1.86386e-05
9.33699e-05
-9.27471e-05
2.01568e-05
-9.24191e-05
2.17999e-05
-9.20071e-05
2.35785e-05
-9.16173e-05
2.5504e-05
-9.11385e-05
2.75893e-05
-9.06748e-05
2.98481e-05
-9.01178e-05
3.22959e-05
-8.95748e-05
3.49398e-05
-8.89251e-05
3.78002e-05
-8.82882e-05
4.09042e-05
-8.75307e-05
4.42659e-05
-8.67863e-05
4.79072e-05
-8.59024e-05
5.18261e-05
-8.50228e-05
5.60619e-05
-8.39919e-05
6.06863e-05
-8.29544e-05
6.56976e-05
-8.17507e-05
7.10555e-05
-8.05165e-05
7.68912e-05
-7.9114e-05
8.32611e-05
-7.76528e-05
9.00775e-05
-7.60074e-05
9.74738e-05
-7.42809e-05
0.000105577
-7.2351e-05
0.00011418
-7.03005e-05
0.000123659
-6.80398e-05
0.000133864
-6.56008e-05
0.000144902
-6.29388e-05
0.000156949
-6.00344e-05
0.000169877
-5.68671e-05
0.000184043
-5.33878e-05
0.000199247
-4.96167e-05
0.000215861
-4.555e-05
0.000233779
-4.11408e-05
0.000253218
-3.63028e-05
0.000274329
-3.0974e-05
0.000297012
-2.51498e-05
0.000321709
-1.87953e-05
0.0003483
-1.18646e-05
0.000376899
-4.31938e-06
0.00040776
3.8852e-06
0.000440871
1.27949e-05
0.000476232
2.24443e-05
0.000513923
3.28703e-05
0.000553839
4.41115e-05
0.000595803
5.61786e-05
0.000639555
6.91183e-05
0.000684701
8.28651e-05
0.000730662
9.75049e-05
0.000776655
0.000112824
0.00082158
0.000129047
0.000864027
0.000145896
0.000902142
0.000163318
0.000933283
0.000181289
0.000954597
0.000199251
0.000961581
0.000217492
0.000949509
0.000234847
0.000909996
0.000251797
0.000834879
0.000266343
0.000709388
0.000504197
0.000277911
-9.14473e-05
1.83377e-05
9.17111e-05
-9.10945e-05
1.98312e-05
-9.07723e-05
2.14477e-05
-9.03673e-05
2.31974e-05
-8.99848e-05
2.50919e-05
-8.95151e-05
2.71436e-05
-8.90601e-05
2.93663e-05
-8.85138e-05
3.17752e-05
-8.79804e-05
3.43766e-05
-8.73428e-05
3.71909e-05
-8.67164e-05
4.02456e-05
-8.59725e-05
4.35541e-05
-8.524e-05
4.71377e-05
-8.43719e-05
5.09922e-05
-8.3506e-05
5.51576e-05
-8.24935e-05
5.97085e-05
-8.14725e-05
6.46405e-05
-8.02902e-05
6.99065e-05
-7.9076e-05
7.5645e-05
-7.7698e-05
8.19131e-05
-7.62606e-05
8.86121e-05
-7.46433e-05
9.58816e-05
-7.29452e-05
0.000103854
-7.10478e-05
0.0001123
-6.90314e-05
0.000121621
-6.68088e-05
0.000131648
-6.4411e-05
0.000142489
-6.17949e-05
0.000154326
-5.89408e-05
0.000167015
-5.58306e-05
0.000180933
-5.24135e-05
0.000195852
-4.87102e-05
0.000212164
-4.47231e-05
0.000229742
-4.03954e-05
0.000248816
-3.56521e-05
0.00026953
-3.04283e-05
0.000291766
-2.47205e-05
0.000315991
-1.84949e-05
0.000342061
-1.17066e-05
0.000370091
-4.31824e-06
0.000400344
3.71433e-06
0.000432802
1.24363e-05
0.000467463
2.18821e-05
0.000504417
3.20883e-05
0.000543553
4.30933e-05
0.000584694
5.49097e-05
0.000627592
6.75835e-05
0.000671858
8.10553e-05
0.000716931
9.54063e-05
0.00076203
0.000110433
0.000806097
0.000126357
0.000847739
0.00014289
0.00088511
0.000160015
0.000915763
0.000177665
0.000936677
0.000195338
0.000943586
0.000213233
0.000931474
0.00023031
0.000892721
0.000246938
0.000818473
0.000261253
0.000695065
0.000493072
0.000272735
-8.98262e-05
1.80409e-05
9.00784e-05
-8.9481e-05
1.95101e-05
-8.91656e-05
2.11002e-05
-8.87683e-05
2.28215e-05
-8.83929e-05
2.46853e-05
-8.79309e-05
2.67039e-05
-8.74836e-05
2.88911e-05
-8.69459e-05
3.12617e-05
-8.64217e-05
3.38212e-05
-8.57945e-05
3.65901e-05
-8.51794e-05
3.95962e-05
-8.4448e-05
4.2852e-05
-8.37288e-05
4.63789e-05
-8.28754e-05
5.01701e-05
-8.20251e-05
5.42662e-05
-8.10296e-05
5.8745e-05
-8.00264e-05
6.3599e-05
-7.88637e-05
6.87749e-05
-7.76702e-05
7.44181e-05
-7.63151e-05
8.05866e-05
-7.49019e-05
8.71704e-05
-7.33116e-05
9.43156e-05
-7.1642e-05
0.00010216
-6.97766e-05
0.000110452
-6.77942e-05
0.000119617
-6.56094e-05
0.000129469
-6.32527e-05
0.000140116
-6.06818e-05
0.000151749
-5.7878e-05
0.000164204
-5.4822e-05
0.000177877
-5.14672e-05
0.000192516
-4.78329e-05
0.000208534
-4.39169e-05
0.000225784
-3.96736e-05
0.000244496
-3.50208e-05
0.000264823
-2.98992e-05
0.000286623
-2.43051e-05
0.000310387
-1.82054e-05
0.000335949
-1.15563e-05
0.000363423
-4.32152e-06
0.000393086
3.54255e-06
0.000424911
1.20808e-05
0.000458898
2.13271e-05
0.000495143
3.13181e-05
0.000533535
4.20924e-05
0.0005739
5.36632e-05
0.000615995
6.60777e-05
0.000659445
7.92793e-05
0.000703697
9.33491e-05
0.000748003
0.00010809
0.000791295
0.000123719
0.000832216
0.000139951
0.000868932
0.000156779
0.00089888
0.00017412
0.000919248
0.000191494
0.000925724
0.000209066
0.000913604
0.000225854
0.000874902
0.00024218
0.000801506
0.000256268
0.000679202
0.000478838
0.000267622
-8.82329e-05
1.77506e-05
8.84853e-05
-8.78925e-05
1.91959e-05
-8.75825e-05
2.07603e-05
-8.71918e-05
2.24537e-05
-8.68233e-05
2.42875e-05
-8.63701e-05
2.62737e-05
-8.59315e-05
2.8426e-05
-8.54041e-05
3.0759e-05
-8.48896e-05
3.32775e-05
-8.42738e-05
3.60019e-05
-8.36695e-05
3.89603e-05
-8.29509e-05
4.21647e-05
-8.22442e-05
4.56359e-05
-8.14056e-05
4.93648e-05
-8.057e-05
5.33927e-05
-7.95921e-05
5.78005e-05
-7.86064e-05
6.25776e-05
-7.74645e-05
6.76646e-05
-7.62917e-05
7.32137e-05
-7.49607e-05
7.92839e-05
-7.35719e-05
8.57542e-05
-7.20095e-05
9.27767e-05
-7.03686e-05
0.000100495
-6.85355e-05
0.000108635
-6.65871e-05
0.000117648
-6.44402e-05
0.000127327
-6.21241e-05
0.000137785
-5.95982e-05
0.000149217
-5.68434e-05
0.000161443
-5.38429e-05
0.000174876
-5.05478e-05
0.000189242
-4.69789e-05
0.000204971
-4.31383e-05
0.000221896
-3.89726e-05
0.00024026
-3.44096e-05
0.000260207
-2.93877e-05
0.000281582
-2.39041e-05
0.000304895
-1.79269e-05
0.000329961
-1.14134e-05
0.000356892
-4.32789e-06
0.000385975
3.37226e-06
0.000417176
1.17316e-05
0.000450494
2.07839e-05
0.000486032
3.05654e-05
0.000523676
4.11147e-05
0.000563252
5.24463e-05
0.000604524
6.46071e-05
0.000647125
7.7546e-05
0.000690517
9.13388e-05
0.00073395
0.000105799
0.000776402
0.000121137
0.000816521
0.000137064
0.000852503
0.000153601
0.000881957
0.000170635
0.000901934
0.000187723
0.000908305
0.000204967
0.000896155
0.000221484
0.000858155
0.000237505
0.00078561
0.000251369
0.000665278
0.000467848
0.000262612
-8.66749e-05
1.74647e-05
8.69188e-05
-8.63405e-05
1.88865e-05
-8.60367e-05
2.04255e-05
-8.56523e-05
2.20916e-05
-8.52908e-05
2.38957e-05
-8.48444e-05
2.58501e-05
-8.44135e-05
2.7968e-05
-8.38945e-05
3.02642e-05
-8.33894e-05
3.27422e-05
-8.27844e-05
3.54227e-05
-8.21913e-05
3.83341e-05
-8.14861e-05
4.14877e-05
-8.0792e-05
4.4904e-05
-7.99692e-05
4.85717e-05
-7.91483e-05
5.25327e-05
-7.81881e-05
5.68707e-05
-7.72194e-05
6.15725e-05
-7.60976e-05
6.65724e-05
-7.49449e-05
7.20294e-05
-7.36371e-05
7.80032e-05
-7.22722e-05
8.43622e-05
-7.0737e-05
9.12645e-05
-6.91245e-05
9.88583e-05
-6.73234e-05
0.00010685
-6.54089e-05
0.000115712
-6.32995e-05
0.000125223
-6.1024e-05
0.000135494
-5.85425e-05
0.00014673
-5.5837e-05
0.00015873
-5.28892e-05
0.000171929
-4.96548e-05
0.000186027
-4.61522e-05
0.000201473
-4.23799e-05
0.000218083
-3.82946e-05
0.000236102
-3.38179e-05
0.00025568
-2.88933e-05
0.000276638
-2.35178e-05
0.000299511
-1.76603e-05
0.000324093
-1.12791e-05
0.000350495
-4.33948e-06
0.000379015
3.2006e-06
0.000409612
1.13854e-05
0.000442286
2.02484e-05
0.000477146
2.98254e-05
0.000514077
4.01553e-05
0.000552908
5.12534e-05
0.000593409
6.31671e-05
0.000635221
7.58477e-05
0.000677819
8.9371e-05
0.000720482
0.000103557
0.000762179
0.00011861
0.000801599
0.000134244
0.000836944
0.000150492
0.000865719
0.000167226
0.000885167
0.000184023
0.000891138
0.000200957
0.000878975
0.000217193
0.000841052
0.000232926
0.000769304
0.000246569
0.000650004
0.000454154
0.00025767
-8.51435e-05
1.71853e-05
8.53885e-05
-8.48134e-05
1.85842e-05
-8.45148e-05
2.00983e-05
-8.41369e-05
2.17376e-05
-8.37823e-05
2.35127e-05
-8.33445e-05
2.54358e-05
-8.29224e-05
2.752e-05
-8.24134e-05
2.978e-05
-8.19181e-05
3.22183e-05
-8.13241e-05
3.48558e-05
-8.07419e-05
3.77212e-05
-8.00488e-05
4.0825e-05
-7.93675e-05
4.41875e-05
-7.85587e-05
4.7795e-05
-7.77527e-05
5.16901e-05
-7.68094e-05
5.59595e-05
-7.58582e-05
6.0587e-05
-7.47566e-05
6.5501e-05
-7.36248e-05
7.08671e-05
-7.23405e-05
7.67458e-05
-7.09999e-05
8.29952e-05
-6.94923e-05
8.97791e-05
-6.79081e-05
9.72509e-05
-6.61391e-05
0.000105096
-6.42581e-05
0.000113811
-6.21862e-05
0.000123155
-5.99508e-05
0.000133244
-5.75137e-05
0.000144286
-5.4856e-05
0.000156066
-5.19625e-05
0.000169035
-4.8786e-05
0.00018287
-4.53468e-05
0.000198039
-4.16471e-05
0.000214339
-3.76361e-05
0.000232024
-3.32452e-05
0.000251239
-2.84157e-05
0.000271791
-2.31455e-05
0.000294234
-1.74045e-05
0.000318343
-1.1152e-05
0.000344227
-4.35409e-06
0.000372193
3.0305e-06
0.000402195
1.10456e-05
0.000434229
1.97247e-05
0.000468413
2.91031e-05
0.000504626
3.92193e-05
0.0005427
5.009e-05
0.000582409
6.17622e-05
0.000623403
7.41922e-05
0.000665168
8.74501e-05
0.000706982
0.000101367
0.000747858
0.000116138
0.000786486
0.000131476
0.000821104
0.00014744
0.000849383
0.000163878
0.000868444
0.000180394
0.000874284
0.000197014
0.000862108
0.000212985
0.000824831
0.000228427
0.000753929
0.000241852
0.00063651
0.000443385
0.000252829
-8.36486e-05
1.69091e-05
8.38805e-05
-8.33267e-05
1.82853e-05
-8.30346e-05
1.97749e-05
-8.26644e-05
2.13877e-05
-8.23162e-05
2.31343e-05
-8.18858e-05
2.50266e-05
-8.14703e-05
2.70777e-05
-8.09696e-05
2.9302e-05
-8.04821e-05
3.17014e-05
-7.98985e-05
3.42965e-05
-7.93261e-05
3.71167e-05
-7.86456e-05
4.01715e-05
-7.79758e-05
4.34811e-05
-7.7182e-05
4.70295e-05
-7.63898e-05
5.08601e-05
-7.54636e-05
5.50623e-05
-7.45288e-05
5.96172e-05
-7.34468e-05
6.44471e-05
-7.23345e-05
6.97243e-05
-7.1073e-05
7.551e-05
-6.97559e-05
8.1652e-05
-6.82751e-05
8.83198e-05
-6.67189e-05
9.56719e-05
-6.49814e-05
0.000103373
-6.31338e-05
0.000111944
-6.10989e-05
0.000121125
-5.89034e-05
0.000131035
-5.65099e-05
0.000141887
-5.39005e-05
0.000153449
-5.10584e-05
0.000166194
-4.79412e-05
0.000179771
-4.45661e-05
0.000194669
-4.09323e-05
0.000210667
-3.69986e-05
0.000228021
-3.26903e-05
0.000246884
-2.79539e-05
0.000267037
-2.27868e-05
0.00028906
-1.71597e-05
0.000312707
-1.1033e-05
0.000338086
-4.37354e-06
0.000365516
2.8593e-06
0.000394941
1.07091e-05
0.000426359
1.92087e-05
0.000459894
2.83934e-05
0.000495425
3.83015e-05
0.000532783
4.89502e-05
0.000571749
6.03873e-05
0.000611983
7.25708e-05
0.000652978
8.55707e-05
0.000694046
9.9223e-05
0.000734187
0.000113718
0.00077214
0.000128773
0.000806136
0.000144456
0.000833764
0.000160603
0.000852315
0.000176835
0.000857792
0.000193157
0.000845594
0.000208855
0.000808426
0.000224021
0.000738264
0.000237228
0.000621815
0.000430261
0.000248057
-8.21773e-05
1.66394e-05
8.24111e-05
-8.18594e-05
1.79935e-05
-8.15721e-05
1.94591e-05
-8.1208e-05
2.1046e-05
-8.08663e-05
2.27647e-05
-8.04442e-05
2.46268e-05
-8.00372e-05
2.66454e-05
-7.95462e-05
2.88348e-05
-7.90684e-05
3.1196e-05
-7.84951e-05
3.37497e-05
-7.79336e-05
3.65254e-05
-7.72646e-05
3.95323e-05
-7.66077e-05
4.279e-05
-7.58272e-05
4.62804e-05
-7.50501e-05
5.00474e-05
-7.41401e-05
5.41834e-05
-7.32231e-05
5.86665e-05
-7.21606e-05
6.34135e-05
-7.10691e-05
6.86031e-05
-6.98306e-05
7.42971e-05
-6.85376e-05
8.03332e-05
-6.70836e-05
8.68869e-05
-6.55553e-05
9.41212e-05
-6.38493e-05
0.000101682
-6.20348e-05
0.00011011
-6.00366e-05
0.000119131
-5.78804e-05
0.000128865
-5.55304e-05
0.000139531
-5.29678e-05
0.000150881
-5.01787e-05
0.000163404
-4.71177e-05
0.000176729
-4.38043e-05
0.000191361
-4.02406e-05
0.000207061
-3.63784e-05
0.000224097
-3.21525e-05
0.000242611
-2.75071e-05
0.000262376
-2.24406e-05
0.000283989
-1.69245e-05
0.000307183
-1.09201e-05
0.000332068
-4.39526e-06
0.000358969
2.69009e-06
0.000387826
1.03791e-05
0.000418631
1.87045e-05
0.000451518
2.77009e-05
0.000486362
3.74063e-05
0.000522993
4.7839e-05
0.000561199
5.90464e-05
0.000600644
7.09907e-05
0.000640835
8.37363e-05
0.000681079
9.71305e-05
0.000720421
0.000111353
0.000757592
0.000126122
0.000790875
0.000141527
0.000818008
0.000157388
0.00083618
0.000173345
0.000841506
0.000189365
0.000829305
0.000204803
0.000792735
0.00021969
0.000723407
0.000232686
0.00060876
0.000419765
0.000243384
-8.07396e-05
1.63736e-05
8.09647e-05
-8.04276e-05
1.77058e-05
-8.01461e-05
1.91478e-05
-7.97879e-05
2.07092e-05
-7.94527e-05
2.24004e-05
-7.90369e-05
2.42329e-05
-7.86369e-05
2.62196e-05
-7.81538e-05
2.83746e-05
-7.76845e-05
3.06981e-05
-7.71217e-05
3.3211e-05
-7.65706e-05
3.5943e-05
-7.59148e-05
3.89026e-05
-7.52695e-05
4.21092e-05
-7.45045e-05
4.55426e-05
-7.3741e-05
4.92474e-05
-7.28484e-05
5.33184e-05
-7.19471e-05
5.77315e-05
-7.09042e-05
6.23973e-05
-6.98317e-05
6.75012e-05
-6.86156e-05
7.31054e-05
-6.73455e-05
7.90378e-05
-6.59178e-05
8.54796e-05
-6.4417e-05
9.25985e-05
-6.27419e-05
0.000100021
-6.09601e-05
0.000108309
-5.89981e-05
0.000117173
-5.6881e-05
0.000126734
-5.45735e-05
0.000137217
-5.20582e-05
0.000148359
-4.93191e-05
0.000160665
-4.63159e-05
0.000173743
-4.30646e-05
0.000188114
-3.95647e-05
0.000203526
-3.57769e-05
0.000220244
-3.16304e-05
0.000238421
-2.70742e-05
0.000257805
-2.21063e-05
0.000279015
-1.66989e-05
0.000301769
-1.08143e-05
0.000326171
-4.42099e-06
0.00035256
2.52039e-06
0.000380866
1.00527e-05
0.000411082
1.82081e-05
0.000443348
2.70208e-05
0.000477537
3.65287e-05
0.000513481
4.67505e-05
0.000550972
5.7734e-05
0.000589684
6.94431e-05
0.000629132
8.19415e-05
0.000668652
9.50817e-05
0.000707278
0.000109038
0.000743798
0.000123533
0.000776478
0.000138664
0.00080298
0.000154243
0.00082066
0.000169923
0.000825646
0.000185656
0.000813421
0.000200828
0.000776973
0.000215449
0.000708341
0.000228232
0.000594611
0.000407153
0.000238779
-7.93246e-05
1.61142e-05
7.95521e-05
-7.90165e-05
1.74251e-05
-7.87397e-05
1.88441e-05
-7.83876e-05
2.03805e-05
-7.80589e-05
2.20448e-05
-7.76514e-05
2.38482e-05
-7.726e-05
2.58035e-05
-7.67863e-05
2.79248e-05
-7.63268e-05
3.02115e-05
-7.5774e-05
3.26843e-05
-7.52337e-05
3.53735e-05
-7.45888e-05
3.82868e-05
-7.39564e-05
4.14432e-05
-7.32039e-05
4.48206e-05
-7.24555e-05
4.8464e-05
-7.15782e-05
5.24711e-05
-7.06945e-05
5.68149e-05
-6.96703e-05
6.14008e-05
-6.86182e-05
6.642e-05
-6.74244e-05
7.19358e-05
-6.61777e-05
7.77662e-05
-6.47762e-05
8.40979e-05
-6.33027e-05
9.11034e-05
-6.16583e-05
9.83894e-05
-5.99087e-05
0.000106541
-5.79827e-05
0.000115251
-5.59039e-05
0.000124642
-5.36389e-05
0.000134946
-5.1169e-05
0.000145883
-4.84817e-05
0.000157977
-4.55331e-05
0.000170813
-4.23417e-05
0.000184929
-3.89095e-05
0.000200054
-3.51907e-05
0.000216466
-3.11234e-05
0.00023431
-2.66545e-05
0.000253322
-2.17829e-05
0.00027414
-1.64814e-05
0.000296462
-1.07133e-05
0.000320391
-4.44805e-06
0.000346276
2.35327e-06
0.000374038
9.7331e-06
0.000403668
1.77232e-05
0.000435313
2.63572e-05
0.000468843
3.56726e-05
0.000504091
4.56891e-05
0.000540851
5.64538e-05
0.000578803
6.79346e-05
0.000617475
8.01895e-05
0.000656198
9.30824e-05
0.000694048
0.000106774