/*--------------------------------*- C++ -*----------------------------------*\
  =========                 |
  \\      /  F ield         | OpenFOAM: The Open Source CFD Toolbox
   \\    /   O peration     | Website:  https://openfoam.org
    \\  /    A nd           | Version:  6.0
     \\/     M anipulation  |
\*---------------------------------------------------------------------------*/
FoamFile
{
    version     2.0;
    format      ascii;
    class       volScalarField;
    location    "11";
    object      p;
}
// * * * * * * * * * * * * * * * * * * * * * * * * * * * * * * * * * * * * * //

dimensions      [0 2 -2 0 0 0 0];

internalField   nonuniform List<scalar> 
62000
(
0.0139969
0.0139387
0.0138771
0.0138109
0.0137416
0.0136677
0.0135903
0.0135075
0.0134206
0.0133273
0.0132292
0.0131235
0.0130125
0.0128924
0.0127661
0.012629
0.0124844
0.0123272
0.0121608
0.0119799
0.0117879
0.0115796
0.0113583
0.0111191
0.0108655
0.0105925
0.0103041
0.00999581
0.00967141
0.00932782
0.00896996
0.00859738
0.00821377
0.00781428
0.00739579
0.00695985
0.00650948
0.00604547
0.00556735
0.00507373
0.00456303
0.00403371
0.00348568
0.00292188
0.0023475
0.00177451
0.00121479
0.000678815
0.000179576
-0.000304961
-0.000759998
-0.00125289
-0.00171815
-0.00226261
-0.00279534
-0.00328102
-0.00361468
-0.00352095
-0.00334211
-0.00392005
0.0140607
0.0140034
0.0139418
0.0138744
0.013803
0.0137261
0.0136453
0.0135592
0.0134693
0.0133735
0.0132733
0.013166
0.0130535
0.0129324
0.012805
0.0126674
0.012522
0.0123646
0.0121974
0.0120164
0.0118236
0.0116151
0.0113929
0.0111533
0.0108982
0.0106244
0.0103337
0.0100239
0.00969643
0.00935073
0.00898938
0.00861432
0.00822702
0.00782252
0.00739839
0.00695476
0.00649405
0.00601688
0.00552235
0.00500848
0.00447259
0.00391169
0.00332438
0.00271213
0.00207959
0.00143922
0.000804892
0.000191306
-0.000383189
-0.000937218
-0.00144924
-0.00199731
-0.00250156
-0.00310708
-0.00371776
-0.00429571
-0.00470997
-0.00458601
-0.00440467
-0.0045101
0.0141375
0.0140886
0.0140342
0.0139722
0.0139037
0.0138273
0.0137446
0.0136547
0.0135598
0.0134584
0.0133522
0.0132387
0.0131198
0.0129921
0.012858
0.0127135
0.0125611
0.0123963
0.0122218
0.0120329
0.011832
0.0116149
0.0113836
0.0111342
0.0108685
0.0105833
0.0102798
0.00995617
0.00961307
0.00925085
0.00887096
0.0084769
0.00806776
0.00764066
0.00719014
0.00671715
0.00622336
0.00570906
0.00517339
0.00461403
0.00402742
0.00340956
0.00275786
0.00207286
0.00135903
0.000630144
-9.55965e-05
-0.000796018
-0.00144031
-0.00203314
-0.00253516
-0.00301513
-0.00338896
-0.00382432
-0.00423968
-0.00463169
-0.00491349
-0.00477128
-0.00470008
-0.0052012
0.0142712
0.0142295
0.0141807
0.0141228
0.0140573
0.0139825
0.0138992
0.013807
0.0137083
0.0136025
0.0134915
0.0133732
0.0132493
0.0131167
0.0129775
0.012828
0.0126704
0.0125008
0.0123211
0.0121274
0.0119214
0.0116994
0.0114629
0.0112083
0.0109372
0.0106464
0.0103371
0.0100073
0.00965777
0.00928856
0.00890179
0.0085002
0.00808488
0.00764941
0.00719136
0.00670934
0.00620536
0.00567984
0.00513178
0.00455825
0.00395432
0.00331383
0.0026314
0.0019039
0.00113213
0.00032652
-0.000496202
-0.00131142
-0.0020821
-0.0028
-0.00341023
-0.00396472
-0.00436518
-0.00478656
-0.00516507
-0.0055148
-0.00578156
-0.00568467
-0.00567166
-0.00626865
0.0144432
0.0144039
0.0143552
0.0142969
0.0142306
0.0141547
0.0140693
0.0139737
0.0138703
0.0137596
0.0136438
0.0135212
0.0133935
0.0132573
0.0131148
0.0129619
0.0128012
0.0126283
0.0124455
0.0122487
0.0120399
0.011815
0.011576
0.0113191
0.0110461
0.0107535
0.0104428
0.010112
0.00976164
0.00939234
0.00900563
0.0086059
0.0081919
0.00776138
0.00730795
0.00683234
0.0063362
0.00582031
0.005284
0.00472399
0.00413411
0.00350604
0.00283083
0.00210043
0.0013094
0.000460843
-0.000435259
-0.00135949
-0.00227541
-0.00317053
-0.00397803
-0.00473393
-0.00532223
-0.0059095
-0.0064205
-0.00686076
-0.00716938
-0.00703995
-0.00687832
-0.00714373
0.0146138
0.0145734
0.0145225
0.0144612
0.0143921
0.0143133
0.014224
0.0141229
0.0140125
0.0138939
0.0137701
0.01364
0.0135051
0.0133627
0.0132139
0.0130555
0.0128888
0.0127104
0.0125217
0.0123191
0.0121039
0.0118726
0.0116266
0.0113625
0.0110818
0.0107811
0.010462
0.0101224
0.00976304
0.00938407
0.00898797
0.00857797
0.008156
0.00771577
0.00725553
0.00677404
0.00627404
0.00575731
0.00522426
0.00467231
0.00409531
0.00348403
0.00282737
0.00211332
0.00133077
0.000475122
-0.00045241
-0.00144029
-0.00245862
-0.00349454
-0.0044771
-0.00542715
-0.00620724
-0.00696578
-0.00761552
-0.00813248
-0.00843839
-0.00818991
-0.00778309
-0.00771147
0.0147751
0.0147346
0.0146826
0.0146194
0.014548
0.0144671
0.0143747
0.0142687
0.0141511
0.0140236
0.0138898
0.0137495
0.0136045
0.0134519
0.0132931
0.0131243
0.0129471
0.0127576
0.0125573
0.0123423
0.012114
0.0118687
0.0116076
0.0113272
0.0110289
0.0107094
0.0103698
0.0100082
0.00962486
0.00922041
0.00879638
0.00835764
0.00790338
0.00743246
0.00693918
0.00642522
0.00589353
0.00534716
0.00478835
0.00421633
0.00362647
0.0030107
0.00235813
0.00165565
0.000889204
4.90877e-05
-0.000870272
-0.00186542
-0.00291333
-0.00400571
-0.00507047
-0.00612087
-0.00700424
-0.00785459
-0.00856558
-0.00909154
-0.00934251
-0.0089619
-0.0083571
-0.00808212
0.0149413
0.0149033
0.014853
0.0147905
0.0147197
0.0146393
0.0145466
0.0144384
0.0143159
0.0141809
0.0140374
0.0138864
0.0137297
0.0135653
0.0133939
0.0132124
0.0130214
0.0128177
0.012602
0.0123708
0.0121247
0.0118604
0.0115786
0.0112757
0.0109529
0.0106066
0.0102378
0.0098442
0.00942624
0.00898359
0.00851849
0.00803418
0.00753301
0.00700948
0.00646296
0.00589325
0.00530478
0.004702
0.00408934
0.00346853
0.00283751
0.00219089
0.00152014
0.00081345
5.67481e-05
-0.000761762
-0.00165186
-0.00261566
-0.00363751
-0.00471333
-0.0057758
-0.00683326
-0.00772436
-0.00857056
-0.00926421
-0.00974229
-0.0099193
-0.00944183
-0.00872281
-0.00834652
0.0151342
0.0151011
0.0150543
0.0149945
0.0149259
0.014848
0.0147577
0.0146507
0.014527
0.0143883
0.0142388
0.0140799
0.0139141
0.0137394
0.013557
0.0133631
0.0131589
0.0129404
0.0127089
0.0124604
0.0121956
0.011911
0.011607
0.0112801
0.010931
0.010556
0.0101556
0.00972746
0.00927128
0.00878703
0.00827561
0.00774154
0.00718394
0.00660244
0.00599211
0.00535562
0.00469752
0.00402327
0.00333937
0.00265013
0.00195637
0.00125613
0.000544506
-0.00018716
-0.000950673
-0.00175713
-0.00261744
-0.00353728
-0.00450579
-0.00552473
-0.00653139
-0.00753597
-0.00837447
-0.00916534
-0.00979912
-0.0102094
-0.0103207
-0.00979056
-0.00901893
-0.00858777
0.0153558
0.0153279
0.015286
0.0152303
0.0151657
0.0150922
0.0150065
0.0149037
0.0147825
0.0146441
0.0144926
0.01433
0.0141587
0.0139777
0.0137875
0.0135853
0.0133711
0.013142
0.012898
0.0126359
0.0123557
0.0120542
0.0117314
0.0113838
0.0110117
0.0106113
0.0101828
0.00972352
0.00923307
0.0087104
0.00815687
0.007575
0.00696678
0.00632702
0.00565559
0.00495289
0.00422447
0.00347654
0.0027172
0.001953
0.00118735
0.000421687
-0.000344987
-0.00111758
-0.00190451
-0.00271461
-0.00355812
-0.00444178
-0.00535873
-0.00631412
-0.0072526
-0.00818575
-0.00895096
-0.00966471
-0.0102283
-0.0105732
-0.0106387
-0.0100881
-0.00929171
-0.00881732
0.0156081
0.0155854
0.0155483
0.0154972
0.0154371
0.0153688
0.0152892
0.0151927
0.0150772
0.0149432
0.0147943
0.0146326
0.014461
0.0142784
0.0140856
0.0138794
0.0136602
0.0134246
0.013173
0.0129018
0.0126112
0.0122977
0.0119614
0.0115986
0.0112094
0.01079
0.0103402
0.00985704
0.00933959
0.00878701
0.0081992
0.00757979
0.00692717
0.00624105
0.00551651
0.00475637
0.00396564
0.0031507
0.00232065
0.00148362
0.000645009
-0.000190879
-0.00102144
-0.00184776
-0.00267445
-0.00350713
-0.00435382
-0.00522112
-0.00610358
-0.00700998
-0.00788978
-0.0087591
-0.00945803
-0.0101065
-0.0106122
-0.0109106
-0.0109512
-0.0103996
-0.00958765
-0.00906751
0.0158936
0.0158744
0.0158416
0.0157951
0.0157395
0.0156763
0.0156027
0.0155129
0.015404
0.015276
0.0151319
0.0149741
0.0148051
0.0146246
0.0144328
0.0142274
0.0140077
0.0137711
0.0135171
0.0132428
0.0129475
0.0126284
0.0122848
0.0119134
0.0115141
0.0110829
0.0106195
0.0101207
0.00958544
0.00901198
0.00840067
0.00775305
0.00707025
0.00634677
0.00558224
0.00477671
0.00393557
0.00306505
0.0021747
0.00127358
0.000368364
-0.000534553
-0.0014297
-0.00231496
-0.00319147
-0.00406159
-0.00493079
-0.00580414
-0.00667717
-0.00755961
-0.00840659
-0.00923575
-0.00989151
-0.0104935
-0.0109624
-0.0112343
-0.0112682
-0.010724
-0.00989478
-0.00932154
0.0162205
0.0162038
0.0161735
0.0161298
0.0160771
0.0160173
0.0159481
0.015864
0.0157613
0.0156395
0.0155014
0.015349
0.0151851
0.0150089
0.0148214
0.0146194
0.0144029
0.0141684
0.0139162
0.0136425
0.0133472
0.0130271
0.0126817
0.0123075
0.0119043
0.011468
0.0109981
0.0104913
0.00994614
0.00936107
0.00873509
0.00807088
0.00736585
0.00661932
0.00582579
0.00498739
0.00410845
0.00319462
0.00225537
0.00130007
0.000335985
-0.000629153
-0.00158779
-0.00253521
-0.00346952
-0.00438998
-0.00529908
-0.00620016
-0.00708792
-0.00797312
-0.00881342
-0.00962961
-0.0102683
-0.010852
-0.0113078
-0.0115746
-0.0116154
-0.0110827
-0.0102331
-0.00960169
0.0165769
0.0165605
0.0165319
0.0164905
0.0164402
0.0163832
0.0163175
0.0162378
0.0161402
0.0160239
0.0158913
0.0157445
0.015586
0.0154155
0.0152333
0.0150372
0.0148261
0.0145972
0.01435
0.0140811
0.0137899
0.0134733
0.0131306
0.0127583
0.0123562
0.0119201
0.0114495
0.0109407
0.0103925
0.00980234
0.00916994
0.00849588
0.00778042
0.00701747
0.00620606
0.00534524
0.00443932
0.00349329
0.00251621
0.00151729
0.000503869
-0.000515702
-0.00153257
-0.00254026
-0.00353456
-0.00451218
-0.00547305
-0.0064182
-0.00734164
-0.008253
-0.00911294
-0.00994211
-0.0105898
-0.0111767
-0.0116397
-0.0119168
-0.0119743
-0.0114532
-0.0105792
-0.00988555
0.0169616
0.0169448
0.0169169
0.0168771
0.0168286
0.0167739
0.0167111
0.0166353
0.0165423
0.0164314
0.0163045
0.0161635
0.016011
0.0158466
0.0156707
0.0154808
0.0152762
0.0150536
0.0148127
0.0145499
0.0142646
0.0139536
0.0136161
0.0132486
0.0128508
0.0124184
0.0119507
0.0114443
0.0108971
0.0103072
0.00967302
0.00899634
0.00827375
0.00750413
0.00668115
0.00580594
0.00488143
0.00391171
0.00290518
0.00187051
0.000814716
-0.000253723
-0.00132527
-0.00239221
-0.0034486
-0.00448895
-0.00551068
-0.00651282
-0.00748754
-0.00844375
-0.00934242
-0.0102052
-0.0108814
-0.0114922
-0.0119791
-0.0122799
-0.0123605
-0.011851
-0.010951
-0.0101958
0.017375
0.0173565
0.0173288
0.0172904
0.0172438
0.0171911
0.0171308
0.017058
0.0169686
0.0168619
0.0167393
0.0166033
0.0164558
0.016297
0.0161268
0.0159434
0.0157452
0.0155298
0.0152959
0.0150404
0.014762
0.0144581
0.0141272
0.0137662
0.0133744
0.0129476
0.012485
0.0119829
0.0114397
0.0108524
0.0102201
0.00954274
0.00881985
0.0080448
0.00721601
0.00633137
0.00539369
0.00440625
0.00337666
0.00231287
0.00122132
0.000110232
-0.00101068
-0.00213308
-0.00324985
-0.00435391
-0.00544067
-0.00650705
-0.00754376
-0.00855751
-0.00951023
-0.0104218
-0.0111428
-0.0117903
-0.0123123
-0.0126445
-0.0127523
-0.0122528
-0.0113253
-0.0105092
0.0178298
0.0178095
0.0177807
0.0177423
0.0176957
0.0176437
0.0175843
0.0175132
0.0174262
0.0173224
0.0172035
0.0170714
0.0169284
0.0167741
0.0166093
0.0164311
0.0162389
0.0160293
0.0158018
0.0155527
0.015281
0.0149836
0.0146594
0.0143048
0.0139193
0.0134987
0.0130418
0.0125451
0.0120063
0.0114231
0.0107933
0.0101182
0.00939361
0.00861813
0.0077847
0.00689344
0.0059457
0.00494381
0.00389453
0.002805
0.00168089
0.000529985
-0.000638129
-0.00181479
-0.00299205
-0.0041615
-0.00531666
-0.00645274
-0.00755835
-0.00863854
-0.00965416
-0.010625
-0.0113997
-0.0120944
-0.0126593
-0.0130293
-0.0131667
-0.0126769
-0.0117228
-0.0108498
0.0183124
0.0182896
0.0182599
0.0182216
0.0181757
0.0181243
0.0180659
0.0179961
0.0179107
0.0178089
0.0176923
0.0175632
0.0174233
0.0172731
0.0171124
0.0169393
0.0167523
0.0165487
0.0163271
0.0160845
0.0158191
0.0155283
0.0152103
0.014862
0.0144825
0.0140676
0.0136161
0.0131242
0.01259
0.0120101
0.0113834
0.0107089
0.00998578
0.00920705
0.00837059
0.00747328
0.00651639
0.00550148
0.00443446
0.00332162
0.00216785
0.000980318
-0.000231717
-0.00145962
-0.00269495
-0.0039284
-0.00515202
-0.00635929
-0.00753723
-0.00868817
-0.00977289
-0.0108089
-0.0116449
-0.012392
-0.0130043
-0.0134145
-0.0135827
-0.0131011
-0.0121206
-0.0111934
0.0188262
0.0188016
0.0187709
0.0187328
0.0186875
0.0186371
0.01858
0.0185118
0.0184283
0.0183288
0.0182149
0.0180886
0.017952
0.0178051
0.0176482
0.0174788
0.0172961
0.0170968
0.0168799
0.0166419
0.0163814
0.0160955
0.0157826
0.0154393
0.0150646
0.0146542
0.0142069
0.013719
0.0131877
0.0126106
0.011985
0.0113116
0.0105858
0.00980592
0.00896442
0.00806053
0.00709411
0.00606585
0.00498085
0.00384456
0.00266107
0.00143694
0.000180982
-0.00109824
-0.00239197
-0.00369009
-0.00498324
-0.00626352
-0.00751585
-0.00874065
-0.00989702
-0.0110018
-0.0119011
-0.0127041
-0.0133666
-0.0138196
-0.0140192
-0.0135455
-0.0125408
-0.011565
0.0193733
0.0193466
0.0193155
0.0192782
0.0192342
0.0191853
0.0191297
0.0190631
0.0189812
0.0188835
0.0187713
0.0186472
0.0185127
0.0183685
0.0182142
0.0180483
0.0178688
0.0176734
0.0174603
0.0172264
0.0169699
0.0166881
0.016379
0.0160393
0.015668
0.0152607
0.0148161
0.0143302
0.0138007
0.013224
0.0125986
0.0119228
0.0111957
0.0104098
0.00956271
0.00865047
0.00767295
0.00663015
0.00552645
0.0043665
0.00315364
0.00189377
0.000595245
-0.000733654
-0.00208398
-0.00344508
-0.00480647
-0.00615888
-0.00748562
-0.00878439
-0.0100139
-0.0111884
-0.0121541
-0.0130147
-0.0137285
-0.0142243
-0.0144553
-0.0139884
-0.0129606
-0.0119392
0.019971
0.019943
0.019911
0.0198733
0.0198293
0.0197808
0.0197258
0.01966
0.0195791
0.0194825
0.0193718
0.0192491
0.0191166
0.0189741
0.018822
0.0186579
0.0184807
0.0182873
0.0180765
0.0178448
0.0175906
0.0173109
0.0170039
0.0166661
0.0162964
0.0158905
0.0154467
0.0149611
0.014431
0.0138533
0.0132252
0.0125466
0.0118126
0.0110217
0.0101655
0.0092429
0.00825227
0.00719285
0.00606838
0.00488274
0.00363853
0.00234113
0.000998416
-0.000381552
-0.00178968
-0.00321477
-0.00464519
-0.00607054
-0.00747211
-0.00884575
-0.0101483
-0.0113936
-0.0124246
-0.0133433
-0.0141088
-0.0146486
-0.0149113
-0.0144513
-0.0134027
-0.0123418
0.0206053
0.0205759
0.0205436
0.0205064
0.0204632
0.0204156
0.0203615
0.0202965
0.0202163
0.0201205
0.0200104
0.0198888
0.0197571
0.0196161
0.0194653
0.0193031
0.0191276
0.0189363
0.0187273
0.0184975
0.0182448
0.0179666
0.0176604
0.0173233
0.0169537
0.0165474
0.0161026
0.0156152
0.0150828
0.0145014
0.013869
0.0131835
0.0124437
0.0116419
0.0107754
0.00983975
0.00883347
0.00775523
0.00660813
0.00539538
0.00411895
0.00278362
0.00139688
-3.35604e-05
-0.00149845
-0.00298635
-0.00448448
-0.00598143
-0.0074568
-0.00890403
-0.0102796
-0.0115949
-0.0126931
-0.0136707
-0.0144884
-0.0150718
-0.0153659
-0.0149122
-0.0138441
-0.0127463
0.0212822
0.0212525
0.0212203
0.0211839
0.0211418
0.0210956
0.0210428
0.0209793
0.0209004
0.020806
0.0206973
0.020577
0.0204466
0.0203067
0.0201571
0.0199956
0.019821
0.0196301
0.0194215
0.0191918
0.0189391
0.0186605
0.0183536
0.0180153
0.017644
0.0172355
0.0167877
0.0162968
0.0157596
0.0151727
0.014533
0.0138399
0.0130884
0.0122765
0.0113959
0.0104447
0.00942031
0.00832061
0.00714816
0.00590556
0.0045941
0.00321819
0.00178483
0.000301694
-0.00122209
-0.00277436
-0.00434165
-0.00591113
-0.0074608
-0.00898217
-0.0104303
-0.0118163
-0.0129796
-0.0140157
-0.0148857
-0.0155136
-0.0158395
-0.0153927
-0.0143074
-0.0131788
0.0220044
0.0219744
0.021943
0.0219081
0.0218679
0.0218237
0.0217727
0.0217108
0.021633
0.0215396
0.0214315
0.0213119
0.021182
0.0210428
0.0208934
0.0207327
0.0205581
0.0203676
0.0201588
0.0199289
0.0196752
0.0193953
0.0190864
0.0187457
0.0183711
0.0179586
0.017506
0.0170093
0.0164655
0.0158706
0.015222
0.0145173
0.0137549
0.0129271
0.0120311
0.0110617
0.0100165
0.00889295
0.00769308
0.0064189
0.00507115
0.00365374
0.00217344
0.000637517
-0.00094462
-0.00256076
-0.00419618
-0.00583728
-0.00746017
-0.00905453
-0.0105751
-0.0120308
-0.0132618
-0.0143579
-0.015281
-0.0159532
-0.0163109
-0.0158706
-0.0147694
-0.0136117
0.0227903
0.0227607
0.0227295
0.0226951
0.0226554
0.022612
0.0225617
0.0225005
0.0224234
0.0223304
0.0222228
0.0221034
0.0219738
0.0218345
0.0216852
0.0215237
0.0213486
0.0211567
0.0209465
0.0207143
0.0204582
0.0201753
0.0198628
0.0195178
0.0191383
0.01872
0.0182608
0.0177565
0.0172038
0.0165991
0.0159387
0.0152219
0.0144429
0.0136001
0.0126849
0.011695
0.0106267
0.00947669
0.00824666
0.006938
0.00555092
0.00408899
0.00255869
0.000967233
-0.000676036
-0.00235822
-0.00406405
-0.0057782
-0.00747561
-0.0091438
-0.0107369
-0.0122635
-0.0135607
-0.0147165
-0.0156931
-0.0164108
-0.016801
-0.0163681
-0.0152527
-0.0140716
0.0236262
0.0235969
0.0235664
0.0235332
0.0234949
0.0234527
0.0234035
0.0233429
0.023266
0.023173
0.023065
0.0229454
0.0228152
0.0226755
0.0225253
0.0223634
0.022187
0.021994
0.0217817
0.0215475
0.0212882
0.0210016
0.0206845
0.020334
0.0199481
0.0195225
0.0190549
0.018541
0.0179778
0.0173608
0.0166873
0.0159544
0.0151601
0.0142968
0.0133615
0.0123485
0.0112546
0.010076
0.00881384
0.00746908
0.00604135
0.00453393
0.00295299
0.0013057
-0.000398742
-0.00214679
-0.00392273
-0.00570928
-0.007481
-0.00922181
-0.010889
-0.0124844
-0.0138517
-0.0150702
-0.0161017
-0.0168654
-0.0172883
-0.0168625
-0.0157341
-0.0145306
0.0245186
0.0244905
0.0244614
0.0244298
0.024393
0.0243525
0.0243046
0.0242452
0.024169
0.0240765
0.0239687
0.0238488
0.0237183
0.0235776
0.0234263
0.0232625
0.023084
0.022888
0.0226725
0.022434
0.0221701
0.0218779
0.0215546
0.021197
0.0208031
0.0203684
0.0198906
0.0193656
0.0187896
0.0181589
0.0174695
0.0167203
0.0159052
0.0150228
0.014064
0.013026
0.0119045
0.0106949
0.00939799
0.00801425
0.00654282
0.00498665
0.00335188
0.00164549
-0.000123165
-0.00194004
-0.00378881
-0.00565018
-0.00749798
-0.00931332
-0.0110548
-0.0127213
-0.0141577
-0.0154389
-0.0165261
-0.0173372
-0.0177938
-0.017376
-0.0162359
-0.015015
0.0254716
0.0254447
0.0254174
0.0253879
0.0253533
0.0253147
0.0252682
0.0252095
0.0251334
0.0250405
0.0249317
0.0248108
0.0246785
0.0245363
0.0243826
0.0242166
0.0240349
0.0238358
0.0236162
0.0233732
0.0231036
0.0228052
0.0224744
0.0221083
0.0217048
0.0212595
0.0207699
0.0202317
0.0196415
0.0189948
0.0182886
0.0175194
0.0166854
0.0157785
0.0147956
0.0137306
0.0125792
0.0113367
0.0100033
0.00857911
0.00706269
0.00545678
0.00376744
0.00200136
0.000168192
-0.00171791
-0.00363953
-0.00557593
-0.0075
-0.00938998
-0.0112078
-0.0129444
-0.0144535
-0.015801
-0.0169462
-0.0178055
-0.0182961
-0.0178859
-0.016735
-0.0154966
0.0265013
0.0264764
0.0264502
0.0264216
0.0263877
0.0263495
0.0263032
0.0262442
0.0261674
0.0260733
0.025963
0.02584
0.0257057
0.0255605
0.025404
0.025234
0.0250482
0.0248438
0.0246186
0.024369
0.0240922
0.0237855
0.0234455
0.0230694
0.0226547
0.0221971
0.021694
0.0211411
0.0205347
0.0198708
0.0191451
0.0183563
0.017498
0.0165687
0.0155588
0.0144651
0.0132822
0.0120045
0.0106321
0.00916456
0.00760004
0.00594114
0.00419372
0.00236463
0.000463278
-0.00149521
-0.00349331
-0.00550752
-0.00751081
-0.00947769
-0.0113729
-0.0131829
-0.0147641
-0.0161778
-0.0173819
-0.0182908
-0.0188163
-0.0184145
-0.0172536
-0.0160021
0.0275915
0.0275682
0.0275436
0.0275166
0.0274839
0.0274464
0.0274001
0.0273406
0.0272622
0.0271661
0.0270532
0.0269274
0.0267896
0.0266412
0.0264805
0.0263066
0.0261158
0.0259063
0.0256749
0.0254185
0.0251336
0.024818
0.0244679
0.0240804
0.0236532
0.0231818
0.0226637
0.0220943
0.0214705
0.0207872
0.0200415
0.0192296
0.0183494
0.0173925
0.0163556
0.0152314
0.014015
0.0127004
0.0112874
0.0097751
0.00816128
0.0064483
0.00464202
0.00274903
0.000778976
-0.00125281
-0.00332779
-0.00542081
-0.00750416
-0.00954932
-0.011525
-0.013406
-0.0150637
-0.0165476
-0.017813
-0.0187726
-0.0193333
-0.0189393
-0.0177689
-0.0165034
0.0287462
0.0287254
0.0287029
0.0286777
0.0286464
0.0286099
0.0285639
0.0285039
0.0284245
0.0283265
0.0282112
0.0280825
0.0279412
0.0277885
0.0276232
0.0274436
0.0272468
0.02703
0.0267907
0.0265253
0.0262308
0.0259043
0.0255424
0.025142
0.0247007
0.0242139
0.0236792
0.023092
0.0224487
0.0217453
0.0209772
0.020143
0.0192356
0.0182542
0.0171871
0.0160312
0.0147796
0.0134261
0.01197
0.0104103
0.00874407
0.00697371
0.00510506
0.00314452
0.00110198
-0.00100681
-0.00316258
-0.00533799
-0.00750495
-0.00963145
-0.0116888
-0.0136454
-0.015379
-0.0169326
-0.0182599
-0.0192714
-0.0198678
-0.0194823
-0.0183026
-0.0170269
0.0299663
0.0299478
0.0299279
0.0299051
0.0298756
0.0298403
0.0297944
0.0297336
0.0296521
0.0295513
0.0294322
0.0292993
0.029153
0.0289952
0.0288238
0.0286381
0.0284338
0.0282096
0.0279614
0.0276867
0.0273813
0.0270431
0.0266681
0.0262534
0.0257965
0.025293
0.0247402
0.0241336
0.0234701
0.0227445
0.0219539
0.021094
0.0201627
0.0191508
0.0180543
0.0168647
0.0155764
0.0141825
0.012682
0.0110735
0.00935384
0.00752512
0.00559309
0.00356414
0.00144806
-0.000738714
-0.00297645
-0.0052355
-0.00748796
-0.00969788
-0.0118405
-0.0138713
-0.015684
-0.0173111
-0.0187025
-0.0197667
-0.020399
-0.020021
-0.0188323
-0.017545
0.031267
0.0312514
0.0312329
0.0312107
0.0311811
0.0311451
0.0310977
0.0310346
0.0309501
0.0308455
0.030722
0.0305839
0.0304321
0.0302677
0.0300895
0.0298956
0.029683
0.0294488
0.0291903
0.0289038
0.0285859
0.028234
0.0278442
0.0274136
0.0269397
0.026418
0.0258458
0.0252188
0.0245334
0.0237853
0.0229698
0.0220854
0.0211247
0.0200858
0.0189567
0.0177325
0.0164062
0.0149701
0.013423
0.0117633
0.00998726
0.00809692
0.00609802
0.00399688
0.00180336
-0.000465462
-0.00278933
-0.00513618
-0.00747822
-0.00977499
-0.0120052
-0.0141151
-0.0160067
-0.0177063
-0.0191617
-0.0202793
-0.0209475
-0.0205772
-0.0193794
-0.0180839
0.0326235
0.0326103
0.0325939
0.0325733
0.0325446
0.0325085
0.0324599
0.0323945
0.0323064
0.0321973
0.0320683
0.0319243
0.0317657
0.0315943
0.0314079
0.0312059
0.0309835
0.0307395
0.0304696
0.0301711
0.0298397
0.0294734
0.0290677
0.0286202
0.0281282
0.0275871
0.0269945
0.0263459
0.025638
0.0248656
0.0240255
0.0231134
0.0221264
0.0210552
0.0198942
0.0186343
0.0172687
0.0157892
0.0141945
0.0124826
0.0106493
0.00869639
0.00662966
0.00445521
0.00218313
-0.000169185
-0.00258046
-0.00501719
-0.00745065
-0.00983777
-0.0121584
-0.0143475
-0.0163207
-0.0180959
-0.0196173
-0.020789
-0.0214926
-0.0211291
-0.0199222
-0.0186168
0.0340438
0.0340338
0.0340198
0.034001
0.0339733
0.0339375
0.033888
0.0338205
0.0337291
0.0336156
0.0334812
0.0333306
0.0331645
0.0329844
0.0327887
0.0325759
0.0323421
0.0320853
0.031802
0.0314889
0.0311421
0.0307594
0.0303364
0.0298706
0.0293593
0.0287981
0.0281842
0.0275134
0.0267818
0.0259852
0.0251187
0.0241803
0.0231622
0.0220624
0.020867
0.0195705
0.0181644
0.01664
0.0149959
0.0132294
0.0113362
0.00931759
0.00717954
0.004928
0.00257328
0.000133287
-0.00236988
-0.00490084
-0.00743032
-0.0099114
-0.0123255
-0.0145991
-0.0166539
-0.0185035
-0.0200901
-0.0213157
-0.0220547
-0.0216977
-0.0204816
-0.0191696
0.0355533
0.0355467
0.0355358
0.0355188
0.0354912
0.0354536
0.0354003
0.0353271
0.0352277
0.0351051
0.0349599
0.0347982
0.0346197
0.0344276
0.0342187
0.0339931
0.0337454
0.0334748
0.0331766
0.0328484
0.0324853
0.0320859
0.031645
0.0311606
0.0306297
0.0300479
0.0294125
0.028719
0.027964
0.0271422
0.0262501
0.025283
0.0242379
0.0231041
0.0218754
0.020541
0.0190933
0.0175231
0.0158287
0.0140071
0.012053
0.00996792
0.00775751
0.00542769
0.00298897
0.000459693
-0.002137
-0.00476443
-0.00739207
-0.00997072
-0.0124809
-0.01484
-0.0169791
-0.0189062
-0.0205599
-0.0218397
-0.0226132
-0.0222617
-0.0210363
-0.0197161
0.0371844
0.0371837
0.0371694
0.0371428
0.0371015
0.0370484
0.0369784
0.0368888
0.0367737
0.0366359
0.0364767
0.0363014
0.0361105
0.0359053
0.035684
0.0354449
0.0351839
0.0348987
0.0345859
0.034242
0.0338628
0.0334465
0.0329881
0.0324854
0.0319353
0.0313336
0.0306771
0.0299616
0.0291831
0.0283371
0.0274185
0.0264249
0.0253477
0.0241843
0.0229194
0.0215463
0.0200562
0.018439
0.0166926
0.0148137
0.0127963
0.0106415
0.00835525
0.00594328
0.00341637
0.000793439
-0.0019014
-0.00462985
-0.00736044
-0.0100403
-0.0126505
-0.0151003
-0.0173245
-0.0193277
-0.0210472
-0.0223805
-0.023188
-0.0228415
-0.0216071
-0.020282
0.0385832
0.0385871
0.0385856
0.0385754
0.0385508
0.0385116
0.0384526
0.0383702
0.0382592
0.0381224
0.0379619
0.0377836
0.0375877
0.0373769
0.0371483
0.0369016
0.0366313
0.0363363
0.0360122
0.0356563
0.0352637
0.0348332
0.0343593
0.0338401
0.0332725
0.0326521
0.0319758
0.0312392
0.0304385
0.0295684
0.0286247
0.0276024
0.0264978
0.0252993
0.0239997
0.0225873
0.0210539
0.019389
0.0175901
0.0156532
0.0135716
0.0113463
0.00898298
0.00648749
0.00387081
0.00115245
-0.00164241
-0.0044742
-0.00730991
-0.0100945
-0.0128071
-0.0153494
-0.0176618
-0.0197445
-0.0215318
-0.0229188
-0.0237593
-0.0234166
-0.0221735
-0.0208418
0.0401513
0.0401556
0.0401479
0.0401286
0.0400931
0.0400436
0.0399743
0.0398826
0.0397633
0.0396194
0.039453
0.0392693
0.039069
0.0388531
0.0386198
0.0383668
0.0380901
0.0377869
0.0374542
0.0370881
0.0366846
0.0362419
0.0357549
0.0352214
0.0346384
0.0340014
0.033307
0.0325511
0.0317291
0.0308364
0.0298674
0.0288192
0.0276825
0.0264543
0.0251177
0.0236657
0.0220883
0.0203745
0.0185213
0.0165242
0.0143757
0.0120766
0.00963263
0.00704957
0.00433877
0.00152041
-0.00137923
-0.00431903
-0.00726468
-0.0101578
-0.0129771
-0.0156168
-0.0180186
-0.0201798
-0.0220335
-0.0234733
-0.0243459
-0.0240069
-0.0227555
-0.0214211
0.0415223
0.0415262
0.0415261
0.0415188
0.0414974
0.0414611
0.0414037
0.0413214
0.0412089
0.0410698
0.0409064
0.0407247
0.0405253
0.04031
0.0400761
0.0398226
0.0395436
0.0392378
0.0389008
0.0385295
0.0381191
0.0376683
0.0371715
0.0366269
0.0360313
0.0353801
0.03467
0.0338963
0.0330552
0.0321408
0.0311487
0.0300731
0.0289101
0.0276469
0.0262754
0.0247831
0.023161
0.0213976
0.0194895
0.0174314
0.0152151
0.012841
0.0103149
0.00764264
0.00483586
0.00191549
-0.00109101
-0.00414116
-0.00719896
-0.0102037
-0.0131319
-0.0158712
-0.0183659
-0.0206095
-0.0225318
-0.0240247
-0.0249287
-0.0245922
-0.0233333
-0.0219948
0.0430949
0.0430949
0.0430835
0.0430616
0.0430245
0.0429741
0.042904
0.0428112
0.0426902
0.0425447
0.042377
0.0421923
0.0419915
0.0417751
0.0415409
0.0412863
0.0410067
0.0406989
0.0403597
0.0399848
0.03957
0.0391135
0.0386098
0.0380568
0.0374513
0.0367885
0.0360651
0.0352762
0.0344175
0.0334838
0.0324689
0.0313696
0.0301756
0.0288833
0.0274747
0.0259419
0.0242746
0.0224603
0.0204953
0.0183737
0.0160866
0.013634
0.0110218
0.00825603
0.00534865
0.0023215
-0.000796792
-0.00396207
-0.00713686
-0.0102572
-0.013299
-0.0161424
-0.0187314
-0.0210567
-0.0230465
-0.0245915
-0.0255258
-0.0251919
-0.0239266
-0.0225878
0.0444092
0.0444061
0.0444001
0.0443891
0.0443662
0.0443305
0.0442754
0.0441962
0.044088
0.0439537
0.0437961
0.0436207
0.0434281
0.0432195
0.0429918
0.0427433
0.0424681
0.0421642
0.0418269
0.041453
0.0410374
0.0405788
0.0400711
0.0395127
0.0389
0.0382282
0.0374939
0.036692
0.0358182
0.0348663
0.0338312
0.0327068
0.0314879
0.0301614
0.028718
0.0271445
0.0254313
0.0235654
0.0215426
0.0193565
0.0169972
0.0144645
0.0117645
0.00890321
0.00589308
0.00275687
-0.000475517
-0.00375832
-0.00705232
-0.0102909
-0.0134483
-0.0163985
-0.0190857
-0.0214971
-0.0235571
-0.025155
-0.0261191
-0.025787
-0.0245161
-0.0231758
0.0458946
0.0458823
0.0458683
0.0458514
0.0458251
0.0457888
0.0457349
0.0456583
0.0455532
0.0454222
0.0452681
0.0450961
0.0449071
0.0447013
0.0444769
0.0442306
0.0439579
0.0436553
0.0433195
0.042946
0.0425303
0.0420704
0.0415605
0.0409985
0.0403808
0.0397022
0.0389592
0.0381464
0.037259
0.0362913
0.0352364
0.0340906
0.0328425
0.0314884
0.0300083
0.028394
0.0266341
0.024715
0.0226322
0.0203786
0.0179437
0.015327
0.0125349
0.00957344
0.00645565
0.00320535
-0.000146227
-0.00355146
-0.00696953
-0.0103309
-0.0136084
-0.0166692
-0.0194559
-0.0219531
-0.0240825
-0.0257326
-0.0267257
-0.0263959
-0.0251207
-0.0237831
0.047469
0.0474496
0.0474256
0.0473977
0.047361
0.0473155
0.0472538
0.0471707
0.0470604
0.0469258
0.0467694
0.0465967
0.046408
0.0462041
0.045982
0.0457392
0.0454695
0.0451705
0.0448375
0.0444665
0.0440523
0.0435932
0.0430827
0.0425189
0.0418979
0.0412144
0.0404645
0.0396425
0.0387437
0.0377612
0.0366892
0.0355207
0.03425
0.0328627
0.0313484
0.0296928
0.0278855
0.0259122
0.0237681
0.0214457
0.0189335
0.0162309
0.0133444
0.0102805
0.00705259
0.00368565
0.000212355
-0.0033178
-0.00686224
-0.0103486
-0.0137481
-0.0169225
-0.019813
-0.0224006
-0.0246028
-0.0263062
-0.0273281
-0.0270004
-0.0257219
-0.0243858
0.049088
0.049067
0.0490394
0.0490065
0.0489638
0.0489122
0.0488445
0.048756
0.0486406
0.0485012
0.0483406
0.0481642
0.0479728
0.0477665
0.0475431
0.0472991
0.0470294
0.0467303
0.0463982
0.0460279
0.0456145
0.0451559
0.0446454
0.0440806
0.0434575
0.0427704
0.042015
0.0411855
0.0402763
0.0392811
0.038192
0.0370046
0.0357063
0.0342923
0.0327412
0.0310438
0.0291881
0.0271589
0.024951
0.0225565
0.0199632
0.0171704
0.014185
0.0110136
0.00767026
0.0041814
0.00058111
-0.00307902
-0.00675477
-0.0103708
-0.0138974
-0.0171886
-0.0201841
-0.022862
-0.0251362
-0.0268925
-0.027943
-0.0276182
-0.0263383
-0.0250075
0.0506968
0.0506763
0.0506494
0.0506168
0.0505736
0.0505207
0.0504511
0.0503601
0.0502421
0.0501002
0.0499376
0.0497599
0.0495675
0.0493614
0.0491385
0.0488963
0.0486282
0.0483315
0.0480015
0.0476336
0.0472221
0.046765
0.0462553
0.0456905
0.0450662
0.0443764
0.0436166
0.0427804
0.0418623
0.0408545
0.0397503
0.0385417
0.0372216
0.0357748
0.0341893
0.0324495
0.0305445
0.0284581
0.026185
0.0237167
0.0210403
0.0181551
0.0150682
0.0117867
0.00832524
0.00471166
0.000981588
-0.00281111
-0.00662059
-0.0103683
-0.0140236
-0.0174351
-0.0205403
-0.0233135
-0.0256635
-0.0274743
-0.0285538
-0.0282322
-0.026952
-0.0256255
0.0523388
0.05232
0.0522953
0.052265
0.052224
0.0521732
0.0521054
0.0520157
0.0518985
0.0517569
0.0515944
0.0514165
0.0512244
0.051018
0.0507956
0.0505533
0.0502862
0.0499902
0.0496617
0.0492951
0.0488852
0.0484294
0.0479207
0.047356
0.046731
0.0460391
0.0452753
0.0444331
0.043506
0.0424868
0.0413665
0.0401396
0.0387922
0.0373189
0.0356959
0.0339132
0.0319574
0.0298117
0.0274705
0.0249248
0.0221613
0.019179
0.0159857
0.0125887
0.00900375
0.00525976