/*--------------------------------*- C++ -*----------------------------------*\
  =========                 |
  \\      /  F ield         | OpenFOAM: The Open Source CFD Toolbox
   \\    /   O peration     | Website:  https://openfoam.org
    \\  /    A nd           | Version:  6.0
     \\/     M anipulation  |
\*---------------------------------------------------------------------------*/
FoamFile
{
    version     2.0;
    format      ascii;
    class       surfaceScalarField;
    location    "11";
    object      phi;
}
// * * * * * * * * * * * * * * * * * * * * * * * * * * * * * * * * * * * * * //

dimensions      [0 3 -1 0 0 0 0];

internalField   nonuniform List<scalar> 
123526
(
2.7925e-05
2.33214e-05
-2.7521e-05
2.83534e-05
2.52119e-05
2.88194e-05
2.72554e-05
2.93194e-05
2.94641e-05
2.98622e-05
3.18513e-05
3.04457e-05
3.44314e-05
3.10788e-05
3.72197e-05
3.17599e-05
4.02329e-05
3.25005e-05
4.34882e-05
3.32974e-05
4.70062e-05
3.41639e-05
5.08082e-05
3.50949e-05
5.49161e-05
3.61084e-05
5.93542e-05
3.71996e-05
6.41462e-05
3.83905e-05
6.93217e-05
3.9671e-05
7.49146e-05
4.10636e-05
8.09544e-05
4.25686e-05
8.74699e-05
4.42066e-05
9.45065e-05
4.59715e-05
0.000102105
4.78928e-05
0.000110298
4.99706e-05
0.000119138
5.2222e-05
0.000128679
5.46635e-05
0.000138953
5.73092e-05
0.000150037
6.01707e-05
0.000161973
6.32752e-05
0.000174825
6.66288e-05
0.000188659
7.02654e-05
0.000203529
7.41911e-05
0.000219517
7.84416e-05
0.000236672
8.30308e-05
0.000255075
8.79935e-05
0.000274782
9.33535e-05
0.000295858
9.91317e-05
0.000318362
0.000105363
0.000342329
0.000112069
0.000367808
0.000119285
0.000394802
0.000127042
0.000423302
0.000135367
0.000453269
0.000144287
0.00048461
0.00015383
0.00051718
0.000164014
0.000550763
0.000174854
0.000585046
0.000186354
0.000619595
0.000198508
0.000653827
0.000211298
0.000686971
0.000224682
0.000718017
0.000238603
0.000745664
0.000252961
0.000768257
0.000267641
0.000783704
0.000282441
0.000789441
0.000297158
0.000782241
0.000311447
0.000758372
0.000324921
0.000713282
0.00033706
0.000641699
0.000347235
0.000537567
0.000354528
0.000393561
0.000358451
0.000201684
-3.32847e-05
0.00036604
2.73688e-05
2.29344e-05
-2.69733e-05
2.77886e-05
2.47934e-05
2.82457e-05
2.68028e-05
2.87363e-05
2.89747e-05
2.92692e-05
3.13222e-05
2.98423e-05
3.38591e-05
3.04642e-05
3.66007e-05
3.11337e-05
3.95632e-05
3.18614e-05
4.27628e-05
3.26451e-05
4.6221e-05
3.34966e-05
4.9959e-05
3.44123e-05
5.39977e-05
3.5408e-05
5.8361e-05
3.64811e-05
6.307e-05
3.76509e-05
6.81548e-05
3.89098e-05
7.36529e-05
4.02773e-05
7.95901e-05
4.17565e-05
8.59888e-05
4.33646e-05
9.29016e-05
4.50986e-05
0.00010037
4.69844e-05
0.000108416
4.90251e-05
0.000117097
5.12345e-05
0.000126473
5.36321e-05
0.000136556
5.62281e-05
0.000147444
5.9038e-05
0.000159164
6.20846e-05
0.000171781
6.53779e-05
0.000185367
6.89475e-05
0.000199962
7.28034e-05
0.000215661
7.69768e-05
0.000232498
8.1485e-05
0.000250567
8.63613e-05
0.00026991
9.1628e-05
0.000290597
9.73074e-05
0.000312688
0.000103433
0.000336207
0.000110027
0.000361215
0.000117123
0.000387707
0.000124752
0.000415673
0.000132938
0.000445082
0.000141709
0.000475838
0.000151089
0.000507796
0.000161097
0.000540749
0.000171745
0.000574388
0.000183039
0.000608287
0.000194973
0.000641874
0.000207528
0.000674389
0.000220667
0.000704841
0.000234335
0.000731952
0.000248435
0.000754095
0.000262855
0.000769222
0.000277392
0.000774808
0.000291854
0.000767732
0.000305895
0.000744306
0.000319135
0.000700066
0.000331048
0.000629819
0.000341047
0.000527623
0.000348377
0.000386303
0.000352347
0.000197843
-3.30545e-05
0.000352296
2.69298e-05
2.25542e-05
-2.65417e-05
2.73422e-05
2.43825e-05
2.77902e-05
2.63588e-05
2.82715e-05
2.84949e-05
2.87934e-05
3.08035e-05
2.93551e-05
3.32984e-05
2.9964e-05
3.59944e-05
3.06198e-05
3.89075e-05
3.13323e-05
4.20526e-05
3.20998e-05
4.54522e-05
3.29336e-05
4.91276e-05
3.38305e-05
5.30985e-05
3.4806e-05
5.73884e-05
3.58575e-05
6.20157e-05
3.7004e-05
6.70116e-05
3.82381e-05
7.24163e-05
3.95791e-05
7.82527e-05
4.10297e-05
8.45365e-05
4.26072e-05
9.13276e-05
4.43085e-05
9.86678e-05
4.61591e-05
0.000106568
4.81621e-05
0.000115094
5.03311e-05
0.000124307
5.26852e-05
0.000134202
5.52344e-05
0.000144898
5.79944e-05
0.000156405
6.09867e-05
0.000168791
6.42226e-05
0.000182133
6.77296e-05
0.000196457
7.15191e-05
0.000211873
7.56202e-05
0.000228397
8.00519e-05
0.000246137
8.48443e-05
0.000265121
9.00221e-05
0.000285427
9.56048e-05
0.000307112
0.000101626
0.00033019
0.000108108
0.000354738
0.000115082
0.000380737
0.000122579
0.00040818
0.000130622
0.000437042
0.000139237
0.000467225
0.000148449
0.000498585
0.000158274
0.000530922
0.000168727
0.000563932
0.000179811
0.000597197
0.000191524
0.000630153
0.000203848
0.000662056
0.000216747
0.000691931
0.00023017
0.000718522
0.000244019
0.000740234
0.000258184
0.000755061
0.000272463
0.000760524
0.000286669
0.000753559
0.000300455
0.000730531
0.000313452
0.000687103
0.000325132
0.000618159
0.000334934
0.00051785
0.000342146
0.000379124
0.000346266
0.000193763
-3.42786e-05
0.000347579
2.65453e-05
2.21806e-05
-2.61642e-05
2.69502e-05
2.39788e-05
2.73904e-05
2.59227e-05
2.78631e-05
2.80236e-05
2.83757e-05
3.0294e-05
2.89277e-05
3.27476e-05
2.95256e-05
3.53988e-05
3.01699e-05
3.82634e-05
3.08692e-05
4.13551e-05
3.16231e-05
4.46972e-05
3.24412e-05
4.83111e-05
3.3322e-05
5.22154e-05
3.42789e-05
5.64333e-05
3.53113e-05
6.09805e-05
3.64359e-05
6.5889e-05
3.76477e-05
7.12022e-05
3.89633e-05
7.69395e-05
4.03878e-05
8.31103e-05
4.19361e-05
8.97818e-05
4.36068e-05
9.69962e-05
4.54239e-05
0.000104754
4.73912e-05
0.000113126
4.95213e-05
0.00012218
5.18337e-05
0.00013189
5.43379e-05
0.000142397
5.70492e-05
0.000153695
5.9989e-05
0.000165854
6.31681e-05
0.000178956
6.66137e-05
0.000193013
7.03368e-05
0.000208151
7.43662e-05
0.000224367
7.87194e-05
0.000241784
8.34285e-05
0.000260418
8.85139e-05
0.000280348
9.39973e-05
0.000301635
9.99104e-05
0.000324282
0.000106275
0.000348378
0.000113122
0.000373894
0.000120481
0.000400826
0.000128375
0.000429154
0.000136829
0.000458777
0.000145868
0.000489553
0.000155509
0.000521288
0.000165765
0.000553684
0.000176643
0.000586328
0.000188138
0.000618666
0.000200237
0.000649965
0.000212904
0.000679268
0.000226087
0.000705342
0.000239692
0.000726622
0.000253608
0.000741141
0.000267633
0.000746467
0.000281583
0.000739616
0.000295119
0.000717017
0.000307876
0.0006744
0.000319333
0.00060676
0.000328939
0.000508319
0.000336007
0.000372154
0.000340068
0.00018987
-3.54824e-05
0.000341528
2.61543e-05
2.18145e-05
-2.57802e-05
2.65523e-05
2.35832e-05
2.69836e-05
2.5495e-05
2.74481e-05
2.75612e-05
2.7951e-05
2.9794e-05
2.84933e-05
3.22068e-05
2.90805e-05
3.48138e-05
2.97139e-05
3.76305e-05
3.04012e-05
4.06696e-05
3.11424e-05
4.39552e-05
3.19469e-05
4.75086e-05
3.28129e-05
5.13475e-05
3.3754e-05
5.54946e-05
3.4769e-05
5.99632e-05
3.5875e-05
6.47859e-05
3.7066e-05
7.00091e-05
3.83595e-05
7.56492e-05
3.97594e-05
8.17091e-05
4.12812e-05
8.82632e-05
4.29229e-05
9.53539e-05
4.47084e-05
0.000102972
4.66414e-05
0.000111193
4.87343e-05
0.00012009
5.10062e-05
0.000129618
5.34664e-05
0.000139939
5.61301e-05
0.000151032
5.9018e-05
0.000162968
6.21411e-05
0.000175835
6.55255e-05
0.000189631
6.91826e-05
0.000204496
7.31397e-05
0.00022041
7.74157e-05
0.000237509
8.20388e-05
0.000255798
8.70328e-05
0.000275362
9.2416e-05
0.000296258
9.82207e-05
0.000318483
0.000104468
0.000342135
0.000111188
0.000367179
0.00011841
0.000393609
0.000126156
0.000421413
0.000134452
0.000450487
0.000143321
0.000480688
0.000152782
0.000511831
0.000162848
0.000543622
0.000173525
0.000575653
0.000184811
0.000607381
0.000196693
0.000638085
0.000209135
0.000666827
0.000222086
0.000692397
0.000235453
0.000713258
0.000249126
0.000727486
0.000262903
0.000732694
0.000276605
0.000725952
0.000289897
0.000703742
0.000302419
0.00066191
0.000313666
0.000595528
0.000323091
0.000498917
0.000330026
0.000365241
0.000333936
0.000185987
-3.66456e-05
0.000335156
2.57635e-05
2.14554e-05
-2.53972e-05
2.61536e-05
2.31948e-05
2.65771e-05
2.50751e-05
2.7033e-05
2.71071e-05
2.75268e-05
2.93029e-05
2.80596e-05
3.16756e-05
2.86363e-05
3.42392e-05
2.92588e-05
3.70087e-05
2.99339e-05
3.9996e-05
3.06626e-05
4.32258e-05
3.14529e-05
4.67196e-05
3.23044e-05
5.04942e-05
3.32289e-05
5.45716e-05
3.4227e-05
5.89628e-05
3.53136e-05
6.37011e-05
3.64847e-05
6.88359e-05
3.77555e-05
7.43804e-05
3.91317e-05
8.03315e-05
4.0627e-05
8.67702e-05
4.22406e-05
9.37396e-05
4.39948e-05
0.00010122
4.58942e-05
0.000109294
4.79503e-05
0.000118036
5.01822e-05
0.000127386
5.25988e-05
0.000137525
5.52152e-05
0.000148417
5.80517e-05
0.000160134
6.11189e-05
0.000172769
6.44428e-05
0.000186309
6.80339e-05
0.000200906
7.192e-05
0.000216524
7.61177e-05
0.000233312
8.0658e-05
0.000251263
8.55601e-05
0.000270466
9.08451e-05
0.00029098
9.65432e-05
0.000312789
0.000102675
0.000336007
0.000109271
0.000360588
0.00011636
0.000386526
0.000123963
0.000413816
0.000132106
0.000442351
0.000140812
0.000471989
0.0001501
0.000502553
0.000159983
0.00053375
0.000170468
0.00056518
0.000181554
0.000596309
0.000193226
0.000626428
0.00020545
0.000654616
0.000218176
0.000679686
0.000231311
0.000700131
0.000244745
0.000714065
0.000258279
0.000719148
0.000271736
0.000712516
0.000284788
0.000690726
0.000297082
0.000649675
0.000308125
0.000584548
0.000317378
0.000489741
0.000324195
0.000358528
0.000327971
0.000182384
-3.71973e-05
0.0003288
2.53927e-05
2.11023e-05
-2.50321e-05
2.57768e-05
2.2813e-05
2.61928e-05
2.46624e-05
2.66412e-05
2.66609e-05
2.71262e-05
2.88204e-05
2.76496e-05
3.11538e-05
2.82159e-05
3.36748e-05
2.88271e-05
3.63982e-05
2.949e-05
3.93346e-05
3.02056e-05
4.25098e-05
3.09816e-05
4.59451e-05
3.18179e-05
4.96564e-05
3.27258e-05
5.36655e-05
3.37061e-05
5.79806e-05
3.47733e-05
6.2636e-05
3.59235e-05
6.76841e-05
3.71717e-05
7.31346e-05
3.85232e-05
7.89788e-05
3.99917e-05
8.53043e-05
4.15763e-05
9.21544e-05
4.3299e-05
9.94997e-05
4.51642e-05
0.000107428
4.71832e-05
0.00011602
4.93749e-05
0.000125195
5.17477e-05
0.000135154
5.43168e-05
0.000145849
5.71018e-05
0.000157351
6.01134e-05
0.000169759
6.33768e-05
0.000183047
6.69027e-05
0.000197381
7.07177e-05
0.000212709
7.48398e-05
0.000229191
7.9296e-05
0.00024681
8.41093e-05
0.000265659
8.92975e-05
0.000285797
9.48916e-05
0.000307199
0.000100912
0.000329991
0.000107387
0.000354117
0.000114347
0.000379572
0.000121811
0.000406356
0.000129807
0.00043436
0.000138357
0.000463444
0.000147478
0.000493435
0.000157185
0.000524046
0.000167485
0.000554882
0.000178377
0.000585419
0.000189845
0.000614961
0.000201857
0.000642604
0.000214362
0.000667186
0.000227267
0.000687226
0.000240465
0.000700881
0.000253758
0.000705852
0.000266973
0.00069933
0.000279789
0.000677922
0.000291857
0.00063763
0.0003027
0.000573712
0.000311788
0.000480664
0.000318495
0.000351829
0.00032217
0.000178715
-3.76367e-05
0.000322626
2.50519e-05
2.07542e-05
-2.46975e-05
2.54298e-05
2.24367e-05
2.58397e-05
2.42558e-05
2.62808e-05
2.62216e-05
2.67581e-05
2.83456e-05
2.72731e-05
3.06406e-05
2.78297e-05
3.312e-05
2.84306e-05
3.57982e-05
2.90814e-05
3.8685e-05
2.97843e-05
4.18066e-05
3.05456e-05
4.51846e-05
3.13667e-05
4.88339e-05
3.22572e-05
5.27758e-05
3.32195e-05
5.70164e-05
3.42662e-05
6.15905e-05
3.53952e-05
6.65533e-05
3.66196e-05
7.19117e-05
3.79463e-05
7.7651e-05
3.93871e-05
8.38652e-05
4.09425e-05
9.05983e-05
4.26331e-05
9.78111e-05
4.44639e-05
0.000105597
4.64454e-05
0.00011404
4.85966e-05
0.000123044
5.09256e-05
0.000132828
5.34472e-05
0.000143328
5.61809e-05
0.000154619
5.91369e-05
0.000166804
6.23404e-05
0.000179845
6.58014e-05
0.000193921
6.95468e-05
0.000208963
7.35925e-05
0.000225146
7.79683e-05
0.000242439
8.26929e-05
0.00026094
8.77867e-05
0.000280708
9.32791e-05
0.00030171
9.91901e-05
0.000324084
0.000105549
0.000347762
0.000112382
0.000372742
0.000119713
0.00039903
0.000127566
0.000426514
0.000135964
0.000455053
0.000144924
0.000484483
0.000154461
0.00051452
0.000164581
0.000544774
0.000175283
0.000574731
0.000186552
0.000603708
0.000198355
0.000630817
0.000210642
0.000654917
0.000223321
0.00067456
0.000236284
0.000687934
0.000249338
0.000692791
0.000262311
0.00068638
0.000274894
0.000665379
0.000286739
0.000625842
0.000297384
0.000563128
0.00030631
0.000471813
0.000312909
0.00034533
0.000316499
0.000175295
-3.7533e-05
0.000316671
2.47465e-05
2.04114e-05
-2.4396e-05
2.51196e-05
2.20665e-05
2.55225e-05
2.3856e-05
2.5957e-05
2.57897e-05
2.64258e-05
2.7879e-05
2.6932e-05
3.01363e-05
2.74786e-05
3.2575e-05
2.80686e-05
3.52091e-05
2.87076e-05
3.80472e-05
2.93973e-05
4.11166e-05
3.01447e-05
4.44386e-05
3.09501e-05
4.80272e-05
3.18241e-05
5.19035e-05
3.27679e-05
5.6071e-05
3.37949e-05
6.05654e-05
3.49021e-05
6.54447e-05
3.61033e-05
7.07127e-05
3.74045e-05
7.6349e-05
3.88178e-05
8.24541e-05
4.03435e-05
8.90723e-05
4.20018e-05
9.6155e-05
4.37979e-05
0.000103801
4.57419e-05
0.000112098
4.78525e-05
0.000120933
5.01377e-05
0.000130544
5.26121e-05
0.000140854
5.52947e-05
0.000151938
5.81959e-05
0.000163905
6.13398e-05
0.000176703
6.47371e-05
0.000190525
6.84131e-05
0.000205287
7.23854e-05
0.000221174
7.668e-05
0.000238146
8.1319e-05
0.000256307
8.632e-05
0.000275712
9.17129e-05
0.000296321
9.75174e-05
0.000318282
0.000103762
0.000341521
0.000110474
0.000366035
0.000117674
0.000391834
0.000125388
0.000418804
0.000133638
0.000446806
0.000142441
0.000475682
0.000151812
0.000505151
0.000161756
0.000534831
0.000172272
0.000564215
0.000183344
0.000592635
0.000194941
0.000619218
0.000207011
0.000642848
0.000219465
0.000662103
0.000232195
0.000675211
0.000245011
0.000679963
0.000257747
0.000673661
0.000270097
0.000653036
0.000281722
0.000614231
0.000292171
0.000552678
0.000300937
0.000463047
0.000307425
0.000338833
0.000310937
0.000171764
-3.75323e-05
0.000310905
2.44689e-05
2.0074e-05
-2.41255e-05
2.48351e-05
2.17021e-05
2.52314e-05
2.34627e-05
2.56582e-05
2.5365e-05
2.61192e-05
2.74201e-05
2.66168e-05
2.96406e-05
2.71539e-05
3.20394e-05
2.77338e-05
3.46302e-05
2.83612e-05
3.74208e-05
2.90387e-05
4.04389e-05
2.97719e-05
4.3706e-05
3.05626e-05
4.72352e-05
3.14196e-05
5.10472e-05
3.23457e-05
5.51432e-05
3.33526e-05
5.95595e-05
3.44389e-05
6.43569e-05
3.56166e-05
6.95363e-05
3.6893e-05
7.50717e-05
3.82789e-05
8.10698e-05
3.97755e-05
8.75753e-05
4.14019e-05
9.45303e-05
4.31638e-05
0.000102039
4.50708e-05
0.000110193
4.71415e-05
0.000118863
4.93834e-05
0.000128304
5.18114e-05
0.000138426
5.44437e-05
0.000149308
5.72907e-05
0.000161059
6.03764e-05
0.000173618
6.37106e-05
0.000187191
6.73193e-05
0.000201678
7.1218e-05
0.000217275
7.54351e-05
0.000233933
7.9989e-05
0.000251757
8.48995e-05
0.000270806
9.01952e-05
0.000291028
9.58955e-05
0.000312585
0.000102028
0.000335391
0.000108621
0.000359446
0.000115694
0.000384765
0.000123272
0.000411232
0.000131377
0.000438707
0.000140027
0.00046704
0.000149234
0.000495954
0.000159005
0.000525071
0.000169337
0.000553896
0.000180216
0.00058177
0.000191608
0.000607841
0.000203464
0.00063101
0.000215694
0.000649887
0.000228193
0.00066273
0.000240774
0.000667378
0.000253273
0.000661186
0.000265394
0.000640952
0.000276802
0.000602876
0.000287058
0.000542477
0.000295665
0.000454509
0.000302036
0.000332553
0.000305471
0.000168485
-3.70997e-05
0.000305299
2.42103e-05
1.97428e-05
-2.38724e-05
2.45703e-05
2.13446e-05
2.4959e-05
2.30767e-05
2.53782e-05
2.49481e-05
2.58306e-05
2.69698e-05
2.63191e-05
2.9154e-05
2.68464e-05
3.15136e-05
2.74156e-05
3.40619e-05
2.80317e-05
3.68058e-05
2.86968e-05
3.97737e-05
2.94168e-05
4.29871e-05
3.01929e-05
4.64581e-05
3.10342e-05
5.02071e-05
3.1943e-05
5.4233e-05
3.29311e-05
5.85728e-05
3.39969e-05
6.329e-05
3.51523e-05
6.83825e-05
3.64044e-05
7.38189e-05
3.7764e-05
7.97121e-05
3.92321e-05
8.61069e-05
4.08276e-05
9.29367e-05
4.2556e-05
0.000100311
4.44268e-05
0.000108324
4.64585e-05
0.000116831
4.86583e-05
0.000126106
5.10408e-05
0.000136044
5.3624e-05
0.000146726
5.64182e-05
0.000158266
5.94467e-05
0.000170591
6.27197e-05
0.000183919
6.62619e-05
0.000198135
7.00902e-05
0.000213448
7.42295e-05
0.000229796
7.87015e-05
0.00024729
8.35232e-05
0.000265988
8.87238e-05
0.000285831
9.43223e-05
0.000306989
0.000100346
0.00032937
0.000106822
0.000352973
0.00011377
0.00037782
0.000121215
0.00040379
0.000129178
0.000430747
0.000137677
0.000458544
0.000146723
0.000486909
0.000156322
0.000515471
0.000166473
0.000543744
0.00017716
0.000571082
0.000188349
0.000596648
0.000199992
0.000619367
0.000212
0.000637872
0.00022427
0.000650462
0.000236618
0.000655011
0.000248883
0.000648928
0.000260778
0.000629059
0.000271973
0.000591688
0.000282039
0.000532402
0.000290487
0.00044605
0.000296739
0.000326276
0.000300096
0.000165089
-3.69e-05
0.000299824
2.39566e-05
1.94177e-05
-2.36264e-05
2.43091e-05
2.09936e-05
2.46909e-05
2.26977e-05
2.51022e-05
2.45386e-05
2.55467e-05
2.65274e-05
2.60266e-05
2.8676e-05
2.65445e-05
3.09971e-05
2.7104e-05
3.35037e-05
2.77089e-05
3.62016e-05
2.83626e-05
3.91202e-05
2.90691e-05
4.22808e-05
2.98316e-05
4.56947e-05
3.06571e-05
4.93819e-05
3.15497e-05
5.3339e-05
3.25192e-05
5.76037e-05
3.35657e-05
6.22423e-05
3.46994e-05
6.72496e-05
3.59287e-05
7.25889e-05
3.72627e-05
7.83791e-05
3.87038e-05
8.46656e-05
4.02696e-05
9.13724e-05
4.19661e-05
9.86142e-05
4.38021e-05
0.00010649
4.57961e-05
0.000114837
4.79551e-05
0.000123949
5.02936e-05
0.000133706
5.28292e-05
0.000144192
5.5572e-05
0.000155524
5.85452e-05
0.000167619
6.17583e-05
0.000180706
6.52364e-05
0.000194656
6.89946e-05
0.000209689
7.30601e-05
0.000225734
7.74507e-05
0.000242903
8.21861e-05
0.000261256
8.72937e-05
0.000280725
9.27925e-05
0.000301492
9.87095e-05
0.000323455
0.000105071
0.000346615
0.000111896
0.000370998
0.00011921
0.000396481
0.000127033
0.000422929
0.000135382
0.000450202
0.000144269
0.000478031
0.0001537
0.000506051
0.000163671
0.000533785
0.000174167
0.0005606
0.000185156
0.000585674
0.000196587
0.000607953
0.000208377
0.000626098
0.00022042
0.000638438
0.000232538
0.000642892
0.000244572
0.000636915
0.000256245
0.000617423
0.00026723
0.000580752
0.000277108
0.000522574
0.000285399
0.000437821
0.000291531
0.000320228
0.00029481
0.000161953
-3.63105e-05
0.000294465
2.3701e-05
1.90993e-05
-2.33754e-05
2.40479e-05
2.06497e-05
2.44221e-05
2.23262e-05
2.48262e-05
2.41372e-05
2.52619e-05
2.60936e-05
2.57328e-05
2.82071e-05
2.62409e-05
3.04903e-05
2.679e-05
3.29558e-05
2.7384e-05
3.56086e-05
2.80256e-05
3.84787e-05
2.87199e-05
4.15874e-05
2.94686e-05
4.49453e-05
3.028e-05
4.85717e-05
3.11565e-05
5.24613e-05
3.21093e-05
5.66524e-05
3.31369e-05
6.12137e-05
3.42507e-05
6.61375e-05
3.54577e-05
7.13815e-05
3.67679e-05
7.70706e-05
3.81829e-05
8.32506e-05
3.97203e-05
8.98367e-05
4.1386e-05
9.69486e-05
4.31886e-05
0.000104689
4.51465e-05
0.00011288
4.72663e-05
0.000121831
4.95624e-05
0.000131411
5.20519e-05
0.000141703
5.47452e-05
0.000152832
5.76645e-05
0.000164701
6.08198e-05
0.000177551
6.42351e-05
0.00019124
6.79265e-05
0.000205998
7.19181e-05
0.000221744
7.62308e-05
0.000238595
8.08814e-05
0.000256609
8.58981e-05
0.000275711
9.12993e-05
0.000296093
9.71116e-05
0.000317645
0.00010336
0.000340369
0.000110066
0.000364295
0.00011725
0.000389299
0.000124936
0.000415246
0.000133137
0.000442002
0.000141867
0.000469302
0.00015113
0.000496788
0.000160923
0.00052399
0.000171231
0.000550289
0.000182021
0.000574879
0.000193244
0.000596727
0.000204816
0.000614518
0.000216635
0.000626616
0.000228527
0.000630976
0.000240335
0.000625105
0.000251789
0.000605967
0.000262568
0.000569974
0.000272262
0.000512865
0.000280398
0.000429665
0.00028641
0.000314179
0.00028961
0.000158694
-3.60197e-05
0.000289208
2.3434e-05
1.87868e-05
-2.31163e-05
2.37735e-05
2.03121e-05
2.4141e-05
2.19613e-05
2.45374e-05
2.37429e-05
2.49654e-05
2.56674e-05
2.54281e-05
2.77466e-05
2.59272e-05
2.99924e-05
2.64669e-05
3.24175e-05
2.70502e-05
3.50258e-05
2.7681e-05
3.78481e-05
2.83628e-05
4.09058e-05
2.90988e-05
4.42084e-05
2.98957e-05
4.77751e-05
3.07573e-05
5.15983e-05
3.16932e-05
5.5717e-05
3.27033e-05
6.02024e-05
3.37975e-05
6.50441e-05
3.49838e-05
7.01946e-05
3.6271e-05
7.57846e-05
3.76614e-05
8.186e-05
3.91718e-05
8.83278e-05
4.08083e-05
9.53123e-05
4.25791e-05
0.00010292
4.45023e-05
0.000110957
4.65845e-05
0.00011975
4.88398e-05
0.000129156
5.12852e-05
0.000139259
5.39304e-05
0.000150187
5.67978e-05
0.000161834
5.9897e-05
0.000174453
6.32518e-05
0.000187885
6.68769e-05
0.000202373
7.07985e-05
0.000217825
7.50339e-05
0.000234362
7.96022e-05
0.000252044
8.45299e-05
0.000270785
8.98355e-05
0.000290789
9.5545e-05
0.000311938
0.000101683
0.000334234
0.00010827
0.000357711
0.000115328
0.000382246
0.000122877
0.000407702
0.000130933
0.000433952
0.000139507
0.000460735
0.000148605
0.0004877
0.000158222
0.000514384
0.000168343
0.000540181
0.000178937
0.0005643
0.000189954
0.000585727
0.000201312
0.000603175
0.000212911
0.000615035
0.00022458
0.000619306
0.000236166
0.000613539
0.000247406
0.000594761
0.000257983
0.00055944
0.000267496
0.000503397
0.00027548
0.000421736
0.000281372
0.00030836
0.000284496
0.000155697
-3.53486e-05
0.00028405
2.31553e-05
1.84804e-05
-2.28427e-05
2.34891e-05
1.99809e-05
2.38493e-05
2.16035e-05
2.42386e-05
2.33561e-05
2.46584e-05
2.52493e-05
2.51123e-05
2.72945e-05
2.56022e-05
2.95037e-05
2.61319e-05
3.18889e-05
2.6705e-05
3.44536e-05
2.73244e-05
3.72288e-05
2.79947e-05
4.02363e-05
2.8718e-05
4.34845e-05
2.95014e-05
4.69925e-05
3.03484e-05
5.07504e-05
3.12686e-05
5.47979e-05
3.22616e-05
5.92087e-05
3.33373e-05
6.39696e-05
3.45034e-05
6.90281e-05
3.57687e-05
7.45206e-05
3.71353e-05
8.04933e-05
3.86198e-05
8.68448e-05
4.02281e-05
9.37041e-05
4.19683e-05
0.000101181
4.38583e-05
0.000109067
4.59042e-05
0.000117705
4.81203e-05
0.00012694
5.05229e-05
0.000136858
5.31219e-05
0.000147589
5.5939e-05
0.000159018
5.89838e-05
0.000171408
6.22794e-05
0.000184588
6.58414e-05
0.000198811
6.96929e-05
0.000213975
7.38542e-05
0.000230205
7.83416e-05
0.000247559
8.31824e-05
0.000265946
8.83944e-05
0.000285579
9.40031e-05
0.000306331
0.000100033
0.000328206
0.000106503
0.000351243
0.000113436
0.000375316
0.000120851
0.000400288
0.000128764
0.00042604
0.000137184
0.000452315
0.000146118
0.000478764
0.000155562
0.000504938
0.000165499
0.00053024
0.000175899
0.000553895
0.000186713
0.000574908
0.000197861
0.000592017
0.000209244
0.000603646
0.000220694
0.000607827
0.000232063
0.000602163
0.000243092
0.000583727
0.000253471
0.000549057
0.000262808
0.000494041
0.000270641
0.000413875
0.000276418
0.000302536
0.000279465
0.000152575
-3.5011e-05
0.000278983
2.28615e-05
1.81792e-05
-2.25563e-05
2.31883e-05
1.96554e-05
2.35423e-05
2.12517e-05
2.39243e-05
2.2976e-05
2.43369e-05
2.48384e-05
2.47831e-05
2.68503e-05
2.52644e-05
2.90234e-05
2.57852e-05
3.13696e-05
2.63479e-05
3.38912e-05
2.6957e-05
3.66202e-05
2.76152e-05
3.9578e-05
2.83263e-05
4.27727e-05
2.90958e-05
4.62228e-05
2.99287e-05
4.99164e-05
3.08329e-05
5.38938e-05
3.18094e-05
5.82312e-05
3.28668e-05
6.29127e-05
3.40136e-05
6.78808e-05
3.52575e-05
7.32775e-05
3.66014e-05
7.91494e-05
3.80608e-05
8.53865e-05
3.96421e-05
9.21229e-05
4.13528e-05
9.94715e-05
4.32107e-05
0.000107209
4.52217e-05
0.000115695
4.73998e-05
0.000124763
4.9761e-05
0.000134498
5.23151e-05
0.000145036
5.50835e-05
0.000156251
5.80753e-05
0.000168417
6.13138e-05
0.000181349
6.4813e-05
0.000195311
6.8598e-05
0.000210192
7.26857e-05
0.00022612
7.70945e-05
0.000243153
8.18501e-05
0.000261192
8.69702e-05
0.00028046
9.248e-05
0.000300823
9.84031e-05
0.000322285
0.000104759
0.00034489
0.000111568
0.00036851
0.000118851
0.00039301
0.000126623
0.000418275
0.000134892
0.000444052
0.000143665
0.00047
0.000152937
0.000495677
0.000162693
0.000520497
0.000172902
0.0005437
0.000183516
0.000564311
0.000194458
0.000581091
0.000205629
0.000592493
0.000216865
0.000596591
0.000228021
0.000591026
0.000238845
0.000572935
0.000249031
0.000538911
0.000258194
0.000484919
0.000265881
0.000406236
0.000271543
0.000296941
0.000274517
0.000149715
-3.4296e-05
0.000274007
2.25568e-05
1.7884e-05
-2.22549e-05
2.2879e-05
1.93363e-05
2.32262e-05
2.09068e-05
2.36018e-05
2.26032e-05
2.40064e-05
2.44354e-05
2.44442e-05
2.64146e-05
2.49165e-05
2.85522e-05
2.54273e-05
3.08599e-05
2.598e-05
3.33392e-05
2.65778e-05
3.60226e-05
2.72247e-05
3.89318e-05
2.79231e-05
4.20738e-05
2.86799e-05
4.54669e-05
2.94983e-05
4.90972e-05
3.03876e-05
5.30056e-05
3.13475e-05
5.72707e-05
3.23874e-05
6.1874e-05
3.35149e-05
6.67532e-05
3.47382e-05
7.20556e-05
3.60595e-05
7.78281e-05
3.74945e-05
8.39529e-05
3.90493e-05
9.05683e-05
4.07313e-05
9.77908e-05
4.25578e-05
0.000105383
4.45348e-05
0.00011372
4.6676e-05
0.000122622
4.89969e-05
0.000132178
5.15074e-05
0.000142526
5.42282e-05
0.000153531
5.71686e-05
0.000165476
6.0351e-05
0.000178166
6.37901e-05
0.000191872
6.75083e-05
0.000206475
7.15251e-05
0.000222106
7.58565e-05
0.000238824
8.05287e-05
0.000256521
8.55589e-05
0.000275431
9.09715e-05
0.000295412
9.67899e-05
0.000316468
0.000103033
0.000338649
0.000109721
0.000361823
0.000116874
0.000385858
0.000124506
0.000410643
0.000132627
0.000435931
0.000141241
0.000461384
0.000150345
0.00048657
0.000159923
0.000510915
0.000169944
0.000533672
0.000180362
0.000553886
0.000191101
0.000570341
0.000202064
0.000581521
0.000213091
0.000585533
0.000224038
0.000580067
0.000234662
0.000562305
0.000244659
0.000528906
0.000253653
0.000475902
0.000261197
0.000398658
0.000266748
0.000291333
0.000269651
0.000146725
-3.39379e-05
0.000269117
2.22393e-05
1.75936e-05
-2.19448e-05
2.25548e-05
1.90225e-05
2.28961e-05
2.05676e-05
2.32646e-05
2.22366e-05
2.36623e-05
2.40392e-05
2.40926e-05
2.59863e-05
2.45567e-05
2.80892e-05
2.50589e-05
3.03591e-05
2.56017e-05
3.27967e-05
2.61893e-05
3.54354e-05
2.68245e-05
3.82966e-05
2.75109e-05
4.13866e-05
2.82542e-05
4.47236e-05
2.90587e-05
4.82915e-05
2.99324e-05
5.21319e-05
3.08763e-05
5.63259e-05
3.18985e-05
6.08523e-05
3.30073e-05
6.5644e-05
3.421e-05
7.08537e-05
3.55095e-05
7.65287e-05
3.69205e-05
8.2543e-05
3.84494e-05
8.90396e-05
4.01032e-05
9.61382e-05
4.18993e-05
0.000103587
4.3843e-05
0.000111777
4.5948e-05
0.000120517
4.82296e-05
0.000129897
5.06973e-05
0.000140059
5.33718e-05
0.000150857
5.62617e-05
0.000162587
5.93895e-05
0.000175037
6.27686e-05
0.000188492
6.64232e-05
0.000202822
7.03695e-05
0.000218162
7.46254e-05
0.00023457
7.92157e-05
0.000251932
8.41574e-05
0.000270491
8.94746e-05
0.000290096
9.51901e-05
0.000310755
0.000101322
0.000332519
0.000107892
0.000355257
0.000114917
0.000378837
0.000122412
0.000403154
0.000130386
0.000427963
0.000138844
0.000452934
0.000147782
0.000477642
0.000157185
0.000501524
0.000167022
0.000523848
0.000177248
0.000543676
0.000187788
0.000559816
0.000198548
0.000570779
0.00020937
0.000574711
0.000220115
0.000569339
0.000230542
0.000551907
0.000240355
0.000519129
0.000249183
0.000467109
0.000256588
0.000391297
0.00026203
0.000285948
0.000264865
0.000143988
-3.32083e-05
0.000264316
2.19147e-05
1.73087e-05
-2.16244e-05
2.22251e-05
1.87145e-05
2.25598e-05
2.02349e-05
2.29218e-05
2.18769e-05
2.3312e-05
2.36504e-05
2.37341e-05
2.5566e-05
2.41897e-05
2.76346e-05
2.46825e-05
2.98674e-05
2.52156e-05
3.22641e-05
2.57925e-05
3.48588e-05
2.64167e-05
3.76729e-05
2.7091e-05
4.07119e-05
2.78215e-05
4.39937e-05
2.8612e-05
4.75003e-05
2.9471e-05
5.12739e-05
3.03986e-05
5.53977e-05
3.14035e-05
5.98484e-05
3.24934e-05
6.45539e-05
3.36759e-05
6.96724e-05
3.49534e-05
7.52512e-05
3.63407e-05
8.11568e-05
3.7844e-05
8.75366e-05
3.947e-05
9.45134e-05
4.12358e-05
0.000101822
4.31468e-05
0.000109867
4.52163e-05
0.000118448
4.74592e-05
0.000127655
4.98851e-05
0.000137634
5.25138e-05
0.000148229
5.53544e-05
0.000159746
5.84283e-05
0.000171963
6.17497e-05
0.000185171
6.534e-05
0.000199232
6.92182e-05
0.000214286
7.33996e-05
0.00023039
7.79095e-05
0.000247424
8.27644e-05
0.000265637
8.79878e-05
0.000284874
9.36022e-05
0.000305142
9.96256e-05
0.000326497
0.000106078
0.000348807
0.000112977
0.000371938
0.000120337
0.000395793
0.000128168
0.000420131
0.000136473
0.000444627
0.000145248
0.000468863
0.000154479
0.000492288
0.000164135
0.000514183
0.000174173
0.00053363
0.000184519
0.000549458
0.00019508
0.000560207
0.000205702
0.000564054
0.000216248
0.000558778
0.000226484
0.000541662
0.000236117
0.000509486
0.000244784
0.000458416
0.000252052
0.00038399
0.000257389
0.000280546
0.000260159
0.000141118
-3.28527e-05
0.000259597
2.15822e-05
1.70285e-05
-2.1299e-05
2.18861e-05
1.84117e-05
2.22153e-05
1.99076e-05
2.25705e-05
2.15233e-05
2.29541e-05
2.32682e-05
2.33691e-05
2.51529e-05
2.38166e-05
2.71879e-05
2.43012e-05
2.93843e-05
2.48246e-05
3.17409e-05
2.53916e-05
3.42923e-05
2.60043e-05
3.706e-05
2.66668e-05
4.00488e-05
2.73839e-05
4.32762e-05
2.81608e-05
4.67224e-05
2.90042e-05
5.04302e-05
2.9916e-05
5.44852e-05
3.09032e-05
5.88613e-05
3.19747e-05
6.34822e-05
3.31368e-05
6.85109e-05
3.43929e-05
7.39953e-05
3.57566e-05
7.9794e-05
3.72346e-05
8.6059e-05
3.88331e-05
9.2916e-05
4.05691e-05
0.000100086
4.24477e-05
0.00010799
4.44821e-05
0.000116414
4.66869e-05
0.000125451
4.90714e-05
0.00013525
5.16552e-05
0.000145646
5.4447e-05
0.000156955
5.74682e-05
0.000168941
6.07317e-05
0.000181907
6.42606e-05
0.000195706
6.80706e-05
0.000210478
7.21791e-05
0.000226284
7.66099e-05
0.000242994
8.13794e-05
0.000260868
8.65106e-05
0.000279744
9.20255e-05
0.000299629
9.79417e-05
0.000320583
0.000104279
0.000342472
0.000111055
0.000365166
0.000118282
0.00038857
0.000125972
0.000412448
0.000134126
0.00043648
0.000142742
0.000460256
0.000151804
0.000483236
0.000161284
0.000504715
0.000171137
0.000523791
0.000181293
0.000539316
0.000191659
0.000549857
0.000202087
0.000553628
0.000212439
0.000548442
0.000222488
0.000531641
0.000231945
0.000500061
0.000240455
0.00044994
0.000247589
0.000376893
0.000252825
0.000275361
0.000255532
0.000138494
-3.213e-05
0.000254964
2.12478e-05
1.67538e-05
-2.09673e-05
2.15476e-05
1.81148e-05
2.18703e-05
1.95868e-05
2.22197e-05
2.11766e-05
2.25957e-05
2.28935e-05
2.30029e-05
2.47477e-05
2.3442e-05
2.67498e-05
2.39171e-05
2.89103e-05
2.44311e-05
3.12275e-05
2.49873e-05
3.37364e-05
2.55893e-05
3.64586e-05
2.62396e-05
3.93982e-05
2.69443e-05
4.25722e-05
2.7707e-05
4.59591e-05
2.8536e-05
4.96022e-05
2.94315e-05
5.35893e-05
3.04018e-05
5.78921e-05
3.14543e-05
6.24295e-05
3.25965e-05
6.73699e-05
3.38307e-05
7.27613e-05