/*--------------------------------*- C++ -*----------------------------------*\
  =========                 |
  \\      /  F ield         | OpenFOAM: The Open Source CFD Toolbox
   \\    /   O peration     | Website:  https://openfoam.org
    \\  /    A nd           | Version:  6.0
     \\/     M anipulation  |
\*---------------------------------------------------------------------------*/
FoamFile
{
    version     2.0;
    format      ascii;
    class       volScalarField;
    location    "5";
    object      p;
}
// * * * * * * * * * * * * * * * * * * * * * * * * * * * * * * * * * * * * * //

dimensions      [0 2 -2 0 0 0 0];

internalField   nonuniform List<scalar> 
62000
(
0.00531607
0.00591544
0.00648418
0.00700243
0.00748413
0.00793052
0.00835558
0.00875766
0.00914559
0.00951203
0.00986394
0.010191
0.0105011
0.0107816
0.0110423
0.0112693
0.0114735
0.0116406
0.0117814
0.011882
0.0119521
0.0119784
0.0119688
0.0119101
0.0118077
0.0116481
0.0114333
0.0111488
0.010792
0.0103469
0.00980676
0.00915289
0.00837208
0.00743689
0.00632399
0.00501373
0.00348854
0.00172985
-0.000276938
-0.00253797
-0.00504696
-0.00778177
-0.0107012
-0.0137422
-0.0168213
-0.0198346
-0.0226634
-0.0251869
-0.0272765
-0.0288368
-0.0297611
-0.0300042
-0.0295063
-0.0282773
-0.0262811
-0.0235025
-0.0197401
-0.0151816
-0.0122027
-0.0225697
0.00340061
0.00414441
0.00484934
0.0054843
0.00605427
0.00655584
0.0070078
0.00741794
0.00780279
0.00816176
0.00850497
0.0088252
0.00913043
0.00940984
0.00967198
0.0099046
0.0101168
0.0102964
0.010452
0.0105722
0.0106641
0.010717
0.0107359
0.0107105
0.0106429
0.0105228
0.0103483
0.0101086
0.00979685
0.00940085
0.00890862
0.00830506
0.00757058
0.00667871
0.00560355
0.00432112
0.00280768
0.00103696
-0.00101455
-0.00336339
-0.00601543
-0.00896193
-0.0121751
-0.0156045
-0.0191758
-0.0227889
-0.0263212
-0.0296371
-0.0325798
-0.035014
-0.0367709
-0.0377347
-0.0377433
-0.0367011
-0.0344104
-0.0306673
-0.024964
-0.0174732
-0.00957904
-0.00719871
0.00153469
0.0022372
0.00290794
0.00352701
0.00408217
0.0045555
0.00496171
0.00531116
0.00562523
0.00590841
0.00617511
0.00642121
0.0066568
0.00687211
0.00707644
0.00725755
0.00742452
0.00756484
0.00768705
0.00777931
0.00784864
0.0078844
0.00789143
0.00785982
0.00779178
0.00767774
0.00751617
0.00729776
0.00701613
0.00666123
0.00622176
0.00568489
0.00503189
0.00423961
0.00328354
0.0021426
0.000793259
-0.00079154
-0.00263654
-0.00476054
-0.0071735
-0.00987242
-0.0128369
-0.016025
-0.0193711
-0.0227823
-0.0261399
-0.0293083
-0.0321221
-0.0344324
-0.0360435
-0.0368116
-0.0365299
-0.0350667
-0.0321769
-0.0276352
-0.0209805
-0.0126804
-0.00405151
-0.000608288
0.000691697
0.0012735
0.00184449
0.00239595
0.00289772
0.00331724
0.00366177
0.00393923
0.00417132
0.00436473
0.00453625
0.00468462
0.00482188
0.00494051
0.00505075
0.00514187
0.00522324
0.00528329
0.00533042
0.00535339
0.00535889
0.00533677
0.00529166
0.00521416
0.00510677
0.0049606
0.00477492
0.00454167
0.00425579
0.00390925
0.00349242
0.00299512
0.00240156
0.00169043
0.000843869
-0.00015672
-0.00133118
-0.00270439
-0.00429938
-0.00613403
-0.00821892
-0.0105535
-0.0131216
-0.0158879
-0.0187946
-0.0217577
-0.0246666
-0.0273921
-0.0297721
-0.0316582
-0.0328496
-0.033198
-0.0324875
-0.030591
-0.0272749
-0.0223624
-0.0155318
-0.00747503
0.00105936
0.00576031
0.000389463
0.000858185
0.0013379
0.00182599
0.00228043
0.00265921
0.00296276
0.00319549
0.0033769
0.00351346
0.00362201
0.00370236
0.00376736
0.00381078
0.00384377
0.00385677
0.00385992
0.00384266
0.00381405
0.00376362
0.0036986
0.00360947
0.00350122
0.00336509
0.00320404
0.00300987
0.00278266
0.00251543
0.00220437
0.00184308
0.0014239
0.000938888
0.000373794
-0.000286545
-0.00105912
-0.0019561
-0.00299394
-0.00419435
-0.00557743
-0.00715881
-0.00894807
-0.0109451
-0.0131362
-0.0154906
-0.0179573
-0.0204605
-0.0228987
-0.025152
-0.0270656
-0.0284995
-0.0292556
-0.0291951
-0.0281037
-0.0258726
-0.0222954
-0.0172453
-0.0104967
-0.00277783
0.0058887
0.0116924
0.000247742
0.00062847
0.00103658
0.00147303
0.00188947
0.00223836
0.00251593
0.00272367
0.00287881
0.00298673
0.00306327
0.00310831
0.00313433
0.00313571
0.00312343
0.00308879
0.00304184
0.00297307
0.00289155
0.00278784
0.00266935
0.0025276
0.00236782
0.0021822
0.00197415
0.00173635
0.00146959
0.00116787
0.000828536
0.000446511
1.57193e-05
-0.000470038
-0.00102145
-0.00165401
-0.00237714
-0.00320128
-0.00413833
-0.00520648
-0.00642257
-0.0077995
-0.00934502
-0.0110584
-0.012927
-0.0149234
-0.0170015
-0.019093
-0.0211046
-0.022926
-0.0244113
-0.0254305
-0.0257927
-0.0253705
-0.0239555
-0.0214585
-0.0176972
-0.0125722
-0.00590542
0.00164927
0.0106281
0.0174334
0.00012255
0.000439875
0.000794214
0.00118975
0.00157479
0.00189933
0.00215715
0.00234844
0.00248881
0.00258284
0.00264523
0.00267546
0.00268522
0.00266881
0.00263671
0.00258029
0.00250931
0.00241454
0.00230501
0.00217169
0.0020222
0.00184861
0.00165648
0.00143871
0.00119916
0.000931256
0.000636453
0.000309622
-5.098e-05
-0.000449283
-0.000889921
-0.00137739
-0.00192207
-0.00253314
-0.00322142
-0.00399121
-0.00485164
-0.00581753
-0.0069024
-0.00811627
-0.00946465
-0.0109455
-0.0125464
-0.0142416
-0.0159893
-0.0177267
-0.0193678
-0.0208112
-0.0219192
-0.0225727
-0.0225868
-0.0218477
-0.0201502
-0.017421
-0.0134952
-0.00828593
-0.00163028
0.00592232
0.0153145
0.0230391
-1.57621e-05
0.0002549
0.000569407
0.000934084
0.00129492
0.00160023
0.00184247
0.00202117
0.00215104
0.00223637
0.00229115
0.00231476
0.00231822
0.00229588
0.00225743
0.00219441
0.00211582
0.0020127
0.00189338
0.00174919
0.00158732
0.00140037
0.00119369
0.00096087
0.000705883
0.000422838
0.000113643
-0.000226104
-0.000597351
-0.00100314
-0.00144702
-0.00193243
-0.00246639
-0.0030603
-0.00371766
-0.00444266
-0.00524062
-0.00612323
-0.00710091
-0.00818085
-0.00936624
-0.0106534
-0.0120294
-0.0134698
-0.0149352
-0.0163677
-0.017687
-0.0187994
-0.0195746
-0.0199025
-0.0196054
-0.0185792
-0.0166219
-0.0136719
-0.00957565
-0.00424563
0.0024798
0.0101589
0.0200291
0.028599
-0.000166282
7.2905e-05
0.000359055
0.000700584
0.001042
0.00133103
0.00155937
0.00172665
0.00184716
0.00192534
0.0019747
0.00199469
0.0019958
0.00197241
0.00193369
0.00187112
0.0017932
0.00169092
0.00157218
0.00142829
0.00126613
0.00107837
0.000870169
0.000635372
0.000377966
9.24347e-05
-0.000219023
-0.000560292
-0.000931777
-0.0013358
-0.0017749
-0.00225128
-0.00277255
-0.00334391
-0.00397199
-0.00465557
-0.00539822
-0.00620892
-0.00709518
-0.00806153
-0.00910882
-0.0102315
-0.0114158
-0.0126375
-0.0138592
-0.0150263
-0.0160633
-0.0168829
-0.0173608
-0.0173957
-0.0168136
-0.0155219
-0.0133165
-0.0101456
-0.0058626
-0.000375381
0.00648434
0.0143695
0.0247444
0.0341045
-0.000351969
-0.000135646
0.000130999
0.000457554
0.000786856
0.0010658
0.00128539
0.00144528
0.00155952
0.00163287
0.00167864
0.0016967
0.00169726
0.00167501
0.00163869
0.00158005
0.00150695
0.00141064
0.00129827
0.00116136
0.00100615
0.000825534
0.000624178
0.000396221
0.000145415
-0.000133434
-0.000438065
-0.000771972
-0.00113516
-0.0015294
-0.00195659
-0.00241832
-0.00291911
-0.00346752
-0.00406316
-0.00470591
-0.00539635
-0.00614094
-0.00694464
-0.00780948
-0.00873407
-0.009711
-0.0107252
-0.0117526
-0.0127568
-0.0136858
-0.0144678
-0.0150206
-0.0152251
-0.0149867
-0.0141361
-0.0125879
-0.0101367
-0.0067381
-0.00224953
0.00342983
0.0104763
0.0186275
0.0295221
0.0396222
-0.000574504
-0.000372473
-0.000118115
0.000199361
0.000521577
0.000794953
0.00100994
0.00116648
0.00127833
0.00135061
0.00139632
0.00141563
0.00141841
0.00139971
0.00136789
0.00131499
0.00124854
0.00116002
0.00105628
0.000928948
0.000783951
0.000614289
0.000424282
0.000208183
-3.04668e-05
-0.00029674
-0.000588371
-0.000908632
-0.00125729
-0.00163576
-0.0020452
-0.00248639
-0.00296499
-0.0034834
-0.00404549
-0.00464624
-0.00528524
-0.00596688
-0.00669371
-0.00746546
-0.00827858
-0.00912373
-0.00998451
-0.0108363
-0.0116433
-0.0123554
-0.0129034
-0.0132096
-0.0131586
-0.0126625
-0.0115536
-0.00975558
-0.00705789
-0.00342303
0.00128815
0.00718513
0.0144536
0.0229018
0.0343103
0.0451169
-0.000823633
-0.000630889
-0.00038332
-6.94476e-05
0.000250829
0.000523264
0.000737666
0.000894122
0.00100617
0.00107934
0.00112647
0.00114823
0.00115431
0.0011402
0.00111396
0.00106805
0.00100957
0.000930422
0.000836888
0.000721002
0.000588149
0.000431692
0.00025547
5.40495e-05
-0.000169343
-0.000419564
-0.000694464
-0.0009971
-0.0013271
-0.00168553
-0.00207326
-0.00249068
-0.00294056
-0.00342946
-0.00395425
-0.00451186
-0.00509938
-0.00571925
-0.00637187
-0.00705482
-0.00776255
-0.00848382
-0.00920077
-0.00988809
-0.0105102
-0.0110181
-0.0113449
-0.011416
-0.0111195
-0.0103725
-0.00901007
-0.00696095
-0.00401241
-0.000131608
0.00481808
0.0109562
0.0184761
0.0272489
0.0391655
0.0506496
-0.0010704
-0.000879876
-0.000634368
-0.000321393
-1.68244e-06
0.000270456
0.000484509
0.000641121
0.000753693
0.000828281
0.000877469
0.000902338
0.000912256
0.00090315
0.000882755
0.0008439
0.000793375
0.000723461
0.000640184
0.000535824
0.000415555
0.000272926
0.000111508
-7.39674e-05
-0.000280474
-0.000512769
-0.00076876
-0.00105138
-0.00136015
-0.00169595
-0.00205909
-0.00244937
-0.00287109
-0.00332455
-0.0038117
-0.00432477
-0.00486037
-0.00541931
-0.00599996
-0.00659791
-0.00720568
-0.00781011
-0.00839182
-0.00892454
-0.0093725
-0.00968749
-0.00980385
-0.00965024
-0.00911669
-0.00812558
-0.00651182
-0.00421289
-0.00100892
0.00312631
0.00832718
0.0147219
0.0225118
0.0316195
0.0440246
0.0561722
-0.00134448
-0.00115367
-0.000906339
-0.000589533
-0.000265443
1.11346e-05
0.000229136
0.000389543
0.000505628
0.000583966
0.00063708
0.000666604
0.000681788
0.000679007
0.000665761
0.000635311
0.000594056
0.000534712
0.000462827
0.000371096
0.000264251
0.000136276
-9.66913e-06
-0.000178464
-0.000367336
-0.00058079
-0.000816846
-0.00107824
-0.00136441
-0.00167597
-0.00201308
-0.00237528
-0.00276406
-0.00318439
-0.00363115
-0.00409908
-0.00458255
-0.0050808
-0.00559035
-0.00610491
-0.00661516
-0.00710614
-0.00755686
-0.00794001
-0.00821938
-0.00834712
-0.00825863
-0.00788472
-0.00711733
-0.00588267
-0.00401727
-0.00146366
0.00200176
0.00640051
0.0118651
0.0185328
0.0266111
0.0360679
0.0489446
0.0617468
-0.00163914
-0.0014438
-0.00119126
-0.000867941
-0.000536973
-0.000253466
-2.879e-05
0.000138453
0.000261401
0.000347039
0.000407606
0.000445061
0.000468334
0.000474203
0.000469868
0.000448959
0.000417675
0.000369131
0.000308746
0.000229522
0.000136084
2.26735e-05
-0.000107718
-0.000259734
-0.000430723
-0.000625039
-0.000840719
-0.00108035
-0.00134329
-0.00162997
-0.00194006
-0.00227261
-0.00263083
-0.00301335
-0.00342061
-0.00384276
-0.00427401
-0.00471223
-0.00515218
-0.00558578
-0.00600195
-0.00638387
-0.00670891
-0.00694859
-0.00706598
-0.00701324
-0.00672617
-0.00613774
-0.00514081
-0.00366563
-0.00154787
0.00126156
0.00499365
0.00966352
0.0154012
0.0223519
0.0307293
0.0405376
0.0538534
0.0673156
-0.00194713
-0.00174564
-0.00148528
-0.00115216
-0.000810942
-0.000517256
-0.000283074
-0.000106661
2.49645e-05
0.000119281
0.00018843
0.000234879
0.000267402
0.000283164
0.000289125
0.000279303
0.000259526
0.000223342
0.000175739
0.000110165
3.08781e-05
-6.73863e-05
-0.000181962
-0.000317035
-0.000470132
-0.000645298
-0.000840628
-0.00105847
-0.00129809
-0.00155962
-0.00184267
-0.00214601
-0.00247009
-0.0028185
-0.0031845
-0.00356111
-0.00394045
-0.00431907
-0.00469006
-0.0050436
-0.00536697
-0.00564156
-0.00584308
-0.00594174
-0.0058998
-0.00566914
-0.00518581
-0.00438415
-0.00315792
-0.00144024
0.000932196
0.00400326
0.00800808
0.012957
0.0189783
0.0262247
0.0349147
0.0450842
0.0588196
0.0729408
-0.00222976
-0.00201741
-0.00174684
-0.0014035
-0.00105271
-0.000750132
-0.000507862
-0.000323486
-0.000184035
-8.14581e-05
-3.83919e-06
5.16587e-05
9.34987e-05
0.000119213
0.000135442
0.000136491
0.000127962
0.000103714
6.85993e-05
1.63079e-05
-4.89912e-05
-0.000132318
-0.000231148
-0.000349413
-0.000484706
-0.000640887
-0.000816015
-0.00101226
-0.00122874
-0.00146543
-0.00172141
-0.00199499
-0.00228844
-0.00259887
-0.00292547
-0.00325666
-0.00358458
-0.00390461
-0.00420822
-0.00448395
-0.00471741
-0.00488819
-0.00497028
-0.00493254
-0.00473612
-0.00433238
-0.00365712
-0.0026462
-0.00119322
0.000765451
0.00339446
0.00672823
0.0110108
0.0162449
0.0225571
0.0301065
0.0391164
0.0496473
0.0637941
0.0785581
-0.00252332
-0.00229963
-0.00201663
-0.00165955
-0.00129529
-0.000979933
-0.000726118
-0.000530946
-0.000381485
-0.000269076
-0.000181808
-0.000116272
-6.41115e-05
-2.74064e-05
2.53844e-07
1.35341e-05
1.76273e-05
6.76575e-06
-1.46629e-05
-5.25729e-05
-0.000103186
-0.000171051
-0.000253967
-0.000355403
-0.000473094
-0.000610568
-0.0007659
-0.000940975
-0.00113482
-0.00134704
-0.00157665
-0.00182168
-0.00208159
-0.0023587
-0.00264482
-0.0029315
-0.00320888
-0.00347114
-0.0037082
-0.00390698
-0.00405152
-0.00411966
-0.00408367
-0.00391097
-0.00356147
-0.00298587
-0.00211963
-0.000899346
0.00078141
0.00298413
0.00587247
0.00947494
0.0140408
0.0195673
0.0261799
0.0340435
0.0433851
0.0542861
0.0688587
0.0842331
-0.00281312
-0.00257525
-0.00227786
-0.0019058
-0.00152684
-0.00119747
-0.000930482
-0.000722475
-0.000560545
-0.000435588
-0.000335935
-0.000257878
-0.000193369
-0.000144133
-0.000104053
-7.81697e-05
-6.14568e-05
-5.93507e-05
-6.75393e-05
-9.16872e-05
-0.000128067
-0.000180984
-0.000248352
-0.000333383
-0.000433851
-0.000553092
-0.000689114
-0.000843605
-0.00101541
-0.00120396
-0.0014077
-0.00162422
-0.00185485
-0.00209523
-0.00234343
-0.00258629
-0.0028141
-0.00302
-0.00319237
-0.00331655
-0.00337498
-0.00334374
-0.00319332
-0.00288959
-0.00239108
-0.00164761
-0.000593915
0.000832562
0.00273942
0.00518521
0.00833468
0.0122071
0.0170607
0.0228854
0.0298042
0.0379879
0.0476668
0.0589378
0.0739424
0.0898979
-0.00309598
-0.00284362
-0.00253034
-0.00214084
-0.00174461
-0.00139866
-0.00111641
-0.000894007
-0.00071863
-0.000580594
-0.00046828
-0.000377425
-0.000300135
-0.00023776
-0.000184439
-0.000144845
-0.00011437
-9.80472e-05
-9.20258e-05
-0.000101546
-0.000123255
-0.000160961
-0.000212882
-0.000281753
-0.000365474
-0.00046704
-0.000584458
-0.000719117
-0.000869741
-0.00103538
-0.00121441
-0.00140411
-0.00160295
-0.00181194
-0.00202159
-0.00222204
-0.00240162
-0.00255233
-0.00266107
-0.00271162
-0.00268493
-0.00255534
-0.00229155
-0.00185782
-0.00121118
-0.000300549
0.000940262
0.00257362
0.00470815
0.0074002
0.0108139
0.0149621
0.0201088
0.0262383
0.0334721
0.0419865
0.0520137
0.0636635
0.0791115
0.0956233
-0.00332521
-0.00305453
-0.00272409
-0.00231811
-0.00190667
-0.0015469
-0.00125219
-0.00101792
-0.000831158
-0.000681612
-0.000557816
-0.000455165
-0.00036603
-0.000291453
-0.000225848
-0.000173697
-0.000130558
-0.00010125
-8.19967e-05
-7.78885e-05
-8.56186e-05
-0.00010881
-0.000145799
-0.000199092
-0.000266615
-0.000351183
-0.000450715
-0.000566397
-0.000696741
-0.000840625
-0.000995805
-0.00115912
-0.00133093
-0.00150546
-0.00167961
-0.00183877
-0.00197145
-0.00206868
-0.00211588
-0.00209528
-0.00198631
-0.00176154
-0.00138781
-0.000827669
-3.65721e-05
0.00103764
0.00246241
0.00429995
0.00666092
0.00959841
0.0132777
0.0177022
0.0231459
0.0295848
0.0371384
0.0459887
0.0563687
0.0683973
0.0842898
0.101339
-0.00354863
-0.00326017
-0.00291115
-0.00248568
-0.00205558
-0.00167844
-0.00136821
-0.00111967
-0.000919848
-0.000757739
-0.000621835
-0.000506897
-0.000405404
-0.000317995
-0.000239343
-0.000173569
-0.000116706
-7.3216e-05
-3.98387e-05
-2.1295e-05
-1.4699e-05
-2.3216e-05
-4.55106e-05
-8.36386e-05
-0.000135637
-0.000203991
-0.000286597
-0.000384332
-0.000495576
-0.000618772
-0.00075163
-0.000890603
-0.0010332
-0.00117904
-0.00131741
-0.00143703
-0.00152445
-0.00156964
-0.00155656
-0.00146594
-0.00127576
-0.000956896
-0.000474187
0.000211381
0.00114621
0.00238329
0.00399207
0.00603453
0.00862375
0.0118095
0.0157576
0.0204641
0.0262101
0.0329648
0.0408467
0.0500433
0.0607869
0.0732028
0.0895474
0.107118
-0.00374663
-0.00343833
-0.00306955
-0.0026242
-0.002175
-0.00178004
-0.00145332
-0.00118906
-0.000974224
-0.000797328
-0.00064705
-0.000517877
-0.000402546
-0.000301402
-0.000209355
-0.000130327
-6.0444e-05
-3.94036e-06
4.24395e-05
7.41219e-05
9.39858e-05
9.90363e-05
9.05111e-05
6.65719e-05
2.91698e-05
-2.40097e-05
-9.07592e-05
-0.000171749
-0.000265115
-0.000369128
-0.000480819
-0.000596228
-0.000714683
-0.000829059
-0.000935013
-0.00101648
-0.00106024
-0.00105528
-0.000984192
-0.000826119
-0.000557709
-0.000147783
0.000440383
0.00124817
0.00232292
0.00371998
0.00550917
0.00775492
0.0105703
0.0140046
0.0182208
0.0232112
0.0292623
0.0363366
0.0445513
0.0540988
0.0652096
0.0780131
0.0948084
0.112886
-0.0039204
-0.00359263
-0.00320317
-0.00273584
-0.00226529
-0.00185019
-0.00150523
-0.00122406
-0.000993674
-0.000801928
-0.000637505
-0.000494282
-0.000365154
-0.000250075
-0.000144243
-5.1196e-05
3.2445e-05
0.000102852
0.000162759
0.000208002
0.000241049
0.000259391
0.000263953
0.000253358
0.000229465
0.000190282
0.000138058
7.24437e-05
-4.56032e-06
-9.07409e-05
-0.000183105
-0.000277216
-0.000369654
-0.000458542
-0.000532029
-0.00057734
-0.000579251
-0.000525812
-0.000398128
-0.000174012
0.000171481
0.000671086
0.00136381
0.00229239
0.00350653
0.00506225
0.00703252
0.00948137
0.0125256
0.0162096
0.0206987
0.0259779
0.0323396
0.0397397
0.0482955
0.0582045
0.0696934
0.0828929
0.100145
0.118719
-0.00401531
-0.00366462
-0.00325382
-0.00276636
-0.00227748
-0.00184605
-0.00148659
-0.00119196
-0.000948903
-0.00074467
-0.000567991
-0.000412483
-0.000271205
-0.000143924
-2.60068e-05
7.90433e-05
0.000174555
0.000256762
0.000328431
0.000385409
0.000430193
0.000460371
0.00047679
0.000478252
0.000466635
0.000440101
0.000401038
0.000349297
0.000287175
0.000217038
0.000142641
6.87651e-05
-2.79877e-06
-6.37168e-05
-0.000108232
-0.000118933
-8.07592e-05
1.90633e-05
0.000200879
0.000488278
0.00090774
0.00149387
0.00228755
0.00333378
0.00468331
0.00639518
0.00854239
0.0111937
0.014463
0.0183987
0.0231571
0.0287288
0.0354031
0.0431315
0.0520323
0.062307
0.0741774
0.0877738
0.105479
0.124541
-0.00408581
-0.00371326
-0.00328007
-0.00276962
-0.00225909
-0.00180791
-0.00143113
-0.00112095
-0.000863983
-0.000646698
-0.000457731
-0.000290006
-0.000136697
2.85247e-06
0.000132979
0.000250559
0.000358367
0.000452999
0.000536651
0.000605524
0.000661677
0.000703143
0.000730452
0.000742841
0.000742131
0.000726794
0.000699288
0.000659808
0.000610785
0.000555154
0.000496643
0.000440676
0.00039152
0.000352724
0.000337047
0.000358861
0.000435054
0.000579429
0.000813557
0.0011627
0.00165445
0.00232574
0.00321873
0.00438141
0.00586469
0.00773209
0.0100554
0.0129101
0.016405
0.0205951
0.0256264
0.0314978
0.0384885
0.0465515
0.0558061
0.0664576
0.0787205
0.0927222
0.110885
0.130428
-0.00410754
-0.0037114
-0.00325504
-0.00272178
-0.0021897
-0.00171887
-0.00132432
-0.000997648
-0.000725318
-0.000493291
-0.000290349
-0.000109151
5.69041e-05
0.000208737
0.000350496
0.000479188
0.00059756
0.000702365
0.000795866
0.000874333
0.000939876
0.000990646
0.00102712
0.00104871
0.00105728
0.00105145
0.00103385
0.00100486
0.000967271
0.000924142
0.000880073
0.000840695
0.000809068
0.00079455
0.00080423
0.000856828
0.00096908
0.00115554
0.00143935
0.00184694
0.00240796
0.00316051
0.00414974
0.00542457
0.00703871
0.00905756
0.0115545
0.0146099
0.0183281
0.0227728
0.0280733
0.0342495
0.0415584
0.0499579
0.0595697
0.0706024
0.0832613
0.0976701
0.116286
0.136304
-0.0040845
-0.00366559
-0.00318552
-0.00262759
-0.00207203
-0.00157957
-0.00116596
-0.000822151
-0.000534594
-0.000288497
-7.26254e-05
0.000121054
0.000298964
0.000462478
0.000615413
0.000755219
0.000884087
0.000999212
0.00110231
0.00119006
0.00126417
0.00132327
0.00136755
0.00139687
0.00141306
0.00141503
0.00140551
0.00138523
0.00135711
0.00132487
0.00129299
0.00126807
0.00125514
0.00125931
0.00129402
0.00137518
0.0015211
0.00174749
0.00207878
0.00254292
0.00317122
0.00400321
0.00508684
0.00647187
0.00821534
0.010384
0.0130543
0.0163099
0.0202527
0.0249531
0.0305288
0.0370141
0.0446467
0.0533893
0.0633673
0.074793
0.0878594
0.102684
0.121754
0.142244
-0.00395776
-0.00351272
-0.00300882
-0.0024291
-0.00185426
-0.00134532
-0.000917718
-0.000561545
-0.000262863
-6.24942e-06
0.000219572
0.000422884
0.00061001
0.000782471
0.00094399
0.00109198
0.00122866
0.00135121
0.00146146
0.00155602
0.00163669
0.00170214
0.00175252
0.00178783
0.00181
0.00181801
0.00181484
0.00180141
0.00178106
0.00175761
0.0017366
0.00172462
0.00172582
0.00175046
0.00180669
0.00191426
0.00209163
0.00235522
0.00273078
0.00324833
0.00393996
0.00484817
0.00602177
0.00751389
0.00938215
0.011698
0.0145372
0.0179915
0.0221547
0.0271119
0.0329577
0.0397587
0.0477163
0.0568035
0.0671509
0.0789742
0.0924528
0.107695
0.127214
0.148172
-0.00379721
-0.00332783
-0.00279946
-0.00219519
-0.00159781
-0.00106897
-0.000624638
-0.000254131
5.66717e-05
0.00032409
0.000559547
0.000772102
0.000967977
0.00114916
0.00131909
0.00147556
0.00162022
0.00175062
0.001868
0.0019693
0.00205591
0.00212689
0.00218216
0.00222204
0.00224854
0.00226089
0.00226223
0.00225385
0.00223927
0.00222306
0.00221063
0.00220955
0.00222575
0.0022652
0.00234258
0.00247403
0.00268022
0.00297838
0.00339608
0.00396457
0.00471777
0.00569964
0.00696156
0.00855802
0.0105498
0.0130105
0.0160185
0.01967
0.0240551
0.0292695
0.0353921
0.0425136
0.0508001
0.0602389
0.0709653
0.0831983
0.0971019
0.112771
0.132735
0.154163
-0.00358121
-0.00308631
-0.00253328
-0.0019052
-0.00128586
-0.000737609
-0.000276335
0.000109315
0.00043368
0.000713627
0.000960475
0.00118356
0.0013889
0.00157877
0.00175644
0.00191983
0.00207061
0.00220643
0.00232868
0.00243427
0.00252472
0.00259913
0.00265739
0.00269998
0.00272902
0.00274384
0.00274788
0.00274261
0.00273208
0.00272107
0.00271587
0.00272419
0.00275058
0.00280728
0.00290117
0.0030544
0.00328667
0.00361659
0.00407319
0.00468916
0.00550029
0.00655196
0.0078983
0.00959519
0.0117065
0.0143085
0.0174816
0.0213273
0.0259308
0.0314019
0.0377974
0.0452445
0.0538625
0.0636546
0.0747632
0.0874106
0.101745
0.117843
0.138252
0.160144
-0.00331888
-0.00279986
-0.00222196
-0.00156833
-0.000925081
-0.000355353
0.000124243
0.000525751
0.000863578
0.00115541
0.00141263
0.0016453
0.00185933
0.0020574
0.00224251
0.00241299
0.00256995
0.00271146
0.00283838
0.00294797
0.00304139
0.00311814
0.00317793
0.00322159
0.00325135
0.00326677
0.00327158
0.0032676
0.00325926
0.00325188
0.00325173
0.0032671
0.00330529
0.00337181
0.00348242
0.0036544
0.00391027
0.00426968
0.00476285
0.00542444
0.00629105
0.00741068
0.00883869
0.0106342
0.0128624
0.0156043
0.0189404
0.0229807
0.0278019
0.0335318
0.0402055
0.0479809
0.0569351
0.067088
0.078589
0.0916629
0.106441
0.122972
0.143841
0.166194
-0.00294492
-0.00239868
-0.00179638
-0.00112099
-0.000459052
0.000125983
0.000617911
0.00102974
0.00137633
0.00167607
0.00194038
0.00217964
0.00239956
0.00260306
0.00279295
0.00296758
0.003128
0.0032723
0.00340141
0.00351248
0.00360677
0.0036838
0.00374327
0.00378613
0.0038148
0.003829
0.00383282
0.00382834
0.0038205
0.0038147
0.00381801
0.00383911
0.00388298
0.00396222
0.00408451
0.00427315
0.00455066
0.00493695
0.00546393
0.00616762
0.00708626
0.00826977
0.00977572
0.0116656
0.014007
0.0168848
0.0203805
0.024611
0.0296473
0.0356335
0.0425821
0.050689
0.0599823
0.0704984
0.0823951
0.0958998
0.111127
0.128095
0.149441
0.172243
-0.00253932
-0.00196798
-0.0013406
-0.000640247
4.42033e-05
0.000648604
0.00115618
0.00158078
0.0019375
0.00224569
0.00251697
0.00276253
0.002988
0.00319676
0.00339128
0.00357033
0.00373427
0.00388158
0.00401255
0.00412467
0.00421879
0.00429488
0.00435237
0.00439273
0.00441846
0.00442962
0.00443058
0.00442382
0.00441452
0.00440851
0.00441295
0.00443691
0.00448801
0.00457242
0.00470686
0.00491042
0.00520761
0.00561903
0.00617799
0.00692181
0.00789049
0.00913541
0.0107171
0.0126985
0.0151512
0.0181621
0.0218167
0.0262356
0.0314883
0.0377304
0.0449603
0.0533984
0.0630356
0.0739228
0.0862257
0.100173
0.115862
0.133277
0.155122
0.178364
-0.00207292
-0.00147556
-0.000823086
-9.86313e-05
0.000607757
0.00123116
0.00175476
0.00219324
0.00256178
0.00288043
0.00316053
0.00341366
0.00364508
0.00385856
0.00405629
0.00423726
0.00440176
0.00454851
0.00467795
0.00478764
0.0048786
0.00495095
0.00500411
0.00503983
0.00506068
0.00506703
0.00506341
0.00505259
0.00503999
0.00503178
0.00503566
0.00506127
0.00511373
0.00520743
0.00534974
0.00556678
0.00588175
0.00631596
0.00690393
0.00768461
0.00869944
0.010002
0.0116551
0.0137242
0.0162839
0.0194241
0.0232334
0.027837
0.0333025
0.0397975
0.0473057
0.0560765
0.0660611
0.0773222
0.0900346
0.10443
0.120588
0.138459
0.16082
0.184491
-0.00152666
-0.000903692
-0.000225569
0.000524702
0.00125399
0.00189693
0.00243563
0.00288594
0.00326304
0.00358815
0.00387267
0.00412897
0.00436234
0.00457701
0.00477485
0.00495535
0.00511818
0.00526272
0.00538883
0.00549464
0.00558073
0.00564786
0.00569505
0.00572466
0.00573913
0.00573928
0.00572965
0.00571333
0.00569605
0.00568432
0.00568606
0.00571105
0.00576807
0.00586308
0.00601469
0.00624307
0.00657393
0.00702907
0.0076442
0.00845974
0.00951849
0.0108762
0.0125981
0.0147521
0.0174162
0.0206833
0.0246458
0.0294325
0.0351115
0.0418589
0.0496503
0.0587526
0.0690892
0.0807326
0.0938649
0.10872
0.12536
0.143699
0.166589
0.190695
-0.000821457
-0.00016295
0.000539966
0.00130492
0.00204199
0.00268662
0.00322425
0.00367183
0.00404646
0.00436842
0.00465088
0.00490478
0.00513631
0.00534817
0.00554306
0.00571956
0.00587809
0.00601763
0.00613855
0.00623868
0.00631883
0.00637977
0.00642041
0.00644337
0.00645103
0.00644446
0.0064283
0.00640591
0.00638334
0.0063672
0.00636603
0.00639032
0.00644547
0.00654684
0.00670284
0.00694073
0.00728535
0.00775871
0.00839781
0.00924448
0.0103431
0.0117517
0.013538
0.0157727
0.0185368
0.0219268
0.026038
0.0310041
0.0368927
0.0438897
0.0519605
0.0613948
0.0720865
0.084115
0.0976707
0.112991
0.130121
0.148939
0.172365
0.196908
-0.000316065
0.000360962
0.00109192
0.00189295
0.0026669
0.00334596
0.00391309
0.00438513
0.00477893
0.00511568
0.005409
0.00567076
0.00590743
0.00612287
0.00631957
0.00649707
0.00665513
0.00679354
0.00691207
0.00700913
0.00708507
0.0071413
0.00717631
0.00719335
0.0071947
0.00718175
0.00715925
0.00713084
0.00710274
0.00708183
0.00707676
0.00709811
0.00715492
0.00725431
0.0074158
0.0076611
0.00801724
0.00850665
0.00916747
0.0100429
0.0111788
0.0126354
0.0144832
0.0167955
0.0196567
0.0231669
0.0274251
0.0325689
0.0386671
0.045913
0.0542666
0.0640318
0.0750827
0.0875046
0.101494
0.117291
0.134924
0.154233
0.178201
0.203197
0.000391699
0.00109885
0.00184974
0.00266244
0.00344301
0.00412537
0.00469434
0.00516795
0.00556403
0.00590337
0.00620008
0.00646488
0.00670489
0.00692226
0.0071208
0.00729845
0.00745648
0.00759345
0.0077104
0.00780476
0.00787769
0.00793017
0.00796093
0.0079732
0.00796939
0.00795102
0.00792289
0.00788884
0.00785517
0.00782904
0.00781958
0.00783804
0.00789032
0.00799322
0.00815549
0.00840628
0.00877122
0.00927331
0.009952
0.010852
0.0120206
0.0135205
0.015425
0.0178102
0.020764
0.02439
0.0287908
0.0341085
0.0404124
0.0479044
0.0565374
0.0666334
0.0780465
0.0908643
0.105291
0.121572
0.139718
0.159528
0.184043
0.209494
0.000929407
0.00165244
0.00242875
0.00327496
0.00408978
0.004804
0.00540002
0.00589623
0.00631018
0.006664
0.00697205
0.00724625
0.00749381
0.00771799
0.00792222
0.00810511
0.00826722
0.00840753
0.0085266
0.00862206
0.0086948
0.00874616
0.00877462
0.00878382
0.00877616
0.00875338
0.0087203
0.00868095
0.00864182
0.00861041
0.00859593
0.00860978
0.00866185
0.00875979
0.00892403
0.00917754
0.00954848
0.0100605
0.0107543
0.0116759
0.0128742
0.0144142
0.0163719
0.0188267
0.0218698
0.0256087
0.0301499
0.0356395
0.0421487
0.0498858
0.0588005
0.0692271
0.0810061
0.0942275
0.109102
0.125878
0.144549
0.164873
0.189945
0.21586
0.00169433
0.00244453
0.00323704
0.00409027
0.00490702
0.00561999
0.00621392
0.00670852
0.00712251
0.00747772
0.00778887
0.00806689
0.00831926
0.00854772
0.00875651
0.00894287
0.00910838
0.009251
0.00937219
0.00946873
0.00954208
0.00959316
0.00962055
0.00962783
0.00961746
0.00959115
0.00955384
0.00950967
0.00946539
0.00942854
0.00940893
0.00941856
0.00946384
0.00956208
0.0097231
0.00997675
0.0103505
0.0108685
0.0115729
0.0125112
0.0137341
0.0153089
0.0173148
0.0198341
0.0229616
0.0268089
0.0314859
0.0371438
0.0438545
0.0518344
0.0610271
0.0717842
0.083931
0.0975582
0.112884
0.130163
0.14937
0.170219
0.195855
0.222232
0.0022443
0.00300607
0.00382197
0.00470867
0.0055612
0.00630861
0.00693305
0.00745417
0.00789034
0.00826444
0.00859142
0.00888314
0.00914723
0.00938634
0.00960443
0.00979934
0.00997201
0.0101209
0.0102469
0.0103473
0.010423
0.0104755
0.010503
0.0105094
0.0104971
0.0104679
0.0104269
0.0103783
0.0103289
0.0102865
0.0102608
0.0102641
0.0103062
0.010396
0.0105543
0.0108051
0.0111785
0.0116992
0.0124109
0.0133626
0.0146065
0.0162124
0.0182626
0.0208426
0.024051
0.0280033
0.0328137
0.0386374
0.0455488
0.0537699
0.0632427
0.0743301
0.086848
0.100888
0.116675
0.134468
0.154224
0.175611
0.201821
0.228672
0.003029
0.00381329
0.00464724
0.00554806
0.00641294
0.00716979
0.00780287
0.00833066
0.00877381
0.00915322
0.00948595
0.00978178
0.0100504
0.0102924
0.0105139
0.0107109
0.0108862
0.011037
0.0111655
0.0112676
0.0113451
0.0113987
0.0114267
0.0114327
0.0114191
0.0113876
0.0113433
0.0112902
0.0112354
0.0111868
0.0111544
0.011151
0.0111832
0.0112697
0.0114198
0.0116651
0.0120342
0.012553
0.0132669
0.0142266
0.0154858
0.0171171
0.0192059
0.0218413
0.0251253
0.029178
0.0341171
0.0401032
0.0472114
0.0556716
0.0654212
0.0768387
0.0897291
0.104184
0.120437
0.138751
0.159067
0.181005
0.207799
0.235125
0.00391761
0.00472584
0.00557926
0.00649611
0.00737107
0.00813242
0.0087647
0.00928862
0.00972609
0.0100999
0.0104278
0.0107206
0.010988
0.0112308
0.0114547
0.0116556
0.0118354
0.0119909
0.012124
0.0122302
0.012311
0.0123672
0.0123965
0.0124028
0.0123884
0.0123548
0.0123071
0.0122494
0.0121887
0.0121331
0.0120927
0.0120803
0.0121063
0.01218
0.0123222
0.0125581
0.0129192
0.0134323
0.0141445
0.0151081
0.0163785
0.0180311
0.0201544
0.0228409
0.0261967
0.030346
0.0354109
0.0415564
0.0488601
0.0575577
0.0675854
0.0793335