/*--------------------------------*- C++ -*----------------------------------*\
  =========                 |
  \\      /  F ield         | OpenFOAM: The Open Source CFD Toolbox
   \\    /   O peration     | Website:  https://openfoam.org
    \\  /    A nd           | Version:  6.0
     \\/     M anipulation  |
\*---------------------------------------------------------------------------*/
FoamFile
{
    version     2.0;
    format      ascii;
    class       volVectorField;
    location    "5";
    object      U;
}
// * * * * * * * * * * * * * * * * * * * * * * * * * * * * * * * * * * * * * //

dimensions      [0 1 -1 0 0 0 0];

internalField   nonuniform List<vector> 
62000
(
(0.966097 -0.255258 -7.65083e-22)
(0.966068 -0.255281 6.26623e-22)
(0.966094 -0.255266 7.76856e-22)
(0.966123 -0.25536 -3.73066e-21)
(0.966142 -0.255527 -4.82906e-21)
(0.966154 -0.25573 1.65296e-20)
(0.966163 -0.255947 -1.93477e-20)
(0.966169 -0.256162 1.16122e-20)
(0.966173 -0.256367 -5.9079e-21)
(0.966175 -0.256559 -3.20677e-20)
(0.966175 -0.256737 -5.56406e-21)
(0.966174 -0.256901 4.70569e-20)
(0.966172 -0.257052 1.03956e-20)
(0.966168 -0.257193 -3.65919e-20)
(0.966164 -0.257323 5.87636e-20)
(0.966158 -0.257445 -3.16827e-20)
(0.966152 -0.257557 3.43934e-20)
(0.966145 -0.257662 -4.037e-20)
(0.966138 -0.257759 2.00357e-20)
(0.96613 -0.257851 -6.43758e-20)
(0.966121 -0.257936 8.45374e-20)
(0.966112 -0.258017 2.49693e-20)
(0.966102 -0.258094 3.60359e-20)
(0.966091 -0.258168 -1.64868e-19)
(0.966081 -0.25824 6.0627e-20)
(0.96607 -0.258311 -3.59629e-20)
(0.966059 -0.258381 1.65068e-21)
(0.966048 -0.258453 -2.67841e-20)
(0.966039 -0.258526 8.69772e-20)
(0.966032 -0.258602 -4.66904e-20)
(0.966028 -0.258679 1.06575e-19)
(0.966027 -0.258759 -2.01876e-19)
(0.966034 -0.258843 2.1045e-20)
(0.96605 -0.258933 -4.36917e-20)
(0.966078 -0.259025 -1.00294e-20)
(0.966122 -0.259114 -3.23517e-20)
(0.966187 -0.259196 1.47744e-21)
(0.966281 -0.259267 1.57462e-20)
(0.966409 -0.259321 1.69363e-20)
(0.966582 -0.259346 -9.68246e-20)
(0.966809 -0.259332 5.47431e-20)
(0.967101 -0.259262 3.82184e-19)
(0.967468 -0.259117 8.63025e-19)
(0.967922 -0.258877 -6.02777e-19)
(0.968472 -0.258515 -3.159e-19)
(0.969122 -0.258004 1.31365e-18)
(0.969877 -0.257313 -5.94925e-20)
(0.970731 -0.256406 7.72295e-19)
(0.971677 -0.255246 3.91529e-18)
(0.972697 -0.253785 1.27678e-18)
(0.973764 -0.251969 7.49131e-19)
(0.974849 -0.249721 8.28351e-18)
(0.975909 -0.246943 -2.56602e-18)
(0.976907 -0.243464 -1.02464e-17)
(0.977792 -0.239018 -2.29146e-18)
(0.978515 -0.233049 -9.56604e-18)
(0.979093 -0.224349 5.53589e-19)
(0.980413 -0.209526 5.72526e-19)
(0.986389 -0.173529 -2.43066e-18)
(1.07892 -0.0325958 -4.45044e-19)
(0.965946 -0.260923 -1.34717e-22)
(0.966047 -0.260863 1.52109e-21)
(0.966292 -0.260501 9.4519e-22)
(0.966515 -0.260277 -3.32519e-21)
(0.966692 -0.260167 1.55994e-21)
(0.966833 -0.260148 -1.22531e-20)
(0.966945 -0.260194 1.13699e-20)
(0.967035 -0.260277 7.47613e-21)
(0.967106 -0.260372 -1.44028e-20)
(0.96716 -0.260466 3.09406e-22)
(0.9672 -0.260551 1.54578e-20)
(0.967227 -0.260624 4.09199e-22)
(0.967243 -0.260683 5.11448e-21)
(0.967248 -0.260731 -4.33912e-20)
(0.967244 -0.260766 8.99905e-20)
(0.967232 -0.260792 -8.17329e-20)
(0.967213 -0.260809 3.95634e-20)
(0.967188 -0.26082 -8.0071e-21)
(0.967158 -0.260826 -2.47002e-20)
(0.967124 -0.260829 6.70196e-20)
(0.967087 -0.260832 -1.08111e-19)
(0.967046 -0.260837 6.38605e-20)
(0.967004 -0.260844 -8.05815e-20)
(0.96696 -0.260859 4.8623e-20)
(0.966915 -0.26088 4.67494e-20)
(0.966871 -0.260913 -2.86868e-20)
(0.966828 -0.260955 -1.41741e-21)
(0.966788 -0.261012 3.12377e-20)
(0.966752 -0.261081 2.51291e-20)
(0.966723 -0.261164 -5.76475e-20)
(0.966703 -0.261258 1.05603e-19)
(0.966696 -0.261364 2.24982e-20)
(0.966708 -0.261483 3.84168e-20)
(0.966745 -0.261615 1.39433e-20)
(0.966814 -0.261751 2.9309e-21)
(0.966923 -0.261876 -5.56291e-21)
(0.967083 -0.261977 -3.32204e-20)
(0.967307 -0.262042 -1.55343e-20)
(0.96761 -0.262056 2.37921e-20)
(0.968009 -0.261996 6.99015e-20)
(0.968521 -0.261835 -9.8371e-20)
(0.969166 -0.261544 -4.58797e-20)
(0.96996 -0.261085 -1.04063e-18)
(0.970921 -0.260419 -1.13902e-19)
(0.972061 -0.259503 2.58213e-18)
(0.973385 -0.258288 -1.20905e-18)
(0.974894 -0.256723 -1.14628e-18)
(0.976576 -0.254749 -1.65147e-18)
(0.978406 -0.252303 -1.82313e-19)
(0.980351 -0.249306 2.48035e-20)
(0.98235 -0.24567 -3.77491e-18)
(0.984342 -0.241275 -1.08158e-17)
(0.986227 -0.235978 7.67374e-18)
(0.987903 -0.229559 2.02479e-17)
(0.989206 -0.221741 5.11814e-18)
(0.989863 -0.212049 3.22268e-18)
(0.989631 -0.200269 7.86926e-18)
(0.98808 -0.187289 3.73241e-18)
(0.987851 -0.18293 -2.57232e-18)
(0.988964 -0.186854 -6.24665e-19)
(0.965967 -0.268312 -3.21937e-22)
(0.966242 -0.268133 -1.79163e-22)
(0.966681 -0.267607 -3.37264e-23)
(0.967091 -0.267186 3.74963e-22)
(0.96744 -0.266858 1.54029e-21)
(0.96774 -0.266634 -1.47935e-21)
(0.967999 -0.266505 9.36053e-21)
(0.96822 -0.266443 -4.16862e-21)
(0.968409 -0.266418 -2.58706e-21)
(0.968568 -0.266412 -1.76784e-20)
(0.968701 -0.266409 1.51575e-20)
(0.968807 -0.266402 1.14446e-21)
(0.96889 -0.266386 -4.08667e-21)
(0.968949 -0.266359 1.09887e-20)
(0.968987 -0.26632 -1.90278e-20)
(0.969005 -0.26627 -8.82289e-23)
(0.969006 -0.266207 -9.62294e-21)
(0.968991 -0.266136 -9.39277e-23)
(0.968963 -0.266055 2.31823e-20)
(0.968924 -0.265969 -3.5467e-20)
(0.968876 -0.265877 2.18252e-20)
(0.96882 -0.265786 8.87653e-20)
(0.96876 -0.265694 -1.27339e-20)
(0.968697 -0.265609 -1.23727e-19)
(0.968632 -0.26553 6.36423e-20)
(0.968567 -0.265461 -3.13586e-20)
(0.968505 -0.265404 5.05558e-20)
(0.968447 -0.265362 -3.10771e-20)
(0.968395 -0.265334 -6.38509e-20)
(0.968351 -0.265321 4.91364e-20)
(0.96832 -0.26532 -3.92227e-20)
(0.968304 -0.26533 5.93503e-20)
(0.96831 -0.265354 -1.26744e-19)
(0.968345 -0.265391 1.08096e-19)
(0.968416 -0.265431 -4.61036e-20)
(0.96853 -0.265453 2.57704e-20)
(0.968699 -0.265443 3.29009e-21)
(0.968935 -0.265386 2.32426e-20)
(0.969255 -0.265265 5.4346e-20)
(0.969675 -0.265053 -1.11967e-19)
(0.970214 -0.264723 6.37397e-20)
(0.97089 -0.26424 -1.31037e-19)
(0.97172 -0.263567 7.06077e-19)
(0.972721 -0.262662 4.4303e-19)
(0.973905 -0.261482 -5.97327e-19)
(0.975279 -0.259978 2.37958e-18)
(0.976839 -0.258101 -3.86631e-19)
(0.978573 -0.255795 2.80268e-18)
(0.980451 -0.253002 -4.40566e-18)
(0.982434 -0.24965 -1.29317e-18)
(0.984451 -0.245663 -6.21718e-19)
(0.986425 -0.240943 3.22978e-19)
(0.988236 -0.235388 -3.35449e-18)
(0.989744 -0.228863 -1.19905e-18)
(0.990741 -0.221256 6.84041e-18)
(0.990848 -0.212437 4.31781e-18)
(0.989782 -0.203081 1.16601e-18)
(0.986496 -0.196557 5.39103e-18)
(0.98659 -0.197803 1.78703e-18)
(0.990855 -0.175589 4.51753e-19)
(0.966123 -0.272889 -1.66668e-22)
(0.966446 -0.272643 7.19184e-22)
(0.966925 -0.272137 2.74688e-23)
(0.967389 -0.271682 -1.31463e-21)
(0.967807 -0.271282 2.44074e-21)
(0.968187 -0.270978 5.1995e-21)
(0.968536 -0.270775 -6.58789e-21)
(0.968856 -0.270653 8.42041e-22)
(0.969149 -0.270585 2.8499e-21)
(0.969414 -0.270551 6.28296e-21)
(0.969654 -0.270534 -1.14902e-20)
(0.969867 -0.270524 -3.85317e-21)
(0.970053 -0.270513 -4.50173e-21)
(0.970211 -0.270498 2.01328e-20)
(0.970341 -0.270473 -1.376e-20)
(0.970444 -0.27044 3.3599e-20)
(0.97052 -0.270393 -4.08134e-20)
(0.970571 -0.270336 -6.32482e-21)
(0.970599 -0.270265 4.46674e-20)
(0.970607 -0.270183 -1.56134e-20)
(0.970597 -0.27009 -5.06135e-21)
(0.970572 -0.269989 -6.02417e-21)
(0.970535 -0.26988 -5.56269e-20)
(0.97049 -0.269768 3.22119e-20)
(0.970438 -0.269654 -1.44656e-20)
(0.970384 -0.269541 2.48212e-20)
(0.970329 -0.269432 8.20827e-21)
(0.970277 -0.269329 5.18507e-20)
(0.97023 -0.269233 -2.95811e-20)
(0.970192 -0.269144 -3.99349e-20)
(0.970164 -0.269059 4.1884e-20)
(0.970151 -0.268978 -3.05582e-20)
(0.970158 -0.268905 4.95999e-20)
(0.970193 -0.268838 -1.30348e-20)
(0.970261 -0.268768 3.03824e-21)
(0.970369 -0.268674 -7.65124e-23)
(0.970526 -0.268541 1.06442e-20)
(0.970744 -0.268353 -3.05616e-20)
(0.971037 -0.268094 1.7102e-20)
(0.971421 -0.26774 -7.51422e-20)
(0.971912 -0.267262 1.6322e-19)
(0.972527 -0.266628 -5.37338e-20)
(0.973283 -0.265802 -1.65782e-19)
(0.974194 -0.264747 -4.98719e-19)
(0.975274 -0.26342 -8.33152e-19)
(0.976528 -0.261779 -3.12072e-19)
(0.977955 -0.25978 -1.69144e-18)
(0.979541 -0.257372 -2.12054e-18)
(0.98126 -0.254507 -2.54896e-18)
(0.983069 -0.251122 2.06002e-18)
(0.984901 -0.247157 3.34109e-18)
(0.986675 -0.242535 -1.93649e-18)
(0.98827 -0.237185 -2.47443e-18)
(0.989539 -0.231031 -8.85096e-18)
(0.990277 -0.224041 -6.2564e-18)
(0.990112 -0.216202 -6.55709e-18)
(0.988836 -0.208307 -1.17616e-17)
(0.985413 -0.203638 -2.84492e-18)
(0.986531 -0.202725 -9.06932e-20)
(0.987981 -0.17887 -1.35532e-18)
(0.966298 -0.275453 2.03951e-22)
(0.966579 -0.275218 3.21509e-23)
(0.967017 -0.27479 3.96068e-22)
(0.967455 -0.274366 -3.60909e-22)
(0.967859 -0.273966 1.51477e-21)
(0.96824 -0.273647 -5.84202e-22)
(0.968604 -0.273424 6.0027e-22)
(0.968952 -0.273282 -7.70936e-21)
(0.969286 -0.2732 6.63099e-21)
(0.969607 -0.27316 -1.42749e-20)
(0.969913 -0.273145 1.5813e-20)
(0.970201 -0.273147 -1.87298e-21)
(0.970471 -0.273155 -4.41917e-21)
(0.970718 -0.273167 -2.25695e-21)
(0.970941 -0.273177 -5.425e-22)
(0.971138 -0.273183 -2.09884e-20)
(0.971307 -0.273181 9.15561e-22)
(0.971448 -0.27317 2.34293e-20)
(0.971561 -0.273148 -7.67337e-21)
(0.971648 -0.273114 -7.72645e-21)
(0.971711 -0.273067 1.391e-20)
(0.971751 -0.273008 -6.28589e-21)
(0.971773 -0.272934 2.53795e-20)
(0.971778 -0.272851 1.19105e-20)
(0.971772 -0.272757 8.48768e-21)
(0.971757 -0.272656 -2.91465e-20)
(0.971737 -0.272548 -4.0546e-21)
(0.971716 -0.272436 -1.59699e-20)
(0.971697 -0.27232 4.60306e-21)
(0.971683 -0.2722 -2.95218e-21)
(0.971678 -0.272074 1.54286e-23)
(0.971686 -0.271941 7.05873e-21)
(0.971713 -0.271804 -1.96042e-20)
(0.971764 -0.271666 6.47515e-21)
(0.971846 -0.271515 4.53296e-21)
(0.971964 -0.271332 8.63043e-22)
(0.972124 -0.271101 1.00465e-20)
(0.97234 -0.270809 7.2414e-20)
(0.972621 -0.270439 -1.51546e-19)
(0.972983 -0.269969 -4.40111e-20)
(0.97344 -0.269373 -2.44854e-19)
(0.974007 -0.26862 2.38974e-19)
(0.9747 -0.267678 1.84049e-19)
(0.975533 -0.26651 9.4972e-20)
(0.976517 -0.265079 -5.98501e-19)
(0.97766 -0.263346 -1.03049e-18)
(0.97896 -0.261271 -1.80883e-19)
(0.980406 -0.258808 -4.05198e-19)
(0.981976 -0.255913 1.17104e-18)
(0.983628 -0.252531 -5.0345e-18)
(0.985301 -0.248608 -1.27998e-18)
(0.986918 -0.244076 1.7345e-18)
(0.988362 -0.238876 5.83313e-19)
(0.989496 -0.232952 -5.12183e-18)
(0.99013 -0.226281 -5.90852e-19)
(0.989934 -0.218846 5.63574e-18)
(0.988736 -0.211349 6.98332e-18)
(0.985482 -0.206691 -3.63186e-18)
(0.986974 -0.205042 -4.62484e-18)
(0.986797 -0.179306 2.91206e-18)
(0.966408 -0.277019 -5.45592e-23)
(0.966636 -0.276818 3.71389e-22)
(0.967029 -0.276458 -8.92728e-22)
(0.967428 -0.276075 8.61856e-22)
(0.967797 -0.275696 9.07051e-22)
(0.968149 -0.275385 -8.60859e-22)
(0.96849 -0.275164 1.24606e-22)
(0.968825 -0.275019 -8.96054e-22)
(0.969157 -0.274933 -3.31237e-21)
(0.969486 -0.27489 6.39963e-21)
(0.969811 -0.274877 -1.02942e-20)
(0.970131 -0.274884 9.13797e-21)
(0.970443 -0.274904 8.19212e-21)
(0.970744 -0.274932 -1.264e-20)
(0.971029 -0.274965 -4.05234e-21)
(0.971295 -0.275 1.54103e-20)
(0.971541 -0.275033 -1.83781e-20)
(0.971762 -0.275063 2.46939e-20)
(0.971957 -0.275087 -4.87411e-21)
(0.972126 -0.275102 1.8852e-21)
(0.972269 -0.275106 -4.27056e-21)
(0.972387 -0.275098 -4.9946e-21)
(0.972482 -0.275076 -8.6337e-21)
(0.972556 -0.275042 1.26219e-20)
(0.972612 -0.274992 -8.83451e-21)
(0.972655 -0.274929 -6.08901e-21)
(0.972688 -0.274852 1.29709e-20)
(0.972715 -0.274762 -4.97359e-21)
(0.972741 -0.274659 1.14847e-20)
(0.972768 -0.274542 -4.40196e-21)
(0.972802 -0.274409 2.9261e-21)
(0.972846 -0.274257 7.71826e-21)
(0.972906 -0.274091 -9.31939e-21)
(0.972989 -0.273913 2.44293e-21)
(0.973099 -0.273711 -2.763e-22)
(0.973242 -0.273469 1.17094e-21)
(0.973425 -0.27317 3.43733e-20)
(0.973656 -0.272802 -7.59215e-20)
(0.973947 -0.272349 6.22516e-20)
(0.97431 -0.271791 5.24357e-19)
(0.974759 -0.271104 2.68392e-19)
(0.975306 -0.27026 -2.23398e-19)
(0.975965 -0.269228 2.88491e-19)
(0.976751 -0.267974 3.94926e-19)
(0.977674 -0.266464 4.01379e-20)
(0.978741 -0.26466 -1.24065e-18)
(0.979953 -0.262527 2.05274e-18)
(0.981301 -0.26002 2.33665e-18)
(0.982764 -0.257099 1.86071e-18)
(0.984307 -0.253711 3.16074e-18)
(0.985872 -0.249804 -1.83078e-18)
(0.987391 -0.24531 9.77192e-19)
(0.988752 -0.240173 7.45927e-18)
(0.98983 -0.234338 -8.06824e-19)
(0.990451 -0.227773 -2.34682e-18)
(0.990316 -0.220429 2.73663e-18)
(0.989245 -0.21295 -2.69561e-18)
(0.986082 -0.208107 1.60969e-18)
(0.987686 -0.206166 6.97381e-18)
(0.986227 -0.179146 5.66269e-19)
(0.966444 -0.278088 4.13214e-23)
(0.966638 -0.27791 -3.59893e-22)
(0.967002 -0.277593 1.32016e-22)
(0.96737 -0.277239 7.75427e-22)
(0.96771 -0.276879 -2.13999e-21)
(0.968031 -0.27658 2.00473e-21)
(0.968343 -0.276364 -1.61324e-21)
(0.968652 -0.276222 1.45783e-21)
(0.968962 -0.276137 2.57806e-21)
(0.969274 -0.276093 -6.32363e-21)
(0.969591 -0.276079 9.37294e-21)
(0.96991 -0.276086 4.08519e-21)
(0.970231 -0.276108 -1.61366e-20)
(0.970551 -0.276142 -2.85067e-21)
(0.970865 -0.276184 8.55976e-21)
(0.97117 -0.276233 5.27149e-21)
(0.971464 -0.276284 -6.34086e-21)
(0.971741 -0.276338 5.35571e-21)
(0.971998 -0.27639 7.35961e-21)
(0.972234 -0.27644 -4.23287e-21)
(0.972448 -0.276482 -2.30127e-21)
(0.972637 -0.276517 5.9706e-21)
(0.972804 -0.27654 9.96981e-21)
(0.972948 -0.276552 -9.29644e-21)
(0.973073 -0.276548 -6.95878e-21)
(0.973181 -0.276529 5.38136e-21)
(0.973276 -0.276493 -4.28766e-21)
(0.973362 -0.276438 3.75179e-22)
(0.973442 -0.276365 -3.32594e-22)
(0.973521 -0.276269 3.71476e-21)
(0.973603 -0.27615 6.77692e-21)
(0.973693 -0.276002 -4.1815e-21)
(0.973797 -0.275831 -6.9027e-21)
(0.973921 -0.275637 1.33519e-20)
(0.974072 -0.275411 1.02933e-20)
(0.974251 -0.275135 -4.18536e-20)
(0.974468 -0.274794 -6.72199e-21)
(0.974729 -0.274376 -1.82206e-20)
(0.975045 -0.273867 1.30597e-19)
(0.975428 -0.273248 1.62013e-19)
(0.975888 -0.272497 -3.27965e-19)
(0.976438 -0.271586 -3.21935e-19)
(0.97709 -0.270488 -6.40642e-19)
(0.977858 -0.269171 6.28545e-19)
(0.978752 -0.267602 7.86843e-19)
(0.979778 -0.265746 6.48028e-19)
(0.980939 -0.263568 -1.71511e-18)
(0.982227 -0.261025 -1.77706e-18)
(0.983626 -0.258078 2.17942e-18)
(0.985102 -0.254673 3.14397e-18)
(0.986606 -0.250759 9.42869e-19)
(0.988073 -0.246265 -5.92633e-19)
(0.9894 -0.241131 -2.69857e-19)
(0.990469 -0.235298 2.35929e-18)
(0.991119 -0.228725 -1.49978e-18)
(0.99107 -0.221339 -1.0135e-18)
(0.990108 -0.213766 -1.068e-18)
(0.98697 -0.208753 -3.99238e-18)
(0.988574 -0.206628 -1.7449e-19)
(0.985982 -0.178593 8.30027e-19)
(0.966441 -0.278877 -2.9241e-23)
(0.966615 -0.278713 -1.55212e-22)
(0.966963 -0.278425 5.30897e-23)
(0.967312 -0.278091 1.01066e-21)
(0.967629 -0.277743 -2.75534e-21)
(0.967927 -0.277453 3.77217e-21)
(0.968214 -0.277243 1.52426e-23)
(0.968497 -0.277104 -1.71197e-22)
(0.968781 -0.277019 -1.82256e-21)
(0.969069 -0.276974 4.74056e-21)
(0.969365 -0.276958 -7.42541e-21)
(0.969668 -0.276962 2.85828e-21)
(0.969979 -0.276981 -7.77489e-23)
(0.970295 -0.277013 4.46621e-21)
(0.970613 -0.277054 1.99864e-21)
(0.970931 -0.277104 -1.07612e-20)
(0.971246 -0.27716 9.08683e-21)
(0.971553 -0.277222 3.19367e-21)
(0.971849 -0.277287 -9.27063e-21)
(0.972131 -0.277353 4.30274e-21)
(0.972397 -0.277417 1.54306e-21)
(0.972643 -0.277479 -1.74393e-21)
(0.97287 -0.277532 4.2931e-22)
(0.973078 -0.277577 -1.29176e-21)
(0.973266 -0.277609 -4.32995e-21)
(0.973438 -0.277627 1.45642e-21)
(0.973596 -0.277628 1.71225e-23)
(0.973742 -0.277609 -4.37565e-21)
(0.973881 -0.277568 -1.52027e-21)
(0.974016 -0.277501 8.31688e-22)
(0.974153 -0.277404 -6.96801e-22)
(0.974295 -0.277273 -2.55577e-20)
(0.974449 -0.277112 9.75332e-21)
(0.974621 -0.27692 1.11962e-20)
(0.974818 -0.276687 -3.06189e-20)
(0.975042 -0.276398 -3.35935e-20)
(0.9753 -0.276035 6.30908e-20)
(0.975601 -0.275589 -1.22297e-20)
(0.975954 -0.275047 -1.60839e-19)
(0.976368 -0.27439 1.519e-20)
(0.976855 -0.273597 -1.3409e-19)
(0.977426 -0.272643 2.32695e-19)
(0.978091 -0.271501 -3.69954e-19)
(0.978865 -0.270141 -9.77741e-19)
(0.979755 -0.268532 -3.72692e-19)
(0.980769 -0.266638 4.72789e-19)
(0.981911 -0.264426 1.63334e-18)
(0.983173 -0.261853 -2.06192e-19)
(0.984543 -0.25888 -6.64445e-19)
(0.98599 -0.255451 -1.70951e-18)
(0.987469 -0.251514 3.80082e-19)
(0.98892 -0.246993 2.49879e-18)
(0.990245 -0.241823 -2.03662e-18)
(0.991335 -0.235942 1.21531e-18)
(0.992032 -0.2293 -1.4114e-18)
(0.992071 -0.221813 -3.69137e-19)
(0.991187 -0.21411 8.90453e-19)
(0.988019 -0.208953 5.30824e-18)
(0.989554 -0.206737 2.3624e-18)
(0.985943 -0.177844 3.12842e-18)
(0.966417 -0.279495 6.83315e-24)
(0.966582 -0.279338 -7.70306e-24)
(0.966921 -0.279065 2.71948e-22)
(0.967258 -0.278742 8.90051e-22)
(0.967561 -0.278401 -2.50403e-21)
(0.967842 -0.278116 1.75497e-21)
(0.96811 -0.277909 -4.13229e-21)
(0.968372 -0.277772 6.83639e-21)
(0.968634 -0.277688 -3.38067e-21)
(0.9689 -0.277642 6.38963e-22)
(0.969173 -0.277624 7.23087e-21)
(0.969455 -0.277625 -1.65069e-20)
(0.969748 -0.277641 1.13088e-20)
(0.970049 -0.277667 1.5438e-21)
(0.970358 -0.277704 2.30154e-21)
(0.970672 -0.27775 -1.01415e-20)
(0.970991 -0.277802 4.81818e-21)
(0.971308 -0.277863 -5.56109e-21)
(0.971622 -0.277929 9.89961e-21)
(0.971931 -0.277999 -1.84597e-21)
(0.972229 -0.278071 -1.03275e-20)
(0.972515 -0.278144 4.08648e-21)
(0.972788 -0.278212 -3.11922e-22)
(0.973046 -0.278277 -6.59219e-21)
(0.973288 -0.278332 5.78069e-21)
(0.973516 -0.278375 1.2235e-21)
(0.973731 -0.278403 -2.30472e-21)
(0.973935 -0.278412 1.80307e-21)
(0.974131 -0.278399 5.96045e-21)
(0.974323 -0.27836 -3.25509e-21)
(0.974515 -0.278287 -8.386e-21)
(0.974711 -0.278178 1.25172e-20)
(0.974918 -0.278032 2.60551e-20)
(0.975142 -0.277851 -5.06523e-20)
(0.975388 -0.277624 -8.75336e-21)
(0.975661 -0.277334 1.18242e-19)
(0.975967 -0.276966 -8.41091e-21)
(0.976314 -0.276509 -1.06616e-19)
(0.97671 -0.275951 -9.98711e-21)
(0.977165 -0.275274 -1.81457e-19)
(0.977689 -0.274458 3.14993e-19)
(0.978293 -0.27348 2.56881e-20)
(0.978987 -0.272312 2.60396e-19)
(0.979783 -0.270926 -7.46528e-20)
(0.98069 -0.269291 -5.35428e-19)
(0.981714 -0.267373 -1.69444e-18)
(0.982861 -0.265138 -3.80582e-19)
(0.984123 -0.262542 1.39297e-18)
(0.98549 -0.259545 -1.01686e-18)
(0.986935 -0.256089 -3.98643e-18)
(0.988417 -0.25212 3.21559e-18)
(0.989879 -0.247558 -3.71194e-18)
(0.991225 -0.242331 2.18968e-18)
(0.992352 -0.236375 5.44098e-19)
(0.993105 -0.229635 2.66719e-18)
(0.993225 -0.222021 -6.03862e-20)
(0.992395 -0.214182 -8.61335e-19)
(0.989176 -0.208883 -3.50585e-18)
(0.990621 -0.206568 5.72007e-18)
(0.986007 -0.176948 1.47041e-18)
(0.966382 -0.279997 -4.14338e-23)
(0.966544 -0.279844 3.81015e-23)
(0.966879 -0.279584 -1.11107e-22)
(0.967209 -0.279268 2.38417e-22)
(0.967502 -0.278931 -1.72446e-22)
(0.967771 -0.278648 5.36175e-22)
(0.968025 -0.278443 2.96981e-22)
(0.968272 -0.278307 -3.41697e-21)
(0.968517 -0.278223 1.4588e-21)
(0.968765 -0.278176 -1.16346e-21)
(0.969019 -0.278156 6.7409e-22)
(0.969282 -0.278154 2.76129e-21)
(0.969556 -0.278165 -4.92469e-22)
(0.96984 -0.278187 1.64816e-21)
(0.970134 -0.278217 -6.83842e-21)
(0.970437 -0.278257 2.71945e-21)
(0.970749 -0.278302 1.21634e-21)
(0.971065 -0.278356 -2.56595e-21)
(0.971384 -0.278417 4.94999e-21)
(0.971703 -0.278483 1.20311e-21)
(0.97202 -0.278553 -3.54609e-22)
(0.972331 -0.278626 -9.29066e-22)
(0.972635 -0.278699 3.08079e-21)
(0.972929 -0.27877 -5.11623e-21)
(0.973213 -0.278835 1.98595e-21)
(0.973487 -0.278892 -7.45941e-22)
(0.97375 -0.278936 2.55871e-21)
(0.974006 -0.278964 -8.21242e-21)
(0.974254 -0.278972 3.02492e-21)
(0.9745 -0.278953 4.13943e-21)
(0.974745 -0.278902 1.06633e-20)
(0.974995 -0.278811 6.69339e-21)
(0.975254 -0.278683 -1.4719e-20)
(0.97553 -0.278517 5.8258e-20)
(0.975828 -0.278301 -1.23065e-19)
(0.976152 -0.278018 6.50815e-21)
(0.976507 -0.277654 -9.10324e-20)
(0.976903 -0.277197 2.51135e-19)
(0.977346 -0.276636 9.66818e-20)
(0.977848 -0.275953 8.43438e-21)
(0.978416 -0.275129 8.36399e-20)
(0.979062 -0.274139 1.59358e-20)
(0.979794 -0.27296 3.78193e-19)
(0.980624 -0.271562 -8.82633e-20)
(0.981562 -0.269915 -2.10563e-19)
(0.982613 -0.267984 1.50998e-18)
(0.983782 -0.265735 -1.97403e-18)
(0.985063 -0.263122 -3.25071e-19)
(0.986449 -0.260105 6.86067e-20)
(0.987912 -0.256623 2.37164e-18)
(0.989416 -0.252619 -1.01977e-18)
(0.990907 -0.248009 1.86158e-18)
(0.992289 -0.242714 -2.40714e-18)
(0.993462 -0.236671 -8.89058e-19)
(0.994275 -0.229821 -4.76247e-19)
(0.994466 -0.222073 5.5106e-19)
(0.993672 -0.2141 -4.46537e-18)
(0.990382 -0.20867 -2.2289e-18)
(0.991717 -0.206298 -2.00773e-17)
(0.986164 -0.176011 -3.56513e-18)
(0.966344 -0.280421 1.76251e-23)
(0.966505 -0.28027 2.77254e-23)
(0.966839 -0.280016 -5.54701e-23)
(0.967166 -0.279703 3.38308e-22)
(0.967453 -0.279367 -1.81048e-22)
(0.967714 -0.279086 -6.84726e-22)
(0.967959 -0.278882 -4.48054e-22)
(0.968194 -0.278746 -1.66895e-21)
(0.968426 -0.278663 8.55105e-22)
(0.96866 -0.278616 8.61407e-23)
(0.968899 -0.278595 1.60888e-23)
(0.969146 -0.278591 4.79425e-21)
(0.969404 -0.278598 -3.42073e-21)
(0.969672 -0.278615 -4.15749e-22)
(0.96995 -0.27864 3.7612e-21)
(0.97024 -0.278673 -2.05316e-21)
(0.970541 -0.278711 -6.41806e-22)
(0.97085 -0.278757 1.20232e-21)
(0.971166 -0.278809 3.03447e-21)
(0.971487 -0.278868 9.54726e-22)
(0.971811 -0.278931 -4.27589e-22)
(0.972135 -0.278999 -3.03986e-21)
(0.972458 -0.279067 5.6521e-22)
(0.972777 -0.279137 7.28004e-23)
(0.973092 -0.279204 -2.99406e-22)
(0.973401 -0.279264 -1.4801e-21)
(0.973704 -0.279316 6.18679e-21)
(0.974003 -0.279353 -7.23428e-21)
(0.974297 -0.279372 -1.11355e-20)
(0.974591 -0.279367 1.75217e-20)
(0.974886 -0.279331 1.12602e-20)
(0.975186 -0.279256 -1.83441e-20)
(0.975496 -0.279143 -6.78931e-21)
(0.975823 -0.278991 2.63257e-20)
(0.976172 -0.278788 3.65128e-20)
(0.976546 -0.278517 5.0127e-20)
(0.976952 -0.278162 -3.06211e-20)
(0.977398 -0.277712 -8.86813e-20)
(0.977892 -0.277156 -3.16244e-20)
(0.978442 -0.276476 4.46694e-20)
(0.979059 -0.275653 -4.66839e-19)
(0.979751 -0.274664 3.2886e-20)
(0.980528 -0.273484 -6.11666e-19)
(0.981401 -0.272085 1.19973e-18)
(0.982379 -0.270435 -1.45963e-19)
(0.983467 -0.268501 -5.92194e-20)
(0.984671 -0.266245 2.35597e-19)
(0.985986 -0.263623 1.15468e-18)
(0.987403 -0.26059 2.06404e-18)
(0.9889 -0.257084 -1.78242e-18)
(0.99044 -0.253045 -2.19104e-18)
(0.991972 -0.248385 -8.60197e-19)
(0.9934 -0.24302 1.94264e-18)
(0.994628 -0.236886 -5.24831e-19)
(0.995501 -0.229922 -3.22264e-19)
(0.995758 -0.222039 1.78247e-18)
(0.99499 -0.213929 4.37075e-18)
(0.991633 -0.208356 4.87595e-18)
(0.992873 -0.20587 2.0956e-17)
(0.986359 -0.174985 -1.26948e-17)
(0.966309 -0.280789 -3.47895e-23)
(0.966471 -0.280641 8.1534e-23)
(0.966806 -0.280392 -1.49659e-22)
(0.967132 -0.280082 1.34653e-22)
(0.967416 -0.279748 -1.19157e-22)
(0.967672 -0.279467 -5.58235e-22)
(0.96791 -0.279264 1.3808e-21)
(0.968137 -0.279128 -1.88176e-21)
(0.968359 -0.279045 -6.53918e-22)
(0.968582 -0.278997 1.33602e-21)
(0.968809 -0.278975 1.35374e-21)
(0.969044 -0.278969 4.19582e-21)
(0.969288 -0.278974 -2.40884e-21)
(0.969542 -0.278987 -4.01878e-21)
(0.969807 -0.279006 8.71002e-22)
(0.970084 -0.279033 -2.96653e-21)
(0.970373 -0.279063 2.28459e-21)
(0.970673 -0.279101 -3.0496e-21)
(0.970981 -0.279145 8.97023e-22)
(0.971299 -0.279194 -2.29988e-22)
(0.971625 -0.279247 3.32852e-22)
(0.971954 -0.279307 -4.85537e-22)
(0.972288 -0.279367 1.1975e-21)
(0.972623 -0.279431 9.22022e-22)
(0.972958 -0.279493 5.43964e-22)
(0.973294 -0.279551 3.21068e-22)
(0.973628 -0.279601 -8.20553e-22)
(0.973962 -0.279641 3.3419e-21)
(0.974295 -0.279665 1.09297e-21)
(0.97463 -0.279666 -7.62176e-21)
(0.974969 -0.279639 -9.41521e-21)
(0.975315 -0.279575 8.30368e-21)
(0.975673 -0.279474 3.09034e-20)
(0.976049 -0.279334 5.09342e-20)
(0.976447 -0.279142 -8.84294e-20)
(0.97687 -0.278883 -2.52015e-20)
(0.977327 -0.27854 -1.49968e-20)
(0.977823 -0.2781 -1.08066e-19)
(0.978367 -0.277554 1.166e-19)
(0.978968 -0.276883 -7.66747e-20)
(0.979635 -0.276069 8.66537e-21)
(0.980377 -0.275088 -2.17912e-20)
(0.981203 -0.273915 2.19343e-19)
(0.982123 -0.272521 -5.17016e-19)
(0.983147 -0.270877 7.08266e-19)
(0.984281 -0.268946 -4.42087e-19)
(0.985528 -0.266691 1.39246e-18)
(0.986886 -0.264064 -5.51299e-19)
(0.988346 -0.26102 -1.03378e-18)
(0.989886 -0.257493 1.6125e-18)
(0.991473 -0.253421 7.28757e-19)
(0.993056 -0.248712 4.41059e-19)
(0.994536 -0.243277 -7.55981e-20)
(0.995822 -0.23705 -4.34815e-20)
(0.996757 -0.229973 -1.02079e-19)
(0.997075 -0.221956 2.73133e-18)
(0.996326 -0.21371 -3.79106e-18)
(0.9929 -0.207995 -1.79759e-18)
(0.994039 -0.205424 -2.45567e-18)
(0.986611 -0.173971 9.91947e-18)
(0.966273 -0.281125 -8.66455e-23)
(0.966437 -0.280976 7.77866e-23)
(0.966776 -0.280727 -2.50811e-23)
(0.967103 -0.280416 -4.21171e-23)
(0.967386 -0.280081 2.4139e-22)
(0.967639 -0.279799 -6.52762e-22)
(0.967873 -0.279595 7.70988e-22)
(0.968094 -0.27946 3.2795e-22)
(0.96831 -0.279376 -6.85887e-24)
(0.968525 -0.279329 -6.40595e-22)
(0.968743 -0.279306 2.21663e-21)
(0.968968 -0.279299 -7.1886e-22)
(0.969201 -0.279302 -1.03964e-21)
(0.969445 -0.279313 -2.97702e-21)
(0.969698 -0.279329 5.89762e-21)
(0.969964 -0.279351 -1.34728e-21)
(0.970242 -0.279376 -1.08215e-21)
(0.970532 -0.279407 -2.37309e-21)
(0.970833 -0.279443 2.49619e-21)
(0.971146 -0.279483 9.19867e-22)
(0.971468 -0.279528 -5.72887e-22)
(0.971799 -0.279578 1.42361e-22)
(0.972138 -0.279629 -6.55884e-22)
(0.972482 -0.279683 6.32009e-22)
(0.972832 -0.279737 -5.933e-22)
(0.973186 -0.279789 2.71926e-22)
(0.973544 -0.279835 9.95133e-21)
(0.973905 -0.279871 9.81139e-22)
(0.974271 -0.279894 -1.30071e-20)
(0.974642 -0.279897 4.37377e-21)
(0.975019 -0.279874 1.03262e-20)
(0.975407 -0.279815 -6.83276e-21)
(0.975808 -0.279721 -2.54205e-20)
(0.976228 -0.27959 -7.07496e-20)
(0.976673 -0.279409 1.2301e-20)
(0.977144 -0.27916 -2.05953e-20)
(0.977649 -0.278828 1.61351e-19)
(0.978195 -0.278401 5.83093e-20)
(0.978789 -0.277867 -3.93266e-20)
(0.97944 -0.277209 1.71588e-19)
(0.980158 -0.276407 4.93837e-20)
(0.980951 -0.275438 -9.95345e-20)
(0.981829 -0.274277 -6.32669e-20)
(0.9828 -0.272896 -2.37522e-19)
(0.983875 -0.271262 -9.0241e-19)
(0.985058 -0.269339 7.55475e-19)
(0.986355 -0.26709 -1.2161e-18)
(0.987762 -0.264462 -9.8428e-19)
(0.989273 -0.261411 -3.44066e-20)
(0.990864 -0.257866 -1.04186e-18)
(0.992505 -0.253764 1.33504e-18)
(0.994145 -0.249008 1.02056e-18)
(0.995684 -0.243505 -1.88701e-19)
(0.997031 -0.237187 6.13688e-19)
(0.998028 -0.229997 -8.72403e-19)
(0.998406 -0.221847 -7.25686e-18)
(0.997676 -0.213461 2.83324e-18)
(0.9942 -0.207585 -6.05597e-18)
(0.995262 -0.204854 -1.15437e-17)
(0.986871 -0.172885 8.99483e-18)
(0.966233 -0.281435 1.18464e-22)
(0.9664 -0.281286 -1.28728e-22)
(0.966745 -0.281038 -5.34961e-22)
(0.967075 -0.280726 6.19416e-22)
(0.967358 -0.280389 -2.93504e-22)
(0.96761 -0.280105 5.96699e-23)
(0.967841 -0.279901 1.40171e-23)
(0.968059 -0.279765 -6.67587e-23)
(0.96827 -0.279681 8.04096e-22)
(0.968479 -0.279633 -4.19399e-22)
(0.968691 -0.27961 1.48932e-22)
(0.968909 -0.279602 1.81838e-22)
(0.969135 -0.279603 -2.63107e-21)
(0.96937 -0.279611 8.26641e-22)
(0.969615 -0.279625 1.8005e-21)
(0.969872 -0.279642 1.87309e-24)
(0.970142 -0.279663 -2.59513e-21)
(0.970424 -0.279688 1.05361e-21)
(0.970717 -0.279717 3.62261e-21)
(0.971024 -0.27975 -2.45838e-21)
(0.971343 -0.279787 -9.41879e-22)
(0.971672 -0.279828 6.43728e-22)
(0.972013 -0.27987 -3.36964e-22)
(0.972363 -0.279915 -9.53648e-22)
(0.972722 -0.27996 1.42161e-21)
(0.97309 -0.280003 7.0488e-21)
(0.973465 -0.280041 -4.58486e-21)
(0.973849 -0.280071 -1.22276e-20)
(0.97424 -0.28009 -6.09247e-21)
(0.974641 -0.280091 7.95729e-21)
(0.975052 -0.280067 -5.39881e-21)
(0.975476 -0.28001 -1.07843e-20)
(0.975917 -0.279921 1.83594e-20)
(0.976378 -0.279795 1.85002e-21)
(0.976866 -0.279621 4.71209e-20)
(0.977382 -0.279381 1.7993e-20)
(0.977933 -0.27906 1.60018e-20)
(0.978527 -0.278645 -4.88221e-20)
(0.97917 -0.278124 6.81681e-20)
(0.979871 -0.277479 -2.63685e-20)
(0.98064 -0.276692 -3.67495e-20)
(0.981485 -0.275738 -8.61011e-21)
(0.982415 -0.274593 3.23093e-19)
(0.983439 -0.273226 4.68646e-19)
(0.984567 -0.271606 4.74677e-19)
(0.985803 -0.269696 -8.86912e-19)
(0.987155 -0.267455 1.31474e-19)
(0.988616 -0.26483 4.03517e-19)
(0.990182 -0.261774 -1.67183e-19)
(0.99183 -0.258214 9.55012e-19)
(0.99353 -0.254085 -3.76204e-19)
(0.995232 -0.249284 -3.63696e-19)
(0.996833 -0.243714 2.42612e-19)
(0.998245 -0.237308 -1.53063e-18)
(0.999305 -0.230008 1.20741e-18)
(0.99974 -0.221726 1.99688e-18)
(0.999028 -0.213199 4.68489e-18)
(0.995507 -0.207169 1.77781e-17)
(0.996488 -0.204313 2.26479e-17)
(0.987171 -0.171847 -2.08182e-17)
(0.966193 -0.28173 1.22774e-22)
(0.966364 -0.281578 -1.66612e-22)
(0.966715 -0.281327 -1.04315e-23)
(0.967049 -0.281012 -2.8633e-22)
(0.967334 -0.280672 4.19897e-22)
(0.967586 -0.280386 1.5806e-22)
(0.967816 -0.28018 -2.62539e-22)
(0.968031 -0.280045 -2.62955e-22)
(0.968239 -0.279961 2.6817e-22)
(0.968444 -0.279913 -1.18856e-22)
(0.968652 -0.27989 -4.10602e-22)
(0.968864 -0.279881 3.29164e-22)
(0.969085 -0.279882 5.88028e-22)
(0.969314 -0.279889 1.5921e-21)
(0.969552 -0.2799 -2.86298e-21)
(0.969802 -0.279915 1.4204e-21)
(0.970066 -0.279932 1.67511e-22)
(0.970341 -0.279953 -1.17819e-21)
(0.970629 -0.279977 -4.59174e-22)
(0.970931 -0.280004 1.40865e-21)
(0.971246 -0.280033 -8.00553e-22)
(0.971573 -0.280067 3.87792e-22)
(0.971915 -0.2801 1.05107e-21)
(0.972268 -0.280137 -2.01919e-21)
(0.972633 -0.280172 5.9811e-22)
(0.973011 -0.280206 3.53783e-21)
(0.9734 -0.280236 -2.38422e-21)
(0.973801 -0.280259 -7.41569e-21)
(0.974213 -0.280272 8.82956e-21)
(0.974639 -0.280268 -6.59791e-21)
(0.975079 -0.280241 2.73418e-20)
(0.975534 -0.280184 4.93517e-21)
(0.97601 -0.280094 -1.53233e-20)
(0.976509 -0.279972 9.55581e-21)
(0.977037 -0.279802 2.27326e-20)
(0.977595 -0.27957 6.50395e-20)
(0.97819 -0.279258 -9.02192e-20)
(0.97883 -0.278853 3.47653e-20)
(0.97952 -0.278345 -3.37494e-20)
(0.98027 -0.277715 -6.7693e-20)
(0.98109 -0.276942 -4.99763e-20)
(0.981986 -0.276005 4.05565e-20)
(0.982968 -0.274877 -1.60965e-19)
(0.984046 -0.273527 -3.1901e-19)