/*--------------------------------*- C++ -*----------------------------------*\
  =========                 |
  \\      /  F ield         | OpenFOAM: The Open Source CFD Toolbox
   \\    /   O peration     | Website:  https://openfoam.org
    \\  /    A nd           | Version:  6.0
     \\/     M anipulation  |
\*---------------------------------------------------------------------------*/
FoamFile
{
    version     2.0;
    format      ascii;
    class       surfaceScalarField;
    location    "0.23";
    object      phi;
}
// * * * * * * * * * * * * * * * * * * * * * * * * * * * * * * * * * * * * * //

dimensions      [0 3 -1 0 0 0 0];

internalField   nonuniform List<scalar> 
26699
(
2.0052e-05
0.005201
3.8092e-10
4.0126e-05
0.0051116
5.9639e-05
0.0049351
7.8188e-05
0.0046741
9.5415e-05
0.0043332
0.00011103
0.0039182
0.00012471
0.0034362
0.00013628
0.0028953
0.00014544
0.002305
0.00015201
0.0016753
0.00015678
0.001016
0.00046083
3.8157e-05
2.0052e-05
0.0051809
1.1064e-09
4.0128e-05
0.0050916
5.9643e-05
0.0049155
7.8193e-05
0.0046556
9.542e-05
0.004316
0.00011103
0.0039026
0.00012471
0.0034225
0.00013628
0.0028837
0.00014541
0.0022959
0.00015168
0.001669
0.00015779
0.0010099
0.00054412
7.4504e-05
2.0053e-05
0.0051609
1.7971e-09
4.0131e-05
0.0050715
5.9647e-05
0.004896
7.8198e-05
0.004637
9.5427e-05
0.0042988
0.00011104
0.003887
0.00012472
0.0034088
0.00013627
0.0028722
0.00014542
0.0022867
0.00015138
0.001663
0.00015831
0.001003
0.00059925
0.00010317
2.0054e-05
0.0051408
2.4881e-09
4.0133e-05
0.0050514
5.9652e-05
0.0048765
7.8204e-05
0.0046185
9.5437e-05
0.0042815
0.00011105
0.0038714
0.00012474
0.0033951
0.00013627
0.0028607
0.00014544
0.0022776
0.00015118
0.0016573
0.00015831
0.00099582
0.00063293
0.00012463
2.0056e-05
0.0051208
3.1763e-09
4.0137e-05
0.0050313
5.9657e-05
0.004857
7.8211e-05
0.0045999
9.5447e-05
0.0042643
0.00011106
0.0038558
0.00012476
0.0033814
0.00013627
0.0028491
0.00014548
0.0022683
0.00015105
0.0016517
0.00015795
0.00098892
0.00065091
0.00013998
2.0057e-05
0.0051007
3.861e-09
4.014e-05
0.0050112
5.9663e-05
0.0048375
7.822e-05
0.0045813
9.5461e-05
0.0042471
0.00011107
0.0038401
0.00012478
0.0033677
0.00013628
0.0028376
0.00014552
0.0022591
0.000151
0.0016463
0.00015741
0.00098251
0.00065785
0.00015046
2.0059e-05
0.0050806
4.5407e-09
4.0144e-05
0.0049912
5.967e-05
0.0048179
7.823e-05
0.0045628
9.5476e-05
0.0042298
0.00011109
0.0038245
0.00012481
0.003354
0.0001363
0.0028261
0.00014556
0.0022499
0.000151
0.0016408
0.00015682
0.00097669
0.00065741
0.00015727
2.0061e-05
0.0050606
5.2128e-09
4.0149e-05
0.0049711
5.9679e-05
0.0047984
7.8243e-05
0.0045442
9.5494e-05
0.0042126
0.00011111
0.0038089
0.00012484
0.0033403
0.00013632
0.0028147
0.0001456
0.0022406
0.00015104
0.0016354
0.0001563
0.00097143
0.00065227
0.00016144
2.0063e-05
0.0050405
5.8739e-09
4.0155e-05
0.004951
5.9689e-05
0.0047789
7.8257e-05
0.0045257
9.5514e-05
0.0041953
0.00011114
0.0037933
0.00012487
0.0033265
0.00013635
0.0028032
0.00014563
0.0022313
0.00015111
0.0016299
0.0001559
0.00096664
0.00064434
0.00016383
2.0066e-05
0.0050204
6.5195e-09
4.0162e-05
0.0049309
5.97e-05
0.0047593
7.8273e-05
0.0045071
9.5536e-05
0.004178
0.00011116
0.0037777
0.0001249
0.0033128
0.00013637
0.0027917
0.00014566
0.002222
0.00015118
0.0016244
0.00015561
0.00096221
0.00063487
0.00016508
2.0069e-05
0.0050004
7.1446e-09
4.0169e-05
0.0049108
5.9712e-05
0.0047398
7.829e-05
0.0044885
9.5559e-05
0.0041608
0.00011119
0.003762
0.00012493
0.0032991
0.0001364
0.0027803
0.00014569
0.0022127
0.00015126
0.0016188
0.00015542
0.00095805
0.00062466
0.00016563
2.0073e-05
0.0049803
7.7436e-09
4.0177e-05
0.0048907
5.9725e-05
0.0047203
7.8308e-05
0.0044699
9.5582e-05
0.0041435
0.00011122
0.0037464
0.00012496
0.0032853
0.00013642
0.0027688
0.00014571
0.0022034
0.00015133
0.0016132
0.00015532
0.00095406
0.00061419
0.00016579
2.0077e-05
0.0049602
8.3109e-09
4.0186e-05
0.0048706
5.9739e-05
0.0047007
7.8326e-05
0.0044513
9.5605e-05
0.0041262
0.00011124
0.0037308
0.00012499
0.0032716
0.00013644
0.0027573
0.00014572
0.0021942
0.0001514
0.0016075
0.00015527
0.00095019
0.00060373
0.00016573
2.0081e-05
0.0049401
8.8416e-09
4.0194e-05
0.0048505
5.9752e-05
0.0046811
7.8344e-05
0.0044327
9.5627e-05
0.0041089
0.00011126
0.0037151
0.00012501
0.0032578
0.00013646
0.0027459
0.00014574
0.0021849
0.00015147
0.0016018
0.00015527
0.00094639
0.00059343
0.00016557
2.0085e-05
0.00492
9.3312e-09
4.0203e-05
0.0048303
5.9765e-05
0.0046616
7.8361e-05
0.0044141
9.5646e-05
0.0040917
0.00011128
0.0036995
0.00012503
0.0032441
0.00013648
0.0027344
0.00014574
0.0021756
0.00015154
0.001596
0.00015529
0.00094264
0.00058337
0.00016535
2.0089e-05
0.0048999
9.777e-09
4.0212e-05
0.0048102
5.9778e-05
0.004642
7.8377e-05
0.0043955
9.5664e-05
0.0040744
0.0001113
0.0036838
0.00012504
0.0032303
0.00013649
0.002723
0.00014575
0.0021664
0.0001516
0.0015901
0.00015532
0.00093892
0.00057356
0.00016512
2.0093e-05
0.0048798
1.0177e-08
4.022e-05
0.0047901
5.9789e-05
0.0046224
7.8391e-05
0.0043769
9.5679e-05
0.0040571
0.00011132
0.0036682
0.00012506
0.0032166
0.0001365
0.0027115
0.00014576
0.0021571
0.00015166
0.0015842
0.00015536
0.00093522
0.00056403
0.00016489
2.0096e-05
0.0048597
1.0532e-08
4.0227e-05
0.00477
5.98e-05
0.0046029
7.8404e-05
0.0043583
9.5693e-05
0.0040398
0.00011133
0.0036526
0.00012507
0.0032029
0.00013651
0.0027001
0.00014576
0.0021478
0.00015171
0.0015783
0.0001554
0.00093152
0.00055476
0.00016467
2.0099e-05
0.0048396
1.0843e-08
4.0233e-05
0.0047498
5.9809e-05
0.0045833
7.8415e-05
0.0043397
9.5704e-05
0.0040225
0.00011134
0.0036369
0.00012508
0.0031891
0.00013652
0.0026887
0.00014577
0.0021386
0.00015176
0.0015723
0.00015545
0.00092784
0.00054576
0.00016446
2.0102e-05
0.0048195
1.1113e-08
4.0239e-05
0.0047297
5.9817e-05
0.0045637
7.8424e-05
0.0043211
9.5713e-05
0.0040052
0.00011135
0.0036213
0.00012508
0.0031754
0.00013653
0.0026772
0.00014577
0.0021294
0.00015181
0.0015662
0.00015549
0.00092416
0.000537
0.00016425
2.0105e-05
0.0047994
1.1345e-08
4.0244e-05
0.0047095
5.9824e-05
0.0045441
7.8431e-05
0.0043025
9.572e-05
0.0039879
0.00011135
0.0036057
0.00012509
0.0031616
0.00013653
0.0026658
0.00014577
0.0021201
0.00015186
0.0015601
0.00015554
0.00092048
0.00052848
0.00016406
2.0107e-05
0.0047792
1.1543e-08
4.0248e-05
0.0046894
5.9829e-05
0.0045246
7.8437e-05
0.0042839
9.5726e-05
0.0039706
0.00011136
0.00359
0.00012509
0.0031479
0.00013654
0.0026543
0.00014578
0.0021109
0.00015191
0.001554
0.00015558
0.00091681
0.00052019
0.00016387
2.0109e-05
0.0047591
1.1713e-08
4.0252e-05
0.0046693
5.9834e-05
0.004505
7.8442e-05
0.0042653
9.5731e-05
0.0039534
0.00011136
0.0035744
0.0001251
0.0031342
0.00013654
0.0026429
0.00014578
0.0021016
0.00015196
0.0015478
0.00015563
0.00091314
0.00051212
0.0001637
2.011e-05
0.004739
1.1857e-08
4.0255e-05
0.0046491
5.9837e-05
0.0044854
7.8446e-05
0.0042467
9.5735e-05
0.0039361
0.00011137
0.0035588
0.0001251
0.0031204
0.00013655
0.0026314
0.00014578
0.0020924
0.000152
0.0015416
0.00015567
0.00090947
0.00050426
0.00016353
2.0112e-05
0.0047189
1.1982e-08
4.0257e-05
0.004629
5.9841e-05
0.0044658
7.845e-05
0.0042281
9.5738e-05
0.0039188
0.00011137
0.0035432
0.0001251
0.0031067
0.00013656
0.00262
0.00014579
0.0020832
0.00015205
0.0015353
0.00015571
0.0009058
0.00049661
0.00016337
2.0113e-05
0.0046988
1.209e-08
4.0259e-05
0.0046088
5.9843e-05
0.0044462
7.8453e-05
0.0042095
9.5741e-05
0.0039015
0.00011137
0.0035275
0.00012511
0.003093
0.00013656
0.0026085
0.00014579
0.002074
0.00015209
0.001529
0.00015575
0.00090214
0.00048915
0.00016321
2.0113e-05
0.0046786
1.2184e-08
4.026e-05
0.0045887
5.9845e-05
0.0044266
7.8455e-05
0.0041909
9.5743e-05
0.0038842
0.00011137
0.0035119
0.00012511
0.0030792
0.00013657
0.0025971
0.00014579
0.0020647
0.00015213
0.0015227
0.0001558
0.00089847
0.00048189
0.00016306
2.0114e-05
0.0046585
1.2269e-08
4.0262e-05
0.0045685
5.9847e-05
0.0044071
7.8457e-05
0.0041723
9.5746e-05
0.0038669
0.00011138
0.0034963
0.00012511
0.0030655
0.00013658
0.0025856
0.0001458
0.0020555
0.00015217
0.0015163
0.00015584
0.00089481
0.00047481
0.00016292
2.0115e-05
0.0046384
1.2346e-08
4.0263e-05
0.0045484
5.9849e-05
0.0043875
7.8459e-05
0.0041536
9.5748e-05
0.0038496
0.00011138
0.0034806
0.00012511
0.0030518
0.00013658
0.0025741
0.0001458
0.0020463
0.00015221
0.0015099
0.00015588
0.00089114
0.0004679
0.00016278
2.0115e-05
0.0046183
1.2418e-08
4.0264e-05
0.0045282
5.985e-05
0.0043679
7.846e-05
0.004135
9.575e-05
0.0038323
0.00011138
0.003465
0.00012512
0.003038
0.00013659
0.0025627
0.00014581
0.0020371
0.00015225
0.0015035
0.00015591
0.00088747
0.00046117
0.00016264
2.0116e-05
0.0045981
1.2485e-08
4.0265e-05
0.0045081
5.9851e-05
0.0043483
7.8462e-05
0.0041164
9.5751e-05
0.003815
0.00011138
0.0034494
0.00012512
0.0030243
0.00013659
0.0025512
0.00014581
0.0020278
0.00015228
0.001497
0.00015595
0.0008838
0.00045461
0.00016252
2.0116e-05
0.004578
1.255e-08
4.0266e-05
0.0044879
5.9852e-05
0.0043287
7.8463e-05
0.0040978
9.5753e-05
0.0037978
0.00011139
0.0034337
0.00012512
0.0030106
0.0001366
0.0025397
0.00014582
0.0020186
0.00015232
0.0014905
0.00015599
0.00088013
0.00044821
0.00016239
2.0116e-05
0.0045579
1.2613e-08
4.0266e-05
0.0044678
5.9853e-05
0.0043091
7.8465e-05
0.0040792
9.5755e-05
0.0037805
0.00011139
0.0034181
0.00012513
0.0029968
0.00013661
0.0025282
0.00014582
0.0020094
0.00015235
0.001484
0.00015603
0.00087645
0.00044197
0.00016227
2.0117e-05
0.0045377
1.2675e-08
4.0267e-05
0.0044476
5.9854e-05
0.0042895
7.8466e-05
0.0040606
9.5757e-05
0.0037632
0.00011139
0.0034025
0.00012513
0.0029831
0.00013661
0.0025167
0.00014583
0.0020002
0.00015239
0.0014774
0.00015607
0.00087277
0.00043587
0.00016216
2.0117e-05
0.0045176
1.2737e-08
4.0268e-05
0.0044275
5.9855e-05
0.0042699
7.8468e-05
0.004042
9.5759e-05
0.0037459
0.0001114
0.0033868
0.00012513
0.0029694
0.00013662
0.0025052
0.00014583
0.001991
0.00015242
0.0014709
0.0001561
0.00086909
0.00042993
0.00016205
2.0117e-05
0.0044975
1.2798e-08
4.0268e-05
0.0044073
5.9857e-05
0.0042504
7.8469e-05
0.0040234
9.5761e-05
0.0037286
0.0001114
0.0033712
0.00012513
0.0029556
0.00013663
0.0024937
0.00014584
0.0019818
0.00015245
0.0014642
0.00015614
0.0008654
0.00042413
0.00016194
2.0118e-05
0.0044773
1.2859e-08
4.0269e-05
0.0043872
5.9858e-05
0.0042308
7.8471e-05
0.0040048
9.5763e-05
0.0037113
0.0001114
0.0033555
0.00012514
0.0029419
0.00013664
0.0024822
0.00014585
0.0019726
0.00015248
0.0014576
0.00015617
0.00086171
0.00041846
0.00016184
2.0118e-05
0.0044572
1.2921e-08
4.027e-05
0.004367
5.9859e-05
0.0042112
7.8472e-05
0.0039861
9.5765e-05
0.003694
0.0001114
0.0033399
0.00012514
0.0029282
0.00013664
0.0024707
0.00014585
0.0019633
0.00015251
0.001451
0.00015621
0.00085801
0.00041294
0.00016174
2.0118e-05
0.0044371
1.2984e-08
4.027e-05
0.0043469
5.986e-05
0.0041916
7.8474e-05
0.0039675
9.5767e-05
0.0036767
0.00011141
0.0033243
0.00012514
0.0029144
0.00013665
0.0024592
0.00014586
0.0019541
0.00015254
0.0014443
0.00015624
0.00085431
0.00040754
0.00016164
2.0119e-05
0.004417
1.3047e-08
4.0271e-05
0.0043267
5.9861e-05
0.004172
7.8475e-05
0.0039489
9.5769e-05
0.0036594
0.00011141
0.0033086
0.00012515
0.0029007
0.00013666
0.0024477
0.00014587
0.0019449
0.00015257
0.0014376
0.00015628
0.0008506
0.00040227
0.00016155
2.0119e-05
0.0043968
1.311e-08
4.0272e-05
0.0043066
5.9862e-05
0.0041524
7.8477e-05
0.0039303
9.5771e-05
0.0036421
0.00011141
0.003293
0.00012515
0.0028869
0.00013667
0.0024362
0.00014587
0.0019357
0.0001526
0.0014309
0.00015631
0.00084688
0.00039712
0.00016146
2.0119e-05
0.0043767
1.3175e-08
4.0272e-05
0.0042864
5.9863e-05
0.0041328
7.8478e-05
0.0039117
9.5773e-05
0.0036248
0.00011142
0.0032773
0.00012515
0.0028732
0.00013667
0.0024247
0.00014588
0.0019265
0.00015262
0.0014241
0.00015634
0.00084316
0.00039208
0.00016138
2.0119e-05
0.0043566
1.324e-08
4.0273e-05
0.0042663
5.9864e-05
0.0041132
7.848e-05
0.0038931
9.5775e-05
0.0036075
0.00011142
0.0032617
0.00012516
0.0028595
0.00013668
0.0024132
0.00014589
0.0019173
0.00015265
0.0014173
0.00015638
0.00083943
0.00038717
0.00016129
2.012e-05
0.0043364
1.3306e-08
4.0274e-05
0.0042461
5.9865e-05
0.0040936
7.8482e-05
0.0038744
9.5777e-05
0.0035902
0.00011142
0.0032461
0.00012516
0.0028457
0.00013669
0.0024016
0.0001459
0.0019081
0.00015267
0.0014106
0.00015641
0.0008357
0.00038236
0.00016121
2.012e-05
0.0043163
1.3373e-08
4.0275e-05
0.004226
5.9866e-05
0.004074
7.8483e-05
0.0038558
9.5779e-05
0.0035729
0.00011142
0.0032304
0.00012517
0.002832
0.0001367
0.0023901
0.0001459
0.0018989
0.0001527
0.0014038
0.00015644
0.00083196
0.00037767
0.00016114
2.012e-05
0.0042962
1.3441e-08
4.0275e-05
0.0042058
5.9868e-05
0.0040545
7.8485e-05
0.0038372
9.5782e-05
0.0035556
0.00011143
0.0032148
0.00012517
0.0028182
0.00013671
0.0023786
0.00014591
0.0018897
0.00015272
0.001397
0.00015647
0.00082821
0.00037308
0.00016106
2.0121e-05
0.004276
1.351e-08
4.0276e-05
0.0041856
5.9869e-05
0.0040349
7.8487e-05
0.0038186
9.5784e-05
0.0035383
0.00011143
0.0031991
0.00012517
0.0028045
0.00013671
0.002367
0.00014592
0.0018805
0.00015275
0.0013901
0.0001565
0.00082445
0.00036859
0.00016099
2.0121e-05
0.0042559
1.358e-08
4.0277e-05
0.0041655
5.987e-05
0.0040153
7.8489e-05
0.0038
9.5786e-05
0.0035211
0.00011143
0.0031835
0.00012518
0.0027907
0.00013672
0.0023555
0.00014593
0.0018713
0.00015277
0.0013833
0.00015653
0.00082069
0.0003642
0.00016093
2.0121e-05
0.0042358
1.3651e-08
4.0278e-05
0.0041453
5.9871e-05
0.0039957
7.849e-05
0.0037814
9.5789e-05
0.0035038
0.00011144
0.0031678
0.00012518
0.002777
0.00013673
0.0023439
0.00014594
0.0018621
0.00015279
0.0013764
0.00015656
0.00081691
0.0003599
0.00016086
2.0122e-05
0.0042156
1.3723e-08
4.0278e-05
0.0041252
5.9872e-05
0.0039761
7.8492e-05
0.0037627
9.5791e-05
0.0034865
0.00011144
0.0031522
0.00012519
0.0027633
0.00013674
0.0023324
0.00014594
0.0018529
0.00015281
0.0013696
0.00015659
0.00081313
0.0003557
0.0001608
2.0122e-05
0.0041955
1.3796e-08
4.0279e-05
0.004105
5.9874e-05
0.0039565
7.8494e-05
0.0037441
9.5793e-05
0.0034692
0.00011145
0.0031365
0.00012519
0.0027495
0.00013675
0.0023208
0.00014595
0.0018437
0.00015284
0.0013627
0.00015662
0.00080935
0.00035159
0.00016074
2.0123e-05
0.0041753
1.387e-08
4.028e-05
0.0040849
5.9875e-05
0.0039369
7.8496e-05
0.0037255
9.5796e-05
0.0034519
0.00011145
0.0031209
0.00012519
0.0027358
0.00013676
0.0023093
0.00014596
0.0018345
0.00015286
0.0013558
0.00015665
0.00080555
0.00034756
0.00016068
2.0123e-05
0.0041552
1.3944e-08
4.0281e-05
0.0040647
5.9876e-05
0.0039173
7.8498e-05
0.0037069
9.5798e-05
0.0034346
0.00011145
0.0031052
0.0001252
0.002722
0.00013676
0.0022977
0.00014597
0.0018253
0.00015288
0.0013489
0.00015668
0.00080175
0.00034362
0.00016062
2.0123e-05
0.0041351
1.402e-08
4.0282e-05
0.0040445
5.9878e-05
0.0038977
7.85e-05
0.0036883
9.5801e-05
0.0034173
0.00011146
0.0030896
0.0001252
0.0027083
0.00013677
0.0022861
0.00014598
0.0018161
0.0001529
0.001342
0.00015671
0.00079793
0.00033976
0.00016057
2.0124e-05
0.0041149
1.4098e-08
4.0283e-05
0.0040244
5.9879e-05
0.0038781
7.8502e-05
0.0036696
9.5804e-05
0.0034
0.00011146
0.0030739
0.00012521
0.0026945
0.00013678
0.0022746
0.00014599
0.0018068
0.00015291
0.001335
0.00015674
0.00079411
0.00033598
0.00016052
2.0124e-05
0.0040948
1.4176e-08
4.0283e-05
0.0040042
5.9881e-05
0.0038585
7.8504e-05
0.003651
9.5806e-05
0.0033826
0.00011146
0.0030582
0.00012521
0.0026808
0.00013679
0.002263
0.000146
0.0017976
0.00015293
0.0013281
0.00015676
0.00079028
0.00033228
0.00016047
2.0124e-05
0.0040747
1.4255e-08
4.0284e-05
0.0039841
5.9882e-05
0.0038389
7.8506e-05
0.0036324
9.5809e-05
0.0033653
0.00011147
0.0030426
0.00012522
0.002667
0.0001368
0.0022514
0.00014601
0.0017884
0.00015295
0.0013212
0.00015679
0.00078645
0.00032865
0.00016042
2.0125e-05
0.0040545
1.4335e-08
4.0285e-05
0.0039639
5.9883e-05
0.0038193
7.8508e-05
0.0036138
9.5812e-05
0.003348
0.00011147
0.0030269
0.00012522
0.0026533
0.00013681
0.0022398
0.00014602
0.0017792
0.00015297
0.0013142
0.00015682
0.0007826
0.00032509
0.00016037
2.0125e-05
0.0040344
1.4417e-08
4.0286e-05
0.0039437
5.9885e-05
0.0037997
7.851e-05
0.0035951
9.5815e-05
0.0033307
0.00011148
0.0030113
0.00012523
0.0026395
0.00013682
0.0022282
0.00014603
0.00177
0.00015299
0.0013072
0.00015684
0.00077875
0.0003216
0.00016033
2.0126e-05
0.0040142
1.45e-08
4.0287e-05
0.0039236
5.9886e-05
0.0037801
7.8512e-05
0.0035765
9.5818e-05
0.0033134
0.00011148
0.0029956
0.00012523
0.0026258
0.00013683
0.0022166
0.00014604
0.0017608
0.000153
0.0013003
0.00015687
0.00077488
0.00031818
0.00016029
2.0126e-05
0.0039941
1.4584e-08
4.0288e-05
0.0039034
5.9888e-05
0.0037605
7.8515e-05
0.0035579
9.5821e-05
0.0032961
0.00011148
0.0029799
0.00012524
0.002612
0.00013683
0.002205
0.00014605
0.0017516
0.00015302
0.0012933
0.00015689
0.00077101
0.00031482
0.00016025
2.0126e-05
0.003974
1.4669e-08
4.0289e-05
0.0038833
5.9889e-05
0.0037409
7.8517e-05
0.0035393
9.5824e-05
0.0032788
0.00011149
0.0029643
0.00012524
0.0025983
0.00013684
0.0021934
0.00014606
0.0017424
0.00015304
0.0012863
0.00015692
0.00076713
0.00031153
0.00016021
2.0127e-05
0.0039538
1.4756e-08
4.029e-05
0.0038631
5.9891e-05
0.0037213
7.8519e-05
0.0035206
9.5827e-05
0.0032615
0.00011149
0.0029486
0.00012525
0.0025845
0.00013685
0.0021818
0.00014607
0.0017332
0.00015305
0.0012793
0.00015694
0.00076325
0.0003083
0.00016017
2.0127e-05
0.0039337
1.4844e-08
4.0291e-05
0.0038429
5.9893e-05
0.0037017
7.8522e-05
0.003502
9.583e-05
0.0032442
0.0001115
0.0029329
0.00012525
0.0025708
0.00013686
0.0021702
0.00014608
0.0017239
0.00015307
0.0012723
0.00015696
0.00075935
0.00030513
0.00016014
2.0128e-05
0.0039135
1.4933e-08
4.0292e-05
0.0038228
5.9894e-05
0.0036821
7.8524e-05
0.0034834
9.5833e-05
0.0032269
0.0001115
0.0029173
0.00012526
0.002557
0.00013687
0.0021586
0.00014609
0.0017147
0.00015309
0.0012653
0.00015699
0.00075545
0.00030201
0.0001601
2.0128e-05
0.0038934
1.5023e-08
4.0293e-05
0.0038026
5.9896e-05
0.0036625
7.8526e-05
0.0034647
9.5836e-05
0.0032096
0.00011151
0.0029016
0.00012526
0.0025432
0.00013688
0.002147
0.0001461
0.0017055
0.0001531
0.0012583
0.00015701
0.00075154
0.00029895
0.00016007
2.0129e-05
0.0038732
1.5115e-08
4.0294e-05
0.0037824
5.9898e-05
0.0036429
7.8529e-05
0.0034461
9.5839e-05
0.0031923
0.00011151
0.0028859
0.00012527
0.0025295
0.00013689
0.0021354
0.00014611
0.0016963
0.00015312
0.0012513
0.00015703
0.00074762
0.00029595
0.00016004
2.0129e-05
0.0038531
1.5208e-08
4.0295e-05
0.0037623
5.9899e-05
0.0036233
7.8531e-05
0.0034275
9.5843e-05
0.003175
0.00011152
0.0028702
0.00012528
0.0025157
0.0001369
0.0021238
0.00014612
0.0016871
0.00015313
0.0012443
0.00015706
0.00074369
0.000293
0.00016001
2.013e-05
0.003833
1.5303e-08
4.0296e-05
0.0037421
5.9901e-05
0.0036037
7.8534e-05
0.0034088
9.5846e-05
0.0031577
0.00011152
0.0028546
0.00012528
0.002502
0.00013691
0.0021121
0.00014613
0.0016779
0.00015314
0.0012373
0.00015708
0.00073976
0.00029009
0.00015998
2.013e-05
0.0038128
1.5399e-08
4.0297e-05
0.0037219
5.9903e-05
0.0035841
7.8536e-05
0.0033902
9.5849e-05
0.0031403
0.00011153
0.0028389
0.00012529
0.0024882
0.00013692
0.0021005
0.00014614
0.0016686
0.00015316
0.0012303
0.0001571
0.00073582
0.00028724
0.00015996
2.0131e-05
0.0037927
1.5497e-08
4.0298e-05
0.0037018
5.9905e-05
0.0035645
7.8539e-05
0.0033716
9.5853e-05
0.003123
0.00011153
0.0028232
0.00012529
0.0024744
0.00013693
0.0020889
0.00014615
0.0016594
0.00015317
0.0012232
0.00015712
0.00073187
0.00028443
0.00015993
2.0131e-05
0.0037725
1.5596e-08
4.03e-05
0.0036816
5.9906e-05
0.0035449
7.8542e-05
0.0033529
9.5856e-05
0.0031057
0.00011154
0.0028075
0.0001253
0.0024607
0.00013693
0.0020772
0.00014616
0.0016502
0.00015319
0.0012162
0.00015714
0.00072791
0.00028167
0.00015991
2.0132e-05
0.0037524
1.5696e-08
4.0301e-05
0.0036614
5.9908e-05
0.0035253
7.8544e-05
0.0033343
9.586e-05
0.0030884
0.00011154
0.0027919
0.00012531
0.0024469
0.00013694
0.0020656
0.00014617
0.001641
0.0001532
0.0012092
0.00015716
0.00072394
0.00027895
0.00015988
2.0132e-05
0.0037322
1.5798e-08
4.0302e-05
0.0036413
5.991e-05
0.0035057
7.8547e-05
0.0033157
9.5864e-05
0.0030711
0.00011155
0.0027762
0.00012531
0.0024331
0.00013695
0.002054
0.00014618
0.0016317
0.00015321
0.0012022
0.00015719
0.00071997
0.00027628
0.00015986
2.0133e-05
0.0037121
1.5902e-08
4.0303e-05
0.0036211
5.9912e-05
0.003486
7.855e-05
0.003297
9.5867e-05
0.0030538
0.00011155
0.0027605
0.00012532
0.0024194
0.00013696
0.0020423
0.00014619
0.0016225
0.00015323
0.0011951
0.00015721
0.00071599
0.00027365
0.00015984
2.0133e-05
0.0036919
1.6007e-08
4.0304e-05
0.0036009
5.9914e-05
0.0034664
7.8553e-05
0.0032784
9.5871e-05
0.0030364
0.00011156
0.0027448
0.00012533
0.0024056
0.00013697
0.0020307
0.00014621
0.0016133
0.00015324
0.0011881
0.00015723
0.00071201
0.00027105
0.00015982
2.0134e-05
0.0036718
1.6114e-08
4.0306e-05
0.0035808
5.9916e-05
0.0034468
7.8556e-05
0.0032597
9.5875e-05
0.0030191
0.00011156
0.0027291
0.00012533
0.0023918
0.00013698
0.002019
0.00014622
0.001604
0.00015325
0.0011811
0.00015725
0.00070801
0.0002685
0.0001598
2.0134e-05
0.0036516
1.6223e-08
4.0307e-05
0.0035606
5.9918e-05
0.0034272
7.8559e-05
0.0032411
9.5879e-05
0.0030018
0.00011157
0.0027134
0.00012534
0.0023781
0.00013699
0.0020074
0.00014623
0.0015948
0.00015326
0.001174
0.00015727
0.00070401
0.00026598
0.00015978
2.0135e-05
0.0036315
1.6333e-08
4.0308e-05
0.0035404
5.992e-05
0.0034076
7.8562e-05
0.0032225
9.5883e-05
0.0029845
0.00011157
0.0026977
0.00012535
0.0023643
0.000137
0.0019957
0.00014624
0.0015855
0.00015328
0.001167
0.00015728
0.0007
0.0002635
0.00015977
2.0136e-05
0.0036113
1.6446e-08
4.0309e-05
0.0035202
5.9922e-05
0.003388
7.8565e-05
0.0032038
9.5887e-05
0.0029672
0.00011158
0.002682
0.00012535
0.0023505
0.00013701
0.0019841
0.00014625
0.0015763
0.00015329
0.00116
0.0001573
0.00069599
0.00026106
0.00015975
2.0136e-05
0.0035912
1.6559e-08
4.0311e-05
0.0035001
5.9924e-05
0.0033684
7.8568e-05
0.0031852
9.5891e-05
0.0029498
0.00011158
0.0026664
0.00012536
0.0023367
0.00013702
0.0019724
0.00014626
0.0015671
0.0001533
0.0011529
0.00015732
0.00069197
0.00025864
0.00015973
2.0137e-05
0.003571
1.6675e-08
4.0312e-05
0.0034799
5.9926e-05
0.0033488
7.8571e-05
0.0031665
9.5895e-05
0.0029325
0.00011159
0.0026507
0.00012537
0.002323
0.00013703
0.0019607
0.00014628
0.0015578
0.00015331
0.0011459
0.00015734
0.00068794
0.00025626
0.00015972
2.0137e-05
0.0035509
1.6793e-08
4.0313e-05
0.0034597
5.9929e-05
0.0033292
7.8574e-05
0.0031479
9.5899e-05
0.0029152
0.0001116
0.002635
0.00012537
0.0023092
0.00013704
0.0019491
0.00014629
0.0015486
0.00015333
0.0011388
0.00015736
0.00068391
0.00025392
0.00015971
2.0138e-05
0.0035307
1.6912e-08
4.0315e-05
0.0034395
5.9931e-05
0.0033095
7.8577e-05
0.0031292
9.5904e-05
0.0028979
0.0001116
0.0026193
0.00012538
0.0022954
0.00013705
0.0019374
0.0001463
0.0015393
0.00015334
0.0011318
0.00015738
0.00067987
0.0002516
0.0001597
2.0139e-05
0.0035105
1.7034e-08
4.0316e-05
0.0034193
5.9933e-05
0.0032899
7.8581e-05
0.0031106
9.5908e-05
0.0028805
0.00011161
0.0026036
0.00012539
0.0022816
0.00013706
0.0019257
0.00014631
0.0015301
0.00015335
0.0011248
0.0001574
0.00067582
0.00024931
0.00015968
2.0139e-05
0.0034904
1.7157e-08
4.0318e-05
0.0033992
5.9935e-05
0.0032703
7.8584e-05
0.0030919
9.5913e-05
0.0028632
0.00011161
0.0025879
0.0001254
0.0022678
0.00013707
0.001914
0.00014633
0.0015208
0.00015336
0.0011177
0.00015741
0.00067177
0.00024705
0.00015967
2.014e-05
0.0034702
1.7283e-08
4.0319e-05
0.003379
5.9938e-05
0.0032507
7.8587e-05
0.0030733
9.5917e-05
0.0028459
0.00011162
0.0025722
0.0001254
0.0022541
0.00013708
0.0019024
0.00014634
0.0015116
0.00015337
0.0011107
0.00015743
0.00066771
0.00024482
0.00015966
2.014e-05
0.0034501
1.741e-08
4.0321e-05
0.0033588
5.994e-05
0.0032311
7.8591e-05
0.0030546
9.5922e-05
0.0028285
0.00011163
0.0025565
0.00012541
0.0022403
0.00013709
0.0018907
0.00014635
0.0015023
0.00015339
0.0011037
0.00015745
0.00066365
0.00024262
0.00015965
2.0141e-05
0.0034299
1.754e-08
4.0322e-05
0.0033386
5.9943e-05
0.0032114
7.8594e-05
0.003036
9.5926e-05
0.0028112
0.00011163
0.0025408
0.00012542
0.0022265
0.0001371
0.001879
0.00014636
0.001493
0.0001534
0.0010966
0.00015747
0.00065958
0.00024044
0.00015965
2.0142e-05
0.0034098
1.7672e-08
4.0324e-05
0.0033184
5.9945e-05
0.0031918
7.8598e-05
0.0030173
9.5931e-05
0.0027939
0.00011164
0.002525
0.00012543
0.0022127
0.00013711
0.0018673
0.00014638
0.0014838
0.00015341
0.0010896
0.00015748
0.00065551
0.00023829
0.00015964
2.0143e-05
0.0033896
1.7806e-08
4.0325e-05
0.0032983
5.9948e-05
0.0031722
7.8602e-05
0.0029987
9.5936e-05
0.0027765
0.00011164
0.0025093
0.00012543
0.0021989
0.00013712
0.0018556
0.00014639
0.0014745
0.00015342
0.0010826
0.0001575
0.00065143
0.00023616
0.00015963
2.0143e-05
0.0033694
1.7942e-08
4.0327e-05
0.0032781
5.995e-05
0.0031526
7.8605e-05
0.00298
9.5941e-05
0.0027592
0.00011165
0.0024936
0.00012544
0.0021851
0.00013713
0.0018439
0.0001464
0.0014653
0.00015343
0.0010755
0.00015752
0.00064734
0.00023405
0.00015962
2.0144e-05
0.0033493
1.8081e-08
4.0329e-05
0.0032579
5.9953e-05
0.003133
7.8609e-05
0.0029614
9.5946e-05
0.0027419
0.00011166
0.0024779
0.00012545
0.0021713
0.00013714
0.0018322
0.00014641
0.001456
0.00015344
0.0010685
0.00015754
0.00064325
0.00023197
0.00015962
2.0145e-05
0.0033291
1.8222e-08
4.033e-05
0.0032377
5.9955e-05
0.0031133
7.8613e-05
0.0029427
9.5951e-05
0.0027245
0.00011166
0.0024622
0.00012546
0.0021575
0.00013715
0.0018205
0.00014643
0.0014467
0.00015346
0.0010615
0.00015755
0.00063916
0.00022991
0.00015961
2.0145e-05
0.0033089
1.8365e-08
4.0332e-05
0.0032175
5.9958e-05
0.0030937
7.8617e-05
0.0029241
9.5956e-05
0.0027072
0.00011167
0.0024465
0.00012547
0.0021437
0.00013717
0.0018088
0.00014644
0.0014374
0.00015347
0.0010544
0.00015757
0.00063506
0.00022787
0.00015961
2.0146e-05
0.0032888
1.8511e-08
4.0334e-05
0.0031973
5.9961e-05
0.0030741
7.8621e-05
0.0029054
9.5961e-05
0.0026899
0.00011168
0.0024308
0.00012548
0.0021299
0.00013718
0.0017971
0.00014645
0.0014282
0.00015348
0.0010474
0.00015759
0.00063095
0.00022585
0.00015961
2.0147e-05
0.0032686
1.8659e-08
4.0335e-05
0.0031772
5.9964e-05
0.0030544
7.8625e-05
0.0028867
9.5967e-05
0.0026725
0.00011169
0.0024151
0.00012548
0.0021161
0.00013719
0.0017854
0.00014647
0.0014189
0.00015349
0.0010404
0.0001576
0.00062684
0.00022384
0.0001596
2.0148e-05
0.0032484
1.881e-08
4.0337e-05
0.003157
5.9966e-05
0.0030348
7.8629e-05
0.0028681
9.5972e-05
0.0026552
0.00011169
0.0023993
0.00012549
0.0021023
0.0001372
0.0017737
0.00014648
0.0014096
0.0001535
0.0010334
0.00015762
0.00062273
0.00022186
0.0001596
2.0149e-05
0.0032283
1.8963e-08
4.0339e-05
0.0031368
5.9969e-05
0.0030152
7.8633e-05
0.0028494
9.5978e-05
0.0026378
0.0001117
0.0023836
0.0001255
0.0020885
0.00013721
0.001762
0.00014649
0.0014003
0.00015352
0.0010263
0.00015763
0.00061861
0.0002199
0.0001596
2.0149e-05
0.0032081
1.9119e-08
4.0341e-05
0.0031166
5.9972e-05
0.0029956
7.8637e-05
0.0028307
9.5983e-05
0.0026205
0.00011171
0.0023679
0.00012551
0.0020747
0.00013722
0.0017503
0.00014651
0.001391
0.00015353
0.0010193
0.00015765
0.00061448
0.00021795
0.0001596
2.015e-05
0.0031879
1.9278e-08
4.0342e-05
0.0030964
5.9975e-05
0.0029759
7.8641e-05
0.0028121
9.5989e-05
0.0026031
0.00011171
0.0023522
0.00012552
0.0020609
0.00013723
0.0017386
0.00014652
0.0013817
0.00015354
0.0010123
0.00015767
0.00061036
0.00021602
0.0001596
2.0151e-05
0.0031678
1.944e-08
4.0344e-05
0.0030762
5.9978e-05
0.0029563
7.8646e-05
0.0027934
9.5995e-05
0.0025858
0.00011172
0.0023364
0.00012553
0.0020471
0.00013724
0.0017269
0.00014653
0.0013724
0.00015355
0.0010053
0.00015768
0.00060623
0.00021411
0.0001596
2.0152e-05
0.0031476
1.9604e-08
4.0346e-05
0.003056
5.9981e-05
0.0029367
7.865e-05
0.0027747
9.6e-05
0.0025684
0.00011173
0.0023207
0.00012554
0.0020333
0.00013725
0.0017152
0.00014655
0.0013631
0.00015356
0.00099826
0.0001577
0.00060209
0.00021221
0.0001596
2.0153e-05
0.0031274
1.9772e-08
4.0348e-05
0.0030358
5.9984e-05
0.002917
7.8654e-05
0.0027561
9.6006e-05
0.0025511
0.00011174
0.002305
0.00012555
0.0020195
0.00013727
0.0017035
0.00014656
0.0013539
0.00015358
0.00099125
0.00015772
0.00059795
0.00021033
0.0001596
2.0154e-05
0.0031073
1.9942e-08
4.035e-05
0.0030156
5.9988e-05
0.0028974
7.8659e-05
0.0027374
9.6012e-05
0.0025337
0.00011175
0.0022892
0.00012556
0.0020057
0.00013728
0.0016917
0.00014658
0.0013446
0.00015359
0.00098424
0.00015773
0.00059381
0.00020846
0.0001596
2.0155e-05
0.0030871
2.0115e-08
4.0352e-05
0.0029954
5.9991e-05
0.0028777
7.8664e-05
0.0027187
9.6019e-05
0.0025164
0.00011175
0.0022735
0.00012557
0.0019919
0.00013729
0.00168
0.00014659
0.0013353
0.0001536
0.00097723
0.00015775
0.00058966
0.00020661
0.0001596
2.0155e-05
0.0030669
2.0292e-08
4.0354e-05
0.0029752
5.9994e-05
0.0028581
7.8668e-05
0.0027001
9.6025e-05
0.002499
0.00011176
0.0022578
0.00012558
0.0019781
0.0001373
0.0016683
0.00014661
0.0013259
0.00015361
0.00097022
0.00015776
0.00058551
0.00020477
0.0001596
2.0156e-05
0.0030467
2.0471e-08
4.0356e-05
0.002955
5.9997e-05
0.0028385
7.8673e-05
0.0026814
9.6031e-05
0.0024817
0.00011177
0.002242
0.00012559
0.0019642
0.00013731
0.0016566
0.00014662
0.0013166
0.00015363
0.00096321
0.00015778
0.00058135
0.00020295
0.00015961
2.0157e-05
0.0030266
2.0654e-08
4.0358e-05
0.0029348
6.0001e-05
0.0028188
7.8678e-05
0.0026627
9.6038e-05
0.0024643
0.00011178
0.0022263
0.0001256
0.0019504
0.00013733
0.0016448
0.00014664
0.0013073
0.00015364
0.00095621
0.0001578
0.0005772
0.00020113
0.00015961
2.0158e-05
0.0030064
2.0841e-08
4.0361e-05
0.0029146
6.0004e-05
0.0027992
7.8683e-05
0.002644
9.6044e-05
0.0024469
0.00011179
0.0022105
0.00012561
0.0019366
0.00013734
0.0016331
0.00014665
0.001298
0.00015365
0.00094921
0.00015781
0.00057303
0.00019933
0.00015961
2.0159e-05
0.0029862
2.103e-08
4.0363e-05
0.0028944
6.0008e-05
0.0027795
7.8688e-05
0.0026253
9.6051e-05
0.0024296
0.0001118
0.0021948
0.00012562
0.0019228
0.00013735
0.0016214
0.00014667
0.0012887
0.00015366
0.00094221
0.00015783
0.00056887
0.00019754
0.00015962
2.016e-05
0.002966
2.1223e-08
4.0365e-05
0.0028742
6.0011e-05
0.0027599
7.8693e-05
0.0026067
9.6058e-05
0.0024122
0.0001118
0.0021791
0.00012563
0.0019089
0.00013736
0.0016097
0.00014668