/*--------------------------------*- C++ -*----------------------------------*\
  =========                 |
  \\      /  F ield         | OpenFOAM: The Open Source CFD Toolbox
   \\    /   O peration     | Website:  https://openfoam.org
    \\  /    A nd           | Version:  6.0
     \\/     M anipulation  |
\*---------------------------------------------------------------------------*/
FoamFile
{
    version     2.0;
    format      ascii;
    class       surfaceScalarField;
    location    "12";
    object      phi;
}
// * * * * * * * * * * * * * * * * * * * * * * * * * * * * * * * * * * * * * //

dimensions      [0 3 -1 0 0 0 0];

internalField   nonuniform List<scalar> 
123526
(
2.78655e-05
2.33218e-05
-2.7473e-05
2.82901e-05
2.52125e-05
2.87505e-05
2.72561e-05
2.92468e-05
2.94649e-05
2.97845e-05
3.18522e-05
3.03647e-05
3.44323e-05
3.09935e-05
3.72206e-05
3.16717e-05
4.02338e-05
3.24086e-05
4.3489e-05
3.32033e-05
4.7007e-05
3.40667e-05
5.08089e-05
3.49958e-05
5.49167e-05
3.60067e-05
5.93546e-05
3.70963e-05
6.41464e-05
3.82852e-05
6.93216e-05
3.95643e-05
7.49141e-05
4.09554e-05
8.09536e-05
4.24595e-05
8.74685e-05
4.40969e-05
9.45043e-05
4.58617e-05
0.000102102
4.77835e-05
0.000110294
4.98626e-05
0.000119133
5.2116e-05
0.000128672
5.45607e-05
0.000138944
5.72102e-05
0.000150026
6.00773e-05
0.00016196
6.31881e-05
0.000174808
6.65497e-05
0.000188639
7.01952e-05
0.000203504
7.41321e-05
0.000219485
7.83951e-05
0.000236634
8.29987e-05
0.00025503
8.79746e-05
0.000274728
9.33469e-05
0.000295795
9.91368e-05
0.000318286
0.000105379
0.000342239
0.000112097
0.000367701
0.000119322
0.000394675
0.000127087
0.000423152
0.000135417
0.000453093
0.00014434
0.000484405
0.000153883
0.00051694
0.000164066
0.000550482
0.000174903
0.000584716
0.000186401
0.000619209
0.000198555
0.000653377
0.000211344
0.000686447
0.000224729
0.000717414
0.000238651
0.000744977
0.00025301
0.000767487
0.000267684
0.00078285
0.000282484
0.00078849
0.000297185
0.000781192
0.000311462
0.000757135
0.000324922
0.0007117
0.000337053
0.000639462
0.000347225
0.000534171
0.000354436
0.000388436
0.000358842
0.000191661
-5.43673e-05
0.000367038
2.74191e-05
2.29344e-05
-2.70332e-05
2.78365e-05
2.47936e-05
2.82895e-05
2.68031e-05
2.87779e-05
2.89751e-05
2.93073e-05
3.13225e-05
2.98786e-05
3.38595e-05
3.04976e-05
3.66011e-05
3.11657e-05
3.95637e-05
3.18911e-05
4.27633e-05
3.26738e-05
4.62213e-05
3.35234e-05
4.99592e-05
3.44384e-05
5.39978e-05
3.54327e-05
5.83608e-05
3.65053e-05
6.30694e-05
3.7674e-05
6.81538e-05
3.89325e-05
7.36512e-05
4.02995e-05
7.95877e-05
4.17785e-05
8.59855e-05
4.33869e-05
9.28973e-05
4.51214e-05
0.000100364
4.70085e-05
0.000108409
4.90509e-05
0.000117088
5.12627e-05
0.000126462
5.36632e-05
0.000136542
5.62628e-05
0.000147428
5.90771e-05
0.000159145
6.21284e-05
0.000171757
6.54271e-05
0.000185339
6.90022e-05
0.000199929
7.28645e-05
0.000215622
7.70451e-05
0.000232452
8.15605e-05
0.000250513
8.64425e-05
0.000269848
9.17132e-05
0.000290526
9.73952e-05
0.000312605
0.000103522
0.000336111
0.000110116
0.000361105
0.000117209
0.000387579
0.000124833
0.000415524
0.000133013
0.000444908
0.000141776
0.000475636
0.000151149
0.000507559
0.00016115
0.000540471
0.000171792
0.000574062
0.000183081
0.000607904
0.000195013
0.000641425
0.000207567
0.000673868
0.000220706
0.000704244
0.00023437
0.000731277
0.000248466
0.000753344
0.000262875
0.000768394
0.000277408
0.000773893
0.00029185
0.000766697
0.000305877
0.000743054
0.000319102
0.000698437
0.000331009
0.000627512
0.000340997
0.000524158
0.000348265
0.000381138
0.000352482
0.000187426
-5.50936e-05
0.000353129
2.695e-05
2.25542e-05
-2.65718e-05
2.73599e-05
2.43824e-05
2.78039e-05
2.63585e-05
2.82834e-05
2.84945e-05
2.88023e-05
3.08029e-05
2.93631e-05
3.32976e-05
2.99701e-05
3.59935e-05
3.06257e-05
3.89063e-05
3.13372e-05
4.20513e-05
3.21053e-05
4.54505e-05
3.29389e-05
4.91255e-05
3.3837e-05
5.3096e-05
3.48129e-05
5.73855e-05
3.58658e-05
6.20123e-05
3.70133e-05
6.70075e-05
3.82488e-05
7.24115e-05
3.9591e-05
7.82471e-05
4.10431e-05
8.45298e-05
4.26223e-05
9.13197e-05
4.43252e-05
9.86585e-05
4.61779e-05
0.000106557
4.81829e-05
0.000115081
5.03542e-05
0.000124292
5.27109e-05
0.000134184
5.52627e-05
0.000144877
5.80256e-05
0.000156381
6.10208e-05
0.000168763
6.42595e-05
0.0001821
6.77692e-05
0.000196419
7.15616e-05
0.00021183
7.56661e-05
0.000228346
8.0101e-05
0.000246079
8.4895e-05
0.000265055
9.00727e-05
0.000285352
9.56543e-05
0.000307026
0.000101674
0.000330092
0.000108153
0.000354625
0.000115123
0.000380607
0.000122616
0.00040803
0.000130654
0.000436867
0.000139264
0.000467022
0.000148472
0.000498346
0.000158296
0.000530642
0.000168747
0.000563603
0.000179832
0.00059681
0.000191545
0.000629702
0.000203869
0.000661534
0.000216766
0.000691335
0.000230182
0.000717852
0.000244024
0.00073949
0.000258174
0.000754239
0.000272449
0.000759607
0.000286634
0.000752514
0.000300411
0.000729273
0.000313398
0.00068546
0.000325079
0.000615829
0.00033488
0.000514365
0.00034206
0.000373953
0.000346294
0.00018318
-5.69836e-05
0.000348229
2.65344e-05
2.21807e-05
-2.6162e-05
2.69372e-05
2.39787e-05
2.73734e-05
2.59221e-05
2.78443e-05
2.80228e-05
2.83537e-05
3.0293e-05
2.89041e-05
3.27463e-05
2.94995e-05
3.53973e-05
3.01429e-05
3.82615e-05
3.08406e-05
4.13528e-05
3.15943e-05
4.46945e-05
3.24115e-05
4.83078e-05
3.32927e-05
5.22116e-05
3.42493e-05
5.64288e-05
3.52825e-05
6.09753e-05
3.64074e-05
6.58829e-05
3.76199e-05
7.11952e-05
3.89362e-05
7.69314e-05
4.03614e-05
8.31011e-05
4.19107e-05
8.97712e-05
4.35824e-05
9.69841e-05
4.54006e-05
0.00010474
4.73691e-05
0.00011311
4.95007e-05
0.000122161
5.18146e-05
0.000131869
5.43203e-05
0.000142372
5.70333e-05
0.000153667
5.99747e-05
0.000165822
6.31554e-05
0.00017892
6.66024e-05
0.000192972
7.03273e-05
0.000208104
7.43592e-05
0.000224314
7.8715e-05
0.000241722
8.34252e-05
0.000260348
8.85109e-05
0.000280269
9.39941e-05
0.000301545
9.99072e-05
0.000324179
0.000106272
0.00034826
0.000113119
0.000373758
0.000120478
0.000400669
0.000128373
0.000428972
0.000136828
0.000458565
0.000145869
0.000489304
0.000155513
0.000520996
0.000165771
0.000553342
0.000176651
0.000585928
0.000188147
0.000618202
0.000200244
0.000649432
0.000212905
0.000678665
0.000226077
0.00070467
0.000239671
0.000725881
0.00025357
0.000740325
0.000267591
0.000745557
0.000281523
0.000738563
0.000295054
0.000715723
0.000307807
0.000672694
0.000319273
0.000604342
0.000328893
0.00050473
0.000335962
0.000366861
0.000340057
0.000179068
-5.88086e-05
0.00034182
2.61362e-05
2.18138e-05
-2.57715e-05
2.65317e-05
2.35822e-05
2.69594e-05
2.54936e-05
2.74219e-05
2.75595e-05
2.79218e-05
2.97921e-05
2.84625e-05
3.22047e-05
2.90475e-05
3.48115e-05
2.96796e-05
3.76278e-05
3.03653e-05
4.06665e-05
3.11057e-05
4.39516e-05
3.19088e-05
4.75045e-05
3.27743e-05
5.13428e-05
3.37143e-05
5.54891e-05
3.47289e-05
5.99569e-05
3.58342e-05
6.47786e-05
3.70248e-05
7.00008e-05
3.83178e-05
7.56397e-05
3.97173e-05
8.16983e-05
4.1239e-05
8.82509e-05
4.28805e-05
9.53399e-05
4.46662e-05
0.000102956
4.65993e-05
0.000111175
4.86927e-05
0.000120069
5.09652e-05
0.000129595
5.3426e-05
0.000139912
5.60907e-05
0.000151002
5.89796e-05
0.000162934
6.21037e-05
0.000175796
6.54892e-05
0.000189586
6.91479e-05
0.000204445
7.31076e-05
0.000220353
7.73864e-05
0.000237444
8.20117e-05
0.000255724
8.70068e-05
0.000275278
9.23913e-05
0.000296162
9.81977e-05
0.000318373
0.000104447
0.00034201
0.00011117
0.000367035
0.000118394
0.000393443
0.000126144
0.000421221
0.000134444
0.000450264
0.000143317
0.000480428
0.000152782
0.00051153
0.00016285
0.000543271
0.000173527
0.000575247
0.000184812
0.000606914
0.000196686
0.000637554
0.000209118
0.00066623
0.000222054
0.000691733
0.000235406
0.000712526
0.00024906
0.000726675
0.000262834
0.000731779
0.000276522
0.000724885
0.000289812
0.000702435
0.000302337
0.000660183
0.0003136
0.00059308
0.000323049
0.00049529
0.000330016
0.000359889
0.000333932
0.000175146
-5.99945e-05
0.000335172
2.57402e-05
2.14543e-05
-2.5382e-05
2.6128e-05
2.31935e-05
2.65479e-05
2.50733e-05
2.70017e-05
2.71051e-05
2.74926e-05
2.93006e-05
2.80235e-05
3.16731e-05
2.85979e-05
3.42363e-05
2.9219e-05
3.70055e-05
2.98925e-05
3.99924e-05
3.06204e-05
4.32218e-05
3.14093e-05
4.67151e-05
3.22605e-05
5.0489e-05
3.31839e-05
5.45657e-05
3.41816e-05
5.8956e-05
3.52673e-05
6.36933e-05
3.64379e-05
6.8827e-05
3.7708e-05
7.43702e-05
3.90835e-05
8.03198e-05
4.05783e-05
8.67569e-05
4.21913e-05
9.37243e-05
4.39454e-05
0.000101203
4.58447e-05
0.000109274
4.79009e-05
0.000118014
5.01333e-05
0.000127361
5.25505e-05
0.000137496
5.51678e-05
0.000148384
5.80053e-05
0.000160097
6.10736e-05
0.000172727
6.43987e-05
0.000186261
6.79918e-05
0.000200852
7.18809e-05
0.000216463
7.60821e-05
0.000233242
8.06248e-05
0.000251184
8.55291e-05
0.000270376
9.08161e-05
0.000290877
9.65168e-05
0.000312672
0.000102652
0.000335874
0.000109251
0.000360435
0.000116343
0.000386351
0.00012395
0.000413613
0.000132097
0.000442117
0.000140806
0.000471718
0.000150096
0.00050224
0.000159979
0.000533388
0.000170461
0.000564765
0.00018154
0.000595835
0.000193201
0.000625893
0.00020541
0.000654018
0.000218117
0.000679024
0.000231235
0.000699401
0.00024465
0.000713254
0.000258182
0.000718228
0.000271628
0.00071143
0.000284684
0.000689371
0.000296985
0.000647876
0.000308049
0.000582002
0.000317335
0.000485991
0.000324204
0.000353001
0.000327989
0.000171349
-6.0729e-05
0.000328673
2.53536e-05
2.11015e-05
-2.50022e-05
2.57345e-05
2.28118e-05
2.61466e-05
2.46606e-05
2.65923e-05
2.66587e-05
2.70742e-05
2.88179e-05
2.75956e-05
3.11509e-05
2.81597e-05
3.36715e-05
2.87696e-05
3.63944e-05
2.9431e-05
3.93303e-05
3.01459e-05
4.25049e-05
3.09209e-05
4.59396e-05
3.17568e-05
4.96501e-05
3.26642e-05
5.36584e-05
3.36442e-05
5.79726e-05
3.4711e-05
6.26269e-05
3.5861e-05
6.76737e-05
3.71091e-05
7.31229e-05
3.84605e-05
7.89655e-05
3.9929e-05
8.52892e-05
4.15137e-05
9.21373e-05
4.32368e-05
9.94803e-05
4.51025e-05
0.000107406
4.71221e-05
0.000115995
4.93148e-05
0.000125167
5.16887e-05
0.000135123
5.42592e-05
0.000145813
5.70458e-05
0.00015731
6.00591e-05
0.000169713
6.33242e-05
0.000182995
6.68527e-05
0.000197323
7.06712e-05
0.000212643
7.47971e-05
0.000229117
7.92568e-05
0.000246725
8.40724e-05
0.000265563
8.92631e-05
0.000285688
9.486e-05
0.000307075
0.000100883
0.00032985
0.000107362
0.000353955
0.000114324
0.000379388
0.000121792
0.000406145
0.000129789
0.000434118
0.00013834
0.000463166
0.000147461
0.000493117
0.000157164
0.000523683
0.000167458
0.000554469
0.000178339
0.000584952
0.000189792
0.000614437
0.000201787
0.000642021
0.000214271
0.00066654
0.000227159
0.000686511
0.000240339
0.000700078
0.000253633
0.000704929
0.000266841
0.000698229
0.000279664
0.000676551
0.000291745
0.000635807
0.000302612
0.000571135
0.000311737
0.000476875
0.000318508
0.000346225
0.000322202
0.000167656
-6.09276e-05
0.00032246
2.4987e-05
2.07545e-05
-2.46406e-05
2.53615e-05
2.24365e-05
2.57673e-05
2.42548e-05
2.62055e-05
2.62201e-05
2.66794e-05
2.83437e-05
2.71918e-05
3.06381e-05
2.77459e-05
3.31169e-05
2.83451e-05
3.57944e-05
2.89943e-05
3.86804e-05
2.96965e-05
4.18013e-05
3.0457e-05
4.51785e-05
3.12783e-05
4.88268e-05
3.21685e-05
5.27677e-05
3.31313e-05
5.70072e-05
3.41782e-05
6.158e-05
3.53078e-05
6.65414e-05
3.65327e-05
7.18982e-05
3.786e-05
7.76357e-05
3.93016e-05
8.3848e-05
4.08578e-05
9.05789e-05
4.25495e-05
9.77892e-05
4.43815e-05
0.000105573
4.63645e-05
0.000114012
4.85174e-05
0.000123013
5.08482e-05
0.000132792
5.33721e-05
0.000143288
5.6108e-05
0.000154575
5.90664e-05
0.000166755
6.22724e-05
0.000179789
6.57365e-05
0.000193858
6.94859e-05
0.000208893
7.35361e-05
0.000225066
7.79151e-05
0.000242348
8.26427e-05
0.000260838
8.77389e-05
0.000280593
9.32339e-05
0.00030158
9.91474e-05
0.000323936
0.000105508
0.000347594
0.000112344
0.000372551
0.000119676
0.000398812
0.000127529
0.000426265
0.000135925
0.000454769
0.000144882
0.00048416
0.000154413
0.000514153
0.000164523
0.000544359
0.000175212
0.000574264
0.000186465
0.000603186
0.000198249
0.000630236
0.000210515
0.000654274
0.000223178
0.000673844
0.000236126
0.000687127
0.000249185
0.000691855
0.000262157
0.000685252
0.000274749
0.000663954
0.000286611
0.000623943
0.000297283
0.000560452
0.000306249
0.000467897
0.000312914
0.000339542
0.000316536
0.000164025
-6.09554e-05
0.000316522
2.46471e-05
2.04124e-05
-2.43067e-05
2.50163e-05
2.20666e-05
2.54152e-05
2.38551e-05
2.58465e-05
2.57882e-05
2.63123e-05
2.78769e-05
2.68161e-05
3.01336e-05
2.73607e-05
3.25715e-05
2.79493e-05
3.52046e-05
2.85873e-05
3.80418e-05
2.92764e-05
4.11101e-05
3.00235e-05
4.4431e-05
3.08291e-05
4.80185e-05
3.17035e-05
5.18935e-05
3.26479e-05
5.60597e-05
3.36758e-05
6.05526e-05
3.4784e-05
6.54303e-05
3.59864e-05
7.06965e-05
3.72887e-05
7.63309e-05
3.87037e-05
8.24339e-05
4.02309e-05
8.90497e-05
4.18911e-05
9.61298e-05
4.36891e-05
0.000103773
4.56353e-05
0.000112067
4.77484e-05
0.000120898
5.0036e-05
0.000130505
5.25133e-05
0.00014081
5.51987e-05
0.00015189
5.81028e-05
0.00016385
6.12496e-05
0.000176642
6.46503e-05
0.000190457
6.83307e-05
0.000205211
7.23072e-05
0.000221089
7.66057e-05
0.000238051
8.12471e-05
0.000256199
8.62504e-05
0.000275591
9.16455e-05
0.000296185
9.74517e-05
0.000318129
0.000103697
0.000341347
0.000110409
0.000365838
0.000117609
0.000391611
0.000125321
0.000418552
0.000133568
0.000446522
0.000142366
0.000475361
0.000151728
0.000504789
0.000161661
0.000534424
0.000172162
0.00056376
0.000183218
0.000592128
0.000194797
0.000618655
0.000206849
0.000642222
0.000219289
0.000661402
0.000232009
0.00067441
0.000244834
0.000679022
0.000257572
0.000672518
0.000269936
0.000651592
0.000281581
0.000612308
0.000292059
0.000549972
0.000300867
0.000459098
0.000307418
0.000332987
0.00031097
0.000160481
-6.07199e-05
0.000310794
2.43375e-05
2.00756e-05
-2.40016e-05
2.47008e-05
2.17026e-05
2.50938e-05
2.3462e-05
2.55179e-05
2.53636e-05
2.59764e-05
2.74182e-05
2.64717e-05
2.96379e-05
2.70069e-05
3.20357e-05
2.75853e-05
3.46255e-05
2.82117e-05
3.74149e-05
2.88887e-05
4.04318e-05
2.96217e-05
4.36977e-05
3.04128e-05
4.72255e-05
3.12702e-05
5.1036e-05
3.21972e-05
5.51304e-05
3.32051e-05
5.95449e-05
3.42925e-05
6.43405e-05
3.54715e-05
6.95178e-05
3.67493e-05
7.5051e-05
3.81369e-05
8.10467e-05
3.96352e-05
8.75496e-05
4.12637e-05
9.45017e-05
4.30277e-05
0.000102007
4.49371e-05
0.000110158
4.70104e-05
0.000118824
4.92551e-05
0.000128261
5.16861e-05
0.000138379
5.43215e-05
0.000149254
5.71715e-05
0.000161
6.02602e-05
0.000173553
6.35978e-05
0.000187119
6.72107e-05
0.000201597
7.11137e-05
0.000217185
7.53338e-05
0.000233833
7.98902e-05
0.000251645
8.48024e-05
0.00027068
9.00994e-05
0.000290888
9.58006e-05
0.000312427
0.000101934
0.000335213
0.000108525
0.000359246
0.000115596
0.000384539
0.000123171
0.000410978
0.000131271
0.000438421
0.000139913
0.000466718
0.000149111
0.000495592
0.00015887
0.000524665
0.000169188
0.000553442
0.000180051
0.000581266
0.000191428
0.000607279
0.000203268
0.000630382
0.000215489
0.000649178
0.000227982
0.000661916
0.000240576
0.000666415
0.000253083
0.000660007
0.000265221
0.000639452
0.000276651
0.000600875
0.000286938
0.000539675
0.000295586
0.00045044
0.000302016
0.00032654
0.000305498
0.000156992
-6.04861e-05
0.000305228
2.40541e-05
1.9744e-05
-2.37236e-05
2.44115e-05
2.13445e-05
2.47976e-05
2.30753e-05
2.52146e-05
2.49461e-05
2.5665e-05
2.69672e-05
2.61517e-05
2.91506e-05
2.66777e-05
3.15091e-05
2.72458e-05
3.40564e-05
2.78612e-05
3.6799e-05
2.85257e-05
3.97656e-05
2.92454e-05
4.29776e-05
3.00215e-05
4.6447e-05
3.08631e-05
5.01943e-05
3.17722e-05
5.42184e-05
3.27612e-05
5.85563e-05
3.38276e-05
6.32713e-05
3.49843e-05
6.83616e-05
3.62374e-05
7.37956e-05
3.75986e-05
7.96861e-05
3.90681e-05
8.60782e-05
4.06655e-05
9.29049e-05
4.23959e-05
0.000100276
4.42689e-05
0.000108286
4.6303e-05
0.000116789
4.85053e-05
0.000126059
5.08906e-05
0.000135993
5.34765e-05
0.000146669
5.62734e-05
0.000158203
5.93045e-05
0.000170522
6.25806e-05
0.000183842
6.61265e-05
0.00019805
6.99581e-05
0.000213354
7.41005e-05
0.000229692
7.85738e-05
0.000247174
8.33966e-05
0.000265858
8.85977e-05
0.000285686
9.41961e-05
0.000306828
0.000100219
0.000329189
0.000106692
0.000352771
0.000113637
0.000377593
0.000121077
0.000403537
0.000129034
0.000430463
0.000137525
0.000458226
0.000146561
0.000486554
0.000156149
0.000515075
0.000166287
0.000543302
0.00017696
0.000570591
0.000188137
0.000596099
0.000199769
0.00061875
0.000211772
0.000637172
0.000224041
0.000649648
0.000236407
0.00065404
0.000248684
0.000647731
0.000260599
0.000627539
0.000271818
0.000589664
0.000281916
0.000529576
0.000290405
0.000441958
0.00029671
0.00032023
0.000300117
0.000153597
-6.0096e-05
0.000299787
2.37888e-05
1.94186e-05
-2.34636e-05
2.41395e-05
2.09931e-05
2.45192e-05
2.26959e-05
2.49286e-05
2.45363e-05
2.53712e-05
2.65245e-05
2.58492e-05
2.86723e-05
2.63657e-05
3.09924e-05
2.69238e-05
3.34978e-05
2.75277e-05
3.61945e-05
2.81807e-05
3.91117e-05
2.88868e-05
4.22709e-05
2.96492e-05
4.56832e-05
3.04746e-05
4.93685e-05
3.13674e-05
5.33237e-05
3.23371e-05
5.75863e-05
3.33839e-05
6.22225e-05
3.45182e-05
6.72273e-05
3.57478e-05
7.2564e-05
3.70828e-05
7.83514e-05
3.85245e-05
8.46347e-05
4.00914e-05
9.13383e-05
4.1789e-05
9.85766e-05
4.36266e-05
0.000106448
4.56223e-05
0.000114792
4.77831e-05
0.000123899
5.01236e-05
0.000133651
5.26612e-05
0.000144131
5.54059e-05
0.000155458
5.83809e-05
0.000167546
6.15963e-05
0.000180626
6.50772e-05
0.000194568
6.88382e-05
0.000209592
7.29052e-05
0.000225626
7.72969e-05
0.000242784
8.20322e-05
0.000261124
8.71395e-05
0.000280579
9.26371e-05
0.000301329
9.85521e-05
0.000323274
0.00010491
0.000346413
0.000111732
0.000370771
0.00011904
0.000396228
0.000126856
0.000422646
0.000135197
0.000449885
0.000144075
0.000477677
0.000153495
0.000505656
0.000163455
0.000533343
0.00017394
0.000560106
0.00018492
0.00058512
0.000196345
0.000607327
0.000208133
0.000625382
0.00022018
0.000637602
0.00023232
0.000641889
0.000244371
0.000635676
0.000256066
0.000615843
0.000267076
0.000578652
0.000276986
0.000519656
0.000285317
0.000433616
0.000291498
0.000314032
0.000294829
0.000150257
-5.97531e-05
0.000294453
2.35316e-05
1.90991e-05
-2.32134e-05
2.38759e-05
2.06481e-05
2.42478e-05
2.23233e-05
2.46497e-05
2.41338e-05
2.50839e-05
2.60896e-05
2.5553e-05
2.82024e-05
2.60603e-05
3.04845e-05
2.6608e-05
3.29489e-05
2.72016e-05
3.56005e-05
2.78423e-05
3.84692e-05
2.85364e-05
4.15766e-05
2.92844e-05
4.49328e-05
3.00957e-05
4.85574e-05
3.09717e-05
5.24451e-05
3.19245e-05
5.6634e-05
3.29516e-05
6.11929e-05
3.40655e-05
6.61141e-05
3.5272e-05
7.13554e-05
3.65825e-05
7.70416e-05
3.79972e-05
8.32184e-05
3.9535e-05
8.98012e-05
4.12008e-05
9.69095e-05
4.3004e-05
0.000104646
4.49625e-05
0.000112832
4.7083e-05
0.000121779
4.938e-05
0.000131354
5.18705e-05
0.000141641
5.45647e-05
0.000152763
5.74847e-05
0.000164626
6.06412e-05
0.000177469
6.40582e-05
0.00019115
6.7751e-05
0.000205899
7.17437e-05
0.000221634
7.6056e-05
0.000238474
8.07059e-05
0.000256475
8.57212e-05
0.000275563
9.11204e-05
0.000295929
9.69298e-05
0.000317463
0.000103175
0.000340167
0.000109875
0.00036407
0.000117054
0.000389049
0.000124733
0.000414967
0.000132927
0.00044169
0.000141648
0.000468955
0.000150902
0.0004964
0.000160686
0.000523557
0.000170986
0.000549805
0.00018177
0.000574333
0.00019299
0.000596107
0.000204565
0.000613803
0.000216393
0.000625774
0.00022831
0.000629961
0.000240138
0.000623848
0.000251616
0.000604367
0.00026242
0.000567853
0.000272146
0.000509928
0.000280321
0.000425448
0.000286377
0.000307973
0.00028963
0.000147021
-5.92817e-05
0.000289215
2.32746e-05
1.87861e-05
-2.29621e-05
2.3612e-05
2.031e-05
2.39774e-05
2.1958e-05
2.43716e-05
2.37391e-05
2.47981e-05
2.56631e-05
2.52587e-05
2.77415e-05
2.57566e-05
2.99863e-05
2.62947e-05
3.24103e-05
2.68773e-05
3.50175e-05
2.7507e-05
3.78386e-05
2.81884e-05
4.08949e-05
2.89237e-05
4.4196e-05
2.972e-05
4.77611e-05
3.05809e-05
5.15824e-05
3.15162e-05
5.5699e-05
3.25253e-05
6.0182e-05
3.36187e-05
6.5021e-05
3.48037e-05
7.01687e-05
3.609e-05
7.57557e-05
3.74791e-05
8.18278e-05
3.89887e-05
8.8292e-05
4.06241e-05
9.52728e-05
4.23943e-05
0.000102876
4.43169e-05
0.000110909
4.63986e-05
0.000119697
4.86537e-05
0.000129098
5.10987e-05
0.000139196
5.37436e-05
0.000150118
5.66107e-05
0.000161759
5.97096e-05
0.000174369
6.30649e-05
0.000187794
6.66907e-05
0.000202273
7.06116e-05
0.000217715
7.48461e-05
0.000234241
7.94125e-05
0.00025191
8.43381e-05
0.000270637
8.96409e-05
0.000290626
9.53468e-05
0.000311757
0.000101481
0.000334032
0.000108063
0.000357487
0.000115114
0.000381996
0.000122657
0.000407423
0.000130706
0.000433641
0.000139273
0.000460388
0.000148364
0.000487311
0.000157975
0.000513948
0.000168091
0.00053969
0.000178682
0.000563743
0.000189699
0.000585091
0.000201064
0.000602438
0.000212674
0.000614165
0.000224372
0.000618254
0.00023598
0.000612237
0.000247244
0.000593102
0.000257846
0.000557249
0.000267391
0.000500376
0.000275411
0.000417416
0.000281345
0.000302022
0.000284519
0.000143837
-5.88634e-05
0.00028407
2.30115e-05
1.8479e-05
-2.27051e-05
2.33427e-05
1.99781e-05
2.37009e-05
2.15993e-05
2.4088e-05
2.33515e-05
2.45064e-05
2.52443e-05
2.49585e-05
2.72887e-05
2.54475e-05
2.94969e-05
2.59757e-05
3.18811e-05
2.65482e-05
3.44447e-05
2.71664e-05
3.72188e-05
2.7836e-05
4.0225e-05
2.85581e-05
4.34719e-05
2.93408e-05
4.69783e-05
3.01864e-05
5.07345e-05
3.11056e-05
5.478e-05
3.20968e-05
5.91885e-05
3.31714e-05
6.39469e-05
3.43354e-05
6.90028e-05
3.55992e-05
7.44923e-05
3.69637e-05
8.04618e-05
3.84465e-05
8.68097e-05
4.00528e-05
9.36653e-05
4.17914e-05
0.000101138
4.36796e-05
0.00010902
4.57239e-05
0.000117653
4.79385e-05
0.000126883
5.03396e-05
0.000136795
5.29371e-05
0.000147521
5.57525e-05
0.000158943
5.87961e-05
0.000171326
6.2091e-05
0.000184497
6.5652e-05
0.000198711
6.95025e-05
0.000213865
7.36614e-05
0.000230084
7.81464e-05
0.000247426
8.29842e-05
0.000265799
8.81927e-05
0.000285417
9.37974e-05
0.000306151
9.98225e-05
0.000328007
0.000106288
0.000351021
0.000113215
0.000375069
0.000120624
0.000400013
0.000128531
0.000425733
0.000136946
0.000451972
0.000145874
0.00047838
0.000155314
0.000504507
0.000165248
0.000529753
0.000175648
0.000553341
0.000186466
0.000574272
0.000197623
0.000591277
0.000209019
0.000602768
0.0002205
0.000606764
0.000231892
0.000600842
0.000242946
0.00058205
0.00025335
0.000546848
0.000262716
0.000491008
0.000270584
0.000409552
0.000276398
0.000296206
0.000279494
0.000140759
-5.83279e-05
0.000279012
2.2739e-05
1.81779e-05
-2.24379e-05
2.30635e-05
1.96528e-05
2.34157e-05
2.12477e-05
2.37953e-05
2.29715e-05
2.42064e-05
2.48335e-05
2.46503e-05
2.68447e-05
2.51303e-05
2.90167e-05
2.56492e-05
3.13619e-05
2.62111e-05
3.38825e-05
2.68188e-05
3.66105e-05
2.74762e-05
3.95673e-05
2.81862e-05
4.27608e-05
2.89548e-05
4.62094e-05
2.97864e-05
4.99015e-05
3.06893e-05
5.3877e-05
3.16639e-05
5.82123e-05
3.27196e-05
6.28914e-05
3.38638e-05
6.78569e-05
3.51056e-05
7.32508e-05
3.64467e-05
7.91194e-05
3.79036e-05
8.53531e-05
3.9482e-05
9.20858e-05
4.11901e-05
9.94302e-05
4.30453e-05
0.000107164
4.50537e-05
0.000115645
4.72293e-05
0.000124707
4.9588e-05
0.000134437
5.21395e-05
0.000144969
5.49052e-05
0.000156177
5.78947e-05
0.000168335
6.11314e-05
0.00018126
6.4629e-05
0.000195213
6.84114e-05
0.000210084
7.24964e-05
0.000226001
7.69019e-05
0.000243021
8.16539e-05
0.000261047
8.67702e-05
0.0002803
9.22756e-05
0.000300645
9.8194e-05
0.000322087
0.000104545
0.00034467
0.000111349
0.000368264
0.000118627
0.000392735
0.000126393
0.000417967
0.000134658
0.000443707
0.000143427
0.000469612
0.000152697
0.000495238
0.000162453
0.000519999
0.000172665
0.000543131
0.000183285
0.000563654
0.000194237
0.000580324
0.000205423
0.000591583
0.00021669
0.000595487
0.00022787
0.000589661
0.000238718
0.000571202
0.000248927
0.000536637
0.000258118
0.000481809
0.000265838
0.000401821
0.000271534
0.00029049
0.000274553
0.000137727
-5.78483e-05
0.000274042
2.24549e-05
1.78822e-05
-2.21602e-05
2.27739e-05
1.93331e-05
2.31188e-05
2.09022e-05
2.34917e-05
2.2598e-05
2.38948e-05
2.44297e-05
2.43304e-05
2.64082e-05
2.48019e-05
2.85448e-05
2.53111e-05
3.08516e-05
2.58634e-05
3.33299e-05
2.64598e-05
3.60125e-05
2.71064e-05
3.89207e-05
2.78034e-05
4.20616e-05
2.85597e-05
4.54535e-05
2.93764e-05
4.90824e-05
3.02647e-05
5.29892e-05
3.12224e-05
5.72525e-05
3.22608e-05
6.18537e-05
3.33854e-05
6.67305e-05
3.46065e-05
7.20304e-05
3.59247e-05
7.77999e-05
3.7357e-05
8.39214e-05
3.89083e-05
9.05333e-05
4.05872e-05
9.77519e-05
4.24104e-05
0.00010534
4.43841e-05
0.000113672
4.6522e-05
0.000122569
4.88396e-05
0.000132119
5.13467e-05
0.000142462
5.40639e-05
0.000153459
5.70013e-05
0.000165398
6.0181e-05
0.000178079
6.36174e-05
0.000191777
6.7333e-05
0.000206369
7.13461e-05
0.000221989
7.56738e-05
0.000238695
8.0342e-05
0.000256379
8.5368e-05
0.000275273
9.07761e-05
0.000295236
9.65898e-05
0.000316273
0.000102828
0.000338431
0.000109512
0.00036158
0.00011666
0.000385586
0.000124288
0.000410339
0.000132406
0.000435589
0.000141018
0.000460999
0.000150121
0.000486134
0.0001597
0.000510418
0.000169726
0.000533103
0.000180151
0.000553227
0.000190902
0.00056957
0.000201882
0.000580603
0.00021294
0.000584419
0.000223911
0.000578686
0.000234557
0.000560557
0.000244575
0.00052662
0.000253595
0.000472788
0.000261169
0.000394251
0.00026675
0.000284907
0.000269694
0.000134805
-5.72586e-05
0.000269156
2.21598e-05
1.75922e-05
-2.187e-05
2.24726e-05
1.90195e-05
2.28119e-05
2.05632e-05
2.31778e-05
2.22316e-05
2.3574e-05
2.40337e-05
2.40019e-05
2.598e-05
2.44648e-05
2.80819e-05
2.49651e-05
3.03509e-05
2.55072e-05
3.27877e-05
2.60934e-05
3.54256e-05
2.67282e-05
3.8286e-05
2.74136e-05
4.13752e-05
2.81562e-05
4.47111e-05
2.89594e-05
4.82778e-05
2.98321e-05
5.21169e-05
3.0774e-05
5.63092e-05
3.17943e-05
6.08337e-05
3.29003e-05
6.56232e-05
3.41006e-05
7.08305e-05
3.53966e-05
7.65026e-05
3.68046e-05
8.25138e-05
3.83299e-05
8.90071e-05
3.99803e-05
9.61019e-05
4.17725e-05
0.000103547
4.37125e-05
0.000111732
4.58138e-05
0.000120467
4.80917e-05
0.000129841
5.05555e-05
0.000139998
5.32259e-05
0.000150789
5.61121e-05
0.000162511
5.92367e-05
0.000174954
6.2613e-05
0.0001884
6.62638e-05
0.00020272
7.02064e-05
0.000218048
7.44582e-05
0.000234444
7.90443e-05
0.000251792
8.39817e-05
0.000270335
8.92945e-05
0.000289923
9.50055e-05
0.000310562
0.000101133
0.000332303
0.000107698
0.000355015
0.00011472
0.000378565
0.000122211
0.000402847
0.000130183
0.000427617
0.000138641
0.000452542
0.000147579
0.000477196
0.000156985
0.000501014
0.000166828
0.000523261
0.000177063
0.000542995
0.000187616
0.000559017
0.000198392
0.000569828
0.000209245
0.000573558
0.000220012
0.000567917
0.00023046
0.00055011
0.000240292
0.000516786
0.000249144
0.000463928
0.000256575
0.000386807
0.000262045
0.000279416
0.000264916
0.000131918
-5.67313e-05
0.000264357
2.18547e-05
1.73071e-05
-2.157e-05
2.21621e-05
1.87114e-05
2.2495e-05
2.02301e-05
2.28544e-05
2.18716e-05
2.32434e-05
2.36445e-05
2.36635e-05
2.55593e-05
2.41183e-05
2.76269e-05
2.46094e-05
2.98588e-05
2.51421e-05
3.22548e-05
2.57176e-05
3.48487e-05
2.63414e-05
3.76621e-05
2.70143e-05
4.07004e-05
2.77443e-05
4.39812e-05
2.85333e-05
4.74868e-05
2.93913e-05
5.12592e-05
3.03169e-05
5.53817e-05
3.13203e-05
5.98307e-05
3.24075e-05
6.45344e-05
3.35877e-05
6.96507e-05
3.4862e-05
7.52271e-05
3.62465e-05
8.11299e-05
3.77461e-05
8.75065e-05
3.93687e-05
9.44797e-05
4.11307e-05
0.000101784
4.30379e-05
0.000109825
4.51035e-05
0.000118401
4.73425e-05
0.000127603
4.97642e-05
0.000137576
5.23886e-05
0.000148164
5.52253e-05
0.000159674
5.82957e-05
0.000171882
6.16137e-05
0.000185082
6.52008e-05
0.000199133
6.90747e-05
0.000214176
7.3252e-05
0.000230267
7.77577e-05
0.000247287
8.26083e-05
0.000265484
8.78274e-05
0.000284703
9.34376e-05
0.000304951
9.94569e-05
0.000326283
0.000105905
0.000348566
0.000112802
0.000371668
0.000120159
0.000395489
0.000127989
0.000419787
0.000136294
0.000444236
0.000145071
0.000468418
0.000154305
0.000491778
0.000163969
0.000513595
0.000174016
0.000532946
0.000184375
0.000548655
0.000194952
0.00055925
0.000205604
0.000562895
0.000216172
0.000557345
0.000226425
0.000539856
0.000236075
0.000507137
0.000244763
0.000455239
0.000252054
0.000379519
0.000257416
0.000274053
0.000260217
0.00012914
-5.61041e-05
0.000259639
2.15415e-05
1.70274e-05
-2.12615e-05
2.18431e-05
1.8409e-05
2.21706e-05
1.99033e-05
2.25233e-05
2.15184e-05
2.29056e-05
2.32627e-05
2.33182e-05
2.51466e-05
2.37646e-05
2.71806e-05
2.42472e-05
2.93761e-05
2.477e-05
3.17319e-05
2.53356e-05
3.42827e-05
2.59478e-05
3.70498e-05
2.66094e-05
4.0038e-05
2.73259e-05
4.32646e-05
2.81017e-05
4.671e-05
2.89443e-05
5.04167e-05
2.98544e-05
5.44704e-05
3.08402e-05
5.8845e-05
3.19092e-05
6.34642e-05
3.30692e-05
6.8491e-05
3.43222e-05
7.3973e-05
3.56832e-05
7.97692e-05
3.71576e-05
8.60312e-05
3.87529e-05
9.28848e-05
4.04852e-05
0.000100051
4.23602e-05
0.000107951
4.43908e-05
0.00011637
4.65918e-05
0.000125402
4.89721e-05
0.000135195
5.15518e-05
0.000145585
5.43395e-05
0.000156886
5.73573e-05
0.000168864
6.06177e-05
0.000181821
6.41426e-05
0.000195609
6.7949e-05
0.000210371
7.20534e-05
0.000226164
7.64802e-05
0.00024286
8.12457e-05
0.000260718
8.63729e-05
0.000279576
9.18839e-05
0.000299439
9.77966e-05
0.00032037
0.00010413
0.000342232
0.000110904
0.000364894
0.00011813
0.000388263
0.000125819
0.000412099
0.000133974
0.000436082
0.000142592
0.000459801
0.000151659
0.000482712
0.000161146
0.00050411
0.000171009
0.000523086
0.000181178
0.000538487
0.00019156
0.000548869
0.000202015
0.000552432
0.000212388
0.000546971
0.000222452
0.000529792
0.000231924
0.000497663
0.000240451
0.000446704
0.000247606
0.000372349
0.000252863
0.000268773
0.000255596
0.000126385
-5.5547e-05
0.000255005
2.12217e-05
1.67524e-05
-2.09474e-05
2.15182e-05
1.81117e-05
2.1839e-05
1.9582e-05
2.21856e-05
2.11711e-05
2.25605e-05
2.28874e-05
2.29655e-05
2.47408e-05
2.34041e-05
2.67419e-05
2.38775e-05
2.89015e-05
2.43915e-05
3.1218e-05
2.49463e-05
3.37263e-05
2.55483e-05
3.6448e-05
2.61975e-05
3.9387e-05
2.69022e-05
4.25603e-05
2.76638e-05
4.59465e-05
2.84924e-05
4.95887e-05
2.93862e-05
5.35747e-05
3.03557e-05
5.78763e-05
3.14061e-05
6.24123e-05
3.25467e-05
6.73511e-05
3.37782e-05